title = "dataset feddes"
variables = "x", "y", "z", "vx", "vy", "vz"
zone t = "velocities, solution time =  5.100E+01 days        " i =   99, j =   99, k =    1,  f=point
 -0.5050505E-02  0.0000000E+00 -0.5050505E-02  0.6012928E-07  0.0000000E+00 -0.2542807E-04
 -0.5050505E-02  0.0000000E+00 -0.5050505E-02  0.1805088E-06  0.0000000E+00 -0.2518669E-04
 -0.5050505E-02  0.0000000E+00 -0.5050505E-02  0.3012554E-06  0.0000000E+00 -0.2470347E-04
 -0.5050505E-02  0.0000000E+00 -0.5050505E-02  0.4226220E-06  0.0000000E+00 -0.2397747E-04
 -0.5050505E-02  0.0000000E+00 -0.5050505E-02  0.5448695E-06  0.0000000E+00 -0.2300726E-04
 -0.5050505E-02  0.0000000E+00 -0.5050505E-02  0.6682695E-06  0.0000000E+00 -0.2179089E-04
 -0.5050504E-02  0.0000000E+00 -0.5050505E-02  0.7931072E-06  0.0000000E+00 -0.2032588E-04
 -0.5050501E-02  0.0000000E+00 -0.5050505E-02  0.9196841E-06  0.0000000E+00 -0.1860919E-04
 -0.5050495E-02  0.0000000E+00 -0.5050505E-02  0.1048322E-05  0.0000000E+00 -0.1663719E-04
 -0.5050482E-02  0.0000000E+00 -0.5050505E-02  0.1179366E-05  0.0000000E+00 -0.1440558E-04
 -0.5050449E-02  0.0000000E+00 -0.5050505E-02  0.1313192E-05  0.0000000E+00 -0.1190940E-04
 -0.5050376E-02  0.0000000E+00 -0.5050505E-02  0.1450205E-05  0.0000000E+00 -0.9142930E-05
 -0.5050299E-02  0.0000000E+00 -0.5050505E-02  0.1590856E-05  0.0000000E+00 -0.6099619E-05
 -0.5050178E-02  0.0000000E+00 -0.5050505E-02  0.1735636E-05  0.0000000E+00 -0.2772026E-05
 -0.5050018E-02  0.0000000E+00 -0.5050505E-02  0.1885097E-05  0.0000000E+00  0.8527461E-06
 -0.5049710E-02  0.0000000E+00 -0.5050505E-02  0.2039728E-05  0.0000000E+00  0.4788034E-05
 -0.5049253E-02  0.0000000E+00 -0.5050505E-02  0.2200324E-05  0.0000000E+00  0.9043004E-05
 -0.5048636E-02  0.0000000E+00 -0.5050505E-02  0.2367662E-05  0.0000000E+00  0.1362945E-04
 -0.5047442E-02  0.0000000E+00 -0.5050505E-02  0.2542623E-05  0.0000000E+00  0.1856235E-04
 -0.5045727E-02  0.0000000E+00 -0.5050505E-02  0.2726210E-05  0.0000000E+00  0.2385866E-04
 -0.5043261E-02  0.0000000E+00 -0.5050505E-02  0.2919572E-05  0.0000000E+00  0.2953756E-04
 -0.5038714E-02  0.0000000E+00 -0.5050505E-02  0.3124027E-05  0.0000000E+00  0.3562084E-04
 -0.5032318E-02  0.0000000E+00 -0.5050505E-02  0.3341094E-05  0.0000000E+00  0.4213325E-04
 -0.5022454E-02  0.0000000E+00 -0.5050505E-02  0.3572529E-05  0.0000000E+00  0.4910301E-04
 -0.5012589E-02  0.0000000E+00 -0.5050505E-02  0.3820368E-05  0.0000000E+00  0.5656229E-04
 -0.5002725E-02  0.0000000E+00 -0.5050505E-02  0.4086981E-05  0.0000000E+00  0.6454792E-04
 -0.4992860E-02  0.0000000E+00 -0.5050505E-02  0.4375136E-05  0.0000000E+00  0.7310217E-04
 -0.4976523E-02  0.0000000E+00 -0.5050505E-02  0.4688071E-05  0.0000000E+00  0.8227365E-04
 -0.4956794E-02  0.0000000E+00 -0.5050505E-02  0.5029592E-05  0.0000000E+00  0.9211843E-04
 -0.4937066E-02  0.0000000E+00 -0.5050505E-02  0.5404170E-05  0.0000000E+00  0.1027014E-03
 -0.4906239E-02  0.0000000E+00 -0.5050505E-02  0.5817076E-05  0.0000000E+00  0.1140979E-03
 -0.4866782E-02  0.0000000E+00 -0.5050505E-02  0.6274517E-05  0.0000000E+00  0.1263954E-03
 -0.4827325E-02  0.0000000E+00 -0.5050505E-02  0.6783789E-05  0.0000000E+00  0.1396960E-03
 -0.4769372E-02  0.0000000E+00 -0.5050505E-02  0.7353427E-05  0.0000000E+00  0.1541190E-03
 -0.4690458E-02  0.0000000E+00 -0.5050505E-02  0.7993311E-05  0.0000000E+00  0.1698035E-03
 -0.4611543E-02  0.0000000E+00 -0.5050505E-02  0.8714660E-05  0.0000000E+00  0.1869119E-03
 -0.4503035E-02  0.0000000E+00 -0.5050505E-02  0.9529763E-05  0.0000000E+00  0.2056326E-03
 -0.4345206E-02  0.0000000E+00 -0.5050505E-02  0.1045119E-04  0.0000000E+00  0.2261820E-03
 -0.4187378E-02  0.0000000E+00 -0.5050505E-02  0.1148999E-04  0.0000000E+00  0.2488039E-03
 -0.3985156E-02  0.0000000E+00 -0.5050505E-02  0.1265225E-04  0.0000000E+00  0.2737637E-03
 -0.3669499E-02  0.0000000E+00 -0.5050505E-02  0.1393299E-04  0.0000000E+00  0.3013327E-03
 -0.3353842E-02  0.0000000E+00 -0.5050505E-02  0.1530718E-04  0.0000000E+00  0.3317565E-03
 -0.2978990E-02  0.0000000E+00 -0.5050505E-02  0.1672028E-04  0.0000000E+00  0.3652032E-03
 -0.2347676E-02  0.0000000E+00 -0.5050505E-02  0.1808801E-04  0.0000000E+00  0.4017011E-03
 -0.1716362E-02  0.0000000E+00 -0.5050505E-02  0.1932870E-04  0.0000000E+00  0.4411067E-03
 -0.1025842E-02  0.0000000E+00 -0.5050505E-02  0.2045260E-04  0.0000000E+00  0.4832016E-03
  0.2367855E-03  0.0000000E+00 -0.5050505E-02  0.2165631E-04  0.0000000E+00  0.5279857E-03
  0.1499413E-02  0.0000000E+00 -0.5050505E-02  0.2318519E-04  0.0000000E+00  0.5759339E-03
  0.2762042E-02  0.0000000E+00 -0.5050505E-02  0.2522883E-04  0.0000000E+00  0.6280019E-03
 -0.5050505E-02  0.0000000E+00 -0.5050505E-02  0.2797369E-04  0.0000000E+00  0.6855795E-03
 -0.5050505E-02  0.0000000E+00 -0.5050505E-02  0.3170909E-04  0.0000000E+00  0.7506191E-03
 -0.5050505E-02  0.0000000E+00 -0.5050505E-02  0.3683978E-04  0.0000000E+00  0.8259070E-03
 -0.5050505E-02  0.0000000E+00 -0.5050505E-02  0.4297397E-04  0.0000000E+00  0.9143593E-03
 -0.5050505E-02  0.0000000E+00 -0.5050505E-02  0.4169666E-04  0.0000000E+00  0.1009138E-02
 -0.5050505E-02  0.0000000E+00 -0.5050505E-02  0.3741105E-04  0.0000000E+00  0.1098665E-02
 -0.5050505E-02  0.0000000E+00 -0.5050505E-02  0.4657844E-04  0.0000000E+00  0.1194801E-02
 -0.5050504E-02  0.0000000E+00 -0.5050505E-02  0.6587323E-04  0.0000000E+00  0.1325041E-02
 -0.5050501E-02  0.0000000E+00 -0.5050505E-02  0.8902655E-04  0.0000000E+00  0.1507234E-02
 -0.5050495E-02  0.0000000E+00 -0.5050505E-02  0.1028207E-03  0.0000000E+00  0.1737593E-02
 -0.5050482E-02  0.0000000E+00 -0.5050505E-02  0.1467475E-03  0.0000000E+00  0.2045800E-02
 -0.5050449E-02  0.0000000E+00 -0.5050505E-02 -0.8477207E-04  0.0000000E+00  0.2121403E-02
 -0.5050376E-02  0.0000000E+00 -0.5050505E-02 -0.1272806E-03  0.0000000E+00  0.1857518E-02
 -0.5050299E-02  0.0000000E+00 -0.5050505E-02 -0.9850151E-04  0.0000000E+00  0.1583777E-02
 -0.5050178E-02  0.0000000E+00 -0.5050505E-02 -0.8129320E-04  0.0000000E+00  0.1371222E-02
 -0.5050018E-02  0.0000000E+00 -0.5050505E-02 -0.5578388E-04  0.0000000E+00  0.1212089E-02
 -0.5049710E-02  0.0000000E+00 -0.5050505E-02 -0.4078184E-04  0.0000000E+00  0.1101488E-02
 -0.5049253E-02  0.0000000E+00 -0.5050505E-02 -0.3165378E-04  0.0000000E+00  0.1019346E-02
 -0.5048636E-02  0.0000000E+00 -0.5050505E-02 -0.2619185E-04  0.0000000E+00  0.9542629E-03
 -0.5047442E-02  0.0000000E+00 -0.5050505E-02 -0.2318561E-04  0.0000000E+00  0.8990759E-03
 -0.5045727E-02  0.0000000E+00 -0.5050505E-02 -0.2232292E-04  0.0000000E+00  0.8485227E-03
 -0.5043261E-02  0.0000000E+00 -0.5050505E-02 -0.2324647E-04  0.0000000E+00  0.7982086E-03
 -0.5038714E-02  0.0000000E+00 -0.5050505E-02 -0.2445325E-04  0.0000000E+00  0.7458695E-03
 -0.5032318E-02  0.0000000E+00 -0.5050505E-02 -0.2433580E-04  0.0000000E+00  0.6926682E-03
 -0.5022454E-02  0.0000000E+00 -0.5050505E-02 -0.2288252E-04  0.0000000E+00  0.6414885E-03
 -0.5012589E-02  0.0000000E+00 -0.5050505E-02 -0.2119721E-04  0.0000000E+00  0.5939806E-03
 -0.5002725E-02  0.0000000E+00 -0.5050505E-02 -0.1941314E-04  0.0000000E+00  0.5504390E-03
 -0.4992860E-02  0.0000000E+00 -0.5050505E-02 -0.1764802E-04  0.0000000E+00  0.5108909E-03
 -0.4976523E-02  0.0000000E+00 -0.5050505E-02 -0.1600727E-04  0.0000000E+00  0.4751313E-03
 -0.4956794E-02  0.0000000E+00 -0.5050505E-02 -0.1453822E-04  0.0000000E+00  0.4428021E-03
 -0.4937066E-02  0.0000000E+00 -0.5050505E-02 -0.1324113E-04  0.0000000E+00  0.4135045E-03
 -0.4906239E-02  0.0000000E+00 -0.5050505E-02 -0.1209326E-04  0.0000000E+00  0.3868712E-03
 -0.4866782E-02  0.0000000E+00 -0.5050505E-02 -0.1106598E-04  0.0000000E+00  0.3625960E-03
 -0.4827325E-02  0.0000000E+00 -0.5050505E-02 -0.1013309E-04  0.0000000E+00  0.3404350E-03
 -0.4769372E-02  0.0000000E+00 -0.5050505E-02 -0.9273735E-05  0.0000000E+00  0.3201971E-03
 -0.4690458E-02  0.0000000E+00 -0.5050505E-02 -0.8472435E-05  0.0000000E+00  0.3017324E-03
 -0.4611543E-02  0.0000000E+00 -0.5050505E-02 -0.7718116E-05  0.0000000E+00  0.2849205E-03
 -0.4503035E-02  0.0000000E+00 -0.5050505E-02 -0.7002834E-05  0.0000000E+00  0.2696629E-03
 -0.4345206E-02  0.0000000E+00 -0.5050505E-02 -0.6320640E-05  0.0000000E+00  0.2558769E-03
 -0.4187378E-02  0.0000000E+00 -0.5050505E-02 -0.5666643E-05  0.0000000E+00  0.2434920E-03
 -0.3985156E-02  0.0000000E+00 -0.5050505E-02 -0.5036242E-05  0.0000000E+00  0.2324489E-03
 -0.3669499E-02  0.0000000E+00 -0.5050505E-02 -0.4424334E-05  0.0000000E+00  0.2226992E-03
 -0.3353842E-02  0.0000000E+00 -0.5050505E-02 -0.3824152E-05  0.0000000E+00  0.2142074E-03
 -0.2978990E-02  0.0000000E+00 -0.5050505E-02 -0.3224939E-05  0.0000000E+00  0.2069568E-03
 -0.2347676E-02  0.0000000E+00 -0.5050505E-02 -0.2606283E-05  0.0000000E+00  0.2009632E-03
 -0.1716362E-02  0.0000000E+00 -0.5050505E-02 -0.1922505E-05  0.0000000E+00  0.1963109E-03
 -0.1025842E-02  0.0000000E+00 -0.5050505E-02 -0.1055133E-05  0.0000000E+00  0.1932532E-03
  0.2367855E-03  0.0000000E+00 -0.5050505E-02  0.3461346E-06  0.0000000E+00  0.1925253E-03
  0.1499413E-02  0.0000000E+00 -0.5050505E-02  0.3443063E-05  0.0000000E+00  0.1964160E-03
  0.5287294E-02  0.0000000E+00 -0.5050505E-02  0.6844905E-04  0.0000000E+00  0.1560373E-03
 -0.5050505E-02  0.0000000E+00 -0.5050505E-02  0.1801650E-06  0.0000000E+00 -0.2532249E-04
 -0.5050505E-02  0.0000000E+00 -0.5050505E-02  0.5408585E-06  0.0000000E+00 -0.2508131E-04
 -0.5050505E-02  0.0000000E+00 -0.5050505E-02  0.9026539E-06  0.0000000E+00 -0.2459851E-04
 -0.5050505E-02  0.0000000E+00 -0.5050505E-02  0.1266308E-05  0.0000000E+00 -0.2387315E-04
 -0.5050505E-02  0.0000000E+00 -0.5050505E-02  0.1632600E-05  0.0000000E+00 -0.2290382E-04
 -0.5050505E-02  0.0000000E+00 -0.5050505E-02  0.2002345E-05  0.0000000E+00 -0.2168859E-04
 -0.5050504E-02  0.0000000E+00 -0.5050505E-02  0.2376392E-05  0.0000000E+00 -0.2022501E-04
 -0.5050501E-02  0.0000000E+00 -0.5050505E-02  0.2755645E-05  0.0000000E+00 -0.1851006E-04
 -0.5050495E-02  0.0000000E+00 -0.5050505E-02  0.3141064E-05  0.0000000E+00 -0.1654014E-04
 -0.5050482E-02  0.0000000E+00 -0.5050505E-02  0.3533683E-05  0.0000000E+00 -0.1431100E-04
 -0.5050449E-02  0.0000000E+00 -0.5050505E-02  0.3934620E-05  0.0000000E+00 -0.1181773E-04
 -0.5050376E-02  0.0000000E+00 -0.5050505E-02  0.4345094E-05  0.0000000E+00 -0.9054660E-05
 -0.5050299E-02  0.0000000E+00 -0.5050505E-02  0.4766440E-05  0.0000000E+00 -0.6015314E-05
 -0.5050178E-02  0.0000000E+00 -0.5050505E-02  0.5200135E-05  0.0000000E+00 -0.2692332E-05
 -0.5050018E-02  0.0000000E+00 -0.5050505E-02  0.5647821E-05  0.0000000E+00  0.9272134E-06
 -0.5049710E-02  0.0000000E+00 -0.5050505E-02  0.6110955E-05  0.0000000E+00  0.4856436E-05
 -0.5049253E-02  0.0000000E+00 -0.5050505E-02  0.6591914E-05  0.0000000E+00  0.9104243E-05
 -0.5048636E-02  0.0000000E+00 -0.5050505E-02  0.7093018E-05  0.0000000E+00  0.1368238E-04
 -0.5047442E-02  0.0000000E+00 -0.5050505E-02  0.7616892E-05  0.0000000E+00  0.1860564E-04
 -0.5045727E-02  0.0000000E+00 -0.5050505E-02  0.8166527E-05  0.0000000E+00  0.2389074E-04
 -0.5043261E-02  0.0000000E+00 -0.5050505E-02  0.8745348E-05  0.0000000E+00  0.2955663E-04
 -0.5038714E-02  0.0000000E+00 -0.5050505E-02  0.9357284E-05  0.0000000E+00  0.3562478E-04
 -0.5032318E-02  0.0000000E+00 -0.5050505E-02  0.1000686E-04  0.0000000E+00  0.4211959E-04
 -0.5022454E-02  0.0000000E+00 -0.5050505E-02  0.1069931E-04  0.0000000E+00  0.4906882E-04
 -0.5012589E-02  0.0000000E+00 -0.5050505E-02  0.1144070E-04  0.0000000E+00  0.5650414E-04
 -0.5002725E-02  0.0000000E+00 -0.5050505E-02  0.1223808E-04  0.0000000E+00  0.6446176E-04
 -0.4992860E-02  0.0000000E+00 -0.5050505E-02  0.1309970E-04  0.0000000E+00  0.7298321E-04
 -0.4976523E-02  0.0000000E+00 -0.5050505E-02  0.1403520E-04  0.0000000E+00  0.8211621E-04
 -0.4956794E-02  0.0000000E+00 -0.5050505E-02  0.1505590E-04  0.0000000E+00  0.9191578E-04
 -0.4937066E-02  0.0000000E+00 -0.5050505E-02  0.1617514E-04  0.0000000E+00  0.1024456E-03
 -0.4906239E-02  0.0000000E+00 -0.5050505E-02  0.1740860E-04  0.0000000E+00  0.1137793E-03
 -0.4866782E-02  0.0000000E+00 -0.5050505E-02  0.1877480E-04  0.0000000E+00  0.1260029E-03
 -0.4827325E-02  0.0000000E+00 -0.5050505E-02  0.2029553E-04  0.0000000E+00  0.1392165E-03
 -0.4769372E-02  0.0000000E+00 -0.5050505E-02  0.2199637E-04  0.0000000E+00  0.1535370E-03
 -0.4690458E-02  0.0000000E+00 -0.5050505E-02  0.2390702E-04  0.0000000E+00  0.1691014E-03
 -0.4611543E-02  0.0000000E+00 -0.5050505E-02  0.2606151E-04  0.0000000E+00  0.1860703E-03
 -0.4503035E-02  0.0000000E+00 -0.5050505E-02  0.2849756E-04  0.0000000E+00  0.2046315E-03
 -0.4345206E-02  0.0000000E+00 -0.5050505E-02  0.3125473E-04  0.0000000E+00  0.2250031E-03
 -0.4187378E-02  0.0000000E+00 -0.5050505E-02  0.3436965E-04  0.0000000E+00  0.2474365E-03
 -0.3985156E-02  0.0000000E+00 -0.5050505E-02  0.3786632E-04  0.0000000E+00  0.2722138E-03
 -0.3669499E-02  0.0000000E+00 -0.5050505E-02  0.4173813E-04  0.0000000E+00  0.2996381E-03
 -0.3353842E-02  0.0000000E+00 -0.5050505E-02  0.4591835E-04  0.0000000E+00  0.3300042E-03
 -0.2978990E-02  0.0000000E+00 -0.5050505E-02  0.5024177E-04  0.0000000E+00  0.3635386E-03
 -0.2347676E-02  0.0000000E+00 -0.5050505E-02  0.5442246E-04  0.0000000E+00  0.4002934E-03
 -0.1716362E-02  0.0000000E+00 -0.5050505E-02  0.5812876E-04  0.0000000E+00  0.4400259E-03
 -0.1025842E-02  0.0000000E+00 -0.5050505E-02  0.6130425E-04  0.0000000E+00  0.4822347E-03
  0.2367855E-03  0.0000000E+00 -0.5050505E-02  0.6467586E-04  0.0000000E+00  0.5266842E-03
  0.1499413E-02  0.0000000E+00 -0.5050505E-02  0.6908087E-04  0.0000000E+00  0.5738611E-03
  0.2762042E-02  0.0000000E+00 -0.5050505E-02  0.7503854E-04  0.0000000E+00  0.6247863E-03
 -0.5050505E-02  0.0000000E+00 -0.5050505E-02  0.8301088E-04  0.0000000E+00  0.6807564E-03
 -0.5050505E-02  0.0000000E+00 -0.5050505E-02  0.9385944E-04  0.0000000E+00  0.7435137E-03
 -0.5050505E-02  0.0000000E+00 -0.5050505E-02  0.1096374E-03  0.0000000E+00  0.8165362E-03
 -0.5050505E-02  0.0000000E+00 -0.5050505E-02  0.1356547E-03  0.0000000E+00  0.9115631E-03
 -0.5050505E-02  0.0000000E+00 -0.5050505E-02  0.1275232E-03  0.0000000E+00  0.1016854E-02
 -0.5050505E-02  0.0000000E+00 -0.5050505E-02  0.1000478E-03  0.0000000E+00  0.1095937E-02
 -0.5050505E-02  0.0000000E+00 -0.5050505E-02  0.1306081E-03  0.0000000E+00  0.1168518E-02
 -0.5050504E-02  0.0000000E+00 -0.5050505E-02  0.1656977E-03  0.0000000E+00  0.1251935E-02
 -0.5050501E-02  0.0000000E+00 -0.5050505E-02  0.2197086E-03  0.0000000E+00  0.1341388E-02
 -0.5050495E-02  0.0000000E+00 -0.5050505E-02  0.2855512E-03  0.0000000E+00  0.1486227E-02
 -0.5050482E-02  0.0000000E+00 -0.5050505E-02  0.4110931E-03  0.0000000E+00  0.1724476E-02
 -0.5050449E-02  0.0000000E+00 -0.5050505E-02 -0.2554636E-03  0.0000000E+00  0.1760027E-02
 -0.5050376E-02  0.0000000E+00 -0.5050505E-02 -0.2768739E-03  0.0000000E+00  0.1623741E-02
 -0.5050299E-02  0.0000000E+00 -0.5050505E-02 -0.2899506E-03  0.0000000E+00  0.1484507E-02
 -0.5050178E-02  0.0000000E+00 -0.5050505E-02 -0.2254450E-03  0.0000000E+00  0.1300804E-02
 -0.5050018E-02  0.0000000E+00 -0.5050505E-02 -0.1581342E-03  0.0000000E+00  0.1173567E-02
 -0.5049710E-02  0.0000000E+00 -0.5050505E-02 -0.1170025E-03  0.0000000E+00  0.1079123E-02
 -0.5049253E-02  0.0000000E+00 -0.5050505E-02 -0.9151462E-04  0.0000000E+00  0.1006409E-02
 -0.5048636E-02  0.0000000E+00 -0.5050505E-02 -0.7619064E-04  0.0000000E+00  0.9474008E-03
 -0.5047442E-02  0.0000000E+00 -0.5050505E-02 -0.6744349E-04  0.0000000E+00  0.8968127E-03
 -0.5045727E-02  0.0000000E+00 -0.5050505E-02 -0.6517054E-04  0.0000000E+00  0.8502240E-03
 -0.5043261E-02  0.0000000E+00 -0.5050505E-02 -0.6931834E-04  0.0000000E+00  0.8020296E-03
 -0.5038714E-02  0.0000000E+00 -0.5050505E-02 -0.7447747E-04  0.0000000E+00  0.7486649E-03
 -0.5032318E-02  0.0000000E+00 -0.5050505E-02 -0.7421308E-04  0.0000000E+00  0.6927466E-03
 -0.5022454E-02  0.0000000E+00 -0.5050505E-02 -0.6886102E-04  0.0000000E+00  0.6398989E-03
 -0.5012589E-02  0.0000000E+00 -0.5050505E-02 -0.6369436E-04  0.0000000E+00  0.5919530E-03
 -0.5002725E-02  0.0000000E+00 -0.5050505E-02 -0.5823660E-04  0.0000000E+00  0.5482272E-03
 -0.4992860E-02  0.0000000E+00 -0.5050505E-02 -0.5284092E-04  0.0000000E+00  0.5087268E-03
 -0.4976523E-02  0.0000000E+00 -0.5050505E-02 -0.4787038E-04  0.0000000E+00  0.4731796E-03
 -0.4956794E-02  0.0000000E+00 -0.5050505E-02 -0.4345916E-04  0.0000000E+00  0.4411223E-03
 -0.4937066E-02  0.0000000E+00 -0.5050505E-02 -0.3958623E-04  0.0000000E+00  0.4120844E-03
 -0.4906239E-02  0.0000000E+00 -0.5050505E-02 -0.3616750E-04  0.0000000E+00  0.3856681E-03
 -0.4866782E-02  0.0000000E+00 -0.5050505E-02 -0.3310892E-04  0.0000000E+00  0.3615616E-03
 -0.4827325E-02  0.0000000E+00 -0.5050505E-02 -0.3032899E-04  0.0000000E+00  0.3395276E-03
 -0.4769372E-02  0.0000000E+00 -0.5050505E-02 -0.2776481E-04  0.0000000E+00  0.3193849E-03
 -0.4690458E-02  0.0000000E+00 -0.5050505E-02 -0.2537081E-04  0.0000000E+00  0.3009924E-03
 -0.4611543E-02  0.0000000E+00 -0.5050505E-02 -0.2311489E-04  0.0000000E+00  0.2842371E-03
 -0.4503035E-02  0.0000000E+00 -0.5050505E-02 -0.2097428E-04  0.0000000E+00  0.2690251E-03
 -0.4345206E-02  0.0000000E+00 -0.5050505E-02 -0.1893200E-04  0.0000000E+00  0.2552765E-03
 -0.4187378E-02  0.0000000E+00 -0.5050505E-02 -0.1697413E-04  0.0000000E+00  0.2429222E-03
 -0.3985156E-02  0.0000000E+00 -0.5050505E-02 -0.1508764E-04  0.0000000E+00  0.2319025E-03
 -0.3669499E-02  0.0000000E+00 -0.5050505E-02 -0.1325834E-04  0.0000000E+00  0.2221667E-03
 -0.3353842E-02  0.0000000E+00 -0.5050505E-02 -0.1146820E-04  0.0000000E+00  0.2136735E-03
 -0.2978990E-02  0.0000000E+00 -0.5050505E-02 -0.9690478E-05  0.0000000E+00  0.2063926E-03
 -0.2347676E-02  0.0000000E+00 -0.5050505E-02 -0.7879138E-05  0.0000000E+00  0.2003050E-03
 -0.1716362E-02  0.0000000E+00 -0.5050505E-02 -0.5943461E-05  0.0000000E+00  0.1953973E-03
 -0.1025842E-02  0.0000000E+00 -0.5050505E-02 -0.3682955E-05  0.0000000E+00  0.1916189E-03
  0.2367855E-03  0.0000000E+00 -0.5050505E-02 -0.6110808E-06  0.0000000E+00  0.1886643E-03
  0.1499413E-02  0.0000000E+00 -0.5050505E-02  0.4542774E-05  0.0000000E+00  0.1849347E-03
  0.5287294E-02  0.0000000E+00 -0.5050505E-02  0.1527433E-04  0.0000000E+00  0.1726724E-03
 -0.5050505E-02  0.0000000E+00 -0.5050505E-02  0.2997078E-06  0.0000000E+00 -0.2511223E-04
 -0.5050505E-02  0.0000000E+00 -0.5050505E-02  0.8997296E-06  0.0000000E+00 -0.2487146E-04
 -0.5050505E-02  0.0000000E+00 -0.5050505E-02  0.1501584E-05  0.0000000E+00 -0.2438947E-04
 -0.5050505E-02  0.0000000E+00 -0.5050505E-02  0.2106527E-05  0.0000000E+00 -0.2366536E-04
 -0.5050505E-02  0.0000000E+00 -0.5050505E-02  0.2715851E-05  0.0000000E+00 -0.2269775E-04
 -0.5050505E-02  0.0000000E+00 -0.5050505E-02  0.3330902E-05  0.0000000E+00 -0.2148475E-04
 -0.5050504E-02  0.0000000E+00 -0.5050505E-02  0.3953091E-05  0.0000000E+00 -0.2002394E-04
 -0.5050501E-02  0.0000000E+00 -0.5050505E-02  0.4583911E-05  0.0000000E+00 -0.1831238E-04
 -0.5050495E-02  0.0000000E+00 -0.5050505E-02  0.5224953E-05  0.0000000E+00 -0.1634651E-04
 -0.5050482E-02  0.0000000E+00 -0.5050505E-02  0.5877927E-05  0.0000000E+00 -0.1412219E-04
 -0.5050449E-02  0.0000000E+00 -0.5050505E-02  0.6544681E-05  0.0000000E+00 -0.1163459E-04
 -0.5050376E-02  0.0000000E+00 -0.5050505E-02  0.7227229E-05  0.0000000E+00 -0.8878153E-05
 -0.5050299E-02  0.0000000E+00 -0.5050505E-02  0.7927780E-05  0.0000000E+00 -0.5846542E-05
 -0.5050178E-02  0.0000000E+00 -0.5050505E-02  0.8648767E-05  0.0000000E+00 -0.2532556E-05
 -0.5050018E-02  0.0000000E+00 -0.5050505E-02  0.9392900E-05  0.0000000E+00  0.1076791E-05
 -0.5049710E-02  0.0000000E+00 -0.5050505E-02  0.1016259E-04  0.0000000E+00  0.4994176E-05
 -0.5049253E-02  0.0000000E+00 -0.5050505E-02  0.1096175E-04  0.0000000E+00  0.9227987E-05
 -0.5048636E-02  0.0000000E+00 -0.5050505E-02  0.1179422E-04  0.0000000E+00  0.1378988E-04
 -0.5047442E-02  0.0000000E+00 -0.5050505E-02  0.1266431E-04  0.0000000E+00  0.1869427E-04
 -0.5045727E-02  0.0000000E+00 -0.5050505E-02  0.1357696E-04  0.0000000E+00  0.2395748E-04
 -0.5043261E-02  0.0000000E+00 -0.5050505E-02  0.1453779E-04  0.0000000E+00  0.2959792E-04
 -0.5038714E-02  0.0000000E+00 -0.5050505E-02  0.1555328E-04  0.0000000E+00  0.3563646E-04
 -0.5032318E-02  0.0000000E+00 -0.5050505E-02  0.1663087E-04  0.0000000E+00  0.4209680E-04
 -0.5022454E-02  0.0000000E+00 -0.5050505E-02  0.1777915E-04  0.0000000E+00  0.4900584E-04
 -0.5012589E-02  0.0000000E+00 -0.5050505E-02  0.1900810E-04  0.0000000E+00  0.5639424E-04
 -0.5002725E-02  0.0000000E+00 -0.5050505E-02  0.2032929E-04  0.0000000E+00  0.6429699E-04
 -0.4992860E-02  0.0000000E+00 -0.5050505E-02  0.2175627E-04  0.0000000E+00  0.7275416E-04
 -0.4976523E-02  0.0000000E+00 -0.5050505E-02  0.2330486E-04  0.0000000E+00  0.8181175E-04
 -0.4956794E-02  0.0000000E+00 -0.5050505E-02  0.2499365E-04  0.0000000E+00  0.9152270E-04
 -0.4937066E-02  0.0000000E+00 -0.5050505E-02  0.2684451E-04  0.0000000E+00  0.1019482E-03
 -0.4906239E-02  0.0000000E+00 -0.5050505E-02  0.2888325E-04  0.0000000E+00  0.1131590E-03
 -0.4866782E-02  0.0000000E+00 -0.5050505E-02  0.3114031E-04  0.0000000E+00  0.1252375E-03
 -0.4827325E-02  0.0000000E+00 -0.5050505E-02  0.3365168E-04  0.0000000E+00  0.1382798E-03
 -0.4769372E-02  0.0000000E+00 -0.5050505E-02  0.3645972E-04  0.0000000E+00  0.1523983E-03
 -0.4690458E-02  0.0000000E+00 -0.5050505E-02  0.3961412E-04  0.0000000E+00  0.1677255E-03
 -0.4611543E-02  0.0000000E+00 -0.5050505E-02  0.4317249E-04  0.0000000E+00  0.1844173E-03
 -0.4503035E-02  0.0000000E+00 -0.5050505E-02  0.4720024E-04  0.0000000E+00  0.2026586E-03
 -0.4345206E-02  0.0000000E+00 -0.5050505E-02  0.5176878E-04  0.0000000E+00  0.2226695E-03
 -0.4187378E-02  0.0000000E+00 -0.5050505E-02  0.5695000E-04  0.0000000E+00  0.2447119E-03
 -0.3985156E-02  0.0000000E+00 -0.5050505E-02  0.6280333E-04  0.0000000E+00  0.2690972E-03
 -0.3669499E-02  0.0000000E+00 -0.5050505E-02  0.6934827E-04  0.0000000E+00  0.2961897E-03
 -0.3353842E-02  0.0000000E+00 -0.5050505E-02  0.7651118E-04  0.0000000E+00  0.3263942E-03
 -0.2978990E-02  0.0000000E+00 -0.5050505E-02  0.8403284E-04  0.0000000E+00  0.3600951E-03
 -0.2347676E-02  0.0000000E+00 -0.5050505E-02  0.9134605E-04  0.0000000E+00  0.3974777E-03
 -0.1716362E-02  0.0000000E+00 -0.5050505E-02  0.9755584E-04  0.0000000E+00  0.4381524E-03
 -0.1025842E-02  0.0000000E+00 -0.5050505E-02  0.1020627E-03  0.0000000E+00  0.4808239E-03
  0.2367855E-03  0.0000000E+00 -0.5050505E-02  0.1067916E-03  0.0000000E+00  0.5245970E-03
  0.1499413E-02  0.0000000E+00 -0.5050505E-02  0.1135831E-03  0.0000000E+00  0.5701721E-03
  0.2762042E-02  0.0000000E+00 -0.5050505E-02  0.1230365E-03  0.0000000E+00  0.6189016E-03
 -0.5050505E-02  0.0000000E+00 -0.5050505E-02  0.1354654E-03  0.0000000E+00  0.6718528E-03
 -0.5050505E-02  0.0000000E+00 -0.5050505E-02  0.1515913E-03  0.0000000E+00  0.7294113E-03
 -0.5050505E-02  0.0000000E+00 -0.5050505E-02  0.1732819E-03  0.0000000E+00  0.7899597E-03
 -0.5050505E-02  0.0000000E+00 -0.5050505E-02  0.2055275E-03  0.0000000E+00  0.8432471E-03
 -0.5050505E-02  0.0000000E+00 -0.5050505E-02  0.2042885E-03  0.0000000E+00  0.9025890E-03
 -0.5050505E-02  0.0000000E+00 -0.5050505E-02  0.1903290E-03  0.0000000E+00  0.1013064E-02
 -0.5050505E-02  0.0000000E+00 -0.5050505E-02  0.2102191E-03  0.0000000E+00  0.1135962E-02
 -0.5050504E-02  0.0000000E+00 -0.5050505E-02  0.2202576E-03  0.0000000E+00  0.1210079E-02
 -0.5050501E-02  0.0000000E+00 -0.5050505E-02  0.2846182E-03  0.0000000E+00  0.1263618E-02
 -0.5050495E-02  0.0000000E+00 -0.5050505E-02  0.3934769E-03  0.0000000E+00  0.1326727E-02
 -0.5050482E-02  0.0000000E+00 -0.5050505E-02  0.5818007E-03  0.0000000E+00  0.1425194E-02
 -0.5050449E-02  0.0000000E+00 -0.5050505E-02 -0.3382468E-03  0.0000000E+00  0.1489721E-02
 -0.5050376E-02  0.0000000E+00 -0.5050505E-02 -0.3887704E-03  0.0000000E+00  0.1383800E-02
 -0.5050299E-02  0.0000000E+00 -0.5050505E-02 -0.4035913E-03  0.0000000E+00  0.1251622E-02
 -0.5050178E-02  0.0000000E+00 -0.5050505E-02 -0.3212780E-03  0.0000000E+00  0.1187059E-02
 -0.5050018E-02  0.0000000E+00 -0.5050505E-02 -0.2376478E-03  0.0000000E+00  0.1109703E-02
 -0.5049710E-02  0.0000000E+00 -0.5050505E-02 -0.1791990E-03  0.0000000E+00  0.1040309E-02
 -0.5049253E-02  0.0000000E+00 -0.5050505E-02 -0.1420229E-03  0.0000000E+00  0.9836453E-03
 -0.5048636E-02  0.0000000E+00 -0.5050505E-02 -0.1199522E-03  0.0000000E+00  0.9351600E-03
 -0.5047442E-02  0.0000000E+00 -0.5050505E-02 -0.1055003E-03  0.0000000E+00  0.8930214E-03
 -0.5045727E-02  0.0000000E+00 -0.5050505E-02 -0.1018024E-03  0.0000000E+00  0.8554786E-03
 -0.5043261E-02  0.0000000E+00 -0.5050505E-02 -0.1140586E-03  0.0000000E+00  0.8127912E-03
 -0.5038714E-02  0.0000000E+00 -0.5050505E-02 -0.1292932E-03  0.0000000E+00  0.7561145E-03
 -0.5032318E-02  0.0000000E+00 -0.5050505E-02 -0.1288446E-03  0.0000000E+00  0.6921873E-03
 -0.5022454E-02  0.0000000E+00 -0.5050505E-02 -0.1147432E-03  0.0000000E+00  0.6357506E-03
 -0.5012589E-02  0.0000000E+00 -0.5050505E-02 -0.1065629E-03  0.0000000E+00  0.5877883E-03
 -0.5002725E-02  0.0000000E+00 -0.5050505E-02 -0.9710255E-04  0.0000000E+00  0.5436826E-03
 -0.4992860E-02  0.0000000E+00 -0.5050505E-02 -0.8772085E-04  0.0000000E+00  0.5043187E-03
 -0.4976523E-02  0.0000000E+00 -0.5050505E-02 -0.7927535E-04  0.0000000E+00  0.4692814E-03
 -0.4956794E-02  0.0000000E+00 -0.5050505E-02 -0.7192513E-04  0.0000000E+00  0.4378270E-03
 -0.4937066E-02  0.0000000E+00 -0.5050505E-02 -0.6554300E-04  0.0000000E+00  0.4093322E-03
 -0.4906239E-02  0.0000000E+00 -0.5050505E-02 -0.5993308E-04  0.0000000E+00  0.3833501E-03
 -0.4866782E-02  0.0000000E+00 -0.5050505E-02 -0.5491367E-04  0.0000000E+00  0.3595712E-03
 -0.4827325E-02  0.0000000E+00 -0.5050505E-02 -0.5034127E-04  0.0000000E+00  0.3377785E-03
 -0.4769372E-02  0.0000000E+00 -0.5050505E-02 -0.4611152E-04  0.0000000E+00  0.3178141E-03
 -0.4690458E-02  0.0000000E+00 -0.5050505E-02 -0.4215197E-04  0.0000000E+00  0.2995566E-03
 -0.4611543E-02  0.0000000E+00 -0.5050505E-02 -0.3841317E-04  0.0000000E+00  0.2829072E-03
 -0.4503035E-02  0.0000000E+00 -0.5050505E-02 -0.3486078E-04  0.0000000E+00  0.2677815E-03
 -0.4345206E-02  0.0000000E+00 -0.5050505E-02 -0.3146936E-04  0.0000000E+00  0.2541049E-03
 -0.4187378E-02  0.0000000E+00 -0.5050505E-02 -0.2821802E-04  0.0000000E+00  0.2418106E-03
 -0.3985156E-02  0.0000000E+00 -0.5050505E-02 -0.2508726E-04  0.0000000E+00  0.2308385E-03
 -0.3669499E-02  0.0000000E+00 -0.5050505E-02 -0.2205641E-04  0.0000000E+00  0.2211347E-03
 -0.3353842E-02  0.0000000E+00 -0.5050505E-02 -0.1910091E-04  0.0000000E+00  0.2126512E-03
 -0.2978990E-02  0.0000000E+00 -0.5050505E-02 -0.1618830E-04  0.0000000E+00  0.2053430E-03
 -0.2347676E-02  0.0000000E+00 -0.5050505E-02 -0.1327160E-04  0.0000000E+00  0.1991621E-03
 -0.1716362E-02  0.0000000E+00 -0.5050505E-02 -0.1027833E-04  0.0000000E+00  0.1940391E-03
 -0.1025842E-02  0.0000000E+00 -0.5050505E-02 -0.7097332E-05  0.0000000E+00  0.1898329E-03
  0.2367855E-03  0.0000000E+00 -0.5050505E-02 -0.3589543E-05  0.0000000E+00  0.1862126E-03
  0.1499413E-02  0.0000000E+00 -0.5050505E-02  0.2251266E-06  0.0000000E+00  0.1824680E-03
  0.5287294E-02  0.0000000E+00 -0.5050505E-02  0.3062451E-05  0.0000000E+00  0.1778665E-03
 -0.5050505E-02  0.0000000E+00 -0.5050505E-02  0.4186667E-06  0.0000000E+00 -0.2479837E-04
 -0.5050505E-02  0.0000000E+00 -0.5050505E-02  0.1256845E-05  0.0000000E+00 -0.2455817E-04
 -0.5050505E-02  0.0000000E+00 -0.5050505E-02  0.2097576E-05  0.0000000E+00 -0.2407737E-04
 -0.5050505E-02  0.0000000E+00 -0.5050505E-02  0.2942604E-05  0.0000000E+00 -0.2335509E-04
 -0.5050505E-02  0.0000000E+00 -0.5050505E-02  0.3793725E-05  0.0000000E+00 -0.2238998E-04
 -0.5050505E-02  0.0000000E+00 -0.5050505E-02  0.4652805E-05  0.0000000E+00 -0.2118022E-04
 -0.5050504E-02  0.0000000E+00 -0.5050505E-02  0.5521803E-05  0.0000000E+00 -0.1972345E-04
 -0.5050501E-02  0.0000000E+00 -0.5050505E-02  0.6402788E-05  0.0000000E+00 -0.1801680E-04
 -0.5050495E-02  0.0000000E+00 -0.5050505E-02  0.7297964E-05  0.0000000E+00 -0.1605683E-04
 -0.5050482E-02  0.0000000E+00 -0.5050505E-02  0.8209700E-05  0.0000000E+00 -0.1383952E-04
 -0.5050449E-02  0.0000000E+00 -0.5050505E-02  0.9140555E-05  0.0000000E+00 -0.1136015E-04
 -0.5050376E-02  0.0000000E+00 -0.5050505E-02  0.1009332E-04  0.0000000E+00 -0.8613365E-05
 -0.5050299E-02  0.0000000E+00 -0.5050505E-02  0.1107103E-04  0.0000000E+00 -0.5593003E-05
 -0.5050178E-02  0.0000000E+00 -0.5050505E-02  0.1207706E-04  0.0000000E+00 -0.2292101E-05
 -0.5050018E-02  0.0000000E+00 -0.5050505E-02  0.1311511E-04  0.0000000E+00  0.1302416E-05
 -0.5049710E-02  0.0000000E+00 -0.5050505E-02  0.1418855E-04  0.0000000E+00  0.5202566E-05
 -0.5049253E-02  0.0000000E+00 -0.5050505E-02  0.1530280E-04  0.0000000E+00  0.9415988E-05
 -0.5048636E-02  0.0000000E+00 -0.5050505E-02  0.1646311E-04  0.0000000E+00  0.1395421E-04
 -0.5047442E-02  0.0000000E+00 -0.5050505E-02  0.1767542E-04  0.0000000E+00  0.1883113E-04
 -0.5045727E-02  0.0000000E+00 -0.5050505E-02  0.1894652E-04  0.0000000E+00  0.2406241E-04
 -0.5043261E-02  0.0000000E+00 -0.5050505E-02  0.2028415E-04  0.0000000E+00  0.2966575E-04
 -0.5038714E-02  0.0000000E+00 -0.5050505E-02  0.2169719E-04  0.0000000E+00  0.3566114E-04
 -0.5032318E-02  0.0000000E+00 -0.5050505E-02  0.2319586E-04  0.0000000E+00  0.4207122E-04
 -0.5022454E-02  0.0000000E+00 -0.5050505E-02  0.2479195E-04  0.0000000E+00  0.4892166E-04
 -0.5012589E-02  0.0000000E+00 -0.5050505E-02  0.2649910E-04  0.0000000E+00  0.5624164E-04
 -0.5002725E-02  0.0000000E+00 -0.5050505E-02  0.2833320E-04  0.0000000E+00  0.6406438E-04
 -0.4992860E-02  0.0000000E+00 -0.5050505E-02  0.3031275E-04  0.0000000E+00  0.7242784E-04
 -0.4976523E-02  0.0000000E+00 -0.5050505E-02  0.3245942E-04  0.0000000E+00  0.8137547E-04
 -0.4956794E-02  0.0000000E+00 -0.5050505E-02  0.3479863E-04  0.0000000E+00  0.9095716E-04
 -0.4937066E-02  0.0000000E+00 -0.5050505E-02  0.3736028E-04  0.0000000E+00  0.1012304E-03