title = "dataset feddes"
variables = "x", "y", "z", "vx", "vy", "vz"
zone t = "velocities, solution time =  4.700E+01 days        " i =   99, j =   99, k =    1,  f=point
 -0.5050505E-02  0.0000000E+00 -0.5050505E-02  0.4795824E-07  0.0000000E+00 -0.8455407E-04
 -0.5050505E-02  0.0000000E+00 -0.5050505E-02  0.1439568E-06  0.0000000E+00 -0.8436018E-04
 -0.5050505E-02  0.0000000E+00 -0.5050505E-02  0.2402042E-06  0.0000000E+00 -0.8397209E-04
 -0.5050505E-02  0.0000000E+00 -0.5050505E-02  0.3368712E-06  0.0000000E+00 -0.8338915E-04
 -0.5050505E-02  0.0000000E+00 -0.5050505E-02  0.4341335E-06  0.0000000E+00 -0.8261038E-04
 -0.5050505E-02  0.0000000E+00 -0.5050505E-02  0.5321731E-06  0.0000000E+00 -0.8163445E-04
 -0.5050504E-02  0.0000000E+00 -0.5050505E-02  0.6311798E-06  0.0000000E+00 -0.8045968E-04
 -0.5050501E-02  0.0000000E+00 -0.5050505E-02  0.7313533E-06  0.0000000E+00 -0.7908401E-04
 -0.5050495E-02  0.0000000E+00 -0.5050505E-02  0.8329048E-06  0.0000000E+00 -0.7750496E-04
 -0.5050482E-02  0.0000000E+00 -0.5050505E-02  0.9360593E-06  0.0000000E+00 -0.7571966E-04
 -0.5050449E-02  0.0000000E+00 -0.5050505E-02  0.1041058E-05  0.0000000E+00 -0.7372475E-04
 -0.5050376E-02  0.0000000E+00 -0.5050505E-02  0.1148162E-05  0.0000000E+00 -0.7151643E-04
 -0.5050299E-02  0.0000000E+00 -0.5050505E-02  0.1257653E-05  0.0000000E+00 -0.6909033E-04
 -0.5050178E-02  0.0000000E+00 -0.5050505E-02  0.1369840E-05  0.0000000E+00 -0.6644153E-04
 -0.5050018E-02  0.0000000E+00 -0.5050505E-02  0.1485059E-05  0.0000000E+00 -0.6356448E-04
 -0.5049710E-02  0.0000000E+00 -0.5050505E-02  0.1603684E-05  0.0000000E+00 -0.6045293E-04
 -0.5049253E-02  0.0000000E+00 -0.5050505E-02  0.1726124E-05  0.0000000E+00 -0.5709991E-04
 -0.5048636E-02  0.0000000E+00 -0.5050505E-02  0.1852836E-05  0.0000000E+00 -0.5349756E-04
 -0.5047442E-02  0.0000000E+00 -0.5050505E-02  0.1984325E-05  0.0000000E+00 -0.4963714E-04
 -0.5045727E-02  0.0000000E+00 -0.5050505E-02  0.2121161E-05  0.0000000E+00 -0.4550882E-04
 -0.5043261E-02  0.0000000E+00 -0.5050505E-02  0.2263976E-05  0.0000000E+00 -0.4110166E-04
 -0.5038714E-02  0.0000000E+00 -0.5050505E-02  0.2413485E-05  0.0000000E+00 -0.3640340E-04
 -0.5032318E-02  0.0000000E+00 -0.5050505E-02  0.2570490E-05  0.0000000E+00 -0.3140030E-04
 -0.5022454E-02  0.0000000E+00 -0.5050505E-02  0.2735899E-05  0.0000000E+00 -0.2607701E-04
 -0.5012589E-02  0.0000000E+00 -0.5050505E-02  0.2910738E-05  0.0000000E+00 -0.2041630E-04
 -0.5002725E-02  0.0000000E+00 -0.5050505E-02  0.3096168E-05  0.0000000E+00 -0.1439886E-04
 -0.4992860E-02  0.0000000E+00 -0.5050505E-02  0.3293512E-05  0.0000000E+00 -0.8002981E-05
 -0.4976523E-02  0.0000000E+00 -0.5050505E-02  0.3504268E-05  0.0000000E+00 -0.1200604E-05
 -0.4956794E-02  0.0000000E+00 -0.5050505E-02  0.3730030E-05  0.0000000E+00  0.6048338E-05
 -0.4937066E-02  0.0000000E+00 -0.5050505E-02  0.3972856E-05  0.0000000E+00  0.1377956E-04
 -0.4906239E-02  0.0000000E+00 -0.5050505E-02  0.4235007E-05  0.0000000E+00  0.2202542E-04
 -0.4866782E-02  0.0000000E+00 -0.5050505E-02  0.4519065E-05  0.0000000E+00  0.3082891E-04
 -0.4827325E-02  0.0000000E+00 -0.5050505E-02  0.4827986E-05  0.0000000E+00  0.4023888E-04
 -0.4769372E-02  0.0000000E+00 -0.5050505E-02  0.5165140E-05  0.0000000E+00  0.5031087E-04
 -0.4690458E-02  0.0000000E+00 -0.5050505E-02  0.5534369E-05  0.0000000E+00  0.6110812E-04
 -0.4611543E-02  0.0000000E+00 -0.5050505E-02  0.5940027E-05  0.0000000E+00  0.7270266E-04
 -0.4503035E-02  0.0000000E+00 -0.5050505E-02  0.6387025E-05  0.0000000E+00  0.8517646E-04
 -0.4345206E-02  0.0000000E+00 -0.5050505E-02  0.6880854E-05  0.0000000E+00  0.9862279E-04
 -0.4187378E-02  0.0000000E+00 -0.5050505E-02  0.7427579E-05  0.0000000E+00  0.1131475E-03
 -0.3985156E-02  0.0000000E+00 -0.5050505E-02  0.8033792E-05  0.0000000E+00  0.1288705E-03
 -0.3669499E-02  0.0000000E+00 -0.5050505E-02  0.8706495E-05  0.0000000E+00  0.1459268E-03
 -0.3353842E-02  0.0000000E+00 -0.5050505E-02  0.9452909E-05  0.0000000E+00  0.1644675E-03
 -0.2978990E-02  0.0000000E+00 -0.5050505E-02  0.1028020E-04  0.0000000E+00  0.1846606E-03
 -0.2347676E-02  0.0000000E+00 -0.5050505E-02  0.1119518E-04  0.0000000E+00  0.2066907E-03
 -0.1716362E-02  0.0000000E+00 -0.5050505E-02  0.1220411E-04  0.0000000E+00  0.2307589E-03
 -0.1025842E-02  0.0000000E+00 -0.5050505E-02  0.1331297E-04  0.0000000E+00  0.2570823E-03
  0.2367855E-03  0.0000000E+00 -0.5050505E-02  0.1452875E-04  0.0000000E+00  0.2858959E-03
  0.1499413E-02  0.0000000E+00 -0.5050505E-02  0.1586256E-04  0.0000000E+00  0.3174583E-03
  0.2762042E-02  0.0000000E+00 -0.5050505E-02  0.1733574E-04  0.0000000E+00  0.3520681E-03
 -0.5050505E-02  0.0000000E+00 -0.5050505E-02  0.1898950E-04  0.0000000E+00  0.3900968E-03
 -0.5050505E-02  0.0000000E+00 -0.5050505E-02  0.2089843E-04  0.0000000E+00  0.4320479E-03
 -0.5050505E-02  0.0000000E+00 -0.5050505E-02  0.2318884E-04  0.0000000E+00  0.4786516E-03
 -0.5050505E-02  0.0000000E+00 -0.5050505E-02  0.2606911E-04  0.0000000E+00  0.5310155E-03
 -0.5050505E-02  0.0000000E+00 -0.5050505E-02  0.2989603E-04  0.0000000E+00  0.5908878E-03
 -0.5050505E-02  0.0000000E+00 -0.5050505E-02  0.3534233E-04  0.0000000E+00  0.6611894E-03
 -0.5050505E-02  0.0000000E+00 -0.5050505E-02  0.4394079E-04  0.0000000E+00  0.7473611E-03
 -0.5050504E-02  0.0000000E+00 -0.5050505E-02  0.6049870E-04  0.0000000E+00  0.8620925E-03
 -0.5050501E-02  0.0000000E+00 -0.5050505E-02  0.7657896E-04  0.0000000E+00  0.1014746E-02
 -0.5050495E-02  0.0000000E+00 -0.5050505E-02  0.7978974E-04  0.0000000E+00  0.1191920E-02
 -0.5050482E-02  0.0000000E+00 -0.5050505E-02  0.1039341E-03  0.0000000E+00  0.1404709E-02
 -0.5050449E-02  0.0000000E+00 -0.5050505E-02 -0.7600687E-04  0.0000000E+00  0.1436691E-02
 -0.5050376E-02  0.0000000E+00 -0.5050505E-02 -0.1071781E-03  0.0000000E+00  0.1224526E-02
 -0.5050299E-02  0.0000000E+00 -0.5050505E-02 -0.7037675E-04  0.0000000E+00  0.1022811E-02
 -0.5050178E-02  0.0000000E+00 -0.5050505E-02 -0.4671093E-04  0.0000000E+00  0.8919193E-03
 -0.5050018E-02  0.0000000E+00 -0.5050505E-02 -0.3523111E-04  0.0000000E+00  0.8013475E-03
 -0.5049710E-02  0.0000000E+00 -0.5050505E-02 -0.2899594E-04  0.0000000E+00  0.7309669E-03
 -0.5049253E-02  0.0000000E+00 -0.5050505E-02 -0.2563891E-04  0.0000000E+00  0.6715293E-03
 -0.5048636E-02  0.0000000E+00 -0.5050505E-02 -0.2369792E-04  0.0000000E+00  0.6182003E-03
 -0.5047442E-02  0.0000000E+00 -0.5050505E-02 -0.2182820E-04  0.0000000E+00  0.5692777E-03
 -0.5045727E-02  0.0000000E+00 -0.5050505E-02 -0.2001562E-04  0.0000000E+00  0.5245525E-03
 -0.5043261E-02  0.0000000E+00 -0.5050505E-02 -0.1833081E-04  0.0000000E+00  0.4837660E-03
 -0.5038714E-02  0.0000000E+00 -0.5050505E-02 -0.1679815E-04  0.0000000E+00  0.4465688E-03
 -0.5032318E-02  0.0000000E+00 -0.5050505E-02 -0.1542127E-04  0.0000000E+00  0.4125919E-03
 -0.5022454E-02  0.0000000E+00 -0.5050505E-02 -0.1419330E-04  0.0000000E+00  0.3814791E-03
 -0.5012589E-02  0.0000000E+00 -0.5050505E-02 -0.1309977E-04  0.0000000E+00  0.3529042E-03
 -0.5002725E-02  0.0000000E+00 -0.5050505E-02 -0.1212198E-04  0.0000000E+00  0.3265819E-03
 -0.4992860E-02  0.0000000E+00 -0.5050505E-02 -0.1124039E-04  0.0000000E+00  0.3022719E-03
 -0.4976523E-02  0.0000000E+00 -0.5050505E-02 -0.1043716E-04  0.0000000E+00  0.2797764E-03
 -0.4956794E-02  0.0000000E+00 -0.5050505E-02 -0.9697328E-05  0.0000000E+00  0.2589350E-03
 -0.4937066E-02  0.0000000E+00 -0.5050505E-02 -0.9009016E-05  0.0000000E+00  0.2396172E-03
 -0.4906239E-02  0.0000000E+00 -0.5050505E-02 -0.8363169E-05  0.0000000E+00  0.2217162E-03
 -0.4866782E-02  0.0000000E+00 -0.5050505E-02 -0.7752992E-05  0.0000000E+00  0.2051428E-03
 -0.4827325E-02  0.0000000E+00 -0.5050505E-02 -0.7173400E-05  0.0000000E+00  0.1898216E-03
 -0.4769372E-02  0.0000000E+00 -0.5050505E-02 -0.6620529E-05  0.0000000E+00  0.1756871E-03
 -0.4690458E-02  0.0000000E+00 -0.5050505E-02 -0.6091346E-05  0.0000000E+00  0.1626820E-03
 -0.4611543E-02  0.0000000E+00 -0.5050505E-02 -0.5583359E-05  0.0000000E+00  0.1507553E-03
 -0.4503035E-02  0.0000000E+00 -0.5050505E-02 -0.5094405E-05  0.0000000E+00  0.1398615E-03
 -0.4345206E-02  0.0000000E+00 -0.5050505E-02 -0.4622488E-05  0.0000000E+00  0.1299600E-03
 -0.4187378E-02  0.0000000E+00 -0.5050505E-02 -0.4165650E-05  0.0000000E+00  0.1210147E-03
 -0.3985156E-02  0.0000000E+00 -0.5050505E-02 -0.3721820E-05  0.0000000E+00  0.1129940E-03
 -0.3669499E-02  0.0000000E+00 -0.5050505E-02 -0.3288599E-05  0.0000000E+00  0.1058714E-03
 -0.3353842E-02  0.0000000E+00 -0.5050505E-02 -0.2862835E-05  0.0000000E+00  0.9962622E-04
 -0.2978990E-02  0.0000000E+00 -0.5050505E-02 -0.2439670E-05  0.0000000E+00  0.9424648E-04
 -0.2347676E-02  0.0000000E+00 -0.5050505E-02 -0.2010162E-05  0.0000000E+00  0.8973431E-04
 -0.1716362E-02  0.0000000E+00 -0.5050505E-02 -0.1554688E-05  0.0000000E+00  0.8612112E-04
 -0.1025842E-02  0.0000000E+00 -0.5050505E-02 -0.1022896E-05  0.0000000E+00  0.8350941E-04
  0.2367855E-03  0.0000000E+00 -0.5050505E-02 -0.2668836E-06  0.0000000E+00  0.8220277E-04
  0.1499413E-02  0.0000000E+00 -0.5050505E-02  0.1201134E-05  0.0000000E+00  0.8314918E-04
  0.5287294E-02  0.0000000E+00 -0.5050505E-02  0.2873651E-04  0.0000000E+00  0.6586883E-04
 -0.5050505E-02  0.0000000E+00 -0.5050505E-02  0.1437405E-06  0.0000000E+00 -0.8438378E-04
 -0.5050505E-02  0.0000000E+00 -0.5050505E-02  0.4314682E-06  0.0000000E+00 -0.8418989E-04
 -0.5050505E-02  0.0000000E+00 -0.5050505E-02  0.7199428E-06  0.0000000E+00 -0.8380180E-04
 -0.5050505E-02  0.0000000E+00 -0.5050505E-02  0.1009676E-05  0.0000000E+00 -0.8321888E-04
 -0.5050505E-02  0.0000000E+00 -0.5050505E-02  0.1301192E-05  0.0000000E+00 -0.8244016E-04
 -0.5050505E-02  0.0000000E+00 -0.5050505E-02  0.1595037E-05  0.0000000E+00 -0.8146431E-04
 -0.5050504E-02  0.0000000E+00 -0.5050505E-02  0.1891778E-05  0.0000000E+00 -0.8028967E-04
 -0.5050501E-02  0.0000000E+00 -0.5050505E-02  0.2192012E-05  0.0000000E+00 -0.7891418E-04
 -0.5050495E-02  0.0000000E+00 -0.5050505E-02  0.2496370E-05  0.0000000E+00 -0.7733541E-04
 -0.5050482E-02  0.0000000E+00 -0.5050505E-02  0.2805526E-05  0.0000000E+00 -0.7555047E-04
 -0.5050449E-02  0.0000000E+00 -0.5050505E-02  0.3120201E-05  0.0000000E+00 -0.7355607E-04
 -0.5050376E-02  0.0000000E+00 -0.5050505E-02  0.3441173E-05  0.0000000E+00 -0.7134841E-04
 -0.5050299E-02  0.0000000E+00 -0.5050505E-02  0.3769288E-05  0.0000000E+00 -0.6892316E-04
 -0.5050178E-02  0.0000000E+00 -0.5050505E-02  0.4105466E-05  0.0000000E+00 -0.6627545E-04
 -0.5050018E-02  0.0000000E+00 -0.5050505E-02  0.4450716E-05  0.0000000E+00 -0.6339977E-04
 -0.5049710E-02  0.0000000E+00 -0.5050505E-02  0.4806148E-05  0.0000000E+00 -0.6028994E-04
 -0.5049253E-02  0.0000000E+00 -0.5050505E-02  0.5172991E-05  0.0000000E+00 -0.5693903E-04
 -0.5048636E-02  0.0000000E+00 -0.5050505E-02  0.5552604E-05  0.0000000E+00 -0.5333929E-04
 -0.5047442E-02  0.0000000E+00 -0.5050505E-02  0.5946504E-05  0.0000000E+00 -0.4948203E-04
 -0.5045727E-02  0.0000000E+00 -0.5050505E-02  0.6356383E-05  0.0000000E+00 -0.4535756E-04
 -0.5043261E-02  0.0000000E+00 -0.5050505E-02  0.6784137E-05  0.0000000E+00 -0.4095502E-04
 -0.5038714E-02  0.0000000E+00 -0.5050505E-02  0.7231896E-05  0.0000000E+00 -0.3626230E-04
 -0.5032318E-02  0.0000000E+00 -0.5050505E-02  0.7702060E-05  0.0000000E+00 -0.3126583E-04
 -0.5022454E-02  0.0000000E+00 -0.5050505E-02  0.8197335E-05  0.0000000E+00 -0.2595042E-04
 -0.5012589E-02  0.0000000E+00 -0.5050505E-02  0.8720785E-05  0.0000000E+00 -0.2029907E-04
 -0.5002725E-02  0.0000000E+00 -0.5050505E-02  0.9275881E-05  0.0000000E+00 -0.1429270E-04
 -0.4992860E-02  0.0000000E+00 -0.5050505E-02  0.9866567E-05  0.0000000E+00 -0.7909889E-05
 -0.4976523E-02  0.0000000E+00 -0.5050505E-02  0.1049732E-04  0.0000000E+00 -0.1122784E-05
 -0.4956794E-02  0.0000000E+00 -0.5050505E-02  0.1117289E-04  0.0000000E+00  0.6108191E-05
 -0.4937066E-02  0.0000000E+00 -0.5050505E-02  0.1189943E-04  0.0000000E+00  0.1381815E-04
 -0.4906239E-02  0.0000000E+00 -0.5050505E-02  0.1268367E-04  0.0000000E+00  0.2203904E-04
 -0.4866782E-02  0.0000000E+00 -0.5050505E-02  0.1353334E-04  0.0000000E+00  0.3081325E-04
 -0.4827325E-02  0.0000000E+00 -0.5050505E-02  0.1445727E-04  0.0000000E+00  0.4018895E-04
 -0.4769372E-02  0.0000000E+00 -0.5050505E-02  0.1546553E-04  0.0000000E+00  0.5022093E-04
 -0.4690458E-02  0.0000000E+00 -0.5050505E-02  0.1656963E-04  0.0000000E+00  0.6097161E-04
 -0.4611543E-02  0.0000000E+00 -0.5050505E-02  0.1778259E-04  0.0000000E+00  0.7251209E-04
 -0.4503035E-02  0.0000000E+00 -0.5050505E-02  0.1911917E-04  0.0000000E+00  0.8492340E-04
 -0.4345206E-02  0.0000000E+00 -0.5050505E-02  0.2059586E-04  0.0000000E+00  0.9829784E-04
 -0.4187378E-02  0.0000000E+00 -0.5050505E-02  0.2223094E-04  0.0000000E+00  0.1127404E-03
 -0.3985156E-02  0.0000000E+00 -0.5050505E-02  0.2404432E-04  0.0000000E+00  0.1283703E-03
 -0.3669499E-02  0.0000000E+00 -0.5050505E-02  0.2605726E-04  0.0000000E+00  0.1453220E-03
 -0.3353842E-02  0.0000000E+00 -0.5050505E-02  0.2829169E-04  0.0000000E+00  0.1637469E-03
 -0.2978990E-02  0.0000000E+00 -0.5050505E-02  0.3076945E-04  0.0000000E+00  0.1838135E-03
 -0.2347676E-02  0.0000000E+00 -0.5050505E-02  0.3351115E-04  0.0000000E+00  0.2057076E-03
 -0.1716362E-02  0.0000000E+00 -0.5050505E-02  0.3653533E-04  0.0000000E+00  0.2296313E-03
 -0.1025842E-02  0.0000000E+00 -0.5050505E-02  0.3985867E-04  0.0000000E+00  0.2558011E-03
  0.2367855E-03  0.0000000E+00 -0.5050505E-02  0.4349898E-04  0.0000000E+00  0.2844468E-03
  0.1499413E-02  0.0000000E+00 -0.5050505E-02  0.4748379E-04  0.0000000E+00  0.3158127E-03
  0.2762042E-02  0.0000000E+00 -0.5050505E-02  0.5186792E-04  0.0000000E+00  0.3501673E-03
 -0.5050505E-02  0.0000000E+00 -0.5050505E-02  0.5676245E-04  0.0000000E+00  0.3878289E-03
 -0.5050505E-02  0.0000000E+00 -0.5050505E-02  0.6237463E-04  0.0000000E+00  0.4292160E-03
 -0.5050505E-02  0.0000000E+00 -0.5050505E-02  0.6905646E-04  0.0000000E+00  0.4749253E-03
 -0.5050505E-02  0.0000000E+00 -0.5050505E-02  0.7737407E-04  0.0000000E+00  0.5258349E-03
 -0.5050505E-02  0.0000000E+00 -0.5050505E-02  0.8824846E-04  0.0000000E+00  0.5832302E-03
 -0.5050505E-02  0.0000000E+00 -0.5050505E-02  0.1032100E-03  0.0000000E+00  0.6488589E-03
 -0.5050505E-02  0.0000000E+00 -0.5050505E-02  0.1246836E-03  0.0000000E+00  0.7240327E-03
 -0.5050504E-02  0.0000000E+00 -0.5050505E-02  0.1553244E-03  0.0000000E+00  0.8018193E-03
 -0.5050501E-02  0.0000000E+00 -0.5050505E-02  0.1891216E-03  0.0000000E+00  0.8794440E-03
 -0.5050495E-02  0.0000000E+00 -0.5050505E-02  0.2229549E-03  0.0000000E+00  0.9900932E-03
 -0.5050482E-02  0.0000000E+00 -0.5050505E-02  0.2943938E-03  0.0000000E+00  0.1158835E-02
 -0.5050449E-02  0.0000000E+00 -0.5050505E-02 -0.2375903E-03  0.0000000E+00  0.1159306E-02
 -0.5050376E-02  0.0000000E+00 -0.5050505E-02 -0.2488148E-03  0.0000000E+00  0.1022794E-02
 -0.5050299E-02  0.0000000E+00 -0.5050505E-02 -0.1788808E-03  0.0000000E+00  0.9411390E-03
 -0.5050178E-02  0.0000000E+00 -0.5050505E-02 -0.1292388E-03  0.0000000E+00  0.8587506E-03
 -0.5050018E-02  0.0000000E+00 -0.5050505E-02 -0.1009309E-03  0.0000000E+00  0.7854695E-03
 -0.5049710E-02  0.0000000E+00 -0.5050505E-02 -0.8433233E-04  0.0000000E+00  0.7231097E-03
 -0.5049253E-02  0.0000000E+00 -0.5050505E-02 -0.7559323E-04  0.0000000E+00  0.6678824E-03
 -0.5048636E-02  0.0000000E+00 -0.5050505E-02 -0.7102439E-04  0.0000000E+00  0.6159653E-03
 -0.5047442E-02  0.0000000E+00 -0.5050505E-02 -0.6543491E-04  0.0000000E+00  0.5671001E-03
 -0.5045727E-02  0.0000000E+00 -0.5050505E-02 -0.5993378E-04  0.0000000E+00  0.5224931E-03
 -0.5043261E-02  0.0000000E+00 -0.5050505E-02 -0.5485712E-04  0.0000000E+00  0.4819240E-03
 -0.5038714E-02  0.0000000E+00 -0.5050505E-02 -0.5025532E-04  0.0000000E+00  0.4449763E-03
 -0.5032318E-02  0.0000000E+00 -0.5050505E-02 -0.4613034E-04  0.0000000E+00  0.4112496E-03
 -0.5022454E-02  0.0000000E+00 -0.5050505E-02 -0.4245915E-04  0.0000000E+00  0.3803693E-03
 -0.5012589E-02  0.0000000E+00 -0.5050505E-02 -0.3919545E-04  0.0000000E+00  0.3519972E-03
 -0.5002725E-02  0.0000000E+00 -0.5050505E-02 -0.3627981E-04  0.0000000E+00  0.3258426E-03
 -0.4992860E-02  0.0000000E+00 -0.5050505E-02 -0.3365133E-04  0.0000000E+00  0.3016657E-03
 -0.4976523E-02  0.0000000E+00 -0.5050505E-02 -0.3125526E-04  0.0000000E+00  0.2792733E-03
 -0.4956794E-02  0.0000000E+00 -0.5050505E-02 -0.2904643E-04  0.0000000E+00  0.2585106E-03
 -0.4937066E-02  0.0000000E+00 -0.5050505E-02 -0.2698952E-04  0.0000000E+00  0.2392529E-03
 -0.4906239E-02  0.0000000E+00 -0.5050505E-02 -0.2505785E-04  0.0000000E+00  0.2213983E-03
 -0.4866782E-02  0.0000000E+00 -0.5050505E-02 -0.2323157E-04  0.0000000E+00  0.2048617E-03
 -0.4827325E-02  0.0000000E+00 -0.5050505E-02 -0.2149590E-04  0.0000000E+00  0.1895702E-03
 -0.4769372E-02  0.0000000E+00 -0.5050505E-02 -0.1983963E-04  0.0000000E+00  0.1754607E-03
 -0.4690458E-02  0.0000000E+00 -0.5050505E-02 -0.1825395E-04  0.0000000E+00  0.1624769E-03
 -0.4611543E-02  0.0000000E+00 -0.5050505E-02 -0.1673160E-04  0.0000000E+00  0.1505688E-03
 -0.4503035E-02  0.0000000E+00 -0.5050505E-02 -0.1526624E-04  0.0000000E+00  0.1396913E-03
 -0.4345206E-02  0.0000000E+00 -0.5050505E-02 -0.1385202E-04  0.0000000E+00  0.1298039E-03
 -0.4187378E-02  0.0000000E+00 -0.5050505E-02 -0.1248321E-04  0.0000000E+00  0.1208704E-03
 -0.3985156E-02  0.0000000E+00 -0.5050505E-02 -0.1115382E-04  0.0000000E+00  0.1128588E-03
 -0.3669499E-02  0.0000000E+00 -0.5050505E-02 -0.9857043E-05  0.0000000E+00  0.1057415E-03
 -0.3353842E-02  0.0000000E+00 -0.5050505E-02 -0.8584365E-05  0.0000000E+00  0.9949532E-04
 -0.2978990E-02  0.0000000E+00 -0.5050505E-02 -0.7323545E-05  0.0000000E+00  0.9410256E-04
 -0.2347676E-02  0.0000000E+00 -0.5050505E-02 -0.6054218E-05  0.0000000E+00  0.8955076E-04
 -0.1716362E-02  0.0000000E+00 -0.5050505E-02 -0.4737203E-05  0.0000000E+00  0.8583032E-04
 -0.1025842E-02  0.0000000E+00 -0.5050505E-02 -0.3287156E-05  0.0000000E+00  0.8291647E-04
  0.2367855E-03  0.0000000E+00 -0.5050505E-02 -0.1498757E-05  0.0000000E+00  0.8067810E-04
  0.1499413E-02  0.0000000E+00 -0.5050505E-02  0.1160891E-05  0.0000000E+00  0.7844666E-04
  0.5287294E-02  0.0000000E+00 -0.5050505E-02  0.6150288E-05  0.0000000E+00  0.7300421E-04
 -0.5050505E-02  0.0000000E+00 -0.5050505E-02  0.2392553E-06  0.0000000E+00 -0.8404719E-04
 -0.5050505E-02  0.0000000E+00 -0.5050505E-02  0.7181775E-06  0.0000000E+00 -0.8385330E-04
 -0.5050505E-02  0.0000000E+00 -0.5050505E-02  0.1198343E-05  0.0000000E+00 -0.8346523E-04
 -0.5050505E-02  0.0000000E+00 -0.5050505E-02  0.1680600E-05  0.0000000E+00 -0.8288234E-04
 -0.5050505E-02  0.0000000E+00 -0.5050505E-02  0.2165821E-05  0.0000000E+00 -0.8210369E-04
 -0.5050505E-02  0.0000000E+00 -0.5050505E-02  0.2654908E-05  0.0000000E+00 -0.8112797E-04
 -0.5050504E-02  0.0000000E+00 -0.5050505E-02  0.3148803E-05  0.0000000E+00 -0.7995355E-04
 -0.5050501E-02  0.0000000E+00 -0.5050505E-02  0.3648494E-05  0.0000000E+00 -0.7857839E-04
 -0.5050495E-02  0.0000000E+00 -0.5050505E-02  0.4155028E-05  0.0000000E+00 -0.7700009E-04
 -0.5050482E-02  0.0000000E+00 -0.5050505E-02  0.4669519E-05  0.0000000E+00 -0.7521584E-04
 -0.5050449E-02  0.0000000E+00 -0.5050505E-02  0.5193163E-05  0.0000000E+00 -0.7322236E-04
 -0.5050376E-02  0.0000000E+00 -0.5050505E-02  0.5727247E-05  0.0000000E+00 -0.7101593E-04
 -0.5050299E-02  0.0000000E+00 -0.5050505E-02  0.6273171E-05  0.0000000E+00 -0.6859229E-04
 -0.5050178E-02  0.0000000E+00 -0.5050505E-02  0.6832457E-05  0.0000000E+00 -0.6594664E-04
 -0.5050018E-02  0.0000000E+00 -0.5050505E-02  0.7406774E-05  0.0000000E+00 -0.6307358E-04
 -0.5049710E-02  0.0000000E+00 -0.5050505E-02  0.7997960E-05  0.0000000E+00 -0.5996703E-04
 -0.5049253E-02  0.0000000E+00 -0.5050505E-02  0.8608042E-05  0.0000000E+00 -0.5662019E-04
 -0.5048636E-02  0.0000000E+00 -0.5050505E-02  0.9239271E-05  0.0000000E+00 -0.5302545E-04
 -0.5047442E-02  0.0000000E+00 -0.5050505E-02  0.9894152E-05  0.0000000E+00 -0.4917431E-04
 -0.5045727E-02  0.0000000E+00 -0.5050505E-02  0.1057548E-04  0.0000000E+00 -0.4505726E-04
 -0.5043261E-02  0.0000000E+00 -0.5050505E-02  0.1128639E-04  0.0000000E+00 -0.4066369E-04
 -0.5038714E-02  0.0000000E+00 -0.5050505E-02  0.1203039E-04  0.0000000E+00 -0.3598174E-04
 -0.5032318E-02  0.0000000E+00 -0.5050505E-02  0.1281145E-04  0.0000000E+00 -0.3099815E-04
 -0.5022454E-02  0.0000000E+00 -0.5050505E-02  0.1363404E-04  0.0000000E+00 -0.2569810E-04
 -0.5012589E-02  0.0000000E+00 -0.5050505E-02  0.1450321E-04  0.0000000E+00 -0.2006499E-04
 -0.5002725E-02  0.0000000E+00 -0.5050505E-02  0.1542469E-04  0.0000000E+00 -0.1408022E-04
 -0.4992860E-02  0.0000000E+00 -0.5050505E-02  0.1640500E-04  0.0000000E+00 -0.7722942E-05
 -0.4976523E-02  0.0000000E+00 -0.5050505E-02  0.1745152E-04  0.0000000E+00 -0.9656849E-06
 -0.4956794E-02  0.0000000E+00 -0.5050505E-02  0.1857206E-04  0.0000000E+00  0.6230154E-05
 -0.4937066E-02  0.0000000E+00 -0.5050505E-02  0.1977678E-04  0.0000000E+00  0.1389851E-04
 -0.4906239E-02  0.0000000E+00 -0.5050505E-02  0.2107681E-04  0.0000000E+00  0.2207047E-04
 -0.4866782E-02  0.0000000E+00 -0.5050505E-02  0.2248490E-04  0.0000000E+00  0.3078726E-04
 -0.4827325E-02  0.0000000E+00 -0.5050505E-02  0.2401564E-04  0.0000000E+00  0.4009571E-04
 -0.4769372E-02  0.0000000E+00 -0.5050505E-02  0.2568572E-04  0.0000000E+00  0.5004913E-04
 -0.4690458E-02  0.0000000E+00 -0.5050505E-02  0.2751417E-04  0.0000000E+00  0.6070823E-04
 -0.4611543E-02  0.0000000E+00 -0.5050505E-02  0.2952268E-04  0.0000000E+00  0.7214231E-04
 -0.4503035E-02  0.0000000E+00 -0.5050505E-02  0.3173577E-04  0.0000000E+00  0.8443046E-04
 -0.4345206E-02  0.0000000E+00 -0.5050505E-02  0.3418104E-04  0.0000000E+00  0.9766300E-04
 -0.4187378E-02  0.0000000E+00 -0.5050505E-02  0.3688921E-04  0.0000000E+00  0.1119431E-03
 -0.3985156E-02  0.0000000E+00 -0.5050505E-02  0.3989392E-04  0.0000000E+00  0.1273883E-03
 -0.3669499E-02  0.0000000E+00 -0.5050505E-02  0.4323134E-04  0.0000000E+00  0.1441325E-03
 -0.3353842E-02  0.0000000E+00 -0.5050505E-02  0.4693910E-04  0.0000000E+00  0.1623269E-03
 -0.2978990E-02  0.0000000E+00 -0.5050505E-02  0.5105479E-04  0.0000000E+00  0.1821417E-03
 -0.2347676E-02  0.0000000E+00 -0.5050505E-02  0.5561372E-04  0.0000000E+00  0.2037654E-03
 -0.1716362E-02  0.0000000E+00 -0.5050505E-02  0.6064650E-04  0.0000000E+00  0.2274038E-03
 -0.1025842E-02  0.0000000E+00 -0.5050505E-02  0.6617749E-04  0.0000000E+00  0.2532751E-03
  0.2367855E-03  0.0000000E+00 -0.5050505E-02  0.7222692E-04  0.0000000E+00  0.2816037E-03
  0.1499413E-02  0.0000000E+00 -0.5050505E-02  0.7882175E-04  0.0000000E+00  0.3126114E-03
  0.2762042E-02  0.0000000E+00 -0.5050505E-02  0.8602261E-04  0.0000000E+00  0.3465130E-03
 -0.5050505E-02  0.0000000E+00 -0.5050505E-02  0.9397333E-04  0.0000000E+00  0.3835278E-03
 -0.5050505E-02  0.0000000E+00 -0.5050505E-02  0.1029699E-03  0.0000000E+00  0.4239188E-03
 -0.5050505E-02  0.0000000E+00 -0.5050505E-02  0.1135289E-03  0.0000000E+00  0.4680586E-03
 -0.5050505E-02  0.0000000E+00 -0.5050505E-02  0.1264498E-03  0.0000000E+00  0.5164886E-03
 -0.5050505E-02  0.0000000E+00 -0.5050505E-02  0.1429949E-03  0.0000000E+00  0.5699976E-03
 -0.5050505E-02  0.0000000E+00 -0.5050505E-02  0.1653212E-03  0.0000000E+00  0.6300107E-03
 -0.5050505E-02  0.0000000E+00 -0.5050505E-02  0.1974406E-03  0.0000000E+00  0.7008572E-03
 -0.5050504E-02  0.0000000E+00 -0.5050505E-02  0.2208476E-03  0.0000000E+00  0.7740772E-03
 -0.5050501E-02  0.0000000E+00 -0.5050505E-02  0.2494505E-03  0.0000000E+00  0.8354836E-03
 -0.5050495E-02  0.0000000E+00 -0.5050505E-02  0.3089535E-03  0.0000000E+00  0.8881413E-03
 -0.5050482E-02  0.0000000E+00 -0.5050505E-02  0.4119172E-03  0.0000000E+00  0.9483892E-03
 -0.5050449E-02  0.0000000E+00 -0.5050505E-02 -0.3021977E-03  0.0000000E+00  0.1005127E-02
 -0.5050376E-02  0.0000000E+00 -0.5050505E-02 -0.3301729E-03  0.0000000E+00  0.9746496E-03
 -0.5050299E-02  0.0000000E+00 -0.5050505E-02 -0.2489702E-03  0.0000000E+00  0.8864725E-03
 -0.5050178E-02  0.0000000E+00 -0.5050505E-02 -0.1927215E-03  0.0000000E+00  0.8200227E-03
 -0.5050018E-02  0.0000000E+00 -0.5050505E-02 -0.1560365E-03  0.0000000E+00  0.7620842E-03
 -0.5049710E-02  0.0000000E+00 -0.5050505E-02 -0.1324638E-03  0.0000000E+00  0.7109602E-03
 -0.5049253E-02  0.0000000E+00 -0.5050505E-02 -0.1217009E-03  0.0000000E+00  0.6632911E-03
 -0.5048636E-02  0.0000000E+00 -0.5050505E-02 -0.1193567E-03  0.0000000E+00  0.6128730E-03
 -0.5047442E-02  0.0000000E+00 -0.5050505E-02 -0.1090211E-03  0.0000000E+00  0.5627925E-03
 -0.5045727E-02  0.0000000E+00 -0.5050505E-02 -0.9951489E-04  0.0000000E+00  0.5183690E-03
 -0.5043261E-02  0.0000000E+00 -0.5050505E-02 -0.9099447E-04  0.0000000E+00  0.4782848E-03
 -0.5038714E-02  0.0000000E+00 -0.5050505E-02 -0.8331585E-04  0.0000000E+00  0.4418557E-03
 -0.5032318E-02  0.0000000E+00 -0.5050505E-02 -0.7645845E-04  0.0000000E+00  0.4086388E-03
 -0.5022454E-02  0.0000000E+00 -0.5050505E-02 -0.7038235E-04  0.0000000E+00  0.3782286E-03
 -0.5012589E-02  0.0000000E+00 -0.5050505E-02 -0.6500005E-04  0.0000000E+00  0.3502617E-03
 -0.5002725E-02  0.0000000E+00 -0.5050505E-02 -0.6020045E-04  0.0000000E+00  0.3244370E-03
 -0.4992860E-02  0.0000000E+00 -0.5050505E-02 -0.5587367E-04  0.0000000E+00  0.3005181E-03
 -0.4976523E-02  0.0000000E+00 -0.5050505E-02 -0.5192470E-04  0.0000000E+00  0.2783223E-03
 -0.4956794E-02  0.0000000E+00 -0.5050505E-02 -0.4827766E-04  0.0000000E+00  0.2577079E-03
 -0.4937066E-02  0.0000000E+00 -0.5050505E-02 -0.4487487E-04  0.0000000E+00  0.2385625E-03
 -0.4906239E-02  0.0000000E+00 -0.5050505E-02 -0.4167368E-04  0.0000000E+00  0.2207943E-03
 -0.4866782E-02  0.0000000E+00 -0.5050505E-02 -0.3864287E-04  0.0000000E+00  0.2043259E-03
 -0.4827325E-02  0.0000000E+00 -0.5050505E-02 -0.3575940E-04  0.0000000E+00  0.1890900E-03
 -0.4769372E-02  0.0000000E+00 -0.5050505E-02 -0.3300584E-04  0.0000000E+00  0.1750272E-03
 -0.4690458E-02  0.0000000E+00 -0.5050505E-02 -0.3036844E-04  0.0000000E+00  0.1620837E-03
 -0.4611543E-02  0.0000000E+00 -0.5050505E-02 -0.2783576E-04  0.0000000E+00  0.1502109E-03
 -0.4503035E-02  0.0000000E+00 -0.5050505E-02 -0.2539774E-04  0.0000000E+00  0.1393645E-03
 -0.4345206E-02  0.0000000E+00 -0.5050505E-02 -0.2304503E-04  0.0000000E+00  0.1295044E-03
 -0.4187378E-02  0.0000000E+00 -0.5050505E-02 -0.2076849E-04  0.0000000E+00  0.1205942E-03
 -0.3985156E-02  0.0000000E+00 -0.5050505E-02 -0.1855870E-04  0.0000000E+00  0.1126011E-03
 -0.3669499E-02  0.0000000E+00 -0.5050505E-02 -0.1640541E-04  0.0000000E+00  0.1054960E-03
 -0.3353842E-02  0.0000000E+00 -0.5050505E-02 -0.1429661E-04  0.0000000E+00  0.9925284E-04
 -0.2978990E-02  0.0000000E+00 -0.5050505E-02 -0.1221699E-04  0.0000000E+00  0.9384789E-04
 -0.2347676E-02  0.0000000E+00 -0.5050505E-02 -0.1014519E-04  0.0000000E+00  0.8925672E-04
 -0.1716362E-02  0.0000000E+00 -0.5050505E-02 -0.8049233E-05  0.0000000E+00  0.8544658E-04
 -0.1025842E-02  0.0000000E+00 -0.5050505E-02 -0.5881050E-05  0.0000000E+00  0.8235571E-04
  0.2367855E-03  0.0000000E+00 -0.5050505E-02 -0.3581251E-05  0.0000000E+00  0.7984459E-04
  0.1499413E-02  0.0000000E+00 -0.5050505E-02 -0.1157525E-05  0.0000000E+00  0.7761895E-04
  0.5287294E-02  0.0000000E+00 -0.5050505E-02  0.8553581E-06  0.0000000E+00  0.7538011E-04
 -0.5050505E-02  0.0000000E+00 -0.5050505E-02  0.3345061E-06  0.0000000E+00 -0.8354850E-04
 -0.5050505E-02  0.0000000E+00 -0.5050505E-02  0.1004092E-05  0.0000000E+00 -0.8335460E-04
 -0.5050505E-02  0.0000000E+00 -0.5050505E-02  0.1675412E-05  0.0000000E+00 -0.8296653E-04
 -0.5050505E-02  0.0000000E+00 -0.5050505E-02  0.2349646E-05  0.0000000E+00 -0.8238367E-04
 -0.5050505E-02  0.0000000E+00 -0.5050505E-02  0.3028007E-05  0.0000000E+00 -0.8160509E-04
 -0.5050505E-02  0.0000000E+00 -0.5050505E-02  0.3711749E-05  0.0000000E+00 -0.8062952E-04
 -0.5050504E-02  0.0000000E+00 -0.5050505E-02  0.4402179E-05  0.0000000E+00 -0.7945536E-04
 -0.5050501E-02  0.0000000E+00 -0.5050505E-02  0.5100670E-05  0.0000000E+00 -0.7808063E-04
 -0.5050495E-02  0.0000000E+00 -0.5050505E-02  0.5808676E-05  0.0000000E+00 -0.7650297E-04
 -0.5050482E-02  0.0000000E+00 -0.5050505E-02  0.6527742E-05  0.0000000E+00 -0.7471962E-04
 -0.5050449E-02  0.0000000E+00 -0.5050505E-02  0.7259526E-05  0.0000000E+00 -0.7272740E-04
 -0.5050376E-02  0.0000000E+00 -0.5050505E-02  0.8005815E-05  0.0000000E+00 -0.7052267E-04
 -0.5050299E-02  0.0000000E+00 -0.5050505E-02  0.8768546E-05  0.0000000E+00 -0.6810127E-04
 -0.5050178E-02  0.0000000E+00 -0.5050505E-02  0.9549829E-05  0.0000000E+00 -0.6545852E-04
 -0.5050018E-02  0.0000000E+00 -0.5050505E-02  0.1035198E-04  0.0000000E+00 -0.6258915E-04
 -0.5049710E-02  0.0000000E+00 -0.5050505E-02  0.1117753E-04  0.0000000E+00 -0.5948726E-04
 -0.5049253E-02  0.0000000E+00 -0.5050505E-02  0.1202929E-04  0.0000000E+00 -0.5614623E-04
 -0.5048636E-02  0.0000000E+00 -0.5050505E-02  0.1291038E-04  0.0000000E+00 -0.5255866E-04
 -0.5047442E-02  0.0000000E+00 -0.5050505E-02  0.1382425E-04  0.0000000E+00 -0.4871630E-04
 -0.5045727E-02  0.0000000E+00 -0.5050505E-02  0.1477477E-04  0.0000000E+00 -0.4460994E-04
 -0.5043261E-02  0.0000000E+00 -0.5050505E-02  0.1576627E-04  0.0000000E+00 -0.4022930E-04
 -0.5038714E-02  0.0000000E+00 -0.5050505E-02  0.1680359E-04  0.0000000E+00 -0.3556291E-04
 -0.5032318E-02  0.0000000E+00 -0.5050505E-02  0.1789221E-04  0.0000000E+00 -0.3059797E-04
 -0.5022454E-02  0.0000000E+00 -0.5050505E-02  0.1903830E-04  0.0000000E+00 -0.2532018E-04
 -0.5012589E-02  0.0000000E+00 -0.5050505E-02  0.2024883E-04  0.0000000E+00 -0.1971355E-04
 -0.5002725E-02  0.0000000E+00 -0.5050505E-02  0.2153169E-04  0.0000000E+00 -0.1376020E-04
 -0.4992860E-02  0.0000000E+00 -0.5050505E-02  0.2289588E-04  0.0000000E+00 -0.7440067E-05
 -0.4976523E-02  0.0000000E+00 -0.5050505E-02  0.2435159E-04  0.0000000E+00 -0.7262591E-06
 -0.4956794E-02  0.0000000E+00 -0.5050505E-02  0.2590951E-04  0.0000000E+00  0.6418393E-05
 -0.4937066E-02  0.0000000E+00 -0.5050505E-02  0.2758370E-04  0.0000000E+00  0.1402607E-04