title = "dataset feddes"
variables = "x", "y", "z", "vx", "vy", "vz"
zone t = "velocities, solution time =  3.500E+01 days        " i =   99, j =   99, k =    1,  f=point
 -0.5050505E-02  0.0000000E+00 -0.5050505E-02  0.1045922E-07  0.0000000E+00 -0.2533227E-03
 -0.5050505E-02  0.0000000E+00 -0.5050505E-02  0.3138336E-07  0.0000000E+00 -0.2532796E-03
 -0.5050505E-02  0.0000000E+00 -0.5050505E-02  0.5232470E-07  0.0000000E+00 -0.2531934E-03
 -0.5050505E-02  0.0000000E+00 -0.5050505E-02  0.7329492E-07  0.0000000E+00 -0.2530639E-03
 -0.5050505E-02  0.0000000E+00 -0.5050505E-02  0.9430589E-07  0.0000000E+00 -0.2528912E-03
 -0.5050505E-02  0.0000000E+00 -0.5050505E-02  0.1153697E-06  0.0000000E+00 -0.2526752E-03
 -0.5050504E-02  0.0000000E+00 -0.5050505E-02  0.1364989E-06  0.0000000E+00 -0.2524156E-03
 -0.5050501E-02  0.0000000E+00 -0.5050505E-02  0.1577062E-06  0.0000000E+00 -0.2521125E-03
 -0.5050495E-02  0.0000000E+00 -0.5050505E-02  0.1790049E-06  0.0000000E+00 -0.2517656E-03
 -0.5050482E-02  0.0000000E+00 -0.5050505E-02  0.2004089E-06  0.0000000E+00 -0.2513747E-03
 -0.5050449E-02  0.0000000E+00 -0.5050505E-02  0.2219327E-06  0.0000000E+00 -0.2509396E-03
 -0.5050376E-02  0.0000000E+00 -0.5050505E-02  0.2435915E-06  0.0000000E+00 -0.2504600E-03
 -0.5050299E-02  0.0000000E+00 -0.5050505E-02  0.2654017E-06  0.0000000E+00 -0.2499357E-03
 -0.5050178E-02  0.0000000E+00 -0.5050505E-02  0.2873805E-06  0.0000000E+00 -0.2493663E-03
 -0.5050018E-02  0.0000000E+00 -0.5050505E-02  0.3095466E-06  0.0000000E+00 -0.2487515E-03
 -0.5049710E-02  0.0000000E+00 -0.5050505E-02  0.3319198E-06  0.0000000E+00 -0.2480909E-03
 -0.5049253E-02  0.0000000E+00 -0.5050505E-02  0.3545219E-06  0.0000000E+00 -0.2473840E-03
 -0.5048636E-02  0.0000000E+00 -0.5050505E-02  0.3773767E-06  0.0000000E+00 -0.2466304E-03
 -0.5047442E-02  0.0000000E+00 -0.5050505E-02  0.4005100E-06  0.0000000E+00 -0.2458294E-03
 -0.5045727E-02  0.0000000E+00 -0.5050505E-02  0.4239505E-06  0.0000000E+00 -0.2449806E-03
 -0.5043261E-02  0.0000000E+00 -0.5050505E-02  0.4477296E-06  0.0000000E+00 -0.2440833E-03
 -0.5038714E-02  0.0000000E+00 -0.5050505E-02  0.4718826E-06  0.0000000E+00 -0.2431368E-03
 -0.5032318E-02  0.0000000E+00 -0.5050505E-02  0.4964484E-06  0.0000000E+00 -0.2421402E-03
 -0.5022454E-02  0.0000000E+00 -0.5050505E-02  0.5214707E-06  0.0000000E+00 -0.2410927E-03
 -0.5012589E-02  0.0000000E+00 -0.5050505E-02  0.5469987E-06  0.0000000E+00 -0.2399933E-03
 -0.5002725E-02  0.0000000E+00 -0.5050505E-02  0.5730875E-06  0.0000000E+00 -0.2388410E-03
 -0.4992860E-02  0.0000000E+00 -0.5050505E-02  0.5997994E-06  0.0000000E+00 -0.2376345E-03
 -0.4976523E-02  0.0000000E+00 -0.5050505E-02  0.6272048E-06  0.0000000E+00 -0.2363726E-03
 -0.4956794E-02  0.0000000E+00 -0.5050505E-02  0.6553835E-06  0.0000000E+00 -0.2350537E-03
 -0.4937066E-02  0.0000000E+00 -0.5050505E-02  0.6844263E-06  0.0000000E+00 -0.2336761E-03
 -0.4906239E-02  0.0000000E+00 -0.5050505E-02  0.7144364E-06  0.0000000E+00 -0.2322381E-03
 -0.4866782E-02  0.0000000E+00 -0.5050505E-02  0.7455316E-06  0.0000000E+00 -0.2307375E-03
 -0.4827325E-02  0.0000000E+00 -0.5050505E-02  0.7778467E-06  0.0000000E+00 -0.2291720E-03
 -0.4769372E-02  0.0000000E+00 -0.5050505E-02  0.8115358E-06  0.0000000E+00 -0.2275390E-03
 -0.4690458E-02  0.0000000E+00 -0.5050505E-02  0.8467760E-06  0.0000000E+00 -0.2258355E-03
 -0.4611543E-02  0.0000000E+00 -0.5050505E-02  0.8837706E-06  0.0000000E+00 -0.2240582E-03
 -0.4503035E-02  0.0000000E+00 -0.5050505E-02  0.9227539E-06  0.0000000E+00 -0.2222032E-03
 -0.4345206E-02  0.0000000E+00 -0.5050505E-02  0.9639961E-06  0.0000000E+00 -0.2202663E-03
 -0.4187378E-02  0.0000000E+00 -0.5050505E-02  0.1007810E-05  0.0000000E+00 -0.2182426E-03
 -0.3985156E-02  0.0000000E+00 -0.5050505E-02  0.1054555E-05  0.0000000E+00 -0.2161264E-03
 -0.3669499E-02  0.0000000E+00 -0.5050505E-02  0.1104652E-05  0.0000000E+00 -0.2139114E-03
 -0.3353842E-02  0.0000000E+00 -0.5050505E-02  0.1158583E-05  0.0000000E+00 -0.2115904E-03
 -0.2978990E-02  0.0000000E+00 -0.5050505E-02  0.1216910E-05  0.0000000E+00 -0.2091549E-03
 -0.2347676E-02  0.0000000E+00 -0.5050505E-02  0.1280278E-05  0.0000000E+00 -0.2065954E-03
 -0.1716362E-02  0.0000000E+00 -0.5050505E-02  0.1349426E-05  0.0000000E+00 -0.2039009E-03
 -0.1025842E-02  0.0000000E+00 -0.5050505E-02  0.1425193E-05  0.0000000E+00 -0.2010588E-03
  0.2367855E-03  0.0000000E+00 -0.5050505E-02  0.1508504E-05  0.0000000E+00 -0.1980549E-03
  0.1499413E-02  0.0000000E+00 -0.5050505E-02  0.1600341E-05  0.0000000E+00 -0.1948728E-03
  0.2762042E-02  0.0000000E+00 -0.5050505E-02  0.1701665E-05  0.0000000E+00 -0.1914944E-03
 -0.5050505E-02  0.0000000E+00 -0.5050505E-02  0.1813239E-05  0.0000000E+00 -0.1878996E-03
 -0.5050505E-02  0.0000000E+00 -0.5050505E-02  0.1935289E-05  0.0000000E+00 -0.1840676E-03
 -0.5050505E-02  0.0000000E+00 -0.5050505E-02  0.2066836E-05  0.0000000E+00 -0.1799783E-03
 -0.5050505E-02  0.0000000E+00 -0.5050505E-02  0.2204480E-05  0.0000000E+00 -0.1756162E-03
 -0.5050505E-02  0.0000000E+00 -0.5050505E-02  0.2340222E-05  0.0000000E+00 -0.1709774E-03
 -0.5050505E-02  0.0000000E+00 -0.5050505E-02  0.2457798E-05  0.0000000E+00 -0.1660828E-03
 -0.5050505E-02  0.0000000E+00 -0.5050505E-02  0.2527048E-05  0.0000000E+00 -0.1610007E-03
 -0.5050504E-02  0.0000000E+00 -0.5050505E-02  0.2496763E-05  0.0000000E+00 -0.1558819E-03
 -0.5050501E-02  0.0000000E+00 -0.5050505E-02  0.2289881E-05  0.0000000E+00 -0.1510075E-03
 -0.5050495E-02  0.0000000E+00 -0.5050505E-02  0.1813877E-05  0.0000000E+00 -0.1468305E-03
 -0.5050482E-02  0.0000000E+00 -0.5050505E-02  0.1014665E-05  0.0000000E+00 -0.1439524E-03
 -0.5050449E-02  0.0000000E+00 -0.5050505E-02  0.1765264E-08  0.0000000E+00 -0.1429183E-03
 -0.5050376E-02  0.0000000E+00 -0.5050505E-02 -0.8604364E-06  0.0000000E+00 -0.1437919E-03
 -0.5050299E-02  0.0000000E+00 -0.5050505E-02 -0.1445395E-05  0.0000000E+00 -0.1461381E-03
 -0.5050178E-02  0.0000000E+00 -0.5050505E-02 -0.1784085E-05  0.0000000E+00 -0.1494249E-03
 -0.5050018E-02  0.0000000E+00 -0.5050505E-02 -0.1949287E-05  0.0000000E+00 -0.1532260E-03
 -0.5049710E-02  0.0000000E+00 -0.5050505E-02 -0.2005479E-05  0.0000000E+00 -0.1572543E-03
 -0.5049253E-02  0.0000000E+00 -0.5050505E-02 -0.1997914E-05  0.0000000E+00 -0.1613340E-03
 -0.5048636E-02  0.0000000E+00 -0.5050505E-02 -0.1955260E-05  0.0000000E+00 -0.1653645E-03
 -0.5047442E-02  0.0000000E+00 -0.5050505E-02 -0.1894676E-05  0.0000000E+00 -0.1692916E-03
 -0.5045727E-02  0.0000000E+00 -0.5050505E-02 -0.1825998E-05  0.0000000E+00 -0.1730886E-03
 -0.5043261E-02  0.0000000E+00 -0.5050505E-02 -0.1754618E-05  0.0000000E+00 -0.1767442E-03
 -0.5038714E-02  0.0000000E+00 -0.5050505E-02 -0.1683306E-05  0.0000000E+00 -0.1802557E-03
 -0.5032318E-02  0.0000000E+00 -0.5050505E-02 -0.1613328E-05  0.0000000E+00 -0.1836243E-03
 -0.5022454E-02  0.0000000E+00 -0.5050505E-02 -0.1545120E-05  0.0000000E+00 -0.1868529E-03
 -0.5012589E-02  0.0000000E+00 -0.5050505E-02 -0.1478692E-05  0.0000000E+00 -0.1899451E-03
 -0.5002725E-02  0.0000000E+00 -0.5050505E-02 -0.1413857E-05  0.0000000E+00 -0.1929041E-03
 -0.4992860E-02  0.0000000E+00 -0.5050505E-02 -0.1350364E-05  0.0000000E+00 -0.1957328E-03
 -0.4976523E-02  0.0000000E+00 -0.5050505E-02 -0.1287962E-05  0.0000000E+00 -0.1984336E-03
 -0.4956794E-02  0.0000000E+00 -0.5050505E-02 -0.1226440E-05  0.0000000E+00 -0.2010083E-03
 -0.4937066E-02  0.0000000E+00 -0.5050505E-02 -0.1165639E-05  0.0000000E+00 -0.2034584E-03
 -0.4906239E-02  0.0000000E+00 -0.5050505E-02 -0.1105456E-05  0.0000000E+00 -0.2057854E-03
 -0.4866782E-02  0.0000000E+00 -0.5050505E-02 -0.1045842E-05  0.0000000E+00 -0.2079902E-03
 -0.4827325E-02  0.0000000E+00 -0.5050505E-02 -0.9868056E-06  0.0000000E+00 -0.2100739E-03
 -0.4769372E-02  0.0000000E+00 -0.5050505E-02 -0.9284107E-06  0.0000000E+00 -0.2120377E-03
 -0.4690458E-02  0.0000000E+00 -0.5050505E-02 -0.8707895E-06  0.0000000E+00 -0.2138829E-03
 -0.4611543E-02  0.0000000E+00 -0.5050505E-02 -0.8141611E-06  0.0000000E+00 -0.2156114E-03
 -0.4503035E-02  0.0000000E+00 -0.5050505E-02 -0.7588714E-06  0.0000000E+00 -0.2172254E-03
 -0.4345206E-02  0.0000000E+00 -0.5050505E-02 -0.7054666E-06  0.0000000E+00 -0.2187281E-03
 -0.4187378E-02  0.0000000E+00 -0.5050505E-02 -0.6548320E-06  0.0000000E+00 -0.2201243E-03
 -0.3985156E-02  0.0000000E+00 -0.5050505E-02 -0.6084599E-06  0.0000000E+00 -0.2214212E-03
 -0.3669499E-02  0.0000000E+00 -0.5050505E-02 -0.5689948E-06  0.0000000E+00 -0.2226301E-03
 -0.3353842E-02  0.0000000E+00 -0.5050505E-02 -0.5414118E-06  0.0000000E+00 -0.2237703E-03
 -0.2978990E-02  0.0000000E+00 -0.5050505E-02 -0.5357582E-06  0.0000000E+00 -0.2248766E-03
 -0.2347676E-02  0.0000000E+00 -0.5050505E-02 -0.5740891E-06  0.0000000E+00 -0.2260165E-03
 -0.1716362E-02  0.0000000E+00 -0.5050505E-02 -0.7096968E-06  0.0000000E+00 -0.2273353E-03
 -0.1025842E-02  0.0000000E+00 -0.5050505E-02 -0.1085732E-05  0.0000000E+00 -0.2291800E-03
  0.2367855E-03  0.0000000E+00 -0.5050505E-02 -0.2131283E-05  0.0000000E+00 -0.2324861E-03
  0.1499413E-02  0.0000000E+00 -0.5050505E-02 -0.5275532E-05  0.0000000E+00 -0.2401013E-03
  0.5287294E-02  0.0000000E+00 -0.5050505E-02 -0.8479462E-04  0.0000000E+00 -0.1917479E-03
 -0.5050505E-02  0.0000000E+00 -0.5050505E-02  0.3139588E-07  0.0000000E+00 -0.2531043E-03
 -0.5050505E-02  0.0000000E+00 -0.5050505E-02  0.9420480E-07  0.0000000E+00 -0.2530611E-03
 -0.5050505E-02  0.0000000E+00 -0.5050505E-02  0.1570655E-06  0.0000000E+00 -0.2529745E-03
 -0.5050505E-02  0.0000000E+00 -0.5050505E-02  0.2200130E-06  0.0000000E+00 -0.2528445E-03
 -0.5050505E-02  0.0000000E+00 -0.5050505E-02  0.2830830E-06  0.0000000E+00 -0.2526712E-03
 -0.5050505E-02  0.0000000E+00 -0.5050505E-02  0.3463119E-06  0.0000000E+00 -0.2524543E-03
 -0.5050504E-02  0.0000000E+00 -0.5050505E-02  0.4097370E-06  0.0000000E+00 -0.2521938E-03
 -0.5050501E-02  0.0000000E+00 -0.5050505E-02  0.4733967E-06  0.0000000E+00 -0.2518895E-03
 -0.5050495E-02  0.0000000E+00 -0.5050505E-02  0.5373309E-06  0.0000000E+00 -0.2515412E-03
 -0.5050482E-02  0.0000000E+00 -0.5050505E-02  0.6015813E-06  0.0000000E+00 -0.2511488E-03
 -0.5050449E-02  0.0000000E+00 -0.5050505E-02  0.6661912E-06  0.0000000E+00 -0.2507121E-03
 -0.5050376E-02  0.0000000E+00 -0.5050505E-02  0.7312066E-06  0.0000000E+00 -0.2502307E-03
 -0.5050299E-02  0.0000000E+00 -0.5050505E-02  0.7966760E-06  0.0000000E+00 -0.2497043E-03
 -0.5050178E-02  0.0000000E+00 -0.5050505E-02  0.8626515E-06  0.0000000E+00 -0.2491328E-03
 -0.5050018E-02  0.0000000E+00 -0.5050505E-02  0.9291885E-06  0.0000000E+00 -0.2485156E-03
 -0.5049710E-02  0.0000000E+00 -0.5050505E-02  0.9963470E-06  0.0000000E+00 -0.2478525E-03
 -0.5049253E-02  0.0000000E+00 -0.5050505E-02  0.1064192E-05  0.0000000E+00 -0.2471429E-03
 -0.5048636E-02  0.0000000E+00 -0.5050505E-02  0.1132794E-05  0.0000000E+00 -0.2463863E-03
 -0.5047442E-02  0.0000000E+00 -0.5050505E-02  0.1202232E-05  0.0000000E+00 -0.2455824E-03
 -0.5045727E-02  0.0000000E+00 -0.5050505E-02  0.1272590E-05  0.0000000E+00 -0.2447304E-03
 -0.5043261E-02  0.0000000E+00 -0.5050505E-02  0.1343963E-05  0.0000000E+00 -0.2438297E-03
 -0.5038714E-02  0.0000000E+00 -0.5050505E-02  0.1416455E-05  0.0000000E+00 -0.2428795E-03
 -0.5032318E-02  0.0000000E+00 -0.5050505E-02  0.1490185E-05  0.0000000E+00 -0.2418792E-03
 -0.5022454E-02  0.0000000E+00 -0.5050505E-02  0.1565282E-05  0.0000000E+00 -0.2408278E-03
 -0.5012589E-02  0.0000000E+00 -0.5050505E-02  0.1641892E-05  0.0000000E+00 -0.2397244E-03
 -0.5002725E-02  0.0000000E+00 -0.5050505E-02  0.1720182E-05  0.0000000E+00 -0.2385678E-03
 -0.4992860E-02  0.0000000E+00 -0.5050505E-02  0.1800336E-05  0.0000000E+00 -0.2373570E-03
 -0.4976523E-02  0.0000000E+00 -0.5050505E-02  0.1882566E-05  0.0000000E+00 -0.2360905E-03
 -0.4956794E-02  0.0000000E+00 -0.5050505E-02  0.1967109E-05  0.0000000E+00 -0.2347669E-03
 -0.4937066E-02  0.0000000E+00 -0.5050505E-02  0.2054237E-05  0.0000000E+00 -0.2333845E-03
 -0.4906239E-02  0.0000000E+00 -0.5050505E-02  0.2144258E-05  0.0000000E+00 -0.2319416E-03
 -0.4866782E-02  0.0000000E+00 -0.5050505E-02  0.2237524E-05  0.0000000E+00 -0.2304360E-03
 -0.4827325E-02  0.0000000E+00 -0.5050505E-02  0.2334436E-05  0.0000000E+00 -0.2288654E-03
 -0.4769372E-02  0.0000000E+00 -0.5050505E-02  0.2435455E-05  0.0000000E+00 -0.2272273E-03
 -0.4690458E-02  0.0000000E+00 -0.5050505E-02  0.2541109E-05  0.0000000E+00 -0.2255186E-03
 -0.4611543E-02  0.0000000E+00 -0.5050505E-02  0.2652005E-05  0.0000000E+00 -0.2237361E-03
 -0.4503035E-02  0.0000000E+00 -0.5050505E-02  0.2768841E-05  0.0000000E+00 -0.2218761E-03
 -0.4345206E-02  0.0000000E+00 -0.5050505E-02  0.2892424E-05  0.0000000E+00 -0.2199341E-03
 -0.4187378E-02  0.0000000E+00 -0.5050505E-02  0.3023685E-05  0.0000000E+00 -0.2179055E-03
 -0.3985156E-02  0.0000000E+00 -0.5050505E-02  0.3163702E-05  0.0000000E+00 -0.2157847E-03
 -0.3669499E-02  0.0000000E+00 -0.5050505E-02  0.3313722E-05  0.0000000E+00 -0.2135654E-03
 -0.3353842E-02  0.0000000E+00 -0.5050505E-02  0.3475192E-05  0.0000000E+00 -0.2112404E-03
 -0.2978990E-02  0.0000000E+00 -0.5050505E-02  0.3649785E-05  0.0000000E+00 -0.2088014E-03
 -0.2347676E-02  0.0000000E+00 -0.5050505E-02  0.3839436E-05  0.0000000E+00 -0.2062391E-03
 -0.1716362E-02  0.0000000E+00 -0.5050505E-02  0.4046364E-05  0.0000000E+00 -0.2035424E-03
 -0.1025842E-02  0.0000000E+00 -0.5050505E-02  0.4273094E-05  0.0000000E+00 -0.2006991E-03
  0.2367855E-03  0.0000000E+00 -0.5050505E-02  0.4522441E-05  0.0000000E+00 -0.1976947E-03
  0.1499413E-02  0.0000000E+00 -0.5050505E-02  0.4797440E-05  0.0000000E+00 -0.1945130E-03
  0.2762042E-02  0.0000000E+00 -0.5050505E-02  0.5101148E-05  0.0000000E+00 -0.1911352E-03
 -0.5050505E-02  0.0000000E+00 -0.5050505E-02  0.5436205E-05  0.0000000E+00 -0.1875407E-03
 -0.5050505E-02  0.0000000E+00 -0.5050505E-02  0.5803942E-05  0.0000000E+00 -0.1837066E-03
 -0.5050505E-02  0.0000000E+00 -0.5050505E-02  0.6202638E-05  0.0000000E+00 -0.1796089E-03
 -0.5050505E-02  0.0000000E+00 -0.5050505E-02  0.6624233E-05  0.0000000E+00 -0.1752250E-03
 -0.5050505E-02  0.0000000E+00 -0.5050505E-02  0.7048318E-05  0.0000000E+00 -0.1705379E-03
 -0.5050505E-02  0.0000000E+00 -0.5050505E-02  0.7431599E-05  0.0000000E+00 -0.1655463E-03
 -0.5050505E-02  0.0000000E+00 -0.5050505E-02  0.7690525E-05  0.0000000E+00 -0.1602838E-03
 -0.5050504E-02  0.0000000E+00 -0.5050505E-02  0.7675936E-05  0.0000000E+00 -0.1548550E-03
 -0.5050501E-02  0.0000000E+00 -0.5050505E-02  0.7145902E-05  0.0000000E+00 -0.1495015E-03
 -0.5050495E-02  0.0000000E+00 -0.5050505E-02  0.5768933E-05  0.0000000E+00 -0.1447027E-03
 -0.5050482E-02  0.0000000E+00 -0.5050505E-02  0.3258812E-05  0.0000000E+00 -0.1412678E-03
 -0.5050449E-02  0.0000000E+00 -0.5050505E-02 -0.1446862E-06  0.0000000E+00 -0.1401657E-03
 -0.5050376E-02  0.0000000E+00 -0.5050505E-02 -0.2860341E-05  0.0000000E+00 -0.1414773E-03
 -0.5050299E-02  0.0000000E+00 -0.5050505E-02 -0.4587052E-05  0.0000000E+00 -0.1443672E-03
 -0.5050178E-02  0.0000000E+00 -0.5050505E-02 -0.5532199E-05  0.0000000E+00 -0.1480989E-03
 -0.5050018E-02  0.0000000E+00 -0.5050505E-02 -0.5964215E-05  0.0000000E+00 -0.1522092E-03
 -0.5049710E-02  0.0000000E+00 -0.5050505E-02 -0.6087769E-05  0.0000000E+00 -0.1564367E-03
 -0.5049253E-02  0.0000000E+00 -0.5050505E-02 -0.6036264E-05  0.0000000E+00 -0.1606407E-03
 -0.5048636E-02  0.0000000E+00 -0.5050505E-02 -0.5890831E-05  0.0000000E+00 -0.1647482E-03
 -0.5047442E-02  0.0000000E+00 -0.5050505E-02 -0.5698850E-05  0.0000000E+00 -0.1687240E-03
 -0.5045727E-02  0.0000000E+00 -0.5050505E-02 -0.5487023E-05  0.0000000E+00 -0.1725531E-03
 -0.5043261E-02  0.0000000E+00 -0.5050505E-02 -0.5269730E-05  0.0000000E+00 -0.1762315E-03
 -0.5038714E-02  0.0000000E+00 -0.5050505E-02 -0.5054167E-05  0.0000000E+00 -0.1797605E-03
 -0.5032318E-02  0.0000000E+00 -0.5050505E-02 -0.4843462E-05  0.0000000E+00 -0.1831440E-03
 -0.5022454E-02  0.0000000E+00 -0.5050505E-02 -0.4638525E-05  0.0000000E+00 -0.1863860E-03
 -0.5012589E-02  0.0000000E+00 -0.5050505E-02 -0.4439149E-05  0.0000000E+00 -0.1894910E-03
 -0.5002725E-02  0.0000000E+00 -0.5050505E-02 -0.4244640E-05  0.0000000E+00 -0.1924624E-03
 -0.4992860E-02  0.0000000E+00 -0.5050505E-02 -0.4054165E-05  0.0000000E+00 -0.1953033E-03
 -0.4976523E-02  0.0000000E+00 -0.5050505E-02 -0.3866940E-05  0.0000000E+00 -0.1980159E-03
 -0.4956794E-02  0.0000000E+00 -0.5050505E-02 -0.3682314E-05  0.0000000E+00 -0.2006022E-03
 -0.4937066E-02  0.0000000E+00 -0.5050505E-02 -0.3499803E-05  0.0000000E+00 -0.2030635E-03
 -0.4906239E-02  0.0000000E+00 -0.5050505E-02 -0.3319096E-05  0.0000000E+00 -0.2054010E-03
 -0.4866782E-02  0.0000000E+00 -0.5050505E-02 -0.3140046E-05  0.0000000E+00 -0.2076158E-03
 -0.4827325E-02  0.0000000E+00 -0.5050505E-02 -0.2962673E-05  0.0000000E+00 -0.2097088E-03
 -0.4769372E-02  0.0000000E+00 -0.5050505E-02 -0.2787161E-05  0.0000000E+00 -0.2116810E-03
 -0.4690458E-02  0.0000000E+00 -0.5050505E-02 -0.2613885E-05  0.0000000E+00 -0.2135337E-03
 -0.4611543E-02  0.0000000E+00 -0.5050505E-02 -0.2443463E-05  0.0000000E+00 -0.2152683E-03
 -0.4503035E-02  0.0000000E+00 -0.5050505E-02 -0.2276859E-05  0.0000000E+00 -0.2168870E-03
 -0.4345206E-02  0.0000000E+00 -0.5050505E-02 -0.2115575E-05  0.0000000E+00 -0.2183923E-03
 -0.4187378E-02  0.0000000E+00 -0.5050505E-02 -0.1962003E-05  0.0000000E+00 -0.2197881E-03
 -0.3985156E-02  0.0000000E+00 -0.5050505E-02 -0.1820083E-05  0.0000000E+00 -0.2210797E-03
 -0.3669499E-02  0.0000000E+00 -0.5050505E-02 -0.1696590E-05  0.0000000E+00 -0.2222751E-03
 -0.3353842E-02  0.0000000E+00 -0.5050505E-02 -0.1603762E-05  0.0000000E+00 -0.2233861E-03
 -0.2978990E-02  0.0000000E+00 -0.5050505E-02 -0.1564948E-05  0.0000000E+00 -0.2244302E-03
 -0.2347676E-02  0.0000000E+00 -0.5050505E-02 -0.1627506E-05  0.0000000E+00 -0.2254319E-03
 -0.1716362E-02  0.0000000E+00 -0.5050505E-02 -0.1894038E-05  0.0000000E+00 -0.2264148E-03
 -0.1025842E-02  0.0000000E+00 -0.5050505E-02 -0.2602576E-05  0.0000000E+00 -0.2273497E-03
  0.2367855E-03  0.0000000E+00 -0.5050505E-02 -0.4343581E-05  0.0000000E+00 -0.2278844E-03
  0.1499413E-02  0.0000000E+00 -0.5050505E-02 -0.8672299E-05  0.0000000E+00 -0.2260610E-03
  0.5287294E-02  0.0000000E+00 -0.5050505E-02 -0.1988026E-04  0.0000000E+00 -0.2123122E-03
 -0.5050505E-02  0.0000000E+00 -0.5050505E-02  0.5240730E-07  0.0000000E+00 -0.2526758E-03
 -0.5050505E-02  0.0000000E+00 -0.5050505E-02  0.1572507E-06  0.0000000E+00 -0.2526322E-03
 -0.5050505E-02  0.0000000E+00 -0.5050505E-02  0.2621807E-06  0.0000000E+00 -0.2525449E-03
 -0.5050505E-02  0.0000000E+00 -0.5050505E-02  0.3672561E-06  0.0000000E+00 -0.2524140E-03
 -0.5050505E-02  0.0000000E+00 -0.5050505E-02  0.4725363E-06  0.0000000E+00 -0.2522393E-03
 -0.5050505E-02  0.0000000E+00 -0.5050505E-02  0.5780821E-06  0.0000000E+00 -0.2520208E-03
 -0.5050504E-02  0.0000000E+00 -0.5050505E-02  0.6839557E-06  0.0000000E+00 -0.2517583E-03
 -0.5050501E-02  0.0000000E+00 -0.5050505E-02  0.7902214E-06  0.0000000E+00 -0.2514518E-03
 -0.5050495E-02  0.0000000E+00 -0.5050505E-02  0.8969456E-06  0.0000000E+00 -0.2511009E-03
 -0.5050482E-02  0.0000000E+00 -0.5050505E-02  0.1004197E-05  0.0000000E+00 -0.2507055E-03
 -0.5050449E-02  0.0000000E+00 -0.5050505E-02  0.1112050E-05  0.0000000E+00 -0.2502655E-03
 -0.5050376E-02  0.0000000E+00 -0.5050505E-02  0.1220578E-05  0.0000000E+00 -0.2497804E-03
 -0.5050299E-02  0.0000000E+00 -0.5050505E-02  0.1329865E-05  0.0000000E+00 -0.2492501E-03
 -0.5050178E-02  0.0000000E+00 -0.5050505E-02  0.1439995E-05  0.0000000E+00 -0.2486743E-03
 -0.5050018E-02  0.0000000E+00 -0.5050505E-02  0.1551061E-05  0.0000000E+00 -0.2480525E-03
 -0.5049710E-02  0.0000000E+00 -0.5050505E-02  0.1663164E-05  0.0000000E+00 -0.2473843E-03
 -0.5049253E-02  0.0000000E+00 -0.5050505E-02  0.1776410E-05  0.0000000E+00 -0.2466694E-03
 -0.5048636E-02  0.0000000E+00 -0.5050505E-02  0.1890917E-05  0.0000000E+00 -0.2459072E-03
 -0.5047442E-02  0.0000000E+00 -0.5050505E-02  0.2006815E-05  0.0000000E+00 -0.2450972E-03
 -0.5045727E-02  0.0000000E+00 -0.5050505E-02  0.2124245E-05  0.0000000E+00 -0.2442389E-03
 -0.5043261E-02  0.0000000E+00 -0.5050505E-02  0.2243363E-05  0.0000000E+00 -0.2433314E-03
 -0.5038714E-02  0.0000000E+00 -0.5050505E-02  0.2364344E-05  0.0000000E+00 -0.2423743E-03
 -0.5032318E-02  0.0000000E+00 -0.5050505E-02  0.2487380E-05  0.0000000E+00 -0.2413666E-03
 -0.5022454E-02  0.0000000E+00 -0.5050505E-02  0.2612688E-05  0.0000000E+00 -0.2403075E-03
 -0.5012589E-02  0.0000000E+00 -0.5050505E-02  0.2740512E-05  0.0000000E+00 -0.2391960E-03
 -0.5002725E-02  0.0000000E+00 -0.5050505E-02  0.2871122E-05  0.0000000E+00 -0.2380311E-03
 -0.4992860E-02  0.0000000E+00 -0.5050505E-02  0.3004828E-05  0.0000000E+00 -0.2368116E-03
 -0.4976523E-02  0.0000000E+00 -0.5050505E-02  0.3141976E-05  0.0000000E+00 -0.2355362E-03
 -0.4956794E-02  0.0000000E+00 -0.5050505E-02  0.3282961E-05  0.0000000E+00 -0.2342034E-03
 -0.4937066E-02  0.0000000E+00 -0.5050505E-02  0.3428231E-05  0.0000000E+00 -0.2328115E-03
 -0.4906239E-02  0.0000000E+00 -0.5050505E-02  0.3578294E-05  0.0000000E+00 -0.2313589E-03
 -0.4866782E-02  0.0000000E+00 -0.5050505E-02  0.3733731E-05  0.0000000E+00 -0.2298434E-03
 -0.4827325E-02  0.0000000E+00 -0.5050505E-02  0.3895206E-05  0.0000000E+00 -0.2282628E-03
 -0.4769372E-02  0.0000000E+00 -0.5050505E-02  0.4063478E-05  0.0000000E+00 -0.2266145E-03
 -0.4690458E-02  0.0000000E+00 -0.5050505E-02  0.4239418E-05  0.0000000E+00 -0.2248956E-03
 -0.4611543E-02  0.0000000E+00 -0.5050505E-02  0.4424026E-05  0.0000000E+00 -0.2231030E-03
 -0.4503035E-02  0.0000000E+00 -0.5050505E-02  0.4618455E-05  0.0000000E+00 -0.2212328E-03
 -0.4345206E-02  0.0000000E+00 -0.5050505E-02  0.4824033E-05  0.0000000E+00 -0.2192810E-03
 -0.4187378E-02  0.0000000E+00 -0.5050505E-02  0.5042294E-05  0.0000000E+00 -0.2172427E-03
 -0.3985156E-02  0.0000000E+00 -0.5050505E-02  0.5275015E-05  0.0000000E+00 -0.2151127E-03
 -0.3669499E-02  0.0000000E+00 -0.5050505E-02  0.5524254E-05  0.0000000E+00 -0.2128849E-03
 -0.3353842E-02  0.0000000E+00 -0.5050505E-02  0.5792396E-05  0.0000000E+00 -0.2105521E-03
 -0.2978990E-02  0.0000000E+00 -0.5050505E-02  0.6082210E-05  0.0000000E+00 -0.2081063E-03
 -0.2347676E-02  0.0000000E+00 -0.5050505E-02  0.6396899E-05  0.0000000E+00 -0.2055384E-03
 -0.1716362E-02  0.0000000E+00 -0.5050505E-02  0.6740163E-05  0.0000000E+00 -0.2028377E-03
 -0.1025842E-02  0.0000000E+00 -0.5050505E-02  0.7116241E-05  0.0000000E+00 -0.1999921E-03
  0.2367855E-03  0.0000000E+00 -0.5050505E-02  0.7529932E-05  0.0000000E+00 -0.1969872E-03
  0.1499413E-02  0.0000000E+00 -0.5050505E-02  0.7986536E-05  0.0000000E+00 -0.1938069E-03
  0.2762042E-02  0.0000000E+00 -0.5050505E-02  0.8491663E-05  0.0000000E+00 -0.1904319E-03
 -0.5050505E-02  0.0000000E+00 -0.5050505E-02  0.9050736E-05  0.0000000E+00 -0.1868403E-03
 -0.5050505E-02  0.0000000E+00 -0.5050505E-02  0.9667937E-05  0.0000000E+00 -0.1830061E-03
 -0.5050505E-02  0.0000000E+00 -0.5050505E-02  0.1034406E-04  0.0000000E+00 -0.1788994E-03
 -0.5050505E-02  0.0000000E+00 -0.5050505E-02  0.1107230E-04  0.0000000E+00 -0.1744853E-03
 -0.5050505E-02  0.0000000E+00 -0.5050505E-02  0.1183020E-04  0.0000000E+00 -0.1697241E-03
 -0.5050505E-02  0.0000000E+00 -0.5050505E-02  0.1256440E-04  0.0000000E+00 -0.1645732E-03
 -0.5050505E-02  0.0000000E+00 -0.5050505E-02  0.1316265E-04  0.0000000E+00 -0.1589954E-03
 -0.5050504E-02  0.0000000E+00 -0.5050505E-02  0.1340386E-04  0.0000000E+00 -0.1529848E-03
 -0.5050501E-02  0.0000000E+00 -0.5050505E-02  0.1287651E-04  0.0000000E+00 -0.1466451E-03
 -0.5050495E-02  0.0000000E+00 -0.5050505E-02  0.1087423E-04  0.0000000E+00 -0.1403949E-03
 -0.5050482E-02  0.0000000E+00 -0.5050505E-02  0.6400806E-05  0.0000000E+00 -0.1354252E-03
 -0.5050449E-02  0.0000000E+00 -0.5050505E-02 -0.9751367E-06  0.0000000E+00 -0.1341703E-03
 -0.5050376E-02  0.0000000E+00 -0.5050505E-02 -0.5857103E-05  0.0000000E+00 -0.1367559E-03
 -0.5050299E-02  0.0000000E+00 -0.5050505E-02 -0.8528632E-05  0.0000000E+00 -0.1409377E-03
 -0.5050178E-02  0.0000000E+00 -0.5050505E-02 -0.9817735E-05  0.0000000E+00 -0.1455974E-03
 -0.5050018E-02  0.0000000E+00 -0.5050505E-02 -0.1031434E-04  0.0000000E+00 -0.1503013E-03
 -0.5049710E-02  0.0000000E+00 -0.5050505E-02 -0.1037225E-04  0.0000000E+00 -0.1548927E-03
 -0.5049253E-02  0.0000000E+00 -0.5050505E-02 -0.1019499E-04  0.0000000E+00 -0.1593175E-03
 -0.5048636E-02  0.0000000E+00 -0.5050505E-02 -0.9898226E-05  0.0000000E+00 -0.1635602E-03
 -0.5047442E-02  0.0000000E+00 -0.5050505E-02 -0.9546802E-05  0.0000000E+00 -0.1676211E-03
 -0.5045727E-02  0.0000000E+00 -0.5050505E-02 -0.9176083E-05  0.0000000E+00 -0.1715070E-03
 -0.5043261E-02  0.0000000E+00 -0.5050505E-02 -0.8804372E-05  0.0000000E+00 -0.1752262E-03
 -0.5038714E-02  0.0000000E+00 -0.5050505E-02 -0.8440215E-05  0.0000000E+00 -0.1787876E-03
 -0.5032318E-02  0.0000000E+00 -0.5050505E-02 -0.8086745E-05  0.0000000E+00 -0.1821991E-03
 -0.5022454E-02  0.0000000E+00 -0.5050505E-02 -0.7744247E-05  0.0000000E+00 -0.1854671E-03
 -0.5012589E-02  0.0000000E+00 -0.5050505E-02 -0.7411654E-05  0.0000000E+00 -0.1885971E-03
 -0.5002725E-02  0.0000000E+00 -0.5050505E-02 -0.7087401E-05  0.0000000E+00 -0.1915930E-03
 -0.4992860E-02  0.0000000E+00 -0.5050505E-02 -0.6769880E-05  0.0000000E+00 -0.1944579E-03
 -0.4976523E-02  0.0000000E+00 -0.5050505E-02 -0.6457674E-05  0.0000000E+00 -0.1971942E-03
 -0.4956794E-02  0.0000000E+00 -0.5050505E-02 -0.6149650E-05  0.0000000E+00 -0.1998035E-03
 -0.4937066E-02  0.0000000E+00 -0.5050505E-02 -0.5844987E-05  0.0000000E+00 -0.2022870E-03
 -0.4906239E-02  0.0000000E+00 -0.5050505E-02 -0.5543164E-05  0.0000000E+00 -0.2046456E-03
 -0.4866782E-02  0.0000000E+00 -0.5050505E-02 -0.5243940E-05  0.0000000E+00 -0.2068803E-03
 -0.4827325E-02  0.0000000E+00 -0.5050505E-02 -0.4947335E-05  0.0000000E+00 -0.2089918E-03
 -0.4769372E-02  0.0000000E+00 -0.5050505E-02 -0.4653630E-05  0.0000000E+00 -0.2109809E-03
 -0.4690458E-02  0.0000000E+00 -0.5050505E-02 -0.4363388E-05  0.0000000E+00 -0.2128484E-03
 -0.4611543E-02  0.0000000E+00 -0.5050505E-02 -0.4077523E-05  0.0000000E+00 -0.2145957E-03
 -0.4503035E-02  0.0000000E+00 -0.5050505E-02 -0.3797429E-05  0.0000000E+00 -0.2162241E-03
 -0.4345206E-02  0.0000000E+00 -0.5050505E-02 -0.3525216E-05  0.0000000E+00 -0.2177355E-03
 -0.4187378E-02  0.0000000E+00 -0.5050505E-02 -0.3264131E-05  0.0000000E+00 -0.2191320E-03
 -0.3985156E-02  0.0000000E+00 -0.5050505E-02 -0.3019296E-05  0.0000000E+00 -0.2204165E-03
 -0.3669499E-02  0.0000000E+00 -0.5050505E-02 -0.2799042E-05  0.0000000E+00 -0.2215921E-03
 -0.3353842E-02  0.0000000E+00 -0.5050505E-02 -0.2617324E-05  0.0000000E+00 -0.2226613E-03
 -0.2978990E-02  0.0000000E+00 -0.5050505E-02 -0.2498167E-05  0.0000000E+00 -0.2236237E-03
 -0.2347676E-02  0.0000000E+00 -0.5050505E-02 -0.2483676E-05  0.0000000E+00 -0.2244673E-03
 -0.1716362E-02  0.0000000E+00 -0.5050505E-02 -0.2647393E-05  0.0000000E+00 -0.2251462E-03
 -0.1025842E-02  0.0000000E+00 -0.5050505E-02 -0.3110337E-05  0.0000000E+00 -0.2255184E-03
  0.2367855E-03  0.0000000E+00 -0.5050505E-02 -0.4026945E-05  0.0000000E+00 -0.2251996E-03
  0.1499413E-02  0.0000000E+00 -0.5050505E-02 -0.5352830E-05  0.0000000E+00 -0.2233301E-03
  0.5287294E-02  0.0000000E+00 -0.5050505E-02 -0.5477468E-05  0.0000000E+00 -0.2190181E-03
 -0.5050505E-02  0.0000000E+00 -0.5050505E-02  0.7356913E-07  0.0000000E+00 -0.2520449E-03
 -0.5050505E-02  0.0000000E+00 -0.5050505E-02  0.2207479E-06  0.0000000E+00 -0.2520008E-03
 -0.5050505E-02  0.0000000E+00 -0.5050505E-02  0.3680488E-06  0.0000000E+00 -0.2519126E-03
 -0.5050505E-02  0.0000000E+00 -0.5050505E-02  0.5155542E-06  0.0000000E+00 -0.2517803E-03
 -0.5050505E-02  0.0000000E+00 -0.5050505E-02  0.6633477E-06  0.0000000E+00 -0.2516037E-03
 -0.5050505E-02  0.0000000E+00 -0.5050505E-02  0.8115147E-06  0.0000000E+00 -0.2513827E-03
 -0.5050504E-02  0.0000000E+00 -0.5050505E-02  0.9601425E-06  0.0000000E+00 -0.2511173E-03
 -0.5050501E-02  0.0000000E+00 -0.5050505E-02  0.1109321E-05  0.0000000E+00 -0.2508073E-03
 -0.5050495E-02  0.0000000E+00 -0.5050505E-02  0.1259144E-05  0.0000000E+00 -0.2504526E-03
 -0.5050482E-02  0.0000000E+00 -0.5050505E-02  0.1409708E-05  0.0000000E+00 -0.2500528E-03
 -0.5050449E-02  0.0000000E+00 -0.5050505E-02  0.1561115E-05  0.0000000E+00 -0.2496079E-03
 -0.5050376E-02  0.0000000E+00 -0.5050505E-02  0.1713471E-05  0.0000000E+00 -0.2491175E-03
 -0.5050299E-02  0.0000000E+00 -0.5050505E-02  0.1866889E-05  0.0000000E+00 -0.2485813E-03
 -0.5050178E-02  0.0000000E+00 -0.5050505E-02  0.2021491E-05  0.0000000E+00 -0.2479991E-03
 -0.5050018E-02  0.0000000E+00 -0.5050505E-02  0.2177404E-05  0.0000000E+00 -0.2473704E-03
 -0.5049710E-02  0.0000000E+00 -0.5050505E-02  0.2334769E-05  0.0000000E+00 -0.2466948E-03
 -0.5049253E-02  0.0000000E+00 -0.5050505E-02  0.2493735E-05  0.0000000E+00 -0.2459720E-03
 -0.5048636E-02  0.0000000E+00 -0.5050505E-02  0.2654466E-05  0.0000000E+00 -0.2452014E-03
 -0.5047442E-02  0.0000000E+00 -0.5050505E-02  0.2817141E-05  0.0000000E+00 -0.2443825E-03
 -0.5045727E-02  0.0000000E+00 -0.5050505E-02  0.2981957E-05  0.0000000E+00 -0.2435147E-03
 -0.5043261E-02  0.0000000E+00 -0.5050505E-02  0.3149132E-05  0.0000000E+00 -0.2425974E-03
 -0.5038714E-02  0.0000000E+00 -0.5050505E-02  0.3318907E-05  0.0000000E+00 -0.2416298E-03
 -0.5032318E-02  0.0000000E+00 -0.5050505E-02  0.3491551E-05  0.0000000E+00 -0.2406111E-03
 -0.5022454E-02  0.0000000E+00 -0.5050505E-02  0.3667363E-05  0.0000000E+00 -0.2395406E-03
 -0.5012589E-02  0.0000000E+00 -0.5050505E-02  0.3846679E-05  0.0000000E+00 -0.2384172E-03
 -0.5002725E-02  0.0000000E+00 -0.5050505E-02  0.4029877E-05  0.0000000E+00 -0.2372399E-03
 -0.4992860E-02  0.0000000E+00 -0.5050505E-02  0.4217383E-05  0.0000000E+00 -0.2360076E-03
 -0.4976523E-02  0.0000000E+00 -0.5050505E-02  0.4409678E-05  0.0000000E+00 -0.2347189E-03
 -0.4956794E-02  0.0000000E+00 -0.5050505E-02  0.4607307E-05  0.0000000E+00 -0.2333724E-03
 -0.4937066E-02  0.0000000E+00 -0.5050505E-02  0.4810889E-05  0.0000000E+00 -0.2319665E-03