title = "dataset feddes"
variables = "x", "y", "z", "vx", "vy", "vz"
zone t = "velocities, solution time =  4.100E+01 days        " i =   99, j =   99, k =    1,  f=point
 -0.5050505E-02  0.0000000E+00 -0.5050505E-02  0.2753235E-07  0.0000000E+00 -0.1746445E-03
 -0.5050505E-02  0.0000000E+00 -0.5050505E-02  0.8262821E-07  0.0000000E+00 -0.1745320E-03
 -0.5050505E-02  0.0000000E+00 -0.5050505E-02  0.1378184E-06  0.0000000E+00 -0.1743069E-03
 -0.5050505E-02  0.0000000E+00 -0.5050505E-02  0.1931672E-06  0.0000000E+00 -0.1739690E-03
 -0.5050505E-02  0.0000000E+00 -0.5050505E-02  0.2487404E-06  0.0000000E+00 -0.1735178E-03
 -0.5050505E-02  0.0000000E+00 -0.5050505E-02  0.3046058E-06  0.0000000E+00 -0.1729529E-03
 -0.5050504E-02  0.0000000E+00 -0.5050505E-02  0.3608331E-06  0.0000000E+00 -0.1722735E-03
 -0.5050501E-02  0.0000000E+00 -0.5050505E-02  0.4174952E-06  0.0000000E+00 -0.1714790E-03
 -0.5050495E-02  0.0000000E+00 -0.5050505E-02  0.4746682E-06  0.0000000E+00 -0.1705684E-03
 -0.5050482E-02  0.0000000E+00 -0.5050505E-02  0.5324321E-06  0.0000000E+00 -0.1695406E-03
 -0.5050449E-02  0.0000000E+00 -0.5050505E-02  0.5908717E-06  0.0000000E+00 -0.1683944E-03
 -0.5050376E-02  0.0000000E+00 -0.5050505E-02  0.6500772E-06  0.0000000E+00 -0.1671283E-03
 -0.5050299E-02  0.0000000E+00 -0.5050505E-02  0.7101451E-06  0.0000000E+00 -0.1657408E-03
 -0.5050178E-02  0.0000000E+00 -0.5050505E-02  0.7711791E-06  0.0000000E+00 -0.1642300E-03
 -0.5050018E-02  0.0000000E+00 -0.5050505E-02  0.8332915E-06  0.0000000E+00 -0.1625939E-03
 -0.5049710E-02  0.0000000E+00 -0.5050505E-02  0.8966038E-06  0.0000000E+00 -0.1608303E-03
 -0.5049253E-02  0.0000000E+00 -0.5050505E-02  0.9612488E-06  0.0000000E+00 -0.1589366E-03
 -0.5048636E-02  0.0000000E+00 -0.5050505E-02  0.1027372E-05  0.0000000E+00 -0.1569102E-03
 -0.5047442E-02  0.0000000E+00 -0.5050505E-02  0.1095132E-05  0.0000000E+00 -0.1547478E-03
 -0.5045727E-02  0.0000000E+00 -0.5050505E-02  0.1164705E-05  0.0000000E+00 -0.1524462E-03
 -0.5043261E-02  0.0000000E+00 -0.5050505E-02  0.1236285E-05  0.0000000E+00 -0.1500015E-03
 -0.5038714E-02  0.0000000E+00 -0.5050505E-02  0.1310088E-05  0.0000000E+00 -0.1474096E-03
 -0.5032318E-02  0.0000000E+00 -0.5050505E-02  0.1386354E-05  0.0000000E+00 -0.1446658E-03
 -0.5022454E-02  0.0000000E+00 -0.5050505E-02  0.1465351E-05  0.0000000E+00 -0.1417650E-03
 -0.5012589E-02  0.0000000E+00 -0.5050505E-02  0.1547375E-05  0.0000000E+00 -0.1387016E-03
 -0.5002725E-02  0.0000000E+00 -0.5050505E-02  0.1632763E-05  0.0000000E+00 -0.1354691E-03
 -0.4992860E-02  0.0000000E+00 -0.5050505E-02  0.1721890E-05  0.0000000E+00 -0.1320606E-03
 -0.4976523E-02  0.0000000E+00 -0.5050505E-02  0.1815176E-05  0.0000000E+00 -0.1284683E-03
 -0.4956794E-02  0.0000000E+00 -0.5050505E-02  0.1913098E-05  0.0000000E+00 -0.1246836E-03
 -0.4937066E-02  0.0000000E+00 -0.5050505E-02  0.2016189E-05  0.0000000E+00 -0.1206966E-03
 -0.4906239E-02  0.0000000E+00 -0.5050505E-02  0.2125053E-05  0.0000000E+00 -0.1164967E-03
 -0.4866782E-02  0.0000000E+00 -0.5050505E-02  0.2240373E-05  0.0000000E+00 -0.1120718E-03
 -0.4827325E-02  0.0000000E+00 -0.5050505E-02  0.2362920E-05  0.0000000E+00 -0.1074083E-03
 -0.4769372E-02  0.0000000E+00 -0.5050505E-02  0.2493566E-05  0.0000000E+00 -0.1024912E-03
 -0.4690458E-02  0.0000000E+00 -0.5050505E-02  0.2633302E-05  0.0000000E+00 -0.9730363E-04
 -0.4611543E-02  0.0000000E+00 -0.5050505E-02  0.2783247E-05  0.0000000E+00 -0.9182650E-04
 -0.4503035E-02  0.0000000E+00 -0.5050505E-02  0.2944674E-05  0.0000000E+00 -0.8603853E-04
 -0.4345206E-02  0.0000000E+00 -0.5050505E-02  0.3119028E-05  0.0000000E+00 -0.7991577E-04
 -0.4187378E-02  0.0000000E+00 -0.5050505E-02  0.3307948E-05  0.0000000E+00 -0.7343126E-04
 -0.3985156E-02  0.0000000E+00 -0.5050505E-02  0.3513302E-05  0.0000000E+00 -0.6655465E-04
 -0.3669499E-02  0.0000000E+00 -0.5050505E-02  0.3737215E-05  0.0000000E+00 -0.5925173E-04
 -0.3353842E-02  0.0000000E+00 -0.5050505E-02  0.3982113E-05  0.0000000E+00 -0.5148392E-04
 -0.2978990E-02  0.0000000E+00 -0.5050505E-02  0.4250771E-05  0.0000000E+00 -0.4320765E-04
 -0.2347676E-02  0.0000000E+00 -0.5050505E-02  0.4546376E-05  0.0000000E+00 -0.3437364E-04
 -0.1716362E-02  0.0000000E+00 -0.5050505E-02  0.4872613E-05  0.0000000E+00 -0.2492608E-04
 -0.1025842E-02  0.0000000E+00 -0.5050505E-02  0.5233776E-05  0.0000000E+00 -0.1480158E-04
  0.2367855E-03  0.0000000E+00 -0.5050505E-02  0.5634945E-05  0.0000000E+00 -0.3925228E-05
  0.1499413E-02  0.0000000E+00 -0.5050505E-02  0.6082090E-05  0.0000000E+00  0.7812339E-05
  0.2762042E-02  0.0000000E+00 -0.5050505E-02  0.6582954E-05  0.0000000E+00  0.2052691E-04
 -0.5050505E-02  0.0000000E+00 -0.5050505E-02  0.7147405E-05  0.0000000E+00  0.3433248E-04
 -0.5050505E-02  0.0000000E+00 -0.5050505E-02  0.7788701E-05  0.0000000E+00  0.4937586E-04
 -0.5050505E-02  0.0000000E+00 -0.5050505E-02  0.8525646E-05  0.0000000E+00  0.6583772E-04
 -0.5050505E-02  0.0000000E+00 -0.5050505E-02  0.9386616E-05  0.0000000E+00  0.8394847E-04
 -0.5050505E-02  0.0000000E+00 -0.5050505E-02  0.1041752E-04  0.0000000E+00  0.1040166E-03
 -0.5050505E-02  0.0000000E+00 -0.5050505E-02  0.1169861E-04  0.0000000E+00  0.1264828E-03
 -0.5050505E-02  0.0000000E+00 -0.5050505E-02  0.1338246E-04  0.0000000E+00  0.1520313E-03
 -0.5050504E-02  0.0000000E+00 -0.5050505E-02  0.1578510E-04  0.0000000E+00  0.1818362E-03
 -0.5050501E-02  0.0000000E+00 -0.5050505E-02  0.1961259E-04  0.0000000E+00  0.2181415E-03
 -0.5050495E-02  0.0000000E+00 -0.5050505E-02  0.2652883E-04  0.0000000E+00  0.2656826E-03
 -0.5050482E-02  0.0000000E+00 -0.5050505E-02  0.4051285E-04  0.0000000E+00  0.3351801E-03
 -0.5050449E-02  0.0000000E+00 -0.5050505E-02 -0.3591718E-04  0.0000000E+00  0.3399138E-03
 -0.5050376E-02  0.0000000E+00 -0.5050505E-02 -0.2235814E-04  0.0000000E+00  0.2794059E-03
 -0.5050299E-02  0.0000000E+00 -0.5050505E-02 -0.1607151E-04  0.0000000E+00  0.2397082E-03
 -0.5050178E-02  0.0000000E+00 -0.5050505E-02 -0.1285807E-04  0.0000000E+00  0.2099364E-03
 -0.5050018E-02  0.0000000E+00 -0.5050505E-02 -0.1099516E-04  0.0000000E+00  0.1854634E-03
 -0.5049710E-02  0.0000000E+00 -0.5050505E-02 -0.9779209E-05  0.0000000E+00  0.1642050E-03
 -0.5049253E-02  0.0000000E+00 -0.5050505E-02 -0.8904724E-05  0.0000000E+00  0.1451304E-03
 -0.5048636E-02  0.0000000E+00 -0.5050505E-02 -0.8226753E-05  0.0000000E+00  0.1276781E-03
 -0.5047442E-02  0.0000000E+00 -0.5050505E-02 -0.7670518E-05  0.0000000E+00  0.1115151E-03
 -0.5045727E-02  0.0000000E+00 -0.5050505E-02 -0.7194650E-05  0.0000000E+00  0.9642932E-04
 -0.5043261E-02  0.0000000E+00 -0.5050505E-02 -0.6774783E-05  0.0000000E+00  0.8227708E-04
 -0.5038714E-02  0.0000000E+00 -0.5050505E-02 -0.6395657E-05  0.0000000E+00  0.6895599E-04
 -0.5032318E-02  0.0000000E+00 -0.5050505E-02 -0.6047142E-05  0.0000000E+00  0.5639020E-04
 -0.5022454E-02  0.0000000E+00 -0.5050505E-02 -0.5722191E-05  0.0000000E+00  0.4452178E-04
 -0.5012589E-02  0.0000000E+00 -0.5050505E-02 -0.5415737E-05  0.0000000E+00  0.3330549E-04
 -0.5002725E-02  0.0000000E+00 -0.5050505E-02 -0.5124088E-05  0.0000000E+00  0.2270527E-04
 -0.4992860E-02  0.0000000E+00 -0.5050505E-02 -0.4844527E-05  0.0000000E+00  0.1269183E-04
 -0.4976523E-02  0.0000000E+00 -0.5050505E-02 -0.4575060E-05  0.0000000E+00  0.3242674E-05
 -0.4956794E-02  0.0000000E+00 -0.5050505E-02 -0.4313648E-05  0.0000000E+00 -0.5657501E-05
 -0.4937066E-02  0.0000000E+00 -0.5050505E-02 -0.4060046E-05  0.0000000E+00 -0.1403687E-04
 -0.4906239E-02  0.0000000E+00 -0.5050505E-02 -0.3813427E-05  0.0000000E+00 -0.2192378E-04
 -0.4866782E-02  0.0000000E+00 -0.5050505E-02 -0.3573186E-05  0.0000000E+00 -0.2933013E-04
 -0.4827325E-02  0.0000000E+00 -0.5050505E-02 -0.3338863E-05  0.0000000E+00 -0.3626691E-04
 -0.4769372E-02  0.0000000E+00 -0.5050505E-02 -0.3110104E-05  0.0000000E+00 -0.4274442E-04
 -0.4690458E-02  0.0000000E+00 -0.5050505E-02 -0.2886630E-05  0.0000000E+00 -0.4877244E-04
 -0.4611543E-02  0.0000000E+00 -0.5050505E-02 -0.2668231E-05  0.0000000E+00 -0.5436037E-04
 -0.4503035E-02  0.0000000E+00 -0.5050505E-02 -0.2454760E-05  0.0000000E+00 -0.5951734E-04
 -0.4345206E-02  0.0000000E+00 -0.5050505E-02 -0.2246156E-05  0.0000000E+00 -0.6425239E-04
 -0.4187378E-02  0.0000000E+00 -0.5050505E-02 -0.2042491E-05  0.0000000E+00 -0.6857465E-04
 -0.3985156E-02  0.0000000E+00 -0.5050505E-02 -0.1844081E-05  0.0000000E+00 -0.7249372E-04
 -0.3669499E-02  0.0000000E+00 -0.5050505E-02 -0.1651698E-05  0.0000000E+00 -0.7602040E-04
 -0.3353842E-02  0.0000000E+00 -0.5050505E-02 -0.1467054E-05  0.0000000E+00 -0.7916806E-04
 -0.2978990E-02  0.0000000E+00 -0.5050505E-02 -0.1293901E-05  0.0000000E+00 -0.8195566E-04
 -0.2347676E-02  0.0000000E+00 -0.5050505E-02 -0.1140828E-05  0.0000000E+00 -0.8441471E-04
 -0.1716362E-02  0.0000000E+00 -0.5050505E-02 -0.1028969E-05  0.0000000E+00 -0.8660683E-04
 -0.1025842E-02  0.0000000E+00 -0.5050505E-02 -0.1015376E-05  0.0000000E+00 -0.8867277E-04
  0.2367855E-03  0.0000000E+00 -0.5050505E-02 -0.1270693E-05  0.0000000E+00 -0.9098359E-04
  0.1499413E-02  0.0000000E+00 -0.5050505E-02 -0.2359830E-05  0.0000000E+00 -0.9465456E-04
  0.5287294E-02  0.0000000E+00 -0.5050505E-02 -0.3379324E-04  0.0000000E+00 -0.7588571E-04
 -0.5050505E-02  0.0000000E+00 -0.5050505E-02  0.8257487E-07  0.0000000E+00 -0.1744192E-03
 -0.5050505E-02  0.0000000E+00 -0.5050505E-02  0.2478183E-06  0.0000000E+00 -0.1743066E-03
 -0.5050505E-02  0.0000000E+00 -0.5050505E-02  0.4133450E-06  0.0000000E+00 -0.1740811E-03
 -0.5050505E-02  0.0000000E+00 -0.5050505E-02  0.5793477E-06  0.0000000E+00 -0.1737426E-03
 -0.5050505E-02  0.0000000E+00 -0.5050505E-02  0.7460236E-06  0.0000000E+00 -0.1732906E-03
 -0.5050505E-02  0.0000000E+00 -0.5050505E-02  0.9135752E-06  0.0000000E+00 -0.1727247E-03
 -0.5050504E-02  0.0000000E+00 -0.5050505E-02  0.1082212E-05  0.0000000E+00 -0.1720443E-03
 -0.5050501E-02  0.0000000E+00 -0.5050505E-02  0.1252151E-05  0.0000000E+00 -0.1712485E-03
 -0.5050495E-02  0.0000000E+00 -0.5050505E-02  0.1423622E-05  0.0000000E+00 -0.1703364E-03
 -0.5050482E-02  0.0000000E+00 -0.5050505E-02  0.1596862E-05  0.0000000E+00 -0.1693070E-03
 -0.5050449E-02  0.0000000E+00 -0.5050505E-02  0.1772127E-05  0.0000000E+00 -0.1681589E-03
 -0.5050376E-02  0.0000000E+00 -0.5050505E-02  0.1949685E-05  0.0000000E+00 -0.1668909E-03
 -0.5050299E-02  0.0000000E+00 -0.5050505E-02  0.2129827E-05  0.0000000E+00 -0.1655012E-03
 -0.5050178E-02  0.0000000E+00 -0.5050505E-02  0.2312862E-05  0.0000000E+00 -0.1639881E-03
 -0.5050018E-02  0.0000000E+00 -0.5050505E-02  0.2499125E-05  0.0000000E+00 -0.1623496E-03
 -0.5049710E-02  0.0000000E+00 -0.5050505E-02  0.2688981E-05  0.0000000E+00 -0.1605834E-03
 -0.5049253E-02  0.0000000E+00 -0.5050505E-02  0.2882827E-05  0.0000000E+00 -0.1586871E-03
 -0.5048636E-02  0.0000000E+00 -0.5050505E-02  0.3081097E-05  0.0000000E+00 -0.1566578E-03
 -0.5047442E-02  0.0000000E+00 -0.5050505E-02  0.3284268E-05  0.0000000E+00 -0.1544926E-03
 -0.5045727E-02  0.0000000E+00 -0.5050505E-02  0.3492864E-05  0.0000000E+00 -0.1521880E-03
 -0.5043261E-02  0.0000000E+00 -0.5050505E-02  0.3707469E-05  0.0000000E+00 -0.1497403E-03
 -0.5038714E-02  0.0000000E+00 -0.5050505E-02  0.3928725E-05  0.0000000E+00 -0.1471454E-03
 -0.5032318E-02  0.0000000E+00 -0.5050505E-02  0.4157351E-05  0.0000000E+00 -0.1443986E-03
 -0.5022454E-02  0.0000000E+00 -0.5050505E-02  0.4394145E-05  0.0000000E+00 -0.1414948E-03
 -0.5012589E-02  0.0000000E+00 -0.5050505E-02  0.4640000E-05  0.0000000E+00 -0.1384285E-03
 -0.5002725E-02  0.0000000E+00 -0.5050505E-02  0.4895917E-05  0.0000000E+00 -0.1351932E-03
 -0.4992860E-02  0.0000000E+00 -0.5050505E-02  0.5163017E-05  0.0000000E+00 -0.1317821E-03
 -0.4976523E-02  0.0000000E+00 -0.5050505E-02  0.5442562E-05  0.0000000E+00 -0.1281874E-03
 -0.4956794E-02  0.0000000E+00 -0.5050505E-02  0.5735969E-05  0.0000000E+00 -0.1244005E-03
 -0.4937066E-02  0.0000000E+00 -0.5050505E-02  0.6044840E-05  0.0000000E+00 -0.1204118E-03
 -0.4906239E-02  0.0000000E+00 -0.5050505E-02  0.6370980E-05  0.0000000E+00 -0.1162106E-03
 -0.4866782E-02  0.0000000E+00 -0.5050505E-02  0.6716427E-05  0.0000000E+00 -0.1117849E-03
 -0.4827325E-02  0.0000000E+00 -0.5050505E-02  0.7083489E-05  0.0000000E+00 -0.1071213E-03
 -0.4769372E-02  0.0000000E+00 -0.5050505E-02  0.7474778E-05  0.0000000E+00 -0.1022049E-03
 -0.4690458E-02  0.0000000E+00 -0.5050505E-02  0.7893251E-05  0.0000000E+00 -0.9701882E-04
 -0.4611543E-02  0.0000000E+00 -0.5050505E-02  0.8342262E-05  0.0000000E+00 -0.9154432E-04
 -0.4503035E-02  0.0000000E+00 -0.5050505E-02  0.8825619E-05  0.0000000E+00 -0.8576022E-04
 -0.4345206E-02  0.0000000E+00 -0.5050505E-02  0.9347641E-05  0.0000000E+00 -0.7964276E-04
 -0.4187378E-02  0.0000000E+00 -0.5050505E-02  0.9913241E-05  0.0000000E+00 -0.7316522E-04
 -0.3985156E-02  0.0000000E+00 -0.5050505E-02  0.1052800E-04  0.0000000E+00 -0.6629748E-04
 -0.3669499E-02  0.0000000E+00 -0.5050505E-02  0.1119829E-04  0.0000000E+00 -0.5900563E-04
 -0.3353842E-02  0.0000000E+00 -0.5050505E-02  0.1193135E-04  0.0000000E+00 -0.5125142E-04
 -0.2978990E-02  0.0000000E+00 -0.5050505E-02  0.1273550E-04  0.0000000E+00 -0.4299165E-04
 -0.2347676E-02  0.0000000E+00 -0.5050505E-02  0.1362024E-04  0.0000000E+00 -0.3417752E-04
 -0.1716362E-02  0.0000000E+00 -0.5050505E-02  0.1459657E-04  0.0000000E+00 -0.2475380E-04
 -0.1025842E-02  0.0000000E+00 -0.5050505E-02  0.1567727E-04  0.0000000E+00 -0.1465790E-04
  0.2367855E-03  0.0000000E+00 -0.5050505E-02  0.1687739E-04  0.0000000E+00 -0.3815869E-05
  0.1499413E-02  0.0000000E+00 -0.5050505E-02  0.1821450E-04  0.0000000E+00  0.7879815E-05
  0.2762042E-02  0.0000000E+00 -0.5050505E-02  0.1971121E-04  0.0000000E+00  0.2054199E-04
 -0.5050505E-02  0.0000000E+00 -0.5050505E-02  0.2139607E-04  0.0000000E+00  0.3428024E-04
 -0.5050505E-02  0.0000000E+00 -0.5050505E-02  0.2330686E-04  0.0000000E+00  0.4923369E-04
 -0.5050505E-02  0.0000000E+00 -0.5050505E-02  0.2549619E-04  0.0000000E+00  0.6556933E-04
 -0.5050505E-02  0.0000000E+00 -0.5050505E-02  0.2804157E-04  0.0000000E+00  0.8349203E-04
 -0.5050505E-02  0.0000000E+00 -0.5050505E-02  0.3106453E-04  0.0000000E+00  0.1032601E-03
 -0.5050505E-02  0.0000000E+00 -0.5050505E-02  0.3476912E-04  0.0000000E+00  0.1252092E-03
 -0.5050505E-02  0.0000000E+00 -0.5050505E-02  0.3952521E-04  0.0000000E+00  0.1497894E-03
 -0.5050504E-02  0.0000000E+00 -0.5050505E-02  0.4606282E-04  0.0000000E+00  0.1776229E-03
 -0.5050501E-02  0.0000000E+00 -0.5050505E-02  0.5595767E-04  0.0000000E+00  0.2096069E-03
 -0.5050495E-02  0.0000000E+00 -0.5050505E-02  0.7291847E-04  0.0000000E+00  0.2472063E-03
 -0.5050482E-02  0.0000000E+00 -0.5050505E-02  0.1063940E-03  0.0000000E+00  0.2938115E-03
 -0.5050449E-02  0.0000000E+00 -0.5050505E-02 -0.9210953E-04  0.0000000E+00  0.2990013E-03
 -0.5050376E-02  0.0000000E+00 -0.5050505E-02 -0.6015841E-04  0.0000000E+00  0.2620708E-03
 -0.5050299E-02  0.0000000E+00 -0.5050505E-02 -0.4531911E-04  0.0000000E+00  0.2325445E-03
 -0.5050178E-02  0.0000000E+00 -0.5050505E-02 -0.3733441E-04  0.0000000E+00  0.2070301E-03
 -0.5050018E-02  0.0000000E+00 -0.5050505E-02 -0.3241991E-04  0.0000000E+00  0.1843987E-03
 -0.5049710E-02  0.0000000E+00 -0.5050505E-02 -0.2906138E-04  0.0000000E+00  0.1639862E-03
 -0.5049253E-02  0.0000000E+00 -0.5050505E-02 -0.2657193E-04  0.0000000E+00  0.1453212E-03
 -0.5048636E-02  0.0000000E+00 -0.5050505E-02 -0.2460446E-04  0.0000000E+00  0.1280725E-03
 -0.5047442E-02  0.0000000E+00 -0.5050505E-02 -0.2297042E-04  0.0000000E+00  0.1120095E-03
 -0.5045727E-02  0.0000000E+00 -0.5050505E-02 -0.2156163E-04  0.0000000E+00  0.9696917E-04
 -0.5043261E-02  0.0000000E+00 -0.5050505E-02 -0.2031264E-04  0.0000000E+00  0.8283252E-04
 -0.5038714E-02  0.0000000E+00 -0.5050505E-02 -0.1918147E-04  0.0000000E+00  0.6951013E-04
 -0.5032318E-02  0.0000000E+00 -0.5050505E-02 -0.1813966E-04  0.0000000E+00  0.5693317E-04
 -0.5022454E-02  0.0000000E+00 -0.5050505E-02 -0.1716705E-04  0.0000000E+00  0.4504779E-04
 -0.5012589E-02  0.0000000E+00 -0.5050505E-02 -0.1624897E-04  0.0000000E+00  0.3381125E-04
 -0.5002725E-02  0.0000000E+00 -0.5050505E-02 -0.1537466E-04  0.0000000E+00  0.2318916E-04
 -0.4992860E-02  0.0000000E+00 -0.5050505E-02 -0.1453616E-04  0.0000000E+00  0.1315336E-04
 -0.4976523E-02  0.0000000E+00 -0.5050505E-02 -0.1372765E-04  0.0000000E+00  0.3681575E-05
 -0.4956794E-02  0.0000000E+00 -0.5050505E-02 -0.1294326E-04  0.0000000E+00 -0.5240121E-05
 -0.4937066E-02  0.0000000E+00 -0.5050505E-02 -0.1218199E-04  0.0000000E+00 -0.1363900E-04
 -0.4906239E-02  0.0000000E+00 -0.5050505E-02 -0.1144160E-04  0.0000000E+00 -0.2154404E-04
 -0.4866782E-02  0.0000000E+00 -0.5050505E-02 -0.1072035E-04  0.0000000E+00 -0.2896700E-04
 -0.4827325E-02  0.0000000E+00 -0.5050505E-02 -0.1001686E-04  0.0000000E+00 -0.3591883E-04
 -0.4769372E-02  0.0000000E+00 -0.5050505E-02 -0.9330088E-05  0.0000000E+00 -0.4240981E-04
 -0.4690458E-02  0.0000000E+00 -0.5050505E-02 -0.8659196E-05  0.0000000E+00 -0.4844970E-04
 -0.4611543E-02  0.0000000E+00 -0.5050505E-02 -0.8003537E-05  0.0000000E+00 -0.5404791E-04
 -0.4503035E-02  0.0000000E+00 -0.5050505E-02 -0.7362641E-05  0.0000000E+00 -0.5921353E-04
 -0.4345206E-02  0.0000000E+00 -0.5050505E-02 -0.6736263E-05  0.0000000E+00 -0.6395544E-04
 -0.4187378E-02  0.0000000E+00 -0.5050505E-02 -0.6124509E-05  0.0000000E+00 -0.6828249E-04
 -0.3985156E-02  0.0000000E+00 -0.5050505E-02 -0.5528093E-05  0.0000000E+00 -0.7220362E-04
 -0.3669499E-02  0.0000000E+00 -0.5050505E-02 -0.4948850E-05  0.0000000E+00 -0.7572827E-04
 -0.3353842E-02  0.0000000E+00 -0.5050505E-02 -0.4390790E-05  0.0000000E+00 -0.7886683E-04
 -0.2978990E-02  0.0000000E+00 -0.5050505E-02 -0.3862370E-05  0.0000000E+00 -0.8163134E-04
 -0.2347676E-02  0.0000000E+00 -0.5050505E-02 -0.3381642E-05  0.0000000E+00 -0.8403579E-04
 -0.1716362E-02  0.0000000E+00 -0.5050505E-02 -0.2988673E-05  0.0000000E+00 -0.8609299E-04
 -0.1025842E-02  0.0000000E+00 -0.5050505E-02 -0.2777243E-05  0.0000000E+00 -0.8779325E-04
  0.2367855E-03  0.0000000E+00 -0.5050505E-02 -0.2980033E-05  0.0000000E+00 -0.8899733E-04
  0.1499413E-02  0.0000000E+00 -0.5050505E-02 -0.4207170E-05  0.0000000E+00 -0.8893337E-04
  0.5287294E-02  0.0000000E+00 -0.5050505E-02 -0.8130008E-05  0.0000000E+00 -0.8386351E-04
 -0.5050505E-02  0.0000000E+00 -0.5050505E-02  0.1376183E-06  0.0000000E+00 -0.1739762E-03
 -0.5050505E-02  0.0000000E+00 -0.5050505E-02  0.4130115E-06  0.0000000E+00 -0.1738632E-03
 -0.5050505E-02  0.0000000E+00 -0.5050505E-02  0.6888769E-06  0.0000000E+00 -0.1736369E-03
 -0.5050505E-02  0.0000000E+00 -0.5050505E-02  0.9655354E-06  0.0000000E+00 -0.1732973E-03
 -0.5050505E-02  0.0000000E+00 -0.5050505E-02  0.1243315E-05  0.0000000E+00 -0.1728438E-03
 -0.5050505E-02  0.0000000E+00 -0.5050505E-02  0.1522551E-05  0.0000000E+00 -0.1722761E-03
 -0.5050504E-02  0.0000000E+00 -0.5050505E-02  0.1803593E-05  0.0000000E+00 -0.1715934E-03
 -0.5050501E-02  0.0000000E+00 -0.5050505E-02  0.2086801E-05  0.0000000E+00 -0.1707950E-03
 -0.5050495E-02  0.0000000E+00 -0.5050505E-02  0.2372555E-05  0.0000000E+00 -0.1698800E-03
 -0.5050482E-02  0.0000000E+00 -0.5050505E-02  0.2661252E-05  0.0000000E+00 -0.1688473E-03
 -0.5050449E-02  0.0000000E+00 -0.5050505E-02  0.2953313E-05  0.0000000E+00 -0.1676957E-03
 -0.5050376E-02  0.0000000E+00 -0.5050505E-02  0.3249186E-05  0.0000000E+00 -0.1664237E-03
 -0.5050299E-02  0.0000000E+00 -0.5050505E-02  0.3549351E-05  0.0000000E+00 -0.1650297E-03
 -0.5050178E-02  0.0000000E+00 -0.5050505E-02  0.3854322E-05  0.0000000E+00 -0.1635121E-03
 -0.5050018E-02  0.0000000E+00 -0.5050505E-02  0.4164656E-05  0.0000000E+00 -0.1618687E-03
 -0.5049710E-02  0.0000000E+00 -0.5050505E-02  0.4480957E-05  0.0000000E+00 -0.1600975E-03
 -0.5049253E-02  0.0000000E+00 -0.5050505E-02  0.4803882E-05  0.0000000E+00 -0.1581958E-03
 -0.5048636E-02  0.0000000E+00 -0.5050505E-02  0.5134150E-05  0.0000000E+00 -0.1561610E-03
 -0.5047442E-02  0.0000000E+00 -0.5050505E-02  0.5472553E-05  0.0000000E+00 -0.1539901E-03
 -0.5045727E-02  0.0000000E+00 -0.5050505E-02  0.5819962E-05  0.0000000E+00 -0.1516796E-03
 -0.5043261E-02  0.0000000E+00 -0.5050505E-02  0.6177338E-05  0.0000000E+00 -0.1492259E-03
 -0.5038714E-02  0.0000000E+00 -0.5050505E-02  0.6545750E-05  0.0000000E+00 -0.1466250E-03
 -0.5032318E-02  0.0000000E+00 -0.5050505E-02  0.6926385E-05  0.0000000E+00 -0.1438721E-03
 -0.5022454E-02  0.0000000E+00 -0.5050505E-02  0.7320567E-05  0.0000000E+00 -0.1409624E-03
 -0.5012589E-02  0.0000000E+00 -0.5050505E-02  0.7729775E-05  0.0000000E+00 -0.1378902E-03
 -0.5002725E-02  0.0000000E+00 -0.5050505E-02  0.8155664E-05  0.0000000E+00 -0.1346493E-03
 -0.4992860E-02  0.0000000E+00 -0.5050505E-02  0.8600093E-05  0.0000000E+00 -0.1312329E-03
 -0.4976523E-02  0.0000000E+00 -0.5050505E-02  0.9065149E-05  0.0000000E+00 -0.1276334E-03
 -0.4956794E-02  0.0000000E+00 -0.5050505E-02  0.9553183E-05  0.0000000E+00 -0.1238422E-03
 -0.4937066E-02  0.0000000E+00 -0.5050505E-02  0.1006684E-04  0.0000000E+00 -0.1198499E-03
 -0.4906239E-02  0.0000000E+00 -0.5050505E-02  0.1060912E-04  0.0000000E+00 -0.1156459E-03
 -0.4866782E-02  0.0000000E+00 -0.5050505E-02  0.1118339E-04  0.0000000E+00 -0.1112186E-03
 -0.4827325E-02  0.0000000E+00 -0.5050505E-02  0.1179348E-04  0.0000000E+00 -0.1065546E-03
 -0.4769372E-02  0.0000000E+00 -0.5050505E-02  0.1244371E-04  0.0000000E+00 -0.1016393E-03
 -0.4690458E-02  0.0000000E+00 -0.5050505E-02  0.1313899E-04  0.0000000E+00 -0.9645621E-04
 -0.4611543E-02  0.0000000E+00 -0.5050505E-02  0.1388487E-04  0.0000000E+00 -0.9098674E-04
 -0.4503035E-02  0.0000000E+00 -0.5050505E-02  0.1468767E-04  0.0000000E+00 -0.8521012E-04
 -0.4345206E-02  0.0000000E+00 -0.5050505E-02  0.1555454E-04  0.0000000E+00 -0.7910298E-04
 -0.4187378E-02  0.0000000E+00 -0.5050505E-02  0.1649365E-04  0.0000000E+00 -0.7263901E-04
 -0.3985156E-02  0.0000000E+00 -0.5050505E-02  0.1751423E-04  0.0000000E+00 -0.6578862E-04
 -0.3669499E-02  0.0000000E+00 -0.5050505E-02  0.1862686E-04  0.0000000E+00 -0.5851844E-04
 -0.3353842E-02  0.0000000E+00 -0.5050505E-02  0.1984354E-04  0.0000000E+00 -0.5079084E-04
 -0.2978990E-02  0.0000000E+00 -0.5050505E-02  0.2117803E-04  0.0000000E+00 -0.4256339E-04
 -0.2347676E-02  0.0000000E+00 -0.5050505E-02  0.2264605E-04  0.0000000E+00 -0.3378815E-04
 -0.1716362E-02  0.0000000E+00 -0.5050505E-02  0.2426572E-04  0.0000000E+00 -0.2441099E-04
 -0.1025842E-02  0.0000000E+00 -0.5050505E-02  0.2605801E-04  0.0000000E+00 -0.1437075E-04
  0.2367855E-03  0.0000000E+00 -0.5050505E-02  0.2804742E-04  0.0000000E+00 -0.3595137E-05
  0.1499413E-02  0.0000000E+00 -0.5050505E-02  0.3026222E-04  0.0000000E+00  0.8020145E-05
  0.2762042E-02  0.0000000E+00 -0.5050505E-02  0.3273831E-04  0.0000000E+00  0.2058284E-04
 -0.5050505E-02  0.0000000E+00 -0.5050505E-02  0.3552007E-04  0.0000000E+00  0.3419516E-04
 -0.5050505E-02  0.0000000E+00 -0.5050505E-02  0.3866469E-04  0.0000000E+00  0.4898375E-04
 -0.5050505E-02  0.0000000E+00 -0.5050505E-02  0.4224910E-04  0.0000000E+00  0.6509399E-04
 -0.5050505E-02  0.0000000E+00 -0.5050505E-02  0.4638167E-04  0.0000000E+00  0.8269231E-04
 -0.5050505E-02  0.0000000E+00 -0.5050505E-02  0.5122244E-04  0.0000000E+00  0.1019660E-03
 -0.5050505E-02  0.0000000E+00 -0.5050505E-02  0.5701852E-04  0.0000000E+00  0.1231131E-03
 -0.5050505E-02  0.0000000E+00 -0.5050505E-02  0.6416863E-04  0.0000000E+00  0.1462972E-03
 -0.5050504E-02  0.0000000E+00 -0.5050505E-02  0.7334672E-04  0.0000000E+00  0.1714913E-03
 -0.5050501E-02  0.0000000E+00 -0.5050505E-02  0.8575461E-04  0.0000000E+00  0.1979651E-03
 -0.5050495E-02  0.0000000E+00 -0.5050505E-02  0.1036694E-03  0.0000000E+00  0.2225886E-03
 -0.5050482E-02  0.0000000E+00 -0.5050505E-02  0.1316546E-03  0.0000000E+00  0.2339024E-03
 -0.5050449E-02  0.0000000E+00 -0.5050505E-02 -0.1060678E-03  0.0000000E+00  0.2402631E-03
 -0.5050376E-02  0.0000000E+00 -0.5050505E-02 -0.8164007E-04  0.0000000E+00  0.2402398E-03
 -0.5050299E-02  0.0000000E+00 -0.5050505E-02 -0.6815868E-04  0.0000000E+00  0.2239694E-03
 -0.5050178E-02  0.0000000E+00 -0.5050505E-02 -0.5905306E-04  0.0000000E+00  0.2036055E-03
 -0.5050018E-02  0.0000000E+00 -0.5050505E-02 -0.5253525E-04  0.0000000E+00  0.1832763E-03
 -0.5049710E-02  0.0000000E+00 -0.5050505E-02 -0.4767909E-04  0.0000000E+00  0.1640042E-03
 -0.5049253E-02  0.0000000E+00 -0.5050505E-02 -0.4389069E-04  0.0000000E+00  0.1459276E-03
 -0.5048636E-02  0.0000000E+00 -0.5050505E-02 -0.4079765E-04  0.0000000E+00  0.1289809E-03
 -0.5047442E-02  0.0000000E+00 -0.5050505E-02 -0.3817369E-04  0.0000000E+00  0.1130658E-03
 -0.5045727E-02  0.0000000E+00 -0.5050505E-02 -0.3588054E-04  0.0000000E+00  0.9808890E-04
 -0.5043261E-02  0.0000000E+00 -0.5050505E-02 -0.3383020E-04  0.0000000E+00  0.8396806E-04
 -0.5038714E-02  0.0000000E+00 -0.5050505E-02 -0.3196343E-04  0.0000000E+00  0.7063383E-04
 -0.5032318E-02  0.0000000E+00 -0.5050505E-02 -0.3023826E-04  0.0000000E+00  0.5802858E-04
 -0.5022454E-02  0.0000000E+00 -0.5050505E-02 -0.2862393E-04  0.0000000E+00  0.4610515E-04
 -0.5012589E-02  0.0000000E+00 -0.5050505E-02 -0.2709754E-04  0.0000000E+00  0.3482506E-04
 -0.5002725E-02  0.0000000E+00 -0.5050505E-02 -0.2564205E-04  0.0000000E+00  0.2415685E-04
 -0.4992860E-02  0.0000000E+00 -0.5050505E-02 -0.2424476E-04  0.0000000E+00  0.1407446E-04
 -0.4976523E-02  0.0000000E+00 -0.5050505E-02 -0.2289632E-04  0.0000000E+00  0.4556103E-05
 -0.4956794E-02  0.0000000E+00 -0.5050505E-02 -0.2158859E-04  0.0000000E+00 -0.4409849E-05
 -0.4937066E-02  0.0000000E+00 -0.5050505E-02 -0.2031770E-04  0.0000000E+00 -0.1284887E-04
 -0.4906239E-02  0.0000000E+00 -0.5050505E-02 -0.1908160E-04  0.0000000E+00 -0.2079087E-04
 -0.4866782E-02  0.0000000E+00 -0.5050505E-02 -0.1787739E-04  0.0000000E+00 -0.2824762E-04
 -0.4827325E-02  0.0000000E+00 -0.5050505E-02 -0.1670284E-04  0.0000000E+00 -0.3522999E-04
 -0.4769372E-02  0.0000000E+00 -0.5050505E-02 -0.1555621E-04  0.0000000E+00 -0.4174826E-04
 -0.4690458E-02  0.0000000E+00 -0.5050505E-02 -0.1443613E-04  0.0000000E+00 -0.4781224E-04
 -0.4611543E-02  0.0000000E+00 -0.5050505E-02 -0.1334148E-04  0.0000000E+00 -0.5343133E-04
 -0.4503035E-02  0.0000000E+00 -0.5050505E-02 -0.1227138E-04  0.0000000E+00 -0.5861459E-04
 -0.4345206E-02  0.0000000E+00 -0.5050505E-02 -0.1122525E-04  0.0000000E+00 -0.6337074E-04
 -0.4187378E-02  0.0000000E+00 -0.5050505E-02 -0.1020296E-04  0.0000000E+00 -0.6770817E-04
 -0.3985156E-02  0.0000000E+00 -0.5050505E-02 -0.9205070E-05  0.0000000E+00 -0.7163494E-04
 -0.3669499E-02  0.0000000E+00 -0.5050505E-02 -0.8233395E-05  0.0000000E+00 -0.7515865E-04
 -0.3353842E-02  0.0000000E+00 -0.5050505E-02 -0.7291951E-05  0.0000000E+00 -0.7828608E-04
 -0.2978990E-02  0.0000000E+00 -0.5050505E-02 -0.6388706E-05  0.0000000E+00 -0.8102207E-04
 -0.2347676E-02  0.0000000E+00 -0.5050505E-02 -0.5538724E-05  0.0000000E+00 -0.8336621E-04
 -0.1716362E-02  0.0000000E+00 -0.5050505E-02 -0.4769307E-05  0.0000000E+00 -0.8530368E-04
 -0.1025842E-02  0.0000000E+00 -0.5050505E-02 -0.4125926E-05  0.0000000E+00 -0.8678092E-04
  0.2367855E-03  0.0000000E+00 -0.5050505E-02 -0.3665591E-05  0.0000000E+00 -0.8764867E-04
  0.1499413E-02  0.0000000E+00 -0.5050505E-02 -0.3363236E-05  0.0000000E+00 -0.8757367E-04
  0.5287294E-02  0.0000000E+00 -0.5050505E-02 -0.2573688E-05  0.0000000E+00 -0.8621876E-04
 -0.5050505E-02  0.0000000E+00 -0.5050505E-02  0.1927524E-06  0.0000000E+00 -0.1733230E-03
 -0.5050505E-02  0.0000000E+00 -0.5050505E-02  0.5784762E-06  0.0000000E+00 -0.1732094E-03
 -0.5050505E-02  0.0000000E+00 -0.5050505E-02  0.9648607E-06  0.0000000E+00 -0.1729820E-03
 -0.5050505E-02  0.0000000E+00 -0.5050505E-02  0.1352354E-05  0.0000000E+00 -0.1726407E-03
 -0.5050505E-02  0.0000000E+00 -0.5050505E-02  0.1741412E-05  0.0000000E+00 -0.1721850E-03
 -0.5050505E-02  0.0000000E+00 -0.5050505E-02  0.2132506E-05  0.0000000E+00 -0.1716145E-03
 -0.5050504E-02  0.0000000E+00 -0.5050505E-02  0.2526120E-05  0.0000000E+00 -0.1709285E-03
 -0.5050501E-02  0.0000000E+00 -0.5050505E-02  0.2922759E-05  0.0000000E+00 -0.1701263E-03
 -0.5050495E-02  0.0000000E+00 -0.5050505E-02  0.3322949E-05  0.0000000E+00 -0.1692069E-03
 -0.5050482E-02  0.0000000E+00 -0.5050505E-02  0.3727244E-05  0.0000000E+00 -0.1681693E-03
 -0.5050449E-02  0.0000000E+00 -0.5050505E-02  0.4136232E-05  0.0000000E+00 -0.1670122E-03
 -0.5050376E-02  0.0000000E+00 -0.5050505E-02  0.4550536E-05  0.0000000E+00 -0.1657344E-03
 -0.5050299E-02  0.0000000E+00 -0.5050505E-02  0.4970821E-05  0.0000000E+00 -0.1643341E-03
 -0.5050178E-02  0.0000000E+00 -0.5050505E-02  0.5397806E-05  0.0000000E+00 -0.1628096E-03
 -0.5050018E-02  0.0000000E+00 -0.5050505E-02  0.5832264E-05  0.0000000E+00 -0.1611591E-03
 -0.5049710E-02  0.0000000E+00 -0.5050505E-02  0.6275033E-05  0.0000000E+00 -0.1593802E-03
 -0.5049253E-02  0.0000000E+00 -0.5050505E-02  0.6727027E-05  0.0000000E+00 -0.1574706E-03
 -0.5048636E-02  0.0000000E+00 -0.5050505E-02  0.7189247E-05  0.0000000E+00 -0.1554275E-03
 -0.5047442E-02  0.0000000E+00 -0.5050505E-02  0.7662789E-05  0.0000000E+00 -0.1532480E-03
 -0.5045727E-02  0.0000000E+00 -0.5050505E-02  0.8148863E-05  0.0000000E+00 -0.1509287E-03
 -0.5043261E-02  0.0000000E+00 -0.5050505E-02  0.8648806E-05  0.0000000E+00 -0.1484661E-03
 -0.5038714E-02  0.0000000E+00 -0.5050505E-02  0.9164099E-05  0.0000000E+00 -0.1458560E-03
 -0.5032318E-02  0.0000000E+00 -0.5050505E-02  0.9696388E-05  0.0000000E+00 -0.1430941E-03
 -0.5022454E-02  0.0000000E+00 -0.5050505E-02  0.1024751E-04  0.0000000E+00 -0.1401754E-03
 -0.5012589E-02  0.0000000E+00 -0.5050505E-02  0.1081952E-04  0.0000000E+00 -0.1370944E-03
 -0.5002725E-02  0.0000000E+00 -0.5050505E-02  0.1141471E-04  0.0000000E+00 -0.1338451E-03
 -0.4992860E-02  0.0000000E+00 -0.5050505E-02  0.1203565E-04  0.0000000E+00 -0.1304207E-03
 -0.4976523E-02  0.0000000E+00 -0.5050505E-02  0.1268525E-04  0.0000000E+00 -0.1268137E-03
 -0.4956794E-02  0.0000000E+00 -0.5050505E-02  0.1336676E-04  0.0000000E+00 -0.1230160E-03
 -0.4937066E-02  0.0000000E+00 -0.5050505E-02  0.1408386E-04  0.0000000E+00 -0.1190182E-03