title = "dataset feddes"
variables = "x", "y", "z", "vx", "vy", "vz"
zone t = "velocities, solution time =  8.000E+00 days        " i =   99, j =   99, k =    1,  f=point
 -0.5050505E-02  0.0000000E+00 -0.5050505E-02 -0.2275487E-11  0.0000000E+00 -0.7485410E-03
 -0.5050505E-02  0.0000000E+00 -0.5050505E-02 -0.7103997E-11  0.0000000E+00 -0.7485410E-03
 -0.5050505E-02  0.0000000E+00 -0.5050505E-02 -0.1132914E-10  0.0000000E+00 -0.7485410E-03
 -0.5050505E-02  0.0000000E+00 -0.5050505E-02 -0.1409370E-10  0.0000000E+00 -0.7485410E-03
 -0.5050505E-02  0.0000000E+00 -0.5050505E-02 -0.1997284E-10  0.0000000E+00 -0.7485411E-03
 -0.5050505E-02  0.0000000E+00 -0.5050505E-02 -0.2532708E-10  0.0000000E+00 -0.7485411E-03
 -0.5050504E-02  0.0000000E+00 -0.5050505E-02 -0.2978396E-10  0.0000000E+00 -0.7485412E-03
 -0.5050501E-02  0.0000000E+00 -0.5050505E-02 -0.3438883E-10  0.0000000E+00 -0.7485413E-03
 -0.5050495E-02  0.0000000E+00 -0.5050505E-02 -0.3961580E-10  0.0000000E+00 -0.7485413E-03
 -0.5050482E-02  0.0000000E+00 -0.5050505E-02 -0.4535690E-10  0.0000000E+00 -0.7485414E-03
 -0.5050449E-02  0.0000000E+00 -0.5050505E-02 -0.5137045E-10  0.0000000E+00 -0.7485415E-03
 -0.5050376E-02  0.0000000E+00 -0.5050505E-02 -0.5751836E-10  0.0000000E+00 -0.7485416E-03
 -0.5050299E-02  0.0000000E+00 -0.5050505E-02 -0.6381193E-10  0.0000000E+00 -0.7485418E-03
 -0.5050178E-02  0.0000000E+00 -0.5050505E-02 -0.7031862E-10  0.0000000E+00 -0.7485419E-03
 -0.5050018E-02  0.0000000E+00 -0.5050505E-02 -0.7713324E-10  0.0000000E+00 -0.7485421E-03
 -0.5049710E-02  0.0000000E+00 -0.5050505E-02 -0.8433181E-10  0.0000000E+00 -0.7485423E-03
 -0.5049253E-02  0.0000000E+00 -0.5050505E-02 -0.9198068E-10  0.0000000E+00 -0.7485425E-03
 -0.5048636E-02  0.0000000E+00 -0.5050505E-02 -0.1001390E-09  0.0000000E+00 -0.7485427E-03
 -0.5047442E-02  0.0000000E+00 -0.5050505E-02 -0.1088615E-09  0.0000000E+00 -0.7485429E-03
 -0.5045727E-02  0.0000000E+00 -0.5050505E-02 -0.1182044E-09  0.0000000E+00 -0.7485431E-03
 -0.5043261E-02  0.0000000E+00 -0.5050505E-02 -0.1282232E-09  0.0000000E+00 -0.7485434E-03
 -0.5038714E-02  0.0000000E+00 -0.5050505E-02 -0.1389747E-09  0.0000000E+00 -0.7485437E-03
 -0.5032318E-02  0.0000000E+00 -0.5050505E-02 -0.1505174E-09  0.0000000E+00 -0.7485440E-03
 -0.5022454E-02  0.0000000E+00 -0.5050505E-02 -0.1629126E-09  0.0000000E+00 -0.7485443E-03
 -0.5012589E-02  0.0000000E+00 -0.5050505E-02 -0.1762255E-09  0.0000000E+00 -0.7485447E-03
 -0.5002725E-02  0.0000000E+00 -0.5050505E-02 -0.1905263E-09  0.0000000E+00 -0.7485451E-03
 -0.4992860E-02  0.0000000E+00 -0.5050505E-02 -0.2058903E-09  0.0000000E+00 -0.7485455E-03
 -0.4976523E-02  0.0000000E+00 -0.5050505E-02 -0.2223991E-09  0.0000000E+00 -0.7485460E-03
 -0.4956794E-02  0.0000000E+00 -0.5050505E-02 -0.2401408E-09  0.0000000E+00 -0.7485465E-03
 -0.4937066E-02  0.0000000E+00 -0.5050505E-02 -0.2592103E-09  0.0000000E+00 -0.7485471E-03
 -0.4906239E-02  0.0000000E+00 -0.5050505E-02 -0.2797098E-09  0.0000000E+00 -0.7485476E-03
 -0.4866782E-02  0.0000000E+00 -0.5050505E-02 -0.3017497E-09  0.0000000E+00 -0.7485483E-03
 -0.4827325E-02  0.0000000E+00 -0.5050505E-02 -0.3254488E-09  0.0000000E+00 -0.7485490E-03
 -0.4769372E-02  0.0000000E+00 -0.5050505E-02 -0.3509357E-09  0.0000000E+00 -0.7485497E-03
 -0.4690458E-02  0.0000000E+00 -0.5050505E-02 -0.3783493E-09  0.0000000E+00 -0.7485505E-03
 -0.4611543E-02  0.0000000E+00 -0.5050505E-02 -0.4078401E-09  0.0000000E+00 -0.7485513E-03
 -0.4503035E-02  0.0000000E+00 -0.5050505E-02 -0.4395713E-09  0.0000000E+00 -0.7485523E-03
 -0.4345206E-02  0.0000000E+00 -0.5050505E-02 -0.4737202E-09  0.0000000E+00 -0.7485533E-03
 -0.4187378E-02  0.0000000E+00 -0.5050505E-02 -0.5104795E-09  0.0000000E+00 -0.7485543E-03
 -0.3985156E-02  0.0000000E+00 -0.5050505E-02 -0.5500591E-09  0.0000000E+00 -0.7485555E-03
 -0.3669499E-02  0.0000000E+00 -0.5050505E-02 -0.5926881E-09  0.0000000E+00 -0.7485567E-03
 -0.3353842E-02  0.0000000E+00 -0.5050505E-02 -0.6386166E-09  0.0000000E+00 -0.7485581E-03
 -0.2978990E-02  0.0000000E+00 -0.5050505E-02 -0.6881185E-09  0.0000000E+00 -0.7485595E-03
 -0.2347676E-02  0.0000000E+00 -0.5050505E-02 -0.7414940E-09  0.0000000E+00 -0.7485611E-03
 -0.1716362E-02  0.0000000E+00 -0.5050505E-02 -0.7990728E-09  0.0000000E+00 -0.7485627E-03
 -0.1025842E-02  0.0000000E+00 -0.5050505E-02 -0.8612181E-09  0.0000000E+00 -0.7485645E-03
  0.2367855E-03  0.0000000E+00 -0.5050505E-02 -0.9283300E-09  0.0000000E+00 -0.7485665E-03
  0.1499413E-02  0.0000000E+00 -0.5050505E-02 -0.1000851E-08  0.0000000E+00 -0.7485686E-03
  0.2762042E-02  0.0000000E+00 -0.5050505E-02 -0.1079272E-08  0.0000000E+00 -0.7485708E-03
 -0.5050505E-02  0.0000000E+00 -0.5050505E-02 -0.1164137E-08  0.0000000E+00 -0.7485733E-03
 -0.5050505E-02  0.0000000E+00 -0.5050505E-02 -0.1256054E-08  0.0000000E+00 -0.7485759E-03
 -0.5050505E-02  0.0000000E+00 -0.5050505E-02 -0.1355699E-08  0.0000000E+00 -0.7485787E-03
 -0.5050505E-02  0.0000000E+00 -0.5050505E-02 -0.1463831E-08  0.0000000E+00 -0.7485818E-03
 -0.5050505E-02  0.0000000E+00 -0.5050505E-02 -0.1581303E-08  0.0000000E+00 -0.7485851E-03
 -0.5050505E-02  0.0000000E+00 -0.5050505E-02 -0.1709075E-08  0.0000000E+00 -0.7485887E-03
 -0.5050505E-02  0.0000000E+00 -0.5050505E-02 -0.1848233E-08  0.0000000E+00 -0.7485926E-03
 -0.5050504E-02  0.0000000E+00 -0.5050505E-02 -0.2000009E-08  0.0000000E+00 -0.7485967E-03
 -0.5050501E-02  0.0000000E+00 -0.5050505E-02 -0.2165805E-08  0.0000000E+00 -0.7486013E-03
 -0.5050495E-02  0.0000000E+00 -0.5050505E-02 -0.2347226E-08  0.0000000E+00 -0.7486062E-03
 -0.5050482E-02  0.0000000E+00 -0.5050505E-02 -0.2546109E-08  0.0000000E+00 -0.7486115E-03
 -0.5050449E-02  0.0000000E+00 -0.5050505E-02 -0.2764574E-08  0.0000000E+00 -0.7486173E-03
 -0.5050376E-02  0.0000000E+00 -0.5050505E-02 -0.3005072E-08  0.0000000E+00 -0.7486235E-03
 -0.5050299E-02  0.0000000E+00 -0.5050505E-02 -0.3270451E-08  0.0000000E+00 -0.7486304E-03
 -0.5050178E-02  0.0000000E+00 -0.5050505E-02 -0.3564037E-08  0.0000000E+00 -0.7486378E-03
 -0.5050018E-02  0.0000000E+00 -0.5050505E-02 -0.3889732E-08  0.0000000E+00 -0.7486459E-03
 -0.5049710E-02  0.0000000E+00 -0.5050505E-02 -0.4252134E-08  0.0000000E+00 -0.7486547E-03
 -0.5049253E-02  0.0000000E+00 -0.5050505E-02 -0.4656697E-08  0.0000000E+00 -0.7486644E-03
 -0.5048636E-02  0.0000000E+00 -0.5050505E-02 -0.5109921E-08  0.0000000E+00 -0.7486750E-03
 -0.5047442E-02  0.0000000E+00 -0.5050505E-02 -0.5619597E-08  0.0000000E+00 -0.7486867E-03
 -0.5045727E-02  0.0000000E+00 -0.5050505E-02 -0.6195129E-08  0.0000000E+00 -0.7486995E-03
 -0.5043261E-02  0.0000000E+00 -0.5050505E-02 -0.6847933E-08  0.0000000E+00 -0.7487137E-03
 -0.5038714E-02  0.0000000E+00 -0.5050505E-02 -0.7591973E-08  0.0000000E+00 -0.7487294E-03
 -0.5032318E-02  0.0000000E+00 -0.5050505E-02 -0.8444446E-08  0.0000000E+00 -0.7487468E-03
 -0.5022454E-02  0.0000000E+00 -0.5050505E-02 -0.9426710E-08  0.0000000E+00 -0.7487663E-03
 -0.5012589E-02  0.0000000E+00 -0.5050505E-02 -0.1056550E-07  0.0000000E+00 -0.7487880E-03
 -0.5002725E-02  0.0000000E+00 -0.5050505E-02 -0.1189461E-07  0.0000000E+00 -0.7488124E-03
 -0.4992860E-02  0.0000000E+00 -0.5050505E-02 -0.1345715E-07  0.0000000E+00 -0.7488400E-03
 -0.4976523E-02  0.0000000E+00 -0.5050505E-02 -0.1530869E-07  0.0000000E+00 -0.7488712E-03
 -0.4956794E-02  0.0000000E+00 -0.5050505E-02 -0.1752176E-07  0.0000000E+00 -0.7489069E-03
 -0.4937066E-02  0.0000000E+00 -0.5050505E-02 -0.2019213E-07  0.0000000E+00 -0.7489479E-03
 -0.4906239E-02  0.0000000E+00 -0.5050505E-02 -0.2344804E-07  0.0000000E+00 -0.7489953E-03
 -0.4866782E-02  0.0000000E+00 -0.5050505E-02 -0.2746389E-07  0.0000000E+00 -0.7490507E-03
 -0.4827325E-02  0.0000000E+00 -0.5050505E-02 -0.3248081E-07  0.0000000E+00 -0.7491158E-03
 -0.4769372E-02  0.0000000E+00 -0.5050505E-02 -0.3883853E-07  0.0000000E+00 -0.7491933E-03
 -0.4690458E-02  0.0000000E+00 -0.5050505E-02 -0.4702592E-07  0.0000000E+00 -0.7492867E-03
 -0.4611543E-02  0.0000000E+00 -0.5050505E-02 -0.5776334E-07  0.0000000E+00 -0.7494006E-03
 -0.4503035E-02  0.0000000E+00 -0.5050505E-02 -0.7214143E-07  0.0000000E+00 -0.7495418E-03
 -0.4345206E-02  0.0000000E+00 -0.5050505E-02 -0.9186362E-07  0.0000000E+00 -0.7497200E-03
 -0.4187378E-02  0.0000000E+00 -0.5050505E-02 -0.1196881E-06  0.0000000E+00 -0.7499500E-03
 -0.3985156E-02  0.0000000E+00 -0.5050505E-02 -0.1602739E-06  0.0000000E+00 -0.7502543E-03
 -0.3669499E-02  0.0000000E+00 -0.5050505E-02 -0.2218938E-06  0.0000000E+00 -0.7506698E-03
 -0.3353842E-02  0.0000000E+00 -0.5050505E-02 -0.3201407E-06  0.0000000E+00 -0.7512590E-03
 -0.2978990E-02  0.0000000E+00 -0.5050505E-02 -0.4865818E-06  0.0000000E+00 -0.7521361E-03
 -0.2347676E-02  0.0000000E+00 -0.5050505E-02 -0.7907968E-06  0.0000000E+00 -0.7535249E-03
 -0.1716362E-02  0.0000000E+00 -0.5050505E-02 -0.1402108E-05  0.0000000E+00 -0.7559096E-03
 -0.1025842E-02  0.0000000E+00 -0.5050505E-02 -0.2780574E-05  0.0000000E+00 -0.7604591E-03
  0.2367855E-03  0.0000000E+00 -0.5050505E-02 -0.6328565E-05  0.0000000E+00 -0.7703724E-03
  0.1499413E-02  0.0000000E+00 -0.5050505E-02 -0.1682263E-04  0.0000000E+00 -0.7955958E-03
  0.5287294E-02  0.0000000E+00 -0.5050505E-02 -0.2787519E-03  0.0000000E+00 -0.6332576E-03
 -0.5050505E-02  0.0000000E+00 -0.5050505E-02 -0.6566111E-11  0.0000000E+00 -0.7470022E-03
 -0.5050505E-02  0.0000000E+00 -0.5050505E-02 -0.2070376E-10  0.0000000E+00 -0.7470022E-03
 -0.5050505E-02  0.0000000E+00 -0.5050505E-02 -0.3401267E-10  0.0000000E+00 -0.7470023E-03
 -0.5050505E-02  0.0000000E+00 -0.5050505E-02 -0.4290012E-10  0.0000000E+00 -0.7470023E-03
 -0.5050505E-02  0.0000000E+00 -0.5050505E-02 -0.5984104E-10  0.0000000E+00 -0.7470023E-03
 -0.5050505E-02  0.0000000E+00 -0.5050505E-02 -0.7565649E-10  0.0000000E+00 -0.7470024E-03
 -0.5050504E-02  0.0000000E+00 -0.5050505E-02 -0.8925623E-10  0.0000000E+00 -0.7470024E-03
 -0.5050501E-02  0.0000000E+00 -0.5050505E-02 -0.1032819E-09  0.0000000E+00 -0.7470025E-03
 -0.5050495E-02  0.0000000E+00 -0.5050505E-02 -0.1190082E-09  0.0000000E+00 -0.7470026E-03
 -0.5050482E-02  0.0000000E+00 -0.5050505E-02 -0.1361815E-09  0.0000000E+00 -0.7470027E-03
 -0.5050449E-02  0.0000000E+00 -0.5050505E-02 -0.1541692E-09  0.0000000E+00 -0.7470028E-03
 -0.5050376E-02  0.0000000E+00 -0.5050505E-02 -0.1725891E-09  0.0000000E+00 -0.7470029E-03
 -0.5050299E-02  0.0000000E+00 -0.5050505E-02 -0.1914710E-09  0.0000000E+00 -0.7470030E-03
 -0.5050178E-02  0.0000000E+00 -0.5050505E-02 -0.2110045E-09  0.0000000E+00 -0.7470032E-03
 -0.5050018E-02  0.0000000E+00 -0.5050505E-02 -0.2314611E-09  0.0000000E+00 -0.7470033E-03
 -0.5049710E-02  0.0000000E+00 -0.5050505E-02 -0.2530678E-09  0.0000000E+00 -0.7470035E-03
 -0.5049253E-02  0.0000000E+00 -0.5050505E-02 -0.2760225E-09  0.0000000E+00 -0.7470037E-03
 -0.5048636E-02  0.0000000E+00 -0.5050505E-02 -0.3005039E-09  0.0000000E+00 -0.7470039E-03
 -0.5047442E-02  0.0000000E+00 -0.5050505E-02 -0.3266773E-09  0.0000000E+00 -0.7470041E-03
 -0.5045727E-02  0.0000000E+00 -0.5050505E-02 -0.3547108E-09  0.0000000E+00 -0.7470044E-03
 -0.5043261E-02  0.0000000E+00 -0.5050505E-02 -0.3847713E-09  0.0000000E+00 -0.7470047E-03
 -0.5038714E-02  0.0000000E+00 -0.5050505E-02 -0.4170289E-09  0.0000000E+00 -0.7470049E-03
 -0.5032318E-02  0.0000000E+00 -0.5050505E-02 -0.4516593E-09  0.0000000E+00 -0.7470053E-03
 -0.5022454E-02  0.0000000E+00 -0.5050505E-02 -0.4888465E-09  0.0000000E+00 -0.7470056E-03
 -0.5012589E-02  0.0000000E+00 -0.5050505E-02 -0.5287859E-09  0.0000000E+00 -0.7470060E-03
 -0.5002725E-02  0.0000000E+00 -0.5050505E-02 -0.5716875E-09  0.0000000E+00 -0.7470064E-03
 -0.4992860E-02  0.0000000E+00 -0.5050505E-02 -0.6177776E-09  0.0000000E+00 -0.7470068E-03
 -0.4976523E-02  0.0000000E+00 -0.5050505E-02 -0.6673005E-09  0.0000000E+00 -0.7470073E-03
 -0.4956794E-02  0.0000000E+00 -0.5050505E-02 -0.7205198E-09  0.0000000E+00 -0.7470078E-03
 -0.4937066E-02  0.0000000E+00 -0.5050505E-02 -0.7777199E-09  0.0000000E+00 -0.7470083E-03
 -0.4906239E-02  0.0000000E+00 -0.5050505E-02 -0.8392070E-09  0.0000000E+00 -0.7470089E-03
 -0.4866782E-02  0.0000000E+00 -0.5050505E-02 -0.9053112E-09  0.0000000E+00 -0.7470095E-03
 -0.4827325E-02  0.0000000E+00 -0.5050505E-02 -0.9763889E-09  0.0000000E+00 -0.7470102E-03
 -0.4769372E-02  0.0000000E+00 -0.5050505E-02 -0.1052825E-08  0.0000000E+00 -0.7470109E-03
 -0.4690458E-02  0.0000000E+00 -0.5050505E-02 -0.1135035E-08  0.0000000E+00 -0.7470117E-03
 -0.4611543E-02  0.0000000E+00 -0.5050505E-02 -0.1223469E-08  0.0000000E+00 -0.7470126E-03
 -0.4503035E-02  0.0000000E+00 -0.5050505E-02 -0.1318617E-08  0.0000000E+00 -0.7470135E-03
 -0.4345206E-02  0.0000000E+00 -0.5050505E-02 -0.1421007E-08  0.0000000E+00 -0.7470145E-03
 -0.4187378E-02  0.0000000E+00 -0.5050505E-02 -0.1531219E-08  0.0000000E+00 -0.7470155E-03
 -0.3985156E-02  0.0000000E+00 -0.5050505E-02 -0.1649878E-08  0.0000000E+00 -0.7470167E-03
 -0.3669499E-02  0.0000000E+00 -0.5050505E-02 -0.1777671E-08  0.0000000E+00 -0.7470179E-03
 -0.3353842E-02  0.0000000E+00 -0.5050505E-02 -0.1915346E-08  0.0000000E+00 -0.7470193E-03
 -0.2978990E-02  0.0000000E+00 -0.5050505E-02 -0.2063722E-08  0.0000000E+00 -0.7470207E-03
 -0.2347676E-02  0.0000000E+00 -0.5050505E-02 -0.2223696E-08  0.0000000E+00 -0.7470222E-03
 -0.1716362E-02  0.0000000E+00 -0.5050505E-02 -0.2396254E-08  0.0000000E+00 -0.7470239E-03
 -0.1025842E-02  0.0000000E+00 -0.5050505E-02 -0.2582483E-08  0.0000000E+00 -0.7470257E-03
  0.2367855E-03  0.0000000E+00 -0.5050505E-02 -0.2783577E-08  0.0000000E+00 -0.7470276E-03
  0.1499413E-02  0.0000000E+00 -0.5050505E-02 -0.3000860E-08  0.0000000E+00 -0.7470297E-03
  0.2762042E-02  0.0000000E+00 -0.5050505E-02 -0.3235797E-08  0.0000000E+00 -0.7470320E-03
 -0.5050505E-02  0.0000000E+00 -0.5050505E-02 -0.3490015E-08  0.0000000E+00 -0.7470344E-03
 -0.5050505E-02  0.0000000E+00 -0.5050505E-02 -0.3765326E-08  0.0000000E+00 -0.7470370E-03
 -0.5050505E-02  0.0000000E+00 -0.5050505E-02 -0.4063753E-08  0.0000000E+00 -0.7470398E-03
 -0.5050505E-02  0.0000000E+00 -0.5050505E-02 -0.4387560E-08  0.0000000E+00 -0.7470429E-03
 -0.5050505E-02  0.0000000E+00 -0.5050505E-02 -0.4739292E-08  0.0000000E+00 -0.7470462E-03
 -0.5050505E-02  0.0000000E+00 -0.5050505E-02 -0.5121814E-08  0.0000000E+00 -0.7470497E-03
 -0.5050505E-02  0.0000000E+00 -0.5050505E-02 -0.5538366E-08  0.0000000E+00 -0.7470536E-03
 -0.5050504E-02  0.0000000E+00 -0.5050505E-02 -0.5992620E-08  0.0000000E+00 -0.7470577E-03
 -0.5050501E-02  0.0000000E+00 -0.5050505E-02 -0.6488758E-08  0.0000000E+00 -0.7470622E-03
 -0.5050495E-02  0.0000000E+00 -0.5050505E-02 -0.7031558E-08  0.0000000E+00 -0.7470671E-03
 -0.5050482E-02  0.0000000E+00 -0.5050505E-02 -0.7626497E-08  0.0000000E+00 -0.7470724E-03
 -0.5050449E-02  0.0000000E+00 -0.5050505E-02 -0.8279884E-08  0.0000000E+00 -0.7470781E-03
 -0.5050376E-02  0.0000000E+00 -0.5050505E-02 -0.8999015E-08  0.0000000E+00 -0.7470843E-03
 -0.5050299E-02  0.0000000E+00 -0.5050505E-02 -0.9792365E-08  0.0000000E+00 -0.7470911E-03
 -0.5050178E-02  0.0000000E+00 -0.5050505E-02 -0.1066982E-07  0.0000000E+00 -0.7470984E-03
 -0.5050018E-02  0.0000000E+00 -0.5050505E-02 -0.1164298E-07  0.0000000E+00 -0.7471065E-03
 -0.5049710E-02  0.0000000E+00 -0.5050505E-02 -0.1272549E-07  0.0000000E+00 -0.7471152E-03
 -0.5049253E-02  0.0000000E+00 -0.5050505E-02 -0.1393356E-07  0.0000000E+00 -0.7471248E-03
 -0.5048636E-02  0.0000000E+00 -0.5050505E-02 -0.1528645E-07  0.0000000E+00 -0.7471353E-03
 -0.5047442E-02  0.0000000E+00 -0.5050505E-02 -0.1680726E-07  0.0000000E+00 -0.7471468E-03
 -0.5045727E-02  0.0000000E+00 -0.5050505E-02 -0.1852383E-07  0.0000000E+00 -0.7471595E-03
 -0.5043261E-02  0.0000000E+00 -0.5050505E-02 -0.2046994E-07  0.0000000E+00 -0.7471735E-03
 -0.5038714E-02  0.0000000E+00 -0.5050505E-02 -0.2268686E-07  0.0000000E+00 -0.7471889E-03
 -0.5032318E-02  0.0000000E+00 -0.5050505E-02 -0.2522535E-07  0.0000000E+00 -0.7472061E-03
 -0.5022454E-02  0.0000000E+00 -0.5050505E-02 -0.2814839E-07  0.0000000E+00 -0.7472252E-03
 -0.5012589E-02  0.0000000E+00 -0.5050505E-02 -0.3153468E-07  0.0000000E+00 -0.7472465E-03
 -0.5002725E-02  0.0000000E+00 -0.5050505E-02 -0.3548353E-07  0.0000000E+00 -0.7472705E-03
 -0.4992860E-02  0.0000000E+00 -0.5050505E-02 -0.4012142E-07  0.0000000E+00 -0.7472974E-03
 -0.4976523E-02  0.0000000E+00 -0.5050505E-02 -0.4561109E-07  0.0000000E+00 -0.7473280E-03
 -0.4956794E-02  0.0000000E+00 -0.5050505E-02 -0.5216429E-07  0.0000000E+00 -0.7473628E-03
 -0.4937066E-02  0.0000000E+00 -0.5050505E-02 -0.6005999E-07  0.0000000E+00 -0.7474026E-03
 -0.4906239E-02  0.0000000E+00 -0.5050505E-02 -0.6967051E-07  0.0000000E+00 -0.7474486E-03
 -0.4866782E-02  0.0000000E+00 -0.5050505E-02 -0.8150025E-07  0.0000000E+00 -0.7475021E-03
 -0.4827325E-02  0.0000000E+00 -0.5050505E-02 -0.9624352E-07  0.0000000E+00 -0.7475648E-03
 -0.4769372E-02  0.0000000E+00 -0.5050505E-02 -0.1148734E-06  0.0000000E+00 -0.7476390E-03
 -0.4690458E-02  0.0000000E+00 -0.5050505E-02 -0.1387811E-06  0.0000000E+00 -0.7477277E-03
 -0.4611543E-02  0.0000000E+00 -0.5050505E-02 -0.1700006E-06  0.0000000E+00 -0.7478352E-03
 -0.4503035E-02  0.0000000E+00 -0.5050505E-02 -0.2115816E-06  0.0000000E+00 -0.7479671E-03
 -0.4345206E-02  0.0000000E+00 -0.5050505E-02 -0.2682286E-06  0.0000000E+00 -0.7481316E-03
 -0.4187378E-02  0.0000000E+00 -0.5050505E-02 -0.3474396E-06  0.0000000E+00 -0.7483402E-03
 -0.3985156E-02  0.0000000E+00 -0.5050505E-02 -0.4616167E-06  0.0000000E+00 -0.7486102E-03
 -0.3669499E-02  0.0000000E+00 -0.5050505E-02 -0.6321692E-06  0.0000000E+00 -0.7489671E-03
 -0.3353842E-02  0.0000000E+00 -0.5050505E-02 -0.8979106E-06  0.0000000E+00 -0.7494504E-03
 -0.2978990E-02  0.0000000E+00 -0.5050505E-02 -0.1333248E-05  0.0000000E+00 -0.7501199E-03
 -0.2347676E-02  0.0000000E+00 -0.5050505E-02 -0.2090056E-05  0.0000000E+00 -0.7510613E-03
 -0.1716362E-02  0.0000000E+00 -0.5050505E-02 -0.3500321E-05  0.0000000E+00 -0.7523672E-03
 -0.1025842E-02  0.0000000E+00 -0.5050505E-02 -0.6343785E-05  0.0000000E+00 -0.7539717E-03
  0.2367855E-03  0.0000000E+00 -0.5050505E-02 -0.1258616E-04  0.0000000E+00 -0.7547508E-03
  0.1499413E-02  0.0000000E+00 -0.5050505E-02 -0.2751039E-04  0.0000000E+00 -0.7480798E-03
  0.5287294E-02  0.0000000E+00 -0.5050505E-02 -0.6605086E-04  0.0000000E+00 -0.7005256E-03
 -0.5050505E-02  0.0000000E+00 -0.5050505E-02 -0.1152253E-10  0.0000000E+00 -0.7440622E-03
 -0.5050505E-02  0.0000000E+00 -0.5050505E-02 -0.3366111E-10  0.0000000E+00 -0.7440622E-03
 -0.5050505E-02  0.0000000E+00 -0.5050505E-02 -0.5649930E-10  0.0000000E+00 -0.7440622E-03
 -0.5050505E-02  0.0000000E+00 -0.5050505E-02 -0.7230807E-10  0.0000000E+00 -0.7440623E-03
 -0.5050505E-02  0.0000000E+00 -0.5050505E-02 -0.9950459E-10  0.0000000E+00 -0.7440623E-03
 -0.5050505E-02  0.0000000E+00 -0.5050505E-02 -0.1254860E-09  0.0000000E+00 -0.7440624E-03
 -0.5050504E-02  0.0000000E+00 -0.5050505E-02 -0.1485321E-09  0.0000000E+00 -0.7440624E-03
 -0.5050501E-02  0.0000000E+00 -0.5050505E-02 -0.1722468E-09  0.0000000E+00 -0.7440625E-03
 -0.5050495E-02  0.0000000E+00 -0.5050505E-02 -0.1985083E-09  0.0000000E+00 -0.7440626E-03
 -0.5050482E-02  0.0000000E+00 -0.5050505E-02 -0.2270148E-09  0.0000000E+00 -0.7440627E-03
 -0.5050449E-02  0.0000000E+00 -0.5050505E-02 -0.2568791E-09  0.0000000E+00 -0.7440628E-03
 -0.5050376E-02  0.0000000E+00 -0.5050505E-02 -0.2875237E-09  0.0000000E+00 -0.7440629E-03
 -0.5050299E-02  0.0000000E+00 -0.5050505E-02 -0.3189844E-09  0.0000000E+00 -0.7440630E-03
 -0.5050178E-02  0.0000000E+00 -0.5050505E-02 -0.3515533E-09  0.0000000E+00 -0.7440632E-03
 -0.5050018E-02  0.0000000E+00 -0.5050505E-02 -0.3856550E-09  0.0000000E+00 -0.7440633E-03
 -0.5049710E-02  0.0000000E+00 -0.5050505E-02 -0.4216656E-09  0.0000000E+00 -0.7440635E-03
 -0.5049253E-02  0.0000000E+00 -0.5050505E-02 -0.4599143E-09  0.0000000E+00 -0.7440637E-03
 -0.5048636E-02  0.0000000E+00 -0.5050505E-02 -0.5007011E-09  0.0000000E+00 -0.7440639E-03
 -0.5047442E-02  0.0000000E+00 -0.5050505E-02 -0.5443038E-09  0.0000000E+00 -0.7440641E-03
 -0.5045727E-02  0.0000000E+00 -0.5050505E-02 -0.5910017E-09  0.0000000E+00 -0.7440644E-03
 -0.5043261E-02  0.0000000E+00 -0.5050505E-02 -0.6410731E-09  0.0000000E+00 -0.7440646E-03
 -0.5038714E-02  0.0000000E+00 -0.5050505E-02 -0.6948011E-09  0.0000000E+00 -0.7440649E-03
 -0.5032318E-02  0.0000000E+00 -0.5050505E-02 -0.7524779E-09  0.0000000E+00 -0.7440652E-03
 -0.5022454E-02  0.0000000E+00 -0.5050505E-02 -0.8144096E-09  0.0000000E+00 -0.7440656E-03
 -0.5012589E-02  0.0000000E+00 -0.5050505E-02 -0.8809216E-09  0.0000000E+00 -0.7440659E-03
 -0.5002725E-02  0.0000000E+00 -0.5050505E-02 -0.9523628E-09  0.0000000E+00 -0.7440663E-03
 -0.4992860E-02  0.0000000E+00 -0.5050505E-02 -0.1029109E-08  0.0000000E+00 -0.7440668E-03
 -0.4976523E-02  0.0000000E+00 -0.5050505E-02 -0.1111567E-08  0.0000000E+00 -0.7440672E-03
 -0.4956794E-02  0.0000000E+00 -0.5050505E-02 -0.1200173E-08  0.0000000E+00 -0.7440677E-03
 -0.4937066E-02  0.0000000E+00 -0.5050505E-02 -0.1295400E-08  0.0000000E+00 -0.7440683E-03
 -0.4906239E-02  0.0000000E+00 -0.5050505E-02 -0.1397755E-08  0.0000000E+00 -0.7440688E-03
 -0.4866782E-02  0.0000000E+00 -0.5050505E-02 -0.1507787E-08  0.0000000E+00 -0.7440695E-03
 -0.4827325E-02  0.0000000E+00 -0.5050505E-02 -0.1626087E-08  0.0000000E+00 -0.7440701E-03
 -0.4769372E-02  0.0000000E+00 -0.5050505E-02 -0.1753293E-08  0.0000000E+00 -0.7440709E-03
 -0.4690458E-02  0.0000000E+00 -0.5050505E-02 -0.1890094E-08  0.0000000E+00 -0.7440716E-03
 -0.4611543E-02  0.0000000E+00 -0.5050505E-02 -0.2037238E-08  0.0000000E+00 -0.7440725E-03
 -0.4503035E-02  0.0000000E+00 -0.5050505E-02 -0.2195535E-08  0.0000000E+00 -0.7440734E-03
 -0.4345206E-02  0.0000000E+00 -0.5050505E-02 -0.2365863E-08  0.0000000E+00 -0.7440744E-03
 -0.4187378E-02  0.0000000E+00 -0.5050505E-02 -0.2549177E-08  0.0000000E+00 -0.7440754E-03
 -0.3985156E-02  0.0000000E+00 -0.5050505E-02 -0.2746520E-08  0.0000000E+00 -0.7440766E-03
 -0.3669499E-02  0.0000000E+00 -0.5050505E-02 -0.2959024E-08  0.0000000E+00 -0.7440778E-03
 -0.3353842E-02  0.0000000E+00 -0.5050505E-02 -0.3187929E-08  0.0000000E+00 -0.7440791E-03
 -0.2978990E-02  0.0000000E+00 -0.5050505E-02 -0.3434591E-08  0.0000000E+00 -0.7440806E-03
 -0.2347676E-02  0.0000000E+00 -0.5050505E-02 -0.3700495E-08  0.0000000E+00 -0.7440821E-03
 -0.1716362E-02  0.0000000E+00 -0.5050505E-02 -0.3987272E-08  0.0000000E+00 -0.7440837E-03
 -0.1025842E-02  0.0000000E+00 -0.5050505E-02 -0.4296715E-08  0.0000000E+00 -0.7440855E-03
  0.2367855E-03  0.0000000E+00 -0.5050505E-02 -0.4630804E-08  0.0000000E+00 -0.7440874E-03
  0.1499413E-02  0.0000000E+00 -0.5050505E-02 -0.4991723E-08  0.0000000E+00 -0.7440895E-03
  0.2762042E-02  0.0000000E+00 -0.5050505E-02 -0.5381892E-08  0.0000000E+00 -0.7440917E-03
 -0.5050505E-02  0.0000000E+00 -0.5050505E-02 -0.5803999E-08  0.0000000E+00 -0.7440941E-03
 -0.5050505E-02  0.0000000E+00 -0.5050505E-02 -0.6261034E-08  0.0000000E+00 -0.7440967E-03
 -0.5050505E-02  0.0000000E+00 -0.5050505E-02 -0.6756333E-08  0.0000000E+00 -0.7440995E-03
 -0.5050505E-02  0.0000000E+00 -0.5050505E-02 -0.7293632E-08  0.0000000E+00 -0.7441025E-03
 -0.5050505E-02  0.0000000E+00 -0.5050505E-02 -0.7877123E-08  0.0000000E+00 -0.7441058E-03
 -0.5050505E-02  0.0000000E+00 -0.5050505E-02 -0.8511526E-08  0.0000000E+00 -0.7441093E-03
 -0.5050505E-02  0.0000000E+00 -0.5050505E-02 -0.9202175E-08  0.0000000E+00 -0.7441131E-03
 -0.5050504E-02  0.0000000E+00 -0.5050505E-02 -0.9955113E-08  0.0000000E+00 -0.7441172E-03
 -0.5050501E-02  0.0000000E+00 -0.5050505E-02 -0.1077721E-07  0.0000000E+00 -0.7441216E-03
 -0.5050495E-02  0.0000000E+00 -0.5050505E-02 -0.1167633E-07  0.0000000E+00 -0.7441264E-03
 -0.5050482E-02  0.0000000E+00 -0.5050505E-02 -0.1266145E-07  0.0000000E+00 -0.7441316E-03
 -0.5050449E-02  0.0000000E+00 -0.5050505E-02 -0.1374293E-07  0.0000000E+00 -0.7441372E-03
 -0.5050376E-02  0.0000000E+00 -0.5050505E-02 -0.1493273E-07  0.0000000E+00 -0.7441433E-03
 -0.5050299E-02  0.0000000E+00 -0.5050505E-02 -0.1624472E-07  0.0000000E+00 -0.7441500E-03
 -0.5050178E-02  0.0000000E+00 -0.5050505E-02 -0.1769509E-07  0.0000000E+00 -0.7441572E-03
 -0.5050018E-02  0.0000000E+00 -0.5050505E-02 -0.1930277E-07  0.0000000E+00 -0.7441651E-03
 -0.5049710E-02  0.0000000E+00 -0.5050505E-02 -0.2109006E-07  0.0000000E+00 -0.7441737E-03
 -0.5049253E-02  0.0000000E+00 -0.5050505E-02 -0.2308336E-07  0.0000000E+00 -0.7441830E-03
 -0.5048636E-02  0.0000000E+00 -0.5050505E-02 -0.2531404E-07  0.0000000E+00 -0.7441933E-03
 -0.5047442E-02  0.0000000E+00 -0.5050505E-02 -0.2781963E-07  0.0000000E+00 -0.7442045E-03
 -0.5045727E-02  0.0000000E+00 -0.5050505E-02 -0.3064532E-07  0.0000000E+00 -0.7442169E-03
 -0.5043261E-02  0.0000000E+00 -0.5050505E-02 -0.3384581E-07  0.0000000E+00 -0.7442305E-03
 -0.5038714E-02  0.0000000E+00 -0.5050505E-02 -0.3748779E-07  0.0000000E+00 -0.7442455E-03
 -0.5032318E-02  0.0000000E+00 -0.5050505E-02 -0.4165311E-07  0.0000000E+00 -0.7442621E-03
 -0.5022454E-02  0.0000000E+00 -0.5050505E-02 -0.4644306E-07  0.0000000E+00 -0.7442806E-03
 -0.5012589E-02  0.0000000E+00 -0.5050505E-02 -0.5198385E-07  0.0000000E+00 -0.7443012E-03
 -0.5002725E-02  0.0000000E+00 -0.5050505E-02 -0.5843422E-07  0.0000000E+00 -0.7443242E-03
 -0.4992860E-02  0.0000000E+00 -0.5050505E-02 -0.6599560E-07  0.0000000E+00 -0.7443501E-03
 -0.4976523E-02  0.0000000E+00 -0.5050505E-02 -0.7492607E-07  0.0000000E+00 -0.7443792E-03
 -0.4956794E-02  0.0000000E+00 -0.5050505E-02 -0.8555988E-07  0.0000000E+00 -0.7444123E-03
 -0.4937066E-02  0.0000000E+00 -0.5050505E-02 -0.9833487E-07  0.0000000E+00 -0.7444500E-03
 -0.4906239E-02  0.0000000E+00 -0.5050505E-02 -0.1138318E-06  0.0000000E+00 -0.7444932E-03
 -0.4866782E-02  0.0000000E+00 -0.5050505E-02 -0.1328314E-06  0.0000000E+00 -0.7445431E-03
 -0.4827325E-02  0.0000000E+00 -0.5050505E-02 -0.1563991E-06  0.0000000E+00 -0.7446011E-03
 -0.4769372E-02  0.0000000E+00 -0.5050505E-02 -0.1860123E-06  0.0000000E+00 -0.7446690E-03
 -0.4690458E-02  0.0000000E+00 -0.5050505E-02 -0.2237568E-06  0.0000000E+00 -0.7447492E-03
 -0.4611543E-02  0.0000000E+00 -0.5050505E-02 -0.2726353E-06  0.0000000E+00 -0.7448447E-03
 -0.4503035E-02  0.0000000E+00 -0.5050505E-02 -0.3370647E-06  0.0000000E+00 -0.7449597E-03
 -0.4345206E-02  0.0000000E+00 -0.5050505E-02 -0.4236978E-06  0.0000000E+00 -0.7450993E-03
 -0.4187378E-02  0.0000000E+00 -0.5050505E-02 -0.5428184E-06  0.0000000E+00 -0.7452705E-03
 -0.3985156E-02  0.0000000E+00 -0.5050505E-02 -0.7107751E-06  0.0000000E+00 -0.7454819E-03
 -0.3669499E-02  0.0000000E+00 -0.5050505E-02 -0.9543432E-06  0.0000000E+00 -0.7457435E-03
 -0.3353842E-02  0.0000000E+00 -0.5050505E-02 -0.1318725E-05  0.0000000E+00 -0.7460650E-03
 -0.2978990E-02  0.0000000E+00 -0.5050505E-02 -0.1882427E-05  0.0000000E+00 -0.7464466E-03
 -0.2347676E-02  0.0000000E+00 -0.5050505E-02 -0.2784664E-05  0.0000000E+00 -0.7468538E-03
 -0.1716362E-02  0.0000000E+00 -0.5050505E-02 -0.4272596E-05  0.0000000E+00 -0.7471409E-03
 -0.1025842E-02  0.0000000E+00 -0.5050505E-02 -0.6763397E-05  0.0000000E+00 -0.7468392E-03
  0.2367855E-03  0.0000000E+00 -0.5050505E-02 -0.1081871E-04  0.0000000E+00 -0.7446342E-03
  0.1499413E-02  0.0000000E+00 -0.5050505E-02 -0.1639840E-04  0.0000000E+00 -0.7374787E-03
  0.5287294E-02  0.0000000E+00 -0.5050505E-02 -0.1817431E-04  0.0000000E+00 -0.7219723E-03
 -0.5050505E-02  0.0000000E+00 -0.5050505E-02 -0.1752298E-10  0.0000000E+00 -0.7398486E-03
 -0.5050505E-02  0.0000000E+00 -0.5050505E-02 -0.4655117E-10  0.0000000E+00 -0.7398486E-03
 -0.5050505E-02  0.0000000E+00 -0.5050505E-02 -0.7859994E-10  0.0000000E+00 -0.7398486E-03
 -0.5050505E-02  0.0000000E+00 -0.5050505E-02 -0.1014810E-09  0.0000000E+00 -0.7398486E-03
 -0.5050505E-02  0.0000000E+00 -0.5050505E-02 -0.1388418E-09  0.0000000E+00 -0.7398487E-03
 -0.5050505E-02  0.0000000E+00 -0.5050505E-02 -0.1749676E-09  0.0000000E+00 -0.7398487E-03
 -0.5050504E-02  0.0000000E+00 -0.5050505E-02 -0.2075370E-09  0.0000000E+00 -0.7398488E-03
 -0.5050501E-02  0.0000000E+00 -0.5050505E-02 -0.2409650E-09  0.0000000E+00 -0.7398488E-03
 -0.5050495E-02  0.0000000E+00 -0.5050505E-02 -0.2776986E-09  0.0000000E+00 -0.7398489E-03
 -0.5050482E-02  0.0000000E+00 -0.5050505E-02 -0.3174362E-09  0.0000000E+00 -0.7398490E-03
 -0.5050449E-02  0.0000000E+00 -0.5050505E-02 -0.3590904E-09  0.0000000E+00 -0.7398491E-03
 -0.5050376E-02  0.0000000E+00 -0.5050505E-02 -0.4019090E-09  0.0000000E+00 -0.7398492E-03
 -0.5050299E-02  0.0000000E+00 -0.5050505E-02 -0.4459146E-09  0.0000000E+00 -0.7398493E-03
 -0.5050178E-02  0.0000000E+00 -0.5050505E-02 -0.4914884E-09  0.0000000E+00 -0.7398495E-03
 -0.5050018E-02  0.0000000E+00 -0.5050505E-02 -0.5391932E-09  0.0000000E+00 -0.7398496E-03
 -0.5049710E-02  0.0000000E+00 -0.5050505E-02 -0.5895516E-09  0.0000000E+00 -0.7398498E-03
 -0.5049253E-02  0.0000000E+00 -0.5050505E-02 -0.6430261E-09  0.0000000E+00 -0.7398500E-03
 -0.5048636E-02  0.0000000E+00 -0.5050505E-02 -0.7000392E-09  0.0000000E+00 -0.7398502E-03
 -0.5047442E-02  0.0000000E+00 -0.5050505E-02 -0.7609831E-09  0.0000000E+00 -0.7398504E-03
 -0.5045727E-02  0.0000000E+00 -0.5050505E-02 -0.8262475E-09  0.0000000E+00 -0.7398507E-03
 -0.5043261E-02  0.0000000E+00 -0.5050505E-02 -0.8962212E-09  0.0000000E+00 -0.7398509E-03
 -0.5038714E-02  0.0000000E+00 -0.5050505E-02 -0.9712991E-09  0.0000000E+00 -0.7398512E-03
 -0.5032318E-02  0.0000000E+00 -0.5050505E-02 -0.1051889E-08  0.0000000E+00 -0.7398515E-03
 -0.5022454E-02  0.0000000E+00 -0.5050505E-02 -0.1138418E-08  0.0000000E+00 -0.7398519E-03
 -0.5012589E-02  0.0000000E+00 -0.5050505E-02 -0.1231340E-08  0.0000000E+00 -0.7398522E-03
 -0.5002725E-02  0.0000000E+00 -0.5050505E-02 -0.1331140E-08  0.0000000E+00 -0.7398526E-03
 -0.4992860E-02  0.0000000E+00 -0.5050505E-02 -0.1438343E-08  0.0000000E+00 -0.7398531E-03
 -0.4976523E-02  0.0000000E+00 -0.5050505E-02 -0.1553513E-08  0.0000000E+00 -0.7398535E-03
 -0.4956794E-02  0.0000000E+00 -0.5050505E-02 -0.1677259E-08  0.0000000E+00 -0.7398540E-03
 -0.4937066E-02  0.0000000E+00 -0.5050505E-02 -0.1810236E-08  0.0000000E+00 -0.7398545E-03