title = "dataset feddes"
variables = "x", "y", "z", "vx", "vy", "vz"
zone t = "velocities, solution time =  5.600E+01 days        " i =   99, j =   99, k =    1,  f=point
 -0.5050505E-02  0.0000000E+00 -0.5050505E-02  0.7346453E-07  0.0000000E+00  0.4234380E-04
 -0.5050505E-02  0.0000000E+00 -0.5050505E-02  0.2205815E-06  0.0000000E+00  0.4264024E-04
 -0.5050505E-02  0.0000000E+00 -0.5050505E-02  0.3682692E-06  0.0000000E+00  0.4323391E-04
 -0.5050505E-02  0.0000000E+00 -0.5050505E-02  0.5169217E-06  0.0000000E+00  0.4412640E-04
 -0.5050505E-02  0.0000000E+00 -0.5050505E-02  0.6669475E-06  0.0000000E+00  0.4532016E-04
 -0.5050505E-02  0.0000000E+00 -0.5050505E-02  0.8187745E-06  0.0000000E+00  0.4681852E-04
 -0.5050504E-02  0.0000000E+00 -0.5050505E-02  0.9728551E-06  0.0000000E+00  0.4862572E-04
 -0.5050501E-02  0.0000000E+00 -0.5050505E-02  0.1129672E-05  0.0000000E+00  0.5074699E-04
 -0.5050495E-02  0.0000000E+00 -0.5050505E-02  0.1289745E-05  0.0000000E+00  0.5318861E-04
 -0.5050482E-02  0.0000000E+00 -0.5050505E-02  0.1453641E-05  0.0000000E+00  0.5595800E-04
 -0.5050449E-02  0.0000000E+00 -0.5050505E-02  0.1621977E-05  0.0000000E+00  0.5906382E-04
 -0.5050376E-02  0.0000000E+00 -0.5050505E-02  0.1795439E-05  0.0000000E+00  0.6251611E-04
 -0.5050299E-02  0.0000000E+00 -0.5050505E-02  0.1974786E-05  0.0000000E+00  0.6632641E-04
 -0.5050178E-02  0.0000000E+00 -0.5050505E-02  0.2160869E-05  0.0000000E+00  0.7050798E-04
 -0.5050018E-02  0.0000000E+00 -0.5050505E-02  0.2354649E-05  0.0000000E+00  0.7507595E-04
 -0.5049710E-02  0.0000000E+00 -0.5050505E-02  0.2557210E-05  0.0000000E+00  0.8004766E-04
 -0.5049253E-02  0.0000000E+00 -0.5050505E-02  0.2769791E-05  0.0000000E+00  0.8544283E-04
 -0.5048636E-02  0.0000000E+00 -0.5050505E-02  0.2993810E-05  0.0000000E+00  0.9128405E-04
 -0.5047442E-02  0.0000000E+00 -0.5050505E-02  0.3230901E-05  0.0000000E+00  0.9759709E-04
 -0.5045727E-02  0.0000000E+00 -0.5050505E-02  0.3482955E-05  0.0000000E+00  0.1044115E-03
 -0.5043261E-02  0.0000000E+00 -0.5050505E-02  0.3752173E-05  0.0000000E+00  0.1117610E-03
 -0.5038714E-02  0.0000000E+00 -0.5050505E-02  0.4041132E-05  0.0000000E+00  0.1196847E-03
 -0.5032318E-02  0.0000000E+00 -0.5050505E-02  0.4352866E-05  0.0000000E+00  0.1282274E-03
 -0.5022454E-02  0.0000000E+00 -0.5050505E-02  0.4690970E-05  0.0000000E+00  0.1374410E-03
 -0.5012589E-02  0.0000000E+00 -0.5050505E-02  0.5059731E-05  0.0000000E+00  0.1473860E-03
 -0.5002725E-02  0.0000000E+00 -0.5050505E-02  0.5464303E-05  0.0000000E+00  0.1581327E-03
 -0.4992860E-02  0.0000000E+00 -0.5050505E-02  0.5910937E-05  0.0000000E+00  0.1697638E-03
 -0.4976523E-02  0.0000000E+00 -0.5050505E-02  0.6407289E-05  0.0000000E+00  0.1823771E-03
 -0.4956794E-02  0.0000000E+00 -0.5050505E-02  0.6962856E-05  0.0000000E+00  0.1960885E-03
 -0.4937066E-02  0.0000000E+00 -0.5050505E-02  0.7589582E-05  0.0000000E+00  0.2110373E-03
 -0.4906239E-02  0.0000000E+00 -0.5050505E-02  0.8302761E-05  0.0000000E+00  0.2273923E-03
 -0.4866782E-02  0.0000000E+00 -0.5050505E-02  0.9122402E-05  0.0000000E+00  0.2453604E-03
 -0.4827325E-02  0.0000000E+00 -0.5050505E-02  0.1007538E-04  0.0000000E+00  0.2651998E-03
 -0.4769372E-02  0.0000000E+00 -0.5050505E-02  0.1119895E-04  0.0000000E+00  0.2872383E-03
 -0.4690458E-02  0.0000000E+00 -0.5050505E-02  0.1254680E-04  0.0000000E+00  0.3119030E-03
 -0.4611543E-02  0.0000000E+00 -0.5050505E-02  0.1419945E-04  0.0000000E+00  0.3397679E-03
 -0.4503035E-02  0.0000000E+00 -0.5050505E-02  0.1628238E-04  0.0000000E+00  0.3716326E-03
 -0.4345206E-02  0.0000000E+00 -0.5050505E-02  0.1899367E-04  0.0000000E+00  0.4086524E-03
 -0.4187378E-02  0.0000000E+00 -0.5050505E-02  0.2262409E-04  0.0000000E+00  0.4525250E-03
 -0.3985156E-02  0.0000000E+00 -0.5050505E-02  0.2742471E-04  0.0000000E+00  0.5055682E-03
 -0.3669499E-02  0.0000000E+00 -0.5050505E-02  0.3246725E-04  0.0000000E+00  0.5694506E-03
 -0.3353842E-02  0.0000000E+00 -0.5050505E-02  0.2884999E-04  0.0000000E+00  0.6353203E-03
 -0.2978990E-02  0.0000000E+00 -0.5050505E-02  0.2049764E-04  0.0000000E+00  0.6887301E-03
 -0.2347676E-02  0.0000000E+00 -0.5050505E-02  0.1949840E-04  0.0000000E+00  0.7323195E-03
 -0.1716362E-02  0.0000000E+00 -0.5050505E-02  0.2097562E-04  0.0000000E+00  0.7766662E-03
 -0.1025842E-02  0.0000000E+00 -0.5050505E-02  0.2342565E-04  0.0000000E+00  0.8255758E-03
  0.2367855E-03  0.0000000E+00 -0.5050505E-02  0.2652548E-04  0.0000000E+00  0.8809210E-03
  0.1499413E-02  0.0000000E+00 -0.5050505E-02  0.3063378E-04  0.0000000E+00  0.9446727E-03
  0.2762042E-02  0.0000000E+00 -0.5050505E-02  0.3725967E-04  0.0000000E+00  0.1020980E-02
 -0.5050505E-02  0.0000000E+00 -0.5050505E-02  0.5178407E-04  0.0000000E+00  0.1122003E-02
 -0.5050505E-02  0.0000000E+00 -0.5050505E-02  0.5955758E-04  0.0000000E+00  0.1249789E-02
 -0.5050505E-02  0.0000000E+00 -0.5050505E-02  0.3496042E-04  0.0000000E+00  0.1359616E-02
 -0.5050505E-02  0.0000000E+00 -0.5050505E-02  0.2773999E-04  0.0000000E+00  0.1433520E-02
 -0.5050505E-02  0.0000000E+00 -0.5050505E-02  0.3464066E-04  0.0000000E+00  0.1507751E-02
 -0.5050505E-02  0.0000000E+00 -0.5050505E-02  0.3197950E-04  0.0000000E+00  0.1587661E-02
 -0.5050505E-02  0.0000000E+00 -0.5050505E-02  0.4446669E-04  0.0000000E+00  0.1680289E-02
 -0.5050504E-02  0.0000000E+00 -0.5050505E-02  0.6999111E-04  0.0000000E+00  0.1820551E-02
 -0.5050501E-02  0.0000000E+00 -0.5050505E-02  0.1046580E-03  0.0000000E+00  0.2038157E-02
 -0.5050495E-02  0.0000000E+00 -0.5050505E-02  0.1401242E-03  0.0000000E+00  0.2350847E-02
 -0.5050482E-02  0.0000000E+00 -0.5050505E-02  0.2188249E-03  0.0000000E+00  0.2826879E-02
 -0.5050449E-02  0.0000000E+00 -0.5050505E-02 -0.1006845E-03  0.0000000E+00  0.2981320E-02
 -0.5050376E-02  0.0000000E+00 -0.5050505E-02 -0.1794626E-03  0.0000000E+00  0.2603668E-02
 -0.5050299E-02  0.0000000E+00 -0.5050505E-02 -0.9378410E-04  0.0000000E+00  0.2245629E-02
 -0.5050178E-02  0.0000000E+00 -0.5050505E-02 -0.1527055E-03  0.0000000E+00  0.1936589E-02
 -0.5050018E-02  0.0000000E+00 -0.5050505E-02 -0.8706288E-04  0.0000000E+00  0.1643437E-02
 -0.5049710E-02  0.0000000E+00 -0.5050505E-02 -0.5662530E-04  0.0000000E+00  0.1471488E-02
 -0.5049253E-02  0.0000000E+00 -0.5050505E-02 -0.3955118E-04  0.0000000E+00  0.1357976E-02
 -0.5048636E-02  0.0000000E+00 -0.5050505E-02 -0.2909527E-04  0.0000000E+00  0.1277738E-02
 -0.5047442E-02  0.0000000E+00 -0.5050505E-02 -0.2241141E-04  0.0000000E+00  0.1217963E-02
 -0.5045727E-02  0.0000000E+00 -0.5050505E-02 -0.1848442E-04  0.0000000E+00  0.1170771E-02
 -0.5043261E-02  0.0000000E+00 -0.5050505E-02 -0.1674148E-04  0.0000000E+00  0.1130319E-02
 -0.5038714E-02  0.0000000E+00 -0.5050505E-02 -0.1597662E-04  0.0000000E+00  0.1092913E-02
 -0.5032318E-02  0.0000000E+00 -0.5050505E-02 -0.1594444E-04  0.0000000E+00  0.1056575E-02
 -0.5022454E-02  0.0000000E+00 -0.5050505E-02 -0.1639664E-04  0.0000000E+00  0.1019918E-02
 -0.5012589E-02  0.0000000E+00 -0.5050505E-02 -0.2695556E-04  0.0000000E+00  0.9711036E-03
 -0.5002725E-02  0.0000000E+00 -0.5050505E-02 -0.2643167E-04  0.0000000E+00  0.9113574E-03
 -0.4992860E-02  0.0000000E+00 -0.5050505E-02 -0.3967340E-04  0.0000000E+00  0.8380949E-03
 -0.4976523E-02  0.0000000E+00 -0.5050505E-02 -0.3009864E-04  0.0000000E+00  0.7613483E-03
 -0.4956794E-02  0.0000000E+00 -0.5050505E-02 -0.2543748E-04  0.0000000E+00  0.7007154E-03
 -0.4937066E-02  0.0000000E+00 -0.5050505E-02 -0.2195287E-04  0.0000000E+00  0.6492954E-03
 -0.4906239E-02  0.0000000E+00 -0.5050505E-02 -0.1909752E-04  0.0000000E+00  0.6049912E-03
 -0.4866782E-02  0.0000000E+00 -0.5050505E-02 -0.1679713E-04  0.0000000E+00  0.5664309E-03
 -0.4827325E-02  0.0000000E+00 -0.5050505E-02 -0.1495773E-04  0.0000000E+00  0.5324573E-03
 -0.4769372E-02  0.0000000E+00 -0.5050505E-02 -0.1345879E-04  0.0000000E+00  0.5021661E-03
 -0.4690458E-02  0.0000000E+00 -0.5050505E-02 -0.1218960E-04  0.0000000E+00  0.4749153E-03
 -0.4611543E-02  0.0000000E+00 -0.5050505E-02 -0.1106594E-04  0.0000000E+00  0.4502802E-03
 -0.4503035E-02  0.0000000E+00 -0.5050505E-02 -0.1003175E-04  0.0000000E+00  0.4279909E-03
 -0.4345206E-02  0.0000000E+00 -0.5050505E-02 -0.9053812E-05  0.0000000E+00  0.4078763E-03
 -0.4187378E-02  0.0000000E+00 -0.5050505E-02 -0.8114162E-05  0.0000000E+00  0.3898219E-03
 -0.3985156E-02  0.0000000E+00 -0.5050505E-02 -0.7203257E-05  0.0000000E+00  0.3737450E-03
 -0.3669499E-02  0.0000000E+00 -0.5050505E-02 -0.6314508E-05  0.0000000E+00  0.3595811E-03
 -0.3353842E-02  0.0000000E+00 -0.5050505E-02 -0.5439823E-05  0.0000000E+00  0.3472833E-03
 -0.2978990E-02  0.0000000E+00 -0.5050505E-02 -0.4564472E-05  0.0000000E+00  0.3368296E-03
 -0.2347676E-02  0.0000000E+00 -0.5050505E-02 -0.3657261E-05  0.0000000E+00  0.3282475E-03
 -0.1716362E-02  0.0000000E+00 -0.5050505E-02 -0.2644841E-05  0.0000000E+00  0.3216743E-03
 -0.1025842E-02  0.0000000E+00 -0.5050505E-02 -0.1333608E-05  0.0000000E+00  0.3175269E-03
  0.2367855E-03  0.0000000E+00 -0.5050505E-02  0.8530281E-06  0.0000000E+00  0.3170260E-03
  0.1499413E-02  0.0000000E+00 -0.5050505E-02  0.5838657E-05  0.0000000E+00  0.3240017E-03
  0.5287294E-02  0.0000000E+00 -0.5050505E-02  0.1129333E-03  0.0000000E+00  0.2573618E-03
 -0.5050505E-02  0.0000000E+00 -0.5050505E-02  0.2200572E-06  0.0000000E+00  0.4235941E-04
 -0.5050505E-02  0.0000000E+00 -0.5050505E-02  0.6607362E-06  0.0000000E+00  0.4265535E-04
 -0.5050505E-02  0.0000000E+00 -0.5050505E-02  0.1103127E-05  0.0000000E+00  0.4324799E-04
 -0.5050505E-02  0.0000000E+00 -0.5050505E-02  0.1548407E-05  0.0000000E+00  0.4413893E-04
 -0.5050505E-02  0.0000000E+00 -0.5050505E-02  0.1997798E-05  0.0000000E+00  0.4533057E-04
 -0.5050505E-02  0.0000000E+00 -0.5050505E-02  0.2452579E-05  0.0000000E+00  0.4682620E-04
 -0.5050504E-02  0.0000000E+00 -0.5050505E-02  0.2914101E-05  0.0000000E+00  0.4863002E-04
 -0.5050501E-02  0.0000000E+00 -0.5050505E-02  0.3383805E-05  0.0000000E+00  0.5074721E-04
 -0.5050495E-02  0.0000000E+00 -0.5050505E-02  0.3863246E-05  0.0000000E+00  0.5318396E-04
 -0.5050482E-02  0.0000000E+00 -0.5050505E-02  0.4354109E-05  0.0000000E+00  0.5594763E-04
 -0.5050449E-02  0.0000000E+00 -0.5050505E-02  0.4858245E-05  0.0000000E+00  0.5904678E-04
 -0.5050376E-02  0.0000000E+00 -0.5050505E-02  0.5377694E-05  0.0000000E+00  0.6249131E-04
 -0.5050299E-02  0.0000000E+00 -0.5050505E-02  0.5914723E-05  0.0000000E+00  0.6629264E-04
 -0.5050178E-02  0.0000000E+00 -0.5050505E-02  0.6471872E-05  0.0000000E+00  0.7046384E-04
 -0.5050018E-02  0.0000000E+00 -0.5050505E-02  0.7051999E-05  0.0000000E+00  0.7501987E-04
 -0.5049710E-02  0.0000000E+00 -0.5050505E-02  0.7658341E-05  0.0000000E+00  0.7997780E-04
 -0.5049253E-02  0.0000000E+00 -0.5050505E-02  0.8294586E-05  0.0000000E+00  0.8535708E-04
 -0.5048636E-02  0.0000000E+00 -0.5050505E-02  0.8964958E-05  0.0000000E+00  0.9117993E-04
 -0.5047442E-02  0.0000000E+00 -0.5050505E-02  0.9674318E-05  0.0000000E+00  0.9747173E-04
 -0.5045727E-02  0.0000000E+00 -0.5050505E-02  0.1042829E-04  0.0000000E+00  0.1042615E-03
 -0.5043261E-02  0.0000000E+00 -0.5050505E-02  0.1123343E-04  0.0000000E+00  0.1115824E-03
 -0.5038714E-02  0.0000000E+00 -0.5050505E-02  0.1209738E-04  0.0000000E+00  0.1194727E-03
 -0.5032318E-02  0.0000000E+00 -0.5050505E-02  0.1302915E-04  0.0000000E+00  0.1279763E-03
 -0.5022454E-02  0.0000000E+00 -0.5050505E-02  0.1403941E-04  0.0000000E+00  0.1371441E-03
 -0.5012589E-02  0.0000000E+00 -0.5050505E-02  0.1514085E-04  0.0000000E+00  0.1470349E-03
 -0.5002725E-02  0.0000000E+00 -0.5050505E-02  0.1634874E-04  0.0000000E+00  0.1577173E-03
 -0.4992860E-02  0.0000000E+00 -0.5050505E-02  0.1768153E-04  0.0000000E+00  0.1692717E-03
 -0.4976523E-02  0.0000000E+00 -0.5050505E-02  0.1916180E-04  0.0000000E+00  0.1817926E-03
 -0.4956794E-02  0.0000000E+00 -0.5050505E-02  0.2081747E-04  0.0000000E+00  0.1953919E-03
 -0.4937066E-02  0.0000000E+00 -0.5050505E-02  0.2268355E-04  0.0000000E+00  0.2102034E-03
 -0.4906239E-02  0.0000000E+00 -0.5050505E-02  0.2480465E-04  0.0000000E+00  0.2263879E-03
 -0.4866782E-02  0.0000000E+00 -0.5050505E-02  0.2723882E-04  0.0000000E+00  0.2441410E-03
 -0.4827325E-02  0.0000000E+00 -0.5050505E-02  0.3006340E-04  0.0000000E+00  0.2637037E-03
 -0.4769372E-02  0.0000000E+00 -0.5050505E-02  0.3338464E-04  0.0000000E+00  0.2853773E-03
 -0.4690458E-02  0.0000000E+00 -0.5050505E-02  0.3735390E-04  0.0000000E+00  0.3095460E-03
 -0.4611543E-02  0.0000000E+00 -0.5050505E-02  0.4219623E-04  0.0000000E+00  0.3367122E-03
 -0.4503035E-02  0.0000000E+00 -0.5050505E-02  0.4826299E-04  0.0000000E+00  0.3675581E-03
 -0.4345206E-02  0.0000000E+00 -0.5050505E-02  0.5613229E-04  0.0000000E+00  0.4030741E-03
 -0.4187378E-02  0.0000000E+00 -0.5050505E-02  0.6680766E-04  0.0000000E+00  0.4449051E-03
 -0.3985156E-02  0.0000000E+00 -0.5050505E-02  0.8212646E-04  0.0000000E+00  0.4965884E-03
 -0.3669499E-02  0.0000000E+00 -0.5050505E-02  0.1056599E-03  0.0000000E+00  0.5689454E-03
 -0.3353842E-02  0.0000000E+00 -0.5050505E-02  0.9092670E-04  0.0000000E+00  0.6482687E-03
 -0.2978990E-02  0.0000000E+00 -0.5050505E-02  0.5463143E-04  0.0000000E+00  0.6991162E-03
 -0.2347676E-02  0.0000000E+00 -0.5050505E-02  0.5614406E-04  0.0000000E+00  0.7329280E-03
 -0.1716362E-02  0.0000000E+00 -0.5050505E-02  0.6194891E-04  0.0000000E+00  0.7738751E-03
 -0.1025842E-02  0.0000000E+00 -0.5050505E-02  0.6957854E-04  0.0000000E+00  0.8212090E-03
  0.2367855E-03  0.0000000E+00 -0.5050505E-02  0.7853369E-04  0.0000000E+00  0.8749395E-03
  0.1499413E-02  0.0000000E+00 -0.5050505E-02  0.8948592E-04  0.0000000E+00  0.9352049E-03
  0.2762042E-02  0.0000000E+00 -0.5050505E-02  0.1045831E-03  0.0000000E+00  0.1001132E-02
 -0.5050505E-02  0.0000000E+00 -0.5050505E-02  0.1295323E-03  0.0000000E+00  0.1065129E-02
 -0.5050505E-02  0.0000000E+00 -0.5050505E-02  0.1445932E-03  0.0000000E+00  0.1124579E-02
 -0.5050505E-02  0.0000000E+00 -0.5050505E-02  0.1210703E-03  0.0000000E+00  0.1213777E-02
 -0.5050505E-02  0.0000000E+00 -0.5050505E-02  0.1317735E-03  0.0000000E+00  0.1363688E-02
 -0.5050505E-02  0.0000000E+00 -0.5050505E-02  0.1110593E-03  0.0000000E+00  0.1504931E-02
 -0.5050505E-02  0.0000000E+00 -0.5050505E-02  0.8260140E-04  0.0000000E+00  0.1579257E-02
 -0.5050505E-02  0.0000000E+00 -0.5050505E-02  0.1216517E-03  0.0000000E+00  0.1643698E-02
 -0.5050504E-02  0.0000000E+00 -0.5050505E-02  0.1698823E-03  0.0000000E+00  0.1723089E-02
 -0.5050501E-02  0.0000000E+00 -0.5050505E-02  0.2508936E-03  0.0000000E+00  0.1815185E-02
 -0.5050495E-02  0.0000000E+00 -0.5050505E-02  0.3661914E-03  0.0000000E+00  0.1979571E-02
 -0.5050482E-02  0.0000000E+00 -0.5050505E-02  0.5720840E-03  0.0000000E+00  0.2266312E-02
 -0.5050449E-02  0.0000000E+00 -0.5050505E-02 -0.2726985E-03  0.0000000E+00  0.2342590E-02
 -0.5050376E-02  0.0000000E+00 -0.5050505E-02 -0.3965261E-03  0.0000000E+00  0.2189108E-02
 -0.5050299E-02  0.0000000E+00 -0.5050505E-02 -0.3411238E-03  0.0000000E+00  0.1942280E-02
 -0.5050178E-02  0.0000000E+00 -0.5050505E-02 -0.3579851E-03  0.0000000E+00  0.1683631E-02
 -0.5050018E-02  0.0000000E+00 -0.5050505E-02 -0.2313667E-03  0.0000000E+00  0.1548503E-02
 -0.5049710E-02  0.0000000E+00 -0.5050505E-02 -0.1579821E-03  0.0000000E+00  0.1425067E-02
 -0.5049253E-02  0.0000000E+00 -0.5050505E-02 -0.1124744E-03  0.0000000E+00  0.1331500E-02
 -0.5048636E-02  0.0000000E+00 -0.5050505E-02 -0.8360782E-04  0.0000000E+00  0.1261627E-02
 -0.5047442E-02  0.0000000E+00 -0.5050505E-02 -0.6449734E-04  0.0000000E+00  0.1208366E-02
 -0.5045727E-02  0.0000000E+00 -0.5050505E-02 -0.5325909E-04  0.0000000E+00  0.1166106E-02
 -0.5043261E-02  0.0000000E+00 -0.5050505E-02 -0.4910355E-04  0.0000000E+00  0.1128810E-02
 -0.5038714E-02  0.0000000E+00 -0.5050505E-02 -0.4704316E-04  0.0000000E+00  0.1093110E-02
 -0.5032318E-02  0.0000000E+00 -0.5050505E-02 -0.4717757E-04  0.0000000E+00  0.1057984E-02
 -0.5022454E-02  0.0000000E+00 -0.5050505E-02 -0.4006543E-04  0.0000000E+00  0.1031910E-02
 -0.5012589E-02  0.0000000E+00 -0.5050505E-02 -0.9049475E-04  0.0000000E+00  0.9821062E-03
 -0.5002725E-02  0.0000000E+00 -0.5050505E-02 -0.1044180E-03  0.0000000E+00  0.8834373E-03
 -0.4992860E-02  0.0000000E+00 -0.5050505E-02 -0.1019509E-03  0.0000000E+00  0.8011010E-03
 -0.4976523E-02  0.0000000E+00 -0.5050505E-02 -0.8575585E-04  0.0000000E+00  0.7480135E-03
 -0.4956794E-02  0.0000000E+00 -0.5050505E-02 -0.7518673E-04  0.0000000E+00  0.6934472E-03
 -0.4937066E-02  0.0000000E+00 -0.5050505E-02 -0.6523679E-04  0.0000000E+00  0.6438101E-03
 -0.4906239E-02  0.0000000E+00 -0.5050505E-02 -0.5674011E-04  0.0000000E+00  0.6006673E-03
 -0.4866782E-02  0.0000000E+00 -0.5050505E-02 -0.4992795E-04  0.0000000E+00  0.5631005E-03
 -0.4827325E-02  0.0000000E+00 -0.5050505E-02 -0.4452481E-04  0.0000000E+00  0.5299058E-03
 -0.4769372E-02  0.0000000E+00 -0.5050505E-02 -0.4013467E-04  0.0000000E+00  0.5001625E-03
 -0.4690458E-02  0.0000000E+00 -0.5050505E-02 -0.3640915E-04  0.0000000E+00  0.4732648E-03
 -0.4611543E-02  0.0000000E+00 -0.5050505E-02 -0.3309358E-04  0.0000000E+00  0.4488427E-03
 -0.4503035E-02  0.0000000E+00 -0.5050505E-02 -0.3002470E-04  0.0000000E+00  0.4266777E-03
 -0.4345206E-02  0.0000000E+00 -0.5050505E-02 -0.2710975E-04  0.0000000E+00  0.4066369E-03
 -0.4187378E-02  0.0000000E+00 -0.5050505E-02 -0.2430144E-04  0.0000000E+00  0.3886300E-03
 -0.3985156E-02  0.0000000E+00 -0.5050505E-02 -0.2157634E-04  0.0000000E+00  0.3725856E-03
 -0.3669499E-02  0.0000000E+00 -0.5050505E-02 -0.1891901E-04  0.0000000E+00  0.3584411E-03
 -0.3353842E-02  0.0000000E+00 -0.5050505E-02 -0.1631019E-04  0.0000000E+00  0.3461416E-03
 -0.2978990E-02  0.0000000E+00 -0.5050505E-02 -0.1371519E-04  0.0000000E+00  0.3356422E-03
 -0.2347676E-02  0.0000000E+00 -0.5050505E-02 -0.1106519E-04  0.0000000E+00  0.3269119E-03
 -0.1716362E-02  0.0000000E+00 -0.5050505E-02 -0.8215288E-05  0.0000000E+00  0.3199264E-03
 -0.1025842E-02  0.0000000E+00 -0.5050505E-02 -0.4837183E-05  0.0000000E+00  0.3145998E-03
  0.2367855E-03  0.0000000E+00 -0.5050505E-02 -0.1266237E-06  0.0000000E+00  0.3104255E-03
  0.1499413E-02  0.0000000E+00 -0.5050505E-02  0.8029097E-05  0.0000000E+00  0.3047409E-03
  0.5287294E-02  0.0000000E+00 -0.5050505E-02  0.2547629E-04  0.0000000E+00  0.2845373E-03
 -0.5050505E-02  0.0000000E+00 -0.5050505E-02  0.3658588E-06  0.0000000E+00  0.4239321E-04
 -0.5050505E-02  0.0000000E+00 -0.5050505E-02  0.1098516E-05  0.0000000E+00  0.4268815E-04
 -0.5050505E-02  0.0000000E+00 -0.5050505E-02  0.1834016E-05  0.0000000E+00  0.4327880E-04
 -0.5050505E-02  0.0000000E+00 -0.5050505E-02  0.2574312E-05  0.0000000E+00  0.4416667E-04
 -0.5050505E-02  0.0000000E+00 -0.5050505E-02  0.3321423E-05  0.0000000E+00  0.4535413E-04
 -0.5050505E-02  0.0000000E+00 -0.5050505E-02  0.4077465E-05  0.0000000E+00  0.4684440E-04
 -0.5050504E-02  0.0000000E+00 -0.5050505E-02  0.4844671E-05  0.0000000E+00  0.4864158E-04
 -0.5050501E-02  0.0000000E+00 -0.5050505E-02  0.5625425E-05  0.0000000E+00  0.5075075E-04
 -0.5050495E-02  0.0000000E+00 -0.5050505E-02  0.6422292E-05  0.0000000E+00  0.5317796E-04
 -0.5050482E-02  0.0000000E+00 -0.5050505E-02  0.7238058E-05  0.0000000E+00  0.5593040E-04
 -0.5050449E-02  0.0000000E+00 -0.5050505E-02  0.8075773E-05  0.0000000E+00  0.5901643E-04
 -0.5050376E-02  0.0000000E+00 -0.5050505E-02  0.8938805E-05  0.0000000E+00  0.6244574E-04
 -0.5050299E-02  0.0000000E+00 -0.5050505E-02  0.9830890E-05  0.0000000E+00  0.6622946E-04
 -0.5050178E-02  0.0000000E+00 -0.5050505E-02  0.1075621E-04  0.0000000E+00  0.7038033E-04
 -0.5050018E-02  0.0000000E+00 -0.5050505E-02  0.1171948E-04  0.0000000E+00  0.7491291E-04
 -0.5049710E-02  0.0000000E+00 -0.5050505E-02  0.1272601E-04  0.0000000E+00  0.7984380E-04
 -0.5049253E-02  0.0000000E+00 -0.5050505E-02  0.1378187E-04  0.0000000E+00  0.8519189E-04
 -0.5048636E-02  0.0000000E+00 -0.5050505E-02  0.1489400E-04  0.0000000E+00  0.9097872E-04
 -0.5047442E-02  0.0000000E+00 -0.5050505E-02  0.1607037E-04  0.0000000E+00  0.9722885E-04
 -0.5045727E-02  0.0000000E+00 -0.5050505E-02  0.1732020E-04  0.0000000E+00  0.1039703E-03
 -0.5043261E-02  0.0000000E+00 -0.5050505E-02  0.1865423E-04  0.0000000E+00  0.1112351E-03
 -0.5038714E-02  0.0000000E+00 -0.5050505E-02  0.2008495E-04  0.0000000E+00  0.1190600E-03
 -0.5032318E-02  0.0000000E+00 -0.5050505E-02  0.2162708E-04  0.0000000E+00  0.1274872E-03
 -0.5022454E-02  0.0000000E+00 -0.5050505E-02  0.2329800E-04  0.0000000E+00  0.1365651E-03
 -0.5012589E-02  0.0000000E+00 -0.5050505E-02  0.2511836E-04  0.0000000E+00  0.1463499E-03
 -0.5002725E-02  0.0000000E+00 -0.5050505E-02  0.2711290E-04  0.0000000E+00  0.1569068E-03
 -0.4992860E-02  0.0000000E+00 -0.5050505E-02  0.2931148E-04  0.0000000E+00  0.1683114E-03
 -0.4976523E-02  0.0000000E+00 -0.5050505E-02  0.3175046E-04  0.0000000E+00  0.1806524E-03
 -0.4956794E-02  0.0000000E+00 -0.5050505E-02  0.3447457E-04  0.0000000E+00  0.1940340E-03
 -0.4937066E-02  0.0000000E+00 -0.5050505E-02  0.3753956E-04  0.0000000E+00  0.2085793E-03
 -0.4906239E-02  0.0000000E+00 -0.5050505E-02  0.4101584E-04  0.0000000E+00  0.2244347E-03
 -0.4866782E-02  0.0000000E+00 -0.5050505E-02  0.4499400E-04  0.0000000E+00  0.2417751E-03
 -0.4827325E-02  0.0000000E+00 -0.5050505E-02  0.4959298E-04  0.0000000E+00  0.2608110E-03
 -0.4769372E-02  0.0000000E+00 -0.5050505E-02  0.5497296E-04  0.0000000E+00  0.2817971E-03
 -0.4690458E-02  0.0000000E+00 -0.5050505E-02  0.6135645E-04  0.0000000E+00  0.3050426E-03
 -0.4611543E-02  0.0000000E+00 -0.5050505E-02  0.6906424E-04  0.0000000E+00  0.3309221E-03
 -0.4503035E-02  0.0000000E+00 -0.5050505E-02  0.7858062E-04  0.0000000E+00  0.3598831E-03
 -0.4345206E-02  0.0000000E+00 -0.5050505E-02  0.9068048E-04  0.0000000E+00  0.3924298E-03
 -0.4187378E-02  0.0000000E+00 -0.5050505E-02  0.1067048E-03  0.0000000E+00  0.4290017E-03
 -0.3985156E-02  0.0000000E+00 -0.5050505E-02  0.1292496E-03  0.0000000E+00  0.4693505E-03
 -0.3669499E-02  0.0000000E+00 -0.5050505E-02  0.1642157E-03  0.0000000E+00  0.5093568E-03
 -0.3353842E-02  0.0000000E+00 -0.5050505E-02  0.1739003E-03  0.0000000E+00  0.5812674E-03
 -0.2978990E-02  0.0000000E+00 -0.5050505E-02  0.1037031E-03  0.0000000E+00  0.6727188E-03
 -0.2347676E-02  0.0000000E+00 -0.5050505E-02  0.8873218E-04  0.0000000E+00  0.7283503E-03
 -0.1716362E-02  0.0000000E+00 -0.5050505E-02  0.1011139E-03  0.0000000E+00  0.7667391E-03
 -0.1025842E-02  0.0000000E+00 -0.5050505E-02  0.1143486E-03  0.0000000E+00  0.8126508E-03
  0.2367855E-03  0.0000000E+00 -0.5050505E-02  0.1285107E-03  0.0000000E+00  0.8648167E-03
  0.1499413E-02  0.0000000E+00 -0.5050505E-02  0.1443359E-03  0.0000000E+00  0.9225593E-03
  0.2762042E-02  0.0000000E+00 -0.5050505E-02  0.1628054E-03  0.0000000E+00  0.9849925E-03
 -0.5050505E-02  0.0000000E+00 -0.5050505E-02  0.1840112E-03  0.0000000E+00  0.1050255E-02
 -0.5050505E-02  0.0000000E+00 -0.5050505E-02  0.2006707E-03  0.0000000E+00  0.1119133E-02
 -0.5050505E-02  0.0000000E+00 -0.5050505E-02  0.2083241E-03  0.0000000E+00  0.1197759E-02
 -0.5050505E-02  0.0000000E+00 -0.5050505E-02  0.2340528E-03  0.0000000E+00  0.1272228E-02
 -0.5050505E-02  0.0000000E+00 -0.5050505E-02  0.1933438E-03  0.0000000E+00  0.1353410E-02
 -0.5050505E-02  0.0000000E+00 -0.5050505E-02  0.1616417E-03  0.0000000E+00  0.1477765E-02
 -0.5050505E-02  0.0000000E+00 -0.5050505E-02  0.1891293E-03  0.0000000E+00  0.1597535E-02
 -0.5050504E-02  0.0000000E+00 -0.5050505E-02  0.2095978E-03  0.0000000E+00  0.1657164E-02
 -0.5050501E-02  0.0000000E+00 -0.5050505E-02  0.3059177E-03  0.0000000E+00  0.1692180E-02
 -0.5050495E-02  0.0000000E+00 -0.5050505E-02  0.4695398E-03  0.0000000E+00  0.1739180E-02
 -0.5050482E-02  0.0000000E+00 -0.5050505E-02  0.7436732E-03  0.0000000E+00  0.1818075E-02
 -0.5050449E-02  0.0000000E+00 -0.5050505E-02 -0.3583517E-03  0.0000000E+00  0.1845726E-02
 -0.5050376E-02  0.0000000E+00 -0.5050505E-02 -0.4671085E-03  0.0000000E+00  0.1774417E-02
 -0.5050299E-02  0.0000000E+00 -0.5050505E-02 -0.5442284E-03  0.0000000E+00  0.1663615E-02
 -0.5050178E-02  0.0000000E+00 -0.5050505E-02 -0.4501479E-03  0.0000000E+00  0.1549175E-02
 -0.5050018E-02  0.0000000E+00 -0.5050505E-02 -0.3303336E-03  0.0000000E+00  0.1447064E-02
 -0.5049710E-02  0.0000000E+00 -0.5050505E-02 -0.2346918E-03  0.0000000E+00  0.1356036E-02
 -0.5049253E-02  0.0000000E+00 -0.5050505E-02 -0.1702232E-03  0.0000000E+00  0.1286916E-02
 -0.5048636E-02  0.0000000E+00 -0.5050505E-02 -0.1289132E-03  0.0000000E+00  0.1232991E-02
 -0.5047442E-02  0.0000000E+00 -0.5050505E-02 -0.9910780E-04  0.0000000E+00  0.1190792E-02
 -0.5045727E-02  0.0000000E+00 -0.5050505E-02 -0.8131850E-04  0.0000000E+00  0.1158523E-02
 -0.5043261E-02  0.0000000E+00 -0.5050505E-02 -0.7907709E-04  0.0000000E+00  0.1127227E-02
 -0.5038714E-02  0.0000000E+00 -0.5050505E-02 -0.7567668E-04  0.0000000E+00  0.1094093E-02
 -0.5032318E-02  0.0000000E+00 -0.5050505E-02 -0.8425128E-04  0.0000000E+00  0.1052682E-02
 -0.5022454E-02  0.0000000E+00 -0.5050505E-02 -0.1209891E-03  0.0000000E+00  0.9442111E-03
 -0.5012589E-02  0.0000000E+00 -0.5050505E-02 -0.1505600E-03  0.0000000E+00  0.8347797E-03
 -0.5002725E-02  0.0000000E+00 -0.5050505E-02 -0.1609026E-03  0.0000000E+00  0.8025608E-03
 -0.4992860E-02  0.0000000E+00 -0.5050505E-02 -0.1387968E-03  0.0000000E+00  0.7807051E-03
 -0.4976523E-02  0.0000000E+00 -0.5050505E-02 -0.1361931E-03  0.0000000E+00  0.7373644E-03
 -0.4956794E-02  0.0000000E+00 -0.5050505E-02 -0.1243243E-03  0.0000000E+00  0.6828993E-03
 -0.4937066E-02  0.0000000E+00 -0.5050505E-02 -0.1071291E-03  0.0000000E+00  0.6334763E-03
 -0.4906239E-02  0.0000000E+00 -0.5050505E-02 -0.9276766E-04  0.0000000E+00  0.5922361E-03
 -0.4866782E-02  0.0000000E+00 -0.5050505E-02 -0.8169747E-04  0.0000000E+00  0.5566969E-03
 -0.4827325E-02  0.0000000E+00 -0.5050505E-02 -0.7310229E-04  0.0000000E+00  0.5250736E-03
 -0.4769372E-02  0.0000000E+00 -0.5050505E-02 -0.6615137E-04  0.0000000E+00  0.4963889E-03
 -0.4690458E-02  0.0000000E+00 -0.5050505E-02 -0.6021352E-04  0.0000000E+00  0.4701423E-03
 -0.4611543E-02  0.0000000E+00 -0.5050505E-02 -0.5486419E-04  0.0000000E+00  0.4460947E-03
 -0.4503035E-02  0.0000000E+00 -0.5050505E-02 -0.4985179E-04  0.0000000E+00  0.4241387E-03
 -0.4345206E-02  0.0000000E+00 -0.5050505E-02 -0.4504735E-04  0.0000000E+00  0.4042199E-03
 -0.4187378E-02  0.0000000E+00 -0.5050505E-02 -0.4039459E-04  0.0000000E+00  0.3862942E-03
 -0.3985156E-02  0.0000000E+00 -0.5050505E-02 -0.3587149E-04  0.0000000E+00  0.3703111E-03
 -0.3669499E-02  0.0000000E+00 -0.5050505E-02 -0.3146514E-04  0.0000000E+00  0.3562111E-03
 -0.3353842E-02  0.0000000E+00 -0.5050505E-02 -0.2715635E-04  0.0000000E+00  0.3439286E-03
 -0.2978990E-02  0.0000000E+00 -0.5050505E-02 -0.2290858E-04  0.0000000E+00  0.3333927E-03
 -0.2347676E-02  0.0000000E+00 -0.5050505E-02 -0.1865579E-04  0.0000000E+00  0.3245212E-03
 -0.1716362E-02  0.0000000E+00 -0.5050505E-02 -0.1428466E-04  0.0000000E+00  0.3171932E-03
 -0.1025842E-02  0.0000000E+00 -0.5050505E-02 -0.9612871E-05  0.0000000E+00  0.3111677E-03
  0.2367855E-03  0.0000000E+00 -0.5050505E-02 -0.4406056E-05  0.0000000E+00  0.3058853E-03
  0.1499413E-02  0.0000000E+00 -0.5050505E-02  0.1314580E-05  0.0000000E+00  0.3001435E-03
  0.5287294E-02  0.0000000E+00 -0.5050505E-02  0.5428059E-05  0.0000000E+00  0.2926791E-03
 -0.5050505E-02  0.0000000E+00 -0.5050505E-02  0.5106379E-06  0.0000000E+00  0.4244787E-04
 -0.5050505E-02  0.0000000E+00 -0.5050505E-02  0.1533221E-05  0.0000000E+00  0.4274136E-04
 -0.5050505E-02  0.0000000E+00 -0.5050505E-02  0.2559756E-05  0.0000000E+00  0.4332905E-04
 -0.5050505E-02  0.0000000E+00 -0.5050505E-02  0.3592950E-05  0.0000000E+00  0.4421243E-04
 -0.5050505E-02  0.0000000E+00 -0.5050505E-02  0.4635603E-05  0.0000000E+00  0.4539376E-04
 -0.5050505E-02  0.0000000E+00 -0.5050505E-02  0.5690644E-05  0.0000000E+00  0.4687616E-04
 -0.5050504E-02  0.0000000E+00 -0.5050505E-02  0.6761164E-05  0.0000000E+00  0.4866361E-04
 -0.5050501E-02  0.0000000E+00 -0.5050505E-02  0.7850459E-05  0.0000000E+00  0.5076101E-04
 -0.5050495E-02  0.0000000E+00 -0.5050505E-02  0.8962073E-05  0.0000000E+00  0.5317424E-04
 -0.5050482E-02  0.0000000E+00 -0.5050505E-02  0.1009985E-04  0.0000000E+00  0.5591023E-04
 -0.5050449E-02  0.0000000E+00 -0.5050505E-02  0.1126801E-04  0.0000000E+00  0.5897706E-04
 -0.5050376E-02  0.0000000E+00 -0.5050505E-02  0.1247119E-04  0.0000000E+00  0.6238408E-04
 -0.5050299E-02  0.0000000E+00 -0.5050505E-02  0.1371454E-04  0.0000000E+00  0.6614202E-04
 -0.5050178E-02  0.0000000E+00 -0.5050505E-02  0.1500380E-04  0.0000000E+00  0.7026313E-04
 -0.5050018E-02  0.0000000E+00 -0.5050505E-02  0.1634547E-04  0.0000000E+00  0.7476139E-04
 -0.5049710E-02  0.0000000E+00 -0.5050505E-02  0.1774683E-04  0.0000000E+00  0.7965272E-04
 -0.5049253E-02  0.0000000E+00 -0.5050505E-02  0.1921623E-04  0.0000000E+00  0.8495520E-04
 -0.5048636E-02  0.0000000E+00 -0.5050505E-02  0.2076315E-04  0.0000000E+00  0.9068939E-04
 -0.5047442E-02  0.0000000E+00 -0.5050505E-02  0.2239851E-04  0.0000000E+00  0.9687865E-04
 -0.5045727E-02  0.0000000E+00 -0.5050505E-02  0.2413491E-04  0.0000000E+00  0.1035496E-03
 -0.5043261E-02  0.0000000E+00 -0.5050505E-02  0.2598696E-04  0.0000000E+00  0.1107326E-03
 -0.5038714E-02  0.0000000E+00 -0.5050505E-02  0.2797171E-04  0.0000000E+00  0.1184621E-03
 -0.5032318E-02  0.0000000E+00 -0.5050505E-02  0.3010913E-04  0.0000000E+00  0.1267779E-03
 -0.5022454E-02  0.0000000E+00 -0.5050505E-02  0.3242275E-04  0.0000000E+00  0.1357252E-03
 -0.5012589E-02  0.0000000E+00 -0.5050505E-02  0.3494047E-04  0.0000000E+00  0.1453562E-03
 -0.5002725E-02  0.0000000E+00 -0.5050505E-02  0.3769555E-04  0.0000000E+00  0.1557309E-03
 -0.4992860E-02  0.0000000E+00 -0.5050505E-02  0.4072800E-04  0.0000000E+00  0.1669190E-03
 -0.4976523E-02  0.0000000E+00 -0.5050505E-02  0.4408622E-04  0.0000000E+00  0.1790007E-03
 -0.4956794E-02  0.0000000E+00 -0.5050505E-02  0.4782936E-04  0.0000000E+00  0.1920696E-03
 -0.4937066E-02  0.0000000E+00 -0.5050505E-02  0.5203047E-04  0.0000000E+00  0.2062346E-03