title = "dataset feddes"
variables = "time", "water mass", "water filled volume", "gas filled volume" 
zone t = "system mass -  variably saturated flow", f=point
  0.0000E+00  2.2105E-01  2.2105E-01  2.0695E-01
  1.0000E-10  2.2105E-01  2.2105E-01  2.0695E-01
  6.0000E-10  2.2105E-01  2.2105E-01  2.0695E-01
  3.1000E-09  2.2105E-01  2.2105E-01  2.0695E-01
  1.5600E-08  2.2105E-01  2.2105E-01  2.0695E-01
  7.8100E-08  2.2105E-01  2.2105E-01  2.0695E-01
  3.9060E-07  2.2105E-01  2.2105E-01  2.0695E-01
  1.9531E-06  2.2105E-01  2.2105E-01  2.0695E-01
  9.7656E-06  2.2105E-01  2.2105E-01  2.0695E-01
  4.8828E-05  2.2105E-01  2.2105E-01  2.0695E-01
  2.4414E-04  2.2105E-01  2.2105E-01  2.0695E-01
  1.2207E-03  2.2105E-01  2.2105E-01  2.0695E-01
  6.1035E-03  2.2105E-01  2.2105E-01  2.0695E-01
  3.0518E-02  2.2105E-01  2.2105E-01  2.0695E-01
  1.5259E-01  2.2105E-01  2.2105E-01  2.0695E-01
  7.6294E-01  2.2105E-01  2.2105E-01  2.0695E-01
  1.0000E+00  2.2105E-01  2.2105E-01  2.0695E-01
  2.0000E+00  2.1748E-01  2.1748E-01  2.1052E-01
  3.0000E+00  2.1575E-01  2.1575E-01  2.1225E-01
  4.0000E+00  2.1447E-01  2.1447E-01  2.1353E-01
  5.0000E+00  2.1341E-01  2.1341E-01  2.1459E-01
  6.0000E+00  2.1249E-01  2.1249E-01  2.1551E-01
  7.0000E+00  2.1167E-01  2.1167E-01  2.1633E-01
  8.0000E+00  2.1091E-01  2.1091E-01  2.1709E-01
  9.0000E+00  2.1021E-01  2.1021E-01  2.1779E-01
  1.0000E+01  2.0956E-01  2.0956E-01  2.1844E-01
  1.1000E+01  2.0894E-01  2.0894E-01  2.1906E-01
  1.2000E+01  2.0835E-01  2.0835E-01  2.1965E-01
  1.3000E+01  2.0779E-01  2.0779E-01  2.2021E-01
  1.4000E+01  2.0724E-01  2.0724E-01  2.2076E-01
  1.5000E+01  2.0671E-01  2.0671E-01  2.2129E-01
  1.6000E+01  2.0620E-01  2.0620E-01  2.2180E-01
  1.7000E+01  2.0569E-01  2.0569E-01  2.2231E-01
  1.8000E+01  2.0517E-01  2.0517E-01  2.2283E-01
  1.9000E+01  2.0467E-01  2.0467E-01  2.2333E-01
  2.0000E+01  2.0417E-01  2.0417E-01  2.2383E-01
  2.1000E+01  2.0363E-01  2.0363E-01  2.2437E-01
  2.2000E+01  2.0311E-01  2.0311E-01  2.2489E-01
  2.3000E+01  2.0251E-01  2.0251E-01  2.2549E-01
  2.4000E+01  2.0188E-01  2.0188E-01  2.2612E-01
  2.5000E+01  2.0119E-01  2.0119E-01  2.2681E-01
  2.6000E+01  2.0052E-01  2.0052E-01  2.2748E-01
  2.7000E+01  1.9974E-01  1.9974E-01  2.2826E-01
  2.8000E+01  1.9890E-01  1.9890E-01  2.2910E-01
  2.9000E+01  1.9798E-01  1.9798E-01  2.3002E-01
  3.0000E+01  1.9683E-01  1.9683E-01  2.3117E-01
  3.1000E+01  1.9552E-01  1.9552E-01  2.3248E-01
  3.2000E+01  1.9402E-01  1.9402E-01  2.3398E-01
  3.3000E+01  1.9218E-01  1.9218E-01  2.3582E-01
  3.4000E+01  1.9025E-01  1.9025E-01  2.3775E-01
  3.5000E+01  1.8822E-01  1.8822E-01  2.3978E-01
  3.6000E+01  1.8601E-01  1.8601E-01  2.4199E-01
  3.7000E+01  1.8347E-01  1.8347E-01  2.4453E-01
  3.8000E+01  1.8088E-01  1.8088E-01  2.4712E-01
  3.9000E+01  1.7826E-01  1.7826E-01  2.4974E-01
  4.0000E+01  1.7573E-01  1.7573E-01  2.5227E-01
  4.1000E+01  1.7295E-01  1.7295E-01  2.5505E-01
  4.1500E+01  1.7148E-01  1.7148E-01  2.5652E-01
  4.2000E+01  1.7009E-01  1.7009E-01  2.5791E-01
  4.2500E+01  1.6864E-01  1.6864E-01  2.5936E-01
  4.3000E+01  1.6726E-01  1.6726E-01  2.6074E-01
  4.3500E+01  1.6580E-01  1.6580E-01  2.6220E-01
  4.4000E+01  1.6442E-01  1.6442E-01  2.6358E-01
  4.4500E+01  1.6302E-01  1.6302E-01  2.6498E-01
  4.5000E+01  1.6171E-01  1.6171E-01  2.6629E-01
  4.6000E+01  1.5908E-01  1.5908E-01  2.6892E-01
  4.7000E+01  1.5668E-01  1.5668E-01  2.7132E-01
  4.8000E+01  1.5419E-01  1.5419E-01  2.7381E-01
  4.8250E+01  1.5349E-01  1.5349E-01  2.7451E-01
  4.8625E+01  1.5250E-01  1.5250E-01  2.7550E-01
  4.9000E+01  1.5157E-01  1.5157E-01  2.7643E-01
  4.9500E+01  1.5036E-01  1.5036E-01  2.7764E-01
  5.0000E+01  1.4924E-01  1.4924E-01  2.7876E-01
  5.1000E+01  1.4702E-01  1.4702E-01  2.8098E-01
  5.1250E+01  1.4645E-01  1.4645E-01  2.8155E-01
  5.2000E+01  1.4491E-01  1.4491E-01  2.8309E-01
  5.2250E+01  1.4433E-01  1.4433E-01  2.8367E-01
  5.2625E+01  1.4352E-01  1.4352E-01  2.8448E-01
  5.3000E+01  1.4276E-01  1.4276E-01  2.8524E-01
  5.3500E+01  1.4177E-01  1.4177E-01  2.8623E-01
  5.3750E+01  1.4129E-01  1.4129E-01  2.8671E-01
  5.4000E+01  1.4084E-01  1.4084E-01  2.8716E-01
  5.4250E+01  1.4029E-01  1.4029E-01  2.8771E-01
  5.4625E+01  1.3953E-01  1.3953E-01  2.8847E-01
  5.5000E+01  1.3882E-01  1.3882E-01  2.8918E-01
  5.5250E+01  1.3833E-01  1.3833E-01  2.8967E-01
  5.5438E+01  1.3797E-01  1.3797E-01  2.9003E-01
  5.6000E+01  1.3701E-01  1.3701E-01  2.9099E-01
  5.6250E+01  1.3652E-01  1.3652E-01  2.9148E-01
  5.6625E+01  1.3583E-01  1.3583E-01  2.9217E-01
  5.6812E+01  1.3550E-01  1.3550E-01  2.9250E-01
  5.7000E+01  1.3518E-01  1.3518E-01  2.9282E-01
  5.7500E+01  1.3432E-01  1.3432E-01  2.9368E-01
  5.7750E+01  1.3392E-01  1.3392E-01  2.9408E-01
  5.8000E+01  1.3353E-01  1.3353E-01  2.9447E-01
  5.8500E+01  1.3277E-01  1.3277E-01  2.9523E-01
  5.8750E+01  1.3240E-01  1.3240E-01  2.9560E-01
  5.9000E+01  1.3205E-01  1.3205E-01  2.9595E-01
  5.9250E+01  1.3161E-01  1.3161E-01  2.9639E-01
  5.9438E+01  1.3129E-01  1.3129E-01  2.9671E-01
  6.0000E+01  1.3043E-01  1.3043E-01  2.9757E-01
