title = "dataset feddes"
variables = "x", "y", "z", "vx", "vy", "vz"
zone t = "velocities, solution time =  2.400E+01 days        " i =   99, j =   99, k =    1,  f=point
 -0.5050505E-02  0.0000000E+00 -0.5050505E-02  0.7226970E-09  0.0000000E+00 -0.3668742E-03
 -0.5050505E-02  0.0000000E+00 -0.5050505E-02  0.2166897E-08  0.0000000E+00 -0.3668711E-03
 -0.5050505E-02  0.0000000E+00 -0.5050505E-02  0.3607382E-08  0.0000000E+00 -0.3668651E-03
 -0.5050505E-02  0.0000000E+00 -0.5050505E-02  0.5041655E-08  0.0000000E+00 -0.3668561E-03
 -0.5050505E-02  0.0000000E+00 -0.5050505E-02  0.6467229E-08  0.0000000E+00 -0.3668441E-03
 -0.5050505E-02  0.0000000E+00 -0.5050505E-02  0.7881599E-08  0.0000000E+00 -0.3668291E-03
 -0.5050504E-02  0.0000000E+00 -0.5050505E-02  0.9282249E-08  0.0000000E+00 -0.3668112E-03
 -0.5050501E-02  0.0000000E+00 -0.5050505E-02  0.1066664E-07  0.0000000E+00 -0.3667904E-03
 -0.5050495E-02  0.0000000E+00 -0.5050505E-02  0.1203223E-07  0.0000000E+00 -0.3667667E-03
 -0.5050482E-02  0.0000000E+00 -0.5050505E-02  0.1337642E-07  0.0000000E+00 -0.3667401E-03
 -0.5050449E-02  0.0000000E+00 -0.5050505E-02  0.1469663E-07  0.0000000E+00 -0.3667108E-03
 -0.5050376E-02  0.0000000E+00 -0.5050505E-02  0.1599022E-07  0.0000000E+00 -0.3666788E-03
 -0.5050299E-02  0.0000000E+00 -0.5050505E-02  0.1725453E-07  0.0000000E+00 -0.3666441E-03
 -0.5050178E-02  0.0000000E+00 -0.5050505E-02  0.1848688E-07  0.0000000E+00 -0.3666068E-03
 -0.5050018E-02  0.0000000E+00 -0.5050505E-02  0.1968453E-07  0.0000000E+00 -0.3665670E-03
 -0.5049710E-02  0.0000000E+00 -0.5050505E-02  0.2084473E-07  0.0000000E+00 -0.3665247E-03
 -0.5049253E-02  0.0000000E+00 -0.5050505E-02  0.2196469E-07  0.0000000E+00 -0.3664800E-03
 -0.5048636E-02  0.0000000E+00 -0.5050505E-02  0.2304158E-07  0.0000000E+00 -0.3664330E-03
 -0.5047442E-02  0.0000000E+00 -0.5050505E-02  0.2407252E-07  0.0000000E+00 -0.3663838E-03
 -0.5045727E-02  0.0000000E+00 -0.5050505E-02  0.2505462E-07  0.0000000E+00 -0.3663326E-03
 -0.5043261E-02  0.0000000E+00 -0.5050505E-02  0.2598491E-07  0.0000000E+00 -0.3662793E-03
 -0.5038714E-02  0.0000000E+00 -0.5050505E-02  0.2686042E-07  0.0000000E+00 -0.3662241E-03
 -0.5032318E-02  0.0000000E+00 -0.5050505E-02  0.2767811E-07  0.0000000E+00 -0.3661672E-03
 -0.5022454E-02  0.0000000E+00 -0.5050505E-02  0.2843493E-07  0.0000000E+00 -0.3661086E-03
 -0.5012589E-02  0.0000000E+00 -0.5050505E-02  0.2912776E-07  0.0000000E+00 -0.3660486E-03
 -0.5002725E-02  0.0000000E+00 -0.5050505E-02  0.2975346E-07  0.0000000E+00 -0.3659871E-03
 -0.4992860E-02  0.0000000E+00 -0.5050505E-02  0.3030886E-07  0.0000000E+00 -0.3659244E-03
 -0.4976523E-02  0.0000000E+00 -0.5050505E-02  0.3079074E-07  0.0000000E+00 -0.3658607E-03
 -0.4956794E-02  0.0000000E+00 -0.5050505E-02  0.3119586E-07  0.0000000E+00 -0.3657960E-03
 -0.4937066E-02  0.0000000E+00 -0.5050505E-02  0.3152097E-07  0.0000000E+00 -0.3657305E-03
 -0.4906239E-02  0.0000000E+00 -0.5050505E-02  0.3176278E-07  0.0000000E+00 -0.3656645E-03
 -0.4866782E-02  0.0000000E+00 -0.5050505E-02  0.3191800E-07  0.0000000E+00 -0.3655980E-03
 -0.4827325E-02  0.0000000E+00 -0.5050505E-02  0.3198334E-07  0.0000000E+00 -0.3655313E-03
 -0.4769372E-02  0.0000000E+00 -0.5050505E-02  0.3195552E-07  0.0000000E+00 -0.3654646E-03
 -0.4690458E-02  0.0000000E+00 -0.5050505E-02  0.3183133E-07  0.0000000E+00 -0.3653980E-03
 -0.4611543E-02  0.0000000E+00 -0.5050505E-02  0.3160756E-07  0.0000000E+00 -0.3653318E-03
 -0.4503035E-02  0.0000000E+00 -0.5050505E-02  0.3128111E-07  0.0000000E+00 -0.3652662E-03
 -0.4345206E-02  0.0000000E+00 -0.5050505E-02  0.3084902E-07  0.0000000E+00 -0.3652013E-03
 -0.4187378E-02  0.0000000E+00 -0.5050505E-02  0.3030843E-07  0.0000000E+00 -0.3651375E-03
 -0.3985156E-02  0.0000000E+00 -0.5050505E-02  0.2965672E-07  0.0000000E+00 -0.3650749E-03
 -0.3669499E-02  0.0000000E+00 -0.5050505E-02  0.2889150E-07  0.0000000E+00 -0.3650138E-03
 -0.3353842E-02  0.0000000E+00 -0.5050505E-02  0.2801071E-07  0.0000000E+00 -0.3649545E-03
 -0.2978990E-02  0.0000000E+00 -0.5050505E-02  0.2701265E-07  0.0000000E+00 -0.3648970E-03
 -0.2347676E-02  0.0000000E+00 -0.5050505E-02  0.2589609E-07  0.0000000E+00 -0.3648418E-03
 -0.1716362E-02  0.0000000E+00 -0.5050505E-02  0.2466036E-07  0.0000000E+00 -0.3647891E-03
 -0.1025842E-02  0.0000000E+00 -0.5050505E-02  0.2330540E-07  0.0000000E+00 -0.3647390E-03
  0.2367855E-03  0.0000000E+00 -0.5050505E-02  0.2183190E-07  0.0000000E+00 -0.3646919E-03
  0.1499413E-02  0.0000000E+00 -0.5050505E-02  0.2024138E-07  0.0000000E+00 -0.3646480E-03
  0.2762042E-02  0.0000000E+00 -0.5050505E-02  0.1853627E-07  0.0000000E+00 -0.3646076E-03
 -0.5050505E-02  0.0000000E+00 -0.5050505E-02  0.1672007E-07  0.0000000E+00 -0.3645708E-03
 -0.5050505E-02  0.0000000E+00 -0.5050505E-02  0.1479737E-07  0.0000000E+00 -0.3645379E-03
 -0.5050505E-02  0.0000000E+00 -0.5050505E-02  0.1277397E-07  0.0000000E+00 -0.3645091E-03
 -0.5050505E-02  0.0000000E+00 -0.5050505E-02  0.1065692E-07  0.0000000E+00 -0.3644846E-03
 -0.5050505E-02  0.0000000E+00 -0.5050505E-02  0.8454582E-08  0.0000000E+00 -0.3644647E-03
 -0.5050505E-02  0.0000000E+00 -0.5050505E-02  0.6176607E-08  0.0000000E+00 -0.3644494E-03
 -0.5050505E-02  0.0000000E+00 -0.5050505E-02  0.3833946E-08  0.0000000E+00 -0.3644390E-03
 -0.5050504E-02  0.0000000E+00 -0.5050505E-02  0.1438775E-08  0.0000000E+00 -0.3644335E-03
 -0.5050501E-02  0.0000000E+00 -0.5050505E-02 -0.9956014E-09  0.0000000E+00 -0.3644330E-03
 -0.5050495E-02  0.0000000E+00 -0.5050505E-02 -0.3454882E-08  0.0000000E+00 -0.3644377E-03
 -0.5050482E-02  0.0000000E+00 -0.5050505E-02 -0.5923961E-08  0.0000000E+00 -0.3644475E-03
 -0.5050449E-02  0.0000000E+00 -0.5050505E-02 -0.8387147E-08  0.0000000E+00 -0.3644624E-03
 -0.5050376E-02  0.0000000E+00 -0.5050505E-02 -0.1082842E-07  0.0000000E+00 -0.3644824E-03
 -0.5050299E-02  0.0000000E+00 -0.5050505E-02 -0.1323172E-07  0.0000000E+00 -0.3645076E-03
 -0.5050178E-02  0.0000000E+00 -0.5050505E-02 -0.1558126E-07  0.0000000E+00 -0.3645376E-03
 -0.5050018E-02  0.0000000E+00 -0.5050505E-02 -0.1786188E-07  0.0000000E+00 -0.3645725E-03
 -0.5049710E-02  0.0000000E+00 -0.5050505E-02 -0.2005935E-07  0.0000000E+00 -0.3646121E-03
 -0.5049253E-02  0.0000000E+00 -0.5050505E-02 -0.2216075E-07  0.0000000E+00 -0.3646561E-03
 -0.5048636E-02  0.0000000E+00 -0.5050505E-02 -0.2415481E-07  0.0000000E+00 -0.3647045E-03
 -0.5047442E-02  0.0000000E+00 -0.5050505E-02 -0.2603226E-07  0.0000000E+00 -0.3647568E-03
 -0.5045727E-02  0.0000000E+00 -0.5050505E-02 -0.2778617E-07  0.0000000E+00 -0.3648130E-03
 -0.5043261E-02  0.0000000E+00 -0.5050505E-02 -0.2941228E-07  0.0000000E+00 -0.3648727E-03
 -0.5038714E-02  0.0000000E+00 -0.5050505E-02 -0.3090941E-07  0.0000000E+00 -0.3649356E-03
 -0.5032318E-02  0.0000000E+00 -0.5050505E-02 -0.3227981E-07  0.0000000E+00 -0.3650016E-03
 -0.5022454E-02  0.0000000E+00 -0.5050505E-02 -0.3352968E-07  0.0000000E+00 -0.3650703E-03
 -0.5012589E-02  0.0000000E+00 -0.5050505E-02 -0.3466976E-07  0.0000000E+00 -0.3651414E-03
 -0.5002725E-02  0.0000000E+00 -0.5050505E-02 -0.3571605E-07  0.0000000E+00 -0.3652149E-03
 -0.4992860E-02  0.0000000E+00 -0.5050505E-02 -0.3669092E-07  0.0000000E+00 -0.3652905E-03
 -0.4976523E-02  0.0000000E+00 -0.5050505E-02 -0.3762459E-07  0.0000000E+00 -0.3653680E-03
 -0.4956794E-02  0.0000000E+00 -0.5050505E-02 -0.3855718E-07  0.0000000E+00 -0.3654475E-03
 -0.4937066E-02  0.0000000E+00 -0.5050505E-02 -0.3954184E-07  0.0000000E+00 -0.3655290E-03
 -0.4906239E-02  0.0000000E+00 -0.5050505E-02 -0.4064919E-07  0.0000000E+00 -0.3656127E-03
 -0.4866782E-02  0.0000000E+00 -0.5050505E-02 -0.4197418E-07  0.0000000E+00 -0.3656989E-03
 -0.4827325E-02  0.0000000E+00 -0.5050505E-02 -0.4364628E-07  0.0000000E+00 -0.3657883E-03
 -0.4769372E-02  0.0000000E+00 -0.5050505E-02 -0.4584561E-07  0.0000000E+00 -0.3658817E-03
 -0.4690458E-02  0.0000000E+00 -0.5050505E-02 -0.4882837E-07  0.0000000E+00 -0.3659805E-03
 -0.4611543E-02  0.0000000E+00 -0.5050505E-02 -0.5296859E-07  0.0000000E+00 -0.3660867E-03
 -0.4503035E-02  0.0000000E+00 -0.5050505E-02 -0.5882848E-07  0.0000000E+00 -0.3662034E-03
 -0.4345206E-02  0.0000000E+00 -0.5050505E-02 -0.6728155E-07  0.0000000E+00 -0.3663351E-03
 -0.4187378E-02  0.0000000E+00 -0.5050505E-02 -0.7973694E-07  0.0000000E+00 -0.3664885E-03
 -0.3985156E-02  0.0000000E+00 -0.5050505E-02 -0.9856884E-07  0.0000000E+00 -0.3666746E-03
 -0.3669499E-02  0.0000000E+00 -0.5050505E-02 -0.1279852E-06  0.0000000E+00 -0.3669111E-03
 -0.3353842E-02  0.0000000E+00 -0.5050505E-02 -0.1759047E-06  0.0000000E+00 -0.3672283E-03
 -0.2978990E-02  0.0000000E+00 -0.5050505E-02 -0.2583263E-06  0.0000000E+00 -0.3676815E-03
 -0.2347676E-02  0.0000000E+00 -0.5050505E-02 -0.4104086E-06  0.0000000E+00 -0.3683796E-03
 -0.1716362E-02  0.0000000E+00 -0.5050505E-02 -0.7172788E-06  0.0000000E+00 -0.3695569E-03
 -0.1025842E-02  0.0000000E+00 -0.5050505E-02 -0.1408373E-05  0.0000000E+00 -0.3717763E-03
  0.2367855E-03  0.0000000E+00 -0.5050505E-02 -0.3174808E-05  0.0000000E+00 -0.3765630E-03
  0.1499413E-02  0.0000000E+00 -0.5050505E-02 -0.8333516E-05  0.0000000E+00 -0.3885899E-03
  0.5287294E-02  0.0000000E+00 -0.5050505E-02 -0.1367742E-03  0.0000000E+00 -0.3099555E-03
 -0.5050505E-02  0.0000000E+00 -0.5050505E-02  0.2172306E-08  0.0000000E+00 -0.3666258E-03
 -0.5050505E-02  0.0000000E+00 -0.5050505E-02  0.6513307E-08  0.0000000E+00 -0.3666228E-03
 -0.5050505E-02  0.0000000E+00 -0.5050505E-02  0.1084316E-07  0.0000000E+00 -0.3666167E-03
 -0.5050505E-02  0.0000000E+00 -0.5050505E-02  0.1515439E-07  0.0000000E+00 -0.3666076E-03
 -0.5050505E-02  0.0000000E+00 -0.5050505E-02  0.1943951E-07  0.0000000E+00 -0.3665955E-03
 -0.5050505E-02  0.0000000E+00 -0.5050505E-02  0.2369103E-07  0.0000000E+00 -0.3665804E-03
 -0.5050504E-02  0.0000000E+00 -0.5050505E-02  0.2790137E-07  0.0000000E+00 -0.3665624E-03
 -0.5050501E-02  0.0000000E+00 -0.5050505E-02  0.3206294E-07  0.0000000E+00 -0.3665414E-03
 -0.5050495E-02  0.0000000E+00 -0.5050505E-02  0.3616808E-07  0.0000000E+00 -0.3665176E-03
 -0.5050482E-02  0.0000000E+00 -0.5050505E-02  0.4020904E-07  0.0000000E+00 -0.3664909E-03
 -0.5050449E-02  0.0000000E+00 -0.5050505E-02  0.4417803E-07  0.0000000E+00 -0.3664613E-03
 -0.5050376E-02  0.0000000E+00 -0.5050505E-02  0.4806714E-07  0.0000000E+00 -0.3664291E-03
 -0.5050299E-02  0.0000000E+00 -0.5050505E-02  0.5186840E-07  0.0000000E+00 -0.3663941E-03
 -0.5050178E-02  0.0000000E+00 -0.5050505E-02  0.5557373E-07  0.0000000E+00 -0.3663565E-03
 -0.5050018E-02  0.0000000E+00 -0.5050505E-02  0.5917496E-07  0.0000000E+00 -0.3663164E-03
 -0.5049710E-02  0.0000000E+00 -0.5050505E-02  0.6266381E-07  0.0000000E+00 -0.3662738E-03
 -0.5049253E-02  0.0000000E+00 -0.5050505E-02  0.6603190E-07  0.0000000E+00 -0.3662288E-03
 -0.5048636E-02  0.0000000E+00 -0.5050505E-02  0.6927071E-07  0.0000000E+00 -0.3661814E-03
 -0.5047442E-02  0.0000000E+00 -0.5050505E-02  0.7237164E-07  0.0000000E+00 -0.3661319E-03
 -0.5045727E-02  0.0000000E+00 -0.5050505E-02  0.7532596E-07  0.0000000E+00 -0.3660802E-03
 -0.5043261E-02  0.0000000E+00 -0.5050505E-02  0.7812481E-07  0.0000000E+00 -0.3660265E-03
 -0.5038714E-02  0.0000000E+00 -0.5050505E-02  0.8075921E-07  0.0000000E+00 -0.3659710E-03
 -0.5032318E-02  0.0000000E+00 -0.5050505E-02  0.8322008E-07  0.0000000E+00 -0.3659136E-03
 -0.5022454E-02  0.0000000E+00 -0.5050505E-02  0.8549820E-07  0.0000000E+00 -0.3658546E-03
 -0.5012589E-02  0.0000000E+00 -0.5050505E-02  0.8758424E-07  0.0000000E+00 -0.3657940E-03
 -0.5002725E-02  0.0000000E+00 -0.5050505E-02  0.8946877E-07  0.0000000E+00 -0.3657320E-03
 -0.4992860E-02  0.0000000E+00 -0.5050505E-02  0.9114222E-07  0.0000000E+00 -0.3656688E-03
 -0.4976523E-02  0.0000000E+00 -0.5050505E-02  0.9259495E-07  0.0000000E+00 -0.3656045E-03
 -0.4956794E-02  0.0000000E+00 -0.5050505E-02  0.9381721E-07  0.0000000E+00 -0.3655393E-03
 -0.4937066E-02  0.0000000E+00 -0.5050505E-02  0.9479918E-07  0.0000000E+00 -0.3654732E-03
 -0.4906239E-02  0.0000000E+00 -0.5050505E-02  0.9553099E-07  0.0000000E+00 -0.3654066E-03
 -0.4866782E-02  0.0000000E+00 -0.5050505E-02  0.9600274E-07  0.0000000E+00 -0.3653396E-03
 -0.4827325E-02  0.0000000E+00 -0.5050505E-02  0.9620452E-07  0.0000000E+00 -0.3652723E-03
 -0.4769372E-02  0.0000000E+00 -0.5050505E-02  0.9612647E-07  0.0000000E+00 -0.3652049E-03
 -0.4690458E-02  0.0000000E+00 -0.5050505E-02  0.9575883E-07  0.0000000E+00 -0.3651377E-03
 -0.4611543E-02  0.0000000E+00 -0.5050505E-02  0.9509200E-07  0.0000000E+00 -0.3650709E-03
 -0.4503035E-02  0.0000000E+00 -0.5050505E-02  0.9411660E-07  0.0000000E+00 -0.3650046E-03
 -0.4345206E-02  0.0000000E+00 -0.5050505E-02  0.9282362E-07  0.0000000E+00 -0.3649391E-03
 -0.4187378E-02  0.0000000E+00 -0.5050505E-02  0.9120447E-07  0.0000000E+00 -0.3648746E-03
 -0.3985156E-02  0.0000000E+00 -0.5050505E-02  0.8925116E-07  0.0000000E+00 -0.3648114E-03
 -0.3669499E-02  0.0000000E+00 -0.5050505E-02  0.8695645E-07  0.0000000E+00 -0.3647496E-03
 -0.3353842E-02  0.0000000E+00 -0.5050505E-02  0.8431402E-07  0.0000000E+00 -0.3646896E-03
 -0.2978990E-02  0.0000000E+00 -0.5050505E-02  0.8131871E-07  0.0000000E+00 -0.3646315E-03
 -0.2347676E-02  0.0000000E+00 -0.5050505E-02  0.7796670E-07  0.0000000E+00 -0.3645756E-03
 -0.1716362E-02  0.0000000E+00 -0.5050505E-02  0.7425582E-07  0.0000000E+00 -0.3645222E-03
 -0.1025842E-02  0.0000000E+00 -0.5050505E-02  0.7018580E-07  0.0000000E+00 -0.3644715E-03
  0.2367855E-03  0.0000000E+00 -0.5050505E-02  0.6575857E-07  0.0000000E+00 -0.3644238E-03
  0.1499413E-02  0.0000000E+00 -0.5050505E-02  0.6097857E-07  0.0000000E+00 -0.3643793E-03
  0.2762042E-02  0.0000000E+00 -0.5050505E-02  0.5585303E-07  0.0000000E+00 -0.3643383E-03
 -0.5050505E-02  0.0000000E+00 -0.5050505E-02  0.5039230E-07  0.0000000E+00 -0.3643009E-03
 -0.5050505E-02  0.0000000E+00 -0.5050505E-02  0.4461010E-07  0.0000000E+00 -0.3642675E-03
 -0.5050505E-02  0.0000000E+00 -0.5050505E-02  0.3852378E-07  0.0000000E+00 -0.3642383E-03
 -0.5050505E-02  0.0000000E+00 -0.5050505E-02  0.3215449E-07  0.0000000E+00 -0.3642134E-03
 -0.5050505E-02  0.0000000E+00 -0.5050505E-02  0.2552731E-07  0.0000000E+00 -0.3641931E-03
 -0.5050505E-02  0.0000000E+00 -0.5050505E-02  0.1867129E-07  0.0000000E+00 -0.3641775E-03
 -0.5050505E-02  0.0000000E+00 -0.5050505E-02  0.1161940E-07  0.0000000E+00 -0.3641668E-03
 -0.5050504E-02  0.0000000E+00 -0.5050505E-02  0.4408322E-08  0.0000000E+00 -0.3641610E-03
 -0.5050501E-02  0.0000000E+00 -0.5050505E-02 -0.2921798E-08  0.0000000E+00 -0.3641604E-03
 -0.5050495E-02  0.0000000E+00 -0.5050505E-02 -0.1032779E-07  0.0000000E+00 -0.3641649E-03
 -0.5050482E-02  0.0000000E+00 -0.5050505E-02 -0.1776401E-07  0.0000000E+00 -0.3641747E-03
 -0.5050449E-02  0.0000000E+00 -0.5050505E-02 -0.2518302E-07  0.0000000E+00 -0.3641897E-03
 -0.5050376E-02  0.0000000E+00 -0.5050505E-02 -0.3253636E-07  0.0000000E+00 -0.3642098E-03
 -0.5050299E-02  0.0000000E+00 -0.5050505E-02 -0.3977540E-07  0.0000000E+00 -0.3642351E-03
 -0.5050178E-02  0.0000000E+00 -0.5050505E-02 -0.4685234E-07  0.0000000E+00 -0.3642654E-03
 -0.5050018E-02  0.0000000E+00 -0.5050505E-02 -0.5372121E-07  0.0000000E+00 -0.3643006E-03
 -0.5049710E-02  0.0000000E+00 -0.5050505E-02 -0.6033887E-07  0.0000000E+00 -0.3643405E-03
 -0.5049253E-02  0.0000000E+00 -0.5050505E-02 -0.6666610E-07  0.0000000E+00 -0.3643850E-03
 -0.5048636E-02  0.0000000E+00 -0.5050505E-02 -0.7266864E-07  0.0000000E+00 -0.3644338E-03
 -0.5047442E-02  0.0000000E+00 -0.5050505E-02 -0.7831822E-07  0.0000000E+00 -0.3644867E-03
 -0.5045727E-02  0.0000000E+00 -0.5050505E-02 -0.8359361E-07  0.0000000E+00 -0.3645434E-03
 -0.5043261E-02  0.0000000E+00 -0.5050505E-02 -0.8848162E-07  0.0000000E+00 -0.3646036E-03
 -0.5038714E-02  0.0000000E+00 -0.5050505E-02 -0.9297820E-07  0.0000000E+00 -0.3646672E-03
 -0.5032318E-02  0.0000000E+00 -0.5050505E-02 -0.9708962E-07  0.0000000E+00 -0.3647337E-03
 -0.5022454E-02  0.0000000E+00 -0.5050505E-02 -0.1008338E-06  0.0000000E+00 -0.3648030E-03
 -0.5012589E-02  0.0000000E+00 -0.5050505E-02 -0.1042423E-06  0.0000000E+00 -0.3648748E-03
 -0.5002725E-02  0.0000000E+00 -0.5050505E-02 -0.1073619E-06  0.0000000E+00 -0.3649488E-03
 -0.4992860E-02  0.0000000E+00 -0.5050505E-02 -0.1102584E-06  0.0000000E+00 -0.3650249E-03
 -0.4976523E-02  0.0000000E+00 -0.5050505E-02 -0.1130203E-06  0.0000000E+00 -0.3651029E-03
 -0.4956794E-02  0.0000000E+00 -0.5050505E-02 -0.1157650E-06  0.0000000E+00 -0.3651827E-03
 -0.4937066E-02  0.0000000E+00 -0.5050505E-02 -0.1186476E-06  0.0000000E+00 -0.3652645E-03
 -0.4906239E-02  0.0000000E+00 -0.5050505E-02 -0.1218734E-06  0.0000000E+00 -0.3653482E-03
 -0.4866782E-02  0.0000000E+00 -0.5050505E-02 -0.1257173E-06  0.0000000E+00 -0.3654342E-03
 -0.4827325E-02  0.0000000E+00 -0.5050505E-02 -0.1305520E-06  0.0000000E+00 -0.3655231E-03
 -0.4769372E-02  0.0000000E+00 -0.5050505E-02 -0.1368933E-06  0.0000000E+00 -0.3656155E-03
 -0.4690458E-02  0.0000000E+00 -0.5050505E-02 -0.1454693E-06  0.0000000E+00 -0.3657127E-03
 -0.4611543E-02  0.0000000E+00 -0.5050505E-02 -0.1573340E-06  0.0000000E+00 -0.3658164E-03
 -0.4503035E-02  0.0000000E+00 -0.5050505E-02 -0.1740550E-06  0.0000000E+00 -0.3659291E-03
 -0.4345206E-02  0.0000000E+00 -0.5050505E-02 -0.1980360E-06  0.0000000E+00 -0.3660544E-03
 -0.4187378E-02  0.0000000E+00 -0.5050505E-02 -0.2330903E-06  0.0000000E+00 -0.3661976E-03
 -0.3985156E-02  0.0000000E+00 -0.5050505E-02 -0.2855027E-06  0.0000000E+00 -0.3663670E-03
 -0.3669499E-02  0.0000000E+00 -0.5050505E-02 -0.3660898E-06  0.0000000E+00 -0.3665744E-03
 -0.3353842E-02  0.0000000E+00 -0.5050505E-02 -0.4944022E-06  0.0000000E+00 -0.3668387E-03
 -0.2978990E-02  0.0000000E+00 -0.5050505E-02 -0.7077860E-06  0.0000000E+00 -0.3671877E-03
 -0.2347676E-02  0.0000000E+00 -0.5050505E-02 -0.1082113E-05  0.0000000E+00 -0.3676610E-03
 -0.1716362E-02  0.0000000E+00 -0.5050505E-02 -0.1782175E-05  0.0000000E+00 -0.3682987E-03
 -0.1025842E-02  0.0000000E+00 -0.5050505E-02 -0.3191664E-05  0.0000000E+00 -0.3690572E-03
  0.2367855E-03  0.0000000E+00 -0.5050505E-02 -0.6266920E-05  0.0000000E+00 -0.3693732E-03
  0.1499413E-02  0.0000000E+00 -0.5050505E-02 -0.1354189E-04  0.0000000E+00 -0.3660629E-03
  0.5287294E-02  0.0000000E+00 -0.5050505E-02 -0.3205856E-04  0.0000000E+00 -0.3434215E-03
 -0.5050505E-02  0.0000000E+00 -0.5050505E-02  0.3635206E-08  0.0000000E+00 -0.3661405E-03
 -0.5050505E-02  0.0000000E+00 -0.5050505E-02  0.1089955E-07  0.0000000E+00 -0.3661374E-03
 -0.5050505E-02  0.0000000E+00 -0.5050505E-02  0.1814532E-07  0.0000000E+00 -0.3661313E-03
 -0.5050505E-02  0.0000000E+00 -0.5050505E-02  0.2536003E-07  0.0000000E+00 -0.3661221E-03
 -0.5050505E-02  0.0000000E+00 -0.5050505E-02  0.3253122E-07  0.0000000E+00 -0.3661098E-03
 -0.5050505E-02  0.0000000E+00 -0.5050505E-02  0.3964638E-07  0.0000000E+00 -0.3660945E-03
 -0.5050504E-02  0.0000000E+00 -0.5050505E-02  0.4669290E-07  0.0000000E+00 -0.3660762E-03
 -0.5050501E-02  0.0000000E+00 -0.5050505E-02  0.5365809E-07  0.0000000E+00 -0.3660549E-03
 -0.5050495E-02  0.0000000E+00 -0.5050505E-02  0.6052917E-07  0.0000000E+00 -0.3660307E-03
 -0.5050482E-02  0.0000000E+00 -0.5050505E-02  0.6729325E-07  0.0000000E+00 -0.3660037E-03
 -0.5050449E-02  0.0000000E+00 -0.5050505E-02  0.7393730E-07  0.0000000E+00 -0.3659737E-03
 -0.5050376E-02  0.0000000E+00 -0.5050505E-02  0.8044815E-07  0.0000000E+00 -0.3659410E-03
 -0.5050299E-02  0.0000000E+00 -0.5050505E-02  0.8681249E-07  0.0000000E+00 -0.3659055E-03
 -0.5050178E-02  0.0000000E+00 -0.5050505E-02  0.9301685E-07  0.0000000E+00 -0.3658674E-03
 -0.5050018E-02  0.0000000E+00 -0.5050505E-02  0.9904757E-07  0.0000000E+00 -0.3658267E-03
 -0.5049710E-02  0.0000000E+00 -0.5050505E-02  0.1048908E-06  0.0000000E+00 -0.3657835E-03
 -0.5049253E-02  0.0000000E+00 -0.5050505E-02  0.1105327E-06  0.0000000E+00 -0.3657378E-03
 -0.5048636E-02  0.0000000E+00 -0.5050505E-02  0.1159589E-06  0.0000000E+00 -0.3656898E-03
 -0.5047442E-02  0.0000000E+00 -0.5050505E-02  0.1211550E-06  0.0000000E+00 -0.3656395E-03
 -0.5045727E-02  0.0000000E+00 -0.5050505E-02  0.1261066E-06  0.0000000E+00 -0.3655870E-03
 -0.5043261E-02  0.0000000E+00 -0.5050505E-02  0.1307987E-06  0.0000000E+00 -0.3655325E-03
 -0.5038714E-02  0.0000000E+00 -0.5050505E-02  0.1352164E-06  0.0000000E+00 -0.3654761E-03
 -0.5032318E-02  0.0000000E+00 -0.5050505E-02  0.1393446E-06  0.0000000E+00 -0.3654178E-03
 -0.5022454E-02  0.0000000E+00 -0.5050505E-02  0.1431678E-06  0.0000000E+00 -0.3653579E-03
 -0.5012589E-02  0.0000000E+00 -0.5050505E-02  0.1466703E-06  0.0000000E+00 -0.3652963E-03
 -0.5002725E-02  0.0000000E+00 -0.5050505E-02  0.1498365E-06  0.0000000E+00 -0.3652334E-03
 -0.4992860E-02  0.0000000E+00 -0.5050505E-02  0.1526503E-06  0.0000000E+00 -0.3651691E-03
 -0.4976523E-02  0.0000000E+00 -0.5050505E-02  0.1550955E-06  0.0000000E+00 -0.3651038E-03
 -0.4956794E-02  0.0000000E+00 -0.5050505E-02  0.1571559E-06  0.0000000E+00 -0.3650374E-03
 -0.4937066E-02  0.0000000E+00 -0.5050505E-02  0.1588150E-06  0.0000000E+00 -0.3649703E-03
 -0.4906239E-02  0.0000000E+00 -0.5050505E-02  0.1600563E-06  0.0000000E+00 -0.3649025E-03
 -0.4866782E-02  0.0000000E+00 -0.5050505E-02  0.1608630E-06  0.0000000E+00 -0.3648343E-03
 -0.4827325E-02  0.0000000E+00 -0.5050505E-02  0.1612186E-06  0.0000000E+00 -0.3647658E-03
 -0.4769372E-02  0.0000000E+00 -0.5050505E-02  0.1611065E-06  0.0000000E+00 -0.3646972E-03
 -0.4690458E-02  0.0000000E+00 -0.5050505E-02  0.1605102E-06  0.0000000E+00 -0.3646287E-03
 -0.4611543E-02  0.0000000E+00 -0.5050505E-02  0.1594136E-06  0.0000000E+00 -0.3645606E-03
 -0.4503035E-02  0.0000000E+00 -0.5050505E-02  0.1578007E-06  0.0000000E+00 -0.3644931E-03
 -0.4345206E-02  0.0000000E+00 -0.5050505E-02  0.1556565E-06  0.0000000E+00 -0.3644263E-03
 -0.4187378E-02  0.0000000E+00 -0.5050505E-02  0.1529661E-06  0.0000000E+00 -0.3643605E-03
 -0.3985156E-02  0.0000000E+00 -0.5050505E-02  0.1497162E-06  0.0000000E+00 -0.3642959E-03
 -0.3669499E-02  0.0000000E+00 -0.5050505E-02  0.1458942E-06  0.0000000E+00 -0.3642328E-03
 -0.3353842E-02  0.0000000E+00 -0.5050505E-02  0.1414893E-06  0.0000000E+00 -0.3641715E-03
 -0.2978990E-02  0.0000000E+00 -0.5050505E-02  0.1364925E-06  0.0000000E+00 -0.3641121E-03
 -0.2347676E-02  0.0000000E+00 -0.5050505E-02  0.1308971E-06  0.0000000E+00 -0.3640549E-03
 -0.1716362E-02  0.0000000E+00 -0.5050505E-02  0.1246990E-06  0.0000000E+00 -0.3640002E-03
 -0.1025842E-02  0.0000000E+00 -0.5050505E-02  0.1178973E-06  0.0000000E+00 -0.3639483E-03
  0.2367855E-03  0.0000000E+00 -0.5050505E-02  0.1104949E-06  0.0000000E+00 -0.3638994E-03
  0.1499413E-02  0.0000000E+00 -0.5050505E-02  0.1024988E-06  0.0000000E+00 -0.3638537E-03
  0.2762042E-02  0.0000000E+00 -0.5050505E-02  0.9392065E-07  0.0000000E+00 -0.3638115E-03
 -0.5050505E-02  0.0000000E+00 -0.5050505E-02  0.8477738E-07  0.0000000E+00 -0.3637731E-03
 -0.5050505E-02  0.0000000E+00 -0.5050505E-02  0.7509164E-07  0.0000000E+00 -0.3637387E-03
 -0.5050505E-02  0.0000000E+00 -0.5050505E-02  0.6489216E-07  0.0000000E+00 -0.3637085E-03
 -0.5050505E-02  0.0000000E+00 -0.5050505E-02  0.5421417E-07  0.0000000E+00 -0.3636827E-03
 -0.5050505E-02  0.0000000E+00 -0.5050505E-02  0.4309955E-07  0.0000000E+00 -0.3636616E-03
 -0.5050505E-02  0.0000000E+00 -0.5050505E-02  0.3159696E-07  0.0000000E+00 -0.3636454E-03
 -0.5050505E-02  0.0000000E+00 -0.5050505E-02  0.1976171E-07  0.0000000E+00 -0.3636341E-03
 -0.5050504E-02  0.0000000E+00 -0.5050505E-02  0.7655555E-08  0.0000000E+00 -0.3636279E-03
 -0.5050501E-02  0.0000000E+00 -0.5050505E-02 -0.4653867E-08  0.0000000E+00 -0.3636269E-03
 -0.5050495E-02  0.0000000E+00 -0.5050505E-02 -0.1709368E-07  0.0000000E+00 -0.3636313E-03
 -0.5050482E-02  0.0000000E+00 -0.5050505E-02 -0.2958670E-07  0.0000000E+00 -0.3636410E-03
 -0.5050449E-02  0.0000000E+00 -0.5050505E-02 -0.4205263E-07  0.0000000E+00 -0.3636560E-03
 -0.5050376E-02  0.0000000E+00 -0.5050505E-02 -0.5440931E-07  0.0000000E+00 -0.3636763E-03
 -0.5050299E-02  0.0000000E+00 -0.5050505E-02 -0.6657424E-07  0.0000000E+00 -0.3637020E-03
 -0.5050178E-02  0.0000000E+00 -0.5050505E-02 -0.7846621E-07  0.0000000E+00 -0.3637327E-03
 -0.5050018E-02  0.0000000E+00 -0.5050505E-02 -0.9000699E-07  0.0000000E+00 -0.3637685E-03
 -0.5049710E-02  0.0000000E+00 -0.5050505E-02 -0.1011231E-06  0.0000000E+00 -0.3638092E-03
 -0.5049253E-02  0.0000000E+00 -0.5050505E-02 -0.1117477E-06  0.0000000E+00 -0.3638545E-03
 -0.5048636E-02  0.0000000E+00 -0.5050505E-02 -0.1218221E-06  0.0000000E+00 -0.3639042E-03
 -0.5047442E-02  0.0000000E+00 -0.5050505E-02 -0.1312977E-06  0.0000000E+00 -0.3639581E-03
 -0.5045727E-02  0.0000000E+00 -0.5050505E-02 -0.1401376E-06  0.0000000E+00 -0.3640159E-03
 -0.5043261E-02  0.0000000E+00 -0.5050505E-02 -0.1483185E-06  0.0000000E+00 -0.3640773E-03
 -0.5038714E-02  0.0000000E+00 -0.5050505E-02 -0.1558320E-06  0.0000000E+00 -0.3641421E-03
 -0.5032318E-02  0.0000000E+00 -0.5050505E-02 -0.1626870E-06  0.0000000E+00 -0.3642098E-03
 -0.5022454E-02  0.0000000E+00 -0.5050505E-02 -0.1689113E-06  0.0000000E+00 -0.3642803E-03
 -0.5012589E-02  0.0000000E+00 -0.5050505E-02 -0.1745548E-06  0.0000000E+00 -0.3643532E-03
 -0.5002725E-02  0.0000000E+00 -0.5050505E-02 -0.1796925E-06  0.0000000E+00 -0.3644284E-03
 -0.4992860E-02  0.0000000E+00 -0.5050505E-02 -0.1844291E-06  0.0000000E+00 -0.3645055E-03
 -0.4976523E-02  0.0000000E+00 -0.5050505E-02 -0.1889057E-06  0.0000000E+00 -0.3645844E-03
 -0.4956794E-02  0.0000000E+00 -0.5050505E-02 -0.1933087E-06  0.0000000E+00 -0.3646650E-03
 -0.4937066E-02  0.0000000E+00 -0.5050505E-02 -0.1978825E-06  0.0000000E+00 -0.3647472E-03
 -0.4906239E-02  0.0000000E+00 -0.5050505E-02 -0.2029490E-06  0.0000000E+00 -0.3648311E-03
 -0.4866782E-02  0.0000000E+00 -0.5050505E-02 -0.2089348E-06  0.0000000E+00 -0.3649168E-03
 -0.4827325E-02  0.0000000E+00 -0.5050505E-02 -0.2164133E-06  0.0000000E+00 -0.3650048E-03
 -0.4769372E-02  0.0000000E+00 -0.5050505E-02 -0.2261678E-06  0.0000000E+00 -0.3650955E-03
 -0.4690458E-02  0.0000000E+00 -0.5050505E-02 -0.2392892E-06  0.0000000E+00 -0.3651898E-03
 -0.4611543E-02  0.0000000E+00 -0.5050505E-02 -0.2573295E-06  0.0000000E+00 -0.3652888E-03
 -0.4503035E-02  0.0000000E+00 -0.5050505E-02 -0.2825503E-06  0.0000000E+00 -0.3653942E-03
 -0.4345206E-02  0.0000000E+00 -0.5050505E-02 -0.3183320E-06  0.0000000E+00 -0.3655083E-03
 -0.4187378E-02  0.0000000E+00 -0.5050505E-02 -0.3698670E-06  0.0000000E+00 -0.3656340E-03
 -0.3985156E-02  0.0000000E+00 -0.5050505E-02 -0.4453652E-06  0.0000000E+00 -0.3657751E-03
 -0.3669499E-02  0.0000000E+00 -0.5050505E-02 -0.5582042E-06  0.0000000E+00 -0.3659360E-03
 -0.3353842E-02  0.0000000E+00 -0.5050505E-02 -0.7308441E-06  0.0000000E+00 -0.3661205E-03
 -0.2978990E-02  0.0000000E+00 -0.5050505E-02 -0.1002038E-05  0.0000000E+00 -0.3663276E-03
 -0.2347676E-02  0.0000000E+00 -0.5050505E-02 -0.1439927E-05  0.0000000E+00 -0.3665384E-03
 -0.1716362E-02  0.0000000E+00 -0.5050505E-02 -0.2164087E-05  0.0000000E+00 -0.3666790E-03
 -0.1025842E-02  0.0000000E+00 -0.5050505E-02 -0.3372824E-05  0.0000000E+00 -0.3665203E-03
  0.2367855E-03  0.0000000E+00 -0.5050505E-02 -0.5323621E-05  0.0000000E+00 -0.3654353E-03
  0.1499413E-02  0.0000000E+00 -0.5050505E-02 -0.7961347E-05  0.0000000E+00 -0.3620072E-03
  0.5287294E-02  0.0000000E+00 -0.5050505E-02 -0.8686739E-05  0.0000000E+00 -0.3547329E-03
 -0.5050505E-02  0.0000000E+00 -0.5050505E-02  0.5121035E-08  0.0000000E+00 -0.3654290E-03
 -0.5050505E-02  0.0000000E+00 -0.5050505E-02  0.1535457E-07  0.0000000E+00 -0.3654259E-03
 -0.5050505E-02  0.0000000E+00 -0.5050505E-02  0.2556208E-07  0.0000000E+00 -0.3654196E-03
 -0.5050505E-02  0.0000000E+00 -0.5050505E-02  0.3572608E-07  0.0000000E+00 -0.3654102E-03
 -0.5050505E-02  0.0000000E+00 -0.5050505E-02  0.4582912E-07  0.0000000E+00 -0.3653977E-03
 -0.5050505E-02  0.0000000E+00 -0.5050505E-02  0.5585363E-07  0.0000000E+00 -0.3653821E-03
 -0.5050504E-02  0.0000000E+00 -0.5050505E-02  0.6578199E-07  0.0000000E+00 -0.3653634E-03
 -0.5050501E-02  0.0000000E+00 -0.5050505E-02  0.7559639E-07  0.0000000E+00 -0.3653417E-03
 -0.5050495E-02  0.0000000E+00 -0.5050505E-02  0.8527893E-07  0.0000000E+00 -0.3653170E-03
 -0.5050482E-02  0.0000000E+00 -0.5050505E-02  0.9481153E-07  0.0000000E+00 -0.3652894E-03
 -0.5050449E-02  0.0000000E+00 -0.5050505E-02  0.1041759E-06  0.0000000E+00 -0.3652588E-03
 -0.5050376E-02  0.0000000E+00 -0.5050505E-02  0.1133536E-06  0.0000000E+00 -0.3652254E-03
 -0.5050299E-02  0.0000000E+00 -0.5050505E-02  0.1223260E-06  0.0000000E+00 -0.3651892E-03
 -0.5050178E-02  0.0000000E+00 -0.5050505E-02  0.1310741E-06  0.0000000E+00 -0.3651503E-03
 -0.5050018E-02  0.0000000E+00 -0.5050505E-02  0.1395788E-06  0.0000000E+00 -0.3651087E-03
 -0.5049710E-02  0.0000000E+00 -0.5050505E-02  0.1478208E-06  0.0000000E+00 -0.3650646E-03
 -0.5049253E-02  0.0000000E+00 -0.5050505E-02  0.1557803E-06  0.0000000E+00 -0.3650179E-03
 -0.5048636E-02  0.0000000E+00 -0.5050505E-02  0.1634374E-06  0.0000000E+00 -0.3649688E-03
 -0.5047442E-02  0.0000000E+00 -0.5050505E-02  0.1707720E-06  0.0000000E+00 -0.3649174E-03
 -0.5045727E-02  0.0000000E+00 -0.5050505E-02  0.1777636E-06  0.0000000E+00 -0.3648638E-03
 -0.5043261E-02  0.0000000E+00 -0.5050505E-02  0.1843913E-06  0.0000000E+00 -0.3648081E-03
 -0.5038714E-02  0.0000000E+00 -0.5050505E-02  0.1906341E-06  0.0000000E+00 -0.3647504E-03
 -0.5032318E-02  0.0000000E+00 -0.5050505E-02  0.1964706E-06  0.0000000E+00 -0.3646908E-03
 -0.5022454E-02  0.0000000E+00 -0.5050505E-02  0.2018792E-06  0.0000000E+00 -0.3646295E-03
 -0.5012589E-02  0.0000000E+00 -0.5050505E-02  0.2068379E-06  0.0000000E+00 -0.3645665E-03
 -0.5002725E-02  0.0000000E+00 -0.5050505E-02  0.2113245E-06  0.0000000E+00 -0.3645021E-03
 -0.4992860E-02  0.0000000E+00 -0.5050505E-02  0.2153165E-06  0.0000000E+00 -0.3644363E-03
 -0.4976523E-02  0.0000000E+00 -0.5050505E-02  0.2187910E-06  0.0000000E+00 -0.3643694E-03
 -0.4956794E-02  0.0000000E+00 -0.5050505E-02  0.2217251E-06  0.0000000E+00 -0.3643014E-03
 -0.4937066E-02  0.0000000E+00 -0.5050505E-02  0.2240955E-06  0.0000000E+00 -0.3642326E-03