title = "dataset feddes"
variables = "x", "y", "z", "vx", "vy", "vz"
zone t = "velocities, solution time =  5.900E+01 days        " i =   99, j =   99, k =    1,  f=point
 -0.5050505E-02  0.0000000E+00 -0.5050505E-02  0.8148043E-07  0.0000000E+00  0.7942510E-04
 -0.5050505E-02  0.0000000E+00 -0.5050505E-02  0.2446873E-06  0.0000000E+00  0.7975541E-04
 -0.5050505E-02  0.0000000E+00 -0.5050505E-02  0.4086410E-06  0.0000000E+00  0.8041707E-04
 -0.5050505E-02  0.0000000E+00 -0.5050505E-02  0.5738574E-06  0.0000000E+00  0.8141219E-04
 -0.5050505E-02  0.0000000E+00 -0.5050505E-02  0.7408717E-06  0.0000000E+00  0.8274396E-04
 -0.5050505E-02  0.0000000E+00 -0.5050505E-02  0.9102447E-06  0.0000000E+00  0.8441675E-04
 -0.5050504E-02  0.0000000E+00 -0.5050505E-02  0.1082571E-05  0.0000000E+00  0.8643614E-04
 -0.5050501E-02  0.0000000E+00 -0.5050505E-02  0.1258484E-05  0.0000000E+00  0.8880900E-04
 -0.5050495E-02  0.0000000E+00 -0.5050505E-02  0.1438671E-05  0.0000000E+00  0.9154359E-04
 -0.5050482E-02  0.0000000E+00 -0.5050505E-02  0.1623878E-05  0.0000000E+00  0.9464969E-04
 -0.5050449E-02  0.0000000E+00 -0.5050505E-02  0.1814924E-05  0.0000000E+00  0.9813871E-04
 -0.5050376E-02  0.0000000E+00 -0.5050505E-02  0.2012715E-05  0.0000000E+00  0.1020239E-03
 -0.5050299E-02  0.0000000E+00 -0.5050505E-02  0.2218259E-05  0.0000000E+00  0.1063205E-03
 -0.5050178E-02  0.0000000E+00 -0.5050505E-02  0.2432687E-05  0.0000000E+00  0.1110461E-03
 -0.5050018E-02  0.0000000E+00 -0.5050505E-02  0.2657274E-05  0.0000000E+00  0.1162208E-03
 -0.5049710E-02  0.0000000E+00 -0.5050505E-02  0.2893466E-05  0.0000000E+00  0.1218674E-03
 -0.5049253E-02  0.0000000E+00 -0.5050505E-02  0.3142911E-05  0.0000000E+00  0.1280123E-03
 -0.5048636E-02  0.0000000E+00 -0.5050505E-02  0.3407498E-05  0.0000000E+00  0.1346855E-03
 -0.5047442E-02  0.0000000E+00 -0.5050505E-02  0.3689405E-05  0.0000000E+00  0.1419213E-03
 -0.5045727E-02  0.0000000E+00 -0.5050505E-02  0.3991156E-05  0.0000000E+00  0.1497591E-03
 -0.5043261E-02  0.0000000E+00 -0.5050505E-02  0.4315688E-05  0.0000000E+00  0.1582441E-03
 -0.5038714E-02  0.0000000E+00 -0.5050505E-02  0.4666447E-05  0.0000000E+00  0.1674284E-03
 -0.5032318E-02  0.0000000E+00 -0.5050505E-02  0.5047497E-05  0.0000000E+00  0.1773721E-03
 -0.5022454E-02  0.0000000E+00 -0.5050505E-02  0.5463667E-05  0.0000000E+00  0.1881449E-03
 -0.5012589E-02  0.0000000E+00 -0.5050505E-02  0.5920741E-05  0.0000000E+00  0.1998280E-03
 -0.5002725E-02  0.0000000E+00 -0.5050505E-02  0.6425714E-05  0.0000000E+00  0.2125164E-03
 -0.4992860E-02  0.0000000E+00 -0.5050505E-02  0.6987136E-05  0.0000000E+00  0.2263221E-03
 -0.4976523E-02  0.0000000E+00 -0.5050505E-02  0.7615594E-05  0.0000000E+00  0.2413778E-03
 -0.4956794E-02  0.0000000E+00 -0.5050505E-02  0.8324407E-05  0.0000000E+00  0.2578423E-03
 -0.4937066E-02  0.0000000E+00 -0.5050505E-02  0.9130651E-05  0.0000000E+00  0.2759079E-03
 -0.4906239E-02  0.0000000E+00 -0.5050505E-02  0.1005676E-04  0.0000000E+00  0.2958101E-03
 -0.4866782E-02  0.0000000E+00 -0.5050505E-02  0.1113313E-04  0.0000000E+00  0.3178425E-03
 -0.4827325E-02  0.0000000E+00 -0.5050505E-02  0.1240267E-04  0.0000000E+00  0.3423798E-03
 -0.4769372E-02  0.0000000E+00 -0.5050505E-02  0.1392934E-04  0.0000000E+00  0.3699141E-03
 -0.4690458E-02  0.0000000E+00 -0.5050505E-02  0.1581563E-04  0.0000000E+00  0.4011215E-03
 -0.4611543E-02  0.0000000E+00 -0.5050505E-02  0.1824223E-04  0.0000000E+00  0.4369896E-03
 -0.4503035E-02  0.0000000E+00 -0.5050505E-02  0.2156825E-04  0.0000000E+00  0.4790998E-03
 -0.4345206E-02  0.0000000E+00 -0.5050505E-02  0.2661571E-04  0.0000000E+00  0.5303306E-03
 -0.4187378E-02  0.0000000E+00 -0.5050505E-02  0.3557459E-04  0.0000000E+00  0.5968747E-03
 -0.3985156E-02  0.0000000E+00 -0.5050505E-02  0.5521000E-04  0.0000000E+00  0.6948406E-03
 -0.3669499E-02  0.0000000E+00 -0.5050505E-02  0.5374300E-04  0.0000000E+00  0.8136669E-03
 -0.3353842E-02  0.0000000E+00 -0.5050505E-02  0.4233734E-05  0.0000000E+00  0.8774192E-03
 -0.2978990E-02  0.0000000E+00 -0.5050505E-02  0.1593902E-04  0.0000000E+00  0.8999108E-03
 -0.2347676E-02  0.0000000E+00 -0.5050505E-02  0.2163835E-04  0.0000000E+00  0.9419191E-03
 -0.1716362E-02  0.0000000E+00 -0.5050505E-02  0.2492480E-04  0.0000000E+00  0.9942252E-03
 -0.1025842E-02  0.0000000E+00 -0.5050505E-02  0.2715417E-04  0.0000000E+00  0.1053086E-02
  0.2367855E-03  0.0000000E+00 -0.5050505E-02  0.2942194E-04  0.0000000E+00  0.1117473E-02
  0.1499413E-02  0.0000000E+00 -0.5050505E-02  0.3297117E-04  0.0000000E+00  0.1189024E-02
  0.2762042E-02  0.0000000E+00 -0.5050505E-02  0.3940783E-04  0.0000000E+00  0.1272738E-02
 -0.5050505E-02  0.0000000E+00 -0.5050505E-02  0.5425802E-04  0.0000000E+00  0.1382185E-02
 -0.5050505E-02  0.0000000E+00 -0.5050505E-02  0.6338487E-04  0.0000000E+00  0.1521370E-02
 -0.5050505E-02  0.0000000E+00 -0.5050505E-02  0.4075005E-04  0.0000000E+00  0.1646264E-02
 -0.5050505E-02  0.0000000E+00 -0.5050505E-02  0.2435376E-04  0.0000000E+00  0.1725511E-02
 -0.5050505E-02  0.0000000E+00 -0.5050505E-02  0.2856969E-04  0.0000000E+00  0.1790630E-02
 -0.5050505E-02  0.0000000E+00 -0.5050505E-02  0.3212925E-04  0.0000000E+00  0.1865870E-02
 -0.5050505E-02  0.0000000E+00 -0.5050505E-02  0.3276608E-04  0.0000000E+00  0.1946989E-02
 -0.5050504E-02  0.0000000E+00 -0.5050505E-02  0.6243208E-04  0.0000000E+00  0.2067257E-02
 -0.5050501E-02  0.0000000E+00 -0.5050505E-02  0.1035935E-03  0.0000000E+00  0.2280042E-02
 -0.5050495E-02  0.0000000E+00 -0.5050505E-02  0.1480265E-03  0.0000000E+00  0.2610494E-02
 -0.5050482E-02  0.0000000E+00 -0.5050505E-02  0.2318625E-03  0.0000000E+00  0.3129243E-02
 -0.5050449E-02  0.0000000E+00 -0.5050505E-02 -0.8903612E-04  0.0000000E+00  0.3322254E-02
 -0.5050376E-02  0.0000000E+00 -0.5050505E-02 -0.2015787E-03  0.0000000E+00  0.2918404E-02
 -0.5050299E-02  0.0000000E+00 -0.5050505E-02 -0.1116549E-03  0.0000000E+00  0.2496134E-02
 -0.5050178E-02  0.0000000E+00 -0.5050505E-02 -0.1616002E-03  0.0000000E+00  0.2145040E-02
 -0.5050018E-02  0.0000000E+00 -0.5050505E-02 -0.9483431E-04  0.0000000E+00  0.1824886E-02
 -0.5049710E-02  0.0000000E+00 -0.5050505E-02 -0.6140773E-04  0.0000000E+00  0.1634341E-02
 -0.5049253E-02  0.0000000E+00 -0.5050505E-02 -0.4139540E-04  0.0000000E+00  0.1510826E-02
 -0.5048636E-02  0.0000000E+00 -0.5050505E-02 -0.2901416E-04  0.0000000E+00  0.1427079E-02
 -0.5047442E-02  0.0000000E+00 -0.5050505E-02 -0.2136149E-04  0.0000000E+00  0.1367588E-02
 -0.5045727E-02  0.0000000E+00 -0.5050505E-02 -0.1613879E-04  0.0000000E+00  0.1323535E-02
 -0.5043261E-02  0.0000000E+00 -0.5050505E-02 -0.1186706E-04  0.0000000E+00  0.1290761E-02
 -0.5038714E-02  0.0000000E+00 -0.5050505E-02 -0.4888089E-05  0.0000000E+00  0.1271198E-02
 -0.5032318E-02  0.0000000E+00 -0.5050505E-02  0.1062698E-04  0.0000000E+00  0.1277893E-02
 -0.5022454E-02  0.0000000E+00 -0.5050505E-02 -0.3937258E-04  0.0000000E+00  0.1244715E-02
 -0.5012589E-02  0.0000000E+00 -0.5050505E-02 -0.3179551E-04  0.0000000E+00  0.1162649E-02
 -0.5002725E-02  0.0000000E+00 -0.5050505E-02 -0.1477947E-04  0.0000000E+00  0.1109263E-02
 -0.4992860E-02  0.0000000E+00 -0.5050505E-02 -0.3026587E-04  0.0000000E+00  0.1058047E-02
 -0.4976523E-02  0.0000000E+00 -0.5050505E-02 -0.4904348E-04  0.0000000E+00  0.9688267E-03
 -0.4956794E-02  0.0000000E+00 -0.5050505E-02 -0.2977045E-04  0.0000000E+00  0.8808614E-03
 -0.4937066E-02  0.0000000E+00 -0.5050505E-02 -0.2463534E-04  0.0000000E+00  0.8206091E-03
 -0.4906239E-02  0.0000000E+00 -0.5050505E-02 -0.2517225E-04  0.0000000E+00  0.7658250E-03
 -0.4866782E-02  0.0000000E+00 -0.5050505E-02 -0.2259673E-04  0.0000000E+00  0.7135982E-03
 -0.4827325E-02  0.0000000E+00 -0.5050505E-02 -0.1948797E-04  0.0000000E+00  0.6678350E-03
 -0.4769372E-02  0.0000000E+00 -0.5050505E-02 -0.1692580E-04  0.0000000E+00  0.6284254E-03
 -0.4690458E-02  0.0000000E+00 -0.5050505E-02 -0.1500056E-04  0.0000000E+00  0.5940155E-03
 -0.4611543E-02  0.0000000E+00 -0.5050505E-02 -0.1353127E-04  0.0000000E+00  0.5633775E-03
 -0.4503035E-02  0.0000000E+00 -0.5050505E-02 -0.1232348E-04  0.0000000E+00  0.5357065E-03
 -0.4345206E-02  0.0000000E+00 -0.5050505E-02 -0.1123560E-04  0.0000000E+00  0.5105685E-03
 -0.4187378E-02  0.0000000E+00 -0.5050505E-02 -0.1018535E-04  0.0000000E+00  0.4877745E-03
 -0.3985156E-02  0.0000000E+00 -0.5050505E-02 -0.9135447E-05  0.0000000E+00  0.4672658E-03
 -0.3669499E-02  0.0000000E+00 -0.5050505E-02 -0.8074114E-05  0.0000000E+00  0.4490381E-03
 -0.3353842E-02  0.0000000E+00 -0.5050505E-02 -0.6998129E-05  0.0000000E+00  0.4331048E-03
 -0.2978990E-02  0.0000000E+00 -0.5050505E-02 -0.5898997E-05  0.0000000E+00  0.4194931E-03
 -0.2347676E-02  0.0000000E+00 -0.5050505E-02 -0.4747086E-05  0.0000000E+00  0.4082724E-03
 -0.1716362E-02  0.0000000E+00 -0.5050505E-02 -0.3458583E-05  0.0000000E+00  0.3996328E-03
 -0.1025842E-02  0.0000000E+00 -0.5050505E-02 -0.1798869E-05  0.0000000E+00  0.3941010E-03
  0.2367855E-03  0.0000000E+00 -0.5050505E-02  0.9428547E-06  0.0000000E+00  0.3932005E-03
  0.1499413E-02  0.0000000E+00 -0.5050505E-02  0.7153235E-05  0.0000000E+00  0.4017184E-03
  0.5287294E-02  0.0000000E+00 -0.5050505E-02  0.1398275E-03  0.0000000E+00  0.3188792E-03
 -0.5050505E-02  0.0000000E+00 -0.5050505E-02  0.2440242E-06  0.0000000E+00  0.7938692E-04
 -0.5050505E-02  0.0000000E+00 -0.5050505E-02  0.7328110E-06  0.0000000E+00  0.7971652E-04
 -0.5050505E-02  0.0000000E+00 -0.5050505E-02  0.1223836E-05  0.0000000E+00  0.8037672E-04
 -0.5050505E-02  0.0000000E+00 -0.5050505E-02  0.1718642E-05  0.0000000E+00  0.8136960E-04
 -0.5050505E-02  0.0000000E+00 -0.5050505E-02  0.2218827E-05  0.0000000E+00  0.8269833E-04
 -0.5050505E-02  0.0000000E+00 -0.5050505E-02  0.2726066E-05  0.0000000E+00  0.8436722E-04
 -0.5050504E-02  0.0000000E+00 -0.5050505E-02  0.3242134E-05  0.0000000E+00  0.8638177E-04
 -0.5050501E-02  0.0000000E+00 -0.5050505E-02  0.3768926E-05  0.0000000E+00  0.8874879E-04
 -0.5050495E-02  0.0000000E+00 -0.5050505E-02  0.4308490E-05  0.0000000E+00  0.9147644E-04
 -0.5050482E-02  0.0000000E+00 -0.5050505E-02  0.4863051E-05  0.0000000E+00  0.9457437E-04
 -0.5050449E-02  0.0000000E+00 -0.5050505E-02  0.5435054E-05  0.0000000E+00  0.9805387E-04
 -0.5050376E-02  0.0000000E+00 -0.5050505E-02  0.6027201E-05  0.0000000E+00  0.1019280E-03
 -0.5050299E-02  0.0000000E+00 -0.5050505E-02  0.6642499E-05  0.0000000E+00  0.1062118E-03
 -0.5050178E-02  0.0000000E+00 -0.5050505E-02  0.7284320E-05  0.0000000E+00  0.1109227E-03
 -0.5050018E-02  0.0000000E+00 -0.5050505E-02  0.7956461E-05  0.0000000E+00  0.1160803E-03
 -0.5049710E-02  0.0000000E+00 -0.5050505E-02  0.8663231E-05  0.0000000E+00  0.1217073E-03
 -0.5049253E-02  0.0000000E+00 -0.5050505E-02  0.9409536E-05  0.0000000E+00  0.1278296E-03
 -0.5048636E-02  0.0000000E+00 -0.5050505E-02  0.1020100E-04  0.0000000E+00  0.1344767E-03
 -0.5047442E-02  0.0000000E+00 -0.5050505E-02  0.1104410E-04  0.0000000E+00  0.1416823E-03
 -0.5045727E-02  0.0000000E+00 -0.5050505E-02  0.1194635E-04  0.0000000E+00  0.1494851E-03
 -0.5043261E-02  0.0000000E+00 -0.5050505E-02  0.1291646E-04  0.0000000E+00  0.1579294E-03
 -0.5038714E-02  0.0000000E+00 -0.5050505E-02  0.1396467E-04  0.0000000E+00  0.1670663E-03
 -0.5032318E-02  0.0000000E+00 -0.5050505E-02  0.1510303E-04  0.0000000E+00  0.1769544E-03
 -0.5022454E-02  0.0000000E+00 -0.5050505E-02  0.1634586E-04  0.0000000E+00  0.1876619E-03
 -0.5012589E-02  0.0000000E+00 -0.5050505E-02  0.1771026E-04  0.0000000E+00  0.1992679E-03
 -0.5002725E-02  0.0000000E+00 -0.5050505E-02  0.1921690E-04  0.0000000E+00  0.2118647E-03
 -0.4992860E-02  0.0000000E+00 -0.5050505E-02  0.2089098E-04  0.0000000E+00  0.2255606E-03
 -0.4976523E-02  0.0000000E+00 -0.5050505E-02  0.2276361E-04  0.0000000E+00  0.2404838E-03
 -0.4956794E-02  0.0000000E+00 -0.5050505E-02  0.2487380E-04  0.0000000E+00  0.2567866E-03
 -0.4937066E-02  0.0000000E+00 -0.5050505E-02  0.2727131E-04  0.0000000E+00  0.2746522E-03
 -0.4906239E-02  0.0000000E+00 -0.5050505E-02  0.3002101E-04  0.0000000E+00  0.2943030E-03
 -0.4866782E-02  0.0000000E+00 -0.5050505E-02  0.3320989E-04  0.0000000E+00  0.3160123E-03
 -0.4827325E-02  0.0000000E+00 -0.5050505E-02  0.3695879E-04  0.0000000E+00  0.3401210E-03
 -0.4769372E-02  0.0000000E+00 -0.5050505E-02  0.4144337E-04  0.0000000E+00  0.3670621E-03
 -0.4690458E-02  0.0000000E+00 -0.5050505E-02  0.4693436E-04  0.0000000E+00  0.3973948E-03
 -0.4611543E-02  0.0000000E+00 -0.5050505E-02  0.5388092E-04  0.0000000E+00  0.4318503E-03
 -0.4503035E-02  0.0000000E+00 -0.5050505E-02  0.6309722E-04  0.0000000E+00  0.4713688E-03
 -0.4345206E-02  0.0000000E+00 -0.5050505E-02  0.7621424E-04  0.0000000E+00  0.5169984E-03
 -0.4187378E-02  0.0000000E+00 -0.5050505E-02  0.9685610E-04  0.0000000E+00  0.5689893E-03
 -0.3985156E-02  0.0000000E+00 -0.5050505E-02  0.1339012E-03  0.0000000E+00  0.6218074E-03
 -0.3669499E-02  0.0000000E+00 -0.5050505E-02  0.1553578E-03  0.0000000E+00  0.6988187E-03
 -0.3353842E-02  0.0000000E+00 -0.5050505E-02  0.5783288E-04  0.0000000E+00  0.8050501E-03
 -0.2978990E-02  0.0000000E+00 -0.5050505E-02  0.5310100E-04  0.0000000E+00  0.8833683E-03
 -0.2347676E-02  0.0000000E+00 -0.5050505E-02  0.6690672E-04  0.0000000E+00  0.9338276E-03
 -0.1716362E-02  0.0000000E+00 -0.5050505E-02  0.7549656E-04  0.0000000E+00  0.9896348E-03
 -0.1025842E-02  0.0000000E+00 -0.5050505E-02  0.8115692E-04  0.0000000E+00  0.1049542E-02
  0.2367855E-03  0.0000000E+00 -0.5050505E-02  0.8681312E-04  0.0000000E+00  0.1112632E-02
  0.1499413E-02  0.0000000E+00 -0.5050505E-02  0.9600796E-04  0.0000000E+00  0.1180032E-02
  0.2762042E-02  0.0000000E+00 -0.5050505E-02  0.1105092E-03  0.0000000E+00  0.1252456E-02
 -0.5050505E-02  0.0000000E+00 -0.5050505E-02  0.1360868E-03  0.0000000E+00  0.1322802E-02
 -0.5050505E-02  0.0000000E+00 -0.5050505E-02  0.1554294E-03  0.0000000E+00  0.1390496E-02
 -0.5050505E-02  0.0000000E+00 -0.5050505E-02  0.1472284E-03  0.0000000E+00  0.1504791E-02
 -0.5050505E-02  0.0000000E+00 -0.5050505E-02  0.1145938E-03  0.0000000E+00  0.1666147E-02
 -0.5050505E-02  0.0000000E+00 -0.5050505E-02  0.8511194E-04  0.0000000E+00  0.1783816E-02
 -0.5050505E-02  0.0000000E+00 -0.5050505E-02  0.7141577E-04  0.0000000E+00  0.1829626E-02
 -0.5050505E-02  0.0000000E+00 -0.5050505E-02  0.1001757E-03  0.0000000E+00  0.1884609E-02
 -0.5050504E-02  0.0000000E+00 -0.5050505E-02  0.1456418E-03  0.0000000E+00  0.1958051E-02
 -0.5050501E-02  0.0000000E+00 -0.5050505E-02  0.2458182E-03  0.0000000E+00  0.2038799E-02
 -0.5050495E-02  0.0000000E+00 -0.5050505E-02  0.3932049E-03  0.0000000E+00  0.2220838E-02
 -0.5050482E-02  0.0000000E+00 -0.5050505E-02  0.5918522E-03  0.0000000E+00  0.2526899E-02
 -0.5050449E-02  0.0000000E+00 -0.5050505E-02 -0.2775868E-03  0.0000000E+00  0.2560454E-02
 -0.5050376E-02  0.0000000E+00 -0.5050505E-02 -0.4028819E-03  0.0000000E+00  0.2410166E-02
 -0.5050299E-02  0.0000000E+00 -0.5050505E-02 -0.3994457E-03  0.0000000E+00  0.2174951E-02
 -0.5050178E-02  0.0000000E+00 -0.5050505E-02 -0.3769357E-03  0.0000000E+00  0.1877845E-02
 -0.5050018E-02  0.0000000E+00 -0.5050505E-02 -0.2563745E-03  0.0000000E+00  0.1725416E-02
 -0.5049710E-02  0.0000000E+00 -0.5050505E-02 -0.1721858E-03  0.0000000E+00  0.1581604E-02
 -0.5049253E-02  0.0000000E+00 -0.5050505E-02 -0.1170391E-03  0.0000000E+00  0.1479127E-02
 -0.5048636E-02  0.0000000E+00 -0.5050505E-02 -0.8246618E-04  0.0000000E+00  0.1407741E-02
 -0.5047442E-02  0.0000000E+00 -0.5050505E-02 -0.6156553E-04  0.0000000E+00  0.1355414E-02
 -0.5045727E-02  0.0000000E+00 -0.5050505E-02 -0.4724802E-04  0.0000000E+00  0.1314750E-02
 -0.5043261E-02  0.0000000E+00 -0.5050505E-02 -0.3763030E-04  0.0000000E+00  0.1280230E-02
 -0.5038714E-02  0.0000000E+00 -0.5050505E-02 -0.2179863E-04  0.0000000E+00  0.1249434E-02
 -0.5032318E-02  0.0000000E+00 -0.5050505E-02  0.9615434E-05  0.0000000E+00  0.1221636E-02
 -0.5022454E-02  0.0000000E+00 -0.5050505E-02 -0.8843417E-04  0.0000000E+00  0.1196402E-02
 -0.5012589E-02  0.0000000E+00 -0.5050505E-02 -0.1033521E-03  0.0000000E+00  0.1138802E-02
 -0.5002725E-02  0.0000000E+00 -0.5050505E-02 -0.9023056E-04  0.0000000E+00  0.1024065E-02
 -0.4992860E-02  0.0000000E+00 -0.5050505E-02 -0.8817986E-04  0.0000000E+00  0.9241313E-03
 -0.4976523E-02  0.0000000E+00 -0.5050505E-02 -0.1053919E-03  0.0000000E+00  0.8845627E-03
 -0.4956794E-02  0.0000000E+00 -0.5050505E-02 -0.7643447E-04  0.0000000E+00  0.8571925E-03
 -0.4937066E-02  0.0000000E+00 -0.5050505E-02 -0.6862503E-04  0.0000000E+00  0.8167458E-03
 -0.4906239E-02  0.0000000E+00 -0.5050505E-02 -0.7827328E-04  0.0000000E+00  0.7645135E-03
 -0.4866782E-02  0.0000000E+00 -0.5050505E-02 -0.6821414E-04  0.0000000E+00  0.7086296E-03
 -0.4827325E-02  0.0000000E+00 -0.5050505E-02 -0.5790037E-04  0.0000000E+00  0.6628667E-03
 -0.4769372E-02  0.0000000E+00 -0.5050505E-02 -0.5013383E-04  0.0000000E+00  0.6246267E-03
 -0.4690458E-02  0.0000000E+00 -0.5050505E-02 -0.4453024E-04  0.0000000E+00  0.5912953E-03
 -0.4611543E-02  0.0000000E+00 -0.5050505E-02 -0.4030806E-04  0.0000000E+00  0.5613602E-03
 -0.4503035E-02  0.0000000E+00 -0.5050505E-02 -0.3682162E-04  0.0000000E+00  0.5340561E-03
 -0.4345206E-02  0.0000000E+00 -0.5050505E-02 -0.3363926E-04  0.0000000E+00  0.5090614E-03
 -0.4187378E-02  0.0000000E+00 -0.5050505E-02 -0.3052727E-04  0.0000000E+00  0.4862916E-03
 -0.3985156E-02  0.0000000E+00 -0.5050505E-02 -0.2739184E-04  0.0000000E+00  0.4657588E-03
 -0.3669499E-02  0.0000000E+00 -0.5050505E-02 -0.2421369E-04  0.0000000E+00  0.4474929E-03
 -0.3353842E-02  0.0000000E+00 -0.5050505E-02 -0.2099637E-04  0.0000000E+00  0.4315108E-03
 -0.2978990E-02  0.0000000E+00 -0.5050505E-02 -0.1772963E-04  0.0000000E+00  0.4178135E-03
 -0.2347676E-02  0.0000000E+00 -0.5050505E-02 -0.1435622E-04  0.0000000E+00  0.4063954E-03
 -0.1716362E-02  0.0000000E+00 -0.5050505E-02 -0.1071695E-04  0.0000000E+00  0.3972420E-03
 -0.1025842E-02  0.0000000E+00 -0.5050505E-02 -0.6418022E-05  0.0000000E+00  0.3902539E-03
  0.2367855E-03  0.0000000E+00 -0.5050505E-02 -0.4685392E-06  0.0000000E+00  0.3848051E-03
  0.1499413E-02  0.0000000E+00 -0.5050505E-02  0.9757896E-05  0.0000000E+00  0.3775801E-03
  0.5287294E-02  0.0000000E+00 -0.5050505E-02  0.3156415E-04  0.0000000E+00  0.3523076E-03
 -0.5050505E-02  0.0000000E+00 -0.5050505E-02  0.4055644E-06  0.0000000E+00  0.7931486E-04
 -0.5050505E-02  0.0000000E+00 -0.5050505E-02  0.1217921E-05  0.0000000E+00  0.7964303E-04
 -0.5050505E-02  0.0000000E+00 -0.5050505E-02  0.2033993E-05  0.0000000E+00  0.8030035E-04
 -0.5050505E-02  0.0000000E+00 -0.5050505E-02  0.2856332E-05  0.0000000E+00  0.8128883E-04
 -0.5050505E-02  0.0000000E+00 -0.5050505E-02  0.3687582E-05  0.0000000E+00  0.8261156E-04
 -0.5050505E-02  0.0000000E+00 -0.5050505E-02  0.4530514E-05  0.0000000E+00  0.8427276E-04
 -0.5050504E-02  0.0000000E+00 -0.5050505E-02  0.5388056E-05  0.0000000E+00  0.8627780E-04
 -0.5050501E-02  0.0000000E+00 -0.5050505E-02  0.6263342E-05  0.0000000E+00  0.8863333E-04
 -0.5050495E-02  0.0000000E+00 -0.5050505E-02  0.7159747E-05  0.0000000E+00  0.9134732E-04
 -0.5050482E-02  0.0000000E+00 -0.5050505E-02  0.8080947E-05  0.0000000E+00  0.9442920E-04
 -0.5050449E-02  0.0000000E+00 -0.5050505E-02  0.9030971E-05  0.0000000E+00  0.9788996E-04
 -0.5050376E-02  0.0000000E+00 -0.5050505E-02  0.1001427E-04  0.0000000E+00  0.1017424E-03
 -0.5050299E-02  0.0000000E+00 -0.5050505E-02  0.1103581E-04  0.0000000E+00  0.1060011E-03
 -0.5050178E-02  0.0000000E+00 -0.5050505E-02  0.1210112E-04  0.0000000E+00  0.1106829E-03
 -0.5050018E-02  0.0000000E+00 -0.5050505E-02  0.1321647E-04  0.0000000E+00  0.1158071E-03
 -0.5049710E-02  0.0000000E+00 -0.5050505E-02  0.1438892E-04  0.0000000E+00  0.1213956E-03
 -0.5049253E-02  0.0000000E+00 -0.5050505E-02  0.1562655E-04  0.0000000E+00  0.1274734E-03
 -0.5048636E-02  0.0000000E+00 -0.5050505E-02  0.1693857E-04  0.0000000E+00  0.1340692E-03
 -0.5047442E-02  0.0000000E+00 -0.5050505E-02  0.1833562E-04  0.0000000E+00  0.1412155E-03
 -0.5045727E-02  0.0000000E+00 -0.5050505E-02  0.1982996E-04  0.0000000E+00  0.1489495E-03
 -0.5043261E-02  0.0000000E+00 -0.5050505E-02  0.2143589E-04  0.0000000E+00  0.1573140E-03
 -0.5038714E-02  0.0000000E+00 -0.5050505E-02  0.2317010E-04  0.0000000E+00  0.1663578E-03
 -0.5032318E-02  0.0000000E+00 -0.5050505E-02  0.2505224E-04  0.0000000E+00  0.1761371E-03
 -0.5022454E-02  0.0000000E+00 -0.5050505E-02  0.2710557E-04  0.0000000E+00  0.1867169E-03
 -0.5012589E-02  0.0000000E+00 -0.5050505E-02  0.2935786E-04  0.0000000E+00  0.1981720E-03
 -0.5002725E-02  0.0000000E+00 -0.5050505E-02  0.3184251E-04  0.0000000E+00  0.2105896E-03
 -0.4992860E-02  0.0000000E+00 -0.5050505E-02  0.3460009E-04  0.0000000E+00  0.2240715E-03
 -0.4976523E-02  0.0000000E+00 -0.5050505E-02  0.3768044E-04  0.0000000E+00  0.2387368E-03
 -0.4956794E-02  0.0000000E+00 -0.5050505E-02  0.4114558E-04  0.0000000E+00  0.2547260E-03
 -0.4937066E-02  0.0000000E+00 -0.5050505E-02  0.4507389E-04  0.0000000E+00  0.2722057E-03
 -0.4906239E-02  0.0000000E+00 -0.5050505E-02  0.4956624E-04  0.0000000E+00  0.2913744E-03
 -0.4866782E-02  0.0000000E+00 -0.5050505E-02  0.5475538E-04  0.0000000E+00  0.3124703E-03
 -0.4827325E-02  0.0000000E+00 -0.5050505E-02  0.6082061E-04  0.0000000E+00  0.3357795E-03
 -0.4769372E-02  0.0000000E+00 -0.5050505E-02  0.6801202E-04  0.0000000E+00  0.3616447E-03
 -0.4690458E-02  0.0000000E+00 -0.5050505E-02  0.7669137E-04  0.0000000E+00  0.3904689E-03
 -0.4611543E-02  0.0000000E+00 -0.5050505E-02  0.8740345E-04  0.0000000E+00  0.4226968E-03
 -0.4503035E-02  0.0000000E+00 -0.5050505E-02  0.1009997E-03  0.0000000E+00  0.4587285E-03
 -0.4345206E-02  0.0000000E+00 -0.5050505E-02  0.1188356E-03  0.0000000E+00  0.4986338E-03
 -0.4187378E-02  0.0000000E+00 -0.5050505E-02  0.1429784E-03  0.0000000E+00  0.5413596E-03
 -0.3985156E-02  0.0000000E+00 -0.5050505E-02  0.1757982E-03  0.0000000E+00  0.5830209E-03
 -0.3669499E-02  0.0000000E+00 -0.5050505E-02  0.2153675E-03  0.0000000E+00  0.6161395E-03
 -0.3353842E-02  0.0000000E+00 -0.5050505E-02  0.1791455E-03  0.0000000E+00  0.7072360E-03
 -0.2978990E-02  0.0000000E+00 -0.5050505E-02  0.1227737E-03  0.0000000E+00  0.8389229E-03
 -0.2347676E-02  0.0000000E+00 -0.5050505E-02  0.1165256E-03  0.0000000E+00  0.9223026E-03
 -0.1716362E-02  0.0000000E+00 -0.5050505E-02  0.1282401E-03  0.0000000E+00  0.9828570E-03
 -0.1025842E-02  0.0000000E+00 -0.5050505E-02  0.1346079E-03  0.0000000E+00  0.1044745E-02
  0.2367855E-03  0.0000000E+00 -0.5050505E-02  0.1404311E-03  0.0000000E+00  0.1105678E-02
  0.1499413E-02  0.0000000E+00 -0.5050505E-02  0.1536246E-03  0.0000000E+00  0.1168447E-02
  0.2762042E-02  0.0000000E+00 -0.5050505E-02  0.1711069E-03  0.0000000E+00  0.1235823E-02
 -0.5050505E-02  0.0000000E+00 -0.5050505E-02  0.1910922E-03  0.0000000E+00  0.1304036E-02
 -0.5050505E-02  0.0000000E+00 -0.5050505E-02  0.2085047E-03  0.0000000E+00  0.1368030E-02
 -0.5050505E-02  0.0000000E+00 -0.5050505E-02  0.2363446E-03  0.0000000E+00  0.1428354E-02
 -0.5050505E-02  0.0000000E+00 -0.5050505E-02  0.2401825E-03  0.0000000E+00  0.1532880E-02
 -0.5050505E-02  0.0000000E+00 -0.5050505E-02  0.1275211E-03  0.0000000E+00  0.1627294E-02
 -0.5050505E-02  0.0000000E+00 -0.5050505E-02  0.1314466E-03  0.0000000E+00  0.1716163E-02
 -0.5050505E-02  0.0000000E+00 -0.5050505E-02  0.1771666E-03  0.0000000E+00  0.1842681E-02
 -0.5050504E-02  0.0000000E+00 -0.5050505E-02  0.1529951E-03  0.0000000E+00  0.1885182E-02
 -0.5050501E-02  0.0000000E+00 -0.5050505E-02  0.2873876E-03  0.0000000E+00  0.1878756E-02
 -0.5050495E-02  0.0000000E+00 -0.5050505E-02  0.5056660E-03  0.0000000E+00  0.1913963E-02
 -0.5050482E-02  0.0000000E+00 -0.5050505E-02  0.7295684E-03  0.0000000E+00  0.1963076E-02
 -0.5050449E-02  0.0000000E+00 -0.5050505E-02 -0.3935440E-03  0.0000000E+00  0.1955800E-02
 -0.5050376E-02  0.0000000E+00 -0.5050505E-02 -0.4530426E-03  0.0000000E+00  0.1855375E-02
 -0.5050299E-02  0.0000000E+00 -0.5050505E-02 -0.5906403E-03  0.0000000E+00  0.1759843E-02
 -0.5050178E-02  0.0000000E+00 -0.5050505E-02 -0.4399809E-03  0.0000000E+00  0.1718823E-02
 -0.5050018E-02  0.0000000E+00 -0.5050505E-02 -0.3866796E-03  0.0000000E+00  0.1622437E-02
 -0.5049710E-02  0.0000000E+00 -0.5050505E-02 -0.2572198E-03  0.0000000E+00  0.1497233E-02
 -0.5049253E-02  0.0000000E+00 -0.5050505E-02 -0.1740664E-03  0.0000000E+00  0.1423303E-02
 -0.5048636E-02  0.0000000E+00 -0.5050505E-02 -0.1232917E-03  0.0000000E+00  0.1373801E-02
 -0.5047442E-02  0.0000000E+00 -0.5050505E-02 -0.9528010E-04  0.0000000E+00  0.1334581E-02
 -0.5045727E-02  0.0000000E+00 -0.5050505E-02 -0.7363883E-04  0.0000000E+00  0.1301835E-02
 -0.5043261E-02  0.0000000E+00 -0.5050505E-02 -0.6799408E-04  0.0000000E+00  0.1267576E-02
 -0.5038714E-02  0.0000000E+00 -0.5050505E-02 -0.5148607E-04  0.0000000E+00  0.1226246E-02
 -0.5032318E-02  0.0000000E+00 -0.5050505E-02 -0.3493028E-04  0.0000000E+00  0.1166027E-02
 -0.5022454E-02  0.0000000E+00 -0.5050505E-02 -0.1602876E-03  0.0000000E+00  0.1055681E-02
 -0.5012589E-02  0.0000000E+00 -0.5050505E-02 -0.1636019E-03  0.0000000E+00  0.9606659E-03
 -0.5002725E-02  0.0000000E+00 -0.5050505E-02 -0.1572076E-03  0.0000000E+00  0.9294010E-03
 -0.4992860E-02  0.0000000E+00 -0.5050505E-02 -0.1289883E-03  0.0000000E+00  0.9065962E-03
 -0.4976523E-02  0.0000000E+00 -0.5050505E-02 -0.1272216E-03  0.0000000E+00  0.8748721E-03
 -0.4956794E-02  0.0000000E+00 -0.5050505E-02 -0.1037669E-03  0.0000000E+00  0.8463838E-03
 -0.4937066E-02  0.0000000E+00 -0.5050505E-02 -0.9649986E-04  0.0000000E+00  0.8247214E-03
 -0.4906239E-02  0.0000000E+00 -0.5050505E-02 -0.1493316E-03  0.0000000E+00  0.7676591E-03
 -0.4866782E-02  0.0000000E+00 -0.5050505E-02 -0.1139751E-03  0.0000000E+00  0.6954301E-03
 -0.4827325E-02  0.0000000E+00 -0.5050505E-02 -0.9386361E-04  0.0000000E+00  0.6519158E-03
 -0.4769372E-02  0.0000000E+00 -0.5050505E-02 -0.8124560E-04  0.0000000E+00  0.6171710E-03
 -0.4690458E-02  0.0000000E+00 -0.5050505E-02 -0.7269324E-04  0.0000000E+00  0.5862591E-03
 -0.4611543E-02  0.0000000E+00 -0.5050505E-02 -0.6632700E-04  0.0000000E+00  0.5576917E-03
 -0.4503035E-02  0.0000000E+00 -0.5050505E-02 -0.6097360E-04  0.0000000E+00  0.5310142E-03
 -0.4345206E-02  0.0000000E+00 -0.5050505E-02 -0.5592373E-04  0.0000000E+00  0.5062053E-03
 -0.4187378E-02  0.0000000E+00 -0.5050505E-02 -0.5084497E-04  0.0000000E+00  0.4834145E-03
 -0.3985156E-02  0.0000000E+00 -0.5050505E-02 -0.4564777E-04  0.0000000E+00  0.4627983E-03
 -0.3669499E-02  0.0000000E+00 -0.5050505E-02 -0.4035415E-04  0.0000000E+00  0.4444503E-03
 -0.3353842E-02  0.0000000E+00 -0.5050505E-02 -0.3500927E-04  0.0000000E+00  0.4283936E-03
 -0.2978990E-02  0.0000000E+00 -0.5050505E-02 -0.2963313E-04  0.0000000E+00  0.4145953E-03
 -0.2347676E-02  0.0000000E+00 -0.5050505E-02 -0.2419339E-04  0.0000000E+00  0.4029764E-03
 -0.1716362E-02  0.0000000E+00 -0.5050505E-02 -0.1858206E-04  0.0000000E+00  0.3933916E-03
 -0.1025842E-02  0.0000000E+00 -0.5050505E-02 -0.1259107E-04  0.0000000E+00  0.3855378E-03
  0.2367855E-03  0.0000000E+00 -0.5050505E-02 -0.5935373E-05  0.0000000E+00  0.3787100E-03
  0.1499413E-02  0.0000000E+00 -0.5050505E-02  0.1364230E-05  0.0000000E+00  0.3713927E-03
  0.5287294E-02  0.0000000E+00 -0.5050505E-02  0.6680086E-05  0.0000000E+00  0.3619763E-03
 -0.5050505E-02  0.0000000E+00 -0.5050505E-02  0.5657698E-06  0.0000000E+00  0.7921349E-04
 -0.5050505E-02  0.0000000E+00 -0.5050505E-02  0.1699016E-05  0.0000000E+00  0.7953957E-04
 -0.5050505E-02  0.0000000E+00 -0.5050505E-02  0.2837421E-05  0.0000000E+00  0.8019264E-04
 -0.5050505E-02  0.0000000E+00 -0.5050505E-02  0.3984519E-05  0.0000000E+00  0.8117464E-04
 -0.5050505E-02  0.0000000E+00 -0.5050505E-02  0.5143973E-05  0.0000000E+00  0.8248856E-04
 -0.5050505E-02  0.0000000E+00 -0.5050505E-02  0.6319613E-05  0.0000000E+00  0.8413845E-04
 -0.5050504E-02  0.0000000E+00 -0.5050505E-02  0.7515490E-05  0.0000000E+00  0.8612952E-04
 -0.5050501E-02  0.0000000E+00 -0.5050505E-02  0.8735931E-05  0.0000000E+00  0.8846818E-04
 -0.5050495E-02  0.0000000E+00 -0.5050505E-02  0.9985599E-05  0.0000000E+00  0.9116212E-04
 -0.5050482E-02  0.0000000E+00 -0.5050505E-02  0.1126956E-04  0.0000000E+00  0.9422043E-04
 -0.5050449E-02  0.0000000E+00 -0.5050505E-02  0.1259337E-04  0.0000000E+00  0.9765371E-04
 -0.5050376E-02  0.0000000E+00 -0.5050505E-02  0.1396317E-04  0.0000000E+00  0.1014742E-03
 -0.5050299E-02  0.0000000E+00 -0.5050505E-02  0.1538577E-04  0.0000000E+00  0.1056961E-03
 -0.5050178E-02  0.0000000E+00 -0.5050505E-02  0.1686880E-04  0.0000000E+00  0.1103354E-03
 -0.5050018E-02  0.0000000E+00 -0.5050505E-02  0.1842084E-04  0.0000000E+00  0.1154106E-03
 -0.5049710E-02  0.0000000E+00 -0.5050505E-02  0.2005161E-04  0.0000000E+00  0.1209426E-03
 -0.5049253E-02  0.0000000E+00 -0.5050505E-02  0.2177214E-04  0.0000000E+00  0.1269554E-03
 -0.5048636E-02  0.0000000E+00 -0.5050505E-02  0.2359507E-04  0.0000000E+00  0.1334762E-03
 -0.5047442E-02  0.0000000E+00 -0.5050505E-02  0.2553491E-04  0.0000000E+00  0.1405357E-03
 -0.5045727E-02  0.0000000E+00 -0.5050505E-02  0.2760841E-04  0.0000000E+00  0.1481694E-03
 -0.5043261E-02  0.0000000E+00 -0.5050505E-02  0.2983501E-04  0.0000000E+00  0.1564173E-03
 -0.5038714E-02  0.0000000E+00 -0.5050505E-02  0.3223739E-04  0.0000000E+00  0.1653254E-03
 -0.5032318E-02  0.0000000E+00 -0.5050505E-02  0.3484217E-04  0.0000000E+00  0.1749462E-03
 -0.5022454E-02  0.0000000E+00 -0.5050505E-02  0.3768077E-04  0.0000000E+00  0.1853400E-03
 -0.5012589E-02  0.0000000E+00 -0.5050505E-02  0.4079053E-04  0.0000000E+00  0.1965761E-03
 -0.5002725E-02  0.0000000E+00 -0.5050505E-02  0.4421617E-04  0.0000000E+00  0.2087344E-03
 -0.4992860E-02  0.0000000E+00 -0.5050505E-02  0.4801171E-04  0.0000000E+00  0.2219072E-03
 -0.4976523E-02  0.0000000E+00 -0.5050505E-02  0.5224300E-04  0.0000000E+00  0.2362015E-03
 -0.4956794E-02  0.0000000E+00 -0.5050505E-02  0.5699122E-04  0.0000000E+00  0.2517419E-03
 -0.4937066E-02  0.0000000E+00 -0.5050505E-02  0.6235772E-04  0.0000000E+00  0.2686730E-03