title = "dataset feddes"
variables = "x", "y", "z", "vx", "vy", "vz"
zone t = "velocities, solution time =  2.900E+01 days        " i =   99, j =   99, k =    1,  f=point
 -0.5050505E-02  0.0000000E+00 -0.5050505E-02  0.2727758E-08  0.0000000E+00 -0.3159156E-03
 -0.5050505E-02  0.0000000E+00 -0.5050505E-02  0.8181365E-08  0.0000000E+00 -0.3159043E-03
 -0.5050505E-02  0.0000000E+00 -0.5050505E-02  0.1362923E-07  0.0000000E+00 -0.3158817E-03
 -0.5050505E-02  0.0000000E+00 -0.5050505E-02  0.1906749E-07  0.0000000E+00 -0.3158477E-03
 -0.5050505E-02  0.0000000E+00 -0.5050505E-02  0.2449228E-07  0.0000000E+00 -0.3158025E-03
 -0.5050505E-02  0.0000000E+00 -0.5050505E-02  0.2989968E-07  0.0000000E+00 -0.3157461E-03
 -0.5050504E-02  0.0000000E+00 -0.5050505E-02  0.3528572E-07  0.0000000E+00 -0.3156784E-03
 -0.5050501E-02  0.0000000E+00 -0.5050505E-02  0.4064634E-07  0.0000000E+00 -0.3155996E-03
 -0.5050495E-02  0.0000000E+00 -0.5050505E-02  0.4597742E-07  0.0000000E+00 -0.3155097E-03
 -0.5050482E-02  0.0000000E+00 -0.5050505E-02  0.5127474E-07  0.0000000E+00 -0.3154088E-03
 -0.5050449E-02  0.0000000E+00 -0.5050505E-02  0.5653399E-07  0.0000000E+00 -0.3152969E-03
 -0.5050376E-02  0.0000000E+00 -0.5050505E-02  0.6175072E-07  0.0000000E+00 -0.3151742E-03
 -0.5050299E-02  0.0000000E+00 -0.5050505E-02  0.6692039E-07  0.0000000E+00 -0.3150406E-03
 -0.5050178E-02  0.0000000E+00 -0.5050505E-02  0.7203831E-07  0.0000000E+00 -0.3148964E-03
 -0.5050018E-02  0.0000000E+00 -0.5050505E-02  0.7709966E-07  0.0000000E+00 -0.3147417E-03
 -0.5049710E-02  0.0000000E+00 -0.5050505E-02  0.8209948E-07  0.0000000E+00 -0.3145765E-03
 -0.5049253E-02  0.0000000E+00 -0.5050505E-02  0.8703265E-07  0.0000000E+00 -0.3144010E-03
 -0.5048636E-02  0.0000000E+00 -0.5050505E-02  0.9189390E-07  0.0000000E+00 -0.3142153E-03
 -0.5047442E-02  0.0000000E+00 -0.5050505E-02  0.9667779E-07  0.0000000E+00 -0.3140196E-03
 -0.5045727E-02  0.0000000E+00 -0.5050505E-02  0.1013787E-06  0.0000000E+00 -0.3138141E-03
 -0.5043261E-02  0.0000000E+00 -0.5050505E-02  0.1059909E-06  0.0000000E+00 -0.3135990E-03
 -0.5038714E-02  0.0000000E+00 -0.5050505E-02  0.1105083E-06  0.0000000E+00 -0.3133743E-03
 -0.5032318E-02  0.0000000E+00 -0.5050505E-02  0.1149249E-06  0.0000000E+00 -0.3131404E-03
 -0.5022454E-02  0.0000000E+00 -0.5050505E-02  0.1192342E-06  0.0000000E+00 -0.3128975E-03
 -0.5012589E-02  0.0000000E+00 -0.5050505E-02  0.1234295E-06  0.0000000E+00 -0.3126457E-03
 -0.5002725E-02  0.0000000E+00 -0.5050505E-02  0.1275041E-06  0.0000000E+00 -0.3123854E-03
 -0.4992860E-02  0.0000000E+00 -0.5050505E-02  0.1314507E-06  0.0000000E+00 -0.3121168E-03
 -0.4976523E-02  0.0000000E+00 -0.5050505E-02  0.1352618E-06  0.0000000E+00 -0.3118401E-03
 -0.4956794E-02  0.0000000E+00 -0.5050505E-02  0.1389294E-06  0.0000000E+00 -0.3115557E-03
 -0.4937066E-02  0.0000000E+00 -0.5050505E-02  0.1424453E-06  0.0000000E+00 -0.3112638E-03
 -0.4906239E-02  0.0000000E+00 -0.5050505E-02  0.1458003E-06  0.0000000E+00 -0.3109648E-03
 -0.4866782E-02  0.0000000E+00 -0.5050505E-02  0.1489849E-06  0.0000000E+00 -0.3106590E-03
 -0.4827325E-02  0.0000000E+00 -0.5050505E-02  0.1519886E-06  0.0000000E+00 -0.3103469E-03
 -0.4769372E-02  0.0000000E+00 -0.5050505E-02  0.1547998E-06  0.0000000E+00 -0.3100287E-03
 -0.4690458E-02  0.0000000E+00 -0.5050505E-02  0.1574057E-06  0.0000000E+00 -0.3097049E-03
 -0.4611543E-02  0.0000000E+00 -0.5050505E-02  0.1597919E-06  0.0000000E+00 -0.3093759E-03
 -0.4503035E-02  0.0000000E+00 -0.5050505E-02  0.1619421E-06  0.0000000E+00 -0.3090423E-03
 -0.4345206E-02  0.0000000E+00 -0.5050505E-02  0.1638377E-06  0.0000000E+00 -0.3087044E-03
 -0.4187378E-02  0.0000000E+00 -0.5050505E-02  0.1654571E-06  0.0000000E+00 -0.3083630E-03
 -0.3985156E-02  0.0000000E+00 -0.5050505E-02  0.1667754E-06  0.0000000E+00 -0.3080185E-03
 -0.3669499E-02  0.0000000E+00 -0.5050505E-02  0.1677635E-06  0.0000000E+00 -0.3076716E-03
 -0.3353842E-02  0.0000000E+00 -0.5050505E-02  0.1683872E-06  0.0000000E+00 -0.3073231E-03
 -0.2978990E-02  0.0000000E+00 -0.5050505E-02  0.1686067E-06  0.0000000E+00 -0.3069737E-03
 -0.2347676E-02  0.0000000E+00 -0.5050505E-02  0.1683755E-06  0.0000000E+00 -0.3066243E-03
 -0.1716362E-02  0.0000000E+00 -0.5050505E-02  0.1676393E-06  0.0000000E+00 -0.3062759E-03
 -0.1025842E-02  0.0000000E+00 -0.5050505E-02  0.1663352E-06  0.0000000E+00 -0.3059297E-03
  0.2367855E-03  0.0000000E+00 -0.5050505E-02  0.1643912E-06  0.0000000E+00 -0.3055869E-03
  0.1499413E-02  0.0000000E+00 -0.5050505E-02  0.1617254E-06  0.0000000E+00 -0.3052488E-03
  0.2762042E-02  0.0000000E+00 -0.5050505E-02  0.1582463E-06  0.0000000E+00 -0.3049172E-03
 -0.5050505E-02  0.0000000E+00 -0.5050505E-02  0.1538539E-06  0.0000000E+00 -0.3045937E-03
 -0.5050505E-02  0.0000000E+00 -0.5050505E-02  0.1484408E-06  0.0000000E+00 -0.3042803E-03
 -0.5050505E-02  0.0000000E+00 -0.5050505E-02  0.1418961E-06  0.0000000E+00 -0.3039794E-03
 -0.5050505E-02  0.0000000E+00 -0.5050505E-02  0.1341104E-06  0.0000000E+00 -0.3036933E-03
 -0.5050505E-02  0.0000000E+00 -0.5050505E-02  0.1249817E-06  0.0000000E+00 -0.3034248E-03
 -0.5050505E-02  0.0000000E+00 -0.5050505E-02  0.1144250E-06  0.0000000E+00 -0.3031767E-03
 -0.5050505E-02  0.0000000E+00 -0.5050505E-02  0.1023823E-06  0.0000000E+00 -0.3029520E-03
 -0.5050504E-02  0.0000000E+00 -0.5050505E-02  0.8883353E-07  0.0000000E+00 -0.3027539E-03
 -0.5050501E-02  0.0000000E+00 -0.5050505E-02  0.7380852E-07  0.0000000E+00 -0.3025853E-03
 -0.5050495E-02  0.0000000E+00 -0.5050505E-02  0.5739607E-07  0.0000000E+00 -0.3024494E-03
 -0.5050482E-02  0.0000000E+00 -0.5050505E-02  0.3975037E-07  0.0000000E+00 -0.3023487E-03
 -0.5050449E-02  0.0000000E+00 -0.5050505E-02  0.2109199E-07  0.0000000E+00 -0.3022856E-03
 -0.5050376E-02  0.0000000E+00 -0.5050505E-02  0.1702431E-08  0.0000000E+00 -0.3022620E-03
 -0.5050299E-02  0.0000000E+00 -0.5050505E-02 -0.1808785E-07  0.0000000E+00 -0.3022790E-03
 -0.5050178E-02  0.0000000E+00 -0.5050505E-02 -0.3791735E-07  0.0000000E+00 -0.3023370E-03
 -0.5050018E-02  0.0000000E+00 -0.5050505E-02 -0.5741508E-07  0.0000000E+00 -0.3024358E-03
 -0.5049710E-02  0.0000000E+00 -0.5050505E-02 -0.7622268E-07  0.0000000E+00 -0.3025743E-03
 -0.5049253E-02  0.0000000E+00 -0.5050505E-02 -0.9401443E-07  0.0000000E+00 -0.3027507E-03
 -0.5048636E-02  0.0000000E+00 -0.5050505E-02 -0.1105128E-06  0.0000000E+00 -0.3029627E-03
 -0.5047442E-02  0.0000000E+00 -0.5050505E-02 -0.1254985E-06  0.0000000E+00 -0.3032073E-03
 -0.5045727E-02  0.0000000E+00 -0.5050505E-02 -0.1388145E-06  0.0000000E+00 -0.3034812E-03
 -0.5043261E-02  0.0000000E+00 -0.5050505E-02 -0.1503652E-06  0.0000000E+00 -0.3037809E-03
 -0.5038714E-02  0.0000000E+00 -0.5050505E-02 -0.1601113E-06  0.0000000E+00 -0.3041027E-03
 -0.5032318E-02  0.0000000E+00 -0.5050505E-02 -0.1680629E-06  0.0000000E+00 -0.3044428E-03
 -0.5022454E-02  0.0000000E+00 -0.5050505E-02 -0.1742710E-06  0.0000000E+00 -0.3047977E-03
 -0.5012589E-02  0.0000000E+00 -0.5050505E-02 -0.1788187E-06  0.0000000E+00 -0.3051637E-03
 -0.5002725E-02  0.0000000E+00 -0.5050505E-02 -0.1818139E-06  0.0000000E+00 -0.3055375E-03
 -0.4992860E-02  0.0000000E+00 -0.5050505E-02 -0.1833825E-06  0.0000000E+00 -0.3059161E-03
 -0.4976523E-02  0.0000000E+00 -0.5050505E-02 -0.1836640E-06  0.0000000E+00 -0.3062966E-03
 -0.4956794E-02  0.0000000E+00 -0.5050505E-02 -0.1828078E-06  0.0000000E+00 -0.3066765E-03
 -0.4937066E-02  0.0000000E+00 -0.5050505E-02 -0.1809728E-06  0.0000000E+00 -0.3070537E-03
 -0.4906239E-02  0.0000000E+00 -0.5050505E-02 -0.1783282E-06  0.0000000E+00 -0.3074262E-03
 -0.4866782E-02  0.0000000E+00 -0.5050505E-02 -0.1750578E-06  0.0000000E+00 -0.3077926E-03
 -0.4827325E-02  0.0000000E+00 -0.5050505E-02 -0.1713675E-06  0.0000000E+00 -0.3081518E-03
 -0.4769372E-02  0.0000000E+00 -0.5050505E-02 -0.1674985E-06  0.0000000E+00 -0.3085032E-03
 -0.4690458E-02  0.0000000E+00 -0.5050505E-02 -0.1637494E-06  0.0000000E+00 -0.3088467E-03
 -0.4611543E-02  0.0000000E+00 -0.5050505E-02 -0.1605113E-06  0.0000000E+00 -0.3091829E-03
 -0.4503035E-02  0.0000000E+00 -0.5050505E-02 -0.1583290E-06  0.0000000E+00 -0.3095136E-03
 -0.4345206E-02  0.0000000E+00 -0.5050505E-02 -0.1580066E-06  0.0000000E+00 -0.3098417E-03
 -0.4187378E-02  0.0000000E+00 -0.5050505E-02 -0.1607993E-06  0.0000000E+00 -0.3101723E-03
 -0.3985156E-02  0.0000000E+00 -0.5050505E-02 -0.1687818E-06  0.0000000E+00 -0.3105142E-03
 -0.3669499E-02  0.0000000E+00 -0.5050505E-02 -0.1855906E-06  0.0000000E+00 -0.3108817E-03
 -0.3353842E-02  0.0000000E+00 -0.5050505E-02 -0.2180277E-06  0.0000000E+00 -0.3113004E-03
 -0.2978990E-02  0.0000000E+00 -0.5050505E-02 -0.2797921E-06  0.0000000E+00 -0.3118168E-03
 -0.2347676E-02  0.0000000E+00 -0.5050505E-02 -0.4009302E-06  0.0000000E+00 -0.3125229E-03
 -0.1716362E-02  0.0000000E+00 -0.5050505E-02 -0.6540871E-06  0.0000000E+00 -0.3136175E-03
 -0.1025842E-02  0.0000000E+00 -0.5050505E-02 -0.1234754E-05  0.0000000E+00 -0.3155773E-03
  0.2367855E-03  0.0000000E+00 -0.5050505E-02 -0.2730637E-05  0.0000000E+00 -0.3196929E-03
  0.1499413E-02  0.0000000E+00 -0.5050505E-02 -0.7107033E-05  0.0000000E+00 -0.3299085E-03
  0.5287294E-02  0.0000000E+00 -0.5050505E-02 -0.1162290E-03  0.0000000E+00 -0.2632441E-03
 -0.5050505E-02  0.0000000E+00 -0.5050505E-02  0.8194113E-08  0.0000000E+00 -0.3157008E-03
 -0.5050505E-02  0.0000000E+00 -0.5050505E-02  0.2457662E-07  0.0000000E+00 -0.3156895E-03
 -0.5050505E-02  0.0000000E+00 -0.5050505E-02  0.4094191E-07  0.0000000E+00 -0.3156667E-03
 -0.5050505E-02  0.0000000E+00 -0.5050505E-02  0.5727847E-07  0.0000000E+00 -0.3156326E-03
 -0.5050505E-02  0.0000000E+00 -0.5050505E-02  0.7357467E-07  0.0000000E+00 -0.3155871E-03
 -0.5050505E-02  0.0000000E+00 -0.5050505E-02  0.8981877E-07  0.0000000E+00 -0.3155303E-03
 -0.5050504E-02  0.0000000E+00 -0.5050505E-02  0.1059989E-06  0.0000000E+00 -0.3154623E-03
 -0.5050501E-02  0.0000000E+00 -0.5050505E-02  0.1221028E-06  0.0000000E+00 -0.3153831E-03
 -0.5050495E-02  0.0000000E+00 -0.5050505E-02  0.1381183E-06  0.0000000E+00 -0.3152926E-03
 -0.5050482E-02  0.0000000E+00 -0.5050505E-02  0.1540325E-06  0.0000000E+00 -0.3151911E-03
 -0.5050449E-02  0.0000000E+00 -0.5050505E-02  0.1698327E-06  0.0000000E+00 -0.3150786E-03
 -0.5050376E-02  0.0000000E+00 -0.5050505E-02  0.1855056E-06  0.0000000E+00 -0.3149552E-03
 -0.5050299E-02  0.0000000E+00 -0.5050505E-02  0.2010373E-06  0.0000000E+00 -0.3148209E-03
 -0.5050178E-02  0.0000000E+00 -0.5050505E-02  0.2164140E-06  0.0000000E+00 -0.3146758E-03
 -0.5050018E-02  0.0000000E+00 -0.5050505E-02  0.2316212E-06  0.0000000E+00 -0.3145202E-03
 -0.5049710E-02  0.0000000E+00 -0.5050505E-02  0.2466440E-06  0.0000000E+00 -0.3143540E-03
 -0.5049253E-02  0.0000000E+00 -0.5050505E-02  0.2614670E-06  0.0000000E+00 -0.3141775E-03
 -0.5048636E-02  0.0000000E+00 -0.5050505E-02  0.2760745E-06  0.0000000E+00 -0.3139907E-03
 -0.5047442E-02  0.0000000E+00 -0.5050505E-02  0.2904501E-06  0.0000000E+00 -0.3137939E-03
 -0.5045727E-02  0.0000000E+00 -0.5050505E-02  0.3045771E-06  0.0000000E+00 -0.3135871E-03
 -0.5043261E-02  0.0000000E+00 -0.5050505E-02  0.3184381E-06  0.0000000E+00 -0.3133707E-03
 -0.5038714E-02  0.0000000E+00 -0.5050505E-02  0.3320153E-06  0.0000000E+00 -0.3131447E-03
 -0.5032318E-02  0.0000000E+00 -0.5050505E-02  0.3452900E-06  0.0000000E+00 -0.3129093E-03
 -0.5022454E-02  0.0000000E+00 -0.5050505E-02  0.3582433E-06  0.0000000E+00 -0.3126649E-03
 -0.5012589E-02  0.0000000E+00 -0.5050505E-02  0.3708552E-06  0.0000000E+00 -0.3124116E-03
 -0.5002725E-02  0.0000000E+00 -0.5050505E-02  0.3831052E-06  0.0000000E+00 -0.3121496E-03
 -0.4992860E-02  0.0000000E+00 -0.5050505E-02  0.3949717E-06  0.0000000E+00 -0.3118793E-03
 -0.4976523E-02  0.0000000E+00 -0.5050505E-02  0.4064324E-06  0.0000000E+00 -0.3116008E-03
 -0.4956794E-02  0.0000000E+00 -0.5050505E-02  0.4174635E-06  0.0000000E+00 -0.3113145E-03
 -0.4937066E-02  0.0000000E+00 -0.5050505E-02  0.4280400E-06  0.0000000E+00 -0.3110208E-03
 -0.4906239E-02  0.0000000E+00 -0.5050505E-02  0.4381351E-06  0.0000000E+00 -0.3107198E-03
 -0.4866782E-02  0.0000000E+00 -0.5050505E-02  0.4477200E-06  0.0000000E+00 -0.3104120E-03
 -0.4827325E-02  0.0000000E+00 -0.5050505E-02  0.4567635E-06  0.0000000E+00 -0.3100976E-03
 -0.4769372E-02  0.0000000E+00 -0.5050505E-02  0.4652312E-06  0.0000000E+00 -0.3097772E-03
 -0.4690458E-02  0.0000000E+00 -0.5050505E-02  0.4730849E-06  0.0000000E+00 -0.3094511E-03
 -0.4611543E-02  0.0000000E+00 -0.5050505E-02  0.4802819E-06  0.0000000E+00 -0.3091198E-03
 -0.4503035E-02  0.0000000E+00 -0.5050505E-02  0.4867737E-06  0.0000000E+00 -0.3087836E-03
 -0.4345206E-02  0.0000000E+00 -0.5050505E-02  0.4925048E-06  0.0000000E+00 -0.3084432E-03
 -0.4187378E-02  0.0000000E+00 -0.5050505E-02  0.4974112E-06  0.0000000E+00 -0.3080991E-03
 -0.3985156E-02  0.0000000E+00 -0.5050505E-02  0.5014185E-06  0.0000000E+00 -0.3077518E-03
 -0.3669499E-02  0.0000000E+00 -0.5050505E-02  0.5044402E-06  0.0000000E+00 -0.3074020E-03
 -0.3353842E-02  0.0000000E+00 -0.5050505E-02  0.5063747E-06  0.0000000E+00 -0.3070504E-03
 -0.2978990E-02  0.0000000E+00 -0.5050505E-02  0.5071030E-06  0.0000000E+00 -0.3066979E-03
 -0.2347676E-02  0.0000000E+00 -0.5050505E-02  0.5064861E-06  0.0000000E+00 -0.3063452E-03
 -0.1716362E-02  0.0000000E+00 -0.5050505E-02  0.5043614E-06  0.0000000E+00 -0.3059933E-03
 -0.1025842E-02  0.0000000E+00 -0.5050505E-02  0.5005409E-06  0.0000000E+00 -0.3056434E-03
  0.2367855E-03  0.0000000E+00 -0.5050505E-02  0.4948077E-06  0.0000000E+00 -0.3052967E-03
  0.1499413E-02  0.0000000E+00 -0.5050505E-02  0.4869156E-06  0.0000000E+00 -0.3049546E-03
  0.2762042E-02  0.0000000E+00 -0.5050505E-02  0.4765882E-06  0.0000000E+00 -0.3046186E-03
 -0.5050505E-02  0.0000000E+00 -0.5050505E-02  0.4635219E-06  0.0000000E+00 -0.3042906E-03
 -0.5050505E-02  0.0000000E+00 -0.5050505E-02  0.4473905E-06  0.0000000E+00 -0.3039726E-03
 -0.5050505E-02  0.0000000E+00 -0.5050505E-02  0.4278551E-06  0.0000000E+00 -0.3036668E-03
 -0.5050505E-02  0.0000000E+00 -0.5050505E-02  0.4045784E-06  0.0000000E+00 -0.3033757E-03
 -0.5050505E-02  0.0000000E+00 -0.5050505E-02  0.3772453E-06  0.0000000E+00 -0.3031020E-03
 -0.5050505E-02  0.0000000E+00 -0.5050505E-02  0.3455889E-06  0.0000000E+00 -0.3028486E-03
 -0.5050505E-02  0.0000000E+00 -0.5050505E-02  0.3094225E-06  0.0000000E+00 -0.3026188E-03
 -0.5050504E-02  0.0000000E+00 -0.5050505E-02  0.2686749E-06  0.0000000E+00 -0.3024157E-03
 -0.5050501E-02  0.0000000E+00 -0.5050505E-02  0.2234255E-06  0.0000000E+00 -0.3022425E-03
 -0.5050495E-02  0.0000000E+00 -0.5050505E-02  0.1739355E-06  0.0000000E+00 -0.3021025E-03
 -0.5050482E-02  0.0000000E+00 -0.5050505E-02  0.1206678E-06  0.0000000E+00 -0.3019983E-03
 -0.5050449E-02  0.0000000E+00 -0.5050505E-02  0.6429176E-07  0.0000000E+00 -0.3019327E-03
 -0.5050376E-02  0.0000000E+00 -0.5050505E-02  0.5666604E-08  0.0000000E+00 -0.3019074E-03
 -0.5050299E-02  0.0000000E+00 -0.5050505E-02 -0.5419538E-07  0.0000000E+00 -0.3019237E-03
 -0.5050178E-02  0.0000000E+00 -0.5050505E-02 -0.1141850E-06  0.0000000E+00 -0.3019822E-03
 -0.5050018E-02  0.0000000E+00 -0.5050505E-02 -0.1731636E-06  0.0000000E+00 -0.3020826E-03
 -0.5049710E-02  0.0000000E+00 -0.5050505E-02 -0.2300331E-06  0.0000000E+00 -0.3022237E-03
 -0.5049253E-02  0.0000000E+00 -0.5050505E-02 -0.2837978E-06  0.0000000E+00 -0.3024037E-03
 -0.5048636E-02  0.0000000E+00 -0.5050505E-02 -0.3336130E-06  0.0000000E+00 -0.3026199E-03
 -0.5047442E-02  0.0000000E+00 -0.5050505E-02 -0.3788151E-06  0.0000000E+00 -0.3028695E-03
 -0.5045727E-02  0.0000000E+00 -0.5050505E-02 -0.4189330E-06  0.0000000E+00 -0.3031489E-03
 -0.5043261E-02  0.0000000E+00 -0.5050505E-02 -0.4536842E-06  0.0000000E+00 -0.3034543E-03
 -0.5038714E-02  0.0000000E+00 -0.5050505E-02 -0.4829589E-06  0.0000000E+00 -0.3037821E-03
 -0.5032318E-02  0.0000000E+00 -0.5050505E-02 -0.5067962E-06  0.0000000E+00 -0.3041282E-03
 -0.5022454E-02  0.0000000E+00 -0.5050505E-02 -0.5253583E-06  0.0000000E+00 -0.3044890E-03
 -0.5012589E-02  0.0000000E+00 -0.5050505E-02 -0.5389036E-06  0.0000000E+00 -0.3048608E-03
 -0.5002725E-02  0.0000000E+00 -0.5050505E-02 -0.5477634E-06  0.0000000E+00 -0.3052402E-03
 -0.4992860E-02  0.0000000E+00 -0.5050505E-02 -0.5523218E-06  0.0000000E+00 -0.3056241E-03
 -0.4976523E-02  0.0000000E+00 -0.5050505E-02 -0.5530010E-06  0.0000000E+00 -0.3060096E-03
 -0.4956794E-02  0.0000000E+00 -0.5050505E-02 -0.5502520E-06  0.0000000E+00 -0.3063941E-03
 -0.4937066E-02  0.0000000E+00 -0.5050505E-02 -0.5445510E-06  0.0000000E+00 -0.3067755E-03
 -0.4906239E-02  0.0000000E+00 -0.5050505E-02 -0.5364027E-06  0.0000000E+00 -0.3071518E-03
 -0.4866782E-02  0.0000000E+00 -0.5050505E-02 -0.5263514E-06  0.0000000E+00 -0.3075215E-03
 -0.4827325E-02  0.0000000E+00 -0.5050505E-02 -0.5150026E-06  0.0000000E+00 -0.3078835E-03
 -0.4769372E-02  0.0000000E+00 -0.5050505E-02 -0.5030595E-06  0.0000000E+00 -0.3082370E-03
 -0.4690458E-02  0.0000000E+00 -0.5050505E-02 -0.4913827E-06  0.0000000E+00 -0.3085818E-03
 -0.4611543E-02  0.0000000E+00 -0.5050505E-02 -0.4810872E-06  0.0000000E+00 -0.3089183E-03
 -0.4503035E-02  0.0000000E+00 -0.5050505E-02 -0.4737046E-06  0.0000000E+00 -0.3092477E-03
 -0.4345206E-02  0.0000000E+00 -0.5050505E-02 -0.4714593E-06  0.0000000E+00 -0.3095723E-03
 -0.4187378E-02  0.0000000E+00 -0.5050505E-02 -0.4777606E-06  0.0000000E+00 -0.3098961E-03
 -0.3985156E-02  0.0000000E+00 -0.5050505E-02 -0.4981104E-06  0.0000000E+00 -0.3102252E-03
 -0.3669499E-02  0.0000000E+00 -0.5050505E-02 -0.5418630E-06  0.0000000E+00 -0.3105693E-03
 -0.3353842E-02  0.0000000E+00 -0.5050505E-02 -0.6258090E-06  0.0000000E+00 -0.3109439E-03
 -0.2978990E-02  0.0000000E+00 -0.5050505E-02 -0.7818967E-06  0.0000000E+00 -0.3113723E-03
 -0.2347676E-02  0.0000000E+00 -0.5050505E-02 -0.1074874E-05  0.0000000E+00 -0.3118874E-03
 -0.1716362E-02  0.0000000E+00 -0.5050505E-02 -0.1645115E-05  0.0000000E+00 -0.3125224E-03
 -0.1025842E-02  0.0000000E+00 -0.5050505E-02 -0.2818884E-05  0.0000000E+00 -0.3132386E-03
  0.2367855E-03  0.0000000E+00 -0.5050505E-02 -0.5407780E-05  0.0000000E+00 -0.3135556E-03
  0.1499413E-02  0.0000000E+00 -0.5050505E-02 -0.1155726E-04  0.0000000E+00 -0.3107763E-03
  0.5287294E-02  0.0000000E+00 -0.5050505E-02 -0.2721343E-04  0.0000000E+00 -0.2916447E-03
 -0.5050505E-02  0.0000000E+00 -0.5050505E-02  0.1369681E-07  0.0000000E+00 -0.3152801E-03
 -0.5050505E-02  0.0000000E+00 -0.5050505E-02  0.4108092E-07  0.0000000E+00 -0.3152686E-03
 -0.5050505E-02  0.0000000E+00 -0.5050505E-02  0.6843642E-07  0.0000000E+00 -0.3152456E-03
 -0.5050505E-02  0.0000000E+00 -0.5050505E-02  0.9574416E-07  0.0000000E+00 -0.3152111E-03
 -0.5050505E-02  0.0000000E+00 -0.5050505E-02  0.1229848E-06  0.0000000E+00 -0.3151651E-03
 -0.5050505E-02  0.0000000E+00 -0.5050505E-02  0.1501389E-06  0.0000000E+00 -0.3151077E-03
 -0.5050504E-02  0.0000000E+00 -0.5050505E-02  0.1771865E-06  0.0000000E+00 -0.3150389E-03
 -0.5050501E-02  0.0000000E+00 -0.5050505E-02  0.2041075E-06  0.0000000E+00 -0.3149588E-03
 -0.5050495E-02  0.0000000E+00 -0.5050505E-02  0.2308813E-06  0.0000000E+00 -0.3148674E-03
 -0.5050482E-02  0.0000000E+00 -0.5050505E-02  0.2574869E-06  0.0000000E+00 -0.3147647E-03
 -0.5050449E-02  0.0000000E+00 -0.5050505E-02  0.2839027E-06  0.0000000E+00 -0.3146509E-03
 -0.5050376E-02  0.0000000E+00 -0.5050505E-02  0.3101067E-06  0.0000000E+00 -0.3145261E-03
 -0.5050299E-02  0.0000000E+00 -0.5050505E-02  0.3360761E-06  0.0000000E+00 -0.3143903E-03
 -0.5050178E-02  0.0000000E+00 -0.5050505E-02  0.3617875E-06  0.0000000E+00 -0.3142436E-03
 -0.5050018E-02  0.0000000E+00 -0.5050505E-02  0.3872170E-06  0.0000000E+00 -0.3140861E-03
 -0.5049710E-02  0.0000000E+00 -0.5050505E-02  0.4123396E-06  0.0000000E+00 -0.3139180E-03
 -0.5049253E-02  0.0000000E+00 -0.5050505E-02  0.4371299E-06  0.0000000E+00 -0.3137395E-03
 -0.5048636E-02  0.0000000E+00 -0.5050505E-02  0.4615616E-06  0.0000000E+00 -0.3135505E-03
 -0.5047442E-02  0.0000000E+00 -0.5050505E-02  0.4856076E-06  0.0000000E+00 -0.3133514E-03
 -0.5045727E-02  0.0000000E+00 -0.5050505E-02  0.5092398E-06  0.0000000E+00 -0.3131422E-03
 -0.5043261E-02  0.0000000E+00 -0.5050505E-02  0.5324296E-06  0.0000000E+00 -0.3129232E-03
 -0.5038714E-02  0.0000000E+00 -0.5050505E-02  0.5551470E-06  0.0000000E+00 -0.3126945E-03
 -0.5032318E-02  0.0000000E+00 -0.5050505E-02  0.5773614E-06  0.0000000E+00 -0.3124564E-03
 -0.5022454E-02  0.0000000E+00 -0.5050505E-02  0.5990410E-06  0.0000000E+00 -0.3122090E-03
 -0.5012589E-02  0.0000000E+00 -0.5050505E-02  0.6201529E-06  0.0000000E+00 -0.3119526E-03
 -0.5002725E-02  0.0000000E+00 -0.5050505E-02  0.6406628E-06  0.0000000E+00 -0.3116874E-03
 -0.4992860E-02  0.0000000E+00 -0.5050505E-02  0.6605353E-06  0.0000000E+00 -0.3114137E-03
 -0.4976523E-02  0.0000000E+00 -0.5050505E-02  0.6797331E-06  0.0000000E+00 -0.3111317E-03
 -0.4956794E-02  0.0000000E+00 -0.5050505E-02  0.6982171E-06  0.0000000E+00 -0.3108418E-03
 -0.4937066E-02  0.0000000E+00 -0.5050505E-02  0.7159459E-06  0.0000000E+00 -0.3105442E-03
 -0.4906239E-02  0.0000000E+00 -0.5050505E-02  0.7328754E-06  0.0000000E+00 -0.3102393E-03
 -0.4866782E-02  0.0000000E+00 -0.5050505E-02  0.7489582E-06  0.0000000E+00 -0.3099274E-03
 -0.4827325E-02  0.0000000E+00 -0.5050505E-02  0.7641430E-06  0.0000000E+00 -0.3096088E-03
 -0.4769372E-02  0.0000000E+00 -0.5050505E-02  0.7783732E-06  0.0000000E+00 -0.3092840E-03
 -0.4690458E-02  0.0000000E+00 -0.5050505E-02  0.7915863E-06  0.0000000E+00 -0.3089534E-03
 -0.4611543E-02  0.0000000E+00 -0.5050505E-02  0.8037122E-06  0.0000000E+00 -0.3086173E-03
 -0.4503035E-02  0.0000000E+00 -0.5050505E-02  0.8146716E-06  0.0000000E+00 -0.3082763E-03
 -0.4345206E-02  0.0000000E+00 -0.5050505E-02  0.8243734E-06  0.0000000E+00 -0.3079308E-03
 -0.4187378E-02  0.0000000E+00 -0.5050505E-02  0.8327130E-06  0.0000000E+00 -0.3075813E-03
 -0.3985156E-02  0.0000000E+00 -0.5050505E-02  0.8395685E-06  0.0000000E+00 -0.3072285E-03
 -0.3669499E-02  0.0000000E+00 -0.5050505E-02  0.8447974E-06  0.0000000E+00 -0.3068730E-03
 -0.3353842E-02  0.0000000E+00 -0.5050505E-02  0.8482331E-06  0.0000000E+00 -0.3065154E-03
 -0.2978990E-02  0.0000000E+00 -0.5050505E-02  0.8496794E-06  0.0000000E+00 -0.3061566E-03
 -0.2347676E-02  0.0000000E+00 -0.5050505E-02  0.8489065E-06  0.0000000E+00 -0.3057973E-03
 -0.1716362E-02  0.0000000E+00 -0.5050505E-02  0.8456453E-06  0.0000000E+00 -0.3054385E-03
 -0.1025842E-02  0.0000000E+00 -0.5050505E-02  0.8395825E-06  0.0000000E+00 -0.3050814E-03
  0.2367855E-03  0.0000000E+00 -0.5050505E-02  0.8303562E-06  0.0000000E+00 -0.3047270E-03
  0.1499413E-02  0.0000000E+00 -0.5050505E-02  0.8175527E-06  0.0000000E+00 -0.3043768E-03
  0.2762042E-02  0.0000000E+00 -0.5050505E-02  0.8007056E-06  0.0000000E+00 -0.3040323E-03
 -0.5050505E-02  0.0000000E+00 -0.5050505E-02  0.7792984E-06  0.0000000E+00 -0.3036954E-03
 -0.5050505E-02  0.0000000E+00 -0.5050505E-02  0.7527725E-06  0.0000000E+00 -0.3033680E-03
 -0.5050505E-02  0.0000000E+00 -0.5050505E-02  0.7205419E-06  0.0000000E+00 -0.3030524E-03
 -0.5050505E-02  0.0000000E+00 -0.5050505E-02  0.6820169E-06  0.0000000E+00 -0.3027511E-03
 -0.5050505E-02  0.0000000E+00 -0.5050505E-02  0.6366379E-06  0.0000000E+00 -0.3024670E-03
 -0.5050505E-02  0.0000000E+00 -0.5050505E-02  0.5839205E-06  0.0000000E+00 -0.3022032E-03
 -0.5050505E-02  0.0000000E+00 -0.5050505E-02  0.5235113E-06  0.0000000E+00 -0.3019630E-03
 -0.5050504E-02  0.0000000E+00 -0.5050505E-02  0.4552505E-06  0.0000000E+00 -0.3017499E-03
 -0.5050501E-02  0.0000000E+00 -0.5050505E-02  0.3792369E-06  0.0000000E+00 -0.3015674E-03
 -0.5050495E-02  0.0000000E+00 -0.5050505E-02  0.2958857E-06  0.0000000E+00 -0.3014189E-03
 -0.5050482E-02  0.0000000E+00 -0.5050505E-02  0.2059692E-06  0.0000000E+00 -0.3013077E-03
 -0.5050449E-02  0.0000000E+00 -0.5050505E-02  0.1106279E-06  0.0000000E+00 -0.3012367E-03
 -0.5050376E-02  0.0000000E+00 -0.5050505E-02  0.1134519E-07  0.0000000E+00 -0.3012079E-03
 -0.5050299E-02  0.0000000E+00 -0.5050505E-02 -0.9011908E-07  0.0000000E+00 -0.3012230E-03
 -0.5050178E-02  0.0000000E+00 -0.5050505E-02 -0.1918298E-06  0.0000000E+00 -0.3012825E-03
 -0.5050018E-02  0.0000000E+00 -0.5050505E-02 -0.2918004E-06  0.0000000E+00 -0.3013860E-03
 -0.5049710E-02  0.0000000E+00 -0.5050505E-02 -0.3881199E-06  0.0000000E+00 -0.3015324E-03
 -0.5049253E-02  0.0000000E+00 -0.5050505E-02 -0.4790656E-06  0.0000000E+00 -0.3017196E-03
 -0.5048636E-02  0.0000000E+00 -0.5050505E-02 -0.5631883E-06  0.0000000E+00 -0.3019447E-03
 -0.5047442E-02  0.0000000E+00 -0.5050505E-02 -0.6393634E-06  0.0000000E+00 -0.3022043E-03
 -0.5045727E-02  0.0000000E+00 -0.5050505E-02 -0.7068070E-06  0.0000000E+00 -0.3024947E-03
 -0.5043261E-02  0.0000000E+00 -0.5050505E-02 -0.7650649E-06  0.0000000E+00 -0.3028119E-03
 -0.5038714E-02  0.0000000E+00 -0.5050505E-02 -0.8139805E-06  0.0000000E+00 -0.3031516E-03
 -0.5032318E-02  0.0000000E+00 -0.5050505E-02 -0.8536508E-06  0.0000000E+00 -0.3035098E-03
 -0.5022454E-02  0.0000000E+00 -0.5050505E-02 -0.8843786E-06  0.0000000E+00 -0.3038825E-03
 -0.5012589E-02  0.0000000E+00 -0.5050505E-02 -0.9066250E-06  0.0000000E+00 -0.3042659E-03
 -0.5002725E-02  0.0000000E+00 -0.5050505E-02 -0.9209684E-06  0.0000000E+00 -0.3046565E-03
 -0.4992860E-02  0.0000000E+00 -0.5050505E-02 -0.9280701E-06  0.0000000E+00 -0.3050510E-03
 -0.4976523E-02  0.0000000E+00 -0.5050505E-02 -0.9286484E-06  0.0000000E+00 -0.3054464E-03
 -0.4956794E-02  0.0000000E+00 -0.5050505E-02 -0.9234626E-06  0.0000000E+00 -0.3058402E-03
 -0.4937066E-02  0.0000000E+00 -0.5050505E-02 -0.9133067E-06  0.0000000E+00 -0.3062300E-03
 -0.4906239E-02  0.0000000E+00 -0.5050505E-02 -0.8990128E-06  0.0000000E+00 -0.3066139E-03
 -0.4866782E-02  0.0000000E+00 -0.5050505E-02 -0.8814672E-06  0.0000000E+00 -0.3069902E-03
 -0.4827325E-02  0.0000000E+00 -0.5050505E-02 -0.8616412E-06  0.0000000E+00 -0.3073577E-03
 -0.4769372E-02  0.0000000E+00 -0.5050505E-02 -0.8406433E-06  0.0000000E+00 -0.3077156E-03
 -0.4690458E-02  0.0000000E+00 -0.5050505E-02 -0.8198028E-06  0.0000000E+00 -0.3080632E-03
 -0.4611543E-02  0.0000000E+00 -0.5050505E-02 -0.8008021E-06  0.0000000E+00 -0.3084005E-03
 -0.4503035E-02  0.0000000E+00 -0.5050505E-02 -0.7858903E-06  0.0000000E+00 -0.3087281E-03
 -0.4345206E-02  0.0000000E+00 -0.5050505E-02 -0.7782357E-06  0.0000000E+00 -0.3090471E-03
 -0.4187378E-02  0.0000000E+00 -0.5050505E-02 -0.7825186E-06  0.0000000E+00 -0.3093593E-03
 -0.3985156E-02  0.0000000E+00 -0.5050505E-02 -0.8059616E-06  0.0000000E+00 -0.3096674E-03
 -0.3669499E-02  0.0000000E+00 -0.5050505E-02 -0.8601605E-06  0.0000000E+00 -0.3099746E-03
 -0.3353842E-02  0.0000000E+00 -0.5050505E-02 -0.9644135E-06  0.0000000E+00 -0.3102836E-03
 -0.2978990E-02  0.0000000E+00 -0.5050505E-02 -0.1151838E-05  0.0000000E+00 -0.3105931E-03
 -0.2347676E-02  0.0000000E+00 -0.5050505E-02 -0.1480452E-05  0.0000000E+00 -0.3108863E-03
 -0.1716362E-02  0.0000000E+00 -0.5050505E-02 -0.2051751E-05  0.0000000E+00 -0.3111002E-03
 -0.1025842E-02  0.0000000E+00 -0.5050505E-02 -0.3033462E-05  0.0000000E+00 -0.3110397E-03
  0.2367855E-03  0.0000000E+00 -0.5050505E-02 -0.4641954E-05  0.0000000E+00 -0.3101742E-03
  0.1499413E-02  0.0000000E+00 -0.5050505E-02 -0.6825463E-05  0.0000000E+00 -0.3073097E-03
  0.5287294E-02  0.0000000E+00 -0.5050505E-02 -0.7376439E-05  0.0000000E+00 -0.3011900E-03
 -0.5050505E-02  0.0000000E+00 -0.5050505E-02  0.1926484E-07  0.0000000E+00 -0.3146618E-03
 -0.5050505E-02  0.0000000E+00 -0.5050505E-02  0.5778125E-07  0.0000000E+00 -0.3146501E-03
 -0.5050505E-02  0.0000000E+00 -0.5050505E-02  0.9625777E-07  0.0000000E+00 -0.3146267E-03
 -0.5050505E-02  0.0000000E+00 -0.5050505E-02  0.1346676E-06  0.0000000E+00 -0.3145916E-03
 -0.5050505E-02  0.0000000E+00 -0.5050505E-02  0.1729839E-06  0.0000000E+00 -0.3145449E-03
 -0.5050505E-02  0.0000000E+00 -0.5050505E-02  0.2111794E-06  0.0000000E+00 -0.3144866E-03
 -0.5050504E-02  0.0000000E+00 -0.5050505E-02  0.2492263E-06  0.0000000E+00 -0.3144167E-03
 -0.5050501E-02  0.0000000E+00 -0.5050505E-02  0.2870965E-06  0.0000000E+00 -0.3143352E-03
 -0.5050495E-02  0.0000000E+00 -0.5050505E-02  0.3247614E-06  0.0000000E+00 -0.3142423E-03
 -0.5050482E-02  0.0000000E+00 -0.5050505E-02  0.3621914E-06  0.0000000E+00 -0.3141380E-03
 -0.5050449E-02  0.0000000E+00 -0.5050505E-02  0.3993565E-06  0.0000000E+00 -0.3140223E-03
 -0.5050376E-02  0.0000000E+00 -0.5050505E-02  0.4362259E-06  0.0000000E+00 -0.3138954E-03
 -0.5050299E-02  0.0000000E+00 -0.5050505E-02  0.4727677E-06  0.0000000E+00 -0.3137573E-03
 -0.5050178E-02  0.0000000E+00 -0.5050505E-02  0.5089493E-06  0.0000000E+00 -0.3136082E-03
 -0.5050018E-02  0.0000000E+00 -0.5050505E-02  0.5447371E-06  0.0000000E+00 -0.3134481E-03
 -0.5049710E-02  0.0000000E+00 -0.5050505E-02  0.5800964E-06  0.0000000E+00 -0.3132772E-03
 -0.5049253E-02  0.0000000E+00 -0.5050505E-02  0.6149916E-06  0.0000000E+00 -0.3130956E-03
 -0.5048636E-02  0.0000000E+00 -0.5050505E-02  0.6493859E-06  0.0000000E+00 -0.3129034E-03
 -0.5047442E-02  0.0000000E+00 -0.5050505E-02  0.6832414E-06  0.0000000E+00 -0.3127009E-03
 -0.5045727E-02  0.0000000E+00 -0.5050505E-02  0.7165191E-06  0.0000000E+00 -0.3124881E-03
 -0.5043261E-02  0.0000000E+00 -0.5050505E-02  0.7491787E-06  0.0000000E+00 -0.3122653E-03
 -0.5038714E-02  0.0000000E+00 -0.5050505E-02  0.7811786E-06  0.0000000E+00 -0.3120326E-03
 -0.5032318E-02  0.0000000E+00 -0.5050505E-02  0.8124760E-06  0.0000000E+00 -0.3117903E-03
 -0.5022454E-02  0.0000000E+00 -0.5050505E-02  0.8430266E-06  0.0000000E+00 -0.3115385E-03
 -0.5012589E-02  0.0000000E+00 -0.5050505E-02  0.8727846E-06  0.0000000E+00 -0.3112775E-03
 -0.5002725E-02  0.0000000E+00 -0.5050505E-02  0.9017024E-06  0.0000000E+00 -0.3110075E-03
 -0.4992860E-02  0.0000000E+00 -0.5050505E-02  0.9297307E-06  0.0000000E+00 -0.3107288E-03
 -0.4976523E-02  0.0000000E+00 -0.5050505E-02  0.9568179E-06  0.0000000E+00 -0.3104416E-03
 -0.4956794E-02  0.0000000E+00 -0.5050505E-02  0.9829098E-06  0.0000000E+00 -0.3101463E-03
 -0.4937066E-02  0.0000000E+00 -0.5050505E-02  0.1007949E-05  0.0000000E+00 -0.3098431E-03