title = "dataset feddes"
variables = "x", "y", "z", "vx", "vy", "vz"
zone t = "velocities, solution time =  2.600E+01 days        " i =   99, j =   99, k =    1,  f=point
 -0.5050505E-02  0.0000000E+00 -0.5050505E-02  0.1261734E-08  0.0000000E+00 -0.3458610E-03
 -0.5050505E-02  0.0000000E+00 -0.5050505E-02  0.3783764E-08  0.0000000E+00 -0.3458557E-03
 -0.5050505E-02  0.0000000E+00 -0.5050505E-02  0.6301247E-08  0.0000000E+00 -0.3458452E-03
 -0.5050505E-02  0.0000000E+00 -0.5050505E-02  0.8811122E-08  0.0000000E+00 -0.3458295E-03
 -0.5050505E-02  0.0000000E+00 -0.5050505E-02  0.1131033E-07  0.0000000E+00 -0.3458085E-03
 -0.5050505E-02  0.0000000E+00 -0.5050505E-02  0.1379578E-07  0.0000000E+00 -0.3457824E-03
 -0.5050504E-02  0.0000000E+00 -0.5050505E-02  0.1626434E-07  0.0000000E+00 -0.3457511E-03
 -0.5050501E-02  0.0000000E+00 -0.5050505E-02  0.1871283E-07  0.0000000E+00 -0.3457146E-03
 -0.5050495E-02  0.0000000E+00 -0.5050505E-02  0.2113804E-07  0.0000000E+00 -0.3456732E-03
 -0.5050482E-02  0.0000000E+00 -0.5050505E-02  0.2353667E-07  0.0000000E+00 -0.3456266E-03
 -0.5050449E-02  0.0000000E+00 -0.5050505E-02  0.2590537E-07  0.0000000E+00 -0.3455751E-03
 -0.5050376E-02  0.0000000E+00 -0.5050505E-02  0.2824071E-07  0.0000000E+00 -0.3455188E-03
 -0.5050299E-02  0.0000000E+00 -0.5050505E-02  0.3053919E-07  0.0000000E+00 -0.3454576E-03
 -0.5050178E-02  0.0000000E+00 -0.5050505E-02  0.3279719E-07  0.0000000E+00 -0.3453916E-03
 -0.5050018E-02  0.0000000E+00 -0.5050505E-02  0.3501101E-07  0.0000000E+00 -0.3453210E-03
 -0.5049710E-02  0.0000000E+00 -0.5050505E-02  0.3717684E-07  0.0000000E+00 -0.3452458E-03
 -0.5049253E-02  0.0000000E+00 -0.5050505E-02  0.3929075E-07  0.0000000E+00 -0.3451662E-03
 -0.5048636E-02  0.0000000E+00 -0.5050505E-02  0.4134870E-07  0.0000000E+00 -0.3450822E-03
 -0.5047442E-02  0.0000000E+00 -0.5050505E-02  0.4334648E-07  0.0000000E+00 -0.3449941E-03
 -0.5045727E-02  0.0000000E+00 -0.5050505E-02  0.4527978E-07  0.0000000E+00 -0.3449018E-03
 -0.5043261E-02  0.0000000E+00 -0.5050505E-02  0.4714410E-07  0.0000000E+00 -0.3448055E-03
 -0.5038714E-02  0.0000000E+00 -0.5050505E-02  0.4893480E-07  0.0000000E+00 -0.3447055E-03
 -0.5032318E-02  0.0000000E+00 -0.5050505E-02  0.5064705E-07  0.0000000E+00 -0.3446018E-03
 -0.5022454E-02  0.0000000E+00 -0.5050505E-02  0.5227585E-07  0.0000000E+00 -0.3444947E-03
 -0.5012589E-02  0.0000000E+00 -0.5050505E-02  0.5381597E-07  0.0000000E+00 -0.3443842E-03
 -0.5002725E-02  0.0000000E+00 -0.5050505E-02  0.5526198E-07  0.0000000E+00 -0.3442706E-03
 -0.4992860E-02  0.0000000E+00 -0.5050505E-02  0.5660824E-07  0.0000000E+00 -0.3441542E-03
 -0.4976523E-02  0.0000000E+00 -0.5050505E-02  0.5784882E-07  0.0000000E+00 -0.3440350E-03
 -0.4956794E-02  0.0000000E+00 -0.5050505E-02  0.5897758E-07  0.0000000E+00 -0.3439134E-03
 -0.4937066E-02  0.0000000E+00 -0.5050505E-02  0.5998806E-07  0.0000000E+00 -0.3437895E-03
 -0.4906239E-02  0.0000000E+00 -0.5050505E-02  0.6087353E-07  0.0000000E+00 -0.3436637E-03
 -0.4866782E-02  0.0000000E+00 -0.5050505E-02  0.6162695E-07  0.0000000E+00 -0.3435361E-03
 -0.4827325E-02  0.0000000E+00 -0.5050505E-02  0.6224095E-07  0.0000000E+00 -0.3434072E-03
 -0.4769372E-02  0.0000000E+00 -0.5050505E-02  0.6270784E-07  0.0000000E+00 -0.3432771E-03
 -0.4690458E-02  0.0000000E+00 -0.5050505E-02  0.6301959E-07  0.0000000E+00 -0.3431462E-03
 -0.4611543E-02  0.0000000E+00 -0.5050505E-02  0.6316782E-07  0.0000000E+00 -0.3430149E-03
 -0.4503035E-02  0.0000000E+00 -0.5050505E-02  0.6314382E-07  0.0000000E+00 -0.3428834E-03
 -0.4345206E-02  0.0000000E+00 -0.5050505E-02  0.6293859E-07  0.0000000E+00 -0.3427521E-03
 -0.4187378E-02  0.0000000E+00 -0.5050505E-02  0.6254281E-07  0.0000000E+00 -0.3426215E-03
 -0.3985156E-02  0.0000000E+00 -0.5050505E-02  0.6194696E-07  0.0000000E+00 -0.3424919E-03
 -0.3669499E-02  0.0000000E+00 -0.5050505E-02  0.6114132E-07  0.0000000E+00 -0.3423638E-03
 -0.3353842E-02  0.0000000E+00 -0.5050505E-02  0.6011611E-07  0.0000000E+00 -0.3422376E-03
 -0.2978990E-02  0.0000000E+00 -0.5050505E-02  0.5886160E-07  0.0000000E+00 -0.3421137E-03
 -0.2347676E-02  0.0000000E+00 -0.5050505E-02  0.5736827E-07  0.0000000E+00 -0.3419927E-03
 -0.1716362E-02  0.0000000E+00 -0.5050505E-02  0.5562697E-07  0.0000000E+00 -0.3418751E-03
 -0.1025842E-02  0.0000000E+00 -0.5050505E-02  0.5362919E-07  0.0000000E+00 -0.3417614E-03
  0.2367855E-03  0.0000000E+00 -0.5050505E-02  0.5136732E-07  0.0000000E+00 -0.3416521E-03
  0.1499413E-02  0.0000000E+00 -0.5050505E-02  0.4883500E-07  0.0000000E+00 -0.3415478E-03
  0.2762042E-02  0.0000000E+00 -0.5050505E-02  0.4602744E-07  0.0000000E+00 -0.3414491E-03
 -0.5050505E-02  0.0000000E+00 -0.5050505E-02  0.4294185E-07  0.0000000E+00 -0.3413565E-03
 -0.5050505E-02  0.0000000E+00 -0.5050505E-02  0.3957790E-07  0.0000000E+00 -0.3412706E-03
 -0.5050505E-02  0.0000000E+00 -0.5050505E-02  0.3593813E-07  0.0000000E+00 -0.3411920E-03
 -0.5050505E-02  0.0000000E+00 -0.5050505E-02  0.3202845E-07  0.0000000E+00 -0.3411213E-03
 -0.5050505E-02  0.0000000E+00 -0.5050505E-02  0.2785858E-07  0.0000000E+00 -0.3410589E-03
 -0.5050505E-02  0.0000000E+00 -0.5050505E-02  0.2344243E-07  0.0000000E+00 -0.3410055E-03
 -0.5050505E-02  0.0000000E+00 -0.5050505E-02  0.1879844E-07  0.0000000E+00 -0.3409616E-03
 -0.5050504E-02  0.0000000E+00 -0.5050505E-02  0.1394977E-07  0.0000000E+00 -0.3409275E-03
 -0.5050501E-02  0.0000000E+00 -0.5050505E-02  0.8924426E-08  0.0000000E+00 -0.3409037E-03
 -0.5050495E-02  0.0000000E+00 -0.5050505E-02  0.3755143E-08  0.0000000E+00 -0.3408905E-03
 -0.5050482E-02  0.0000000E+00 -0.5050505E-02 -0.1520900E-08  0.0000000E+00 -0.3408882E-03
 -0.5050449E-02  0.0000000E+00 -0.5050505E-02 -0.6862548E-08  0.0000000E+00 -0.3408969E-03
 -0.5050376E-02  0.0000000E+00 -0.5050505E-02 -0.1222537E-07  0.0000000E+00 -0.3409168E-03
 -0.5050299E-02  0.0000000E+00 -0.5050505E-02 -0.1756257E-07  0.0000000E+00 -0.3409478E-03
 -0.5050178E-02  0.0000000E+00 -0.5050505E-02 -0.2282602E-07  0.0000000E+00 -0.3409898E-03
 -0.5050018E-02  0.0000000E+00 -0.5050505E-02 -0.2796742E-07  0.0000000E+00 -0.3410427E-03
 -0.5049710E-02  0.0000000E+00 -0.5050505E-02 -0.3293959E-07  0.0000000E+00 -0.3411061E-03
 -0.5049253E-02  0.0000000E+00 -0.5050505E-02 -0.3769767E-07  0.0000000E+00 -0.3411796E-03
 -0.5048636E-02  0.0000000E+00 -0.5050505E-02 -0.4220039E-07  0.0000000E+00 -0.3412627E-03
 -0.5047442E-02  0.0000000E+00 -0.5050505E-02 -0.4641115E-07  0.0000000E+00 -0.3413550E-03
 -0.5045727E-02  0.0000000E+00 -0.5050505E-02 -0.5029905E-07  0.0000000E+00 -0.3414556E-03
 -0.5043261E-02  0.0000000E+00 -0.5050505E-02 -0.5383965E-07  0.0000000E+00 -0.3415640E-03
 -0.5038714E-02  0.0000000E+00 -0.5050505E-02 -0.5701569E-07  0.0000000E+00 -0.3416794E-03
 -0.5032318E-02  0.0000000E+00 -0.5050505E-02 -0.5981754E-07  0.0000000E+00 -0.3418010E-03
 -0.5022454E-02  0.0000000E+00 -0.5050505E-02 -0.6224364E-07  0.0000000E+00 -0.3419280E-03
 -0.5012589E-02  0.0000000E+00 -0.5050505E-02 -0.6430087E-07  0.0000000E+00 -0.3420598E-03
 -0.5002725E-02  0.0000000E+00 -0.5050505E-02 -0.6600493E-07  0.0000000E+00 -0.3421954E-03
 -0.4992860E-02  0.0000000E+00 -0.5050505E-02 -0.6738091E-07  0.0000000E+00 -0.3423342E-03
 -0.4976523E-02  0.0000000E+00 -0.5050505E-02 -0.6846426E-07  0.0000000E+00 -0.3424757E-03
 -0.4956794E-02  0.0000000E+00 -0.5050505E-02 -0.6930224E-07  0.0000000E+00 -0.3426191E-03
 -0.4937066E-02  0.0000000E+00 -0.5050505E-02 -0.6995632E-07  0.0000000E+00 -0.3427640E-03
 -0.4906239E-02  0.0000000E+00 -0.5050505E-02 -0.7050592E-07  0.0000000E+00 -0.3429102E-03
 -0.4866782E-02  0.0000000E+00 -0.5050505E-02 -0.7105439E-07  0.0000000E+00 -0.3430576E-03
 -0.4827325E-02  0.0000000E+00 -0.5050505E-02 -0.7173830E-07  0.0000000E+00 -0.3432063E-03
 -0.4769372E-02  0.0000000E+00 -0.5050505E-02 -0.7274217E-07  0.0000000E+00 -0.3433567E-03
 -0.4690458E-02  0.0000000E+00 -0.5050505E-02 -0.7432226E-07  0.0000000E+00 -0.3435098E-03
 -0.4611543E-02  0.0000000E+00 -0.5050505E-02 -0.7684560E-07  0.0000000E+00 -0.3436671E-03
 -0.4503035E-02  0.0000000E+00 -0.5050505E-02 -0.8085618E-07  0.0000000E+00 -0.3438313E-03
 -0.4345206E-02  0.0000000E+00 -0.5050505E-02 -0.8719076E-07  0.0000000E+00 -0.3440063E-03
 -0.4187378E-02  0.0000000E+00 -0.5050505E-02 -0.9719022E-07  0.0000000E+00 -0.3441982E-03
 -0.3985156E-02  0.0000000E+00 -0.5050505E-02 -0.1131040E-06  0.0000000E+00 -0.3444172E-03
 -0.3669499E-02  0.0000000E+00 -0.5050505E-02 -0.1389087E-06  0.0000000E+00 -0.3446796E-03
 -0.3353842E-02  0.0000000E+00 -0.5050505E-02 -0.1820759E-06  0.0000000E+00 -0.3450138E-03
 -0.2978990E-02  0.0000000E+00 -0.5050505E-02 -0.2576878E-06  0.0000000E+00 -0.3454717E-03
 -0.2347676E-02  0.0000000E+00 -0.5050505E-02 -0.3988684E-06  0.0000000E+00 -0.3461554E-03
 -0.1716362E-02  0.0000000E+00 -0.5050505E-02 -0.6857782E-06  0.0000000E+00 -0.3472849E-03
 -0.1025842E-02  0.0000000E+00 -0.5050505E-02 -0.1334340E-05  0.0000000E+00 -0.3493889E-03
  0.2367855E-03  0.0000000E+00 -0.5050505E-02 -0.2994462E-05  0.0000000E+00 -0.3538987E-03
  0.1499413E-02  0.0000000E+00 -0.5050505E-02 -0.7842773E-05  0.0000000E+00 -0.3651956E-03
  0.5287294E-02  0.0000000E+00 -0.5050505E-02 -0.1285838E-03  0.0000000E+00 -0.2913348E-03
 -0.5050505E-02  0.0000000E+00 -0.5050505E-02  0.3791846E-08  0.0000000E+00 -0.3456311E-03
 -0.5050505E-02  0.0000000E+00 -0.5050505E-02  0.1137118E-07  0.0000000E+00 -0.3456258E-03
 -0.5050505E-02  0.0000000E+00 -0.5050505E-02  0.1893689E-07  0.0000000E+00 -0.3456153E-03
 -0.5050505E-02  0.0000000E+00 -0.5050505E-02  0.2647979E-07  0.0000000E+00 -0.3455994E-03
 -0.5050505E-02  0.0000000E+00 -0.5050505E-02  0.3399071E-07  0.0000000E+00 -0.3455783E-03
 -0.5050505E-02  0.0000000E+00 -0.5050505E-02  0.4146038E-07  0.0000000E+00 -0.3455520E-03
 -0.5050504E-02  0.0000000E+00 -0.5050505E-02  0.4887942E-07  0.0000000E+00 -0.3455205E-03
 -0.5050501E-02  0.0000000E+00 -0.5050505E-02  0.5623829E-07  0.0000000E+00 -0.3454838E-03
 -0.5050495E-02  0.0000000E+00 -0.5050505E-02  0.6352733E-07  0.0000000E+00 -0.3454421E-03
 -0.5050482E-02  0.0000000E+00 -0.5050505E-02  0.7073669E-07  0.0000000E+00 -0.3453952E-03
 -0.5050449E-02  0.0000000E+00 -0.5050505E-02  0.7785631E-07  0.0000000E+00 -0.3453434E-03
 -0.5050376E-02  0.0000000E+00 -0.5050505E-02  0.8487590E-07  0.0000000E+00 -0.3452866E-03
 -0.5050299E-02  0.0000000E+00 -0.5050505E-02  0.9178493E-07  0.0000000E+00 -0.3452250E-03
 -0.5050178E-02  0.0000000E+00 -0.5050505E-02  0.9857259E-07  0.0000000E+00 -0.3451586E-03
 -0.5050018E-02  0.0000000E+00 -0.5050505E-02  0.1052278E-06  0.0000000E+00 -0.3450875E-03
 -0.5049710E-02  0.0000000E+00 -0.5050505E-02  0.1117390E-06  0.0000000E+00 -0.3450118E-03
 -0.5049253E-02  0.0000000E+00 -0.5050505E-02  0.1180946E-06  0.0000000E+00 -0.3449316E-03
 -0.5048636E-02  0.0000000E+00 -0.5050505E-02  0.1242823E-06  0.0000000E+00 -0.3448470E-03
 -0.5047442E-02  0.0000000E+00 -0.5050505E-02  0.1302895E-06  0.0000000E+00 -0.3447582E-03
 -0.5045727E-02  0.0000000E+00 -0.5050505E-02  0.1361034E-06  0.0000000E+00 -0.3446653E-03
 -0.5043261E-02  0.0000000E+00 -0.5050505E-02  0.1417103E-06  0.0000000E+00 -0.3445683E-03
 -0.5038714E-02  0.0000000E+00 -0.5050505E-02  0.1470965E-06  0.0000000E+00 -0.3444676E-03
 -0.5032318E-02  0.0000000E+00 -0.5050505E-02  0.1522473E-06  0.0000000E+00 -0.3443631E-03
 -0.5022454E-02  0.0000000E+00 -0.5050505E-02  0.1571478E-06  0.0000000E+00 -0.3442551E-03
 -0.5012589E-02  0.0000000E+00 -0.5050505E-02  0.1617823E-06  0.0000000E+00 -0.3441438E-03
 -0.5002725E-02  0.0000000E+00 -0.5050505E-02  0.1661345E-06  0.0000000E+00 -0.3440294E-03
 -0.4992860E-02  0.0000000E+00 -0.5050505E-02  0.1701874E-06  0.0000000E+00 -0.3439120E-03
 -0.4976523E-02  0.0000000E+00 -0.5050505E-02  0.1739233E-06  0.0000000E+00 -0.3437919E-03
 -0.4956794E-02  0.0000000E+00 -0.5050505E-02  0.1773237E-06  0.0000000E+00 -0.3436693E-03
 -0.4937066E-02  0.0000000E+00 -0.5050505E-02  0.1803692E-06  0.0000000E+00 -0.3435445E-03
 -0.4906239E-02  0.0000000E+00 -0.5050505E-02  0.1830397E-06  0.0000000E+00 -0.3434176E-03
 -0.4866782E-02  0.0000000E+00 -0.5050505E-02  0.1853140E-06  0.0000000E+00 -0.3432890E-03
 -0.4827325E-02  0.0000000E+00 -0.5050505E-02  0.1871699E-06  0.0000000E+00 -0.3431589E-03
 -0.4769372E-02  0.0000000E+00 -0.5050505E-02  0.1885843E-06  0.0000000E+00 -0.3430277E-03
 -0.4690458E-02  0.0000000E+00 -0.5050505E-02  0.1895331E-06  0.0000000E+00 -0.3428957E-03
 -0.4611543E-02  0.0000000E+00 -0.5050505E-02  0.1899912E-06  0.0000000E+00 -0.3427631E-03
 -0.4503035E-02  0.0000000E+00 -0.5050505E-02  0.1899322E-06  0.0000000E+00 -0.3426304E-03
 -0.4345206E-02  0.0000000E+00 -0.5050505E-02  0.1893291E-06  0.0000000E+00 -0.3424979E-03
 -0.4187378E-02  0.0000000E+00 -0.5050505E-02  0.1881538E-06  0.0000000E+00 -0.3423660E-03
 -0.3985156E-02  0.0000000E+00 -0.5050505E-02  0.1863776E-06  0.0000000E+00 -0.3422352E-03
 -0.3669499E-02  0.0000000E+00 -0.5050505E-02  0.1839712E-06  0.0000000E+00 -0.3421057E-03
 -0.3353842E-02  0.0000000E+00 -0.5050505E-02  0.1809051E-06  0.0000000E+00 -0.3419782E-03
 -0.2978990E-02  0.0000000E+00 -0.5050505E-02  0.1771497E-06  0.0000000E+00 -0.3418530E-03
 -0.2347676E-02  0.0000000E+00 -0.5050505E-02  0.1726764E-06  0.0000000E+00 -0.3417306E-03
 -0.1716362E-02  0.0000000E+00 -0.5050505E-02  0.1674572E-06  0.0000000E+00 -0.3416117E-03
 -0.1025842E-02  0.0000000E+00 -0.5050505E-02  0.1614663E-06  0.0000000E+00 -0.3414966E-03
  0.2367855E-03  0.0000000E+00 -0.5050505E-02  0.1546804E-06  0.0000000E+00 -0.3413859E-03
  0.1499413E-02  0.0000000E+00 -0.5050505E-02  0.1470801E-06  0.0000000E+00 -0.3412803E-03
  0.2762042E-02  0.0000000E+00 -0.5050505E-02  0.1386504E-06  0.0000000E+00 -0.3411802E-03
 -0.5050505E-02  0.0000000E+00 -0.5050505E-02  0.1293825E-06  0.0000000E+00 -0.3410863E-03
 -0.5050505E-02  0.0000000E+00 -0.5050505E-02  0.1192747E-06  0.0000000E+00 -0.3409991E-03
 -0.5050505E-02  0.0000000E+00 -0.5050505E-02  0.1083344E-06  0.0000000E+00 -0.3409193E-03
 -0.5050505E-02  0.0000000E+00 -0.5050505E-02  0.9657874E-07  0.0000000E+00 -0.3408474E-03
 -0.5050505E-02  0.0000000E+00 -0.5050505E-02  0.8403644E-07  0.0000000E+00 -0.3407840E-03
 -0.5050505E-02  0.0000000E+00 -0.5050505E-02  0.7074896E-07  0.0000000E+00 -0.3407296E-03
 -0.5050505E-02  0.0000000E+00 -0.5050505E-02  0.5677146E-07  0.0000000E+00 -0.3406848E-03
 -0.5050504E-02  0.0000000E+00 -0.5050505E-02  0.4217348E-07  0.0000000E+00 -0.3406499E-03
 -0.5050501E-02  0.0000000E+00 -0.5050505E-02  0.2703925E-07  0.0000000E+00 -0.3406255E-03
 -0.5050495E-02  0.0000000E+00 -0.5050505E-02  0.1146742E-07  0.0000000E+00 -0.3406118E-03
 -0.5050482E-02  0.0000000E+00 -0.5050505E-02 -0.4429766E-08  0.0000000E+00 -0.3406091E-03
 -0.5050449E-02  0.0000000E+00 -0.5050505E-02 -0.2052790E-07  0.0000000E+00 -0.3406176E-03
 -0.5050376E-02  0.0000000E+00 -0.5050505E-02 -0.3669253E-07  0.0000000E+00 -0.3406375E-03
 -0.5050299E-02  0.0000000E+00 -0.5050505E-02 -0.5278190E-07  0.0000000E+00 -0.3406686E-03
 -0.5050178E-02  0.0000000E+00 -0.5050505E-02 -0.6865011E-07  0.0000000E+00 -0.3407110E-03
 -0.5050018E-02  0.0000000E+00 -0.5050505E-02 -0.8415071E-07  0.0000000E+00 -0.3407644E-03
 -0.5049710E-02  0.0000000E+00 -0.5050505E-02 -0.9914050E-07  0.0000000E+00 -0.3408285E-03
 -0.5049253E-02  0.0000000E+00 -0.5050505E-02 -0.1134834E-06  0.0000000E+00 -0.3409028E-03
 -0.5048636E-02  0.0000000E+00 -0.5050505E-02 -0.1270541E-06  0.0000000E+00 -0.3409870E-03
 -0.5047442E-02  0.0000000E+00 -0.5050505E-02 -0.1397416E-06  0.0000000E+00 -0.3410803E-03
 -0.5045727E-02  0.0000000E+00 -0.5050505E-02 -0.1514521E-06  0.0000000E+00 -0.3411822E-03
 -0.5043261E-02  0.0000000E+00 -0.5050505E-02 -0.1621114E-06  0.0000000E+00 -0.3412920E-03
 -0.5038714E-02  0.0000000E+00 -0.5050505E-02 -0.1716669E-06  0.0000000E+00 -0.3414088E-03
 -0.5032318E-02  0.0000000E+00 -0.5050505E-02 -0.1800894E-06  0.0000000E+00 -0.3415319E-03
 -0.5022454E-02  0.0000000E+00 -0.5050505E-02 -0.1873736E-06  0.0000000E+00 -0.3416605E-03
 -0.5012589E-02  0.0000000E+00 -0.5050505E-02 -0.1935398E-06  0.0000000E+00 -0.3417937E-03
 -0.5002725E-02  0.0000000E+00 -0.5050505E-02 -0.1986344E-06  0.0000000E+00 -0.3419308E-03
 -0.4992860E-02  0.0000000E+00 -0.5050505E-02 -0.2027319E-06  0.0000000E+00 -0.3420711E-03
 -0.4976523E-02  0.0000000E+00 -0.5050505E-02 -0.2059372E-06  0.0000000E+00 -0.3422139E-03
 -0.4956794E-02  0.0000000E+00 -0.5050505E-02 -0.2083898E-06  0.0000000E+00 -0.3423586E-03
 -0.4937066E-02  0.0000000E+00 -0.5050505E-02 -0.2102706E-06  0.0000000E+00 -0.3425047E-03
 -0.4906239E-02  0.0000000E+00 -0.5050505E-02 -0.2118122E-06  0.0000000E+00 -0.3426519E-03
 -0.4866782E-02  0.0000000E+00 -0.5050505E-02 -0.2133155E-06  0.0000000E+00 -0.3427999E-03
 -0.4827325E-02  0.0000000E+00 -0.5050505E-02 -0.2151761E-06  0.0000000E+00 -0.3429489E-03
 -0.4769372E-02  0.0000000E+00 -0.5050505E-02 -0.2179246E-06  0.0000000E+00 -0.3430991E-03
 -0.4690458E-02  0.0000000E+00 -0.5050505E-02 -0.2222917E-06  0.0000000E+00 -0.3432515E-03
 -0.4611543E-02  0.0000000E+00 -0.5050505E-02 -0.2293145E-06  0.0000000E+00 -0.3434071E-03
 -0.4503035E-02  0.0000000E+00 -0.5050505E-02 -0.2405126E-06  0.0000000E+00 -0.3435681E-03
 -0.4345206E-02  0.0000000E+00 -0.5050505E-02 -0.2581916E-06  0.0000000E+00 -0.3437376E-03
 -0.4187378E-02  0.0000000E+00 -0.5050505E-02 -0.2859828E-06  0.0000000E+00 -0.3439206E-03
 -0.3985156E-02  0.0000000E+00 -0.5050505E-02 -0.3298431E-06  0.0000000E+00 -0.3441241E-03
 -0.3669499E-02  0.0000000E+00 -0.5050505E-02 -0.3999951E-06  0.0000000E+00 -0.3443597E-03
 -0.3353842E-02  0.0000000E+00 -0.5050505E-02 -0.5148822E-06  0.0000000E+00 -0.3446443E-03
 -0.2978990E-02  0.0000000E+00 -0.5050505E-02 -0.7096959E-06  0.0000000E+00 -0.3450043E-03
 -0.2347676E-02  0.0000000E+00 -0.5050505E-02 -0.1055876E-05  0.0000000E+00 -0.3454766E-03
 -0.1716362E-02  0.0000000E+00 -0.5050505E-02 -0.1708486E-05  0.0000000E+00 -0.3460983E-03
 -0.1025842E-02  0.0000000E+00 -0.5050505E-02 -0.3028331E-05  0.0000000E+00 -0.3468280E-03
  0.2367855E-03  0.0000000E+00 -0.5050505E-02 -0.5914013E-05  0.0000000E+00 -0.3471351E-03
  0.1499413E-02  0.0000000E+00 -0.5050505E-02 -0.1274434E-04  0.0000000E+00 -0.3440303E-03
  0.5287294E-02  0.0000000E+00 -0.5050505E-02 -0.3012303E-04  0.0000000E+00 -0.3227887E-03
 -0.5050505E-02  0.0000000E+00 -0.5050505E-02  0.6343269E-08  0.0000000E+00 -0.3451815E-03
 -0.5050505E-02  0.0000000E+00 -0.5050505E-02  0.1902247E-07  0.0000000E+00 -0.3451761E-03
 -0.5050505E-02  0.0000000E+00 -0.5050505E-02  0.3167900E-07  0.0000000E+00 -0.3451654E-03
 -0.5050505E-02  0.0000000E+00 -0.5050505E-02  0.4429756E-07  0.0000000E+00 -0.3451494E-03
 -0.5050505E-02  0.0000000E+00 -0.5050505E-02  0.5686288E-07  0.0000000E+00 -0.3451280E-03
 -0.5050505E-02  0.0000000E+00 -0.5050505E-02  0.6935951E-07  0.0000000E+00 -0.3451013E-03
 -0.5050504E-02  0.0000000E+00 -0.5050505E-02  0.8177182E-07  0.0000000E+00 -0.3450694E-03
 -0.5050501E-02  0.0000000E+00 -0.5050505E-02  0.9408396E-07  0.0000000E+00 -0.3450323E-03
 -0.5050495E-02  0.0000000E+00 -0.5050505E-02  0.1062798E-06  0.0000000E+00 -0.3449899E-03
 -0.5050482E-02  0.0000000E+00 -0.5050505E-02  0.1183430E-06  0.0000000E+00 -0.3449425E-03
 -0.5050449E-02  0.0000000E+00 -0.5050505E-02  0.1302567E-06  0.0000000E+00 -0.3448899E-03
 -0.5050376E-02  0.0000000E+00 -0.5050505E-02  0.1420038E-06  0.0000000E+00 -0.3448324E-03
 -0.5050299E-02  0.0000000E+00 -0.5050505E-02  0.1535667E-06  0.0000000E+00 -0.3447699E-03
 -0.5050178E-02  0.0000000E+00 -0.5050505E-02  0.1649275E-06  0.0000000E+00 -0.3447026E-03
 -0.5050018E-02  0.0000000E+00 -0.5050505E-02  0.1760676E-06  0.0000000E+00 -0.3446306E-03
 -0.5049710E-02  0.0000000E+00 -0.5050505E-02  0.1869680E-06  0.0000000E+00 -0.3445538E-03
 -0.5049253E-02  0.0000000E+00 -0.5050505E-02  0.1976090E-06  0.0000000E+00 -0.3444725E-03
 -0.5048636E-02  0.0000000E+00 -0.5050505E-02  0.2079702E-06  0.0000000E+00 -0.3443868E-03
 -0.5047442E-02  0.0000000E+00 -0.5050505E-02  0.2180309E-06  0.0000000E+00 -0.3442967E-03
 -0.5045727E-02  0.0000000E+00 -0.5050505E-02  0.2277693E-06  0.0000000E+00 -0.3442025E-03
 -0.5043261E-02  0.0000000E+00 -0.5050505E-02  0.2371630E-06  0.0000000E+00 -0.3441041E-03
 -0.5038714E-02  0.0000000E+00 -0.5050505E-02  0.2461886E-06  0.0000000E+00 -0.3440019E-03
 -0.5032318E-02  0.0000000E+00 -0.5050505E-02  0.2548221E-06  0.0000000E+00 -0.3438959E-03
 -0.5022454E-02  0.0000000E+00 -0.5050505E-02  0.2630384E-06  0.0000000E+00 -0.3437864E-03
 -0.5012589E-02  0.0000000E+00 -0.5050505E-02  0.2708114E-06  0.0000000E+00 -0.3436734E-03
 -0.5002725E-02  0.0000000E+00 -0.5050505E-02  0.2781138E-06  0.0000000E+00 -0.3435573E-03
 -0.4992860E-02  0.0000000E+00 -0.5050505E-02  0.2849173E-06  0.0000000E+00 -0.3434381E-03
 -0.4976523E-02  0.0000000E+00 -0.5050505E-02  0.2911924E-06  0.0000000E+00 -0.3433161E-03
 -0.4956794E-02  0.0000000E+00 -0.5050505E-02  0.2969082E-06  0.0000000E+00 -0.3431916E-03
 -0.4937066E-02  0.0000000E+00 -0.5050505E-02  0.3020323E-06  0.0000000E+00 -0.3430647E-03
 -0.4906239E-02  0.0000000E+00 -0.5050505E-02  0.3065310E-06  0.0000000E+00 -0.3429358E-03
 -0.4866782E-02  0.0000000E+00 -0.5050505E-02  0.3103690E-06  0.0000000E+00 -0.3428051E-03
 -0.4827325E-02  0.0000000E+00 -0.5050505E-02  0.3135092E-06  0.0000000E+00 -0.3426729E-03
 -0.4769372E-02  0.0000000E+00 -0.5050505E-02  0.3159130E-06  0.0000000E+00 -0.3425394E-03
 -0.4690458E-02  0.0000000E+00 -0.5050505E-02  0.3175400E-06  0.0000000E+00 -0.3424051E-03
 -0.4611543E-02  0.0000000E+00 -0.5050505E-02  0.3183480E-06  0.0000000E+00 -0.3422702E-03
 -0.4503035E-02  0.0000000E+00 -0.5050505E-02  0.3182932E-06  0.0000000E+00 -0.3421351E-03
 -0.4345206E-02  0.0000000E+00 -0.5050505E-02  0.3173298E-06  0.0000000E+00 -0.3420001E-03
 -0.4187378E-02  0.0000000E+00 -0.5050505E-02  0.3154109E-06  0.0000000E+00 -0.3418657E-03
 -0.3985156E-02  0.0000000E+00 -0.5050505E-02  0.3124880E-06  0.0000000E+00 -0.3417323E-03
 -0.3669499E-02  0.0000000E+00 -0.5050505E-02  0.3085118E-06  0.0000000E+00 -0.3416002E-03
 -0.3353842E-02  0.0000000E+00 -0.5050505E-02  0.3034324E-06  0.0000000E+00 -0.3414700E-03
 -0.2978990E-02  0.0000000E+00 -0.5050505E-02  0.2971997E-06  0.0000000E+00 -0.3413422E-03
 -0.2347676E-02  0.0000000E+00 -0.5050505E-02  0.2897648E-06  0.0000000E+00 -0.3412171E-03
 -0.1716362E-02  0.0000000E+00 -0.5050505E-02  0.2810804E-06  0.0000000E+00 -0.3410954E-03
 -0.1025842E-02  0.0000000E+00 -0.5050505E-02  0.2711020E-06  0.0000000E+00 -0.3409776E-03
  0.2367855E-03  0.0000000E+00 -0.5050505E-02  0.2597894E-06  0.0000000E+00 -0.3408643E-03
  0.1499413E-02  0.0000000E+00 -0.5050505E-02  0.2471086E-06  0.0000000E+00 -0.3407560E-03
  0.2762042E-02  0.0000000E+00 -0.5050505E-02  0.2330330E-06  0.0000000E+00 -0.3406532E-03
 -0.5050505E-02  0.0000000E+00 -0.5050505E-02  0.2175463E-06  0.0000000E+00 -0.3405567E-03
 -0.5050505E-02  0.0000000E+00 -0.5050505E-02  0.2006441E-06  0.0000000E+00 -0.3404670E-03
 -0.5050505E-02  0.0000000E+00 -0.5050505E-02  0.1823365E-06  0.0000000E+00 -0.3403848E-03
 -0.5050505E-02  0.0000000E+00 -0.5050505E-02  0.1626509E-06  0.0000000E+00 -0.3403106E-03
 -0.5050505E-02  0.0000000E+00 -0.5050505E-02  0.1416336E-06  0.0000000E+00 -0.3402450E-03
 -0.5050505E-02  0.0000000E+00 -0.5050505E-02  0.1193528E-06  0.0000000E+00 -0.3401886E-03
 -0.5050505E-02  0.0000000E+00 -0.5050505E-02  0.9589988E-07  0.0000000E+00 -0.3401420E-03
 -0.5050504E-02  0.0000000E+00 -0.5050505E-02  0.7139084E-07  0.0000000E+00 -0.3401056E-03
 -0.5050501E-02  0.0000000E+00 -0.5050505E-02  0.4596679E-07  0.0000000E+00 -0.3400798E-03
 -0.5050495E-02  0.0000000E+00 -0.5050505E-02  0.1979372E-07  0.0000000E+00 -0.3400651E-03
 -0.5050482E-02  0.0000000E+00 -0.5050505E-02 -0.6938902E-08  0.0000000E+00 -0.3400617E-03
 -0.5050449E-02  0.0000000E+00 -0.5050505E-02 -0.3402053E-07  0.0000000E+00 -0.3400699E-03
 -0.5050376E-02  0.0000000E+00 -0.5050505E-02 -0.6122312E-07  0.0000000E+00 -0.3400897E-03
 -0.5050299E-02  0.0000000E+00 -0.5050505E-02 -0.8830573E-07  0.0000000E+00 -0.3401212E-03
 -0.5050178E-02  0.0000000E+00 -0.5050505E-02 -0.1150201E-06  0.0000000E+00 -0.3401642E-03
 -0.5050018E-02  0.0000000E+00 -0.5050505E-02 -0.1411166E-06  0.0000000E+00 -0.3402186E-03
 -0.5049710E-02  0.0000000E+00 -0.5050505E-02 -0.1663512E-06  0.0000000E+00 -0.3402841E-03
 -0.5049253E-02  0.0000000E+00 -0.5050505E-02 -0.1904918E-06  0.0000000E+00 -0.3403601E-03
 -0.5048636E-02  0.0000000E+00 -0.5050505E-02 -0.2133248E-06  0.0000000E+00 -0.3404463E-03
 -0.5047442E-02  0.0000000E+00 -0.5050505E-02 -0.2346606E-06  0.0000000E+00 -0.3405419E-03
 -0.5045727E-02  0.0000000E+00 -0.5050505E-02 -0.2543392E-06  0.0000000E+00 -0.3406463E-03
 -0.5043261E-02  0.0000000E+00 -0.5050505E-02 -0.2722342E-06  0.0000000E+00 -0.3407588E-03
 -0.5038714E-02  0.0000000E+00 -0.5050505E-02 -0.2882557E-06  0.0000000E+00 -0.3408785E-03
 -0.5032318E-02  0.0000000E+00 -0.5050505E-02 -0.3023530E-06  0.0000000E+00 -0.3410045E-03
 -0.5022454E-02  0.0000000E+00 -0.5050505E-02 -0.3145162E-06  0.0000000E+00 -0.3411361E-03
 -0.5012589E-02  0.0000000E+00 -0.5050505E-02 -0.3247775E-06  0.0000000E+00 -0.3412724E-03
 -0.5002725E-02  0.0000000E+00 -0.5050505E-02 -0.3332127E-06  0.0000000E+00 -0.3414126E-03
 -0.4992860E-02  0.0000000E+00 -0.5050505E-02 -0.3399431E-06  0.0000000E+00 -0.3415558E-03
 -0.4976523E-02  0.0000000E+00 -0.5050505E-02 -0.3451394E-06  0.0000000E+00 -0.3417013E-03
 -0.4956794E-02  0.0000000E+00 -0.5050505E-02 -0.3490272E-06  0.0000000E+00 -0.3418486E-03
 -0.4937066E-02  0.0000000E+00 -0.5050505E-02 -0.3518965E-06  0.0000000E+00 -0.3419970E-03
 -0.4906239E-02  0.0000000E+00 -0.5050505E-02 -0.3541175E-06  0.0000000E+00 -0.3421460E-03
 -0.4866782E-02  0.0000000E+00 -0.5050505E-02 -0.3561641E-06  0.0000000E+00 -0.3422955E-03
 -0.4827325E-02  0.0000000E+00 -0.5050505E-02 -0.3586513E-06  0.0000000E+00 -0.3424452E-03
 -0.4769372E-02  0.0000000E+00 -0.5050505E-02 -0.3623929E-06  0.0000000E+00 -0.3425954E-03
 -0.4690458E-02  0.0000000E+00 -0.5050505E-02 -0.3684919E-06  0.0000000E+00 -0.3427464E-03
 -0.4611543E-02  0.0000000E+00 -0.5050505E-02 -0.3784844E-06  0.0000000E+00 -0.3428990E-03
 -0.4503035E-02  0.0000000E+00 -0.5050505E-02 -0.3945721E-06  0.0000000E+00 -0.3430544E-03
 -0.4345206E-02  0.0000000E+00 -0.5050505E-02 -0.4200071E-06  0.0000000E+00 -0.3432145E-03
 -0.4187378E-02  0.0000000E+00 -0.5050505E-02 -0.4597436E-06  0.0000000E+00 -0.3433818E-03
 -0.3985156E-02  0.0000000E+00 -0.5050505E-02 -0.5215722E-06  0.0000000E+00 -0.3435598E-03
 -0.3669499E-02  0.0000000E+00 -0.5050505E-02 -0.6181410E-06  0.0000000E+00 -0.3437523E-03
 -0.3353842E-02  0.0000000E+00 -0.5050505E-02 -0.7706365E-06  0.0000000E+00 -0.3439627E-03
 -0.2978990E-02  0.0000000E+00 -0.5050505E-02 -0.1015556E-05  0.0000000E+00 -0.3441897E-03
 -0.2347676E-02  0.0000000E+00 -0.5050505E-02 -0.1416998E-05  0.0000000E+00 -0.3444155E-03
 -0.1716362E-02  0.0000000E+00 -0.5050505E-02 -0.2087319E-05  0.0000000E+00 -0.3445704E-03
 -0.1025842E-02  0.0000000E+00 -0.5050505E-02 -0.3212606E-05  0.0000000E+00 -0.3444388E-03
  0.2367855E-03  0.0000000E+00 -0.5050505E-02 -0.5033868E-05  0.0000000E+00 -0.3434324E-03
  0.1499413E-02  0.0000000E+00 -0.5050505E-02 -0.7497161E-05  0.0000000E+00 -0.3402235E-03
  0.5287294E-02  0.0000000E+00 -0.5050505E-02 -0.8159513E-05  0.0000000E+00 -0.3334082E-03
 -0.5050505E-02  0.0000000E+00 -0.5050505E-02  0.8931887E-08  0.0000000E+00 -0.3445216E-03
 -0.5050505E-02  0.0000000E+00 -0.5050505E-02  0.2678534E-07  0.0000000E+00 -0.3445161E-03
 -0.5050505E-02  0.0000000E+00 -0.5050505E-02  0.4460709E-07  0.0000000E+00 -0.3445052E-03
 -0.5050505E-02  0.0000000E+00 -0.5050505E-02  0.6237577E-07  0.0000000E+00 -0.3444889E-03
 -0.5050505E-02  0.0000000E+00 -0.5050505E-02  0.8007000E-07  0.0000000E+00 -0.3444671E-03
 -0.5050505E-02  0.0000000E+00 -0.5050505E-02  0.9766819E-07  0.0000000E+00 -0.3444399E-03
 -0.5050504E-02  0.0000000E+00 -0.5050505E-02  0.1151485E-06  0.0000000E+00 -0.3444074E-03
 -0.5050501E-02  0.0000000E+00 -0.5050505E-02  0.1324887E-06  0.0000000E+00 -0.3443695E-03
 -0.5050495E-02  0.0000000E+00 -0.5050505E-02  0.1496662E-06  0.0000000E+00 -0.3443263E-03
 -0.5050482E-02  0.0000000E+00 -0.5050505E-02  0.1666582E-06  0.0000000E+00 -0.3442779E-03
 -0.5050449E-02  0.0000000E+00 -0.5050505E-02  0.1834411E-06  0.0000000E+00 -0.3442244E-03
 -0.5050376E-02  0.0000000E+00 -0.5050505E-02  0.1999910E-06  0.0000000E+00 -0.3441657E-03
 -0.5050299E-02  0.0000000E+00 -0.5050505E-02  0.2162833E-06  0.0000000E+00 -0.3441020E-03
 -0.5050178E-02  0.0000000E+00 -0.5050505E-02  0.2322927E-06  0.0000000E+00 -0.3440334E-03
 -0.5050018E-02  0.0000000E+00 -0.5050505E-02  0.2479934E-06  0.0000000E+00 -0.3439599E-03
 -0.5049710E-02  0.0000000E+00 -0.5050505E-02  0.2633585E-06  0.0000000E+00 -0.3438816E-03
 -0.5049253E-02  0.0000000E+00 -0.5050505E-02  0.2783607E-06  0.0000000E+00 -0.3437986E-03
 -0.5048636E-02  0.0000000E+00 -0.5050505E-02  0.2929714E-06  0.0000000E+00 -0.3437112E-03
 -0.5047442E-02  0.0000000E+00 -0.5050505E-02  0.3071614E-06  0.0000000E+00 -0.3436192E-03
 -0.5045727E-02  0.0000000E+00 -0.5050505E-02  0.3209003E-06  0.0000000E+00 -0.3435230E-03
 -0.5043261E-02  0.0000000E+00 -0.5050505E-02  0.3341566E-06  0.0000000E+00 -0.3434226E-03
 -0.5038714E-02  0.0000000E+00 -0.5050505E-02  0.3468977E-06  0.0000000E+00 -0.3433182E-03
 -0.5032318E-02  0.0000000E+00 -0.5050505E-02  0.3590897E-06  0.0000000E+00 -0.3432100E-03
 -0.5022454E-02  0.0000000E+00 -0.5050505E-02  0.3706975E-06  0.0000000E+00 -0.3430981E-03
 -0.5012589E-02  0.0000000E+00 -0.5050505E-02  0.3816845E-06  0.0000000E+00 -0.3429827E-03
 -0.5002725E-02  0.0000000E+00 -0.5050505E-02  0.3920125E-06  0.0000000E+00 -0.3428639E-03
 -0.4992860E-02  0.0000000E+00 -0.5050505E-02  0.4016418E-06  0.0000000E+00 -0.3427421E-03
 -0.4976523E-02  0.0000000E+00 -0.5050505E-02  0.4105308E-06  0.0000000E+00 -0.3426174E-03
 -0.4956794E-02  0.0000000E+00 -0.5050505E-02  0.4186363E-06  0.0000000E+00 -0.3424900E-03
 -0.4937066E-02  0.0000000E+00 -0.5050505E-02  0.4259129E-06  0.0000000E+00 -0.3423602E-03