title = "dataset feddes"
variables = "x", "y", "z", "vx", "vy", "vz"
zone t = "velocities, solution time =  2.000E+01 days        " i =   99, j =   99, k =    1,  f=point
 -0.5050505E-02  0.0000000E+00 -0.5050505E-02  0.2445339E-09  0.0000000E+00 -0.4149899E-03
 -0.5050505E-02  0.0000000E+00 -0.5050505E-02  0.7329926E-09  0.0000000E+00 -0.4149889E-03
 -0.5050505E-02  0.0000000E+00 -0.5050505E-02  0.1219518E-08  0.0000000E+00 -0.4149868E-03
 -0.5050505E-02  0.0000000E+00 -0.5050505E-02  0.1702888E-08  0.0000000E+00 -0.4149837E-03
 -0.5050505E-02  0.0000000E+00 -0.5050505E-02  0.2181835E-08  0.0000000E+00 -0.4149797E-03
 -0.5050505E-02  0.0000000E+00 -0.5050505E-02  0.2655074E-08  0.0000000E+00 -0.4149746E-03
 -0.5050504E-02  0.0000000E+00 -0.5050505E-02  0.3121331E-08  0.0000000E+00 -0.4149685E-03
 -0.5050501E-02  0.0000000E+00 -0.5050505E-02  0.3579338E-08  0.0000000E+00 -0.4149615E-03
 -0.5050495E-02  0.0000000E+00 -0.5050505E-02  0.4027836E-08  0.0000000E+00 -0.4149535E-03
 -0.5050482E-02  0.0000000E+00 -0.5050505E-02  0.4465558E-08  0.0000000E+00 -0.4149446E-03
 -0.5050449E-02  0.0000000E+00 -0.5050505E-02  0.4891243E-08  0.0000000E+00 -0.4149348E-03
 -0.5050376E-02  0.0000000E+00 -0.5050505E-02  0.5303632E-08  0.0000000E+00 -0.4149241E-03
 -0.5050299E-02  0.0000000E+00 -0.5050505E-02  0.5701467E-08  0.0000000E+00 -0.4149125E-03
 -0.5050178E-02  0.0000000E+00 -0.5050505E-02  0.6083499E-08  0.0000000E+00 -0.4149002E-03
 -0.5050018E-02  0.0000000E+00 -0.5050505E-02  0.6448482E-08  0.0000000E+00 -0.4148870E-03
 -0.5049710E-02  0.0000000E+00 -0.5050505E-02  0.6795184E-08  0.0000000E+00 -0.4148731E-03
 -0.5049253E-02  0.0000000E+00 -0.5050505E-02  0.7122381E-08  0.0000000E+00 -0.4148585E-03
 -0.5048636E-02  0.0000000E+00 -0.5050505E-02  0.7428866E-08  0.0000000E+00 -0.4148433E-03
 -0.5047442E-02  0.0000000E+00 -0.5050505E-02  0.7713450E-08  0.0000000E+00 -0.4148274E-03
 -0.5045727E-02  0.0000000E+00 -0.5050505E-02  0.7974966E-08  0.0000000E+00 -0.4148109E-03
 -0.5043261E-02  0.0000000E+00 -0.5050505E-02  0.8212271E-08  0.0000000E+00 -0.4147939E-03
 -0.5038714E-02  0.0000000E+00 -0.5050505E-02  0.8424254E-08  0.0000000E+00 -0.4147765E-03
 -0.5032318E-02  0.0000000E+00 -0.5050505E-02  0.8609837E-08  0.0000000E+00 -0.4147586E-03
 -0.5022454E-02  0.0000000E+00 -0.5050505E-02  0.8767983E-08  0.0000000E+00 -0.4147403E-03
 -0.5012589E-02  0.0000000E+00 -0.5050505E-02  0.8897701E-08  0.0000000E+00 -0.4147218E-03
 -0.5002725E-02  0.0000000E+00 -0.5050505E-02  0.8998050E-08  0.0000000E+00 -0.4147030E-03
 -0.4992860E-02  0.0000000E+00 -0.5050505E-02  0.9068147E-08  0.0000000E+00 -0.4146841E-03
 -0.4976523E-02  0.0000000E+00 -0.5050505E-02  0.9107175E-08  0.0000000E+00 -0.4146650E-03
 -0.4956794E-02  0.0000000E+00 -0.5050505E-02  0.9114385E-08  0.0000000E+00 -0.4146459E-03
 -0.4937066E-02  0.0000000E+00 -0.5050505E-02  0.9089109E-08  0.0000000E+00 -0.4146268E-03
 -0.4906239E-02  0.0000000E+00 -0.5050505E-02  0.9030764E-08  0.0000000E+00 -0.4146078E-03
 -0.4866782E-02  0.0000000E+00 -0.5050505E-02  0.8938860E-08  0.0000000E+00 -0.4145889E-03
 -0.4827325E-02  0.0000000E+00 -0.5050505E-02  0.8813009E-08  0.0000000E+00 -0.4145703E-03
 -0.4769372E-02  0.0000000E+00 -0.5050505E-02  0.8652931E-08  0.0000000E+00 -0.4145520E-03
 -0.4690458E-02  0.0000000E+00 -0.5050505E-02  0.8458464E-08  0.0000000E+00 -0.4145340E-03
 -0.4611543E-02  0.0000000E+00 -0.5050505E-02  0.8229571E-08  0.0000000E+00 -0.4145165E-03
 -0.4503035E-02  0.0000000E+00 -0.5050505E-02  0.7966347E-08  0.0000000E+00 -0.4144995E-03
 -0.4345206E-02  0.0000000E+00 -0.5050505E-02  0.7669026E-08  0.0000000E+00 -0.4144831E-03
 -0.4187378E-02  0.0000000E+00 -0.5050505E-02  0.7337989E-08  0.0000000E+00 -0.4144673E-03
 -0.3985156E-02  0.0000000E+00 -0.5050505E-02  0.6973769E-08  0.0000000E+00 -0.4144523E-03
 -0.3669499E-02  0.0000000E+00 -0.5050505E-02  0.6577057E-08  0.0000000E+00 -0.4144381E-03
 -0.3353842E-02  0.0000000E+00 -0.5050505E-02  0.6148708E-08  0.0000000E+00 -0.4144248E-03
 -0.2978990E-02  0.0000000E+00 -0.5050505E-02  0.5689740E-08  0.0000000E+00 -0.4144123E-03
 -0.2347676E-02  0.0000000E+00 -0.5050505E-02  0.5201341E-08  0.0000000E+00 -0.4144009E-03
 -0.1716362E-02  0.0000000E+00 -0.5050505E-02  0.4684867E-08  0.0000000E+00 -0.4143905E-03
 -0.1025842E-02  0.0000000E+00 -0.5050505E-02  0.4141840E-08  0.0000000E+00 -0.4143813E-03
  0.2367855E-03  0.0000000E+00 -0.5050505E-02  0.3573946E-08  0.0000000E+00 -0.4143732E-03
  0.1499413E-02  0.0000000E+00 -0.5050505E-02  0.2983028E-08  0.0000000E+00 -0.4143663E-03
  0.2762042E-02  0.0000000E+00 -0.5050505E-02  0.2371080E-08  0.0000000E+00 -0.4143607E-03
 -0.5050505E-02  0.0000000E+00 -0.5050505E-02  0.1740234E-08  0.0000000E+00 -0.4143564E-03
 -0.5050505E-02  0.0000000E+00 -0.5050505E-02  0.1092752E-08  0.0000000E+00 -0.4143534E-03
 -0.5050505E-02  0.0000000E+00 -0.5050505E-02  0.4310064E-09  0.0000000E+00 -0.4143518E-03
 -0.5050505E-02  0.0000000E+00 -0.5050505E-02 -0.2425301E-09  0.0000000E+00 -0.4143516E-03
 -0.5050505E-02  0.0000000E+00 -0.5050505E-02 -0.9253973E-09  0.0000000E+00 -0.4143528E-03
 -0.5050505E-02  0.0000000E+00 -0.5050505E-02 -0.1614935E-08  0.0000000E+00 -0.4143555E-03
 -0.5050505E-02  0.0000000E+00 -0.5050505E-02 -0.2308655E-08  0.0000000E+00 -0.4143596E-03
 -0.5050504E-02  0.0000000E+00 -0.5050505E-02 -0.3003989E-08  0.0000000E+00 -0.4143652E-03
 -0.5050501E-02  0.0000000E+00 -0.5050505E-02 -0.3698447E-08  0.0000000E+00 -0.4143722E-03
 -0.5050495E-02  0.0000000E+00 -0.5050505E-02 -0.4389655E-08  0.0000000E+00 -0.4143807E-03
 -0.5050482E-02  0.0000000E+00 -0.5050505E-02 -0.5075397E-08  0.0000000E+00 -0.4143906E-03
 -0.5050449E-02  0.0000000E+00 -0.5050505E-02 -0.5753669E-08  0.0000000E+00 -0.4144020E-03
 -0.5050376E-02  0.0000000E+00 -0.5050505E-02 -0.6422721E-08  0.0000000E+00 -0.4144148E-03
 -0.5050299E-02  0.0000000E+00 -0.5050505E-02 -0.7081136E-08  0.0000000E+00 -0.4144289E-03
 -0.5050178E-02  0.0000000E+00 -0.5050505E-02 -0.7727898E-08  0.0000000E+00 -0.4144445E-03
 -0.5050018E-02  0.0000000E+00 -0.5050505E-02 -0.8362462E-08  0.0000000E+00 -0.4144614E-03
 -0.5049710E-02  0.0000000E+00 -0.5050505E-02 -0.8984863E-08  0.0000000E+00 -0.4144796E-03
 -0.5049253E-02  0.0000000E+00 -0.5050505E-02 -0.9595816E-08  0.0000000E+00 -0.4144991E-03
 -0.5048636E-02  0.0000000E+00 -0.5050505E-02 -0.1019685E-07  0.0000000E+00 -0.4145198E-03
 -0.5047442E-02  0.0000000E+00 -0.5050505E-02 -0.1079045E-07  0.0000000E+00 -0.4145418E-03
 -0.5045727E-02  0.0000000E+00 -0.5050505E-02 -0.1138027E-07  0.0000000E+00 -0.4145651E-03
 -0.5043261E-02  0.0000000E+00 -0.5050505E-02 -0.1197138E-07  0.0000000E+00 -0.4145896E-03
 -0.5038714E-02  0.0000000E+00 -0.5050505E-02 -0.1257052E-07  0.0000000E+00 -0.4146154E-03
 -0.5032318E-02  0.0000000E+00 -0.5050505E-02 -0.1318657E-07  0.0000000E+00 -0.4146424E-03
 -0.5022454E-02  0.0000000E+00 -0.5050505E-02 -0.1383102E-07  0.0000000E+00 -0.4146707E-03
 -0.5012589E-02  0.0000000E+00 -0.5050505E-02 -0.1451871E-07  0.0000000E+00 -0.4147005E-03
 -0.5002725E-02  0.0000000E+00 -0.5050505E-02 -0.1526871E-07  0.0000000E+00 -0.4147317E-03
 -0.4992860E-02  0.0000000E+00 -0.5050505E-02 -0.1610567E-07  0.0000000E+00 -0.4147647E-03
 -0.4976523E-02  0.0000000E+00 -0.5050505E-02 -0.1706161E-07  0.0000000E+00 -0.4147995E-03
 -0.4956794E-02  0.0000000E+00 -0.5050505E-02 -0.1817837E-07  0.0000000E+00 -0.4148365E-03
 -0.4937066E-02  0.0000000E+00 -0.5050505E-02 -0.1951133E-07  0.0000000E+00 -0.4148760E-03
 -0.4906239E-02  0.0000000E+00 -0.5050505E-02 -0.2113454E-07  0.0000000E+00 -0.4149187E-03
 -0.4866782E-02  0.0000000E+00 -0.5050505E-02 -0.2314862E-07  0.0000000E+00 -0.4149651E-03
 -0.4827325E-02  0.0000000E+00 -0.5050505E-02 -0.2569246E-07  0.0000000E+00 -0.4150164E-03
 -0.4769372E-02  0.0000000E+00 -0.5050505E-02 -0.2896144E-07  0.0000000E+00 -0.4150737E-03
 -0.4690458E-02  0.0000000E+00 -0.5050505E-02 -0.3323634E-07  0.0000000E+00 -0.4151390E-03
 -0.4611543E-02  0.0000000E+00 -0.5050505E-02 -0.3893048E-07  0.0000000E+00 -0.4152147E-03
 -0.4503035E-02  0.0000000E+00 -0.5050505E-02 -0.4666913E-07  0.0000000E+00 -0.4153045E-03
 -0.4345206E-02  0.0000000E+00 -0.5050505E-02 -0.5742836E-07  0.0000000E+00 -0.4154138E-03
 -0.4187378E-02  0.0000000E+00 -0.5050505E-02 -0.7278809E-07  0.0000000E+00 -0.4155504E-03
 -0.3985156E-02  0.0000000E+00 -0.5050505E-02 -0.9541614E-07  0.0000000E+00 -0.4157269E-03
 -0.3669499E-02  0.0000000E+00 -0.5050505E-02 -0.1300480E-06  0.0000000E+00 -0.4159636E-03
 -0.3353842E-02  0.0000000E+00 -0.5050505E-02 -0.1856036E-06  0.0000000E+00 -0.4162948E-03
 -0.2978990E-02  0.0000000E+00 -0.5050505E-02 -0.2801182E-06  0.0000000E+00 -0.4167836E-03
 -0.2347676E-02  0.0000000E+00 -0.5050505E-02 -0.4532503E-06  0.0000000E+00 -0.4175533E-03
 -0.1716362E-02  0.0000000E+00 -0.5050505E-02 -0.8011018E-06  0.0000000E+00 -0.4188699E-03
 -0.1025842E-02  0.0000000E+00 -0.5050505E-02 -0.1582987E-05  0.0000000E+00 -0.4213728E-03
  0.2367855E-03  0.0000000E+00 -0.5050505E-02 -0.3581294E-05  0.0000000E+00 -0.4267961E-03
  0.1499413E-02  0.0000000E+00 -0.5050505E-02 -0.9424567E-05  0.0000000E+00 -0.4404635E-03
  0.5287294E-02  0.0000000E+00 -0.5050505E-02 -0.1549283E-03  0.0000000E+00 -0.3512327E-03
 -0.5050505E-02  0.0000000E+00 -0.5050505E-02  0.7353574E-09  0.0000000E+00 -0.4146767E-03
 -0.5050505E-02  0.0000000E+00 -0.5050505E-02  0.2204258E-08  0.0000000E+00 -0.4146757E-03
 -0.5050505E-02  0.0000000E+00 -0.5050505E-02  0.3667392E-08  0.0000000E+00 -0.4146736E-03
 -0.5050505E-02  0.0000000E+00 -0.5050505E-02  0.5121007E-08  0.0000000E+00 -0.4146705E-03
 -0.5050505E-02  0.0000000E+00 -0.5050505E-02  0.6561337E-08  0.0000000E+00 -0.4146664E-03
 -0.5050505E-02  0.0000000E+00 -0.5050505E-02  0.7984528E-08  0.0000000E+00 -0.4146613E-03
 -0.5050504E-02  0.0000000E+00 -0.5050505E-02  0.9386756E-08  0.0000000E+00 -0.4146552E-03
 -0.5050501E-02  0.0000000E+00 -0.5050505E-02  0.1076421E-07  0.0000000E+00 -0.4146481E-03
 -0.5050495E-02  0.0000000E+00 -0.5050505E-02  0.1211309E-07  0.0000000E+00 -0.4146401E-03
 -0.5050482E-02  0.0000000E+00 -0.5050505E-02  0.1342961E-07  0.0000000E+00 -0.4146311E-03
 -0.5050449E-02  0.0000000E+00 -0.5050505E-02  0.1470997E-07  0.0000000E+00 -0.4146212E-03
 -0.5050376E-02  0.0000000E+00 -0.5050505E-02  0.1595038E-07  0.0000000E+00 -0.4146104E-03
 -0.5050299E-02  0.0000000E+00 -0.5050505E-02  0.1714708E-07  0.0000000E+00 -0.4145987E-03
 -0.5050178E-02  0.0000000E+00 -0.5050505E-02  0.1829630E-07  0.0000000E+00 -0.4145863E-03
 -0.5050018E-02  0.0000000E+00 -0.5050505E-02  0.1939431E-07  0.0000000E+00 -0.4145730E-03
 -0.5049710E-02  0.0000000E+00 -0.5050505E-02  0.2043739E-07  0.0000000E+00 -0.4145590E-03
 -0.5049253E-02  0.0000000E+00 -0.5050505E-02  0.2142188E-07  0.0000000E+00 -0.4145443E-03
 -0.5048636E-02  0.0000000E+00 -0.5050505E-02  0.2234413E-07  0.0000000E+00 -0.4145289E-03
 -0.5047442E-02  0.0000000E+00 -0.5050505E-02  0.2320057E-07  0.0000000E+00 -0.4145129E-03
 -0.5045727E-02  0.0000000E+00 -0.5050505E-02  0.2398770E-07  0.0000000E+00 -0.4144962E-03
 -0.5043261E-02  0.0000000E+00 -0.5050505E-02  0.2470208E-07  0.0000000E+00 -0.4144791E-03
 -0.5038714E-02  0.0000000E+00 -0.5050505E-02  0.2534035E-07  0.0000000E+00 -0.4144615E-03
 -0.5032318E-02  0.0000000E+00 -0.5050505E-02  0.2589929E-07  0.0000000E+00 -0.4144435E-03
 -0.5022454E-02  0.0000000E+00 -0.5050505E-02  0.2637576E-07  0.0000000E+00 -0.4144251E-03
 -0.5012589E-02  0.0000000E+00 -0.5050505E-02  0.2676679E-07  0.0000000E+00 -0.4144064E-03
 -0.5002725E-02  0.0000000E+00 -0.5050505E-02  0.2706954E-07  0.0000000E+00 -0.4143874E-03
 -0.4992860E-02  0.0000000E+00 -0.5050505E-02  0.2728135E-07  0.0000000E+00 -0.4143683E-03
 -0.4976523E-02  0.0000000E+00 -0.5050505E-02  0.2739975E-07  0.0000000E+00 -0.4143490E-03
 -0.4956794E-02  0.0000000E+00 -0.5050505E-02  0.2742250E-07  0.0000000E+00 -0.4143297E-03
 -0.4937066E-02  0.0000000E+00 -0.5050505E-02  0.2734756E-07  0.0000000E+00 -0.4143105E-03
 -0.4906239E-02  0.0000000E+00 -0.5050505E-02  0.2717319E-07  0.0000000E+00 -0.4142913E-03
 -0.4866782E-02  0.0000000E+00 -0.5050505E-02  0.2689790E-07  0.0000000E+00 -0.4142722E-03
 -0.4827325E-02  0.0000000E+00 -0.5050505E-02  0.2652051E-07  0.0000000E+00 -0.4142534E-03
 -0.4769372E-02  0.0000000E+00 -0.5050505E-02  0.2604018E-07  0.0000000E+00 -0.4142349E-03
 -0.4690458E-02  0.0000000E+00 -0.5050505E-02  0.2545641E-07  0.0000000E+00 -0.4142167E-03
 -0.4611543E-02  0.0000000E+00 -0.5050505E-02  0.2476907E-07  0.0000000E+00 -0.4141991E-03
 -0.4503035E-02  0.0000000E+00 -0.5050505E-02  0.2397844E-07  0.0000000E+00 -0.4141819E-03
 -0.4345206E-02  0.0000000E+00 -0.5050505E-02  0.2308522E-07  0.0000000E+00 -0.4141653E-03
 -0.4187378E-02  0.0000000E+00 -0.5050505E-02  0.2209055E-07  0.0000000E+00 -0.4141494E-03
 -0.3985156E-02  0.0000000E+00 -0.5050505E-02  0.2099600E-07  0.0000000E+00 -0.4141342E-03
 -0.3669499E-02  0.0000000E+00 -0.5050505E-02  0.1980367E-07  0.0000000E+00 -0.4141198E-03
 -0.3353842E-02  0.0000000E+00 -0.5050505E-02  0.1851610E-07  0.0000000E+00 -0.4141063E-03
 -0.2978990E-02  0.0000000E+00 -0.5050505E-02  0.1713636E-07  0.0000000E+00 -0.4140937E-03
 -0.2347676E-02  0.0000000E+00 -0.5050505E-02  0.1566800E-07  0.0000000E+00 -0.4140821E-03
 -0.1716362E-02  0.0000000E+00 -0.5050505E-02  0.1411510E-07  0.0000000E+00 -0.4140716E-03
 -0.1025842E-02  0.0000000E+00 -0.5050505E-02  0.1248225E-07  0.0000000E+00 -0.4140622E-03
  0.2367855E-03  0.0000000E+00 -0.5050505E-02  0.1077449E-07  0.0000000E+00 -0.4140540E-03
  0.1499413E-02  0.0000000E+00 -0.5050505E-02  0.8997394E-08  0.0000000E+00 -0.4140470E-03
  0.2762042E-02  0.0000000E+00 -0.5050505E-02  0.7156945E-08  0.0000000E+00 -0.4140413E-03
 -0.5050505E-02  0.0000000E+00 -0.5050505E-02  0.5259569E-08  0.0000000E+00 -0.4140369E-03
 -0.5050505E-02  0.0000000E+00 -0.5050505E-02  0.3312071E-08  0.0000000E+00 -0.4140338E-03
 -0.5050505E-02  0.0000000E+00 -0.5050505E-02  0.1321601E-08  0.0000000E+00 -0.4140322E-03
 -0.5050505E-02  0.0000000E+00 -0.5050505E-02 -0.7043495E-09  0.0000000E+00 -0.4140319E-03
 -0.5050505E-02  0.0000000E+00 -0.5050505E-02 -0.2758405E-08  0.0000000E+00 -0.4140331E-03
 -0.5050505E-02  0.0000000E+00 -0.5050505E-02 -0.4832569E-08  0.0000000E+00 -0.4140357E-03
 -0.5050505E-02  0.0000000E+00 -0.5050505E-02 -0.6919237E-08  0.0000000E+00 -0.4140398E-03
 -0.5050504E-02  0.0000000E+00 -0.5050505E-02 -0.9010698E-08  0.0000000E+00 -0.4140454E-03
 -0.5050501E-02  0.0000000E+00 -0.5050505E-02 -0.1109943E-07  0.0000000E+00 -0.4140525E-03
 -0.5050495E-02  0.0000000E+00 -0.5050505E-02 -0.1317824E-07  0.0000000E+00 -0.4140610E-03
 -0.5050482E-02  0.0000000E+00 -0.5050505E-02 -0.1524041E-07  0.0000000E+00 -0.4140709E-03
 -0.5050449E-02  0.0000000E+00 -0.5050505E-02 -0.1727985E-07  0.0000000E+00 -0.4140823E-03
 -0.5050376E-02  0.0000000E+00 -0.5050505E-02 -0.1929123E-07  0.0000000E+00 -0.4140952E-03
 -0.5050299E-02  0.0000000E+00 -0.5050505E-02 -0.2127021E-07  0.0000000E+00 -0.4141094E-03
 -0.5050178E-02  0.0000000E+00 -0.5050505E-02 -0.2321363E-07  0.0000000E+00 -0.4141250E-03
 -0.5050018E-02  0.0000000E+00 -0.5050505E-02 -0.2511976E-07  0.0000000E+00 -0.4141420E-03
 -0.5049710E-02  0.0000000E+00 -0.5050505E-02 -0.2698858E-07  0.0000000E+00 -0.4141603E-03
 -0.5049253E-02  0.0000000E+00 -0.5050505E-02 -0.2882209E-07  0.0000000E+00 -0.4141798E-03
 -0.5048636E-02  0.0000000E+00 -0.5050505E-02 -0.3062469E-07  0.0000000E+00 -0.4142007E-03
 -0.5047442E-02  0.0000000E+00 -0.5050505E-02 -0.3240367E-07  0.0000000E+00 -0.4142228E-03
 -0.5045727E-02  0.0000000E+00 -0.5050505E-02 -0.3416972E-07  0.0000000E+00 -0.4142462E-03
 -0.5043261E-02  0.0000000E+00 -0.5050505E-02 -0.3593771E-07  0.0000000E+00 -0.4142707E-03
 -0.5038714E-02  0.0000000E+00 -0.5050505E-02 -0.3772751E-07  0.0000000E+00 -0.4142966E-03
 -0.5032318E-02  0.0000000E+00 -0.5050505E-02 -0.3956520E-07  0.0000000E+00 -0.4143236E-03
 -0.5022454E-02  0.0000000E+00 -0.5050505E-02 -0.4148459E-07  0.0000000E+00 -0.4143520E-03
 -0.5012589E-02  0.0000000E+00 -0.5050505E-02 -0.4352922E-07  0.0000000E+00 -0.4143817E-03
 -0.5002725E-02  0.0000000E+00 -0.5050505E-02 -0.4575511E-07  0.0000000E+00 -0.4144129E-03
 -0.4992860E-02  0.0000000E+00 -0.5050505E-02 -0.4823444E-07  0.0000000E+00 -0.4144457E-03
 -0.4976523E-02  0.0000000E+00 -0.5050505E-02 -0.5106077E-07  0.0000000E+00 -0.4144804E-03
 -0.4956794E-02  0.0000000E+00 -0.5050505E-02 -0.5435618E-07  0.0000000E+00 -0.4145170E-03
 -0.4937066E-02  0.0000000E+00 -0.5050505E-02 -0.5828165E-07  0.0000000E+00 -0.4145562E-03
 -0.4906239E-02  0.0000000E+00 -0.5050505E-02 -0.6305188E-07  0.0000000E+00 -0.4145982E-03
 -0.4866782E-02  0.0000000E+00 -0.5050505E-02 -0.6895728E-07  0.0000000E+00 -0.4146439E-03
 -0.4827325E-02  0.0000000E+00 -0.5050505E-02 -0.7639696E-07  0.0000000E+00 -0.4146939E-03
 -0.4769372E-02  0.0000000E+00 -0.5050505E-02 -0.8592924E-07  0.0000000E+00 -0.4147496E-03
 -0.4690458E-02  0.0000000E+00 -0.5050505E-02 -0.9835106E-07  0.0000000E+00 -0.4148125E-03
 -0.4611543E-02  0.0000000E+00 -0.5050505E-02 -0.1148259E-06  0.0000000E+00 -0.4148848E-03
 -0.4503035E-02  0.0000000E+00 -0.5050505E-02 -0.1370963E-06  0.0000000E+00 -0.4149696E-03
 -0.4345206E-02  0.0000000E+00 -0.5050505E-02 -0.1678476E-06  0.0000000E+00 -0.4150712E-03
 -0.4187378E-02  0.0000000E+00 -0.5050505E-02 -0.2113552E-06  0.0000000E+00 -0.4151960E-03
 -0.3985156E-02  0.0000000E+00 -0.5050505E-02 -0.2746841E-06  0.0000000E+00 -0.4153532E-03
 -0.3669499E-02  0.0000000E+00 -0.5050505E-02 -0.3700143E-06  0.0000000E+00 -0.4155568E-03
 -0.3353842E-02  0.0000000E+00 -0.5050505E-02 -0.5193889E-06  0.0000000E+00 -0.4158280E-03
 -0.2978990E-02  0.0000000E+00 -0.5050505E-02 -0.7649561E-06  0.0000000E+00 -0.4161989E-03
 -0.2347676E-02  0.0000000E+00 -0.5050505E-02 -0.1192424E-05  0.0000000E+00 -0.4167148E-03
 -0.1716362E-02  0.0000000E+00 -0.5050505E-02 -0.1988139E-05  0.0000000E+00 -0.4174217E-03
 -0.1025842E-02  0.0000000E+00 -0.5050505E-02 -0.3586534E-05  0.0000000E+00 -0.4182724E-03
  0.2367855E-03  0.0000000E+00 -0.5050505E-02 -0.7072136E-05  0.0000000E+00 -0.4186304E-03
  0.1499413E-02  0.0000000E+00 -0.5050505E-02 -0.1532414E-04  0.0000000E+00 -0.4148794E-03
  0.5287294E-02  0.0000000E+00 -0.5050505E-02 -0.3636253E-04  0.0000000E+00 -0.3891254E-03
 -0.5050505E-02  0.0000000E+00 -0.5050505E-02  0.1231587E-08  0.0000000E+00 -0.4140664E-03
 -0.5050505E-02  0.0000000E+00 -0.5050505E-02  0.3691694E-08  0.0000000E+00 -0.4140654E-03
 -0.5050505E-02  0.0000000E+00 -0.5050505E-02  0.6142258E-08  0.0000000E+00 -0.4140633E-03
 -0.5050505E-02  0.0000000E+00 -0.5050505E-02  0.8576852E-08  0.0000000E+00 -0.4140601E-03
 -0.5050505E-02  0.0000000E+00 -0.5050505E-02  0.1098924E-07  0.0000000E+00 -0.4140559E-03
 -0.5050505E-02  0.0000000E+00 -0.5050505E-02  0.1337302E-07  0.0000000E+00 -0.4140507E-03
 -0.5050504E-02  0.0000000E+00 -0.5050505E-02  0.1572178E-07  0.0000000E+00 -0.4140445E-03
 -0.5050501E-02  0.0000000E+00 -0.5050505E-02  0.1802914E-07  0.0000000E+00 -0.4140373E-03
 -0.5050495E-02  0.0000000E+00 -0.5050505E-02  0.2028877E-07  0.0000000E+00 -0.4140292E-03
 -0.5050482E-02  0.0000000E+00 -0.5050505E-02  0.2249431E-07  0.0000000E+00 -0.4140200E-03
 -0.5050449E-02  0.0000000E+00 -0.5050505E-02  0.2463944E-07  0.0000000E+00 -0.4140100E-03
 -0.5050376E-02  0.0000000E+00 -0.5050505E-02  0.2671781E-07  0.0000000E+00 -0.4139990E-03
 -0.5050299E-02  0.0000000E+00 -0.5050505E-02  0.2872312E-07  0.0000000E+00 -0.4139872E-03
 -0.5050178E-02  0.0000000E+00 -0.5050505E-02  0.3064907E-07  0.0000000E+00 -0.4139745E-03
 -0.5050018E-02  0.0000000E+00 -0.5050505E-02  0.3248943E-07  0.0000000E+00 -0.4139610E-03
 -0.5049710E-02  0.0000000E+00 -0.5050505E-02  0.3423797E-07  0.0000000E+00 -0.4139468E-03
 -0.5049253E-02  0.0000000E+00 -0.5050505E-02  0.3588855E-07  0.0000000E+00 -0.4139318E-03
 -0.5048636E-02  0.0000000E+00 -0.5050505E-02  0.3743509E-07  0.0000000E+00 -0.4139162E-03
 -0.5047442E-02  0.0000000E+00 -0.5050505E-02  0.3887159E-07  0.0000000E+00 -0.4138999E-03
 -0.5045727E-02  0.0000000E+00 -0.5050505E-02  0.4019219E-07  0.0000000E+00 -0.4138830E-03
 -0.5043261E-02  0.0000000E+00 -0.5050505E-02  0.4139111E-07  0.0000000E+00 -0.4138655E-03
 -0.5038714E-02  0.0000000E+00 -0.5050505E-02  0.4246276E-07  0.0000000E+00 -0.4138476E-03
 -0.5032318E-02  0.0000000E+00 -0.5050505E-02  0.4340169E-07  0.0000000E+00 -0.4138293E-03
 -0.5022454E-02  0.0000000E+00 -0.5050505E-02  0.4420267E-07  0.0000000E+00 -0.4138106E-03
 -0.5012589E-02  0.0000000E+00 -0.5050505E-02  0.4486069E-07  0.0000000E+00 -0.4137915E-03
 -0.5002725E-02  0.0000000E+00 -0.5050505E-02  0.4537098E-07  0.0000000E+00 -0.4137722E-03
 -0.4992860E-02  0.0000000E+00 -0.5050505E-02  0.4572908E-07  0.0000000E+00 -0.4137528E-03
 -0.4976523E-02  0.0000000E+00 -0.5050505E-02  0.4593084E-07  0.0000000E+00 -0.4137332E-03
 -0.4956794E-02  0.0000000E+00 -0.5050505E-02  0.4597247E-07  0.0000000E+00 -0.4137135E-03
 -0.4937066E-02  0.0000000E+00 -0.5050505E-02  0.4585055E-07  0.0000000E+00 -0.4136938E-03
 -0.4906239E-02  0.0000000E+00 -0.5050505E-02  0.4556211E-07  0.0000000E+00 -0.4136743E-03
 -0.4866782E-02  0.0000000E+00 -0.5050505E-02  0.4510466E-07  0.0000000E+00 -0.4136549E-03
 -0.4827325E-02  0.0000000E+00 -0.5050505E-02  0.4447618E-07  0.0000000E+00 -0.4136357E-03
 -0.4769372E-02  0.0000000E+00 -0.5050505E-02  0.4367523E-07  0.0000000E+00 -0.4136168E-03
 -0.4690458E-02  0.0000000E+00 -0.5050505E-02  0.4270095E-07  0.0000000E+00 -0.4135983E-03
 -0.4611543E-02  0.0000000E+00 -0.5050505E-02  0.4155309E-07  0.0000000E+00 -0.4135803E-03
 -0.4503035E-02  0.0000000E+00 -0.5050505E-02  0.4023209E-07  0.0000000E+00 -0.4135627E-03
 -0.4345206E-02  0.0000000E+00 -0.5050505E-02  0.3873907E-07  0.0000000E+00 -0.4135458E-03
 -0.4187378E-02  0.0000000E+00 -0.5050505E-02  0.3707591E-07  0.0000000E+00 -0.4135295E-03
 -0.3985156E-02  0.0000000E+00 -0.5050505E-02  0.3524524E-07  0.0000000E+00 -0.4135140E-03
 -0.3669499E-02  0.0000000E+00 -0.5050505E-02  0.3325051E-07  0.0000000E+00 -0.4134993E-03
 -0.3353842E-02  0.0000000E+00 -0.5050505E-02  0.3109596E-07  0.0000000E+00 -0.4134854E-03
 -0.2978990E-02  0.0000000E+00 -0.5050505E-02  0.2878671E-07  0.0000000E+00 -0.4134726E-03
 -0.2347676E-02  0.0000000E+00 -0.5050505E-02  0.2632869E-07  0.0000000E+00 -0.4134607E-03
 -0.1716362E-02  0.0000000E+00 -0.5050505E-02  0.2372871E-07  0.0000000E+00 -0.4134499E-03
 -0.1025842E-02  0.0000000E+00 -0.5050505E-02  0.2099444E-07  0.0000000E+00 -0.4134403E-03
  0.2367855E-03  0.0000000E+00 -0.5050505E-02  0.1813435E-07  0.0000000E+00 -0.4134318E-03
  0.1499413E-02  0.0000000E+00 -0.5050505E-02  0.1515774E-07  0.0000000E+00 -0.4134246E-03
  0.2762042E-02  0.0000000E+00 -0.5050505E-02  0.1207468E-07  0.0000000E+00 -0.4134187E-03
 -0.5050505E-02  0.0000000E+00 -0.5050505E-02  0.8895953E-08  0.0000000E+00 -0.4134141E-03
 -0.5050505E-02  0.0000000E+00 -0.5050505E-02  0.5632990E-08  0.0000000E+00 -0.4134109E-03
 -0.5050505E-02  0.0000000E+00 -0.5050505E-02  0.2297772E-08  0.0000000E+00 -0.4134091E-03
 -0.5050505E-02  0.0000000E+00 -0.5050505E-02 -0.1097018E-08  0.0000000E+00 -0.4134087E-03
 -0.5050505E-02  0.0000000E+00 -0.5050505E-02 -0.4538962E-08  0.0000000E+00 -0.4134098E-03
 -0.5050505E-02  0.0000000E+00 -0.5050505E-02 -0.8014703E-08  0.0000000E+00 -0.4134124E-03
 -0.5050505E-02  0.0000000E+00 -0.5050505E-02 -0.1151123E-07  0.0000000E+00 -0.4134165E-03
 -0.5050504E-02  0.0000000E+00 -0.5050505E-02 -0.1501558E-07  0.0000000E+00 -0.4134220E-03
 -0.5050501E-02  0.0000000E+00 -0.5050505E-02 -0.1851504E-07  0.0000000E+00 -0.4134291E-03
 -0.5050495E-02  0.0000000E+00 -0.5050505E-02 -0.2199740E-07  0.0000000E+00 -0.4134376E-03
 -0.5050482E-02  0.0000000E+00 -0.5050505E-02 -0.2545121E-07  0.0000000E+00 -0.4134477E-03
 -0.5050449E-02  0.0000000E+00 -0.5050505E-02 -0.2886608E-07  0.0000000E+00 -0.4134592E-03
 -0.5050376E-02  0.0000000E+00 -0.5050505E-02 -0.3223284E-07  0.0000000E+00 -0.4134721E-03
 -0.5050299E-02  0.0000000E+00 -0.5050505E-02 -0.3554396E-07  0.0000000E+00 -0.4134865E-03
 -0.5050178E-02  0.0000000E+00 -0.5050505E-02 -0.3879387E-07  0.0000000E+00 -0.4135022E-03
 -0.5050018E-02  0.0000000E+00 -0.5050505E-02 -0.4197931E-07  0.0000000E+00 -0.4135193E-03
 -0.5049710E-02  0.0000000E+00 -0.5050505E-02 -0.4509982E-07  0.0000000E+00 -0.4135378E-03
 -0.5049253E-02  0.0000000E+00 -0.5050505E-02 -0.4815829E-07  0.0000000E+00 -0.4135576E-03
 -0.5048636E-02  0.0000000E+00 -0.5050505E-02 -0.5116149E-07  0.0000000E+00 -0.4135786E-03
 -0.5047442E-02  0.0000000E+00 -0.5050505E-02 -0.5412089E-07  0.0000000E+00 -0.4136009E-03
 -0.5045727E-02  0.0000000E+00 -0.5050505E-02 -0.5705352E-07  0.0000000E+00 -0.4136244E-03
 -0.5043261E-02  0.0000000E+00 -0.5050505E-02 -0.5998311E-07  0.0000000E+00 -0.4136491E-03
 -0.5038714E-02  0.0000000E+00 -0.5050505E-02 -0.6294150E-07  0.0000000E+00 -0.4136751E-03
 -0.5032318E-02  0.0000000E+00 -0.5050505E-02 -0.6597046E-07  0.0000000E+00 -0.4137022E-03
 -0.5022454E-02  0.0000000E+00 -0.5050505E-02 -0.6912412E-07  0.0000000E+00 -0.4137306E-03
 -0.5012589E-02  0.0000000E+00 -0.5050505E-02 -0.7247207E-07  0.0000000E+00 -0.4137604E-03
 -0.5002725E-02  0.0000000E+00 -0.5050505E-02 -0.7610359E-07  0.0000000E+00 -0.4137915E-03
 -0.4992860E-02  0.0000000E+00 -0.5050505E-02 -0.8013345E-07  0.0000000E+00 -0.4138241E-03
 -0.4976523E-02  0.0000000E+00 -0.5050505E-02 -0.8470968E-07  0.0000000E+00 -0.4138583E-03
 -0.4956794E-02  0.0000000E+00 -0.5050505E-02 -0.9002465E-07  0.0000000E+00 -0.4138945E-03
 -0.4937066E-02  0.0000000E+00 -0.5050505E-02 -0.9633049E-07  0.0000000E+00 -0.4139328E-03
 -0.4906239E-02  0.0000000E+00 -0.5050505E-02 -0.1039613E-06  0.0000000E+00 -0.4139737E-03
 -0.4866782E-02  0.0000000E+00 -0.5050505E-02 -0.1133656E-06  0.0000000E+00 -0.4140177E-03
 -0.4827325E-02  0.0000000E+00 -0.5050505E-02 -0.1251538E-06  0.0000000E+00 -0.4140656E-03
 -0.4769372E-02  0.0000000E+00 -0.5050505E-02 -0.1401706E-06  0.0000000E+00 -0.4141182E-03
 -0.4690458E-02  0.0000000E+00 -0.5050505E-02 -0.1596060E-06  0.0000000E+00 -0.4141766E-03
 -0.4611543E-02  0.0000000E+00 -0.5050505E-02 -0.1851696E-06  0.0000000E+00 -0.4142427E-03
 -0.4503035E-02  0.0000000E+00 -0.5050505E-02 -0.2193712E-06  0.0000000E+00 -0.4143183E-03
 -0.4345206E-02  0.0000000E+00 -0.5050505E-02 -0.2659838E-06  0.0000000E+00 -0.4144063E-03
 -0.4187378E-02  0.0000000E+00 -0.5050505E-02 -0.3308282E-06  0.0000000E+00 -0.4145104E-03
 -0.3985156E-02  0.0000000E+00 -0.5050505E-02 -0.4231366E-06  0.0000000E+00 -0.4146349E-03
 -0.3669499E-02  0.0000000E+00 -0.5050505E-02 -0.5579862E-06  0.0000000E+00 -0.4147852E-03
 -0.3353842E-02  0.0000000E+00 -0.5050505E-02 -0.7607363E-06  0.0000000E+00 -0.4149658E-03
 -0.2978990E-02  0.0000000E+00 -0.5050505E-02 -0.1075209E-05  0.0000000E+00 -0.4151757E-03
 -0.2347676E-02  0.0000000E+00 -0.5050505E-02 -0.1578581E-05  0.0000000E+00 -0.4153940E-03
 -0.1716362E-02  0.0000000E+00 -0.5050505E-02 -0.2406528E-05  0.0000000E+00 -0.4155375E-03
 -0.1025842E-02  0.0000000E+00 -0.5050505E-02 -0.3784644E-05  0.0000000E+00 -0.4153465E-03
  0.2367855E-03  0.0000000E+00 -0.5050505E-02 -0.6007374E-05  0.0000000E+00 -0.4141083E-03
  0.1499413E-02  0.0000000E+00 -0.5050505E-02 -0.9017769E-05  0.0000000E+00 -0.4102062E-03
  0.5287294E-02  0.0000000E+00 -0.5050505E-02 -0.9869628E-05  0.0000000E+00 -0.4019131E-03
 -0.5050505E-02  0.0000000E+00 -0.5050505E-02  0.1736953E-08  0.0000000E+00 -0.4131741E-03
 -0.5050505E-02  0.0000000E+00 -0.5050505E-02  0.5206434E-08  0.0000000E+00 -0.4131730E-03
 -0.5050505E-02  0.0000000E+00 -0.5050505E-02  0.8662614E-08  0.0000000E+00 -0.4131709E-03
 -0.5050505E-02  0.0000000E+00 -0.5050505E-02  0.1209630E-07  0.0000000E+00 -0.4131677E-03
 -0.5050505E-02  0.0000000E+00 -0.5050505E-02  0.1549879E-07  0.0000000E+00 -0.4131634E-03
 -0.5050505E-02  0.0000000E+00 -0.5050505E-02  0.1886108E-07  0.0000000E+00 -0.4131581E-03
 -0.5050504E-02  0.0000000E+00 -0.5050505E-02  0.2217418E-07  0.0000000E+00 -0.4131517E-03
 -0.5050501E-02  0.0000000E+00 -0.5050505E-02  0.2542910E-07  0.0000000E+00 -0.4131444E-03
 -0.5050495E-02  0.0000000E+00 -0.5050505E-02  0.2861694E-07  0.0000000E+00 -0.4131360E-03
 -0.5050482E-02  0.0000000E+00 -0.5050505E-02  0.3172875E-07  0.0000000E+00 -0.4131267E-03
 -0.5050449E-02  0.0000000E+00 -0.5050505E-02  0.3475564E-07  0.0000000E+00 -0.4131164E-03
 -0.5050376E-02  0.0000000E+00 -0.5050505E-02  0.3768870E-07  0.0000000E+00 -0.4131052E-03
 -0.5050299E-02  0.0000000E+00 -0.5050505E-02  0.4051904E-07  0.0000000E+00 -0.4130930E-03
 -0.5050178E-02  0.0000000E+00 -0.5050505E-02  0.4323781E-07  0.0000000E+00 -0.4130801E-03
 -0.5050018E-02  0.0000000E+00 -0.5050505E-02  0.4583622E-07  0.0000000E+00 -0.4130663E-03
 -0.5049710E-02  0.0000000E+00 -0.5050505E-02  0.4830552E-07  0.0000000E+00 -0.4130517E-03
 -0.5049253E-02  0.0000000E+00 -0.5050505E-02  0.5063703E-07  0.0000000E+00 -0.4130363E-03
 -0.5048636E-02  0.0000000E+00 -0.5050505E-02  0.5282220E-07  0.0000000E+00 -0.4130203E-03
 -0.5047442E-02  0.0000000E+00 -0.5050505E-02  0.5485257E-07  0.0000000E+00 -0.4130036E-03
 -0.5045727E-02  0.0000000E+00 -0.5050505E-02  0.5671985E-07  0.0000000E+00 -0.4129863E-03
 -0.5043261E-02  0.0000000E+00 -0.5050505E-02  0.5841592E-07  0.0000000E+00 -0.4129684E-03
 -0.5038714E-02  0.0000000E+00 -0.5050505E-02  0.5993284E-07  0.0000000E+00 -0.4129501E-03
 -0.5032318E-02  0.0000000E+00 -0.5050505E-02  0.6126294E-07  0.0000000E+00 -0.4129313E-03
 -0.5022454E-02  0.0000000E+00 -0.5050505E-02  0.6239881E-07  0.0000000E+00 -0.4129121E-03
 -0.5012589E-02  0.0000000E+00 -0.5050505E-02  0.6333335E-07  0.0000000E+00 -0.4128925E-03
 -0.5002725E-02  0.0000000E+00 -0.5050505E-02  0.6405983E-07  0.0000000E+00 -0.4128727E-03
 -0.4992860E-02  0.0000000E+00 -0.5050505E-02  0.6457192E-07  0.0000000E+00 -0.4128527E-03
 -0.4976523E-02  0.0000000E+00 -0.5050505E-02  0.6486370E-07  0.0000000E+00 -0.4128326E-03
 -0.4956794E-02  0.0000000E+00 -0.5050505E-02  0.6492980E-07  0.0000000E+00 -0.4128124E-03
 -0.4937066E-02  0.0000000E+00 -0.5050505E-02  0.6476536E-07  0.0000000E+00 -0.4127922E-03