title = "dataset feddes"
variables = "x", "y", "z", "vx", "vy", "vz"
zone t = "velocities, solution time =  3.900E+01 days        " i =   99, j =   99, k =    1,  f=point
 -0.5050505E-02  0.0000000E+00 -0.5050505E-02  0.2107222E-07  0.0000000E+00 -0.2028911E-03
 -0.5050505E-02  0.0000000E+00 -0.5050505E-02  0.6323721E-07  0.0000000E+00 -0.2028048E-03
 -0.5050505E-02  0.0000000E+00 -0.5050505E-02  0.1054644E-06  0.0000000E+00 -0.2026319E-03
 -0.5050505E-02  0.0000000E+00 -0.5050505E-02  0.1477960E-06  0.0000000E+00 -0.2023725E-03
 -0.5050505E-02  0.0000000E+00 -0.5050505E-02  0.1902753E-06  0.0000000E+00 -0.2020261E-03
 -0.5050505E-02  0.0000000E+00 -0.5050505E-02  0.2329465E-06  0.0000000E+00 -0.2015926E-03
 -0.5050504E-02  0.0000000E+00 -0.5050505E-02  0.2758555E-06  0.0000000E+00 -0.2010714E-03
 -0.5050501E-02  0.0000000E+00 -0.5050505E-02  0.3190496E-06  0.0000000E+00 -0.2004621E-03
 -0.5050495E-02  0.0000000E+00 -0.5050505E-02  0.3625782E-06  0.0000000E+00 -0.1997640E-03
 -0.5050482E-02  0.0000000E+00 -0.5050505E-02  0.4064933E-06  0.0000000E+00 -0.1989765E-03
 -0.5050449E-02  0.0000000E+00 -0.5050505E-02  0.4508496E-06  0.0000000E+00 -0.1980986E-03
 -0.5050376E-02  0.0000000E+00 -0.5050505E-02  0.4957053E-06  0.0000000E+00 -0.1971295E-03
 -0.5050299E-02  0.0000000E+00 -0.5050505E-02  0.5411223E-06  0.0000000E+00 -0.1960681E-03
 -0.5050178E-02  0.0000000E+00 -0.5050505E-02  0.5871670E-06  0.0000000E+00 -0.1949132E-03
 -0.5050018E-02  0.0000000E+00 -0.5050505E-02  0.6339112E-06  0.0000000E+00 -0.1936635E-03
 -0.5049710E-02  0.0000000E+00 -0.5050505E-02  0.6814322E-06  0.0000000E+00 -0.1923176E-03
 -0.5049253E-02  0.0000000E+00 -0.5050505E-02  0.7298142E-06  0.0000000E+00 -0.1908738E-03
 -0.5048636E-02  0.0000000E+00 -0.5050505E-02  0.7791491E-06  0.0000000E+00 -0.1893302E-03
 -0.5047442E-02  0.0000000E+00 -0.5050505E-02  0.8295377E-06  0.0000000E+00 -0.1876850E-03
 -0.5045727E-02  0.0000000E+00 -0.5050505E-02  0.8810906E-06  0.0000000E+00 -0.1859359E-03
 -0.5043261E-02  0.0000000E+00 -0.5050505E-02  0.9339297E-06  0.0000000E+00 -0.1840804E-03
 -0.5038714E-02  0.0000000E+00 -0.5050505E-02  0.9881901E-06  0.0000000E+00 -0.1821160E-03
 -0.5032318E-02  0.0000000E+00 -0.5050505E-02  0.1044021E-05  0.0000000E+00 -0.1800395E-03
 -0.5022454E-02  0.0000000E+00 -0.5050505E-02  0.1101589E-05  0.0000000E+00 -0.1778477E-03
 -0.5012589E-02  0.0000000E+00 -0.5050505E-02  0.1161079E-05  0.0000000E+00 -0.1755369E-03
 -0.5002725E-02  0.0000000E+00 -0.5050505E-02  0.1222697E-05  0.0000000E+00 -0.1731031E-03
 -0.4992860E-02  0.0000000E+00 -0.5050505E-02  0.1286672E-05  0.0000000E+00 -0.1705419E-03
 -0.4976523E-02  0.0000000E+00 -0.5050505E-02  0.1353264E-05  0.0000000E+00 -0.1678483E-03
 -0.4956794E-02  0.0000000E+00 -0.5050505E-02  0.1422759E-05  0.0000000E+00 -0.1650168E-03
 -0.4937066E-02  0.0000000E+00 -0.5050505E-02  0.1495480E-05  0.0000000E+00 -0.1620412E-03
 -0.4906239E-02  0.0000000E+00 -0.5050505E-02  0.1571788E-05  0.0000000E+00 -0.1589149E-03
 -0.4866782E-02  0.0000000E+00 -0.5050505E-02  0.1652088E-05  0.0000000E+00 -0.1556301E-03
 -0.4827325E-02  0.0000000E+00 -0.5050505E-02  0.1736835E-05  0.0000000E+00 -0.1521787E-03
 -0.4769372E-02  0.0000000E+00 -0.5050505E-02  0.1826538E-05  0.0000000E+00 -0.1485511E-03
 -0.4690458E-02  0.0000000E+00 -0.5050505E-02  0.1921768E-05  0.0000000E+00 -0.1447369E-03
 -0.4611543E-02  0.0000000E+00 -0.5050505E-02  0.2023167E-05  0.0000000E+00 -0.1407246E-03
 -0.4503035E-02  0.0000000E+00 -0.5050505E-02  0.2131455E-05  0.0000000E+00 -0.1365011E-03
 -0.4345206E-02  0.0000000E+00 -0.5050505E-02  0.2247440E-05  0.0000000E+00 -0.1320520E-03
 -0.4187378E-02  0.0000000E+00 -0.5050505E-02  0.2372033E-05  0.0000000E+00 -0.1273610E-03
 -0.3985156E-02  0.0000000E+00 -0.5050505E-02  0.2506260E-05  0.0000000E+00 -0.1224101E-03
 -0.3669499E-02  0.0000000E+00 -0.5050505E-02  0.2651279E-05  0.0000000E+00 -0.1171791E-03
 -0.3353842E-02  0.0000000E+00 -0.5050505E-02  0.2808411E-05  0.0000000E+00 -0.1116453E-03
 -0.2978990E-02  0.0000000E+00 -0.5050505E-02  0.2979166E-05  0.0000000E+00 -0.1057832E-03
 -0.2347676E-02  0.0000000E+00 -0.5050505E-02  0.3165293E-05  0.0000000E+00 -0.9956433E-04
 -0.1716362E-02  0.0000000E+00 -0.5050505E-02  0.3368851E-05  0.0000000E+00 -0.9295624E-04
 -0.1025842E-02  0.0000000E+00 -0.5050505E-02  0.3592312E-05  0.0000000E+00 -0.8592223E-04
  0.2367855E-03  0.0000000E+00 -0.5050505E-02  0.3838734E-05  0.0000000E+00 -0.7842019E-04
  0.1499413E-02  0.0000000E+00 -0.5050505E-02  0.4112025E-05  0.0000000E+00 -0.7040123E-04
  0.2762042E-02  0.0000000E+00 -0.5050505E-02  0.4417388E-05  0.0000000E+00 -0.6180757E-04
 -0.5050505E-02  0.0000000E+00 -0.5050505E-02  0.4762068E-05  0.0000000E+00 -0.5256931E-04
 -0.5050505E-02  0.0000000E+00 -0.5050505E-02  0.5156632E-05  0.0000000E+00 -0.4259916E-04
 -0.5050505E-02  0.0000000E+00 -0.5050505E-02  0.5617258E-05  0.0000000E+00 -0.3178366E-04
 -0.5050505E-02  0.0000000E+00 -0.5050505E-02  0.6169931E-05  0.0000000E+00 -0.1996804E-04
 -0.5050505E-02  0.0000000E+00 -0.5050505E-02  0.6858555E-05  0.0000000E+00 -0.6929060E-05
 -0.5050505E-02  0.0000000E+00 -0.5050505E-02  0.7761407E-05  0.0000000E+00  0.7713459E-05
 -0.5050505E-02  0.0000000E+00 -0.5050505E-02  0.9030953E-05  0.0000000E+00  0.2457189E-04
 -0.5050504E-02  0.0000000E+00 -0.5050505E-02  0.1097292E-04  0.0000000E+00  0.4469681E-04
 -0.5050501E-02  0.0000000E+00 -0.5050505E-02  0.1425278E-04  0.0000000E+00  0.7013942E-04
 -0.5050495E-02  0.0000000E+00 -0.5050505E-02  0.2039856E-04  0.0000000E+00  0.1052023E-03
 -0.5050482E-02  0.0000000E+00 -0.5050505E-02  0.3303802E-04  0.0000000E+00  0.1595210E-03
 -0.5050449E-02  0.0000000E+00 -0.5050505E-02 -0.3024078E-04  0.0000000E+00  0.1623486E-03
 -0.5050376E-02  0.0000000E+00 -0.5050505E-02 -0.1773965E-04  0.0000000E+00  0.1135279E-03
 -0.5050299E-02  0.0000000E+00 -0.5050505E-02 -0.1184405E-04  0.0000000E+00  0.8354438E-04
 -0.5050178E-02  0.0000000E+00 -0.5050505E-02 -0.8879303E-05  0.0000000E+00  0.6259745E-04
 -0.5050018E-02  0.0000000E+00 -0.5050505E-02 -0.7274127E-05  0.0000000E+00  0.4630334E-04
 -0.5049710E-02  0.0000000E+00 -0.5050505E-02 -0.6332527E-05  0.0000000E+00  0.3260164E-04
 -0.5049253E-02  0.0000000E+00 -0.5050505E-02 -0.5730503E-05  0.0000000E+00  0.2047259E-04
 -0.5048636E-02  0.0000000E+00 -0.5050505E-02 -0.5309602E-05  0.0000000E+00  0.9387229E-05
 -0.5047442E-02  0.0000000E+00 -0.5050505E-02 -0.4988898E-05  0.0000000E+00 -0.9338629E-06
 -0.5045727E-02  0.0000000E+00 -0.5050505E-02 -0.4724949E-05  0.0000000E+00 -0.1065558E-04
 -0.5043261E-02  0.0000000E+00 -0.5050505E-02 -0.4495481E-05  0.0000000E+00 -0.1988793E-04
 -0.5038714E-02  0.0000000E+00 -0.5050505E-02 -0.4287229E-05  0.0000000E+00 -0.2869194E-04
 -0.5032318E-02  0.0000000E+00 -0.5050505E-02 -0.4092448E-05  0.0000000E+00 -0.3710097E-04
 -0.5022454E-02  0.0000000E+00 -0.5050505E-02 -0.3906506E-05  0.0000000E+00 -0.4513616E-04
 -0.5012589E-02  0.0000000E+00 -0.5050505E-02 -0.3726585E-05  0.0000000E+00 -0.5281132E-04
 -0.5002725E-02  0.0000000E+00 -0.5050505E-02 -0.3550960E-05  0.0000000E+00 -0.6013578E-04
 -0.4992860E-02  0.0000000E+00 -0.5050505E-02 -0.3378589E-05  0.0000000E+00 -0.6711618E-04
 -0.4976523E-02  0.0000000E+00 -0.5050505E-02 -0.3208860E-05  0.0000000E+00 -0.7375755E-04
 -0.4956794E-02  0.0000000E+00 -0.5050505E-02 -0.3041440E-05  0.0000000E+00 -0.8006407E-04
 -0.4937066E-02  0.0000000E+00 -0.5050505E-02 -0.2876172E-05  0.0000000E+00 -0.8603943E-04
 -0.4906239E-02  0.0000000E+00 -0.5050505E-02 -0.2713015E-05  0.0000000E+00 -0.9168720E-04
 -0.4866782E-02  0.0000000E+00 -0.5050505E-02 -0.2551995E-05  0.0000000E+00 -0.9701101E-04
 -0.4827325E-02  0.0000000E+00 -0.5050505E-02 -0.2393181E-05  0.0000000E+00 -0.1020146E-03
 -0.4769372E-02  0.0000000E+00 -0.5050505E-02 -0.2236670E-05  0.0000000E+00 -0.1067019E-03
 -0.4690458E-02  0.0000000E+00 -0.5050505E-02 -0.2082582E-05  0.0000000E+00 -0.1110773E-03
 -0.4611543E-02  0.0000000E+00 -0.5050505E-02 -0.1931067E-05  0.0000000E+00 -0.1151451E-03
 -0.4503035E-02  0.0000000E+00 -0.5050505E-02 -0.1782332E-05  0.0000000E+00 -0.1189105E-03
 -0.4345206E-02  0.0000000E+00 -0.5050505E-02 -0.1636681E-05  0.0000000E+00 -0.1223790E-03
 -0.4187378E-02  0.0000000E+00 -0.5050505E-02 -0.1494610E-05  0.0000000E+00 -0.1255568E-03
 -0.3985156E-02  0.0000000E+00 -0.5050505E-02 -0.1356973E-05  0.0000000E+00 -0.1284519E-03
 -0.3669499E-02  0.0000000E+00 -0.5050505E-02 -0.1225334E-05  0.0000000E+00 -0.1310745E-03
 -0.3353842E-02  0.0000000E+00 -0.5050505E-02 -0.1102705E-05  0.0000000E+00 -0.1334396E-03
 -0.2978990E-02  0.0000000E+00 -0.5050505E-02 -0.9952780E-06  0.0000000E+00 -0.1355716E-03
 -0.2347676E-02  0.0000000E+00 -0.5050505E-02 -0.9167818E-06  0.0000000E+00 -0.1375152E-03
 -0.1716362E-02  0.0000000E+00 -0.5050505E-02 -0.9005320E-06  0.0000000E+00 -0.1393628E-03
 -0.1025842E-02  0.0000000E+00 -0.5050505E-02 -0.1036050E-05  0.0000000E+00 -0.1413322E-03
  0.2367855E-03  0.0000000E+00 -0.5050505E-02 -0.1591065E-05  0.0000000E+00 -0.1440045E-03
  0.1499413E-02  0.0000000E+00 -0.5050505E-02 -0.3453761E-05  0.0000000E+00 -0.1491379E-03
  0.5287294E-02  0.0000000E+00 -0.5050505E-02 -0.5292288E-04  0.0000000E+00 -0.1193051E-03
 -0.5050505E-02  0.0000000E+00 -0.5050505E-02  0.6321720E-07  0.0000000E+00 -0.2026629E-03
 -0.5050505E-02  0.0000000E+00 -0.5050505E-02  0.1897134E-06  0.0000000E+00 -0.2025763E-03
 -0.5050505E-02  0.0000000E+00 -0.5050505E-02  0.3163964E-06  0.0000000E+00 -0.2024030E-03
 -0.5050505E-02  0.0000000E+00 -0.5050505E-02  0.4433930E-06  0.0000000E+00 -0.2021430E-03
 -0.5050505E-02  0.0000000E+00 -0.5050505E-02  0.5708326E-06  0.0000000E+00 -0.2017958E-03
 -0.5050505E-02  0.0000000E+00 -0.5050505E-02  0.6988481E-06  0.0000000E+00 -0.2013612E-03
 -0.5050504E-02  0.0000000E+00 -0.5050505E-02  0.8275764E-06  0.0000000E+00 -0.2008388E-03
 -0.5050501E-02  0.0000000E+00 -0.5050505E-02  0.9571594E-06  0.0000000E+00 -0.2002281E-03
 -0.5050495E-02  0.0000000E+00 -0.5050505E-02  0.1087745E-05  0.0000000E+00 -0.1995284E-03
 -0.5050482E-02  0.0000000E+00 -0.5050505E-02  0.1219490E-05  0.0000000E+00 -0.1987389E-03
 -0.5050449E-02  0.0000000E+00 -0.5050505E-02  0.1352557E-05  0.0000000E+00 -0.1978590E-03
 -0.5050376E-02  0.0000000E+00 -0.5050505E-02  0.1487120E-05  0.0000000E+00 -0.1968877E-03
 -0.5050299E-02  0.0000000E+00 -0.5050505E-02  0.1623365E-05  0.0000000E+00 -0.1958238E-03
 -0.5050178E-02  0.0000000E+00 -0.5050505E-02  0.1761491E-05  0.0000000E+00 -0.1946663E-03
 -0.5050018E-02  0.0000000E+00 -0.5050505E-02  0.1901712E-05  0.0000000E+00 -0.1934138E-03
 -0.5049710E-02  0.0000000E+00 -0.5050505E-02  0.2044260E-05  0.0000000E+00 -0.1920649E-03
 -0.5049253E-02  0.0000000E+00 -0.5050505E-02  0.2189388E-05  0.0000000E+00 -0.1906179E-03
 -0.5048636E-02  0.0000000E+00 -0.5050505E-02  0.2337369E-05  0.0000000E+00 -0.1890710E-03
 -0.5047442E-02  0.0000000E+00 -0.5050505E-02  0.2488505E-05  0.0000000E+00 -0.1874223E-03
 -0.5045727E-02  0.0000000E+00 -0.5050505E-02  0.2643128E-05  0.0000000E+00 -0.1856695E-03
 -0.5043261E-02  0.0000000E+00 -0.5050505E-02  0.2801602E-05  0.0000000E+00 -0.1838102E-03
 -0.5038714E-02  0.0000000E+00 -0.5050505E-02  0.2964331E-05  0.0000000E+00 -0.1818417E-03
 -0.5032318E-02  0.0000000E+00 -0.5050505E-02  0.3131762E-05  0.0000000E+00 -0.1797611E-03
 -0.5022454E-02  0.0000000E+00 -0.5050505E-02  0.3304392E-05  0.0000000E+00 -0.1775651E-03
 -0.5012589E-02  0.0000000E+00 -0.5050505E-02  0.3482775E-05  0.0000000E+00 -0.1752500E-03
 -0.5002725E-02  0.0000000E+00 -0.5050505E-02  0.3667526E-05  0.0000000E+00 -0.1728119E-03
 -0.4992860E-02  0.0000000E+00 -0.5050505E-02  0.3859335E-05  0.0000000E+00 -0.1702462E-03
 -0.4976523E-02  0.0000000E+00 -0.5050505E-02  0.4058970E-05  0.0000000E+00 -0.1675482E-03
 -0.4956794E-02  0.0000000E+00 -0.5050505E-02  0.4267294E-05  0.0000000E+00 -0.1647122E-03
 -0.4937066E-02  0.0000000E+00 -0.5050505E-02  0.4485271E-05  0.0000000E+00 -0.1617323E-03
 -0.4906239E-02  0.0000000E+00 -0.5050505E-02  0.4713981E-05  0.0000000E+00 -0.1586016E-03
 -0.4866782E-02  0.0000000E+00 -0.5050505E-02  0.4954636E-05  0.0000000E+00 -0.1553128E-03
 -0.4827325E-02  0.0000000E+00 -0.5050505E-02  0.5208595E-05  0.0000000E+00 -0.1518573E-03
 -0.4769372E-02  0.0000000E+00 -0.5050505E-02  0.5477380E-05  0.0000000E+00 -0.1482260E-03
 -0.4690458E-02  0.0000000E+00 -0.5050505E-02  0.5762702E-05  0.0000000E+00 -0.1444085E-03
 -0.4611543E-02  0.0000000E+00 -0.5050505E-02  0.6066478E-05  0.0000000E+00 -0.1403932E-03
 -0.4503035E-02  0.0000000E+00 -0.5050505E-02  0.6390861E-05  0.0000000E+00 -0.1361673E-03
 -0.4345206E-02  0.0000000E+00 -0.5050505E-02  0.6738269E-05  0.0000000E+00 -0.1317163E-03
 -0.4187378E-02  0.0000000E+00 -0.5050505E-02  0.7111421E-05  0.0000000E+00 -0.1270243E-03
 -0.3985156E-02  0.0000000E+00 -0.5050505E-02  0.7513380E-05  0.0000000E+00 -0.1220732E-03
 -0.3669499E-02  0.0000000E+00 -0.5050505E-02  0.7947606E-05  0.0000000E+00 -0.1168430E-03
 -0.3353842E-02  0.0000000E+00 -0.5050505E-02  0.8418027E-05  0.0000000E+00 -0.1113114E-03
 -0.2978990E-02  0.0000000E+00 -0.5050505E-02  0.8929132E-05  0.0000000E+00 -0.1054531E-03
 -0.2347676E-02  0.0000000E+00 -0.5050505E-02  0.9486103E-05  0.0000000E+00 -0.9923997E-04
 -0.1716362E-02  0.0000000E+00 -0.5050505E-02  0.1009501E-04  0.0000000E+00 -0.9264029E-04
 -0.1025842E-02  0.0000000E+00 -0.5050505E-02  0.1076311E-04  0.0000000E+00 -0.8561818E-04
  0.2367855E-03  0.0000000E+00 -0.5050505E-02  0.1149930E-04  0.0000000E+00 -0.7813281E-04
  0.1499413E-02  0.0000000E+00 -0.5050505E-02  0.1231485E-04  0.0000000E+00 -0.7013732E-04
  0.2762042E-02  0.0000000E+00 -0.5050505E-02  0.1322462E-04  0.0000000E+00 -0.6157720E-04
 -0.5050505E-02  0.0000000E+00 -0.5050505E-02  0.1424902E-04  0.0000000E+00 -0.5238789E-04
 -0.5050505E-02  0.0000000E+00 -0.5050505E-02  0.1541741E-04  0.0000000E+00 -0.4249108E-04
 -0.5050505E-02  0.0000000E+00 -0.5050505E-02  0.1677404E-04  0.0000000E+00 -0.3178893E-04
 -0.5050505E-02  0.0000000E+00 -0.5050505E-02  0.1838860E-04  0.0000000E+00 -0.2015482E-04
 -0.5050505E-02  0.0000000E+00 -0.5050505E-02  0.2037604E-04  0.0000000E+00 -0.7418482E-05
 -0.5050505E-02  0.0000000E+00 -0.5050505E-02  0.2293521E-04  0.0000000E+00  0.6690542E-05
 -0.5050505E-02  0.0000000E+00 -0.5050505E-02  0.2643946E-04  0.0000000E+00  0.2255548E-04
 -0.5050504E-02  0.0000000E+00 -0.5050505E-02  0.3160670E-04  0.0000000E+00  0.4071141E-04
 -0.5050501E-02  0.0000000E+00 -0.5050505E-02  0.3994024E-04  0.0000000E+00  0.6198367E-04
 -0.5050495E-02  0.0000000E+00 -0.5050505E-02  0.5482264E-04  0.0000000E+00  0.8770692E-04
 -0.5050482E-02  0.0000000E+00 -0.5050505E-02  0.8450431E-04  0.0000000E+00  0.1205497E-03
 -0.5050449E-02  0.0000000E+00 -0.5050505E-02 -0.7593497E-04  0.0000000E+00  0.1235320E-03
 -0.5050376E-02  0.0000000E+00 -0.5050505E-02 -0.4671083E-04  0.0000000E+00  0.9646884E-04
 -0.5050299E-02  0.0000000E+00 -0.5050505E-02 -0.3263230E-04  0.0000000E+00  0.7603063E-04
 -0.5050178E-02  0.0000000E+00 -0.5050505E-02 -0.2529116E-04  0.0000000E+00  0.5936564E-04
 -0.5050018E-02  0.0000000E+00 -0.5050505E-02 -0.2116775E-04  0.0000000E+00  0.4507400E-04
 -0.5049710E-02  0.0000000E+00 -0.5050505E-02 -0.1866715E-04  0.0000000E+00  0.3234634E-04
 -0.5049253E-02  0.0000000E+00 -0.5050505E-02 -0.1702056E-04  0.0000000E+00  0.2070322E-04
 -0.5048636E-02  0.0000000E+00 -0.5050505E-02 -0.1583965E-04  0.0000000E+00  0.9860967E-05
 -0.5047442E-02  0.0000000E+00 -0.5050505E-02 -0.1492097E-04  0.0000000E+00 -0.3431560E-06
 -0.5045727E-02  0.0000000E+00 -0.5050505E-02 -0.1415270E-04  0.0000000E+00 -0.1001416E-04
 -0.5043261E-02  0.0000000E+00 -0.5050505E-02 -0.1347738E-04  0.0000000E+00 -0.1923101E-04
 -0.5038714E-02  0.0000000E+00 -0.5050505E-02 -0.1285994E-04  0.0000000E+00 -0.2803964E-04
 -0.5032318E-02  0.0000000E+00 -0.5050505E-02 -0.1227968E-04  0.0000000E+00 -0.3646442E-04
 -0.5022454E-02  0.0000000E+00 -0.5050505E-02 -0.1172404E-04  0.0000000E+00 -0.4452133E-04
 -0.5012589E-02  0.0000000E+00 -0.5050505E-02 -0.1118534E-04  0.0000000E+00 -0.5222113E-04
 -0.5002725E-02  0.0000000E+00 -0.5050505E-02 -0.1065884E-04  0.0000000E+00 -0.5957133E-04
 -0.4992860E-02  0.0000000E+00 -0.5050505E-02 -0.1014169E-04  0.0000000E+00 -0.6657740E-04
 -0.4976523E-02  0.0000000E+00 -0.5050505E-02 -0.9632202E-05  0.0000000E+00 -0.7324369E-04
 -0.4956794E-02  0.0000000E+00 -0.5050505E-02 -0.9129488E-05  0.0000000E+00 -0.7957390E-04
 -0.4937066E-02  0.0000000E+00 -0.5050505E-02 -0.8633148E-05  0.0000000E+00 -0.8557149E-04
 -0.4906239E-02  0.0000000E+00 -0.5050505E-02 -0.8143098E-05  0.0000000E+00 -0.9123988E-04
 -0.4866782E-02  0.0000000E+00 -0.5050505E-02 -0.7659445E-05  0.0000000E+00 -0.9658259E-04
 -0.4827325E-02  0.0000000E+00 -0.5050505E-02 -0.7182410E-05  0.0000000E+00 -0.1016034E-03
 -0.4769372E-02  0.0000000E+00 -0.5050505E-02 -0.6712287E-05  0.0000000E+00 -0.1063061E-03
 -0.4690458E-02  0.0000000E+00 -0.5050505E-02 -0.6249424E-05  0.0000000E+00 -0.1106951E-03
 -0.4611543E-02  0.0000000E+00 -0.5050505E-02 -0.5794252E-05  0.0000000E+00 -0.1147749E-03
 -0.4503035E-02  0.0000000E+00 -0.5050505E-02 -0.5347336E-05  0.0000000E+00 -0.1185502E-03
 -0.4345206E-02  0.0000000E+00 -0.5050505E-02 -0.4909503E-05  0.0000000E+00 -0.1220264E-03
 -0.4187378E-02  0.0000000E+00 -0.5050505E-02 -0.4482065E-05  0.0000000E+00 -0.1252093E-03
 -0.3985156E-02  0.0000000E+00 -0.5050505E-02 -0.4067239E-05  0.0000000E+00 -0.1281056E-03
 -0.3669499E-02  0.0000000E+00 -0.5050505E-02 -0.3668968E-05  0.0000000E+00 -0.1307236E-03
 -0.3353842E-02  0.0000000E+00 -0.5050505E-02 -0.3294572E-05  0.0000000E+00 -0.1330734E-03
 -0.2978990E-02  0.0000000E+00 -0.5050505E-02 -0.2958298E-05  0.0000000E+00 -0.1351688E-03
 -0.2347676E-02  0.0000000E+00 -0.5050505E-02 -0.2689393E-05  0.0000000E+00 -0.1370272E-03
 -0.1716362E-02  0.0000000E+00 -0.5050505E-02 -0.2551582E-05  0.0000000E+00 -0.1386649E-03
 -0.1025842E-02  0.0000000E+00 -0.5050505E-02 -0.2692905E-05  0.0000000E+00 -0.1400643E-03
  0.2367855E-03  0.0000000E+00 -0.5050505E-02 -0.3480044E-05  0.0000000E+00 -0.1410058E-03
  0.1499413E-02  0.0000000E+00 -0.5050505E-02 -0.5875626E-05  0.0000000E+00 -0.1402746E-03
  0.5287294E-02  0.0000000E+00 -0.5050505E-02 -0.1252383E-04  0.0000000E+00 -0.1319696E-03
 -0.5050505E-02  0.0000000E+00 -0.5050505E-02  0.1054119E-06  0.0000000E+00 -0.2022144E-03
 -0.5050505E-02  0.0000000E+00 -0.5050505E-02  0.3163390E-06  0.0000000E+00 -0.2021274E-03
 -0.5050505E-02  0.0000000E+00 -0.5050505E-02  0.5275777E-06  0.0000000E+00 -0.2019533E-03
 -0.5050505E-02  0.0000000E+00 -0.5050505E-02  0.7393394E-06  0.0000000E+00 -0.2016920E-03
 -0.5050505E-02  0.0000000E+00 -0.5050505E-02  0.9518394E-06  0.0000000E+00 -0.2013432E-03
 -0.5050505E-02  0.0000000E+00 -0.5050505E-02  0.1165299E-05  0.0000000E+00 -0.2009066E-03
 -0.5050504E-02  0.0000000E+00 -0.5050505E-02  0.1379945E-05  0.0000000E+00 -0.2003818E-03
 -0.5050501E-02  0.0000000E+00 -0.5050505E-02  0.1596014E-05  0.0000000E+00 -0.1997682E-03
 -0.5050495E-02  0.0000000E+00 -0.5050505E-02  0.1813753E-05  0.0000000E+00 -0.1990652E-03
 -0.5050482E-02  0.0000000E+00 -0.5050505E-02  0.2033420E-05  0.0000000E+00 -0.1982722E-03
 -0.5050449E-02  0.0000000E+00 -0.5050505E-02  0.2255287E-05  0.0000000E+00 -0.1973882E-03
 -0.5050376E-02  0.0000000E+00 -0.5050505E-02  0.2479643E-05  0.0000000E+00 -0.1964124E-03
 -0.5050299E-02  0.0000000E+00 -0.5050505E-02  0.2706797E-05  0.0000000E+00 -0.1953438E-03
 -0.5050178E-02  0.0000000E+00 -0.5050505E-02  0.2937079E-05  0.0000000E+00 -0.1941811E-03
 -0.5050018E-02  0.0000000E+00 -0.5050505E-02  0.3170844E-05  0.0000000E+00 -0.1929230E-03
 -0.5049710E-02  0.0000000E+00 -0.5050505E-02  0.3408477E-05  0.0000000E+00 -0.1915681E-03
 -0.5049253E-02  0.0000000E+00 -0.5050505E-02  0.3650397E-05  0.0000000E+00 -0.1901148E-03
 -0.5048636E-02  0.0000000E+00 -0.5050505E-02  0.3897060E-05  0.0000000E+00 -0.1885612E-03
 -0.5047442E-02  0.0000000E+00 -0.5050505E-02  0.4148965E-05  0.0000000E+00 -0.1869055E-03
 -0.5045727E-02  0.0000000E+00 -0.5050505E-02  0.4406662E-05  0.0000000E+00 -0.1851454E-03
 -0.5043261E-02  0.0000000E+00 -0.5050505E-02  0.4670755E-05  0.0000000E+00 -0.1832785E-03
 -0.5038714E-02  0.0000000E+00 -0.5050505E-02  0.4941913E-05  0.0000000E+00 -0.1813021E-03
 -0.5032318E-02  0.0000000E+00 -0.5050505E-02  0.5220878E-05  0.0000000E+00 -0.1792134E-03
 -0.5022454E-02  0.0000000E+00 -0.5050505E-02  0.5508473E-05  0.0000000E+00 -0.1770090E-03
 -0.5012589E-02  0.0000000E+00 -0.5050505E-02  0.5805616E-05  0.0000000E+00 -0.1746854E-03
 -0.5002725E-02  0.0000000E+00 -0.5050505E-02  0.6113328E-05  0.0000000E+00 -0.1722386E-03
 -0.4992860E-02  0.0000000E+00 -0.5050505E-02  0.6432749E-05  0.0000000E+00 -0.1696641E-03
 -0.4976523E-02  0.0000000E+00 -0.5050505E-02  0.6765156E-05  0.0000000E+00 -0.1669572E-03
 -0.4956794E-02  0.0000000E+00 -0.5050505E-02  0.7111976E-05  0.0000000E+00 -0.1641125E-03
 -0.4937066E-02  0.0000000E+00 -0.5050505E-02  0.7474807E-05  0.0000000E+00 -0.1611238E-03
 -0.4906239E-02  0.0000000E+00 -0.5050505E-02  0.7855439E-05  0.0000000E+00 -0.1579846E-03
 -0.4866782E-02  0.0000000E+00 -0.5050505E-02  0.8255881E-05  0.0000000E+00 -0.1546875E-03
 -0.4827325E-02  0.0000000E+00 -0.5050505E-02  0.8678383E-05  0.0000000E+00 -0.1512242E-03
 -0.4769372E-02  0.0000000E+00 -0.5050505E-02  0.9125471E-05  0.0000000E+00 -0.1475856E-03
 -0.4690458E-02  0.0000000E+00 -0.5050505E-02  0.9599976E-05  0.0000000E+00 -0.1437613E-03
 -0.4611543E-02  0.0000000E+00 -0.5050505E-02  0.1010508E-04  0.0000000E+00 -0.1397401E-03
 -0.4503035E-02  0.0000000E+00 -0.5050505E-02  0.1064434E-04  0.0000000E+00 -0.1355092E-03
 -0.4345206E-02  0.0000000E+00 -0.5050505E-02  0.1122176E-04  0.0000000E+00 -0.1310545E-03
 -0.4187378E-02  0.0000000E+00 -0.5050505E-02  0.1184184E-04  0.0000000E+00 -0.1263602E-03
 -0.3985156E-02  0.0000000E+00 -0.5050505E-02  0.1250965E-04  0.0000000E+00 -0.1214085E-03
 -0.3669499E-02  0.0000000E+00 -0.5050505E-02  0.1323088E-04  0.0000000E+00 -0.1161798E-03
 -0.3353842E-02  0.0000000E+00 -0.5050505E-02  0.1401199E-04  0.0000000E+00 -0.1106522E-03
 -0.2978990E-02  0.0000000E+00 -0.5050505E-02  0.1486033E-04  0.0000000E+00 -0.1048010E-03
 -0.2347676E-02  0.0000000E+00 -0.5050505E-02  0.1578433E-04  0.0000000E+00 -0.9859887E-04
 -0.1716362E-02  0.0000000E+00 -0.5050505E-02  0.1679379E-04  0.0000000E+00 -0.9201504E-04
 -0.1025842E-02  0.0000000E+00 -0.5050505E-02  0.1790030E-04  0.0000000E+00 -0.8501521E-04
  0.2367855E-03  0.0000000E+00 -0.5050505E-02  0.1911784E-04  0.0000000E+00 -0.7756086E-04
  0.1499413E-02  0.0000000E+00 -0.5050505E-02  0.2046383E-04  0.0000000E+00 -0.6960867E-04
  0.2762042E-02  0.0000000E+00 -0.5050505E-02  0.2196073E-04  0.0000000E+00 -0.6110973E-04
 -0.5050505E-02  0.0000000E+00 -0.5050505E-02  0.2363864E-04  0.0000000E+00 -0.5200853E-04
 -0.5050505E-02  0.0000000E+00 -0.5050505E-02  0.2553966E-04  0.0000000E+00 -0.4224171E-04
 -0.5050505E-02  0.0000000E+00 -0.5050505E-02  0.2772518E-04  0.0000000E+00 -0.3173663E-04
 -0.5050505E-02  0.0000000E+00 -0.5050505E-02  0.3028830E-04  0.0000000E+00 -0.2041034E-04
 -0.5050505E-02  0.0000000E+00 -0.5050505E-02  0.3337545E-04  0.0000000E+00 -0.8170706E-05
 -0.5050505E-02  0.0000000E+00 -0.5050505E-02  0.3722457E-04  0.0000000E+00  0.5100861E-05
 -0.5050505E-02  0.0000000E+00 -0.5050505E-02  0.4224645E-04  0.0000000E+00  0.1949290E-04
 -0.5050504E-02  0.0000000E+00 -0.5050505E-02  0.4914442E-04  0.0000000E+00  0.3491910E-04
 -0.5050501E-02  0.0000000E+00 -0.5050505E-02  0.5917778E-04  0.0000000E+00  0.5075617E-04
 -0.5050495E-02  0.0000000E+00 -0.5050505E-02  0.7463661E-04  0.0000000E+00  0.6454469E-04
 -0.5050482E-02  0.0000000E+00 -0.5050505E-02  0.9968915E-04  0.0000000E+00  0.6734908E-04
 -0.5050449E-02  0.0000000E+00 -0.5050505E-02 -0.8483619E-04  0.0000000E+00  0.7068482E-04
 -0.5050376E-02  0.0000000E+00 -0.5050505E-02 -0.6067925E-04  0.0000000E+00  0.7427994E-04
 -0.5050299E-02  0.0000000E+00 -0.5050505E-02 -0.4674099E-04  0.0000000E+00  0.6619442E-04
 -0.5050178E-02  0.0000000E+00 -0.5050505E-02 -0.3852081E-04  0.0000000E+00  0.5516912E-04
 -0.5050018E-02  0.0000000E+00 -0.5050505E-02 -0.3347192E-04  0.0000000E+00  0.4364739E-04
 -0.5049710E-02  0.0000000E+00 -0.5050505E-02 -0.3018450E-04  0.0000000E+00  0.3233015E-04
 -0.5049253E-02  0.0000000E+00 -0.5050505E-02 -0.2788536E-04  0.0000000E+00  0.2141237E-04
 -0.5048636E-02  0.0000000E+00 -0.5050505E-02 -0.2615045E-04  0.0000000E+00  0.1093692E-04
 -0.5047442E-02  0.0000000E+00 -0.5050505E-02 -0.2474512E-04  0.0000000E+00  0.9057792E-06
 -0.5045727E-02  0.0000000E+00 -0.5050505E-02 -0.2353383E-04  0.0000000E+00 -0.8696373E-05
 -0.5043261E-02  0.0000000E+00 -0.5050505E-02 -0.2244681E-04  0.0000000E+00 -0.1790029E-04
 -0.5038714E-02  0.0000000E+00 -0.5050505E-02 -0.2143932E-04  0.0000000E+00 -0.2672864E-04
 -0.5032318E-02  0.0000000E+00 -0.5050505E-02 -0.2048411E-04  0.0000000E+00 -0.3519124E-04
 -0.5022454E-02  0.0000000E+00 -0.5050505E-02 -0.1956428E-04  0.0000000E+00 -0.4329558E-04
 -0.5012589E-02  0.0000000E+00 -0.5050505E-02 -0.1866925E-04  0.0000000E+00 -0.5104730E-04
 -0.5002725E-02  0.0000000E+00 -0.5050505E-02 -0.1779245E-04  0.0000000E+00 -0.5845071E-04
 -0.4992860E-02  0.0000000E+00 -0.5050505E-02 -0.1692992E-04  0.0000000E+00 -0.6550936E-04
 -0.4976523E-02  0.0000000E+00 -0.5050505E-02 -0.1607937E-04  0.0000000E+00 -0.7222631E-04
 -0.4956794E-02  0.0000000E+00 -0.5050505E-02 -0.1523964E-04  0.0000000E+00 -0.7860452E-04
 -0.4937066E-02  0.0000000E+00 -0.5050505E-02 -0.1441026E-04  0.0000000E+00 -0.8464698E-04
 -0.4906239E-02  0.0000000E+00 -0.5050505E-02 -0.1359126E-04  0.0000000E+00 -0.9035687E-04
 -0.4866782E-02  0.0000000E+00 -0.5050505E-02 -0.1278287E-04  0.0000000E+00 -0.9573760E-04
 -0.4827325E-02  0.0000000E+00 -0.5050505E-02 -0.1198554E-04  0.0000000E+00 -0.1007929E-03
 -0.4769372E-02  0.0000000E+00 -0.5050505E-02 -0.1119973E-04  0.0000000E+00 -0.1055266E-03
 -0.4690458E-02  0.0000000E+00 -0.5050505E-02 -0.1042603E-04  0.0000000E+00 -0.1099431E-03
 -0.4611543E-02  0.0000000E+00 -0.5050505E-02 -0.9665055E-05  0.0000000E+00 -0.1140468E-03
 -0.4503035E-02  0.0000000E+00 -0.5050505E-02 -0.8917621E-05  0.0000000E+00 -0.1178423E-03
 -0.4345206E-02  0.0000000E+00 -0.5050505E-02 -0.8184839E-05  0.0000000E+00 -0.1213345E-03
 -0.4187378E-02  0.0000000E+00 -0.5050505E-02 -0.7468410E-05  0.0000000E+00 -0.1245285E-03
 -0.3985156E-02  0.0000000E+00 -0.5050505E-02 -0.6771095E-05  0.0000000E+00 -0.1274295E-03
 -0.3669499E-02  0.0000000E+00 -0.5050505E-02 -0.6097559E-05  0.0000000E+00 -0.1300427E-03
 -0.3353842E-02  0.0000000E+00 -0.5050505E-02 -0.5455892E-05  0.0000000E+00 -0.1323728E-03
 -0.2978990E-02  0.0000000E+00 -0.5050505E-02 -0.4860381E-05  0.0000000E+00 -0.1344220E-03
 -0.2347676E-02  0.0000000E+00 -0.5050505E-02 -0.4336471E-05  0.0000000E+00 -0.1361854E-03
 -0.1716362E-02  0.0000000E+00 -0.5050505E-02 -0.3928952E-05  0.0000000E+00 -0.1376358E-03
 -0.1025842E-02  0.0000000E+00 -0.5050505E-02 -0.3711571E-05  0.0000000E+00 -0.1386865E-03
  0.2367855E-03  0.0000000E+00 -0.5050505E-02 -0.3777355E-05  0.0000000E+00 -0.1391005E-03
  0.1499413E-02  0.0000000E+00 -0.5050505E-02 -0.4092760E-05  0.0000000E+00 -0.1383494E-03
  0.5287294E-02  0.0000000E+00 -0.5050505E-02 -0.3650815E-05  0.0000000E+00 -0.1358936E-03
 -0.5050505E-02  0.0000000E+00 -0.5050505E-02  0.1477524E-06  0.0000000E+00 -0.2015536E-03
 -0.5050505E-02  0.0000000E+00 -0.5050505E-02  0.4434019E-06  0.0000000E+00 -0.2014660E-03
 -0.5050505E-02  0.0000000E+00 -0.5050505E-02  0.7394880E-06  0.0000000E+00 -0.2012907E-03
 -0.5050505E-02  0.0000000E+00 -0.5050505E-02  0.1036306E-05  0.0000000E+00 -0.2010276E-03
 -0.5050505E-02  0.0000000E+00 -0.5050505E-02  0.1334157E-05  0.0000000E+00 -0.2006764E-03
 -0.5050505E-02  0.0000000E+00 -0.5050505E-02  0.1633350E-05  0.0000000E+00 -0.2002367E-03
 -0.5050504E-02  0.0000000E+00 -0.5050505E-02  0.1934203E-05  0.0000000E+00 -0.1997083E-03
 -0.5050501E-02  0.0000000E+00 -0.5050505E-02  0.2237046E-05  0.0000000E+00 -0.1990905E-03
 -0.5050495E-02  0.0000000E+00 -0.5050505E-02  0.2542221E-05  0.0000000E+00 -0.1983827E-03
 -0.5050482E-02  0.0000000E+00 -0.5050505E-02  0.2850091E-05  0.0000000E+00 -0.1975842E-03
 -0.5050449E-02  0.0000000E+00 -0.5050505E-02  0.3161034E-05  0.0000000E+00 -0.1966943E-03
 -0.5050376E-02  0.0000000E+00 -0.5050505E-02  0.3475454E-05  0.0000000E+00 -0.1957119E-03
 -0.5050299E-02  0.0000000E+00 -0.5050505E-02  0.3793780E-05  0.0000000E+00 -0.1946361E-03
 -0.5050178E-02  0.0000000E+00 -0.5050505E-02  0.4116472E-05  0.0000000E+00 -0.1934656E-03
 -0.5050018E-02  0.0000000E+00 -0.5050505E-02  0.4444026E-05  0.0000000E+00 -0.1921993E-03
 -0.5049710E-02  0.0000000E+00 -0.5050505E-02  0.4776977E-05  0.0000000E+00 -0.1908355E-03
 -0.5049253E-02  0.0000000E+00 -0.5050505E-02  0.5115908E-05  0.0000000E+00 -0.1893728E-03
 -0.5048636E-02  0.0000000E+00 -0.5050505E-02  0.5461452E-05  0.0000000E+00 -0.1878094E-03
 -0.5047442E-02  0.0000000E+00 -0.5050505E-02  0.5814304E-05  0.0000000E+00 -0.1861433E-03
 -0.5045727E-02  0.0000000E+00 -0.5050505E-02  0.6175228E-05  0.0000000E+00 -0.1843723E-03
 -0.5043261E-02  0.0000000E+00 -0.5050505E-02  0.6545064E-05  0.0000000E+00 -0.1824940E-03
 -0.5038714E-02  0.0000000E+00 -0.5050505E-02  0.6924742E-05  0.0000000E+00 -0.1805059E-03
 -0.5032318E-02  0.0000000E+00 -0.5050505E-02  0.7315292E-05  0.0000000E+00 -0.1784051E-03
 -0.5022454E-02  0.0000000E+00 -0.5050505E-02  0.7717858E-05  0.0000000E+00 -0.1761882E-03
 -0.5012589E-02  0.0000000E+00 -0.5050505E-02  0.8133712E-05  0.0000000E+00 -0.1738519E-03
 -0.5002725E-02  0.0000000E+00 -0.5050505E-02  0.8564275E-05  0.0000000E+00 -0.1713921E-03
 -0.4992860E-02  0.0000000E+00 -0.5050505E-02  0.9011130E-05  0.0000000E+00 -0.1688046E-03
 -0.4976523E-02  0.0000000E+00 -0.5050505E-02  0.9476048E-05  0.0000000E+00 -0.1660845E-03
 -0.4956794E-02  0.0000000E+00 -0.5050505E-02  0.9961011E-05  0.0000000E+00 -0.1632266E-03
 -0.4937066E-02  0.0000000E+00 -0.5050505E-02  0.1046824E-04  0.0000000E+00 -0.1602249E-03