title = "dataset feddes"
variables = "x", "y", "z", "vx", "vy", "vz"
zone t = "velocities, solution time =  4.400E+01 days        " i =   99, j =   99, k =    1,  f=point
 -0.5050505E-02  0.0000000E+00 -0.5050505E-02  0.3763775E-07  0.0000000E+00 -0.1302047E-03
 -0.5050505E-02  0.0000000E+00 -0.5050505E-02  0.1129664E-06  0.0000000E+00 -0.1300517E-03
 -0.5050505E-02  0.0000000E+00 -0.5050505E-02  0.1884562E-06  0.0000000E+00 -0.1297456E-03
 -0.5050505E-02  0.0000000E+00 -0.5050505E-02  0.2642176E-06  0.0000000E+00 -0.1292858E-03
 -0.5050505E-02  0.0000000E+00 -0.5050505E-02  0.3403640E-06  0.0000000E+00 -0.1286718E-03
 -0.5050505E-02  0.0000000E+00 -0.5050505E-02  0.4170131E-06  0.0000000E+00 -0.1279026E-03
 -0.5050504E-02  0.0000000E+00 -0.5050505E-02  0.4942875E-06  0.0000000E+00 -0.1269772E-03
 -0.5050501E-02  0.0000000E+00 -0.5050505E-02  0.5723158E-06  0.0000000E+00 -0.1258943E-03
 -0.5050495E-02  0.0000000E+00 -0.5050505E-02  0.6512344E-06  0.0000000E+00 -0.1246522E-03
 -0.5050482E-02  0.0000000E+00 -0.5050505E-02  0.7311883E-06  0.0000000E+00 -0.1232491E-03
 -0.5050449E-02  0.0000000E+00 -0.5050505E-02  0.8123331E-06  0.0000000E+00 -0.1216827E-03
 -0.5050376E-02  0.0000000E+00 -0.5050505E-02  0.8948369E-06  0.0000000E+00 -0.1199507E-03
 -0.5050299E-02  0.0000000E+00 -0.5050505E-02  0.9788817E-06  0.0000000E+00 -0.1180500E-03
 -0.5050178E-02  0.0000000E+00 -0.5050505E-02  0.1064667E-05  0.0000000E+00 -0.1159777E-03
 -0.5050018E-02  0.0000000E+00 -0.5050505E-02  0.1152409E-05  0.0000000E+00 -0.1137299E-03
 -0.5049710E-02  0.0000000E+00 -0.5050505E-02  0.1242351E-05  0.0000000E+00 -0.1113027E-03
 -0.5049253E-02  0.0000000E+00 -0.5050505E-02  0.1334756E-05  0.0000000E+00 -0.1086915E-03
 -0.5048636E-02  0.0000000E+00 -0.5050505E-02  0.1429921E-05  0.0000000E+00 -0.1058912E-03
 -0.5047442E-02  0.0000000E+00 -0.5050505E-02  0.1528175E-05  0.0000000E+00 -0.1028961E-03
 -0.5045727E-02  0.0000000E+00 -0.5050505E-02  0.1629887E-05  0.0000000E+00 -0.9969965E-04
 -0.5043261E-02  0.0000000E+00 -0.5050505E-02  0.1735470E-05  0.0000000E+00 -0.9629482E-04
 -0.5038714E-02  0.0000000E+00 -0.5050505E-02  0.1845391E-05  0.0000000E+00 -0.9267353E-04
 -0.5032318E-02  0.0000000E+00 -0.5050505E-02  0.1960175E-05  0.0000000E+00 -0.8882677E-04
 -0.5022454E-02  0.0000000E+00 -0.5050505E-02  0.2080417E-05  0.0000000E+00 -0.8474445E-04
 -0.5012589E-02  0.0000000E+00 -0.5050505E-02  0.2206792E-05  0.0000000E+00 -0.8041520E-04
 -0.5002725E-02  0.0000000E+00 -0.5050505E-02  0.2340065E-05  0.0000000E+00 -0.7582630E-04
 -0.4992860E-02  0.0000000E+00 -0.5050505E-02  0.2481110E-05  0.0000000E+00 -0.7096339E-04
 -0.4976523E-02  0.0000000E+00 -0.5050505E-02  0.2630921E-05  0.0000000E+00 -0.6581031E-04
 -0.4956794E-02  0.0000000E+00 -0.5050505E-02  0.2790633E-05  0.0000000E+00 -0.6034883E-04
 -0.4937066E-02  0.0000000E+00 -0.5050505E-02  0.2961543E-05  0.0000000E+00 -0.5455834E-04
 -0.4906239E-02  0.0000000E+00 -0.5050505E-02  0.3145135E-05  0.0000000E+00 -0.4841557E-04
 -0.4866782E-02  0.0000000E+00 -0.5050505E-02  0.3343107E-05  0.0000000E+00 -0.4189414E-04
 -0.4827325E-02  0.0000000E+00 -0.5050505E-02  0.3557403E-05  0.0000000E+00 -0.3496418E-04
 -0.4769372E-02  0.0000000E+00 -0.5050505E-02  0.3790250E-05  0.0000000E+00 -0.2759180E-04
 -0.4690458E-02  0.0000000E+00 -0.5050505E-02  0.4044193E-05  0.0000000E+00 -0.1973852E-04
 -0.4611543E-02  0.0000000E+00 -0.5050505E-02  0.4322144E-05  0.0000000E+00 -0.1136067E-04
 -0.4503035E-02  0.0000000E+00 -0.5050505E-02  0.4627423E-05  0.0000000E+00 -0.2405093E-05
 -0.4345206E-02  0.0000000E+00 -0.5050505E-02  0.4963728E-05  0.0000000E+00  0.7204193E-05
 -0.4187378E-02  0.0000000E+00 -0.5050505E-02  0.5335485E-05  0.0000000E+00  0.1754283E-04
 -0.3985156E-02  0.0000000E+00 -0.5050505E-02  0.5747644E-05  0.0000000E+00  0.2868250E-04
 -0.3669499E-02  0.0000000E+00 -0.5050505E-02  0.6205789E-05  0.0000000E+00  0.4071334E-04
 -0.3353842E-02  0.0000000E+00 -0.5050505E-02  0.6716175E-05  0.0000000E+00  0.5373817E-04
 -0.2978990E-02  0.0000000E+00 -0.5050505E-02  0.7285762E-05  0.0000000E+00  0.6787411E-04
 -0.2347676E-02  0.0000000E+00 -0.5050505E-02  0.7922245E-05  0.0000000E+00  0.8325426E-04
 -0.1716362E-02  0.0000000E+00 -0.5050505E-02  0.8634110E-05  0.0000000E+00  0.1000296E-03
 -0.1025842E-02  0.0000000E+00 -0.5050505E-02  0.9430789E-05  0.0000000E+00  0.1183710E-03
  0.2367855E-03  0.0000000E+00 -0.5050505E-02  0.1032305E-04  0.0000000E+00  0.1384722E-03
  0.1499413E-02  0.0000000E+00 -0.5050505E-02  0.1132386E-04  0.0000000E+00  0.1605539E-03
  0.2762042E-02  0.0000000E+00 -0.5050505E-02  0.1245027E-04  0.0000000E+00  0.1848711E-03
 -0.5050505E-02  0.0000000E+00 -0.5050505E-02  0.1372688E-04  0.0000000E+00  0.2117257E-03
 -0.5050505E-02  0.0000000E+00 -0.5050505E-02  0.1519238E-04  0.0000000E+00  0.2414906E-03
 -0.5050505E-02  0.0000000E+00 -0.5050505E-02  0.1691077E-04  0.0000000E+00  0.2746526E-03
 -0.5050505E-02  0.0000000E+00 -0.5050505E-02  0.1899180E-04  0.0000000E+00  0.3118895E-03
 -0.5050505E-02  0.0000000E+00 -0.5050505E-02  0.2163062E-04  0.0000000E+00  0.3542133E-03
 -0.5050505E-02  0.0000000E+00 -0.5050505E-02  0.2519660E-04  0.0000000E+00  0.4032546E-03
 -0.5050505E-02  0.0000000E+00 -0.5050505E-02  0.3046430E-04  0.0000000E+00  0.4618985E-03
 -0.5050504E-02  0.0000000E+00 -0.5050505E-02  0.3930663E-04  0.0000000E+00  0.5359433E-03
 -0.5050501E-02  0.0000000E+00 -0.5050505E-02  0.5706712E-04  0.0000000E+00  0.6391786E-03
 -0.5050495E-02  0.0000000E+00 -0.5050505E-02  0.7482918E-04  0.0000000E+00  0.7822308E-03
 -0.5050482E-02  0.0000000E+00 -0.5050505E-02  0.7550704E-04  0.0000000E+00  0.9479279E-03
 -0.5050449E-02  0.0000000E+00 -0.5050505E-02 -0.7648805E-04  0.0000000E+00  0.9468578E-03
 -0.5050376E-02  0.0000000E+00 -0.5050505E-02 -0.7071522E-04  0.0000000E+00  0.7845190E-03
 -0.5050299E-02  0.0000000E+00 -0.5050505E-02 -0.4426717E-04  0.0000000E+00  0.6594694E-03
 -0.5050178E-02  0.0000000E+00 -0.5050505E-02 -0.3224958E-04  0.0000000E+00  0.5771226E-03
 -0.5050018E-02  0.0000000E+00 -0.5050505E-02 -0.2600942E-04  0.0000000E+00  0.5149086E-03
 -0.5049710E-02  0.0000000E+00 -0.5050505E-02 -0.2228869E-04  0.0000000E+00  0.4636552E-03
 -0.5049253E-02  0.0000000E+00 -0.5050505E-02 -0.1964211E-04  0.0000000E+00  0.4193976E-03
 -0.5048636E-02  0.0000000E+00 -0.5050505E-02 -0.1755298E-04  0.0000000E+00  0.3803243E-03
 -0.5047442E-02  0.0000000E+00 -0.5050505E-02 -0.1582902E-04  0.0000000E+00  0.3454048E-03
 -0.5045727E-02  0.0000000E+00 -0.5050505E-02 -0.1437531E-04  0.0000000E+00  0.3139298E-03
 -0.5043261E-02  0.0000000E+00 -0.5050505E-02 -0.1313167E-04  0.0000000E+00  0.2853649E-03
 -0.5038714E-02  0.0000000E+00 -0.5050505E-02 -0.1205530E-04  0.0000000E+00  0.2592920E-03
 -0.5032318E-02  0.0000000E+00 -0.5050505E-02 -0.1111376E-04  0.0000000E+00  0.2353776E-03
 -0.5022454E-02  0.0000000E+00 -0.5050505E-02 -0.1028136E-04  0.0000000E+00  0.2133532E-03
 -0.5012589E-02  0.0000000E+00 -0.5050505E-02 -0.9537290E-05  0.0000000E+00  0.1930022E-03
 -0.5002725E-02  0.0000000E+00 -0.5050505E-02 -0.8864637E-05  0.0000000E+00  0.1741494E-03
 -0.4992860E-02  0.0000000E+00 -0.5050505E-02 -0.8249852E-05  0.0000000E+00  0.1566528E-03
 -0.4976523E-02  0.0000000E+00 -0.5050505E-02 -0.7682255E-05  0.0000000E+00  0.1403973E-03
 -0.4956794E-02  0.0000000E+00 -0.5050505E-02 -0.7153561E-05  0.0000000E+00  0.1252881E-03
 -0.4937066E-02  0.0000000E+00 -0.5050505E-02 -0.6657417E-05  0.0000000E+00  0.1112468E-03
 -0.4906239E-02  0.0000000E+00 -0.5050505E-02 -0.6188965E-05  0.0000000E+00  0.9820697E-04
 -0.4866782E-02  0.0000000E+00 -0.5050505E-02 -0.5744471E-05  0.0000000E+00  0.8611169E-04
 -0.4827325E-02  0.0000000E+00 -0.5050505E-02 -0.5321023E-05  0.0000000E+00  0.7491146E-04
 -0.4769372E-02  0.0000000E+00 -0.5050505E-02 -0.4916298E-05  0.0000000E+00  0.6456259E-04
 -0.4690458E-02  0.0000000E+00 -0.5050505E-02 -0.4528385E-05  0.0000000E+00  0.5502612E-04
 -0.4611543E-02  0.0000000E+00 -0.5050505E-02 -0.4155666E-05  0.0000000E+00  0.4626706E-04
 -0.4503035E-02  0.0000000E+00 -0.5050505E-02 -0.3796722E-05  0.0000000E+00  0.3825385E-04
 -0.4345206E-02  0.0000000E+00 -0.5050505E-02 -0.3450283E-05  0.0000000E+00  0.3095794E-04
 -0.4187378E-02  0.0000000E+00 -0.5050505E-02 -0.3115188E-05  0.0000000E+00  0.2435351E-04
 -0.3985156E-02  0.0000000E+00 -0.5050505E-02 -0.2790372E-05  0.0000000E+00  0.1841722E-04
 -0.3669499E-02  0.0000000E+00 -0.5050505E-02 -0.2474867E-05  0.0000000E+00  0.1312801E-04
 -0.3353842E-02  0.0000000E+00 -0.5050505E-02 -0.2167841E-05  0.0000000E+00  0.8466827E-05
 -0.2978990E-02  0.0000000E+00 -0.5050505E-02 -0.1868695E-05  0.0000000E+00  0.4416242E-05
 -0.2347676E-02  0.0000000E+00 -0.5050505E-02 -0.1577315E-05  0.0000000E+00  0.9605868E-06
 -0.1716362E-02  0.0000000E+00 -0.5050505E-02 -0.1294563E-05  0.0000000E+00 -0.1914994E-05
 -0.1025842E-02  0.0000000E+00 -0.5050505E-02 -0.1024929E-05  0.0000000E+00 -0.4234988E-05
  0.2367855E-03  0.0000000E+00 -0.5050505E-02 -0.7827745E-06  0.0000000E+00 -0.6043601E-05
  0.1499413E-02  0.0000000E+00 -0.5050505E-02 -0.6167151E-06  0.0000000E+00 -0.7444113E-05
  0.5287294E-02  0.0000000E+00 -0.5050505E-02 -0.3123217E-05  0.0000000E+00 -0.6348249E-05
 -0.5050505E-02  0.0000000E+00 -0.5050505E-02  0.1128420E-06  0.0000000E+00 -0.1299994E-03
 -0.5050505E-02  0.0000000E+00 -0.5050505E-02  0.3386858E-06  0.0000000E+00 -0.1298463E-03
 -0.5050505E-02  0.0000000E+00 -0.5050505E-02  0.5650134E-06  0.0000000E+00 -0.1295399E-03
 -0.5050505E-02  0.0000000E+00 -0.5050505E-02  0.7921555E-06  0.0000000E+00 -0.1290798E-03
 -0.5050505E-02  0.0000000E+00 -0.5050505E-02  0.1020452E-05  0.0000000E+00 -0.1284653E-03
 -0.5050505E-02  0.0000000E+00 -0.5050505E-02  0.1250255E-05  0.0000000E+00 -0.1276956E-03
 -0.5050504E-02  0.0000000E+00 -0.5050505E-02  0.1481930E-05  0.0000000E+00 -0.1267696E-03
 -0.5050501E-02  0.0000000E+00 -0.5050505E-02  0.1715864E-05  0.0000000E+00 -0.1256859E-03
 -0.5050495E-02  0.0000000E+00 -0.5050505E-02  0.1952464E-05  0.0000000E+00 -0.1244430E-03
 -0.5050482E-02  0.0000000E+00 -0.5050505E-02  0.2192163E-05  0.0000000E+00 -0.1230390E-03
 -0.5050449E-02  0.0000000E+00 -0.5050505E-02  0.2435428E-05  0.0000000E+00 -0.1214717E-03
 -0.5050376E-02  0.0000000E+00 -0.5050505E-02  0.2682760E-05  0.0000000E+00 -0.1197386E-03
 -0.5050299E-02  0.0000000E+00 -0.5050505E-02  0.2934705E-05  0.0000000E+00 -0.1178370E-03
 -0.5050178E-02  0.0000000E+00 -0.5050505E-02  0.3191857E-05  0.0000000E+00 -0.1157636E-03
 -0.5050018E-02  0.0000000E+00 -0.5050505E-02  0.3454867E-05  0.0000000E+00 -0.1135149E-03
 -0.5049710E-02  0.0000000E+00 -0.5050505E-02  0.3724455E-05  0.0000000E+00 -0.1110867E-03
 -0.5049253E-02  0.0000000E+00 -0.5050505E-02  0.4001415E-05  0.0000000E+00 -0.1084747E-03
 -0.5048636E-02  0.0000000E+00 -0.5050505E-02  0.4286631E-05  0.0000000E+00 -0.1056737E-03
 -0.5047442E-02  0.0000000E+00 -0.5050505E-02  0.4581086E-05  0.0000000E+00 -0.1026779E-03
 -0.5045727E-02  0.0000000E+00 -0.5050505E-02  0.4885882E-05  0.0000000E+00 -0.9948120E-04
 -0.5043261E-02  0.0000000E+00 -0.5050505E-02  0.5202256E-05  0.0000000E+00 -0.9607631E-04
 -0.5038714E-02  0.0000000E+00 -0.5050505E-02  0.5531599E-05  0.0000000E+00 -0.9245531E-04
 -0.5032318E-02  0.0000000E+00 -0.5050505E-02  0.5875483E-05  0.0000000E+00 -0.8860927E-04
 -0.5022454E-02  0.0000000E+00 -0.5050505E-02  0.6235685E-05  0.0000000E+00 -0.8452819E-04
 -0.5012589E-02  0.0000000E+00 -0.5050505E-02  0.6614219E-05  0.0000000E+00 -0.8020084E-04
 -0.5002725E-02  0.0000000E+00 -0.5050505E-02  0.7013375E-05  0.0000000E+00 -0.7561460E-04
 -0.4992860E-02  0.0000000E+00 -0.5050505E-02  0.7435757E-05  0.0000000E+00 -0.7075526E-04
 -0.4976523E-02  0.0000000E+00 -0.5050505E-02  0.7884338E-05  0.0000000E+00 -0.6560685E-04
 -0.4956794E-02  0.0000000E+00 -0.5050505E-02  0.8362506E-05  0.0000000E+00 -0.6015133E-04
 -0.4937066E-02  0.0000000E+00 -0.5050505E-02  0.8874138E-05  0.0000000E+00 -0.5436834E-04
 -0.4906239E-02  0.0000000E+00 -0.5050505E-02  0.9423666E-05  0.0000000E+00 -0.4823487E-04
 -0.4866782E-02  0.0000000E+00 -0.5050505E-02  0.1001616E-04  0.0000000E+00 -0.4172485E-04
 -0.4827325E-02  0.0000000E+00 -0.5050505E-02  0.1065744E-04  0.0000000E+00 -0.3480877E-04
 -0.4769372E-02  0.0000000E+00 -0.5050505E-02  0.1135416E-04  0.0000000E+00 -0.2745314E-04
 -0.4690458E-02  0.0000000E+00 -0.5050505E-02  0.1211392E-04  0.0000000E+00 -0.1961997E-04
 -0.4611543E-02  0.0000000E+00 -0.5050505E-02  0.1294543E-04  0.0000000E+00 -0.1126610E-04
 -0.4503035E-02  0.0000000E+00 -0.5050505E-02  0.1385865E-04  0.0000000E+00 -0.2338880E-05
 -0.4345206E-02  0.0000000E+00 -0.5050505E-02  0.1486462E-04  0.0000000E+00  0.7236873E-05
 -0.4187378E-02  0.0000000E+00 -0.5050505E-02  0.1597660E-04  0.0000000E+00  0.1753590E-04
 -0.3985156E-02  0.0000000E+00 -0.5050505E-02  0.1720944E-04  0.0000000E+00  0.2862914E-04
 -0.3669499E-02  0.0000000E+00 -0.5050505E-02  0.1857988E-04  0.0000000E+00  0.4060585E-04
 -0.3353842E-02  0.0000000E+00 -0.5050505E-02  0.2010672E-04  0.0000000E+00  0.5356800E-04
 -0.2978990E-02  0.0000000E+00 -0.5050505E-02  0.2181086E-04  0.0000000E+00  0.6763178E-04
 -0.2347676E-02  0.0000000E+00 -0.5050505E-02  0.2371536E-04  0.0000000E+00  0.8292933E-04
 -0.1716362E-02  0.0000000E+00 -0.5050505E-02  0.2584562E-04  0.0000000E+00  0.9961044E-04
 -0.1025842E-02  0.0000000E+00 -0.5050505E-02  0.2822959E-04  0.0000000E+00  0.1178444E-03
  0.2367855E-03  0.0000000E+00 -0.5050505E-02  0.3089877E-04  0.0000000E+00  0.1378218E-03
  0.1499413E-02  0.0000000E+00 -0.5050505E-02  0.3389036E-04  0.0000000E+00  0.1597578E-03
  0.2762042E-02  0.0000000E+00 -0.5050505E-02  0.3725213E-04  0.0000000E+00  0.1838961E-03
 -0.5050505E-02  0.0000000E+00 -0.5050505E-02  0.4105189E-04  0.0000000E+00  0.2105175E-03
 -0.5050505E-02  0.0000000E+00 -0.5050505E-02  0.4539500E-04  0.0000000E+00  0.2399560E-03
 -0.5050505E-02  0.0000000E+00 -0.5050505E-02  0.5045464E-04  0.0000000E+00  0.2726277E-03
 -0.5050505E-02  0.0000000E+00 -0.5050505E-02  0.5652338E-04  0.0000000E+00  0.3090800E-03
 -0.5050505E-02  0.0000000E+00 -0.5050505E-02  0.6410481E-04  0.0000000E+00  0.3500664E-03
 -0.5050505E-02  0.0000000E+00 -0.5050505E-02  0.7409396E-04  0.0000000E+00  0.3966392E-03
 -0.5050505E-02  0.0000000E+00 -0.5050505E-02  0.8817553E-04  0.0000000E+00  0.4501823E-03
 -0.5050504E-02  0.0000000E+00 -0.5050505E-02  0.1097876E-03  0.0000000E+00  0.5119285E-03
 -0.5050501E-02  0.0000000E+00 -0.5050505E-02  0.1467072E-03  0.0000000E+00  0.5797077E-03
 -0.5050495E-02  0.0000000E+00 -0.5050505E-02  0.1921811E-03  0.0000000E+00  0.6600351E-03
 -0.5050482E-02  0.0000000E+00 -0.5050505E-02  0.2241447E-03  0.0000000E+00  0.7847894E-03
 -0.5050449E-02  0.0000000E+00 -0.5050505E-02 -0.2162774E-03  0.0000000E+00  0.7951984E-03
 -0.5050376E-02  0.0000000E+00 -0.5050505E-02 -0.1733763E-03  0.0000000E+00  0.6918826E-03
 -0.5050299E-02  0.0000000E+00 -0.5050505E-02 -0.1196607E-03  0.0000000E+00  0.6238518E-03
 -0.5050178E-02  0.0000000E+00 -0.5050505E-02 -0.9148125E-04  0.0000000E+00  0.5615291E-03
 -0.5050018E-02  0.0000000E+00 -0.5050505E-02 -0.7575069E-04  0.0000000E+00  0.5074455E-03
 -0.5049710E-02  0.0000000E+00 -0.5050505E-02 -0.6592675E-04  0.0000000E+00  0.4596311E-03
 -0.5049253E-02  0.0000000E+00 -0.5050505E-02 -0.5846352E-04  0.0000000E+00  0.4168602E-03
 -0.5048636E-02  0.0000000E+00 -0.5050505E-02 -0.5236966E-04  0.0000000E+00  0.3785739E-03
 -0.5047442E-02  0.0000000E+00 -0.5050505E-02 -0.4728074E-04  0.0000000E+00  0.3441638E-03
 -0.5045727E-02  0.0000000E+00 -0.5050505E-02 -0.4297067E-04  0.0000000E+00  0.3130528E-03
 -0.5043261E-02  0.0000000E+00 -0.5050505E-02 -0.3927517E-04  0.0000000E+00  0.2847581E-03
 -0.5038714E-02  0.0000000E+00 -0.5050505E-02 -0.3607229E-04  0.0000000E+00  0.2588890E-03
 -0.5032318E-02  0.0000000E+00 -0.5050505E-02 -0.3326809E-04  0.0000000E+00  0.2351286E-03
 -0.5022454E-02  0.0000000E+00 -0.5050505E-02 -0.3078721E-04  0.0000000E+00  0.2132193E-03
 -0.5012589E-02  0.0000000E+00 -0.5050505E-02 -0.2856801E-04  0.0000000E+00  0.1929524E-03
 -0.5002725E-02  0.0000000E+00 -0.5050505E-02 -0.2656023E-04  0.0000000E+00  0.1741594E-03
 -0.4992860E-02  0.0000000E+00 -0.5050505E-02 -0.2472361E-04  0.0000000E+00  0.1567042E-03
 -0.4976523E-02  0.0000000E+00 -0.5050505E-02 -0.2302652E-04  0.0000000E+00  0.1404762E-03
 -0.4956794E-02  0.0000000E+00 -0.5050505E-02 -0.2144450E-04  0.0000000E+00  0.1253848E-03
 -0.4937066E-02  0.0000000E+00 -0.5050505E-02 -0.1995888E-04  0.0000000E+00  0.1113542E-03
 -0.4906239E-02  0.0000000E+00 -0.5050505E-02 -0.1855542E-04  0.0000000E+00  0.9832061E-04
 -0.4866782E-02  0.0000000E+00 -0.5050505E-02 -0.1722321E-04  0.0000000E+00  0.8622869E-04
 -0.4827325E-02  0.0000000E+00 -0.5050505E-02 -0.1595371E-04  0.0000000E+00  0.7503009E-04
 -0.4769372E-02  0.0000000E+00 -0.5050505E-02 -0.1474011E-04  0.0000000E+00  0.6468191E-04
 -0.4690458E-02  0.0000000E+00 -0.5050505E-02 -0.1357679E-04  0.0000000E+00  0.5514568E-04
 -0.4611543E-02  0.0000000E+00 -0.5050505E-02 -0.1245898E-04  0.0000000E+00  0.4638675E-04
 -0.4503035E-02  0.0000000E+00 -0.5050505E-02 -0.1138246E-04  0.0000000E+00  0.3837372E-04
 -0.4345206E-02  0.0000000E+00 -0.5050505E-02 -0.1034345E-04  0.0000000E+00  0.3107816E-04
 -0.4187378E-02  0.0000000E+00 -0.5050505E-02 -0.9338468E-05  0.0000000E+00  0.2447433E-04
 -0.3985156E-02  0.0000000E+00 -0.5050505E-02 -0.8364306E-05  0.0000000E+00  0.1853899E-04
 -0.3669499E-02  0.0000000E+00 -0.5050505E-02 -0.7418011E-05  0.0000000E+00  0.1325122E-04
 -0.3353842E-02  0.0000000E+00 -0.5050505E-02 -0.6496963E-05  0.0000000E+00  0.8592295E-05
 -0.2978990E-02  0.0000000E+00 -0.5050505E-02 -0.5599079E-05  0.0000000E+00  0.4545508E-05
 -0.2347676E-02  0.0000000E+00 -0.5050505E-02 -0.4723244E-05  0.0000000E+00  0.1096780E-05
 -0.1716362E-02  0.0000000E+00 -0.5050505E-02 -0.3869831E-05  0.0000000E+00 -0.1763763E-05
 -0.1025842E-02  0.0000000E+00 -0.5050505E-02 -0.3044975E-05  0.0000000E+00 -0.4046127E-05
  0.2367855E-03  0.0000000E+00 -0.5050505E-02 -0.2266300E-05  0.0000000E+00 -0.5747680E-05
  0.1499413E-02  0.0000000E+00 -0.5050505E-02 -0.1583063E-05  0.0000000E+00 -0.6802663E-05
  0.5287294E-02  0.0000000E+00 -0.5050505E-02 -0.1131130E-05  0.0000000E+00 -0.6883548E-05
 -0.5050505E-02  0.0000000E+00 -0.5050505E-02  0.1879327E-06  0.0000000E+00 -0.1295948E-03
 -0.5050505E-02  0.0000000E+00 -0.5050505E-02  0.5640651E-06  0.0000000E+00 -0.1294414E-03
 -0.5050505E-02  0.0000000E+00 -0.5050505E-02  0.9410032E-06  0.0000000E+00 -0.1291345E-03
 -0.5050505E-02  0.0000000E+00 -0.5050505E-02  0.1319297E-05  0.0000000E+00 -0.1286737E-03
 -0.5050505E-02  0.0000000E+00 -0.5050505E-02  0.1699510E-05  0.0000000E+00 -0.1280583E-03
 -0.5050505E-02  0.0000000E+00 -0.5050505E-02  0.2082226E-05  0.0000000E+00 -0.1272875E-03
 -0.5050504E-02  0.0000000E+00 -0.5050505E-02  0.2468055E-05  0.0000000E+00 -0.1263602E-03
 -0.5050501E-02  0.0000000E+00 -0.5050505E-02  0.2857635E-05  0.0000000E+00 -0.1252750E-03
 -0.5050495E-02  0.0000000E+00 -0.5050505E-02  0.3251641E-05  0.0000000E+00 -0.1240304E-03
 -0.5050482E-02  0.0000000E+00 -0.5050505E-02  0.3650794E-05  0.0000000E+00 -0.1226246E-03
 -0.5050449E-02  0.0000000E+00 -0.5050505E-02  0.4055865E-05  0.0000000E+00 -0.1210554E-03
 -0.5050376E-02  0.0000000E+00 -0.5050505E-02  0.4467687E-05  0.0000000E+00 -0.1193204E-03
 -0.5050299E-02  0.0000000E+00 -0.5050505E-02  0.4887161E-05  0.0000000E+00 -0.1174167E-03
 -0.5050178E-02  0.0000000E+00 -0.5050505E-02  0.5315274E-05  0.0000000E+00 -0.1153413E-03
 -0.5050018E-02  0.0000000E+00 -0.5050505E-02  0.5753104E-05  0.0000000E+00 -0.1130905E-03
 -0.5049710E-02  0.0000000E+00 -0.5050505E-02  0.6201841E-05  0.0000000E+00 -0.1106605E-03
 -0.5049253E-02  0.0000000E+00 -0.5050505E-02  0.6662800E-05  0.0000000E+00 -0.1080466E-03
 -0.5048636E-02  0.0000000E+00 -0.5050505E-02  0.7137443E-05  0.0000000E+00 -0.1052441E-03
 -0.5047442E-02  0.0000000E+00 -0.5050505E-02  0.7627398E-05  0.0000000E+00 -0.1022471E-03
 -0.5045727E-02  0.0000000E+00 -0.5050505E-02  0.8134487E-05  0.0000000E+00 -0.9904960E-04
 -0.5043261E-02  0.0000000E+00 -0.5050505E-02  0.8660756E-05  0.0000000E+00 -0.9564447E-04
 -0.5038714E-02  0.0000000E+00 -0.5050505E-02  0.9208505E-05  0.0000000E+00 -0.9202390E-04
 -0.5032318E-02  0.0000000E+00 -0.5050505E-02  0.9780331E-05  0.0000000E+00 -0.8817914E-04
 -0.5022454E-02  0.0000000E+00 -0.5050505E-02  0.1037917E-04  0.0000000E+00 -0.8410037E-04
 -0.5012589E-02  0.0000000E+00 -0.5050505E-02  0.1100835E-04  0.0000000E+00 -0.7977658E-04
 -0.5002725E-02  0.0000000E+00 -0.5050505E-02  0.1167167E-04  0.0000000E+00 -0.7519540E-04
 -0.4992860E-02  0.0000000E+00 -0.5050505E-02  0.1237341E-04  0.0000000E+00 -0.7034294E-04
 -0.4976523E-02  0.0000000E+00 -0.5050505E-02  0.1311849E-04  0.0000000E+00 -0.6520354E-04
 -0.4956794E-02  0.0000000E+00 -0.5050505E-02  0.1391251E-04  0.0000000E+00 -0.5975957E-04
 -0.4937066E-02  0.0000000E+00 -0.5050505E-02  0.1476188E-04  0.0000000E+00 -0.5399114E-04
 -0.4906239E-02  0.0000000E+00 -0.5050505E-02  0.1567391E-04  0.0000000E+00 -0.4787575E-04
 -0.4866782E-02  0.0000000E+00 -0.5050505E-02  0.1665700E-04  0.0000000E+00 -0.4138798E-04
 -0.4827325E-02  0.0000000E+00 -0.5050505E-02  0.1772076E-04  0.0000000E+00 -0.3449900E-04
 -0.4769372E-02  0.0000000E+00 -0.5050505E-02  0.1887618E-04  0.0000000E+00 -0.2717615E-04
 -0.4690458E-02  0.0000000E+00 -0.5050505E-02  0.2013587E-04  0.0000000E+00 -0.1938235E-04
 -0.4611543E-02  0.0000000E+00 -0.5050505E-02  0.2151426E-04  0.0000000E+00 -0.1107548E-04
 -0.4503035E-02  0.0000000E+00 -0.5050505E-02  0.2302782E-04  0.0000000E+00 -0.2203895E-05
 -0.4345206E-02  0.0000000E+00 -0.5050505E-02  0.2469487E-04  0.0000000E+00  0.7306017E-05
 -0.4187378E-02  0.0000000E+00 -0.5050505E-02  0.2653744E-04  0.0000000E+00  0.1752720E-04
 -0.3985156E-02  0.0000000E+00 -0.5050505E-02  0.2858022E-04  0.0000000E+00  0.2852907E-04
 -0.3669499E-02  0.0000000E+00 -0.5050505E-02  0.3085114E-04  0.0000000E+00  0.4039921E-04
 -0.3353842E-02  0.0000000E+00 -0.5050505E-02  0.3338156E-04  0.0000000E+00  0.5323782E-04
 -0.2978990E-02  0.0000000E+00 -0.5050505E-02  0.3620640E-04  0.0000000E+00  0.6715937E-04
 -0.2347676E-02  0.0000000E+00 -0.5050505E-02  0.3936415E-04  0.0000000E+00  0.8229425E-04
 -0.1716362E-02  0.0000000E+00 -0.5050505E-02  0.4289691E-04  0.0000000E+00  0.9879033E-04
 -0.1025842E-02  0.0000000E+00 -0.5050505E-02  0.4685047E-04  0.0000000E+00  0.1168143E-03
  0.2367855E-03  0.0000000E+00 -0.5050505E-02  0.5127500E-04  0.0000000E+00  0.1365524E-03
  0.1499413E-02  0.0000000E+00 -0.5050505E-02  0.5622739E-04  0.0000000E+00  0.1582110E-03
  0.2762042E-02  0.0000000E+00 -0.5050505E-02  0.6177705E-04  0.0000000E+00  0.1820158E-03
 -0.5050505E-02  0.0000000E+00 -0.5050505E-02  0.6801838E-04  0.0000000E+00  0.2082128E-03
 -0.5050505E-02  0.0000000E+00 -0.5050505E-02  0.7509491E-04  0.0000000E+00  0.2370710E-03
 -0.5050505E-02  0.0000000E+00 -0.5050505E-02  0.8324080E-04  0.0000000E+00  0.2688915E-03
 -0.5050505E-02  0.0000000E+00 -0.5050505E-02  0.9284647E-04  0.0000000E+00  0.3040238E-03
 -0.5050505E-02  0.0000000E+00 -0.5050505E-02  0.1045573E-03  0.0000000E+00  0.3428803E-03
 -0.5050505E-02  0.0000000E+00 -0.5050505E-02  0.1194270E-03  0.0000000E+00  0.3859142E-03
 -0.5050505E-02  0.0000000E+00 -0.5050505E-02  0.1391636E-03  0.0000000E+00  0.4334731E-03
 -0.5050504E-02  0.0000000E+00 -0.5050505E-02  0.1663995E-03  0.0000000E+00  0.4852695E-03
 -0.5050501E-02  0.0000000E+00 -0.5050505E-02  0.2041494E-03  0.0000000E+00  0.5385362E-03
 -0.5050495E-02  0.0000000E+00 -0.5050505E-02  0.2494528E-03  0.0000000E+00  0.5808714E-03
 -0.5050482E-02  0.0000000E+00 -0.5050505E-02  0.3067072E-03  0.0000000E+00  0.6072293E-03
 -0.5050449E-02  0.0000000E+00 -0.5050505E-02 -0.2596080E-03  0.0000000E+00  0.6381434E-03
 -0.5050376E-02  0.0000000E+00 -0.5050505E-02 -0.2284239E-03  0.0000000E+00  0.6337160E-03
 -0.5050299E-02  0.0000000E+00 -0.5050505E-02 -0.1717758E-03  0.0000000E+00  0.5862459E-03
 -0.5050178E-02  0.0000000E+00 -0.5050505E-02 -0.1393762E-03  0.0000000E+00  0.5413279E-03
 -0.5050018E-02  0.0000000E+00 -0.5050505E-02 -0.1201906E-03  0.0000000E+00  0.4969598E-03
 -0.5049710E-02  0.0000000E+00 -0.5050505E-02 -0.1075692E-03  0.0000000E+00  0.4534974E-03
 -0.5049253E-02  0.0000000E+00 -0.5050505E-02 -0.9619774E-04  0.0000000E+00  0.4125221E-03
 -0.5048636E-02  0.0000000E+00 -0.5050505E-02 -0.8641940E-04  0.0000000E+00  0.3754044E-03
 -0.5047442E-02  0.0000000E+00 -0.5050505E-02 -0.7815861E-04  0.0000000E+00  0.3418803E-03
 -0.5045727E-02  0.0000000E+00 -0.5050505E-02 -0.7112974E-04  0.0000000E+00  0.3114407E-03
 -0.5043261E-02  0.0000000E+00 -0.5050505E-02 -0.6508212E-04  0.0000000E+00  0.2836542E-03
 -0.5038714E-02  0.0000000E+00 -0.5050505E-02 -0.5982784E-04  0.0000000E+00  0.2581712E-03
 -0.5032318E-02  0.0000000E+00 -0.5050505E-02 -0.5522022E-04  0.0000000E+00  0.2347031E-03
 -0.5022454E-02  0.0000000E+00 -0.5050505E-02 -0.5113862E-04  0.0000000E+00  0.2130113E-03
 -0.5012589E-02  0.0000000E+00 -0.5050505E-02 -0.4748250E-04  0.0000000E+00  0.1929023E-03
 -0.5002725E-02  0.0000000E+00 -0.5050505E-02 -0.4416942E-04  0.0000000E+00  0.1742200E-03
 -0.4992860E-02  0.0000000E+00 -0.5050505E-02 -0.4113345E-04  0.0000000E+00  0.1568396E-03
 -0.4976523E-02  0.0000000E+00 -0.5050505E-02 -0.3832321E-04  0.0000000E+00  0.1406601E-03
 -0.4956794E-02  0.0000000E+00 -0.5050505E-02 -0.3569933E-04  0.0000000E+00  0.1255984E-03
 -0.4937066E-02  0.0000000E+00 -0.5050505E-02 -0.3323200E-04  0.0000000E+00  0.1115850E-03
 -0.4906239E-02  0.0000000E+00 -0.5050505E-02 -0.3089862E-04  0.0000000E+00  0.9856032E-04
 -0.4866782E-02  0.0000000E+00 -0.5050505E-02 -0.2868190E-04  0.0000000E+00  0.8647228E-04
 -0.4827325E-02  0.0000000E+00 -0.5050505E-02 -0.2656833E-04  0.0000000E+00  0.7527472E-04
 -0.4769372E-02  0.0000000E+00 -0.5050505E-02 -0.2454708E-04  0.0000000E+00  0.6492615E-04
 -0.4690458E-02  0.0000000E+00 -0.5050505E-02 -0.2260914E-04  0.0000000E+00  0.5538903E-04
 -0.4611543E-02  0.0000000E+00 -0.5050505E-02 -0.2074677E-04  0.0000000E+00  0.4662921E-04
 -0.4503035E-02  0.0000000E+00 -0.5050505E-02 -0.1895313E-04  0.0000000E+00  0.3861562E-04
 -0.4345206E-02  0.0000000E+00 -0.5050505E-02 -0.1722197E-04  0.0000000E+00  0.3132000E-04
 -0.4187378E-02  0.0000000E+00 -0.5050505E-02 -0.1554753E-04  0.0000000E+00  0.2471671E-04
 -0.3985156E-02  0.0000000E+00 -0.5050505E-02 -0.1392440E-04  0.0000000E+00  0.1878260E-04
 -0.3669499E-02  0.0000000E+00 -0.5050505E-02 -0.1234755E-04  0.0000000E+00  0.1349694E-04
 -0.3353842E-02  0.0000000E+00 -0.5050505E-02 -0.1081231E-04  0.0000000E+00  0.8841371E-05
 -0.2978990E-02  0.0000000E+00 -0.5050505E-02 -0.9314568E-05  0.0000000E+00  0.4799930E-05
 -0.2347676E-02  0.0000000E+00 -0.5050505E-02 -0.7850955E-05  0.0000000E+00  0.1359651E-05
 -0.1716362E-02  0.0000000E+00 -0.5050505E-02 -0.6418542E-05  0.0000000E+00 -0.1486316E-05
 -0.1025842E-02  0.0000000E+00 -0.5050505E-02 -0.5016737E-05  0.0000000E+00 -0.3743398E-05
  0.2367855E-03  0.0000000E+00 -0.5050505E-02 -0.3645194E-05  0.0000000E+00 -0.5408368E-05
  0.1499413E-02  0.0000000E+00 -0.5050505E-02 -0.2294278E-05  0.0000000E+00 -0.6455553E-05
  0.5287294E-02  0.0000000E+00 -0.5050505E-02 -0.8966984E-06  0.0000000E+00 -0.6859596E-05
 -0.5050505E-02  0.0000000E+00 -0.5050505E-02  0.2629683E-06  0.0000000E+00 -0.1289968E-03
 -0.5050505E-02  0.0000000E+00 -0.5050505E-02  0.7892777E-06  0.0000000E+00 -0.1288431E-03
 -0.5050505E-02  0.0000000E+00 -0.5050505E-02  0.1316712E-05  0.0000000E+00 -0.1285355E-03
 -0.5050505E-02  0.0000000E+00 -0.5050505E-02  0.1846038E-05  0.0000000E+00 -0.1280736E-03
 -0.5050505E-02  0.0000000E+00 -0.5050505E-02  0.2378040E-05  0.0000000E+00 -0.1274568E-03
 -0.5050505E-02  0.0000000E+00 -0.5050505E-02  0.2913532E-05  0.0000000E+00 -0.1266843E-03
 -0.5050504E-02  0.0000000E+00 -0.5050505E-02  0.3453360E-05  0.0000000E+00 -0.1257550E-03
 -0.5050501E-02  0.0000000E+00 -0.5050505E-02  0.3998412E-05  0.0000000E+00 -0.1246676E-03
 -0.5050495E-02  0.0000000E+00 -0.5050505E-02  0.4549630E-05  0.0000000E+00 -0.1234205E-03
 -0.5050482E-02  0.0000000E+00 -0.5050505E-02  0.5108012E-05  0.0000000E+00 -0.1220120E-03
 -0.5050449E-02  0.0000000E+00 -0.5050505E-02  0.5674630E-05  0.0000000E+00 -0.1204399E-03
 -0.5050376E-02  0.0000000E+00 -0.5050505E-02  0.6250642E-05  0.0000000E+00 -0.1187018E-03
 -0.5050299E-02  0.0000000E+00 -0.5050505E-02  0.6837299E-05  0.0000000E+00 -0.1167950E-03
 -0.5050178E-02  0.0000000E+00 -0.5050505E-02  0.7435968E-05  0.0000000E+00 -0.1147164E-03
 -0.5050018E-02  0.0000000E+00 -0.5050505E-02  0.8048148E-05  0.0000000E+00 -0.1124625E-03
 -0.5049710E-02  0.0000000E+00 -0.5050505E-02  0.8675487E-05  0.0000000E+00 -0.1100295E-03
 -0.5049253E-02  0.0000000E+00 -0.5050505E-02  0.9319808E-05  0.0000000E+00 -0.1074129E-03
 -0.5048636E-02  0.0000000E+00 -0.5050505E-02  0.9983137E-05  0.0000000E+00 -0.1046079E-03
 -0.5047442E-02  0.0000000E+00 -0.5050505E-02  0.1066773E-04  0.0000000E+00 -0.1016090E-03
 -0.5045727E-02  0.0000000E+00 -0.5050505E-02  0.1137610E-04  0.0000000E+00 -0.9841012E-04
 -0.5043261E-02  0.0000000E+00 -0.5050505E-02  0.1211110E-04  0.0000000E+00 -0.9500440E-04
 -0.5038714E-02  0.0000000E+00 -0.5050505E-02  0.1287589E-04  0.0000000E+00 -0.9138423E-04
 -0.5032318E-02  0.0000000E+00 -0.5050505E-02  0.1367407E-04  0.0000000E+00 -0.8754110E-04
 -0.5022454E-02  0.0000000E+00 -0.5050505E-02  0.1450970E-04  0.0000000E+00 -0.8346546E-04
 -0.5012589E-02  0.0000000E+00 -0.5050505E-02  0.1538739E-04  0.0000000E+00 -0.7914662E-04
 -0.5002725E-02  0.0000000E+00 -0.5050505E-02  0.1631236E-04  0.0000000E+00 -0.7457258E-04
 -0.4992860E-02  0.0000000E+00 -0.5050505E-02  0.1729057E-04  0.0000000E+00 -0.6972989E-04
 -0.4976523E-02  0.0000000E+00 -0.5050505E-02  0.1832879E-04  0.0000000E+00 -0.6460339E-04
 -0.4956794E-02  0.0000000E+00 -0.5050505E-02  0.1943476E-04  0.0000000E+00 -0.5917605E-04
 -0.4937066E-02  0.0000000E+00 -0.5050505E-02  0.2061733E-04  0.0000000E+00 -0.5342863E-04