title = "dataset feddes"
variables = "x", "y", "z", "vx", "vy", "vz"
zone t = "velocities, solution time =  2.800E+01 days        " i =   99, j =   99, k =    1,  f=point
 -0.5050505E-02  0.0000000E+00 -0.5050505E-02  0.2136431E-08  0.0000000E+00 -0.3258006E-03
 -0.5050505E-02  0.0000000E+00 -0.5050505E-02  0.6407470E-08  0.0000000E+00 -0.3257917E-03
 -0.5050505E-02  0.0000000E+00 -0.5050505E-02  0.1067302E-07  0.0000000E+00 -0.3257740E-03
 -0.5050505E-02  0.0000000E+00 -0.5050505E-02  0.1492940E-07  0.0000000E+00 -0.3257474E-03
 -0.5050505E-02  0.0000000E+00 -0.5050505E-02  0.1917291E-07  0.0000000E+00 -0.3257119E-03
 -0.5050505E-02  0.0000000E+00 -0.5050505E-02  0.2339978E-07  0.0000000E+00 -0.3256677E-03
 -0.5050504E-02  0.0000000E+00 -0.5050505E-02  0.2760622E-07  0.0000000E+00 -0.3256147E-03
 -0.5050501E-02  0.0000000E+00 -0.5050505E-02  0.3178835E-07  0.0000000E+00 -0.3255530E-03
 -0.5050495E-02  0.0000000E+00 -0.5050505E-02  0.3594221E-07  0.0000000E+00 -0.3254826E-03
 -0.5050482E-02  0.0000000E+00 -0.5050505E-02  0.4006374E-07  0.0000000E+00 -0.3254036E-03
 -0.5050449E-02  0.0000000E+00 -0.5050505E-02  0.4414878E-07  0.0000000E+00 -0.3253162E-03
 -0.5050376E-02  0.0000000E+00 -0.5050505E-02  0.4819306E-07  0.0000000E+00 -0.3252202E-03
 -0.5050299E-02  0.0000000E+00 -0.5050505E-02  0.5219218E-07  0.0000000E+00 -0.3251159E-03
 -0.5050178E-02  0.0000000E+00 -0.5050505E-02  0.5614158E-07  0.0000000E+00 -0.3250034E-03
 -0.5050018E-02  0.0000000E+00 -0.5050505E-02  0.6003658E-07  0.0000000E+00 -0.3248827E-03
 -0.5049710E-02  0.0000000E+00 -0.5050505E-02  0.6387230E-07  0.0000000E+00 -0.3247540E-03
 -0.5049253E-02  0.0000000E+00 -0.5050505E-02  0.6764372E-07  0.0000000E+00 -0.3246173E-03
 -0.5048636E-02  0.0000000E+00 -0.5050505E-02  0.7134562E-07  0.0000000E+00 -0.3244729E-03
 -0.5047442E-02  0.0000000E+00 -0.5050505E-02  0.7497257E-07  0.0000000E+00 -0.3243209E-03
 -0.5045727E-02  0.0000000E+00 -0.5050505E-02  0.7851894E-07  0.0000000E+00 -0.3241615E-03
 -0.5043261E-02  0.0000000E+00 -0.5050505E-02  0.8197887E-07  0.0000000E+00 -0.3239948E-03
 -0.5038714E-02  0.0000000E+00 -0.5050505E-02  0.8534624E-07  0.0000000E+00 -0.3238210E-03
 -0.5032318E-02  0.0000000E+00 -0.5050505E-02  0.8861469E-07  0.0000000E+00 -0.3236402E-03
 -0.5022454E-02  0.0000000E+00 -0.5050505E-02  0.9177754E-07  0.0000000E+00 -0.3234529E-03
 -0.5012589E-02  0.0000000E+00 -0.5050505E-02  0.9482783E-07  0.0000000E+00 -0.3232590E-03
 -0.5002725E-02  0.0000000E+00 -0.5050505E-02  0.9775822E-07  0.0000000E+00 -0.3230590E-03
 -0.4992860E-02  0.0000000E+00 -0.5050505E-02  0.1005610E-06  0.0000000E+00 -0.3228530E-03
 -0.4976523E-02  0.0000000E+00 -0.5050505E-02  0.1032281E-06  0.0000000E+00 -0.3226414E-03
 -0.4956794E-02  0.0000000E+00 -0.5050505E-02  0.1057508E-06  0.0000000E+00 -0.3224243E-03
 -0.4937066E-02  0.0000000E+00 -0.5050505E-02  0.1081200E-06  0.0000000E+00 -0.3222022E-03
 -0.4906239E-02  0.0000000E+00 -0.5050505E-02  0.1103259E-06  0.0000000E+00 -0.3219753E-03
 -0.4866782E-02  0.0000000E+00 -0.5050505E-02  0.1123581E-06  0.0000000E+00 -0.3217441E-03
 -0.4827325E-02  0.0000000E+00 -0.5050505E-02  0.1142054E-06  0.0000000E+00 -0.3215088E-03
 -0.4769372E-02  0.0000000E+00 -0.5050505E-02  0.1158556E-06  0.0000000E+00 -0.3212699E-03
 -0.4690458E-02  0.0000000E+00 -0.5050505E-02  0.1172956E-06  0.0000000E+00 -0.3210277E-03
 -0.4611543E-02  0.0000000E+00 -0.5050505E-02  0.1185111E-06  0.0000000E+00 -0.3207829E-03
 -0.4503035E-02  0.0000000E+00 -0.5050505E-02  0.1194864E-06  0.0000000E+00 -0.3205357E-03
 -0.4345206E-02  0.0000000E+00 -0.5050505E-02  0.1202045E-06  0.0000000E+00 -0.3202869E-03
 -0.4187378E-02  0.0000000E+00 -0.5050505E-02  0.1206466E-06  0.0000000E+00 -0.3200368E-03
 -0.3985156E-02  0.0000000E+00 -0.5050505E-02  0.1207922E-06  0.0000000E+00 -0.3197861E-03
 -0.3669499E-02  0.0000000E+00 -0.5050505E-02  0.1206188E-06  0.0000000E+00 -0.3195354E-03
 -0.3353842E-02  0.0000000E+00 -0.5050505E-02  0.1201016E-06  0.0000000E+00 -0.3192855E-03
 -0.2978990E-02  0.0000000E+00 -0.5050505E-02  0.1192137E-06  0.0000000E+00 -0.3190370E-03
 -0.2347676E-02  0.0000000E+00 -0.5050505E-02  0.1179257E-06  0.0000000E+00 -0.3187909E-03
 -0.1716362E-02  0.0000000E+00 -0.5050505E-02  0.1162062E-06  0.0000000E+00 -0.3185478E-03
 -0.1025842E-02  0.0000000E+00 -0.5050505E-02  0.1140212E-06  0.0000000E+00 -0.3183088E-03
  0.2367855E-03  0.0000000E+00 -0.5050505E-02  0.1113350E-06  0.0000000E+00 -0.3180748E-03
  0.1499413E-02  0.0000000E+00 -0.5050505E-02  0.1081105E-06  0.0000000E+00 -0.3178470E-03
  0.2762042E-02  0.0000000E+00 -0.5050505E-02  0.1043097E-06  0.0000000E+00 -0.3176265E-03
 -0.5050505E-02  0.0000000E+00 -0.5050505E-02  0.9989497E-07  0.0000000E+00 -0.3174146E-03
 -0.5050505E-02  0.0000000E+00 -0.5050505E-02  0.9483042E-07  0.0000000E+00 -0.3172124E-03
 -0.5050505E-02  0.0000000E+00 -0.5050505E-02  0.8908333E-07  0.0000000E+00 -0.3170215E-03
 -0.5050505E-02  0.0000000E+00 -0.5050505E-02  0.8262646E-07  0.0000000E+00 -0.3168433E-03
 -0.5050505E-02  0.0000000E+00 -0.5050505E-02  0.7544038E-07  0.0000000E+00 -0.3166793E-03
 -0.5050505E-02  0.0000000E+00 -0.5050505E-02  0.6751621E-07  0.0000000E+00 -0.3165309E-03
 -0.5050505E-02  0.0000000E+00 -0.5050505E-02  0.5885841E-07  0.0000000E+00 -0.3163997E-03
 -0.5050504E-02  0.0000000E+00 -0.5050505E-02  0.4948760E-07  0.0000000E+00 -0.3162873E-03
 -0.5050501E-02  0.0000000E+00 -0.5050505E-02  0.3944310E-07  0.0000000E+00 -0.3161950E-03
 -0.5050495E-02  0.0000000E+00 -0.5050505E-02  0.2878482E-07  0.0000000E+00 -0.3161241E-03
 -0.5050482E-02  0.0000000E+00 -0.5050505E-02  0.1759439E-07  0.0000000E+00 -0.3160760E-03
 -0.5050449E-02  0.0000000E+00 -0.5050505E-02  0.5975032E-08  0.0000000E+00 -0.3160515E-03
 -0.5050376E-02  0.0000000E+00 -0.5050505E-02 -0.5949868E-08  0.0000000E+00 -0.3160515E-03
 -0.5050299E-02  0.0000000E+00 -0.5050505E-02 -0.1803967E-07  0.0000000E+00 -0.3160764E-03
 -0.5050178E-02  0.0000000E+00 -0.5050505E-02 -0.3014085E-07  0.0000000E+00 -0.3161264E-03
 -0.5050018E-02  0.0000000E+00 -0.5050505E-02 -0.4209245E-07  0.0000000E+00 -0.3162014E-03
 -0.5049710E-02  0.0000000E+00 -0.5050505E-02 -0.5373230E-07  0.0000000E+00 -0.3163008E-03
 -0.5049253E-02  0.0000000E+00 -0.5050505E-02 -0.6490344E-07  0.0000000E+00 -0.3164240E-03
 -0.5048636E-02  0.0000000E+00 -0.5050505E-02 -0.7546029E-07  0.0000000E+00 -0.3165697E-03
 -0.5047442E-02  0.0000000E+00 -0.5050505E-02 -0.8527405E-07  0.0000000E+00 -0.3167365E-03
 -0.5045727E-02  0.0000000E+00 -0.5050505E-02 -0.9423696E-07  0.0000000E+00 -0.3169228E-03
 -0.5043261E-02  0.0000000E+00 -0.5050505E-02 -0.1022651E-06  0.0000000E+00 -0.3171268E-03
 -0.5038714E-02  0.0000000E+00 -0.5050505E-02 -0.1093000E-06  0.0000000E+00 -0.3173464E-03
 -0.5032318E-02  0.0000000E+00 -0.5050505E-02 -0.1153085E-06  0.0000000E+00 -0.3175795E-03
 -0.5022454E-02  0.0000000E+00 -0.5050505E-02 -0.1202821E-06  0.0000000E+00 -0.3178241E-03
 -0.5012589E-02  0.0000000E+00 -0.5050505E-02 -0.1242354E-06  0.0000000E+00 -0.3180779E-03
 -0.5002725E-02  0.0000000E+00 -0.5050505E-02 -0.1272035E-06  0.0000000E+00 -0.3183389E-03
 -0.4992860E-02  0.0000000E+00 -0.5050505E-02 -0.1292406E-06  0.0000000E+00 -0.3186052E-03
 -0.4976523E-02  0.0000000E+00 -0.5050505E-02 -0.1304177E-06  0.0000000E+00 -0.3188747E-03
 -0.4956794E-02  0.0000000E+00 -0.5050505E-02 -0.1308218E-06  0.0000000E+00 -0.3191459E-03
 -0.4937066E-02  0.0000000E+00 -0.5050505E-02 -0.1305562E-06  0.0000000E+00 -0.3194173E-03
 -0.4906239E-02  0.0000000E+00 -0.5050505E-02 -0.1297417E-06  0.0000000E+00 -0.3196876E-03
 -0.4866782E-02  0.0000000E+00 -0.5050505E-02 -0.1285212E-06  0.0000000E+00 -0.3199557E-03
 -0.4827325E-02  0.0000000E+00 -0.5050505E-02 -0.1270672E-06  0.0000000E+00 -0.3202211E-03
 -0.4769372E-02  0.0000000E+00 -0.5050505E-02 -0.1255949E-06  0.0000000E+00 -0.3204835E-03
 -0.4690458E-02  0.0000000E+00 -0.5050505E-02 -0.1243838E-06  0.0000000E+00 -0.3207430E-03
 -0.4611543E-02  0.0000000E+00 -0.5050505E-02 -0.1238144E-06  0.0000000E+00 -0.3210008E-03
 -0.4503035E-02  0.0000000E+00 -0.5050505E-02 -0.1244298E-06  0.0000000E+00 -0.3212585E-03
 -0.4345206E-02  0.0000000E+00 -0.5050505E-02 -0.1270451E-06  0.0000000E+00 -0.3215197E-03
 -0.4187378E-02  0.0000000E+00 -0.5050505E-02 -0.1329451E-06  0.0000000E+00 -0.3217897E-03
 -0.3985156E-02  0.0000000E+00 -0.5050505E-02 -0.1442650E-06  0.0000000E+00 -0.3220776E-03
 -0.3669499E-02  0.0000000E+00 -0.5050505E-02 -0.1647581E-06  0.0000000E+00 -0.3223985E-03
 -0.3353842E-02  0.0000000E+00 -0.5050505E-02 -0.2014558E-06  0.0000000E+00 -0.3227789E-03
 -0.2978990E-02  0.0000000E+00 -0.5050505E-02 -0.2685290E-06  0.0000000E+00 -0.3232670E-03
 -0.2347676E-02  0.0000000E+00 -0.5050505E-02 -0.3970721E-06  0.0000000E+00 -0.3239584E-03
 -0.1716362E-02  0.0000000E+00 -0.5050505E-02 -0.6622870E-06  0.0000000E+00 -0.3250589E-03
 -0.1025842E-02  0.0000000E+00 -0.5050505E-02 -0.1266609E-05  0.0000000E+00 -0.3270629E-03
  0.2367855E-03  0.0000000E+00 -0.5050505E-02 -0.2818870E-05  0.0000000E+00 -0.3313085E-03
  0.1499413E-02  0.0000000E+00 -0.5050505E-02 -0.7356072E-05  0.0000000E+00 -0.3418882E-03
  0.5287294E-02  0.0000000E+00 -0.5050505E-02 -0.1204234E-03  0.0000000E+00 -0.2727810E-03
 -0.5050505E-02  0.0000000E+00 -0.5050505E-02  0.6418724E-08  0.0000000E+00 -0.3255822E-03
 -0.5050505E-02  0.0000000E+00 -0.5050505E-02  0.1925071E-07  0.0000000E+00 -0.3255733E-03
 -0.5050505E-02  0.0000000E+00 -0.5050505E-02  0.3206625E-07  0.0000000E+00 -0.3255554E-03
 -0.5050505E-02  0.0000000E+00 -0.5050505E-02  0.4485431E-07  0.0000000E+00 -0.3255287E-03
 -0.5050505E-02  0.0000000E+00 -0.5050505E-02  0.5760380E-07  0.0000000E+00 -0.3254930E-03
 -0.5050505E-02  0.0000000E+00 -0.5050505E-02  0.7030345E-07  0.0000000E+00 -0.3254485E-03
 -0.5050504E-02  0.0000000E+00 -0.5050505E-02  0.8294186E-07  0.0000000E+00 -0.3253952E-03
 -0.5050501E-02  0.0000000E+00 -0.5050505E-02  0.9550740E-07  0.0000000E+00 -0.3253331E-03
 -0.5050495E-02  0.0000000E+00 -0.5050505E-02  0.1079882E-06  0.0000000E+00 -0.3252623E-03
 -0.5050482E-02  0.0000000E+00 -0.5050505E-02  0.1203721E-06  0.0000000E+00 -0.3251829E-03
 -0.5050449E-02  0.0000000E+00 -0.5050505E-02  0.1326467E-06  0.0000000E+00 -0.3250949E-03
 -0.5050376E-02  0.0000000E+00 -0.5050505E-02  0.1447991E-06  0.0000000E+00 -0.3249983E-03
 -0.5050299E-02  0.0000000E+00 -0.5050505E-02  0.1568161E-06  0.0000000E+00 -0.3248934E-03
 -0.5050178E-02  0.0000000E+00 -0.5050505E-02  0.1686841E-06  0.0000000E+00 -0.3247802E-03
 -0.5050018E-02  0.0000000E+00 -0.5050505E-02  0.1803890E-06  0.0000000E+00 -0.3246587E-03
 -0.5049710E-02  0.0000000E+00 -0.5050505E-02  0.1919162E-06  0.0000000E+00 -0.3245292E-03
 -0.5049253E-02  0.0000000E+00 -0.5050505E-02  0.2032506E-06  0.0000000E+00 -0.3243917E-03
 -0.5048636E-02  0.0000000E+00 -0.5050505E-02  0.2143767E-06  0.0000000E+00 -0.3242464E-03
 -0.5047442E-02  0.0000000E+00 -0.5050505E-02  0.2252780E-06  0.0000000E+00 -0.3240934E-03
 -0.5045727E-02  0.0000000E+00 -0.5050505E-02  0.2359378E-06  0.0000000E+00 -0.3239330E-03
 -0.5043261E-02  0.0000000E+00 -0.5050505E-02  0.2463384E-06  0.0000000E+00 -0.3237652E-03
 -0.5038714E-02  0.0000000E+00 -0.5050505E-02  0.2564616E-06  0.0000000E+00 -0.3235902E-03
 -0.5032318E-02  0.0000000E+00 -0.5050505E-02  0.2662882E-06  0.0000000E+00 -0.3234083E-03
 -0.5022454E-02  0.0000000E+00 -0.5050505E-02  0.2757982E-06  0.0000000E+00 -0.3232197E-03
 -0.5012589E-02  0.0000000E+00 -0.5050505E-02  0.2849708E-06  0.0000000E+00 -0.3230246E-03
 -0.5002725E-02  0.0000000E+00 -0.5050505E-02  0.2937840E-06  0.0000000E+00 -0.3228232E-03
 -0.4992860E-02  0.0000000E+00 -0.5050505E-02  0.3022147E-06  0.0000000E+00 -0.3226158E-03
 -0.4976523E-02  0.0000000E+00 -0.5050505E-02  0.3102385E-06  0.0000000E+00 -0.3224027E-03
 -0.4956794E-02  0.0000000E+00 -0.5050505E-02  0.3178297E-06  0.0000000E+00 -0.3221841E-03
 -0.4937066E-02  0.0000000E+00 -0.5050505E-02  0.3249609E-06  0.0000000E+00 -0.3219604E-03
 -0.4906239E-02  0.0000000E+00 -0.5050505E-02  0.3316028E-06  0.0000000E+00 -0.3217319E-03
 -0.4866782E-02  0.0000000E+00 -0.5050505E-02  0.3377241E-06  0.0000000E+00 -0.3214989E-03
 -0.4827325E-02  0.0000000E+00 -0.5050505E-02  0.3432913E-06  0.0000000E+00 -0.3212619E-03
 -0.4769372E-02  0.0000000E+00 -0.5050505E-02  0.3482680E-06  0.0000000E+00 -0.3210212E-03
 -0.4690458E-02  0.0000000E+00 -0.5050505E-02  0.3526149E-06  0.0000000E+00 -0.3207772E-03
 -0.4611543E-02  0.0000000E+00 -0.5050505E-02  0.3562891E-06  0.0000000E+00 -0.3205304E-03
 -0.4503035E-02  0.0000000E+00 -0.5050505E-02  0.3592439E-06  0.0000000E+00 -0.3202813E-03
 -0.4345206E-02  0.0000000E+00 -0.5050505E-02  0.3614282E-06  0.0000000E+00 -0.3200303E-03
 -0.4187378E-02  0.0000000E+00 -0.5050505E-02  0.3627859E-06  0.0000000E+00 -0.3197781E-03
 -0.3985156E-02  0.0000000E+00 -0.5050505E-02  0.3632552E-06  0.0000000E+00 -0.3195252E-03
 -0.3669499E-02  0.0000000E+00 -0.5050505E-02  0.3627687E-06  0.0000000E+00 -0.3192723E-03
 -0.3353842E-02  0.0000000E+00 -0.5050505E-02  0.3612522E-06  0.0000000E+00 -0.3190201E-03
 -0.2978990E-02  0.0000000E+00 -0.5050505E-02  0.3586246E-06  0.0000000E+00 -0.3187692E-03
 -0.2347676E-02  0.0000000E+00 -0.5050505E-02  0.3547980E-06  0.0000000E+00 -0.3185205E-03
 -0.1716362E-02  0.0000000E+00 -0.5050505E-02  0.3496769E-06  0.0000000E+00 -0.3182749E-03
 -0.1025842E-02  0.0000000E+00 -0.5050505E-02  0.3431595E-06  0.0000000E+00 -0.3180333E-03
  0.2367855E-03  0.0000000E+00 -0.5050505E-02  0.3351378E-06  0.0000000E+00 -0.3177966E-03
  0.1499413E-02  0.0000000E+00 -0.5050505E-02  0.3254991E-06  0.0000000E+00 -0.3175661E-03
  0.2762042E-02  0.0000000E+00 -0.5050505E-02  0.3141282E-06  0.0000000E+00 -0.3173428E-03
 -0.5050505E-02  0.0000000E+00 -0.5050505E-02  0.3009108E-06  0.0000000E+00 -0.3171279E-03
 -0.5050505E-02  0.0000000E+00 -0.5050505E-02  0.2857365E-06  0.0000000E+00 -0.3169229E-03
 -0.5050505E-02  0.0000000E+00 -0.5050505E-02  0.2685051E-06  0.0000000E+00 -0.3167291E-03
 -0.5050505E-02  0.0000000E+00 -0.5050505E-02  0.2491318E-06  0.0000000E+00 -0.3165480E-03
 -0.5050505E-02  0.0000000E+00 -0.5050505E-02  0.2275556E-06  0.0000000E+00 -0.3163811E-03
 -0.5050505E-02  0.0000000E+00 -0.5050505E-02  0.2037466E-06  0.0000000E+00 -0.3162299E-03
 -0.5050505E-02  0.0000000E+00 -0.5050505E-02  0.1777153E-06  0.0000000E+00 -0.3160961E-03
 -0.5050504E-02  0.0000000E+00 -0.5050505E-02  0.1495210E-06  0.0000000E+00 -0.3159812E-03
 -0.5050501E-02  0.0000000E+00 -0.5050505E-02  0.1192799E-06  0.0000000E+00 -0.3158867E-03
 -0.5050495E-02  0.0000000E+00 -0.5050505E-02  0.8717087E-07  0.0000000E+00 -0.3158139E-03
 -0.5050482E-02  0.0000000E+00 -0.5050505E-02  0.5343939E-07  0.0000000E+00 -0.3157642E-03
 -0.5050449E-02  0.0000000E+00 -0.5050505E-02  0.1839723E-07  0.0000000E+00 -0.3157385E-03
 -0.5050376E-02  0.0000000E+00 -0.5050505E-02 -0.1758175E-07  0.0000000E+00 -0.3157377E-03
 -0.5050299E-02  0.0000000E+00 -0.5050505E-02 -0.5407043E-07  0.0000000E+00 -0.3157623E-03
 -0.5050178E-02  0.0000000E+00 -0.5050505E-02 -0.9060174E-07  0.0000000E+00 -0.3158126E-03
 -0.5050018E-02  0.0000000E+00 -0.5050505E-02 -0.1266855E-06  0.0000000E+00 -0.3158883E-03
 -0.5049710E-02  0.0000000E+00 -0.5050505E-02 -0.1618277E-06  0.0000000E+00 -0.3159890E-03
 -0.5049253E-02  0.0000000E+00 -0.5050505E-02 -0.1955500E-06  0.0000000E+00 -0.3161138E-03
 -0.5048636E-02  0.0000000E+00 -0.5050505E-02 -0.2274093E-06  0.0000000E+00 -0.3162617E-03
 -0.5047442E-02  0.0000000E+00 -0.5050505E-02 -0.2570141E-06  0.0000000E+00 -0.3164311E-03
 -0.5045727E-02  0.0000000E+00 -0.5050505E-02 -0.2840375E-06  0.0000000E+00 -0.3166203E-03
 -0.5043261E-02  0.0000000E+00 -0.5050505E-02 -0.3082255E-06  0.0000000E+00 -0.3168275E-03
 -0.5038714E-02  0.0000000E+00 -0.5050505E-02 -0.3294021E-06  0.0000000E+00 -0.3170505E-03
 -0.5032318E-02  0.0000000E+00 -0.5050505E-02 -0.3474687E-06  0.0000000E+00 -0.3172872E-03
 -0.5022454E-02  0.0000000E+00 -0.5050505E-02 -0.3624013E-06  0.0000000E+00 -0.3175353E-03
 -0.5012589E-02  0.0000000E+00 -0.5050505E-02 -0.3742455E-06  0.0000000E+00 -0.3177928E-03
 -0.5002725E-02  0.0000000E+00 -0.5050505E-02 -0.3831094E-06  0.0000000E+00 -0.3180574E-03
 -0.4992860E-02  0.0000000E+00 -0.5050505E-02 -0.3891571E-06  0.0000000E+00 -0.3183271E-03
 -0.4976523E-02  0.0000000E+00 -0.5050505E-02 -0.3926033E-06  0.0000000E+00 -0.3186000E-03
 -0.4956794E-02  0.0000000E+00 -0.5050505E-02 -0.3937094E-06  0.0000000E+00 -0.3188743E-03
 -0.4937066E-02  0.0000000E+00 -0.5050505E-02 -0.3927837E-06  0.0000000E+00 -0.3191486E-03
 -0.4906239E-02  0.0000000E+00 -0.5050505E-02 -0.3901854E-06  0.0000000E+00 -0.3194214E-03
 -0.4866782E-02  0.0000000E+00 -0.5050505E-02 -0.3863361E-06  0.0000000E+00 -0.3196918E-03
 -0.4827325E-02  0.0000000E+00 -0.5050505E-02 -0.3817409E-06  0.0000000E+00 -0.3199589E-03
 -0.4769372E-02  0.0000000E+00 -0.5050505E-02 -0.3770242E-06  0.0000000E+00 -0.3202225E-03
 -0.4690458E-02  0.0000000E+00 -0.5050505E-02 -0.3729898E-06  0.0000000E+00 -0.3204826E-03
 -0.4611543E-02  0.0000000E+00 -0.5050505E-02 -0.3707186E-06  0.0000000E+00 -0.3207398E-03
 -0.4503035E-02  0.0000000E+00 -0.5050505E-02 -0.3717348E-06  0.0000000E+00 -0.3209957E-03
 -0.4345206E-02  0.0000000E+00 -0.5050505E-02 -0.3782903E-06  0.0000000E+00 -0.3212527E-03
 -0.4187378E-02  0.0000000E+00 -0.5050505E-02 -0.3938716E-06  0.0000000E+00 -0.3215150E-03
 -0.3985156E-02  0.0000000E+00 -0.5050505E-02 -0.4241387E-06  0.0000000E+00 -0.3217892E-03
 -0.3669499E-02  0.0000000E+00 -0.5050505E-02 -0.4787449E-06  0.0000000E+00 -0.3220856E-03
 -0.3353842E-02  0.0000000E+00 -0.5050505E-02 -0.5750475E-06  0.0000000E+00 -0.3224200E-03
 -0.2978990E-02  0.0000000E+00 -0.5050505E-02 -0.7461020E-06  0.0000000E+00 -0.3228167E-03
 -0.2347676E-02  0.0000000E+00 -0.5050505E-02 -0.1058935E-05  0.0000000E+00 -0.3233101E-03
 -0.1716362E-02  0.0000000E+00 -0.5050505E-02 -0.1658916E-05  0.0000000E+00 -0.3239346E-03
 -0.1025842E-02  0.0000000E+00 -0.5050505E-02 -0.2884043E-05  0.0000000E+00 -0.3246506E-03
  0.2367855E-03  0.0000000E+00 -0.5050505E-02 -0.5575445E-05  0.0000000E+00 -0.3249605E-03
  0.1499413E-02  0.0000000E+00 -0.5050505E-02 -0.1195771E-04  0.0000000E+00 -0.3220683E-03
  0.5287294E-02  0.0000000E+00 -0.5050505E-02 -0.2819974E-04  0.0000000E+00 -0.3022203E-03
 -0.5050505E-02  0.0000000E+00 -0.5050505E-02  0.1073211E-07  0.0000000E+00 -0.3251547E-03
 -0.5050505E-02  0.0000000E+00 -0.5050505E-02  0.3218724E-07  0.0000000E+00 -0.3251456E-03
 -0.5050505E-02  0.0000000E+00 -0.5050505E-02  0.5361501E-07  0.0000000E+00 -0.3251276E-03
 -0.5050505E-02  0.0000000E+00 -0.5050505E-02  0.7499709E-07  0.0000000E+00 -0.3251005E-03
 -0.5050505E-02  0.0000000E+00 -0.5050505E-02  0.9631498E-07  0.0000000E+00 -0.3250644E-03
 -0.5050505E-02  0.0000000E+00 -0.5050505E-02  0.1175500E-06  0.0000000E+00 -0.3250194E-03
 -0.5050504E-02  0.0000000E+00 -0.5050505E-02  0.1386831E-06  0.0000000E+00 -0.3249654E-03
 -0.5050501E-02  0.0000000E+00 -0.5050505E-02  0.1596950E-06  0.0000000E+00 -0.3249026E-03
 -0.5050495E-02  0.0000000E+00 -0.5050505E-02  0.1805659E-06  0.0000000E+00 -0.3248310E-03
 -0.5050482E-02  0.0000000E+00 -0.5050505E-02  0.2012755E-06  0.0000000E+00 -0.3247506E-03
 -0.5050449E-02  0.0000000E+00 -0.5050505E-02  0.2218032E-06  0.0000000E+00 -0.3246615E-03
 -0.5050376E-02  0.0000000E+00 -0.5050505E-02  0.2421276E-06  0.0000000E+00 -0.3245638E-03
 -0.5050299E-02  0.0000000E+00 -0.5050505E-02  0.2622266E-06  0.0000000E+00 -0.3244576E-03
 -0.5050178E-02  0.0000000E+00 -0.5050505E-02  0.2820777E-06  0.0000000E+00 -0.3243430E-03
 -0.5050018E-02  0.0000000E+00 -0.5050505E-02  0.3016572E-06  0.0000000E+00 -0.3242201E-03
 -0.5049710E-02  0.0000000E+00 -0.5050505E-02  0.3209411E-06  0.0000000E+00 -0.3240889E-03
 -0.5049253E-02  0.0000000E+00 -0.5050505E-02  0.3399040E-06  0.0000000E+00 -0.3239498E-03
 -0.5048636E-02  0.0000000E+00 -0.5050505E-02  0.3585200E-06  0.0000000E+00 -0.3238027E-03
 -0.5047442E-02  0.0000000E+00 -0.5050505E-02  0.3767620E-06  0.0000000E+00 -0.3236478E-03
 -0.5045727E-02  0.0000000E+00 -0.5050505E-02  0.3946018E-06  0.0000000E+00 -0.3234853E-03
 -0.5043261E-02  0.0000000E+00 -0.5050505E-02  0.4120102E-06  0.0000000E+00 -0.3233154E-03
 -0.5038714E-02  0.0000000E+00 -0.5050505E-02  0.4289567E-06  0.0000000E+00 -0.3231382E-03
 -0.5032318E-02  0.0000000E+00 -0.5050505E-02  0.4454095E-06  0.0000000E+00 -0.3229539E-03
 -0.5022454E-02  0.0000000E+00 -0.5050505E-02  0.4613353E-06  0.0000000E+00 -0.3227629E-03
 -0.5012589E-02  0.0000000E+00 -0.5050505E-02  0.4766994E-06  0.0000000E+00 -0.3225652E-03
 -0.5002725E-02  0.0000000E+00 -0.5050505E-02  0.4914653E-06  0.0000000E+00 -0.3223611E-03
 -0.4992860E-02  0.0000000E+00 -0.5050505E-02  0.5055945E-06  0.0000000E+00 -0.3221509E-03
 -0.4976523E-02  0.0000000E+00 -0.5050505E-02  0.5190467E-06  0.0000000E+00 -0.3219349E-03
 -0.4956794E-02  0.0000000E+00 -0.5050505E-02  0.5317789E-06  0.0000000E+00 -0.3217133E-03
 -0.4937066E-02  0.0000000E+00 -0.5050505E-02  0.5437457E-06  0.0000000E+00 -0.3214865E-03
 -0.4906239E-02  0.0000000E+00 -0.5050505E-02  0.5548985E-06  0.0000000E+00 -0.3212548E-03
 -0.4866782E-02  0.0000000E+00 -0.5050505E-02  0.5651855E-06  0.0000000E+00 -0.3210185E-03
 -0.4827325E-02  0.0000000E+00 -0.5050505E-02  0.5745509E-06  0.0000000E+00 -0.3207780E-03
 -0.4769372E-02  0.0000000E+00 -0.5050505E-02  0.5829344E-06  0.0000000E+00 -0.3205337E-03
 -0.4690458E-02  0.0000000E+00 -0.5050505E-02  0.5902708E-06  0.0000000E+00 -0.3202860E-03
 -0.4611543E-02  0.0000000E+00 -0.5050505E-02  0.5964889E-06  0.0000000E+00 -0.3200354E-03
 -0.4503035E-02  0.0000000E+00 -0.5050505E-02  0.6015113E-06  0.0000000E+00 -0.3197823E-03
 -0.4345206E-02  0.0000000E+00 -0.5050505E-02  0.6052529E-06  0.0000000E+00 -0.3195273E-03
 -0.4187378E-02  0.0000000E+00 -0.5050505E-02  0.6076204E-06  0.0000000E+00 -0.3192709E-03
 -0.3985156E-02  0.0000000E+00 -0.5050505E-02  0.6085115E-06  0.0000000E+00 -0.3190137E-03
 -0.3669499E-02  0.0000000E+00 -0.5050505E-02  0.6078134E-06  0.0000000E+00 -0.3187563E-03
 -0.3353842E-02  0.0000000E+00 -0.5050505E-02  0.6054024E-06  0.0000000E+00 -0.3184994E-03
 -0.2978990E-02  0.0000000E+00 -0.5050505E-02  0.6011432E-06  0.0000000E+00 -0.3182438E-03
 -0.2347676E-02  0.0000000E+00 -0.5050505E-02  0.5948882E-06  0.0000000E+00 -0.3179902E-03
 -0.1716362E-02  0.0000000E+00 -0.5050505E-02  0.5864772E-06  0.0000000E+00 -0.3177395E-03
 -0.1025842E-02  0.0000000E+00 -0.5050505E-02  0.5757385E-06  0.0000000E+00 -0.3174927E-03
  0.2367855E-03  0.0000000E+00 -0.5050505E-02  0.5624893E-06  0.0000000E+00 -0.3172507E-03
  0.1499413E-02  0.0000000E+00 -0.5050505E-02  0.5465384E-06  0.0000000E+00 -0.3170147E-03
  0.2762042E-02  0.0000000E+00 -0.5050505E-02  0.5276894E-06  0.0000000E+00 -0.3167858E-03
 -0.5050505E-02  0.0000000E+00 -0.5050505E-02  0.5057454E-06  0.0000000E+00 -0.3165652E-03
 -0.5050505E-02  0.0000000E+00 -0.5050505E-02  0.4805158E-06  0.0000000E+00 -0.3163545E-03
 -0.5050505E-02  0.0000000E+00 -0.5050505E-02  0.4518249E-06  0.0000000E+00 -0.3161549E-03
 -0.5050505E-02  0.0000000E+00 -0.5050505E-02  0.4195223E-06  0.0000000E+00 -0.3159680E-03
 -0.5050505E-02  0.0000000E+00 -0.5050505E-02  0.3834957E-06  0.0000000E+00 -0.3157953E-03
 -0.5050505E-02  0.0000000E+00 -0.5050505E-02  0.3436849E-06  0.0000000E+00 -0.3156386E-03
 -0.5050505E-02  0.0000000E+00 -0.5050505E-02  0.3000973E-06  0.0000000E+00 -0.3154995E-03
 -0.5050504E-02  0.0000000E+00 -0.5050505E-02  0.2528230E-06  0.0000000E+00 -0.3153797E-03
 -0.5050501E-02  0.0000000E+00 -0.5050505E-02  0.2020493E-06  0.0000000E+00 -0.3152806E-03
 -0.5050495E-02  0.0000000E+00 -0.5050505E-02  0.1480715E-06  0.0000000E+00 -0.3152039E-03
 -0.5050482E-02  0.0000000E+00 -0.5050505E-02  0.9130059E-07  0.0000000E+00 -0.3151509E-03
 -0.5050449E-02  0.0000000E+00 -0.5050505E-02  0.3226316E-07  0.0000000E+00 -0.3151228E-03
 -0.5050376E-02  0.0000000E+00 -0.5050505E-02 -0.2840505E-07  0.0000000E+00 -0.3151204E-03
 -0.5050299E-02  0.0000000E+00 -0.5050505E-02 -0.8997423E-07  0.0000000E+00 -0.3151444E-03
 -0.5050178E-02  0.0000000E+00 -0.5050505E-02 -0.1516436E-06  0.0000000E+00 -0.3151951E-03
 -0.5050018E-02  0.0000000E+00 -0.5050505E-02 -0.2125711E-06  0.0000000E+00 -0.3152722E-03
 -0.5049710E-02  0.0000000E+00 -0.5050505E-02 -0.2719070E-06  0.0000000E+00 -0.3153754E-03
 -0.5049253E-02  0.0000000E+00 -0.5050505E-02 -0.3288293E-06  0.0000000E+00 -0.3155038E-03
 -0.5048636E-02  0.0000000E+00 -0.5050505E-02 -0.3825773E-06  0.0000000E+00 -0.3156560E-03
 -0.5047442E-02  0.0000000E+00 -0.5050505E-02 -0.4324809E-06  0.0000000E+00 -0.3158306E-03
 -0.5045727E-02  0.0000000E+00 -0.5050505E-02 -0.4779826E-06  0.0000000E+00 -0.3160257E-03
 -0.5043261E-02  0.0000000E+00 -0.5050505E-02 -0.5186526E-06  0.0000000E+00 -0.3162393E-03
 -0.5038714E-02  0.0000000E+00 -0.5050505E-02 -0.5541954E-06  0.0000000E+00 -0.3164692E-03
 -0.5032318E-02  0.0000000E+00 -0.5050505E-02 -0.5844493E-06  0.0000000E+00 -0.3167130E-03
 -0.5022454E-02  0.0000000E+00 -0.5050505E-02 -0.6093801E-06  0.0000000E+00 -0.3169684E-03
 -0.5012589E-02  0.0000000E+00 -0.5050505E-02 -0.6290709E-06  0.0000000E+00 -0.3172331E-03
 -0.5002725E-02  0.0000000E+00 -0.5050505E-02 -0.6437100E-06  0.0000000E+00 -0.3175048E-03
 -0.4992860E-02  0.0000000E+00 -0.5050505E-02 -0.6535783E-06  0.0000000E+00 -0.3177815E-03
 -0.4976523E-02  0.0000000E+00 -0.5050505E-02 -0.6590388E-06  0.0000000E+00 -0.3180610E-03
 -0.4956794E-02  0.0000000E+00 -0.5050505E-02 -0.6605291E-06  0.0000000E+00 -0.3183417E-03
 -0.4937066E-02  0.0000000E+00 -0.5050505E-02 -0.6585595E-06  0.0000000E+00 -0.3186217E-03
 -0.4906239E-02  0.0000000E+00 -0.5050505E-02 -0.6537183E-06  0.0000000E+00 -0.3188997E-03
 -0.4866782E-02  0.0000000E+00 -0.5050505E-02 -0.6466865E-06  0.0000000E+00 -0.3191746E-03
 -0.4827325E-02  0.0000000E+00 -0.5050505E-02 -0.6382682E-06  0.0000000E+00 -0.3194454E-03
 -0.4769372E-02  0.0000000E+00 -0.5050505E-02 -0.6294404E-06  0.0000000E+00 -0.3197116E-03
 -0.4690458E-02  0.0000000E+00 -0.5050505E-02 -0.6214357E-06  0.0000000E+00 -0.3199729E-03
 -0.4611543E-02  0.0000000E+00 -0.5050505E-02 -0.6158762E-06  0.0000000E+00 -0.3202295E-03
 -0.4503035E-02  0.0000000E+00 -0.5050505E-02 -0.6149910E-06  0.0000000E+00 -0.3204821E-03
 -0.4345206E-02  0.0000000E+00 -0.5050505E-02 -0.6219774E-06  0.0000000E+00 -0.3207321E-03
 -0.4187378E-02  0.0000000E+00 -0.5050505E-02 -0.6416131E-06  0.0000000E+00 -0.3209815E-03
 -0.3985156E-02  0.0000000E+00 -0.5050505E-02 -0.6813197E-06  0.0000000E+00 -0.3212331E-03
 -0.3669499E-02  0.0000000E+00 -0.5050505E-02 -0.7530581E-06  0.0000000E+00 -0.3214904E-03
 -0.3353842E-02  0.0000000E+00 -0.5050505E-02 -0.8767763E-06  0.0000000E+00 -0.3217562E-03
 -0.2978990E-02  0.0000000E+00 -0.5050505E-02 -0.1086748E-05  0.0000000E+00 -0.3220293E-03
 -0.2347676E-02  0.0000000E+00 -0.5050505E-02 -0.1443063E-05  0.0000000E+00 -0.3222924E-03
 -0.1716362E-02  0.0000000E+00 -0.5050505E-02 -0.2050911E-05  0.0000000E+00 -0.3224803E-03
 -0.1025842E-02  0.0000000E+00 -0.5050505E-02 -0.3084250E-05  0.0000000E+00 -0.3223908E-03
  0.2367855E-03  0.0000000E+00 -0.5050505E-02 -0.4767794E-05  0.0000000E+00 -0.3214740E-03
  0.1499413E-02  0.0000000E+00 -0.5050505E-02 -0.7048992E-05  0.0000000E+00 -0.3184903E-03
  0.5287294E-02  0.0000000E+00 -0.5050505E-02 -0.7640419E-05  0.0000000E+00 -0.3121338E-03
 -0.5050505E-02  0.0000000E+00 -0.5050505E-02  0.1510077E-07  0.0000000E+00 -0.3245266E-03
 -0.5050505E-02  0.0000000E+00 -0.5050505E-02  0.4528960E-07  0.0000000E+00 -0.3245174E-03
 -0.5050505E-02  0.0000000E+00 -0.5050505E-02  0.7544025E-07  0.0000000E+00 -0.3244990E-03
 -0.5050505E-02  0.0000000E+00 -0.5050505E-02  0.1055271E-06  0.0000000E+00 -0.3244715E-03
 -0.5050505E-02  0.0000000E+00 -0.5050505E-02  0.1355243E-06  0.0000000E+00 -0.3244348E-03
 -0.5050505E-02  0.0000000E+00 -0.5050505E-02  0.1654057E-06  0.0000000E+00 -0.3243890E-03
 -0.5050504E-02  0.0000000E+00 -0.5050505E-02  0.1951449E-06  0.0000000E+00 -0.3243341E-03
 -0.5050501E-02  0.0000000E+00 -0.5050505E-02  0.2247147E-06  0.0000000E+00 -0.3242702E-03
 -0.5050495E-02  0.0000000E+00 -0.5050505E-02  0.2540875E-06  0.0000000E+00 -0.3241973E-03
 -0.5050482E-02  0.0000000E+00 -0.5050505E-02  0.2832352E-06  0.0000000E+00 -0.3241155E-03
 -0.5050449E-02  0.0000000E+00 -0.5050505E-02  0.3121285E-06  0.0000000E+00 -0.3240248E-03
 -0.5050376E-02  0.0000000E+00 -0.5050505E-02  0.3407379E-06  0.0000000E+00 -0.3239254E-03
 -0.5050299E-02  0.0000000E+00 -0.5050505E-02  0.3690323E-06  0.0000000E+00 -0.3238173E-03
 -0.5050178E-02  0.0000000E+00 -0.5050505E-02  0.3969802E-06  0.0000000E+00 -0.3237007E-03
 -0.5050018E-02  0.0000000E+00 -0.5050505E-02  0.4245487E-06  0.0000000E+00 -0.3235755E-03
 -0.5049710E-02  0.0000000E+00 -0.5050505E-02  0.4517038E-06  0.0000000E+00 -0.3234421E-03
 -0.5049253E-02  0.0000000E+00 -0.5050505E-02  0.4784104E-06  0.0000000E+00 -0.3233004E-03
 -0.5048636E-02  0.0000000E+00 -0.5050505E-02  0.5046321E-06  0.0000000E+00 -0.3231506E-03
 -0.5047442E-02  0.0000000E+00 -0.5050505E-02  0.5303309E-06  0.0000000E+00 -0.3229929E-03
 -0.5045727E-02  0.0000000E+00 -0.5050505E-02  0.5554675E-06  0.0000000E+00 -0.3228274E-03
 -0.5043261E-02  0.0000000E+00 -0.5050505E-02  0.5800010E-06  0.0000000E+00 -0.3226543E-03
 -0.5038714E-02  0.0000000E+00 -0.5050505E-02  0.6038887E-06  0.0000000E+00 -0.3224738E-03
 -0.5032318E-02  0.0000000E+00 -0.5050505E-02  0.6270863E-06  0.0000000E+00 -0.3222861E-03
 -0.5022454E-02  0.0000000E+00 -0.5050505E-02  0.6495473E-06  0.0000000E+00 -0.3220914E-03
 -0.5012589E-02  0.0000000E+00 -0.5050505E-02  0.6712231E-06  0.0000000E+00 -0.3218899E-03
 -0.5002725E-02  0.0000000E+00 -0.5050505E-02  0.6920628E-06  0.0000000E+00 -0.3216818E-03
 -0.4992860E-02  0.0000000E+00 -0.5050505E-02  0.7120128E-06  0.0000000E+00 -0.3214675E-03
 -0.4976523E-02  0.0000000E+00 -0.5050505E-02  0.7310167E-06  0.0000000E+00 -0.3212472E-03
 -0.4956794E-02  0.0000000E+00 -0.5050505E-02  0.7490148E-06  0.0000000E+00 -0.3210212E-03
 -0.4937066E-02  0.0000000E+00 -0.5050505E-02  0.7659438E-06  0.0000000E+00 -0.3207898E-03