title = "dataset feddes"
variables = "x", "y", "z", "vx", "vy", "vz"
zone t = "velocities, solution time =  2.300E+01 days        " i =   99, j =   99, k =    1,  f=point
 -0.5050505E-02  0.0000000E+00 -0.5050505E-02  0.5498967E-09  0.0000000E+00 -0.3779768E-03
 -0.5050505E-02  0.0000000E+00 -0.5050505E-02  0.1648669E-08  0.0000000E+00 -0.3779745E-03
 -0.5050505E-02  0.0000000E+00 -0.5050505E-02  0.2744176E-08  0.0000000E+00 -0.3779699E-03
 -0.5050505E-02  0.0000000E+00 -0.5050505E-02  0.3834218E-08  0.0000000E+00 -0.3779630E-03
 -0.5050505E-02  0.0000000E+00 -0.5050505E-02  0.4916614E-08  0.0000000E+00 -0.3779539E-03
 -0.5050505E-02  0.0000000E+00 -0.5050505E-02  0.5989171E-08  0.0000000E+00 -0.3779425E-03
 -0.5050504E-02  0.0000000E+00 -0.5050505E-02  0.7049685E-08  0.0000000E+00 -0.3779289E-03
 -0.5050501E-02  0.0000000E+00 -0.5050505E-02  0.8095944E-08  0.0000000E+00 -0.3779130E-03
 -0.5050495E-02  0.0000000E+00 -0.5050505E-02  0.9125727E-08  0.0000000E+00 -0.3778950E-03
 -0.5050482E-02  0.0000000E+00 -0.5050505E-02  0.1013680E-07  0.0000000E+00 -0.3778749E-03
 -0.5050449E-02  0.0000000E+00 -0.5050505E-02  0.1112691E-07  0.0000000E+00 -0.3778527E-03
 -0.5050376E-02  0.0000000E+00 -0.5050505E-02  0.1209380E-07  0.0000000E+00 -0.3778284E-03
 -0.5050299E-02  0.0000000E+00 -0.5050505E-02  0.1303519E-07  0.0000000E+00 -0.3778021E-03
 -0.5050178E-02  0.0000000E+00 -0.5050505E-02  0.1394880E-07  0.0000000E+00 -0.3777739E-03
 -0.5050018E-02  0.0000000E+00 -0.5050505E-02  0.1483232E-07  0.0000000E+00 -0.3777439E-03
 -0.5049710E-02  0.0000000E+00 -0.5050505E-02  0.1568344E-07  0.0000000E+00 -0.3777120E-03
 -0.5049253E-02  0.0000000E+00 -0.5050505E-02  0.1649984E-07  0.0000000E+00 -0.3776783E-03
 -0.5048636E-02  0.0000000E+00 -0.5050505E-02  0.1727916E-07  0.0000000E+00 -0.3776430E-03
 -0.5047442E-02  0.0000000E+00 -0.5050505E-02  0.1801908E-07  0.0000000E+00 -0.3776062E-03
 -0.5045727E-02  0.0000000E+00 -0.5050505E-02  0.1871723E-07  0.0000000E+00 -0.3775678E-03
 -0.5043261E-02  0.0000000E+00 -0.5050505E-02  0.1937126E-07  0.0000000E+00 -0.3775280E-03
 -0.5038714E-02  0.0000000E+00 -0.5050505E-02  0.1997882E-07  0.0000000E+00 -0.3774868E-03
 -0.5032318E-02  0.0000000E+00 -0.5050505E-02  0.2053754E-07  0.0000000E+00 -0.3774445E-03
 -0.5022454E-02  0.0000000E+00 -0.5050505E-02  0.2104508E-07  0.0000000E+00 -0.3774011E-03
 -0.5012589E-02  0.0000000E+00 -0.5050505E-02  0.2149911E-07  0.0000000E+00 -0.3773566E-03
 -0.5002725E-02  0.0000000E+00 -0.5050505E-02  0.2189731E-07  0.0000000E+00 -0.3773112E-03
 -0.4992860E-02  0.0000000E+00 -0.5050505E-02  0.2223737E-07  0.0000000E+00 -0.3772651E-03
 -0.4976523E-02  0.0000000E+00 -0.5050505E-02  0.2251705E-07  0.0000000E+00 -0.3772184E-03
 -0.4956794E-02  0.0000000E+00 -0.5050505E-02  0.2273410E-07  0.0000000E+00 -0.3771711E-03
 -0.4937066E-02  0.0000000E+00 -0.5050505E-02  0.2288635E-07  0.0000000E+00 -0.3771234E-03
 -0.4906239E-02  0.0000000E+00 -0.5050505E-02  0.2297168E-07  0.0000000E+00 -0.3770755E-03
 -0.4866782E-02  0.0000000E+00 -0.5050505E-02  0.2298803E-07  0.0000000E+00 -0.3770274E-03
 -0.4827325E-02  0.0000000E+00 -0.5050505E-02  0.2293343E-07  0.0000000E+00 -0.3769795E-03
 -0.4769372E-02  0.0000000E+00 -0.5050505E-02  0.2280601E-07  0.0000000E+00 -0.3769317E-03
 -0.4690458E-02  0.0000000E+00 -0.5050505E-02  0.2260399E-07  0.0000000E+00 -0.3768842E-03
 -0.4611543E-02  0.0000000E+00 -0.5050505E-02  0.2232575E-07  0.0000000E+00 -0.3768373E-03
 -0.4503035E-02  0.0000000E+00 -0.5050505E-02  0.2196981E-07  0.0000000E+00 -0.3767910E-03
 -0.4345206E-02  0.0000000E+00 -0.5050505E-02  0.2153487E-07  0.0000000E+00 -0.3767455E-03
 -0.4187378E-02  0.0000000E+00 -0.5050505E-02  0.2101983E-07  0.0000000E+00 -0.3767011E-03
 -0.3985156E-02  0.0000000E+00 -0.5050505E-02  0.2042382E-07  0.0000000E+00 -0.3766578E-03
 -0.3669499E-02  0.0000000E+00 -0.5050505E-02  0.1974625E-07  0.0000000E+00 -0.3766158E-03
 -0.3353842E-02  0.0000000E+00 -0.5050505E-02  0.1898681E-07  0.0000000E+00 -0.3765753E-03
 -0.2978990E-02  0.0000000E+00 -0.5050505E-02  0.1814556E-07  0.0000000E+00 -0.3765365E-03
 -0.2347676E-02  0.0000000E+00 -0.5050505E-02  0.1722291E-07  0.0000000E+00 -0.3764995E-03
 -0.1716362E-02  0.0000000E+00 -0.5050505E-02  0.1621970E-07  0.0000000E+00 -0.3764646E-03
 -0.1025842E-02  0.0000000E+00 -0.5050505E-02  0.1513726E-07  0.0000000E+00 -0.3764318E-03
  0.2367855E-03  0.0000000E+00 -0.5050505E-02  0.1397741E-07  0.0000000E+00 -0.3764014E-03
  0.1499413E-02  0.0000000E+00 -0.5050505E-02  0.1274251E-07  0.0000000E+00 -0.3763735E-03
  0.2762042E-02  0.0000000E+00 -0.5050505E-02  0.1143556E-07  0.0000000E+00 -0.3763482E-03
 -0.5050505E-02  0.0000000E+00 -0.5050505E-02  0.1006014E-07  0.0000000E+00 -0.3763258E-03
 -0.5050505E-02  0.0000000E+00 -0.5050505E-02  0.8620535E-08  0.0000000E+00 -0.3763063E-03
 -0.5050505E-02  0.0000000E+00 -0.5050505E-02  0.7121673E-08  0.0000000E+00 -0.3762898E-03
 -0.5050505E-02  0.0000000E+00 -0.5050505E-02  0.5569194E-08  0.0000000E+00 -0.3762765E-03
 -0.5050505E-02  0.0000000E+00 -0.5050505E-02  0.3969420E-08  0.0000000E+00 -0.3762666E-03
 -0.5050505E-02  0.0000000E+00 -0.5050505E-02  0.2329338E-08  0.0000000E+00 -0.3762600E-03
 -0.5050505E-02  0.0000000E+00 -0.5050505E-02  0.6565673E-09  0.0000000E+00 -0.3762569E-03
 -0.5050504E-02  0.0000000E+00 -0.5050505E-02 -0.1040700E-08  0.0000000E+00 -0.3762573E-03
 -0.5050501E-02  0.0000000E+00 -0.5050505E-02 -0.2753775E-08  0.0000000E+00 -0.3762612E-03
 -0.5050495E-02  0.0000000E+00 -0.5050505E-02 -0.4473569E-08  0.0000000E+00 -0.3762688E-03
 -0.5050482E-02  0.0000000E+00 -0.5050505E-02 -0.6190719E-08  0.0000000E+00 -0.3762799E-03
 -0.5050449E-02  0.0000000E+00 -0.5050505E-02 -0.7895720E-08  0.0000000E+00 -0.3762947E-03
 -0.5050376E-02  0.0000000E+00 -0.5050505E-02 -0.9579088E-08  0.0000000E+00 -0.3763129E-03
 -0.5050299E-02  0.0000000E+00 -0.5050505E-02 -0.1123153E-07  0.0000000E+00 -0.3763347E-03
 -0.5050178E-02  0.0000000E+00 -0.5050505E-02 -0.1284413E-07  0.0000000E+00 -0.3763598E-03
 -0.5050018E-02  0.0000000E+00 -0.5050505E-02 -0.1440856E-07  0.0000000E+00 -0.3763883E-03
 -0.5049710E-02  0.0000000E+00 -0.5050505E-02 -0.1591728E-07  0.0000000E+00 -0.3764200E-03
 -0.5049253E-02  0.0000000E+00 -0.5050505E-02 -0.1736377E-07  0.0000000E+00 -0.3764548E-03
 -0.5048636E-02  0.0000000E+00 -0.5050505E-02 -0.1874275E-07  0.0000000E+00 -0.3764925E-03
 -0.5047442E-02  0.0000000E+00 -0.5050505E-02 -0.2005042E-07  0.0000000E+00 -0.3765330E-03
 -0.5045727E-02  0.0000000E+00 -0.5050505E-02 -0.2128472E-07  0.0000000E+00 -0.3765762E-03
 -0.5043261E-02  0.0000000E+00 -0.5050505E-02 -0.2244563E-07  0.0000000E+00 -0.3766219E-03
 -0.5038714E-02  0.0000000E+00 -0.5050505E-02 -0.2353548E-07  0.0000000E+00 -0.3766700E-03
 -0.5032318E-02  0.0000000E+00 -0.5050505E-02 -0.2455933E-07  0.0000000E+00 -0.3767202E-03
 -0.5022454E-02  0.0000000E+00 -0.5050505E-02 -0.2552549E-07  0.0000000E+00 -0.3767725E-03
 -0.5012589E-02  0.0000000E+00 -0.5050505E-02 -0.2644612E-07  0.0000000E+00 -0.3768268E-03
 -0.5002725E-02  0.0000000E+00 -0.5050505E-02 -0.2733807E-07  0.0000000E+00 -0.3768830E-03
 -0.4992860E-02  0.0000000E+00 -0.5050505E-02 -0.2822400E-07  0.0000000E+00 -0.3769411E-03
 -0.4976523E-02  0.0000000E+00 -0.5050505E-02 -0.2913402E-07  0.0000000E+00 -0.3770010E-03
 -0.4956794E-02  0.0000000E+00 -0.5050505E-02 -0.3010784E-07  0.0000000E+00 -0.3770629E-03
 -0.4937066E-02  0.0000000E+00 -0.5050505E-02 -0.3119810E-07  0.0000000E+00 -0.3771270E-03
 -0.4906239E-02  0.0000000E+00 -0.5050505E-02 -0.3247503E-07  0.0000000E+00 -0.3771935E-03
 -0.4866782E-02  0.0000000E+00 -0.5050505E-02 -0.3403353E-07  0.0000000E+00 -0.3772630E-03
 -0.4827325E-02  0.0000000E+00 -0.5050505E-02 -0.3600383E-07  0.0000000E+00 -0.3773362E-03
 -0.4769372E-02  0.0000000E+00 -0.5050505E-02 -0.3856806E-07  0.0000000E+00 -0.3774142E-03
 -0.4690458E-02  0.0000000E+00 -0.5050505E-02 -0.4198662E-07  0.0000000E+00 -0.3774983E-03
 -0.4611543E-02  0.0000000E+00 -0.5050505E-02 -0.4664113E-07  0.0000000E+00 -0.3775910E-03
 -0.4503035E-02  0.0000000E+00 -0.5050505E-02 -0.5310700E-07  0.0000000E+00 -0.3776952E-03
 -0.4345206E-02  0.0000000E+00 -0.5050505E-02 -0.6228018E-07  0.0000000E+00 -0.3778158E-03
 -0.4187378E-02  0.0000000E+00 -0.5050505E-02 -0.7560830E-07  0.0000000E+00 -0.3779599E-03
 -0.3985156E-02  0.0000000E+00 -0.5050505E-02 -0.9553278E-07  0.0000000E+00 -0.3781387E-03
 -0.3669499E-02  0.0000000E+00 -0.5050505E-02 -0.1263837E-06  0.0000000E+00 -0.3783707E-03
 -0.3353842E-02  0.0000000E+00 -0.5050505E-02 -0.1763125E-06  0.0000000E+00 -0.3786870E-03
 -0.2978990E-02  0.0000000E+00 -0.5050505E-02 -0.2617936E-06  0.0000000E+00 -0.3791449E-03
 -0.2347676E-02  0.0000000E+00 -0.5050505E-02 -0.4190367E-06  0.0000000E+00 -0.3798565E-03
 -0.1716362E-02  0.0000000E+00 -0.5050505E-02 -0.7357341E-06  0.0000000E+00 -0.3810636E-03
 -0.1025842E-02  0.0000000E+00 -0.5050505E-02 -0.1448302E-05  0.0000000E+00 -0.3833469E-03
  0.2367855E-03  0.0000000E+00 -0.5050505E-02 -0.3269155E-05  0.0000000E+00 -0.3882802E-03
  0.1499413E-02  0.0000000E+00 -0.5050505E-02 -0.8587841E-05  0.0000000E+00 -0.4006875E-03
  0.5287294E-02  0.0000000E+00 -0.5050505E-02 -0.1410091E-03  0.0000000E+00 -0.3195836E-03
 -0.5050505E-02  0.0000000E+00 -0.5050505E-02  0.1653045E-08  0.0000000E+00 -0.3777161E-03
 -0.5050505E-02  0.0000000E+00 -0.5050505E-02  0.4956027E-08  0.0000000E+00 -0.3777138E-03
 -0.5050505E-02  0.0000000E+00 -0.5050505E-02  0.8249213E-08  0.0000000E+00 -0.3777091E-03
 -0.5050505E-02  0.0000000E+00 -0.5050505E-02  0.1152600E-07  0.0000000E+00 -0.3777022E-03
 -0.5050505E-02  0.0000000E+00 -0.5050505E-02  0.1477984E-07  0.0000000E+00 -0.3776930E-03
 -0.5050505E-02  0.0000000E+00 -0.5050505E-02  0.1800415E-07  0.0000000E+00 -0.3776815E-03
 -0.5050504E-02  0.0000000E+00 -0.5050505E-02  0.2119232E-07  0.0000000E+00 -0.3776678E-03
 -0.5050501E-02  0.0000000E+00 -0.5050505E-02  0.2433770E-07  0.0000000E+00 -0.3776519E-03
 -0.5050495E-02  0.0000000E+00 -0.5050505E-02  0.2743362E-07  0.0000000E+00 -0.3776337E-03
 -0.5050482E-02  0.0000000E+00 -0.5050505E-02  0.3047338E-07  0.0000000E+00 -0.3776135E-03
 -0.5050449E-02  0.0000000E+00 -0.5050505E-02  0.3345022E-07  0.0000000E+00 -0.3775911E-03
 -0.5050376E-02  0.0000000E+00 -0.5050505E-02  0.3635737E-07  0.0000000E+00 -0.3775666E-03
 -0.5050299E-02  0.0000000E+00 -0.5050505E-02  0.3918797E-07  0.0000000E+00 -0.3775402E-03
 -0.5050178E-02  0.0000000E+00 -0.5050505E-02  0.4193518E-07  0.0000000E+00 -0.3775118E-03
 -0.5050018E-02  0.0000000E+00 -0.5050505E-02  0.4459207E-07  0.0000000E+00 -0.3774814E-03
 -0.5049710E-02  0.0000000E+00 -0.5050505E-02  0.4715168E-07  0.0000000E+00 -0.3774493E-03
 -0.5049253E-02  0.0000000E+00 -0.5050505E-02  0.4960704E-07  0.0000000E+00 -0.3774154E-03
 -0.5048636E-02  0.0000000E+00 -0.5050505E-02  0.5195112E-07  0.0000000E+00 -0.3773799E-03
 -0.5047442E-02  0.0000000E+00 -0.5050505E-02  0.5417687E-07  0.0000000E+00 -0.3773427E-03
 -0.5045727E-02  0.0000000E+00 -0.5050505E-02  0.5627723E-07  0.0000000E+00 -0.3773040E-03
 -0.5043261E-02  0.0000000E+00 -0.5050505E-02  0.5824512E-07  0.0000000E+00 -0.3772639E-03
 -0.5038714E-02  0.0000000E+00 -0.5050505E-02  0.6007345E-07  0.0000000E+00 -0.3772224E-03
 -0.5032318E-02  0.0000000E+00 -0.5050505E-02  0.6175515E-07  0.0000000E+00 -0.3771797E-03
 -0.5022454E-02  0.0000000E+00 -0.5050505E-02  0.6328315E-07  0.0000000E+00 -0.3771359E-03
 -0.5012589E-02  0.0000000E+00 -0.5050505E-02  0.6465045E-07  0.0000000E+00 -0.3770911E-03
 -0.5002725E-02  0.0000000E+00 -0.5050505E-02  0.6585006E-07  0.0000000E+00 -0.3770454E-03
 -0.4992860E-02  0.0000000E+00 -0.5050505E-02  0.6687509E-07  0.0000000E+00 -0.3769989E-03
 -0.4976523E-02  0.0000000E+00 -0.5050505E-02  0.6771871E-07  0.0000000E+00 -0.3769517E-03
 -0.4956794E-02  0.0000000E+00 -0.5050505E-02  0.6837424E-07  0.0000000E+00 -0.3769040E-03
 -0.4937066E-02  0.0000000E+00 -0.5050505E-02  0.6883509E-07  0.0000000E+00 -0.3768559E-03
 -0.4906239E-02  0.0000000E+00 -0.5050505E-02  0.6909489E-07  0.0000000E+00 -0.3768076E-03
 -0.4866782E-02  0.0000000E+00 -0.5050505E-02  0.6914744E-07  0.0000000E+00 -0.3767591E-03
 -0.4827325E-02  0.0000000E+00 -0.5050505E-02  0.6898679E-07  0.0000000E+00 -0.3767107E-03
 -0.4769372E-02  0.0000000E+00 -0.5050505E-02  0.6860728E-07  0.0000000E+00 -0.3766624E-03
 -0.4690458E-02  0.0000000E+00 -0.5050505E-02  0.6800359E-07  0.0000000E+00 -0.3766145E-03
 -0.4611543E-02  0.0000000E+00 -0.5050505E-02  0.6717078E-07  0.0000000E+00 -0.3765671E-03
 -0.4503035E-02  0.0000000E+00 -0.5050505E-02  0.6610437E-07  0.0000000E+00 -0.3765204E-03
 -0.4345206E-02  0.0000000E+00 -0.5050505E-02  0.6480041E-07  0.0000000E+00 -0.3764745E-03
 -0.4187378E-02  0.0000000E+00 -0.5050505E-02  0.6325557E-07  0.0000000E+00 -0.3764295E-03
 -0.3985156E-02  0.0000000E+00 -0.5050505E-02  0.6146719E-07  0.0000000E+00 -0.3763858E-03
 -0.3669499E-02  0.0000000E+00 -0.5050505E-02  0.5943342E-07  0.0000000E+00 -0.3763433E-03
 -0.3353842E-02  0.0000000E+00 -0.5050505E-02  0.5715332E-07  0.0000000E+00 -0.3763024E-03
 -0.2978990E-02  0.0000000E+00 -0.5050505E-02  0.5462694E-07  0.0000000E+00 -0.3762632E-03
 -0.2347676E-02  0.0000000E+00 -0.5050505E-02  0.5185552E-07  0.0000000E+00 -0.3762258E-03
 -0.1716362E-02  0.0000000E+00 -0.5050505E-02  0.4884151E-07  0.0000000E+00 -0.3761904E-03
 -0.1025842E-02  0.0000000E+00 -0.5050505E-02  0.4558881E-07  0.0000000E+00 -0.3761572E-03
  0.2367855E-03  0.0000000E+00 -0.5050505E-02  0.4210283E-07  0.0000000E+00 -0.3761264E-03
  0.1499413E-02  0.0000000E+00 -0.5050505E-02  0.3839066E-07  0.0000000E+00 -0.3760981E-03
  0.2762042E-02  0.0000000E+00 -0.5050505E-02  0.3446119E-07  0.0000000E+00 -0.3760725E-03
 -0.5050505E-02  0.0000000E+00 -0.5050505E-02  0.3032520E-07  0.0000000E+00 -0.3760497E-03
 -0.5050505E-02  0.0000000E+00 -0.5050505E-02  0.2599547E-07  0.0000000E+00 -0.3760299E-03
 -0.5050505E-02  0.0000000E+00 -0.5050505E-02  0.2148682E-07  0.0000000E+00 -0.3760131E-03
 -0.5050505E-02  0.0000000E+00 -0.5050505E-02  0.1681620E-07  0.0000000E+00 -0.3759996E-03
 -0.5050505E-02  0.0000000E+00 -0.5050505E-02  0.1200261E-07  0.0000000E+00 -0.3759894E-03
 -0.5050505E-02  0.0000000E+00 -0.5050505E-02  0.7067091E-08  0.0000000E+00 -0.3759826E-03
 -0.5050505E-02  0.0000000E+00 -0.5050505E-02  0.2032588E-08  0.0000000E+00 -0.3759794E-03
 -0.5050504E-02  0.0000000E+00 -0.5050505E-02 -0.3076194E-08  0.0000000E+00 -0.3759797E-03
 -0.5050501E-02  0.0000000E+00 -0.5050505E-02 -0.8233036E-08  0.0000000E+00 -0.3759835E-03
 -0.5050495E-02  0.0000000E+00 -0.5050505E-02 -0.1341050E-07  0.0000000E+00 -0.3759911E-03
 -0.5050482E-02  0.0000000E+00 -0.5050505E-02 -0.1858028E-07  0.0000000E+00 -0.3760022E-03
 -0.5050449E-02  0.0000000E+00 -0.5050505E-02 -0.2371365E-07  0.0000000E+00 -0.3760170E-03
 -0.5050376E-02  0.0000000E+00 -0.5050505E-02 -0.2878189E-07  0.0000000E+00 -0.3760354E-03
 -0.5050299E-02  0.0000000E+00 -0.5050505E-02 -0.3375686E-07  0.0000000E+00 -0.3760572E-03
 -0.5050178E-02  0.0000000E+00 -0.5050505E-02 -0.3861155E-07  0.0000000E+00 -0.3760826E-03
 -0.5050018E-02  0.0000000E+00 -0.5050505E-02 -0.4332068E-07  0.0000000E+00 -0.3761113E-03
 -0.5049710E-02  0.0000000E+00 -0.5050505E-02 -0.4786135E-07  0.0000000E+00 -0.3761432E-03
 -0.5049253E-02  0.0000000E+00 -0.5050505E-02 -0.5221368E-07  0.0000000E+00 -0.3761783E-03
 -0.5048636E-02  0.0000000E+00 -0.5050505E-02 -0.5636152E-07  0.0000000E+00 -0.3762163E-03
 -0.5047442E-02  0.0000000E+00 -0.5050505E-02 -0.6029316E-07  0.0000000E+00 -0.3762572E-03
 -0.5045727E-02  0.0000000E+00 -0.5050505E-02 -0.6400208E-07  0.0000000E+00 -0.3763007E-03
 -0.5043261E-02  0.0000000E+00 -0.5050505E-02 -0.6748784E-07  0.0000000E+00 -0.3763468E-03
 -0.5038714E-02  0.0000000E+00 -0.5050505E-02 -0.7075700E-07  0.0000000E+00 -0.3763952E-03
 -0.5032318E-02  0.0000000E+00 -0.5050505E-02 -0.7382425E-07  0.0000000E+00 -0.3764458E-03
 -0.5022454E-02  0.0000000E+00 -0.5050505E-02 -0.7671387E-07  0.0000000E+00 -0.3764985E-03
 -0.5012589E-02  0.0000000E+00 -0.5050505E-02 -0.7946149E-07  0.0000000E+00 -0.3765531E-03
 -0.5002725E-02  0.0000000E+00 -0.5050505E-02 -0.8211653E-07  0.0000000E+00 -0.3766096E-03
 -0.4992860E-02  0.0000000E+00 -0.5050505E-02 -0.8474546E-07  0.0000000E+00 -0.3766680E-03
 -0.4976523E-02  0.0000000E+00 -0.5050505E-02 -0.8743635E-07  0.0000000E+00 -0.3767281E-03
 -0.4956794E-02  0.0000000E+00 -0.5050505E-02 -0.9030525E-07  0.0000000E+00 -0.3767901E-03
 -0.4937066E-02  0.0000000E+00 -0.5050505E-02 -0.9350545E-07  0.0000000E+00 -0.3768541E-03
 -0.4906239E-02  0.0000000E+00 -0.5050505E-02 -0.9724082E-07  0.0000000E+00 -0.3769204E-03
 -0.4866782E-02  0.0000000E+00 -0.5050505E-02 -0.1017857E-06  0.0000000E+00 -0.3769895E-03
 -0.4827325E-02  0.0000000E+00 -0.5050505E-02 -0.1075146E-06  0.0000000E+00 -0.3770619E-03
 -0.4769372E-02  0.0000000E+00 -0.5050505E-02 -0.1149486E-06  0.0000000E+00 -0.3771386E-03
 -0.4690458E-02  0.0000000E+00 -0.5050505E-02 -0.1248271E-06  0.0000000E+00 -0.3772209E-03
 -0.4611543E-02  0.0000000E+00 -0.5050505E-02 -0.1382250E-06  0.0000000E+00 -0.3773107E-03
 -0.4503035E-02  0.0000000E+00 -0.5050505E-02 -0.1567459E-06  0.0000000E+00 -0.3774106E-03
 -0.4345206E-02  0.0000000E+00 -0.5050505E-02 -0.1828550E-06  0.0000000E+00 -0.3775245E-03
 -0.4187378E-02  0.0000000E+00 -0.5050505E-02 -0.2204689E-06  0.0000000E+00 -0.3776579E-03
 -0.3985156E-02  0.0000000E+00 -0.5050505E-02 -0.2760507E-06  0.0000000E+00 -0.3778193E-03
 -0.3669499E-02  0.0000000E+00 -0.5050505E-02 -0.3607316E-06  0.0000000E+00 -0.3780213E-03
 -0.3353842E-02  0.0000000E+00 -0.5050505E-02 -0.4946409E-06  0.0000000E+00 -0.3782830E-03
 -0.2978990E-02  0.0000000E+00 -0.5050505E-02 -0.7162435E-06  0.0000000E+00 -0.3786334E-03
 -0.2347676E-02  0.0000000E+00 -0.5050505E-02 -0.1103706E-05  0.0000000E+00 -0.3791134E-03
 -0.1716362E-02  0.0000000E+00 -0.5050505E-02 -0.1826850E-05  0.0000000E+00 -0.3797645E-03
 -0.1025842E-02  0.0000000E+00 -0.5050505E-02 -0.3281204E-05  0.0000000E+00 -0.3805422E-03
  0.2367855E-03  0.0000000E+00 -0.5050505E-02 -0.6452987E-05  0.0000000E+00 -0.3808662E-03
  0.1499413E-02  0.0000000E+00 -0.5050505E-02 -0.1395652E-04  0.0000000E+00 -0.3774518E-03
  0.5287294E-02  0.0000000E+00 -0.5050505E-02 -0.3306108E-04  0.0000000E+00 -0.3540858E-03
 -0.5050505E-02  0.0000000E+00 -0.5050505E-02  0.2766677E-08  0.0000000E+00 -0.3772069E-03
 -0.5050505E-02  0.0000000E+00 -0.5050505E-02  0.8294777E-08  0.0000000E+00 -0.3772046E-03
 -0.5050505E-02  0.0000000E+00 -0.5050505E-02  0.1380654E-07  0.0000000E+00 -0.3771999E-03
 -0.5050505E-02  0.0000000E+00 -0.5050505E-02  0.1929095E-07  0.0000000E+00 -0.3771929E-03
 -0.5050505E-02  0.0000000E+00 -0.5050505E-02  0.2473707E-07  0.0000000E+00 -0.3771835E-03
 -0.5050505E-02  0.0000000E+00 -0.5050505E-02  0.3013392E-07  0.0000000E+00 -0.3771719E-03
 -0.5050504E-02  0.0000000E+00 -0.5050505E-02  0.3547047E-07  0.0000000E+00 -0.3771579E-03
 -0.5050501E-02  0.0000000E+00 -0.5050505E-02  0.4073562E-07  0.0000000E+00 -0.3771418E-03
 -0.5050495E-02  0.0000000E+00 -0.5050505E-02  0.4591825E-07  0.0000000E+00 -0.3771234E-03
 -0.5050482E-02  0.0000000E+00 -0.5050505E-02  0.5100716E-07  0.0000000E+00 -0.3771028E-03
 -0.5050449E-02  0.0000000E+00 -0.5050505E-02  0.5599108E-07  0.0000000E+00 -0.3770801E-03
 -0.5050376E-02  0.0000000E+00 -0.5050505E-02  0.6085868E-07  0.0000000E+00 -0.3770553E-03
 -0.5050299E-02  0.0000000E+00 -0.5050505E-02  0.6559855E-07  0.0000000E+00 -0.3770285E-03
 -0.5050178E-02  0.0000000E+00 -0.5050505E-02  0.7019922E-07  0.0000000E+00 -0.3769996E-03
 -0.5050018E-02  0.0000000E+00 -0.5050505E-02  0.7464914E-07  0.0000000E+00 -0.3769689E-03
 -0.5049710E-02  0.0000000E+00 -0.5050505E-02  0.7893671E-07  0.0000000E+00 -0.3769363E-03
 -0.5049253E-02  0.0000000E+00 -0.5050505E-02  0.8305023E-07  0.0000000E+00 -0.3769019E-03
 -0.5048636E-02  0.0000000E+00 -0.5050505E-02  0.8697799E-07  0.0000000E+00 -0.3768658E-03
 -0.5047442E-02  0.0000000E+00 -0.5050505E-02  0.9070819E-07  0.0000000E+00 -0.3768280E-03
 -0.5045727E-02  0.0000000E+00 -0.5050505E-02  0.9422904E-07  0.0000000E+00 -0.3767887E-03
 -0.5043261E-02  0.0000000E+00 -0.5050505E-02  0.9752869E-07  0.0000000E+00 -0.3767480E-03
 -0.5038714E-02  0.0000000E+00 -0.5050505E-02  0.1005953E-06  0.0000000E+00 -0.3767059E-03
 -0.5032318E-02  0.0000000E+00 -0.5050505E-02  0.1034170E-06  0.0000000E+00 -0.3766625E-03
 -0.5022454E-02  0.0000000E+00 -0.5050505E-02  0.1059820E-06  0.0000000E+00 -0.3766180E-03
 -0.5012589E-02  0.0000000E+00 -0.5050505E-02  0.1082786E-06  0.0000000E+00 -0.3765725E-03
 -0.5002725E-02  0.0000000E+00 -0.5050505E-02  0.1102950E-06  0.0000000E+00 -0.3765260E-03
 -0.4992860E-02  0.0000000E+00 -0.5050505E-02  0.1120198E-06  0.0000000E+00 -0.3764787E-03
 -0.4976523E-02  0.0000000E+00 -0.5050505E-02  0.1134414E-06  0.0000000E+00 -0.3764308E-03
 -0.4956794E-02  0.0000000E+00 -0.5050505E-02  0.1145487E-06  0.0000000E+00 -0.3763823E-03
 -0.4937066E-02  0.0000000E+00 -0.5050505E-02  0.1153306E-06  0.0000000E+00 -0.3763333E-03
 -0.4906239E-02  0.0000000E+00 -0.5050505E-02  0.1157763E-06  0.0000000E+00 -0.3762842E-03
 -0.4866782E-02  0.0000000E+00 -0.5050505E-02  0.1158756E-06  0.0000000E+00 -0.3762348E-03
 -0.4827325E-02  0.0000000E+00 -0.5050505E-02  0.1156183E-06  0.0000000E+00 -0.3761855E-03
 -0.4769372E-02  0.0000000E+00 -0.5050505E-02  0.1149950E-06  0.0000000E+00 -0.3761364E-03
 -0.4690458E-02  0.0000000E+00 -0.5050505E-02  0.1139965E-06  0.0000000E+00 -0.3760876E-03
 -0.4611543E-02  0.0000000E+00 -0.5050505E-02  0.1126146E-06  0.0000000E+00 -0.3760393E-03
 -0.4503035E-02  0.0000000E+00 -0.5050505E-02  0.1108417E-06  0.0000000E+00 -0.3759916E-03
 -0.4345206E-02  0.0000000E+00 -0.5050505E-02  0.1086710E-06  0.0000000E+00 -0.3759448E-03
 -0.4187378E-02  0.0000000E+00 -0.5050505E-02  0.1060968E-06  0.0000000E+00 -0.3758990E-03
 -0.3985156E-02  0.0000000E+00 -0.5050505E-02  0.1031146E-06  0.0000000E+00 -0.3758543E-03
 -0.3669499E-02  0.0000000E+00 -0.5050505E-02  0.9972093E-07  0.0000000E+00 -0.3758109E-03
 -0.3353842E-02  0.0000000E+00 -0.5050505E-02  0.9591418E-07  0.0000000E+00 -0.3757691E-03
 -0.2978990E-02  0.0000000E+00 -0.5050505E-02  0.9169423E-07  0.0000000E+00 -0.3757290E-03
 -0.2347676E-02  0.0000000E+00 -0.5050505E-02  0.8706290E-07  0.0000000E+00 -0.3756907E-03
 -0.1716362E-02  0.0000000E+00 -0.5050505E-02  0.8202412E-07  0.0000000E+00 -0.3756545E-03
 -0.1025842E-02  0.0000000E+00 -0.5050505E-02  0.7658418E-07  0.0000000E+00 -0.3756205E-03
  0.2367855E-03  0.0000000E+00 -0.5050505E-02  0.7075193E-07  0.0000000E+00 -0.3755889E-03
  0.1499413E-02  0.0000000E+00 -0.5050505E-02  0.6453904E-07  0.0000000E+00 -0.3755598E-03
  0.2762042E-02  0.0000000E+00 -0.5050505E-02  0.5796018E-07  0.0000000E+00 -0.3755335E-03
 -0.5050505E-02  0.0000000E+00 -0.5050505E-02  0.5103324E-07  0.0000000E+00 -0.3755100E-03
 -0.5050505E-02  0.0000000E+00 -0.5050505E-02  0.4377946E-07  0.0000000E+00 -0.3754896E-03
 -0.5050505E-02  0.0000000E+00 -0.5050505E-02  0.3622360E-07  0.0000000E+00 -0.3754723E-03
 -0.5050505E-02  0.0000000E+00 -0.5050505E-02  0.2839395E-07  0.0000000E+00 -0.3754582E-03
 -0.5050505E-02  0.0000000E+00 -0.5050505E-02  0.2032234E-07  0.0000000E+00 -0.3754476E-03
 -0.5050505E-02  0.0000000E+00 -0.5050505E-02  0.1204408E-07  0.0000000E+00 -0.3754405E-03
 -0.5050505E-02  0.0000000E+00 -0.5050505E-02  0.3597743E-08  0.0000000E+00 -0.3754369E-03
 -0.5050504E-02  0.0000000E+00 -0.5050505E-02 -0.4975069E-08  0.0000000E+00 -0.3754369E-03
 -0.5050501E-02  0.0000000E+00 -0.5050505E-02 -0.1363015E-07  0.0000000E+00 -0.3754407E-03
 -0.5050495E-02  0.0000000E+00 -0.5050505E-02 -0.2232116E-07  0.0000000E+00 -0.3754482E-03
 -0.5050482E-02  0.0000000E+00 -0.5050505E-02 -0.3100025E-07  0.0000000E+00 -0.3754593E-03
 -0.5050449E-02  0.0000000E+00 -0.5050505E-02 -0.3961874E-07  0.0000000E+00 -0.3754742E-03
 -0.5050376E-02  0.0000000E+00 -0.5050505E-02 -0.4812795E-07  0.0000000E+00 -0.3754928E-03
 -0.5050299E-02  0.0000000E+00 -0.5050505E-02 -0.5648008E-07  0.0000000E+00 -0.3755149E-03
 -0.5050178E-02  0.0000000E+00 -0.5050505E-02 -0.6462918E-07  0.0000000E+00 -0.3755406E-03
 -0.5050018E-02  0.0000000E+00 -0.5050505E-02 -0.7253213E-07  0.0000000E+00 -0.3755697E-03
 -0.5049710E-02  0.0000000E+00 -0.5050505E-02 -0.8014980E-07  0.0000000E+00 -0.3756022E-03
 -0.5049253E-02  0.0000000E+00 -0.5050505E-02 -0.8744804E-07  0.0000000E+00 -0.3756378E-03
 -0.5048636E-02  0.0000000E+00 -0.5050505E-02 -0.9439890E-07  0.0000000E+00 -0.3756764E-03
 -0.5047442E-02  0.0000000E+00 -0.5050505E-02 -0.1009818E-06  0.0000000E+00 -0.3757180E-03
 -0.5045727E-02  0.0000000E+00 -0.5050505E-02 -0.1071848E-06  0.0000000E+00 -0.3757622E-03
 -0.5043261E-02  0.0000000E+00 -0.5050505E-02 -0.1130059E-06  0.0000000E+00 -0.3758090E-03
 -0.5038714E-02  0.0000000E+00 -0.5050505E-02 -0.1184546E-06  0.0000000E+00 -0.3758582E-03
 -0.5032318E-02  0.0000000E+00 -0.5050505E-02 -0.1235539E-06  0.0000000E+00 -0.3759095E-03
 -0.5022454E-02  0.0000000E+00 -0.5050505E-02 -0.1283420E-06  0.0000000E+00 -0.3759630E-03
 -0.5012589E-02  0.0000000E+00 -0.5050505E-02 -0.1328757E-06  0.0000000E+00 -0.3760183E-03
 -0.5002725E-02  0.0000000E+00 -0.5050505E-02 -0.1372337E-06  0.0000000E+00 -0.3760754E-03
 -0.4992860E-02  0.0000000E+00 -0.5050505E-02 -0.1415220E-06  0.0000000E+00 -0.3761342E-03
 -0.4976523E-02  0.0000000E+00 -0.5050505E-02 -0.1458802E-06  0.0000000E+00 -0.3761947E-03
 -0.4956794E-02  0.0000000E+00 -0.5050505E-02 -0.1504918E-06  0.0000000E+00 -0.3762569E-03
 -0.4937066E-02  0.0000000E+00 -0.5050505E-02 -0.1555979E-06  0.0000000E+00 -0.3763209E-03
 -0.4906239E-02  0.0000000E+00 -0.5050505E-02 -0.1615167E-06  0.0000000E+00 -0.3763869E-03
 -0.4866782E-02  0.0000000E+00 -0.5050505E-02 -0.1686729E-06  0.0000000E+00 -0.3764551E-03
 -0.4827325E-02  0.0000000E+00 -0.5050505E-02 -0.1776412E-06  0.0000000E+00 -0.3765261E-03
 -0.4769372E-02  0.0000000E+00 -0.5050505E-02 -0.1892112E-06  0.0000000E+00 -0.3766006E-03
 -0.4690458E-02  0.0000000E+00 -0.5050505E-02 -0.2044890E-06  0.0000000E+00 -0.3766795E-03
 -0.4611543E-02  0.0000000E+00 -0.5050505E-02 -0.2250553E-06  0.0000000E+00 -0.3767640E-03
 -0.4503035E-02  0.0000000E+00 -0.5050505E-02 -0.2532218E-06  0.0000000E+00 -0.3768561E-03
 -0.4345206E-02  0.0000000E+00 -0.5050505E-02 -0.2924527E-06  0.0000000E+00 -0.3769581E-03
 -0.4187378E-02  0.0000000E+00 -0.5050505E-02 -0.3480797E-06  0.0000000E+00 -0.3770731E-03
 -0.3985156E-02  0.0000000E+00 -0.5050505E-02 -0.4285444E-06  0.0000000E+00 -0.3772051E-03
 -0.3669499E-02  0.0000000E+00 -0.5050505E-02 -0.5476142E-06  0.0000000E+00 -0.3773588E-03
 -0.3353842E-02  0.0000000E+00 -0.5050505E-02 -0.7284198E-06  0.0000000E+00 -0.3775382E-03
 -0.2978990E-02  0.0000000E+00 -0.5050505E-02 -0.1010891E-05  0.0000000E+00 -0.3777421E-03
 -0.2347676E-02  0.0000000E+00 -0.5050505E-02 -0.1465269E-05  0.0000000E+00 -0.3779513E-03
 -0.1716362E-02  0.0000000E+00 -0.5050505E-02 -0.2214877E-05  0.0000000E+00 -0.3780898E-03
 -0.1025842E-02  0.0000000E+00 -0.5050505E-02 -0.3464363E-05  0.0000000E+00 -0.3779213E-03
  0.2367855E-03  0.0000000E+00 -0.5050505E-02 -0.5479776E-05  0.0000000E+00 -0.3767989E-03
  0.1499413E-02  0.0000000E+00 -0.5050505E-02 -0.8205461E-05  0.0000000E+00 -0.3732593E-03
  0.5287294E-02  0.0000000E+00 -0.5050505E-02 -0.8961281E-05  0.0000000E+00 -0.3657478E-03
 -0.5050505E-02  0.0000000E+00 -0.5050505E-02  0.3898284E-08  0.0000000E+00 -0.3764609E-03
 -0.5050505E-02  0.0000000E+00 -0.5050505E-02  0.1168743E-07  0.0000000E+00 -0.3764585E-03
 -0.5050505E-02  0.0000000E+00 -0.5050505E-02  0.1945365E-07  0.0000000E+00 -0.3764537E-03
 -0.5050505E-02  0.0000000E+00 -0.5050505E-02  0.2718153E-07  0.0000000E+00 -0.3764466E-03
 -0.5050505E-02  0.0000000E+00 -0.5050505E-02  0.3485572E-07  0.0000000E+00 -0.3764370E-03
 -0.5050505E-02  0.0000000E+00 -0.5050505E-02  0.4246079E-07  0.0000000E+00 -0.3764251E-03
 -0.5050504E-02  0.0000000E+00 -0.5050505E-02  0.4998129E-07  0.0000000E+00 -0.3764109E-03
 -0.5050501E-02  0.0000000E+00 -0.5050505E-02  0.5740165E-07  0.0000000E+00 -0.3763944E-03
 -0.5050495E-02  0.0000000E+00 -0.5050505E-02  0.6470626E-07  0.0000000E+00 -0.3763756E-03
 -0.5050482E-02  0.0000000E+00 -0.5050505E-02  0.7187939E-07  0.0000000E+00 -0.3763546E-03
 -0.5050449E-02  0.0000000E+00 -0.5050505E-02  0.7890525E-07  0.0000000E+00 -0.3763314E-03
 -0.5050376E-02  0.0000000E+00 -0.5050505E-02  0.8576791E-07  0.0000000E+00 -0.3763061E-03
 -0.5050299E-02  0.0000000E+00 -0.5050505E-02  0.9245138E-07  0.0000000E+00 -0.3762787E-03
 -0.5050178E-02  0.0000000E+00 -0.5050505E-02  0.9893952E-07  0.0000000E+00 -0.3762492E-03
 -0.5050018E-02  0.0000000E+00 -0.5050505E-02  0.1052161E-06  0.0000000E+00 -0.3762178E-03
 -0.5049710E-02  0.0000000E+00 -0.5050505E-02  0.1112649E-06  0.0000000E+00 -0.3761845E-03
 -0.5049253E-02  0.0000000E+00 -0.5050505E-02  0.1170694E-06  0.0000000E+00 -0.3761494E-03
 -0.5048636E-02  0.0000000E+00 -0.5050505E-02  0.1226131E-06  0.0000000E+00 -0.3761124E-03
 -0.5047442E-02  0.0000000E+00 -0.5050505E-02  0.1278795E-06  0.0000000E+00 -0.3760739E-03
 -0.5045727E-02  0.0000000E+00 -0.5050505E-02  0.1328520E-06  0.0000000E+00 -0.3760337E-03
 -0.5043261E-02  0.0000000E+00 -0.5050505E-02  0.1375139E-06  0.0000000E+00 -0.3759920E-03
 -0.5038714E-02  0.0000000E+00 -0.5050505E-02  0.1418485E-06  0.0000000E+00 -0.3759490E-03
 -0.5032318E-02  0.0000000E+00 -0.5050505E-02  0.1458392E-06  0.0000000E+00 -0.3759046E-03
 -0.5022454E-02  0.0000000E+00 -0.5050505E-02  0.1494693E-06  0.0000000E+00 -0.3758591E-03
 -0.5012589E-02  0.0000000E+00 -0.5050505E-02  0.1527223E-06  0.0000000E+00 -0.3758124E-03
 -0.5002725E-02  0.0000000E+00 -0.5050505E-02  0.1555817E-06  0.0000000E+00 -0.3757649E-03
 -0.4992860E-02  0.0000000E+00 -0.5050505E-02  0.1580311E-06  0.0000000E+00 -0.3757164E-03
 -0.4976523E-02  0.0000000E+00 -0.5050505E-02  0.1600545E-06  0.0000000E+00 -0.3756673E-03
 -0.4956794E-02  0.0000000E+00 -0.5050505E-02  0.1616359E-06  0.0000000E+00 -0.3756176E-03
 -0.4937066E-02  0.0000000E+00 -0.5050505E-02  0.1627598E-06  0.0000000E+00 -0.3755674E-03