title = "dataset feddes"
variables = "x", "y", "z", "vx", "vy", "vz"
zone t = "velocities, solution time =  3.300E+01 days        " i =   99, j =   99, k =    1,  f=point
 -0.5050505E-02  0.0000000E+00 -0.5050505E-02  0.6822536E-08  0.0000000E+00 -0.2754174E-03
 -0.5050505E-02  0.0000000E+00 -0.5050505E-02  0.2046884E-07  0.0000000E+00 -0.2753892E-03
 -0.5050505E-02  0.0000000E+00 -0.5050505E-02  0.3411890E-07  0.0000000E+00 -0.2753328E-03
 -0.5050505E-02  0.0000000E+00 -0.5050505E-02  0.4777529E-07  0.0000000E+00 -0.2752482E-03
 -0.5050505E-02  0.0000000E+00 -0.5050505E-02  0.6144070E-07  0.0000000E+00 -0.2751354E-03
 -0.5050505E-02  0.0000000E+00 -0.5050505E-02  0.7511788E-07  0.0000000E+00 -0.2749943E-03
 -0.5050504E-02  0.0000000E+00 -0.5050505E-02  0.8880975E-07  0.0000000E+00 -0.2748250E-03
 -0.5050501E-02  0.0000000E+00 -0.5050505E-02  0.1025194E-06  0.0000000E+00 -0.2746273E-03
 -0.5050495E-02  0.0000000E+00 -0.5050505E-02  0.1162500E-06  0.0000000E+00 -0.2744013E-03
 -0.5050482E-02  0.0000000E+00 -0.5050505E-02  0.1300052E-06  0.0000000E+00 -0.2741470E-03
 -0.5050449E-02  0.0000000E+00 -0.5050505E-02  0.1437886E-06  0.0000000E+00 -0.2738642E-03
 -0.5050376E-02  0.0000000E+00 -0.5050505E-02  0.1576046E-06  0.0000000E+00 -0.2735529E-03
 -0.5050299E-02  0.0000000E+00 -0.5050505E-02  0.1714576E-06  0.0000000E+00 -0.2732130E-03
 -0.5050178E-02  0.0000000E+00 -0.5050505E-02  0.1853526E-06  0.0000000E+00 -0.2728445E-03
 -0.5050018E-02  0.0000000E+00 -0.5050505E-02  0.1992954E-06  0.0000000E+00 -0.2724472E-03
 -0.5049710E-02  0.0000000E+00 -0.5050505E-02  0.2132922E-06  0.0000000E+00 -0.2720211E-03
 -0.5049253E-02  0.0000000E+00 -0.5050505E-02  0.2273502E-06  0.0000000E+00 -0.2715661E-03
 -0.5048636E-02  0.0000000E+00 -0.5050505E-02  0.2414773E-06  0.0000000E+00 -0.2710820E-03
 -0.5047442E-02  0.0000000E+00 -0.5050505E-02  0.2556827E-06  0.0000000E+00 -0.2705687E-03
 -0.5045727E-02  0.0000000E+00 -0.5050505E-02  0.2699766E-06  0.0000000E+00 -0.2700260E-03
 -0.5043261E-02  0.0000000E+00 -0.5050505E-02  0.2843709E-06  0.0000000E+00 -0.2694537E-03
 -0.5038714E-02  0.0000000E+00 -0.5050505E-02  0.2988789E-06  0.0000000E+00 -0.2688515E-03
 -0.5032318E-02  0.0000000E+00 -0.5050505E-02  0.3135159E-06  0.0000000E+00 -0.2682194E-03
 -0.5022454E-02  0.0000000E+00 -0.5050505E-02  0.3282992E-06  0.0000000E+00 -0.2675569E-03
 -0.5012589E-02  0.0000000E+00 -0.5050505E-02  0.3432486E-06  0.0000000E+00 -0.2668638E-03
 -0.5002725E-02  0.0000000E+00 -0.5050505E-02  0.3583868E-06  0.0000000E+00 -0.2661397E-03
 -0.4992860E-02  0.0000000E+00 -0.5050505E-02  0.3737391E-06  0.0000000E+00 -0.2653843E-03
 -0.4976523E-02  0.0000000E+00 -0.5050505E-02  0.3893347E-06  0.0000000E+00 -0.2645969E-03
 -0.4956794E-02  0.0000000E+00 -0.5050505E-02  0.4052064E-06  0.0000000E+00 -0.2637771E-03
 -0.4937066E-02  0.0000000E+00 -0.5050505E-02  0.4213911E-06  0.0000000E+00 -0.2629244E-03
 -0.4906239E-02  0.0000000E+00 -0.5050505E-02  0.4379305E-06  0.0000000E+00 -0.2620380E-03
 -0.4866782E-02  0.0000000E+00 -0.5050505E-02  0.4548708E-06  0.0000000E+00 -0.2611171E-03
 -0.4827325E-02  0.0000000E+00 -0.5050505E-02  0.4722638E-06  0.0000000E+00 -0.2601610E-03
 -0.4769372E-02  0.0000000E+00 -0.5050505E-02  0.4901664E-06  0.0000000E+00 -0.2591685E-03
 -0.4690458E-02  0.0000000E+00 -0.5050505E-02  0.5086406E-06  0.0000000E+00 -0.2581387E-03
 -0.4611543E-02  0.0000000E+00 -0.5050505E-02  0.5277536E-06  0.0000000E+00 -0.2570703E-03
 -0.4503035E-02  0.0000000E+00 -0.5050505E-02  0.5475764E-06  0.0000000E+00 -0.2559618E-03
 -0.4345206E-02  0.0000000E+00 -0.5050505E-02  0.5681830E-06  0.0000000E+00 -0.2548118E-03
 -0.4187378E-02  0.0000000E+00 -0.5050505E-02  0.5896472E-06  0.0000000E+00 -0.2536186E-03
 -0.3985156E-02  0.0000000E+00 -0.5050505E-02  0.6120394E-06  0.0000000E+00 -0.2523804E-03
 -0.3669499E-02  0.0000000E+00 -0.5050505E-02  0.6354207E-06  0.0000000E+00 -0.2510953E-03
 -0.3353842E-02  0.0000000E+00 -0.5050505E-02  0.6598345E-06  0.0000000E+00 -0.2497611E-03
 -0.2978990E-02  0.0000000E+00 -0.5050505E-02  0.6852948E-06  0.0000000E+00 -0.2483757E-03
 -0.2347676E-02  0.0000000E+00 -0.5050505E-02  0.7117688E-06  0.0000000E+00 -0.2469371E-03
 -0.1716362E-02  0.0000000E+00 -0.5050505E-02  0.7391540E-06  0.0000000E+00 -0.2454433E-03
 -0.1025842E-02  0.0000000E+00 -0.5050505E-02  0.7672455E-06  0.0000000E+00 -0.2438926E-03
  0.2367855E-03  0.0000000E+00 -0.5050505E-02  0.7956930E-06  0.0000000E+00 -0.2422841E-03
  0.1499413E-02  0.0000000E+00 -0.5050505E-02  0.8239438E-06  0.0000000E+00 -0.2406175E-03
  0.2762042E-02  0.0000000E+00 -0.5050505E-02  0.8511693E-06  0.0000000E+00 -0.2388941E-03
 -0.5050505E-02  0.0000000E+00 -0.5050505E-02  0.8761750E-06  0.0000000E+00 -0.2371174E-03
 -0.5050505E-02  0.0000000E+00 -0.5050505E-02  0.8972936E-06  0.0000000E+00 -0.2352936E-03
 -0.5050505E-02  0.0000000E+00 -0.5050505E-02  0.9122715E-06  0.0000000E+00 -0.2334332E-03
 -0.5050505E-02  0.0000000E+00 -0.5050505E-02  0.9181655E-06  0.0000000E+00 -0.2315516E-03
 -0.5050505E-02  0.0000000E+00 -0.5050505E-02  0.9112869E-06  0.0000000E+00 -0.2296715E-03
 -0.5050505E-02  0.0000000E+00 -0.5050505E-02  0.8872545E-06  0.0000000E+00 -0.2278235E-03
 -0.5050505E-02  0.0000000E+00 -0.5050505E-02  0.8412472E-06  0.0000000E+00 -0.2260479E-03
 -0.5050504E-02  0.0000000E+00 -0.5050505E-02  0.7685674E-06  0.0000000E+00 -0.2243945E-03
 -0.5050501E-02  0.0000000E+00 -0.5050505E-02  0.6656075E-06  0.0000000E+00 -0.2229217E-03
 -0.5050495E-02  0.0000000E+00 -0.5050505E-02  0.5312020E-06  0.0000000E+00 -0.2216929E-03
 -0.5050482E-02  0.0000000E+00 -0.5050505E-02  0.3680949E-06  0.0000000E+00 -0.2207696E-03
 -0.5050449E-02  0.0000000E+00 -0.5050505E-02  0.1838804E-06  0.0000000E+00 -0.2202030E-03
 -0.5050376E-02  0.0000000E+00 -0.5050505E-02 -0.9484855E-08  0.0000000E+00 -0.2200239E-03
 -0.5050299E-02  0.0000000E+00 -0.5050505E-02 -0.1981166E-06  0.0000000E+00 -0.2202370E-03
 -0.5050178E-02  0.0000000E+00 -0.5050505E-02 -0.3697450E-06  0.0000000E+00 -0.2208200E-03
 -0.5050018E-02  0.0000000E+00 -0.5050505E-02 -0.5162032E-06  0.0000000E+00 -0.2217296E-03
 -0.5049710E-02  0.0000000E+00 -0.5050505E-02 -0.6339813E-06  0.0000000E+00 -0.2229105E-03
 -0.5049253E-02  0.0000000E+00 -0.5050505E-02 -0.7233689E-06  0.0000000E+00 -0.2243044E-03
 -0.5048636E-02  0.0000000E+00 -0.5050505E-02 -0.7870695E-06  0.0000000E+00 -0.2258557E-03
 -0.5047442E-02  0.0000000E+00 -0.5050505E-02 -0.8289205E-06  0.0000000E+00 -0.2275157E-03
 -0.5045727E-02  0.0000000E+00 -0.5050505E-02 -0.8529796E-06  0.0000000E+00 -0.2292438E-03
 -0.5043261E-02  0.0000000E+00 -0.5050505E-02 -0.8629938E-06  0.0000000E+00 -0.2310072E-03
 -0.5038714E-02  0.0000000E+00 -0.5050505E-02 -0.8621603E-06  0.0000000E+00 -0.2327804E-03
 -0.5032318E-02  0.0000000E+00 -0.5050505E-02 -0.8530719E-06  0.0000000E+00 -0.2345438E-03
 -0.5022454E-02  0.0000000E+00 -0.5050505E-02 -0.8377615E-06  0.0000000E+00 -0.2362825E-03
 -0.5012589E-02  0.0000000E+00 -0.5050505E-02 -0.8177885E-06  0.0000000E+00 -0.2379852E-03
 -0.5002725E-02  0.0000000E+00 -0.5050505E-02 -0.7943329E-06  0.0000000E+00 -0.2396435E-03
 -0.4992860E-02  0.0000000E+00 -0.5050505E-02 -0.7682832E-06  0.0000000E+00 -0.2412513E-03
 -0.4976523E-02  0.0000000E+00 -0.5050505E-02 -0.7403092E-06  0.0000000E+00 -0.2428037E-03
 -0.4956794E-02  0.0000000E+00 -0.5050505E-02 -0.7109216E-06  0.0000000E+00 -0.2442974E-03
 -0.4937066E-02  0.0000000E+00 -0.5050505E-02 -0.6805174E-06  0.0000000E+00 -0.2457298E-03
 -0.4906239E-02  0.0000000E+00 -0.5050505E-02 -0.6494167E-06  0.0000000E+00 -0.2470991E-03
 -0.4866782E-02  0.0000000E+00 -0.5050505E-02 -0.6178908E-06  0.0000000E+00 -0.2484041E-03
 -0.4827325E-02  0.0000000E+00 -0.5050505E-02 -0.5861875E-06  0.0000000E+00 -0.2496442E-03
 -0.4769372E-02  0.0000000E+00 -0.5050505E-02 -0.5545549E-06  0.0000000E+00 -0.2508192E-03
 -0.4690458E-02  0.0000000E+00 -0.5050505E-02 -0.5232688E-06  0.0000000E+00 -0.2519296E-03
 -0.4611543E-02  0.0000000E+00 -0.5050505E-02 -0.4926692E-06  0.0000000E+00 -0.2529763E-03
 -0.4503035E-02  0.0000000E+00 -0.5050505E-02 -0.4632154E-06  0.0000000E+00 -0.2539613E-03
 -0.4345206E-02  0.0000000E+00 -0.5050505E-02 -0.4355775E-06  0.0000000E+00 -0.2548876E-03
 -0.4187378E-02  0.0000000E+00 -0.5050505E-02 -0.4108006E-06  0.0000000E+00 -0.2557599E-03
 -0.3985156E-02  0.0000000E+00 -0.5050505E-02 -0.3906142E-06  0.0000000E+00 -0.2565860E-03
 -0.3669499E-02  0.0000000E+00 -0.5050505E-02 -0.3780573E-06  0.0000000E+00 -0.2573784E-03
 -0.3353842E-02  0.0000000E+00 -0.5050505E-02 -0.3788242E-06  0.0000000E+00 -0.2581588E-03
 -0.2978990E-02  0.0000000E+00 -0.5050505E-02 -0.4043948E-06  0.0000000E+00 -0.2589663E-03
 -0.2347676E-02  0.0000000E+00 -0.5050505E-02 -0.4799543E-06  0.0000000E+00 -0.2598782E-03
 -0.1716362E-02  0.0000000E+00 -0.5050505E-02 -0.6663670E-06  0.0000000E+00 -0.2610604E-03
 -0.1025842E-02  0.0000000E+00 -0.5050505E-02 -0.1127237E-05  0.0000000E+00 -0.2629104E-03
  0.2367855E-03  0.0000000E+00 -0.5050505E-02 -0.2353528E-05  0.0000000E+00 -0.2665014E-03
  0.1499413E-02  0.0000000E+00 -0.5050505E-02 -0.5983100E-05  0.0000000E+00 -0.2751061E-03
  0.5287294E-02  0.0000000E+00 -0.5050505E-02 -0.9704706E-04  0.0000000E+00 -0.2196167E-03
 -0.5050505E-02  0.0000000E+00 -0.5050505E-02  0.2048463E-07  0.0000000E+00 -0.2752045E-03
 -0.5050505E-02  0.0000000E+00 -0.5050505E-02  0.6145763E-07  0.0000000E+00 -0.2751762E-03
 -0.5050505E-02  0.0000000E+00 -0.5050505E-02  0.1024420E-06  0.0000000E+00 -0.2751195E-03
 -0.5050505E-02  0.0000000E+00 -0.5050505E-02  0.1434455E-06  0.0000000E+00 -0.2750345E-03
 -0.5050505E-02  0.0000000E+00 -0.5050505E-02  0.1844763E-06  0.0000000E+00 -0.2749212E-03
 -0.5050505E-02  0.0000000E+00 -0.5050505E-02  0.2255426E-06  0.0000000E+00 -0.2747795E-03
 -0.5050504E-02  0.0000000E+00 -0.5050505E-02  0.2666533E-06  0.0000000E+00 -0.2746094E-03
 -0.5050501E-02  0.0000000E+00 -0.5050505E-02  0.3078175E-06  0.0000000E+00 -0.2744109E-03
 -0.5050495E-02  0.0000000E+00 -0.5050505E-02  0.3490450E-06  0.0000000E+00 -0.2741839E-03
 -0.5050482E-02  0.0000000E+00 -0.5050505E-02  0.3903465E-06  0.0000000E+00 -0.2739284E-03
 -0.5050449E-02  0.0000000E+00 -0.5050505E-02  0.4317333E-06  0.0000000E+00 -0.2736443E-03
 -0.5050376E-02  0.0000000E+00 -0.5050505E-02  0.4732178E-06  0.0000000E+00 -0.2733316E-03
 -0.5050299E-02  0.0000000E+00 -0.5050505E-02  0.5148139E-06  0.0000000E+00 -0.2729902E-03
 -0.5050178E-02  0.0000000E+00 -0.5050505E-02  0.5565366E-06  0.0000000E+00 -0.2726200E-03
 -0.5050018E-02  0.0000000E+00 -0.5050505E-02  0.5984028E-06  0.0000000E+00 -0.2722210E-03
 -0.5049710E-02  0.0000000E+00 -0.5050505E-02  0.6404315E-06  0.0000000E+00 -0.2717930E-03
 -0.5049253E-02  0.0000000E+00 -0.5050505E-02  0.6826439E-06  0.0000000E+00 -0.2713359E-03
 -0.5048636E-02  0.0000000E+00 -0.5050505E-02  0.7250641E-06  0.0000000E+00 -0.2708496E-03
 -0.5047442E-02  0.0000000E+00 -0.5050505E-02  0.7677193E-06  0.0000000E+00 -0.2703339E-03
 -0.5045727E-02  0.0000000E+00 -0.5050505E-02  0.8106405E-06  0.0000000E+00 -0.2697887E-03
 -0.5043261E-02  0.0000000E+00 -0.5050505E-02  0.8538628E-06  0.0000000E+00 -0.2692138E-03
 -0.5038714E-02  0.0000000E+00 -0.5050505E-02  0.8974263E-06  0.0000000E+00 -0.2686089E-03
 -0.5032318E-02  0.0000000E+00 -0.5050505E-02  0.9413768E-06  0.0000000E+00 -0.2679739E-03
 -0.5022454E-02  0.0000000E+00 -0.5050505E-02  0.9857662E-06  0.0000000E+00 -0.2673084E-03
 -0.5012589E-02  0.0000000E+00 -0.5050505E-02  0.1030654E-05  0.0000000E+00 -0.2666121E-03
 -0.5002725E-02  0.0000000E+00 -0.5050505E-02  0.1076107E-05  0.0000000E+00 -0.2658847E-03
 -0.4992860E-02  0.0000000E+00 -0.5050505E-02  0.1122203E-05  0.0000000E+00 -0.2651258E-03
 -0.4976523E-02  0.0000000E+00 -0.5050505E-02  0.1169028E-05  0.0000000E+00 -0.2643348E-03
 -0.4956794E-02  0.0000000E+00 -0.5050505E-02  0.1216680E-05  0.0000000E+00 -0.2635113E-03
 -0.4937066E-02  0.0000000E+00 -0.5050505E-02  0.1265272E-05  0.0000000E+00 -0.2626547E-03
 -0.4906239E-02  0.0000000E+00 -0.5050505E-02  0.1314927E-05  0.0000000E+00 -0.2617643E-03
 -0.4866782E-02  0.0000000E+00 -0.5050505E-02  0.1365784E-05  0.0000000E+00 -0.2608393E-03
 -0.4827325E-02  0.0000000E+00 -0.5050505E-02  0.1418000E-05  0.0000000E+00 -0.2598788E-03
 -0.4769372E-02  0.0000000E+00 -0.5050505E-02  0.1471745E-05  0.0000000E+00 -0.2588819E-03
 -0.4690458E-02  0.0000000E+00 -0.5050505E-02  0.1527206E-05  0.0000000E+00 -0.2578475E-03
 -0.4611543E-02  0.0000000E+00 -0.5050505E-02  0.1584588E-05  0.0000000E+00 -0.2567743E-03
 -0.4503035E-02  0.0000000E+00 -0.5050505E-02  0.1644104E-05  0.0000000E+00 -0.2556609E-03
 -0.4345206E-02  0.0000000E+00 -0.5050505E-02  0.1705980E-05  0.0000000E+00 -0.2545057E-03
 -0.4187378E-02  0.0000000E+00 -0.5050505E-02  0.1770441E-05  0.0000000E+00 -0.2533072E-03
 -0.3985156E-02  0.0000000E+00 -0.5050505E-02  0.1837707E-05  0.0000000E+00 -0.2520634E-03
 -0.3669499E-02  0.0000000E+00 -0.5050505E-02  0.1907968E-05  0.0000000E+00 -0.2507723E-03
 -0.3353842E-02  0.0000000E+00 -0.5050505E-02  0.1981369E-05  0.0000000E+00 -0.2494319E-03
 -0.2978990E-02  0.0000000E+00 -0.5050505E-02  0.2057967E-05  0.0000000E+00 -0.2480397E-03
 -0.2347676E-02  0.0000000E+00 -0.5050505E-02  0.2137688E-05  0.0000000E+00 -0.2465937E-03
 -0.1716362E-02  0.0000000E+00 -0.5050505E-02  0.2220256E-05  0.0000000E+00 -0.2450916E-03
 -0.1025842E-02  0.0000000E+00 -0.5050505E-02  0.2305099E-05  0.0000000E+00 -0.2435316E-03
  0.2367855E-03  0.0000000E+00 -0.5050505E-02  0.2391219E-05  0.0000000E+00 -0.2419121E-03
  0.1499413E-02  0.0000000E+00 -0.5050505E-02  0.2477027E-05  0.0000000E+00 -0.2402327E-03
  0.2762042E-02  0.0000000E+00 -0.5050505E-02  0.2560121E-05  0.0000000E+00 -0.2384938E-03
 -0.5050505E-02  0.0000000E+00 -0.5050505E-02  0.2637014E-05  0.0000000E+00 -0.2366981E-03
 -0.5050505E-02  0.0000000E+00 -0.5050505E-02  0.2702804E-05  0.0000000E+00 -0.2348508E-03
 -0.5050505E-02  0.0000000E+00 -0.5050505E-02  0.2750815E-05  0.0000000E+00 -0.2329610E-03
 -0.5050505E-02  0.0000000E+00 -0.5050505E-02  0.2772252E-05  0.0000000E+00 -0.2310431E-03
 -0.5050505E-02  0.0000000E+00 -0.5050505E-02  0.2755968E-05  0.0000000E+00 -0.2291183E-03
 -0.5050505E-02  0.0000000E+00 -0.5050505E-02  0.2688538E-05  0.0000000E+00 -0.2272165E-03
 -0.5050505E-02  0.0000000E+00 -0.5050505E-02  0.2554911E-05  0.0000000E+00 -0.2253778E-03
 -0.5050504E-02  0.0000000E+00 -0.5050505E-02  0.2340011E-05  0.0000000E+00 -0.2236538E-03
 -0.5050501E-02  0.0000000E+00 -0.5050505E-02  0.2031662E-05  0.0000000E+00 -0.2221071E-03
 -0.5050495E-02  0.0000000E+00 -0.5050505E-02  0.1624922E-05  0.0000000E+00 -0.2208079E-03
 -0.5050482E-02  0.0000000E+00 -0.5050505E-02  0.1127127E-05  0.0000000E+00 -0.2198271E-03
 -0.5050449E-02  0.0000000E+00 -0.5050505E-02  0.5616026E-06  0.0000000E+00 -0.2192256E-03
 -0.5050376E-02  0.0000000E+00 -0.5050505E-02 -0.3330249E-07  0.0000000E+00 -0.2190409E-03
 -0.5050299E-02  0.0000000E+00 -0.5050505E-02 -0.6123821E-06  0.0000000E+00 -0.2192780E-03
 -0.5050178E-02  0.0000000E+00 -0.5050505E-02 -0.1136312E-05  0.0000000E+00 -0.2199084E-03
 -0.5050018E-02  0.0000000E+00 -0.5050505E-02 -0.1579985E-05  0.0000000E+00 -0.2208799E-03
 -0.5049710E-02  0.0000000E+00 -0.5050505E-02 -0.1933684E-05  0.0000000E+00 -0.2221281E-03
 -0.5049253E-02  0.0000000E+00 -0.5050505E-02 -0.2199639E-05  0.0000000E+00 -0.2235877E-03
 -0.5048636E-02  0.0000000E+00 -0.5050505E-02 -0.2387239E-05  0.0000000E+00 -0.2251992E-03
 -0.5047442E-02  0.0000000E+00 -0.5050505E-02 -0.2508927E-05  0.0000000E+00 -0.2269120E-03
 -0.5045727E-02  0.0000000E+00 -0.5050505E-02 -0.2577430E-05  0.0000000E+00 -0.2286853E-03
 -0.5043261E-02  0.0000000E+00 -0.5050505E-02 -0.2604254E-05  0.0000000E+00 -0.2304869E-03
 -0.5038714E-02  0.0000000E+00 -0.5050505E-02 -0.2599071E-05  0.0000000E+00 -0.2322923E-03
 -0.5032318E-02  0.0000000E+00 -0.5050505E-02 -0.2569635E-05  0.0000000E+00 -0.2340828E-03
 -0.5022454E-02  0.0000000E+00 -0.5050505E-02 -0.2521975E-05  0.0000000E+00 -0.2358446E-03
 -0.5012589E-02  0.0000000E+00 -0.5050505E-02 -0.2460688E-05  0.0000000E+00 -0.2375671E-03
 -0.5002725E-02  0.0000000E+00 -0.5050505E-02 -0.2389235E-05  0.0000000E+00 -0.2392427E-03
 -0.4992860E-02  0.0000000E+00 -0.5050505E-02 -0.2310215E-05  0.0000000E+00 -0.2408655E-03
 -0.4976523E-02  0.0000000E+00 -0.5050505E-02 -0.2225582E-05  0.0000000E+00 -0.2424313E-03
 -0.4956794E-02  0.0000000E+00 -0.5050505E-02 -0.2136824E-05  0.0000000E+00 -0.2439369E-03
 -0.4937066E-02  0.0000000E+00 -0.5050505E-02 -0.2045100E-05  0.0000000E+00 -0.2453800E-03
 -0.4906239E-02  0.0000000E+00 -0.5050505E-02 -0.1951339E-05  0.0000000E+00 -0.2467588E-03
 -0.4866782E-02  0.0000000E+00 -0.5050505E-02 -0.1856332E-05  0.0000000E+00 -0.2480723E-03
 -0.4827325E-02  0.0000000E+00 -0.5050505E-02 -0.1760798E-05  0.0000000E+00 -0.2493199E-03
 -0.4769372E-02  0.0000000E+00 -0.5050505E-02 -0.1665455E-05  0.0000000E+00 -0.2505014E-03
 -0.4690458E-02  0.0000000E+00 -0.5050505E-02 -0.1571093E-05  0.0000000E+00 -0.2516171E-03
 -0.4611543E-02  0.0000000E+00 -0.5050505E-02 -0.1478677E-05  0.0000000E+00 -0.2526679E-03
 -0.4503035E-02  0.0000000E+00 -0.5050505E-02 -0.1389494E-05  0.0000000E+00 -0.2536554E-03
 -0.4345206E-02  0.0000000E+00 -0.5050505E-02 -0.1305393E-05  0.0000000E+00 -0.2545820E-03
 -0.4187378E-02  0.0000000E+00 -0.5050505E-02 -0.1229206E-05  0.0000000E+00 -0.2554514E-03
 -0.3985156E-02  0.0000000E+00 -0.5050505E-02 -0.1165509E-05  0.0000000E+00 -0.2562693E-03
 -0.3669499E-02  0.0000000E+00 -0.5050505E-02 -0.1122102E-05  0.0000000E+00 -0.2570443E-03
 -0.3353842E-02  0.0000000E+00 -0.5050505E-02 -0.1113015E-05  0.0000000E+00 -0.2577896E-03
 -0.2978990E-02  0.0000000E+00 -0.5050505E-02 -0.1164966E-05  0.0000000E+00 -0.2585249E-03
 -0.2347676E-02  0.0000000E+00 -0.5050505E-02 -0.1332116E-05  0.0000000E+00 -0.2592778E-03
 -0.1716362E-02  0.0000000E+00 -0.5050505E-02 -0.1731822E-05  0.0000000E+00 -0.2600757E-03
 -0.1025842E-02  0.0000000E+00 -0.5050505E-02 -0.2636535E-05  0.0000000E+00 -0.2608856E-03
  0.2367855E-03  0.0000000E+00 -0.5050505E-02 -0.4722835E-05  0.0000000E+00 -0.2613050E-03
  0.1499413E-02  0.0000000E+00 -0.5050505E-02 -0.9775364E-05  0.0000000E+00 -0.2590888E-03
  0.5287294E-02  0.0000000E+00 -0.5050505E-02 -0.2272724E-04  0.0000000E+00 -0.2432404E-03
 -0.5050505E-02  0.0000000E+00 -0.5050505E-02  0.3420972E-07  0.0000000E+00 -0.2747868E-03
 -0.5050505E-02  0.0000000E+00 -0.5050505E-02  0.1026355E-06  0.0000000E+00 -0.2747583E-03
 -0.5050505E-02  0.0000000E+00 -0.5050505E-02  0.1710806E-06  0.0000000E+00 -0.2747011E-03
 -0.5050505E-02  0.0000000E+00 -0.5050505E-02  0.2395580E-06  0.0000000E+00 -0.2746154E-03
 -0.5050505E-02  0.0000000E+00 -0.5050505E-02  0.3080815E-06  0.0000000E+00 -0.2745011E-03
 -0.5050505E-02  0.0000000E+00 -0.5050505E-02  0.3766649E-06  0.0000000E+00 -0.2743581E-03
 -0.5050504E-02  0.0000000E+00 -0.5050505E-02  0.4453231E-06  0.0000000E+00 -0.2741866E-03
 -0.5050501E-02  0.0000000E+00 -0.5050505E-02  0.5140715E-06  0.0000000E+00 -0.2739863E-03
 -0.5050495E-02  0.0000000E+00 -0.5050505E-02  0.5829266E-06  0.0000000E+00 -0.2737573E-03
 -0.5050482E-02  0.0000000E+00 -0.5050505E-02  0.6519059E-06  0.0000000E+00 -0.2734995E-03
 -0.5050449E-02  0.0000000E+00 -0.5050505E-02  0.7210288E-06  0.0000000E+00 -0.2732130E-03
 -0.5050376E-02  0.0000000E+00 -0.5050505E-02  0.7903158E-06  0.0000000E+00 -0.2728975E-03
 -0.5050299E-02  0.0000000E+00 -0.5050505E-02  0.8597900E-06  0.0000000E+00 -0.2725531E-03
 -0.5050178E-02  0.0000000E+00 -0.5050505E-02  0.9294766E-06  0.0000000E+00 -0.2721796E-03
 -0.5050018E-02  0.0000000E+00 -0.5050505E-02  0.9994038E-06  0.0000000E+00 -0.2717771E-03
 -0.5049710E-02  0.0000000E+00 -0.5050505E-02  0.1069603E-05  0.0000000E+00 -0.2713452E-03
 -0.5049253E-02  0.0000000E+00 -0.5050505E-02  0.1140110E-05  0.0000000E+00 -0.2708841E-03
 -0.5048636E-02  0.0000000E+00 -0.5050505E-02  0.1210964E-05  0.0000000E+00 -0.2703934E-03
 -0.5047442E-02  0.0000000E+00 -0.5050505E-02  0.1282211E-05  0.0000000E+00 -0.2698732E-03
 -0.5045727E-02  0.0000000E+00 -0.5050505E-02  0.1353902E-05  0.0000000E+00 -0.2693231E-03
 -0.5043261E-02  0.0000000E+00 -0.5050505E-02  0.1426096E-05  0.0000000E+00 -0.2687430E-03
 -0.5038714E-02  0.0000000E+00 -0.5050505E-02  0.1498859E-05  0.0000000E+00 -0.2681327E-03
 -0.5032318E-02  0.0000000E+00 -0.5050505E-02  0.1572267E-05  0.0000000E+00 -0.2674920E-03
 -0.5022454E-02  0.0000000E+00 -0.5050505E-02  0.1646406E-05  0.0000000E+00 -0.2668205E-03
 -0.5012589E-02  0.0000000E+00 -0.5050505E-02  0.1721376E-05  0.0000000E+00 -0.2661180E-03
 -0.5002725E-02  0.0000000E+00 -0.5050505E-02  0.1797288E-05  0.0000000E+00 -0.2653840E-03
 -0.4992860E-02  0.0000000E+00 -0.5050505E-02  0.1874270E-05  0.0000000E+00 -0.2646183E-03
 -0.4976523E-02  0.0000000E+00 -0.5050505E-02  0.1952466E-05  0.0000000E+00 -0.2638202E-03
 -0.4956794E-02  0.0000000E+00 -0.5050505E-02  0.2032041E-05  0.0000000E+00 -0.2629894E-03
 -0.4937066E-02  0.0000000E+00 -0.5050505E-02  0.2113178E-05  0.0000000E+00 -0.2621251E-03
 -0.4906239E-02  0.0000000E+00 -0.5050505E-02  0.2196088E-05  0.0000000E+00 -0.2612268E-03
 -0.4866782E-02  0.0000000E+00 -0.5050505E-02  0.2281001E-05  0.0000000E+00 -0.2602936E-03
 -0.4827325E-02  0.0000000E+00 -0.5050505E-02  0.2368179E-05  0.0000000E+00 -0.2593246E-03
 -0.4769372E-02  0.0000000E+00 -0.5050505E-02  0.2457909E-05  0.0000000E+00 -0.2583189E-03
 -0.4690458E-02  0.0000000E+00 -0.5050505E-02  0.2550507E-05  0.0000000E+00 -0.2572754E-03
 -0.4611543E-02  0.0000000E+00 -0.5050505E-02  0.2646314E-05  0.0000000E+00 -0.2561928E-03
 -0.4503035E-02  0.0000000E+00 -0.5050505E-02  0.2745699E-05  0.0000000E+00 -0.2550697E-03
 -0.4345206E-02  0.0000000E+00 -0.5050505E-02  0.2849044E-05  0.0000000E+00 -0.2539045E-03
 -0.4187378E-02  0.0000000E+00 -0.5050505E-02  0.2956743E-05  0.0000000E+00 -0.2526955E-03
 -0.3985156E-02  0.0000000E+00 -0.5050505E-02  0.3069179E-05  0.0000000E+00 -0.2514407E-03
 -0.3669499E-02  0.0000000E+00 -0.5050505E-02  0.3186702E-05  0.0000000E+00 -0.2501381E-03
 -0.3353842E-02  0.0000000E+00 -0.5050505E-02  0.3309592E-05  0.0000000E+00 -0.2487853E-03
 -0.2978990E-02  0.0000000E+00 -0.5050505E-02  0.3438002E-05  0.0000000E+00 -0.2473800E-03
 -0.2347676E-02  0.0000000E+00 -0.5050505E-02  0.3571885E-05  0.0000000E+00 -0.2459196E-03
 -0.1716362E-02  0.0000000E+00 -0.5050505E-02  0.3710884E-05  0.0000000E+00 -0.2444015E-03
 -0.1025842E-02  0.0000000E+00 -0.5050505E-02  0.3854181E-05  0.0000000E+00 -0.2428233E-03
  0.2367855E-03  0.0000000E+00 -0.5050505E-02  0.4000294E-05  0.0000000E+00 -0.2411828E-03
  0.1499413E-02  0.0000000E+00 -0.5050505E-02  0.4146801E-05  0.0000000E+00 -0.2394785E-03
  0.2762042E-02  0.0000000E+00 -0.5050505E-02  0.4289982E-05  0.0000000E+00 -0.2377096E-03
 -0.5050505E-02  0.0000000E+00 -0.5050505E-02  0.4424352E-05  0.0000000E+00 -0.2358771E-03
 -0.5050505E-02  0.0000000E+00 -0.5050505E-02  0.4542092E-05  0.0000000E+00 -0.2339841E-03
 -0.5050505E-02  0.0000000E+00 -0.5050505E-02  0.4632395E-05  0.0000000E+00 -0.2320373E-03
 -0.5050505E-02  0.0000000E+00 -0.5050505E-02  0.4680765E-05  0.0000000E+00 -0.2300481E-03
 -0.5050505E-02  0.0000000E+00 -0.5050505E-02  0.4668443E-05  0.0000000E+00 -0.2280349E-03
 -0.5050505E-02  0.0000000E+00 -0.5050505E-02  0.4572212E-05  0.0000000E+00 -0.2260253E-03
 -0.5050505E-02  0.0000000E+00 -0.5050505E-02  0.4365091E-05  0.0000000E+00 -0.2240589E-03
 -0.5050504E-02  0.0000000E+00 -0.5050505E-02  0.4018631E-05  0.0000000E+00 -0.2221897E-03
 -0.5050501E-02  0.0000000E+00 -0.5050505E-02  0.3507741E-05  0.0000000E+00 -0.2204880E-03
 -0.5050495E-02  0.0000000E+00 -0.5050505E-02  0.2818714E-05  0.0000000E+00 -0.2190385E-03
 -0.5050482E-02  0.0000000E+00 -0.5050505E-02  0.1959913E-05  0.0000000E+00 -0.2179330E-03
 -0.5050449E-02  0.0000000E+00 -0.5050505E-02  0.9715444E-06  0.0000000E+00 -0.2172552E-03
 -0.5050376E-02  0.0000000E+00 -0.5050505E-02 -0.7331708E-07  0.0000000E+00 -0.2170590E-03
 -0.5050299E-02  0.0000000E+00 -0.5050505E-02 -0.1085347E-05  0.0000000E+00 -0.2173499E-03
 -0.5050178E-02  0.0000000E+00 -0.5050505E-02 -0.1989712E-05  0.0000000E+00 -0.2180846E-03
 -0.5050018E-02  0.0000000E+00 -0.5050505E-02 -0.2742995E-05  0.0000000E+00 -0.2191889E-03
 -0.5049710E-02  0.0000000E+00 -0.5050505E-02 -0.3332575E-05  0.0000000E+00 -0.2205784E-03
 -0.5049253E-02  0.0000000E+00 -0.5050505E-02 -0.3767344E-05  0.0000000E+00 -0.2221737E-03
 -0.5048636E-02  0.0000000E+00 -0.5050505E-02 -0.4067498E-05  0.0000000E+00 -0.2239074E-03
 -0.5047442E-02  0.0000000E+00 -0.5050505E-02 -0.4256907E-05  0.0000000E+00 -0.2257261E-03
 -0.5045727E-02  0.0000000E+00 -0.5050505E-02 -0.4358569E-05  0.0000000E+00 -0.2275892E-03
 -0.5043261E-02  0.0000000E+00 -0.5050505E-02 -0.4392453E-05  0.0000000E+00 -0.2294662E-03
 -0.5038714E-02  0.0000000E+00 -0.5050505E-02 -0.4374864E-05  0.0000000E+00 -0.2313347E-03
 -0.5032318E-02  0.0000000E+00 -0.5050505E-02 -0.4318597E-05  0.0000000E+00 -0.2331783E-03
 -0.5022454E-02  0.0000000E+00 -0.5050505E-02 -0.4233439E-05  0.0000000E+00 -0.2349853E-03
 -0.5012589E-02  0.0000000E+00 -0.5050505E-02 -0.4126763E-05  0.0000000E+00 -0.2367466E-03
 -0.5002725E-02  0.0000000E+00 -0.5050505E-02 -0.4004070E-05  0.0000000E+00 -0.2384559E-03
 -0.4992860E-02  0.0000000E+00 -0.5050505E-02 -0.3869467E-05  0.0000000E+00 -0.2401084E-03
 -0.4976523E-02  0.0000000E+00 -0.5050505E-02 -0.3726031E-05  0.0000000E+00 -0.2417005E-03
 -0.4956794E-02  0.0000000E+00 -0.5050505E-02 -0.3576099E-05  0.0000000E+00 -0.2432295E-03
 -0.4937066E-02  0.0000000E+00 -0.5050505E-02 -0.3421488E-05  0.0000000E+00 -0.2446936E-03
 -0.4906239E-02  0.0000000E+00 -0.5050505E-02 -0.3263660E-05  0.0000000E+00 -0.2460912E-03
 -0.4866782E-02  0.0000000E+00 -0.5050505E-02 -0.3103852E-05  0.0000000E+00 -0.2474215E-03
 -0.4827325E-02  0.0000000E+00 -0.5050505E-02 -0.2943187E-05  0.0000000E+00 -0.2486839E-03
 -0.4769372E-02  0.0000000E+00 -0.5050505E-02 -0.2782776E-05  0.0000000E+00 -0.2498783E-03
 -0.4690458E-02  0.0000000E+00 -0.5050505E-02 -0.2623824E-05  0.0000000E+00 -0.2510048E-03
 -0.4611543E-02  0.0000000E+00 -0.5050505E-02 -0.2467775E-05  0.0000000E+00 -0.2520640E-03
 -0.4503035E-02  0.0000000E+00 -0.5050505E-02 -0.2316505E-05  0.0000000E+00 -0.2530569E-03
 -0.4345206E-02  0.0000000E+00 -0.5050505E-02 -0.2172631E-05  0.0000000E+00 -0.2539850E-03
 -0.4187378E-02  0.0000000E+00 -0.5050505E-02 -0.2040018E-05  0.0000000E+00 -0.2548503E-03
 -0.3985156E-02  0.0000000E+00 -0.5050505E-02 -0.1924646E-05  0.0000000E+00 -0.2556557E-03
 -0.3669499E-02  0.0000000E+00 -0.5050505E-02 -0.1836140E-05  0.0000000E+00 -0.2564041E-03
 -0.3353842E-02  0.0000000E+00 -0.5050505E-02 -0.1790555E-05  0.0000000E+00 -0.2570983E-03
 -0.2978990E-02  0.0000000E+00 -0.5050505E-02 -0.1815474E-05  0.0000000E+00 -0.2577372E-03
 -0.2347676E-02  0.0000000E+00 -0.5050505E-02 -0.1959213E-05  0.0000000E+00 -0.2583072E-03
 -0.1716362E-02  0.0000000E+00 -0.5050505E-02 -0.2306200E-05  0.0000000E+00 -0.2587555E-03
 -0.1025842E-02  0.0000000E+00 -0.5050505E-02 -0.2995599E-05  0.0000000E+00 -0.2589194E-03
  0.2367855E-03  0.0000000E+00 -0.5050505E-02 -0.4205792E-05  0.0000000E+00 -0.2583579E-03
  0.1499413E-02  0.0000000E+00 -0.5050505E-02 -0.5889120E-05  0.0000000E+00 -0.2560819E-03
  0.5287294E-02  0.0000000E+00 -0.5050505E-02 -0.6202587E-05  0.0000000E+00 -0.2510596E-03
 -0.5050505E-02  0.0000000E+00 -0.5050505E-02  0.4805498E-07  0.0000000E+00 -0.2741723E-03
 -0.5050505E-02  0.0000000E+00 -0.5050505E-02  0.1441740E-06  0.0000000E+00 -0.2741434E-03
 -0.5050505E-02  0.0000000E+00 -0.5050505E-02  0.2403206E-06  0.0000000E+00 -0.2740855E-03
 -0.5050505E-02  0.0000000E+00 -0.5050505E-02  0.3365135E-06  0.0000000E+00 -0.2739987E-03
 -0.5050505E-02  0.0000000E+00 -0.5050505E-02  0.4327719E-06  0.0000000E+00 -0.2738829E-03
 -0.5050505E-02  0.0000000E+00 -0.5050505E-02  0.5291159E-06  0.0000000E+00 -0.2737381E-03
 -0.5050504E-02  0.0000000E+00 -0.5050505E-02  0.6255662E-06  0.0000000E+00 -0.2735643E-03
 -0.5050501E-02  0.0000000E+00 -0.5050505E-02  0.7221449E-06  0.0000000E+00 -0.2733615E-03
 -0.5050495E-02  0.0000000E+00 -0.5050505E-02  0.8188752E-06  0.0000000E+00 -0.2731295E-03
 -0.5050482E-02  0.0000000E+00 -0.5050505E-02  0.9157819E-06  0.0000000E+00 -0.2728685E-03
 -0.5050449E-02  0.0000000E+00 -0.5050505E-02  0.1012892E-05  0.0000000E+00 -0.2725782E-03
 -0.5050376E-02  0.0000000E+00 -0.5050505E-02  0.1110235E-05  0.0000000E+00 -0.2722586E-03
 -0.5050299E-02  0.0000000E+00 -0.5050505E-02  0.1207843E-05  0.0000000E+00 -0.2719097E-03
 -0.5050178E-02  0.0000000E+00 -0.5050505E-02  0.1305751E-05  0.0000000E+00 -0.2715314E-03
 -0.5050018E-02  0.0000000E+00 -0.5050505E-02  0.1403999E-05  0.0000000E+00 -0.2711236E-03
 -0.5049710E-02  0.0000000E+00 -0.5050505E-02  0.1502630E-05  0.0000000E+00 -0.2706862E-03
 -0.5049253E-02  0.0000000E+00 -0.5050505E-02  0.1601695E-05  0.0000000E+00 -0.2702190E-03
 -0.5048636E-02  0.0000000E+00 -0.5050505E-02  0.1701249E-05  0.0000000E+00 -0.2697219E-03
 -0.5047442E-02  0.0000000E+00 -0.5050505E-02  0.1801356E-05  0.0000000E+00 -0.2691948E-03
 -0.5045727E-02  0.0000000E+00 -0.5050505E-02  0.1902086E-05  0.0000000E+00 -0.2686375E-03
 -0.5043261E-02  0.0000000E+00 -0.5050505E-02  0.2003522E-05  0.0000000E+00 -0.2680498E-03
 -0.5038714E-02  0.0000000E+00 -0.5050505E-02  0.2105756E-05  0.0000000E+00 -0.2674314E-03
 -0.5032318E-02  0.0000000E+00 -0.5050505E-02  0.2208894E-05  0.0000000E+00 -0.2667823E-03
 -0.5022454E-02  0.0000000E+00 -0.5050505E-02  0.2313057E-05  0.0000000E+00 -0.2661019E-03
 -0.5012589E-02  0.0000000E+00 -0.5050505E-02  0.2418382E-05  0.0000000E+00 -0.2653901E-03
 -0.5002725E-02  0.0000000E+00 -0.5050505E-02  0.2525025E-05  0.0000000E+00 -0.2646465E-03
 -0.4992860E-02  0.0000000E+00 -0.5050505E-02  0.2633165E-05  0.0000000E+00 -0.2638707E-03
 -0.4976523E-02  0.0000000E+00 -0.5050505E-02  0.2743003E-05  0.0000000E+00 -0.2630621E-03
 -0.4956794E-02  0.0000000E+00 -0.5050505E-02  0.2854769E-05  0.0000000E+00 -0.2622203E-03
 -0.4937066E-02  0.0000000E+00 -0.5050505E-02  0.2968722E-05  0.0000000E+00 -0.2613448E-03