title = "dataset feddes"
variables = "x", "y", "z", "vx", "vy", "vz"
zone t = "velocities, solution time =  4.800E+01 days        " i =   99, j =   99, k =    1,  f=point
 -0.5050505E-02  0.0000000E+00 -0.5050505E-02  0.5118451E-07  0.0000000E+00 -0.6944837E-04
 -0.5050505E-02  0.0000000E+00 -0.5050505E-02  0.1536441E-06  0.0000000E+00 -0.6924181E-04
 -0.5050505E-02  0.0000000E+00 -0.5050505E-02  0.2563786E-06  0.0000000E+00 -0.6882834E-04
 -0.5050505E-02  0.0000000E+00 -0.5050505E-02  0.3595766E-06  0.0000000E+00 -0.6820726E-04
 -0.5050505E-02  0.0000000E+00 -0.5050505E-02  0.4634323E-06  0.0000000E+00 -0.6737748E-04
 -0.5050505E-02  0.0000000E+00 -0.5050505E-02  0.5681472E-06  0.0000000E+00 -0.6633755E-04
 -0.5050504E-02  0.0000000E+00 -0.5050505E-02  0.6739314E-06  0.0000000E+00 -0.6508560E-04
 -0.5050501E-02  0.0000000E+00 -0.5050505E-02  0.7810058E-06  0.0000000E+00 -0.6361936E-04
 -0.5050495E-02  0.0000000E+00 -0.5050505E-02  0.8896048E-06  0.0000000E+00 -0.6193612E-04
 -0.5050482E-02  0.0000000E+00 -0.5050505E-02  0.9999780E-06  0.0000000E+00 -0.6003268E-04
 -0.5050449E-02  0.0000000E+00 -0.5050505E-02  0.1112394E-05  0.0000000E+00 -0.5790537E-04
 -0.5050376E-02  0.0000000E+00 -0.5050505E-02  0.1227141E-05  0.0000000E+00 -0.5554996E-04
 -0.5050299E-02  0.0000000E+00 -0.5050505E-02  0.1344536E-05  0.0000000E+00 -0.5296165E-04
 -0.5050178E-02  0.0000000E+00 -0.5050505E-02  0.1464921E-05  0.0000000E+00 -0.5013498E-04
 -0.5050018E-02  0.0000000E+00 -0.5050505E-02  0.1588676E-05  0.0000000E+00 -0.4706383E-04
 -0.5049710E-02  0.0000000E+00 -0.5050505E-02  0.1716215E-05  0.0000000E+00 -0.4374127E-04
 -0.5049253E-02  0.0000000E+00 -0.5050505E-02  0.1848002E-05  0.0000000E+00 -0.4015956E-04
 -0.5048636E-02  0.0000000E+00 -0.5050505E-02  0.1984549E-05  0.0000000E+00 -0.3631000E-04
 -0.5047442E-02  0.0000000E+00 -0.5050505E-02  0.2126432E-05  0.0000000E+00 -0.3218285E-04
 -0.5045727E-02  0.0000000E+00 -0.5050505E-02  0.2274294E-05  0.0000000E+00 -0.2776719E-04
 -0.5043261E-02  0.0000000E+00 -0.5050505E-02  0.2428860E-05  0.0000000E+00 -0.2305079E-04
 -0.5038714E-02  0.0000000E+00 -0.5050505E-02  0.2590947E-05  0.0000000E+00 -0.1801995E-04
 -0.5032318E-02  0.0000000E+00 -0.5050505E-02  0.2761481E-05  0.0000000E+00 -0.1265927E-04
 -0.5022454E-02  0.0000000E+00 -0.5050505E-02  0.2941513E-05  0.0000000E+00 -0.6951470E-05
 -0.5012589E-02  0.0000000E+00 -0.5050505E-02  0.3132242E-05  0.0000000E+00 -0.8735300E-06
 -0.5002725E-02  0.0000000E+00 -0.5050505E-02  0.3334910E-05  0.0000000E+00  0.5607026E-05
 -0.4992860E-02  0.0000000E+00 -0.5050505E-02  0.3551192E-05  0.0000000E+00  0.1251807E-04
 -0.4976523E-02  0.0000000E+00 -0.5050505E-02  0.3782905E-05  0.0000000E+00  0.1988498E-04
 -0.4956794E-02  0.0000000E+00 -0.5050505E-02  0.4032146E-05  0.0000000E+00  0.2774207E-04
 -0.4937066E-02  0.0000000E+00 -0.5050505E-02  0.4301332E-05  0.0000000E+00  0.3612845E-04
 -0.4906239E-02  0.0000000E+00 -0.5050505E-02  0.4593255E-05  0.0000000E+00  0.4508871E-04
 -0.4866782E-02  0.0000000E+00 -0.5050505E-02  0.4911139E-05  0.0000000E+00  0.5467378E-04
 -0.4827325E-02  0.0000000E+00 -0.5050505E-02  0.5258701E-05  0.0000000E+00  0.6494199E-04
 -0.4769372E-02  0.0000000E+00 -0.5050505E-02  0.5640219E-05  0.0000000E+00  0.7596016E-04
 -0.4690458E-02  0.0000000E+00 -0.5050505E-02  0.6060596E-05  0.0000000E+00  0.8780496E-04
 -0.4611543E-02  0.0000000E+00 -0.5050505E-02  0.6525406E-05  0.0000000E+00  0.1005643E-03
 -0.4503035E-02  0.0000000E+00 -0.5050505E-02  0.7040919E-05  0.0000000E+00  0.1143390E-03
 -0.4345206E-02  0.0000000E+00 -0.5050505E-02  0.7614060E-05  0.0000000E+00  0.1292440E-03
 -0.4187378E-02  0.0000000E+00 -0.5050505E-02  0.8252281E-05  0.0000000E+00  0.1454106E-03
 -0.3985156E-02  0.0000000E+00 -0.5050505E-02  0.8963285E-05  0.0000000E+00  0.1629865E-03
 -0.3669499E-02  0.0000000E+00 -0.5050505E-02  0.9754537E-05  0.0000000E+00  0.1821371E-03
 -0.3353842E-02  0.0000000E+00 -0.5050505E-02  0.1063255E-04  0.0000000E+00  0.2030444E-03
 -0.2978990E-02  0.0000000E+00 -0.5050505E-02  0.1160200E-04  0.0000000E+00  0.2259043E-03
 -0.2347676E-02  0.0000000E+00 -0.5050505E-02  0.1266491E-04  0.0000000E+00  0.2509233E-03
 -0.1716362E-02  0.0000000E+00 -0.5050505E-02  0.1382063E-04  0.0000000E+00  0.2783128E-03
 -0.1025842E-02  0.0000000E+00 -0.5050505E-02  0.1506792E-04  0.0000000E+00  0.3082869E-03
  0.2367855E-03  0.0000000E+00 -0.5050505E-02  0.1641069E-04  0.0000000E+00  0.3410672E-03
  0.1499413E-02  0.0000000E+00 -0.5050505E-02  0.1786849E-04  0.0000000E+00  0.3769058E-03
  0.2762042E-02  0.0000000E+00 -0.5050505E-02  0.1948957E-04  0.0000000E+00  0.4161331E-03
 -0.5050505E-02  0.0000000E+00 -0.5050505E-02  0.2135974E-04  0.0000000E+00  0.4592303E-03
 -0.5050505E-02  0.0000000E+00 -0.5050505E-02  0.2360322E-04  0.0000000E+00  0.5069152E-03
 -0.5050505E-02  0.0000000E+00 -0.5050505E-02  0.2638832E-04  0.0000000E+00  0.5602393E-03
 -0.5050505E-02  0.0000000E+00 -0.5050505E-02  0.2993258E-04  0.0000000E+00  0.6207026E-03
 -0.5050505E-02  0.0000000E+00 -0.5050505E-02  0.3446517E-04  0.0000000E+00  0.6903426E-03
 -0.5050505E-02  0.0000000E+00 -0.5050505E-02  0.4006507E-04  0.0000000E+00  0.7716174E-03
 -0.5050505E-02  0.0000000E+00 -0.5050505E-02  0.4679857E-04  0.0000000E+00  0.8672683E-03
 -0.5050504E-02  0.0000000E+00 -0.5050505E-02  0.6193888E-04  0.0000000E+00  0.9884252E-03
 -0.5050501E-02  0.0000000E+00 -0.5050505E-02  0.7969469E-04  0.0000000E+00  0.1148536E-02
 -0.5050495E-02  0.0000000E+00 -0.5050505E-02  0.8654331E-04  0.0000000E+00  0.1339915E-02
 -0.5050482E-02  0.0000000E+00 -0.5050505E-02  0.1163773E-03  0.0000000E+00  0.1579100E-02
 -0.5050449E-02  0.0000000E+00 -0.5050505E-02 -0.7411526E-04  0.0000000E+00  0.1628401E-02
 -0.5050376E-02  0.0000000E+00 -0.5050505E-02 -0.1133412E-03  0.0000000E+00  0.1406811E-02
 -0.5050299E-02  0.0000000E+00 -0.5050505E-02 -0.8379551E-04  0.0000000E+00  0.1178774E-02
 -0.5050178E-02  0.0000000E+00 -0.5050505E-02 -0.5613224E-04  0.0000000E+00  0.1019934E-02
 -0.5050018E-02  0.0000000E+00 -0.5050505E-02 -0.4084333E-04  0.0000000E+00  0.9113197E-03
 -0.5049710E-02  0.0000000E+00 -0.5050505E-02 -0.3196511E-04  0.0000000E+00  0.8305751E-03
 -0.5049253E-02  0.0000000E+00 -0.5050505E-02 -0.2700298E-04  0.0000000E+00  0.7656947E-03
 -0.5048636E-02  0.0000000E+00 -0.5050505E-02 -0.2460267E-04  0.0000000E+00  0.7093026E-03
 -0.5047442E-02  0.0000000E+00 -0.5050505E-02 -0.2356668E-04  0.0000000E+00  0.6569968E-03
 -0.5045727E-02  0.0000000E+00 -0.5050505E-02 -0.2244022E-04  0.0000000E+00  0.6073342E-03
 -0.5043261E-02  0.0000000E+00 -0.5050505E-02 -0.2094569E-04  0.0000000E+00  0.5607600E-03
 -0.5038714E-02  0.0000000E+00 -0.5050505E-02 -0.1934444E-04  0.0000000E+00  0.5177313E-03
 -0.5032318E-02  0.0000000E+00 -0.5050505E-02 -0.1776479E-04  0.0000000E+00  0.4782870E-03
 -0.5022454E-02  0.0000000E+00 -0.5050505E-02 -0.1627463E-04  0.0000000E+00  0.4422621E-03
 -0.5012589E-02  0.0000000E+00 -0.5050505E-02 -0.1491188E-04  0.0000000E+00  0.4093872E-03
 -0.5002725E-02  0.0000000E+00 -0.5050505E-02 -0.1368796E-04  0.0000000E+00  0.3793483E-03
 -0.4992860E-02  0.0000000E+00 -0.5050505E-02 -0.1259514E-04  0.0000000E+00  0.3518343E-03
 -0.4976523E-02  0.0000000E+00 -0.5050505E-02 -0.1161612E-04  0.0000000E+00  0.3265667E-03
 -0.4956794E-02  0.0000000E+00 -0.5050505E-02 -0.1073133E-04  0.0000000E+00  0.3033098E-03
 -0.4937066E-02  0.0000000E+00 -0.5050505E-02 -0.9922914E-05  0.0000000E+00  0.2818708E-03
 -0.4906239E-02  0.0000000E+00 -0.5050505E-02 -0.9176206E-05  0.0000000E+00  0.2620935E-03
 -0.4866782E-02  0.0000000E+00 -0.5050505E-02 -0.8479829E-05  0.0000000E+00  0.2438510E-03
 -0.4827325E-02  0.0000000E+00 -0.5050505E-02 -0.7825209E-05  0.0000000E+00  0.2270388E-03
 -0.4769372E-02  0.0000000E+00 -0.5050505E-02 -0.7205923E-05  0.0000000E+00  0.2115691E-03
 -0.4690458E-02  0.0000000E+00 -0.5050505E-02 -0.6617087E-05  0.0000000E+00  0.1973674E-03
 -0.4611543E-02  0.0000000E+00 -0.5050505E-02 -0.6054864E-05  0.0000000E+00  0.1843689E-03
 -0.4503035E-02  0.0000000E+00 -0.5050505E-02 -0.5516080E-05  0.0000000E+00  0.1725169E-03
 -0.4345206E-02  0.0000000E+00 -0.5050505E-02 -0.4997948E-05  0.0000000E+00  0.1617615E-03
 -0.4187378E-02  0.0000000E+00 -0.5050505E-02 -0.4497828E-05  0.0000000E+00  0.1520592E-03
 -0.3985156E-02  0.0000000E+00 -0.5050505E-02 -0.4013003E-05  0.0000000E+00  0.1433725E-03
 -0.3669499E-02  0.0000000E+00 -0.5050505E-02 -0.3540357E-05  0.0000000E+00  0.1356703E-03
 -0.3353842E-02  0.0000000E+00 -0.5050505E-02 -0.3075786E-05  0.0000000E+00  0.1289293E-03
 -0.2978990E-02  0.0000000E+00 -0.5050505E-02 -0.2612905E-05  0.0000000E+00  0.1231374E-03
 -0.2347676E-02  0.0000000E+00 -0.5050505E-02 -0.2139809E-05  0.0000000E+00  0.1183013E-03
 -0.1716362E-02  0.0000000E+00 -0.5050505E-02 -0.1630147E-05  0.0000000E+00  0.1144670E-03
 -0.1025842E-02  0.0000000E+00 -0.5050505E-02 -0.1015955E-05  0.0000000E+00  0.1117766E-03
  0.2367855E-03  0.0000000E+00 -0.5050505E-02 -0.9704875E-07  0.0000000E+00  0.1106451E-03
  0.1499413E-02  0.0000000E+00 -0.5050505E-02  0.1787916E-05  0.0000000E+00  0.1123640E-03
  0.5287294E-02  0.0000000E+00 -0.5050505E-02  0.3899773E-04  0.0000000E+00  0.8914347E-04
 -0.5050505E-02  0.0000000E+00 -0.5050505E-02  0.1533969E-06  0.0000000E+00 -0.6929282E-04
 -0.5050505E-02  0.0000000E+00 -0.5050505E-02  0.4604632E-06  0.0000000E+00 -0.6908631E-04
 -0.5050505E-02  0.0000000E+00 -0.5050505E-02  0.7683544E-06  0.0000000E+00 -0.6867295E-04
 -0.5050505E-02  0.0000000E+00 -0.5050505E-02  0.1077635E-05  0.0000000E+00 -0.6805204E-04
 -0.5050505E-02  0.0000000E+00 -0.5050505E-02  0.1388887E-05  0.0000000E+00 -0.6722251E-04
 -0.5050505E-02  0.0000000E+00 -0.5050505E-02  0.1702712E-05  0.0000000E+00 -0.6618291E-04
 -0.5050504E-02  0.0000000E+00 -0.5050505E-02  0.2019739E-05  0.0000000E+00 -0.6493140E-04
 -0.5050501E-02  0.0000000E+00 -0.5050505E-02  0.2340628E-05  0.0000000E+00 -0.6346571E-04
 -0.5050495E-02  0.0000000E+00 -0.5050505E-02  0.2666080E-05  0.0000000E+00 -0.6178317E-04
 -0.5050482E-02  0.0000000E+00 -0.5050505E-02  0.2996841E-05  0.0000000E+00 -0.5988060E-04
 -0.5050449E-02  0.0000000E+00 -0.5050505E-02  0.3333713E-05  0.0000000E+00 -0.5775435E-04
 -0.5050376E-02  0.0000000E+00 -0.5050505E-02  0.3677563E-05  0.0000000E+00 -0.5540025E-04
 -0.5050299E-02  0.0000000E+00 -0.5050505E-02  0.4029330E-05  0.0000000E+00 -0.5281351E-04
 -0.5050178E-02  0.0000000E+00 -0.5050505E-02  0.4390042E-05  0.0000000E+00 -0.4998875E-04
 -0.5050018E-02  0.0000000E+00 -0.5050505E-02  0.4760829E-05  0.0000000E+00 -0.4691988E-04
 -0.5049710E-02  0.0000000E+00 -0.5050505E-02  0.5142936E-05  0.0000000E+00 -0.4360006E-04
 -0.5049253E-02  0.0000000E+00 -0.5050505E-02  0.5537741E-05  0.0000000E+00 -0.4002161E-04
 -0.5048636E-02  0.0000000E+00 -0.5050505E-02  0.5946780E-05  0.0000000E+00 -0.3617593E-04
 -0.5047442E-02  0.0000000E+00 -0.5050505E-02  0.6371768E-05  0.0000000E+00 -0.3205338E-04
 -0.5045727E-02  0.0000000E+00 -0.5050505E-02  0.6814627E-05  0.0000000E+00 -0.2764316E-04
 -0.5043261E-02  0.0000000E+00 -0.5050505E-02  0.7277520E-05  0.0000000E+00 -0.2293319E-04
 -0.5038714E-02  0.0000000E+00 -0.5050505E-02  0.7762889E-05  0.0000000E+00 -0.1790990E-04
 -0.5032318E-02  0.0000000E+00 -0.5050505E-02  0.8273498E-05  0.0000000E+00 -0.1255811E-04
 -0.5022454E-02  0.0000000E+00 -0.5050505E-02  0.8812486E-05  0.0000000E+00 -0.6860766E-05
 -0.5012589E-02  0.0000000E+00 -0.5050505E-02  0.9383427E-05  0.0000000E+00 -0.7949593E-06
 -0.5002725E-02  0.0000000E+00 -0.5050505E-02  0.9990025E-05  0.0000000E+00  0.5671368E-05
 -0.4992860E-02  0.0000000E+00 -0.5050505E-02  0.1063727E-04  0.0000000E+00  0.1256559E-04
 -0.4976523E-02  0.0000000E+00 -0.5050505E-02  0.1133060E-04  0.0000000E+00  0.1991274E-04
 -0.4956794E-02  0.0000000E+00 -0.5050505E-02  0.1207626E-04  0.0000000E+00  0.2774668E-04
 -0.4937066E-02  0.0000000E+00 -0.5050505E-02  0.1288147E-04  0.0000000E+00  0.3610593E-04
 -0.4906239E-02  0.0000000E+00 -0.5050505E-02  0.1375456E-04  0.0000000E+00  0.4503444E-04
 -0.4866782E-02  0.0000000E+00 -0.5050505E-02  0.1470516E-04  0.0000000E+00  0.5458240E-04
 -0.4827325E-02  0.0000000E+00 -0.5050505E-02  0.1574439E-04  0.0000000E+00  0.6480731E-04
 -0.4769372E-02  0.0000000E+00 -0.5050505E-02  0.1688506E-04  0.0000000E+00  0.7577507E-04
 -0.4690458E-02  0.0000000E+00 -0.5050505E-02  0.1814186E-04  0.0000000E+00  0.8756136E-04
 -0.4611543E-02  0.0000000E+00 -0.5050505E-02  0.1953154E-04  0.0000000E+00  0.1002531E-03
 -0.4503035E-02  0.0000000E+00 -0.5050505E-02  0.2107300E-04  0.0000000E+00  0.1139502E-03
 -0.4345206E-02  0.0000000E+00 -0.5050505E-02  0.2278722E-04  0.0000000E+00  0.1287669E-03
 -0.4187378E-02  0.0000000E+00 -0.5050505E-02  0.2469687E-04  0.0000000E+00  0.1448343E-03
 -0.3985156E-02  0.0000000E+00 -0.5050505E-02  0.2682561E-04  0.0000000E+00  0.1623008E-03
 -0.3669499E-02  0.0000000E+00 -0.5050505E-02  0.2919658E-04  0.0000000E+00  0.1813337E-03
 -0.3353842E-02  0.0000000E+00 -0.5050505E-02  0.3183021E-04  0.0000000E+00  0.2021183E-03
 -0.2978990E-02  0.0000000E+00 -0.5050505E-02  0.3474122E-04  0.0000000E+00  0.2248559E-03
 -0.2347676E-02  0.0000000E+00 -0.5050505E-02  0.3793555E-04  0.0000000E+00  0.2497586E-03
 -0.1716362E-02  0.0000000E+00 -0.5050505E-02  0.4140905E-04  0.0000000E+00  0.2770412E-03
 -0.1025842E-02  0.0000000E+00 -0.5050505E-02  0.4515211E-04  0.0000000E+00  0.3069131E-03
  0.2367855E-03  0.0000000E+00 -0.5050505E-02  0.4916625E-04  0.0000000E+00  0.3395749E-03
  0.1499413E-02  0.0000000E+00 -0.5050505E-02  0.5349801E-04  0.0000000E+00  0.3752340E-03
  0.2762042E-02  0.0000000E+00 -0.5050505E-02  0.5828468E-04  0.0000000E+00  0.4141552E-03
 -0.5050505E-02  0.0000000E+00 -0.5050505E-02  0.6378492E-04  0.0000000E+00  0.4567460E-03
 -0.5050505E-02  0.0000000E+00 -0.5050505E-02  0.7036842E-04  0.0000000E+00  0.5036467E-03
 -0.5050505E-02  0.0000000E+00 -0.5050505E-02  0.7853830E-04  0.0000000E+00  0.5558227E-03
 -0.5050505E-02  0.0000000E+00 -0.5050505E-02  0.8898524E-04  0.0000000E+00  0.6147219E-03
 -0.5050505E-02  0.0000000E+00 -0.5050505E-02  0.1025465E-03  0.0000000E+00  0.6825262E-03
 -0.5050505E-02  0.0000000E+00 -0.5050505E-02  0.1193145E-03  0.0000000E+00  0.7618450E-03
 -0.5050505E-02  0.0000000E+00 -0.5050505E-02  0.1328804E-03  0.0000000E+00  0.8481616E-03
 -0.5050504E-02  0.0000000E+00 -0.5050505E-02  0.1568789E-03  0.0000000E+00  0.9285893E-03
 -0.5050501E-02  0.0000000E+00 -0.5050505E-02  0.1968611E-03  0.0000000E+00  0.1007900E-02
 -0.5050495E-02  0.0000000E+00 -0.5050505E-02  0.2418627E-03  0.0000000E+00  0.1128392E-02
 -0.5050482E-02  0.0000000E+00 -0.5050505E-02  0.3287332E-03  0.0000000E+00  0.1317299E-02
 -0.5050449E-02  0.0000000E+00 -0.5050505E-02 -0.2401168E-03  0.0000000E+00  0.1320907E-02
 -0.5050376E-02  0.0000000E+00 -0.5050505E-02 -0.2440464E-03  0.0000000E+00  0.1192943E-02
 -0.5050299E-02  0.0000000E+00 -0.5050505E-02 -0.2298839E-03  0.0000000E+00  0.1101533E-02
 -0.5050178E-02  0.0000000E+00 -0.5050505E-02 -0.1576725E-03  0.0000000E+00  0.9799120E-03
 -0.5050018E-02  0.0000000E+00 -0.5050505E-02 -0.1168400E-03  0.0000000E+00  0.8896836E-03
 -0.5049710E-02  0.0000000E+00 -0.5050505E-02 -0.9232520E-04  0.0000000E+00  0.8190369E-03
 -0.5049253E-02  0.0000000E+00 -0.5050505E-02 -0.7861174E-04  0.0000000E+00  0.7605160E-03
 -0.5048636E-02  0.0000000E+00 -0.5050505E-02 -0.7249727E-04  0.0000000E+00  0.7079854E-03
 -0.5047442E-02  0.0000000E+00 -0.5050505E-02 -0.7076737E-04  0.0000000E+00  0.6568804E-03
 -0.5045727E-02  0.0000000E+00 -0.5050505E-02 -0.6768044E-04  0.0000000E+00  0.6066491E-03
 -0.5043261E-02  0.0000000E+00 -0.5050505E-02 -0.6296878E-04  0.0000000E+00  0.5594691E-03
 -0.5038714E-02  0.0000000E+00 -0.5050505E-02 -0.5804930E-04  0.0000000E+00  0.5162222E-03
 -0.5032318E-02  0.0000000E+00 -0.5050505E-02 -0.5324494E-04  0.0000000E+00  0.4767637E-03
 -0.5022454E-02  0.0000000E+00 -0.5050505E-02 -0.4873408E-04  0.0000000E+00  0.4408428E-03
 -0.5012589E-02  0.0000000E+00 -0.5050505E-02 -0.4462951E-04  0.0000000E+00  0.4081350E-03
 -0.5002725E-02  0.0000000E+00 -0.5050505E-02 -0.4095989E-04  0.0000000E+00  0.3782801E-03
 -0.4992860E-02  0.0000000E+00 -0.5050505E-02 -0.3769343E-04  0.0000000E+00  0.3509369E-03
 -0.4976523E-02  0.0000000E+00 -0.5050505E-02 -0.3477138E-04  0.0000000E+00  0.3258131E-03
 -0.4956794E-02  0.0000000E+00 -0.5050505E-02 -0.3213116E-04  0.0000000E+00  0.3026708E-03
 -0.4937066E-02  0.0000000E+00 -0.5050505E-02 -0.2971760E-04  0.0000000E+00  0.2813206E-03
 -0.4906239E-02  0.0000000E+00 -0.5050505E-02 -0.2748645E-04  0.0000000E+00  0.2616118E-03
 -0.4866782E-02  0.0000000E+00 -0.5050505E-02 -0.2540393E-04  0.0000000E+00  0.2434225E-03
 -0.4827325E-02  0.0000000E+00 -0.5050505E-02 -0.2344489E-04  0.0000000E+00  0.2266526E-03
 -0.4769372E-02  0.0000000E+00 -0.5050505E-02 -0.2159057E-04  0.0000000E+00  0.2112176E-03
 -0.4690458E-02  0.0000000E+00 -0.5050505E-02 -0.1982678E-04  0.0000000E+00  0.1970451E-03
 -0.4611543E-02  0.0000000E+00 -0.5050505E-02 -0.1814233E-04  0.0000000E+00  0.1840715E-03
 -0.4503035E-02  0.0000000E+00 -0.5050505E-02 -0.1652798E-04  0.0000000E+00  0.1722411E-03
 -0.4345206E-02  0.0000000E+00 -0.5050505E-02 -0.1497556E-04  0.0000000E+00  0.1615045E-03
 -0.4187378E-02  0.0000000E+00 -0.5050505E-02 -0.1347738E-04  0.0000000E+00  0.1518178E-03
 -0.3985156E-02  0.0000000E+00 -0.5050505E-02 -0.1202559E-04  0.0000000E+00  0.1431429E-03
 -0.3669499E-02  0.0000000E+00 -0.5050505E-02 -0.1061140E-04  0.0000000E+00  0.1354474E-03
 -0.3353842E-02  0.0000000E+00 -0.5050505E-02 -0.9223761E-05  0.0000000E+00  0.1287046E-03
 -0.2978990E-02  0.0000000E+00 -0.5050505E-02 -0.7846681E-05  0.0000000E+00  0.1228944E-03
 -0.2347676E-02  0.0000000E+00 -0.5050505E-02 -0.6453199E-05  0.0000000E+00  0.1180039E-03
 -0.1716362E-02  0.0000000E+00 -0.5050505E-02 -0.4990903E-05  0.0000000E+00  0.1140233E-03
 -0.1025842E-02  0.0000000E+00 -0.5050505E-02 -0.3344845E-05  0.0000000E+00  0.1109219E-03
  0.2367855E-03  0.0000000E+00 -0.5050505E-02 -0.1237404E-05  0.0000000E+00  0.1085239E-03
  0.1499413E-02  0.0000000E+00 -0.5050505E-02  0.2053589E-05  0.0000000E+00  0.1059223E-03
  0.5287294E-02  0.0000000E+00 -0.5050505E-02  0.8507557E-05  0.0000000E+00  0.9873909E-04
 -0.5050505E-02  0.0000000E+00 -0.5050505E-02  0.2552859E-06  0.0000000E+00 -0.6898498E-04
 -0.5050505E-02  0.0000000E+00 -0.5050505E-02  0.7663118E-06  0.0000000E+00 -0.6877856E-04
 -0.5050505E-02  0.0000000E+00 -0.5050505E-02  0.1278711E-05  0.0000000E+00 -0.6836540E-04
 -0.5050505E-02  0.0000000E+00 -0.5050505E-02  0.1793420E-05  0.0000000E+00 -0.6774482E-04
 -0.5050505E-02  0.0000000E+00 -0.5050505E-02  0.2311403E-05  0.0000000E+00 -0.6691575E-04
 -0.5050505E-02  0.0000000E+00 -0.5050505E-02  0.2833659E-05  0.0000000E+00 -0.6587678E-04
 -0.5050504E-02  0.0000000E+00 -0.5050505E-02  0.3361227E-05  0.0000000E+00 -0.6462609E-04
 -0.5050501E-02  0.0000000E+00 -0.5050505E-02  0.3895205E-05  0.0000000E+00 -0.6316146E-04
 -0.5050495E-02  0.0000000E+00 -0.5050505E-02  0.4436750E-05  0.0000000E+00 -0.6148024E-04
 -0.5050482E-02  0.0000000E+00 -0.5050505E-02  0.4987100E-05  0.0000000E+00 -0.5957932E-04
 -0.5050449E-02  0.0000000E+00 -0.5050505E-02  0.5547581E-05  0.0000000E+00 -0.5745511E-04
 -0.5050376E-02  0.0000000E+00 -0.5050505E-02  0.6119627E-05  0.0000000E+00 -0.5510350E-04
 -0.5050299E-02  0.0000000E+00 -0.5050505E-02  0.6704793E-05  0.0000000E+00 -0.5251979E-04
 -0.5050178E-02  0.0000000E+00 -0.5050505E-02  0.7304781E-05  0.0000000E+00 -0.4969870E-04
 -0.5050018E-02  0.0000000E+00 -0.5050505E-02  0.7921457E-05  0.0000000E+00 -0.4663424E-04
 -0.5049710E-02  0.0000000E+00 -0.5050505E-02  0.8556878E-05  0.0000000E+00 -0.4331972E-04
 -0.5049253E-02  0.0000000E+00 -0.5050505E-02  0.9213325E-05  0.0000000E+00 -0.3974759E-04
 -0.5048636E-02  0.0000000E+00 -0.5050505E-02  0.9893333E-05  0.0000000E+00 -0.3590943E-04
 -0.5047442E-02  0.0000000E+00 -0.5050505E-02  0.1059974E-04  0.0000000E+00 -0.3179581E-04
 -0.5045727E-02  0.0000000E+00 -0.5050505E-02  0.1133571E-04  0.0000000E+00 -0.2739617E-04
 -0.5043261E-02  0.0000000E+00 -0.5050505E-02  0.1210482E-04  0.0000000E+00 -0.2269869E-04
 -0.5038714E-02  0.0000000E+00 -0.5050505E-02  0.1291110E-04  0.0000000E+00 -0.1769014E-04
 -0.5032318E-02  0.0000000E+00 -0.5050505E-02  0.1375911E-04  0.0000000E+00 -0.1235571E-04
 -0.5022454E-02  0.0000000E+00 -0.5050505E-02  0.1465403E-04  0.0000000E+00 -0.6678754E-05
 -0.5012589E-02  0.0000000E+00 -0.5050505E-02  0.1560176E-04  0.0000000E+00 -0.6366417E-06
 -0.5002725E-02  0.0000000E+00 -0.5050505E-02  0.1660837E-04  0.0000000E+00  0.5801883E-05
 -0.4992860E-02  0.0000000E+00 -0.5050505E-02  0.1768212E-04  0.0000000E+00  0.1266320E-04
 -0.4976523E-02  0.0000000E+00 -0.5050505E-02  0.1883195E-04  0.0000000E+00  0.1997170E-04
 -0.4956794E-02  0.0000000E+00 -0.5050505E-02  0.2006816E-04  0.0000000E+00  0.2776029E-04
 -0.4937066E-02  0.0000000E+00 -0.5050505E-02  0.2140267E-04  0.0000000E+00  0.3606636E-04
 -0.4906239E-02  0.0000000E+00 -0.5050505E-02  0.2284923E-04  0.0000000E+00  0.4493259E-04
 -0.4866782E-02  0.0000000E+00 -0.5050505E-02  0.2442375E-04  0.0000000E+00  0.5440771E-04
 -0.4827325E-02  0.0000000E+00 -0.5050505E-02  0.2614462E-04  0.0000000E+00  0.6454754E-04
 -0.4769372E-02  0.0000000E+00 -0.5050505E-02  0.2803307E-04  0.0000000E+00  0.7541613E-04
 -0.4690458E-02  0.0000000E+00 -0.5050505E-02  0.3011354E-04  0.0000000E+00  0.8708715E-04
 -0.4611543E-02  0.0000000E+00 -0.5050505E-02  0.3241402E-04  0.0000000E+00  0.9964548E-04
 -0.4503035E-02  0.0000000E+00 -0.5050505E-02  0.3496627E-04  0.0000000E+00  0.1131890E-03
 -0.4345206E-02  0.0000000E+00 -0.5050505E-02  0.3780582E-04  0.0000000E+00  0.1278306E-03
 -0.4187378E-02  0.0000000E+00 -0.5050505E-02  0.4097159E-04  0.0000000E+00  0.1437004E-03
 -0.3985156E-02  0.0000000E+00 -0.5050505E-02  0.4450473E-04  0.0000000E+00  0.1609481E-03
 -0.3669499E-02  0.0000000E+00 -0.5050505E-02  0.4844640E-04  0.0000000E+00  0.1797443E-03
 -0.3353842E-02  0.0000000E+00 -0.5050505E-02  0.5283393E-04  0.0000000E+00  0.2002817E-03
 -0.2978990E-02  0.0000000E+00 -0.5050505E-02  0.5769496E-04  0.0000000E+00  0.2227730E-03
 -0.2347676E-02  0.0000000E+00 -0.5050505E-02  0.6304017E-04  0.0000000E+00  0.2474449E-03
 -0.1716362E-02  0.0000000E+00 -0.5050505E-02  0.6885673E-04  0.0000000E+00  0.2745253E-03
 -0.1025842E-02  0.0000000E+00 -0.5050505E-02  0.7510970E-04  0.0000000E+00  0.3042222E-03
  0.2367855E-03  0.0000000E+00 -0.5050505E-02  0.8176503E-04  0.0000000E+00  0.3366997E-03
  0.1499413E-02  0.0000000E+00 -0.5050505E-02  0.8885312E-04  0.0000000E+00  0.3720728E-03
  0.2762042E-02  0.0000000E+00 -0.5050505E-02  0.9657461E-04  0.0000000E+00  0.4104612E-03
 -0.5050505E-02  0.0000000E+00 -0.5050505E-02  0.1053773E-03  0.0000000E+00  0.4521209E-03
 -0.5050505E-02  0.0000000E+00 -0.5050505E-02  0.1158629E-03  0.0000000E+00  0.4975407E-03
 -0.5050505E-02  0.0000000E+00 -0.5050505E-02  0.1288276E-03  0.0000000E+00  0.5474753E-03
 -0.5050505E-02  0.0000000E+00 -0.5050505E-02  0.1454864E-03  0.0000000E+00  0.6031225E-03
 -0.5050505E-02  0.0000000E+00 -0.5050505E-02  0.1681267E-03  0.0000000E+00  0.6671531E-03
 -0.5050505E-02  0.0000000E+00 -0.5050505E-02  0.2021363E-03  0.0000000E+00  0.7492695E-03
 -0.5050505E-02  0.0000000E+00 -0.5050505E-02  0.2097637E-03  0.0000000E+00  0.8384002E-03
 -0.5050504E-02  0.0000000E+00 -0.5050505E-02  0.2107113E-03  0.0000000E+00  0.9036581E-03
 -0.5050501E-02  0.0000000E+00 -0.5050505E-02  0.2576077E-03  0.0000000E+00  0.9539011E-03
 -0.5050495E-02  0.0000000E+00 -0.5050505E-02  0.3374216E-03  0.0000000E+00  0.1011228E-02
 -0.5050482E-02  0.0000000E+00 -0.5050505E-02  0.4735666E-03  0.0000000E+00  0.1097221E-02
 -0.5050449E-02  0.0000000E+00 -0.5050505E-02 -0.3309414E-03  0.0000000E+00  0.1152008E-02
 -0.5050376E-02  0.0000000E+00 -0.5050505E-02 -0.3289440E-03  0.0000000E+00  0.1075053E-02
 -0.5050299E-02  0.0000000E+00 -0.5050505E-02 -0.3139938E-03  0.0000000E+00  0.9735118E-03
 -0.5050178E-02  0.0000000E+00 -0.5050505E-02 -0.2319802E-03  0.0000000E+00  0.9158793E-03
 -0.5050018E-02  0.0000000E+00 -0.5050505E-02 -0.1784337E-03  0.0000000E+00  0.8537087E-03
 -0.5049710E-02  0.0000000E+00 -0.5050505E-02 -0.1429129E-03  0.0000000E+00  0.7993989E-03
 -0.5049253E-02  0.0000000E+00 -0.5050505E-02 -0.1231756E-03  0.0000000E+00  0.7525865E-03
 -0.5048636E-02  0.0000000E+00 -0.5050505E-02 -0.1162385E-03  0.0000000E+00  0.7080224E-03
 -0.5047442E-02  0.0000000E+00 -0.5050505E-02 -0.1192572E-03  0.0000000E+00  0.6585331E-03
 -0.5045727E-02  0.0000000E+00 -0.5050505E-02 -0.1145681E-03  0.0000000E+00  0.6055209E-03
 -0.5043261E-02  0.0000000E+00 -0.5050505E-02 -0.1053440E-03  0.0000000E+00  0.5566812E-03
 -0.5038714E-02  0.0000000E+00 -0.5050505E-02 -0.9680411E-04  0.0000000E+00  0.5131315E-03
 -0.5032318E-02  0.0000000E+00 -0.5050505E-02 -0.8859339E-04  0.0000000E+00  0.4736980E-03
 -0.5022454E-02  0.0000000E+00 -0.5050505E-02 -0.8093471E-04  0.0000000E+00  0.4380180E-03
 -0.5012589E-02  0.0000000E+00 -0.5050505E-02 -0.7403969E-04  0.0000000E+00  0.4056753E-03
 -0.5002725E-02  0.0000000E+00 -0.5050505E-02 -0.6793542E-04  0.0000000E+00  0.3762083E-03
 -0.4992860E-02  0.0000000E+00 -0.5050505E-02 -0.6253539E-04  0.0000000E+00  0.3492131E-03
 -0.4976523E-02  0.0000000E+00 -0.5050505E-02 -0.5771721E-04  0.0000000E+00  0.3243737E-03
 -0.4956794E-02  0.0000000E+00 -0.5050505E-02 -0.5336400E-04  0.0000000E+00  0.3014528E-03
 -0.4937066E-02  0.0000000E+00 -0.5050505E-02 -0.4937933E-04  0.0000000E+00  0.2802713E-03
 -0.4906239E-02  0.0000000E+00 -0.5050505E-02 -0.4568923E-04  0.0000000E+00  0.2606909E-03
 -0.4866782E-02  0.0000000E+00 -0.5050505E-02 -0.4223895E-04  0.0000000E+00  0.2426010E-03
 -0.4827325E-02  0.0000000E+00 -0.5050505E-02 -0.3898852E-04  0.0000000E+00  0.2259101E-03
 -0.4769372E-02  0.0000000E+00 -0.5050505E-02 -0.3590855E-04  0.0000000E+00  0.2105400E-03
 -0.4690458E-02  0.0000000E+00 -0.5050505E-02 -0.3297682E-04  0.0000000E+00  0.1964223E-03
 -0.4611543E-02  0.0000000E+00 -0.5050505E-02 -0.3017581E-04  0.0000000E+00  0.1834963E-03
 -0.4503035E-02  0.0000000E+00 -0.5050505E-02 -0.2749092E-04  0.0000000E+00  0.1717075E-03
 -0.4345206E-02  0.0000000E+00 -0.5050505E-02 -0.2490919E-04  0.0000000E+00  0.1610070E-03
 -0.4187378E-02  0.0000000E+00 -0.5050505E-02 -0.2241842E-04  0.0000000E+00  0.1513510E-03
 -0.3985156E-02  0.0000000E+00 -0.5050505E-02 -0.2000636E-04  0.0000000E+00  0.1427004E-03
 -0.3669499E-02  0.0000000E+00 -0.5050505E-02 -0.1765981E-04  0.0000000E+00  0.1350207E-03
 -0.3353842E-02  0.0000000E+00 -0.5050505E-02 -0.1536337E-04  0.0000000E+00  0.1282811E-03
 -0.2978990E-02  0.0000000E+00 -0.5050505E-02 -0.1309729E-04  0.0000000E+00  0.1224536E-03
 -0.2347676E-02  0.0000000E+00 -0.5050505E-02 -0.1083368E-04  0.0000000E+00  0.1175086E-03
 -0.1716362E-02  0.0000000E+00 -0.5050505E-02 -0.8530334E-05  0.0000000E+00  0.1134048E-03
 -0.1025842E-02  0.0000000E+00 -0.5050505E-02 -0.6123292E-05  0.0000000E+00  0.1100610E-03
  0.2367855E-03  0.0000000E+00 -0.5050505E-02 -0.3533269E-05  0.0000000E+00  0.1072892E-03
  0.1499413E-02  0.0000000E+00 -0.5050505E-02 -0.7721905E-06  0.0000000E+00  0.1046897E-03
  0.5287294E-02  0.0000000E+00 -0.5050505E-02  0.1431308E-05  0.0000000E+00  0.1018551E-03
 -0.5050505E-02  0.0000000E+00 -0.5050505E-02  0.3568323E-06  0.0000000E+00 -0.6852827E-04
 -0.5050505E-02  0.0000000E+00 -0.5050505E-02  0.1071131E-05  0.0000000E+00 -0.6832199E-04
 -0.5050505E-02  0.0000000E+00 -0.5050505E-02  0.1787343E-05  0.0000000E+00 -0.6790911E-04
 -0.5050505E-02  0.0000000E+00 -0.5050505E-02  0.2506772E-05  0.0000000E+00 -0.6728898E-04
 -0.5050505E-02  0.0000000E+00 -0.5050505E-02  0.3230759E-05  0.0000000E+00 -0.6646056E-04
 -0.5050505E-02  0.0000000E+00 -0.5050505E-02  0.3960690E-05  0.0000000E+00 -0.6542247E-04
 -0.5050504E-02  0.0000000E+00 -0.5050505E-02  0.4698010E-05  0.0000000E+00 -0.6417294E-04
 -0.5050501E-02  0.0000000E+00 -0.5050505E-02  0.5444239E-05  0.0000000E+00 -0.6270979E-04
 -0.5050495E-02  0.0000000E+00 -0.5050505E-02  0.6200987E-05  0.0000000E+00 -0.6103045E-04
 -0.5050482E-02  0.0000000E+00 -0.5050505E-02  0.6969968E-05  0.0000000E+00 -0.5913187E-04
 -0.5050449E-02  0.0000000E+00 -0.5050505E-02  0.7753021E-05  0.0000000E+00 -0.5701056E-04
 -0.5050376E-02  0.0000000E+00 -0.5050505E-02  0.8552133E-05  0.0000000E+00 -0.5466250E-04
 -0.5050299E-02  0.0000000E+00 -0.5050505E-02  0.9369460E-05  0.0000000E+00 -0.5208313E-04
 -0.5050178E-02  0.0000000E+00 -0.5050505E-02  0.1020736E-04  0.0000000E+00 -0.4926729E-04
 -0.5050018E-02  0.0000000E+00 -0.5050505E-02  0.1106840E-04  0.0000000E+00 -0.4620918E-04
 -0.5049710E-02  0.0000000E+00 -0.5050505E-02  0.1195545E-04  0.0000000E+00 -0.4290226E-04
 -0.5049253E-02  0.0000000E+00 -0.5050505E-02  0.1287164E-04  0.0000000E+00 -0.3933925E-04
 -0.5048636E-02  0.0000000E+00 -0.5050505E-02  0.1382049E-04  0.0000000E+00 -0.3551196E-04
 -0.5047442E-02  0.0000000E+00 -0.5050505E-02  0.1480591E-04  0.0000000E+00 -0.3141126E-04
 -0.5045727E-02  0.0000000E+00 -0.5050505E-02  0.1583228E-04  0.0000000E+00 -0.2702693E-04
 -0.5043261E-02  0.0000000E+00 -0.5050505E-02  0.1690452E-04  0.0000000E+00 -0.2234757E-04
 -0.5038714E-02  0.0000000E+00 -0.5050505E-02  0.1802820E-04  0.0000000E+00 -0.1736041E-04
 -0.5032318E-02  0.0000000E+00 -0.5050505E-02  0.1920961E-04  0.0000000E+00 -0.1205118E-04
 -0.5022454E-02  0.0000000E+00 -0.5050505E-02  0.2045588E-04  0.0000000E+00 -0.6403890E-05
 -0.5012589E-02  0.0000000E+00 -0.5050505E-02  0.2177514E-04  0.0000000E+00 -0.3962413E-06
 -0.5002725E-02  0.0000000E+00 -0.5050505E-02  0.2317573E-04  0.0000000E+00  0.6001821E-05
 -0.4992860E-02  0.0000000E+00 -0.5050505E-02  0.2466902E-04  0.0000000E+00  0.1281520E-04
 -0.4976523E-02  0.0000000E+00 -0.5050505E-02  0.2626733E-04  0.0000000E+00  0.2006734E-04
 -0.4956794E-02  0.0000000E+00 -0.5050505E-02  0.2798487E-04  0.0000000E+00  0.2778974E-04
 -0.4937066E-02  0.0000000E+00 -0.5050505E-02  0.2983803E-04  0.0000000E+00  0.3601816E-04