title = "dataset feddes"
variables = "x", "y", "z", "vx", "vy", "vz"
zone t = "velocities, solution time =  3.400E+01 days        " i =   99, j =   99, k =    1,  f=point
 -0.5050505E-02  0.0000000E+00 -0.5050505E-02  0.8487923E-08  0.0000000E+00 -0.2645974E-03
 -0.5050505E-02  0.0000000E+00 -0.5050505E-02  0.2546706E-07  0.0000000E+00 -0.2645623E-03
 -0.5050505E-02  0.0000000E+00 -0.5050505E-02  0.4245613E-07  0.0000000E+00 -0.2644922E-03
 -0.5050505E-02  0.0000000E+00 -0.5050505E-02  0.5946193E-07  0.0000000E+00 -0.2643871E-03
 -0.5050505E-02  0.0000000E+00 -0.5050505E-02  0.7649135E-07  0.0000000E+00 -0.2642468E-03
 -0.5050505E-02  0.0000000E+00 -0.5050505E-02  0.9355147E-07  0.0000000E+00 -0.2640714E-03
 -0.5050504E-02  0.0000000E+00 -0.5050505E-02  0.1106496E-06  0.0000000E+00 -0.2638607E-03
 -0.5050501E-02  0.0000000E+00 -0.5050505E-02  0.1277934E-06  0.0000000E+00 -0.2636147E-03
 -0.5050495E-02  0.0000000E+00 -0.5050505E-02  0.1449906E-06  0.0000000E+00 -0.2633333E-03
 -0.5050482E-02  0.0000000E+00 -0.5050505E-02  0.1622497E-06  0.0000000E+00 -0.2630163E-03
 -0.5050449E-02  0.0000000E+00 -0.5050505E-02  0.1795794E-06  0.0000000E+00 -0.2626637E-03
 -0.5050376E-02  0.0000000E+00 -0.5050505E-02  0.1969892E-06  0.0000000E+00 -0.2622752E-03
 -0.5050299E-02  0.0000000E+00 -0.5050505E-02  0.2144890E-06  0.0000000E+00 -0.2618508E-03
 -0.5050178E-02  0.0000000E+00 -0.5050505E-02  0.2320897E-06  0.0000000E+00 -0.2613902E-03
 -0.5050018E-02  0.0000000E+00 -0.5050505E-02  0.2498031E-06  0.0000000E+00 -0.2608931E-03
 -0.5049710E-02  0.0000000E+00 -0.5050505E-02  0.2676421E-06  0.0000000E+00 -0.2603595E-03
 -0.5049253E-02  0.0000000E+00 -0.5050505E-02  0.2856207E-06  0.0000000E+00 -0.2597889E-03
 -0.5048636E-02  0.0000000E+00 -0.5050505E-02  0.3037546E-06  0.0000000E+00 -0.2591812E-03
 -0.5047442E-02  0.0000000E+00 -0.5050505E-02  0.3220610E-06  0.0000000E+00 -0.2585359E-03
 -0.5045727E-02  0.0000000E+00 -0.5050505E-02  0.3405592E-06  0.0000000E+00 -0.2578527E-03
 -0.5043261E-02  0.0000000E+00 -0.5050505E-02  0.3592707E-06  0.0000000E+00 -0.2571312E-03
 -0.5038714E-02  0.0000000E+00 -0.5050505E-02  0.3782197E-06  0.0000000E+00 -0.2563710E-03
 -0.5032318E-02  0.0000000E+00 -0.5050505E-02  0.3974333E-06  0.0000000E+00 -0.2555715E-03
 -0.5022454E-02  0.0000000E+00 -0.5050505E-02  0.4169423E-06  0.0000000E+00 -0.2547321E-03
 -0.5012589E-02  0.0000000E+00 -0.5050505E-02  0.4367813E-06  0.0000000E+00 -0.2538523E-03
 -0.5002725E-02  0.0000000E+00 -0.5050505E-02  0.4569898E-06  0.0000000E+00 -0.2529313E-03
 -0.4992860E-02  0.0000000E+00 -0.5050505E-02  0.4776123E-06  0.0000000E+00 -0.2519684E-03
 -0.4976523E-02  0.0000000E+00 -0.5050505E-02  0.4986997E-06  0.0000000E+00 -0.2509626E-03
 -0.4956794E-02  0.0000000E+00 -0.5050505E-02  0.5203100E-06  0.0000000E+00 -0.2499129E-03
 -0.4937066E-02  0.0000000E+00 -0.5050505E-02  0.5425090E-06  0.0000000E+00 -0.2488182E-03
 -0.4906239E-02  0.0000000E+00 -0.5050505E-02  0.5653723E-06  0.0000000E+00 -0.2476773E-03
 -0.4866782E-02  0.0000000E+00 -0.5050505E-02  0.5889860E-06  0.0000000E+00 -0.2464887E-03
 -0.4827325E-02  0.0000000E+00 -0.5050505E-02  0.6134487E-06  0.0000000E+00 -0.2452507E-03
 -0.4769372E-02  0.0000000E+00 -0.5050505E-02  0.6388733E-06  0.0000000E+00 -0.2439616E-03
 -0.4690458E-02  0.0000000E+00 -0.5050505E-02  0.6653892E-06  0.0000000E+00 -0.2426192E-03
 -0.4611543E-02  0.0000000E+00 -0.5050505E-02  0.6931450E-06  0.0000000E+00 -0.2412212E-03
 -0.4503035E-02  0.0000000E+00 -0.5050505E-02  0.7223111E-06  0.0000000E+00 -0.2397648E-03
 -0.4345206E-02  0.0000000E+00 -0.5050505E-02  0.7530836E-06  0.0000000E+00 -0.2382471E-03
 -0.4187378E-02  0.0000000E+00 -0.5050505E-02  0.7856876E-06  0.0000000E+00 -0.2366644E-03
 -0.3985156E-02  0.0000000E+00 -0.5050505E-02  0.8203821E-06  0.0000000E+00 -0.2350128E-03
 -0.3669499E-02  0.0000000E+00 -0.5050505E-02  0.8574648E-06  0.0000000E+00 -0.2332878E-03
 -0.3353842E-02  0.0000000E+00 -0.5050505E-02  0.8972773E-06  0.0000000E+00 -0.2314841E-03
 -0.2978990E-02  0.0000000E+00 -0.5050505E-02  0.9402108E-06  0.0000000E+00 -0.2295957E-03
 -0.2347676E-02  0.0000000E+00 -0.5050505E-02  0.9867105E-06  0.0000000E+00 -0.2276159E-03
 -0.1716362E-02  0.0000000E+00 -0.5050505E-02  0.1037279E-05  0.0000000E+00 -0.2255368E-03
 -0.1025842E-02  0.0000000E+00 -0.5050505E-02  0.1092472E-05  0.0000000E+00 -0.2233497E-03
  0.2367855E-03  0.0000000E+00 -0.5050505E-02  0.1152889E-05  0.0000000E+00 -0.2210445E-03
  0.1499413E-02  0.0000000E+00 -0.5050505E-02  0.1219135E-05  0.0000000E+00 -0.2186098E-03
  0.2762042E-02  0.0000000E+00 -0.5050505E-02  0.1291750E-05  0.0000000E+00 -0.2160335E-03
 -0.5050505E-02  0.0000000E+00 -0.5050505E-02  0.1371057E-05  0.0000000E+00 -0.2133021E-03
 -0.5050505E-02  0.0000000E+00 -0.5050505E-02  0.1456873E-05  0.0000000E+00 -0.2104023E-03
 -0.5050505E-02  0.0000000E+00 -0.5050505E-02  0.1547977E-05  0.0000000E+00 -0.2073222E-03
 -0.5050505E-02  0.0000000E+00 -0.5050505E-02  0.1641159E-05  0.0000000E+00 -0.2040545E-03
 -0.5050505E-02  0.0000000E+00 -0.5050505E-02  0.1729611E-05  0.0000000E+00 -0.2006020E-03
 -0.5050505E-02  0.0000000E+00 -0.5050505E-02  0.1800383E-05  0.0000000E+00 -0.1969880E-03
 -0.5050505E-02  0.0000000E+00 -0.5050505E-02  0.1830887E-05  0.0000000E+00 -0.1932718E-03
 -0.5050504E-02  0.0000000E+00 -0.5050505E-02  0.1785363E-05  0.0000000E+00 -0.1895726E-03
 -0.5050501E-02  0.0000000E+00 -0.5050505E-02  0.1614807E-05  0.0000000E+00 -0.1860959E-03
 -0.5050495E-02  0.0000000E+00 -0.5050505E-02  0.1268689E-05  0.0000000E+00 -0.1831484E-03
 -0.5050482E-02  0.0000000E+00 -0.5050505E-02  0.7307723E-06  0.0000000E+00 -0.1811050E-03
 -0.5050449E-02  0.0000000E+00 -0.5050505E-02  0.7727955E-07  0.0000000E+00 -0.1802793E-03
 -0.5050376E-02  0.0000000E+00 -0.5050505E-02 -0.5141369E-06  0.0000000E+00 -0.1807257E-03
 -0.5050299E-02  0.0000000E+00 -0.5050505E-02 -0.9524033E-06  0.0000000E+00 -0.1822244E-03
 -0.5050178E-02  0.0000000E+00 -0.5050505E-02 -0.1233725E-05  0.0000000E+00 -0.1844588E-03
 -0.5050018E-02  0.0000000E+00 -0.5050505E-02 -0.1391724E-05  0.0000000E+00 -0.1871429E-03
 -0.5049710E-02  0.0000000E+00 -0.5050505E-02 -0.1464802E-05  0.0000000E+00 -0.1900641E-03
 -0.5049253E-02  0.0000000E+00 -0.5050505E-02 -0.1483853E-05  0.0000000E+00 -0.1930805E-03
 -0.5048636E-02  0.0000000E+00 -0.5050505E-02 -0.1470417E-05  0.0000000E+00 -0.1961038E-03
 -0.5047442E-02  0.0000000E+00 -0.5050505E-02 -0.1438400E-05  0.0000000E+00 -0.1990816E-03
 -0.5045727E-02  0.0000000E+00 -0.5050505E-02 -0.1396339E-05  0.0000000E+00 -0.2019845E-03
 -0.5043261E-02  0.0000000E+00 -0.5050505E-02 -0.1349270E-05  0.0000000E+00 -0.2047971E-03
 -0.5038714E-02  0.0000000E+00 -0.5050505E-02 -0.1300045E-05  0.0000000E+00 -0.2075120E-03
 -0.5032318E-02  0.0000000E+00 -0.5050505E-02 -0.1250197E-05  0.0000000E+00 -0.2101262E-03
 -0.5022454E-02  0.0000000E+00 -0.5050505E-02 -0.1200486E-05  0.0000000E+00 -0.2126391E-03
 -0.5012589E-02  0.0000000E+00 -0.5050505E-02 -0.1151242E-05  0.0000000E+00 -0.2150512E-03
 -0.5002725E-02  0.0000000E+00 -0.5050505E-02 -0.1102564E-05  0.0000000E+00 -0.2173635E-03
 -0.4992860E-02  0.0000000E+00 -0.5050505E-02 -0.1054444E-05  0.0000000E+00 -0.2195771E-03
 -0.4976523E-02  0.0000000E+00 -0.5050505E-02 -0.1006827E-05  0.0000000E+00 -0.2216930E-03
 -0.4956794E-02  0.0000000E+00 -0.5050505E-02 -0.9596594E-06  0.0000000E+00 -0.2237121E-03
 -0.4937066E-02  0.0000000E+00 -0.5050505E-02 -0.9129002E-06  0.0000000E+00 -0.2256352E-03
 -0.4906239E-02  0.0000000E+00 -0.5050505E-02 -0.8665352E-06  0.0000000E+00 -0.2274630E-03
 -0.4866782E-02  0.0000000E+00 -0.5050505E-02 -0.8205826E-06  0.0000000E+00 -0.2291964E-03
 -0.4827325E-02  0.0000000E+00 -0.5050505E-02 -0.7750979E-06  0.0000000E+00 -0.2308362E-03
 -0.4769372E-02  0.0000000E+00 -0.5050505E-02 -0.7301822E-06  0.0000000E+00 -0.2323834E-03
 -0.4690458E-02  0.0000000E+00 -0.5050505E-02 -0.6859969E-06  0.0000000E+00 -0.2338392E-03
 -0.4611543E-02  0.0000000E+00 -0.5050505E-02 -0.6427887E-06  0.0000000E+00 -0.2352055E-03
 -0.4503035E-02  0.0000000E+00 -0.5050505E-02 -0.6009349E-06  0.0000000E+00 -0.2364845E-03
 -0.4345206E-02  0.0000000E+00 -0.5050505E-02 -0.5610246E-06  0.0000000E+00 -0.2376796E-03
 -0.4187378E-02  0.0000000E+00 -0.5050505E-02 -0.5240091E-06  0.0000000E+00 -0.2387957E-03
 -0.3985156E-02  0.0000000E+00 -0.5050505E-02 -0.4914909E-06  0.0000000E+00 -0.2398404E-03
 -0.3669499E-02  0.0000000E+00 -0.5050505E-02 -0.4663096E-06  0.0000000E+00 -0.2408259E-03
 -0.3353842E-02  0.0000000E+00 -0.5050505E-02 -0.4538077E-06  0.0000000E+00 -0.2417727E-03
 -0.2978990E-02  0.0000000E+00 -0.5050505E-02 -0.4647748E-06  0.0000000E+00 -0.2427180E-03
 -0.2347676E-02  0.0000000E+00 -0.5050505E-02 -0.5228989E-06  0.0000000E+00 -0.2437346E-03
 -0.1716362E-02  0.0000000E+00 -0.5050505E-02 -0.6854313E-06  0.0000000E+00 -0.2449784E-03
 -0.1025842E-02  0.0000000E+00 -0.5050505E-02 -0.1106223E-05  0.0000000E+00 -0.2468230E-03
  0.2367855E-03  0.0000000E+00 -0.5050505E-02 -0.2246726E-05  0.0000000E+00 -0.2502758E-03
  0.1499413E-02  0.0000000E+00 -0.5050505E-02 -0.5645208E-05  0.0000000E+00 -0.2584064E-03
  0.5287294E-02  0.0000000E+00 -0.5050505E-02 -0.9120268E-04  0.0000000E+00 -0.2063220E-03
 -0.5050505E-02  0.0000000E+00 -0.5050505E-02  0.2548188E-07  0.0000000E+00 -0.2643821E-03
 -0.5050505E-02  0.0000000E+00 -0.5050505E-02  0.7645557E-07  0.0000000E+00 -0.2643469E-03
 -0.5050505E-02  0.0000000E+00 -0.5050505E-02  0.1274592E-06  0.0000000E+00 -0.2642765E-03
 -0.5050505E-02  0.0000000E+00 -0.5050505E-02  0.1785132E-06  0.0000000E+00 -0.2641709E-03
 -0.5050505E-02  0.0000000E+00 -0.5050505E-02  0.2296383E-06  0.0000000E+00 -0.2640301E-03
 -0.5050505E-02  0.0000000E+00 -0.5050505E-02  0.2808558E-06  0.0000000E+00 -0.2638539E-03
 -0.5050504E-02  0.0000000E+00 -0.5050505E-02  0.3321876E-06  0.0000000E+00 -0.2636423E-03
 -0.5050501E-02  0.0000000E+00 -0.5050505E-02  0.3836565E-06  0.0000000E+00 -0.2633953E-03
 -0.5050495E-02  0.0000000E+00 -0.5050505E-02  0.4352862E-06  0.0000000E+00 -0.2631127E-03
 -0.5050482E-02  0.0000000E+00 -0.5050505E-02  0.4871018E-06  0.0000000E+00 -0.2627944E-03
 -0.5050449E-02  0.0000000E+00 -0.5050505E-02  0.5391297E-06  0.0000000E+00 -0.2624403E-03
 -0.5050376E-02  0.0000000E+00 -0.5050505E-02  0.5913979E-06  0.0000000E+00 -0.2620502E-03
 -0.5050299E-02  0.0000000E+00 -0.5050505E-02  0.6439367E-06  0.0000000E+00 -0.2616240E-03
 -0.5050178E-02  0.0000000E+00 -0.5050505E-02  0.6967785E-06  0.0000000E+00 -0.2611615E-03
 -0.5050018E-02  0.0000000E+00 -0.5050505E-02  0.7499586E-06  0.0000000E+00 -0.2606624E-03
 -0.5049710E-02  0.0000000E+00 -0.5050505E-02  0.8035155E-06  0.0000000E+00 -0.2601265E-03
 -0.5049253E-02  0.0000000E+00 -0.5050505E-02  0.8574916E-06  0.0000000E+00 -0.2595535E-03
 -0.5048636E-02  0.0000000E+00 -0.5050505E-02  0.9119334E-06  0.0000000E+00 -0.2589432E-03
 -0.5047442E-02  0.0000000E+00 -0.5050505E-02  0.9668928E-06  0.0000000E+00 -0.2582952E-03
 -0.5045727E-02  0.0000000E+00 -0.5050505E-02  0.1022427E-05  0.0000000E+00 -0.2576092E-03
 -0.5043261E-02  0.0000000E+00 -0.5050505E-02  0.1078601E-05  0.0000000E+00 -0.2568847E-03
 -0.5038714E-02  0.0000000E+00 -0.5050505E-02  0.1135487E-05  0.0000000E+00 -0.2561213E-03
 -0.5032318E-02  0.0000000E+00 -0.5050505E-02  0.1193166E-05  0.0000000E+00 -0.2553184E-03
 -0.5022454E-02  0.0000000E+00 -0.5050505E-02  0.1251731E-05  0.0000000E+00 -0.2544756E-03
 -0.5012589E-02  0.0000000E+00 -0.5050505E-02  0.1311283E-05  0.0000000E+00 -0.2535921E-03
 -0.5002725E-02  0.0000000E+00 -0.5050505E-02  0.1371943E-05  0.0000000E+00 -0.2526673E-03
 -0.4992860E-02  0.0000000E+00 -0.5050505E-02  0.1433842E-05  0.0000000E+00 -0.2517004E-03
 -0.4976523E-02  0.0000000E+00 -0.5050505E-02  0.1497134E-05  0.0000000E+00 -0.2506905E-03
 -0.4956794E-02  0.0000000E+00 -0.5050505E-02  0.1561990E-05  0.0000000E+00 -0.2496366E-03
 -0.4937066E-02  0.0000000E+00 -0.5050505E-02  0.1628609E-05  0.0000000E+00 -0.2485375E-03
 -0.4906239E-02  0.0000000E+00 -0.5050505E-02  0.1697217E-05  0.0000000E+00 -0.2473921E-03
 -0.4866782E-02  0.0000000E+00 -0.5050505E-02  0.1768069E-05  0.0000000E+00 -0.2461988E-03
 -0.4827325E-02  0.0000000E+00 -0.5050505E-02  0.1841463E-05  0.0000000E+00 -0.2449561E-03
 -0.4769372E-02  0.0000000E+00 -0.5050505E-02  0.1917735E-05  0.0000000E+00 -0.2436621E-03
 -0.4690458E-02  0.0000000E+00 -0.5050505E-02  0.1997272E-05  0.0000000E+00 -0.2423147E-03
 -0.4611543E-02  0.0000000E+00 -0.5050505E-02  0.2080518E-05  0.0000000E+00 -0.2409116E-03
 -0.4503035E-02  0.0000000E+00 -0.5050505E-02  0.2167985E-05  0.0000000E+00 -0.2394502E-03
 -0.4345206E-02  0.0000000E+00 -0.5050505E-02  0.2260258E-05  0.0000000E+00 -0.2379273E-03
 -0.4187378E-02  0.0000000E+00 -0.5050505E-02  0.2358012E-05  0.0000000E+00 -0.2363394E-03
 -0.3985156E-02  0.0000000E+00 -0.5050505E-02  0.2462023E-05  0.0000000E+00 -0.2346826E-03
 -0.3669499E-02  0.0000000E+00 -0.5050505E-02  0.2573183E-05  0.0000000E+00 -0.2329524E-03
 -0.3353842E-02  0.0000000E+00 -0.5050505E-02  0.2692519E-05  0.0000000E+00 -0.2311436E-03
 -0.2978990E-02  0.0000000E+00 -0.5050505E-02  0.2821207E-05  0.0000000E+00 -0.2292501E-03
 -0.2347676E-02  0.0000000E+00 -0.5050505E-02  0.2960592E-05  0.0000000E+00 -0.2272653E-03
 -0.1716362E-02  0.0000000E+00 -0.5050505E-02  0.3112195E-05  0.0000000E+00 -0.2251812E-03
 -0.1025842E-02  0.0000000E+00 -0.5050505E-02  0.3277715E-05  0.0000000E+00 -0.2229890E-03
  0.2367855E-03  0.0000000E+00 -0.5050505E-02  0.3459003E-05  0.0000000E+00 -0.2206785E-03
  0.1499413E-02  0.0000000E+00 -0.5050505E-02  0.3657975E-05  0.0000000E+00 -0.2182381E-03
  0.2762042E-02  0.0000000E+00 -0.5050505E-02  0.3876427E-05  0.0000000E+00 -0.2156548E-03
 -0.5050505E-02  0.0000000E+00 -0.5050505E-02  0.4115643E-05  0.0000000E+00 -0.2129142E-03
 -0.5050505E-02  0.0000000E+00 -0.5050505E-02  0.4375634E-05  0.0000000E+00 -0.2100010E-03
 -0.5050505E-02  0.0000000E+00 -0.5050505E-02  0.4653694E-05  0.0000000E+00 -0.2068997E-03
 -0.5050505E-02  0.0000000E+00 -0.5050505E-02  0.4941774E-05  0.0000000E+00 -0.2035968E-03
 -0.5050505E-02  0.0000000E+00 -0.5050505E-02  0.5221871E-05  0.0000000E+00 -0.2000850E-03
 -0.5050505E-02  0.0000000E+00 -0.5050505E-02  0.5458394E-05  0.0000000E+00 -0.1963716E-03
 -0.5050505E-02  0.0000000E+00 -0.5050505E-02  0.5586672E-05  0.0000000E+00 -0.1924936E-03
 -0.5050504E-02  0.0000000E+00 -0.5050505E-02  0.5498838E-05  0.0000000E+00 -0.1885453E-03
 -0.5050501E-02  0.0000000E+00 -0.5050505E-02  0.5035424E-05  0.0000000E+00 -0.1847209E-03
 -0.5050495E-02  0.0000000E+00 -0.5050505E-02  0.4008671E-05  0.0000000E+00 -0.1813657E-03
 -0.5050482E-02  0.0000000E+00 -0.5050505E-02  0.2312493E-05  0.0000000E+00 -0.1789886E-03
 -0.5050449E-02  0.0000000E+00 -0.5050505E-02  0.1683957E-06  0.0000000E+00 -0.1781032E-03
 -0.5050376E-02  0.0000000E+00 -0.5050505E-02 -0.1703098E-05  0.0000000E+00 -0.1787794E-03
 -0.5050299E-02  0.0000000E+00 -0.5050505E-02 -0.3026583E-05  0.0000000E+00 -0.1806183E-03
 -0.5050178E-02  0.0000000E+00 -0.5050505E-02 -0.3839632E-05  0.0000000E+00 -0.1831717E-03
 -0.5050018E-02  0.0000000E+00 -0.5050505E-02 -0.4275975E-05  0.0000000E+00 -0.1861057E-03
 -0.5049710E-02  0.0000000E+00 -0.5050505E-02 -0.4463761E-05  0.0000000E+00 -0.1892067E-03
 -0.5049253E-02  0.0000000E+00 -0.5050505E-02 -0.4498139E-05  0.0000000E+00 -0.1923477E-03
 -0.5048636E-02  0.0000000E+00 -0.5050505E-02 -0.4442442E-05  0.0000000E+00 -0.1954566E-03
 -0.5047442E-02  0.0000000E+00 -0.5050505E-02 -0.4336369E-05  0.0000000E+00 -0.1984940E-03
 -0.5045727E-02  0.0000000E+00 -0.5050505E-02 -0.4203794E-05  0.0000000E+00 -0.2014396E-03
 -0.5043261E-02  0.0000000E+00 -0.5050505E-02 -0.4058558E-05  0.0000000E+00 -0.2042840E-03
 -0.5038714E-02  0.0000000E+00 -0.5050505E-02 -0.3908350E-05  0.0000000E+00 -0.2070238E-03
 -0.5032318E-02  0.0000000E+00 -0.5050505E-02 -0.3757204E-05  0.0000000E+00 -0.2096585E-03
 -0.5022454E-02  0.0000000E+00 -0.5050505E-02 -0.3607043E-05  0.0000000E+00 -0.2121889E-03
 -0.5012589E-02  0.0000000E+00 -0.5050505E-02 -0.3458627E-05  0.0000000E+00 -0.2146167E-03
 -0.5002725E-02  0.0000000E+00 -0.5050505E-02 -0.3312111E-05  0.0000000E+00 -0.2169432E-03
 -0.4992860E-02  0.0000000E+00 -0.5050505E-02 -0.3167378E-05  0.0000000E+00 -0.2191700E-03
 -0.4976523E-02  0.0000000E+00 -0.5050505E-02 -0.3024218E-05  0.0000000E+00 -0.2212982E-03
 -0.4956794E-02  0.0000000E+00 -0.5050505E-02 -0.2882432E-05  0.0000000E+00 -0.2233287E-03
 -0.4937066E-02  0.0000000E+00 -0.5050505E-02 -0.2741878E-05  0.0000000E+00 -0.2252625E-03
 -0.4906239E-02  0.0000000E+00 -0.5050505E-02 -0.2602501E-05  0.0000000E+00 -0.2271004E-03
 -0.4866782E-02  0.0000000E+00 -0.5050505E-02 -0.2464343E-05  0.0000000E+00 -0.2288429E-03
 -0.4827325E-02  0.0000000E+00 -0.5050505E-02 -0.2327559E-05  0.0000000E+00 -0.2304911E-03
 -0.4769372E-02  0.0000000E+00 -0.5050505E-02 -0.2192434E-05  0.0000000E+00 -0.2320457E-03
 -0.4690458E-02  0.0000000E+00 -0.5050505E-02 -0.2059425E-05  0.0000000E+00 -0.2335079E-03
 -0.4611543E-02  0.0000000E+00 -0.5050505E-02 -0.1929226E-05  0.0000000E+00 -0.2348793E-03
 -0.4503035E-02  0.0000000E+00 -0.5050505E-02 -0.1802886E-05  0.0000000E+00 -0.2361619E-03
 -0.4345206E-02  0.0000000E+00 -0.5050505E-02 -0.1682024E-05  0.0000000E+00 -0.2373584E-03
 -0.4187378E-02  0.0000000E+00 -0.5050505E-02 -0.1569209E-05  0.0000000E+00 -0.2384728E-03
 -0.3985156E-02  0.0000000E+00 -0.5050505E-02 -0.1468673E-05  0.0000000E+00 -0.2395108E-03
 -0.3669499E-02  0.0000000E+00 -0.5050505E-02 -0.1387694E-05  0.0000000E+00 -0.2404808E-03
 -0.3353842E-02  0.0000000E+00 -0.5050505E-02 -0.1339418E-05  0.0000000E+00 -0.2413954E-03
 -0.2978990E-02  0.0000000E+00 -0.5050505E-02 -0.1348936E-05  0.0000000E+00 -0.2422734E-03
 -0.2347676E-02  0.0000000E+00 -0.5050505E-02 -0.1467149E-05  0.0000000E+00 -0.2431409E-03
 -0.1716362E-02  0.0000000E+00 -0.5050505E-02 -0.1804360E-05  0.0000000E+00 -0.2440235E-03
 -0.1025842E-02  0.0000000E+00 -0.5050505E-02 -0.2616593E-05  0.0000000E+00 -0.2448901E-03
  0.2367855E-03  0.0000000E+00 -0.5050505E-02 -0.4539320E-05  0.0000000E+00 -0.2453622E-03
  0.1499413E-02  0.0000000E+00 -0.5050505E-02 -0.9247636E-05  0.0000000E+00 -0.2433319E-03
  0.5287294E-02  0.0000000E+00 -0.5050505E-02 -0.2136803E-04  0.0000000E+00 -0.2284856E-03
 -0.5050505E-02  0.0000000E+00 -0.5050505E-02  0.4254576E-07  0.0000000E+00 -0.2639597E-03
 -0.5050505E-02  0.0000000E+00 -0.5050505E-02  0.1276540E-06  0.0000000E+00 -0.2639242E-03
 -0.5050505E-02  0.0000000E+00 -0.5050505E-02  0.2128125E-06  0.0000000E+00 -0.2638533E-03
 -0.5050505E-02  0.0000000E+00 -0.5050505E-02  0.2980554E-06  0.0000000E+00 -0.2637468E-03
 -0.5050505E-02  0.0000000E+00 -0.5050505E-02  0.3834176E-06  0.0000000E+00 -0.2636048E-03
 -0.5050505E-02  0.0000000E+00 -0.5050505E-02  0.4689345E-06  0.0000000E+00 -0.2634272E-03
 -0.5050504E-02  0.0000000E+00 -0.5050505E-02  0.5546429E-06  0.0000000E+00 -0.2632139E-03
 -0.5050501E-02  0.0000000E+00 -0.5050505E-02  0.6405809E-06  0.0000000E+00 -0.2629648E-03
 -0.5050495E-02  0.0000000E+00 -0.5050505E-02  0.7267880E-06  0.0000000E+00 -0.2626799E-03
 -0.5050482E-02  0.0000000E+00 -0.5050505E-02  0.8133061E-06  0.0000000E+00 -0.2623590E-03
 -0.5050449E-02  0.0000000E+00 -0.5050505E-02  0.9001792E-06  0.0000000E+00 -0.2620020E-03
 -0.5050376E-02  0.0000000E+00 -0.5050505E-02  0.9874542E-06  0.0000000E+00 -0.2616087E-03
 -0.5050299E-02  0.0000000E+00 -0.5050505E-02  0.1075181E-05  0.0000000E+00 -0.2611790E-03
 -0.5050178E-02  0.0000000E+00 -0.5050505E-02  0.1163415E-05  0.0000000E+00 -0.2607127E-03
 -0.5050018E-02  0.0000000E+00 -0.5050505E-02  0.1252213E-05  0.0000000E+00 -0.2602095E-03
 -0.5049710E-02  0.0000000E+00 -0.5050505E-02  0.1341640E-05  0.0000000E+00 -0.2596691E-03
 -0.5049253E-02  0.0000000E+00 -0.5050505E-02  0.1431766E-05  0.0000000E+00 -0.2590915E-03
 -0.5048636E-02  0.0000000E+00 -0.5050505E-02  0.1522670E-05  0.0000000E+00 -0.2584761E-03
 -0.5047442E-02  0.0000000E+00 -0.5050505E-02  0.1614436E-05  0.0000000E+00 -0.2578228E-03
 -0.5045727E-02  0.0000000E+00 -0.5050505E-02  0.1707160E-05  0.0000000E+00 -0.2571311E-03
 -0.5043261E-02  0.0000000E+00 -0.5050505E-02  0.1800949E-05  0.0000000E+00 -0.2564006E-03
 -0.5038714E-02  0.0000000E+00 -0.5050505E-02  0.1895924E-05  0.0000000E+00 -0.2556309E-03
 -0.5032318E-02  0.0000000E+00 -0.5050505E-02  0.1992218E-05  0.0000000E+00 -0.2548215E-03
 -0.5022454E-02  0.0000000E+00 -0.5050505E-02  0.2089985E-05  0.0000000E+00 -0.2539718E-03
 -0.5012589E-02  0.0000000E+00 -0.5050505E-02  0.2189395E-05  0.0000000E+00 -0.2530811E-03
 -0.5002725E-02  0.0000000E+00 -0.5050505E-02  0.2290645E-05  0.0000000E+00 -0.2521488E-03
 -0.4992860E-02  0.0000000E+00 -0.5050505E-02  0.2393955E-05  0.0000000E+00 -0.2511741E-03
 -0.4976523E-02  0.0000000E+00 -0.5050505E-02  0.2499577E-05  0.0000000E+00 -0.2501561E-03
 -0.4956794E-02  0.0000000E+00 -0.5050505E-02  0.2607798E-05  0.0000000E+00 -0.2490938E-03
 -0.4937066E-02  0.0000000E+00 -0.5050505E-02  0.2718944E-05  0.0000000E+00 -0.2479860E-03
 -0.4906239E-02  0.0000000E+00 -0.5050505E-02  0.2833390E-05  0.0000000E+00 -0.2468317E-03
 -0.4866782E-02  0.0000000E+00 -0.5050505E-02  0.2951562E-05  0.0000000E+00 -0.2456292E-03
 -0.4827325E-02  0.0000000E+00 -0.5050505E-02  0.3073949E-05  0.0000000E+00 -0.2443771E-03
 -0.4769372E-02  0.0000000E+00 -0.5050505E-02  0.3201109E-05  0.0000000E+00 -0.2430735E-03
 -0.4690458E-02  0.0000000E+00 -0.5050505E-02  0.3333685E-05  0.0000000E+00 -0.2417164E-03
 -0.4611543E-02  0.0000000E+00 -0.5050505E-02  0.3472412E-05  0.0000000E+00 -0.2403034E-03
 -0.4503035E-02  0.0000000E+00 -0.5050505E-02  0.3618138E-05  0.0000000E+00 -0.2388318E-03
 -0.4345206E-02  0.0000000E+00 -0.5050505E-02  0.3771834E-05  0.0000000E+00 -0.2372988E-03
 -0.4187378E-02  0.0000000E+00 -0.5050505E-02  0.3934622E-05  0.0000000E+00 -0.2357007E-03
 -0.3985156E-02  0.0000000E+00 -0.5050505E-02  0.4107792E-05  0.0000000E+00 -0.2340338E-03
 -0.3669499E-02  0.0000000E+00 -0.5050505E-02  0.4292829E-05  0.0000000E+00 -0.2322935E-03
 -0.3353842E-02  0.0000000E+00 -0.5050505E-02  0.4491448E-05  0.0000000E+00 -0.2304746E-03
 -0.2978990E-02  0.0000000E+00 -0.5050505E-02  0.4705619E-05  0.0000000E+00 -0.2285713E-03
 -0.2347676E-02  0.0000000E+00 -0.5050505E-02  0.4937603E-05  0.0000000E+00 -0.2265767E-03
 -0.1716362E-02  0.0000000E+00 -0.5050505E-02  0.5189985E-05  0.0000000E+00 -0.2244830E-03
 -0.1025842E-02  0.0000000E+00 -0.5050505E-02  0.5465684E-05  0.0000000E+00 -0.2222812E-03
  0.2367855E-03  0.0000000E+00 -0.5050505E-02  0.5767945E-05  0.0000000E+00 -0.2199610E-03
  0.1499413E-02  0.0000000E+00 -0.5050505E-02  0.6100260E-05  0.0000000E+00 -0.2175101E-03
  0.2762042E-02  0.0000000E+00 -0.5050505E-02  0.6466157E-05  0.0000000E+00 -0.2149146E-03
 -0.5050505E-02  0.0000000E+00 -0.5050505E-02  0.6868740E-05  0.0000000E+00 -0.2121583E-03
 -0.5050505E-02  0.0000000E+00 -0.5050505E-02  0.7309738E-05  0.0000000E+00 -0.2092224E-03
 -0.5050505E-02  0.0000000E+00 -0.5050505E-02  0.7787630E-05  0.0000000E+00 -0.2060854E-03
 -0.5050505E-02  0.0000000E+00 -0.5050505E-02  0.8294071E-05  0.0000000E+00 -0.2027229E-03
 -0.5050505E-02  0.0000000E+00 -0.5050505E-02  0.8807218E-05  0.0000000E+00 -0.1991086E-03
 -0.5050505E-02  0.0000000E+00 -0.5050505E-02  0.9279639E-05  0.0000000E+00 -0.1952183E-03
 -0.5050505E-02  0.0000000E+00 -0.5050505E-02  0.9617371E-05  0.0000000E+00 -0.1910398E-03
 -0.5050504E-02  0.0000000E+00 -0.5050505E-02  0.9646698E-05  0.0000000E+00 -0.1866017E-03
 -0.5050501E-02  0.0000000E+00 -0.5050505E-02  0.9071609E-05  0.0000000E+00 -0.1820394E-03
 -0.5050495E-02  0.0000000E+00 -0.5050505E-02  0.7455197E-05  0.0000000E+00 -0.1777309E-03
 -0.5050482E-02  0.0000000E+00 -0.5050505E-02  0.4357807E-05  0.0000000E+00 -0.1744852E-03
 -0.5050449E-02  0.0000000E+00 -0.5050505E-02 -0.1686702E-07  0.0000000E+00 -0.1734652E-03
 -0.5050376E-02  0.0000000E+00 -0.5050505E-02 -0.3465520E-05  0.0000000E+00 -0.1747812E-03
 -0.5050299E-02  0.0000000E+00 -0.5050505E-02 -0.5653017E-05  0.0000000E+00 -0.1774353E-03
 -0.5050178E-02  0.0000000E+00 -0.5050505E-02 -0.6872362E-05  0.0000000E+00 -0.1806785E-03
 -0.5050018E-02  0.0000000E+00 -0.5050505E-02 -0.7460686E-05  0.0000000E+00 -0.1841162E-03
 -0.5049710E-02  0.0000000E+00 -0.5050505E-02 -0.7665813E-05  0.0000000E+00 -0.1875637E-03
 -0.5049253E-02  0.0000000E+00 -0.5050505E-02 -0.7648021E-05  0.0000000E+00 -0.1909386E-03
 -0.5048636E-02  0.0000000E+00 -0.5050505E-02 -0.7505583E-05  0.0000000E+00 -0.1942059E-03
 -0.5047442E-02  0.0000000E+00 -0.5050505E-02 -0.7296910E-05  0.0000000E+00 -0.1973529E-03
 -0.5045727E-02  0.0000000E+00 -0.5050505E-02 -0.7055766E-05  0.0000000E+00 -0.2003772E-03
 -0.5043261E-02  0.0000000E+00 -0.5050505E-02 -0.6801019E-05  0.0000000E+00 -0.2032808E-03
 -0.5038714E-02  0.0000000E+00 -0.5050505E-02 -0.6542703E-05  0.0000000E+00 -0.2060674E-03
 -0.5032318E-02  0.0000000E+00 -0.5050505E-02 -0.6285742E-05  0.0000000E+00 -0.2087410E-03
 -0.5022454E-02  0.0000000E+00 -0.5050505E-02 -0.6032198E-05  0.0000000E+00 -0.2113052E-03
 -0.5012589E-02  0.0000000E+00 -0.5050505E-02 -0.5782621E-05  0.0000000E+00 -0.2137633E-03
 -0.5002725E-02  0.0000000E+00 -0.5050505E-02 -0.5536826E-05  0.0000000E+00 -0.2161176E-03
 -0.4992860E-02  0.0000000E+00 -0.5050505E-02 -0.5294344E-05  0.0000000E+00 -0.2183702E-03
 -0.4976523E-02  0.0000000E+00 -0.5050505E-02 -0.5054661E-05  0.0000000E+00 -0.2205226E-03
 -0.4956794E-02  0.0000000E+00 -0.5050505E-02 -0.4817345E-05  0.0000000E+00 -0.2225758E-03
 -0.4937066E-02  0.0000000E+00 -0.5050505E-02 -0.4582100E-05  0.0000000E+00 -0.2245308E-03
 -0.4906239E-02  0.0000000E+00 -0.5050505E-02 -0.4348793E-05  0.0000000E+00 -0.2263883E-03
 -0.4866782E-02  0.0000000E+00 -0.5050505E-02 -0.4117459E-05  0.0000000E+00 -0.2281491E-03
 -0.4827325E-02  0.0000000E+00 -0.5050505E-02 -0.3888319E-05  0.0000000E+00 -0.2298138E-03
 -0.4769372E-02  0.0000000E+00 -0.5050505E-02 -0.3661797E-05  0.0000000E+00 -0.2313832E-03
 -0.4690458E-02  0.0000000E+00 -0.5050505E-02 -0.3438571E-05  0.0000000E+00 -0.2328582E-03
 -0.4611543E-02  0.0000000E+00 -0.5050505E-02 -0.3219657E-05  0.0000000E+00 -0.2342401E-03
 -0.4503035E-02  0.0000000E+00 -0.5050505E-02 -0.3006566E-05  0.0000000E+00 -0.2355303E-03
 -0.4345206E-02  0.0000000E+00 -0.5050505E-02 -0.2801566E-05  0.0000000E+00 -0.2367306E-03
 -0.4187378E-02  0.0000000E+00 -0.5050505E-02 -0.2608143E-05  0.0000000E+00 -0.2378434E-03
 -0.3985156E-02  0.0000000E+00 -0.5050505E-02 -0.2431798E-05  0.0000000E+00 -0.2388716E-03
 -0.3669499E-02  0.0000000E+00 -0.5050505E-02 -0.2281484E-05  0.0000000E+00 -0.2398184E-03
 -0.3353842E-02  0.0000000E+00 -0.5050505E-02 -0.2172208E-05  0.0000000E+00 -0.2406864E-03
 -0.2978990E-02  0.0000000E+00 -0.5050505E-02 -0.2129817E-05  0.0000000E+00 -0.2414750E-03
 -0.2347676E-02  0.0000000E+00 -0.5050505E-02 -0.2199634E-05  0.0000000E+00 -0.2421715E-03
 -0.1716362E-02  0.0000000E+00 -0.5050505E-02 -0.2460861E-05  0.0000000E+00 -0.2427263E-03
 -0.1025842E-02  0.0000000E+00 -0.5050505E-02 -0.3043971E-05  0.0000000E+00 -0.2429868E-03
  0.2367855E-03  0.0000000E+00 -0.5050505E-02 -0.4115866E-05  0.0000000E+00 -0.2425389E-03
  0.1499413E-02  0.0000000E+00 -0.5050505E-02 -0.5630353E-05  0.0000000E+00 -0.2404555E-03
  0.5287294E-02  0.0000000E+00 -0.5050505E-02 -0.5855326E-05  0.0000000E+00 -0.2357720E-03
 -0.5050505E-02  0.0000000E+00 -0.5050505E-02  0.5974605E-07  0.0000000E+00 -0.2633380E-03
 -0.5050505E-02  0.0000000E+00 -0.5050505E-02  0.1792617E-06  0.0000000E+00 -0.2633021E-03
 -0.5050505E-02  0.0000000E+00 -0.5050505E-02  0.2988486E-06  0.0000000E+00 -0.2632303E-03
 -0.5050505E-02  0.0000000E+00 -0.5050505E-02  0.4185546E-06  0.0000000E+00 -0.2631226E-03
 -0.5050505E-02  0.0000000E+00 -0.5050505E-02  0.5384289E-06  0.0000000E+00 -0.2629789E-03
 -0.5050505E-02  0.0000000E+00 -0.5050505E-02  0.6585216E-06  0.0000000E+00 -0.2627991E-03
 -0.5050504E-02  0.0000000E+00 -0.5050505E-02  0.7788844E-06  0.0000000E+00 -0.2625833E-03
 -0.5050501E-02  0.0000000E+00 -0.5050505E-02  0.8995707E-06  0.0000000E+00 -0.2623312E-03
 -0.5050495E-02  0.0000000E+00 -0.5050505E-02  0.1020636E-05  0.0000000E+00 -0.2620429E-03
 -0.5050482E-02  0.0000000E+00 -0.5050505E-02  0.1142140E-05  0.0000000E+00 -0.2617181E-03
 -0.5050449E-02  0.0000000E+00 -0.5050505E-02  0.1264143E-05  0.0000000E+00 -0.2613568E-03
 -0.5050376E-02  0.0000000E+00 -0.5050505E-02  0.1386712E-05  0.0000000E+00 -0.2609588E-03
 -0.5050299E-02  0.0000000E+00 -0.5050505E-02  0.1509917E-05  0.0000000E+00 -0.2605239E-03
 -0.5050178E-02  0.0000000E+00 -0.5050505E-02  0.1633833E-05  0.0000000E+00 -0.2600519E-03
 -0.5050018E-02  0.0000000E+00 -0.5050505E-02  0.1758542E-05  0.0000000E+00 -0.2595426E-03
 -0.5049710E-02  0.0000000E+00 -0.5050505E-02  0.1884135E-05  0.0000000E+00 -0.2589957E-03
 -0.5049253E-02  0.0000000E+00 -0.5050505E-02  0.2010708E-05  0.0000000E+00 -0.2584111E-03
 -0.5048636E-02  0.0000000E+00 -0.5050505E-02  0.2138370E-05  0.0000000E+00 -0.2577883E-03
 -0.5047442E-02  0.0000000E+00 -0.5050505E-02  0.2267241E-05  0.0000000E+00 -0.2571270E-03
 -0.5045727E-02  0.0000000E+00 -0.5050505E-02  0.2397454E-05  0.0000000E+00 -0.2564270E-03
 -0.5043261E-02  0.0000000E+00 -0.5050505E-02  0.2529157E-05  0.0000000E+00 -0.2556877E-03
 -0.5038714E-02  0.0000000E+00 -0.5050505E-02  0.2662518E-05  0.0000000E+00 -0.2549087E-03
 -0.5032318E-02  0.0000000E+00 -0.5050505E-02  0.2797722E-05  0.0000000E+00 -0.2540895E-03
 -0.5022454E-02  0.0000000E+00 -0.5050505E-02  0.2934983E-05  0.0000000E+00 -0.2532295E-03
 -0.5012589E-02  0.0000000E+00 -0.5050505E-02  0.3074537E-05  0.0000000E+00 -0.2523282E-03
 -0.5002725E-02  0.0000000E+00 -0.5050505E-02  0.3216658E-05  0.0000000E+00 -0.2513847E-03
 -0.4992860E-02  0.0000000E+00 -0.5050505E-02  0.3361650E-05  0.0000000E+00 -0.2503985E-03
 -0.4976523E-02  0.0000000E+00 -0.5050505E-02  0.3509865E-05  0.0000000E+00 -0.2493684E-03
 -0.4956794E-02  0.0000000E+00 -0.5050505E-02  0.3661699E-05  0.0000000E+00 -0.2482937E-03
 -0.4937066E-02  0.0000000E+00 -0.5050505E-02  0.3817606E-05  0.0000000E+00 -0.2471732E-03