title = "dataset feddes"
variables = "x", "y", "z", "vx", "vy", "vz"
zone t = "velocities, solution time =  3.700E+01 days        " i =   99, j =   99, k =    1,  f=point
 -0.5050505E-02  0.0000000E+00 -0.5050505E-02  0.1525902E-07  0.0000000E+00 -0.2292025E-03
 -0.5050505E-02  0.0000000E+00 -0.5050505E-02  0.4578876E-07  0.0000000E+00 -0.2291397E-03
 -0.5050505E-02  0.0000000E+00 -0.5050505E-02  0.7635389E-07  0.0000000E+00 -0.2290142E-03
 -0.5050505E-02  0.0000000E+00 -0.5050505E-02  0.1069784E-06  0.0000000E+00 -0.2288258E-03
 -0.5050505E-02  0.0000000E+00 -0.5050505E-02  0.1376869E-06  0.0000000E+00 -0.2285744E-03
 -0.5050505E-02  0.0000000E+00 -0.5050505E-02  0.1685042E-06  0.0000000E+00 -0.2282598E-03
 -0.5050504E-02  0.0000000E+00 -0.5050505E-02  0.1994561E-06  0.0000000E+00 -0.2278817E-03
 -0.5050501E-02  0.0000000E+00 -0.5050505E-02  0.2305691E-06  0.0000000E+00 -0.2274399E-03
 -0.5050495E-02  0.0000000E+00 -0.5050505E-02  0.2618708E-06  0.0000000E+00 -0.2269340E-03
 -0.5050482E-02  0.0000000E+00 -0.5050505E-02  0.2933899E-06  0.0000000E+00 -0.2263636E-03
 -0.5050449E-02  0.0000000E+00 -0.5050505E-02  0.3251566E-06  0.0000000E+00 -0.2257282E-03
 -0.5050376E-02  0.0000000E+00 -0.5050505E-02  0.3572028E-06  0.0000000E+00 -0.2250273E-03
 -0.5050299E-02  0.0000000E+00 -0.5050505E-02  0.3895623E-06  0.0000000E+00 -0.2242603E-03
 -0.5050178E-02  0.0000000E+00 -0.5050505E-02  0.4222712E-06  0.0000000E+00 -0.2234266E-03
 -0.5050018E-02  0.0000000E+00 -0.5050505E-02  0.4553684E-06  0.0000000E+00 -0.2225254E-03
 -0.5049710E-02  0.0000000E+00 -0.5050505E-02  0.4888959E-06  0.0000000E+00 -0.2215559E-03
 -0.5049253E-02  0.0000000E+00 -0.5050505E-02  0.5228991E-06  0.0000000E+00 -0.2205172E-03
 -0.5048636E-02  0.0000000E+00 -0.5050505E-02  0.5574276E-06  0.0000000E+00 -0.2194082E-03
 -0.5047442E-02  0.0000000E+00 -0.5050505E-02  0.5925359E-06  0.0000000E+00 -0.2182280E-03
 -0.5045727E-02  0.0000000E+00 -0.5050505E-02  0.6282839E-06  0.0000000E+00 -0.2169752E-03
 -0.5043261E-02  0.0000000E+00 -0.5050505E-02  0.6647379E-06  0.0000000E+00 -0.2156485E-03
 -0.5038714E-02  0.0000000E+00 -0.5050505E-02  0.7019715E-06  0.0000000E+00 -0.2142464E-03
 -0.5032318E-02  0.0000000E+00 -0.5050505E-02  0.7400665E-06  0.0000000E+00 -0.2127673E-03
 -0.5022454E-02  0.0000000E+00 -0.5050505E-02  0.7791146E-06  0.0000000E+00 -0.2112094E-03
 -0.5012589E-02  0.0000000E+00 -0.5050505E-02  0.8192186E-06  0.0000000E+00 -0.2095706E-03
 -0.5002725E-02  0.0000000E+00 -0.5050505E-02  0.8604937E-06  0.0000000E+00 -0.2078487E-03
 -0.4992860E-02  0.0000000E+00 -0.5050505E-02  0.9030701E-06  0.0000000E+00 -0.2060413E-03
 -0.4976523E-02  0.0000000E+00 -0.5050505E-02  0.9470946E-06  0.0000000E+00 -0.2041455E-03
 -0.4956794E-02  0.0000000E+00 -0.5050505E-02  0.9927336E-06  0.0000000E+00 -0.2021582E-03
 -0.4937066E-02  0.0000000E+00 -0.5050505E-02  0.1040175E-05  0.0000000E+00 -0.2000762E-03
 -0.4906239E-02  0.0000000E+00 -0.5050505E-02  0.1089634E-05  0.0000000E+00 -0.1978954E-03
 -0.4866782E-02  0.0000000E+00 -0.5050505E-02  0.1141353E-05  0.0000000E+00 -0.1956117E-03
 -0.4827325E-02  0.0000000E+00 -0.5050505E-02  0.1195611E-05  0.0000000E+00 -0.1932201E-03
 -0.4769372E-02  0.0000000E+00 -0.5050505E-02  0.1252724E-05  0.0000000E+00 -0.1907153E-03
 -0.4690458E-02  0.0000000E+00 -0.5050505E-02  0.1313055E-05  0.0000000E+00 -0.1880911E-03
 -0.4611543E-02  0.0000000E+00 -0.5050505E-02  0.1377020E-05  0.0000000E+00 -0.1853407E-03
 -0.4503035E-02  0.0000000E+00 -0.5050505E-02  0.1445100E-05  0.0000000E+00 -0.1824563E-03
 -0.4345206E-02  0.0000000E+00 -0.5050505E-02  0.1517847E-05  0.0000000E+00 -0.1794290E-03
 -0.4187378E-02  0.0000000E+00 -0.5050505E-02  0.1595905E-05  0.0000000E+00 -0.1762488E-03
 -0.3985156E-02  0.0000000E+00 -0.5050505E-02  0.1680025E-05  0.0000000E+00 -0.1729043E-03
 -0.3669499E-02  0.0000000E+00 -0.5050505E-02  0.1771089E-05  0.0000000E+00 -0.1693824E-03
 -0.3353842E-02  0.0000000E+00 -0.5050505E-02  0.1870148E-05  0.0000000E+00 -0.1656680E-03
 -0.2978990E-02  0.0000000E+00 -0.5050505E-02  0.1978465E-05  0.0000000E+00 -0.1617440E-03
 -0.2347676E-02  0.0000000E+00 -0.5050505E-02  0.2097583E-05  0.0000000E+00 -0.1575901E-03
 -0.1716362E-02  0.0000000E+00 -0.5050505E-02  0.2229422E-05  0.0000000E+00 -0.1531827E-03
 -0.1025842E-02  0.0000000E+00 -0.5050505E-02  0.2376419E-05  0.0000000E+00 -0.1484939E-03
  0.2367855E-03  0.0000000E+00 -0.5050505E-02  0.2541748E-05  0.0000000E+00 -0.1434901E-03
  0.1499413E-02  0.0000000E+00 -0.5050505E-02  0.2729645E-05  0.0000000E+00 -0.1381303E-03
  0.2762042E-02  0.0000000E+00 -0.5050505E-02  0.2945935E-05  0.0000000E+00 -0.1323635E-03
 -0.5050505E-02  0.0000000E+00 -0.5050505E-02  0.3198863E-05  0.0000000E+00 -0.1261246E-03
 -0.5050505E-02  0.0000000E+00 -0.5050505E-02  0.3500474E-05  0.0000000E+00 -0.1193282E-03
 -0.5050505E-02  0.0000000E+00 -0.5050505E-02  0.3868969E-05  0.0000000E+00 -0.1118586E-03
 -0.5050505E-02  0.0000000E+00 -0.5050505E-02  0.4332914E-05  0.0000000E+00 -0.1035535E-03
 -0.5050505E-02  0.0000000E+00 -0.5050505E-02  0.4939171E-05  0.0000000E+00 -0.9417541E-04
 -0.5050505E-02  0.0000000E+00 -0.5050505E-02  0.5768788E-05  0.0000000E+00 -0.8335917E-04
 -0.5050505E-02  0.0000000E+00 -0.5050505E-02  0.6970999E-05  0.0000000E+00 -0.7051076E-04
 -0.5050504E-02  0.0000000E+00 -0.5050505E-02  0.8840577E-05  0.0000000E+00 -0.5459571E-04
 -0.5050501E-02  0.0000000E+00 -0.5050505E-02  0.1200265E-04  0.0000000E+00 -0.3367125E-04
 -0.5050495E-02  0.0000000E+00 -0.5050505E-02  0.1786531E-04  0.0000000E+00 -0.3769616E-05
 -0.5050482E-02  0.0000000E+00 -0.5050505E-02  0.2973773E-04  0.0000000E+00  0.4397366E-04
 -0.5050449E-02  0.0000000E+00 -0.5050505E-02 -0.2804754E-04  0.0000000E+00  0.4566008E-04
 -0.5050376E-02  0.0000000E+00 -0.5050505E-02 -0.1625806E-04  0.0000000E+00  0.1203004E-05
 -0.5050299E-02  0.0000000E+00 -0.5050505E-02 -0.1055103E-04  0.0000000E+00 -0.2563489E-04
 -0.5050178E-02  0.0000000E+00 -0.5050505E-02 -0.7580367E-05  0.0000000E+00 -0.4381936E-04
 -0.5050018E-02  0.0000000E+00 -0.5050505E-02 -0.5913611E-05  0.0000000E+00 -0.5738412E-04
 -0.5049710E-02  0.0000000E+00 -0.5050505E-02 -0.4908372E-05  0.0000000E+00 -0.6828127E-04
 -0.5049253E-02  0.0000000E+00 -0.5050505E-02 -0.4260029E-05  0.0000000E+00 -0.7752573E-04
 -0.5048636E-02  0.0000000E+00 -0.5050505E-02 -0.3814945E-05  0.0000000E+00 -0.8567686E-04
 -0.5047442E-02  0.0000000E+00 -0.5050505E-02 -0.3490963E-05  0.0000000E+00 -0.9305895E-04
 -0.5045727E-02  0.0000000E+00 -0.5050505E-02 -0.3241820E-05  0.0000000E+00 -0.9986800E-04
 -0.5043261E-02  0.0000000E+00 -0.5050505E-02 -0.3040301E-05  0.0000000E+00 -0.1062265E-03
 -0.5038714E-02  0.0000000E+00 -0.5050505E-02 -0.2869803E-05  0.0000000E+00 -0.1122129E-03
 -0.5032318E-02  0.0000000E+00 -0.5050505E-02 -0.2719898E-05  0.0000000E+00 -0.1178789E-03
 -0.5022454E-02  0.0000000E+00 -0.5050505E-02 -0.2583891E-05  0.0000000E+00 -0.1232587E-03
 -0.5012589E-02  0.0000000E+00 -0.5050505E-02 -0.2457412E-05  0.0000000E+00 -0.1283756E-03
 -0.5002725E-02  0.0000000E+00 -0.5050505E-02 -0.2337581E-05  0.0000000E+00 -0.1332453E-03
 -0.4992860E-02  0.0000000E+00 -0.5050505E-02 -0.2222491E-05  0.0000000E+00 -0.1378792E-03
 -0.4976523E-02  0.0000000E+00 -0.5050505E-02 -0.2110883E-05  0.0000000E+00 -0.1422851E-03
 -0.4956794E-02  0.0000000E+00 -0.5050505E-02 -0.2001932E-05  0.0000000E+00 -0.1464690E-03
 -0.4937066E-02  0.0000000E+00 -0.5050505E-02 -0.1895110E-05  0.0000000E+00 -0.1504353E-03
 -0.4906239E-02  0.0000000E+00 -0.5050505E-02 -0.1790090E-05  0.0000000E+00 -0.1541877E-03
 -0.4866782E-02  0.0000000E+00 -0.5050505E-02 -0.1686688E-05  0.0000000E+00 -0.1577295E-03
 -0.4827325E-02  0.0000000E+00 -0.5050505E-02 -0.1584818E-05  0.0000000E+00 -0.1610636E-03
 -0.4769372E-02  0.0000000E+00 -0.5050505E-02 -0.1484476E-05  0.0000000E+00 -0.1641928E-03
 -0.4690458E-02  0.0000000E+00 -0.5050505E-02 -0.1385728E-05  0.0000000E+00 -0.1671201E-03
 -0.4611543E-02  0.0000000E+00 -0.5050505E-02 -0.1288718E-05  0.0000000E+00 -0.1698487E-03
 -0.4503035E-02  0.0000000E+00 -0.5050505E-02 -0.1193696E-05  0.0000000E+00 -0.1723822E-03
 -0.4345206E-02  0.0000000E+00 -0.5050505E-02 -0.1101075E-05  0.0000000E+00 -0.1747248E-03
 -0.4187378E-02  0.0000000E+00 -0.5050505E-02 -0.1011547E-05  0.0000000E+00 -0.1768822E-03
 -0.3985156E-02  0.0000000E+00 -0.5050505E-02 -0.9263028E-06  0.0000000E+00 -0.1788615E-03
 -0.3669499E-02  0.0000000E+00 -0.5050505E-02 -0.8474857E-06  0.0000000E+00 -0.1806737E-03
 -0.3353842E-02  0.0000000E+00 -0.5050505E-02 -0.7791714E-06  0.0000000E+00 -0.1823359E-03
 -0.2978990E-02  0.0000000E+00 -0.5050505E-02 -0.7296436E-06  0.0000000E+00 -0.1838781E-03
 -0.2347676E-02  0.0000000E+00 -0.5050505E-02 -0.7171471E-06  0.0000000E+00 -0.1853570E-03
 -0.1716362E-02  0.0000000E+00 -0.5050505E-02 -0.7858219E-06  0.0000000E+00 -0.1868937E-03
 -0.1025842E-02  0.0000000E+00 -0.5050505E-02 -0.1054212E-05  0.0000000E+00 -0.1887754E-03
  0.2367855E-03  0.0000000E+00 -0.5050505E-02 -0.1877232E-05  0.0000000E+00 -0.1917739E-03
  0.1499413E-02  0.0000000E+00 -0.5050505E-02 -0.4434826E-05  0.0000000E+00 -0.1982329E-03
  0.5287294E-02  0.0000000E+00 -0.5050505E-02 -0.7013187E-04  0.0000000E+00 -0.1584090E-03
 -0.5050505E-02  0.0000000E+00 -0.5050505E-02  0.4579062E-07  0.0000000E+00 -0.2289777E-03
 -0.5050505E-02  0.0000000E+00 -0.5050505E-02  0.1374071E-06  0.0000000E+00 -0.2289147E-03
 -0.5050505E-02  0.0000000E+00 -0.5050505E-02  0.2291300E-06  0.0000000E+00 -0.2287888E-03
 -0.5050505E-02  0.0000000E+00 -0.5050505E-02  0.3210313E-06  0.0000000E+00 -0.2285998E-03
 -0.5050505E-02  0.0000000E+00 -0.5050505E-02  0.4131845E-06  0.0000000E+00 -0.2283476E-03
 -0.5050505E-02  0.0000000E+00 -0.5050505E-02  0.5056645E-06  0.0000000E+00 -0.2280320E-03
 -0.5050504E-02  0.0000000E+00 -0.5050505E-02  0.5985483E-06  0.0000000E+00 -0.2276528E-03
 -0.5050501E-02  0.0000000E+00 -0.5050505E-02  0.6919155E-06  0.0000000E+00 -0.2272096E-03
 -0.5050495E-02  0.0000000E+00 -0.5050505E-02  0.7858487E-06  0.0000000E+00 -0.2267021E-03
 -0.5050482E-02  0.0000000E+00 -0.5050505E-02  0.8804339E-06  0.0000000E+00 -0.2261299E-03
 -0.5050449E-02  0.0000000E+00 -0.5050505E-02  0.9757616E-06  0.0000000E+00 -0.2254926E-03
 -0.5050376E-02  0.0000000E+00 -0.5050505E-02  0.1071927E-05  0.0000000E+00 -0.2247895E-03
 -0.5050299E-02  0.0000000E+00 -0.5050505E-02  0.1169032E-05  0.0000000E+00 -0.2240202E-03
 -0.5050178E-02  0.0000000E+00 -0.5050505E-02  0.1267185E-05  0.0000000E+00 -0.2231839E-03
 -0.5050018E-02  0.0000000E+00 -0.5050505E-02  0.1366502E-05  0.0000000E+00 -0.2222800E-03
 -0.5049710E-02  0.0000000E+00 -0.5050505E-02  0.1467107E-05  0.0000000E+00 -0.2213075E-03
 -0.5049253E-02  0.0000000E+00 -0.5050505E-02  0.1569139E-05  0.0000000E+00 -0.2202657E-03
 -0.5048636E-02  0.0000000E+00 -0.5050505E-02  0.1672745E-05  0.0000000E+00 -0.2191534E-03
 -0.5047442E-02  0.0000000E+00 -0.5050505E-02  0.1778087E-05  0.0000000E+00 -0.2179696E-03
 -0.5045727E-02  0.0000000E+00 -0.5050505E-02  0.1885346E-05  0.0000000E+00 -0.2167131E-03
 -0.5043261E-02  0.0000000E+00 -0.5050505E-02  0.1994719E-05  0.0000000E+00 -0.2153826E-03
 -0.5038714E-02  0.0000000E+00 -0.5050505E-02  0.2106427E-05  0.0000000E+00 -0.2139764E-03
 -0.5032318E-02  0.0000000E+00 -0.5050505E-02  0.2220715E-05  0.0000000E+00 -0.2124931E-03
 -0.5022454E-02  0.0000000E+00 -0.5050505E-02  0.2337855E-05  0.0000000E+00 -0.2109308E-03
 -0.5012589E-02  0.0000000E+00 -0.5050505E-02  0.2458157E-05  0.0000000E+00 -0.2092874E-03
 -0.5002725E-02  0.0000000E+00 -0.5050505E-02  0.2581964E-05  0.0000000E+00 -0.2075608E-03
 -0.4992860E-02  0.0000000E+00 -0.5050505E-02  0.2709665E-05  0.0000000E+00 -0.2057485E-03
 -0.4976523E-02  0.0000000E+00 -0.5050505E-02  0.2841700E-05  0.0000000E+00 -0.2038478E-03
 -0.4956794E-02  0.0000000E+00 -0.5050505E-02  0.2978565E-05  0.0000000E+00 -0.2018555E-03
 -0.4937066E-02  0.0000000E+00 -0.5050505E-02  0.3120824E-05  0.0000000E+00 -0.1997683E-03
 -0.4906239E-02  0.0000000E+00 -0.5050505E-02  0.3269116E-05  0.0000000E+00 -0.1975823E-03
 -0.4866782E-02  0.0000000E+00 -0.5050505E-02  0.3424168E-05  0.0000000E+00 -0.1952933E-03
 -0.4827325E-02  0.0000000E+00 -0.5050505E-02  0.3586810E-05  0.0000000E+00 -0.1928966E-03
 -0.4769372E-02  0.0000000E+00 -0.5050505E-02  0.3757988E-05  0.0000000E+00 -0.1903866E-03
 -0.4690458E-02  0.0000000E+00 -0.5050505E-02  0.3938787E-05  0.0000000E+00 -0.1877574E-03
 -0.4611543E-02  0.0000000E+00 -0.5050505E-02  0.4130447E-05  0.0000000E+00 -0.1850022E-03
 -0.4503035E-02  0.0000000E+00 -0.5050505E-02  0.4334399E-05  0.0000000E+00 -0.1821131E-03
 -0.4345206E-02  0.0000000E+00 -0.5050505E-02  0.4552291E-05  0.0000000E+00 -0.1790816E-03
 -0.4187378E-02  0.0000000E+00 -0.5050505E-02  0.4786037E-05  0.0000000E+00 -0.1758976E-03
 -0.3985156E-02  0.0000000E+00 -0.5050505E-02  0.5037867E-05  0.0000000E+00 -0.1725500E-03
 -0.3669499E-02  0.0000000E+00 -0.5050505E-02  0.5310401E-05  0.0000000E+00 -0.1690258E-03
 -0.3353842E-02  0.0000000E+00 -0.5050505E-02  0.5606748E-05  0.0000000E+00 -0.1653104E-03
 -0.2978990E-02  0.0000000E+00 -0.5050505E-02  0.5930637E-05  0.0000000E+00 -0.1613867E-03
 -0.2347676E-02  0.0000000E+00 -0.5050505E-02  0.6286606E-05  0.0000000E+00 -0.1572353E-03
 -0.1716362E-02  0.0000000E+00 -0.5050505E-02  0.6680279E-05  0.0000000E+00 -0.1528332E-03
 -0.1025842E-02  0.0000000E+00 -0.5050505E-02  0.7118764E-05  0.0000000E+00 -0.1481535E-03
  0.2367855E-03  0.0000000E+00 -0.5050505E-02  0.7611258E-05  0.0000000E+00 -0.1431644E-03
  0.1499413E-02  0.0000000E+00 -0.5050505E-02  0.8169975E-05  0.0000000E+00 -0.1378273E-03
  0.2762042E-02  0.0000000E+00 -0.5050505E-02  0.8811574E-05  0.0000000E+00 -0.1320950E-03
 -0.5050505E-02  0.0000000E+00 -0.5050505E-02  0.9559452E-05  0.0000000E+00 -0.1259081E-03
 -0.5050505E-02  0.0000000E+00 -0.5050505E-02  0.1044745E-04  0.0000000E+00 -0.1191910E-03
 -0.5050505E-02  0.0000000E+00 -0.5050505E-02  0.1152605E-04  0.0000000E+00 -0.1118439E-03
 -0.5050505E-02  0.0000000E+00 -0.5050505E-02  0.1287321E-04  0.0000000E+00 -0.1037325E-03
 -0.5050505E-02  0.0000000E+00 -0.5050505E-02  0.1461391E-04  0.0000000E+00 -0.9467048E-04
 -0.5050505E-02  0.0000000E+00 -0.5050505E-02  0.1695783E-04  0.0000000E+00 -0.8439329E-04
 -0.5050505E-02  0.0000000E+00 -0.5050505E-02  0.2027632E-04  0.0000000E+00 -0.7251711E-04
 -0.5050504E-02  0.0000000E+00 -0.5050505E-02  0.2527068E-04  0.0000000E+00 -0.5847629E-04
 -0.5050501E-02  0.0000000E+00 -0.5050505E-02  0.3336650E-04  0.0000000E+00 -0.4142488E-04
 -0.5050495E-02  0.0000000E+00 -0.5050505E-02  0.4770409E-04  0.0000000E+00 -0.2003444E-04
 -0.5050482E-02  0.0000000E+00 -0.5050505E-02  0.7584341E-04  0.0000000E+00  0.8309005E-05
 -0.5050449E-02  0.0000000E+00 -0.5050505E-02 -0.7066415E-04  0.0000000E+00  0.1008835E-04
 -0.5050376E-02  0.0000000E+00 -0.5050505E-02 -0.4280696E-04  0.0000000E+00 -0.1479360E-04
 -0.5050299E-02  0.0000000E+00 -0.5050505E-02 -0.2896418E-04  0.0000000E+00 -0.3299324E-04
 -0.5050178E-02  0.0000000E+00 -0.5050505E-02 -0.2146938E-04  0.0000000E+00 -0.4724061E-04
 -0.5050018E-02  0.0000000E+00 -0.5050505E-02 -0.1710266E-04  0.0000000E+00 -0.5891074E-04
 -0.5049710E-02  0.0000000E+00 -0.5050505E-02 -0.1438645E-04  0.0000000E+00 -0.6884455E-04
 -0.5049253E-02  0.0000000E+00 -0.5050505E-02 -0.1259199E-04  0.0000000E+00 -0.7757530E-04
 -0.5048636E-02  0.0000000E+00 -0.5050505E-02 -0.1133697E-04  0.0000000E+00 -0.8544327E-04
 -0.5047442E-02  0.0000000E+00 -0.5050505E-02 -0.1040998E-04  0.0000000E+00 -0.9266714E-04
 -0.5045727E-02  0.0000000E+00 -0.5050505E-02 -0.9688832E-05  0.0000000E+00 -0.9938892E-04
 -0.5043261E-02  0.0000000E+00 -0.5050505E-02 -0.9100143E-05  0.0000000E+00 -0.1057020E-03
 -0.5038714E-02  0.0000000E+00 -0.5050505E-02 -0.8598456E-05  0.0000000E+00 -0.1116684E-03
 -0.5032318E-02  0.0000000E+00 -0.5050505E-02 -0.8154885E-05  0.0000000E+00 -0.1173299E-03
 -0.5022454E-02  0.0000000E+00 -0.5050505E-02 -0.7750720E-05  0.0000000E+00 -0.1227148E-03
 -0.5012589E-02  0.0000000E+00 -0.5050505E-02 -0.7373673E-05  0.0000000E+00 -0.1278427E-03
 -0.5002725E-02  0.0000000E+00 -0.5050505E-02 -0.7015610E-05  0.0000000E+00 -0.1327269E-03
 -0.4992860E-02  0.0000000E+00 -0.5050505E-02 -0.6671135E-05  0.0000000E+00 -0.1373771E-03
 -0.4976523E-02  0.0000000E+00 -0.5050505E-02 -0.6336680E-05  0.0000000E+00 -0.1418001E-03
 -0.4956794E-02  0.0000000E+00 -0.5050505E-02 -0.6009913E-05  0.0000000E+00 -0.1460011E-03
 -0.4937066E-02  0.0000000E+00 -0.5050505E-02 -0.5689341E-05  0.0000000E+00 -0.1499841E-03
 -0.4906239E-02  0.0000000E+00 -0.5050505E-02 -0.5374048E-05  0.0000000E+00 -0.1537526E-03
 -0.4866782E-02  0.0000000E+00 -0.5050505E-02 -0.5063518E-05  0.0000000E+00 -0.1573094E-03
 -0.4827325E-02  0.0000000E+00 -0.5050505E-02 -0.4757521E-05  0.0000000E+00 -0.1606573E-03
 -0.4769372E-02  0.0000000E+00 -0.5050505E-02 -0.4456051E-05  0.0000000E+00 -0.1637991E-03
 -0.4690458E-02  0.0000000E+00 -0.5050505E-02 -0.4159298E-05  0.0000000E+00 -0.1667377E-03
 -0.4611543E-02  0.0000000E+00 -0.5050505E-02 -0.3867666E-05  0.0000000E+00 -0.1694760E-03
 -0.4503035E-02  0.0000000E+00 -0.5050505E-02 -0.3581847E-05  0.0000000E+00 -0.1720175E-03
 -0.4345206E-02  0.0000000E+00 -0.5050505E-02 -0.3302969E-05  0.0000000E+00 -0.1743659E-03
 -0.4187378E-02  0.0000000E+00 -0.5050505E-02 -0.3032883E-05  0.0000000E+00 -0.1765260E-03
 -0.3985156E-02  0.0000000E+00 -0.5050505E-02 -0.2774712E-05  0.0000000E+00 -0.1785037E-03
 -0.3669499E-02  0.0000000E+00 -0.5050505E-02 -0.2533918E-05  0.0000000E+00 -0.1803070E-03
 -0.3353842E-02  0.0000000E+00 -0.5050505E-02 -0.2320482E-05  0.0000000E+00 -0.1819469E-03
 -0.2978990E-02  0.0000000E+00 -0.5050505E-02 -0.2153585E-05  0.0000000E+00 -0.1834391E-03
 -0.2347676E-02  0.0000000E+00 -0.5050505E-02 -0.2072289E-05  0.0000000E+00 -0.1848044E-03
 -0.1716362E-02  0.0000000E+00 -0.5050505E-02 -0.2161359E-05  0.0000000E+00 -0.1860633E-03
 -0.1025842E-02  0.0000000E+00 -0.5050505E-02 -0.2617473E-05  0.0000000E+00 -0.1871914E-03
  0.2367855E-03  0.0000000E+00 -0.5050505E-02 -0.3928059E-05  0.0000000E+00 -0.1878974E-03
  0.1499413E-02  0.0000000E+00 -0.5050505E-02 -0.7374935E-05  0.0000000E+00 -0.1865661E-03
  0.5287294E-02  0.0000000E+00 -0.5050505E-02 -0.1648778E-04  0.0000000E+00 -0.1753261E-03
 -0.5050505E-02  0.0000000E+00 -0.5050505E-02  0.7639504E-07  0.0000000E+00 -0.2285363E-03
 -0.5050505E-02  0.0000000E+00 -0.5050505E-02  0.2292441E-06  0.0000000E+00 -0.2284729E-03
 -0.5050505E-02  0.0000000E+00 -0.5050505E-02  0.3822708E-06  0.0000000E+00 -0.2283463E-03
 -0.5050505E-02  0.0000000E+00 -0.5050505E-02  0.5355956E-06  0.0000000E+00 -0.2281561E-03
 -0.5050505E-02  0.0000000E+00 -0.5050505E-02  0.6893406E-06  0.0000000E+00 -0.2279024E-03
 -0.5050505E-02  0.0000000E+00 -0.5050505E-02  0.8436307E-06  0.0000000E+00 -0.2275848E-03
 -0.5050504E-02  0.0000000E+00 -0.5050505E-02  0.9985942E-06  0.0000000E+00 -0.2272033E-03
 -0.5050501E-02  0.0000000E+00 -0.5050505E-02  0.1154364E-05  0.0000000E+00 -0.2267574E-03
 -0.5050495E-02  0.0000000E+00 -0.5050505E-02  0.1311076E-05  0.0000000E+00 -0.2262468E-03
 -0.5050482E-02  0.0000000E+00 -0.5050505E-02  0.1468875E-05  0.0000000E+00 -0.2256711E-03
 -0.5050449E-02  0.0000000E+00 -0.5050505E-02  0.1627911E-05  0.0000000E+00 -0.2250299E-03
 -0.5050376E-02  0.0000000E+00 -0.5050505E-02  0.1788343E-05  0.0000000E+00 -0.2243226E-03
 -0.5050299E-02  0.0000000E+00 -0.5050505E-02  0.1950339E-05  0.0000000E+00 -0.2235486E-03
 -0.5050178E-02  0.0000000E+00 -0.5050505E-02  0.2114079E-05  0.0000000E+00 -0.2227073E-03
 -0.5050018E-02  0.0000000E+00 -0.5050505E-02  0.2279757E-05  0.0000000E+00 -0.2217979E-03
 -0.5049710E-02  0.0000000E+00 -0.5050505E-02  0.2447580E-05  0.0000000E+00 -0.2208197E-03
 -0.5049253E-02  0.0000000E+00 -0.5050505E-02  0.2617775E-05  0.0000000E+00 -0.2197716E-03
 -0.5048636E-02  0.0000000E+00 -0.5050505E-02  0.2790588E-05  0.0000000E+00 -0.2186528E-03
 -0.5047442E-02  0.0000000E+00 -0.5050505E-02  0.2966289E-05  0.0000000E+00 -0.2174620E-03
 -0.5045727E-02  0.0000000E+00 -0.5050505E-02  0.3145176E-05  0.0000000E+00 -0.2161982E-03
 -0.5043261E-02  0.0000000E+00 -0.5050505E-02  0.3327577E-05  0.0000000E+00 -0.2148599E-03
 -0.5038714E-02  0.0000000E+00 -0.5050505E-02  0.3513857E-05  0.0000000E+00 -0.2134458E-03
 -0.5032318E-02  0.0000000E+00 -0.5050505E-02  0.3704422E-05  0.0000000E+00 -0.2119541E-03
 -0.5022454E-02  0.0000000E+00 -0.5050505E-02  0.3899726E-05  0.0000000E+00 -0.2103830E-03
 -0.5012589E-02  0.0000000E+00 -0.5050505E-02  0.4100277E-05  0.0000000E+00 -0.2087306E-03
 -0.5002725E-02  0.0000000E+00 -0.5050505E-02  0.4306647E-05  0.0000000E+00 -0.2069947E-03
 -0.4992860E-02  0.0000000E+00 -0.5050505E-02  0.4519479E-05  0.0000000E+00 -0.2051728E-03
 -0.4976523E-02  0.0000000E+00 -0.5050505E-02  0.4739500E-05  0.0000000E+00 -0.2032622E-03
 -0.4956794E-02  0.0000000E+00 -0.5050505E-02  0.4967532E-05  0.0000000E+00 -0.2012599E-03
 -0.4937066E-02  0.0000000E+00 -0.5050505E-02  0.5204507E-05  0.0000000E+00 -0.1991625E-03
 -0.4906239E-02  0.0000000E+00 -0.5050505E-02  0.5451482E-05  0.0000000E+00 -0.1969663E-03
 -0.4866782E-02  0.0000000E+00 -0.5050505E-02  0.5709660E-05  0.0000000E+00 -0.1946670E-03
 -0.4827325E-02  0.0000000E+00 -0.5050505E-02  0.5980411E-05  0.0000000E+00 -0.1922599E-03
 -0.4769372E-02  0.0000000E+00 -0.5050505E-02  0.6265299E-05  0.0000000E+00 -0.1897398E-03
 -0.4690458E-02  0.0000000E+00 -0.5050505E-02  0.6566111E-05  0.0000000E+00 -0.1871006E-03
 -0.4611543E-02  0.0000000E+00 -0.5050505E-02  0.6884896E-05  0.0000000E+00 -0.1843357E-03
 -0.4503035E-02  0.0000000E+00 -0.5050505E-02  0.7224007E-05  0.0000000E+00 -0.1814376E-03
 -0.4345206E-02  0.0000000E+00 -0.5050505E-02  0.7586155E-05  0.0000000E+00 -0.1783976E-03
 -0.4187378E-02  0.0000000E+00 -0.5050505E-02  0.7974479E-05  0.0000000E+00 -0.1752062E-03
 -0.3985156E-02  0.0000000E+00 -0.5050505E-02  0.8392630E-05  0.0000000E+00 -0.1718523E-03
 -0.3669499E-02  0.0000000E+00 -0.5050505E-02  0.8844880E-05  0.0000000E+00 -0.1683235E-03
 -0.3353842E-02  0.0000000E+00 -0.5050505E-02  0.9336278E-05  0.0000000E+00 -0.1646056E-03
 -0.2978990E-02  0.0000000E+00 -0.5050505E-02  0.9872846E-05  0.0000000E+00 -0.1606824E-03
 -0.2347676E-02  0.0000000E+00 -0.5050505E-02  0.1046186E-04  0.0000000E+00 -0.1565353E-03
 -0.1716362E-02  0.0000000E+00 -0.5050505E-02  0.1111228E-04  0.0000000E+00 -0.1521428E-03
 -0.1025842E-02  0.0000000E+00 -0.5050505E-02  0.1183530E-04  0.0000000E+00 -0.1474801E-03
  0.2367855E-03  0.0000000E+00 -0.5050505E-02  0.1264526E-04  0.0000000E+00 -0.1425182E-03
  0.1499413E-02  0.0000000E+00 -0.5050505E-02  0.1356096E-04  0.0000000E+00 -0.1372230E-03
  0.2762042E-02  0.0000000E+00 -0.5050505E-02  0.1460769E-04  0.0000000E+00 -0.1315538E-03
 -0.5050505E-02  0.0000000E+00 -0.5050505E-02  0.1582039E-04  0.0000000E+00 -0.1254619E-03
 -0.5050505E-02  0.0000000E+00 -0.5050505E-02  0.1724863E-04  0.0000000E+00 -0.1188879E-03
 -0.5050505E-02  0.0000000E+00 -0.5050505E-02  0.1896467E-04  0.0000000E+00 -0.1117588E-03
 -0.5050505E-02  0.0000000E+00 -0.5050505E-02  0.2107661E-04  0.0000000E+00 -0.1039847E-03
 -0.5050505E-02  0.0000000E+00 -0.5050505E-02  0.2375056E-04  0.0000000E+00 -0.9545676E-04
 -0.5050505E-02  0.0000000E+00 -0.5050505E-02  0.2724896E-04  0.0000000E+00 -0.8605137E-04
 -0.5050505E-02  0.0000000E+00 -0.5050505E-02  0.3199869E-04  0.0000000E+00 -0.7565790E-04
 -0.5050504E-02  0.0000000E+00 -0.5050505E-02  0.3871558E-04  0.0000000E+00 -0.6428100E-04
 -0.5050501E-02  0.0000000E+00 -0.5050505E-02  0.4863569E-04  0.0000000E+00 -0.5238641E-04
 -0.5050495E-02  0.0000000E+00 -0.5050505E-02  0.6394218E-04  0.0000000E+00 -0.4207321E-04
 -0.5050482E-02  0.0000000E+00 -0.5050505E-02  0.8850811E-04  0.0000000E+00 -0.4128144E-04
 -0.5050449E-02  0.0000000E+00 -0.5050505E-02 -0.7953409E-04  0.0000000E+00 -0.3928211E-04
 -0.5050376E-02  0.0000000E+00 -0.5050505E-02 -0.5552447E-04  0.0000000E+00 -0.3623261E-04
 -0.5050299E-02  0.0000000E+00 -0.5050505E-02 -0.4114742E-04  0.0000000E+00 -0.4310665E-04
 -0.5050178E-02  0.0000000E+00 -0.5050505E-02 -0.3232140E-04  0.0000000E+00 -0.5207736E-04
 -0.5050018E-02  0.0000000E+00 -0.5050505E-02 -0.2671311E-04  0.0000000E+00 -0.6105798E-04
 -0.5049710E-02  0.0000000E+00 -0.5050505E-02 -0.2300228E-04  0.0000000E+00 -0.6954038E-04
 -0.5049253E-02  0.0000000E+00 -0.5050505E-02 -0.2043596E-04  0.0000000E+00 -0.7745938E-04
 -0.5048636E-02  0.0000000E+00 -0.5050505E-02 -0.1857695E-04  0.0000000E+00 -0.8486488E-04
 -0.5047442E-02  0.0000000E+00 -0.5050505E-02 -0.1716531E-04  0.0000000E+00 -0.9182539E-04
 -0.5045727E-02  0.0000000E+00 -0.5050505E-02 -0.1604260E-04  0.0000000E+00 -0.9840135E-04
 -0.5043261E-02  0.0000000E+00 -0.5050505E-02 -0.1510981E-04  0.0000000E+00 -0.1046399E-03
 -0.5038714E-02  0.0000000E+00 -0.5050505E-02 -0.1430375E-04  0.0000000E+00 -0.1105758E-03
 -0.5032318E-02  0.0000000E+00 -0.5050505E-02 -0.1358335E-04  0.0000000E+00 -0.1162343E-03
 -0.5022454E-02  0.0000000E+00 -0.5050505E-02 -0.1292154E-04  0.0000000E+00 -0.1216335E-03
 -0.5012589E-02  0.0000000E+00 -0.5050505E-02 -0.1230035E-04  0.0000000E+00 -0.1267859E-03
 -0.5002725E-02  0.0000000E+00 -0.5050505E-02 -0.1170780E-04  0.0000000E+00 -0.1317008E-03
 -0.4992860E-02  0.0000000E+00 -0.5050505E-02 -0.1113588E-04  0.0000000E+00 -0.1363847E-03
 -0.4976523E-02  0.0000000E+00 -0.5050505E-02 -0.1057933E-04  0.0000000E+00 -0.1408426E-03
 -0.4956794E-02  0.0000000E+00 -0.5050505E-02 -0.1003469E-04  0.0000000E+00 -0.1450783E-03
 -0.4937066E-02  0.0000000E+00 -0.5050505E-02 -0.9499768E-05  0.0000000E+00 -0.1490951E-03
 -0.4906239E-02  0.0000000E+00 -0.5050505E-02 -0.8973245E-05  0.0000000E+00 -0.1528956E-03
 -0.4866782E-02  0.0000000E+00 -0.5050505E-02 -0.8454386E-05  0.0000000E+00 -0.1564825E-03
 -0.4827325E-02  0.0000000E+00 -0.5050505E-02 -0.7942883E-05  0.0000000E+00 -0.1598583E-03
 -0.4769372E-02  0.0000000E+00 -0.5050505E-02 -0.7438752E-05  0.0000000E+00 -0.1630254E-03
 -0.4690458E-02  0.0000000E+00 -0.5050505E-02 -0.6942290E-05  0.0000000E+00 -0.1659866E-03
 -0.4611543E-02  0.0000000E+00 -0.5050505E-02 -0.6454091E-05  0.0000000E+00 -0.1687445E-03
 -0.4503035E-02  0.0000000E+00 -0.5050505E-02 -0.5975136E-05  0.0000000E+00 -0.1713021E-03
 -0.4345206E-02  0.0000000E+00 -0.5050505E-02 -0.5506980E-05  0.0000000E+00 -0.1736627E-03
 -0.4187378E-02  0.0000000E+00 -0.5050505E-02 -0.5052089E-05  0.0000000E+00 -0.1758298E-03
 -0.3985156E-02  0.0000000E+00 -0.5050505E-02 -0.4614459E-05  0.0000000E+00 -0.1778071E-03
 -0.3669499E-02  0.0000000E+00 -0.5050505E-02 -0.4200714E-05  0.0000000E+00 -0.1795986E-03
 -0.3353842E-02  0.0000000E+00 -0.5050505E-02 -0.3822114E-05  0.0000000E+00 -0.1812078E-03
 -0.2978990E-02  0.0000000E+00 -0.5050505E-02 -0.3498215E-05  0.0000000E+00 -0.1826354E-03
 -0.2347676E-02  0.0000000E+00 -0.5050505E-02 -0.3263481E-05  0.0000000E+00 -0.1838724E-03
 -0.1716362E-02  0.0000000E+00 -0.5050505E-02 -0.3178233E-05  0.0000000E+00 -0.1848815E-03
 -0.1025842E-02  0.0000000E+00 -0.5050505E-02 -0.3341691E-05  0.0000000E+00 -0.1855460E-03
  0.2367855E-03  0.0000000E+00 -0.5050505E-02 -0.3879816E-05  0.0000000E+00 -0.1855495E-03
  0.1499413E-02  0.0000000E+00 -0.5050505E-02 -0.4752716E-05  0.0000000E+00 -0.1841859E-03
  0.5287294E-02  0.0000000E+00 -0.5050505E-02 -0.4627670E-05  0.0000000E+00 -0.1807275E-03
 -0.5050505E-02  0.0000000E+00 -0.5050505E-02  0.1071624E-06  0.0000000E+00 -0.2278862E-03
 -0.5050505E-02  0.0000000E+00 -0.5050505E-02  0.3215701E-06  0.0000000E+00 -0.2278223E-03
 -0.5050505E-02  0.0000000E+00 -0.5050505E-02  0.5362271E-06  0.0000000E+00 -0.2276945E-03
 -0.5050505E-02  0.0000000E+00 -0.5050505E-02  0.7513022E-06  0.0000000E+00 -0.2275027E-03
 -0.5050505E-02  0.0000000E+00 -0.5050505E-02  0.9669664E-06  0.0000000E+00 -0.2272466E-03
 -0.5050505E-02  0.0000000E+00 -0.5050505E-02  0.1183395E-05  0.0000000E+00 -0.2269262E-03
 -0.5050504E-02  0.0000000E+00 -0.5050505E-02  0.1400767E-05  0.0000000E+00 -0.2265412E-03
 -0.5050501E-02  0.0000000E+00 -0.5050505E-02  0.1619267E-05  0.0000000E+00 -0.2260913E-03
 -0.5050495E-02  0.0000000E+00 -0.5050505E-02  0.1839089E-05  0.0000000E+00 -0.2255761E-03
 -0.5050482E-02  0.0000000E+00 -0.5050505E-02  0.2060432E-05  0.0000000E+00 -0.2249953E-03
 -0.5050449E-02  0.0000000E+00 -0.5050505E-02  0.2283506E-05  0.0000000E+00 -0.2243483E-03
 -0.5050376E-02  0.0000000E+00 -0.5050505E-02  0.2508532E-05  0.0000000E+00 -0.2236347E-03
 -0.5050299E-02  0.0000000E+00 -0.5050505E-02  0.2735747E-05  0.0000000E+00 -0.2228538E-03
 -0.5050178E-02  0.0000000E+00 -0.5050505E-02  0.2965401E-05  0.0000000E+00 -0.2220050E-03
 -0.5050018E-02  0.0000000E+00 -0.5050505E-02  0.3197763E-05  0.0000000E+00 -0.2210876E-03
 -0.5049710E-02  0.0000000E+00 -0.5050505E-02  0.3433124E-05  0.0000000E+00 -0.2201007E-03
 -0.5049253E-02  0.0000000E+00 -0.5050505E-02  0.3671797E-05  0.0000000E+00 -0.2190435E-03
 -0.5048636E-02  0.0000000E+00 -0.5050505E-02  0.3914127E-05  0.0000000E+00 -0.2179149E-03
 -0.5047442E-02  0.0000000E+00 -0.5050505E-02  0.4160488E-05  0.0000000E+00 -0.2167138E-03
 -0.5045727E-02  0.0000000E+00 -0.5050505E-02  0.4411295E-05  0.0000000E+00 -0.2154391E-03
 -0.5043261E-02  0.0000000E+00 -0.5050505E-02  0.4667003E-05  0.0000000E+00 -0.2140894E-03
 -0.5038714E-02  0.0000000E+00 -0.5050505E-02  0.4928120E-05  0.0000000E+00 -0.2126633E-03
 -0.5032318E-02  0.0000000E+00 -0.5050505E-02  0.5195208E-05  0.0000000E+00 -0.2111592E-03
 -0.5022454E-02  0.0000000E+00 -0.5050505E-02  0.5468899E-05  0.0000000E+00 -0.2095752E-03
 -0.5012589E-02  0.0000000E+00 -0.5050505E-02  0.5749897E-05  0.0000000E+00 -0.2079094E-03
 -0.5002725E-02  0.0000000E+00 -0.5050505E-02  0.6038996E-05  0.0000000E+00 -0.2061596E-03
 -0.4992860E-02  0.0000000E+00 -0.5050505E-02  0.6337086E-05  0.0000000E+00 -0.2043235E-03
 -0.4976523E-02  0.0000000E+00 -0.5050505E-02  0.6645177E-05  0.0000000E+00 -0.2023983E-03
 -0.4956794E-02  0.0000000E+00 -0.5050505E-02  0.6964406E-05  0.0000000E+00 -0.2003811E-03
 -0.4937066E-02  0.0000000E+00 -0.5050505E-02  0.7296063E-05  0.0000000E+00 -0.1982686E-03