title = "dataset feddes"
variables = "x", "y", "z", "vx", "vy", "vz"
zone t = "velocities, solution time =  2.500E+01 days        " i =   99, j =   99, k =    1,  f=point
 -0.5050505E-02  0.0000000E+00 -0.5050505E-02  0.9555037E-09  0.0000000E+00 -0.3562026E-03
 -0.5050505E-02  0.0000000E+00 -0.5050505E-02  0.2865176E-08  0.0000000E+00 -0.3561986E-03
 -0.5050505E-02  0.0000000E+00 -0.5050505E-02  0.4770734E-08  0.0000000E+00 -0.3561906E-03
 -0.5050505E-02  0.0000000E+00 -0.5050505E-02  0.6669415E-08  0.0000000E+00 -0.3561787E-03
 -0.5050505E-02  0.0000000E+00 -0.5050505E-02  0.8558456E-08  0.0000000E+00 -0.3561628E-03
 -0.5050505E-02  0.0000000E+00 -0.5050505E-02  0.1043507E-07  0.0000000E+00 -0.3561430E-03
 -0.5050504E-02  0.0000000E+00 -0.5050505E-02  0.1229646E-07  0.0000000E+00 -0.3561193E-03
 -0.5050501E-02  0.0000000E+00 -0.5050505E-02  0.1413978E-07  0.0000000E+00 -0.3560918E-03
 -0.5050495E-02  0.0000000E+00 -0.5050505E-02  0.1596217E-07  0.0000000E+00 -0.3560604E-03
 -0.5050482E-02  0.0000000E+00 -0.5050505E-02  0.1776071E-07  0.0000000E+00 -0.3560252E-03
 -0.5050449E-02  0.0000000E+00 -0.5050505E-02  0.1953246E-07  0.0000000E+00 -0.3559864E-03
 -0.5050376E-02  0.0000000E+00 -0.5050505E-02  0.2127443E-07  0.0000000E+00 -0.3559438E-03
 -0.5050299E-02  0.0000000E+00 -0.5050505E-02  0.2298355E-07  0.0000000E+00 -0.3558977E-03
 -0.5050178E-02  0.0000000E+00 -0.5050505E-02  0.2465672E-07  0.0000000E+00 -0.3558480E-03
 -0.5050018E-02  0.0000000E+00 -0.5050505E-02  0.2629077E-07  0.0000000E+00 -0.3557949E-03
 -0.5049710E-02  0.0000000E+00 -0.5050505E-02  0.2788247E-07  0.0000000E+00 -0.3557384E-03
 -0.5049253E-02  0.0000000E+00 -0.5050505E-02  0.2942851E-07  0.0000000E+00 -0.3556787E-03
 -0.5048636E-02  0.0000000E+00 -0.5050505E-02  0.3092551E-07  0.0000000E+00 -0.3556158E-03
 -0.5047442E-02  0.0000000E+00 -0.5050505E-02  0.3236999E-07  0.0000000E+00 -0.3555498E-03
 -0.5045727E-02  0.0000000E+00 -0.5050505E-02  0.3375843E-07  0.0000000E+00 -0.3554808E-03
 -0.5043261E-02  0.0000000E+00 -0.5050505E-02  0.3508716E-07  0.0000000E+00 -0.3554091E-03
 -0.5038714E-02  0.0000000E+00 -0.5050505E-02  0.3635247E-07  0.0000000E+00 -0.3553346E-03
 -0.5032318E-02  0.0000000E+00 -0.5050505E-02  0.3755050E-07  0.0000000E+00 -0.3552576E-03
 -0.5022454E-02  0.0000000E+00 -0.5050505E-02  0.3867733E-07  0.0000000E+00 -0.3551781E-03
 -0.5012589E-02  0.0000000E+00 -0.5050505E-02  0.3972889E-07  0.0000000E+00 -0.3550964E-03
 -0.5002725E-02  0.0000000E+00 -0.5050505E-02  0.4070101E-07  0.0000000E+00 -0.3550125E-03
 -0.4992860E-02  0.0000000E+00 -0.5050505E-02  0.4158939E-07  0.0000000E+00 -0.3549268E-03
 -0.4976523E-02  0.0000000E+00 -0.5050505E-02  0.4238962E-07  0.0000000E+00 -0.3548392E-03
 -0.4956794E-02  0.0000000E+00 -0.5050505E-02  0.4309712E-07  0.0000000E+00 -0.3547501E-03
 -0.4937066E-02  0.0000000E+00 -0.5050505E-02  0.4370721E-07  0.0000000E+00 -0.3546596E-03
 -0.4906239E-02  0.0000000E+00 -0.5050505E-02  0.4421504E-07  0.0000000E+00 -0.3545680E-03
 -0.4866782E-02  0.0000000E+00 -0.5050505E-02  0.4461565E-07  0.0000000E+00 -0.3544754E-03
 -0.4827325E-02  0.0000000E+00 -0.5050505E-02  0.4490391E-07  0.0000000E+00 -0.3543821E-03
 -0.4769372E-02  0.0000000E+00 -0.5050505E-02  0.4507459E-07  0.0000000E+00 -0.3542883E-03
 -0.4690458E-02  0.0000000E+00 -0.5050505E-02  0.4512230E-07  0.0000000E+00 -0.3541943E-03
 -0.4611543E-02  0.0000000E+00 -0.5050505E-02  0.4504158E-07  0.0000000E+00 -0.3541003E-03
 -0.4503035E-02  0.0000000E+00 -0.5050505E-02  0.4482685E-07  0.0000000E+00 -0.3540066E-03
 -0.4345206E-02  0.0000000E+00 -0.5050505E-02  0.4447250E-07  0.0000000E+00 -0.3539136E-03
 -0.4187378E-02  0.0000000E+00 -0.5050505E-02  0.4397290E-07  0.0000000E+00 -0.3538214E-03
 -0.3985156E-02  0.0000000E+00 -0.5050505E-02  0.4332246E-07  0.0000000E+00 -0.3537304E-03
 -0.3669499E-02  0.0000000E+00 -0.5050505E-02  0.4251569E-07  0.0000000E+00 -0.3536409E-03
 -0.3353842E-02  0.0000000E+00 -0.5050505E-02  0.4154731E-07  0.0000000E+00 -0.3535533E-03
 -0.2978990E-02  0.0000000E+00 -0.5050505E-02  0.4041233E-07  0.0000000E+00 -0.3534679E-03
 -0.2347676E-02  0.0000000E+00 -0.5050505E-02  0.3910614E-07  0.0000000E+00 -0.3533850E-03
 -0.1716362E-02  0.0000000E+00 -0.5050505E-02  0.3762472E-07  0.0000000E+00 -0.3533050E-03
 -0.1025842E-02  0.0000000E+00 -0.5050505E-02  0.3596475E-07  0.0000000E+00 -0.3532283E-03
  0.2367855E-03  0.0000000E+00 -0.5050505E-02  0.3412378E-07  0.0000000E+00 -0.3531553E-03
  0.1499413E-02  0.0000000E+00 -0.5050505E-02  0.3210049E-07  0.0000000E+00 -0.3530863E-03
  0.2762042E-02  0.0000000E+00 -0.5050505E-02  0.2989483E-07  0.0000000E+00 -0.3530217E-03
 -0.5050505E-02  0.0000000E+00 -0.5050505E-02  0.2750827E-07  0.0000000E+00 -0.3529618E-03
 -0.5050505E-02  0.0000000E+00 -0.5050505E-02  0.2494406E-07  0.0000000E+00 -0.3529072E-03
 -0.5050505E-02  0.0000000E+00 -0.5050505E-02  0.2220740E-07  0.0000000E+00 -0.3528580E-03
 -0.5050505E-02  0.0000000E+00 -0.5050505E-02  0.1930566E-07  0.0000000E+00 -0.3528148E-03
 -0.5050505E-02  0.0000000E+00 -0.5050505E-02  0.1624859E-07  0.0000000E+00 -0.3527777E-03
 -0.5050505E-02  0.0000000E+00 -0.5050505E-02  0.1304841E-07  0.0000000E+00 -0.3527472E-03
 -0.5050505E-02  0.0000000E+00 -0.5050505E-02  0.9719921E-08  0.0000000E+00 -0.3527235E-03
 -0.5050504E-02  0.0000000E+00 -0.5050505E-02  0.6280523E-08  0.0000000E+00 -0.3527068E-03
 -0.5050501E-02  0.0000000E+00 -0.5050505E-02  0.2750133E-08  0.0000000E+00 -0.3526974E-03
 -0.5050495E-02  0.0000000E+00 -0.5050505E-02 -0.8489573E-09  0.0000000E+00 -0.3526954E-03
 -0.5050482E-02  0.0000000E+00 -0.5050505E-02 -0.4492332E-08  0.0000000E+00 -0.3527010E-03
 -0.5050449E-02  0.0000000E+00 -0.5050505E-02 -0.8153804E-08  0.0000000E+00 -0.3527141E-03
 -0.5050376E-02  0.0000000E+00 -0.5050505E-02 -0.1180586E-07  0.0000000E+00 -0.3527349E-03
 -0.5050299E-02  0.0000000E+00 -0.5050505E-02 -0.1542017E-07  0.0000000E+00 -0.3527633E-03
 -0.5050178E-02  0.0000000E+00 -0.5050505E-02 -0.1896820E-07  0.0000000E+00 -0.3527992E-03
 -0.5050018E-02  0.0000000E+00 -0.5050505E-02 -0.2242183E-07  0.0000000E+00 -0.3528423E-03
 -0.5049710E-02  0.0000000E+00 -0.5050505E-02 -0.2575405E-07  0.0000000E+00 -0.3528925E-03
 -0.5049253E-02  0.0000000E+00 -0.5050505E-02 -0.2893959E-07  0.0000000E+00 -0.3529495E-03
 -0.5048636E-02  0.0000000E+00 -0.5050505E-02 -0.3195561E-07  0.0000000E+00 -0.3530130E-03
 -0.5047442E-02  0.0000000E+00 -0.5050505E-02 -0.3478228E-07  0.0000000E+00 -0.3530825E-03
 -0.5045727E-02  0.0000000E+00 -0.5050505E-02 -0.3740339E-07  0.0000000E+00 -0.3531577E-03
 -0.5043261E-02  0.0000000E+00 -0.5050505E-02 -0.3980683E-07  0.0000000E+00 -0.3532382E-03
 -0.5038714E-02  0.0000000E+00 -0.5050505E-02 -0.4198506E-07  0.0000000E+00 -0.3533235E-03
 -0.5032318E-02  0.0000000E+00 -0.5050505E-02 -0.4393558E-07  0.0000000E+00 -0.3534130E-03
 -0.5022454E-02  0.0000000E+00 -0.5050505E-02 -0.4566137E-07  0.0000000E+00 -0.3535064E-03
 -0.5012589E-02  0.0000000E+00 -0.5050505E-02 -0.4717139E-07  0.0000000E+00 -0.3536031E-03
 -0.5002725E-02  0.0000000E+00 -0.5050505E-02 -0.4848124E-07  0.0000000E+00 -0.3537028E-03
 -0.4992860E-02  0.0000000E+00 -0.5050505E-02 -0.4961402E-07  0.0000000E+00 -0.3538051E-03
 -0.4976523E-02  0.0000000E+00 -0.5050505E-02 -0.5060163E-07  0.0000000E+00 -0.3539095E-03
 -0.4956794E-02  0.0000000E+00 -0.5050505E-02 -0.5148659E-07  0.0000000E+00 -0.3540159E-03
 -0.4937066E-02  0.0000000E+00 -0.5050505E-02 -0.5232489E-07  0.0000000E+00 -0.3541241E-03
 -0.4906239E-02  0.0000000E+00 -0.5050505E-02 -0.5319014E-07  0.0000000E+00 -0.3542341E-03
 -0.4866782E-02  0.0000000E+00 -0.5050505E-02 -0.5417997E-07  0.0000000E+00 -0.3543460E-03
 -0.4827325E-02  0.0000000E+00 -0.5050505E-02 -0.5542591E-07  0.0000000E+00 -0.3544603E-03
 -0.4769372E-02  0.0000000E+00 -0.5050505E-02 -0.5710880E-07  0.0000000E+00 -0.3545776E-03
 -0.4690458E-02  0.0000000E+00 -0.5050505E-02 -0.5948342E-07  0.0000000E+00 -0.3546991E-03
 -0.4611543E-02  0.0000000E+00 -0.5050505E-02 -0.6291890E-07  0.0000000E+00 -0.3548267E-03
 -0.4503035E-02  0.0000000E+00 -0.5050505E-02 -0.6796701E-07  0.0000000E+00 -0.3549631E-03
 -0.4345206E-02  0.0000000E+00 -0.5050505E-02 -0.7548155E-07  0.0000000E+00 -0.3551127E-03
 -0.4187378E-02  0.0000000E+00 -0.5050505E-02 -0.8683623E-07  0.0000000E+00 -0.3552819E-03
 -0.3985156E-02  0.0000000E+00 -0.5050505E-02 -0.1043415E-06  0.0000000E+00 -0.3554811E-03
 -0.3669499E-02  0.0000000E+00 -0.5050505E-02 -0.1320878E-06  0.0000000E+00 -0.3557276E-03
 -0.3353842E-02  0.0000000E+00 -0.5050505E-02 -0.1777682E-06  0.0000000E+00 -0.3560506E-03
 -0.2978990E-02  0.0000000E+00 -0.5050505E-02 -0.2569195E-06  0.0000000E+00 -0.3565038E-03
 -0.2347676E-02  0.0000000E+00 -0.5050505E-02 -0.4036758E-06  0.0000000E+00 -0.3571925E-03
 -0.1716362E-02  0.0000000E+00 -0.5050505E-02 -0.7006640E-06  0.0000000E+00 -0.3583440E-03
 -0.1025842E-02  0.0000000E+00 -0.5050505E-02 -0.1370518E-05  0.0000000E+00 -0.3605039E-03
  0.2367855E-03  0.0000000E+00 -0.5050505E-02 -0.3083603E-05  0.0000000E+00 -0.3651500E-03
  0.1499413E-02  0.0000000E+00 -0.5050505E-02 -0.8086174E-05  0.0000000E+00 -0.3768082E-03
  0.5287294E-02  0.0000000E+00 -0.5050505E-02 -0.1326495E-03  0.0000000E+00 -0.3005782E-03
 -0.5050505E-02  0.0000000E+00 -0.5050505E-02  0.2871844E-08  0.0000000E+00 -0.3559645E-03
 -0.5050505E-02  0.0000000E+00 -0.5050505E-02  0.8611507E-08  0.0000000E+00 -0.3559605E-03
 -0.5050505E-02  0.0000000E+00 -0.5050505E-02  0.1433883E-07  0.0000000E+00 -0.3559525E-03
 -0.5050505E-02  0.0000000E+00 -0.5050505E-02  0.2004554E-07  0.0000000E+00 -0.3559405E-03
 -0.5050505E-02  0.0000000E+00 -0.5050505E-02  0.2572333E-07  0.0000000E+00 -0.3559245E-03
 -0.5050505E-02  0.0000000E+00 -0.5050505E-02  0.3136387E-07  0.0000000E+00 -0.3559045E-03
 -0.5050504E-02  0.0000000E+00 -0.5050505E-02  0.3695873E-07  0.0000000E+00 -0.3558807E-03
 -0.5050501E-02  0.0000000E+00 -0.5050505E-02  0.4249941E-07  0.0000000E+00 -0.3558529E-03
 -0.5050495E-02  0.0000000E+00 -0.5050505E-02  0.4797730E-07  0.0000000E+00 -0.3558213E-03
 -0.5050482E-02  0.0000000E+00 -0.5050505E-02  0.5338368E-07  0.0000000E+00 -0.3557859E-03
 -0.5050449E-02  0.0000000E+00 -0.5050505E-02  0.5870970E-07  0.0000000E+00 -0.3557467E-03
 -0.5050376E-02  0.0000000E+00 -0.5050505E-02  0.6394637E-07  0.0000000E+00 -0.3557039E-03
 -0.5050299E-02  0.0000000E+00 -0.5050505E-02  0.6908453E-07  0.0000000E+00 -0.3556574E-03
 -0.5050178E-02  0.0000000E+00 -0.5050505E-02  0.7411487E-07  0.0000000E+00 -0.3556074E-03
 -0.5050018E-02  0.0000000E+00 -0.5050505E-02  0.7902787E-07  0.0000000E+00 -0.3555539E-03
 -0.5049710E-02  0.0000000E+00 -0.5050505E-02  0.8381381E-07  0.0000000E+00 -0.3554970E-03
 -0.5049253E-02  0.0000000E+00 -0.5050505E-02  0.8846279E-07  0.0000000E+00 -0.3554368E-03
 -0.5048636E-02  0.0000000E+00 -0.5050505E-02  0.9296464E-07  0.0000000E+00 -0.3553735E-03
 -0.5047442E-02  0.0000000E+00 -0.5050505E-02  0.9730897E-07  0.0000000E+00 -0.3553070E-03
 -0.5045727E-02  0.0000000E+00 -0.5050505E-02  0.1014851E-06  0.0000000E+00 -0.3552375E-03
 -0.5043261E-02  0.0000000E+00 -0.5050505E-02  0.1054822E-06  0.0000000E+00 -0.3551652E-03
 -0.5038714E-02  0.0000000E+00 -0.5050505E-02  0.1092889E-06  0.0000000E+00 -0.3550902E-03
 -0.5032318E-02  0.0000000E+00 -0.5050505E-02  0.1128939E-06  0.0000000E+00 -0.3550125E-03
 -0.5022454E-02  0.0000000E+00 -0.5050505E-02  0.1162851E-06  0.0000000E+00 -0.3549325E-03
 -0.5012589E-02  0.0000000E+00 -0.5050505E-02  0.1194505E-06  0.0000000E+00 -0.3548501E-03
 -0.5002725E-02  0.0000000E+00 -0.5050505E-02  0.1223776E-06  0.0000000E+00 -0.3547656E-03
 -0.4992860E-02  0.0000000E+00 -0.5050505E-02  0.1250533E-06  0.0000000E+00 -0.3546791E-03
 -0.4976523E-02  0.0000000E+00 -0.5050505E-02  0.1274645E-06  0.0000000E+00 -0.3545908E-03
 -0.4956794E-02  0.0000000E+00 -0.5050505E-02  0.1295975E-06  0.0000000E+00 -0.3545010E-03
 -0.4937066E-02  0.0000000E+00 -0.5050505E-02  0.1314380E-06  0.0000000E+00 -0.3544097E-03
 -0.4906239E-02  0.0000000E+00 -0.5050505E-02  0.1329716E-06  0.0000000E+00 -0.3543173E-03
 -0.4866782E-02  0.0000000E+00 -0.5050505E-02  0.1341834E-06  0.0000000E+00 -0.3542239E-03
 -0.4827325E-02  0.0000000E+00 -0.5050505E-02  0.1350579E-06  0.0000000E+00 -0.3541297E-03
 -0.4769372E-02  0.0000000E+00 -0.5050505E-02  0.1355793E-06  0.0000000E+00 -0.3540351E-03
 -0.4690458E-02  0.0000000E+00 -0.5050505E-02  0.1357315E-06  0.0000000E+00 -0.3539402E-03
 -0.4611543E-02  0.0000000E+00 -0.5050505E-02  0.1354980E-06  0.0000000E+00 -0.3538453E-03
 -0.4503035E-02  0.0000000E+00 -0.5050505E-02  0.1348620E-06  0.0000000E+00 -0.3537507E-03
 -0.4345206E-02  0.0000000E+00 -0.5050505E-02  0.1338066E-06  0.0000000E+00 -0.3536567E-03
 -0.4187378E-02  0.0000000E+00 -0.5050505E-02  0.1323148E-06  0.0000000E+00 -0.3535636E-03
 -0.3985156E-02  0.0000000E+00 -0.5050505E-02  0.1303696E-06  0.0000000E+00 -0.3534717E-03
 -0.3669499E-02  0.0000000E+00 -0.5050505E-02  0.1279545E-06  0.0000000E+00 -0.3533812E-03
 -0.3353842E-02  0.0000000E+00 -0.5050505E-02  0.1250534E-06  0.0000000E+00 -0.3532926E-03
 -0.2978990E-02  0.0000000E+00 -0.5050505E-02  0.1216513E-06  0.0000000E+00 -0.3532062E-03
 -0.2347676E-02  0.0000000E+00 -0.5050505E-02  0.1177340E-06  0.0000000E+00 -0.3531224E-03
 -0.1716362E-02  0.0000000E+00 -0.5050505E-02  0.1132893E-06  0.0000000E+00 -0.3530414E-03
 -0.1025842E-02  0.0000000E+00 -0.5050505E-02  0.1083070E-06  0.0000000E+00 -0.3529638E-03
  0.2367855E-03  0.0000000E+00 -0.5050505E-02  0.1027795E-06  0.0000000E+00 -0.3528898E-03
  0.1499413E-02  0.0000000E+00 -0.5050505E-02  0.9670259E-07  0.0000000E+00 -0.3528198E-03
  0.2762042E-02  0.0000000E+00 -0.5050505E-02  0.9007576E-07  0.0000000E+00 -0.3527543E-03
 -0.5050505E-02  0.0000000E+00 -0.5050505E-02  0.8290324E-07  0.0000000E+00 -0.3526936E-03
 -0.5050505E-02  0.0000000E+00 -0.5050505E-02  0.7519449E-07  0.0000000E+00 -0.3526381E-03
 -0.5050505E-02  0.0000000E+00 -0.5050505E-02  0.6696490E-07  0.0000000E+00 -0.3525882E-03
 -0.5050505E-02  0.0000000E+00 -0.5050505E-02  0.5823643E-07  0.0000000E+00 -0.3525441E-03
 -0.5050505E-02  0.0000000E+00 -0.5050505E-02  0.4903819E-07  0.0000000E+00 -0.3525064E-03
 -0.5050505E-02  0.0000000E+00 -0.5050505E-02  0.3940682E-07  0.0000000E+00 -0.3524752E-03
 -0.5050505E-02  0.0000000E+00 -0.5050505E-02  0.2938678E-07  0.0000000E+00 -0.3524510E-03
 -0.5050504E-02  0.0000000E+00 -0.5050505E-02  0.1903040E-07  0.0000000E+00 -0.3524338E-03
 -0.5050501E-02  0.0000000E+00 -0.5050505E-02  0.8397725E-08  0.0000000E+00 -0.3524241E-03
 -0.5050495E-02  0.0000000E+00 -0.5050505E-02 -0.2443988E-08  0.0000000E+00 -0.3524218E-03
 -0.5050482E-02  0.0000000E+00 -0.5050505E-02 -0.1342098E-07  0.0000000E+00 -0.3524272E-03
 -0.5050449E-02  0.0000000E+00 -0.5050505E-02 -0.2445407E-07  0.0000000E+00 -0.3524404E-03
 -0.5050376E-02  0.0000000E+00 -0.5050505E-02 -0.3545998E-07  0.0000000E+00 -0.3524612E-03
 -0.5050299E-02  0.0000000E+00 -0.5050505E-02 -0.4635294E-07  0.0000000E+00 -0.3524898E-03
 -0.5050178E-02  0.0000000E+00 -0.5050505E-02 -0.5704646E-07  0.0000000E+00 -0.3525259E-03
 -0.5050018E-02  0.0000000E+00 -0.5050505E-02 -0.6745530E-07  0.0000000E+00 -0.3525695E-03
 -0.5049710E-02  0.0000000E+00 -0.5050505E-02 -0.7749751E-07  0.0000000E+00 -0.3526202E-03
 -0.5049253E-02  0.0000000E+00 -0.5050505E-02 -0.8709642E-07  0.0000000E+00 -0.3526778E-03
 -0.5048636E-02  0.0000000E+00 -0.5050505E-02 -0.9618266E-07  0.0000000E+00 -0.3527420E-03
 -0.5047442E-02  0.0000000E+00 -0.5050505E-02 -0.1046960E-06  0.0000000E+00 -0.3528123E-03
 -0.5045727E-02  0.0000000E+00 -0.5050505E-02 -0.1125872E-06  0.0000000E+00 -0.3528884E-03
 -0.5043261E-02  0.0000000E+00 -0.5050505E-02 -0.1198192E-06  0.0000000E+00 -0.3529698E-03
 -0.5038714E-02  0.0000000E+00 -0.5050505E-02 -0.1263688E-06  0.0000000E+00 -0.3530560E-03
 -0.5032318E-02  0.0000000E+00 -0.5050505E-02 -0.1322281E-06  0.0000000E+00 -0.3531465E-03
 -0.5022454E-02  0.0000000E+00 -0.5050505E-02 -0.1374054E-06  0.0000000E+00 -0.3532409E-03
 -0.5012589E-02  0.0000000E+00 -0.5050505E-02 -0.1419269E-06  0.0000000E+00 -0.3533387E-03
 -0.5002725E-02  0.0000000E+00 -0.5050505E-02 -0.1458385E-06  0.0000000E+00 -0.3534393E-03
 -0.4992860E-02  0.0000000E+00 -0.5050505E-02 -0.1492084E-06  0.0000000E+00 -0.3535425E-03
 -0.4976523E-02  0.0000000E+00 -0.5050505E-02 -0.1521303E-06  0.0000000E+00 -0.3536478E-03
 -0.4956794E-02  0.0000000E+00 -0.5050505E-02 -0.1547292E-06  0.0000000E+00 -0.3537550E-03
 -0.4937066E-02  0.0000000E+00 -0.5050505E-02 -0.1571690E-06  0.0000000E+00 -0.3538638E-03
 -0.4906239E-02  0.0000000E+00 -0.5050505E-02 -0.1596643E-06  0.0000000E+00 -0.3539742E-03
 -0.4866782E-02  0.0000000E+00 -0.5050505E-02 -0.1624986E-06  0.0000000E+00 -0.3540864E-03
 -0.4827325E-02  0.0000000E+00 -0.5050505E-02 -0.1660515E-06  0.0000000E+00 -0.3542005E-03
 -0.4769372E-02  0.0000000E+00 -0.5050505E-02 -0.1708416E-06  0.0000000E+00 -0.3543172E-03
 -0.4690458E-02  0.0000000E+00 -0.5050505E-02 -0.1775940E-06  0.0000000E+00 -0.3544375E-03
 -0.4611543E-02  0.0000000E+00 -0.5050505E-02 -0.1873502E-06  0.0000000E+00 -0.3545629E-03
 -0.4503035E-02  0.0000000E+00 -0.5050505E-02 -0.2016496E-06  0.0000000E+00 -0.3546957E-03
 -0.4345206E-02  0.0000000E+00 -0.5050505E-02 -0.2228430E-06  0.0000000E+00 -0.3548393E-03
 -0.4187378E-02  0.0000000E+00 -0.5050505E-02 -0.2546487E-06  0.0000000E+00 -0.3549989E-03
 -0.3985156E-02  0.0000000E+00 -0.5050505E-02 -0.3031836E-06  0.0000000E+00 -0.3551821E-03
 -0.3669499E-02  0.0000000E+00 -0.5050505E-02 -0.3789626E-06  0.0000000E+00 -0.3554007E-03
 -0.3353842E-02  0.0000000E+00 -0.5050505E-02 -0.5009763E-06  0.0000000E+00 -0.3556724E-03
 -0.2978990E-02  0.0000000E+00 -0.5050505E-02 -0.7054844E-06  0.0000000E+00 -0.3560245E-03
 -0.2347676E-02  0.0000000E+00 -0.5050505E-02 -0.1066125E-05  0.0000000E+00 -0.3564952E-03
 -0.1716362E-02  0.0000000E+00 -0.5050505E-02 -0.1742792E-05  0.0000000E+00 -0.3571231E-03
 -0.1025842E-02  0.0000000E+00 -0.5050505E-02 -0.3107649E-05  0.0000000E+00 -0.3578656E-03
  0.2367855E-03  0.0000000E+00 -0.5050505E-02 -0.6087952E-05  0.0000000E+00 -0.3581760E-03
  0.1499413E-02  0.0000000E+00 -0.5050505E-02 -0.1313947E-04  0.0000000E+00 -0.3549684E-03
  0.5287294E-02  0.0000000E+00 -0.5050505E-02 -0.3108326E-04  0.0000000E+00 -0.3330322E-03
 -0.5050505E-02  0.0000000E+00 -0.5050505E-02  0.4805145E-08  0.0000000E+00 -0.3554989E-03
 -0.5050505E-02  0.0000000E+00 -0.5050505E-02  0.1440869E-07  0.0000000E+00 -0.3554948E-03
 -0.5050505E-02  0.0000000E+00 -0.5050505E-02  0.2399168E-07  0.0000000E+00 -0.3554867E-03
 -0.5050505E-02  0.0000000E+00 -0.5050505E-02  0.3354033E-07  0.0000000E+00 -0.3554745E-03
 -0.5050505E-02  0.0000000E+00 -0.5050505E-02  0.4304082E-07  0.0000000E+00 -0.3554583E-03
 -0.5050505E-02  0.0000000E+00 -0.5050505E-02  0.5247923E-07  0.0000000E+00 -0.3554381E-03
 -0.5050504E-02  0.0000000E+00 -0.5050505E-02  0.6184155E-07  0.0000000E+00 -0.3554139E-03
 -0.5050501E-02  0.0000000E+00 -0.5050505E-02  0.7111360E-07  0.0000000E+00 -0.3553858E-03
 -0.5050495E-02  0.0000000E+00 -0.5050505E-02  0.8028103E-07  0.0000000E+00 -0.3553538E-03
 -0.5050482E-02  0.0000000E+00 -0.5050505E-02  0.8932932E-07  0.0000000E+00 -0.3553179E-03
 -0.5050449E-02  0.0000000E+00 -0.5050505E-02  0.9824370E-07  0.0000000E+00 -0.3552782E-03
 -0.5050376E-02  0.0000000E+00 -0.5050505E-02  0.1070092E-06  0.0000000E+00 -0.3552347E-03
 -0.5050299E-02  0.0000000E+00 -0.5050505E-02  0.1156105E-06  0.0000000E+00 -0.3551876E-03
 -0.5050178E-02  0.0000000E+00 -0.5050505E-02  0.1240322E-06  0.0000000E+00 -0.3551369E-03
 -0.5050018E-02  0.0000000E+00 -0.5050505E-02  0.1322583E-06  0.0000000E+00 -0.3550826E-03
 -0.5049710E-02  0.0000000E+00 -0.5050505E-02  0.1402726E-06  0.0000000E+00 -0.3550249E-03
 -0.5049253E-02  0.0000000E+00 -0.5050505E-02  0.1480587E-06  0.0000000E+00 -0.3549639E-03
 -0.5048636E-02  0.0000000E+00 -0.5050505E-02  0.1555995E-06  0.0000000E+00 -0.3548996E-03
 -0.5047442E-02  0.0000000E+00 -0.5050505E-02  0.1628777E-06  0.0000000E+00 -0.3548321E-03
 -0.5045727E-02  0.0000000E+00 -0.5050505E-02  0.1698756E-06  0.0000000E+00 -0.3547616E-03
 -0.5043261E-02  0.0000000E+00 -0.5050505E-02  0.1765748E-06  0.0000000E+00 -0.3546883E-03
 -0.5038714E-02  0.0000000E+00 -0.5050505E-02  0.1829568E-06  0.0000000E+00 -0.3546121E-03
 -0.5032318E-02  0.0000000E+00 -0.5050505E-02  0.1890023E-06  0.0000000E+00 -0.3545333E-03
 -0.5022454E-02  0.0000000E+00 -0.5050505E-02  0.1946915E-06  0.0000000E+00 -0.3544520E-03
 -0.5012589E-02  0.0000000E+00 -0.5050505E-02  0.2000040E-06  0.0000000E+00 -0.3543683E-03
 -0.5002725E-02  0.0000000E+00 -0.5050505E-02  0.2049190E-06  0.0000000E+00 -0.3542824E-03
 -0.4992860E-02  0.0000000E+00 -0.5050505E-02  0.2094149E-06  0.0000000E+00 -0.3541946E-03
 -0.4976523E-02  0.0000000E+00 -0.5050505E-02  0.2134694E-06  0.0000000E+00 -0.3541049E-03
 -0.4956794E-02  0.0000000E+00 -0.5050505E-02  0.2170597E-06  0.0000000E+00 -0.3540136E-03
 -0.4937066E-02  0.0000000E+00 -0.5050505E-02  0.2201622E-06  0.0000000E+00 -0.3539208E-03
 -0.4906239E-02  0.0000000E+00 -0.5050505E-02  0.2227525E-06  0.0000000E+00 -0.3538268E-03
 -0.4866782E-02  0.0000000E+00 -0.5050505E-02  0.2248056E-06  0.0000000E+00 -0.3537318E-03
 -0.4827325E-02  0.0000000E+00 -0.5050505E-02  0.2262957E-06  0.0000000E+00 -0.3536360E-03
 -0.4769372E-02  0.0000000E+00 -0.5050505E-02  0.2271964E-06  0.0000000E+00 -0.3535396E-03
 -0.4690458E-02  0.0000000E+00 -0.5050505E-02  0.2274804E-06  0.0000000E+00 -0.3534430E-03
 -0.4611543E-02  0.0000000E+00 -0.5050505E-02  0.2271202E-06  0.0000000E+00 -0.3533463E-03
 -0.4503035E-02  0.0000000E+00 -0.5050505E-02  0.2260874E-06  0.0000000E+00 -0.3532499E-03
 -0.4345206E-02  0.0000000E+00 -0.5050505E-02  0.2243535E-06  0.0000000E+00 -0.3531541E-03
 -0.4187378E-02  0.0000000E+00 -0.5050505E-02  0.2218898E-06  0.0000000E+00 -0.3530591E-03
 -0.3985156E-02  0.0000000E+00 -0.5050505E-02  0.2186678E-06  0.0000000E+00 -0.3529653E-03
 -0.3669499E-02  0.0000000E+00 -0.5050505E-02  0.2146593E-06  0.0000000E+00 -0.3528729E-03
 -0.3353842E-02  0.0000000E+00 -0.5050505E-02  0.2098370E-06  0.0000000E+00 -0.3527824E-03
 -0.2978990E-02  0.0000000E+00 -0.5050505E-02  0.2041751E-06  0.0000000E+00 -0.3526941E-03
 -0.2347676E-02  0.0000000E+00 -0.5050505E-02  0.1976496E-06  0.0000000E+00 -0.3526083E-03
 -0.1716362E-02  0.0000000E+00 -0.5050505E-02  0.1902392E-06  0.0000000E+00 -0.3525254E-03
 -0.1025842E-02  0.0000000E+00 -0.5050505E-02  0.1819260E-06  0.0000000E+00 -0.3524458E-03
  0.2367855E-03  0.0000000E+00 -0.5050505E-02  0.1726966E-06  0.0000000E+00 -0.3523699E-03
  0.1499413E-02  0.0000000E+00 -0.5050505E-02  0.1625430E-06  0.0000000E+00 -0.3522981E-03
  0.2762042E-02  0.0000000E+00 -0.5050505E-02  0.1514635E-06  0.0000000E+00 -0.3522308E-03
 -0.5050505E-02  0.0000000E+00 -0.5050505E-02  0.1394642E-06  0.0000000E+00 -0.3521683E-03
 -0.5050505E-02  0.0000000E+00 -0.5050505E-02  0.1265602E-06  0.0000000E+00 -0.3521111E-03
 -0.5050505E-02  0.0000000E+00 -0.5050505E-02  0.1127762E-06  0.0000000E+00 -0.3520596E-03
 -0.5050505E-02  0.0000000E+00 -0.5050505E-02  0.9814839E-07  0.0000000E+00 -0.3520141E-03
 -0.5050505E-02  0.0000000E+00 -0.5050505E-02  0.8272477E-07  0.0000000E+00 -0.3519750E-03
 -0.5050505E-02  0.0000000E+00 -0.5050505E-02  0.6656632E-07  0.0000000E+00 -0.3519426E-03
 -0.5050505E-02  0.0000000E+00 -0.5050505E-02  0.4974732E-07  0.0000000E+00 -0.3519172E-03
 -0.5050504E-02  0.0000000E+00 -0.5050505E-02  0.3235553E-07  0.0000000E+00 -0.3518992E-03
 -0.5050501E-02  0.0000000E+00 -0.5050505E-02  0.1449193E-07  0.0000000E+00 -0.3518887E-03
 -0.5050495E-02  0.0000000E+00 -0.5050505E-02 -0.3730057E-08  0.0000000E+00 -0.3518859E-03
 -0.5050482E-02  0.0000000E+00 -0.5050505E-02 -0.2218577E-07  0.0000000E+00 -0.3518910E-03
 -0.5050449E-02  0.0000000E+00 -0.5050505E-02 -0.4074111E-07  0.0000000E+00 -0.3519040E-03
 -0.5050376E-02  0.0000000E+00 -0.5050505E-02 -0.5925482E-07  0.0000000E+00 -0.3519250E-03
 -0.5050299E-02  0.0000000E+00 -0.5050505E-02 -0.7758120E-07  0.0000000E+00 -0.3519539E-03
 -0.5050178E-02  0.0000000E+00 -0.5050505E-02 -0.9557315E-07  0.0000000E+00 -0.3519906E-03
 -0.5050018E-02  0.0000000E+00 -0.5050505E-02 -0.1130856E-06  0.0000000E+00 -0.3520350E-03
 -0.5049710E-02  0.0000000E+00 -0.5050505E-02 -0.1299788E-06  0.0000000E+00 -0.3520867E-03
 -0.5049253E-02  0.0000000E+00 -0.5050505E-02 -0.1461221E-06  0.0000000E+00 -0.3521456E-03
 -0.5048636E-02  0.0000000E+00 -0.5050505E-02 -0.1613970E-06  0.0000000E+00 -0.3522111E-03
 -0.5047442E-02  0.0000000E+00 -0.5050505E-02 -0.1757008E-06  0.0000000E+00 -0.3522831E-03
 -0.5045727E-02  0.0000000E+00 -0.5050505E-02 -0.1889488E-06  0.0000000E+00 -0.3523609E-03
 -0.5043261E-02  0.0000000E+00 -0.5050505E-02 -0.2010774E-06  0.0000000E+00 -0.3524441E-03
 -0.5038714E-02  0.0000000E+00 -0.5050505E-02 -0.2120462E-06  0.0000000E+00 -0.3525322E-03
 -0.5032318E-02  0.0000000E+00 -0.5050505E-02 -0.2218400E-06  0.0000000E+00 -0.3526247E-03
 -0.5022454E-02  0.0000000E+00 -0.5050505E-02 -0.2304709E-06  0.0000000E+00 -0.3527211E-03
 -0.5012589E-02  0.0000000E+00 -0.5050505E-02 -0.2379805E-06  0.0000000E+00 -0.3528209E-03
 -0.5002725E-02  0.0000000E+00 -0.5050505E-02 -0.2444426E-06  0.0000000E+00 -0.3529235E-03
 -0.4992860E-02  0.0000000E+00 -0.5050505E-02 -0.2499668E-06  0.0000000E+00 -0.3530286E-03
 -0.4976523E-02  0.0000000E+00 -0.5050505E-02 -0.2547039E-06  0.0000000E+00 -0.3531356E-03
 -0.4956794E-02  0.0000000E+00 -0.5050505E-02 -0.2588536E-06  0.0000000E+00 -0.3532443E-03
 -0.4937066E-02  0.0000000E+00 -0.5050505E-02 -0.2626766E-06  0.0000000E+00 -0.3533545E-03
 -0.4906239E-02  0.0000000E+00 -0.5050505E-02 -0.2665111E-06  0.0000000E+00 -0.3534658E-03
 -0.4866782E-02  0.0000000E+00 -0.5050505E-02 -0.2707999E-06  0.0000000E+00 -0.3535784E-03
 -0.4827325E-02  0.0000000E+00 -0.5050505E-02 -0.2761295E-06  0.0000000E+00 -0.3536924E-03
 -0.4769372E-02  0.0000000E+00 -0.5050505E-02 -0.2832909E-06  0.0000000E+00 -0.3538081E-03
 -0.4690458E-02  0.0000000E+00 -0.5050505E-02 -0.2933738E-06  0.0000000E+00 -0.3539263E-03
 -0.4611543E-02  0.0000000E+00 -0.5050505E-02 -0.3079152E-06  0.0000000E+00 -0.3540478E-03
 -0.4503035E-02  0.0000000E+00 -0.5050505E-02 -0.3291402E-06  0.0000000E+00 -0.3541741E-03
 -0.4345206E-02  0.0000000E+00 -0.5050505E-02 -0.3603585E-06  0.0000000E+00 -0.3543074E-03
 -0.4187378E-02  0.0000000E+00 -0.5050505E-02 -0.4066370E-06  0.0000000E+00 -0.3544503E-03
 -0.3985156E-02  0.0000000E+00 -0.5050505E-02 -0.4759697E-06  0.0000000E+00 -0.3546066E-03
 -0.3669499E-02  0.0000000E+00 -0.5050505E-02 -0.5813622E-06  0.0000000E+00 -0.3547803E-03
 -0.3353842E-02  0.0000000E+00 -0.5050505E-02 -0.7446293E-06  0.0000000E+00 -0.3549751E-03
 -0.2978990E-02  0.0000000E+00 -0.5050505E-02 -0.1003384E-05  0.0000000E+00 -0.3551897E-03
 -0.2347676E-02  0.0000000E+00 -0.5050505E-02 -0.1423729E-05  0.0000000E+00 -0.3554059E-03
 -0.1716362E-02  0.0000000E+00 -0.5050505E-02 -0.2121598E-05  0.0000000E+00 -0.3555519E-03
 -0.1025842E-02  0.0000000E+00 -0.5050505E-02 -0.3289139E-05  0.0000000E+00 -0.3554054E-03
  0.2367855E-03  0.0000000E+00 -0.5050505E-02 -0.5175519E-05  0.0000000E+00 -0.3543589E-03
  0.1499413E-02  0.0000000E+00 -0.5050505E-02 -0.7726178E-05  0.0000000E+00 -0.3510405E-03
  0.5287294E-02  0.0000000E+00 -0.5050505E-02 -0.8420580E-05  0.0000000E+00 -0.3439973E-03
 -0.5050505E-02  0.0000000E+00 -0.5050505E-02  0.6767869E-08  0.0000000E+00 -0.3548160E-03
 -0.5050505E-02  0.0000000E+00 -0.5050505E-02  0.2029414E-07  0.0000000E+00 -0.3548118E-03
 -0.5050505E-02  0.0000000E+00 -0.5050505E-02  0.3379165E-07  0.0000000E+00 -0.3548035E-03
 -0.5050505E-02  0.0000000E+00 -0.5050505E-02  0.4724110E-07  0.0000000E+00 -0.3547911E-03
 -0.5050505E-02  0.0000000E+00 -0.5050505E-02  0.6062317E-07  0.0000000E+00 -0.3547746E-03
 -0.5050505E-02  0.0000000E+00 -0.5050505E-02  0.7391837E-07  0.0000000E+00 -0.3547540E-03
 -0.5050504E-02  0.0000000E+00 -0.5050505E-02  0.8710707E-07  0.0000000E+00 -0.3547293E-03
 -0.5050501E-02  0.0000000E+00 -0.5050505E-02  0.1001694E-06  0.0000000E+00 -0.3547006E-03
 -0.5050495E-02  0.0000000E+00 -0.5050505E-02  0.1130854E-06  0.0000000E+00 -0.3546679E-03
 -0.5050482E-02  0.0000000E+00 -0.5050505E-02  0.1258345E-06  0.0000000E+00 -0.3546313E-03
 -0.5050449E-02  0.0000000E+00 -0.5050505E-02  0.1383963E-06  0.0000000E+00 -0.3545908E-03
 -0.5050376E-02  0.0000000E+00 -0.5050505E-02  0.1507496E-06  0.0000000E+00 -0.3545465E-03
 -0.5050299E-02  0.0000000E+00 -0.5050505E-02  0.1628731E-06  0.0000000E+00 -0.3544984E-03
 -0.5050178E-02  0.0000000E+00 -0.5050505E-02  0.1747450E-06  0.0000000E+00 -0.3544466E-03
 -0.5050018E-02  0.0000000E+00 -0.5050505E-02  0.1863431E-06  0.0000000E+00 -0.3543912E-03
 -0.5049710E-02  0.0000000E+00 -0.5050505E-02  0.1976447E-06  0.0000000E+00 -0.3543323E-03
 -0.5049253E-02  0.0000000E+00 -0.5050505E-02  0.2086266E-06  0.0000000E+00 -0.3542700E-03
 -0.5048636E-02  0.0000000E+00 -0.5050505E-02  0.2192650E-06  0.0000000E+00 -0.3542043E-03
 -0.5047442E-02  0.0000000E+00 -0.5050505E-02  0.2295357E-06  0.0000000E+00 -0.3541354E-03
 -0.5045727E-02  0.0000000E+00 -0.5050505E-02  0.2394136E-06  0.0000000E+00 -0.3540634E-03
 -0.5043261E-02  0.0000000E+00 -0.5050505E-02  0.2488732E-06  0.0000000E+00 -0.3539884E-03
 -0.5038714E-02  0.0000000E+00 -0.5050505E-02  0.2578883E-06  0.0000000E+00 -0.3539106E-03
 -0.5032318E-02  0.0000000E+00 -0.5050505E-02  0.2664319E-06  0.0000000E+00 -0.3538300E-03
 -0.5022454E-02  0.0000000E+00 -0.5050505E-02  0.2744761E-06  0.0000000E+00 -0.3537469E-03
 -0.5012589E-02  0.0000000E+00 -0.5050505E-02  0.2819926E-06  0.0000000E+00 -0.3536613E-03
 -0.5002725E-02  0.0000000E+00 -0.5050505E-02  0.2889518E-06  0.0000000E+00 -0.3535735E-03
 -0.4992860E-02  0.0000000E+00 -0.5050505E-02  0.2953234E-06  0.0000000E+00 -0.3534836E-03
 -0.4976523E-02  0.0000000E+00 -0.5050505E-02  0.3010763E-06  0.0000000E+00 -0.3533918E-03
 -0.4956794E-02  0.0000000E+00 -0.5050505E-02  0.3061782E-06  0.0000000E+00 -0.3532982E-03
 -0.4937066E-02  0.0000000E+00 -0.5050505E-02  0.3105958E-06  0.0000000E+00 -0.3532032E-03