title = "dataset feddes"
variables = "x", "y", "z", "vx", "vy", "vz"
zone t = "velocities, solution time =  1.300E+01 days        " i =   99, j =   99, k =    1,  f=point
 -0.5050505E-02  0.0000000E+00 -0.5050505E-02  0.1576254E-10  0.0000000E+00 -0.5452700E-03
 -0.5050505E-02  0.0000000E+00 -0.5050505E-02  0.4720830E-10  0.0000000E+00 -0.5452700E-03
 -0.5050505E-02  0.0000000E+00 -0.5050505E-02  0.7835032E-10  0.0000000E+00 -0.5452698E-03
 -0.5050505E-02  0.0000000E+00 -0.5050505E-02  0.1090213E-09  0.0000000E+00 -0.5452696E-03
 -0.5050505E-02  0.0000000E+00 -0.5050505E-02  0.1390876E-09  0.0000000E+00 -0.5452694E-03
 -0.5050505E-02  0.0000000E+00 -0.5050505E-02  0.1683964E-09  0.0000000E+00 -0.5452690E-03
 -0.5050504E-02  0.0000000E+00 -0.5050505E-02  0.1968025E-09  0.0000000E+00 -0.5452686E-03
 -0.5050501E-02  0.0000000E+00 -0.5050505E-02  0.2241625E-09  0.0000000E+00 -0.5452682E-03
 -0.5050495E-02  0.0000000E+00 -0.5050505E-02  0.2503326E-09  0.0000000E+00 -0.5452677E-03
 -0.5050482E-02  0.0000000E+00 -0.5050505E-02  0.2751684E-09  0.0000000E+00 -0.5452671E-03
 -0.5050449E-02  0.0000000E+00 -0.5050505E-02  0.2985258E-09  0.0000000E+00 -0.5452665E-03
 -0.5050376E-02  0.0000000E+00 -0.5050505E-02  0.3202613E-09  0.0000000E+00 -0.5452659E-03
 -0.5050299E-02  0.0000000E+00 -0.5050505E-02  0.3402328E-09  0.0000000E+00 -0.5452652E-03
 -0.5050178E-02  0.0000000E+00 -0.5050505E-02  0.3583000E-09  0.0000000E+00 -0.5452644E-03
 -0.5050018E-02  0.0000000E+00 -0.5050505E-02  0.3743249E-09  0.0000000E+00 -0.5452636E-03
 -0.5049710E-02  0.0000000E+00 -0.5050505E-02  0.3881726E-09  0.0000000E+00 -0.5452628E-03
 -0.5049253E-02  0.0000000E+00 -0.5050505E-02  0.3997113E-09  0.0000000E+00 -0.5452620E-03
 -0.5048636E-02  0.0000000E+00 -0.5050505E-02  0.4088129E-09  0.0000000E+00 -0.5452611E-03
 -0.5047442E-02  0.0000000E+00 -0.5050505E-02  0.4153538E-09  0.0000000E+00 -0.5452603E-03
 -0.5045727E-02  0.0000000E+00 -0.5050505E-02  0.4192146E-09  0.0000000E+00 -0.5452594E-03
 -0.5043261E-02  0.0000000E+00 -0.5050505E-02  0.4202812E-09  0.0000000E+00 -0.5452585E-03
 -0.5038714E-02  0.0000000E+00 -0.5050505E-02  0.4184447E-09  0.0000000E+00 -0.5452576E-03
 -0.5032318E-02  0.0000000E+00 -0.5050505E-02  0.4136022E-09  0.0000000E+00 -0.5452567E-03
 -0.5022454E-02  0.0000000E+00 -0.5050505E-02  0.4056566E-09  0.0000000E+00 -0.5452558E-03
 -0.5012589E-02  0.0000000E+00 -0.5050505E-02  0.3945176E-09  0.0000000E+00 -0.5452550E-03
 -0.5002725E-02  0.0000000E+00 -0.5050505E-02  0.3801016E-09  0.0000000E+00 -0.5452541E-03
 -0.4992860E-02  0.0000000E+00 -0.5050505E-02  0.3623323E-09  0.0000000E+00 -0.5452534E-03
 -0.4976523E-02  0.0000000E+00 -0.5050505E-02  0.3411404E-09  0.0000000E+00 -0.5452526E-03
 -0.4956794E-02  0.0000000E+00 -0.5050505E-02  0.3164668E-09  0.0000000E+00 -0.5452519E-03
 -0.4937066E-02  0.0000000E+00 -0.5050505E-02  0.2882597E-09  0.0000000E+00 -0.5452513E-03
 -0.4906239E-02  0.0000000E+00 -0.5050505E-02  0.2564762E-09  0.0000000E+00 -0.5452507E-03
 -0.4866782E-02  0.0000000E+00 -0.5050505E-02  0.2210829E-09  0.0000000E+00 -0.5452502E-03
 -0.4827325E-02  0.0000000E+00 -0.5050505E-02  0.1820619E-09  0.0000000E+00 -0.5452497E-03
 -0.4769372E-02  0.0000000E+00 -0.5050505E-02  0.1392342E-09  0.0000000E+00 -0.5452494E-03
 -0.4690458E-02  0.0000000E+00 -0.5050505E-02  0.9279972E-10  0.0000000E+00 -0.5452492E-03
 -0.4611543E-02  0.0000000E+00 -0.5050505E-02  0.4274253E-10  0.0000000E+00 -0.5452490E-03
 -0.4503035E-02  0.0000000E+00 -0.5050505E-02 -0.1101233E-10  0.0000000E+00 -0.5452490E-03
 -0.4345206E-02  0.0000000E+00 -0.5050505E-02 -0.6842096E-10  0.0000000E+00 -0.5452491E-03
 -0.4187378E-02  0.0000000E+00 -0.5050505E-02 -0.1294589E-09  0.0000000E+00 -0.5452493E-03
 -0.3985156E-02  0.0000000E+00 -0.5050505E-02 -0.1941212E-09  0.0000000E+00 -0.5452496E-03
 -0.3669499E-02  0.0000000E+00 -0.5050505E-02 -0.2624122E-09  0.0000000E+00 -0.5452501E-03
 -0.3353842E-02  0.0000000E+00 -0.5050505E-02 -0.3343414E-09  0.0000000E+00 -0.5452507E-03
 -0.2978990E-02  0.0000000E+00 -0.5050505E-02 -0.4099234E-09  0.0000000E+00 -0.5452515E-03
 -0.2347676E-02  0.0000000E+00 -0.5050505E-02 -0.4891817E-09  0.0000000E+00 -0.5452525E-03
 -0.1716362E-02  0.0000000E+00 -0.5050505E-02 -0.5721535E-09  0.0000000E+00 -0.5452536E-03
 -0.1025842E-02  0.0000000E+00 -0.5050505E-02 -0.6588903E-09  0.0000000E+00 -0.5452549E-03
  0.2367855E-03  0.0000000E+00 -0.5050505E-02 -0.7494615E-09  0.0000000E+00 -0.5452564E-03
  0.1499413E-02  0.0000000E+00 -0.5050505E-02 -0.8439626E-09  0.0000000E+00 -0.5452581E-03
  0.2762042E-02  0.0000000E+00 -0.5050505E-02 -0.9425207E-09  0.0000000E+00 -0.5452600E-03
 -0.5050505E-02  0.0000000E+00 -0.5050505E-02 -0.1045298E-08  0.0000000E+00 -0.5452621E-03
 -0.5050505E-02  0.0000000E+00 -0.5050505E-02 -0.1152496E-08  0.0000000E+00 -0.5452645E-03
 -0.5050505E-02  0.0000000E+00 -0.5050505E-02 -0.1264373E-08  0.0000000E+00 -0.5452671E-03
 -0.5050505E-02  0.0000000E+00 -0.5050505E-02 -0.1381245E-08  0.0000000E+00 -0.5452699E-03
 -0.5050505E-02  0.0000000E+00 -0.5050505E-02 -0.1503499E-08  0.0000000E+00 -0.5452729E-03
 -0.5050505E-02  0.0000000E+00 -0.5050505E-02 -0.1631601E-08  0.0000000E+00 -0.5452763E-03
 -0.5050505E-02  0.0000000E+00 -0.5050505E-02 -0.1766119E-08  0.0000000E+00 -0.5452799E-03
 -0.5050504E-02  0.0000000E+00 -0.5050505E-02 -0.1907730E-08  0.0000000E+00 -0.5452838E-03
 -0.5050501E-02  0.0000000E+00 -0.5050505E-02 -0.2057247E-08  0.0000000E+00 -0.5452880E-03
 -0.5050495E-02  0.0000000E+00 -0.5050505E-02 -0.2215635E-08  0.0000000E+00 -0.5452926E-03
 -0.5050482E-02  0.0000000E+00 -0.5050505E-02 -0.2384044E-08  0.0000000E+00 -0.5452975E-03
 -0.5050449E-02  0.0000000E+00 -0.5050505E-02 -0.2563838E-08  0.0000000E+00 -0.5453027E-03
 -0.5050376E-02  0.0000000E+00 -0.5050505E-02 -0.2756640E-08  0.0000000E+00 -0.5453084E-03
 -0.5050299E-02  0.0000000E+00 -0.5050505E-02 -0.2964374E-08  0.0000000E+00 -0.5453145E-03
 -0.5050178E-02  0.0000000E+00 -0.5050505E-02 -0.3189331E-08  0.0000000E+00 -0.5453210E-03
 -0.5050018E-02  0.0000000E+00 -0.5050505E-02 -0.3434236E-08  0.0000000E+00 -0.5453281E-03
 -0.5049710E-02  0.0000000E+00 -0.5050505E-02 -0.3702346E-08  0.0000000E+00 -0.5453357E-03
 -0.5049253E-02  0.0000000E+00 -0.5050505E-02 -0.3997560E-08  0.0000000E+00 -0.5453439E-03
 -0.5048636E-02  0.0000000E+00 -0.5050505E-02 -0.4324561E-08  0.0000000E+00 -0.5453527E-03
 -0.5047442E-02  0.0000000E+00 -0.5050505E-02 -0.4689005E-08  0.0000000E+00 -0.5453623E-03
 -0.5045727E-02  0.0000000E+00 -0.5050505E-02 -0.5097747E-08  0.0000000E+00 -0.5453727E-03
 -0.5043261E-02  0.0000000E+00 -0.5050505E-02 -0.5559144E-08  0.0000000E+00 -0.5453841E-03
 -0.5038714E-02  0.0000000E+00 -0.5050505E-02 -0.6083449E-08  0.0000000E+00 -0.5453965E-03
 -0.5032318E-02  0.0000000E+00 -0.5050505E-02 -0.6683318E-08  0.0000000E+00 -0.5454100E-03
 -0.5022454E-02  0.0000000E+00 -0.5050505E-02 -0.7374491E-08  0.0000000E+00 -0.5454250E-03
 -0.5012589E-02  0.0000000E+00 -0.5050505E-02 -0.8176702E-08  0.0000000E+00 -0.5454416E-03
 -0.5002725E-02  0.0000000E+00 -0.5050505E-02 -0.9114906E-08  0.0000000E+00 -0.5454600E-03
 -0.4992860E-02  0.0000000E+00 -0.5050505E-02 -0.1022097E-07  0.0000000E+00 -0.5454805E-03
 -0.4976523E-02  0.0000000E+00 -0.5050505E-02 -0.1153599E-07  0.0000000E+00 -0.5455037E-03
 -0.4956794E-02  0.0000000E+00 -0.5050505E-02 -0.1311361E-07  0.0000000E+00 -0.5455299E-03
 -0.4937066E-02  0.0000000E+00 -0.5050505E-02 -0.1502470E-07  0.0000000E+00 -0.5455599E-03
 -0.4906239E-02  0.0000000E+00 -0.5050505E-02 -0.1736420E-07  0.0000000E+00 -0.5455943E-03
 -0.4866782E-02  0.0000000E+00 -0.5050505E-02 -0.2026123E-07  0.0000000E+00 -0.5456344E-03
 -0.4827325E-02  0.0000000E+00 -0.5050505E-02 -0.2389441E-07  0.0000000E+00 -0.5456814E-03
 -0.4769372E-02  0.0000000E+00 -0.5050505E-02 -0.2851544E-07  0.0000000E+00 -0.5457372E-03
 -0.4690458E-02  0.0000000E+00 -0.5050505E-02 -0.3448665E-07  0.0000000E+00 -0.5458042E-03
 -0.4611543E-02  0.0000000E+00 -0.5050505E-02 -0.4234213E-07  0.0000000E+00 -0.5458860E-03
 -0.4503035E-02  0.0000000E+00 -0.5050505E-02 -0.5289074E-07  0.0000000E+00 -0.5459873E-03
 -0.4345206E-02  0.0000000E+00 -0.5050505E-02 -0.6739620E-07  0.0000000E+00 -0.5461153E-03
 -0.4187378E-02  0.0000000E+00 -0.5050505E-02 -0.8790529E-07  0.0000000E+00 -0.5462806E-03
 -0.3985156E-02  0.0000000E+00 -0.5050505E-02 -0.1178758E-06  0.0000000E+00 -0.5464997E-03
 -0.3669499E-02  0.0000000E+00 -0.5050505E-02 -0.1634479E-06  0.0000000E+00 -0.5467991E-03
 -0.3353842E-02  0.0000000E+00 -0.5050505E-02 -0.2361924E-06  0.0000000E+00 -0.5472245E-03
 -0.2978990E-02  0.0000000E+00 -0.5050505E-02 -0.3595192E-06  0.0000000E+00 -0.5478586E-03
 -0.2347676E-02  0.0000000E+00 -0.5050505E-02 -0.5849599E-06  0.0000000E+00 -0.5488640E-03
 -0.1716362E-02  0.0000000E+00 -0.5050505E-02 -0.1037608E-05  0.0000000E+00 -0.5505914E-03
 -0.1025842E-02  0.0000000E+00 -0.5050505E-02 -0.2055959E-05  0.0000000E+00 -0.5538856E-03
  0.2367855E-03  0.0000000E+00 -0.5050505E-02 -0.4665553E-05  0.0000000E+00 -0.5610458E-03
  0.1499413E-02  0.0000000E+00 -0.5050505E-02 -0.1233094E-04  0.0000000E+00 -0.5791674E-03
  0.5287294E-02  0.0000000E+00 -0.5050505E-02 -0.2033853E-03  0.0000000E+00 -0.4615000E-03
 -0.5050505E-02  0.0000000E+00 -0.5050505E-02  0.4752018E-10  0.0000000E+00 -0.5446478E-03
 -0.5050505E-02  0.0000000E+00 -0.5050505E-02  0.1423522E-09  0.0000000E+00 -0.5446478E-03
 -0.5050505E-02  0.0000000E+00 -0.5050505E-02  0.2363843E-09  0.0000000E+00 -0.5446476E-03
 -0.5050505E-02  0.0000000E+00 -0.5050505E-02  0.3289530E-09  0.0000000E+00 -0.5446474E-03
 -0.5050505E-02  0.0000000E+00 -0.5050505E-02  0.4196676E-09  0.0000000E+00 -0.5446471E-03
 -0.5050505E-02  0.0000000E+00 -0.5050505E-02  0.5080921E-09  0.0000000E+00 -0.5446468E-03
 -0.5050504E-02  0.0000000E+00 -0.5050505E-02  0.5937995E-09  0.0000000E+00 -0.5446464E-03
 -0.5050501E-02  0.0000000E+00 -0.5050505E-02  0.6763601E-09  0.0000000E+00 -0.5446460E-03
 -0.5050495E-02  0.0000000E+00 -0.5050505E-02  0.7553418E-09  0.0000000E+00 -0.5446454E-03
 -0.5050482E-02  0.0000000E+00 -0.5050505E-02  0.8303093E-09  0.0000000E+00 -0.5446449E-03
 -0.5050449E-02  0.0000000E+00 -0.5050505E-02  0.9008287E-09  0.0000000E+00 -0.5446443E-03
 -0.5050376E-02  0.0000000E+00 -0.5050505E-02  0.9664673E-09  0.0000000E+00 -0.5446436E-03
 -0.5050299E-02  0.0000000E+00 -0.5050505E-02  0.1026797E-08  0.0000000E+00 -0.5446429E-03
 -0.5050178E-02  0.0000000E+00 -0.5050505E-02  0.1081396E-08  0.0000000E+00 -0.5446421E-03
 -0.5050018E-02  0.0000000E+00 -0.5050505E-02  0.1129849E-08  0.0000000E+00 -0.5446413E-03
 -0.5049710E-02  0.0000000E+00 -0.5050505E-02  0.1171748E-08  0.0000000E+00 -0.5446405E-03
 -0.5049253E-02  0.0000000E+00 -0.5050505E-02  0.1206697E-08  0.0000000E+00 -0.5446396E-03
 -0.5048636E-02  0.0000000E+00 -0.5050505E-02  0.1234311E-08  0.0000000E+00 -0.5446388E-03
 -0.5047442E-02  0.0000000E+00 -0.5050505E-02  0.1254218E-08  0.0000000E+00 -0.5446379E-03
 -0.5045727E-02  0.0000000E+00 -0.5050505E-02  0.1266057E-08  0.0000000E+00 -0.5446370E-03
 -0.5043261E-02  0.0000000E+00 -0.5050505E-02  0.1269487E-08  0.0000000E+00 -0.5446361E-03
 -0.5038714E-02  0.0000000E+00 -0.5050505E-02  0.1264178E-08  0.0000000E+00 -0.5446351E-03
 -0.5032318E-02  0.0000000E+00 -0.5050505E-02  0.1249821E-08  0.0000000E+00 -0.5446342E-03
 -0.5022454E-02  0.0000000E+00 -0.5050505E-02  0.1226124E-08  0.0000000E+00 -0.5446334E-03
 -0.5012589E-02  0.0000000E+00 -0.5050505E-02  0.1192816E-08  0.0000000E+00 -0.5446325E-03
 -0.5002725E-02  0.0000000E+00 -0.5050505E-02  0.1149645E-08  0.0000000E+00 -0.5446316E-03
 -0.4992860E-02  0.0000000E+00 -0.5050505E-02  0.1096381E-08  0.0000000E+00 -0.5446308E-03
 -0.4976523E-02  0.0000000E+00 -0.5050505E-02  0.1032818E-08  0.0000000E+00 -0.5446301E-03
 -0.4956794E-02  0.0000000E+00 -0.5050505E-02  0.9587778E-09  0.0000000E+00 -0.5446293E-03
 -0.4937066E-02  0.0000000E+00 -0.5050505E-02  0.8741038E-09  0.0000000E+00 -0.5446287E-03
 -0.4906239E-02  0.0000000E+00 -0.5050505E-02  0.7786682E-09  0.0000000E+00 -0.5446281E-03
 -0.4866782E-02  0.0000000E+00 -0.5050505E-02  0.6723629E-09  0.0000000E+00 -0.5446276E-03
 -0.4827325E-02  0.0000000E+00 -0.5050505E-02  0.5550821E-09  0.0000000E+00 -0.5446271E-03
 -0.4769372E-02  0.0000000E+00 -0.5050505E-02  0.4265018E-09  0.0000000E+00 -0.5446267E-03
 -0.4690458E-02  0.0000000E+00 -0.5050505E-02  0.2870127E-09  0.0000000E+00 -0.5446265E-03
 -0.4611543E-02  0.0000000E+00 -0.5050505E-02  0.1365504E-09  0.0000000E+00 -0.5446263E-03
 -0.4503035E-02  0.0000000E+00 -0.5050505E-02 -0.2501711E-10  0.0000000E+00 -0.5446263E-03
 -0.4345206E-02  0.0000000E+00 -0.5050505E-02 -0.1975522E-09  0.0000000E+00 -0.5446263E-03
 -0.4187378E-02  0.0000000E+00 -0.5050505E-02 -0.3809820E-09  0.0000000E+00 -0.5446265E-03
 -0.3985156E-02  0.0000000E+00 -0.5050505E-02 -0.5752931E-09  0.0000000E+00 -0.5446269E-03
 -0.3669499E-02  0.0000000E+00 -0.5050505E-02 -0.7804983E-09  0.0000000E+00 -0.5446273E-03
 -0.3353842E-02  0.0000000E+00 -0.5050505E-02 -0.9966253E-09  0.0000000E+00 -0.5446279E-03
 -0.2978990E-02  0.0000000E+00 -0.5050505E-02 -0.1223716E-08  0.0000000E+00 -0.5446287E-03
 -0.2347676E-02  0.0000000E+00 -0.5050505E-02 -0.1461834E-08  0.0000000E+00 -0.5446297E-03
 -0.1716362E-02  0.0000000E+00 -0.5050505E-02 -0.1711084E-08  0.0000000E+00 -0.5446308E-03
 -0.1025842E-02  0.0000000E+00 -0.5050505E-02 -0.1971618E-08  0.0000000E+00 -0.5446321E-03
  0.2367855E-03  0.0000000E+00 -0.5050505E-02 -0.2243638E-08  0.0000000E+00 -0.5446336E-03
  0.1499413E-02  0.0000000E+00 -0.5050505E-02 -0.2527421E-08  0.0000000E+00 -0.5446353E-03
  0.2762042E-02  0.0000000E+00 -0.5050505E-02 -0.2823339E-08  0.0000000E+00 -0.5446372E-03
 -0.5050505E-02  0.0000000E+00 -0.5050505E-02 -0.3131870E-08  0.0000000E+00 -0.5446393E-03
 -0.5050505E-02  0.0000000E+00 -0.5050505E-02 -0.3453617E-08  0.0000000E+00 -0.5446416E-03
 -0.5050505E-02  0.0000000E+00 -0.5050505E-02 -0.3789333E-08  0.0000000E+00 -0.5446441E-03
 -0.5050505E-02  0.0000000E+00 -0.5050505E-02 -0.4139958E-08  0.0000000E+00 -0.5446470E-03
 -0.5050505E-02  0.0000000E+00 -0.5050505E-02 -0.4506637E-08  0.0000000E+00 -0.5446500E-03
 -0.5050505E-02  0.0000000E+00 -0.5050505E-02 -0.4890760E-08  0.0000000E+00 -0.5446533E-03
 -0.5050505E-02  0.0000000E+00 -0.5050505E-02 -0.5294004E-08  0.0000000E+00 -0.5446569E-03
 -0.5050504E-02  0.0000000E+00 -0.5050505E-02 -0.5718386E-08  0.0000000E+00 -0.5446608E-03
 -0.5050501E-02  0.0000000E+00 -0.5050505E-02 -0.6166317E-08  0.0000000E+00 -0.5446650E-03
 -0.5050495E-02  0.0000000E+00 -0.5050505E-02 -0.6640665E-08  0.0000000E+00 -0.5446696E-03
 -0.5050482E-02  0.0000000E+00 -0.5050505E-02 -0.7144846E-08  0.0000000E+00 -0.5446745E-03
 -0.5050449E-02  0.0000000E+00 -0.5050505E-02 -0.7682916E-08  0.0000000E+00 -0.5446797E-03
 -0.5050376E-02  0.0000000E+00 -0.5050505E-02 -0.8259690E-08  0.0000000E+00 -0.5446853E-03
 -0.5050299E-02  0.0000000E+00 -0.5050505E-02 -0.8880886E-08  0.0000000E+00 -0.5446914E-03
 -0.5050178E-02  0.0000000E+00 -0.5050505E-02 -0.9553302E-08  0.0000000E+00 -0.5446979E-03
 -0.5050018E-02  0.0000000E+00 -0.5050505E-02 -0.1028503E-07  0.0000000E+00 -0.5447049E-03
 -0.5049710E-02  0.0000000E+00 -0.5050505E-02 -0.1108572E-07  0.0000000E+00 -0.5447125E-03
 -0.5049253E-02  0.0000000E+00 -0.5050505E-02 -0.1196695E-07  0.0000000E+00 -0.5447206E-03
 -0.5048636E-02  0.0000000E+00 -0.5050505E-02 -0.1294258E-07  0.0000000E+00 -0.5447294E-03
 -0.5047442E-02  0.0000000E+00 -0.5050505E-02 -0.1402935E-07  0.0000000E+00 -0.5447389E-03
 -0.5045727E-02  0.0000000E+00 -0.5050505E-02 -0.1524755E-07  0.0000000E+00 -0.5447492E-03
 -0.5043261E-02  0.0000000E+00 -0.5050505E-02 -0.1662188E-07  0.0000000E+00 -0.5447605E-03
 -0.5038714E-02  0.0000000E+00 -0.5050505E-02 -0.1818261E-07  0.0000000E+00 -0.5447727E-03
 -0.5032318E-02  0.0000000E+00 -0.5050505E-02 -0.1996705E-07  0.0000000E+00 -0.5447861E-03
 -0.5022454E-02  0.0000000E+00 -0.5050505E-02 -0.2202157E-07  0.0000000E+00 -0.5448009E-03
 -0.5012589E-02  0.0000000E+00 -0.5050505E-02 -0.2440420E-07  0.0000000E+00 -0.5448172E-03
 -0.5002725E-02  0.0000000E+00 -0.5050505E-02 -0.2718822E-07  0.0000000E+00 -0.5448353E-03
 -0.4992860E-02  0.0000000E+00 -0.5050505E-02 -0.3046698E-07  0.0000000E+00 -0.5448555E-03
 -0.4976523E-02  0.0000000E+00 -0.5050505E-02 -0.3436070E-07  0.0000000E+00 -0.5448782E-03
 -0.4956794E-02  0.0000000E+00 -0.5050505E-02 -0.3902582E-07  0.0000000E+00 -0.5449038E-03
 -0.4937066E-02  0.0000000E+00 -0.5050505E-02 -0.4466852E-07  0.0000000E+00 -0.5449329E-03
 -0.4906239E-02  0.0000000E+00 -0.5050505E-02 -0.5156402E-07  0.0000000E+00 -0.5449664E-03
 -0.4866782E-02  0.0000000E+00 -0.5050505E-02 -0.6008525E-07  0.0000000E+00 -0.5450051E-03
 -0.4827325E-02  0.0000000E+00 -0.5050505E-02 -0.7074567E-07  0.0000000E+00 -0.5450503E-03
 -0.4769372E-02  0.0000000E+00 -0.5050505E-02 -0.8426504E-07  0.0000000E+00 -0.5451037E-03
 -0.4690458E-02  0.0000000E+00 -0.5050505E-02 -0.1016726E-06  0.0000000E+00 -0.5451675E-03
 -0.4611543E-02  0.0000000E+00 -0.5050505E-02 -0.1244733E-06  0.0000000E+00 -0.5452446E-03
 -0.4503035E-02  0.0000000E+00 -0.5050505E-02 -0.1549239E-06  0.0000000E+00 -0.5453392E-03
 -0.4345206E-02  0.0000000E+00 -0.5050505E-02 -0.1965060E-06  0.0000000E+00 -0.5454571E-03
 -0.4187378E-02  0.0000000E+00 -0.5050505E-02 -0.2547677E-06  0.0000000E+00 -0.5456068E-03
 -0.3985156E-02  0.0000000E+00 -0.5050505E-02 -0.3388843E-06  0.0000000E+00 -0.5458005E-03
 -0.3669499E-02  0.0000000E+00 -0.5050505E-02 -0.4646862E-06  0.0000000E+00 -0.5460568E-03
 -0.3353842E-02  0.0000000E+00 -0.5050505E-02 -0.6608489E-06  0.0000000E+00 -0.5464040E-03
 -0.2978990E-02  0.0000000E+00 -0.5050505E-02 -0.9822676E-06  0.0000000E+00 -0.5468848E-03
 -0.2347676E-02  0.0000000E+00 -0.5050505E-02 -0.1540751E-05  0.0000000E+00 -0.5475598E-03
 -0.1716362E-02  0.0000000E+00 -0.5050505E-02 -0.2579941E-05  0.0000000E+00 -0.5484925E-03
 -0.1025842E-02  0.0000000E+00 -0.5050505E-02 -0.4669581E-05  0.0000000E+00 -0.5496263E-03
  0.2367855E-03  0.0000000E+00 -0.5050505E-02 -0.9237671E-05  0.0000000E+00 -0.5501319E-03
  0.1499413E-02  0.0000000E+00 -0.5050505E-02 -0.2009414E-04  0.0000000E+00 -0.5452273E-03
  0.5287294E-02  0.0000000E+00 -0.5050505E-02 -0.4791505E-04  0.0000000E+00 -0.5110618E-03
 -0.5050505E-02  0.0000000E+00 -0.5050505E-02  0.8001883E-10  0.0000000E+00 -0.5434445E-03
 -0.5050505E-02  0.0000000E+00 -0.5050505E-02  0.2397255E-09  0.0000000E+00 -0.5434444E-03
 -0.5050505E-02  0.0000000E+00 -0.5050505E-02  0.3983236E-09  0.0000000E+00 -0.5434443E-03
 -0.5050505E-02  0.0000000E+00 -0.5050505E-02  0.5543799E-09  0.0000000E+00 -0.5434440E-03
 -0.5050505E-02  0.0000000E+00 -0.5050505E-02  0.7072485E-09  0.0000000E+00 -0.5434438E-03
 -0.5050505E-02  0.0000000E+00 -0.5050505E-02  0.8562488E-09  0.0000000E+00 -0.5434434E-03
 -0.5050504E-02  0.0000000E+00 -0.5050505E-02  0.1000689E-08  0.0000000E+00 -0.5434430E-03
 -0.5050501E-02  0.0000000E+00 -0.5050505E-02  0.1139856E-08  0.0000000E+00 -0.5434425E-03
 -0.5050495E-02  0.0000000E+00 -0.5050505E-02  0.1273028E-08  0.0000000E+00 -0.5434420E-03
 -0.5050482E-02  0.0000000E+00 -0.5050505E-02  0.1399472E-08  0.0000000E+00 -0.5434414E-03
 -0.5050449E-02  0.0000000E+00 -0.5050505E-02  0.1518462E-08  0.0000000E+00 -0.5434408E-03
 -0.5050376E-02  0.0000000E+00 -0.5050505E-02  0.1629269E-08  0.0000000E+00 -0.5434401E-03
 -0.5050299E-02  0.0000000E+00 -0.5050505E-02  0.1731175E-08  0.0000000E+00 -0.5434394E-03
 -0.5050178E-02  0.0000000E+00 -0.5050505E-02  0.1823471E-08  0.0000000E+00 -0.5434386E-03
 -0.5050018E-02  0.0000000E+00 -0.5050505E-02  0.1905459E-08  0.0000000E+00 -0.5434378E-03
 -0.5049710E-02  0.0000000E+00 -0.5050505E-02  0.1976457E-08  0.0000000E+00 -0.5434369E-03
 -0.5049253E-02  0.0000000E+00 -0.5050505E-02  0.2035799E-08  0.0000000E+00 -0.5434360E-03
 -0.5048636E-02  0.0000000E+00 -0.5050505E-02  0.2082838E-08  0.0000000E+00 -0.5434351E-03
 -0.5047442E-02  0.0000000E+00 -0.5050505E-02  0.2116949E-08  0.0000000E+00 -0.5434342E-03
 -0.5045727E-02  0.0000000E+00 -0.5050505E-02  0.2137530E-08  0.0000000E+00 -0.5434332E-03
 -0.5043261E-02  0.0000000E+00 -0.5050505E-02  0.2144004E-08  0.0000000E+00 -0.5434323E-03
 -0.5038714E-02  0.0000000E+00 -0.5050505E-02  0.2135822E-08  0.0000000E+00 -0.5434314E-03
 -0.5032318E-02  0.0000000E+00 -0.5050505E-02  0.2112465E-08  0.0000000E+00 -0.5434304E-03
 -0.5022454E-02  0.0000000E+00 -0.5050505E-02  0.2073443E-08  0.0000000E+00 -0.5434295E-03
 -0.5012589E-02  0.0000000E+00 -0.5050505E-02  0.2018302E-08  0.0000000E+00 -0.5434286E-03
 -0.5002725E-02  0.0000000E+00 -0.5050505E-02  0.1946620E-08  0.0000000E+00 -0.5434277E-03
 -0.4992860E-02  0.0000000E+00 -0.5050505E-02  0.1858014E-08  0.0000000E+00 -0.5434268E-03
 -0.4976523E-02  0.0000000E+00 -0.5050505E-02  0.1752139E-08  0.0000000E+00 -0.5434260E-03
 -0.4956794E-02  0.0000000E+00 -0.5050505E-02  0.1628695E-08  0.0000000E+00 -0.5434253E-03
 -0.4937066E-02  0.0000000E+00 -0.5050505E-02  0.1487423E-08  0.0000000E+00 -0.5434246E-03
 -0.4906239E-02  0.0000000E+00 -0.5050505E-02  0.1328107E-08  0.0000000E+00 -0.5434239E-03
 -0.4866782E-02  0.0000000E+00 -0.5050505E-02  0.1150562E-08  0.0000000E+00 -0.5434234E-03
 -0.4827325E-02  0.0000000E+00 -0.5050505E-02  0.9545199E-09  0.0000000E+00 -0.5434229E-03
 -0.4769372E-02  0.0000000E+00 -0.5050505E-02  0.7398112E-09  0.0000000E+00 -0.5434225E-03
 -0.4690458E-02  0.0000000E+00 -0.5050505E-02  0.5066859E-09  0.0000000E+00 -0.5434222E-03
 -0.4611543E-02  0.0000000E+00 -0.5050505E-02  0.2550885E-09  0.0000000E+00 -0.5434220E-03
 -0.4503035E-02  0.0000000E+00 -0.5050505E-02 -0.1510905E-10  0.0000000E+00 -0.5434219E-03
 -0.4345206E-02  0.0000000E+00 -0.5050505E-02 -0.3036379E-09  0.0000000E+00 -0.5434219E-03
 -0.4187378E-02  0.0000000E+00 -0.5050505E-02 -0.6103500E-09  0.0000000E+00 -0.5434221E-03
 -0.3985156E-02  0.0000000E+00 -0.5050505E-02 -0.9352202E-09  0.0000000E+00 -0.5434224E-03
 -0.3669499E-02  0.0000000E+00 -0.5050505E-02 -0.1278268E-08  0.0000000E+00 -0.5434228E-03
 -0.3353842E-02  0.0000000E+00 -0.5050505E-02 -0.1639536E-08  0.0000000E+00 -0.5434234E-03
 -0.2978990E-02  0.0000000E+00 -0.5050505E-02 -0.2019087E-08  0.0000000E+00 -0.5434242E-03
 -0.2347676E-02  0.0000000E+00 -0.5050505E-02 -0.2417013E-08  0.0000000E+00 -0.5434251E-03
 -0.1716362E-02  0.0000000E+00 -0.5050505E-02 -0.2833464E-08  0.0000000E+00 -0.5434262E-03
 -0.1025842E-02  0.0000000E+00 -0.5050505E-02 -0.3268675E-08  0.0000000E+00 -0.5434275E-03
  0.2367855E-03  0.0000000E+00 -0.5050505E-02 -0.3722967E-08  0.0000000E+00 -0.5434289E-03
  0.1499413E-02  0.0000000E+00 -0.5050505E-02 -0.4196777E-08  0.0000000E+00 -0.5434306E-03
  0.2762042E-02  0.0000000E+00 -0.5050505E-02 -0.4690690E-08  0.0000000E+00 -0.5434325E-03
 -0.5050505E-02  0.0000000E+00 -0.5050505E-02 -0.5205478E-08  0.0000000E+00 -0.5434346E-03
 -0.5050505E-02  0.0000000E+00 -0.5050505E-02 -0.5742116E-08  0.0000000E+00 -0.5434369E-03
 -0.5050505E-02  0.0000000E+00 -0.5050505E-02 -0.6301823E-08  0.0000000E+00 -0.5434394E-03
 -0.5050505E-02  0.0000000E+00 -0.5050505E-02 -0.6886118E-08  0.0000000E+00 -0.5434422E-03
 -0.5050505E-02  0.0000000E+00 -0.5050505E-02 -0.7496869E-08  0.0000000E+00 -0.5434452E-03
 -0.5050505E-02  0.0000000E+00 -0.5050505E-02 -0.8136341E-08  0.0000000E+00 -0.5434486E-03
 -0.5050505E-02  0.0000000E+00 -0.5050505E-02 -0.8807271E-08  0.0000000E+00 -0.5434521E-03
 -0.5050504E-02  0.0000000E+00 -0.5050505E-02 -0.9512948E-08  0.0000000E+00 -0.5434560E-03
 -0.5050501E-02  0.0000000E+00 -0.5050505E-02 -0.1025731E-07  0.0000000E+00 -0.5434602E-03
 -0.5050495E-02  0.0000000E+00 -0.5050505E-02 -0.1104505E-07  0.0000000E+00 -0.5434647E-03
 -0.5050482E-02  0.0000000E+00 -0.5050505E-02 -0.1188174E-07  0.0000000E+00 -0.5434695E-03
 -0.5050449E-02  0.0000000E+00 -0.5050505E-02 -0.1277401E-07  0.0000000E+00 -0.5434747E-03
 -0.5050376E-02  0.0000000E+00 -0.5050505E-02 -0.1372974E-07  0.0000000E+00 -0.5434803E-03
 -0.5050299E-02  0.0000000E+00 -0.5050505E-02 -0.1475825E-07  0.0000000E+00 -0.5434863E-03
 -0.5050178E-02  0.0000000E+00 -0.5050505E-02 -0.1587063E-07  0.0000000E+00 -0.5434928E-03
 -0.5050018E-02  0.0000000E+00 -0.5050505E-02 -0.1708008E-07  0.0000000E+00 -0.5434997E-03
 -0.5049710E-02  0.0000000E+00 -0.5050505E-02 -0.1840234E-07  0.0000000E+00 -0.5435072E-03
 -0.5049253E-02  0.0000000E+00 -0.5050505E-02 -0.1985621E-07  0.0000000E+00 -0.5435152E-03
 -0.5048636E-02  0.0000000E+00 -0.5050505E-02 -0.2146424E-07  0.0000000E+00 -0.5435239E-03
 -0.5047442E-02  0.0000000E+00 -0.5050505E-02 -0.2325361E-07  0.0000000E+00 -0.5435332E-03
 -0.5045727E-02  0.0000000E+00 -0.5050505E-02 -0.2525717E-07  0.0000000E+00 -0.5435434E-03
 -0.5043261E-02  0.0000000E+00 -0.5050505E-02 -0.2751486E-07  0.0000000E+00 -0.5435544E-03
 -0.5038714E-02  0.0000000E+00 -0.5050505E-02 -0.3007555E-07  0.0000000E+00 -0.5435664E-03
 -0.5032318E-02  0.0000000E+00 -0.5050505E-02 -0.3299932E-07  0.0000000E+00 -0.5435795E-03
 -0.5022454E-02  0.0000000E+00 -0.5050505E-02 -0.3636063E-07  0.0000000E+00 -0.5435938E-03
 -0.5012589E-02  0.0000000E+00 -0.5050505E-02 -0.4025242E-07  0.0000000E+00 -0.5436096E-03
 -0.5002725E-02  0.0000000E+00 -0.5050505E-02 -0.4479161E-07  0.0000000E+00 -0.5436271E-03
 -0.4992860E-02  0.0000000E+00 -0.5050505E-02 -0.5012668E-07  0.0000000E+00 -0.5436466E-03
 -0.4976523E-02  0.0000000E+00 -0.5050505E-02 -0.5644793E-07  0.0000000E+00 -0.5436683E-03
 -0.4956794E-02  0.0000000E+00 -0.5050505E-02 -0.6400187E-07  0.0000000E+00 -0.5436927E-03
 -0.4937066E-02  0.0000000E+00 -0.5050505E-02 -0.7311146E-07  0.0000000E+00 -0.5437204E-03
 -0.4906239E-02  0.0000000E+00 -0.5050505E-02 -0.8420512E-07  0.0000000E+00 -0.5437519E-03
 -0.4866782E-02  0.0000000E+00 -0.5050505E-02 -0.9785882E-07  0.0000000E+00 -0.5437881E-03
 -0.4827325E-02  0.0000000E+00 -0.5050505E-02 -0.1148585E-06  0.0000000E+00 -0.5438300E-03
 -0.4769372E-02  0.0000000E+00 -0.5050505E-02 -0.1362942E-06  0.0000000E+00 -0.5438789E-03
 -0.4690458E-02  0.0000000E+00 -0.5050505E-02 -0.1637043E-06  0.0000000E+00 -0.5439364E-03
 -0.4611543E-02  0.0000000E+00 -0.5050505E-02 -0.1993034E-06  0.0000000E+00 -0.5440049E-03
 -0.4503035E-02  0.0000000E+00 -0.5050505E-02 -0.2463483E-06  0.0000000E+00 -0.5440872E-03
 -0.4345206E-02  0.0000000E+00 -0.5050505E-02 -0.3097422E-06  0.0000000E+00 -0.5441871E-03
 -0.4187378E-02  0.0000000E+00 -0.5050505E-02 -0.3970594E-06  0.0000000E+00 -0.5443094E-03
 -0.3985156E-02  0.0000000E+00 -0.5050505E-02 -0.5203299E-06  0.0000000E+00 -0.5444602E-03
 -0.3669499E-02  0.0000000E+00 -0.5050505E-02 -0.6992286E-06  0.0000000E+00 -0.5446467E-03
 -0.3353842E-02  0.0000000E+00 -0.5050505E-02 -0.9669059E-06  0.0000000E+00 -0.5448753E-03
 -0.2978990E-02  0.0000000E+00 -0.5050505E-02 -0.1380773E-05  0.0000000E+00 -0.5451453E-03
 -0.2347676E-02  0.0000000E+00 -0.5050505E-02 -0.2042236E-05  0.0000000E+00 -0.5454302E-03
 -0.1716362E-02  0.0000000E+00 -0.5050505E-02 -0.3130301E-05  0.0000000E+00 -0.5456220E-03
 -0.1025842E-02  0.0000000E+00 -0.5050505E-02 -0.4944460E-05  0.0000000E+00 -0.5453794E-03
  0.2367855E-03  0.0000000E+00 -0.5050505E-02 -0.7880698E-05  0.0000000E+00 -0.5437574E-03
  0.1499413E-02  0.0000000E+00 -0.5050505E-02 -0.1188273E-04  0.0000000E+00 -0.5385933E-03
  0.5287294E-02  0.0000000E+00 -0.5050505E-02 -0.1307539E-04  0.0000000E+00 -0.5275345E-03
 -0.5050505E-02  0.0000000E+00 -0.5050505E-02  0.1137510E-09  0.0000000E+00 -0.5416987E-03
 -0.5050505E-02  0.0000000E+00 -0.5050505E-02  0.3408429E-09  0.0000000E+00 -0.5416986E-03
 -0.5050505E-02  0.0000000E+00 -0.5050505E-02  0.5666267E-09  0.0000000E+00 -0.5416984E-03
 -0.5050505E-02  0.0000000E+00 -0.5050505E-02  0.7887082E-09  0.0000000E+00 -0.5416982E-03
 -0.5050505E-02  0.0000000E+00 -0.5050505E-02  0.1006176E-08  0.0000000E+00 -0.5416979E-03
 -0.5050505E-02  0.0000000E+00 -0.5050505E-02  0.1218133E-08  0.0000000E+00 -0.5416976E-03
 -0.5050504E-02  0.0000000E+00 -0.5050505E-02  0.1423641E-08  0.0000000E+00 -0.5416972E-03
 -0.5050501E-02  0.0000000E+00 -0.5050505E-02  0.1621707E-08  0.0000000E+00 -0.5416967E-03
 -0.5050495E-02  0.0000000E+00 -0.5050505E-02  0.1811314E-08  0.0000000E+00 -0.5416961E-03
 -0.5050482E-02  0.0000000E+00 -0.5050505E-02  0.1991428E-08  0.0000000E+00 -0.5416955E-03
 -0.5050449E-02  0.0000000E+00 -0.5050505E-02  0.2161019E-08  0.0000000E+00 -0.5416948E-03
 -0.5050376E-02  0.0000000E+00 -0.5050505E-02  0.2319057E-08  0.0000000E+00 -0.5416941E-03
 -0.5050299E-02  0.0000000E+00 -0.5050505E-02  0.2464526E-08  0.0000000E+00 -0.5416933E-03
 -0.5050178E-02  0.0000000E+00 -0.5050505E-02  0.2596422E-08  0.0000000E+00 -0.5416925E-03
 -0.5050018E-02  0.0000000E+00 -0.5050505E-02  0.2713758E-08  0.0000000E+00 -0.5416916E-03
 -0.5049710E-02  0.0000000E+00 -0.5050505E-02  0.2815569E-08  0.0000000E+00 -0.5416907E-03
 -0.5049253E-02  0.0000000E+00 -0.5050505E-02  0.2900913E-08  0.0000000E+00 -0.5416898E-03
 -0.5048636E-02  0.0000000E+00 -0.5050505E-02  0.2968875E-08  0.0000000E+00 -0.5416889E-03
 -0.5047442E-02  0.0000000E+00 -0.5050505E-02  0.3018572E-08  0.0000000E+00 -0.5416879E-03
 -0.5045727E-02  0.0000000E+00 -0.5050505E-02  0.3049152E-08  0.0000000E+00 -0.5416869E-03
 -0.5043261E-02  0.0000000E+00 -0.5050505E-02  0.3059800E-08  0.0000000E+00 -0.5416859E-03
 -0.5038714E-02  0.0000000E+00 -0.5050505E-02  0.3049741E-08  0.0000000E+00 -0.5416849E-03
 -0.5032318E-02  0.0000000E+00 -0.5050505E-02  0.3018241E-08  0.0000000E+00 -0.5416839E-03
 -0.5022454E-02  0.0000000E+00 -0.5050505E-02  0.2964611E-08  0.0000000E+00 -0.5416829E-03
 -0.5012589E-02  0.0000000E+00 -0.5050505E-02  0.2888208E-08  0.0000000E+00 -0.5416820E-03
 -0.5002725E-02  0.0000000E+00 -0.5050505E-02  0.2788439E-08  0.0000000E+00 -0.5416810E-03
 -0.4992860E-02  0.0000000E+00 -0.5050505E-02  0.2664767E-08  0.0000000E+00 -0.5416801E-03
 -0.4976523E-02  0.0000000E+00 -0.5050505E-02  0.2516708E-08  0.0000000E+00 -0.5416793E-03
 -0.4956794E-02  0.0000000E+00 -0.5050505E-02  0.2343834E-08  0.0000000E+00 -0.5416784E-03
 -0.4937066E-02  0.0000000E+00 -0.5050505E-02  0.2145779E-08  0.0000000E+00 -0.5416777E-03