title = "dataset feddes"
variables = "x", "y", "z", "vx", "vy", "vz"
zone t = "velocities, solution time =  3.000E+01 days        " i =   99, j =   99, k =    1,  f=point
 -0.5050505E-02  0.0000000E+00 -0.5050505E-02  0.3451949E-08  0.0000000E+00 -0.3060214E-03
 -0.5050505E-02  0.0000000E+00 -0.5050505E-02  0.1035410E-07  0.0000000E+00 -0.3060071E-03
 -0.5050505E-02  0.0000000E+00 -0.5050505E-02  0.1725096E-07  0.0000000E+00 -0.3059784E-03
 -0.5050505E-02  0.0000000E+00 -0.5050505E-02  0.2413900E-07  0.0000000E+00 -0.3059355E-03
 -0.5050505E-02  0.0000000E+00 -0.5050505E-02  0.3101468E-07  0.0000000E+00 -0.3058784E-03
 -0.5050505E-02  0.0000000E+00 -0.5050505E-02  0.3787442E-07  0.0000000E+00 -0.3058069E-03
 -0.5050504E-02  0.0000000E+00 -0.5050505E-02  0.4471462E-07  0.0000000E+00 -0.3057213E-03
 -0.5050501E-02  0.0000000E+00 -0.5050505E-02  0.5153164E-07  0.0000000E+00 -0.3056216E-03
 -0.5050495E-02  0.0000000E+00 -0.5050505E-02  0.5832178E-07  0.0000000E+00 -0.3055077E-03
 -0.5050482E-02  0.0000000E+00 -0.5050505E-02  0.6508130E-07  0.0000000E+00 -0.3053798E-03
 -0.5050449E-02  0.0000000E+00 -0.5050505E-02  0.7180643E-07  0.0000000E+00 -0.3052379E-03
 -0.5050376E-02  0.0000000E+00 -0.5050505E-02  0.7849332E-07  0.0000000E+00 -0.3050821E-03
 -0.5050299E-02  0.0000000E+00 -0.5050505E-02  0.8513809E-07  0.0000000E+00 -0.3049124E-03
 -0.5050178E-02  0.0000000E+00 -0.5050505E-02  0.9173681E-07  0.0000000E+00 -0.3047291E-03
 -0.5050018E-02  0.0000000E+00 -0.5050505E-02  0.9828551E-07  0.0000000E+00 -0.3045322E-03
 -0.5049710E-02  0.0000000E+00 -0.5050505E-02  0.1047802E-06  0.0000000E+00 -0.3043217E-03
 -0.5049253E-02  0.0000000E+00 -0.5050505E-02  0.1112169E-06  0.0000000E+00 -0.3040978E-03
 -0.5048636E-02  0.0000000E+00 -0.5050505E-02  0.1175916E-06  0.0000000E+00 -0.3038607E-03
 -0.5047442E-02  0.0000000E+00 -0.5050505E-02  0.1239003E-06  0.0000000E+00 -0.3036104E-03
 -0.5045727E-02  0.0000000E+00 -0.5050505E-02  0.1301390E-06  0.0000000E+00 -0.3033471E-03
 -0.5043261E-02  0.0000000E+00 -0.5050505E-02  0.1363040E-06  0.0000000E+00 -0.3030710E-03
 -0.5038714E-02  0.0000000E+00 -0.5050505E-02  0.1423913E-06  0.0000000E+00 -0.3027821E-03
 -0.5032318E-02  0.0000000E+00 -0.5050505E-02  0.1483973E-06  0.0000000E+00 -0.3024808E-03
 -0.5022454E-02  0.0000000E+00 -0.5050505E-02  0.1543184E-06  0.0000000E+00 -0.3021671E-03
 -0.5012589E-02  0.0000000E+00 -0.5050505E-02  0.1601512E-06  0.0000000E+00 -0.3018413E-03
 -0.5002725E-02  0.0000000E+00 -0.5050505E-02  0.1658924E-06  0.0000000E+00 -0.3015034E-03
 -0.4992860E-02  0.0000000E+00 -0.5050505E-02  0.1715390E-06  0.0000000E+00 -0.3011538E-03
 -0.4976523E-02  0.0000000E+00 -0.5050505E-02  0.1770879E-06  0.0000000E+00 -0.3007926E-03
 -0.4956794E-02  0.0000000E+00 -0.5050505E-02  0.1825364E-06  0.0000000E+00 -0.3004200E-03
 -0.4937066E-02  0.0000000E+00 -0.5050505E-02  0.1878816E-06  0.0000000E+00 -0.3000363E-03
 -0.4906239E-02  0.0000000E+00 -0.5050505E-02  0.1931210E-06  0.0000000E+00 -0.2996416E-03
 -0.4866782E-02  0.0000000E+00 -0.5050505E-02  0.1982515E-06  0.0000000E+00 -0.2992362E-03
 -0.4827325E-02  0.0000000E+00 -0.5050505E-02  0.2032698E-06  0.0000000E+00 -0.2988202E-03
 -0.4769372E-02  0.0000000E+00 -0.5050505E-02  0.2081721E-06  0.0000000E+00 -0.2983941E-03
 -0.4690458E-02  0.0000000E+00 -0.5050505E-02  0.2129532E-06  0.0000000E+00 -0.2979579E-03
 -0.4611543E-02  0.0000000E+00 -0.5050505E-02  0.2176067E-06  0.0000000E+00 -0.2975120E-03
 -0.4503035E-02  0.0000000E+00 -0.5050505E-02  0.2221236E-06  0.0000000E+00 -0.2970566E-03
 -0.4345206E-02  0.0000000E+00 -0.5050505E-02  0.2264918E-06  0.0000000E+00 -0.2965920E-03
 -0.4187378E-02  0.0000000E+00 -0.5050505E-02  0.2306944E-06  0.0000000E+00 -0.2961186E-03
 -0.3985156E-02  0.0000000E+00 -0.5050505E-02  0.2347088E-06  0.0000000E+00 -0.2956366E-03
 -0.3669499E-02  0.0000000E+00 -0.5050505E-02  0.2385041E-06  0.0000000E+00 -0.2951467E-03
 -0.3353842E-02  0.0000000E+00 -0.5050505E-02  0.2420389E-06  0.0000000E+00 -0.2946491E-03
 -0.2978990E-02  0.0000000E+00 -0.5050505E-02  0.2452585E-06  0.0000000E+00 -0.2941446E-03
 -0.2347676E-02  0.0000000E+00 -0.5050505E-02  0.2480911E-06  0.0000000E+00 -0.2936339E-03
 -0.1716362E-02  0.0000000E+00 -0.5050505E-02  0.2504438E-06  0.0000000E+00 -0.2931178E-03
 -0.1025842E-02  0.0000000E+00 -0.5050505E-02  0.2521980E-06  0.0000000E+00 -0.2925975E-03
  0.2367855E-03  0.0000000E+00 -0.5050505E-02  0.2532048E-06  0.0000000E+00 -0.2920744E-03
  0.1499413E-02  0.0000000E+00 -0.5050505E-02  0.2532801E-06  0.0000000E+00 -0.2915502E-03
  0.2762042E-02  0.0000000E+00 -0.5050505E-02  0.2522009E-06  0.0000000E+00 -0.2910271E-03
 -0.5050505E-02  0.0000000E+00 -0.5050505E-02  0.2497027E-06  0.0000000E+00 -0.2905077E-03
 -0.5050505E-02  0.0000000E+00 -0.5050505E-02  0.2454807E-06  0.0000000E+00 -0.2899952E-03
 -0.5050505E-02  0.0000000E+00 -0.5050505E-02  0.2391947E-06  0.0000000E+00 -0.2894937E-03
 -0.5050505E-02  0.0000000E+00 -0.5050505E-02  0.2304810E-06  0.0000000E+00 -0.2890077E-03
 -0.5050505E-02  0.0000000E+00 -0.5050505E-02  0.2189723E-06  0.0000000E+00 -0.2885427E-03
 -0.5050505E-02  0.0000000E+00 -0.5050505E-02  0.2043273E-06  0.0000000E+00 -0.2881048E-03
 -0.5050505E-02  0.0000000E+00 -0.5050505E-02  0.1862692E-06  0.0000000E+00 -0.2877007E-03
 -0.5050504E-02  0.0000000E+00 -0.5050505E-02  0.1646319E-06  0.0000000E+00 -0.2873377E-03
 -0.5050501E-02  0.0000000E+00 -0.5050505E-02  0.1394075E-06  0.0000000E+00 -0.2870232E-03
 -0.5050495E-02  0.0000000E+00 -0.5050505E-02  0.1107877E-06  0.0000000E+00 -0.2867644E-03
 -0.5050482E-02  0.0000000E+00 -0.5050505E-02  0.7918791E-07  0.0000000E+00 -0.2865678E-03
 -0.5050449E-02  0.0000000E+00 -0.5050505E-02  0.4524501E-07  0.0000000E+00 -0.2864391E-03
 -0.5050376E-02  0.0000000E+00 -0.5050505E-02  0.9782510E-08  0.0000000E+00 -0.2863822E-03
 -0.5050299E-02  0.0000000E+00 -0.5050505E-02 -0.2625401E-07  0.0000000E+00 -0.2863992E-03
 -0.5050178E-02  0.0000000E+00 -0.5050505E-02 -0.6188100E-07  0.0000000E+00 -0.2864904E-03
 -0.5050018E-02  0.0000000E+00 -0.5050505E-02 -0.9616424E-07  0.0000000E+00 -0.2866539E-03
 -0.5049710E-02  0.0000000E+00 -0.5050505E-02 -0.1282920E-06  0.0000000E+00 -0.2868861E-03
 -0.5049253E-02  0.0000000E+00 -0.5050505E-02 -0.1576239E-06  0.0000000E+00 -0.2871818E-03
 -0.5048636E-02  0.0000000E+00 -0.5050505E-02 -0.1837122E-06  0.0000000E+00 -0.2875349E-03
 -0.5047442E-02  0.0000000E+00 -0.5050505E-02 -0.2062984E-06  0.0000000E+00 -0.2879384E-03
 -0.5045727E-02  0.0000000E+00 -0.5050505E-02 -0.2252925E-06  0.0000000E+00 -0.2883849E-03
 -0.5043261E-02  0.0000000E+00 -0.5050505E-02 -0.2407419E-06  0.0000000E+00 -0.2888671E-03
 -0.5038714E-02  0.0000000E+00 -0.5050505E-02 -0.2527974E-06  0.0000000E+00 -0.2893778E-03
 -0.5032318E-02  0.0000000E+00 -0.5050505E-02 -0.2616812E-06  0.0000000E+00 -0.2899101E-03
 -0.5022454E-02  0.0000000E+00 -0.5050505E-02 -0.2676586E-06  0.0000000E+00 -0.2904579E-03
 -0.5012589E-02  0.0000000E+00 -0.5050505E-02 -0.2710169E-06  0.0000000E+00 -0.2910153E-03
 -0.5002725E-02  0.0000000E+00 -0.5050505E-02 -0.2720488E-06  0.0000000E+00 -0.2915774E-03
 -0.4992860E-02  0.0000000E+00 -0.5050505E-02 -0.2710423E-06  0.0000000E+00 -0.2921395E-03
 -0.4976523E-02  0.0000000E+00 -0.5050505E-02 -0.2682740E-06  0.0000000E+00 -0.2926977E-03
 -0.4956794E-02  0.0000000E+00 -0.5050505E-02 -0.2640073E-06  0.0000000E+00 -0.2932487E-03
 -0.4937066E-02  0.0000000E+00 -0.5050505E-02 -0.2584934E-06  0.0000000E+00 -0.2937896E-03
 -0.4906239E-02  0.0000000E+00 -0.5050505E-02 -0.2519740E-06  0.0000000E+00 -0.2943180E-03
 -0.4866782E-02  0.0000000E+00 -0.5050505E-02 -0.2446892E-06  0.0000000E+00 -0.2948322E-03
 -0.4827325E-02  0.0000000E+00 -0.5050505E-02 -0.2368862E-06  0.0000000E+00 -0.2953308E-03
 -0.4769372E-02  0.0000000E+00 -0.5050505E-02 -0.2288356E-06  0.0000000E+00 -0.2958131E-03
 -0.4690458E-02  0.0000000E+00 -0.5050505E-02 -0.2208535E-06  0.0000000E+00 -0.2962787E-03
 -0.4611543E-02  0.0000000E+00 -0.5050505E-02 -0.2133386E-06  0.0000000E+00 -0.2967284E-03
 -0.4503035E-02  0.0000000E+00 -0.5050505E-02 -0.2068315E-06  0.0000000E+00 -0.2971635E-03
 -0.4345206E-02  0.0000000E+00 -0.5050505E-02 -0.2021182E-06  0.0000000E+00 -0.2975870E-03
 -0.4187378E-02  0.0000000E+00 -0.5050505E-02 -0.2004164E-06  0.0000000E+00 -0.2980039E-03
 -0.3985156E-02  0.0000000E+00 -0.5050505E-02 -0.2037304E-06  0.0000000E+00 -0.2984225E-03
 -0.3669499E-02  0.0000000E+00 -0.5050505E-02 -0.2155679E-06  0.0000000E+00 -0.2988568E-03
 -0.3353842E-02  0.0000000E+00 -0.5050505E-02 -0.2424858E-06  0.0000000E+00 -0.2993313E-03
 -0.2978990E-02  0.0000000E+00 -0.5050505E-02 -0.2976852E-06  0.0000000E+00 -0.2998909E-03
 -0.2347676E-02  0.0000000E+00 -0.5050505E-02 -0.4101163E-06  0.0000000E+00 -0.3006241E-03
 -0.1716362E-02  0.0000000E+00 -0.5050505E-02 -0.6497606E-06  0.0000000E+00 -0.3017222E-03
 -0.1025842E-02  0.0000000E+00 -0.5050505E-02 -0.1204888E-05  0.0000000E+00 -0.3036440E-03
  0.2367855E-03  0.0000000E+00 -0.5050505E-02 -0.2641264E-05  0.0000000E+00 -0.3076304E-03
  0.1499413E-02  0.0000000E+00 -0.5050505E-02 -0.6849799E-05  0.0000000E+00 -0.3174727E-03
  0.5287294E-02  0.0000000E+00 -0.5050505E-02 -0.1118755E-03  0.0000000E+00 -0.2533441E-03
 -0.5050505E-02  0.0000000E+00 -0.5050505E-02  0.1036815E-07  0.0000000E+00 -0.3058089E-03
 -0.5050505E-02  0.0000000E+00 -0.5050505E-02  0.3109923E-07  0.0000000E+00 -0.3057945E-03
 -0.5050505E-02  0.0000000E+00 -0.5050505E-02  0.5181449E-07  0.0000000E+00 -0.3057657E-03
 -0.5050505E-02  0.0000000E+00 -0.5050505E-02  0.7250335E-07  0.0000000E+00 -0.3057226E-03
 -0.5050505E-02  0.0000000E+00 -0.5050505E-02  0.9315520E-07  0.0000000E+00 -0.3056651E-03
 -0.5050505E-02  0.0000000E+00 -0.5050505E-02  0.1137593E-06  0.0000000E+00 -0.3055933E-03
 -0.5050504E-02  0.0000000E+00 -0.5050505E-02  0.1343050E-06  0.0000000E+00 -0.3055073E-03
 -0.5050501E-02  0.0000000E+00 -0.5050505E-02  0.1547812E-06  0.0000000E+00 -0.3054069E-03
 -0.5050495E-02  0.0000000E+00 -0.5050505E-02  0.1751770E-06  0.0000000E+00 -0.3052925E-03
 -0.5050482E-02  0.0000000E+00 -0.5050505E-02  0.1954812E-06  0.0000000E+00 -0.3051639E-03
 -0.5050449E-02  0.0000000E+00 -0.5050505E-02  0.2156823E-06  0.0000000E+00 -0.3050212E-03
 -0.5050376E-02  0.0000000E+00 -0.5050505E-02  0.2357689E-06  0.0000000E+00 -0.3048646E-03
 -0.5050299E-02  0.0000000E+00 -0.5050505E-02  0.2557294E-06  0.0000000E+00 -0.3046940E-03
 -0.5050178E-02  0.0000000E+00 -0.5050505E-02  0.2755520E-06  0.0000000E+00 -0.3045097E-03
 -0.5050018E-02  0.0000000E+00 -0.5050505E-02  0.2952248E-06  0.0000000E+00 -0.3043116E-03
 -0.5049710E-02  0.0000000E+00 -0.5050505E-02  0.3147358E-06  0.0000000E+00 -0.3041000E-03
 -0.5049253E-02  0.0000000E+00 -0.5050505E-02  0.3340732E-06  0.0000000E+00 -0.3038749E-03
 -0.5048636E-02  0.0000000E+00 -0.5050505E-02  0.3532248E-06  0.0000000E+00 -0.3036364E-03
 -0.5047442E-02  0.0000000E+00 -0.5050505E-02  0.3721788E-06  0.0000000E+00 -0.3033848E-03
 -0.5045727E-02  0.0000000E+00 -0.5050505E-02  0.3909233E-06  0.0000000E+00 -0.3031200E-03
 -0.5043261E-02  0.0000000E+00 -0.5050505E-02  0.4094467E-06  0.0000000E+00 -0.3028423E-03
 -0.5038714E-02  0.0000000E+00 -0.5050505E-02  0.4277377E-06  0.0000000E+00 -0.3025519E-03
 -0.5032318E-02  0.0000000E+00 -0.5050505E-02  0.4457852E-06  0.0000000E+00 -0.3022488E-03
 -0.5022454E-02  0.0000000E+00 -0.5050505E-02  0.4635785E-06  0.0000000E+00 -0.3019333E-03
 -0.5012589E-02  0.0000000E+00 -0.5050505E-02  0.4811074E-06  0.0000000E+00 -0.3016056E-03
 -0.5002725E-02  0.0000000E+00 -0.5050505E-02  0.4983623E-06  0.0000000E+00 -0.3012658E-03
 -0.4992860E-02  0.0000000E+00 -0.5050505E-02  0.5153339E-06  0.0000000E+00 -0.3009141E-03
 -0.4976523E-02  0.0000000E+00 -0.5050505E-02  0.5320135E-06  0.0000000E+00 -0.3005507E-03
 -0.4956794E-02  0.0000000E+00 -0.5050505E-02  0.5483928E-06  0.0000000E+00 -0.3001759E-03
 -0.4937066E-02  0.0000000E+00 -0.5050505E-02  0.5644639E-06  0.0000000E+00 -0.2997898E-03
 -0.4906239E-02  0.0000000E+00 -0.5050505E-02  0.5802187E-06  0.0000000E+00 -0.2993927E-03
 -0.4866782E-02  0.0000000E+00 -0.5050505E-02  0.5956489E-06  0.0000000E+00 -0.2989848E-03
 -0.4827325E-02  0.0000000E+00 -0.5050505E-02  0.6107450E-06  0.0000000E+00 -0.2985663E-03
 -0.4769372E-02  0.0000000E+00 -0.5050505E-02  0.6254958E-06  0.0000000E+00 -0.2981374E-03
 -0.4690458E-02  0.0000000E+00 -0.5050505E-02  0.6398870E-06  0.0000000E+00 -0.2976983E-03
 -0.4611543E-02  0.0000000E+00 -0.5050505E-02  0.6538998E-06  0.0000000E+00 -0.2972494E-03
 -0.4503035E-02  0.0000000E+00 -0.5050505E-02  0.6675085E-06  0.0000000E+00 -0.2967909E-03
 -0.4345206E-02  0.0000000E+00 -0.5050505E-02  0.6806778E-06  0.0000000E+00 -0.2963231E-03
 -0.4187378E-02  0.0000000E+00 -0.5050505E-02  0.6933594E-06  0.0000000E+00 -0.2958463E-03
 -0.3985156E-02  0.0000000E+00 -0.5050505E-02  0.7054868E-06  0.0000000E+00 -0.2953608E-03
 -0.3669499E-02  0.0000000E+00 -0.5050505E-02  0.7169700E-06  0.0000000E+00 -0.2948671E-03
 -0.3353842E-02  0.0000000E+00 -0.5050505E-02  0.7276878E-06  0.0000000E+00 -0.2943655E-03
 -0.2978990E-02  0.0000000E+00 -0.5050505E-02  0.7374789E-06  0.0000000E+00 -0.2938567E-03
 -0.2347676E-02  0.0000000E+00 -0.5050505E-02  0.7461315E-06  0.0000000E+00 -0.2933414E-03
 -0.1716362E-02  0.0000000E+00 -0.5050505E-02  0.7533704E-06  0.0000000E+00 -0.2928204E-03
 -0.1025842E-02  0.0000000E+00 -0.5050505E-02  0.7588437E-06  0.0000000E+00 -0.2922948E-03
  0.2367855E-03  0.0000000E+00 -0.5050505E-02  0.7621075E-06  0.0000000E+00 -0.2917658E-03
  0.1499413E-02  0.0000000E+00 -0.5050505E-02  0.7626115E-06  0.0000000E+00 -0.2912352E-03
  0.2762042E-02  0.0000000E+00 -0.5050505E-02  0.7596859E-06  0.0000000E+00 -0.2907051E-03
 -0.5050505E-02  0.0000000E+00 -0.5050505E-02  0.7525337E-06  0.0000000E+00 -0.2901780E-03
 -0.5050505E-02  0.0000000E+00 -0.5050505E-02  0.7402309E-06  0.0000000E+00 -0.2896572E-03
 -0.5050505E-02  0.0000000E+00 -0.5050505E-02  0.7217411E-06  0.0000000E+00 -0.2891466E-03
 -0.5050505E-02  0.0000000E+00 -0.5050505E-02  0.6959487E-06  0.0000000E+00 -0.2886508E-03
 -0.5050505E-02  0.0000000E+00 -0.5050505E-02  0.6617180E-06  0.0000000E+00 -0.2881753E-03
 -0.5050505E-02  0.0000000E+00 -0.5050505E-02  0.6179821E-06  0.0000000E+00 -0.2877264E-03
 -0.5050505E-02  0.0000000E+00 -0.5050505E-02  0.5638620E-06  0.0000000E+00 -0.2873112E-03
 -0.5050504E-02  0.0000000E+00 -0.5050505E-02  0.4988100E-06  0.0000000E+00 -0.2869373E-03
 -0.5050501E-02  0.0000000E+00 -0.5050505E-02  0.4227619E-06  0.0000000E+00 -0.2866124E-03
 -0.5050495E-02  0.0000000E+00 -0.5050505E-02  0.3362712E-06  0.0000000E+00 -0.2863444E-03
 -0.5050482E-02  0.0000000E+00 -0.5050505E-02  0.2405920E-06  0.0000000E+00 -0.2861403E-03
 -0.5050449E-02  0.0000000E+00 -0.5050505E-02  0.1376771E-06  0.0000000E+00 -0.2860062E-03
 -0.5050376E-02  0.0000000E+00 -0.5050505E-02  0.3007044E-07  0.0000000E+00 -0.2859465E-03
 -0.5050299E-02  0.0000000E+00 -0.5050505E-02 -0.7929763E-07  0.0000000E+00 -0.2859633E-03
 -0.5050178E-02  0.0000000E+00 -0.5050505E-02 -0.1873804E-06  0.0000000E+00 -0.2860570E-03
 -0.5050018E-02  0.0000000E+00 -0.5050505E-02 -0.2912932E-06  0.0000000E+00 -0.2862255E-03
 -0.5049710E-02  0.0000000E+00 -0.5050505E-02 -0.3885445E-06  0.0000000E+00 -0.2864648E-03
 -0.5049253E-02  0.0000000E+00 -0.5050505E-02 -0.4771864E-06  0.0000000E+00 -0.2867693E-03
 -0.5048636E-02  0.0000000E+00 -0.5050505E-02 -0.5558756E-06  0.0000000E+00 -0.2871325E-03
 -0.5047442E-02  0.0000000E+00 -0.5050505E-02 -0.6238566E-06  0.0000000E+00 -0.2875467E-03
 -0.5045727E-02  0.0000000E+00 -0.5050505E-02 -0.6808906E-06  0.0000000E+00 -0.2880043E-03
 -0.5043261E-02  0.0000000E+00 -0.5050505E-02 -0.7271558E-06  0.0000000E+00 -0.2884976E-03
 -0.5038714E-02  0.0000000E+00 -0.5050505E-02 -0.7631401E-06  0.0000000E+00 -0.2890192E-03
 -0.5032318E-02  0.0000000E+00 -0.5050505E-02 -0.7895409E-06  0.0000000E+00 -0.2895621E-03
 -0.5022454E-02  0.0000000E+00 -0.5050505E-02 -0.8071803E-06  0.0000000E+00 -0.2901198E-03
 -0.5012589E-02  0.0000000E+00 -0.5050505E-02 -0.8169394E-06  0.0000000E+00 -0.2906866E-03
 -0.5002725E-02  0.0000000E+00 -0.5050505E-02 -0.8197105E-06  0.0000000E+00 -0.2912574E-03
 -0.4992860E-02  0.0000000E+00 -0.5050505E-02 -0.8163663E-06  0.0000000E+00 -0.2918275E-03
 -0.4976523E-02  0.0000000E+00 -0.5050505E-02 -0.8077419E-06  0.0000000E+00 -0.2923931E-03
 -0.4956794E-02  0.0000000E+00 -0.5050505E-02 -0.7946289E-06  0.0000000E+00 -0.2929508E-03
 -0.4937066E-02  0.0000000E+00 -0.5050505E-02 -0.7777783E-06  0.0000000E+00 -0.2934977E-03
 -0.4906239E-02  0.0000000E+00 -0.5050505E-02 -0.7579113E-06  0.0000000E+00 -0.2940315E-03
 -0.4866782E-02  0.0000000E+00 -0.5050505E-02 -0.7357382E-06  0.0000000E+00 -0.2945504E-03
 -0.4827325E-02  0.0000000E+00 -0.5050505E-02 -0.7119874E-06  0.0000000E+00 -0.2950530E-03
 -0.4769372E-02  0.0000000E+00 -0.5050505E-02 -0.6874481E-06  0.0000000E+00 -0.2955384E-03
 -0.4690458E-02  0.0000000E+00 -0.5050505E-02 -0.6630338E-06  0.0000000E+00 -0.2960064E-03
 -0.4611543E-02  0.0000000E+00 -0.5050505E-02 -0.6398817E-06  0.0000000E+00 -0.2964571E-03
 -0.4503035E-02  0.0000000E+00 -0.5050505E-02 -0.6195133E-06  0.0000000E+00 -0.2968919E-03
 -0.4345206E-02  0.0000000E+00 -0.5050505E-02 -0.6041046E-06  0.0000000E+00 -0.2973128E-03
 -0.4187378E-02  0.0000000E+00 -0.5050505E-02 -0.5969629E-06  0.0000000E+00 -0.2977237E-03
 -0.3985156E-02  0.0000000E+00 -0.5050505E-02 -0.6034039E-06  0.0000000E+00 -0.2981305E-03
 -0.3669499E-02  0.0000000E+00 -0.5050505E-02 -0.6324490E-06  0.0000000E+00 -0.2985428E-03
 -0.3353842E-02  0.0000000E+00 -0.5050505E-02 -0.7002787E-06  0.0000000E+00 -0.2989752E-03
 -0.2978990E-02  0.0000000E+00 -0.5050505E-02 -0.8376703E-06  0.0000000E+00 -0.2994502E-03
 -0.2347676E-02  0.0000000E+00 -0.5050505E-02 -0.1106984E-05  0.0000000E+00 -0.2999997E-03
 -0.1716362E-02  0.0000000E+00 -0.5050505E-02 -0.1643386E-05  0.0000000E+00 -0.3006553E-03
 -0.1025842E-02  0.0000000E+00 -0.5050505E-02 -0.2760942E-05  0.0000000E+00 -0.3013796E-03
  0.2367855E-03  0.0000000E+00 -0.5050505E-02 -0.5240594E-05  0.0000000E+00 -0.3017098E-03
  0.1499413E-02  0.0000000E+00 -0.5050505E-02 -0.1114575E-04  0.0000000E+00 -0.2990516E-03
  0.5287294E-02  0.0000000E+00 -0.5050505E-02 -0.2619173E-04  0.0000000E+00 -0.2806641E-03
 -0.5050505E-02  0.0000000E+00 -0.5050505E-02  0.1732643E-07  0.0000000E+00 -0.3053925E-03
 -0.5050505E-02  0.0000000E+00 -0.5050505E-02  0.5197060E-07  0.0000000E+00 -0.3053780E-03
 -0.5050505E-02  0.0000000E+00 -0.5050505E-02  0.8658853E-07  0.0000000E+00 -0.3053489E-03
 -0.5050505E-02  0.0000000E+00 -0.5050505E-02  0.1211627E-06  0.0000000E+00 -0.3053053E-03
 -0.5050505E-02  0.0000000E+00 -0.5050505E-02  0.1556754E-06  0.0000000E+00 -0.3052472E-03
 -0.5050505E-02  0.0000000E+00 -0.5050505E-02  0.1901089E-06  0.0000000E+00 -0.3051747E-03
 -0.5050504E-02  0.0000000E+00 -0.5050505E-02  0.2244453E-06  0.0000000E+00 -0.3050877E-03
 -0.5050501E-02  0.0000000E+00 -0.5050505E-02  0.2586665E-06  0.0000000E+00 -0.3049863E-03
 -0.5050495E-02  0.0000000E+00 -0.5050505E-02  0.2927540E-06  0.0000000E+00 -0.3048707E-03
 -0.5050482E-02  0.0000000E+00 -0.5050505E-02  0.3266894E-06  0.0000000E+00 -0.3047407E-03
 -0.5050449E-02  0.0000000E+00 -0.5050505E-02  0.3604536E-06  0.0000000E+00 -0.3045965E-03
 -0.5050376E-02  0.0000000E+00 -0.5050505E-02  0.3940277E-06  0.0000000E+00 -0.3044382E-03
 -0.5050299E-02  0.0000000E+00 -0.5050505E-02  0.4273923E-06  0.0000000E+00 -0.3042659E-03
 -0.5050178E-02  0.0000000E+00 -0.5050505E-02  0.4605278E-06  0.0000000E+00 -0.3040796E-03
 -0.5050018E-02  0.0000000E+00 -0.5050505E-02  0.4934144E-06  0.0000000E+00 -0.3038794E-03
 -0.5049710E-02  0.0000000E+00 -0.5050505E-02  0.5260323E-06  0.0000000E+00 -0.3036655E-03
 -0.5049253E-02  0.0000000E+00 -0.5050505E-02  0.5583616E-06  0.0000000E+00 -0.3034379E-03
 -0.5048636E-02  0.0000000E+00 -0.5050505E-02  0.5903822E-06  0.0000000E+00 -0.3031969E-03
 -0.5047442E-02  0.0000000E+00 -0.5050505E-02  0.6220745E-06  0.0000000E+00 -0.3029425E-03
 -0.5045727E-02  0.0000000E+00 -0.5050505E-02  0.6534187E-06  0.0000000E+00 -0.3026748E-03
 -0.5043261E-02  0.0000000E+00 -0.5050505E-02  0.6843956E-06  0.0000000E+00 -0.3023940E-03
 -0.5038714E-02  0.0000000E+00 -0.5050505E-02  0.7149864E-06  0.0000000E+00 -0.3021003E-03
 -0.5032318E-02  0.0000000E+00 -0.5050505E-02  0.7451727E-06  0.0000000E+00 -0.3017939E-03
 -0.5022454E-02  0.0000000E+00 -0.5050505E-02  0.7749369E-06  0.0000000E+00 -0.3014748E-03
 -0.5012589E-02  0.0000000E+00 -0.5050505E-02  0.8042622E-06  0.0000000E+00 -0.3011434E-03
 -0.5002725E-02  0.0000000E+00 -0.5050505E-02  0.8331328E-06  0.0000000E+00 -0.3007997E-03
 -0.4992860E-02  0.0000000E+00 -0.5050505E-02  0.8615336E-06  0.0000000E+00 -0.3004439E-03
 -0.4976523E-02  0.0000000E+00 -0.5050505E-02  0.8894505E-06  0.0000000E+00 -0.3000763E-03
 -0.4956794E-02  0.0000000E+00 -0.5050505E-02  0.9168704E-06  0.0000000E+00 -0.2996971E-03
 -0.4937066E-02  0.0000000E+00 -0.5050505E-02  0.9437807E-06  0.0000000E+00 -0.2993064E-03
 -0.4906239E-02  0.0000000E+00 -0.5050505E-02  0.9701688E-06  0.0000000E+00 -0.2989045E-03
 -0.4866782E-02  0.0000000E+00 -0.5050505E-02  0.9960219E-06  0.0000000E+00 -0.2984916E-03
 -0.4827325E-02  0.0000000E+00 -0.5050505E-02  0.1021326E-05  0.0000000E+00 -0.2980679E-03
 -0.4769372E-02  0.0000000E+00 -0.5050505E-02  0.1046064E-05  0.0000000E+00 -0.2976336E-03
 -0.4690458E-02  0.0000000E+00 -0.5050505E-02  0.1070215E-05  0.0000000E+00 -0.2971890E-03
 -0.4611543E-02  0.0000000E+00 -0.5050505E-02  0.1093749E-05  0.0000000E+00 -0.2967343E-03
 -0.4503035E-02  0.0000000E+00 -0.5050505E-02  0.1116629E-05  0.0000000E+00 -0.2962697E-03
 -0.4345206E-02  0.0000000E+00 -0.5050505E-02  0.1138799E-05  0.0000000E+00 -0.2957955E-03
 -0.4187378E-02  0.0000000E+00 -0.5050505E-02  0.1160185E-05  0.0000000E+00 -0.2953120E-03
 -0.3985156E-02  0.0000000E+00 -0.5050505E-02  0.1180682E-05  0.0000000E+00 -0.2948195E-03
 -0.3669499E-02  0.0000000E+00 -0.5050505E-02  0.1200149E-05  0.0000000E+00 -0.2943183E-03
 -0.3353842E-02  0.0000000E+00 -0.5050505E-02  0.1218392E-05  0.0000000E+00 -0.2938088E-03
 -0.2978990E-02  0.0000000E+00 -0.5050505E-02  0.1235153E-05  0.0000000E+00 -0.2932916E-03
 -0.2347676E-02  0.0000000E+00 -0.5050505E-02  0.1250091E-05  0.0000000E+00 -0.2927673E-03
 -0.1716362E-02  0.0000000E+00 -0.5050505E-02  0.1262761E-05  0.0000000E+00 -0.2922365E-03
 -0.1025842E-02  0.0000000E+00 -0.5050505E-02  0.1272586E-05  0.0000000E+00 -0.2917003E-03
  0.2367855E-03  0.0000000E+00 -0.5050505E-02  0.1278840E-05  0.0000000E+00 -0.2911598E-03
  0.1499413E-02  0.0000000E+00 -0.5050505E-02  0.1280610E-05  0.0000000E+00 -0.2906167E-03
  0.2762042E-02  0.0000000E+00 -0.5050505E-02  0.1276780E-05  0.0000000E+00 -0.2900727E-03
 -0.5050505E-02  0.0000000E+00 -0.5050505E-02  0.1266010E-05  0.0000000E+00 -0.2895304E-03
 -0.5050505E-02  0.0000000E+00 -0.5050505E-02  0.1246731E-05  0.0000000E+00 -0.2889930E-03
 -0.5050505E-02  0.0000000E+00 -0.5050505E-02  0.1217162E-05  0.0000000E+00 -0.2884642E-03
 -0.5050505E-02  0.0000000E+00 -0.5050505E-02  0.1175363E-05  0.0000000E+00 -0.2879487E-03
 -0.5050505E-02  0.0000000E+00 -0.5050505E-02  0.1119326E-05  0.0000000E+00 -0.2874522E-03
 -0.5050505E-02  0.0000000E+00 -0.5050505E-02  0.1047127E-05  0.0000000E+00 -0.2869812E-03
 -0.5050505E-02  0.0000000E+00 -0.5050505E-02  0.9571317E-06  0.0000000E+00 -0.2865434E-03
 -0.5050504E-02  0.0000000E+00 -0.5050505E-02  0.8482526E-06  0.0000000E+00 -0.2861471E-03
 -0.5050501E-02  0.0000000E+00 -0.5050505E-02  0.7202363E-06  0.0000000E+00 -0.2858010E-03
 -0.5050495E-02  0.0000000E+00 -0.5050505E-02  0.5739244E-06  0.0000000E+00 -0.2855140E-03
 -0.5050482E-02  0.0000000E+00 -0.5050505E-02  0.4114284E-06  0.0000000E+00 -0.2852945E-03
 -0.5050449E-02  0.0000000E+00 -0.5050505E-02  0.2361472E-06  0.0000000E+00 -0.2851493E-03
 -0.5050376E-02  0.0000000E+00 -0.5050505E-02  0.5258016E-07  0.0000000E+00 -0.2850836E-03
 -0.5050299E-02  0.0000000E+00 -0.5050505E-02 -0.1340578E-06  0.0000000E+00 -0.2851002E-03
 -0.5050178E-02  0.0000000E+00 -0.5050505E-02 -0.3183485E-06  0.0000000E+00 -0.2851991E-03
 -0.5050018E-02  0.0000000E+00 -0.5050505E-02 -0.4951969E-06  0.0000000E+00 -0.2853779E-03
 -0.5049710E-02  0.0000000E+00 -0.5050505E-02 -0.6602572E-06  0.0000000E+00 -0.2856319E-03
 -0.5049253E-02  0.0000000E+00 -0.5050505E-02 -0.8101956E-06  0.0000000E+00 -0.2859545E-03
 -0.5048636E-02  0.0000000E+00 -0.5050505E-02 -0.9427794E-06  0.0000000E+00 -0.2863381E-03
 -0.5047442E-02  0.0000000E+00 -0.5050505E-02 -0.1056823E-05  0.0000000E+00 -0.2867742E-03
 -0.5045727E-02  0.0000000E+00 -0.5050505E-02 -0.1152042E-05  0.0000000E+00 -0.2872544E-03
 -0.5043261E-02  0.0000000E+00 -0.5050505E-02 -0.1228858E-05  0.0000000E+00 -0.2877702E-03
 -0.5038714E-02  0.0000000E+00 -0.5050505E-02 -0.1288206E-05  0.0000000E+00 -0.2883138E-03
 -0.5032318E-02  0.0000000E+00 -0.5050505E-02 -0.1331356E-05  0.0000000E+00 -0.2888777E-03
 -0.5022454E-02  0.0000000E+00 -0.5050505E-02 -0.1359764E-05  0.0000000E+00 -0.2894554E-03
 -0.5012589E-02  0.0000000E+00 -0.5050505E-02 -0.1374963E-05  0.0000000E+00 -0.2900409E-03
 -0.5002725E-02  0.0000000E+00 -0.5050505E-02 -0.1378488E-05  0.0000000E+00 -0.2906290E-03
 -0.4992860E-02  0.0000000E+00 -0.5050505E-02 -0.1371822E-05  0.0000000E+00 -0.2912152E-03
 -0.4976523E-02  0.0000000E+00 -0.5050505E-02 -0.1356375E-05  0.0000000E+00 -0.2917954E-03
 -0.4956794E-02  0.0000000E+00 -0.5050505E-02 -0.1333470E-05  0.0000000E+00 -0.2923663E-03
 -0.4937066E-02  0.0000000E+00 -0.5050505E-02 -0.1304352E-05  0.0000000E+00 -0.2929252E-03
 -0.4906239E-02  0.0000000E+00 -0.5050505E-02 -0.1270208E-05  0.0000000E+00 -0.2934697E-03
 -0.4866782E-02  0.0000000E+00 -0.5050505E-02 -0.1232193E-05  0.0000000E+00 -0.2939980E-03
 -0.4827325E-02  0.0000000E+00 -0.5050505E-02 -0.1191478E-05  0.0000000E+00 -0.2945085E-03
 -0.4769372E-02  0.0000000E+00 -0.5050505E-02 -0.1149310E-05  0.0000000E+00 -0.2950004E-03
 -0.4690458E-02  0.0000000E+00 -0.5050505E-02 -0.1107103E-05  0.0000000E+00 -0.2954730E-03
 -0.4611543E-02  0.0000000E+00 -0.5050505E-02 -0.1066579E-05  0.0000000E+00 -0.2959264E-03
 -0.4503035E-02  0.0000000E+00 -0.5050505E-02 -0.1029976E-05  0.0000000E+00 -0.2963610E-03
 -0.4345206E-02  0.0000000E+00 -0.5050505E-02 -0.1000396E-05  0.0000000E+00 -0.2967778E-03
 -0.4187378E-02  0.0000000E+00 -0.5050505E-02 -0.9823809E-06  0.0000000E+00 -0.2971788E-03
 -0.3985156E-02  0.0000000E+00 -0.5050505E-02 -0.9829094E-06  0.0000000E+00 -0.2975665E-03
 -0.3669499E-02  0.0000000E+00 -0.5050505E-02 -0.1013161E-05  0.0000000E+00 -0.2979441E-03
 -0.3353842E-02  0.0000000E+00 -0.5050505E-02 -0.1091723E-05  0.0000000E+00 -0.2983141E-03
 -0.2978990E-02  0.0000000E+00 -0.5050505E-02 -0.1250477E-05  0.0000000E+00 -0.2986753E-03
 -0.2347676E-02  0.0000000E+00 -0.5050505E-02 -0.1545259E-05  0.0000000E+00 -0.2990117E-03
 -0.1716362E-02  0.0000000E+00 -0.5050505E-02 -0.2073699E-05  0.0000000E+00 -0.2992623E-03
 -0.1025842E-02  0.0000000E+00 -0.5050505E-02 -0.2997039E-05  0.0000000E+00 -0.2992396E-03
  0.2367855E-03  0.0000000E+00 -0.5050505E-02 -0.4522988E-05  0.0000000E+00 -0.2984333E-03
  0.1499413E-02  0.0000000E+00 -0.5050505E-02 -0.6600622E-05  0.0000000E+00 -0.2956961E-03
  0.5287294E-02  0.0000000E+00 -0.5050505E-02 -0.7105223E-05  0.0000000E+00 -0.2898233E-03
 -0.5050505E-02  0.0000000E+00 -0.5050505E-02  0.2436129E-07  0.0000000E+00 -0.3047803E-03
 -0.5050505E-02  0.0000000E+00 -0.5050505E-02  0.7307175E-07  0.0000000E+00 -0.3047656E-03
 -0.5050505E-02  0.0000000E+00 -0.5050505E-02  0.1217457E-06  0.0000000E+00 -0.3047361E-03
 -0.5050505E-02  0.0000000E+00 -0.5050505E-02  0.1703587E-06  0.0000000E+00 -0.3046918E-03
 -0.5050505E-02  0.0000000E+00 -0.5050505E-02  0.2188862E-06  0.0000000E+00 -0.3046328E-03
 -0.5050505E-02  0.0000000E+00 -0.5050505E-02  0.2673034E-06  0.0000000E+00 -0.3045592E-03
 -0.5050504E-02  0.0000000E+00 -0.5050505E-02  0.3155855E-06  0.0000000E+00 -0.3044709E-03
 -0.5050501E-02  0.0000000E+00 -0.5050505E-02  0.3637071E-06  0.0000000E+00 -0.3043680E-03
 -0.5050495E-02  0.0000000E+00 -0.5050505E-02  0.4116425E-06  0.0000000E+00 -0.3042505E-03
 -0.5050482E-02  0.0000000E+00 -0.5050505E-02  0.4593660E-06  0.0000000E+00 -0.3041185E-03
 -0.5050449E-02  0.0000000E+00 -0.5050505E-02  0.5068512E-06  0.0000000E+00 -0.3039721E-03
 -0.5050376E-02  0.0000000E+00 -0.5050505E-02  0.5540714E-06  0.0000000E+00 -0.3038113E-03
 -0.5050299E-02  0.0000000E+00 -0.5050505E-02  0.6009996E-06  0.0000000E+00 -0.3036363E-03
 -0.5050178E-02  0.0000000E+00 -0.5050505E-02  0.6476085E-06  0.0000000E+00 -0.3034471E-03
 -0.5050018E-02  0.0000000E+00 -0.5050505E-02  0.6938706E-06  0.0000000E+00 -0.3032438E-03
 -0.5049710E-02  0.0000000E+00 -0.5050505E-02  0.7397582E-06  0.0000000E+00 -0.3030265E-03
 -0.5049253E-02  0.0000000E+00 -0.5050505E-02  0.7852434E-06  0.0000000E+00 -0.3027953E-03
 -0.5048636E-02  0.0000000E+00 -0.5050505E-02  0.8302984E-06  0.0000000E+00 -0.3025504E-03
 -0.5047442E-02  0.0000000E+00 -0.5050505E-02  0.8748955E-06  0.0000000E+00 -0.3022919E-03
 -0.5045727E-02  0.0000000E+00 -0.5050505E-02  0.9190076E-06  0.0000000E+00 -0.3020199E-03
 -0.5043261E-02  0.0000000E+00 -0.5050505E-02  0.9626076E-06  0.0000000E+00 -0.3017346E-03
 -0.5038714E-02  0.0000000E+00 -0.5050505E-02  0.1005669E-05  0.0000000E+00 -0.3014361E-03
 -0.5032318E-02  0.0000000E+00 -0.5050505E-02  0.1048168E-05  0.0000000E+00 -0.3011246E-03
 -0.5022454E-02  0.0000000E+00 -0.5050505E-02  0.1090078E-05  0.0000000E+00 -0.3008003E-03
 -0.5012589E-02  0.0000000E+00 -0.5050505E-02  0.1131377E-05  0.0000000E+00 -0.3004633E-03
 -0.5002725E-02  0.0000000E+00 -0.5050505E-02  0.1172044E-05  0.0000000E+00 -0.3001138E-03
 -0.4992860E-02  0.0000000E+00 -0.5050505E-02  0.1212058E-05  0.0000000E+00 -0.2997521E-03
 -0.4976523E-02  0.0000000E+00 -0.5050505E-02  0.1251399E-05  0.0000000E+00 -0.2993782E-03
 -0.4956794E-02  0.0000000E+00 -0.5050505E-02  0.1290052E-05  0.0000000E+00 -0.2989924E-03
 -0.4937066E-02  0.0000000E+00 -0.5050505E-02  0.1327999E-05  0.0000000E+00 -0.2985949E-03