title = "dataset feddes"
variables = "x", "y", "z", "vx", "vy", "vz"
zone t = "velocities, solution time =  4.300E+01 days        " i =   99, j =   99, k =    1,  f=point
 -0.5050505E-02  0.0000000E+00 -0.5050505E-02  0.3422015E-07  0.0000000E+00 -0.1452402E-03
 -0.5050505E-02  0.0000000E+00 -0.5050505E-02  0.1027048E-06  0.0000000E+00 -0.1451009E-03
 -0.5050505E-02  0.0000000E+00 -0.5050505E-02  0.1713238E-06  0.0000000E+00 -0.1448220E-03
 -0.5050505E-02  0.0000000E+00 -0.5050505E-02  0.2401693E-06  0.0000000E+00 -0.1444033E-03
 -0.5050505E-02  0.0000000E+00 -0.5050505E-02  0.3093355E-06  0.0000000E+00 -0.1438442E-03
 -0.5050505E-02  0.0000000E+00 -0.5050505E-02  0.3789200E-06  0.0000000E+00 -0.1431440E-03
 -0.5050504E-02  0.0000000E+00 -0.5050505E-02  0.4490242E-06  0.0000000E+00 -0.1423017E-03
 -0.5050501E-02  0.0000000E+00 -0.5050505E-02  0.5197543E-06  0.0000000E+00 -0.1413163E-03
 -0.5050495E-02  0.0000000E+00 -0.5050505E-02  0.5912222E-06  0.0000000E+00 -0.1401865E-03
 -0.5050482E-02  0.0000000E+00 -0.5050505E-02  0.6635465E-06  0.0000000E+00 -0.1389105E-03
 -0.5050449E-02  0.0000000E+00 -0.5050505E-02  0.7368542E-06  0.0000000E+00 -0.1374867E-03
 -0.5050376E-02  0.0000000E+00 -0.5050505E-02  0.8112814E-06  0.0000000E+00 -0.1359131E-03
 -0.5050299E-02  0.0000000E+00 -0.5050505E-02  0.8869754E-06  0.0000000E+00 -0.1341871E-03
 -0.5050178E-02  0.0000000E+00 -0.5050505E-02  0.9640960E-06  0.0000000E+00 -0.1323063E-03
 -0.5050018E-02  0.0000000E+00 -0.5050505E-02  0.1042818E-05  0.0000000E+00 -0.1302676E-03
 -0.5049710E-02  0.0000000E+00 -0.5050505E-02  0.1123333E-05  0.0000000E+00 -0.1280677E-03
 -0.5049253E-02  0.0000000E+00 -0.5050505E-02  0.1205852E-05  0.0000000E+00 -0.1257030E-03
 -0.5048636E-02  0.0000000E+00 -0.5050505E-02  0.1290609E-05  0.0000000E+00 -0.1231691E-03
 -0.5047442E-02  0.0000000E+00 -0.5050505E-02  0.1377864E-05  0.0000000E+00 -0.1204616E-03
 -0.5045727E-02  0.0000000E+00 -0.5050505E-02  0.1467906E-05  0.0000000E+00 -0.1175751E-03
 -0.5043261E-02  0.0000000E+00 -0.5050505E-02  0.1561059E-05  0.0000000E+00 -0.1145039E-03
 -0.5038714E-02  0.0000000E+00 -0.5050505E-02  0.1657686E-05  0.0000000E+00 -0.1112416E-03
 -0.5032318E-02  0.0000000E+00 -0.5050505E-02  0.1758197E-05  0.0000000E+00 -0.1077810E-03
 -0.5022454E-02  0.0000000E+00 -0.5050505E-02  0.1863051E-05  0.0000000E+00 -0.1041138E-03
 -0.5012589E-02  0.0000000E+00 -0.5050505E-02  0.1972771E-05  0.0000000E+00 -0.1002312E-03
 -0.5002725E-02  0.0000000E+00 -0.5050505E-02  0.2087945E-05  0.0000000E+00 -0.9612292E-04
 -0.4992860E-02  0.0000000E+00 -0.5050505E-02  0.2209245E-05  0.0000000E+00 -0.9177768E-04
 -0.4976523E-02  0.0000000E+00 -0.5050505E-02  0.2337432E-05  0.0000000E+00 -0.8718270E-04
 -0.4956794E-02  0.0000000E+00 -0.5050505E-02  0.2473372E-05  0.0000000E+00 -0.8232362E-04
 -0.4937066E-02  0.0000000E+00 -0.5050505E-02  0.2618055E-05  0.0000000E+00 -0.7718428E-04
 -0.4906239E-02  0.0000000E+00 -0.5050505E-02  0.2772606E-05  0.0000000E+00 -0.7174645E-04
 -0.4866782E-02  0.0000000E+00 -0.5050505E-02  0.2938315E-05  0.0000000E+00 -0.6598955E-04
 -0.4827325E-02  0.0000000E+00 -0.5050505E-02  0.3116652E-05  0.0000000E+00 -0.5989033E-04
 -0.4769372E-02  0.0000000E+00 -0.5050505E-02  0.3309302E-05  0.0000000E+00 -0.5342248E-04
 -0.4690458E-02  0.0000000E+00 -0.5050505E-02  0.3518188E-05  0.0000000E+00 -0.4655620E-04
 -0.4611543E-02  0.0000000E+00 -0.5050505E-02  0.3745511E-05  0.0000000E+00 -0.3925770E-04
 -0.4503035E-02  0.0000000E+00 -0.5050505E-02  0.3993786E-05  0.0000000E+00 -0.3148867E-04
 -0.4345206E-02  0.0000000E+00 -0.5050505E-02  0.4265884E-05  0.0000000E+00 -0.2320565E-04
 -0.4187378E-02  0.0000000E+00 -0.5050505E-02  0.4565081E-05  0.0000000E+00 -0.1435930E-04
 -0.3985156E-02  0.0000000E+00 -0.5050505E-02  0.4895109E-05  0.0000000E+00 -0.4893630E-05
 -0.3669499E-02  0.0000000E+00 -0.5050505E-02  0.5260116E-05  0.0000000E+00  0.5276959E-05
 -0.3353842E-02  0.0000000E+00 -0.5050505E-02  0.5665043E-05  0.0000000E+00  0.1624137E-04
 -0.2978990E-02  0.0000000E+00 -0.5050505E-02  0.6115451E-05  0.0000000E+00  0.2808011E-04
 -0.2347676E-02  0.0000000E+00 -0.5050505E-02  0.6617660E-05  0.0000000E+00  0.4089476E-04
 -0.1716362E-02  0.0000000E+00 -0.5050505E-02  0.7178859E-05  0.0000000E+00  0.5480146E-04
 -0.1025842E-02  0.0000000E+00 -0.5050505E-02  0.7807276E-05  0.0000000E+00  0.6993303E-04
  0.2367855E-03  0.0000000E+00 -0.5050505E-02  0.8512472E-05  0.0000000E+00  0.8644173E-04
  0.1499413E-02  0.0000000E+00 -0.5050505E-02  0.9305873E-05  0.0000000E+00  0.1045028E-03
  0.2762042E-02  0.0000000E+00 -0.5050505E-02  0.1020177E-04  0.0000000E+00  0.1243200E-03
 -0.5050505E-02  0.0000000E+00 -0.5050505E-02  0.1121921E-04  0.0000000E+00  0.1461336E-03
 -0.5050505E-02  0.0000000E+00 -0.5050505E-02  0.1238546E-04  0.0000000E+00  0.1702352E-03
 -0.5050505E-02  0.0000000E+00 -0.5050505E-02  0.1374242E-04  0.0000000E+00  0.1969917E-03
 -0.5050505E-02  0.0000000E+00 -0.5050505E-02  0.1535849E-04  0.0000000E+00  0.2268903E-03
 -0.5050505E-02  0.0000000E+00 -0.5050505E-02  0.1735126E-04  0.0000000E+00  0.2606196E-03
 -0.5050505E-02  0.0000000E+00 -0.5050505E-02  0.1993370E-04  0.0000000E+00  0.2992257E-03
 -0.5050505E-02  0.0000000E+00 -0.5050505E-02  0.2351562E-04  0.0000000E+00  0.3444278E-03
 -0.5050504E-02  0.0000000E+00 -0.5050505E-02  0.2894522E-04  0.0000000E+00  0.3993096E-03
 -0.5050501E-02  0.0000000E+00 -0.5050505E-02  0.3812157E-04  0.0000000E+00  0.4699513E-03
 -0.5050495E-02  0.0000000E+00 -0.5050505E-02  0.5560841E-04  0.0000000E+00  0.5695604E-03
 -0.5050482E-02  0.0000000E+00 -0.5050505E-02  0.6711250E-04  0.0000000E+00  0.7015160E-03
 -0.5050449E-02  0.0000000E+00 -0.5050505E-02 -0.6439424E-04  0.0000000E+00  0.7044094E-03
 -0.5050376E-02  0.0000000E+00 -0.5050505E-02 -0.4782996E-04  0.0000000E+00  0.5835107E-03
 -0.5050299E-02  0.0000000E+00 -0.5050505E-02 -0.3208922E-04  0.0000000E+00  0.4982976E-03
 -0.5050178E-02  0.0000000E+00 -0.5050505E-02 -0.2450337E-04  0.0000000E+00  0.4384122E-03
 -0.5050018E-02  0.0000000E+00 -0.5050505E-02 -0.2027867E-04  0.0000000E+00  0.3913010E-03
 -0.5049710E-02  0.0000000E+00 -0.5050505E-02 -0.1751898E-04  0.0000000E+00  0.3517299E-03
 -0.5049253E-02  0.0000000E+00 -0.5050505E-02 -0.1550432E-04  0.0000000E+00  0.3173022E-03
 -0.5048636E-02  0.0000000E+00 -0.5050505E-02 -0.1393452E-04  0.0000000E+00  0.2867256E-03
 -0.5047442E-02  0.0000000E+00 -0.5050505E-02 -0.1265957E-04  0.0000000E+00  0.2591960E-03
 -0.5045727E-02  0.0000000E+00 -0.5050505E-02 -0.1159291E-04  0.0000000E+00  0.2341668E-03
 -0.5043261E-02  0.0000000E+00 -0.5050505E-02 -0.1068023E-04  0.0000000E+00  0.2112444E-03
 -0.5038714E-02  0.0000000E+00 -0.5050505E-02 -0.9885336E-05  0.0000000E+00  0.1901337E-03
 -0.5032318E-02  0.0000000E+00 -0.5050505E-02 -0.9182621E-05  0.0000000E+00  0.1706069E-03
 -0.5022454E-02  0.0000000E+00 -0.5050505E-02 -0.8553062E-05  0.0000000E+00  0.1524844E-03
 -0.5012589E-02  0.0000000E+00 -0.5050505E-02 -0.7982087E-05  0.0000000E+00  0.1356234E-03
 -0.5002725E-02  0.0000000E+00 -0.5050505E-02 -0.7458395E-05  0.0000000E+00  0.1199088E-03
 -0.4992860E-02  0.0000000E+00 -0.5050505E-02 -0.6973215E-05  0.0000000E+00  0.1052472E-03
 -0.4976523E-02  0.0000000E+00 -0.5050505E-02 -0.6519776E-05  0.0000000E+00  0.9156215E-04
 -0.4956794E-02  0.0000000E+00 -0.5050505E-02 -0.6092882E-05  0.0000000E+00  0.7878986E-04
 -0.4937066E-02  0.0000000E+00 -0.5050505E-02 -0.5688551E-05  0.0000000E+00  0.6687669E-04
 -0.4906239E-02  0.0000000E+00 -0.5050505E-02 -0.5303723E-05  0.0000000E+00  0.5577657E-04
 -0.4866782E-02  0.0000000E+00 -0.5050505E-02 -0.4936016E-05  0.0000000E+00  0.4544942E-04
 -0.4827325E-02  0.0000000E+00 -0.5050505E-02 -0.4583546E-05  0.0000000E+00  0.3585986E-04
 -0.4769372E-02  0.0000000E+00 -0.5050505E-02 -0.4244782E-05  0.0000000E+00  0.2697629E-04
 -0.4690458E-02  0.0000000E+00 -0.5050505E-02 -0.3918451E-05  0.0000000E+00  0.1877022E-04
 -0.4611543E-02  0.0000000E+00 -0.5050505E-02 -0.3603458E-05  0.0000000E+00  0.1121583E-04
 -0.4503035E-02  0.0000000E+00 -0.5050505E-02 -0.3298865E-05  0.0000000E+00  0.4289588E-05
 -0.4345206E-02  0.0000000E+00 -0.5050505E-02 -0.3003839E-05  0.0000000E+00 -0.2024275E-05
 -0.4187378E-02  0.0000000E+00 -0.5050505E-02 -0.2717491E-05  0.0000000E+00 -0.7748409E-05
 -0.3985156E-02  0.0000000E+00 -0.5050505E-02 -0.2439524E-05  0.0000000E+00 -0.1291023E-04
 -0.3669499E-02  0.0000000E+00 -0.5050505E-02 -0.2169567E-05  0.0000000E+00 -0.1752654E-04
 -0.3353842E-02  0.0000000E+00 -0.5050505E-02 -0.1907663E-05  0.0000000E+00 -0.2161247E-04
 -0.2978990E-02  0.0000000E+00 -0.5050505E-02 -0.1654713E-05  0.0000000E+00 -0.2518423E-04
 -0.2347676E-02  0.0000000E+00 -0.5050505E-02 -0.1413596E-05  0.0000000E+00 -0.2826196E-04
 -0.1716362E-02  0.0000000E+00 -0.5050505E-02 -0.1192264E-05  0.0000000E+00 -0.3087680E-04
 -0.1025842E-02  0.0000000E+00 -0.5050505E-02 -0.1013111E-05  0.0000000E+00 -0.3309049E-04
  0.2367855E-03  0.0000000E+00 -0.5050505E-02 -0.9439546E-06  0.0000000E+00 -0.3505548E-04
  0.1499413E-02  0.0000000E+00 -0.5050505E-02 -0.1209474E-05  0.0000000E+00 -0.3721819E-04
  0.5287294E-02  0.0000000E+00 -0.5050505E-02 -0.1359957E-04  0.0000000E+00 -0.3009287E-04
 -0.5050505E-02  0.0000000E+00 -0.5050505E-02  0.1026072E-06  0.0000000E+00 -0.1450264E-03
 -0.5050505E-02  0.0000000E+00 -0.5050505E-02  0.3079551E-06  0.0000000E+00 -0.1448869E-03
 -0.5050505E-02  0.0000000E+00 -0.5050505E-02  0.5137066E-06  0.0000000E+00 -0.1446078E-03
 -0.5050505E-02  0.0000000E+00 -0.5050505E-02  0.7201371E-06  0.0000000E+00 -0.1441886E-03
 -0.5050505E-02  0.0000000E+00 -0.5050505E-02  0.9275295E-06  0.0000000E+00 -0.1436290E-03
 -0.5050505E-02  0.0000000E+00 -0.5050505E-02  0.1136175E-05  0.0000000E+00 -0.1429280E-03
 -0.5050504E-02  0.0000000E+00 -0.5050505E-02  0.1346379E-05  0.0000000E+00 -0.1420850E-03
 -0.5050501E-02  0.0000000E+00 -0.5050505E-02  0.1558457E-05  0.0000000E+00 -0.1410986E-03
 -0.5050495E-02  0.0000000E+00 -0.5050505E-02  0.1772744E-05  0.0000000E+00 -0.1399676E-03
 -0.5050482E-02  0.0000000E+00 -0.5050505E-02  0.1989597E-05  0.0000000E+00 -0.1386905E-03
 -0.5050449E-02  0.0000000E+00 -0.5050505E-02  0.2209393E-05  0.0000000E+00 -0.1372654E-03
 -0.5050376E-02  0.0000000E+00 -0.5050505E-02  0.2432542E-05  0.0000000E+00 -0.1356903E-03
 -0.5050299E-02  0.0000000E+00 -0.5050505E-02  0.2659483E-05  0.0000000E+00 -0.1339629E-03
 -0.5050178E-02  0.0000000E+00 -0.5050505E-02  0.2890694E-05  0.0000000E+00 -0.1320805E-03
 -0.5050018E-02  0.0000000E+00 -0.5050505E-02  0.3126697E-05  0.0000000E+00 -0.1300403E-03
 -0.5049710E-02  0.0000000E+00 -0.5050505E-02  0.3368067E-05  0.0000000E+00 -0.1278388E-03
 -0.5049253E-02  0.0000000E+00 -0.5050505E-02  0.3615434E-05  0.0000000E+00 -0.1254724E-03
 -0.5048636E-02  0.0000000E+00 -0.5050505E-02  0.3869497E-05  0.0000000E+00 -0.1229370E-03
 -0.5047442E-02  0.0000000E+00 -0.5050505E-02  0.4131032E-05  0.0000000E+00 -0.1202279E-03
 -0.5045727E-02  0.0000000E+00 -0.5050505E-02  0.4400905E-05  0.0000000E+00 -0.1173401E-03
 -0.5043261E-02  0.0000000E+00 -0.5050505E-02  0.4680084E-05  0.0000000E+00 -0.1142676E-03
 -0.5038714E-02  0.0000000E+00 -0.5050505E-02  0.4969654E-05  0.0000000E+00 -0.1110042E-03
 -0.5032318E-02  0.0000000E+00 -0.5050505E-02  0.5270837E-05  0.0000000E+00 -0.1075427E-03
 -0.5022454E-02  0.0000000E+00 -0.5050505E-02  0.5585010E-05  0.0000000E+00 -0.1038750E-03
 -0.5012589E-02  0.0000000E+00 -0.5050505E-02  0.5913731E-05  0.0000000E+00 -0.9999227E-04
 -0.5002725E-02  0.0000000E+00 -0.5050505E-02  0.6258762E-05  0.0000000E+00 -0.9588437E-04
 -0.4992860E-02  0.0000000E+00 -0.5050505E-02  0.6622106E-05  0.0000000E+00 -0.9154009E-04
 -0.4976523E-02  0.0000000E+00 -0.5050505E-02  0.7006038E-05  0.0000000E+00 -0.8694679E-04
 -0.4956794E-02  0.0000000E+00 -0.5050505E-02  0.7413148E-05  0.0000000E+00 -0.8209024E-04
 -0.4937066E-02  0.0000000E+00 -0.5050505E-02  0.7846388E-05  0.0000000E+00 -0.7695445E-04
 -0.4906239E-02  0.0000000E+00 -0.5050505E-02  0.8309129E-05  0.0000000E+00 -0.7152138E-04
 -0.4866782E-02  0.0000000E+00 -0.5050505E-02  0.8805218E-05  0.0000000E+00 -0.6577068E-04
 -0.4827325E-02  0.0000000E+00 -0.5050505E-02  0.9339054E-05  0.0000000E+00 -0.5967933E-04
 -0.4769372E-02  0.0000000E+00 -0.5050505E-02  0.9915669E-05  0.0000000E+00 -0.5322132E-04
 -0.4690458E-02  0.0000000E+00 -0.5050505E-02  0.1054081E-04  0.0000000E+00 -0.4636716E-04
 -0.4611543E-02  0.0000000E+00 -0.5050505E-02  0.1122107E-04  0.0000000E+00 -0.3908345E-04
 -0.4503035E-02  0.0000000E+00 -0.5050505E-02  0.1196396E-04  0.0000000E+00 -0.3133231E-04
 -0.4345206E-02  0.0000000E+00 -0.5050505E-02  0.1277808E-04  0.0000000E+00 -0.2307075E-04
 -0.4187378E-02  0.0000000E+00 -0.5050505E-02  0.1367323E-04  0.0000000E+00 -0.1424996E-04
 -0.3985156E-02  0.0000000E+00 -0.5050505E-02  0.1466057E-04  0.0000000E+00 -0.4814470E-05
 -0.3669499E-02  0.0000000E+00 -0.5050505E-02  0.1575254E-04  0.0000000E+00  0.5320503E-05
 -0.3353842E-02  0.0000000E+00 -0.5050505E-02  0.1696391E-04  0.0000000E+00  0.1624291E-04
 -0.2978990E-02  0.0000000E+00 -0.5050505E-02  0.1831133E-04  0.0000000E+00  0.2803238E-04
 -0.2347676E-02  0.0000000E+00 -0.5050505E-02  0.1981369E-04  0.0000000E+00  0.4078946E-04
 -0.1716362E-02  0.0000000E+00 -0.5050505E-02  0.2149246E-04  0.0000000E+00  0.5462899E-04
 -0.1025842E-02  0.0000000E+00 -0.5050505E-02  0.2337210E-04  0.0000000E+00  0.6968209E-04
  0.2367855E-03  0.0000000E+00 -0.5050505E-02  0.2548082E-04  0.0000000E+00  0.8609851E-04
  0.1499413E-02  0.0000000E+00 -0.5050505E-02  0.2785202E-04  0.0000000E+00  0.1040495E-03
  0.2762042E-02  0.0000000E+00 -0.5050505E-02  0.3052681E-04  0.0000000E+00  0.1237319E-03
 -0.5050505E-02  0.0000000E+00 -0.5050505E-02  0.3355905E-04  0.0000000E+00  0.1453737E-03
 -0.5050505E-02  0.0000000E+00 -0.5050505E-02  0.3702451E-04  0.0000000E+00  0.1692443E-03
 -0.5050505E-02  0.0000000E+00 -0.5050505E-02  0.4103771E-04  0.0000000E+00  0.1956703E-03
 -0.5050505E-02  0.0000000E+00 -0.5050505E-02  0.4578255E-04  0.0000000E+00  0.2250637E-03
 -0.5050505E-02  0.0000000E+00 -0.5050505E-02  0.5156869E-04  0.0000000E+00  0.2579693E-03
 -0.5050505E-02  0.0000000E+00 -0.5050505E-02  0.5894040E-04  0.0000000E+00  0.2951416E-03
 -0.5050505E-02  0.0000000E+00 -0.5050505E-02  0.6890292E-04  0.0000000E+00  0.3376656E-03
 -0.5050504E-02  0.0000000E+00 -0.5050505E-02  0.8343566E-04  0.0000000E+00  0.3871366E-03
 -0.5050501E-02  0.0000000E+00 -0.5050505E-02  0.1067616E-03  0.0000000E+00  0.4459201E-03
 -0.5050495E-02  0.0000000E+00 -0.5050505E-02  0.1487986E-03  0.0000000E+00  0.5176843E-03
 -0.5050482E-02  0.0000000E+00 -0.5050505E-02  0.1845289E-03  0.0000000E+00  0.6108938E-03
 -0.5050449E-02  0.0000000E+00 -0.5050505E-02 -0.1760330E-03  0.0000000E+00  0.6140632E-03
 -0.5050376E-02  0.0000000E+00 -0.5050505E-02 -0.1239192E-03  0.0000000E+00  0.5336797E-03
 -0.5050299E-02  0.0000000E+00 -0.5050505E-02 -0.8873210E-04  0.0000000E+00  0.4776646E-03
 -0.5050178E-02  0.0000000E+00 -0.5050505E-02 -0.7042671E-04  0.0000000E+00  0.4291241E-03
 -0.5050018E-02  0.0000000E+00 -0.5050505E-02 -0.5952342E-04  0.0000000E+00  0.3866773E-03
 -0.5049710E-02  0.0000000E+00 -0.5050505E-02 -0.5191511E-04  0.0000000E+00  0.3491642E-03
 -0.5049253E-02  0.0000000E+00 -0.5050505E-02 -0.4614760E-04  0.0000000E+00  0.3157848E-03
 -0.5048636E-02  0.0000000E+00 -0.5050505E-02 -0.4157384E-04  0.0000000E+00  0.2858173E-03
 -0.5047442E-02  0.0000000E+00 -0.5050505E-02 -0.3782543E-04  0.0000000E+00  0.2586712E-03
 -0.5045727E-02  0.0000000E+00 -0.5050505E-02 -0.3467192E-04  0.0000000E+00  0.2338949E-03
 -0.5043261E-02  0.0000000E+00 -0.5050505E-02 -0.3196380E-04  0.0000000E+00  0.2111445E-03
 -0.5038714E-02  0.0000000E+00 -0.5050505E-02 -0.2959949E-04  0.0000000E+00  0.1901527E-03
 -0.5032318E-02  0.0000000E+00 -0.5050505E-02 -0.2750592E-04  0.0000000E+00  0.1707082E-03
 -0.5022454E-02  0.0000000E+00 -0.5050505E-02 -0.2562801E-04  0.0000000E+00  0.1526416E-03
 -0.5012589E-02  0.0000000E+00 -0.5050505E-02 -0.2392309E-04  0.0000000E+00  0.1358170E-03
 -0.5002725E-02  0.0000000E+00 -0.5050505E-02 -0.2235790E-04  0.0000000E+00  0.1201246E-03
 -0.4992860E-02  0.0000000E+00 -0.5050505E-02 -0.2090660E-04  0.0000000E+00  0.1054749E-03
 -0.4976523E-02  0.0000000E+00 -0.5050505E-02 -0.1954923E-04  0.0000000E+00  0.9179446E-04
 -0.4956794E-02  0.0000000E+00 -0.5050505E-02 -0.1827052E-04  0.0000000E+00  0.7902208E-04
 -0.4937066E-02  0.0000000E+00 -0.5050505E-02 -0.1705880E-04  0.0000000E+00  0.6710579E-04
 -0.4906239E-02  0.0000000E+00 -0.5050505E-02 -0.1590508E-04  0.0000000E+00  0.5600085E-04
 -0.4866782E-02  0.0000000E+00 -0.5050505E-02 -0.1480239E-04  0.0000000E+00  0.4566808E-04
 -0.4827325E-02  0.0000000E+00 -0.5050505E-02 -0.1374520E-04  0.0000000E+00  0.3607272E-04
 -0.4769372E-02  0.0000000E+00 -0.5050505E-02 -0.1272901E-04  0.0000000E+00  0.2718355E-04
 -0.4690458E-02  0.0000000E+00 -0.5050505E-02 -0.1175005E-04  0.0000000E+00  0.1897236E-04
 -0.4611543E-02  0.0000000E+00 -0.5050505E-02 -0.1080509E-04  0.0000000E+00  0.1141347E-04
 -0.4503035E-02  0.0000000E+00 -0.5050505E-02 -0.9891305E-05  0.0000000E+00  0.4483439E-05
 -0.4345206E-02  0.0000000E+00 -0.5050505E-02 -0.9006200E-05  0.0000000E+00 -0.1833568E-05
 -0.4187378E-02  0.0000000E+00 -0.5050505E-02 -0.8147058E-05  0.0000000E+00 -0.7559765E-05
 -0.3985156E-02  0.0000000E+00 -0.5050505E-02 -0.7312908E-05  0.0000000E+00 -0.1272214E-04
 -0.3669499E-02  0.0000000E+00 -0.5050505E-02 -0.6502432E-05  0.0000000E+00 -0.1733722E-04
 -0.3353842E-02  0.0000000E+00 -0.5050505E-02 -0.5715296E-05  0.0000000E+00 -0.2141891E-04
 -0.2978990E-02  0.0000000E+00 -0.5050505E-02 -0.4953039E-05  0.0000000E+00 -0.2498057E-04
 -0.2347676E-02  0.0000000E+00 -0.5050505E-02 -0.4221129E-05  0.0000000E+00 -0.2803517E-04
 -0.1716362E-02  0.0000000E+00 -0.5050505E-02 -0.3533920E-05  0.0000000E+00 -0.3059398E-04
 -0.1025842E-02  0.0000000E+00 -0.5050505E-02 -0.2927244E-05  0.0000000E+00 -0.3265792E-04
  0.2367855E-03  0.0000000E+00 -0.5050505E-02 -0.2492150E-05  0.0000000E+00 -0.3417451E-04
  0.1499413E-02  0.0000000E+00 -0.5050505E-02 -0.2468840E-05  0.0000000E+00 -0.3483747E-04
  0.5287294E-02  0.0000000E+00 -0.5050505E-02 -0.3514305E-05  0.0000000E+00 -0.3316251E-04
 -0.5050505E-02  0.0000000E+00 -0.5050505E-02  0.1709238E-06  0.0000000E+00 -0.1446053E-03
 -0.5050505E-02  0.0000000E+00 -0.5050505E-02  0.5129941E-06  0.0000000E+00 -0.1444656E-03
 -0.5050505E-02  0.0000000E+00 -0.5050505E-02  0.8557369E-06  0.0000000E+00 -0.1441858E-03
 -0.5050505E-02  0.0000000E+00 -0.5050505E-02  0.1199610E-05  0.0000000E+00 -0.1437658E-03
 -0.5050505E-02  0.0000000E+00 -0.5050505E-02  0.1545083E-05  0.0000000E+00 -0.1432050E-03
 -0.5050505E-02  0.0000000E+00 -0.5050505E-02  0.1892641E-05  0.0000000E+00 -0.1425026E-03
 -0.5050504E-02  0.0000000E+00 -0.5050505E-02  0.2242787E-05  0.0000000E+00 -0.1416579E-03
 -0.5050501E-02  0.0000000E+00 -0.5050505E-02  0.2596049E-05  0.0000000E+00 -0.1406696E-03
 -0.5050495E-02  0.0000000E+00 -0.5050505E-02  0.2952981E-05  0.0000000E+00 -0.1395364E-03
 -0.5050482E-02  0.0000000E+00 -0.5050505E-02  0.3314174E-05  0.0000000E+00 -0.1382569E-03
 -0.5050449E-02  0.0000000E+00 -0.5050505E-02  0.3680255E-05  0.0000000E+00 -0.1368292E-03
 -0.5050376E-02  0.0000000E+00 -0.5050505E-02  0.4051902E-05  0.0000000E+00 -0.1352513E-03
 -0.5050299E-02  0.0000000E+00 -0.5050505E-02  0.4429843E-05  0.0000000E+00 -0.1335209E-03
 -0.5050178E-02  0.0000000E+00 -0.5050505E-02  0.4814872E-05  0.0000000E+00 -0.1316355E-03
 -0.5050018E-02  0.0000000E+00 -0.5050505E-02  0.5207853E-05  0.0000000E+00 -0.1295920E-03
 -0.5049710E-02  0.0000000E+00 -0.5050505E-02  0.5609736E-05  0.0000000E+00 -0.1273873E-03
 -0.5049253E-02  0.0000000E+00 -0.5050505E-02  0.6021567E-05  0.0000000E+00 -0.1250177E-03
 -0.5048636E-02  0.0000000E+00 -0.5050505E-02  0.6444503E-05  0.0000000E+00 -0.1224791E-03
 -0.5047442E-02  0.0000000E+00 -0.5050505E-02  0.6879828E-05  0.0000000E+00 -0.1197670E-03
 -0.5045727E-02  0.0000000E+00 -0.5050505E-02  0.7328976E-05  0.0000000E+00 -0.1168762E-03
 -0.5043261E-02  0.0000000E+00 -0.5050505E-02  0.7793546E-05  0.0000000E+00 -0.1138011E-03
 -0.5038714E-02  0.0000000E+00 -0.5050505E-02  0.8275337E-05  0.0000000E+00 -0.1105354E-03
 -0.5032318E-02  0.0000000E+00 -0.5050505E-02  0.8776368E-05  0.0000000E+00 -0.1070721E-03
 -0.5022454E-02  0.0000000E+00 -0.5050505E-02  0.9298917E-05  0.0000000E+00 -0.1034033E-03
 -0.5012589E-02  0.0000000E+00 -0.5050505E-02  0.9845559E-05  0.0000000E+00 -0.9952016E-04
 -0.5002725E-02  0.0000000E+00 -0.5050505E-02  0.1041921E-04  0.0000000E+00 -0.9541283E-04
 -0.4992860E-02  0.0000000E+00 -0.5050505E-02  0.1102318E-04  0.0000000E+00 -0.9107027E-04
 -0.4976523E-02  0.0000000E+00 -0.5050505E-02  0.1166123E-04  0.0000000E+00 -0.8648010E-04
 -0.4956794E-02  0.0000000E+00 -0.5050505E-02  0.1233765E-04  0.0000000E+00 -0.8162836E-04
 -0.4937066E-02  0.0000000E+00 -0.5050505E-02  0.1305731E-04  0.0000000E+00 -0.7649939E-04
 -0.4906239E-02  0.0000000E+00 -0.5050505E-02  0.1382579E-04  0.0000000E+00 -0.7107551E-04
 -0.4866782E-02  0.0000000E+00 -0.5050505E-02  0.1464944E-04  0.0000000E+00 -0.6533681E-04
 -0.4827325E-02  0.0000000E+00 -0.5050505E-02  0.1553556E-04  0.0000000E+00 -0.5926076E-04
 -0.4769372E-02  0.0000000E+00 -0.5050505E-02  0.1649245E-04  0.0000000E+00 -0.5282190E-04
 -0.4690458E-02  0.0000000E+00 -0.5050505E-02  0.1752964E-04  0.0000000E+00 -0.4599142E-04
 -0.4611543E-02  0.0000000E+00 -0.5050505E-02  0.1865802E-04  0.0000000E+00 -0.3873663E-04
 -0.4503035E-02  0.0000000E+00 -0.5050505E-02  0.1989005E-04  0.0000000E+00 -0.3102050E-04
 -0.4345206E-02  0.0000000E+00 -0.5050505E-02  0.2123997E-04  0.0000000E+00 -0.2280098E-04
 -0.4187378E-02  0.0000000E+00 -0.5050505E-02  0.2272403E-04  0.0000000E+00 -0.1403034E-04
 -0.3985156E-02  0.0000000E+00 -0.5050505E-02  0.2436076E-04  0.0000000E+00 -0.4654106E-05
 -0.3669499E-02  0.0000000E+00 -0.5050505E-02  0.2617077E-04  0.0000000E+00  0.5410933E-05
 -0.3353842E-02  0.0000000E+00 -0.5050505E-02  0.2817855E-04  0.0000000E+00  0.1625084E-04
 -0.2978990E-02  0.0000000E+00 -0.5050505E-02  0.3041175E-04  0.0000000E+00  0.2794355E-04
 -0.2347676E-02  0.0000000E+00 -0.5050505E-02  0.3290168E-04  0.0000000E+00  0.4058764E-04
 -0.1716362E-02  0.0000000E+00 -0.5050505E-02  0.3568378E-04  0.0000000E+00  0.5429558E-04
 -0.1025842E-02  0.0000000E+00 -0.5050505E-02  0.3879815E-04  0.0000000E+00  0.6919550E-04
  0.2367855E-03  0.0000000E+00 -0.5050505E-02  0.4229051E-04  0.0000000E+00  0.8543291E-04
  0.1499413E-02  0.0000000E+00 -0.5050505E-02  0.4621379E-04  0.0000000E+00  0.1031724E-03
  0.2762042E-02  0.0000000E+00 -0.5050505E-02  0.5063134E-04  0.0000000E+00  0.1225995E-03
 -0.5050505E-02  0.0000000E+00 -0.5050505E-02  0.5562307E-04  0.0000000E+00  0.1439221E-03
 -0.5050505E-02  0.0000000E+00 -0.5050505E-02  0.6129723E-04  0.0000000E+00  0.1673732E-03
 -0.5050505E-02  0.0000000E+00 -0.5050505E-02  0.6781194E-04  0.0000000E+00  0.1932138E-03
 -0.5050505E-02  0.0000000E+00 -0.5050505E-02  0.7541327E-04  0.0000000E+00  0.2217378E-03
 -0.5050505E-02  0.0000000E+00 -0.5050505E-02  0.8450047E-04  0.0000000E+00  0.2532755E-03
 -0.5050505E-02  0.0000000E+00 -0.5050505E-02  0.9573678E-04  0.0000000E+00  0.2881794E-03
 -0.5050505E-02  0.0000000E+00 -0.5050505E-02  0.1102423E-03  0.0000000E+00  0.3267360E-03
 -0.5050504E-02  0.0000000E+00 -0.5050505E-02  0.1299418E-03  0.0000000E+00  0.3688128E-03
 -0.5050501E-02  0.0000000E+00 -0.5050505E-02  0.1581651E-03  0.0000000E+00  0.4125522E-03
 -0.5050495E-02  0.0000000E+00 -0.5050505E-02  0.2003290E-03  0.0000000E+00  0.4492072E-03
 -0.5050482E-02  0.0000000E+00 -0.5050505E-02  0.2369596E-03  0.0000000E+00  0.4665833E-03
 -0.5050449E-02  0.0000000E+00 -0.5050505E-02 -0.2087375E-03  0.0000000E+00  0.4839055E-03
 -0.5050376E-02  0.0000000E+00 -0.5050505E-02 -0.1654011E-03  0.0000000E+00  0.4845132E-03
 -0.5050299E-02  0.0000000E+00 -0.5050505E-02 -0.1297494E-03  0.0000000E+00  0.4529710E-03
 -0.5050178E-02  0.0000000E+00 -0.5050505E-02 -0.1095974E-03  0.0000000E+00  0.4168526E-03
 -0.5050018E-02  0.0000000E+00 -0.5050505E-02 -0.9587289E-04  0.0000000E+00  0.3799452E-03
 -0.5049710E-02  0.0000000E+00 -0.5050505E-02 -0.8476857E-04  0.0000000E+00  0.3450446E-03
 -0.5049253E-02  0.0000000E+00 -0.5050505E-02 -0.7583961E-04  0.0000000E+00  0.3132184E-03
 -0.5048636E-02  0.0000000E+00 -0.5050505E-02 -0.6859232E-04  0.0000000E+00  0.2842616E-03
 -0.5047442E-02  0.0000000E+00 -0.5050505E-02 -0.6257231E-04  0.0000000E+00  0.2577866E-03
 -0.5045727E-02  0.0000000E+00 -0.5050505E-02 -0.5745878E-04  0.0000000E+00  0.2334637E-03
 -0.5043261E-02  0.0000000E+00 -0.5050505E-02 -0.5303812E-04  0.0000000E+00  0.2110261E-03
 -0.5038714E-02  0.0000000E+00 -0.5050505E-02 -0.4916170E-04  0.0000000E+00  0.1902526E-03
 -0.5032318E-02  0.0000000E+00 -0.5050505E-02 -0.4571889E-04  0.0000000E+00  0.1709590E-03
 -0.5022454E-02  0.0000000E+00 -0.5050505E-02 -0.4262363E-04  0.0000000E+00  0.1529941E-03
 -0.5012589E-02  0.0000000E+00 -0.5050505E-02 -0.3980791E-04  0.0000000E+00  0.1362344E-03
 -0.5002725E-02  0.0000000E+00 -0.5050505E-02 -0.3721820E-04  0.0000000E+00  0.1205798E-03
 -0.4992860E-02  0.0000000E+00 -0.5050505E-02 -0.3481284E-04  0.0000000E+00  0.1059484E-03
 -0.4976523E-02  0.0000000E+00 -0.5050505E-02 -0.3255981E-04  0.0000000E+00  0.9227300E-04
 -0.4956794E-02  0.0000000E+00 -0.5050505E-02 -0.3043467E-04  0.0000000E+00  0.7949680E-04
 -0.4937066E-02  0.0000000E+00 -0.5050505E-02 -0.2841883E-04  0.0000000E+00  0.6757138E-04
 -0.4906239E-02  0.0000000E+00 -0.5050505E-02 -0.2649803E-04  0.0000000E+00  0.5645448E-04
 -0.4866782E-02  0.0000000E+00 -0.5050505E-02 -0.2466120E-04  0.0000000E+00  0.4610863E-04
 -0.4827325E-02  0.0000000E+00 -0.5050505E-02 -0.2289951E-04  0.0000000E+00  0.3650021E-04
 -0.4769372E-02  0.0000000E+00 -0.5050505E-02 -0.2120577E-04  0.0000000E+00  0.2759870E-04
 -0.4690458E-02  0.0000000E+00 -0.5050505E-02 -0.1957388E-04  0.0000000E+00  0.1937633E-04
 -0.4611543E-02  0.0000000E+00 -0.5050505E-02 -0.1799855E-04  0.0000000E+00  0.1180765E-04
 -0.4503035E-02  0.0000000E+00 -0.5050505E-02 -0.1647515E-04  0.0000000E+00  0.4869364E-05
 -0.4345206E-02  0.0000000E+00 -0.5050505E-02 -0.1499948E-04  0.0000000E+00 -0.1454575E-05
 -0.4187378E-02  0.0000000E+00 -0.5050505E-02 -0.1356688E-04  0.0000000E+00 -0.7185600E-05
 -0.3985156E-02  0.0000000E+00 -0.5050505E-02 -0.1217552E-04  0.0000000E+00 -0.1235001E-04
 -0.3669499E-02  0.0000000E+00 -0.5050505E-02 -0.1082268E-04  0.0000000E+00 -0.1696420E-04
 -0.3353842E-02  0.0000000E+00 -0.5050505E-02 -0.9506692E-05  0.0000000E+00 -0.2104060E-04
 -0.2978990E-02  0.0000000E+00 -0.5050505E-02 -0.8227590E-05  0.0000000E+00 -0.2458963E-04
 -0.2347676E-02  0.0000000E+00 -0.5050505E-02 -0.6988333E-05  0.0000000E+00 -0.2761838E-04
 -0.1716362E-02  0.0000000E+00 -0.5050505E-02 -0.5796780E-05  0.0000000E+00 -0.3012693E-04
 -0.1025842E-02  0.0000000E+00 -0.5050505E-02 -0.4667871E-05  0.0000000E+00 -0.3209855E-04
  0.2367855E-03  0.0000000E+00 -0.5050505E-02 -0.3620556E-05  0.0000000E+00 -0.3347716E-04
  0.1499413E-02  0.0000000E+00 -0.5050505E-02 -0.2639608E-05  0.0000000E+00 -0.3413278E-04
  0.5287294E-02  0.0000000E+00 -0.5050505E-02 -0.1460612E-05  0.0000000E+00 -0.3393540E-04
 -0.5050505E-02  0.0000000E+00 -0.5050505E-02  0.2392412E-06  0.0000000E+00 -0.1439836E-03
 -0.5050505E-02  0.0000000E+00 -0.5050505E-02  0.7180350E-06  0.0000000E+00 -0.1438433E-03
 -0.5050505E-02  0.0000000E+00 -0.5050505E-02  0.1197768E-05  0.0000000E+00 -0.1435627E-03
 -0.5050505E-02  0.0000000E+00 -0.5050505E-02  0.1679080E-05  0.0000000E+00 -0.1431414E-03
 -0.5050505E-02  0.0000000E+00 -0.5050505E-02  0.2162624E-05  0.0000000E+00 -0.1425789E-03
 -0.5050505E-02  0.0000000E+00 -0.5050505E-02  0.2649075E-05  0.0000000E+00 -0.1418744E-03
 -0.5050504E-02  0.0000000E+00 -0.5050505E-02  0.3139135E-05  0.0000000E+00 -0.1410271E-03
 -0.5050501E-02  0.0000000E+00 -0.5050505E-02  0.3633537E-05  0.0000000E+00 -0.1400358E-03
 -0.5050495E-02  0.0000000E+00 -0.5050505E-02  0.4133054E-05  0.0000000E+00 -0.1388994E-03
 -0.5050482E-02  0.0000000E+00 -0.5050505E-02  0.4638505E-05  0.0000000E+00 -0.1376162E-03
 -0.5050449E-02  0.0000000E+00 -0.5050505E-02  0.5150766E-05  0.0000000E+00 -0.1361846E-03
 -0.5050376E-02  0.0000000E+00 -0.5050505E-02  0.5670775E-05  0.0000000E+00 -0.1346025E-03
 -0.5050299E-02  0.0000000E+00 -0.5050505E-02  0.6199546E-05  0.0000000E+00 -0.1328677E-03
 -0.5050178E-02  0.0000000E+00 -0.5050505E-02  0.6738180E-05  0.0000000E+00 -0.1309776E-03
 -0.5050018E-02  0.0000000E+00 -0.5050505E-02  0.7287878E-05  0.0000000E+00 -0.1289294E-03
 -0.5049710E-02  0.0000000E+00 -0.5050505E-02  0.7849958E-05  0.0000000E+00 -0.1267198E-03
 -0.5049253E-02  0.0000000E+00 -0.5050505E-02  0.8425870E-05  0.0000000E+00 -0.1243453E-03
 -0.5048636E-02  0.0000000E+00 -0.5050505E-02  0.9017219E-05  0.0000000E+00 -0.1218018E-03
 -0.5047442E-02  0.0000000E+00 -0.5050505E-02  0.9625786E-05  0.0000000E+00 -0.1190849E-03
 -0.5045727E-02  0.0000000E+00 -0.5050505E-02  0.1025356E-04  0.0000000E+00 -0.1161897E-03
 -0.5043261E-02  0.0000000E+00 -0.5050505E-02  0.1090275E-04  0.0000000E+00 -0.1131105E-03
 -0.5038714E-02  0.0000000E+00 -0.5050505E-02  0.1157585E-04  0.0000000E+00 -0.1098413E-03
 -0.5032318E-02  0.0000000E+00 -0.5050505E-02  0.1227565E-04  0.0000000E+00 -0.1063751E-03
 -0.5022454E-02  0.0000000E+00 -0.5050505E-02  0.1300532E-04  0.0000000E+00 -0.1027044E-03
 -0.5012589E-02  0.0000000E+00 -0.5050505E-02  0.1376841E-04  0.0000000E+00 -0.9882037E-04
 -0.5002725E-02  0.0000000E+00 -0.5050505E-02  0.1456896E-04  0.0000000E+00 -0.9471360E-04
 -0.4992860E-02  0.0000000E+00 -0.5050505E-02  0.1541155E-04  0.0000000E+00 -0.9037329E-04
 -0.4976523E-02  0.0000000E+00 -0.5050505E-02  0.1630138E-04  0.0000000E+00 -0.8578740E-04
 -0.4956794E-02  0.0000000E+00 -0.5050505E-02  0.1724438E-04  0.0000000E+00 -0.8094242E-04
 -0.4937066E-02  0.0000000E+00 -0.5050505E-02  0.1824730E-04  0.0000000E+00 -0.7582313E-04