title = "dataset feddes"
variables = "x", "y", "z", "vx", "vy", "vz"
zone t = "velocities, solution time =  4.600E+01 days        " i =   99, j =   99, k =    1,  f=point
 -0.5050505E-02  0.0000000E+00 -0.5050505E-02  0.4458428E-07  0.0000000E+00 -0.9977966E-04
 -0.5050505E-02  0.0000000E+00 -0.5050505E-02  0.1338260E-06  0.0000000E+00 -0.9959908E-04
 -0.5050505E-02  0.0000000E+00 -0.5050505E-02  0.2232894E-06  0.0000000E+00 -0.9923765E-04
 -0.5050505E-02  0.0000000E+00 -0.5050505E-02  0.3131265E-06  0.0000000E+00 -0.9869479E-04
 -0.5050505E-02  0.0000000E+00 -0.5050505E-02  0.4034939E-06  0.0000000E+00 -0.9796962E-04
 -0.5050505E-02  0.0000000E+00 -0.5050505E-02  0.4945538E-06  0.0000000E+00 -0.9706095E-04
 -0.5050504E-02  0.0000000E+00 -0.5050505E-02  0.5864753E-06  0.0000000E+00 -0.9596728E-04
 -0.5050501E-02  0.0000000E+00 -0.5050505E-02  0.6794364E-06  0.0000000E+00 -0.9468677E-04
 -0.5050495E-02  0.0000000E+00 -0.5050505E-02  0.7736257E-06  0.0000000E+00 -0.9321720E-04
 -0.5050482E-02  0.0000000E+00 -0.5050505E-02  0.8692441E-06  0.0000000E+00 -0.9155600E-04
 -0.5050449E-02  0.0000000E+00 -0.5050505E-02  0.9665072E-06  0.0000000E+00 -0.8970018E-04
 -0.5050376E-02  0.0000000E+00 -0.5050505E-02  0.1065648E-05  0.0000000E+00 -0.8764632E-04
 -0.5050299E-02  0.0000000E+00 -0.5050505E-02  0.1166920E-05  0.0000000E+00 -0.8539051E-04
 -0.5050178E-02  0.0000000E+00 -0.5050505E-02  0.1270598E-05  0.0000000E+00 -0.8292835E-04
 -0.5050018E-02  0.0000000E+00 -0.5050505E-02  0.1376985E-05  0.0000000E+00 -0.8025485E-04
 -0.5049710E-02  0.0000000E+00 -0.5050505E-02  0.1486416E-05  0.0000000E+00 -0.7736443E-04
 -0.5049253E-02  0.0000000E+00 -0.5050505E-02  0.1599258E-05  0.0000000E+00 -0.7425081E-04
 -0.5048636E-02  0.0000000E+00 -0.5050505E-02  0.1715921E-05  0.0000000E+00 -0.7090695E-04
 -0.5047442E-02  0.0000000E+00 -0.5050505E-02  0.1836862E-05  0.0000000E+00 -0.6732497E-04
 -0.5045727E-02  0.0000000E+00 -0.5050505E-02  0.1962591E-05  0.0000000E+00 -0.6349607E-04
 -0.5043261E-02  0.0000000E+00 -0.5050505E-02  0.2093681E-05  0.0000000E+00 -0.5941038E-04
 -0.5038714E-02  0.0000000E+00 -0.5050505E-02  0.2230773E-05  0.0000000E+00 -0.5505685E-04
 -0.5032318E-02  0.0000000E+00 -0.5050505E-02  0.2374594E-05  0.0000000E+00 -0.5042312E-04
 -0.5022454E-02  0.0000000E+00 -0.5050505E-02  0.2525963E-05  0.0000000E+00 -0.4549533E-04
 -0.5012589E-02  0.0000000E+00 -0.5050505E-02  0.2685807E-05  0.0000000E+00 -0.4025793E-04
 -0.5002725E-02  0.0000000E+00 -0.5050505E-02  0.2855181E-05  0.0000000E+00 -0.3469346E-04
 -0.4992860E-02  0.0000000E+00 -0.5050505E-02  0.3035280E-05  0.0000000E+00 -0.2878230E-04
 -0.4976523E-02  0.0000000E+00 -0.5050505E-02  0.3227469E-05  0.0000000E+00 -0.2250235E-04
 -0.4956794E-02  0.0000000E+00 -0.5050505E-02  0.3433301E-05  0.0000000E+00 -0.1582874E-04
 -0.4937066E-02  0.0000000E+00 -0.5050505E-02  0.3654551E-05  0.0000000E+00 -0.8733390E-05
 -0.4906239E-02  0.0000000E+00 -0.5050505E-02  0.3893247E-05  0.0000000E+00 -0.1180204E-05
 -0.4866782E-02  0.0000000E+00 -0.5050505E-02  0.4151599E-05  0.0000000E+00  0.6881264E-05
 -0.4827325E-02  0.0000000E+00 -0.5050505E-02  0.4432381E-05  0.0000000E+00  0.1549772E-04
 -0.4769372E-02  0.0000000E+00 -0.5050505E-02  0.4738680E-05  0.0000000E+00  0.2471320E-04
 -0.4690458E-02  0.0000000E+00 -0.5050505E-02  0.5074028E-05  0.0000000E+00  0.3458458E-04
 -0.4611543E-02  0.0000000E+00 -0.5050505E-02  0.5442461E-05  0.0000000E+00  0.4517676E-04
 -0.4503035E-02  0.0000000E+00 -0.5050505E-02  0.5848563E-05  0.0000000E+00  0.5656381E-04
 -0.4345206E-02  0.0000000E+00 -0.5050505E-02  0.6297512E-05  0.0000000E+00  0.6883027E-04
 -0.4187378E-02  0.0000000E+00 -0.5050505E-02  0.6795102E-05  0.0000000E+00  0.8207253E-04
 -0.3985156E-02  0.0000000E+00 -0.5050505E-02  0.7347728E-05  0.0000000E+00  0.9640019E-04
 -0.3669499E-02  0.0000000E+00 -0.5050505E-02  0.7962322E-05  0.0000000E+00  0.1119375E-03
 -0.3353842E-02  0.0000000E+00 -0.5050505E-02  0.8646227E-05  0.0000000E+00  0.1288247E-03
 -0.2978990E-02  0.0000000E+00 -0.5050505E-02  0.9406994E-05  0.0000000E+00  0.1472187E-03
 -0.2347676E-02  0.0000000E+00 -0.5050505E-02  0.1025215E-04  0.0000000E+00  0.1672939E-03
 -0.1716362E-02  0.0000000E+00 -0.5050505E-02  0.1118903E-04  0.0000000E+00  0.1892425E-03
 -0.1025842E-02  0.0000000E+00 -0.5050505E-02  0.1222504E-04  0.0000000E+00  0.2132750E-03
  0.2367855E-03  0.0000000E+00 -0.5050505E-02  0.1336869E-04  0.0000000E+00  0.2396216E-03
  0.1499413E-02  0.0000000E+00 -0.5050505E-02  0.1463242E-04  0.0000000E+00  0.2685389E-03
  0.2762042E-02  0.0000000E+00 -0.5050505E-02  0.1603800E-04  0.0000000E+00  0.3003244E-03
 -0.5050505E-02  0.0000000E+00 -0.5050505E-02  0.1762541E-04  0.0000000E+00  0.3353466E-03
 -0.5050505E-02  0.0000000E+00 -0.5050505E-02  0.1946565E-04  0.0000000E+00  0.3740992E-03
 -0.5050505E-02  0.0000000E+00 -0.5050505E-02  0.2167858E-04  0.0000000E+00  0.4172890E-03
 -0.5050505E-02  0.0000000E+00 -0.5050505E-02  0.2446285E-04  0.0000000E+00  0.4659788E-03
 -0.5050505E-02  0.0000000E+00 -0.5050505E-02  0.2816020E-04  0.0000000E+00  0.5218375E-03
 -0.5050505E-02  0.0000000E+00 -0.5050505E-02  0.3341655E-04  0.0000000E+00  0.5876460E-03
 -0.5050505E-02  0.0000000E+00 -0.5050505E-02  0.4170340E-04  0.0000000E+00  0.6685771E-03
 -0.5050504E-02  0.0000000E+00 -0.5050505E-02  0.5762574E-04  0.0000000E+00  0.7766717E-03
 -0.5050501E-02  0.0000000E+00 -0.5050505E-02  0.7303263E-04  0.0000000E+00  0.9207041E-03
 -0.5050495E-02  0.0000000E+00 -0.5050505E-02  0.7567607E-04  0.0000000E+00  0.1087336E-02
 -0.5050482E-02  0.0000000E+00 -0.5050505E-02  0.9704149E-04  0.0000000E+00  0.1284913E-02
 -0.5050449E-02  0.0000000E+00 -0.5050505E-02 -0.7740110E-04  0.0000000E+00  0.1307113E-02
 -0.5050376E-02  0.0000000E+00 -0.5050505E-02 -0.9655544E-04  0.0000000E+00  0.1108157E-02
 -0.5050299E-02  0.0000000E+00 -0.5050505E-02 -0.6518843E-04  0.0000000E+00  0.9265254E-03
 -0.5050178E-02  0.0000000E+00 -0.5050505E-02 -0.4368834E-04  0.0000000E+00  0.8060568E-03
 -0.5050018E-02  0.0000000E+00 -0.5050505E-02 -0.3313373E-04  0.0000000E+00  0.7219457E-03
 -0.5049710E-02  0.0000000E+00 -0.5050505E-02 -0.2735076E-04  0.0000000E+00  0.6562551E-03
 -0.5049253E-02  0.0000000E+00 -0.5050505E-02 -0.2419696E-04  0.0000000E+00  0.6006492E-03
 -0.5048636E-02  0.0000000E+00 -0.5050505E-02 -0.2233664E-04  0.0000000E+00  0.5507547E-03
 -0.5047442E-02  0.0000000E+00 -0.5050505E-02 -0.2053654E-04  0.0000000E+00  0.5050365E-03
 -0.5045727E-02  0.0000000E+00 -0.5050505E-02 -0.1879447E-04  0.0000000E+00  0.4633053E-03
 -0.5043261E-02  0.0000000E+00 -0.5050505E-02 -0.1718077E-04  0.0000000E+00  0.4253090E-03
 -0.5038714E-02  0.0000000E+00 -0.5050505E-02 -0.1571863E-04  0.0000000E+00  0.3907063E-03
 -0.5032318E-02  0.0000000E+00 -0.5050505E-02 -0.1440995E-04  0.0000000E+00  0.3591386E-03
 -0.5022454E-02  0.0000000E+00 -0.5050505E-02 -0.1324633E-04  0.0000000E+00  0.3302624E-03
 -0.5012589E-02  0.0000000E+00 -0.5050505E-02 -0.1221253E-04  0.0000000E+00  0.3037657E-03
 -0.5002725E-02  0.0000000E+00 -0.5050505E-02 -0.1128984E-04  0.0000000E+00  0.2793776E-03
 -0.4992860E-02  0.0000000E+00 -0.5050505E-02 -0.1045926E-04  0.0000000E+00  0.2568704E-03
 -0.4976523E-02  0.0000000E+00 -0.5050505E-02 -0.9703671E-05  0.0000000E+00  0.2360573E-03
 -0.4956794E-02  0.0000000E+00 -0.5050505E-02 -0.9008844E-05  0.0000000E+00  0.2167867E-03
 -0.4937066E-02  0.0000000E+00 -0.5050505E-02 -0.8363530E-05  0.0000000E+00  0.1989349E-03
 -0.4906239E-02  0.0000000E+00 -0.5050505E-02 -0.7759128E-05  0.0000000E+00  0.1824006E-03
 -0.4866782E-02  0.0000000E+00 -0.5050505E-02 -0.7189154E-05  0.0000000E+00  0.1670992E-03
 -0.4827325E-02  0.0000000E+00 -0.5050505E-02 -0.6648717E-05  0.0000000E+00  0.1529589E-03
 -0.4769372E-02  0.0000000E+00 -0.5050505E-02 -0.6134064E-05  0.0000000E+00  0.1399174E-03
 -0.4690458E-02  0.0000000E+00 -0.5050505E-02 -0.5642224E-05  0.0000000E+00  0.1279204E-03
 -0.4611543E-02  0.0000000E+00 -0.5050505E-02 -0.5170753E-05  0.0000000E+00  0.1169195E-03
 -0.4503035E-02  0.0000000E+00 -0.5050505E-02 -0.4717537E-05  0.0000000E+00  0.1068716E-03
 -0.4345206E-02  0.0000000E+00 -0.5050505E-02 -0.4280663E-05  0.0000000E+00  0.9773846E-04
 -0.4187378E-02  0.0000000E+00 -0.5050505E-02 -0.3858302E-05  0.0000000E+00  0.8948573E-04
 -0.3985156E-02  0.0000000E+00 -0.5050505E-02 -0.3448606E-05  0.0000000E+00  0.8208338E-04
 -0.3669499E-02  0.0000000E+00 -0.5050505E-02 -0.3049553E-05  0.0000000E+00  0.7550563E-04
 -0.3353842E-02  0.0000000E+00 -0.5050505E-02 -0.2658671E-05  0.0000000E+00  0.6973157E-04
 -0.2978990E-02  0.0000000E+00 -0.5050505E-02 -0.2272432E-05  0.0000000E+00  0.6474664E-04
 -0.2347676E-02  0.0000000E+00 -0.5050505E-02 -0.1884726E-05  0.0000000E+00  0.6054625E-04
 -0.1716362E-02  0.0000000E+00 -0.5050505E-02 -0.1482667E-05  0.0000000E+00  0.5714526E-04
 -0.1025842E-02  0.0000000E+00 -0.5050505E-02 -0.1033826E-05  0.0000000E+00  0.5460444E-04
  0.2367855E-03  0.0000000E+00 -0.5050505E-02 -0.4437221E-06  0.0000000E+00  0.5311288E-04
  0.1499413E-02  0.0000000E+00 -0.5050505E-02  0.5982465E-06  0.0000000E+00  0.5326886E-04
  0.5287294E-02  0.0000000E+00 -0.5050505E-02  0.1823192E-04  0.0000000E+00  0.4205441E-04
 -0.5050505E-02  0.0000000E+00 -0.5050505E-02  0.1336407E-06  0.0000000E+00 -0.9959602E-04
 -0.5050505E-02  0.0000000E+00 -0.5050505E-02  0.4011421E-06  0.0000000E+00 -0.9941540E-04
 -0.5050505E-02  0.0000000E+00 -0.5050505E-02  0.6693088E-06  0.0000000E+00 -0.9905389E-04
 -0.5050505E-02  0.0000000E+00 -0.5050505E-02  0.9385964E-06  0.0000000E+00 -0.9851091E-04
 -0.5050505E-02  0.0000000E+00 -0.5050505E-02  0.1209473E-05  0.0000000E+00 -0.9778559E-04
 -0.5050505E-02  0.0000000E+00 -0.5050505E-02  0.1482424E-05  0.0000000E+00 -0.9687677E-04
 -0.5050504E-02  0.0000000E+00 -0.5050505E-02  0.1757955E-05  0.0000000E+00 -0.9578294E-04
 -0.5050501E-02  0.0000000E+00 -0.5050505E-02  0.2036599E-05  0.0000000E+00 -0.9450226E-04
 -0.5050495E-02  0.0000000E+00 -0.5050505E-02  0.2318919E-05  0.0000000E+00 -0.9303256E-04
 -0.5050482E-02  0.0000000E+00 -0.5050505E-02  0.2605517E-05  0.0000000E+00 -0.9137126E-04
 -0.5050449E-02  0.0000000E+00 -0.5050505E-02  0.2897037E-05  0.0000000E+00 -0.8951541E-04
 -0.5050376E-02  0.0000000E+00 -0.5050505E-02  0.3194176E-05  0.0000000E+00 -0.8746159E-04
 -0.5050299E-02  0.0000000E+00 -0.5050505E-02  0.3497690E-05  0.0000000E+00 -0.8520595E-04
 -0.5050178E-02  0.0000000E+00 -0.5050505E-02  0.3808404E-05  0.0000000E+00 -0.8274411E-04
 -0.5050018E-02  0.0000000E+00 -0.5050505E-02  0.4127222E-05  0.0000000E+00 -0.8007112E-04
 -0.5049710E-02  0.0000000E+00 -0.5050505E-02  0.4455141E-05  0.0000000E+00 -0.7718145E-04
 -0.5049253E-02  0.0000000E+00 -0.5050505E-02  0.4793264E-05  0.0000000E+00 -0.7406887E-04
 -0.5048636E-02  0.0000000E+00 -0.5050505E-02  0.5142813E-05  0.0000000E+00 -0.7072640E-04
 -0.5047442E-02  0.0000000E+00 -0.5050505E-02  0.5505154E-05  0.0000000E+00 -0.6714625E-04
 -0.5045727E-02  0.0000000E+00 -0.5050505E-02  0.5881809E-05  0.0000000E+00 -0.6331969E-04
 -0.5043261E-02  0.0000000E+00 -0.5050505E-02  0.6274487E-05  0.0000000E+00 -0.5923695E-04
 -0.5038714E-02  0.0000000E+00 -0.5050505E-02  0.6685110E-05  0.0000000E+00 -0.5488710E-04
 -0.5032318E-02  0.0000000E+00 -0.5050505E-02  0.7115843E-05  0.0000000E+00 -0.5025792E-04
 -0.5022454E-02  0.0000000E+00 -0.5050505E-02  0.7569134E-05  0.0000000E+00 -0.4533568E-04
 -0.5012589E-02  0.0000000E+00 -0.5050505E-02  0.8047752E-05  0.0000000E+00 -0.4010503E-04
 -0.5002725E-02  0.0000000E+00 -0.5050505E-02  0.8554843E-05  0.0000000E+00 -0.3454872E-04
 -0.4992860E-02  0.0000000E+00 -0.5050505E-02  0.9093982E-05  0.0000000E+00 -0.2864735E-04
 -0.4976523E-02  0.0000000E+00 -0.5050505E-02  0.9669238E-05  0.0000000E+00 -0.2237912E-04
 -0.4956794E-02  0.0000000E+00 -0.5050505E-02  0.1028526E-04  0.0000000E+00 -0.1571947E-04
 -0.4937066E-02  0.0000000E+00 -0.5050505E-02  0.1094733E-04  0.0000000E+00 -0.8640689E-05
 -0.4906239E-02  0.0000000E+00 -0.5050505E-02  0.1166153E-04  0.0000000E+00 -0.1107001E-05
 -0.4866782E-02  0.0000000E+00 -0.5050505E-02  0.1243444E-04  0.0000000E+00  0.6931427E-05
 -0.4827325E-02  0.0000000E+00 -0.5050505E-02  0.1327435E-04  0.0000000E+00  0.1552058E-04
 -0.4769372E-02  0.0000000E+00 -0.5050505E-02  0.1419048E-04  0.0000000E+00  0.2470392E-04
 -0.4690458E-02  0.0000000E+00 -0.5050505E-02  0.1519342E-04  0.0000000E+00  0.3453760E-04
 -0.4611543E-02  0.0000000E+00 -0.5050505E-02  0.1629525E-04  0.0000000E+00  0.4508571E-04
 -0.4503035E-02  0.0000000E+00 -0.5050505E-02  0.1750971E-04  0.0000000E+00  0.5642148E-04
 -0.4345206E-02  0.0000000E+00 -0.5050505E-02  0.1885235E-04  0.0000000E+00  0.6862859E-04
 -0.4187378E-02  0.0000000E+00 -0.5050505E-02  0.2034063E-04  0.0000000E+00  0.8180260E-04
 -0.3985156E-02  0.0000000E+00 -0.5050505E-02  0.2199383E-04  0.0000000E+00  0.9605243E-04
 -0.3669499E-02  0.0000000E+00 -0.5050505E-02  0.2383295E-04  0.0000000E+00  0.1115019E-03
 -0.3353842E-02  0.0000000E+00 -0.5050505E-02  0.2588026E-04  0.0000000E+00  0.1282910E-03
 -0.2978990E-02  0.0000000E+00 -0.5050505E-02  0.2815870E-04  0.0000000E+00  0.1465773E-03
 -0.2347676E-02  0.0000000E+00 -0.5050505E-02  0.3069101E-04  0.0000000E+00  0.1665358E-03
 -0.1716362E-02  0.0000000E+00 -0.5050505E-02  0.3349902E-04  0.0000000E+00  0.1883595E-03
 -0.1025842E-02  0.0000000E+00 -0.5050505E-02  0.3660380E-04  0.0000000E+00  0.2122580E-03
  0.2367855E-03  0.0000000E+00 -0.5050505E-02  0.4002821E-04  0.0000000E+00  0.2384568E-03
  0.1499413E-02  0.0000000E+00 -0.5050505E-02  0.4380432E-04  0.0000000E+00  0.2671996E-03
  0.2762042E-02  0.0000000E+00 -0.5050505E-02  0.4798909E-04  0.0000000E+00  0.2987566E-03
 -0.5050505E-02  0.0000000E+00 -0.5050505E-02  0.5269086E-04  0.0000000E+00  0.3334476E-03
 -0.5050505E-02  0.0000000E+00 -0.5050505E-02  0.5810695E-04  0.0000000E+00  0.3716882E-03
 -0.5050505E-02  0.0000000E+00 -0.5050505E-02  0.6457128E-04  0.0000000E+00  0.4140614E-03
 -0.5050505E-02  0.0000000E+00 -0.5050505E-02  0.7262361E-04  0.0000000E+00  0.4614147E-03
 -0.5050505E-02  0.0000000E+00 -0.5050505E-02  0.8314711E-04  0.0000000E+00  0.5149817E-03
 -0.5050505E-02  0.0000000E+00 -0.5050505E-02  0.9761295E-04  0.0000000E+00  0.5764352E-03
 -0.5050505E-02  0.0000000E+00 -0.5050505E-02  0.1183513E-03  0.0000000E+00  0.6470332E-03
 -0.5050504E-02  0.0000000E+00 -0.5050505E-02  0.1479119E-03  0.0000000E+00  0.7202166E-03
 -0.5050501E-02  0.0000000E+00 -0.5050505E-02  0.1803624E-03  0.0000000E+00  0.7933433E-03
 -0.5050495E-02  0.0000000E+00 -0.5050505E-02  0.2120579E-03  0.0000000E+00  0.8979239E-03
 -0.5050482E-02  0.0000000E+00 -0.5050505E-02  0.2776026E-03  0.0000000E+00  0.1058282E-02
 -0.5050449E-02  0.0000000E+00 -0.5050505E-02 -0.2324445E-03  0.0000000E+00  0.1064296E-02
 -0.5050376E-02  0.0000000E+00 -0.5050505E-02 -0.2296901E-03  0.0000000E+00  0.9361083E-03
 -0.5050299E-02  0.0000000E+00 -0.5050505E-02 -0.1670700E-03  0.0000000E+00  0.8547091E-03
 -0.5050178E-02  0.0000000E+00 -0.5050505E-02 -0.1213276E-03  0.0000000E+00  0.7768648E-03
 -0.5050018E-02  0.0000000E+00 -0.5050505E-02 -0.9510251E-04  0.0000000E+00  0.7081681E-03
 -0.5049710E-02  0.0000000E+00 -0.5050505E-02 -0.7964764E-04  0.0000000E+00  0.6497077E-03
 -0.5049253E-02  0.0000000E+00 -0.5050505E-02 -0.7141060E-04  0.0000000E+00  0.5978992E-03
 -0.5048636E-02  0.0000000E+00 -0.5050505E-02 -0.6699853E-04  0.0000000E+00  0.5492275E-03
 -0.5047442E-02  0.0000000E+00 -0.5050505E-02 -0.6160680E-04  0.0000000E+00  0.5034842E-03
 -0.5045727E-02  0.0000000E+00 -0.5050505E-02 -0.5631222E-04  0.0000000E+00  0.4617991E-03
 -0.5043261E-02  0.0000000E+00 -0.5050505E-02 -0.5144364E-04  0.0000000E+00  0.4239534E-03
 -0.5038714E-02  0.0000000E+00 -0.5050505E-02 -0.4704887E-04  0.0000000E+00  0.3895401E-03
 -0.5032318E-02  0.0000000E+00 -0.5050505E-02 -0.4312448E-04  0.0000000E+00  0.3581688E-03
 -0.5022454E-02  0.0000000E+00 -0.5050505E-02 -0.3964252E-04  0.0000000E+00  0.3294779E-03
 -0.5012589E-02  0.0000000E+00 -0.5050505E-02 -0.3655432E-04  0.0000000E+00  0.3031434E-03
 -0.5002725E-02  0.0000000E+00 -0.5050505E-02 -0.3380060E-04  0.0000000E+00  0.2788886E-03
 -0.4992860E-02  0.0000000E+00 -0.5050505E-02 -0.3132215E-04  0.0000000E+00  0.2564863E-03
 -0.4976523E-02  0.0000000E+00 -0.5050505E-02 -0.2906651E-04  0.0000000E+00  0.2357530E-03
 -0.4956794E-02  0.0000000E+00 -0.5050505E-02 -0.2699069E-04  0.0000000E+00  0.2165420E-03
 -0.4937066E-02  0.0000000E+00 -0.5050505E-02 -0.2506118E-04  0.0000000E+00  0.1987346E-03
 -0.4906239E-02  0.0000000E+00 -0.5050505E-02 -0.2325261E-04  0.0000000E+00  0.1822338E-03
 -0.4866782E-02  0.0000000E+00 -0.5050505E-02 -0.2154598E-04  0.0000000E+00  0.1669581E-03
 -0.4827325E-02  0.0000000E+00 -0.5050505E-02 -0.1992703E-04  0.0000000E+00  0.1528382E-03
 -0.4769372E-02  0.0000000E+00 -0.5050505E-02 -0.1838481E-04  0.0000000E+00  0.1398134E-03
 -0.4690458E-02  0.0000000E+00 -0.5050505E-02 -0.1691066E-04  0.0000000E+00  0.1278305E-03
 -0.4611543E-02  0.0000000E+00 -0.5050505E-02 -0.1549741E-04  0.0000000E+00  0.1168419E-03
 -0.4503035E-02  0.0000000E+00 -0.5050505E-02 -0.1413885E-04  0.0000000E+00  0.1068048E-03
 -0.4345206E-02  0.0000000E+00 -0.5050505E-02 -0.1282934E-04  0.0000000E+00  0.9768099E-04
 -0.4187378E-02  0.0000000E+00 -0.5050505E-02 -0.1156348E-04  0.0000000E+00  0.8943619E-04
 -0.3985156E-02  0.0000000E+00 -0.5050505E-02 -0.1033588E-04  0.0000000E+00  0.8204007E-04
 -0.3669499E-02  0.0000000E+00 -0.5050505E-02 -0.9140721E-05  0.0000000E+00  0.7546615E-04
 -0.3353842E-02  0.0000000E+00 -0.5050505E-02 -0.7971182E-05  0.0000000E+00  0.6969198E-04
 -0.2978990E-02  0.0000000E+00 -0.5050505E-02 -0.6818153E-05  0.0000000E+00  0.6469940E-04
 -0.2347676E-02  0.0000000E+00 -0.5050505E-02 -0.5667406E-05  0.0000000E+00  0.6047460E-04
 -0.1716362E-02  0.0000000E+00 -0.5050505E-02 -0.4492791E-05  0.0000000E+00  0.5700651E-04
 -0.1025842E-02  0.0000000E+00 -0.5050505E-02 -0.3238815E-05  0.0000000E+00  0.5427530E-04
  0.2367855E-03  0.0000000E+00 -0.5050505E-02 -0.1773643E-05  0.0000000E+00  0.5219468E-04
  0.1499413E-02  0.0000000E+00 -0.5050505E-02  0.2430151E-06  0.0000000E+00  0.5033868E-04
  0.5287294E-02  0.0000000E+00 -0.5050505E-02  0.3740400E-05  0.0000000E+00  0.4666738E-04
 -0.5050505E-02  0.0000000E+00 -0.5050505E-02  0.2224847E-06  0.0000000E+00 -0.9923347E-04
 -0.5050505E-02  0.0000000E+00 -0.5050505E-02  0.6678206E-06  0.0000000E+00 -0.9905276E-04
 -0.5050505E-02  0.0000000E+00 -0.5050505E-02  0.1114264E-05  0.0000000E+00 -0.9869108E-04
 -0.5050505E-02  0.0000000E+00 -0.5050505E-02  0.1562572E-05  0.0000000E+00 -0.9814786E-04
 -0.5050505E-02  0.0000000E+00 -0.5050505E-02  0.2013520E-05  0.0000000E+00 -0.9742225E-04
 -0.5050505E-02  0.0000000E+00 -0.5050505E-02  0.2467914E-05  0.0000000E+00 -0.9651309E-04
 -0.5050504E-02  0.0000000E+00 -0.5050505E-02  0.2926592E-05  0.0000000E+00 -0.9541890E-04
 -0.5050501E-02  0.0000000E+00 -0.5050505E-02  0.3390437E-05  0.0000000E+00 -0.9413788E-04
 -0.5050495E-02  0.0000000E+00 -0.5050505E-02  0.3860383E-05  0.0000000E+00 -0.9266786E-04
 -0.5050482E-02  0.0000000E+00 -0.5050505E-02  0.4337426E-05  0.0000000E+00 -0.9100632E-04
 -0.5050449E-02  0.0000000E+00 -0.5050505E-02  0.4822634E-05  0.0000000E+00 -0.8915034E-04
 -0.5050376E-02  0.0000000E+00 -0.5050505E-02  0.5317160E-05  0.0000000E+00 -0.8709656E-04
 -0.5050299E-02  0.0000000E+00 -0.5050505E-02  0.5822255E-05  0.0000000E+00 -0.8484118E-04
 -0.5050178E-02  0.0000000E+00 -0.5050505E-02  0.6339286E-05  0.0000000E+00 -0.8237988E-04
 -0.5050018E-02  0.0000000E+00 -0.5050505E-02  0.6869748E-05  0.0000000E+00 -0.7970782E-04
 -0.5049710E-02  0.0000000E+00 -0.5050505E-02  0.7415292E-05  0.0000000E+00 -0.7681952E-04
 -0.5049253E-02  0.0000000E+00 -0.5050505E-02  0.7977738E-05  0.0000000E+00 -0.7370889E-04
 -0.5048636E-02  0.0000000E+00 -0.5050505E-02  0.8559112E-05  0.0000000E+00 -0.7036906E-04
 -0.5047442E-02  0.0000000E+00 -0.5050505E-02  0.9161667E-05  0.0000000E+00 -0.6679239E-04
 -0.5045727E-02  0.0000000E+00 -0.5050505E-02  0.9787920E-05  0.0000000E+00 -0.6297030E-04
 -0.5043261E-02  0.0000000E+00 -0.5050505E-02  0.1044070E-04  0.0000000E+00 -0.5889324E-04
 -0.5038714E-02  0.0000000E+00 -0.5050505E-02  0.1112317E-04  0.0000000E+00 -0.5455049E-04
 -0.5032318E-02  0.0000000E+00 -0.5050505E-02  0.1183891E-04  0.0000000E+00 -0.4993009E-04
 -0.5022454E-02  0.0000000E+00 -0.5050505E-02  0.1259197E-04  0.0000000E+00 -0.4501864E-04
 -0.5012589E-02  0.0000000E+00 -0.5050505E-02  0.1338692E-04  0.0000000E+00 -0.3980111E-04
 -0.5002725E-02  0.0000000E+00 -0.5050505E-02  0.1422894E-04  0.0000000E+00 -0.3426066E-04
 -0.4992860E-02  0.0000000E+00 -0.5050505E-02  0.1512395E-04  0.0000000E+00 -0.2837839E-04
 -0.4976523E-02  0.0000000E+00 -0.5050505E-02  0.1607866E-04  0.0000000E+00 -0.2213302E-04
 -0.4956794E-02  0.0000000E+00 -0.5050505E-02  0.1710074E-04  0.0000000E+00 -0.1550064E-04
 -0.4937066E-02  0.0000000E+00 -0.5050505E-02  0.1819894E-04  0.0000000E+00 -0.8454269E-05
 -0.4906239E-02  0.0000000E+00 -0.5050505E-02  0.1938326E-04  0.0000000E+00 -0.9587381E-06
 -0.4866782E-02  0.0000000E+00 -0.5050505E-02  0.2066459E-04  0.0000000E+00  0.7034575E-05
 -0.4827325E-02  0.0000000E+00 -0.5050505E-02  0.2205661E-04  0.0000000E+00  0.1557021E-04
 -0.4769372E-02  0.0000000E+00 -0.5050505E-02  0.2357461E-04  0.0000000E+00  0.2469049E-04
 -0.4690458E-02  0.0000000E+00 -0.5050505E-02  0.2523610E-04  0.0000000E+00  0.3445011E-04
 -0.4611543E-02  0.0000000E+00 -0.5050505E-02  0.2706114E-04  0.0000000E+00  0.4491157E-04
 -0.4503035E-02  0.0000000E+00 -0.5050505E-02  0.2907262E-04  0.0000000E+00  0.5614638E-04
 -0.4345206E-02  0.0000000E+00 -0.5050505E-02  0.3129650E-04  0.0000000E+00  0.6823646E-04
 -0.4187378E-02  0.0000000E+00 -0.5050505E-02  0.3376204E-04  0.0000000E+00  0.8127565E-04
 -0.3985156E-02  0.0000000E+00 -0.5050505E-02  0.3650176E-04  0.0000000E+00  0.9537141E-04
 -0.3669499E-02  0.0000000E+00 -0.5050505E-02  0.3955126E-04  0.0000000E+00  0.1106466E-03
 -0.3353842E-02  0.0000000E+00 -0.5050505E-02  0.4294855E-04  0.0000000E+00  0.1272412E-03
 -0.2978990E-02  0.0000000E+00 -0.5050505E-02  0.4673289E-04  0.0000000E+00  0.1453134E-03
 -0.2347676E-02  0.0000000E+00 -0.5050505E-02  0.5094305E-04  0.0000000E+00  0.1650408E-03
 -0.1716362E-02  0.0000000E+00 -0.5050505E-02  0.5561521E-04  0.0000000E+00  0.1866188E-03
 -0.1025842E-02  0.0000000E+00 -0.5050505E-02  0.6078157E-04  0.0000000E+00  0.2102584E-03
  0.2367855E-03  0.0000000E+00 -0.5050505E-02  0.6647189E-04  0.0000000E+00  0.2361800E-03
  0.1499413E-02  0.0000000E+00 -0.5050505E-02  0.7272272E-04  0.0000000E+00  0.2646068E-03
  0.2762042E-02  0.0000000E+00 -0.5050505E-02  0.7960108E-04  0.0000000E+00  0.2957607E-03
 -0.5050505E-02  0.0000000E+00 -0.5050505E-02  0.8724924E-04  0.0000000E+00  0.3298715E-03
 -0.5050505E-02  0.0000000E+00 -0.5050505E-02  0.9594922E-04  0.0000000E+00  0.3672121E-03
 -0.5050505E-02  0.0000000E+00 -0.5050505E-02  0.1061901E-03  0.0000000E+00  0.4081575E-03
 -0.5050505E-02  0.0000000E+00 -0.5050505E-02  0.1187345E-03  0.0000000E+00  0.4532408E-03
 -0.5050505E-02  0.0000000E+00 -0.5050505E-02  0.1347979E-03  0.0000000E+00  0.5032333E-03
 -0.5050505E-02  0.0000000E+00 -0.5050505E-02  0.1564651E-03  0.0000000E+00  0.5595251E-03
 -0.5050505E-02  0.0000000E+00 -0.5050505E-02  0.1876096E-03  0.0000000E+00  0.6262940E-03
 -0.5050504E-02  0.0000000E+00 -0.5050505E-02  0.2104827E-03  0.0000000E+00  0.6955632E-03
 -0.5050501E-02  0.0000000E+00 -0.5050505E-02  0.2381689E-03  0.0000000E+00  0.7538718E-03
 -0.5050495E-02  0.0000000E+00 -0.5050505E-02  0.2947935E-03  0.0000000E+00  0.8041742E-03
 -0.5050482E-02  0.0000000E+00 -0.5050505E-02  0.3920673E-03  0.0000000E+00  0.8627655E-03
 -0.5050449E-02  0.0000000E+00 -0.5050505E-02 -0.2888996E-03  0.0000000E+00  0.9190797E-03
 -0.5050376E-02  0.0000000E+00 -0.5050505E-02 -0.3122020E-03  0.0000000E+00  0.8905366E-03
 -0.5050299E-02  0.0000000E+00 -0.5050505E-02 -0.2346388E-03  0.0000000E+00  0.8057608E-03
 -0.5050178E-02  0.0000000E+00 -0.5050505E-02 -0.1817002E-03  0.0000000E+00  0.7426894E-03
 -0.5050018E-02  0.0000000E+00 -0.5050505E-02 -0.1474018E-03  0.0000000E+00  0.6880596E-03
 -0.5049710E-02  0.0000000E+00 -0.5050505E-02 -0.1253510E-03  0.0000000E+00  0.6398908E-03
 -0.5049253E-02  0.0000000E+00 -0.5050505E-02 -0.1151570E-03  0.0000000E+00  0.5949750E-03
 -0.5048636E-02  0.0000000E+00 -0.5050505E-02 -0.1127750E-03  0.0000000E+00  0.5475156E-03
 -0.5047442E-02  0.0000000E+00 -0.5050505E-02 -0.1027874E-03  0.0000000E+00  0.5004479E-03
 -0.5045727E-02  0.0000000E+00 -0.5050505E-02 -0.9361295E-04  0.0000000E+00  0.4587911E-03
 -0.5043261E-02  0.0000000E+00 -0.5050505E-02 -0.8542106E-04  0.0000000E+00  0.4212875E-03
 -0.5038714E-02  0.0000000E+00 -0.5050505E-02 -0.7807293E-04  0.0000000E+00  0.3872680E-03
 -0.5032318E-02  0.0000000E+00 -0.5050505E-02 -0.7153733E-04  0.0000000E+00  0.3562966E-03
 -0.5022454E-02  0.0000000E+00 -0.5050505E-02 -0.6576449E-04  0.0000000E+00  0.3279797E-03
 -0.5012589E-02  0.0000000E+00 -0.5050505E-02 -0.6066290E-04  0.0000000E+00  0.3019683E-03
 -0.5002725E-02  0.0000000E+00 -0.5050505E-02 -0.5612224E-04  0.0000000E+00  0.2779751E-03
 -0.4992860E-02  0.0000000E+00 -0.5050505E-02 -0.5203596E-04  0.0000000E+00  0.2557745E-03
 -0.4976523E-02  0.0000000E+00 -0.5050505E-02 -0.4831307E-04  0.0000000E+00  0.2351922E-03
 -0.4956794E-02  0.0000000E+00 -0.5050505E-02 -0.4488134E-04  0.0000000E+00  0.2160923E-03
 -0.4937066E-02  0.0000000E+00 -0.5050505E-02 -0.4168591E-04  0.0000000E+00  0.1983666E-03
 -0.4906239E-02  0.0000000E+00 -0.5050505E-02 -0.3868605E-04  0.0000000E+00  0.1819267E-03
 -0.4866782E-02  0.0000000E+00 -0.5050505E-02 -0.3585171E-04  0.0000000E+00  0.1666977E-03
 -0.4827325E-02  0.0000000E+00 -0.5050505E-02 -0.3316047E-04  0.0000000E+00  0.1526148E-03
 -0.4769372E-02  0.0000000E+00 -0.5050505E-02 -0.3059515E-04  0.0000000E+00  0.1396207E-03
 -0.4690458E-02  0.0000000E+00 -0.5050505E-02 -0.2814209E-04  0.0000000E+00  0.1276639E-03
 -0.4611543E-02  0.0000000E+00 -0.5050505E-02 -0.2578989E-04  0.0000000E+00  0.1166980E-03
 -0.4503035E-02  0.0000000E+00 -0.5050505E-02 -0.2352858E-04  0.0000000E+00  0.1066811E-03
 -0.4345206E-02  0.0000000E+00 -0.5050505E-02 -0.2134907E-04  0.0000000E+00  0.9757504E-04
 -0.4187378E-02  0.0000000E+00 -0.5050505E-02 -0.1924266E-04  0.0000000E+00  0.8934553E-04
 -0.3985156E-02  0.0000000E+00 -0.5050505E-02 -0.1720072E-04  0.0000000E+00  0.8196180E-04
 -0.3669499E-02  0.0000000E+00 -0.5050505E-02 -0.1521422E-04  0.0000000E+00  0.7539642E-04
 -0.3353842E-02  0.0000000E+00 -0.5050505E-02 -0.1327320E-04  0.0000000E+00  0.6962505E-04
 -0.2978990E-02  0.0000000E+00 -0.5050505E-02 -0.1136568E-04  0.0000000E+00  0.6462575E-04
 -0.2347676E-02  0.0000000E+00 -0.5050505E-02 -0.9475927E-05  0.0000000E+00  0.6037719E-04
 -0.1716362E-02  0.0000000E+00 -0.5050505E-02 -0.7581489E-05  0.0000000E+00  0.5685372E-04
 -0.1025842E-02  0.0000000E+00 -0.5050505E-02 -0.5649707E-05  0.0000000E+00  0.5401231E-04
  0.2367855E-03  0.0000000E+00 -0.5050505E-02 -0.3640604E-05  0.0000000E+00  0.5176169E-04
  0.1499413E-02  0.0000000E+00 -0.5050505E-02 -0.1556428E-05  0.0000000E+00  0.4991376E-04
  0.5287294E-02  0.0000000E+00 -0.5050505E-02  0.2669503E-06  0.0000000E+00  0.4827856E-04
 -0.5050505E-02  0.0000000E+00 -0.5050505E-02  0.3111401E-06  0.0000000E+00 -0.9869691E-04
 -0.5050505E-02  0.0000000E+00 -0.5050505E-02  0.9339321E-06  0.0000000E+00 -0.9851606E-04
 -0.5050505E-02  0.0000000E+00 -0.5050505E-02  0.1558269E-05  0.0000000E+00 -0.9815411E-04
 -0.5050505E-02  0.0000000E+00 -0.5050505E-02  0.2185204E-05  0.0000000E+00 -0.9761052E-04
 -0.5050505E-02  0.0000000E+00 -0.5050505E-02  0.2815818E-05  0.0000000E+00 -0.9688444E-04
 -0.5050505E-02  0.0000000E+00 -0.5050505E-02  0.3451228E-05  0.0000000E+00 -0.9597474E-04
 -0.5050504E-02  0.0000000E+00 -0.5050505E-02  0.4092602E-05  0.0000000E+00 -0.9487997E-04
 -0.5050501E-02  0.0000000E+00 -0.5050505E-02  0.4741165E-05  0.0000000E+00 -0.9359837E-04
 -0.5050495E-02  0.0000000E+00 -0.5050505E-02  0.5398214E-05  0.0000000E+00 -0.9212782E-04
 -0.5050482E-02  0.0000000E+00 -0.5050505E-02  0.6065132E-05  0.0000000E+00 -0.9046584E-04
 -0.5050449E-02  0.0000000E+00 -0.5050505E-02  0.6743402E-05  0.0000000E+00 -0.8860957E-04
 -0.5050376E-02  0.0000000E+00 -0.5050505E-02  0.7434622E-05  0.0000000E+00 -0.8655574E-04
 -0.5050299E-02  0.0000000E+00 -0.5050505E-02  0.8140527E-05  0.0000000E+00 -0.8430061E-04
 -0.5050178E-02  0.0000000E+00 -0.5050505E-02  0.8863011E-05  0.0000000E+00 -0.8183999E-04
 -0.5050018E-02  0.0000000E+00 -0.5050505E-02  0.9604147E-05  0.0000000E+00 -0.7916913E-04
 -0.5049710E-02  0.0000000E+00 -0.5050505E-02  0.1036622E-04  0.0000000E+00 -0.7628270E-04
 -0.5049253E-02  0.0000000E+00 -0.5050505E-02  0.1115175E-04  0.0000000E+00 -0.7317475E-04
 -0.5048636E-02  0.0000000E+00 -0.5050505E-02  0.1196354E-04  0.0000000E+00 -0.6983861E-04
 -0.5047442E-02  0.0000000E+00 -0.5050505E-02  0.1280470E-04  0.0000000E+00 -0.6626684E-04
 -0.5045727E-02  0.0000000E+00 -0.5050505E-02  0.1367871E-04  0.0000000E+00 -0.6245112E-04
 -0.5043261E-02  0.0000000E+00 -0.5050505E-02  0.1458949E-04  0.0000000E+00 -0.5838216E-04
 -0.5038714E-02  0.0000000E+00 -0.5050505E-02  0.1554141E-04  0.0000000E+00 -0.5404960E-04
 -0.5032318E-02  0.0000000E+00 -0.5050505E-02  0.1653941E-04  0.0000000E+00 -0.4944184E-04
 -0.5022454E-02  0.0000000E+00 -0.5050505E-02  0.1758906E-04  0.0000000E+00 -0.4454592E-04
 -0.5012589E-02  0.0000000E+00 -0.5050505E-02  0.1869670E-04  0.0000000E+00 -0.3934736E-04
 -0.5002725E-02  0.0000000E+00 -0.5050505E-02  0.1986947E-04  0.0000000E+00 -0.3382989E-04
 -0.4992860E-02  0.0000000E+00 -0.5050505E-02  0.2111553E-04  0.0000000E+00 -0.2797532E-04
 -0.4976523E-02  0.0000000E+00 -0.5050505E-02  0.2244414E-04  0.0000000E+00 -0.2176318E-04
 -0.4956794E-02  0.0000000E+00 -0.5050505E-02  0.2386588E-04  0.0000000E+00 -0.1517048E-04
 -0.4937066E-02  0.0000000E+00 -0.5050505E-02  0.2539284E-04  0.0000000E+00 -0.8171313E-05