title = "dataset feddes"
variables = "time", "inflow", "outflow", "change in storage", "root water uptake" 
zone t = "mass balance -  variably saturated flow", f=point
  1.0000E-10  0.0000E+00  1.6952E-10 -1.7526E-08  0.0000E+00
  6.0000E-10  0.0000E+00  1.6952E-10 -1.5030E-10  0.0000E+00
  3.1000E-09  0.0000E+00  1.6952E-10 -1.5030E-10  0.0000E+00
  1.5600E-08  0.0000E+00  1.6952E-10 -3.2580E-11  0.0000E+00
  7.8100E-08  0.0000E+00  1.6952E-10 -1.9393E-10  0.0000E+00
  3.9060E-07  0.0000E+00  1.6952E-10 -1.6331E-10  0.0000E+00
  1.9531E-06  0.0000E+00  1.6952E-10 -1.6864E-10  0.0000E+00
  9.7656E-06  0.0000E+00  1.6952E-10 -1.6970E-10  0.0000E+00
  4.8828E-05  0.0000E+00  1.6953E-10 -1.6955E-10  0.0000E+00
  2.4414E-04  0.0000E+00  1.6956E-10 -1.6956E-10  0.0000E+00
  1.2207E-03  0.0000E+00  1.7139E-10 -1.7172E-10  0.0000E+00
  6.1035E-03  0.0000E+00  2.7658E-10 -2.8029E-10  0.0000E+00
  3.0518E-02  0.0000E+00  1.1027E-09 -1.0037E-09  0.0000E+00
  1.5259E-01  0.0000E+00  1.9156E-09 -1.0931E-09  0.0000E+00
  7.6294E-01  0.0000E+00  2.0948E-09 -2.0993E-10  0.0000E+00
  1.0000E+00  0.0000E+00  2.0879E-09 -1.0039E-09  0.0000E+00
  2.0000E+00  0.0000E+00  3.3589E-03 -3.5773E-03  0.0000E+00
  3.0000E+00  0.0000E+00  1.7301E-03 -1.7301E-03  0.0000E+00
  4.0000E+00  0.0000E+00  1.2817E-03 -1.2817E-03  0.0000E+00
  5.0000E+00  0.0000E+00  1.0579E-03 -1.0579E-03  0.0000E+00
  6.0000E+00  0.0000E+00  9.1861E-04 -9.1861E-04  0.0000E+00
  7.0000E+00  0.0000E+00  8.2134E-04 -8.2134E-04  0.0000E+00
  8.0000E+00  0.0000E+00  7.4854E-04 -7.5524E-04  0.0000E+00
  9.0000E+00  0.0000E+00  6.9144E-04 -6.9868E-04  0.0000E+00
  1.0000E+01  0.0000E+00  6.4509E-04 -6.5466E-04  0.0000E+00
  1.1000E+01  0.0000E+00  6.0648E-04 -6.1713E-04  0.0000E+00
  1.2000E+01  0.0000E+00  5.7365E-04 -5.8853E-04  0.0000E+00
  1.3000E+01  0.0000E+00  5.4525E-04 -5.6762E-04  0.0000E+00
  1.4000E+01  0.0000E+00  5.2034E-04 -5.4456E-04  0.0000E+00
  1.5000E+01  0.0000E+00  4.9822E-04 -5.2962E-04  0.0000E+00
  1.6000E+01  0.0000E+00  4.7837E-04 -5.1243E-04  0.0000E+00
  1.7000E+01  0.0000E+00  4.6037E-04 -5.0902E-04  0.0000E+00
  1.8000E+01  0.0000E+00  4.4391E-04 -5.1640E-04  0.0000E+00
  1.9000E+01  0.0000E+00  4.2873E-04 -5.0475E-04  0.0000E+00
  2.0000E+01  0.0000E+00  4.1463E-04 -5.0364E-04  0.0000E+00
  2.1000E+01  0.0000E+00  4.0141E-04 -5.3689E-04  0.0000E+00
  2.2000E+01  0.0000E+00  3.8892E-04 -5.2135E-04  0.0000E+00
  2.3000E+01  0.0000E+00  3.7701E-04 -5.9674E-04  0.0000E+00
  2.4000E+01  0.0000E+00  3.6551E-04 -6.3316E-04  0.0000E+00
  2.5000E+01  0.0000E+00  3.5426E-04 -6.8662E-04  0.0000E+00
  2.6000E+01  0.0000E+00  3.4313E-04 -6.7205E-04  0.0000E+00
  2.7000E+01  0.0000E+00  3.3196E-04 -7.8344E-04  0.0000E+00
  2.8000E+01  0.0000E+00  3.2060E-04 -8.3153E-04  0.0000E+00
  2.9000E+01  0.0000E+00  3.0884E-04 -9.2181E-04  0.0000E+00
  3.0000E+01  0.0000E+00  2.9631E-04 -1.1473E-03  0.0000E+00
  3.1000E+01  0.0000E+00  2.8291E-04 -1.3183E-03  0.0000E+00
  3.2000E+01  0.0000E+00  2.6791E-04 -1.4943E-03  0.0000E+00
  3.3000E+01  0.0000E+00  2.5139E-04 -1.8434E-03  0.0000E+00
  3.4000E+01  0.0000E+00  2.3189E-04 -1.9304E-03  0.0000E+00
  3.5000E+01  0.0000E+00  2.1144E-04 -2.0313E-03  0.0000E+00
  3.6000E+01  0.0000E+00  1.8534E-04 -2.2084E-03  0.0000E+00
  3.7000E+01  1.0648E-06  1.5973E-04 -2.5406E-03  0.0000E+00
  3.8000E+01  3.8149E-06  1.3481E-04 -2.5913E-03  0.0000E+00
  3.9000E+01  9.5424E-06  1.1101E-04 -2.6193E-03  0.0000E+00
  4.0000E+01  1.9511E-05  9.0359E-05 -2.5290E-03  0.0000E+00
  4.1000E+01  3.9093E-05  7.2193E-05 -2.7826E-03  0.0000E+00
  4.1500E+01  5.2801E-05  6.4248E-05 -2.9360E-03  0.0000E+00
  4.2000E+01  6.4928E-05  5.6982E-05 -2.7739E-03  0.0000E+00
  4.2500E+01  8.4391E-05  5.0305E-05 -2.9043E-03  0.0000E+00
  4.3000E+01  1.0002E-04  4.4241E-05 -2.7480E-03  0.0000E+00
  4.3500E+01  1.2347E-04  3.8834E-05 -2.9258E-03  0.0000E+00
  4.4000E+01  1.4173E-04  3.4130E-05 -2.7600E-03  0.0000E+00
  4.4500E+01  1.6175E-04  3.0424E-05 -2.8001E-03  0.0000E+00
  4.5000E+01  1.7918E-04  2.7200E-05 -2.6325E-03  0.0000E+00
  4.6000E+01  2.2299E-04  2.1321E-05 -2.6262E-03  0.0000E+00
  4.7000E+01  2.5808E-04  1.6202E-05 -2.3982E-03  0.0000E+00
  4.8000E+01  3.0269E-04  1.1784E-05 -2.4895E-03  0.0000E+00
  4.8250E+01  3.1924E-04  1.0778E-05 -2.8054E-03  0.0000E+00
  4.8625E+01  3.3730E-04  9.3574E-06 -2.6330E-03  0.0000E+00
  4.9000E+01  3.5266E-04  8.0267E-06 -2.4775E-03  0.0000E+00
  4.9500E+01  3.7467E-04  6.3902E-06 -2.4192E-03  0.0000E+00
  5.0000E+01  3.9377E-04  4.9169E-06 -2.2537E-03  0.0000E+00
  5.1000E+01  4.3744E-04  2.4698E-06 -2.2156E-03  0.0000E+00
  5.1250E+01  4.5076E-04  1.9605E-06 -2.3055E-03  0.0000E+00
  5.2000E+01  4.7819E-04  7.2362E-07 -2.0504E-03  0.0000E+00
  5.2250E+01  4.9633E-04  4.1449E-07 -2.3033E-03  0.0000E+00
  5.2625E+01  5.1488E-04  8.1872E-08 -2.1611E-03  0.0000E+00
  5.3000E+01  5.3019E-04  0.0000E+00 -2.0330E-03  0.0000E+00
  5.3500E+01  5.5303E-04  0.0000E+00 -1.9794E-03  0.0000E+00
  5.3750E+01  5.6243E-04  0.0000E+00 -1.8984E-03  0.0000E+00
  5.4000E+01  5.7076E-04  0.0000E+00 -1.8231E-03  0.0000E+00
  5.4250E+01  5.9655E-04  0.0000E+00 -2.1798E-03  0.0000E+00
  5.4625E+01  6.1809E-04  0.0000E+00 -2.0338E-03  0.0000E+00
  5.5000E+01  6.3440E-04  0.0000E+00 -1.9052E-03  0.0000E+00
  5.5250E+01  6.4874E-04  0.0000E+00 -1.9533E-03  0.0000E+00
  5.5438E+01  6.5728E-04  0.0000E+00 -1.8855E-03  0.0000E+00
  5.6000E+01  6.7649E-04  0.0000E+00 -1.7161E-03  0.0000E+00
  5.6250E+01  7.0010E-04  0.0000E+00 -1.9648E-03  0.0000E+00
  5.6625E+01  7.1996E-04  0.0000E+00 -1.8330E-03  0.0000E+00
  5.6812E+01  7.2826E-04  0.0000E+00 -1.7712E-03  0.0000E+00
  5.7000E+01  7.3554E-04  0.0000E+00 -1.7132E-03  0.0000E+00
  5.7500E+01  7.5944E-04  0.0000E+00 -1.7060E-03  0.0000E+00
  5.7750E+01  7.6895E-04  0.0000E+00 -1.6315E-03  0.0000E+00
  5.8000E+01  7.7710E-04  0.0000E+00 -1.5628E-03  0.0000E+00
  5.8500E+01  7.9701E-04  0.0000E+00 -1.5183E-03  0.0000E+00
  5.8750E+01  8.0490E-04  0.0000E+00 -1.4542E-03  0.0000E+00
  5.9000E+01  8.1174E-04  0.0000E+00 -1.3950E-03  0.0000E+00
  5.9250E+01  8.4146E-04  0.0000E+00 -1.7732E-03  0.0000E+00
  5.9438E+01  8.5589E-04  0.0000E+00 -1.6989E-03  0.0000E+00
  6.0000E+01  8.8153E-04  0.0000E+00 -1.5257E-03  0.0000E+00
