title = "dataset feddes"
variables = "x", "y", "z", "vx", "vy", "vz"
zone t = "velocities, solution time =  2.000E+00 days        " i =   99, j =   99, k =    1,  f=point
 -0.5050505E-02  0.0000000E+00 -0.5050505E-02 -0.3632480E-11  0.0000000E+00 -0.3359056E-02
 -0.5050505E-02  0.0000000E+00 -0.5050505E-02 -0.1969701E-11  0.0000000E+00 -0.3359056E-02
 -0.5050505E-02  0.0000000E+00 -0.5050505E-02  0.2108195E-11  0.0000000E+00 -0.3359056E-02
 -0.5050505E-02  0.0000000E+00 -0.5050505E-02  0.9399693E-12  0.0000000E+00 -0.3359056E-02
 -0.5050505E-02  0.0000000E+00 -0.5050505E-02 -0.7628631E-12  0.0000000E+00 -0.3359056E-02
 -0.5050505E-02  0.0000000E+00 -0.5050505E-02 -0.9455463E-12  0.0000000E+00 -0.3359056E-02
 -0.5050504E-02  0.0000000E+00 -0.5050505E-02 -0.5651875E-12  0.0000000E+00 -0.3359056E-02
 -0.5050501E-02  0.0000000E+00 -0.5050505E-02 -0.9563566E-12  0.0000000E+00 -0.3359056E-02
 -0.5050495E-02  0.0000000E+00 -0.5050505E-02 -0.2008571E-11  0.0000000E+00 -0.3359056E-02
 -0.5050482E-02  0.0000000E+00 -0.5050505E-02 -0.2519962E-11  0.0000000E+00 -0.3359056E-02
 -0.5050449E-02  0.0000000E+00 -0.5050505E-02 -0.2739656E-11  0.0000000E+00 -0.3359056E-02
 -0.5050376E-02  0.0000000E+00 -0.5050505E-02 -0.2898126E-11  0.0000000E+00 -0.3359056E-02
 -0.5050299E-02  0.0000000E+00 -0.5050505E-02 -0.3090236E-11  0.0000000E+00 -0.3359056E-02
 -0.5050178E-02  0.0000000E+00 -0.5050505E-02 -0.3320824E-11  0.0000000E+00 -0.3359056E-02
 -0.5050018E-02  0.0000000E+00 -0.5050505E-02 -0.3554433E-11  0.0000000E+00 -0.3359056E-02
 -0.5049710E-02  0.0000000E+00 -0.5050505E-02 -0.3766027E-11  0.0000000E+00 -0.3359056E-02
 -0.5049253E-02  0.0000000E+00 -0.5050505E-02 -0.4021209E-11  0.0000000E+00 -0.3359056E-02
 -0.5048636E-02  0.0000000E+00 -0.5050505E-02 -0.4478394E-11  0.0000000E+00 -0.3359056E-02
 -0.5047442E-02  0.0000000E+00 -0.5050505E-02 -0.3550899E-11  0.0000000E+00 -0.3359056E-02
 -0.5045727E-02  0.0000000E+00 -0.5050505E-02 -0.5134896E-11  0.0000000E+00 -0.3359056E-02
 -0.5043261E-02  0.0000000E+00 -0.5050505E-02 -0.6676542E-11  0.0000000E+00 -0.3359056E-02
 -0.5038714E-02  0.0000000E+00 -0.5050505E-02 -0.5504513E-11  0.0000000E+00 -0.3359056E-02
 -0.5032318E-02  0.0000000E+00 -0.5050505E-02 -0.6796681E-11  0.0000000E+00 -0.3359056E-02
 -0.5022454E-02  0.0000000E+00 -0.5050505E-02 -0.7728281E-11  0.0000000E+00 -0.3359056E-02
 -0.5012589E-02  0.0000000E+00 -0.5050505E-02 -0.8260928E-11  0.0000000E+00 -0.3359056E-02
 -0.5002725E-02  0.0000000E+00 -0.5050505E-02 -0.9509337E-11  0.0000000E+00 -0.3359056E-02
 -0.4992860E-02  0.0000000E+00 -0.5050505E-02 -0.1019507E-10  0.0000000E+00 -0.3359056E-02
 -0.4976523E-02  0.0000000E+00 -0.5050505E-02 -0.1185075E-10  0.0000000E+00 -0.3359056E-02
 -0.4956794E-02  0.0000000E+00 -0.5050505E-02 -0.1401336E-10  0.0000000E+00 -0.3359056E-02
 -0.4937066E-02  0.0000000E+00 -0.5050505E-02 -0.1584721E-10  0.0000000E+00 -0.3359056E-02
 -0.4906239E-02  0.0000000E+00 -0.5050505E-02 -0.1879038E-10  0.0000000E+00 -0.3359057E-02
 -0.4866782E-02  0.0000000E+00 -0.5050505E-02 -0.2179914E-10  0.0000000E+00 -0.3359057E-02
 -0.4827325E-02  0.0000000E+00 -0.5050505E-02 -0.2315557E-10  0.0000000E+00 -0.3359057E-02
 -0.4769372E-02  0.0000000E+00 -0.5050505E-02 -0.2862095E-10  0.0000000E+00 -0.3359057E-02
 -0.4690458E-02  0.0000000E+00 -0.5050505E-02 -0.3000862E-10  0.0000000E+00 -0.3359057E-02
 -0.4611543E-02  0.0000000E+00 -0.5050505E-02 -0.3383477E-10  0.0000000E+00 -0.3359057E-02
 -0.4503035E-02  0.0000000E+00 -0.5050505E-02 -0.3969431E-10  0.0000000E+00 -0.3359057E-02
 -0.4345206E-02  0.0000000E+00 -0.5050505E-02 -0.4461914E-10  0.0000000E+00 -0.3359057E-02
 -0.4187378E-02  0.0000000E+00 -0.5050505E-02 -0.5062435E-10  0.0000000E+00 -0.3359057E-02
 -0.3985156E-02  0.0000000E+00 -0.5050505E-02 -0.5766841E-10  0.0000000E+00 -0.3359057E-02
 -0.3669499E-02  0.0000000E+00 -0.5050505E-02 -0.6740895E-10  0.0000000E+00 -0.3359058E-02
 -0.3353842E-02  0.0000000E+00 -0.5050505E-02 -0.7605533E-10  0.0000000E+00 -0.3359058E-02
 -0.2978990E-02  0.0000000E+00 -0.5050505E-02 -0.8692379E-10  0.0000000E+00 -0.3359058E-02
 -0.2347676E-02  0.0000000E+00 -0.5050505E-02 -0.9898060E-10  0.0000000E+00 -0.3359058E-02
 -0.1716362E-02  0.0000000E+00 -0.5050505E-02 -0.1129007E-09  0.0000000E+00 -0.3359058E-02
 -0.1025842E-02  0.0000000E+00 -0.5050505E-02 -0.1284329E-09  0.0000000E+00 -0.3359059E-02
  0.2367855E-03  0.0000000E+00 -0.5050505E-02 -0.1464897E-09  0.0000000E+00 -0.3359059E-02
  0.1499413E-02  0.0000000E+00 -0.5050505E-02 -0.1672651E-09  0.0000000E+00 -0.3359060E-02
  0.2762042E-02  0.0000000E+00 -0.5050505E-02 -0.1914575E-09  0.0000000E+00 -0.3359060E-02
 -0.5050505E-02  0.0000000E+00 -0.5050505E-02 -0.2199909E-09  0.0000000E+00 -0.3359061E-02
 -0.5050505E-02  0.0000000E+00 -0.5050505E-02 -0.2537595E-09  0.0000000E+00 -0.3359061E-02
 -0.5050505E-02  0.0000000E+00 -0.5050505E-02 -0.2902460E-09  0.0000000E+00 -0.3359062E-02
 -0.5050505E-02  0.0000000E+00 -0.5050505E-02 -0.3332126E-09  0.0000000E+00 -0.3359063E-02
 -0.5050505E-02  0.0000000E+00 -0.5050505E-02 -0.3851561E-09  0.0000000E+00 -0.3359064E-02
 -0.5050505E-02  0.0000000E+00 -0.5050505E-02 -0.4432441E-09  0.0000000E+00 -0.3359065E-02
 -0.5050505E-02  0.0000000E+00 -0.5050505E-02 -0.5110539E-09  0.0000000E+00 -0.3359066E-02
 -0.5050504E-02  0.0000000E+00 -0.5050505E-02 -0.5904945E-09  0.0000000E+00 -0.3359068E-02
 -0.5050501E-02  0.0000000E+00 -0.5050505E-02 -0.6827038E-09  0.0000000E+00 -0.3359069E-02
 -0.5050495E-02  0.0000000E+00 -0.5050505E-02 -0.7911733E-09  0.0000000E+00 -0.3359071E-02
 -0.5050482E-02  0.0000000E+00 -0.5050505E-02 -0.9169989E-09  0.0000000E+00 -0.3359074E-02
 -0.5050449E-02  0.0000000E+00 -0.5050505E-02 -0.1065162E-08  0.0000000E+00 -0.3359076E-02
 -0.5050376E-02  0.0000000E+00 -0.5050505E-02 -0.1239861E-08  0.0000000E+00 -0.3359079E-02
 -0.5050299E-02  0.0000000E+00 -0.5050505E-02 -0.1444500E-08  0.0000000E+00 -0.3359083E-02
 -0.5050178E-02  0.0000000E+00 -0.5050505E-02 -0.1686414E-08  0.0000000E+00 -0.3359087E-02
 -0.5050018E-02  0.0000000E+00 -0.5050505E-02 -0.1972748E-08  0.0000000E+00 -0.3359092E-02
 -0.5049710E-02  0.0000000E+00 -0.5050505E-02 -0.2312478E-08  0.0000000E+00 -0.3359098E-02
 -0.5049253E-02  0.0000000E+00 -0.5050505E-02 -0.2716640E-08  0.0000000E+00 -0.3359104E-02
 -0.5048636E-02  0.0000000E+00 -0.5050505E-02 -0.3198964E-08  0.0000000E+00 -0.3359112E-02
 -0.5047442E-02  0.0000000E+00 -0.5050505E-02 -0.3776398E-08  0.0000000E+00 -0.3359122E-02
 -0.5045727E-02  0.0000000E+00 -0.5050505E-02 -0.4469987E-08  0.0000000E+00 -0.3359133E-02
 -0.5043261E-02  0.0000000E+00 -0.5050505E-02 -0.5306252E-08  0.0000000E+00 -0.3359146E-02
 -0.5038714E-02  0.0000000E+00 -0.5050505E-02 -0.6318520E-08  0.0000000E+00 -0.3359161E-02
 -0.5032318E-02  0.0000000E+00 -0.5050505E-02 -0.7549049E-08  0.0000000E+00 -0.3359180E-02
 -0.5022454E-02  0.0000000E+00 -0.5050505E-02 -0.9051949E-08  0.0000000E+00 -0.3359202E-02
 -0.5012589E-02  0.0000000E+00 -0.5050505E-02 -0.1089672E-07  0.0000000E+00 -0.3359228E-02
 -0.5002725E-02  0.0000000E+00 -0.5050505E-02 -0.1317358E-07  0.0000000E+00 -0.3359260E-02
 -0.4992860E-02  0.0000000E+00 -0.5050505E-02 -0.1600075E-07  0.0000000E+00 -0.3359299E-02
 -0.4976523E-02  0.0000000E+00 -0.5050505E-02 -0.1953432E-07  0.0000000E+00 -0.3359347E-02
 -0.4956794E-02  0.0000000E+00 -0.5050505E-02 -0.2398301E-07  0.0000000E+00 -0.3359405E-02
 -0.4937066E-02  0.0000000E+00 -0.5050505E-02 -0.2962889E-07  0.0000000E+00 -0.3359476E-02
 -0.4906239E-02  0.0000000E+00 -0.5050505E-02 -0.3685830E-07  0.0000000E+00 -0.3359565E-02
 -0.4866782E-02  0.0000000E+00 -0.5050505E-02 -0.4620793E-07  0.0000000E+00 -0.3359676E-02
 -0.4827325E-02  0.0000000E+00 -0.5050505E-02 -0.5843549E-07  0.0000000E+00 -0.3359816E-02
 -0.4769372E-02  0.0000000E+00 -0.5050505E-02 -0.7463007E-07  0.0000000E+00 -0.3359993E-02
 -0.4690458E-02  0.0000000E+00 -0.5050505E-02 -0.9638912E-07  0.0000000E+00 -0.3360221E-02
 -0.4611543E-02  0.0000000E+00 -0.5050505E-02 -0.1261105E-06  0.0000000E+00 -0.3360518E-02
 -0.4503035E-02  0.0000000E+00 -0.5050505E-02 -0.1674895E-06  0.0000000E+00 -0.3360910E-02
 -0.4345206E-02  0.0000000E+00 -0.5050505E-02 -0.2263979E-06  0.0000000E+00 -0.3361436E-02
 -0.4187378E-02  0.0000000E+00 -0.5050505E-02 -0.3125026E-06  0.0000000E+00 -0.3362155E-02
 -0.3985156E-02  0.0000000E+00 -0.5050505E-02 -0.4424032E-06  0.0000000E+00 -0.3363162E-02
 -0.3669499E-02  0.0000000E+00 -0.5050505E-02 -0.6460685E-06  0.0000000E+00 -0.3364615E-02
 -0.3353842E-02  0.0000000E+00 -0.5050505E-02 -0.9809890E-06  0.0000000E+00 -0.3366787E-02
 -0.2978990E-02  0.0000000E+00 -0.5050505E-02 -0.1565921E-05  0.0000000E+00 -0.3370187E-02
 -0.2347676E-02  0.0000000E+00 -0.5050505E-02 -0.2669347E-05  0.0000000E+00 -0.3375842E-02
 -0.1716362E-02  0.0000000E+00 -0.5050505E-02 -0.4967654E-05  0.0000000E+00 -0.3386043E-02
 -0.1025842E-02  0.0000000E+00 -0.5050505E-02 -0.1039049E-04  0.0000000E+00 -0.3406571E-02
  0.2367855E-03  0.0000000E+00 -0.5050505E-02 -0.2522495E-04  0.0000000E+00 -0.3454234E-02
  0.1499413E-02  0.0000000E+00 -0.5050505E-02 -0.7277409E-04  0.0000000E+00 -0.3585769E-02
  0.5287294E-02  0.0000000E+00 -0.5050505E-02 -0.1292015E-02  0.0000000E+00 -0.2785114E-02
 -0.5050505E-02  0.0000000E+00 -0.5050505E-02 -0.6854318E-11  0.0000000E+00 -0.2984434E-02
 -0.5050505E-02  0.0000000E+00 -0.5050505E-02 -0.5575773E-11  0.0000000E+00 -0.2984434E-02
 -0.5050505E-02  0.0000000E+00 -0.5050505E-02  0.3427783E-11  0.0000000E+00 -0.2984434E-02
 -0.5050505E-02  0.0000000E+00 -0.5050505E-02  0.3259603E-11  0.0000000E+00 -0.2984434E-02
 -0.5050505E-02  0.0000000E+00 -0.5050505E-02 -0.7720199E-12  0.0000000E+00 -0.2984434E-02
 -0.5050505E-02  0.0000000E+00 -0.5050505E-02 -0.2663429E-11  0.0000000E+00 -0.2984434E-02
 -0.5050504E-02  0.0000000E+00 -0.5050505E-02 -0.2934542E-11  0.0000000E+00 -0.2984434E-02
 -0.5050501E-02  0.0000000E+00 -0.5050505E-02 -0.3460533E-11  0.0000000E+00 -0.2984434E-02
 -0.5050495E-02  0.0000000E+00 -0.5050505E-02 -0.6044781E-11  0.0000000E+00 -0.2984434E-02
 -0.5050482E-02  0.0000000E+00 -0.5050505E-02 -0.7511588E-11  0.0000000E+00 -0.2984434E-02
 -0.5050449E-02  0.0000000E+00 -0.5050505E-02 -0.8255773E-11  0.0000000E+00 -0.2984434E-02
 -0.5050376E-02  0.0000000E+00 -0.5050505E-02 -0.8816434E-11  0.0000000E+00 -0.2984434E-02
 -0.5050299E-02  0.0000000E+00 -0.5050505E-02 -0.9452711E-11  0.0000000E+00 -0.2984434E-02
 -0.5050178E-02  0.0000000E+00 -0.5050505E-02 -0.1018266E-10  0.0000000E+00 -0.2984434E-02
 -0.5050018E-02  0.0000000E+00 -0.5050505E-02 -0.1087041E-10  0.0000000E+00 -0.2984434E-02
 -0.5049710E-02  0.0000000E+00 -0.5050505E-02 -0.1137071E-10  0.0000000E+00 -0.2984434E-02
 -0.5049253E-02  0.0000000E+00 -0.5050505E-02 -0.1195593E-10  0.0000000E+00 -0.2984434E-02
 -0.5048636E-02  0.0000000E+00 -0.5050505E-02 -0.1433964E-10  0.0000000E+00 -0.2984434E-02
 -0.5047442E-02  0.0000000E+00 -0.5050505E-02 -0.1219985E-10  0.0000000E+00 -0.2984434E-02
 -0.5045727E-02  0.0000000E+00 -0.5050505E-02 -0.1460474E-10  0.0000000E+00 -0.2984434E-02
 -0.5043261E-02  0.0000000E+00 -0.5050505E-02 -0.1987485E-10  0.0000000E+00 -0.2984434E-02
 -0.5038714E-02  0.0000000E+00 -0.5050505E-02 -0.1789422E-10  0.0000000E+00 -0.2984434E-02
 -0.5032318E-02  0.0000000E+00 -0.5050505E-02 -0.2110073E-10  0.0000000E+00 -0.2984434E-02
 -0.5022454E-02  0.0000000E+00 -0.5050505E-02 -0.2364398E-10  0.0000000E+00 -0.2984434E-02
 -0.5012589E-02  0.0000000E+00 -0.5050505E-02 -0.2491056E-10  0.0000000E+00 -0.2984434E-02
 -0.5002725E-02  0.0000000E+00 -0.5050505E-02 -0.2940338E-10  0.0000000E+00 -0.2984434E-02
 -0.4992860E-02  0.0000000E+00 -0.5050505E-02 -0.3186767E-10  0.0000000E+00 -0.2984434E-02
 -0.4976523E-02  0.0000000E+00 -0.5050505E-02 -0.3656420E-10  0.0000000E+00 -0.2984434E-02
 -0.4956794E-02  0.0000000E+00 -0.5050505E-02 -0.4350976E-10  0.0000000E+00 -0.2984434E-02
 -0.4937066E-02  0.0000000E+00 -0.5050505E-02 -0.4887775E-10  0.0000000E+00 -0.2984434E-02
 -0.4906239E-02  0.0000000E+00 -0.5050505E-02 -0.5766369E-10  0.0000000E+00 -0.2984434E-02
 -0.4866782E-02  0.0000000E+00 -0.5050505E-02 -0.6772479E-10  0.0000000E+00 -0.2984434E-02
 -0.4827325E-02  0.0000000E+00 -0.5050505E-02 -0.7152070E-10  0.0000000E+00 -0.2984434E-02
 -0.4769372E-02  0.0000000E+00 -0.5050505E-02 -0.8657283E-10  0.0000000E+00 -0.2984434E-02
 -0.4690458E-02  0.0000000E+00 -0.5050505E-02 -0.9344902E-10  0.0000000E+00 -0.2984435E-02
 -0.4611543E-02  0.0000000E+00 -0.5050505E-02 -0.1043934E-09  0.0000000E+00 -0.2984435E-02
 -0.4503035E-02  0.0000000E+00 -0.5050505E-02 -0.1212119E-09  0.0000000E+00 -0.2984435E-02
 -0.4345206E-02  0.0000000E+00 -0.5050505E-02 -0.1379926E-09  0.0000000E+00 -0.2984435E-02
 -0.4187378E-02  0.0000000E+00 -0.5050505E-02 -0.1567261E-09  0.0000000E+00 -0.2984435E-02
 -0.3985156E-02  0.0000000E+00 -0.5050505E-02 -0.1776158E-09  0.0000000E+00 -0.2984435E-02
 -0.3669499E-02  0.0000000E+00 -0.5050505E-02 -0.2068535E-09  0.0000000E+00 -0.2984435E-02
 -0.3353842E-02  0.0000000E+00 -0.5050505E-02 -0.2351991E-09  0.0000000E+00 -0.2984435E-02
 -0.2978990E-02  0.0000000E+00 -0.5050505E-02 -0.2680674E-09  0.0000000E+00 -0.2984436E-02
 -0.2347676E-02  0.0000000E+00 -0.5050505E-02 -0.3045224E-09  0.0000000E+00 -0.2984436E-02
 -0.1716362E-02  0.0000000E+00 -0.5050505E-02 -0.3474151E-09  0.0000000E+00 -0.2984436E-02
 -0.1025842E-02  0.0000000E+00 -0.5050505E-02 -0.3954541E-09  0.0000000E+00 -0.2984437E-02
  0.2367855E-03  0.0000000E+00 -0.5050505E-02 -0.4512011E-09  0.0000000E+00 -0.2984437E-02
  0.1499413E-02  0.0000000E+00 -0.5050505E-02 -0.5154984E-09  0.0000000E+00 -0.2984437E-02
  0.2762042E-02  0.0000000E+00 -0.5050505E-02 -0.5899928E-09  0.0000000E+00 -0.2984438E-02
 -0.5050505E-02  0.0000000E+00 -0.5050505E-02 -0.6770898E-09  0.0000000E+00 -0.2984438E-02
 -0.5050505E-02  0.0000000E+00 -0.5050505E-02 -0.7804206E-09  0.0000000E+00 -0.2984439E-02
 -0.5050505E-02  0.0000000E+00 -0.5050505E-02 -0.8948319E-09  0.0000000E+00 -0.2984440E-02
 -0.5050505E-02  0.0000000E+00 -0.5050505E-02 -0.1026767E-08  0.0000000E+00 -0.2984441E-02
 -0.5050505E-02  0.0000000E+00 -0.5050505E-02 -0.1184770E-08  0.0000000E+00 -0.2984442E-02
 -0.5050505E-02  0.0000000E+00 -0.5050505E-02 -0.1364178E-08  0.0000000E+00 -0.2984443E-02
 -0.5050505E-02  0.0000000E+00 -0.5050505E-02 -0.1572792E-08  0.0000000E+00 -0.2984444E-02
 -0.5050504E-02  0.0000000E+00 -0.5050505E-02 -0.1817133E-08  0.0000000E+00 -0.2984445E-02
 -0.5050501E-02  0.0000000E+00 -0.5050505E-02 -0.2100411E-08  0.0000000E+00 -0.2984447E-02
 -0.5050495E-02  0.0000000E+00 -0.5050505E-02 -0.2434138E-08  0.0000000E+00 -0.2984449E-02
 -0.5050482E-02  0.0000000E+00 -0.5050505E-02 -0.2821803E-08  0.0000000E+00 -0.2984451E-02
 -0.5050449E-02  0.0000000E+00 -0.5050505E-02 -0.3276137E-08  0.0000000E+00 -0.2984454E-02
 -0.5050376E-02  0.0000000E+00 -0.5050505E-02 -0.3812010E-08  0.0000000E+00 -0.2984457E-02
 -0.5050299E-02  0.0000000E+00 -0.5050505E-02 -0.4441271E-08  0.0000000E+00 -0.2984461E-02
 -0.5050178E-02  0.0000000E+00 -0.5050505E-02 -0.5184226E-08  0.0000000E+00 -0.2984465E-02
 -0.5050018E-02  0.0000000E+00 -0.5050505E-02 -0.6063247E-08  0.0000000E+00 -0.2984470E-02
 -0.5049710E-02  0.0000000E+00 -0.5050505E-02 -0.7105914E-08  0.0000000E+00 -0.2984475E-02
 -0.5049253E-02  0.0000000E+00 -0.5050505E-02 -0.8345974E-08  0.0000000E+00 -0.2984482E-02
 -0.5048636E-02  0.0000000E+00 -0.5050505E-02 -0.9825268E-08  0.0000000E+00 -0.2984490E-02
 -0.5047442E-02  0.0000000E+00 -0.5050505E-02 -0.1159563E-07  0.0000000E+00 -0.2984499E-02
 -0.5045727E-02  0.0000000E+00 -0.5050505E-02 -0.1372129E-07  0.0000000E+00 -0.2984510E-02
 -0.5043261E-02  0.0000000E+00 -0.5050505E-02 -0.1628301E-07  0.0000000E+00 -0.2984523E-02
 -0.5038714E-02  0.0000000E+00 -0.5050505E-02 -0.1938236E-07  0.0000000E+00 -0.2984538E-02
 -0.5032318E-02  0.0000000E+00 -0.5050505E-02 -0.2314791E-07  0.0000000E+00 -0.2984557E-02
 -0.5022454E-02  0.0000000E+00 -0.5050505E-02 -0.2774405E-07  0.0000000E+00 -0.2984578E-02
 -0.5012589E-02  0.0000000E+00 -0.5050505E-02 -0.3338183E-07  0.0000000E+00 -0.2984605E-02
 -0.5002725E-02  0.0000000E+00 -0.5050505E-02 -0.4033475E-07  0.0000000E+00 -0.2984636E-02
 -0.4992860E-02  0.0000000E+00 -0.5050505E-02 -0.4896054E-07  0.0000000E+00 -0.2984675E-02
 -0.4976523E-02  0.0000000E+00 -0.5050505E-02 -0.5973092E-07  0.0000000E+00 -0.2984721E-02
 -0.4956794E-02  0.0000000E+00 -0.5050505E-02 -0.7327510E-07  0.0000000E+00 -0.2984778E-02
 -0.4937066E-02  0.0000000E+00 -0.5050505E-02 -0.9044164E-07  0.0000000E+00 -0.2984848E-02
 -0.4906239E-02  0.0000000E+00 -0.5050505E-02 -0.1123894E-06  0.0000000E+00 -0.2984934E-02
 -0.4866782E-02  0.0000000E+00 -0.5050505E-02 -0.1407233E-06  0.0000000E+00 -0.2985042E-02
 -0.4827325E-02  0.0000000E+00 -0.5050505E-02 -0.1777006E-06  0.0000000E+00 -0.2985177E-02
 -0.4769372E-02  0.0000000E+00 -0.5050505E-02 -0.2265509E-06  0.0000000E+00 -0.2985347E-02
 -0.4690458E-02  0.0000000E+00 -0.5050505E-02 -0.2919860E-06  0.0000000E+00 -0.2985566E-02
 -0.4611543E-02  0.0000000E+00 -0.5050505E-02 -0.3810311E-06  0.0000000E+00 -0.2985847E-02
 -0.4503035E-02  0.0000000E+00 -0.5050505E-02 -0.5044239E-06  0.0000000E+00 -0.2986216E-02
 -0.4345206E-02  0.0000000E+00 -0.5050505E-02 -0.6790475E-06  0.0000000E+00 -0.2986705E-02
 -0.4187378E-02  0.0000000E+00 -0.5050505E-02 -0.9323248E-06  0.0000000E+00 -0.2987364E-02
 -0.3985156E-02  0.0000000E+00 -0.5050505E-02 -0.1310506E-05  0.0000000E+00 -0.2988269E-02
 -0.3669499E-02  0.0000000E+00 -0.5050505E-02 -0.1895083E-05  0.0000000E+00 -0.2989539E-02
 -0.3353842E-02  0.0000000E+00 -0.5050505E-02 -0.2837136E-05  0.0000000E+00 -0.2991363E-02
 -0.2978990E-02  0.0000000E+00 -0.5050505E-02 -0.4433840E-05  0.0000000E+00 -0.2994046E-02
 -0.2347676E-02  0.0000000E+00 -0.5050505E-02 -0.7310819E-05  0.0000000E+00 -0.2998074E-02
 -0.1716362E-02  0.0000000E+00 -0.5050505E-02 -0.1288941E-04  0.0000000E+00 -0.3004112E-02
 -0.1025842E-02  0.0000000E+00 -0.5050505E-02 -0.2467469E-04  0.0000000E+00 -0.3012415E-02
  0.2367855E-03  0.0000000E+00 -0.5050505E-02 -0.5205948E-04  0.0000000E+00 -0.3018675E-02
  0.1499413E-02  0.0000000E+00 -0.5050505E-02 -0.1222484E-03  0.0000000E+00 -0.2990220E-02
  0.5287294E-02  0.0000000E+00 -0.5050505E-02 -0.3193778E-03  0.0000000E+00 -0.2742554E-02
 -0.5050505E-02  0.0000000E+00 -0.5050505E-02  0.4655492E-12  0.0000000E+00 -0.2661054E-02
 -0.5050505E-02  0.0000000E+00 -0.5050505E-02 -0.4538886E-11  0.0000000E+00 -0.2661054E-02
 -0.5050505E-02  0.0000000E+00 -0.5050505E-02  0.1244065E-11  0.0000000E+00 -0.2661054E-02
 -0.5050505E-02  0.0000000E+00 -0.5050505E-02  0.4330093E-11  0.0000000E+00 -0.2661054E-02
 -0.5050505E-02  0.0000000E+00 -0.5050505E-02  0.4331285E-12  0.0000000E+00 -0.2661054E-02
 -0.5050505E-02  0.0000000E+00 -0.5050505E-02 -0.3549795E-11  0.0000000E+00 -0.2661054E-02
 -0.5050504E-02  0.0000000E+00 -0.5050505E-02 -0.6179300E-11  0.0000000E+00 -0.2661054E-02
 -0.5050501E-02  0.0000000E+00 -0.5050505E-02 -0.7096500E-11  0.0000000E+00 -0.2661054E-02
 -0.5050495E-02  0.0000000E+00 -0.5050505E-02 -0.1022969E-10  0.0000000E+00 -0.2661054E-02
 -0.5050482E-02  0.0000000E+00 -0.5050505E-02 -0.1236913E-10  0.0000000E+00 -0.2661054E-02
 -0.5050449E-02  0.0000000E+00 -0.5050505E-02 -0.1371187E-10  0.0000000E+00 -0.2661054E-02
 -0.5050376E-02  0.0000000E+00 -0.5050505E-02 -0.1481905E-10  0.0000000E+00 -0.2661054E-02
 -0.5050299E-02  0.0000000E+00 -0.5050505E-02 -0.1602100E-10  0.0000000E+00 -0.2661054E-02
 -0.5050178E-02  0.0000000E+00 -0.5050505E-02 -0.1735045E-10  0.0000000E+00 -0.2661054E-02
 -0.5050018E-02  0.0000000E+00 -0.5050505E-02 -0.1855576E-10  0.0000000E+00 -0.2661054E-02
 -0.5049710E-02  0.0000000E+00 -0.5050505E-02 -0.1924925E-10  0.0000000E+00 -0.2661054E-02
 -0.5049253E-02  0.0000000E+00 -0.5050505E-02 -0.1977504E-10  0.0000000E+00 -0.2661054E-02
 -0.5048636E-02  0.0000000E+00 -0.5050505E-02 -0.2462784E-10  0.0000000E+00 -0.2661054E-02
 -0.5047442E-02  0.0000000E+00 -0.5050505E-02 -0.2332800E-10  0.0000000E+00 -0.2661054E-02
 -0.5045727E-02  0.0000000E+00 -0.5050505E-02 -0.2375961E-10  0.0000000E+00 -0.2661054E-02
 -0.5043261E-02  0.0000000E+00 -0.5050505E-02 -0.3293890E-10  0.0000000E+00 -0.2661054E-02
 -0.5038714E-02  0.0000000E+00 -0.5050505E-02 -0.3225409E-10  0.0000000E+00 -0.2661054E-02
 -0.5032318E-02  0.0000000E+00 -0.5050505E-02 -0.3645382E-10  0.0000000E+00 -0.2661054E-02
 -0.5022454E-02  0.0000000E+00 -0.5050505E-02 -0.4074992E-10  0.0000000E+00 -0.2661054E-02
 -0.5012589E-02  0.0000000E+00 -0.5050505E-02 -0.4206041E-10  0.0000000E+00 -0.2661054E-02
 -0.5002725E-02  0.0000000E+00 -0.5050505E-02 -0.5020285E-10  0.0000000E+00 -0.2661054E-02
 -0.4992860E-02  0.0000000E+00 -0.5050505E-02 -0.5562742E-10  0.0000000E+00 -0.2661054E-02
 -0.4976523E-02  0.0000000E+00 -0.5050505E-02 -0.6294553E-10  0.0000000E+00 -0.2661054E-02
 -0.4956794E-02  0.0000000E+00 -0.5050505E-02 -0.7562718E-10  0.0000000E+00 -0.2661054E-02
 -0.4937066E-02  0.0000000E+00 -0.5050505E-02 -0.8469520E-10  0.0000000E+00 -0.2661054E-02
 -0.4906239E-02  0.0000000E+00 -0.5050505E-02 -0.9850698E-10  0.0000000E+00 -0.2661054E-02
 -0.4866782E-02  0.0000000E+00 -0.5050505E-02 -0.1162392E-09  0.0000000E+00 -0.2661054E-02
 -0.4827325E-02  0.0000000E+00 -0.5050505E-02 -0.1237789E-09  0.0000000E+00 -0.2661054E-02
 -0.4769372E-02  0.0000000E+00 -0.5050505E-02 -0.1456402E-09  0.0000000E+00 -0.2661054E-02
 -0.4690458E-02  0.0000000E+00 -0.5050505E-02 -0.1619485E-09  0.0000000E+00 -0.2661054E-02
 -0.4611543E-02  0.0000000E+00 -0.5050505E-02 -0.1807444E-09  0.0000000E+00 -0.2661054E-02
 -0.4503035E-02  0.0000000E+00 -0.5050505E-02 -0.2067839E-09  0.0000000E+00 -0.2661055E-02
 -0.4345206E-02  0.0000000E+00 -0.5050505E-02 -0.2370636E-09  0.0000000E+00 -0.2661055E-02
 -0.4187378E-02  0.0000000E+00 -0.5050505E-02 -0.2705516E-09  0.0000000E+00 -0.2661055E-02
 -0.3985156E-02  0.0000000E+00 -0.5050505E-02 -0.3061504E-09  0.0000000E+00 -0.2661055E-02
 -0.3669499E-02  0.0000000E+00 -0.5050505E-02 -0.3536631E-09  0.0000000E+00 -0.2661055E-02
 -0.3353842E-02  0.0000000E+00 -0.5050505E-02 -0.4051915E-09  0.0000000E+00 -0.2661055E-02
 -0.2978990E-02  0.0000000E+00 -0.5050505E-02 -0.4611919E-09  0.0000000E+00 -0.2661056E-02
 -0.2347676E-02  0.0000000E+00 -0.5050505E-02 -0.5223040E-09  0.0000000E+00 -0.2661056E-02
 -0.1716362E-02  0.0000000E+00 -0.5050505E-02 -0.5958963E-09  0.0000000E+00 -0.2661056E-02
 -0.1025842E-02  0.0000000E+00 -0.5050505E-02 -0.6788841E-09  0.0000000E+00 -0.2661056E-02
  0.2367855E-03  0.0000000E+00 -0.5050505E-02 -0.7743273E-09  0.0000000E+00 -0.2661057E-02
  0.1499413E-02  0.0000000E+00 -0.5050505E-02 -0.8858545E-09  0.0000000E+00 -0.2661057E-02
  0.2762042E-02  0.0000000E+00 -0.5050505E-02 -0.1013388E-08  0.0000000E+00 -0.2661058E-02
 -0.5050505E-02  0.0000000E+00 -0.5050505E-02 -0.1162378E-08  0.0000000E+00 -0.2661058E-02
 -0.5050505E-02  0.0000000E+00 -0.5050505E-02 -0.1337758E-08  0.0000000E+00 -0.2661059E-02
 -0.5050505E-02  0.0000000E+00 -0.5050505E-02 -0.1536469E-08  0.0000000E+00 -0.2661060E-02
 -0.5050505E-02  0.0000000E+00 -0.5050505E-02 -0.1763053E-08  0.0000000E+00 -0.2661060E-02
 -0.5050505E-02  0.0000000E+00 -0.5050505E-02 -0.2030615E-08  0.0000000E+00 -0.2661061E-02
 -0.5050505E-02  0.0000000E+00 -0.5050505E-02 -0.2338996E-08  0.0000000E+00 -0.2661062E-02
 -0.5050505E-02  0.0000000E+00 -0.5050505E-02 -0.2695904E-08  0.0000000E+00 -0.2661064E-02
 -0.5050504E-02  0.0000000E+00 -0.5050505E-02 -0.3114395E-08  0.0000000E+00 -0.2661065E-02
 -0.5050501E-02  0.0000000E+00 -0.5050505E-02 -0.3599440E-08  0.0000000E+00 -0.2661067E-02
 -0.5050495E-02  0.0000000E+00 -0.5050505E-02 -0.4169046E-08  0.0000000E+00 -0.2661069E-02
 -0.5050482E-02  0.0000000E+00 -0.5050505E-02 -0.4832990E-08  0.0000000E+00 -0.2661071E-02
 -0.5050449E-02  0.0000000E+00 -0.5050505E-02 -0.5609377E-08  0.0000000E+00 -0.2661074E-02
 -0.5050376E-02  0.0000000E+00 -0.5050505E-02 -0.6523390E-08  0.0000000E+00 -0.2661077E-02
 -0.5050299E-02  0.0000000E+00 -0.5050505E-02 -0.7598400E-08  0.0000000E+00 -0.2661080E-02
 -0.5050178E-02  0.0000000E+00 -0.5050505E-02 -0.8866384E-08  0.0000000E+00 -0.2661084E-02
 -0.5050018E-02  0.0000000E+00 -0.5050505E-02 -0.1036563E-07  0.0000000E+00 -0.2661089E-02
 -0.5049710E-02  0.0000000E+00 -0.5050505E-02 -0.1214293E-07  0.0000000E+00 -0.2661095E-02
 -0.5049253E-02  0.0000000E+00 -0.5050505E-02 -0.1425547E-07  0.0000000E+00 -0.2661101E-02
 -0.5048636E-02  0.0000000E+00 -0.5050505E-02 -0.1677373E-07  0.0000000E+00 -0.2661109E-02
 -0.5047442E-02  0.0000000E+00 -0.5050505E-02 -0.1978515E-07  0.0000000E+00 -0.2661118E-02
 -0.5045727E-02  0.0000000E+00 -0.5050505E-02 -0.2339803E-07  0.0000000E+00 -0.2661129E-02
 -0.5043261E-02  0.0000000E+00 -0.5050505E-02 -0.2774802E-07  0.0000000E+00 -0.2661141E-02
 -0.5038714E-02  0.0000000E+00 -0.5050505E-02 -0.3300562E-07  0.0000000E+00 -0.2661156E-02
 -0.5032318E-02  0.0000000E+00 -0.5050505E-02 -0.3938625E-07  0.0000000E+00 -0.2661174E-02
 -0.5022454E-02  0.0000000E+00 -0.5050505E-02 -0.4716447E-07  0.0000000E+00 -0.2661195E-02
 -0.5012589E-02  0.0000000E+00 -0.5050505E-02 -0.5669225E-07  0.0000000E+00 -0.2661221E-02
 -0.5002725E-02  0.0000000E+00 -0.5050505E-02 -0.6842421E-07  0.0000000E+00 -0.2661251E-02
 -0.4992860E-02  0.0000000E+00 -0.5050505E-02 -0.8295302E-07  0.0000000E+00 -0.2661288E-02
 -0.4976523E-02  0.0000000E+00 -0.5050505E-02 -0.1010577E-06  0.0000000E+00 -0.2661333E-02
 -0.4956794E-02  0.0000000E+00 -0.5050505E-02 -0.1237726E-06  0.0000000E+00 -0.2661387E-02
 -0.4937066E-02  0.0000000E+00 -0.5050505E-02 -0.1524865E-06  0.0000000E+00 -0.2661453E-02
 -0.4906239E-02  0.0000000E+00 -0.5050505E-02 -0.1890853E-06  0.0000000E+00 -0.2661534E-02
 -0.4866782E-02  0.0000000E+00 -0.5050505E-02 -0.2361639E-06  0.0000000E+00 -0.2661635E-02
 -0.4827325E-02  0.0000000E+00 -0.5050505E-02 -0.2973442E-06  0.0000000E+00 -0.2661760E-02
 -0.4769372E-02  0.0000000E+00 -0.5050505E-02 -0.3777618E-06  0.0000000E+00 -0.2661917E-02
 -0.4690458E-02  0.0000000E+00 -0.5050505E-02 -0.4848271E-06  0.0000000E+00 -0.2662114E-02
 -0.4611543E-02  0.0000000E+00 -0.5050505E-02 -0.6294428E-06  0.0000000E+00 -0.2662366E-02
 -0.4503035E-02  0.0000000E+00 -0.5050505E-02 -0.8280003E-06  0.0000000E+00 -0.2662689E-02
 -0.4345206E-02  0.0000000E+00 -0.5050505E-02 -0.1105743E-05  0.0000000E+00 -0.2663107E-02
 -0.4187378E-02  0.0000000E+00 -0.5050505E-02 -0.1502600E-05  0.0000000E+00 -0.2663652E-02
 -0.3985156E-02  0.0000000E+00 -0.5050505E-02 -0.2083625E-05  0.0000000E+00 -0.2664371E-02
 -0.3669499E-02  0.0000000E+00 -0.5050505E-02 -0.2958268E-05  0.0000000E+00 -0.2665319E-02
 -0.3353842E-02  0.0000000E+00 -0.5050505E-02 -0.4317059E-05  0.0000000E+00 -0.2666568E-02
 -0.2978990E-02  0.0000000E+00 -0.5050505E-02 -0.6503155E-05  0.0000000E+00 -0.2668169E-02
 -0.2347676E-02  0.0000000E+00 -0.5050505E-02 -0.1015310E-04  0.0000000E+00 -0.2670063E-02
 -0.1716362E-02  0.0000000E+00 -0.5050505E-02 -0.1646518E-04  0.0000000E+00 -0.2671736E-02
 -0.1025842E-02  0.0000000E+00 -0.5050505E-02 -0.2763790E-04  0.0000000E+00 -0.2671165E-02
  0.2367855E-03  0.0000000E+00 -0.5050505E-02 -0.4712911E-04  0.0000000E+00 -0.2661879E-02
  0.1499413E-02  0.0000000E+00 -0.5050505E-02 -0.7669586E-04  0.0000000E+00 -0.2626990E-02
  0.5287294E-02  0.0000000E+00 -0.5050505E-02 -0.9220049E-04  0.0000000E+00 -0.2543682E-02
 -0.5050505E-02  0.0000000E+00 -0.5050505E-02  0.8828553E-11  0.0000000E+00 -0.2379429E-02
 -0.5050505E-02  0.0000000E+00 -0.5050505E-02  0.1598739E-11  0.0000000E+00 -0.2379429E-02
 -0.5050505E-02  0.0000000E+00 -0.5050505E-02 -0.9320047E-12  0.0000000E+00 -0.2379429E-02
 -0.5050505E-02  0.0000000E+00 -0.5050505E-02  0.3003395E-11  0.0000000E+00 -0.2379429E-02
 -0.5050505E-02  0.0000000E+00 -0.5050505E-02  0.5273070E-12  0.0000000E+00 -0.2379429E-02
 -0.5050505E-02  0.0000000E+00 -0.5050505E-02 -0.4454092E-11  0.0000000E+00 -0.2379429E-02
 -0.5050504E-02  0.0000000E+00 -0.5050505E-02 -0.8322970E-11  0.0000000E+00 -0.2379429E-02
 -0.5050501E-02  0.0000000E+00 -0.5050505E-02 -0.1112421E-10  0.0000000E+00 -0.2379429E-02
 -0.5050495E-02  0.0000000E+00 -0.5050505E-02 -0.1451535E-10  0.0000000E+00 -0.2379429E-02
 -0.5050482E-02  0.0000000E+00 -0.5050505E-02 -0.1703509E-10  0.0000000E+00 -0.2379429E-02
 -0.5050449E-02  0.0000000E+00 -0.5050505E-02 -0.1891855E-10  0.0000000E+00 -0.2379429E-02
 -0.5050376E-02  0.0000000E+00 -0.5050505E-02 -0.2063838E-10  0.0000000E+00 -0.2379429E-02
 -0.5050299E-02  0.0000000E+00 -0.5050505E-02 -0.2249230E-10  0.0000000E+00 -0.2379429E-02
 -0.5050178E-02  0.0000000E+00 -0.5050505E-02 -0.2450903E-10  0.0000000E+00 -0.2379429E-02
 -0.5050018E-02  0.0000000E+00 -0.5050505E-02 -0.2637178E-10  0.0000000E+00 -0.2379429E-02
 -0.5049710E-02  0.0000000E+00 -0.5050505E-02 -0.2745535E-10  0.0000000E+00 -0.2379429E-02
 -0.5049253E-02  0.0000000E+00 -0.5050505E-02 -0.2785264E-10  0.0000000E+00 -0.2379429E-02
 -0.5048636E-02  0.0000000E+00 -0.5050505E-02 -0.3387270E-10  0.0000000E+00 -0.2379429E-02
 -0.5047442E-02  0.0000000E+00 -0.5050505E-02 -0.3580904E-10  0.0000000E+00 -0.2379429E-02
 -0.5045727E-02  0.0000000E+00 -0.5050505E-02 -0.3447736E-10  0.0000000E+00 -0.2379429E-02
 -0.5043261E-02  0.0000000E+00 -0.5050505E-02 -0.4593819E-10  0.0000000E+00 -0.2379429E-02
 -0.5038714E-02  0.0000000E+00 -0.5050505E-02 -0.4722711E-10  0.0000000E+00 -0.2379429E-02
 -0.5032318E-02  0.0000000E+00 -0.5050505E-02 -0.5182815E-10  0.0000000E+00 -0.2379429E-02
 -0.5022454E-02  0.0000000E+00 -0.5050505E-02 -0.5934608E-10  0.0000000E+00 -0.2379429E-02
 -0.5012589E-02  0.0000000E+00 -0.5050505E-02 -0.6020110E-10  0.0000000E+00 -0.2379429E-02
 -0.5002725E-02  0.0000000E+00 -0.5050505E-02 -0.7132914E-10  0.0000000E+00 -0.2379429E-02
 -0.4992860E-02  0.0000000E+00 -0.5050505E-02 -0.8076328E-10  0.0000000E+00 -0.2379429E-02
 -0.4976523E-02  0.0000000E+00 -0.5050505E-02 -0.9098420E-10  0.0000000E+00 -0.2379429E-02
 -0.4956794E-02  0.0000000E+00 -0.5050505E-02 -0.1092893E-09  0.0000000E+00 -0.2379429E-02
 -0.4937066E-02  0.0000000E+00 -0.5050505E-02 -0.1226143E-09  0.0000000E+00 -0.2379429E-02