title = "dataset feddes"
variables = "x", "y", "z", "vx", "vy", "vz"
zone t = "velocities, solution time =  0.000E+00 days        " i =   49, j =   49, k =    1,  f=point
  0.2040816E-01  0.0000000E+00  0.2040816E-01  0.0000000E+00  0.0000000E+00  0.0000000E+00
  0.6122449E-01  0.0000000E+00  0.2040816E-01  0.0000000E+00  0.0000000E+00  0.0000000E+00
  0.1020408E+00  0.0000000E+00  0.2040816E-01  0.0000000E+00  0.0000000E+00  0.0000000E+00
  0.1428571E+00  0.0000000E+00  0.2040816E-01  0.0000000E+00  0.0000000E+00  0.0000000E+00
  0.1836735E+00  0.0000000E+00  0.2040816E-01  0.0000000E+00  0.0000000E+00  0.0000000E+00
  0.2244898E+00  0.0000000E+00  0.2040816E-01  0.0000000E+00  0.0000000E+00  0.0000000E+00
  0.2653061E+00  0.0000000E+00  0.2040816E-01  0.0000000E+00  0.0000000E+00  0.0000000E+00
  0.3061225E+00  0.0000000E+00  0.2040816E-01  0.0000000E+00  0.0000000E+00  0.0000000E+00
  0.3469388E+00  0.0000000E+00  0.2040816E-01  0.0000000E+00  0.0000000E+00  0.0000000E+00
  0.3877551E+00  0.0000000E+00  0.2040816E-01  0.0000000E+00  0.0000000E+00  0.0000000E+00
  0.4285714E+00  0.0000000E+00  0.2040816E-01  0.0000000E+00  0.0000000E+00  0.0000000E+00
  0.4693878E+00  0.0000000E+00  0.2040816E-01  0.0000000E+00  0.0000000E+00  0.0000000E+00
  0.5102041E+00  0.0000000E+00  0.2040816E-01  0.0000000E+00  0.0000000E+00  0.0000000E+00
  0.5510204E+00  0.0000000E+00  0.2040816E-01  0.0000000E+00  0.0000000E+00  0.0000000E+00
  0.5918368E+00  0.0000000E+00  0.2040816E-01  0.0000000E+00  0.0000000E+00  0.0000000E+00
  0.6326531E+00  0.0000000E+00  0.2040816E-01  0.0000000E+00  0.0000000E+00  0.0000000E+00
  0.6734694E+00  0.0000000E+00  0.2040816E-01  0.0000000E+00  0.0000000E+00  0.0000000E+00
  0.7142857E+00  0.0000000E+00  0.2040816E-01  0.0000000E+00  0.0000000E+00  0.0000000E+00
  0.7551020E+00  0.0000000E+00  0.2040816E-01  0.0000000E+00  0.0000000E+00  0.0000000E+00
  0.7959183E+00  0.0000000E+00  0.2040816E-01  0.0000000E+00  0.0000000E+00  0.0000000E+00
  0.8367347E+00  0.0000000E+00  0.2040816E-01  0.0000000E+00  0.0000000E+00  0.0000000E+00
  0.8775510E+00  0.0000000E+00  0.2040816E-01  0.0000000E+00  0.0000000E+00  0.0000000E+00
  0.9183673E+00  0.0000000E+00  0.2040816E-01  0.0000000E+00  0.0000000E+00  0.0000000E+00
  0.9591837E+00  0.0000000E+00  0.2040816E-01  0.0000000E+00  0.0000000E+00  0.0000000E+00
  0.1000000E+01  0.0000000E+00  0.2040816E-01  0.0000000E+00  0.0000000E+00  0.0000000E+00
  0.1040816E+01  0.0000000E+00  0.2040816E-01  0.0000000E+00  0.0000000E+00  0.0000000E+00
  0.1081633E+01  0.0000000E+00  0.2040816E-01  0.0000000E+00  0.0000000E+00  0.0000000E+00
  0.1122449E+01  0.0000000E+00  0.2040816E-01  0.0000000E+00  0.0000000E+00  0.0000000E+00
  0.1163265E+01  0.0000000E+00  0.2040816E-01  0.0000000E+00  0.0000000E+00  0.0000000E+00
  0.1204082E+01  0.0000000E+00  0.2040816E-01  0.0000000E+00  0.0000000E+00  0.0000000E+00
  0.1244898E+01  0.0000000E+00  0.2040816E-01  0.0000000E+00  0.0000000E+00  0.0000000E+00
  0.1285714E+01  0.0000000E+00  0.2040816E-01  0.0000000E+00  0.0000000E+00  0.0000000E+00
  0.1326531E+01  0.0000000E+00  0.2040816E-01  0.0000000E+00  0.0000000E+00  0.0000000E+00
  0.1367347E+01  0.0000000E+00  0.2040816E-01  0.0000000E+00  0.0000000E+00  0.0000000E+00
  0.1408163E+01  0.0000000E+00  0.2040816E-01  0.0000000E+00  0.0000000E+00  0.0000000E+00
  0.1448980E+01  0.0000000E+00  0.2040816E-01  0.0000000E+00  0.0000000E+00  0.0000000E+00
  0.1489796E+01  0.0000000E+00  0.2040816E-01  0.0000000E+00  0.0000000E+00  0.0000000E+00
  0.1530612E+01  0.0000000E+00  0.2040816E-01  0.0000000E+00  0.0000000E+00  0.0000000E+00
  0.1571429E+01  0.0000000E+00  0.2040816E-01  0.0000000E+00  0.0000000E+00  0.0000000E+00
  0.1612245E+01  0.0000000E+00  0.2040816E-01  0.0000000E+00  0.0000000E+00  0.0000000E+00
  0.1653061E+01  0.0000000E+00  0.2040816E-01  0.0000000E+00  0.0000000E+00  0.0000000E+00
  0.1693878E+01  0.0000000E+00  0.2040816E-01  0.0000000E+00  0.0000000E+00  0.0000000E+00
  0.1734694E+01  0.0000000E+00  0.2040816E-01  0.0000000E+00  0.0000000E+00  0.0000000E+00
  0.1775510E+01  0.0000000E+00  0.2040816E-01  0.0000000E+00  0.0000000E+00  0.0000000E+00
  0.1816326E+01  0.0000000E+00  0.2040816E-01  0.0000000E+00  0.0000000E+00  0.0000000E+00
  0.1857143E+01  0.0000000E+00  0.2040816E-01  0.0000000E+00  0.0000000E+00  0.0000000E+00
  0.1897959E+01  0.0000000E+00  0.2040816E-01  0.0000000E+00  0.0000000E+00  0.0000000E+00
  0.1938776E+01  0.0000000E+00  0.2040816E-01  0.0000000E+00  0.0000000E+00  0.0000000E+00
  0.1989796E+01  0.0000000E+00  0.2040816E-01  0.0000000E+00  0.0000000E+00  0.0000000E+00
  0.2040816E-01  0.0000000E+00  0.6122449E-01  0.0000000E+00  0.0000000E+00  0.0000000E+00
  0.6122449E-01  0.0000000E+00  0.6122449E-01  0.0000000E+00  0.0000000E+00  0.0000000E+00
  0.1020408E+00  0.0000000E+00  0.6122449E-01  0.0000000E+00  0.0000000E+00  0.0000000E+00
  0.1428571E+00  0.0000000E+00  0.6122449E-01  0.0000000E+00  0.0000000E+00  0.0000000E+00
  0.1836735E+00  0.0000000E+00  0.6122449E-01  0.0000000E+00  0.0000000E+00  0.0000000E+00
  0.2244898E+00  0.0000000E+00  0.6122449E-01  0.0000000E+00  0.0000000E+00  0.0000000E+00
  0.2653061E+00  0.0000000E+00  0.6122449E-01  0.0000000E+00  0.0000000E+00  0.0000000E+00
  0.3061225E+00  0.0000000E+00  0.6122449E-01  0.0000000E+00  0.0000000E+00  0.0000000E+00
  0.3469388E+00  0.0000000E+00  0.6122449E-01  0.0000000E+00  0.0000000E+00  0.0000000E+00
  0.3877551E+00  0.0000000E+00  0.6122449E-01  0.0000000E+00  0.0000000E+00  0.0000000E+00
  0.4285714E+00  0.0000000E+00  0.6122449E-01  0.0000000E+00  0.0000000E+00  0.0000000E+00
  0.4693878E+00  0.0000000E+00  0.6122449E-01  0.0000000E+00  0.0000000E+00  0.0000000E+00
  0.5102041E+00  0.0000000E+00  0.6122449E-01  0.0000000E+00  0.0000000E+00  0.0000000E+00
  0.5510204E+00  0.0000000E+00  0.6122449E-01  0.0000000E+00  0.0000000E+00  0.0000000E+00
  0.5918368E+00  0.0000000E+00  0.6122449E-01  0.0000000E+00  0.0000000E+00  0.0000000E+00
  0.6326531E+00  0.0000000E+00  0.6122449E-01  0.0000000E+00  0.0000000E+00  0.0000000E+00
  0.6734694E+00  0.0000000E+00  0.6122449E-01  0.0000000E+00  0.0000000E+00  0.0000000E+00
  0.7142857E+00  0.0000000E+00  0.6122449E-01  0.0000000E+00  0.0000000E+00  0.0000000E+00
  0.7551020E+00  0.0000000E+00  0.6122449E-01  0.0000000E+00  0.0000000E+00  0.0000000E+00
  0.7959183E+00  0.0000000E+00  0.6122449E-01  0.0000000E+00  0.0000000E+00  0.0000000E+00
  0.8367347E+00  0.0000000E+00  0.6122449E-01  0.0000000E+00  0.0000000E+00  0.0000000E+00
  0.8775510E+00  0.0000000E+00  0.6122449E-01  0.0000000E+00  0.0000000E+00  0.0000000E+00
  0.9183673E+00  0.0000000E+00  0.6122449E-01  0.0000000E+00  0.0000000E+00  0.0000000E+00
  0.9591837E+00  0.0000000E+00  0.6122449E-01  0.0000000E+00  0.0000000E+00  0.0000000E+00
  0.1000000E+01  0.0000000E+00  0.6122449E-01  0.0000000E+00  0.0000000E+00  0.0000000E+00
  0.1040816E+01  0.0000000E+00  0.6122449E-01  0.0000000E+00  0.0000000E+00  0.0000000E+00
  0.1081633E+01  0.0000000E+00  0.6122449E-01  0.0000000E+00  0.0000000E+00  0.0000000E+00
  0.1122449E+01  0.0000000E+00  0.6122449E-01  0.0000000E+00  0.0000000E+00  0.0000000E+00
  0.1163265E+01  0.0000000E+00  0.6122449E-01  0.0000000E+00  0.0000000E+00  0.0000000E+00
  0.1204082E+01  0.0000000E+00  0.6122449E-01  0.0000000E+00  0.0000000E+00  0.0000000E+00
  0.1244898E+01  0.0000000E+00  0.6122449E-01  0.0000000E+00  0.0000000E+00  0.0000000E+00
  0.1285714E+01  0.0000000E+00  0.6122449E-01  0.0000000E+00  0.0000000E+00  0.0000000E+00
  0.1326531E+01  0.0000000E+00  0.6122449E-01  0.0000000E+00  0.0000000E+00  0.0000000E+00
  0.1367347E+01  0.0000000E+00  0.6122449E-01  0.0000000E+00  0.0000000E+00  0.0000000E+00
  0.1408163E+01  0.0000000E+00  0.6122449E-01  0.0000000E+00  0.0000000E+00  0.0000000E+00
  0.1448980E+01  0.0000000E+00  0.6122449E-01  0.0000000E+00  0.0000000E+00  0.0000000E+00
  0.1489796E+01  0.0000000E+00  0.6122449E-01  0.0000000E+00  0.0000000E+00  0.0000000E+00
  0.1530612E+01  0.0000000E+00  0.6122449E-01  0.0000000E+00  0.0000000E+00  0.0000000E+00
  0.1571429E+01  0.0000000E+00  0.6122449E-01  0.0000000E+00  0.0000000E+00  0.0000000E+00
  0.1612245E+01  0.0000000E+00  0.6122449E-01  0.0000000E+00  0.0000000E+00  0.0000000E+00
  0.1653061E+01  0.0000000E+00  0.6122449E-01  0.0000000E+00  0.0000000E+00  0.0000000E+00
  0.1693878E+01  0.0000000E+00  0.6122449E-01  0.0000000E+00  0.0000000E+00  0.0000000E+00
  0.1734694E+01  0.0000000E+00  0.6122449E-01  0.0000000E+00  0.0000000E+00  0.0000000E+00
  0.1775510E+01  0.0000000E+00  0.6122449E-01  0.0000000E+00  0.0000000E+00  0.0000000E+00
  0.1816326E+01  0.0000000E+00  0.6122449E-01  0.0000000E+00  0.0000000E+00  0.0000000E+00
  0.1857143E+01  0.0000000E+00  0.6122449E-01  0.0000000E+00  0.0000000E+00  0.0000000E+00
  0.1897959E+01  0.0000000E+00  0.6122449E-01  0.0000000E+00  0.0000000E+00  0.0000000E+00
  0.1938776E+01  0.0000000E+00  0.6122449E-01  0.0000000E+00  0.0000000E+00  0.0000000E+00
  0.1989796E+01  0.0000000E+00  0.6122449E-01  0.0000000E+00  0.0000000E+00  0.0000000E+00
  0.2040816E-01  0.0000000E+00  0.1020408E+00  0.0000000E+00  0.0000000E+00  0.0000000E+00
  0.6122449E-01  0.0000000E+00  0.1020408E+00  0.0000000E+00  0.0000000E+00  0.0000000E+00
  0.1020408E+00  0.0000000E+00  0.1020408E+00  0.0000000E+00  0.0000000E+00  0.0000000E+00
  0.1428571E+00  0.0000000E+00  0.1020408E+00  0.0000000E+00  0.0000000E+00  0.0000000E+00
  0.1836735E+00  0.0000000E+00  0.1020408E+00  0.0000000E+00  0.0000000E+00  0.0000000E+00
  0.2244898E+00  0.0000000E+00  0.1020408E+00  0.0000000E+00  0.0000000E+00  0.0000000E+00
  0.2653061E+00  0.0000000E+00  0.1020408E+00  0.0000000E+00  0.0000000E+00  0.0000000E+00
  0.3061225E+00  0.0000000E+00  0.1020408E+00  0.0000000E+00  0.0000000E+00  0.0000000E+00
  0.3469388E+00  0.0000000E+00  0.1020408E+00  0.0000000E+00  0.0000000E+00  0.0000000E+00
  0.3877551E+00  0.0000000E+00  0.1020408E+00  0.0000000E+00  0.0000000E+00  0.0000000E+00
  0.4285714E+00  0.0000000E+00  0.1020408E+00  0.0000000E+00  0.0000000E+00  0.0000000E+00
  0.4693878E+00  0.0000000E+00  0.1020408E+00  0.0000000E+00  0.0000000E+00  0.0000000E+00
  0.5102041E+00  0.0000000E+00  0.1020408E+00  0.0000000E+00  0.0000000E+00  0.0000000E+00
  0.5510204E+00  0.0000000E+00  0.1020408E+00  0.0000000E+00  0.0000000E+00  0.0000000E+00
  0.5918368E+00  0.0000000E+00  0.1020408E+00  0.0000000E+00  0.0000000E+00  0.0000000E+00
  0.6326531E+00  0.0000000E+00  0.1020408E+00  0.0000000E+00  0.0000000E+00  0.0000000E+00
  0.6734694E+00  0.0000000E+00  0.1020408E+00  0.0000000E+00  0.0000000E+00  0.0000000E+00
  0.7142857E+00  0.0000000E+00  0.1020408E+00  0.0000000E+00  0.0000000E+00  0.0000000E+00
  0.7551020E+00  0.0000000E+00  0.1020408E+00  0.0000000E+00  0.0000000E+00  0.0000000E+00
  0.7959183E+00  0.0000000E+00  0.1020408E+00  0.0000000E+00  0.0000000E+00  0.0000000E+00
  0.8367347E+00  0.0000000E+00  0.1020408E+00  0.0000000E+00  0.0000000E+00  0.0000000E+00
  0.8775510E+00  0.0000000E+00  0.1020408E+00  0.0000000E+00  0.0000000E+00  0.0000000E+00
  0.9183673E+00  0.0000000E+00  0.1020408E+00  0.0000000E+00  0.0000000E+00  0.0000000E+00
  0.9591837E+00  0.0000000E+00  0.1020408E+00  0.0000000E+00  0.0000000E+00  0.0000000E+00
  0.1000000E+01  0.0000000E+00  0.1020408E+00  0.0000000E+00  0.0000000E+00  0.0000000E+00
  0.1040816E+01  0.0000000E+00  0.1020408E+00  0.0000000E+00  0.0000000E+00  0.0000000E+00
  0.1081633E+01  0.0000000E+00  0.1020408E+00  0.0000000E+00  0.0000000E+00  0.0000000E+00
  0.1122449E+01  0.0000000E+00  0.1020408E+00  0.0000000E+00  0.0000000E+00  0.0000000E+00
  0.1163265E+01  0.0000000E+00  0.1020408E+00  0.0000000E+00  0.0000000E+00  0.0000000E+00
  0.1204082E+01  0.0000000E+00  0.1020408E+00  0.0000000E+00  0.0000000E+00  0.0000000E+00
  0.1244898E+01  0.0000000E+00  0.1020408E+00  0.0000000E+00  0.0000000E+00  0.0000000E+00
  0.1285714E+01  0.0000000E+00  0.1020408E+00  0.0000000E+00  0.0000000E+00  0.0000000E+00
  0.1326531E+01  0.0000000E+00  0.1020408E+00  0.0000000E+00  0.0000000E+00  0.0000000E+00
  0.1367347E+01  0.0000000E+00  0.1020408E+00  0.0000000E+00  0.0000000E+00  0.0000000E+00
  0.1408163E+01  0.0000000E+00  0.1020408E+00  0.0000000E+00  0.0000000E+00  0.0000000E+00
  0.1448980E+01  0.0000000E+00  0.1020408E+00  0.0000000E+00  0.0000000E+00  0.0000000E+00
  0.1489796E+01  0.0000000E+00  0.1020408E+00  0.0000000E+00  0.0000000E+00  0.0000000E+00
  0.1530612E+01  0.0000000E+00  0.1020408E+00  0.0000000E+00  0.0000000E+00  0.0000000E+00
  0.1571429E+01  0.0000000E+00  0.1020408E+00  0.0000000E+00  0.0000000E+00  0.0000000E+00
  0.1612245E+01  0.0000000E+00  0.1020408E+00  0.0000000E+00  0.0000000E+00  0.0000000E+00
  0.1653061E+01  0.0000000E+00  0.1020408E+00  0.0000000E+00  0.0000000E+00  0.0000000E+00
  0.1693878E+01  0.0000000E+00  0.1020408E+00  0.0000000E+00  0.0000000E+00  0.0000000E+00
  0.1734694E+01  0.0000000E+00  0.1020408E+00  0.0000000E+00  0.0000000E+00  0.0000000E+00
  0.1775510E+01  0.0000000E+00  0.1020408E+00  0.0000000E+00  0.0000000E+00  0.0000000E+00
  0.1816326E+01  0.0000000E+00  0.1020408E+00  0.0000000E+00  0.0000000E+00  0.0000000E+00
  0.1857143E+01  0.0000000E+00  0.1020408E+00  0.0000000E+00  0.0000000E+00  0.0000000E+00
  0.1897959E+01  0.0000000E+00  0.1020408E+00  0.0000000E+00  0.0000000E+00  0.0000000E+00
  0.1938776E+01  0.0000000E+00  0.1020408E+00  0.0000000E+00  0.0000000E+00  0.0000000E+00
  0.1989796E+01  0.0000000E+00  0.1020408E+00  0.0000000E+00  0.0000000E+00  0.0000000E+00
  0.2040816E-01  0.0000000E+00  0.1428571E+00  0.0000000E+00  0.0000000E+00  0.0000000E+00
  0.6122449E-01  0.0000000E+00  0.1428571E+00  0.0000000E+00  0.0000000E+00  0.0000000E+00
  0.1020408E+00  0.0000000E+00  0.1428571E+00  0.0000000E+00  0.0000000E+00  0.0000000E+00
  0.1428571E+00  0.0000000E+00  0.1428571E+00  0.0000000E+00  0.0000000E+00  0.0000000E+00
  0.1836735E+00  0.0000000E+00  0.1428571E+00  0.0000000E+00  0.0000000E+00  0.0000000E+00
  0.2244898E+00  0.0000000E+00  0.1428571E+00  0.0000000E+00  0.0000000E+00  0.0000000E+00
  0.2653061E+00  0.0000000E+00  0.1428571E+00  0.0000000E+00  0.0000000E+00  0.0000000E+00
  0.3061225E+00  0.0000000E+00  0.1428571E+00  0.0000000E+00  0.0000000E+00  0.0000000E+00
  0.3469388E+00  0.0000000E+00  0.1428571E+00  0.0000000E+00  0.0000000E+00  0.0000000E+00
  0.3877551E+00  0.0000000E+00  0.1428571E+00  0.0000000E+00  0.0000000E+00  0.0000000E+00
  0.4285714E+00  0.0000000E+00  0.1428571E+00  0.0000000E+00  0.0000000E+00  0.0000000E+00
  0.4693878E+00  0.0000000E+00  0.1428571E+00  0.0000000E+00  0.0000000E+00  0.0000000E+00
  0.5102041E+00  0.0000000E+00  0.1428571E+00  0.0000000E+00  0.0000000E+00  0.0000000E+00
  0.5510204E+00  0.0000000E+00  0.1428571E+00  0.0000000E+00  0.0000000E+00  0.0000000E+00
  0.5918368E+00  0.0000000E+00  0.1428571E+00  0.0000000E+00  0.0000000E+00  0.0000000E+00
  0.6326531E+00  0.0000000E+00  0.1428571E+00  0.0000000E+00  0.0000000E+00  0.0000000E+00
  0.6734694E+00  0.0000000E+00  0.1428571E+00  0.0000000E+00  0.0000000E+00  0.0000000E+00
  0.7142857E+00  0.0000000E+00  0.1428571E+00  0.0000000E+00  0.0000000E+00  0.0000000E+00
  0.7551020E+00  0.0000000E+00  0.1428571E+00  0.0000000E+00  0.0000000E+00  0.0000000E+00
  0.7959183E+00  0.0000000E+00  0.1428571E+00  0.0000000E+00  0.0000000E+00  0.0000000E+00
  0.8367347E+00  0.0000000E+00  0.1428571E+00  0.0000000E+00  0.0000000E+00  0.0000000E+00
  0.8775510E+00  0.0000000E+00  0.1428571E+00  0.0000000E+00  0.0000000E+00  0.0000000E+00
  0.9183673E+00  0.0000000E+00  0.1428571E+00  0.0000000E+00  0.0000000E+00  0.0000000E+00
  0.9591837E+00  0.0000000E+00  0.1428571E+00  0.0000000E+00  0.0000000E+00  0.0000000E+00
  0.1000000E+01  0.0000000E+00  0.1428571E+00  0.0000000E+00  0.0000000E+00  0.0000000E+00
  0.1040816E+01  0.0000000E+00  0.1428571E+00  0.0000000E+00  0.0000000E+00  0.0000000E+00
  0.1081633E+01  0.0000000E+00  0.1428571E+00  0.0000000E+00  0.0000000E+00  0.0000000E+00
  0.1122449E+01  0.0000000E+00  0.1428571E+00  0.0000000E+00  0.0000000E+00  0.0000000E+00
  0.1163265E+01  0.0000000E+00  0.1428571E+00  0.0000000E+00  0.0000000E+00  0.0000000E+00
  0.1204082E+01  0.0000000E+00  0.1428571E+00  0.0000000E+00  0.0000000E+00  0.0000000E+00
  0.1244898E+01  0.0000000E+00  0.1428571E+00  0.0000000E+00  0.0000000E+00  0.0000000E+00
  0.1285714E+01  0.0000000E+00  0.1428571E+00  0.0000000E+00  0.0000000E+00  0.0000000E+00
  0.1326531E+01  0.0000000E+00  0.1428571E+00  0.0000000E+00  0.0000000E+00  0.0000000E+00
  0.1367347E+01  0.0000000E+00  0.1428571E+00  0.0000000E+00  0.0000000E+00  0.0000000E+00
  0.1408163E+01  0.0000000E+00  0.1428571E+00  0.0000000E+00  0.0000000E+00  0.0000000E+00
  0.1448980E+01  0.0000000E+00  0.1428571E+00  0.0000000E+00  0.0000000E+00  0.0000000E+00
  0.1489796E+01  0.0000000E+00  0.1428571E+00  0.0000000E+00  0.0000000E+00  0.0000000E+00
  0.1530612E+01  0.0000000E+00  0.1428571E+00  0.0000000E+00  0.0000000E+00  0.0000000E+00
  0.1571429E+01  0.0000000E+00  0.1428571E+00  0.0000000E+00  0.0000000E+00  0.0000000E+00
  0.1612245E+01  0.0000000E+00  0.1428571E+00  0.0000000E+00  0.0000000E+00  0.0000000E+00
  0.1653061E+01  0.0000000E+00  0.1428571E+00  0.0000000E+00  0.0000000E+00  0.0000000E+00
  0.1693878E+01  0.0000000E+00  0.1428571E+00  0.0000000E+00  0.0000000E+00  0.0000000E+00
  0.1734694E+01  0.0000000E+00  0.1428571E+00  0.0000000E+00  0.0000000E+00  0.0000000E+00
  0.1775510E+01  0.0000000E+00  0.1428571E+00  0.0000000E+00  0.0000000E+00  0.0000000E+00
  0.1816326E+01  0.0000000E+00  0.1428571E+00  0.0000000E+00  0.0000000E+00  0.0000000E+00
  0.1857143E+01  0.0000000E+00  0.1428571E+00  0.0000000E+00  0.0000000E+00  0.0000000E+00
  0.1897959E+01  0.0000000E+00  0.1428571E+00  0.0000000E+00  0.0000000E+00  0.0000000E+00
  0.1938776E+01  0.0000000E+00  0.1428571E+00  0.0000000E+00  0.0000000E+00  0.0000000E+00
  0.1989796E+01  0.0000000E+00  0.1428571E+00  0.0000000E+00  0.0000000E+00  0.0000000E+00
  0.2040816E-01  0.0000000E+00  0.1836735E+00  0.0000000E+00  0.0000000E+00  0.0000000E+00
  0.6122449E-01  0.0000000E+00  0.1836735E+00  0.0000000E+00  0.0000000E+00  0.0000000E+00
  0.1020408E+00  0.0000000E+00  0.1836735E+00  0.0000000E+00  0.0000000E+00  0.0000000E+00
  0.1428571E+00  0.0000000E+00  0.1836735E+00  0.0000000E+00  0.0000000E+00  0.0000000E+00
  0.1836735E+00  0.0000000E+00  0.1836735E+00  0.0000000E+00  0.0000000E+00  0.0000000E+00
  0.2244898E+00  0.0000000E+00  0.1836735E+00  0.0000000E+00  0.0000000E+00  0.0000000E+00
  0.2653061E+00  0.0000000E+00  0.1836735E+00  0.0000000E+00  0.0000000E+00  0.0000000E+00
  0.3061225E+00  0.0000000E+00  0.1836735E+00  0.0000000E+00  0.0000000E+00  0.0000000E+00
  0.3469388E+00  0.0000000E+00  0.1836735E+00  0.0000000E+00  0.0000000E+00  0.0000000E+00
  0.3877551E+00  0.0000000E+00  0.1836735E+00  0.0000000E+00  0.0000000E+00  0.0000000E+00
  0.4285714E+00  0.0000000E+00  0.1836735E+00  0.0000000E+00  0.0000000E+00  0.0000000E+00
  0.4693878E+00  0.0000000E+00  0.1836735E+00  0.0000000E+00  0.0000000E+00  0.0000000E+00
  0.5102041E+00  0.0000000E+00  0.1836735E+00  0.0000000E+00  0.0000000E+00  0.0000000E+00
  0.5510204E+00  0.0000000E+00  0.1836735E+00  0.0000000E+00  0.0000000E+00  0.0000000E+00
  0.5918368E+00  0.0000000E+00  0.1836735E+00  0.0000000E+00  0.0000000E+00  0.0000000E+00
  0.6326531E+00  0.0000000E+00  0.1836735E+00  0.0000000E+00  0.0000000E+00  0.0000000E+00
  0.6734694E+00  0.0000000E+00  0.1836735E+00  0.0000000E+00  0.0000000E+00  0.0000000E+00
  0.7142857E+00  0.0000000E+00  0.1836735E+00  0.0000000E+00  0.0000000E+00  0.0000000E+00
  0.7551020E+00  0.0000000E+00  0.1836735E+00  0.0000000E+00  0.0000000E+00  0.0000000E+00
  0.7959183E+00  0.0000000E+00  0.1836735E+00  0.0000000E+00  0.0000000E+00  0.0000000E+00
  0.8367347E+00  0.0000000E+00  0.1836735E+00  0.0000000E+00  0.0000000E+00  0.0000000E+00
  0.8775510E+00  0.0000000E+00  0.1836735E+00  0.0000000E+00  0.0000000E+00  0.0000000E+00
  0.9183673E+00  0.0000000E+00  0.1836735E+00  0.0000000E+00  0.0000000E+00  0.0000000E+00
  0.9591837E+00  0.0000000E+00  0.1836735E+00  0.0000000E+00  0.0000000E+00  0.0000000E+00
  0.1000000E+01  0.0000000E+00  0.1836735E+00  0.0000000E+00  0.0000000E+00  0.0000000E+00
  0.1040816E+01  0.0000000E+00  0.1836735E+00  0.0000000E+00  0.0000000E+00  0.0000000E+00
  0.1081633E+01  0.0000000E+00  0.1836735E+00  0.0000000E+00  0.0000000E+00  0.0000000E+00
  0.1122449E+01  0.0000000E+00  0.1836735E+00  0.0000000E+00  0.0000000E+00  0.0000000E+00
  0.1163265E+01  0.0000000E+00  0.1836735E+00  0.0000000E+00  0.0000000E+00  0.0000000E+00
  0.1204082E+01  0.0000000E+00  0.1836735E+00  0.0000000E+00  0.0000000E+00  0.0000000E+00
  0.1244898E+01  0.0000000E+00  0.1836735E+00  0.0000000E+00  0.0000000E+00  0.0000000E+00
  0.1285714E+01  0.0000000E+00  0.1836735E+00  0.0000000E+00  0.0000000E+00  0.0000000E+00
  0.1326531E+01  0.0000000E+00  0.1836735E+00  0.0000000E+00  0.0000000E+00  0.0000000E+00
  0.1367347E+01  0.0000000E+00  0.1836735E+00  0.0000000E+00  0.0000000E+00  0.0000000E+00
  0.1408163E+01  0.0000000E+00  0.1836735E+00  0.0000000E+00  0.0000000E+00  0.0000000E+00
  0.1448980E+01  0.0000000E+00  0.1836735E+00  0.0000000E+00  0.0000000E+00  0.0000000E+00
  0.1489796E+01  0.0000000E+00  0.1836735E+00  0.0000000E+00  0.0000000E+00  0.0000000E+00
  0.1530612E+01  0.0000000E+00  0.1836735E+00  0.0000000E+00  0.0000000E+00  0.0000000E+00
  0.1571429E+01  0.0000000E+00  0.1836735E+00  0.0000000E+00  0.0000000E+00  0.0000000E+00
  0.1612245E+01  0.0000000E+00  0.1836735E+00  0.0000000E+00  0.0000000E+00  0.0000000E+00
  0.1653061E+01  0.0000000E+00  0.1836735E+00  0.0000000E+00  0.0000000E+00  0.0000000E+00
  0.1693878E+01  0.0000000E+00  0.1836735E+00  0.0000000E+00  0.0000000E+00  0.0000000E+00
  0.1734694E+01  0.0000000E+00  0.1836735E+00  0.0000000E+00  0.0000000E+00  0.0000000E+00
  0.1775510E+01  0.0000000E+00  0.1836735E+00  0.0000000E+00  0.0000000E+00  0.0000000E+00
  0.1816326E+01  0.0000000E+00  0.1836735E+00  0.0000000E+00  0.0000000E+00  0.0000000E+00
  0.1857143E+01  0.0000000E+00  0.1836735E+00  0.0000000E+00  0.0000000E+00  0.0000000E+00
  0.1897959E+01  0.0000000E+00  0.1836735E+00  0.0000000E+00  0.0000000E+00  0.0000000E+00
  0.1938776E+01  0.0000000E+00  0.1836735E+00  0.0000000E+00  0.0000000E+00  0.0000000E+00
  0.1989796E+01  0.0000000E+00  0.1836735E+00  0.0000000E+00  0.0000000E+00  0.0000000E+00
  0.2040816E-01  0.0000000E+00  0.2244898E+00  0.0000000E+00  0.0000000E+00  0.0000000E+00
  0.6122449E-01  0.0000000E+00  0.2244898E+00  0.0000000E+00  0.0000000E+00  0.0000000E+00
  0.1020408E+00  0.0000000E+00  0.2244898E+00  0.0000000E+00  0.0000000E+00  0.0000000E+00
  0.1428571E+00  0.0000000E+00  0.2244898E+00  0.0000000E+00  0.0000000E+00  0.0000000E+00
  0.1836735E+00  0.0000000E+00  0.2244898E+00  0.0000000E+00  0.0000000E+00  0.0000000E+00
  0.2244898E+00  0.0000000E+00  0.2244898E+00  0.0000000E+00  0.0000000E+00  0.0000000E+00
  0.2653061E+00  0.0000000E+00  0.2244898E+00  0.0000000E+00  0.0000000E+00  0.0000000E+00
  0.3061225E+00  0.0000000E+00  0.2244898E+00  0.0000000E+00  0.0000000E+00  0.0000000E+00
  0.3469388E+00  0.0000000E+00  0.2244898E+00  0.0000000E+00  0.0000000E+00  0.0000000E+00
  0.3877551E+00  0.0000000E+00  0.2244898E+00  0.0000000E+00  0.0000000E+00  0.0000000E+00
  0.4285714E+00  0.0000000E+00  0.2244898E+00  0.0000000E+00  0.0000000E+00  0.0000000E+00
  0.4693878E+00  0.0000000E+00  0.2244898E+00  0.0000000E+00  0.0000000E+00  0.0000000E+00
  0.5102041E+00  0.0000000E+00  0.2244898E+00  0.0000000E+00  0.0000000E+00  0.0000000E+00
  0.5510204E+00  0.0000000E+00  0.2244898E+00  0.0000000E+00  0.0000000E+00  0.0000000E+00
  0.5918368E+00  0.0000000E+00  0.2244898E+00  0.0000000E+00  0.0000000E+00  0.0000000E+00
  0.6326531E+00  0.0000000E+00  0.2244898E+00  0.0000000E+00  0.0000000E+00  0.0000000E+00
  0.6734694E+00  0.0000000E+00  0.2244898E+00  0.0000000E+00  0.0000000E+00  0.0000000E+00
  0.7142857E+00  0.0000000E+00  0.2244898E+00  0.0000000E+00  0.0000000E+00  0.0000000E+00
  0.7551020E+00  0.0000000E+00  0.2244898E+00  0.0000000E+00  0.0000000E+00  0.0000000E+00
  0.7959183E+00  0.0000000E+00  0.2244898E+00  0.0000000E+00  0.0000000E+00  0.0000000E+00
  0.8367347E+00  0.0000000E+00  0.2244898E+00  0.0000000E+00  0.0000000E+00  0.0000000E+00
  0.8775510E+00  0.0000000E+00  0.2244898E+00  0.0000000E+00  0.0000000E+00  0.0000000E+00
  0.9183673E+00  0.0000000E+00  0.2244898E+00  0.0000000E+00  0.0000000E+00  0.0000000E+00
  0.9591837E+00  0.0000000E+00  0.2244898E+00  0.0000000E+00  0.0000000E+00  0.0000000E+00
  0.1000000E+01  0.0000000E+00  0.2244898E+00  0.0000000E+00  0.0000000E+00  0.0000000E+00
  0.1040816E+01  0.0000000E+00  0.2244898E+00  0.0000000E+00  0.0000000E+00  0.0000000E+00
  0.1081633E+01  0.0000000E+00  0.2244898E+00  0.0000000E+00  0.0000000E+00  0.0000000E+00
  0.1122449E+01  0.0000000E+00  0.2244898E+00  0.0000000E+00  0.0000000E+00  0.0000000E+00
  0.1163265E+01  0.0000000E+00  0.2244898E+00  0.0000000E+00  0.0000000E+00  0.0000000E+00
  0.1204082E+01  0.0000000E+00  0.2244898E+00  0.0000000E+00  0.0000000E+00  0.0000000E+00
  0.1244898E+01  0.0000000E+00  0.2244898E+00  0.0000000E+00  0.0000000E+00  0.0000000E+00
  0.1285714E+01  0.0000000E+00  0.2244898E+00  0.0000000E+00  0.0000000E+00  0.0000000E+00
  0.1326531E+01  0.0000000E+00  0.2244898E+00  0.0000000E+00  0.0000000E+00  0.0000000E+00
  0.1367347E+01  0.0000000E+00  0.2244898E+00  0.0000000E+00  0.0000000E+00  0.0000000E+00
  0.1408163E+01  0.0000000E+00  0.2244898E+00  0.0000000E+00  0.0000000E+00  0.0000000E+00
  0.1448980E+01  0.0000000E+00  0.2244898E+00  0.0000000E+00  0.0000000E+00  0.0000000E+00
  0.1489796E+01  0.0000000E+00  0.2244898E+00  0.0000000E+00  0.0000000E+00  0.0000000E+00
  0.1530612E+01  0.0000000E+00  0.2244898E+00  0.0000000E+00  0.0000000E+00  0.0000000E+00
  0.1571429E+01  0.0000000E+00  0.2244898E+00  0.0000000E+00  0.0000000E+00  0.0000000E+00
  0.1612245E+01  0.0000000E+00  0.2244898E+00  0.0000000E+00  0.0000000E+00  0.0000000E+00
  0.1653061E+01  0.0000000E+00  0.2244898E+00  0.0000000E+00  0.0000000E+00  0.0000000E+00
  0.1693878E+01  0.0000000E+00  0.2244898E+00  0.0000000E+00  0.0000000E+00  0.0000000E+00
  0.1734694E+01  0.0000000E+00  0.2244898E+00  0.0000000E+00  0.0000000E+00  0.0000000E+00
  0.1775510E+01  0.0000000E+00  0.2244898E+00  0.0000000E+00  0.0000000E+00  0.0000000E+00
  0.1816326E+01  0.0000000E+00  0.2244898E+00  0.0000000E+00  0.0000000E+00  0.0000000E+00
  0.1857143E+01  0.0000000E+00  0.2244898E+00  0.0000000E+00  0.0000000E+00  0.0000000E+00
  0.1897959E+01  0.0000000E+00  0.2244898E+00  0.0000000E+00  0.0000000E+00  0.0000000E+00
  0.1938776E+01  0.0000000E+00  0.2244898E+00  0.0000000E+00  0.0000000E+00  0.0000000E+00
  0.1989796E+01  0.0000000E+00  0.2244898E+00  0.0000000E+00  0.0000000E+00  0.0000000E+00
  0.2040816E-01  0.0000000E+00  0.2653061E+00  0.0000000E+00  0.0000000E+00  0.0000000E+00
  0.6122449E-01  0.0000000E+00  0.2653061E+00  0.0000000E+00  0.0000000E+00  0.0000000E+00
  0.1020408E+00  0.0000000E+00  0.2653061E+00  0.0000000E+00  0.0000000E+00  0.0000000E+00
  0.1428571E+00  0.0000000E+00  0.2653061E+00  0.0000000E+00  0.0000000E+00  0.0000000E+00
  0.1836735E+00  0.0000000E+00  0.2653061E+00  0.0000000E+00  0.0000000E+00  0.0000000E+00
  0.2244898E+00  0.0000000E+00  0.2653061E+00  0.0000000E+00  0.0000000E+00  0.0000000E+00
  0.2653061E+00  0.0000000E+00  0.2653061E+00  0.0000000E+00  0.0000000E+00  0.0000000E+00
  0.3061225E+00  0.0000000E+00  0.2653061E+00  0.0000000E+00  0.0000000E+00  0.0000000E+00
  0.3469388E+00  0.0000000E+00  0.2653061E+00  0.0000000E+00  0.0000000E+00  0.0000000E+00
  0.3877551E+00  0.0000000E+00  0.2653061E+00  0.0000000E+00  0.0000000E+00  0.0000000E+00
  0.4285714E+00  0.0000000E+00  0.2653061E+00  0.0000000E+00  0.0000000E+00  0.0000000E+00
  0.4693878E+00  0.0000000E+00  0.2653061E+00  0.0000000E+00  0.0000000E+00  0.0000000E+00
  0.5102041E+00  0.0000000E+00  0.2653061E+00  0.0000000E+00  0.0000000E+00  0.0000000E+00
  0.5510204E+00  0.0000000E+00  0.2653061E+00  0.0000000E+00  0.0000000E+00  0.0000000E+00
  0.5918368E+00  0.0000000E+00  0.2653061E+00  0.0000000E+00  0.0000000E+00  0.0000000E+00
  0.6326531E+00  0.0000000E+00  0.2653061E+00  0.0000000E+00  0.0000000E+00  0.0000000E+00
  0.6734694E+00  0.0000000E+00  0.2653061E+00  0.0000000E+00  0.0000000E+00  0.0000000E+00
  0.7142857E+00  0.0000000E+00  0.2653061E+00  0.0000000E+00  0.0000000E+00  0.0000000E+00
  0.7551020E+00  0.0000000E+00  0.2653061E+00  0.0000000E+00  0.0000000E+00  0.0000000E+00
  0.7959183E+00  0.0000000E+00  0.2653061E+00  0.0000000E+00  0.0000000E+00  0.0000000E+00
  0.8367347E+00  0.0000000E+00  0.2653061E+00  0.0000000E+00  0.0000000E+00  0.0000000E+00
  0.8775510E+00  0.0000000E+00  0.2653061E+00  0.0000000E+00  0.0000000E+00  0.0000000E+00
  0.9183673E+00  0.0000000E+00  0.2653061E+00  0.0000000E+00  0.0000000E+00  0.0000000E+00
  0.9591837E+00  0.0000000E+00  0.2653061E+00  0.0000000E+00  0.0000000E+00  0.0000000E+00
  0.1000000E+01  0.0000000E+00  0.2653061E+00  0.0000000E+00  0.0000000E+00  0.0000000E+00
  0.1040816E+01  0.0000000E+00  0.2653061E+00  0.0000000E+00  0.0000000E+00  0.0000000E+00
  0.1081633E+01  0.0000000E+00  0.2653061E+00  0.0000000E+00  0.0000000E+00  0.0000000E+00
  0.1122449E+01  0.0000000E+00  0.2653061E+00  0.0000000E+00  0.0000000E+00  0.0000000E+00
  0.1163265E+01  0.0000000E+00  0.2653061E+00  0.0000000E+00  0.0000000E+00  0.0000000E+00
  0.1204082E+01  0.0000000E+00  0.2653061E+00  0.0000000E+00  0.0000000E+00  0.0000000E+00
  0.1244898E+01  0.0000000E+00  0.2653061E+00  0.0000000E+00  0.0000000E+00  0.0000000E+00
  0.1285714E+01  0.0000000E+00  0.2653061E+00  0.0000000E+00  0.0000000E+00  0.0000000E+00
  0.1326531E+01  0.0000000E+00  0.2653061E+00  0.0000000E+00  0.0000000E+00  0.0000000E+00