title = "dataset water"
variables = "x", "y", "z", "vx", "vy", "vz"
zone t = "velocities, solution time =  3.000E+00 days        " i =   99, j =   99, k =    1,  f=point
  0.5050505E-02  0.0000000E+00  0.5050505E-02  0.3944555E-12  0.0000000E+00 -0.5640994E-03
  0.1515152E-01  0.0000000E+00  0.5050505E-02 -0.1019937E-11  0.0000000E+00 -0.5640994E-03
  0.2525252E-01  0.0000000E+00  0.5050505E-02  0.1634075E-12  0.0000000E+00 -0.5640994E-03
  0.3535353E-01  0.0000000E+00  0.5050505E-02  0.1299698E-11  0.0000000E+00 -0.5640994E-03
  0.4545455E-01  0.0000000E+00  0.5050505E-02  0.9471384E-12  0.0000000E+00 -0.5640994E-03
  0.5555556E-01  0.0000000E+00  0.5050505E-02  0.5925533E-12  0.0000000E+00 -0.5640994E-03
  0.6565657E-01  0.0000000E+00  0.5050505E-02  0.5347206E-12  0.0000000E+00 -0.5640994E-03
  0.7575758E-01  0.0000000E+00  0.5050505E-02  0.5222348E-12  0.0000000E+00 -0.5640994E-03
  0.8585858E-01  0.0000000E+00  0.5050505E-02  0.4178921E-12  0.0000000E+00 -0.5640994E-03
  0.9595960E-01  0.0000000E+00  0.5050505E-02  0.3011505E-12  0.0000000E+00 -0.5640994E-03
  0.1060606E+00  0.0000000E+00  0.5050505E-02  0.2778342E-13  0.0000000E+00 -0.5640994E-03
  0.1161616E+00  0.0000000E+00  0.5050505E-02 -0.7583849E-12  0.0000000E+00 -0.5640994E-03
  0.1262626E+00  0.0000000E+00  0.5050505E-02  0.2301813E-12  0.0000000E+00 -0.5640994E-03
  0.1363636E+00  0.0000000E+00  0.5050505E-02 -0.7217407E-12  0.0000000E+00 -0.5640994E-03
  0.1464646E+00  0.0000000E+00  0.5050505E-02 -0.8080542E-12  0.0000000E+00 -0.5640994E-03
  0.1565657E+00  0.0000000E+00  0.5050505E-02 -0.6106382E-12  0.0000000E+00 -0.5640994E-03
  0.1666667E+00  0.0000000E+00  0.5050505E-02 -0.4922501E-12  0.0000000E+00 -0.5640994E-03
  0.1767677E+00  0.0000000E+00  0.5050505E-02 -0.4243132E-12  0.0000000E+00 -0.5640994E-03
  0.1868687E+00  0.0000000E+00  0.5050505E-02 -0.3946694E-12  0.0000000E+00 -0.5640994E-03
  0.1969697E+00  0.0000000E+00  0.5050505E-02 -0.1716735E-12  0.0000000E+00 -0.5640994E-03
  0.2070707E+00  0.0000000E+00  0.5050505E-02  0.5498310E-12  0.0000000E+00 -0.5640994E-03
  0.2171717E+00  0.0000000E+00  0.5050505E-02 -0.4848330E-12  0.0000000E+00 -0.5640994E-03
  0.2272727E+00  0.0000000E+00  0.5050505E-02  0.3894737E-12  0.0000000E+00 -0.5640994E-03
  0.2373737E+00  0.0000000E+00  0.5050505E-02  0.4879344E-12  0.0000000E+00 -0.5640994E-03
  0.2474747E+00  0.0000000E+00  0.5050505E-02  0.2391536E-12  0.0000000E+00 -0.5640994E-03
  0.2575758E+00  0.0000000E+00  0.5050505E-02  0.1050846E-12  0.0000000E+00 -0.5640994E-03
  0.2676768E+00  0.0000000E+00  0.5050505E-02  0.7005567E-13  0.0000000E+00 -0.5640994E-03
  0.2777778E+00  0.0000000E+00  0.5050505E-02  0.3295243E-14  0.0000000E+00 -0.5640994E-03
  0.2878788E+00  0.0000000E+00  0.5050505E-02 -0.8683935E-13  0.0000000E+00 -0.5640994E-03
  0.2979798E+00  0.0000000E+00  0.5050505E-02 -0.1202975E-12  0.0000000E+00 -0.5640994E-03
  0.3080808E+00  0.0000000E+00  0.5050505E-02 -0.2270376E-12  0.0000000E+00 -0.5640994E-03
  0.3181818E+00  0.0000000E+00  0.5050505E-02 -0.6245433E-12  0.0000000E+00 -0.5640994E-03
  0.3282828E+00  0.0000000E+00  0.5050505E-02  0.7525899E-12  0.0000000E+00 -0.5640994E-03
  0.3383838E+00  0.0000000E+00  0.5050505E-02 -0.1493253E-11  0.0000000E+00 -0.5640994E-03
  0.3484848E+00  0.0000000E+00  0.5050505E-02  0.1014650E-11  0.0000000E+00 -0.5640994E-03
  0.3585859E+00  0.0000000E+00  0.5050505E-02 -0.1157646E-11  0.0000000E+00 -0.5640994E-03
  0.3686869E+00  0.0000000E+00  0.5050505E-02  0.1092566E-11  0.0000000E+00 -0.5640994E-03
  0.3787879E+00  0.0000000E+00  0.5050505E-02 -0.1277578E-11  0.0000000E+00 -0.5640994E-03
  0.3888889E+00  0.0000000E+00  0.5050505E-02  0.1317021E-11  0.0000000E+00 -0.5640994E-03
  0.3989899E+00  0.0000000E+00  0.5050505E-02  0.5438599E-14  0.0000000E+00 -0.5640994E-03
  0.4090909E+00  0.0000000E+00  0.5050505E-02 -0.9934211E-12  0.0000000E+00 -0.5640994E-03
  0.4191919E+00  0.0000000E+00  0.5050505E-02  0.9805454E-12  0.0000000E+00 -0.5640994E-03
  0.4292929E+00  0.0000000E+00  0.5050505E-02  0.5777704E-12  0.0000000E+00 -0.5640994E-03
  0.4393939E+00  0.0000000E+00  0.5050505E-02  0.1437007E-12  0.0000000E+00 -0.5640994E-03
  0.4494950E+00  0.0000000E+00  0.5050505E-02  0.1488697E-12  0.0000000E+00 -0.5640994E-03
  0.4595959E+00  0.0000000E+00  0.5050505E-02  0.9676340E-12  0.0000000E+00 -0.5640994E-03
  0.4696970E+00  0.0000000E+00  0.5050505E-02  0.2959837E-12  0.0000000E+00 -0.5640994E-03
  0.4797980E+00  0.0000000E+00  0.5050505E-02 -0.1089765E-11  0.0000000E+00 -0.5640994E-03
  0.4898990E+00  0.0000000E+00  0.5050505E-02  0.1591284E-11  0.0000000E+00 -0.5640994E-03
  0.5000000E+00  0.0000000E+00  0.5050505E-02 -0.8589222E-12  0.0000000E+00 -0.5640994E-03
  0.5101010E+00  0.0000000E+00  0.5050505E-02 -0.4506930E-12  0.0000000E+00 -0.5640994E-03
  0.5202020E+00  0.0000000E+00  0.5050505E-02  0.5431514E-12  0.0000000E+00 -0.5640994E-03
  0.5303030E+00  0.0000000E+00  0.5050505E-02 -0.3020417E-12  0.0000000E+00 -0.5640994E-03
  0.5404040E+00  0.0000000E+00  0.5050505E-02 -0.2450222E-12  0.0000000E+00 -0.5640994E-03
  0.5505050E+00  0.0000000E+00  0.5050505E-02  0.1539451E-12  0.0000000E+00 -0.5640994E-03
  0.5606061E+00  0.0000000E+00  0.5050505E-02 -0.1276636E-11  0.0000000E+00 -0.5640994E-03
  0.5707071E+00  0.0000000E+00  0.5050505E-02  0.1361009E-11  0.0000000E+00 -0.5640994E-03
  0.5808081E+00  0.0000000E+00  0.5050505E-02 -0.5564037E-13  0.0000000E+00 -0.5640994E-03
  0.5909091E+00  0.0000000E+00  0.5050505E-02 -0.5961516E-13  0.0000000E+00 -0.5640994E-03
  0.6010101E+00  0.0000000E+00  0.5050505E-02  0.6156468E-13  0.0000000E+00 -0.5640994E-03
  0.6111111E+00  0.0000000E+00  0.5050505E-02  0.7673527E-13  0.0000000E+00 -0.5640994E-03
  0.6212121E+00  0.0000000E+00  0.5050505E-02  0.2143980E-12  0.0000000E+00 -0.5640994E-03
  0.6313131E+00  0.0000000E+00  0.5050505E-02  0.1757641E-12  0.0000000E+00 -0.5640994E-03
  0.6414142E+00  0.0000000E+00  0.5050505E-02 -0.1373550E-11  0.0000000E+00 -0.5640994E-03
  0.6515151E+00  0.0000000E+00  0.5050505E-02  0.1248726E-11  0.0000000E+00 -0.5640994E-03
  0.6616161E+00  0.0000000E+00  0.5050505E-02 -0.2171919E-12  0.0000000E+00 -0.5640994E-03
  0.6717172E+00  0.0000000E+00  0.5050505E-02 -0.6473961E-13  0.0000000E+00 -0.5640994E-03
  0.6818182E+00  0.0000000E+00  0.5050505E-02 -0.9990647E-12  0.0000000E+00 -0.5640994E-03
  0.6919192E+00  0.0000000E+00  0.5050505E-02  0.1661879E-11  0.0000000E+00 -0.5640994E-03
  0.7020202E+00  0.0000000E+00  0.5050505E-02 -0.1060788E-11  0.0000000E+00 -0.5640994E-03
  0.7121212E+00  0.0000000E+00  0.5050505E-02  0.7941046E-12  0.0000000E+00 -0.5640994E-03
  0.7222222E+00  0.0000000E+00  0.5050505E-02  0.9543862E-12  0.0000000E+00 -0.5640994E-03
  0.7323232E+00  0.0000000E+00  0.5050505E-02 -0.1523781E-11  0.0000000E+00 -0.5640994E-03
  0.7424242E+00  0.0000000E+00  0.5050505E-02  0.1867884E-12  0.0000000E+00 -0.5640994E-03
  0.7525253E+00  0.0000000E+00  0.5050505E-02  0.3659079E-13  0.0000000E+00 -0.5640994E-03
  0.7626263E+00  0.0000000E+00  0.5050505E-02 -0.3178005E-12  0.0000000E+00 -0.5640994E-03
  0.7727273E+00  0.0000000E+00  0.5050505E-02 -0.4218357E-12  0.0000000E+00 -0.5640994E-03
  0.7828283E+00  0.0000000E+00  0.5050505E-02 -0.3872924E-12  0.0000000E+00 -0.5640994E-03
  0.7929293E+00  0.0000000E+00  0.5050505E-02 -0.4125738E-12  0.0000000E+00 -0.5640994E-03
  0.8030303E+00  0.0000000E+00  0.5050505E-02 -0.3446771E-12  0.0000000E+00 -0.5640994E-03
  0.8131313E+00  0.0000000E+00  0.5050505E-02  0.4856529E-12  0.0000000E+00 -0.5640994E-03
  0.8232324E+00  0.0000000E+00  0.5050505E-02  0.4046019E-12  0.0000000E+00 -0.5640994E-03
  0.8333333E+00  0.0000000E+00  0.5050505E-02 -0.5047248E-12  0.0000000E+00 -0.5640994E-03
  0.8434343E+00  0.0000000E+00  0.5050505E-02  0.5663652E-12  0.0000000E+00 -0.5640994E-03
  0.8535354E+00  0.0000000E+00  0.5050505E-02  0.7696877E-12  0.0000000E+00 -0.5640994E-03
  0.8636364E+00  0.0000000E+00  0.5050505E-02  0.5844032E-12  0.0000000E+00 -0.5640994E-03
  0.8737374E+00  0.0000000E+00  0.5050505E-02  0.4371556E-12  0.0000000E+00 -0.5640994E-03
  0.8838384E+00  0.0000000E+00  0.5050505E-02  0.3302195E-12  0.0000000E+00 -0.5640994E-03
  0.8939394E+00  0.0000000E+00  0.5050505E-02  0.2090953E-12  0.0000000E+00 -0.5640994E-03
  0.9040404E+00  0.0000000E+00  0.5050505E-02  0.1281335E-12  0.0000000E+00 -0.5640994E-03
  0.9141414E+00  0.0000000E+00  0.5050505E-02 -0.9948782E-13  0.0000000E+00 -0.5640994E-03
  0.9242424E+00  0.0000000E+00  0.5050505E-02 -0.8821136E-12  0.0000000E+00 -0.5640994E-03
  0.9343435E+00  0.0000000E+00  0.5050505E-02  0.8327452E-13  0.0000000E+00 -0.5640994E-03
  0.9444444E+00  0.0000000E+00  0.5050505E-02 -0.6414495E-12  0.0000000E+00 -0.5640994E-03
  0.9545454E+00  0.0000000E+00  0.5050505E-02 -0.8091036E-12  0.0000000E+00 -0.5640994E-03
  0.9646465E+00  0.0000000E+00  0.5050505E-02 -0.6478751E-12  0.0000000E+00 -0.5640994E-03
  0.9747475E+00  0.0000000E+00  0.5050505E-02 -0.5711911E-12  0.0000000E+00 -0.5640994E-03
  0.9848485E+00  0.0000000E+00  0.5050505E-02 -0.8033330E-12  0.0000000E+00 -0.5640994E-03
  0.9974747E+00  0.0000000E+00  0.5050505E-02 -0.1006239E-11  0.0000000E+00 -0.5640994E-03
  0.5050505E-02  0.0000000E+00  0.1515152E-01  0.1508278E-11  0.0000000E+00 -0.5390487E-03
  0.1515152E-01  0.0000000E+00  0.1515152E-01 -0.9490864E-12  0.0000000E+00 -0.5390487E-03
  0.2525252E-01  0.0000000E+00  0.1515152E-01 -0.7586556E-12  0.0000000E+00 -0.5390487E-03
  0.3535353E-01  0.0000000E+00  0.1515152E-01  0.2636153E-11  0.0000000E+00 -0.5390487E-03
  0.4545455E-01  0.0000000E+00  0.1515152E-01  0.2710395E-11  0.0000000E+00 -0.5390487E-03
  0.5555556E-01  0.0000000E+00  0.1515152E-01  0.2013014E-11  0.0000000E+00 -0.5390487E-03
  0.6565657E-01  0.0000000E+00  0.1515152E-01  0.1730246E-11  0.0000000E+00 -0.5390487E-03
  0.7575758E-01  0.0000000E+00  0.1515152E-01  0.1536985E-11  0.0000000E+00 -0.5390487E-03
  0.8585858E-01  0.0000000E+00  0.1515152E-01  0.1075816E-11  0.0000000E+00 -0.5390487E-03
  0.9595960E-01  0.0000000E+00  0.1515152E-01  0.7099781E-12  0.0000000E+00 -0.5390486E-03
  0.1060606E+00  0.0000000E+00  0.1515152E-01  0.5733801E-12  0.0000000E+00 -0.5390486E-03
  0.1161616E+00  0.0000000E+00  0.1515152E-01 -0.2399189E-11  0.0000000E+00 -0.5390486E-03
  0.1262626E+00  0.0000000E+00  0.1515152E-01  0.1001375E-12  0.0000000E+00 -0.5390487E-03
  0.1363636E+00  0.0000000E+00  0.1515152E-01 -0.1868696E-11  0.0000000E+00 -0.5390487E-03
  0.1464646E+00  0.0000000E+00  0.1515152E-01 -0.2205987E-11  0.0000000E+00 -0.5390487E-03
  0.1565657E+00  0.0000000E+00  0.1515152E-01 -0.1829664E-11  0.0000000E+00 -0.5390487E-03
  0.1666667E+00  0.0000000E+00  0.1515152E-01 -0.1482853E-11  0.0000000E+00 -0.5390487E-03
  0.1767677E+00  0.0000000E+00  0.1515152E-01 -0.1116512E-11  0.0000000E+00 -0.5390487E-03
  0.1868687E+00  0.0000000E+00  0.1515152E-01 -0.9824814E-12  0.0000000E+00 -0.5390487E-03
  0.1969697E+00  0.0000000E+00  0.1515152E-01 -0.1040615E-11  0.0000000E+00 -0.5390487E-03
  0.2070707E+00  0.0000000E+00  0.1515152E-01  0.1805062E-11  0.0000000E+00 -0.5390487E-03
  0.2171717E+00  0.0000000E+00  0.1515152E-01 -0.8534109E-12  0.0000000E+00 -0.5390487E-03
  0.2272727E+00  0.0000000E+00  0.1515152E-01  0.8511306E-12  0.0000000E+00 -0.5390487E-03
  0.2373737E+00  0.0000000E+00  0.1515152E-01  0.1245865E-11  0.0000000E+00 -0.5390487E-03
  0.2474747E+00  0.0000000E+00  0.1515152E-01  0.7420512E-12  0.0000000E+00 -0.5390487E-03
  0.2575758E+00  0.0000000E+00  0.1515152E-01  0.3679474E-12  0.0000000E+00 -0.5390487E-03
  0.2676768E+00  0.0000000E+00  0.1515152E-01  0.1492925E-12  0.0000000E+00 -0.5390487E-03
  0.2777778E+00  0.0000000E+00  0.1515152E-01 -0.2551687E-13  0.0000000E+00 -0.5390487E-03
  0.2878788E+00  0.0000000E+00  0.1515152E-01 -0.3822496E-12  0.0000000E+00 -0.5390487E-03
  0.2979798E+00  0.0000000E+00  0.1515152E-01 -0.4560471E-12  0.0000000E+00 -0.5390487E-03
  0.3080808E+00  0.0000000E+00  0.1515152E-01 -0.3049884E-12  0.0000000E+00 -0.5390487E-03
  0.3181818E+00  0.0000000E+00  0.1515152E-01 -0.2405212E-11  0.0000000E+00 -0.5390487E-03
  0.3282828E+00  0.0000000E+00  0.1515152E-01  0.2582933E-11  0.0000000E+00 -0.5390487E-03
  0.3383838E+00  0.0000000E+00  0.1515152E-01 -0.4362220E-11  0.0000000E+00 -0.5390487E-03
  0.3484848E+00  0.0000000E+00  0.1515152E-01  0.2954252E-11  0.0000000E+00 -0.5390487E-03
  0.3585859E+00  0.0000000E+00  0.1515152E-01 -0.3446666E-11  0.0000000E+00 -0.5390487E-03
  0.3686869E+00  0.0000000E+00  0.1515152E-01  0.3416229E-11  0.0000000E+00 -0.5390487E-03
  0.3787879E+00  0.0000000E+00  0.1515152E-01 -0.3964130E-11  0.0000000E+00 -0.5390487E-03
  0.3888889E+00  0.0000000E+00  0.1515152E-01  0.2726276E-11  0.0000000E+00 -0.5390487E-03
  0.3989899E+00  0.0000000E+00  0.1515152E-01  0.2053111E-11  0.0000000E+00 -0.5390487E-03
  0.4090909E+00  0.0000000E+00  0.1515152E-01 -0.2821407E-11  0.0000000E+00 -0.5390487E-03
  0.4191919E+00  0.0000000E+00  0.1515152E-01  0.1598217E-11  0.0000000E+00 -0.5390487E-03
  0.4292929E+00  0.0000000E+00  0.1515152E-01  0.1842087E-11  0.0000000E+00 -0.5390487E-03
  0.4393939E+00  0.0000000E+00  0.1515152E-01  0.9745538E-12  0.0000000E+00 -0.5390487E-03
  0.4494950E+00  0.0000000E+00  0.1515152E-01 -0.1780286E-12  0.0000000E+00 -0.5390487E-03
  0.4595959E+00  0.0000000E+00  0.1515152E-01  0.2214094E-11  0.0000000E+00 -0.5390487E-03
  0.4696970E+00  0.0000000E+00  0.1515152E-01  0.2611213E-11  0.0000000E+00 -0.5390487E-03
  0.4797980E+00  0.0000000E+00  0.1515152E-01 -0.3606302E-11  0.0000000E+00 -0.5390487E-03
  0.4898990E+00  0.0000000E+00  0.1515152E-01  0.4010546E-11  0.0000000E+00 -0.5390487E-03
  0.5000000E+00  0.0000000E+00  0.1515152E-01 -0.1179891E-11  0.0000000E+00 -0.5390487E-03
  0.5101010E+00  0.0000000E+00  0.1515152E-01 -0.2297929E-11  0.0000000E+00 -0.5390487E-03
  0.5202020E+00  0.0000000E+00  0.1515152E-01  0.1056047E-11  0.0000000E+00 -0.5390487E-03
  0.5303030E+00  0.0000000E+00  0.1515152E-01 -0.6947005E-12  0.0000000E+00 -0.5390487E-03
  0.5404040E+00  0.0000000E+00  0.1515152E-01 -0.8035052E-12  0.0000000E+00 -0.5390487E-03
  0.5505050E+00  0.0000000E+00  0.1515152E-01  0.1573528E-11  0.0000000E+00 -0.5390487E-03
  0.5606061E+00  0.0000000E+00  0.1515152E-01 -0.3939274E-11  0.0000000E+00 -0.5390487E-03
  0.5707071E+00  0.0000000E+00  0.1515152E-01  0.2767566E-11  0.0000000E+00 -0.5390487E-03
  0.5808081E+00  0.0000000E+00  0.1515152E-01  0.5272539E-12  0.0000000E+00 -0.5390487E-03
  0.5909091E+00  0.0000000E+00  0.1515152E-01  0.1178755E-12  0.0000000E+00 -0.5390487E-03
  0.6010101E+00  0.0000000E+00  0.1515152E-01  0.1077514E-12  0.0000000E+00 -0.5390487E-03
  0.6111111E+00  0.0000000E+00  0.1515152E-01 -0.1812641E-12  0.0000000E+00 -0.5390487E-03
  0.6212121E+00  0.0000000E+00  0.1515152E-01  0.2699764E-12  0.0000000E+00 -0.5390487E-03
  0.6313131E+00  0.0000000E+00  0.1515152E-01  0.1863623E-11  0.0000000E+00 -0.5390487E-03
  0.6414142E+00  0.0000000E+00  0.1515152E-01 -0.4579067E-11  0.0000000E+00 -0.5390487E-03
  0.6515151E+00  0.0000000E+00  0.1515152E-01  0.2258709E-11  0.0000000E+00 -0.5390487E-03
  0.6616161E+00  0.0000000E+00  0.1515152E-01 -0.1328392E-12  0.0000000E+00 -0.5390487E-03
  0.6717172E+00  0.0000000E+00  0.1515152E-01  0.1198718E-11  0.0000000E+00 -0.5390487E-03
  0.6818182E+00  0.0000000E+00  0.1515152E-01 -0.3507658E-11  0.0000000E+00 -0.5390487E-03
  0.6919192E+00  0.0000000E+00  0.1515152E-01  0.4719148E-11  0.0000000E+00 -0.5390487E-03
  0.7020202E+00  0.0000000E+00  0.1515152E-01 -0.2626675E-11  0.0000000E+00 -0.5390487E-03
  0.7121212E+00  0.0000000E+00  0.1515152E-01  0.6901285E-12  0.0000000E+00 -0.5390487E-03
  0.7222222E+00  0.0000000E+00  0.1515152E-01  0.3763806E-11  0.0000000E+00 -0.5390487E-03
  0.7323232E+00  0.0000000E+00  0.1515152E-01 -0.3284534E-11  0.0000000E+00 -0.5390487E-03
  0.7424242E+00  0.0000000E+00  0.1515152E-01 -0.3979607E-12  0.0000000E+00 -0.5390487E-03
  0.7525253E+00  0.0000000E+00  0.1515152E-01 -0.2515516E-12  0.0000000E+00 -0.5390487E-03
  0.7626263E+00  0.0000000E+00  0.1515152E-01 -0.8694569E-12  0.0000000E+00 -0.5390487E-03
  0.7727273E+00  0.0000000E+00  0.1515152E-01 -0.1131555E-11  0.0000000E+00 -0.5390487E-03
  0.7828283E+00  0.0000000E+00  0.1515152E-01 -0.9311523E-12  0.0000000E+00 -0.5390487E-03
  0.7929293E+00  0.0000000E+00  0.1515152E-01 -0.8841250E-12  0.0000000E+00 -0.5390487E-03
  0.8030303E+00  0.0000000E+00  0.1515152E-01 -0.1559198E-11  0.0000000E+00 -0.5390487E-03
  0.8131313E+00  0.0000000E+00  0.1515152E-01  0.6032634E-12  0.0000000E+00 -0.5390487E-03
  0.8232324E+00  0.0000000E+00  0.1515152E-01  0.2241286E-11  0.0000000E+00 -0.5390487E-03
  0.8333333E+00  0.0000000E+00  0.1515152E-01 -0.7792634E-12  0.0000000E+00 -0.5390487E-03
  0.8434343E+00  0.0000000E+00  0.1515152E-01  0.1202905E-11  0.0000000E+00 -0.5390487E-03
  0.8535354E+00  0.0000000E+00  0.1515152E-01  0.1931687E-11  0.0000000E+00 -0.5390487E-03
  0.8636364E+00  0.0000000E+00  0.1515152E-01  0.1706801E-11  0.0000000E+00 -0.5390487E-03
  0.8737374E+00  0.0000000E+00  0.1515152E-01  0.1361321E-11  0.0000000E+00 -0.5390487E-03
  0.8838384E+00  0.0000000E+00  0.1515152E-01  0.9787421E-12  0.0000000E+00 -0.5390487E-03
  0.8939394E+00  0.0000000E+00  0.1515152E-01  0.4628590E-12  0.0000000E+00 -0.5390487E-03
  0.9040404E+00  0.0000000E+00  0.1515152E-01  0.1950290E-12  0.0000000E+00 -0.5390487E-03
  0.9141414E+00  0.0000000E+00  0.1515152E-01  0.2441220E-12  0.0000000E+00 -0.5390487E-03
  0.9242424E+00  0.0000000E+00  0.1515152E-01 -0.2661168E-11  0.0000000E+00 -0.5390487E-03
  0.9343435E+00  0.0000000E+00  0.1515152E-01 -0.4611376E-12  0.0000000E+00 -0.5390487E-03
  0.9444444E+00  0.0000000E+00  0.1515152E-01 -0.1702707E-11  0.0000000E+00 -0.5390487E-03
  0.9545454E+00  0.0000000E+00  0.1515152E-01 -0.2205583E-11  0.0000000E+00 -0.5390487E-03
  0.9646465E+00  0.0000000E+00  0.1515152E-01 -0.1882343E-11  0.0000000E+00 -0.5390487E-03
  0.9747475E+00  0.0000000E+00  0.1515152E-01 -0.1235611E-11  0.0000000E+00 -0.5390487E-03
  0.9848485E+00  0.0000000E+00  0.1515152E-01 -0.1456148E-11  0.0000000E+00 -0.5390487E-03
  0.9974747E+00  0.0000000E+00  0.1515152E-01 -0.3101073E-11  0.0000000E+00 -0.5390487E-03
  0.5050505E-02  0.0000000E+00  0.2525252E-01  0.1443909E-11  0.0000000E+00 -0.4977478E-03
  0.1515152E-01  0.0000000E+00  0.2525252E-01  0.2461991E-11  0.0000000E+00 -0.4977478E-03
  0.2525252E-01  0.0000000E+00  0.2525252E-01 -0.1345308E-11  0.0000000E+00 -0.4977477E-03
  0.3535353E-01  0.0000000E+00  0.2525252E-01  0.2462165E-11  0.0000000E+00 -0.4977477E-03
  0.4545455E-01  0.0000000E+00  0.2525252E-01  0.3861736E-11  0.0000000E+00 -0.4977477E-03
  0.5555556E-01  0.0000000E+00  0.2525252E-01  0.3466382E-11  0.0000000E+00 -0.4977477E-03
  0.6565657E-01  0.0000000E+00  0.2525252E-01  0.2982741E-11  0.0000000E+00 -0.4977477E-03
  0.7575758E-01  0.0000000E+00  0.2525252E-01  0.2508909E-11  0.0000000E+00 -0.4977477E-03
  0.8585858E-01  0.0000000E+00  0.2525252E-01  0.1533420E-11  0.0000000E+00 -0.4977477E-03
  0.9595960E-01  0.0000000E+00  0.2525252E-01  0.4140668E-12  0.0000000E+00 -0.4977477E-03
  0.1060606E+00  0.0000000E+00  0.2525252E-01  0.1640408E-11  0.0000000E+00 -0.4977477E-03
  0.1161616E+00  0.0000000E+00  0.2525252E-01 -0.3673237E-11  0.0000000E+00 -0.4977477E-03
  0.1262626E+00  0.0000000E+00  0.2525252E-01 -0.8309921E-12  0.0000000E+00 -0.4977477E-03
  0.1363636E+00  0.0000000E+00  0.2525252E-01 -0.2688809E-11  0.0000000E+00 -0.4977477E-03
  0.1464646E+00  0.0000000E+00  0.2525252E-01 -0.3240909E-11  0.0000000E+00 -0.4977477E-03
  0.1565657E+00  0.0000000E+00  0.2525252E-01 -0.2953228E-11  0.0000000E+00 -0.4977477E-03
  0.1666667E+00  0.0000000E+00  0.2525252E-01 -0.2492072E-11  0.0000000E+00 -0.4977477E-03
  0.1767677E+00  0.0000000E+00  0.2525252E-01 -0.1651664E-11  0.0000000E+00 -0.4977478E-03
  0.1868687E+00  0.0000000E+00  0.2525252E-01 -0.7948704E-12  0.0000000E+00 -0.4977477E-03
  0.1969697E+00  0.0000000E+00  0.2525252E-01 -0.2406074E-11  0.0000000E+00 -0.4977478E-03
  0.2070707E+00  0.0000000E+00  0.2525252E-01  0.2718109E-11  0.0000000E+00 -0.4977478E-03
  0.2171717E+00  0.0000000E+00  0.2525252E-01 -0.3452299E-12  0.0000000E+00 -0.4977478E-03
  0.2272727E+00  0.0000000E+00  0.2525252E-01  0.9374750E-12  0.0000000E+00 -0.4977477E-03
  0.2373737E+00  0.0000000E+00  0.2525252E-01  0.1622815E-11  0.0000000E+00 -0.4977477E-03
  0.2474747E+00  0.0000000E+00  0.2525252E-01  0.1179219E-11  0.0000000E+00 -0.4977477E-03
  0.2575758E+00  0.0000000E+00  0.2525252E-01  0.6811190E-12  0.0000000E+00 -0.4977477E-03
  0.2676768E+00  0.0000000E+00  0.2525252E-01  0.1488589E-12  0.0000000E+00 -0.4977477E-03
  0.2777778E+00  0.0000000E+00  0.2525252E-01 -0.1430197E-12  0.0000000E+00 -0.4977477E-03
  0.2878788E+00  0.0000000E+00  0.2525252E-01 -0.7707194E-12  0.0000000E+00 -0.4977477E-03
  0.2979798E+00  0.0000000E+00  0.2525252E-01 -0.1140561E-11  0.0000000E+00 -0.4977477E-03
  0.3080808E+00  0.0000000E+00  0.2525252E-01  0.3285979E-12  0.0000000E+00 -0.4977477E-03
  0.3181818E+00  0.0000000E+00  0.2525252E-01 -0.5035358E-11  0.0000000E+00 -0.4977478E-03
  0.3282828E+00  0.0000000E+00  0.2525252E-01  0.4616005E-11  0.0000000E+00 -0.4977478E-03
  0.3383838E+00  0.0000000E+00  0.2525252E-01 -0.6762823E-11  0.0000000E+00 -0.4977478E-03
  0.3484848E+00  0.0000000E+00  0.2525252E-01  0.4640163E-11  0.0000000E+00 -0.4977478E-03
  0.3585859E+00  0.0000000E+00  0.2525252E-01 -0.5673827E-11  0.0000000E+00 -0.4977478E-03
  0.3686869E+00  0.0000000E+00  0.2525252E-01  0.6102125E-11  0.0000000E+00 -0.4977478E-03
  0.3787879E+00  0.0000000E+00  0.2525252E-01 -0.5595312E-11  0.0000000E+00 -0.4977478E-03
  0.3888889E+00  0.0000000E+00  0.2525252E-01  0.4774528E-12  0.0000000E+00 -0.4977478E-03
  0.3989899E+00  0.0000000E+00  0.2525252E-01  0.6062352E-11  0.0000000E+00 -0.4977478E-03
  0.4090909E+00  0.0000000E+00  0.2525252E-01 -0.2466346E-11  0.0000000E+00 -0.4977478E-03
  0.4191919E+00  0.0000000E+00  0.2525252E-01  0.6094653E-12  0.0000000E+00 -0.4977477E-03
  0.4292929E+00  0.0000000E+00  0.2525252E-01  0.2516463E-11  0.0000000E+00 -0.4977478E-03
  0.4393939E+00  0.0000000E+00  0.2525252E-01  0.3043270E-11  0.0000000E+00 -0.4977477E-03
  0.4494950E+00  0.0000000E+00  0.2525252E-01 -0.4711209E-12  0.0000000E+00 -0.4977477E-03
  0.4595959E+00  0.0000000E+00  0.2525252E-01  0.1015694E-11  0.0000000E+00 -0.4977477E-03
  0.4696970E+00  0.0000000E+00  0.2525252E-01  0.6772044E-11  0.0000000E+00 -0.4977477E-03
  0.4797980E+00  0.0000000E+00  0.2525252E-01 -0.5646944E-11  0.0000000E+00 -0.4977477E-03
  0.4898990E+00  0.0000000E+00  0.2525252E-01  0.4083546E-11  0.0000000E+00 -0.4977477E-03
  0.5000000E+00  0.0000000E+00  0.2525252E-01  0.1340381E-11  0.0000000E+00 -0.4977477E-03
  0.5101010E+00  0.0000000E+00  0.2525252E-01 -0.4508505E-11  0.0000000E+00 -0.4977477E-03
  0.5202020E+00  0.0000000E+00  0.2525252E-01  0.4538192E-12  0.0000000E+00 -0.4977477E-03
  0.5303030E+00  0.0000000E+00  0.2525252E-01 -0.8917257E-12  0.0000000E+00 -0.4977477E-03
  0.5404040E+00  0.0000000E+00  0.2525252E-01 -0.2302918E-11  0.0000000E+00 -0.4977477E-03
  0.5505050E+00  0.0000000E+00  0.2525252E-01  0.4435557E-11  0.0000000E+00 -0.4977477E-03
  0.5606061E+00  0.0000000E+00  0.2525252E-01 -0.5277027E-11  0.0000000E+00 -0.4977477E-03
  0.5707071E+00  0.0000000E+00  0.2525252E-01  0.1665916E-11  0.0000000E+00 -0.4977477E-03
  0.5808081E+00  0.0000000E+00  0.2525252E-01  0.1532750E-11  0.0000000E+00 -0.4977477E-03
  0.5909091E+00  0.0000000E+00  0.2525252E-01  0.8194095E-12  0.0000000E+00 -0.4977477E-03
  0.6010101E+00  0.0000000E+00  0.2525252E-01  0.4562911E-12  0.0000000E+00 -0.4977477E-03
  0.6111111E+00  0.0000000E+00  0.2525252E-01 -0.7433400E-12  0.0000000E+00 -0.4977477E-03
  0.6212121E+00  0.0000000E+00  0.2525252E-01 -0.1581112E-11  0.0000000E+00 -0.4977477E-03
  0.6313131E+00  0.0000000E+00  0.2525252E-01  0.5489185E-11  0.0000000E+00 -0.4977477E-03
  0.6414142E+00  0.0000000E+00  0.2525252E-01 -0.6525616E-11  0.0000000E+00 -0.4977477E-03
  0.6515151E+00  0.0000000E+00  0.2525252E-01  0.8780174E-12  0.0000000E+00 -0.4977477E-03
  0.6616161E+00  0.0000000E+00  0.2525252E-01 -0.6298699E-12  0.0000000E+00 -0.4977477E-03
  0.6717172E+00  0.0000000E+00  0.2525252E-01  0.4295362E-11  0.0000000E+00 -0.4977477E-03
  0.6818182E+00  0.0000000E+00  0.2525252E-01 -0.6108828E-11  0.0000000E+00 -0.4977477E-03
  0.6919192E+00  0.0000000E+00  0.2525252E-01  0.6969990E-11  0.0000000E+00 -0.4977477E-03
  0.7020202E+00  0.0000000E+00  0.2525252E-01 -0.2084516E-11  0.0000000E+00 -0.4977477E-03
  0.7121212E+00  0.0000000E+00  0.2525252E-01 -0.2312499E-11  0.0000000E+00 -0.4977477E-03
  0.7222222E+00  0.0000000E+00  0.2525252E-01  0.6358485E-11  0.0000000E+00 -0.4977477E-03
  0.7323232E+00  0.0000000E+00  0.2525252E-01 -0.2285656E-11  0.0000000E+00 -0.4977477E-03
  0.7424242E+00  0.0000000E+00  0.2525252E-01 -0.1735977E-11  0.0000000E+00 -0.4977477E-03
  0.7525253E+00  0.0000000E+00  0.2525252E-01 -0.1179140E-11  0.0000000E+00 -0.4977477E-03
  0.7626263E+00  0.0000000E+00  0.2525252E-01 -0.1487195E-11  0.0000000E+00 -0.4977477E-03
  0.7727273E+00  0.0000000E+00  0.2525252E-01 -0.1829753E-11  0.0000000E+00 -0.4977477E-03
  0.7828283E+00  0.0000000E+00  0.2525252E-01 -0.1381542E-11  0.0000000E+00 -0.4977477E-03
  0.7929293E+00  0.0000000E+00  0.2525252E-01 -0.2793289E-12  0.0000000E+00 -0.4977477E-03
  0.8030303E+00  0.0000000E+00  0.2525252E-01 -0.2364913E-11  0.0000000E+00 -0.4977477E-03
  0.8131313E+00  0.0000000E+00  0.2525252E-01 -0.1280407E-11  0.0000000E+00 -0.4977477E-03
  0.8232324E+00  0.0000000E+00  0.2525252E-01  0.4364628E-11  0.0000000E+00 -0.4977478E-03
  0.8333333E+00  0.0000000E+00  0.2525252E-01  0.3629554E-12  0.0000000E+00 -0.4977477E-03
  0.8434343E+00  0.0000000E+00  0.2525252E-01  0.1523838E-11  0.0000000E+00 -0.4977477E-03
  0.8535354E+00  0.0000000E+00  0.2525252E-01  0.2532522E-11  0.0000000E+00 -0.4977477E-03
  0.8636364E+00  0.0000000E+00  0.2525252E-01  0.2599518E-11  0.0000000E+00 -0.4977477E-03
  0.8737374E+00  0.0000000E+00  0.2525252E-01  0.2255323E-11  0.0000000E+00 -0.4977477E-03
  0.8838384E+00  0.0000000E+00  0.2525252E-01  0.1648889E-11  0.0000000E+00 -0.4977477E-03
  0.8939394E+00  0.0000000E+00  0.2525252E-01  0.5719558E-12  0.0000000E+00 -0.4977477E-03
  0.9040404E+00  0.0000000E+00  0.2525252E-01 -0.4720192E-12  0.0000000E+00 -0.4977477E-03
  0.9141414E+00  0.0000000E+00  0.2525252E-01  0.1125736E-11  0.0000000E+00 -0.4977477E-03
  0.9242424E+00  0.0000000E+00  0.2525252E-01 -0.3738094E-11  0.0000000E+00 -0.4977477E-03
  0.9343435E+00  0.0000000E+00  0.2525252E-01 -0.1997680E-11  0.0000000E+00 -0.4977477E-03
  0.9444444E+00  0.0000000E+00  0.2525252E-01 -0.2611171E-11  0.0000000E+00 -0.4977477E-03
  0.9545454E+00  0.0000000E+00  0.2525252E-01 -0.3298912E-11  0.0000000E+00 -0.4977477E-03
  0.9646465E+00  0.0000000E+00  0.2525252E-01 -0.3450713E-11  0.0000000E+00 -0.4977478E-03
  0.9747475E+00  0.0000000E+00  0.2525252E-01 -0.2064045E-11  0.0000000E+00 -0.4977478E-03
  0.9848485E+00  0.0000000E+00  0.2525252E-01 -0.8876190E-12  0.0000000E+00 -0.4977478E-03
  0.9974747E+00  0.0000000E+00  0.2525252E-01 -0.3682927E-11  0.0000000E+00 -0.4977478E-03
  0.5050505E-02  0.0000000E+00  0.3535353E-01 -0.1145462E-11  0.0000000E+00 -0.4463679E-03
  0.1515152E-01  0.0000000E+00  0.3535353E-01  0.5085958E-11  0.0000000E+00 -0.4463679E-03
  0.2525252E-01  0.0000000E+00  0.3535353E-01  0.4526158E-12  0.0000000E+00 -0.4463679E-03
  0.3535353E-01  0.0000000E+00  0.3535353E-01  0.2580684E-11  0.0000000E+00 -0.4463679E-03
  0.4545455E-01  0.0000000E+00  0.3535353E-01  0.4425902E-11  0.0000000E+00 -0.4463679E-03
  0.5555556E-01  0.0000000E+00  0.3535353E-01  0.4468042E-11  0.0000000E+00 -0.4463678E-03
  0.6565657E-01  0.0000000E+00  0.3535353E-01  0.3943331E-11  0.0000000E+00 -0.4463678E-03
  0.7575758E-01  0.0000000E+00  0.3535353E-01  0.3325736E-11  0.0000000E+00 -0.4463678E-03
  0.8585858E-01  0.0000000E+00  0.3535353E-01  0.2163518E-11  0.0000000E+00 -0.4463678E-03
  0.9595960E-01  0.0000000E+00  0.3535353E-01 -0.5782310E-12  0.0000000E+00 -0.4463678E-03
  0.1060606E+00  0.0000000E+00  0.3535353E-01  0.2360625E-11  0.0000000E+00 -0.4463678E-03
  0.1161616E+00  0.0000000E+00  0.3535353E-01 -0.4067974E-11  0.0000000E+00 -0.4463678E-03
  0.1262626E+00  0.0000000E+00  0.3535353E-01 -0.1876269E-11  0.0000000E+00 -0.4463678E-03
  0.1363636E+00  0.0000000E+00  0.3535353E-01 -0.3412343E-11  0.0000000E+00 -0.4463678E-03
  0.1464646E+00  0.0000000E+00  0.3535353E-01 -0.3974617E-11  0.0000000E+00 -0.4463678E-03
  0.1565657E+00  0.0000000E+00  0.3535353E-01 -0.3750802E-11  0.0000000E+00 -0.4463679E-03
  0.1666667E+00  0.0000000E+00  0.3535353E-01 -0.3348633E-11  0.0000000E+00 -0.4463679E-03
  0.1767677E+00  0.0000000E+00  0.3535353E-01 -0.2409855E-11  0.0000000E+00 -0.4463679E-03
  0.1868687E+00  0.0000000E+00  0.3535353E-01  0.1030146E-12  0.0000000E+00 -0.4463679E-03
  0.1969697E+00  0.0000000E+00  0.3535353E-01 -0.3316809E-11  0.0000000E+00 -0.4463679E-03
  0.2070707E+00  0.0000000E+00  0.3535353E-01  0.2784181E-11  0.0000000E+00 -0.4463679E-03
  0.2171717E+00  0.0000000E+00  0.3535353E-01  0.5151790E-12  0.0000000E+00 -0.4463679E-03
  0.2272727E+00  0.0000000E+00  0.3535353E-01  0.9566866E-12  0.0000000E+00 -0.4463679E-03
  0.2373737E+00  0.0000000E+00  0.3535353E-01  0.1684333E-11  0.0000000E+00 -0.4463679E-03
  0.2474747E+00  0.0000000E+00  0.3535353E-01  0.1355748E-11  0.0000000E+00 -0.4463679E-03
  0.2575758E+00  0.0000000E+00  0.3535353E-01  0.8328693E-12  0.0000000E+00 -0.4463679E-03
  0.2676768E+00  0.0000000E+00  0.3535353E-01  0.5324957E-13  0.0000000E+00 -0.4463679E-03
  0.2777778E+00  0.0000000E+00  0.3535353E-01 -0.4019741E-12  0.0000000E+00 -0.4463679E-03
  0.2878788E+00  0.0000000E+00  0.3535353E-01 -0.1037677E-11  0.0000000E+00 -0.4463679E-03
  0.2979798E+00  0.0000000E+00  0.3535353E-01 -0.2343130E-11  0.0000000E+00 -0.4463679E-03