title = "dataset water"
variables = "x", "y", "z", "vx", "vy", "vz"
zone t = "velocities, solution time =  1.400E+01 days        " i =   99, j =   99, k =    1,  f=point
  0.5050505E-02  0.0000000E+00  0.5050505E-02  0.2522984E-11  0.0000000E+00 -0.3199999E-04
  0.1515152E-01  0.0000000E+00  0.5050505E-02  0.7458523E-11  0.0000000E+00 -0.3199998E-04
  0.2525252E-01  0.0000000E+00  0.5050505E-02  0.1237306E-10  0.0000000E+00 -0.3199996E-04
  0.3535353E-01  0.0000000E+00  0.5050505E-02  0.1727978E-10  0.0000000E+00 -0.3199993E-04
  0.4545455E-01  0.0000000E+00  0.5050505E-02  0.2216205E-10  0.0000000E+00 -0.3199989E-04
  0.5555556E-01  0.0000000E+00  0.5050505E-02  0.2701114E-10  0.0000000E+00 -0.3199984E-04
  0.6565657E-01  0.0000000E+00  0.5050505E-02  0.3181790E-10  0.0000000E+00 -0.3199978E-04
  0.7575758E-01  0.0000000E+00  0.5050505E-02  0.3657484E-10  0.0000000E+00 -0.3199971E-04
  0.8585858E-01  0.0000000E+00  0.5050505E-02  0.4127205E-10  0.0000000E+00 -0.3199963E-04
  0.9595960E-01  0.0000000E+00  0.5050505E-02  0.4590009E-10  0.0000000E+00 -0.3199955E-04
  0.1060606E+00  0.0000000E+00  0.5050505E-02  0.5044872E-10  0.0000000E+00 -0.3199945E-04
  0.1161616E+00  0.0000000E+00  0.5050505E-02  0.5490662E-10  0.0000000E+00 -0.3199934E-04
  0.1262626E+00  0.0000000E+00  0.5050505E-02  0.5926208E-10  0.0000000E+00 -0.3199923E-04
  0.1363636E+00  0.0000000E+00  0.5050505E-02  0.6350257E-10  0.0000000E+00 -0.3199911E-04
  0.1464646E+00  0.0000000E+00  0.5050505E-02  0.6761474E-10  0.0000000E+00 -0.3199897E-04
  0.1565657E+00  0.0000000E+00  0.5050505E-02  0.7158458E-10  0.0000000E+00 -0.3199883E-04
  0.1666667E+00  0.0000000E+00  0.5050505E-02  0.7539738E-10  0.0000000E+00 -0.3199869E-04
  0.1767677E+00  0.0000000E+00  0.5050505E-02  0.7903776E-10  0.0000000E+00 -0.3199853E-04
  0.1868687E+00  0.0000000E+00  0.5050505E-02  0.8248976E-10  0.0000000E+00 -0.3199837E-04
  0.1969697E+00  0.0000000E+00  0.5050505E-02  0.8573691E-10  0.0000000E+00 -0.3199820E-04
  0.2070707E+00  0.0000000E+00  0.5050505E-02  0.8876229E-10  0.0000000E+00 -0.3199803E-04
  0.2171717E+00  0.0000000E+00  0.5050505E-02  0.9154870E-10  0.0000000E+00 -0.3199784E-04
  0.2272727E+00  0.0000000E+00  0.5050505E-02  0.9407875E-10  0.0000000E+00 -0.3199766E-04
  0.2373737E+00  0.0000000E+00  0.5050505E-02  0.9633500E-10  0.0000000E+00 -0.3199747E-04
  0.2474747E+00  0.0000000E+00  0.5050505E-02  0.9830011E-10  0.0000000E+00 -0.3199727E-04
  0.2575758E+00  0.0000000E+00  0.5050505E-02  0.9995707E-10  0.0000000E+00 -0.3199707E-04
  0.2676768E+00  0.0000000E+00  0.5050505E-02  0.1012893E-09  0.0000000E+00 -0.3199687E-04
  0.2777778E+00  0.0000000E+00  0.5050505E-02  0.1022810E-09  0.0000000E+00 -0.3199667E-04
  0.2878788E+00  0.0000000E+00  0.5050505E-02  0.1029170E-09  0.0000000E+00 -0.3199646E-04
  0.2979798E+00  0.0000000E+00  0.5050505E-02  0.1031836E-09  0.0000000E+00 -0.3199625E-04
  0.3080808E+00  0.0000000E+00  0.5050505E-02  0.1030680E-09  0.0000000E+00 -0.3199605E-04
  0.3181818E+00  0.0000000E+00  0.5050505E-02  0.1025593E-09  0.0000000E+00 -0.3199584E-04
  0.3282828E+00  0.0000000E+00  0.5050505E-02  0.1016481E-09  0.0000000E+00 -0.3199564E-04
  0.3383838E+00  0.0000000E+00  0.5050505E-02  0.1003270E-09  0.0000000E+00 -0.3199543E-04
  0.3484848E+00  0.0000000E+00  0.5050505E-02  0.9859082E-10  0.0000000E+00 -0.3199523E-04
  0.3585859E+00  0.0000000E+00  0.5050505E-02  0.9643668E-10  0.0000000E+00 -0.3199504E-04
  0.3686869E+00  0.0000000E+00  0.5050505E-02  0.9386422E-10  0.0000000E+00 -0.3199485E-04
  0.3787879E+00  0.0000000E+00  0.5050505E-02  0.9087573E-10  0.0000000E+00 -0.3199466E-04
  0.3888889E+00  0.0000000E+00  0.5050505E-02  0.8747628E-10  0.0000000E+00 -0.3199448E-04
  0.3989899E+00  0.0000000E+00  0.5050505E-02  0.8367382E-10  0.0000000E+00 -0.3199431E-04
  0.4090909E+00  0.0000000E+00  0.5050505E-02  0.7947926E-10  0.0000000E+00 -0.3199415E-04
  0.4191919E+00  0.0000000E+00  0.5050505E-02  0.7490647E-10  0.0000000E+00 -0.3199399E-04
  0.4292929E+00  0.0000000E+00  0.5050505E-02  0.6997228E-10  0.0000000E+00 -0.3199385E-04
  0.4393939E+00  0.0000000E+00  0.5050505E-02  0.6469648E-10  0.0000000E+00 -0.3199371E-04
  0.4494950E+00  0.0000000E+00  0.5050505E-02  0.5910166E-10  0.0000000E+00 -0.3199359E-04
  0.4595959E+00  0.0000000E+00  0.5050505E-02  0.5321320E-10  0.0000000E+00 -0.3199347E-04
  0.4696970E+00  0.0000000E+00  0.5050505E-02  0.4705903E-10  0.0000000E+00 -0.3199337E-04
  0.4797980E+00  0.0000000E+00  0.5050505E-02  0.4066952E-10  0.0000000E+00 -0.3199328E-04
  0.4898990E+00  0.0000000E+00  0.5050505E-02  0.3407727E-10  0.0000000E+00 -0.3199321E-04
  0.5000000E+00  0.0000000E+00  0.5050505E-02  0.2731688E-10  0.0000000E+00 -0.3199315E-04
  0.5101010E+00  0.0000000E+00  0.5050505E-02  0.2042470E-10  0.0000000E+00 -0.3199310E-04
  0.5202020E+00  0.0000000E+00  0.5050505E-02  0.1343858E-10  0.0000000E+00 -0.3199307E-04
  0.5303030E+00  0.0000000E+00  0.5050505E-02  0.6397492E-11  0.0000000E+00 -0.3199305E-04
  0.5404040E+00  0.0000000E+00  0.5050505E-02 -0.6569023E-12  0.0000000E+00 -0.3199304E-04
  0.5505050E+00  0.0000000E+00  0.5050505E-02 -0.7690886E-11  0.0000000E+00 -0.3199305E-04
  0.5606061E+00  0.0000000E+00  0.5050505E-02 -0.1465644E-10  0.0000000E+00 -0.3199307E-04
  0.5707071E+00  0.0000000E+00  0.5050505E-02 -0.2151731E-10  0.0000000E+00 -0.3199311E-04
  0.5808081E+00  0.0000000E+00  0.5050505E-02 -0.2823494E-10  0.0000000E+00 -0.3199316E-04
  0.5909091E+00  0.0000000E+00  0.5050505E-02 -0.3477190E-10  0.0000000E+00 -0.3199322E-04
  0.6010101E+00  0.0000000E+00  0.5050505E-02 -0.4109123E-10  0.0000000E+00 -0.3199330E-04
  0.6111111E+00  0.0000000E+00  0.5050505E-02 -0.4715974E-10  0.0000000E+00 -0.3199338E-04
  0.6212121E+00  0.0000000E+00  0.5050505E-02 -0.5294454E-10  0.0000000E+00 -0.3199349E-04
  0.6313131E+00  0.0000000E+00  0.5050505E-02 -0.5841600E-10  0.0000000E+00 -0.3199360E-04
  0.6414142E+00  0.0000000E+00  0.5050505E-02 -0.6354680E-10  0.0000000E+00 -0.3199372E-04
  0.6515151E+00  0.0000000E+00  0.5050505E-02 -0.6831198E-10  0.0000000E+00 -0.3199385E-04
  0.6616161E+00  0.0000000E+00  0.5050505E-02 -0.7268964E-10  0.0000000E+00 -0.3199399E-04
  0.6717172E+00  0.0000000E+00  0.5050505E-02 -0.7666072E-10  0.0000000E+00 -0.3199414E-04
  0.6818182E+00  0.0000000E+00  0.5050505E-02 -0.8020912E-10  0.0000000E+00 -0.3199430E-04
  0.6919192E+00  0.0000000E+00  0.5050505E-02 -0.8332180E-10  0.0000000E+00 -0.3199447E-04
  0.7020202E+00  0.0000000E+00  0.5050505E-02 -0.8598871E-10  0.0000000E+00 -0.3199464E-04
  0.7121212E+00  0.0000000E+00  0.5050505E-02 -0.8820279E-10  0.0000000E+00 -0.3199481E-04
  0.7222222E+00  0.0000000E+00  0.5050505E-02 -0.8995991E-10  0.0000000E+00 -0.3199499E-04
  0.7323232E+00  0.0000000E+00  0.5050505E-02 -0.9125873E-10  0.0000000E+00 -0.3199517E-04
  0.7424242E+00  0.0000000E+00  0.5050505E-02 -0.9210057E-10  0.0000000E+00 -0.3199535E-04
  0.7525253E+00  0.0000000E+00  0.5050505E-02 -0.9248932E-10  0.0000000E+00 -0.3199554E-04
  0.7626263E+00  0.0000000E+00  0.5050505E-02 -0.9243120E-10  0.0000000E+00 -0.3199573E-04
  0.7727273E+00  0.0000000E+00  0.5050505E-02 -0.9193463E-10  0.0000000E+00 -0.3199591E-04
  0.7828283E+00  0.0000000E+00  0.5050505E-02 -0.9101003E-10  0.0000000E+00 -0.3199609E-04
  0.7929293E+00  0.0000000E+00  0.5050505E-02 -0.8966958E-10  0.0000000E+00 -0.3199628E-04
  0.8030303E+00  0.0000000E+00  0.5050505E-02 -0.8792709E-10  0.0000000E+00 -0.3199645E-04
  0.8131313E+00  0.0000000E+00  0.5050505E-02 -0.8579779E-10  0.0000000E+00 -0.3199663E-04
  0.8232324E+00  0.0000000E+00  0.5050505E-02 -0.8329808E-10  0.0000000E+00 -0.3199680E-04
  0.8333333E+00  0.0000000E+00  0.5050505E-02 -0.8044542E-10  0.0000000E+00 -0.3199696E-04
  0.8434343E+00  0.0000000E+00  0.5050505E-02 -0.7725815E-10  0.0000000E+00 -0.3199712E-04
  0.8535354E+00  0.0000000E+00  0.5050505E-02 -0.7375528E-10  0.0000000E+00 -0.3199727E-04
  0.8636364E+00  0.0000000E+00  0.5050505E-02 -0.6995638E-10  0.0000000E+00 -0.3199742E-04
  0.8737374E+00  0.0000000E+00  0.5050505E-02 -0.6588144E-10  0.0000000E+00 -0.3199755E-04
  0.8838384E+00  0.0000000E+00  0.5050505E-02 -0.6155074E-10  0.0000000E+00 -0.3199768E-04
  0.8939394E+00  0.0000000E+00  0.5050505E-02 -0.5698476E-10  0.0000000E+00 -0.3199780E-04
  0.9040404E+00  0.0000000E+00  0.5050505E-02 -0.5220406E-10  0.0000000E+00 -0.3199791E-04
  0.9141414E+00  0.0000000E+00  0.5050505E-02 -0.4722920E-10  0.0000000E+00 -0.3199801E-04
  0.9242424E+00  0.0000000E+00  0.5050505E-02 -0.4208068E-10  0.0000000E+00 -0.3199810E-04
  0.9343435E+00  0.0000000E+00  0.5050505E-02 -0.3677889E-10  0.0000000E+00 -0.3199818E-04
  0.9444444E+00  0.0000000E+00  0.5050505E-02 -0.3134402E-10  0.0000000E+00 -0.3199825E-04
  0.9545454E+00  0.0000000E+00  0.5050505E-02 -0.2579603E-10  0.0000000E+00 -0.3199830E-04
  0.9646465E+00  0.0000000E+00  0.5050505E-02 -0.2015456E-10  0.0000000E+00 -0.3199835E-04
  0.9747475E+00  0.0000000E+00  0.5050505E-02 -0.1443867E-10  0.0000000E+00 -0.3199839E-04
  0.9848485E+00  0.0000000E+00  0.5050505E-02 -0.8665995E-11  0.0000000E+00 -0.3199841E-04
  0.9974747E+00  0.0000000E+00  0.5050505E-02 -0.2849940E-11  0.0000000E+00 -0.3199842E-04
  0.5050505E-02  0.0000000E+00  0.1515152E-01  0.7569098E-11  0.0000000E+00 -0.3190198E-04
  0.1515152E-01  0.0000000E+00  0.1515152E-01  0.2244671E-10  0.0000000E+00 -0.3190197E-04
  0.2525252E-01  0.0000000E+00  0.1515152E-01  0.3725664E-10  0.0000000E+00 -0.3190195E-04
  0.3535353E-01  0.0000000E+00  0.1515152E-01  0.5203783E-10  0.0000000E+00 -0.3190192E-04
  0.4545455E-01  0.0000000E+00  0.1515152E-01  0.6674296E-10  0.0000000E+00 -0.3190188E-04
  0.5555556E-01  0.0000000E+00  0.1515152E-01  0.8134803E-10  0.0000000E+00 -0.3190183E-04
  0.6565657E-01  0.0000000E+00  0.1515152E-01  0.9582585E-10  0.0000000E+00 -0.3190177E-04
  0.7575758E-01  0.0000000E+00  0.1515152E-01  0.1101538E-09  0.0000000E+00 -0.3190170E-04
  0.8585858E-01  0.0000000E+00  0.1515152E-01  0.1243029E-09  0.0000000E+00 -0.3190162E-04
  0.9595960E-01  0.0000000E+00  0.1515152E-01  0.1382443E-09  0.0000000E+00 -0.3190153E-04
  0.1060606E+00  0.0000000E+00  0.1515152E-01  0.1519474E-09  0.0000000E+00 -0.3190143E-04
  0.1161616E+00  0.0000000E+00  0.1515152E-01  0.1653782E-09  0.0000000E+00 -0.3190132E-04
  0.1262626E+00  0.0000000E+00  0.1515152E-01  0.1785013E-09  0.0000000E+00 -0.3190121E-04
  0.1363636E+00  0.0000000E+00  0.1515152E-01  0.1912792E-09  0.0000000E+00 -0.3190108E-04
  0.1464646E+00  0.0000000E+00  0.1515152E-01  0.2036715E-09  0.0000000E+00 -0.3190095E-04
  0.1565657E+00  0.0000000E+00  0.1515152E-01  0.2156361E-09  0.0000000E+00 -0.3190081E-04
  0.1666667E+00  0.0000000E+00  0.1515152E-01  0.2271287E-09  0.0000000E+00 -0.3190066E-04
  0.1767677E+00  0.0000000E+00  0.1515152E-01  0.2381029E-09  0.0000000E+00 -0.3190050E-04
  0.1868687E+00  0.0000000E+00  0.1515152E-01  0.2485106E-09  0.0000000E+00 -0.3190034E-04
  0.1969697E+00  0.0000000E+00  0.1515152E-01  0.2583021E-09  0.0000000E+00 -0.3190016E-04
  0.2070707E+00  0.0000000E+00  0.1515152E-01  0.2674264E-09  0.0000000E+00 -0.3189999E-04
  0.2171717E+00  0.0000000E+00  0.1515152E-01  0.2758315E-09  0.0000000E+00 -0.3189980E-04
  0.2272727E+00  0.0000000E+00  0.1515152E-01  0.2834651E-09  0.0000000E+00 -0.3189961E-04
  0.2373737E+00  0.0000000E+00  0.1515152E-01  0.2902743E-09  0.0000000E+00 -0.3189942E-04
  0.2474747E+00  0.0000000E+00  0.1515152E-01  0.2962069E-09  0.0000000E+00 -0.3189922E-04
  0.2575758E+00  0.0000000E+00  0.1515152E-01  0.3012115E-09  0.0000000E+00 -0.3189902E-04
  0.2676768E+00  0.0000000E+00  0.1515152E-01  0.3052380E-09  0.0000000E+00 -0.3189881E-04
  0.2777778E+00  0.0000000E+00  0.1515152E-01  0.3082383E-09  0.0000000E+00 -0.3189861E-04
  0.2878788E+00  0.0000000E+00  0.1515152E-01  0.3101672E-09  0.0000000E+00 -0.3189840E-04
  0.2979798E+00  0.0000000E+00  0.1515152E-01  0.3109825E-09  0.0000000E+00 -0.3189819E-04
  0.3080808E+00  0.0000000E+00  0.1515152E-01  0.3106461E-09  0.0000000E+00 -0.3189797E-04
  0.3181818E+00  0.0000000E+00  0.1515152E-01  0.3091244E-09  0.0000000E+00 -0.3189776E-04
  0.3282828E+00  0.0000000E+00  0.1515152E-01  0.3063892E-09  0.0000000E+00 -0.3189756E-04
  0.3383838E+00  0.0000000E+00  0.1515152E-01  0.3024181E-09  0.0000000E+00 -0.3189735E-04
  0.3484848E+00  0.0000000E+00  0.1515152E-01  0.2971952E-09  0.0000000E+00 -0.3189715E-04
  0.3585859E+00  0.0000000E+00  0.1515152E-01  0.2907117E-09  0.0000000E+00 -0.3189695E-04
  0.3686869E+00  0.0000000E+00  0.1515152E-01  0.2829662E-09  0.0000000E+00 -0.3189675E-04
  0.3787879E+00  0.0000000E+00  0.1515152E-01  0.2739657E-09  0.0000000E+00 -0.3189656E-04
  0.3888889E+00  0.0000000E+00  0.1515152E-01  0.2637252E-09  0.0000000E+00 -0.3189638E-04
  0.3989899E+00  0.0000000E+00  0.1515152E-01  0.2522687E-09  0.0000000E+00 -0.3189621E-04
  0.4090909E+00  0.0000000E+00  0.1515152E-01  0.2396289E-09  0.0000000E+00 -0.3189604E-04
  0.4191919E+00  0.0000000E+00  0.1515152E-01  0.2258475E-09  0.0000000E+00 -0.3189588E-04
  0.4292929E+00  0.0000000E+00  0.1515152E-01  0.2109754E-09  0.0000000E+00 -0.3189573E-04
  0.4393939E+00  0.0000000E+00  0.1515152E-01  0.1950721E-09  0.0000000E+00 -0.3189560E-04
  0.4494950E+00  0.0000000E+00  0.1515152E-01  0.1782057E-09  0.0000000E+00 -0.3189547E-04
  0.4595959E+00  0.0000000E+00  0.1515152E-01  0.1604528E-09  0.0000000E+00 -0.3189536E-04
  0.4696970E+00  0.0000000E+00  0.1515152E-01  0.1418977E-09  0.0000000E+00 -0.3189525E-04
  0.4797980E+00  0.0000000E+00  0.1515152E-01  0.1226319E-09  0.0000000E+00 -0.3189516E-04
  0.4898990E+00  0.0000000E+00  0.1515152E-01  0.1027539E-09  0.0000000E+00 -0.3189509E-04
  0.5000000E+00  0.0000000E+00  0.1515152E-01  0.8236814E-10  0.0000000E+00 -0.3189502E-04
  0.5101010E+00  0.0000000E+00  0.1515152E-01  0.6158430E-10  0.0000000E+00 -0.3189498E-04
  0.5202020E+00  0.0000000E+00  0.1515152E-01  0.4051637E-10  0.0000000E+00 -0.3189494E-04
  0.5303030E+00  0.0000000E+00  0.1515152E-01  0.1928066E-10  0.0000000E+00 -0.3189492E-04
  0.5404040E+00  0.0000000E+00  0.1515152E-01 -0.1994148E-11  0.0000000E+00 -0.3189492E-04
  0.5505050E+00  0.0000000E+00  0.1515152E-01 -0.2320535E-10  0.0000000E+00 -0.3189492E-04
  0.5606061E+00  0.0000000E+00  0.1515152E-01 -0.4421431E-10  0.0000000E+00 -0.3189495E-04
  0.5707071E+00  0.0000000E+00  0.1515152E-01 -0.6490627E-10  0.0000000E+00 -0.3189498E-04
  0.5808081E+00  0.0000000E+00  0.1515152E-01 -0.8516471E-10  0.0000000E+00 -0.3189503E-04
  0.5909091E+00  0.0000000E+00  0.1515152E-01 -0.1048778E-09  0.0000000E+00 -0.3189510E-04
  0.6010101E+00  0.0000000E+00  0.1515152E-01 -0.1239343E-09  0.0000000E+00 -0.3189518E-04
  0.6111111E+00  0.0000000E+00  0.1515152E-01 -0.1422335E-09  0.0000000E+00 -0.3189527E-04
  0.6212121E+00  0.0000000E+00  0.1515152E-01 -0.1596768E-09  0.0000000E+00 -0.3189537E-04
  0.6313131E+00  0.0000000E+00  0.1515152E-01 -0.1761745E-09  0.0000000E+00 -0.3189548E-04
  0.6414142E+00  0.0000000E+00  0.1515152E-01 -0.1916441E-09  0.0000000E+00 -0.3189561E-04
  0.6515151E+00  0.0000000E+00  0.1515152E-01 -0.2060104E-09  0.0000000E+00 -0.3189574E-04
  0.6616161E+00  0.0000000E+00  0.1515152E-01 -0.2192073E-09  0.0000000E+00 -0.3189589E-04
  0.6717172E+00  0.0000000E+00  0.1515152E-01 -0.2311775E-09  0.0000000E+00 -0.3189604E-04
  0.6818182E+00  0.0000000E+00  0.1515152E-01 -0.2418723E-09  0.0000000E+00 -0.3189620E-04
  0.6919192E+00  0.0000000E+00  0.1515152E-01 -0.2512524E-09  0.0000000E+00 -0.3189637E-04
  0.7020202E+00  0.0000000E+00  0.1515152E-01 -0.2592878E-09  0.0000000E+00 -0.3189654E-04
  0.7121212E+00  0.0000000E+00  0.1515152E-01 -0.2659572E-09  0.0000000E+00 -0.3189672E-04
  0.7222222E+00  0.0000000E+00  0.1515152E-01 -0.2712483E-09  0.0000000E+00 -0.3189690E-04
  0.7323232E+00  0.0000000E+00  0.1515152E-01 -0.2751571E-09  0.0000000E+00 -0.3189709E-04
  0.7424242E+00  0.0000000E+00  0.1515152E-01 -0.2776877E-09  0.0000000E+00 -0.3189727E-04
  0.7525253E+00  0.0000000E+00  0.1515152E-01 -0.2788520E-09  0.0000000E+00 -0.3189746E-04
  0.7626263E+00  0.0000000E+00  0.1515152E-01 -0.2786690E-09  0.0000000E+00 -0.3189765E-04
  0.7727273E+00  0.0000000E+00  0.1515152E-01 -0.2771641E-09  0.0000000E+00 -0.3189784E-04
  0.7828283E+00  0.0000000E+00  0.1515152E-01 -0.2743689E-09  0.0000000E+00 -0.3189803E-04
  0.7929293E+00  0.0000000E+00  0.1515152E-01 -0.2703203E-09  0.0000000E+00 -0.3189821E-04
  0.8030303E+00  0.0000000E+00  0.1515152E-01 -0.2650600E-09  0.0000000E+00 -0.3189839E-04
  0.8131313E+00  0.0000000E+00  0.1515152E-01 -0.2586341E-09  0.0000000E+00 -0.3189857E-04
  0.8232324E+00  0.0000000E+00  0.1515152E-01 -0.2510921E-09  0.0000000E+00 -0.3189874E-04
  0.8333333E+00  0.0000000E+00  0.1515152E-01 -0.2424868E-09  0.0000000E+00 -0.3189891E-04
  0.8434343E+00  0.0000000E+00  0.1515152E-01 -0.2328735E-09  0.0000000E+00 -0.3189907E-04
  0.8535354E+00  0.0000000E+00  0.1515152E-01 -0.2223096E-09  0.0000000E+00 -0.3189922E-04
  0.8636364E+00  0.0000000E+00  0.1515152E-01 -0.2108542E-09  0.0000000E+00 -0.3189937E-04
  0.8737374E+00  0.0000000E+00  0.1515152E-01 -0.1985676E-09  0.0000000E+00 -0.3189951E-04
  0.8838384E+00  0.0000000E+00  0.1515152E-01 -0.1855110E-09  0.0000000E+00 -0.3189964E-04
  0.8939394E+00  0.0000000E+00  0.1515152E-01 -0.1717461E-09  0.0000000E+00 -0.3189976E-04
  0.9040404E+00  0.0000000E+00  0.1515152E-01 -0.1573348E-09  0.0000000E+00 -0.3189987E-04
  0.9141414E+00  0.0000000E+00  0.1515152E-01 -0.1423393E-09  0.0000000E+00 -0.3189997E-04
  0.9242424E+00  0.0000000E+00  0.1515152E-01 -0.1268211E-09  0.0000000E+00 -0.3190007E-04
  0.9343435E+00  0.0000000E+00  0.1515152E-01 -0.1108418E-09  0.0000000E+00 -0.3190015E-04
  0.9444444E+00  0.0000000E+00  0.1515152E-01 -0.9446219E-10  0.0000000E+00 -0.3190022E-04
  0.9545454E+00  0.0000000E+00  0.1515152E-01 -0.7774249E-10  0.0000000E+00 -0.3190027E-04
  0.9646465E+00  0.0000000E+00  0.1515152E-01 -0.6074213E-10  0.0000000E+00 -0.3190032E-04
  0.9747475E+00  0.0000000E+00  0.1515152E-01 -0.4351942E-10  0.0000000E+00 -0.3190036E-04
  0.9848485E+00  0.0000000E+00  0.1515152E-01 -0.2613043E-10  0.0000000E+00 -0.3190038E-04
  0.9974747E+00  0.0000000E+00  0.1515152E-01 -0.8625787E-11  0.0000000E+00 -0.3190039E-04
  0.5050505E-02  0.0000000E+00  0.2525252E-01  0.1266891E-10  0.0000000E+00 -0.3170692E-04
  0.1515152E-01  0.0000000E+00  0.2525252E-01  0.3768824E-10  0.0000000E+00 -0.3170691E-04
  0.2525252E-01  0.0000000E+00  0.2525252E-01  0.6259563E-10  0.0000000E+00 -0.3170689E-04
  0.3535353E-01  0.0000000E+00  0.2525252E-01  0.8744470E-10  0.0000000E+00 -0.3170686E-04
  0.4545455E-01  0.0000000E+00  0.2525252E-01  0.1121615E-09  0.0000000E+00 -0.3170682E-04
  0.5555556E-01  0.0000000E+00  0.2525252E-01  0.1367097E-09  0.0000000E+00 -0.3170676E-04
  0.6565657E-01  0.0000000E+00  0.2525252E-01  0.1610455E-09  0.0000000E+00 -0.3170670E-04
  0.7575758E-01  0.0000000E+00  0.2525252E-01  0.1851307E-09  0.0000000E+00 -0.3170663E-04
  0.8585858E-01  0.0000000E+00  0.2525252E-01  0.2089180E-09  0.0000000E+00 -0.3170655E-04
  0.9595960E-01  0.0000000E+00  0.2525252E-01  0.2323588E-09  0.0000000E+00 -0.3170646E-04
  0.1060606E+00  0.0000000E+00  0.2525252E-01  0.2554017E-09  0.0000000E+00 -0.3170636E-04
  0.1161616E+00  0.0000000E+00  0.2525252E-01  0.2779900E-09  0.0000000E+00 -0.3170625E-04
  0.1262626E+00  0.0000000E+00  0.2525252E-01  0.3000645E-09  0.0000000E+00 -0.3170613E-04
  0.1363636E+00  0.0000000E+00  0.2525252E-01  0.3215617E-09  0.0000000E+00 -0.3170600E-04
  0.1464646E+00  0.0000000E+00  0.2525252E-01  0.3424143E-09  0.0000000E+00 -0.3170586E-04
  0.1565657E+00  0.0000000E+00  0.2525252E-01  0.3625512E-09  0.0000000E+00 -0.3170571E-04
  0.1666667E+00  0.0000000E+00  0.2525252E-01  0.3818979E-09  0.0000000E+00 -0.3170556E-04
  0.1767677E+00  0.0000000E+00  0.2525252E-01  0.4003764E-09  0.0000000E+00 -0.3170540E-04
  0.1868687E+00  0.0000000E+00  0.2525252E-01  0.4179056E-09  0.0000000E+00 -0.3170523E-04
  0.1969697E+00  0.0000000E+00  0.2525252E-01  0.4344018E-09  0.0000000E+00 -0.3170505E-04
  0.2070707E+00  0.0000000E+00  0.2525252E-01  0.4497790E-09  0.0000000E+00 -0.3170487E-04
  0.2171717E+00  0.0000000E+00  0.2525252E-01  0.4639495E-09  0.0000000E+00 -0.3170468E-04
  0.2272727E+00  0.0000000E+00  0.2525252E-01  0.4768248E-09  0.0000000E+00 -0.3170448E-04
  0.2373737E+00  0.0000000E+00  0.2525252E-01  0.4883158E-09  0.0000000E+00 -0.3170428E-04
  0.2474747E+00  0.0000000E+00  0.2525252E-01  0.4983342E-09  0.0000000E+00 -0.3170408E-04
  0.2575758E+00  0.0000000E+00  0.2525252E-01  0.5067929E-09  0.0000000E+00 -0.3170387E-04
  0.2676768E+00  0.0000000E+00  0.2525252E-01  0.5136072E-09  0.0000000E+00 -0.3170366E-04
  0.2777778E+00  0.0000000E+00  0.2525252E-01  0.5186960E-09  0.0000000E+00 -0.3170344E-04
  0.2878788E+00  0.0000000E+00  0.2525252E-01  0.5219821E-09  0.0000000E+00 -0.3170323E-04
  0.2979798E+00  0.0000000E+00  0.2525252E-01  0.5233944E-09  0.0000000E+00 -0.3170301E-04
  0.3080808E+00  0.0000000E+00  0.2525252E-01  0.5228679E-09  0.0000000E+00 -0.3170279E-04
  0.3181818E+00  0.0000000E+00  0.2525252E-01  0.5203457E-09  0.0000000E+00 -0.3170257E-04
  0.3282828E+00  0.0000000E+00  0.2525252E-01  0.5157796E-09  0.0000000E+00 -0.3170236E-04
  0.3383838E+00  0.0000000E+00  0.2525252E-01  0.5091313E-09  0.0000000E+00 -0.3170214E-04
  0.3484848E+00  0.0000000E+00  0.2525252E-01  0.5003735E-09  0.0000000E+00 -0.3170193E-04
  0.3585859E+00  0.0000000E+00  0.2525252E-01  0.4894909E-09  0.0000000E+00 -0.3170173E-04
  0.3686869E+00  0.0000000E+00  0.2525252E-01  0.4764807E-09  0.0000000E+00 -0.3170153E-04
  0.3787879E+00  0.0000000E+00  0.2525252E-01  0.4613540E-09  0.0000000E+00 -0.3170133E-04
  0.3888889E+00  0.0000000E+00  0.2525252E-01  0.4441359E-09  0.0000000E+00 -0.3170114E-04
  0.3989899E+00  0.0000000E+00  0.2525252E-01  0.4248662E-09  0.0000000E+00 -0.3170096E-04
  0.4090909E+00  0.0000000E+00  0.2525252E-01  0.4036000E-09  0.0000000E+00 -0.3170079E-04
  0.4191919E+00  0.0000000E+00  0.2525252E-01  0.3804072E-09  0.0000000E+00 -0.3170063E-04
  0.4292929E+00  0.0000000E+00  0.2525252E-01  0.3553733E-09  0.0000000E+00 -0.3170047E-04
  0.4393939E+00  0.0000000E+00  0.2525252E-01  0.3285984E-09  0.0000000E+00 -0.3170033E-04
  0.4494950E+00  0.0000000E+00  0.2525252E-01  0.3001974E-09  0.0000000E+00 -0.3170020E-04
  0.4595959E+00  0.0000000E+00  0.2525252E-01  0.2702993E-09  0.0000000E+00 -0.3170008E-04
  0.4696970E+00  0.0000000E+00  0.2525252E-01  0.2390461E-09  0.0000000E+00 -0.3169997E-04
  0.4797980E+00  0.0000000E+00  0.2525252E-01  0.2065924E-09  0.0000000E+00 -0.3169988E-04
  0.4898990E+00  0.0000000E+00  0.2525252E-01  0.1731042E-09  0.0000000E+00 -0.3169980E-04
  0.5000000E+00  0.0000000E+00  0.2525252E-01  0.1387577E-09  0.0000000E+00 -0.3169974E-04
  0.5101010E+00  0.0000000E+00  0.2525252E-01  0.1037382E-09  0.0000000E+00 -0.3169969E-04
  0.5202020E+00  0.0000000E+00  0.2525252E-01  0.6823804E-10  0.0000000E+00 -0.3169965E-04
  0.5303030E+00  0.0000000E+00  0.2525252E-01  0.3245070E-10  0.0000000E+00 -0.3169963E-04
  0.5404040E+00  0.0000000E+00  0.2525252E-01 -0.3404024E-11  0.0000000E+00 -0.3169962E-04
  0.5505050E+00  0.0000000E+00  0.2525252E-01 -0.3914562E-10  0.0000000E+00 -0.3169963E-04
  0.5606061E+00  0.0000000E+00  0.2525252E-01 -0.7455379E-10  0.0000000E+00 -0.3169966E-04
  0.5707071E+00  0.0000000E+00  0.2525252E-01 -0.1094253E-09  0.0000000E+00 -0.3169970E-04
  0.5808081E+00  0.0000000E+00  0.2525252E-01 -0.1435627E-09  0.0000000E+00 -0.3169975E-04
  0.5909091E+00  0.0000000E+00  0.2525252E-01 -0.1767794E-09  0.0000000E+00 -0.3169981E-04
  0.6010101E+00  0.0000000E+00  0.2525252E-01 -0.2088882E-09  0.0000000E+00 -0.3169990E-04
  0.6111111E+00  0.0000000E+00  0.2525252E-01 -0.2397188E-09  0.0000000E+00 -0.3169999E-04
  0.6212121E+00  0.0000000E+00  0.2525252E-01 -0.2691055E-09  0.0000000E+00 -0.3170010E-04
  0.6313131E+00  0.0000000E+00  0.2525252E-01 -0.2968964E-09  0.0000000E+00 -0.3170021E-04
  0.6414142E+00  0.0000000E+00  0.2525252E-01 -0.3229525E-09  0.0000000E+00 -0.3170034E-04
  0.6515151E+00  0.0000000E+00  0.2525252E-01 -0.3471471E-09  0.0000000E+00 -0.3170048E-04
  0.6616161E+00  0.0000000E+00  0.2525252E-01 -0.3693688E-09  0.0000000E+00 -0.3170063E-04
  0.6717172E+00  0.0000000E+00  0.2525252E-01 -0.3895209E-09  0.0000000E+00 -0.3170079E-04
  0.6818182E+00  0.0000000E+00  0.2525252E-01 -0.4075218E-09  0.0000000E+00 -0.3170096E-04
  0.6919192E+00  0.0000000E+00  0.2525252E-01 -0.4233055E-09  0.0000000E+00 -0.3170113E-04
  0.7020202E+00  0.0000000E+00  0.2525252E-01 -0.4368215E-09  0.0000000E+00 -0.3170131E-04
  0.7121212E+00  0.0000000E+00  0.2525252E-01 -0.4480343E-09  0.0000000E+00 -0.3170149E-04
  0.7222222E+00  0.0000000E+00  0.2525252E-01 -0.4569235E-09  0.0000000E+00 -0.3170168E-04
  0.7323232E+00  0.0000000E+00  0.2525252E-01 -0.4634829E-09  0.0000000E+00 -0.3170187E-04
  0.7424242E+00  0.0000000E+00  0.2525252E-01 -0.4677200E-09  0.0000000E+00 -0.3170207E-04
  0.7525253E+00  0.0000000E+00  0.2525252E-01 -0.4696551E-09  0.0000000E+00 -0.3170226E-04
  0.7626263E+00  0.0000000E+00  0.2525252E-01 -0.4693206E-09  0.0000000E+00 -0.3170246E-04
  0.7727273E+00  0.0000000E+00  0.2525252E-01 -0.4667599E-09  0.0000000E+00 -0.3170265E-04
  0.7828283E+00  0.0000000E+00  0.2525252E-01 -0.4620267E-09  0.0000000E+00 -0.3170285E-04
  0.7929293E+00  0.0000000E+00  0.2525252E-01 -0.4551836E-09  0.0000000E+00 -0.3170304E-04
  0.8030303E+00  0.0000000E+00  0.2525252E-01 -0.4463013E-09  0.0000000E+00 -0.3170323E-04
  0.8131313E+00  0.0000000E+00  0.2525252E-01 -0.4354577E-09  0.0000000E+00 -0.3170341E-04
  0.8232324E+00  0.0000000E+00  0.2525252E-01 -0.4227367E-09  0.0000000E+00 -0.3170359E-04
  0.8333333E+00  0.0000000E+00  0.2525252E-01 -0.4082276E-09  0.0000000E+00 -0.3170376E-04
  0.8434343E+00  0.0000000E+00  0.2525252E-01 -0.3920237E-09  0.0000000E+00 -0.3170393E-04
  0.8535354E+00  0.0000000E+00  0.2525252E-01 -0.3742220E-09  0.0000000E+00 -0.3170409E-04
  0.8636364E+00  0.0000000E+00  0.2525252E-01 -0.3549221E-09  0.0000000E+00 -0.3170424E-04
  0.8737374E+00  0.0000000E+00  0.2525252E-01 -0.3342259E-09  0.0000000E+00 -0.3170438E-04
  0.8838384E+00  0.0000000E+00  0.2525252E-01 -0.3122362E-09  0.0000000E+00 -0.3170452E-04
  0.8939394E+00  0.0000000E+00  0.2525252E-01 -0.2890573E-09  0.0000000E+00 -0.3170464E-04
  0.9040404E+00  0.0000000E+00  0.2525252E-01 -0.2647933E-09  0.0000000E+00 -0.3170476E-04
  0.9141414E+00  0.0000000E+00  0.2525252E-01 -0.2395486E-09  0.0000000E+00 -0.3170486E-04
  0.9242424E+00  0.0000000E+00  0.2525252E-01 -0.2134271E-09  0.0000000E+00 -0.3170496E-04
  0.9343435E+00  0.0000000E+00  0.2525252E-01 -0.1865322E-09  0.0000000E+00 -0.3170504E-04
  0.9444444E+00  0.0000000E+00  0.2525252E-01 -0.1589661E-09  0.0000000E+00 -0.3170511E-04
  0.9545454E+00  0.0000000E+00  0.2525252E-01 -0.1308301E-09  0.0000000E+00 -0.3170517E-04
  0.9646465E+00  0.0000000E+00  0.2525252E-01 -0.1022247E-09  0.0000000E+00 -0.3170522E-04
  0.9747475E+00  0.0000000E+00  0.2525252E-01 -0.7324934E-10  0.0000000E+00 -0.3170526E-04
  0.9848485E+00  0.0000000E+00  0.2525252E-01 -0.4400281E-10  0.0000000E+00 -0.3170528E-04
  0.9974747E+00  0.0000000E+00  0.2525252E-01 -0.1458294E-10  0.0000000E+00 -0.3170529E-04
  0.5050505E-02  0.0000000E+00  0.3535353E-01  0.1791867E-10  0.0000000E+00 -0.3141630E-04
  0.1515152E-01  0.0000000E+00  0.3535353E-01  0.5340944E-10  0.0000000E+00 -0.3141628E-04
  0.2525252E-01  0.0000000E+00  0.3535353E-01  0.8875587E-10  0.0000000E+00 -0.3141626E-04
  0.3535353E-01  0.0000000E+00  0.3535353E-01  0.1240093E-09  0.0000000E+00 -0.3141623E-04
  0.4545455E-01  0.0000000E+00  0.3535353E-01  0.1590715E-09  0.0000000E+00 -0.3141619E-04
  0.5555556E-01  0.0000000E+00  0.3535353E-01  0.1938948E-09  0.0000000E+00 -0.3141613E-04
  0.6565657E-01  0.0000000E+00  0.3535353E-01  0.2284204E-09  0.0000000E+00 -0.3141607E-04
  0.7575758E-01  0.0000000E+00  0.3535353E-01  0.2625939E-09  0.0000000E+00 -0.3141600E-04
  0.8585858E-01  0.0000000E+00  0.3535353E-01  0.2963501E-09  0.0000000E+00 -0.3141591E-04
  0.9595960E-01  0.0000000E+00  0.3535353E-01  0.3296204E-09  0.0000000E+00 -0.3141581E-04
  0.1060606E+00  0.0000000E+00  0.3535353E-01  0.3623321E-09  0.0000000E+00 -0.3141571E-04
  0.1161616E+00  0.0000000E+00  0.3535353E-01  0.3944056E-09  0.0000000E+00 -0.3141559E-04
  0.1262626E+00  0.0000000E+00  0.3535353E-01  0.4257567E-09  0.0000000E+00 -0.3141547E-04
  0.1363636E+00  0.0000000E+00  0.3535353E-01  0.4562957E-09  0.0000000E+00 -0.3141533E-04
  0.1464646E+00  0.0000000E+00  0.3535353E-01  0.4859271E-09  0.0000000E+00 -0.3141519E-04
  0.1565657E+00  0.0000000E+00  0.3535353E-01  0.5145502E-09  0.0000000E+00 -0.3141504E-04
  0.1666667E+00  0.0000000E+00  0.3535353E-01  0.5420590E-09  0.0000000E+00 -0.3141488E-04
  0.1767677E+00  0.0000000E+00  0.3535353E-01  0.5683428E-09  0.0000000E+00 -0.3141471E-04
  0.1868687E+00  0.0000000E+00  0.3535353E-01  0.5932860E-09  0.0000000E+00 -0.3141453E-04
  0.1969697E+00  0.0000000E+00  0.3535353E-01  0.6167695E-09  0.0000000E+00 -0.3141435E-04
  0.2070707E+00  0.0000000E+00  0.3535353E-01  0.6386706E-09  0.0000000E+00 -0.3141415E-04
  0.2171717E+00  0.0000000E+00  0.3535353E-01  0.6588644E-09  0.0000000E+00 -0.3141396E-04
  0.2272727E+00  0.0000000E+00  0.3535353E-01  0.6772243E-09  0.0000000E+00 -0.3141375E-04
  0.2373737E+00  0.0000000E+00  0.3535353E-01  0.6936231E-09  0.0000000E+00 -0.3141354E-04
  0.2474747E+00  0.0000000E+00  0.3535353E-01  0.7079345E-09  0.0000000E+00 -0.3141333E-04
  0.2575758E+00  0.0000000E+00  0.3535353E-01  0.7200338E-09  0.0000000E+00 -0.3141311E-04
  0.2676768E+00  0.0000000E+00  0.3535353E-01  0.7297997E-09  0.0000000E+00 -0.3141289E-04
  0.2777778E+00  0.0000000E+00  0.3535353E-01  0.7371156E-09  0.0000000E+00 -0.3141266E-04
  0.2878788E+00  0.0000000E+00  0.3535353E-01  0.7418711E-09  0.0000000E+00 -0.3141243E-04
  0.2979798E+00  0.0000000E+00  0.3535353E-01  0.7439634E-09  0.0000000E+00 -0.3141221E-04