title = "dataset water"
variables = "x", "y", "z", "vx", "vy", "vz"
zone t = "velocities, solution time =  3.300E+01 days        " i =   99, j =   99, k =    1,  f=point
  0.5050505E-02  0.0000000E+00  0.5050505E-02  0.4380579E-08  0.0000000E+00 -0.3394152E-05
  0.1515152E-01  0.0000000E+00  0.5050505E-02  0.1315262E-07  0.0000000E+00 -0.3376611E-05
  0.2525252E-01  0.0000000E+00  0.5050505E-02  0.2195733E-07  0.0000000E+00 -0.3341487E-05
  0.3535353E-01  0.0000000E+00  0.5050505E-02  0.3081658E-07  0.0000000E+00 -0.3288692E-05
  0.4545455E-01  0.0000000E+00  0.5050505E-02  0.3975231E-07  0.0000000E+00 -0.3218095E-05
  0.5555556E-01  0.0000000E+00  0.5050505E-02  0.4878662E-07  0.0000000E+00 -0.3129522E-05
  0.6565657E-01  0.0000000E+00  0.5050505E-02  0.5794174E-07  0.0000000E+00 -0.3022754E-05
  0.7575758E-01  0.0000000E+00  0.5050505E-02  0.6724013E-07  0.0000000E+00 -0.2897528E-05
  0.8585858E-01  0.0000000E+00  0.5050505E-02  0.7670447E-07  0.0000000E+00 -0.2753535E-05
  0.9595960E-01  0.0000000E+00  0.5050505E-02  0.8635772E-07  0.0000000E+00 -0.2590421E-05
  0.1060606E+00  0.0000000E+00  0.5050505E-02  0.9622317E-07  0.0000000E+00 -0.2407786E-05
  0.1161616E+00  0.0000000E+00  0.5050505E-02  0.1063245E-06  0.0000000E+00 -0.2205184E-05
  0.1262626E+00  0.0000000E+00  0.5050505E-02  0.1166858E-06  0.0000000E+00 -0.1982119E-05
  0.1363636E+00  0.0000000E+00  0.5050505E-02  0.1273316E-06  0.0000000E+00 -0.1738050E-05
  0.1464646E+00  0.0000000E+00  0.5050505E-02  0.1382871E-06  0.0000000E+00 -0.1472383E-05
  0.1565657E+00  0.0000000E+00  0.5050505E-02  0.1495781E-06  0.0000000E+00 -0.1184477E-05
  0.1666667E+00  0.0000000E+00  0.5050505E-02  0.1612311E-06  0.0000000E+00 -0.8736342E-06
  0.1767677E+00  0.0000000E+00  0.5050505E-02  0.1732740E-06  0.0000000E+00 -0.5391072E-06
  0.1868687E+00  0.0000000E+00  0.5050505E-02  0.1857359E-06  0.0000000E+00 -0.1800815E-06
  0.1969697E+00  0.0000000E+00  0.5050505E-02  0.1986016E-06  0.0000000E+00  0.2048443E-06
  0.2070707E+00  0.0000000E+00  0.5050505E-02  0.2119439E-06  0.0000000E+00  0.6165994E-06
  0.2171717E+00  0.0000000E+00  0.5050505E-02  0.2257928E-06  0.0000000E+00  0.1055648E-05
  0.2272727E+00  0.0000000E+00  0.5050505E-02  0.2401795E-06  0.0000000E+00  0.1523042E-05
  0.2373737E+00  0.0000000E+00  0.5050505E-02  0.2551364E-06  0.0000000E+00  0.2019898E-05
  0.2474747E+00  0.0000000E+00  0.5050505E-02  0.2706976E-06  0.0000000E+00  0.2547398E-05
  0.2575758E+00  0.0000000E+00  0.5050505E-02  0.2868989E-06  0.0000000E+00  0.3106798E-05
  0.2676768E+00  0.0000000E+00  0.5050505E-02  0.3037780E-06  0.0000000E+00  0.3699426E-05
  0.2777778E+00  0.0000000E+00  0.5050505E-02  0.3213754E-06  0.0000000E+00  0.4326690E-05
  0.2878788E+00  0.0000000E+00  0.5050505E-02  0.3397331E-06  0.0000000E+00  0.4990082E-05
  0.2979798E+00  0.0000000E+00  0.5050505E-02  0.3588949E-06  0.0000000E+00  0.5691179E-05
  0.3080808E+00  0.0000000E+00  0.5050505E-02  0.3789058E-06  0.0000000E+00  0.6431652E-05
  0.3181818E+00  0.0000000E+00  0.5050505E-02  0.3998120E-06  0.0000000E+00  0.7213260E-05
  0.3282828E+00  0.0000000E+00  0.5050505E-02  0.4216591E-06  0.0000000E+00  0.8037860E-05
  0.3383838E+00  0.0000000E+00  0.5050505E-02  0.4444910E-06  0.0000000E+00  0.8907396E-05
  0.3484848E+00  0.0000000E+00  0.5050505E-02  0.4683468E-06  0.0000000E+00  0.9823900E-05
  0.3585859E+00  0.0000000E+00  0.5050505E-02  0.4932563E-06  0.0000000E+00  0.1078947E-04
  0.3686869E+00  0.0000000E+00  0.5050505E-02  0.5192333E-06  0.0000000E+00  0.1180626E-04
  0.3787879E+00  0.0000000E+00  0.5050505E-02  0.5462652E-06  0.0000000E+00  0.1287642E-04
  0.3888889E+00  0.0000000E+00  0.5050505E-02  0.5742973E-06  0.0000000E+00  0.1400203E-04
  0.3989899E+00  0.0000000E+00  0.5050505E-02  0.6032099E-06  0.0000000E+00  0.1518501E-04
  0.4090909E+00  0.0000000E+00  0.5050505E-02  0.6327850E-06  0.0000000E+00  0.1642692E-04
  0.4191919E+00  0.0000000E+00  0.5050505E-02  0.6626580E-06  0.0000000E+00  0.1772877E-04
  0.4292929E+00  0.0000000E+00  0.5050505E-02  0.6922497E-06  0.0000000E+00  0.1909059E-04
  0.4393939E+00  0.0000000E+00  0.5050505E-02  0.7206726E-06  0.0000000E+00  0.2051095E-04
  0.4494950E+00  0.0000000E+00  0.5050505E-02  0.7466057E-06  0.0000000E+00  0.2198622E-04
  0.4595959E+00  0.0000000E+00  0.5050505E-02  0.7681350E-06  0.0000000E+00  0.2350948E-04
  0.4696970E+00  0.0000000E+00  0.5050505E-02  0.7825667E-06  0.0000000E+00  0.2506919E-04
  0.4797980E+00  0.0000000E+00  0.5050505E-02  0.7862376E-06  0.0000000E+00  0.2664742E-04
  0.4898990E+00  0.0000000E+00  0.5050505E-02  0.7743855E-06  0.0000000E+00  0.2821771E-04
  0.5000000E+00  0.0000000E+00  0.5050505E-02  0.7412001E-06  0.0000000E+00  0.2974298E-04
  0.5101010E+00  0.0000000E+00  0.5050505E-02  0.6802577E-06  0.0000000E+00  0.3117378E-04
  0.5202020E+00  0.0000000E+00  0.5050505E-02  0.5856062E-06  0.0000000E+00  0.3244819E-04
  0.5303030E+00  0.0000000E+00  0.5050505E-02  0.4537280E-06  0.0000000E+00  0.3349470E-04
  0.5404040E+00  0.0000000E+00  0.5050505E-02  0.2862593E-06  0.0000000E+00  0.3423988E-04
  0.5505050E+00  0.0000000E+00  0.5050505E-02  0.9249824E-07  0.0000000E+00  0.3462134E-04
  0.5606061E+00  0.0000000E+00  0.5050505E-02 -0.1104173E-06  0.0000000E+00  0.3460329E-04
  0.5707071E+00  0.0000000E+00  0.5050505E-02 -0.3018458E-06  0.0000000E+00  0.3418810E-04
  0.5808081E+00  0.0000000E+00  0.5050505E-02 -0.4651956E-06  0.0000000E+00  0.3341567E-04
  0.5909091E+00  0.0000000E+00  0.5050505E-02 -0.5920222E-06  0.0000000E+00  0.3235117E-04
  0.6010101E+00  0.0000000E+00  0.5050505E-02 -0.6815484E-06  0.0000000E+00  0.3106902E-04
  0.6111111E+00  0.0000000E+00  0.5050505E-02 -0.7379398E-06  0.0000000E+00  0.2964022E-04
  0.6212121E+00  0.0000000E+00  0.5050505E-02 -0.7675078E-06  0.0000000E+00  0.2812517E-04
  0.6313131E+00  0.0000000E+00  0.5050505E-02 -0.7767750E-06  0.0000000E+00  0.2657133E-04
  0.6414142E+00  0.0000000E+00  0.5050505E-02 -0.7714671E-06  0.0000000E+00  0.2501380E-04
  0.6515151E+00  0.0000000E+00  0.5050505E-02 -0.7561617E-06  0.0000000E+00  0.2347730E-04
  0.6616161E+00  0.0000000E+00  0.5050505E-02 -0.7343022E-06  0.0000000E+00  0.2197846E-04
  0.6717172E+00  0.0000000E+00  0.5050505E-02 -0.7083708E-06  0.0000000E+00  0.2052793E-04
  0.6818182E+00  0.0000000E+00  0.5050505E-02 -0.6800991E-06  0.0000000E+00  0.1913213E-04
  0.6919192E+00  0.0000000E+00  0.5050505E-02 -0.6506642E-06  0.0000000E+00  0.1779457E-04
  0.7020202E+00  0.0000000E+00  0.5050505E-02 -0.6208466E-06  0.0000000E+00  0.1651676E-04
  0.7121212E+00  0.0000000E+00  0.5050505E-02 -0.5911513E-06  0.0000000E+00  0.1529894E-04
  0.7222222E+00  0.0000000E+00  0.5050505E-02 -0.5618954E-06  0.0000000E+00  0.1414052E-04
  0.7323232E+00  0.0000000E+00  0.5050505E-02 -0.5332700E-06  0.0000000E+00  0.1304040E-04
  0.7424242E+00  0.0000000E+00  0.5050505E-02 -0.5053827E-06  0.0000000E+00  0.1199718E-04
  0.7525253E+00  0.0000000E+00  0.5050505E-02 -0.4782871E-06  0.0000000E+00  0.1100931E-04
  0.7626263E+00  0.0000000E+00  0.5050505E-02 -0.4520019E-06  0.0000000E+00  0.1007515E-04
  0.7727273E+00  0.0000000E+00  0.5050505E-02 -0.4265239E-06  0.0000000E+00  0.9193062E-05
  0.7828283E+00  0.0000000E+00  0.5050505E-02 -0.4018364E-06  0.0000000E+00  0.8361430E-05
  0.7929293E+00  0.0000000E+00  0.5050505E-02 -0.3779144E-06  0.0000000E+00  0.7578674E-05
  0.8030303E+00  0.0000000E+00  0.5050505E-02 -0.3547285E-06  0.0000000E+00  0.6843275E-05
  0.8131313E+00  0.0000000E+00  0.5050505E-02 -0.3322463E-06  0.0000000E+00  0.6153773E-05
  0.8232324E+00  0.0000000E+00  0.5050505E-02 -0.3104342E-06  0.0000000E+00  0.5508780E-05
  0.8333333E+00  0.0000000E+00  0.5050505E-02 -0.2892578E-06  0.0000000E+00  0.4906974E-05
  0.8434343E+00  0.0000000E+00  0.5050505E-02 -0.2686822E-06  0.0000000E+00  0.4347106E-05
  0.8535354E+00  0.0000000E+00  0.5050505E-02 -0.2486725E-06  0.0000000E+00  0.3827996E-05
  0.8636364E+00  0.0000000E+00  0.5050505E-02 -0.2291934E-06  0.0000000E+00  0.3348537E-05
  0.8737374E+00  0.0000000E+00  0.5050505E-02 -0.2102092E-06  0.0000000E+00  0.2907694E-05
  0.8838384E+00  0.0000000E+00  0.5050505E-02 -0.1916843E-06  0.0000000E+00  0.2504503E-05
  0.8939394E+00  0.0000000E+00  0.5050505E-02 -0.1735833E-06  0.0000000E+00  0.2138072E-05
  0.9040404E+00  0.0000000E+00  0.5050505E-02 -0.1558707E-06  0.0000000E+00  0.1807582E-05
  0.9141414E+00  0.0000000E+00  0.5050505E-02 -0.1385106E-06  0.0000000E+00  0.1512286E-05
  0.9242424E+00  0.0000000E+00  0.5050505E-02 -0.1214669E-06  0.0000000E+00  0.1251509E-05
  0.9343435E+00  0.0000000E+00  0.5050505E-02 -0.1047029E-06  0.0000000E+00  0.1024650E-05
  0.9444444E+00  0.0000000E+00  0.5050505E-02 -0.8818201E-07  0.0000000E+00  0.8311820E-06
  0.9545454E+00  0.0000000E+00  0.5050505E-02 -0.7186723E-07  0.0000000E+00  0.6706520E-06
  0.9646465E+00  0.0000000E+00  0.5050505E-02 -0.5572134E-07  0.0000000E+00  0.5426822E-06
  0.9747475E+00  0.0000000E+00  0.5050505E-02 -0.3970695E-07  0.0000000E+00  0.4469699E-06
  0.9848485E+00  0.0000000E+00  0.5050505E-02 -0.2378657E-07  0.0000000E+00  0.3832879E-06
  0.9974747E+00  0.0000000E+00  0.5050505E-02 -0.7922595E-08  0.0000000E+00  0.3514848E-06
  0.5050505E-02  0.0000000E+00  0.1515152E-01  0.1314352E-07  0.0000000E+00 -0.3374523E-05
  0.1515152E-01  0.0000000E+00  0.1515152E-01  0.3946323E-07  0.0000000E+00 -0.3356924E-05
  0.2525252E-01  0.0000000E+00  0.1515152E-01  0.6588108E-07  0.0000000E+00 -0.3321683E-05
  0.3535353E-01  0.0000000E+00  0.1515152E-01  0.9246271E-07  0.0000000E+00 -0.3268713E-05
  0.4545455E-01  0.0000000E+00  0.1515152E-01  0.1192740E-06  0.0000000E+00 -0.3197882E-05
  0.5555556E-01  0.0000000E+00  0.1515152E-01  0.1463814E-06  0.0000000E+00 -0.3109013E-05
  0.6565657E-01  0.0000000E+00  0.1515152E-01  0.1738516E-06  0.0000000E+00 -0.3001889E-05
  0.7575758E-01  0.0000000E+00  0.1515152E-01  0.2017519E-06  0.0000000E+00 -0.2876242E-05
  0.8585858E-01  0.0000000E+00  0.1515152E-01  0.2301506E-06  0.0000000E+00 -0.2731764E-05
  0.9595960E-01  0.0000000E+00  0.1515152E-01  0.2591167E-06  0.0000000E+00 -0.2568098E-05
  0.1060606E+00  0.0000000E+00  0.1515152E-01  0.2887199E-06  0.0000000E+00 -0.2384843E-05
  0.1161616E+00  0.0000000E+00  0.1515152E-01  0.3190315E-06  0.0000000E+00 -0.2181548E-05
  0.1262626E+00  0.0000000E+00  0.1515152E-01  0.3501237E-06  0.0000000E+00 -0.1957717E-05
  0.1363636E+00  0.0000000E+00  0.1515152E-01  0.3820704E-06  0.0000000E+00 -0.1712804E-05
  0.1464646E+00  0.0000000E+00  0.1515152E-01  0.4149470E-06  0.0000000E+00 -0.1446212E-05
  0.1565657E+00  0.0000000E+00  0.1515152E-01  0.4488308E-06  0.0000000E+00 -0.1157297E-05
  0.1666667E+00  0.0000000E+00  0.1515152E-01  0.4838018E-06  0.0000000E+00 -0.8453578E-06
  0.1767677E+00  0.0000000E+00  0.1515152E-01  0.5199428E-06  0.0000000E+00 -0.5096432E-06
  0.1868687E+00  0.0000000E+00  0.1515152E-01  0.5573415E-06  0.0000000E+00 -0.1492895E-06
  0.1969697E+00  0.0000000E+00  0.1515152E-01  0.5959544E-06  0.0000000E+00  0.2370671E-06
  0.2070707E+00  0.0000000E+00  0.1515152E-01  0.6359992E-06  0.0000000E+00  0.6503177E-06
  0.2171717E+00  0.0000000E+00  0.1515152E-01  0.6775658E-06  0.0000000E+00  0.1090976E-05
  0.2272727E+00  0.0000000E+00  0.1515152E-01  0.7207477E-06  0.0000000E+00  0.1560102E-05
  0.2373737E+00  0.0000000E+00  0.1515152E-01  0.7656422E-06  0.0000000E+00  0.2058817E-05
  0.2474747E+00  0.0000000E+00  0.1515152E-01  0.8123522E-06  0.0000000E+00  0.2588313E-05
  0.2575758E+00  0.0000000E+00  0.1515152E-01  0.8609855E-06  0.0000000E+00  0.3149853E-05
  0.2676768E+00  0.0000000E+00  0.1515152E-01  0.9116556E-06  0.0000000E+00  0.3744776E-05
  0.2777778E+00  0.0000000E+00  0.1515152E-01  0.9644845E-06  0.0000000E+00  0.4374500E-05
  0.2878788E+00  0.0000000E+00  0.1515152E-01  0.1019600E-05  0.0000000E+00  0.5040530E-05
  0.2979798E+00  0.0000000E+00  0.1515152E-01  0.1077134E-05  0.0000000E+00  0.5744462E-05
  0.3080808E+00  0.0000000E+00  0.1515152E-01  0.1137223E-05  0.0000000E+00  0.6487982E-05
  0.3181818E+00  0.0000000E+00  0.1515152E-01  0.1200009E-05  0.0000000E+00  0.7272875E-05
  0.3282828E+00  0.0000000E+00  0.1515152E-01  0.1265632E-05  0.0000000E+00  0.8101026E-05
  0.3383838E+00  0.0000000E+00  0.1515152E-01  0.1334228E-05  0.0000000E+00  0.8974419E-05
  0.3484848E+00  0.0000000E+00  0.1515152E-01  0.1405922E-05  0.0000000E+00  0.9895135E-05
  0.3585859E+00  0.0000000E+00  0.1515152E-01  0.1480813E-05  0.0000000E+00  0.1086534E-04
  0.3686869E+00  0.0000000E+00  0.1515152E-01  0.1558956E-05  0.0000000E+00  0.1188728E-04
  0.3787879E+00  0.0000000E+00  0.1515152E-01  0.1640331E-05  0.0000000E+00  0.1296322E-04
  0.3888889E+00  0.0000000E+00  0.1515152E-01  0.1724803E-05  0.0000000E+00  0.1409543E-04
  0.3989899E+00  0.0000000E+00  0.1515152E-01  0.1812050E-05  0.0000000E+00  0.1528603E-04
  0.4090909E+00  0.0000000E+00  0.1515152E-01  0.1901471E-05  0.0000000E+00  0.1653695E-04
  0.4191919E+00  0.0000000E+00  0.1515152E-01  0.1992042E-05  0.0000000E+00  0.1784960E-04
  0.4292929E+00  0.0000000E+00  0.1515152E-01  0.2082122E-05  0.0000000E+00  0.1922467E-04
  0.4393939E+00  0.0000000E+00  0.1515152E-01  0.2169172E-05  0.0000000E+00  0.2066153E-04
  0.4494950E+00  0.0000000E+00  0.1515152E-01  0.2249381E-05  0.0000000E+00  0.2215766E-04
  0.4595959E+00  0.0000000E+00  0.1515152E-01  0.2317177E-05  0.0000000E+00  0.2370756E-04
  0.4696970E+00  0.0000000E+00  0.1515152E-01  0.2364637E-05  0.0000000E+00  0.2530143E-04
  0.4797980E+00  0.0000000E+00  0.1515152E-01  0.2380853E-05  0.0000000E+00  0.2692330E-04
  0.4898990E+00  0.0000000E+00  0.1515152E-01  0.2351413E-05  0.0000000E+00  0.2854862E-04
  0.5000000E+00  0.0000000E+00  0.1515152E-01  0.2258359E-05  0.0000000E+00  0.3014152E-04
  0.5101010E+00  0.0000000E+00  0.1515152E-01  0.2081219E-05  0.0000000E+00  0.3165200E-04
  0.5202020E+00  0.0000000E+00  0.1515152E-01  0.1800067E-05  0.0000000E+00  0.3301425E-04
  0.5303030E+00  0.0000000E+00  0.1515152E-01  0.1401563E-05  0.0000000E+00  0.3414795E-04
  0.5404040E+00  0.0000000E+00  0.1515152E-01  0.8881271E-06  0.0000000E+00  0.3496552E-04
  0.5505050E+00  0.0000000E+00  0.1515152E-01  0.2876175E-06  0.0000000E+00  0.3538785E-04
  0.5606061E+00  0.0000000E+00  0.1515152E-01 -0.3439724E-06  0.0000000E+00  0.3536714E-04
  0.5707071E+00  0.0000000E+00  0.1515152E-01 -0.9369136E-06  0.0000000E+00  0.3490631E-04
  0.5808081E+00  0.0000000E+00  0.1515152E-01 -0.1437092E-05  0.0000000E+00  0.3405825E-04
  0.5909091E+00  0.0000000E+00  0.1515152E-01 -0.1819522E-05  0.0000000E+00  0.3290517E-04
  0.6010101E+00  0.0000000E+00  0.1515152E-01 -0.2084585E-05  0.0000000E+00  0.3153546E-04
  0.6111111E+00  0.0000000E+00  0.1515152E-01 -0.2247652E-05  0.0000000E+00  0.3002843E-04
  0.6212121E+00  0.0000000E+00  0.1515152E-01 -0.2329707E-05  0.0000000E+00  0.2844779E-04
  0.6313131E+00  0.0000000E+00  0.1515152E-01 -0.2351441E-05  0.0000000E+00  0.2684107E-04
  0.6414142E+00  0.0000000E+00  0.1515152E-01 -0.2330476E-05  0.0000000E+00  0.2524186E-04
  0.6515151E+00  0.0000000E+00  0.1515152E-01 -0.2280601E-05  0.0000000E+00  0.2367278E-04
  0.6616161E+00  0.0000000E+00  0.1515152E-01 -0.2212023E-05  0.0000000E+00  0.2214847E-04
  0.6717172E+00  0.0000000E+00  0.1515152E-01 -0.2132002E-05  0.0000000E+00  0.2067786E-04
  0.6818182E+00  0.0000000E+00  0.1515152E-01 -0.2045555E-05  0.0000000E+00  0.1926601E-04
  0.6919192E+00  0.0000000E+00  0.1515152E-01 -0.1956059E-05  0.0000000E+00  0.1791539E-04
  0.7020202E+00  0.0000000E+00  0.1515152E-01 -0.1865735E-05  0.0000000E+00  0.1662675E-04
  0.7121212E+00  0.0000000E+00  0.1515152E-01 -0.1776010E-05  0.0000000E+00  0.1539978E-04
  0.7222222E+00  0.0000000E+00  0.1515152E-01 -0.1687766E-05  0.0000000E+00  0.1423349E-04
  0.7323232E+00  0.0000000E+00  0.1515152E-01 -0.1601532E-05  0.0000000E+00  0.1312649E-04
  0.7424242E+00  0.0000000E+00  0.1515152E-01 -0.1517595E-05  0.0000000E+00  0.1207717E-04
  0.7525253E+00  0.0000000E+00  0.1515152E-01 -0.1436093E-05  0.0000000E+00  0.1108385E-04
  0.7626263E+00  0.0000000E+00  0.1515152E-01 -0.1357066E-05  0.0000000E+00  0.1014477E-04
  0.7727273E+00  0.0000000E+00  0.1515152E-01 -0.1280492E-05  0.0000000E+00  0.9258224E-05
  0.7828283E+00  0.0000000E+00  0.1515152E-01 -0.1206313E-05  0.0000000E+00  0.8422524E-05
  0.7929293E+00  0.0000000E+00  0.1515152E-01 -0.1134448E-05  0.0000000E+00  0.7636049E-05
  0.8030303E+00  0.0000000E+00  0.1515152E-01 -0.1064806E-05  0.0000000E+00  0.6897244E-05
  0.8131313E+00  0.0000000E+00  0.1515152E-01 -0.9972852E-06  0.0000000E+00  0.6204622E-05
  0.8232324E+00  0.0000000E+00  0.1515152E-01 -0.9317840E-06  0.0000000E+00  0.5556771E-05
  0.8333333E+00  0.0000000E+00  0.1515152E-01 -0.8681971E-06  0.0000000E+00  0.4952349E-05
  0.8434343E+00  0.0000000E+00  0.1515152E-01 -0.8064192E-06  0.0000000E+00  0.4390091E-05
  0.8535354E+00  0.0000000E+00  0.1515152E-01 -0.7463443E-06  0.0000000E+00  0.3868801E-05
  0.8636364E+00  0.0000000E+00  0.1515152E-01 -0.6878659E-06  0.0000000E+00  0.3387361E-05
  0.8737374E+00  0.0000000E+00  0.1515152E-01 -0.6308769E-06  0.0000000E+00  0.2944722E-05
  0.8838384E+00  0.0000000E+00  0.1515152E-01 -0.5752692E-06  0.0000000E+00  0.2539910E-05
  0.8939394E+00  0.0000000E+00  0.1515152E-01 -0.5209369E-06  0.0000000E+00  0.2172024E-05
  0.9040404E+00  0.0000000E+00  0.1515152E-01 -0.4677726E-06  0.0000000E+00  0.1840238E-05
  0.9141414E+00  0.0000000E+00  0.1515152E-01 -0.4156685E-06  0.0000000E+00  0.1543795E-05
  0.9242424E+00  0.0000000E+00  0.1515152E-01 -0.3645156E-06  0.0000000E+00  0.1282016E-05
  0.9343435E+00  0.0000000E+00  0.1515152E-01 -0.3142042E-06  0.0000000E+00  0.1054292E-05
  0.9444444E+00  0.0000000E+00  0.1515152E-01 -0.2646239E-06  0.0000000E+00  0.8600912E-06
  0.9545454E+00  0.0000000E+00  0.1515152E-01 -0.2156633E-06  0.0000000E+00  0.6989574E-06
  0.9646465E+00  0.0000000E+00  0.1515152E-01 -0.1672106E-06  0.0000000E+00  0.5705086E-06
  0.9747475E+00  0.0000000E+00  0.1515152E-01 -0.1191535E-06  0.0000000E+00  0.4744395E-06
  0.9848485E+00  0.0000000E+00  0.1515152E-01 -0.7137897E-07  0.0000000E+00  0.4105208E-06
  0.9974747E+00  0.0000000E+00  0.1515152E-01 -0.2377415E-07  0.0000000E+00  0.3785995E-06
  0.5050505E-02  0.0000000E+00  0.2525252E-01  0.2192458E-07  0.0000000E+00 -0.3335266E-05
  0.1515152E-01  0.0000000E+00  0.2525252E-01  0.6582835E-07  0.0000000E+00 -0.3317551E-05
  0.2525252E-01  0.0000000E+00  0.2525252E-01  0.1098961E-06  0.0000000E+00 -0.3282077E-05
  0.3535353E-01  0.0000000E+00  0.2525252E-01  0.1542376E-06  0.0000000E+00 -0.3228756E-05
  0.4545455E-01  0.0000000E+00  0.2525252E-01  0.1989628E-06  0.0000000E+00 -0.3157455E-05
  0.5555556E-01  0.0000000E+00  0.2525252E-01  0.2441827E-06  0.0000000E+00 -0.3067996E-05
  0.6565657E-01  0.0000000E+00  0.2525252E-01  0.2900088E-06  0.0000000E+00 -0.2960156E-05
  0.7575758E-01  0.0000000E+00  0.2525252E-01  0.3365537E-06  0.0000000E+00 -0.2833669E-05
  0.8585858E-01  0.0000000E+00  0.2525252E-01  0.3839312E-06  0.0000000E+00 -0.2688220E-05
  0.9595960E-01  0.0000000E+00  0.2525252E-01  0.4322567E-06  0.0000000E+00 -0.2523449E-05
  0.1060606E+00  0.0000000E+00  0.2525252E-01  0.4816468E-06  0.0000000E+00 -0.2338951E-05
  0.1161616E+00  0.0000000E+00  0.2525252E-01  0.5322205E-06  0.0000000E+00 -0.2134270E-05
  0.1262626E+00  0.0000000E+00  0.2525252E-01  0.5840985E-06  0.0000000E+00 -0.1908903E-05
  0.1363636E+00  0.0000000E+00  0.2525252E-01  0.6374042E-06  0.0000000E+00 -0.1662299E-05
  0.1464646E+00  0.0000000E+00  0.2525252E-01  0.6922635E-06  0.0000000E+00 -0.1393856E-05
  0.1565657E+00  0.0000000E+00  0.2525252E-01  0.7488056E-06  0.0000000E+00 -0.1102919E-05
  0.1666667E+00  0.0000000E+00  0.2525252E-01  0.8071633E-06  0.0000000E+00 -0.7887836E-06
  0.1767677E+00  0.0000000E+00  0.2525252E-01  0.8674739E-06  0.0000000E+00 -0.4506896E-06
  0.1868687E+00  0.0000000E+00  0.2525252E-01  0.9298822E-06  0.0000000E+00 -0.8767700E-07
  0.1969697E+00  0.0000000E+00  0.2525252E-01  0.9943254E-06  0.0000000E+00  0.3015435E-06
  0.2070707E+00  0.0000000E+00  0.2525252E-01  0.1061165E-05  0.0000000E+00  0.7177881E-06
  0.2171717E+00  0.0000000E+00  0.2525252E-01  0.1130548E-05  0.0000000E+00  0.1161671E-05
  0.2272727E+00  0.0000000E+00  0.2525252E-01  0.1202631E-05  0.0000000E+00  0.1634264E-05
  0.2373737E+00  0.0000000E+00  0.2525252E-01  0.1277577E-05  0.0000000E+00  0.2136703E-05
  0.2474747E+00  0.0000000E+00  0.2525252E-01  0.1355558E-05  0.0000000E+00  0.2670195E-05
  0.2575758E+00  0.0000000E+00  0.2525252E-01  0.1436755E-05  0.0000000E+00  0.3236020E-05
  0.2676768E+00  0.0000000E+00  0.2525252E-01  0.1521361E-05  0.0000000E+00  0.3835536E-05
  0.2777778E+00  0.0000000E+00  0.2525252E-01  0.1609581E-05  0.0000000E+00  0.4470184E-05
  0.2878788E+00  0.0000000E+00  0.2525252E-01  0.1701629E-05  0.0000000E+00  0.5141495E-05
  0.2979798E+00  0.0000000E+00  0.2525252E-01  0.1797732E-05  0.0000000E+00  0.5851094E-05
  0.3080808E+00  0.0000000E+00  0.2525252E-01  0.1898123E-05  0.0000000E+00  0.6600705E-05
  0.3181818E+00  0.0000000E+00  0.2525252E-01  0.2003045E-05  0.0000000E+00  0.7392159E-05
  0.3282828E+00  0.0000000E+00  0.2525252E-01  0.2112743E-05  0.0000000E+00  0.8227396E-05
  0.3383838E+00  0.0000000E+00  0.2525252E-01  0.2227461E-05  0.0000000E+00  0.9108475E-05
  0.3484848E+00  0.0000000E+00  0.2525252E-01  0.2347427E-05  0.0000000E+00  0.1003757E-04
  0.3585859E+00  0.0000000E+00  0.2525252E-01  0.2472839E-05  0.0000000E+00  0.1101698E-04
  0.3686869E+00  0.0000000E+00  0.2525252E-01  0.2603833E-05  0.0000000E+00  0.1204912E-04
  0.3787879E+00  0.0000000E+00  0.2525252E-01  0.2740438E-05  0.0000000E+00  0.1313649E-04
  0.3888889E+00  0.0000000E+00  0.2525252E-01  0.2882515E-05  0.0000000E+00  0.1428167E-04
  0.3989899E+00  0.0000000E+00  0.2525252E-01  0.3029650E-05  0.0000000E+00  0.1548725E-04
  0.4090909E+00  0.0000000E+00  0.2525252E-01  0.3181012E-05  0.0000000E+00  0.1675576E-04
  0.4191919E+00  0.0000000E+00  0.2525252E-01  0.3335129E-05  0.0000000E+00  0.1808949E-04
  0.4292929E+00  0.0000000E+00  0.2525252E-01  0.3489580E-05  0.0000000E+00  0.1949029E-04
  0.4393939E+00  0.0000000E+00  0.2525252E-01  0.3640545E-05  0.0000000E+00  0.2095917E-04
  0.4494950E+00  0.0000000E+00  0.2525252E-01  0.3782187E-05  0.0000000E+00  0.2249577E-04
  0.4595959E+00  0.0000000E+00  0.2525252E-01  0.3905816E-05  0.0000000E+00  0.2409747E-04
  0.4696970E+00  0.0000000E+00  0.2525252E-01  0.3998822E-05  0.0000000E+00  0.2575806E-04
  0.4797980E+00  0.0000000E+00  0.2525252E-01  0.4043413E-05  0.0000000E+00  0.2746583E-04
  0.4898990E+00  0.0000000E+00  0.2525252E-01  0.4015348E-05  0.0000000E+00  0.2920071E-04
  0.5000000E+00  0.0000000E+00  0.2525252E-01  0.3883163E-05  0.0000000E+00  0.3093038E-04
  0.5101010E+00  0.0000000E+00  0.2525252E-01  0.3608912E-05  0.0000000E+00  0.3260530E-04
  0.5202020E+00  0.0000000E+00  0.2525252E-01  0.3152265E-05  0.0000000E+00  0.3415340E-04
  0.5303030E+00  0.0000000E+00  0.2525252E-01  0.2480616E-05  0.0000000E+00  0.3547698E-04
  0.5404040E+00  0.0000000E+00  0.2525252E-01  0.1587514E-05  0.0000000E+00  0.3645710E-04
  0.5505050E+00  0.0000000E+00  0.2525252E-01  0.5171462E-06  0.0000000E+00  0.3697384E-04
  0.5606061E+00  0.0000000E+00  0.2525252E-01 -0.6203829E-06  0.0000000E+00  0.3694717E-04
  0.5707071E+00  0.0000000E+00  0.2525252E-01 -0.1675981E-05  0.0000000E+00  0.3638145E-04
  0.5808081E+00  0.0000000E+00  0.2525252E-01 -0.2543649E-05  0.0000000E+00  0.3536394E-04
  0.5909091E+00  0.0000000E+00  0.2525252E-01 -0.3185191E-05  0.0000000E+00  0.3401836E-04
  0.6010101E+00  0.0000000E+00  0.2525252E-01 -0.3612539E-05  0.0000000E+00  0.3246388E-04
  0.6111111E+00  0.0000000E+00  0.2525252E-01 -0.3861944E-05  0.0000000E+00  0.3079590E-04
  0.6212121E+00  0.0000000E+00  0.2525252E-01 -0.3975367E-05  0.0000000E+00  0.2908306E-04
  0.6313131E+00  0.0000000E+00  0.2525252E-01 -0.3990827E-05  0.0000000E+00  0.2737144E-04
  0.6414142E+00  0.0000000E+00  0.2525252E-01 -0.3938924E-05  0.0000000E+00  0.2569042E-04
  0.6515151E+00  0.0000000E+00  0.2525252E-01 -0.3842628E-05  0.0000000E+00  0.2405787E-04
  0.6616161E+00  0.0000000E+00  0.2525252E-01 -0.3718412E-05  0.0000000E+00  0.2248411E-04
  0.6717172E+00  0.0000000E+00  0.2525252E-01 -0.3577708E-05  0.0000000E+00  0.2097455E-04
  0.6818182E+00  0.0000000E+00  0.2525252E-01 -0.3428250E-05  0.0000000E+00  0.1953151E-04
  0.6919192E+00  0.0000000E+00  0.2525252E-01 -0.3275150E-05  0.0000000E+00  0.1815545E-04
  0.7020202E+00  0.0000000E+00  0.2525252E-01 -0.3121715E-05  0.0000000E+00  0.1684565E-04
  0.7121212E+00  0.0000000E+00  0.2525252E-01 -0.2970022E-05  0.0000000E+00  0.1560073E-04
  0.7222222E+00  0.0000000E+00  0.2525252E-01 -0.2821333E-05  0.0000000E+00  0.1441894E-04
  0.7323232E+00  0.0000000E+00  0.2525252E-01 -0.2676370E-05  0.0000000E+00  0.1329835E-04
  0.7424242E+00  0.0000000E+00  0.2525252E-01 -0.2535508E-05  0.0000000E+00  0.1223698E-04
  0.7525253E+00  0.0000000E+00  0.2525252E-01 -0.2398898E-05  0.0000000E+00  0.1123283E-04
  0.7626263E+00  0.0000000E+00  0.2525252E-01 -0.2266554E-05  0.0000000E+00  0.1028397E-04
  0.7727273E+00  0.0000000E+00  0.2525252E-01 -0.2138403E-05  0.0000000E+00  0.9388534E-05
  0.7828283E+00  0.0000000E+00  0.2525252E-01 -0.2014321E-05  0.0000000E+00  0.8544719E-05
  0.7929293E+00  0.0000000E+00  0.2525252E-01 -0.1894156E-05  0.0000000E+00  0.7750819E-05
  0.8030303E+00  0.0000000E+00  0.2525252E-01 -0.1777742E-05  0.0000000E+00  0.7005210E-05
  0.8131313E+00  0.0000000E+00  0.2525252E-01 -0.1664901E-05  0.0000000E+00  0.6306352E-05
  0.8232324E+00  0.0000000E+00  0.2525252E-01 -0.1555457E-05  0.0000000E+00  0.5652785E-05
  0.8333333E+00  0.0000000E+00  0.2525252E-01 -0.1449229E-05  0.0000000E+00  0.5043131E-05
  0.8434343E+00  0.0000000E+00  0.2525252E-01 -0.1346039E-05  0.0000000E+00  0.4476091E-05
  0.8535354E+00  0.0000000E+00  0.2525252E-01 -0.1245706E-05  0.0000000E+00  0.3950440E-05
  0.8636364E+00  0.0000000E+00  0.2525252E-01 -0.1148051E-05  0.0000000E+00  0.3465034E-05
  0.8737374E+00  0.0000000E+00  0.2525252E-01 -0.1052894E-05  0.0000000E+00  0.3018802E-05
  0.8838384E+00  0.0000000E+00  0.2525252E-01 -0.9600528E-06  0.0000000E+00  0.2610747E-05
  0.8939394E+00  0.0000000E+00  0.2525252E-01 -0.8693495E-06  0.0000000E+00  0.2239952E-05
  0.9040404E+00  0.0000000E+00  0.2525252E-01 -0.7806039E-06  0.0000000E+00  0.1905571E-05
  0.9141414E+00  0.0000000E+00  0.2525252E-01 -0.6936349E-06  0.0000000E+00  0.1606834E-05
  0.9242424E+00  0.0000000E+00  0.2525252E-01 -0.6082597E-06  0.0000000E+00  0.1343047E-05
  0.9343435E+00  0.0000000E+00  0.2525252E-01 -0.5242946E-06  0.0000000E+00  0.1113593E-05
  0.9444444E+00  0.0000000E+00  0.2525252E-01 -0.4415543E-06  0.0000000E+00  0.9179271E-06
  0.9545454E+00  0.0000000E+00  0.2525252E-01 -0.3598523E-06  0.0000000E+00  0.7555852E-06
  0.9646465E+00  0.0000000E+00  0.2525252E-01 -0.2790013E-06  0.0000000E+00  0.6261784E-06
  0.9747475E+00  0.0000000E+00  0.2525252E-01 -0.1988129E-06  0.0000000E+00  0.5293956E-06
  0.9848485E+00  0.0000000E+00  0.2525252E-01 -0.1190982E-06  0.0000000E+00  0.4650032E-06
  0.9974747E+00  0.0000000E+00  0.2525252E-01 -0.3966783E-07  0.0000000E+00  0.4328458E-06
  0.5050505E-02  0.0000000E+00  0.3535353E-01  0.3075286E-07  0.0000000E+00 -0.3276424E-05
  0.1515152E-01  0.0000000E+00  0.3535353E-01  0.9233539E-07  0.0000000E+00 -0.3258535E-05
  0.2525252E-01  0.0000000E+00  0.3535353E-01  0.1541485E-06  0.0000000E+00 -0.3222711E-05
  0.3535353E-01  0.0000000E+00  0.3535353E-01  0.2163465E-06  0.0000000E+00 -0.3168863E-05
  0.4545455E-01  0.0000000E+00  0.3535353E-01  0.2790841E-06  0.0000000E+00 -0.3096856E-05
  0.5555556E-01  0.0000000E+00  0.3535353E-01  0.3425172E-06  0.0000000E+00 -0.3006509E-05
  0.6565657E-01  0.0000000E+00  0.3535353E-01  0.4068027E-06  0.0000000E+00 -0.2897597E-05
  0.7575758E-01  0.0000000E+00  0.3535353E-01  0.4720989E-06  0.0000000E+00 -0.2769847E-05
  0.8585858E-01  0.0000000E+00  0.3535353E-01  0.5385658E-06  0.0000000E+00 -0.2622941E-05
  0.9595960E-01  0.0000000E+00  0.3535353E-01  0.6063655E-06  0.0000000E+00 -0.2456511E-05
  0.1060606E+00  0.0000000E+00  0.3535353E-01  0.6756623E-06  0.0000000E+00 -0.2270146E-05
  0.1161616E+00  0.0000000E+00  0.3535353E-01  0.7466231E-06  0.0000000E+00 -0.2063383E-05
  0.1262626E+00  0.0000000E+00  0.3535353E-01  0.8194180E-06  0.0000000E+00 -0.1835711E-05
  0.1363636E+00  0.0000000E+00  0.3535353E-01  0.8942203E-06  0.0000000E+00 -0.1586569E-05
  0.1464646E+00  0.0000000E+00  0.3535353E-01  0.9712072E-06  0.0000000E+00 -0.1315344E-05
  0.1565657E+00  0.0000000E+00  0.3535353E-01  0.1050560E-05  0.0000000E+00 -0.1021372E-05
  0.1666667E+00  0.0000000E+00  0.3535353E-01  0.1132465E-05  0.0000000E+00 -0.7039349E-06
  0.1767677E+00  0.0000000E+00  0.3535353E-01  0.1217111E-05  0.0000000E+00 -0.3622625E-06
  0.1868687E+00  0.0000000E+00  0.3535353E-01  0.1304687E-05  0.0000000E+00  0.4741489E-08
  0.1969697E+00  0.0000000E+00  0.3535353E-01  0.1395151E-05  0.0000000E+00  0.3982554E-06
  0.2070707E+00  0.0000000E+00  0.3535353E-01  0.1488989E-05  0.0000000E+00  0.8189929E-06
  0.2171717E+00  0.0000000E+00  0.3535353E-01  0.1586406E-05  0.0000000E+00  0.1267716E-05
  0.2272727E+00  0.0000000E+00  0.3535353E-01  0.1687621E-05  0.0000000E+00  0.1745515E-05
  0.2373737E+00  0.0000000E+00  0.3535353E-01  0.1792863E-05  0.0000000E+00  0.2253545E-05
  0.2474747E+00  0.0000000E+00  0.3535353E-01  0.1902376E-05  0.0000000E+00  0.2793036E-05
  0.2575758E+00  0.0000000E+00  0.3535353E-01  0.2016417E-05  0.0000000E+00  0.3365291E-05
  0.2676768E+00  0.0000000E+00  0.3535353E-01  0.2135260E-05  0.0000000E+00  0.3971697E-05
  0.2777778E+00  0.0000000E+00  0.3535353E-01  0.2259197E-05  0.0000000E+00  0.4613728E-05
  0.2878788E+00  0.0000000E+00  0.3535353E-01  0.2388536E-05  0.0000000E+00  0.5292953E-05
  0.2979798E+00  0.0000000E+00  0.3535353E-01  0.2523600E-05  0.0000000E+00  0.6011040E-05