title = "dataset water"
variables = "x", "y", "z", "vx", "vy", "vz"
zone t = "velocities, solution time =  4.900E+01 days        " i =   99, j =   99, k =    1,  f=point
  0.5050505E-02  0.0000000E+00  0.5050505E-02  0.5487974E-07  0.0000000E+00  0.7428085E-04
  0.1515152E-01  0.0000000E+00  0.5050505E-02  0.1648041E-06  0.0000000E+00  0.7450319E-04
  0.2525252E-01  0.0000000E+00  0.5050505E-02  0.2752273E-06  0.0000000E+00  0.7494854E-04
  0.3535353E-01  0.0000000E+00  0.5050505E-02  0.3864894E-06  0.0000000E+00  0.7561831E-04
  0.4545455E-01  0.0000000E+00  0.5050505E-02  0.4989386E-06  0.0000000E+00  0.7651458E-04
  0.5555556E-01  0.0000000E+00  0.5050505E-02  0.6129339E-06  0.0000000E+00  0.7764019E-04
  0.6565657E-01  0.0000000E+00  0.5050505E-02  0.7288478E-06  0.0000000E+00  0.7899873E-04
  0.7575758E-01  0.0000000E+00  0.5050505E-02  0.8470693E-06  0.0000000E+00  0.8059460E-04
  0.8585858E-01  0.0000000E+00  0.5050505E-02  0.9680073E-06  0.0000000E+00  0.8243302E-04
  0.9595960E-01  0.0000000E+00  0.5050505E-02  0.1092095E-05  0.0000000E+00  0.8452009E-04
  0.1060606E+00  0.0000000E+00  0.5050505E-02  0.1219793E-05  0.0000000E+00  0.8686283E-04
  0.1161616E+00  0.0000000E+00  0.5050505E-02  0.1351596E-05  0.0000000E+00  0.8946928E-04
  0.1262626E+00  0.0000000E+00  0.5050505E-02  0.1488037E-05  0.0000000E+00  0.9234856E-04
  0.1363636E+00  0.0000000E+00  0.5050505E-02  0.1629691E-05  0.0000000E+00  0.9551092E-04
  0.1464646E+00  0.0000000E+00  0.5050505E-02  0.1777189E-05  0.0000000E+00  0.9896790E-04
  0.1565657E+00  0.0000000E+00  0.5050505E-02  0.1931219E-05  0.0000000E+00  0.1027324E-03
  0.1666667E+00  0.0000000E+00  0.5050505E-02  0.2092540E-05  0.0000000E+00  0.1068190E-03
  0.1767677E+00  0.0000000E+00  0.5050505E-02  0.2261994E-05  0.0000000E+00  0.1112437E-03
  0.1868687E+00  0.0000000E+00  0.5050505E-02  0.2440514E-05  0.0000000E+00  0.1160245E-03
  0.1969697E+00  0.0000000E+00  0.5050505E-02  0.2629148E-05  0.0000000E+00  0.1211816E-03
  0.2070707E+00  0.0000000E+00  0.5050505E-02  0.2829071E-05  0.0000000E+00  0.1267375E-03
  0.2171717E+00  0.0000000E+00  0.5050505E-02  0.3041615E-05  0.0000000E+00  0.1327173E-03
  0.2272727E+00  0.0000000E+00  0.5050505E-02  0.3268289E-05  0.0000000E+00  0.1391491E-03
  0.2373737E+00  0.0000000E+00  0.5050505E-02  0.3510819E-05  0.0000000E+00  0.1460647E-03
  0.2474747E+00  0.0000000E+00  0.5050505E-02  0.3771186E-05  0.0000000E+00  0.1534995E-03
  0.2575758E+00  0.0000000E+00  0.5050505E-02  0.4051672E-05  0.0000000E+00  0.1614937E-03
  0.2676768E+00  0.0000000E+00  0.5050505E-02  0.4354924E-05  0.0000000E+00  0.1700929E-03
  0.2777778E+00  0.0000000E+00  0.5050505E-02  0.4684023E-05  0.0000000E+00  0.1793486E-03
  0.2878788E+00  0.0000000E+00  0.5050505E-02  0.5042568E-05  0.0000000E+00  0.1893197E-03
  0.2979798E+00  0.0000000E+00  0.5050505E-02  0.5434780E-05  0.0000000E+00  0.2000734E-03
  0.3080808E+00  0.0000000E+00  0.5050505E-02  0.5865623E-05  0.0000000E+00  0.2116871E-03
  0.3181818E+00  0.0000000E+00  0.5050505E-02  0.6340944E-05  0.0000000E+00  0.2242498E-03
  0.3282828E+00  0.0000000E+00  0.5050505E-02  0.6867632E-05  0.0000000E+00  0.2378646E-03
  0.3383838E+00  0.0000000E+00  0.5050505E-02  0.7453792E-05  0.0000000E+00  0.2526509E-03
  0.3484848E+00  0.0000000E+00  0.5050505E-02  0.8108906E-05  0.0000000E+00  0.2687476E-03
  0.3585859E+00  0.0000000E+00  0.5050505E-02  0.8843968E-05  0.0000000E+00  0.2863166E-03
  0.3686869E+00  0.0000000E+00  0.5050505E-02  0.9671499E-05  0.0000000E+00  0.3055459E-03
  0.3787879E+00  0.0000000E+00  0.5050505E-02  0.1060534E-04  0.0000000E+00  0.3266537E-03
  0.3888889E+00  0.0000000E+00  0.5050505E-02  0.1165999E-04  0.0000000E+00  0.3498908E-03
  0.3989899E+00  0.0000000E+00  0.5050505E-02  0.1284914E-04  0.0000000E+00  0.3755418E-03
  0.4090909E+00  0.0000000E+00  0.5050505E-02  0.1418296E-04  0.0000000E+00  0.4039213E-03
  0.4191919E+00  0.0000000E+00  0.5050505E-02  0.1566343E-04  0.0000000E+00  0.4353630E-03
  0.4292929E+00  0.0000000E+00  0.5050505E-02  0.1727769E-04  0.0000000E+00  0.4701968E-03
  0.4393939E+00  0.0000000E+00  0.5050505E-02  0.1899036E-04  0.0000000E+00  0.5087099E-03
  0.4494950E+00  0.0000000E+00  0.5050505E-02  0.2073926E-04  0.0000000E+00  0.5510945E-03
  0.4595959E+00  0.0000000E+00  0.5050505E-02  0.2244319E-04  0.0000000E+00  0.5973972E-03
  0.4696970E+00  0.0000000E+00  0.5050505E-02  0.2402800E-04  0.0000000E+00  0.6475028E-03
  0.4797980E+00  0.0000000E+00  0.5050505E-02  0.2544981E-04  0.0000000E+00  0.7011699E-03
  0.4898990E+00  0.0000000E+00  0.5050505E-02  0.2667236E-04  0.0000000E+00  0.7580673E-03
  0.5000000E+00  0.0000000E+00  0.5050505E-02  0.2785351E-04  0.0000000E+00  0.8179926E-03
  0.5101010E+00  0.0000000E+00  0.5050505E-02  0.2922127E-04  0.0000000E+00  0.8811675E-03
  0.5202020E+00  0.0000000E+00  0.5050505E-02  0.3138133E-04  0.0000000E+00  0.9487540E-03
  0.5303030E+00  0.0000000E+00  0.5050505E-02  0.3567386E-04  0.0000000E+00  0.1024145E-02
  0.5404040E+00  0.0000000E+00  0.5050505E-02  0.4454261E-04  0.0000000E+00  0.1115162E-02
  0.5505050E+00  0.0000000E+00  0.5050505E-02  0.6508544E-04  0.0000000E+00  0.1240959E-02
  0.5606061E+00  0.0000000E+00  0.5050505E-02  0.8185022E-04  0.0000000E+00  0.1412046E-02
  0.5707071E+00  0.0000000E+00  0.5050505E-02 -0.8763126E-05  0.0000000E+00  0.1497598E-02
  0.5808081E+00  0.0000000E+00  0.5050505E-02 -0.1135544E-03  0.0000000E+00  0.1355296E-02
  0.5909091E+00  0.0000000E+00  0.5050505E-02 -0.7112469E-04  0.0000000E+00  0.1142469E-02
  0.6010101E+00  0.0000000E+00  0.5050505E-02 -0.5084455E-04  0.0000000E+00  0.1004318E-02
  0.6111111E+00  0.0000000E+00  0.5050505E-02 -0.4131907E-04  0.0000000E+00  0.9012450E-03
  0.6212121E+00  0.0000000E+00  0.5050505E-02 -0.3485658E-04  0.0000000E+00  0.8169131E-03
  0.6313131E+00  0.0000000E+00  0.5050505E-02 -0.3009757E-04  0.0000000E+00  0.7456173E-03
  0.6414142E+00  0.0000000E+00  0.5050505E-02 -0.2645899E-04  0.0000000E+00  0.6839965E-03
  0.6515151E+00  0.0000000E+00  0.5050505E-02 -0.2352772E-04  0.0000000E+00  0.6298866E-03
  0.6616161E+00  0.0000000E+00  0.5050505E-02 -0.2107467E-04  0.0000000E+00  0.5818826E-03
  0.6717172E+00  0.0000000E+00  0.5050505E-02 -0.1898360E-04  0.0000000E+00  0.5389911E-03
  0.6818182E+00  0.0000000E+00  0.5050505E-02 -0.1718536E-04  0.0000000E+00  0.5004433E-03
  0.6919192E+00  0.0000000E+00  0.5050505E-02 -0.1562723E-04  0.0000000E+00  0.4656191E-03
  0.7020202E+00  0.0000000E+00  0.5050505E-02 -0.1426423E-04  0.0000000E+00  0.4340158E-03
  0.7121212E+00  0.0000000E+00  0.5050505E-02 -0.1305858E-04  0.0000000E+00  0.4052285E-03
  0.7222222E+00  0.0000000E+00  0.5050505E-02 -0.1198020E-04  0.0000000E+00  0.3789313E-03
  0.7323232E+00  0.0000000E+00  0.5050505E-02 -0.1100635E-04  0.0000000E+00  0.3548597E-03
  0.7424242E+00  0.0000000E+00  0.5050505E-02 -0.1012031E-04  0.0000000E+00  0.3327948E-03
  0.7525253E+00  0.0000000E+00  0.5050505E-02 -0.9309840E-05  0.0000000E+00  0.3125514E-03
  0.7626263E+00  0.0000000E+00  0.5050505E-02 -0.8565755E-05  0.0000000E+00  0.2939695E-03
  0.7727273E+00  0.0000000E+00  0.5050505E-02 -0.7880826E-05  0.0000000E+00  0.2769084E-03
  0.7828283E+00  0.0000000E+00  0.5050505E-02 -0.7249074E-05  0.0000000E+00  0.2612430E-03
  0.7929293E+00  0.0000000E+00  0.5050505E-02 -0.6665323E-05  0.0000000E+00  0.2468613E-03
  0.8030303E+00  0.0000000E+00  0.5050505E-02 -0.6124953E-05  0.0000000E+00  0.2336626E-03
  0.8131313E+00  0.0000000E+00  0.5050505E-02 -0.5623762E-05  0.0000000E+00  0.2215566E-03
  0.8232324E+00  0.0000000E+00  0.5050505E-02 -0.5157900E-05  0.0000000E+00  0.2104620E-03
  0.8333333E+00  0.0000000E+00  0.5050505E-02 -0.4723831E-05  0.0000000E+00  0.2003060E-03
  0.8434343E+00  0.0000000E+00  0.5050505E-02 -0.4318306E-05  0.0000000E+00  0.1910234E-03
  0.8535354E+00  0.0000000E+00  0.5050505E-02 -0.3938349E-05  0.0000000E+00  0.1825559E-03
  0.8636364E+00  0.0000000E+00  0.5050505E-02 -0.3581235E-05  0.0000000E+00  0.1748516E-03
  0.8737374E+00  0.0000000E+00  0.5050505E-02 -0.3244471E-05  0.0000000E+00  0.1678641E-03
  0.8838384E+00  0.0000000E+00  0.5050505E-02 -0.2925776E-05  0.0000000E+00  0.1615524E-03
  0.8939394E+00  0.0000000E+00  0.5050505E-02 -0.2623059E-05  0.0000000E+00  0.1558804E-03
  0.9040404E+00  0.0000000E+00  0.5050505E-02 -0.2334403E-05  0.0000000E+00  0.1508160E-03
  0.9141414E+00  0.0000000E+00  0.5050505E-02 -0.2058041E-05  0.0000000E+00  0.1463312E-03
  0.9242424E+00  0.0000000E+00  0.5050505E-02 -0.1792340E-05  0.0000000E+00  0.1424018E-03
  0.9343435E+00  0.0000000E+00  0.5050505E-02 -0.1535783E-05  0.0000000E+00  0.1390067E-03
  0.9444444E+00  0.0000000E+00  0.5050505E-02 -0.1286952E-05  0.0000000E+00  0.1361282E-03
  0.9545454E+00  0.0000000E+00  0.5050505E-02 -0.1044514E-05  0.0000000E+00  0.1337514E-03
  0.9646465E+00  0.0000000E+00  0.5050505E-02 -0.8072056E-06  0.0000000E+00  0.1318641E-03
  0.9747475E+00  0.0000000E+00  0.5050505E-02 -0.5738216E-06  0.0000000E+00  0.1304568E-03
  0.9848485E+00  0.0000000E+00  0.5050505E-02 -0.3432016E-06  0.0000000E+00  0.1295224E-03
  0.9974747E+00  0.0000000E+00  0.5050505E-02 -0.1142204E-06  0.0000000E+00  0.1290563E-03
  0.5050505E-02  0.0000000E+00  0.1515152E-01  0.1644040E-06  0.0000000E+00  0.7424272E-04
  0.1515152E-01  0.0000000E+00  0.1515152E-01  0.4937070E-06  0.0000000E+00  0.7446476E-04
  0.2525252E-01  0.0000000E+00  0.1515152E-01  0.8245054E-06  0.0000000E+00  0.7490951E-04
  0.3535353E-01  0.0000000E+00  0.1515152E-01  0.1157817E-05  0.0000000E+00  0.7557835E-04
  0.4545455E-01  0.0000000E+00  0.1515152E-01  0.1494684E-05  0.0000000E+00  0.7647336E-04
  0.5555556E-01  0.0000000E+00  0.1515152E-01  0.1836180E-05  0.0000000E+00  0.7759735E-04
  0.6565657E-01  0.0000000E+00  0.1515152E-01  0.2183419E-05  0.0000000E+00  0.7895390E-04
  0.7575758E-01  0.0000000E+00  0.1515152E-01  0.2537565E-05  0.0000000E+00  0.8054737E-04
  0.8585858E-01  0.0000000E+00  0.1515152E-01  0.2899840E-05  0.0000000E+00  0.8238294E-04
  0.9595960E-01  0.0000000E+00  0.1515152E-01  0.3271539E-05  0.0000000E+00  0.8446667E-04
  0.1060606E+00  0.0000000E+00  0.1515152E-01  0.3654041E-05  0.0000000E+00  0.8680554E-04
  0.1161616E+00  0.0000000E+00  0.1515152E-01  0.4048823E-05  0.0000000E+00  0.8940753E-04
  0.1262626E+00  0.0000000E+00  0.1515152E-01  0.4457476E-05  0.0000000E+00  0.9228167E-04
  0.1363636E+00  0.0000000E+00  0.1515152E-01  0.4881723E-05  0.0000000E+00  0.9543815E-04
  0.1464646E+00  0.0000000E+00  0.1515152E-01  0.5323445E-05  0.0000000E+00  0.9888842E-04
  0.1565657E+00  0.0000000E+00  0.1515152E-01  0.5784699E-05  0.0000000E+00  0.1026453E-03
  0.1666667E+00  0.0000000E+00  0.1515152E-01  0.6267752E-05  0.0000000E+00  0.1067231E-03
  0.1767677E+00  0.0000000E+00  0.1515152E-01  0.6775111E-05  0.0000000E+00  0.1111378E-03
  0.1868687E+00  0.0000000E+00  0.1515152E-01  0.7309568E-05  0.0000000E+00  0.1159073E-03
  0.1969697E+00  0.0000000E+00  0.1515152E-01  0.7874243E-05  0.0000000E+00  0.1210514E-03
  0.2070707E+00  0.0000000E+00  0.1515152E-01  0.8472645E-05  0.0000000E+00  0.1265925E-03
  0.2171717E+00  0.0000000E+00  0.1515152E-01  0.9108737E-05  0.0000000E+00  0.1325552E-03
  0.2272727E+00  0.0000000E+00  0.1515152E-01  0.9787021E-05  0.0000000E+00  0.1389676E-03
  0.2373737E+00  0.0000000E+00  0.1515152E-01  0.1051263E-04  0.0000000E+00  0.1458607E-03
  0.2474747E+00  0.0000000E+00  0.1515152E-01  0.1129147E-04  0.0000000E+00  0.1532696E-03
  0.2575758E+00  0.0000000E+00  0.1515152E-01  0.1213033E-04  0.0000000E+00  0.1612340E-03
  0.2676768E+00  0.0000000E+00  0.1515152E-01  0.1303709E-04  0.0000000E+00  0.1697984E-03
  0.2777778E+00  0.0000000E+00  0.1515152E-01  0.1402090E-04  0.0000000E+00  0.1790138E-03
  0.2878788E+00  0.0000000E+00  0.1515152E-01  0.1509247E-04  0.0000000E+00  0.1889378E-03
  0.2979798E+00  0.0000000E+00  0.1515152E-01  0.1626436E-04  0.0000000E+00  0.1996365E-03
  0.3080808E+00  0.0000000E+00  0.1515152E-01  0.1755133E-04  0.0000000E+00  0.2111856E-03
  0.3181818E+00  0.0000000E+00  0.1515152E-01  0.1897077E-04  0.0000000E+00  0.2236725E-03
  0.3282828E+00  0.0000000E+00  0.1515152E-01  0.2054321E-04  0.0000000E+00  0.2371979E-03
  0.3383838E+00  0.0000000E+00  0.1515152E-01  0.2229282E-04  0.0000000E+00  0.2518790E-03
  0.3484848E+00  0.0000000E+00  0.1515152E-01  0.2424794E-04  0.0000000E+00  0.2678519E-03
  0.3585859E+00  0.0000000E+00  0.1515152E-01  0.2644155E-04  0.0000000E+00  0.2852755E-03
  0.3686869E+00  0.0000000E+00  0.1515152E-01  0.2891148E-04  0.0000000E+00  0.3043352E-03
  0.3787879E+00  0.0000000E+00  0.1515152E-01  0.3169988E-04  0.0000000E+00  0.3252475E-03
  0.3888889E+00  0.0000000E+00  0.1515152E-01  0.3485169E-04  0.0000000E+00  0.3482635E-03
  0.3989899E+00  0.0000000E+00  0.1515152E-01  0.3841062E-04  0.0000000E+00  0.3736722E-03
  0.4090909E+00  0.0000000E+00  0.1515152E-01  0.4241143E-04  0.0000000E+00  0.4018001E-03
  0.4191919E+00  0.0000000E+00  0.1515152E-01  0.4686622E-04  0.0000000E+00  0.4330041E-03
  0.4292929E+00  0.0000000E+00  0.1515152E-01  0.5174309E-04  0.0000000E+00  0.4676514E-03
  0.4393939E+00  0.0000000E+00  0.1515152E-01  0.5693893E-04  0.0000000E+00  0.5060785E-03
  0.4494950E+00  0.0000000E+00  0.1515152E-01  0.6225838E-04  0.0000000E+00  0.5485231E-03
  0.4595959E+00  0.0000000E+00  0.1515152E-01  0.6743172E-04  0.0000000E+00  0.5950434E-03
  0.4696970E+00  0.0000000E+00  0.1515152E-01  0.7221357E-04  0.0000000E+00  0.6454863E-03
  0.4797980E+00  0.0000000E+00  0.1515152E-01  0.7649252E-04  0.0000000E+00  0.6995716E-03
  0.4898990E+00  0.0000000E+00  0.1515152E-01  0.7998838E-04  0.0000000E+00  0.7567658E-03
  0.5000000E+00  0.0000000E+00  0.1515152E-01  0.8329274E-04  0.0000000E+00  0.8166014E-03
  0.5101010E+00  0.0000000E+00  0.1515152E-01  0.8681453E-04  0.0000000E+00  0.8788515E-03
  0.5202020E+00  0.0000000E+00  0.1515152E-01  0.9206307E-04  0.0000000E+00  0.9435652E-03
  0.5303030E+00  0.0000000E+00  0.1515152E-01  0.1027551E-03  0.0000000E+00  0.1012298E-02
  0.5404040E+00  0.0000000E+00  0.1515152E-01  0.1231484E-03  0.0000000E+00  0.1087115E-02
  0.5505050E+00  0.0000000E+00  0.1515152E-01  0.1636860E-03  0.0000000E+00  0.1165144E-02
  0.5606061E+00  0.0000000E+00  0.1515152E-01  0.2108985E-03  0.0000000E+00  0.1259246E-02
  0.5707071E+00  0.0000000E+00  0.1515152E-01 -0.1016822E-03  0.0000000E+00  0.1216472E-02
  0.5808081E+00  0.0000000E+00  0.1515152E-01 -0.2166739E-03  0.0000000E+00  0.1129268E-02
  0.5909091E+00  0.0000000E+00  0.1515152E-01 -0.1940912E-03  0.0000000E+00  0.1081129E-02
  0.6010101E+00  0.0000000E+00  0.1515152E-01 -0.1429245E-03  0.0000000E+00  0.9758374E-03
  0.6111111E+00  0.0000000E+00  0.1515152E-01 -0.1211679E-03  0.0000000E+00  0.8865389E-03
  0.6212121E+00  0.0000000E+00  0.1515152E-01 -0.1029896E-03  0.0000000E+00  0.8069281E-03
  0.6313131E+00  0.0000000E+00  0.1515152E-01 -0.8923987E-04  0.0000000E+00  0.7384074E-03
  0.6414142E+00  0.0000000E+00  0.1515152E-01 -0.7870627E-04  0.0000000E+00  0.6785615E-03
  0.6515151E+00  0.0000000E+00  0.1515152E-01 -0.7012792E-04  0.0000000E+00  0.6255808E-03
  0.6616161E+00  0.0000000E+00  0.1515152E-01 -0.6287942E-04  0.0000000E+00  0.5783596E-03
  0.6717172E+00  0.0000000E+00  0.1515152E-01 -0.5667225E-04  0.0000000E+00  0.5360665E-03
  0.6818182E+00  0.0000000E+00  0.1515152E-01 -0.5132767E-04  0.0000000E+00  0.4979974E-03
  0.6919192E+00  0.0000000E+00  0.1515152E-01 -0.4669591E-04  0.0000000E+00  0.4635572E-03
  0.7020202E+00  0.0000000E+00  0.1515152E-01 -0.4264275E-04  0.0000000E+00  0.4322581E-03
  0.7121212E+00  0.0000000E+00  0.1515152E-01 -0.3905430E-04  0.0000000E+00  0.4037102E-03
  0.7222222E+00  0.0000000E+00  0.1515152E-01 -0.3584068E-04  0.0000000E+00  0.3776025E-03
  0.7323232E+00  0.0000000E+00  0.1515152E-01 -0.3293485E-04  0.0000000E+00  0.3536836E-03
  0.7424242E+00  0.0000000E+00  0.1515152E-01 -0.3028817E-04  0.0000000E+00  0.3317451E-03
  0.7525253E+00  0.0000000E+00  0.1515152E-01 -0.2786528E-04  0.0000000E+00  0.3116092E-03
  0.7626263E+00  0.0000000E+00  0.1515152E-01 -0.2563965E-04  0.0000000E+00  0.2931207E-03
  0.7727273E+00  0.0000000E+00  0.1515152E-01 -0.2359031E-04  0.0000000E+00  0.2761421E-03
  0.7828283E+00  0.0000000E+00  0.1515152E-01 -0.2169974E-04  0.0000000E+00  0.2605502E-03
  0.7929293E+00  0.0000000E+00  0.1515152E-01 -0.1995267E-04  0.0000000E+00  0.2462342E-03
  0.8030303E+00  0.0000000E+00  0.1515152E-01 -0.1833538E-04  0.0000000E+00  0.2330944E-03
  0.8131313E+00  0.0000000E+00  0.1515152E-01 -0.1683533E-04  0.0000000E+00  0.2210410E-03
  0.8232324E+00  0.0000000E+00  0.1515152E-01 -0.1544100E-04  0.0000000E+00  0.2099934E-03
  0.8333333E+00  0.0000000E+00  0.1515152E-01 -0.1414181E-04  0.0000000E+00  0.1998794E-03
  0.8434343E+00  0.0000000E+00  0.1515152E-01 -0.1292803E-04  0.0000000E+00  0.1906340E-03
  0.8535354E+00  0.0000000E+00  0.1515152E-01 -0.1179074E-04  0.0000000E+00  0.1821995E-03
  0.8636364E+00  0.0000000E+00  0.1515152E-01 -0.1072180E-04  0.0000000E+00  0.1745243E-03
  0.8737374E+00  0.0000000E+00  0.1515152E-01 -0.9713726E-05  0.0000000E+00  0.1675625E-03
  0.8838384E+00  0.0000000E+00  0.1515152E-01 -0.8759704E-05  0.0000000E+00  0.1612734E-03
  0.8939394E+00  0.0000000E+00  0.1515152E-01 -0.7853479E-05  0.0000000E+00  0.1556211E-03
  0.9040404E+00  0.0000000E+00  0.1515152E-01 -0.6989314E-05  0.0000000E+00  0.1505739E-03
  0.9141414E+00  0.0000000E+00  0.1515152E-01 -0.6161926E-05  0.0000000E+00  0.1461039E-03
  0.9242424E+00  0.0000000E+00  0.1515152E-01 -0.5366432E-05  0.0000000E+00  0.1421872E-03
  0.9343435E+00  0.0000000E+00  0.1515152E-01 -0.4598295E-05  0.0000000E+00  0.1388029E-03
  0.9444444E+00  0.0000000E+00  0.1515152E-01 -0.3853276E-05  0.0000000E+00  0.1359333E-03
  0.9545454E+00  0.0000000E+00  0.1515152E-01 -0.3127389E-05  0.0000000E+00  0.1335638E-03
  0.9646465E+00  0.0000000E+00  0.1515152E-01 -0.2416856E-05  0.0000000E+00  0.1316821E-03
  0.9747475E+00  0.0000000E+00  0.1515152E-01 -0.1718074E-05  0.0000000E+00  0.1302790E-03
  0.9848485E+00  0.0000000E+00  0.1515152E-01 -0.1027571E-05  0.0000000E+00  0.1293473E-03
  0.9974747E+00  0.0000000E+00  0.1515152E-01 -0.3419827E-06  0.0000000E+00  0.1288826E-03
  0.5050505E-02  0.0000000E+00  0.2525252E-01  0.2733887E-06  0.0000000E+00  0.7416889E-04
  0.1515152E-01  0.0000000E+00  0.2525252E-01  0.8209901E-06  0.0000000E+00  0.7439034E-04
  0.2525252E-01  0.0000000E+00  0.2525252E-01  0.1371077E-05  0.0000000E+00  0.7483390E-04
  0.3535353E-01  0.0000000E+00  0.2525252E-01  0.1925340E-05  0.0000000E+00  0.7550092E-04
  0.4545455E-01  0.0000000E+00  0.2525252E-01  0.2485505E-05  0.0000000E+00  0.7639345E-04
  0.5555556E-01  0.0000000E+00  0.2525252E-01  0.3053354E-05  0.0000000E+00  0.7751428E-04
  0.6565657E-01  0.0000000E+00  0.2525252E-01  0.3630733E-05  0.0000000E+00  0.7886692E-04
  0.7575758E-01  0.0000000E+00  0.2525252E-01  0.4219569E-05  0.0000000E+00  0.8045567E-04
  0.8585858E-01  0.0000000E+00  0.2525252E-01  0.4821890E-05  0.0000000E+00  0.8228566E-04
  0.9595960E-01  0.0000000E+00  0.2525252E-01  0.5439840E-05  0.0000000E+00  0.8436285E-04
  0.1060606E+00  0.0000000E+00  0.2525252E-01  0.6075702E-05  0.0000000E+00  0.8669413E-04
  0.1161616E+00  0.0000000E+00  0.2525252E-01  0.6731919E-05  0.0000000E+00  0.8928735E-04
  0.1262626E+00  0.0000000E+00  0.2525252E-01  0.7411126E-05  0.0000000E+00  0.9215143E-04
  0.1363636E+00  0.0000000E+00  0.2525252E-01  0.8116174E-05  0.0000000E+00  0.9529639E-04
  0.1464646E+00  0.0000000E+00  0.2525252E-01  0.8850170E-05  0.0000000E+00  0.9873350E-04
  0.1565657E+00  0.0000000E+00  0.2525252E-01  0.9616514E-05  0.0000000E+00  0.1024754E-03
  0.1666667E+00  0.0000000E+00  0.2525252E-01  0.1041895E-04  0.0000000E+00  0.1065360E-03
  0.1767677E+00  0.0000000E+00  0.2525252E-01  0.1126162E-04  0.0000000E+00  0.1109312E-03
  0.1868687E+00  0.0000000E+00  0.2525252E-01  0.1214911E-04  0.0000000E+00  0.1156784E-03
  0.1969697E+00  0.0000000E+00  0.2525252E-01  0.1308659E-04  0.0000000E+00  0.1207971E-03
  0.2070707E+00  0.0000000E+00  0.2525252E-01  0.1407982E-04  0.0000000E+00  0.1263090E-03
  0.2171717E+00  0.0000000E+00  0.2525252E-01  0.1513533E-04  0.0000000E+00  0.1322385E-03
  0.2272727E+00  0.0000000E+00  0.2525252E-01  0.1626052E-04  0.0000000E+00  0.1386126E-03
  0.2373737E+00  0.0000000E+00  0.2525252E-01  0.1746383E-04  0.0000000E+00  0.1454617E-03
  0.2474747E+00  0.0000000E+00  0.2525252E-01  0.1875494E-04  0.0000000E+00  0.1528199E-03
  0.2575758E+00  0.0000000E+00  0.2525252E-01  0.2014500E-04  0.0000000E+00  0.1607256E-03
  0.2676768E+00  0.0000000E+00  0.2525252E-01  0.2164691E-04  0.0000000E+00  0.1692222E-03
  0.2777778E+00  0.0000000E+00  0.2525252E-01  0.2327570E-04  0.0000000E+00  0.1783585E-03
  0.2878788E+00  0.0000000E+00  0.2525252E-01  0.2504889E-04  0.0000000E+00  0.1881903E-03
  0.2979798E+00  0.0000000E+00  0.2525252E-01  0.2698705E-04  0.0000000E+00  0.1987812E-03
  0.3080808E+00  0.0000000E+00  0.2525252E-01  0.2911435E-04  0.0000000E+00  0.2102039E-03
  0.3181818E+00  0.0000000E+00  0.2525252E-01  0.3145933E-04  0.0000000E+00  0.2225421E-03
  0.3282828E+00  0.0000000E+00  0.2525252E-01  0.3405567E-04  0.0000000E+00  0.2358924E-03
  0.3383838E+00  0.0000000E+00  0.2525252E-01  0.3694314E-04  0.0000000E+00  0.2503670E-03
  0.3484848E+00  0.0000000E+00  0.2525252E-01  0.4016862E-04  0.0000000E+00  0.2660963E-03
  0.3585859E+00  0.0000000E+00  0.2525252E-01  0.4378700E-04  0.0000000E+00  0.2832333E-03
  0.3686869E+00  0.0000000E+00  0.2525252E-01  0.4786191E-04  0.0000000E+00  0.3019575E-03
  0.3787879E+00  0.0000000E+00  0.2525252E-01  0.5246559E-04  0.0000000E+00  0.3224804E-03
  0.3888889E+00  0.0000000E+00  0.2525252E-01  0.5767725E-04  0.0000000E+00  0.3450522E-03
  0.3989899E+00  0.0000000E+00  0.2525252E-01  0.6357813E-04  0.0000000E+00  0.3699679E-03
  0.4090909E+00  0.0000000E+00  0.2525252E-01  0.7024056E-04  0.0000000E+00  0.3975745E-03
  0.4191919E+00  0.0000000E+00  0.2525252E-01  0.7770656E-04  0.0000000E+00  0.4282727E-03
  0.4292929E+00  0.0000000E+00  0.2525252E-01  0.8594981E-04  0.0000000E+00  0.4625078E-03
  0.4393939E+00  0.0000000E+00  0.2525252E-01  0.9481677E-04  0.0000000E+00  0.5007304E-03
  0.4494950E+00  0.0000000E+00  0.2525252E-01  0.1039580E-03  0.0000000E+00  0.5432987E-03
  0.4595959E+00  0.0000000E+00  0.2525252E-01  0.1128175E-03  0.0000000E+00  0.5903080E-03
  0.4696970E+00  0.0000000E+00  0.2525252E-01  0.1208731E-03  0.0000000E+00  0.6414830E-03
  0.4797980E+00  0.0000000E+00  0.2525252E-01  0.1282258E-03  0.0000000E+00  0.6966149E-03
  0.4898990E+00  0.0000000E+00  0.2525252E-01  0.1333891E-03  0.0000000E+00  0.7546674E-03
  0.5000000E+00  0.0000000E+00  0.2525252E-01  0.1383740E-03  0.0000000E+00  0.8147463E-03
  0.5101010E+00  0.0000000E+00  0.2525252E-01  0.1426077E-03  0.0000000E+00  0.8761532E-03
  0.5202020E+00  0.0000000E+00  0.2525252E-01  0.1475493E-03  0.0000000E+00  0.9367399E-03
  0.5303030E+00  0.0000000E+00  0.2525252E-01  0.1608390E-03  0.0000000E+00  0.9971509E-03
  0.5404040E+00  0.0000000E+00  0.2525252E-01  0.1836114E-03  0.0000000E+00  0.1058483E-02
  0.5505050E+00  0.0000000E+00  0.2525252E-01  0.2213604E-03  0.0000000E+00  0.1117698E-02
  0.5606061E+00  0.0000000E+00  0.2525252E-01  0.2304232E-03  0.0000000E+00  0.1115977E-02
  0.5707071E+00  0.0000000E+00  0.2525252E-01 -0.2012564E-03  0.0000000E+00  0.1067256E-02
  0.5808081E+00  0.0000000E+00  0.2525252E-01 -0.2354773E-03  0.0000000E+00  0.1015103E-02
  0.5909091E+00  0.0000000E+00  0.2525252E-01 -0.2532431E-03  0.0000000E+00  0.9723694E-03
  0.6010101E+00  0.0000000E+00  0.2525252E-01 -0.2086092E-03  0.0000000E+00  0.9355131E-03
  0.6111111E+00  0.0000000E+00  0.2525252E-01 -0.1978347E-03  0.0000000E+00  0.8652836E-03
  0.6212121E+00  0.0000000E+00  0.2525252E-01 -0.1670967E-03  0.0000000E+00  0.7888088E-03
  0.6313131E+00  0.0000000E+00  0.2525252E-01 -0.1454367E-03  0.0000000E+00  0.7249994E-03
  0.6414142E+00  0.0000000E+00  0.2525252E-01 -0.1291665E-03  0.0000000E+00  0.6683793E-03
  0.6515151E+00  0.0000000E+00  0.2525252E-01 -0.1155216E-03  0.0000000E+00  0.6173734E-03
  0.6616161E+00  0.0000000E+00  0.2525252E-01 -0.1037450E-03  0.0000000E+00  0.5715572E-03
  0.6717172E+00  0.0000000E+00  0.2525252E-01 -0.9358558E-04  0.0000000E+00  0.5303909E-03
  0.6818182E+00  0.0000000E+00  0.2525252E-01 -0.8483137E-04  0.0000000E+00  0.4932483E-03
  0.6919192E+00  0.0000000E+00  0.2525252E-01 -0.7724869E-04  0.0000000E+00  0.4595553E-03
  0.7020202E+00  0.0000000E+00  0.2525252E-01 -0.7060966E-04  0.0000000E+00  0.4288453E-03
  0.7121212E+00  0.0000000E+00  0.2525252E-01 -0.6472056E-04  0.0000000E+00  0.4007573E-03
  0.7222222E+00  0.0000000E+00  0.2525252E-01 -0.5943263E-04  0.0000000E+00  0.3750118E-03
  0.7323232E+00  0.0000000E+00  0.2525252E-01 -0.5463847E-04  0.0000000E+00  0.3513849E-03
  0.7424242E+00  0.0000000E+00  0.2525252E-01 -0.5026234E-04  0.0000000E+00  0.3296890E-03
  0.7525253E+00  0.0000000E+00  0.2525252E-01 -0.4624997E-04  0.0000000E+00  0.3097606E-03
  0.7626263E+00  0.0000000E+00  0.2525252E-01 -0.4256056E-04  0.0000000E+00  0.2914535E-03
  0.7727273E+00  0.0000000E+00  0.2525252E-01 -0.3916141E-04  0.0000000E+00  0.2746360E-03
  0.7828283E+00  0.0000000E+00  0.2525252E-01 -0.3602468E-04  0.0000000E+00  0.2591880E-03
  0.7929293E+00  0.0000000E+00  0.2525252E-01 -0.3312566E-04  0.0000000E+00  0.2450011E-03
  0.8030303E+00  0.0000000E+00  0.2525252E-01 -0.3044185E-04  0.0000000E+00  0.2319770E-03
  0.8131313E+00  0.0000000E+00  0.2525252E-01 -0.2795253E-04  0.0000000E+00  0.2200273E-03
  0.8232324E+00  0.0000000E+00  0.2525252E-01 -0.2563860E-04  0.0000000E+00  0.2090723E-03
  0.8333333E+00  0.0000000E+00  0.2525252E-01 -0.2348249E-04  0.0000000E+00  0.1990406E-03
  0.8434343E+00  0.0000000E+00  0.2525252E-01 -0.2146802E-04  0.0000000E+00  0.1898685E-03
  0.8535354E+00  0.0000000E+00  0.2525252E-01 -0.1958038E-04  0.0000000E+00  0.1814990E-03
  0.8636364E+00  0.0000000E+00  0.2525252E-01 -0.1780603E-04  0.0000000E+00  0.1738812E-03
  0.8737374E+00  0.0000000E+00  0.2525252E-01 -0.1613258E-04  0.0000000E+00  0.1669700E-03
  0.8838384E+00  0.0000000E+00  0.2525252E-01 -0.1454870E-04  0.0000000E+00  0.1607253E-03
  0.8939394E+00  0.0000000E+00  0.2525252E-01 -0.1304405E-04  0.0000000E+00  0.1551118E-03
  0.9040404E+00  0.0000000E+00  0.2525252E-01 -0.1160909E-04  0.0000000E+00  0.1500984E-03
  0.9141414E+00  0.0000000E+00  0.2525252E-01 -0.1023509E-04  0.0000000E+00  0.1456577E-03
  0.9242424E+00  0.0000000E+00  0.2525252E-01 -0.8913957E-05  0.0000000E+00  0.1417659E-03
  0.9343435E+00  0.0000000E+00  0.2525252E-01 -0.7638170E-05  0.0000000E+00  0.1384028E-03
  0.9444444E+00  0.0000000E+00  0.2525252E-01 -0.6400711E-05  0.0000000E+00  0.1355508E-03
  0.9545454E+00  0.0000000E+00  0.2525252E-01 -0.5194977E-05  0.0000000E+00  0.1331955E-03
  0.9646465E+00  0.0000000E+00  0.2525252E-01 -0.4014713E-05  0.0000000E+00  0.1313251E-03
  0.9747475E+00  0.0000000E+00  0.2525252E-01 -0.2853946E-05  0.0000000E+00  0.1299301E-03
  0.9848485E+00  0.0000000E+00  0.2525252E-01 -0.1706927E-05  0.0000000E+00  0.1290038E-03
  0.9974747E+00  0.0000000E+00  0.2525252E-01 -0.5680751E-06  0.0000000E+00  0.1285418E-03
  0.5050505E-02  0.0000000E+00  0.3535353E-01  0.3816992E-06  0.0000000E+00  0.7406185E-04
  0.1515152E-01  0.0000000E+00  0.3535353E-01  0.1146246E-05  0.0000000E+00  0.7428244E-04
  0.2525252E-01  0.0000000E+00  0.3535353E-01  0.1914256E-05  0.0000000E+00  0.7472425E-04
  0.3535353E-01  0.0000000E+00  0.3535353E-01  0.2688078E-05  0.0000000E+00  0.7538860E-04
  0.4545455E-01  0.0000000E+00  0.3535353E-01  0.3470115E-05  0.0000000E+00  0.7627751E-04
  0.5555556E-01  0.0000000E+00  0.3535353E-01  0.4262843E-05  0.0000000E+00  0.7739368E-04
  0.6565657E-01  0.0000000E+00  0.3535353E-01  0.5068825E-05  0.0000000E+00  0.7874059E-04
  0.7575758E-01  0.0000000E+00  0.3535353E-01  0.5890740E-05  0.0000000E+00  0.8032244E-04
  0.8585858E-01  0.0000000E+00  0.3535353E-01  0.6731401E-05  0.0000000E+00  0.8214424E-04
  0.9595960E-01  0.0000000E+00  0.3535353E-01  0.7593785E-05  0.0000000E+00  0.8421185E-04
  0.1060606E+00  0.0000000E+00  0.3535353E-01  0.8481058E-05  0.0000000E+00  0.8653200E-04
  0.1161616E+00  0.0000000E+00  0.3535353E-01  0.9396608E-05  0.0000000E+00  0.8911240E-04
  0.1262626E+00  0.0000000E+00  0.3535353E-01  0.1034409E-04  0.0000000E+00  0.9196174E-04
  0.1363636E+00  0.0000000E+00  0.3535353E-01  0.1132744E-04  0.0000000E+00  0.9508983E-04
  0.1464646E+00  0.0000000E+00  0.3535353E-01  0.1235097E-04  0.0000000E+00  0.9850767E-04
  0.1565657E+00  0.0000000E+00  0.3535353E-01  0.1341937E-04  0.0000000E+00  0.1022275E-03
  0.1666667E+00  0.0000000E+00  0.3535353E-01  0.1453783E-04  0.0000000E+00  0.1062631E-03
  0.1767677E+00  0.0000000E+00  0.3535353E-01  0.1571204E-04  0.0000000E+00  0.1106297E-03
  0.1868687E+00  0.0000000E+00  0.3535353E-01  0.1694836E-04  0.0000000E+00  0.1153443E-03
  0.1969697E+00  0.0000000E+00  0.3535353E-01  0.1825388E-04  0.0000000E+00  0.1204258E-03
  0.2070707E+00  0.0000000E+00  0.3535353E-01  0.1963653E-04  0.0000000E+00  0.1258952E-03
  0.2171717E+00  0.0000000E+00  0.3535353E-01  0.2110529E-04  0.0000000E+00  0.1317760E-03
  0.2272727E+00  0.0000000E+00  0.3535353E-01  0.2267030E-04  0.0000000E+00  0.1380942E-03
  0.2373737E+00  0.0000000E+00  0.3535353E-01  0.2434315E-04  0.0000000E+00  0.1448791E-03
  0.2474747E+00  0.0000000E+00  0.3535353E-01  0.2613708E-04  0.0000000E+00  0.1521634E-03
  0.2575758E+00  0.0000000E+00  0.3535353E-01  0.2806734E-04  0.0000000E+00  0.1599836E-03
  0.2676768E+00  0.0000000E+00  0.3535353E-01  0.3015157E-04  0.0000000E+00  0.1683810E-03
  0.2777778E+00  0.0000000E+00  0.3535353E-01  0.3241026E-04  0.0000000E+00  0.1774022E-03
  0.2878788E+00  0.0000000E+00  0.3535353E-01  0.3486731E-04  0.0000000E+00  0.1870998E-03
  0.2979798E+00  0.0000000E+00  0.3535353E-01  0.3755077E-04  0.0000000E+00  0.1975336E-03