title = "dataset water"
variables = "x", "y", "z", "vx", "vy", "vz"
zone t = "velocities, solution time =  1.600E+01 days        " i =   99, j =   99, k =    1,  f=point
  0.5050505E-02  0.0000000E+00  0.5050505E-02  0.9162635E-11  0.0000000E+00 -0.2582506E-04
  0.1515152E-01  0.0000000E+00  0.5050505E-02  0.2750714E-10  0.0000000E+00 -0.2582502E-04
  0.2525252E-01  0.0000000E+00  0.5050505E-02  0.4581783E-10  0.0000000E+00 -0.2582495E-04
  0.3535353E-01  0.0000000E+00  0.5050505E-02  0.6406376E-10  0.0000000E+00 -0.2582484E-04
  0.4545455E-01  0.0000000E+00  0.5050505E-02  0.8222199E-10  0.0000000E+00 -0.2582469E-04
  0.5555556E-01  0.0000000E+00  0.5050505E-02  0.1002661E-09  0.0000000E+00 -0.2582451E-04
  0.6565657E-01  0.0000000E+00  0.5050505E-02  0.1181685E-09  0.0000000E+00 -0.2582429E-04
  0.7575758E-01  0.0000000E+00  0.5050505E-02  0.1358989E-09  0.0000000E+00 -0.2582404E-04
  0.8585858E-01  0.0000000E+00  0.5050505E-02  0.1534251E-09  0.0000000E+00 -0.2582375E-04
  0.9595960E-01  0.0000000E+00  0.5050505E-02  0.1707132E-09  0.0000000E+00 -0.2582342E-04
  0.1060606E+00  0.0000000E+00  0.5050505E-02  0.1877264E-09  0.0000000E+00 -0.2582306E-04
  0.1161616E+00  0.0000000E+00  0.5050505E-02  0.2044252E-09  0.0000000E+00 -0.2582267E-04
  0.1262626E+00  0.0000000E+00  0.5050505E-02  0.2207673E-09  0.0000000E+00 -0.2582224E-04
  0.1363636E+00  0.0000000E+00  0.5050505E-02  0.2367076E-09  0.0000000E+00 -0.2582178E-04
  0.1464646E+00  0.0000000E+00  0.5050505E-02  0.2521982E-09  0.0000000E+00 -0.2582129E-04
  0.1565657E+00  0.0000000E+00  0.5050505E-02  0.2671880E-09  0.0000000E+00 -0.2582077E-04
  0.1666667E+00  0.0000000E+00  0.5050505E-02  0.2816233E-09  0.0000000E+00 -0.2582022E-04
  0.1767677E+00  0.0000000E+00  0.5050505E-02  0.2954473E-09  0.0000000E+00 -0.2581964E-04
  0.1868687E+00  0.0000000E+00  0.5050505E-02  0.3086008E-09  0.0000000E+00 -0.2581904E-04
  0.1969697E+00  0.0000000E+00  0.5050505E-02  0.3210225E-09  0.0000000E+00 -0.2581840E-04
  0.2070707E+00  0.0000000E+00  0.5050505E-02  0.3326487E-09  0.0000000E+00 -0.2581775E-04
  0.2171717E+00  0.0000000E+00  0.5050505E-02  0.3434142E-09  0.0000000E+00 -0.2581707E-04
  0.2272727E+00  0.0000000E+00  0.5050505E-02  0.3532526E-09  0.0000000E+00 -0.2581637E-04
  0.2373737E+00  0.0000000E+00  0.5050505E-02  0.3620968E-09  0.0000000E+00 -0.2581565E-04
  0.2474747E+00  0.0000000E+00  0.5050505E-02  0.3698796E-09  0.0000000E+00 -0.2581492E-04
  0.2575758E+00  0.0000000E+00  0.5050505E-02  0.3765343E-09  0.0000000E+00 -0.2581417E-04
  0.2676768E+00  0.0000000E+00  0.5050505E-02  0.3819952E-09  0.0000000E+00 -0.2581341E-04
  0.2777778E+00  0.0000000E+00  0.5050505E-02  0.3861988E-09  0.0000000E+00 -0.2581264E-04
  0.2878788E+00  0.0000000E+00  0.5050505E-02  0.3890844E-09  0.0000000E+00 -0.2581186E-04
  0.2979798E+00  0.0000000E+00  0.5050505E-02  0.3905947E-09  0.0000000E+00 -0.2581108E-04
  0.3080808E+00  0.0000000E+00  0.5050505E-02  0.3906769E-09  0.0000000E+00 -0.2581030E-04
  0.3181818E+00  0.0000000E+00  0.5050505E-02  0.3892835E-09  0.0000000E+00 -0.2580951E-04
  0.3282828E+00  0.0000000E+00  0.5050505E-02  0.3863735E-09  0.0000000E+00 -0.2580873E-04
  0.3383838E+00  0.0000000E+00  0.5050505E-02  0.3819125E-09  0.0000000E+00 -0.2580796E-04
  0.3484848E+00  0.0000000E+00  0.5050505E-02  0.3758746E-09  0.0000000E+00 -0.2580720E-04
  0.3585859E+00  0.0000000E+00  0.5050505E-02  0.3682423E-09  0.0000000E+00 -0.2580646E-04
  0.3686869E+00  0.0000000E+00  0.5050505E-02  0.3590078E-09  0.0000000E+00 -0.2580573E-04
  0.3787879E+00  0.0000000E+00  0.5050505E-02  0.3481735E-09  0.0000000E+00 -0.2580502E-04
  0.3888889E+00  0.0000000E+00  0.5050505E-02  0.3357526E-09  0.0000000E+00 -0.2580433E-04
  0.3989899E+00  0.0000000E+00  0.5050505E-02  0.3217696E-09  0.0000000E+00 -0.2580367E-04
  0.4090909E+00  0.0000000E+00  0.5050505E-02  0.3062609E-09  0.0000000E+00 -0.2580304E-04
  0.4191919E+00  0.0000000E+00  0.5050505E-02  0.2892747E-09  0.0000000E+00 -0.2580245E-04
  0.4292929E+00  0.0000000E+00  0.5050505E-02  0.2708713E-09  0.0000000E+00 -0.2580188E-04
  0.4393939E+00  0.0000000E+00  0.5050505E-02  0.2511229E-09  0.0000000E+00 -0.2580136E-04
  0.4494950E+00  0.0000000E+00  0.5050505E-02  0.2301137E-09  0.0000000E+00 -0.2580088E-04
  0.4595959E+00  0.0000000E+00  0.5050505E-02  0.2079392E-09  0.0000000E+00 -0.2580044E-04
  0.4696970E+00  0.0000000E+00  0.5050505E-02  0.1847058E-09  0.0000000E+00 -0.2580004E-04
  0.4797980E+00  0.0000000E+00  0.5050505E-02  0.1605300E-09  0.0000000E+00 -0.2579970E-04
  0.4898990E+00  0.0000000E+00  0.5050505E-02  0.1355377E-09  0.0000000E+00 -0.2579940E-04
  0.5000000E+00  0.0000000E+00  0.5050505E-02  0.1098631E-09  0.0000000E+00 -0.2579915E-04
  0.5101010E+00  0.0000000E+00  0.5050505E-02  0.8364758E-10  0.0000000E+00 -0.2579896E-04
  0.5202020E+00  0.0000000E+00  0.5050505E-02  0.5703830E-10  0.0000000E+00 -0.2579882E-04
  0.5303030E+00  0.0000000E+00  0.5050505E-02  0.3018708E-10  0.0000000E+00 -0.2579873E-04
  0.5404040E+00  0.0000000E+00  0.5050505E-02  0.3248793E-11  0.0000000E+00 -0.2579870E-04
  0.5505050E+00  0.0000000E+00  0.5050505E-02 -0.2361992E-10  0.0000000E+00 -0.2579872E-04
  0.5606061E+00  0.0000000E+00  0.5050505E-02 -0.5026266E-10  0.0000000E+00 -0.2579879E-04
  0.5707071E+00  0.0000000E+00  0.5050505E-02 -0.7652426E-10  0.0000000E+00 -0.2579892E-04
  0.5808081E+00  0.0000000E+00  0.5050505E-02 -0.1022523E-09  0.0000000E+00 -0.2579910E-04
  0.5909091E+00  0.0000000E+00  0.5050505E-02 -0.1272989E-09  0.0000000E+00 -0.2579933E-04
  0.6010101E+00  0.0000000E+00  0.5050505E-02 -0.1515219E-09  0.0000000E+00 -0.2579961E-04
  0.6111111E+00  0.0000000E+00  0.5050505E-02 -0.1747863E-09  0.0000000E+00 -0.2579994E-04
  0.6212121E+00  0.0000000E+00  0.5050505E-02 -0.1969651E-09  0.0000000E+00 -0.2580031E-04
  0.6313131E+00  0.0000000E+00  0.5050505E-02 -0.2179404E-09  0.0000000E+00 -0.2580073E-04
  0.6414142E+00  0.0000000E+00  0.5050505E-02 -0.2376047E-09  0.0000000E+00 -0.2580118E-04
  0.6515151E+00  0.0000000E+00  0.5050505E-02 -0.2558611E-09  0.0000000E+00 -0.2580168E-04
  0.6616161E+00  0.0000000E+00  0.5050505E-02 -0.2726242E-09  0.0000000E+00 -0.2580221E-04
  0.6717172E+00  0.0000000E+00  0.5050505E-02 -0.2878205E-09  0.0000000E+00 -0.2580277E-04
  0.6818182E+00  0.0000000E+00  0.5050505E-02 -0.3013885E-09  0.0000000E+00 -0.2580336E-04
  0.6919192E+00  0.0000000E+00  0.5050505E-02 -0.3132788E-09  0.0000000E+00 -0.2580398E-04
  0.7020202E+00  0.0000000E+00  0.5050505E-02 -0.3234542E-09  0.0000000E+00 -0.2580462E-04
  0.7121212E+00  0.0000000E+00  0.5050505E-02 -0.3318893E-09  0.0000000E+00 -0.2580527E-04
  0.7222222E+00  0.0000000E+00  0.5050505E-02 -0.3385704E-09  0.0000000E+00 -0.2580595E-04
  0.7323232E+00  0.0000000E+00  0.5050505E-02 -0.3434947E-09  0.0000000E+00 -0.2580663E-04
  0.7424242E+00  0.0000000E+00  0.5050505E-02 -0.3466702E-09  0.0000000E+00 -0.2580732E-04
  0.7525253E+00  0.0000000E+00  0.5050505E-02 -0.3481146E-09  0.0000000E+00 -0.2580802E-04
  0.7626263E+00  0.0000000E+00  0.5050505E-02 -0.3478549E-09  0.0000000E+00 -0.2580872E-04
  0.7727273E+00  0.0000000E+00  0.5050505E-02 -0.3459265E-09  0.0000000E+00 -0.2580941E-04
  0.7828283E+00  0.0000000E+00  0.5050505E-02 -0.3423726E-09  0.0000000E+00 -0.2581010E-04
  0.7929293E+00  0.0000000E+00  0.5050505E-02 -0.3372428E-09  0.0000000E+00 -0.2581079E-04
  0.8030303E+00  0.0000000E+00  0.5050505E-02 -0.3305932E-09  0.0000000E+00 -0.2581146E-04
  0.8131313E+00  0.0000000E+00  0.5050505E-02 -0.3224848E-09  0.0000000E+00 -0.2581211E-04
  0.8232324E+00  0.0000000E+00  0.5050505E-02 -0.3129832E-09  0.0000000E+00 -0.2581275E-04
  0.8333333E+00  0.0000000E+00  0.5050505E-02 -0.3021574E-09  0.0000000E+00 -0.2581337E-04
  0.8434343E+00  0.0000000E+00  0.5050505E-02 -0.2900796E-09  0.0000000E+00 -0.2581396E-04
  0.8535354E+00  0.0000000E+00  0.5050505E-02 -0.2768241E-09  0.0000000E+00 -0.2581453E-04
  0.8636364E+00  0.0000000E+00  0.5050505E-02 -0.2624672E-09  0.0000000E+00 -0.2581507E-04
  0.8737374E+00  0.0000000E+00  0.5050505E-02 -0.2470860E-09  0.0000000E+00 -0.2581558E-04
  0.8838384E+00  0.0000000E+00  0.5050505E-02 -0.2307586E-09  0.0000000E+00 -0.2581606E-04
  0.8939394E+00  0.0000000E+00  0.5050505E-02 -0.2135633E-09  0.0000000E+00 -0.2581651E-04
  0.9040404E+00  0.0000000E+00  0.5050505E-02 -0.1955783E-09  0.0000000E+00 -0.2581692E-04
  0.9141414E+00  0.0000000E+00  0.5050505E-02 -0.1768816E-09  0.0000000E+00 -0.2581729E-04
  0.9242424E+00  0.0000000E+00  0.5050505E-02 -0.1575507E-09  0.0000000E+00 -0.2581763E-04
  0.9343435E+00  0.0000000E+00  0.5050505E-02 -0.1376626E-09  0.0000000E+00 -0.2581792E-04
  0.9444444E+00  0.0000000E+00  0.5050505E-02 -0.1172935E-09  0.0000000E+00 -0.2581818E-04
  0.9545454E+00  0.0000000E+00  0.5050505E-02 -0.9651892E-10  0.0000000E+00 -0.2581839E-04
  0.9646465E+00  0.0000000E+00  0.5050505E-02 -0.7541380E-10  0.0000000E+00 -0.2581856E-04
  0.9747475E+00  0.0000000E+00  0.5050505E-02 -0.5405261E-10  0.0000000E+00 -0.2581869E-04
  0.9848485E+00  0.0000000E+00  0.5050505E-02 -0.3250974E-10  0.0000000E+00 -0.2581878E-04
  0.9974747E+00  0.0000000E+00  0.5050505E-02 -0.1086038E-10  0.0000000E+00 -0.2581882E-04
  0.5050505E-02  0.0000000E+00  0.1515152E-01  0.2758320E-10  0.0000000E+00 -0.2575736E-04
  0.1515152E-01  0.0000000E+00  0.1515152E-01  0.8278750E-10  0.0000000E+00 -0.2575732E-04
  0.2525252E-01  0.0000000E+00  0.1515152E-01  0.1378930E-09  0.0000000E+00 -0.2575725E-04
  0.3535353E-01  0.0000000E+00  0.1515152E-01  0.1928058E-09  0.0000000E+00 -0.2575714E-04
  0.4545455E-01  0.0000000E+00  0.1515152E-01  0.2474566E-09  0.0000000E+00 -0.2575699E-04
  0.5555556E-01  0.0000000E+00  0.1515152E-01  0.3017657E-09  0.0000000E+00 -0.2575680E-04
  0.6565657E-01  0.0000000E+00  0.1515152E-01  0.3556503E-09  0.0000000E+00 -0.2575658E-04
  0.7575758E-01  0.0000000E+00  0.1515152E-01  0.4090196E-09  0.0000000E+00 -0.2575632E-04
  0.8585858E-01  0.0000000E+00  0.1515152E-01  0.4617774E-09  0.0000000E+00 -0.2575603E-04
  0.9595960E-01  0.0000000E+00  0.1515152E-01  0.5138213E-09  0.0000000E+00 -0.2575570E-04
  0.1060606E+00  0.0000000E+00  0.1515152E-01  0.5650410E-09  0.0000000E+00 -0.2575533E-04
  0.1161616E+00  0.0000000E+00  0.1515152E-01  0.6153179E-09  0.0000000E+00 -0.2575494E-04
  0.1262626E+00  0.0000000E+00  0.1515152E-01  0.6645250E-09  0.0000000E+00 -0.2575450E-04
  0.1363636E+00  0.0000000E+00  0.1515152E-01  0.7125265E-09  0.0000000E+00 -0.2575404E-04
  0.1464646E+00  0.0000000E+00  0.1515152E-01  0.7591781E-09  0.0000000E+00 -0.2575354E-04
  0.1565657E+00  0.0000000E+00  0.1515152E-01  0.8043265E-09  0.0000000E+00 -0.2575301E-04
  0.1666667E+00  0.0000000E+00  0.1515152E-01  0.8478094E-09  0.0000000E+00 -0.2575246E-04
  0.1767677E+00  0.0000000E+00  0.1515152E-01  0.8894564E-09  0.0000000E+00 -0.2575187E-04
  0.1868687E+00  0.0000000E+00  0.1515152E-01  0.9290891E-09  0.0000000E+00 -0.2575126E-04
  0.1969697E+00  0.0000000E+00  0.1515152E-01  0.9665223E-09  0.0000000E+00 -0.2575062E-04
  0.2070707E+00  0.0000000E+00  0.1515152E-01  0.1001564E-08  0.0000000E+00 -0.2574995E-04
  0.2171717E+00  0.0000000E+00  0.1515152E-01  0.1034019E-08  0.0000000E+00 -0.2574926E-04
  0.2272727E+00  0.0000000E+00  0.1515152E-01  0.1063685E-08  0.0000000E+00 -0.2574855E-04
  0.2373737E+00  0.0000000E+00  0.1515152E-01  0.1090361E-08  0.0000000E+00 -0.2574783E-04
  0.2474747E+00  0.0000000E+00  0.1515152E-01  0.1113843E-08  0.0000000E+00 -0.2574708E-04
  0.2575758E+00  0.0000000E+00  0.1515152E-01  0.1133931E-08  0.0000000E+00 -0.2574632E-04
  0.2676768E+00  0.0000000E+00  0.1515152E-01  0.1150426E-08  0.0000000E+00 -0.2574555E-04
  0.2777778E+00  0.0000000E+00  0.1515152E-01  0.1163136E-08  0.0000000E+00 -0.2574477E-04
  0.2878788E+00  0.0000000E+00  0.1515152E-01  0.1171877E-08  0.0000000E+00 -0.2574398E-04
  0.2979798E+00  0.0000000E+00  0.1515152E-01  0.1176476E-08  0.0000000E+00 -0.2574319E-04
  0.3080808E+00  0.0000000E+00  0.1515152E-01  0.1176774E-08  0.0000000E+00 -0.2574239E-04
  0.3181818E+00  0.0000000E+00  0.1515152E-01  0.1172627E-08  0.0000000E+00 -0.2574160E-04
  0.3282828E+00  0.0000000E+00  0.1515152E-01  0.1163910E-08  0.0000000E+00 -0.2574081E-04
  0.3383838E+00  0.0000000E+00  0.1515152E-01  0.1150520E-08  0.0000000E+00 -0.2574002E-04
  0.3484848E+00  0.0000000E+00  0.1515152E-01  0.1132377E-08  0.0000000E+00 -0.2573925E-04
  0.3585859E+00  0.0000000E+00  0.1515152E-01  0.1109427E-08  0.0000000E+00 -0.2573849E-04
  0.3686869E+00  0.0000000E+00  0.1515152E-01  0.1081647E-08  0.0000000E+00 -0.2573775E-04
  0.3787879E+00  0.0000000E+00  0.1515152E-01  0.1049043E-08  0.0000000E+00 -0.2573703E-04
  0.3888889E+00  0.0000000E+00  0.1515152E-01  0.1011655E-08  0.0000000E+00 -0.2573634E-04
  0.3989899E+00  0.0000000E+00  0.1515152E-01  0.9695557E-09  0.0000000E+00 -0.2573566E-04
  0.4090909E+00  0.0000000E+00  0.1515152E-01  0.9228540E-09  0.0000000E+00 -0.2573502E-04
  0.4191919E+00  0.0000000E+00  0.1515152E-01  0.8716951E-09  0.0000000E+00 -0.2573442E-04
  0.4292929E+00  0.0000000E+00  0.1515152E-01  0.8162603E-09  0.0000000E+00 -0.2573385E-04
  0.4393939E+00  0.0000000E+00  0.1515152E-01  0.7567673E-09  0.0000000E+00 -0.2573331E-04
  0.4494950E+00  0.0000000E+00  0.1515152E-01  0.6934695E-09  0.0000000E+00 -0.2573282E-04
  0.4595959E+00  0.0000000E+00  0.1515152E-01  0.6266548E-09  0.0000000E+00 -0.2573238E-04
  0.4696970E+00  0.0000000E+00  0.1515152E-01  0.5566439E-09  0.0000000E+00 -0.2573198E-04
  0.4797980E+00  0.0000000E+00  0.1515152E-01  0.4837885E-09  0.0000000E+00 -0.2573162E-04
  0.4898990E+00  0.0000000E+00  0.1515152E-01  0.4084681E-09  0.0000000E+00 -0.2573132E-04
  0.5000000E+00  0.0000000E+00  0.1515152E-01  0.3310877E-09  0.0000000E+00 -0.2573107E-04
  0.5101010E+00  0.0000000E+00  0.1515152E-01  0.2520737E-09  0.0000000E+00 -0.2573087E-04
  0.5202020E+00  0.0000000E+00  0.1515152E-01  0.1718704E-09  0.0000000E+00 -0.2573073E-04
  0.5303030E+00  0.0000000E+00  0.1515152E-01  0.9093597E-10  0.0000000E+00 -0.2573064E-04
  0.5404040E+00  0.0000000E+00  0.1515152E-01  0.9737773E-11  0.0000000E+00 -0.2573061E-04
  0.5505050E+00  0.0000000E+00  0.1515152E-01 -0.7125140E-10  0.0000000E+00 -0.2573063E-04
  0.5606061E+00  0.0000000E+00  0.1515152E-01 -0.1515592E-09  0.0000000E+00 -0.2573070E-04
  0.5707071E+00  0.0000000E+00  0.1515152E-01 -0.2307176E-09  0.0000000E+00 -0.2573083E-04
  0.5808081E+00  0.0000000E+00  0.1515152E-01 -0.3082665E-09  0.0000000E+00 -0.2573102E-04
  0.5909091E+00  0.0000000E+00  0.1515152E-01 -0.3837599E-09  0.0000000E+00 -0.2573125E-04
  0.6010101E+00  0.0000000E+00  0.1515152E-01 -0.4567684E-09  0.0000000E+00 -0.2573154E-04
  0.6111111E+00  0.0000000E+00  0.1515152E-01 -0.5268847E-09  0.0000000E+00 -0.2573187E-04
  0.6212121E+00  0.0000000E+00  0.1515152E-01 -0.5937256E-09  0.0000000E+00 -0.2573225E-04
  0.6313131E+00  0.0000000E+00  0.1515152E-01 -0.6569360E-09  0.0000000E+00 -0.2573267E-04
  0.6414142E+00  0.0000000E+00  0.1515152E-01 -0.7161913E-09  0.0000000E+00 -0.2573314E-04
  0.6515151E+00  0.0000000E+00  0.1515152E-01 -0.7711996E-09  0.0000000E+00 -0.2573364E-04
  0.6616161E+00  0.0000000E+00  0.1515152E-01 -0.8217036E-09  0.0000000E+00 -0.2573418E-04
  0.6717172E+00  0.0000000E+00  0.1515152E-01 -0.8674817E-09  0.0000000E+00 -0.2573475E-04
  0.6818182E+00  0.0000000E+00  0.1515152E-01 -0.9083488E-09  0.0000000E+00 -0.2573535E-04
  0.6919192E+00  0.0000000E+00  0.1515152E-01 -0.9441566E-09  0.0000000E+00 -0.2573598E-04
  0.7020202E+00  0.0000000E+00  0.1515152E-01 -0.9747933E-09  0.0000000E+00 -0.2573663E-04
  0.7121212E+00  0.0000000E+00  0.1515152E-01 -0.1000183E-08  0.0000000E+00 -0.2573730E-04
  0.7222222E+00  0.0000000E+00  0.1515152E-01 -0.1020284E-08  0.0000000E+00 -0.2573798E-04
  0.7323232E+00  0.0000000E+00  0.1515152E-01 -0.1035090E-08  0.0000000E+00 -0.2573868E-04
  0.7424242E+00  0.0000000E+00  0.1515152E-01 -0.1044625E-08  0.0000000E+00 -0.2573938E-04
  0.7525253E+00  0.0000000E+00  0.1515152E-01 -0.1048943E-08  0.0000000E+00 -0.2574009E-04
  0.7626263E+00  0.0000000E+00  0.1515152E-01 -0.1048126E-08  0.0000000E+00 -0.2574080E-04
  0.7727273E+00  0.0000000E+00  0.1515152E-01 -0.1042281E-08  0.0000000E+00 -0.2574150E-04
  0.7828283E+00  0.0000000E+00  0.1515152E-01 -0.1031539E-08  0.0000000E+00 -0.2574221E-04
  0.7929293E+00  0.0000000E+00  0.1515152E-01 -0.1016050E-08  0.0000000E+00 -0.2574290E-04
  0.8030303E+00  0.0000000E+00  0.1515152E-01 -0.9959845E-09  0.0000000E+00 -0.2574358E-04
  0.8131313E+00  0.0000000E+00  0.1515152E-01 -0.9715257E-09  0.0000000E+00 -0.2574424E-04
  0.8232324E+00  0.0000000E+00  0.1515152E-01 -0.9428718E-09  0.0000000E+00 -0.2574489E-04
  0.8333333E+00  0.0000000E+00  0.1515152E-01 -0.9102317E-09  0.0000000E+00 -0.2574552E-04
  0.8434343E+00  0.0000000E+00  0.1515152E-01 -0.8738228E-09  0.0000000E+00 -0.2574612E-04
  0.8535354E+00  0.0000000E+00  0.1515152E-01 -0.8338697E-09  0.0000000E+00 -0.2574670E-04
  0.8636364E+00  0.0000000E+00  0.1515152E-01 -0.7906019E-09  0.0000000E+00 -0.2574725E-04
  0.8737374E+00  0.0000000E+00  0.1515152E-01 -0.7442523E-09  0.0000000E+00 -0.2574777E-04
  0.8838384E+00  0.0000000E+00  0.1515152E-01 -0.6950559E-09  0.0000000E+00 -0.2574825E-04
  0.8939394E+00  0.0000000E+00  0.1515152E-01 -0.6432487E-09  0.0000000E+00 -0.2574871E-04
  0.9040404E+00  0.0000000E+00  0.1515152E-01 -0.5890662E-09  0.0000000E+00 -0.2574912E-04
  0.9141414E+00  0.0000000E+00  0.1515152E-01 -0.5327435E-09  0.0000000E+00 -0.2574950E-04
  0.9242424E+00  0.0000000E+00  0.1515152E-01 -0.4745137E-09  0.0000000E+00 -0.2574984E-04
  0.9343435E+00  0.0000000E+00  0.1515152E-01 -0.4146083E-09  0.0000000E+00 -0.2575014E-04
  0.9444444E+00  0.0000000E+00  0.1515152E-01 -0.3532566E-09  0.0000000E+00 -0.2575040E-04
  0.9545454E+00  0.0000000E+00  0.1515152E-01 -0.2906858E-09  0.0000000E+00 -0.2575062E-04
  0.9646465E+00  0.0000000E+00  0.1515152E-01 -0.2271212E-09  0.0000000E+00 -0.2575079E-04
  0.9747475E+00  0.0000000E+00  0.1515152E-01 -0.1627865E-09  0.0000000E+00 -0.2575093E-04
  0.9848485E+00  0.0000000E+00  0.1515152E-01 -0.9790433E-10  0.0000000E+00 -0.2575101E-04
  0.9974747E+00  0.0000000E+00  0.1515152E-01 -0.3269805E-10  0.0000000E+00 -0.2575106E-04
  0.5050505E-02  0.0000000E+00  0.2525252E-01  0.4630424E-10  0.0000000E+00 -0.2562250E-04
  0.1515152E-01  0.0000000E+00  0.2525252E-01  0.1389438E-09  0.0000000E+00 -0.2562246E-04
  0.2525252E-01  0.0000000E+00  0.2525252E-01  0.2314213E-09  0.0000000E+00 -0.2562239E-04
  0.3535353E-01  0.0000000E+00  0.2525252E-01  0.3235812E-09  0.0000000E+00 -0.2562227E-04
  0.4545455E-01  0.0000000E+00  0.2525252E-01  0.4153069E-09  0.0000000E+00 -0.2562212E-04
  0.5555556E-01  0.0000000E+00  0.2525252E-01  0.5064652E-09  0.0000000E+00 -0.2562193E-04
  0.6565657E-01  0.0000000E+00  0.2525252E-01  0.5969177E-09  0.0000000E+00 -0.2562170E-04
  0.7575758E-01  0.0000000E+00  0.2525252E-01  0.6865135E-09  0.0000000E+00 -0.2562144E-04
  0.8585858E-01  0.0000000E+00  0.2525252E-01  0.7750922E-09  0.0000000E+00 -0.2562114E-04
  0.9595960E-01  0.0000000E+00  0.2525252E-01  0.8624826E-09  0.0000000E+00 -0.2562080E-04
  0.1060606E+00  0.0000000E+00  0.2525252E-01  0.9485004E-09  0.0000000E+00 -0.2562043E-04
  0.1161616E+00  0.0000000E+00  0.2525252E-01  0.1032947E-08  0.0000000E+00 -0.2562002E-04
  0.1262626E+00  0.0000000E+00  0.2525252E-01  0.1115610E-08  0.0000000E+00 -0.2561957E-04
  0.1363636E+00  0.0000000E+00  0.2525252E-01  0.1196263E-08  0.0000000E+00 -0.2561910E-04
  0.1464646E+00  0.0000000E+00  0.2525252E-01  0.1274662E-08  0.0000000E+00 -0.2561859E-04
  0.1565657E+00  0.0000000E+00  0.2525252E-01  0.1350551E-08  0.0000000E+00 -0.2561805E-04
  0.1666667E+00  0.0000000E+00  0.2525252E-01  0.1423657E-08  0.0000000E+00 -0.2561747E-04
  0.1767677E+00  0.0000000E+00  0.2525252E-01  0.1493694E-08  0.0000000E+00 -0.2561687E-04
  0.1868687E+00  0.0000000E+00  0.2525252E-01  0.1560363E-08  0.0000000E+00 -0.2561624E-04
  0.1969697E+00  0.0000000E+00  0.2525252E-01  0.1623350E-08  0.0000000E+00 -0.2561558E-04
  0.2070707E+00  0.0000000E+00  0.2525252E-01  0.1682335E-08  0.0000000E+00 -0.2561490E-04
  0.2171717E+00  0.0000000E+00  0.2525252E-01  0.1736985E-08  0.0000000E+00 -0.2561419E-04
  0.2272727E+00  0.0000000E+00  0.2525252E-01  0.1786964E-08  0.0000000E+00 -0.2561346E-04
  0.2373737E+00  0.0000000E+00  0.2525252E-01  0.1831929E-08  0.0000000E+00 -0.2561272E-04
  0.2474747E+00  0.0000000E+00  0.2525252E-01  0.1871538E-08  0.0000000E+00 -0.2561195E-04
  0.2575758E+00  0.0000000E+00  0.2525252E-01  0.1905451E-08  0.0000000E+00 -0.2561117E-04
  0.2676768E+00  0.0000000E+00  0.2525252E-01  0.1933334E-08  0.0000000E+00 -0.2561038E-04
  0.2777778E+00  0.0000000E+00  0.2525252E-01  0.1954861E-08  0.0000000E+00 -0.2560957E-04
  0.2878788E+00  0.0000000E+00  0.2525252E-01  0.1969722E-08  0.0000000E+00 -0.2560876E-04
  0.2979798E+00  0.0000000E+00  0.2525252E-01  0.1977623E-08  0.0000000E+00 -0.2560794E-04
  0.3080808E+00  0.0000000E+00  0.2525252E-01  0.1978294E-08  0.0000000E+00 -0.2560712E-04
  0.3181818E+00  0.0000000E+00  0.2525252E-01  0.1971490E-08  0.0000000E+00 -0.2560631E-04
  0.3282828E+00  0.0000000E+00  0.2525252E-01  0.1956999E-08  0.0000000E+00 -0.2560549E-04
  0.3383838E+00  0.0000000E+00  0.2525252E-01  0.1934644E-08  0.0000000E+00 -0.2560468E-04
  0.3484848E+00  0.0000000E+00  0.2525252E-01  0.1904290E-08  0.0000000E+00 -0.2560389E-04
  0.3585859E+00  0.0000000E+00  0.2525252E-01  0.1865843E-08  0.0000000E+00 -0.2560311E-04
  0.3686869E+00  0.0000000E+00  0.2525252E-01  0.1819262E-08  0.0000000E+00 -0.2560234E-04
  0.3787879E+00  0.0000000E+00  0.2525252E-01  0.1764555E-08  0.0000000E+00 -0.2560160E-04
  0.3888889E+00  0.0000000E+00  0.2525252E-01  0.1701786E-08  0.0000000E+00 -0.2560088E-04
  0.3989899E+00  0.0000000E+00  0.2525252E-01  0.1631076E-08  0.0000000E+00 -0.2560019E-04
  0.4090909E+00  0.0000000E+00  0.2525252E-01  0.1552608E-08  0.0000000E+00 -0.2559953E-04
  0.4191919E+00  0.0000000E+00  0.2525252E-01  0.1466624E-08  0.0000000E+00 -0.2559890E-04
  0.4292929E+00  0.0000000E+00  0.2525252E-01  0.1373429E-08  0.0000000E+00 -0.2559831E-04
  0.4393939E+00  0.0000000E+00  0.2525252E-01  0.1273387E-08  0.0000000E+00 -0.2559776E-04
  0.4494950E+00  0.0000000E+00  0.2525252E-01  0.1166925E-08  0.0000000E+00 -0.2559726E-04
  0.4595959E+00  0.0000000E+00  0.2525252E-01  0.1054529E-08  0.0000000E+00 -0.2559680E-04
  0.4696970E+00  0.0000000E+00  0.2525252E-01  0.9367370E-09  0.0000000E+00 -0.2559638E-04
  0.4797980E+00  0.0000000E+00  0.2525252E-01  0.8141427E-09  0.0000000E+00 -0.2559602E-04
  0.4898990E+00  0.0000000E+00  0.2525252E-01  0.6873860E-09  0.0000000E+00 -0.2559571E-04
  0.5000000E+00  0.0000000E+00  0.2525252E-01  0.5571497E-09  0.0000000E+00 -0.2559545E-04
  0.5101010E+00  0.0000000E+00  0.2525252E-01  0.4241533E-09  0.0000000E+00 -0.2559524E-04
  0.5202020E+00  0.0000000E+00  0.2525252E-01  0.2891465E-09  0.0000000E+00 -0.2559510E-04
  0.5303030E+00  0.0000000E+00  0.2525252E-01  0.1529025E-09  0.0000000E+00 -0.2559500E-04
  0.5404040E+00  0.0000000E+00  0.2525252E-01  0.1621034E-10  0.0000000E+00 -0.2559497E-04
  0.5505050E+00  0.0000000E+00  0.2525252E-01 -0.1201322E-09  0.0000000E+00 -0.2559499E-04
  0.5606061E+00  0.0000000E+00  0.2525252E-01 -0.2553277E-09  0.0000000E+00 -0.2559507E-04
  0.5707071E+00  0.0000000E+00  0.2525252E-01 -0.3885859E-09  0.0000000E+00 -0.2559520E-04
  0.5808081E+00  0.0000000E+00  0.2525252E-01 -0.5191307E-09  0.0000000E+00 -0.2559539E-04
  0.5909091E+00  0.0000000E+00  0.2525252E-01 -0.6462092E-09  0.0000000E+00 -0.2559564E-04
  0.6010101E+00  0.0000000E+00  0.2525252E-01 -0.7690971E-09  0.0000000E+00 -0.2559593E-04
  0.6111111E+00  0.0000000E+00  0.2525252E-01 -0.8871068E-09  0.0000000E+00 -0.2559627E-04
  0.6212121E+00  0.0000000E+00  0.2525252E-01 -0.9995927E-09  0.0000000E+00 -0.2559667E-04
  0.6313131E+00  0.0000000E+00  0.2525252E-01 -0.1105956E-08  0.0000000E+00 -0.2559710E-04
  0.6414142E+00  0.0000000E+00  0.2525252E-01 -0.1205651E-08  0.0000000E+00 -0.2559758E-04
  0.6515151E+00  0.0000000E+00  0.2525252E-01 -0.1298184E-08  0.0000000E+00 -0.2559811E-04
  0.6616161E+00  0.0000000E+00  0.2525252E-01 -0.1383124E-08  0.0000000E+00 -0.2559866E-04
  0.6717172E+00  0.0000000E+00  0.2525252E-01 -0.1460098E-08  0.0000000E+00 -0.2559925E-04
  0.6818182E+00  0.0000000E+00  0.2525252E-01 -0.1528794E-08  0.0000000E+00 -0.2559987E-04
  0.6919192E+00  0.0000000E+00  0.2525252E-01 -0.1588966E-08  0.0000000E+00 -0.2560052E-04
  0.7020202E+00  0.0000000E+00  0.2525252E-01 -0.1640426E-08  0.0000000E+00 -0.2560119E-04
  0.7121212E+00  0.0000000E+00  0.2525252E-01 -0.1683047E-08  0.0000000E+00 -0.2560188E-04
  0.7222222E+00  0.0000000E+00  0.2525252E-01 -0.1716764E-08  0.0000000E+00 -0.2560259E-04
  0.7323232E+00  0.0000000E+00  0.2525252E-01 -0.1741564E-08  0.0000000E+00 -0.2560331E-04
  0.7424242E+00  0.0000000E+00  0.2525252E-01 -0.1757491E-08  0.0000000E+00 -0.2560403E-04
  0.7525253E+00  0.0000000E+00  0.2525252E-01 -0.1764639E-08  0.0000000E+00 -0.2560476E-04
  0.7626263E+00  0.0000000E+00  0.2525252E-01 -0.1763148E-08  0.0000000E+00 -0.2560550E-04
  0.7727273E+00  0.0000000E+00  0.2525252E-01 -0.1753200E-08  0.0000000E+00 -0.2560623E-04
  0.7828283E+00  0.0000000E+00  0.2525252E-01 -0.1735017E-08  0.0000000E+00 -0.2560695E-04
  0.7929293E+00  0.0000000E+00  0.2525252E-01 -0.1708855E-08  0.0000000E+00 -0.2560766E-04
  0.8030303E+00  0.0000000E+00  0.2525252E-01 -0.1675000E-08  0.0000000E+00 -0.2560836E-04
  0.8131313E+00  0.0000000E+00  0.2525252E-01 -0.1633764E-08  0.0000000E+00 -0.2560905E-04
  0.8232324E+00  0.0000000E+00  0.2525252E-01 -0.1585481E-08  0.0000000E+00 -0.2560972E-04
  0.8333333E+00  0.0000000E+00  0.2525252E-01 -0.1530504E-08  0.0000000E+00 -0.2561036E-04
  0.8434343E+00  0.0000000E+00  0.2525252E-01 -0.1469201E-08  0.0000000E+00 -0.2561099E-04
  0.8535354E+00  0.0000000E+00  0.2525252E-01 -0.1401948E-08  0.0000000E+00 -0.2561158E-04
  0.8636364E+00  0.0000000E+00  0.2525252E-01 -0.1329134E-08  0.0000000E+00 -0.2561215E-04
  0.8737374E+00  0.0000000E+00  0.2525252E-01 -0.1251150E-08  0.0000000E+00 -0.2561268E-04
  0.8838384E+00  0.0000000E+00  0.2525252E-01 -0.1168392E-08  0.0000000E+00 -0.2561318E-04
  0.8939394E+00  0.0000000E+00  0.2525252E-01 -0.1081257E-08  0.0000000E+00 -0.2561365E-04
  0.9040404E+00  0.0000000E+00  0.2525252E-01 -0.9901399E-09  0.0000000E+00 -0.2561408E-04
  0.9141414E+00  0.0000000E+00  0.2525252E-01 -0.8954360E-09  0.0000000E+00 -0.2561447E-04
  0.9242424E+00  0.0000000E+00  0.2525252E-01 -0.7975368E-09  0.0000000E+00 -0.2561482E-04
  0.9343435E+00  0.0000000E+00  0.2525252E-01 -0.6968305E-09  0.0000000E+00 -0.2561513E-04
  0.9444444E+00  0.0000000E+00  0.2525252E-01 -0.5937016E-09  0.0000000E+00 -0.2561539E-04
  0.9545454E+00  0.0000000E+00  0.2525252E-01 -0.4885310E-09  0.0000000E+00 -0.2561562E-04
  0.9646465E+00  0.0000000E+00  0.2525252E-01 -0.3816958E-09  0.0000000E+00 -0.2561580E-04
  0.9747475E+00  0.0000000E+00  0.2525252E-01 -0.2735703E-09  0.0000000E+00 -0.2561593E-04
  0.9848485E+00  0.0000000E+00  0.2525252E-01 -0.1645263E-09  0.0000000E+00 -0.2561602E-04
  0.9974747E+00  0.0000000E+00  0.2525252E-01 -0.5493383E-10  0.0000000E+00 -0.2561607E-04
  0.5050505E-02  0.0000000E+00  0.3535353E-01  0.6555014E-10  0.0000000E+00 -0.2542134E-04
  0.1515152E-01  0.0000000E+00  0.3535353E-01  0.1966678E-09  0.0000000E+00 -0.2542130E-04
  0.2525252E-01  0.0000000E+00  0.3535353E-01  0.3275589E-09  0.0000000E+00 -0.2542122E-04
  0.3535353E-01  0.0000000E+00  0.3535353E-01  0.4580098E-09  0.0000000E+00 -0.2542110E-04
  0.4545455E-01  0.0000000E+00  0.3535353E-01  0.5878565E-09  0.0000000E+00 -0.2542094E-04
  0.5555556E-01  0.0000000E+00  0.3535353E-01  0.7169125E-09  0.0000000E+00 -0.2542075E-04
  0.6565657E-01  0.0000000E+00  0.3535353E-01  0.8449841E-09  0.0000000E+00 -0.2542051E-04
  0.7575758E-01  0.0000000E+00  0.3535353E-01  0.9718599E-09  0.0000000E+00 -0.2542024E-04
  0.8585858E-01  0.0000000E+00  0.3535353E-01  0.1097315E-08  0.0000000E+00 -0.2541992E-04
  0.9595960E-01  0.0000000E+00  0.3535353E-01  0.1221109E-08  0.0000000E+00 -0.2541957E-04
  0.1060606E+00  0.0000000E+00  0.3535353E-01  0.1342983E-08  0.0000000E+00 -0.2541919E-04
  0.1161616E+00  0.0000000E+00  0.3535353E-01  0.1462657E-08  0.0000000E+00 -0.2541876E-04
  0.1262626E+00  0.0000000E+00  0.3535353E-01  0.1579831E-08  0.0000000E+00 -0.2541830E-04
  0.1363636E+00  0.0000000E+00  0.3535353E-01  0.1694186E-08  0.0000000E+00 -0.2541781E-04
  0.1464646E+00  0.0000000E+00  0.3535353E-01  0.1805377E-08  0.0000000E+00 -0.2541728E-04
  0.1565657E+00  0.0000000E+00  0.3535353E-01  0.1913042E-08  0.0000000E+00 -0.2541672E-04
  0.1666667E+00  0.0000000E+00  0.3535353E-01  0.2016795E-08  0.0000000E+00 -0.2541612E-04
  0.1767677E+00  0.0000000E+00  0.3535353E-01  0.2116230E-08  0.0000000E+00 -0.2541549E-04
  0.1868687E+00  0.0000000E+00  0.3535353E-01  0.2210920E-08  0.0000000E+00 -0.2541484E-04
  0.1969697E+00  0.0000000E+00  0.3535353E-01  0.2300424E-08  0.0000000E+00 -0.2541416E-04
  0.2070707E+00  0.0000000E+00  0.3535353E-01  0.2384283E-08  0.0000000E+00 -0.2541345E-04
  0.2171717E+00  0.0000000E+00  0.3535353E-01  0.2462024E-08  0.0000000E+00 -0.2541271E-04
  0.2272727E+00  0.0000000E+00  0.3535353E-01  0.2533169E-08  0.0000000E+00 -0.2541195E-04
  0.2373737E+00  0.0000000E+00  0.3535353E-01  0.2597229E-08  0.0000000E+00 -0.2541117E-04
  0.2474747E+00  0.0000000E+00  0.3535353E-01  0.2653716E-08  0.0000000E+00 -0.2541038E-04
  0.2575758E+00  0.0000000E+00  0.3535353E-01  0.2702144E-08  0.0000000E+00 -0.2540956E-04
  0.2676768E+00  0.0000000E+00  0.3535353E-01  0.2742034E-08  0.0000000E+00 -0.2540874E-04
  0.2777778E+00  0.0000000E+00  0.3535353E-01  0.2772922E-08  0.0000000E+00 -0.2540790E-04
  0.2878788E+00  0.0000000E+00  0.3535353E-01  0.2794361E-08  0.0000000E+00 -0.2540705E-04
  0.2979798E+00  0.0000000E+00  0.3535353E-01  0.2805931E-08  0.0000000E+00 -0.2540620E-04