title = "dataset water"
variables = "x", "y", "z", "vx", "vy", "vz"
zone t = "velocities, solution time =  5.300E+01 days        " i =   99, j =   99, k =    1,  f=point
  0.5050505E-02  0.0000000E+00  0.5050505E-02  0.6923462E-07  0.0000000E+00  0.1056587E-03
  0.1515152E-01  0.0000000E+00  0.5050505E-02  0.2079163E-06  0.0000000E+00  0.1059403E-03
  0.2525252E-01  0.0000000E+00  0.5050505E-02  0.3472413E-06  0.0000000E+00  0.1065043E-03
  0.3535353E-01  0.0000000E+00  0.5050505E-02  0.4876501E-06  0.0000000E+00  0.1073526E-03
  0.4545455E-01  0.0000000E+00  0.5050505E-02  0.6295946E-06  0.0000000E+00  0.1084879E-03
  0.5555556E-01  0.0000000E+00  0.5050505E-02  0.7735422E-06  0.0000000E+00  0.1099139E-03
  0.6565657E-01  0.0000000E+00  0.5050505E-02  0.9199797E-06  0.0000000E+00  0.1116354E-03
  0.7575758E-01  0.0000000E+00  0.5050505E-02  0.1069417E-05  0.0000000E+00  0.1136580E-03
  0.8585858E-01  0.0000000E+00  0.5050505E-02  0.1222395E-05  0.0000000E+00  0.1159887E-03
  0.9595960E-01  0.0000000E+00  0.5050505E-02  0.1379485E-05  0.0000000E+00  0.1186354E-03
  0.1060606E+00  0.0000000E+00  0.5050505E-02  0.1541305E-05  0.0000000E+00  0.1216076E-03
  0.1161616E+00  0.0000000E+00  0.5050505E-02  0.1708517E-05  0.0000000E+00  0.1249157E-03
  0.1262626E+00  0.0000000E+00  0.5050505E-02  0.1881843E-05  0.0000000E+00  0.1285719E-03
  0.1363636E+00  0.0000000E+00  0.5050505E-02  0.2062074E-05  0.0000000E+00  0.1325900E-03
  0.1464646E+00  0.0000000E+00  0.5050505E-02  0.2250081E-05  0.0000000E+00  0.1369854E-03
  0.1565657E+00  0.0000000E+00  0.5050505E-02  0.2446830E-05  0.0000000E+00  0.1417756E-03
  0.1666667E+00  0.0000000E+00  0.5050505E-02  0.2653405E-05  0.0000000E+00  0.1469801E-03
  0.1767677E+00  0.0000000E+00  0.5050505E-02  0.2871026E-05  0.0000000E+00  0.1526211E-03
  0.1868687E+00  0.0000000E+00  0.5050505E-02  0.3101078E-05  0.0000000E+00  0.1587234E-03
  0.1969697E+00  0.0000000E+00  0.5050505E-02  0.3345150E-05  0.0000000E+00  0.1653150E-03
  0.2070707E+00  0.0000000E+00  0.5050505E-02  0.3605075E-05  0.0000000E+00  0.1724278E-03
  0.2171717E+00  0.0000000E+00  0.5050505E-02  0.3882988E-05  0.0000000E+00  0.1800975E-03
  0.2272727E+00  0.0000000E+00  0.5050505E-02  0.4181396E-05  0.0000000E+00  0.1883653E-03
  0.2373737E+00  0.0000000E+00  0.5050505E-02  0.4503268E-05  0.0000000E+00  0.1972780E-03
  0.2474747E+00  0.0000000E+00  0.5050505E-02  0.4852147E-05  0.0000000E+00  0.2068895E-03
  0.2575758E+00  0.0000000E+00  0.5050505E-02  0.5232297E-05  0.0000000E+00  0.2172621E-03
  0.2676768E+00  0.0000000E+00  0.5050505E-02  0.5648894E-05  0.0000000E+00  0.2284683E-03
  0.2777778E+00  0.0000000E+00  0.5050505E-02  0.6108269E-05  0.0000000E+00  0.2405932E-03
  0.2878788E+00  0.0000000E+00  0.5050505E-02  0.6618230E-05  0.0000000E+00  0.2537371E-03
  0.2979798E+00  0.0000000E+00  0.5050505E-02  0.7188492E-05  0.0000000E+00  0.2680194E-03
  0.3080808E+00  0.0000000E+00  0.5050505E-02  0.7831240E-05  0.0000000E+00  0.2835835E-03
  0.3181818E+00  0.0000000E+00  0.5050505E-02  0.8561910E-05  0.0000000E+00  0.3006029E-03
  0.3282828E+00  0.0000000E+00  0.5050505E-02  0.9400229E-05  0.0000000E+00  0.3192899E-03
  0.3383838E+00  0.0000000E+00  0.5050505E-02  0.1037164E-04  0.0000000E+00  0.3399063E-03
  0.3484848E+00  0.0000000E+00  0.5050505E-02  0.1150922E-04  0.0000000E+00  0.3627789E-03
  0.3585859E+00  0.0000000E+00  0.5050505E-02  0.1285600E-04  0.0000000E+00  0.3883192E-03
  0.3686869E+00  0.0000000E+00  0.5050505E-02  0.1446717E-04  0.0000000E+00  0.4170490E-03
  0.3787879E+00  0.0000000E+00  0.5050505E-02  0.1640940E-04  0.0000000E+00  0.4496283E-03
  0.3888889E+00  0.0000000E+00  0.5050505E-02  0.1874767E-04  0.0000000E+00  0.4868707E-03
  0.3989899E+00  0.0000000E+00  0.5050505E-02  0.2148875E-04  0.0000000E+00  0.5296860E-03
  0.4090909E+00  0.0000000E+00  0.5050505E-02  0.2439784E-04  0.0000000E+00  0.5787656E-03
  0.4191919E+00  0.0000000E+00  0.5050505E-02  0.2654449E-04  0.0000000E+00  0.6335717E-03
  0.4292929E+00  0.0000000E+00  0.5050505E-02  0.2597523E-04  0.0000000E+00  0.6904365E-03
  0.4393939E+00  0.0000000E+00  0.5050505E-02  0.2638114E-04  0.0000000E+00  0.7475136E-03
  0.4494950E+00  0.0000000E+00  0.5050505E-02  0.2771320E-04  0.0000000E+00  0.8068907E-03
  0.4595959E+00  0.0000000E+00  0.5050505E-02  0.2912601E-04  0.0000000E+00  0.8697223E-03
  0.4696970E+00  0.0000000E+00  0.5050505E-02  0.3086656E-04  0.0000000E+00  0.9365362E-03
  0.4797980E+00  0.0000000E+00  0.5050505E-02  0.3312092E-04  0.0000000E+00  0.1008366E-02
  0.4898990E+00  0.0000000E+00  0.5050505E-02  0.3540671E-04  0.0000000E+00  0.1085947E-02
  0.5000000E+00  0.0000000E+00  0.5050505E-02  0.3638915E-04  0.0000000E+00  0.1167964E-02
  0.5101010E+00  0.0000000E+00  0.5050505E-02  0.3558648E-04  0.0000000E+00  0.1250970E-02
  0.5202020E+00  0.0000000E+00  0.5050505E-02  0.3498918E-04  0.0000000E+00  0.1333155E-02
  0.5303030E+00  0.0000000E+00  0.5050505E-02  0.3778336E-04  0.0000000E+00  0.1418731E-02
  0.5404040E+00  0.0000000E+00  0.5050505E-02  0.4778655E-04  0.0000000E+00  0.1520401E-02
  0.5505050E+00  0.0000000E+00  0.5050505E-02  0.7744058E-04  0.0000000E+00  0.1671093E-02
  0.5606061E+00  0.0000000E+00  0.5050505E-02  0.1128978E-03  0.0000000E+00  0.1904245E-02
  0.5707071E+00  0.0000000E+00  0.5050505E-02 -0.1349299E-04  0.0000000E+00  0.2026601E-02
  0.5808081E+00  0.0000000E+00  0.5050505E-02 -0.1422838E-03  0.0000000E+00  0.1835706E-02
  0.5909091E+00  0.0000000E+00  0.5050505E-02 -0.5856485E-04  0.0000000E+00  0.1591584E-02
  0.6010101E+00  0.0000000E+00  0.5050505E-02 -0.7670131E-04  0.0000000E+00  0.1430957E-02
  0.6111111E+00  0.0000000E+00  0.5050505E-02 -0.4727656E-04  0.0000000E+00  0.1285773E-02
  0.6212121E+00  0.0000000E+00  0.5050505E-02 -0.3493160E-04  0.0000000E+00  0.1190643E-02
  0.6313131E+00  0.0000000E+00  0.5050505E-02 -0.3328319E-04  0.0000000E+00  0.1112470E-02
  0.6414142E+00  0.0000000E+00  0.5050505E-02 -0.3237911E-04  0.0000000E+00  0.1037882E-02
  0.6515151E+00  0.0000000E+00  0.5050505E-02 -0.3290106E-04  0.0000000E+00  0.9643733E-03
  0.6616161E+00  0.0000000E+00  0.5050505E-02 -0.3564177E-04  0.0000000E+00  0.8878953E-03
  0.6717172E+00  0.0000000E+00  0.5050505E-02 -0.3223096E-04  0.0000000E+00  0.8128051E-03
  0.6818182E+00  0.0000000E+00  0.5050505E-02 -0.2841937E-04  0.0000000E+00  0.7462321E-03
  0.6919192E+00  0.0000000E+00  0.5050505E-02 -0.2519183E-04  0.0000000E+00  0.6877954E-03
  0.7020202E+00  0.0000000E+00  0.5050505E-02 -0.2257313E-04  0.0000000E+00  0.6360533E-03
  0.7121212E+00  0.0000000E+00  0.5050505E-02 -0.2042598E-04  0.0000000E+00  0.5897323E-03
  0.7222222E+00  0.0000000E+00  0.5050505E-02 -0.1860576E-04  0.0000000E+00  0.5478960E-03
  0.7323232E+00  0.0000000E+00  0.5050505E-02 -0.1700155E-04  0.0000000E+00  0.5099041E-03
  0.7424242E+00  0.0000000E+00  0.5050505E-02 -0.1554589E-04  0.0000000E+00  0.4753212E-03
  0.7525253E+00  0.0000000E+00  0.5050505E-02 -0.1420530E-04  0.0000000E+00  0.4438291E-03
  0.7626263E+00  0.0000000E+00  0.5050505E-02 -0.1296573E-04  0.0000000E+00  0.4151673E-03
  0.7727273E+00  0.0000000E+00  0.5050505E-02 -0.1182137E-04  0.0000000E+00  0.3891024E-03
  0.7828283E+00  0.0000000E+00  0.5050505E-02 -0.1076841E-04  0.0000000E+00  0.3654161E-03
  0.7929293E+00  0.0000000E+00  0.5050505E-02 -0.9802499E-05  0.0000000E+00  0.3439026E-03
  0.8030303E+00  0.0000000E+00  0.5050505E-02 -0.8918178E-05  0.0000000E+00  0.3243704E-03
  0.8131313E+00  0.0000000E+00  0.5050505E-02 -0.8109088E-05  0.0000000E+00  0.3066432E-03
  0.8232324E+00  0.0000000E+00  0.5050505E-02 -0.7368426E-05  0.0000000E+00  0.2905608E-03
  0.8333333E+00  0.0000000E+00  0.5050505E-02 -0.6689341E-05  0.0000000E+00  0.2759794E-03
  0.8434343E+00  0.0000000E+00  0.5050505E-02 -0.6065219E-05  0.0000000E+00  0.2627710E-03
  0.8535354E+00  0.0000000E+00  0.5050505E-02 -0.5489853E-05  0.0000000E+00  0.2508221E-03
  0.8636364E+00  0.0000000E+00  0.5050505E-02 -0.4957529E-05  0.0000000E+00  0.2400328E-03
  0.8737374E+00  0.0000000E+00  0.5050505E-02 -0.4463051E-05  0.0000000E+00  0.2303154E-03
  0.8838384E+00  0.0000000E+00  0.5050505E-02 -0.4001725E-05  0.0000000E+00  0.2215932E-03
  0.8939394E+00  0.0000000E+00  0.5050505E-02 -0.3569328E-05  0.0000000E+00  0.2137993E-03
  0.9040404E+00  0.0000000E+00  0.5050505E-02 -0.3162061E-05  0.0000000E+00  0.2068755E-03
  0.9141414E+00  0.0000000E+00  0.5050505E-02 -0.2776504E-05  0.0000000E+00  0.2007718E-03
  0.9242424E+00  0.0000000E+00  0.5050505E-02 -0.2409563E-05  0.0000000E+00  0.1954450E-03
  0.9343435E+00  0.0000000E+00  0.5050505E-02 -0.2058428E-05  0.0000000E+00  0.1908583E-03
  0.9444444E+00  0.0000000E+00  0.5050505E-02 -0.1720529E-05  0.0000000E+00  0.1869808E-03
  0.9545454E+00  0.0000000E+00  0.5050505E-02 -0.1393496E-05  0.0000000E+00  0.1837868E-03
  0.9646465E+00  0.0000000E+00  0.5050505E-02 -0.1075126E-05  0.0000000E+00  0.1812555E-03
  0.9747475E+00  0.0000000E+00  0.5050505E-02 -0.7633454E-06  0.0000000E+00  0.1793709E-03
  0.9848485E+00  0.0000000E+00  0.5050505E-02 -0.4561878E-06  0.0000000E+00  0.1781209E-03
  0.9974747E+00  0.0000000E+00  0.5050505E-02 -0.1517627E-06  0.0000000E+00  0.1774978E-03
  0.5050505E-02  0.0000000E+00  0.1515152E-01  0.2073714E-06  0.0000000E+00  0.1055738E-03
  0.1515152E-01  0.0000000E+00  0.1515152E-01  0.6227521E-06  0.0000000E+00  0.1058549E-03
  0.2525252E-01  0.0000000E+00  0.1515152E-01  0.1040062E-05  0.0000000E+00  0.1064179E-03
  0.3535353E-01  0.0000000E+00  0.1515152E-01  0.1460619E-05  0.0000000E+00  0.1072646E-03
  0.4545455E-01  0.0000000E+00  0.1515152E-01  0.1885775E-05  0.0000000E+00  0.1083978E-03
  0.5555556E-01  0.0000000E+00  0.1515152E-01  0.2316928E-05  0.0000000E+00  0.1098212E-03
  0.6565657E-01  0.0000000E+00  0.1515152E-01  0.2755532E-05  0.0000000E+00  0.1115393E-03
  0.7575758E-01  0.0000000E+00  0.1515152E-01  0.3203113E-05  0.0000000E+00  0.1135579E-03
  0.8585858E-01  0.0000000E+00  0.1515152E-01  0.3661285E-05  0.0000000E+00  0.1158838E-03
  0.9595960E-01  0.0000000E+00  0.1515152E-01  0.4131760E-05  0.0000000E+00  0.1185251E-03
  0.1060606E+00  0.0000000E+00  0.1515152E-01  0.4616377E-05  0.0000000E+00  0.1214908E-03
  0.1161616E+00  0.0000000E+00  0.1515152E-01  0.5117120E-05  0.0000000E+00  0.1247916E-03
  0.1262626E+00  0.0000000E+00  0.1515152E-01  0.5636142E-05  0.0000000E+00  0.1284394E-03
  0.1363636E+00  0.0000000E+00  0.1515152E-01  0.6175802E-05  0.0000000E+00  0.1324479E-03
  0.1464646E+00  0.0000000E+00  0.1515152E-01  0.6738698E-05  0.0000000E+00  0.1368323E-03
  0.1565657E+00  0.0000000E+00  0.1515152E-01  0.7327714E-05  0.0000000E+00  0.1416100E-03
  0.1666667E+00  0.0000000E+00  0.1515152E-01  0.7946074E-05  0.0000000E+00  0.1468002E-03
  0.1767677E+00  0.0000000E+00  0.1515152E-01  0.8597412E-05  0.0000000E+00  0.1524249E-03
  0.1868687E+00  0.0000000E+00  0.1515152E-01  0.9285851E-05  0.0000000E+00  0.1585084E-03
  0.1969697E+00  0.0000000E+00  0.1515152E-01  0.1001611E-04  0.0000000E+00  0.1650786E-03
  0.2070707E+00  0.0000000E+00  0.1515152E-01  0.1079365E-04  0.0000000E+00  0.1721665E-03
  0.2171717E+00  0.0000000E+00  0.1515152E-01  0.1162479E-04  0.0000000E+00  0.1798075E-03
  0.2272727E+00  0.0000000E+00  0.1515152E-01  0.1251697E-04  0.0000000E+00  0.1880418E-03
  0.2373737E+00  0.0000000E+00  0.1515152E-01  0.1347900E-04  0.0000000E+00  0.1969153E-03
  0.2474747E+00  0.0000000E+00  0.1515152E-01  0.1452135E-04  0.0000000E+00  0.2064807E-03
  0.2575758E+00  0.0000000E+00  0.1515152E-01  0.1565666E-04  0.0000000E+00  0.2167987E-03
  0.2676768E+00  0.0000000E+00  0.1515152E-01  0.1690020E-04  0.0000000E+00  0.2279398E-03
  0.2777778E+00  0.0000000E+00  0.1515152E-01  0.1827068E-04  0.0000000E+00  0.2399866E-03
  0.2878788E+00  0.0000000E+00  0.1515152E-01  0.1979111E-04  0.0000000E+00  0.2530360E-03
  0.2979798E+00  0.0000000E+00  0.1515152E-01  0.2149011E-04  0.0000000E+00  0.2672033E-03
  0.3080808E+00  0.0000000E+00  0.1515152E-01  0.2340353E-04  0.0000000E+00  0.2826262E-03
  0.3181818E+00  0.0000000E+00  0.1515152E-01  0.2557670E-04  0.0000000E+00  0.2994709E-03
  0.3282828E+00  0.0000000E+00  0.1515152E-01  0.2806749E-04  0.0000000E+00  0.3179396E-03
  0.3383838E+00  0.0000000E+00  0.1515152E-01  0.3095052E-04  0.0000000E+00  0.3382811E-03
  0.3484848E+00  0.0000000E+00  0.1515152E-01  0.3432292E-04  0.0000000E+00  0.3608047E-03
  0.3585859E+00  0.0000000E+00  0.1515152E-01  0.3831191E-04  0.0000000E+00  0.3858999E-03
  0.3686869E+00  0.0000000E+00  0.1515152E-01  0.4308407E-04  0.0000000E+00  0.4140649E-03
  0.3787879E+00  0.0000000E+00  0.1515152E-01  0.4885245E-04  0.0000000E+00  0.4459498E-03
  0.3888889E+00  0.0000000E+00  0.1515152E-01  0.5586577E-04  0.0000000E+00  0.4824283E-03
  0.3989899E+00  0.0000000E+00  0.1515152E-01  0.6431608E-04  0.0000000E+00  0.5247096E-03
  0.4090909E+00  0.0000000E+00  0.1515152E-01  0.7391719E-04  0.0000000E+00  0.5744220E-03
  0.4191919E+00  0.0000000E+00  0.1515152E-01  0.8215548E-04  0.0000000E+00  0.6327456E-03
  0.4292929E+00  0.0000000E+00  0.1515152E-01  0.7697215E-04  0.0000000E+00  0.6913896E-03
  0.4393939E+00  0.0000000E+00  0.1515152E-01  0.7821911E-04  0.0000000E+00  0.7466020E-03
  0.4494950E+00  0.0000000E+00  0.1515152E-01  0.8296668E-04  0.0000000E+00  0.8050068E-03
  0.4595959E+00  0.0000000E+00  0.1515152E-01  0.8694624E-04  0.0000000E+00  0.8674623E-03
  0.4696970E+00  0.0000000E+00  0.1515152E-01  0.9196109E-04  0.0000000E+00  0.9334649E-03
  0.4797980E+00  0.0000000E+00  0.1515152E-01  0.9910459E-04  0.0000000E+00  0.1004777E-02
  0.4898990E+00  0.0000000E+00  0.1515152E-01  0.1070638E-03  0.0000000E+00  0.1083656E-02
  0.5000000E+00  0.0000000E+00  0.1515152E-01  0.1103129E-03  0.0000000E+00  0.1168786E-02
  0.5101010E+00  0.0000000E+00  0.1515152E-01  0.1060597E-03  0.0000000E+00  0.1253393E-02
  0.5202020E+00  0.0000000E+00  0.1515152E-01  0.1014663E-03  0.0000000E+00  0.1332000E-02
  0.5303030E+00  0.0000000E+00  0.1515152E-01  0.1065668E-03  0.0000000E+00  0.1406993E-02
  0.5404040E+00  0.0000000E+00  0.1515152E-01  0.1261244E-03  0.0000000E+00  0.1481824E-02
  0.5505050E+00  0.0000000E+00  0.1515152E-01  0.1852028E-03  0.0000000E+00  0.1556984E-02
  0.5606061E+00  0.0000000E+00  0.1515152E-01  0.2642957E-03  0.0000000E+00  0.1643160E-02
  0.5707071E+00  0.0000000E+00  0.1515152E-01 -0.1276834E-03  0.0000000E+00  0.1568422E-02
  0.5808081E+00  0.0000000E+00  0.1515152E-01 -0.2614536E-03  0.0000000E+00  0.1470458E-02
  0.5909091E+00  0.0000000E+00  0.1515152E-01 -0.1794906E-03  0.0000000E+00  0.1421131E-02
  0.6010101E+00  0.0000000E+00  0.1515152E-01 -0.1799536E-03  0.0000000E+00  0.1314788E-02
  0.6111111E+00  0.0000000E+00  0.1515152E-01 -0.1267027E-03  0.0000000E+00  0.1245110E-02
  0.6212121E+00  0.0000000E+00  0.1515152E-01 -0.9509803E-04  0.0000000E+00  0.1177752E-02
  0.6313131E+00  0.0000000E+00  0.1515152E-01 -0.9884571E-04  0.0000000E+00  0.1111015E-02
  0.6414142E+00  0.0000000E+00  0.1515152E-01 -0.9558729E-04  0.0000000E+00  0.1038588E-02
  0.6515151E+00  0.0000000E+00  0.1515152E-01 -0.9648469E-04  0.0000000E+00  0.9687095E-03
  0.6616161E+00  0.0000000E+00  0.1515152E-01 -0.1123794E-03  0.0000000E+00  0.8882774E-03
  0.6717172E+00  0.0000000E+00  0.1515152E-01 -0.9699701E-04  0.0000000E+00  0.8066077E-03
  0.6818182E+00  0.0000000E+00  0.1515152E-01 -0.8467628E-04  0.0000000E+00  0.7401866E-03
  0.6919192E+00  0.0000000E+00  0.1515152E-01 -0.7497751E-04  0.0000000E+00  0.6829077E-03
  0.7020202E+00  0.0000000E+00  0.1515152E-01 -0.6725422E-04  0.0000000E+00  0.6322078E-03
  0.7121212E+00  0.0000000E+00  0.1515152E-01 -0.6095270E-04  0.0000000E+00  0.5866447E-03
  0.7222222E+00  0.0000000E+00  0.1515152E-01 -0.5560041E-04  0.0000000E+00  0.5453094E-03
  0.7323232E+00  0.0000000E+00  0.1515152E-01 -0.5085482E-04  0.0000000E+00  0.5076396E-03
  0.7424242E+00  0.0000000E+00  0.1515152E-01 -0.4652198E-04  0.0000000E+00  0.4732782E-03
  0.7525253E+00  0.0000000E+00  0.1515152E-01 -0.4251511E-04  0.0000000E+00  0.4419610E-03
  0.7626263E+00  0.0000000E+00  0.1515152E-01 -0.3880282E-04  0.0000000E+00  0.4134557E-03
  0.7727273E+00  0.0000000E+00  0.1515152E-01 -0.3537374E-04  0.0000000E+00  0.3875395E-03
  0.7828283E+00  0.0000000E+00  0.1515152E-01 -0.3221906E-04  0.0000000E+00  0.3639957E-03
  0.7929293E+00  0.0000000E+00  0.1515152E-01 -0.2932642E-04  0.0000000E+00  0.3426174E-03
  0.8030303E+00  0.0000000E+00  0.1515152E-01 -0.2667932E-04  0.0000000E+00  0.3232109E-03
  0.8131313E+00  0.0000000E+00  0.1515152E-01 -0.2425832E-04  0.0000000E+00  0.3055986E-03
  0.8232324E+00  0.0000000E+00  0.1515152E-01 -0.2204268E-04  0.0000000E+00  0.2896198E-03
  0.8333333E+00  0.0000000E+00  0.1515152E-01 -0.2001158E-04  0.0000000E+00  0.2751309E-03
  0.8434343E+00  0.0000000E+00  0.1515152E-01 -0.1814503E-04  0.0000000E+00  0.2620044E-03
  0.8535354E+00  0.0000000E+00  0.1515152E-01 -0.1642433E-04  0.0000000E+00  0.2501275E-03
  0.8636364E+00  0.0000000E+00  0.1515152E-01 -0.1483232E-04  0.0000000E+00  0.2394012E-03
  0.8737374E+00  0.0000000E+00  0.1515152E-01 -0.1335342E-04  0.0000000E+00  0.2297387E-03
  0.8838384E+00  0.0000000E+00  0.1515152E-01 -0.1197357E-04  0.0000000E+00  0.2210642E-03
  0.8939394E+00  0.0000000E+00  0.1515152E-01 -0.1068015E-04  0.0000000E+00  0.2133116E-03
  0.9040404E+00  0.0000000E+00  0.1515152E-01 -0.9461807E-05  0.0000000E+00  0.2064235E-03
  0.9141414E+00  0.0000000E+00  0.1515152E-01 -0.8308316E-05  0.0000000E+00  0.2003502E-03
  0.9242424E+00  0.0000000E+00  0.1515152E-01 -0.7210443E-05  0.0000000E+00  0.1950492E-03
  0.9343435E+00  0.0000000E+00  0.1515152E-01 -0.6159795E-05  0.0000000E+00  0.1904842E-03
  0.9444444E+00  0.0000000E+00  0.1515152E-01 -0.5148698E-05  0.0000000E+00  0.1866246E-03
  0.9545454E+00  0.0000000E+00  0.1515152E-01 -0.4170078E-05  0.0000000E+00  0.1834451E-03
  0.9646465E+00  0.0000000E+00  0.1515152E-01 -0.3217353E-05  0.0000000E+00  0.1809251E-03
  0.9747475E+00  0.0000000E+00  0.1515152E-01 -0.2284337E-05  0.0000000E+00  0.1790487E-03
  0.9848485E+00  0.0000000E+00  0.1515152E-01 -0.1365152E-05  0.0000000E+00  0.1778041E-03
  0.9974747E+00  0.0000000E+00  0.1515152E-01 -0.4541509E-06  0.0000000E+00  0.1771837E-03
  0.5050505E-02  0.0000000E+00  0.2525252E-01  0.3447262E-06  0.0000000E+00  0.1054078E-03
  0.1515152E-01  0.0000000E+00  0.2525252E-01  0.1035241E-05  0.0000000E+00  0.1056878E-03
  0.2525252E-01  0.0000000E+00  0.2525252E-01  0.1728963E-05  0.0000000E+00  0.1062488E-03
  0.3535353E-01  0.0000000E+00  0.2525252E-01  0.2428078E-05  0.0000000E+00  0.1070925E-03
  0.4545455E-01  0.0000000E+00  0.2525252E-01  0.3134827E-05  0.0000000E+00  0.1082215E-03
  0.5555556E-01  0.0000000E+00  0.2525252E-01  0.3851525E-05  0.0000000E+00  0.1096395E-03
  0.6565657E-01  0.0000000E+00  0.2525252E-01  0.4580584E-05  0.0000000E+00  0.1113511E-03
  0.7575758E-01  0.0000000E+00  0.2525252E-01  0.5324528E-05  0.0000000E+00  0.1133618E-03
  0.8585858E-01  0.0000000E+00  0.2525252E-01  0.6086026E-05  0.0000000E+00  0.1156785E-03
  0.9595960E-01  0.0000000E+00  0.2525252E-01  0.6867916E-05  0.0000000E+00  0.1183089E-03
  0.1060606E+00  0.0000000E+00  0.2525252E-01  0.7673235E-05  0.0000000E+00  0.1212621E-03
  0.1161616E+00  0.0000000E+00  0.2525252E-01  0.8505260E-05  0.0000000E+00  0.1245484E-03
  0.1262626E+00  0.0000000E+00  0.2525252E-01  0.9367551E-05  0.0000000E+00  0.1281797E-03
  0.1363636E+00  0.0000000E+00  0.2525252E-01  0.1026400E-04  0.0000000E+00  0.1321693E-03
  0.1464646E+00  0.0000000E+00  0.2525252E-01  0.1119888E-04  0.0000000E+00  0.1365322E-03
  0.1565657E+00  0.0000000E+00  0.2525252E-01  0.1217695E-04  0.0000000E+00  0.1412853E-03
  0.1666667E+00  0.0000000E+00  0.2525252E-01  0.1320351E-04  0.0000000E+00  0.1464475E-03
  0.1767677E+00  0.0000000E+00  0.2525252E-01  0.1428452E-04  0.0000000E+00  0.1520401E-03
  0.1868687E+00  0.0000000E+00  0.2525252E-01  0.1542676E-04  0.0000000E+00  0.1580870E-03
  0.1969697E+00  0.0000000E+00  0.2525252E-01  0.1663795E-04  0.0000000E+00  0.1646150E-03
  0.2070707E+00  0.0000000E+00  0.2525252E-01  0.1792700E-04  0.0000000E+00  0.1716543E-03
  0.2171717E+00  0.0000000E+00  0.2525252E-01  0.1930425E-04  0.0000000E+00  0.1792390E-03
  0.2272727E+00  0.0000000E+00  0.2525252E-01  0.2078183E-04  0.0000000E+00  0.1874079E-03
  0.2373737E+00  0.0000000E+00  0.2525252E-01  0.2237405E-04  0.0000000E+00  0.1962048E-03
  0.2474747E+00  0.0000000E+00  0.2525252E-01  0.2409793E-04  0.0000000E+00  0.2056801E-03
  0.2575758E+00  0.0000000E+00  0.2525252E-01  0.2597393E-04  0.0000000E+00  0.2158915E-03
  0.2676768E+00  0.0000000E+00  0.2525252E-01  0.2802680E-04  0.0000000E+00  0.2269058E-03
  0.2777778E+00  0.0000000E+00  0.2525252E-01  0.3028671E-04  0.0000000E+00  0.2388003E-03
  0.2878788E+00  0.0000000E+00  0.2525252E-01  0.3279076E-04  0.0000000E+00  0.2516660E-03
  0.2979798E+00  0.0000000E+00  0.2525252E-01  0.3558489E-04  0.0000000E+00  0.2656098E-03
  0.3080808E+00  0.0000000E+00  0.2525252E-01  0.3872657E-04  0.0000000E+00  0.2807586E-03
  0.3181818E+00  0.0000000E+00  0.2525252E-01  0.4228820E-04  0.0000000E+00  0.2972644E-03
  0.3282828E+00  0.0000000E+00  0.2525252E-01  0.4636196E-04  0.0000000E+00  0.3153106E-03
  0.3383838E+00  0.0000000E+00  0.2525252E-01  0.5106640E-04  0.0000000E+00  0.3351203E-03
  0.3484848E+00  0.0000000E+00  0.2525252E-01  0.5655581E-04  0.0000000E+00  0.3569681E-03
  0.3585859E+00  0.0000000E+00  0.2525252E-01  0.6303355E-04  0.0000000E+00  0.3811965E-03
  0.3686869E+00  0.0000000E+00  0.2525252E-01  0.7077175E-04  0.0000000E+00  0.4082415E-03
  0.3787879E+00  0.0000000E+00  0.2525252E-01  0.8014174E-04  0.0000000E+00  0.4386815E-03
  0.3888889E+00  0.0000000E+00  0.2525252E-01  0.9166551E-04  0.0000000E+00  0.4733507E-03
  0.3989899E+00  0.0000000E+00  0.2525252E-01  0.1061196E-03  0.0000000E+00  0.5136936E-03
  0.4090909E+00  0.0000000E+00  0.2525252E-01  0.1248022E-03  0.0000000E+00  0.5631064E-03
  0.4191919E+00  0.0000000E+00  0.2525252E-01  0.1503872E-03  0.0000000E+00  0.6328224E-03
  0.4292929E+00  0.0000000E+00  0.2525252E-01  0.1219166E-03  0.0000000E+00  0.6968022E-03
  0.4393939E+00  0.0000000E+00  0.2525252E-01  0.1267173E-03  0.0000000E+00  0.7440662E-03
  0.4494950E+00  0.0000000E+00  0.2525252E-01  0.1387587E-03  0.0000000E+00  0.8008234E-03
  0.4595959E+00  0.0000000E+00  0.2525252E-01  0.1435827E-03  0.0000000E+00  0.8634947E-03
  0.4696970E+00  0.0000000E+00  0.2525252E-01  0.1508117E-03  0.0000000E+00  0.9272452E-03
  0.4797980E+00  0.0000000E+00  0.2525252E-01  0.1639284E-03  0.0000000E+00  0.9962252E-03
  0.4898990E+00  0.0000000E+00  0.2525252E-01  0.1822807E-03  0.0000000E+00  0.1077790E-02
  0.5000000E+00  0.0000000E+00  0.2525252E-01  0.1898980E-03  0.0000000E+00  0.1172105E-02
  0.5101010E+00  0.0000000E+00  0.2525252E-01  0.1756499E-03  0.0000000E+00  0.1263031E-02
  0.5202020E+00  0.0000000E+00  0.2525252E-01  0.1583886E-03  0.0000000E+00  0.1335932E-02
  0.5303030E+00  0.0000000E+00  0.2525252E-01  0.1617285E-03  0.0000000E+00  0.1397424E-02
  0.5404040E+00  0.0000000E+00  0.2525252E-01  0.1699911E-03  0.0000000E+00  0.1445191E-02
  0.5505050E+00  0.0000000E+00  0.2525252E-01  0.2333646E-03  0.0000000E+00  0.1486339E-02
  0.5606061E+00  0.0000000E+00  0.2525252E-01  0.2572797E-03  0.0000000E+00  0.1457710E-02
  0.5707071E+00  0.0000000E+00  0.2525252E-01 -0.2446183E-03  0.0000000E+00  0.1384140E-02
  0.5808081E+00  0.0000000E+00  0.2525252E-01 -0.2650400E-03  0.0000000E+00  0.1329580E-02
  0.5909091E+00  0.0000000E+00  0.2525252E-01 -0.2551563E-03  0.0000000E+00  0.1279229E-02
  0.6010101E+00  0.0000000E+00  0.2525252E-01 -0.2158306E-03  0.0000000E+00  0.1249890E-02
  0.6111111E+00  0.0000000E+00  0.2525252E-01 -0.1866969E-03  0.0000000E+00  0.1204399E-02
  0.6212121E+00  0.0000000E+00  0.2525252E-01 -0.1606438E-03  0.0000000E+00  0.1124065E-02
  0.6313131E+00  0.0000000E+00  0.2525252E-01 -0.1515969E-03  0.0000000E+00  0.1053064E-02
  0.6414142E+00  0.0000000E+00  0.2525252E-01 -0.1358952E-03  0.0000000E+00  0.1017767E-02
  0.6515151E+00  0.0000000E+00  0.2525252E-01 -0.1751209E-03  0.0000000E+00  0.9523819E-03
  0.6616161E+00  0.0000000E+00  0.2525252E-01 -0.1882977E-03  0.0000000E+00  0.8595473E-03
  0.6717172E+00  0.0000000E+00  0.2525252E-01 -0.1589193E-03  0.0000000E+00  0.7882717E-03
  0.6818182E+00  0.0000000E+00  0.2525252E-01 -0.1384830E-03  0.0000000E+00  0.7272781E-03
  0.6919192E+00  0.0000000E+00  0.2525252E-01 -0.1229081E-03  0.0000000E+00  0.6733243E-03
  0.7020202E+00  0.0000000E+00  0.2525252E-01 -0.1105977E-03  0.0000000E+00  0.6248562E-03
  0.7121212E+00  0.0000000E+00  0.2525252E-01 -0.1005886E-03  0.0000000E+00  0.5807768E-03
  0.7222222E+00  0.0000000E+00  0.2525252E-01 -0.9203150E-04  0.0000000E+00  0.5403636E-03
  0.7323232E+00  0.0000000E+00  0.2525252E-01 -0.8433188E-04  0.0000000E+00  0.5032577E-03
  0.7424242E+00  0.0000000E+00  0.2525252E-01 -0.7720661E-04  0.0000000E+00  0.4692815E-03
  0.7525253E+00  0.0000000E+00  0.2525252E-01 -0.7056401E-04  0.0000000E+00  0.4382813E-03
  0.7626263E+00  0.0000000E+00  0.2525252E-01 -0.6438911E-04  0.0000000E+00  0.4100738E-03
  0.7727273E+00  0.0000000E+00  0.2525252E-01 -0.5868203E-04  0.0000000E+00  0.3844490E-03
  0.7828283E+00  0.0000000E+00  0.2525252E-01 -0.5343518E-04  0.0000000E+00  0.3611885E-03
  0.7929293E+00  0.0000000E+00  0.2525252E-01 -0.4862918E-04  0.0000000E+00  0.3400793E-03
  0.8030303E+00  0.0000000E+00  0.2525252E-01 -0.4423544E-04  0.0000000E+00  0.3209230E-03
  0.8131313E+00  0.0000000E+00  0.2525252E-01 -0.4022009E-04  0.0000000E+00  0.3035390E-03
  0.8232324E+00  0.0000000E+00  0.2525252E-01 -0.3654728E-04  0.0000000E+00  0.2877657E-03
  0.8333333E+00  0.0000000E+00  0.2525252E-01 -0.3318144E-04  0.0000000E+00  0.2734597E-03
  0.8434343E+00  0.0000000E+00  0.2525252E-01 -0.3008874E-04  0.0000000E+00  0.2604948E-03
  0.8535354E+00  0.0000000E+00  0.2525252E-01 -0.2723776E-04  0.0000000E+00  0.2487599E-03
  0.8636364E+00  0.0000000E+00  0.2525252E-01 -0.2459982E-04  0.0000000E+00  0.2381578E-03
  0.8737374E+00  0.0000000E+00  0.2525252E-01 -0.2214899E-04  0.0000000E+00  0.2286036E-03
  0.8838384E+00  0.0000000E+00  0.2525252E-01 -0.1986195E-04  0.0000000E+00  0.2200231E-03
  0.8939394E+00  0.0000000E+00  0.2525252E-01 -0.1771779E-04  0.0000000E+00  0.2123519E-03
  0.9040404E+00  0.0000000E+00  0.2525252E-01 -0.1569773E-04  0.0000000E+00  0.2055338E-03
  0.9141414E+00  0.0000000E+00  0.2525252E-01 -0.1378486E-04  0.0000000E+00  0.1995205E-03
  0.9242424E+00  0.0000000E+00  0.2525252E-01 -0.1196394E-04  0.0000000E+00  0.1942704E-03
  0.9343435E+00  0.0000000E+00  0.2525252E-01 -0.1022109E-04  0.0000000E+00  0.1897482E-03
  0.9444444E+00  0.0000000E+00  0.2525252E-01 -0.8543648E-05  0.0000000E+00  0.1859240E-03
  0.9545454E+00  0.0000000E+00  0.2525252E-01 -0.6919921E-05  0.0000000E+00  0.1827729E-03
  0.9646465E+00  0.0000000E+00  0.2525252E-01 -0.5339037E-05  0.0000000E+00  0.1802751E-03
  0.9747475E+00  0.0000000E+00  0.2525252E-01 -0.3790777E-05  0.0000000E+00  0.1784150E-03
  0.9848485E+00  0.0000000E+00  0.2525252E-01 -0.2265428E-05  0.0000000E+00  0.1771811E-03
  0.9974747E+00  0.0000000E+00  0.2525252E-01 -0.7536484E-06  0.0000000E+00  0.1765659E-03
  0.5050505E-02  0.0000000E+00  0.3535353E-01  0.4810701E-06  0.0000000E+00  0.1051645E-03
  0.1515152E-01  0.0000000E+00  0.3535353E-01  0.1444691E-05  0.0000000E+00  0.1054431E-03
  0.2525252E-01  0.0000000E+00  0.3535353E-01  0.2412778E-05  0.0000000E+00  0.1060012E-03
  0.3535353E-01  0.0000000E+00  0.3535353E-01  0.3388369E-05  0.0000000E+00  0.1068403E-03
  0.4545455E-01  0.0000000E+00  0.3535353E-01  0.4374580E-05  0.0000000E+00  0.1079632E-03
  0.5555556E-01  0.0000000E+00  0.3535353E-01  0.5374624E-05  0.0000000E+00  0.1093734E-03
  0.6565657E-01  0.0000000E+00  0.3535353E-01  0.6391846E-05  0.0000000E+00  0.1110753E-03
  0.7575758E-01  0.0000000E+00  0.3535353E-01  0.7429752E-05  0.0000000E+00  0.1130745E-03
  0.8585858E-01  0.0000000E+00  0.3535353E-01  0.8492039E-05  0.0000000E+00  0.1153774E-03
  0.9595960E-01  0.0000000E+00  0.3535353E-01  0.9582638E-05  0.0000000E+00  0.1179919E-03
  0.1060606E+00  0.0000000E+00  0.3535353E-01  0.1070576E-04  0.0000000E+00  0.1209267E-03
  0.1161616E+00  0.0000000E+00  0.3535353E-01  0.1186592E-04  0.0000000E+00  0.1241919E-03
  0.1262626E+00  0.0000000E+00  0.3535353E-01  0.1306806E-04  0.0000000E+00  0.1277990E-03
  0.1363636E+00  0.0000000E+00  0.3535353E-01  0.1431753E-04  0.0000000E+00  0.1317609E-03
  0.1464646E+00  0.0000000E+00  0.3535353E-01  0.1562023E-04  0.0000000E+00  0.1360922E-03
  0.1565657E+00  0.0000000E+00  0.3535353E-01  0.1698270E-04  0.0000000E+00  0.1408094E-03
  0.1666667E+00  0.0000000E+00  0.3535353E-01  0.1841222E-04  0.0000000E+00  0.1459306E-03
  0.1767677E+00  0.0000000E+00  0.3535353E-01  0.1991697E-04  0.0000000E+00  0.1514764E-03
  0.1868687E+00  0.0000000E+00  0.3535353E-01  0.2150619E-04  0.0000000E+00  0.1574697E-03
  0.1969697E+00  0.0000000E+00  0.3535353E-01  0.2319044E-04  0.0000000E+00  0.1639361E-03
  0.2070707E+00  0.0000000E+00  0.3535353E-01  0.2498184E-04  0.0000000E+00  0.1709046E-03
  0.2171717E+00  0.0000000E+00  0.3535353E-01  0.2689444E-04  0.0000000E+00  0.1784075E-03
  0.2272727E+00  0.0000000E+00  0.3535353E-01  0.2894464E-04  0.0000000E+00  0.1864812E-03
  0.2373737E+00  0.0000000E+00  0.3535353E-01  0.3115178E-04  0.0000000E+00  0.1951670E-03
  0.2474747E+00  0.0000000E+00  0.3535353E-01  0.3353882E-04  0.0000000E+00  0.2045118E-03
  0.2575758E+00  0.0000000E+00  0.3535353E-01  0.3613321E-04  0.0000000E+00  0.2145690E-03
  0.2676768E+00  0.0000000E+00  0.3535353E-01  0.3896810E-04  0.0000000E+00  0.2253998E-03
  0.2777778E+00  0.0000000E+00  0.3535353E-01  0.4208378E-04  0.0000000E+00  0.2370749E-03
  0.2878788E+00  0.0000000E+00  0.3535353E-01  0.4552960E-04  0.0000000E+00  0.2496761E-03
  0.2979798E+00  0.0000000E+00  0.3535353E-01  0.4936650E-04  0.0000000E+00  0.2632988E-03