title = "dataset water"
variables = "x", "y", "z", "vx", "vy", "vz"
zone t = "velocities, solution time =  2.000E+01 days        " i =   99, j =   99, k =    1,  f=point
  0.5050505E-02  0.0000000E+00  0.5050505E-02  0.6499688E-10  0.0000000E+00 -0.1806749E-04
  0.1515152E-01  0.0000000E+00  0.5050505E-02  0.1949358E-09  0.0000000E+00 -0.1806723E-04
  0.2525252E-01  0.0000000E+00  0.5050505E-02  0.3246927E-09  0.0000000E+00 -0.1806671E-04
  0.3535353E-01  0.0000000E+00  0.5050505E-02  0.4541408E-09  0.0000000E+00 -0.1806593E-04
  0.4545455E-01  0.0000000E+00  0.5050505E-02  0.5831482E-09  0.0000000E+00 -0.1806489E-04
  0.5555556E-01  0.0000000E+00  0.5050505E-02  0.7115741E-09  0.0000000E+00 -0.1806359E-04
  0.6565657E-01  0.0000000E+00  0.5050505E-02  0.8392663E-09  0.0000000E+00 -0.1806204E-04
  0.7575758E-01  0.0000000E+00  0.5050505E-02  0.9660591E-09  0.0000000E+00 -0.1806023E-04
  0.8585858E-01  0.0000000E+00  0.5050505E-02  0.1091771E-08  0.0000000E+00 -0.1805816E-04
  0.9595960E-01  0.0000000E+00  0.5050505E-02  0.1216202E-08  0.0000000E+00 -0.1805585E-04
  0.1060606E+00  0.0000000E+00  0.5050505E-02  0.1339134E-08  0.0000000E+00 -0.1805329E-04
  0.1161616E+00  0.0000000E+00  0.5050505E-02  0.1460325E-08  0.0000000E+00 -0.1805048E-04
  0.1262626E+00  0.0000000E+00  0.5050505E-02  0.1579512E-08  0.0000000E+00 -0.1804744E-04
  0.1363636E+00  0.0000000E+00  0.5050505E-02  0.1696405E-08  0.0000000E+00 -0.1804415E-04
  0.1464646E+00  0.0000000E+00  0.5050505E-02  0.1810691E-08  0.0000000E+00 -0.1804064E-04
  0.1565657E+00  0.0000000E+00  0.5050505E-02  0.1922029E-08  0.0000000E+00 -0.1803690E-04
  0.1666667E+00  0.0000000E+00  0.5050505E-02  0.2030050E-08  0.0000000E+00 -0.1803294E-04
  0.1767677E+00  0.0000000E+00  0.5050505E-02  0.2134361E-08  0.0000000E+00 -0.1802876E-04
  0.1868687E+00  0.0000000E+00  0.5050505E-02  0.2234540E-08  0.0000000E+00 -0.1802439E-04
  0.1969697E+00  0.0000000E+00  0.5050505E-02  0.2330141E-08  0.0000000E+00 -0.1801981E-04
  0.2070707E+00  0.0000000E+00  0.5050505E-02  0.2420691E-08  0.0000000E+00 -0.1801505E-04
  0.2171717E+00  0.0000000E+00  0.5050505E-02  0.2505698E-08  0.0000000E+00 -0.1801011E-04
  0.2272727E+00  0.0000000E+00  0.5050505E-02  0.2584645E-08  0.0000000E+00 -0.1800501E-04
  0.2373737E+00  0.0000000E+00  0.5050505E-02  0.2657002E-08  0.0000000E+00 -0.1799976E-04
  0.2474747E+00  0.0000000E+00  0.5050505E-02  0.2722223E-08  0.0000000E+00 -0.1799437E-04
  0.2575758E+00  0.0000000E+00  0.5050505E-02  0.2779754E-08  0.0000000E+00 -0.1798885E-04
  0.2676768E+00  0.0000000E+00  0.5050505E-02  0.2829035E-08  0.0000000E+00 -0.1798323E-04
  0.2777778E+00  0.0000000E+00  0.5050505E-02  0.2869508E-08  0.0000000E+00 -0.1797752E-04
  0.2878788E+00  0.0000000E+00  0.5050505E-02  0.2900621E-08  0.0000000E+00 -0.1797174E-04
  0.2979798E+00  0.0000000E+00  0.5050505E-02  0.2921839E-08  0.0000000E+00 -0.1796590E-04
  0.3080808E+00  0.0000000E+00  0.5050505E-02  0.2932645E-08  0.0000000E+00 -0.1796003E-04
  0.3181818E+00  0.0000000E+00  0.5050505E-02  0.2932553E-08  0.0000000E+00 -0.1795416E-04
  0.3282828E+00  0.0000000E+00  0.5050505E-02  0.2921115E-08  0.0000000E+00 -0.1794829E-04
  0.3383838E+00  0.0000000E+00  0.5050505E-02  0.2897928E-08  0.0000000E+00 -0.1794246E-04
  0.3484848E+00  0.0000000E+00  0.5050505E-02  0.2862645E-08  0.0000000E+00 -0.1793668E-04
  0.3585859E+00  0.0000000E+00  0.5050505E-02  0.2814982E-08  0.0000000E+00 -0.1793099E-04
  0.3686869E+00  0.0000000E+00  0.5050505E-02  0.2754729E-08  0.0000000E+00 -0.1792541E-04
  0.3787879E+00  0.0000000E+00  0.5050505E-02  0.2681755E-08  0.0000000E+00 -0.1791996E-04
  0.3888889E+00  0.0000000E+00  0.5050505E-02  0.2596019E-08  0.0000000E+00 -0.1791467E-04
  0.3989899E+00  0.0000000E+00  0.5050505E-02  0.2497575E-08  0.0000000E+00 -0.1790957E-04
  0.4090909E+00  0.0000000E+00  0.5050505E-02  0.2386582E-08  0.0000000E+00 -0.1790468E-04
  0.4191919E+00  0.0000000E+00  0.5050505E-02  0.2263303E-08  0.0000000E+00 -0.1790001E-04
  0.4292929E+00  0.0000000E+00  0.5050505E-02  0.2128114E-08  0.0000000E+00 -0.1789561E-04
  0.4393939E+00  0.0000000E+00  0.5050505E-02  0.1981505E-08  0.0000000E+00 -0.1789150E-04
  0.4494950E+00  0.0000000E+00  0.5050505E-02  0.1824079E-08  0.0000000E+00 -0.1788768E-04
  0.4595959E+00  0.0000000E+00  0.5050505E-02  0.1656553E-08  0.0000000E+00 -0.1788419E-04
  0.4696970E+00  0.0000000E+00  0.5050505E-02  0.1479753E-08  0.0000000E+00 -0.1788105E-04
  0.4797980E+00  0.0000000E+00  0.5050505E-02  0.1294610E-08  0.0000000E+00 -0.1787827E-04
  0.4898990E+00  0.0000000E+00  0.5050505E-02  0.1102152E-08  0.0000000E+00 -0.1787587E-04
  0.5000000E+00  0.0000000E+00  0.5050505E-02  0.9034962E-09  0.0000000E+00 -0.1787386E-04
  0.5101010E+00  0.0000000E+00  0.5050505E-02  0.6998370E-09  0.0000000E+00 -0.1787225E-04
  0.5202020E+00  0.0000000E+00  0.5050505E-02  0.4924339E-09  0.0000000E+00 -0.1787106E-04
  0.5303030E+00  0.0000000E+00  0.5050505E-02  0.2825980E-09  0.0000000E+00 -0.1787028E-04
  0.5404040E+00  0.0000000E+00  0.5050505E-02  0.7167652E-10  0.0000000E+00 -0.1786992E-04
  0.5505050E+00  0.0000000E+00  0.5050505E-02 -0.1389628E-09  0.0000000E+00 -0.1786999E-04
  0.5606061E+00  0.0000000E+00  0.5050505E-02 -0.3479484E-09  0.0000000E+00 -0.1787048E-04
  0.5707071E+00  0.0000000E+00  0.5050505E-02 -0.5539210E-09  0.0000000E+00 -0.1787138E-04
  0.5808081E+00  0.0000000E+00  0.5050505E-02 -0.7555498E-09  0.0000000E+00 -0.1787270E-04
  0.5909091E+00  0.0000000E+00  0.5050505E-02 -0.9515484E-09  0.0000000E+00 -0.1787441E-04
  0.6010101E+00  0.0000000E+00  0.5050505E-02 -0.1140690E-08  0.0000000E+00 -0.1787650E-04
  0.6111111E+00  0.0000000E+00  0.5050505E-02 -0.1321818E-08  0.0000000E+00 -0.1787897E-04
  0.6212121E+00  0.0000000E+00  0.5050505E-02 -0.1493864E-08  0.0000000E+00 -0.1788179E-04
  0.6313131E+00  0.0000000E+00  0.5050505E-02 -0.1655851E-08  0.0000000E+00 -0.1788495E-04
  0.6414142E+00  0.0000000E+00  0.5050505E-02 -0.1806906E-08  0.0000000E+00 -0.1788842E-04
  0.6515151E+00  0.0000000E+00  0.5050505E-02 -0.1946266E-08  0.0000000E+00 -0.1789218E-04
  0.6616161E+00  0.0000000E+00  0.5050505E-02 -0.2073280E-08  0.0000000E+00 -0.1789621E-04
  0.6717172E+00  0.0000000E+00  0.5050505E-02 -0.2187414E-08  0.0000000E+00 -0.1790048E-04
  0.6818182E+00  0.0000000E+00  0.5050505E-02 -0.2288251E-08  0.0000000E+00 -0.1790497E-04
  0.6919192E+00  0.0000000E+00  0.5050505E-02 -0.2375487E-08  0.0000000E+00 -0.1790964E-04
  0.7020202E+00  0.0000000E+00  0.5050505E-02 -0.2448930E-08  0.0000000E+00 -0.1791447E-04
  0.7121212E+00  0.0000000E+00  0.5050505E-02 -0.2508497E-08  0.0000000E+00 -0.1791944E-04
  0.7222222E+00  0.0000000E+00  0.5050505E-02 -0.2554203E-08  0.0000000E+00 -0.1792452E-04
  0.7323232E+00  0.0000000E+00  0.5050505E-02 -0.2586160E-08  0.0000000E+00 -0.1792967E-04
  0.7424242E+00  0.0000000E+00  0.5050505E-02 -0.2604565E-08  0.0000000E+00 -0.1793487E-04
  0.7525253E+00  0.0000000E+00  0.5050505E-02 -0.2609692E-08  0.0000000E+00 -0.1794010E-04
  0.7626263E+00  0.0000000E+00  0.5050505E-02 -0.2601887E-08  0.0000000E+00 -0.1794532E-04
  0.7727273E+00  0.0000000E+00  0.5050505E-02 -0.2581554E-08  0.0000000E+00 -0.1795051E-04
  0.7828283E+00  0.0000000E+00  0.5050505E-02 -0.2549152E-08  0.0000000E+00 -0.1795566E-04
  0.7929293E+00  0.0000000E+00  0.5050505E-02 -0.2505178E-08  0.0000000E+00 -0.1796072E-04
  0.8030303E+00  0.0000000E+00  0.5050505E-02 -0.2450170E-08  0.0000000E+00 -0.1796569E-04
  0.8131313E+00  0.0000000E+00  0.5050505E-02 -0.2384688E-08  0.0000000E+00 -0.1797053E-04
  0.8232324E+00  0.0000000E+00  0.5050505E-02 -0.2309314E-08  0.0000000E+00 -0.1797524E-04
  0.8333333E+00  0.0000000E+00  0.5050505E-02 -0.2224644E-08  0.0000000E+00 -0.1797978E-04
  0.8434343E+00  0.0000000E+00  0.5050505E-02 -0.2131279E-08  0.0000000E+00 -0.1798415E-04
  0.8535354E+00  0.0000000E+00  0.5050505E-02 -0.2029825E-08  0.0000000E+00 -0.1798832E-04
  0.8636364E+00  0.0000000E+00  0.5050505E-02 -0.1920883E-08  0.0000000E+00 -0.1799228E-04
  0.8737374E+00  0.0000000E+00  0.5050505E-02 -0.1805049E-08  0.0000000E+00 -0.1799601E-04
  0.8838384E+00  0.0000000E+00  0.5050505E-02 -0.1682911E-08  0.0000000E+00 -0.1799951E-04
  0.8939394E+00  0.0000000E+00  0.5050505E-02 -0.1555044E-08  0.0000000E+00 -0.1800275E-04
  0.9040404E+00  0.0000000E+00  0.5050505E-02 -0.1422011E-08  0.0000000E+00 -0.1800574E-04
  0.9141414E+00  0.0000000E+00  0.5050505E-02 -0.1284362E-08  0.0000000E+00 -0.1800845E-04
  0.9242424E+00  0.0000000E+00  0.5050505E-02 -0.1142630E-08  0.0000000E+00 -0.1801088E-04
  0.9343435E+00  0.0000000E+00  0.5050505E-02 -0.9973364E-09  0.0000000E+00 -0.1801302E-04
  0.9444444E+00  0.0000000E+00  0.5050505E-02 -0.8489870E-09  0.0000000E+00 -0.1801487E-04
  0.9545454E+00  0.0000000E+00  0.5050505E-02 -0.6980759E-09  0.0000000E+00 -0.1801643E-04
  0.9646465E+00  0.0000000E+00  0.5050505E-02 -0.5450853E-09  0.0000000E+00 -0.1801767E-04
  0.9747475E+00  0.0000000E+00  0.5050505E-02 -0.3904882E-09  0.0000000E+00 -0.1801861E-04
  0.9848485E+00  0.0000000E+00  0.5050505E-02 -0.2347494E-09  0.0000000E+00 -0.1801924E-04
  0.9974747E+00  0.0000000E+00  0.5050505E-02 -0.7832857E-10  0.0000000E+00 -0.1801955E-04
  0.5050505E-02  0.0000000E+00  0.1515152E-01  0.1954088E-09  0.0000000E+00 -0.1803025E-04
  0.1515152E-01  0.0000000E+00  0.1515152E-01  0.5860593E-09  0.0000000E+00 -0.1802998E-04
  0.2525252E-01  0.0000000E+00  0.1515152E-01  0.9761677E-09  0.0000000E+00 -0.1802946E-04
  0.3535353E-01  0.0000000E+00  0.1515152E-01  0.1365355E-08  0.0000000E+00 -0.1802867E-04
  0.4545455E-01  0.0000000E+00  0.1515152E-01  0.1753227E-08  0.0000000E+00 -0.1802762E-04
  0.5555556E-01  0.0000000E+00  0.1515152E-01  0.2139364E-08  0.0000000E+00 -0.1802631E-04
  0.6565657E-01  0.0000000E+00  0.1515152E-01  0.2523310E-08  0.0000000E+00 -0.1802474E-04
  0.7575758E-01  0.0000000E+00  0.1515152E-01  0.2904571E-08  0.0000000E+00 -0.1802292E-04
  0.8585858E-01  0.0000000E+00  0.1515152E-01  0.3282602E-08  0.0000000E+00 -0.1802083E-04
  0.9595960E-01  0.0000000E+00  0.1515152E-01  0.3656806E-08  0.0000000E+00 -0.1801850E-04
  0.1060606E+00  0.0000000E+00  0.1515152E-01  0.4026527E-08  0.0000000E+00 -0.1801591E-04
  0.1161616E+00  0.0000000E+00  0.1515152E-01  0.4391043E-08  0.0000000E+00 -0.1801308E-04
  0.1262626E+00  0.0000000E+00  0.1515152E-01  0.4749560E-08  0.0000000E+00 -0.1801000E-04
  0.1363636E+00  0.0000000E+00  0.1515152E-01  0.5101213E-08  0.0000000E+00 -0.1800669E-04
  0.1464646E+00  0.0000000E+00  0.1515152E-01  0.5445058E-08  0.0000000E+00 -0.1800314E-04
  0.1565657E+00  0.0000000E+00  0.1515152E-01  0.5780072E-08  0.0000000E+00 -0.1799936E-04
  0.1666667E+00  0.0000000E+00  0.1515152E-01  0.6105149E-08  0.0000000E+00 -0.1799536E-04
  0.1767677E+00  0.0000000E+00  0.1515152E-01  0.6419103E-08  0.0000000E+00 -0.1799114E-04
  0.1868687E+00  0.0000000E+00  0.1515152E-01  0.6720669E-08  0.0000000E+00 -0.1798672E-04
  0.1969697E+00  0.0000000E+00  0.1515152E-01  0.7008501E-08  0.0000000E+00 -0.1798209E-04
  0.2070707E+00  0.0000000E+00  0.1515152E-01  0.7281180E-08  0.0000000E+00 -0.1797728E-04
  0.2171717E+00  0.0000000E+00  0.1515152E-01  0.7537219E-08  0.0000000E+00 -0.1797229E-04
  0.2272727E+00  0.0000000E+00  0.1515152E-01  0.7775069E-08  0.0000000E+00 -0.1796713E-04
  0.2373737E+00  0.0000000E+00  0.1515152E-01  0.7993127E-08  0.0000000E+00 -0.1796182E-04
  0.2474747E+00  0.0000000E+00  0.1515152E-01  0.8189750E-08  0.0000000E+00 -0.1795637E-04
  0.2575758E+00  0.0000000E+00  0.1515152E-01  0.8363266E-08  0.0000000E+00 -0.1795079E-04
  0.2676768E+00  0.0000000E+00  0.1515152E-01  0.8511987E-08  0.0000000E+00 -0.1794510E-04
  0.2777778E+00  0.0000000E+00  0.1515152E-01  0.8634228E-08  0.0000000E+00 -0.1793933E-04
  0.2878788E+00  0.0000000E+00  0.1515152E-01  0.8728328E-08  0.0000000E+00 -0.1793347E-04
  0.2979798E+00  0.0000000E+00  0.1515152E-01  0.8792663E-08  0.0000000E+00 -0.1792757E-04
  0.3080808E+00  0.0000000E+00  0.1515152E-01  0.8825676E-08  0.0000000E+00 -0.1792163E-04
  0.3181818E+00  0.0000000E+00  0.1515152E-01  0.8825897E-08  0.0000000E+00 -0.1791568E-04
  0.3282828E+00  0.0000000E+00  0.1515152E-01  0.8791968E-08  0.0000000E+00 -0.1790974E-04
  0.3383838E+00  0.0000000E+00  0.1515152E-01  0.8722670E-08  0.0000000E+00 -0.1790383E-04
  0.3484848E+00  0.0000000E+00  0.1515152E-01  0.8616951E-08  0.0000000E+00 -0.1789798E-04
  0.3585859E+00  0.0000000E+00  0.1515152E-01  0.8473947E-08  0.0000000E+00 -0.1789222E-04
  0.3686869E+00  0.0000000E+00  0.1515152E-01  0.8293015E-08  0.0000000E+00 -0.1788656E-04
  0.3787879E+00  0.0000000E+00  0.1515152E-01  0.8073756E-08  0.0000000E+00 -0.1788104E-04
  0.3888889E+00  0.0000000E+00  0.1515152E-01  0.7816038E-08  0.0000000E+00 -0.1787568E-04
  0.3989899E+00  0.0000000E+00  0.1515152E-01  0.7520019E-08  0.0000000E+00 -0.1787050E-04
  0.4090909E+00  0.0000000E+00  0.1515152E-01  0.7186164E-08  0.0000000E+00 -0.1786554E-04
  0.4191919E+00  0.0000000E+00  0.1515152E-01  0.6815265E-08  0.0000000E+00 -0.1786081E-04
  0.4292929E+00  0.0000000E+00  0.1515152E-01  0.6408449E-08  0.0000000E+00 -0.1785635E-04
  0.4393939E+00  0.0000000E+00  0.1515152E-01  0.5967186E-08  0.0000000E+00 -0.1785217E-04
  0.4494950E+00  0.0000000E+00  0.1515152E-01  0.5493291E-08  0.0000000E+00 -0.1784830E-04
  0.4595959E+00  0.0000000E+00  0.1515152E-01  0.4988921E-08  0.0000000E+00 -0.1784477E-04
  0.4696970E+00  0.0000000E+00  0.1515152E-01  0.4456565E-08  0.0000000E+00 -0.1784158E-04
  0.4797980E+00  0.0000000E+00  0.1515152E-01  0.3899027E-08  0.0000000E+00 -0.1783876E-04
  0.4898990E+00  0.0000000E+00  0.1515152E-01  0.3319408E-08  0.0000000E+00 -0.1783632E-04
  0.5000000E+00  0.0000000E+00  0.1515152E-01  0.2721076E-08  0.0000000E+00 -0.1783428E-04
  0.5101010E+00  0.0000000E+00  0.1515152E-01  0.2107634E-08  0.0000000E+00 -0.1783265E-04
  0.5202020E+00  0.0000000E+00  0.1515152E-01  0.1482883E-08  0.0000000E+00 -0.1783144E-04
  0.5303030E+00  0.0000000E+00  0.1515152E-01  0.8507798E-09  0.0000000E+00 -0.1783065E-04
  0.5404040E+00  0.0000000E+00  0.1515152E-01  0.2153902E-09  0.0000000E+00 -0.1783029E-04
  0.5505050E+00  0.0000000E+00  0.1515152E-01 -0.4191575E-09  0.0000000E+00 -0.1783036E-04
  0.5606061E+00  0.0000000E+00  0.1515152E-01 -0.1048723E-08  0.0000000E+00 -0.1783086E-04
  0.5707071E+00  0.0000000E+00  0.1515152E-01 -0.1669204E-08  0.0000000E+00 -0.1783177E-04
  0.5808081E+00  0.0000000E+00  0.1515152E-01 -0.2276583E-08  0.0000000E+00 -0.1783311E-04
  0.5909091E+00  0.0000000E+00  0.1515152E-01 -0.2866978E-08  0.0000000E+00 -0.1783485E-04
  0.6010101E+00  0.0000000E+00  0.1515152E-01 -0.3436687E-08  0.0000000E+00 -0.1783698E-04
  0.6111111E+00  0.0000000E+00  0.1515152E-01 -0.3982224E-08  0.0000000E+00 -0.1783948E-04
  0.6212121E+00  0.0000000E+00  0.1515152E-01 -0.4500361E-08  0.0000000E+00 -0.1784235E-04
  0.6313131E+00  0.0000000E+00  0.1515152E-01 -0.4988156E-08  0.0000000E+00 -0.1784555E-04
  0.6414142E+00  0.0000000E+00  0.1515152E-01 -0.5442979E-08  0.0000000E+00 -0.1784908E-04
  0.6515151E+00  0.0000000E+00  0.1515152E-01 -0.5862528E-08  0.0000000E+00 -0.1785290E-04
  0.6616161E+00  0.0000000E+00  0.1515152E-01 -0.6244848E-08  0.0000000E+00 -0.1785698E-04
  0.6717172E+00  0.0000000E+00  0.1515152E-01 -0.6588333E-08  0.0000000E+00 -0.1786132E-04
  0.6818182E+00  0.0000000E+00  0.1515152E-01 -0.6891729E-08  0.0000000E+00 -0.1786587E-04
  0.6919192E+00  0.0000000E+00  0.1515152E-01 -0.7154126E-08  0.0000000E+00 -0.1787061E-04
  0.7020202E+00  0.0000000E+00  0.1515152E-01 -0.7374956E-08  0.0000000E+00 -0.1787552E-04
  0.7121212E+00  0.0000000E+00  0.1515152E-01 -0.7553969E-08  0.0000000E+00 -0.1788056E-04
  0.7222222E+00  0.0000000E+00  0.1515152E-01 -0.7691224E-08  0.0000000E+00 -0.1788570E-04
  0.7323232E+00  0.0000000E+00  0.1515152E-01 -0.7787061E-08  0.0000000E+00 -0.1789093E-04
  0.7424242E+00  0.0000000E+00  0.1515152E-01 -0.7842082E-08  0.0000000E+00 -0.1789620E-04
  0.7525253E+00  0.0000000E+00  0.1515152E-01 -0.7857123E-08  0.0000000E+00 -0.1790150E-04
  0.7626263E+00  0.0000000E+00  0.1515152E-01 -0.7833231E-08  0.0000000E+00 -0.1790679E-04
  0.7727273E+00  0.0000000E+00  0.1515152E-01 -0.7771633E-08  0.0000000E+00 -0.1791206E-04
  0.7828283E+00  0.0000000E+00  0.1515152E-01 -0.7673710E-08  0.0000000E+00 -0.1791727E-04
  0.7929293E+00  0.0000000E+00  0.1515152E-01 -0.7540976E-08  0.0000000E+00 -0.1792240E-04
  0.8030303E+00  0.0000000E+00  0.1515152E-01 -0.7375046E-08  0.0000000E+00 -0.1792743E-04
  0.8131313E+00  0.0000000E+00  0.1515152E-01 -0.7177618E-08  0.0000000E+00 -0.1793234E-04
  0.8232324E+00  0.0000000E+00  0.1515152E-01 -0.6950446E-08  0.0000000E+00 -0.1793710E-04
  0.8333333E+00  0.0000000E+00  0.1515152E-01 -0.6695326E-08  0.0000000E+00 -0.1794170E-04
  0.8434343E+00  0.0000000E+00  0.1515152E-01 -0.6414073E-08  0.0000000E+00 -0.1794612E-04
  0.8535354E+00  0.0000000E+00  0.1515152E-01 -0.6108510E-08  0.0000000E+00 -0.1795034E-04
  0.8636364E+00  0.0000000E+00  0.1515152E-01 -0.5780450E-08  0.0000000E+00 -0.1795435E-04
  0.8737374E+00  0.0000000E+00  0.1515152E-01 -0.5431689E-08  0.0000000E+00 -0.1795813E-04
  0.8838384E+00  0.0000000E+00  0.1515152E-01 -0.5063992E-08  0.0000000E+00 -0.1796167E-04
  0.8939394E+00  0.0000000E+00  0.1515152E-01 -0.4679093E-08  0.0000000E+00 -0.1796495E-04
  0.9040404E+00  0.0000000E+00  0.1515152E-01 -0.4278684E-08  0.0000000E+00 -0.1796797E-04
  0.9141414E+00  0.0000000E+00  0.1515152E-01 -0.3864415E-08  0.0000000E+00 -0.1797072E-04
  0.9242424E+00  0.0000000E+00  0.1515152E-01 -0.3437893E-08  0.0000000E+00 -0.1797318E-04
  0.9343435E+00  0.0000000E+00  0.1515152E-01 -0.3000681E-08  0.0000000E+00 -0.1797535E-04
  0.9444444E+00  0.0000000E+00  0.1515152E-01 -0.2554300E-08  0.0000000E+00 -0.1797722E-04
  0.9545454E+00  0.0000000E+00  0.1515152E-01 -0.2100232E-08  0.0000000E+00 -0.1797879E-04
  0.9646465E+00  0.0000000E+00  0.1515152E-01 -0.1639926E-08  0.0000000E+00 -0.1798005E-04
  0.9747475E+00  0.0000000E+00  0.1515152E-01 -0.1174800E-08  0.0000000E+00 -0.1798100E-04
  0.9848485E+00  0.0000000E+00  0.1515152E-01 -0.7062485E-09  0.0000000E+00 -0.1798163E-04
  0.9974747E+00  0.0000000E+00  0.1515152E-01 -0.2356503E-09  0.0000000E+00 -0.1798195E-04
  0.5050505E-02  0.0000000E+00  0.2525252E-01  0.3272634E-09  0.0000000E+00 -0.1795598E-04
  0.1515152E-01  0.0000000E+00  0.2525252E-01  0.9815095E-09  0.0000000E+00 -0.1795571E-04
  0.2525252E-01  0.0000000E+00  0.2525252E-01  0.1634862E-08  0.0000000E+00 -0.1795518E-04
  0.3535353E-01  0.0000000E+00  0.2525252E-01  0.2286696E-08  0.0000000E+00 -0.1795437E-04
  0.4545455E-01  0.0000000E+00  0.2525252E-01  0.2936362E-08  0.0000000E+00 -0.1795330E-04
  0.5555556E-01  0.0000000E+00  0.2525252E-01  0.3583164E-08  0.0000000E+00 -0.1795197E-04
  0.6565657E-01  0.0000000E+00  0.2525252E-01  0.4226350E-08  0.0000000E+00 -0.1795037E-04
  0.7575758E-01  0.0000000E+00  0.2525252E-01  0.4865096E-08  0.0000000E+00 -0.1794851E-04
  0.8585858E-01  0.0000000E+00  0.2525252E-01  0.5498504E-08  0.0000000E+00 -0.1794639E-04
  0.9595960E-01  0.0000000E+00  0.2525252E-01  0.6125579E-08  0.0000000E+00 -0.1794401E-04
  0.1060606E+00  0.0000000E+00  0.2525252E-01  0.6745228E-08  0.0000000E+00 -0.1794137E-04
  0.1161616E+00  0.0000000E+00  0.2525252E-01  0.7356250E-08  0.0000000E+00 -0.1793849E-04
  0.1262626E+00  0.0000000E+00  0.2525252E-01  0.7957323E-08  0.0000000E+00 -0.1793535E-04
  0.1363636E+00  0.0000000E+00  0.2525252E-01  0.8547002E-08  0.0000000E+00 -0.1793197E-04
  0.1464646E+00  0.0000000E+00  0.2525252E-01  0.9123709E-08  0.0000000E+00 -0.1792835E-04
  0.1565657E+00  0.0000000E+00  0.2525252E-01  0.9685734E-08  0.0000000E+00 -0.1792449E-04
  0.1666667E+00  0.0000000E+00  0.2525252E-01  0.1023123E-07  0.0000000E+00 -0.1792041E-04
  0.1767677E+00  0.0000000E+00  0.2525252E-01  0.1075820E-07  0.0000000E+00 -0.1791611E-04
  0.1868687E+00  0.0000000E+00  0.2525252E-01  0.1126454E-07  0.0000000E+00 -0.1791159E-04
  0.1969697E+00  0.0000000E+00  0.2525252E-01  0.1174798E-07  0.0000000E+00 -0.1790687E-04
  0.2070707E+00  0.0000000E+00  0.2525252E-01  0.1220615E-07  0.0000000E+00 -0.1790195E-04
  0.2171717E+00  0.0000000E+00  0.2525252E-01  0.1263654E-07  0.0000000E+00 -0.1789686E-04
  0.2272727E+00  0.0000000E+00  0.2525252E-01  0.1303656E-07  0.0000000E+00 -0.1789158E-04
  0.2373737E+00  0.0000000E+00  0.2525252E-01  0.1340350E-07  0.0000000E+00 -0.1788616E-04
  0.2474747E+00  0.0000000E+00  0.2525252E-01  0.1373461E-07  0.0000000E+00 -0.1788058E-04
  0.2575758E+00  0.0000000E+00  0.2525252E-01  0.1402706E-07  0.0000000E+00 -0.1787488E-04
  0.2676768E+00  0.0000000E+00  0.2525252E-01  0.1427802E-07  0.0000000E+00 -0.1786906E-04
  0.2777778E+00  0.0000000E+00  0.2525252E-01  0.1448463E-07  0.0000000E+00 -0.1786315E-04
  0.2878788E+00  0.0000000E+00  0.2525252E-01  0.1464410E-07  0.0000000E+00 -0.1785715E-04
  0.2979798E+00  0.0000000E+00  0.2525252E-01  0.1475368E-07  0.0000000E+00 -0.1785111E-04
  0.3080808E+00  0.0000000E+00  0.2525252E-01  0.1481073E-07  0.0000000E+00 -0.1784502E-04
  0.3181818E+00  0.0000000E+00  0.2525252E-01  0.1481277E-07  0.0000000E+00 -0.1783892E-04
  0.3282828E+00  0.0000000E+00  0.2525252E-01  0.1475749E-07  0.0000000E+00 -0.1783283E-04
  0.3383838E+00  0.0000000E+00  0.2525252E-01  0.1464282E-07  0.0000000E+00 -0.1782678E-04
  0.3484848E+00  0.0000000E+00  0.2525252E-01  0.1446696E-07  0.0000000E+00 -0.1782078E-04
  0.3585859E+00  0.0000000E+00  0.2525252E-01  0.1422844E-07  0.0000000E+00 -0.1781486E-04
  0.3686869E+00  0.0000000E+00  0.2525252E-01  0.1392615E-07  0.0000000E+00 -0.1780906E-04
  0.3787879E+00  0.0000000E+00  0.2525252E-01  0.1355939E-07  0.0000000E+00 -0.1780339E-04
  0.3888889E+00  0.0000000E+00  0.2525252E-01  0.1312791E-07  0.0000000E+00 -0.1779788E-04
  0.3989899E+00  0.0000000E+00  0.2525252E-01  0.1263197E-07  0.0000000E+00 -0.1779257E-04
  0.4090909E+00  0.0000000E+00  0.2525252E-01  0.1207230E-07  0.0000000E+00 -0.1778747E-04
  0.4191919E+00  0.0000000E+00  0.2525252E-01  0.1145024E-07  0.0000000E+00 -0.1778261E-04
  0.4292929E+00  0.0000000E+00  0.2525252E-01  0.1076764E-07  0.0000000E+00 -0.1777802E-04
  0.4393939E+00  0.0000000E+00  0.2525252E-01  0.1002698E-07  0.0000000E+00 -0.1777373E-04
  0.4494950E+00  0.0000000E+00  0.2525252E-01  0.9231290E-08  0.0000000E+00 -0.1776975E-04
  0.4595959E+00  0.0000000E+00  0.2525252E-01  0.8384192E-08  0.0000000E+00 -0.1776611E-04
  0.4696970E+00  0.0000000E+00  0.2525252E-01  0.7489870E-08  0.0000000E+00 -0.1776282E-04
  0.4797980E+00  0.0000000E+00  0.2525252E-01  0.6553043E-08  0.0000000E+00 -0.1775992E-04
  0.4898990E+00  0.0000000E+00  0.2525252E-01  0.5578934E-08  0.0000000E+00 -0.1775741E-04
  0.5000000E+00  0.0000000E+00  0.2525252E-01  0.4573218E-08  0.0000000E+00 -0.1775531E-04
  0.5101010E+00  0.0000000E+00  0.2525252E-01  0.3541971E-08  0.0000000E+00 -0.1775364E-04
  0.5202020E+00  0.0000000E+00  0.2525252E-01  0.2491605E-08  0.0000000E+00 -0.1775239E-04
  0.5303030E+00  0.0000000E+00  0.2525252E-01  0.1428796E-08  0.0000000E+00 -0.1775158E-04
  0.5404040E+00  0.0000000E+00  0.2525252E-01  0.3604061E-09  0.0000000E+00 -0.1775121E-04
  0.5505050E+00  0.0000000E+00  0.2525252E-01 -0.7065947E-09  0.0000000E+00 -0.1775129E-04
  0.5606061E+00  0.0000000E+00  0.2525252E-01 -0.1765217E-08  0.0000000E+00 -0.1775180E-04
  0.5707071E+00  0.0000000E+00  0.2525252E-01 -0.2808535E-08  0.0000000E+00 -0.1775275E-04
  0.5808081E+00  0.0000000E+00  0.2525252E-01 -0.3829770E-08  0.0000000E+00 -0.1775413E-04
  0.5909091E+00  0.0000000E+00  0.2525252E-01 -0.4822369E-08  0.0000000E+00 -0.1775592E-04
  0.6010101E+00  0.0000000E+00  0.2525252E-01 -0.5780084E-08  0.0000000E+00 -0.1775812E-04
  0.6111111E+00  0.0000000E+00  0.2525252E-01 -0.6697041E-08  0.0000000E+00 -0.1776070E-04
  0.6212121E+00  0.0000000E+00  0.2525252E-01 -0.7567797E-08  0.0000000E+00 -0.1776365E-04
  0.6313131E+00  0.0000000E+00  0.2525252E-01 -0.8387399E-08  0.0000000E+00 -0.1776696E-04
  0.6414142E+00  0.0000000E+00  0.2525252E-01 -0.9151419E-08  0.0000000E+00 -0.1777059E-04
  0.6515151E+00  0.0000000E+00  0.2525252E-01 -0.9855991E-08  0.0000000E+00 -0.1777452E-04
  0.6616161E+00  0.0000000E+00  0.2525252E-01 -0.1049783E-07  0.0000000E+00 -0.1777873E-04
  0.6717172E+00  0.0000000E+00  0.2525252E-01 -0.1107425E-07  0.0000000E+00 -0.1778319E-04
  0.6818182E+00  0.0000000E+00  0.2525252E-01 -0.1158316E-07  0.0000000E+00 -0.1778788E-04
  0.6919192E+00  0.0000000E+00  0.2525252E-01 -0.1202304E-07  0.0000000E+00 -0.1779276E-04
  0.7020202E+00  0.0000000E+00  0.2525252E-01 -0.1239297E-07  0.0000000E+00 -0.1779780E-04
  0.7121212E+00  0.0000000E+00  0.2525252E-01 -0.1269253E-07  0.0000000E+00 -0.1780299E-04
  0.7222222E+00  0.0000000E+00  0.2525252E-01 -0.1292187E-07  0.0000000E+00 -0.1780828E-04
  0.7323232E+00  0.0000000E+00  0.2525252E-01 -0.1308157E-07  0.0000000E+00 -0.1781365E-04
  0.7424242E+00  0.0000000E+00  0.2525252E-01 -0.1317267E-07  0.0000000E+00 -0.1781907E-04
  0.7525253E+00  0.0000000E+00  0.2525252E-01 -0.1319660E-07  0.0000000E+00 -0.1782451E-04
  0.7626263E+00  0.0000000E+00  0.2525252E-01 -0.1315515E-07  0.0000000E+00 -0.1782994E-04
  0.7727273E+00  0.0000000E+00  0.2525252E-01 -0.1305041E-07  0.0000000E+00 -0.1783535E-04
  0.7828283E+00  0.0000000E+00  0.2525252E-01 -0.1288472E-07  0.0000000E+00 -0.1784070E-04
  0.7929293E+00  0.0000000E+00  0.2525252E-01 -0.1266063E-07  0.0000000E+00 -0.1784596E-04
  0.8030303E+00  0.0000000E+00  0.2525252E-01 -0.1238089E-07  0.0000000E+00 -0.1785112E-04
  0.8131313E+00  0.0000000E+00  0.2525252E-01 -0.1204836E-07  0.0000000E+00 -0.1785616E-04
  0.8232324E+00  0.0000000E+00  0.2525252E-01 -0.1166600E-07  0.0000000E+00 -0.1786104E-04
  0.8333333E+00  0.0000000E+00  0.2525252E-01 -0.1123684E-07  0.0000000E+00 -0.1786576E-04
  0.8434343E+00  0.0000000E+00  0.2525252E-01 -0.1076394E-07  0.0000000E+00 -0.1787029E-04
  0.8535354E+00  0.0000000E+00  0.2525252E-01 -0.1025036E-07  0.0000000E+00 -0.1787461E-04
  0.8636364E+00  0.0000000E+00  0.2525252E-01 -0.9699149E-08  0.0000000E+00 -0.1787872E-04
  0.8737374E+00  0.0000000E+00  0.2525252E-01 -0.9113326E-08  0.0000000E+00 -0.1788259E-04
  0.8838384E+00  0.0000000E+00  0.2525252E-01 -0.8495856E-08  0.0000000E+00 -0.1788621E-04
  0.8939394E+00  0.0000000E+00  0.2525252E-01 -0.7849643E-08  0.0000000E+00 -0.1788957E-04
  0.9040404E+00  0.0000000E+00  0.2525252E-01 -0.7177525E-08  0.0000000E+00 -0.1789266E-04
  0.9141414E+00  0.0000000E+00  0.2525252E-01 -0.6482265E-08  0.0000000E+00 -0.1789547E-04
  0.9242424E+00  0.0000000E+00  0.2525252E-01 -0.5766551E-08  0.0000000E+00 -0.1789799E-04
  0.9343435E+00  0.0000000E+00  0.2525252E-01 -0.5032997E-08  0.0000000E+00 -0.1790021E-04
  0.9444444E+00  0.0000000E+00  0.2525252E-01 -0.4284144E-08  0.0000000E+00 -0.1790212E-04
  0.9545454E+00  0.0000000E+00  0.2525252E-01 -0.3522470E-08  0.0000000E+00 -0.1790372E-04
  0.9646465E+00  0.0000000E+00  0.2525252E-01 -0.2750390E-08  0.0000000E+00 -0.1790501E-04
  0.9747475E+00  0.0000000E+00  0.2525252E-01 -0.1970273E-08  0.0000000E+00 -0.1790598E-04
  0.9848485E+00  0.0000000E+00  0.2525252E-01 -0.1184444E-08  0.0000000E+00 -0.1790663E-04
  0.9974747E+00  0.0000000E+00  0.2525252E-01 -0.3952016E-09  0.0000000E+00 -0.1790696E-04
  0.5050505E-02  0.0000000E+00  0.3535353E-01  0.4617782E-09  0.0000000E+00 -0.1784503E-04
  0.1515152E-01  0.0000000E+00  0.3535353E-01  0.1384944E-08  0.0000000E+00 -0.1784475E-04
  0.2525252E-01  0.0000000E+00  0.3535353E-01  0.2306879E-08  0.0000000E+00 -0.1784420E-04
  0.3535353E-01  0.0000000E+00  0.3535353E-01  0.3226722E-08  0.0000000E+00 -0.1784338E-04
  0.4545455E-01  0.0000000E+00  0.3535353E-01  0.4143577E-08  0.0000000E+00 -0.1784228E-04
  0.5555556E-01  0.0000000E+00  0.3535353E-01  0.5056480E-08  0.0000000E+00 -0.1784091E-04
  0.6565657E-01  0.0000000E+00  0.3535353E-01  0.5964388E-08  0.0000000E+00 -0.1783927E-04
  0.7575758E-01  0.0000000E+00  0.3535353E-01  0.6866161E-08  0.0000000E+00 -0.1783735E-04
  0.8585858E-01  0.0000000E+00  0.3535353E-01  0.7760543E-08  0.0000000E+00 -0.1783517E-04
  0.9595960E-01  0.0000000E+00  0.3535353E-01  0.8646152E-08  0.0000000E+00 -0.1783272E-04
  0.1060606E+00  0.0000000E+00  0.3535353E-01  0.9521461E-08  0.0000000E+00 -0.1783001E-04
  0.1161616E+00  0.0000000E+00  0.3535353E-01  0.1038479E-07  0.0000000E+00 -0.1782704E-04
  0.1262626E+00  0.0000000E+00  0.3535353E-01  0.1123427E-07  0.0000000E+00 -0.1782382E-04
  0.1363636E+00  0.0000000E+00  0.3535353E-01  0.1206790E-07  0.0000000E+00 -0.1782034E-04
  0.1464646E+00  0.0000000E+00  0.3535353E-01  0.1288344E-07  0.0000000E+00 -0.1781661E-04
  0.1565657E+00  0.0000000E+00  0.3535353E-01  0.1367850E-07  0.0000000E+00 -0.1781264E-04
  0.1666667E+00  0.0000000E+00  0.3535353E-01  0.1445046E-07  0.0000000E+00 -0.1780843E-04
  0.1767677E+00  0.0000000E+00  0.3535353E-01  0.1519653E-07  0.0000000E+00 -0.1780400E-04
  0.1868687E+00  0.0000000E+00  0.3535353E-01  0.1591371E-07  0.0000000E+00 -0.1779934E-04
  0.1969697E+00  0.0000000E+00  0.3535353E-01  0.1659881E-07  0.0000000E+00 -0.1779448E-04
  0.2070707E+00  0.0000000E+00  0.3535353E-01  0.1724845E-07  0.0000000E+00 -0.1778941E-04
  0.2171717E+00  0.0000000E+00  0.3535353E-01  0.1785911E-07  0.0000000E+00 -0.1778415E-04
  0.2272727E+00  0.0000000E+00  0.3535353E-01  0.1842709E-07  0.0000000E+00 -0.1777871E-04
  0.2373737E+00  0.0000000E+00  0.3535353E-01  0.1894856E-07  0.0000000E+00 -0.1777310E-04
  0.2474747E+00  0.0000000E+00  0.3535353E-01  0.1941959E-07  0.0000000E+00 -0.1776734E-04
  0.2575758E+00  0.0000000E+00  0.3535353E-01  0.1983618E-07  0.0000000E+00 -0.1776144E-04
  0.2676768E+00  0.0000000E+00  0.3535353E-01  0.2019428E-07  0.0000000E+00 -0.1775543E-04
  0.2777778E+00  0.0000000E+00  0.3535353E-01  0.2048982E-07  0.0000000E+00 -0.1774931E-04
  0.2878788E+00  0.0000000E+00  0.3535353E-01  0.2071881E-07  0.0000000E+00 -0.1774311E-04
  0.2979798E+00  0.0000000E+00  0.3535353E-01  0.2087731E-07  0.0000000E+00 -0.1773685E-04