title = "dataset water"
variables = "x", "y", "z", "vx", "vy", "vz"
zone t = "velocities, solution time =  2.300E+01 days        " i =   99, j =   99, k =    1,  f=point
  0.5050505E-02  0.0000000E+00  0.5050505E-02  0.1986159E-09  0.0000000E+00 -0.1432538E-04
  0.1515152E-01  0.0000000E+00  0.5050505E-02  0.5957665E-09  0.0000000E+00 -0.1432459E-04
  0.2525252E-01  0.0000000E+00  0.5050505E-02  0.9926643E-09  0.0000000E+00 -0.1432300E-04
  0.3535353E-01  0.0000000E+00  0.5050505E-02  0.1389128E-08  0.0000000E+00 -0.1432061E-04
  0.4545455E-01  0.0000000E+00  0.5050505E-02  0.1784960E-08  0.0000000E+00 -0.1431743E-04
  0.5555556E-01  0.0000000E+00  0.5050505E-02  0.2179936E-08  0.0000000E+00 -0.1431346E-04
  0.6565657E-01  0.0000000E+00  0.5050505E-02  0.2573801E-08  0.0000000E+00 -0.1430870E-04
  0.7575758E-01  0.0000000E+00  0.5050505E-02  0.2966260E-08  0.0000000E+00 -0.1430315E-04
  0.8585858E-01  0.0000000E+00  0.5050505E-02  0.3356973E-08  0.0000000E+00 -0.1429681E-04
  0.9595960E-01  0.0000000E+00  0.5050505E-02  0.3745545E-08  0.0000000E+00 -0.1428970E-04
  0.1060606E+00  0.0000000E+00  0.5050505E-02  0.4131522E-08  0.0000000E+00 -0.1428181E-04
  0.1161616E+00  0.0000000E+00  0.5050505E-02  0.4514385E-08  0.0000000E+00 -0.1427315E-04
  0.1262626E+00  0.0000000E+00  0.5050505E-02  0.4893539E-08  0.0000000E+00 -0.1426372E-04
  0.1363636E+00  0.0000000E+00  0.5050505E-02  0.5268313E-08  0.0000000E+00 -0.1425354E-04
  0.1464646E+00  0.0000000E+00  0.5050505E-02  0.5637948E-08  0.0000000E+00 -0.1424262E-04
  0.1565657E+00  0.0000000E+00  0.5050505E-02  0.6001595E-08  0.0000000E+00 -0.1423096E-04
  0.1666667E+00  0.0000000E+00  0.5050505E-02  0.6358311E-08  0.0000000E+00 -0.1421858E-04
  0.1767677E+00  0.0000000E+00  0.5050505E-02  0.6707049E-08  0.0000000E+00 -0.1420549E-04
  0.1868687E+00  0.0000000E+00  0.5050505E-02  0.7046658E-08  0.0000000E+00 -0.1419171E-04
  0.1969697E+00  0.0000000E+00  0.5050505E-02  0.7375882E-08  0.0000000E+00 -0.1417726E-04
  0.2070707E+00  0.0000000E+00  0.5050505E-02  0.7693352E-08  0.0000000E+00 -0.1416217E-04
  0.2171717E+00  0.0000000E+00  0.5050505E-02  0.7997588E-08  0.0000000E+00 -0.1414645E-04
  0.2272727E+00  0.0000000E+00  0.5050505E-02  0.8286998E-08  0.0000000E+00 -0.1413014E-04
  0.2373737E+00  0.0000000E+00  0.5050505E-02  0.8559882E-08  0.0000000E+00 -0.1411326E-04
  0.2474747E+00  0.0000000E+00  0.5050505E-02  0.8814431E-08  0.0000000E+00 -0.1409586E-04
  0.2575758E+00  0.0000000E+00  0.5050505E-02  0.9048737E-08  0.0000000E+00 -0.1407796E-04
  0.2676768E+00  0.0000000E+00  0.5050505E-02  0.9260798E-08  0.0000000E+00 -0.1405962E-04
  0.2777778E+00  0.0000000E+00  0.5050505E-02  0.9448525E-08  0.0000000E+00 -0.1404088E-04
  0.2878788E+00  0.0000000E+00  0.5050505E-02  0.9609763E-08  0.0000000E+00 -0.1402179E-04
  0.2979798E+00  0.0000000E+00  0.5050505E-02  0.9742297E-08  0.0000000E+00 -0.1400240E-04
  0.3080808E+00  0.0000000E+00  0.5050505E-02  0.9843879E-08  0.0000000E+00 -0.1398278E-04
  0.3181818E+00  0.0000000E+00  0.5050505E-02  0.9912249E-08  0.0000000E+00 -0.1396299E-04
  0.3282828E+00  0.0000000E+00  0.5050505E-02  0.9945159E-08  0.0000000E+00 -0.1394310E-04
  0.3383838E+00  0.0000000E+00  0.5050505E-02  0.9940406E-08  0.0000000E+00 -0.1392318E-04
  0.3484848E+00  0.0000000E+00  0.5050505E-02  0.9895868E-08  0.0000000E+00 -0.1390331E-04
  0.3585859E+00  0.0000000E+00  0.5050505E-02  0.9809540E-08  0.0000000E+00 -0.1388357E-04
  0.3686869E+00  0.0000000E+00  0.5050505E-02  0.9679575E-08  0.0000000E+00 -0.1386405E-04
  0.3787879E+00  0.0000000E+00  0.5050505E-02  0.9504337E-08  0.0000000E+00 -0.1384483E-04
  0.3888889E+00  0.0000000E+00  0.5050505E-02  0.9282438E-08  0.0000000E+00 -0.1382601E-04
  0.3989899E+00  0.0000000E+00  0.5050505E-02  0.9012799E-08  0.0000000E+00 -0.1380769E-04
  0.4090909E+00  0.0000000E+00  0.5050505E-02  0.8694692E-08  0.0000000E+00 -0.1378995E-04
  0.4191919E+00  0.0000000E+00  0.5050505E-02  0.8327796E-08  0.0000000E+00 -0.1377290E-04
  0.4292929E+00  0.0000000E+00  0.5050505E-02  0.7912242E-08  0.0000000E+00 -0.1375663E-04
  0.4393939E+00  0.0000000E+00  0.5050505E-02  0.7448658E-08  0.0000000E+00 -0.1374125E-04
  0.4494950E+00  0.0000000E+00  0.5050505E-02  0.6938207E-08  0.0000000E+00 -0.1372683E-04
  0.4595959E+00  0.0000000E+00  0.5050505E-02  0.6382619E-08  0.0000000E+00 -0.1371349E-04
  0.4696970E+00  0.0000000E+00  0.5050505E-02  0.5784212E-08  0.0000000E+00 -0.1370130E-04
  0.4797980E+00  0.0000000E+00  0.5050505E-02  0.5145897E-08  0.0000000E+00 -0.1369036E-04
  0.4898990E+00  0.0000000E+00  0.5050505E-02  0.4471182E-08  0.0000000E+00 -0.1368072E-04
  0.5000000E+00  0.0000000E+00  0.5050505E-02  0.3764145E-08  0.0000000E+00 -0.1367247E-04
  0.5101010E+00  0.0000000E+00  0.5050505E-02  0.3029408E-08  0.0000000E+00 -0.1366567E-04
  0.5202020E+00  0.0000000E+00  0.5050505E-02  0.2272082E-08  0.0000000E+00 -0.1366036E-04
  0.5303030E+00  0.0000000E+00  0.5050505E-02  0.1497707E-08  0.0000000E+00 -0.1365658E-04
  0.5404040E+00  0.0000000E+00  0.5050505E-02  0.7121696E-09  0.0000000E+00 -0.1365437E-04
  0.5505050E+00  0.0000000E+00  0.5050505E-02 -0.7838167E-10  0.0000000E+00 -0.1365373E-04
  0.5606061E+00  0.0000000E+00  0.5050505E-02 -0.8676410E-09  0.0000000E+00 -0.1365468E-04
  0.5707071E+00  0.0000000E+00  0.5050505E-02 -0.1649249E-08  0.0000000E+00 -0.1365720E-04
  0.5808081E+00  0.0000000E+00  0.5050505E-02 -0.2416905E-08  0.0000000E+00 -0.1366128E-04
  0.5909091E+00  0.0000000E+00  0.5050505E-02 -0.3164469E-08  0.0000000E+00 -0.1366687E-04
  0.6010101E+00  0.0000000E+00  0.5050505E-02 -0.3886076E-08  0.0000000E+00 -0.1367393E-04
  0.6111111E+00  0.0000000E+00  0.5050505E-02 -0.4576223E-08  0.0000000E+00 -0.1368240E-04
  0.6212121E+00  0.0000000E+00  0.5050505E-02 -0.5229858E-08  0.0000000E+00 -0.1369223E-04
  0.6313131E+00  0.0000000E+00  0.5050505E-02 -0.5842456E-08  0.0000000E+00 -0.1370332E-04
  0.6414142E+00  0.0000000E+00  0.5050505E-02 -0.6410068E-08  0.0000000E+00 -0.1371559E-04
  0.6515151E+00  0.0000000E+00  0.5050505E-02 -0.6929367E-08  0.0000000E+00 -0.1372895E-04
  0.6616161E+00  0.0000000E+00  0.5050505E-02 -0.7397669E-08  0.0000000E+00 -0.1374330E-04
  0.6717172E+00  0.0000000E+00  0.5050505E-02 -0.7812941E-08  0.0000000E+00 -0.1375854E-04
  0.6818182E+00  0.0000000E+00  0.5050505E-02 -0.8173790E-08  0.0000000E+00 -0.1377455E-04
  0.6919192E+00  0.0000000E+00  0.5050505E-02 -0.8479441E-08  0.0000000E+00 -0.1379124E-04
  0.7020202E+00  0.0000000E+00  0.5050505E-02 -0.8729706E-08  0.0000000E+00 -0.1380847E-04
  0.7121212E+00  0.0000000E+00  0.5050505E-02 -0.8924933E-08  0.0000000E+00 -0.1382616E-04
  0.7222222E+00  0.0000000E+00  0.5050505E-02 -0.9065960E-08  0.0000000E+00 -0.1384418E-04
  0.7323232E+00  0.0000000E+00  0.5050505E-02 -0.9154054E-08  0.0000000E+00 -0.1386243E-04
  0.7424242E+00  0.0000000E+00  0.5050505E-02 -0.9190853E-08  0.0000000E+00 -0.1388081E-04
  0.7525253E+00  0.0000000E+00  0.5050505E-02 -0.9178303E-08  0.0000000E+00 -0.1389921E-04
  0.7626263E+00  0.0000000E+00  0.5050505E-02 -0.9118602E-08  0.0000000E+00 -0.1391754E-04
  0.7727273E+00  0.0000000E+00  0.5050505E-02 -0.9014139E-08  0.0000000E+00 -0.1393570E-04
  0.7828283E+00  0.0000000E+00  0.5050505E-02 -0.8867441E-08  0.0000000E+00 -0.1395361E-04
  0.7929293E+00  0.0000000E+00  0.5050505E-02 -0.8681124E-08  0.0000000E+00 -0.1397119E-04
  0.8030303E+00  0.0000000E+00  0.5050505E-02 -0.8457850E-08  0.0000000E+00 -0.1398836E-04
  0.8131313E+00  0.0000000E+00  0.5050505E-02 -0.8200285E-08  0.0000000E+00 -0.1400505E-04
  0.8232324E+00  0.0000000E+00  0.5050505E-02 -0.7911069E-08  0.0000000E+00 -0.1402118E-04
  0.8333333E+00  0.0000000E+00  0.5050505E-02 -0.7592786E-08  0.0000000E+00 -0.1403671E-04
  0.8434343E+00  0.0000000E+00  0.5050505E-02 -0.7247945E-08  0.0000000E+00 -0.1405158E-04
  0.8535354E+00  0.0000000E+00  0.5050505E-02 -0.6878957E-08  0.0000000E+00 -0.1406573E-04
  0.8636364E+00  0.0000000E+00  0.5050505E-02 -0.6488127E-08  0.0000000E+00 -0.1407912E-04
  0.8737374E+00  0.0000000E+00  0.5050505E-02 -0.6077643E-08  0.0000000E+00 -0.1409171E-04
  0.8838384E+00  0.0000000E+00  0.5050505E-02 -0.5649575E-08  0.0000000E+00 -0.1410346E-04
  0.8939394E+00  0.0000000E+00  0.5050505E-02 -0.5205867E-08  0.0000000E+00 -0.1411433E-04
  0.9040404E+00  0.0000000E+00  0.5050505E-02 -0.4748344E-08  0.0000000E+00 -0.1412430E-04
  0.9141414E+00  0.0000000E+00  0.5050505E-02 -0.4278715E-08  0.0000000E+00 -0.1413335E-04
  0.9242424E+00  0.0000000E+00  0.5050505E-02 -0.3798577E-08  0.0000000E+00 -0.1414144E-04
  0.9343435E+00  0.0000000E+00  0.5050505E-02 -0.3309423E-08  0.0000000E+00 -0.1414856E-04
  0.9444444E+00  0.0000000E+00  0.5050505E-02 -0.2812655E-08  0.0000000E+00 -0.1415469E-04
  0.9545454E+00  0.0000000E+00  0.5050505E-02 -0.2309589E-08  0.0000000E+00 -0.1415982E-04
  0.9646465E+00  0.0000000E+00  0.5050505E-02 -0.1801471E-08  0.0000000E+00 -0.1416394E-04
  0.9747475E+00  0.0000000E+00  0.5050505E-02 -0.1289486E-08  0.0000000E+00 -0.1416704E-04
  0.9848485E+00  0.0000000E+00  0.5050505E-02 -0.7747741E-09  0.0000000E+00 -0.1416910E-04
  0.9974747E+00  0.0000000E+00  0.5050505E-02 -0.2584389E-09  0.0000000E+00 -0.1417014E-04
  0.5050505E-02  0.0000000E+00  0.1515152E-01  0.5967795E-09  0.0000000E+00 -0.1429901E-04
  0.1515152E-01  0.0000000E+00  0.1515152E-01  0.1790098E-08  0.0000000E+00 -0.1429821E-04
  0.2525252E-01  0.0000000E+00  0.1515152E-01  0.2982670E-08  0.0000000E+00 -0.1429660E-04
  0.3535353E-01  0.0000000E+00  0.1515152E-01  0.4173960E-08  0.0000000E+00 -0.1429420E-04
  0.4545455E-01  0.0000000E+00  0.1515152E-01  0.5363382E-08  0.0000000E+00 -0.1429099E-04
  0.5555556E-01  0.0000000E+00  0.1515152E-01  0.6550273E-08  0.0000000E+00 -0.1428699E-04
  0.6565657E-01  0.0000000E+00  0.1515152E-01  0.7733874E-08  0.0000000E+00 -0.1428219E-04
  0.7575758E-01  0.0000000E+00  0.1515152E-01  0.8913309E-08  0.0000000E+00 -0.1427660E-04
  0.8585858E-01  0.0000000E+00  0.1515152E-01  0.1008756E-07  0.0000000E+00 -0.1427022E-04
  0.9595960E-01  0.0000000E+00  0.1515152E-01  0.1125546E-07  0.0000000E+00 -0.1426305E-04
  0.1060606E+00  0.0000000E+00  0.1515152E-01  0.1241564E-07  0.0000000E+00 -0.1425509E-04
  0.1161616E+00  0.0000000E+00  0.1515152E-01  0.1356655E-07  0.0000000E+00 -0.1424636E-04
  0.1262626E+00  0.0000000E+00  0.1515152E-01  0.1470643E-07  0.0000000E+00 -0.1423686E-04
  0.1363636E+00  0.0000000E+00  0.1515152E-01  0.1583325E-07  0.0000000E+00 -0.1422660E-04
  0.1464646E+00  0.0000000E+00  0.1515152E-01  0.1694474E-07  0.0000000E+00 -0.1421558E-04
  0.1565657E+00  0.0000000E+00  0.1515152E-01  0.1803837E-07  0.0000000E+00 -0.1420382E-04
  0.1666667E+00  0.0000000E+00  0.1515152E-01  0.1911130E-07  0.0000000E+00 -0.1419133E-04
  0.1767677E+00  0.0000000E+00  0.1515152E-01  0.2016039E-07  0.0000000E+00 -0.1417813E-04
  0.1868687E+00  0.0000000E+00  0.1515152E-01  0.2118219E-07  0.0000000E+00 -0.1416423E-04
  0.1969697E+00  0.0000000E+00  0.1515152E-01  0.2217293E-07  0.0000000E+00 -0.1414966E-04
  0.2070707E+00  0.0000000E+00  0.1515152E-01  0.2312850E-07  0.0000000E+00 -0.1413442E-04
  0.2171717E+00  0.0000000E+00  0.1515152E-01  0.2404446E-07  0.0000000E+00 -0.1411856E-04
  0.2272727E+00  0.0000000E+00  0.1515152E-01  0.2491601E-07  0.0000000E+00 -0.1410209E-04
  0.2373737E+00  0.0000000E+00  0.1515152E-01  0.2573805E-07  0.0000000E+00 -0.1408505E-04
  0.2474747E+00  0.0000000E+00  0.1515152E-01  0.2650514E-07  0.0000000E+00 -0.1406748E-04
  0.2575758E+00  0.0000000E+00  0.1515152E-01  0.2721153E-07  0.0000000E+00 -0.1404940E-04
  0.2676768E+00  0.0000000E+00  0.1515152E-01  0.2785120E-07  0.0000000E+00 -0.1403087E-04
  0.2777778E+00  0.0000000E+00  0.1515152E-01  0.2841786E-07  0.0000000E+00 -0.1401194E-04
  0.2878788E+00  0.0000000E+00  0.1515152E-01  0.2890500E-07  0.0000000E+00 -0.1399264E-04
  0.2979798E+00  0.0000000E+00  0.1515152E-01  0.2930597E-07  0.0000000E+00 -0.1397305E-04
  0.3080808E+00  0.0000000E+00  0.1515152E-01  0.2961397E-07  0.0000000E+00 -0.1395321E-04
  0.3181818E+00  0.0000000E+00  0.1515152E-01  0.2982218E-07  0.0000000E+00 -0.1393319E-04
  0.3282828E+00  0.0000000E+00  0.1515152E-01  0.2992380E-07  0.0000000E+00 -0.1391307E-04
  0.3383838E+00  0.0000000E+00  0.1515152E-01  0.2991219E-07  0.0000000E+00 -0.1389291E-04
  0.3484848E+00  0.0000000E+00  0.1515152E-01  0.2978091E-07  0.0000000E+00 -0.1387280E-04
  0.3585859E+00  0.0000000E+00  0.1515152E-01  0.2952389E-07  0.0000000E+00 -0.1385281E-04
  0.3686869E+00  0.0000000E+00  0.1515152E-01  0.2913553E-07  0.0000000E+00 -0.1383304E-04
  0.3787879E+00  0.0000000E+00  0.1515152E-01  0.2861085E-07  0.0000000E+00 -0.1381358E-04
  0.3888889E+00  0.0000000E+00  0.1515152E-01  0.2794563E-07  0.0000000E+00 -0.1379451E-04
  0.3989899E+00  0.0000000E+00  0.1515152E-01  0.2713655E-07  0.0000000E+00 -0.1377593E-04
  0.4090909E+00  0.0000000E+00  0.1515152E-01  0.2618138E-07  0.0000000E+00 -0.1375794E-04
  0.4191919E+00  0.0000000E+00  0.1515152E-01  0.2507909E-07  0.0000000E+00 -0.1374065E-04
  0.4292929E+00  0.0000000E+00  0.1515152E-01  0.2383002E-07  0.0000000E+00 -0.1372415E-04
  0.4393939E+00  0.0000000E+00  0.1515152E-01  0.2243601E-07  0.0000000E+00 -0.1370853E-04
  0.4494950E+00  0.0000000E+00  0.1515152E-01  0.2090053E-07  0.0000000E+00 -0.1369390E-04
  0.4595959E+00  0.0000000E+00  0.1515152E-01  0.1922874E-07  0.0000000E+00 -0.1368035E-04
  0.4696970E+00  0.0000000E+00  0.1515152E-01  0.1742759E-07  0.0000000E+00 -0.1366797E-04
  0.4797980E+00  0.0000000E+00  0.1515152E-01  0.1550584E-07  0.0000000E+00 -0.1365685E-04
  0.4898990E+00  0.0000000E+00  0.1515152E-01  0.1347404E-07  0.0000000E+00 -0.1364706E-04
  0.5000000E+00  0.0000000E+00  0.1515152E-01  0.1134448E-07  0.0000000E+00 -0.1363867E-04
  0.5101010E+00  0.0000000E+00  0.1515152E-01  0.9131116E-08  0.0000000E+00 -0.1363175E-04
  0.5202020E+00  0.0000000E+00  0.1515152E-01  0.6849365E-08  0.0000000E+00 -0.1362635E-04
  0.5303030E+00  0.0000000E+00  0.1515152E-01  0.4515961E-08  0.0000000E+00 -0.1362251E-04
  0.5404040E+00  0.0000000E+00  0.1515152E-01  0.2148700E-08  0.0000000E+00 -0.1362025E-04
  0.5505050E+00  0.0000000E+00  0.1515152E-01 -0.2338349E-09  0.0000000E+00 -0.1361960E-04
  0.5606061E+00  0.0000000E+00  0.1515152E-01 -0.2612575E-08  0.0000000E+00 -0.1362056E-04
  0.5707071E+00  0.0000000E+00  0.1515152E-01 -0.4968290E-08  0.0000000E+00 -0.1362312E-04
  0.5808081E+00  0.0000000E+00  0.1515152E-01 -0.7281917E-08  0.0000000E+00 -0.1362726E-04
  0.5909091E+00  0.0000000E+00  0.1515152E-01 -0.9534898E-08  0.0000000E+00 -0.1363294E-04
  0.6010101E+00  0.0000000E+00  0.1515152E-01 -0.1170949E-07  0.0000000E+00 -0.1364011E-04
  0.6111111E+00  0.0000000E+00  0.1515152E-01 -0.1378906E-07  0.0000000E+00 -0.1364873E-04
  0.6212121E+00  0.0000000E+00  0.1515152E-01 -0.1575835E-07  0.0000000E+00 -0.1365871E-04
  0.6313131E+00  0.0000000E+00  0.1515152E-01 -0.1760368E-07  0.0000000E+00 -0.1366998E-04
  0.6414142E+00  0.0000000E+00  0.1515152E-01 -0.1931315E-07  0.0000000E+00 -0.1368244E-04
  0.6515151E+00  0.0000000E+00  0.1515152E-01 -0.2087674E-07  0.0000000E+00 -0.1369602E-04
  0.6616161E+00  0.0000000E+00  0.1515152E-01 -0.2228635E-07  0.0000000E+00 -0.1371059E-04
  0.6717172E+00  0.0000000E+00  0.1515152E-01 -0.2353590E-07  0.0000000E+00 -0.1372606E-04
  0.6818182E+00  0.0000000E+00  0.1515152E-01 -0.2462121E-07  0.0000000E+00 -0.1374232E-04
  0.6919192E+00  0.0000000E+00  0.1515152E-01 -0.2553999E-07  0.0000000E+00 -0.1375925E-04
  0.7020202E+00  0.0000000E+00  0.1515152E-01 -0.2629174E-07  0.0000000E+00 -0.1377675E-04
  0.7121212E+00  0.0000000E+00  0.1515152E-01 -0.2687754E-07  0.0000000E+00 -0.1379469E-04
  0.7222222E+00  0.0000000E+00  0.1515152E-01 -0.2729998E-07  0.0000000E+00 -0.1381297E-04
  0.7323232E+00  0.0000000E+00  0.1515152E-01 -0.2756294E-07  0.0000000E+00 -0.1383147E-04
  0.7424242E+00  0.0000000E+00  0.1515152E-01 -0.2767140E-07  0.0000000E+00 -0.1385010E-04
  0.7525253E+00  0.0000000E+00  0.1515152E-01 -0.2763128E-07  0.0000000E+00 -0.1386875E-04
  0.7626263E+00  0.0000000E+00  0.1515152E-01 -0.2744924E-07  0.0000000E+00 -0.1388732E-04
  0.7727273E+00  0.0000000E+00  0.1515152E-01 -0.2713254E-07  0.0000000E+00 -0.1390572E-04
  0.7828283E+00  0.0000000E+00  0.1515152E-01 -0.2668882E-07  0.0000000E+00 -0.1392387E-04
  0.7929293E+00  0.0000000E+00  0.1515152E-01 -0.2612599E-07  0.0000000E+00 -0.1394166E-04
  0.8030303E+00  0.0000000E+00  0.1515152E-01 -0.2545210E-07  0.0000000E+00 -0.1395904E-04
  0.8131313E+00  0.0000000E+00  0.1515152E-01 -0.2467520E-07  0.0000000E+00 -0.1397593E-04
  0.8232324E+00  0.0000000E+00  0.1515152E-01 -0.2380325E-07  0.0000000E+00 -0.1399226E-04
  0.8333333E+00  0.0000000E+00  0.1515152E-01 -0.2284404E-07  0.0000000E+00 -0.1400797E-04
  0.8434343E+00  0.0000000E+00  0.1515152E-01 -0.2180514E-07  0.0000000E+00 -0.1402301E-04
  0.8535354E+00  0.0000000E+00  0.1515152E-01 -0.2069381E-07  0.0000000E+00 -0.1403732E-04
  0.8636364E+00  0.0000000E+00  0.1515152E-01 -0.1951698E-07  0.0000000E+00 -0.1405086E-04
  0.8737374E+00  0.0000000E+00  0.1515152E-01 -0.1828124E-07  0.0000000E+00 -0.1406359E-04
  0.8838384E+00  0.0000000E+00  0.1515152E-01 -0.1699280E-07  0.0000000E+00 -0.1407546E-04
  0.8939394E+00  0.0000000E+00  0.1515152E-01 -0.1565752E-07  0.0000000E+00 -0.1408645E-04
  0.9040404E+00  0.0000000E+00  0.1515152E-01 -0.1428086E-07  0.0000000E+00 -0.1409653E-04
  0.9141414E+00  0.0000000E+00  0.1515152E-01 -0.1286795E-07  0.0000000E+00 -0.1410566E-04
  0.9242424E+00  0.0000000E+00  0.1515152E-01 -0.1142360E-07  0.0000000E+00 -0.1411384E-04
  0.9343435E+00  0.0000000E+00  0.1515152E-01 -0.9952261E-08  0.0000000E+00 -0.1412103E-04
  0.9444444E+00  0.0000000E+00  0.1515152E-01 -0.8458147E-08  0.0000000E+00 -0.1412723E-04
  0.9545454E+00  0.0000000E+00  0.1515152E-01 -0.6945198E-08  0.0000000E+00 -0.1413241E-04
  0.9646465E+00  0.0000000E+00  0.1515152E-01 -0.5417141E-08  0.0000000E+00 -0.1413657E-04
  0.9747475E+00  0.0000000E+00  0.1515152E-01 -0.3877522E-08  0.0000000E+00 -0.1413969E-04
  0.9848485E+00  0.0000000E+00  0.1515152E-01 -0.2329748E-08  0.0000000E+00 -0.1414178E-04
  0.9974747E+00  0.0000000E+00  0.1515152E-01 -0.7771226E-09  0.0000000E+00 -0.1414283E-04
  0.5050505E-02  0.0000000E+00  0.2525252E-01  0.9983169E-09  0.0000000E+00 -0.1424638E-04
  0.1515152E-01  0.0000000E+00  0.2525252E-01  0.2994561E-08  0.0000000E+00 -0.1424556E-04
  0.2525252E-01  0.0000000E+00  0.2525252E-01  0.4989600E-08  0.0000000E+00 -0.1424394E-04
  0.3535353E-01  0.0000000E+00  0.2525252E-01  0.6982570E-08  0.0000000E+00 -0.1424150E-04
  0.4545455E-01  0.0000000E+00  0.2525252E-01  0.8972518E-08  0.0000000E+00 -0.1423824E-04
  0.5555556E-01  0.0000000E+00  0.2525252E-01  0.1095836E-07  0.0000000E+00 -0.1423418E-04
  0.6565657E-01  0.0000000E+00  0.2525252E-01  0.1293887E-07  0.0000000E+00 -0.1422931E-04
  0.7575758E-01  0.0000000E+00  0.2525252E-01  0.1491260E-07  0.0000000E+00 -0.1422363E-04
  0.8585858E-01  0.0000000E+00  0.2525252E-01  0.1687787E-07  0.0000000E+00 -0.1421714E-04
  0.9595960E-01  0.0000000E+00  0.2525252E-01  0.1883277E-07  0.0000000E+00 -0.1420986E-04
  0.1060606E+00  0.0000000E+00  0.2525252E-01  0.2077504E-07  0.0000000E+00 -0.1420178E-04
  0.1161616E+00  0.0000000E+00  0.2525252E-01  0.2270211E-07  0.0000000E+00 -0.1419291E-04
  0.1262626E+00  0.0000000E+00  0.2525252E-01  0.2461105E-07  0.0000000E+00 -0.1418326E-04
  0.1363636E+00  0.0000000E+00  0.2525252E-01  0.2649850E-07  0.0000000E+00 -0.1417282E-04
  0.1464646E+00  0.0000000E+00  0.2525252E-01  0.2836071E-07  0.0000000E+00 -0.1416163E-04
  0.1565657E+00  0.0000000E+00  0.2525252E-01  0.3019344E-07  0.0000000E+00 -0.1414967E-04
  0.1666667E+00  0.0000000E+00  0.2525252E-01  0.3199197E-07  0.0000000E+00 -0.1413697E-04
  0.1767677E+00  0.0000000E+00  0.2525252E-01  0.3375109E-07  0.0000000E+00 -0.1412354E-04
  0.1868687E+00  0.0000000E+00  0.2525252E-01  0.3546502E-07  0.0000000E+00 -0.1410940E-04
  0.1969697E+00  0.0000000E+00  0.2525252E-01  0.3712747E-07  0.0000000E+00 -0.1409456E-04
  0.2070707E+00  0.0000000E+00  0.2525252E-01  0.3873157E-07  0.0000000E+00 -0.1407905E-04
  0.2171717E+00  0.0000000E+00  0.2525252E-01  0.4026989E-07  0.0000000E+00 -0.1406289E-04
  0.2272727E+00  0.0000000E+00  0.2525252E-01  0.4173443E-07  0.0000000E+00 -0.1404612E-04
  0.2373737E+00  0.0000000E+00  0.2525252E-01  0.4311662E-07  0.0000000E+00 -0.1402875E-04
  0.2474747E+00  0.0000000E+00  0.2525252E-01  0.4440735E-07  0.0000000E+00 -0.1401083E-04
  0.2575758E+00  0.0000000E+00  0.2525252E-01  0.4559697E-07  0.0000000E+00 -0.1399240E-04
  0.2676768E+00  0.0000000E+00  0.2525252E-01  0.4667538E-07  0.0000000E+00 -0.1397350E-04
  0.2777778E+00  0.0000000E+00  0.2525252E-01  0.4763200E-07  0.0000000E+00 -0.1395417E-04
  0.2878788E+00  0.0000000E+00  0.2525252E-01  0.4845589E-07  0.0000000E+00 -0.1393446E-04
  0.2979798E+00  0.0000000E+00  0.2525252E-01  0.4913583E-07  0.0000000E+00 -0.1391444E-04
  0.3080808E+00  0.0000000E+00  0.2525252E-01  0.4966036E-07  0.0000000E+00 -0.1389416E-04
  0.3181818E+00  0.0000000E+00  0.2525252E-01  0.5001797E-07  0.0000000E+00 -0.1387370E-04
  0.3282828E+00  0.0000000E+00  0.2525252E-01  0.5019718E-07  0.0000000E+00 -0.1385311E-04
  0.3383838E+00  0.0000000E+00  0.2525252E-01  0.5018671E-07  0.0000000E+00 -0.1383247E-04
  0.3484848E+00  0.0000000E+00  0.2525252E-01  0.4997565E-07  0.0000000E+00 -0.1381187E-04
  0.3585859E+00  0.0000000E+00  0.2525252E-01  0.4955367E-07  0.0000000E+00 -0.1379139E-04
  0.3686869E+00  0.0000000E+00  0.2525252E-01  0.4891122E-07  0.0000000E+00 -0.1377112E-04
  0.3787879E+00  0.0000000E+00  0.2525252E-01  0.4803979E-07  0.0000000E+00 -0.1375115E-04
  0.3888889E+00  0.0000000E+00  0.2525252E-01  0.4693209E-07  0.0000000E+00 -0.1373157E-04
  0.3989899E+00  0.0000000E+00  0.2525252E-01  0.4558239E-07  0.0000000E+00 -0.1371249E-04
  0.4090909E+00  0.0000000E+00  0.2525252E-01  0.4398675E-07  0.0000000E+00 -0.1369401E-04
  0.4191919E+00  0.0000000E+00  0.2525252E-01  0.4214324E-07  0.0000000E+00 -0.1367623E-04
  0.4292929E+00  0.0000000E+00  0.2525252E-01  0.4005227E-07  0.0000000E+00 -0.1365925E-04
  0.4393939E+00  0.0000000E+00  0.2525252E-01  0.3771675E-07  0.0000000E+00 -0.1364317E-04
  0.4494950E+00  0.0000000E+00  0.2525252E-01  0.3514235E-07  0.0000000E+00 -0.1362810E-04
  0.4595959E+00  0.0000000E+00  0.2525252E-01  0.3233763E-07  0.0000000E+00 -0.1361414E-04
  0.4696970E+00  0.0000000E+00  0.2525252E-01  0.2931416E-07  0.0000000E+00 -0.1360137E-04
  0.4797980E+00  0.0000000E+00  0.2525252E-01  0.2608661E-07  0.0000000E+00 -0.1358989E-04
  0.4898990E+00  0.0000000E+00  0.2525252E-01  0.2267269E-07  0.0000000E+00 -0.1357979E-04
  0.5000000E+00  0.0000000E+00  0.2525252E-01  0.1909310E-07  0.0000000E+00 -0.1357113E-04
  0.5101010E+00  0.0000000E+00  0.2525252E-01  0.1537133E-07  0.0000000E+00 -0.1356397E-04
  0.5202020E+00  0.0000000E+00  0.2525252E-01  0.1153344E-07  0.0000000E+00 -0.1355839E-04
  0.5303030E+00  0.0000000E+00  0.2525252E-01  0.7607714E-08  0.0000000E+00 -0.1355441E-04
  0.5404040E+00  0.0000000E+00  0.2525252E-01  0.3624268E-08  0.0000000E+00 -0.1355207E-04
  0.5505050E+00  0.0000000E+00  0.2525252E-01 -0.3854332E-09  0.0000000E+00 -0.1355139E-04
  0.5606061E+00  0.0000000E+00  0.2525252E-01 -0.4389081E-08  0.0000000E+00 -0.1355237E-04
  0.5707071E+00  0.0000000E+00  0.2525252E-01 -0.8354085E-08  0.0000000E+00 -0.1355500E-04
  0.5808081E+00  0.0000000E+00  0.2525252E-01 -0.1224814E-07  0.0000000E+00 -0.1355927E-04
  0.5909091E+00  0.0000000E+00  0.2525252E-01 -0.1603979E-07  0.0000000E+00 -0.1356513E-04
  0.6010101E+00  0.0000000E+00  0.2525252E-01 -0.1969898E-07  0.0000000E+00 -0.1357253E-04
  0.6111111E+00  0.0000000E+00  0.2525252E-01 -0.2319755E-07  0.0000000E+00 -0.1358142E-04
  0.6212121E+00  0.0000000E+00  0.2525252E-01 -0.2650970E-07  0.0000000E+00 -0.1359172E-04
  0.6313131E+00  0.0000000E+00  0.2525252E-01 -0.2961231E-07  0.0000000E+00 -0.1360335E-04
  0.6414142E+00  0.0000000E+00  0.2525252E-01 -0.3248530E-07  0.0000000E+00 -0.1361621E-04
  0.6515151E+00  0.0000000E+00  0.2525252E-01 -0.3511180E-07  0.0000000E+00 -0.1363021E-04
  0.6616161E+00  0.0000000E+00  0.2525252E-01 -0.3747826E-07  0.0000000E+00 -0.1364523E-04
  0.6717172E+00  0.0000000E+00  0.2525252E-01 -0.3957448E-07  0.0000000E+00 -0.1366118E-04
  0.6818182E+00  0.0000000E+00  0.2525252E-01 -0.4139359E-07  0.0000000E+00 -0.1367793E-04
  0.6919192E+00  0.0000000E+00  0.2525252E-01 -0.4293186E-07  0.0000000E+00 -0.1369536E-04
  0.7020202E+00  0.0000000E+00  0.2525252E-01 -0.4418860E-07  0.0000000E+00 -0.1371337E-04
  0.7121212E+00  0.0000000E+00  0.2525252E-01 -0.4516583E-07  0.0000000E+00 -0.1373183E-04
  0.7222222E+00  0.0000000E+00  0.2525252E-01 -0.4586810E-07  0.0000000E+00 -0.1375063E-04
  0.7323232E+00  0.0000000E+00  0.2525252E-01 -0.4630211E-07  0.0000000E+00 -0.1376965E-04
  0.7424242E+00  0.0000000E+00  0.2525252E-01 -0.4647642E-07  0.0000000E+00 -0.1378879E-04
  0.7525253E+00  0.0000000E+00  0.2525252E-01 -0.4640119E-07  0.0000000E+00 -0.1380794E-04
  0.7626263E+00  0.0000000E+00  0.2525252E-01 -0.4608777E-07  0.0000000E+00 -0.1382700E-04
  0.7727273E+00  0.0000000E+00  0.2525252E-01 -0.4554849E-07  0.0000000E+00 -0.1384588E-04
  0.7828283E+00  0.0000000E+00  0.2525252E-01 -0.4479634E-07  0.0000000E+00 -0.1386448E-04
  0.7929293E+00  0.0000000E+00  0.2525252E-01 -0.4384473E-07  0.0000000E+00 -0.1388272E-04
  0.8030303E+00  0.0000000E+00  0.2525252E-01 -0.4270728E-07  0.0000000E+00 -0.1390052E-04
  0.8131313E+00  0.0000000E+00  0.2525252E-01 -0.4139758E-07  0.0000000E+00 -0.1391782E-04
  0.8232324E+00  0.0000000E+00  0.2525252E-01 -0.3992908E-07  0.0000000E+00 -0.1393453E-04
  0.8333333E+00  0.0000000E+00  0.2525252E-01 -0.3831489E-07  0.0000000E+00 -0.1395061E-04
  0.8434343E+00  0.0000000E+00  0.2525252E-01 -0.3656774E-07  0.0000000E+00 -0.1396599E-04
  0.8535354E+00  0.0000000E+00  0.2525252E-01 -0.3469984E-07  0.0000000E+00 -0.1398062E-04
  0.8636364E+00  0.0000000E+00  0.2525252E-01 -0.3272281E-07  0.0000000E+00 -0.1399445E-04
  0.8737374E+00  0.0000000E+00  0.2525252E-01 -0.3064770E-07  0.0000000E+00 -0.1400745E-04
  0.8838384E+00  0.0000000E+00  0.2525252E-01 -0.2848492E-07  0.0000000E+00 -0.1401958E-04
  0.8939394E+00  0.0000000E+00  0.2525252E-01 -0.2624424E-07  0.0000000E+00 -0.1403080E-04
  0.9040404E+00  0.0000000E+00  0.2525252E-01 -0.2393481E-07  0.0000000E+00 -0.1404109E-04
  0.9141414E+00  0.0000000E+00  0.2525252E-01 -0.2156519E-07  0.0000000E+00 -0.1405042E-04
  0.9242424E+00  0.0000000E+00  0.2525252E-01 -0.1914337E-07  0.0000000E+00 -0.1405876E-04
  0.9343435E+00  0.0000000E+00  0.2525252E-01 -0.1667679E-07  0.0000000E+00 -0.1406610E-04
  0.9444444E+00  0.0000000E+00  0.2525252E-01 -0.1417244E-07  0.0000000E+00 -0.1407242E-04
  0.9545454E+00  0.0000000E+00  0.2525252E-01 -0.1163688E-07  0.0000000E+00 -0.1407770E-04
  0.9646465E+00  0.0000000E+00  0.2525252E-01 -0.9076276E-08  0.0000000E+00 -0.1408194E-04
  0.9747475E+00  0.0000000E+00  0.2525252E-01 -0.6496527E-08  0.0000000E+00 -0.1408513E-04
  0.9848485E+00  0.0000000E+00  0.2525252E-01 -0.3903272E-08  0.0000000E+00 -0.1408726E-04
  0.9974747E+00  0.0000000E+00  0.2525252E-01 -0.1301983E-08  0.0000000E+00 -0.1408833E-04
  0.5050505E-02  0.0000000E+00  0.3535353E-01  0.1406253E-08  0.0000000E+00 -0.1416769E-04
  0.1515152E-01  0.0000000E+00  0.3535353E-01  0.4218239E-08  0.0000000E+00 -0.1416686E-04
  0.2525252E-01  0.0000000E+00  0.3535353E-01  0.7028621E-08  0.0000000E+00 -0.1416520E-04
  0.3535353E-01  0.0000000E+00  0.3535353E-01  0.9836243E-08  0.0000000E+00 -0.1416270E-04
  0.4545455E-01  0.0000000E+00  0.3535353E-01  0.1263983E-07  0.0000000E+00 -0.1415937E-04
  0.5555556E-01  0.0000000E+00  0.3535353E-01  0.1543791E-07  0.0000000E+00 -0.1415522E-04
  0.6565657E-01  0.0000000E+00  0.3535353E-01  0.1822881E-07  0.0000000E+00 -0.1415023E-04
  0.7575758E-01  0.0000000E+00  0.3535353E-01  0.2101056E-07  0.0000000E+00 -0.1414443E-04
  0.8585858E-01  0.0000000E+00  0.3535353E-01  0.2378088E-07  0.0000000E+00 -0.1413779E-04
  0.9595960E-01  0.0000000E+00  0.3535353E-01  0.2653709E-07  0.0000000E+00 -0.1413034E-04
  0.1060606E+00  0.0000000E+00  0.3535353E-01  0.2927611E-07  0.0000000E+00 -0.1412207E-04
  0.1161616E+00  0.0000000E+00  0.3535353E-01  0.3199437E-07  0.0000000E+00 -0.1411299E-04
  0.1262626E+00  0.0000000E+00  0.3535353E-01  0.3468778E-07  0.0000000E+00 -0.1410310E-04
  0.1363636E+00  0.0000000E+00  0.3535353E-01  0.3735170E-07  0.0000000E+00 -0.1409242E-04
  0.1464646E+00  0.0000000E+00  0.3535353E-01  0.3998086E-07  0.0000000E+00 -0.1408095E-04
  0.1565657E+00  0.0000000E+00  0.3535353E-01  0.4256936E-07  0.0000000E+00 -0.1406869E-04
  0.1666667E+00  0.0000000E+00  0.3535353E-01  0.4511060E-07  0.0000000E+00 -0.1405567E-04
  0.1767677E+00  0.0000000E+00  0.3535353E-01  0.4759727E-07  0.0000000E+00 -0.1404190E-04
  0.1868687E+00  0.0000000E+00  0.3535353E-01  0.5002128E-07  0.0000000E+00 -0.1402739E-04
  0.1969697E+00  0.0000000E+00  0.3535353E-01  0.5237379E-07  0.0000000E+00 -0.1401216E-04
  0.2070707E+00  0.0000000E+00  0.3535353E-01  0.5464514E-07  0.0000000E+00 -0.1399624E-04
  0.2171717E+00  0.0000000E+00  0.3535353E-01  0.5682488E-07  0.0000000E+00 -0.1397964E-04
  0.2272727E+00  0.0000000E+00  0.3535353E-01  0.5890171E-07  0.0000000E+00 -0.1396240E-04
  0.2373737E+00  0.0000000E+00  0.3535353E-01  0.6086357E-07  0.0000000E+00 -0.1394454E-04
  0.2474747E+00  0.0000000E+00  0.3535353E-01  0.6269757E-07  0.0000000E+00 -0.1392611E-04
  0.2575758E+00  0.0000000E+00  0.3535353E-01  0.6439009E-07  0.0000000E+00 -0.1390713E-04
  0.2676768E+00  0.0000000E+00  0.3535353E-01  0.6592679E-07  0.0000000E+00 -0.1388766E-04
  0.2777778E+00  0.0000000E+00  0.3535353E-01  0.6729267E-07  0.0000000E+00 -0.1386773E-04
  0.2878788E+00  0.0000000E+00  0.3535353E-01  0.6847222E-07  0.0000000E+00 -0.1384741E-04
  0.2979798E+00  0.0000000E+00  0.3535353E-01  0.6944944E-07  0.0000000E+00 -0.1382675E-04