title = "dataset water"
variables = "x", "y", "z", "vx", "vy", "vz"
zone t = "velocities, solution time =  5.000E+00 days        " i =   99, j =   99, k =    1,  f=point
  0.5050505E-02  0.0000000E+00  0.5050505E-02 -0.1172854E-12  0.0000000E+00 -0.1898747E-03
  0.1515152E-01  0.0000000E+00  0.5050505E-02 -0.4635569E-13  0.0000000E+00 -0.1898747E-03
  0.2525252E-01  0.0000000E+00  0.5050505E-02 -0.6500343E-13  0.0000000E+00 -0.1898747E-03
  0.3535353E-01  0.0000000E+00  0.5050505E-02  0.1371415E-13  0.0000000E+00 -0.1898747E-03
  0.4545455E-01  0.0000000E+00  0.5050505E-02 -0.1354720E-12  0.0000000E+00 -0.1898747E-03
  0.5555556E-01  0.0000000E+00  0.5050505E-02 -0.8020769E-13  0.0000000E+00 -0.1898747E-03
  0.6565657E-01  0.0000000E+00  0.5050505E-02 -0.3178121E-13  0.0000000E+00 -0.1898747E-03
  0.7575758E-01  0.0000000E+00  0.5050505E-02 -0.3262447E-13  0.0000000E+00 -0.1898747E-03
  0.8585858E-01  0.0000000E+00  0.5050505E-02 -0.1026383E-12  0.0000000E+00 -0.1898747E-03
  0.9595960E-01  0.0000000E+00  0.5050505E-02 -0.6276613E-13  0.0000000E+00 -0.1898747E-03
  0.1060606E+00  0.0000000E+00  0.5050505E-02 -0.8551915E-13  0.0000000E+00 -0.1898747E-03
  0.1161616E+00  0.0000000E+00  0.5050505E-02 -0.6971500E-13  0.0000000E+00 -0.1898747E-03
  0.1262626E+00  0.0000000E+00  0.5050505E-02 -0.1258696E-13  0.0000000E+00 -0.1898747E-03
  0.1363636E+00  0.0000000E+00  0.5050505E-02 -0.1305043E-12  0.0000000E+00 -0.1898747E-03
  0.1464646E+00  0.0000000E+00  0.5050505E-02  0.7321185E-13  0.0000000E+00 -0.1898747E-03
  0.1565657E+00  0.0000000E+00  0.5050505E-02 -0.5779411E-13  0.0000000E+00 -0.1898747E-03
  0.1666667E+00  0.0000000E+00  0.5050505E-02 -0.8618521E-13  0.0000000E+00 -0.1898747E-03
  0.1767677E+00  0.0000000E+00  0.5050505E-02 -0.9794599E-14  0.0000000E+00 -0.1898747E-03
  0.1868687E+00  0.0000000E+00  0.5050505E-02  0.1077662E-13  0.0000000E+00 -0.1898747E-03
  0.1969697E+00  0.0000000E+00  0.5050505E-02 -0.6564602E-14  0.0000000E+00 -0.1898747E-03
  0.2070707E+00  0.0000000E+00  0.5050505E-02 -0.2672807E-14  0.0000000E+00 -0.1898747E-03
  0.2171717E+00  0.0000000E+00  0.5050505E-02 -0.2479818E-13  0.0000000E+00 -0.1898747E-03
  0.2272727E+00  0.0000000E+00  0.5050505E-02  0.5965782E-13  0.0000000E+00 -0.1898747E-03
  0.2373737E+00  0.0000000E+00  0.5050505E-02 -0.3765840E-14  0.0000000E+00 -0.1898747E-03
  0.2474747E+00  0.0000000E+00  0.5050505E-02 -0.2210189E-13  0.0000000E+00 -0.1898747E-03
  0.2575758E+00  0.0000000E+00  0.5050505E-02  0.2580796E-13  0.0000000E+00 -0.1898747E-03
  0.2676768E+00  0.0000000E+00  0.5050505E-02  0.8270758E-13  0.0000000E+00 -0.1898747E-03
  0.2777778E+00  0.0000000E+00  0.5050505E-02  0.3525671E-13  0.0000000E+00 -0.1898747E-03
  0.2878788E+00  0.0000000E+00  0.5050505E-02  0.1879718E-13  0.0000000E+00 -0.1898747E-03
  0.2979798E+00  0.0000000E+00  0.5050505E-02 -0.9504262E-14  0.0000000E+00 -0.1898747E-03
  0.3080808E+00  0.0000000E+00  0.5050505E-02  0.6882905E-13  0.0000000E+00 -0.1898747E-03
  0.3181818E+00  0.0000000E+00  0.5050505E-02  0.2763751E-13  0.0000000E+00 -0.1898747E-03
  0.3282828E+00  0.0000000E+00  0.5050505E-02 -0.2942222E-13  0.0000000E+00 -0.1898747E-03
  0.3383838E+00  0.0000000E+00  0.5050505E-02 -0.2423032E-13  0.0000000E+00 -0.1898747E-03
  0.3484848E+00  0.0000000E+00  0.5050505E-02  0.3766907E-13  0.0000000E+00 -0.1898747E-03
  0.3585859E+00  0.0000000E+00  0.5050505E-02 -0.3161042E-13  0.0000000E+00 -0.1898747E-03
  0.3686869E+00  0.0000000E+00  0.5050505E-02  0.2252032E-13  0.0000000E+00 -0.1898747E-03
  0.3787879E+00  0.0000000E+00  0.5050505E-02 -0.5527715E-13  0.0000000E+00 -0.1898747E-03
  0.3888889E+00  0.0000000E+00  0.5050505E-02  0.4603333E-13  0.0000000E+00 -0.1898747E-03
  0.3989899E+00  0.0000000E+00  0.5050505E-02  0.1321460E-14  0.0000000E+00 -0.1898747E-03
  0.4090909E+00  0.0000000E+00  0.5050505E-02 -0.7289163E-13  0.0000000E+00 -0.1898747E-03
  0.4191919E+00  0.0000000E+00  0.5050505E-02 -0.2691380E-13  0.0000000E+00 -0.1898747E-03
  0.4292929E+00  0.0000000E+00  0.5050505E-02 -0.1739246E-13  0.0000000E+00 -0.1898747E-03
  0.4393939E+00  0.0000000E+00  0.5050505E-02 -0.4781165E-13  0.0000000E+00 -0.1898747E-03
  0.4494950E+00  0.0000000E+00  0.5050505E-02  0.5740557E-13  0.0000000E+00 -0.1898747E-03
  0.4595959E+00  0.0000000E+00  0.5050505E-02 -0.3900121E-13  0.0000000E+00 -0.1898747E-03
  0.4696970E+00  0.0000000E+00  0.5050505E-02 -0.1217493E-13  0.0000000E+00 -0.1898747E-03
  0.4797980E+00  0.0000000E+00  0.5050505E-02  0.4316626E-14  0.0000000E+00 -0.1898747E-03
  0.4898990E+00  0.0000000E+00  0.5050505E-02  0.3786334E-13  0.0000000E+00 -0.1898747E-03
  0.5000000E+00  0.0000000E+00  0.5050505E-02  0.1606673E-13  0.0000000E+00 -0.1898747E-03
  0.5101010E+00  0.0000000E+00  0.5050505E-02  0.4834536E-13  0.0000000E+00 -0.1898747E-03
  0.5202020E+00  0.0000000E+00  0.5050505E-02  0.9338599E-13  0.0000000E+00 -0.1898747E-03
  0.5303030E+00  0.0000000E+00  0.5050505E-02  0.7160219E-14  0.0000000E+00 -0.1898747E-03
  0.5404040E+00  0.0000000E+00  0.5050505E-02  0.3344638E-13  0.0000000E+00 -0.1898747E-03
  0.5505050E+00  0.0000000E+00  0.5050505E-02  0.1079946E-12  0.0000000E+00 -0.1898747E-03
  0.5606061E+00  0.0000000E+00  0.5050505E-02  0.6908309E-13  0.0000000E+00 -0.1898747E-03
  0.5707071E+00  0.0000000E+00  0.5050505E-02  0.9914150E-13  0.0000000E+00 -0.1898747E-03
  0.5808081E+00  0.0000000E+00  0.5050505E-02  0.5637232E-13  0.0000000E+00 -0.1898747E-03
  0.5909091E+00  0.0000000E+00  0.5050505E-02  0.4064929E-13  0.0000000E+00 -0.1898747E-03
  0.6010101E+00  0.0000000E+00  0.5050505E-02  0.5571479E-13  0.0000000E+00 -0.1898747E-03
  0.6111111E+00  0.0000000E+00  0.5050505E-02  0.1073307E-12  0.0000000E+00 -0.1898747E-03
  0.6212121E+00  0.0000000E+00  0.5050505E-02  0.8759634E-13  0.0000000E+00 -0.1898747E-03
  0.6313131E+00  0.0000000E+00  0.5050505E-02  0.1998841E-13  0.0000000E+00 -0.1898747E-03
  0.6414142E+00  0.0000000E+00  0.5050505E-02  0.2628616E-13  0.0000000E+00 -0.1898747E-03
  0.6515151E+00  0.0000000E+00  0.5050505E-02  0.9777094E-13  0.0000000E+00 -0.1898747E-03
  0.6616161E+00  0.0000000E+00  0.5050505E-02  0.8426173E-14  0.0000000E+00 -0.1898747E-03
  0.6717172E+00  0.0000000E+00  0.5050505E-02  0.1705729E-13  0.0000000E+00 -0.1898747E-03
  0.6818182E+00  0.0000000E+00  0.5050505E-02 -0.8152702E-13  0.0000000E+00 -0.1898747E-03
  0.6919192E+00  0.0000000E+00  0.5050505E-02  0.7693500E-13  0.0000000E+00 -0.1898747E-03
  0.7020202E+00  0.0000000E+00  0.5050505E-02 -0.7220635E-13  0.0000000E+00 -0.1898747E-03
  0.7121212E+00  0.0000000E+00  0.5050505E-02 -0.1217066E-13  0.0000000E+00 -0.1898747E-03
  0.7222222E+00  0.0000000E+00  0.5050505E-02  0.6129096E-14  0.0000000E+00 -0.1898747E-03
  0.7323232E+00  0.0000000E+00  0.5050505E-02 -0.1404270E-12  0.0000000E+00 -0.1898747E-03
  0.7424242E+00  0.0000000E+00  0.5050505E-02 -0.2345964E-13  0.0000000E+00 -0.1898747E-03
  0.7525253E+00  0.0000000E+00  0.5050505E-02 -0.7668309E-14  0.0000000E+00 -0.1898747E-03
  0.7626263E+00  0.0000000E+00  0.5050505E-02 -0.8406960E-13  0.0000000E+00 -0.1898747E-03
  0.7727273E+00  0.0000000E+00  0.5050505E-02 -0.3052380E-13  0.0000000E+00 -0.1898747E-03
  0.7828283E+00  0.0000000E+00  0.5050505E-02 -0.8349319E-13  0.0000000E+00 -0.1898747E-03
  0.7929293E+00  0.0000000E+00  0.5050505E-02 -0.3699660E-13  0.0000000E+00 -0.1898747E-03
  0.8030303E+00  0.0000000E+00  0.5050505E-02  0.1316763E-13  0.0000000E+00 -0.1898747E-03
  0.8131313E+00  0.0000000E+00  0.5050505E-02 -0.9393251E-14  0.0000000E+00 -0.1898747E-03
  0.8232324E+00  0.0000000E+00  0.5050505E-02 -0.6786624E-13  0.0000000E+00 -0.1898747E-03
  0.8333333E+00  0.0000000E+00  0.5050505E-02 -0.9366566E-13  0.0000000E+00 -0.1898747E-03
  0.8434343E+00  0.0000000E+00  0.5050505E-02  0.2665975E-13  0.0000000E+00 -0.1898747E-03
  0.8535354E+00  0.0000000E+00  0.5050505E-02  0.1839796E-13  0.0000000E+00 -0.1898747E-03
  0.8636364E+00  0.0000000E+00  0.5050505E-02  0.8261364E-13  0.0000000E+00 -0.1898747E-03
  0.8737374E+00  0.0000000E+00  0.5050505E-02 -0.3908873E-14  0.0000000E+00 -0.1898747E-03
  0.8838384E+00  0.0000000E+00  0.5050505E-02 -0.3468885E-13  0.0000000E+00 -0.1898747E-03
  0.8939394E+00  0.0000000E+00  0.5050505E-02  0.8426173E-14  0.0000000E+00 -0.1898747E-03
  0.9040404E+00  0.0000000E+00  0.5050505E-02  0.1106440E-12  0.0000000E+00 -0.1898747E-03
  0.9141414E+00  0.0000000E+00  0.5050505E-02  0.3489166E-13  0.0000000E+00 -0.1898747E-03
  0.9242424E+00  0.0000000E+00  0.5050505E-02  0.5270895E-14  0.0000000E+00 -0.1898747E-03
  0.9343435E+00  0.0000000E+00  0.5050505E-02  0.4715412E-13  0.0000000E+00 -0.1898747E-03
  0.9444444E+00  0.0000000E+00  0.5050505E-02 -0.4006435E-13  0.0000000E+00 -0.1898747E-03
  0.9545454E+00  0.0000000E+00  0.5050505E-02  0.3918907E-13  0.0000000E+00 -0.1898747E-03
  0.9646465E+00  0.0000000E+00  0.5050505E-02 -0.2645695E-13  0.0000000E+00 -0.1898747E-03
  0.9747475E+00  0.0000000E+00  0.5050505E-02  0.3631345E-14  0.0000000E+00 -0.1898747E-03
  0.9848485E+00  0.0000000E+00  0.5050505E-02 -0.2053066E-13  0.0000000E+00 -0.1898747E-03
  0.9974747E+00  0.0000000E+00  0.5050505E-02 -0.2041965E-12  0.0000000E+00 -0.1898747E-03
  0.5050505E-02  0.0000000E+00  0.1515152E-01 -0.2950897E-12  0.0000000E+00 -0.1874110E-03
  0.1515152E-01  0.0000000E+00  0.1515152E-01 -0.1715282E-12  0.0000000E+00 -0.1874110E-03
  0.2525252E-01  0.0000000E+00  0.1515152E-01 -0.2607340E-12  0.0000000E+00 -0.1874110E-03
  0.3535353E-01  0.0000000E+00  0.1515152E-01  0.7920109E-14  0.0000000E+00 -0.1874110E-03
  0.4545455E-01  0.0000000E+00  0.1515152E-01 -0.2643143E-12  0.0000000E+00 -0.1874110E-03
  0.5555556E-01  0.0000000E+00  0.1515152E-01 -0.2180936E-12  0.0000000E+00 -0.1874110E-03
  0.6565657E-01  0.0000000E+00  0.1515152E-01 -0.2075308E-12  0.0000000E+00 -0.1874110E-03
  0.7575758E-01  0.0000000E+00  0.1515152E-01 -0.1635410E-12  0.0000000E+00 -0.1874110E-03
  0.8585858E-01  0.0000000E+00  0.1515152E-01 -0.2814656E-12  0.0000000E+00 -0.1874110E-03
  0.9595960E-01  0.0000000E+00  0.1515152E-01 -0.1306513E-12  0.0000000E+00 -0.1874110E-03
  0.1060606E+00  0.0000000E+00  0.1515152E-01 -0.1926153E-12  0.0000000E+00 -0.1874110E-03
  0.1161616E+00  0.0000000E+00  0.1515152E-01 -0.2624157E-12  0.0000000E+00 -0.1874110E-03
  0.1262626E+00  0.0000000E+00  0.1515152E-01 -0.3677521E-13  0.0000000E+00 -0.1874110E-03
  0.1363636E+00  0.0000000E+00  0.1515152E-01 -0.4091361E-12  0.0000000E+00 -0.1874110E-03
  0.1464646E+00  0.0000000E+00  0.1515152E-01  0.1161208E-12  0.0000000E+00 -0.1874110E-03
  0.1565657E+00  0.0000000E+00  0.1515152E-01 -0.9850909E-13  0.0000000E+00 -0.1874110E-03
  0.1666667E+00  0.0000000E+00  0.1515152E-01 -0.1533042E-12  0.0000000E+00 -0.1874110E-03
  0.1767677E+00  0.0000000E+00  0.1515152E-01 -0.4994367E-13  0.0000000E+00 -0.1874110E-03
  0.1868687E+00  0.0000000E+00  0.1515152E-01 -0.3109194E-13  0.0000000E+00 -0.1874110E-03
  0.1969697E+00  0.0000000E+00  0.1515152E-01 -0.2330027E-13  0.0000000E+00 -0.1874110E-03
  0.2070707E+00  0.0000000E+00  0.1515152E-01  0.4475472E-13  0.0000000E+00 -0.1874110E-03
  0.2171717E+00  0.0000000E+00  0.1515152E-01 -0.9003661E-13  0.0000000E+00 -0.1874110E-03
  0.2272727E+00  0.0000000E+00  0.1515152E-01  0.1063235E-12  0.0000000E+00 -0.1874110E-03
  0.2373737E+00  0.0000000E+00  0.1515152E-01  0.5307319E-13  0.0000000E+00 -0.1874110E-03
  0.2474747E+00  0.0000000E+00  0.1515152E-01 -0.3467160E-13  0.0000000E+00 -0.1874110E-03
  0.2575758E+00  0.0000000E+00  0.1515152E-01  0.3056812E-13  0.0000000E+00 -0.1874110E-03
  0.2676768E+00  0.0000000E+00  0.1515152E-01  0.2213531E-12  0.0000000E+00 -0.1874110E-03
  0.2777778E+00  0.0000000E+00  0.1515152E-01  0.1445468E-12  0.0000000E+00 -0.1874110E-03
  0.2878788E+00  0.0000000E+00  0.1515152E-01  0.9485970E-13  0.0000000E+00 -0.1874110E-03
  0.2979798E+00  0.0000000E+00  0.1515152E-01 -0.6073862E-13  0.0000000E+00 -0.1874110E-03
  0.3080808E+00  0.0000000E+00  0.1515152E-01  0.1270524E-12  0.0000000E+00 -0.1874110E-03
  0.3181818E+00  0.0000000E+00  0.1515152E-01  0.1080488E-12  0.0000000E+00 -0.1874110E-03
  0.3282828E+00  0.0000000E+00  0.1515152E-01 -0.1228606E-13  0.0000000E+00 -0.1874110E-03
  0.3383838E+00  0.0000000E+00  0.1515152E-01 -0.8240141E-13  0.0000000E+00 -0.1874110E-03
  0.3484848E+00  0.0000000E+00  0.1515152E-01  0.9358524E-13  0.0000000E+00 -0.1874110E-03
  0.3585859E+00  0.0000000E+00  0.1515152E-01 -0.8590940E-13  0.0000000E+00 -0.1874110E-03
  0.3686869E+00  0.0000000E+00  0.1515152E-01  0.8053688E-13  0.0000000E+00 -0.1874110E-03
  0.3787879E+00  0.0000000E+00  0.1515152E-01 -0.1721221E-12  0.0000000E+00 -0.1874110E-03
  0.3888889E+00  0.0000000E+00  0.1515152E-01  0.5846810E-13  0.0000000E+00 -0.1874110E-03
  0.3989899E+00  0.0000000E+00  0.1515152E-01  0.5154371E-13  0.0000000E+00 -0.1874110E-03
  0.4090909E+00  0.0000000E+00  0.1515152E-01 -0.2081700E-12  0.0000000E+00 -0.1874110E-03
  0.4191919E+00  0.0000000E+00  0.1515152E-01 -0.1067810E-12  0.0000000E+00 -0.1874110E-03
  0.4292929E+00  0.0000000E+00  0.1515152E-01 -0.1439314E-13  0.0000000E+00 -0.1874110E-03
  0.4393939E+00  0.0000000E+00  0.1515152E-01 -0.1691904E-12  0.0000000E+00 -0.1874110E-03
  0.4494950E+00  0.0000000E+00  0.1515152E-01  0.1175704E-12  0.0000000E+00 -0.1874110E-03
  0.4595959E+00  0.0000000E+00  0.1515152E-01 -0.4301263E-13  0.0000000E+00 -0.1874110E-03
  0.4696970E+00  0.0000000E+00  0.1515152E-01 -0.4458982E-14  0.0000000E+00 -0.1874110E-03
  0.4797980E+00  0.0000000E+00  0.1515152E-01 -0.4076240E-14  0.0000000E+00 -0.1874110E-03
  0.4898990E+00  0.0000000E+00  0.1515152E-01  0.1063927E-12  0.0000000E+00 -0.1874110E-03
  0.5000000E+00  0.0000000E+00  0.1515152E-01  0.6125456E-13  0.0000000E+00 -0.1874110E-03
  0.5101010E+00  0.0000000E+00  0.1515152E-01  0.4822564E-13  0.0000000E+00 -0.1874110E-03
  0.5202020E+00  0.0000000E+00  0.1515152E-01  0.2994748E-12  0.0000000E+00 -0.1874110E-03
  0.5303030E+00  0.0000000E+00  0.1515152E-01  0.1148114E-12  0.0000000E+00 -0.1874110E-03
  0.5404040E+00  0.0000000E+00  0.1515152E-01  0.1109781E-12  0.0000000E+00 -0.1874110E-03
  0.5505050E+00  0.0000000E+00  0.1515152E-01  0.2803226E-12  0.0000000E+00 -0.1874110E-03
  0.5606061E+00  0.0000000E+00  0.1515152E-01  0.1634637E-12  0.0000000E+00 -0.1874110E-03
  0.5707071E+00  0.0000000E+00  0.1515152E-01  0.2660215E-12  0.0000000E+00 -0.1874110E-03
  0.5808081E+00  0.0000000E+00  0.1515152E-01  0.2515282E-12  0.0000000E+00 -0.1874110E-03
  0.5909091E+00  0.0000000E+00  0.1515152E-01  0.1977761E-12  0.0000000E+00 -0.1874110E-03
  0.6010101E+00  0.0000000E+00  0.1515152E-01  0.1229753E-12  0.0000000E+00 -0.1874110E-03
  0.6111111E+00  0.0000000E+00  0.1515152E-01  0.2161311E-12  0.0000000E+00 -0.1874110E-03
  0.6212121E+00  0.0000000E+00  0.1515152E-01  0.2801861E-12  0.0000000E+00 -0.1874110E-03
  0.6313131E+00  0.0000000E+00  0.1515152E-01  0.1299206E-12  0.0000000E+00 -0.1874110E-03
  0.6414142E+00  0.0000000E+00  0.1515152E-01  0.2893287E-13  0.0000000E+00 -0.1874110E-03
  0.6515151E+00  0.0000000E+00  0.1515152E-01  0.2572767E-12  0.0000000E+00 -0.1874110E-03
  0.6616161E+00  0.0000000E+00  0.1515152E-01  0.6321052E-13  0.0000000E+00 -0.1874110E-03
  0.6717172E+00  0.0000000E+00  0.1515152E-01  0.1305743E-12  0.0000000E+00 -0.1874110E-03
  0.6818182E+00  0.0000000E+00  0.1515152E-01 -0.2490774E-12  0.0000000E+00 -0.1874110E-03
  0.6919192E+00  0.0000000E+00  0.1515152E-01  0.1479653E-12  0.0000000E+00 -0.1874110E-03
  0.7020202E+00  0.0000000E+00  0.1515152E-01 -0.2019519E-12  0.0000000E+00 -0.1874110E-03
  0.7121212E+00  0.0000000E+00  0.1515152E-01 -0.8154240E-13  0.0000000E+00 -0.1874110E-03
  0.7222222E+00  0.0000000E+00  0.1515152E-01  0.4419301E-13  0.0000000E+00 -0.1874110E-03
  0.7323232E+00  0.0000000E+00  0.1515152E-01 -0.3529258E-12  0.0000000E+00 -0.1874110E-03
  0.7424242E+00  0.0000000E+00  0.1515152E-01 -0.1417760E-12  0.0000000E+00 -0.1874110E-03
  0.7525253E+00  0.0000000E+00  0.1515152E-01 -0.4154449E-13  0.0000000E+00 -0.1874110E-03
  0.7626263E+00  0.0000000E+00  0.1515152E-01 -0.1931464E-12  0.0000000E+00 -0.1874110E-03
  0.7727273E+00  0.0000000E+00  0.1515152E-01 -0.4996930E-13  0.0000000E+00 -0.1874110E-03
  0.7828283E+00  0.0000000E+00  0.1515152E-01 -0.2206761E-12  0.0000000E+00 -0.1874110E-03
  0.7929293E+00  0.0000000E+00  0.1515152E-01 -0.2196786E-12  0.0000000E+00 -0.1874110E-03
  0.8030303E+00  0.0000000E+00  0.1515152E-01 -0.6188497E-13  0.0000000E+00 -0.1874110E-03
  0.8131313E+00  0.0000000E+00  0.1515152E-01  0.2571923E-13  0.0000000E+00 -0.1874110E-03
  0.8232324E+00  0.0000000E+00  0.1515152E-01 -0.5851133E-13  0.0000000E+00 -0.1874110E-03
  0.8333333E+00  0.0000000E+00  0.1515152E-01 -0.2286458E-12  0.0000000E+00 -0.1874110E-03
  0.8434343E+00  0.0000000E+00  0.1515152E-01 -0.1367215E-13  0.0000000E+00 -0.1874110E-03
  0.8535354E+00  0.0000000E+00  0.1515152E-01 -0.7039647E-14  0.0000000E+00 -0.1874110E-03
  0.8636364E+00  0.0000000E+00  0.1515152E-01  0.2054224E-12  0.0000000E+00 -0.1874110E-03
  0.8737374E+00  0.0000000E+00  0.1515152E-01  0.7544245E-13  0.0000000E+00 -0.1874110E-03
  0.8838384E+00  0.0000000E+00  0.1515152E-01 -0.3360056E-13  0.0000000E+00 -0.1874110E-03
  0.8939394E+00  0.0000000E+00  0.1515152E-01 -0.3160536E-13  0.0000000E+00 -0.1874110E-03
  0.9040404E+00  0.0000000E+00  0.1515152E-01  0.2651502E-12  0.0000000E+00 -0.1874110E-03
  0.9141414E+00  0.0000000E+00  0.1515152E-01  0.1301799E-12  0.0000000E+00 -0.1874110E-03
  0.9242424E+00  0.0000000E+00  0.1515152E-01 -0.1266189E-13  0.0000000E+00 -0.1874110E-03
  0.9343435E+00  0.0000000E+00  0.1515152E-01  0.1570036E-12  0.0000000E+00 -0.1874110E-03
  0.9444444E+00  0.0000000E+00  0.1515152E-01 -0.6180614E-13  0.0000000E+00 -0.1874110E-03
  0.9545454E+00  0.0000000E+00  0.1515152E-01  0.1114012E-12  0.0000000E+00 -0.1874110E-03
  0.9646465E+00  0.0000000E+00  0.1515152E-01 -0.9644901E-13  0.0000000E+00 -0.1874110E-03
  0.9747475E+00  0.0000000E+00  0.1515152E-01 -0.2858411E-13  0.0000000E+00 -0.1874110E-03
  0.9848485E+00  0.0000000E+00  0.1515152E-01  0.7774815E-13  0.0000000E+00 -0.1874110E-03
  0.9974747E+00  0.0000000E+00  0.1515152E-01 -0.4733689E-12  0.0000000E+00 -0.1874110E-03
  0.5050505E-02  0.0000000E+00  0.2525252E-01 -0.3421023E-12  0.0000000E+00 -0.1826353E-03
  0.1515152E-01  0.0000000E+00  0.2525252E-01 -0.2691384E-12  0.0000000E+00 -0.1826353E-03
  0.2525252E-01  0.0000000E+00  0.2525252E-01 -0.4400158E-12  0.0000000E+00 -0.1826353E-03
  0.3535353E-01  0.0000000E+00  0.2525252E-01 -0.9996941E-13  0.0000000E+00 -0.1826353E-03
  0.4545455E-01  0.0000000E+00  0.2525252E-01 -0.3019516E-12  0.0000000E+00 -0.1826353E-03
  0.5555556E-01  0.0000000E+00  0.2525252E-01 -0.3290703E-12  0.0000000E+00 -0.1826353E-03
  0.6565657E-01  0.0000000E+00  0.2525252E-01 -0.4148753E-12  0.0000000E+00 -0.1826353E-03
  0.7575758E-01  0.0000000E+00  0.2525252E-01 -0.3039771E-12  0.0000000E+00 -0.1826353E-03
  0.8585858E-01  0.0000000E+00  0.2525252E-01 -0.4747345E-12  0.0000000E+00 -0.1826353E-03
  0.9595960E-01  0.0000000E+00  0.2525252E-01 -0.2583800E-12  0.0000000E+00 -0.1826353E-03
  0.1060606E+00  0.0000000E+00  0.2525252E-01 -0.2520553E-12  0.0000000E+00 -0.1826353E-03
  0.1161616E+00  0.0000000E+00  0.2525252E-01 -0.4233632E-12  0.0000000E+00 -0.1826353E-03
  0.1262626E+00  0.0000000E+00  0.2525252E-01 -0.5431400E-13  0.0000000E+00 -0.1826353E-03
  0.1363636E+00  0.0000000E+00  0.2525252E-01 -0.6541671E-12  0.0000000E+00 -0.1826353E-03
  0.1464646E+00  0.0000000E+00  0.2525252E-01  0.2920194E-13  0.0000000E+00 -0.1826353E-03
  0.1565657E+00  0.0000000E+00  0.2525252E-01 -0.9873370E-13  0.0000000E+00 -0.1826353E-03
  0.1666667E+00  0.0000000E+00  0.2525252E-01 -0.1286033E-12  0.0000000E+00 -0.1826353E-03
  0.1767677E+00  0.0000000E+00  0.2525252E-01 -0.8865801E-13  0.0000000E+00 -0.1826353E-03
  0.1868687E+00  0.0000000E+00  0.2525252E-01 -0.1173326E-12  0.0000000E+00 -0.1826353E-03
  0.1969697E+00  0.0000000E+00  0.2525252E-01 -0.4175509E-13  0.0000000E+00 -0.1826353E-03
  0.2070707E+00  0.0000000E+00  0.2525252E-01  0.1075460E-12  0.0000000E+00 -0.1826353E-03
  0.2171717E+00  0.0000000E+00  0.2525252E-01 -0.1251418E-12  0.0000000E+00 -0.1826353E-03
  0.2272727E+00  0.0000000E+00  0.2525252E-01  0.4058604E-13  0.0000000E+00 -0.1826353E-03
  0.2373737E+00  0.0000000E+00  0.2525252E-01  0.1774240E-12  0.0000000E+00 -0.1826353E-03
  0.2474747E+00  0.0000000E+00  0.2525252E-01  0.3694143E-13  0.0000000E+00 -0.1826353E-03
  0.2575758E+00  0.0000000E+00  0.2525252E-01 -0.1517954E-13  0.0000000E+00 -0.1826353E-03
  0.2676768E+00  0.0000000E+00  0.2525252E-01  0.2631462E-12  0.0000000E+00 -0.1826353E-03
  0.2777778E+00  0.0000000E+00  0.2525252E-01  0.2613800E-12  0.0000000E+00 -0.1826353E-03
  0.2878788E+00  0.0000000E+00  0.2525252E-01  0.2382608E-12  0.0000000E+00 -0.1826353E-03
  0.2979798E+00  0.0000000E+00  0.2525252E-01 -0.5447375E-13  0.0000000E+00 -0.1826353E-03
  0.3080808E+00  0.0000000E+00  0.2525252E-01  0.7736040E-13  0.0000000E+00 -0.1826353E-03
  0.3181818E+00  0.0000000E+00  0.2525252E-01  0.1460485E-12  0.0000000E+00 -0.1826353E-03
  0.3282828E+00  0.0000000E+00  0.2525252E-01  0.8110597E-13  0.0000000E+00 -0.1826353E-03
  0.3383838E+00  0.0000000E+00  0.2525252E-01 -0.8779796E-13  0.0000000E+00 -0.1826353E-03
  0.3484848E+00  0.0000000E+00  0.2525252E-01  0.1036912E-12  0.0000000E+00 -0.1826353E-03
  0.3585859E+00  0.0000000E+00  0.2525252E-01 -0.1215437E-12  0.0000000E+00 -0.1826353E-03
  0.3686869E+00  0.0000000E+00  0.2525252E-01  0.1377067E-12  0.0000000E+00 -0.1826353E-03
  0.3787879E+00  0.0000000E+00  0.2525252E-01 -0.2345875E-12  0.0000000E+00 -0.1826353E-03
  0.3888889E+00  0.0000000E+00  0.2525252E-01 -0.8147898E-13  0.0000000E+00 -0.1826353E-03
  0.3989899E+00  0.0000000E+00  0.2525252E-01  0.1277040E-12  0.0000000E+00 -0.1826353E-03
  0.4090909E+00  0.0000000E+00  0.2525252E-01 -0.2632646E-12  0.0000000E+00 -0.1826353E-03
  0.4191919E+00  0.0000000E+00  0.2525252E-01 -0.2300990E-12  0.0000000E+00 -0.1826353E-03
  0.4292929E+00  0.0000000E+00  0.2525252E-01  0.2402878E-14  0.0000000E+00 -0.1826353E-03
  0.4393939E+00  0.0000000E+00  0.2525252E-01 -0.2637216E-12  0.0000000E+00 -0.1826353E-03
  0.4494950E+00  0.0000000E+00  0.2525252E-01  0.7269894E-13  0.0000000E+00 -0.1826353E-03
  0.4595959E+00  0.0000000E+00  0.2525252E-01 -0.7618886E-14  0.0000000E+00 -0.1826353E-03
  0.4696970E+00  0.0000000E+00  0.2525252E-01  0.2849378E-13  0.0000000E+00 -0.1826353E-03
  0.4797980E+00  0.0000000E+00  0.2525252E-01  0.3241032E-14  0.0000000E+00 -0.1826353E-03
  0.4898990E+00  0.0000000E+00  0.2525252E-01  0.1486031E-12  0.0000000E+00 -0.1826353E-03
  0.5000000E+00  0.0000000E+00  0.2525252E-01  0.2009406E-12  0.0000000E+00 -0.1826353E-03
  0.5101010E+00  0.0000000E+00  0.2525252E-01 -0.1293540E-13  0.0000000E+00 -0.1826353E-03
  0.5202020E+00  0.0000000E+00  0.2525252E-01  0.4321882E-12  0.0000000E+00 -0.1826353E-03
  0.5303030E+00  0.0000000E+00  0.2525252E-01  0.2793215E-12  0.0000000E+00 -0.1826353E-03
  0.5404040E+00  0.0000000E+00  0.2525252E-01  0.2448563E-12  0.0000000E+00 -0.1826353E-03
  0.5505050E+00  0.0000000E+00  0.2525252E-01  0.4322471E-12  0.0000000E+00 -0.1826353E-03
  0.5606061E+00  0.0000000E+00  0.2525252E-01  0.2479117E-12  0.0000000E+00 -0.1826353E-03
  0.5707071E+00  0.0000000E+00  0.2525252E-01  0.3699777E-12  0.0000000E+00 -0.1826353E-03
  0.5808081E+00  0.0000000E+00  0.2525252E-01  0.4498024E-12  0.0000000E+00 -0.1826353E-03
  0.5909091E+00  0.0000000E+00  0.2525252E-01  0.4315467E-12  0.0000000E+00 -0.1826353E-03
  0.6010101E+00  0.0000000E+00  0.2525252E-01  0.2472832E-12  0.0000000E+00 -0.1826353E-03
  0.6111111E+00  0.0000000E+00  0.2525252E-01  0.2309840E-12  0.0000000E+00 -0.1826353E-03
  0.6212121E+00  0.0000000E+00  0.2525252E-01  0.4081683E-12  0.0000000E+00 -0.1826353E-03
  0.6313131E+00  0.0000000E+00  0.2525252E-01  0.3572107E-12  0.0000000E+00 -0.1826353E-03
  0.6414142E+00  0.0000000E+00  0.2525252E-01  0.1716747E-13  0.0000000E+00 -0.1826353E-03
  0.6515151E+00  0.0000000E+00  0.2525252E-01  0.3023099E-12  0.0000000E+00 -0.1826353E-03
  0.6616161E+00  0.0000000E+00  0.2525252E-01  0.9649077E-13  0.0000000E+00 -0.1826353E-03
  0.6717172E+00  0.0000000E+00  0.2525252E-01  0.3057213E-12  0.0000000E+00 -0.1826353E-03
  0.6818182E+00  0.0000000E+00  0.2525252E-01 -0.3058668E-12  0.0000000E+00 -0.1826353E-03
  0.6919192E+00  0.0000000E+00  0.2525252E-01  0.1181291E-12  0.0000000E+00 -0.1826353E-03
  0.7020202E+00  0.0000000E+00  0.2525252E-01 -0.3120476E-12  0.0000000E+00 -0.1826353E-03
  0.7121212E+00  0.0000000E+00  0.2525252E-01 -0.2041870E-12  0.0000000E+00 -0.1826353E-03
  0.7222222E+00  0.0000000E+00  0.2525252E-01  0.6802114E-13  0.0000000E+00 -0.1826353E-03
  0.7323232E+00  0.0000000E+00  0.2525252E-01 -0.4289266E-12  0.0000000E+00 -0.1826353E-03
  0.7424242E+00  0.0000000E+00  0.2525252E-01 -0.3069154E-12  0.0000000E+00 -0.1826353E-03
  0.7525253E+00  0.0000000E+00  0.2525252E-01 -0.1754674E-12  0.0000000E+00 -0.1826353E-03
  0.7626263E+00  0.0000000E+00  0.2525252E-01 -0.2858934E-12  0.0000000E+00 -0.1826353E-03
  0.7727273E+00  0.0000000E+00  0.2525252E-01 -0.3592631E-13  0.0000000E+00 -0.1826353E-03
  0.7828283E+00  0.0000000E+00  0.2525252E-01 -0.2265069E-12  0.0000000E+00 -0.1826353E-03
  0.7929293E+00  0.0000000E+00  0.2525252E-01 -0.4294616E-12  0.0000000E+00 -0.1826353E-03
  0.8030303E+00  0.0000000E+00  0.2525252E-01 -0.2796624E-12  0.0000000E+00 -0.1826353E-03
  0.8131313E+00  0.0000000E+00  0.2525252E-01 -0.1373235E-15  0.0000000E+00 -0.1826353E-03
  0.8232324E+00  0.0000000E+00  0.2525252E-01  0.7202763E-13  0.0000000E+00 -0.1826353E-03
  0.8333333E+00  0.0000000E+00  0.2525252E-01 -0.2115927E-12  0.0000000E+00 -0.1826353E-03
  0.8434343E+00  0.0000000E+00  0.2525252E-01 -0.1490391E-12  0.0000000E+00 -0.1826353E-03
  0.8535354E+00  0.0000000E+00  0.2525252E-01 -0.8843183E-13  0.0000000E+00 -0.1826353E-03
  0.8636364E+00  0.0000000E+00  0.2525252E-01  0.2463826E-12  0.0000000E+00 -0.1826353E-03
  0.8737374E+00  0.0000000E+00  0.2525252E-01  0.2065083E-12  0.0000000E+00 -0.1826353E-03
  0.8838384E+00  0.0000000E+00  0.2525252E-01  0.8681595E-13  0.0000000E+00 -0.1826353E-03
  0.8939394E+00  0.0000000E+00  0.2525252E-01 -0.7787552E-13  0.0000000E+00 -0.1826353E-03
  0.9040404E+00  0.0000000E+00  0.2525252E-01  0.2950975E-12  0.0000000E+00 -0.1826353E-03
  0.9141414E+00  0.0000000E+00  0.2525252E-01  0.2364337E-12  0.0000000E+00 -0.1826353E-03
  0.9242424E+00  0.0000000E+00  0.2525252E-01 -0.1901924E-13  0.0000000E+00 -0.1826353E-03
  0.9343435E+00  0.0000000E+00  0.2525252E-01  0.2242129E-12  0.0000000E+00 -0.1826353E-03
  0.9444444E+00  0.0000000E+00  0.2525252E-01 -0.1265773E-13  0.0000000E+00 -0.1826353E-03
  0.9545454E+00  0.0000000E+00  0.2525252E-01  0.2057703E-12  0.0000000E+00 -0.1826353E-03
  0.9646465E+00  0.0000000E+00  0.2525252E-01 -0.1189334E-12  0.0000000E+00 -0.1826353E-03
  0.9747475E+00  0.0000000E+00  0.2525252E-01 -0.1789485E-12  0.0000000E+00 -0.1826353E-03
  0.9848485E+00  0.0000000E+00  0.2525252E-01  0.2322272E-12  0.0000000E+00 -0.1826353E-03
  0.9974747E+00  0.0000000E+00  0.2525252E-01 -0.4046485E-12  0.0000000E+00 -0.1826353E-03
  0.5050505E-02  0.0000000E+00  0.3535353E-01 -0.3228946E-12  0.0000000E+00 -0.1757562E-03
  0.1515152E-01  0.0000000E+00  0.3535353E-01 -0.3954786E-12  0.0000000E+00 -0.1757562E-03
  0.2525252E-01  0.0000000E+00  0.3535353E-01 -0.5436515E-12  0.0000000E+00 -0.1757562E-03
  0.3535353E-01  0.0000000E+00  0.3535353E-01 -0.2564181E-12  0.0000000E+00 -0.1757562E-03
  0.4545455E-01  0.0000000E+00  0.3535353E-01 -0.3180554E-12  0.0000000E+00 -0.1757562E-03
  0.5555556E-01  0.0000000E+00  0.3535353E-01 -0.4779132E-12  0.0000000E+00 -0.1757562E-03
  0.6565657E-01  0.0000000E+00  0.3535353E-01 -0.5935950E-12  0.0000000E+00 -0.1757562E-03
  0.7575758E-01  0.0000000E+00  0.3535353E-01 -0.4104331E-12  0.0000000E+00 -0.1757562E-03
  0.8585858E-01  0.0000000E+00  0.3535353E-01 -0.5967626E-12  0.0000000E+00 -0.1757562E-03
  0.9595960E-01  0.0000000E+00  0.3535353E-01 -0.4595434E-12  0.0000000E+00 -0.1757562E-03
  0.1060606E+00  0.0000000E+00  0.3535353E-01 -0.4315616E-12  0.0000000E+00 -0.1757562E-03
  0.1161616E+00  0.0000000E+00  0.3535353E-01 -0.4765863E-12  0.0000000E+00 -0.1757562E-03
  0.1262626E+00  0.0000000E+00  0.3535353E-01 -0.5117012E-13  0.0000000E+00 -0.1757562E-03
  0.1363636E+00  0.0000000E+00  0.3535353E-01 -0.7930789E-12  0.0000000E+00 -0.1757562E-03
  0.1464646E+00  0.0000000E+00  0.3535353E-01 -0.1311873E-12  0.0000000E+00 -0.1757562E-03
  0.1565657E+00  0.0000000E+00  0.3535353E-01 -0.1710428E-12  0.0000000E+00 -0.1757562E-03
  0.1666667E+00  0.0000000E+00  0.3535353E-01 -0.9107998E-13  0.0000000E+00 -0.1757562E-03
  0.1767677E+00  0.0000000E+00  0.3535353E-01 -0.9657234E-13  0.0000000E+00 -0.1757562E-03
  0.1868687E+00  0.0000000E+00  0.3535353E-01 -0.1973260E-12  0.0000000E+00 -0.1757562E-03
  0.1969697E+00  0.0000000E+00  0.3535353E-01 -0.3394303E-13  0.0000000E+00 -0.1757562E-03
  0.2070707E+00  0.0000000E+00  0.3535353E-01  0.1217151E-12  0.0000000E+00 -0.1757562E-03
  0.2171717E+00  0.0000000E+00  0.3535353E-01 -0.7333730E-13  0.0000000E+00 -0.1757562E-03
  0.2272727E+00  0.0000000E+00  0.3535353E-01 -0.7682102E-13  0.0000000E+00 -0.1757562E-03
  0.2373737E+00  0.0000000E+00  0.3535353E-01  0.2293222E-12  0.0000000E+00 -0.1757562E-03
  0.2474747E+00  0.0000000E+00  0.3535353E-01  0.1966593E-12  0.0000000E+00 -0.1757562E-03
  0.2575758E+00  0.0000000E+00  0.3535353E-01  0.5745849E-14  0.0000000E+00 -0.1757562E-03
  0.2676768E+00  0.0000000E+00  0.3535353E-01  0.2092716E-12  0.0000000E+00 -0.1757562E-03
  0.2777778E+00  0.0000000E+00  0.3535353E-01  0.2916976E-12  0.0000000E+00 -0.1757562E-03
  0.2878788E+00  0.0000000E+00  0.3535353E-01  0.3340415E-12  0.0000000E+00 -0.1757562E-03
  0.2979798E+00  0.0000000E+00  0.3535353E-01  0.1085957E-12  0.0000000E+00 -0.1757562E-03