title = "dataset water"
variables = "x", "y", "z", "vx", "vy", "vz"
zone t = "velocities, solution time =  3.600E+01 days        " i =   99, j =   99, k =    1,  f=point
  0.5050505E-02  0.0000000E+00  0.5050505E-02  0.9211139E-08  0.0000000E+00  0.2930809E-05
  0.1515152E-01  0.0000000E+00  0.5050505E-02  0.2766028E-07  0.0000000E+00  0.2967802E-05
  0.2525252E-01  0.0000000E+00  0.5050505E-02  0.4619017E-07  0.0000000E+00  0.3041895E-05
  0.3535353E-01  0.0000000E+00  0.5050505E-02  0.6485508E-07  0.0000000E+00  0.3153306E-05
  0.4545455E-01  0.0000000E+00  0.5050505E-02  0.8370981E-07  0.0000000E+00  0.3302363E-05
  0.5555556E-01  0.0000000E+00  0.5050505E-02  0.1028099E-06  0.0000000E+00  0.3489503E-05
  0.6565657E-01  0.0000000E+00  0.5050505E-02  0.1222120E-06  0.0000000E+00  0.3715279E-05
  0.7575758E-01  0.0000000E+00  0.5050505E-02  0.1419736E-06  0.0000000E+00  0.3980357E-05
  0.8585858E-01  0.0000000E+00  0.5050505E-02  0.1621541E-06  0.0000000E+00  0.4285522E-05
  0.9595960E-01  0.0000000E+00  0.5050505E-02  0.1828143E-06  0.0000000E+00  0.4631680E-05
  0.1060606E+00  0.0000000E+00  0.5050505E-02  0.2040170E-06  0.0000000E+00  0.5019861E-05
  0.1161616E+00  0.0000000E+00  0.5050505E-02  0.2258274E-06  0.0000000E+00  0.5451227E-05
  0.1262626E+00  0.0000000E+00  0.5050505E-02  0.2483135E-06  0.0000000E+00  0.5927071E-05
  0.1363636E+00  0.0000000E+00  0.5050505E-02  0.2715459E-06  0.0000000E+00  0.6448828E-05
  0.1464646E+00  0.0000000E+00  0.5050505E-02  0.2955990E-06  0.0000000E+00  0.7018079E-05
  0.1565657E+00  0.0000000E+00  0.5050505E-02  0.3205510E-06  0.0000000E+00  0.7636561E-05
  0.1666667E+00  0.0000000E+00  0.5050505E-02  0.3464846E-06  0.0000000E+00  0.8306171E-05
  0.1767677E+00  0.0000000E+00  0.5050505E-02  0.3734872E-06  0.0000000E+00  0.9028982E-05
  0.1868687E+00  0.0000000E+00  0.5050505E-02  0.4016522E-06  0.0000000E+00  0.9807247E-05
  0.1969697E+00  0.0000000E+00  0.5050505E-02  0.4310794E-06  0.0000000E+00  0.1064342E-04
  0.2070707E+00  0.0000000E+00  0.5050505E-02  0.4618758E-06  0.0000000E+00  0.1154015E-04
  0.2171717E+00  0.0000000E+00  0.5050505E-02  0.4941567E-06  0.0000000E+00  0.1250033E-04
  0.2272727E+00  0.0000000E+00  0.5050505E-02  0.5280471E-06  0.0000000E+00  0.1352709E-04
  0.2373737E+00  0.0000000E+00  0.5050505E-02  0.5636828E-06  0.0000000E+00  0.1462383E-04
  0.2474747E+00  0.0000000E+00  0.5050505E-02  0.6012120E-06  0.0000000E+00  0.1579422E-04
  0.2575758E+00  0.0000000E+00  0.5050505E-02  0.6407974E-06  0.0000000E+00  0.1704227E-04
  0.2676768E+00  0.0000000E+00  0.5050505E-02  0.6826184E-06  0.0000000E+00  0.1837233E-04
  0.2777778E+00  0.0000000E+00  0.5050505E-02  0.7268739E-06  0.0000000E+00  0.1978912E-04
  0.2878788E+00  0.0000000E+00  0.5050505E-02  0.7737854E-06  0.0000000E+00  0.2129782E-04
  0.2979798E+00  0.0000000E+00  0.5050505E-02  0.8236015E-06  0.0000000E+00  0.2290406E-04
  0.3080808E+00  0.0000000E+00  0.5050505E-02  0.8766026E-06  0.0000000E+00  0.2461402E-04
  0.3181818E+00  0.0000000E+00  0.5050505E-02  0.9331074E-06  0.0000000E+00  0.2643450E-04
  0.3282828E+00  0.0000000E+00  0.5050505E-02  0.9934808E-06  0.0000000E+00  0.2837299E-04
  0.3383838E+00  0.0000000E+00  0.5050505E-02  0.1058144E-05  0.0000000E+00  0.3043777E-04
  0.3484848E+00  0.0000000E+00  0.5050505E-02  0.1127589E-05  0.0000000E+00  0.3263808E-04
  0.3585859E+00  0.0000000E+00  0.5050505E-02  0.1202393E-05  0.0000000E+00  0.3498423E-04
  0.3686869E+00  0.0000000E+00  0.5050505E-02  0.1283246E-05  0.0000000E+00  0.3748784E-04
  0.3787879E+00  0.0000000E+00  0.5050505E-02  0.1370976E-05  0.0000000E+00  0.4016207E-04
  0.3888889E+00  0.0000000E+00  0.5050505E-02  0.1466599E-05  0.0000000E+00  0.4302197E-04
  0.3989899E+00  0.0000000E+00  0.5050505E-02  0.1571369E-05  0.0000000E+00  0.4608491E-04
  0.4090909E+00  0.0000000E+00  0.5050505E-02  0.1686867E-05  0.0000000E+00  0.4937117E-04
  0.4191919E+00  0.0000000E+00  0.5050505E-02  0.1815115E-05  0.0000000E+00  0.5290468E-04
  0.4292929E+00  0.0000000E+00  0.5050505E-02  0.1958739E-05  0.0000000E+00  0.5671417E-04
  0.4393939E+00  0.0000000E+00  0.5050505E-02  0.2121213E-05  0.0000000E+00  0.6083457E-04
  0.4494950E+00  0.0000000E+00  0.5050505E-02  0.2307204E-05  0.0000000E+00  0.6530914E-04
  0.4595959E+00  0.0000000E+00  0.5050505E-02  0.2523082E-05  0.0000000E+00  0.7019245E-04
  0.4696970E+00  0.0000000E+00  0.5050505E-02  0.2777653E-05  0.0000000E+00  0.7555458E-04
  0.4797980E+00  0.0000000E+00  0.5050505E-02  0.3083223E-05  0.0000000E+00  0.8148724E-04
  0.4898990E+00  0.0000000E+00  0.5050505E-02  0.3457091E-05  0.0000000E+00  0.8811249E-04
  0.5000000E+00  0.0000000E+00  0.5050505E-02  0.3923640E-05  0.0000000E+00  0.9559515E-04
  0.5101010E+00  0.0000000E+00  0.5050505E-02  0.4517388E-05  0.0000000E+00  0.1041606E-03
  0.5202020E+00  0.0000000E+00  0.5050505E-02  0.5288597E-05  0.0000000E+00  0.1141217E-03
  0.5303030E+00  0.0000000E+00  0.5050505E-02  0.6318901E-05  0.0000000E+00  0.1259273E-03
  0.5404040E+00  0.0000000E+00  0.5050505E-02  0.7777614E-05  0.0000000E+00  0.1402853E-03
  0.5505050E+00  0.0000000E+00  0.5050505E-02  0.1012262E-04  0.0000000E+00  0.1585503E-03
  0.5606061E+00  0.0000000E+00  0.5050505E-02  0.1467079E-04  0.0000000E+00  0.1839080E-03
  0.5707071E+00  0.0000000E+00  0.5050505E-02 -0.1878600E-04  0.0000000E+00  0.1797144E-03
  0.5808081E+00  0.0000000E+00  0.5050505E-02 -0.1237431E-04  0.0000000E+00  0.1478836E-03
  0.5909091E+00  0.0000000E+00  0.5050505E-02 -0.8549833E-05  0.0000000E+00  0.1265672E-03
  0.6010101E+00  0.0000000E+00  0.5050505E-02 -0.6292818E-05  0.0000000E+00  0.1114752E-03
  0.6111111E+00  0.0000000E+00  0.5050505E-02 -0.4912692E-05  0.0000000E+00  0.1000978E-03
  0.6212121E+00  0.0000000E+00  0.5050505E-02 -0.4022170E-05  0.0000000E+00  0.9103612E-04
  0.6313131E+00  0.0000000E+00  0.5050505E-02 -0.3413337E-05  0.0000000E+00  0.8350211E-04
  0.6414142E+00  0.0000000E+00  0.5050505E-02 -0.2973730E-05  0.0000000E+00  0.7703560E-04
  0.6515151E+00  0.0000000E+00  0.5050505E-02 -0.2640646E-05  0.0000000E+00  0.7135536E-04
  0.6616161E+00  0.0000000E+00  0.5050505E-02 -0.2377716E-05  0.0000000E+00  0.6628129E-04
  0.6717172E+00  0.0000000E+00  0.5050505E-02 -0.2162942E-05  0.0000000E+00  0.6169282E-04
  0.6818182E+00  0.0000000E+00  0.5050505E-02 -0.1982472E-05  0.0000000E+00  0.5750590E-04
  0.6919192E+00  0.0000000E+00  0.5050505E-02 -0.1827261E-05  0.0000000E+00  0.5365984E-04
  0.7020202E+00  0.0000000E+00  0.5050505E-02 -0.1691206E-05  0.0000000E+00  0.5010937E-04
  0.7121212E+00  0.0000000E+00  0.5050505E-02 -0.1570066E-05  0.0000000E+00  0.4681976E-04
  0.7222222E+00  0.0000000E+00  0.5050505E-02 -0.1460821E-05  0.0000000E+00  0.4376367E-04
  0.7323232E+00  0.0000000E+00  0.5050505E-02 -0.1361267E-05  0.0000000E+00  0.4091912E-04
  0.7424242E+00  0.0000000E+00  0.5050505E-02 -0.1269760E-05  0.0000000E+00  0.3826801E-04
  0.7525253E+00  0.0000000E+00  0.5050505E-02 -0.1185049E-05  0.0000000E+00  0.3579520E-04
  0.7626263E+00  0.0000000E+00  0.5050505E-02 -0.1106165E-05  0.0000000E+00  0.3348785E-04
  0.7727273E+00  0.0000000E+00  0.5050505E-02 -0.1032340E-05  0.0000000E+00  0.3133485E-04
  0.7828283E+00  0.0000000E+00  0.5050505E-02 -0.9629573E-06  0.0000000E+00  0.2932652E-04
  0.7929293E+00  0.0000000E+00  0.5050505E-02 -0.8975110E-06  0.0000000E+00  0.2745433E-04
  0.8030303E+00  0.0000000E+00  0.5050505E-02 -0.8355795E-06  0.0000000E+00  0.2571069E-04
  0.8131313E+00  0.0000000E+00  0.5050505E-02 -0.7768057E-06  0.0000000E+00  0.2408881E-04
  0.8232324E+00  0.0000000E+00  0.5050505E-02 -0.7208821E-06  0.0000000E+00  0.2258259E-04
  0.8333333E+00  0.0000000E+00  0.5050505E-02 -0.6675399E-06  0.0000000E+00  0.2118649E-04
  0.8434343E+00  0.0000000E+00  0.5050505E-02 -0.6165409E-06  0.0000000E+00  0.1989552E-04
  0.8535354E+00  0.0000000E+00  0.5050505E-02 -0.5676712E-06  0.0000000E+00  0.1870512E-04
  0.8636364E+00  0.0000000E+00  0.5050505E-02 -0.5207362E-06  0.0000000E+00  0.1761117E-04
  0.8737374E+00  0.0000000E+00  0.5050505E-02 -0.4755572E-06  0.0000000E+00  0.1660993E-04
  0.8838384E+00  0.0000000E+00  0.5050505E-02 -0.4319680E-06  0.0000000E+00  0.1569800E-04
  0.8939394E+00  0.0000000E+00  0.5050505E-02 -0.3898131E-06  0.0000000E+00  0.1487232E-04
  0.9040404E+00  0.0000000E+00  0.5050505E-02 -0.3489454E-06  0.0000000E+00  0.1413012E-04
  0.9141414E+00  0.0000000E+00  0.5050505E-02 -0.3092251E-06  0.0000000E+00  0.1346893E-04
  0.9242424E+00  0.0000000E+00  0.5050505E-02 -0.2705179E-06  0.0000000E+00  0.1288658E-04
  0.9343435E+00  0.0000000E+00  0.5050505E-02 -0.2326946E-06  0.0000000E+00  0.1238113E-04
  0.9444444E+00  0.0000000E+00  0.5050505E-02 -0.1956300E-06  0.0000000E+00  0.1195092E-04
  0.9545454E+00  0.0000000E+00  0.5050505E-02 -0.1592022E-06  0.0000000E+00  0.1159455E-04
  0.9646465E+00  0.0000000E+00  0.5050505E-02 -0.1232916E-06  0.0000000E+00  0.1131084E-04
  0.9747475E+00  0.0000000E+00  0.5050505E-02 -0.8778125E-07  0.0000000E+00  0.1109886E-04
  0.9848485E+00  0.0000000E+00  0.5050505E-02 -0.5255538E-07  0.0000000E+00  0.1095792E-04
  0.9974747E+00  0.0000000E+00  0.5050505E-02 -0.1749961E-07  0.0000000E+00  0.1088757E-04
  0.5050505E-02  0.0000000E+00  0.1515152E-01  0.2762651E-07  0.0000000E+00  0.2953007E-05
  0.1515152E-01  0.0000000E+00  0.1515152E-01  0.8296014E-07  0.0000000E+00  0.2990080E-05
  0.2525252E-01  0.0000000E+00  0.1515152E-01  0.1385361E-06  0.0000000E+00  0.3064332E-05
  0.3535353E-01  0.0000000E+00  0.1515152E-01  0.1945171E-06  0.0000000E+00  0.3175983E-05
  0.4545455E-01  0.0000000E+00  0.1515152E-01  0.2510677E-06  0.0000000E+00  0.3325360E-05
  0.5555556E-01  0.0000000E+00  0.1515152E-01  0.3083544E-06  0.0000000E+00  0.3512903E-05
  0.6565657E-01  0.0000000E+00  0.1515152E-01  0.3665468E-06  0.0000000E+00  0.3739164E-05
  0.7575758E-01  0.0000000E+00  0.1515152E-01  0.4258181E-06  0.0000000E+00  0.4004812E-05
  0.8585858E-01  0.0000000E+00  0.1515152E-01  0.4863457E-06  0.0000000E+00  0.4310634E-05
  0.9595960E-01  0.0000000E+00  0.1515152E-01  0.5483122E-06  0.0000000E+00  0.4657536E-05
  0.1060606E+00  0.0000000E+00  0.1515152E-01  0.6119061E-06  0.0000000E+00  0.5046552E-05
  0.1161616E+00  0.0000000E+00  0.1515152E-01  0.6773229E-06  0.0000000E+00  0.5478844E-05
  0.1262626E+00  0.0000000E+00  0.1515152E-01  0.7447661E-06  0.0000000E+00  0.5955709E-05
  0.1363636E+00  0.0000000E+00  0.1515152E-01  0.8144479E-06  0.0000000E+00  0.6478586E-05
  0.1464646E+00  0.0000000E+00  0.1515152E-01  0.8865913E-06  0.0000000E+00  0.7049057E-05
  0.1565657E+00  0.0000000E+00  0.1515152E-01  0.9614305E-06  0.0000000E+00  0.7668861E-05
  0.1666667E+00  0.0000000E+00  0.1515152E-01  0.1039213E-05  0.0000000E+00  0.8339901E-05
  0.1767677E+00  0.0000000E+00  0.1515152E-01  0.1120202E-05  0.0000000E+00  0.9064249E-05
  0.1868687E+00  0.0000000E+00  0.1515152E-01  0.1204677E-05  0.0000000E+00  0.9844163E-05
  0.1969697E+00  0.0000000E+00  0.1515152E-01  0.1292936E-05  0.0000000E+00  0.1068210E-04
  0.2070707E+00  0.0000000E+00  0.1515152E-01  0.1385300E-05  0.0000000E+00  0.1158071E-04
  0.2171717E+00  0.0000000E+00  0.1515152E-01  0.1482115E-05  0.0000000E+00  0.1254289E-04
  0.2272727E+00  0.0000000E+00  0.1515152E-01  0.1583755E-05  0.0000000E+00  0.1357177E-04
  0.2373737E+00  0.0000000E+00  0.1515152E-01  0.1690627E-05  0.0000000E+00  0.1467074E-04
  0.2474747E+00  0.0000000E+00  0.1515152E-01  0.1803173E-05  0.0000000E+00  0.1584348E-04
  0.2575758E+00  0.0000000E+00  0.1515152E-01  0.1921882E-05  0.0000000E+00  0.1709400E-04
  0.2676768E+00  0.0000000E+00  0.1515152E-01  0.2047289E-05  0.0000000E+00  0.1842664E-04
  0.2777778E+00  0.0000000E+00  0.1515152E-01  0.2179989E-05  0.0000000E+00  0.1984611E-04
  0.2878788E+00  0.0000000E+00  0.1515152E-01  0.2320643E-05  0.0000000E+00  0.2135758E-04
  0.2979798E+00  0.0000000E+00  0.1515152E-01  0.2469995E-05  0.0000000E+00  0.2296666E-04
  0.3080808E+00  0.0000000E+00  0.1515152E-01  0.2628881E-05  0.0000000E+00  0.2467951E-04
  0.3181818E+00  0.0000000E+00  0.1515152E-01  0.2798251E-05  0.0000000E+00  0.2650288E-04
  0.3282828E+00  0.0000000E+00  0.1515152E-01  0.2979193E-05  0.0000000E+00  0.2844424E-04
  0.3383838E+00  0.0000000E+00  0.1515152E-01  0.3172961E-05  0.0000000E+00  0.3051180E-04
  0.3484848E+00  0.0000000E+00  0.1515152E-01  0.3381017E-05  0.0000000E+00  0.3271470E-04
  0.3585859E+00  0.0000000E+00  0.1515152E-01  0.3605076E-05  0.0000000E+00  0.3506317E-04
  0.3686869E+00  0.0000000E+00  0.1515152E-01  0.3847182E-05  0.0000000E+00  0.3756865E-04
  0.3787879E+00  0.0000000E+00  0.1515152E-01  0.4109791E-05  0.0000000E+00  0.4024411E-04
  0.3888889E+00  0.0000000E+00  0.1515152E-01  0.4395900E-05  0.0000000E+00  0.4310431E-04
  0.3989899E+00  0.0000000E+00  0.1515152E-01  0.4709215E-05  0.0000000E+00  0.4616624E-04
  0.4090909E+00  0.0000000E+00  0.1515152E-01  0.5054388E-05  0.0000000E+00  0.4944964E-04
  0.4191919E+00  0.0000000E+00  0.1515152E-01  0.5437357E-05  0.0000000E+00  0.5297772E-04
  0.4292929E+00  0.0000000E+00  0.1515152E-01  0.5865823E-05  0.0000000E+00  0.5677811E-04
  0.4393939E+00  0.0000000E+00  0.1515152E-01  0.6349945E-05  0.0000000E+00  0.6088429E-04
  0.4494950E+00  0.0000000E+00  0.1515152E-01  0.6903350E-05  0.0000000E+00  0.6533737E-04
  0.4595959E+00  0.0000000E+00  0.1515152E-01  0.7544607E-05  0.0000000E+00  0.7018888E-04
  0.4696970E+00  0.0000000E+00  0.1515152E-01  0.8299381E-05  0.0000000E+00  0.7550455E-04
  0.4797980E+00  0.0000000E+00  0.1515152E-01  0.9203558E-05  0.0000000E+00  0.8136992E-04
  0.4898990E+00  0.0000000E+00  0.1515152E-01  0.1030766E-04  0.0000000E+00  0.8789845E-04
  0.5000000E+00  0.0000000E+00  0.1515152E-01  0.1168289E-04  0.0000000E+00  0.9524294E-04
  0.5101010E+00  0.0000000E+00  0.1515152E-01  0.1342885E-04  0.0000000E+00  0.1036107E-03
  0.5202020E+00  0.0000000E+00  0.1515152E-01  0.1568330E-04  0.0000000E+00  0.1132790E-03
  0.5303030E+00  0.0000000E+00  0.1515152E-01  0.1863937E-04  0.0000000E+00  0.1245948E-03
  0.5404040E+00  0.0000000E+00  0.1515152E-01  0.2261379E-04  0.0000000E+00  0.1379159E-03
  0.5505050E+00  0.0000000E+00  0.1515152E-01  0.2843498E-04  0.0000000E+00  0.1534918E-03
  0.5606061E+00  0.0000000E+00  0.1515152E-01  0.3963693E-04  0.0000000E+00  0.1724044E-03
  0.5707071E+00  0.0000000E+00  0.1515152E-01 -0.5389962E-04  0.0000000E+00  0.1662849E-03
  0.5808081E+00  0.0000000E+00  0.1515152E-01 -0.3484341E-04  0.0000000E+00  0.1393322E-03
  0.5909091E+00  0.0000000E+00  0.1515152E-01 -0.2426047E-04  0.0000000E+00  0.1217457E-03
  0.6010101E+00  0.0000000E+00  0.1515152E-01 -0.1810874E-04  0.0000000E+00  0.1088316E-03
  0.6111111E+00  0.0000000E+00  0.1515152E-01 -0.1431608E-04  0.0000000E+00  0.9864600E-04
  0.6212121E+00  0.0000000E+00  0.1515152E-01 -0.1182976E-04  0.0000000E+00  0.9023542E-04
  0.6313131E+00  0.0000000E+00  0.1515152E-01 -0.1010220E-04  0.0000000E+00  0.8306544E-04
  0.6414142E+00  0.0000000E+00  0.1515152E-01 -0.8837676E-05  0.0000000E+00  0.7680887E-04
  0.6515151E+00  0.0000000E+00  0.1515152E-01 -0.7869362E-05  0.0000000E+00  0.7125339E-04
  0.6616161E+00  0.0000000E+00  0.1515152E-01 -0.7098922E-05  0.0000000E+00  0.6625519E-04
  0.6717172E+00  0.0000000E+00  0.1515152E-01 -0.6465909E-05  0.0000000E+00  0.6171345E-04
  0.6818182E+00  0.0000000E+00  0.1515152E-01 -0.5931712E-05  0.0000000E+00  0.5755531E-04
  0.6919192E+00  0.0000000E+00  0.1515152E-01 -0.5470816E-05  0.0000000E+00  0.5372663E-04
  0.7020202E+00  0.0000000E+00  0.1515152E-01 -0.5065834E-05  0.0000000E+00  0.5018615E-04
  0.7121212E+00  0.0000000E+00  0.1515152E-01 -0.4704599E-05  0.0000000E+00  0.4690168E-04
  0.7222222E+00  0.0000000E+00  0.1515152E-01 -0.4378386E-05  0.0000000E+00  0.4384752E-04
  0.7323232E+00  0.0000000E+00  0.1515152E-01 -0.4080794E-05  0.0000000E+00  0.4100274E-04
  0.7424242E+00  0.0000000E+00  0.1515152E-01 -0.3807035E-05  0.0000000E+00  0.3835001E-04
  0.7525253E+00  0.0000000E+00  0.1515152E-01 -0.3553449E-05  0.0000000E+00  0.3587468E-04
  0.7626263E+00  0.0000000E+00  0.1515152E-01 -0.3317189E-05  0.0000000E+00  0.3356425E-04
  0.7727273E+00  0.0000000E+00  0.1515152E-01 -0.3095998E-05  0.0000000E+00  0.3140786E-04
  0.7828283E+00  0.0000000E+00  0.1515152E-01 -0.2888056E-05  0.0000000E+00  0.2939601E-04
  0.7929293E+00  0.0000000E+00  0.1515152E-01 -0.2691866E-05  0.0000000E+00  0.2752027E-04
  0.8030303E+00  0.0000000E+00  0.1515152E-01 -0.2506181E-05  0.0000000E+00  0.2577314E-04
  0.8131313E+00  0.0000000E+00  0.1515152E-01 -0.2329940E-05  0.0000000E+00  0.2414790E-04
  0.8232324E+00  0.0000000E+00  0.1515152E-01 -0.2162229E-05  0.0000000E+00  0.2263845E-04
  0.8333333E+00  0.0000000E+00  0.1515152E-01 -0.2002247E-05  0.0000000E+00  0.2123932E-04
  0.8434343E+00  0.0000000E+00  0.1515152E-01 -0.1849285E-05  0.0000000E+00  0.1994550E-04
  0.8535354E+00  0.0000000E+00  0.1515152E-01 -0.1702704E-05  0.0000000E+00  0.1875245E-04
  0.8636364E+00  0.0000000E+00  0.1515152E-01 -0.1561923E-05  0.0000000E+00  0.1765606E-04
  0.8737374E+00  0.0000000E+00  0.1515152E-01 -0.1426406E-05  0.0000000E+00  0.1665258E-04
  0.8838384E+00  0.0000000E+00  0.1515152E-01 -0.1295658E-05  0.0000000E+00  0.1573862E-04
  0.8939394E+00  0.0000000E+00  0.1515152E-01 -0.1169212E-05  0.0000000E+00  0.1491109E-04
  0.9040404E+00  0.0000000E+00  0.1515152E-01 -0.1046627E-05  0.0000000E+00  0.1416723E-04
  0.9141414E+00  0.0000000E+00  0.1515152E-01 -0.9274847E-06  0.0000000E+00  0.1350458E-04
  0.9242424E+00  0.0000000E+00  0.1515152E-01 -0.8113826E-06  0.0000000E+00  0.1292093E-04
  0.9343435E+00  0.0000000E+00  0.1515152E-01 -0.6979330E-06  0.0000000E+00  0.1241436E-04
  0.9444444E+00  0.0000000E+00  0.1515152E-01 -0.5867604E-06  0.0000000E+00  0.1198321E-04
  0.9545454E+00  0.0000000E+00  0.1515152E-01 -0.4774987E-06  0.0000000E+00  0.1162605E-04
  0.9646465E+00  0.0000000E+00  0.1515152E-01 -0.3697900E-06  0.0000000E+00  0.1134172E-04
  0.9747475E+00  0.0000000E+00  0.1515152E-01 -0.2632824E-06  0.0000000E+00  0.1112928E-04
  0.9848485E+00  0.0000000E+00  0.1515152E-01 -0.1576290E-06  0.0000000E+00  0.1098803E-04
  0.9974747E+00  0.0000000E+00  0.1515152E-01 -0.5248637E-07  0.0000000E+00  0.1091752E-04
  0.5050505E-02  0.0000000E+00  0.2525252E-01  0.4604807E-07  0.0000000E+00  0.2997478E-05
  0.1515152E-01  0.0000000E+00  0.2525252E-01  0.1382787E-06  0.0000000E+00  0.3034710E-05
  0.2525252E-01  0.0000000E+00  0.2525252E-01  0.2309135E-06  0.0000000E+00  0.3109283E-05
  0.3535353E-01  0.0000000E+00  0.2525252E-01  0.3242238E-06  0.0000000E+00  0.3221415E-05
  0.4545455E-01  0.0000000E+00  0.2525252E-01  0.4184838E-06  0.0000000E+00  0.3371435E-05
  0.5555556E-01  0.0000000E+00  0.2525252E-01  0.5139713E-06  0.0000000E+00  0.3559785E-05
  0.6565657E-01  0.0000000E+00  0.2525252E-01  0.6109689E-06  0.0000000E+00  0.3787021E-05
  0.7575758E-01  0.0000000E+00  0.2525252E-01  0.7097653E-06  0.0000000E+00  0.4053813E-05
  0.8585858E-01  0.0000000E+00  0.2525252E-01  0.8106562E-06  0.0000000E+00  0.4360951E-05
  0.9595960E-01  0.0000000E+00  0.2525252E-01  0.9139459E-06  0.0000000E+00  0.4709347E-05
  0.1060606E+00  0.0000000E+00  0.2525252E-01  0.1019949E-05  0.0000000E+00  0.5100038E-05
  0.1161616E+00  0.0000000E+00  0.2525252E-01  0.1128990E-05  0.0000000E+00  0.5534191E-05
  0.1262626E+00  0.0000000E+00  0.2525252E-01  0.1241409E-05  0.0000000E+00  0.6013109E-05
  0.1363636E+00  0.0000000E+00  0.2525252E-01  0.1357560E-05  0.0000000E+00  0.6538234E-05
  0.1464646E+00  0.0000000E+00  0.2525252E-01  0.1477813E-05  0.0000000E+00  0.7111155E-05
  0.1565657E+00  0.0000000E+00  0.2525252E-01  0.1602559E-05  0.0000000E+00  0.7733618E-05
  0.1666667E+00  0.0000000E+00  0.2525252E-01  0.1732210E-05  0.0000000E+00  0.8407530E-05
  0.1767677E+00  0.0000000E+00  0.2525252E-01  0.1867203E-05  0.0000000E+00  0.9134970E-05
  0.1868687E+00  0.0000000E+00  0.2525252E-01  0.2008003E-05  0.0000000E+00  0.9918202E-05
  0.1969697E+00  0.0000000E+00  0.2525252E-01  0.2155109E-05  0.0000000E+00  0.1075968E-04
  0.2070707E+00  0.0000000E+00  0.2525252E-01  0.2309052E-05  0.0000000E+00  0.1166208E-04
  0.2171717E+00  0.0000000E+00  0.2525252E-01  0.2470407E-05  0.0000000E+00  0.1262828E-04
  0.2272727E+00  0.0000000E+00  0.2525252E-01  0.2639796E-05  0.0000000E+00  0.1366143E-04
  0.2373737E+00  0.0000000E+00  0.2525252E-01  0.2817894E-05  0.0000000E+00  0.1476491E-04
  0.2474747E+00  0.0000000E+00  0.2525252E-01  0.3005438E-05  0.0000000E+00  0.1594241E-04
  0.2575758E+00  0.0000000E+00  0.2525252E-01  0.3203234E-05  0.0000000E+00  0.1719791E-04
  0.2676768E+00  0.0000000E+00  0.2525252E-01  0.3412172E-05  0.0000000E+00  0.1853576E-04
  0.2777778E+00  0.0000000E+00  0.2525252E-01  0.3633235E-05  0.0000000E+00  0.1996066E-04
  0.2878788E+00  0.0000000E+00  0.2525252E-01  0.3867520E-05  0.0000000E+00  0.2147774E-04
  0.2979798E+00  0.0000000E+00  0.2525252E-01  0.4116253E-05  0.0000000E+00  0.2309258E-04
  0.3080808E+00  0.0000000E+00  0.2525252E-01  0.4380814E-05  0.0000000E+00  0.2481131E-04
  0.3181818E+00  0.0000000E+00  0.2525252E-01  0.4662770E-05  0.0000000E+00  0.2664062E-04
  0.3282828E+00  0.0000000E+00  0.2525252E-01  0.4963909E-05  0.0000000E+00  0.2858786E-04
  0.3383838E+00  0.0000000E+00  0.2525252E-01  0.5286291E-05  0.0000000E+00  0.3066115E-04
  0.3484848E+00  0.0000000E+00  0.2525252E-01  0.5632309E-05  0.0000000E+00  0.3286947E-04
  0.3585859E+00  0.0000000E+00  0.2525252E-01  0.6004769E-05  0.0000000E+00  0.3522282E-04
  0.3686869E+00  0.0000000E+00  0.2525252E-01  0.6407000E-05  0.0000000E+00  0.3773237E-04
  0.3787879E+00  0.0000000E+00  0.2525252E-01  0.6842992E-05  0.0000000E+00  0.4041069E-04
  0.3888889E+00  0.0000000E+00  0.2525252E-01  0.7317596E-05  0.0000000E+00  0.4327200E-04
  0.3989899E+00  0.0000000E+00  0.2525252E-01  0.7836788E-05  0.0000000E+00  0.4633257E-04
  0.4090909E+00  0.0000000E+00  0.2525252E-01  0.8408039E-05  0.0000000E+00  0.4961110E-04
  0.4191919E+00  0.0000000E+00  0.2525252E-01  0.9040839E-05  0.0000000E+00  0.5312938E-04
  0.4292929E+00  0.0000000E+00  0.2525252E-01  0.9747444E-05  0.0000000E+00  0.5691307E-04
  0.4393939E+00  0.0000000E+00  0.2525252E-01  0.1054394E-04  0.0000000E+00  0.6099276E-04
  0.4494950E+00  0.0000000E+00  0.2525252E-01  0.1145183E-04  0.0000000E+00  0.6540554E-04
  0.4595959E+00  0.0000000E+00  0.2525252E-01  0.1250029E-04  0.0000000E+00  0.7019707E-04
  0.4696970E+00  0.0000000E+00  0.2525252E-01  0.1372961E-04  0.0000000E+00  0.7542469E-04
  0.4797980E+00  0.0000000E+00  0.2525252E-01  0.1519617E-04  0.0000000E+00  0.8116195E-04
  0.4898990E+00  0.0000000E+00  0.2525252E-01  0.1697976E-04  0.0000000E+00  0.8750556E-04
  0.5000000E+00  0.0000000E+00  0.2525252E-01  0.1919377E-04  0.0000000E+00  0.9458624E-04
  0.5101010E+00  0.0000000E+00  0.2525252E-01  0.2199792E-04  0.0000000E+00  0.1025853E-03
  0.5202020E+00  0.0000000E+00  0.2525252E-01  0.2560734E-04  0.0000000E+00  0.1117556E-03
  0.5303030E+00  0.0000000E+00  0.2525252E-01  0.3026904E-04  0.0000000E+00  0.1224164E-03
  0.5404040E+00  0.0000000E+00  0.2525252E-01  0.3607929E-04  0.0000000E+00  0.1347117E-03
  0.5505050E+00  0.0000000E+00  0.2525252E-01  0.4210608E-04  0.0000000E+00  0.1468852E-03
  0.5606061E+00  0.0000000E+00  0.2525252E-01  0.4249779E-04  0.0000000E+00  0.1450312E-03
  0.5707071E+00  0.0000000E+00  0.2525252E-01 -0.7487423E-04  0.0000000E+00  0.1327560E-03
  0.5808081E+00  0.0000000E+00  0.2525252E-01 -0.4968968E-04  0.0000000E+00  0.1230841E-03
  0.5909091E+00  0.0000000E+00  0.2525252E-01 -0.3603617E-04  0.0000000E+00  0.1134895E-03
  0.6010101E+00  0.0000000E+00  0.2525252E-01 -0.2787069E-04  0.0000000E+00  0.1044435E-03
  0.6111111E+00  0.0000000E+00  0.2525252E-01 -0.2261136E-04  0.0000000E+00  0.9623847E-04
  0.6212121E+00  0.0000000E+00  0.2525252E-01 -0.1901439E-04  0.0000000E+00  0.8889836E-04
  0.6313131E+00  0.0000000E+00  0.2525252E-01 -0.1642584E-04  0.0000000E+00  0.8233491E-04
  0.6414142E+00  0.0000000E+00  0.2525252E-01 -0.1447909E-04  0.0000000E+00  0.7643553E-04
  0.6515151E+00  0.0000000E+00  0.2525252E-01 -0.1295796E-04  0.0000000E+00  0.7109662E-04
  0.6616161E+00  0.0000000E+00  0.2525252E-01 -0.1172955E-04  0.0000000E+00  0.6623222E-04
  0.6717172E+00  0.0000000E+00  0.2525252E-01 -0.1070917E-04  0.0000000E+00  0.6177375E-04
  0.6818182E+00  0.0000000E+00  0.2525252E-01 -0.9841068E-05  0.0000000E+00  0.5766709E-04
  0.6919192E+00  0.0000000E+00  0.2525252E-01 -0.9087540E-05  0.0000000E+00  0.5386940E-04
  0.7020202E+00  0.0000000E+00  0.2525252E-01 -0.8422401E-05  0.0000000E+00  0.5034646E-04
  0.7121212E+00  0.0000000E+00  0.2525252E-01 -0.7827049E-05  0.0000000E+00  0.4707061E-04
  0.7222222E+00  0.0000000E+00  0.2525252E-01 -0.7287984E-05  0.0000000E+00  0.4401911E-04
  0.7323232E+00  0.0000000E+00  0.2525252E-01 -0.6795210E-05  0.0000000E+00  0.4117306E-04
  0.7424242E+00  0.0000000E+00  0.2525252E-01 -0.6341180E-05  0.0000000E+00  0.3851646E-04
  0.7525253E+00  0.0000000E+00  0.2525252E-01 -0.5920090E-05  0.0000000E+00  0.3603562E-04
  0.7626263E+00  0.0000000E+00  0.2525252E-01 -0.5527397E-05  0.0000000E+00  0.3371868E-04
  0.7727273E+00  0.0000000E+00  0.2525252E-01 -0.5159478E-05  0.0000000E+00  0.3155524E-04
  0.7828283E+00  0.0000000E+00  0.2525252E-01 -0.4813397E-05  0.0000000E+00  0.2953611E-04
  0.7929293E+00  0.0000000E+00  0.2525252E-01 -0.4486731E-05  0.0000000E+00  0.2765310E-04
  0.8030303E+00  0.0000000E+00  0.2525252E-01 -0.4177448E-05  0.0000000E+00  0.2589886E-04
  0.8131313E+00  0.0000000E+00  0.2525252E-01 -0.3883819E-05  0.0000000E+00  0.2426676E-04
  0.8232324E+00  0.0000000E+00  0.2525252E-01 -0.3604346E-05  0.0000000E+00  0.2275079E-04
  0.8333333E+00  0.0000000E+00  0.2525252E-01 -0.3337714E-05  0.0000000E+00  0.2134550E-04
  0.8434343E+00  0.0000000E+00  0.2525252E-01 -0.3082754E-05  0.0000000E+00  0.2004592E-04
  0.8535354E+00  0.0000000E+00  0.2525252E-01 -0.2838411E-05  0.0000000E+00  0.1884754E-04
  0.8636364E+00  0.0000000E+00  0.2525252E-01 -0.2603725E-05  0.0000000E+00  0.1774622E-04
  0.8737374E+00  0.0000000E+00  0.2525252E-01 -0.2377808E-05  0.0000000E+00  0.1673823E-04
  0.8838384E+00  0.0000000E+00  0.2525252E-01 -0.2159838E-05  0.0000000E+00  0.1582015E-04
  0.8939394E+00  0.0000000E+00  0.2525252E-01 -0.1949039E-05  0.0000000E+00  0.1498891E-04
  0.9040404E+00  0.0000000E+00  0.2525252E-01 -0.1744678E-05  0.0000000E+00  0.1424172E-04
  0.9141414E+00  0.0000000E+00  0.2525252E-01 -0.1546059E-05  0.0000000E+00  0.1357611E-04
  0.9242424E+00  0.0000000E+00  0.2525252E-01 -0.1352512E-05  0.0000000E+00  0.1298987E-04
  0.9343435E+00  0.0000000E+00  0.2525252E-01 -0.1163390E-05  0.0000000E+00  0.1248106E-04
  0.9444444E+00  0.0000000E+00  0.2525252E-01 -0.9780669E-06  0.0000000E+00  0.1204800E-04
  0.9545454E+00  0.0000000E+00  0.2525252E-01 -0.7959333E-06  0.0000000E+00  0.1168927E-04
  0.9646465E+00  0.0000000E+00  0.2525252E-01 -0.6163916E-06  0.0000000E+00  0.1140369E-04
  0.9747475E+00  0.0000000E+00  0.2525252E-01 -0.4388549E-06  0.0000000E+00  0.1119031E-04
  0.9848485E+00  0.0000000E+00  0.2525252E-01 -0.2627444E-06  0.0000000E+00  0.1104845E-04
  0.9974747E+00  0.0000000E+00  0.2525252E-01 -0.8748688E-07  0.0000000E+00  0.1097763E-04
  0.5050505E-02  0.0000000E+00  0.3535353E-01  0.6451585E-07  0.0000000E+00  0.3064237E-05
  0.1515152E-01  0.0000000E+00  0.3535353E-01  0.1937361E-06  0.0000000E+00  0.3101709E-05
  0.2525252E-01  0.0000000E+00  0.3535353E-01  0.3235230E-06  0.0000000E+00  0.3176763E-05
  0.3535353E-01  0.0000000E+00  0.3535353E-01  0.4542569E-06  0.0000000E+00  0.3289618E-05
  0.4545455E-01  0.0000000E+00  0.3535353E-01  0.5863220E-06  0.0000000E+00  0.3440606E-05
  0.5555556E-01  0.0000000E+00  0.3535353E-01  0.7201076E-06  0.0000000E+00  0.3630171E-05
  0.6565657E-01  0.0000000E+00  0.3535353E-01  0.8560097E-06  0.0000000E+00  0.3858872E-05
  0.7575758E-01  0.0000000E+00  0.3535353E-01  0.9944328E-06  0.0000000E+00  0.4127386E-05
  0.8585858E-01  0.0000000E+00  0.3535353E-01  0.1135791E-05  0.0000000E+00  0.4436505E-05
  0.9595960E-01  0.0000000E+00  0.3535353E-01  0.1280511E-05  0.0000000E+00  0.4787150E-05
  0.1060606E+00  0.0000000E+00  0.3535353E-01  0.1429033E-05  0.0000000E+00  0.5180362E-05
  0.1161616E+00  0.0000000E+00  0.3535353E-01  0.1581812E-05  0.0000000E+00  0.5617317E-05
  0.1262626E+00  0.0000000E+00  0.3535353E-01  0.1739324E-05  0.0000000E+00  0.6099324E-05
  0.1363636E+00  0.0000000E+00  0.3535353E-01  0.1902063E-05  0.0000000E+00  0.6627835E-05
  0.1464646E+00  0.0000000E+00  0.3535353E-01  0.2070549E-05  0.0000000E+00  0.7204449E-05
  0.1565657E+00  0.0000000E+00  0.3535353E-01  0.2245328E-05  0.0000000E+00  0.7830918E-05
  0.1666667E+00  0.0000000E+00  0.3535353E-01  0.2426976E-05  0.0000000E+00  0.8509159E-05
  0.1767677E+00  0.0000000E+00  0.3535353E-01  0.2616105E-05  0.0000000E+00  0.9241262E-05
  0.1868687E+00  0.0000000E+00  0.3535353E-01  0.2813365E-05  0.0000000E+00  0.1002950E-04
  0.1969697E+00  0.0000000E+00  0.3535353E-01  0.3019449E-05  0.0000000E+00  0.1087633E-04
  0.2070707E+00  0.0000000E+00  0.3535353E-01  0.3235104E-05  0.0000000E+00  0.1178445E-04
  0.2171717E+00  0.0000000E+00  0.3535353E-01  0.3461130E-05  0.0000000E+00  0.1275673E-04
  0.2272727E+00  0.0000000E+00  0.3535353E-01  0.3698394E-05  0.0000000E+00  0.1379632E-04
  0.2373737E+00  0.0000000E+00  0.3535353E-01  0.3947837E-05  0.0000000E+00  0.1490663E-04
  0.2474747E+00  0.0000000E+00  0.3535353E-01  0.4210483E-05  0.0000000E+00  0.1609132E-04
  0.2575758E+00  0.0000000E+00  0.3535353E-01  0.4487455E-05  0.0000000E+00  0.1735438E-04
  0.2676768E+00  0.0000000E+00  0.3535353E-01  0.4779989E-05  0.0000000E+00  0.1870014E-04
  0.2777778E+00  0.0000000E+00  0.3535353E-01  0.5089449E-05  0.0000000E+00  0.2013329E-04
  0.2878788E+00  0.0000000E+00  0.3535353E-01  0.5417354E-05  0.0000000E+00  0.2165892E-04
  0.2979798E+00  0.0000000E+00  0.3535353E-01  0.5765399E-05  0.0000000E+00  0.2328258E-04