title = "dataset water"
variables = "x", "y", "z", "vx", "vy", "vz"
zone t = "velocities, solution time =  4.800E+01 days        " i =   99, j =   99, k =    1,  f=point
  0.5050505E-02  0.0000000E+00  0.5050505E-02  0.5115024E-07  0.0000000E+00  0.6672805E-04
  0.1515152E-01  0.0000000E+00  0.5050505E-02  0.1536051E-06  0.0000000E+00  0.6693509E-04
  0.2525252E-01  0.0000000E+00  0.5050505E-02  0.2565268E-06  0.0000000E+00  0.6734980E-04
  0.3535353E-01  0.0000000E+00  0.5050505E-02  0.3602333E-06  0.0000000E+00  0.6797348E-04
  0.4545455E-01  0.0000000E+00  0.5050505E-02  0.4650501E-06  0.0000000E+00  0.6880809E-04
  0.5555556E-01  0.0000000E+00  0.5050505E-02  0.5713128E-06  0.0000000E+00  0.6985627E-04
  0.6565657E-01  0.0000000E+00  0.5050505E-02  0.6793693E-06  0.0000000E+00  0.7112137E-04
  0.7575758E-01  0.0000000E+00  0.5050505E-02  0.7895828E-06  0.0000000E+00  0.7260749E-04
  0.8585858E-01  0.0000000E+00  0.5050505E-02  0.9023354E-06  0.0000000E+00  0.7431950E-04
  0.9595960E-01  0.0000000E+00  0.5050505E-02  0.1018032E-05  0.0000000E+00  0.7626307E-04
  0.1060606E+00  0.0000000E+00  0.5050505E-02  0.1137102E-05  0.0000000E+00  0.7844477E-04
  0.1161616E+00  0.0000000E+00  0.5050505E-02  0.1260007E-05  0.0000000E+00  0.8087207E-04
  0.1262626E+00  0.0000000E+00  0.5050505E-02  0.1387246E-05  0.0000000E+00  0.8355346E-04
  0.1363636E+00  0.0000000E+00  0.5050505E-02  0.1519356E-05  0.0000000E+00  0.8649850E-04
  0.1464646E+00  0.0000000E+00  0.5050505E-02  0.1656927E-05  0.0000000E+00  0.8971796E-04
  0.1565657E+00  0.0000000E+00  0.5050505E-02  0.1800602E-05  0.0000000E+00  0.9322386E-04
  0.1666667E+00  0.0000000E+00  0.5050505E-02  0.1951092E-05  0.0000000E+00  0.9702967E-04
  0.1767677E+00  0.0000000E+00  0.5050505E-02  0.2109185E-05  0.0000000E+00  0.1011504E-03
  0.1868687E+00  0.0000000E+00  0.5050505E-02  0.2275757E-05  0.0000000E+00  0.1056029E-03
  0.1969697E+00  0.0000000E+00  0.5050505E-02  0.2451791E-05  0.0000000E+00  0.1104059E-03
  0.2070707E+00  0.0000000E+00  0.5050505E-02  0.2638391E-05  0.0000000E+00  0.1155804E-03
  0.2171717E+00  0.0000000E+00  0.5050505E-02  0.2836808E-05  0.0000000E+00  0.1211497E-03
  0.2272727E+00  0.0000000E+00  0.5050505E-02  0.3048467E-05  0.0000000E+00  0.1271403E-03
  0.2373737E+00  0.0000000E+00  0.5050505E-02  0.3274994E-05  0.0000000E+00  0.1335816E-03
  0.2474747E+00  0.0000000E+00  0.5050505E-02  0.3518261E-05  0.0000000E+00  0.1405068E-03
  0.2575758E+00  0.0000000E+00  0.5050505E-02  0.3780429E-05  0.0000000E+00  0.1479537E-03
  0.2676768E+00  0.0000000E+00  0.5050505E-02  0.4064010E-05  0.0000000E+00  0.1559646E-03
  0.2777778E+00  0.0000000E+00  0.5050505E-02  0.4371932E-05  0.0000000E+00  0.1645880E-03
  0.2878788E+00  0.0000000E+00  0.5050505E-02  0.4707627E-05  0.0000000E+00  0.1738790E-03
  0.2979798E+00  0.0000000E+00  0.5050505E-02  0.5075133E-05  0.0000000E+00  0.1839010E-03
  0.3080808E+00  0.0000000E+00  0.5050505E-02  0.5479212E-05  0.0000000E+00  0.1947266E-03
  0.3181818E+00  0.0000000E+00  0.5050505E-02  0.5925496E-05  0.0000000E+00  0.2064399E-03
  0.3282828E+00  0.0000000E+00  0.5050505E-02  0.6420650E-05  0.0000000E+00  0.2191382E-03
  0.3383838E+00  0.0000000E+00  0.5050505E-02  0.6972548E-05  0.0000000E+00  0.2329347E-03
  0.3484848E+00  0.0000000E+00  0.5050505E-02  0.7590456E-05  0.0000000E+00  0.2479615E-03
  0.3585859E+00  0.0000000E+00  0.5050505E-02  0.8285182E-05  0.0000000E+00  0.2643726E-03
  0.3686869E+00  0.0000000E+00  0.5050505E-02  0.9069122E-05  0.0000000E+00  0.2823481E-03
  0.3787879E+00  0.0000000E+00  0.5050505E-02  0.9956099E-05  0.0000000E+00  0.3020974E-03
  0.3888889E+00  0.0000000E+00  0.5050505E-02  0.1096077E-04  0.0000000E+00  0.3238625E-03
  0.3989899E+00  0.0000000E+00  0.5050505E-02  0.1209726E-04  0.0000000E+00  0.3479189E-03
  0.4090909E+00  0.0000000E+00  0.5050505E-02  0.1337655E-04  0.0000000E+00  0.3745734E-03
  0.4191919E+00  0.0000000E+00  0.5050505E-02  0.1480202E-04  0.0000000E+00  0.4041532E-03
  0.4292929E+00  0.0000000E+00  0.5050505E-02  0.1636292E-04  0.0000000E+00  0.4369850E-03
  0.4393939E+00  0.0000000E+00  0.5050505E-02  0.1802678E-04  0.0000000E+00  0.4733578E-03
  0.4494950E+00  0.0000000E+00  0.5050505E-02  0.1973505E-04  0.0000000E+00  0.5134724E-03
  0.4595959E+00  0.0000000E+00  0.5050505E-02  0.2141014E-04  0.0000000E+00  0.5573920E-03
  0.4696970E+00  0.0000000E+00  0.5050505E-02  0.2298031E-04  0.0000000E+00  0.6050256E-03
  0.4797980E+00  0.0000000E+00  0.5050505E-02  0.2440242E-04  0.0000000E+00  0.6561602E-03
  0.4898990E+00  0.0000000E+00  0.5050505E-02  0.2564175E-04  0.0000000E+00  0.7104970E-03
  0.5000000E+00  0.0000000E+00  0.5050505E-02  0.2685496E-04  0.0000000E+00  0.7678669E-03
  0.5101010E+00  0.0000000E+00  0.5050505E-02  0.2827122E-04  0.0000000E+00  0.8285234E-03
  0.5202020E+00  0.0000000E+00  0.5050505E-02  0.3049097E-04  0.0000000E+00  0.8936506E-03
  0.5303030E+00  0.0000000E+00  0.5050505E-02  0.3483692E-04  0.0000000E+00  0.9666240E-03
  0.5404040E+00  0.0000000E+00  0.5050505E-02  0.4370569E-04  0.0000000E+00  0.1055140E-02
  0.5505050E+00  0.0000000E+00  0.5050505E-02  0.6398518E-04  0.0000000E+00  0.1177845E-02
  0.5606061E+00  0.0000000E+00  0.5050505E-02  0.8194682E-04  0.0000000E+00  0.1346526E-02
  0.5707071E+00  0.0000000E+00  0.5050505E-02 -0.8386712E-05  0.0000000E+00  0.1431994E-02
  0.5808081E+00  0.0000000E+00  0.5050505E-02 -0.1128741E-03  0.0000000E+00  0.1291946E-02
  0.5909091E+00  0.0000000E+00  0.5050505E-02 -0.7048299E-04  0.0000000E+00  0.1082134E-02
  0.6010101E+00  0.0000000E+00  0.5050505E-02 -0.5019545E-04  0.0000000E+00  0.9463757E-03
  0.6111111E+00  0.0000000E+00  0.5050505E-02 -0.4059715E-04  0.0000000E+00  0.8455030E-03
  0.6212121E+00  0.0000000E+00  0.5050505E-02 -0.3404907E-04  0.0000000E+00  0.7633872E-03
  0.6313131E+00  0.0000000E+00  0.5050505E-02 -0.2918746E-04  0.0000000E+00  0.6943981E-03
  0.6414142E+00  0.0000000E+00  0.5050505E-02 -0.2544379E-04  0.0000000E+00  0.6352200E-03
  0.6515151E+00  0.0000000E+00  0.5050505E-02 -0.2244923E-04  0.0000000E+00  0.5836618E-03
  0.6616161E+00  0.0000000E+00  0.5050505E-02 -0.1998411E-04  0.0000000E+00  0.5382304E-03
  0.6717172E+00  0.0000000E+00  0.5050505E-02 -0.1791832E-04  0.0000000E+00  0.4978471E-03
  0.6818182E+00  0.0000000E+00  0.5050505E-02 -0.1616559E-04  0.0000000E+00  0.4616903E-03
  0.6919192E+00  0.0000000E+00  0.5050505E-02 -0.1466111E-04  0.0000000E+00  0.4291171E-03
  0.7020202E+00  0.0000000E+00  0.5050505E-02 -0.1335339E-04  0.0000000E+00  0.3996208E-03
  0.7121212E+00  0.0000000E+00  0.5050505E-02 -0.1220183E-04  0.0000000E+00  0.3728009E-03
  0.7222222E+00  0.0000000E+00  0.5050505E-02 -0.1117549E-04  0.0000000E+00  0.3483393E-03
  0.7323232E+00  0.0000000E+00  0.5050505E-02 -0.1025157E-04  0.0000000E+00  0.3259790E-03
  0.7424242E+00  0.0000000E+00  0.5050505E-02 -0.9413524E-05  0.0000000E+00  0.3055082E-03
  0.7525253E+00  0.0000000E+00  0.5050505E-02 -0.8649252E-05  0.0000000E+00  0.2867481E-03
  0.7626263E+00  0.0000000E+00  0.5050505E-02 -0.7949623E-05  0.0000000E+00  0.2695444E-03
  0.7727273E+00  0.0000000E+00  0.5050505E-02 -0.7307410E-05  0.0000000E+00  0.2537617E-03
  0.7828283E+00  0.0000000E+00  0.5050505E-02 -0.6716600E-05  0.0000000E+00  0.2392800E-03
  0.7929293E+00  0.0000000E+00  0.5050505E-02 -0.6171978E-05  0.0000000E+00  0.2259923E-03
  0.8030303E+00  0.0000000E+00  0.5050505E-02 -0.5668895E-05  0.0000000E+00  0.2138027E-03
  0.8131313E+00  0.0000000E+00  0.5050505E-02 -0.5203147E-05  0.0000000E+00  0.2026258E-03
  0.8232324E+00  0.0000000E+00  0.5050505E-02 -0.4770904E-05  0.0000000E+00  0.1923848E-03
  0.8333333E+00  0.0000000E+00  0.5050505E-02 -0.4368676E-05  0.0000000E+00  0.1830113E-03
  0.8434343E+00  0.0000000E+00  0.5050505E-02 -0.3993281E-05  0.0000000E+00  0.1744443E-03
  0.8535354E+00  0.0000000E+00  0.5050505E-02 -0.3641827E-05  0.0000000E+00  0.1666294E-03
  0.8636364E+00  0.0000000E+00  0.5050505E-02 -0.3311683E-05  0.0000000E+00  0.1595183E-03
  0.8737374E+00  0.0000000E+00  0.5050505E-02 -0.3000460E-05  0.0000000E+00  0.1530682E-03
  0.8838384E+00  0.0000000E+00  0.5050505E-02 -0.2705987E-05  0.0000000E+00  0.1472411E-03
  0.8939394E+00  0.0000000E+00  0.5050505E-02 -0.2426287E-05  0.0000000E+00  0.1420037E-03
  0.9040404E+00  0.0000000E+00  0.5050505E-02 -0.2159557E-05  0.0000000E+00  0.1373266E-03
  0.9141414E+00  0.0000000E+00  0.5050505E-02 -0.1904143E-05  0.0000000E+00  0.1331841E-03
  0.9242424E+00  0.0000000E+00  0.5050505E-02 -0.1658525E-05  0.0000000E+00  0.1295540E-03
  0.9343435E+00  0.0000000E+00  0.5050505E-02 -0.1421296E-05  0.0000000E+00  0.1264171E-03
  0.9444444E+00  0.0000000E+00  0.5050505E-02 -0.1191148E-05  0.0000000E+00  0.1237571E-03
  0.9545454E+00  0.0000000E+00  0.5050505E-02 -0.9668514E-06  0.0000000E+00  0.1215604E-03
  0.9646465E+00  0.0000000E+00  0.5050505E-02 -0.7472474E-06  0.0000000E+00  0.1198159E-03
  0.9747475E+00  0.0000000E+00  0.5050505E-02 -0.5312312E-06  0.0000000E+00  0.1185150E-03
  0.9848485E+00  0.0000000E+00  0.5050505E-02 -0.3177412E-06  0.0000000E+00  0.1176512E-03
  0.9974747E+00  0.0000000E+00  0.5050505E-02 -0.1057490E-06  0.0000000E+00  0.1172203E-03
  0.5050505E-02  0.0000000E+00  0.1515152E-01  0.1532399E-06  0.0000000E+00  0.6670026E-04
  0.1515152E-01  0.0000000E+00  0.1515152E-01  0.4601832E-06  0.0000000E+00  0.6690705E-04
  0.2525252E-01  0.0000000E+00  0.1515152E-01  0.7685259E-06  0.0000000E+00  0.6732126E-04
  0.3535353E-01  0.0000000E+00  0.1515152E-01  0.1079220E-05  0.0000000E+00  0.6794418E-04
  0.4545455E-01  0.0000000E+00  0.1515152E-01  0.1393240E-05  0.0000000E+00  0.6877774E-04
  0.5555556E-01  0.0000000E+00  0.1515152E-01  0.1711588E-05  0.0000000E+00  0.6982459E-04
  0.6565657E-01  0.0000000E+00  0.1515152E-01  0.2035307E-05  0.0000000E+00  0.7108804E-04
  0.7575758E-01  0.0000000E+00  0.1515152E-01  0.2365482E-05  0.0000000E+00  0.7257216E-04
  0.8585858E-01  0.0000000E+00  0.1515152E-01  0.2703257E-05  0.0000000E+00  0.7428180E-04
  0.9595960E-01  0.0000000E+00  0.1515152E-01  0.3049840E-05  0.0000000E+00  0.7622259E-04
  0.1060606E+00  0.0000000E+00  0.1515152E-01  0.3406519E-05  0.0000000E+00  0.7840105E-04
  0.1161616E+00  0.0000000E+00  0.1515152E-01  0.3774673E-05  0.0000000E+00  0.8082460E-04
  0.1262626E+00  0.0000000E+00  0.1515152E-01  0.4155790E-05  0.0000000E+00  0.8350169E-04
  0.1363636E+00  0.0000000E+00  0.1515152E-01  0.4551481E-05  0.0000000E+00  0.8644179E-04
  0.1464646E+00  0.0000000E+00  0.1515152E-01  0.4963502E-05  0.0000000E+00  0.8965558E-04
  0.1565657E+00  0.0000000E+00  0.1515152E-01  0.5393780E-05  0.0000000E+00  0.9315500E-04
  0.1666667E+00  0.0000000E+00  0.1515152E-01  0.5844436E-05  0.0000000E+00  0.9695341E-04
  0.1767677E+00  0.0000000E+00  0.1515152E-01  0.6317820E-05  0.0000000E+00  0.1010657E-03
  0.1868687E+00  0.0000000E+00  0.1515152E-01  0.6816551E-05  0.0000000E+00  0.1055085E-03
  0.1969697E+00  0.0000000E+00  0.1515152E-01  0.7343557E-05  0.0000000E+00  0.1103005E-03
  0.2070707E+00  0.0000000E+00  0.1515152E-01  0.7902136E-05  0.0000000E+00  0.1154622E-03
  0.2171717E+00  0.0000000E+00  0.1515152E-01  0.8496017E-05  0.0000000E+00  0.1210170E-03
  0.2272727E+00  0.0000000E+00  0.1515152E-01  0.9129443E-05  0.0000000E+00  0.1269908E-03
  0.2373737E+00  0.0000000E+00  0.1515152E-01  0.9807262E-05  0.0000000E+00  0.1334128E-03
  0.2474747E+00  0.0000000E+00  0.1515152E-01  0.1053505E-04  0.0000000E+00  0.1403157E-03
  0.2575758E+00  0.0000000E+00  0.1515152E-01  0.1131923E-04  0.0000000E+00  0.1477366E-03
  0.2676768E+00  0.0000000E+00  0.1515152E-01  0.1216730E-04  0.0000000E+00  0.1557175E-03
  0.2777778E+00  0.0000000E+00  0.1515152E-01  0.1308795E-04  0.0000000E+00  0.1643058E-03
  0.2878788E+00  0.0000000E+00  0.1515152E-01  0.1409140E-04  0.0000000E+00  0.1735559E-03
  0.2979798E+00  0.0000000E+00  0.1515152E-01  0.1518966E-04  0.0000000E+00  0.1835298E-03
  0.3080808E+00  0.0000000E+00  0.1515152E-01  0.1639690E-04  0.0000000E+00  0.1942989E-03
  0.3181818E+00  0.0000000E+00  0.1515152E-01  0.1772988E-04  0.0000000E+00  0.2059455E-03
  0.3282828E+00  0.0000000E+00  0.1515152E-01  0.1920845E-04  0.0000000E+00  0.2185651E-03
  0.3383838E+00  0.0000000E+00  0.1515152E-01  0.2085610E-04  0.0000000E+00  0.2322685E-03
  0.3484848E+00  0.0000000E+00  0.1515152E-01  0.2270055E-04  0.0000000E+00  0.2471854E-03
  0.3585859E+00  0.0000000E+00  0.1515152E-01  0.2477421E-04  0.0000000E+00  0.2634671E-03
  0.3686869E+00  0.0000000E+00  0.1515152E-01  0.2711453E-04  0.0000000E+00  0.2812913E-03
  0.3787879E+00  0.0000000E+00  0.1515152E-01  0.2976362E-04  0.0000000E+00  0.3008657E-03
  0.3888889E+00  0.0000000E+00  0.1515152E-01  0.3276685E-04  0.0000000E+00  0.3224328E-03
  0.3989899E+00  0.0000000E+00  0.1515152E-01  0.3616918E-04  0.0000000E+00  0.3462729E-03
  0.4090909E+00  0.0000000E+00  0.1515152E-01  0.4000780E-04  0.0000000E+00  0.3727041E-03
  0.4191919E+00  0.0000000E+00  0.1515152E-01  0.4429887E-04  0.0000000E+00  0.4020766E-03
  0.4292929E+00  0.0000000E+00  0.1515152E-01  0.4901681E-04  0.0000000E+00  0.4347536E-03
  0.4393939E+00  0.0000000E+00  0.1515152E-01  0.5406740E-04  0.0000000E+00  0.4710725E-03
  0.4494950E+00  0.0000000E+00  0.1515152E-01  0.5926652E-04  0.0000000E+00  0.5112788E-03
  0.4595959E+00  0.0000000E+00  0.1515152E-01  0.6435604E-04  0.0000000E+00  0.5554479E-03
  0.4696970E+00  0.0000000E+00  0.1515152E-01  0.6909806E-04  0.0000000E+00  0.6034518E-03
  0.4797980E+00  0.0000000E+00  0.1515152E-01  0.7338159E-04  0.0000000E+00  0.6550389E-03
  0.4898990E+00  0.0000000E+00  0.1515152E-01  0.7693333E-04  0.0000000E+00  0.7097087E-03
  0.5000000E+00  0.0000000E+00  0.1515152E-01  0.8033862E-04  0.0000000E+00  0.7670281E-03
  0.5101010E+00  0.0000000E+00  0.1515152E-01  0.8401675E-04  0.0000000E+00  0.8268095E-03
  0.5202020E+00  0.0000000E+00  0.1515152E-01  0.8946740E-04  0.0000000E+00  0.8891505E-03
  0.5303030E+00  0.0000000E+00  0.1515152E-01  0.1003728E-03  0.0000000E+00  0.9556462E-03
  0.5404040E+00  0.0000000E+00  0.1515152E-01  0.1209534E-03  0.0000000E+00  0.1028460E-02
  0.5505050E+00  0.0000000E+00  0.1515152E-01  0.1614682E-03  0.0000000E+00  0.1105184E-02
  0.5606061E+00  0.0000000E+00  0.1515152E-01  0.2105666E-03  0.0000000E+00  0.1197774E-02
  0.5707071E+00  0.0000000E+00  0.1515152E-01 -0.1007489E-03  0.0000000E+00  0.1154923E-02
  0.5808081E+00  0.0000000E+00  0.1515152E-01 -0.2150486E-03  0.0000000E+00  0.1069064E-02
  0.5909091E+00  0.0000000E+00  0.1515152E-01 -0.1923355E-03  0.0000000E+00  0.1022248E-02
  0.6010101E+00  0.0000000E+00  0.1515152E-01 -0.1411236E-03  0.0000000E+00  0.9189138E-03
  0.6111111E+00  0.0000000E+00  0.1515152E-01 -0.1191146E-03  0.0000000E+00  0.8315393E-03
  0.6212121E+00  0.0000000E+00  0.1515152E-01 -0.1006689E-03  0.0000000E+00  0.7539548E-03
  0.6313131E+00  0.0000000E+00  0.1515152E-01 -0.8658309E-04  0.0000000E+00  0.6875877E-03
  0.6414142E+00  0.0000000E+00  0.1515152E-01 -0.7567952E-04  0.0000000E+00  0.6301136E-03
  0.6515151E+00  0.0000000E+00  0.1515152E-01 -0.6689055E-04  0.0000000E+00  0.5796884E-03
  0.6616161E+00  0.0000000E+00  0.1515152E-01 -0.5960908E-04  0.0000000E+00  0.5350567E-03
  0.6717172E+00  0.0000000E+00  0.1515152E-01 -0.5348633E-04  0.0000000E+00  0.4952718E-03
  0.6818182E+00  0.0000000E+00  0.1515152E-01 -0.4828410E-04  0.0000000E+00  0.4595757E-03
  0.6919192E+00  0.0000000E+00  0.1515152E-01 -0.4381533E-04  0.0000000E+00  0.4273584E-03
  0.7020202E+00  0.0000000E+00  0.1515152E-01 -0.3992747E-04  0.0000000E+00  0.3981353E-03
  0.7121212E+00  0.0000000E+00  0.1515152E-01 -0.3649959E-04  0.0000000E+00  0.3715254E-03
  0.7222222E+00  0.0000000E+00  0.1515152E-01 -0.3344013E-04  0.0000000E+00  0.3472268E-03
  0.7323232E+00  0.0000000E+00  0.1515152E-01 -0.3068229E-04  0.0000000E+00  0.3249963E-03
  0.7424242E+00  0.0000000E+00  0.1515152E-01 -0.2817805E-04  0.0000000E+00  0.3046320E-03
  0.7525253E+00  0.0000000E+00  0.1515152E-01 -0.2589249E-04  0.0000000E+00  0.2859621E-03
  0.7626263E+00  0.0000000E+00  0.1515152E-01 -0.2379920E-04  0.0000000E+00  0.2688367E-03
  0.7727273E+00  0.0000000E+00  0.1515152E-01 -0.2187716E-04  0.0000000E+00  0.2531231E-03
  0.7828283E+00  0.0000000E+00  0.1515152E-01 -0.2010870E-04  0.0000000E+00  0.2387029E-03
  0.7929293E+00  0.0000000E+00  0.1515152E-01 -0.1847840E-04  0.0000000E+00  0.2254703E-03
  0.8030303E+00  0.0000000E+00  0.1515152E-01 -0.1697242E-04  0.0000000E+00  0.2133301E-03
  0.8131313E+00  0.0000000E+00  0.1515152E-01 -0.1557820E-04  0.0000000E+00  0.2021973E-03
  0.8232324E+00  0.0000000E+00  0.1515152E-01 -0.1428429E-04  0.0000000E+00  0.1919956E-03
  0.8333333E+00  0.0000000E+00  0.1515152E-01 -0.1308021E-04  0.0000000E+00  0.1826572E-03
  0.8434343E+00  0.0000000E+00  0.1515152E-01 -0.1195644E-04  0.0000000E+00  0.1741213E-03
  0.8535354E+00  0.0000000E+00  0.1515152E-01 -0.1090432E-04  0.0000000E+00  0.1663340E-03
  0.8636364E+00  0.0000000E+00  0.1515152E-01 -0.9915967E-05  0.0000000E+00  0.1592472E-03
  0.8737374E+00  0.0000000E+00  0.1515152E-01 -0.8984225E-05  0.0000000E+00  0.1528185E-03
  0.8838384E+00  0.0000000E+00  0.1515152E-01 -0.8102599E-05  0.0000000E+00  0.1470103E-03
  0.8939394E+00  0.0000000E+00  0.1515152E-01 -0.7265173E-05  0.0000000E+00  0.1417893E-03
  0.9040404E+00  0.0000000E+00  0.1515152E-01 -0.6466550E-05  0.0000000E+00  0.1371265E-03
  0.9141414E+00  0.0000000E+00  0.1515152E-01 -0.5701786E-05  0.0000000E+00  0.1329963E-03
  0.9242424E+00  0.0000000E+00  0.1515152E-01 -0.4966334E-05  0.0000000E+00  0.1293768E-03
  0.9343435E+00  0.0000000E+00  0.1515152E-01 -0.4255985E-05  0.0000000E+00  0.1262488E-03
  0.9444444E+00  0.0000000E+00  0.1515152E-01 -0.3566824E-05  0.0000000E+00  0.1235962E-03
  0.9545454E+00  0.0000000E+00  0.1515152E-01 -0.2895179E-05  0.0000000E+00  0.1214055E-03
  0.9646465E+00  0.0000000E+00  0.1515152E-01 -0.2237583E-05  0.0000000E+00  0.1196657E-03
  0.9747475E+00  0.0000000E+00  0.1515152E-01 -0.1590730E-05  0.0000000E+00  0.1183682E-03
  0.9848485E+00  0.0000000E+00  0.1515152E-01 -0.9514466E-06  0.0000000E+00  0.1175067E-03
  0.9974747E+00  0.0000000E+00  0.1515152E-01 -0.3166542E-06  0.0000000E+00  0.1170769E-03
  0.5050505E-02  0.0000000E+00  0.2525252E-01  0.2548513E-06  0.0000000E+00  0.6664681E-04
  0.1515152E-01  0.0000000E+00  0.2525252E-01  0.7653253E-06  0.0000000E+00  0.6685311E-04
  0.2525252E-01  0.0000000E+00  0.2525252E-01  0.1278126E-05  0.0000000E+00  0.6726635E-04
  0.3535353E-01  0.0000000E+00  0.2525252E-01  0.1794833E-05  0.0000000E+00  0.6788776E-04
  0.4545455E-01  0.0000000E+00  0.2525252E-01  0.2317062E-05  0.0000000E+00  0.6871929E-04
  0.5555556E-01  0.0000000E+00  0.2525252E-01  0.2846479E-05  0.0000000E+00  0.6976351E-04
  0.6565657E-01  0.0000000E+00  0.2525252E-01  0.3384808E-05  0.0000000E+00  0.7102372E-04
  0.7575758E-01  0.0000000E+00  0.2525252E-01  0.3933851E-05  0.0000000E+00  0.7250393E-04
  0.8585858E-01  0.0000000E+00  0.2525252E-01  0.4495502E-05  0.0000000E+00  0.7420893E-04
  0.9595960E-01  0.0000000E+00  0.2525252E-01  0.5071764E-05  0.0000000E+00  0.7614427E-04
  0.1060606E+00  0.0000000E+00  0.2525252E-01  0.5664770E-05  0.0000000E+00  0.7831639E-04
  0.1161616E+00  0.0000000E+00  0.2525252E-01  0.6276804E-05  0.0000000E+00  0.8073262E-04
  0.1262626E+00  0.0000000E+00  0.2525252E-01  0.6910327E-05  0.0000000E+00  0.8340127E-04
  0.1363636E+00  0.0000000E+00  0.2525252E-01  0.7568007E-05  0.0000000E+00  0.8633169E-04
  0.1464646E+00  0.0000000E+00  0.2525252E-01  0.8252749E-05  0.0000000E+00  0.8953439E-04
  0.1565657E+00  0.0000000E+00  0.2525252E-01  0.8967737E-05  0.0000000E+00  0.9302113E-04
  0.1666667E+00  0.0000000E+00  0.2525252E-01  0.9716476E-05  0.0000000E+00  0.9680505E-04
  0.1767677E+00  0.0000000E+00  0.2525252E-01  0.1050285E-04  0.0000000E+00  0.1009008E-03
  0.1868687E+00  0.0000000E+00  0.2525252E-01  0.1133117E-04  0.0000000E+00  0.1053247E-03
  0.1969697E+00  0.0000000E+00  0.2525252E-01  0.1220628E-04  0.0000000E+00  0.1100949E-03
  0.2070707E+00  0.0000000E+00  0.2525252E-01  0.1313360E-04  0.0000000E+00  0.1152318E-03
  0.2171717E+00  0.0000000E+00  0.2525252E-01  0.1411928E-04  0.0000000E+00  0.1207581E-03
  0.2272727E+00  0.0000000E+00  0.2525252E-01  0.1517030E-04  0.0000000E+00  0.1266991E-03
  0.2373737E+00  0.0000000E+00  0.2525252E-01  0.1629463E-04  0.0000000E+00  0.1330832E-03
  0.2474747E+00  0.0000000E+00  0.2525252E-01  0.1750143E-04  0.0000000E+00  0.1399425E-03
  0.2575758E+00  0.0000000E+00  0.2525252E-01  0.1880126E-04  0.0000000E+00  0.1473128E-03
  0.2676768E+00  0.0000000E+00  0.2525252E-01  0.2020638E-04  0.0000000E+00  0.1552348E-03
  0.2777778E+00  0.0000000E+00  0.2525252E-01  0.2173109E-04  0.0000000E+00  0.1637545E-03
  0.2878788E+00  0.0000000E+00  0.2525252E-01  0.2339210E-04  0.0000000E+00  0.1729244E-03
  0.2979798E+00  0.0000000E+00  0.2525252E-01  0.2520912E-04  0.0000000E+00  0.1828042E-03
  0.3080808E+00  0.0000000E+00  0.2525252E-01  0.2720535E-04  0.0000000E+00  0.1934627E-03
  0.3181818E+00  0.0000000E+00  0.2525252E-01  0.2940829E-04  0.0000000E+00  0.2049788E-03
  0.3282828E+00  0.0000000E+00  0.2525252E-01  0.3185055E-04  0.0000000E+00  0.2174441E-03
  0.3383838E+00  0.0000000E+00  0.2525252E-01  0.3457080E-04  0.0000000E+00  0.2309651E-03
  0.3484848E+00  0.0000000E+00  0.2525252E-01  0.3761487E-04  0.0000000E+00  0.2456661E-03
  0.3585859E+00  0.0000000E+00  0.2525252E-01  0.4103673E-04  0.0000000E+00  0.2616930E-03
  0.3686869E+00  0.0000000E+00  0.2525252E-01  0.4489939E-04  0.0000000E+00  0.2792179E-03
  0.3787879E+00  0.0000000E+00  0.2525252E-01  0.4927495E-04  0.0000000E+00  0.2984443E-03
  0.3888889E+00  0.0000000E+00  0.2525252E-01  0.5424331E-04  0.0000000E+00  0.3196138E-03
  0.3989899E+00  0.0000000E+00  0.2525252E-01  0.5988764E-04  0.0000000E+00  0.3430131E-03
  0.4090909E+00  0.0000000E+00  0.2525252E-01  0.6628411E-04  0.0000000E+00  0.3689807E-03
  0.4191919E+00  0.0000000E+00  0.2525252E-01  0.7348125E-04  0.0000000E+00  0.3979100E-03
  0.4292929E+00  0.0000000E+00  0.2525252E-01  0.8146302E-04  0.0000000E+00  0.4302410E-03
  0.4393939E+00  0.0000000E+00  0.2525252E-01  0.9009089E-04  0.0000000E+00  0.4664233E-03
  0.4494950E+00  0.0000000E+00  0.2525252E-01  0.9903535E-04  0.0000000E+00  0.5068213E-03
  0.4595959E+00  0.0000000E+00  0.2525252E-01  0.1077627E-03  0.0000000E+00  0.5515482E-03
  0.4696970E+00  0.0000000E+00  0.2525252E-01  0.1157650E-03  0.0000000E+00  0.6003589E-03
  0.4797980E+00  0.0000000E+00  0.2525252E-01  0.1231337E-03  0.0000000E+00  0.6530697E-03
  0.4898990E+00  0.0000000E+00  0.2525252E-01  0.1284058E-03  0.0000000E+00  0.7086788E-03
  0.5000000E+00  0.0000000E+00  0.2525252E-01  0.1335662E-03  0.0000000E+00  0.7663243E-03
  0.5101010E+00  0.0000000E+00  0.2525252E-01  0.1380858E-03  0.0000000E+00  0.8253518E-03
  0.5202020E+00  0.0000000E+00  0.2525252E-01  0.1434174E-03  0.0000000E+00  0.8837006E-03
  0.5303030E+00  0.0000000E+00  0.2525252E-01  0.1571517E-03  0.0000000E+00  0.9420709E-03
  0.5404040E+00  0.0000000E+00  0.2525252E-01  0.1804947E-03  0.0000000E+00  0.1001652E-02
  0.5505050E+00  0.0000000E+00  0.2525252E-01  0.2189858E-03  0.0000000E+00  0.1059580E-02
  0.5606061E+00  0.0000000E+00  0.2525252E-01  0.2296783E-03  0.0000000E+00  0.1057644E-02
  0.5707071E+00  0.0000000E+00  0.2525252E-01 -0.2000893E-03  0.0000000E+00  0.1009532E-02
  0.5808081E+00  0.0000000E+00  0.2525252E-01 -0.2334587E-03  0.0000000E+00  0.9582171E-03
  0.5909091E+00  0.0000000E+00  0.2525252E-01 -0.2507781E-03  0.0000000E+00  0.9164255E-03
  0.6010101E+00  0.0000000E+00  0.2525252E-01 -0.2060044E-03  0.0000000E+00  0.8806061E-03
  0.6111111E+00  0.0000000E+00  0.2525252E-01 -0.1947661E-03  0.0000000E+00  0.8118007E-03
  0.6212121E+00  0.0000000E+00  0.2525252E-01 -0.1635669E-03  0.0000000E+00  0.7369594E-03
  0.6313131E+00  0.0000000E+00  0.2525252E-01 -0.1412641E-03  0.0000000E+00  0.6749346E-03
  0.6414142E+00  0.0000000E+00  0.2525252E-01 -0.1241417E-03  0.0000000E+00  0.6205384E-03
  0.6515151E+00  0.0000000E+00  0.2525252E-01 -0.1100872E-03  0.0000000E+00  0.5721446E-03
  0.6616161E+00  0.0000000E+00  0.2525252E-01 -0.9828556E-04  0.0000000E+00  0.5289757E-03
  0.6717172E+00  0.0000000E+00  0.2525252E-01 -0.8830476E-04  0.0000000E+00  0.4903172E-03
  0.6818182E+00  0.0000000E+00  0.2525252E-01 -0.7980950E-04  0.0000000E+00  0.4555028E-03
  0.6919192E+00  0.0000000E+00  0.2525252E-01 -0.7250497E-04  0.0000000E+00  0.4239687E-03
  0.7020202E+00  0.0000000E+00  0.2525252E-01 -0.6613919E-04  0.0000000E+00  0.3952680E-03
  0.7121212E+00  0.0000000E+00  0.2525252E-01 -0.6051190E-04  0.0000000E+00  0.3690565E-03
  0.7222222E+00  0.0000000E+00  0.2525252E-01 -0.5547442E-04  0.0000000E+00  0.3450665E-03
  0.7323232E+00  0.0000000E+00  0.2525252E-01 -0.5092106E-04  0.0000000E+00  0.3230818E-03
  0.7424242E+00  0.0000000E+00  0.2525252E-01 -0.4677747E-04  0.0000000E+00  0.3029205E-03
  0.7525253E+00  0.0000000E+00  0.2525252E-01 -0.4299003E-04  0.0000000E+00  0.2844237E-03
  0.7626263E+00  0.0000000E+00  0.2525252E-01 -0.3951799E-04  0.0000000E+00  0.2674495E-03
  0.7727273E+00  0.0000000E+00  0.2525252E-01 -0.3632836E-04  0.0000000E+00  0.2518703E-03
  0.7828283E+00  0.0000000E+00  0.2525252E-01 -0.3339290E-04  0.0000000E+00  0.2375703E-03
  0.7929293E+00  0.0000000E+00  0.2525252E-01 -0.3068653E-04  0.0000000E+00  0.2244456E-03
  0.8030303E+00  0.0000000E+00  0.2525252E-01 -0.2818650E-04  0.0000000E+00  0.2124022E-03
  0.8131313E+00  0.0000000E+00  0.2525252E-01 -0.2587200E-04  0.0000000E+00  0.2013560E-03
  0.8232324E+00  0.0000000E+00  0.2525252E-01 -0.2372401E-04  0.0000000E+00  0.1912317E-03
  0.8333333E+00  0.0000000E+00  0.2525252E-01 -0.2172512E-04  0.0000000E+00  0.1819621E-03
  0.8434343E+00  0.0000000E+00  0.2525252E-01 -0.1985949E-04  0.0000000E+00  0.1734874E-03
  0.8535354E+00  0.0000000E+00  0.2525252E-01 -0.1811270E-04  0.0000000E+00  0.1657542E-03
  0.8636364E+00  0.0000000E+00  0.2525252E-01 -0.1647166E-04  0.0000000E+00  0.1587152E-03
  0.8737374E+00  0.0000000E+00  0.2525252E-01 -0.1492450E-04  0.0000000E+00  0.1523287E-03
  0.8838384E+00  0.0000000E+00  0.2525252E-01 -0.1346044E-04  0.0000000E+00  0.1465574E-03
  0.8939394E+00  0.0000000E+00  0.2525252E-01 -0.1206965E-04  0.0000000E+00  0.1413687E-03
  0.9040404E+00  0.0000000E+00  0.2525252E-01 -0.1074320E-04  0.0000000E+00  0.1367339E-03
  0.9141414E+00  0.0000000E+00  0.2525252E-01 -0.9472893E-05  0.0000000E+00  0.1326280E-03
  0.9242424E+00  0.0000000E+00  0.2525252E-01 -0.8251184E-05  0.0000000E+00  0.1290292E-03
  0.9343435E+00  0.0000000E+00  0.2525252E-01 -0.7071106E-05  0.0000000E+00  0.1259187E-03
  0.9444444E+00  0.0000000E+00  0.2525252E-01 -0.5926168E-05  0.0000000E+00  0.1232807E-03
  0.9545454E+00  0.0000000E+00  0.2525252E-01 -0.4810287E-05  0.0000000E+00  0.1211018E-03
  0.9646465E+00  0.0000000E+00  0.2525252E-01 -0.3717717E-05  0.0000000E+00  0.1193713E-03
  0.9747475E+00  0.0000000E+00  0.2525252E-01 -0.2642980E-05  0.0000000E+00  0.1180806E-03
  0.9848485E+00  0.0000000E+00  0.2525252E-01 -0.1580814E-05  0.0000000E+00  0.1172235E-03
  0.9974747E+00  0.0000000E+00  0.2525252E-01 -0.5261146E-06  0.0000000E+00  0.1167960E-03
  0.5050505E-02  0.0000000E+00  0.3535353E-01  0.3558739E-06  0.0000000E+00  0.6656986E-04
  0.1515152E-01  0.0000000E+00  0.3535353E-01  0.1068697E-05  0.0000000E+00  0.6677546E-04
  0.2525252E-01  0.0000000E+00  0.3535353E-01  0.1784762E-05  0.0000000E+00  0.6718725E-04
  0.3535353E-01  0.0000000E+00  0.3535353E-01  0.2506267E-05  0.0000000E+00  0.6780647E-04
  0.4545455E-01  0.0000000E+00  0.3535353E-01  0.3235460E-05  0.0000000E+00  0.6863500E-04
  0.5555556E-01  0.0000000E+00  0.3535353E-01  0.3974655E-05  0.0000000E+00  0.6967539E-04
  0.6565657E-01  0.0000000E+00  0.3535353E-01  0.4726250E-05  0.0000000E+00  0.7093086E-04
  0.7575758E-01  0.0000000E+00  0.3535353E-01  0.5492750E-05  0.0000000E+00  0.7240535E-04
  0.8585858E-01  0.0000000E+00  0.3535353E-01  0.6276783E-05  0.0000000E+00  0.7410356E-04
  0.9595960E-01  0.0000000E+00  0.3535353E-01  0.7081132E-05  0.0000000E+00  0.7603094E-04
  0.1060606E+00  0.0000000E+00  0.3535353E-01  0.7908757E-05  0.0000000E+00  0.7819379E-04
  0.1161616E+00  0.0000000E+00  0.3535353E-01  0.8762826E-05  0.0000000E+00  0.8059931E-04
  0.1262626E+00  0.0000000E+00  0.3535353E-01  0.9646752E-05  0.0000000E+00  0.8325562E-04
  0.1363636E+00  0.0000000E+00  0.3535353E-01  0.1056423E-04  0.0000000E+00  0.8617188E-04
  0.1464646E+00  0.0000000E+00  0.3535353E-01  0.1151929E-04  0.0000000E+00  0.8935837E-04
  0.1565657E+00  0.0000000E+00  0.3535353E-01  0.1251632E-04  0.0000000E+00  0.9282658E-04
  0.1666667E+00  0.0000000E+00  0.3535353E-01  0.1356019E-04  0.0000000E+00  0.9658930E-04
  0.1767677E+00  0.0000000E+00  0.3535353E-01  0.1465624E-04  0.0000000E+00  0.1006608E-03
  0.1868687E+00  0.0000000E+00  0.3535353E-01  0.1581044E-04  0.0000000E+00  0.1050570E-03
  0.1969697E+00  0.0000000E+00  0.3535353E-01  0.1702945E-04  0.0000000E+00  0.1097956E-03
  0.2070707E+00  0.0000000E+00  0.3535353E-01  0.1832076E-04  0.0000000E+00  0.1148962E-03
  0.2171717E+00  0.0000000E+00  0.3535353E-01  0.1969280E-04  0.0000000E+00  0.1203808E-03
  0.2272727E+00  0.0000000E+00  0.3535353E-01  0.2115518E-04  0.0000000E+00  0.1262740E-03
  0.2373737E+00  0.0000000E+00  0.3535353E-01  0.2271882E-04  0.0000000E+00  0.1326030E-03
  0.2474747E+00  0.0000000E+00  0.3535353E-01  0.2439628E-04  0.0000000E+00  0.1393985E-03
  0.2575758E+00  0.0000000E+00  0.3535353E-01  0.2620202E-04  0.0000000E+00  0.1466951E-03
  0.2676768E+00  0.0000000E+00  0.3535353E-01  0.2815281E-04  0.0000000E+00  0.1545314E-03
  0.2777778E+00  0.0000000E+00  0.3535353E-01  0.3026817E-04  0.0000000E+00  0.1629513E-03
  0.2878788E+00  0.0000000E+00  0.3535353E-01  0.3257095E-04  0.0000000E+00  0.1720044E-03
  0.2979798E+00  0.0000000E+00  0.3535353E-01  0.3508799E-04  0.0000000E+00  0.1817474E-03