title = "dataset water"
variables = "x", "y", "z", "vx", "vy", "vz"
zone t = "velocities, solution time =  4.200E+01 days        " i =   99, j =   99, k =    1,  f=point
  0.5050505E-02  0.0000000E+00  0.5050505E-02  0.2784182E-07  0.0000000E+00  0.2721098E-04
  0.1515152E-01  0.0000000E+00  0.5050505E-02  0.8361164E-07  0.0000000E+00  0.2732313E-04
  0.2525252E-01  0.0000000E+00  0.5050505E-02  0.1396411E-06  0.0000000E+00  0.2754779E-04
  0.3535353E-01  0.0000000E+00  0.5050505E-02  0.1961056E-06  0.0000000E+00  0.2788565E-04
  0.4545455E-01  0.0000000E+00  0.5050505E-02  0.2531832E-06  0.0000000E+00  0.2833780E-04
  0.5555556E-01  0.0000000E+00  0.5050505E-02  0.3110556E-06  0.0000000E+00  0.2890565E-04
  0.6565657E-01  0.0000000E+00  0.5050505E-02  0.3699089E-06  0.0000000E+00  0.2959103E-04
  0.7575758E-01  0.0000000E+00  0.5050505E-02  0.4299349E-06  0.0000000E+00  0.3039612E-04
  0.8585858E-01  0.0000000E+00  0.5050505E-02  0.4913319E-06  0.0000000E+00  0.3132352E-04
  0.9595960E-01  0.0000000E+00  0.5050505E-02  0.5543062E-06  0.0000000E+00  0.3237625E-04
  0.1060606E+00  0.0000000E+00  0.5050505E-02  0.6190733E-06  0.0000000E+00  0.3355773E-04
  0.1161616E+00  0.0000000E+00  0.5050505E-02  0.6858592E-06  0.0000000E+00  0.3487187E-04
  0.1262626E+00  0.0000000E+00  0.5050505E-02  0.7549024E-06  0.0000000E+00  0.3632302E-04
  0.1363636E+00  0.0000000E+00  0.5050505E-02  0.8264549E-06  0.0000000E+00  0.3791607E-04
  0.1464646E+00  0.0000000E+00  0.5050505E-02  0.9007852E-06  0.0000000E+00  0.3965642E-04
  0.1565657E+00  0.0000000E+00  0.5050505E-02  0.9781792E-06  0.0000000E+00  0.4155005E-04
  0.1666667E+00  0.0000000E+00  0.5050505E-02  0.1058944E-05  0.0000000E+00  0.4360355E-04
  0.1767677E+00  0.0000000E+00  0.5050505E-02  0.1143409E-05  0.0000000E+00  0.4582416E-04
  0.1868687E+00  0.0000000E+00  0.5050505E-02  0.1231931E-05  0.0000000E+00  0.4821985E-04
  0.1969697E+00  0.0000000E+00  0.5050505E-02  0.1324895E-05  0.0000000E+00  0.5079933E-04
  0.2070707E+00  0.0000000E+00  0.5050505E-02  0.1422722E-05  0.0000000E+00  0.5357217E-04
  0.2171717E+00  0.0000000E+00  0.5050505E-02  0.1525868E-05  0.0000000E+00  0.5654883E-04
  0.2272727E+00  0.0000000E+00  0.5050505E-02  0.1634835E-05  0.0000000E+00  0.5974079E-04
  0.2373737E+00  0.0000000E+00  0.5050505E-02  0.1750172E-05  0.0000000E+00  0.6316061E-04
  0.2474747E+00  0.0000000E+00  0.5050505E-02  0.1872485E-05  0.0000000E+00  0.6682205E-04
  0.2575758E+00  0.0000000E+00  0.5050505E-02  0.2002441E-05  0.0000000E+00  0.7074022E-04
  0.2676768E+00  0.0000000E+00  0.5050505E-02  0.2140781E-05  0.0000000E+00  0.7493168E-04
  0.2777778E+00  0.0000000E+00  0.5050505E-02  0.2288325E-05  0.0000000E+00  0.7941465E-04
  0.2878788E+00  0.0000000E+00  0.5050505E-02  0.2445984E-05  0.0000000E+00  0.8420917E-04
  0.2979798E+00  0.0000000E+00  0.5050505E-02  0.2614776E-05  0.0000000E+00  0.8933729E-04
  0.3080808E+00  0.0000000E+00  0.5050505E-02  0.2795833E-05  0.0000000E+00  0.9482335E-04
  0.3181818E+00  0.0000000E+00  0.5050505E-02  0.2990420E-05  0.0000000E+00  0.1006942E-03
  0.3282828E+00  0.0000000E+00  0.5050505E-02  0.3199952E-05  0.0000000E+00  0.1069796E-03
  0.3383838E+00  0.0000000E+00  0.5050505E-02  0.3426006E-05  0.0000000E+00  0.1137125E-03
  0.3484848E+00  0.0000000E+00  0.5050505E-02  0.3670344E-05  0.0000000E+00  0.1209293E-03
  0.3585859E+00  0.0000000E+00  0.5050505E-02  0.3934925E-05  0.0000000E+00  0.1286704E-03
  0.3686869E+00  0.0000000E+00  0.5050505E-02  0.4221921E-05  0.0000000E+00  0.1369808E-03
  0.3787879E+00  0.0000000E+00  0.5050505E-02  0.4533726E-05  0.0000000E+00  0.1459103E-03
  0.3888889E+00  0.0000000E+00  0.5050505E-02  0.4872950E-05  0.0000000E+00  0.1555143E-03
  0.3989899E+00  0.0000000E+00  0.5050505E-02  0.5242404E-05  0.0000000E+00  0.1658539E-03
  0.4090909E+00  0.0000000E+00  0.5050505E-02  0.5645047E-05  0.0000000E+00  0.1769967E-03
  0.4191919E+00  0.0000000E+00  0.5050505E-02  0.6083888E-05  0.0000000E+00  0.1890171E-03
  0.4292929E+00  0.0000000E+00  0.5050505E-02  0.6561830E-05  0.0000000E+00  0.2019960E-03
  0.4393939E+00  0.0000000E+00  0.5050505E-02  0.7081404E-05  0.0000000E+00  0.2160208E-03
  0.4494950E+00  0.0000000E+00  0.5050505E-02  0.7644406E-05  0.0000000E+00  0.2311843E-03
  0.4595959E+00  0.0000000E+00  0.5050505E-02  0.8251400E-05  0.0000000E+00  0.2475828E-03
  0.4696970E+00  0.0000000E+00  0.5050505E-02  0.8901205E-05  0.0000000E+00  0.2653131E-03
  0.4797980E+00  0.0000000E+00  0.5050505E-02  0.9590615E-05  0.0000000E+00  0.2844689E-03
  0.4898990E+00  0.0000000E+00  0.5050505E-02  0.1031513E-04  0.0000000E+00  0.3051374E-03
  0.5000000E+00  0.0000000E+00  0.5050505E-02  0.1107259E-04  0.0000000E+00  0.3274003E-03
  0.5101010E+00  0.0000000E+00  0.5050505E-02  0.1187445E-04  0.0000000E+00  0.3513507E-03
  0.5202020E+00  0.0000000E+00  0.5050505E-02  0.1277714E-04  0.0000000E+00  0.3771549E-03
  0.5303030E+00  0.0000000E+00  0.5050505E-02  0.1397053E-04  0.0000000E+00  0.4052410E-03
  0.5404040E+00  0.0000000E+00  0.5050505E-02  0.1604775E-04  0.0000000E+00  0.4368699E-03
  0.5505050E+00  0.0000000E+00  0.5050505E-02  0.2090488E-04  0.0000000E+00  0.4759594E-03
  0.5606061E+00  0.0000000E+00  0.5050505E-02  0.3485469E-04  0.0000000E+00  0.5352449E-03
  0.5707071E+00  0.0000000E+00  0.5050505E-02 -0.9941249E-05  0.0000000E+00  0.5617191E-03
  0.5808081E+00  0.0000000E+00  0.5050505E-02 -0.5000825E-04  0.0000000E+00  0.4981219E-03
  0.5909091E+00  0.0000000E+00  0.5050505E-02 -0.2614161E-04  0.0000000E+00  0.4176922E-03
  0.6010101E+00  0.0000000E+00  0.5050505E-02 -0.1738448E-04  0.0000000E+00  0.3719996E-03
  0.6111111E+00  0.0000000E+00  0.5050505E-02 -0.1346628E-04  0.0000000E+00  0.3397464E-03
  0.6212121E+00  0.0000000E+00  0.5050505E-02 -0.1134264E-04  0.0000000E+00  0.3138930E-03
  0.6313131E+00  0.0000000E+00  0.5050505E-02 -0.9987664E-05  0.0000000E+00  0.2917251E-03
  0.6414142E+00  0.0000000E+00  0.5050505E-02 -0.9008253E-05  0.0000000E+00  0.2720308E-03
  0.6515151E+00  0.0000000E+00  0.5050505E-02 -0.8235120E-05  0.0000000E+00  0.2541922E-03
  0.6616161E+00  0.0000000E+00  0.5050505E-02 -0.7587722E-05  0.0000000E+00  0.2378557E-03
  0.6717172E+00  0.0000000E+00  0.5050505E-02 -0.7024363E-05  0.0000000E+00  0.2227969E-03
  0.6818182E+00  0.0000000E+00  0.5050505E-02 -0.6521802E-05  0.0000000E+00  0.2088603E-03
  0.6919192E+00  0.0000000E+00  0.5050505E-02 -0.6066180E-05  0.0000000E+00  0.1959298E-03
  0.7020202E+00  0.0000000E+00  0.5050505E-02 -0.5648682E-05  0.0000000E+00  0.1839138E-03
  0.7121212E+00  0.0000000E+00  0.5050505E-02 -0.5263347E-05  0.0000000E+00  0.1727365E-03
  0.7222222E+00  0.0000000E+00  0.5050505E-02 -0.4905901E-05  0.0000000E+00  0.1623332E-03
  0.7323232E+00  0.0000000E+00  0.5050505E-02 -0.4573110E-05  0.0000000E+00  0.1526474E-03
  0.7424242E+00  0.0000000E+00  0.5050505E-02 -0.4262408E-05  0.0000000E+00  0.1436291E-03
  0.7525253E+00  0.0000000E+00  0.5050505E-02 -0.3971678E-05  0.0000000E+00  0.1352333E-03
  0.7626263E+00  0.0000000E+00  0.5050505E-02 -0.3699114E-05  0.0000000E+00  0.1274193E-03
  0.7727273E+00  0.0000000E+00  0.5050505E-02 -0.3443140E-05  0.0000000E+00  0.1201502E-03
  0.7828283E+00  0.0000000E+00  0.5050505E-02 -0.3202353E-05  0.0000000E+00  0.1133922E-03
  0.7929293E+00  0.0000000E+00  0.5050505E-02 -0.2975484E-05  0.0000000E+00  0.1071146E-03
  0.8030303E+00  0.0000000E+00  0.5050505E-02 -0.2761381E-05  0.0000000E+00  0.1012892E-03
  0.8131313E+00  0.0000000E+00  0.5050505E-02 -0.2558982E-05  0.0000000E+00  0.9589032E-04
  0.8232324E+00  0.0000000E+00  0.5050505E-02 -0.2367311E-05  0.0000000E+00  0.9089438E-04
  0.8333333E+00  0.0000000E+00  0.5050505E-02 -0.2185461E-05  0.0000000E+00  0.8627984E-04
  0.8434343E+00  0.0000000E+00  0.5050505E-02 -0.2012590E-05  0.0000000E+00  0.8202704E-04
  0.8535354E+00  0.0000000E+00  0.5050505E-02 -0.1847913E-05  0.0000000E+00  0.7811806E-04
  0.8636364E+00  0.0000000E+00  0.5050505E-02 -0.1690694E-05  0.0000000E+00  0.7453659E-04
  0.8737374E+00  0.0000000E+00  0.5050505E-02 -0.1540244E-05  0.0000000E+00  0.7126782E-04
  0.8838384E+00  0.0000000E+00  0.5050505E-02 -0.1395914E-05  0.0000000E+00  0.6829836E-04
  0.8939394E+00  0.0000000E+00  0.5050505E-02 -0.1257091E-05  0.0000000E+00  0.6561615E-04
  0.9040404E+00  0.0000000E+00  0.5050505E-02 -0.1123197E-05  0.0000000E+00  0.6321036E-04
  0.9141414E+00  0.0000000E+00  0.5050505E-02 -0.9936789E-06  0.0000000E+00  0.6107136E-04
  0.9242424E+00  0.0000000E+00  0.5050505E-02 -0.8680112E-06  0.0000000E+00  0.5919065E-04
  0.9343435E+00  0.0000000E+00  0.5050505E-02 -0.7456897E-06  0.0000000E+00  0.5756079E-04
  0.9444444E+00  0.0000000E+00  0.5050505E-02 -0.6262294E-06  0.0000000E+00  0.5617537E-04
  0.9545454E+00  0.0000000E+00  0.5050505E-02 -0.5091615E-06  0.0000000E+00  0.5502896E-04
  0.9646465E+00  0.0000000E+00  0.5050505E-02 -0.3940310E-06  0.0000000E+00  0.5411711E-04
  0.9747475E+00  0.0000000E+00  0.5050505E-02 -0.2803941E-06  0.0000000E+00  0.5343627E-04
  0.9848485E+00  0.0000000E+00  0.5050505E-02 -0.1678160E-06  0.0000000E+00  0.5298383E-04
  0.9974747E+00  0.0000000E+00  0.5050505E-02 -0.5586895E-07  0.0000000E+00  0.5275804E-04
  0.5050505E-02  0.0000000E+00  0.1515152E-01  0.8344928E-07  0.0000000E+00  0.2722644E-04
  0.1515152E-01  0.0000000E+00  0.1515152E-01  0.2506064E-06  0.0000000E+00  0.2733861E-04
  0.2525252E-01  0.0000000E+00  0.1515152E-01  0.4185420E-06  0.0000000E+00  0.2756330E-04
  0.3535353E-01  0.0000000E+00  0.1515152E-01  0.5877817E-06  0.0000000E+00  0.2790122E-04
  0.4545455E-01  0.0000000E+00  0.1515152E-01  0.7588591E-06  0.0000000E+00  0.2835342E-04
  0.5555556E-01  0.0000000E+00  0.1515152E-01  0.9323182E-06  0.0000000E+00  0.2892134E-04
  0.6565657E-01  0.0000000E+00  0.1515152E-01  0.1108717E-05  0.0000000E+00  0.2960679E-04
  0.7575758E-01  0.0000000E+00  0.1515152E-01  0.1288628E-05  0.0000000E+00  0.3041195E-04
  0.8585858E-01  0.0000000E+00  0.1515152E-01  0.1472648E-05  0.0000000E+00  0.3133941E-04
  0.9595960E-01  0.0000000E+00  0.1515152E-01  0.1661393E-05  0.0000000E+00  0.3239218E-04
  0.1060606E+00  0.0000000E+00  0.1515152E-01  0.1855509E-05  0.0000000E+00  0.3357369E-04
  0.1161616E+00  0.0000000E+00  0.1515152E-01  0.2055673E-05  0.0000000E+00  0.3488781E-04
  0.1262626E+00  0.0000000E+00  0.1515152E-01  0.2262598E-05  0.0000000E+00  0.3633890E-04
  0.1363636E+00  0.0000000E+00  0.1515152E-01  0.2477040E-05  0.0000000E+00  0.3793183E-04
  0.1464646E+00  0.0000000E+00  0.1515152E-01  0.2699801E-05  0.0000000E+00  0.3967198E-04
  0.1565657E+00  0.0000000E+00  0.1515152E-01  0.2931740E-05  0.0000000E+00  0.4156532E-04
  0.1666667E+00  0.0000000E+00  0.1515152E-01  0.3173773E-05  0.0000000E+00  0.4361841E-04
  0.1767677E+00  0.0000000E+00  0.1515152E-01  0.3426889E-05  0.0000000E+00  0.4583848E-04
  0.1868687E+00  0.0000000E+00  0.1515152E-01  0.3692153E-05  0.0000000E+00  0.4823345E-04
  0.1969697E+00  0.0000000E+00  0.1515152E-01  0.3970721E-05  0.0000000E+00  0.5081202E-04
  0.2070707E+00  0.0000000E+00  0.1515152E-01  0.4263849E-05  0.0000000E+00  0.5358372E-04
  0.2171717E+00  0.0000000E+00  0.1515152E-01  0.4572904E-05  0.0000000E+00  0.5655896E-04
  0.2272727E+00  0.0000000E+00  0.1515152E-01  0.4899387E-05  0.0000000E+00  0.5974917E-04
  0.2373737E+00  0.0000000E+00  0.1515152E-01  0.5244942E-05  0.0000000E+00  0.6316685E-04
  0.2474747E+00  0.0000000E+00  0.1515152E-01  0.5611379E-05  0.0000000E+00  0.6682571E-04
  0.2575758E+00  0.0000000E+00  0.1515152E-01  0.6000697E-05  0.0000000E+00  0.7074077E-04
  0.2676768E+00  0.0000000E+00  0.1515152E-01  0.6415108E-05  0.0000000E+00  0.7492852E-04
  0.2777778E+00  0.0000000E+00  0.1515152E-01  0.6857066E-05  0.0000000E+00  0.7940707E-04
  0.2878788E+00  0.0000000E+00  0.1515152E-01  0.7329300E-05  0.0000000E+00  0.8419633E-04
  0.2979798E+00  0.0000000E+00  0.1515152E-01  0.7834849E-05  0.0000000E+00  0.8931825E-04
  0.3080808E+00  0.0000000E+00  0.1515152E-01  0.8377103E-05  0.0000000E+00  0.9479700E-04
  0.3181818E+00  0.0000000E+00  0.1515152E-01  0.8959847E-05  0.0000000E+00  0.1006593E-03
  0.3282828E+00  0.0000000E+00  0.1515152E-01  0.9587311E-05  0.0000000E+00  0.1069347E-03
  0.3383838E+00  0.0000000E+00  0.1515152E-01  0.1026422E-04  0.0000000E+00  0.1136558E-03
  0.3484848E+00  0.0000000E+00  0.1515152E-01  0.1099585E-04  0.0000000E+00  0.1208589E-03
  0.3585859E+00  0.0000000E+00  0.1515152E-01  0.1178807E-04  0.0000000E+00  0.1285843E-03
  0.3686869E+00  0.0000000E+00  0.1515152E-01  0.1264739E-04  0.0000000E+00  0.1368765E-03
  0.3787879E+00  0.0000000E+00  0.1515152E-01  0.1358101E-04  0.0000000E+00  0.1457852E-03
  0.3888889E+00  0.0000000E+00  0.1515152E-01  0.1459680E-04  0.0000000E+00  0.1553654E-03
  0.3989899E+00  0.0000000E+00  0.1515152E-01  0.1570322E-04  0.0000000E+00  0.1656782E-03
  0.4090909E+00  0.0000000E+00  0.1515152E-01  0.1690927E-04  0.0000000E+00  0.1767914E-03
  0.4191919E+00  0.0000000E+00  0.1515152E-01  0.1822412E-04  0.0000000E+00  0.1887793E-03
  0.4292929E+00  0.0000000E+00  0.1515152E-01  0.1965672E-04  0.0000000E+00  0.2017238E-03
  0.4393939E+00  0.0000000E+00  0.1515152E-01  0.2121502E-04  0.0000000E+00  0.2157135E-03
  0.4494950E+00  0.0000000E+00  0.1515152E-01  0.2290481E-04  0.0000000E+00  0.2308433E-03
  0.4595959E+00  0.0000000E+00  0.1515152E-01  0.2472824E-04  0.0000000E+00  0.2472125E-03
  0.4696970E+00  0.0000000E+00  0.1515152E-01  0.2668190E-04  0.0000000E+00  0.2649215E-03
  0.4797980E+00  0.0000000E+00  0.1515152E-01  0.2875529E-04  0.0000000E+00  0.2840671E-03
  0.4898990E+00  0.0000000E+00  0.1515152E-01  0.3093117E-04  0.0000000E+00  0.3047346E-03
  0.5000000E+00  0.0000000E+00  0.1515152E-01  0.3319198E-04  0.0000000E+00  0.3269890E-03
  0.5101010E+00  0.0000000E+00  0.1515152E-01  0.3554192E-04  0.0000000E+00  0.3508633E-03
  0.5202020E+00  0.0000000E+00  0.1515152E-01  0.3806631E-04  0.0000000E+00  0.3763437E-03
  0.5303030E+00  0.0000000E+00  0.1515152E-01  0.4108061E-04  0.0000000E+00  0.4033210E-03
  0.5404040E+00  0.0000000E+00  0.1515152E-01  0.4552024E-04  0.0000000E+00  0.4313543E-03
  0.5505050E+00  0.0000000E+00  0.1515152E-01  0.5416299E-04  0.0000000E+00  0.4586637E-03
  0.5606061E+00  0.0000000E+00  0.1515152E-01  0.7659750E-04  0.0000000E+00  0.4791869E-03
  0.5707071E+00  0.0000000E+00  0.1515152E-01 -0.6242871E-04  0.0000000E+00  0.4417925E-03
  0.5808081E+00  0.0000000E+00  0.1515152E-01 -0.9896675E-04  0.0000000E+00  0.3979071E-03
  0.5909091E+00  0.0000000E+00  0.1515152E-01 -0.6409840E-04  0.0000000E+00  0.3863912E-03
  0.6010101E+00  0.0000000E+00  0.1515152E-01 -0.4756133E-04  0.0000000E+00  0.3605580E-03
  0.6111111E+00  0.0000000E+00  0.1515152E-01 -0.3870011E-04  0.0000000E+00  0.3348633E-03
  0.6212121E+00  0.0000000E+00  0.1515152E-01 -0.3330653E-04  0.0000000E+00  0.3115047E-03
  0.6313131E+00  0.0000000E+00  0.1515152E-01 -0.2961667E-04  0.0000000E+00  0.2904168E-03
  0.6414142E+00  0.0000000E+00  0.1515152E-01 -0.2683987E-04  0.0000000E+00  0.2712435E-03
  0.6515151E+00  0.0000000E+00  0.1515152E-01 -0.2459700E-04  0.0000000E+00  0.2536796E-03
  0.6616161E+00  0.0000000E+00  0.1515152E-01 -0.2269406E-04  0.0000000E+00  0.2374987E-03
  0.6717172E+00  0.0000000E+00  0.1515152E-01 -0.2102550E-04  0.0000000E+00  0.2225338E-03
  0.6818182E+00  0.0000000E+00  0.1515152E-01 -0.1953030E-04  0.0000000E+00  0.2086570E-03
  0.6919192E+00  0.0000000E+00  0.1515152E-01 -0.1817108E-04  0.0000000E+00  0.1957668E-03
  0.7020202E+00  0.0000000E+00  0.1515152E-01 -0.1692351E-04  0.0000000E+00  0.1837792E-03
  0.7121212E+00  0.0000000E+00  0.1515152E-01 -0.1577084E-04  0.0000000E+00  0.1726228E-03
  0.7222222E+00  0.0000000E+00  0.1515152E-01 -0.1470087E-04  0.0000000E+00  0.1622356E-03
  0.7323232E+00  0.0000000E+00  0.1515152E-01 -0.1370428E-04  0.0000000E+00  0.1525627E-03
  0.7424242E+00  0.0000000E+00  0.1515152E-01 -0.1277357E-04  0.0000000E+00  0.1435549E-03
  0.7525253E+00  0.0000000E+00  0.1515152E-01 -0.1190253E-04  0.0000000E+00  0.1351679E-03
  0.7626263E+00  0.0000000E+00  0.1515152E-01 -0.1108581E-04  0.0000000E+00  0.1273614E-03
  0.7727273E+00  0.0000000E+00  0.1515152E-01 -0.1031875E-04  0.0000000E+00  0.1200988E-03
  0.7828283E+00  0.0000000E+00  0.1515152E-01 -0.9597161E-05  0.0000000E+00  0.1133465E-03
  0.7929293E+00  0.0000000E+00  0.1515152E-01 -0.8917263E-05  0.0000000E+00  0.1070739E-03
  0.8030303E+00  0.0000000E+00  0.1515152E-01 -0.8275608E-05  0.0000000E+00  0.1012530E-03
  0.8131313E+00  0.0000000E+00  0.1515152E-01 -0.7669026E-05  0.0000000E+00  0.9585803E-04
  0.8232324E+00  0.0000000E+00  0.1515152E-01 -0.7094590E-05  0.0000000E+00  0.9086556E-04
  0.8333333E+00  0.0000000E+00  0.1515152E-01 -0.6549588E-05  0.0000000E+00  0.8625410E-04
  0.8434343E+00  0.0000000E+00  0.1515152E-01 -0.6031496E-05  0.0000000E+00  0.8200402E-04
  0.8535354E+00  0.0000000E+00  0.1515152E-01 -0.5537960E-05  0.0000000E+00  0.7809745E-04
  0.8636364E+00  0.0000000E+00  0.1515152E-01 -0.5066777E-05  0.0000000E+00  0.7451810E-04
  0.8737374E+00  0.0000000E+00  0.1515152E-01 -0.4615882E-05  0.0000000E+00  0.7125120E-04
  0.8838384E+00  0.0000000E+00  0.1515152E-01 -0.4183331E-05  0.0000000E+00  0.6828338E-04
  0.8939394E+00  0.0000000E+00  0.1515152E-01 -0.3767288E-05  0.0000000E+00  0.6560260E-04
  0.9040404E+00  0.0000000E+00  0.1515152E-01 -0.3366015E-05  0.0000000E+00  0.6319805E-04
  0.9141414E+00  0.0000000E+00  0.1515152E-01 -0.2977860E-05  0.0000000E+00  0.6106012E-04
  0.9242424E+00  0.0000000E+00  0.1515152E-01 -0.2601247E-05  0.0000000E+00  0.5918032E-04
  0.9343435E+00  0.0000000E+00  0.1515152E-01 -0.2234664E-05  0.0000000E+00  0.5755122E-04
  0.9444444E+00  0.0000000E+00  0.1515152E-01 -0.1876660E-05  0.0000000E+00  0.5616643E-04
  0.9545454E+00  0.0000000E+00  0.1515152E-01 -0.1525828E-05  0.0000000E+00  0.5502054E-04
  0.9646465E+00  0.0000000E+00  0.1515152E-01 -0.1180805E-05  0.0000000E+00  0.5410908E-04
  0.9747475E+00  0.0000000E+00  0.1515152E-01 -0.8402614E-06  0.0000000E+00  0.5342853E-04
  0.9848485E+00  0.0000000E+00  0.1515152E-01 -0.5028946E-06  0.0000000E+00  0.5297627E-04
  0.9974747E+00  0.0000000E+00  0.1515152E-01 -0.1674221E-06  0.0000000E+00  0.5275056E-04
  0.5050505E-02  0.0000000E+00  0.2525252E-01  0.1389102E-06  0.0000000E+00  0.2725803E-04
  0.1515152E-01  0.0000000E+00  0.2525252E-01  0.4171612E-06  0.0000000E+00  0.2737024E-04
  0.2525252E-01  0.0000000E+00  0.2525252E-01  0.6967082E-06  0.0000000E+00  0.2759500E-04
  0.3535353E-01  0.0000000E+00  0.2525252E-01  0.9784252E-06  0.0000000E+00  0.2793303E-04
  0.4545455E-01  0.0000000E+00  0.2525252E-01  0.1263199E-05  0.0000000E+00  0.2838536E-04
  0.5555556E-01  0.0000000E+00  0.2525252E-01  0.1551935E-05  0.0000000E+00  0.2895344E-04
  0.6565657E-01  0.0000000E+00  0.2525252E-01  0.1845559E-05  0.0000000E+00  0.2963905E-04
  0.7575758E-01  0.0000000E+00  0.2525252E-01  0.2145026E-05  0.0000000E+00  0.3044438E-04
  0.8585858E-01  0.0000000E+00  0.2525252E-01  0.2451324E-05  0.0000000E+00  0.3137200E-04
  0.9595960E-01  0.0000000E+00  0.2525252E-01  0.2765479E-05  0.0000000E+00  0.3242490E-04
  0.1060606E+00  0.0000000E+00  0.2525252E-01  0.3088563E-05  0.0000000E+00  0.3360649E-04
  0.1161616E+00  0.0000000E+00  0.2525252E-01  0.3421701E-05  0.0000000E+00  0.3492063E-04
  0.1262626E+00  0.0000000E+00  0.2525252E-01  0.3766079E-05  0.0000000E+00  0.3637166E-04
  0.1363636E+00  0.0000000E+00  0.2525252E-01  0.4122951E-05  0.0000000E+00  0.3796441E-04
  0.1464646E+00  0.0000000E+00  0.2525252E-01  0.4493652E-05  0.0000000E+00  0.3970425E-04
  0.1565657E+00  0.0000000E+00  0.2525252E-01  0.4879604E-05  0.0000000E+00  0.4159709E-04
  0.1666667E+00  0.0000000E+00  0.2525252E-01  0.5282331E-05  0.0000000E+00  0.4364947E-04
  0.1767677E+00  0.0000000E+00  0.2525252E-01  0.5703473E-05  0.0000000E+00  0.4586856E-04
  0.1868687E+00  0.0000000E+00  0.2525252E-01  0.6144799E-05  0.0000000E+00  0.4826224E-04
  0.1969697E+00  0.0000000E+00  0.2525252E-01  0.6608227E-05  0.0000000E+00  0.5083913E-04
  0.2070707E+00  0.0000000E+00  0.2525252E-01  0.7095838E-05  0.0000000E+00  0.5360870E-04
  0.2171717E+00  0.0000000E+00  0.2525252E-01  0.7609904E-05  0.0000000E+00  0.5658127E-04
  0.2272727E+00  0.0000000E+00  0.2525252E-01  0.8152910E-05  0.0000000E+00  0.5976819E-04
  0.2373737E+00  0.0000000E+00  0.2525252E-01  0.8727584E-05  0.0000000E+00  0.6318183E-04
  0.2474747E+00  0.0000000E+00  0.2525252E-01  0.9336927E-05  0.0000000E+00  0.6683579E-04
  0.2575758E+00  0.0000000E+00  0.2525252E-01  0.9984251E-05  0.0000000E+00  0.7074493E-04
  0.2676768E+00  0.0000000E+00  0.2525252E-01  0.1067322E-04  0.0000000E+00  0.7492558E-04
  0.2777778E+00  0.0000000E+00  0.2525252E-01  0.1140791E-04  0.0000000E+00  0.7939565E-04
  0.2878788E+00  0.0000000E+00  0.2525252E-01  0.1219283E-04  0.0000000E+00  0.8417484E-04
  0.2979798E+00  0.0000000E+00  0.2525252E-01  0.1303303E-04  0.0000000E+00  0.8928483E-04
  0.3080808E+00  0.0000000E+00  0.2525252E-01  0.1393411E-04  0.0000000E+00  0.9474951E-04
  0.3181818E+00  0.0000000E+00  0.2525252E-01  0.1490236E-04  0.0000000E+00  0.1005953E-03
  0.3282828E+00  0.0000000E+00  0.2525252E-01  0.1594479E-04  0.0000000E+00  0.1068512E-03
  0.3383838E+00  0.0000000E+00  0.2525252E-01  0.1706924E-04  0.0000000E+00  0.1135497E-03
  0.3484848E+00  0.0000000E+00  0.2525252E-01  0.1828447E-04  0.0000000E+00  0.1207264E-03
  0.3585859E+00  0.0000000E+00  0.2525252E-01  0.1960025E-04  0.0000000E+00  0.1284211E-03
  0.3686869E+00  0.0000000E+00  0.2525252E-01  0.2102743E-04  0.0000000E+00  0.1366780E-03
  0.3787879E+00  0.0000000E+00  0.2525252E-01  0.2257804E-04  0.0000000E+00  0.1455461E-03
  0.3888889E+00  0.0000000E+00  0.2525252E-01  0.2426524E-04  0.0000000E+00  0.1550800E-03
  0.3989899E+00  0.0000000E+00  0.2525252E-01  0.2610338E-04  0.0000000E+00  0.1653406E-03
  0.4090909E+00  0.0000000E+00  0.2525252E-01  0.2810770E-04  0.0000000E+00  0.1763955E-03
  0.4191919E+00  0.0000000E+00  0.2525252E-01  0.3029404E-04  0.0000000E+00  0.1883196E-03
  0.4292929E+00  0.0000000E+00  0.2525252E-01  0.3267810E-04  0.0000000E+00  0.2011959E-03
  0.4393939E+00  0.0000000E+00  0.2525252E-01  0.3527428E-04  0.0000000E+00  0.2151156E-03
  0.4494950E+00  0.0000000E+00  0.2525252E-01  0.3809380E-04  0.0000000E+00  0.2301777E-03
  0.4595959E+00  0.0000000E+00  0.2525252E-01  0.4114195E-04  0.0000000E+00  0.2464879E-03
  0.4696970E+00  0.0000000E+00  0.2525252E-01  0.4441430E-04  0.0000000E+00  0.2641555E-03
  0.4797980E+00  0.0000000E+00  0.2525252E-01  0.4789218E-04  0.0000000E+00  0.2832870E-03
  0.4898990E+00  0.0000000E+00  0.2525252E-01  0.5153871E-04  0.0000000E+00  0.3039749E-03
  0.5000000E+00  0.0000000E+00  0.2525252E-01  0.5529886E-04  0.0000000E+00  0.3262763E-03
  0.5101010E+00  0.0000000E+00  0.2525252E-01  0.5911183E-04  0.0000000E+00  0.3501770E-03
  0.5202020E+00  0.0000000E+00  0.2525252E-01  0.6294969E-04  0.0000000E+00  0.3755259E-03
  0.5303030E+00  0.0000000E+00  0.2525252E-01  0.6688583E-04  0.0000000E+00  0.4018957E-03
  0.5404040E+00  0.0000000E+00  0.2525252E-01  0.7105032E-04  0.0000000E+00  0.4280858E-03
  0.5505050E+00  0.0000000E+00  0.2525252E-01  0.7443783E-04  0.0000000E+00  0.4493835E-03
  0.5606061E+00  0.0000000E+00  0.2525252E-01  0.6738358E-04  0.0000000E+00  0.4410546E-03
  0.5707071E+00  0.0000000E+00  0.2525252E-01 -0.1198624E-03  0.0000000E+00  0.4085653E-03
  0.5808081E+00  0.0000000E+00  0.2525252E-01 -0.1041483E-03  0.0000000E+00  0.3862227E-03
  0.5909091E+00  0.0000000E+00  0.2525252E-01 -0.8471834E-04  0.0000000E+00  0.3702760E-03
  0.6010101E+00  0.0000000E+00  0.2525252E-01 -0.7049079E-04  0.0000000E+00  0.3503400E-03
  0.6111111E+00  0.0000000E+00  0.2525252E-01 -0.6068574E-04  0.0000000E+00  0.3290063E-03
  0.6212121E+00  0.0000000E+00  0.2525252E-01 -0.5370187E-04  0.0000000E+00  0.3081159E-03
  0.6313131E+00  0.0000000E+00  0.2525252E-01 -0.4843012E-04  0.0000000E+00  0.2883682E-03
  0.6414142E+00  0.0000000E+00  0.2525252E-01 -0.4421606E-04  0.0000000E+00  0.2699350E-03
  0.6515151E+00  0.0000000E+00  0.2525252E-01 -0.4068629E-04  0.0000000E+00  0.2527947E-03
  0.6616161E+00  0.0000000E+00  0.2525252E-01 -0.3762584E-04  0.0000000E+00  0.2368670E-03
  0.6717172E+00  0.0000000E+00  0.2525252E-01 -0.3490729E-04  0.0000000E+00  0.2220605E-03
  0.6818182E+00  0.0000000E+00  0.2525252E-01 -0.3245203E-04  0.0000000E+00  0.2082873E-03
  0.6919192E+00  0.0000000E+00  0.2525252E-01 -0.3020929E-04  0.0000000E+00  0.1954681E-03
  0.7020202E+00  0.0000000E+00  0.2525252E-01 -0.2814458E-04  0.0000000E+00  0.1835312E-03
  0.7121212E+00  0.0000000E+00  0.2525252E-01 -0.2623327E-04  0.0000000E+00  0.1724126E-03
  0.7222222E+00  0.0000000E+00  0.2525252E-01 -0.2445692E-04  0.0000000E+00  0.1620548E-03
  0.7323232E+00  0.0000000E+00  0.2525252E-01 -0.2280103E-04  0.0000000E+00  0.1524053E-03
  0.7424242E+00  0.0000000E+00  0.2525252E-01 -0.2125381E-04  0.0000000E+00  0.1434169E-03
  0.7525253E+00  0.0000000E+00  0.2525252E-01 -0.1980526E-04  0.0000000E+00  0.1350462E-03
  0.7626263E+00  0.0000000E+00  0.2525252E-01 -0.1844676E-04  0.0000000E+00  0.1272537E-03
  0.7727273E+00  0.0000000E+00  0.2525252E-01 -0.1717066E-04  0.0000000E+00  0.1200032E-03
  0.7828283E+00  0.0000000E+00  0.2525252E-01 -0.1597009E-04  0.0000000E+00  0.1132616E-03
  0.7929293E+00  0.0000000E+00  0.2525252E-01 -0.1483881E-04  0.0000000E+00  0.1069984E-03
  0.8030303E+00  0.0000000E+00  0.2525252E-01 -0.1377112E-04  0.0000000E+00  0.1011857E-03
  0.8131313E+00  0.0000000E+00  0.2525252E-01 -0.1276176E-04  0.0000000E+00  0.9579813E-04
  0.8232324E+00  0.0000000E+00  0.2525252E-01 -0.1180588E-04  0.0000000E+00  0.9081219E-04
  0.8333333E+00  0.0000000E+00  0.2525252E-01 -0.1089896E-04  0.0000000E+00  0.8620651E-04
  0.8434343E+00  0.0000000E+00  0.2525252E-01 -0.1003682E-04  0.0000000E+00  0.8196157E-04
  0.8535354E+00  0.0000000E+00  0.2525252E-01 -0.9215537E-05  0.0000000E+00  0.7805954E-04
  0.8636364E+00  0.0000000E+00  0.2525252E-01 -0.8431447E-05  0.0000000E+00  0.7448420E-04
  0.8737374E+00  0.0000000E+00  0.2525252E-01 -0.7681115E-05  0.0000000E+00  0.7122083E-04
  0.8838384E+00  0.0000000E+00  0.2525252E-01 -0.6961307E-05  0.0000000E+00  0.6825610E-04
  0.8939394E+00  0.0000000E+00  0.2525252E-01 -0.6268970E-05  0.0000000E+00  0.6557801E-04
  0.9040404E+00  0.0000000E+00  0.2525252E-01 -0.5601213E-05  0.0000000E+00  0.6317580E-04
  0.9141414E+00  0.0000000E+00  0.2525252E-01 -0.4955287E-05  0.0000000E+00  0.6103989E-04
  0.9242424E+00  0.0000000E+00  0.2525252E-01 -0.4328569E-05  0.0000000E+00  0.5916182E-04
  0.9343435E+00  0.0000000E+00  0.2525252E-01 -0.3718546E-05  0.0000000E+00  0.5753417E-04
  0.9444444E+00  0.0000000E+00  0.2525252E-01 -0.3122801E-05  0.0000000E+00  0.5615057E-04
  0.9545454E+00  0.0000000E+00  0.2525252E-01 -0.2538996E-05  0.0000000E+00  0.5500564E-04
  0.9646465E+00  0.0000000E+00  0.2525252E-01 -0.1964863E-05  0.0000000E+00  0.5409493E-04
  0.9747475E+00  0.0000000E+00  0.2525252E-01 -0.1398191E-05  0.0000000E+00  0.5341492E-04
  0.9848485E+00  0.0000000E+00  0.2525252E-01 -0.8368101E-06  0.0000000E+00  0.5296301E-04
  0.9974747E+00  0.0000000E+00  0.2525252E-01 -0.2785873E-06  0.0000000E+00  0.5273748E-04
  0.5050505E-02  0.0000000E+00  0.3535353E-01  0.1942371E-06  0.0000000E+00  0.2730632E-04
  0.1515152E-01  0.0000000E+00  0.3535353E-01  0.5833130E-06  0.0000000E+00  0.2741859E-04
  0.2525252E-01  0.0000000E+00  0.3535353E-01  0.9741994E-06  0.0000000E+00  0.2764348E-04
  0.3535353E-01  0.0000000E+00  0.3535353E-01  0.1368116E-05  0.0000000E+00  0.2798168E-04
  0.4545455E-01  0.0000000E+00  0.3535353E-01  0.1766302E-05  0.0000000E+00  0.2843424E-04
  0.5555556E-01  0.0000000E+00  0.3535353E-01  0.2170019E-05  0.0000000E+00  0.2900258E-04
  0.6565657E-01  0.0000000E+00  0.3535353E-01  0.2580561E-05  0.0000000E+00  0.2968848E-04
  0.7575758E-01  0.0000000E+00  0.3535353E-01  0.2999258E-05  0.0000000E+00  0.3049410E-04
  0.8585858E-01  0.0000000E+00  0.3535353E-01  0.3427488E-05  0.0000000E+00  0.3142200E-04
  0.9595960E-01  0.0000000E+00  0.3535353E-01  0.3866684E-05  0.0000000E+00  0.3247515E-04
  0.1060606E+00  0.0000000E+00  0.3535353E-01  0.4318339E-05  0.0000000E+00  0.3365694E-04
  0.1161616E+00  0.0000000E+00  0.3535353E-01  0.4784023E-05  0.0000000E+00  0.3497120E-04
  0.1262626E+00  0.0000000E+00  0.3535353E-01  0.5265389E-05  0.0000000E+00  0.3642223E-04
  0.1363636E+00  0.0000000E+00  0.3535353E-01  0.5764184E-05  0.0000000E+00  0.3801483E-04
  0.1464646E+00  0.0000000E+00  0.3535353E-01  0.6282267E-05  0.0000000E+00  0.3975431E-04
  0.1565657E+00  0.0000000E+00  0.3535353E-01  0.6821619E-05  0.0000000E+00  0.4164655E-04
  0.1666667E+00  0.0000000E+00  0.3535353E-01  0.7384365E-05  0.0000000E+00  0.4369801E-04
  0.1767677E+00  0.0000000E+00  0.3535353E-01  0.7972786E-05  0.0000000E+00  0.4591581E-04
  0.1868687E+00  0.0000000E+00  0.3535353E-01  0.8589344E-05  0.0000000E+00  0.4830775E-04
  0.1969697E+00  0.0000000E+00  0.3535353E-01  0.9236707E-05  0.0000000E+00  0.5088235E-04
  0.2070707E+00  0.0000000E+00  0.3535353E-01  0.9917771E-05  0.0000000E+00  0.5364897E-04
  0.2171717E+00  0.0000000E+00  0.3535353E-01  0.1063570E-04  0.0000000E+00  0.5661784E-04
  0.2272727E+00  0.0000000E+00  0.3535353E-01  0.1139393E-04  0.0000000E+00  0.5980014E-04
  0.2373737E+00  0.0000000E+00  0.3535353E-01  0.1219628E-04  0.0000000E+00  0.6320810E-04
  0.2474747E+00  0.0000000E+00  0.3535353E-01  0.1304689E-04  0.0000000E+00  0.6685512E-04
  0.2575758E+00  0.0000000E+00  0.3535353E-01  0.1395039E-04  0.0000000E+00  0.7075587E-04
  0.2676768E+00  0.0000000E+00  0.3535353E-01  0.1491185E-04  0.0000000E+00  0.7492641E-04
  0.2777778E+00  0.0000000E+00  0.3535353E-01  0.1593692E-04  0.0000000E+00  0.7938438E-04
  0.2878788E+00  0.0000000E+00  0.3535353E-01  0.1703188E-04  0.0000000E+00  0.8414915E-04
  0.2979798E+00  0.0000000E+00  0.3535353E-01  0.1820372E-04  0.0000000E+00  0.8924203E-04