title = "dataset water"
variables = "x", "y", "z", "vx", "vy", "vz"
zone t = "velocities, solution time =  5.000E+01 days        " i =   99, j =   99, k =    1,  f=point
  0.5050505E-02  0.0000000E+00  0.5050505E-02  0.5851209E-07  0.0000000E+00  0.8194547E-04
  0.1515152E-01  0.0000000E+00  0.5050505E-02  0.1757114E-06  0.0000000E+00  0.8218274E-04
  0.2525252E-01  0.0000000E+00  0.5050505E-02  0.2934407E-06  0.0000000E+00  0.8265802E-04
  0.3535353E-01  0.0000000E+00  0.5050505E-02  0.4120618E-06  0.0000000E+00  0.8337277E-04
  0.4545455E-01  0.0000000E+00  0.5050505E-02  0.5319454E-06  0.0000000E+00  0.8432924E-04
  0.5555556E-01  0.0000000E+00  0.5050505E-02  0.6534741E-06  0.0000000E+00  0.8553046E-04
  0.6565657E-01  0.0000000E+00  0.5050505E-02  0.7770456E-06  0.0000000E+00  0.8698025E-04
  0.7575758E-01  0.0000000E+00  0.5050505E-02  0.9030755E-06  0.0000000E+00  0.8868330E-04
  0.8585858E-01  0.0000000E+00  0.5050505E-02  0.1032002E-05  0.0000000E+00  0.9064520E-04
  0.9595960E-01  0.0000000E+00  0.5050505E-02  0.1164290E-05  0.0000000E+00  0.9287247E-04
  0.1060606E+00  0.0000000E+00  0.5050505E-02  0.1300436E-05  0.0000000E+00  0.9537264E-04
  0.1161616E+00  0.0000000E+00  0.5050505E-02  0.1440974E-05  0.0000000E+00  0.9815432E-04
  0.1262626E+00  0.0000000E+00  0.5050505E-02  0.1586480E-05  0.0000000E+00  0.1012273E-03
  0.1363636E+00  0.0000000E+00  0.5050505E-02  0.1737583E-05  0.0000000E+00  0.1046026E-03
  0.1464646E+00  0.0000000E+00  0.5050505E-02  0.1894972E-05  0.0000000E+00  0.1082927E-03
  0.1565657E+00  0.0000000E+00  0.5050505E-02  0.2059406E-05  0.0000000E+00  0.1123115E-03
  0.1666667E+00  0.0000000E+00  0.5050505E-02  0.2231727E-05  0.0000000E+00  0.1166746E-03
  0.1767677E+00  0.0000000E+00  0.5050505E-02  0.2412876E-05  0.0000000E+00  0.1213997E-03
  0.1868687E+00  0.0000000E+00  0.5050505E-02  0.2603911E-05  0.0000000E+00  0.1265064E-03
  0.1969697E+00  0.0000000E+00  0.5050505E-02  0.2806030E-05  0.0000000E+00  0.1320167E-03
  0.2070707E+00  0.0000000E+00  0.5050505E-02  0.3020595E-05  0.0000000E+00  0.1379555E-03
  0.2171717E+00  0.0000000E+00  0.5050505E-02  0.3249174E-05  0.0000000E+00  0.1443505E-03
  0.2272727E+00  0.0000000E+00  0.5050505E-02  0.3493577E-05  0.0000000E+00  0.1512333E-03
  0.2373737E+00  0.0000000E+00  0.5050505E-02  0.3755912E-05  0.0000000E+00  0.1586396E-03
  0.2474747E+00  0.0000000E+00  0.5050505E-02  0.4038652E-05  0.0000000E+00  0.1666099E-03
  0.2575758E+00  0.0000000E+00  0.5050505E-02  0.4344719E-05  0.0000000E+00  0.1751906E-03
  0.2676768E+00  0.0000000E+00  0.5050505E-02  0.4677591E-05  0.0000000E+00  0.1844350E-03
  0.2777778E+00  0.0000000E+00  0.5050505E-02  0.5041435E-05  0.0000000E+00  0.1944045E-03
  0.2878788E+00  0.0000000E+00  0.5050505E-02  0.5441274E-05  0.0000000E+00  0.2051704E-03
  0.2979798E+00  0.0000000E+00  0.5050505E-02  0.5883204E-05  0.0000000E+00  0.2168161E-03
  0.3080808E+00  0.0000000E+00  0.5050505E-02  0.6374652E-05  0.0000000E+00  0.2294394E-03
  0.3181818E+00  0.0000000E+00  0.5050505E-02  0.6924710E-05  0.0000000E+00  0.2431564E-03
  0.3282828E+00  0.0000000E+00  0.5050505E-02  0.7544524E-05  0.0000000E+00  0.2581050E-03
  0.3383838E+00  0.0000000E+00  0.5050505E-02  0.8247751E-05  0.0000000E+00  0.2744500E-03
  0.3484848E+00  0.0000000E+00  0.5050505E-02  0.9051033E-05  0.0000000E+00  0.2923899E-03
  0.3585859E+00  0.0000000E+00  0.5050505E-02  0.9974385E-05  0.0000000E+00  0.3121635E-03
  0.3686869E+00  0.0000000E+00  0.5050505E-02  0.1104124E-04  0.0000000E+00  0.3340580E-03
  0.3787879E+00  0.0000000E+00  0.5050505E-02  0.1227758E-04  0.0000000E+00  0.3584167E-03
  0.3888889E+00  0.0000000E+00  0.5050505E-02  0.1370902E-04  0.0000000E+00  0.3856424E-03
  0.3989899E+00  0.0000000E+00  0.5050505E-02  0.1535375E-04  0.0000000E+00  0.4161915E-03
  0.4090909E+00  0.0000000E+00  0.5050505E-02  0.1720800E-04  0.0000000E+00  0.4505452E-03
  0.4191919E+00  0.0000000E+00  0.5050505E-02  0.1922115E-04  0.0000000E+00  0.4891387E-03
  0.4292929E+00  0.0000000E+00  0.5050505E-02  0.2126514E-04  0.0000000E+00  0.5322299E-03
  0.4393939E+00  0.0000000E+00  0.5050505E-02  0.2313215E-04  0.0000000E+00  0.5797283E-03
  0.4494950E+00  0.0000000E+00  0.5050505E-02  0.2464928E-04  0.0000000E+00  0.6311377E-03
  0.4595959E+00  0.0000000E+00  0.5050505E-02  0.2593277E-04  0.0000000E+00  0.6858950E-03
  0.4696970E+00  0.0000000E+00  0.5050505E-02  0.2702513E-04  0.0000000E+00  0.7435992E-03
  0.4797980E+00  0.0000000E+00  0.5050505E-02  0.2817318E-04  0.0000000E+00  0.8041592E-03
  0.4898990E+00  0.0000000E+00  0.5050505E-02  0.2963424E-04  0.0000000E+00  0.8680405E-03
  0.5000000E+00  0.0000000E+00  0.5050505E-02  0.3109049E-04  0.0000000E+00  0.9356553E-03
  0.5101010E+00  0.0000000E+00  0.5050505E-02  0.3233796E-04  0.0000000E+00  0.1006846E-02
  0.5202020E+00  0.0000000E+00  0.5050505E-02  0.3420241E-04  0.0000000E+00  0.1082161E-02
  0.5303030E+00  0.0000000E+00  0.5050505E-02  0.3864420E-04  0.0000000E+00  0.1165360E-02
  0.5404040E+00  0.0000000E+00  0.5050505E-02  0.4821750E-04  0.0000000E+00  0.1265565E-02
  0.5505050E+00  0.0000000E+00  0.5050505E-02  0.7464938E-04  0.0000000E+00  0.1409093E-02
  0.5606061E+00  0.0000000E+00  0.5050505E-02  0.1044076E-03  0.0000000E+00  0.1621840E-02
  0.5707071E+00  0.0000000E+00  0.5050505E-02 -0.5771247E-05  0.0000000E+00  0.1739834E-02
  0.5808081E+00  0.0000000E+00  0.5050505E-02 -0.1354194E-03  0.0000000E+00  0.1572064E-02
  0.5909091E+00  0.0000000E+00  0.5050505E-02 -0.6159348E-04  0.0000000E+00  0.1339532E-02
  0.6010101E+00  0.0000000E+00  0.5050505E-02 -0.7183906E-04  0.0000000E+00  0.1185438E-02
  0.6111111E+00  0.0000000E+00  0.5050505E-02 -0.4886174E-04  0.0000000E+00  0.1048004E-02
  0.6212121E+00  0.0000000E+00  0.5050505E-02 -0.3993242E-04  0.0000000E+00  0.9481517E-03
  0.6313131E+00  0.0000000E+00  0.5050505E-02 -0.3462604E-04  0.0000000E+00  0.8651428E-03
  0.6414142E+00  0.0000000E+00  0.5050505E-02 -0.3109774E-04  0.0000000E+00  0.7926036E-03
  0.6515151E+00  0.0000000E+00  0.5050505E-02 -0.2849945E-04  0.0000000E+00  0.7273379E-03
  0.6616161E+00  0.0000000E+00  0.5050505E-02 -0.2588721E-04  0.0000000E+00  0.6681964E-03
  0.6717172E+00  0.0000000E+00  0.5050505E-02 -0.2329633E-04  0.0000000E+00  0.6150511E-03
  0.6818182E+00  0.0000000E+00  0.5050505E-02 -0.2090398E-04  0.0000000E+00  0.5675615E-03
  0.6919192E+00  0.0000000E+00  0.5050505E-02 -0.1879571E-04  0.0000000E+00  0.5251245E-03
  0.7020202E+00  0.0000000E+00  0.5050505E-02 -0.1697154E-04  0.0000000E+00  0.4870660E-03
  0.7121212E+00  0.0000000E+00  0.5050505E-02 -0.1539023E-04  0.0000000E+00  0.4527731E-03
  0.7222222E+00  0.0000000E+00  0.5050505E-02 -0.1400284E-04  0.0000000E+00  0.4217426E-03
  0.7323232E+00  0.0000000E+00  0.5050505E-02 -0.1276855E-04  0.0000000E+00  0.3935758E-03
  0.7424242E+00  0.0000000E+00  0.5050505E-02 -0.1165816E-04  0.0000000E+00  0.3679554E-03
  0.7525253E+00  0.0000000E+00  0.5050505E-02 -0.1065199E-04  0.0000000E+00  0.3446209E-03
  0.7626263E+00  0.0000000E+00  0.5050505E-02 -0.9736541E-05  0.0000000E+00  0.3233511E-03
  0.7727273E+00  0.0000000E+00  0.5050505E-02 -0.8901831E-05  0.0000000E+00  0.3039528E-03
  0.7828283E+00  0.0000000E+00  0.5050505E-02 -0.8139697E-05  0.0000000E+00  0.2862545E-03
  0.7929293E+00  0.0000000E+00  0.5050505E-02 -0.7442929E-05  0.0000000E+00  0.2701030E-03
  0.8030303E+00  0.0000000E+00  0.5050505E-02 -0.6804899E-05  0.0000000E+00  0.2553614E-03
  0.8131313E+00  0.0000000E+00  0.5050505E-02 -0.6219439E-05  0.0000000E+00  0.2419077E-03
  0.8232324E+00  0.0000000E+00  0.5050505E-02 -0.5680834E-05  0.0000000E+00  0.2296334E-03
  0.8333333E+00  0.0000000E+00  0.5050505E-02 -0.5183833E-05  0.0000000E+00  0.2184426E-03
  0.8434343E+00  0.0000000E+00  0.5050505E-02 -0.4723658E-05  0.0000000E+00  0.2082503E-03
  0.8535354E+00  0.0000000E+00  0.5050505E-02 -0.4295993E-05  0.0000000E+00  0.1989818E-03
  0.8636364E+00  0.0000000E+00  0.5050505E-02 -0.3896963E-05  0.0000000E+00  0.1905714E-03
  0.8737374E+00  0.0000000E+00  0.5050505E-02 -0.3523099E-05  0.0000000E+00  0.1829615E-03
  0.8838384E+00  0.0000000E+00  0.5050505E-02 -0.3171299E-05  0.0000000E+00  0.1761016E-03
  0.8939394E+00  0.0000000E+00  0.5050505E-02 -0.2838785E-05  0.0000000E+00  0.1699475E-03
  0.9040404E+00  0.0000000E+00  0.5050505E-02 -0.2523065E-05  0.0000000E+00  0.1644608E-03
  0.9141414E+00  0.0000000E+00  0.5050505E-02 -0.2221892E-05  0.0000000E+00  0.1596083E-03
  0.9242424E+00  0.0000000E+00  0.5050505E-02 -0.1933229E-05  0.0000000E+00  0.1553612E-03
  0.9343435E+00  0.0000000E+00  0.5050505E-02 -0.1655220E-05  0.0000000E+00  0.1516949E-03
  0.9444444E+00  0.0000000E+00  0.5050505E-02 -0.1386158E-05  0.0000000E+00  0.1485887E-03
  0.9545454E+00  0.0000000E+00  0.5050505E-02 -0.1124462E-05  0.0000000E+00  0.1460255E-03
  0.9646465E+00  0.0000000E+00  0.5050505E-02 -0.8686497E-06  0.0000000E+00  0.1439910E-03
  0.9747475E+00  0.0000000E+00  0.5050505E-02 -0.6173248E-06  0.0000000E+00  0.1424745E-03
  0.9848485E+00  0.0000000E+00  0.5050505E-02 -0.3691523E-06  0.0000000E+00  0.1414679E-03
  0.9974747E+00  0.0000000E+00  0.5050505E-02 -0.1228458E-06  0.0000000E+00  0.1409659E-03
  0.5050505E-02  0.0000000E+00  0.1515152E-01  0.1752765E-06  0.0000000E+00  0.8189622E-04
  0.1515152E-01  0.0000000E+00  0.1515152E-01  0.5263554E-06  0.0000000E+00  0.8213314E-04
  0.2525252E-01  0.0000000E+00  0.1515152E-01  0.8790233E-06  0.0000000E+00  0.8260771E-04
  0.3535353E-01  0.0000000E+00  0.1515152E-01  0.1234363E-05  0.0000000E+00  0.8332137E-04
  0.4545455E-01  0.0000000E+00  0.1515152E-01  0.1593483E-05  0.0000000E+00  0.8427636E-04
  0.5555556E-01  0.0000000E+00  0.1515152E-01  0.1957529E-05  0.0000000E+00  0.8547568E-04
  0.6565657E-01  0.0000000E+00  0.1515152E-01  0.2327689E-05  0.0000000E+00  0.8692313E-04
  0.7575758E-01  0.0000000E+00  0.1515152E-01  0.2705206E-05  0.0000000E+00  0.8862337E-04
  0.8585858E-01  0.0000000E+00  0.1515152E-01  0.3091391E-05  0.0000000E+00  0.9058194E-04
  0.9595960E-01  0.0000000E+00  0.1515152E-01  0.3487634E-05  0.0000000E+00  0.9280531E-04
  0.1060606E+00  0.0000000E+00  0.1515152E-01  0.3895417E-05  0.0000000E+00  0.9530097E-04
  0.1161616E+00  0.0000000E+00  0.1515152E-01  0.4316336E-05  0.0000000E+00  0.9807745E-04
  0.1262626E+00  0.0000000E+00  0.1515152E-01  0.4752114E-05  0.0000000E+00  0.1011444E-03
  0.1363636E+00  0.0000000E+00  0.1515152E-01  0.5204630E-05  0.0000000E+00  0.1045129E-03
  0.1464646E+00  0.0000000E+00  0.1515152E-01  0.5675939E-05  0.0000000E+00  0.1081952E-03
  0.1565657E+00  0.0000000E+00  0.1515152E-01  0.6168307E-05  0.0000000E+00  0.1122051E-03
  0.1666667E+00  0.0000000E+00  0.1515152E-01  0.6684250E-05  0.0000000E+00  0.1165582E-03
  0.1767677E+00  0.0000000E+00  0.1515152E-01  0.7226572E-05  0.0000000E+00  0.1212717E-03
  0.1868687E+00  0.0000000E+00  0.1515152E-01  0.7798428E-05  0.0000000E+00  0.1263652E-03
  0.1969697E+00  0.0000000E+00  0.1515152E-01  0.8403384E-05  0.0000000E+00  0.1318604E-03
  0.2070707E+00  0.0000000E+00  0.1515152E-01  0.9045505E-05  0.0000000E+00  0.1377818E-03
  0.2171717E+00  0.0000000E+00  0.1515152E-01  0.9729452E-05  0.0000000E+00  0.1441570E-03
  0.2272727E+00  0.0000000E+00  0.1515152E-01  0.1046061E-04  0.0000000E+00  0.1510169E-03
  0.2373737E+00  0.0000000E+00  0.1515152E-01  0.1124525E-04  0.0000000E+00  0.1583967E-03
  0.2474747E+00  0.0000000E+00  0.1515152E-01  0.1209072E-04  0.0000000E+00  0.1663362E-03
  0.2575758E+00  0.0000000E+00  0.1515152E-01  0.1300570E-04  0.0000000E+00  0.1748811E-03
  0.2676768E+00  0.0000000E+00  0.1515152E-01  0.1400051E-04  0.0000000E+00  0.1840834E-03
  0.2777778E+00  0.0000000E+00  0.1515152E-01  0.1508752E-04  0.0000000E+00  0.1940033E-03
  0.2878788E+00  0.0000000E+00  0.1515152E-01  0.1628162E-04  0.0000000E+00  0.2047105E-03
  0.2979798E+00  0.0000000E+00  0.1515152E-01  0.1760089E-04  0.0000000E+00  0.2162863E-03
  0.3080808E+00  0.0000000E+00  0.1515152E-01  0.1906734E-04  0.0000000E+00  0.2288262E-03
  0.3181818E+00  0.0000000E+00  0.1515152E-01  0.2070795E-04  0.0000000E+00  0.2424428E-03
  0.3282828E+00  0.0000000E+00  0.1515152E-01  0.2255582E-04  0.0000000E+00  0.2572703E-03
  0.3383838E+00  0.0000000E+00  0.1515152E-01  0.2465155E-04  0.0000000E+00  0.2734690E-03
  0.3484848E+00  0.0000000E+00  0.1515152E-01  0.2704486E-04  0.0000000E+00  0.2912320E-03
  0.3585859E+00  0.0000000E+00  0.1515152E-01  0.2979590E-04  0.0000000E+00  0.3107924E-03
  0.3686869E+00  0.0000000E+00  0.1515152E-01  0.3297598E-04  0.0000000E+00  0.3324331E-03
  0.3787879E+00  0.0000000E+00  0.1515152E-01  0.3666602E-04  0.0000000E+00  0.3564967E-03
  0.3888889E+00  0.0000000E+00  0.1515152E-01  0.4094972E-04  0.0000000E+00  0.3833955E-03
  0.3989899E+00  0.0000000E+00  0.1515152E-01  0.4589521E-04  0.0000000E+00  0.4136168E-03
  0.4090909E+00  0.0000000E+00  0.1515152E-01  0.5151405E-04  0.0000000E+00  0.4477116E-03
  0.4191919E+00  0.0000000E+00  0.1515152E-01  0.5768124E-04  0.0000000E+00  0.4862390E-03
  0.4292929E+00  0.0000000E+00  0.1515152E-01  0.6401096E-04  0.0000000E+00  0.5296122E-03
  0.4393939E+00  0.0000000E+00  0.1515152E-01  0.6976716E-04  0.0000000E+00  0.5777810E-03
  0.4494950E+00  0.0000000E+00  0.1515152E-01  0.7419255E-04  0.0000000E+00  0.6299191E-03
  0.4595959E+00  0.0000000E+00  0.1515152E-01  0.7797891E-04  0.0000000E+00  0.6852425E-03
  0.4696970E+00  0.0000000E+00  0.1515152E-01  0.8099827E-04  0.0000000E+00  0.7432168E-03
  0.4797980E+00  0.0000000E+00  0.1515152E-01  0.8417521E-04  0.0000000E+00  0.8035363E-03
  0.4898990E+00  0.0000000E+00  0.1515152E-01  0.8881112E-04  0.0000000E+00  0.8672336E-03
  0.5000000E+00  0.0000000E+00  0.1515152E-01  0.9331331E-04  0.0000000E+00  0.9351826E-03
  0.5101010E+00  0.0000000E+00  0.1515152E-01  0.9625651E-04  0.0000000E+00  0.1006078E-02
  0.5202020E+00  0.0000000E+00  0.1515152E-01  0.1000607E-03  0.0000000E+00  0.1078297E-02
  0.5303030E+00  0.0000000E+00  0.1515152E-01  0.1111146E-03  0.0000000E+00  0.1153869E-02
  0.5404040E+00  0.0000000E+00  0.1515152E-01  0.1297016E-03  0.0000000E+00  0.1232155E-02
  0.5505050E+00  0.0000000E+00  0.1515152E-01  0.1815435E-03  0.0000000E+00  0.1309587E-02
  0.5606061E+00  0.0000000E+00  0.1515152E-01  0.2517125E-03  0.0000000E+00  0.1399357E-02
  0.5707071E+00  0.0000000E+00  0.1515152E-01 -0.1101234E-03  0.0000000E+00  0.1334115E-02
  0.5808081E+00  0.0000000E+00  0.1515152E-01 -0.2482077E-03  0.0000000E+00  0.1241919E-02
  0.5909091E+00  0.0000000E+00  0.1515152E-01 -0.1814406E-03  0.0000000E+00  0.1199013E-02
  0.6010101E+00  0.0000000E+00  0.1515152E-01 -0.1749786E-03  0.0000000E+00  0.1095668E-02
  0.6111111E+00  0.0000000E+00  0.1515152E-01 -0.1340370E-03  0.0000000E+00  0.1018456E-02
  0.6212121E+00  0.0000000E+00  0.1515152E-01 -0.1164738E-03  0.0000000E+00  0.9361706E-03
  0.6313131E+00  0.0000000E+00  0.1515152E-01 -0.1022176E-03  0.0000000E+00  0.8584511E-03
  0.6414142E+00  0.0000000E+00  0.1515152E-01 -0.9242230E-04  0.0000000E+00  0.7884955E-03
  0.6515151E+00  0.0000000E+00  0.1515152E-01 -0.8551906E-04  0.0000000E+00  0.7240086E-03
  0.6616161E+00  0.0000000E+00  0.1515152E-01 -0.7766685E-04  0.0000000E+00  0.6647299E-03
  0.6717172E+00  0.0000000E+00  0.1515152E-01 -0.6973546E-04  0.0000000E+00  0.6116608E-03
  0.6818182E+00  0.0000000E+00  0.1515152E-01 -0.6247794E-04  0.0000000E+00  0.5645168E-03
  0.6919192E+00  0.0000000E+00  0.1515152E-01 -0.5615011E-04  0.0000000E+00  0.5225206E-03
  0.7020202E+00  0.0000000E+00  0.1515152E-01 -0.5071288E-04  0.0000000E+00  0.4848722E-03
  0.7121212E+00  0.0000000E+00  0.1515152E-01 -0.4601173E-04  0.0000000E+00  0.4509098E-03
  0.7222222E+00  0.0000000E+00  0.1515152E-01 -0.4188496E-04  0.0000000E+00  0.4201299E-03
  0.7323232E+00  0.0000000E+00  0.1515152E-01 -0.3820670E-04  0.0000000E+00  0.3921532E-03
  0.7424242E+00  0.0000000E+00  0.1515152E-01 -0.3489127E-04  0.0000000E+00  0.3666828E-03
  0.7525253E+00  0.0000000E+00  0.1515152E-01 -0.3188275E-04  0.0000000E+00  0.3434734E-03
  0.7626263E+00  0.0000000E+00  0.1515152E-01 -0.2914328E-04  0.0000000E+00  0.3223130E-03
  0.7727273E+00  0.0000000E+00  0.1515152E-01 -0.2664454E-04  0.0000000E+00  0.3030129E-03
  0.7828283E+00  0.0000000E+00  0.1515152E-01 -0.2436289E-04  0.0000000E+00  0.2854038E-03
  0.7929293E+00  0.0000000E+00  0.1515152E-01 -0.2227708E-04  0.0000000E+00  0.2693335E-03
  0.8030303E+00  0.0000000E+00  0.1515152E-01 -0.2036733E-04  0.0000000E+00  0.2546654E-03
  0.8131313E+00  0.0000000E+00  0.1515152E-01 -0.1861513E-04  0.0000000E+00  0.2412780E-03
  0.8232324E+00  0.0000000E+00  0.1515152E-01 -0.1700329E-04  0.0000000E+00  0.2290630E-03
  0.8333333E+00  0.0000000E+00  0.1515152E-01 -0.1551602E-04  0.0000000E+00  0.2179248E-03
  0.8434343E+00  0.0000000E+00  0.1515152E-01 -0.1413898E-04  0.0000000E+00  0.2077793E-03
  0.8535354E+00  0.0000000E+00  0.1515152E-01 -0.1285920E-04  0.0000000E+00  0.1985520E-03
  0.8636364E+00  0.0000000E+00  0.1515152E-01 -0.1166508E-04  0.0000000E+00  0.1901779E-03
  0.8737374E+00  0.0000000E+00  0.1515152E-01 -0.1054621E-04  0.0000000E+00  0.1825999E-03
  0.8838384E+00  0.0000000E+00  0.1515152E-01 -0.9493327E-05  0.0000000E+00  0.1757677E-03
  0.8939394E+00  0.0000000E+00  0.1515152E-01 -0.8498109E-05  0.0000000E+00  0.1696378E-03
  0.9040404E+00  0.0000000E+00  0.1515152E-01 -0.7553104E-05  0.0000000E+00  0.1641721E-03
  0.9141414E+00  0.0000000E+00  0.1515152E-01 -0.6651596E-05  0.0000000E+00  0.1593376E-03
  0.9242424E+00  0.0000000E+00  0.1515152E-01 -0.5787499E-05  0.0000000E+00  0.1551059E-03
  0.9343435E+00  0.0000000E+00  0.1515152E-01 -0.4955263E-05  0.0000000E+00  0.1514526E-03
  0.9444444E+00  0.0000000E+00  0.1515152E-01 -0.4149787E-05  0.0000000E+00  0.1483572E-03
  0.9545454E+00  0.0000000E+00  0.1515152E-01 -0.3366342E-05  0.0000000E+00  0.1458027E-03
  0.9646465E+00  0.0000000E+00  0.1515152E-01 -0.2600506E-05  0.0000000E+00  0.1437751E-03
  0.9747475E+00  0.0000000E+00  0.1515152E-01 -0.1848100E-05  0.0000000E+00  0.1422636E-03
  0.9848485E+00  0.0000000E+00  0.1515152E-01 -0.1105135E-05  0.0000000E+00  0.1412602E-03
  0.9974747E+00  0.0000000E+00  0.1515152E-01 -0.3677631E-06  0.0000000E+00  0.1407598E-03
  0.5050505E-02  0.0000000E+00  0.2525252E-01  0.2914401E-06  0.0000000E+00  0.8180050E-04
  0.1515152E-01  0.0000000E+00  0.2525252E-01  0.8751954E-06  0.0000000E+00  0.8203673E-04
  0.2525252E-01  0.0000000E+00  0.2525252E-01  0.1461592E-05  0.0000000E+00  0.8250989E-04
  0.3535353E-01  0.0000000E+00  0.2525252E-01  0.2052426E-05  0.0000000E+00  0.8322141E-04
  0.4545455E-01  0.0000000E+00  0.2525252E-01  0.2649537E-05  0.0000000E+00  0.8417349E-04
  0.5555556E-01  0.0000000E+00  0.2525252E-01  0.3254823E-05  0.0000000E+00  0.8536908E-04
  0.6565657E-01  0.0000000E+00  0.2525252E-01  0.3870252E-05  0.0000000E+00  0.8681194E-04
  0.7575758E-01  0.0000000E+00  0.2525252E-01  0.4497885E-05  0.0000000E+00  0.8850666E-04
  0.8585858E-01  0.0000000E+00  0.2525252E-01  0.5139892E-05  0.0000000E+00  0.9045869E-04
  0.9595960E-01  0.0000000E+00  0.2525252E-01  0.5798573E-05  0.0000000E+00  0.9267442E-04
  0.1060606E+00  0.0000000E+00  0.2525252E-01  0.6476385E-05  0.0000000E+00  0.9516121E-04
  0.1161616E+00  0.0000000E+00  0.2525252E-01  0.7175965E-05  0.0000000E+00  0.9792748E-04
  0.1262626E+00  0.0000000E+00  0.2525252E-01  0.7900166E-05  0.0000000E+00  0.1009828E-03
  0.1363636E+00  0.0000000E+00  0.2525252E-01  0.8652091E-05  0.0000000E+00  0.1043378E-03
  0.1464646E+00  0.0000000E+00  0.2525252E-01  0.9435136E-05  0.0000000E+00  0.1080048E-03
  0.1565657E+00  0.0000000E+00  0.2525252E-01  0.1025304E-04  0.0000000E+00  0.1119973E-03
  0.1666667E+00  0.0000000E+00  0.2525252E-01  0.1110996E-04  0.0000000E+00  0.1163305E-03
  0.1767677E+00  0.0000000E+00  0.2525252E-01  0.1201051E-04  0.0000000E+00  0.1210214E-03
  0.1868687E+00  0.0000000E+00  0.2525252E-01  0.1295989E-04  0.0000000E+00  0.1260890E-03
  0.1969697E+00  0.0000000E+00  0.2525252E-01  0.1396396E-04  0.0000000E+00  0.1315546E-03
  0.2070707E+00  0.0000000E+00  0.2525252E-01  0.1502941E-04  0.0000000E+00  0.1374422E-03
  0.2171717E+00  0.0000000E+00  0.2525252E-01  0.1616388E-04  0.0000000E+00  0.1437784E-03
  0.2272727E+00  0.0000000E+00  0.2525252E-01  0.1737622E-04  0.0000000E+00  0.1505934E-03
  0.2373737E+00  0.0000000E+00  0.2525252E-01  0.1867667E-04  0.0000000E+00  0.1579213E-03
  0.2474747E+00  0.0000000E+00  0.2525252E-01  0.2007728E-04  0.0000000E+00  0.1658006E-03
  0.2575758E+00  0.0000000E+00  0.2525252E-01  0.2159221E-04  0.0000000E+00  0.1742752E-03
  0.2676768E+00  0.0000000E+00  0.2525252E-01  0.2323832E-04  0.0000000E+00  0.1833952E-03
  0.2777778E+00  0.0000000E+00  0.2525252E-01  0.2503576E-04  0.0000000E+00  0.1932183E-03
  0.2878788E+00  0.0000000E+00  0.2525252E-01  0.2700881E-04  0.0000000E+00  0.2038109E-03
  0.2979798E+00  0.0000000E+00  0.2525252E-01  0.2918688E-04  0.0000000E+00  0.2152503E-03
  0.3080808E+00  0.0000000E+00  0.2525252E-01  0.3160583E-04  0.0000000E+00  0.2276271E-03
  0.3181818E+00  0.0000000E+00  0.2525252E-01  0.3430955E-04  0.0000000E+00  0.2410478E-03
  0.3282828E+00  0.0000000E+00  0.2525252E-01  0.3735203E-04  0.0000000E+00  0.2556389E-03
  0.3383838E+00  0.0000000E+00  0.2525252E-01  0.4079973E-04  0.0000000E+00  0.2715513E-03
  0.3484848E+00  0.0000000E+00  0.2525252E-01  0.4473447E-04  0.0000000E+00  0.2889670E-03
  0.3585859E+00  0.0000000E+00  0.2525252E-01  0.4925644E-04  0.0000000E+00  0.3081071E-03
  0.3686869E+00  0.0000000E+00  0.2525252E-01  0.5448689E-04  0.0000000E+00  0.3292425E-03
  0.3787879E+00  0.0000000E+00  0.2525252E-01  0.6056876E-04  0.0000000E+00  0.3527093E-03
  0.3888889E+00  0.0000000E+00  0.2525252E-01  0.6766175E-04  0.0000000E+00  0.3789282E-03
  0.3989899E+00  0.0000000E+00  0.2525252E-01  0.7592293E-04  0.0000000E+00  0.4084329E-03
  0.4090909E+00  0.0000000E+00  0.2525252E-01  0.8545341E-04  0.0000000E+00  0.4419011E-03
  0.4191919E+00  0.0000000E+00  0.2525252E-01  0.9616661E-04  0.0000000E+00  0.4801657E-03
  0.4292929E+00  0.0000000E+00  0.2525252E-01  0.1074921E-03  0.0000000E+00  0.5240902E-03
  0.4393939E+00  0.0000000E+00  0.2525252E-01  0.1178383E-03  0.0000000E+00  0.5739419E-03
  0.4494950E+00  0.0000000E+00  0.2525252E-01  0.1244808E-03  0.0000000E+00  0.6277771E-03
  0.4595959E+00  0.0000000E+00  0.2525252E-01  0.1308313E-03  0.0000000E+00  0.6843854E-03
  0.4696970E+00  0.0000000E+00  0.2525252E-01  0.1348514E-03  0.0000000E+00  0.7431245E-03
  0.4797980E+00  0.0000000E+00  0.2525252E-01  0.1387986E-03  0.0000000E+00  0.8024749E-03
  0.4898990E+00  0.0000000E+00  0.2525252E-01  0.1479907E-03  0.0000000E+00  0.8654297E-03
  0.5000000E+00  0.0000000E+00  0.2525252E-01  0.1567063E-03  0.0000000E+00  0.9351310E-03
  0.5101010E+00  0.0000000E+00  0.2525252E-01  0.1590229E-03  0.0000000E+00  0.1007392E-02
  0.5202020E+00  0.0000000E+00  0.2525252E-01  0.1590000E-03  0.0000000E+00  0.1074922E-02
  0.5303030E+00  0.0000000E+00  0.2525252E-01  0.1763421E-03  0.0000000E+00  0.1143613E-02
  0.5404040E+00  0.0000000E+00  0.2525252E-01  0.1816920E-03  0.0000000E+00  0.1203261E-02
  0.5505050E+00  0.0000000E+00  0.2525252E-01  0.2328075E-03  0.0000000E+00  0.1249446E-02
  0.5606061E+00  0.0000000E+00  0.2525252E-01  0.2542851E-03  0.0000000E+00  0.1227959E-02
  0.5707071E+00  0.0000000E+00  0.2525252E-01 -0.2242876E-03  0.0000000E+00  0.1163805E-02
  0.5808081E+00  0.0000000E+00  0.2525252E-01 -0.2531133E-03  0.0000000E+00  0.1112124E-02
  0.5909091E+00  0.0000000E+00  0.2525252E-01 -0.2511319E-03  0.0000000E+00  0.1065658E-02
  0.6010101E+00  0.0000000E+00  0.2525252E-01 -0.2156178E-03  0.0000000E+00  0.1040216E-02
  0.6111111E+00  0.0000000E+00  0.2525252E-01 -0.1982480E-03  0.0000000E+00  0.9967897E-03
  0.6212121E+00  0.0000000E+00  0.2525252E-01 -0.1899864E-03  0.0000000E+00  0.9233042E-03
  0.6313131E+00  0.0000000E+00  0.2525252E-01 -0.1657458E-03  0.0000000E+00  0.8477107E-03
  0.6414142E+00  0.0000000E+00  0.2525252E-01 -0.1511437E-03  0.0000000E+00  0.7821300E-03
  0.6515151E+00  0.0000000E+00  0.2525252E-01 -0.1435374E-03  0.0000000E+00  0.7183719E-03
  0.6616161E+00  0.0000000E+00  0.2525252E-01 -0.1296765E-03  0.0000000E+00  0.6577451E-03
  0.6717172E+00  0.0000000E+00  0.2525252E-01 -0.1157047E-03  0.0000000E+00  0.6047434E-03
  0.6818182E+00  0.0000000E+00  0.2525252E-01 -0.1033290E-03  0.0000000E+00  0.5584302E-03
  0.6919192E+00  0.0000000E+00  0.2525252E-01 -0.9280126E-04  0.0000000E+00  0.5174185E-03
  0.7020202E+00  0.0000000E+00  0.2525252E-01 -0.8388031E-04  0.0000000E+00  0.4806256E-03
  0.7121212E+00  0.0000000E+00  0.2525252E-01 -0.7619769E-04  0.0000000E+00  0.4473152E-03
  0.7222222E+00  0.0000000E+00  0.2525252E-01 -0.6943764E-04  0.0000000E+00  0.4170107E-03
  0.7323232E+00  0.0000000E+00  0.2525252E-01 -0.6338455E-04  0.0000000E+00  0.3893876E-03
  0.7424242E+00  0.0000000E+00  0.2525252E-01 -0.5790578E-04  0.0000000E+00  0.3641969E-03
  0.7525253E+00  0.0000000E+00  0.2525252E-01 -0.5292029E-04  0.0000000E+00  0.3412240E-03
  0.7626263E+00  0.0000000E+00  0.2525252E-01 -0.4837394E-04  0.0000000E+00  0.3202735E-03
  0.7727273E+00  0.0000000E+00  0.2525252E-01 -0.4422482E-04  0.0000000E+00  0.3011643E-03
  0.7828283E+00  0.0000000E+00  0.2525252E-01 -0.4043611E-04  0.0000000E+00  0.2837301E-03
  0.7929293E+00  0.0000000E+00  0.2525252E-01 -0.3697331E-04  0.0000000E+00  0.2678195E-03
  0.8030303E+00  0.0000000E+00  0.2525252E-01 -0.3380365E-04  0.0000000E+00  0.2532963E-03
  0.8131313E+00  0.0000000E+00  0.2525252E-01 -0.3089615E-04  0.0000000E+00  0.2400393E-03
  0.8232324E+00  0.0000000E+00  0.2525252E-01 -0.2822200E-04  0.0000000E+00  0.2279410E-03
  0.8333333E+00  0.0000000E+00  0.2525252E-01 -0.2575473E-04  0.0000000E+00  0.2169068E-03
  0.8434343E+00  0.0000000E+00  0.2525252E-01 -0.2347034E-04  0.0000000E+00  0.2068532E-03
  0.8535354E+00  0.0000000E+00  0.2525252E-01 -0.2134723E-04  0.0000000E+00  0.1977071E-03
  0.8636364E+00  0.0000000E+00  0.2525252E-01 -0.1936606E-04  0.0000000E+00  0.1894044E-03
  0.8737374E+00  0.0000000E+00  0.2525252E-01 -0.1750957E-04  0.0000000E+00  0.1818889E-03
  0.8838384E+00  0.0000000E+00  0.2525252E-01 -0.1576234E-04  0.0000000E+00  0.1751115E-03
  0.8939394E+00  0.0000000E+00  0.2525252E-01 -0.1411061E-04  0.0000000E+00  0.1690292E-03
  0.9040404E+00  0.0000000E+00  0.2525252E-01 -0.1254202E-04  0.0000000E+00  0.1636048E-03
  0.9141414E+00  0.0000000E+00  0.2525252E-01 -0.1104547E-04  0.0000000E+00  0.1588058E-03
  0.9242424E+00  0.0000000E+00  0.2525252E-01 -0.9610871E-05  0.0000000E+00  0.1546044E-03
  0.9343435E+00  0.0000000E+00  0.2525252E-01 -0.8229043E-05  0.0000000E+00  0.1509767E-03
  0.9444444E+00  0.0000000E+00  0.2525252E-01 -0.6891546E-05  0.0000000E+00  0.1479025E-03
  0.9545454E+00  0.0000000E+00  0.2525252E-01 -0.5590554E-05  0.0000000E+00  0.1453651E-03
  0.9646465E+00  0.0000000E+00  0.2525252E-01 -0.4318749E-05  0.0000000E+00  0.1433509E-03
  0.9747475E+00  0.0000000E+00  0.2525252E-01 -0.3069212E-05  0.0000000E+00  0.1418493E-03
  0.9848485E+00  0.0000000E+00  0.2525252E-01 -0.1835340E-05  0.0000000E+00  0.1408524E-03
  0.9974747E+00  0.0000000E+00  0.2525252E-01 -0.6107564E-06  0.0000000E+00  0.1403552E-03
  0.5050505E-02  0.0000000E+00  0.3535353E-01  0.4068434E-06  0.0000000E+00  0.8166118E-04
  0.1515152E-01  0.0000000E+00  0.3535353E-01  0.1221750E-05  0.0000000E+00  0.8189639E-04
  0.2525252E-01  0.0000000E+00  0.3535353E-01  0.2040336E-05  0.0000000E+00  0.8236748E-04
  0.3535353E-01  0.0000000E+00  0.3535353E-01  0.2865098E-05  0.0000000E+00  0.8307587E-04
  0.4545455E-01  0.0000000E+00  0.3535353E-01  0.3698593E-05  0.0000000E+00  0.8402367E-04
  0.5555556E-01  0.0000000E+00  0.3535353E-01  0.4543458E-05  0.0000000E+00  0.8521380E-04
  0.6565657E-01  0.0000000E+00  0.3535353E-01  0.5402428E-05  0.0000000E+00  0.8664992E-04
  0.7575758E-01  0.0000000E+00  0.3535353E-01  0.6278363E-05  0.0000000E+00  0.8833653E-04
  0.8585858E-01  0.0000000E+00  0.3535353E-01  0.7174273E-05  0.0000000E+00  0.9027897E-04
  0.9595960E-01  0.0000000E+00  0.3535353E-01  0.8093352E-05  0.0000000E+00  0.9248349E-04
  0.1060606E+00  0.0000000E+00  0.3535353E-01  0.9039002E-05  0.0000000E+00  0.9495729E-04
  0.1161616E+00  0.0000000E+00  0.3535353E-01  0.1001488E-04  0.0000000E+00  0.9770859E-04
  0.1262626E+00  0.0000000E+00  0.3535353E-01  0.1102493E-04  0.0000000E+00  0.1007467E-03
  0.1363636E+00  0.0000000E+00  0.3535353E-01  0.1207346E-04  0.0000000E+00  0.1040822E-03
  0.1464646E+00  0.0000000E+00  0.3535353E-01  0.1316515E-04  0.0000000E+00  0.1077268E-03
  0.1565657E+00  0.0000000E+00  0.3535353E-01  0.1430516E-04  0.0000000E+00  0.1116937E-03
  0.1666667E+00  0.0000000E+00  0.3535353E-01  0.1549923E-04  0.0000000E+00  0.1159978E-03
  0.1767677E+00  0.0000000E+00  0.3535353E-01  0.1675373E-04  0.0000000E+00  0.1206556E-03
  0.1868687E+00  0.0000000E+00  0.3535353E-01  0.1807578E-04  0.0000000E+00  0.1256853E-03
  0.1969697E+00  0.0000000E+00  0.3535353E-01  0.1947347E-04  0.0000000E+00  0.1311078E-03
  0.2070707E+00  0.0000000E+00  0.3535353E-01  0.2095594E-04  0.0000000E+00  0.1369458E-03
  0.2171717E+00  0.0000000E+00  0.3535353E-01  0.2253368E-04  0.0000000E+00  0.1432252E-03
  0.2272727E+00  0.0000000E+00  0.3535353E-01  0.2421875E-04  0.0000000E+00  0.1499748E-03
  0.2373737E+00  0.0000000E+00  0.3535353E-01  0.2602516E-04  0.0000000E+00  0.1572270E-03
  0.2474747E+00  0.0000000E+00  0.3535353E-01  0.2796929E-04  0.0000000E+00  0.1650187E-03
  0.2575758E+00  0.0000000E+00  0.3535353E-01  0.3007040E-04  0.0000000E+00  0.1733911E-03
  0.2676768E+00  0.0000000E+00  0.3535353E-01  0.3235137E-04  0.0000000E+00  0.1823915E-03
  0.2777778E+00  0.0000000E+00  0.3535353E-01  0.3483949E-04  0.0000000E+00  0.1920739E-03
  0.2878788E+00  0.0000000E+00  0.3535353E-01  0.3756761E-04  0.0000000E+00  0.2025002E-03
  0.2979798E+00  0.0000000E+00  0.3535353E-01  0.4057547E-04  0.0000000E+00  0.2137420E-03