title = "dataset water"
variables = "x", "y", "z", "vx", "vy", "vz"
zone t = "velocities, solution time =  4.000E+01 days        " i =   99, j =   99, k =    1,  f=point
  0.5050505E-02  0.0000000E+00  0.5050505E-02  0.2053566E-07  0.0000000E+00  0.1716174E-04
  0.1515152E-01  0.0000000E+00  0.5050505E-02  0.6167141E-07  0.0000000E+00  0.1724436E-04
  0.2525252E-01  0.0000000E+00  0.5050505E-02  0.1030011E-06  0.0000000E+00  0.1740986E-04
  0.3535353E-01  0.0000000E+00  0.5050505E-02  0.1446553E-06  0.0000000E+00  0.1765877E-04
  0.4545455E-01  0.0000000E+00  0.5050505E-02  0.1867663E-06  0.0000000E+00  0.1799188E-04
  0.5555556E-01  0.0000000E+00  0.5050505E-02  0.2294688E-06  0.0000000E+00  0.1841025E-04
  0.6565657E-01  0.0000000E+00  0.5050505E-02  0.2728999E-06  0.0000000E+00  0.1891523E-04
  0.7575758E-01  0.0000000E+00  0.5050505E-02  0.3172003E-06  0.0000000E+00  0.1950843E-04
  0.8585858E-01  0.0000000E+00  0.5050505E-02  0.3625148E-06  0.0000000E+00  0.2019176E-04
  0.9595960E-01  0.0000000E+00  0.5050505E-02  0.4089930E-06  0.0000000E+00  0.2096744E-04
  0.1060606E+00  0.0000000E+00  0.5050505E-02  0.4567898E-06  0.0000000E+00  0.2183798E-04
  0.1161616E+00  0.0000000E+00  0.5050505E-02  0.5060667E-06  0.0000000E+00  0.2280624E-04
  0.1262626E+00  0.0000000E+00  0.5050505E-02  0.5569922E-06  0.0000000E+00  0.2387539E-04
  0.1363636E+00  0.0000000E+00  0.5050505E-02  0.6097430E-06  0.0000000E+00  0.2504896E-04
  0.1464646E+00  0.0000000E+00  0.5050505E-02  0.6645048E-06  0.0000000E+00  0.2633086E-04
  0.1565657E+00  0.0000000E+00  0.5050505E-02  0.7214737E-06  0.0000000E+00  0.2772537E-04
  0.1666667E+00  0.0000000E+00  0.5050505E-02  0.7808571E-06  0.0000000E+00  0.2923722E-04
  0.1767677E+00  0.0000000E+00  0.5050505E-02  0.8428753E-06  0.0000000E+00  0.3087154E-04
  0.1868687E+00  0.0000000E+00  0.5050505E-02  0.9077625E-06  0.0000000E+00  0.3263394E-04
  0.1969697E+00  0.0000000E+00  0.5050505E-02  0.9757691E-06  0.0000000E+00  0.3453054E-04
  0.2070707E+00  0.0000000E+00  0.5050505E-02  0.1047163E-05  0.0000000E+00  0.3656799E-04
  0.2171717E+00  0.0000000E+00  0.5050505E-02  0.1122232E-05  0.0000000E+00  0.3875349E-04
  0.2272727E+00  0.0000000E+00  0.5050505E-02  0.1201284E-05  0.0000000E+00  0.4109488E-04
  0.2373737E+00  0.0000000E+00  0.5050505E-02  0.1284656E-05  0.0000000E+00  0.4360066E-04
  0.2474747E+00  0.0000000E+00  0.5050505E-02  0.1372707E-05  0.0000000E+00  0.4628005E-04
  0.2575758E+00  0.0000000E+00  0.5050505E-02  0.1465830E-05  0.0000000E+00  0.4914306E-04
  0.2676768E+00  0.0000000E+00  0.5050505E-02  0.1564451E-05  0.0000000E+00  0.5220054E-04
  0.2777778E+00  0.0000000E+00  0.5050505E-02  0.1669036E-05  0.0000000E+00  0.5546427E-04
  0.2878788E+00  0.0000000E+00  0.5050505E-02  0.1780093E-05  0.0000000E+00  0.5894705E-04
  0.2979798E+00  0.0000000E+00  0.5050505E-02  0.1898181E-05  0.0000000E+00  0.6266279E-04
  0.3080808E+00  0.0000000E+00  0.5050505E-02  0.2023911E-05  0.0000000E+00  0.6662663E-04
  0.3181818E+00  0.0000000E+00  0.5050505E-02  0.2157961E-05  0.0000000E+00  0.7085507E-04
  0.3282828E+00  0.0000000E+00  0.5050505E-02  0.2301074E-05  0.0000000E+00  0.7536609E-04
  0.3383838E+00  0.0000000E+00  0.5050505E-02  0.2454078E-05  0.0000000E+00  0.8017933E-04
  0.3484848E+00  0.0000000E+00  0.5050505E-02  0.2617888E-05  0.0000000E+00  0.8531628E-04
  0.3585859E+00  0.0000000E+00  0.5050505E-02  0.2793519E-05  0.0000000E+00  0.9080045E-04
  0.3686869E+00  0.0000000E+00  0.5050505E-02  0.2982100E-05  0.0000000E+00  0.9665766E-04
  0.3787879E+00  0.0000000E+00  0.5050505E-02  0.3184884E-05  0.0000000E+00  0.1029162E-03
  0.3888889E+00  0.0000000E+00  0.5050505E-02  0.3403262E-05  0.0000000E+00  0.1096074E-03
  0.3989899E+00  0.0000000E+00  0.5050505E-02  0.3638765E-05  0.0000000E+00  0.1167653E-03
  0.4090909E+00  0.0000000E+00  0.5050505E-02  0.3893074E-05  0.0000000E+00  0.1244278E-03
  0.4191919E+00  0.0000000E+00  0.5050505E-02  0.4168007E-05  0.0000000E+00  0.1326364E-03
  0.4292929E+00  0.0000000E+00  0.5050505E-02  0.4465499E-05  0.0000000E+00  0.1414367E-03
  0.4393939E+00  0.0000000E+00  0.5050505E-02  0.4787555E-05  0.0000000E+00  0.1508786E-03
  0.4494950E+00  0.0000000E+00  0.5050505E-02  0.5136179E-05  0.0000000E+00  0.1610166E-03
  0.4595959E+00  0.0000000E+00  0.5050505E-02  0.5513292E-05  0.0000000E+00  0.1719095E-03
  0.4696970E+00  0.0000000E+00  0.5050505E-02  0.5920701E-05  0.0000000E+00  0.1836203E-03
  0.4797980E+00  0.0000000E+00  0.5050505E-02  0.6360281E-05  0.0000000E+00  0.1962165E-03
  0.4898990E+00  0.0000000E+00  0.5050505E-02  0.6834834E-05  0.0000000E+00  0.2097712E-03
  0.5000000E+00  0.0000000E+00  0.5050505E-02  0.7350724E-05  0.0000000E+00  0.2243673E-03
  0.5101010E+00  0.0000000E+00  0.5050505E-02  0.7925013E-05  0.0000000E+00  0.2401130E-03
  0.5202020E+00  0.0000000E+00  0.5050505E-02  0.8604292E-05  0.0000000E+00  0.2571836E-03
  0.5303030E+00  0.0000000E+00  0.5050505E-02  0.9516164E-05  0.0000000E+00  0.2759365E-03
  0.5404040E+00  0.0000000E+00  0.5050505E-02  0.1102194E-04  0.0000000E+00  0.2972404E-03
  0.5505050E+00  0.0000000E+00  0.5050505E-02  0.1420480E-04  0.0000000E+00  0.3234777E-03
  0.5606061E+00  0.0000000E+00  0.5050505E-02  0.2243459E-04  0.0000000E+00  0.3617146E-03
  0.5707071E+00  0.0000000E+00  0.5050505E-02 -0.1018741E-05  0.0000000E+00  0.3840894E-03
  0.5808081E+00  0.0000000E+00  0.5050505E-02 -0.3636520E-04  0.0000000E+00  0.3451576E-03
  0.5909091E+00  0.0000000E+00  0.5050505E-02 -0.1857784E-04  0.0000000E+00  0.2880441E-03
  0.6010101E+00  0.0000000E+00  0.5050505E-02 -0.1209611E-04  0.0000000E+00  0.2562946E-03
  0.6111111E+00  0.0000000E+00  0.5050505E-02 -0.9241158E-05  0.0000000E+00  0.2342717E-03
  0.6212121E+00  0.0000000E+00  0.5050505E-02 -0.7729030E-05  0.0000000E+00  0.2167945E-03
  0.6313131E+00  0.0000000E+00  0.5050505E-02 -0.6789013E-05  0.0000000E+00  0.2018703E-03
  0.6414142E+00  0.0000000E+00  0.5050505E-02 -0.6125672E-05  0.0000000E+00  0.1886158E-03
  0.6515151E+00  0.0000000E+00  0.5050505E-02 -0.5611785E-05  0.0000000E+00  0.1765873E-03
  0.6616161E+00  0.0000000E+00  0.5050505E-02 -0.5186866E-05  0.0000000E+00  0.1655357E-03
  0.6717172E+00  0.0000000E+00  0.5050505E-02 -0.4819692E-05  0.0000000E+00  0.1553076E-03
  0.6818182E+00  0.0000000E+00  0.5050505E-02 -0.4492990E-05  0.0000000E+00  0.1457998E-03
  0.6919192E+00  0.0000000E+00  0.5050505E-02 -0.4196602E-05  0.0000000E+00  0.1369377E-03
  0.7020202E+00  0.0000000E+00  0.5050505E-02 -0.3924208E-05  0.0000000E+00  0.1286640E-03
  0.7121212E+00  0.0000000E+00  0.5050505E-02 -0.3671659E-05  0.0000000E+00  0.1209324E-03
  0.7222222E+00  0.0000000E+00  0.5050505E-02 -0.3436084E-05  0.0000000E+00  0.1137041E-03
  0.7323232E+00  0.0000000E+00  0.5050505E-02 -0.3215390E-05  0.0000000E+00  0.1069453E-03
  0.7424242E+00  0.0000000E+00  0.5050505E-02 -0.3007982E-05  0.0000000E+00  0.1006265E-03
  0.7525253E+00  0.0000000E+00  0.5050505E-02 -0.2812585E-05  0.0000000E+00  0.9472085E-04
  0.7626263E+00  0.0000000E+00  0.5050505E-02 -0.2628144E-05  0.0000000E+00  0.8920434E-04
  0.7727273E+00  0.0000000E+00  0.5050505E-02 -0.2453758E-05  0.0000000E+00  0.8405489E-04
  0.7828283E+00  0.0000000E+00  0.5050505E-02 -0.2288633E-05  0.0000000E+00  0.7925228E-04
  0.7929293E+00  0.0000000E+00  0.5050505E-02 -0.2132063E-05  0.0000000E+00  0.7477791E-04
  0.8030303E+00  0.0000000E+00  0.5050505E-02 -0.1983403E-05  0.0000000E+00  0.7061458E-04
  0.8131313E+00  0.0000000E+00  0.5050505E-02 -0.1842060E-05  0.0000000E+00  0.6674646E-04
  0.8232324E+00  0.0000000E+00  0.5050505E-02 -0.1707485E-05  0.0000000E+00  0.6315891E-04
  0.8333333E+00  0.0000000E+00  0.5050505E-02 -0.1579161E-05  0.0000000E+00  0.5983843E-04
  0.8434343E+00  0.0000000E+00  0.5050505E-02 -0.1456606E-05  0.0000000E+00  0.5677255E-04
  0.8535354E+00  0.0000000E+00  0.5050505E-02 -0.1339361E-05  0.0000000E+00  0.5394983E-04
  0.8636364E+00  0.0000000E+00  0.5050505E-02 -0.1226991E-05  0.0000000E+00  0.5135974E-04
  0.8737374E+00  0.0000000E+00  0.5050505E-02 -0.1119081E-05  0.0000000E+00  0.4899265E-04
  0.8838384E+00  0.0000000E+00  0.5050505E-02 -0.1015236E-05  0.0000000E+00  0.4683979E-04
  0.8939394E+00  0.0000000E+00  0.5050505E-02 -0.9150752E-06  0.0000000E+00  0.4489316E-04
  0.9040404E+00  0.0000000E+00  0.5050505E-02 -0.8182323E-06  0.0000000E+00  0.4314558E-04
  0.9141414E+00  0.0000000E+00  0.5050505E-02 -0.7243546E-06  0.0000000E+00  0.4159058E-04
  0.9242424E+00  0.0000000E+00  0.5050505E-02 -0.6331001E-06  0.0000000E+00  0.4022244E-04
  0.9343435E+00  0.0000000E+00  0.5050505E-02 -0.5441369E-06  0.0000000E+00  0.3903611E-04
  0.9444444E+00  0.0000000E+00  0.5050505E-02 -0.4571415E-06  0.0000000E+00  0.3802721E-04
  0.9545454E+00  0.0000000E+00  0.5050505E-02 -0.3717980E-06  0.0000000E+00  0.3719206E-04
  0.9646465E+00  0.0000000E+00  0.5050505E-02 -0.2877966E-06  0.0000000E+00  0.3652757E-04
  0.9747475E+00  0.0000000E+00  0.5050505E-02 -0.2048328E-06  0.0000000E+00  0.3603131E-04
  0.9848485E+00  0.0000000E+00  0.5050505E-02 -0.1226063E-06  0.0000000E+00  0.3570148E-04
  0.9974747E+00  0.0000000E+00  0.5050505E-02 -0.4082006E-07  0.0000000E+00  0.3553686E-04
  0.5050505E-02  0.0000000E+00  0.1515152E-01  0.6156329E-07  0.0000000E+00  0.1718285E-04
  0.1515152E-01  0.0000000E+00  0.1515152E-01  0.1848832E-06  0.0000000E+00  0.1726554E-04
  0.2525252E-01  0.0000000E+00  0.1515152E-01  0.3087846E-06  0.0000000E+00  0.1743117E-04
  0.3535353E-01  0.0000000E+00  0.1515152E-01  0.4336592E-06  0.0000000E+00  0.1768027E-04
  0.4545455E-01  0.0000000E+00  0.1515152E-01  0.5599036E-06  0.0000000E+00  0.1801363E-04
  0.5555556E-01  0.0000000E+00  0.1515152E-01  0.6879207E-06  0.0000000E+00  0.1843231E-04
  0.6565657E-01  0.0000000E+00  0.1515152E-01  0.8181221E-06  0.0000000E+00  0.1893766E-04
  0.7575758E-01  0.0000000E+00  0.1515152E-01  0.9509293E-06  0.0000000E+00  0.1953128E-04
  0.8585858E-01  0.0000000E+00  0.1515152E-01  0.1086776E-05  0.0000000E+00  0.2021510E-04
  0.9595960E-01  0.0000000E+00  0.1515152E-01  0.1226111E-05  0.0000000E+00  0.2099132E-04
  0.1060606E+00  0.0000000E+00  0.1515152E-01  0.1369397E-05  0.0000000E+00  0.2186245E-04
  0.1161616E+00  0.0000000E+00  0.1515152E-01  0.1517120E-05  0.0000000E+00  0.2283135E-04
  0.1262626E+00  0.0000000E+00  0.1515152E-01  0.1669784E-05  0.0000000E+00  0.2390119E-04
  0.1363636E+00  0.0000000E+00  0.1515152E-01  0.1827918E-05  0.0000000E+00  0.2507550E-04
  0.1464646E+00  0.0000000E+00  0.1515152E-01  0.1992079E-05  0.0000000E+00  0.2635817E-04
  0.1565657E+00  0.0000000E+00  0.1515152E-01  0.2162854E-05  0.0000000E+00  0.2775349E-04
  0.1666667E+00  0.0000000E+00  0.1515152E-01  0.2340865E-05  0.0000000E+00  0.2926618E-04
  0.1767677E+00  0.0000000E+00  0.1515152E-01  0.2526772E-05  0.0000000E+00  0.3090135E-04
  0.1868687E+00  0.0000000E+00  0.1515152E-01  0.2721276E-05  0.0000000E+00  0.3266463E-04
  0.1969697E+00  0.0000000E+00  0.1515152E-01  0.2925128E-05  0.0000000E+00  0.3456211E-04
  0.2070707E+00  0.0000000E+00  0.1515152E-01  0.3139129E-05  0.0000000E+00  0.3660043E-04
  0.2171717E+00  0.0000000E+00  0.1515152E-01  0.3364142E-05  0.0000000E+00  0.3878679E-04
  0.2272727E+00  0.0000000E+00  0.1515152E-01  0.3601094E-05  0.0000000E+00  0.4112902E-04
  0.2373737E+00  0.0000000E+00  0.1515152E-01  0.3850984E-05  0.0000000E+00  0.4363558E-04
  0.2474747E+00  0.0000000E+00  0.1515152E-01  0.4114896E-05  0.0000000E+00  0.4631570E-04
  0.2575758E+00  0.0000000E+00  0.1515152E-01  0.4394003E-05  0.0000000E+00  0.4917935E-04
  0.2676768E+00  0.0000000E+00  0.1515152E-01  0.4689585E-05  0.0000000E+00  0.5223735E-04
  0.2777778E+00  0.0000000E+00  0.1515152E-01  0.5003032E-05  0.0000000E+00  0.5550147E-04
  0.2878788E+00  0.0000000E+00  0.1515152E-01  0.5335870E-05  0.0000000E+00  0.5898447E-04
  0.2979798E+00  0.0000000E+00  0.1515152E-01  0.5689769E-05  0.0000000E+00  0.6270022E-04
  0.3080808E+00  0.0000000E+00  0.1515152E-01  0.6066564E-05  0.0000000E+00  0.6666383E-04
  0.3181818E+00  0.0000000E+00  0.1515152E-01  0.6468278E-05  0.0000000E+00  0.7089174E-04
  0.3282828E+00  0.0000000E+00  0.1515152E-01  0.6897146E-05  0.0000000E+00  0.7540188E-04
  0.3383838E+00  0.0000000E+00  0.1515152E-01  0.7355641E-05  0.0000000E+00  0.8021383E-04
  0.3484848E+00  0.0000000E+00  0.1515152E-01  0.7846505E-05  0.0000000E+00  0.8534901E-04
  0.3585859E+00  0.0000000E+00  0.1515152E-01  0.8372783E-05  0.0000000E+00  0.9083087E-04
  0.3686869E+00  0.0000000E+00  0.1515152E-01  0.8937860E-05  0.0000000E+00  0.9668514E-04
  0.3787879E+00  0.0000000E+00  0.1515152E-01  0.9545497E-05  0.0000000E+00  0.1029401E-03
  0.3888889E+00  0.0000000E+00  0.1515152E-01  0.1019986E-04  0.0000000E+00  0.1096268E-03
  0.3989899E+00  0.0000000E+00  0.1515152E-01  0.1090557E-04  0.0000000E+00  0.1167795E-03
  0.4090909E+00  0.0000000E+00  0.1515152E-01  0.1166767E-04  0.0000000E+00  0.1244358E-03
  0.4191919E+00  0.0000000E+00  0.1515152E-01  0.1249165E-04  0.0000000E+00  0.1326374E-03
  0.4292929E+00  0.0000000E+00  0.1515152E-01  0.1338336E-04  0.0000000E+00  0.1414300E-03
  0.4393939E+00  0.0000000E+00  0.1515152E-01  0.1434887E-04  0.0000000E+00  0.1508637E-03
  0.4494950E+00  0.0000000E+00  0.1515152E-01  0.1539422E-04  0.0000000E+00  0.1609931E-03
  0.4595959E+00  0.0000000E+00  0.1515152E-01  0.1652514E-04  0.0000000E+00  0.1718773E-03
  0.4696970E+00  0.0000000E+00  0.1515152E-01  0.1774669E-04  0.0000000E+00  0.1835794E-03
  0.4797980E+00  0.0000000E+00  0.1515152E-01  0.1906343E-04  0.0000000E+00  0.1961651E-03
  0.4898990E+00  0.0000000E+00  0.1515152E-01  0.2048080E-04  0.0000000E+00  0.2097018E-03
  0.5000000E+00  0.0000000E+00  0.1515152E-01  0.2201043E-04  0.0000000E+00  0.2242561E-03
  0.5101010E+00  0.0000000E+00  0.1515152E-01  0.2368460E-04  0.0000000E+00  0.2398923E-03
  0.5202020E+00  0.0000000E+00  0.1515152E-01  0.2559265E-04  0.0000000E+00  0.2566701E-03
  0.5303030E+00  0.0000000E+00  0.1515152E-01  0.2796991E-04  0.0000000E+00  0.2746254E-03
  0.5404040E+00  0.0000000E+00  0.1515152E-01  0.3143161E-04  0.0000000E+00  0.2936637E-03
  0.5505050E+00  0.0000000E+00  0.1515152E-01  0.3772972E-04  0.0000000E+00  0.3131497E-03
  0.5606061E+00  0.0000000E+00  0.1515152E-01  0.5291467E-04  0.0000000E+00  0.3313023E-03
  0.5707071E+00  0.0000000E+00  0.1515152E-01 -0.3660330E-04  0.0000000E+00  0.3038846E-03
  0.5808081E+00  0.0000000E+00  0.1515152E-01 -0.7034345E-04  0.0000000E+00  0.2703738E-03
  0.5909091E+00  0.0000000E+00  0.1515152E-01 -0.4480790E-04  0.0000000E+00  0.2647643E-03
  0.6010101E+00  0.0000000E+00  0.1515152E-01 -0.3278033E-04  0.0000000E+00  0.2479319E-03
  0.6111111E+00  0.0000000E+00  0.1515152E-01 -0.2642834E-04  0.0000000E+00  0.2308436E-03
  0.6212121E+00  0.0000000E+00  0.1515152E-01 -0.2264096E-04  0.0000000E+00  0.2152382E-03
  0.6313131E+00  0.0000000E+00  0.1515152E-01 -0.2010868E-04  0.0000000E+00  0.2011167E-03
  0.6414142E+00  0.0000000E+00  0.1515152E-01 -0.1824258E-04  0.0000000E+00  0.1882418E-03
  0.6515151E+00  0.0000000E+00  0.1515152E-01 -0.1675960E-04  0.0000000E+00  0.1764062E-03
  0.6616161E+00  0.0000000E+00  0.1515152E-01 -0.1551481E-04  0.0000000E+00  0.1654576E-03
  0.6717172E+00  0.0000000E+00  0.1515152E-01 -0.1442953E-04  0.0000000E+00  0.1552861E-03
  0.6818182E+00  0.0000000E+00  0.1515152E-01 -0.1345866E-04  0.0000000E+00  0.1458097E-03
  0.6919192E+00  0.0000000E+00  0.1515152E-01 -0.1257497E-04  0.0000000E+00  0.1369649E-03
  0.7020202E+00  0.0000000E+00  0.1515152E-01 -0.1176115E-04  0.0000000E+00  0.1287004E-03
  0.7121212E+00  0.0000000E+00  0.1515152E-01 -0.1100565E-04  0.0000000E+00  0.1209732E-03
  0.7222222E+00  0.0000000E+00  0.1515152E-01 -0.1030034E-04  0.0000000E+00  0.1137465E-03
  0.7323232E+00  0.0000000E+00  0.1515152E-01 -0.9639235E-05  0.0000000E+00  0.1069877E-03
  0.7424242E+00  0.0000000E+00  0.1515152E-01 -0.9017714E-05  0.0000000E+00  0.1006678E-03
  0.7525253E+00  0.0000000E+00  0.1515152E-01 -0.8432057E-05  0.0000000E+00  0.9476064E-04
  0.7626263E+00  0.0000000E+00  0.1515152E-01 -0.7879161E-05  0.0000000E+00  0.8924232E-04
  0.7727273E+00  0.0000000E+00  0.1515152E-01 -0.7356357E-05  0.0000000E+00  0.8409097E-04
  0.7828283E+00  0.0000000E+00  0.1515152E-01 -0.6861294E-05  0.0000000E+00  0.7928645E-04
  0.7929293E+00  0.0000000E+00  0.1515152E-01 -0.6391863E-05  0.0000000E+00  0.7481021E-04
  0.8030303E+00  0.0000000E+00  0.1515152E-01 -0.5946142E-05  0.0000000E+00  0.7064512E-04
  0.8131313E+00  0.0000000E+00  0.1515152E-01 -0.5522359E-05  0.0000000E+00  0.6677533E-04
  0.8232324E+00  0.0000000E+00  0.1515152E-01 -0.5118867E-05  0.0000000E+00  0.6318622E-04
  0.8333333E+00  0.0000000E+00  0.1515152E-01 -0.4734125E-05  0.0000000E+00  0.5986428E-04
  0.8434343E+00  0.0000000E+00  0.1515152E-01 -0.4366682E-05  0.0000000E+00  0.5679708E-04
  0.8535354E+00  0.0000000E+00  0.1515152E-01 -0.4015163E-05  0.0000000E+00  0.5397313E-04
  0.8636364E+00  0.0000000E+00  0.1515152E-01 -0.3678266E-05  0.0000000E+00  0.5138192E-04
  0.8737374E+00  0.0000000E+00  0.1515152E-01 -0.3354747E-05  0.0000000E+00  0.4901382E-04
  0.8838384E+00  0.0000000E+00  0.1515152E-01 -0.3043418E-05  0.0000000E+00  0.4686003E-04
  0.8939394E+00  0.0000000E+00  0.1515152E-01 -0.2743139E-05  0.0000000E+00  0.4491257E-04
  0.9040404E+00  0.0000000E+00  0.1515152E-01 -0.2452813E-05  0.0000000E+00  0.4316425E-04
  0.9141414E+00  0.0000000E+00  0.1515152E-01 -0.2171380E-05  0.0000000E+00  0.4160859E-04
  0.9242424E+00  0.0000000E+00  0.1515152E-01 -0.1897815E-05  0.0000000E+00  0.4023987E-04
  0.9343435E+00  0.0000000E+00  0.1515152E-01 -0.1631123E-05  0.0000000E+00  0.3905303E-04
  0.9444444E+00  0.0000000E+00  0.1515152E-01 -0.1370334E-05  0.0000000E+00  0.3804370E-04
  0.9545454E+00  0.0000000E+00  0.1515152E-01 -0.1114501E-05  0.0000000E+00  0.3720819E-04
  0.9646465E+00  0.0000000E+00  0.1515152E-01 -0.8626936E-06  0.0000000E+00  0.3654342E-04
  0.9747475E+00  0.0000000E+00  0.1515152E-01 -0.6139999E-06  0.0000000E+00  0.3604695E-04
  0.9848485E+00  0.0000000E+00  0.1515152E-01 -0.3675189E-06  0.0000000E+00  0.3571696E-04
  0.9974747E+00  0.0000000E+00  0.1515152E-01 -0.1223600E-06  0.0000000E+00  0.3555227E-04
  0.5050505E-02  0.0000000E+00  0.2525252E-01  0.1025201E-06  0.0000000E+00  0.1722546E-04
  0.1515152E-01  0.0000000E+00  0.2525252E-01  0.3078824E-06  0.0000000E+00  0.1730828E-04
  0.2525252E-01  0.0000000E+00  0.2525252E-01  0.5142134E-06  0.0000000E+00  0.1747416E-04
  0.3535353E-01  0.0000000E+00  0.2525252E-01  0.7221649E-06  0.0000000E+00  0.1772365E-04
  0.4545455E-01  0.0000000E+00  0.2525252E-01  0.9323969E-06  0.0000000E+00  0.1805751E-04
  0.5555556E-01  0.0000000E+00  0.2525252E-01  0.1145580E-05  0.0000000E+00  0.1847683E-04
  0.6565657E-01  0.0000000E+00  0.2525252E-01  0.1362399E-05  0.0000000E+00  0.1898293E-04
  0.7575758E-01  0.0000000E+00  0.2525252E-01  0.1583556E-05  0.0000000E+00  0.1957743E-04
  0.8585858E-01  0.0000000E+00  0.2525252E-01  0.1809771E-05  0.0000000E+00  0.2026223E-04
  0.9595960E-01  0.0000000E+00  0.2525252E-01  0.2041791E-05  0.0000000E+00  0.2103955E-04
  0.1060606E+00  0.0000000E+00  0.2525252E-01  0.2280389E-05  0.0000000E+00  0.2191190E-04
  0.1161616E+00  0.0000000E+00  0.2525252E-01  0.2526368E-05  0.0000000E+00  0.2288212E-04
  0.1262626E+00  0.0000000E+00  0.2525252E-01  0.2780570E-05  0.0000000E+00  0.2395337E-04
  0.1363636E+00  0.0000000E+00  0.2525252E-01  0.3043875E-05  0.0000000E+00  0.2512918E-04
  0.1464646E+00  0.0000000E+00  0.2525252E-01  0.3317209E-05  0.0000000E+00  0.2641344E-04
  0.1565657E+00  0.0000000E+00  0.2525252E-01  0.3601548E-05  0.0000000E+00  0.2781043E-04
  0.1666667E+00  0.0000000E+00  0.2525252E-01  0.3897926E-05  0.0000000E+00  0.2932484E-04
  0.1767677E+00  0.0000000E+00  0.2525252E-01  0.4207440E-05  0.0000000E+00  0.3096180E-04
  0.1868687E+00  0.0000000E+00  0.2525252E-01  0.4531258E-05  0.0000000E+00  0.3272690E-04
  0.1969697E+00  0.0000000E+00  0.2525252E-01  0.4870626E-05  0.0000000E+00  0.3462623E-04
  0.2070707E+00  0.0000000E+00  0.2525252E-01  0.5226878E-05  0.0000000E+00  0.3666639E-04
  0.2171717E+00  0.0000000E+00  0.2525252E-01  0.5601447E-05  0.0000000E+00  0.3885457E-04
  0.2272727E+00  0.0000000E+00  0.2525252E-01  0.5995873E-05  0.0000000E+00  0.4119857E-04
  0.2373737E+00  0.0000000E+00  0.2525252E-01  0.6411818E-05  0.0000000E+00  0.4370684E-04
  0.2474747E+00  0.0000000E+00  0.2525252E-01  0.6851083E-05  0.0000000E+00  0.4638855E-04
  0.2575758E+00  0.0000000E+00  0.2525252E-01  0.7315619E-05  0.0000000E+00  0.4925363E-04
  0.2676768E+00  0.0000000E+00  0.2525252E-01  0.7807548E-05  0.0000000E+00  0.5231287E-04
  0.2777778E+00  0.0000000E+00  0.2525252E-01  0.8329184E-05  0.0000000E+00  0.5557797E-04
  0.2878788E+00  0.0000000E+00  0.2525252E-01  0.8883061E-05  0.0000000E+00  0.5906164E-04
  0.2979798E+00  0.0000000E+00  0.2525252E-01  0.9471951E-05  0.0000000E+00  0.6277768E-04
  0.3080808E+00  0.0000000E+00  0.2525252E-01  0.1009891E-04  0.0000000E+00  0.6674111E-04
  0.3181818E+00  0.0000000E+00  0.2525252E-01  0.1076729E-04  0.0000000E+00  0.7096829E-04
  0.3282828E+00  0.0000000E+00  0.2525252E-01  0.1148081E-04  0.0000000E+00  0.7547703E-04
  0.3383838E+00  0.0000000E+00  0.2525252E-01  0.1224358E-04  0.0000000E+00  0.8028682E-04
  0.3484848E+00  0.0000000E+00  0.2525252E-01  0.1306015E-04  0.0000000E+00  0.8541893E-04
  0.3585859E+00  0.0000000E+00  0.2525252E-01  0.1393561E-04  0.0000000E+00  0.9089669E-04
  0.3686869E+00  0.0000000E+00  0.2525252E-01  0.1487557E-04  0.0000000E+00  0.9674567E-04
  0.3787879E+00  0.0000000E+00  0.2525252E-01  0.1588632E-04  0.0000000E+00  0.1029940E-03
  0.3888889E+00  0.0000000E+00  0.2525252E-01  0.1697480E-04  0.0000000E+00  0.1096726E-03
  0.3989899E+00  0.0000000E+00  0.2525252E-01  0.1814875E-04  0.0000000E+00  0.1168156E-03
  0.4090909E+00  0.0000000E+00  0.2525252E-01  0.1941664E-04  0.0000000E+00  0.1244606E-03
  0.4191919E+00  0.0000000E+00  0.2525252E-01  0.2078772E-04  0.0000000E+00  0.1326493E-03
  0.4292929E+00  0.0000000E+00  0.2525252E-01  0.2227191E-04  0.0000000E+00  0.1414275E-03
  0.4393939E+00  0.0000000E+00  0.2525252E-01  0.2387952E-04  0.0000000E+00  0.1508459E-03
  0.4494950E+00  0.0000000E+00  0.2525252E-01  0.2562087E-04  0.0000000E+00  0.1609599E-03
  0.4595959E+00  0.0000000E+00  0.2525252E-01  0.2750549E-04  0.0000000E+00  0.1718297E-03
  0.4696970E+00  0.0000000E+00  0.2525252E-01  0.2954125E-04  0.0000000E+00  0.1835192E-03
  0.4797980E+00  0.0000000E+00  0.2525252E-01  0.3173317E-04  0.0000000E+00  0.1960940E-03
  0.4898990E+00  0.0000000E+00  0.2525252E-01  0.3408313E-04  0.0000000E+00  0.2096165E-03
  0.5000000E+00  0.0000000E+00  0.2525252E-01  0.3659221E-04  0.0000000E+00  0.2241366E-03
  0.5101010E+00  0.0000000E+00  0.2525252E-01  0.3927043E-04  0.0000000E+00  0.2396744E-03
  0.5202020E+00  0.0000000E+00  0.2525252E-01  0.4216156E-04  0.0000000E+00  0.2561863E-03
  0.5303030E+00  0.0000000E+00  0.2525252E-01  0.4538138E-04  0.0000000E+00  0.2734833E-03
  0.5404040E+00  0.0000000E+00  0.2525252E-01  0.4907135E-04  0.0000000E+00  0.2908935E-03
  0.5505050E+00  0.0000000E+00  0.2525252E-01  0.5261695E-04  0.0000000E+00  0.3053402E-03
  0.5606061E+00  0.0000000E+00  0.2525252E-01  0.4993860E-04  0.0000000E+00  0.2998716E-03
  0.5707071E+00  0.0000000E+00  0.2525252E-01 -0.8157855E-04  0.0000000E+00  0.2777403E-03
  0.5808081E+00  0.0000000E+00  0.2525252E-01 -0.7155721E-04  0.0000000E+00  0.2631147E-03
  0.5909091E+00  0.0000000E+00  0.2525252E-01 -0.5799209E-04  0.0000000E+00  0.2535365E-03
  0.6010101E+00  0.0000000E+00  0.2525252E-01 -0.4799508E-04  0.0000000E+00  0.2408907E-03
  0.6111111E+00  0.0000000E+00  0.2525252E-01 -0.4116637E-04  0.0000000E+00  0.2269880E-03
  0.6212121E+00  0.0000000E+00  0.2525252E-01 -0.3637824E-04  0.0000000E+00  0.2131927E-03
  0.6313131E+00  0.0000000E+00  0.2525252E-01 -0.3282720E-04  0.0000000E+00  0.2000459E-03
  0.6414142E+00  0.0000000E+00  0.2525252E-01 -0.3003327E-04  0.0000000E+00  0.1876971E-03
  0.6515151E+00  0.0000000E+00  0.2525252E-01 -0.2772077E-04  0.0000000E+00  0.1761501E-03
  0.6616161E+00  0.0000000E+00  0.2525252E-01 -0.2573056E-04  0.0000000E+00  0.1653624E-03
  0.6717172E+00  0.0000000E+00  0.2525252E-01 -0.2396861E-04  0.0000000E+00  0.1552812E-03
  0.6818182E+00  0.0000000E+00  0.2525252E-01 -0.2237746E-04  0.0000000E+00  0.1458552E-03
  0.6919192E+00  0.0000000E+00  0.2525252E-01 -0.2092067E-04  0.0000000E+00  0.1370378E-03
  0.7020202E+00  0.0000000E+00  0.2525252E-01 -0.1957410E-04  0.0000000E+00  0.1287871E-03
  0.7121212E+00  0.0000000E+00  0.2525252E-01 -0.1832108E-04  0.0000000E+00  0.1210657E-03
  0.7222222E+00  0.0000000E+00  0.2525252E-01 -0.1714953E-04  0.0000000E+00  0.1138401E-03
  0.7323232E+00  0.0000000E+00  0.2525252E-01 -0.1605032E-04  0.0000000E+00  0.1070797E-03
  0.7424242E+00  0.0000000E+00  0.2525252E-01 -0.1501627E-04  0.0000000E+00  0.1007566E-03
  0.7525253E+00  0.0000000E+00  0.2525252E-01 -0.1404148E-04  0.0000000E+00  0.9484551E-04
  0.7626263E+00  0.0000000E+00  0.2525252E-01 -0.1312097E-04  0.0000000E+00  0.8932290E-04
  0.7727273E+00  0.0000000E+00  0.2525252E-01 -0.1225041E-04  0.0000000E+00  0.8416718E-04
  0.7828283E+00  0.0000000E+00  0.2525252E-01 -0.1142597E-04  0.0000000E+00  0.7935838E-04
  0.7929293E+00  0.0000000E+00  0.2525252E-01 -0.1064416E-04  0.0000000E+00  0.7487804E-04
  0.8030303E+00  0.0000000E+00  0.2525252E-01 -0.9901813E-05  0.0000000E+00  0.7070907E-04
  0.8131313E+00  0.0000000E+00  0.2525252E-01 -0.9195999E-05  0.0000000E+00  0.6683566E-04
  0.8232324E+00  0.0000000E+00  0.2525252E-01 -0.8523981E-05  0.0000000E+00  0.6324319E-04
  0.8333333E+00  0.0000000E+00  0.2525252E-01 -0.7883199E-05  0.0000000E+00  0.5991816E-04
  0.8434343E+00  0.0000000E+00  0.2525252E-01 -0.7271238E-05  0.0000000E+00  0.5684811E-04
  0.8535354E+00  0.0000000E+00  0.2525252E-01 -0.6685811E-05  0.0000000E+00  0.5402156E-04
  0.8636364E+00  0.0000000E+00  0.2525252E-01 -0.6124748E-05  0.0000000E+00  0.5142798E-04
  0.8737374E+00  0.0000000E+00  0.2525252E-01 -0.5585979E-05  0.0000000E+00  0.4905772E-04
  0.8838384E+00  0.0000000E+00  0.2525252E-01 -0.5067523E-05  0.0000000E+00  0.4690198E-04
  0.8939394E+00  0.0000000E+00  0.2525252E-01 -0.4567481E-05  0.0000000E+00  0.4495278E-04
  0.9040404E+00  0.0000000E+00  0.2525252E-01 -0.4084025E-05  0.0000000E+00  0.4320289E-04
  0.9141414E+00  0.0000000E+00  0.2525252E-01 -0.3615389E-05  0.0000000E+00  0.4164585E-04
  0.9242424E+00  0.0000000E+00  0.2525252E-01 -0.3159867E-05  0.0000000E+00  0.4027591E-04
  0.9343435E+00  0.0000000E+00  0.2525252E-01 -0.2715798E-05  0.0000000E+00  0.3908801E-04
  0.9444444E+00  0.0000000E+00  0.2525252E-01 -0.2281567E-05  0.0000000E+00  0.3807780E-04
  0.9545454E+00  0.0000000E+00  0.2525252E-01 -0.1855596E-05  0.0000000E+00  0.3724154E-04
  0.9646465E+00  0.0000000E+00  0.2525252E-01 -0.1436337E-05  0.0000000E+00  0.3657617E-04
  0.9747475E+00  0.0000000E+00  0.2525252E-01 -0.1022269E-05  0.0000000E+00  0.3607925E-04
  0.9848485E+00  0.0000000E+00  0.2525252E-01 -0.6118916E-06  0.0000000E+00  0.3574897E-04
  0.9974747E+00  0.0000000E+00  0.2525252E-01 -0.2037195E-06  0.0000000E+00  0.3558413E-04
  0.5050505E-02  0.0000000E+00  0.3535353E-01  0.1434397E-06  0.0000000E+00  0.1728984E-04
  0.1515152E-01  0.0000000E+00  0.3535353E-01  0.4307696E-06  0.0000000E+00  0.1737285E-04
  0.2525252E-01  0.0000000E+00  0.3535353E-01  0.7194543E-06  0.0000000E+00  0.1753913E-04
  0.3535353E-01  0.0000000E+00  0.3535353E-01  0.1010405E-05  0.0000000E+00  0.1778920E-04
  0.4545455E-01  0.0000000E+00  0.3535353E-01  0.1304544E-05  0.0000000E+00  0.1812384E-04
  0.5555556E-01  0.0000000E+00  0.3535353E-01  0.1602810E-05  0.0000000E+00  0.1854412E-04
  0.6565657E-01  0.0000000E+00  0.3535353E-01  0.1906158E-05  0.0000000E+00  0.1905137E-04
  0.7575758E-01  0.0000000E+00  0.3535353E-01  0.2215568E-05  0.0000000E+00  0.1964720E-04
  0.8585858E-01  0.0000000E+00  0.3535353E-01  0.2532050E-05  0.0000000E+00  0.2033352E-04
  0.9595960E-01  0.0000000E+00  0.3535353E-01  0.2856645E-05  0.0000000E+00  0.2111253E-04
  0.1060606E+00  0.0000000E+00  0.3535353E-01  0.3190433E-05  0.0000000E+00  0.2198673E-04
  0.1161616E+00  0.0000000E+00  0.3535353E-01  0.3534537E-05  0.0000000E+00  0.2295896E-04
  0.1262626E+00  0.0000000E+00  0.3535353E-01  0.3890131E-05  0.0000000E+00  0.2403238E-04
  0.1363636E+00  0.0000000E+00  0.3535353E-01  0.4258445E-05  0.0000000E+00  0.2521051E-04
  0.1464646E+00  0.0000000E+00  0.3535353E-01  0.4640771E-05  0.0000000E+00  0.2649722E-04
  0.1565657E+00  0.0000000E+00  0.3535353E-01  0.5038474E-05  0.0000000E+00  0.2789678E-04
  0.1666667E+00  0.0000000E+00  0.3535353E-01  0.5452997E-05  0.0000000E+00  0.2941387E-04
  0.1767677E+00  0.0000000E+00  0.3535353E-01  0.5885871E-05  0.0000000E+00  0.3105360E-04
  0.1868687E+00  0.0000000E+00  0.3535353E-01  0.6338726E-05  0.0000000E+00  0.3282154E-04
  0.1969697E+00  0.0000000E+00  0.3535353E-01  0.6813300E-05  0.0000000E+00  0.3472374E-04
  0.2070707E+00  0.0000000E+00  0.3535353E-01  0.7311456E-05  0.0000000E+00  0.3676680E-04
  0.2171717E+00  0.0000000E+00  0.3535353E-01  0.7835191E-05  0.0000000E+00  0.3895787E-04
  0.2272727E+00  0.0000000E+00  0.3535353E-01  0.8386656E-05  0.0000000E+00  0.4130471E-04
  0.2373737E+00  0.0000000E+00  0.3535353E-01  0.8968168E-05  0.0000000E+00  0.4381572E-04
  0.2474747E+00  0.0000000E+00  0.3535353E-01  0.9582236E-05  0.0000000E+00  0.4650002E-04
  0.2575758E+00  0.0000000E+00  0.3535353E-01  0.1023158E-04  0.0000000E+00  0.4936750E-04
  0.2676768E+00  0.0000000E+00  0.3535353E-01  0.1091917E-04  0.0000000E+00  0.5242887E-04
  0.2777778E+00  0.0000000E+00  0.3535353E-01  0.1164821E-04  0.0000000E+00  0.5569576E-04
  0.2878788E+00  0.0000000E+00  0.3535353E-01  0.1242225E-04  0.0000000E+00  0.5918078E-04
  0.2979798E+00  0.0000000E+00  0.3535353E-01  0.1324515E-04  0.0000000E+00  0.6289764E-04