title = "dataset water"
variables = "x", "y", "z", "h_w", "p_w", "s_w", "theta_w", "transp", "evap", "transp2", "transp_tot"
zone t = "Flow variables, solution time =  4.900E+01 days        " i =  100, j =  100, k =    1,  f=point
  0.0000000E+00  0.0000000E+00  0.0000000E+00 -0.1000000E+02 -0.1000000E+02  0.4298033E+00  0.1839558E+00  0.0000000E+00  0.0000000E+00  0.0000000E+00  0.0000000E+00
  0.1010101E-01  0.0000000E+00  0.0000000E+00 -0.1000000E+02 -0.1000000E+02  0.4298033E+00  0.1839558E+00  0.0000000E+00  0.0000000E+00  0.0000000E+00  0.0000000E+00
  0.2020202E-01  0.0000000E+00  0.0000000E+00 -0.1000000E+02 -0.1000000E+02  0.4298033E+00  0.1839558E+00  0.0000000E+00  0.0000000E+00  0.0000000E+00  0.0000000E+00
  0.3030303E-01  0.0000000E+00  0.0000000E+00 -0.1000000E+02 -0.1000000E+02  0.4298033E+00  0.1839558E+00  0.0000000E+00  0.0000000E+00  0.0000000E+00  0.0000000E+00
  0.4040404E-01  0.0000000E+00  0.0000000E+00 -0.1000000E+02 -0.1000000E+02  0.4298033E+00  0.1839558E+00  0.0000000E+00  0.0000000E+00  0.0000000E+00  0.0000000E+00
  0.5050505E-01  0.0000000E+00  0.0000000E+00 -0.1000000E+02 -0.1000000E+02  0.4298033E+00  0.1839558E+00  0.0000000E+00  0.0000000E+00  0.0000000E+00  0.0000000E+00
  0.6060606E-01  0.0000000E+00  0.0000000E+00 -0.1000000E+02 -0.1000000E+02  0.4298033E+00  0.1839558E+00  0.0000000E+00  0.0000000E+00  0.0000000E+00  0.0000000E+00
  0.7070707E-01  0.0000000E+00  0.0000000E+00 -0.1000000E+02 -0.1000000E+02  0.4298033E+00  0.1839558E+00  0.0000000E+00  0.0000000E+00  0.0000000E+00  0.0000000E+00
  0.8080808E-01  0.0000000E+00  0.0000000E+00 -0.1000000E+02 -0.1000000E+02  0.4298033E+00  0.1839558E+00  0.0000000E+00  0.0000000E+00  0.0000000E+00  0.0000000E+00
  0.9090909E-01  0.0000000E+00  0.0000000E+00 -0.1000000E+02 -0.1000000E+02  0.4298033E+00  0.1839558E+00  0.0000000E+00  0.0000000E+00  0.0000000E+00  0.0000000E+00
  0.1010101E+00  0.0000000E+00  0.0000000E+00 -0.1000000E+02 -0.1000000E+02  0.4298033E+00  0.1839558E+00  0.0000000E+00  0.0000000E+00  0.0000000E+00  0.0000000E+00
  0.1111111E+00  0.0000000E+00  0.0000000E+00 -0.1000000E+02 -0.1000000E+02  0.4298033E+00  0.1839558E+00  0.0000000E+00  0.0000000E+00  0.0000000E+00  0.0000000E+00
  0.1212121E+00  0.0000000E+00  0.0000000E+00 -0.1000000E+02 -0.1000000E+02  0.4298033E+00  0.1839558E+00  0.0000000E+00  0.0000000E+00  0.0000000E+00  0.0000000E+00
  0.1313131E+00  0.0000000E+00  0.0000000E+00 -0.1000000E+02 -0.1000000E+02  0.4298033E+00  0.1839558E+00  0.0000000E+00  0.0000000E+00  0.0000000E+00  0.0000000E+00
  0.1414141E+00  0.0000000E+00  0.0000000E+00 -0.1000000E+02 -0.1000000E+02  0.4298033E+00  0.1839558E+00  0.0000000E+00  0.0000000E+00  0.0000000E+00  0.0000000E+00
  0.1515152E+00  0.0000000E+00  0.0000000E+00 -0.1000000E+02 -0.1000000E+02  0.4298033E+00  0.1839558E+00  0.0000000E+00  0.0000000E+00  0.0000000E+00  0.0000000E+00
  0.1616162E+00  0.0000000E+00  0.0000000E+00 -0.1000000E+02 -0.1000000E+02  0.4298033E+00  0.1839558E+00  0.0000000E+00  0.0000000E+00  0.0000000E+00  0.0000000E+00
  0.1717172E+00  0.0000000E+00  0.0000000E+00 -0.1000000E+02 -0.1000000E+02  0.4298033E+00  0.1839558E+00  0.0000000E+00  0.0000000E+00  0.0000000E+00  0.0000000E+00
  0.1818182E+00  0.0000000E+00  0.0000000E+00 -0.1000000E+02 -0.1000000E+02  0.4298033E+00  0.1839558E+00  0.0000000E+00  0.0000000E+00  0.0000000E+00  0.0000000E+00
  0.1919192E+00  0.0000000E+00  0.0000000E+00 -0.1000000E+02 -0.1000000E+02  0.4298033E+00  0.1839558E+00  0.0000000E+00  0.0000000E+00  0.0000000E+00  0.0000000E+00
  0.2020202E+00  0.0000000E+00  0.0000000E+00 -0.1000000E+02 -0.1000000E+02  0.4298033E+00  0.1839558E+00  0.0000000E+00  0.0000000E+00  0.0000000E+00  0.0000000E+00
  0.2121212E+00  0.0000000E+00  0.0000000E+00 -0.1000000E+02 -0.1000000E+02  0.4298033E+00  0.1839558E+00  0.0000000E+00  0.0000000E+00  0.0000000E+00  0.0000000E+00
  0.2222222E+00  0.0000000E+00  0.0000000E+00 -0.1000000E+02 -0.1000000E+02  0.4298033E+00  0.1839558E+00  0.0000000E+00  0.0000000E+00  0.0000000E+00  0.0000000E+00
  0.2323232E+00  0.0000000E+00  0.0000000E+00 -0.1000000E+02 -0.1000000E+02  0.4298033E+00  0.1839558E+00  0.0000000E+00  0.0000000E+00  0.0000000E+00  0.0000000E+00
  0.2424242E+00  0.0000000E+00  0.0000000E+00 -0.1000000E+02 -0.1000000E+02  0.4298033E+00  0.1839558E+00  0.0000000E+00  0.0000000E+00  0.0000000E+00  0.0000000E+00
  0.2525253E+00  0.0000000E+00  0.0000000E+00 -0.1000000E+02 -0.1000000E+02  0.4298033E+00  0.1839558E+00  0.0000000E+00  0.0000000E+00  0.0000000E+00  0.0000000E+00
  0.2626263E+00  0.0000000E+00  0.0000000E+00 -0.1000000E+02 -0.1000000E+02  0.4298033E+00  0.1839558E+00  0.0000000E+00  0.0000000E+00  0.0000000E+00  0.0000000E+00
  0.2727273E+00  0.0000000E+00  0.0000000E+00 -0.1000000E+02 -0.1000000E+02  0.4298033E+00  0.1839558E+00  0.0000000E+00  0.0000000E+00  0.0000000E+00  0.0000000E+00
  0.2828283E+00  0.0000000E+00  0.0000000E+00 -0.1000000E+02 -0.1000000E+02  0.4298033E+00  0.1839558E+00  0.0000000E+00  0.0000000E+00  0.0000000E+00  0.0000000E+00
  0.2929293E+00  0.0000000E+00  0.0000000E+00 -0.1000000E+02 -0.1000000E+02  0.4298033E+00  0.1839558E+00  0.0000000E+00  0.0000000E+00  0.0000000E+00  0.0000000E+00
  0.3030303E+00  0.0000000E+00  0.0000000E+00 -0.1000000E+02 -0.1000000E+02  0.4298033E+00  0.1839558E+00  0.0000000E+00  0.0000000E+00  0.0000000E+00  0.0000000E+00
  0.3131313E+00  0.0000000E+00  0.0000000E+00 -0.1000000E+02 -0.1000000E+02  0.4298033E+00  0.1839558E+00  0.0000000E+00  0.0000000E+00  0.0000000E+00  0.0000000E+00
  0.3232323E+00  0.0000000E+00  0.0000000E+00 -0.1000000E+02 -0.1000000E+02  0.4298033E+00  0.1839558E+00  0.0000000E+00  0.0000000E+00  0.0000000E+00  0.0000000E+00
  0.3333333E+00  0.0000000E+00  0.0000000E+00 -0.1000000E+02 -0.1000000E+02  0.4298033E+00  0.1839558E+00  0.0000000E+00  0.0000000E+00  0.0000000E+00  0.0000000E+00
  0.3434343E+00  0.0000000E+00  0.0000000E+00 -0.1000000E+02 -0.1000000E+02  0.4298033E+00  0.1839558E+00  0.0000000E+00  0.0000000E+00  0.0000000E+00  0.0000000E+00
  0.3535354E+00  0.0000000E+00  0.0000000E+00 -0.1000000E+02 -0.1000000E+02  0.4298033E+00  0.1839558E+00  0.0000000E+00  0.0000000E+00  0.0000000E+00  0.0000000E+00
  0.3636364E+00  0.0000000E+00  0.0000000E+00 -0.1000000E+02 -0.1000000E+02  0.4298033E+00  0.1839558E+00  0.0000000E+00  0.0000000E+00  0.0000000E+00  0.0000000E+00
  0.3737374E+00  0.0000000E+00  0.0000000E+00 -0.1000000E+02 -0.1000000E+02  0.4298033E+00  0.1839558E+00  0.0000000E+00  0.0000000E+00  0.0000000E+00  0.0000000E+00
  0.3838384E+00  0.0000000E+00  0.0000000E+00 -0.1000000E+02 -0.1000000E+02  0.4298033E+00  0.1839558E+00  0.0000000E+00  0.0000000E+00  0.0000000E+00  0.0000000E+00
  0.3939394E+00  0.0000000E+00  0.0000000E+00 -0.1000000E+02 -0.1000000E+02  0.4298033E+00  0.1839558E+00  0.0000000E+00  0.0000000E+00  0.0000000E+00  0.0000000E+00
  0.4040404E+00  0.0000000E+00  0.0000000E+00 -0.1000000E+02 -0.1000000E+02  0.4298033E+00  0.1839558E+00  0.0000000E+00  0.0000000E+00  0.0000000E+00  0.0000000E+00
  0.4141414E+00  0.0000000E+00  0.0000000E+00 -0.1000000E+02 -0.1000000E+02  0.4298033E+00  0.1839558E+00  0.0000000E+00  0.0000000E+00  0.0000000E+00  0.0000000E+00
  0.4242424E+00  0.0000000E+00  0.0000000E+00 -0.1000000E+02 -0.1000000E+02  0.4298033E+00  0.1839558E+00  0.0000000E+00  0.0000000E+00  0.0000000E+00  0.0000000E+00
  0.4343434E+00  0.0000000E+00  0.0000000E+00 -0.1000000E+02 -0.1000000E+02  0.4298033E+00  0.1839558E+00  0.0000000E+00  0.0000000E+00  0.0000000E+00  0.0000000E+00
  0.4444444E+00  0.0000000E+00  0.0000000E+00 -0.1000000E+02 -0.1000000E+02  0.4298033E+00  0.1839558E+00  0.0000000E+00  0.0000000E+00  0.0000000E+00  0.0000000E+00
  0.4545455E+00  0.0000000E+00  0.0000000E+00 -0.1000000E+02 -0.1000000E+02  0.4298033E+00  0.1839558E+00  0.0000000E+00  0.0000000E+00  0.0000000E+00  0.0000000E+00
  0.4646465E+00  0.0000000E+00  0.0000000E+00 -0.1000000E+02 -0.1000000E+02  0.4298033E+00  0.1839558E+00  0.0000000E+00  0.0000000E+00  0.0000000E+00  0.0000000E+00
  0.4747475E+00  0.0000000E+00  0.0000000E+00 -0.1000000E+02 -0.1000000E+02  0.4298033E+00  0.1839558E+00  0.0000000E+00  0.0000000E+00  0.0000000E+00  0.0000000E+00
  0.4848485E+00  0.0000000E+00  0.0000000E+00 -0.1000000E+02 -0.1000000E+02  0.4298033E+00  0.1839558E+00  0.0000000E+00  0.0000000E+00  0.0000000E+00  0.0000000E+00
  0.4949495E+00  0.0000000E+00  0.0000000E+00 -0.1000000E+02 -0.1000000E+02  0.4298033E+00  0.1839558E+00  0.0000000E+00  0.0000000E+00  0.0000000E+00  0.0000000E+00
  0.5050505E+00  0.0000000E+00  0.0000000E+00 -0.1000000E+02 -0.1000000E+02  0.4298033E+00  0.1839558E+00  0.0000000E+00  0.0000000E+00  0.0000000E+00  0.0000000E+00
  0.5151515E+00  0.0000000E+00  0.0000000E+00 -0.1000000E+02 -0.1000000E+02  0.4298033E+00  0.1839558E+00  0.0000000E+00  0.0000000E+00  0.0000000E+00  0.0000000E+00
  0.5252525E+00  0.0000000E+00  0.0000000E+00 -0.1000000E+02 -0.1000000E+02  0.4298033E+00  0.1839558E+00  0.0000000E+00  0.0000000E+00  0.0000000E+00  0.0000000E+00
  0.5353535E+00  0.0000000E+00  0.0000000E+00 -0.1000000E+02 -0.1000000E+02  0.4298033E+00  0.1839558E+00  0.0000000E+00  0.0000000E+00  0.0000000E+00  0.0000000E+00
  0.5454545E+00  0.0000000E+00  0.0000000E+00 -0.1000000E+02 -0.1000000E+02  0.4298033E+00  0.1839558E+00  0.0000000E+00  0.0000000E+00  0.7884337E-11  0.7884337E-11
  0.5555556E+00  0.0000000E+00  0.0000000E+00 -0.1000000E+02 -0.1000000E+02  0.4298033E+00  0.1839558E+00  0.0000000E+00  0.0000000E+00  0.1324799E-10  0.1324799E-10
  0.5656566E+00  0.0000000E+00  0.0000000E+00 -0.1000000E+02 -0.1000000E+02  0.4298033E+00  0.1839558E+00  0.0000000E+00  0.0000000E+00  0.7810746E-11  0.7810746E-11
  0.5757576E+00  0.0000000E+00  0.0000000E+00 -0.1000000E+02 -0.1000000E+02  0.4298033E+00  0.1839558E+00  0.0000000E+00  0.0000000E+00  0.3009196E-10  0.3009196E-10
  0.5858586E+00  0.0000000E+00  0.0000000E+00 -0.1000000E+02 -0.1000000E+02  0.4298033E+00  0.1839558E+00  0.0000000E+00  0.0000000E+00  0.0000000E+00  0.0000000E+00
  0.5959596E+00  0.0000000E+00  0.0000000E+00 -0.1000000E+02 -0.1000000E+02  0.4298033E+00  0.1839558E+00  0.0000000E+00  0.0000000E+00  0.0000000E+00  0.0000000E+00
  0.6060606E+00  0.0000000E+00  0.0000000E+00 -0.1000000E+02 -0.1000000E+02  0.4298033E+00  0.1839558E+00  0.0000000E+00  0.0000000E+00  0.0000000E+00  0.0000000E+00
  0.6161616E+00  0.0000000E+00  0.0000000E+00 -0.1000000E+02 -0.1000000E+02  0.4298033E+00  0.1839558E+00  0.0000000E+00  0.0000000E+00  0.0000000E+00  0.0000000E+00
  0.6262626E+00  0.0000000E+00  0.0000000E+00 -0.1000000E+02 -0.1000000E+02  0.4298033E+00  0.1839558E+00  0.0000000E+00  0.0000000E+00  0.0000000E+00  0.0000000E+00
  0.6363636E+00  0.0000000E+00  0.0000000E+00 -0.1000000E+02 -0.1000000E+02  0.4298033E+00  0.1839558E+00  0.0000000E+00  0.0000000E+00  0.0000000E+00  0.0000000E+00
  0.6464646E+00  0.0000000E+00  0.0000000E+00 -0.1000000E+02 -0.1000000E+02  0.4298033E+00  0.1839558E+00  0.0000000E+00  0.0000000E+00  0.0000000E+00  0.0000000E+00
  0.6565657E+00  0.0000000E+00  0.0000000E+00 -0.1000000E+02 -0.1000000E+02  0.4298033E+00  0.1839558E+00  0.0000000E+00  0.0000000E+00  0.0000000E+00  0.0000000E+00
  0.6666667E+00  0.0000000E+00  0.0000000E+00 -0.1000000E+02 -0.1000000E+02  0.4298033E+00  0.1839558E+00  0.0000000E+00  0.0000000E+00  0.0000000E+00  0.0000000E+00
  0.6767677E+00  0.0000000E+00  0.0000000E+00 -0.1000000E+02 -0.1000000E+02  0.4298033E+00  0.1839558E+00  0.0000000E+00  0.0000000E+00  0.0000000E+00  0.0000000E+00
  0.6868687E+00  0.0000000E+00  0.0000000E+00 -0.1000000E+02 -0.1000000E+02  0.4298033E+00  0.1839558E+00  0.0000000E+00  0.0000000E+00  0.0000000E+00  0.0000000E+00
  0.6969697E+00  0.0000000E+00  0.0000000E+00 -0.1000000E+02 -0.1000000E+02  0.4298033E+00  0.1839558E+00  0.0000000E+00  0.0000000E+00  0.0000000E+00  0.0000000E+00
  0.7070707E+00  0.0000000E+00  0.0000000E+00 -0.1000000E+02 -0.1000000E+02  0.4298033E+00  0.1839558E+00  0.0000000E+00  0.0000000E+00  0.0000000E+00  0.0000000E+00
  0.7171717E+00  0.0000000E+00  0.0000000E+00 -0.1000000E+02 -0.1000000E+02  0.4298033E+00  0.1839558E+00  0.0000000E+00  0.0000000E+00  0.0000000E+00  0.0000000E+00
  0.7272727E+00  0.0000000E+00  0.0000000E+00 -0.1000000E+02 -0.1000000E+02  0.4298033E+00  0.1839558E+00  0.0000000E+00  0.0000000E+00  0.0000000E+00  0.0000000E+00
  0.7373737E+00  0.0000000E+00  0.0000000E+00 -0.1000000E+02 -0.1000000E+02  0.4298033E+00  0.1839558E+00  0.0000000E+00  0.0000000E+00  0.0000000E+00  0.0000000E+00
  0.7474747E+00  0.0000000E+00  0.0000000E+00 -0.1000000E+02 -0.1000000E+02  0.4298033E+00  0.1839558E+00  0.0000000E+00  0.0000000E+00  0.0000000E+00  0.0000000E+00
  0.7575758E+00  0.0000000E+00  0.0000000E+00 -0.1000000E+02 -0.1000000E+02  0.4298033E+00  0.1839558E+00  0.0000000E+00  0.0000000E+00  0.0000000E+00  0.0000000E+00
  0.7676768E+00  0.0000000E+00  0.0000000E+00 -0.1000000E+02 -0.1000000E+02  0.4298033E+00  0.1839558E+00  0.0000000E+00  0.0000000E+00  0.0000000E+00  0.0000000E+00
  0.7777778E+00  0.0000000E+00  0.0000000E+00 -0.1000000E+02 -0.1000000E+02  0.4298033E+00  0.1839558E+00  0.0000000E+00  0.0000000E+00  0.0000000E+00  0.0000000E+00
  0.7878788E+00  0.0000000E+00  0.0000000E+00 -0.1000000E+02 -0.1000000E+02  0.4298033E+00  0.1839558E+00  0.0000000E+00  0.0000000E+00  0.0000000E+00  0.0000000E+00
  0.7979798E+00  0.0000000E+00  0.0000000E+00 -0.1000000E+02 -0.1000000E+02  0.4298033E+00  0.1839558E+00  0.0000000E+00  0.0000000E+00  0.0000000E+00  0.0000000E+00
  0.8080808E+00  0.0000000E+00  0.0000000E+00 -0.1000000E+02 -0.1000000E+02  0.4298033E+00  0.1839558E+00  0.0000000E+00  0.0000000E+00  0.0000000E+00  0.0000000E+00
  0.8181818E+00  0.0000000E+00  0.0000000E+00 -0.1000000E+02 -0.1000000E+02  0.4298033E+00  0.1839558E+00  0.0000000E+00  0.0000000E+00  0.0000000E+00  0.0000000E+00
  0.8282828E+00  0.0000000E+00  0.0000000E+00 -0.1000000E+02 -0.1000000E+02  0.4298033E+00  0.1839558E+00  0.0000000E+00  0.0000000E+00  0.0000000E+00  0.0000000E+00
  0.8383838E+00  0.0000000E+00  0.0000000E+00 -0.1000000E+02 -0.1000000E+02  0.4298033E+00  0.1839558E+00  0.0000000E+00  0.0000000E+00  0.0000000E+00  0.0000000E+00
  0.8484848E+00  0.0000000E+00  0.0000000E+00 -0.1000000E+02 -0.1000000E+02  0.4298033E+00  0.1839558E+00  0.0000000E+00  0.0000000E+00  0.0000000E+00  0.0000000E+00
  0.8585859E+00  0.0000000E+00  0.0000000E+00 -0.1000000E+02 -0.1000000E+02  0.4298033E+00  0.1839558E+00  0.0000000E+00  0.0000000E+00  0.0000000E+00  0.0000000E+00
  0.8686869E+00  0.0000000E+00  0.0000000E+00 -0.1000000E+02 -0.1000000E+02  0.4298033E+00  0.1839558E+00  0.0000000E+00  0.0000000E+00  0.0000000E+00  0.0000000E+00
  0.8787879E+00  0.0000000E+00  0.0000000E+00 -0.1000000E+02 -0.1000000E+02  0.4298033E+00  0.1839558E+00  0.0000000E+00  0.0000000E+00  0.0000000E+00  0.0000000E+00
  0.8888889E+00  0.0000000E+00  0.0000000E+00 -0.1000000E+02 -0.1000000E+02  0.4298033E+00  0.1839558E+00  0.0000000E+00  0.0000000E+00  0.0000000E+00  0.0000000E+00
  0.8989899E+00  0.0000000E+00  0.0000000E+00 -0.1000000E+02 -0.1000000E+02  0.4298033E+00  0.1839558E+00  0.0000000E+00  0.0000000E+00  0.0000000E+00  0.0000000E+00
  0.9090909E+00  0.0000000E+00  0.0000000E+00 -0.1000000E+02 -0.1000000E+02  0.4298033E+00  0.1839558E+00  0.0000000E+00  0.0000000E+00  0.0000000E+00  0.0000000E+00
  0.9191919E+00  0.0000000E+00  0.0000000E+00 -0.1000000E+02 -0.1000000E+02  0.4298033E+00  0.1839558E+00  0.0000000E+00  0.0000000E+00  0.0000000E+00  0.0000000E+00
  0.9292929E+00  0.0000000E+00  0.0000000E+00 -0.1000000E+02 -0.1000000E+02  0.4298033E+00  0.1839558E+00  0.0000000E+00  0.0000000E+00  0.0000000E+00  0.0000000E+00
  0.9393939E+00  0.0000000E+00  0.0000000E+00 -0.1000000E+02 -0.1000000E+02  0.4298033E+00  0.1839558E+00  0.0000000E+00  0.0000000E+00  0.0000000E+00  0.0000000E+00
  0.9494949E+00  0.0000000E+00  0.0000000E+00 -0.1000000E+02 -0.1000000E+02  0.4298033E+00  0.1839558E+00  0.0000000E+00  0.0000000E+00  0.0000000E+00  0.0000000E+00
  0.9595960E+00  0.0000000E+00  0.0000000E+00 -0.1000000E+02 -0.1000000E+02  0.4298033E+00  0.1839558E+00  0.0000000E+00  0.0000000E+00  0.0000000E+00  0.0000000E+00
  0.9696970E+00  0.0000000E+00  0.0000000E+00 -0.1000000E+02 -0.1000000E+02  0.4298033E+00  0.1839558E+00  0.0000000E+00  0.0000000E+00  0.0000000E+00  0.0000000E+00
  0.9797980E+00  0.0000000E+00  0.0000000E+00 -0.1000000E+02 -0.1000000E+02  0.4298033E+00  0.1839558E+00  0.0000000E+00  0.0000000E+00  0.0000000E+00  0.0000000E+00
  0.9898990E+00  0.0000000E+00  0.0000000E+00 -0.1000000E+02 -0.1000000E+02  0.4298033E+00  0.1839558E+00  0.0000000E+00  0.0000000E+00  0.0000000E+00  0.0000000E+00
  0.1000000E+01  0.0000000E+00  0.0000000E+00 -0.1000000E+02 -0.1000000E+02  0.4298033E+00  0.1839558E+00  0.0000000E+00  0.0000000E+00  0.0000000E+00  0.0000000E+00
  0.0000000E+00  0.0000000E+00  0.1010101E-01 -0.1003150E+02 -0.1004160E+02  0.4292568E+00  0.1837219E+00  0.0000000E+00  0.0000000E+00  0.0000000E+00  0.0000000E+00
  0.1010101E-01  0.0000000E+00  0.1010101E-01 -0.1003155E+02 -0.1004165E+02  0.4292562E+00  0.1837217E+00  0.0000000E+00  0.0000000E+00  0.0000000E+00  0.0000000E+00
  0.2020202E-01  0.0000000E+00  0.1010101E-01 -0.1003169E+02 -0.1004179E+02  0.4292544E+00  0.1837209E+00  0.0000000E+00  0.0000000E+00  0.0000000E+00  0.0000000E+00
  0.3030303E-01  0.0000000E+00  0.1010101E-01 -0.1003193E+02 -0.1004203E+02  0.4292513E+00  0.1837195E+00  0.0000000E+00  0.0000000E+00  0.0000000E+00  0.0000000E+00
  0.4040404E-01  0.0000000E+00  0.1010101E-01 -0.1003226E+02 -0.1004236E+02  0.4292469E+00  0.1837177E+00  0.0000000E+00  0.0000000E+00  0.0000000E+00  0.0000000E+00
  0.5050505E-01  0.0000000E+00  0.1010101E-01 -0.1003269E+02 -0.1004279E+02  0.4292413E+00  0.1837153E+00  0.0000000E+00  0.0000000E+00  0.0000000E+00  0.0000000E+00
  0.6060606E-01  0.0000000E+00  0.1010101E-01 -0.1003322E+02 -0.1004332E+02  0.4292344E+00  0.1837123E+00  0.0000000E+00  0.0000000E+00  0.0000000E+00  0.0000000E+00
  0.7070707E-01  0.0000000E+00  0.1010101E-01 -0.1003384E+02 -0.1004394E+02  0.4292262E+00  0.1837088E+00  0.0000000E+00  0.0000000E+00  0.0000000E+00  0.0000000E+00
  0.8080808E-01  0.0000000E+00  0.1010101E-01 -0.1003457E+02 -0.1004467E+02  0.4292167E+00  0.1837047E+00  0.0000000E+00  0.0000000E+00  0.0000000E+00  0.0000000E+00
  0.9090909E-01  0.0000000E+00  0.1010101E-01 -0.1003540E+02 -0.1004550E+02  0.4292058E+00  0.1837001E+00  0.0000000E+00  0.0000000E+00  0.0000000E+00  0.0000000E+00
  0.1010101E+00  0.0000000E+00  0.1010101E-01 -0.1003634E+02 -0.1004644E+02  0.4291935E+00  0.1836948E+00  0.0000000E+00  0.0000000E+00  0.0000000E+00  0.0000000E+00
  0.1111111E+00  0.0000000E+00  0.1010101E-01 -0.1003739E+02 -0.1004749E+02  0.4291797E+00  0.1836889E+00  0.0000000E+00  0.0000000E+00  0.0000000E+00  0.0000000E+00
  0.1212121E+00  0.0000000E+00  0.1010101E-01 -0.1003856E+02 -0.1004866E+02  0.4291645E+00  0.1836824E+00  0.0000000E+00  0.0000000E+00  0.0000000E+00  0.0000000E+00
  0.1313131E+00  0.0000000E+00  0.1010101E-01 -0.1003984E+02 -0.1004994E+02  0.4291478E+00  0.1836752E+00  0.0000000E+00  0.0000000E+00  0.0000000E+00  0.0000000E+00
  0.1414141E+00  0.0000000E+00  0.1010101E-01 -0.1004124E+02 -0.1005134E+02  0.4291294E+00  0.1836674E+00  0.0000000E+00  0.0000000E+00  0.0000000E+00  0.0000000E+00
  0.1515152E+00  0.0000000E+00  0.1010101E-01 -0.1004277E+02 -0.1005287E+02  0.4291094E+00  0.1836588E+00  0.0000000E+00  0.0000000E+00  0.0000000E+00  0.0000000E+00
  0.1616162E+00  0.0000000E+00  0.1010101E-01 -0.1004444E+02 -0.1005454E+02  0.4290876E+00  0.1836495E+00  0.0000000E+00  0.0000000E+00  0.0000000E+00  0.0000000E+00
  0.1717172E+00  0.0000000E+00  0.1010101E-01 -0.1004624E+02 -0.1005634E+02  0.4290640E+00  0.1836394E+00  0.0000000E+00  0.0000000E+00  0.0000000E+00  0.0000000E+00
  0.1818182E+00  0.0000000E+00  0.1010101E-01 -0.1004819E+02 -0.1005829E+02  0.4290385E+00  0.1836285E+00  0.0000000E+00  0.0000000E+00  0.0000000E+00  0.0000000E+00
  0.1919192E+00  0.0000000E+00  0.1010101E-01 -0.1005030E+02 -0.1006040E+02  0.4290110E+00  0.1836167E+00  0.0000000E+00  0.0000000E+00  0.0000000E+00  0.0000000E+00
  0.2020202E+00  0.0000000E+00  0.1010101E-01 -0.1005257E+02 -0.1006267E+02  0.4289813E+00  0.1836040E+00  0.0000000E+00  0.0000000E+00  0.0000000E+00  0.0000000E+00
  0.2121212E+00  0.0000000E+00  0.1010101E-01 -0.1005501E+02 -0.1006512E+02  0.4289494E+00  0.1835903E+00  0.0000000E+00  0.0000000E+00  0.0000000E+00  0.0000000E+00
  0.2222222E+00  0.0000000E+00  0.1010101E-01 -0.1005764E+02 -0.1006775E+02  0.4289150E+00  0.1835756E+00  0.0000000E+00  0.0000000E+00  0.0000000E+00  0.0000000E+00
  0.2323232E+00  0.0000000E+00  0.1010101E-01 -0.1006047E+02 -0.1007057E+02  0.4288781E+00  0.1835598E+00  0.0000000E+00  0.0000000E+00  0.0000000E+00  0.0000000E+00
  0.2424242E+00  0.0000000E+00  0.1010101E-01 -0.1006352E+02 -0.1007362E+02  0.4288385E+00  0.1835429E+00  0.0000000E+00  0.0000000E+00  0.0000000E+00  0.0000000E+00
  0.2525253E+00  0.0000000E+00  0.1010101E-01 -0.1006679E+02 -0.1007689E+02  0.4287958E+00  0.1835246E+00  0.0000000E+00  0.0000000E+00  0.0000000E+00  0.0000000E+00
  0.2626263E+00  0.0000000E+00  0.1010101E-01 -0.1007030E+02 -0.1008040E+02  0.4287500E+00  0.1835050E+00  0.0000000E+00  0.0000000E+00  0.0000000E+00  0.0000000E+00
  0.2727273E+00  0.0000000E+00  0.1010101E-01 -0.1007408E+02 -0.1008419E+02  0.4287007E+00  0.1834839E+00  0.0000000E+00  0.0000000E+00  0.0000000E+00  0.0000000E+00
  0.2828283E+00  0.0000000E+00  0.1010101E-01 -0.1007816E+02 -0.1008826E+02  0.4286477E+00  0.1834612E+00  0.0000000E+00  0.0000000E+00  0.0000000E+00  0.0000000E+00
  0.2929293E+00  0.0000000E+00  0.1010101E-01 -0.1008255E+02 -0.1009265E+02  0.4285905E+00  0.1834367E+00  0.0000000E+00  0.0000000E+00  0.0000000E+00  0.0000000E+00
  0.3030303E+00  0.0000000E+00  0.1010101E-01 -0.1008729E+02 -0.1009739E+02  0.4285289E+00  0.1834104E+00  0.0000000E+00  0.0000000E+00  0.0000000E+00  0.0000000E+00
  0.3131313E+00  0.0000000E+00  0.1010101E-01 -0.1009241E+02 -0.1010251E+02  0.4284624E+00  0.1833819E+00  0.0000000E+00  0.0000000E+00  0.0000000E+00  0.0000000E+00
  0.3232323E+00  0.0000000E+00  0.1010101E-01 -0.1009795E+02 -0.1010805E+02  0.4283904E+00  0.1833511E+00  0.0000000E+00  0.0000000E+00  0.0000000E+00  0.0000000E+00
  0.3333333E+00  0.0000000E+00  0.1010101E-01 -0.1010396E+02 -0.1011407E+02  0.4283123E+00  0.1833177E+00  0.0000000E+00  0.0000000E+00  0.0000000E+00  0.0000000E+00
  0.3434343E+00  0.0000000E+00  0.1010101E-01 -0.1011050E+02 -0.1012060E+02  0.4282275E+00  0.1832814E+00  0.0000000E+00  0.0000000E+00  0.0000000E+00  0.0000000E+00
  0.3535354E+00  0.0000000E+00  0.1010101E-01 -0.1011763E+02 -0.1012773E+02  0.4281352E+00  0.1832419E+00  0.0000000E+00  0.0000000E+00  0.0000000E+00  0.0000000E+00
  0.3636364E+00  0.0000000E+00  0.1010101E-01 -0.1012542E+02 -0.1013552E+02  0.4280344E+00  0.1831987E+00  0.0000000E+00  0.0000000E+00  0.0000000E+00  0.0000000E+00
  0.3737374E+00  0.0000000E+00  0.1010101E-01 -0.1013395E+02 -0.1014405E+02  0.4279240E+00  0.1831515E+00  0.0000000E+00  0.0000000E+00  0.0000000E+00  0.0000000E+00
  0.3838384E+00  0.0000000E+00  0.1010101E-01 -0.1014333E+02 -0.1015343E+02  0.4278029E+00  0.1830996E+00  0.0000000E+00  0.0000000E+00  0.0000000E+00  0.0000000E+00
  0.3939394E+00  0.0000000E+00  0.1010101E-01 -0.1015368E+02 -0.1016378E+02  0.4276695E+00  0.1830425E+00  0.0000000E+00  0.0000000E+00  0.0000000E+00  0.0000000E+00
  0.4040404E+00  0.0000000E+00  0.1010101E-01 -0.1016511E+02 -0.1017521E+02  0.4275222E+00  0.1829795E+00  0.0000000E+00  0.0000000E+00  0.0000000E+00  0.0000000E+00
  0.4141414E+00  0.0000000E+00  0.1010101E-01 -0.1017777E+02 -0.1018787E+02  0.4273595E+00  0.1829098E+00  0.0000000E+00  0.0000000E+00  0.0000000E+00  0.0000000E+00
  0.4242424E+00  0.0000000E+00  0.1010101E-01 -0.1019180E+02 -0.1020190E+02  0.4271793E+00  0.1828328E+00  0.0000000E+00  0.0000000E+00  0.0000000E+00  0.0000000E+00
  0.4343434E+00  0.0000000E+00  0.1010101E-01 -0.1020734E+02 -0.1021744E+02  0.4269803E+00  0.1827476E+00  0.0000000E+00  0.0000000E+00  0.0000000E+00  0.0000000E+00
  0.4444444E+00  0.0000000E+00  0.1010101E-01 -0.1022449E+02 -0.1023459E+02  0.4267609E+00  0.1826537E+00  0.0000000E+00  0.0000000E+00  0.0000000E+00  0.0000000E+00
  0.4545455E+00  0.0000000E+00  0.1010101E-01 -0.1024331E+02 -0.1025342E+02  0.4265208E+00  0.1825509E+00  0.0000000E+00  0.0000000E+00  0.0000000E+00  0.0000000E+00
  0.4646465E+00  0.0000000E+00  0.1010101E-01 -0.1026379E+02 -0.1027390E+02  0.4262603E+00  0.1824394E+00  0.0000000E+00  0.0000000E+00  0.0000000E+00  0.0000000E+00
  0.4747475E+00  0.0000000E+00  0.1010101E-01 -0.1028585E+02 -0.1029595E+02  0.4259804E+00  0.1823196E+00  0.0000000E+00  0.0000000E+00  0.0000000E+00  0.0000000E+00
  0.4848485E+00  0.0000000E+00  0.1010101E-01 -0.1030935E+02 -0.1031945E+02  0.4256831E+00  0.1821924E+00  0.0000000E+00  0.0000000E+00  0.0000000E+00  0.0000000E+00
  0.4949495E+00  0.0000000E+00  0.1010101E-01 -0.1033415E+02 -0.1034425E+02  0.4253704E+00  0.1820585E+00  0.0000000E+00  0.0000000E+00  0.0000000E+00  0.0000000E+00
  0.5050505E+00  0.0000000E+00  0.1010101E-01 -0.1036022E+02 -0.1037032E+02  0.4250426E+00  0.1819183E+00  0.0000000E+00  0.0000000E+00  0.0000000E+00  0.0000000E+00
  0.5151515E+00  0.0000000E+00  0.1010101E-01 -0.1038777E+02 -0.1039787E+02  0.4246975E+00  0.1817705E+00  0.0000000E+00  0.0000000E+00  0.0000000E+00  0.0000000E+00
  0.5252525E+00  0.0000000E+00  0.1010101E-01 -0.1041759E+02 -0.1042769E+02  0.4243253E+00  0.1816112E+00  0.0000000E+00  0.0000000E+00  0.0000000E+00  0.0000000E+00
  0.5353535E+00  0.0000000E+00  0.1010101E-01 -0.1045177E+02 -0.1046187E+02  0.4239004E+00  0.1814294E+00  0.0000000E+00  0.0000000E+00  0.0000000E+00  0.0000000E+00
  0.5454545E+00  0.0000000E+00  0.1010101E-01 -0.1049485E+02 -0.1050495E+02  0.4233675E+00  0.1812013E+00  0.0000000E+00  0.0000000E+00  0.0000000E+00  0.0000000E+00
  0.5555556E+00  0.0000000E+00  0.1010101E-01 -0.1055856E+02 -0.1056866E+02  0.4225847E+00  0.1808663E+00  0.0000000E+00  0.0000000E+00  0.9337114E-11  0.9337114E-11
  0.5656566E+00  0.0000000E+00  0.1010101E-01 -0.1064008E+02 -0.1065018E+02  0.4215921E+00  0.1804414E+00  0.0000000E+00  0.0000000E+00  0.4400065E-10  0.4400065E-10
  0.5757576E+00  0.0000000E+00  0.1010101E-01 -0.1063118E+02 -0.1064128E+02  0.4217000E+00  0.1804876E+00  0.0000000E+00  0.0000000E+00  0.6776342E-10  0.6776342E-10
  0.5858586E+00  0.0000000E+00  0.1010101E-01 -0.1051929E+02 -0.1052939E+02  0.4230665E+00  0.1810725E+00  0.0000000E+00  0.0000000E+00  0.0000000E+00  0.0000000E+00
  0.5959596E+00  0.0000000E+00  0.1010101E-01 -0.1045052E+02 -0.1046062E+02  0.4239159E+00  0.1814360E+00  0.0000000E+00  0.0000000E+00  0.0000000E+00  0.0000000E+00
  0.6060606E+00  0.0000000E+00  0.1010101E-01 -0.1040201E+02 -0.1041211E+02  0.4245195E+00  0.1816944E+00  0.0000000E+00  0.0000000E+00  0.0000000E+00  0.0000000E+00
  0.6161616E+00  0.0000000E+00  0.1010101E-01 -0.1036302E+02 -0.1037312E+02  0.4250075E+00  0.1819032E+00  0.0000000E+00  0.0000000E+00  0.0000000E+00  0.0000000E+00
  0.6262626E+00  0.0000000E+00  0.1010101E-01 -0.1033043E+02 -0.1034053E+02  0.4254172E+00  0.1820786E+00  0.0000000E+00  0.0000000E+00  0.0000000E+00  0.0000000E+00
  0.6363636E+00  0.0000000E+00  0.1010101E-01 -0.1030250E+02 -0.1031260E+02  0.4257697E+00  0.1822294E+00  0.0000000E+00  0.0000000E+00  0.0000000E+00  0.0000000E+00
  0.6464646E+00  0.0000000E+00  0.1010101E-01 -0.1027812E+02 -0.1028822E+02  0.4260784E+00  0.1823616E+00  0.0000000E+00  0.0000000E+00  0.0000000E+00  0.0000000E+00
  0.6565657E+00  0.0000000E+00  0.1010101E-01 -0.1025657E+02 -0.1026667E+02  0.4263521E+00  0.1824787E+00  0.0000000E+00  0.0000000E+00  0.0000000E+00  0.0000000E+00
  0.6666667E+00  0.0000000E+00  0.1010101E-01 -0.1023737E+02 -0.1024747E+02  0.4265966E+00  0.1825833E+00  0.0000000E+00  0.0000000E+00  0.0000000E+00  0.0000000E+00
  0.6767677E+00  0.0000000E+00  0.1010101E-01 -0.1022016E+02 -0.1023026E+02  0.4268163E+00  0.1826774E+00  0.0000000E+00  0.0000000E+00  0.0000000E+00  0.0000000E+00
  0.6868687E+00  0.0000000E+00  0.1010101E-01 -0.1020465E+02 -0.1021475E+02  0.4270147E+00  0.1827623E+00  0.0000000E+00  0.0000000E+00  0.0000000E+00  0.0000000E+00
  0.6969697E+00  0.0000000E+00  0.1010101E-01 -0.1019060E+02 -0.1020070E+02  0.4271947E+00  0.1828393E+00  0.0000000E+00  0.0000000E+00  0.0000000E+00  0.0000000E+00
  0.7070707E+00  0.0000000E+00  0.1010101E-01 -0.1017782E+02 -0.1018792E+02  0.4273588E+00  0.1829095E+00  0.0000000E+00  0.0000000E+00  0.0000000E+00  0.0000000E+00
  0.7171717E+00  0.0000000E+00  0.1010101E-01 -0.1016616E+02 -0.1017626E+02  0.4275087E+00  0.1829737E+00  0.0000000E+00  0.0000000E+00  0.0000000E+00  0.0000000E+00
  0.7272727E+00  0.0000000E+00  0.1010101E-01 -0.1015550E+02 -0.1016560E+02  0.4276460E+00  0.1830325E+00  0.0000000E+00  0.0000000E+00  0.0000000E+00  0.0000000E+00
  0.7373737E+00  0.0000000E+00  0.1010101E-01 -0.1014573E+02 -0.1015583E+02  0.4277720E+00  0.1830864E+00  0.0000000E+00  0.0000000E+00  0.0000000E+00  0.0000000E+00
  0.7474747E+00  0.0000000E+00  0.1010101E-01 -0.1013677E+02 -0.1014687E+02  0.4278876E+00  0.1831359E+00  0.0000000E+00  0.0000000E+00  0.0000000E+00  0.0000000E+00
  0.7575758E+00  0.0000000E+00  0.1010101E-01 -0.1012855E+02 -0.1013865E+02  0.4279939E+00  0.1831814E+00  0.0000000E+00  0.0000000E+00  0.0000000E+00  0.0000000E+00
  0.7676768E+00  0.0000000E+00  0.1010101E-01 -0.1012100E+02 -0.1013110E+02  0.4280916E+00  0.1832232E+00  0.0000000E+00  0.0000000E+00  0.0000000E+00  0.0000000E+00
  0.7777778E+00  0.0000000E+00  0.1010101E-01 -0.1011406E+02 -0.1012416E+02  0.4281814E+00  0.1832616E+00  0.0000000E+00  0.0000000E+00  0.0000000E+00  0.0000000E+00
  0.7878788E+00  0.0000000E+00  0.1010101E-01 -0.1010770E+02 -0.1011780E+02  0.4282639E+00  0.1832969E+00  0.0000000E+00  0.0000000E+00  0.0000000E+00  0.0000000E+00