title = "dataset water"
variables = "x", "y", "z", "vx", "vy", "vz"
zone t = "velocities, solution time =  5.400E+01 days        " i =   99, j =   99, k =    1,  f=point
  0.5050505E-02  0.0000000E+00  0.5050505E-02  0.7285480E-07  0.0000000E+00  0.1137551E-03
  0.1515152E-01  0.0000000E+00  0.5050505E-02  0.2187907E-06  0.0000000E+00  0.1140517E-03
  0.2525252E-01  0.0000000E+00  0.5050505E-02  0.3654122E-06  0.0000000E+00  0.1146458E-03
  0.3535353E-01  0.0000000E+00  0.5050505E-02  0.5131888E-06  0.0000000E+00  0.1155394E-03
  0.4545455E-01  0.0000000E+00  0.5050505E-02  0.6626026E-06  0.0000000E+00  0.1167354E-03
  0.5555556E-01  0.0000000E+00  0.5050505E-02  0.8141521E-06  0.0000000E+00  0.1182378E-03
  0.6565657E-01  0.0000000E+00  0.5050505E-02  0.9683565E-06  0.0000000E+00  0.1200515E-03
  0.7575758E-01  0.0000000E+00  0.5050505E-02  0.1125760E-05  0.0000000E+00  0.1221828E-03
  0.8585858E-01  0.0000000E+00  0.5050505E-02  0.1286939E-05  0.0000000E+00  0.1246390E-03
  0.9595960E-01  0.0000000E+00  0.5050505E-02  0.1452506E-05  0.0000000E+00  0.1274286E-03
  0.1060606E+00  0.0000000E+00  0.5050505E-02  0.1623118E-05  0.0000000E+00  0.1305616E-03
  0.1161616E+00  0.0000000E+00  0.5050505E-02  0.1799485E-05  0.0000000E+00  0.1340495E-03
  0.1262626E+00  0.0000000E+00  0.5050505E-02  0.1982380E-05  0.0000000E+00  0.1379050E-03
  0.1363636E+00  0.0000000E+00  0.5050505E-02  0.2172651E-05  0.0000000E+00  0.1421430E-03
  0.1464646E+00  0.0000000E+00  0.5050505E-02  0.2371235E-05  0.0000000E+00  0.1467800E-03
  0.1565657E+00  0.0000000E+00  0.5050505E-02  0.2579179E-05  0.0000000E+00  0.1518347E-03
  0.1666667E+00  0.0000000E+00  0.5050505E-02  0.2797660E-05  0.0000000E+00  0.1573283E-03
  0.1767677E+00  0.0000000E+00  0.5050505E-02  0.3028015E-05  0.0000000E+00  0.1632843E-03
  0.1868687E+00  0.0000000E+00  0.5050505E-02  0.3271777E-05  0.0000000E+00  0.1697298E-03
  0.1969697E+00  0.0000000E+00  0.5050505E-02  0.3530727E-05  0.0000000E+00  0.1766951E-03
  0.2070707E+00  0.0000000E+00  0.5050505E-02  0.3806946E-05  0.0000000E+00  0.1842148E-03
  0.2171717E+00  0.0000000E+00  0.5050505E-02  0.4102905E-05  0.0000000E+00  0.1923282E-03
  0.2272727E+00  0.0000000E+00  0.5050505E-02  0.4421559E-05  0.0000000E+00  0.2010807E-03
  0.2373737E+00  0.0000000E+00  0.5050505E-02  0.4766492E-05  0.0000000E+00  0.2105246E-03
  0.2474747E+00  0.0000000E+00  0.5050505E-02  0.5142091E-05  0.0000000E+00  0.2207208E-03
  0.2575758E+00  0.0000000E+00  0.5050505E-02  0.5553797E-05  0.0000000E+00  0.2317408E-03
  0.2676768E+00  0.0000000E+00  0.5050505E-02  0.6008429E-05  0.0000000E+00  0.2436693E-03
  0.2777778E+00  0.0000000E+00  0.5050505E-02  0.6514654E-05  0.0000000E+00  0.2566079E-03
  0.2878788E+00  0.0000000E+00  0.5050505E-02  0.7083634E-05  0.0000000E+00  0.2706796E-03
  0.2979798E+00  0.0000000E+00  0.5050505E-02  0.7729980E-05  0.0000000E+00  0.2860350E-03
  0.3080808E+00  0.0000000E+00  0.5050505E-02  0.8473178E-05  0.0000000E+00  0.3028622E-03
  0.3181818E+00  0.0000000E+00  0.5050505E-02  0.9339829E-05  0.0000000E+00  0.3213991E-03
  0.3282828E+00  0.0000000E+00  0.5050505E-02  0.1036730E-04  0.0000000E+00  0.3419533E-03
  0.3383838E+00  0.0000000E+00  0.5050505E-02  0.1161010E-04  0.0000000E+00  0.3649326E-03
  0.3484848E+00  0.0000000E+00  0.5050505E-02  0.1315176E-04  0.0000000E+00  0.3908957E-03
  0.3585859E+00  0.0000000E+00  0.5050505E-02  0.1512926E-04  0.0000000E+00  0.4206425E-03
  0.3686869E+00  0.0000000E+00  0.5050505E-02  0.1778833E-04  0.0000000E+00  0.4553918E-03
  0.3787879E+00  0.0000000E+00  0.5050505E-02  0.2162539E-04  0.0000000E+00  0.4971757E-03
  0.3888889E+00  0.0000000E+00  0.5050505E-02  0.2779733E-04  0.0000000E+00  0.5498407E-03
  0.3989899E+00  0.0000000E+00  0.5050505E-02  0.3944999E-04  0.0000000E+00  0.6219734E-03
  0.4090909E+00  0.0000000E+00  0.5050505E-02  0.2919278E-04  0.0000000E+00  0.6961391E-03
  0.4191919E+00  0.0000000E+00  0.5050505E-02  0.2517908E-04  0.0000000E+00  0.7554358E-03
  0.4292929E+00  0.0000000E+00  0.5050505E-02  0.2250123E-04  0.0000000E+00  0.8078076E-03
  0.4393939E+00  0.0000000E+00  0.5050505E-02  0.2347235E-04  0.0000000E+00  0.8586321E-03
  0.4494950E+00  0.0000000E+00  0.5050505E-02  0.2625729E-04  0.0000000E+00  0.9139469E-03
  0.4595959E+00  0.0000000E+00  0.5050505E-02  0.2959668E-04  0.0000000E+00  0.9764835E-03
  0.4696970E+00  0.0000000E+00  0.5050505E-02  0.3355402E-04  0.0000000E+00  0.1047716E-02
  0.4797980E+00  0.0000000E+00  0.5050505E-02  0.3828072E-04  0.0000000E+00  0.1129429E-02
  0.4898990E+00  0.0000000E+00  0.5050505E-02  0.4272610E-04  0.0000000E+00  0.1222462E-02
  0.5000000E+00  0.0000000E+00  0.5050505E-02  0.4356607E-04  0.0000000E+00  0.1322625E-02
  0.5101010E+00  0.0000000E+00  0.5050505E-02  0.4304562E-04  0.0000000E+00  0.1424328E-02
  0.5202020E+00  0.0000000E+00  0.5050505E-02  0.4530189E-04  0.0000000E+00  0.1529320E-02
  0.5303030E+00  0.0000000E+00  0.5050505E-02  0.2548295E-04  0.0000000E+00  0.1614305E-02
  0.5404040E+00  0.0000000E+00  0.5050505E-02  0.5649355E-04  0.0000000E+00  0.1714000E-02
  0.5505050E+00  0.0000000E+00  0.5050505E-02  0.6267349E-04  0.0000000E+00  0.1860455E-02
  0.5606061E+00  0.0000000E+00  0.5050505E-02  0.1122013E-03  0.0000000E+00  0.2079454E-02
  0.5707071E+00  0.0000000E+00  0.5050505E-02 -0.1689501E-04  0.0000000E+00  0.2198978E-02
  0.5808081E+00  0.0000000E+00  0.5050505E-02 -0.1503537E-03  0.0000000E+00  0.1990495E-02
  0.5909091E+00  0.0000000E+00  0.5050505E-02 -0.6085217E-04  0.0000000E+00  0.1729630E-02
  0.6010101E+00  0.0000000E+00  0.5050505E-02 -0.7943109E-04  0.0000000E+00  0.1560543E-02
  0.6111111E+00  0.0000000E+00  0.5050505E-02 -0.4739769E-04  0.0000000E+00  0.1409849E-02
  0.6212121E+00  0.0000000E+00  0.5050505E-02 -0.3251100E-04  0.0000000E+00  0.1316009E-02
  0.6313131E+00  0.0000000E+00  0.5050505E-02 -0.2755275E-04  0.0000000E+00  0.1246081E-02
  0.6414142E+00  0.0000000E+00  0.5050505E-02 -0.2432121E-04  0.0000000E+00  0.1186115E-02
  0.6515151E+00  0.0000000E+00  0.5050505E-02 -0.1978646E-04  0.0000000E+00  0.1135424E-02
  0.6616161E+00  0.0000000E+00  0.5050505E-02 -0.5725484E-04  0.0000000E+00  0.1048132E-02
  0.6717172E+00  0.0000000E+00  0.5050505E-02 -0.4245527E-04  0.0000000E+00  0.9361292E-03
  0.6818182E+00  0.0000000E+00  0.5050505E-02 -0.3451152E-04  0.0000000E+00  0.8505743E-03
  0.6919192E+00  0.0000000E+00  0.5050505E-02 -0.2965788E-04  0.0000000E+00  0.7798525E-03
  0.7020202E+00  0.0000000E+00  0.5050505E-02 -0.2630856E-04  0.0000000E+00  0.7186239E-03
  0.7121212E+00  0.0000000E+00  0.5050505E-02 -0.2376817E-04  0.0000000E+00  0.6641953E-03
  0.7222222E+00  0.0000000E+00  0.5050505E-02 -0.2173848E-04  0.0000000E+00  0.6150249E-03
  0.7323232E+00  0.0000000E+00  0.5050505E-02 -0.2001259E-04  0.0000000E+00  0.5701546E-03
  0.7424242E+00  0.0000000E+00  0.5050505E-02 -0.1838596E-04  0.0000000E+00  0.5290901E-03
  0.7525253E+00  0.0000000E+00  0.5050505E-02 -0.1679164E-04  0.0000000E+00  0.4916389E-03
  0.7626263E+00  0.0000000E+00  0.5050505E-02 -0.1524845E-04  0.0000000E+00  0.4576671E-03
  0.7727273E+00  0.0000000E+00  0.5050505E-02 -0.1379307E-04  0.0000000E+00  0.4269882E-03
  0.7828283E+00  0.0000000E+00  0.5050505E-02 -0.1245034E-04  0.0000000E+00  0.3993575E-03
  0.7929293E+00  0.0000000E+00  0.5050505E-02 -0.1122915E-04  0.0000000E+00  0.3745010E-03
  0.8030303E+00  0.0000000E+00  0.5050505E-02 -0.1012689E-04  0.0000000E+00  0.3521440E-03
  0.8131313E+00  0.0000000E+00  0.5050505E-02 -0.9134748E-05  0.0000000E+00  0.3320287E-03
  0.8232324E+00  0.0000000E+00  0.5050505E-02 -0.8241349E-05  0.0000000E+00  0.3139222E-03
  0.8333333E+00  0.0000000E+00  0.5050505E-02 -0.7434904E-05  0.0000000E+00  0.2976194E-03
  0.8434343E+00  0.0000000E+00  0.5050505E-02 -0.6704247E-05  0.0000000E+00  0.2829412E-03
  0.8535354E+00  0.0000000E+00  0.5050505E-02 -0.6039273E-05  0.0000000E+00  0.2697330E-03
  0.8636364E+00  0.0000000E+00  0.5050505E-02 -0.5431045E-05  0.0000000E+00  0.2578616E-03
  0.8737374E+00  0.0000000E+00  0.5050505E-02 -0.4871748E-05  0.0000000E+00  0.2472124E-03
  0.8838384E+00  0.0000000E+00  0.5050505E-02 -0.4354580E-05  0.0000000E+00  0.2376868E-03
  0.8939394E+00  0.0000000E+00  0.5050505E-02 -0.3873622E-05  0.0000000E+00  0.2292005E-03
  0.9040404E+00  0.0000000E+00  0.5050505E-02 -0.3423706E-05  0.0000000E+00  0.2216812E-03
  0.9141414E+00  0.0000000E+00  0.5050505E-02 -0.3000302E-05  0.0000000E+00  0.2150671E-03
  0.9242424E+00  0.0000000E+00  0.5050505E-02 -0.2599411E-05  0.0000000E+00  0.2093057E-03
  0.9343435E+00  0.0000000E+00  0.5050505E-02 -0.2217476E-05  0.0000000E+00  0.2043527E-03
  0.9444444E+00  0.0000000E+00  0.5050505E-02 -0.1851304E-05  0.0000000E+00  0.2001711E-03
  0.9545454E+00  0.0000000E+00  0.5050505E-02 -0.1497999E-05  0.0000000E+00  0.1967303E-03
  0.9646465E+00  0.0000000E+00  0.5050505E-02 -0.1154902E-05  0.0000000E+00  0.1940059E-03
  0.9747475E+00  0.0000000E+00  0.5050505E-02 -0.8195437E-06  0.0000000E+00  0.1919787E-03
  0.9848485E+00  0.0000000E+00  0.5050505E-02 -0.4895992E-06  0.0000000E+00  0.1906348E-03
  0.9974747E+00  0.0000000E+00  0.5050505E-02 -0.1628494E-06  0.0000000E+00  0.1899651E-03
  0.5050505E-02  0.0000000E+00  0.1515152E-01  0.2182070E-06  0.0000000E+00  0.1136576E-03
  0.1515152E-01  0.0000000E+00  0.1515152E-01  0.6553006E-06  0.0000000E+00  0.1139537E-03
  0.2525252E-01  0.0000000E+00  0.1515152E-01  0.1094451E-05  0.0000000E+00  0.1145467E-03
  0.3535353E-01  0.0000000E+00  0.1515152E-01  0.1537061E-05  0.0000000E+00  0.1154386E-03
  0.4545455E-01  0.0000000E+00  0.1515152E-01  0.1984576E-05  0.0000000E+00  0.1166323E-03
  0.5555556E-01  0.0000000E+00  0.1515152E-01  0.2438484E-05  0.0000000E+00  0.1181316E-03
  0.6565657E-01  0.0000000E+00  0.1515152E-01  0.2900338E-05  0.0000000E+00  0.1199417E-03
  0.7575758E-01  0.0000000E+00  0.1515152E-01  0.3371766E-05  0.0000000E+00  0.1220686E-03
  0.8585858E-01  0.0000000E+00  0.1515152E-01  0.3854489E-05  0.0000000E+00  0.1245196E-03
  0.9595960E-01  0.0000000E+00  0.1515152E-01  0.4350337E-05  0.0000000E+00  0.1273032E-03
  0.1060606E+00  0.0000000E+00  0.1515152E-01  0.4861274E-05  0.0000000E+00  0.1304292E-03
  0.1161616E+00  0.0000000E+00  0.1515152E-01  0.5389419E-05  0.0000000E+00  0.1339090E-03
  0.1262626E+00  0.0000000E+00  0.1515152E-01  0.5937080E-05  0.0000000E+00  0.1377554E-03
  0.1363636E+00  0.0000000E+00  0.1515152E-01  0.6506786E-05  0.0000000E+00  0.1419829E-03
  0.1464646E+00  0.0000000E+00  0.1515152E-01  0.7101333E-05  0.0000000E+00  0.1466080E-03
  0.1565657E+00  0.0000000E+00  0.1515152E-01  0.7723836E-05  0.0000000E+00  0.1516491E-03
  0.1666667E+00  0.0000000E+00  0.1515152E-01  0.8377800E-05  0.0000000E+00  0.1571270E-03
  0.1767677E+00  0.0000000E+00  0.1515152E-01  0.9067202E-05  0.0000000E+00  0.1630653E-03
  0.1868687E+00  0.0000000E+00  0.1515152E-01  0.9796599E-05  0.0000000E+00  0.1694903E-03
  0.1969697E+00  0.0000000E+00  0.1515152E-01  0.1057127E-04  0.0000000E+00  0.1764320E-03
  0.2070707E+00  0.0000000E+00  0.1515152E-01  0.1139740E-04  0.0000000E+00  0.1839242E-03
  0.2171717E+00  0.0000000E+00  0.1515152E-01  0.1228229E-04  0.0000000E+00  0.1920057E-03
  0.2272727E+00  0.0000000E+00  0.1515152E-01  0.1323470E-04  0.0000000E+00  0.2007206E-03
  0.2373737E+00  0.0000000E+00  0.1515152E-01  0.1426520E-04  0.0000000E+00  0.2101201E-03
  0.2474747E+00  0.0000000E+00  0.1515152E-01  0.1538676E-04  0.0000000E+00  0.2202633E-03
  0.2575758E+00  0.0000000E+00  0.1515152E-01  0.1661538E-04  0.0000000E+00  0.2312195E-03
  0.2676768E+00  0.0000000E+00  0.1515152E-01  0.1797114E-04  0.0000000E+00  0.2430705E-03
  0.2777778E+00  0.0000000E+00  0.1515152E-01  0.1947947E-04  0.0000000E+00  0.2559139E-03
  0.2878788E+00  0.0000000E+00  0.1515152E-01  0.2117303E-04  0.0000000E+00  0.2698671E-03
  0.2979798E+00  0.0000000E+00  0.1515152E-01  0.2309442E-04  0.0000000E+00  0.2850736E-03
  0.3080808E+00  0.0000000E+00  0.1515152E-01  0.2530018E-04  0.0000000E+00  0.3017100E-03
  0.3181818E+00  0.0000000E+00  0.1515152E-01  0.2786696E-04  0.0000000E+00  0.3199982E-03
  0.3282828E+00  0.0000000E+00  0.1515152E-01  0.3090134E-04  0.0000000E+00  0.3402199E-03
  0.3383838E+00  0.0000000E+00  0.1515152E-01  0.3455647E-04  0.0000000E+00  0.3627403E-03
  0.3484848E+00  0.0000000E+00  0.1515152E-01  0.3906158E-04  0.0000000E+00  0.3880410E-03
  0.3585859E+00  0.0000000E+00  0.1515152E-01  0.4477838E-04  0.0000000E+00  0.4167686E-03
  0.3686869E+00  0.0000000E+00  0.1515152E-01  0.5231734E-04  0.0000000E+00  0.4497987E-03
  0.3787879E+00  0.0000000E+00  0.1515152E-01  0.6279904E-04  0.0000000E+00  0.4882842E-03
  0.3888889E+00  0.0000000E+00  0.1515152E-01  0.7849627E-04  0.0000000E+00  0.5334923E-03
  0.3989899E+00  0.0000000E+00  0.1515152E-01  0.1045544E-03  0.0000000E+00  0.5854449E-03
  0.4090909E+00  0.0000000E+00  0.1515152E-01  0.1166884E-03  0.0000000E+00  0.6758547E-03
  0.4191919E+00  0.0000000E+00  0.1515152E-01  0.7415308E-04  0.0000000E+00  0.7649573E-03
  0.4292929E+00  0.0000000E+00  0.1515152E-01  0.6396378E-04  0.0000000E+00  0.8122320E-03
  0.4393939E+00  0.0000000E+00  0.1515152E-01  0.6855749E-04  0.0000000E+00  0.8574413E-03
  0.4494950E+00  0.0000000E+00  0.1515152E-01  0.7806355E-04  0.0000000E+00  0.9102863E-03
  0.4595959E+00  0.0000000E+00  0.1515152E-01  0.8803568E-04  0.0000000E+00  0.9716353E-03
  0.4696970E+00  0.0000000E+00  0.1515152E-01  0.9977906E-04  0.0000000E+00  0.1041572E-02
  0.4797980E+00  0.0000000E+00  0.1515152E-01  0.1148731E-03  0.0000000E+00  0.1123012E-02
  0.4898990E+00  0.0000000E+00  0.1515152E-01  0.1310208E-03  0.0000000E+00  0.1220268E-02
  0.5000000E+00  0.0000000E+00  0.1515152E-01  0.1313827E-03  0.0000000E+00  0.1325791E-02
  0.5101010E+00  0.0000000E+00  0.1515152E-01  0.1261496E-03  0.0000000E+00  0.1426480E-02
  0.5202020E+00  0.0000000E+00  0.1515152E-01  0.1119065E-03  0.0000000E+00  0.1501169E-02
  0.5303030E+00  0.0000000E+00  0.1515152E-01  0.7496236E-04  0.0000000E+00  0.1557367E-02
  0.5404040E+00  0.0000000E+00  0.1515152E-01  0.1311707E-03  0.0000000E+00  0.1610421E-02
  0.5505050E+00  0.0000000E+00  0.1515152E-01  0.1660294E-03  0.0000000E+00  0.1684959E-02
  0.5606061E+00  0.0000000E+00  0.1515152E-01  0.2639595E-03  0.0000000E+00  0.1787314E-02
  0.5707071E+00  0.0000000E+00  0.1515152E-01 -0.1404107E-03  0.0000000E+00  0.1705459E-02
  0.5808081E+00  0.0000000E+00  0.1515152E-01 -0.2754338E-03  0.0000000E+00  0.1600260E-02
  0.5909091E+00  0.0000000E+00  0.1515152E-01 -0.1866070E-03  0.0000000E+00  0.1548977E-02
  0.6010101E+00  0.0000000E+00  0.1515152E-01 -0.1855979E-03  0.0000000E+00  0.1437196E-02
  0.6111111E+00  0.0000000E+00  0.1515152E-01 -0.1270729E-03  0.0000000E+00  0.1365710E-02
  0.6212121E+00  0.0000000E+00  0.1515152E-01 -0.8848937E-04  0.0000000E+00  0.1298988E-02
  0.6313131E+00  0.0000000E+00  0.1515152E-01 -0.8060165E-04  0.0000000E+00  0.1240913E-02
  0.6414142E+00  0.0000000E+00  0.1515152E-01 -0.7354451E-04  0.0000000E+00  0.1181714E-02
  0.6515151E+00  0.0000000E+00  0.1515152E-01 -0.8296368E-04  0.0000000E+00  0.1102725E-02
  0.6616161E+00  0.0000000E+00  0.1515152E-01 -0.1569569E-03  0.0000000E+00  0.1004936E-02
  0.6717172E+00  0.0000000E+00  0.1515152E-01 -0.1213791E-03  0.0000000E+00  0.9162212E-03
  0.6818182E+00  0.0000000E+00  0.1515152E-01 -0.1007940E-03  0.0000000E+00  0.8401860E-03
  0.6919192E+00  0.0000000E+00  0.1515152E-01 -0.8762863E-04  0.0000000E+00  0.7737826E-03
  0.7020202E+00  0.0000000E+00  0.1515152E-01 -0.7820504E-04  0.0000000E+00  0.7146533E-03
  0.7121212E+00  0.0000000E+00  0.1515152E-01 -0.7085683E-04  0.0000000E+00  0.6613607E-03
  0.7222222E+00  0.0000000E+00  0.1515152E-01 -0.6496226E-04  0.0000000E+00  0.6128377E-03
  0.7323232E+00  0.0000000E+00  0.1515152E-01 -0.5997984E-04  0.0000000E+00  0.5682131E-03
  0.7424242E+00  0.0000000E+00  0.1515152E-01 -0.5516459E-04  0.0000000E+00  0.5271310E-03
  0.7525253E+00  0.0000000E+00  0.1515152E-01 -0.5036186E-04  0.0000000E+00  0.4896255E-03
  0.7626263E+00  0.0000000E+00  0.1515152E-01 -0.4569283E-04  0.0000000E+00  0.4556695E-03
  0.7727273E+00  0.0000000E+00  0.1515152E-01 -0.4129714E-04  0.0000000E+00  0.4250838E-03
  0.7828283E+00  0.0000000E+00  0.1515152E-01 -0.3725462E-04  0.0000000E+00  0.3975954E-03
  0.7929293E+00  0.0000000E+00  0.1515152E-01 -0.3358824E-04  0.0000000E+00  0.3729013E-03
  0.8030303E+00  0.0000000E+00  0.1515152E-01 -0.3028548E-04  0.0000000E+00  0.3507074E-03
  0.8131313E+00  0.0000000E+00  0.1515152E-01 -0.2731636E-04  0.0000000E+00  0.3307449E-03
  0.8232324E+00  0.0000000E+00  0.1515152E-01 -0.2464466E-04  0.0000000E+00  0.3127767E-03
  0.8333333E+00  0.0000000E+00  0.1515152E-01 -0.2223388E-04  0.0000000E+00  0.2965962E-03
  0.8434343E+00  0.0000000E+00  0.1515152E-01 -0.2004997E-04  0.0000000E+00  0.2820249E-03
  0.8535354E+00  0.0000000E+00  0.1515152E-01 -0.1806241E-04  0.0000000E+00  0.2689096E-03
  0.8636364E+00  0.0000000E+00  0.1515152E-01 -0.1624435E-04  0.0000000E+00  0.2571184E-03
  0.8737374E+00  0.0000000E+00  0.1515152E-01 -0.1457238E-04  0.0000000E+00  0.2465383E-03
  0.8838384E+00  0.0000000E+00  0.1515152E-01 -0.1302617E-04  0.0000000E+00  0.2370721E-03
  0.8939394E+00  0.0000000E+00  0.1515152E-01 -0.1158803E-04  0.0000000E+00  0.2286368E-03
  0.9040404E+00  0.0000000E+00  0.1515152E-01 -0.1024255E-04  0.0000000E+00  0.2211609E-03
  0.9141414E+00  0.0000000E+00  0.1515152E-01 -0.8976204E-05  0.0000000E+00  0.2145838E-03
  0.9242424E+00  0.0000000E+00  0.1515152E-01 -0.7777071E-05  0.0000000E+00  0.2088536E-03
  0.9343435E+00  0.0000000E+00  0.1515152E-01 -0.6634536E-05  0.0000000E+00  0.2039266E-03
  0.9444444E+00  0.0000000E+00  0.1515152E-01 -0.5539074E-05  0.0000000E+00  0.1997665E-03
  0.9545454E+00  0.0000000E+00  0.1515152E-01 -0.4482042E-05  0.0000000E+00  0.1963430E-03
  0.9646465E+00  0.0000000E+00  0.1515152E-01 -0.3455511E-05  0.0000000E+00  0.1936319E-03
  0.9747475E+00  0.0000000E+00  0.1515152E-01 -0.2452110E-05  0.0000000E+00  0.1916145E-03
  0.9848485E+00  0.0000000E+00  0.1515152E-01 -0.1464898E-05  0.0000000E+00  0.1902770E-03
  0.9974747E+00  0.0000000E+00  0.1515152E-01 -0.4872489E-06  0.0000000E+00  0.1896105E-03
  0.5050505E-02  0.0000000E+00  0.2525252E-01  0.3627154E-06  0.0000000E+00  0.1134667E-03
  0.1515152E-01  0.0000000E+00  0.2525252E-01  0.1089278E-05  0.0000000E+00  0.1137617E-03
  0.2525252E-01  0.0000000E+00  0.2525252E-01  0.1819260E-05  0.0000000E+00  0.1143525E-03
  0.3535353E-01  0.0000000E+00  0.2525252E-01  0.2554991E-05  0.0000000E+00  0.1152410E-03
  0.4545455E-01  0.0000000E+00  0.2525252E-01  0.3298862E-05  0.0000000E+00  0.1164300E-03
  0.5555556E-01  0.0000000E+00  0.2525252E-01  0.4053343E-05  0.0000000E+00  0.1179236E-03
  0.6565657E-01  0.0000000E+00  0.2525252E-01  0.4821006E-05  0.0000000E+00  0.1197264E-03
  0.7575758E-01  0.0000000E+00  0.2525252E-01  0.5604545E-05  0.0000000E+00  0.1218447E-03
  0.8585858E-01  0.0000000E+00  0.2525252E-01  0.6406809E-05  0.0000000E+00  0.1242855E-03
  0.9595960E-01  0.0000000E+00  0.2525252E-01  0.7230826E-05  0.0000000E+00  0.1270572E-03
  0.1060606E+00  0.0000000E+00  0.2525252E-01  0.8079841E-05  0.0000000E+00  0.1301695E-03
  0.1161616E+00  0.0000000E+00  0.2525252E-01  0.8957358E-05  0.0000000E+00  0.1336336E-03
  0.1262626E+00  0.0000000E+00  0.2525252E-01  0.9867183E-05  0.0000000E+00  0.1374619E-03
  0.1363636E+00  0.0000000E+00  0.2525252E-01  0.1081349E-04  0.0000000E+00  0.1416689E-03
  0.1464646E+00  0.0000000E+00  0.2525252E-01  0.1180088E-04  0.0000000E+00  0.1462705E-03
  0.1565657E+00  0.0000000E+00  0.2525252E-01  0.1283447E-04  0.0000000E+00  0.1512848E-03
  0.1666667E+00  0.0000000E+00  0.2525252E-01  0.1392003E-04  0.0000000E+00  0.1567323E-03
  0.1767677E+00  0.0000000E+00  0.2525252E-01  0.1506407E-04  0.0000000E+00  0.1626356E-03
  0.1868687E+00  0.0000000E+00  0.2525252E-01  0.1627403E-04  0.0000000E+00  0.1690205E-03
  0.1969697E+00  0.0000000E+00  0.2525252E-01  0.1755856E-04  0.0000000E+00  0.1759160E-03
  0.2070707E+00  0.0000000E+00  0.2525252E-01  0.1892769E-04  0.0000000E+00  0.1833546E-03
  0.2171717E+00  0.0000000E+00  0.2525252E-01  0.2039333E-04  0.0000000E+00  0.1913737E-03
  0.2272727E+00  0.0000000E+00  0.2525252E-01  0.2196966E-04  0.0000000E+00  0.2000154E-03
  0.2373737E+00  0.0000000E+00  0.2525252E-01  0.2367379E-04  0.0000000E+00  0.2093283E-03
  0.2474747E+00  0.0000000E+00  0.2525252E-01  0.2552662E-04  0.0000000E+00  0.2193683E-03
  0.2575758E+00  0.0000000E+00  0.2525252E-01  0.2755392E-04  0.0000000E+00  0.2302005E-03
  0.2676768E+00  0.0000000E+00  0.2525252E-01  0.2978784E-04  0.0000000E+00  0.2419010E-03
  0.2777778E+00  0.0000000E+00  0.2525252E-01  0.3226898E-04  0.0000000E+00  0.2545600E-03
  0.2878788E+00  0.0000000E+00  0.2525252E-01  0.3504918E-04  0.0000000E+00  0.2682847E-03
  0.2979798E+00  0.0000000E+00  0.2525252E-01  0.3819562E-04  0.0000000E+00  0.2832044E-03
  0.3080808E+00  0.0000000E+00  0.2525252E-01  0.4179663E-04  0.0000000E+00  0.2994759E-03
  0.3181818E+00  0.0000000E+00  0.2525252E-01  0.4597042E-04  0.0000000E+00  0.3172915E-03
  0.3282828E+00  0.0000000E+00  0.2525252E-01  0.5087857E-04  0.0000000E+00  0.3368888E-03
  0.3383838E+00  0.0000000E+00  0.2525252E-01  0.5674725E-04  0.0000000E+00  0.3585629E-03
  0.3484848E+00  0.0000000E+00  0.2525252E-01  0.6390227E-04  0.0000000E+00  0.3826789E-03
  0.3585859E+00  0.0000000E+00  0.2525252E-01  0.7282797E-04  0.0000000E+00  0.4096802E-03
  0.3686869E+00  0.0000000E+00  0.2525252E-01  0.8426840E-04  0.0000000E+00  0.4400691E-03
  0.3787879E+00  0.0000000E+00  0.2525252E-01  0.9939706E-04  0.0000000E+00  0.4742928E-03
  0.3888889E+00  0.0000000E+00  0.2525252E-01  0.1200668E-03  0.0000000E+00  0.5123263E-03
  0.3989899E+00  0.0000000E+00  0.2525252E-01  0.1489695E-03  0.0000000E+00  0.5523588E-03
  0.4090909E+00  0.0000000E+00  0.2525252E-01  0.1884745E-03  0.0000000E+00  0.5871068E-03
  0.4191919E+00  0.0000000E+00  0.2525252E-01  0.1615722E-03  0.0000000E+00  0.6703144E-03
  0.4292929E+00  0.0000000E+00  0.2525252E-01  0.1249458E-03  0.0000000E+00  0.7852493E-03
  0.4393939E+00  0.0000000E+00  0.2525252E-01  0.1086853E-03  0.0000000E+00  0.8524902E-03
  0.4494950E+00  0.0000000E+00  0.2525252E-01  0.1290043E-03  0.0000000E+00  0.9020931E-03
  0.4595959E+00  0.0000000E+00  0.2525252E-01  0.1445134E-03  0.0000000E+00  0.9623449E-03
  0.4696970E+00  0.0000000E+00  0.2525252E-01  0.1627246E-03  0.0000000E+00  0.1028752E-02
  0.4797980E+00  0.0000000E+00  0.2525252E-01  0.1902995E-03  0.0000000E+00  0.1106764E-02
  0.4898990E+00  0.0000000E+00  0.2525252E-01  0.2327433E-03  0.0000000E+00  0.1215692E-02
  0.5000000E+00  0.0000000E+00  0.2525252E-01  0.2230280E-03  0.0000000E+00  0.1338570E-02
  0.5101010E+00  0.0000000E+00  0.2525252E-01  0.1933190E-03  0.0000000E+00  0.1429667E-02
  0.5202020E+00  0.0000000E+00  0.2525252E-01  0.1377690E-03  0.0000000E+00  0.1470534E-02
  0.5303030E+00  0.0000000E+00  0.2525252E-01  0.1253139E-03  0.0000000E+00  0.1511030E-02
  0.5404040E+00  0.0000000E+00  0.2525252E-01  0.1639247E-03  0.0000000E+00  0.1564398E-02
  0.5505050E+00  0.0000000E+00  0.2525252E-01  0.2301873E-03  0.0000000E+00  0.1615614E-02
  0.5606061E+00  0.0000000E+00  0.2525252E-01  0.2527725E-03  0.0000000E+00  0.1587638E-02
  0.5707071E+00  0.0000000E+00  0.2525252E-01 -0.2638405E-03  0.0000000E+00  0.1505169E-02
  0.5808081E+00  0.0000000E+00  0.2525252E-01 -0.2748535E-03  0.0000000E+00  0.1450245E-02
  0.5909091E+00  0.0000000E+00  0.2525252E-01 -0.2649411E-03  0.0000000E+00  0.1400317E-02
  0.6010101E+00  0.0000000E+00  0.2525252E-01 -0.2213951E-03  0.0000000E+00  0.1369882E-02
  0.6111111E+00  0.0000000E+00  0.2525252E-01 -0.1887579E-03  0.0000000E+00  0.1321482E-02
  0.6212121E+00  0.0000000E+00  0.2525252E-01 -0.1555796E-03  0.0000000E+00  0.1233600E-02
  0.6313131E+00  0.0000000E+00  0.2525252E-01 -0.1320343E-03  0.0000000E+00  0.1150934E-02
  0.6414142E+00  0.0000000E+00  0.2525252E-01 -0.1075407E-03  0.0000000E+00  0.1109093E-02
  0.6515151E+00  0.0000000E+00  0.2525252E-01 -0.1702910E-03  0.0000000E+00  0.1047533E-02
  0.6616161E+00  0.0000000E+00  0.2525252E-01 -0.2327646E-03  0.0000000E+00  0.9592917E-03
  0.6717172E+00  0.0000000E+00  0.2525252E-01 -0.1872901E-03  0.0000000E+00  0.8884633E-03
  0.6818182E+00  0.0000000E+00  0.2525252E-01 -0.1605983E-03  0.0000000E+00  0.8241974E-03
  0.6919192E+00  0.0000000E+00  0.2525252E-01 -0.1423608E-03  0.0000000E+00  0.7638391E-03
  0.7020202E+00  0.0000000E+00  0.2525252E-01 -0.1283514E-03  0.0000000E+00  0.7077771E-03
  0.7121212E+00  0.0000000E+00  0.2525252E-01 -0.1167510E-03  0.0000000E+00  0.6563082E-03
  0.7222222E+00  0.0000000E+00  0.2525252E-01 -0.1074912E-03  0.0000000E+00  0.6089831E-03
  0.7323232E+00  0.0000000E+00  0.2525252E-01 -0.9995586E-04  0.0000000E+00  0.5646982E-03
  0.7424242E+00  0.0000000E+00  0.2525252E-01 -0.9209616E-04  0.0000000E+00  0.5233433E-03
  0.7525253E+00  0.0000000E+00  0.2525252E-01 -0.8395714E-04  0.0000000E+00  0.4856054E-03
  0.7626263E+00  0.0000000E+00  0.2525252E-01 -0.7600894E-04  0.0000000E+00  0.4516562E-03
  0.7727273E+00  0.0000000E+00  0.2525252E-01 -0.6857402E-04  0.0000000E+00  0.4212711E-03
  0.7828283E+00  0.0000000E+00  0.2525252E-01 -0.6178805E-04  0.0000000E+00  0.3940864E-03
  0.7929293E+00  0.0000000E+00  0.2525252E-01 -0.5566953E-04  0.0000000E+00  0.3697300E-03
  0.8030303E+00  0.0000000E+00  0.2525252E-01 -0.5017922E-04  0.0000000E+00  0.3478681E-03
  0.8131313E+00  0.0000000E+00  0.2525252E-01 -0.4525506E-04  0.0000000E+00  0.3282130E-03
  0.8232324E+00  0.0000000E+00  0.2525252E-01 -0.4082985E-04  0.0000000E+00  0.3105201E-03
  0.8333333E+00  0.0000000E+00  0.2525252E-01 -0.3683928E-04  0.0000000E+00  0.2945818E-03
  0.8434343E+00  0.0000000E+00  0.2525252E-01 -0.3322505E-04  0.0000000E+00  0.2802217E-03
  0.8535354E+00  0.0000000E+00  0.2525252E-01 -0.2993569E-04  0.0000000E+00  0.2672892E-03
  0.8636364E+00  0.0000000E+00  0.2525252E-01 -0.2692637E-04  0.0000000E+00  0.2556559E-03
  0.8737374E+00  0.0000000E+00  0.2525252E-01 -0.2415823E-04  0.0000000E+00  0.2452117E-03
  0.8838384E+00  0.0000000E+00  0.2525252E-01 -0.2159762E-04  0.0000000E+00  0.2358624E-03
  0.8939394E+00  0.0000000E+00  0.2525252E-01 -0.1921534E-04  0.0000000E+00  0.2275272E-03
  0.9040404E+00  0.0000000E+00  0.2525252E-01 -0.1698595E-04  0.0000000E+00  0.2201369E-03
  0.9141414E+00  0.0000000E+00  0.2525252E-01 -0.1488717E-04  0.0000000E+00  0.2136325E-03
  0.9242424E+00  0.0000000E+00  0.2525252E-01 -0.1289934E-04  0.0000000E+00  0.2079638E-03
  0.9343435E+00  0.0000000E+00  0.2525252E-01 -0.1100495E-04  0.0000000E+00  0.2030881E-03
  0.9444444E+00  0.0000000E+00  0.2525252E-01 -0.9188304E-05  0.0000000E+00  0.1989702E-03
  0.9545454E+00  0.0000000E+00  0.2525252E-01 -0.7435151E-05  0.0000000E+00  0.1955807E-03
  0.9646465E+00  0.0000000E+00  0.2525252E-01 -0.5732405E-05  0.0000000E+00  0.1928960E-03
  0.9747475E+00  0.0000000E+00  0.2525252E-01 -0.4067905E-05  0.0000000E+00  0.1908979E-03
  0.9848485E+00  0.0000000E+00  0.2525252E-01 -0.2430194E-05  0.0000000E+00  0.1895730E-03
  0.9974747E+00  0.0000000E+00  0.2525252E-01 -0.8083218E-06  0.0000000E+00  0.1889127E-03
  0.5050505E-02  0.0000000E+00  0.3535353E-01  0.5061275E-06  0.0000000E+00  0.1131867E-03
  0.1515152E-01  0.0000000E+00  0.3535353E-01  0.1519961E-05  0.0000000E+00  0.1134800E-03
  0.2525252E-01  0.0000000E+00  0.3535353E-01  0.2538556E-05  0.0000000E+00  0.1140675E-03
  0.3535353E-01  0.0000000E+00  0.3535353E-01  0.3565153E-05  0.0000000E+00  0.1149510E-03
  0.4545455E-01  0.0000000E+00  0.3535353E-01  0.4603074E-05  0.0000000E+00  0.1161333E-03
  0.5555556E-01  0.0000000E+00  0.3535353E-01  0.5655750E-05  0.0000000E+00  0.1176182E-03
  0.6565657E-01  0.0000000E+00  0.3535353E-01  0.6726749E-05  0.0000000E+00  0.1194105E-03
  0.7575758E-01  0.0000000E+00  0.3535353E-01  0.7819811E-05  0.0000000E+00  0.1215160E-03
  0.8585858E-01  0.0000000E+00  0.3535353E-01  0.8938883E-05  0.0000000E+00  0.1239418E-03
  0.9595960E-01  0.0000000E+00  0.3535353E-01  0.1008816E-04  0.0000000E+00  0.1266961E-03
  0.1060606E+00  0.0000000E+00  0.3535353E-01  0.1127214E-04  0.0000000E+00  0.1297883E-03
  0.1161616E+00  0.0000000E+00  0.3535353E-01  0.1249566E-04  0.0000000E+00  0.1332292E-03
  0.1262626E+00  0.0000000E+00  0.3535353E-01  0.1376398E-04  0.0000000E+00  0.1370311E-03
  0.1363636E+00  0.0000000E+00  0.3535353E-01  0.1508284E-04  0.0000000E+00  0.1412079E-03
  0.1464646E+00  0.0000000E+00  0.3535353E-01  0.1645859E-04  0.0000000E+00  0.1457752E-03
  0.1565657E+00  0.0000000E+00  0.3535353E-01  0.1789826E-04  0.0000000E+00  0.1507505E-03
  0.1666667E+00  0.0000000E+00  0.3535353E-01  0.1940973E-04  0.0000000E+00  0.1561533E-03
  0.1767677E+00  0.0000000E+00  0.3535353E-01  0.2100190E-04  0.0000000E+00  0.1620057E-03
  0.1868687E+00  0.0000000E+00  0.3535353E-01  0.2268493E-04  0.0000000E+00  0.1683321E-03
  0.1969697E+00  0.0000000E+00  0.3535353E-01  0.2447053E-04  0.0000000E+00  0.1751603E-03
  0.2070707E+00  0.0000000E+00  0.3535353E-01  0.2637231E-04  0.0000000E+00  0.1825212E-03
  0.2171717E+00  0.0000000E+00  0.3535353E-01  0.2840631E-04  0.0000000E+00  0.1904497E-03
  0.2272727E+00  0.0000000E+00  0.3535353E-01  0.3059159E-04  0.0000000E+00  0.1989853E-03
  0.2373737E+00  0.0000000E+00  0.3535353E-01  0.3295109E-04  0.0000000E+00  0.2081731E-03
  0.2474747E+00  0.0000000E+00  0.3535353E-01  0.3551267E-04  0.0000000E+00  0.2180644E-03
  0.2575758E+00  0.0000000E+00  0.3535353E-01  0.3831057E-04  0.0000000E+00  0.2287183E-03
  0.2676768E+00  0.0000000E+00  0.3535353E-01  0.4138728E-04  0.0000000E+00  0.2402033E-03
  0.2777778E+00  0.0000000E+00  0.3535353E-01  0.4479612E-04  0.0000000E+00  0.2525989E-03
  0.2878788E+00  0.0000000E+00  0.3535353E-01  0.4860472E-04  0.0000000E+00  0.2659987E-03
  0.2979798E+00  0.0000000E+00  0.3535353E-01  0.5289985E-04  0.0000000E+00  0.2805131E-03