title = "dataset water"
variables = "time", "water mass", "water filled volume", "gas filled volume" 
zone t = "system mass -  variably saturated flow", f=point
  0.0000E+00  1.8147E-01  1.8147E-01  2.4653E-01
  1.0000E-10  1.8147E-01  1.8147E-01  2.4653E-01
  6.0000E-10  1.8147E-01  1.8147E-01  2.4653E-01
  3.1000E-09  1.8147E-01  1.8147E-01  2.4653E-01
  1.5600E-08  1.8147E-01  1.8147E-01  2.4653E-01
  7.8100E-08  1.8147E-01  1.8147E-01  2.4653E-01
  3.9060E-07  1.8147E-01  1.8147E-01  2.4653E-01
  1.9531E-06  1.8148E-01  1.8148E-01  2.4652E-01
  9.7656E-06  1.8148E-01  1.8148E-01  2.4652E-01
  4.8828E-05  1.8148E-01  1.8148E-01  2.4652E-01
  2.4414E-04  1.8149E-01  1.8149E-01  2.4651E-01
  1.2207E-03  1.8156E-01  1.8156E-01  2.4644E-01
  6.1035E-03  1.8174E-01  1.8174E-01  2.4626E-01
  2.3462E-02  1.8207E-01  1.8207E-01  2.4593E-01
  8.7359E-02  1.8269E-01  1.8269E-01  2.4531E-01
  3.0004E-01  1.8379E-01  1.8379E-01  2.4421E-01
  1.0000E+00  1.8573E-01  1.8573E-01  2.4227E-01
  2.0000E+00  1.8369E-01  1.8369E-01  2.4431E-01
  3.0000E+00  1.8313E-01  1.8313E-01  2.4487E-01
  4.0000E+00  1.8283E-01  1.8283E-01  2.4517E-01
  5.0000E+00  1.8264E-01  1.8264E-01  2.4536E-01
  6.0000E+00  1.8251E-01  1.8251E-01  2.4549E-01
  7.0000E+00  1.8241E-01  1.8241E-01  2.4559E-01
  8.0000E+00  1.8232E-01  1.8232E-01  2.4568E-01
  9.0000E+00  1.8224E-01  1.8224E-01  2.4576E-01
  1.0000E+01  1.8218E-01  1.8218E-01  2.4582E-01
  1.1000E+01  1.8212E-01  1.8212E-01  2.4588E-01
  1.2000E+01  1.8206E-01  1.8206E-01  2.4594E-01
  1.3000E+01  1.8200E-01  1.8200E-01  2.4600E-01
  1.4000E+01  1.8195E-01  1.8195E-01  2.4605E-01
  1.5000E+01  1.8189E-01  1.8189E-01  2.4611E-01
  1.6000E+01  1.8183E-01  1.8183E-01  2.4617E-01
  1.7000E+01  1.8176E-01  1.8176E-01  2.4624E-01
  1.8000E+01  1.8166E-01  1.8166E-01  2.4634E-01
  1.9000E+01  1.8157E-01  1.8157E-01  2.4643E-01
  2.0000E+01  1.8146E-01  1.8146E-01  2.4654E-01
  2.1000E+01  1.8134E-01  1.8134E-01  2.4666E-01
  2.2000E+01  1.8117E-01  1.8117E-01  2.4683E-01
  2.3000E+01  1.8095E-01  1.8095E-01  2.4705E-01
  2.4000E+01  1.8072E-01  1.8072E-01  2.4728E-01
  2.5000E+01  1.8044E-01  1.8044E-01  2.4756E-01
  2.6000E+01  1.8012E-01  1.8012E-01  2.4788E-01
  2.7000E+01  1.7971E-01  1.7971E-01  2.4829E-01
  2.8000E+01  1.7916E-01  1.7916E-01  2.4884E-01
  2.9000E+01  1.7857E-01  1.7857E-01  2.4943E-01
  3.0000E+01  1.7780E-01  1.7780E-01  2.5020E-01
  3.1000E+01  1.7698E-01  1.7698E-01  2.5102E-01
  3.2000E+01  1.7601E-01  1.7601E-01  2.5199E-01
  3.3000E+01  1.7494E-01  1.7494E-01  2.5306E-01
  3.4000E+01  1.7360E-01  1.7360E-01  2.5440E-01
  3.5000E+01  1.7217E-01  1.7217E-01  2.5583E-01
  3.6000E+01  1.7055E-01  1.7055E-01  2.5745E-01
  3.7000E+01  1.6895E-01  1.6895E-01  2.5905E-01
  3.8000E+01  1.6735E-01  1.6735E-01  2.6065E-01
  3.9000E+01  1.6571E-01  1.6571E-01  2.6229E-01
  4.0000E+01  1.6413E-01  1.6413E-01  2.6387E-01
  4.1000E+01  1.6230E-01  1.6230E-01  2.6570E-01
  4.2000E+01  1.6068E-01  1.6068E-01  2.6732E-01
  4.3000E+01  1.5909E-01  1.5909E-01  2.6891E-01
  4.4000E+01  1.5746E-01  1.5746E-01  2.7054E-01
  4.4500E+01  1.5664E-01  1.5664E-01  2.7136E-01
  4.5000E+01  1.5586E-01  1.5586E-01  2.7214E-01
  4.6000E+01  1.5427E-01  1.5427E-01  2.7373E-01
  4.6500E+01  1.5345E-01  1.5345E-01  2.7455E-01
  4.7000E+01  1.5268E-01  1.5268E-01  2.7532E-01
  4.8000E+01  1.5113E-01  1.5113E-01  2.7687E-01
  4.9000E+01  1.4973E-01  1.4973E-01  2.7827E-01
  4.9500E+01  1.4889E-01  1.4889E-01  2.7911E-01
  5.0000E+01  1.4812E-01  1.4812E-01  2.7988E-01
  5.0500E+01  1.4735E-01  1.4735E-01  2.8065E-01
  5.1000E+01  1.4663E-01  1.4663E-01  2.8137E-01
  5.2000E+01  1.4507E-01  1.4507E-01  2.8293E-01
  5.2500E+01  1.4440E-01  1.4440E-01  2.8360E-01
  5.3000E+01  1.4377E-01  1.4377E-01  2.8423E-01
  5.4000E+01  1.4222E-01  1.4222E-01  2.8578E-01
  5.4500E+01  1.4145E-01  1.4145E-01  2.8655E-01
  5.5000E+01  1.4073E-01  1.4073E-01  2.8727E-01
  5.5500E+01  1.4003E-01  1.4003E-01  2.8797E-01
  5.6000E+01  1.3937E-01  1.3937E-01  2.8863E-01
  5.6500E+01  1.3864E-01  1.3864E-01  2.8936E-01
  5.7000E+01  1.3796E-01  1.3796E-01  2.9004E-01
  5.7500E+01  1.3733E-01  1.3733E-01  2.9067E-01
  5.8000E+01  1.3674E-01  1.3674E-01  2.9126E-01
  5.8500E+01  1.3600E-01  1.3600E-01  2.9200E-01
  5.9000E+01  1.3532E-01  1.3532E-01  2.9268E-01
  5.9250E+01  1.3495E-01  1.3495E-01  2.9305E-01
  5.9625E+01  1.3443E-01  1.3443E-01  2.9357E-01
  6.0000E+01  1.3395E-01  1.3395E-01  2.9405E-01
