title = "dataset water"
variables = "x", "y", "z", "vx", "vy", "vz"
zone t = "velocities, solution time =  1.200E+01 days        " i =   99, j =   99, k =    1,  f=point
  0.5050505E-02  0.0000000E+00  0.5050505E-02  0.4847955E-12  0.0000000E+00 -0.4110024E-04
  0.1515152E-01  0.0000000E+00  0.5050505E-02  0.1409124E-11  0.0000000E+00 -0.4110024E-04
  0.2525252E-01  0.0000000E+00  0.5050505E-02  0.2326679E-11  0.0000000E+00 -0.4110024E-04
  0.3535353E-01  0.0000000E+00  0.5050505E-02  0.3244609E-11  0.0000000E+00 -0.4110023E-04
  0.4545455E-01  0.0000000E+00  0.5050505E-02  0.4161799E-11  0.0000000E+00 -0.4110022E-04
  0.5555556E-01  0.0000000E+00  0.5050505E-02  0.5070224E-11  0.0000000E+00 -0.4110021E-04
  0.6565657E-01  0.0000000E+00  0.5050505E-02  0.5971692E-11  0.0000000E+00 -0.4110020E-04
  0.7575758E-01  0.0000000E+00  0.5050505E-02  0.6867320E-11  0.0000000E+00 -0.4110019E-04
  0.8585858E-01  0.0000000E+00  0.5050505E-02  0.7755124E-11  0.0000000E+00 -0.4110018E-04
  0.9595960E-01  0.0000000E+00  0.5050505E-02  0.8631768E-11  0.0000000E+00 -0.4110016E-04
  0.1060606E+00  0.0000000E+00  0.5050505E-02  0.9494154E-11  0.0000000E+00 -0.4110014E-04
  0.1161616E+00  0.0000000E+00  0.5050505E-02  0.1033990E-10  0.0000000E+00 -0.4110012E-04
  0.1262626E+00  0.0000000E+00  0.5050505E-02  0.1116682E-10  0.0000000E+00 -0.4110010E-04
  0.1363636E+00  0.0000000E+00  0.5050505E-02  0.1197278E-10  0.0000000E+00 -0.4110008E-04
  0.1464646E+00  0.0000000E+00  0.5050505E-02  0.1275541E-10  0.0000000E+00 -0.4110005E-04
  0.1565657E+00  0.0000000E+00  0.5050505E-02  0.1351205E-10  0.0000000E+00 -0.4110002E-04
  0.1666667E+00  0.0000000E+00  0.5050505E-02  0.1423977E-10  0.0000000E+00 -0.4110000E-04
  0.1767677E+00  0.0000000E+00  0.5050505E-02  0.1493538E-10  0.0000000E+00 -0.4109997E-04
  0.1868687E+00  0.0000000E+00  0.5050505E-02  0.1559554E-10  0.0000000E+00 -0.4109994E-04
  0.1969697E+00  0.0000000E+00  0.5050505E-02  0.1621677E-10  0.0000000E+00 -0.4109990E-04
  0.2070707E+00  0.0000000E+00  0.5050505E-02  0.1679555E-10  0.0000000E+00 -0.4109987E-04
  0.2171717E+00  0.0000000E+00  0.5050505E-02  0.1732831E-10  0.0000000E+00 -0.4109984E-04
  0.2272727E+00  0.0000000E+00  0.5050505E-02  0.1781153E-10  0.0000000E+00 -0.4109980E-04
  0.2373737E+00  0.0000000E+00  0.5050505E-02  0.1824171E-10  0.0000000E+00 -0.4109977E-04
  0.2474747E+00  0.0000000E+00  0.5050505E-02  0.1861546E-10  0.0000000E+00 -0.4109973E-04
  0.2575758E+00  0.0000000E+00  0.5050505E-02  0.1892948E-10  0.0000000E+00 -0.4109969E-04
  0.2676768E+00  0.0000000E+00  0.5050505E-02  0.1918059E-10  0.0000000E+00 -0.4109965E-04
  0.2777778E+00  0.0000000E+00  0.5050505E-02  0.1936579E-10  0.0000000E+00 -0.4109961E-04
  0.2878788E+00  0.0000000E+00  0.5050505E-02  0.1948226E-10  0.0000000E+00 -0.4109957E-04
  0.2979798E+00  0.0000000E+00  0.5050505E-02  0.1952743E-10  0.0000000E+00 -0.4109954E-04
  0.3080808E+00  0.0000000E+00  0.5050505E-02  0.1949898E-10  0.0000000E+00 -0.4109950E-04
  0.3181818E+00  0.0000000E+00  0.5050505E-02  0.1939491E-10  0.0000000E+00 -0.4109946E-04
  0.3282828E+00  0.0000000E+00  0.5050505E-02  0.1921358E-10  0.0000000E+00 -0.4109942E-04
  0.3383838E+00  0.0000000E+00  0.5050505E-02  0.1895372E-10  0.0000000E+00 -0.4109938E-04
  0.3484848E+00  0.0000000E+00  0.5050505E-02  0.1861451E-10  0.0000000E+00 -0.4109934E-04
  0.3585859E+00  0.0000000E+00  0.5050505E-02  0.1819558E-10  0.0000000E+00 -0.4109931E-04
  0.3686869E+00  0.0000000E+00  0.5050505E-02  0.1769706E-10  0.0000000E+00 -0.4109927E-04
  0.3787879E+00  0.0000000E+00  0.5050505E-02  0.1711959E-10  0.0000000E+00 -0.4109923E-04
  0.3888889E+00  0.0000000E+00  0.5050505E-02  0.1646436E-10  0.0000000E+00 -0.4109920E-04
  0.3989899E+00  0.0000000E+00  0.5050505E-02  0.1573310E-10  0.0000000E+00 -0.4109917E-04
  0.4090909E+00  0.0000000E+00  0.5050505E-02  0.1492809E-10  0.0000000E+00 -0.4109914E-04
  0.4191919E+00  0.0000000E+00  0.5050505E-02  0.1405217E-10  0.0000000E+00 -0.4109911E-04
  0.4292929E+00  0.0000000E+00  0.5050505E-02  0.1310868E-10  0.0000000E+00 -0.4109908E-04
  0.4393939E+00  0.0000000E+00  0.5050505E-02  0.1210151E-10  0.0000000E+00 -0.4109906E-04
  0.4494950E+00  0.0000000E+00  0.5050505E-02  0.1103503E-10  0.0000000E+00 -0.4109903E-04
  0.4595959E+00  0.0000000E+00  0.5050505E-02  0.9914053E-11  0.0000000E+00 -0.4109901E-04
  0.4696970E+00  0.0000000E+00  0.5050505E-02  0.8743860E-11  0.0000000E+00 -0.4109899E-04
  0.4797980E+00  0.0000000E+00  0.5050505E-02  0.7530097E-11  0.0000000E+00 -0.4109898E-04
  0.4898990E+00  0.0000000E+00  0.5050505E-02  0.6278781E-11  0.0000000E+00 -0.4109896E-04
  0.5000000E+00  0.0000000E+00  0.5050505E-02  0.4996237E-11  0.0000000E+00 -0.4109895E-04
  0.5101010E+00  0.0000000E+00  0.5050505E-02  0.3689042E-11  0.0000000E+00 -0.4109894E-04
  0.5202020E+00  0.0000000E+00  0.5050505E-02  0.2363966E-11  0.0000000E+00 -0.4109894E-04
  0.5303030E+00  0.0000000E+00  0.5050505E-02  0.1027973E-11  0.0000000E+00 -0.4109893E-04
  0.5404040E+00  0.0000000E+00  0.5050505E-02 -0.3117953E-12  0.0000000E+00 -0.4109893E-04
  0.5505050E+00  0.0000000E+00  0.5050505E-02 -0.1648401E-11  0.0000000E+00 -0.4109893E-04
  0.5606061E+00  0.0000000E+00  0.5050505E-02 -0.2971846E-11  0.0000000E+00 -0.4109894E-04
  0.5707071E+00  0.0000000E+00  0.5050505E-02 -0.4276025E-11  0.0000000E+00 -0.4109895E-04
  0.5808081E+00  0.0000000E+00  0.5050505E-02 -0.5554548E-11  0.0000000E+00 -0.4109896E-04
  0.5909091E+00  0.0000000E+00  0.5050505E-02 -0.6795967E-11  0.0000000E+00 -0.4109897E-04
  0.6010101E+00  0.0000000E+00  0.5050505E-02 -0.7996009E-11  0.0000000E+00 -0.4109898E-04
  0.6111111E+00  0.0000000E+00  0.5050505E-02 -0.9149857E-11  0.0000000E+00 -0.4109900E-04
  0.6212121E+00  0.0000000E+00  0.5050505E-02 -0.1025082E-10  0.0000000E+00 -0.4109902E-04
  0.6313131E+00  0.0000000E+00  0.5050505E-02 -0.1129185E-10  0.0000000E+00 -0.4109904E-04
  0.6414142E+00  0.0000000E+00  0.5050505E-02 -0.1226685E-10  0.0000000E+00 -0.4109907E-04
  0.6515151E+00  0.0000000E+00  0.5050505E-02 -0.1317096E-10  0.0000000E+00 -0.4109909E-04
  0.6616161E+00  0.0000000E+00  0.5050505E-02 -0.1400016E-10  0.0000000E+00 -0.4109912E-04
  0.6717172E+00  0.0000000E+00  0.5050505E-02 -0.1475116E-10  0.0000000E+00 -0.4109915E-04
  0.6818182E+00  0.0000000E+00  0.5050505E-02 -0.1542119E-10  0.0000000E+00 -0.4109918E-04
  0.6919192E+00  0.0000000E+00  0.5050505E-02 -0.1600799E-10  0.0000000E+00 -0.4109921E-04
  0.7020202E+00  0.0000000E+00  0.5050505E-02 -0.1650980E-10  0.0000000E+00 -0.4109924E-04
  0.7121212E+00  0.0000000E+00  0.5050505E-02 -0.1692535E-10  0.0000000E+00 -0.4109928E-04
  0.7222222E+00  0.0000000E+00  0.5050505E-02 -0.1725393E-10  0.0000000E+00 -0.4109931E-04
  0.7323232E+00  0.0000000E+00  0.5050505E-02 -0.1749529E-10  0.0000000E+00 -0.4109934E-04
  0.7424242E+00  0.0000000E+00  0.5050505E-02 -0.1764969E-10  0.0000000E+00 -0.4109938E-04
  0.7525253E+00  0.0000000E+00  0.5050505E-02 -0.1771790E-10  0.0000000E+00 -0.4109942E-04
  0.7626263E+00  0.0000000E+00  0.5050505E-02 -0.1770106E-10  0.0000000E+00 -0.4109945E-04
  0.7727273E+00  0.0000000E+00  0.5050505E-02 -0.1760079E-10  0.0000000E+00 -0.4109949E-04
  0.7828283E+00  0.0000000E+00  0.5050505E-02 -0.1741903E-10  0.0000000E+00 -0.4109952E-04
  0.7929293E+00  0.0000000E+00  0.5050505E-02 -0.1715810E-10  0.0000000E+00 -0.4109956E-04
  0.8030303E+00  0.0000000E+00  0.5050505E-02 -0.1682059E-10  0.0000000E+00 -0.4109959E-04
  0.8131313E+00  0.0000000E+00  0.5050505E-02 -0.1640939E-10  0.0000000E+00 -0.4109962E-04
  0.8232324E+00  0.0000000E+00  0.5050505E-02 -0.1592760E-10  0.0000000E+00 -0.4109966E-04
  0.8333333E+00  0.0000000E+00  0.5050505E-02 -0.1537854E-10  0.0000000E+00 -0.4109969E-04
  0.8434343E+00  0.0000000E+00  0.5050505E-02 -0.1476570E-10  0.0000000E+00 -0.4109972E-04
  0.8535354E+00  0.0000000E+00  0.5050505E-02 -0.1409269E-10  0.0000000E+00 -0.4109975E-04
  0.8636364E+00  0.0000000E+00  0.5050505E-02 -0.1336327E-10  0.0000000E+00 -0.4109977E-04
  0.8737374E+00  0.0000000E+00  0.5050505E-02 -0.1258128E-10  0.0000000E+00 -0.4109980E-04
  0.8838384E+00  0.0000000E+00  0.5050505E-02 -0.1175062E-10  0.0000000E+00 -0.4109983E-04
  0.8939394E+00  0.0000000E+00  0.5050505E-02 -0.1087526E-10  0.0000000E+00 -0.4109985E-04
  0.9040404E+00  0.0000000E+00  0.5050505E-02 -0.9959205E-11  0.0000000E+00 -0.4109987E-04
  0.9141414E+00  0.0000000E+00  0.5050505E-02 -0.9006506E-11  0.0000000E+00 -0.4109989E-04
  0.9242424E+00  0.0000000E+00  0.5050505E-02 -0.8021218E-11  0.0000000E+00 -0.4109991E-04
  0.9343435E+00  0.0000000E+00  0.5050505E-02 -0.7007382E-11  0.0000000E+00 -0.4109992E-04
  0.9444444E+00  0.0000000E+00  0.5050505E-02 -0.5968970E-11  0.0000000E+00 -0.4109993E-04
  0.9545454E+00  0.0000000E+00  0.5050505E-02 -0.4909814E-11  0.0000000E+00 -0.4109994E-04
  0.9646465E+00  0.0000000E+00  0.5050505E-02 -0.3833510E-11  0.0000000E+00 -0.4109995E-04
  0.9747475E+00  0.0000000E+00  0.5050505E-02 -0.2743331E-11  0.0000000E+00 -0.4109996E-04
  0.9848485E+00  0.0000000E+00  0.5050505E-02 -0.1642014E-11  0.0000000E+00 -0.4109996E-04
  0.9974747E+00  0.0000000E+00  0.5050505E-02 -0.5309117E-12  0.0000000E+00 -0.4109997E-04
  0.5050505E-02  0.0000000E+00  0.1515152E-01  0.1449229E-11  0.0000000E+00 -0.4094866E-04
  0.1515152E-01  0.0000000E+00  0.1515152E-01  0.4241791E-11  0.0000000E+00 -0.4094865E-04
  0.2525252E-01  0.0000000E+00  0.1515152E-01  0.7011108E-11  0.0000000E+00 -0.4094865E-04
  0.3535353E-01  0.0000000E+00  0.1515152E-01  0.9778393E-11  0.0000000E+00 -0.4094864E-04
  0.4545455E-01  0.0000000E+00  0.1515152E-01  0.1254286E-10  0.0000000E+00 -0.4094864E-04
  0.5555556E-01  0.0000000E+00  0.1515152E-01  0.1528261E-10  0.0000000E+00 -0.4094863E-04
  0.6565657E-01  0.0000000E+00  0.1515152E-01  0.1800122E-10  0.0000000E+00 -0.4094862E-04
  0.7575758E-01  0.0000000E+00  0.1515152E-01  0.2070133E-10  0.0000000E+00 -0.4094860E-04
  0.8585858E-01  0.0000000E+00  0.1515152E-01  0.2337735E-10  0.0000000E+00 -0.4094859E-04
  0.9595960E-01  0.0000000E+00  0.1515152E-01  0.2601986E-10  0.0000000E+00 -0.4094857E-04
  0.1060606E+00  0.0000000E+00  0.1515152E-01  0.2861977E-10  0.0000000E+00 -0.4094855E-04
  0.1161616E+00  0.0000000E+00  0.1515152E-01  0.3116981E-10  0.0000000E+00 -0.4094853E-04
  0.1262626E+00  0.0000000E+00  0.1515152E-01  0.3366341E-10  0.0000000E+00 -0.4094851E-04
  0.1363636E+00  0.0000000E+00  0.1515152E-01  0.3609399E-10  0.0000000E+00 -0.4094849E-04
  0.1464646E+00  0.0000000E+00  0.1515152E-01  0.3845440E-10  0.0000000E+00 -0.4094846E-04
  0.1565657E+00  0.0000000E+00  0.1515152E-01  0.4073658E-10  0.0000000E+00 -0.4094843E-04
  0.1666667E+00  0.0000000E+00  0.1515152E-01  0.4293169E-10  0.0000000E+00 -0.4094841E-04
  0.1767677E+00  0.0000000E+00  0.1515152E-01  0.4503016E-10  0.0000000E+00 -0.4094838E-04
  0.1868687E+00  0.0000000E+00  0.1515152E-01  0.4702186E-10  0.0000000E+00 -0.4094834E-04
  0.1969697E+00  0.0000000E+00  0.1515152E-01  0.4889637E-10  0.0000000E+00 -0.4094831E-04
  0.2070707E+00  0.0000000E+00  0.1515152E-01  0.5064301E-10  0.0000000E+00 -0.4094828E-04
  0.2171717E+00  0.0000000E+00  0.1515152E-01  0.5225106E-10  0.0000000E+00 -0.4094824E-04
  0.2272727E+00  0.0000000E+00  0.1515152E-01  0.5370984E-10  0.0000000E+00 -0.4094821E-04
  0.2373737E+00  0.0000000E+00  0.1515152E-01  0.5500884E-10  0.0000000E+00 -0.4094817E-04
  0.2474747E+00  0.0000000E+00  0.1515152E-01  0.5613778E-10  0.0000000E+00 -0.4094813E-04
  0.2575758E+00  0.0000000E+00  0.1515152E-01  0.5708667E-10  0.0000000E+00 -0.4094809E-04
  0.2676768E+00  0.0000000E+00  0.1515152E-01  0.5784593E-10  0.0000000E+00 -0.4094806E-04
  0.2777778E+00  0.0000000E+00  0.1515152E-01  0.5840647E-10  0.0000000E+00 -0.4094802E-04
  0.2878788E+00  0.0000000E+00  0.1515152E-01  0.5875975E-10  0.0000000E+00 -0.4094798E-04
  0.2979798E+00  0.0000000E+00  0.1515152E-01  0.5889797E-10  0.0000000E+00 -0.4094794E-04
  0.3080808E+00  0.0000000E+00  0.1515152E-01  0.5881414E-10  0.0000000E+00 -0.4094790E-04
  0.3181818E+00  0.0000000E+00  0.1515152E-01  0.5850216E-10  0.0000000E+00 -0.4094786E-04
  0.3282828E+00  0.0000000E+00  0.1515152E-01  0.5795707E-10  0.0000000E+00 -0.4094782E-04
  0.3383838E+00  0.0000000E+00  0.1515152E-01  0.5717501E-10  0.0000000E+00 -0.4094778E-04
  0.3484848E+00  0.0000000E+00  0.1515152E-01  0.5615346E-10  0.0000000E+00 -0.4094774E-04
  0.3585859E+00  0.0000000E+00  0.1515152E-01  0.5489129E-10  0.0000000E+00 -0.4094770E-04
  0.3686869E+00  0.0000000E+00  0.1515152E-01  0.5338885E-10  0.0000000E+00 -0.4094766E-04
  0.3787879E+00  0.0000000E+00  0.1515152E-01  0.5164807E-10  0.0000000E+00 -0.4094763E-04
  0.3888889E+00  0.0000000E+00  0.1515152E-01  0.4967249E-10  0.0000000E+00 -0.4094759E-04
  0.3989899E+00  0.0000000E+00  0.1515152E-01  0.4746732E-10  0.0000000E+00 -0.4094756E-04
  0.4090909E+00  0.0000000E+00  0.1515152E-01  0.4503943E-10  0.0000000E+00 -0.4094753E-04
  0.4191919E+00  0.0000000E+00  0.1515152E-01  0.4239733E-10  0.0000000E+00 -0.4094750E-04
  0.4292929E+00  0.0000000E+00  0.1515152E-01  0.3955116E-10  0.0000000E+00 -0.4094747E-04
  0.4393939E+00  0.0000000E+00  0.1515152E-01  0.3651259E-10  0.0000000E+00 -0.4094745E-04
  0.4494950E+00  0.0000000E+00  0.1515152E-01  0.3329483E-10  0.0000000E+00 -0.4094742E-04
  0.4595959E+00  0.0000000E+00  0.1515152E-01  0.2991250E-10  0.0000000E+00 -0.4094740E-04
  0.4696970E+00  0.0000000E+00  0.1515152E-01  0.2638151E-10  0.0000000E+00 -0.4094738E-04
  0.4797980E+00  0.0000000E+00  0.1515152E-01  0.2271897E-10  0.0000000E+00 -0.4094737E-04
  0.4898990E+00  0.0000000E+00  0.1515152E-01  0.1894306E-10  0.0000000E+00 -0.4094735E-04
  0.5000000E+00  0.0000000E+00  0.1515152E-01  0.1507286E-10  0.0000000E+00 -0.4094734E-04
  0.5101010E+00  0.0000000E+00  0.1515152E-01  0.1112818E-10  0.0000000E+00 -0.4094733E-04
  0.5202020E+00  0.0000000E+00  0.1515152E-01  0.7129311E-11  0.0000000E+00 -0.4094733E-04
  0.5303030E+00  0.0000000E+00  0.1515152E-01  0.3097072E-11  0.0000000E+00 -0.4094732E-04
  0.5404040E+00  0.0000000E+00  0.1515152E-01 -0.9459791E-12  0.0000000E+00 -0.4094732E-04
  0.5505050E+00  0.0000000E+00  0.1515152E-01 -0.4979930E-11  0.0000000E+00 -0.4094732E-04
  0.5606061E+00  0.0000000E+00  0.1515152E-01 -0.8975061E-11  0.0000000E+00 -0.4094733E-04
  0.5707071E+00  0.0000000E+00  0.1515152E-01 -0.1290922E-10  0.0000000E+00 -0.4094734E-04
  0.5808081E+00  0.0000000E+00  0.1515152E-01 -0.1676706E-10  0.0000000E+00 -0.4094735E-04
  0.5909091E+00  0.0000000E+00  0.1515152E-01 -0.2051430E-10  0.0000000E+00 -0.4094736E-04
  0.6010101E+00  0.0000000E+00  0.1515152E-01 -0.2413613E-10  0.0000000E+00 -0.4094737E-04
  0.6111111E+00  0.0000000E+00  0.1515152E-01 -0.2761754E-10  0.0000000E+00 -0.4094739E-04
  0.6212121E+00  0.0000000E+00  0.1515152E-01 -0.3093878E-10  0.0000000E+00 -0.4094741E-04
  0.6313131E+00  0.0000000E+00  0.1515152E-01 -0.3407916E-10  0.0000000E+00 -0.4094743E-04
  0.6414142E+00  0.0000000E+00  0.1515152E-01 -0.3702037E-10  0.0000000E+00 -0.4094746E-04
  0.6515151E+00  0.0000000E+00  0.1515152E-01 -0.3974772E-10  0.0000000E+00 -0.4094748E-04
  0.6616161E+00  0.0000000E+00  0.1515152E-01 -0.4224901E-10  0.0000000E+00 -0.4094751E-04
  0.6717172E+00  0.0000000E+00  0.1515152E-01 -0.4451421E-10  0.0000000E+00 -0.4094754E-04
  0.6818182E+00  0.0000000E+00  0.1515152E-01 -0.4653499E-10  0.0000000E+00 -0.4094757E-04
  0.6919192E+00  0.0000000E+00  0.1515152E-01 -0.4830448E-10  0.0000000E+00 -0.4094760E-04
  0.7020202E+00  0.0000000E+00  0.1515152E-01 -0.4981740E-10  0.0000000E+00 -0.4094764E-04
  0.7121212E+00  0.0000000E+00  0.1515152E-01 -0.5106998E-10  0.0000000E+00 -0.4094767E-04
  0.7222222E+00  0.0000000E+00  0.1515152E-01 -0.5206004E-10  0.0000000E+00 -0.4094771E-04
  0.7323232E+00  0.0000000E+00  0.1515152E-01 -0.5278689E-10  0.0000000E+00 -0.4094774E-04
  0.7424242E+00  0.0000000E+00  0.1515152E-01 -0.5325137E-10  0.0000000E+00 -0.4094778E-04
  0.7525253E+00  0.0000000E+00  0.1515152E-01 -0.5345574E-10  0.0000000E+00 -0.4094781E-04
  0.7626263E+00  0.0000000E+00  0.1515152E-01 -0.5340356E-10  0.0000000E+00 -0.4094785E-04
  0.7727273E+00  0.0000000E+00  0.1515152E-01 -0.5309965E-10  0.0000000E+00 -0.4094789E-04
  0.7828283E+00  0.0000000E+00  0.1515152E-01 -0.5254998E-10  0.0000000E+00 -0.4094792E-04
  0.7929293E+00  0.0000000E+00  0.1515152E-01 -0.5176149E-10  0.0000000E+00 -0.4094796E-04
  0.8030303E+00  0.0000000E+00  0.1515152E-01 -0.5074209E-10  0.0000000E+00 -0.4094799E-04
  0.8131313E+00  0.0000000E+00  0.1515152E-01 -0.4950046E-10  0.0000000E+00 -0.4094803E-04
  0.8232324E+00  0.0000000E+00  0.1515152E-01 -0.4804602E-10  0.0000000E+00 -0.4094806E-04
  0.8333333E+00  0.0000000E+00  0.1515152E-01 -0.4638876E-10  0.0000000E+00 -0.4094809E-04
  0.8434343E+00  0.0000000E+00  0.1515152E-01 -0.4453923E-10  0.0000000E+00 -0.4094812E-04
  0.8535354E+00  0.0000000E+00  0.1515152E-01 -0.4250837E-10  0.0000000E+00 -0.4094815E-04
  0.8636364E+00  0.0000000E+00  0.1515152E-01 -0.4030747E-10  0.0000000E+00 -0.4094818E-04
  0.8737374E+00  0.0000000E+00  0.1515152E-01 -0.3794811E-10  0.0000000E+00 -0.4094821E-04
  0.8838384E+00  0.0000000E+00  0.1515152E-01 -0.3544207E-10  0.0000000E+00 -0.4094823E-04
  0.8939394E+00  0.0000000E+00  0.1515152E-01 -0.3280132E-10  0.0000000E+00 -0.4094826E-04
  0.9040404E+00  0.0000000E+00  0.1515152E-01 -0.3003796E-10  0.0000000E+00 -0.4094828E-04
  0.9141414E+00  0.0000000E+00  0.1515152E-01 -0.2716420E-10  0.0000000E+00 -0.4094830E-04
  0.9242424E+00  0.0000000E+00  0.1515152E-01 -0.2419231E-10  0.0000000E+00 -0.4094831E-04
  0.9343435E+00  0.0000000E+00  0.1515152E-01 -0.2113454E-10  0.0000000E+00 -0.4094833E-04
  0.9444444E+00  0.0000000E+00  0.1515152E-01 -0.1800289E-10  0.0000000E+00 -0.4094834E-04
  0.9545454E+00  0.0000000E+00  0.1515152E-01 -0.1480895E-10  0.0000000E+00 -0.4094835E-04
  0.9646465E+00  0.0000000E+00  0.1515152E-01 -0.1156363E-10  0.0000000E+00 -0.4094836E-04
  0.9747475E+00  0.0000000E+00  0.1515152E-01 -0.8277020E-11  0.0000000E+00 -0.4094837E-04
  0.9848485E+00  0.0000000E+00  0.1515152E-01 -0.4958388E-11  0.0000000E+00 -0.4094837E-04
  0.9974747E+00  0.0000000E+00  0.1515152E-01 -0.1616204E-11  0.0000000E+00 -0.4094838E-04
  0.5050505E-02  0.0000000E+00  0.2525252E-01  0.2417255E-11  0.0000000E+00 -0.4064736E-04
  0.1515152E-01  0.0000000E+00  0.2525252E-01  0.7126499E-11  0.0000000E+00 -0.4064736E-04
  0.2525252E-01  0.0000000E+00  0.2525252E-01  0.1179642E-10  0.0000000E+00 -0.4064735E-04
  0.3535353E-01  0.0000000E+00  0.2525252E-01  0.1645749E-10  0.0000000E+00 -0.4064735E-04
  0.4545455E-01  0.0000000E+00  0.2525252E-01  0.2111192E-10  0.0000000E+00 -0.4064734E-04
  0.5555556E-01  0.0000000E+00  0.2525252E-01  0.2572702E-10  0.0000000E+00 -0.4064733E-04
  0.6565657E-01  0.0000000E+00  0.2525252E-01  0.3030612E-10  0.0000000E+00 -0.4064732E-04
  0.7575758E-01  0.0000000E+00  0.2525252E-01  0.3485270E-10  0.0000000E+00 -0.4064730E-04
  0.8585858E-01  0.0000000E+00  0.2525252E-01  0.3935810E-10  0.0000000E+00 -0.4064729E-04
  0.9595960E-01  0.0000000E+00  0.2525252E-01  0.4380758E-10  0.0000000E+00 -0.4064727E-04
  0.1060606E+00  0.0000000E+00  0.2525252E-01  0.4818630E-10  0.0000000E+00 -0.4064725E-04
  0.1161616E+00  0.0000000E+00  0.2525252E-01  0.5248190E-10  0.0000000E+00 -0.4064723E-04
  0.1262626E+00  0.0000000E+00  0.2525252E-01  0.5668320E-10  0.0000000E+00 -0.4064721E-04
  0.1363636E+00  0.0000000E+00  0.2525252E-01  0.6077895E-10  0.0000000E+00 -0.4064718E-04
  0.1464646E+00  0.0000000E+00  0.2525252E-01  0.6475702E-10  0.0000000E+00 -0.4064716E-04
  0.1565657E+00  0.0000000E+00  0.2525252E-01  0.6860382E-10  0.0000000E+00 -0.4064713E-04
  0.1666667E+00  0.0000000E+00  0.2525252E-01  0.7230444E-10  0.0000000E+00 -0.4064710E-04
  0.1767677E+00  0.0000000E+00  0.2525252E-01  0.7584281E-10  0.0000000E+00 -0.4064707E-04
  0.1868687E+00  0.0000000E+00  0.2525252E-01  0.7920188E-10  0.0000000E+00 -0.4064704E-04
  0.1969697E+00  0.0000000E+00  0.2525252E-01  0.8236403E-10  0.0000000E+00 -0.4064700E-04
  0.2070707E+00  0.0000000E+00  0.2525252E-01  0.8531132E-10  0.0000000E+00 -0.4064697E-04
  0.2171717E+00  0.0000000E+00  0.2525252E-01  0.8802564E-10  0.0000000E+00 -0.4064693E-04
  0.2272727E+00  0.0000000E+00  0.2525252E-01  0.9048898E-10  0.0000000E+00 -0.4064689E-04
  0.2373737E+00  0.0000000E+00  0.2525252E-01  0.9268355E-10  0.0000000E+00 -0.4064686E-04
  0.2474747E+00  0.0000000E+00  0.2525252E-01  0.9459196E-10  0.0000000E+00 -0.4064682E-04
  0.2575758E+00  0.0000000E+00  0.2525252E-01  0.9619732E-10  0.0000000E+00 -0.4064678E-04
  0.2676768E+00  0.0000000E+00  0.2525252E-01  0.9748338E-10  0.0000000E+00 -0.4064674E-04
  0.2777778E+00  0.0000000E+00  0.2525252E-01  0.9843470E-10  0.0000000E+00 -0.4064670E-04
  0.2878788E+00  0.0000000E+00  0.2525252E-01  0.9903684E-10  0.0000000E+00 -0.4064665E-04
  0.2979798E+00  0.0000000E+00  0.2525252E-01  0.9927650E-10  0.0000000E+00 -0.4064661E-04
  0.3080808E+00  0.0000000E+00  0.2525252E-01  0.9914180E-10  0.0000000E+00 -0.4064657E-04
  0.3181818E+00  0.0000000E+00  0.2525252E-01  0.9862238E-10  0.0000000E+00 -0.4064653E-04
  0.3282828E+00  0.0000000E+00  0.2525252E-01  0.9770972E-10  0.0000000E+00 -0.4064649E-04
  0.3383838E+00  0.0000000E+00  0.2525252E-01  0.9639725E-10  0.0000000E+00 -0.4064645E-04
  0.3484848E+00  0.0000000E+00  0.2525252E-01  0.9468062E-10  0.0000000E+00 -0.4064641E-04
  0.3585859E+00  0.0000000E+00  0.2525252E-01  0.9255781E-10  0.0000000E+00 -0.4064637E-04
  0.3686869E+00  0.0000000E+00  0.2525252E-01  0.9002933E-10  0.0000000E+00 -0.4064633E-04
  0.3787879E+00  0.0000000E+00  0.2525252E-01  0.8709834E-10  0.0000000E+00 -0.4064629E-04
  0.3888889E+00  0.0000000E+00  0.2525252E-01  0.8377074E-10  0.0000000E+00 -0.4064626E-04
  0.3989899E+00  0.0000000E+00  0.2525252E-01  0.8005522E-10  0.0000000E+00 -0.4064622E-04
  0.4090909E+00  0.0000000E+00  0.2525252E-01  0.7596332E-10  0.0000000E+00 -0.4064619E-04
  0.4191919E+00  0.0000000E+00  0.2525252E-01  0.7150933E-10  0.0000000E+00 -0.4064616E-04
  0.4292929E+00  0.0000000E+00  0.2525252E-01  0.6671035E-10  0.0000000E+00 -0.4064613E-04
  0.4393939E+00  0.0000000E+00  0.2525252E-01  0.6158610E-10  0.0000000E+00 -0.4064610E-04
  0.4494950E+00  0.0000000E+00  0.2525252E-01  0.5615889E-10  0.0000000E+00 -0.4064608E-04
  0.4595959E+00  0.0000000E+00  0.2525252E-01  0.5045348E-10  0.0000000E+00 -0.4064606E-04
  0.4696970E+00  0.0000000E+00  0.2525252E-01  0.4449685E-10  0.0000000E+00 -0.4064604E-04
  0.4797980E+00  0.0000000E+00  0.2525252E-01  0.3831801E-10  0.0000000E+00 -0.4064602E-04
  0.4898990E+00  0.0000000E+00  0.2525252E-01  0.3194766E-10  0.0000000E+00 -0.4064601E-04
  0.5000000E+00  0.0000000E+00  0.2525252E-01  0.2541792E-10  0.0000000E+00 -0.4064599E-04
  0.5101010E+00  0.0000000E+00  0.2525252E-01  0.1876211E-10  0.0000000E+00 -0.4064598E-04
  0.5202020E+00  0.0000000E+00  0.2525252E-01  0.1201418E-10  0.0000000E+00 -0.4064598E-04
  0.5303030E+00  0.0000000E+00  0.2525252E-01  0.5208768E-11  0.0000000E+00 -0.4064597E-04
  0.5404040E+00  0.0000000E+00  0.2525252E-01 -0.1614139E-11  0.0000000E+00 -0.4064597E-04
  0.5505050E+00  0.0000000E+00  0.2525252E-01 -0.8420595E-11  0.0000000E+00 -0.4064598E-04
  0.5606061E+00  0.0000000E+00  0.2525252E-01 -0.1516411E-10  0.0000000E+00 -0.4064598E-04
  0.5707071E+00  0.0000000E+00  0.2525252E-01 -0.2180093E-10  0.0000000E+00 -0.4064599E-04
  0.5808081E+00  0.0000000E+00  0.2525252E-01 -0.2830990E-10  0.0000000E+00 -0.4064600E-04
  0.5909091E+00  0.0000000E+00  0.2525252E-01 -0.3463385E-10  0.0000000E+00 -0.4064601E-04
  0.6010101E+00  0.0000000E+00  0.2525252E-01 -0.4074482E-10  0.0000000E+00 -0.4064603E-04
  0.6111111E+00  0.0000000E+00  0.2525252E-01 -0.4661692E-10  0.0000000E+00 -0.4064605E-04
  0.6212121E+00  0.0000000E+00  0.2525252E-01 -0.5221765E-10  0.0000000E+00 -0.4064607E-04
  0.6313131E+00  0.0000000E+00  0.2525252E-01 -0.5751307E-10  0.0000000E+00 -0.4064609E-04
  0.6414142E+00  0.0000000E+00  0.2525252E-01 -0.6247260E-10  0.0000000E+00 -0.4064612E-04
  0.6515151E+00  0.0000000E+00  0.2525252E-01 -0.6707121E-10  0.0000000E+00 -0.4064614E-04
  0.6616161E+00  0.0000000E+00  0.2525252E-01 -0.7128824E-10  0.0000000E+00 -0.4064617E-04
  0.6717172E+00  0.0000000E+00  0.2525252E-01 -0.7510659E-10  0.0000000E+00 -0.4064620E-04
  0.6818182E+00  0.0000000E+00  0.2525252E-01 -0.7851214E-10  0.0000000E+00 -0.4064623E-04
  0.6919192E+00  0.0000000E+00  0.2525252E-01 -0.8149339E-10  0.0000000E+00 -0.4064627E-04
  0.7020202E+00  0.0000000E+00  0.2525252E-01 -0.8404144E-10  0.0000000E+00 -0.4064630E-04
  0.7121212E+00  0.0000000E+00  0.2525252E-01 -0.8615003E-10  0.0000000E+00 -0.4064634E-04
  0.7222222E+00  0.0000000E+00  0.2525252E-01 -0.8781553E-10  0.0000000E+00 -0.4064637E-04
  0.7323232E+00  0.0000000E+00  0.2525252E-01 -0.8903690E-10  0.0000000E+00 -0.4064641E-04
  0.7424242E+00  0.0000000E+00  0.2525252E-01 -0.8981563E-10  0.0000000E+00 -0.4064645E-04
  0.7525253E+00  0.0000000E+00  0.2525252E-01 -0.9015558E-10  0.0000000E+00 -0.4064649E-04
  0.7626263E+00  0.0000000E+00  0.2525252E-01 -0.9006288E-10  0.0000000E+00 -0.4064652E-04
  0.7727273E+00  0.0000000E+00  0.2525252E-01 -0.8954574E-10  0.0000000E+00 -0.4064656E-04
  0.7828283E+00  0.0000000E+00  0.2525252E-01 -0.8861427E-10  0.0000000E+00 -0.4064660E-04
  0.7929293E+00  0.0000000E+00  0.2525252E-01 -0.8728029E-10  0.0000000E+00 -0.4064664E-04
  0.8030303E+00  0.0000000E+00  0.2525252E-01 -0.8555720E-10  0.0000000E+00 -0.4064667E-04
  0.8131313E+00  0.0000000E+00  0.2525252E-01 -0.8345972E-10  0.0000000E+00 -0.4064671E-04
  0.8232324E+00  0.0000000E+00  0.2525252E-01 -0.8100379E-10  0.0000000E+00 -0.4064674E-04
  0.8333333E+00  0.0000000E+00  0.2525252E-01 -0.7820632E-10  0.0000000E+00 -0.4064678E-04
  0.8434343E+00  0.0000000E+00  0.2525252E-01 -0.7508512E-10  0.0000000E+00 -0.4064681E-04
  0.8535354E+00  0.0000000E+00  0.2525252E-01 -0.7165867E-10  0.0000000E+00 -0.4064684E-04
  0.8636364E+00  0.0000000E+00  0.2525252E-01 -0.6794601E-10  0.0000000E+00 -0.4064687E-04
  0.8737374E+00  0.0000000E+00  0.2525252E-01 -0.6396665E-10  0.0000000E+00 -0.4064689E-04
  0.8838384E+00  0.0000000E+00  0.2525252E-01 -0.5974047E-10  0.0000000E+00 -0.4064692E-04
  0.8939394E+00  0.0000000E+00  0.2525252E-01 -0.5528762E-10  0.0000000E+00 -0.4064694E-04
  0.9040404E+00  0.0000000E+00  0.2525252E-01 -0.5062852E-10  0.0000000E+00 -0.4064697E-04
  0.9141414E+00  0.0000000E+00  0.2525252E-01 -0.4578382E-10  0.0000000E+00 -0.4064699E-04
  0.9242424E+00  0.0000000E+00  0.2525252E-01 -0.4077430E-10  0.0000000E+00 -0.4064701E-04
  0.9343435E+00  0.0000000E+00  0.2525252E-01 -0.3562067E-10  0.0000000E+00 -0.4064702E-04
  0.9444444E+00  0.0000000E+00  0.2525252E-01 -0.3034325E-10  0.0000000E+00 -0.4064703E-04
  0.9545454E+00  0.0000000E+00  0.2525252E-01 -0.2496159E-10  0.0000000E+00 -0.4064705E-04
  0.9646465E+00  0.0000000E+00  0.2525252E-01 -0.1949407E-10  0.0000000E+00 -0.4064706E-04
  0.9747475E+00  0.0000000E+00  0.2525252E-01 -0.1395806E-10  0.0000000E+00 -0.4064706E-04
  0.9848485E+00  0.0000000E+00  0.2525252E-01 -0.8370607E-11  0.0000000E+00 -0.4064707E-04
  0.9974747E+00  0.0000000E+00  0.2525252E-01 -0.2751064E-11  0.0000000E+00 -0.4064707E-04
  0.5050505E-02  0.0000000E+00  0.3535353E-01  0.3414495E-11  0.0000000E+00 -0.4019921E-04
  0.1515152E-01  0.0000000E+00  0.3535353E-01  0.1011367E-10  0.0000000E+00 -0.4019921E-04
  0.2525252E-01  0.0000000E+00  0.3535353E-01  0.1676310E-10  0.0000000E+00 -0.4019920E-04
  0.3535353E-01  0.0000000E+00  0.3535353E-01  0.2339564E-10  0.0000000E+00 -0.4019920E-04
  0.4545455E-01  0.0000000E+00  0.3535353E-01  0.3001582E-10  0.0000000E+00 -0.4019919E-04
  0.5555556E-01  0.0000000E+00  0.3535353E-01  0.3658124E-10  0.0000000E+00 -0.4019918E-04
  0.6565657E-01  0.0000000E+00  0.3535353E-01  0.4309495E-10  0.0000000E+00 -0.4019917E-04
  0.7575758E-01  0.0000000E+00  0.3535353E-01  0.4956158E-10  0.0000000E+00 -0.4019915E-04
  0.8585858E-01  0.0000000E+00  0.3535353E-01  0.5596976E-10  0.0000000E+00 -0.4019914E-04
  0.9595960E-01  0.0000000E+00  0.3535353E-01  0.6229955E-10  0.0000000E+00 -0.4019912E-04
  0.1060606E+00  0.0000000E+00  0.3535353E-01  0.6853032E-10  0.0000000E+00 -0.4019910E-04
  0.1161616E+00  0.0000000E+00  0.3535353E-01  0.7464433E-10  0.0000000E+00 -0.4019908E-04
  0.1262626E+00  0.0000000E+00  0.3535353E-01  0.8062549E-10  0.0000000E+00 -0.4019905E-04
  0.1363636E+00  0.0000000E+00  0.3535353E-01  0.8645766E-10  0.0000000E+00 -0.4019903E-04
  0.1464646E+00  0.0000000E+00  0.3535353E-01  0.9212342E-10  0.0000000E+00 -0.4019900E-04
  0.1565657E+00  0.0000000E+00  0.3535353E-01  0.9760345E-10  0.0000000E+00 -0.4019897E-04
  0.1666667E+00  0.0000000E+00  0.3535353E-01  0.1028765E-09  0.0000000E+00 -0.4019894E-04
  0.1767677E+00  0.0000000E+00  0.3535353E-01  0.1079199E-09  0.0000000E+00 -0.4019891E-04
  0.1868687E+00  0.0000000E+00  0.3535353E-01  0.1127092E-09  0.0000000E+00 -0.4019887E-04
  0.1969697E+00  0.0000000E+00  0.3535353E-01  0.1172194E-09  0.0000000E+00 -0.4019884E-04
  0.2070707E+00  0.0000000E+00  0.3535353E-01  0.1214248E-09  0.0000000E+00 -0.4019880E-04
  0.2171717E+00  0.0000000E+00  0.3535353E-01  0.1252998E-09  0.0000000E+00 -0.4019876E-04
  0.2272727E+00  0.0000000E+00  0.3535353E-01  0.1288185E-09  0.0000000E+00 -0.4019872E-04
  0.2373737E+00  0.0000000E+00  0.3535353E-01  0.1319555E-09  0.0000000E+00 -0.4019868E-04
  0.2474747E+00  0.0000000E+00  0.3535353E-01  0.1346859E-09  0.0000000E+00 -0.4019864E-04
  0.2575758E+00  0.0000000E+00  0.3535353E-01  0.1369854E-09  0.0000000E+00 -0.4019860E-04
  0.2676768E+00  0.0000000E+00  0.3535353E-01  0.1388309E-09  0.0000000E+00 -0.4019856E-04
  0.2777778E+00  0.0000000E+00  0.3535353E-01  0.1401999E-09  0.0000000E+00 -0.4019851E-04
  0.2878788E+00  0.0000000E+00  0.3535353E-01  0.1410718E-09  0.0000000E+00 -0.4019847E-04
  0.2979798E+00  0.0000000E+00  0.3535353E-01  0.1414274E-09  0.0000000E+00 -0.4019843E-04