title = "dataset water"
variables = "x", "y", "z", "vx", "vy", "vz"
zone t = "velocities, solution time =  4.400E+01 days        " i =   99, j =   99, k =    1,  f=point
  0.5050505E-02  0.0000000E+00  0.5050505E-02  0.3562000E-07  0.0000000E+00  0.3906841E-04
  0.1515152E-01  0.0000000E+00  0.5050505E-02  0.1069683E-06  0.0000000E+00  0.3921210E-04
  0.2525252E-01  0.0000000E+00  0.5050505E-02  0.1786431E-06  0.0000000E+00  0.3949992E-04
  0.3535353E-01  0.0000000E+00  0.5050505E-02  0.2508656E-06  0.0000000E+00  0.3993278E-04
  0.4545455E-01  0.0000000E+00  0.5050505E-02  0.3238612E-06  0.0000000E+00  0.4051201E-04
  0.5555556E-01  0.0000000E+00  0.5050505E-02  0.3978602E-06  0.0000000E+00  0.4123944E-04
  0.6565657E-01  0.0000000E+00  0.5050505E-02  0.4730999E-06  0.0000000E+00  0.4211736E-04
  0.7575758E-01  0.0000000E+00  0.5050505E-02  0.5498254E-06  0.0000000E+00  0.4314858E-04
  0.8585858E-01  0.0000000E+00  0.5050505E-02  0.6282920E-06  0.0000000E+00  0.4433640E-04
  0.9595960E-01  0.0000000E+00  0.5050505E-02  0.7087666E-06  0.0000000E+00  0.4568467E-04
  0.1060606E+00  0.0000000E+00  0.5050505E-02  0.7915297E-06  0.0000000E+00  0.4719779E-04
  0.1161616E+00  0.0000000E+00  0.5050505E-02  0.8768780E-06  0.0000000E+00  0.4888077E-04
  0.1262626E+00  0.0000000E+00  0.5050505E-02  0.9651264E-06  0.0000000E+00  0.5073924E-04
  0.1363636E+00  0.0000000E+00  0.5050505E-02  0.1056611E-05  0.0000000E+00  0.5277952E-04
  0.1464646E+00  0.0000000E+00  0.5050505E-02  0.1151692E-05  0.0000000E+00  0.5500864E-04
  0.1565657E+00  0.0000000E+00  0.5050505E-02  0.1250758E-05  0.0000000E+00  0.5743439E-04
  0.1666667E+00  0.0000000E+00  0.5050505E-02  0.1354229E-05  0.0000000E+00  0.6006542E-04
  0.1767677E+00  0.0000000E+00  0.5050505E-02  0.1462561E-05  0.0000000E+00  0.6291129E-04
  0.1868687E+00  0.0000000E+00  0.5050505E-02  0.1576253E-05  0.0000000E+00  0.6598254E-04
  0.1969697E+00  0.0000000E+00  0.5050505E-02  0.1695851E-05  0.0000000E+00  0.6929082E-04
  0.2070707E+00  0.0000000E+00  0.5050505E-02  0.1821954E-05  0.0000000E+00  0.7284895E-04
  0.2171717E+00  0.0000000E+00  0.5050505E-02  0.1955228E-05  0.0000000E+00  0.7667109E-04
  0.2272727E+00  0.0000000E+00  0.5050505E-02  0.2096408E-05  0.0000000E+00  0.8077288E-04
  0.2373737E+00  0.0000000E+00  0.5050505E-02  0.2246313E-05  0.0000000E+00  0.8517155E-04
  0.2474747E+00  0.0000000E+00  0.5050505E-02  0.2405862E-05  0.0000000E+00  0.8988620E-04
  0.2575758E+00  0.0000000E+00  0.5050505E-02  0.2576082E-05  0.0000000E+00  0.9493795E-04
  0.2676768E+00  0.0000000E+00  0.5050505E-02  0.2758131E-05  0.0000000E+00  0.1003502E-03
  0.2777778E+00  0.0000000E+00  0.5050505E-02  0.2953320E-05  0.0000000E+00  0.1061491E-03
  0.2878788E+00  0.0000000E+00  0.5050505E-02  0.3163135E-05  0.0000000E+00  0.1123636E-03
  0.2979798E+00  0.0000000E+00  0.5050505E-02  0.3389266E-05  0.0000000E+00  0.1190261E-03
  0.3080808E+00  0.0000000E+00  0.5050505E-02  0.3633645E-05  0.0000000E+00  0.1261728E-03
  0.3181818E+00  0.0000000E+00  0.5050505E-02  0.3898480E-05  0.0000000E+00  0.1338444E-03
  0.3282828E+00  0.0000000E+00  0.5050505E-02  0.4186308E-05  0.0000000E+00  0.1420866E-03
  0.3383838E+00  0.0000000E+00  0.5050505E-02  0.4500040E-05  0.0000000E+00  0.1509510E-03
  0.3484848E+00  0.0000000E+00  0.5050505E-02  0.4843025E-05  0.0000000E+00  0.1604958E-03
  0.3585859E+00  0.0000000E+00  0.5050505E-02  0.5219114E-05  0.0000000E+00  0.1707873E-03
  0.3686869E+00  0.0000000E+00  0.5050505E-02  0.5632721E-05  0.0000000E+00  0.1819003E-03
  0.3787879E+00  0.0000000E+00  0.5050505E-02  0.6088893E-05  0.0000000E+00  0.1939203E-03
  0.3888889E+00  0.0000000E+00  0.5050505E-02  0.6593350E-05  0.0000000E+00  0.2069445E-03
  0.3989899E+00  0.0000000E+00  0.5050505E-02  0.7152507E-05  0.0000000E+00  0.2210834E-03
  0.4090909E+00  0.0000000E+00  0.5050505E-02  0.7773431E-05  0.0000000E+00  0.2364625E-03
  0.4191919E+00  0.0000000E+00  0.5050505E-02  0.8463694E-05  0.0000000E+00  0.2532239E-03
  0.4292929E+00  0.0000000E+00  0.5050505E-02  0.9231085E-05  0.0000000E+00  0.2715273E-03
  0.4393939E+00  0.0000000E+00  0.5050505E-02  0.1008312E-04  0.0000000E+00  0.2915503E-03
  0.4494950E+00  0.0000000E+00  0.5050505E-02  0.1102634E-04  0.0000000E+00  0.3134876E-03
  0.4595959E+00  0.0000000E+00  0.5050505E-02  0.1206547E-04  0.0000000E+00  0.3375490E-03
  0.4696970E+00  0.0000000E+00  0.5050505E-02  0.1320287E-04  0.0000000E+00  0.3639551E-03
  0.4797980E+00  0.0000000E+00  0.5050505E-02  0.1443930E-04  0.0000000E+00  0.3929344E-03
  0.4898990E+00  0.0000000E+00  0.5050505E-02  0.1577848E-04  0.0000000E+00  0.4247250E-03
  0.5000000E+00  0.0000000E+00  0.5050505E-02  0.1724145E-04  0.0000000E+00  0.4595971E-03
  0.5101010E+00  0.0000000E+00  0.5050505E-02  0.1890468E-04  0.0000000E+00  0.4979317E-03
  0.5202020E+00  0.0000000E+00  0.5050505E-02  0.2099775E-04  0.0000000E+00  0.5404465E-03
  0.5303030E+00  0.0000000E+00  0.5050505E-02  0.2416074E-04  0.0000000E+00  0.5888104E-03
  0.5404040E+00  0.0000000E+00  0.5050505E-02  0.3018500E-04  0.0000000E+00  0.6473607E-03
  0.5505050E+00  0.0000000E+00  0.5050505E-02  0.4449959E-04  0.0000000E+00  0.7284207E-03
  0.5606061E+00  0.0000000E+00  0.5050505E-02  0.5355726E-04  0.0000000E+00  0.8358585E-03
  0.5707071E+00  0.0000000E+00  0.5050505E-02 -0.3246023E-04  0.0000000E+00  0.8588987E-03
  0.5808081E+00  0.0000000E+00  0.5050505E-02 -0.7637212E-04  0.0000000E+00  0.7400256E-03
  0.5909091E+00  0.0000000E+00  0.5050505E-02 -0.4249770E-04  0.0000000E+00  0.6114559E-03
  0.6010101E+00  0.0000000E+00  0.5050505E-02 -0.2876525E-04  0.0000000E+00  0.5351433E-03
  0.6111111E+00  0.0000000E+00  0.5050505E-02 -0.2193742E-04  0.0000000E+00  0.4812161E-03
  0.6212121E+00  0.0000000E+00  0.5050505E-02 -0.1795397E-04  0.0000000E+00  0.4390087E-03
  0.6313131E+00  0.0000000E+00  0.5050505E-02 -0.1534023E-04  0.0000000E+00  0.4039326E-03
  0.6414142E+00  0.0000000E+00  0.5050505E-02 -0.1346948E-04  0.0000000E+00  0.3736927E-03
  0.6515151E+00  0.0000000E+00  0.5050505E-02 -0.1203945E-04  0.0000000E+00  0.3470043E-03
  0.6616161E+00  0.0000000E+00  0.5050505E-02 -0.1089006E-04  0.0000000E+00  0.3230841E-03
  0.6717172E+00  0.0000000E+00  0.5050505E-02 -0.9930420E-05  0.0000000E+00  0.3014212E-03
  0.6818182E+00  0.0000000E+00  0.5050505E-02 -0.9106047E-05  0.0000000E+00  0.2816619E-03
  0.6919192E+00  0.0000000E+00  0.5050505E-02 -0.8382710E-05  0.0000000E+00  0.2635491E-03
  0.7020202E+00  0.0000000E+00  0.5050505E-02 -0.7737977E-05  0.0000000E+00  0.2468868E-03
  0.7121212E+00  0.0000000E+00  0.5050505E-02 -0.7156556E-05  0.0000000E+00  0.2315207E-03
  0.7222222E+00  0.0000000E+00  0.5050505E-02 -0.6627623E-05  0.0000000E+00  0.2173245E-03
  0.7323232E+00  0.0000000E+00  0.5050505E-02 -0.6143235E-05  0.0000000E+00  0.2041930E-03
  0.7424242E+00  0.0000000E+00  0.5050505E-02 -0.5697349E-05  0.0000000E+00  0.1920360E-03
  0.7525253E+00  0.0000000E+00  0.5050505E-02 -0.5285220E-05  0.0000000E+00  0.1807754E-03
  0.7626263E+00  0.0000000E+00  0.5050505E-02 -0.4902999E-05  0.0000000E+00  0.1703425E-03
  0.7727273E+00  0.0000000E+00  0.5050505E-02 -0.4547481E-05  0.0000000E+00  0.1606765E-03
  0.7828283E+00  0.0000000E+00  0.5050505E-02 -0.4215934E-05  0.0000000E+00  0.1517230E-03
  0.7929293E+00  0.0000000E+00  0.5050505E-02 -0.3905987E-05  0.0000000E+00  0.1434332E-03
  0.8030303E+00  0.0000000E+00  0.5050505E-02 -0.3615550E-05  0.0000000E+00  0.1357635E-03
  0.8131313E+00  0.0000000E+00  0.5050505E-02 -0.3342760E-05  0.0000000E+00  0.1286742E-03
  0.8232324E+00  0.0000000E+00  0.5050505E-02 -0.3085944E-05  0.0000000E+00  0.1221297E-03
  0.8333333E+00  0.0000000E+00  0.5050505E-02 -0.2843588E-05  0.0000000E+00  0.1160978E-03
  0.8434343E+00  0.0000000E+00  0.5050505E-02 -0.2614315E-05  0.0000000E+00  0.1105494E-03
  0.8535354E+00  0.0000000E+00  0.5050505E-02 -0.2396864E-05  0.0000000E+00  0.1054583E-03
  0.8636364E+00  0.0000000E+00  0.5050505E-02 -0.2190080E-05  0.0000000E+00  0.1008009E-03
  0.8737374E+00  0.0000000E+00  0.5050505E-02 -0.1992897E-05  0.0000000E+00  0.9655584E-04
  0.8838384E+00  0.0000000E+00  0.5050505E-02 -0.1804330E-05  0.0000000E+00  0.9270408E-04
  0.8939394E+00  0.0000000E+00  0.5050505E-02 -0.1623463E-05  0.0000000E+00  0.8922853E-04
  0.9040404E+00  0.0000000E+00  0.5050505E-02 -0.1449442E-05  0.0000000E+00  0.8611400E-04
  0.9141414E+00  0.0000000E+00  0.5050505E-02 -0.1281466E-05  0.0000000E+00  0.8334703E-04
  0.9242424E+00  0.0000000E+00  0.5050505E-02 -0.1118781E-05  0.0000000E+00  0.8091582E-04
  0.9343435E+00  0.0000000E+00  0.5050505E-02 -0.9606731E-06  0.0000000E+00  0.7881008E-04
  0.9444444E+00  0.0000000E+00  0.5050505E-02 -0.8064627E-06  0.0000000E+00  0.7702099E-04
  0.9545454E+00  0.0000000E+00  0.5050505E-02 -0.6555000E-06  0.0000000E+00  0.7554114E-04
  0.9646465E+00  0.0000000E+00  0.5050505E-02 -0.5071590E-06  0.0000000E+00  0.7436442E-04
  0.9747475E+00  0.0000000E+00  0.5050505E-02 -0.3608341E-06  0.0000000E+00  0.7348603E-04
  0.9848485E+00  0.0000000E+00  0.5050505E-02 -0.2159352E-06  0.0000000E+00  0.7290239E-04
  0.9974747E+00  0.0000000E+00  0.5050505E-02 -0.7188484E-07  0.0000000E+00  0.7261115E-04
  0.5050505E-02  0.0000000E+00  0.1515152E-01  0.1067433E-06  0.0000000E+00  0.3907361E-04
  0.1515152E-01  0.0000000E+00  0.1515152E-01  0.3205546E-06  0.0000000E+00  0.3921725E-04
  0.2525252E-01  0.0000000E+00  0.1515152E-01  0.5353451E-06  0.0000000E+00  0.3950496E-04
  0.3535353E-01  0.0000000E+00  0.1515152E-01  0.7517772E-06  0.0000000E+00  0.3993764E-04
  0.4545455E-01  0.0000000E+00  0.1515152E-01  0.9705254E-06  0.0000000E+00  0.4051663E-04
  0.5555556E-01  0.0000000E+00  0.1515152E-01  0.1192280E-05  0.0000000E+00  0.4124375E-04
  0.6565657E-01  0.0000000E+00  0.1515152E-01  0.1417750E-05  0.0000000E+00  0.4212128E-04
  0.7575758E-01  0.0000000E+00  0.1515152E-01  0.1647670E-05  0.0000000E+00  0.4315200E-04
  0.8585858E-01  0.0000000E+00  0.1515152E-01  0.1882805E-05  0.0000000E+00  0.4433922E-04
  0.9595960E-01  0.0000000E+00  0.1515152E-01  0.2123953E-05  0.0000000E+00  0.4568676E-04
  0.1060606E+00  0.0000000E+00  0.1515152E-01  0.2371954E-05  0.0000000E+00  0.4719901E-04
  0.1161616E+00  0.0000000E+00  0.1515152E-01  0.2627696E-05  0.0000000E+00  0.4888096E-04
  0.1262626E+00  0.0000000E+00  0.1515152E-01  0.2892120E-05  0.0000000E+00  0.5073822E-04
  0.1363636E+00  0.0000000E+00  0.1515152E-01  0.3166234E-05  0.0000000E+00  0.5277706E-04
  0.1464646E+00  0.0000000E+00  0.1515152E-01  0.3451114E-05  0.0000000E+00  0.5500449E-04
  0.1565657E+00  0.0000000E+00  0.1515152E-01  0.3747923E-05  0.0000000E+00  0.5742827E-04
  0.1666667E+00  0.0000000E+00  0.1515152E-01  0.4057918E-05  0.0000000E+00  0.6005700E-04
  0.1767677E+00  0.0000000E+00  0.1515152E-01  0.4382462E-05  0.0000000E+00  0.6290018E-04
  0.1868687E+00  0.0000000E+00  0.1515152E-01  0.4723047E-05  0.0000000E+00  0.6596831E-04
  0.1969697E+00  0.0000000E+00  0.1515152E-01  0.5081303E-05  0.0000000E+00  0.6927295E-04
  0.2070707E+00  0.0000000E+00  0.1515152E-01  0.5459028E-05  0.0000000E+00  0.7282685E-04
  0.2171717E+00  0.0000000E+00  0.1515152E-01  0.5858205E-05  0.0000000E+00  0.7664409E-04
  0.2272727E+00  0.0000000E+00  0.1515152E-01  0.6281033E-05  0.0000000E+00  0.8074018E-04
  0.2373737E+00  0.0000000E+00  0.1515152E-01  0.6729963E-05  0.0000000E+00  0.8513225E-04
  0.2474747E+00  0.0000000E+00  0.1515152E-01  0.7207731E-05  0.0000000E+00  0.8983924E-04
  0.2575758E+00  0.0000000E+00  0.1515152E-01  0.7717411E-05  0.0000000E+00  0.9488210E-04
  0.2676768E+00  0.0000000E+00  0.1515152E-01  0.8262461E-05  0.0000000E+00  0.1002841E-03
  0.2777778E+00  0.0000000E+00  0.1515152E-01  0.8846791E-05  0.0000000E+00  0.1060710E-03
  0.2878788E+00  0.0000000E+00  0.1515152E-01  0.9474838E-05  0.0000000E+00  0.1122715E-03
  0.2979798E+00  0.0000000E+00  0.1515152E-01  0.1015165E-04  0.0000000E+00  0.1189178E-03
  0.3080808E+00  0.0000000E+00  0.1515152E-01  0.1088299E-04  0.0000000E+00  0.1260457E-03
  0.3181818E+00  0.0000000E+00  0.1515152E-01  0.1167544E-04  0.0000000E+00  0.1336953E-03
  0.3282828E+00  0.0000000E+00  0.1515152E-01  0.1253659E-04  0.0000000E+00  0.1419119E-03
  0.3383838E+00  0.0000000E+00  0.1515152E-01  0.1347511E-04  0.0000000E+00  0.1507464E-03
  0.3484848E+00  0.0000000E+00  0.1515152E-01  0.1450103E-04  0.0000000E+00  0.1602565E-03
  0.3585859E+00  0.0000000E+00  0.1515152E-01  0.1562583E-04  0.0000000E+00  0.1705075E-03
  0.3686869E+00  0.0000000E+00  0.1515152E-01  0.1686274E-04  0.0000000E+00  0.1815734E-03
  0.3787879E+00  0.0000000E+00  0.1515152E-01  0.1822687E-04  0.0000000E+00  0.1935388E-03
  0.3888889E+00  0.0000000E+00  0.1515152E-01  0.1973541E-04  0.0000000E+00  0.2064998E-03
  0.3989899E+00  0.0000000E+00  0.1515152E-01  0.2140768E-04  0.0000000E+00  0.2205661E-03
  0.4090909E+00  0.0000000E+00  0.1515152E-01  0.2326506E-04  0.0000000E+00  0.2358626E-03
  0.4191919E+00  0.0000000E+00  0.1515152E-01  0.2533060E-04  0.0000000E+00  0.2525313E-03
  0.4292929E+00  0.0000000E+00  0.1515152E-01  0.2762818E-04  0.0000000E+00  0.2707326E-03
  0.4393939E+00  0.0000000E+00  0.1515152E-01  0.3018105E-04  0.0000000E+00  0.2906460E-03
  0.4494950E+00  0.0000000E+00  0.1515152E-01  0.3300963E-04  0.0000000E+00  0.3124699E-03
  0.4595959E+00  0.0000000E+00  0.1515152E-01  0.3612861E-04  0.0000000E+00  0.3364190E-03
  0.4696970E+00  0.0000000E+00  0.1515152E-01  0.3954424E-04  0.0000000E+00  0.3627188E-03
  0.4797980E+00  0.0000000E+00  0.1515152E-01  0.4325425E-04  0.0000000E+00  0.3915972E-03
  0.4898990E+00  0.0000000E+00  0.1515152E-01  0.4725613E-04  0.0000000E+00  0.4232730E-03
  0.5000000E+00  0.0000000E+00  0.1515152E-01  0.5157705E-04  0.0000000E+00  0.4579448E-03
  0.5101010E+00  0.0000000E+00  0.1515152E-01  0.5635546E-04  0.0000000E+00  0.4957865E-03
  0.5202020E+00  0.0000000E+00  0.1515152E-01  0.6204301E-04  0.0000000E+00  0.5369555E-03
  0.5303030E+00  0.0000000E+00  0.1515152E-01  0.6988158E-04  0.0000000E+00  0.5815657E-03
  0.5404040E+00  0.0000000E+00  0.1515152E-01  0.8297879E-04  0.0000000E+00  0.6291826E-03
  0.5505050E+00  0.0000000E+00  0.1515152E-01  0.1088303E-03  0.0000000E+00  0.6752201E-03
  0.5606061E+00  0.0000000E+00  0.1515152E-01  0.1366747E-03  0.0000000E+00  0.7290723E-03
  0.5707071E+00  0.0000000E+00  0.1515152E-01 -0.1317448E-03  0.0000000E+00  0.6892050E-03
  0.5808081E+00  0.0000000E+00  0.1515152E-01 -0.1644685E-03  0.0000000E+00  0.6043154E-03
  0.5909091E+00  0.0000000E+00  0.1515152E-01 -0.1089842E-03  0.0000000E+00  0.5658816E-03
  0.6010101E+00  0.0000000E+00  0.1515152E-01 -0.7995408E-04  0.0000000E+00  0.5163375E-03
  0.6111111E+00  0.0000000E+00  0.1515152E-01 -0.6320982E-04  0.0000000E+00  0.4719628E-03
  0.6212121E+00  0.0000000E+00  0.1515152E-01 -0.5261795E-04  0.0000000E+00  0.4338173E-03
  0.6313131E+00  0.0000000E+00  0.1515152E-01 -0.4535337E-04  0.0000000E+00  0.4007292E-03
  0.6414142E+00  0.0000000E+00  0.1515152E-01 -0.4001843E-04  0.0000000E+00  0.3715674E-03
  0.6515151E+00  0.0000000E+00  0.1515152E-01 -0.3587449E-04  0.0000000E+00  0.3455087E-03
  0.6616161E+00  0.0000000E+00  0.1515152E-01 -0.3250862E-04  0.0000000E+00  0.3219783E-03
  0.6717172E+00  0.0000000E+00  0.1515152E-01 -0.2967849E-04  0.0000000E+00  0.3005685E-03
  0.6818182E+00  0.0000000E+00  0.1515152E-01 -0.2723555E-04  0.0000000E+00  0.2809811E-03
  0.6919192E+00  0.0000000E+00  0.1515152E-01 -0.2508493E-04  0.0000000E+00  0.2629896E-03
  0.7020202E+00  0.0000000E+00  0.1515152E-01 -0.2316364E-04  0.0000000E+00  0.2464164E-03
  0.7121212E+00  0.0000000E+00  0.1515152E-01 -0.2142827E-04  0.0000000E+00  0.2311178E-03
  0.7222222E+00  0.0000000E+00  0.1515152E-01 -0.1984781E-04  0.0000000E+00  0.2169748E-03
  0.7323232E+00  0.0000000E+00  0.1515152E-01 -0.1839932E-04  0.0000000E+00  0.2038861E-03
  0.7424242E+00  0.0000000E+00  0.1515152E-01 -0.1706525E-04  0.0000000E+00  0.1917645E-03
  0.7525253E+00  0.0000000E+00  0.1515152E-01 -0.1583171E-04  0.0000000E+00  0.1805338E-03
  0.7626263E+00  0.0000000E+00  0.1515152E-01 -0.1468739E-04  0.0000000E+00  0.1701265E-03
  0.7727273E+00  0.0000000E+00  0.1515152E-01 -0.1362281E-04  0.0000000E+00  0.1604827E-03
  0.7828283E+00  0.0000000E+00  0.1515152E-01 -0.1262988E-04  0.0000000E+00  0.1515486E-03
  0.7929293E+00  0.0000000E+00  0.1515152E-01 -0.1170156E-04  0.0000000E+00  0.1432760E-03
  0.8030303E+00  0.0000000E+00  0.1515152E-01 -0.1083161E-04  0.0000000E+00  0.1356213E-03
  0.8131313E+00  0.0000000E+00  0.1515152E-01 -0.1001449E-04  0.0000000E+00  0.1285454E-03
  0.8232324E+00  0.0000000E+00  0.1515152E-01 -0.9245182E-05  0.0000000E+00  0.1220127E-03
  0.8333333E+00  0.0000000E+00  0.1515152E-01 -0.8519170E-05  0.0000000E+00  0.1159914E-03
  0.8434343E+00  0.0000000E+00  0.1515152E-01 -0.7832330E-05  0.0000000E+00  0.1104524E-03
  0.8535354E+00  0.0000000E+00  0.1515152E-01 -0.7180895E-05  0.0000000E+00  0.1053696E-03
  0.8636364E+00  0.0000000E+00  0.1515152E-01 -0.6561404E-05  0.0000000E+00  0.1007195E-03
  0.8737374E+00  0.0000000E+00  0.1515152E-01 -0.5970668E-05  0.0000000E+00  0.9648091E-04
  0.8838384E+00  0.0000000E+00  0.1515152E-01 -0.5405736E-05  0.0000000E+00  0.9263484E-04
  0.8939394E+00  0.0000000E+00  0.1515152E-01 -0.4863868E-05  0.0000000E+00  0.8916429E-04
  0.9040404E+00  0.0000000E+00  0.1515152E-01 -0.4342504E-05  0.0000000E+00  0.8605412E-04
  0.9141414E+00  0.0000000E+00  0.1515152E-01 -0.3839248E-05  0.0000000E+00  0.8329093E-04
  0.9242424E+00  0.0000000E+00  0.1515152E-01 -0.3351841E-05  0.0000000E+00  0.8086295E-04
  0.9343435E+00  0.0000000E+00  0.1515152E-01 -0.2878147E-05  0.0000000E+00  0.7875995E-04
  0.9444444E+00  0.0000000E+00  0.1515152E-01 -0.2416130E-05  0.0000000E+00  0.7697315E-04
  0.9545454E+00  0.0000000E+00  0.1515152E-01 -0.1963844E-05  0.0000000E+00  0.7549515E-04
  0.9646465E+00  0.0000000E+00  0.1515152E-01 -0.1519415E-05  0.0000000E+00  0.7431988E-04
  0.9747475E+00  0.0000000E+00  0.1515152E-01 -0.1081030E-05  0.0000000E+00  0.7344255E-04
  0.9848485E+00  0.0000000E+00  0.1515152E-01 -0.6469217E-06  0.0000000E+00  0.7285961E-04
  0.9974747E+00  0.0000000E+00  0.1515152E-01 -0.2153595E-06  0.0000000E+00  0.7256871E-04
  0.5050505E-02  0.0000000E+00  0.2525252E-01  0.1776219E-06  0.0000000E+00  0.3908508E-04
  0.1515152E-01  0.0000000E+00  0.2525252E-01  0.5334065E-06  0.0000000E+00  0.3922862E-04
  0.2525252E-01  0.0000000E+00  0.2525252E-01  0.8908200E-06  0.0000000E+00  0.3951612E-04
  0.3535353E-01  0.0000000E+00  0.2525252E-01  0.1250963E-05  0.0000000E+00  0.3994847E-04
  0.4545455E-01  0.0000000E+00  0.2525252E-01  0.1614957E-05  0.0000000E+00  0.4052701E-04
  0.5555556E-01  0.0000000E+00  0.2525252E-01  0.1983947E-05  0.0000000E+00  0.4125352E-04
  0.6565657E-01  0.0000000E+00  0.2525252E-01  0.2359113E-05  0.0000000E+00  0.4213029E-04
  0.7575758E-01  0.0000000E+00  0.2525252E-01  0.2741673E-05  0.0000000E+00  0.4316007E-04
  0.8585858E-01  0.0000000E+00  0.2525252E-01  0.3132895E-05  0.0000000E+00  0.4434614E-04
  0.9595960E-01  0.0000000E+00  0.2525252E-01  0.3534107E-05  0.0000000E+00  0.4569229E-04
  0.1060606E+00  0.0000000E+00  0.2525252E-01  0.3946702E-05  0.0000000E+00  0.4720288E-04
  0.1161616E+00  0.0000000E+00  0.2525252E-01  0.4372152E-05  0.0000000E+00  0.4888285E-04
  0.1262626E+00  0.0000000E+00  0.2525252E-01  0.4812022E-05  0.0000000E+00  0.5073776E-04
  0.1363636E+00  0.0000000E+00  0.2525252E-01  0.5267979E-05  0.0000000E+00  0.5277384E-04
  0.1464646E+00  0.0000000E+00  0.2525252E-01  0.5741812E-05  0.0000000E+00  0.5499802E-04
  0.1565657E+00  0.0000000E+00  0.2525252E-01  0.6235448E-05  0.0000000E+00  0.5741799E-04
  0.1666667E+00  0.0000000E+00  0.2525252E-01  0.6750967E-05  0.0000000E+00  0.6004227E-04
  0.1767677E+00  0.0000000E+00  0.2525252E-01  0.7290633E-05  0.0000000E+00  0.6288026E-04
  0.1868687E+00  0.0000000E+00  0.2525252E-01  0.7856914E-05  0.0000000E+00  0.6594234E-04
  0.1969697E+00  0.0000000E+00  0.2525252E-01  0.8452511E-05  0.0000000E+00  0.6923993E-04
  0.2070707E+00  0.0000000E+00  0.2525252E-01  0.9080399E-05  0.0000000E+00  0.7278565E-04
  0.2171717E+00  0.0000000E+00  0.2525252E-01  0.9743858E-05  0.0000000E+00  0.7659337E-04
  0.2272727E+00  0.0000000E+00  0.2525252E-01  0.1044653E-04  0.0000000E+00  0.8067841E-04
  0.2373737E+00  0.0000000E+00  0.2525252E-01  0.1119246E-04  0.0000000E+00  0.8505765E-04
  0.2474747E+00  0.0000000E+00  0.2525252E-01  0.1198618E-04  0.0000000E+00  0.8974974E-04
  0.2575758E+00  0.0000000E+00  0.2525252E-01  0.1283276E-04  0.0000000E+00  0.9477530E-04
  0.2676768E+00  0.0000000E+00  0.2525252E-01  0.1373791E-04  0.0000000E+00  0.1001572E-03
  0.2777778E+00  0.0000000E+00  0.2525252E-01  0.1470809E-04  0.0000000E+00  0.1059207E-03
  0.2878788E+00  0.0000000E+00  0.2525252E-01  0.1575063E-04  0.0000000E+00  0.1120942E-03
  0.2979798E+00  0.0000000E+00  0.2525252E-01  0.1687384E-04  0.0000000E+00  0.1187089E-03
  0.3080808E+00  0.0000000E+00  0.2525252E-01  0.1808724E-04  0.0000000E+00  0.1258000E-03
  0.3181818E+00  0.0000000E+00  0.2525252E-01  0.1940170E-04  0.0000000E+00  0.1334067E-03
  0.3282828E+00  0.0000000E+00  0.2525252E-01  0.2082971E-04  0.0000000E+00  0.1415734E-03
  0.3383838E+00  0.0000000E+00  0.2525252E-01  0.2238563E-04  0.0000000E+00  0.1503498E-03
  0.3484848E+00  0.0000000E+00  0.2525252E-01  0.2408597E-04  0.0000000E+00  0.1597920E-03
  0.3585859E+00  0.0000000E+00  0.2525252E-01  0.2594977E-04  0.0000000E+00  0.1699638E-03
  0.3686869E+00  0.0000000E+00  0.2525252E-01  0.2799893E-04  0.0000000E+00  0.1809375E-03
  0.3787879E+00  0.0000000E+00  0.2525252E-01  0.3025858E-04  0.0000000E+00  0.1927958E-03
  0.3888889E+00  0.0000000E+00  0.2525252E-01  0.3275740E-04  0.0000000E+00  0.2056327E-03
  0.3989899E+00  0.0000000E+00  0.2525252E-01  0.3552785E-04  0.0000000E+00  0.2195562E-03
  0.4090909E+00  0.0000000E+00  0.2525252E-01  0.3860612E-04  0.0000000E+00  0.2346896E-03
  0.4191919E+00  0.0000000E+00  0.2525252E-01  0.4203168E-04  0.0000000E+00  0.2511746E-03
  0.4292929E+00  0.0000000E+00  0.2525252E-01  0.4584608E-04  0.0000000E+00  0.2691724E-03
  0.4393939E+00  0.0000000E+00  0.2525252E-01  0.5009057E-04  0.0000000E+00  0.2888667E-03
  0.4494950E+00  0.0000000E+00  0.2525252E-01  0.5480227E-04  0.0000000E+00  0.3104632E-03
  0.4595959E+00  0.0000000E+00  0.2525252E-01  0.6000837E-04  0.0000000E+00  0.3341883E-03
  0.4696970E+00  0.0000000E+00  0.2525252E-01  0.6571899E-04  0.0000000E+00  0.3602825E-03
  0.4797980E+00  0.0000000E+00  0.2525252E-01  0.7192052E-04  0.0000000E+00  0.3889857E-03
  0.4898990E+00  0.0000000E+00  0.2525252E-01  0.7857526E-04  0.0000000E+00  0.4205095E-03
  0.5000000E+00  0.0000000E+00  0.2525252E-01  0.8563930E-04  0.0000000E+00  0.4549863E-03
  0.5101010E+00  0.0000000E+00  0.2525252E-01  0.9312446E-04  0.0000000E+00  0.4923770E-03
  0.5202020E+00  0.0000000E+00  0.2525252E-01  0.1012641E-03  0.0000000E+00  0.5323033E-03
  0.5303030E+00  0.0000000E+00  0.2525252E-01  0.1109200E-03  0.0000000E+00  0.5737949E-03
  0.5404040E+00  0.0000000E+00  0.2525252E-01  0.1242340E-03  0.0000000E+00  0.6149730E-03
  0.5505050E+00  0.0000000E+00  0.2525252E-01  0.1420114E-03  0.0000000E+00  0.6498280E-03
  0.5606061E+00  0.0000000E+00  0.2525252E-01  0.1536419E-03  0.0000000E+00  0.6513712E-03
  0.5707071E+00  0.0000000E+00  0.2525252E-01 -0.2163238E-03  0.0000000E+00  0.6190376E-03
  0.5808081E+00  0.0000000E+00  0.2525252E-01 -0.1982084E-03  0.0000000E+00  0.5762267E-03
  0.5909091E+00  0.0000000E+00  0.2525252E-01 -0.1513390E-03  0.0000000E+00  0.5330081E-03
  0.6010101E+00  0.0000000E+00  0.2525252E-01 -0.1199456E-03  0.0000000E+00  0.4946634E-03
  0.6111111E+00  0.0000000E+00  0.2525252E-01 -0.9891005E-04  0.0000000E+00  0.4585997E-03
  0.6212121E+00  0.0000000E+00  0.2525252E-01 -0.8430317E-04  0.0000000E+00  0.4254163E-03
  0.6313131E+00  0.0000000E+00  0.2525252E-01 -0.7366880E-04  0.0000000E+00  0.3952202E-03
  0.6414142E+00  0.0000000E+00  0.2525252E-01 -0.6554385E-04  0.0000000E+00  0.3677798E-03
  0.6515151E+00  0.0000000E+00  0.2525252E-01 -0.5906017E-04  0.0000000E+00  0.3427814E-03
  0.6616161E+00  0.0000000E+00  0.2525252E-01 -0.5369494E-04  0.0000000E+00  0.3199291E-03
  0.6717172E+00  0.0000000E+00  0.2525252E-01 -0.4912532E-04  0.0000000E+00  0.2989700E-03
  0.6818182E+00  0.0000000E+00  0.2525252E-01 -0.4514572E-04  0.0000000E+00  0.2796934E-03
  0.6919192E+00  0.0000000E+00  0.2525252E-01 -0.4162076E-04  0.0000000E+00  0.2619244E-03
  0.7020202E+00  0.0000000E+00  0.2525252E-01 -0.3845823E-04  0.0000000E+00  0.2455162E-03
  0.7121212E+00  0.0000000E+00  0.2525252E-01 -0.3559321E-04  0.0000000E+00  0.2303442E-03
  0.7222222E+00  0.0000000E+00  0.2525252E-01 -0.3297849E-04  0.0000000E+00  0.2163011E-03
  0.7323232E+00  0.0000000E+00  0.2525252E-01 -0.3057859E-04  0.0000000E+00  0.2032935E-03
  0.7424242E+00  0.0000000E+00  0.2525252E-01 -0.2836597E-04  0.0000000E+00  0.1912395E-03
  0.7525253E+00  0.0000000E+00  0.2525252E-01 -0.2631861E-04  0.0000000E+00  0.1800660E-03
  0.7626263E+00  0.0000000E+00  0.2525252E-01 -0.2441836E-04  0.0000000E+00  0.1697079E-03
  0.7727273E+00  0.0000000E+00  0.2525252E-01 -0.2264992E-04  0.0000000E+00  0.1601069E-03
  0.7828283E+00  0.0000000E+00  0.2525252E-01 -0.2100008E-04  0.0000000E+00  0.1512103E-03
  0.7929293E+00  0.0000000E+00  0.2525252E-01 -0.1945731E-04  0.0000000E+00  0.1429707E-03
  0.8030303E+00  0.0000000E+00  0.2525252E-01 -0.1801137E-04  0.0000000E+00  0.1353454E-03
  0.8131313E+00  0.0000000E+00  0.2525252E-01 -0.1665307E-04  0.0000000E+00  0.1282954E-03
  0.8232324E+00  0.0000000E+00  0.2525252E-01 -0.1537417E-04  0.0000000E+00  0.1217858E-03
  0.8333333E+00  0.0000000E+00  0.2525252E-01 -0.1416715E-04  0.0000000E+00  0.1157850E-03
  0.8434343E+00  0.0000000E+00  0.2525252E-01 -0.1302520E-04  0.0000000E+00  0.1102641E-03
  0.8535354E+00  0.0000000E+00  0.2525252E-01 -0.1194205E-04  0.0000000E+00  0.1051974E-03
  0.8636364E+00  0.0000000E+00  0.2525252E-01 -0.1091197E-04  0.0000000E+00  0.1005616E-03
  0.8737374E+00  0.0000000E+00  0.2525252E-01 -0.9929669E-05  0.0000000E+00  0.9633564E-04
  0.8838384E+00  0.0000000E+00  0.2525252E-01 -0.8990238E-05  0.0000000E+00  0.9250068E-04
  0.8939394E+00  0.0000000E+00  0.2525252E-01 -0.8089129E-05  0.0000000E+00  0.8903986E-04
  0.9040404E+00  0.0000000E+00  0.2525252E-01 -0.7222094E-05  0.0000000E+00  0.8593818E-04
  0.9141414E+00  0.0000000E+00  0.2525252E-01 -0.6385151E-05  0.0000000E+00  0.8318235E-04
  0.9242424E+00  0.0000000E+00  0.2525252E-01 -0.5574550E-05  0.0000000E+00  0.8076069E-04
  0.9343435E+00  0.0000000E+00  0.2525252E-01 -0.4786741E-05  0.0000000E+00  0.7866304E-04
  0.9444444E+00  0.0000000E+00  0.2525252E-01 -0.4018345E-05  0.0000000E+00  0.7688069E-04
  0.9545454E+00  0.0000000E+00  0.2525252E-01 -0.3266128E-05  0.0000000E+00  0.7540631E-04
  0.9646465E+00  0.0000000E+00  0.2525252E-01 -0.2526979E-05  0.0000000E+00  0.7423386E-04
  0.9747475E+00  0.0000000E+00  0.2525252E-01 -0.1797883E-05  0.0000000E+00  0.7335861E-04
  0.9848485E+00  0.0000000E+00  0.2525252E-01 -0.1075904E-05  0.0000000E+00  0.7277703E-04
  0.9974747E+00  0.0000000E+00  0.2525252E-01 -0.3581659E-06  0.0000000E+00  0.7248680E-04
  0.5050505E-02  0.0000000E+00  0.3535353E-01  0.2482348E-06  0.0000000E+00  0.3910382E-04
  0.1515152E-01  0.0000000E+00  0.3535353E-01  0.7454596E-06  0.0000000E+00  0.3924721E-04
  0.2525252E-01  0.0000000E+00  0.3535353E-01  0.1244957E-05  0.0000000E+00  0.3953441E-04
  0.3535353E-01  0.0000000E+00  0.3535353E-01  0.1748264E-05  0.0000000E+00  0.3996630E-04
  0.4545455E-01  0.0000000E+00  0.3535353E-01  0.2256940E-05  0.0000000E+00  0.4054418E-04
  0.5555556E-01  0.0000000E+00  0.3535353E-01  0.2772583E-05  0.0000000E+00  0.4126985E-04
  0.6565657E-01  0.0000000E+00  0.3535353E-01  0.3296835E-05  0.0000000E+00  0.4214553E-04
  0.7575758E-01  0.0000000E+00  0.3535353E-01  0.3831395E-05  0.0000000E+00  0.4317397E-04
  0.8585858E-01  0.0000000E+00  0.3535353E-01  0.4378029E-05  0.0000000E+00  0.4435839E-04
  0.9595960E-01  0.0000000E+00  0.3535353E-01  0.4938584E-05  0.0000000E+00  0.4570256E-04
  0.1060606E+00  0.0000000E+00  0.3535353E-01  0.5514999E-05  0.0000000E+00  0.4721077E-04
  0.1161616E+00  0.0000000E+00  0.3535353E-01  0.6109325E-05  0.0000000E+00  0.4888790E-04
  0.1262626E+00  0.0000000E+00  0.3535353E-01  0.6723736E-05  0.0000000E+00  0.5073946E-04
  0.1363636E+00  0.0000000E+00  0.3535353E-01  0.7360552E-05  0.0000000E+00  0.5277157E-04
  0.1464646E+00  0.0000000E+00  0.3535353E-01  0.8022261E-05  0.0000000E+00  0.5499108E-04
  0.1565657E+00  0.0000000E+00  0.3535353E-01  0.8711538E-05  0.0000000E+00  0.5740557E-04
  0.1666667E+00  0.0000000E+00  0.3535353E-01  0.9431275E-05  0.0000000E+00  0.6002344E-04
  0.1767677E+00  0.0000000E+00  0.3535353E-01  0.1018462E-04  0.0000000E+00  0.6285393E-04
  0.1868687E+00  0.0000000E+00  0.3535353E-01  0.1097498E-04  0.0000000E+00  0.6590727E-04
  0.1969697E+00  0.0000000E+00  0.3535353E-01  0.1180612E-04  0.0000000E+00  0.6919468E-04
  0.2070707E+00  0.0000000E+00  0.3535353E-01  0.1268216E-04  0.0000000E+00  0.7272854E-04
  0.2171717E+00  0.0000000E+00  0.3535353E-01  0.1360764E-04  0.0000000E+00  0.7652249E-04
  0.2272727E+00  0.0000000E+00  0.3535353E-01  0.1458761E-04  0.0000000E+00  0.8059152E-04
  0.2373737E+00  0.0000000E+00  0.3535353E-01  0.1562766E-04  0.0000000E+00  0.8495216E-04
  0.2474747E+00  0.0000000E+00  0.3535353E-01  0.1673406E-04  0.0000000E+00  0.8962264E-04
  0.2575758E+00  0.0000000E+00  0.3535353E-01  0.1791381E-04  0.0000000E+00  0.9462312E-04
  0.2676768E+00  0.0000000E+00  0.3535353E-01  0.1917482E-04  0.0000000E+00  0.9997584E-04
  0.2777778E+00  0.0000000E+00  0.3535353E-01  0.2052599E-04  0.0000000E+00  0.1057055E-03
  0.2878788E+00  0.0000000E+00  0.3535353E-01  0.2197743E-04  0.0000000E+00  0.1118395E-03
  0.2979798E+00  0.0000000E+00  0.3535353E-01  0.2354063E-04  0.0000000E+00  0.1184083E-03