title = "dataset water"
variables = "x", "y", "z", "vx", "vy", "vz"
zone t = "velocities, solution time =  2.200E+01 days        " i =   99, j =   99, k =    1,  f=point
  0.5050505E-02  0.0000000E+00  0.5050505E-02  0.1395541E-09  0.0000000E+00 -0.1545111E-04
  0.1515152E-01  0.0000000E+00  0.5050505E-02  0.4185738E-09  0.0000000E+00 -0.1545055E-04
  0.2525252E-01  0.0000000E+00  0.5050505E-02  0.6973164E-09  0.0000000E+00 -0.1544943E-04
  0.3535353E-01  0.0000000E+00  0.5050505E-02  0.9755878E-09  0.0000000E+00 -0.1544776E-04
  0.4545455E-01  0.0000000E+00  0.5050505E-02  0.1253181E-08  0.0000000E+00 -0.1544553E-04
  0.5555556E-01  0.0000000E+00  0.5050505E-02  0.1529872E-08  0.0000000E+00 -0.1544274E-04
  0.6565657E-01  0.0000000E+00  0.5050505E-02  0.1805412E-08  0.0000000E+00 -0.1543940E-04
  0.7575758E-01  0.0000000E+00  0.5050505E-02  0.2079524E-08  0.0000000E+00 -0.1543550E-04
  0.8585858E-01  0.0000000E+00  0.5050505E-02  0.2351897E-08  0.0000000E+00 -0.1543106E-04
  0.9595960E-01  0.0000000E+00  0.5050505E-02  0.2622185E-08  0.0000000E+00 -0.1542608E-04
  0.1060606E+00  0.0000000E+00  0.5050505E-02  0.2889996E-08  0.0000000E+00 -0.1542056E-04
  0.1161616E+00  0.0000000E+00  0.5050505E-02  0.3154893E-08  0.0000000E+00 -0.1541450E-04
  0.1262626E+00  0.0000000E+00  0.5050505E-02  0.3416387E-08  0.0000000E+00 -0.1540792E-04
  0.1363636E+00  0.0000000E+00  0.5050505E-02  0.3673935E-08  0.0000000E+00 -0.1540081E-04
  0.1464646E+00  0.0000000E+00  0.5050505E-02  0.3926936E-08  0.0000000E+00 -0.1539320E-04
  0.1565657E+00  0.0000000E+00  0.5050505E-02  0.4174728E-08  0.0000000E+00 -0.1538508E-04
  0.1666667E+00  0.0000000E+00  0.5050505E-02  0.4416587E-08  0.0000000E+00 -0.1537647E-04
  0.1767677E+00  0.0000000E+00  0.5050505E-02  0.4651720E-08  0.0000000E+00 -0.1536739E-04
  0.1868687E+00  0.0000000E+00  0.5050505E-02  0.4879272E-08  0.0000000E+00 -0.1535784E-04
  0.1969697E+00  0.0000000E+00  0.5050505E-02  0.5098319E-08  0.0000000E+00 -0.1534784E-04
  0.2070707E+00  0.0000000E+00  0.5050505E-02  0.5307872E-08  0.0000000E+00 -0.1533742E-04
  0.2171717E+00  0.0000000E+00  0.5050505E-02  0.5506876E-08  0.0000000E+00 -0.1532658E-04
  0.2272727E+00  0.0000000E+00  0.5050505E-02  0.5694215E-08  0.0000000E+00 -0.1531536E-04
  0.2373737E+00  0.0000000E+00  0.5050505E-02  0.5868713E-08  0.0000000E+00 -0.1530378E-04
  0.2474747E+00  0.0000000E+00  0.5050505E-02  0.6029142E-08  0.0000000E+00 -0.1529186E-04
  0.2575758E+00  0.0000000E+00  0.5050505E-02  0.6174226E-08  0.0000000E+00 -0.1527963E-04
  0.2676768E+00  0.0000000E+00  0.5050505E-02  0.6302650E-08  0.0000000E+00 -0.1526713E-04
  0.2777778E+00  0.0000000E+00  0.5050505E-02  0.6413068E-08  0.0000000E+00 -0.1525439E-04
  0.2878788E+00  0.0000000E+00  0.5050505E-02  0.6504116E-08  0.0000000E+00 -0.1524145E-04
  0.2979798E+00  0.0000000E+00  0.5050505E-02  0.6574427E-08  0.0000000E+00 -0.1522835E-04
  0.3080808E+00  0.0000000E+00  0.5050505E-02  0.6622640E-08  0.0000000E+00 -0.1521512E-04
  0.3181818E+00  0.0000000E+00  0.5050505E-02  0.6647422E-08  0.0000000E+00 -0.1520183E-04
  0.3282828E+00  0.0000000E+00  0.5050505E-02  0.6647485E-08  0.0000000E+00 -0.1518851E-04
  0.3383838E+00  0.0000000E+00  0.5050505E-02  0.6621605E-08  0.0000000E+00 -0.1517522E-04
  0.3484848E+00  0.0000000E+00  0.5050505E-02  0.6568647E-08  0.0000000E+00 -0.1516200E-04
  0.3585859E+00  0.0000000E+00  0.5050505E-02  0.6487586E-08  0.0000000E+00 -0.1514892E-04
  0.3686869E+00  0.0000000E+00  0.5050505E-02  0.6377532E-08  0.0000000E+00 -0.1513603E-04
  0.3787879E+00  0.0000000E+00  0.5050505E-02  0.6237758E-08  0.0000000E+00 -0.1512339E-04
  0.3888889E+00  0.0000000E+00  0.5050505E-02  0.6067720E-08  0.0000000E+00 -0.1511106E-04
  0.3989899E+00  0.0000000E+00  0.5050505E-02  0.5867091E-08  0.0000000E+00 -0.1509911E-04
  0.4090909E+00  0.0000000E+00  0.5050505E-02  0.5635779E-08  0.0000000E+00 -0.1508758E-04
  0.4191919E+00  0.0000000E+00  0.5050505E-02  0.5373955E-08  0.0000000E+00 -0.1507655E-04
  0.4292929E+00  0.0000000E+00  0.5050505E-02  0.5082070E-08  0.0000000E+00 -0.1506608E-04
  0.4393939E+00  0.0000000E+00  0.5050505E-02  0.4760878E-08  0.0000000E+00 -0.1505622E-04
  0.4494950E+00  0.0000000E+00  0.5050505E-02  0.4411445E-08  0.0000000E+00 -0.1504703E-04
  0.4595959E+00  0.0000000E+00  0.5050505E-02  0.4035163E-08  0.0000000E+00 -0.1503856E-04
  0.4696970E+00  0.0000000E+00  0.5050505E-02  0.3633750E-08  0.0000000E+00 -0.1503088E-04
  0.4797980E+00  0.0000000E+00  0.5050505E-02  0.3209249E-08  0.0000000E+00 -0.1502403E-04
  0.4898990E+00  0.0000000E+00  0.5050505E-02  0.2764018E-08  0.0000000E+00 -0.1501804E-04
  0.5000000E+00  0.0000000E+00  0.5050505E-02  0.2300715E-08  0.0000000E+00 -0.1501297E-04
  0.5101010E+00  0.0000000E+00  0.5050505E-02  0.1822270E-08  0.0000000E+00 -0.1500884E-04
  0.5202020E+00  0.0000000E+00  0.5050505E-02  0.1331857E-08  0.0000000E+00 -0.1500568E-04
  0.5303030E+00  0.0000000E+00  0.5050505E-02  0.8328560E-09  0.0000000E+00 -0.1500351E-04
  0.5404040E+00  0.0000000E+00  0.5050505E-02  0.3288052E-09  0.0000000E+00 -0.1500234E-04
  0.5505050E+00  0.0000000E+00  0.5050505E-02 -0.1766446E-09  0.0000000E+00 -0.1500219E-04
  0.5606061E+00  0.0000000E+00  0.5050505E-02 -0.6797846E-09  0.0000000E+00 -0.1500305E-04
  0.5707071E+00  0.0000000E+00  0.5050505E-02 -0.1176904E-08  0.0000000E+00 -0.1500491E-04
  0.5808081E+00  0.0000000E+00  0.5050505E-02 -0.1664343E-08  0.0000000E+00 -0.1500776E-04
  0.5909091E+00  0.0000000E+00  0.5050505E-02 -0.2138554E-08  0.0000000E+00 -0.1501157E-04
  0.6010101E+00  0.0000000E+00  0.5050505E-02 -0.2596148E-08  0.0000000E+00 -0.1501631E-04
  0.6111111E+00  0.0000000E+00  0.5050505E-02 -0.3033944E-08  0.0000000E+00 -0.1502195E-04
  0.6212121E+00  0.0000000E+00  0.5050505E-02 -0.3449016E-08  0.0000000E+00 -0.1502845E-04
  0.6313131E+00  0.0000000E+00  0.5050505E-02 -0.3838723E-08  0.0000000E+00 -0.1503575E-04
  0.6414142E+00  0.0000000E+00  0.5050505E-02 -0.4200742E-08  0.0000000E+00 -0.1504380E-04
  0.6515151E+00  0.0000000E+00  0.5050505E-02 -0.4533087E-08  0.0000000E+00 -0.1505255E-04
  0.6616161E+00  0.0000000E+00  0.5050505E-02 -0.4834123E-08  0.0000000E+00 -0.1506194E-04
  0.6717172E+00  0.0000000E+00  0.5050505E-02 -0.5102568E-08  0.0000000E+00 -0.1507189E-04
  0.6818182E+00  0.0000000E+00  0.5050505E-02 -0.5337493E-08  0.0000000E+00 -0.1508235E-04
  0.6919192E+00  0.0000000E+00  0.5050505E-02 -0.5538309E-08  0.0000000E+00 -0.1509325E-04
  0.7020202E+00  0.0000000E+00  0.5050505E-02 -0.5704755E-08  0.0000000E+00 -0.1510451E-04
  0.7121212E+00  0.0000000E+00  0.5050505E-02 -0.5836875E-08  0.0000000E+00 -0.1511607E-04
  0.7222222E+00  0.0000000E+00  0.5050505E-02 -0.5934993E-08  0.0000000E+00 -0.1512787E-04
  0.7323232E+00  0.0000000E+00  0.5050505E-02 -0.5999687E-08  0.0000000E+00 -0.1513982E-04
  0.7424242E+00  0.0000000E+00  0.5050505E-02 -0.6031756E-08  0.0000000E+00 -0.1515188E-04
  0.7525253E+00  0.0000000E+00  0.5050505E-02 -0.6032193E-08  0.0000000E+00 -0.1516396E-04
  0.7626263E+00  0.0000000E+00  0.5050505E-02 -0.6002154E-08  0.0000000E+00 -0.1517602E-04
  0.7727273E+00  0.0000000E+00  0.5050505E-02 -0.5942926E-08  0.0000000E+00 -0.1518799E-04
  0.7828283E+00  0.0000000E+00  0.5050505E-02 -0.5855899E-08  0.0000000E+00 -0.1519981E-04
  0.7929293E+00  0.0000000E+00  0.5050505E-02 -0.5742543E-08  0.0000000E+00 -0.1521143E-04
  0.8030303E+00  0.0000000E+00  0.5050505E-02 -0.5604376E-08  0.0000000E+00 -0.1522280E-04
  0.8131313E+00  0.0000000E+00  0.5050505E-02 -0.5442950E-08  0.0000000E+00 -0.1523386E-04
  0.8232324E+00  0.0000000E+00  0.5050505E-02 -0.5259825E-08  0.0000000E+00 -0.1524459E-04
  0.8333333E+00  0.0000000E+00  0.5050505E-02 -0.5056555E-08  0.0000000E+00 -0.1525492E-04
  0.8434343E+00  0.0000000E+00  0.5050505E-02 -0.4834676E-08  0.0000000E+00 -0.1526483E-04
  0.8535354E+00  0.0000000E+00  0.5050505E-02 -0.4595688E-08  0.0000000E+00 -0.1527428E-04
  0.8636364E+00  0.0000000E+00  0.5050505E-02 -0.4341051E-08  0.0000000E+00 -0.1528323E-04
  0.8737374E+00  0.0000000E+00  0.5050505E-02 -0.4072177E-08  0.0000000E+00 -0.1529166E-04
  0.8838384E+00  0.0000000E+00  0.5050505E-02 -0.3790424E-08  0.0000000E+00 -0.1529954E-04
  0.8939394E+00  0.0000000E+00  0.5050505E-02 -0.3497093E-08  0.0000000E+00 -0.1530684E-04
  0.9040404E+00  0.0000000E+00  0.5050505E-02 -0.3193429E-08  0.0000000E+00 -0.1531354E-04
  0.9141414E+00  0.0000000E+00  0.5050505E-02 -0.2880618E-08  0.0000000E+00 -0.1531963E-04
  0.9242424E+00  0.0000000E+00  0.5050505E-02 -0.2559791E-08  0.0000000E+00 -0.1532508E-04
  0.9343435E+00  0.0000000E+00  0.5050505E-02 -0.2232028E-08  0.0000000E+00 -0.1532988E-04
  0.9444444E+00  0.0000000E+00  0.5050505E-02 -0.1898359E-08  0.0000000E+00 -0.1533402E-04
  0.9545454E+00  0.0000000E+00  0.5050505E-02 -0.1559771E-08  0.0000000E+00 -0.1533748E-04
  0.9646465E+00  0.0000000E+00  0.5050505E-02 -0.1217211E-08  0.0000000E+00 -0.1534027E-04
  0.9747475E+00  0.0000000E+00  0.5050505E-02 -0.8715968E-09  0.0000000E+00 -0.1534236E-04
  0.9848485E+00  0.0000000E+00  0.5050505E-02 -0.5238193E-09  0.0000000E+00 -0.1534376E-04
  0.9974747E+00  0.0000000E+00  0.5050505E-02 -0.1747516E-09  0.0000000E+00 -0.1534446E-04
  0.5050505E-02  0.0000000E+00  0.1515152E-01  0.4193892E-09  0.0000000E+00 -0.1542181E-04
  0.1515152E-01  0.0000000E+00  0.1515152E-01  0.1257903E-08  0.0000000E+00 -0.1542125E-04
  0.2525252E-01  0.0000000E+00  0.1515152E-01  0.2095593E-08  0.0000000E+00 -0.1542012E-04
  0.3535353E-01  0.0000000E+00  0.1515152E-01  0.2931882E-08  0.0000000E+00 -0.1541843E-04
  0.4545455E-01  0.0000000E+00  0.1515152E-01  0.3766156E-08  0.0000000E+00 -0.1541618E-04
  0.5555556E-01  0.0000000E+00  0.1515152E-01  0.4597744E-08  0.0000000E+00 -0.1541337E-04
  0.6565657E-01  0.0000000E+00  0.1515152E-01  0.5425907E-08  0.0000000E+00 -0.1541000E-04
  0.7575758E-01  0.0000000E+00  0.1515152E-01  0.6249817E-08  0.0000000E+00 -0.1540607E-04
  0.8585858E-01  0.0000000E+00  0.1515152E-01  0.7068550E-08  0.0000000E+00 -0.1540160E-04
  0.9595960E-01  0.0000000E+00  0.1515152E-01  0.7881064E-08  0.0000000E+00 -0.1539657E-04
  0.1060606E+00  0.0000000E+00  0.1515152E-01  0.8686190E-08  0.0000000E+00 -0.1539100E-04
  0.1161616E+00  0.0000000E+00  0.1515152E-01  0.9482620E-08  0.0000000E+00 -0.1538489E-04
  0.1262626E+00  0.0000000E+00  0.1515152E-01  0.1026889E-07  0.0000000E+00 -0.1537825E-04
  0.1363636E+00  0.0000000E+00  0.1515152E-01  0.1104337E-07  0.0000000E+00 -0.1537109E-04
  0.1464646E+00  0.0000000E+00  0.1515152E-01  0.1180427E-07  0.0000000E+00 -0.1536340E-04
  0.1565657E+00  0.0000000E+00  0.1515152E-01  0.1254958E-07  0.0000000E+00 -0.1535521E-04
  0.1666667E+00  0.0000000E+00  0.1515152E-01  0.1327715E-07  0.0000000E+00 -0.1534653E-04
  0.1767677E+00  0.0000000E+00  0.1515152E-01  0.1398459E-07  0.0000000E+00 -0.1533736E-04
  0.1868687E+00  0.0000000E+00  0.1515152E-01  0.1466933E-07  0.0000000E+00 -0.1532772E-04
  0.1969697E+00  0.0000000E+00  0.1515152E-01  0.1532860E-07  0.0000000E+00 -0.1531763E-04
  0.2070707E+00  0.0000000E+00  0.1515152E-01  0.1595942E-07  0.0000000E+00 -0.1530711E-04
  0.2171717E+00  0.0000000E+00  0.1515152E-01  0.1655862E-07  0.0000000E+00 -0.1529617E-04
  0.2272727E+00  0.0000000E+00  0.1515152E-01  0.1712285E-07  0.0000000E+00 -0.1528483E-04
  0.2373737E+00  0.0000000E+00  0.1515152E-01  0.1764857E-07  0.0000000E+00 -0.1527313E-04
  0.2474747E+00  0.0000000E+00  0.1515152E-01  0.1813207E-07  0.0000000E+00 -0.1526109E-04
  0.2575758E+00  0.0000000E+00  0.1515152E-01  0.1856952E-07  0.0000000E+00 -0.1524874E-04
  0.2676768E+00  0.0000000E+00  0.1515152E-01  0.1895696E-07  0.0000000E+00 -0.1523610E-04
  0.2777778E+00  0.0000000E+00  0.1515152E-01  0.1929033E-07  0.0000000E+00 -0.1522323E-04
  0.2878788E+00  0.0000000E+00  0.1515152E-01  0.1956552E-07  0.0000000E+00 -0.1521014E-04
  0.2979798E+00  0.0000000E+00  0.1515152E-01  0.1977839E-07  0.0000000E+00 -0.1519689E-04
  0.3080808E+00  0.0000000E+00  0.1515152E-01  0.1992486E-07  0.0000000E+00 -0.1518352E-04
  0.3181818E+00  0.0000000E+00  0.1515152E-01  0.2000087E-07  0.0000000E+00 -0.1517007E-04
  0.3282828E+00  0.0000000E+00  0.1515152E-01  0.2000255E-07  0.0000000E+00 -0.1515659E-04
  0.3383838E+00  0.0000000E+00  0.1515152E-01  0.1992620E-07  0.0000000E+00 -0.1514314E-04
  0.3484848E+00  0.0000000E+00  0.1515152E-01  0.1976836E-07  0.0000000E+00 -0.1512976E-04
  0.3585859E+00  0.0000000E+00  0.1515152E-01  0.1952594E-07  0.0000000E+00 -0.1511652E-04
  0.3686869E+00  0.0000000E+00  0.1515152E-01  0.1919622E-07  0.0000000E+00 -0.1510347E-04
  0.3787879E+00  0.0000000E+00  0.1515152E-01  0.1877700E-07  0.0000000E+00 -0.1509066E-04
  0.3888889E+00  0.0000000E+00  0.1515152E-01  0.1826660E-07  0.0000000E+00 -0.1507817E-04
  0.3989899E+00  0.0000000E+00  0.1515152E-01  0.1766403E-07  0.0000000E+00 -0.1506605E-04
  0.4090909E+00  0.0000000E+00  0.1515152E-01  0.1696896E-07  0.0000000E+00 -0.1505437E-04
  0.4191919E+00  0.0000000E+00  0.1515152E-01  0.1618189E-07  0.0000000E+00 -0.1504319E-04
  0.4292929E+00  0.0000000E+00  0.1515152E-01  0.1530416E-07  0.0000000E+00 -0.1503256E-04
  0.4393939E+00  0.0000000E+00  0.1515152E-01  0.1433800E-07  0.0000000E+00 -0.1502256E-04
  0.4494950E+00  0.0000000E+00  0.1515152E-01  0.1328661E-07  0.0000000E+00 -0.1501324E-04
  0.4595959E+00  0.0000000E+00  0.1515152E-01  0.1215417E-07  0.0000000E+00 -0.1500465E-04
  0.4696970E+00  0.0000000E+00  0.1515152E-01  0.1094584E-07  0.0000000E+00 -0.1499685E-04
  0.4797980E+00  0.0000000E+00  0.1515152E-01  0.9667770E-08  0.0000000E+00 -0.1498989E-04
  0.4898990E+00  0.0000000E+00  0.1515152E-01  0.8327060E-08  0.0000000E+00 -0.1498381E-04
  0.5000000E+00  0.0000000E+00  0.1515152E-01  0.6931721E-08  0.0000000E+00 -0.1497866E-04
  0.5101010E+00  0.0000000E+00  0.1515152E-01  0.5490596E-08  0.0000000E+00 -0.1497446E-04
  0.5202020E+00  0.0000000E+00  0.1515152E-01  0.4013264E-08  0.0000000E+00 -0.1497125E-04
  0.5303030E+00  0.0000000E+00  0.1515152E-01  0.2509928E-08  0.0000000E+00 -0.1496905E-04
  0.5404040E+00  0.0000000E+00  0.1515152E-01  0.9912763E-09  0.0000000E+00 -0.1496786E-04
  0.5505050E+00  0.0000000E+00  0.1515152E-01 -0.5316602E-09  0.0000000E+00 -0.1496771E-04
  0.5606061E+00  0.0000000E+00  0.1515152E-01 -0.2047675E-08  0.0000000E+00 -0.1496858E-04
  0.5707071E+00  0.0000000E+00  0.1515152E-01 -0.3545553E-08  0.0000000E+00 -0.1497047E-04
  0.5808081E+00  0.0000000E+00  0.1515152E-01 -0.5014238E-08  0.0000000E+00 -0.1497336E-04
  0.5909091E+00  0.0000000E+00  0.1515152E-01 -0.6443005E-08  0.0000000E+00 -0.1497723E-04
  0.6010101E+00  0.0000000E+00  0.1515152E-01 -0.7821615E-08  0.0000000E+00 -0.1498205E-04
  0.6111111E+00  0.0000000E+00  0.1515152E-01 -0.9140463E-08  0.0000000E+00 -0.1498777E-04
  0.6212121E+00  0.0000000E+00  0.1515152E-01 -0.1039071E-07  0.0000000E+00 -0.1499437E-04
  0.6313131E+00  0.0000000E+00  0.1515152E-01 -0.1156439E-07  0.0000000E+00 -0.1500178E-04
  0.6414142E+00  0.0000000E+00  0.1515152E-01 -0.1265450E-07  0.0000000E+00 -0.1500996E-04
  0.6515151E+00  0.0000000E+00  0.1515152E-01 -0.1365505E-07  0.0000000E+00 -0.1501885E-04
  0.6616161E+00  0.0000000E+00  0.1515152E-01 -0.1456112E-07  0.0000000E+00 -0.1502837E-04
  0.6717172E+00  0.0000000E+00  0.1515152E-01 -0.1536886E-07  0.0000000E+00 -0.1503848E-04
  0.6818182E+00  0.0000000E+00  0.1515152E-01 -0.1607549E-07  0.0000000E+00 -0.1504909E-04
  0.6919192E+00  0.0000000E+00  0.1515152E-01 -0.1667927E-07  0.0000000E+00 -0.1506015E-04
  0.7020202E+00  0.0000000E+00  0.1515152E-01 -0.1717942E-07  0.0000000E+00 -0.1507157E-04
  0.7121212E+00  0.0000000E+00  0.1515152E-01 -0.1757610E-07  0.0000000E+00 -0.1508330E-04
  0.7222222E+00  0.0000000E+00  0.1515152E-01 -0.1787032E-07  0.0000000E+00 -0.1509526E-04
  0.7323232E+00  0.0000000E+00  0.1515152E-01 -0.1806385E-07  0.0000000E+00 -0.1510738E-04
  0.7424242E+00  0.0000000E+00  0.1515152E-01 -0.1815913E-07  0.0000000E+00 -0.1511960E-04
  0.7525253E+00  0.0000000E+00  0.1515152E-01 -0.1815917E-07  0.0000000E+00 -0.1513185E-04
  0.7626263E+00  0.0000000E+00  0.1515152E-01 -0.1806748E-07  0.0000000E+00 -0.1514406E-04
  0.7727273E+00  0.0000000E+00  0.1515152E-01 -0.1788797E-07  0.0000000E+00 -0.1515619E-04
  0.7828283E+00  0.0000000E+00  0.1515152E-01 -0.1762483E-07  0.0000000E+00 -0.1516816E-04
  0.7929293E+00  0.0000000E+00  0.1515152E-01 -0.1728252E-07  0.0000000E+00 -0.1517992E-04
  0.8030303E+00  0.0000000E+00  0.1515152E-01 -0.1686562E-07  0.0000000E+00 -0.1519143E-04
  0.8131313E+00  0.0000000E+00  0.1515152E-01 -0.1637882E-07  0.0000000E+00 -0.1520263E-04
  0.8232324E+00  0.0000000E+00  0.1515152E-01 -0.1582682E-07  0.0000000E+00 -0.1521349E-04
  0.8333333E+00  0.0000000E+00  0.1515152E-01 -0.1521432E-07  0.0000000E+00 -0.1522394E-04
  0.8434343E+00  0.0000000E+00  0.1515152E-01 -0.1454594E-07  0.0000000E+00 -0.1523397E-04
  0.8535354E+00  0.0000000E+00  0.1515152E-01 -0.1382620E-07  0.0000000E+00 -0.1524353E-04
  0.8636364E+00  0.0000000E+00  0.1515152E-01 -0.1305949E-07  0.0000000E+00 -0.1525258E-04
  0.8737374E+00  0.0000000E+00  0.1515152E-01 -0.1225007E-07  0.0000000E+00 -0.1526110E-04
  0.8838384E+00  0.0000000E+00  0.1515152E-01 -0.1140202E-07  0.0000000E+00 -0.1526907E-04
  0.8939394E+00  0.0000000E+00  0.1515152E-01 -0.1051924E-07  0.0000000E+00 -0.1527645E-04
  0.9040404E+00  0.0000000E+00  0.1515152E-01 -0.9605486E-08  0.0000000E+00 -0.1528323E-04
  0.9141414E+00  0.0000000E+00  0.1515152E-01 -0.8664311E-08  0.0000000E+00 -0.1528938E-04
  0.9242424E+00  0.0000000E+00  0.1515152E-01 -0.7699114E-08  0.0000000E+00 -0.1529489E-04
  0.9343435E+00  0.0000000E+00  0.1515152E-01 -0.6713132E-08  0.0000000E+00 -0.1529974E-04
  0.9444444E+00  0.0000000E+00  0.1515152E-01 -0.5709456E-08  0.0000000E+00 -0.1530392E-04
  0.9545454E+00  0.0000000E+00  0.1515152E-01 -0.4691043E-08  0.0000000E+00 -0.1530742E-04
  0.9646465E+00  0.0000000E+00  0.1515152E-01 -0.3660735E-08  0.0000000E+00 -0.1531023E-04
  0.9747475E+00  0.0000000E+00  0.1515152E-01 -0.2621280E-08  0.0000000E+00 -0.1531235E-04
  0.9848485E+00  0.0000000E+00  0.1515152E-01 -0.1575347E-08  0.0000000E+00 -0.1531376E-04
  0.9974747E+00  0.0000000E+00  0.1515152E-01 -0.5255487E-09  0.0000000E+00 -0.1531447E-04
  0.5050505E-02  0.0000000E+00  0.2525252E-01  0.7018109E-09  0.0000000E+00 -0.1536335E-04
  0.1515152E-01  0.0000000E+00  0.2525252E-01  0.2104996E-08  0.0000000E+00 -0.1536278E-04
  0.2525252E-01  0.0000000E+00  0.2525252E-01  0.3506835E-08  0.0000000E+00 -0.1536163E-04
  0.3535353E-01  0.0000000E+00  0.2525252E-01  0.4906381E-08  0.0000000E+00 -0.1535991E-04
  0.4545455E-01  0.0000000E+00  0.2525252E-01  0.6302626E-08  0.0000000E+00 -0.1535763E-04
  0.5555556E-01  0.0000000E+00  0.2525252E-01  0.7694468E-08  0.0000000E+00 -0.1535477E-04
  0.6565657E-01  0.0000000E+00  0.2525252E-01  0.9080689E-08  0.0000000E+00 -0.1535134E-04
  0.7575758E-01  0.0000000E+00  0.2525252E-01  0.1045993E-07  0.0000000E+00 -0.1534735E-04
  0.8585858E-01  0.0000000E+00  0.2525252E-01  0.1183065E-07  0.0000000E+00 -0.1534280E-04
  0.9595960E-01  0.0000000E+00  0.2525252E-01  0.1319113E-07  0.0000000E+00 -0.1533769E-04
  0.1060606E+00  0.0000000E+00  0.2525252E-01  0.1453944E-07  0.0000000E+00 -0.1533203E-04
  0.1161616E+00  0.0000000E+00  0.2525252E-01  0.1587340E-07  0.0000000E+00 -0.1532582E-04
  0.1262626E+00  0.0000000E+00  0.2525252E-01  0.1719058E-07  0.0000000E+00 -0.1531906E-04
  0.1363636E+00  0.0000000E+00  0.2525252E-01  0.1848827E-07  0.0000000E+00 -0.1531177E-04
  0.1464646E+00  0.0000000E+00  0.2525252E-01  0.1976347E-07  0.0000000E+00 -0.1530396E-04
  0.1565657E+00  0.0000000E+00  0.2525252E-01  0.2101286E-07  0.0000000E+00 -0.1529562E-04
  0.1666667E+00  0.0000000E+00  0.2525252E-01  0.2223282E-07  0.0000000E+00 -0.1528678E-04
  0.1767677E+00  0.0000000E+00  0.2525252E-01  0.2341939E-07  0.0000000E+00 -0.1527745E-04
  0.1868687E+00  0.0000000E+00  0.2525252E-01  0.2456825E-07  0.0000000E+00 -0.1526763E-04
  0.1969697E+00  0.0000000E+00  0.2525252E-01  0.2567477E-07  0.0000000E+00 -0.1525735E-04
  0.2070707E+00  0.0000000E+00  0.2525252E-01  0.2673398E-07  0.0000000E+00 -0.1524662E-04
  0.2171717E+00  0.0000000E+00  0.2525252E-01  0.2774056E-07  0.0000000E+00 -0.1523547E-04
  0.2272727E+00  0.0000000E+00  0.2525252E-01  0.2868888E-07  0.0000000E+00 -0.1522392E-04
  0.2373737E+00  0.0000000E+00  0.2525252E-01  0.2957301E-07  0.0000000E+00 -0.1521198E-04
  0.2474747E+00  0.0000000E+00  0.2525252E-01  0.3038675E-07  0.0000000E+00 -0.1519969E-04
  0.2575758E+00  0.0000000E+00  0.2525252E-01  0.3112363E-07  0.0000000E+00 -0.1518709E-04
  0.2676768E+00  0.0000000E+00  0.2525252E-01  0.3177699E-07  0.0000000E+00 -0.1517419E-04
  0.2777778E+00  0.0000000E+00  0.2525252E-01  0.3234001E-07  0.0000000E+00 -0.1516104E-04
  0.2878788E+00  0.0000000E+00  0.2525252E-01  0.3280576E-07  0.0000000E+00 -0.1514767E-04
  0.2979798E+00  0.0000000E+00  0.2525252E-01  0.3316728E-07  0.0000000E+00 -0.1513412E-04
  0.3080808E+00  0.0000000E+00  0.2525252E-01  0.3341764E-07  0.0000000E+00 -0.1512045E-04
  0.3181818E+00  0.0000000E+00  0.2525252E-01  0.3355003E-07  0.0000000E+00 -0.1510669E-04
  0.3282828E+00  0.0000000E+00  0.2525252E-01  0.3355785E-07  0.0000000E+00 -0.1509289E-04
  0.3383838E+00  0.0000000E+00  0.2525252E-01  0.3343483E-07  0.0000000E+00 -0.1507912E-04
  0.3484848E+00  0.0000000E+00  0.2525252E-01  0.3317512E-07  0.0000000E+00 -0.1506541E-04
  0.3585859E+00  0.0000000E+00  0.2525252E-01  0.3277342E-07  0.0000000E+00 -0.1505184E-04
  0.3686869E+00  0.0000000E+00  0.2525252E-01  0.3222511E-07  0.0000000E+00 -0.1503846E-04
  0.3787879E+00  0.0000000E+00  0.2525252E-01  0.3152637E-07  0.0000000E+00 -0.1502532E-04
  0.3888889E+00  0.0000000E+00  0.2525252E-01  0.3067433E-07  0.0000000E+00 -0.1501250E-04
  0.3989899E+00  0.0000000E+00  0.2525252E-01  0.2966718E-07  0.0000000E+00 -0.1500006E-04
  0.4090909E+00  0.0000000E+00  0.2525252E-01  0.2850432E-07  0.0000000E+00 -0.1498806E-04
  0.4191919E+00  0.0000000E+00  0.2525252E-01  0.2718648E-07  0.0000000E+00 -0.1497657E-04
  0.4292929E+00  0.0000000E+00  0.2525252E-01  0.2571581E-07  0.0000000E+00 -0.1496564E-04
  0.4393939E+00  0.0000000E+00  0.2525252E-01  0.2409600E-07  0.0000000E+00 -0.1495535E-04
  0.4494950E+00  0.0000000E+00  0.2525252E-01  0.2233237E-07  0.0000000E+00 -0.1494576E-04
  0.4595959E+00  0.0000000E+00  0.2525252E-01  0.2043186E-07  0.0000000E+00 -0.1493692E-04
  0.4696970E+00  0.0000000E+00  0.2525252E-01  0.1840313E-07  0.0000000E+00 -0.1492888E-04
  0.4797980E+00  0.0000000E+00  0.2525252E-01  0.1625648E-07  0.0000000E+00 -0.1492171E-04
  0.4898990E+00  0.0000000E+00  0.2525252E-01  0.1400387E-07  0.0000000E+00 -0.1491545E-04
  0.5000000E+00  0.0000000E+00  0.2525252E-01  0.1165878E-07  0.0000000E+00 -0.1491013E-04
  0.5101010E+00  0.0000000E+00  0.2525252E-01  0.9236110E-08  0.0000000E+00 -0.1490581E-04
  0.5202020E+00  0.0000000E+00  0.2525252E-01  0.6752038E-08  0.0000000E+00 -0.1490249E-04
  0.5303030E+00  0.0000000E+00  0.2525252E-01  0.4223795E-08  0.0000000E+00 -0.1490022E-04
  0.5404040E+00  0.0000000E+00  0.2525252E-01  0.1669453E-08  0.0000000E+00 -0.1489899E-04
  0.5505050E+00  0.0000000E+00  0.2525252E-01 -0.8923353E-09  0.0000000E+00 -0.1489883E-04
  0.5606061E+00  0.0000000E+00  0.2525252E-01 -0.3442608E-08  0.0000000E+00 -0.1489973E-04
  0.5707071E+00  0.0000000E+00  0.2525252E-01 -0.5962386E-08  0.0000000E+00 -0.1490167E-04
  0.5808081E+00  0.0000000E+00  0.2525252E-01 -0.8432961E-08  0.0000000E+00 -0.1490465E-04
  0.5909091E+00  0.0000000E+00  0.2525252E-01 -0.1083619E-07  0.0000000E+00 -0.1490864E-04
  0.6010101E+00  0.0000000E+00  0.2525252E-01 -0.1315474E-07  0.0000000E+00 -0.1491361E-04
  0.6111111E+00  0.0000000E+00  0.2525252E-01 -0.1537239E-07  0.0000000E+00 -0.1491952E-04
  0.6212121E+00  0.0000000E+00  0.2525252E-01 -0.1747421E-07  0.0000000E+00 -0.1492632E-04
  0.6313131E+00  0.0000000E+00  0.2525252E-01 -0.1944674E-07  0.0000000E+00 -0.1493396E-04
  0.6414142E+00  0.0000000E+00  0.2525252E-01 -0.2127819E-07  0.0000000E+00 -0.1494239E-04
  0.6515151E+00  0.0000000E+00  0.2525252E-01 -0.2295850E-07  0.0000000E+00 -0.1495154E-04
  0.6616161E+00  0.0000000E+00  0.2525252E-01 -0.2447940E-07  0.0000000E+00 -0.1496136E-04
  0.6717172E+00  0.0000000E+00  0.2525252E-01 -0.2583446E-07  0.0000000E+00 -0.1497176E-04
  0.6818182E+00  0.0000000E+00  0.2525252E-01 -0.2701906E-07  0.0000000E+00 -0.1498269E-04
  0.6919192E+00  0.0000000E+00  0.2525252E-01 -0.2803033E-07  0.0000000E+00 -0.1499406E-04
  0.7020202E+00  0.0000000E+00  0.2525252E-01 -0.2886707E-07  0.0000000E+00 -0.1500582E-04
  0.7121212E+00  0.0000000E+00  0.2525252E-01 -0.2952964E-07  0.0000000E+00 -0.1501787E-04
  0.7222222E+00  0.0000000E+00  0.2525252E-01 -0.3001982E-07  0.0000000E+00 -0.1503017E-04
  0.7323232E+00  0.0000000E+00  0.2525252E-01 -0.3034068E-07  0.0000000E+00 -0.1504262E-04
  0.7424242E+00  0.0000000E+00  0.2525252E-01 -0.3049642E-07  0.0000000E+00 -0.1505517E-04
  0.7525253E+00  0.0000000E+00  0.2525252E-01 -0.3049220E-07  0.0000000E+00 -0.1506774E-04
  0.7626263E+00  0.0000000E+00  0.2525252E-01 -0.3033401E-07  0.0000000E+00 -0.1508028E-04
  0.7727273E+00  0.0000000E+00  0.2525252E-01 -0.3002849E-07  0.0000000E+00 -0.1509271E-04
  0.7828283E+00  0.0000000E+00  0.2525252E-01 -0.2958277E-07  0.0000000E+00 -0.1510499E-04
  0.7929293E+00  0.0000000E+00  0.2525252E-01 -0.2900439E-07  0.0000000E+00 -0.1511705E-04
  0.8030303E+00  0.0000000E+00  0.2525252E-01 -0.2830112E-07  0.0000000E+00 -0.1512884E-04
  0.8131313E+00  0.0000000E+00  0.2525252E-01 -0.2748086E-07  0.0000000E+00 -0.1514031E-04
  0.8232324E+00  0.0000000E+00  0.2525252E-01 -0.2655155E-07  0.0000000E+00 -0.1515142E-04
  0.8333333E+00  0.0000000E+00  0.2525252E-01 -0.2552111E-07  0.0000000E+00 -0.1516212E-04
  0.8434343E+00  0.0000000E+00  0.2525252E-01 -0.2439731E-07  0.0000000E+00 -0.1517238E-04
  0.8535354E+00  0.0000000E+00  0.2525252E-01 -0.2318775E-07  0.0000000E+00 -0.1518216E-04
  0.8636364E+00  0.0000000E+00  0.2525252E-01 -0.2189982E-07  0.0000000E+00 -0.1519142E-04
  0.8737374E+00  0.0000000E+00  0.2525252E-01 -0.2054064E-07  0.0000000E+00 -0.1520013E-04
  0.8838384E+00  0.0000000E+00  0.2525252E-01 -0.1911705E-07  0.0000000E+00 -0.1520827E-04
  0.8939394E+00  0.0000000E+00  0.2525252E-01 -0.1763561E-07  0.0000000E+00 -0.1521581E-04
  0.9040404E+00  0.0000000E+00  0.2525252E-01 -0.1610256E-07  0.0000000E+00 -0.1522273E-04
  0.9141414E+00  0.0000000E+00  0.2525252E-01 -0.1452387E-07  0.0000000E+00 -0.1522901E-04
  0.9242424E+00  0.0000000E+00  0.2525252E-01 -0.1290520E-07  0.0000000E+00 -0.1523464E-04
  0.9343435E+00  0.0000000E+00  0.2525252E-01 -0.1125195E-07  0.0000000E+00 -0.1523959E-04
  0.9444444E+00  0.0000000E+00  0.2525252E-01 -0.9569272E-08  0.0000000E+00 -0.1524386E-04
  0.9545454E+00  0.0000000E+00  0.2525252E-01 -0.7862094E-08  0.0000000E+00 -0.1524744E-04
  0.9646465E+00  0.0000000E+00  0.2525252E-01 -0.6135146E-08  0.0000000E+00 -0.1525030E-04
  0.9747475E+00  0.0000000E+00  0.2525252E-01 -0.4392996E-08  0.0000000E+00 -0.1525246E-04
  0.9848485E+00  0.0000000E+00  0.2525252E-01 -0.2640080E-08  0.0000000E+00 -0.1525390E-04
  0.9974747E+00  0.0000000E+00  0.2525252E-01 -0.8807439E-09  0.0000000E+00 -0.1525463E-04
  0.5050505E-02  0.0000000E+00  0.3535353E-01  0.9890901E-09  0.0000000E+00 -0.1527596E-04
  0.1515152E-01  0.0000000E+00  0.3535353E-01  0.2966674E-08  0.0000000E+00 -0.1527538E-04
  0.2525252E-01  0.0000000E+00  0.3535353E-01  0.4942425E-08  0.0000000E+00 -0.1527421E-04
  0.3535353E-01  0.0000000E+00  0.3535353E-01  0.6915052E-08  0.0000000E+00 -0.1527245E-04
  0.4545455E-01  0.0000000E+00  0.3535353E-01  0.8883177E-08  0.0000000E+00 -0.1527010E-04
  0.5555556E-01  0.0000000E+00  0.3535353E-01  0.1084529E-07  0.0000000E+00 -0.1526718E-04
  0.6565657E-01  0.0000000E+00  0.3535353E-01  0.1279971E-07  0.0000000E+00 -0.1526367E-04
  0.7575758E-01  0.0000000E+00  0.3535353E-01  0.1474457E-07  0.0000000E+00 -0.1525958E-04
  0.8585858E-01  0.0000000E+00  0.3535353E-01  0.1667775E-07  0.0000000E+00 -0.1525492E-04
  0.9595960E-01  0.0000000E+00  0.3535353E-01  0.1859685E-07  0.0000000E+00 -0.1524969E-04
  0.1060606E+00  0.0000000E+00  0.3535353E-01  0.2049918E-07  0.0000000E+00 -0.1524388E-04
  0.1161616E+00  0.0000000E+00  0.3535353E-01  0.2238173E-07  0.0000000E+00 -0.1523751E-04
  0.1262626E+00  0.0000000E+00  0.3535353E-01  0.2424108E-07  0.0000000E+00 -0.1523059E-04
  0.1363636E+00  0.0000000E+00  0.3535353E-01  0.2607347E-07  0.0000000E+00 -0.1522311E-04
  0.1464646E+00  0.0000000E+00  0.3535353E-01  0.2787469E-07  0.0000000E+00 -0.1521509E-04
  0.1565657E+00  0.0000000E+00  0.3535353E-01  0.2964009E-07  0.0000000E+00 -0.1520654E-04
  0.1666667E+00  0.0000000E+00  0.3535353E-01  0.3136458E-07  0.0000000E+00 -0.1519746E-04
  0.1767677E+00  0.0000000E+00  0.3535353E-01  0.3304260E-07  0.0000000E+00 -0.1518787E-04
  0.1868687E+00  0.0000000E+00  0.3535353E-01  0.3466809E-07  0.0000000E+00 -0.1517779E-04
  0.1969697E+00  0.0000000E+00  0.3535353E-01  0.3623451E-07  0.0000000E+00 -0.1516722E-04
  0.2070707E+00  0.0000000E+00  0.3535353E-01  0.3773485E-07  0.0000000E+00 -0.1515620E-04
  0.2171717E+00  0.0000000E+00  0.3535353E-01  0.3916162E-07  0.0000000E+00 -0.1514473E-04
  0.2272727E+00  0.0000000E+00  0.3535353E-01  0.4050686E-07  0.0000000E+00 -0.1513284E-04
  0.2373737E+00  0.0000000E+00  0.3535353E-01  0.4176218E-07  0.0000000E+00 -0.1512055E-04
  0.2474747E+00  0.0000000E+00  0.3535353E-01  0.4291879E-07  0.0000000E+00 -0.1510789E-04
  0.2575758E+00  0.0000000E+00  0.3535353E-01  0.4396754E-07  0.0000000E+00 -0.1509490E-04
  0.2676768E+00  0.0000000E+00  0.3535353E-01  0.4489897E-07  0.0000000E+00 -0.1508160E-04
  0.2777778E+00  0.0000000E+00  0.3535353E-01  0.4570337E-07  0.0000000E+00 -0.1506803E-04
  0.2878788E+00  0.0000000E+00  0.3535353E-01  0.4637090E-07  0.0000000E+00 -0.1505423E-04
  0.2979798E+00  0.0000000E+00  0.3535353E-01  0.4689161E-07  0.0000000E+00 -0.1504024E-04