title = "dataset water"
variables = "x", "y", "z", "vx", "vy", "vz"
zone t = "velocities, solution time =  3.400E+01 days        " i =   99, j =   99, k =    1,  f=point
  0.5050505E-02  0.0000000E+00  0.5050505E-02  0.5685398E-08  0.0000000E+00 -0.1606934E-05
  0.1515152E-01  0.0000000E+00  0.5050505E-02  0.1707120E-07  0.0000000E+00 -0.1584173E-05
  0.2525252E-01  0.0000000E+00  0.5050505E-02  0.2850208E-07  0.0000000E+00 -0.1538591E-05
  0.3535353E-01  0.0000000E+00  0.5050505E-02  0.4000824E-07  0.0000000E+00 -0.1470068E-05
  0.4545455E-01  0.0000000E+00  0.5050505E-02  0.5162009E-07  0.0000000E+00 -0.1378424E-05
  0.5555556E-01  0.0000000E+00  0.5050505E-02  0.6336830E-07  0.0000000E+00 -0.1263418E-05
  0.6565657E-01  0.0000000E+00  0.5050505E-02  0.7528391E-07  0.0000000E+00 -0.1124747E-05
  0.7575758E-01  0.0000000E+00  0.5050505E-02  0.8739836E-07  0.0000000E+00 -0.9620457E-06
  0.8585858E-01  0.0000000E+00  0.5050505E-02  0.9974364E-07  0.0000000E+00 -0.7748860E-06
  0.9595960E-01  0.0000000E+00  0.5050505E-02  0.1123524E-06  0.0000000E+00 -0.5627755E-06
  0.1060606E+00  0.0000000E+00  0.5050505E-02  0.1252584E-06  0.0000000E+00 -0.3251554E-06
  0.1161616E+00  0.0000000E+00  0.5050505E-02  0.1384967E-06  0.0000000E+00 -0.6128556E-07
  0.1262626E+00  0.0000000E+00  0.5050505E-02  0.1520682E-06  0.0000000E+00  0.2298366E-06
  0.1363636E+00  0.0000000E+00  0.5050505E-02  0.1660443E-06  0.0000000E+00  0.5488873E-06
  0.1464646E+00  0.0000000E+00  0.5050505E-02  0.1804612E-06  0.0000000E+00  0.8964284E-06
  0.1565657E+00  0.0000000E+00  0.5050505E-02  0.1953566E-06  0.0000000E+00  0.1273385E-05
  0.1666667E+00  0.0000000E+00  0.5050505E-02  0.2107700E-06  0.0000000E+00  0.1680762E-05
  0.1767677E+00  0.0000000E+00  0.5050505E-02  0.2267430E-06  0.0000000E+00  0.2119644E-05
  0.1868687E+00  0.0000000E+00  0.5050505E-02  0.2433194E-06  0.0000000E+00  0.2591202E-05
  0.1969697E+00  0.0000000E+00  0.5050505E-02  0.2605454E-06  0.0000000E+00  0.3096699E-05
  0.2070707E+00  0.0000000E+00  0.5050505E-02  0.2784710E-06  0.0000000E+00  0.3637495E-05
  0.2171717E+00  0.0000000E+00  0.5050505E-02  0.2971494E-06  0.0000000E+00  0.4215055E-05
  0.2272727E+00  0.0000000E+00  0.5050505E-02  0.3166374E-06  0.0000000E+00  0.4830953E-05
  0.2373737E+00  0.0000000E+00  0.5050505E-02  0.3369959E-06  0.0000000E+00  0.5486884E-05
  0.2474747E+00  0.0000000E+00  0.5050505E-02  0.3582908E-06  0.0000000E+00  0.6184671E-05
  0.2575758E+00  0.0000000E+00  0.5050505E-02  0.3805935E-06  0.0000000E+00  0.6926275E-05
  0.2676768E+00  0.0000000E+00  0.5050505E-02  0.4039818E-06  0.0000000E+00  0.7713811E-05
  0.2777778E+00  0.0000000E+00  0.5050505E-02  0.4285405E-06  0.0000000E+00  0.8549555E-05
  0.2878788E+00  0.0000000E+00  0.5050505E-02  0.4543626E-06  0.0000000E+00  0.9435965E-05
  0.2979798E+00  0.0000000E+00  0.5050505E-02  0.4815502E-06  0.0000000E+00  0.1037570E-04
  0.3080808E+00  0.0000000E+00  0.5050505E-02  0.5102150E-06  0.0000000E+00  0.1137163E-04
  0.3181818E+00  0.0000000E+00  0.5050505E-02  0.5404791E-06  0.0000000E+00  0.1242686E-04
  0.3282828E+00  0.0000000E+00  0.5050505E-02  0.5724752E-06  0.0000000E+00  0.1354477E-04
  0.3383838E+00  0.0000000E+00  0.5050505E-02  0.6063461E-06  0.0000000E+00  0.1472899E-04
  0.3484848E+00  0.0000000E+00  0.5050505E-02  0.6422430E-06  0.0000000E+00  0.1598349E-04
  0.3585859E+00  0.0000000E+00  0.5050505E-02  0.6803215E-06  0.0000000E+00  0.1731252E-04
  0.3686869E+00  0.0000000E+00  0.5050505E-02  0.7207345E-06  0.0000000E+00  0.1872066E-04
  0.3787879E+00  0.0000000E+00  0.5050505E-02  0.7636205E-06  0.0000000E+00  0.2021277E-04
  0.3888889E+00  0.0000000E+00  0.5050505E-02  0.8090834E-06  0.0000000E+00  0.2179397E-04
  0.3989899E+00  0.0000000E+00  0.5050505E-02  0.8571617E-06  0.0000000E+00  0.2346956E-04
  0.4090909E+00  0.0000000E+00  0.5050505E-02  0.9077794E-06  0.0000000E+00  0.2524475E-04
  0.4191919E+00  0.0000000E+00  0.5050505E-02  0.9606731E-06  0.0000000E+00  0.2712447E-04
  0.4292929E+00  0.0000000E+00  0.5050505E-02  0.1015282E-05  0.0000000E+00  0.2911279E-04
  0.4393939E+00  0.0000000E+00  0.5050505E-02  0.1070587E-05  0.0000000E+00  0.3121222E-04
  0.4494950E+00  0.0000000E+00  0.5050505E-02  0.1124883E-05  0.0000000E+00  0.3342254E-04
  0.4595959E+00  0.0000000E+00  0.5050505E-02  0.1175466E-05  0.0000000E+00  0.3573907E-04
  0.4696970E+00  0.0000000E+00  0.5050505E-02  0.1218216E-05  0.0000000E+00  0.3815028E-04
  0.4797980E+00  0.0000000E+00  0.5050505E-02  0.1247100E-05  0.0000000E+00  0.4063437E-04
  0.4898990E+00  0.0000000E+00  0.5050505E-02  0.1253650E-05  0.0000000E+00  0.4315492E-04
  0.5000000E+00  0.0000000E+00  0.5050505E-02  0.1226628E-05  0.0000000E+00  0.4565561E-04
  0.5101010E+00  0.0000000E+00  0.5050505E-02  0.1152269E-05  0.0000000E+00  0.4805481E-04
  0.5202020E+00  0.0000000E+00  0.5050505E-02  0.1015839E-05  0.0000000E+00  0.5024206E-04
  0.5303030E+00  0.0000000E+00  0.5050505E-02  0.8054819E-06  0.0000000E+00  0.5207993E-04
  0.5404040E+00  0.0000000E+00  0.5050505E-02  0.5189706E-06  0.0000000E+00  0.5341672E-04
  0.5505050E+00  0.0000000E+00  0.5050505E-02  0.1719842E-06  0.0000000E+00  0.5411421E-04
  0.5606061E+00  0.0000000E+00  0.5050505E-02 -0.1979606E-06  0.0000000E+00  0.5408799E-04
  0.5707071E+00  0.0000000E+00  0.5050505E-02 -0.5416094E-06  0.0000000E+00  0.5334142E-04
  0.5808081E+00  0.0000000E+00  0.5050505E-02 -0.8222152E-06  0.0000000E+00  0.5196492E-04
  0.5909091E+00  0.0000000E+00  0.5050505E-02 -0.1025304E-05  0.0000000E+00  0.5010064E-04
  0.6010101E+00  0.0000000E+00  0.5050505E-02 -0.1154322E-05  0.0000000E+00  0.4790181E-04
  0.6111111E+00  0.0000000E+00  0.5050505E-02 -0.1222059E-05  0.0000000E+00  0.4550520E-04
  0.6212121E+00  0.0000000E+00  0.5050505E-02 -0.1243778E-05  0.0000000E+00  0.4301911E-04
  0.6313131E+00  0.0000000E+00  0.5050505E-02 -0.1233407E-05  0.0000000E+00  0.4052233E-04
  0.6414142E+00  0.0000000E+00  0.5050505E-02 -0.1202087E-05  0.0000000E+00  0.3806832E-04
  0.6515151E+00  0.0000000E+00  0.5050505E-02 -0.1158036E-05  0.0000000E+00  0.3569093E-04
  0.6616161E+00  0.0000000E+00  0.5050505E-02 -0.1106983E-05  0.0000000E+00  0.3340998E-04
  0.6717172E+00  0.0000000E+00  0.5050505E-02 -0.1052748E-05  0.0000000E+00  0.3123564E-04
  0.6818182E+00  0.0000000E+00  0.5050505E-02 -0.9977749E-06  0.0000000E+00  0.2917176E-04
  0.6919192E+00  0.0000000E+00  0.5050505E-02 -0.9435564E-06  0.0000000E+00  0.2721826E-04
  0.7020202E+00  0.0000000E+00  0.5050505E-02 -0.8909524E-06  0.0000000E+00  0.2537266E-04
  0.7121212E+00  0.0000000E+00  0.5050505E-02 -0.8404111E-06  0.0000000E+00  0.2363121E-04
  0.7222222E+00  0.0000000E+00  0.5050505E-02 -0.7921217E-06  0.0000000E+00  0.2198949E-04
  0.7323232E+00  0.0000000E+00  0.5050505E-02 -0.7461157E-06  0.0000000E+00  0.2044289E-04
  0.7424242E+00  0.0000000E+00  0.5050505E-02 -0.7023331E-06  0.0000000E+00  0.1898682E-04
  0.7525253E+00  0.0000000E+00  0.5050505E-02 -0.6606643E-06  0.0000000E+00  0.1761689E-04
  0.7626263E+00  0.0000000E+00  0.5050505E-02 -0.6209767E-06  0.0000000E+00  0.1632893E-04
  0.7727273E+00  0.0000000E+00  0.5050505E-02 -0.5831301E-06  0.0000000E+00  0.1511907E-04
  0.7828283E+00  0.0000000E+00  0.5050505E-02 -0.5469863E-06  0.0000000E+00  0.1398370E-04
  0.7929293E+00  0.0000000E+00  0.5050505E-02 -0.5124134E-06  0.0000000E+00  0.1291953E-04
  0.8030303E+00  0.0000000E+00  0.5050505E-02 -0.4792882E-06  0.0000000E+00  0.1192347E-04
  0.8131313E+00  0.0000000E+00  0.5050505E-02 -0.4474967E-06  0.0000000E+00  0.1099273E-04
  0.8232324E+00  0.0000000E+00  0.5050505E-02 -0.4169342E-06  0.0000000E+00  0.1012470E-04
  0.8333333E+00  0.0000000E+00  0.5050505E-02 -0.3875041E-06  0.0000000E+00  0.9316986E-05
  0.8434343E+00  0.0000000E+00  0.5050505E-02 -0.3591169E-06  0.0000000E+00  0.8567397E-05
  0.8535354E+00  0.0000000E+00  0.5050505E-02 -0.3316899E-06  0.0000000E+00  0.7873903E-05
  0.8636364E+00  0.0000000E+00  0.5050505E-02 -0.3051451E-06  0.0000000E+00  0.7234641E-05
  0.8737374E+00  0.0000000E+00  0.5050505E-02 -0.2794093E-06  0.0000000E+00  0.6647901E-05
  0.8838384E+00  0.0000000E+00  0.5050505E-02 -0.2544129E-06  0.0000000E+00  0.6112118E-05
  0.8939394E+00  0.0000000E+00  0.5050505E-02 -0.2300893E-06  0.0000000E+00  0.5625865E-05
  0.9040404E+00  0.0000000E+00  0.5050505E-02 -0.2063742E-06  0.0000000E+00  0.5187848E-05
  0.9141414E+00  0.0000000E+00  0.5050505E-02 -0.1832054E-06  0.0000000E+00  0.4796901E-05
  0.9242424E+00  0.0000000E+00  0.5050505E-02 -0.1605221E-06  0.0000000E+00  0.4451981E-05
  0.9343435E+00  0.0000000E+00  0.5050505E-02 -0.1382650E-06  0.0000000E+00  0.4152169E-05
  0.9444444E+00  0.0000000E+00  0.5050505E-02 -0.1163754E-06  0.0000000E+00  0.3896662E-05
  0.9545454E+00  0.0000000E+00  0.5050505E-02 -0.9479577E-07  0.0000000E+00  0.3684779E-05
  0.9646465E+00  0.0000000E+00  0.5050505E-02 -0.7346888E-07  0.0000000E+00  0.3515950E-05
  0.9747475E+00  0.0000000E+00  0.5050505E-02 -0.5233808E-07  0.0000000E+00  0.3389723E-05
  0.9848485E+00  0.0000000E+00  0.5050505E-02 -0.3134704E-07  0.0000000E+00  0.3305759E-05
  0.9974747E+00  0.0000000E+00  0.5050505E-02 -0.1043973E-07  0.0000000E+00  0.3263833E-05
  0.5050505E-02  0.0000000E+00  0.1515152E-01  0.1705626E-07  0.0000000E+00 -0.1586454E-05
  0.1515152E-01  0.0000000E+00  0.1515152E-01  0.5121382E-07  0.0000000E+00 -0.1563627E-05
  0.2525252E-01  0.0000000E+00  0.1515152E-01  0.8550672E-07  0.0000000E+00 -0.1517912E-05
  0.3535353E-01  0.0000000E+00  0.1515152E-01  0.1200256E-06  0.0000000E+00 -0.1449189E-05
  0.4545455E-01  0.0000000E+00  0.1515152E-01  0.1548618E-06  0.0000000E+00 -0.1357278E-05
  0.5555556E-01  0.0000000E+00  0.1515152E-01  0.1901073E-06  0.0000000E+00 -0.1241935E-05
  0.6565657E-01  0.0000000E+00  0.1515152E-01  0.2258553E-06  0.0000000E+00 -0.1102857E-05
  0.7575758E-01  0.0000000E+00  0.1515152E-01  0.2622001E-06  0.0000000E+00 -0.9396772E-06
  0.8585858E-01  0.0000000E+00  0.1515152E-01  0.2992378E-06  0.0000000E+00 -0.7519660E-06
  0.9595960E-01  0.0000000E+00  0.1515152E-01  0.3370661E-06  0.0000000E+00 -0.5392288E-06
  0.1060606E+00  0.0000000E+00  0.1515152E-01  0.3757856E-06  0.0000000E+00 -0.3009058E-06
  0.1161616E+00  0.0000000E+00  0.1515152E-01  0.4155010E-06  0.0000000E+00 -0.3621952E-07
  0.1262626E+00  0.0000000E+00  0.1515152E-01  0.4562187E-06  0.0000000E+00  0.2558007E-06
  0.1363636E+00  0.0000000E+00  0.1515152E-01  0.4981516E-06  0.0000000E+00  0.5758002E-06
  0.1464646E+00  0.0000000E+00  0.1515152E-01  0.5414076E-06  0.0000000E+00  0.9243807E-06
  0.1565657E+00  0.0000000E+00  0.1515152E-01  0.5860996E-06  0.0000000E+00  0.1302471E-05
  0.1666667E+00  0.0000000E+00  0.1515152E-01  0.6323460E-06  0.0000000E+00  0.1711079E-05
  0.1767677E+00  0.0000000E+00  0.1515152E-01  0.6802714E-06  0.0000000E+00  0.2151292E-05
  0.1868687E+00  0.0000000E+00  0.1515152E-01  0.7300074E-06  0.0000000E+00  0.2624287E-05
  0.1969697E+00  0.0000000E+00  0.1515152E-01  0.7816927E-06  0.0000000E+00  0.3131330E-05
  0.2070707E+00  0.0000000E+00  0.1515152E-01  0.8354774E-06  0.0000000E+00  0.3673786E-05
  0.2171717E+00  0.0000000E+00  0.1515152E-01  0.8915209E-06  0.0000000E+00  0.4253123E-05
  0.2272727E+00  0.0000000E+00  0.1515152E-01  0.9499934E-06  0.0000000E+00  0.4870922E-05
  0.2373737E+00  0.0000000E+00  0.1515152E-01  0.1011078E-05  0.0000000E+00  0.5528881E-05
  0.2474747E+00  0.0000000E+00  0.1515152E-01  0.1074971E-05  0.0000000E+00  0.6228830E-05
  0.2575758E+00  0.0000000E+00  0.1515152E-01  0.1141889E-05  0.0000000E+00  0.6972734E-05
  0.2676768E+00  0.0000000E+00  0.1515152E-01  0.1212062E-05  0.0000000E+00  0.7762712E-05
  0.2777778E+00  0.0000000E+00  0.1515152E-01  0.1285747E-05  0.0000000E+00  0.8601047E-05
  0.2878788E+00  0.0000000E+00  0.1515152E-01  0.1363222E-05  0.0000000E+00  0.9490204E-05
  0.2979798E+00  0.0000000E+00  0.1515152E-01  0.1444795E-05  0.0000000E+00  0.1043285E-04
  0.3080808E+00  0.0000000E+00  0.1515152E-01  0.1530800E-05  0.0000000E+00  0.1143185E-04
  0.3181818E+00  0.0000000E+00  0.1515152E-01  0.1621605E-05  0.0000000E+00  0.1249035E-04
  0.3282828E+00  0.0000000E+00  0.1515152E-01  0.1717611E-05  0.0000000E+00  0.1361172E-04
  0.3383838E+00  0.0000000E+00  0.1515152E-01  0.1819251E-05  0.0000000E+00  0.1479963E-04
  0.3484848E+00  0.0000000E+00  0.1515152E-01  0.1926984E-05  0.0000000E+00  0.1605806E-04
  0.3585859E+00  0.0000000E+00  0.1515152E-01  0.2041286E-05  0.0000000E+00  0.1739133E-04
  0.3686869E+00  0.0000000E+00  0.1515152E-01  0.2162631E-05  0.0000000E+00  0.1880408E-04
  0.3787879E+00  0.0000000E+00  0.1515152E-01  0.2291458E-05  0.0000000E+00  0.2030130E-04
  0.3888889E+00  0.0000000E+00  0.1515152E-01  0.2428113E-05  0.0000000E+00  0.2188829E-04
  0.3989899E+00  0.0000000E+00  0.1515152E-01  0.2572764E-05  0.0000000E+00  0.2357057E-04
  0.4090909E+00  0.0000000E+00  0.1515152E-01  0.2725260E-05  0.0000000E+00  0.2535379E-04
  0.4191919E+00  0.0000000E+00  0.1515152E-01  0.2884922E-05  0.0000000E+00  0.2724342E-04
  0.4292929E+00  0.0000000E+00  0.1515152E-01  0.3050227E-05  0.0000000E+00  0.2924441E-04
  0.4393939E+00  0.0000000E+00  0.1515152E-01  0.3218347E-05  0.0000000E+00  0.3136050E-04
  0.4494950E+00  0.0000000E+00  0.1515152E-01  0.3384473E-05  0.0000000E+00  0.3359322E-04
  0.4595959E+00  0.0000000E+00  0.1515152E-01  0.3540886E-05  0.0000000E+00  0.3594038E-04
  0.4696970E+00  0.0000000E+00  0.1515152E-01  0.3675699E-05  0.0000000E+00  0.3839377E-04
  0.4797980E+00  0.0000000E+00  0.1515152E-01  0.3771277E-05  0.0000000E+00  0.4093584E-04
  0.4898990E+00  0.0000000E+00  0.1515152E-01  0.3802487E-05  0.0000000E+00  0.4353515E-04
  0.5000000E+00  0.0000000E+00  0.1515152E-01  0.3735258E-05  0.0000000E+00  0.4614020E-04
  0.5101010E+00  0.0000000E+00  0.1515152E-01  0.3526604E-05  0.0000000E+00  0.4867209E-04
  0.5202020E+00  0.0000000E+00  0.1515152E-01  0.3128351E-05  0.0000000E+00  0.5101727E-04
  0.5303030E+00  0.0000000E+00  0.1515152E-01  0.2498093E-05  0.0000000E+00  0.5302424E-04
  0.5404040E+00  0.0000000E+00  0.1515152E-01  0.1620902E-05  0.0000000E+00  0.5451187E-04
  0.5505050E+00  0.0000000E+00  0.1515152E-01  0.5400820E-06  0.0000000E+00  0.5530039E-04
  0.5606061E+00  0.0000000E+00  0.1515152E-01 -0.6214340E-06  0.0000000E+00  0.5527064E-04
  0.5707071E+00  0.0000000E+00  0.1515152E-01 -0.1691471E-05  0.0000000E+00  0.5442677E-04
  0.5808081E+00  0.0000000E+00  0.1515152E-01 -0.2549730E-05  0.0000000E+00  0.5289519E-04
  0.5909091E+00  0.0000000E+00  0.1515152E-01 -0.3156943E-05  0.0000000E+00  0.5086010E-04
  0.6010101E+00  0.0000000E+00  0.1515152E-01 -0.3532000E-05  0.0000000E+00  0.4850390E-04
  0.6111111E+00  0.0000000E+00  0.1515152E-01 -0.3720224E-05  0.0000000E+00  0.4597671E-04
  0.6212121E+00  0.0000000E+00  0.1515152E-01 -0.3771351E-05  0.0000000E+00  0.4338917E-04
  0.6313131E+00  0.0000000E+00  0.1515152E-01 -0.3728756E-05  0.0000000E+00  0.4081669E-04
  0.6414142E+00  0.0000000E+00  0.1515152E-01 -0.3626101E-05  0.0000000E+00  0.3830743E-04
  0.6515151E+00  0.0000000E+00  0.1515152E-01 -0.3487680E-05  0.0000000E+00  0.3589009E-04
  0.6616161E+00  0.0000000E+00  0.1515152E-01 -0.3330153E-05  0.0000000E+00  0.3358014E-04
  0.6717172E+00  0.0000000E+00  0.1515152E-01 -0.3164474E-05  0.0000000E+00  0.3138446E-04
  0.6818182E+00  0.0000000E+00  0.1515152E-01 -0.2997562E-05  0.0000000E+00  0.2930453E-04
  0.6919192E+00  0.0000000E+00  0.1515152E-01 -0.2833590E-05  0.0000000E+00  0.2733857E-04
  0.7020202E+00  0.0000000E+00  0.1515152E-01 -0.2674914E-05  0.0000000E+00  0.2548298E-04
  0.7121212E+00  0.0000000E+00  0.1515152E-01 -0.2522727E-05  0.0000000E+00  0.2373324E-04
  0.7222222E+00  0.0000000E+00  0.1515152E-01 -0.2377491E-05  0.0000000E+00  0.2208442E-04
  0.7323232E+00  0.0000000E+00  0.1515152E-01 -0.2239231E-05  0.0000000E+00  0.2053157E-04
  0.7424242E+00  0.0000000E+00  0.1515152E-01 -0.2107721E-05  0.0000000E+00  0.1906991E-04
  0.7525253E+00  0.0000000E+00  0.1515152E-01 -0.1982603E-05  0.0000000E+00  0.1769487E-04
  0.7626263E+00  0.0000000E+00  0.1515152E-01 -0.1863460E-05  0.0000000E+00  0.1640221E-04
  0.7727273E+00  0.0000000E+00  0.1515152E-01 -0.1749859E-05  0.0000000E+00  0.1518799E-04
  0.7828283E+00  0.0000000E+00  0.1515152E-01 -0.1641378E-05  0.0000000E+00  0.1404859E-04
  0.7929293E+00  0.0000000E+00  0.1515152E-01 -0.1537617E-05  0.0000000E+00  0.1298064E-04
  0.8030303E+00  0.0000000E+00  0.1515152E-01 -0.1438203E-05  0.0000000E+00  0.1198109E-04
  0.8131313E+00  0.0000000E+00  0.1515152E-01 -0.1342794E-05  0.0000000E+00  0.1104710E-04
  0.8232324E+00  0.0000000E+00  0.1515152E-01 -0.1251074E-05  0.0000000E+00  0.1017605E-04
  0.8333333E+00  0.0000000E+00  0.1515152E-01 -0.1162754E-05  0.0000000E+00  0.9365552E-05
  0.8434343E+00  0.0000000E+00  0.1515152E-01 -0.1077564E-05  0.0000000E+00  0.8613394E-05
  0.8535354E+00  0.0000000E+00  0.1515152E-01 -0.9952562E-06  0.0000000E+00  0.7917539E-05
  0.8636364E+00  0.0000000E+00  0.1515152E-01 -0.9155974E-06  0.0000000E+00  0.7276116E-05
  0.8737374E+00  0.0000000E+00  0.1515152E-01 -0.8383677E-06  0.0000000E+00  0.6687407E-05
  0.8838384E+00  0.0000000E+00  0.1515152E-01 -0.7633582E-06  0.0000000E+00  0.6149839E-05
  0.8939394E+00  0.0000000E+00  0.1515152E-01 -0.6903690E-06  0.0000000E+00  0.5661979E-05
  0.9040404E+00  0.0000000E+00  0.1515152E-01 -0.6192073E-06  0.0000000E+00  0.5222524E-05
  0.9141414E+00  0.0000000E+00  0.1515152E-01 -0.5496864E-06  0.0000000E+00  0.4830302E-05
  0.9242424E+00  0.0000000E+00  0.1515152E-01 -0.4816238E-06  0.0000000E+00  0.4484265E-05
  0.9343435E+00  0.0000000E+00  0.1515152E-01 -0.4148412E-06  0.0000000E+00  0.4183487E-05
  0.9444444E+00  0.0000000E+00  0.1515152E-01 -0.3491628E-06  0.0000000E+00  0.3927162E-05
  0.9545454E+00  0.0000000E+00  0.1515152E-01 -0.2844154E-06  0.0000000E+00  0.3714603E-05
  0.9646465E+00  0.0000000E+00  0.1515152E-01 -0.2204272E-06  0.0000000E+00  0.3545237E-05
  0.9747475E+00  0.0000000E+00  0.1515152E-01 -0.1570283E-06  0.0000000E+00  0.3418610E-05
  0.9848485E+00  0.0000000E+00  0.1515152E-01 -0.9404926E-07  0.0000000E+00  0.3334381E-05
  0.9974747E+00  0.0000000E+00  0.1515152E-01 -0.3132184E-07  0.0000000E+00  0.3292323E-05
  0.5050505E-02  0.0000000E+00  0.2525252E-01  0.2844390E-07  0.0000000E+00 -0.1545478E-05
  0.1515152E-01  0.0000000E+00  0.2525252E-01  0.8540694E-07  0.0000000E+00 -0.1522517E-05
  0.2525252E-01  0.0000000E+00  0.2525252E-01  0.1425960E-06  0.0000000E+00 -0.1476536E-05
  0.3535353E-01  0.0000000E+00  0.2525252E-01  0.2001623E-06  0.0000000E+00 -0.1407413E-05
  0.4545455E-01  0.0000000E+00  0.2525252E-01  0.2582584E-06  0.0000000E+00 -0.1314965E-05
  0.5555556E-01  0.0000000E+00  0.2525252E-01  0.3170378E-06  0.0000000E+00 -0.1198948E-05
  0.6565657E-01  0.0000000E+00  0.2525252E-01  0.3766561E-06  0.0000000E+00 -0.1059055E-05
  0.7575758E-01  0.0000000E+00  0.2525252E-01  0.4372708E-06  0.0000000E+00 -0.8949177E-06
  0.8585858E-01  0.0000000E+00  0.2525252E-01  0.4990420E-06  0.0000000E+00 -0.7061012E-06
  0.9595960E-01  0.0000000E+00  0.2525252E-01  0.5621326E-06  0.0000000E+00 -0.4921076E-06
  0.1060606E+00  0.0000000E+00  0.2525252E-01  0.6267084E-06  0.0000000E+00 -0.2523738E-06
  0.1161616E+00  0.0000000E+00  0.2525252E-01  0.6929357E-06  0.0000000E+00  0.1394774E-07
  0.1262626E+00  0.0000000E+00  0.2525252E-01  0.7608496E-06  0.0000000E+00  0.3077641E-06
  0.1363636E+00  0.0000000E+00  0.2525252E-01  0.8307940E-06  0.0000000E+00  0.6296640E-06
  0.1464646E+00  0.0000000E+00  0.2525252E-01  0.9029463E-06  0.0000000E+00  0.9803275E-06
  0.1565657E+00  0.0000000E+00  0.2525252E-01  0.9774943E-06  0.0000000E+00  0.1360690E-05
  0.1666667E+00  0.0000000E+00  0.2525252E-01  0.1054635E-05  0.0000000E+00  0.1771765E-05
  0.1767677E+00  0.0000000E+00  0.2525252E-01  0.1134578E-05  0.0000000E+00  0.2214649E-05
  0.1868687E+00  0.0000000E+00  0.2525252E-01  0.1217541E-05  0.0000000E+00  0.2690524E-05
  0.1969697E+00  0.0000000E+00  0.2525252E-01  0.1303757E-05  0.0000000E+00  0.3200667E-05
  0.2070707E+00  0.0000000E+00  0.2525252E-01  0.1393474E-05  0.0000000E+00  0.3746451E-05
  0.2171717E+00  0.0000000E+00  0.2525252E-01  0.1486960E-05  0.0000000E+00  0.4329354E-05
  0.2272727E+00  0.0000000E+00  0.2525252E-01  0.1584497E-05  0.0000000E+00  0.4950966E-05
  0.2373737E+00  0.0000000E+00  0.2525252E-01  0.1686391E-05  0.0000000E+00  0.5612995E-05
  0.2474747E+00  0.0000000E+00  0.2525252E-01  0.1792969E-05  0.0000000E+00  0.6317281E-05
  0.2575758E+00  0.0000000E+00  0.2525252E-01  0.1904589E-05  0.0000000E+00  0.7065799E-05
  0.2676768E+00  0.0000000E+00  0.2525252E-01  0.2021639E-05  0.0000000E+00  0.7860679E-05
  0.2777778E+00  0.0000000E+00  0.2525252E-01  0.2144544E-05  0.0000000E+00  0.8704216E-05
  0.2878788E+00  0.0000000E+00  0.2525252E-01  0.2273770E-05  0.0000000E+00  0.9598885E-05
  0.2979798E+00  0.0000000E+00  0.2525252E-01  0.2409828E-05  0.0000000E+00  0.1054736E-04
  0.3080808E+00  0.0000000E+00  0.2525252E-01  0.2553281E-05  0.0000000E+00  0.1155255E-04
  0.3181818E+00  0.0000000E+00  0.2525252E-01  0.2704747E-05  0.0000000E+00  0.1261759E-04
  0.3282828E+00  0.0000000E+00  0.2525252E-01  0.2864899E-05  0.0000000E+00  0.1374589E-04
  0.3383838E+00  0.0000000E+00  0.2525252E-01  0.3034473E-05  0.0000000E+00  0.1494116E-04
  0.3484848E+00  0.0000000E+00  0.2525252E-01  0.3214252E-05  0.0000000E+00  0.1620746E-04
  0.3585859E+00  0.0000000E+00  0.2525252E-01  0.3405062E-05  0.0000000E+00  0.1754917E-04
  0.3686869E+00  0.0000000E+00  0.2525252E-01  0.3607741E-05  0.0000000E+00  0.1897109E-04
  0.3787879E+00  0.0000000E+00  0.2525252E-01  0.3823093E-05  0.0000000E+00  0.2047841E-04
  0.3888889E+00  0.0000000E+00  0.2525252E-01  0.4051807E-05  0.0000000E+00  0.2207674E-04
  0.3989899E+00  0.0000000E+00  0.2525252E-01  0.4294327E-05  0.0000000E+00  0.2377211E-04
  0.4090909E+00  0.0000000E+00  0.2525252E-01  0.4550648E-05  0.0000000E+00  0.2557086E-04
  0.4191919E+00  0.0000000E+00  0.2525252E-01  0.4819999E-05  0.0000000E+00  0.2747956E-04
  0.4292929E+00  0.0000000E+00  0.2525252E-01  0.5100363E-05  0.0000000E+00  0.2950475E-04
  0.4393939E+00  0.0000000E+00  0.2525252E-01  0.5387759E-05  0.0000000E+00  0.3165251E-04
  0.4494950E+00  0.0000000E+00  0.2525252E-01  0.5675187E-05  0.0000000E+00  0.3392775E-04
  0.4595959E+00  0.0000000E+00  0.2525252E-01  0.5951118E-05  0.0000000E+00  0.3633309E-04
  0.4696970E+00  0.0000000E+00  0.2525252E-01  0.6197378E-05  0.0000000E+00  0.3886693E-04
  0.4797980E+00  0.0000000E+00  0.2525252E-01  0.6386326E-05  0.0000000E+00  0.4152052E-04
  0.4898990E+00  0.0000000E+00  0.2525252E-01  0.6477360E-05  0.0000000E+00  0.4427320E-04
  0.5000000E+00  0.0000000E+00  0.2525252E-01  0.6413205E-05  0.0000000E+00  0.4708521E-04
  0.5101010E+00  0.0000000E+00  0.2525252E-01  0.6117474E-05  0.0000000E+00  0.4988678E-04
  0.5202020E+00  0.0000000E+00  0.2525252E-01  0.5497104E-05  0.0000000E+00  0.5256336E-04
  0.5303030E+00  0.0000000E+00  0.2525252E-01  0.4457055E-05  0.0000000E+00  0.5493940E-04
  0.5404040E+00  0.0000000E+00  0.2525252E-01  0.2938967E-05  0.0000000E+00  0.5677144E-04
  0.5505050E+00  0.0000000E+00  0.2525252E-01  0.9930470E-06  0.0000000E+00  0.5777733E-04
  0.5606061E+00  0.0000000E+00  0.2525252E-01 -0.1140891E-05  0.0000000E+00  0.5773971E-04
  0.5707071E+00  0.0000000E+00  0.2525252E-01 -0.3065939E-05  0.0000000E+00  0.5666467E-04
  0.5808081E+00  0.0000000E+00  0.2525252E-01 -0.4547982E-05  0.0000000E+00  0.5477972E-04
  0.5909091E+00  0.0000000E+00  0.2525252E-01 -0.5545157E-05  0.0000000E+00  0.5237240E-04
  0.6010101E+00  0.0000000E+00  0.2525252E-01 -0.6123524E-05  0.0000000E+00  0.4968658E-04
  0.6111111E+00  0.0000000E+00  0.2525252E-01 -0.6383340E-05  0.0000000E+00  0.4689475E-04
  0.6212121E+00  0.0000000E+00  0.2525252E-01 -0.6420104E-05  0.0000000E+00  0.4410672E-04
  0.6313131E+00  0.0000000E+00  0.2525252E-01 -0.6310456E-05  0.0000000E+00  0.4138740E-04
  0.6414142E+00  0.0000000E+00  0.2525252E-01 -0.6110572E-05  0.0000000E+00  0.3877236E-04
  0.6515151E+00  0.0000000E+00  0.2525252E-01 -0.5859340E-05  0.0000000E+00  0.3627909E-04
  0.6616161E+00  0.0000000E+00  0.2525252E-01 -0.5582572E-05  0.0000000E+00  0.3391420E-04
  0.6717172E+00  0.0000000E+00  0.2525252E-01 -0.5296777E-05  0.0000000E+00  0.3167807E-04
  0.6818182E+00  0.0000000E+00  0.2525252E-01 -0.5012109E-05  0.0000000E+00  0.2956756E-04
  0.6919192E+00  0.0000000E+00  0.2525252E-01 -0.4734509E-05  0.0000000E+00  0.2757774E-04
  0.7020202E+00  0.0000000E+00  0.2525252E-01 -0.4467187E-05  0.0000000E+00  0.2570286E-04
  0.7121212E+00  0.0000000E+00  0.2525252E-01 -0.4211636E-05  0.0000000E+00  0.2393697E-04
  0.7222222E+00  0.0000000E+00  0.2525252E-01 -0.3968294E-05  0.0000000E+00  0.2227422E-04
  0.7323232E+00  0.0000000E+00  0.2525252E-01 -0.3736981E-05  0.0000000E+00  0.2070905E-04
  0.7424242E+00  0.0000000E+00  0.2525252E-01 -0.3517174E-05  0.0000000E+00  0.1923626E-04
  0.7525253E+00  0.0000000E+00  0.2525252E-01 -0.3308182E-05  0.0000000E+00  0.1785105E-04
  0.7626263E+00  0.0000000E+00  0.2525252E-01 -0.3109249E-05  0.0000000E+00  0.1654901E-04
  0.7727273E+00  0.0000000E+00  0.2525252E-01 -0.2919616E-05  0.0000000E+00  0.1532609E-04
  0.7828283E+00  0.0000000E+00  0.2525252E-01 -0.2738557E-05  0.0000000E+00  0.1417858E-04
  0.7929293E+00  0.0000000E+00  0.2525252E-01 -0.2565389E-05  0.0000000E+00  0.1310310E-04
  0.8030303E+00  0.0000000E+00  0.2525252E-01 -0.2399485E-05  0.0000000E+00  0.1209653E-04
  0.8131313E+00  0.0000000E+00  0.2525252E-01 -0.2240268E-05  0.0000000E+00  0.1115601E-04
  0.8232324E+00  0.0000000E+00  0.2525252E-01 -0.2087210E-05  0.0000000E+00  0.1027892E-04
  0.8333333E+00  0.0000000E+00  0.2525252E-01 -0.1939827E-05  0.0000000E+00  0.9462831E-05
  0.8434343E+00  0.0000000E+00  0.2525252E-01 -0.1797671E-05  0.0000000E+00  0.8705518E-05
  0.8535354E+00  0.0000000E+00  0.2525252E-01 -0.1660328E-05  0.0000000E+00  0.8004928E-05
  0.8636364E+00  0.0000000E+00  0.2525252E-01 -0.1527408E-05  0.0000000E+00  0.7359172E-05
  0.8737374E+00  0.0000000E+00  0.2525252E-01 -0.1398545E-05  0.0000000E+00  0.6766515E-05
  0.8838384E+00  0.0000000E+00  0.2525252E-01 -0.1273391E-05  0.0000000E+00  0.6225371E-05
  0.8939394E+00  0.0000000E+00  0.2525252E-01 -0.1151613E-05  0.0000000E+00  0.5734288E-05
  0.9040404E+00  0.0000000E+00  0.2525252E-01 -0.1032888E-05  0.0000000E+00  0.5291952E-05
  0.9141414E+00  0.0000000E+00  0.2525252E-01 -0.9169056E-06  0.0000000E+00  0.4897176E-05
  0.9242424E+00  0.0000000E+00  0.2525252E-01 -0.8033609E-06  0.0000000E+00  0.4548901E-05
  0.9343435E+00  0.0000000E+00  0.2525252E-01 -0.6919557E-06  0.0000000E+00  0.4246189E-05
  0.9444444E+00  0.0000000E+00  0.2525252E-01 -0.5823965E-06  0.0000000E+00  0.3988224E-05
  0.9545454E+00  0.0000000E+00  0.2525252E-01 -0.4743937E-06  0.0000000E+00  0.3774311E-05
  0.9646465E+00  0.0000000E+00  0.2525252E-01 -0.3676606E-06  0.0000000E+00  0.3603871E-05
  0.9747475E+00  0.0000000E+00  0.2525252E-01 -0.2619127E-06  0.0000000E+00  0.3476444E-05
  0.9848485E+00  0.0000000E+00  0.2525252E-01 -0.1568671E-06  0.0000000E+00  0.3391683E-05
  0.9974747E+00  0.0000000E+00  0.2525252E-01 -0.5224232E-07  0.0000000E+00  0.3349359E-05
  0.5050505E-02  0.0000000E+00  0.3535353E-01  0.3988164E-07  0.0000000E+00 -0.1484034E-05
  0.1515152E-01  0.0000000E+00  0.3535353E-01  0.1197506E-06  0.0000000E+00 -0.1460874E-05
  0.2525252E-01  0.0000000E+00  0.3535353E-01  0.1999370E-06  0.0000000E+00 -0.1414493E-05
  0.3535353E-01  0.0000000E+00  0.3535353E-01  0.2806533E-06  0.0000000E+00 -0.1344768E-05
  0.4545455E-01  0.0000000E+00  0.3535353E-01  0.3621134E-06  0.0000000E+00 -0.1251514E-05
  0.5555556E-01  0.0000000E+00  0.3535353E-01  0.4445333E-06  0.0000000E+00 -0.1134484E-05
  0.6565657E-01  0.0000000E+00  0.3535353E-01  0.5281311E-06  0.0000000E+00 -0.9933682E-06
  0.7575758E-01  0.0000000E+00  0.3535353E-01  0.6131281E-06  0.0000000E+00 -0.8277911E-06
  0.8585858E-01  0.0000000E+00  0.3535353E-01  0.6997492E-06  0.0000000E+00 -0.6373140E-06
  0.9595960E-01  0.0000000E+00  0.3535353E-01  0.7882236E-06  0.0000000E+00 -0.4214311E-06
  0.1060606E+00  0.0000000E+00  0.3535353E-01  0.8787854E-06  0.0000000E+00 -0.1795665E-06
  0.1161616E+00  0.0000000E+00  0.3535353E-01  0.9716074E-06  0.0000000E+00  0.8920941E-07
  0.1262626E+00  0.0000000E+00  0.3535353E-01  0.1066864E-05  0.0000000E+00  0.3857107E-06
  0.1363636E+00  0.0000000E+00  0.3535353E-01  0.1164967E-05  0.0000000E+00  0.7104645E-06
  0.1464646E+00  0.0000000E+00  0.3535353E-01  0.1266167E-05  0.0000000E+00  0.1064259E-05
  0.1565657E+00  0.0000000E+00  0.3535353E-01  0.1370726E-05  0.0000000E+00  0.1448038E-05
  0.1666667E+00  0.0000000E+00  0.3535353E-01  0.1478924E-05  0.0000000E+00  0.1862823E-05
  0.1767677E+00  0.0000000E+00  0.3535353E-01  0.1591051E-05  0.0000000E+00  0.2309721E-05
  0.1868687E+00  0.0000000E+00  0.3535353E-01  0.1707416E-05  0.0000000E+00  0.2789928E-05
  0.1969697E+00  0.0000000E+00  0.3535353E-01  0.1828345E-05  0.0000000E+00  0.3304733E-05
  0.2070707E+00  0.0000000E+00  0.3535353E-01  0.1954187E-05  0.0000000E+00  0.3855522E-05
  0.2171717E+00  0.0000000E+00  0.3535353E-01  0.2085314E-05  0.0000000E+00  0.4443789E-05
  0.2272727E+00  0.0000000E+00  0.3535353E-01  0.2222122E-05  0.0000000E+00  0.5071136E-05
  0.2373737E+00  0.0000000E+00  0.3535353E-01  0.2365040E-05  0.0000000E+00  0.5739289E-05
  0.2474747E+00  0.0000000E+00  0.3535353E-01  0.2514525E-05  0.0000000E+00  0.6450101E-05
  0.2575758E+00  0.0000000E+00  0.3535353E-01  0.2671078E-05  0.0000000E+00  0.7205563E-05
  0.2676768E+00  0.0000000E+00  0.3535353E-01  0.2835242E-05  0.0000000E+00  0.8007820E-05
  0.2777778E+00  0.0000000E+00  0.3535353E-01  0.3007613E-05  0.0000000E+00  0.8859183E-05
  0.2878788E+00  0.0000000E+00  0.3535353E-01  0.3188844E-05  0.0000000E+00  0.9762146E-05
  0.2979798E+00  0.0000000E+00  0.3535353E-01  0.3379654E-05  0.0000000E+00  0.1071940E-04