title = "dataset water"
variables = "x", "y", "z", "vx", "vy", "vz"
zone t = "velocities, solution time =  2.600E+01 days        " i =   99, j =   99, k =    1,  f=point
  0.5050505E-02  0.0000000E+00  0.5050505E-02  0.5409383E-09  0.0000000E+00 -0.1136309E-04
  0.1515152E-01  0.0000000E+00  0.5050505E-02  0.1623052E-08  0.0000000E+00 -0.1136092E-04
  0.2525252E-01  0.0000000E+00  0.5050505E-02  0.2705859E-08  0.0000000E+00 -0.1135659E-04
  0.3535353E-01  0.0000000E+00  0.5050505E-02  0.3789793E-08  0.0000000E+00 -0.1135008E-04
  0.4545455E-01  0.0000000E+00  0.5050505E-02  0.4875247E-08  0.0000000E+00 -0.1134140E-04
  0.5555556E-01  0.0000000E+00  0.5050505E-02  0.5962550E-08  0.0000000E+00 -0.1133055E-04
  0.6565657E-01  0.0000000E+00  0.5050505E-02  0.7051955E-08  0.0000000E+00 -0.1131752E-04
  0.7575758E-01  0.0000000E+00  0.5050505E-02  0.8143619E-08  0.0000000E+00 -0.1130230E-04
  0.8585858E-01  0.0000000E+00  0.5050505E-02  0.9237582E-08  0.0000000E+00 -0.1128490E-04
  0.9595960E-01  0.0000000E+00  0.5050505E-02  0.1033375E-07  0.0000000E+00 -0.1126530E-04
  0.1060606E+00  0.0000000E+00  0.5050505E-02  0.1143187E-07  0.0000000E+00 -0.1124350E-04
  0.1161616E+00  0.0000000E+00  0.5050505E-02  0.1253152E-07  0.0000000E+00 -0.1121951E-04
  0.1262626E+00  0.0000000E+00  0.5050505E-02  0.1363207E-07  0.0000000E+00 -0.1119331E-04
  0.1363636E+00  0.0000000E+00  0.5050505E-02  0.1473267E-07  0.0000000E+00 -0.1116490E-04
  0.1464646E+00  0.0000000E+00  0.5050505E-02  0.1583223E-07  0.0000000E+00 -0.1113430E-04
  0.1565657E+00  0.0000000E+00  0.5050505E-02  0.1692939E-07  0.0000000E+00 -0.1110149E-04
  0.1666667E+00  0.0000000E+00  0.5050505E-02  0.1802247E-07  0.0000000E+00 -0.1106649E-04
  0.1767677E+00  0.0000000E+00  0.5050505E-02  0.1910950E-07  0.0000000E+00 -0.1102931E-04
  0.1868687E+00  0.0000000E+00  0.5050505E-02  0.2018812E-07  0.0000000E+00 -0.1098996E-04
  0.1969697E+00  0.0000000E+00  0.5050505E-02  0.2125562E-07  0.0000000E+00 -0.1094846E-04
  0.2070707E+00  0.0000000E+00  0.5050505E-02  0.2230885E-07  0.0000000E+00 -0.1090484E-04
  0.2171717E+00  0.0000000E+00  0.5050505E-02  0.2334423E-07  0.0000000E+00 -0.1085912E-04
  0.2272727E+00  0.0000000E+00  0.5050505E-02  0.2435769E-07  0.0000000E+00 -0.1081136E-04
  0.2373737E+00  0.0000000E+00  0.5050505E-02  0.2534468E-07  0.0000000E+00 -0.1076159E-04
  0.2474747E+00  0.0000000E+00  0.5050505E-02  0.2630009E-07  0.0000000E+00 -0.1070988E-04
  0.2575758E+00  0.0000000E+00  0.5050505E-02  0.2721827E-07  0.0000000E+00 -0.1065629E-04
  0.2676768E+00  0.0000000E+00  0.5050505E-02  0.2809296E-07  0.0000000E+00 -0.1060090E-04
  0.2777778E+00  0.0000000E+00  0.5050505E-02  0.2891730E-07  0.0000000E+00 -0.1054382E-04
  0.2878788E+00  0.0000000E+00  0.5050505E-02  0.2968383E-07  0.0000000E+00 -0.1048514E-04
  0.2979798E+00  0.0000000E+00  0.5050505E-02  0.3038444E-07  0.0000000E+00 -0.1042500E-04
  0.3080808E+00  0.0000000E+00  0.5050505E-02  0.3101041E-07  0.0000000E+00 -0.1036353E-04
  0.3181818E+00  0.0000000E+00  0.5050505E-02  0.3155240E-07  0.0000000E+00 -0.1030088E-04
  0.3282828E+00  0.0000000E+00  0.5050505E-02  0.3200054E-07  0.0000000E+00 -0.1023725E-04
  0.3383838E+00  0.0000000E+00  0.5050505E-02  0.3234440E-07  0.0000000E+00 -0.1017283E-04
  0.3484848E+00  0.0000000E+00  0.5050505E-02  0.3257316E-07  0.0000000E+00 -0.1010783E-04
  0.3585859E+00  0.0000000E+00  0.5050505E-02  0.3267565E-07  0.0000000E+00 -0.1004250E-04
  0.3686869E+00  0.0000000E+00  0.5050505E-02  0.3264053E-07  0.0000000E+00 -0.9977102E-05
  0.3787879E+00  0.0000000E+00  0.5050505E-02  0.3245644E-07  0.0000000E+00 -0.9911926E-05
  0.3888889E+00  0.0000000E+00  0.5050505E-02  0.3211225E-07  0.0000000E+00 -0.9847279E-05
  0.3989899E+00  0.0000000E+00  0.5050505E-02  0.3159727E-07  0.0000000E+00 -0.9783493E-05
  0.4090909E+00  0.0000000E+00  0.5050505E-02  0.3090162E-07  0.0000000E+00 -0.9720920E-05
  0.4191919E+00  0.0000000E+00  0.5050505E-02  0.3001649E-07  0.0000000E+00 -0.9659929E-05
  0.4292929E+00  0.0000000E+00  0.5050505E-02  0.2893459E-07  0.0000000E+00 -0.9600909E-05
  0.4393939E+00  0.0000000E+00  0.5050505E-02  0.2765048E-07  0.0000000E+00 -0.9544257E-05
  0.4494950E+00  0.0000000E+00  0.5050505E-02  0.2616103E-07  0.0000000E+00 -0.9490383E-05
  0.4595959E+00  0.0000000E+00  0.5050505E-02  0.2446584E-07  0.0000000E+00 -0.9439698E-05
  0.4696970E+00  0.0000000E+00  0.5050505E-02  0.2256756E-07  0.0000000E+00 -0.9392610E-05
  0.4797980E+00  0.0000000E+00  0.5050505E-02  0.2047230E-07  0.0000000E+00 -0.9349521E-05
  0.4898990E+00  0.0000000E+00  0.5050505E-02  0.1818981E-07  0.0000000E+00 -0.9310814E-05
  0.5000000E+00  0.0000000E+00  0.5050505E-02  0.1573372E-07  0.0000000E+00 -0.9276852E-05
  0.5101010E+00  0.0000000E+00  0.5050505E-02  0.1312147E-07  0.0000000E+00 -0.9247964E-05
  0.5202020E+00  0.0000000E+00  0.5050505E-02  0.1037426E-07  0.0000000E+00 -0.9224442E-05
  0.5303030E+00  0.0000000E+00  0.5050505E-02  0.7516747E-08  0.0000000E+00 -0.9206531E-05
  0.5404040E+00  0.0000000E+00  0.5050505E-02  0.4576591E-08  0.0000000E+00 -0.9194424E-05
  0.5505050E+00  0.0000000E+00  0.5050505E-02  0.1583880E-08  0.0000000E+00 -0.9188256E-05
  0.5606061E+00  0.0000000E+00  0.5050505E-02 -0.1429588E-08  0.0000000E+00 -0.9188102E-05
  0.5707071E+00  0.0000000E+00  0.5050505E-02 -0.4431118E-08  0.0000000E+00 -0.9193969E-05
  0.5808081E+00  0.0000000E+00  0.5050505E-02 -0.7387979E-08  0.0000000E+00 -0.9205802E-05
  0.5909091E+00  0.0000000E+00  0.5050505E-02 -0.1026827E-07  0.0000000E+00 -0.9223478E-05
  0.6010101E+00  0.0000000E+00  0.5050505E-02 -0.1304177E-07  0.0000000E+00 -0.9246814E-05
  0.6111111E+00  0.0000000E+00  0.5050505E-02 -0.1568062E-07  0.0000000E+00 -0.9275569E-05
  0.6212121E+00  0.0000000E+00  0.5050505E-02 -0.1816000E-07  0.0000000E+00 -0.9309448E-05
  0.6313131E+00  0.0000000E+00  0.5050505E-02 -0.2045860E-07  0.0000000E+00 -0.9348111E-05
  0.6414142E+00  0.0000000E+00  0.5050505E-02 -0.2255890E-07  0.0000000E+00 -0.9391178E-05
  0.6515151E+00  0.0000000E+00  0.5050505E-02 -0.2444738E-07  0.0000000E+00 -0.9438238E-05
  0.6616161E+00  0.0000000E+00  0.5050505E-02 -0.2611447E-07  0.0000000E+00 -0.9488859E-05
  0.6717172E+00  0.0000000E+00  0.5050505E-02 -0.2755448E-07  0.0000000E+00 -0.9542590E-05
  0.6818182E+00  0.0000000E+00  0.5050505E-02 -0.2876533E-07  0.0000000E+00 -0.9598976E-05
  0.6919192E+00  0.0000000E+00  0.5050505E-02 -0.2974824E-07  0.0000000E+00 -0.9657559E-05
  0.7020202E+00  0.0000000E+00  0.5050505E-02 -0.3050731E-07  0.0000000E+00 -0.9717886E-05
  0.7121212E+00  0.0000000E+00  0.5050505E-02 -0.3104913E-07  0.0000000E+00 -0.9779515E-05
  0.7222222E+00  0.0000000E+00  0.5050505E-02 -0.3138235E-07  0.0000000E+00 -0.9842022E-05
  0.7323232E+00  0.0000000E+00  0.5050505E-02 -0.3151722E-07  0.0000000E+00 -0.9904997E-05
  0.7424242E+00  0.0000000E+00  0.5050505E-02 -0.3146519E-07  0.0000000E+00 -0.9968056E-05
  0.7525253E+00  0.0000000E+00  0.5050505E-02 -0.3123855E-07  0.0000000E+00 -0.1003084E-04
  0.7626263E+00  0.0000000E+00  0.5050505E-02 -0.3085009E-07  0.0000000E+00 -0.1009300E-04
  0.7727273E+00  0.0000000E+00  0.5050505E-02 -0.3031276E-07  0.0000000E+00 -0.1015424E-04
  0.7828283E+00  0.0000000E+00  0.5050505E-02 -0.2963948E-07  0.0000000E+00 -0.1021427E-04
  0.7929293E+00  0.0000000E+00  0.5050505E-02 -0.2884288E-07  0.0000000E+00 -0.1027282E-04
  0.8030303E+00  0.0000000E+00  0.5050505E-02 -0.2793516E-07  0.0000000E+00 -0.1032967E-04
  0.8131313E+00  0.0000000E+00  0.5050505E-02 -0.2692798E-07  0.0000000E+00 -0.1038461E-04
  0.8232324E+00  0.0000000E+00  0.5050505E-02 -0.2583229E-07  0.0000000E+00 -0.1043743E-04
  0.8333333E+00  0.0000000E+00  0.5050505E-02 -0.2465837E-07  0.0000000E+00 -0.1048799E-04
  0.8434343E+00  0.0000000E+00  0.5050505E-02 -0.2341570E-07  0.0000000E+00 -0.1053612E-04
  0.8535354E+00  0.0000000E+00  0.5050505E-02 -0.2211300E-07  0.0000000E+00 -0.1058171E-04
  0.8636364E+00  0.0000000E+00  0.5050505E-02 -0.2075819E-07  0.0000000E+00 -0.1062464E-04
  0.8737374E+00  0.0000000E+00  0.5050505E-02 -0.1935844E-07  0.0000000E+00 -0.1066481E-04
  0.8838384E+00  0.0000000E+00  0.5050505E-02 -0.1792020E-07  0.0000000E+00 -0.1070214E-04
  0.8939394E+00  0.0000000E+00  0.5050505E-02 -0.1644919E-07  0.0000000E+00 -0.1073655E-04
  0.9040404E+00  0.0000000E+00  0.5050505E-02 -0.1495051E-07  0.0000000E+00 -0.1076799E-04
  0.9141414E+00  0.0000000E+00  0.5050505E-02 -0.1342863E-07  0.0000000E+00 -0.1079641E-04
  0.9242424E+00  0.0000000E+00  0.5050505E-02 -0.1188747E-07  0.0000000E+00 -0.1082176E-04
  0.9343435E+00  0.0000000E+00  0.5050505E-02 -0.1033049E-07  0.0000000E+00 -0.1084400E-04
  0.9444444E+00  0.0000000E+00  0.5050505E-02 -0.8760668E-08  0.0000000E+00 -0.1086312E-04
  0.9545454E+00  0.0000000E+00  0.5050505E-02 -0.7180624E-08  0.0000000E+00 -0.1087908E-04
  0.9646465E+00  0.0000000E+00  0.5050505E-02 -0.5592653E-08  0.0000000E+00 -0.1089187E-04
  0.9747475E+00  0.0000000E+00  0.5050505E-02 -0.3998789E-08  0.0000000E+00 -0.1090148E-04
  0.9848485E+00  0.0000000E+00  0.5050505E-02 -0.2400860E-08  0.0000000E+00 -0.1090789E-04
  0.9974747E+00  0.0000000E+00  0.5050505E-02 -0.8005500E-09  0.0000000E+00 -0.1091109E-04
  0.5050505E-02  0.0000000E+00  0.1515152E-01  0.1624634E-08  0.0000000E+00 -0.1134249E-04
  0.1515152E-01  0.0000000E+00  0.1515152E-01  0.4874624E-08  0.0000000E+00 -0.1134031E-04
  0.2525252E-01  0.0000000E+00  0.1515152E-01  0.8126731E-08  0.0000000E+00 -0.1133595E-04
  0.3535353E-01  0.0000000E+00  0.1515152E-01  0.1138228E-07  0.0000000E+00 -0.1132940E-04
  0.4545455E-01  0.0000000E+00  0.1515152E-01  0.1464247E-07  0.0000000E+00 -0.1132067E-04
  0.5555556E-01  0.0000000E+00  0.1515152E-01  0.1790832E-07  0.0000000E+00 -0.1130975E-04
  0.6565657E-01  0.0000000E+00  0.1515152E-01  0.2118061E-07  0.0000000E+00 -0.1129663E-04
  0.7575758E-01  0.0000000E+00  0.1515152E-01  0.2445983E-07  0.0000000E+00 -0.1128132E-04
  0.8585858E-01  0.0000000E+00  0.1515152E-01  0.2774613E-07  0.0000000E+00 -0.1126380E-04
  0.9595960E-01  0.0000000E+00  0.1515152E-01  0.3103926E-07  0.0000000E+00 -0.1124407E-04
  0.1060606E+00  0.0000000E+00  0.1515152E-01  0.3433848E-07  0.0000000E+00 -0.1122213E-04
  0.1161616E+00  0.0000000E+00  0.1515152E-01  0.3764255E-07  0.0000000E+00 -0.1119797E-04
  0.1262626E+00  0.0000000E+00  0.1515152E-01  0.4094961E-07  0.0000000E+00 -0.1117160E-04
  0.1363636E+00  0.0000000E+00  0.1515152E-01  0.4425714E-07  0.0000000E+00 -0.1114300E-04
  0.1464646E+00  0.0000000E+00  0.1515152E-01  0.4756189E-07  0.0000000E+00 -0.1111218E-04
  0.1565657E+00  0.0000000E+00  0.1515152E-01  0.5085979E-07  0.0000000E+00 -0.1107914E-04
  0.1666667E+00  0.0000000E+00  0.1515152E-01  0.5414588E-07  0.0000000E+00 -0.1104389E-04
  0.1767677E+00  0.0000000E+00  0.1515152E-01  0.5741422E-07  0.0000000E+00 -0.1100643E-04
  0.1868687E+00  0.0000000E+00  0.1515152E-01  0.6065780E-07  0.0000000E+00 -0.1096679E-04
  0.1969697E+00  0.0000000E+00  0.1515152E-01  0.6386847E-07  0.0000000E+00 -0.1092497E-04
  0.2070707E+00  0.0000000E+00  0.1515152E-01  0.6703684E-07  0.0000000E+00 -0.1088101E-04
  0.2171717E+00  0.0000000E+00  0.1515152E-01  0.7015218E-07  0.0000000E+00 -0.1083494E-04
  0.2272727E+00  0.0000000E+00  0.1515152E-01  0.7320232E-07  0.0000000E+00 -0.1078678E-04
  0.2373737E+00  0.0000000E+00  0.1515152E-01  0.7617358E-07  0.0000000E+00 -0.1073660E-04
  0.2474747E+00  0.0000000E+00  0.1515152E-01  0.7905068E-07  0.0000000E+00 -0.1068445E-04
  0.2575758E+00  0.0000000E+00  0.1515152E-01  0.8181664E-07  0.0000000E+00 -0.1063039E-04
  0.2676768E+00  0.0000000E+00  0.1515152E-01  0.8445269E-07  0.0000000E+00 -0.1057451E-04
  0.2777778E+00  0.0000000E+00  0.1515152E-01  0.8693827E-07  0.0000000E+00 -0.1051690E-04
  0.2878788E+00  0.0000000E+00  0.1515152E-01  0.8925091E-07  0.0000000E+00 -0.1045767E-04
  0.2979798E+00  0.0000000E+00  0.1515152E-01  0.9136626E-07  0.0000000E+00 -0.1039694E-04
  0.3080808E+00  0.0000000E+00  0.1515152E-01  0.9325808E-07  0.0000000E+00 -0.1033485E-04
  0.3181818E+00  0.0000000E+00  0.1515152E-01  0.9489833E-07  0.0000000E+00 -0.1027155E-04
  0.3282828E+00  0.0000000E+00  0.1515152E-01  0.9625719E-07  0.0000000E+00 -0.1020724E-04
  0.3383838E+00  0.0000000E+00  0.1515152E-01  0.9730330E-07  0.0000000E+00 -0.1014210E-04
  0.3484848E+00  0.0000000E+00  0.1515152E-01  0.9800398E-07  0.0000000E+00 -0.1007636E-04
  0.3585859E+00  0.0000000E+00  0.1515152E-01  0.9832551E-07  0.0000000E+00 -0.1001026E-04
  0.3686869E+00  0.0000000E+00  0.1515152E-01  0.9823359E-07  0.0000000E+00 -0.9944059E-05
  0.3787879E+00  0.0000000E+00  0.1515152E-01  0.9769387E-07  0.0000000E+00 -0.9878056E-05
  0.3888889E+00  0.0000000E+00  0.1515152E-01  0.9667256E-07  0.0000000E+00 -0.9812561E-05
  0.3989899E+00  0.0000000E+00  0.1515152E-01  0.9513726E-07  0.0000000E+00 -0.9747908E-05
  0.4090909E+00  0.0000000E+00  0.1515152E-01  0.9305782E-07  0.0000000E+00 -0.9684454E-05
  0.4191919E+00  0.0000000E+00  0.1515152E-01  0.9040738E-07  0.0000000E+00 -0.9622575E-05
  0.4292929E+00  0.0000000E+00  0.1515152E-01  0.8716355E-07  0.0000000E+00 -0.9562665E-05
  0.4393939E+00  0.0000000E+00  0.1515152E-01  0.8330955E-07  0.0000000E+00 -0.9505130E-05
  0.4494950E+00  0.0000000E+00  0.1515152E-01  0.7883552E-07  0.0000000E+00 -0.9450389E-05
  0.4595959E+00  0.0000000E+00  0.1515152E-01  0.7373979E-07  0.0000000E+00 -0.9398861E-05
  0.4696970E+00  0.0000000E+00  0.1515152E-01  0.6802998E-07  0.0000000E+00 -0.9350966E-05
  0.4797980E+00  0.0000000E+00  0.1515152E-01  0.6172415E-07  0.0000000E+00 -0.9307116E-05
  0.4898990E+00  0.0000000E+00  0.1515152E-01  0.5485146E-07  0.0000000E+00 -0.9267708E-05
  0.5000000E+00  0.0000000E+00  0.1515152E-01  0.4745279E-07  0.0000000E+00 -0.9233113E-05
  0.5101010E+00  0.0000000E+00  0.1515152E-01  0.3958074E-07  0.0000000E+00 -0.9203673E-05
  0.5202020E+00  0.0000000E+00  0.1515152E-01  0.3129931E-07  0.0000000E+00 -0.9179689E-05
  0.5303030E+00  0.0000000E+00  0.1515152E-01  0.2268306E-07  0.0000000E+00 -0.9161416E-05
  0.5404040E+00  0.0000000E+00  0.1515152E-01  0.1381577E-07  0.0000000E+00 -0.9149055E-05
  0.5505050E+00  0.0000000E+00  0.1515152E-01  0.4788646E-08  0.0000000E+00 -0.9142746E-05
  0.5606061E+00  0.0000000E+00  0.1515152E-01 -0.4301881E-08  0.0000000E+00 -0.9142567E-05
  0.5707071E+00  0.0000000E+00  0.1515152E-01 -0.1335661E-07  0.0000000E+00 -0.9148528E-05
  0.5808081E+00  0.0000000E+00  0.1515152E-01 -0.2227625E-07  0.0000000E+00 -0.9160571E-05
  0.5909091E+00  0.0000000E+00  0.1515152E-01 -0.3096403E-07  0.0000000E+00 -0.9178570E-05
  0.6010101E+00  0.0000000E+00  0.1515152E-01 -0.3932829E-07  0.0000000E+00 -0.9202337E-05
  0.6111111E+00  0.0000000E+00  0.1515152E-01 -0.4728468E-07  0.0000000E+00 -0.9231622E-05
  0.6212121E+00  0.0000000E+00  0.1515152E-01 -0.5475808E-07  0.0000000E+00 -0.9266120E-05
  0.6313131E+00  0.0000000E+00  0.1515152E-01 -0.6168407E-07  0.0000000E+00 -0.9305482E-05
  0.6414142E+00  0.0000000E+00  0.1515152E-01 -0.6800986E-07  0.0000000E+00 -0.9349316E-05
  0.6515151E+00  0.0000000E+00  0.1515152E-01 -0.7369477E-07  0.0000000E+00 -0.9397200E-05
  0.6616161E+00  0.0000000E+00  0.1515152E-01 -0.7871023E-07  0.0000000E+00 -0.9448687E-05
  0.6717172E+00  0.0000000E+00  0.1515152E-01 -0.8303938E-07  0.0000000E+00 -0.9503318E-05
  0.6818182E+00  0.0000000E+00  0.1515152E-01 -0.8667634E-07  0.0000000E+00 -0.9560625E-05
  0.6919192E+00  0.0000000E+00  0.1515152E-01 -0.8962514E-07  0.0000000E+00 -0.9620139E-05
  0.7020202E+00  0.0000000E+00  0.1515152E-01 -0.9189863E-07  0.0000000E+00 -0.9681399E-05
  0.7121212E+00  0.0000000E+00  0.1515152E-01 -0.9351709E-07  0.0000000E+00 -0.9743955E-05
  0.7222222E+00  0.0000000E+00  0.1515152E-01 -0.9450695E-07  0.0000000E+00 -0.9807373E-05
  0.7323232E+00  0.0000000E+00  0.1515152E-01 -0.9489948E-07  0.0000000E+00 -0.9871239E-05
  0.7424242E+00  0.0000000E+00  0.1515152E-01 -0.9472953E-07  0.0000000E+00 -0.9935164E-05
  0.7525253E+00  0.0000000E+00  0.1515152E-01 -0.9403440E-07  0.0000000E+00 -0.9998780E-05
  0.7626263E+00  0.0000000E+00  0.1515152E-01 -0.9285280E-07  0.0000000E+00 -0.1006175E-04
  0.7727273E+00  0.0000000E+00  0.1515152E-01 -0.9122399E-07  0.0000000E+00 -0.1012375E-04
  0.7828283E+00  0.0000000E+00  0.1515152E-01 -0.8918699E-07  0.0000000E+00 -0.1018451E-04
  0.7929293E+00  0.0000000E+00  0.1515152E-01 -0.8677996E-07  0.0000000E+00 -0.1024375E-04
  0.8030303E+00  0.0000000E+00  0.1515152E-01 -0.8403971E-07  0.0000000E+00 -0.1030126E-04
  0.8131313E+00  0.0000000E+00  0.1515152E-01 -0.8100134E-07  0.0000000E+00 -0.1035680E-04
  0.8232324E+00  0.0000000E+00  0.1515152E-01 -0.7769791E-07  0.0000000E+00 -0.1041020E-04
  0.8333333E+00  0.0000000E+00  0.1515152E-01 -0.7416026E-07  0.0000000E+00 -0.1046129E-04
  0.8434343E+00  0.0000000E+00  0.1515152E-01 -0.7041695E-07  0.0000000E+00 -0.1050992E-04
  0.8535354E+00  0.0000000E+00  0.1515152E-01 -0.6649414E-07  0.0000000E+00 -0.1055596E-04
  0.8636364E+00  0.0000000E+00  0.1515152E-01 -0.6241565E-07  0.0000000E+00 -0.1059931E-04
  0.8737374E+00  0.0000000E+00  0.1515152E-01 -0.5820300E-07  0.0000000E+00 -0.1063987E-04
  0.8838384E+00  0.0000000E+00  0.1515152E-01 -0.5387548E-07  0.0000000E+00 -0.1067755E-04
  0.8939394E+00  0.0000000E+00  0.1515152E-01 -0.4945027E-07  0.0000000E+00 -0.1071228E-04
  0.9040404E+00  0.0000000E+00  0.1515152E-01 -0.4494260E-07  0.0000000E+00 -0.1074400E-04
  0.9141414E+00  0.0000000E+00  0.1515152E-01 -0.4036588E-07  0.0000000E+00 -0.1077267E-04
  0.9242424E+00  0.0000000E+00  0.1515152E-01 -0.3573183E-07  0.0000000E+00 -0.1079825E-04
  0.9343435E+00  0.0000000E+00  0.1515152E-01 -0.3105072E-07  0.0000000E+00 -0.1082069E-04
  0.9444444E+00  0.0000000E+00  0.1515152E-01 -0.2633148E-07  0.0000000E+00 -0.1083997E-04
  0.9545454E+00  0.0000000E+00  0.1515152E-01 -0.2158190E-07  0.0000000E+00 -0.1085607E-04
  0.9646465E+00  0.0000000E+00  0.1515152E-01 -0.1680881E-07  0.0000000E+00 -0.1086897E-04
  0.9747475E+00  0.0000000E+00  0.1515152E-01 -0.1201825E-07  0.0000000E+00 -0.1087865E-04
  0.9848485E+00  0.0000000E+00  0.1515152E-01 -0.7215647E-08  0.0000000E+00 -0.1088511E-04
  0.9974747E+00  0.0000000E+00  0.1515152E-01 -0.2405994E-08  0.0000000E+00 -0.1088835E-04
  0.5050505E-02  0.0000000E+00  0.2525252E-01  0.2715361E-08  0.0000000E+00 -0.1130137E-04
  0.1515152E-01  0.0000000E+00  0.2525252E-01  0.8147323E-08  0.0000000E+00 -0.1129916E-04
  0.2525252E-01  0.0000000E+00  0.2525252E-01  0.1358294E-07  0.0000000E+00 -0.1129474E-04
  0.3535353E-01  0.0000000E+00  0.2525252E-01  0.1902449E-07  0.0000000E+00 -0.1128812E-04
  0.4545455E-01  0.0000000E+00  0.2525252E-01  0.2447407E-07  0.0000000E+00 -0.1127927E-04
  0.5555556E-01  0.0000000E+00  0.2525252E-01  0.2993344E-07  0.0000000E+00 -0.1126821E-04
  0.6565657E-01  0.0000000E+00  0.2525252E-01  0.3540400E-07  0.0000000E+00 -0.1125493E-04
  0.7575758E-01  0.0000000E+00  0.2525252E-01  0.4088665E-07  0.0000000E+00 -0.1123942E-04
  0.8585858E-01  0.0000000E+00  0.2525252E-01  0.4638173E-07  0.0000000E+00 -0.1122168E-04
  0.9595960E-01  0.0000000E+00  0.2525252E-01  0.5188887E-07  0.0000000E+00 -0.1120169E-04
  0.1060606E+00  0.0000000E+00  0.2525252E-01  0.5740697E-07  0.0000000E+00 -0.1117946E-04
  0.1161616E+00  0.0000000E+00  0.2525252E-01  0.6293402E-07  0.0000000E+00 -0.1115498E-04
  0.1262626E+00  0.0000000E+00  0.2525252E-01  0.6846702E-07  0.0000000E+00 -0.1112825E-04
  0.1363636E+00  0.0000000E+00  0.2525252E-01  0.7400186E-07  0.0000000E+00 -0.1109926E-04
  0.1464646E+00  0.0000000E+00  0.2525252E-01  0.7953320E-07  0.0000000E+00 -0.1106802E-04
  0.1565657E+00  0.0000000E+00  0.2525252E-01  0.8505436E-07  0.0000000E+00 -0.1103451E-04
  0.1666667E+00  0.0000000E+00  0.2525252E-01  0.9055714E-07  0.0000000E+00 -0.1099876E-04
  0.1767677E+00  0.0000000E+00  0.2525252E-01  0.9603173E-07  0.0000000E+00 -0.1096076E-04
  0.1868687E+00  0.0000000E+00  0.2525252E-01  0.1014665E-06  0.0000000E+00 -0.1092052E-04
  0.1969697E+00  0.0000000E+00  0.2525252E-01  0.1068481E-06  0.0000000E+00 -0.1087808E-04
  0.2070707E+00  0.0000000E+00  0.2525252E-01  0.1121607E-06  0.0000000E+00 -0.1083344E-04
  0.2171717E+00  0.0000000E+00  0.2525252E-01  0.1173866E-06  0.0000000E+00 -0.1078663E-04
  0.2272727E+00  0.0000000E+00  0.2525252E-01  0.1225057E-06  0.0000000E+00 -0.1073770E-04
  0.2373737E+00  0.0000000E+00  0.2525252E-01  0.1274950E-06  0.0000000E+00 -0.1068669E-04
  0.2474747E+00  0.0000000E+00  0.2525252E-01  0.1323292E-06  0.0000000E+00 -0.1063366E-04
  0.2575758E+00  0.0000000E+00  0.2525252E-01  0.1369800E-06  0.0000000E+00 -0.1057867E-04
  0.2676768E+00  0.0000000E+00  0.2525252E-01  0.1414160E-06  0.0000000E+00 -0.1052179E-04
  0.2777778E+00  0.0000000E+00  0.2525252E-01  0.1456029E-06  0.0000000E+00 -0.1046313E-04
  0.2878788E+00  0.0000000E+00  0.2525252E-01  0.1495032E-06  0.0000000E+00 -0.1040278E-04
  0.2979798E+00  0.0000000E+00  0.2525252E-01  0.1530760E-06  0.0000000E+00 -0.1034087E-04
  0.3080808E+00  0.0000000E+00  0.2525252E-01  0.1562775E-06  0.0000000E+00 -0.1027754E-04
  0.3181818E+00  0.0000000E+00  0.2525252E-01  0.1590606E-06  0.0000000E+00 -0.1021294E-04
  0.3282828E+00  0.0000000E+00  0.2525252E-01  0.1613751E-06  0.0000000E+00 -0.1014726E-04
  0.3383838E+00  0.0000000E+00  0.2525252E-01  0.1631683E-06  0.0000000E+00 -0.1008069E-04
  0.3484848E+00  0.0000000E+00  0.2525252E-01  0.1643851E-06  0.0000000E+00 -0.1001345E-04
  0.3585859E+00  0.0000000E+00  0.2525252E-01  0.1649685E-06  0.0000000E+00 -0.9945797E-05
  0.3686869E+00  0.0000000E+00  0.2525252E-01  0.1648605E-06  0.0000000E+00 -0.9877991E-05
  0.3787879E+00  0.0000000E+00  0.2525252E-01  0.1640027E-06  0.0000000E+00 -0.9810328E-05
  0.3888889E+00  0.0000000E+00  0.2525252E-01  0.1623377E-06  0.0000000E+00 -0.9743126E-05
  0.3989899E+00  0.0000000E+00  0.2525252E-01  0.1598099E-06  0.0000000E+00 -0.9676729E-05
  0.4090909E+00  0.0000000E+00  0.2525252E-01  0.1563678E-06  0.0000000E+00 -0.9611502E-05
  0.4191919E+00  0.0000000E+00  0.2525252E-01  0.1519649E-06  0.0000000E+00 -0.9547833E-05
  0.4292929E+00  0.0000000E+00  0.2525252E-01  0.1465622E-06  0.0000000E+00 -0.9486129E-05
  0.4393939E+00  0.0000000E+00  0.2525252E-01  0.1401301E-06  0.0000000E+00 -0.9426814E-05
  0.4494950E+00  0.0000000E+00  0.2525252E-01  0.1326505E-06  0.0000000E+00 -0.9370321E-05
  0.4595959E+00  0.0000000E+00  0.2525252E-01  0.1241192E-06  0.0000000E+00 -0.9317092E-05
  0.4696970E+00  0.0000000E+00  0.2525252E-01  0.1145476E-06  0.0000000E+00 -0.9267566E-05
  0.4797980E+00  0.0000000E+00  0.2525252E-01  0.1039650E-06  0.0000000E+00 -0.9222179E-05
  0.4898990E+00  0.0000000E+00  0.2525252E-01  0.9241961E-07  0.0000000E+00 -0.9181349E-05
  0.5000000E+00  0.0000000E+00  0.2525252E-01  0.7997964E-07  0.0000000E+00 -0.9145472E-05
  0.5101010E+00  0.0000000E+00  0.2525252E-01  0.6673359E-07  0.0000000E+00 -0.9114912E-05
  0.5202020E+00  0.0000000E+00  0.2525252E-01  0.5278959E-07  0.0000000E+00 -0.9089992E-05
  0.5303030E+00  0.0000000E+00  0.2525252E-01  0.3827402E-07  0.0000000E+00 -0.9070986E-05
  0.5404040E+00  0.0000000E+00  0.2525252E-01  0.2332925E-07  0.0000000E+00 -0.9058108E-05
  0.5505050E+00  0.0000000E+00  0.2525252E-01  0.8110544E-08  0.0000000E+00 -0.9051513E-05
  0.5606061E+00  0.0000000E+00  0.2525252E-01 -0.7217715E-08  0.0000000E+00 -0.9051283E-05
  0.5707071E+00  0.0000000E+00  0.2525252E-01 -0.2248636E-07  0.0000000E+00 -0.9057433E-05
  0.5808081E+00  0.0000000E+00  0.2525252E-01 -0.3752601E-07  0.0000000E+00 -0.9069901E-05
  0.5909091E+00  0.0000000E+00  0.2525252E-01 -0.5217170E-07  0.0000000E+00 -0.9088555E-05
  0.6010101E+00  0.0000000E+00  0.2525252E-01 -0.6626730E-07  0.0000000E+00 -0.9113193E-05
  0.6111111E+00  0.0000000E+00  0.2525252E-01 -0.7966937E-07  0.0000000E+00 -0.9143551E-05
  0.6212121E+00  0.0000000E+00  0.2525252E-01 -0.9225046E-07  0.0000000E+00 -0.9179305E-05
  0.6313131E+00  0.0000000E+00  0.2525252E-01 -0.1039016E-06  0.0000000E+00 -0.9220082E-05
  0.6414142E+00  0.0000000E+00  0.2525252E-01 -0.1145339E-06  0.0000000E+00 -0.9265467E-05
  0.6515151E+00  0.0000000E+00  0.2525252E-01 -0.1240792E-06  0.0000000E+00 -0.9315015E-05
  0.6616161E+00  0.0000000E+00  0.2525252E-01 -0.1324903E-06  0.0000000E+00 -0.9368255E-05
  0.6717172E+00  0.0000000E+00  0.2525252E-01 -0.1397398E-06  0.0000000E+00 -0.9424702E-05
  0.6818182E+00  0.0000000E+00  0.2525252E-01 -0.1458191E-06  0.0000000E+00 -0.9483866E-05
  0.6919192E+00  0.0000000E+00  0.2525252E-01 -0.1507364E-06  0.0000000E+00 -0.9545259E-05
  0.7020202E+00  0.0000000E+00  0.2525252E-01 -0.1545147E-06  0.0000000E+00 -0.9608400E-05
  0.7121212E+00  0.0000000E+00  0.2525252E-01 -0.1571898E-06  0.0000000E+00 -0.9672821E-05
  0.7222222E+00  0.0000000E+00  0.2525252E-01 -0.1588072E-06  0.0000000E+00 -0.9738075E-05
  0.7323232E+00  0.0000000E+00  0.2525252E-01 -0.1594210E-06  0.0000000E+00 -0.9803735E-05
  0.7424242E+00  0.0000000E+00  0.2525252E-01 -0.1590908E-06  0.0000000E+00 -0.9869399E-05
  0.7525253E+00  0.0000000E+00  0.2525252E-01 -0.1578803E-06  0.0000000E+00 -0.9934695E-05
  0.7626263E+00  0.0000000E+00  0.2525252E-01 -0.1558553E-06  0.0000000E+00 -0.9999274E-05
  0.7727273E+00  0.0000000E+00  0.2525252E-01 -0.1530826E-06  0.0000000E+00 -0.1006282E-04
  0.7828283E+00  0.0000000E+00  0.2525252E-01 -0.1496281E-06  0.0000000E+00 -0.1012504E-04
  0.7929293E+00  0.0000000E+00  0.2525252E-01 -0.1455563E-06  0.0000000E+00 -0.1018567E-04
  0.8030303E+00  0.0000000E+00  0.2525252E-01 -0.1409293E-06  0.0000000E+00 -0.1024448E-04
  0.8131313E+00  0.0000000E+00  0.2525252E-01 -0.1358061E-06  0.0000000E+00 -0.1030125E-04
  0.8232324E+00  0.0000000E+00  0.2525252E-01 -0.1302424E-06  0.0000000E+00 -0.1035579E-04
  0.8333333E+00  0.0000000E+00  0.2525252E-01 -0.1242898E-06  0.0000000E+00 -0.1040795E-04
  0.8434343E+00  0.0000000E+00  0.2525252E-01 -0.1179962E-06  0.0000000E+00 -0.1045758E-04
  0.8535354E+00  0.0000000E+00  0.2525252E-01 -0.1114053E-06  0.0000000E+00 -0.1050454E-04
  0.8636364E+00  0.0000000E+00  0.2525252E-01 -0.1045569E-06  0.0000000E+00 -0.1054873E-04
  0.8737374E+00  0.0000000E+00  0.2525252E-01 -0.9748698E-07  0.0000000E+00 -0.1059006E-04
  0.8838384E+00  0.0000000E+00  0.2525252E-01 -0.9022758E-07  0.0000000E+00 -0.1062844E-04
  0.8939394E+00  0.0000000E+00  0.2525252E-01 -0.8280731E-07  0.0000000E+00 -0.1066381E-04
  0.9040404E+00  0.0000000E+00  0.2525252E-01 -0.7525144E-07  0.0000000E+00 -0.1069610E-04
  0.9141414E+00  0.0000000E+00  0.2525252E-01 -0.6758218E-07  0.0000000E+00 -0.1072528E-04
  0.9242424E+00  0.0000000E+00  0.2525252E-01 -0.5981896E-07  0.0000000E+00 -0.1075130E-04
  0.9343435E+00  0.0000000E+00  0.2525252E-01 -0.5197871E-07  0.0000000E+00 -0.1077413E-04
  0.9444444E+00  0.0000000E+00  0.2525252E-01 -0.4407616E-07  0.0000000E+00 -0.1079374E-04
  0.9545454E+00  0.0000000E+00  0.2525252E-01 -0.3612411E-07  0.0000000E+00 -0.1081011E-04
  0.9646465E+00  0.0000000E+00  0.2525252E-01 -0.2813375E-07  0.0000000E+00 -0.1082323E-04
  0.9747475E+00  0.0000000E+00  0.2525252E-01 -0.2011497E-07  0.0000000E+00 -0.1083307E-04
  0.9848485E+00  0.0000000E+00  0.2525252E-01 -0.1207661E-07  0.0000000E+00 -0.1083964E-04
  0.9974747E+00  0.0000000E+00  0.2525252E-01 -0.4026800E-08  0.0000000E+00 -0.1084293E-04
  0.5050505E-02  0.0000000E+00  0.3535353E-01  0.3819904E-08  0.0000000E+00 -0.1123985E-04
  0.1515152E-01  0.0000000E+00  0.3535353E-01  0.1146153E-07  0.0000000E+00 -0.1123760E-04
  0.2525252E-01  0.0000000E+00  0.3535353E-01  0.1910853E-07  0.0000000E+00 -0.1123310E-04
  0.3535353E-01  0.0000000E+00  0.3535353E-01  0.2676428E-07  0.0000000E+00 -0.1122635E-04
  0.4545455E-01  0.0000000E+00  0.3535353E-01  0.3443187E-07  0.0000000E+00 -0.1121734E-04
  0.5555556E-01  0.0000000E+00  0.3535353E-01  0.4211396E-07  0.0000000E+00 -0.1120607E-04
  0.6565657E-01  0.0000000E+00  0.3535353E-01  0.4981266E-07  0.0000000E+00 -0.1119254E-04
  0.7575758E-01  0.0000000E+00  0.3535353E-01  0.5752943E-07  0.0000000E+00 -0.1117673E-04
  0.8585858E-01  0.0000000E+00  0.3535353E-01  0.6526490E-07  0.0000000E+00 -0.1115865E-04
  0.9595960E-01  0.0000000E+00  0.3535353E-01  0.7301877E-07  0.0000000E+00 -0.1113828E-04
  0.1060606E+00  0.0000000E+00  0.3535353E-01  0.8078964E-07  0.0000000E+00 -0.1111562E-04
  0.1161616E+00  0.0000000E+00  0.3535353E-01  0.8857489E-07  0.0000000E+00 -0.1109066E-04
  0.1262626E+00  0.0000000E+00  0.3535353E-01  0.9637050E-07  0.0000000E+00 -0.1106339E-04
  0.1363636E+00  0.0000000E+00  0.3535353E-01  0.1041709E-06  0.0000000E+00 -0.1103381E-04
  0.1464646E+00  0.0000000E+00  0.3535353E-01  0.1119688E-06  0.0000000E+00 -0.1100192E-04
  0.1565657E+00  0.0000000E+00  0.3535353E-01  0.1197550E-06  0.0000000E+00 -0.1096772E-04
  0.1666667E+00  0.0000000E+00  0.3535353E-01  0.1275183E-06  0.0000000E+00 -0.1093121E-04
  0.1767677E+00  0.0000000E+00  0.3535353E-01  0.1352450E-06  0.0000000E+00 -0.1089239E-04
  0.1868687E+00  0.0000000E+00  0.3535353E-01  0.1429191E-06  0.0000000E+00 -0.1085127E-04
  0.1969697E+00  0.0000000E+00  0.3535353E-01  0.1505218E-06  0.0000000E+00 -0.1080788E-04
  0.2070707E+00  0.0000000E+00  0.3535353E-01  0.1580314E-06  0.0000000E+00 -0.1076222E-04
  0.2171717E+00  0.0000000E+00  0.3535353E-01  0.1654232E-06  0.0000000E+00 -0.1071432E-04
  0.2272727E+00  0.0000000E+00  0.3535353E-01  0.1726689E-06  0.0000000E+00 -0.1066422E-04
  0.2373737E+00  0.0000000E+00  0.3535353E-01  0.1797367E-06  0.0000000E+00 -0.1061197E-04
  0.2474747E+00  0.0000000E+00  0.3535353E-01  0.1865910E-06  0.0000000E+00 -0.1055761E-04
  0.2575758E+00  0.0000000E+00  0.3535353E-01  0.1931921E-06  0.0000000E+00 -0.1050120E-04
  0.2676768E+00  0.0000000E+00  0.3535353E-01  0.1994962E-06  0.0000000E+00 -0.1044283E-04
  0.2777778E+00  0.0000000E+00  0.3535353E-01  0.2054549E-06  0.0000000E+00 -0.1038258E-04
  0.2878788E+00  0.0000000E+00  0.3535353E-01  0.2110155E-06  0.0000000E+00 -0.1032055E-04
  0.2979798E+00  0.0000000E+00  0.3535353E-01  0.2161204E-06  0.0000000E+00 -0.1025686E-04