title = "dataset water"
variables = "x", "y", "z", "vx", "vy", "vz"
zone t = "velocities, solution time =  1.900E+01 days        " i =   99, j =   99, k =    1,  f=point
  0.5050505E-02  0.0000000E+00  0.5050505E-02  0.4238514E-10  0.0000000E+00 -0.1962245E-04
  0.1515152E-01  0.0000000E+00  0.5050505E-02  0.1271256E-09  0.0000000E+00 -0.1962228E-04
  0.2525252E-01  0.0000000E+00  0.5050505E-02  0.2117343E-09  0.0000000E+00 -0.1962194E-04
  0.3535353E-01  0.0000000E+00  0.5050505E-02  0.2961171E-09  0.0000000E+00 -0.1962143E-04
  0.4545455E-01  0.0000000E+00  0.5050505E-02  0.3801801E-09  0.0000000E+00 -0.1962075E-04
  0.5555556E-01  0.0000000E+00  0.5050505E-02  0.4638224E-09  0.0000000E+00 -0.1961991E-04
  0.6565657E-01  0.0000000E+00  0.5050505E-02  0.5469358E-09  0.0000000E+00 -0.1961889E-04
  0.7575758E-01  0.0000000E+00  0.5050505E-02  0.6294036E-09  0.0000000E+00 -0.1961771E-04
  0.8585858E-01  0.0000000E+00  0.5050505E-02  0.7110986E-09  0.0000000E+00 -0.1961637E-04
  0.9595960E-01  0.0000000E+00  0.5050505E-02  0.7918825E-09  0.0000000E+00 -0.1961486E-04
  0.1060606E+00  0.0000000E+00  0.5050505E-02  0.8716042E-09  0.0000000E+00 -0.1961320E-04
  0.1161616E+00  0.0000000E+00  0.5050505E-02  0.9500991E-09  0.0000000E+00 -0.1961137E-04
  0.1262626E+00  0.0000000E+00  0.5050505E-02  0.1027188E-08  0.0000000E+00 -0.1960939E-04
  0.1363636E+00  0.0000000E+00  0.5050505E-02  0.1102676E-08  0.0000000E+00 -0.1960725E-04
  0.1464646E+00  0.0000000E+00  0.5050505E-02  0.1176353E-08  0.0000000E+00 -0.1960497E-04
  0.1565657E+00  0.0000000E+00  0.5050505E-02  0.1247991E-08  0.0000000E+00 -0.1960254E-04
  0.1666667E+00  0.0000000E+00  0.5050505E-02  0.1317348E-08  0.0000000E+00 -0.1959997E-04
  0.1767677E+00  0.0000000E+00  0.5050505E-02  0.1384163E-08  0.0000000E+00 -0.1959726E-04
  0.1868687E+00  0.0000000E+00  0.5050505E-02  0.1448162E-08  0.0000000E+00 -0.1959442E-04
  0.1969697E+00  0.0000000E+00  0.5050505E-02  0.1509053E-08  0.0000000E+00 -0.1959146E-04
  0.2070707E+00  0.0000000E+00  0.5050505E-02  0.1566532E-08  0.0000000E+00 -0.1958837E-04
  0.2171717E+00  0.0000000E+00  0.5050505E-02  0.1620281E-08  0.0000000E+00 -0.1958518E-04
  0.2272727E+00  0.0000000E+00  0.5050505E-02  0.1669972E-08  0.0000000E+00 -0.1958188E-04
  0.2373737E+00  0.0000000E+00  0.5050505E-02  0.1715266E-08  0.0000000E+00 -0.1957849E-04
  0.2474747E+00  0.0000000E+00  0.5050505E-02  0.1755820E-08  0.0000000E+00 -0.1957501E-04
  0.2575758E+00  0.0000000E+00  0.5050505E-02  0.1791286E-08  0.0000000E+00 -0.1957145E-04
  0.2676768E+00  0.0000000E+00  0.5050505E-02  0.1821317E-08  0.0000000E+00 -0.1956783E-04
  0.2777778E+00  0.0000000E+00  0.5050505E-02  0.1845568E-08  0.0000000E+00 -0.1956415E-04
  0.2878788E+00  0.0000000E+00  0.5050505E-02  0.1863701E-08  0.0000000E+00 -0.1956044E-04
  0.2979798E+00  0.0000000E+00  0.5050505E-02  0.1875392E-08  0.0000000E+00 -0.1955669E-04
  0.3080808E+00  0.0000000E+00  0.5050505E-02  0.1880332E-08  0.0000000E+00 -0.1955292E-04
  0.3181818E+00  0.0000000E+00  0.5050505E-02  0.1878234E-08  0.0000000E+00 -0.1954916E-04
  0.3282828E+00  0.0000000E+00  0.5050505E-02  0.1868835E-08  0.0000000E+00 -0.1954540E-04
  0.3383838E+00  0.0000000E+00  0.5050505E-02  0.1851907E-08  0.0000000E+00 -0.1954167E-04
  0.3484848E+00  0.0000000E+00  0.5050505E-02  0.1827256E-08  0.0000000E+00 -0.1953798E-04
  0.3585859E+00  0.0000000E+00  0.5050505E-02  0.1794732E-08  0.0000000E+00 -0.1953435E-04
  0.3686869E+00  0.0000000E+00  0.5050505E-02  0.1754231E-08  0.0000000E+00 -0.1953079E-04
  0.3787879E+00  0.0000000E+00  0.5050505E-02  0.1705701E-08  0.0000000E+00 -0.1952733E-04
  0.3888889E+00  0.0000000E+00  0.5050505E-02  0.1649147E-08  0.0000000E+00 -0.1952396E-04
  0.3989899E+00  0.0000000E+00  0.5050505E-02  0.1584632E-08  0.0000000E+00 -0.1952072E-04
  0.4090909E+00  0.0000000E+00  0.5050505E-02  0.1512284E-08  0.0000000E+00 -0.1951762E-04
  0.4191919E+00  0.0000000E+00  0.5050505E-02  0.1432296E-08  0.0000000E+00 -0.1951467E-04
  0.4292929E+00  0.0000000E+00  0.5050505E-02  0.1344931E-08  0.0000000E+00 -0.1951188E-04
  0.4393939E+00  0.0000000E+00  0.5050505E-02  0.1250517E-08  0.0000000E+00 -0.1950928E-04
  0.4494950E+00  0.0000000E+00  0.5050505E-02  0.1149452E-08  0.0000000E+00 -0.1950687E-04
  0.4595959E+00  0.0000000E+00  0.5050505E-02  0.1042201E-08  0.0000000E+00 -0.1950468E-04
  0.4696970E+00  0.0000000E+00  0.5050505E-02  0.9292933E-09  0.0000000E+00 -0.1950270E-04
  0.4797980E+00  0.0000000E+00  0.5050505E-02  0.8113183E-09  0.0000000E+00 -0.1950096E-04
  0.4898990E+00  0.0000000E+00  0.5050505E-02  0.6889230E-09  0.0000000E+00 -0.1949945E-04
  0.5000000E+00  0.0000000E+00  0.5050505E-02  0.5628046E-09  0.0000000E+00 -0.1949820E-04
  0.5101010E+00  0.0000000E+00  0.5050505E-02  0.4337046E-09  0.0000000E+00 -0.1949720E-04
  0.5202020E+00  0.0000000E+00  0.5050505E-02  0.3024011E-09  0.0000000E+00 -0.1949646E-04
  0.5303030E+00  0.0000000E+00  0.5050505E-02  0.1697006E-09  0.0000000E+00 -0.1949599E-04
  0.5404040E+00  0.0000000E+00  0.5050505E-02  0.3642926E-10  0.0000000E+00 -0.1949578E-04
  0.5505050E+00  0.0000000E+00  0.5050505E-02 -0.9657628E-10  0.0000000E+00 -0.1949584E-04
  0.5606061E+00  0.0000000E+00  0.5050505E-02 -0.2284786E-09  0.0000000E+00 -0.1949617E-04
  0.5707071E+00  0.0000000E+00  0.5050505E-02 -0.3584488E-09  0.0000000E+00 -0.1949676E-04
  0.5808081E+00  0.0000000E+00  0.5050505E-02 -0.4856753E-09  0.0000000E+00 -0.1949760E-04
  0.5909091E+00  0.0000000E+00  0.5050505E-02 -0.6093737E-09  0.0000000E+00 -0.1949870E-04
  0.6010101E+00  0.0000000E+00  0.5050505E-02 -0.7287945E-09  0.0000000E+00 -0.1950004E-04
  0.6111111E+00  0.0000000E+00  0.5050505E-02 -0.8432311E-09  0.0000000E+00 -0.1950162E-04
  0.6212121E+00  0.0000000E+00  0.5050505E-02 -0.9520264E-09  0.0000000E+00 -0.1950342E-04
  0.6313131E+00  0.0000000E+00  0.5050505E-02 -0.1054579E-08  0.0000000E+00 -0.1950543E-04
  0.6414142E+00  0.0000000E+00  0.5050505E-02 -0.1150348E-08  0.0000000E+00 -0.1950764E-04
  0.6515151E+00  0.0000000E+00  0.5050505E-02 -0.1238856E-08  0.0000000E+00 -0.1951003E-04
  0.6616161E+00  0.0000000E+00  0.5050505E-02 -0.1319694E-08  0.0000000E+00 -0.1951260E-04
  0.6717172E+00  0.0000000E+00  0.5050505E-02 -0.1392519E-08  0.0000000E+00 -0.1951532E-04
  0.6818182E+00  0.0000000E+00  0.5050505E-02 -0.1457059E-08  0.0000000E+00 -0.1951817E-04
  0.6919192E+00  0.0000000E+00  0.5050505E-02 -0.1513110E-08  0.0000000E+00 -0.1952115E-04
  0.7020202E+00  0.0000000E+00  0.5050505E-02 -0.1560533E-08  0.0000000E+00 -0.1952423E-04
  0.7121212E+00  0.0000000E+00  0.5050505E-02 -0.1599257E-08  0.0000000E+00 -0.1952740E-04
  0.7222222E+00  0.0000000E+00  0.5050505E-02 -0.1629268E-08  0.0000000E+00 -0.1953063E-04
  0.7323232E+00  0.0000000E+00  0.5050505E-02 -0.1650613E-08  0.0000000E+00 -0.1953392E-04
  0.7424242E+00  0.0000000E+00  0.5050505E-02 -0.1663390E-08  0.0000000E+00 -0.1953724E-04
  0.7525253E+00  0.0000000E+00  0.5050505E-02 -0.1667749E-08  0.0000000E+00 -0.1954058E-04
  0.7626263E+00  0.0000000E+00  0.5050505E-02 -0.1663882E-08  0.0000000E+00 -0.1954392E-04
  0.7727273E+00  0.0000000E+00  0.5050505E-02 -0.1652018E-08  0.0000000E+00 -0.1954725E-04
  0.7828283E+00  0.0000000E+00  0.5050505E-02 -0.1632424E-08  0.0000000E+00 -0.1955054E-04
  0.7929293E+00  0.0000000E+00  0.5050505E-02 -0.1605394E-08  0.0000000E+00 -0.1955378E-04
  0.8030303E+00  0.0000000E+00  0.5050505E-02 -0.1571246E-08  0.0000000E+00 -0.1955697E-04
  0.8131313E+00  0.0000000E+00  0.5050505E-02 -0.1530319E-08  0.0000000E+00 -0.1956008E-04
  0.8232324E+00  0.0000000E+00  0.5050505E-02 -0.1482964E-08  0.0000000E+00 -0.1956310E-04
  0.8333333E+00  0.0000000E+00  0.5050505E-02 -0.1429548E-08  0.0000000E+00 -0.1956602E-04
  0.8434343E+00  0.0000000E+00  0.5050505E-02 -0.1370442E-08  0.0000000E+00 -0.1956882E-04
  0.8535354E+00  0.0000000E+00  0.5050505E-02 -0.1306022E-08  0.0000000E+00 -0.1957151E-04
  0.8636364E+00  0.0000000E+00  0.5050505E-02 -0.1236667E-08  0.0000000E+00 -0.1957406E-04
  0.8737374E+00  0.0000000E+00  0.5050505E-02 -0.1162753E-08  0.0000000E+00 -0.1957646E-04
  0.8838384E+00  0.0000000E+00  0.5050505E-02 -0.1084656E-08  0.0000000E+00 -0.1957871E-04
  0.8939394E+00  0.0000000E+00  0.5050505E-02 -0.1002745E-08  0.0000000E+00 -0.1958081E-04
  0.9040404E+00  0.0000000E+00  0.5050505E-02 -0.9173845E-09  0.0000000E+00 -0.1958273E-04
  0.9141414E+00  0.0000000E+00  0.5050505E-02 -0.8289313E-09  0.0000000E+00 -0.1958448E-04
  0.9242424E+00  0.0000000E+00  0.5050505E-02 -0.7377366E-09  0.0000000E+00 -0.1958605E-04
  0.9343435E+00  0.0000000E+00  0.5050505E-02 -0.6441438E-09  0.0000000E+00 -0.1958744E-04
  0.9444444E+00  0.0000000E+00  0.5050505E-02 -0.5484893E-09  0.0000000E+00 -0.1958863E-04
  0.9545454E+00  0.0000000E+00  0.5050505E-02 -0.4511029E-09  0.0000000E+00 -0.1958963E-04
  0.9646465E+00  0.0000000E+00  0.5050505E-02 -0.3523085E-09  0.0000000E+00 -0.1959044E-04
  0.9747475E+00  0.0000000E+00  0.5050505E-02 -0.2524249E-09  0.0000000E+00 -0.1959105E-04
  0.9848485E+00  0.0000000E+00  0.5050505E-02 -0.1517668E-09  0.0000000E+00 -0.1959145E-04
  0.9974747E+00  0.0000000E+00  0.5050505E-02 -0.5064668E-10  0.0000000E+00 -0.1959165E-04
  0.5050505E-02  0.0000000E+00  0.1515152E-01  0.1274596E-09  0.0000000E+00 -0.1957986E-04
  0.1515152E-01  0.0000000E+00  0.1515152E-01  0.3822809E-09  0.0000000E+00 -0.1957969E-04
  0.2525252E-01  0.0000000E+00  0.1515152E-01  0.6367098E-09  0.0000000E+00 -0.1957935E-04
  0.3535353E-01  0.0000000E+00  0.1515152E-01  0.8904649E-09  0.0000000E+00 -0.1957883E-04
  0.4545455E-01  0.0000000E+00  0.1515152E-01  0.1143265E-08  0.0000000E+00 -0.1957815E-04
  0.5555556E-01  0.0000000E+00  0.1515152E-01  0.1394808E-08  0.0000000E+00 -0.1957729E-04
  0.6565657E-01  0.0000000E+00  0.1515152E-01  0.1644771E-08  0.0000000E+00 -0.1957627E-04
  0.7575758E-01  0.0000000E+00  0.1515152E-01  0.1892804E-08  0.0000000E+00 -0.1957508E-04
  0.8585858E-01  0.0000000E+00  0.1515152E-01  0.2138526E-08  0.0000000E+00 -0.1957372E-04
  0.9595960E-01  0.0000000E+00  0.1515152E-01  0.2381523E-08  0.0000000E+00 -0.1957220E-04
  0.1060606E+00  0.0000000E+00  0.1515152E-01  0.2621342E-08  0.0000000E+00 -0.1957051E-04
  0.1161616E+00  0.0000000E+00  0.1515152E-01  0.2857489E-08  0.0000000E+00 -0.1956867E-04
  0.1262626E+00  0.0000000E+00  0.1515152E-01  0.3089426E-08  0.0000000E+00 -0.1956667E-04
  0.1363636E+00  0.0000000E+00  0.1515152E-01  0.3316569E-08  0.0000000E+00 -0.1956451E-04
  0.1464646E+00  0.0000000E+00  0.1515152E-01  0.3538284E-08  0.0000000E+00 -0.1956220E-04
  0.1565657E+00  0.0000000E+00  0.1515152E-01  0.3753889E-08  0.0000000E+00 -0.1955974E-04
  0.1666667E+00  0.0000000E+00  0.1515152E-01  0.3962655E-08  0.0000000E+00 -0.1955714E-04
  0.1767677E+00  0.0000000E+00  0.1515152E-01  0.4163798E-08  0.0000000E+00 -0.1955441E-04
  0.1868687E+00  0.0000000E+00  0.1515152E-01  0.4356492E-08  0.0000000E+00 -0.1955154E-04
  0.1969697E+00  0.0000000E+00  0.1515152E-01  0.4539859E-08  0.0000000E+00 -0.1954854E-04
  0.2070707E+00  0.0000000E+00  0.1515152E-01  0.4712984E-08  0.0000000E+00 -0.1954542E-04
  0.2171717E+00  0.0000000E+00  0.1515152E-01  0.4874909E-08  0.0000000E+00 -0.1954219E-04
  0.2272727E+00  0.0000000E+00  0.1515152E-01  0.5024643E-08  0.0000000E+00 -0.1953885E-04
  0.2373737E+00  0.0000000E+00  0.1515152E-01  0.5161170E-08  0.0000000E+00 -0.1953542E-04
  0.2474747E+00  0.0000000E+00  0.1515152E-01  0.5283453E-08  0.0000000E+00 -0.1953190E-04
  0.2575758E+00  0.0000000E+00  0.1515152E-01  0.5390442E-08  0.0000000E+00 -0.1952830E-04
  0.2676768E+00  0.0000000E+00  0.1515152E-01  0.5481088E-08  0.0000000E+00 -0.1952463E-04
  0.2777778E+00  0.0000000E+00  0.1515152E-01  0.5554352E-08  0.0000000E+00 -0.1952091E-04
  0.2878788E+00  0.0000000E+00  0.1515152E-01  0.5609216E-08  0.0000000E+00 -0.1951715E-04
  0.2979798E+00  0.0000000E+00  0.1515152E-01  0.5644698E-08  0.0000000E+00 -0.1951335E-04
  0.3080808E+00  0.0000000E+00  0.1515152E-01  0.5659863E-08  0.0000000E+00 -0.1950954E-04
  0.3181818E+00  0.0000000E+00  0.1515152E-01  0.5653841E-08  0.0000000E+00 -0.1950572E-04
  0.3282828E+00  0.0000000E+00  0.1515152E-01  0.5625842E-08  0.0000000E+00 -0.1950192E-04
  0.3383838E+00  0.0000000E+00  0.1515152E-01  0.5575169E-08  0.0000000E+00 -0.1949814E-04
  0.3484848E+00  0.0000000E+00  0.1515152E-01  0.5501238E-08  0.0000000E+00 -0.1949440E-04
  0.3585859E+00  0.0000000E+00  0.1515152E-01  0.5403590E-08  0.0000000E+00 -0.1949072E-04
  0.3686869E+00  0.0000000E+00  0.1515152E-01  0.5281907E-08  0.0000000E+00 -0.1948711E-04
  0.3787879E+00  0.0000000E+00  0.1515152E-01  0.5136029E-08  0.0000000E+00 -0.1948360E-04
  0.3888889E+00  0.0000000E+00  0.1515152E-01  0.4965964E-08  0.0000000E+00 -0.1948019E-04
  0.3989899E+00  0.0000000E+00  0.1515152E-01  0.4771901E-08  0.0000000E+00 -0.1947690E-04
  0.4090909E+00  0.0000000E+00  0.1515152E-01  0.4554222E-08  0.0000000E+00 -0.1947375E-04
  0.4191919E+00  0.0000000E+00  0.1515152E-01  0.4313506E-08  0.0000000E+00 -0.1947076E-04
  0.4292929E+00  0.0000000E+00  0.1515152E-01  0.4050537E-08  0.0000000E+00 -0.1946793E-04
  0.4393939E+00  0.0000000E+00  0.1515152E-01  0.3766306E-08  0.0000000E+00 -0.1946529E-04
  0.4494950E+00  0.0000000E+00  0.1515152E-01  0.3462011E-08  0.0000000E+00 -0.1946285E-04
  0.4595959E+00  0.0000000E+00  0.1515152E-01  0.3139050E-08  0.0000000E+00 -0.1946062E-04
  0.4696970E+00  0.0000000E+00  0.1515152E-01  0.2799018E-08  0.0000000E+00 -0.1945862E-04
  0.4797980E+00  0.0000000E+00  0.1515152E-01  0.2443693E-08  0.0000000E+00 -0.1945684E-04
  0.4898990E+00  0.0000000E+00  0.1515152E-01  0.2075026E-08  0.0000000E+00 -0.1945532E-04
  0.5000000E+00  0.0000000E+00  0.1515152E-01  0.1695119E-08  0.0000000E+00 -0.1945404E-04
  0.5101010E+00  0.0000000E+00  0.1515152E-01  0.1306209E-08  0.0000000E+00 -0.1945303E-04
  0.5202020E+00  0.0000000E+00  0.1515152E-01  0.9106449E-09  0.0000000E+00 -0.1945228E-04
  0.5303030E+00  0.0000000E+00  0.1515152E-01  0.5108595E-09  0.0000000E+00 -0.1945180E-04
  0.5404040E+00  0.0000000E+00  0.1515152E-01  0.1093465E-09  0.0000000E+00 -0.1945159E-04
  0.5505050E+00  0.0000000E+00  0.1515152E-01 -0.2913691E-09  0.0000000E+00 -0.1945166E-04
  0.5606061E+00  0.0000000E+00  0.1515152E-01 -0.6887595E-09  0.0000000E+00 -0.1945199E-04
  0.5707071E+00  0.0000000E+00  0.1515152E-01 -0.1080323E-08  0.0000000E+00 -0.1945259E-04
  0.5808081E+00  0.0000000E+00  0.1515152E-01 -0.1463611E-08  0.0000000E+00 -0.1945345E-04
  0.5909091E+00  0.0000000E+00  0.1515152E-01 -0.1836255E-08  0.0000000E+00 -0.1945456E-04
  0.6010101E+00  0.0000000E+00  0.1515152E-01 -0.2195995E-08  0.0000000E+00 -0.1945592E-04
  0.6111111E+00  0.0000000E+00  0.1515152E-01 -0.2540699E-08  0.0000000E+00 -0.1945753E-04
  0.6212121E+00  0.0000000E+00  0.1515152E-01 -0.2868386E-08  0.0000000E+00 -0.1945935E-04
  0.6313131E+00  0.0000000E+00  0.1515152E-01 -0.3177242E-08  0.0000000E+00 -0.1946140E-04
  0.6414142E+00  0.0000000E+00  0.1515152E-01 -0.3465636E-08  0.0000000E+00 -0.1946364E-04
  0.6515151E+00  0.0000000E+00  0.1515152E-01 -0.3732133E-08  0.0000000E+00 -0.1946607E-04
  0.6616161E+00  0.0000000E+00  0.1515152E-01 -0.3975499E-08  0.0000000E+00 -0.1946868E-04
  0.6717172E+00  0.0000000E+00  0.1515152E-01 -0.4194705E-08  0.0000000E+00 -0.1947144E-04
  0.6818182E+00  0.0000000E+00  0.1515152E-01 -0.4388932E-08  0.0000000E+00 -0.1947434E-04
  0.6919192E+00  0.0000000E+00  0.1515152E-01 -0.4557568E-08  0.0000000E+00 -0.1947736E-04
  0.7020202E+00  0.0000000E+00  0.1515152E-01 -0.4700202E-08  0.0000000E+00 -0.1948049E-04
  0.7121212E+00  0.0000000E+00  0.1515152E-01 -0.4816616E-08  0.0000000E+00 -0.1948370E-04
  0.7222222E+00  0.0000000E+00  0.1515152E-01 -0.4906779E-08  0.0000000E+00 -0.1948698E-04
  0.7323232E+00  0.0000000E+00  0.1515152E-01 -0.4970834E-08  0.0000000E+00 -0.1949032E-04
  0.7424242E+00  0.0000000E+00  0.1515152E-01 -0.5009084E-08  0.0000000E+00 -0.1949369E-04
  0.7525253E+00  0.0000000E+00  0.1515152E-01 -0.5021979E-08  0.0000000E+00 -0.1949708E-04
  0.7626263E+00  0.0000000E+00  0.1515152E-01 -0.5010103E-08  0.0000000E+00 -0.1950046E-04
  0.7727273E+00  0.0000000E+00  0.1515152E-01 -0.4974156E-08  0.0000000E+00 -0.1950383E-04
  0.7828283E+00  0.0000000E+00  0.1515152E-01 -0.4914940E-08  0.0000000E+00 -0.1950717E-04
  0.7929293E+00  0.0000000E+00  0.1515152E-01 -0.4833346E-08  0.0000000E+00 -0.1951046E-04
  0.8030303E+00  0.0000000E+00  0.1515152E-01 -0.4730334E-08  0.0000000E+00 -0.1951369E-04
  0.8131313E+00  0.0000000E+00  0.1515152E-01 -0.4606927E-08  0.0000000E+00 -0.1951684E-04
  0.8232324E+00  0.0000000E+00  0.1515152E-01 -0.4464189E-08  0.0000000E+00 -0.1951990E-04
  0.8333333E+00  0.0000000E+00  0.1515152E-01 -0.4303222E-08  0.0000000E+00 -0.1952286E-04
  0.8434343E+00  0.0000000E+00  0.1515152E-01 -0.4125146E-08  0.0000000E+00 -0.1952570E-04
  0.8535354E+00  0.0000000E+00  0.1515152E-01 -0.3931097E-08  0.0000000E+00 -0.1952842E-04
  0.8636364E+00  0.0000000E+00  0.1515152E-01 -0.3722214E-08  0.0000000E+00 -0.1953100E-04
  0.8737374E+00  0.0000000E+00  0.1515152E-01 -0.3499633E-08  0.0000000E+00 -0.1953344E-04
  0.8838384E+00  0.0000000E+00  0.1515152E-01 -0.3264481E-08  0.0000000E+00 -0.1953572E-04
  0.8939394E+00  0.0000000E+00  0.1515152E-01 -0.3017871E-08  0.0000000E+00 -0.1953784E-04
  0.9040404E+00  0.0000000E+00  0.1515152E-01 -0.2760898E-08  0.0000000E+00 -0.1953978E-04
  0.9141414E+00  0.0000000E+00  0.1515152E-01 -0.2494638E-08  0.0000000E+00 -0.1954156E-04
  0.9242424E+00  0.0000000E+00  0.1515152E-01 -0.2220146E-08  0.0000000E+00 -0.1954315E-04
  0.9343435E+00  0.0000000E+00  0.1515152E-01 -0.1938452E-08  0.0000000E+00 -0.1954455E-04
  0.9444444E+00  0.0000000E+00  0.1515152E-01 -0.1650568E-08  0.0000000E+00 -0.1954576E-04
  0.9545454E+00  0.0000000E+00  0.1515152E-01 -0.1357486E-08  0.0000000E+00 -0.1954677E-04
  0.9646465E+00  0.0000000E+00  0.1515152E-01 -0.1060177E-08  0.0000000E+00 -0.1954759E-04
  0.9747475E+00  0.0000000E+00  0.1515152E-01 -0.7595976E-09  0.0000000E+00 -0.1954820E-04
  0.9848485E+00  0.0000000E+00  0.1515152E-01 -0.4566933E-09  0.0000000E+00 -0.1954861E-04
  0.9974747E+00  0.0000000E+00  0.1515152E-01 -0.1524000E-09  0.0000000E+00 -0.1954882E-04
  0.5050505E-02  0.0000000E+00  0.2525252E-01  0.2135653E-09  0.0000000E+00 -0.1949495E-04
  0.1515152E-01  0.0000000E+00  0.2525252E-01  0.6405203E-09  0.0000000E+00 -0.1949478E-04
  0.2525252E-01  0.0000000E+00  0.2525252E-01  0.1066828E-08  0.0000000E+00 -0.1949443E-04
  0.3535353E-01  0.0000000E+00  0.2525252E-01  0.1492023E-08  0.0000000E+00 -0.1949390E-04
  0.4545455E-01  0.0000000E+00  0.2525252E-01  0.1915641E-08  0.0000000E+00 -0.1949321E-04
  0.5555556E-01  0.0000000E+00  0.2525252E-01  0.2337180E-08  0.0000000E+00 -0.1949233E-04
  0.6565657E-01  0.0000000E+00  0.2525252E-01  0.2756104E-08  0.0000000E+00 -0.1949129E-04
  0.7575758E-01  0.0000000E+00  0.2525252E-01  0.3171834E-08  0.0000000E+00 -0.1949008E-04
  0.8585858E-01  0.0000000E+00  0.2525252E-01  0.3583736E-08  0.0000000E+00 -0.1948869E-04
  0.9595960E-01  0.0000000E+00  0.2525252E-01  0.3991122E-08  0.0000000E+00 -0.1948714E-04
  0.1060606E+00  0.0000000E+00  0.2525252E-01  0.4393235E-08  0.0000000E+00 -0.1948542E-04
  0.1161616E+00  0.0000000E+00  0.2525252E-01  0.4789255E-08  0.0000000E+00 -0.1948353E-04
  0.1262626E+00  0.0000000E+00  0.2525252E-01  0.5178280E-08  0.0000000E+00 -0.1948149E-04
  0.1363636E+00  0.0000000E+00  0.2525252E-01  0.5559337E-08  0.0000000E+00 -0.1947929E-04
  0.1464646E+00  0.0000000E+00  0.2525252E-01  0.5931366E-08  0.0000000E+00 -0.1947693E-04
  0.1565657E+00  0.0000000E+00  0.2525252E-01  0.6293226E-08  0.0000000E+00 -0.1947442E-04
  0.1666667E+00  0.0000000E+00  0.2525252E-01  0.6643693E-08  0.0000000E+00 -0.1947176E-04
  0.1767677E+00  0.0000000E+00  0.2525252E-01  0.6981457E-08  0.0000000E+00 -0.1946897E-04
  0.1868687E+00  0.0000000E+00  0.2525252E-01  0.7305129E-08  0.0000000E+00 -0.1946603E-04
  0.1969697E+00  0.0000000E+00  0.2525252E-01  0.7613240E-08  0.0000000E+00 -0.1946297E-04
  0.2070707E+00  0.0000000E+00  0.2525252E-01  0.7904249E-08  0.0000000E+00 -0.1945978E-04
  0.2171717E+00  0.0000000E+00  0.2525252E-01  0.8176547E-08  0.0000000E+00 -0.1945647E-04
  0.2272727E+00  0.0000000E+00  0.2525252E-01  0.8428469E-08  0.0000000E+00 -0.1945306E-04
  0.2373737E+00  0.0000000E+00  0.2525252E-01  0.8658302E-08  0.0000000E+00 -0.1944955E-04
  0.2474747E+00  0.0000000E+00  0.2525252E-01  0.8864301E-08  0.0000000E+00 -0.1944594E-04
  0.2575758E+00  0.0000000E+00  0.2525252E-01  0.9044697E-08  0.0000000E+00 -0.1944226E-04
  0.2676768E+00  0.0000000E+00  0.2525252E-01  0.9197720E-08  0.0000000E+00 -0.1943850E-04
  0.2777778E+00  0.0000000E+00  0.2525252E-01  0.9321616E-08  0.0000000E+00 -0.1943469E-04
  0.2878788E+00  0.0000000E+00  0.2525252E-01  0.9414664E-08  0.0000000E+00 -0.1943083E-04
  0.2979798E+00  0.0000000E+00  0.2525252E-01  0.9475203E-08  0.0000000E+00 -0.1942694E-04
  0.3080808E+00  0.0000000E+00  0.2525252E-01  0.9501651E-08  0.0000000E+00 -0.1942303E-04
  0.3181818E+00  0.0000000E+00  0.2525252E-01  0.9492533E-08  0.0000000E+00 -0.1941911E-04
  0.3282828E+00  0.0000000E+00  0.2525252E-01  0.9446506E-08  0.0000000E+00 -0.1941521E-04
  0.3383838E+00  0.0000000E+00  0.2525252E-01  0.9362386E-08  0.0000000E+00 -0.1941133E-04
  0.3484848E+00  0.0000000E+00  0.2525252E-01  0.9239173E-08  0.0000000E+00 -0.1940749E-04
  0.3585859E+00  0.0000000E+00  0.2525252E-01  0.9076083E-08  0.0000000E+00 -0.1940371E-04
  0.3686869E+00  0.0000000E+00  0.2525252E-01  0.8872565E-08  0.0000000E+00 -0.1940001E-04
  0.3787879E+00  0.0000000E+00  0.2525252E-01  0.8628334E-08  0.0000000E+00 -0.1939639E-04
  0.3888889E+00  0.0000000E+00  0.2525252E-01  0.8343391E-08  0.0000000E+00 -0.1939289E-04
  0.3989899E+00  0.0000000E+00  0.2525252E-01  0.8018039E-08  0.0000000E+00 -0.1938951E-04
  0.4090909E+00  0.0000000E+00  0.2525252E-01  0.7652909E-08  0.0000000E+00 -0.1938627E-04
  0.4191919E+00  0.0000000E+00  0.2525252E-01  0.7248963E-08  0.0000000E+00 -0.1938319E-04
  0.4292929E+00  0.0000000E+00  0.2525252E-01  0.6807511E-08  0.0000000E+00 -0.1938028E-04
  0.4393939E+00  0.0000000E+00  0.2525252E-01  0.6330214E-08  0.0000000E+00 -0.1937757E-04
  0.4494950E+00  0.0000000E+00  0.2525252E-01  0.5819078E-08  0.0000000E+00 -0.1937505E-04
  0.4595959E+00  0.0000000E+00  0.2525252E-01  0.5276457E-08  0.0000000E+00 -0.1937276E-04
  0.4696970E+00  0.0000000E+00  0.2525252E-01  0.4705030E-08  0.0000000E+00 -0.1937069E-04
  0.4797980E+00  0.0000000E+00  0.2525252E-01  0.4107795E-08  0.0000000E+00 -0.1936887E-04
  0.4898990E+00  0.0000000E+00  0.2525252E-01  0.3488033E-08  0.0000000E+00 -0.1936730E-04
  0.5000000E+00  0.0000000E+00  0.2525252E-01  0.2849293E-08  0.0000000E+00 -0.1936599E-04
  0.5101010E+00  0.0000000E+00  0.2525252E-01  0.2195344E-08  0.0000000E+00 -0.1936495E-04
  0.5202020E+00  0.0000000E+00  0.2525252E-01  0.1530149E-08  0.0000000E+00 -0.1936418E-04
  0.5303030E+00  0.0000000E+00  0.2525252E-01  0.8578139E-09  0.0000000E+00 -0.1936368E-04
  0.5404040E+00  0.0000000E+00  0.2525252E-01  0.1825474E-09  0.0000000E+00 -0.1936347E-04
  0.5505050E+00  0.0000000E+00  0.2525252E-01 -0.4913890E-09  0.0000000E+00 -0.1936353E-04
  0.5606061E+00  0.0000000E+00  0.2525252E-01 -0.1159729E-08  0.0000000E+00 -0.1936388E-04
  0.5707071E+00  0.0000000E+00  0.2525252E-01 -0.1818249E-08  0.0000000E+00 -0.1936450E-04
  0.5808081E+00  0.0000000E+00  0.2525252E-01 -0.2462817E-08  0.0000000E+00 -0.1936538E-04
  0.5909091E+00  0.0000000E+00  0.2525252E-01 -0.3089439E-08  0.0000000E+00 -0.1936654E-04
  0.6010101E+00  0.0000000E+00  0.2525252E-01 -0.3694300E-08  0.0000000E+00 -0.1936794E-04
  0.6111111E+00  0.0000000E+00  0.2525252E-01 -0.4273808E-08  0.0000000E+00 -0.1936960E-04
  0.6212121E+00  0.0000000E+00  0.2525252E-01 -0.4824622E-08  0.0000000E+00 -0.1937148E-04
  0.6313131E+00  0.0000000E+00  0.2525252E-01 -0.5343689E-08  0.0000000E+00 -0.1937359E-04
  0.6414142E+00  0.0000000E+00  0.2525252E-01 -0.5828265E-08  0.0000000E+00 -0.1937590E-04
  0.6515151E+00  0.0000000E+00  0.2525252E-01 -0.6275937E-08  0.0000000E+00 -0.1937841E-04
  0.6616161E+00  0.0000000E+00  0.2525252E-01 -0.6684631E-08  0.0000000E+00 -0.1938109E-04
  0.6717172E+00  0.0000000E+00  0.2525252E-01 -0.7052626E-08  0.0000000E+00 -0.1938394E-04
  0.6818182E+00  0.0000000E+00  0.2525252E-01 -0.7378553E-08  0.0000000E+00 -0.1938692E-04
  0.6919192E+00  0.0000000E+00  0.2525252E-01 -0.7661390E-08  0.0000000E+00 -0.1939004E-04
  0.7020202E+00  0.0000000E+00  0.2525252E-01 -0.7900458E-08  0.0000000E+00 -0.1939326E-04
  0.7121212E+00  0.0000000E+00  0.2525252E-01 -0.8095405E-08  0.0000000E+00 -0.1939656E-04
  0.7222222E+00  0.0000000E+00  0.2525252E-01 -0.8246193E-08  0.0000000E+00 -0.1939994E-04
  0.7323232E+00  0.0000000E+00  0.2525252E-01 -0.8353075E-08  0.0000000E+00 -0.1940337E-04
  0.7424242E+00  0.0000000E+00  0.2525252E-01 -0.8416576E-08  0.0000000E+00 -0.1940684E-04
  0.7525253E+00  0.0000000E+00  0.2525252E-01 -0.8437468E-08  0.0000000E+00 -0.1941032E-04
  0.7626263E+00  0.0000000E+00  0.2525252E-01 -0.8416745E-08  0.0000000E+00 -0.1941380E-04
  0.7727273E+00  0.0000000E+00  0.2525252E-01 -0.8355599E-08  0.0000000E+00 -0.1941726E-04
  0.7828283E+00  0.0000000E+00  0.2525252E-01 -0.8255392E-08  0.0000000E+00 -0.1942069E-04
  0.7929293E+00  0.0000000E+00  0.2525252E-01 -0.8117631E-08  0.0000000E+00 -0.1942407E-04
  0.8030303E+00  0.0000000E+00  0.2525252E-01 -0.7943942E-08  0.0000000E+00 -0.1942739E-04
  0.8131313E+00  0.0000000E+00  0.2525252E-01 -0.7736052E-08  0.0000000E+00 -0.1943062E-04
  0.8232324E+00  0.0000000E+00  0.2525252E-01 -0.7495759E-08  0.0000000E+00 -0.1943376E-04
  0.8333333E+00  0.0000000E+00  0.2525252E-01 -0.7224919E-08  0.0000000E+00 -0.1943680E-04
  0.8434343E+00  0.0000000E+00  0.2525252E-01 -0.6925421E-08  0.0000000E+00 -0.1943971E-04
  0.8535354E+00  0.0000000E+00  0.2525252E-01 -0.6599177E-08  0.0000000E+00 -0.1944250E-04
  0.8636364E+00  0.0000000E+00  0.2525252E-01 -0.6248102E-08  0.0000000E+00 -0.1944515E-04
  0.8737374E+00  0.0000000E+00  0.2525252E-01 -0.5874105E-08  0.0000000E+00 -0.1944765E-04
  0.8838384E+00  0.0000000E+00  0.2525252E-01 -0.5479080E-08  0.0000000E+00 -0.1944998E-04
  0.8939394E+00  0.0000000E+00  0.2525252E-01 -0.5064892E-08  0.0000000E+00 -0.1945216E-04
  0.9040404E+00  0.0000000E+00  0.2525252E-01 -0.4633381E-08  0.0000000E+00 -0.1945415E-04
  0.9141414E+00  0.0000000E+00  0.2525252E-01 -0.4186347E-08  0.0000000E+00 -0.1945597E-04
  0.9242424E+00  0.0000000E+00  0.2525252E-01 -0.3725557E-08  0.0000000E+00 -0.1945760E-04
  0.9343435E+00  0.0000000E+00  0.2525252E-01 -0.3252738E-08  0.0000000E+00 -0.1945903E-04
  0.9444444E+00  0.0000000E+00  0.2525252E-01 -0.2769580E-08  0.0000000E+00 -0.1946027E-04
  0.9545454E+00  0.0000000E+00  0.2525252E-01 -0.2277741E-08  0.0000000E+00 -0.1946131E-04
  0.9646465E+00  0.0000000E+00  0.2525252E-01 -0.1778844E-08  0.0000000E+00 -0.1946215E-04
  0.9747475E+00  0.0000000E+00  0.2525252E-01 -0.1274489E-08  0.0000000E+00 -0.1946278E-04
  0.9848485E+00  0.0000000E+00  0.2525252E-01 -0.7662511E-09  0.0000000E+00 -0.1946320E-04
  0.9974747E+00  0.0000000E+00  0.2525252E-01 -0.2556915E-09  0.0000000E+00 -0.1946341E-04
  0.5050505E-02  0.0000000E+00  0.3535353E-01  0.3015533E-09  0.0000000E+00 -0.1936815E-04
  0.1515152E-01  0.0000000E+00  0.3535353E-01  0.9044059E-09  0.0000000E+00 -0.1936797E-04
  0.2525252E-01  0.0000000E+00  0.3535353E-01  0.1506364E-08  0.0000000E+00 -0.1936761E-04
  0.3535353E-01  0.0000000E+00  0.3535353E-01  0.2106785E-08  0.0000000E+00 -0.1936707E-04
  0.4545455E-01  0.0000000E+00  0.3535353E-01  0.2705024E-08  0.0000000E+00 -0.1936635E-04
  0.5555556E-01  0.0000000E+00  0.3535353E-01  0.3300387E-08  0.0000000E+00 -0.1936545E-04
  0.6565657E-01  0.0000000E+00  0.3535353E-01  0.3892129E-08  0.0000000E+00 -0.1936438E-04
  0.7575758E-01  0.0000000E+00  0.3535353E-01  0.4479441E-08  0.0000000E+00 -0.1936312E-04
  0.8585858E-01  0.0000000E+00  0.3535353E-01  0.5061443E-08  0.0000000E+00 -0.1936170E-04
  0.9595960E-01  0.0000000E+00  0.3535353E-01  0.5637170E-08  0.0000000E+00 -0.1936010E-04
  0.1060606E+00  0.0000000E+00  0.3535353E-01  0.6205566E-08  0.0000000E+00 -0.1935833E-04
  0.1161616E+00  0.0000000E+00  0.3535353E-01  0.6765479E-08  0.0000000E+00 -0.1935639E-04
  0.1262626E+00  0.0000000E+00  0.3535353E-01  0.7315646E-08  0.0000000E+00 -0.1935428E-04
  0.1363636E+00  0.0000000E+00  0.3535353E-01  0.7854695E-08  0.0000000E+00 -0.1935201E-04
  0.1464646E+00  0.0000000E+00  0.3535353E-01  0.8381137E-08  0.0000000E+00 -0.1934957E-04
  0.1565657E+00  0.0000000E+00  0.3535353E-01  0.8893364E-08  0.0000000E+00 -0.1934699E-04
  0.1666667E+00  0.0000000E+00  0.3535353E-01  0.9389648E-08  0.0000000E+00 -0.1934424E-04
  0.1767677E+00  0.0000000E+00  0.3535353E-01  0.9868140E-08  0.0000000E+00 -0.1934136E-04
  0.1868687E+00  0.0000000E+00  0.3535353E-01  0.1032687E-07  0.0000000E+00 -0.1933833E-04
  0.1969697E+00  0.0000000E+00  0.3535353E-01  0.1076377E-07  0.0000000E+00 -0.1933516E-04
  0.2070707E+00  0.0000000E+00  0.3535353E-01  0.1117665E-07  0.0000000E+00 -0.1933187E-04
  0.2171717E+00  0.0000000E+00  0.3535353E-01  0.1156322E-07  0.0000000E+00 -0.1932845E-04
  0.2272727E+00  0.0000000E+00  0.3535353E-01  0.1192113E-07  0.0000000E+00 -0.1932492E-04
  0.2373737E+00  0.0000000E+00  0.3535353E-01  0.1224794E-07  0.0000000E+00 -0.1932128E-04
  0.2474747E+00  0.0000000E+00  0.3535353E-01  0.1254116E-07  0.0000000E+00 -0.1931755E-04
  0.2575758E+00  0.0000000E+00  0.3535353E-01  0.1279828E-07  0.0000000E+00 -0.1931374E-04
  0.2676768E+00  0.0000000E+00  0.3535353E-01  0.1301677E-07  0.0000000E+00 -0.1930985E-04
  0.2777778E+00  0.0000000E+00  0.3535353E-01  0.1319412E-07  0.0000000E+00 -0.1930590E-04
  0.2878788E+00  0.0000000E+00  0.3535353E-01  0.1332789E-07  0.0000000E+00 -0.1930190E-04
  0.2979798E+00  0.0000000E+00  0.3535353E-01  0.1341568E-07  0.0000000E+00 -0.1929786E-04