title = "dataset water"
variables = "x", "y", "z", "vx", "vy", "vz"
zone t = "velocities, solution time =  4.300E+01 days        " i =   99, j =   99, k =    1,  f=point
  0.5050505E-02  0.0000000E+00  0.5050505E-02  0.3170552E-07  0.0000000E+00  0.3293207E-04
  0.1515152E-01  0.0000000E+00  0.5050505E-02  0.9521390E-07  0.0000000E+00  0.3305988E-04
  0.2525252E-01  0.0000000E+00  0.5050505E-02  0.1590157E-06  0.0000000E+00  0.3331588E-04
  0.3535353E-01  0.0000000E+00  0.5050505E-02  0.2233093E-06  0.0000000E+00  0.3370089E-04
  0.4545455E-01  0.0000000E+00  0.5050505E-02  0.2882967E-06  0.0000000E+00  0.3421612E-04
  0.5555556E-01  0.0000000E+00  0.5050505E-02  0.3541840E-06  0.0000000E+00  0.3486318E-04
  0.6565657E-01  0.0000000E+00  0.5050505E-02  0.4211830E-06  0.0000000E+00  0.3564414E-04
  0.7575758E-01  0.0000000E+00  0.5050505E-02  0.4895123E-06  0.0000000E+00  0.3656149E-04
  0.8585858E-01  0.0000000E+00  0.5050505E-02  0.5593988E-06  0.0000000E+00  0.3761819E-04
  0.9595960E-01  0.0000000E+00  0.5050505E-02  0.6310791E-06  0.0000000E+00  0.3881766E-04
  0.1060606E+00  0.0000000E+00  0.5050505E-02  0.7048012E-06  0.0000000E+00  0.4016382E-04
  0.1161616E+00  0.0000000E+00  0.5050505E-02  0.7808263E-06  0.0000000E+00  0.4166114E-04
  0.1262626E+00  0.0000000E+00  0.5050505E-02  0.8594312E-06  0.0000000E+00  0.4331460E-04
  0.1363636E+00  0.0000000E+00  0.5050505E-02  0.9409097E-06  0.0000000E+00  0.4512981E-04
  0.1464646E+00  0.0000000E+00  0.5050505E-02  0.1025576E-05  0.0000000E+00  0.4711297E-04
  0.1565657E+00  0.0000000E+00  0.5050505E-02  0.1113768E-05  0.0000000E+00  0.4927097E-04
  0.1666667E+00  0.0000000E+00  0.5050505E-02  0.1205847E-05  0.0000000E+00  0.5161144E-04
  0.1767677E+00  0.0000000E+00  0.5050505E-02  0.1302207E-05  0.0000000E+00  0.5414277E-04
  0.1868687E+00  0.0000000E+00  0.5050505E-02  0.1403276E-05  0.0000000E+00  0.5687421E-04
  0.1969697E+00  0.0000000E+00  0.5050505E-02  0.1509518E-05  0.0000000E+00  0.5981592E-04
  0.2070707E+00  0.0000000E+00  0.5050505E-02  0.1621444E-05  0.0000000E+00  0.6297911E-04
  0.2171717E+00  0.0000000E+00  0.5050505E-02  0.1739615E-05  0.0000000E+00  0.6637608E-04
  0.2272727E+00  0.0000000E+00  0.5050505E-02  0.1864650E-05  0.0000000E+00  0.7002036E-04
  0.2373737E+00  0.0000000E+00  0.5050505E-02  0.1997236E-05  0.0000000E+00  0.7392687E-04
  0.2474747E+00  0.0000000E+00  0.5050505E-02  0.2138136E-05  0.0000000E+00  0.7811202E-04
  0.2575758E+00  0.0000000E+00  0.5050505E-02  0.2288203E-05  0.0000000E+00  0.8259394E-04
  0.2676768E+00  0.0000000E+00  0.5050505E-02  0.2448392E-05  0.0000000E+00  0.8739263E-04
  0.2777778E+00  0.0000000E+00  0.5050505E-02  0.2619780E-05  0.0000000E+00  0.9253026E-04
  0.2878788E+00  0.0000000E+00  0.5050505E-02  0.2803583E-05  0.0000000E+00  0.9803139E-04
  0.2979798E+00  0.0000000E+00  0.5050505E-02  0.3001176E-05  0.0000000E+00  0.1039234E-03
  0.3080808E+00  0.0000000E+00  0.5050505E-02  0.3214128E-05  0.0000000E+00  0.1102366E-03
  0.3181818E+00  0.0000000E+00  0.5050505E-02  0.3444227E-05  0.0000000E+00  0.1170050E-03
  0.3282828E+00  0.0000000E+00  0.5050505E-02  0.3693519E-05  0.0000000E+00  0.1242668E-03
  0.3383838E+00  0.0000000E+00  0.5050505E-02  0.3964351E-05  0.0000000E+00  0.1320647E-03
  0.3484848E+00  0.0000000E+00  0.5050505E-02  0.4259423E-05  0.0000000E+00  0.1404467E-03
  0.3585859E+00  0.0000000E+00  0.5050505E-02  0.4581838E-05  0.0000000E+00  0.1494674E-03
  0.3686869E+00  0.0000000E+00  0.5050505E-02  0.4935160E-05  0.0000000E+00  0.1591882E-03
  0.3787879E+00  0.0000000E+00  0.5050505E-02  0.5323478E-05  0.0000000E+00  0.1696789E-03
  0.3888889E+00  0.0000000E+00  0.5050505E-02  0.5751447E-05  0.0000000E+00  0.1810189E-03
  0.3989899E+00  0.0000000E+00  0.5050505E-02  0.6224324E-05  0.0000000E+00  0.1932983E-03
  0.4090909E+00  0.0000000E+00  0.5050505E-02  0.6747942E-05  0.0000000E+00  0.2066193E-03
  0.4191919E+00  0.0000000E+00  0.5050505E-02  0.7328623E-05  0.0000000E+00  0.2210978E-03
  0.4292929E+00  0.0000000E+00  0.5050505E-02  0.7972957E-05  0.0000000E+00  0.2368640E-03
  0.4393939E+00  0.0000000E+00  0.5050505E-02  0.8687415E-05  0.0000000E+00  0.2540632E-03
  0.4494950E+00  0.0000000E+00  0.5050505E-02  0.9477770E-05  0.0000000E+00  0.2728551E-03
  0.4595959E+00  0.0000000E+00  0.5050505E-02  0.1034837E-04  0.0000000E+00  0.2934121E-03
  0.4696970E+00  0.0000000E+00  0.5050505E-02  0.1130156E-04  0.0000000E+00  0.3159162E-03
  0.4797980E+00  0.0000000E+00  0.5050505E-02  0.1233815E-04  0.0000000E+00  0.3405557E-03
  0.4898990E+00  0.0000000E+00  0.5050505E-02  0.1346084E-04  0.0000000E+00  0.3675262E-03
  0.5000000E+00  0.0000000E+00  0.5050505E-02  0.1468577E-04  0.0000000E+00  0.3970470E-03
  0.5101010E+00  0.0000000E+00  0.5050505E-02  0.1607384E-04  0.0000000E+00  0.4294237E-03
  0.5202020E+00  0.0000000E+00  0.5050505E-02  0.1781256E-04  0.0000000E+00  0.4652317E-03
  0.5303030E+00  0.0000000E+00  0.5050505E-02  0.2043494E-04  0.0000000E+00  0.5058247E-03
  0.5404040E+00  0.0000000E+00  0.5050505E-02  0.2546047E-04  0.0000000E+00  0.5547789E-03
  0.5505050E+00  0.0000000E+00  0.5050505E-02  0.3758474E-04  0.0000000E+00  0.6224449E-03
  0.5606061E+00  0.0000000E+00  0.5050505E-02  0.4520806E-04  0.0000000E+00  0.7120117E-03
  0.5707071E+00  0.0000000E+00  0.5050505E-02 -0.2695641E-04  0.0000000E+00  0.7317055E-03
  0.5808081E+00  0.0000000E+00  0.5050505E-02 -0.6492878E-04  0.0000000E+00  0.6325669E-03
  0.5909091E+00  0.0000000E+00  0.5050505E-02 -0.3603939E-04  0.0000000E+00  0.5245161E-03
  0.6010101E+00  0.0000000E+00  0.5050505E-02 -0.2438430E-04  0.0000000E+00  0.4603959E-03
  0.6111111E+00  0.0000000E+00  0.5050505E-02 -0.1862156E-04  0.0000000E+00  0.4150204E-03
  0.6212121E+00  0.0000000E+00  0.5050505E-02 -0.1527739E-04  0.0000000E+00  0.3794112E-03
  0.6313131E+00  0.0000000E+00  0.5050505E-02 -0.1309216E-04  0.0000000E+00  0.3497189E-03
  0.6414142E+00  0.0000000E+00  0.5050505E-02 -0.1153163E-04  0.0000000E+00  0.3240277E-03
  0.6515151E+00  0.0000000E+00  0.5050505E-02 -0.1033897E-04  0.0000000E+00  0.3012723E-03
  0.6616161E+00  0.0000000E+00  0.5050505E-02 -0.9378885E-05  0.0000000E+00  0.2808077E-03
  0.6717172E+00  0.0000000E+00  0.5050505E-02 -0.8575089E-05  0.0000000E+00  0.2622160E-03
  0.6818182E+00  0.0000000E+00  0.5050505E-02 -0.7882239E-05  0.0000000E+00  0.2452092E-03
  0.6919192E+00  0.0000000E+00  0.5050505E-02 -0.7272099E-05  0.0000000E+00  0.2295786E-03
  0.7020202E+00  0.0000000E+00  0.5050505E-02 -0.6726316E-05  0.0000000E+00  0.2151656E-03
  0.7121212E+00  0.0000000E+00  0.5050505E-02 -0.6232458E-05  0.0000000E+00  0.2018447E-03
  0.7222222E+00  0.0000000E+00  0.5050505E-02 -0.5781758E-05  0.0000000E+00  0.1895132E-03
  0.7323232E+00  0.0000000E+00  0.5050505E-02 -0.5367790E-05  0.0000000E+00  0.1780851E-03
  0.7424242E+00  0.0000000E+00  0.5050505E-02 -0.4985666E-05  0.0000000E+00  0.1674867E-03
  0.7525253E+00  0.0000000E+00  0.5050505E-02 -0.4631533E-05  0.0000000E+00  0.1576538E-03
  0.7626263E+00  0.0000000E+00  0.5050505E-02 -0.4302261E-05  0.0000000E+00  0.1485297E-03
  0.7727273E+00  0.0000000E+00  0.5050505E-02 -0.3995237E-05  0.0000000E+00  0.1400643E-03
  0.7828283E+00  0.0000000E+00  0.5050505E-02 -0.3708228E-05  0.0000000E+00  0.1322124E-03
  0.7929293E+00  0.0000000E+00  0.5050505E-02 -0.3439293E-05  0.0000000E+00  0.1249336E-03
  0.8030303E+00  0.0000000E+00  0.5050505E-02 -0.3186721E-05  0.0000000E+00  0.1181915E-03
  0.8131313E+00  0.0000000E+00  0.5050505E-02 -0.2948983E-05  0.0000000E+00  0.1119530E-03
  0.8232324E+00  0.0000000E+00  0.5050505E-02 -0.2724706E-05  0.0000000E+00  0.1061884E-03
  0.8333333E+00  0.0000000E+00  0.5050505E-02 -0.2512642E-05  0.0000000E+00  0.1008705E-03
  0.8434343E+00  0.0000000E+00  0.5050505E-02 -0.2311656E-05  0.0000000E+00  0.9597495E-04
  0.8535354E+00  0.0000000E+00  0.5050505E-02 -0.2120708E-05  0.0000000E+00  0.9147960E-04
  0.8636364E+00  0.0000000E+00  0.5050505E-02 -0.1938837E-05  0.0000000E+00  0.8736443E-04
  0.8737374E+00  0.0000000E+00  0.5050505E-02 -0.1765159E-05  0.0000000E+00  0.8361140E-04
  0.8838384E+00  0.0000000E+00  0.5050505E-02 -0.1598851E-05  0.0000000E+00  0.8020429E-04
  0.8939394E+00  0.0000000E+00  0.5050505E-02 -0.1439143E-05  0.0000000E+00  0.7712852E-04
  0.9040404E+00  0.0000000E+00  0.5050505E-02 -0.1285318E-05  0.0000000E+00  0.7437111E-04
  0.9141414E+00  0.0000000E+00  0.5050505E-02 -0.1136697E-05  0.0000000E+00  0.7192054E-04
  0.9242424E+00  0.0000000E+00  0.5050505E-02 -0.9926410E-06  0.0000000E+00  0.6976667E-04
  0.9343435E+00  0.0000000E+00  0.5050505E-02 -0.8525403E-06  0.0000000E+00  0.6790065E-04
  0.9444444E+00  0.0000000E+00  0.5050505E-02 -0.7158134E-06  0.0000000E+00  0.6631489E-04
  0.9545454E+00  0.0000000E+00  0.5050505E-02 -0.5819017E-06  0.0000000E+00  0.6500299E-04
  0.9646465E+00  0.0000000E+00  0.5050505E-02 -0.4502654E-06  0.0000000E+00  0.6395967E-04
  0.9747475E+00  0.0000000E+00  0.5050505E-02 -0.3203809E-06  0.0000000E+00  0.6318077E-04
  0.9848485E+00  0.0000000E+00  0.5050505E-02 -0.1917365E-06  0.0000000E+00  0.6266320E-04
  0.9974747E+00  0.0000000E+00  0.5050505E-02 -0.6383068E-07  0.0000000E+00  0.6240492E-04
  0.5050505E-02  0.0000000E+00  0.1515152E-01  0.9502092E-07  0.0000000E+00  0.3294299E-04
  0.1515152E-01  0.0000000E+00  0.1515152E-01  0.2853548E-06  0.0000000E+00  0.3307078E-04
  0.2525252E-01  0.0000000E+00  0.1515152E-01  0.4765684E-06  0.0000000E+00  0.3332675E-04
  0.3535353E-01  0.0000000E+00  0.1515152E-01  0.6692563E-06  0.0000000E+00  0.3371171E-04
  0.4545455E-01  0.0000000E+00  0.1515152E-01  0.8640231E-06  0.0000000E+00  0.3422685E-04
  0.5555556E-01  0.0000000E+00  0.1515152E-01  0.1061486E-05  0.0000000E+00  0.3487381E-04
  0.6565657E-01  0.0000000E+00  0.1515152E-01  0.1262280E-05  0.0000000E+00  0.3565462E-04
  0.7575758E-01  0.0000000E+00  0.1515152E-01  0.1467059E-05  0.0000000E+00  0.3657178E-04
  0.8585858E-01  0.0000000E+00  0.1515152E-01  0.1676502E-05  0.0000000E+00  0.3762824E-04
  0.9595960E-01  0.0000000E+00  0.1515152E-01  0.1891318E-05  0.0000000E+00  0.3882739E-04
  0.1060606E+00  0.0000000E+00  0.1515152E-01  0.2112249E-05  0.0000000E+00  0.4017317E-04
  0.1161616E+00  0.0000000E+00  0.1515152E-01  0.2340078E-05  0.0000000E+00  0.4167000E-04
  0.1262626E+00  0.0000000E+00  0.1515152E-01  0.2575632E-05  0.0000000E+00  0.4332287E-04
  0.1363636E+00  0.0000000E+00  0.1515152E-01  0.2819793E-05  0.0000000E+00  0.4513734E-04
  0.1464646E+00  0.0000000E+00  0.1515152E-01  0.3073499E-05  0.0000000E+00  0.4711962E-04
  0.1565657E+00  0.0000000E+00  0.1515152E-01  0.3337760E-05  0.0000000E+00  0.4927656E-04
  0.1666667E+00  0.0000000E+00  0.1515152E-01  0.3613662E-05  0.0000000E+00  0.5161574E-04
  0.1767677E+00  0.0000000E+00  0.1515152E-01  0.3902381E-05  0.0000000E+00  0.5414553E-04
  0.1868687E+00  0.0000000E+00  0.1515152E-01  0.4205195E-05  0.0000000E+00  0.5687513E-04
  0.1969697E+00  0.0000000E+00  0.1515152E-01  0.4523496E-05  0.0000000E+00  0.5981468E-04
  0.2070707E+00  0.0000000E+00  0.1515152E-01  0.4858811E-05  0.0000000E+00  0.6297529E-04
  0.2171717E+00  0.0000000E+00  0.1515152E-01  0.5212816E-05  0.0000000E+00  0.6636922E-04
  0.2272727E+00  0.0000000E+00  0.1515152E-01  0.5587364E-05  0.0000000E+00  0.7000992E-04
  0.2373737E+00  0.0000000E+00  0.1515152E-01  0.5984507E-05  0.0000000E+00  0.7391221E-04
  0.2474747E+00  0.0000000E+00  0.1515152E-01  0.6406525E-05  0.0000000E+00  0.7809241E-04
  0.2575758E+00  0.0000000E+00  0.1515152E-01  0.6855969E-05  0.0000000E+00  0.8256852E-04
  0.2676768E+00  0.0000000E+00  0.1515152E-01  0.7335694E-05  0.0000000E+00  0.8736040E-04
  0.2777778E+00  0.0000000E+00  0.1515152E-01  0.7848914E-05  0.0000000E+00  0.9249006E-04
  0.2878788E+00  0.0000000E+00  0.1515152E-01  0.8399259E-05  0.0000000E+00  0.9798187E-04
  0.2979798E+00  0.0000000E+00  0.1515152E-01  0.8990845E-05  0.0000000E+00  0.1038629E-03
  0.3080808E+00  0.0000000E+00  0.1515152E-01  0.9628350E-05  0.0000000E+00  0.1101634E-03
  0.3181818E+00  0.0000000E+00  0.1515152E-01  0.1031712E-04  0.0000000E+00  0.1169169E-03
  0.3282828E+00  0.0000000E+00  0.1515152E-01  0.1106326E-04  0.0000000E+00  0.1241612E-03
  0.3383838E+00  0.0000000E+00  0.1515152E-01  0.1187379E-04  0.0000000E+00  0.1319386E-03
  0.3484848E+00  0.0000000E+00  0.1515152E-01  0.1275677E-04  0.0000000E+00  0.1402968E-03
  0.3585859E+00  0.0000000E+00  0.1515152E-01  0.1372149E-04  0.0000000E+00  0.1492896E-03
  0.3686869E+00  0.0000000E+00  0.1515152E-01  0.1477863E-04  0.0000000E+00  0.1589780E-03
  0.3787879E+00  0.0000000E+00  0.1515152E-01  0.1594044E-04  0.0000000E+00  0.1694312E-03
  0.3888889E+00  0.0000000E+00  0.1515152E-01  0.1722092E-04  0.0000000E+00  0.1807278E-03
  0.3989899E+00  0.0000000E+00  0.1515152E-01  0.1863592E-04  0.0000000E+00  0.1929575E-03
  0.4090909E+00  0.0000000E+00  0.1515152E-01  0.2020311E-04  0.0000000E+00  0.2062222E-03
  0.4191919E+00  0.0000000E+00  0.1515152E-01  0.2194176E-04  0.0000000E+00  0.2206381E-03
  0.4292929E+00  0.0000000E+00  0.1515152E-01  0.2387212E-04  0.0000000E+00  0.2363364E-03
  0.4393939E+00  0.0000000E+00  0.1515152E-01  0.2601425E-04  0.0000000E+00  0.2534644E-03
  0.4494950E+00  0.0000000E+00  0.1515152E-01  0.2838627E-04  0.0000000E+00  0.2721857E-03
  0.4595959E+00  0.0000000E+00  0.1515152E-01  0.3100183E-04  0.0000000E+00  0.2926777E-03
  0.4696970E+00  0.0000000E+00  0.1515152E-01  0.3386763E-04  0.0000000E+00  0.3151279E-03
  0.4797980E+00  0.0000000E+00  0.1515152E-01  0.3698268E-04  0.0000000E+00  0.3397265E-03
  0.4898990E+00  0.0000000E+00  0.1515152E-01  0.4034427E-04  0.0000000E+00  0.3666561E-03
  0.5000000E+00  0.0000000E+00  0.1515152E-01  0.4397133E-04  0.0000000E+00  0.3960811E-03
  0.5101010E+00  0.0000000E+00  0.1515152E-01  0.4797057E-04  0.0000000E+00  0.4281404E-03
  0.5202020E+00  0.0000000E+00  0.1515152E-01  0.5270283E-04  0.0000000E+00  0.4629468E-03
  0.5303030E+00  0.0000000E+00  0.1515152E-01  0.5917886E-04  0.0000000E+00  0.5005432E-03
  0.5404040E+00  0.0000000E+00  0.1515152E-01  0.6995045E-04  0.0000000E+00  0.5403969E-03
  0.5505050E+00  0.0000000E+00  0.1515152E-01  0.9118282E-04  0.0000000E+00  0.5780032E-03
  0.5606061E+00  0.0000000E+00  0.1515152E-01  0.1124411E-03  0.0000000E+00  0.6190147E-03
  0.5707071E+00  0.0000000E+00  0.1515152E-01 -0.1080002E-03  0.0000000E+00  0.5850286E-03
  0.5808081E+00  0.0000000E+00  0.1515152E-01 -0.1388515E-03  0.0000000E+00  0.5175579E-03
  0.5909091E+00  0.0000000E+00  0.1515152E-01 -0.9220919E-04  0.0000000E+00  0.4864824E-03
  0.6010101E+00  0.0000000E+00  0.1515152E-01 -0.6776225E-04  0.0000000E+00  0.4450622E-03
  0.6111111E+00  0.0000000E+00  0.1515152E-01 -0.5368558E-04  0.0000000E+00  0.4076921E-03
  0.6212121E+00  0.0000000E+00  0.1515152E-01 -0.4480929E-04  0.0000000E+00  0.3754326E-03
  0.6313131E+00  0.0000000E+00  0.1515152E-01 -0.3873884E-04  0.0000000E+00  0.3473478E-03
  0.6414142E+00  0.0000000E+00  0.1515152E-01 -0.3428742E-04  0.0000000E+00  0.3225086E-03
  0.6515151E+00  0.0000000E+00  0.1515152E-01 -0.3082881E-04  0.0000000E+00  0.3002382E-03
  0.6616161E+00  0.0000000E+00  0.1515152E-01 -0.2801452E-04  0.0000000E+00  0.2800655E-03
  0.6717172E+00  0.0000000E+00  0.1515152E-01 -0.2564143E-04  0.0000000E+00  0.2616578E-03
  0.6818182E+00  0.0000000E+00  0.1515152E-01 -0.2358603E-04  0.0000000E+00  0.2447723E-03
  0.6919192E+00  0.0000000E+00  0.1515152E-01 -0.2177016E-04  0.0000000E+00  0.2292251E-03
  0.7020202E+00  0.0000000E+00  0.1515152E-01 -0.2014228E-04  0.0000000E+00  0.2148718E-03
  0.7121212E+00  0.0000000E+00  0.1515152E-01 -0.1866710E-04  0.0000000E+00  0.2015952E-03
  0.7222222E+00  0.0000000E+00  0.1515152E-01 -0.1731950E-04  0.0000000E+00  0.1892980E-03
  0.7323232E+00  0.0000000E+00  0.1515152E-01 -0.1608090E-04  0.0000000E+00  0.1778973E-03
  0.7424242E+00  0.0000000E+00  0.1515152E-01 -0.1493703E-04  0.0000000E+00  0.1673212E-03
  0.7525253E+00  0.0000000E+00  0.1515152E-01 -0.1387663E-04  0.0000000E+00  0.1575070E-03
  0.7626263E+00  0.0000000E+00  0.1515152E-01 -0.1289046E-04  0.0000000E+00  0.1483990E-03
  0.7727273E+00  0.0000000E+00  0.1515152E-01 -0.1197079E-04  0.0000000E+00  0.1399473E-03
  0.7828283E+00  0.0000000E+00  0.1515152E-01 -0.1111099E-04  0.0000000E+00  0.1321075E-03
  0.7929293E+00  0.0000000E+00  0.1515152E-01 -0.1030528E-04  0.0000000E+00  0.1248394E-03
  0.8030303E+00  0.0000000E+00  0.1515152E-01 -0.9548556E-05  0.0000000E+00  0.1181066E-03
  0.8131313E+00  0.0000000E+00  0.1515152E-01 -0.8836255E-05  0.0000000E+00  0.1118764E-03
  0.8232324E+00  0.0000000E+00  0.1515152E-01 -0.8164267E-05  0.0000000E+00  0.1061191E-03
  0.8333333E+00  0.0000000E+00  0.1515152E-01 -0.7528863E-05  0.0000000E+00  0.1008077E-03
  0.8434343E+00  0.0000000E+00  0.1515152E-01 -0.6926643E-05  0.0000000E+00  0.9591794E-04
  0.8535354E+00  0.0000000E+00  0.1515152E-01 -0.6354491E-05  0.0000000E+00  0.9142770E-04
  0.8636364E+00  0.0000000E+00  0.1515152E-01 -0.5809537E-05  0.0000000E+00  0.8731705E-04
  0.8737374E+00  0.0000000E+00  0.1515152E-01 -0.5289127E-05  0.0000000E+00  0.8356801E-04
  0.8838384E+00  0.0000000E+00  0.1515152E-01 -0.4790795E-05  0.0000000E+00  0.8016440E-04
  0.8939394E+00  0.0000000E+00  0.1515152E-01 -0.4312242E-05  0.0000000E+00  0.7709170E-04
  0.9040404E+00  0.0000000E+00  0.1515152E-01 -0.3851313E-05  0.0000000E+00  0.7433697E-04
  0.9141414E+00  0.0000000E+00  0.1515152E-01 -0.3405979E-05  0.0000000E+00  0.7188871E-04
  0.9242424E+00  0.0000000E+00  0.1515152E-01 -0.2974323E-05  0.0000000E+00  0.6973682E-04
  0.9343435E+00  0.0000000E+00  0.1515152E-01 -0.2554520E-05  0.0000000E+00  0.6787247E-04
  0.9444444E+00  0.0000000E+00  0.1515152E-01 -0.2144828E-05  0.0000000E+00  0.6628811E-04
  0.9545454E+00  0.0000000E+00  0.1515152E-01 -0.1743574E-05  0.0000000E+00  0.6497733E-04
  0.9646465E+00  0.0000000E+00  0.1515152E-01 -0.1349141E-05  0.0000000E+00  0.6393489E-04
  0.9747475E+00  0.0000000E+00  0.1515152E-01 -0.9599601E-06  0.0000000E+00  0.6315663E-04
  0.9848485E+00  0.0000000E+00  0.1515152E-01 -0.5744992E-06  0.0000000E+00  0.6263949E-04
  0.9974747E+00  0.0000000E+00  0.1515152E-01 -0.1912549E-06  0.0000000E+00  0.6238141E-04
  0.5050505E-02  0.0000000E+00  0.2525252E-01  0.1581430E-06  0.0000000E+00  0.3296567E-04
  0.1515152E-01  0.0000000E+00  0.2525252E-01  0.4749154E-06  0.0000000E+00  0.3309344E-04
  0.2525252E-01  0.0000000E+00  0.2525252E-01  0.7931517E-06  0.0000000E+00  0.3334936E-04
  0.3535353E-01  0.0000000E+00  0.2525252E-01  0.1113841E-05  0.0000000E+00  0.3373422E-04
  0.4545455E-01  0.0000000E+00  0.2525252E-01  0.1437987E-05  0.0000000E+00  0.3424923E-04
  0.5555556E-01  0.0000000E+00  0.2525252E-01  0.1766616E-05  0.0000000E+00  0.3489599E-04
  0.6565657E-01  0.0000000E+00  0.2525252E-01  0.2100782E-05  0.0000000E+00  0.3567654E-04
  0.7575758E-01  0.0000000E+00  0.2525252E-01  0.2441572E-05  0.0000000E+00  0.3659336E-04
  0.8585858E-01  0.0000000E+00  0.2525252E-01  0.2790115E-05  0.0000000E+00  0.3764936E-04
  0.9595960E-01  0.0000000E+00  0.2525252E-01  0.3147587E-05  0.0000000E+00  0.3884795E-04
  0.1060606E+00  0.0000000E+00  0.2525252E-01  0.3515221E-05  0.0000000E+00  0.4019301E-04
  0.1161616E+00  0.0000000E+00  0.2525252E-01  0.3894317E-05  0.0000000E+00  0.4168894E-04
  0.1262626E+00  0.0000000E+00  0.2525252E-01  0.4286248E-05  0.0000000E+00  0.4334069E-04
  0.1363636E+00  0.0000000E+00  0.2525252E-01  0.4692476E-05  0.0000000E+00  0.4515379E-04
  0.1464646E+00  0.0000000E+00  0.2525252E-01  0.5114561E-05  0.0000000E+00  0.4713439E-04
  0.1565657E+00  0.0000000E+00  0.2525252E-01  0.5554177E-05  0.0000000E+00  0.4928931E-04
  0.1666667E+00  0.0000000E+00  0.2525252E-01  0.6013126E-05  0.0000000E+00  0.5162605E-04
  0.1767677E+00  0.0000000E+00  0.2525252E-01  0.6493359E-05  0.0000000E+00  0.5415291E-04
  0.1868687E+00  0.0000000E+00  0.2525252E-01  0.6996992E-05  0.0000000E+00  0.5687901E-04
  0.1969697E+00  0.0000000E+00  0.2525252E-01  0.7526335E-05  0.0000000E+00  0.5981438E-04
  0.2070707E+00  0.0000000E+00  0.2525252E-01  0.8083917E-05  0.0000000E+00  0.6297005E-04
  0.2171717E+00  0.0000000E+00  0.2525252E-01  0.8672516E-05  0.0000000E+00  0.6635813E-04
  0.2272727E+00  0.0000000E+00  0.2525252E-01  0.9295199E-05  0.0000000E+00  0.6999193E-04
  0.2373737E+00  0.0000000E+00  0.2525252E-01  0.9955361E-05  0.0000000E+00  0.7388610E-04
  0.2474747E+00  0.0000000E+00  0.2525252E-01  0.1065678E-04  0.0000000E+00  0.7805674E-04
  0.2575758E+00  0.0000000E+00  0.2525252E-01  0.1140367E-04  0.0000000E+00  0.8252162E-04
  0.2676768E+00  0.0000000E+00  0.2525252E-01  0.1220076E-04  0.0000000E+00  0.8730034E-04
  0.2777778E+00  0.0000000E+00  0.2525252E-01  0.1305335E-04  0.0000000E+00  0.9241456E-04
  0.2878788E+00  0.0000000E+00  0.2525252E-01  0.1396745E-04  0.0000000E+00  0.9788828E-04
  0.2979798E+00  0.0000000E+00  0.2525252E-01  0.1494987E-04  0.0000000E+00  0.1037481E-03
  0.3080808E+00  0.0000000E+00  0.2525252E-01  0.1600832E-04  0.0000000E+00  0.1100238E-03
  0.3181818E+00  0.0000000E+00  0.2525252E-01  0.1715164E-04  0.0000000E+00  0.1167483E-03
  0.3282828E+00  0.0000000E+00  0.2525252E-01  0.1838992E-04  0.0000000E+00  0.1239586E-03
  0.3383838E+00  0.0000000E+00  0.2525252E-01  0.1973477E-04  0.0000000E+00  0.1316963E-03
  0.3484848E+00  0.0000000E+00  0.2525252E-01  0.2119953E-04  0.0000000E+00  0.1400080E-03
  0.3585859E+00  0.0000000E+00  0.2525252E-01  0.2279958E-04  0.0000000E+00  0.1489466E-03
  0.3686869E+00  0.0000000E+00  0.2525252E-01  0.2455264E-04  0.0000000E+00  0.1585717E-03
  0.3787879E+00  0.0000000E+00  0.2525252E-01  0.2647912E-04  0.0000000E+00  0.1689514E-03
  0.3888889E+00  0.0000000E+00  0.2525252E-01  0.2860243E-04  0.0000000E+00  0.1801629E-03
  0.3989899E+00  0.0000000E+00  0.2525252E-01  0.3094924E-04  0.0000000E+00  0.1922949E-03
  0.4090909E+00  0.0000000E+00  0.2525252E-01  0.3354954E-04  0.0000000E+00  0.2054487E-03
  0.4191919E+00  0.0000000E+00  0.2525252E-01  0.3643642E-04  0.0000000E+00  0.2197404E-03
  0.4292929E+00  0.0000000E+00  0.2525252E-01  0.3964520E-04  0.0000000E+00  0.2353032E-03
  0.4393939E+00  0.0000000E+00  0.2525252E-01  0.4321167E-04  0.0000000E+00  0.2522886E-03
  0.4494950E+00  0.0000000E+00  0.2525252E-01  0.4716896E-04  0.0000000E+00  0.2708675E-03
  0.4595959E+00  0.0000000E+00  0.2525252E-01  0.5154273E-04  0.0000000E+00  0.2912293E-03
  0.4696970E+00  0.0000000E+00  0.2525252E-01  0.5634481E-04  0.0000000E+00  0.3135767E-03
  0.4797980E+00  0.0000000E+00  0.2525252E-01  0.6156688E-04  0.0000000E+00  0.3381143E-03
  0.4898990E+00  0.0000000E+00  0.2525252E-01  0.6717837E-04  0.0000000E+00  0.3650249E-03
  0.5000000E+00  0.0000000E+00  0.2525252E-01  0.7313879E-04  0.0000000E+00  0.3944277E-03
  0.5101010E+00  0.0000000E+00  0.2525252E-01  0.7944568E-04  0.0000000E+00  0.4262988E-03
  0.5202020E+00  0.0000000E+00  0.2525252E-01  0.8626878E-04  0.0000000E+00  0.4603320E-03
  0.5303030E+00  0.0000000E+00  0.2525252E-01  0.9428509E-04  0.0000000E+00  0.4957375E-03
  0.5404040E+00  0.0000000E+00  0.2525252E-01  0.1052062E-03  0.0000000E+00  0.5310446E-03
  0.5505050E+00  0.0000000E+00  0.2525252E-01  0.1194499E-03  0.0000000E+00  0.5617050E-03
  0.5606061E+00  0.0000000E+00  0.2525252E-01  0.1271759E-03  0.0000000E+00  0.5675094E-03
  0.5707071E+00  0.0000000E+00  0.2525252E-01 -0.1808847E-03  0.0000000E+00  0.5399548E-03
  0.5808081E+00  0.0000000E+00  0.2525252E-01 -0.1676403E-03  0.0000000E+00  0.4988431E-03
  0.5909091E+00  0.0000000E+00  0.2525252E-01 -0.1282503E-03  0.0000000E+00  0.4609523E-03
  0.6010101E+00  0.0000000E+00  0.2525252E-01 -0.1018313E-03  0.0000000E+00  0.4281453E-03
  0.6111111E+00  0.0000000E+00  0.2525252E-01 -0.8416076E-04  0.0000000E+00  0.3974331E-03
  0.6212121E+00  0.0000000E+00  0.2525252E-01 -0.7192357E-04  0.0000000E+00  0.3691497E-03
  0.6313131E+00  0.0000000E+00  0.2525252E-01 -0.6303307E-04  0.0000000E+00  0.3433539E-03
  0.6414142E+00  0.0000000E+00  0.2525252E-01 -0.5624518E-04  0.0000000E+00  0.3198512E-03
  0.6515151E+00  0.0000000E+00  0.2525252E-01 -0.5082378E-04  0.0000000E+00  0.2983841E-03
  0.6616161E+00  0.0000000E+00  0.2525252E-01 -0.4632798E-04  0.0000000E+00  0.2787112E-03
  0.6717172E+00  0.0000000E+00  0.2525252E-01 -0.4248758E-04  0.0000000E+00  0.2606261E-03
  0.6818182E+00  0.0000000E+00  0.2525252E-01 -0.3913195E-04  0.0000000E+00  0.2439569E-03
  0.6919192E+00  0.0000000E+00  0.2525252E-01 -0.3614964E-04  0.0000000E+00  0.2285604E-03
  0.7020202E+00  0.0000000E+00  0.2525252E-01 -0.3346529E-04  0.0000000E+00  0.2143161E-03
  0.7121212E+00  0.0000000E+00  0.2525252E-01 -0.3102608E-04  0.0000000E+00  0.2011214E-03
  0.7222222E+00  0.0000000E+00  0.2525252E-01 -0.2879365E-04  0.0000000E+00  0.1888879E-03
  0.7323232E+00  0.0000000E+00  0.2525252E-01 -0.2673915E-04  0.0000000E+00  0.1775383E-03
  0.7424242E+00  0.0000000E+00  0.2525252E-01 -0.2484016E-04  0.0000000E+00  0.1670044E-03
  0.7525253E+00  0.0000000E+00  0.2525252E-01 -0.2307867E-04  0.0000000E+00  0.1572257E-03
  0.7626263E+00  0.0000000E+00  0.2525252E-01 -0.2143983E-04  0.0000000E+00  0.1481481E-03
  0.7727273E+00  0.0000000E+00  0.2525252E-01 -0.1991108E-04  0.0000000E+00  0.1397228E-03
  0.7828283E+00  0.0000000E+00  0.2525252E-01 -0.1848158E-04  0.0000000E+00  0.1319061E-03
  0.7929293E+00  0.0000000E+00  0.2525252E-01 -0.1714183E-04  0.0000000E+00  0.1246583E-03
  0.8030303E+00  0.0000000E+00  0.2525252E-01 -0.1588341E-04  0.0000000E+00  0.1179435E-03
  0.8131313E+00  0.0000000E+00  0.2525252E-01 -0.1469879E-04  0.0000000E+00  0.1117292E-03
  0.8232324E+00  0.0000000E+00  0.2525252E-01 -0.1358114E-04  0.0000000E+00  0.1059860E-03
  0.8333333E+00  0.0000000E+00  0.2525252E-01 -0.1252430E-04  0.0000000E+00  0.1006872E-03
  0.8434343E+00  0.0000000E+00  0.2525252E-01 -0.1152262E-04  0.0000000E+00  0.9580858E-04
  0.8535354E+00  0.0000000E+00  0.2525252E-01 -0.1057092E-04  0.0000000E+00  0.9132819E-04
  0.8636364E+00  0.0000000E+00  0.2525252E-01 -0.9664436E-05  0.0000000E+00  0.8722627E-04
  0.8737374E+00  0.0000000E+00  0.2525252E-01 -0.8798758E-05  0.0000000E+00  0.8348492E-04
  0.8838384E+00  0.0000000E+00  0.2525252E-01 -0.7969790E-05  0.0000000E+00  0.8008808E-04
  0.8939394E+00  0.0000000E+00  0.2525252E-01 -0.7173709E-05  0.0000000E+00  0.7702131E-04
  0.9040404E+00  0.0000000E+00  0.2525252E-01 -0.6406934E-05  0.0000000E+00  0.7427175E-04
  0.9141414E+00  0.0000000E+00  0.2525252E-01 -0.5666094E-05  0.0000000E+00  0.7182796E-04
  0.9242424E+00  0.0000000E+00  0.2525252E-01 -0.4948000E-05  0.0000000E+00  0.6967990E-04
  0.9343435E+00  0.0000000E+00  0.2525252E-01 -0.4249622E-05  0.0000000E+00  0.6781880E-04
  0.9444444E+00  0.0000000E+00  0.2525252E-01 -0.3568062E-05  0.0000000E+00  0.6623713E-04
  0.9545454E+00  0.0000000E+00  0.2525252E-01 -0.2900540E-05  0.0000000E+00  0.6492853E-04
  0.9646465E+00  0.0000000E+00  0.2525252E-01 -0.2244368E-05  0.0000000E+00  0.6388780E-04
  0.9747475E+00  0.0000000E+00  0.2525252E-01 -0.1596938E-05  0.0000000E+00  0.6311079E-04
  0.9848485E+00  0.0000000E+00  0.2525252E-01 -0.9557020E-06  0.0000000E+00  0.6259445E-04
  0.9974747E+00  0.0000000E+00  0.2525252E-01 -0.3181590E-06  0.0000000E+00  0.6233678E-04
  0.5050505E-02  0.0000000E+00  0.3535353E-01  0.2210690E-06  0.0000000E+00  0.3300090E-04
  0.1515152E-01  0.0000000E+00  0.3535353E-01  0.6638862E-06  0.0000000E+00  0.3312863E-04
  0.2525252E-01  0.0000000E+00  0.3535353E-01  0.1108747E-05  0.0000000E+00  0.3338448E-04
  0.3535353E-01  0.0000000E+00  0.3535353E-01  0.1557032E-05  0.0000000E+00  0.3376922E-04
  0.4545455E-01  0.0000000E+00  0.3535353E-01  0.2010140E-05  0.0000000E+00  0.3428405E-04
  0.5555556E-01  0.0000000E+00  0.3535353E-01  0.2469504E-05  0.0000000E+00  0.3493056E-04
  0.6565657E-01  0.0000000E+00  0.3535353E-01  0.2936593E-05  0.0000000E+00  0.3571077E-04
  0.7575758E-01  0.0000000E+00  0.3535353E-01  0.3412921E-05  0.0000000E+00  0.3662713E-04
  0.8585858E-01  0.0000000E+00  0.3535353E-01  0.3900061E-05  0.0000000E+00  0.3768253E-04
  0.9595960E-01  0.0000000E+00  0.3535353E-01  0.4399654E-05  0.0000000E+00  0.3888034E-04
  0.1060606E+00  0.0000000E+00  0.3535353E-01  0.4913417E-05  0.0000000E+00  0.4022440E-04
  0.1161616E+00  0.0000000E+00  0.3535353E-01  0.5443160E-05  0.0000000E+00  0.4171909E-04
  0.1262626E+00  0.0000000E+00  0.3535353E-01  0.5990796E-05  0.0000000E+00  0.4336929E-04
  0.1363636E+00  0.0000000E+00  0.3535353E-01  0.6558358E-05  0.0000000E+00  0.4518047E-04
  0.1464646E+00  0.0000000E+00  0.3535353E-01  0.7148020E-05  0.0000000E+00  0.4715873E-04
  0.1565657E+00  0.0000000E+00  0.3535353E-01  0.7762108E-05  0.0000000E+00  0.4931078E-04
  0.1666667E+00  0.0000000E+00  0.3535353E-01  0.8403131E-05  0.0000000E+00  0.5164406E-04
  0.1767677E+00  0.0000000E+00  0.3535353E-01  0.9073798E-05  0.0000000E+00  0.5416676E-04
  0.1868687E+00  0.0000000E+00  0.3535353E-01  0.9777053E-05  0.0000000E+00  0.5688787E-04
  0.1969697E+00  0.0000000E+00  0.3535353E-01  0.1051610E-04  0.0000000E+00  0.5981729E-04
  0.2070707E+00  0.0000000E+00  0.3535353E-01  0.1129446E-04  0.0000000E+00  0.6296589E-04
  0.2171717E+00  0.0000000E+00  0.3535353E-01  0.1211598E-04  0.0000000E+00  0.6634559E-04
  0.2272727E+00  0.0000000E+00  0.3535353E-01  0.1298491E-04  0.0000000E+00  0.6996948E-04
  0.2373737E+00  0.0000000E+00  0.3535353E-01  0.1390596E-04  0.0000000E+00  0.7385195E-04
  0.2474747E+00  0.0000000E+00  0.3535353E-01  0.1488437E-04  0.0000000E+00  0.7800883E-04
  0.2575758E+00  0.0000000E+00  0.3535353E-01  0.1592597E-04  0.0000000E+00  0.8245753E-04
  0.2676768E+00  0.0000000E+00  0.3535353E-01  0.1703731E-04  0.0000000E+00  0.8721724E-04
  0.2777778E+00  0.0000000E+00  0.3535353E-01  0.1822573E-04  0.0000000E+00  0.9230917E-04
  0.2878788E+00  0.0000000E+00  0.3535353E-01  0.1949953E-04  0.0000000E+00  0.9775674E-04
  0.2979798E+00  0.0000000E+00  0.3535353E-01  0.2086811E-04  0.0000000E+00  0.1035860E-03