title = "dataset water"
variables = "x", "y", "z", "vx", "vy", "vz"
zone t = "velocities, solution time =  2.700E+01 days        " i =   99, j =   99, k =    1,  f=point
  0.5050505E-02  0.0000000E+00  0.5050505E-02  0.7417017E-09  0.0000000E+00 -0.1043328E-04
  0.1515152E-01  0.0000000E+00  0.5050505E-02  0.2225620E-08  0.0000000E+00 -0.1043031E-04
  0.2525252E-01  0.0000000E+00  0.5050505E-02  0.3711066E-08  0.0000000E+00 -0.1042437E-04
  0.3535353E-01  0.0000000E+00  0.5050505E-02  0.5199023E-08  0.0000000E+00 -0.1041545E-04
  0.4545455E-01  0.0000000E+00  0.5050505E-02  0.6690422E-08  0.0000000E+00 -0.1040354E-04
  0.5555556E-01  0.0000000E+00  0.5050505E-02  0.8186121E-08  0.0000000E+00 -0.1038865E-04
  0.6565657E-01  0.0000000E+00  0.5050505E-02  0.9686878E-08  0.0000000E+00 -0.1037075E-04
  0.7575758E-01  0.0000000E+00  0.5050505E-02  0.1119333E-07  0.0000000E+00 -0.1034984E-04
  0.8585858E-01  0.0000000E+00  0.5050505E-02  0.1270598E-07  0.0000000E+00 -0.1032591E-04
  0.9595960E-01  0.0000000E+00  0.5050505E-02  0.1422515E-07  0.0000000E+00 -0.1029895E-04
  0.1060606E+00  0.0000000E+00  0.5050505E-02  0.1575097E-07  0.0000000E+00 -0.1026894E-04
  0.1161616E+00  0.0000000E+00  0.5050505E-02  0.1728335E-07  0.0000000E+00 -0.1023586E-04
  0.1262626E+00  0.0000000E+00  0.5050505E-02  0.1882194E-07  0.0000000E+00 -0.1019971E-04
  0.1363636E+00  0.0000000E+00  0.5050505E-02  0.2036611E-07  0.0000000E+00 -0.1016047E-04
  0.1464646E+00  0.0000000E+00  0.5050505E-02  0.2191490E-07  0.0000000E+00 -0.1011814E-04
  0.1565657E+00  0.0000000E+00  0.5050505E-02  0.2346702E-07  0.0000000E+00 -0.1007270E-04
  0.1666667E+00  0.0000000E+00  0.5050505E-02  0.2502074E-07  0.0000000E+00 -0.1002415E-04
  0.1767677E+00  0.0000000E+00  0.5050505E-02  0.2657395E-07  0.0000000E+00 -0.9972495E-05
  0.1868687E+00  0.0000000E+00  0.5050505E-02  0.2812401E-07  0.0000000E+00 -0.9917731E-05
  0.1969697E+00  0.0000000E+00  0.5050505E-02  0.2966777E-07  0.0000000E+00 -0.9859869E-05
  0.2070707E+00  0.0000000E+00  0.5050505E-02  0.3120150E-07  0.0000000E+00 -0.9798926E-05
  0.2171717E+00  0.0000000E+00  0.5050505E-02  0.3272082E-07  0.0000000E+00 -0.9734928E-05
  0.2272727E+00  0.0000000E+00  0.5050505E-02  0.3422066E-07  0.0000000E+00 -0.9667907E-05
  0.2373737E+00  0.0000000E+00  0.5050505E-02  0.3569519E-07  0.0000000E+00 -0.9597909E-05
  0.2474747E+00  0.0000000E+00  0.5050505E-02  0.3713775E-07  0.0000000E+00 -0.9524991E-05
  0.2575758E+00  0.0000000E+00  0.5050505E-02  0.3854080E-07  0.0000000E+00 -0.9449224E-05
  0.2676768E+00  0.0000000E+00  0.5050505E-02  0.3989584E-07  0.0000000E+00 -0.9370697E-05
  0.2777778E+00  0.0000000E+00  0.5050505E-02  0.4119334E-07  0.0000000E+00 -0.9289516E-05
  0.2878788E+00  0.0000000E+00  0.5050505E-02  0.4242268E-07  0.0000000E+00 -0.9205805E-05
  0.2979798E+00  0.0000000E+00  0.5050505E-02  0.4357212E-07  0.0000000E+00 -0.9119714E-05
  0.3080808E+00  0.0000000E+00  0.5050505E-02  0.4462872E-07  0.0000000E+00 -0.9031416E-05
  0.3181818E+00  0.0000000E+00  0.5050505E-02  0.4557832E-07  0.0000000E+00 -0.8941110E-05
  0.3282828E+00  0.0000000E+00  0.5050505E-02  0.4640555E-07  0.0000000E+00 -0.8849026E-05
  0.3383838E+00  0.0000000E+00  0.5050505E-02  0.4709384E-07  0.0000000E+00 -0.8755426E-05
  0.3484848E+00  0.0000000E+00  0.5050505E-02  0.4762549E-07  0.0000000E+00 -0.8660606E-05
  0.3585859E+00  0.0000000E+00  0.5050505E-02  0.4798178E-07  0.0000000E+00 -0.8564898E-05
  0.3686869E+00  0.0000000E+00  0.5050505E-02  0.4814315E-07  0.0000000E+00 -0.8468673E-05
  0.3787879E+00  0.0000000E+00  0.5050505E-02  0.4808943E-07  0.0000000E+00 -0.8372342E-05
  0.3888889E+00  0.0000000E+00  0.5050505E-02  0.4780017E-07  0.0000000E+00 -0.8276355E-05
  0.3989899E+00  0.0000000E+00  0.5050505E-02  0.4725506E-07  0.0000000E+00 -0.8181204E-05
  0.4090909E+00  0.0000000E+00  0.5050505E-02  0.4643448E-07  0.0000000E+00 -0.8087422E-05
  0.4191919E+00  0.0000000E+00  0.5050505E-02  0.4532005E-07  0.0000000E+00 -0.7995577E-05
  0.4292929E+00  0.0000000E+00  0.5050505E-02  0.4389540E-07  0.0000000E+00 -0.7906275E-05
  0.4393939E+00  0.0000000E+00  0.5050505E-02  0.4214694E-07  0.0000000E+00 -0.7820150E-05
  0.4494950E+00  0.0000000E+00  0.5050505E-02  0.4006472E-07  0.0000000E+00 -0.7737860E-05
  0.4595959E+00  0.0000000E+00  0.5050505E-02  0.3764333E-07  0.0000000E+00 -0.7660079E-05
  0.4696970E+00  0.0000000E+00  0.5050505E-02  0.3488274E-07  0.0000000E+00 -0.7587485E-05
  0.4797980E+00  0.0000000E+00  0.5050505E-02  0.3178910E-07  0.0000000E+00 -0.7520752E-05
  0.4898990E+00  0.0000000E+00  0.5050505E-02  0.2837540E-07  0.0000000E+00 -0.7460532E-05
  0.5000000E+00  0.0000000E+00  0.5050505E-02  0.2466192E-07  0.0000000E+00 -0.7407447E-05
  0.5101010E+00  0.0000000E+00  0.5050505E-02  0.2067638E-07  0.0000000E+00 -0.7362068E-05
  0.5202020E+00  0.0000000E+00  0.5050505E-02  0.1645384E-07  0.0000000E+00 -0.7324904E-05
  0.5303030E+00  0.0000000E+00  0.5050505E-02  0.1203617E-07  0.0000000E+00 -0.7296388E-05
  0.5404040E+00  0.0000000E+00  0.5050505E-02  0.7471242E-08  0.0000000E+00 -0.7276864E-05
  0.5505050E+00  0.0000000E+00  0.5050505E-02  0.2811694E-08  0.0000000E+00 -0.7266571E-05
  0.5606061E+00  0.0000000E+00  0.5050505E-02 -0.1886516E-08  0.0000000E+00 -0.7265645E-05
  0.5707071E+00  0.0000000E+00  0.5050505E-02 -0.6565795E-08  0.0000000E+00 -0.7274105E-05
  0.5808081E+00  0.0000000E+00  0.5050505E-02 -0.1116870E-07  0.0000000E+00 -0.7291856E-05
  0.5909091E+00  0.0000000E+00  0.5050505E-02 -0.1563972E-07  0.0000000E+00 -0.7318688E-05
  0.6010101E+00  0.0000000E+00  0.5050505E-02 -0.1992690E-07  0.0000000E+00 -0.7354287E-05
  0.6111111E+00  0.0000000E+00  0.5050505E-02 -0.2398328E-07  0.0000000E+00 -0.7398237E-05
  0.6212121E+00  0.0000000E+00  0.5050505E-02 -0.2776801E-07  0.0000000E+00 -0.7450035E-05
  0.6313131E+00  0.0000000E+00  0.5050505E-02 -0.3124719E-07  0.0000000E+00 -0.7509104E-05
  0.6414142E+00  0.0000000E+00  0.5050505E-02 -0.3439427E-07  0.0000000E+00 -0.7574806E-05
  0.6515151E+00  0.0000000E+00  0.5050505E-02 -0.3719019E-07  0.0000000E+00 -0.7646457E-05
  0.6616161E+00  0.0000000E+00  0.5050505E-02 -0.3962316E-07  0.0000000E+00 -0.7723343E-05
  0.6717172E+00  0.0000000E+00  0.5050505E-02 -0.4168822E-07  0.0000000E+00 -0.7804731E-05
  0.6818182E+00  0.0000000E+00  0.5050505E-02 -0.4338662E-07  0.0000000E+00 -0.7889887E-05
  0.6919192E+00  0.0000000E+00  0.5050505E-02 -0.4472499E-07  0.0000000E+00 -0.7978084E-05
  0.7020202E+00  0.0000000E+00  0.5050505E-02 -0.4571456E-07  0.0000000E+00 -0.8068612E-05
  0.7121212E+00  0.0000000E+00  0.5050505E-02 -0.4637025E-07  0.0000000E+00 -0.8160788E-05
  0.7222222E+00  0.0000000E+00  0.5050505E-02 -0.4670982E-07  0.0000000E+00 -0.8253962E-05
  0.7323232E+00  0.0000000E+00  0.5050505E-02 -0.4675311E-07  0.0000000E+00 -0.8347519E-05
  0.7424242E+00  0.0000000E+00  0.5050505E-02 -0.4652126E-07  0.0000000E+00 -0.8440889E-05
  0.7525253E+00  0.0000000E+00  0.5050505E-02 -0.4603615E-07  0.0000000E+00 -0.8533543E-05
  0.7626263E+00  0.0000000E+00  0.5050505E-02 -0.4531980E-07  0.0000000E+00 -0.8624994E-05
  0.7727273E+00  0.0000000E+00  0.5050505E-02 -0.4439394E-07  0.0000000E+00 -0.8714803E-05
  0.7828283E+00  0.0000000E+00  0.5050505E-02 -0.4327968E-07  0.0000000E+00 -0.8802570E-05
  0.7929293E+00  0.0000000E+00  0.5050505E-02 -0.4199719E-07  0.0000000E+00 -0.8887939E-05
  0.8030303E+00  0.0000000E+00  0.5050505E-02 -0.4056554E-07  0.0000000E+00 -0.8970592E-05
  0.8131313E+00  0.0000000E+00  0.5050505E-02 -0.3900254E-07  0.0000000E+00 -0.9050248E-05
  0.8232324E+00  0.0000000E+00  0.5050505E-02 -0.3732463E-07  0.0000000E+00 -0.9126660E-05
  0.8333333E+00  0.0000000E+00  0.5050505E-02 -0.3554692E-07  0.0000000E+00 -0.9199613E-05
  0.8434343E+00  0.0000000E+00  0.5050505E-02 -0.3368309E-07  0.0000000E+00 -0.9268921E-05
  0.8535354E+00  0.0000000E+00  0.5050505E-02 -0.3174547E-07  0.0000000E+00 -0.9334424E-05
  0.8636364E+00  0.0000000E+00  0.5050505E-02 -0.2974509E-07  0.0000000E+00 -0.9395985E-05
  0.8737374E+00  0.0000000E+00  0.5050505E-02 -0.2769172E-07  0.0000000E+00 -0.9453488E-05
  0.8838384E+00  0.0000000E+00  0.5050505E-02 -0.2559396E-07  0.0000000E+00 -0.9506836E-05
  0.8939394E+00  0.0000000E+00  0.5050505E-02 -0.2345930E-07  0.0000000E+00 -0.9555946E-05
  0.9040404E+00  0.0000000E+00  0.5050505E-02 -0.2129425E-07  0.0000000E+00 -0.9600752E-05
  0.9141414E+00  0.0000000E+00  0.5050505E-02 -0.1910438E-07  0.0000000E+00 -0.9641199E-05
  0.9242424E+00  0.0000000E+00  0.5050505E-02 -0.1689447E-07  0.0000000E+00 -0.9677240E-05
  0.9343435E+00  0.0000000E+00  0.5050505E-02 -0.1466855E-07  0.0000000E+00 -0.9708841E-05
  0.9444444E+00  0.0000000E+00  0.5050505E-02 -0.1243001E-07  0.0000000E+00 -0.9735971E-05
  0.9545454E+00  0.0000000E+00  0.5050505E-02 -0.1018172E-07  0.0000000E+00 -0.9758610E-05
  0.9646465E+00  0.0000000E+00  0.5050505E-02 -0.7926057E-08  0.0000000E+00 -0.9776740E-05
  0.9747475E+00  0.0000000E+00  0.5050505E-02 -0.5665046E-08  0.0000000E+00 -0.9790347E-05
  0.9848485E+00  0.0000000E+00  0.5050505E-02 -0.3400419E-08  0.0000000E+00 -0.9799423E-05
  0.9974747E+00  0.0000000E+00  0.5050505E-02 -0.1133704E-08  0.0000000E+00 -0.9803963E-05
  0.5050505E-02  0.0000000E+00  0.1515152E-01  0.2227287E-08  0.0000000E+00 -0.1041379E-04
  0.1515152E-01  0.0000000E+00  0.1515152E-01  0.6683420E-08  0.0000000E+00 -0.1041080E-04
  0.2525252E-01  0.0000000E+00  0.1515152E-01  0.1114418E-07  0.0000000E+00 -0.1040482E-04
  0.3535353E-01  0.0000000E+00  0.1515152E-01  0.1561256E-07  0.0000000E+00 -0.1039585E-04
  0.4545455E-01  0.0000000E+00  0.1515152E-01  0.2009138E-07  0.0000000E+00 -0.1038388E-04
  0.5555556E-01  0.0000000E+00  0.1515152E-01  0.2458324E-07  0.0000000E+00 -0.1036889E-04
  0.6565657E-01  0.0000000E+00  0.1515152E-01  0.2909045E-07  0.0000000E+00 -0.1035089E-04
  0.7575758E-01  0.0000000E+00  0.1515152E-01  0.3361497E-07  0.0000000E+00 -0.1032986E-04
  0.8585858E-01  0.0000000E+00  0.1515152E-01  0.3815831E-07  0.0000000E+00 -0.1030578E-04
  0.9595960E-01  0.0000000E+00  0.1515152E-01  0.4272151E-07  0.0000000E+00 -0.1027865E-04
  0.1060606E+00  0.0000000E+00  0.1515152E-01  0.4730497E-07  0.0000000E+00 -0.1024845E-04
  0.1161616E+00  0.0000000E+00  0.1515152E-01  0.5190846E-07  0.0000000E+00 -0.1021517E-04
  0.1262626E+00  0.0000000E+00  0.1515152E-01  0.5653098E-07  0.0000000E+00 -0.1017879E-04
  0.1363636E+00  0.0000000E+00  0.1515152E-01  0.6117068E-07  0.0000000E+00 -0.1013930E-04
  0.1464646E+00  0.0000000E+00  0.1515152E-01  0.6582473E-07  0.0000000E+00 -0.1009669E-04
  0.1565657E+00  0.0000000E+00  0.1515152E-01  0.7048927E-07  0.0000000E+00 -0.1005096E-04
  0.1666667E+00  0.0000000E+00  0.1515152E-01  0.7515923E-07  0.0000000E+00 -0.1000208E-04
  0.1767677E+00  0.0000000E+00  0.1515152E-01  0.7982823E-07  0.0000000E+00 -0.9950071E-05
  0.1868687E+00  0.0000000E+00  0.1515152E-01  0.8448847E-07  0.0000000E+00 -0.9894924E-05
  0.1969697E+00  0.0000000E+00  0.1515152E-01  0.8913053E-07  0.0000000E+00 -0.9836651E-05
  0.2070707E+00  0.0000000E+00  0.1515152E-01  0.9374326E-07  0.0000000E+00 -0.9775265E-05
  0.2171717E+00  0.0000000E+00  0.1515152E-01  0.9831359E-07  0.0000000E+00 -0.9710790E-05
  0.2272727E+00  0.0000000E+00  0.1515152E-01  0.1028264E-06  0.0000000E+00 -0.9643259E-05
  0.2373737E+00  0.0000000E+00  0.1515152E-01  0.1072641E-06  0.0000000E+00 -0.9572715E-05
  0.2474747E+00  0.0000000E+00  0.1515152E-01  0.1116069E-06  0.0000000E+00 -0.9499213E-05
  0.2575758E+00  0.0000000E+00  0.1515152E-01  0.1158323E-06  0.0000000E+00 -0.9422823E-05
  0.2676768E+00  0.0000000E+00  0.1515152E-01  0.1199146E-06  0.0000000E+00 -0.9343631E-05
  0.2777778E+00  0.0000000E+00  0.1515152E-01  0.1238254E-06  0.0000000E+00 -0.9261741E-05
  0.2878788E+00  0.0000000E+00  0.1515152E-01  0.1275328E-06  0.0000000E+00 -0.9177277E-05
  0.2979798E+00  0.0000000E+00  0.1515152E-01  0.1310016E-06  0.0000000E+00 -0.9090386E-05
  0.3080808E+00  0.0000000E+00  0.1515152E-01  0.1341929E-06  0.0000000E+00 -0.9001239E-05
  0.3181818E+00  0.0000000E+00  0.1515152E-01  0.1370642E-06  0.0000000E+00 -0.8910035E-05
  0.3282828E+00  0.0000000E+00  0.1515152E-01  0.1395692E-06  0.0000000E+00 -0.8817002E-05
  0.3383838E+00  0.0000000E+00  0.1515152E-01  0.1416581E-06  0.0000000E+00 -0.8722401E-05
  0.3484848E+00  0.0000000E+00  0.1515152E-01  0.1432776E-06  0.0000000E+00 -0.8626528E-05
  0.3585859E+00  0.0000000E+00  0.1515152E-01  0.1443711E-06  0.0000000E+00 -0.8529716E-05
  0.3686869E+00  0.0000000E+00  0.1515152E-01  0.1448797E-06  0.0000000E+00 -0.8432335E-05
  0.3787879E+00  0.0000000E+00  0.1515152E-01  0.1447422E-06  0.0000000E+00 -0.8334800E-05
  0.3888889E+00  0.0000000E+00  0.1515152E-01  0.1438969E-06  0.0000000E+00 -0.8237564E-05
  0.3989899E+00  0.0000000E+00  0.1515152E-01  0.1422821E-06  0.0000000E+00 -0.8141123E-05
  0.4090909E+00  0.0000000E+00  0.1515152E-01  0.1398381E-06  0.0000000E+00 -0.8046017E-05
  0.4191919E+00  0.0000000E+00  0.1515152E-01  0.1365088E-06  0.0000000E+00 -0.7952822E-05
  0.4292929E+00  0.0000000E+00  0.1515152E-01  0.1322443E-06  0.0000000E+00 -0.7862154E-05
  0.4393939E+00  0.0000000E+00  0.1515152E-01  0.1270027E-06  0.0000000E+00 -0.7774658E-05
  0.4494950E+00  0.0000000E+00  0.1515152E-01  0.1207531E-06  0.0000000E+00 -0.7691008E-05
  0.4595959E+00  0.0000000E+00  0.1515152E-01  0.1134784E-06  0.0000000E+00 -0.7611894E-05
  0.4696970E+00  0.0000000E+00  0.1515152E-01  0.1051776E-06  0.0000000E+00 -0.7538011E-05
  0.4797980E+00  0.0000000E+00  0.1515152E-01  0.9586855E-07  0.0000000E+00 -0.7470053E-05
  0.4898990E+00  0.0000000E+00  0.1515152E-01  0.8558974E-07  0.0000000E+00 -0.7408693E-05
  0.5000000E+00  0.0000000E+00  0.1515152E-01  0.7440193E-07  0.0000000E+00 -0.7354573E-05
  0.5101010E+00  0.0000000E+00  0.1515152E-01  0.6238863E-07  0.0000000E+00 -0.7308286E-05
  0.5202020E+00  0.0000000E+00  0.1515152E-01  0.4965571E-07  0.0000000E+00 -0.7270360E-05
  0.5303030E+00  0.0000000E+00  0.1515152E-01  0.3632999E-07  0.0000000E+00 -0.7241246E-05
  0.5404040E+00  0.0000000E+00  0.1515152E-01  0.2255656E-07  0.0000000E+00 -0.7221300E-05
  0.5505050E+00  0.0000000E+00  0.1515152E-01  0.8495227E-08  0.0000000E+00 -0.7210775E-05
  0.5606061E+00  0.0000000E+00  0.1515152E-01 -0.5684034E-08  0.0000000E+00 -0.7209810E-05
  0.5707071E+00  0.0000000E+00  0.1515152E-01 -0.1980624E-07  0.0000000E+00 -0.7218428E-05
  0.5808081E+00  0.0000000E+00  0.1515152E-01 -0.3369688E-07  0.0000000E+00 -0.7236530E-05
  0.5909091E+00  0.0000000E+00  0.1515152E-01 -0.4718735E-07  0.0000000E+00 -0.7263899E-05
  0.6010101E+00  0.0000000E+00  0.1515152E-01 -0.6011998E-07  0.0000000E+00 -0.7300209E-05
  0.6111111E+00  0.0000000E+00  0.1515152E-01 -0.7235244E-07  0.0000000E+00 -0.7345029E-05
  0.6212121E+00  0.0000000E+00  0.1515152E-01 -0.8376113E-07  0.0000000E+00 -0.7397838E-05
  0.6313131E+00  0.0000000E+00  0.1515152E-01 -0.9424366E-07  0.0000000E+00 -0.7458038E-05
  0.6414142E+00  0.0000000E+00  0.1515152E-01 -0.1037202E-06  0.0000000E+00 -0.7524971E-05
  0.6515151E+00  0.0000000E+00  0.1515152E-01 -0.1121335E-06  0.0000000E+00 -0.7597931E-05
  0.6616161E+00  0.0000000E+00  0.1515152E-01 -0.1194489E-06  0.0000000E+00 -0.7676182E-05
  0.6717172E+00  0.0000000E+00  0.1515152E-01 -0.1256520E-06  0.0000000E+00 -0.7758974E-05
  0.6818182E+00  0.0000000E+00  0.1515152E-01 -0.1307474E-06  0.0000000E+00 -0.7845553E-05
  0.6919192E+00  0.0000000E+00  0.1515152E-01 -0.1347560E-06  0.0000000E+00 -0.7935175E-05
  0.7020202E+00  0.0000000E+00  0.1515152E-01 -0.1377125E-06  0.0000000E+00 -0.8027116E-05
  0.7121212E+00  0.0000000E+00  0.1515152E-01 -0.1396627E-06  0.0000000E+00 -0.8120681E-05
  0.7222222E+00  0.0000000E+00  0.1515152E-01 -0.1406607E-06  0.0000000E+00 -0.8215208E-05
  0.7323232E+00  0.0000000E+00  0.1515152E-01 -0.1407671E-06  0.0000000E+00 -0.8310077E-05
  0.7424242E+00  0.0000000E+00  0.1515152E-01 -0.1400460E-06  0.0000000E+00 -0.8404708E-05
  0.7525253E+00  0.0000000E+00  0.1515152E-01 -0.1385638E-06  0.0000000E+00 -0.8498568E-05
  0.7626263E+00  0.0000000E+00  0.1515152E-01 -0.1363872E-06  0.0000000E+00 -0.8591168E-05
  0.7727273E+00  0.0000000E+00  0.1515152E-01 -0.1335818E-06  0.0000000E+00 -0.8682066E-05
  0.7828283E+00  0.0000000E+00  0.1515152E-01 -0.1302114E-06  0.0000000E+00 -0.8770861E-05
  0.7929293E+00  0.0000000E+00  0.1515152E-01 -0.1263368E-06  0.0000000E+00 -0.8857195E-05
  0.8030303E+00  0.0000000E+00  0.1515152E-01 -0.1220155E-06  0.0000000E+00 -0.8940752E-05
  0.8131313E+00  0.0000000E+00  0.1515152E-01 -0.1173012E-06  0.0000000E+00 -0.9021252E-05
  0.8232324E+00  0.0000000E+00  0.1515152E-01 -0.1122432E-06  0.0000000E+00 -0.9098449E-05
  0.8333333E+00  0.0000000E+00  0.1515152E-01 -0.1068869E-06  0.0000000E+00 -0.9172129E-05
  0.8434343E+00  0.0000000E+00  0.1515152E-01 -0.1012734E-06  0.0000000E+00 -0.9242109E-05
  0.8535354E+00  0.0000000E+00  0.1515152E-01 -0.9543981E-07  0.0000000E+00 -0.9308230E-05
  0.8636364E+00  0.0000000E+00  0.1515152E-01 -0.8941910E-07  0.0000000E+00 -0.9370358E-05
  0.8737374E+00  0.0000000E+00  0.1515152E-01 -0.8324055E-07  0.0000000E+00 -0.9428377E-05
  0.8838384E+00  0.0000000E+00  0.1515152E-01 -0.7692989E-07  0.0000000E+00 -0.9482193E-05
  0.8939394E+00  0.0000000E+00  0.1515152E-01 -0.7050957E-07  0.0000000E+00 -0.9531726E-05
  0.9040404E+00  0.0000000E+00  0.1515152E-01 -0.6399899E-07  0.0000000E+00 -0.9576910E-05
  0.9141414E+00  0.0000000E+00  0.1515152E-01 -0.5741484E-07  0.0000000E+00 -0.9617692E-05
  0.9242424E+00  0.0000000E+00  0.1515152E-01 -0.5077132E-07  0.0000000E+00 -0.9654028E-05
  0.9343435E+00  0.0000000E+00  0.1515152E-01 -0.4408045E-07  0.0000000E+00 -0.9685883E-05
  0.9444444E+00  0.0000000E+00  0.1515152E-01 -0.3735234E-07  0.0000000E+00 -0.9713230E-05
  0.9545454E+00  0.0000000E+00  0.1515152E-01 -0.3059544E-07  0.0000000E+00 -0.9736048E-05
  0.9646465E+00  0.0000000E+00  0.1515152E-01 -0.2381686E-07  0.0000000E+00 -0.9754319E-05
  0.9747475E+00  0.0000000E+00  0.1515152E-01 -0.1702254E-07  0.0000000E+00 -0.9768032E-05
  0.9848485E+00  0.0000000E+00  0.1515152E-01 -0.1021761E-07  0.0000000E+00 -0.9777179E-05
  0.9974747E+00  0.0000000E+00  0.1515152E-01 -0.3406544E-08  0.0000000E+00 -0.9781753E-05
  0.5050505E-02  0.0000000E+00  0.2525252E-01  0.3721574E-08  0.0000000E+00 -0.1037487E-04
  0.1515152E-01  0.0000000E+00  0.2525252E-01  0.1116737E-07  0.0000000E+00 -0.1037185E-04
  0.2525252E-01  0.0000000E+00  0.2525252E-01  0.1862106E-07  0.0000000E+00 -0.1036580E-04
  0.3535353E-01  0.0000000E+00  0.2525252E-01  0.2608770E-07  0.0000000E+00 -0.1035672E-04
  0.4545455E-01  0.0000000E+00  0.2525252E-01  0.3357212E-07  0.0000000E+00 -0.1034461E-04
  0.5555556E-01  0.0000000E+00  0.2525252E-01  0.4107878E-07  0.0000000E+00 -0.1032945E-04
  0.6565657E-01  0.0000000E+00  0.2525252E-01  0.4861163E-07  0.0000000E+00 -0.1031123E-04
  0.7575758E-01  0.0000000E+00  0.2525252E-01  0.5617405E-07  0.0000000E+00 -0.1028995E-04
  0.8585858E-01  0.0000000E+00  0.2525252E-01  0.6376869E-07  0.0000000E+00 -0.1026558E-04
  0.9595960E-01  0.0000000E+00  0.2525252E-01  0.7139736E-07  0.0000000E+00 -0.1023812E-04
  0.1060606E+00  0.0000000E+00  0.2525252E-01  0.7906089E-07  0.0000000E+00 -0.1020755E-04
  0.1161616E+00  0.0000000E+00  0.2525252E-01  0.8675902E-07  0.0000000E+00 -0.1017386E-04
  0.1262626E+00  0.0000000E+00  0.2525252E-01  0.9449021E-07  0.0000000E+00 -0.1013702E-04
  0.1363636E+00  0.0000000E+00  0.2525252E-01  0.1022515E-06  0.0000000E+00 -0.1009703E-04
  0.1464646E+00  0.0000000E+00  0.2525252E-01  0.1100383E-06  0.0000000E+00 -0.1005387E-04
  0.1565657E+00  0.0000000E+00  0.2525252E-01  0.1178444E-06  0.0000000E+00 -0.1000753E-04
  0.1666667E+00  0.0000000E+00  0.2525252E-01  0.1256614E-06  0.0000000E+00 -0.9958000E-05
  0.1767677E+00  0.0000000E+00  0.2525252E-01  0.1334789E-06  0.0000000E+00 -0.9905281E-05
  0.1868687E+00  0.0000000E+00  0.2525252E-01  0.1412840E-06  0.0000000E+00 -0.9849370E-05
  0.1969697E+00  0.0000000E+00  0.2525252E-01  0.1490611E-06  0.0000000E+00 -0.9790272E-05
  0.2070707E+00  0.0000000E+00  0.2525252E-01  0.1567920E-06  0.0000000E+00 -0.9728000E-05
  0.2171717E+00  0.0000000E+00  0.2525252E-01  0.1644548E-06  0.0000000E+00 -0.9662573E-05
  0.2272727E+00  0.0000000E+00  0.2525252E-01  0.1720246E-06  0.0000000E+00 -0.9594021E-05
  0.2373737E+00  0.0000000E+00  0.2525252E-01  0.1794724E-06  0.0000000E+00 -0.9522383E-05
  0.2474747E+00  0.0000000E+00  0.2525252E-01  0.1867652E-06  0.0000000E+00 -0.9447711E-05
  0.2575758E+00  0.0000000E+00  0.2525252E-01  0.1938654E-06  0.0000000E+00 -0.9370073E-05
  0.2676768E+00  0.0000000E+00  0.2525252E-01  0.2007307E-06  0.0000000E+00 -0.9289549E-05
  0.2777778E+00  0.0000000E+00  0.2525252E-01  0.2073135E-06  0.0000000E+00 -0.9206241E-05
  0.2878788E+00  0.0000000E+00  0.2525252E-01  0.2135609E-06  0.0000000E+00 -0.9120268E-05
  0.2979798E+00  0.0000000E+00  0.2525252E-01  0.2194139E-06  0.0000000E+00 -0.9031775E-05
  0.3080808E+00  0.0000000E+00  0.2525252E-01  0.2248077E-06  0.0000000E+00 -0.8940928E-05
  0.3181818E+00  0.0000000E+00  0.2525252E-01  0.2296711E-06  0.0000000E+00 -0.8847923E-05
  0.3282828E+00  0.0000000E+00  0.2525252E-01  0.2339267E-06  0.0000000E+00 -0.8752987E-05
  0.3383838E+00  0.0000000E+00  0.2525252E-01  0.2374907E-06  0.0000000E+00 -0.8656379E-05
  0.3484848E+00  0.0000000E+00  0.2525252E-01  0.2402736E-06  0.0000000E+00 -0.8558394E-05
  0.3585859E+00  0.0000000E+00  0.2525252E-01  0.2421800E-06  0.0000000E+00 -0.8459364E-05
  0.3686869E+00  0.0000000E+00  0.2525252E-01  0.2431103E-06  0.0000000E+00 -0.8359664E-05
  0.3787879E+00  0.0000000E+00  0.2525252E-01  0.2429610E-06  0.0000000E+00 -0.8259709E-05
  0.3888889E+00  0.0000000E+00  0.2525252E-01  0.2416271E-06  0.0000000E+00 -0.8159962E-05
  0.3989899E+00  0.0000000E+00  0.2525252E-01  0.2390034E-06  0.0000000E+00 -0.8060928E-05
  0.4090909E+00  0.0000000E+00  0.2525252E-01  0.2349878E-06  0.0000000E+00 -0.7963156E-05
  0.4191919E+00  0.0000000E+00  0.2525252E-01  0.2294838E-06  0.0000000E+00 -0.7867242E-05
  0.4292929E+00  0.0000000E+00  0.2525252E-01  0.2224046E-06  0.0000000E+00 -0.7773819E-05
  0.4393939E+00  0.0000000E+00  0.2525252E-01  0.2136772E-06  0.0000000E+00 -0.7683560E-05
  0.4494950E+00  0.0000000E+00  0.2525252E-01  0.2032467E-06  0.0000000E+00 -0.7597164E-05
  0.4595959E+00  0.0000000E+00  0.2525252E-01  0.1910809E-06  0.0000000E+00 -0.7515354E-05
  0.4696970E+00  0.0000000E+00  0.2525252E-01  0.1771755E-06  0.0000000E+00 -0.7438864E-05
  0.4797980E+00  0.0000000E+00  0.2525252E-01  0.1615577E-06  0.0000000E+00 -0.7368426E-05
  0.4898990E+00  0.0000000E+00  0.2525252E-01  0.1442905E-06  0.0000000E+00 -0.7304756E-05
  0.5000000E+00  0.0000000E+00  0.2525252E-01  0.1254749E-06  0.0000000E+00 -0.7248539E-05
  0.5101010E+00  0.0000000E+00  0.2525252E-01  0.1052510E-06  0.0000000E+00 -0.7200410E-05
  0.5202020E+00  0.0000000E+00  0.2525252E-01  0.8379794E-07  0.0000000E+00 -0.7160937E-05
  0.5303030E+00  0.0000000E+00  0.2525252E-01  0.6133097E-07  0.0000000E+00 -0.7130606E-05
  0.5404040E+00  0.0000000E+00  0.2525252E-01  0.3809731E-07  0.0000000E+00 -0.7109803E-05
  0.5505050E+00  0.0000000E+00  0.2525252E-01  0.1436980E-07  0.0000000E+00 -0.7098804E-05
  0.5606061E+00  0.0000000E+00  0.2525252E-01 -0.9561004E-08  0.0000000E+00 -0.7097760E-05
  0.5707071E+00  0.0000000E+00  0.2525252E-01 -0.3339576E-07  0.0000000E+00 -0.7106699E-05
  0.5808081E+00  0.0000000E+00  0.2525252E-01 -0.5683600E-07  0.0000000E+00 -0.7125514E-05
  0.5909091E+00  0.0000000E+00  0.2525252E-01 -0.7959356E-07  0.0000000E+00 -0.7153973E-05
  0.6010101E+00  0.0000000E+00  0.2525252E-01 -0.1013994E-06  0.0000000E+00 -0.7191727E-05
  0.6111111E+00  0.0000000E+00  0.2525252E-01 -0.1220113E-06  0.0000000E+00 -0.7238311E-05
  0.6212121E+00  0.0000000E+00  0.2525252E-01 -0.1412194E-06  0.0000000E+00 -0.7293169E-05
  0.6313131E+00  0.0000000E+00  0.2525252E-01 -0.1588509E-06  0.0000000E+00 -0.7355661E-05
  0.6414142E+00  0.0000000E+00  0.2525252E-01 -0.1747718E-06  0.0000000E+00 -0.7425086E-05
  0.6515151E+00  0.0000000E+00  0.2525252E-01 -0.1888873E-06  0.0000000E+00 -0.7500693E-05
  0.6616161E+00  0.0000000E+00  0.2525252E-01 -0.2011407E-06  0.0000000E+00 -0.7581707E-05
  0.6717172E+00  0.0000000E+00  0.2525252E-01 -0.2115107E-06  0.0000000E+00 -0.7667334E-05
  0.6818182E+00  0.0000000E+00  0.2525252E-01 -0.2200077E-06  0.0000000E+00 -0.7756784E-05
  0.6919192E+00  0.0000000E+00  0.2525252E-01 -0.2266698E-06  0.0000000E+00 -0.7849280E-05
  0.7020202E+00  0.0000000E+00  0.2525252E-01 -0.2315583E-06  0.0000000E+00 -0.7944068E-05
  0.7121212E+00  0.0000000E+00  0.2525252E-01 -0.2347530E-06  0.0000000E+00 -0.8040430E-05
  0.7222222E+00  0.0000000E+00  0.2525252E-01 -0.2363475E-06  0.0000000E+00 -0.8137682E-05
  0.7323232E+00  0.0000000E+00  0.2525252E-01 -0.2364455E-06  0.0000000E+00 -0.8235187E-05
  0.7424242E+00  0.0000000E+00  0.2525252E-01 -0.2351570E-06  0.0000000E+00 -0.8332354E-05
  0.7525253E+00  0.0000000E+00  0.2525252E-01 -0.2325948E-06  0.0000000E+00 -0.8428638E-05
  0.7626263E+00  0.0000000E+00  0.2525252E-01 -0.2288723E-06  0.0000000E+00 -0.8523545E-05
  0.7727273E+00  0.0000000E+00  0.2525252E-01 -0.2241007E-06  0.0000000E+00 -0.8616627E-05
  0.7828283E+00  0.0000000E+00  0.2525252E-01 -0.2183875E-06  0.0000000E+00 -0.8707483E-05
  0.7929293E+00  0.0000000E+00  0.2525252E-01 -0.2118355E-06  0.0000000E+00 -0.8795754E-05
  0.8030303E+00  0.0000000E+00  0.2525252E-01 -0.2045411E-06  0.0000000E+00 -0.8881124E-05
  0.8131313E+00  0.0000000E+00  0.2525252E-01 -0.1965943E-06  0.0000000E+00 -0.8963315E-05
  0.8232324E+00  0.0000000E+00  0.2525252E-01 -0.1880782E-06  0.0000000E+00 -0.9042084E-05
  0.8333333E+00  0.0000000E+00  0.2525252E-01 -0.1790686E-06  0.0000000E+00 -0.9117221E-05
  0.8434343E+00  0.0000000E+00  0.2525252E-01 -0.1696341E-06  0.0000000E+00 -0.9188546E-05
  0.8535354E+00  0.0000000E+00  0.2525252E-01 -0.1598366E-06  0.0000000E+00 -0.9255904E-05
  0.8636364E+00  0.0000000E+00  0.2525252E-01 -0.1497309E-06  0.0000000E+00 -0.9319165E-05
  0.8737374E+00  0.0000000E+00  0.2525252E-01 -0.1393658E-06  0.0000000E+00 -0.9378218E-05
  0.8838384E+00  0.0000000E+00  0.2525252E-01 -0.1287841E-06  0.0000000E+00 -0.9432972E-05
  0.8939394E+00  0.0000000E+00  0.2525252E-01 -0.1180228E-06  0.0000000E+00 -0.9483350E-05
  0.9040404E+00  0.0000000E+00  0.2525252E-01 -0.1071142E-06  0.0000000E+00 -0.9529291E-05
  0.9141414E+00  0.0000000E+00  0.2525252E-01 -0.9608576E-07  0.0000000E+00 -0.9570744E-05
  0.9242424E+00  0.0000000E+00  0.2525252E-01 -0.8496087E-07  0.0000000E+00 -0.9607669E-05
  0.9343435E+00  0.0000000E+00  0.2525252E-01 -0.7375929E-07  0.0000000E+00 -0.9640034E-05
  0.9444444E+00  0.0000000E+00  0.2525252E-01 -0.6249757E-07  0.0000000E+00 -0.9667813E-05
  0.9545454E+00  0.0000000E+00  0.2525252E-01 -0.5118954E-07  0.0000000E+00 -0.9690988E-05
  0.9646465E+00  0.0000000E+00  0.2525252E-01 -0.3984669E-07  0.0000000E+00 -0.9709542E-05
  0.9747475E+00  0.0000000E+00  0.2525252E-01 -0.2847868E-07  0.0000000E+00 -0.9723467E-05
  0.9848485E+00  0.0000000E+00  0.2525252E-01 -0.1709371E-07  0.0000000E+00 -0.9732754E-05
  0.9974747E+00  0.0000000E+00  0.2525252E-01 -0.5698974E-08  0.0000000E+00 -0.9737398E-05
  0.5050505E-02  0.0000000E+00  0.3535353E-01  0.5233239E-08  0.0000000E+00 -0.1031663E-04
  0.1515152E-01  0.0000000E+00  0.3535353E-01  0.1570354E-07  0.0000000E+00 -0.1031356E-04
  0.2525252E-01  0.0000000E+00  0.3535353E-01  0.2618523E-07  0.0000000E+00 -0.1030740E-04
  0.3535353E-01  0.0000000E+00  0.3535353E-01  0.3668564E-07  0.0000000E+00 -0.1029817E-04
  0.4545455E-01  0.0000000E+00  0.3535353E-01  0.4721177E-07  0.0000000E+00 -0.1028584E-04
  0.5555556E-01  0.0000000E+00  0.3535353E-01  0.5777008E-07  0.0000000E+00 -0.1027041E-04
  0.6565657E-01  0.0000000E+00  0.3535353E-01  0.6836635E-07  0.0000000E+00 -0.1025188E-04
  0.7575758E-01  0.0000000E+00  0.3535353E-01  0.7900556E-07  0.0000000E+00 -0.1023022E-04
  0.8585858E-01  0.0000000E+00  0.3535353E-01  0.8969167E-07  0.0000000E+00 -0.1020542E-04
  0.9595960E-01  0.0000000E+00  0.3535353E-01  0.1004275E-06  0.0000000E+00 -0.1017746E-04
  0.1060606E+00  0.0000000E+00  0.3535353E-01  0.1112144E-06  0.0000000E+00 -0.1014633E-04
  0.1161616E+00  0.0000000E+00  0.3535353E-01  0.1220523E-06  0.0000000E+00 -0.1011202E-04
  0.1262626E+00  0.0000000E+00  0.3535353E-01  0.1329393E-06  0.0000000E+00 -0.1007449E-04
  0.1363636E+00  0.0000000E+00  0.3535353E-01  0.1438716E-06  0.0000000E+00 -0.1003374E-04
  0.1464646E+00  0.0000000E+00  0.3535353E-01  0.1548431E-06  0.0000000E+00 -0.9989757E-05
  0.1565657E+00  0.0000000E+00  0.3535353E-01  0.1658452E-06  0.0000000E+00 -0.9942514E-05
  0.1666667E+00  0.0000000E+00  0.3535353E-01  0.1768666E-06  0.0000000E+00 -0.9892007E-05
  0.1767677E+00  0.0000000E+00  0.3535353E-01  0.1878931E-06  0.0000000E+00 -0.9838225E-05
  0.1868687E+00  0.0000000E+00  0.3535353E-01  0.1989069E-06  0.0000000E+00 -0.9781166E-05
  0.1969697E+00  0.0000000E+00  0.3535353E-01  0.2098865E-06  0.0000000E+00 -0.9720830E-05
  0.2070707E+00  0.0000000E+00  0.3535353E-01  0.2208066E-06  0.0000000E+00 -0.9657226E-05
  0.2171717E+00  0.0000000E+00  0.3535353E-01  0.2316372E-06  0.0000000E+00 -0.9590368E-05
  0.2272727E+00  0.0000000E+00  0.3535353E-01  0.2423435E-06  0.0000000E+00 -0.9520281E-05
  0.2373737E+00  0.0000000E+00  0.3535353E-01  0.2528853E-06  0.0000000E+00 -0.9446999E-05
  0.2474747E+00  0.0000000E+00  0.3535353E-01  0.2632165E-06  0.0000000E+00 -0.9370571E-05
  0.2575758E+00  0.0000000E+00  0.3535353E-01  0.2732850E-06  0.0000000E+00 -0.9291055E-05
  0.2676768E+00  0.0000000E+00  0.3535353E-01  0.2830316E-06  0.0000000E+00 -0.9208529E-05
  0.2777778E+00  0.0000000E+00  0.3535353E-01  0.2923898E-06  0.0000000E+00 -0.9123088E-05
  0.2878788E+00  0.0000000E+00  0.3535353E-01  0.3012855E-06  0.0000000E+00 -0.9034846E-05
  0.2979798E+00  0.0000000E+00  0.3535353E-01  0.3096360E-06  0.0000000E+00 -0.8943941E-05