title = "dataset water"
variables = "x", "y", "z", "vx", "vy", "vz"
zone t = "velocities, solution time =  1.800E+01 days        " i =   99, j =   99, k =    1,  f=point
  0.5050505E-02  0.0000000E+00  0.5050505E-02  0.2663733E-10  0.0000000E+00 -0.2139584E-04
  0.1515152E-01  0.0000000E+00  0.5050505E-02  0.7988548E-10  0.0000000E+00 -0.2139573E-04
  0.2525252E-01  0.0000000E+00  0.5050505E-02  0.1330423E-09  0.0000000E+00 -0.2139552E-04
  0.3535353E-01  0.0000000E+00  0.5050505E-02  0.1860437E-09  0.0000000E+00 -0.2139520E-04
  0.4545455E-01  0.0000000E+00  0.5050505E-02  0.2388245E-09  0.0000000E+00 -0.2139477E-04
  0.5555556E-01  0.0000000E+00  0.5050505E-02  0.2913157E-09  0.0000000E+00 -0.2139424E-04
  0.6565657E-01  0.0000000E+00  0.5050505E-02  0.3434439E-09  0.0000000E+00 -0.2139360E-04
  0.7575758E-01  0.0000000E+00  0.5050505E-02  0.3951302E-09  0.0000000E+00 -0.2139286E-04
  0.8585858E-01  0.0000000E+00  0.5050505E-02  0.4462896E-09  0.0000000E+00 -0.2139202E-04
  0.9595960E-01  0.0000000E+00  0.5050505E-02  0.4968303E-09  0.0000000E+00 -0.2139108E-04
  0.1060606E+00  0.0000000E+00  0.5050505E-02  0.5466527E-09  0.0000000E+00 -0.2139003E-04
  0.1161616E+00  0.0000000E+00  0.5050505E-02  0.5956489E-09  0.0000000E+00 -0.2138888E-04
  0.1262626E+00  0.0000000E+00  0.5050505E-02  0.6437022E-09  0.0000000E+00 -0.2138764E-04
  0.1363636E+00  0.0000000E+00  0.5050505E-02  0.6906870E-09  0.0000000E+00 -0.2138630E-04
  0.1464646E+00  0.0000000E+00  0.5050505E-02  0.7364678E-09  0.0000000E+00 -0.2138487E-04
  0.1565657E+00  0.0000000E+00  0.5050505E-02  0.7808999E-09  0.0000000E+00 -0.2138335E-04
  0.1666667E+00  0.0000000E+00  0.5050505E-02  0.8238288E-09  0.0000000E+00 -0.2138174E-04
  0.1767677E+00  0.0000000E+00  0.5050505E-02  0.8650906E-09  0.0000000E+00 -0.2138005E-04
  0.1868687E+00  0.0000000E+00  0.5050505E-02  0.9045125E-09  0.0000000E+00 -0.2137827E-04
  0.1969697E+00  0.0000000E+00  0.5050505E-02  0.9419131E-09  0.0000000E+00 -0.2137642E-04
  0.2070707E+00  0.0000000E+00  0.5050505E-02  0.9771032E-09  0.0000000E+00 -0.2137450E-04
  0.2171717E+00  0.0000000E+00  0.5050505E-02  0.1009887E-08  0.0000000E+00 -0.2137251E-04
  0.2272727E+00  0.0000000E+00  0.5050505E-02  0.1040063E-08  0.0000000E+00 -0.2137045E-04
  0.2373737E+00  0.0000000E+00  0.5050505E-02  0.1067425E-08  0.0000000E+00 -0.2136834E-04
  0.2474747E+00  0.0000000E+00  0.5050505E-02  0.1091766E-08  0.0000000E+00 -0.2136617E-04
  0.2575758E+00  0.0000000E+00  0.5050505E-02  0.1112876E-08  0.0000000E+00 -0.2136396E-04
  0.2676768E+00  0.0000000E+00  0.5050505E-02  0.1130548E-08  0.0000000E+00 -0.2136171E-04
  0.2777778E+00  0.0000000E+00  0.5050505E-02  0.1144577E-08  0.0000000E+00 -0.2135943E-04
  0.2878788E+00  0.0000000E+00  0.5050505E-02  0.1154765E-08  0.0000000E+00 -0.2135713E-04
  0.2979798E+00  0.0000000E+00  0.5050505E-02  0.1160924E-08  0.0000000E+00 -0.2135481E-04
  0.3080808E+00  0.0000000E+00  0.5050505E-02  0.1162876E-08  0.0000000E+00 -0.2135248E-04
  0.3181818E+00  0.0000000E+00  0.5050505E-02  0.1160457E-08  0.0000000E+00 -0.2135015E-04
  0.3282828E+00  0.0000000E+00  0.5050505E-02  0.1153521E-08  0.0000000E+00 -0.2134783E-04
  0.3383838E+00  0.0000000E+00  0.5050505E-02  0.1141942E-08  0.0000000E+00 -0.2134553E-04
  0.3484848E+00  0.0000000E+00  0.5050505E-02  0.1125619E-08  0.0000000E+00 -0.2134325E-04
  0.3585859E+00  0.0000000E+00  0.5050505E-02  0.1104475E-08  0.0000000E+00 -0.2134102E-04
  0.3686869E+00  0.0000000E+00  0.5050505E-02  0.1078462E-08  0.0000000E+00 -0.2133883E-04
  0.3787879E+00  0.0000000E+00  0.5050505E-02  0.1047566E-08  0.0000000E+00 -0.2133670E-04
  0.3888889E+00  0.0000000E+00  0.5050505E-02  0.1011805E-08  0.0000000E+00 -0.2133463E-04
  0.3989899E+00  0.0000000E+00  0.5050505E-02  0.9712329E-09  0.0000000E+00 -0.2133264E-04
  0.4090909E+00  0.0000000E+00  0.5050505E-02  0.9259416E-09  0.0000000E+00 -0.2133074E-04
  0.4191919E+00  0.0000000E+00  0.5050505E-02  0.8760618E-09  0.0000000E+00 -0.2132893E-04
  0.4292929E+00  0.0000000E+00  0.5050505E-02  0.8217636E-09  0.0000000E+00 -0.2132723E-04
  0.4393939E+00  0.0000000E+00  0.5050505E-02  0.7632567E-09  0.0000000E+00 -0.2132564E-04
  0.4494950E+00  0.0000000E+00  0.5050505E-02  0.7007900E-09  0.0000000E+00 -0.2132417E-04
  0.4595959E+00  0.0000000E+00  0.5050505E-02  0.6346509E-09  0.0000000E+00 -0.2132284E-04
  0.4696970E+00  0.0000000E+00  0.5050505E-02  0.5651631E-09  0.0000000E+00 -0.2132163E-04
  0.4797980E+00  0.0000000E+00  0.5050505E-02  0.4926849E-09  0.0000000E+00 -0.2132057E-04
  0.4898990E+00  0.0000000E+00  0.5050505E-02  0.4176066E-09  0.0000000E+00 -0.2131966E-04
  0.5000000E+00  0.0000000E+00  0.5050505E-02  0.3403464E-09  0.0000000E+00 -0.2131890E-04
  0.5101010E+00  0.0000000E+00  0.5050505E-02  0.2613473E-09  0.0000000E+00 -0.2131830E-04
  0.5202020E+00  0.0000000E+00  0.5050505E-02  0.1810725E-09  0.0000000E+00 -0.2131785E-04
  0.5303030E+00  0.0000000E+00  0.5050505E-02  0.1000008E-09  0.0000000E+00 -0.2131757E-04
  0.5404040E+00  0.0000000E+00  0.5050505E-02  0.1862151E-10  0.0000000E+00 -0.2131745E-04
  0.5505050E+00  0.0000000E+00  0.5050505E-02 -0.6257037E-10  0.0000000E+00 -0.2131750E-04
  0.5606061E+00  0.0000000E+00  0.5050505E-02 -0.1430797E-09  0.0000000E+00 -0.2131770E-04
  0.5707071E+00  0.0000000E+00  0.5050505E-02 -0.2224166E-09  0.0000000E+00 -0.2131807E-04
  0.5808081E+00  0.0000000E+00  0.5050505E-02 -0.3001009E-09  0.0000000E+00 -0.2131859E-04
  0.5909091E+00  0.0000000E+00  0.5050505E-02 -0.3756681E-09  0.0000000E+00 -0.2131927E-04
  0.6010101E+00  0.0000000E+00  0.5050505E-02 -0.4486731E-09  0.0000000E+00 -0.2132010E-04
  0.6111111E+00  0.0000000E+00  0.5050505E-02 -0.5186952E-09  0.0000000E+00 -0.2132107E-04
  0.6212121E+00  0.0000000E+00  0.5050505E-02 -0.5853416E-09  0.0000000E+00 -0.2132217E-04
  0.6313131E+00  0.0000000E+00  0.5050505E-02 -0.6482509E-09  0.0000000E+00 -0.2132341E-04
  0.6414142E+00  0.0000000E+00  0.5050505E-02 -0.7070958E-09  0.0000000E+00 -0.2132477E-04
  0.6515151E+00  0.0000000E+00  0.5050505E-02 -0.7615855E-09  0.0000000E+00 -0.2132624E-04
  0.6616161E+00  0.0000000E+00  0.5050505E-02 -0.8114672E-09  0.0000000E+00 -0.2132782E-04
  0.6717172E+00  0.0000000E+00  0.5050505E-02 -0.8565273E-09  0.0000000E+00 -0.2132949E-04
  0.6818182E+00  0.0000000E+00  0.5050505E-02 -0.8965918E-09  0.0000000E+00 -0.2133125E-04
  0.6919192E+00  0.0000000E+00  0.5050505E-02 -0.9315261E-09  0.0000000E+00 -0.2133308E-04
  0.7020202E+00  0.0000000E+00  0.5050505E-02 -0.9612346E-09  0.0000000E+00 -0.2133498E-04
  0.7121212E+00  0.0000000E+00  0.5050505E-02 -0.9856592E-09  0.0000000E+00 -0.2133693E-04
  0.7222222E+00  0.0000000E+00  0.5050505E-02 -0.1004779E-08  0.0000000E+00 -0.2133893E-04
  0.7323232E+00  0.0000000E+00  0.5050505E-02 -0.1018605E-08  0.0000000E+00 -0.2134096E-04
  0.7424242E+00  0.0000000E+00  0.5050505E-02 -0.1027185E-08  0.0000000E+00 -0.2134301E-04
  0.7525253E+00  0.0000000E+00  0.5050505E-02 -0.1030592E-08  0.0000000E+00 -0.2134507E-04
  0.7626263E+00  0.0000000E+00  0.5050505E-02 -0.1028928E-08  0.0000000E+00 -0.2134713E-04
  0.7727273E+00  0.0000000E+00  0.5050505E-02 -0.1022321E-08  0.0000000E+00 -0.2134919E-04
  0.7828283E+00  0.0000000E+00  0.5050505E-02 -0.1010917E-08  0.0000000E+00 -0.2135123E-04
  0.7929293E+00  0.0000000E+00  0.5050505E-02 -0.9948857E-09  0.0000000E+00 -0.2135324E-04
  0.8030303E+00  0.0000000E+00  0.5050505E-02 -0.9744088E-09  0.0000000E+00 -0.2135522E-04
  0.8131313E+00  0.0000000E+00  0.5050505E-02 -0.9496836E-09  0.0000000E+00 -0.2135714E-04
  0.8232324E+00  0.0000000E+00  0.5050505E-02 -0.9209182E-09  0.0000000E+00 -0.2135902E-04
  0.8333333E+00  0.0000000E+00  0.5050505E-02 -0.8883289E-09  0.0000000E+00 -0.2136083E-04
  0.8434343E+00  0.0000000E+00  0.5050505E-02 -0.8521389E-09  0.0000000E+00 -0.2136258E-04
  0.8535354E+00  0.0000000E+00  0.5050505E-02 -0.8125756E-09  0.0000000E+00 -0.2136425E-04
  0.8636364E+00  0.0000000E+00  0.5050505E-02 -0.7698693E-09  0.0000000E+00 -0.2136583E-04
  0.8737374E+00  0.0000000E+00  0.5050505E-02 -0.7242513E-09  0.0000000E+00 -0.2136733E-04
  0.8838384E+00  0.0000000E+00  0.5050505E-02 -0.6759530E-09  0.0000000E+00 -0.2136874E-04
  0.8939394E+00  0.0000000E+00  0.5050505E-02 -0.6252045E-09  0.0000000E+00 -0.2137004E-04
  0.9040404E+00  0.0000000E+00  0.5050505E-02 -0.5722339E-09  0.0000000E+00 -0.2137124E-04
  0.9141414E+00  0.0000000E+00  0.5050505E-02 -0.5172665E-09  0.0000000E+00 -0.2137233E-04
  0.9242424E+00  0.0000000E+00  0.5050505E-02 -0.4605249E-09  0.0000000E+00 -0.2137331E-04
  0.9343435E+00  0.0000000E+00  0.5050505E-02 -0.4022279E-09  0.0000000E+00 -0.2137418E-04
  0.9444444E+00  0.0000000E+00  0.5050505E-02 -0.3425913E-09  0.0000000E+00 -0.2137493E-04
  0.9545454E+00  0.0000000E+00  0.5050505E-02 -0.2818275E-09  0.0000000E+00 -0.2137555E-04
  0.9646465E+00  0.0000000E+00  0.5050505E-02 -0.2201460E-09  0.0000000E+00 -0.2137606E-04
  0.9747475E+00  0.0000000E+00  0.5050505E-02 -0.1577536E-09  0.0000000E+00 -0.2137643E-04
  0.9848485E+00  0.0000000E+00  0.5050505E-02 -0.9485517E-10  0.0000000E+00 -0.2137669E-04
  0.9974747E+00  0.0000000E+00  0.5050505E-02 -0.3165393E-10  0.0000000E+00 -0.2137681E-04
  0.5050505E-02  0.0000000E+00  0.1515152E-01  0.8012157E-10  0.0000000E+00 -0.2134666E-04
  0.1515152E-01  0.0000000E+00  0.1515152E-01  0.2402831E-09  0.0000000E+00 -0.2134655E-04
  0.2525252E-01  0.0000000E+00  0.1515152E-01  0.4001718E-09  0.0000000E+00 -0.2134634E-04
  0.3535353E-01  0.0000000E+00  0.1515152E-01  0.5595963E-09  0.0000000E+00 -0.2134601E-04
  0.4545455E-01  0.0000000E+00  0.1515152E-01  0.7183612E-09  0.0000000E+00 -0.2134558E-04
  0.5555556E-01  0.0000000E+00  0.1515152E-01  0.8762601E-09  0.0000000E+00 -0.2134505E-04
  0.6565657E-01  0.0000000E+00  0.1515152E-01  0.1033073E-08  0.0000000E+00 -0.2134440E-04
  0.7575758E-01  0.0000000E+00  0.1515152E-01  0.1188564E-08  0.0000000E+00 -0.2134365E-04
  0.8585858E-01  0.0000000E+00  0.1515152E-01  0.1342479E-08  0.0000000E+00 -0.2134280E-04
  0.9595960E-01  0.0000000E+00  0.1515152E-01  0.1494541E-08  0.0000000E+00 -0.2134185E-04
  0.1060606E+00  0.0000000E+00  0.1515152E-01  0.1644452E-08  0.0000000E+00 -0.2134079E-04
  0.1161616E+00  0.0000000E+00  0.1515152E-01  0.1791889E-08  0.0000000E+00 -0.2133963E-04
  0.1262626E+00  0.0000000E+00  0.1515152E-01  0.1936501E-08  0.0000000E+00 -0.2133837E-04
  0.1363636E+00  0.0000000E+00  0.1515152E-01  0.2077910E-08  0.0000000E+00 -0.2133702E-04
  0.1464646E+00  0.0000000E+00  0.1515152E-01  0.2215710E-08  0.0000000E+00 -0.2133557E-04
  0.1565657E+00  0.0000000E+00  0.1515152E-01  0.2349465E-08  0.0000000E+00 -0.2133403E-04
  0.1666667E+00  0.0000000E+00  0.1515152E-01  0.2478710E-08  0.0000000E+00 -0.2133241E-04
  0.1767677E+00  0.0000000E+00  0.1515152E-01  0.2602953E-08  0.0000000E+00 -0.2133069E-04
  0.1868687E+00  0.0000000E+00  0.1515152E-01  0.2721673E-08  0.0000000E+00 -0.2132890E-04
  0.1969697E+00  0.0000000E+00  0.1515152E-01  0.2834324E-08  0.0000000E+00 -0.2132702E-04
  0.2070707E+00  0.0000000E+00  0.1515152E-01  0.2940337E-08  0.0000000E+00 -0.2132508E-04
  0.2171717E+00  0.0000000E+00  0.1515152E-01  0.3039121E-08  0.0000000E+00 -0.2132306E-04
  0.2272727E+00  0.0000000E+00  0.1515152E-01  0.3130068E-08  0.0000000E+00 -0.2132098E-04
  0.2373737E+00  0.0000000E+00  0.1515152E-01  0.3212560E-08  0.0000000E+00 -0.2131884E-04
  0.2474747E+00  0.0000000E+00  0.1515152E-01  0.3285967E-08  0.0000000E+00 -0.2131665E-04
  0.2575758E+00  0.0000000E+00  0.1515152E-01  0.3349659E-08  0.0000000E+00 -0.2131441E-04
  0.2676768E+00  0.0000000E+00  0.1515152E-01  0.3403010E-08  0.0000000E+00 -0.2131213E-04
  0.2777778E+00  0.0000000E+00  0.1515152E-01  0.3445403E-08  0.0000000E+00 -0.2130982E-04
  0.2878788E+00  0.0000000E+00  0.1515152E-01  0.3476240E-08  0.0000000E+00 -0.2130749E-04
  0.2979798E+00  0.0000000E+00  0.1515152E-01  0.3494950E-08  0.0000000E+00 -0.2130513E-04
  0.3080808E+00  0.0000000E+00  0.1515152E-01  0.3500994E-08  0.0000000E+00 -0.2130277E-04
  0.3181818E+00  0.0000000E+00  0.1515152E-01  0.3493879E-08  0.0000000E+00 -0.2130041E-04
  0.3282828E+00  0.0000000E+00  0.1515152E-01  0.3473162E-08  0.0000000E+00 -0.2129806E-04
  0.3383838E+00  0.0000000E+00  0.1515152E-01  0.3438462E-08  0.0000000E+00 -0.2129573E-04
  0.3484848E+00  0.0000000E+00  0.1515152E-01  0.3389468E-08  0.0000000E+00 -0.2129342E-04
  0.3585859E+00  0.0000000E+00  0.1515152E-01  0.3325948E-08  0.0000000E+00 -0.2129115E-04
  0.3686869E+00  0.0000000E+00  0.1515152E-01  0.3247759E-08  0.0000000E+00 -0.2128893E-04
  0.3787879E+00  0.0000000E+00  0.1515152E-01  0.3154849E-08  0.0000000E+00 -0.2128677E-04
  0.3888889E+00  0.0000000E+00  0.1515152E-01  0.3047274E-08  0.0000000E+00 -0.2128467E-04
  0.3989899E+00  0.0000000E+00  0.1515152E-01  0.2925194E-08  0.0000000E+00 -0.2128266E-04
  0.4090909E+00  0.0000000E+00  0.1515152E-01  0.2788884E-08  0.0000000E+00 -0.2128073E-04
  0.4191919E+00  0.0000000E+00  0.1515152E-01  0.2638736E-08  0.0000000E+00 -0.2127889E-04
  0.4292929E+00  0.0000000E+00  0.1515152E-01  0.2475261E-08  0.0000000E+00 -0.2127717E-04
  0.4393939E+00  0.0000000E+00  0.1515152E-01  0.2299091E-08  0.0000000E+00 -0.2127555E-04
  0.4494950E+00  0.0000000E+00  0.1515152E-01  0.2110974E-08  0.0000000E+00 -0.2127406E-04
  0.4595959E+00  0.0000000E+00  0.1515152E-01  0.1911776E-08  0.0000000E+00 -0.2127270E-04
  0.4696970E+00  0.0000000E+00  0.1515152E-01  0.1702473E-08  0.0000000E+00 -0.2127148E-04
  0.4797980E+00  0.0000000E+00  0.1515152E-01  0.1484145E-08  0.0000000E+00 -0.2127041E-04
  0.4898990E+00  0.0000000E+00  0.1515152E-01  0.1257969E-08  0.0000000E+00 -0.2126948E-04
  0.5000000E+00  0.0000000E+00  0.1515152E-01  0.1025207E-08  0.0000000E+00 -0.2126871E-04
  0.5101010E+00  0.0000000E+00  0.1515152E-01  0.7871953E-09  0.0000000E+00 -0.2126809E-04
  0.5202020E+00  0.0000000E+00  0.1515152E-01  0.5453311E-09  0.0000000E+00 -0.2126764E-04
  0.5303030E+00  0.0000000E+00  0.1515152E-01  0.3010595E-09  0.0000000E+00 -0.2126736E-04
  0.5404040E+00  0.0000000E+00  0.1515152E-01  0.5585740E-10  0.0000000E+00 -0.2126724E-04
  0.5505050E+00  0.0000000E+00  0.1515152E-01 -0.1887816E-09  0.0000000E+00 -0.2126728E-04
  0.5606061E+00  0.0000000E+00  0.1515152E-01 -0.4313633E-09  0.0000000E+00 -0.2126749E-04
  0.5707071E+00  0.0000000E+00  0.1515152E-01 -0.6704087E-09  0.0000000E+00 -0.2126787E-04
  0.5808081E+00  0.0000000E+00  0.1515152E-01 -0.9044696E-09  0.0000000E+00 -0.2126840E-04
  0.5909091E+00  0.0000000E+00  0.1515152E-01 -0.1132144E-08  0.0000000E+00 -0.2126909E-04
  0.6010101E+00  0.0000000E+00  0.1515152E-01 -0.1352089E-08  0.0000000E+00 -0.2126993E-04
  0.6111111E+00  0.0000000E+00  0.1515152E-01 -0.1563035E-08  0.0000000E+00 -0.2127091E-04
  0.6212121E+00  0.0000000E+00  0.1515152E-01 -0.1763799E-08  0.0000000E+00 -0.2127204E-04
  0.6313131E+00  0.0000000E+00  0.1515152E-01 -0.1953290E-08  0.0000000E+00 -0.2127330E-04
  0.6414142E+00  0.0000000E+00  0.1515152E-01 -0.2130522E-08  0.0000000E+00 -0.2127468E-04
  0.6515151E+00  0.0000000E+00  0.1515152E-01 -0.2294620E-08  0.0000000E+00 -0.2127617E-04
  0.6616161E+00  0.0000000E+00  0.1515152E-01 -0.2444821E-08  0.0000000E+00 -0.2127777E-04
  0.6717172E+00  0.0000000E+00  0.1515152E-01 -0.2580483E-08  0.0000000E+00 -0.2127947E-04
  0.6818182E+00  0.0000000E+00  0.1515152E-01 -0.2701084E-08  0.0000000E+00 -0.2128126E-04
  0.6919192E+00  0.0000000E+00  0.1515152E-01 -0.2806218E-08  0.0000000E+00 -0.2128312E-04
  0.7020202E+00  0.0000000E+00  0.1515152E-01 -0.2895601E-08  0.0000000E+00 -0.2128505E-04
  0.7121212E+00  0.0000000E+00  0.1515152E-01 -0.2969058E-08  0.0000000E+00 -0.2128703E-04
  0.7222222E+00  0.0000000E+00  0.1515152E-01 -0.3026528E-08  0.0000000E+00 -0.2128905E-04
  0.7323232E+00  0.0000000E+00  0.1515152E-01 -0.3068051E-08  0.0000000E+00 -0.2129111E-04
  0.7424242E+00  0.0000000E+00  0.1515152E-01 -0.3093766E-08  0.0000000E+00 -0.2129319E-04
  0.7525253E+00  0.0000000E+00  0.1515152E-01 -0.3103900E-08  0.0000000E+00 -0.2129529E-04
  0.7626263E+00  0.0000000E+00  0.1515152E-01 -0.3098763E-08  0.0000000E+00 -0.2129738E-04
  0.7727273E+00  0.0000000E+00  0.1515152E-01 -0.3078739E-08  0.0000000E+00 -0.2129947E-04
  0.7828283E+00  0.0000000E+00  0.1515152E-01 -0.3044277E-08  0.0000000E+00 -0.2130154E-04
  0.7929293E+00  0.0000000E+00  0.1515152E-01 -0.2995881E-08  0.0000000E+00 -0.2130358E-04
  0.8030303E+00  0.0000000E+00  0.1515152E-01 -0.2934107E-08  0.0000000E+00 -0.2130558E-04
  0.8131313E+00  0.0000000E+00  0.1515152E-01 -0.2859548E-08  0.0000000E+00 -0.2130754E-04
  0.8232324E+00  0.0000000E+00  0.1515152E-01 -0.2772833E-08  0.0000000E+00 -0.2130944E-04
  0.8333333E+00  0.0000000E+00  0.1515152E-01 -0.2674614E-08  0.0000000E+00 -0.2131128E-04
  0.8434343E+00  0.0000000E+00  0.1515152E-01 -0.2565566E-08  0.0000000E+00 -0.2131304E-04
  0.8535354E+00  0.0000000E+00  0.1515152E-01 -0.2446372E-08  0.0000000E+00 -0.2131474E-04
  0.8636364E+00  0.0000000E+00  0.1515152E-01 -0.2317728E-08  0.0000000E+00 -0.2131634E-04
  0.8737374E+00  0.0000000E+00  0.1515152E-01 -0.2180330E-08  0.0000000E+00 -0.2131786E-04
  0.8838384E+00  0.0000000E+00  0.1515152E-01 -0.2034874E-08  0.0000000E+00 -0.2131929E-04
  0.8939394E+00  0.0000000E+00  0.1515152E-01 -0.1882055E-08  0.0000000E+00 -0.2132061E-04
  0.9040404E+00  0.0000000E+00  0.1515152E-01 -0.1722557E-08  0.0000000E+00 -0.2132182E-04
  0.9141414E+00  0.0000000E+00  0.1515152E-01 -0.1557060E-08  0.0000000E+00 -0.2132293E-04
  0.9242424E+00  0.0000000E+00  0.1515152E-01 -0.1386232E-08  0.0000000E+00 -0.2132392E-04
  0.9343435E+00  0.0000000E+00  0.1515152E-01 -0.1210731E-08  0.0000000E+00 -0.2132480E-04
  0.9444444E+00  0.0000000E+00  0.1515152E-01 -0.1031206E-08  0.0000000E+00 -0.2132556E-04
  0.9545454E+00  0.0000000E+00  0.1515152E-01 -0.8482958E-09  0.0000000E+00 -0.2132619E-04
  0.9646465E+00  0.0000000E+00  0.1515152E-01 -0.6626290E-09  0.0000000E+00 -0.2132670E-04
  0.9747475E+00  0.0000000E+00  0.1515152E-01 -0.4748273E-09  0.0000000E+00 -0.2132708E-04
  0.9848485E+00  0.0000000E+00  0.1515152E-01 -0.2855056E-09  0.0000000E+00 -0.2132734E-04
  0.9974747E+00  0.0000000E+00  0.1515152E-01 -0.9527393E-10  0.0000000E+00 -0.2132747E-04
  0.5050505E-02  0.0000000E+00  0.2525252E-01  0.1343115E-09  0.0000000E+00 -0.2124864E-04
  0.1515152E-01  0.0000000E+00  0.2525252E-01  0.4027956E-09  0.0000000E+00 -0.2124853E-04
  0.2525252E-01  0.0000000E+00  0.2525252E-01  0.6708281E-09  0.0000000E+00 -0.2124831E-04
  0.3535353E-01  0.0000000E+00  0.2525252E-01  0.9380923E-09  0.0000000E+00 -0.2124798E-04
  0.4545455E-01  0.0000000E+00  0.2525252E-01  0.1204264E-08  0.0000000E+00 -0.2124754E-04
  0.5555556E-01  0.0000000E+00  0.2525252E-01  0.1469002E-08  0.0000000E+00 -0.2124699E-04
  0.6565657E-01  0.0000000E+00  0.2525252E-01  0.1731939E-08  0.0000000E+00 -0.2124633E-04
  0.7575758E-01  0.0000000E+00  0.2525252E-01  0.1992685E-08  0.0000000E+00 -0.2124557E-04
  0.8585858E-01  0.0000000E+00  0.2525252E-01  0.2250814E-08  0.0000000E+00 -0.2124470E-04
  0.9595960E-01  0.0000000E+00  0.2525252E-01  0.2505868E-08  0.0000000E+00 -0.2124372E-04
  0.1060606E+00  0.0000000E+00  0.2525252E-01  0.2757350E-08  0.0000000E+00 -0.2124264E-04
  0.1161616E+00  0.0000000E+00  0.2525252E-01  0.3004717E-08  0.0000000E+00 -0.2124145E-04
  0.1262626E+00  0.0000000E+00  0.2525252E-01  0.3247386E-08  0.0000000E+00 -0.2124017E-04
  0.1363636E+00  0.0000000E+00  0.2525252E-01  0.3484725E-08  0.0000000E+00 -0.2123879E-04
  0.1464646E+00  0.0000000E+00  0.2525252E-01  0.3716052E-08  0.0000000E+00 -0.2123731E-04
  0.1565657E+00  0.0000000E+00  0.2525252E-01  0.3940639E-08  0.0000000E+00 -0.2123573E-04
  0.1666667E+00  0.0000000E+00  0.2525252E-01  0.4157707E-08  0.0000000E+00 -0.2123407E-04
  0.1767677E+00  0.0000000E+00  0.2525252E-01  0.4366428E-08  0.0000000E+00 -0.2123231E-04
  0.1868687E+00  0.0000000E+00  0.2525252E-01  0.4565929E-08  0.0000000E+00 -0.2123048E-04
  0.1969697E+00  0.0000000E+00  0.2525252E-01  0.4755293E-08  0.0000000E+00 -0.2122856E-04
  0.2070707E+00  0.0000000E+00  0.2525252E-01  0.4933563E-08  0.0000000E+00 -0.2122657E-04
  0.2171717E+00  0.0000000E+00  0.2525252E-01  0.5099745E-08  0.0000000E+00 -0.2122450E-04
  0.2272727E+00  0.0000000E+00  0.2525252E-01  0.5252818E-08  0.0000000E+00 -0.2122237E-04
  0.2373737E+00  0.0000000E+00  0.2525252E-01  0.5391737E-08  0.0000000E+00 -0.2122018E-04
  0.2474747E+00  0.0000000E+00  0.2525252E-01  0.5515443E-08  0.0000000E+00 -0.2121793E-04
  0.2575758E+00  0.0000000E+00  0.2525252E-01  0.5622873E-08  0.0000000E+00 -0.2121563E-04
  0.2676768E+00  0.0000000E+00  0.2525252E-01  0.5712969E-08  0.0000000E+00 -0.2121330E-04
  0.2777778E+00  0.0000000E+00  0.2525252E-01  0.5784691E-08  0.0000000E+00 -0.2121093E-04
  0.2878788E+00  0.0000000E+00  0.2525252E-01  0.5837026E-08  0.0000000E+00 -0.2120853E-04
  0.2979798E+00  0.0000000E+00  0.2525252E-01  0.5869008E-08  0.0000000E+00 -0.2120612E-04
  0.3080808E+00  0.0000000E+00  0.2525252E-01  0.5879725E-08  0.0000000E+00 -0.2120369E-04
  0.3181818E+00  0.0000000E+00  0.2525252E-01  0.5868339E-08  0.0000000E+00 -0.2120127E-04
  0.3282828E+00  0.0000000E+00  0.2525252E-01  0.5834098E-08  0.0000000E+00 -0.2119885E-04
  0.3383838E+00  0.0000000E+00  0.2525252E-01  0.5776353E-08  0.0000000E+00 -0.2119645E-04
  0.3484848E+00  0.0000000E+00  0.2525252E-01  0.5694572E-08  0.0000000E+00 -0.2119408E-04
  0.3585859E+00  0.0000000E+00  0.2525252E-01  0.5588359E-08  0.0000000E+00 -0.2119175E-04
  0.3686869E+00  0.0000000E+00  0.2525252E-01  0.5457460E-08  0.0000000E+00 -0.2118947E-04
  0.3787879E+00  0.0000000E+00  0.2525252E-01  0.5301786E-08  0.0000000E+00 -0.2118724E-04
  0.3888889E+00  0.0000000E+00  0.2525252E-01  0.5121417E-08  0.0000000E+00 -0.2118509E-04
  0.3989899E+00  0.0000000E+00  0.2525252E-01  0.4916620E-08  0.0000000E+00 -0.2118301E-04
  0.4090909E+00  0.0000000E+00  0.2525252E-01  0.4687848E-08  0.0000000E+00 -0.2118103E-04
  0.4191919E+00  0.0000000E+00  0.2525252E-01  0.4435757E-08  0.0000000E+00 -0.2117914E-04
  0.4292929E+00  0.0000000E+00  0.2525252E-01  0.4161202E-08  0.0000000E+00 -0.2117736E-04
  0.4393939E+00  0.0000000E+00  0.2525252E-01  0.3865240E-08  0.0000000E+00 -0.2117570E-04
  0.4494950E+00  0.0000000E+00  0.2525252E-01  0.3549132E-08  0.0000000E+00 -0.2117416E-04
  0.4595959E+00  0.0000000E+00  0.2525252E-01  0.3214331E-08  0.0000000E+00 -0.2117276E-04
  0.4696970E+00  0.0000000E+00  0.2525252E-01  0.2862481E-08  0.0000000E+00 -0.2117150E-04
  0.4797980E+00  0.0000000E+00  0.2525252E-01  0.2495401E-08  0.0000000E+00 -0.2117039E-04
  0.4898990E+00  0.0000000E+00  0.2525252E-01  0.2115073E-08  0.0000000E+00 -0.2116944E-04
  0.5000000E+00  0.0000000E+00  0.2525252E-01  0.1723626E-08  0.0000000E+00 -0.2116864E-04
  0.5101010E+00  0.0000000E+00  0.2525252E-01  0.1323312E-08  0.0000000E+00 -0.2116801E-04
  0.5202020E+00  0.0000000E+00  0.2525252E-01  0.9164895E-09  0.0000000E+00 -0.2116755E-04
  0.5303030E+00  0.0000000E+00  0.2525252E-01  0.5055965E-09  0.0000000E+00 -0.2116726E-04
  0.5404040E+00  0.0000000E+00  0.2525252E-01  0.9312521E-10  0.0000000E+00 -0.2116713E-04
  0.5505050E+00  0.0000000E+00  0.2525252E-01 -0.3184038E-09  0.0000000E+00 -0.2116718E-04
  0.5606061E+00  0.0000000E+00  0.2525252E-01 -0.7264688E-09  0.0000000E+00 -0.2116740E-04
  0.5707071E+00  0.0000000E+00  0.2525252E-01 -0.1128574E-08  0.0000000E+00 -0.2116778E-04
  0.5808081E+00  0.0000000E+00  0.2525252E-01 -0.1522276E-08  0.0000000E+00 -0.2116834E-04
  0.5909091E+00  0.0000000E+00  0.2525252E-01 -0.1905210E-08  0.0000000E+00 -0.2116905E-04
  0.6010101E+00  0.0000000E+00  0.2525252E-01 -0.2275110E-08  0.0000000E+00 -0.2116991E-04
  0.6111111E+00  0.0000000E+00  0.2525252E-01 -0.2629838E-08  0.0000000E+00 -0.2117093E-04
  0.6212121E+00  0.0000000E+00  0.2525252E-01 -0.2967398E-08  0.0000000E+00 -0.2117209E-04
  0.6313131E+00  0.0000000E+00  0.2525252E-01 -0.3285954E-08  0.0000000E+00 -0.2117339E-04
  0.6414142E+00  0.0000000E+00  0.2525252E-01 -0.3583846E-08  0.0000000E+00 -0.2117481E-04
  0.6515151E+00  0.0000000E+00  0.2525252E-01 -0.3859601E-08  0.0000000E+00 -0.2117636E-04
  0.6616161E+00  0.0000000E+00  0.2525252E-01 -0.4111941E-08  0.0000000E+00 -0.2117801E-04
  0.6717172E+00  0.0000000E+00  0.2525252E-01 -0.4339787E-08  0.0000000E+00 -0.2117976E-04
  0.6818182E+00  0.0000000E+00  0.2525252E-01 -0.4542264E-08  0.0000000E+00 -0.2118160E-04
  0.6919192E+00  0.0000000E+00  0.2525252E-01 -0.4718696E-08  0.0000000E+00 -0.2118352E-04
  0.7020202E+00  0.0000000E+00  0.2525252E-01 -0.4868609E-08  0.0000000E+00 -0.2118551E-04
  0.7121212E+00  0.0000000E+00  0.2525252E-01 -0.4991720E-08  0.0000000E+00 -0.2118755E-04
  0.7222222E+00  0.0000000E+00  0.2525252E-01 -0.5087929E-08  0.0000000E+00 -0.2118963E-04
  0.7323232E+00  0.0000000E+00  0.2525252E-01 -0.5157314E-08  0.0000000E+00 -0.2119175E-04
  0.7424242E+00  0.0000000E+00  0.2525252E-01 -0.5200115E-08  0.0000000E+00 -0.2119390E-04
  0.7525253E+00  0.0000000E+00  0.2525252E-01 -0.5216722E-08  0.0000000E+00 -0.2119605E-04
  0.7626263E+00  0.0000000E+00  0.2525252E-01 -0.5207665E-08  0.0000000E+00 -0.2119821E-04
  0.7727273E+00  0.0000000E+00  0.2525252E-01 -0.5173596E-08  0.0000000E+00 -0.2120035E-04
  0.7828283E+00  0.0000000E+00  0.2525252E-01 -0.5115276E-08  0.0000000E+00 -0.2120248E-04
  0.7929293E+00  0.0000000E+00  0.2525252E-01 -0.5033562E-08  0.0000000E+00 -0.2120458E-04
  0.8030303E+00  0.0000000E+00  0.2525252E-01 -0.4929393E-08  0.0000000E+00 -0.2120664E-04
  0.8131313E+00  0.0000000E+00  0.2525252E-01 -0.4803772E-08  0.0000000E+00 -0.2120865E-04
  0.8232324E+00  0.0000000E+00  0.2525252E-01 -0.4657760E-08  0.0000000E+00 -0.2121060E-04
  0.8333333E+00  0.0000000E+00  0.2525252E-01 -0.4492459E-08  0.0000000E+00 -0.2121249E-04
  0.8434343E+00  0.0000000E+00  0.2525252E-01 -0.4309002E-08  0.0000000E+00 -0.2121431E-04
  0.8535354E+00  0.0000000E+00  0.2525252E-01 -0.4108546E-08  0.0000000E+00 -0.2121604E-04
  0.8636364E+00  0.0000000E+00  0.2525252E-01 -0.3892257E-08  0.0000000E+00 -0.2121769E-04
  0.8737374E+00  0.0000000E+00  0.2525252E-01 -0.3661307E-08  0.0000000E+00 -0.2121925E-04
  0.8838384E+00  0.0000000E+00  0.2525252E-01 -0.3416867E-08  0.0000000E+00 -0.2122071E-04
  0.8939394E+00  0.0000000E+00  0.2525252E-01 -0.3160101E-08  0.0000000E+00 -0.2122207E-04
  0.9040404E+00  0.0000000E+00  0.2525252E-01 -0.2892160E-08  0.0000000E+00 -0.2122332E-04
  0.9141414E+00  0.0000000E+00  0.2525252E-01 -0.2614181E-08  0.0000000E+00 -0.2122445E-04
  0.9242424E+00  0.0000000E+00  0.2525252E-01 -0.2327286E-08  0.0000000E+00 -0.2122547E-04
  0.9343435E+00  0.0000000E+00  0.2525252E-01 -0.2032578E-08  0.0000000E+00 -0.2122637E-04
  0.9444444E+00  0.0000000E+00  0.2525252E-01 -0.1731141E-08  0.0000000E+00 -0.2122715E-04
  0.9545454E+00  0.0000000E+00  0.2525252E-01 -0.1424045E-08  0.0000000E+00 -0.2122780E-04
  0.9646465E+00  0.0000000E+00  0.2525252E-01 -0.1112342E-08  0.0000000E+00 -0.2122832E-04
  0.9747475E+00  0.0000000E+00  0.2525252E-01 -0.7970712E-09  0.0000000E+00 -0.2122871E-04
  0.9848485E+00  0.0000000E+00  0.2525252E-01 -0.4792597E-09  0.0000000E+00 -0.2122898E-04
  0.9974747E+00  0.0000000E+00  0.2525252E-01 -0.1599271E-09  0.0000000E+00 -0.2122911E-04
  0.5050505E-02  0.0000000E+00  0.3535353E-01  0.1897834E-09  0.0000000E+00 -0.2110230E-04
  0.1515152E-01  0.0000000E+00  0.3535353E-01  0.5691545E-09  0.0000000E+00 -0.2110219E-04
  0.2525252E-01  0.0000000E+00  0.3535353E-01  0.9478994E-09  0.0000000E+00 -0.2110196E-04
  0.3535353E-01  0.0000000E+00  0.3535353E-01  0.1325579E-08  0.0000000E+00 -0.2110162E-04
  0.4545455E-01  0.0000000E+00  0.3535353E-01  0.1701744E-08  0.0000000E+00 -0.2110116E-04
  0.5555556E-01  0.0000000E+00  0.3535353E-01  0.2075917E-08  0.0000000E+00 -0.2110060E-04
  0.6565657E-01  0.0000000E+00  0.3535353E-01  0.2447591E-08  0.0000000E+00 -0.2109992E-04
  0.7575758E-01  0.0000000E+00  0.3535353E-01  0.2816217E-08  0.0000000E+00 -0.2109913E-04
  0.8585858E-01  0.0000000E+00  0.3535353E-01  0.3181204E-08  0.0000000E+00 -0.2109823E-04
  0.9595960E-01  0.0000000E+00  0.3535353E-01  0.3541908E-08  0.0000000E+00 -0.2109722E-04
  0.1060606E+00  0.0000000E+00  0.3535353E-01  0.3897633E-08  0.0000000E+00 -0.2109611E-04
  0.1161616E+00  0.0000000E+00  0.3535353E-01  0.4247619E-08  0.0000000E+00 -0.2109488E-04
  0.1262626E+00  0.0000000E+00  0.3535353E-01  0.4591043E-08  0.0000000E+00 -0.2109356E-04
  0.1363636E+00  0.0000000E+00  0.3535353E-01  0.4927016E-08  0.0000000E+00 -0.2109213E-04
  0.1464646E+00  0.0000000E+00  0.3535353E-01  0.5254579E-08  0.0000000E+00 -0.2109060E-04
  0.1565657E+00  0.0000000E+00  0.3535353E-01  0.5572702E-08  0.0000000E+00 -0.2108897E-04
  0.1666667E+00  0.0000000E+00  0.3535353E-01  0.5880284E-08  0.0000000E+00 -0.2108725E-04
  0.1767677E+00  0.0000000E+00  0.3535353E-01  0.6176158E-08  0.0000000E+00 -0.2108544E-04
  0.1868687E+00  0.0000000E+00  0.3535353E-01  0.6459084E-08  0.0000000E+00 -0.2108353E-04
  0.1969697E+00  0.0000000E+00  0.3535353E-01  0.6727764E-08  0.0000000E+00 -0.2108155E-04
  0.2070707E+00  0.0000000E+00  0.3535353E-01  0.6980840E-08  0.0000000E+00 -0.2107948E-04
  0.2171717E+00  0.0000000E+00  0.3535353E-01  0.7216900E-08  0.0000000E+00 -0.2107735E-04
  0.2272727E+00  0.0000000E+00  0.3535353E-01  0.7434493E-08  0.0000000E+00 -0.2107514E-04
  0.2373737E+00  0.0000000E+00  0.3535353E-01  0.7632132E-08  0.0000000E+00 -0.2107286E-04
  0.2474747E+00  0.0000000E+00  0.3535353E-01  0.7808310E-08  0.0000000E+00 -0.2107053E-04
  0.2575758E+00  0.0000000E+00  0.3535353E-01  0.7961509E-08  0.0000000E+00 -0.2106815E-04
  0.2676768E+00  0.0000000E+00  0.3535353E-01  0.8090219E-08  0.0000000E+00 -0.2106573E-04
  0.2777778E+00  0.0000000E+00  0.3535353E-01  0.8192954E-08  0.0000000E+00 -0.2106327E-04
  0.2878788E+00  0.0000000E+00  0.3535353E-01  0.8268266E-08  0.0000000E+00 -0.2106078E-04
  0.2979798E+00  0.0000000E+00  0.3535353E-01  0.8314768E-08  0.0000000E+00 -0.2105827E-04