title = "dataset water"
variables = "x", "y", "z", "vx", "vy", "vz"
zone t = "velocities, solution time =  3.800E+01 days        " i =   99, j =   99, k =    1,  f=point
  0.5050505E-02  0.0000000E+00  0.5050505E-02  0.1419379E-07  0.0000000E+00  0.9089235E-05
  0.1515152E-01  0.0000000E+00  0.5050505E-02  0.4262577E-07  0.0000000E+00  0.9146284E-05
  0.2525252E-01  0.0000000E+00  0.5050505E-02  0.7119137E-07  0.0000000E+00  0.9260561E-05
  0.3535353E-01  0.0000000E+00  0.5050505E-02  0.9998050E-07  0.0000000E+00  0.9432428E-05
  0.4545455E-01  0.0000000E+00  0.5050505E-02  0.1290842E-06  0.0000000E+00  0.9662428E-05
  0.5555556E-01  0.0000000E+00  0.5050505E-02  0.1585948E-06  0.0000000E+00  0.9951289E-05
  0.6565657E-01  0.0000000E+00  0.5050505E-02  0.1886066E-06  0.0000000E+00  0.1029993E-04
  0.7575758E-01  0.0000000E+00  0.5050505E-02  0.2192162E-06  0.0000000E+00  0.1070946E-04
  0.8585858E-01  0.0000000E+00  0.5050505E-02  0.2505228E-06  0.0000000E+00  0.1118119E-04
  0.9595960E-01  0.0000000E+00  0.5050505E-02  0.2826288E-06  0.0000000E+00  0.1171663E-04
  0.1060606E+00  0.0000000E+00  0.5050505E-02  0.3156402E-06  0.0000000E+00  0.1231751E-04
  0.1161616E+00  0.0000000E+00  0.5050505E-02  0.3496675E-06  0.0000000E+00  0.1298577E-04
  0.1262626E+00  0.0000000E+00  0.5050505E-02  0.3848255E-06  0.0000000E+00  0.1372358E-04
  0.1363636E+00  0.0000000E+00  0.5050505E-02  0.4212348E-06  0.0000000E+00  0.1453336E-04
  0.1464646E+00  0.0000000E+00  0.5050505E-02  0.4590216E-06  0.0000000E+00  0.1541776E-04
  0.1565657E+00  0.0000000E+00  0.5050505E-02  0.4983192E-06  0.0000000E+00  0.1637971E-04
  0.1666667E+00  0.0000000E+00  0.5050505E-02  0.5392683E-06  0.0000000E+00  0.1742242E-04
  0.1767677E+00  0.0000000E+00  0.5050505E-02  0.5820177E-06  0.0000000E+00  0.1854939E-04
  0.1868687E+00  0.0000000E+00  0.5050505E-02  0.6267256E-06  0.0000000E+00  0.1976442E-04
  0.1969697E+00  0.0000000E+00  0.5050505E-02  0.6735605E-06  0.0000000E+00  0.2107167E-04
  0.2070707E+00  0.0000000E+00  0.5050505E-02  0.7227022E-06  0.0000000E+00  0.2247563E-04
  0.2171717E+00  0.0000000E+00  0.5050505E-02  0.7743428E-06  0.0000000E+00  0.2398119E-04
  0.2272727E+00  0.0000000E+00  0.5050505E-02  0.8286885E-06  0.0000000E+00  0.2559363E-04
  0.2373737E+00  0.0000000E+00  0.5050505E-02  0.8859609E-06  0.0000000E+00  0.2731869E-04
  0.2474747E+00  0.0000000E+00  0.5050505E-02  0.9463984E-06  0.0000000E+00  0.2916257E-04
  0.2575758E+00  0.0000000E+00  0.5050505E-02  0.1010259E-05  0.0000000E+00  0.3113196E-04
  0.2676768E+00  0.0000000E+00  0.5050505E-02  0.1077820E-05  0.0000000E+00  0.3323414E-04
  0.2777778E+00  0.0000000E+00  0.5050505E-02  0.1149384E-05  0.0000000E+00  0.3547696E-04
  0.2878788E+00  0.0000000E+00  0.5050505E-02  0.1225279E-05  0.0000000E+00  0.3786894E-04
  0.2979798E+00  0.0000000E+00  0.5050505E-02  0.1305863E-05  0.0000000E+00  0.4041928E-04
  0.3080808E+00  0.0000000E+00  0.5050505E-02  0.1391525E-05  0.0000000E+00  0.4313797E-04
  0.3181818E+00  0.0000000E+00  0.5050505E-02  0.1482696E-05  0.0000000E+00  0.4603586E-04
  0.3282828E+00  0.0000000E+00  0.5050505E-02  0.1579845E-05  0.0000000E+00  0.4912471E-04
  0.3383838E+00  0.0000000E+00  0.5050505E-02  0.1683496E-05  0.0000000E+00  0.5241734E-04
  0.3484848E+00  0.0000000E+00  0.5050505E-02  0.1794229E-05  0.0000000E+00  0.5592768E-04
  0.3585859E+00  0.0000000E+00  0.5050505E-02  0.1912694E-05  0.0000000E+00  0.5967098E-04
  0.3686869E+00  0.0000000E+00  0.5050505E-02  0.2039630E-05  0.0000000E+00  0.6366392E-04
  0.3787879E+00  0.0000000E+00  0.5050505E-02  0.2175880E-05  0.0000000E+00  0.6792483E-04
  0.3888889E+00  0.0000000E+00  0.5050505E-02  0.2322426E-05  0.0000000E+00  0.7247395E-04
  0.3989899E+00  0.0000000E+00  0.5050505E-02  0.2480432E-05  0.0000000E+00  0.7733376E-04
  0.4090909E+00  0.0000000E+00  0.5050505E-02  0.2651309E-05  0.0000000E+00  0.8252945E-04
  0.4191919E+00  0.0000000E+00  0.5050505E-02  0.2836809E-05  0.0000000E+00  0.8808948E-04
  0.4292929E+00  0.0000000E+00  0.5050505E-02  0.3039180E-05  0.0000000E+00  0.9404651E-04
  0.4393939E+00  0.0000000E+00  0.5050505E-02  0.3261391E-05  0.0000000E+00  0.1004386E-03
  0.4494950E+00  0.0000000E+00  0.5050505E-02  0.3507482E-05  0.0000000E+00  0.1073112E-03
  0.4595959E+00  0.0000000E+00  0.5050505E-02  0.3783120E-05  0.0000000E+00  0.1147198E-03
  0.4696970E+00  0.0000000E+00  0.5050505E-02  0.4096441E-05  0.0000000E+00  0.1227341E-03
  0.4797980E+00  0.0000000E+00  0.5050505E-02  0.4459372E-05  0.0000000E+00  0.1314447E-03
  0.4898990E+00  0.0000000E+00  0.5050505E-02  0.4889679E-05  0.0000000E+00  0.1409730E-03
  0.5000000E+00  0.0000000E+00  0.5050505E-02  0.5414283E-05  0.0000000E+00  0.1514869E-03
  0.5101010E+00  0.0000000E+00  0.5050505E-02  0.6075225E-05  0.0000000E+00  0.1632255E-03
  0.5202020E+00  0.0000000E+00  0.5050505E-02  0.6942990E-05  0.0000000E+00  0.1765452E-03
  0.5303030E+00  0.0000000E+00  0.5050505E-02  0.8154893E-05  0.0000000E+00  0.1920180E-03
  0.5404040E+00  0.0000000E+00  0.5050505E-02  0.1004501E-04  0.0000000E+00  0.2107057E-03
  0.5505050E+00  0.0000000E+00  0.5050505E-02  0.1360085E-04  0.0000000E+00  0.2350425E-03
  0.5606061E+00  0.0000000E+00  0.5050505E-02  0.2197388E-04  0.0000000E+00  0.2717728E-03
  0.5707071E+00  0.0000000E+00  0.5050505E-02 -0.2396534E-06  0.0000000E+00  0.2942408E-03
  0.5808081E+00  0.0000000E+00  0.5050505E-02 -0.3393770E-04  0.0000000E+00  0.2590124E-03
  0.5909091E+00  0.0000000E+00  0.5050505E-02 -0.1662276E-04  0.0000000E+00  0.2069710E-03
  0.6010101E+00  0.0000000E+00  0.5050505E-02 -0.1025589E-04  0.0000000E+00  0.1794088E-03
  0.6111111E+00  0.0000000E+00  0.5050505E-02 -0.7441338E-05  0.0000000E+00  0.1613042E-03
  0.6212121E+00  0.0000000E+00  0.5050505E-02 -0.5964373E-05  0.0000000E+00  0.1476137E-03
  0.6313131E+00  0.0000000E+00  0.5050505E-02 -0.5069575E-05  0.0000000E+00  0.1363611E-03
  0.6414142E+00  0.0000000E+00  0.5050505E-02 -0.4462558E-05  0.0000000E+00  0.1266518E-03
  0.6515151E+00  0.0000000E+00  0.5050505E-02 -0.4013628E-05  0.0000000E+00  0.1180271E-03
  0.6616161E+00  0.0000000E+00  0.5050505E-02 -0.3659370E-05  0.0000000E+00  0.1102272E-03
  0.6717172E+00  0.0000000E+00  0.5050505E-02 -0.3366033E-05  0.0000000E+00  0.1030918E-03
  0.6818182E+00  0.0000000E+00  0.5050505E-02 -0.3114376E-05  0.0000000E+00  0.9651522E-04
  0.6919192E+00  0.0000000E+00  0.5050505E-02 -0.2892796E-05  0.0000000E+00  0.9042345E-04
  0.7020202E+00  0.0000000E+00  0.5050505E-02 -0.2693954E-05  0.0000000E+00  0.8476195E-04
  0.7121212E+00  0.0000000E+00  0.5050505E-02 -0.2513006E-05  0.0000000E+00  0.7948872E-04
  0.7222222E+00  0.0000000E+00  0.5050505E-02 -0.2346634E-05  0.0000000E+00  0.7457019E-04
  0.7323232E+00  0.0000000E+00  0.5050505E-02 -0.2192477E-05  0.0000000E+00  0.6997865E-04
  0.7424242E+00  0.0000000E+00  0.5050505E-02 -0.2048800E-05  0.0000000E+00  0.6569063E-04
  0.7525253E+00  0.0000000E+00  0.5050505E-02 -0.1914282E-05  0.0000000E+00  0.6168584E-04
  0.7626263E+00  0.0000000E+00  0.5050505E-02 -0.1787889E-05  0.0000000E+00  0.5794642E-04
  0.7727273E+00  0.0000000E+00  0.5050505E-02 -0.1668783E-05  0.0000000E+00  0.5445645E-04
  0.7828283E+00  0.0000000E+00  0.5050505E-02 -0.1556271E-05  0.0000000E+00  0.5120163E-04
  0.7929293E+00  0.0000000E+00  0.5050505E-02 -0.1449761E-05  0.0000000E+00  0.4816898E-04
  0.8030303E+00  0.0000000E+00  0.5050505E-02 -0.1348739E-05  0.0000000E+00  0.4534667E-04
  0.8131313E+00  0.0000000E+00  0.5050505E-02 -0.1252751E-05  0.0000000E+00  0.4272389E-04
  0.8232324E+00  0.0000000E+00  0.5050505E-02 -0.1161388E-05  0.0000000E+00  0.4029072E-04
  0.8333333E+00  0.0000000E+00  0.5050505E-02 -0.1074277E-05  0.0000000E+00  0.3803805E-04
  0.8434343E+00  0.0000000E+00  0.5050505E-02 -0.9910752E-06  0.0000000E+00  0.3595752E-04
  0.8535354E+00  0.0000000E+00  0.5050505E-02 -0.9114618E-06  0.0000000E+00  0.3404145E-04
  0.8636364E+00  0.0000000E+00  0.5050505E-02 -0.8351373E-06  0.0000000E+00  0.3228281E-04
  0.8737374E+00  0.0000000E+00  0.5050505E-02 -0.7618181E-06  0.0000000E+00  0.3067516E-04
  0.8838384E+00  0.0000000E+00  0.5050505E-02 -0.6912352E-06  0.0000000E+00  0.2921263E-04
  0.8939394E+00  0.0000000E+00  0.5050505E-02 -0.6231315E-06  0.0000000E+00  0.2788992E-04
  0.9040404E+00  0.0000000E+00  0.5050505E-02 -0.5572603E-06  0.0000000E+00  0.2670220E-04
  0.9141414E+00  0.0000000E+00  0.5050505E-02 -0.4933842E-06  0.0000000E+00  0.2564517E-04
  0.9242424E+00  0.0000000E+00  0.5050505E-02 -0.4312734E-06  0.0000000E+00  0.2471499E-04
  0.9343435E+00  0.0000000E+00  0.5050505E-02 -0.3707049E-06  0.0000000E+00  0.2390831E-04
  0.9444444E+00  0.0000000E+00  0.5050505E-02 -0.3114614E-06  0.0000000E+00  0.2322221E-04
  0.9545454E+00  0.0000000E+00  0.5050505E-02 -0.2533306E-06  0.0000000E+00  0.2265419E-04
  0.9646465E+00  0.0000000E+00  0.5050505E-02 -0.1961044E-06  0.0000000E+00  0.2220221E-04
  0.9747475E+00  0.0000000E+00  0.5050505E-02 -0.1395777E-06  0.0000000E+00  0.2186465E-04
  0.9848485E+00  0.0000000E+00  0.5050505E-02 -0.8354849E-07  0.0000000E+00  0.2164028E-04
  0.9974747E+00  0.0000000E+00  0.5050505E-02 -0.2781657E-07  0.0000000E+00  0.2152829E-04
  0.5050505E-02  0.0000000E+00  0.1515152E-01  0.4256059E-07  0.0000000E+00  0.9112136E-05
  0.1515152E-01  0.0000000E+00  0.1515152E-01  0.1278150E-06  0.0000000E+00  0.9169267E-05
  0.2525252E-01  0.0000000E+00  0.1515152E-01  0.2134703E-06  0.0000000E+00  0.9283708E-05
  0.3535353E-01  0.0000000E+00  0.1515152E-01  0.2997960E-06  0.0000000E+00  0.9455821E-05
  0.4545455E-01  0.0000000E+00  0.1515152E-01  0.3870649E-06  0.0000000E+00  0.9686149E-05
  0.5555556E-01  0.0000000E+00  0.1515152E-01  0.4755543E-06  0.0000000E+00  0.9975421E-05
  0.6565657E-01  0.0000000E+00  0.1515152E-01  0.5655466E-06  0.0000000E+00  0.1032456E-04
  0.7575758E-01  0.0000000E+00  0.1515152E-01  0.6573313E-06  0.0000000E+00  0.1073466E-04
  0.8585858E-01  0.0000000E+00  0.1515152E-01  0.7512060E-06  0.0000000E+00  0.1120706E-04
  0.9595960E-01  0.0000000E+00  0.1515152E-01  0.8474776E-06  0.0000000E+00  0.1174325E-04
  0.1060606E+00  0.0000000E+00  0.1515152E-01  0.9464642E-06  0.0000000E+00  0.1234496E-04
  0.1161616E+00  0.0000000E+00  0.1515152E-01  0.1048496E-05  0.0000000E+00  0.1301414E-04
  0.1262626E+00  0.0000000E+00  0.1515152E-01  0.1153919E-05  0.0000000E+00  0.1375297E-04
  0.1363636E+00  0.0000000E+00  0.1515152E-01  0.1263093E-05  0.0000000E+00  0.1456385E-04
  0.1464646E+00  0.0000000E+00  0.1515152E-01  0.1376397E-05  0.0000000E+00  0.1544944E-04
  0.1565657E+00  0.0000000E+00  0.1515152E-01  0.1494230E-05  0.0000000E+00  0.1641268E-04
  0.1666667E+00  0.0000000E+00  0.1515152E-01  0.1617014E-05  0.0000000E+00  0.1745676E-04
  0.1767677E+00  0.0000000E+00  0.1515152E-01  0.1745196E-05  0.0000000E+00  0.1858520E-04
  0.1868687E+00  0.0000000E+00  0.1515152E-01  0.1879249E-05  0.0000000E+00  0.1980180E-04
  0.1969697E+00  0.0000000E+00  0.1515152E-01  0.2019678E-05  0.0000000E+00  0.2111070E-04
  0.2070707E+00  0.0000000E+00  0.1515152E-01  0.2167022E-05  0.0000000E+00  0.2251642E-04
  0.2171717E+00  0.0000000E+00  0.1515152E-01  0.2321856E-05  0.0000000E+00  0.2402382E-04
  0.2272727E+00  0.0000000E+00  0.1515152E-01  0.2484799E-05  0.0000000E+00  0.2563819E-04
  0.2373737E+00  0.0000000E+00  0.1515152E-01  0.2656514E-05  0.0000000E+00  0.2736527E-04
  0.2474747E+00  0.0000000E+00  0.1515152E-01  0.2837716E-05  0.0000000E+00  0.2921125E-04
  0.2575758E+00  0.0000000E+00  0.1515152E-01  0.3029175E-05  0.0000000E+00  0.3118282E-04
  0.2676768E+00  0.0000000E+00  0.1515152E-01  0.3231725E-05  0.0000000E+00  0.3328725E-04
  0.2777778E+00  0.0000000E+00  0.1515152E-01  0.3446271E-05  0.0000000E+00  0.3553237E-04
  0.2878788E+00  0.0000000E+00  0.1515152E-01  0.3673793E-05  0.0000000E+00  0.3792669E-04
  0.2979798E+00  0.0000000E+00  0.1515152E-01  0.3915361E-05  0.0000000E+00  0.4047940E-04
  0.3080808E+00  0.0000000E+00  0.1515152E-01  0.4172144E-05  0.0000000E+00  0.4320047E-04
  0.3181818E+00  0.0000000E+00  0.1515152E-01  0.4445421E-05  0.0000000E+00  0.4610070E-04
  0.3282828E+00  0.0000000E+00  0.1515152E-01  0.4736602E-05  0.0000000E+00  0.4919182E-04
  0.3383838E+00  0.0000000E+00  0.1515152E-01  0.5047243E-05  0.0000000E+00  0.5248657E-04
  0.3484848E+00  0.0000000E+00  0.1515152E-01  0.5379075E-05  0.0000000E+00  0.5599884E-04
  0.3585859E+00  0.0000000E+00  0.1515152E-01  0.5734034E-05  0.0000000E+00  0.5974375E-04
  0.3686869E+00  0.0000000E+00  0.1515152E-01  0.6114309E-05  0.0000000E+00  0.6373784E-04
  0.3787879E+00  0.0000000E+00  0.1515152E-01  0.6522399E-05  0.0000000E+00  0.6799924E-04
  0.3888889E+00  0.0000000E+00  0.1515152E-01  0.6961202E-05  0.0000000E+00  0.7254792E-04
  0.3989899E+00  0.0000000E+00  0.1515152E-01  0.7434135E-05  0.0000000E+00  0.7740596E-04
  0.4090909E+00  0.0000000E+00  0.1515152E-01  0.7945321E-05  0.0000000E+00  0.8259793E-04
  0.4191919E+00  0.0000000E+00  0.1515152E-01  0.8499860E-05  0.0000000E+00  0.8815147E-04
  0.4292929E+00  0.0000000E+00  0.1515152E-01  0.9104244E-05  0.0000000E+00  0.9409796E-04
  0.4393939E+00  0.0000000E+00  0.1515152E-01  0.9767001E-05  0.0000000E+00  0.1004736E-03
  0.4494950E+00  0.0000000E+00  0.1515152E-01  0.1049968E-04  0.0000000E+00  0.1073208E-03
  0.4595959E+00  0.0000000E+00  0.1515152E-01  0.1131839E-04  0.0000000E+00  0.1146907E-03
  0.4696970E+00  0.0000000E+00  0.1515152E-01  0.1224619E-04  0.0000000E+00  0.1226466E-03
  0.4797980E+00  0.0000000E+00  0.1515152E-01  0.1331679E-04  0.0000000E+00  0.1312686E-03
  0.4898990E+00  0.0000000E+00  0.1515152E-01  0.1458017E-04  0.0000000E+00  0.1406627E-03
  0.5000000E+00  0.0000000E+00  0.1515152E-01  0.1611124E-04  0.0000000E+00  0.1509713E-03
  0.5101010E+00  0.0000000E+00  0.1515152E-01  0.1802318E-04  0.0000000E+00  0.1623893E-03
  0.5202020E+00  0.0000000E+00  0.1515152E-01  0.2049031E-04  0.0000000E+00  0.1751765E-03
  0.5303030E+00  0.0000000E+00  0.1515152E-01  0.2379895E-04  0.0000000E+00  0.1896413E-03
  0.5404040E+00  0.0000000E+00  0.1515152E-01  0.2851012E-04  0.0000000E+00  0.2059968E-03
  0.5505050E+00  0.0000000E+00  0.1515152E-01  0.3613042E-04  0.0000000E+00  0.2238688E-03
  0.5606061E+00  0.0000000E+00  0.1515152E-01  0.5219549E-04  0.0000000E+00  0.2416151E-03
  0.5707071E+00  0.0000000E+00  0.1515152E-01 -0.3294704E-04  0.0000000E+00  0.2168363E-03
  0.5808081E+00  0.0000000E+00  0.1515152E-01 -0.6441976E-04  0.0000000E+00  0.1869354E-03
  0.5909091E+00  0.0000000E+00  0.1515152E-01 -0.3925355E-04  0.0000000E+00  0.1841658E-03
  0.6010101E+00  0.0000000E+00  0.1515152E-01 -0.2731820E-04  0.0000000E+00  0.1710005E-03
  0.6111111E+00  0.0000000E+00  0.1515152E-01 -0.2102467E-04  0.0000000E+00  0.1577332E-03
  0.6212121E+00  0.0000000E+00  0.1515152E-01 -0.1732927E-04  0.0000000E+00  0.1459248E-03
  0.6313131E+00  0.0000000E+00  0.1515152E-01 -0.1493256E-04  0.0000000E+00  0.1355090E-03
  0.6414142E+00  0.0000000E+00  0.1515152E-01 -0.1323876E-04  0.0000000E+00  0.1262140E-03
  0.6515151E+00  0.0000000E+00  0.1515152E-01 -0.1195441E-04  0.0000000E+00  0.1178113E-03
  0.6616161E+00  0.0000000E+00  0.1515152E-01 -0.1092491E-04  0.0000000E+00  0.1101368E-03
  0.6717172E+00  0.0000000E+00  0.1515152E-01 -0.1006382E-04  0.0000000E+00  0.1030747E-03
  0.6818182E+00  0.0000000E+00  0.1515152E-01 -0.9320156E-05  0.0000000E+00  0.9654150E-04
  0.6919192E+00  0.0000000E+00  0.1515152E-01 -0.8662449E-05  0.0000000E+00  0.9047530E-04
  0.7020202E+00  0.0000000E+00  0.1515152E-01 -0.8070437E-05  0.0000000E+00  0.8482840E-04
  0.7121212E+00  0.0000000E+00  0.1515152E-01 -0.7530570E-05  0.0000000E+00  0.7956288E-04
  0.7222222E+00  0.0000000E+00  0.1515152E-01 -0.7033458E-05  0.0000000E+00  0.7464767E-04
  0.7323232E+00  0.0000000E+00  0.1515152E-01 -0.6572366E-05  0.0000000E+00  0.7005667E-04
  0.7424242E+00  0.0000000E+00  0.1515152E-01 -0.6142300E-05  0.0000000E+00  0.6576743E-04
  0.7525253E+00  0.0000000E+00  0.1515152E-01 -0.5739437E-05  0.0000000E+00  0.6176032E-04
  0.7626263E+00  0.0000000E+00  0.1515152E-01 -0.5360759E-05  0.0000000E+00  0.5801793E-04
  0.7727273E+00  0.0000000E+00  0.1515152E-01 -0.5003816E-05  0.0000000E+00  0.5452464E-04
  0.7828283E+00  0.0000000E+00  0.1515152E-01 -0.4666563E-05  0.0000000E+00  0.5126636E-04
  0.7929293E+00  0.0000000E+00  0.1515152E-01 -0.4347255E-05  0.0000000E+00  0.4823022E-04
  0.8030303E+00  0.0000000E+00  0.1515152E-01 -0.4044369E-05  0.0000000E+00  0.4540451E-04
  0.8131313E+00  0.0000000E+00  0.1515152E-01 -0.3756555E-05  0.0000000E+00  0.4277845E-04
  0.8232324E+00  0.0000000E+00  0.1515152E-01 -0.3482595E-05  0.0000000E+00  0.4034216E-04
  0.8333333E+00  0.0000000E+00  0.1515152E-01 -0.3221376E-05  0.0000000E+00  0.3808656E-04
  0.8434343E+00  0.0000000E+00  0.1515152E-01 -0.2971873E-05  0.0000000E+00  0.3600330E-04
  0.8535354E+00  0.0000000E+00  0.1515152E-01 -0.2733129E-05  0.0000000E+00  0.3408471E-04
  0.8636364E+00  0.0000000E+00  0.1515152E-01 -0.2504247E-05  0.0000000E+00  0.3232374E-04
  0.8737374E+00  0.0000000E+00  0.1515152E-01 -0.2284378E-05  0.0000000E+00  0.3071397E-04
  0.8838384E+00  0.0000000E+00  0.1515152E-01 -0.2072715E-05  0.0000000E+00  0.2924952E-04
  0.8939394E+00  0.0000000E+00  0.1515152E-01 -0.1868489E-05  0.0000000E+00  0.2792506E-04
  0.9040404E+00  0.0000000E+00  0.1515152E-01 -0.1670960E-05  0.0000000E+00  0.2673579E-04
  0.9141414E+00  0.0000000E+00  0.1515152E-01 -0.1479416E-05  0.0000000E+00  0.2567738E-04
  0.9242424E+00  0.0000000E+00  0.1515152E-01 -0.1293168E-05  0.0000000E+00  0.2474600E-04
  0.9343435E+00  0.0000000E+00  0.1515152E-01 -0.1111547E-05  0.0000000E+00  0.2393827E-04
  0.9444444E+00  0.0000000E+00  0.1515152E-01 -0.9339023E-06  0.0000000E+00  0.2325127E-04
  0.9545454E+00  0.0000000E+00  0.1515152E-01 -0.7595959E-06  0.0000000E+00  0.2268253E-04
  0.9646465E+00  0.0000000E+00  0.1515152E-01 -0.5880037E-06  0.0000000E+00  0.2222997E-04
  0.9747475E+00  0.0000000E+00  0.1515152E-01 -0.4185112E-06  0.0000000E+00  0.2189197E-04
  0.9848485E+00  0.0000000E+00  0.1515152E-01 -0.2505118E-06  0.0000000E+00  0.2166730E-04
  0.9974747E+00  0.0000000E+00  0.1515152E-01 -0.8340503E-07  0.0000000E+00  0.2155517E-04
  0.5050505E-02  0.0000000E+00  0.2525252E-01  0.7090664E-07  0.0000000E+00  0.9158123E-05
  0.1515152E-01  0.0000000E+00  0.2525252E-01  0.2129421E-06  0.0000000E+00  0.9215419E-05
  0.2525252E-01  0.0000000E+00  0.2525252E-01  0.3556455E-06  0.0000000E+00  0.9330190E-05
  0.3535353E-01  0.0000000E+00  0.2525252E-01  0.4994661E-06  0.0000000E+00  0.9502798E-05
  0.4545455E-01  0.0000000E+00  0.2525252E-01  0.6448583E-06  0.0000000E+00  0.9733787E-05
  0.5555556E-01  0.0000000E+00  0.2525252E-01  0.7922836E-06  0.0000000E+00  0.1002389E-04
  0.6565657E-01  0.0000000E+00  0.2525252E-01  0.9422127E-06  0.0000000E+00  0.1037402E-04
  0.7575758E-01  0.0000000E+00  0.2525252E-01  0.1095128E-05  0.0000000E+00  0.1078529E-04
  0.8585858E-01  0.0000000E+00  0.2525252E-01  0.1251524E-05  0.0000000E+00  0.1125902E-04
  0.9595960E-01  0.0000000E+00  0.2525252E-01  0.1411912E-05  0.0000000E+00  0.1179672E-04
  0.1060606E+00  0.0000000E+00  0.2525252E-01  0.1576823E-05  0.0000000E+00  0.1240012E-04
  0.1161616E+00  0.0000000E+00  0.2525252E-01  0.1746806E-05  0.0000000E+00  0.1307116E-04
  0.1262626E+00  0.0000000E+00  0.2525252E-01  0.1922436E-05  0.0000000E+00  0.1381203E-04
  0.1363636E+00  0.0000000E+00  0.2525252E-01  0.2104313E-05  0.0000000E+00  0.1462513E-04
  0.1464646E+00  0.0000000E+00  0.2525252E-01  0.2293069E-05  0.0000000E+00  0.1551313E-04
  0.1565657E+00  0.0000000E+00  0.2525252E-01  0.2489367E-05  0.0000000E+00  0.1647897E-04
  0.1666667E+00  0.0000000E+00  0.2525252E-01  0.2693909E-05  0.0000000E+00  0.1752584E-04
  0.1767677E+00  0.0000000E+00  0.2525252E-01  0.2907439E-05  0.0000000E+00  0.1865725E-04
  0.1868687E+00  0.0000000E+00  0.2525252E-01  0.3130745E-05  0.0000000E+00  0.1987701E-04
  0.1969697E+00  0.0000000E+00  0.2525252E-01  0.3364667E-05  0.0000000E+00  0.2118928E-04
  0.2070707E+00  0.0000000E+00  0.2525252E-01  0.3610100E-05  0.0000000E+00  0.2259854E-04
  0.2171717E+00  0.0000000E+00  0.2525252E-01  0.3868004E-05  0.0000000E+00  0.2410968E-04
  0.2272727E+00  0.0000000E+00  0.2525252E-01  0.4139405E-05  0.0000000E+00  0.2572799E-04
  0.2373737E+00  0.0000000E+00  0.2525252E-01  0.4425406E-05  0.0000000E+00  0.2745918E-04
  0.2474747E+00  0.0000000E+00  0.2525252E-01  0.4727196E-05  0.0000000E+00  0.2930944E-04
  0.2575758E+00  0.0000000E+00  0.2525252E-01  0.5046055E-05  0.0000000E+00  0.3128546E-04
  0.2676768E+00  0.0000000E+00  0.2525252E-01  0.5383367E-05  0.0000000E+00  0.3339449E-04
  0.2777778E+00  0.0000000E+00  0.2525252E-01  0.5740635E-05  0.0000000E+00  0.3564434E-04
  0.2878788E+00  0.0000000E+00  0.2525252E-01  0.6119485E-05  0.0000000E+00  0.3804350E-04
  0.2979798E+00  0.0000000E+00  0.2525252E-01  0.6521693E-05  0.0000000E+00  0.4060111E-04
  0.3080808E+00  0.0000000E+00  0.2525252E-01  0.6949193E-05  0.0000000E+00  0.4332711E-04
  0.3181818E+00  0.0000000E+00  0.2525252E-01  0.7404105E-05  0.0000000E+00  0.4623223E-04
  0.3282828E+00  0.0000000E+00  0.2525252E-01  0.7888755E-05  0.0000000E+00  0.4932813E-04
  0.3383838E+00  0.0000000E+00  0.2525252E-01  0.8405711E-05  0.0000000E+00  0.5262745E-04
  0.3484848E+00  0.0000000E+00  0.2525252E-01  0.8957822E-05  0.0000000E+00  0.5614392E-04
  0.3585859E+00  0.0000000E+00  0.2525252E-01  0.9548262E-05  0.0000000E+00  0.5989248E-04
  0.3686869E+00  0.0000000E+00  0.2525252E-01  0.1018061E-04  0.0000000E+00  0.6388940E-04
  0.3787879E+00  0.0000000E+00  0.2525252E-01  0.1085892E-04  0.0000000E+00  0.6815246E-04
  0.3888889E+00  0.0000000E+00  0.2525252E-01  0.1158787E-04  0.0000000E+00  0.7270110E-04
  0.3989899E+00  0.0000000E+00  0.2525252E-01  0.1237293E-04  0.0000000E+00  0.7755666E-04
  0.4090909E+00  0.0000000E+00  0.2525252E-01  0.1322063E-04  0.0000000E+00  0.8274265E-04
  0.4191919E+00  0.0000000E+00  0.2525252E-01  0.1413897E-04  0.0000000E+00  0.8828515E-04
  0.4292929E+00  0.0000000E+00  0.2525252E-01  0.1513798E-04  0.0000000E+00  0.9421321E-04
  0.4393939E+00  0.0000000E+00  0.2525252E-01  0.1623069E-04  0.0000000E+00  0.1005595E-03
  0.4494950E+00  0.0000000E+00  0.2525252E-01  0.1743453E-04  0.0000000E+00  0.1073614E-03
  0.4595959E+00  0.0000000E+00  0.2525252E-01  0.1877356E-04  0.0000000E+00  0.1146619E-03
  0.4696970E+00  0.0000000E+00  0.2525252E-01  0.2028196E-04  0.0000000E+00  0.1225122E-03
  0.4797980E+00  0.0000000E+00  0.2525252E-01  0.2200946E-04  0.0000000E+00  0.1309742E-03
  0.4898990E+00  0.0000000E+00  0.2525252E-01  0.2402963E-04  0.0000000E+00  0.1401259E-03
  0.5000000E+00  0.0000000E+00  0.2525252E-01  0.2645213E-04  0.0000000E+00  0.1500693E-03
  0.5101010E+00  0.0000000E+00  0.2525252E-01  0.2943895E-04  0.0000000E+00  0.1609409E-03
  0.5202020E+00  0.0000000E+00  0.2525252E-01  0.3321916E-04  0.0000000E+00  0.1729203E-03
  0.5303030E+00  0.0000000E+00  0.2525252E-01  0.3807122E-04  0.0000000E+00  0.1861906E-03
  0.5404040E+00  0.0000000E+00  0.2525252E-01  0.4413395E-04  0.0000000E+00  0.2005938E-03
  0.5505050E+00  0.0000000E+00  0.2525252E-01  0.5044289E-04  0.0000000E+00  0.2135999E-03
  0.5606061E+00  0.0000000E+00  0.2525252E-01  0.5055213E-04  0.0000000E+00  0.2091525E-03
  0.5707071E+00  0.0000000E+00  0.2525252E-01 -0.7433095E-04  0.0000000E+00  0.1899525E-03
  0.5808081E+00  0.0000000E+00  0.2525252E-01 -0.6308271E-04  0.0000000E+00  0.1785338E-03
  0.5909091E+00  0.0000000E+00  0.2525252E-01 -0.4906989E-04  0.0000000E+00  0.1723396E-03
  0.6010101E+00  0.0000000E+00  0.2525252E-01 -0.3891198E-04  0.0000000E+00  0.1634644E-03
  0.6111111E+00  0.0000000E+00  0.2525252E-01 -0.3209659E-04  0.0000000E+00  0.1534756E-03
  0.6212121E+00  0.0000000E+00  0.2525252E-01 -0.2744967E-04  0.0000000E+00  0.1435781E-03
  0.6313131E+00  0.0000000E+00  0.2525252E-01 -0.2413396E-04  0.0000000E+00  0.1342298E-03
  0.6414142E+00  0.0000000E+00  0.2525252E-01 -0.2164139E-04  0.0000000E+00  0.1255380E-03
  0.6515151E+00  0.0000000E+00  0.2525252E-01 -0.1967352E-04  0.0000000E+00  0.1174844E-03
  0.6616161E+00  0.0000000E+00  0.2525252E-01 -0.1805357E-04  0.0000000E+00  0.1100163E-03
  0.6717172E+00  0.0000000E+00  0.2525252E-01 -0.1667433E-04  0.0000000E+00  0.1030778E-03
  0.6818182E+00  0.0000000E+00  0.2525252E-01 -0.1546882E-04  0.0000000E+00  0.9661864E-04
  0.6919192E+00  0.0000000E+00  0.2525252E-01 -0.1439390E-04  0.0000000E+00  0.9059601E-04
  0.7020202E+00  0.0000000E+00  0.2525252E-01 -0.1342088E-04  0.0000000E+00  0.8497356E-04
  0.7121212E+00  0.0000000E+00  0.2525252E-01 -0.1253006E-04  0.0000000E+00  0.7972034E-04
  0.7222222E+00  0.0000000E+00  0.2525252E-01 -0.1170752E-04  0.0000000E+00  0.7480968E-04
  0.7323232E+00  0.0000000E+00  0.2525252E-01 -0.1094307E-04  0.0000000E+00  0.7021827E-04
  0.7424242E+00  0.0000000E+00  0.2525252E-01 -0.1022905E-04  0.0000000E+00  0.6592549E-04
  0.7525253E+00  0.0000000E+00  0.2525252E-01 -0.9559513E-05  0.0000000E+00  0.6191293E-04
  0.7626263E+00  0.0000000E+00  0.2525252E-01 -0.8929704E-05  0.0000000E+00  0.5816399E-04
  0.7727273E+00  0.0000000E+00  0.2525252E-01 -0.8335723E-05  0.0000000E+00  0.5466360E-04
  0.7828283E+00  0.0000000E+00  0.2525252E-01 -0.7774288E-05  0.0000000E+00  0.5139801E-04
  0.7929293E+00  0.0000000E+00  0.2525252E-01 -0.7242575E-05  0.0000000E+00  0.4835461E-04
  0.8030303E+00  0.0000000E+00  0.2525252E-01 -0.6738104E-05  0.0000000E+00  0.4552183E-04
  0.8131313E+00  0.0000000E+00  0.2525252E-01 -0.6258666E-05  0.0000000E+00  0.4288901E-04
  0.8232324E+00  0.0000000E+00  0.2525252E-01 -0.5802258E-05  0.0000000E+00  0.4044633E-04
  0.8333333E+00  0.0000000E+00  0.2525252E-01 -0.5367048E-05  0.0000000E+00  0.3818474E-04
  0.8434343E+00  0.0000000E+00  0.2525252E-01 -0.4951339E-05  0.0000000E+00  0.3609591E-04
  0.8535354E+00  0.0000000E+00  0.2525252E-01 -0.4553546E-05  0.0000000E+00  0.3417217E-04
  0.8636364E+00  0.0000000E+00  0.2525252E-01 -0.4172180E-05  0.0000000E+00  0.3240647E-04
  0.8737374E+00  0.0000000E+00  0.2525252E-01 -0.3805832E-05  0.0000000E+00  0.3079239E-04
  0.8838384E+00  0.0000000E+00  0.2525252E-01 -0.3453161E-05  0.0000000E+00  0.2932402E-04
  0.8939394E+00  0.0000000E+00  0.2525252E-01 -0.3112885E-05  0.0000000E+00  0.2799604E-04
  0.9040404E+00  0.0000000E+00  0.2525252E-01 -0.2783774E-05  0.0000000E+00  0.2680361E-04
  0.9141414E+00  0.0000000E+00  0.2525252E-01 -0.2464640E-05  0.0000000E+00  0.2574241E-04
  0.9242424E+00  0.0000000E+00  0.2525252E-01 -0.2154338E-05  0.0000000E+00  0.2480858E-04
  0.9343435E+00  0.0000000E+00  0.2525252E-01 -0.1851751E-05  0.0000000E+00  0.2399874E-04
  0.9444444E+00  0.0000000E+00  0.2525252E-01 -0.1555794E-05  0.0000000E+00  0.2330995E-04
  0.9545454E+00  0.0000000E+00  0.2525252E-01 -0.1265405E-05  0.0000000E+00  0.2273972E-04
  0.9646465E+00  0.0000000E+00  0.2525252E-01 -0.9795442E-06  0.0000000E+00  0.2228599E-04
  0.9747475E+00  0.0000000E+00  0.2525252E-01 -0.6971856E-06  0.0000000E+00  0.2194711E-04
  0.9848485E+00  0.0000000E+00  0.2525252E-01 -0.4173184E-06  0.0000000E+00  0.2172186E-04
  0.9974747E+00  0.0000000E+00  0.2525252E-01 -0.1389410E-06  0.0000000E+00  0.2160944E-04
  0.5050505E-02  0.0000000E+00  0.3535353E-01  0.9927365E-07  0.0000000E+00  0.9227304E-05
  0.1515152E-01  0.0000000E+00  0.3535353E-01  0.2981321E-06  0.0000000E+00  0.9284849E-05
  0.2525252E-01  0.0000000E+00  0.3535353E-01  0.4979258E-06  0.0000000E+00  0.9400118E-05
  0.3535353E-01  0.0000000E+00  0.3535353E-01  0.6992835E-06  0.0000000E+00  0.9573472E-05
  0.4545455E-01  0.0000000E+00  0.3535353E-01  0.9028411E-06  0.0000000E+00  0.9805457E-05
  0.5555556E-01  0.0000000E+00  0.3535353E-01  0.1109245E-05  0.0000000E+00  0.1009681E-04
  0.6565657E-01  0.0000000E+00  0.3535353E-01  0.1319153E-05  0.0000000E+00  0.1044844E-04
  0.7575758E-01  0.0000000E+00  0.3535353E-01  0.1533239E-05  0.0000000E+00  0.1086147E-04
  0.8585858E-01  0.0000000E+00  0.3535353E-01  0.1752198E-05  0.0000000E+00  0.1133722E-04
  0.9595960E-01  0.0000000E+00  0.3535353E-01  0.1976744E-05  0.0000000E+00  0.1187720E-04
  0.1060606E+00  0.0000000E+00  0.3535353E-01  0.2207619E-05  0.0000000E+00  0.1248314E-04
  0.1161616E+00  0.0000000E+00  0.3535353E-01  0.2445591E-05  0.0000000E+00  0.1315700E-04
  0.1262626E+00  0.0000000E+00  0.3535353E-01  0.2691464E-05  0.0000000E+00  0.1390095E-04
  0.1363636E+00  0.0000000E+00  0.3535353E-01  0.2946078E-05  0.0000000E+00  0.1471742E-04
  0.1464646E+00  0.0000000E+00  0.3535353E-01  0.3210316E-05  0.0000000E+00  0.1560907E-04
  0.1565657E+00  0.0000000E+00  0.3535353E-01  0.3485105E-05  0.0000000E+00  0.1657884E-04
  0.1666667E+00  0.0000000E+00  0.3535353E-01  0.3771428E-05  0.0000000E+00  0.1762993E-04
  0.1767677E+00  0.0000000E+00  0.3535353E-01  0.4070322E-05  0.0000000E+00  0.1876586E-04
  0.1868687E+00  0.0000000E+00  0.3535353E-01  0.4382890E-05  0.0000000E+00  0.1999043E-04
  0.1969697E+00  0.0000000E+00  0.3535353E-01  0.4710305E-05  0.0000000E+00  0.2130779E-04
  0.2070707E+00  0.0000000E+00  0.3535353E-01  0.5053818E-05  0.0000000E+00  0.2272246E-04
  0.2171717E+00  0.0000000E+00  0.3535353E-01  0.5414769E-05  0.0000000E+00  0.2423930E-04
  0.2272727E+00  0.0000000E+00  0.3535353E-01  0.5794590E-05  0.0000000E+00  0.2586359E-04
  0.2373737E+00  0.0000000E+00  0.3535353E-01  0.6194822E-05  0.0000000E+00  0.2760105E-04
  0.2474747E+00  0.0000000E+00  0.3535353E-01  0.6617121E-05  0.0000000E+00  0.2945786E-04
  0.2575758E+00  0.0000000E+00  0.3535353E-01  0.7063273E-05  0.0000000E+00  0.3144070E-04
  0.2676768E+00  0.0000000E+00  0.3535353E-01  0.7535210E-05  0.0000000E+00  0.3355679E-04
  0.2777778E+00  0.0000000E+00  0.3535353E-01  0.8035020E-05  0.0000000E+00  0.3581393E-04
  0.2878788E+00  0.0000000E+00  0.3535353E-01  0.8564971E-05  0.0000000E+00  0.3822056E-04
  0.2979798E+00  0.0000000E+00  0.3535353E-01  0.9127527E-05  0.0000000E+00  0.4078578E-04