title = "dataset water"
variables = "x", "y", "z", "vx", "vy", "vz"
zone t = "velocities, solution time =  4.700E+01 days        " i =   99, j =   99, k =    1,  f=point
  0.5050505E-02  0.0000000E+00  0.5050505E-02  0.4731587E-07  0.0000000E+00  0.5936922E-04
  0.1515152E-01  0.0000000E+00  0.5050505E-02  0.1420898E-06  0.0000000E+00  0.5956057E-04
  0.2525252E-01  0.0000000E+00  0.5050505E-02  0.2372935E-06  0.0000000E+00  0.5994384E-04
  0.3535353E-01  0.0000000E+00  0.5050505E-02  0.3332192E-06  0.0000000E+00  0.6052024E-04
  0.4545455E-01  0.0000000E+00  0.5050505E-02  0.4301660E-06  0.0000000E+00  0.6129155E-04
  0.5555556E-01  0.0000000E+00  0.5050505E-02  0.5284413E-06  0.0000000E+00  0.6226019E-04
  0.6565657E-01  0.0000000E+00  0.5050505E-02  0.6283638E-06  0.0000000E+00  0.6342925E-04
  0.7575758E-01  0.0000000E+00  0.5050505E-02  0.7302653E-06  0.0000000E+00  0.6480247E-04
  0.8585858E-01  0.0000000E+00  0.5050505E-02  0.8344941E-06  0.0000000E+00  0.6638430E-04
  0.9595960E-01  0.0000000E+00  0.5050505E-02  0.9414179E-06  0.0000000E+00  0.6817993E-04
  0.1060606E+00  0.0000000E+00  0.5050505E-02  0.1051427E-05  0.0000000E+00  0.7019534E-04
  0.1161616E+00  0.0000000E+00  0.5050505E-02  0.1164940E-05  0.0000000E+00  0.7243736E-04
  0.1262626E+00  0.0000000E+00  0.5050505E-02  0.1282405E-05  0.0000000E+00  0.7491371E-04
  0.1363636E+00  0.0000000E+00  0.5050505E-02  0.1404306E-05  0.0000000E+00  0.7763309E-04
  0.1464646E+00  0.0000000E+00  0.5050505E-02  0.1531173E-05  0.0000000E+00  0.8060525E-04
  0.1565657E+00  0.0000000E+00  0.5050505E-02  0.1663581E-05  0.0000000E+00  0.8384109E-04
  0.1666667E+00  0.0000000E+00  0.5050505E-02  0.1802165E-05  0.0000000E+00  0.8735281E-04
  0.1767677E+00  0.0000000E+00  0.5050505E-02  0.1947624E-05  0.0000000E+00  0.9115396E-04
  0.1868687E+00  0.0000000E+00  0.5050505E-02  0.2100736E-05  0.0000000E+00  0.9525968E-04
  0.1969697E+00  0.0000000E+00  0.5050505E-02  0.2262370E-05  0.0000000E+00  0.9968682E-04
  0.2070707E+00  0.0000000E+00  0.5050505E-02  0.2433499E-05  0.0000000E+00  0.1044542E-03
  0.2171717E+00  0.0000000E+00  0.5050505E-02  0.2615222E-05  0.0000000E+00  0.1095828E-03
  0.2272727E+00  0.0000000E+00  0.5050505E-02  0.2808788E-05  0.0000000E+00  0.1150960E-03
  0.2373737E+00  0.0000000E+00  0.5050505E-02  0.3015618E-05  0.0000000E+00  0.1210202E-03
  0.2474747E+00  0.0000000E+00  0.5050505E-02  0.3237343E-05  0.0000000E+00  0.1273850E-03
  0.2575758E+00  0.0000000E+00  0.5050505E-02  0.3475842E-05  0.0000000E+00  0.1342234E-03
  0.2676768E+00  0.0000000E+00  0.5050505E-02  0.3733292E-05  0.0000000E+00  0.1415733E-03
  0.2777778E+00  0.0000000E+00  0.5050505E-02  0.4012228E-05  0.0000000E+00  0.1494770E-03
  0.2878788E+00  0.0000000E+00  0.5050505E-02  0.4315615E-05  0.0000000E+00  0.1579832E-03
  0.2979798E+00  0.0000000E+00  0.5050505E-02  0.4646934E-05  0.0000000E+00  0.1671471E-03
  0.3080808E+00  0.0000000E+00  0.5050505E-02  0.5010289E-05  0.0000000E+00  0.1770324E-03
  0.3181818E+00  0.0000000E+00  0.5050505E-02  0.5410524E-05  0.0000000E+00  0.1877122E-03
  0.3282828E+00  0.0000000E+00  0.5050505E-02  0.5853372E-05  0.0000000E+00  0.1992710E-03
  0.3383838E+00  0.0000000E+00  0.5050505E-02  0.6345600E-05  0.0000000E+00  0.2118070E-03
  0.3484848E+00  0.0000000E+00  0.5050505E-02  0.6895166E-05  0.0000000E+00  0.2254343E-03
  0.3585859E+00  0.0000000E+00  0.5050505E-02  0.7511349E-05  0.0000000E+00  0.2402861E-03
  0.3686869E+00  0.0000000E+00  0.5050505E-02  0.8204796E-05  0.0000000E+00  0.2565172E-03
  0.3787879E+00  0.0000000E+00  0.5050505E-02  0.8987389E-05  0.0000000E+00  0.2743078E-03
  0.3888889E+00  0.0000000E+00  0.5050505E-02  0.9871785E-05  0.0000000E+00  0.2938657E-03
  0.3989899E+00  0.0000000E+00  0.5050505E-02  0.1087035E-04  0.0000000E+00  0.3154275E-03
  0.4090909E+00  0.0000000E+00  0.5050505E-02  0.1199316E-04  0.0000000E+00  0.3392566E-03
  0.4191919E+00  0.0000000E+00  0.5050505E-02  0.1324473E-04  0.0000000E+00  0.3656365E-03
  0.4292929E+00  0.0000000E+00  0.5050505E-02  0.1461934E-04  0.0000000E+00  0.3948546E-03
  0.4393939E+00  0.0000000E+00  0.5050505E-02  0.1609584E-04  0.0000000E+00  0.4271762E-03
  0.4494950E+00  0.0000000E+00  0.5050505E-02  0.1763420E-04  0.0000000E+00  0.4628089E-03
  0.4595959E+00  0.0000000E+00  0.5050505E-02  0.1917819E-04  0.0000000E+00  0.5018650E-03
  0.4696970E+00  0.0000000E+00  0.5050505E-02  0.2066603E-04  0.0000000E+00  0.5443363E-03
  0.4797980E+00  0.0000000E+00  0.5050505E-02  0.2204239E-04  0.0000000E+00  0.5900928E-03
  0.4898990E+00  0.0000000E+00  0.5050505E-02  0.2327248E-04  0.0000000E+00  0.6389079E-03
  0.5000000E+00  0.0000000E+00  0.5050505E-02  0.2444012E-04  0.0000000E+00  0.6906065E-03
  0.5101010E+00  0.0000000E+00  0.5050505E-02  0.2575213E-04  0.0000000E+00  0.7453286E-03
  0.5202020E+00  0.0000000E+00  0.5050505E-02  0.2766270E-04  0.0000000E+00  0.8039466E-03
  0.5303030E+00  0.0000000E+00  0.5050505E-02  0.3129887E-04  0.0000000E+00  0.8691102E-03
  0.5404040E+00  0.0000000E+00  0.5050505E-02  0.3866488E-04  0.0000000E+00  0.9470486E-03
  0.5505050E+00  0.0000000E+00  0.5050505E-02  0.5504786E-04  0.0000000E+00  0.1052457E-02
  0.5606061E+00  0.0000000E+00  0.5050505E-02  0.6874685E-04  0.0000000E+00  0.1193428E-02
  0.5707071E+00  0.0000000E+00  0.5050505E-02 -0.1066499E-04  0.0000000E+00  0.1259806E-02
  0.5808081E+00  0.0000000E+00  0.5050505E-02 -0.9641460E-04  0.0000000E+00  0.1137997E-02
  0.5909091E+00  0.0000000E+00  0.5050505E-02 -0.6171458E-04  0.0000000E+00  0.9597073E-03
  0.6010101E+00  0.0000000E+00  0.5050505E-02 -0.4529706E-04  0.0000000E+00  0.8408391E-03
  0.6111111E+00  0.0000000E+00  0.5050505E-02 -0.3650743E-04  0.0000000E+00  0.7509704E-03
  0.6212121E+00  0.0000000E+00  0.5050505E-02 -0.3039990E-04  0.0000000E+00  0.6781130E-03
  0.6313131E+00  0.0000000E+00  0.5050505E-02 -0.2589536E-04  0.0000000E+00  0.6172604E-03
  0.6414142E+00  0.0000000E+00  0.5050505E-02 -0.2247281E-04  0.0000000E+00  0.5653038E-03
  0.6515151E+00  0.0000000E+00  0.5050505E-02 -0.1978988E-04  0.0000000E+00  0.5201525E-03
  0.6616161E+00  0.0000000E+00  0.5050505E-02 -0.1762302E-04  0.0000000E+00  0.4803740E-03
  0.6717172E+00  0.0000000E+00  0.5050505E-02 -0.1582845E-04  0.0000000E+00  0.4449594E-03
  0.6818182E+00  0.0000000E+00  0.5050505E-02 -0.1431135E-04  0.0000000E+00  0.4131731E-03
  0.6919192E+00  0.0000000E+00  0.5050505E-02 -0.1300633E-04  0.0000000E+00  0.3844629E-03
  0.7020202E+00  0.0000000E+00  0.5050505E-02 -0.1186662E-04  0.0000000E+00  0.3584045E-03
  0.7121212E+00  0.0000000E+00  0.5050505E-02 -0.1085823E-04  0.0000000E+00  0.3346648E-03
  0.7222222E+00  0.0000000E+00  0.5050505E-02 -0.9956377E-05  0.0000000E+00  0.3129778E-03
  0.7323232E+00  0.0000000E+00  0.5050505E-02 -0.9142949E-05  0.0000000E+00  0.2931257E-03
  0.7424242E+00  0.0000000E+00  0.5050505E-02 -0.8404583E-05  0.0000000E+00  0.2749269E-03
  0.7525253E+00  0.0000000E+00  0.5050505E-02 -0.7731170E-05  0.0000000E+00  0.2582261E-03
  0.7626263E+00  0.0000000E+00  0.5050505E-02 -0.7114783E-05  0.0000000E+00  0.2428889E-03
  0.7727273E+00  0.0000000E+00  0.5050505E-02 -0.6548954E-05  0.0000000E+00  0.2287972E-03
  0.7828283E+00  0.0000000E+00  0.5050505E-02 -0.6028209E-05  0.0000000E+00  0.2158465E-03
  0.7929293E+00  0.0000000E+00  0.5050505E-02 -0.5547779E-05  0.0000000E+00  0.2039439E-03
  0.8030303E+00  0.0000000E+00  0.5050505E-02 -0.5103435E-05  0.0000000E+00  0.1930068E-03
  0.8131313E+00  0.0000000E+00  0.5050505E-02 -0.4691390E-05  0.0000000E+00  0.1829613E-03
  0.8232324E+00  0.0000000E+00  0.5050505E-02 -0.4308231E-05  0.0000000E+00  0.1737418E-03
  0.8333333E+00  0.0000000E+00  0.5050505E-02 -0.3950880E-05  0.0000000E+00  0.1652896E-03
  0.8434343E+00  0.0000000E+00  0.5050505E-02 -0.3616557E-05  0.0000000E+00  0.1575525E-03
  0.8535354E+00  0.0000000E+00  0.5050505E-02 -0.3302754E-05  0.0000000E+00  0.1504841E-03
  0.8636364E+00  0.0000000E+00  0.5050505E-02 -0.3007206E-05  0.0000000E+00  0.1440433E-03
  0.8737374E+00  0.0000000E+00  0.5050505E-02 -0.2727863E-05  0.0000000E+00  0.1381935E-03
  0.8838384E+00  0.0000000E+00  0.5050505E-02 -0.2462871E-05  0.0000000E+00  0.1329023E-03
  0.8939394E+00  0.0000000E+00  0.5050505E-02 -0.2210541E-05  0.0000000E+00  0.1281413E-03
  0.9040404E+00  0.0000000E+00  0.5050505E-02 -0.1969337E-05  0.0000000E+00  0.1238852E-03
  0.9141414E+00  0.0000000E+00  0.5050505E-02 -0.1737850E-05  0.0000000E+00  0.1201122E-03
  0.9242424E+00  0.0000000E+00  0.5050505E-02 -0.1514783E-05  0.0000000E+00  0.1168031E-03
  0.9343435E+00  0.0000000E+00  0.5050505E-02 -0.1298934E-05  0.0000000E+00  0.1139416E-03
  0.9444444E+00  0.0000000E+00  0.5050505E-02 -0.1089185E-05  0.0000000E+00  0.1115136E-03
  0.9545454E+00  0.0000000E+00  0.5050505E-02 -0.8844809E-06  0.0000000E+00  0.1095075E-03
  0.9646465E+00  0.0000000E+00  0.5050505E-02 -0.6838271E-06  0.0000000E+00  0.1079137E-03
  0.9747475E+00  0.0000000E+00  0.5050505E-02 -0.4862720E-06  0.0000000E+00  0.1067247E-03
  0.9848485E+00  0.0000000E+00  0.5050505E-02 -0.2909005E-06  0.0000000E+00  0.1059351E-03
  0.9974747E+00  0.0000000E+00  0.5050505E-02 -0.9682433E-07  0.0000000E+00  0.1055412E-03
  0.5050505E-02  0.0000000E+00  0.1515152E-01  0.1417613E-06  0.0000000E+00  0.5935098E-04
  0.1515152E-01  0.0000000E+00  0.1515152E-01  0.4257106E-06  0.0000000E+00  0.5954213E-04
  0.2525252E-01  0.0000000E+00  0.1515152E-01  0.7109481E-06  0.0000000E+00  0.5992501E-04
  0.3535353E-01  0.0000000E+00  0.1515152E-01  0.9983492E-06  0.0000000E+00  0.6050080E-04
  0.4545455E-01  0.0000000E+00  0.1515152E-01  0.1288809E-05  0.0000000E+00  0.6127128E-04
  0.5555556E-01  0.0000000E+00  0.1515152E-01  0.1583246E-05  0.0000000E+00  0.6223887E-04
  0.6565657E-01  0.0000000E+00  0.1515152E-01  0.1882616E-05  0.0000000E+00  0.6340661E-04
  0.7575758E-01  0.0000000E+00  0.1515152E-01  0.2187909E-05  0.0000000E+00  0.6477824E-04
  0.8585858E-01  0.0000000E+00  0.1515152E-01  0.2500169E-05  0.0000000E+00  0.6635817E-04
  0.9595960E-01  0.0000000E+00  0.1515152E-01  0.2820496E-05  0.0000000E+00  0.6815157E-04
  0.1060606E+00  0.0000000E+00  0.1515152E-01  0.3150056E-05  0.0000000E+00  0.7016439E-04
  0.1161616E+00  0.0000000E+00  0.1515152E-01  0.3490100E-05  0.0000000E+00  0.7240340E-04
  0.1262626E+00  0.0000000E+00  0.1515152E-01  0.3841969E-05  0.0000000E+00  0.7487627E-04
  0.1363636E+00  0.0000000E+00  0.1515152E-01  0.4207113E-05  0.0000000E+00  0.7759165E-04
  0.1464646E+00  0.0000000E+00  0.1515152E-01  0.4587110E-05  0.0000000E+00  0.8055922E-04
  0.1565657E+00  0.0000000E+00  0.1515152E-01  0.4983683E-05  0.0000000E+00  0.8378981E-04
  0.1666667E+00  0.0000000E+00  0.1515152E-01  0.5398726E-05  0.0000000E+00  0.8729550E-04
  0.1767677E+00  0.0000000E+00  0.1515152E-01  0.5834329E-05  0.0000000E+00  0.9108976E-04
  0.1868687E+00  0.0000000E+00  0.1515152E-01  0.6292814E-05  0.0000000E+00  0.9518759E-04
  0.1969697E+00  0.0000000E+00  0.1515152E-01  0.6776774E-05  0.0000000E+00  0.9960570E-04
  0.2070707E+00  0.0000000E+00  0.1515152E-01  0.7289115E-05  0.0000000E+00  0.1043627E-03
  0.2171717E+00  0.0000000E+00  0.1515152E-01  0.7833117E-05  0.0000000E+00  0.1094794E-03
  0.2272727E+00  0.0000000E+00  0.1515152E-01  0.8412500E-05  0.0000000E+00  0.1149789E-03
  0.2373737E+00  0.0000000E+00  0.1515152E-01  0.9031502E-05  0.0000000E+00  0.1208874E-03
  0.2474747E+00  0.0000000E+00  0.1515152E-01  0.9694984E-05  0.0000000E+00  0.1272338E-03
  0.2575758E+00  0.0000000E+00  0.1515152E-01  0.1040854E-04  0.0000000E+00  0.1340512E-03
  0.2676768E+00  0.0000000E+00  0.1515152E-01  0.1117867E-04  0.0000000E+00  0.1413765E-03
  0.2777778E+00  0.0000000E+00  0.1515152E-01  0.1201290E-04  0.0000000E+00  0.1492517E-03
  0.2878788E+00  0.0000000E+00  0.1515152E-01  0.1292006E-04  0.0000000E+00  0.1577246E-03
  0.2979798E+00  0.0000000E+00  0.1515152E-01  0.1391053E-04  0.0000000E+00  0.1668495E-03
  0.3080808E+00  0.0000000E+00  0.1515152E-01  0.1499651E-04  0.0000000E+00  0.1766890E-03
  0.3181818E+00  0.0000000E+00  0.1515152E-01  0.1619243E-04  0.0000000E+00  0.1873149E-03
  0.3282828E+00  0.0000000E+00  0.1515152E-01  0.1751539E-04  0.0000000E+00  0.1988102E-03
  0.3383838E+00  0.0000000E+00  0.1515152E-01  0.1898556E-04  0.0000000E+00  0.2112712E-03
  0.3484848E+00  0.0000000E+00  0.1515152E-01  0.2062677E-04  0.0000000E+00  0.2248103E-03
  0.3585859E+00  0.0000000E+00  0.1515152E-01  0.2246686E-04  0.0000000E+00  0.2395582E-03
  0.3686869E+00  0.0000000E+00  0.1515152E-01  0.2453795E-04  0.0000000E+00  0.2556682E-03
  0.3787879E+00  0.0000000E+00  0.1515152E-01  0.2687620E-04  0.0000000E+00  0.2733190E-03
  0.3888889E+00  0.0000000E+00  0.1515152E-01  0.2952065E-04  0.0000000E+00  0.2927187E-03
  0.3989899E+00  0.0000000E+00  0.1515152E-01  0.3251030E-04  0.0000000E+00  0.3141073E-03
  0.4090909E+00  0.0000000E+00  0.1515152E-01  0.3587844E-04  0.0000000E+00  0.3377568E-03
  0.4191919E+00  0.0000000E+00  0.1515152E-01  0.3964281E-04  0.0000000E+00  0.3639668E-03
  0.4292929E+00  0.0000000E+00  0.1515152E-01  0.4379077E-04  0.0000000E+00  0.3930503E-03
  0.4393939E+00  0.0000000E+00  0.1515152E-01  0.4826108E-04  0.0000000E+00  0.4253062E-03
  0.4494950E+00  0.0000000E+00  0.1515152E-01  0.5292998E-04  0.0000000E+00  0.4609752E-03
  0.4595959E+00  0.0000000E+00  0.1515152E-01  0.5761716E-04  0.0000000E+00  0.5001887E-03
  0.4696970E+00  0.0000000E+00  0.1515152E-01  0.6212458E-04  0.0000000E+00  0.5429338E-03
  0.4797980E+00  0.0000000E+00  0.1515152E-01  0.6627213E-04  0.0000000E+00  0.5890494E-03
  0.4898990E+00  0.0000000E+00  0.1515152E-01  0.6986418E-04  0.0000000E+00  0.6381658E-03
  0.5000000E+00  0.0000000E+00  0.1515152E-01  0.7315132E-04  0.0000000E+00  0.6898626E-03
  0.5101010E+00  0.0000000E+00  0.1515152E-01  0.7664430E-04  0.0000000E+00  0.7439080E-03
  0.5202020E+00  0.0000000E+00  0.1515152E-01  0.8132659E-04  0.0000000E+00  0.8002542E-03
  0.5303030E+00  0.0000000E+00  0.1515152E-01  0.9041749E-04  0.0000000E+00  0.8600043E-03
  0.5404040E+00  0.0000000E+00  0.1515152E-01  0.1078118E-03  0.0000000E+00  0.9252348E-03
  0.5505050E+00  0.0000000E+00  0.1515152E-01  0.1401385E-03  0.0000000E+00  0.9935317E-03
  0.5606061E+00  0.0000000E+00  0.1515152E-01  0.1767710E-03  0.0000000E+00  0.1072421E-02
  0.5707071E+00  0.0000000E+00  0.1515152E-01 -0.9044359E-04  0.0000000E+00  0.1038668E-02
  0.5808081E+00  0.0000000E+00  0.1515152E-01 -0.1916490E-03  0.0000000E+00  0.9606947E-03
  0.5909091E+00  0.0000000E+00  0.1515152E-01 -0.1689835E-03  0.0000000E+00  0.9106571E-03
  0.6010101E+00  0.0000000E+00  0.1515152E-01 -0.1290583E-03  0.0000000E+00  0.8176281E-03
  0.6111111E+00  0.0000000E+00  0.1515152E-01 -0.1071281E-03  0.0000000E+00  0.7379772E-03
  0.6212121E+00  0.0000000E+00  0.1515152E-01 -0.8976618E-04  0.0000000E+00  0.6692964E-03
  0.6313131E+00  0.0000000E+00  0.1515152E-01 -0.7671902E-04  0.0000000E+00  0.6110125E-03
  0.6414142E+00  0.0000000E+00  0.1515152E-01 -0.6676143E-04  0.0000000E+00  0.5607600E-03
  0.6515151E+00  0.0000000E+00  0.1515152E-01 -0.5891625E-04  0.0000000E+00  0.5167498E-03
  0.6616161E+00  0.0000000E+00  0.1515152E-01 -0.5254659E-04  0.0000000E+00  0.4777506E-03
  0.6717172E+00  0.0000000E+00  0.1515152E-01 -0.4724877E-04  0.0000000E+00  0.4428834E-03
  0.6818182E+00  0.0000000E+00  0.1515152E-01 -0.4275620E-04  0.0000000E+00  0.4114918E-03
  0.6919192E+00  0.0000000E+00  0.1515152E-01 -0.3888267E-04  0.0000000E+00  0.3830716E-03
  0.7020202E+00  0.0000000E+00  0.1515152E-01 -0.3549326E-04  0.0000000E+00  0.3572295E-03
  0.7121212E+00  0.0000000E+00  0.1515152E-01 -0.3248929E-04  0.0000000E+00  0.3336544E-03
  0.7222222E+00  0.0000000E+00  0.1515152E-01 -0.2979875E-04  0.0000000E+00  0.3120954E-03
  0.7323232E+00  0.0000000E+00  0.1515152E-01 -0.2736915E-04  0.0000000E+00  0.2923461E-03
  0.7424242E+00  0.0000000E+00  0.1515152E-01 -0.2516181E-04  0.0000000E+00  0.2742322E-03
  0.7525253E+00  0.0000000E+00  0.1515152E-01 -0.2314741E-04  0.0000000E+00  0.2576036E-03
  0.7626263E+00  0.0000000E+00  0.1515152E-01 -0.2130288E-04  0.0000000E+00  0.2423290E-03
  0.7727273E+00  0.0000000E+00  0.1515152E-01 -0.1960924E-04  0.0000000E+00  0.2282924E-03
  0.7828283E+00  0.0000000E+00  0.1515152E-01 -0.1805036E-04  0.0000000E+00  0.2153906E-03
  0.7929293E+00  0.0000000E+00  0.1515152E-01 -0.1661207E-04  0.0000000E+00  0.2035317E-03
  0.8030303E+00  0.0000000E+00  0.1515152E-01 -0.1528177E-04  0.0000000E+00  0.1926334E-03
  0.8131313E+00  0.0000000E+00  0.1515152E-01 -0.1404815E-04  0.0000000E+00  0.1826227E-03
  0.8232324E+00  0.0000000E+00  0.1515152E-01 -0.1290099E-04  0.0000000E+00  0.1734341E-03
  0.8333333E+00  0.0000000E+00  0.1515152E-01 -0.1183109E-04  0.0000000E+00  0.1650093E-03
  0.8434343E+00  0.0000000E+00  0.1515152E-01 -0.1083010E-04  0.0000000E+00  0.1572966E-03
  0.8535354E+00  0.0000000E+00  0.1515152E-01 -0.9890537E-05  0.0000000E+00  0.1502499E-03
  0.8636364E+00  0.0000000E+00  0.1515152E-01 -0.9005600E-05  0.0000000E+00  0.1438282E-03
  0.8737374E+00  0.0000000E+00  0.1515152E-01 -0.8169161E-05  0.0000000E+00  0.1379952E-03
  0.8838384E+00  0.0000000E+00  0.1515152E-01 -0.7375664E-05  0.0000000E+00  0.1327188E-03
  0.8939394E+00  0.0000000E+00  0.1515152E-01 -0.6620062E-05  0.0000000E+00  0.1279706E-03
  0.9040404E+00  0.0000000E+00  0.1515152E-01 -0.5897755E-05  0.0000000E+00  0.1237258E-03
  0.9141414E+00  0.0000000E+00  0.1515152E-01 -0.5204528E-05  0.0000000E+00  0.1199624E-03
  0.9242424E+00  0.0000000E+00  0.1515152E-01 -0.4536502E-05  0.0000000E+00  0.1166617E-03
  0.9343435E+00  0.0000000E+00  0.1515152E-01 -0.3890083E-05  0.0000000E+00  0.1138072E-03
  0.9444444E+00  0.0000000E+00  0.1515152E-01 -0.3261920E-05  0.0000000E+00  0.1113851E-03
  0.9545454E+00  0.0000000E+00  0.1515152E-01 -0.2648863E-05  0.0000000E+00  0.1093837E-03
  0.9646465E+00  0.0000000E+00  0.1515152E-01 -0.2047935E-05  0.0000000E+00  0.1077936E-03
  0.9747475E+00  0.0000000E+00  0.1515152E-01 -0.1456288E-05  0.0000000E+00  0.1066074E-03
  0.9848485E+00  0.0000000E+00  0.1515152E-01 -0.8711851E-06  0.0000000E+00  0.1058196E-03
  0.9974747E+00  0.0000000E+00  0.1515152E-01 -0.2899670E-06  0.0000000E+00  0.1054265E-03
  0.5050505E-02  0.0000000E+00  0.2525252E-01  0.2357895E-06  0.0000000E+00  0.5931638E-04
  0.1515152E-01  0.0000000E+00  0.2525252E-01  0.7080788E-06  0.0000000E+00  0.5950714E-04
  0.2525252E-01  0.0000000E+00  0.2525252E-01  0.1182510E-05  0.0000000E+00  0.5988925E-04
  0.3535353E-01  0.0000000E+00  0.2525252E-01  0.1660537E-05  0.0000000E+00  0.6046385E-04
  0.4545455E-01  0.0000000E+00  0.2525252E-01  0.2143643E-05  0.0000000E+00  0.6123272E-04
  0.5555556E-01  0.0000000E+00  0.2525252E-01  0.2633355E-05  0.0000000E+00  0.6219823E-04
  0.6565657E-01  0.0000000E+00  0.2525252E-01  0.3131255E-05  0.0000000E+00  0.6336340E-04
  0.7575758E-01  0.0000000E+00  0.2525252E-01  0.3638988E-05  0.0000000E+00  0.6473191E-04
  0.8585858E-01  0.0000000E+00  0.2525252E-01  0.4158282E-05  0.0000000E+00  0.6630815E-04
  0.9595960E-01  0.0000000E+00  0.2525252E-01  0.4690960E-05  0.0000000E+00  0.6809719E-04
  0.1060606E+00  0.0000000E+00  0.2525252E-01  0.5238958E-05  0.0000000E+00  0.7010493E-04
  0.1161616E+00  0.0000000E+00  0.2525252E-01  0.5804345E-05  0.0000000E+00  0.7233806E-04
  0.1262626E+00  0.0000000E+00  0.2525252E-01  0.6389343E-05  0.0000000E+00  0.7480414E-04
  0.1363636E+00  0.0000000E+00  0.2525252E-01  0.6996353E-05  0.0000000E+00  0.7751171E-04
  0.1464646E+00  0.0000000E+00  0.2525252E-01  0.7627987E-05  0.0000000E+00  0.8047031E-04
  0.1565657E+00  0.0000000E+00  0.2525252E-01  0.8287095E-05  0.0000000E+00  0.8369063E-04
  0.1666667E+00  0.0000000E+00  0.2525252E-01  0.8976807E-05  0.0000000E+00  0.8718455E-04
  0.1767677E+00  0.0000000E+00  0.2525252E-01  0.9700580E-05  0.0000000E+00  0.9096533E-04
  0.1868687E+00  0.0000000E+00  0.2525252E-01  0.1046225E-04  0.0000000E+00  0.9504773E-04
  0.1969697E+00  0.0000000E+00  0.2525252E-01  0.1126609E-04  0.0000000E+00  0.9944816E-04
  0.2070707E+00  0.0000000E+00  0.2525252E-01  0.1211690E-04  0.0000000E+00  0.1041849E-03
  0.2171717E+00  0.0000000E+00  0.2525252E-01  0.1302009E-04  0.0000000E+00  0.1092783E-03
  0.2272727E+00  0.0000000E+00  0.2525252E-01  0.1398179E-04  0.0000000E+00  0.1147510E-03
  0.2373737E+00  0.0000000E+00  0.2525252E-01  0.1500896E-04  0.0000000E+00  0.1206286E-03
  0.2474747E+00  0.0000000E+00  0.2525252E-01  0.1610961E-04  0.0000000E+00  0.1269394E-03
  0.2575758E+00  0.0000000E+00  0.2525252E-01  0.1729295E-04  0.0000000E+00  0.1337155E-03
  0.2676768E+00  0.0000000E+00  0.2525252E-01  0.1856962E-04  0.0000000E+00  0.1409929E-03
  0.2777778E+00  0.0000000E+00  0.2525252E-01  0.1995201E-04  0.0000000E+00  0.1488123E-03
  0.2878788E+00  0.0000000E+00  0.2525252E-01  0.2145462E-04  0.0000000E+00  0.1572201E-03
  0.2979798E+00  0.0000000E+00  0.2525252E-01  0.2309445E-04  0.0000000E+00  0.1662688E-03
  0.3080808E+00  0.0000000E+00  0.2525252E-01  0.2489154E-04  0.0000000E+00  0.1760187E-03
  0.3181818E+00  0.0000000E+00  0.2525252E-01  0.2686960E-04  0.0000000E+00  0.1865392E-03
  0.3282828E+00  0.0000000E+00  0.2525252E-01  0.2905672E-04  0.0000000E+00  0.1979102E-03
  0.3383838E+00  0.0000000E+00  0.2525252E-01  0.3148619E-04  0.0000000E+00  0.2102244E-03
  0.3484848E+00  0.0000000E+00  0.2525252E-01  0.3419740E-04  0.0000000E+00  0.2235901E-03
  0.3585859E+00  0.0000000E+00  0.2525252E-01  0.3723674E-04  0.0000000E+00  0.2381338E-03
  0.3686869E+00  0.0000000E+00  0.2525252E-01  0.4065823E-04  0.0000000E+00  0.2540044E-03
  0.3787879E+00  0.0000000E+00  0.2525252E-01  0.4452366E-04  0.0000000E+00  0.2713773E-03
  0.3888889E+00  0.0000000E+00  0.2525252E-01  0.4890134E-04  0.0000000E+00  0.2904600E-03
  0.3989899E+00  0.0000000E+00  0.2525252E-01  0.5386247E-04  0.0000000E+00  0.3114975E-03
  0.4090909E+00  0.0000000E+00  0.2525252E-01  0.5947280E-04  0.0000000E+00  0.3347767E-03
  0.4191919E+00  0.0000000E+00  0.2525252E-01  0.6577686E-04  0.0000000E+00  0.3606283E-03
  0.4292929E+00  0.0000000E+00  0.2525252E-01  0.7277109E-04  0.0000000E+00  0.3894189E-03
  0.4393939E+00  0.0000000E+00  0.2525252E-01  0.8036517E-04  0.0000000E+00  0.4215227E-03
  0.4494950E+00  0.0000000E+00  0.2525252E-01  0.8834212E-04  0.0000000E+00  0.4572614E-03
  0.4595959E+00  0.0000000E+00  0.2525252E-01  0.9635651E-04  0.0000000E+00  0.4968130E-03
  0.4696970E+00  0.0000000E+00  0.2525252E-01  0.1040365E-03  0.0000000E+00  0.5401577E-03
  0.4797980E+00  0.0000000E+00  0.2525252E-01  0.1111060E-03  0.0000000E+00  0.5871501E-03
  0.4898990E+00  0.0000000E+00  0.2525252E-01  0.1167764E-03  0.0000000E+00  0.6371202E-03
  0.5000000E+00  0.0000000E+00  0.2525252E-01  0.1216498E-03  0.0000000E+00  0.6891756E-03
  0.5101010E+00  0.0000000E+00  0.2525252E-01  0.1263558E-03  0.0000000E+00  0.7427176E-03
  0.5202020E+00  0.0000000E+00  0.2525252E-01  0.1308180E-03  0.0000000E+00  0.7959092E-03
  0.5303030E+00  0.0000000E+00  0.2525252E-01  0.1418318E-03  0.0000000E+00  0.8484990E-03
  0.5404040E+00  0.0000000E+00  0.2525252E-01  0.1633739E-03  0.0000000E+00  0.9033305E-03
  0.5505050E+00  0.0000000E+00  0.2525252E-01  0.1939014E-03  0.0000000E+00  0.9588280E-03
  0.5606061E+00  0.0000000E+00  0.2525252E-01  0.1967029E-03  0.0000000E+00  0.9652000E-03
  0.5707071E+00  0.0000000E+00  0.2525252E-01 -0.1753811E-03  0.0000000E+00  0.9261529E-03
  0.5808081E+00  0.0000000E+00  0.2525252E-01 -0.2170700E-03  0.0000000E+00  0.8779600E-03
  0.5909091E+00  0.0000000E+00  0.2525252E-01 -0.2280705E-03  0.0000000E+00  0.8326468E-03
  0.6010101E+00  0.0000000E+00  0.2525252E-01 -0.1966368E-03  0.0000000E+00  0.7851329E-03
  0.6111111E+00  0.0000000E+00  0.2525252E-01 -0.1737950E-03  0.0000000E+00  0.7175330E-03
  0.6212121E+00  0.0000000E+00  0.2525252E-01 -0.1453257E-03  0.0000000E+00  0.6532139E-03
  0.6313131E+00  0.0000000E+00  0.2525252E-01 -0.1248269E-03  0.0000000E+00  0.5993998E-03
  0.6414142E+00  0.0000000E+00  0.2525252E-01 -0.1092182E-03  0.0000000E+00  0.5522779E-03
  0.6515151E+00  0.0000000E+00  0.2525252E-01 -0.9678806E-04  0.0000000E+00  0.5103581E-03
  0.6616161E+00  0.0000000E+00  0.2525252E-01 -0.8657953E-04  0.0000000E+00  0.4727889E-03
  0.6717172E+00  0.0000000E+00  0.2525252E-01 -0.7801637E-04  0.0000000E+00  0.4389353E-03
  0.6818182E+00  0.0000000E+00  0.2525252E-01 -0.7071248E-04  0.0000000E+00  0.4082807E-03
  0.6919192E+00  0.0000000E+00  0.2525252E-01 -0.6438753E-04  0.0000000E+00  0.3804045E-03
  0.7020202E+00  0.0000000E+00  0.2525252E-01 -0.5883238E-04  0.0000000E+00  0.3549690E-03
  0.7121212E+00  0.0000000E+00  0.2525252E-01 -0.5389234E-04  0.0000000E+00  0.3317029E-03
  0.7222222E+00  0.0000000E+00  0.2525252E-01 -0.4945482E-04  0.0000000E+00  0.3103852E-03
  0.7323232E+00  0.0000000E+00  0.2525252E-01 -0.4543830E-04  0.0000000E+00  0.2908302E-03
  0.7424242E+00  0.0000000E+00  0.2525252E-01 -0.4178293E-04  0.0000000E+00  0.2728780E-03
  0.7525253E+00  0.0000000E+00  0.2525252E-01 -0.3844319E-04  0.0000000E+00  0.2563877E-03
  0.7626263E+00  0.0000000E+00  0.2525252E-01 -0.3538284E-04  0.0000000E+00  0.2412340E-03
  0.7727273E+00  0.0000000E+00  0.2525252E-01 -0.3257169E-04  0.0000000E+00  0.2273043E-03
  0.7828283E+00  0.0000000E+00  0.2525252E-01 -0.2998362E-04  0.0000000E+00  0.2144978E-03
  0.7929293E+00  0.0000000E+00  0.2525252E-01 -0.2759551E-04  0.0000000E+00  0.2027240E-03
  0.8030303E+00  0.0000000E+00  0.2525252E-01 -0.2538660E-04  0.0000000E+00  0.1919019E-03
  0.8131313E+00  0.0000000E+00  0.2525252E-01 -0.2333815E-04  0.0000000E+00  0.1819591E-03
  0.8232324E+00  0.0000000E+00  0.2525252E-01 -0.2143321E-04  0.0000000E+00  0.1728311E-03
  0.8333333E+00  0.0000000E+00  0.2525252E-01 -0.1965647E-04  0.0000000E+00  0.1644602E-03
  0.8434343E+00  0.0000000E+00  0.2525252E-01 -0.1799411E-04  0.0000000E+00  0.1567954E-03
  0.8535354E+00  0.0000000E+00  0.2525252E-01 -0.1643364E-04  0.0000000E+00  0.1497910E-03
  0.8636364E+00  0.0000000E+00  0.2525252E-01 -0.1496380E-04  0.0000000E+00  0.1434067E-03
  0.8737374E+00  0.0000000E+00  0.2525252E-01 -0.1357441E-04  0.0000000E+00  0.1376067E-03
  0.8838384E+00  0.0000000E+00  0.2525252E-01 -0.1225625E-04  0.0000000E+00  0.1323592E-03
  0.8939394E+00  0.0000000E+00  0.2525252E-01 -0.1100094E-04  0.0000000E+00  0.1276364E-03
  0.9040404E+00  0.0000000E+00  0.2525252E-01 -0.9800870E-05  0.0000000E+00  0.1234136E-03
  0.9141414E+00  0.0000000E+00  0.2525252E-01 -0.8649035E-05  0.0000000E+00  0.1196693E-03
  0.9242424E+00  0.0000000E+00  0.2525252E-01 -0.7539009E-05  0.0000000E+00  0.1163849E-03
  0.9343435E+00  0.0000000E+00  0.2525252E-01 -0.6464831E-05  0.0000000E+00  0.1135442E-03
  0.9444444E+00  0.0000000E+00  0.2525252E-01 -0.5420948E-05  0.0000000E+00  0.1111336E-03
  0.9545454E+00  0.0000000E+00  0.2525252E-01 -0.4402139E-05  0.0000000E+00  0.1091416E-03
  0.9646465E+00  0.0000000E+00  0.2525252E-01 -0.3403464E-05  0.0000000E+00  0.1075588E-03
  0.9747475E+00  0.0000000E+00  0.2525252E-01 -0.2420204E-05  0.0000000E+00  0.1063779E-03
  0.9848485E+00  0.0000000E+00  0.2525252E-01 -0.1447818E-05  0.0000000E+00  0.1055936E-03
  0.9974747E+00  0.0000000E+00  0.2525252E-01 -0.4818932E-06  0.0000000E+00  0.1052023E-03
  0.5050505E-02  0.0000000E+00  0.3535353E-01  0.3293141E-06  0.0000000E+00  0.5926727E-04
  0.1515152E-01  0.0000000E+00  0.3535353E-01  0.9889330E-06  0.0000000E+00  0.5945748E-04
  0.2525252E-01  0.0000000E+00  0.3535353E-01  0.1651537E-05  0.0000000E+00  0.5983845E-04
  0.3535353E-01  0.0000000E+00  0.3535353E-01  0.2319150E-05  0.0000000E+00  0.6041132E-04
  0.4545455E-01  0.0000000E+00  0.3535353E-01  0.2993836E-05  0.0000000E+00  0.6117783E-04
  0.5555556E-01  0.0000000E+00  0.3535353E-01  0.3677721E-05  0.0000000E+00  0.6214031E-04
  0.6565657E-01  0.0000000E+00  0.3535353E-01  0.4373001E-05  0.0000000E+00  0.6330172E-04
  0.7575758E-01  0.0000000E+00  0.3535353E-01  0.5081966E-05  0.0000000E+00  0.6466570E-04
  0.8585858E-01  0.0000000E+00  0.3535353E-01  0.5807016E-05  0.0000000E+00  0.6623653E-04
  0.9595960E-01  0.0000000E+00  0.3535353E-01  0.6550685E-05  0.0000000E+00  0.6801923E-04
  0.1060606E+00  0.0000000E+00  0.3535353E-01  0.7315661E-05  0.0000000E+00  0.7001956E-04
  0.1161616E+00  0.0000000E+00  0.3535353E-01  0.8104815E-05  0.0000000E+00  0.7224410E-04
  0.1262626E+00  0.0000000E+00  0.3535353E-01  0.8921232E-05  0.0000000E+00  0.7470027E-04
  0.1363636E+00  0.0000000E+00  0.3535353E-01  0.9768242E-05  0.0000000E+00  0.7739643E-04
  0.1464646E+00  0.0000000E+00  0.3535353E-01  0.1064946E-04  0.0000000E+00  0.8034195E-04
  0.1565657E+00  0.0000000E+00  0.3535353E-01  0.1156884E-04  0.0000000E+00  0.8354726E-04
  0.1666667E+00  0.0000000E+00  0.3535353E-01  0.1253071E-04  0.0000000E+00  0.8702401E-04
  0.1767677E+00  0.0000000E+00  0.3535353E-01  0.1353986E-04  0.0000000E+00  0.9078513E-04
  0.1868687E+00  0.0000000E+00  0.3535353E-01  0.1460158E-04  0.0000000E+00  0.9484501E-04
  0.1969697E+00  0.0000000E+00  0.3535353E-01  0.1572177E-04  0.0000000E+00  0.9921964E-04
  0.2070707E+00  0.0000000E+00  0.3535353E-01  0.1690706E-04  0.0000000E+00  0.1039268E-03
  0.2171717E+00  0.0000000E+00  0.3535353E-01  0.1816489E-04  0.0000000E+00  0.1089862E-03
  0.2272727E+00  0.0000000E+00  0.3535353E-01  0.1950369E-04  0.0000000E+00  0.1144199E-03
  0.2373737E+00  0.0000000E+00  0.3535353E-01  0.2093307E-04  0.0000000E+00  0.1202525E-03
  0.2474747E+00  0.0000000E+00  0.3535353E-01  0.2246399E-04  0.0000000E+00  0.1265114E-03
  0.2575758E+00  0.0000000E+00  0.3535353E-01  0.2410909E-04  0.0000000E+00  0.1332274E-03
  0.2676768E+00  0.0000000E+00  0.3535353E-01  0.2588296E-04  0.0000000E+00  0.1404350E-03
  0.2777778E+00  0.0000000E+00  0.3535353E-01  0.2780258E-04  0.0000000E+00  0.1481732E-03
  0.2878788E+00  0.0000000E+00  0.3535353E-01  0.2988775E-04  0.0000000E+00  0.1564862E-03
  0.2979798E+00  0.0000000E+00  0.3535353E-01  0.3216175E-04  0.0000000E+00  0.1654239E-03