title = "dataset water"
variables = "x", "y", "z", "vx", "vy", "vz"
zone t = "velocities, solution time =  5.200E+01 days        " i =   99, j =   99, k =    1,  f=point
  0.5050505E-02  0.0000000E+00  0.5050505E-02  0.6565398E-07  0.0000000E+00  0.9766494E-04
  0.1515152E-01  0.0000000E+00  0.5050505E-02  0.1971618E-06  0.0000000E+00  0.9793169E-04
  0.2525252E-01  0.0000000E+00  0.5050505E-02  0.3292747E-06  0.0000000E+00  0.9846602E-04
  0.3535353E-01  0.0000000E+00  0.5050505E-02  0.4624067E-06  0.0000000E+00  0.9926964E-04
  0.4545455E-01  0.0000000E+00  0.5050505E-02  0.5969826E-06  0.0000000E+00  0.1003451E-03
  0.5555556E-01  0.0000000E+00  0.5050505E-02  0.7334419E-06  0.0000000E+00  0.1016959E-03
  0.6565657E-01  0.0000000E+00  0.5050505E-02  0.8722419E-06  0.0000000E+00  0.1033264E-03
  0.7575758E-01  0.0000000E+00  0.5050505E-02  0.1013863E-05  0.0000000E+00  0.1052421E-03
  0.8585858E-01  0.0000000E+00  0.5050505E-02  0.1158812E-05  0.0000000E+00  0.1074493E-03
  0.9595960E-01  0.0000000E+00  0.5050505E-02  0.1307628E-05  0.0000000E+00  0.1099557E-03
  0.1060606E+00  0.0000000E+00  0.5050505E-02  0.1460892E-05  0.0000000E+00  0.1127699E-03
  0.1161616E+00  0.0000000E+00  0.5050505E-02  0.1619226E-05  0.0000000E+00  0.1159019E-03
  0.1262626E+00  0.0000000E+00  0.5050505E-02  0.1783311E-05  0.0000000E+00  0.1193631E-03
  0.1363636E+00  0.0000000E+00  0.5050505E-02  0.1953891E-05  0.0000000E+00  0.1231663E-03
  0.1464646E+00  0.0000000E+00  0.5050505E-02  0.2131783E-05  0.0000000E+00  0.1273261E-03
  0.1565657E+00  0.0000000E+00  0.5050505E-02  0.2317898E-05  0.0000000E+00  0.1318587E-03
  0.1666667E+00  0.0000000E+00  0.5050505E-02  0.2513253E-05  0.0000000E+00  0.1367827E-03
  0.1767677E+00  0.0000000E+00  0.5050505E-02  0.2718994E-05  0.0000000E+00  0.1421187E-03
  0.1868687E+00  0.0000000E+00  0.5050505E-02  0.2936419E-05  0.0000000E+00  0.1478900E-03
  0.1969697E+00  0.0000000E+00  0.5050505E-02  0.3167016E-05  0.0000000E+00  0.1541229E-03
  0.2070707E+00  0.0000000E+00  0.5050505E-02  0.3412500E-05  0.0000000E+00  0.1608471E-03
  0.2171717E+00  0.0000000E+00  0.5050505E-02  0.3674863E-05  0.0000000E+00  0.1680962E-03
  0.2272727E+00  0.0000000E+00  0.5050505E-02  0.3956442E-05  0.0000000E+00  0.1759086E-03
  0.2373737E+00  0.0000000E+00  0.5050505E-02  0.4260001E-05  0.0000000E+00  0.1843280E-03
  0.2474747E+00  0.0000000E+00  0.5050505E-02  0.4588835E-05  0.0000000E+00  0.1934047E-03
  0.2575758E+00  0.0000000E+00  0.5050505E-02  0.4946910E-05  0.0000000E+00  0.2031969E-03
  0.2676768E+00  0.0000000E+00  0.5050505E-02  0.5339039E-05  0.0000000E+00  0.2137720E-03
  0.2777778E+00  0.0000000E+00  0.5050505E-02  0.5771121E-05  0.0000000E+00  0.2252092E-03
  0.2878788E+00  0.0000000E+00  0.5050505E-02  0.6250448E-05  0.0000000E+00  0.2376018E-03
  0.2979798E+00  0.0000000E+00  0.5050505E-02  0.6786128E-05  0.0000000E+00  0.2510611E-03
  0.3080808E+00  0.0000000E+00  0.5050505E-02  0.7389651E-05  0.0000000E+00  0.2657205E-03
  0.3181818E+00  0.0000000E+00  0.5050505E-02  0.8075669E-05  0.0000000E+00  0.2817419E-03
  0.3282828E+00  0.0000000E+00  0.5050505E-02  0.8863073E-05  0.0000000E+00  0.2993239E-03
  0.3383838E+00  0.0000000E+00  0.5050505E-02  0.9776492E-05  0.0000000E+00  0.3187127E-03
  0.3484848E+00  0.0000000E+00  0.5050505E-02  0.1084833E-04  0.0000000E+00  0.3402171E-03
  0.3585859E+00  0.0000000E+00  0.5050505E-02  0.1212138E-04  0.0000000E+00  0.3642290E-03
  0.3686869E+00  0.0000000E+00  0.5050505E-02  0.1365153E-04  0.0000000E+00  0.3912499E-03
  0.3787879E+00  0.0000000E+00  0.5050505E-02  0.1550797E-04  0.0000000E+00  0.4219218E-03
  0.3888889E+00  0.0000000E+00  0.5050505E-02  0.1776160E-04  0.0000000E+00  0.4570473E-03
  0.3989899E+00  0.0000000E+00  0.5050505E-02  0.2043093E-04  0.0000000E+00  0.4975421E-03
  0.4090909E+00  0.0000000E+00  0.5050505E-02  0.2330102E-04  0.0000000E+00  0.5441370E-03
  0.4191919E+00  0.0000000E+00  0.5050505E-02  0.2546673E-04  0.0000000E+00  0.5963865E-03
  0.4292929E+00  0.0000000E+00  0.5050505E-02  0.2498295E-04  0.0000000E+00  0.6507682E-03
  0.4393939E+00  0.0000000E+00  0.5050505E-02  0.2549702E-04  0.0000000E+00  0.7055406E-03
  0.4494950E+00  0.0000000E+00  0.5050505E-02  0.2691844E-04  0.0000000E+00  0.7627886E-03
  0.4595959E+00  0.0000000E+00  0.5050505E-02  0.2840316E-04  0.0000000E+00  0.8236237E-03
  0.4696970E+00  0.0000000E+00  0.5050505E-02  0.3019839E-04  0.0000000E+00  0.8885335E-03
  0.4797980E+00  0.0000000E+00  0.5050505E-02  0.3249995E-04  0.0000000E+00  0.9585188E-03
  0.4898990E+00  0.0000000E+00  0.5050505E-02  0.3485449E-04  0.0000000E+00  0.1034325E-02
  0.5000000E+00  0.0000000E+00  0.5050505E-02  0.3595381E-04  0.0000000E+00  0.1114726E-02
  0.5101010E+00  0.0000000E+00  0.5050505E-02  0.3531183E-04  0.0000000E+00  0.1196404E-02
  0.5202020E+00  0.0000000E+00  0.5050505E-02  0.3486769E-04  0.0000000E+00  0.1277610E-02
  0.5303030E+00  0.0000000E+00  0.5050505E-02  0.3776484E-04  0.0000000E+00  0.1362472E-02
  0.5404040E+00  0.0000000E+00  0.5050505E-02  0.4780088E-04  0.0000000E+00  0.1463478E-02
  0.5505050E+00  0.0000000E+00  0.5050505E-02  0.7738068E-04  0.0000000E+00  0.1613127E-02
  0.5606061E+00  0.0000000E+00  0.5050505E-02  0.1130911E-03  0.0000000E+00  0.1844896E-02
  0.5707071E+00  0.0000000E+00  0.5050505E-02 -0.1265045E-04  0.0000000E+00  0.1967732E-02
  0.5808081E+00  0.0000000E+00  0.5050505E-02 -0.1425251E-03  0.0000000E+00  0.1778834E-02
  0.5909091E+00  0.0000000E+00  0.5050505E-02 -0.5870751E-04  0.0000000E+00  0.1535812E-02
  0.6010101E+00  0.0000000E+00  0.5050505E-02 -0.7748794E-04  0.0000000E+00  0.1375131E-02
  0.6111111E+00  0.0000000E+00  0.5050505E-02 -0.4777197E-04  0.0000000E+00  0.1229404E-02
  0.6212121E+00  0.0000000E+00  0.5050505E-02 -0.3527224E-04  0.0000000E+00  0.1133941E-02
  0.6313131E+00  0.0000000E+00  0.5050505E-02 -0.3346229E-04  0.0000000E+00  0.1055695E-02
  0.6414142E+00  0.0000000E+00  0.5050505E-02 -0.3233266E-04  0.0000000E+00  0.9814488E-03
  0.6515151E+00  0.0000000E+00  0.5050505E-02 -0.3256698E-04  0.0000000E+00  0.9088440E-03
  0.6616161E+00  0.0000000E+00  0.5050505E-02 -0.3505049E-04  0.0000000E+00  0.8338777E-03
  0.6717172E+00  0.0000000E+00  0.5050505E-02 -0.3143038E-04  0.0000000E+00  0.7607791E-03
  0.6818182E+00  0.0000000E+00  0.5050505E-02 -0.2746944E-04  0.0000000E+00  0.6965084E-03
  0.6919192E+00  0.0000000E+00  0.5050505E-02 -0.2414522E-04  0.0000000E+00  0.6405636E-03
  0.7020202E+00  0.0000000E+00  0.5050505E-02 -0.2147343E-04  0.0000000E+00  0.5914093E-03
  0.7121212E+00  0.0000000E+00  0.5050505E-02 -0.1930654E-04  0.0000000E+00  0.5476993E-03
  0.7222222E+00  0.0000000E+00  0.5050505E-02 -0.1749173E-04  0.0000000E+00  0.5084430E-03
  0.7323232E+00  0.0000000E+00  0.5050505E-02 -0.1591254E-04  0.0000000E+00  0.4729595E-03
  0.7424242E+00  0.0000000E+00  0.5050505E-02 -0.1449734E-04  0.0000000E+00  0.4407818E-03
  0.7525253E+00  0.0000000E+00  0.5050505E-02 -0.1320895E-04  0.0000000E+00  0.4115681E-03
  0.7626263E+00  0.0000000E+00  0.5050505E-02 -0.1202976E-04  0.0000000E+00  0.3850412E-03
  0.7727273E+00  0.0000000E+00  0.5050505E-02 -0.1095064E-04  0.0000000E+00  0.3609582E-03
  0.7828283E+00  0.0000000E+00  0.5050505E-02 -0.9964959E-05  0.0000000E+00  0.3390969E-03
  0.7929293E+00  0.0000000E+00  0.5050505E-02 -0.9066095E-05  0.0000000E+00  0.3192531E-03
  0.8030303E+00  0.0000000E+00  0.5050505E-02 -0.8246924E-05  0.0000000E+00  0.3012401E-03
  0.8131313E+00  0.0000000E+00  0.5050505E-02 -0.7499975E-05  0.0000000E+00  0.2848890E-03
  0.8232324E+00  0.0000000E+00  0.5050505E-02 -0.6817777E-05  0.0000000E+00  0.2700487E-03
  0.8333333E+00  0.0000000E+00  0.5050505E-02 -0.6193156E-05  0.0000000E+00  0.2565849E-03
  0.8434343E+00  0.0000000E+00  0.5050505E-02 -0.5619425E-05  0.0000000E+00  0.2443792E-03
  0.8535354E+00  0.0000000E+00  0.5050505E-02 -0.5090480E-05  0.0000000E+00  0.2333278E-03
  0.8636364E+00  0.0000000E+00  0.5050505E-02 -0.4600817E-05  0.0000000E+00  0.2233396E-03
  0.8737374E+00  0.0000000E+00  0.5050505E-02 -0.4145518E-05  0.0000000E+00  0.2143352E-03
  0.8838384E+00  0.0000000E+00  0.5050505E-02 -0.3720200E-05  0.0000000E+00  0.2062454E-03
  0.8939394E+00  0.0000000E+00  0.5050505E-02 -0.3320962E-05  0.0000000E+00  0.1990100E-03
  0.9040404E+00  0.0000000E+00  0.5050505E-02 -0.2944327E-05  0.0000000E+00  0.1925769E-03
  0.9141414E+00  0.0000000E+00  0.5050505E-02 -0.2587182E-05  0.0000000E+00  0.1869011E-03
  0.9242424E+00  0.0000000E+00  0.5050505E-02 -0.2246731E-05  0.0000000E+00  0.1819441E-03
  0.9343435E+00  0.0000000E+00  0.5050505E-02 -0.1920440E-05  0.0000000E+00  0.1776731E-03
  0.9444444E+00  0.0000000E+00  0.5050505E-02 -0.1606000E-05  0.0000000E+00  0.1740604E-03
  0.9545454E+00  0.0000000E+00  0.5050505E-02 -0.1301285E-05  0.0000000E+00  0.1710830E-03
  0.9646465E+00  0.0000000E+00  0.5050505E-02 -0.1004322E-05  0.0000000E+00  0.1687225E-03
  0.9747475E+00  0.0000000E+00  0.5050505E-02 -0.7132553E-06  0.0000000E+00  0.1669645E-03
  0.9848485E+00  0.0000000E+00  0.5050505E-02 -0.4263250E-06  0.0000000E+00  0.1657982E-03
  0.9974747E+00  0.0000000E+00  0.5050505E-02 -0.1418399E-06  0.0000000E+00  0.1652167E-03
  0.5050505E-02  0.0000000E+00  0.1515152E-01  0.1966541E-06  0.0000000E+00  0.9759250E-04
  0.1515152E-01  0.0000000E+00  0.1515152E-01  0.5905623E-06  0.0000000E+00  0.9785880E-04
  0.2525252E-01  0.0000000E+00  0.1515152E-01  0.9862849E-06  0.0000000E+00  0.9839221E-04
  0.3535353E-01  0.0000000E+00  0.1515152E-01  0.1385061E-05  0.0000000E+00  0.9919443E-04
  0.4545455E-01  0.0000000E+00  0.1515152E-01  0.1788161E-05  0.0000000E+00  0.1002680E-03
  0.5555556E-01  0.0000000E+00  0.1515152E-01  0.2196899E-05  0.0000000E+00  0.1016163E-03
  0.6565657E-01  0.0000000E+00  0.1515152E-01  0.2612642E-05  0.0000000E+00  0.1032439E-03
  0.7575758E-01  0.0000000E+00  0.1515152E-01  0.3036827E-05  0.0000000E+00  0.1051559E-03
  0.8585858E-01  0.0000000E+00  0.1515152E-01  0.3470969E-05  0.0000000E+00  0.1073589E-03
  0.9595960E-01  0.0000000E+00  0.1515152E-01  0.3916681E-05  0.0000000E+00  0.1098603E-03
  0.1060606E+00  0.0000000E+00  0.1515152E-01  0.4375692E-05  0.0000000E+00  0.1126687E-03
  0.1161616E+00  0.0000000E+00  0.1515152E-01  0.4849869E-05  0.0000000E+00  0.1157941E-03
  0.1262626E+00  0.0000000E+00  0.1515152E-01  0.5341240E-05  0.0000000E+00  0.1192477E-03
  0.1363636E+00  0.0000000E+00  0.1515152E-01  0.5852024E-05  0.0000000E+00  0.1230422E-03
  0.1464646E+00  0.0000000E+00  0.1515152E-01  0.6384665E-05  0.0000000E+00  0.1271921E-03
  0.1565657E+00  0.0000000E+00  0.1515152E-01  0.6941877E-05  0.0000000E+00  0.1317135E-03
  0.1666667E+00  0.0000000E+00  0.1515152E-01  0.7526690E-05  0.0000000E+00  0.1366246E-03
  0.1767677E+00  0.0000000E+00  0.1515152E-01  0.8142517E-05  0.0000000E+00  0.1419458E-03
  0.1868687E+00  0.0000000E+00  0.1515152E-01  0.8793227E-05  0.0000000E+00  0.1477002E-03
  0.1969697E+00  0.0000000E+00  0.1515152E-01  0.9483243E-05  0.0000000E+00  0.1539137E-03
  0.2070707E+00  0.0000000E+00  0.1515152E-01  0.1021766E-04  0.0000000E+00  0.1606155E-03
  0.2171717E+00  0.0000000E+00  0.1515152E-01  0.1100241E-04  0.0000000E+00  0.1678388E-03
  0.2272727E+00  0.0000000E+00  0.1515152E-01  0.1184442E-04  0.0000000E+00  0.1756211E-03
  0.2373737E+00  0.0000000E+00  0.1515152E-01  0.1275188E-04  0.0000000E+00  0.1840054E-03
  0.2474747E+00  0.0000000E+00  0.1515152E-01  0.1373457E-04  0.0000000E+00  0.1930408E-03
  0.2575758E+00  0.0000000E+00  0.1515152E-01  0.1480422E-04  0.0000000E+00  0.2027843E-03
  0.2676768E+00  0.0000000E+00  0.1515152E-01  0.1597507E-04  0.0000000E+00  0.2133014E-03
  0.2777778E+00  0.0000000E+00  0.1515152E-01  0.1726455E-04  0.0000000E+00  0.2246692E-03
  0.2878788E+00  0.0000000E+00  0.1515152E-01  0.1869418E-04  0.0000000E+00  0.2369781E-03
  0.2979798E+00  0.0000000E+00  0.1515152E-01  0.2029081E-04  0.0000000E+00  0.2503356E-03
  0.3080808E+00  0.0000000E+00  0.1515152E-01  0.2208825E-04  0.0000000E+00  0.2648701E-03
  0.3181818E+00  0.0000000E+00  0.1515152E-01  0.2412957E-04  0.0000000E+00  0.2807370E-03
  0.3282828E+00  0.0000000E+00  0.1515152E-01  0.2647023E-04  0.0000000E+00  0.2981259E-03
  0.3383838E+00  0.0000000E+00  0.1515152E-01  0.2918249E-04  0.0000000E+00  0.3172711E-03
  0.3484848E+00  0.0000000E+00  0.1515152E-01  0.3236157E-04  0.0000000E+00  0.3384653E-03
  0.3585859E+00  0.0000000E+00  0.1515152E-01  0.3613404E-04  0.0000000E+00  0.3620800E-03
  0.3686869E+00  0.0000000E+00  0.1515152E-01  0.4066846E-04  0.0000000E+00  0.3885949E-03
  0.3787879E+00  0.0000000E+00  0.1515152E-01  0.4618508E-04  0.0000000E+00  0.4186432E-03
  0.3888889E+00  0.0000000E+00  0.1515152E-01  0.5294955E-04  0.0000000E+00  0.4530869E-03
  0.3989899E+00  0.0000000E+00  0.1515152E-01  0.6118794E-04  0.0000000E+00  0.4931377E-03
  0.4090909E+00  0.0000000E+00  0.1515152E-01  0.7067388E-04  0.0000000E+00  0.5404548E-03
  0.4191919E+00  0.0000000E+00  0.1515152E-01  0.7897390E-04  0.0000000E+00  0.5963016E-03
  0.4292929E+00  0.0000000E+00  0.1515152E-01  0.7401742E-04  0.0000000E+00  0.6525152E-03
  0.4393939E+00  0.0000000E+00  0.1515152E-01  0.7559914E-04  0.0000000E+00  0.7054623E-03
  0.4494950E+00  0.0000000E+00  0.1515152E-01  0.8061989E-04  0.0000000E+00  0.7617812E-03
  0.4595959E+00  0.0000000E+00  0.1515152E-01  0.8482447E-04  0.0000000E+00  0.8222863E-03
  0.4696970E+00  0.0000000E+00  0.1515152E-01  0.9001688E-04  0.0000000E+00  0.8864467E-03
  0.4797980E+00  0.0000000E+00  0.1515152E-01  0.9731340E-04  0.0000000E+00  0.9559889E-03
  0.4898990E+00  0.0000000E+00  0.1515152E-01  0.1054927E-03  0.0000000E+00  0.1033167E-02
  0.5000000E+00  0.0000000E+00  0.1515152E-01  0.1091010E-03  0.0000000E+00  0.1116750E-02
  0.5101010E+00  0.0000000E+00  0.1515152E-01  0.1053273E-03  0.0000000E+00  0.1200100E-02
  0.5202020E+00  0.0000000E+00  0.1515152E-01  0.1011631E-03  0.0000000E+00  0.1277787E-02
  0.5303030E+00  0.0000000E+00  0.1515152E-01  0.1065366E-03  0.0000000E+00  0.1352086E-02
  0.5404040E+00  0.0000000E+00  0.1515152E-01  0.1261684E-03  0.0000000E+00  0.1426283E-02
  0.5505050E+00  0.0000000E+00  0.1515152E-01  0.1853161E-03  0.0000000E+00  0.1501022E-02
  0.5606061E+00  0.0000000E+00  0.1515152E-01  0.2650652E-03  0.0000000E+00  0.1587044E-02
  0.5707071E+00  0.0000000E+00  0.1515152E-01 -0.1265143E-03  0.0000000E+00  0.1512636E-02
  0.5808081E+00  0.0000000E+00  0.1515152E-01 -0.2618146E-03  0.0000000E+00  0.1415128E-02
  0.5909091E+00  0.0000000E+00  0.1515152E-01 -0.1805609E-03  0.0000000E+00  0.1365596E-02
  0.6010101E+00  0.0000000E+00  0.1515152E-01 -0.1817103E-03  0.0000000E+00  0.1259068E-02
  0.6111111E+00  0.0000000E+00  0.1515152E-01 -0.1279796E-03  0.0000000E+00  0.1189483E-02
  0.6212121E+00  0.0000000E+00  0.1515152E-01 -0.9597490E-04  0.0000000E+00  0.1122150E-02
  0.6313131E+00  0.0000000E+00  0.1515152E-01 -0.9942665E-04  0.0000000E+00  0.1055492E-02
  0.6414142E+00  0.0000000E+00  0.1515152E-01 -0.9553006E-04  0.0000000E+00  0.9833584E-03
  0.6515151E+00  0.0000000E+00  0.1515152E-01 -0.9553208E-04  0.0000000E+00  0.9143069E-03
  0.6616161E+00  0.0000000E+00  0.1515152E-01 -0.1108000E-03  0.0000000E+00  0.8352285E-03
  0.6717172E+00  0.0000000E+00  0.1515152E-01 -0.9470908E-04  0.0000000E+00  0.7553254E-03
  0.6818182E+00  0.0000000E+00  0.1515152E-01 -0.8189742E-04  0.0000000E+00  0.6910548E-03
  0.6919192E+00  0.0000000E+00  0.1515152E-01 -0.7188374E-04  0.0000000E+00  0.6361709E-03
  0.7020202E+00  0.0000000E+00  0.1515152E-01 -0.6398852E-04  0.0000000E+00  0.5879942E-03
  0.7121212E+00  0.0000000E+00  0.1515152E-01 -0.5762068E-04  0.0000000E+00  0.5449941E-03
  0.7222222E+00  0.0000000E+00  0.1515152E-01 -0.5227966E-04  0.0000000E+00  0.5062006E-03
  0.7323232E+00  0.0000000E+00  0.1515152E-01 -0.4760542E-04  0.0000000E+00  0.4710075E-03
  0.7424242E+00  0.0000000E+00  0.1515152E-01 -0.4339140E-04  0.0000000E+00  0.4390242E-03
  0.7525253E+00  0.0000000E+00  0.1515152E-01 -0.3953947E-04  0.0000000E+00  0.4099612E-03
  0.7626263E+00  0.0000000E+00  0.1515152E-01 -0.3600722E-04  0.0000000E+00  0.3835686E-03
  0.7727273E+00  0.0000000E+00  0.1515152E-01 -0.3277309E-04  0.0000000E+00  0.3596131E-03
  0.7828283E+00  0.0000000E+00  0.1515152E-01 -0.2981955E-04  0.0000000E+00  0.3378744E-03
  0.7929293E+00  0.0000000E+00  0.1515152E-01 -0.2712736E-04  0.0000000E+00  0.3181467E-03
  0.8030303E+00  0.0000000E+00  0.1515152E-01 -0.2467498E-04  0.0000000E+00  0.3002417E-03
  0.8131313E+00  0.0000000E+00  0.1515152E-01 -0.2243964E-04  0.0000000E+00  0.2839892E-03
  0.8232324E+00  0.0000000E+00  0.1515152E-01 -0.2039861E-04  0.0000000E+00  0.2692375E-03
  0.8333333E+00  0.0000000E+00  0.1515152E-01 -0.1853014E-04  0.0000000E+00  0.2558528E-03
  0.8434343E+00  0.0000000E+00  0.1515152E-01 -0.1681402E-04  0.0000000E+00  0.2437170E-03
  0.8535354E+00  0.0000000E+00  0.1515152E-01 -0.1523189E-04  0.0000000E+00  0.2327270E-03
  0.8636364E+00  0.0000000E+00  0.1515152E-01 -0.1376721E-04  0.0000000E+00  0.2227926E-03
  0.8737374E+00  0.0000000E+00  0.1515152E-01 -0.1240525E-04  0.0000000E+00  0.2138350E-03
  0.8838384E+00  0.0000000E+00  0.1515152E-01 -0.1113289E-04  0.0000000E+00  0.2057859E-03
  0.8939394E+00  0.0000000E+00  0.1515152E-01 -0.9938450E-05  0.0000000E+00  0.1985857E-03
  0.9040404E+00  0.0000000E+00  0.1515152E-01 -0.8811550E-05  0.0000000E+00  0.1921829E-03
  0.9141414E+00  0.0000000E+00  0.1515152E-01 -0.7742890E-05  0.0000000E+00  0.1865332E-03
  0.9242424E+00  0.0000000E+00  0.1515152E-01 -0.6724114E-05  0.0000000E+00  0.1815983E-03
  0.9343435E+00  0.0000000E+00  0.1515152E-01 -0.5747656E-05  0.0000000E+00  0.1773459E-03
  0.9444444E+00  0.0000000E+00  0.1515152E-01 -0.4806619E-05  0.0000000E+00  0.1737485E-03
  0.9545454E+00  0.0000000E+00  0.1515152E-01 -0.3894656E-05  0.0000000E+00  0.1707835E-03
  0.9646465E+00  0.0000000E+00  0.1515152E-01 -0.3005870E-05  0.0000000E+00  0.1684326E-03
  0.9747475E+00  0.0000000E+00  0.1515152E-01 -0.2134724E-05  0.0000000E+00  0.1666816E-03
  0.9848485E+00  0.0000000E+00  0.1515152E-01 -0.1275956E-05  0.0000000E+00  0.1655200E-03
  0.9974747E+00  0.0000000E+00  0.1515152E-01 -0.4245133E-06  0.0000000E+00  0.1649408E-03
  0.5050505E-02  0.0000000E+00  0.2525252E-01  0.3269333E-06  0.0000000E+00  0.9745098E-04
  0.1515152E-01  0.0000000E+00  0.2525252E-01  0.9817989E-06  0.0000000E+00  0.9771638E-04
  0.2525252E-01  0.0000000E+00  0.2525252E-01  0.1639681E-05  0.0000000E+00  0.9824799E-04
  0.3535353E-01  0.0000000E+00  0.2525252E-01  0.2302634E-05  0.0000000E+00  0.9904745E-04
  0.4545455E-01  0.0000000E+00  0.2525252E-01  0.2972765E-05  0.0000000E+00  0.1001173E-03
  0.5555556E-01  0.0000000E+00  0.2525252E-01  0.3652251E-05  0.0000000E+00  0.1014608E-03
  0.6565657E-01  0.0000000E+00  0.2525252E-01  0.4343358E-05  0.0000000E+00  0.1030824E-03
  0.7575758E-01  0.0000000E+00  0.2525252E-01  0.5048463E-05  0.0000000E+00  0.1049874E-03
  0.8585858E-01  0.0000000E+00  0.2525252E-01  0.5770075E-05  0.0000000E+00  0.1071820E-03
  0.9595960E-01  0.0000000E+00  0.2525252E-01  0.6510864E-05  0.0000000E+00  0.1096737E-03
  0.1060606E+00  0.0000000E+00  0.2525252E-01  0.7273690E-05  0.0000000E+00  0.1124708E-03
  0.1161616E+00  0.0000000E+00  0.2525252E-01  0.8061638E-05  0.0000000E+00  0.1155831E-03
  0.1262626E+00  0.0000000E+00  0.2525252E-01  0.8878059E-05  0.0000000E+00  0.1190218E-03
  0.1363636E+00  0.0000000E+00  0.2525252E-01  0.9726616E-05  0.0000000E+00  0.1227993E-03
  0.1464646E+00  0.0000000E+00  0.2525252E-01  0.1061134E-04  0.0000000E+00  0.1269297E-03
  0.1565657E+00  0.0000000E+00  0.2525252E-01  0.1153670E-04  0.0000000E+00  0.1314289E-03
  0.1666667E+00  0.0000000E+00  0.2525252E-01  0.1250769E-04  0.0000000E+00  0.1363147E-03
  0.1767677E+00  0.0000000E+00  0.2525252E-01  0.1352992E-04  0.0000000E+00  0.1416070E-03
  0.1868687E+00  0.0000000E+00  0.2525252E-01  0.1460974E-04  0.0000000E+00  0.1473283E-03
  0.1969697E+00  0.0000000E+00  0.2525252E-01  0.1575441E-04  0.0000000E+00  0.1535037E-03
  0.2070707E+00  0.0000000E+00  0.2525252E-01  0.1697226E-04  0.0000000E+00  0.1601617E-03
  0.2171717E+00  0.0000000E+00  0.2525252E-01  0.1827299E-04  0.0000000E+00  0.1673343E-03
  0.2272727E+00  0.0000000E+00  0.2525252E-01  0.1966792E-04  0.0000000E+00  0.1750579E-03
  0.2373737E+00  0.0000000E+00  0.2525252E-01  0.2117039E-04  0.0000000E+00  0.1833735E-03
  0.2474747E+00  0.0000000E+00  0.2525252E-01  0.2279630E-04  0.0000000E+00  0.1923284E-03
  0.2575758E+00  0.0000000E+00  0.2525252E-01  0.2456471E-04  0.0000000E+00  0.2019767E-03
  0.2676768E+00  0.0000000E+00  0.2525252E-01  0.2649870E-04  0.0000000E+00  0.2123808E-03
  0.2777778E+00  0.0000000E+00  0.2525252E-01  0.2862644E-04  0.0000000E+00  0.2236134E-03
  0.2878788E+00  0.0000000E+00  0.2525252E-01  0.3098266E-04  0.0000000E+00  0.2357594E-03
  0.2979798E+00  0.0000000E+00  0.2525252E-01  0.3361055E-04  0.0000000E+00  0.2489189E-03
  0.3080808E+00  0.0000000E+00  0.2525252E-01  0.3656438E-04  0.0000000E+00  0.2632110E-03
  0.3181818E+00  0.0000000E+00  0.2525252E-01  0.3991304E-04  0.0000000E+00  0.2787783E-03
  0.3282828E+00  0.0000000E+00  0.2525252E-01  0.4374497E-04  0.0000000E+00  0.2957934E-03
  0.3383838E+00  0.0000000E+00  0.2525252E-01  0.4817514E-04  0.0000000E+00  0.3144673E-03
  0.3484848E+00  0.0000000E+00  0.2525252E-01  0.5335497E-04  0.0000000E+00  0.3350609E-03
  0.3585859E+00  0.0000000E+00  0.2525252E-01  0.5948694E-04  0.0000000E+00  0.3579019E-03
  0.3686869E+00  0.0000000E+00  0.2525252E-01  0.6684638E-04  0.0000000E+00  0.3834117E-03
  0.3787879E+00  0.0000000E+00  0.2525252E-01  0.7581574E-04  0.0000000E+00  0.4121545E-03
  0.3888889E+00  0.0000000E+00  0.2525252E-01  0.8694309E-04  0.0000000E+00  0.4449555E-03
  0.3989899E+00  0.0000000E+00  0.2525252E-01  0.1010591E-03  0.0000000E+00  0.4832599E-03
  0.4090909E+00  0.0000000E+00  0.2525252E-01  0.1195700E-03  0.0000000E+00  0.5304952E-03
  0.4191919E+00  0.0000000E+00  0.2525252E-01  0.1453699E-03  0.0000000E+00  0.5980340E-03
  0.4292929E+00  0.0000000E+00  0.2525252E-01  0.1169802E-03  0.0000000E+00  0.6597380E-03
  0.4393939E+00  0.0000000E+00  0.2525252E-01  0.1224169E-03  0.0000000E+00  0.7047315E-03
  0.4494950E+00  0.0000000E+00  0.2525252E-01  0.1349479E-03  0.0000000E+00  0.7594589E-03
  0.4595959E+00  0.0000000E+00  0.2525252E-01  0.1401652E-03  0.0000000E+00  0.8202516E-03
  0.4696970E+00  0.0000000E+00  0.2525252E-01  0.1477373E-03  0.0000000E+00  0.8822715E-03
  0.4797980E+00  0.0000000E+00  0.2525252E-01  0.1611570E-03  0.0000000E+00  0.9496466E-03
  0.4898990E+00  0.0000000E+00  0.2525252E-01  0.1799599E-03  0.0000000E+00  0.1029732E-02
  0.5000000E+00  0.0000000E+00  0.2525252E-01  0.1882204E-03  0.0000000E+00  0.1122758E-02
  0.5101010E+00  0.0000000E+00  0.2525252E-01  0.1747343E-03  0.0000000E+00  0.1212686E-02
  0.5202020E+00  0.0000000E+00  0.2525252E-01  0.1580216E-03  0.0000000E+00  0.1284830E-02
  0.5303030E+00  0.0000000E+00  0.2525252E-01  0.1616807E-03  0.0000000E+00  0.1345597E-02
  0.5404040E+00  0.0000000E+00  0.2525252E-01  0.1697560E-03  0.0000000E+00  0.1392371E-02
  0.5505050E+00  0.0000000E+00  0.2525252E-01  0.2336212E-03  0.0000000E+00  0.1432434E-02
  0.5606061E+00  0.0000000E+00  0.2525252E-01  0.2583650E-03  0.0000000E+00  0.1403574E-02
  0.5707071E+00  0.0000000E+00  0.2525252E-01 -0.2442580E-03  0.0000000E+00  0.1330255E-02
  0.5808081E+00  0.0000000E+00  0.2525252E-01 -0.2660417E-03  0.0000000E+00  0.1275264E-02
  0.5909091E+00  0.0000000E+00  0.2525252E-01 -0.2571238E-03  0.0000000E+00  0.1224625E-02
  0.6010101E+00  0.0000000E+00  0.2525252E-01 -0.2176848E-03  0.0000000E+00  0.1195742E-02
  0.6111111E+00  0.0000000E+00  0.2525252E-01 -0.1884520E-03  0.0000000E+00  0.1150703E-02
  0.6212121E+00  0.0000000E+00  0.2525252E-01 -0.1621125E-03  0.0000000E+00  0.1070526E-02
  0.6313131E+00  0.0000000E+00  0.2525252E-01 -0.1524563E-03  0.0000000E+00  0.9997255E-03
  0.6414142E+00  0.0000000E+00  0.2525252E-01 -0.1356553E-03  0.0000000E+00  0.9650026E-03
  0.6515151E+00  0.0000000E+00  0.2525252E-01 -0.1740458E-03  0.0000000E+00  0.9002862E-03
  0.6616161E+00  0.0000000E+00  0.2525252E-01 -0.1860954E-03  0.0000000E+00  0.8083093E-03
  0.6717172E+00  0.0000000E+00  0.2525252E-01 -0.1554287E-03  0.0000000E+00  0.7384239E-03
  0.6818182E+00  0.0000000E+00  0.2525252E-01 -0.1340511E-03  0.0000000E+00  0.6792920E-03
  0.6919192E+00  0.0000000E+00  0.2525252E-01 -0.1178781E-03  0.0000000E+00  0.6275617E-03
  0.7020202E+00  0.0000000E+00  0.2525252E-01 -0.1052492E-03  0.0000000E+00  0.5815036E-03
  0.7121212E+00  0.0000000E+00  0.2525252E-01 -0.9511270E-04  0.0000000E+00  0.5398968E-03
  0.7222222E+00  0.0000000E+00  0.2525252E-01 -0.8656121E-04  0.0000000E+00  0.5019488E-03
  0.7323232E+00  0.0000000E+00  0.2525252E-01 -0.7896998E-04  0.0000000E+00  0.4672548E-03
  0.7424242E+00  0.0000000E+00  0.2525252E-01 -0.7203527E-04  0.0000000E+00  0.4356011E-03
  0.7525253E+00  0.0000000E+00  0.2525252E-01 -0.6564610E-04  0.0000000E+00  0.4068056E-03
  0.7626263E+00  0.0000000E+00  0.2525252E-01 -0.5976820E-04  0.0000000E+00  0.3806647E-03
  0.7727273E+00  0.0000000E+00  0.2525252E-01 -0.5438378E-04  0.0000000E+00  0.3569573E-03
  0.7828283E+00  0.0000000E+00  0.2525252E-01 -0.4947013E-04  0.0000000E+00  0.3354608E-03
  0.7929293E+00  0.0000000E+00  0.2525252E-01 -0.4499607E-04  0.0000000E+00  0.3159639E-03
  0.8030303E+00  0.0000000E+00  0.2525252E-01 -0.4092458E-04  0.0000000E+00  0.2982732E-03
  0.8131313E+00  0.0000000E+00  0.2525252E-01 -0.3721624E-04  0.0000000E+00  0.2822161E-03
  0.8232324E+00  0.0000000E+00  0.2525252E-01 -0.3383196E-04  0.0000000E+00  0.2676401E-03
  0.8333333E+00  0.0000000E+00  0.2525252E-01 -0.3073470E-04  0.0000000E+00  0.2544116E-03
  0.8434343E+00  0.0000000E+00  0.2525252E-01 -0.2789035E-04  0.0000000E+00  0.2424137E-03
  0.8535354E+00  0.0000000E+00  0.2525252E-01 -0.2526808E-04  0.0000000E+00  0.2315447E-03
  0.8636364E+00  0.0000000E+00  0.2525252E-01 -0.2284029E-04  0.0000000E+00  0.2217161E-03
  0.8737374E+00  0.0000000E+00  0.2525252E-01 -0.2058247E-04  0.0000000E+00  0.2128508E-03
  0.8838384E+00  0.0000000E+00  0.2525252E-01 -0.1847285E-04  0.0000000E+00  0.2048818E-03
  0.8939394E+00  0.0000000E+00  0.2525252E-01 -0.1649210E-04  0.0000000E+00  0.1977509E-03
  0.9040404E+00  0.0000000E+00  0.2525252E-01 -0.1462303E-04  0.0000000E+00  0.1914080E-03
  0.9141414E+00  0.0000000E+00  0.2525252E-01 -0.1285028E-04  0.0000000E+00  0.1858094E-03
  0.9242424E+00  0.0000000E+00  0.2525252E-01 -0.1116002E-04  0.0000000E+00  0.1809180E-03
  0.9343435E+00  0.0000000E+00  0.2525252E-01 -0.9539759E-05  0.0000000E+00  0.1767021E-03
  0.9444444E+00  0.0000000E+00  0.2525252E-01 -0.7978100E-05  0.0000000E+00  0.1731350E-03
  0.9545454E+00  0.0000000E+00  0.2525252E-01 -0.6464553E-05  0.0000000E+00  0.1701944E-03
  0.9646465E+00  0.0000000E+00  0.2525252E-01 -0.4989372E-05  0.0000000E+00  0.1678626E-03
  0.9747475E+00  0.0000000E+00  0.2525252E-01 -0.3543404E-05  0.0000000E+00  0.1661255E-03
  0.9848485E+00  0.0000000E+00  0.2525252E-01 -0.2117949E-05  0.0000000E+00  0.1649730E-03
  0.9974747E+00  0.0000000E+00  0.2525252E-01 -0.7046448E-06  0.0000000E+00  0.1643983E-03
  0.5050505E-02  0.0000000E+00  0.3535353E-01  0.4562859E-06  0.0000000E+00  0.9724394E-04
  0.1515152E-01  0.0000000E+00  0.3535353E-01  0.1370250E-05  0.0000000E+00  0.9750802E-04
  0.2525252E-01  0.0000000E+00  0.3535353E-01  0.2288415E-05  0.0000000E+00  0.9803696E-04
  0.3535353E-01  0.0000000E+00  0.3535353E-01  0.3213637E-05  0.0000000E+00  0.9883236E-04
  0.4545455E-01  0.0000000E+00  0.3535353E-01  0.4148843E-05  0.0000000E+00  0.9989666E-04
  0.5555556E-01  0.0000000E+00  0.3535353E-01  0.5097059E-05  0.0000000E+00  0.1012332E-03
  0.6565657E-01  0.0000000E+00  0.3535353E-01  0.6061428E-05  0.0000000E+00  0.1028461E-03
  0.7575758E-01  0.0000000E+00  0.3535353E-01  0.7045249E-05  0.0000000E+00  0.1047407E-03
  0.8585858E-01  0.0000000E+00  0.3535353E-01  0.8052001E-05  0.0000000E+00  0.1069230E-03
  0.9595960E-01  0.0000000E+00  0.3535353E-01  0.9085384E-05  0.0000000E+00  0.1094003E-03
  0.1060606E+00  0.0000000E+00  0.3535353E-01  0.1014936E-04  0.0000000E+00  0.1121808E-03
  0.1161616E+00  0.0000000E+00  0.3535353E-01  0.1124820E-04  0.0000000E+00  0.1152741E-03
  0.1262626E+00  0.0000000E+00  0.3535353E-01  0.1238653E-04  0.0000000E+00  0.1186909E-03
  0.1363636E+00  0.0000000E+00  0.3535353E-01  0.1356941E-04  0.0000000E+00  0.1224434E-03
  0.1464646E+00  0.0000000E+00  0.3535353E-01  0.1480240E-04  0.0000000E+00  0.1265454E-03
  0.1565657E+00  0.0000000E+00  0.3535353E-01  0.1609167E-04  0.0000000E+00  0.1310121E-03
  0.1666667E+00  0.0000000E+00  0.3535353E-01  0.1744406E-04  0.0000000E+00  0.1358608E-03
  0.1767677E+00  0.0000000E+00  0.3535353E-01  0.1886727E-04  0.0000000E+00  0.1411108E-03
  0.1868687E+00  0.0000000E+00  0.3535353E-01  0.2037003E-04  0.0000000E+00  0.1467837E-03
  0.1969697E+00  0.0000000E+00  0.3535353E-01  0.2196223E-04  0.0000000E+00  0.1529037E-03
  0.2070707E+00  0.0000000E+00  0.3535353E-01  0.2365526E-04  0.0000000E+00  0.1594979E-03
  0.2171717E+00  0.0000000E+00  0.3535353E-01  0.2546230E-04  0.0000000E+00  0.1665967E-03
  0.2272727E+00  0.0000000E+00  0.3535353E-01  0.2739872E-04  0.0000000E+00  0.1742347E-03
  0.2373737E+00  0.0000000E+00  0.3535353E-01  0.2948260E-04  0.0000000E+00  0.1824506E-03
  0.2474747E+00  0.0000000E+00  0.3535353E-01  0.3173541E-04  0.0000000E+00  0.1912887E-03
  0.2575758E+00  0.0000000E+00  0.3535353E-01  0.3418281E-04  0.0000000E+00  0.2007992E-03
  0.2676768E+00  0.0000000E+00  0.3535353E-01  0.3685580E-04  0.0000000E+00  0.2110399E-03
  0.2777778E+00  0.0000000E+00  0.3535353E-01  0.3979208E-04  0.0000000E+00  0.2220772E-03
  0.2878788E+00  0.0000000E+00  0.3535353E-01  0.4303799E-04  0.0000000E+00  0.2339884E-03
  0.2979798E+00  0.0000000E+00  0.3535353E-01  0.4665089E-04  0.0000000E+00  0.2468634E-03