title = "dataset water"
variables = "x", "y", "z", "vx", "vy", "vz"
zone t = "velocities, solution time =  1.700E+01 days        " i =   99, j =   99, k =    1,  f=point
  0.5050505E-02  0.0000000E+00  0.5050505E-02  0.1601323E-10  0.0000000E+00 -0.2344071E-04
  0.1515152E-01  0.0000000E+00  0.5050505E-02  0.4808013E-10  0.0000000E+00 -0.2344064E-04
  0.2525252E-01  0.0000000E+00  0.5050505E-02  0.8009182E-10  0.0000000E+00 -0.2344051E-04
  0.3535353E-01  0.0000000E+00  0.5050505E-02  0.1119954E-09  0.0000000E+00 -0.2344032E-04
  0.4545455E-01  0.0000000E+00  0.5050505E-02  0.1437546E-09  0.0000000E+00 -0.2344006E-04
  0.5555556E-01  0.0000000E+00  0.5050505E-02  0.1753252E-09  0.0000000E+00 -0.2343974E-04
  0.6565657E-01  0.0000000E+00  0.5050505E-02  0.2066609E-09  0.0000000E+00 -0.2343936E-04
  0.7575758E-01  0.0000000E+00  0.5050505E-02  0.2377117E-09  0.0000000E+00 -0.2343892E-04
  0.8585858E-01  0.0000000E+00  0.5050505E-02  0.2684239E-09  0.0000000E+00 -0.2343841E-04
  0.9595960E-01  0.0000000E+00  0.5050505E-02  0.2987395E-09  0.0000000E+00 -0.2343784E-04
  0.1060606E+00  0.0000000E+00  0.5050505E-02  0.3285962E-09  0.0000000E+00 -0.2343721E-04
  0.1161616E+00  0.0000000E+00  0.5050505E-02  0.3579267E-09  0.0000000E+00 -0.2343652E-04
  0.1262626E+00  0.0000000E+00  0.5050505E-02  0.3866590E-09  0.0000000E+00 -0.2343578E-04
  0.1363636E+00  0.0000000E+00  0.5050505E-02  0.4147156E-09  0.0000000E+00 -0.2343497E-04
  0.1464646E+00  0.0000000E+00  0.5050505E-02  0.4420138E-09  0.0000000E+00 -0.2343411E-04
  0.1565657E+00  0.0000000E+00  0.5050505E-02  0.4684654E-09  0.0000000E+00 -0.2343320E-04
  0.1666667E+00  0.0000000E+00  0.5050505E-02  0.4939768E-09  0.0000000E+00 -0.2343223E-04
  0.1767677E+00  0.0000000E+00  0.5050505E-02  0.5184491E-09  0.0000000E+00 -0.2343122E-04
  0.1868687E+00  0.0000000E+00  0.5050505E-02  0.5417787E-09  0.0000000E+00 -0.2343016E-04
  0.1969697E+00  0.0000000E+00  0.5050505E-02  0.5638573E-09  0.0000000E+00 -0.2342905E-04
  0.2070707E+00  0.0000000E+00  0.5050505E-02  0.5845725E-09  0.0000000E+00 -0.2342789E-04
  0.2171717E+00  0.0000000E+00  0.5050505E-02  0.6038087E-09  0.0000000E+00 -0.2342670E-04
  0.2272727E+00  0.0000000E+00  0.5050505E-02  0.6214474E-09  0.0000000E+00 -0.2342547E-04
  0.2373737E+00  0.0000000E+00  0.5050505E-02  0.6373683E-09  0.0000000E+00 -0.2342421E-04
  0.2474747E+00  0.0000000E+00  0.5050505E-02  0.6514504E-09  0.0000000E+00 -0.2342292E-04
  0.2575758E+00  0.0000000E+00  0.5050505E-02  0.6635730E-09  0.0000000E+00 -0.2342160E-04
  0.2676768E+00  0.0000000E+00  0.5050505E-02  0.6736168E-09  0.0000000E+00 -0.2342026E-04
  0.2777778E+00  0.0000000E+00  0.5050505E-02  0.6814656E-09  0.0000000E+00 -0.2341890E-04
  0.2878788E+00  0.0000000E+00  0.5050505E-02  0.6870072E-09  0.0000000E+00 -0.2341753E-04
  0.2979798E+00  0.0000000E+00  0.5050505E-02  0.6901356E-09  0.0000000E+00 -0.2341615E-04
  0.3080808E+00  0.0000000E+00  0.5050505E-02  0.6907518E-09  0.0000000E+00 -0.2341476E-04
  0.3181818E+00  0.0000000E+00  0.5050505E-02  0.6887662E-09  0.0000000E+00 -0.2341338E-04
  0.3282828E+00  0.0000000E+00  0.5050505E-02  0.6840997E-09  0.0000000E+00 -0.2341200E-04
  0.3383838E+00  0.0000000E+00  0.5050505E-02  0.6766857E-09  0.0000000E+00 -0.2341064E-04
  0.3484848E+00  0.0000000E+00  0.5050505E-02  0.6664714E-09  0.0000000E+00 -0.2340929E-04
  0.3585859E+00  0.0000000E+00  0.5050505E-02  0.6534197E-09  0.0000000E+00 -0.2340797E-04
  0.3686869E+00  0.0000000E+00  0.5050505E-02  0.6375105E-09  0.0000000E+00 -0.2340667E-04
  0.3787879E+00  0.0000000E+00  0.5050505E-02  0.6187420E-09  0.0000000E+00 -0.2340541E-04
  0.3888889E+00  0.0000000E+00  0.5050505E-02  0.5971322E-09  0.0000000E+00 -0.2340419E-04
  0.3989899E+00  0.0000000E+00  0.5050505E-02  0.5727195E-09  0.0000000E+00 -0.2340302E-04
  0.4090909E+00  0.0000000E+00  0.5050505E-02  0.5455639E-09  0.0000000E+00 -0.2340190E-04
  0.4191919E+00  0.0000000E+00  0.5050505E-02  0.5157470E-09  0.0000000E+00 -0.2340083E-04
  0.4292929E+00  0.0000000E+00  0.5050505E-02  0.4833730E-09  0.0000000E+00 -0.2339983E-04
  0.4393939E+00  0.0000000E+00  0.5050505E-02  0.4485683E-09  0.0000000E+00 -0.2339890E-04
  0.4494950E+00  0.0000000E+00  0.5050505E-02  0.4114809E-09  0.0000000E+00 -0.2339803E-04
  0.4595959E+00  0.0000000E+00  0.5050505E-02  0.3722805E-09  0.0000000E+00 -0.2339725E-04
  0.4696970E+00  0.0000000E+00  0.5050505E-02  0.3311567E-09  0.0000000E+00 -0.2339654E-04
  0.4797980E+00  0.0000000E+00  0.5050505E-02  0.2883184E-09  0.0000000E+00 -0.2339592E-04
  0.4898990E+00  0.0000000E+00  0.5050505E-02  0.2439919E-09  0.0000000E+00 -0.2339539E-04
  0.5000000E+00  0.0000000E+00  0.5050505E-02  0.1984191E-09  0.0000000E+00 -0.2339494E-04
  0.5101010E+00  0.0000000E+00  0.5050505E-02  0.1518554E-09  0.0000000E+00 -0.2339459E-04
  0.5202020E+00  0.0000000E+00  0.5050505E-02  0.1045673E-09  0.0000000E+00 -0.2339434E-04
  0.5303030E+00  0.0000000E+00  0.5050505E-02  0.5682974E-10  0.0000000E+00 -0.2339417E-04
  0.5404040E+00  0.0000000E+00  0.5050505E-02  0.8923445E-11  0.0000000E+00 -0.2339411E-04
  0.5505050E+00  0.0000000E+00  0.5050505E-02 -0.3886795E-10  0.0000000E+00 -0.2339414E-04
  0.5606061E+00  0.0000000E+00  0.5050505E-02 -0.8625991E-10  0.0000000E+00 -0.2339426E-04
  0.5707071E+00  0.0000000E+00  0.5050505E-02 -0.1329715E-09  0.0000000E+00 -0.2339448E-04
  0.5808081E+00  0.0000000E+00  0.5050505E-02 -0.1787267E-09  0.0000000E+00 -0.2339480E-04
  0.5909091E+00  0.0000000E+00  0.5050505E-02 -0.2232579E-09  0.0000000E+00 -0.2339520E-04
  0.6010101E+00  0.0000000E+00  0.5050505E-02 -0.2663086E-09  0.0000000E+00 -0.2339569E-04
  0.6111111E+00  0.0000000E+00  0.5050505E-02 -0.3076353E-09  0.0000000E+00 -0.2339627E-04
  0.6212121E+00  0.0000000E+00  0.5050505E-02 -0.3470097E-09  0.0000000E+00 -0.2339692E-04
  0.6313131E+00  0.0000000E+00  0.5050505E-02 -0.3842208E-09  0.0000000E+00 -0.2339766E-04
  0.6414142E+00  0.0000000E+00  0.5050505E-02 -0.4190765E-09  0.0000000E+00 -0.2339846E-04
  0.6515151E+00  0.0000000E+00  0.5050505E-02 -0.4514046E-09  0.0000000E+00 -0.2339933E-04
  0.6616161E+00  0.0000000E+00  0.5050505E-02 -0.4810545E-09  0.0000000E+00 -0.2340027E-04
  0.6717172E+00  0.0000000E+00  0.5050505E-02 -0.5078973E-09  0.0000000E+00 -0.2340126E-04
  0.6818182E+00  0.0000000E+00  0.5050505E-02 -0.5318263E-09  0.0000000E+00 -0.2340230E-04
  0.6919192E+00  0.0000000E+00  0.5050505E-02 -0.5527572E-09  0.0000000E+00 -0.2340339E-04
  0.7020202E+00  0.0000000E+00  0.5050505E-02 -0.5706277E-09  0.0000000E+00 -0.2340452E-04
  0.7121212E+00  0.0000000E+00  0.5050505E-02 -0.5853972E-09  0.0000000E+00 -0.2340568E-04
  0.7222222E+00  0.0000000E+00  0.5050505E-02 -0.5970459E-09  0.0000000E+00 -0.2340686E-04
  0.7323232E+00  0.0000000E+00  0.5050505E-02 -0.6055740E-09  0.0000000E+00 -0.2340807E-04
  0.7424242E+00  0.0000000E+00  0.5050505E-02 -0.6110007E-09  0.0000000E+00 -0.2340929E-04
  0.7525253E+00  0.0000000E+00  0.5050505E-02 -0.6133626E-09  0.0000000E+00 -0.2341052E-04
  0.7626263E+00  0.0000000E+00  0.5050505E-02 -0.6127125E-09  0.0000000E+00 -0.2341175E-04
  0.7727273E+00  0.0000000E+00  0.5050505E-02 -0.6091183E-09  0.0000000E+00 -0.2341297E-04
  0.7828283E+00  0.0000000E+00  0.5050505E-02 -0.6026609E-09  0.0000000E+00 -0.2341419E-04
  0.7929293E+00  0.0000000E+00  0.5050505E-02 -0.5934330E-09  0.0000000E+00 -0.2341539E-04
  0.8030303E+00  0.0000000E+00  0.5050505E-02 -0.5815376E-09  0.0000000E+00 -0.2341657E-04
  0.8131313E+00  0.0000000E+00  0.5050505E-02 -0.5670862E-09  0.0000000E+00 -0.2341772E-04
  0.8232324E+00  0.0000000E+00  0.5050505E-02 -0.5501979E-09  0.0000000E+00 -0.2341884E-04
  0.8333333E+00  0.0000000E+00  0.5050505E-02 -0.5309975E-09  0.0000000E+00 -0.2341992E-04
  0.8434343E+00  0.0000000E+00  0.5050505E-02 -0.5096146E-09  0.0000000E+00 -0.2342097E-04
  0.8535354E+00  0.0000000E+00  0.5050505E-02 -0.4861821E-09  0.0000000E+00 -0.2342196E-04
  0.8636364E+00  0.0000000E+00  0.5050505E-02 -0.4608356E-09  0.0000000E+00 -0.2342291E-04
  0.8737374E+00  0.0000000E+00  0.5050505E-02 -0.4337121E-09  0.0000000E+00 -0.2342381E-04
  0.8838384E+00  0.0000000E+00  0.5050505E-02 -0.4049492E-09  0.0000000E+00 -0.2342465E-04
  0.8939394E+00  0.0000000E+00  0.5050505E-02 -0.3746846E-09  0.0000000E+00 -0.2342543E-04
  0.9040404E+00  0.0000000E+00  0.5050505E-02 -0.3430555E-09  0.0000000E+00 -0.2342615E-04
  0.9141414E+00  0.0000000E+00  0.5050505E-02 -0.3101983E-09  0.0000000E+00 -0.2342681E-04
  0.9242424E+00  0.0000000E+00  0.5050505E-02 -0.2762477E-09  0.0000000E+00 -0.2342740E-04
  0.9343435E+00  0.0000000E+00  0.5050505E-02 -0.2413376E-09  0.0000000E+00 -0.2342792E-04
  0.9444444E+00  0.0000000E+00  0.5050505E-02 -0.2055999E-09  0.0000000E+00 -0.2342836E-04
  0.9545454E+00  0.0000000E+00  0.5050505E-02 -0.1691652E-09  0.0000000E+00 -0.2342874E-04
  0.9646465E+00  0.0000000E+00  0.5050505E-02 -0.1321629E-09  0.0000000E+00 -0.2342904E-04
  0.9747475E+00  0.0000000E+00  0.5050505E-02 -0.9472114E-10  0.0000000E+00 -0.2342927E-04
  0.9848485E+00  0.0000000E+00  0.5050505E-02 -0.5696799E-10  0.0000000E+00 -0.2342942E-04
  0.9974747E+00  0.0000000E+00  0.5050505E-02 -0.1903310E-10  0.0000000E+00 -0.2342950E-04
  0.5050505E-02  0.0000000E+00  0.1515152E-01  0.4819327E-10  0.0000000E+00 -0.2338333E-04
  0.1515152E-01  0.0000000E+00  0.1515152E-01  0.1446630E-09  0.0000000E+00 -0.2338326E-04
  0.2525252E-01  0.0000000E+00  0.1515152E-01  0.2409723E-09  0.0000000E+00 -0.2338313E-04
  0.3535353E-01  0.0000000E+00  0.1515152E-01  0.3369603E-09  0.0000000E+00 -0.2338294E-04
  0.4545455E-01  0.0000000E+00  0.1515152E-01  0.4325172E-09  0.0000000E+00 -0.2338268E-04
  0.5555556E-01  0.0000000E+00  0.1515152E-01  0.5275103E-09  0.0000000E+00 -0.2338236E-04
  0.6565657E-01  0.0000000E+00  0.1515152E-01  0.6218000E-09  0.0000000E+00 -0.2338197E-04
  0.7575758E-01  0.0000000E+00  0.1515152E-01  0.7152370E-09  0.0000000E+00 -0.2338152E-04
  0.8585858E-01  0.0000000E+00  0.1515152E-01  0.8076599E-09  0.0000000E+00 -0.2338100E-04
  0.9595960E-01  0.0000000E+00  0.1515152E-01  0.8988949E-09  0.0000000E+00 -0.2338043E-04
  0.1060606E+00  0.0000000E+00  0.1515152E-01  0.9887546E-09  0.0000000E+00 -0.2337979E-04
  0.1161616E+00  0.0000000E+00  0.1515152E-01  0.1077037E-08  0.0000000E+00 -0.2337909E-04
  0.1262626E+00  0.0000000E+00  0.1515152E-01  0.1163527E-08  0.0000000E+00 -0.2337834E-04
  0.1363636E+00  0.0000000E+00  0.1515152E-01  0.1247990E-08  0.0000000E+00 -0.2337753E-04
  0.1464646E+00  0.0000000E+00  0.1515152E-01  0.1330178E-08  0.0000000E+00 -0.2337666E-04
  0.1565657E+00  0.0000000E+00  0.1515152E-01  0.1409825E-08  0.0000000E+00 -0.2337573E-04
  0.1666667E+00  0.0000000E+00  0.1515152E-01  0.1486651E-08  0.0000000E+00 -0.2337475E-04
  0.1767677E+00  0.0000000E+00  0.1515152E-01  0.1560357E-08  0.0000000E+00 -0.2337373E-04
  0.1868687E+00  0.0000000E+00  0.1515152E-01  0.1630632E-08  0.0000000E+00 -0.2337265E-04
  0.1969697E+00  0.0000000E+00  0.1515152E-01  0.1697148E-08  0.0000000E+00 -0.2337153E-04
  0.2070707E+00  0.0000000E+00  0.1515152E-01  0.1759568E-08  0.0000000E+00 -0.2337036E-04
  0.2171717E+00  0.0000000E+00  0.1515152E-01  0.1817543E-08  0.0000000E+00 -0.2336915E-04
  0.2272727E+00  0.0000000E+00  0.1515152E-01  0.1870716E-08  0.0000000E+00 -0.2336791E-04
  0.2373737E+00  0.0000000E+00  0.1515152E-01  0.1918724E-08  0.0000000E+00 -0.2336663E-04
  0.2474747E+00  0.0000000E+00  0.1515152E-01  0.1961201E-08  0.0000000E+00 -0.2336532E-04
  0.2575758E+00  0.0000000E+00  0.1515152E-01  0.1997785E-08  0.0000000E+00 -0.2336398E-04
  0.2676768E+00  0.0000000E+00  0.1515152E-01  0.2028113E-08  0.0000000E+00 -0.2336262E-04
  0.2777778E+00  0.0000000E+00  0.1515152E-01  0.2051837E-08  0.0000000E+00 -0.2336125E-04
  0.2878788E+00  0.0000000E+00  0.1515152E-01  0.2068615E-08  0.0000000E+00 -0.2335985E-04
  0.2979798E+00  0.0000000E+00  0.1515152E-01  0.2078129E-08  0.0000000E+00 -0.2335845E-04
  0.3080808E+00  0.0000000E+00  0.1515152E-01  0.2080078E-08  0.0000000E+00 -0.2335705E-04
  0.3181818E+00  0.0000000E+00  0.1515152E-01  0.2074192E-08  0.0000000E+00 -0.2335565E-04
  0.3282828E+00  0.0000000E+00  0.1515152E-01  0.2060230E-08  0.0000000E+00 -0.2335425E-04
  0.3383838E+00  0.0000000E+00  0.1515152E-01  0.2037991E-08  0.0000000E+00 -0.2335286E-04
  0.3484848E+00  0.0000000E+00  0.1515152E-01  0.2007314E-08  0.0000000E+00 -0.2335150E-04
  0.3585859E+00  0.0000000E+00  0.1515152E-01  0.1968086E-08  0.0000000E+00 -0.2335015E-04
  0.3686869E+00  0.0000000E+00  0.1515152E-01  0.1920245E-08  0.0000000E+00 -0.2334884E-04
  0.3787879E+00  0.0000000E+00  0.1515152E-01  0.1863786E-08  0.0000000E+00 -0.2334756E-04
  0.3888889E+00  0.0000000E+00  0.1515152E-01  0.1798759E-08  0.0000000E+00 -0.2334632E-04
  0.3989899E+00  0.0000000E+00  0.1515152E-01  0.1725281E-08  0.0000000E+00 -0.2334513E-04
  0.4090909E+00  0.0000000E+00  0.1515152E-01  0.1643530E-08  0.0000000E+00 -0.2334399E-04
  0.4191919E+00  0.0000000E+00  0.1515152E-01  0.1553753E-08  0.0000000E+00 -0.2334291E-04
  0.4292929E+00  0.0000000E+00  0.1515152E-01  0.1456262E-08  0.0000000E+00 -0.2334190E-04
  0.4393939E+00  0.0000000E+00  0.1515152E-01  0.1351438E-08  0.0000000E+00 -0.2334095E-04
  0.4494950E+00  0.0000000E+00  0.1515152E-01  0.1239727E-08  0.0000000E+00 -0.2334007E-04
  0.4595959E+00  0.0000000E+00  0.1515152E-01  0.1121640E-08  0.0000000E+00 -0.2333927E-04
  0.4696970E+00  0.0000000E+00  0.1515152E-01  0.9977485E-09  0.0000000E+00 -0.2333856E-04
  0.4797980E+00  0.0000000E+00  0.1515152E-01  0.8686825E-09  0.0000000E+00 -0.2333792E-04
  0.4898990E+00  0.0000000E+00  0.1515152E-01  0.7351244E-09  0.0000000E+00 -0.2333738E-04
  0.5000000E+00  0.0000000E+00  0.1515152E-01  0.5978041E-09  0.0000000E+00 -0.2333693E-04
  0.5101010E+00  0.0000000E+00  0.1515152E-01  0.4574921E-09  0.0000000E+00 -0.2333657E-04
  0.5202020E+00  0.0000000E+00  0.1515152E-01  0.3149924E-09  0.0000000E+00 -0.2333631E-04
  0.5303030E+00  0.0000000E+00  0.1515152E-01  0.1711347E-09  0.0000000E+00 -0.2333615E-04
  0.5404040E+00  0.0000000E+00  0.1515152E-01  0.2676648E-10  0.0000000E+00 -0.2333608E-04
  0.5505050E+00  0.0000000E+00  0.1515152E-01 -0.1172565E-09  0.0000000E+00 -0.2333611E-04
  0.5606061E+00  0.0000000E+00  0.1515152E-01 -0.2600756E-09  0.0000000E+00 -0.2333624E-04
  0.5707071E+00  0.0000000E+00  0.1515152E-01 -0.4008425E-09  0.0000000E+00 -0.2333646E-04
  0.5808081E+00  0.0000000E+00  0.1515152E-01 -0.5387246E-09  0.0000000E+00 -0.2333678E-04
  0.5909091E+00  0.0000000E+00  0.1515152E-01 -0.6729150E-09  0.0000000E+00 -0.2333719E-04
  0.6010101E+00  0.0000000E+00  0.1515152E-01 -0.8026389E-09  0.0000000E+00 -0.2333769E-04
  0.6111111E+00  0.0000000E+00  0.1515152E-01 -0.9271619E-09  0.0000000E+00 -0.2333828E-04
  0.6212121E+00  0.0000000E+00  0.1515152E-01 -0.1045796E-08  0.0000000E+00 -0.2333894E-04
  0.6313131E+00  0.0000000E+00  0.1515152E-01 -0.1157904E-08  0.0000000E+00 -0.2333969E-04
  0.6414142E+00  0.0000000E+00  0.1515152E-01 -0.1262907E-08  0.0000000E+00 -0.2334051E-04
  0.6515151E+00  0.0000000E+00  0.1515152E-01 -0.1360287E-08  0.0000000E+00 -0.2334140E-04
  0.6616161E+00  0.0000000E+00  0.1515152E-01 -0.1449590E-08  0.0000000E+00 -0.2334235E-04
  0.6717172E+00  0.0000000E+00  0.1515152E-01 -0.1530428E-08  0.0000000E+00 -0.2334335E-04
  0.6818182E+00  0.0000000E+00  0.1515152E-01 -0.1602479E-08  0.0000000E+00 -0.2334441E-04
  0.6919192E+00  0.0000000E+00  0.1515152E-01 -0.1665491E-08  0.0000000E+00 -0.2334552E-04
  0.7020202E+00  0.0000000E+00  0.1515152E-01 -0.1719277E-08  0.0000000E+00 -0.2334666E-04
  0.7121212E+00  0.0000000E+00  0.1515152E-01 -0.1763715E-08  0.0000000E+00 -0.2334784E-04
  0.7222222E+00  0.0000000E+00  0.1515152E-01 -0.1798747E-08  0.0000000E+00 -0.2334905E-04
  0.7323232E+00  0.0000000E+00  0.1515152E-01 -0.1824375E-08  0.0000000E+00 -0.2335027E-04
  0.7424242E+00  0.0000000E+00  0.1515152E-01 -0.1840656E-08  0.0000000E+00 -0.2335151E-04
  0.7525253E+00  0.0000000E+00  0.1515152E-01 -0.1847705E-08  0.0000000E+00 -0.2335276E-04
  0.7626263E+00  0.0000000E+00  0.1515152E-01 -0.1845679E-08  0.0000000E+00 -0.2335400E-04
  0.7727273E+00  0.0000000E+00  0.1515152E-01 -0.1834786E-08  0.0000000E+00 -0.2335525E-04
  0.7828283E+00  0.0000000E+00  0.1515152E-01 -0.1815270E-08  0.0000000E+00 -0.2335648E-04
  0.7929293E+00  0.0000000E+00  0.1515152E-01 -0.1787412E-08  0.0000000E+00 -0.2335770E-04
  0.8030303E+00  0.0000000E+00  0.1515152E-01 -0.1751522E-08  0.0000000E+00 -0.2335890E-04
  0.8131313E+00  0.0000000E+00  0.1515152E-01 -0.1707939E-08  0.0000000E+00 -0.2336006E-04
  0.8232324E+00  0.0000000E+00  0.1515152E-01 -0.1657020E-08  0.0000000E+00 -0.2336120E-04
  0.8333333E+00  0.0000000E+00  0.1515152E-01 -0.1599144E-08  0.0000000E+00 -0.2336230E-04
  0.8434343E+00  0.0000000E+00  0.1515152E-01 -0.1534700E-08  0.0000000E+00 -0.2336336E-04
  0.8535354E+00  0.0000000E+00  0.1515152E-01 -0.1464090E-08  0.0000000E+00 -0.2336437E-04
  0.8636364E+00  0.0000000E+00  0.1515152E-01 -0.1387723E-08  0.0000000E+00 -0.2336534E-04
  0.8737374E+00  0.0000000E+00  0.1515152E-01 -0.1306011E-08  0.0000000E+00 -0.2336625E-04
  0.8838384E+00  0.0000000E+00  0.1515152E-01 -0.1219368E-08  0.0000000E+00 -0.2336710E-04
  0.8939394E+00  0.0000000E+00  0.1515152E-01 -0.1128210E-08  0.0000000E+00 -0.2336789E-04
  0.9040404E+00  0.0000000E+00  0.1515152E-01 -0.1032950E-08  0.0000000E+00 -0.2336862E-04
  0.9141414E+00  0.0000000E+00  0.1515152E-01 -0.9339978E-09  0.0000000E+00 -0.2336929E-04
  0.9242424E+00  0.0000000E+00  0.1515152E-01 -0.8317592E-09  0.0000000E+00 -0.2336988E-04
  0.9343435E+00  0.0000000E+00  0.1515152E-01 -0.7266363E-09  0.0000000E+00 -0.2337041E-04
  0.9444444E+00  0.0000000E+00  0.1515152E-01 -0.6190263E-09  0.0000000E+00 -0.2337086E-04
  0.9545454E+00  0.0000000E+00  0.1515152E-01 -0.5093217E-09  0.0000000E+00 -0.2337124E-04
  0.9646465E+00  0.0000000E+00  0.1515152E-01 -0.3979109E-09  0.0000000E+00 -0.2337155E-04
  0.9747475E+00  0.0000000E+00  0.1515152E-01 -0.2851790E-09  0.0000000E+00 -0.2337178E-04
  0.9848485E+00  0.0000000E+00  0.1515152E-01 -0.1715091E-09  0.0000000E+00 -0.2337194E-04
  0.9974747E+00  0.0000000E+00  0.1515152E-01 -0.5728499E-10  0.0000000E+00 -0.2337201E-04
  0.5050505E-02  0.0000000E+00  0.2525252E-01  0.8085713E-10  0.0000000E+00 -0.2326899E-04
  0.1515152E-01  0.0000000E+00  0.2525252E-01  0.2426482E-09  0.0000000E+00 -0.2326893E-04
  0.2525252E-01  0.0000000E+00  0.2525252E-01  0.4041772E-09  0.0000000E+00 -0.2326880E-04
  0.3535353E-01  0.0000000E+00  0.2525252E-01  0.5651780E-09  0.0000000E+00 -0.2326860E-04
  0.4545455E-01  0.0000000E+00  0.2525252E-01  0.7254653E-09  0.0000000E+00 -0.2326833E-04
  0.5555556E-01  0.0000000E+00  0.2525252E-01  0.8848177E-09  0.0000000E+00 -0.2326800E-04
  0.6565657E-01  0.0000000E+00  0.2525252E-01  0.1043003E-08  0.0000000E+00 -0.2326760E-04
  0.7575758E-01  0.0000000E+00  0.2525252E-01  0.1199772E-08  0.0000000E+00 -0.2326714E-04
  0.8585858E-01  0.0000000E+00  0.2525252E-01  0.1354855E-08  0.0000000E+00 -0.2326662E-04
  0.9595960E-01  0.0000000E+00  0.2525252E-01  0.1507964E-08  0.0000000E+00 -0.2326603E-04
  0.1060606E+00  0.0000000E+00  0.2525252E-01  0.1658785E-08  0.0000000E+00 -0.2326538E-04
  0.1161616E+00  0.0000000E+00  0.2525252E-01  0.1806982E-08  0.0000000E+00 -0.2326466E-04
  0.1262626E+00  0.0000000E+00  0.2525252E-01  0.1952192E-08  0.0000000E+00 -0.2326389E-04
  0.1363636E+00  0.0000000E+00  0.2525252E-01  0.2094025E-08  0.0000000E+00 -0.2326306E-04
  0.1464646E+00  0.0000000E+00  0.2525252E-01  0.2232066E-08  0.0000000E+00 -0.2326216E-04
  0.1565657E+00  0.0000000E+00  0.2525252E-01  0.2365868E-08  0.0000000E+00 -0.2326122E-04
  0.1666667E+00  0.0000000E+00  0.2525252E-01  0.2494959E-08  0.0000000E+00 -0.2326022E-04
  0.1767677E+00  0.0000000E+00  0.2525252E-01  0.2618841E-08  0.0000000E+00 -0.2325916E-04
  0.1868687E+00  0.0000000E+00  0.2525252E-01  0.2736988E-08  0.0000000E+00 -0.2325806E-04
  0.1969697E+00  0.0000000E+00  0.2525252E-01  0.2848852E-08  0.0000000E+00 -0.2325691E-04
  0.2070707E+00  0.0000000E+00  0.2525252E-01  0.2953864E-08  0.0000000E+00 -0.2325571E-04
  0.2171717E+00  0.0000000E+00  0.2525252E-01  0.3051437E-08  0.0000000E+00 -0.2325447E-04
  0.2272727E+00  0.0000000E+00  0.2525252E-01  0.3140969E-08  0.0000000E+00 -0.2325320E-04
  0.2373737E+00  0.0000000E+00  0.2525252E-01  0.3221849E-08  0.0000000E+00 -0.2325188E-04
  0.2474747E+00  0.0000000E+00  0.2525252E-01  0.3293461E-08  0.0000000E+00 -0.2325054E-04
  0.2575758E+00  0.0000000E+00  0.2525252E-01  0.3355191E-08  0.0000000E+00 -0.2324917E-04
  0.2676768E+00  0.0000000E+00  0.2525252E-01  0.3406430E-08  0.0000000E+00 -0.2324777E-04
  0.2777778E+00  0.0000000E+00  0.2525252E-01  0.3446585E-08  0.0000000E+00 -0.2324636E-04
  0.2878788E+00  0.0000000E+00  0.2525252E-01  0.3475082E-08  0.0000000E+00 -0.2324493E-04
  0.2979798E+00  0.0000000E+00  0.2525252E-01  0.3491378E-08  0.0000000E+00 -0.2324349E-04
  0.3080808E+00  0.0000000E+00  0.2525252E-01  0.3494968E-08  0.0000000E+00 -0.2324204E-04
  0.3181818E+00  0.0000000E+00  0.2525252E-01  0.3485388E-08  0.0000000E+00 -0.2324060E-04
  0.3282828E+00  0.0000000E+00  0.2525252E-01  0.3462234E-08  0.0000000E+00 -0.2323916E-04
  0.3383838E+00  0.0000000E+00  0.2525252E-01  0.3425159E-08  0.0000000E+00 -0.2323774E-04
  0.3484848E+00  0.0000000E+00  0.2525252E-01  0.3373889E-08  0.0000000E+00 -0.2323633E-04
  0.3585859E+00  0.0000000E+00  0.2525252E-01  0.3308231E-08  0.0000000E+00 -0.2323495E-04
  0.3686869E+00  0.0000000E+00  0.2525252E-01  0.3228074E-08  0.0000000E+00 -0.2323360E-04
  0.3787879E+00  0.0000000E+00  0.2525252E-01  0.3133404E-08  0.0000000E+00 -0.2323228E-04
  0.3888889E+00  0.0000000E+00  0.2525252E-01  0.3024306E-08  0.0000000E+00 -0.2323100E-04
  0.3989899E+00  0.0000000E+00  0.2525252E-01  0.2900969E-08  0.0000000E+00 -0.2322978E-04
  0.4090909E+00  0.0000000E+00  0.2525252E-01  0.2763691E-08  0.0000000E+00 -0.2322860E-04
  0.4191919E+00  0.0000000E+00  0.2525252E-01  0.2612885E-08  0.0000000E+00 -0.2322749E-04
  0.4292929E+00  0.0000000E+00  0.2525252E-01  0.2449073E-08  0.0000000E+00 -0.2322644E-04
  0.4393939E+00  0.0000000E+00  0.2525252E-01  0.2272895E-08  0.0000000E+00 -0.2322546E-04
  0.4494950E+00  0.0000000E+00  0.2525252E-01  0.2085100E-08  0.0000000E+00 -0.2322456E-04
  0.4595959E+00  0.0000000E+00  0.2525252E-01  0.1886548E-08  0.0000000E+00 -0.2322373E-04
  0.4696970E+00  0.0000000E+00  0.2525252E-01  0.1678202E-08  0.0000000E+00 -0.2322300E-04
  0.4797980E+00  0.0000000E+00  0.2525252E-01  0.1461122E-08  0.0000000E+00 -0.2322234E-04
  0.4898990E+00  0.0000000E+00  0.2525252E-01  0.1236460E-08  0.0000000E+00 -0.2322179E-04
  0.5000000E+00  0.0000000E+00  0.2525252E-01  0.1005445E-08  0.0000000E+00 -0.2322132E-04
  0.5101010E+00  0.0000000E+00  0.2525252E-01  0.7693769E-09  0.0000000E+00 -0.2322095E-04
  0.5202020E+00  0.0000000E+00  0.2525252E-01  0.5296123E-09  0.0000000E+00 -0.2322068E-04
  0.5303030E+00  0.0000000E+00  0.2525252E-01  0.2875510E-09  0.0000000E+00 -0.2322051E-04
  0.5404040E+00  0.0000000E+00  0.2525252E-01  0.4462323E-10  0.0000000E+00 -0.2322045E-04
  0.5505050E+00  0.0000000E+00  0.2525252E-01 -0.1977264E-09  0.0000000E+00 -0.2322048E-04
  0.5606061E+00  0.0000000E+00  0.2525252E-01 -0.4380496E-09  0.0000000E+00 -0.2322061E-04
  0.5707071E+00  0.0000000E+00  0.2525252E-01 -0.6749141E-09  0.0000000E+00 -0.2322084E-04
  0.5808081E+00  0.0000000E+00  0.2525252E-01 -0.9069156E-09  0.0000000E+00 -0.2322117E-04
  0.5909091E+00  0.0000000E+00  0.2525252E-01 -0.1132693E-08  0.0000000E+00 -0.2322159E-04
  0.6010101E+00  0.0000000E+00  0.2525252E-01 -0.1350939E-08  0.0000000E+00 -0.2322211E-04
  0.6111111E+00  0.0000000E+00  0.2525252E-01 -0.1560415E-08  0.0000000E+00 -0.2322272E-04
  0.6212121E+00  0.0000000E+00  0.2525252E-01 -0.1759962E-08  0.0000000E+00 -0.2322341E-04
  0.6313131E+00  0.0000000E+00  0.2525252E-01 -0.1948506E-08  0.0000000E+00 -0.2322418E-04
  0.6414142E+00  0.0000000E+00  0.2525252E-01 -0.2125073E-08  0.0000000E+00 -0.2322502E-04
  0.6515151E+00  0.0000000E+00  0.2525252E-01 -0.2288791E-08  0.0000000E+00 -0.2322594E-04
  0.6616161E+00  0.0000000E+00  0.2525252E-01 -0.2438897E-08  0.0000000E+00 -0.2322692E-04
  0.6717172E+00  0.0000000E+00  0.2525252E-01 -0.2574738E-08  0.0000000E+00 -0.2322796E-04
  0.6818182E+00  0.0000000E+00  0.2525252E-01 -0.2695777E-08  0.0000000E+00 -0.2322905E-04
  0.6919192E+00  0.0000000E+00  0.2525252E-01 -0.2801590E-08  0.0000000E+00 -0.2323019E-04
  0.7020202E+00  0.0000000E+00  0.2525252E-01 -0.2891867E-08  0.0000000E+00 -0.2323137E-04
  0.7121212E+00  0.0000000E+00  0.2525252E-01 -0.2966405E-08  0.0000000E+00 -0.2323259E-04
  0.7222222E+00  0.0000000E+00  0.2525252E-01 -0.3025110E-08  0.0000000E+00 -0.2323383E-04
  0.7323232E+00  0.0000000E+00  0.2525252E-01 -0.3067990E-08  0.0000000E+00 -0.2323509E-04
  0.7424242E+00  0.0000000E+00  0.2525252E-01 -0.3095147E-08  0.0000000E+00 -0.2323637E-04
  0.7525253E+00  0.0000000E+00  0.2525252E-01 -0.3106773E-08  0.0000000E+00 -0.2323765E-04
  0.7626263E+00  0.0000000E+00  0.2525252E-01 -0.3103143E-08  0.0000000E+00 -0.2323894E-04
  0.7727273E+00  0.0000000E+00  0.2525252E-01 -0.3084606E-08  0.0000000E+00 -0.2324022E-04
  0.7828283E+00  0.0000000E+00  0.2525252E-01 -0.3051579E-08  0.0000000E+00 -0.2324149E-04
  0.7929293E+00  0.0000000E+00  0.2525252E-01 -0.3004535E-08  0.0000000E+00 -0.2324274E-04
  0.8030303E+00  0.0000000E+00  0.2525252E-01 -0.2944003E-08  0.0000000E+00 -0.2324398E-04
  0.8131313E+00  0.0000000E+00  0.2525252E-01 -0.2870552E-08  0.0000000E+00 -0.2324518E-04
  0.8232324E+00  0.0000000E+00  0.2525252E-01 -0.2784790E-08  0.0000000E+00 -0.2324635E-04
  0.8333333E+00  0.0000000E+00  0.2525252E-01 -0.2687351E-08  0.0000000E+00 -0.2324748E-04
  0.8434343E+00  0.0000000E+00  0.2525252E-01 -0.2578895E-08  0.0000000E+00 -0.2324857E-04
  0.8535354E+00  0.0000000E+00  0.2525252E-01 -0.2460098E-08  0.0000000E+00 -0.2324961E-04
  0.8636364E+00  0.0000000E+00  0.2525252E-01 -0.2331648E-08  0.0000000E+00 -0.2325060E-04
  0.8737374E+00  0.0000000E+00  0.2525252E-01 -0.2194239E-08  0.0000000E+00 -0.2325154E-04
  0.8838384E+00  0.0000000E+00  0.2525252E-01 -0.2048569E-08  0.0000000E+00 -0.2325241E-04
  0.8939394E+00  0.0000000E+00  0.2525252E-01 -0.1895334E-08  0.0000000E+00 -0.2325323E-04
  0.9040404E+00  0.0000000E+00  0.2525252E-01 -0.1735228E-08  0.0000000E+00 -0.2325398E-04
  0.9141414E+00  0.0000000E+00  0.2525252E-01 -0.1568939E-08  0.0000000E+00 -0.2325466E-04
  0.9242424E+00  0.0000000E+00  0.2525252E-01 -0.1397148E-08  0.0000000E+00 -0.2325527E-04
  0.9343435E+00  0.0000000E+00  0.2525252E-01 -0.1220530E-08  0.0000000E+00 -0.2325581E-04
  0.9444444E+00  0.0000000E+00  0.2525252E-01 -0.1039749E-08  0.0000000E+00 -0.2325628E-04
  0.9545454E+00  0.0000000E+00  0.2525252E-01 -0.8554635E-09  0.0000000E+00 -0.2325667E-04
  0.9646465E+00  0.0000000E+00  0.2525252E-01 -0.6683226E-09  0.0000000E+00 -0.2325699E-04
  0.9747475E+00  0.0000000E+00  0.2525252E-01 -0.4789700E-09  0.0000000E+00 -0.2325722E-04
  0.9848485E+00  0.0000000E+00  0.2525252E-01 -0.2880439E-09  0.0000000E+00 -0.2325738E-04
  0.9974747E+00  0.0000000E+00  0.2525252E-01 -0.9617965E-10  0.0000000E+00 -0.2325746E-04
  0.5050505E-02  0.0000000E+00  0.3535353E-01  0.1143661E-09  0.0000000E+00 -0.2309837E-04
  0.1515152E-01  0.0000000E+00  0.3535353E-01  0.3431552E-09  0.0000000E+00 -0.2309830E-04
  0.2525252E-01  0.0000000E+00  0.3535353E-01  0.5715788E-09  0.0000000E+00 -0.2309816E-04
  0.3535353E-01  0.0000000E+00  0.3535353E-01  0.7992726E-09  0.0000000E+00 -0.2309796E-04
  0.4545455E-01  0.0000000E+00  0.3535353E-01  0.1025976E-08  0.0000000E+00 -0.2309768E-04
  0.5555556E-01  0.0000000E+00  0.3535353E-01  0.1251379E-08  0.0000000E+00 -0.2309734E-04
  0.6565657E-01  0.0000000E+00  0.3535353E-01  0.1475157E-08  0.0000000E+00 -0.2309693E-04
  0.7575758E-01  0.0000000E+00  0.3535353E-01  0.1696962E-08  0.0000000E+00 -0.2309645E-04
  0.8585858E-01  0.0000000E+00  0.3535353E-01  0.1916417E-08  0.0000000E+00 -0.2309591E-04
  0.9595960E-01  0.0000000E+00  0.3535353E-01  0.2133117E-08  0.0000000E+00 -0.2309530E-04
  0.1060606E+00  0.0000000E+00  0.3535353E-01  0.2346622E-08  0.0000000E+00 -0.2309463E-04
  0.1161616E+00  0.0000000E+00  0.3535353E-01  0.2556458E-08  0.0000000E+00 -0.2309389E-04
  0.1262626E+00  0.0000000E+00  0.3535353E-01  0.2762115E-08  0.0000000E+00 -0.2309309E-04
  0.1363636E+00  0.0000000E+00  0.3535353E-01  0.2963044E-08  0.0000000E+00 -0.2309222E-04
  0.1464646E+00  0.0000000E+00  0.3535353E-01  0.3158657E-08  0.0000000E+00 -0.2309130E-04
  0.1565657E+00  0.0000000E+00  0.3535353E-01  0.3348325E-08  0.0000000E+00 -0.2309032E-04
  0.1666667E+00  0.0000000E+00  0.3535353E-01  0.3531379E-08  0.0000000E+00 -0.2308928E-04
  0.1767677E+00  0.0000000E+00  0.3535353E-01  0.3707112E-08  0.0000000E+00 -0.2308819E-04
  0.1868687E+00  0.0000000E+00  0.3535353E-01  0.3874782E-08  0.0000000E+00 -0.2308705E-04
  0.1969697E+00  0.0000000E+00  0.3535353E-01  0.4033609E-08  0.0000000E+00 -0.2308585E-04
  0.2070707E+00  0.0000000E+00  0.3535353E-01  0.4182785E-08  0.0000000E+00 -0.2308461E-04
  0.2171717E+00  0.0000000E+00  0.3535353E-01  0.4321476E-08  0.0000000E+00 -0.2308333E-04
  0.2272727E+00  0.0000000E+00  0.3535353E-01  0.4448826E-08  0.0000000E+00 -0.2308200E-04
  0.2373737E+00  0.0000000E+00  0.3535353E-01  0.4563964E-08  0.0000000E+00 -0.2308064E-04
  0.2474747E+00  0.0000000E+00  0.3535353E-01  0.4666011E-08  0.0000000E+00 -0.2307924E-04
  0.2575758E+00  0.0000000E+00  0.3535353E-01  0.4754092E-08  0.0000000E+00 -0.2307781E-04
  0.2676768E+00  0.0000000E+00  0.3535353E-01  0.4827336E-08  0.0000000E+00 -0.2307636E-04
  0.2777778E+00  0.0000000E+00  0.3535353E-01  0.4884895E-08  0.0000000E+00 -0.2307489E-04
  0.2878788E+00  0.0000000E+00  0.3535353E-01  0.4925948E-08  0.0000000E+00 -0.2307340E-04
  0.2979798E+00  0.0000000E+00  0.3535353E-01  0.4949715E-08  0.0000000E+00 -0.2307190E-04