title = "dataset feddes"
variables = "x", "y", "z", "vx", "vy", "vz"
zone t = "velocities, solution time =  5.000E+01 days        " i =   49, j =   49, k =    1,  f=point
  0.2040816E-01  0.0000000E+00  0.2040816E-01  0.6124832E-07  0.0000000E+00  0.1042997E-02
  0.6122449E-01  0.0000000E+00  0.2040816E-01  0.1699226E-06  0.0000000E+00  0.1043494E-02
  0.1020408E+00  0.0000000E+00  0.2040816E-01  0.2373122E-06  0.0000000E+00  0.1044368E-02
  0.1428571E+00  0.0000000E+00  0.2040816E-01  0.2383571E-06  0.0000000E+00  0.1045389E-02
  0.1836735E+00  0.0000000E+00  0.2040816E-01  0.1517259E-06  0.0000000E+00  0.1046226E-02
  0.2244898E+00  0.0000000E+00  0.2040816E-01 -0.3888558E-07  0.0000000E+00  0.1046468E-02
  0.2653061E+00  0.0000000E+00  0.2040816E-01 -0.3435581E-06  0.0000000E+00  0.1045647E-02
  0.3061225E+00  0.0000000E+00  0.2040816E-01 -0.7652697E-06  0.0000000E+00  0.1043267E-02
  0.3469388E+00  0.0000000E+00  0.2040816E-01 -0.1299408E-05  0.0000000E+00  0.1038835E-02
  0.3877551E+00  0.0000000E+00  0.2040816E-01 -0.1933812E-05  0.0000000E+00  0.1031895E-02
  0.4285714E+00  0.0000000E+00  0.2040816E-01 -0.2649424E-05  0.0000000E+00  0.1022057E-02
  0.4693878E+00  0.0000000E+00  0.2040816E-01 -0.3421536E-05  0.0000000E+00  0.1009025E-02
  0.5102041E+00  0.0000000E+00  0.2040816E-01 -0.4221570E-05  0.0000000E+00  0.9926193E-03
  0.5510204E+00  0.0000000E+00  0.2040816E-01 -0.5019197E-05  0.0000000E+00  0.9727842E-03
  0.5918368E+00  0.0000000E+00  0.2040816E-01 -0.5784585E-05  0.0000000E+00  0.9495944E-03
  0.6326531E+00  0.0000000E+00  0.2040816E-01 -0.6490495E-05  0.0000000E+00  0.9232471E-03
  0.6734694E+00  0.0000000E+00  0.2040816E-01 -0.7114001E-05  0.0000000E+00  0.8940470E-03
  0.7142857E+00  0.0000000E+00  0.2040816E-01 -0.7637679E-05  0.0000000E+00  0.8623852E-03
  0.7551020E+00  0.0000000E+00  0.2040816E-01 -0.8050184E-05  0.0000000E+00  0.8287149E-03
  0.7959183E+00  0.0000000E+00  0.2040816E-01 -0.8346236E-05  0.0000000E+00  0.7935247E-03
  0.8367347E+00  0.0000000E+00  0.2040816E-01 -0.8526128E-05  0.0000000E+00  0.7573140E-03
  0.8775510E+00  0.0000000E+00  0.2040816E-01 -0.8594877E-05  0.0000000E+00  0.7205705E-03
  0.9183673E+00  0.0000000E+00  0.2040816E-01 -0.8561177E-05  0.0000000E+00  0.6837528E-03
  0.9591837E+00  0.0000000E+00  0.2040816E-01 -0.8436300E-05  0.0000000E+00  0.6472763E-03
  0.1000000E+01  0.0000000E+00  0.2040816E-01 -0.8233049E-05  0.0000000E+00  0.6115049E-03
  0.1040816E+01  0.0000000E+00  0.2040816E-01 -0.7964834E-05  0.0000000E+00  0.5767461E-03
  0.1081633E+01  0.0000000E+00  0.2040816E-01 -0.7644924E-05  0.0000000E+00  0.5432500E-03
  0.1122449E+01  0.0000000E+00  0.2040816E-01 -0.7285879E-05  0.0000000E+00  0.5112117E-03
  0.1163265E+01  0.0000000E+00  0.2040816E-01 -0.6899145E-05  0.0000000E+00  0.4807742E-03
  0.1204082E+01  0.0000000E+00  0.2040816E-01 -0.6494811E-05  0.0000000E+00  0.4520348E-03
  0.1244898E+01  0.0000000E+00  0.2040816E-01 -0.6081481E-05  0.0000000E+00  0.4250503E-03
  0.1285714E+01  0.0000000E+00  0.2040816E-01 -0.5666246E-05  0.0000000E+00  0.3998441E-03
  0.1326531E+01  0.0000000E+00  0.2040816E-01 -0.5254725E-05  0.0000000E+00  0.3764122E-03
  0.1367347E+01  0.0000000E+00  0.2040816E-01 -0.4851158E-05  0.0000000E+00  0.3547294E-03
  0.1408163E+01  0.0000000E+00  0.2040816E-01 -0.4458534E-05  0.0000000E+00  0.3347552E-03
  0.1448980E+01  0.0000000E+00  0.2040816E-01 -0.4078745E-05  0.0000000E+00  0.3164385E-03
  0.1489796E+01  0.0000000E+00  0.2040816E-01 -0.3712747E-05  0.0000000E+00  0.2997221E-03
  0.1530612E+01  0.0000000E+00  0.2040816E-01 -0.3360740E-05  0.0000000E+00  0.2845462E-03
  0.1571429E+01  0.0000000E+00  0.2040816E-01 -0.3022331E-05  0.0000000E+00  0.2708518E-03
  0.1612245E+01  0.0000000E+00  0.2040816E-01 -0.2696694E-05  0.0000000E+00  0.2585821E-03
  0.1653061E+01  0.0000000E+00  0.2040816E-01 -0.2382716E-05  0.0000000E+00  0.2476848E-03
  0.1693878E+01  0.0000000E+00  0.2040816E-01 -0.2079116E-05  0.0000000E+00  0.2381125E-03
  0.1734694E+01  0.0000000E+00  0.2040816E-01 -0.1784537E-05  0.0000000E+00  0.2298235E-03
  0.1775510E+01  0.0000000E+00  0.2040816E-01 -0.1497615E-05  0.0000000E+00  0.2227821E-03
  0.1816326E+01  0.0000000E+00  0.2040816E-01 -0.1217020E-05  0.0000000E+00  0.2169583E-03
  0.1857143E+01  0.0000000E+00  0.2040816E-01 -0.9414827E-06  0.0000000E+00  0.2123275E-03
  0.1897959E+01  0.0000000E+00  0.2040816E-01 -0.6697971E-06  0.0000000E+00  0.2088708E-03
  0.1938776E+01  0.0000000E+00  0.2040816E-01 -0.4008165E-06  0.0000000E+00  0.2065740E-03
  0.1989796E+01  0.0000000E+00  0.2040816E-01 -0.1334426E-06  0.0000000E+00  0.2054278E-03
  0.2040816E-01  0.0000000E+00  0.6122449E-01  0.2152041E-06  0.0000000E+00  0.1042771E-02
  0.6122449E-01  0.0000000E+00  0.6122449E-01  0.5987278E-06  0.0000000E+00  0.1043322E-02
  0.1020408E+00  0.0000000E+00  0.6122449E-01  0.8426083E-06  0.0000000E+00  0.1044304E-02
  0.1428571E+00  0.0000000E+00  0.6122449E-01  0.8619805E-06  0.0000000E+00  0.1045479E-02
  0.1836735E+00  0.0000000E+00  0.6122449E-01  0.5845348E-06  0.0000000E+00  0.1046508E-02
  0.2244898E+00  0.0000000E+00  0.6122449E-01 -0.4510280E-07  0.0000000E+00  0.1046968E-02
  0.2653061E+00  0.0000000E+00  0.6122449E-01 -0.1061297E-05  0.0000000E+00  0.1046378E-02
  0.3061225E+00  0.0000000E+00  0.6122449E-01 -0.2474356E-05  0.0000000E+00  0.1044228E-02
  0.3469388E+00  0.0000000E+00  0.6122449E-01 -0.4268831E-05  0.0000000E+00  0.1040008E-02
  0.3877551E+00  0.0000000E+00  0.6122449E-01 -0.6403597E-05  0.0000000E+00  0.1033250E-02
  0.4285714E+00  0.0000000E+00  0.6122449E-01 -0.8814015E-05  0.0000000E+00  0.1023549E-02
  0.4693878E+00  0.0000000E+00  0.6122449E-01 -0.1141618E-04  0.0000000E+00  0.1010602E-02
  0.5102041E+00  0.0000000E+00  0.6122449E-01 -0.1411298E-04  0.0000000E+00  0.9942213E-03
  0.5510204E+00  0.0000000E+00  0.6122449E-01 -0.1680137E-04  0.0000000E+00  0.9743515E-03
  0.5918368E+00  0.0000000E+00  0.6122449E-01 -0.1938008E-04  0.0000000E+00  0.9510699E-03
  0.6326531E+00  0.0000000E+00  0.6122449E-01 -0.2175675E-04  0.0000000E+00  0.9245806E-03
  0.6734694E+00  0.0000000E+00  0.6122449E-01 -0.2385388E-04  0.0000000E+00  0.8951981E-03
  0.7142857E+00  0.0000000E+00  0.6122449E-01 -0.2561280E-04  0.0000000E+00  0.8633252E-03
  0.7551020E+00  0.0000000E+00  0.6122449E-01 -0.2699558E-04  0.0000000E+00  0.8294272E-03
  0.7959183E+00  0.0000000E+00  0.6122449E-01 -0.2798495E-04  0.0000000E+00  0.7940042E-03
  0.8367347E+00  0.0000000E+00  0.6122449E-01 -0.2858252E-04  0.0000000E+00  0.7575660E-03
  0.8775510E+00  0.0000000E+00  0.6122449E-01 -0.2880583E-04  0.0000000E+00  0.7206088E-03
  0.9183673E+00  0.0000000E+00  0.6122449E-01 -0.2868477E-04  0.0000000E+00  0.6835973E-03
  0.9591837E+00  0.0000000E+00  0.6122449E-01 -0.2825780E-04  0.0000000E+00  0.6469511E-03
  0.1000000E+01  0.0000000E+00  0.6122449E-01 -0.2756839E-04  0.0000000E+00  0.6110362E-03
  0.1040816E+01  0.0000000E+00  0.6122449E-01 -0.2666193E-04  0.0000000E+00  0.5761605E-03
  0.1081633E+01  0.0000000E+00  0.6122449E-01 -0.2558322E-04  0.0000000E+00  0.5425735E-03
  0.1122449E+01  0.0000000E+00  0.6122449E-01 -0.2437451E-04  0.0000000E+00  0.5104682E-03
  0.1163265E+01  0.0000000E+00  0.6122449E-01 -0.2307427E-04  0.0000000E+00  0.4799853E-03
  0.1204082E+01  0.0000000E+00  0.6122449E-01 -0.2171630E-04  0.0000000E+00  0.4512192E-03
  0.1244898E+01  0.0000000E+00  0.6122449E-01 -0.2032940E-04  0.0000000E+00  0.4242237E-03
  0.1285714E+01  0.0000000E+00  0.6122449E-01 -0.1893722E-04  0.0000000E+00  0.3990191E-03
  0.1326531E+01  0.0000000E+00  0.6122449E-01 -0.1755850E-04  0.0000000E+00  0.3755988E-03
  0.1367347E+01  0.0000000E+00  0.6122449E-01 -0.1620729E-04  0.0000000E+00  0.3539348E-03
  0.1408163E+01  0.0000000E+00  0.6122449E-01 -0.1489349E-04  0.0000000E+00  0.3339843E-03
  0.1448980E+01  0.0000000E+00  0.6122449E-01 -0.1362328E-04  0.0000000E+00  0.3156942E-03
  0.1489796E+01  0.0000000E+00  0.6122449E-01 -0.1239974E-04  0.0000000E+00  0.2990054E-03
  0.1530612E+01  0.0000000E+00  0.6122449E-01 -0.1122341E-04  0.0000000E+00  0.2838571E-03
  0.1571429E+01  0.0000000E+00  0.6122449E-01 -0.1009286E-04  0.0000000E+00  0.2701890E-03
  0.1612245E+01  0.0000000E+00  0.6122449E-01 -0.9005213E-05  0.0000000E+00  0.2579437E-03
  0.1653061E+01  0.0000000E+00  0.6122449E-01 -0.7956669E-05  0.0000000E+00  0.2470683E-03
  0.1693878E+01  0.0000000E+00  0.6122449E-01 -0.6942871E-05  0.0000000E+00  0.2375153E-03
  0.1734694E+01  0.0000000E+00  0.6122449E-01 -0.5959232E-05  0.0000000E+00  0.2292430E-03
  0.1775510E+01  0.0000000E+00  0.6122449E-01 -0.5001160E-05  0.0000000E+00  0.2222156E-03
  0.1816326E+01  0.0000000E+00  0.6122449E-01 -0.4064198E-05  0.0000000E+00  0.2164031E-03
  0.1857143E+01  0.0000000E+00  0.6122449E-01 -0.3144095E-05  0.0000000E+00  0.2117812E-03
  0.1897959E+01  0.0000000E+00  0.6122449E-01 -0.2236822E-05  0.0000000E+00  0.2083310E-03
  0.1938776E+01  0.0000000E+00  0.6122449E-01 -0.1338556E-05  0.0000000E+00  0.2060385E-03
  0.1989796E+01  0.0000000E+00  0.6122449E-01 -0.4456343E-06  0.0000000E+00  0.2048945E-03
  0.2040816E-01  0.0000000E+00  0.1020408E+00  0.4171666E-06  0.0000000E+00  0.1042205E-02
  0.6122449E-01  0.0000000E+00  0.1020408E+00  0.1166624E-05  0.0000000E+00  0.1042888E-02
  0.1020408E+00  0.0000000E+00  0.1020408E+00  0.1663972E-05  0.0000000E+00  0.1044127E-02
  0.1428571E+00  0.0000000E+00  0.1020408E+00  0.1755724E-05  0.0000000E+00  0.1045669E-02
  0.1836735E+00  0.0000000E+00  0.1020408E+00  0.1310765E-05  0.0000000E+00  0.1047155E-02
  0.2244898E+00  0.0000000E+00  0.1020408E+00  0.2282983E-06  0.0000000E+00  0.1048136E-02
  0.2653061E+00  0.0000000E+00  0.1020408E+00 -0.1554711E-05  0.0000000E+00  0.1048099E-02
  0.3061225E+00  0.0000000E+00  0.1020408E+00 -0.4057767E-05  0.0000000E+00  0.1046497E-02
  0.3469388E+00  0.0000000E+00  0.1020408E+00 -0.7253569E-05  0.0000000E+00  0.1042786E-02
  0.3877551E+00  0.0000000E+00  0.1020408E+00 -0.1106792E-04  0.0000000E+00  0.1036462E-02
  0.4285714E+00  0.0000000E+00  0.1020408E+00 -0.1538350E-04  0.0000000E+00  0.1027091E-02
  0.4693878E+00  0.0000000E+00  0.1020408E+00 -0.2004760E-04  0.0000000E+00  0.1014346E-02
  0.5102041E+00  0.0000000E+00  0.1020408E+00 -0.2488323E-04  0.0000000E+00  0.9980254E-03
  0.5510204E+00  0.0000000E+00  0.1020408E+00 -0.2970264E-04  0.0000000E+00  0.9780718E-03
  0.5918368E+00  0.0000000E+00  0.1020408E+00 -0.3432158E-04  0.0000000E+00  0.9545699E-03
  0.6326531E+00  0.0000000E+00  0.1020408E+00 -0.3857260E-04  0.0000000E+00  0.9277404E-03
  0.6734694E+00  0.0000000E+00  0.1020408E+00 -0.4231587E-04  0.0000000E+00  0.8979219E-03
  0.7142857E+00  0.0000000E+00  0.1020408E+00 -0.4544645E-04  0.0000000E+00  0.8655451E-03
  0.7551020E+00  0.0000000E+00  0.1020408E+00 -0.4789755E-04  0.0000000E+00  0.8311046E-03
  0.7959183E+00  0.0000000E+00  0.1020408E+00 -0.4964014E-04  0.0000000E+00  0.7951285E-03
  0.8367347E+00  0.0000000E+00  0.1020408E+00 -0.5067941E-04  0.0000000E+00  0.7581509E-03
  0.8775510E+00  0.0000000E+00  0.1020408E+00 -0.5104914E-04  0.0000000E+00  0.7206880E-03
  0.9183673E+00  0.0000000E+00  0.1020408E+00 -0.5080501E-04  0.0000000E+00  0.6832193E-03
  0.9591837E+00  0.0000000E+00  0.1020408E+00 -0.5001766E-04  0.0000000E+00  0.6461737E-03
  0.1000000E+01  0.0000000E+00  0.1020408E+00 -0.4876620E-04  0.0000000E+00  0.6099220E-03
  0.1040816E+01  0.0000000E+00  0.1020408E+00 -0.4713265E-04  0.0000000E+00  0.5747731E-03
  0.1081633E+01  0.0000000E+00  0.1020408E+00 -0.4519746E-04  0.0000000E+00  0.5409741E-03
  0.1122449E+01  0.0000000E+00  0.1020408E+00 -0.4303620E-04  0.0000000E+00  0.5087136E-03
  0.1163265E+01  0.0000000E+00  0.1020408E+00 -0.4071731E-04  0.0000000E+00  0.4781262E-03
  0.1204082E+01  0.0000000E+00  0.1020408E+00 -0.3830069E-04  0.0000000E+00  0.4492995E-03
  0.1244898E+01  0.0000000E+00  0.1020408E+00 -0.3583715E-04  0.0000000E+00  0.4222803E-03
  0.1285714E+01  0.0000000E+00  0.1020408E+00 -0.3336829E-04  0.0000000E+00  0.3970817E-03
  0.1326531E+01  0.0000000E+00  0.1020408E+00 -0.3092684E-04  0.0000000E+00  0.3736903E-03
  0.1367347E+01  0.0000000E+00  0.1020408E+00 -0.2853726E-04  0.0000000E+00  0.3520720E-03
  0.1408163E+01  0.0000000E+00  0.1020408E+00 -0.2621655E-04  0.0000000E+00  0.3321784E-03
  0.1448980E+01  0.0000000E+00  0.1020408E+00 -0.2397518E-04  0.0000000E+00  0.3139515E-03
  0.1489796E+01  0.0000000E+00  0.1020408E+00 -0.2181811E-04  0.0000000E+00  0.2973286E-03
  0.1530612E+01  0.0000000E+00  0.1020408E+00 -0.1974583E-04  0.0000000E+00  0.2822454E-03
  0.1571429E+01  0.0000000E+00  0.1020408E+00 -0.1775538E-04  0.0000000E+00  0.2686394E-03
  0.1612245E+01  0.0000000E+00  0.1020408E+00 -0.1584132E-04  0.0000000E+00  0.2564514E-03
  0.1653061E+01  0.0000000E+00  0.1020408E+00 -0.1399662E-04  0.0000000E+00  0.2456277E-03
  0.1693878E+01  0.0000000E+00  0.1020408E+00 -0.1221336E-04  0.0000000E+00  0.2361201E-03
  0.1734694E+01  0.0000000E+00  0.1020408E+00 -0.1048326E-04  0.0000000E+00  0.2278866E-03
  0.1775510E+01  0.0000000E+00  0.1020408E+00 -0.8798124E-05  0.0000000E+00  0.2208917E-03
  0.1816326E+01  0.0000000E+00  0.1020408E+00 -0.7150035E-05  0.0000000E+00  0.2151057E-03
  0.1857143E+01  0.0000000E+00  0.1020408E+00 -0.5531486E-05  0.0000000E+00  0.2105046E-03
  0.1897959E+01  0.0000000E+00  0.1020408E+00 -0.3935391E-05  0.0000000E+00  0.2070696E-03
  0.1938776E+01  0.0000000E+00  0.1020408E+00 -0.2355046E-05  0.0000000E+00  0.2047871E-03
  0.1989796E+01  0.0000000E+00  0.1020408E+00 -0.7840348E-06  0.0000000E+00  0.2036480E-03
  0.2040816E-01  0.0000000E+00  0.1428571E+00  0.6661111E-06  0.0000000E+00  0.1041240E-02
  0.6122449E-01  0.0000000E+00  0.1428571E+00  0.1875591E-05  0.0000000E+00  0.1042130E-02
  0.1020408E+00  0.0000000E+00  0.1428571E+00  0.2721081E-05  0.0000000E+00  0.1043769E-02
  0.1428571E+00  0.0000000E+00  0.1428571E+00  0.2980397E-05  0.0000000E+00  0.1045887E-02
  0.1836735E+00  0.0000000E+00  0.1428571E+00  0.2462901E-05  0.0000000E+00  0.1048090E-02
  0.2244898E+00  0.0000000E+00  0.1428571E+00  0.1021069E-05  0.0000000E+00  0.1049888E-02
  0.2653061E+00  0.0000000E+00  0.1428571E+00 -0.1438496E-05  0.0000000E+00  0.1050719E-02
  0.3061225E+00  0.0000000E+00  0.1428571E+00 -0.4946190E-05  0.0000000E+00  0.1049981E-02
  0.3469388E+00  0.0000000E+00  0.1428571E+00 -0.9464059E-05  0.0000000E+00  0.1047073E-02
  0.3877551E+00  0.0000000E+00  0.1428571E+00 -0.1488515E-04  0.0000000E+00  0.1041433E-02
  0.4285714E+00  0.0000000E+00  0.1428571E+00 -0.2103861E-04  0.0000000E+00  0.1032582E-02
  0.4693878E+00  0.0000000E+00  0.1428571E+00 -0.2770094E-04  0.0000000E+00  0.1020154E-02
  0.5102041E+00  0.0000000E+00  0.1428571E+00 -0.3461260E-04  0.0000000E+00  0.1003928E-02
  0.5510204E+00  0.0000000E+00  0.1428571E+00 -0.4149826E-04  0.0000000E+00  0.9838405E-03
  0.5918368E+00  0.0000000E+00  0.1428571E+00 -0.4808844E-04  0.0000000E+00  0.9599894E-03
  0.6326531E+00  0.0000000E+00  0.1428571E+00 -0.5413948E-04  0.0000000E+00  0.9326230E-03
  0.6734694E+00  0.0000000E+00  0.1428571E+00 -0.5944966E-04  0.0000000E+00  0.9021185E-03
  0.7142857E+00  0.0000000E+00  0.1428571E+00 -0.6386969E-04  0.0000000E+00  0.8689518E-03
  0.7551020E+00  0.0000000E+00  0.1428571E+00 -0.6730714E-04  0.0000000E+00  0.8336639E-03
  0.7959183E+00  0.0000000E+00  0.1428571E+00 -0.6972510E-04  0.0000000E+00  0.7968273E-03
  0.8367347E+00  0.0000000E+00  0.1428571E+00 -0.7113636E-04  0.0000000E+00  0.7590143E-03
  0.8775510E+00  0.0000000E+00  0.1428571E+00 -0.7159461E-04  0.0000000E+00  0.7207718E-03
  0.9183673E+00  0.0000000E+00  0.1428571E+00 -0.7118422E-04  0.0000000E+00  0.6826013E-03
  0.9591837E+00  0.0000000E+00  0.1428571E+00 -0.7000991E-04  0.0000000E+00  0.6449459E-03
  0.1000000E+01  0.0000000E+00  0.1428571E+00 -0.6818730E-04  0.0000000E+00  0.6081829E-03
  0.1040816E+01  0.0000000E+00  0.1428571E+00 -0.6583494E-04  0.0000000E+00  0.5726217E-03
  0.1081633E+01  0.0000000E+00  0.1428571E+00 -0.6306805E-04  0.0000000E+00  0.5385053E-03
  0.1122449E+01  0.0000000E+00  0.1428571E+00 -0.5999401E-04  0.0000000E+00  0.5060146E-03
  0.1163265E+01  0.0000000E+00  0.1428571E+00 -0.5670934E-04  0.0000000E+00  0.4752748E-03
  0.1204082E+01  0.0000000E+00  0.1428571E+00 -0.5329800E-04  0.0000000E+00  0.4463625E-03
  0.1244898E+01  0.0000000E+00  0.1428571E+00 -0.4983071E-04  0.0000000E+00  0.4193134E-03
  0.1285714E+01  0.0000000E+00  0.1428571E+00 -0.4636499E-04  0.0000000E+00  0.3941297E-03
  0.1326531E+01  0.0000000E+00  0.1428571E+00 -0.4294573E-04  0.0000000E+00  0.3707874E-03
  0.1367347E+01  0.0000000E+00  0.1428571E+00 -0.3960614E-04  0.0000000E+00  0.3492431E-03
  0.1408163E+01  0.0000000E+00  0.1428571E+00 -0.3636891E-04  0.0000000E+00  0.3294398E-03
  0.1448980E+01  0.0000000E+00  0.1428571E+00 -0.3324758E-04  0.0000000E+00  0.3113123E-03
  0.1489796E+01  0.0000000E+00  0.1428571E+00 -0.3024800E-04  0.0000000E+00  0.2947918E-03
  0.1530612E+01  0.0000000E+00  0.1428571E+00 -0.2736979E-04  0.0000000E+00  0.2798093E-03
  0.1571429E+01  0.0000000E+00  0.1428571E+00 -0.2460787E-04  0.0000000E+00  0.2662987E-03
  0.1612245E+01  0.0000000E+00  0.1428571E+00 -0.2195381E-04  0.0000000E+00  0.2541984E-03
  0.1653061E+01  0.0000000E+00  0.1428571E+00 -0.1939711E-04  0.0000000E+00  0.2434533E-03
  0.1693878E+01  0.0000000E+00  0.1428571E+00 -0.1692618E-04  0.0000000E+00  0.2340143E-03
  0.1734694E+01  0.0000000E+00  0.1428571E+00 -0.1452912E-04  0.0000000E+00  0.2258397E-03
  0.1775510E+01  0.0000000E+00  0.1428571E+00 -0.1219430E-04  0.0000000E+00  0.2188938E-03
  0.1816326E+01  0.0000000E+00  0.1428571E+00 -0.9910588E-05  0.0000000E+00  0.2131476E-03
  0.1857143E+01  0.0000000E+00  0.1428571E+00 -0.7667523E-05  0.0000000E+00  0.2085774E-03
  0.1897959E+01  0.0000000E+00  0.1428571E+00 -0.5455304E-05  0.0000000E+00  0.2051652E-03
  0.1938776E+01  0.0000000E+00  0.1428571E+00 -0.3264690E-05  0.0000000E+00  0.2028977E-03
  0.1989796E+01  0.0000000E+00  0.1428571E+00 -0.1086868E-05  0.0000000E+00  0.2017660E-03
  0.2040816E-01  0.0000000E+00  0.1836735E+00  0.9890609E-06  0.0000000E+00  0.1039762E-02
  0.6122449E-01  0.0000000E+00  0.1836735E+00  0.2805074E-05  0.0000000E+00  0.1040933E-02
  0.1020408E+00  0.0000000E+00  0.1836735E+00  0.4140635E-05  0.0000000E+00  0.1043122E-02
  0.1428571E+00  0.0000000E+00  0.1836735E+00  0.4701360E-05  0.0000000E+00  0.1046027E-02
  0.1836735E+00  0.0000000E+00  0.1836735E+00  0.4233040E-05  0.0000000E+00  0.1049215E-02
  0.2244898E+00  0.0000000E+00  0.1836735E+00  0.2537065E-05  0.0000000E+00  0.1052138E-02
  0.2653061E+00  0.0000000E+00  0.1836735E+00 -0.5144953E-06  0.0000000E+00  0.1054166E-02
  0.3061225E+00  0.0000000E+00  0.1836735E+00 -0.4966215E-05  0.0000000E+00  0.1054622E-02
  0.3469388E+00  0.0000000E+00  0.1836735E+00 -0.1077096E-04  0.0000000E+00  0.1052825E-02
  0.3877551E+00  0.0000000E+00  0.1836735E+00 -0.1778797E-04  0.0000000E+00  0.1048135E-02
  0.4285714E+00  0.0000000E+00  0.1836735E+00 -0.2578895E-04  0.0000000E+00  0.1040005E-02
  0.4693878E+00  0.0000000E+00  0.1836735E+00 -0.3447298E-04  0.0000000E+00  0.1028016E-02
  0.5102041E+00  0.0000000E+00  0.1836735E+00 -0.4348946E-04  0.0000000E+00  0.1011918E-02
  0.5510204E+00  0.0000000E+00  0.1836735E+00 -0.5246650E-04  0.0000000E+00  0.9916408E-03
  0.5918368E+00  0.0000000E+00  0.1836735E+00 -0.6104135E-04  0.0000000E+00  0.9673020E-03
  0.6326531E+00  0.0000000E+00  0.1836735E+00 -0.6888838E-04  0.0000000E+00  0.9391900E-03
  0.6734694E+00  0.0000000E+00  0.1836735E+00 -0.7574132E-04  0.0000000E+00  0.9077376E-03
  0.7142857E+00  0.0000000E+00  0.1836735E+00 -0.8140711E-04  0.0000000E+00  0.8734850E-03
  0.7551020E+00  0.0000000E+00  0.1836735E+00 -0.8577099E-04  0.0000000E+00  0.8370390E-03
  0.7959183E+00  0.0000000E+00  0.1836735E+00 -0.8879346E-04  0.0000000E+00  0.7990332E-03
  0.8367347E+00  0.0000000E+00  0.1836735E+00 -0.9050114E-04  0.0000000E+00  0.7600924E-03
  0.8775510E+00  0.0000000E+00  0.1836735E+00 -0.9097385E-04  0.0000000E+00  0.7208044E-03
  0.9183673E+00  0.0000000E+00  0.1836735E+00 -0.9033017E-04  0.0000000E+00  0.6816995E-03
  0.9591837E+00  0.0000000E+00  0.1836735E+00 -0.8871320E-04  0.0000000E+00  0.6432382E-03
  0.1000000E+01  0.0000000E+00  0.1836735E+00 -0.8627804E-04  0.0000000E+00  0.6058050E-03
  0.1040816E+01  0.0000000E+00  0.1836735E+00 -0.8318135E-04  0.0000000E+00  0.5697085E-03
  0.1081633E+01  0.0000000E+00  0.1836735E+00 -0.7957356E-04  0.0000000E+00  0.5351847E-03
  0.1122449E+01  0.0000000E+00  0.1836735E+00 -0.7559331E-04  0.0000000E+00  0.5024033E-03
  0.1163265E+01  0.0000000E+00  0.1836735E+00 -0.7136402E-04  0.0000000E+00  0.4714759E-03
  0.1204082E+01  0.0000000E+00  0.1836735E+00 -0.6699207E-04  0.0000000E+00  0.4424639E-03
  0.1244898E+01  0.0000000E+00  0.1836735E+00 -0.6256627E-04  0.0000000E+00  0.4153877E-03
  0.1285714E+01  0.0000000E+00  0.1836735E+00 -0.5815818E-04  0.0000000E+00  0.3902349E-03
  0.1326531E+01  0.0000000E+00  0.1836735E+00 -0.5382301E-04  0.0000000E+00  0.3669674E-03
  0.1367347E+01  0.0000000E+00  0.1836735E+00 -0.4960102E-04  0.0000000E+00  0.3455291E-03
  0.1408163E+01  0.0000000E+00  0.1836735E+00 -0.4551903E-04  0.0000000E+00  0.3258519E-03
  0.1448980E+01  0.0000000E+00  0.1836735E+00 -0.4159223E-04  0.0000000E+00  0.3078610E-03
  0.1489796E+01  0.0000000E+00  0.1836735E+00 -0.3782610E-04  0.0000000E+00  0.2914796E-03
  0.1530612E+01  0.0000000E+00  0.1836735E+00 -0.3421834E-04  0.0000000E+00  0.2766326E-03
  0.1571429E+01  0.0000000E+00  0.1836735E+00 -0.3076082E-04  0.0000000E+00  0.2632494E-03
  0.1612245E+01  0.0000000E+00  0.1836735E+00 -0.2744145E-04  0.0000000E+00  0.2512654E-03
  0.1653061E+01  0.0000000E+00  0.1836735E+00 -0.2424573E-04  0.0000000E+00  0.2406237E-03
  0.1693878E+01  0.0000000E+00  0.1836735E+00 -0.2115816E-04  0.0000000E+00  0.2312747E-03
  0.1734694E+01  0.0000000E+00  0.1836735E+00 -0.1816314E-04  0.0000000E+00  0.2231765E-03
  0.1775510E+01  0.0000000E+00  0.1836735E+00 -0.1524565E-04  0.0000000E+00  0.2162942E-03
  0.1816326E+01  0.0000000E+00  0.1836735E+00 -0.1239155E-04  0.0000000E+00  0.2105993E-03
  0.1857143E+01  0.0000000E+00  0.1836735E+00 -0.9587695E-05  0.0000000E+00  0.2060691E-03
  0.1897959E+01  0.0000000E+00  0.1836735E+00 -0.6821882E-05  0.0000000E+00  0.2026862E-03
  0.1938776E+01  0.0000000E+00  0.1836735E+00 -0.4082674E-05  0.0000000E+00  0.2004378E-03
  0.1989796E+01  0.0000000E+00  0.1836735E+00 -0.1359202E-05  0.0000000E+00  0.1993156E-03
  0.2040816E-01  0.0000000E+00  0.2244898E+00  0.1412262E-05  0.0000000E+00  0.1037603E-02
  0.6122449E-01  0.0000000E+00  0.2244898E+00  0.4032404E-05  0.0000000E+00  0.1039136E-02
  0.1020408E+00  0.0000000E+00  0.2244898E+00  0.6046721E-05  0.0000000E+00  0.1042031E-02
  0.1428571E+00  0.0000000E+00  0.2244898E+00  0.7082060E-05  0.0000000E+00  0.1045953E-02
  0.1836735E+00  0.0000000E+00  0.2244898E+00  0.6813406E-05  0.0000000E+00  0.1050413E-02
  0.2244898E+00  0.0000000E+00  0.2244898E+00  0.4983497E-05  0.0000000E+00  0.1054795E-02
  0.2653061E+00  0.0000000E+00  0.2244898E+00  0.1422793E-05  0.0000000E+00  0.1058381E-02
  0.3061225E+00  0.0000000E+00  0.2244898E+00 -0.3932876E-05  0.0000000E+00  0.1060396E-02
  0.3469388E+00  0.0000000E+00  0.2244898E+00 -0.1102956E-04  0.0000000E+00  0.1060053E-02
  0.3877551E+00  0.0000000E+00  0.2244898E+00 -0.1969074E-04  0.0000000E+00  0.1056608E-02
  0.4285714E+00  0.0000000E+00  0.2244898E+00 -0.2962373E-04  0.0000000E+00  0.1049423E-02
  0.4693878E+00  0.0000000E+00  0.2244898E+00 -0.4043865E-04  0.0000000E+00  0.1038008E-02
  0.5102041E+00  0.0000000E+00  0.2244898E+00 -0.5167898E-04  0.0000000E+00  0.1022073E-02
  0.5510204E+00  0.0000000E+00  0.2244898E+00 -0.6286040E-04  0.0000000E+00  0.1001540E-02
  0.5918368E+00  0.0000000E+00  0.2244898E+00 -0.7351249E-04  0.0000000E+00  0.9765556E-03
  0.6326531E+00  0.0000000E+00  0.2244898E+00 -0.8321702E-04  0.0000000E+00  0.9474632E-03
  0.6734694E+00  0.0000000E+00  0.2244898E+00 -0.9163753E-04  0.0000000E+00  0.9147728E-03
  0.7142857E+00  0.0000000E+00  0.2244898E+00 -0.9853690E-04  0.0000000E+00  0.8791120E-03
  0.7551020E+00  0.0000000E+00  0.2244898E+00 -0.1037822E-03  0.0000000E+00  0.8411755E-03
  0.7959183E+00  0.0000000E+00  0.2244898E+00 -0.1073389E-03  0.0000000E+00  0.8016771E-03
  0.8367347E+00  0.0000000E+00  0.2244898E+00 -0.1092563E-03  0.0000000E+00  0.7613087E-03
  0.8775510E+00  0.0000000E+00  0.2244898E+00 -0.1096496E-03  0.0000000E+00  0.7207091E-03
  0.9183673E+00  0.0000000E+00  0.2244898E+00 -0.1086799E-03  0.0000000E+00  0.6804432E-03
  0.9591837E+00  0.0000000E+00  0.2244898E+00 -0.1065353E-03  0.0000000E+00  0.6409907E-03
  0.1000000E+01  0.0000000E+00  0.2244898E+00 -0.1034154E-03  0.0000000E+00  0.6027425E-03
  0.1040816E+01  0.0000000E+00  0.2244898E+00 -0.9951777E-04  0.0000000E+00  0.5660034E-03
  0.1081633E+01  0.0000000E+00  0.2244898E+00 -0.9502957E-04  0.0000000E+00  0.5309984E-03
  0.1122449E+01  0.0000000E+00  0.2244898E+00 -0.9012080E-04  0.0000000E+00  0.4978814E-03
  0.1163265E+01  0.0000000E+00  0.2244898E+00 -0.8494096E-04  0.0000000E+00  0.4667454E-03
  0.1204082E+01  0.0000000E+00  0.2244898E+00 -0.7961745E-04  0.0000000E+00  0.4376324E-03
  0.1244898E+01  0.0000000E+00  0.2244898E+00 -0.7425543E-04  0.0000000E+00  0.4105432E-03
  0.1285714E+01  0.0000000E+00  0.2244898E+00 -0.6893860E-04  0.0000000E+00  0.3854465E-03
  0.1326531E+01  0.0000000E+00  0.2244898E+00 -0.6373068E-04  0.0000000E+00  0.3622869E-03
  0.1367347E+01  0.0000000E+00  0.2244898E+00 -0.5867710E-04  0.0000000E+00  0.3409926E-03
  0.1408163E+01  0.0000000E+00  0.2244898E+00 -0.5380714E-04  0.0000000E+00  0.3214816E-03
  0.1448980E+01  0.0000000E+00  0.2244898E+00 -0.4913602E-04  0.0000000E+00  0.3036673E-03
  0.1489796E+01  0.0000000E+00  0.2244898E+00 -0.4466736E-04  0.0000000E+00  0.2874633E-03
  0.1530612E+01  0.0000000E+00  0.2244898E+00 -0.4039555E-04  0.0000000E+00  0.2727871E-03
  0.1571429E+01  0.0000000E+00  0.2244898E+00 -0.3630827E-04  0.0000000E+00  0.2595627E-03
  0.1612245E+01  0.0000000E+00  0.2244898E+00 -0.3238876E-04  0.0000000E+00  0.2477224E-03
  0.1653061E+01  0.0000000E+00  0.2244898E+00 -0.2861788E-04  0.0000000E+00  0.2372072E-03
  0.1693878E+01  0.0000000E+00  0.2244898E+00 -0.2497574E-04  0.0000000E+00  0.2279674E-03
  0.1734694E+01  0.0000000E+00  0.2244898E+00 -0.2144286E-04  0.0000000E+00  0.2199614E-03
  0.1775510E+01  0.0000000E+00  0.2244898E+00 -0.1800084E-04  0.0000000E+00  0.2131552E-03
  0.1816326E+01  0.0000000E+00  0.2244898E+00 -0.1463272E-04  0.0000000E+00  0.2075216E-03
  0.1857143E+01  0.0000000E+00  0.2244898E+00 -0.1132295E-04  0.0000000E+00  0.2030389E-03
  0.1897959E+01  0.0000000E+00  0.2244898E+00 -0.8057217E-05  0.0000000E+00  0.1996907E-03
  0.1938776E+01  0.0000000E+00  0.2244898E+00 -0.4822247E-05  0.0000000E+00  0.1974650E-03
  0.1989796E+01  0.0000000E+00  0.2244898E+00 -0.1605454E-05  0.0000000E+00  0.1963541E-03
  0.2040816E-01  0.0000000E+00  0.2653061E+00  0.1962578E-05  0.0000000E+00  0.1034545E-02
  0.6122449E-01  0.0000000E+00  0.2653061E+00  0.5637077E-05  0.0000000E+00  0.1036527E-02
  0.1020408E+00  0.0000000E+00  0.2653061E+00  0.8568044E-05  0.0000000E+00  0.1040301E-02
  0.1428571E+00  0.0000000E+00  0.2653061E+00  0.1029429E-04  0.0000000E+00  0.1045490E-02
  0.1836735E+00  0.0000000E+00  0.2653061E+00  0.1040958E-04  0.0000000E+00  0.1051544E-02
  0.2244898E+00  0.0000000E+00  0.2653061E+00  0.8586849E-05  0.0000000E+00  0.1057759E-02
  0.2653061E+00  0.0000000E+00  0.2653061E+00  0.4604211E-05  0.0000000E+00  0.1063313E-02
  0.3061225E+00  0.0000000E+00  0.2653061E+00 -0.1630642E-05  0.0000000E+00  0.1067305E-02
  0.3469388E+00  0.0000000E+00  0.2653061E+00 -0.1006116E-04  0.0000000E+00  0.1068813E-02
  0.3877551E+00  0.0000000E+00  0.2653061E+00 -0.2047281E-04  0.0000000E+00  0.1066958E-02
  0.4285714E+00  0.0000000E+00  0.2653061E+00 -0.3249868E-04  0.0000000E+00  0.1060979E-02
  0.4693878E+00  0.0000000E+00  0.2653061E+00 -0.4564268E-04  0.0000000E+00  0.1050296E-02
  0.5102041E+00  0.0000000E+00  0.2653061E+00 -0.5931985E-04  0.0000000E+00  0.1034560E-02
  0.5510204E+00  0.0000000E+00  0.2653061E+00 -0.7290915E-04  0.0000000E+00  0.1013690E-02
  0.5918368E+00  0.0000000E+00  0.2653061E+00 -0.8581050E-04  0.0000000E+00  0.9878690E-03
  0.6326531E+00  0.0000000E+00  0.2653061E+00 -0.9749684E-04  0.0000000E+00  0.9575192E-03
  0.6734694E+00  0.0000000E+00  0.2653061E+00 -0.1075531E-03  0.0000000E+00  0.9232547E-03
  0.7142857E+00  0.0000000E+00  0.2653061E+00 -0.1156975E-03  0.0000000E+00  0.8858195E-03
  0.7551020E+00  0.0000000E+00  0.2653061E+00 -0.1217854E-03  0.0000000E+00  0.8460229E-03
  0.7959183E+00  0.0000000E+00  0.2653061E+00 -0.1257976E-03  0.0000000E+00  0.8046809E-03
  0.8367347E+00  0.0000000E+00  0.2653061E+00 -0.1278191E-03  0.0000000E+00  0.7625683E-03
  0.8775510E+00  0.0000000E+00  0.2653061E+00 -0.1280134E-03  0.0000000E+00  0.7203847E-03
  0.9183673E+00  0.0000000E+00  0.2653061E+00 -0.1265954E-03  0.0000000E+00  0.6787335E-03
  0.9591837E+00  0.0000000E+00  0.2653061E+00 -0.1238075E-03  0.0000000E+00  0.6381137E-03
  0.1000000E+01  0.0000000E+00  0.2653061E+00 -0.1198999E-03  0.0000000E+00  0.5989195E-03
  0.1040816E+01  0.0000000E+00  0.2653061E+00 -0.1151157E-03  0.0000000E+00  0.5614471E-03
  0.1081633E+01  0.0000000E+00  0.2653061E+00 -0.1096804E-03  0.0000000E+00  0.5259048E-03
  0.1122449E+01  0.0000000E+00  0.2653061E+00 -0.1037960E-03  0.0000000E+00  0.4924248E-03
  0.1163265E+01  0.0000000E+00  0.2653061E+00 -0.9763716E-04  0.0000000E+00  0.4610760E-03
  0.1204082E+01  0.0000000E+00  0.2653061E+00 -0.9135090E-04  0.0000000E+00  0.4318758E-03
  0.1244898E+01  0.0000000E+00  0.2653061E+00 -0.8505686E-04  0.0000000E+00  0.4048007E-03
  0.1285714E+01  0.0000000E+00  0.2653061E+00 -0.7884890E-04  0.0000000E+00  0.3797966E-03
  0.1326531E+01  0.0000000E+00  0.2653061E+00 -0.7279720E-04  0.0000000E+00  0.3567875E-03