title = "dataset feddes"
variables = "x", "y", "z", "vx", "vy", "vz"
zone t = "velocities, solution time =  1.400E+01 days        " i =   49, j =   49, k =    1,  f=point
  0.2040816E-01  0.0000000E+00  0.2040816E-01  0.1748482E-07  0.0000000E+00  0.4318574E-02
  0.6122449E-01  0.0000000E+00  0.2040816E-01  0.4974326E-07  0.0000000E+00  0.4318718E-02
  0.1020408E+00  0.0000000E+00  0.2040816E-01  0.7428175E-07  0.0000000E+00  0.4318985E-02
  0.1428571E+00  0.0000000E+00  0.2040816E-01  0.8644137E-07  0.0000000E+00  0.4319331E-02
  0.1836735E+00  0.0000000E+00  0.2040816E-01  0.8220953E-07  0.0000000E+00  0.4319694E-02
  0.2244898E+00  0.0000000E+00  0.2040816E-01  0.5850932E-07  0.0000000E+00  0.4319997E-02
  0.2653061E+00  0.0000000E+00  0.2040816E-01  0.1341812E-07  0.0000000E+00  0.4320151E-02
  0.3061225E+00  0.0000000E+00  0.2040816E-01 -0.5365749E-07  0.0000000E+00  0.4320065E-02
  0.3469388E+00  0.0000000E+00  0.2040816E-01 -0.1419079E-06  0.0000000E+00  0.4319644E-02
  0.3877551E+00  0.0000000E+00  0.2040816E-01 -0.2490839E-06  0.0000000E+00  0.4318803E-02
  0.4285714E+00  0.0000000E+00  0.2040816E-01 -0.3716591E-06  0.0000000E+00  0.4317467E-02
  0.4693878E+00  0.0000000E+00  0.2040816E-01 -0.5050400E-06  0.0000000E+00  0.4315581E-02
  0.5102041E+00  0.0000000E+00  0.2040816E-01 -0.6439040E-06  0.0000000E+00  0.4313109E-02
  0.5510204E+00  0.0000000E+00  0.2040816E-01 -0.7826048E-06  0.0000000E+00  0.4310040E-02
  0.5918368E+00  0.0000000E+00  0.2040816E-01 -0.9156014E-06  0.0000000E+00  0.4306387E-02
  0.6326531E+00  0.0000000E+00  0.2040816E-01 -0.1037856E-05  0.0000000E+00  0.4302184E-02
  0.6734694E+00  0.0000000E+00  0.2040816E-01 -0.1145160E-05  0.0000000E+00  0.4297487E-02
  0.7142857E+00  0.0000000E+00  0.2040816E-01 -0.1234355E-05  0.0000000E+00  0.4292368E-02
  0.7551020E+00  0.0000000E+00  0.2040816E-01 -0.1303438E-05  0.0000000E+00  0.4286908E-02
  0.7959183E+00  0.0000000E+00  0.2040816E-01 -0.1351549E-05  0.0000000E+00  0.4281196E-02
  0.8367347E+00  0.0000000E+00  0.2040816E-01 -0.1378876E-05  0.0000000E+00  0.4275322E-02
  0.8775510E+00  0.0000000E+00  0.2040816E-01 -0.1386481E-05  0.0000000E+00  0.4269372E-02
  0.9183673E+00  0.0000000E+00  0.2040816E-01 -0.1376104E-05  0.0000000E+00  0.4263429E-02
  0.9591837E+00  0.0000000E+00  0.2040816E-01 -0.1349945E-05  0.0000000E+00  0.4257564E-02
  0.1000000E+01  0.0000000E+00  0.2040816E-01 -0.1310471E-05  0.0000000E+00  0.4251840E-02
  0.1040816E+01  0.0000000E+00  0.2040816E-01 -0.1260244E-05  0.0000000E+00  0.4246310E-02
  0.1081633E+01  0.0000000E+00  0.2040816E-01 -0.1201773E-05  0.0000000E+00  0.4241013E-02
  0.1122449E+01  0.0000000E+00  0.2040816E-01 -0.1137414E-05  0.0000000E+00  0.4235981E-02
  0.1163265E+01  0.0000000E+00  0.2040816E-01 -0.1069297E-05  0.0000000E+00  0.4231233E-02
  0.1204082E+01  0.0000000E+00  0.2040816E-01 -0.9992749E-06  0.0000000E+00  0.4226783E-02
  0.1244898E+01  0.0000000E+00  0.2040816E-01 -0.9289019E-06  0.0000000E+00  0.4222635E-02
  0.1285714E+01  0.0000000E+00  0.2040816E-01 -0.8594263E-06  0.0000000E+00  0.4218788E-02
  0.1326531E+01  0.0000000E+00  0.2040816E-01 -0.7917957E-06  0.0000000E+00  0.4215235E-02
  0.1367347E+01  0.0000000E+00  0.2040816E-01 -0.7266755E-06  0.0000000E+00  0.4211969E-02
  0.1408163E+01  0.0000000E+00  0.2040816E-01 -0.6644742E-06  0.0000000E+00  0.4208976E-02
  0.1448980E+01  0.0000000E+00  0.2040816E-01 -0.6053749E-06  0.0000000E+00  0.4206244E-02
  0.1489796E+01  0.0000000E+00  0.2040816E-01 -0.5493721E-06  0.0000000E+00  0.4203760E-02
  0.1530612E+01  0.0000000E+00  0.2040816E-01 -0.4963117E-06  0.0000000E+00  0.4201510E-02
  0.1571429E+01  0.0000000E+00  0.2040816E-01 -0.4459330E-06  0.0000000E+00  0.4199483E-02
  0.1612245E+01  0.0000000E+00  0.2040816E-01 -0.3979096E-06  0.0000000E+00  0.4197668E-02
  0.1653061E+01  0.0000000E+00  0.2040816E-01 -0.3518855E-06  0.0000000E+00  0.4196055E-02
  0.1693878E+01  0.0000000E+00  0.2040816E-01 -0.3075050E-06  0.0000000E+00  0.4194636E-02
  0.1734694E+01  0.0000000E+00  0.2040816E-01 -0.2644356E-06  0.0000000E+00  0.4193406E-02
  0.1775510E+01  0.0000000E+00  0.2040816E-01 -0.2223812E-06  0.0000000E+00  0.4192358E-02
  0.1816326E+01  0.0000000E+00  0.2040816E-01 -0.1810895E-06  0.0000000E+00  0.4191490E-02
  0.1857143E+01  0.0000000E+00  0.2040816E-01 -0.1403522E-06  0.0000000E+00  0.4190799E-02
  0.1897959E+01  0.0000000E+00  0.2040816E-01 -0.1000008E-06  0.0000000E+00  0.4190282E-02
  0.1938776E+01  0.0000000E+00  0.2040816E-01 -0.5989909E-07  0.0000000E+00  0.4189938E-02
  0.1989796E+01  0.0000000E+00  0.2040816E-01 -0.1993232E-07  0.0000000E+00  0.4189766E-02
  0.2040816E-01  0.0000000E+00  0.6122449E-01  0.6036438E-07  0.0000000E+00  0.4318442E-02
  0.6122449E-01  0.0000000E+00  0.6122449E-01  0.1719960E-06  0.0000000E+00  0.4318597E-02
  0.1020408E+00  0.0000000E+00  0.6122449E-01  0.2575080E-06  0.0000000E+00  0.4318884E-02
  0.1428571E+00  0.0000000E+00  0.6122449E-01  0.3011309E-06  0.0000000E+00  0.4319259E-02
  0.1836735E+00  0.0000000E+00  0.6122449E-01  0.2892648E-06  0.0000000E+00  0.4319657E-02
  0.2244898E+00  0.0000000E+00  0.6122449E-01  0.2114616E-06  0.0000000E+00  0.4320001E-02
  0.2653061E+00  0.0000000E+00  0.6122449E-01  0.6116690E-07  0.0000000E+00  0.4320199E-02
  0.3061225E+00  0.0000000E+00  0.6122449E-01 -0.1636715E-06  0.0000000E+00  0.4320156E-02
  0.3469388E+00  0.0000000E+00  0.6122449E-01 -0.4603425E-06  0.0000000E+00  0.4319775E-02
  0.3877551E+00  0.0000000E+00  0.6122449E-01 -0.8212488E-06  0.0000000E+00  0.4318968E-02
  0.4285714E+00  0.0000000E+00  0.6122449E-01 -0.1234419E-05  0.0000000E+00  0.4317659E-02
  0.4693878E+00  0.0000000E+00  0.6122449E-01 -0.1684250E-05  0.0000000E+00  0.4315789E-02
  0.5102041E+00  0.0000000E+00  0.6122449E-01 -0.2152650E-05  0.0000000E+00  0.4313322E-02
  0.5510204E+00  0.0000000E+00  0.6122449E-01 -0.2620428E-05  0.0000000E+00  0.4310247E-02
  0.5918368E+00  0.0000000E+00  0.6122449E-01 -0.3068764E-05  0.0000000E+00  0.4306577E-02
  0.6326531E+00  0.0000000E+00  0.6122449E-01 -0.3480575E-05  0.0000000E+00  0.4302348E-02
  0.6734694E+00  0.0000000E+00  0.6122449E-01 -0.3841628E-05  0.0000000E+00  0.4297618E-02
  0.7142857E+00  0.0000000E+00  0.6122449E-01 -0.4141288E-05  0.0000000E+00  0.4292461E-02
  0.7551020E+00  0.0000000E+00  0.6122449E-01 -0.4372863E-05  0.0000000E+00  0.4286960E-02
  0.7959183E+00  0.0000000E+00  0.6122449E-01 -0.4533559E-05  0.0000000E+00  0.4281206E-02
  0.8367347E+00  0.0000000E+00  0.6122449E-01 -0.4624121E-05  0.0000000E+00  0.4275291E-02
  0.8775510E+00  0.0000000E+00  0.6122449E-01 -0.4648255E-05  0.0000000E+00  0.4269303E-02
  0.9183673E+00  0.0000000E+00  0.6122449E-01 -0.4611928E-05  0.0000000E+00  0.4263326E-02
  0.9591837E+00  0.0000000E+00  0.6122449E-01 -0.4522650E-05  0.0000000E+00  0.4257432E-02
  0.1000000E+01  0.0000000E+00  0.6122449E-01 -0.4388795E-05  0.0000000E+00  0.4251684E-02
  0.1040816E+01  0.0000000E+00  0.6122449E-01 -0.4219023E-05  0.0000000E+00  0.4246135E-02
  0.1081633E+01  0.0000000E+00  0.6122449E-01 -0.4021809E-05  0.0000000E+00  0.4240824E-02
  0.1122449E+01  0.0000000E+00  0.6122449E-01 -0.3805085E-05  0.0000000E+00  0.4235781E-02
  0.1163265E+01  0.0000000E+00  0.6122449E-01 -0.3575999E-05  0.0000000E+00  0.4231028E-02
  0.1204082E+01  0.0000000E+00  0.6122449E-01 -0.3340766E-05  0.0000000E+00  0.4226576E-02
  0.1244898E+01  0.0000000E+00  0.6122449E-01 -0.3104587E-05  0.0000000E+00  0.4222428E-02
  0.1285714E+01  0.0000000E+00  0.6122449E-01 -0.2871629E-05  0.0000000E+00  0.4218583E-02
  0.1326531E+01  0.0000000E+00  0.6122449E-01 -0.2645051E-05  0.0000000E+00  0.4215035E-02
  0.1367347E+01  0.0000000E+00  0.6122449E-01 -0.2427056E-05  0.0000000E+00  0.4211774E-02
  0.1408163E+01  0.0000000E+00  0.6122449E-01 -0.2218987E-05  0.0000000E+00  0.4208787E-02
  0.1448980E+01  0.0000000E+00  0.6122449E-01 -0.2021428E-05  0.0000000E+00  0.4206061E-02
  0.1489796E+01  0.0000000E+00  0.6122449E-01 -0.1834329E-05  0.0000000E+00  0.4203583E-02
  0.1530612E+01  0.0000000E+00  0.6122449E-01 -0.1657144E-05  0.0000000E+00  0.4201339E-02
  0.1571429E+01  0.0000000E+00  0.6122449E-01 -0.1488974E-05  0.0000000E+00  0.4199317E-02
  0.1612245E+01  0.0000000E+00  0.6122449E-01 -0.1328699E-05  0.0000000E+00  0.4197506E-02
  0.1653061E+01  0.0000000E+00  0.6122449E-01 -0.1175107E-05  0.0000000E+00  0.4195896E-02
  0.1693878E+01  0.0000000E+00  0.6122449E-01 -0.1026993E-05  0.0000000E+00  0.4194481E-02
  0.1734694E+01  0.0000000E+00  0.6122449E-01 -0.8832348E-06  0.0000000E+00  0.4193253E-02
  0.1775510E+01  0.0000000E+00  0.6122449E-01 -0.7428377E-06  0.0000000E+00  0.4192207E-02
  0.1816326E+01  0.0000000E+00  0.6122449E-01 -0.6049575E-06  0.0000000E+00  0.4191340E-02
  0.1857143E+01  0.0000000E+00  0.6122449E-01 -0.4689012E-06  0.0000000E+00  0.4190650E-02
  0.1897959E+01  0.0000000E+00  0.6122449E-01 -0.3341112E-06  0.0000000E+00  0.4190133E-02
  0.1938776E+01  0.0000000E+00  0.6122449E-01 -0.2001397E-06  0.0000000E+00  0.4189790E-02
  0.1989796E+01  0.0000000E+00  0.6122449E-01 -0.6661476E-07  0.0000000E+00  0.4189618E-02
  0.2040816E-01  0.0000000E+00  0.1020408E+00  0.1133937E-06  0.0000000E+00  0.4318020E-02
  0.6122449E-01  0.0000000E+00  0.1020408E+00  0.3239088E-06  0.0000000E+00  0.4318200E-02
  0.1020408E+00  0.0000000E+00  0.1020408E+00  0.4872740E-06  0.0000000E+00  0.4318534E-02
  0.1428571E+00  0.0000000E+00  0.1020408E+00  0.5749647E-06  0.0000000E+00  0.4318978E-02
  0.1836735E+00  0.0000000E+00  0.1020408E+00  0.5623312E-06  0.0000000E+00  0.4319462E-02
  0.2244898E+00  0.0000000E+00  0.1020408E+00  0.4303556E-06  0.0000000E+00  0.4319903E-02
  0.2653061E+00  0.0000000E+00  0.1020408E+00  0.1670141E-06  0.0000000E+00  0.4320205E-02
  0.3061225E+00  0.0000000E+00  0.1020408E+00 -0.2315732E-06  0.0000000E+00  0.4320265E-02
  0.3469388E+00  0.0000000E+00  0.1020408E+00 -0.7606186E-06  0.0000000E+00  0.4319980E-02
  0.3877551E+00  0.0000000E+00  0.1020408E+00 -0.1406440E-05  0.0000000E+00  0.4319255E-02
  0.4285714E+00  0.0000000E+00  0.1020408E+00 -0.2147278E-05  0.0000000E+00  0.4318008E-02
  0.4693878E+00  0.0000000E+00  0.1020408E+00 -0.2954718E-05  0.0000000E+00  0.4316177E-02
  0.5102041E+00  0.0000000E+00  0.1020408E+00 -0.3795764E-05  0.0000000E+00  0.4313723E-02
  0.5510204E+00  0.0000000E+00  0.1020408E+00 -0.4635421E-05  0.0000000E+00  0.4310633E-02
  0.5918368E+00  0.0000000E+00  0.1020408E+00 -0.5439424E-05  0.0000000E+00  0.4306923E-02
  0.6326531E+00  0.0000000E+00  0.1020408E+00 -0.6176771E-05  0.0000000E+00  0.4302632E-02
  0.6734694E+00  0.0000000E+00  0.1020408E+00 -0.6821772E-05  0.0000000E+00  0.4297823E-02
  0.7142857E+00  0.0000000E+00  0.1020408E+00 -0.7355404E-05  0.0000000E+00  0.4292574E-02
  0.7551020E+00  0.0000000E+00  0.1020408E+00 -0.7765901E-05  0.0000000E+00  0.4286974E-02
  0.7959183E+00  0.0000000E+00  0.1020408E+00 -0.8048625E-05  0.0000000E+00  0.4281120E-02
  0.8367347E+00  0.0000000E+00  0.1020408E+00 -0.8205350E-05  0.0000000E+00  0.4275109E-02
  0.8775510E+00  0.0000000E+00  0.1020408E+00 -0.8243161E-05  0.0000000E+00  0.4269032E-02
  0.9183673E+00  0.0000000E+00  0.1020408E+00 -0.8173152E-05  0.0000000E+00  0.4262974E-02
  0.9591837E+00  0.0000000E+00  0.1020408E+00 -0.8009098E-05  0.0000000E+00  0.4257011E-02
  0.1000000E+01  0.0000000E+00  0.1020408E+00 -0.7766228E-05  0.0000000E+00  0.4251206E-02
  0.1040816E+01  0.0000000E+00  0.1020408E+00 -0.7460182E-05  0.0000000E+00  0.4245611E-02
  0.1081633E+01  0.0000000E+00  0.1020408E+00 -0.7106181E-05  0.0000000E+00  0.4240267E-02
  0.1122449E+01  0.0000000E+00  0.1020408E+00 -0.6718406E-05  0.0000000E+00  0.4235202E-02
  0.1163265E+01  0.0000000E+00  0.1020408E+00 -0.6309581E-05  0.0000000E+00  0.4230436E-02
  0.1204082E+01  0.0000000E+00  0.1020408E+00 -0.5890720E-05  0.0000000E+00  0.4225978E-02
  0.1244898E+01  0.0000000E+00  0.1020408E+00 -0.5471012E-05  0.0000000E+00  0.4221831E-02
  0.1285714E+01  0.0000000E+00  0.1020408E+00 -0.5057785E-05  0.0000000E+00  0.4217993E-02
  0.1326531E+01  0.0000000E+00  0.1020408E+00 -0.4656561E-05  0.0000000E+00  0.4214455E-02
  0.1367347E+01  0.0000000E+00  0.1020408E+00 -0.4271160E-05  0.0000000E+00  0.4211207E-02
  0.1408163E+01  0.0000000E+00  0.1020408E+00 -0.3903861E-05  0.0000000E+00  0.4208234E-02
  0.1448980E+01  0.0000000E+00  0.1020408E+00 -0.3555594E-05  0.0000000E+00  0.4205523E-02
  0.1489796E+01  0.0000000E+00  0.1020408E+00 -0.3226161E-05  0.0000000E+00  0.4203058E-02
  0.1530612E+01  0.0000000E+00  0.1020408E+00 -0.2914488E-05  0.0000000E+00  0.4200827E-02
  0.1571429E+01  0.0000000E+00  0.1020408E+00 -0.2618879E-05  0.0000000E+00  0.4198817E-02
  0.1612245E+01  0.0000000E+00  0.1020408E+00 -0.2337265E-05  0.0000000E+00  0.4197016E-02
  0.1653061E+01  0.0000000E+00  0.1020408E+00 -0.2067430E-05  0.0000000E+00  0.4195415E-02
  0.1693878E+01  0.0000000E+00  0.1020408E+00 -0.1807189E-05  0.0000000E+00  0.4194006E-02
  0.1734694E+01  0.0000000E+00  0.1020408E+00 -0.1554525E-05  0.0000000E+00  0.4192783E-02
  0.1775510E+01  0.0000000E+00  0.1020408E+00 -0.1307667E-05  0.0000000E+00  0.4191741E-02
  0.1816326E+01  0.0000000E+00  0.1020408E+00 -0.1065128E-05  0.0000000E+00  0.4190878E-02
  0.1857143E+01  0.0000000E+00  0.1020408E+00 -0.8256971E-06  0.0000000E+00  0.4190189E-02
  0.1897959E+01  0.0000000E+00  0.1020408E+00 -0.5884116E-06  0.0000000E+00  0.4189674E-02
  0.1938776E+01  0.0000000E+00  0.1020408E+00 -0.3525084E-06  0.0000000E+00  0.4189331E-02
  0.1989796E+01  0.0000000E+00  0.1020408E+00 -0.1173633E-06  0.0000000E+00  0.4189160E-02
  0.2040816E-01  0.0000000E+00  0.1428571E+00  0.1736361E-06  0.0000000E+00  0.4317192E-02
  0.6122449E-01  0.0000000E+00  0.1428571E+00  0.4975954E-06  0.0000000E+00  0.4317410E-02
  0.1020408E+00  0.0000000E+00  0.1428571E+00  0.7535290E-06  0.0000000E+00  0.4317820E-02
  0.1428571E+00  0.0000000E+00  0.1428571E+00  0.9001259E-06  0.0000000E+00  0.4318370E-02
  0.1836735E+00  0.0000000E+00  0.1428571E+00  0.9015646E-06  0.0000000E+00  0.4318989E-02
  0.2244898E+00  0.0000000E+00  0.1428571E+00  0.7300097E-06  0.0000000E+00  0.4319583E-02
  0.2653061E+00  0.0000000E+00  0.1428571E+00  0.3676392E-06  0.0000000E+00  0.4320048E-02
  0.3061225E+00  0.0000000E+00  0.1428571E+00 -0.1915884E-06  0.0000000E+00  0.4320270E-02
  0.3469388E+00  0.0000000E+00  0.1428571E+00 -0.9410275E-06  0.0000000E+00  0.4320136E-02
  0.3877551E+00  0.0000000E+00  0.1428571E+00 -0.1861003E-05  0.0000000E+00  0.4319541E-02
  0.4285714E+00  0.0000000E+00  0.1428571E+00 -0.2919778E-05  0.0000000E+00  0.4318393E-02
  0.4693878E+00  0.0000000E+00  0.1428571E+00 -0.4075730E-05  0.0000000E+00  0.4316622E-02
  0.5102041E+00  0.0000000E+00  0.1428571E+00 -0.5280412E-05  0.0000000E+00  0.4314187E-02
  0.5510204E+00  0.0000000E+00  0.1428571E+00 -0.6482448E-05  0.0000000E+00  0.4311074E-02
  0.5918368E+00  0.0000000E+00  0.1428571E+00 -0.7631654E-05  0.0000000E+00  0.4307300E-02
  0.6326531E+00  0.0000000E+00  0.1428571E+00 -0.8682871E-05  0.0000000E+00  0.4302911E-02
  0.6734694E+00  0.0000000E+00  0.1428571E+00 -0.9599008E-05  0.0000000E+00  0.4297976E-02
  0.7142857E+00  0.0000000E+00  0.1428571E+00 -0.1035301E-04  0.0000000E+00  0.4292582E-02
  0.7551020E+00  0.0000000E+00  0.1428571E+00 -0.1092864E-04  0.0000000E+00  0.4286828E-02
  0.7959183E+00  0.0000000E+00  0.1428571E+00 -0.1132015E-04  0.0000000E+00  0.4280819E-02
  0.8367347E+00  0.0000000E+00  0.1428571E+00 -0.1153110E-04  0.0000000E+00  0.4274657E-02
  0.8775510E+00  0.0000000E+00  0.1428571E+00 -0.1157263E-04  0.0000000E+00  0.4268441E-02
  0.9183673E+00  0.0000000E+00  0.1428571E+00 -0.1146150E-04  0.0000000E+00  0.4262260E-02
  0.9591837E+00  0.0000000E+00  0.1428571E+00 -0.1121809E-04  0.0000000E+00  0.4256191E-02
  0.1000000E+01  0.0000000E+00  0.1428571E+00 -0.1086465E-04  0.0000000E+00  0.4250299E-02
  0.1040816E+01  0.0000000E+00  0.1428571E+00 -0.1042375E-04  0.0000000E+00  0.4244636E-02
  0.1081633E+01  0.0000000E+00  0.1428571E+00 -0.9917176E-05  0.0000000E+00  0.4239242E-02
  0.1122449E+01  0.0000000E+00  0.1428571E+00 -0.9365084E-05  0.0000000E+00  0.4234143E-02
  0.1163265E+01  0.0000000E+00  0.1428571E+00 -0.8785426E-05  0.0000000E+00  0.4229357E-02
  0.1204082E+01  0.0000000E+00  0.1428571E+00 -0.8193647E-05  0.0000000E+00  0.4224892E-02
  0.1244898E+01  0.0000000E+00  0.1428571E+00 -0.7602550E-05  0.0000000E+00  0.4220749E-02
  0.1285714E+01  0.0000000E+00  0.1428571E+00 -0.7022279E-05  0.0000000E+00  0.4216921E-02
  0.1326531E+01  0.0000000E+00  0.1428571E+00 -0.6460407E-05  0.0000000E+00  0.4213400E-02
  0.1367347E+01  0.0000000E+00  0.1428571E+00 -0.5922094E-05  0.0000000E+00  0.4210171E-02
  0.1408163E+01  0.0000000E+00  0.1428571E+00 -0.5410316E-05  0.0000000E+00  0.4207221E-02
  0.1448980E+01  0.0000000E+00  0.1428571E+00 -0.4926137E-05  0.0000000E+00  0.4204532E-02
  0.1489796E+01  0.0000000E+00  0.1428571E+00 -0.4469033E-05  0.0000000E+00  0.4202089E-02
  0.1530612E+01  0.0000000E+00  0.1428571E+00 -0.4037253E-05  0.0000000E+00  0.4199878E-02
  0.1571429E+01  0.0000000E+00  0.1428571E+00 -0.3628190E-05  0.0000000E+00  0.4197886E-02
  0.1612245E+01  0.0000000E+00  0.1428571E+00 -0.3238744E-05  0.0000000E+00  0.4196100E-02
  0.1653061E+01  0.0000000E+00  0.1428571E+00 -0.2865650E-05  0.0000000E+00  0.4194511E-02
  0.1693878E+01  0.0000000E+00  0.1428571E+00 -0.2505738E-05  0.0000000E+00  0.4193112E-02
  0.1734694E+01  0.0000000E+00  0.1428571E+00 -0.2156120E-05  0.0000000E+00  0.4191897E-02
  0.1775510E+01  0.0000000E+00  0.1428571E+00 -0.1814298E-05  0.0000000E+00  0.4190861E-02
  0.1816326E+01  0.0000000E+00  0.1428571E+00 -0.1478205E-05  0.0000000E+00  0.4190001E-02
  0.1857143E+01  0.0000000E+00  0.1428571E+00 -0.1146186E-05  0.0000000E+00  0.4189316E-02
  0.1897959E+01  0.0000000E+00  0.1428571E+00 -0.8169520E-06  0.0000000E+00  0.4188803E-02
  0.1938776E+01  0.0000000E+00  0.1428571E+00 -0.4894978E-06  0.0000000E+00  0.4188461E-02
  0.1989796E+01  0.0000000E+00  0.1428571E+00 -0.1630156E-06  0.0000000E+00  0.4188290E-02
  0.2040816E-01  0.0000000E+00  0.1836735E+00  0.2463898E-06  0.0000000E+00  0.4315832E-02
  0.6122449E-01  0.0000000E+00  0.1836735E+00  0.7085821E-06  0.0000000E+00  0.4316103E-02
  0.1020408E+00  0.0000000E+00  0.1836735E+00  0.1081088E-05  0.0000000E+00  0.4316615E-02
  0.1428571E+00  0.0000000E+00  0.1836735E+00  0.1309154E-05  0.0000000E+00  0.4317313E-02
  0.1836735E+00  0.0000000E+00  0.1836735E+00  0.1345045E-05  0.0000000E+00  0.4318116E-02
  0.2244898E+00  0.0000000E+00  0.1836735E+00  0.1151282E-05  0.0000000E+00  0.4318921E-02
  0.2653061E+00  0.0000000E+00  0.1836735E+00  0.7034383E-06  0.0000000E+00  0.4319610E-02
  0.3061225E+00  0.0000000E+00  0.1836735E+00 -0.7349124E-08  0.0000000E+00  0.4320057E-02
  0.3469388E+00  0.0000000E+00  0.1836735E+00 -0.9728504E-06  0.0000000E+00  0.4320132E-02
  0.3877551E+00  0.0000000E+00  0.1836735E+00 -0.2167243E-05  0.0000000E+00  0.4319716E-02
  0.4285714E+00  0.0000000E+00  0.1836735E+00 -0.3548071E-05  0.0000000E+00  0.4318704E-02
  0.4693878E+00  0.0000000E+00  0.1836735E+00 -0.5059219E-05  0.0000000E+00  0.4317018E-02
  0.5102041E+00  0.0000000E+00  0.1836735E+00 -0.6635149E-05  0.0000000E+00  0.4314608E-02
  0.5510204E+00  0.0000000E+00  0.1836735E+00 -0.8206351E-05  0.0000000E+00  0.4311461E-02
  0.5918368E+00  0.0000000E+00  0.1836735E+00 -0.9705161E-05  0.0000000E+00  0.4307598E-02
  0.6326531E+00  0.0000000E+00  0.1836735E+00 -0.1107114E-04  0.0000000E+00  0.4303071E-02
  0.6734694E+00  0.0000000E+00  0.1836735E+00 -0.1225530E-04  0.0000000E+00  0.4297962E-02
  0.7142857E+00  0.0000000E+00  0.1836735E+00 -0.1322265E-04  0.0000000E+00  0.4292369E-02
  0.7551020E+00  0.0000000E+00  0.1836735E+00 -0.1395314E-04  0.0000000E+00  0.4286403E-02
  0.7959183E+00  0.0000000E+00  0.1836735E+00 -0.1444093E-04  0.0000000E+00  0.4280181E-02
  0.8367347E+00  0.0000000E+00  0.1836735E+00 -0.1469256E-04  0.0000000E+00  0.4273816E-02
  0.8775510E+00  0.0000000E+00  0.1836735E+00 -0.1472443E-04  0.0000000E+00  0.4267413E-02
  0.9183673E+00  0.0000000E+00  0.1836735E+00 -0.1455997E-04  0.0000000E+00  0.4261067E-02
  0.9591837E+00  0.0000000E+00  0.1836735E+00 -0.1422699E-04  0.0000000E+00  0.4254858E-02
  0.1000000E+01  0.0000000E+00  0.1836735E+00 -0.1375525E-04  0.0000000E+00  0.4248852E-02
  0.1040816E+01  0.0000000E+00  0.1836735E+00 -0.1317457E-04  0.0000000E+00  0.4243101E-02
  0.1081633E+01  0.0000000E+00  0.1836735E+00 -0.1251337E-04  0.0000000E+00  0.4237642E-02
  0.1122449E+01  0.0000000E+00  0.1836735E+00 -0.1179764E-04  0.0000000E+00  0.4232501E-02
  0.1163265E+01  0.0000000E+00  0.1836735E+00 -0.1105037E-04  0.0000000E+00  0.4227692E-02
  0.1204082E+01  0.0000000E+00  0.1836735E+00 -0.1029113E-04  0.0000000E+00  0.4223219E-02
  0.1244898E+01  0.0000000E+00  0.1836735E+00 -0.9536037E-05  0.0000000E+00  0.4219082E-02
  0.1285714E+01  0.0000000E+00  0.1836735E+00 -0.8797719E-05  0.0000000E+00  0.4215270E-02
  0.1326531E+01  0.0000000E+00  0.1836735E+00 -0.8085497E-05  0.0000000E+00  0.4211772E-02
  0.1367347E+01  0.0000000E+00  0.1836735E+00 -0.7405580E-05  0.0000000E+00  0.4208572E-02
  0.1408163E+01  0.0000000E+00  0.1836735E+00 -0.6761362E-05  0.0000000E+00  0.4205651E-02
  0.1448980E+01  0.0000000E+00  0.1836735E+00 -0.6153780E-05  0.0000000E+00  0.4202993E-02
  0.1489796E+01  0.0000000E+00  0.1836735E+00 -0.5581733E-05  0.0000000E+00  0.4200579E-02
  0.1530612E+01  0.0000000E+00  0.1836735E+00 -0.5042562E-05  0.0000000E+00  0.4198395E-02
  0.1571429E+01  0.0000000E+00  0.1836735E+00 -0.4532548E-05  0.0000000E+00  0.4196425E-02
  0.1612245E+01  0.0000000E+00  0.1836735E+00 -0.4047399E-05  0.0000000E+00  0.4194659E-02
  0.1653061E+01  0.0000000E+00  0.1836735E+00 -0.3582693E-05  0.0000000E+00  0.4193086E-02
  0.1693878E+01  0.0000000E+00  0.1836735E+00 -0.3134215E-05  0.0000000E+00  0.4191700E-02
  0.1734694E+01  0.0000000E+00  0.1836735E+00 -0.2698203E-05  0.0000000E+00  0.4190494E-02
  0.1775510E+01  0.0000000E+00  0.1836735E+00 -0.2271465E-05  0.0000000E+00  0.4189466E-02
  0.1816326E+01  0.0000000E+00  0.1836735E+00 -0.1851418E-05  0.0000000E+00  0.4188611E-02
  0.1857143E+01  0.0000000E+00  0.1836735E+00 -0.1436044E-05  0.0000000E+00  0.4187929E-02
  0.1897959E+01  0.0000000E+00  0.1836735E+00 -0.1023812E-05  0.0000000E+00  0.4187418E-02
  0.1938776E+01  0.0000000E+00  0.1836735E+00 -0.6135604E-06  0.0000000E+00  0.4187078E-02
  0.1989796E+01  0.0000000E+00  0.1836735E+00 -0.2043770E-06  0.0000000E+00  0.4186908E-02
  0.2040816E-01  0.0000000E+00  0.2244898E+00  0.3367442E-06  0.0000000E+00  0.4313805E-02
  0.6122449E-01  0.0000000E+00  0.2244898E+00  0.9718677E-06  0.0000000E+00  0.4314142E-02
  0.1020408E+00  0.0000000E+00  0.2244898E+00  0.1494070E-05  0.0000000E+00  0.4314787E-02
  0.1428571E+00  0.0000000E+00  0.2244898E+00  0.1833953E-05  0.0000000E+00  0.4315674E-02
  0.1836735E+00  0.0000000E+00  0.2244898E+00  0.1930523E-05  0.0000000E+00  0.4316715E-02
  0.2244898E+00  0.0000000E+00  0.2244898E+00  0.1735229E-05  0.0000000E+00  0.4317793E-02
  0.2653061E+00  0.0000000E+00  0.2244898E+00  0.1215675E-05  0.0000000E+00  0.4318775E-02
  0.3061225E+00  0.0000000E+00  0.2244898E+00  0.3590857E-06  0.0000000E+00  0.4319515E-02
  0.3469388E+00  0.0000000E+00  0.2244898E+00 -0.8252061E-06  0.0000000E+00  0.4319864E-02
  0.3877551E+00  0.0000000E+00  0.2244898E+00 -0.2304885E-05  0.0000000E+00  0.4319683E-02
  0.4285714E+00  0.0000000E+00  0.2244898E+00 -0.4025510E-05  0.0000000E+00  0.4318850E-02
  0.4693878E+00  0.0000000E+00  0.2244898E+00 -0.5914240E-05  0.0000000E+00  0.4317273E-02
  0.5102041E+00  0.0000000E+00  0.2244898E+00 -0.7885590E-05  0.0000000E+00  0.4314895E-02
  0.5510204E+00  0.0000000E+00  0.2244898E+00 -0.9848843E-05  0.0000000E+00  0.4311701E-02
  0.5918368E+00  0.0000000E+00  0.2244898E+00 -0.1171608E-04  0.0000000E+00  0.4307718E-02
  0.6326531E+00  0.0000000E+00  0.2244898E+00 -0.1340954E-04  0.0000000E+00  0.4303011E-02
  0.6734694E+00  0.0000000E+00  0.2244898E+00 -0.1486726E-04  0.0000000E+00  0.4297672E-02
  0.7142857E+00  0.0000000E+00  0.2244898E+00 -0.1604632E-04  0.0000000E+00  0.4291819E-02
  0.7551020E+00  0.0000000E+00  0.2244898E+00 -0.1692367E-04  0.0000000E+00  0.4285580E-02
  0.7959183E+00  0.0000000E+00  0.2244898E+00 -0.1749485E-04  0.0000000E+00  0.4279086E-02
  0.8367347E+00  0.0000000E+00  0.2244898E+00 -0.1777113E-04  0.0000000E+00  0.4272463E-02
  0.8775510E+00  0.0000000E+00  0.2244898E+00 -0.1777588E-04  0.0000000E+00  0.4265825E-02
  0.9183673E+00  0.0000000E+00  0.2244898E+00 -0.1754082E-04  0.0000000E+00  0.4259273E-02
  0.9591837E+00  0.0000000E+00  0.2244898E+00 -0.1710238E-04  0.0000000E+00  0.4252891E-02
  0.1000000E+01  0.0000000E+00  0.2244898E+00 -0.1649877E-04  0.0000000E+00  0.4246746E-02
  0.1040816E+01  0.0000000E+00  0.2244898E+00 -0.1576756E-04  0.0000000E+00  0.4240888E-02
  0.1081633E+01  0.0000000E+00  0.2244898E+00 -0.1494403E-04  0.0000000E+00  0.4235353E-02
  0.1122449E+01  0.0000000E+00  0.2244898E+00 -0.1406007E-04  0.0000000E+00  0.4230163E-02
  0.1163265E+01  0.0000000E+00  0.2244898E+00 -0.1314349E-04  0.0000000E+00  0.4225329E-02
  0.1204082E+01  0.0000000E+00  0.2244898E+00 -0.1221780E-04  0.0000000E+00  0.4220852E-02
  0.1244898E+01  0.0000000E+00  0.2244898E+00 -0.1130210E-04  0.0000000E+00  0.4216725E-02
  0.1285714E+01  0.0000000E+00  0.2244898E+00 -0.1041122E-04  0.0000000E+00  0.4212936E-02
  0.1326531E+01  0.0000000E+00  0.2244898E+00 -0.9555899E-05  0.0000000E+00  0.4209470E-02
  0.1367347E+01  0.0000000E+00  0.2244898E+00 -0.8743103E-05  0.0000000E+00  0.4206306E-02
  0.1408163E+01  0.0000000E+00  0.2244898E+00 -0.7976333E-05  0.0000000E+00  0.4203424E-02
  0.1448980E+01  0.0000000E+00  0.2244898E+00 -0.7256079E-05  0.0000000E+00  0.4200805E-02
  0.1489796E+01  0.0000000E+00  0.2244898E+00 -0.6580346E-05  0.0000000E+00  0.4198428E-02
  0.1530612E+01  0.0000000E+00  0.2244898E+00 -0.5945250E-05  0.0000000E+00  0.4196276E-02
  0.1571429E+01  0.0000000E+00  0.2244898E+00 -0.5345668E-05  0.0000000E+00  0.4194335E-02
  0.1612245E+01  0.0000000E+00  0.2244898E+00 -0.4775877E-05  0.0000000E+00  0.4192593E-02
  0.1653061E+01  0.0000000E+00  0.2244898E+00 -0.4230120E-05  0.0000000E+00  0.4191039E-02
  0.1693878E+01  0.0000000E+00  0.2244898E+00 -0.3703045E-05  0.0000000E+00  0.4189667E-02
  0.1734694E+01  0.0000000E+00  0.2244898E+00 -0.3189984E-05  0.0000000E+00  0.4188473E-02
  0.1775510E+01  0.0000000E+00  0.2244898E+00 -0.2687087E-05  0.0000000E+00  0.4187452E-02
  0.1816326E+01  0.0000000E+00  0.2244898E+00 -0.2191328E-05  0.0000000E+00  0.4186602E-02
  0.1857143E+01  0.0000000E+00  0.2244898E+00 -0.1700420E-05  0.0000000E+00  0.4185924E-02
  0.1897959E+01  0.0000000E+00  0.2244898E+00 -0.1212690E-05  0.0000000E+00  0.4185415E-02
  0.1938776E+01  0.0000000E+00  0.2244898E+00 -0.7269202E-06  0.0000000E+00  0.4185076E-02
  0.1989796E+01  0.0000000E+00  0.2244898E+00 -0.2421855E-06  0.0000000E+00  0.4184907E-02
  0.2040816E-01  0.0000000E+00  0.2653061E+00  0.4498379E-06  0.0000000E+00  0.4310959E-02
  0.6122449E-01  0.0000000E+00  0.2653061E+00  0.1302671E-05  0.0000000E+00  0.4311381E-02
  0.1020408E+00  0.0000000E+00  0.2653061E+00  0.2017170E-05  0.0000000E+00  0.4312189E-02
  0.1428571E+00  0.0000000E+00  0.2653061E+00  0.2507603E-05  0.0000000E+00  0.4313313E-02
  0.1836735E+00  0.0000000E+00  0.2653061E+00  0.2697788E-05  0.0000000E+00  0.4314651E-02
  0.2244898E+00  0.0000000E+00  0.2653061E+00  0.2525988E-05  0.0000000E+00  0.4316073E-02
  0.2653061E+00  0.0000000E+00  0.2653061E+00  0.1949762E-05  0.0000000E+00  0.4317424E-02
  0.3061225E+00  0.0000000E+00  0.2653061E+00  0.9507252E-06  0.0000000E+00  0.4318535E-02
  0.3469388E+00  0.0000000E+00  0.2653061E+00 -0.4615851E-06  0.0000000E+00  0.4319233E-02
  0.3877551E+00  0.0000000E+00  0.2653061E+00 -0.2247965E-05  0.0000000E+00  0.4319352E-02
  0.4285714E+00  0.0000000E+00  0.2653061E+00 -0.4340183E-05  0.0000000E+00  0.4318747E-02
  0.4693878E+00  0.0000000E+00  0.2653061E+00 -0.6645374E-05  0.0000000E+00  0.4317308E-02
  0.5102041E+00  0.0000000E+00  0.2653061E+00 -0.9053758E-05  0.0000000E+00  0.4314969E-02
  0.5510204E+00  0.0000000E+00  0.2653061E+00 -0.1144872E-04  0.0000000E+00  0.4311713E-02
  0.5918368E+00  0.0000000E+00  0.2653061E+00 -0.1371784E-04  0.0000000E+00  0.4307575E-02
  0.6326531E+00  0.0000000E+00  0.2653061E+00 -0.1576292E-04  0.0000000E+00  0.4302632E-02
  0.6734694E+00  0.0000000E+00  0.2653061E+00 -0.1750744E-04  0.0000000E+00  0.4297001E-02
  0.7142857E+00  0.0000000E+00  0.2653061E+00 -0.1890052E-04  0.0000000E+00  0.4290820E-02
  0.7551020E+00  0.0000000E+00  0.2653061E+00 -0.1991741E-04  0.0000000E+00  0.4284238E-02
  0.7959183E+00  0.0000000E+00  0.2653061E+00 -0.2055710E-04  0.0000000E+00  0.4277407E-02
  0.8367347E+00  0.0000000E+00  0.2653061E+00 -0.2083806E-04  0.0000000E+00  0.4270466E-02
  0.8775510E+00  0.0000000E+00  0.2653061E+00 -0.2079314E-04  0.0000000E+00  0.4263543E-02
  0.9183673E+00  0.0000000E+00  0.2653061E+00 -0.2046445E-04  0.0000000E+00  0.4256745E-02
  0.9591837E+00  0.0000000E+00  0.2653061E+00 -0.1989877E-04  0.0000000E+00  0.4250159E-02
  0.1000000E+01  0.0000000E+00  0.2653061E+00 -0.1914391E-04  0.0000000E+00  0.4243852E-02
  0.1040816E+01  0.0000000E+00  0.2653061E+00 -0.1824595E-04  0.0000000E+00  0.4237873E-02
  0.1081633E+01  0.0000000E+00  0.2653061E+00 -0.1724736E-04  0.0000000E+00  0.4232253E-02
  0.1122449E+01  0.0000000E+00  0.2653061E+00 -0.1618595E-04  0.0000000E+00  0.4227011E-02
  0.1163265E+01  0.0000000E+00  0.2653061E+00 -0.1509428E-04  0.0000000E+00  0.4222153E-02
  0.1204082E+01  0.0000000E+00  0.2653061E+00 -0.1399949E-04  0.0000000E+00  0.4217675E-02
  0.1244898E+01  0.0000000E+00  0.2653061E+00 -0.1292339E-04  0.0000000E+00  0.4213566E-02
  0.1285714E+01  0.0000000E+00  0.2653061E+00 -0.1188268E-04  0.0000000E+00  0.4209810E-02
  0.1326531E+01  0.0000000E+00  0.2653061E+00 -0.1088923E-04  0.0000000E+00  0.4206384E-02