title = "dataset feddes"
variables = "x", "y", "z", "h_w", "p_w", "s_w", "theta_w", "transp", "evap"
zone t = "Flow variables, solution time =  5.500E+01 days        " i =   50, j =   50, k =    1,  f=point
  0.0000000E+00  0.0000000E+00  0.0000000E+00  0.0000000E+00  0.0000000E+00  0.1000000E+01  0.4280000E+00  0.0000000E+00  0.0000000E+00
  0.4081633E-01  0.0000000E+00  0.0000000E+00  0.0000000E+00  0.0000000E+00  0.1000000E+01  0.4280000E+00  0.0000000E+00  0.0000000E+00
  0.8163265E-01  0.0000000E+00  0.0000000E+00  0.0000000E+00  0.0000000E+00  0.1000000E+01  0.4280000E+00  0.0000000E+00  0.0000000E+00
  0.1224490E+00  0.0000000E+00  0.0000000E+00  0.0000000E+00  0.0000000E+00  0.1000000E+01  0.4280000E+00  0.0000000E+00  0.0000000E+00
  0.1632653E+00  0.0000000E+00  0.0000000E+00  0.0000000E+00  0.0000000E+00  0.1000000E+01  0.4280000E+00  0.0000000E+00  0.0000000E+00
  0.2040816E+00  0.0000000E+00  0.0000000E+00  0.0000000E+00  0.0000000E+00  0.1000000E+01  0.4280000E+00  0.0000000E+00  0.0000000E+00
  0.2448980E+00  0.0000000E+00  0.0000000E+00  0.0000000E+00  0.0000000E+00  0.1000000E+01  0.4280000E+00  0.0000000E+00  0.0000000E+00
  0.2857143E+00  0.0000000E+00  0.0000000E+00  0.0000000E+00  0.0000000E+00  0.1000000E+01  0.4280000E+00  0.0000000E+00  0.0000000E+00
  0.3265306E+00  0.0000000E+00  0.0000000E+00  0.0000000E+00  0.0000000E+00  0.1000000E+01  0.4280000E+00  0.0000000E+00  0.0000000E+00
  0.3673469E+00  0.0000000E+00  0.0000000E+00  0.0000000E+00  0.0000000E+00  0.1000000E+01  0.4280000E+00  0.0000000E+00  0.0000000E+00
  0.4081633E+00  0.0000000E+00  0.0000000E+00  0.0000000E+00  0.0000000E+00  0.1000000E+01  0.4280000E+00  0.0000000E+00  0.0000000E+00
  0.4489796E+00  0.0000000E+00  0.0000000E+00  0.0000000E+00  0.0000000E+00  0.1000000E+01  0.4280000E+00  0.0000000E+00  0.0000000E+00
  0.4897959E+00  0.0000000E+00  0.0000000E+00  0.0000000E+00  0.0000000E+00  0.1000000E+01  0.4280000E+00  0.0000000E+00  0.0000000E+00
  0.5306122E+00  0.0000000E+00  0.0000000E+00  0.0000000E+00  0.0000000E+00  0.1000000E+01  0.4280000E+00  0.0000000E+00  0.0000000E+00
  0.5714286E+00  0.0000000E+00  0.0000000E+00  0.0000000E+00  0.0000000E+00  0.1000000E+01  0.4280000E+00  0.0000000E+00  0.0000000E+00
  0.6122449E+00  0.0000000E+00  0.0000000E+00  0.0000000E+00  0.0000000E+00  0.1000000E+01  0.4280000E+00  0.0000000E+00  0.0000000E+00
  0.6530612E+00  0.0000000E+00  0.0000000E+00  0.0000000E+00  0.0000000E+00  0.1000000E+01  0.4280000E+00  0.0000000E+00  0.0000000E+00
  0.6938776E+00  0.0000000E+00  0.0000000E+00  0.0000000E+00  0.0000000E+00  0.1000000E+01  0.4280000E+00  0.0000000E+00  0.0000000E+00
  0.7346939E+00  0.0000000E+00  0.0000000E+00  0.0000000E+00  0.0000000E+00  0.1000000E+01  0.4280000E+00  0.0000000E+00  0.0000000E+00
  0.7755102E+00  0.0000000E+00  0.0000000E+00  0.0000000E+00  0.0000000E+00  0.1000000E+01  0.4280000E+00  0.0000000E+00  0.0000000E+00
  0.8163265E+00  0.0000000E+00  0.0000000E+00  0.0000000E+00  0.0000000E+00  0.1000000E+01  0.4280000E+00  0.0000000E+00  0.0000000E+00
  0.8571429E+00  0.0000000E+00  0.0000000E+00  0.0000000E+00  0.0000000E+00  0.1000000E+01  0.4280000E+00  0.0000000E+00  0.0000000E+00
  0.8979592E+00  0.0000000E+00  0.0000000E+00  0.0000000E+00  0.0000000E+00  0.1000000E+01  0.4280000E+00  0.0000000E+00  0.0000000E+00
  0.9387755E+00  0.0000000E+00  0.0000000E+00  0.0000000E+00  0.0000000E+00  0.1000000E+01  0.4280000E+00  0.0000000E+00  0.0000000E+00
  0.9795918E+00  0.0000000E+00  0.0000000E+00  0.0000000E+00  0.0000000E+00  0.1000000E+01  0.4280000E+00  0.0000000E+00  0.0000000E+00
  0.1020408E+01  0.0000000E+00  0.0000000E+00  0.0000000E+00  0.0000000E+00  0.1000000E+01  0.4280000E+00  0.0000000E+00  0.0000000E+00
  0.1061224E+01  0.0000000E+00  0.0000000E+00  0.0000000E+00  0.0000000E+00  0.1000000E+01  0.4280000E+00  0.0000000E+00  0.0000000E+00
  0.1102041E+01  0.0000000E+00  0.0000000E+00  0.0000000E+00  0.0000000E+00  0.1000000E+01  0.4280000E+00  0.0000000E+00  0.0000000E+00
  0.1142857E+01  0.0000000E+00  0.0000000E+00  0.0000000E+00  0.0000000E+00  0.1000000E+01  0.4280000E+00  0.0000000E+00  0.0000000E+00
  0.1183673E+01  0.0000000E+00  0.0000000E+00  0.0000000E+00  0.0000000E+00  0.1000000E+01  0.4280000E+00  0.0000000E+00  0.0000000E+00
  0.1224490E+01  0.0000000E+00  0.0000000E+00  0.0000000E+00  0.0000000E+00  0.1000000E+01  0.4280000E+00  0.0000000E+00  0.0000000E+00
  0.1265306E+01  0.0000000E+00  0.0000000E+00  0.0000000E+00  0.0000000E+00  0.1000000E+01  0.4280000E+00  0.0000000E+00  0.0000000E+00
  0.1306122E+01  0.0000000E+00  0.0000000E+00  0.0000000E+00  0.0000000E+00  0.1000000E+01  0.4280000E+00  0.0000000E+00  0.0000000E+00
  0.1346939E+01  0.0000000E+00  0.0000000E+00  0.0000000E+00  0.0000000E+00  0.1000000E+01  0.4280000E+00  0.0000000E+00  0.0000000E+00
  0.1387755E+01  0.0000000E+00  0.0000000E+00  0.0000000E+00  0.0000000E+00  0.1000000E+01  0.4280000E+00  0.0000000E+00  0.0000000E+00
  0.1428571E+01  0.0000000E+00  0.0000000E+00  0.0000000E+00  0.0000000E+00  0.1000000E+01  0.4280000E+00  0.0000000E+00  0.0000000E+00
  0.1469388E+01  0.0000000E+00  0.0000000E+00  0.0000000E+00  0.0000000E+00  0.1000000E+01  0.4280000E+00  0.0000000E+00  0.0000000E+00
  0.1510204E+01  0.0000000E+00  0.0000000E+00  0.0000000E+00  0.0000000E+00  0.1000000E+01  0.4280000E+00  0.0000000E+00  0.0000000E+00
  0.1551020E+01  0.0000000E+00  0.0000000E+00  0.0000000E+00  0.0000000E+00  0.1000000E+01  0.4280000E+00  0.0000000E+00  0.0000000E+00
  0.1591837E+01  0.0000000E+00  0.0000000E+00  0.0000000E+00  0.0000000E+00  0.1000000E+01  0.4280000E+00  0.0000000E+00  0.0000000E+00
  0.1632653E+01  0.0000000E+00  0.0000000E+00  0.0000000E+00  0.0000000E+00  0.1000000E+01  0.4280000E+00  0.0000000E+00  0.0000000E+00
  0.1673469E+01  0.0000000E+00  0.0000000E+00  0.0000000E+00  0.0000000E+00  0.1000000E+01  0.4280000E+00  0.0000000E+00  0.0000000E+00
  0.1714286E+01  0.0000000E+00  0.0000000E+00  0.0000000E+00  0.0000000E+00  0.1000000E+01  0.4280000E+00  0.0000000E+00  0.0000000E+00
  0.1755102E+01  0.0000000E+00  0.0000000E+00  0.0000000E+00  0.0000000E+00  0.1000000E+01  0.4280000E+00  0.0000000E+00  0.0000000E+00
  0.1795918E+01  0.0000000E+00  0.0000000E+00  0.0000000E+00  0.0000000E+00  0.1000000E+01  0.4280000E+00  0.0000000E+00  0.0000000E+00
  0.1836735E+01  0.0000000E+00  0.0000000E+00  0.0000000E+00  0.0000000E+00  0.1000000E+01  0.4280000E+00  0.0000000E+00  0.0000000E+00
  0.1877551E+01  0.0000000E+00  0.0000000E+00  0.0000000E+00  0.0000000E+00  0.1000000E+01  0.4280000E+00  0.0000000E+00  0.0000000E+00
  0.1918367E+01  0.0000000E+00  0.0000000E+00  0.0000000E+00  0.0000000E+00  0.1000000E+01  0.4280000E+00  0.0000000E+00  0.0000000E+00
  0.1959184E+01  0.0000000E+00  0.0000000E+00  0.0000000E+00  0.0000000E+00  0.1000000E+01  0.4280000E+00  0.0000000E+00  0.0000000E+00
  0.2000000E+01  0.0000000E+00  0.0000000E+00  0.0000000E+00  0.0000000E+00  0.1000000E+01  0.4280000E+00  0.0000000E+00  0.0000000E+00
  0.0000000E+00  0.0000000E+00  0.4081633E-01 -0.9463349E-04 -0.4091096E-01  0.9960485E+00  0.4263087E+00  0.0000000E+00  0.0000000E+00
  0.4081633E-01  0.0000000E+00  0.4081633E-01 -0.9465786E-04 -0.4091098E-01  0.9960485E+00  0.4263087E+00  0.0000000E+00  0.0000000E+00
  0.8163265E-01  0.0000000E+00  0.4081633E-01 -0.9472557E-04 -0.4091105E-01  0.9960485E+00  0.4263087E+00  0.0000000E+00  0.0000000E+00
  0.1224490E+00  0.0000000E+00  0.4081633E-01 -0.9482047E-04 -0.4091115E-01  0.9960484E+00  0.4263087E+00  0.0000000E+00  0.0000000E+00
  0.1632653E+00  0.0000000E+00  0.4081633E-01 -0.9491656E-04 -0.4091124E-01  0.9960484E+00  0.4263087E+00  0.0000000E+00  0.0000000E+00
  0.2040816E+00  0.0000000E+00  0.4081633E-01 -0.9497951E-04 -0.4091131E-01  0.9960484E+00  0.4263087E+00  0.0000000E+00  0.0000000E+00
  0.2448980E+00  0.0000000E+00  0.4081633E-01 -0.9496862E-04 -0.4091130E-01  0.9960484E+00  0.4263087E+00  0.0000000E+00  0.0000000E+00
  0.2857143E+00  0.0000000E+00  0.4081633E-01 -0.9483922E-04 -0.4091117E-01  0.9960484E+00  0.4263087E+00  0.0000000E+00  0.0000000E+00
  0.3265306E+00  0.0000000E+00  0.4081633E-01 -0.9454547E-04 -0.4091087E-01  0.9960485E+00  0.4263087E+00  0.0000000E+00  0.0000000E+00
  0.3673469E+00  0.0000000E+00  0.4081633E-01 -0.9404337E-04 -0.4091037E-01  0.9960485E+00  0.4263088E+00  0.0000000E+00  0.0000000E+00
  0.4081633E+00  0.0000000E+00  0.4081633E-01 -0.9329367E-04 -0.4090962E-01  0.9960486E+00  0.4263088E+00  0.0000000E+00  0.0000000E+00
  0.4489796E+00  0.0000000E+00  0.4081633E-01 -0.9226458E-04 -0.4090859E-01  0.9960488E+00  0.4263089E+00  0.0000000E+00  0.0000000E+00
  0.4897959E+00  0.0000000E+00  0.4081633E-01 -0.9093403E-04 -0.4090726E-01  0.9960490E+00  0.4263090E+00  0.0000000E+00  0.0000000E+00
  0.5306122E+00  0.0000000E+00  0.4081633E-01 -0.8929110E-04 -0.4090562E-01  0.9960492E+00  0.4263090E+00  0.0000000E+00  0.0000000E+00
  0.5714286E+00  0.0000000E+00  0.4081633E-01 -0.8733681E-04 -0.4090366E-01  0.9960494E+00  0.4263092E+00  0.0000000E+00  0.0000000E+00
  0.6122449E+00  0.0000000E+00  0.4081633E-01 -0.8508381E-04 -0.4090141E-01  0.9960497E+00  0.4263093E+00  0.0000000E+00  0.0000000E+00
  0.6530612E+00  0.0000000E+00  0.4081633E-01 -0.8255547E-04 -0.4089888E-01  0.9960501E+00  0.4263094E+00  0.0000000E+00  0.0000000E+00
  0.6938776E+00  0.0000000E+00  0.4081633E-01 -0.7978410E-04 -0.4089611E-01  0.9960504E+00  0.4263096E+00  0.0000000E+00  0.0000000E+00
  0.7346939E+00  0.0000000E+00  0.4081633E-01 -0.7680884E-04 -0.4089314E-01  0.9960508E+00  0.4263098E+00  0.0000000E+00  0.0000000E+00
  0.7755102E+00  0.0000000E+00  0.4081633E-01 -0.7367325E-04 -0.4089000E-01  0.9960512E+00  0.4263099E+00  0.0000000E+00  0.0000000E+00
  0.8163265E+00  0.0000000E+00  0.4081633E-01 -0.7042294E-04 -0.4088675E-01  0.9960517E+00  0.4263101E+00  0.0000000E+00  0.0000000E+00
  0.8571429E+00  0.0000000E+00  0.4081633E-01 -0.6710337E-04 -0.4088343E-01  0.9960521E+00  0.4263103E+00  0.0000000E+00  0.0000000E+00
  0.8979592E+00  0.0000000E+00  0.4081633E-01 -0.6375804E-04 -0.4088008E-01  0.9960525E+00  0.4263105E+00  0.0000000E+00  0.0000000E+00
  0.9387755E+00  0.0000000E+00  0.4081633E-01 -0.6042699E-04 -0.4087675E-01  0.9960530E+00  0.4263107E+00  0.0000000E+00  0.0000000E+00
  0.9795918E+00  0.0000000E+00  0.4081633E-01 -0.5714581E-04 -0.4087347E-01  0.9960534E+00  0.4263109E+00  0.0000000E+00  0.0000000E+00
  0.1020408E+01  0.0000000E+00  0.4081633E-01 -0.5394504E-04 -0.4087027E-01  0.9960538E+00  0.4263110E+00  0.0000000E+00  0.0000000E+00
  0.1061224E+01  0.0000000E+00  0.4081633E-01 -0.5084994E-04 -0.4086718E-01  0.9960542E+00  0.4263112E+00  0.0000000E+00  0.0000000E+00
  0.1102041E+01  0.0000000E+00  0.4081633E-01 -0.4788054E-04 -0.4086421E-01  0.9960546E+00  0.4263114E+00  0.0000000E+00  0.0000000E+00
  0.1142857E+01  0.0000000E+00  0.4081633E-01 -0.4505191E-04 -0.4086138E-01  0.9960550E+00  0.4263115E+00  0.0000000E+00  0.0000000E+00
  0.1183673E+01  0.0000000E+00  0.4081633E-01 -0.4237459E-04 -0.4085870E-01  0.9960554E+00  0.4263117E+00  0.0000000E+00  0.0000000E+00
  0.1224490E+01  0.0000000E+00  0.4081633E-01 -0.3985517E-04 -0.4085618E-01  0.9960557E+00  0.4263118E+00  0.0000000E+00  0.0000000E+00
  0.1265306E+01  0.0000000E+00  0.4081633E-01 -0.3749683E-04 -0.4085382E-01  0.9960560E+00  0.4263120E+00  0.0000000E+00  0.0000000E+00
  0.1306122E+01  0.0000000E+00  0.4081633E-01 -0.3529999E-04 -0.4085163E-01  0.9960563E+00  0.4263121E+00  0.0000000E+00  0.0000000E+00
  0.1346939E+01  0.0000000E+00  0.4081633E-01 -0.3326288E-04 -0.4084959E-01  0.9960566E+00  0.4263122E+00  0.0000000E+00  0.0000000E+00
  0.1387755E+01  0.0000000E+00  0.4081633E-01 -0.3138208E-04 -0.4084771E-01  0.9960568E+00  0.4263123E+00  0.0000000E+00  0.0000000E+00
  0.1428571E+01  0.0000000E+00  0.4081633E-01 -0.2965306E-04 -0.4084598E-01  0.9960570E+00  0.4263124E+00  0.0000000E+00  0.0000000E+00
  0.1469388E+01  0.0000000E+00  0.4081633E-01 -0.2807062E-04 -0.4084440E-01  0.9960572E+00  0.4263125E+00  0.0000000E+00  0.0000000E+00
  0.1510204E+01  0.0000000E+00  0.4081633E-01 -0.2662923E-04 -0.4084296E-01  0.9960574E+00  0.4263126E+00  0.0000000E+00  0.0000000E+00
  0.1551020E+01  0.0000000E+00  0.4081633E-01 -0.2532341E-04 -0.4084165E-01  0.9960576E+00  0.4263127E+00  0.0000000E+00  0.0000000E+00
  0.1591837E+01  0.0000000E+00  0.4081633E-01 -0.2414789E-04 -0.4084047E-01  0.9960578E+00  0.4263127E+00  0.0000000E+00  0.0000000E+00
  0.1632653E+01  0.0000000E+00  0.4081633E-01 -0.2309782E-04 -0.4083942E-01  0.9960579E+00  0.4263128E+00  0.0000000E+00  0.0000000E+00
  0.1673469E+01  0.0000000E+00  0.4081633E-01 -0.2216886E-04 -0.4083850E-01  0.9960580E+00  0.4263128E+00  0.0000000E+00  0.0000000E+00
  0.1714286E+01  0.0000000E+00  0.4081633E-01 -0.2135722E-04 -0.4083768E-01  0.9960581E+00  0.4263129E+00  0.0000000E+00  0.0000000E+00
  0.1755102E+01  0.0000000E+00  0.4081633E-01 -0.2065968E-04 -0.4083699E-01  0.9960582E+00  0.4263129E+00  0.0000000E+00  0.0000000E+00
  0.1795918E+01  0.0000000E+00  0.4081633E-01 -0.2007359E-04 -0.4083640E-01  0.9960583E+00  0.4263130E+00  0.0000000E+00  0.0000000E+00
  0.1836735E+01  0.0000000E+00  0.4081633E-01 -0.1959678E-04 -0.4083592E-01  0.9960584E+00  0.4263130E+00  0.0000000E+00  0.0000000E+00
  0.1877551E+01  0.0000000E+00  0.4081633E-01 -0.1922757E-04 -0.4083555E-01  0.9960584E+00  0.4263130E+00  0.0000000E+00  0.0000000E+00
  0.1918367E+01  0.0000000E+00  0.4081633E-01 -0.1896472E-04 -0.4083529E-01  0.9960585E+00  0.4263130E+00  0.0000000E+00  0.0000000E+00
  0.1959184E+01  0.0000000E+00  0.4081633E-01 -0.1880734E-04 -0.4083513E-01  0.9960585E+00  0.4263130E+00  0.0000000E+00  0.0000000E+00
  0.2000000E+01  0.0000000E+00  0.4081633E-01 -0.1875493E-04 -0.4083508E-01  0.9960585E+00  0.4263130E+00  0.0000000E+00  0.0000000E+00
  0.0000000E+00  0.0000000E+00  0.8163265E-01 -0.2977413E-03 -0.8193039E-01  0.9898563E+00  0.4236585E+00  0.0000000E+00  0.0000000E+00
  0.4081633E-01  0.0000000E+00  0.8163265E-01 -0.2978235E-03 -0.8193048E-01  0.9898563E+00  0.4236585E+00  0.0000000E+00  0.0000000E+00
  0.8163265E-01  0.0000000E+00  0.8163265E-01 -0.2980529E-03 -0.8193071E-01  0.9898563E+00  0.4236585E+00  0.0000000E+00  0.0000000E+00
  0.1224490E+00  0.0000000E+00  0.8163265E-01 -0.2983777E-03 -0.8193103E-01  0.9898562E+00  0.4236585E+00  0.0000000E+00  0.0000000E+00
  0.1632653E+00  0.0000000E+00  0.8163265E-01 -0.2987145E-03 -0.8193137E-01  0.9898561E+00  0.4236584E+00  0.0000000E+00  0.0000000E+00
  0.2040816E+00  0.0000000E+00  0.8163265E-01 -0.2989535E-03 -0.8193161E-01  0.9898561E+00  0.4236584E+00  0.0000000E+00  0.0000000E+00
  0.2448980E+00  0.0000000E+00  0.8163265E-01 -0.2989638E-03 -0.8193162E-01  0.9898561E+00  0.4236584E+00  0.0000000E+00  0.0000000E+00
  0.2857143E+00  0.0000000E+00  0.8163265E-01 -0.2986022E-03 -0.8193126E-01  0.9898562E+00  0.4236584E+00  0.0000000E+00  0.0000000E+00
  0.3265306E+00  0.0000000E+00  0.8163265E-01 -0.2977214E-03 -0.8193037E-01  0.9898563E+00  0.4236585E+00  0.0000000E+00  0.0000000E+00
  0.3673469E+00  0.0000000E+00  0.8163265E-01 -0.2961798E-03 -0.8192883E-01  0.9898566E+00  0.4236586E+00  0.0000000E+00  0.0000000E+00
  0.4081633E+00  0.0000000E+00  0.8163265E-01 -0.2938511E-03 -0.8192650E-01  0.9898570E+00  0.4236588E+00  0.0000000E+00  0.0000000E+00
  0.4489796E+00  0.0000000E+00  0.8163265E-01 -0.2906332E-03 -0.8192329E-01  0.9898575E+00  0.4236590E+00  0.0000000E+00  0.0000000E+00
  0.4897959E+00  0.0000000E+00  0.8163265E-01 -0.2864550E-03 -0.8191911E-01  0.9898582E+00  0.4236593E+00  0.0000000E+00  0.0000000E+00
  0.5306122E+00  0.0000000E+00  0.8163265E-01 -0.2812815E-03 -0.8191393E-01  0.9898590E+00  0.4236597E+00  0.0000000E+00  0.0000000E+00
  0.5714286E+00  0.0000000E+00  0.8163265E-01 -0.2751162E-03 -0.8190777E-01  0.9898601E+00  0.4236601E+00  0.0000000E+00  0.0000000E+00
  0.6122449E+00  0.0000000E+00  0.8163265E-01 -0.2680000E-03 -0.8190065E-01  0.9898613E+00  0.4236606E+00  0.0000000E+00  0.0000000E+00
  0.6530612E+00  0.0000000E+00  0.8163265E-01 -0.2600081E-03 -0.8189266E-01  0.9898626E+00  0.4236612E+00  0.0000000E+00  0.0000000E+00
  0.6938776E+00  0.0000000E+00  0.8163265E-01 -0.2512447E-03 -0.8188390E-01  0.9898640E+00  0.4236618E+00  0.0000000E+00  0.0000000E+00
  0.7346939E+00  0.0000000E+00  0.8163265E-01 -0.2418353E-03 -0.8187449E-01  0.9898656E+00  0.4236625E+00  0.0000000E+00  0.0000000E+00
  0.7755102E+00  0.0000000E+00  0.8163265E-01 -0.2319195E-03 -0.8186457E-01  0.9898673E+00  0.4236632E+00  0.0000000E+00  0.0000000E+00
  0.8163265E+00  0.0000000E+00  0.8163265E-01 -0.2216431E-03 -0.8185430E-01  0.9898690E+00  0.4236639E+00  0.0000000E+00  0.0000000E+00
  0.8571429E+00  0.0000000E+00  0.8163265E-01 -0.2111511E-03 -0.8184380E-01  0.9898707E+00  0.4236647E+00  0.0000000E+00  0.0000000E+00
  0.8979592E+00  0.0000000E+00  0.8163265E-01 -0.2005818E-03 -0.8183323E-01  0.9898725E+00  0.4236654E+00  0.0000000E+00  0.0000000E+00
  0.9387755E+00  0.0000000E+00  0.8163265E-01 -0.1900623E-03 -0.8182272E-01  0.9898742E+00  0.4236662E+00  0.0000000E+00  0.0000000E+00
  0.9795918E+00  0.0000000E+00  0.8163265E-01 -0.1797052E-03 -0.8181236E-01  0.9898760E+00  0.4236669E+00  0.0000000E+00  0.0000000E+00
  0.1020408E+01  0.0000000E+00  0.8163265E-01 -0.1696069E-03 -0.8180226E-01  0.9898776E+00  0.4236676E+00  0.0000000E+00  0.0000000E+00
  0.1061224E+01  0.0000000E+00  0.8163265E-01 -0.1598467E-03 -0.8179250E-01  0.9898793E+00  0.4236683E+00  0.0000000E+00  0.0000000E+00
  0.1102041E+01  0.0000000E+00  0.8163265E-01 -0.1504874E-03 -0.8178314E-01  0.9898808E+00  0.4236690E+00  0.0000000E+00  0.0000000E+00
  0.1142857E+01  0.0000000E+00  0.8163265E-01 -0.1415759E-03 -0.8177423E-01  0.9898823E+00  0.4236696E+00  0.0000000E+00  0.0000000E+00
  0.1183673E+01  0.0000000E+00  0.8163265E-01 -0.1331447E-03 -0.8176580E-01  0.9898837E+00  0.4236702E+00  0.0000000E+00  0.0000000E+00
  0.1224490E+01  0.0000000E+00  0.8163265E-01 -0.1252140E-03 -0.8175787E-01  0.9898850E+00  0.4236708E+00  0.0000000E+00  0.0000000E+00
  0.1265306E+01  0.0000000E+00  0.8163265E-01 -0.1177932E-03 -0.8175045E-01  0.9898863E+00  0.4236713E+00  0.0000000E+00  0.0000000E+00
  0.1306122E+01  0.0000000E+00  0.8163265E-01 -0.1108829E-03 -0.8174354E-01  0.9898874E+00  0.4236718E+00  0.0000000E+00  0.0000000E+00
  0.1346939E+01  0.0000000E+00  0.8163265E-01 -0.1044770E-03 -0.8173713E-01  0.9898885E+00  0.4236723E+00  0.0000000E+00  0.0000000E+00
  0.1387755E+01  0.0000000E+00  0.8163265E-01 -0.9856407E-04 -0.8173122E-01  0.9898895E+00  0.4236727E+00  0.0000000E+00  0.0000000E+00
  0.1428571E+01  0.0000000E+00  0.8163265E-01 -0.9312952E-04 -0.8172578E-01  0.9898904E+00  0.4236731E+00  0.0000000E+00  0.0000000E+00
  0.1469388E+01  0.0000000E+00  0.8163265E-01 -0.8815649E-04 -0.8172081E-01  0.9898912E+00  0.4236734E+00  0.0000000E+00  0.0000000E+00
  0.1510204E+01  0.0000000E+00  0.8163265E-01 -0.8362734E-04 -0.8171628E-01  0.9898920E+00  0.4236738E+00  0.0000000E+00  0.0000000E+00
  0.1551020E+01  0.0000000E+00  0.8163265E-01 -0.7952449E-04 -0.8171218E-01  0.9898926E+00  0.4236740E+00  0.0000000E+00  0.0000000E+00
  0.1591837E+01  0.0000000E+00  0.8163265E-01 -0.7583123E-04 -0.8170848E-01  0.9898933E+00  0.4236743E+00  0.0000000E+00  0.0000000E+00
  0.1632653E+01  0.0000000E+00  0.8163265E-01 -0.7253215E-04 -0.8170519E-01  0.9898938E+00  0.4236745E+00  0.0000000E+00  0.0000000E+00
  0.1673469E+01  0.0000000E+00  0.8163265E-01 -0.6961354E-04 -0.8170227E-01  0.9898943E+00  0.4236748E+00  0.0000000E+00  0.0000000E+00
  0.1714286E+01  0.0000000E+00  0.8163265E-01 -0.6706346E-04 -0.8169972E-01  0.9898947E+00  0.4236749E+00  0.0000000E+00  0.0000000E+00
  0.1755102E+01  0.0000000E+00  0.8163265E-01 -0.6487181E-04 -0.8169752E-01  0.9898951E+00  0.4236751E+00  0.0000000E+00  0.0000000E+00
  0.1795918E+01  0.0000000E+00  0.8163265E-01 -0.6303023E-04 -0.8169568E-01  0.9898954E+00  0.4236752E+00  0.0000000E+00  0.0000000E+00
  0.1836735E+01  0.0000000E+00  0.8163265E-01 -0.6153198E-04 -0.8169419E-01  0.9898956E+00  0.4236753E+00  0.0000000E+00  0.0000000E+00
  0.1877551E+01  0.0000000E+00  0.8163265E-01 -0.6037182E-04 -0.8169302E-01  0.9898958E+00  0.4236754E+00  0.0000000E+00  0.0000000E+00
  0.1918367E+01  0.0000000E+00  0.8163265E-01 -0.5954581E-04 -0.8169220E-01  0.9898960E+00  0.4236755E+00  0.0000000E+00  0.0000000E+00
  0.1959184E+01  0.0000000E+00  0.8163265E-01 -0.5905126E-04 -0.8169170E-01  0.9898960E+00  0.4236755E+00  0.0000000E+00  0.0000000E+00
  0.2000000E+01  0.0000000E+00  0.8163265E-01 -0.5888657E-04 -0.8169154E-01  0.9898961E+00  0.4236755E+00  0.0000000E+00  0.0000000E+00
  0.0000000E+00  0.0000000E+00  0.1224490E+00 -0.5705586E-03 -0.1230195E+00  0.9825531E+00  0.4205327E+00  0.0000000E+00  0.0000000E+00
  0.4081633E-01  0.0000000E+00  0.1224490E+00 -0.5707364E-03 -0.1230197E+00  0.9825530E+00  0.4205327E+00  0.0000000E+00  0.0000000E+00
  0.8163265E-01  0.0000000E+00  0.1224490E+00 -0.5712350E-03 -0.1230202E+00  0.9825529E+00  0.4205327E+00  0.0000000E+00  0.0000000E+00
  0.1224490E+00  0.0000000E+00  0.1224490E+00 -0.5719523E-03 -0.1230209E+00  0.9825528E+00  0.4205326E+00  0.0000000E+00  0.0000000E+00
  0.1632653E+00  0.0000000E+00  0.1224490E+00 -0.5727232E-03 -0.1230217E+00  0.9825527E+00  0.4205325E+00  0.0000000E+00  0.0000000E+00
  0.2040816E+00  0.0000000E+00  0.1224490E+00 -0.5733295E-03 -0.1230223E+00  0.9825526E+00  0.4205325E+00  0.0000000E+00  0.0000000E+00
  0.2448980E+00  0.0000000E+00  0.1224490E+00 -0.5735119E-03 -0.1230225E+00  0.9825525E+00  0.4205325E+00  0.0000000E+00  0.0000000E+00
  0.2857143E+00  0.0000000E+00  0.1224490E+00 -0.5729852E-03 -0.1230220E+00  0.9825526E+00  0.4205325E+00  0.0000000E+00  0.0000000E+00
  0.3265306E+00  0.0000000E+00  0.1224490E+00 -0.5714559E-03 -0.1230204E+00  0.9825529E+00  0.4205326E+00  0.0000000E+00  0.0000000E+00
  0.3673469E+00  0.0000000E+00  0.1224490E+00 -0.5686420E-03 -0.1230176E+00  0.9825534E+00  0.4205329E+00  0.0000000E+00  0.0000000E+00
  0.4081633E+00  0.0000000E+00  0.1224490E+00 -0.5642913E-03 -0.1230133E+00  0.9825542E+00  0.4205332E+00  0.0000000E+00  0.0000000E+00
  0.4489796E+00  0.0000000E+00  0.1224490E+00 -0.5581996E-03 -0.1230072E+00  0.9825554E+00  0.4205337E+00  0.0000000E+00  0.0000000E+00
  0.4897959E+00  0.0000000E+00  0.1224490E+00 -0.5502252E-03 -0.1229992E+00  0.9825569E+00  0.4205343E+00  0.0000000E+00  0.0000000E+00
  0.5306122E+00  0.0000000E+00  0.1224490E+00 -0.5402987E-03 -0.1229893E+00  0.9825587E+00  0.4205351E+00  0.0000000E+00  0.0000000E+00
  0.5714286E+00  0.0000000E+00  0.1224490E+00 -0.5284275E-03 -0.1229774E+00  0.9825610E+00  0.4205361E+00  0.0000000E+00  0.0000000E+00
  0.6122449E+00  0.0000000E+00  0.1224490E+00 -0.5146941E-03 -0.1229637E+00  0.9825635E+00  0.4205372E+00  0.0000000E+00  0.0000000E+00
  0.6530612E+00  0.0000000E+00  0.1224490E+00 -0.4992493E-03 -0.1229482E+00  0.9825664E+00  0.4205384E+00  0.0000000E+00  0.0000000E+00
  0.6938776E+00  0.0000000E+00  0.1224490E+00 -0.4823007E-03 -0.1229313E+00  0.9825696E+00  0.4205398E+00  0.0000000E+00  0.0000000E+00
  0.7346939E+00  0.0000000E+00  0.1224490E+00 -0.4640980E-03 -0.1229131E+00  0.9825730E+00  0.4205412E+00  0.0000000E+00  0.0000000E+00
  0.7755102E+00  0.0000000E+00  0.1224490E+00 -0.4449179E-03 -0.1228939E+00  0.9825766E+00  0.4205428E+00  0.0000000E+00  0.0000000E+00
  0.8163265E+00  0.0000000E+00  0.1224490E+00 -0.4250480E-03 -0.1228740E+00  0.9825803E+00  0.4205444E+00  0.0000000E+00  0.0000000E+00
  0.8571429E+00  0.0000000E+00  0.1224490E+00 -0.4047731E-03 -0.1228538E+00  0.9825841E+00  0.4205460E+00  0.0000000E+00  0.0000000E+00
  0.8979592E+00  0.0000000E+00  0.1224490E+00 -0.3843637E-03 -0.1228333E+00  0.9825879E+00  0.4205476E+00  0.0000000E+00  0.0000000E+00
  0.9387755E+00  0.0000000E+00  0.1224490E+00 -0.3640669E-03 -0.1228130E+00  0.9825917E+00  0.4205493E+00  0.0000000E+00  0.0000000E+00
  0.9795918E+00  0.0000000E+00  0.1224490E+00 -0.3441009E-03 -0.1227931E+00  0.9825955E+00  0.4205509E+00  0.0000000E+00  0.0000000E+00
  0.1020408E+01  0.0000000E+00  0.1224490E+00 -0.3246509E-03 -0.1227736E+00  0.9825991E+00  0.4205524E+00  0.0000000E+00  0.0000000E+00
  0.1061224E+01  0.0000000E+00  0.1224490E+00 -0.3058689E-03 -0.1227548E+00  0.9826026E+00  0.4205539E+00  0.0000000E+00  0.0000000E+00
  0.1102041E+01  0.0000000E+00  0.1224490E+00 -0.2878740E-03 -0.1227369E+00  0.9826060E+00  0.4205554E+00  0.0000000E+00  0.0000000E+00
  0.1142857E+01  0.0000000E+00  0.1224490E+00 -0.2707543E-03 -0.1227197E+00  0.9826092E+00  0.4205567E+00  0.0000000E+00  0.0000000E+00
  0.1183673E+01  0.0000000E+00  0.1224490E+00 -0.2545704E-03 -0.1227036E+00  0.9826122E+00  0.4205580E+00  0.0000000E+00  0.0000000E+00
  0.1224490E+01  0.0000000E+00  0.1224490E+00 -0.2393584E-03 -0.1226883E+00  0.9826151E+00  0.4205593E+00  0.0000000E+00  0.0000000E+00
  0.1265306E+01  0.0000000E+00  0.1224490E+00 -0.2251341E-03 -0.1226741E+00  0.9826178E+00  0.4205604E+00  0.0000000E+00  0.0000000E+00
  0.1306122E+01  0.0000000E+00  0.1224490E+00 -0.2118965E-03 -0.1226609E+00  0.9826202E+00  0.4205615E+00  0.0000000E+00  0.0000000E+00
  0.1346939E+01  0.0000000E+00  0.1224490E+00 -0.1996317E-03 -0.1226486E+00  0.9826225E+00  0.4205624E+00  0.0000000E+00  0.0000000E+00
  0.1387755E+01  0.0000000E+00  0.1224490E+00 -0.1883161E-03 -0.1226373E+00  0.9826246E+00  0.4205633E+00  0.0000000E+00  0.0000000E+00
  0.1428571E+01  0.0000000E+00  0.1224490E+00 -0.1779198E-03 -0.1226269E+00  0.9826266E+00  0.4205642E+00  0.0000000E+00  0.0000000E+00
  0.1469388E+01  0.0000000E+00  0.1224490E+00 -0.1684093E-03 -0.1226174E+00  0.9826284E+00  0.4205649E+00  0.0000000E+00  0.0000000E+00
  0.1510204E+01  0.0000000E+00  0.1224490E+00 -0.1597495E-03 -0.1226087E+00  0.9826300E+00  0.4205656E+00  0.0000000E+00  0.0000000E+00
  0.1551020E+01  0.0000000E+00  0.1224490E+00 -0.1519059E-03 -0.1226009E+00  0.9826315E+00  0.4205663E+00  0.0000000E+00  0.0000000E+00
  0.1591837E+01  0.0000000E+00  0.1224490E+00 -0.1448458E-03 -0.1225938E+00  0.9826328E+00  0.4205668E+00  0.0000000E+00  0.0000000E+00
  0.1632653E+01  0.0000000E+00  0.1224490E+00 -0.1385393E-03 -0.1225875E+00  0.9826340E+00  0.4205673E+00  0.0000000E+00  0.0000000E+00
  0.1673469E+01  0.0000000E+00  0.1224490E+00 -0.1329599E-03 -0.1225819E+00  0.9826350E+00  0.4205678E+00  0.0000000E+00  0.0000000E+00
  0.1714286E+01  0.0000000E+00  0.1224490E+00 -0.1280848E-03 -0.1225771E+00  0.9826359E+00  0.4205682E+00  0.0000000E+00  0.0000000E+00
  0.1755102E+01  0.0000000E+00  0.1224490E+00 -0.1238946E-03 -0.1225729E+00  0.9826367E+00  0.4205685E+00  0.0000000E+00  0.0000000E+00
  0.1795918E+01  0.0000000E+00  0.1224490E+00 -0.1203733E-03 -0.1225694E+00  0.9826374E+00  0.4205688E+00  0.0000000E+00  0.0000000E+00
  0.1836735E+01  0.0000000E+00  0.1224490E+00 -0.1175084E-03 -0.1225665E+00  0.9826379E+00  0.4205690E+00  0.0000000E+00  0.0000000E+00
  0.1877551E+01  0.0000000E+00  0.1224490E+00 -0.1152897E-03 -0.1225643E+00  0.9826383E+00  0.4205692E+00  0.0000000E+00  0.0000000E+00
  0.1918367E+01  0.0000000E+00  0.1224490E+00 -0.1137100E-03 -0.1225627E+00  0.9826386E+00  0.4205693E+00  0.0000000E+00  0.0000000E+00
  0.1959184E+01  0.0000000E+00  0.1224490E+00 -0.1127641E-03 -0.1225617E+00  0.9826388E+00  0.4205694E+00  0.0000000E+00  0.0000000E+00
  0.2000000E+01  0.0000000E+00  0.1224490E+00 -0.1124492E-03 -0.1225614E+00  0.9826388E+00  0.4205694E+00  0.0000000E+00  0.0000000E+00
  0.0000000E+00  0.0000000E+00  0.1632653E+00 -0.9156009E-03 -0.1641809E+00  0.9745477E+00  0.4171064E+00  0.0000000E+00  0.0000000E+00
  0.4081633E-01  0.0000000E+00  0.1632653E+00 -0.9159344E-03 -0.1641812E+00  0.9745476E+00  0.4171064E+00  0.0000000E+00  0.0000000E+00
  0.8163265E-01  0.0000000E+00  0.1632653E+00 -0.9168770E-03 -0.1641822E+00  0.9745474E+00  0.4171063E+00  0.0000000E+00  0.0000000E+00
  0.1224490E+00  0.0000000E+00  0.1632653E+00 -0.9182565E-03 -0.1641836E+00  0.9745471E+00  0.4171062E+00  0.0000000E+00  0.0000000E+00
  0.1632653E+00  0.0000000E+00  0.1632653E+00 -0.9197959E-03 -0.1641851E+00  0.9745468E+00  0.4171060E+00  0.0000000E+00  0.0000000E+00
  0.2040816E+00  0.0000000E+00  0.1632653E+00 -0.9211274E-03 -0.1641864E+00  0.9745466E+00  0.4171059E+00  0.0000000E+00  0.0000000E+00
  0.2448980E+00  0.0000000E+00  0.1632653E+00 -0.9218130E-03 -0.1641871E+00  0.9745464E+00  0.4171059E+00  0.0000000E+00  0.0000000E+00
  0.2857143E+00  0.0000000E+00  0.1632653E+00 -0.9213703E-03 -0.1641867E+00  0.9745465E+00  0.4171059E+00  0.0000000E+00  0.0000000E+00
  0.3265306E+00  0.0000000E+00  0.1632653E+00 -0.9193016E-03 -0.1641846E+00  0.9745469E+00  0.4171061E+00  0.0000000E+00  0.0000000E+00
  0.3673469E+00  0.0000000E+00  0.1632653E+00 -0.9151271E-03 -0.1641804E+00  0.9745478E+00  0.4171064E+00  0.0000000E+00  0.0000000E+00
  0.4081633E+00  0.0000000E+00  0.1632653E+00 -0.9084178E-03 -0.1641737E+00  0.9745491E+00  0.4171070E+00  0.0000000E+00  0.0000000E+00
  0.4489796E+00  0.0000000E+00  0.1632653E+00 -0.8988256E-03 -0.1641641E+00  0.9745510E+00  0.4171078E+00  0.0000000E+00  0.0000000E+00
  0.4897959E+00  0.0000000E+00  0.1632653E+00 -0.8861094E-03 -0.1641514E+00  0.9745536E+00  0.4171089E+00  0.0000000E+00  0.0000000E+00
  0.5306122E+00  0.0000000E+00  0.1632653E+00 -0.8701519E-03 -0.1641355E+00  0.9745568E+00  0.4171103E+00  0.0000000E+00  0.0000000E+00
  0.5714286E+00  0.0000000E+00  0.1632653E+00 -0.8509670E-03 -0.1641163E+00  0.9745606E+00  0.4171120E+00  0.0000000E+00  0.0000000E+00
  0.6122449E+00  0.0000000E+00  0.1632653E+00 -0.8286973E-03 -0.1640940E+00  0.9745651E+00  0.4171139E+00  0.0000000E+00  0.0000000E+00
  0.6530612E+00  0.0000000E+00  0.1632653E+00 -0.8036009E-03 -0.1640689E+00  0.9745701E+00  0.4171160E+00  0.0000000E+00  0.0000000E+00
  0.6938776E+00  0.0000000E+00  0.1632653E+00 -0.7760310E-03 -0.1640413E+00  0.9745757E+00  0.4171184E+00  0.0000000E+00  0.0000000E+00
  0.7346939E+00  0.0000000E+00  0.1632653E+00 -0.7464109E-03 -0.1640117E+00  0.9745816E+00  0.4171209E+00  0.0000000E+00  0.0000000E+00