title = "dataset feddes"
variables = "x", "y", "z", "vx", "vy", "vz"
zone t = "velocities, solution time =  1.600E+01 days        " i =   49, j =   49, k =    1,  f=point
  0.2040816E-01  0.0000000E+00  0.2040816E-01  0.1944387E-07  0.0000000E+00  0.3693846E-02
  0.6122449E-01  0.0000000E+00  0.2040816E-01  0.5482695E-07  0.0000000E+00  0.3694006E-02
  0.1020408E+00  0.0000000E+00  0.2040816E-01  0.8043724E-07  0.0000000E+00  0.3694297E-02
  0.1428571E+00  0.0000000E+00  0.2040816E-01  0.9037354E-07  0.0000000E+00  0.3694664E-02
  0.1836735E+00  0.0000000E+00  0.2040816E-01  0.7955418E-07  0.0000000E+00  0.3695029E-02
  0.2244898E+00  0.0000000E+00  0.2040816E-01  0.4409401E-07  0.0000000E+00  0.3695295E-02
  0.2653061E+00  0.0000000E+00  0.2040816E-01 -0.1842814E-07  0.0000000E+00  0.3695350E-02
  0.3061225E+00  0.0000000E+00  0.2040816E-01 -0.1087651E-06  0.0000000E+00  0.3695077E-02
  0.3469388E+00  0.0000000E+00  0.2040816E-01 -0.2258720E-06  0.0000000E+00  0.3694357E-02
  0.3877551E+00  0.0000000E+00  0.2040816E-01 -0.3669220E-06  0.0000000E+00  0.3693082E-02
  0.4285714E+00  0.0000000E+00  0.2040816E-01 -0.5274613E-06  0.0000000E+00  0.3691159E-02
  0.4693878E+00  0.0000000E+00  0.2040816E-01 -0.7016944E-06  0.0000000E+00  0.3688516E-02
  0.5102041E+00  0.0000000E+00  0.2040816E-01 -0.8829089E-06  0.0000000E+00  0.3685108E-02
  0.5510204E+00  0.0000000E+00  0.2040816E-01 -0.1063982E-05  0.0000000E+00  0.3680921E-02
  0.5918368E+00  0.0000000E+00  0.2040816E-01 -0.1237912E-05  0.0000000E+00  0.3675971E-02
  0.6326531E+00  0.0000000E+00  0.2040816E-01 -0.1398318E-05  0.0000000E+00  0.3670302E-02
  0.6734694E+00  0.0000000E+00  0.2040816E-01 -0.1539843E-05  0.0000000E+00  0.3663983E-02
  0.7142857E+00  0.0000000E+00  0.2040816E-01 -0.1658440E-05  0.0000000E+00  0.3657105E-02
  0.7551020E+00  0.0000000E+00  0.2040816E-01 -0.1751497E-05  0.0000000E+00  0.3649772E-02
  0.7959183E+00  0.0000000E+00  0.2040816E-01 -0.1817837E-05  0.0000000E+00  0.3642096E-02
  0.8367347E+00  0.0000000E+00  0.2040816E-01 -0.1857583E-05  0.0000000E+00  0.3634193E-02
  0.8775510E+00  0.0000000E+00  0.2040816E-01 -0.1871963E-05  0.0000000E+00  0.3626172E-02
  0.9183673E+00  0.0000000E+00  0.2040816E-01 -0.1863048E-05  0.0000000E+00  0.3618140E-02
  0.9591837E+00  0.0000000E+00  0.2040816E-01 -0.1833497E-05  0.0000000E+00  0.3610191E-02
  0.1000000E+01  0.0000000E+00  0.2040816E-01 -0.1786298E-05  0.0000000E+00  0.3602407E-02
  0.1040816E+01  0.0000000E+00  0.2040816E-01 -0.1724562E-05  0.0000000E+00  0.3594858E-02
  0.1081633E+01  0.0000000E+00  0.2040816E-01 -0.1651342E-05  0.0000000E+00  0.3587598E-02
  0.1122449E+01  0.0000000E+00  0.2040816E-01 -0.1569507E-05  0.0000000E+00  0.3580672E-02
  0.1163265E+01  0.0000000E+00  0.2040816E-01 -0.1481653E-05  0.0000000E+00  0.3574111E-02
  0.1204082E+01  0.0000000E+00  0.2040816E-01 -0.1390056E-05  0.0000000E+00  0.3567936E-02
  0.1244898E+01  0.0000000E+00  0.2040816E-01 -0.1296647E-05  0.0000000E+00  0.3562158E-02
  0.1285714E+01  0.0000000E+00  0.2040816E-01 -0.1203019E-05  0.0000000E+00  0.3556783E-02
  0.1326531E+01  0.0000000E+00  0.2040816E-01 -0.1110439E-05  0.0000000E+00  0.3551808E-02
  0.1367347E+01  0.0000000E+00  0.2040816E-01 -0.1019880E-05  0.0000000E+00  0.3547228E-02
  0.1408163E+01  0.0000000E+00  0.2040816E-01 -0.9320511E-06  0.0000000E+00  0.3543030E-02
  0.1448980E+01  0.0000000E+00  0.2040816E-01 -0.8474364E-06  0.0000000E+00  0.3539204E-02
  0.1489796E+01  0.0000000E+00  0.2040816E-01 -0.7663259E-06  0.0000000E+00  0.3535734E-02
  0.1530612E+01  0.0000000E+00  0.2040816E-01 -0.6888501E-06  0.0000000E+00  0.3532605E-02
  0.1571429E+01  0.0000000E+00  0.2040816E-01 -0.6150096E-06  0.0000000E+00  0.3529801E-02
  0.1612245E+01  0.0000000E+00  0.2040816E-01 -0.5447012E-06  0.0000000E+00  0.3527307E-02
  0.1653061E+01  0.0000000E+00  0.2040816E-01 -0.4777406E-06  0.0000000E+00  0.3525109E-02
  0.1693878E+01  0.0000000E+00  0.2040816E-01 -0.4138808E-06  0.0000000E+00  0.3523191E-02
  0.1734694E+01  0.0000000E+00  0.2040816E-01 -0.3528283E-06  0.0000000E+00  0.3521543E-02
  0.1775510E+01  0.0000000E+00  0.2040816E-01 -0.2942551E-06  0.0000000E+00  0.3520151E-02
  0.1816326E+01  0.0000000E+00  0.2040816E-01 -0.2378083E-06  0.0000000E+00  0.3519007E-02
  0.1857143E+01  0.0000000E+00  0.2040816E-01 -0.1831180E-06  0.0000000E+00  0.3518102E-02
  0.1897959E+01  0.0000000E+00  0.2040816E-01 -0.1298018E-06  0.0000000E+00  0.3517429E-02
  0.1938776E+01  0.0000000E+00  0.2040816E-01 -0.7746851E-07  0.0000000E+00  0.3516984E-02
  0.1989796E+01  0.0000000E+00  0.2040816E-01 -0.2571646E-07  0.0000000E+00  0.3516762E-02
  0.2040816E-01  0.0000000E+00  0.6122449E-01  0.6740973E-07  0.0000000E+00  0.3693714E-02
  0.6122449E-01  0.0000000E+00  0.6122449E-01  0.1905126E-06  0.0000000E+00  0.3693887E-02
  0.1020408E+00  0.0000000E+00  0.6122449E-01  0.2805338E-06  0.0000000E+00  0.3694203E-02
  0.1428571E+00  0.0000000E+00  0.6122449E-01  0.3175140E-06  0.0000000E+00  0.3694607E-02
  0.1836735E+00  0.0000000E+00  0.6122449E-01  0.2842303E-06  0.0000000E+00  0.3695017E-02
  0.2244898E+00  0.0000000E+00  0.6122449E-01  0.1674887E-06  0.0000000E+00  0.3695335E-02
  0.2653061E+00  0.0000000E+00  0.6122449E-01 -0.4096098E-07  0.0000000E+00  0.3695445E-02
  0.3061225E+00  0.0000000E+00  0.6122449E-01 -0.3437177E-06  0.0000000E+00  0.3695226E-02
  0.3469388E+00  0.0000000E+00  0.6122449E-01 -0.7372903E-06  0.0000000E+00  0.3694557E-02
  0.3877551E+00  0.0000000E+00  0.6122449E-01 -0.1212113E-05  0.0000000E+00  0.3693326E-02
  0.4285714E+00  0.0000000E+00  0.6122449E-01 -0.1753077E-05  0.0000000E+00  0.3691436E-02
  0.4693878E+00  0.0000000E+00  0.6122449E-01 -0.2340499E-05  0.0000000E+00  0.3688813E-02
  0.5102041E+00  0.0000000E+00  0.6122449E-01 -0.2951565E-05  0.0000000E+00  0.3685412E-02
  0.5510204E+00  0.0000000E+00  0.6122449E-01 -0.3562068E-05  0.0000000E+00  0.3681218E-02
  0.5918368E+00  0.0000000E+00  0.6122449E-01 -0.4148233E-05  0.0000000E+00  0.3676247E-02
  0.6326531E+00  0.0000000E+00  0.6122449E-01 -0.4688423E-05  0.0000000E+00  0.3670545E-02
  0.6734694E+00  0.0000000E+00  0.6122449E-01 -0.5164532E-05  0.0000000E+00  0.3664184E-02
  0.7142857E+00  0.0000000E+00  0.6122449E-01 -0.5562924E-05  0.0000000E+00  0.3657258E-02
  0.7551020E+00  0.0000000E+00  0.6122449E-01 -0.5874881E-05  0.0000000E+00  0.3649872E-02
  0.7959183E+00  0.0000000E+00  0.6122449E-01 -0.6096551E-05  0.0000000E+00  0.3642143E-02
  0.8367347E+00  0.0000000E+00  0.6122449E-01 -0.6228508E-05  0.0000000E+00  0.3634187E-02
  0.8775510E+00  0.0000000E+00  0.6122449E-01 -0.6275038E-05  0.0000000E+00  0.3626118E-02
  0.9183673E+00  0.0000000E+00  0.6122449E-01 -0.6243266E-05  0.0000000E+00  0.3618042E-02
  0.9591837E+00  0.0000000E+00  0.6122449E-01 -0.6142258E-05  0.0000000E+00  0.3610054E-02
  0.1000000E+01  0.0000000E+00  0.6122449E-01 -0.5982170E-05  0.0000000E+00  0.3602238E-02
  0.1040816E+01  0.0000000E+00  0.6122449E-01 -0.5773526E-05  0.0000000E+00  0.3594662E-02
  0.1081633E+01  0.0000000E+00  0.6122449E-01 -0.5526630E-05  0.0000000E+00  0.3587382E-02
  0.1122449E+01  0.0000000E+00  0.6122449E-01 -0.5251136E-05  0.0000000E+00  0.3580441E-02
  0.1163265E+01  0.0000000E+00  0.6122449E-01 -0.4955763E-05  0.0000000E+00  0.3573870E-02
  0.1204082E+01  0.0000000E+00  0.6122449E-01 -0.4648129E-05  0.0000000E+00  0.3567690E-02
  0.1244898E+01  0.0000000E+00  0.6122449E-01 -0.4334693E-05  0.0000000E+00  0.3561910E-02
  0.1285714E+01  0.0000000E+00  0.6122449E-01 -0.4020763E-05  0.0000000E+00  0.3556536E-02
  0.1326531E+01  0.0000000E+00  0.6122449E-01 -0.3710556E-05  0.0000000E+00  0.3551564E-02
  0.1367347E+01  0.0000000E+00  0.6122449E-01 -0.3407300E-05  0.0000000E+00  0.3546988E-02
  0.1408163E+01  0.0000000E+00  0.6122449E-01 -0.3113341E-05  0.0000000E+00  0.3542796E-02
  0.1448980E+01  0.0000000E+00  0.6122449E-01 -0.2830269E-05  0.0000000E+00  0.3538976E-02
  0.1489796E+01  0.0000000E+00  0.6122449E-01 -0.2559030E-05  0.0000000E+00  0.3535513E-02
  0.1530612E+01  0.0000000E+00  0.6122449E-01 -0.2300037E-05  0.0000000E+00  0.3532391E-02
  0.1571429E+01  0.0000000E+00  0.6122449E-01 -0.2053274E-05  0.0000000E+00  0.3529595E-02
  0.1612245E+01  0.0000000E+00  0.6122449E-01 -0.1818379E-05  0.0000000E+00  0.3527108E-02
  0.1653061E+01  0.0000000E+00  0.6122449E-01 -0.1594721E-05  0.0000000E+00  0.3524916E-02
  0.1693878E+01  0.0000000E+00  0.6122449E-01 -0.1381464E-05  0.0000000E+00  0.3523004E-02
  0.1734694E+01  0.0000000E+00  0.6122449E-01 -0.1177617E-05  0.0000000E+00  0.3521361E-02
  0.1775510E+01  0.0000000E+00  0.6122449E-01 -0.9820765E-06  0.0000000E+00  0.3519974E-02
  0.1816326E+01  0.0000000E+00  0.6122449E-01 -0.7936574E-06  0.0000000E+00  0.3518834E-02
  0.1857143E+01  0.0000000E+00  0.6122449E-01 -0.6111189E-06  0.0000000E+00  0.3517932E-02
  0.1897959E+01  0.0000000E+00  0.6122449E-01 -0.4331811E-06  0.0000000E+00  0.3517261E-02
  0.1938776E+01  0.0000000E+00  0.6122449E-01 -0.2585364E-06  0.0000000E+00  0.3516817E-02
  0.1989796E+01  0.0000000E+00  0.6122449E-01 -0.8585170E-07  0.0000000E+00  0.3516596E-02
  0.2040816E-01  0.0000000E+00  0.1020408E+00  0.1276476E-06  0.0000000E+00  0.3693300E-02
  0.6122449E-01  0.0000000E+00  0.1020408E+00  0.3620640E-06  0.0000000E+00  0.3693504E-02
  0.1020408E+00  0.0000000E+00  0.1020408E+00  0.5367354E-06  0.0000000E+00  0.3693881E-02
  0.1428571E+00  0.0000000E+00  0.1020408E+00  0.6155761E-06  0.0000000E+00  0.3694371E-02
  0.1836735E+00  0.0000000E+00  0.1020408E+00  0.5673741E-06  0.0000000E+00  0.3694891E-02
  0.2244898E+00  0.0000000E+00  0.1020408E+00  0.3681140E-06  0.0000000E+00  0.3695332E-02
  0.2653061E+00  0.0000000E+00  0.1020408E+00  0.2667609E-08  0.0000000E+00  0.3695573E-02
  0.3061225E+00  0.0000000E+00  0.1020408E+00 -0.5338572E-06  0.0000000E+00  0.3695484E-02
  0.3469388E+00  0.0000000E+00  0.1020408E+00 -0.1235314E-05  0.0000000E+00  0.3694937E-02
  0.3877551E+00  0.0000000E+00  0.1020408E+00 -0.2084436E-05  0.0000000E+00  0.3693809E-02
  0.4285714E+00  0.0000000E+00  0.1020408E+00 -0.3053782E-05  0.0000000E+00  0.3691998E-02
  0.4693878E+00  0.0000000E+00  0.1020408E+00 -0.4107516E-05  0.0000000E+00  0.3689424E-02
  0.5102041E+00  0.0000000E+00  0.1020408E+00 -0.5204044E-05  0.0000000E+00  0.3686039E-02
  0.5510204E+00  0.0000000E+00  0.1020408E+00 -0.6299240E-05  0.0000000E+00  0.3681827E-02
  0.5918368E+00  0.0000000E+00  0.1020408E+00 -0.7349829E-05  0.0000000E+00  0.3676806E-02
  0.6326531E+00  0.0000000E+00  0.1020408E+00 -0.8316561E-05  0.0000000E+00  0.3671026E-02
  0.6734694E+00  0.0000000E+00  0.1020408E+00 -0.9166765E-05  0.0000000E+00  0.3664565E-02
  0.7142857E+00  0.0000000E+00  0.1020408E+00 -0.9876054E-05  0.0000000E+00  0.3657522E-02
  0.7551020E+00  0.0000000E+00  0.1020408E+00 -0.1042909E-04  0.0000000E+00  0.3650012E-02
  0.7959183E+00  0.0000000E+00  0.1020408E+00 -0.1081943E-04  0.0000000E+00  0.3642155E-02
  0.8367347E+00  0.0000000E+00  0.1020408E+00 -0.1104867E-04  0.0000000E+00  0.3634075E-02
  0.8775510E+00  0.0000000E+00  0.1020408E+00 -0.1112504E-04  0.0000000E+00  0.3625890E-02
  0.9183673E+00  0.0000000E+00  0.1020408E+00 -0.1106182E-04  0.0000000E+00  0.3617710E-02
  0.9591837E+00  0.0000000E+00  0.1020408E+00 -0.1087567E-04  0.0000000E+00  0.3609631E-02
  0.1000000E+01  0.0000000E+00  0.1020408E+00 -0.1058508E-04  0.0000000E+00  0.3601739E-02
  0.1040816E+01  0.0000000E+00  0.1020408E+00 -0.1020906E-04  0.0000000E+00  0.3594101E-02
  0.1081633E+01  0.0000000E+00  0.1020408E+00 -0.9766109E-05  0.0000000E+00  0.3586774E-02
  0.1122449E+01  0.0000000E+00  0.1020408E+00 -0.9273488E-05  0.0000000E+00  0.3579799E-02
  0.1163265E+01  0.0000000E+00  0.1020408E+00 -0.8746691E-05  0.0000000E+00  0.3573205E-02
  0.1204082E+01  0.0000000E+00  0.1020408E+00 -0.8199204E-05  0.0000000E+00  0.3567011E-02
  0.1244898E+01  0.0000000E+00  0.1020408E+00 -0.7642403E-05  0.0000000E+00  0.3561226E-02
  0.1285714E+01  0.0000000E+00  0.1020408E+00 -0.7085594E-05  0.0000000E+00  0.3555854E-02
  0.1326531E+01  0.0000000E+00  0.1020408E+00 -0.6536138E-05  0.0000000E+00  0.3550889E-02
  0.1367347E+01  0.0000000E+00  0.1020408E+00 -0.5999634E-05  0.0000000E+00  0.3546324E-02
  0.1408163E+01  0.0000000E+00  0.1020408E+00 -0.5480126E-05  0.0000000E+00  0.3542146E-02
  0.1448980E+01  0.0000000E+00  0.1020408E+00 -0.4980320E-05  0.0000000E+00  0.3538342E-02
  0.1489796E+01  0.0000000E+00  0.1020408E+00 -0.4501798E-05  0.0000000E+00  0.3534896E-02
  0.1530612E+01  0.0000000E+00  0.1020408E+00 -0.4045210E-05  0.0000000E+00  0.3531791E-02
  0.1571429E+01  0.0000000E+00  0.1020408E+00 -0.3610456E-05  0.0000000E+00  0.3529011E-02
  0.1612245E+01  0.0000000E+00  0.1020408E+00 -0.3196840E-05  0.0000000E+00  0.3526540E-02
  0.1653061E+01  0.0000000E+00  0.1020408E+00 -0.2803199E-05  0.0000000E+00  0.3524363E-02
  0.1693878E+01  0.0000000E+00  0.1020408E+00 -0.2428017E-05  0.0000000E+00  0.3522465E-02
  0.1734694E+01  0.0000000E+00  0.1020408E+00 -0.2069515E-05  0.0000000E+00  0.3520834E-02
  0.1775510E+01  0.0000000E+00  0.1020408E+00 -0.1725722E-05  0.0000000E+00  0.3519458E-02
  0.1816326E+01  0.0000000E+00  0.1020408E+00 -0.1394529E-05  0.0000000E+00  0.3518326E-02
  0.1857143E+01  0.0000000E+00  0.1020408E+00 -0.1073735E-05  0.0000000E+00  0.3517432E-02
  0.1897959E+01  0.0000000E+00  0.1020408E+00 -0.7610752E-06  0.0000000E+00  0.3516767E-02
  0.1938776E+01  0.0000000E+00  0.1020408E+00 -0.4542412E-06  0.0000000E+00  0.3516326E-02
  0.1989796E+01  0.0000000E+00  0.1020408E+00 -0.1508951E-06  0.0000000E+00  0.3516107E-02
  0.2040816E-01  0.0000000E+00  0.1428571E+00  0.1976883E-06  0.0000000E+00  0.3692496E-02
  0.6122449E-01  0.0000000E+00  0.1428571E+00  0.5632326E-06  0.0000000E+00  0.3692749E-02
  0.1020408E+00  0.0000000E+00  0.1428571E+00  0.8425486E-06  0.0000000E+00  0.3693220E-02
  0.1428571E+00  0.0000000E+00  0.1428571E+00  0.9833760E-06  0.0000000E+00  0.3693847E-02
  0.1836735E+00  0.0000000E+00  0.1428571E+00  0.9403670E-06  0.0000000E+00  0.3694536E-02
  0.2244898E+00  0.0000000E+00  0.1428571E+00  0.6783791E-06  0.0000000E+00  0.3695171E-02
  0.2653061E+00  0.0000000E+00  0.1428571E+00  0.1750007E-06  0.0000000E+00  0.3695618E-02
  0.3061225E+00  0.0000000E+00  0.1428571E+00 -0.5773457E-06  0.0000000E+00  0.3695735E-02
  0.3469388E+00  0.0000000E+00  0.1428571E+00 -0.1570147E-05  0.0000000E+00  0.3695378E-02
  0.3877551E+00  0.0000000E+00  0.1428571E+00 -0.2778513E-05  0.0000000E+00  0.3694414E-02
  0.4285714E+00  0.0000000E+00  0.1428571E+00 -0.4162447E-05  0.0000000E+00  0.3692728E-02
  0.4693878E+00  0.0000000E+00  0.1428571E+00 -0.5669477E-05  0.0000000E+00  0.3690232E-02
  0.5102041E+00  0.0000000E+00  0.1428571E+00 -0.7238565E-05  0.0000000E+00  0.3686871E-02
  0.5510204E+00  0.0000000E+00  0.1428571E+00 -0.8804958E-05  0.0000000E+00  0.3682630E-02
  0.5918368E+00  0.0000000E+00  0.1428571E+00 -0.1030532E-04  0.0000000E+00  0.3677529E-02
  0.6326531E+00  0.0000000E+00  0.1428571E+00 -0.1168250E-04  0.0000000E+00  0.3671625E-02
  0.6734694E+00  0.0000000E+00  0.1428571E+00 -0.1288937E-04  0.0000000E+00  0.3665005E-02
  0.7142857E+00  0.0000000E+00  0.1428571E+00 -0.1389123E-04  0.0000000E+00  0.3657779E-02
  0.7551020E+00  0.0000000E+00  0.1428571E+00 -0.1466689E-04  0.0000000E+00  0.3650073E-02
  0.7959183E+00  0.0000000E+00  0.1428571E+00 -0.1520825E-04  0.0000000E+00  0.3642018E-02
  0.8367347E+00  0.0000000E+00  0.1428571E+00 -0.1551888E-04  0.0000000E+00  0.3633745E-02
  0.8775510E+00  0.0000000E+00  0.1428571E+00 -0.1561186E-04  0.0000000E+00  0.3625381E-02
  0.9183673E+00  0.0000000E+00  0.1428571E+00 -0.1550730E-04  0.0000000E+00  0.3617041E-02
  0.9591837E+00  0.0000000E+00  0.1428571E+00 -0.1522991E-04  0.0000000E+00  0.3608823E-02
  0.1000000E+01  0.0000000E+00  0.1428571E+00 -0.1480672E-04  0.0000000E+00  0.3600815E-02
  0.1040816E+01  0.0000000E+00  0.1428571E+00 -0.1426521E-04  0.0000000E+00  0.3593084E-02
  0.1081633E+01  0.0000000E+00  0.1428571E+00 -0.1363188E-04  0.0000000E+00  0.3585686E-02
  0.1122449E+01  0.0000000E+00  0.1428571E+00 -0.1293121E-04  0.0000000E+00  0.3578659E-02
  0.1163265E+01  0.0000000E+00  0.1428571E+00 -0.1218502E-04  0.0000000E+00  0.3572031E-02
  0.1204082E+01  0.0000000E+00  0.1428571E+00 -0.1141217E-04  0.0000000E+00  0.3565818E-02
  0.1244898E+01  0.0000000E+00  0.1428571E+00 -0.1062845E-04  0.0000000E+00  0.3560027E-02
  0.1285714E+01  0.0000000E+00  0.1428571E+00 -0.9846661E-05  0.0000000E+00  0.3554659E-02
  0.1326531E+01  0.0000000E+00  0.1428571E+00 -0.9076876E-05  0.0000000E+00  0.3549706E-02
  0.1367347E+01  0.0000000E+00  0.1428571E+00 -0.8326668E-05  0.0000000E+00  0.3545158E-02
  0.1408163E+01  0.0000000E+00  0.1428571E+00 -0.7601443E-05  0.0000000E+00  0.3541002E-02
  0.1448980E+01  0.0000000E+00  0.1428571E+00 -0.6904753E-05  0.0000000E+00  0.3537222E-02
  0.1489796E+01  0.0000000E+00  0.1428571E+00 -0.6238599E-05  0.0000000E+00  0.3533801E-02
  0.1530612E+01  0.0000000E+00  0.1428571E+00 -0.5603709E-05  0.0000000E+00  0.3530722E-02
  0.1571429E+01  0.0000000E+00  0.1428571E+00 -0.4999787E-05  0.0000000E+00  0.3527967E-02
  0.1612245E+01  0.0000000E+00  0.1428571E+00 -0.4425731E-05  0.0000000E+00  0.3525521E-02
  0.1653061E+01  0.0000000E+00  0.1428571E+00 -0.3879813E-05  0.0000000E+00  0.3523366E-02
  0.1693878E+01  0.0000000E+00  0.1428571E+00 -0.3359834E-05  0.0000000E+00  0.3521489E-02
  0.1734694E+01  0.0000000E+00  0.1428571E+00 -0.2863249E-05  0.0000000E+00  0.3519877E-02
  0.1775510E+01  0.0000000E+00  0.1428571E+00 -0.2387258E-05  0.0000000E+00  0.3518517E-02
  0.1816326E+01  0.0000000E+00  0.1428571E+00 -0.1928887E-05  0.0000000E+00  0.3517399E-02
  0.1857143E+01  0.0000000E+00  0.1428571E+00 -0.1485044E-05  0.0000000E+00  0.3516515E-02
  0.1897959E+01  0.0000000E+00  0.1428571E+00 -0.1052559E-05  0.0000000E+00  0.3515859E-02
  0.1938776E+01  0.0000000E+00  0.1428571E+00 -0.6282099E-06  0.0000000E+00  0.3515424E-02
  0.1989796E+01  0.0000000E+00  0.1428571E+00 -0.2087448E-06  0.0000000E+00  0.3515207E-02
  0.2040816E-01  0.0000000E+00  0.1836735E+00  0.2841481E-06  0.0000000E+00  0.3691182E-02
  0.6122449E-01  0.0000000E+00  0.1836735E+00  0.8133689E-06  0.0000000E+00  0.3691501E-02
  0.1020408E+00  0.0000000E+00  0.1836735E+00  0.1228861E-05  0.0000000E+00  0.3692103E-02
  0.1428571E+00  0.0000000E+00  0.1836735E+00  0.1461343E-05  0.0000000E+00  0.3692916E-02
  0.1836735E+00  0.0000000E+00  0.1836735E+00  0.1450395E-05  0.0000000E+00  0.3693838E-02
  0.2244898E+00  0.0000000E+00  0.1836735E+00  0.1148717E-05  0.0000000E+00  0.3694740E-02
  0.2653061E+00  0.0000000E+00  0.1836735E+00  0.5256140E-06  0.0000000E+00  0.3695471E-02
  0.3061225E+00  0.0000000E+00  0.1836735E+00 -0.4299667E-06  0.0000000E+00  0.3695872E-02
  0.3469388E+00  0.0000000E+00  0.1836735E+00 -0.1707490E-05  0.0000000E+00  0.3695779E-02
  0.3877551E+00  0.0000000E+00  0.1836735E+00 -0.3274219E-05  0.0000000E+00  0.3695042E-02
  0.4285714E+00  0.0000000E+00  0.1836735E+00 -0.5076660E-05  0.0000000E+00  0.3693528E-02
  0.4693878E+00  0.0000000E+00  0.1836735E+00 -0.7044114E-05  0.0000000E+00  0.3691138E-02
  0.5102041E+00  0.0000000E+00  0.1836735E+00 -0.9094065E-05  0.0000000E+00  0.3687811E-02
  0.5510204E+00  0.0000000E+00  0.1836735E+00 -0.1113897E-04  0.0000000E+00  0.3683527E-02
  0.5918368E+00  0.0000000E+00  0.1836735E+00 -0.1309350E-04  0.0000000E+00  0.3678314E-02
  0.6326531E+00  0.0000000E+00  0.1836735E+00 -0.1488124E-04  0.0000000E+00  0.3672237E-02
  0.6734694E+00  0.0000000E+00  0.1836735E+00 -0.1643992E-04  0.0000000E+00  0.3665398E-02
  0.7142857E+00  0.0000000E+00  0.1836735E+00 -0.1772474E-04  0.0000000E+00  0.3657920E-02
  0.7551020E+00  0.0000000E+00  0.1836735E+00 -0.1870943E-04  0.0000000E+00  0.3649945E-02
  0.7959183E+00  0.0000000E+00  0.1836735E+00 -0.1938552E-04  0.0000000E+00  0.3641619E-02
  0.8367347E+00  0.0000000E+00  0.1836735E+00 -0.1976007E-04  0.0000000E+00  0.3633086E-02
  0.8775510E+00  0.0000000E+00  0.1836735E+00 -0.1985247E-04  0.0000000E+00  0.3624482E-02
  0.9183673E+00  0.0000000E+00  0.1836735E+00 -0.1969102E-04  0.0000000E+00  0.3615927E-02
  0.9591837E+00  0.0000000E+00  0.1836735E+00 -0.1930949E-04  0.0000000E+00  0.3607525E-02
  0.1000000E+01  0.0000000E+00  0.1836735E+00 -0.1874415E-04  0.0000000E+00  0.3599364E-02
  0.1040816E+01  0.0000000E+00  0.1836735E+00 -0.1803130E-04  0.0000000E+00  0.3591512E-02
  0.1081633E+01  0.0000000E+00  0.1836735E+00 -0.1720553E-04  0.0000000E+00  0.3584022E-02
  0.1122449E+01  0.0000000E+00  0.1836735E+00 -0.1629839E-04  0.0000000E+00  0.3576930E-02
  0.1163265E+01  0.0000000E+00  0.1836735E+00 -0.1533773E-04  0.0000000E+00  0.3570260E-02
  0.1204082E+01  0.0000000E+00  0.1836735E+00 -0.1434735E-04  0.0000000E+00  0.3564025E-02
  0.1244898E+01  0.0000000E+00  0.1836735E+00 -0.1334698E-04  0.0000000E+00  0.3558228E-02
  0.1285714E+01  0.0000000E+00  0.1836735E+00 -0.1235247E-04  0.0000000E+00  0.3552866E-02
  0.1326531E+01  0.0000000E+00  0.1836735E+00 -0.1137611E-04  0.0000000E+00  0.3547930E-02
  0.1367347E+01  0.0000000E+00  0.1836735E+00 -0.1042705E-04  0.0000000E+00  0.3543407E-02
  0.1408163E+01  0.0000000E+00  0.1836735E+00 -0.9511680E-05  0.0000000E+00  0.3539280E-02
  0.1448980E+01  0.0000000E+00  0.1836735E+00 -0.8634095E-05  0.0000000E+00  0.3535533E-02
  0.1489796E+01  0.0000000E+00  0.1836735E+00 -0.7796460E-05  0.0000000E+00  0.3532146E-02
  0.1530612E+01  0.0000000E+00  0.1836735E+00 -0.6999379E-05  0.0000000E+00  0.3529102E-02
  0.1571429E+01  0.0000000E+00  0.1836735E+00 -0.6242211E-05  0.0000000E+00  0.3526381E-02
  0.1612245E+01  0.0000000E+00  0.1836735E+00 -0.5523343E-05  0.0000000E+00  0.3523966E-02
  0.1653061E+01  0.0000000E+00  0.1836735E+00 -0.4840415E-05  0.0000000E+00  0.3521842E-02
  0.1693878E+01  0.0000000E+00  0.1836735E+00 -0.4190511E-05  0.0000000E+00  0.3519992E-02
  0.1734694E+01  0.0000000E+00  0.1836735E+00 -0.3570310E-05  0.0000000E+00  0.3518404E-02
  0.1775510E+01  0.0000000E+00  0.1836735E+00 -0.2976202E-05  0.0000000E+00  0.3517066E-02
  0.1816326E+01  0.0000000E+00  0.1836735E+00 -0.2404381E-05  0.0000000E+00  0.3515966E-02
  0.1857143E+01  0.0000000E+00  0.1836735E+00 -0.1850911E-05  0.0000000E+00  0.3515097E-02
  0.1897959E+01  0.0000000E+00  0.1836735E+00 -0.1311774E-05  0.0000000E+00  0.3514451E-02
  0.1938776E+01  0.0000000E+00  0.1836735E+00 -0.7829007E-06  0.0000000E+00  0.3514023E-02
  0.1989796E+01  0.0000000E+00  0.1836735E+00 -0.2601907E-06  0.0000000E+00  0.3513810E-02
  0.2040816E-01  0.0000000E+00  0.2244898E+00  0.3933923E-06  0.0000000E+00  0.3689225E-02
  0.6122449E-01  0.0000000E+00  0.2244898E+00  0.1131214E-05  0.0000000E+00  0.3689629E-02
  0.1020408E+00  0.0000000E+00  0.2244898E+00  0.1725774E-05  0.0000000E+00  0.3690398E-02
  0.1428571E+00  0.0000000E+00  0.2244898E+00  0.2089224E-05  0.0000000E+00  0.3691451E-02
  0.1836735E+00  0.0000000E+00  0.2244898E+00  0.2144373E-05  0.0000000E+00  0.3692675E-02
  0.2244898E+00  0.0000000E+00  0.2244898E+00  0.1829977E-05  0.0000000E+00  0.3693922E-02
  0.2653061E+00  0.0000000E+00  0.2244898E+00  0.1105360E-05  0.0000000E+00  0.3695023E-02
  0.3061225E+00  0.0000000E+00  0.2244898E+00 -0.4532542E-07  0.0000000E+00  0.3695794E-02
  0.3469388E+00  0.0000000E+00  0.2244898E+00 -0.1610081E-05  0.0000000E+00  0.3696047E-02
  0.3877551E+00  0.0000000E+00  0.2244898E+00 -0.3547889E-05  0.0000000E+00  0.3695607E-02
  0.4285714E+00  0.0000000E+00  0.2244898E+00 -0.5790127E-05  0.0000000E+00  0.3694319E-02
  0.4693878E+00  0.0000000E+00  0.2244898E+00 -0.8245100E-05  0.0000000E+00  0.3692068E-02
  0.5102041E+00  0.0000000E+00  0.2244898E+00 -0.1080526E-04  0.0000000E+00  0.3688781E-02
  0.5510204E+00  0.0000000E+00  0.2244898E+00 -0.1335648E-04  0.0000000E+00  0.3684441E-02
  0.5918368E+00  0.0000000E+00  0.2244898E+00 -0.1578800E-04  0.0000000E+00  0.3679078E-02
  0.6326531E+00  0.0000000E+00  0.2244898E+00 -0.1800156E-04  0.0000000E+00  0.3672773E-02
  0.6734694E+00  0.0000000E+00  0.2244898E+00 -0.1991850E-04  0.0000000E+00  0.3665645E-02
  0.7142857E+00  0.0000000E+00  0.2244898E+00 -0.2148378E-04  0.0000000E+00  0.3657839E-02
  0.7551020E+00  0.0000000E+00  0.2244898E+00 -0.2266715E-04  0.0000000E+00  0.3649517E-02
  0.7959183E+00  0.0000000E+00  0.2244898E+00 -0.2346158E-04  0.0000000E+00  0.3640845E-02
  0.8367347E+00  0.0000000E+00  0.2244898E+00 -0.2387975E-04  0.0000000E+00  0.3631982E-02
  0.8775510E+00  0.0000000E+00  0.2244898E+00 -0.2394963E-04  0.0000000E+00  0.3623075E-02
  0.9183673E+00  0.0000000E+00  0.2244898E+00 -0.2370964E-04  0.0000000E+00  0.3614253E-02
  0.9591837E+00  0.0000000E+00  0.2244898E+00 -0.2320423E-04  0.0000000E+00  0.3605625E-02
  0.1000000E+01  0.0000000E+00  0.2244898E+00 -0.2248004E-04  0.0000000E+00  0.3597278E-02
  0.1040816E+01  0.0000000E+00  0.2244898E+00 -0.2158289E-04  0.0000000E+00  0.3589280E-02
  0.1081633E+01  0.0000000E+00  0.2244898E+00 -0.2055574E-04  0.0000000E+00  0.3581681E-02
  0.1122449E+01  0.0000000E+00  0.2244898E+00 -0.1943721E-04  0.0000000E+00  0.3574513E-02
  0.1163265E+01  0.0000000E+00  0.2244898E+00 -0.1826093E-04  0.0000000E+00  0.3567795E-02
  0.1204082E+01  0.0000000E+00  0.2244898E+00 -0.1705527E-04  0.0000000E+00  0.3561537E-02
  0.1244898E+01  0.0000000E+00  0.2244898E+00 -0.1584342E-04  0.0000000E+00  0.3555737E-02
  0.1285714E+01  0.0000000E+00  0.2244898E+00 -0.1464376E-04  0.0000000E+00  0.3550387E-02
  0.1326531E+01  0.0000000E+00  0.2244898E+00 -0.1347036E-04  0.0000000E+00  0.3545475E-02
  0.1367347E+01  0.0000000E+00  0.2244898E+00 -0.1233345E-04  0.0000000E+00  0.3540984E-02
  0.1408163E+01  0.0000000E+00  0.2244898E+00 -0.1124003E-04  0.0000000E+00  0.3536895E-02
  0.1448980E+01  0.0000000E+00  0.2244898E+00 -0.1019437E-04  0.0000000E+00  0.3533189E-02
  0.1489796E+01  0.0000000E+00  0.2244898E+00 -0.9198516E-05  0.0000000E+00  0.3529845E-02
  0.1530612E+01  0.0000000E+00  0.2244898E+00 -0.8252718E-05  0.0000000E+00  0.3526844E-02
  0.1571429E+01  0.0000000E+00  0.2244898E+00 -0.7355809E-05  0.0000000E+00  0.3524165E-02
  0.1612245E+01  0.0000000E+00  0.2244898E+00 -0.6505528E-05  0.0000000E+00  0.3521790E-02
  0.1653061E+01  0.0000000E+00  0.2244898E+00 -0.5698792E-05  0.0000000E+00  0.3519702E-02
  0.1693878E+01  0.0000000E+00  0.2244898E+00 -0.4931908E-05  0.0000000E+00  0.3517887E-02
  0.1734694E+01  0.0000000E+00  0.2244898E+00 -0.4200754E-05  0.0000000E+00  0.3516328E-02
  0.1775510E+01  0.0000000E+00  0.2244898E+00 -0.3500904E-05  0.0000000E+00  0.3515015E-02
  0.1816326E+01  0.0000000E+00  0.2244898E+00 -0.2827734E-05  0.0000000E+00  0.3513937E-02
  0.1857143E+01  0.0000000E+00  0.2244898E+00 -0.2176497E-05  0.0000000E+00  0.3513086E-02
  0.1897959E+01  0.0000000E+00  0.2244898E+00 -0.1542370E-05  0.0000000E+00  0.3512453E-02
  0.1938776E+01  0.0000000E+00  0.2244898E+00 -0.9204841E-06  0.0000000E+00  0.3512034E-02
  0.1989796E+01  0.0000000E+00  0.2244898E+00 -0.3059472E-06  0.0000000E+00  0.3511825E-02
  0.2040816E-01  0.0000000E+00  0.2653061E+00  0.5318765E-06  0.0000000E+00  0.3686475E-02
  0.6122449E-01  0.0000000E+00  0.2653061E+00  0.1535876E-05  0.0000000E+00  0.3686985E-02
  0.1020408E+00  0.0000000E+00  0.2653061E+00  0.2364255E-05  0.0000000E+00  0.3687962E-02
  0.1428571E+00  0.0000000E+00  0.2653061E+00  0.2908431E-05  0.0000000E+00  0.3689315E-02
  0.1836735E+00  0.0000000E+00  0.2653061E+00  0.3071997E-05  0.0000000E+00  0.3690915E-02
  0.2244898E+00  0.0000000E+00  0.2653061E+00  0.2777118E-05  0.0000000E+00  0.3692596E-02
  0.2653061E+00  0.0000000E+00  0.2653061E+00  0.1970566E-05  0.0000000E+00  0.3694164E-02
  0.3061225E+00  0.0000000E+00  0.2653061E+00  0.6296201E-06  0.0000000E+00  0.3695404E-02
  0.3469388E+00  0.0000000E+00  0.2653061E+00 -0.1233290E-05  0.0000000E+00  0.3696098E-02
  0.3877551E+00  0.0000000E+00  0.2653061E+00 -0.3568363E-05  0.0000000E+00  0.3696036E-02
  0.4285714E+00  0.0000000E+00  0.2653061E+00 -0.6289526E-05  0.0000000E+00  0.3695037E-02
  0.4693878E+00  0.0000000E+00  0.2653061E+00 -0.9279979E-05  0.0000000E+00  0.3692961E-02
  0.5102041E+00  0.0000000E+00  0.2653061E+00 -0.1240177E-04  0.0000000E+00  0.3689725E-02
  0.5510204E+00  0.0000000E+00  0.2653061E+00 -0.1550834E-04  0.0000000E+00  0.3685307E-02
  0.5918368E+00  0.0000000E+00  0.2653061E+00 -0.1845824E-04  0.0000000E+00  0.3679750E-02
  0.6326531E+00  0.0000000E+00  0.2653061E+00 -0.2112755E-04  0.0000000E+00  0.3673151E-02
  0.6734694E+00  0.0000000E+00  0.2653061E+00 -0.2341913E-04  0.0000000E+00  0.3665655E-02
  0.7142857E+00  0.0000000E+00  0.2653061E+00 -0.2526773E-04  0.0000000E+00  0.3657434E-02
  0.7551020E+00  0.0000000E+00  0.2653061E+00 -0.2664062E-04  0.0000000E+00  0.3648679E-02
  0.7959183E+00  0.0000000E+00  0.2653061E+00 -0.2753479E-04  0.0000000E+00  0.3639577E-02
  0.8367347E+00  0.0000000E+00  0.2653061E+00 -0.2797169E-04  0.0000000E+00  0.3630310E-02
  0.8775510E+00  0.0000000E+00  0.2653061E+00 -0.2799092E-04  0.0000000E+00  0.3621037E-02
  0.9183673E+00  0.0000000E+00  0.2653061E+00 -0.2764377E-04  0.0000000E+00  0.3611895E-02
  0.9591837E+00  0.0000000E+00  0.2653061E+00 -0.2698752E-04  0.0000000E+00  0.3602999E-02
  0.1000000E+01  0.0000000E+00  0.2653061E+00 -0.2608069E-04  0.0000000E+00  0.3594436E-02
  0.1040816E+01  0.0000000E+00  0.2653061E+00 -0.2497961E-04  0.0000000E+00  0.3586271E-02
  0.1081633E+01  0.0000000E+00  0.2653061E+00 -0.2373599E-04  0.0000000E+00  0.3578550E-02
  0.1122449E+01  0.0000000E+00  0.2653061E+00 -0.2239558E-04  0.0000000E+00  0.3571299E-02
  0.1163265E+01  0.0000000E+00  0.2653061E+00 -0.2099754E-04  0.0000000E+00  0.3564533E-02
  0.1204082E+01  0.0000000E+00  0.2653061E+00 -0.1957437E-04  0.0000000E+00  0.3558254E-02
  0.1244898E+01  0.0000000E+00  0.2653061E+00 -0.1815222E-04  0.0000000E+00  0.3552455E-02
  0.1285714E+01  0.0000000E+00  0.2653061E+00 -0.1675146E-04  0.0000000E+00  0.3547124E-02
  0.1326531E+01  0.0000000E+00  0.2653061E+00 -0.1538735E-04  0.0000000E+00  0.3542244E-02