title = "dataset feddes"
variables = "x", "y", "z", "vx", "vy", "vz"
zone t = "velocities, solution time =  9.000E+00 days        " i =   49, j =   49, k =    1,  f=point
  0.2040816E-01  0.0000000E+00  0.2040816E-01  0.8948516E-08  0.0000000E+00  0.6521715E-02
  0.6122449E-01  0.0000000E+00  0.2040816E-01  0.2611635E-07  0.0000000E+00  0.6521791E-02
  0.1020408E+00  0.0000000E+00  0.2040816E-01  0.4086691E-07  0.0000000E+00  0.6521935E-02
  0.1428571E+00  0.0000000E+00  0.2040816E-01  0.5170893E-07  0.0000000E+00  0.6522135E-02
  0.1836735E+00  0.0000000E+00  0.2040816E-01  0.5737648E-07  0.0000000E+00  0.6522370E-02
  0.2244898E+00  0.0000000E+00  0.2040816E-01  0.5689193E-07  0.0000000E+00  0.6522616E-02
  0.2653061E+00  0.0000000E+00  0.2040816E-01  0.4962500E-07  0.0000000E+00  0.6522845E-02
  0.3061225E+00  0.0000000E+00  0.2040816E-01  0.3535737E-07  0.0000000E+00  0.6523028E-02
  0.3469388E+00  0.0000000E+00  0.2040816E-01  0.1431908E-07  0.0000000E+00  0.6523135E-02
  0.3877551E+00  0.0000000E+00  0.2040816E-01 -0.1281173E-07  0.0000000E+00  0.6523139E-02
  0.4285714E+00  0.0000000E+00  0.2040816E-01 -0.4493689E-07  0.0000000E+00  0.6523014E-02
  0.4693878E+00  0.0000000E+00  0.2040816E-01 -0.8063168E-07  0.0000000E+00  0.6522744E-02
  0.5102041E+00  0.0000000E+00  0.2040816E-01 -0.1182332E-06  0.0000000E+00  0.6522315E-02
  0.5510204E+00  0.0000000E+00  0.2040816E-01 -0.1559873E-06  0.0000000E+00  0.6521724E-02
  0.5918368E+00  0.0000000E+00  0.2040816E-01 -0.1921790E-06  0.0000000E+00  0.6520974E-02
  0.6326531E+00  0.0000000E+00  0.2040816E-01 -0.2252758E-06  0.0000000E+00  0.6520075E-02
  0.6734694E+00  0.0000000E+00  0.2040816E-01 -0.2540155E-06  0.0000000E+00  0.6519042E-02
  0.7142857E+00  0.0000000E+00  0.2040816E-01 -0.2774801E-06  0.0000000E+00  0.6517897E-02
  0.7551020E+00  0.0000000E+00  0.2040816E-01 -0.2951280E-06  0.0000000E+00  0.6516663E-02
  0.7959183E+00  0.0000000E+00  0.2040816E-01 -0.3067825E-06  0.0000000E+00  0.6515366E-02
  0.8367347E+00  0.0000000E+00  0.2040816E-01 -0.3125903E-06  0.0000000E+00  0.6514031E-02
  0.8775510E+00  0.0000000E+00  0.2040816E-01 -0.3129593E-06  0.0000000E+00  0.6512683E-02
  0.9183673E+00  0.0000000E+00  0.2040816E-01 -0.3084883E-06  0.0000000E+00  0.6511344E-02
  0.9591837E+00  0.0000000E+00  0.2040816E-01 -0.2998951E-06  0.0000000E+00  0.6510033E-02
  0.1000000E+01  0.0000000E+00  0.2040816E-01 -0.2879520E-06  0.0000000E+00  0.6508767E-02
  0.1040816E+01  0.0000000E+00  0.2040816E-01 -0.2734318E-06  0.0000000E+00  0.6507557E-02
  0.1081633E+01  0.0000000E+00  0.2040816E-01 -0.2570658E-06  0.0000000E+00  0.6506414E-02
  0.1122449E+01  0.0000000E+00  0.2040816E-01 -0.2395153E-06  0.0000000E+00  0.6505344E-02
  0.1163265E+01  0.0000000E+00  0.2040816E-01 -0.2213557E-06  0.0000000E+00  0.6504351E-02
  0.1204082E+01  0.0000000E+00  0.2040816E-01 -0.2030685E-06  0.0000000E+00  0.6503436E-02
  0.1244898E+01  0.0000000E+00  0.2040816E-01 -0.1850411E-06  0.0000000E+00  0.6502600E-02
  0.1285714E+01  0.0000000E+00  0.2040816E-01 -0.1675721E-06  0.0000000E+00  0.6501840E-02
  0.1326531E+01  0.0000000E+00  0.2040816E-01 -0.1508806E-06  0.0000000E+00  0.6501154E-02
  0.1367347E+01  0.0000000E+00  0.2040816E-01 -0.1351160E-06  0.0000000E+00  0.6500538E-02
  0.1408163E+01  0.0000000E+00  0.2040816E-01 -0.1203688E-06  0.0000000E+00  0.6499987E-02
  0.1448980E+01  0.0000000E+00  0.2040816E-01 -0.1066809E-06  0.0000000E+00  0.6499498E-02
  0.1489796E+01  0.0000000E+00  0.2040816E-01 -0.9405587E-07  0.0000000E+00  0.6499066E-02
  0.1530612E+01  0.0000000E+00  0.2040816E-01 -0.8246756E-07  0.0000000E+00  0.6498685E-02
  0.1571429E+01  0.0000000E+00  0.2040816E-01 -0.7186720E-07  0.0000000E+00  0.6498353E-02
  0.1612245E+01  0.0000000E+00  0.2040816E-01 -0.6218978E-07  0.0000000E+00  0.6498064E-02
  0.1653061E+01  0.0000000E+00  0.2040816E-01 -0.5335895E-07  0.0000000E+00  0.6497815E-02
  0.1693878E+01  0.0000000E+00  0.2040816E-01 -0.4529089E-07  0.0000000E+00  0.6497602E-02
  0.1734694E+01  0.0000000E+00  0.2040816E-01 -0.3789737E-07  0.0000000E+00  0.6497423E-02
  0.1775510E+01  0.0000000E+00  0.2040816E-01 -0.3108793E-07  0.0000000E+00  0.6497274E-02
  0.1816326E+01  0.0000000E+00  0.2040816E-01 -0.2477154E-07  0.0000000E+00  0.6497154E-02
  0.1857143E+01  0.0000000E+00  0.2040816E-01 -0.1885767E-07  0.0000000E+00  0.6497060E-02
  0.1897959E+01  0.0000000E+00  0.2040816E-01 -0.1325701E-07  0.0000000E+00  0.6496991E-02
  0.1938776E+01  0.0000000E+00  0.2040816E-01 -0.7882507E-08  0.0000000E+00  0.6496945E-02
  0.1989796E+01  0.0000000E+00  0.2040816E-01 -0.2652694E-08  0.0000000E+00  0.6496922E-02
  0.2040816E-01  0.0000000E+00  0.6122449E-01  0.3054965E-07  0.0000000E+00  0.6521544E-02
  0.6122449E-01  0.0000000E+00  0.6122449E-01  0.8911768E-07  0.0000000E+00  0.6521623E-02
  0.1020408E+00  0.0000000E+00  0.6122449E-01  0.1395205E-06  0.0000000E+00  0.6521774E-02
  0.1428571E+00  0.0000000E+00  0.6122449E-01  0.1767078E-06  0.0000000E+00  0.6521983E-02
  0.1836735E+00  0.0000000E+00  0.6122449E-01  0.1963885E-06  0.0000000E+00  0.6522229E-02
  0.2244898E+00  0.0000000E+00  0.6122449E-01  0.1952344E-06  0.0000000E+00  0.6522488E-02
  0.2653061E+00  0.0000000E+00  0.6122449E-01  0.1710973E-06  0.0000000E+00  0.6522732E-02
  0.3061225E+00  0.0000000E+00  0.6122449E-01  0.1232239E-06  0.0000000E+00  0.6522928E-02
  0.3469388E+00  0.0000000E+00  0.6122449E-01  0.5238305E-07  0.0000000E+00  0.6523048E-02
  0.3877551E+00  0.0000000E+00  0.6122449E-01 -0.3913343E-07  0.0000000E+00  0.6523063E-02
  0.4285714E+00  0.0000000E+00  0.6122449E-01 -0.1475998E-06  0.0000000E+00  0.6522947E-02
  0.4693878E+00  0.0000000E+00  0.6122449E-01 -0.2681658E-06  0.0000000E+00  0.6522682E-02
  0.5102041E+00  0.0000000E+00  0.6122449E-01 -0.3951791E-06  0.0000000E+00  0.6522255E-02
  0.5510204E+00  0.0000000E+00  0.6122449E-01 -0.5226733E-06  0.0000000E+00  0.6521663E-02
  0.5918368E+00  0.0000000E+00  0.6122449E-01 -0.6448174E-06  0.0000000E+00  0.6520908E-02
  0.6326531E+00  0.0000000E+00  0.6122449E-01 -0.7564047E-06  0.0000000E+00  0.6520001E-02
  0.6734694E+00  0.0000000E+00  0.6122449E-01 -0.8531675E-06  0.0000000E+00  0.6518958E-02
  0.7142857E+00  0.0000000E+00  0.6122449E-01 -0.9320182E-06  0.0000000E+00  0.6517801E-02
  0.7551020E+00  0.0000000E+00  0.6122449E-01 -0.9911529E-06  0.0000000E+00  0.6516556E-02
  0.7959183E+00  0.0000000E+00  0.6122449E-01 -0.1030011E-05  0.0000000E+00  0.6515247E-02
  0.8367347E+00  0.0000000E+00  0.6122449E-01 -0.1049127E-05  0.0000000E+00  0.6513900E-02
  0.8775510E+00  0.0000000E+00  0.6122449E-01 -0.1049917E-05  0.0000000E+00  0.6512542E-02
  0.9183673E+00  0.0000000E+00  0.6122449E-01 -0.1034437E-05  0.0000000E+00  0.6511194E-02
  0.9591837E+00  0.0000000E+00  0.6122449E-01 -0.1005135E-05  0.0000000E+00  0.6509875E-02
  0.1000000E+01  0.0000000E+00  0.6122449E-01 -0.9646329E-06  0.0000000E+00  0.6508602E-02
  0.1040816E+01  0.0000000E+00  0.6122449E-01 -0.9155447E-06  0.0000000E+00  0.6507388E-02
  0.1081633E+01  0.0000000E+00  0.6122449E-01 -0.8603375E-06  0.0000000E+00  0.6506242E-02
  0.1122449E+01  0.0000000E+00  0.6122449E-01 -0.8012345E-06  0.0000000E+00  0.6505170E-02
  0.1163265E+01  0.0000000E+00  0.6122449E-01 -0.7401641E-06  0.0000000E+00  0.6504176E-02
  0.1204082E+01  0.0000000E+00  0.6122449E-01 -0.6787365E-06  0.0000000E+00  0.6503261E-02
  0.1244898E+01  0.0000000E+00  0.6122449E-01 -0.6182431E-06  0.0000000E+00  0.6502425E-02
  0.1285714E+01  0.0000000E+00  0.6122449E-01 -0.5596761E-06  0.0000000E+00  0.6501667E-02
  0.1326531E+01  0.0000000E+00  0.6122449E-01 -0.5037602E-06  0.0000000E+00  0.6500982E-02
  0.1367347E+01  0.0000000E+00  0.6122449E-01 -0.4509867E-06  0.0000000E+00  0.6500368E-02
  0.1408163E+01  0.0000000E+00  0.6122449E-01 -0.4016502E-06  0.0000000E+00  0.6499819E-02
  0.1448980E+01  0.0000000E+00  0.6122449E-01 -0.3558841E-06  0.0000000E+00  0.6499332E-02
  0.1489796E+01  0.0000000E+00  0.6122449E-01 -0.3136939E-06  0.0000000E+00  0.6498902E-02
  0.1530612E+01  0.0000000E+00  0.6122449E-01 -0.2749863E-06  0.0000000E+00  0.6498523E-02
  0.1571429E+01  0.0000000E+00  0.6122449E-01 -0.2395938E-06  0.0000000E+00  0.6498192E-02
  0.1612245E+01  0.0000000E+00  0.6122449E-01 -0.2072954E-06  0.0000000E+00  0.6497905E-02
  0.1653061E+01  0.0000000E+00  0.6122449E-01 -0.1778328E-06  0.0000000E+00  0.6497658E-02
  0.1693878E+01  0.0000000E+00  0.6122449E-01 -0.1509237E-06  0.0000000E+00  0.6497447E-02
  0.1734694E+01  0.0000000E+00  0.6122449E-01 -0.1262714E-06  0.0000000E+00  0.6497269E-02
  0.1775510E+01  0.0000000E+00  0.6122449E-01 -0.1035724E-06  0.0000000E+00  0.6497121E-02
  0.1816326E+01  0.0000000E+00  0.6122449E-01 -0.8252161E-07  0.0000000E+00  0.6497002E-02
  0.1857143E+01  0.0000000E+00  0.6122449E-01 -0.6281576E-07  0.0000000E+00  0.6496908E-02
  0.1897959E+01  0.0000000E+00  0.6122449E-01 -0.4415534E-07  0.0000000E+00  0.6496840E-02
  0.1938776E+01  0.0000000E+00  0.6122449E-01 -0.2624640E-07  0.0000000E+00  0.6496794E-02
  0.1989796E+01  0.0000000E+00  0.6122449E-01 -0.8807147E-08  0.0000000E+00  0.6496772E-02
  0.2040816E-01  0.0000000E+00  0.1020408E+00  0.5612401E-07  0.0000000E+00  0.6520917E-02
  0.6122449E-01  0.0000000E+00  0.1020408E+00  0.1636840E-06  0.0000000E+00  0.6521003E-02
  0.1020408E+00  0.0000000E+00  0.1020408E+00  0.2565232E-06  0.0000000E+00  0.6521169E-02
  0.1428571E+00  0.0000000E+00  0.1020408E+00  0.3255171E-06  0.0000000E+00  0.6521400E-02
  0.1836735E+00  0.0000000E+00  0.1020408E+00  0.3628835E-06  0.0000000E+00  0.6521673E-02
  0.2244898E+00  0.0000000E+00  0.1020408E+00  0.3625480E-06  0.0000000E+00  0.6521963E-02
  0.2653061E+00  0.0000000E+00  0.1020408E+00  0.3205673E-06  0.0000000E+00  0.6522240E-02
  0.3061225E+00  0.0000000E+00  0.1020408E+00  0.2355212E-06  0.0000000E+00  0.6522470E-02
  0.3469388E+00  0.0000000E+00  0.1020408E+00  0.1087600E-06  0.0000000E+00  0.6522621E-02
  0.3877551E+00  0.0000000E+00  0.1020408E+00 -0.5558136E-07  0.0000000E+00  0.6522662E-02
  0.4285714E+00  0.0000000E+00  0.1020408E+00 -0.2507372E-06  0.0000000E+00  0.6522566E-02
  0.4693878E+00  0.0000000E+00  0.1020408E+00 -0.4678470E-06  0.0000000E+00  0.6522314E-02
  0.5102041E+00  0.0000000E+00  0.1020408E+00 -0.6965899E-06  0.0000000E+00  0.6521892E-02
  0.5510204E+00  0.0000000E+00  0.1020408E+00 -0.9260620E-06  0.0000000E+00  0.6521296E-02
  0.5918368E+00  0.0000000E+00  0.1020408E+00 -0.1145629E-05  0.0000000E+00  0.6520529E-02
  0.6326531E+00  0.0000000E+00  0.1020408E+00 -0.1345813E-05  0.0000000E+00  0.6519603E-02
  0.6734694E+00  0.0000000E+00  0.1020408E+00 -0.1518910E-05  0.0000000E+00  0.6518537E-02
  0.7142857E+00  0.0000000E+00  0.1020408E+00 -0.1659405E-05  0.0000000E+00  0.6517353E-02
  0.7551020E+00  0.0000000E+00  0.1020408E+00 -0.1764148E-05  0.0000000E+00  0.6516078E-02
  0.7959183E+00  0.0000000E+00  0.1020408E+00 -0.1832261E-05  0.0000000E+00  0.6514739E-02
  0.8367347E+00  0.0000000E+00  0.1020408E+00 -0.1864854E-05  0.0000000E+00  0.6513365E-02
  0.8775510E+00  0.0000000E+00  0.1020408E+00 -0.1864621E-05  0.0000000E+00  0.6511982E-02
  0.9183673E+00  0.0000000E+00  0.1020408E+00 -0.1835379E-05  0.0000000E+00  0.6510611E-02
  0.9591837E+00  0.0000000E+00  0.1020408E+00 -0.1781622E-05  0.0000000E+00  0.6509274E-02
  0.1000000E+01  0.0000000E+00  0.1020408E+00 -0.1708117E-05  0.0000000E+00  0.6507986E-02
  0.1040816E+01  0.0000000E+00  0.1020408E+00 -0.1619586E-05  0.0000000E+00  0.6506761E-02
  0.1081633E+01  0.0000000E+00  0.1020408E+00 -0.1520454E-05  0.0000000E+00  0.6505607E-02
  0.1122449E+01  0.0000000E+00  0.1020408E+00 -0.1414687E-05  0.0000000E+00  0.6504530E-02
  0.1163265E+01  0.0000000E+00  0.1020408E+00 -0.1305703E-05  0.0000000E+00  0.6503534E-02
  0.1204082E+01  0.0000000E+00  0.1020408E+00 -0.1196340E-05  0.0000000E+00  0.6502619E-02
  0.1244898E+01  0.0000000E+00  0.1020408E+00 -0.1088861E-05  0.0000000E+00  0.6501785E-02
  0.1285714E+01  0.0000000E+00  0.1020408E+00 -0.9849931E-06  0.0000000E+00  0.6501029E-02
  0.1326531E+01  0.0000000E+00  0.1020408E+00 -0.8859860E-06  0.0000000E+00  0.6500348E-02
  0.1367347E+01  0.0000000E+00  0.1020408E+00 -0.7926766E-06  0.0000000E+00  0.6499737E-02
  0.1408163E+01  0.0000000E+00  0.1020408E+00 -0.7055564E-06  0.0000000E+00  0.6499193E-02
  0.1448980E+01  0.0000000E+00  0.1020408E+00 -0.6248348E-06  0.0000000E+00  0.6498711E-02
  0.1489796E+01  0.0000000E+00  0.1020408E+00 -0.5504985E-06  0.0000000E+00  0.6498285E-02
  0.1530612E+01  0.0000000E+00  0.1020408E+00 -0.4823633E-06  0.0000000E+00  0.6497911E-02
  0.1571429E+01  0.0000000E+00  0.1020408E+00 -0.4201173E-06  0.0000000E+00  0.6497585E-02
  0.1612245E+01  0.0000000E+00  0.1020408E+00 -0.3633576E-06  0.0000000E+00  0.6497301E-02
  0.1653061E+01  0.0000000E+00  0.1020408E+00 -0.3116184E-06  0.0000000E+00  0.6497058E-02
  0.1693878E+01  0.0000000E+00  0.1020408E+00 -0.2643938E-06  0.0000000E+00  0.6496850E-02
  0.1734694E+01  0.0000000E+00  0.1020408E+00 -0.2211549E-06  0.0000000E+00  0.6496674E-02
  0.1775510E+01  0.0000000E+00  0.1020408E+00 -0.1813625E-06  0.0000000E+00  0.6496529E-02
  0.1816326E+01  0.0000000E+00  0.1020408E+00 -0.1444760E-06  0.0000000E+00  0.6496412E-02
  0.1857143E+01  0.0000000E+00  0.1020408E+00 -0.1099589E-06  0.0000000E+00  0.6496320E-02
  0.1897959E+01  0.0000000E+00  0.1020408E+00 -0.7728048E-07  0.0000000E+00  0.6496253E-02
  0.1938776E+01  0.0000000E+00  0.1020408E+00 -0.4591669E-07  0.0000000E+00  0.6496208E-02
  0.1989796E+01  0.0000000E+00  0.1020408E+00 -0.1535605E-07  0.0000000E+00  0.6496186E-02
  0.2040816E-01  0.0000000E+00  0.1428571E+00  0.8315694E-07  0.0000000E+00  0.6519602E-02
  0.6122449E-01  0.0000000E+00  0.1428571E+00  0.2425927E-06  0.0000000E+00  0.6519701E-02
  0.1020408E+00  0.0000000E+00  0.1428571E+00  0.3808067E-06  0.0000000E+00  0.6519891E-02
  0.1428571E+00  0.0000000E+00  0.1428571E+00  0.4846175E-06  0.0000000E+00  0.6520155E-02
  0.1836735E+00  0.0000000E+00  0.1428571E+00  0.5427080E-06  0.0000000E+00  0.6520471E-02
  0.2244898E+00  0.0000000E+00  0.1428571E+00  0.5461667E-06  0.0000000E+00  0.6520811E-02
  0.2653061E+00  0.0000000E+00  0.1428571E+00  0.4891399E-06  0.0000000E+00  0.6521139E-02
  0.3061225E+00  0.0000000E+00  0.1428571E+00  0.3694236E-06  0.0000000E+00  0.6521421E-02
  0.3469388E+00  0.0000000E+00  0.1428571E+00  0.1888664E-06  0.0000000E+00  0.6521621E-02
  0.3877551E+00  0.0000000E+00  0.1428571E+00 -0.4656723E-07  0.0000000E+00  0.6521704E-02
  0.4285714E+00  0.0000000E+00  0.1428571E+00 -0.3270168E-06  0.0000000E+00  0.6521640E-02
  0.4693878E+00  0.0000000E+00  0.1428571E+00 -0.6394521E-06  0.0000000E+00  0.6521408E-02
  0.5102041E+00  0.0000000E+00  0.1428571E+00 -0.9686777E-06  0.0000000E+00  0.6520993E-02
  0.5510204E+00  0.0000000E+00  0.1428571E+00 -0.1298623E-05  0.0000000E+00  0.6520390E-02
  0.5918368E+00  0.0000000E+00  0.1428571E+00 -0.1613673E-05  0.0000000E+00  0.6519604E-02
  0.6326531E+00  0.0000000E+00  0.1428571E+00 -0.1899970E-05  0.0000000E+00  0.6518648E-02
  0.6734694E+00  0.0000000E+00  0.1428571E+00 -0.2146377E-05  0.0000000E+00  0.6517543E-02
  0.7142857E+00  0.0000000E+00  0.1428571E+00 -0.2345068E-05  0.0000000E+00  0.6516316E-02
  0.7551020E+00  0.0000000E+00  0.1428571E+00 -0.2491743E-05  0.0000000E+00  0.6514995E-02
  0.7959183E+00  0.0000000E+00  0.1428571E+00 -0.2585458E-05  0.0000000E+00  0.6513610E-02
  0.8367347E+00  0.0000000E+00  0.1428571E+00 -0.2628156E-05  0.0000000E+00  0.6512192E-02
  0.8775510E+00  0.0000000E+00  0.1428571E+00 -0.2624036E-05  0.0000000E+00  0.6510769E-02
  0.9183673E+00  0.0000000E+00  0.1428571E+00 -0.2578860E-05  0.0000000E+00  0.6509364E-02
  0.9591837E+00  0.0000000E+00  0.1428571E+00 -0.2499284E-05  0.0000000E+00  0.6507998E-02
  0.1000000E+01  0.0000000E+00  0.1428571E+00 -0.2392271E-05  0.0000000E+00  0.6506687E-02
  0.1040816E+01  0.0000000E+00  0.1428571E+00 -0.2264633E-05  0.0000000E+00  0.6505444E-02
  0.1081633E+01  0.0000000E+00  0.1428571E+00 -0.2122695E-05  0.0000000E+00  0.6504278E-02
  0.1122449E+01  0.0000000E+00  0.1428571E+00 -0.1972071E-05  0.0000000E+00  0.6503194E-02
  0.1163265E+01  0.0000000E+00  0.1428571E+00 -0.1817552E-05  0.0000000E+00  0.6502194E-02
  0.1204082E+01  0.0000000E+00  0.1428571E+00 -0.1663077E-05  0.0000000E+00  0.6501278E-02
  0.1244898E+01  0.0000000E+00  0.1428571E+00 -0.1511760E-05  0.0000000E+00  0.6500446E-02
  0.1285714E+01  0.0000000E+00  0.1428571E+00 -0.1365948E-05  0.0000000E+00  0.6499694E-02
  0.1326531E+01  0.0000000E+00  0.1428571E+00 -0.1227316E-05  0.0000000E+00  0.6499019E-02
  0.1367347E+01  0.0000000E+00  0.1428571E+00 -0.1096961E-05  0.0000000E+00  0.6498415E-02
  0.1408163E+01  0.0000000E+00  0.1428571E+00 -0.9755018E-06  0.0000000E+00  0.6497877E-02
  0.1448980E+01  0.0000000E+00  0.1428571E+00 -0.8631719E-06  0.0000000E+00  0.6497402E-02
  0.1489796E+01  0.0000000E+00  0.1428571E+00 -0.7599011E-06  0.0000000E+00  0.6496983E-02
  0.1530612E+01  0.0000000E+00  0.1428571E+00 -0.6653888E-06  0.0000000E+00  0.6496616E-02
  0.1571429E+01  0.0000000E+00  0.1428571E+00 -0.5791649E-06  0.0000000E+00  0.6496296E-02
  0.1612245E+01  0.0000000E+00  0.1428571E+00 -0.5006393E-06  0.0000000E+00  0.6496018E-02
  0.1653061E+01  0.0000000E+00  0.1428571E+00 -0.4291409E-06  0.0000000E+00  0.6495780E-02
  0.1693878E+01  0.0000000E+00  0.1428571E+00 -0.3639485E-06  0.0000000E+00  0.6495577E-02
  0.1734694E+01  0.0000000E+00  0.1428571E+00 -0.3043138E-06  0.0000000E+00  0.6495406E-02
  0.1775510E+01  0.0000000E+00  0.1428571E+00 -0.2494779E-06  0.0000000E+00  0.6495264E-02
  0.1816326E+01  0.0000000E+00  0.1428571E+00 -0.1986832E-06  0.0000000E+00  0.6495150E-02
  0.1857143E+01  0.0000000E+00  0.1428571E+00 -0.1511795E-06  0.0000000E+00  0.6495060E-02
  0.1897959E+01  0.0000000E+00  0.1428571E+00 -0.1062255E-06  0.0000000E+00  0.6494995E-02
  0.1938776E+01  0.0000000E+00  0.1428571E+00 -0.6308713E-07  0.0000000E+00  0.6494951E-02
  0.1989796E+01  0.0000000E+00  0.1428571E+00 -0.2104364E-07  0.0000000E+00  0.6494930E-02
  0.2040816E-01  0.0000000E+00  0.1836735E+00  0.1134530E-06  0.0000000E+00  0.6517368E-02
  0.6122449E-01  0.0000000E+00  0.1836735E+00  0.3312069E-06  0.0000000E+00  0.6517484E-02
  0.1020408E+00  0.0000000E+00  0.1836735E+00  0.5210063E-06  0.0000000E+00  0.6517706E-02
  0.1428571E+00  0.0000000E+00  0.1836735E+00  0.6654299E-06  0.0000000E+00  0.6518017E-02
  0.1836735E+00  0.0000000E+00  0.1836735E+00  0.7493853E-06  0.0000000E+00  0.6518393E-02
  0.2244898E+00  0.0000000E+00  0.1836735E+00  0.7608474E-06  0.0000000E+00  0.6518799E-02
  0.2653061E+00  0.0000000E+00  0.1836735E+00  0.6917715E-06  0.0000000E+00  0.6519200E-02
  0.3061225E+00  0.0000000E+00  0.1836735E+00  0.5389418E-06  0.0000000E+00  0.6519555E-02
  0.3469388E+00  0.0000000E+00  0.1836735E+00  0.3045831E-06  0.0000000E+00  0.6519822E-02
  0.3877551E+00  0.0000000E+00  0.1836735E+00 -0.3452494E-08  0.0000000E+00  0.6519963E-02
  0.4285714E+00  0.0000000E+00  0.1836735E+00 -0.3719697E-06  0.0000000E+00  0.6519944E-02
  0.4693878E+00  0.0000000E+00  0.1836735E+00 -0.7833215E-06  0.0000000E+00  0.6519739E-02
  0.5102041E+00  0.0000000E+00  0.1836735E+00 -0.1216862E-05  0.0000000E+00  0.6519333E-02
  0.5510204E+00  0.0000000E+00  0.1836735E+00 -0.1650739E-05  0.0000000E+00  0.6518720E-02
  0.5918368E+00  0.0000000E+00  0.1836735E+00 -0.2063811E-05  0.0000000E+00  0.6517906E-02
  0.6326531E+00  0.0000000E+00  0.1836735E+00 -0.2437451E-05  0.0000000E+00  0.6516907E-02
  0.6734694E+00  0.0000000E+00  0.1836735E+00 -0.2756914E-05  0.0000000E+00  0.6515749E-02
  0.7142857E+00  0.0000000E+00  0.1836735E+00 -0.3012113E-05  0.0000000E+00  0.6514460E-02
  0.7551020E+00  0.0000000E+00  0.1836735E+00 -0.3197837E-05  0.0000000E+00  0.6513074E-02
  0.7959183E+00  0.0000000E+00  0.1836735E+00 -0.3313436E-05  0.0000000E+00  0.6511626E-02
  0.8367347E+00  0.0000000E+00  0.1836735E+00 -0.3362106E-05  0.0000000E+00  0.6510148E-02
  0.8775510E+00  0.0000000E+00  0.1836735E+00 -0.3349963E-05  0.0000000E+00  0.6508670E-02
  0.9183673E+00  0.0000000E+00  0.1836735E+00 -0.3285062E-05  0.0000000E+00  0.6507218E-02
  0.9591837E+00  0.0000000E+00  0.1836735E+00 -0.3176488E-05  0.0000000E+00  0.6505813E-02
  0.1000000E+01  0.0000000E+00  0.1836735E+00 -0.3033573E-05  0.0000000E+00  0.6504472E-02
  0.1040816E+01  0.0000000E+00  0.1836735E+00 -0.2865297E-05  0.0000000E+00  0.6503206E-02
  0.1081633E+01  0.0000000E+00  0.1836735E+00 -0.2679889E-05  0.0000000E+00  0.6502023E-02
  0.1122449E+01  0.0000000E+00  0.1836735E+00 -0.2484558E-05  0.0000000E+00  0.6500929E-02
  0.1163265E+01  0.0000000E+00  0.1836735E+00 -0.2285375E-05  0.0000000E+00  0.6499925E-02
  0.1204082E+01  0.0000000E+00  0.1836735E+00 -0.2087264E-05  0.0000000E+00  0.6499009E-02
  0.1244898E+01  0.0000000E+00  0.1836735E+00 -0.1894062E-05  0.0000000E+00  0.6498180E-02
  0.1285714E+01  0.0000000E+00  0.1836735E+00 -0.1708620E-05  0.0000000E+00  0.6497433E-02
  0.1326531E+01  0.0000000E+00  0.1836735E+00 -0.1532922E-05  0.0000000E+00  0.6496764E-02
  0.1367347E+01  0.0000000E+00  0.1836735E+00 -0.1368229E-05  0.0000000E+00  0.6496169E-02
  0.1408163E+01  0.0000000E+00  0.1836735E+00 -0.1215205E-05  0.0000000E+00  0.6495640E-02
  0.1448980E+01  0.0000000E+00  0.1836735E+00 -0.1074038E-05  0.0000000E+00  0.6495174E-02
  0.1489796E+01  0.0000000E+00  0.1836735E+00 -0.9445527E-06  0.0000000E+00  0.6494764E-02
  0.1530612E+01  0.0000000E+00  0.1836735E+00 -0.8262939E-06  0.0000000E+00  0.6494405E-02
  0.1571429E+01  0.0000000E+00  0.1836735E+00 -0.7186086E-06  0.0000000E+00  0.6494093E-02
  0.1612245E+01  0.0000000E+00  0.1836735E+00 -0.6207051E-06  0.0000000E+00  0.6493824E-02
  0.1653061E+01  0.0000000E+00  0.1836735E+00 -0.5317015E-06  0.0000000E+00  0.6493592E-02
  0.1693878E+01  0.0000000E+00  0.1836735E+00 -0.4506620E-06  0.0000000E+00  0.6493395E-02
  0.1734694E+01  0.0000000E+00  0.1836735E+00 -0.3766251E-06  0.0000000E+00  0.6493229E-02
  0.1775510E+01  0.0000000E+00  0.1836735E+00 -0.3086231E-06  0.0000000E+00  0.6493092E-02
  0.1816326E+01  0.0000000E+00  0.1836735E+00 -0.2456949E-06  0.0000000E+00  0.6492982E-02
  0.1857143E+01  0.0000000E+00  0.1836735E+00 -0.1868925E-06  0.0000000E+00  0.6492895E-02
  0.1897959E+01  0.0000000E+00  0.1836735E+00 -0.1312812E-06  0.0000000E+00  0.6492832E-02
  0.1938776E+01  0.0000000E+00  0.1836735E+00 -0.7793753E-07  0.0000000E+00  0.6492790E-02
  0.1989796E+01  0.0000000E+00  0.1836735E+00 -0.2595378E-07  0.0000000E+00  0.6492770E-02
  0.2040816E-01  0.0000000E+00  0.2244898E+00  0.1487620E-06  0.0000000E+00  0.6513973E-02
  0.6122449E-01  0.0000000E+00  0.2244898E+00  0.4347049E-06  0.0000000E+00  0.6514110E-02
  0.1020408E+00  0.0000000E+00  0.2244898E+00  0.6854973E-06  0.0000000E+00  0.6514375E-02
  0.1428571E+00  0.0000000E+00  0.2244898E+00  0.8791180E-06  0.0000000E+00  0.6514747E-02
  0.1836735E+00  0.0000000E+00  0.2244898E+00  0.9962675E-06  0.0000000E+00  0.6515198E-02
  0.2244898E+00  0.0000000E+00  0.2244898E+00  0.1021326E-05  0.0000000E+00  0.6515693E-02
  0.2653061E+00  0.0000000E+00  0.2244898E+00  0.9435833E-06  0.0000000E+00  0.6516188E-02
  0.3061225E+00  0.0000000E+00  0.2244898E+00  0.7584260E-06  0.0000000E+00  0.6516637E-02
  0.3469388E+00  0.0000000E+00  0.2244898E+00  0.4682557E-06  0.0000000E+00  0.6516993E-02
  0.3877551E+00  0.0000000E+00  0.2244898E+00  0.8290455E-07  0.0000000E+00  0.6517211E-02
  0.4285714E+00  0.0000000E+00  0.2244898E+00 -0.3806666E-06  0.0000000E+00  0.6517250E-02
  0.4693878E+00  0.0000000E+00  0.2244898E+00 -0.8994410E-06  0.0000000E+00  0.6517081E-02
  0.5102041E+00  0.0000000E+00  0.2244898E+00 -0.1446331E-05  0.0000000E+00  0.6516686E-02
  0.5510204E+00  0.0000000E+00  0.2244898E+00 -0.1992634E-05  0.0000000E+00  0.6516058E-02
  0.5918368E+00  0.0000000E+00  0.2244898E+00 -0.2510727E-05  0.0000000E+00  0.6515206E-02
  0.6326531E+00  0.0000000E+00  0.2244898E+00 -0.2976512E-05  0.0000000E+00  0.6514150E-02
  0.6734694E+00  0.0000000E+00  0.2244898E+00 -0.3371291E-05  0.0000000E+00  0.6512919E-02
  0.7142857E+00  0.0000000E+00  0.2244898E+00 -0.3682733E-05  0.0000000E+00  0.6511549E-02
  0.7551020E+00  0.0000000E+00  0.2244898E+00 -0.3905044E-05  0.0000000E+00  0.6510079E-02
  0.7959183E+00  0.0000000E+00  0.2244898E+00 -0.4038397E-05  0.0000000E+00  0.6508547E-02
  0.8367347E+00  0.0000000E+00  0.2244898E+00 -0.4087860E-05  0.0000000E+00  0.6506992E-02
  0.8775510E+00  0.0000000E+00  0.2244898E+00 -0.4062078E-05  0.0000000E+00  0.6505445E-02
  0.9183673E+00  0.0000000E+00  0.2244898E+00 -0.3971935E-05  0.0000000E+00  0.6503933E-02
  0.9591837E+00  0.0000000E+00  0.2244898E+00 -0.3829356E-05  0.0000000E+00  0.6502480E-02
  0.1000000E+01  0.0000000E+00  0.2244898E+00 -0.3646325E-05  0.0000000E+00  0.6501100E-02
  0.1040816E+01  0.0000000E+00  0.2244898E+00 -0.3434150E-05  0.0000000E+00  0.6499806E-02
  0.1081633E+01  0.0000000E+00  0.2244898E+00 -0.3203005E-05  0.0000000E+00  0.6498604E-02
  0.1122449E+01  0.0000000E+00  0.2244898E+00 -0.2961663E-05  0.0000000E+00  0.6497498E-02
  0.1163265E+01  0.0000000E+00  0.2244898E+00 -0.2717392E-05  0.0000000E+00  0.6496488E-02
  0.1204082E+01  0.0000000E+00  0.2244898E+00 -0.2475983E-05  0.0000000E+00  0.6495572E-02
  0.1244898E+01  0.0000000E+00  0.2244898E+00 -0.2241860E-05  0.0000000E+00  0.6494747E-02
  0.1285714E+01  0.0000000E+00  0.2244898E+00 -0.2018238E-05  0.0000000E+00  0.6494007E-02
  0.1326531E+01  0.0000000E+00  0.2244898E+00 -0.1807290E-05  0.0000000E+00  0.6493347E-02
  0.1367347E+01  0.0000000E+00  0.2244898E+00 -0.1610324E-05  0.0000000E+00  0.6492762E-02
  0.1408163E+01  0.0000000E+00  0.2244898E+00 -0.1427954E-05  0.0000000E+00  0.6492244E-02
  0.1448980E+01  0.0000000E+00  0.2244898E+00 -0.1260246E-05  0.0000000E+00  0.6491789E-02
  0.1489796E+01  0.0000000E+00  0.2244898E+00 -0.1106854E-05  0.0000000E+00  0.6491389E-02
  0.1530612E+01  0.0000000E+00  0.2244898E+00 -0.9671235E-06  0.0000000E+00  0.6491041E-02
  0.1571429E+01  0.0000000E+00  0.2244898E+00 -0.8401856E-06  0.0000000E+00  0.6490739E-02
  0.1612245E+01  0.0000000E+00  0.2244898E+00 -0.7250251E-06  0.0000000E+00  0.6490479E-02
  0.1653061E+01  0.0000000E+00  0.2244898E+00 -0.6205368E-06  0.0000000E+00  0.6490255E-02
  0.1693878E+01  0.0000000E+00  0.2244898E+00 -0.5255661E-06  0.0000000E+00  0.6490066E-02
  0.1734694E+01  0.0000000E+00  0.2244898E+00 -0.4389399E-06  0.0000000E+00  0.6489906E-02
  0.1775510E+01  0.0000000E+00  0.2244898E+00 -0.3594879E-06  0.0000000E+00  0.6489775E-02
  0.1816326E+01  0.0000000E+00  0.2244898E+00 -0.2860559E-06  0.0000000E+00  0.6489669E-02
  0.1857143E+01  0.0000000E+00  0.2244898E+00 -0.2175104E-06  0.0000000E+00  0.6489586E-02
  0.1897959E+01  0.0000000E+00  0.2244898E+00 -0.1527375E-06  0.0000000E+00  0.6489525E-02
  0.1938776E+01  0.0000000E+00  0.2244898E+00 -0.9064298E-07  0.0000000E+00  0.6489486E-02
  0.1989796E+01  0.0000000E+00  0.2244898E+00 -0.3014982E-07  0.0000000E+00  0.6489466E-02
  0.2040816E-01  0.0000000E+00  0.2653061E+00  0.1908380E-06  0.0000000E+00  0.6509165E-02
  0.6122449E-01  0.0000000E+00  0.2653061E+00  0.5582972E-06  0.0000000E+00  0.6509328E-02
  0.1020408E+00  0.0000000E+00  0.2653061E+00  0.8827762E-06  0.0000000E+00  0.6509645E-02
  0.1428571E+00  0.0000000E+00  0.2653061E+00  0.1137143E-05  0.0000000E+00  0.6510093E-02
  0.1836735E+00  0.0000000E+00  0.2653061E+00  0.1297266E-05  0.0000000E+00  0.6510640E-02
  0.2244898E+00  0.0000000E+00  0.2653061E+00  0.1343220E-05  0.0000000E+00  0.6511246E-02
  0.2653061E+00  0.0000000E+00  0.2653061E+00  0.1260900E-05  0.0000000E+00  0.6511861E-02
  0.3061225E+00  0.0000000E+00  0.2653061E+00  0.1043679E-05  0.0000000E+00  0.6512431E-02
  0.3469388E+00  0.0000000E+00  0.2653061E+00  0.6937901E-06  0.0000000E+00  0.6512900E-02
  0.3877551E+00  0.0000000E+00  0.2653061E+00  0.2231234E-06  0.0000000E+00  0.6513216E-02
  0.4285714E+00  0.0000000E+00  0.2653061E+00 -0.3469779E-06  0.0000000E+00  0.6513330E-02
  0.4693878E+00  0.0000000E+00  0.2653061E+00 -0.9870121E-06  0.0000000E+00  0.6513206E-02
  0.5102041E+00  0.0000000E+00  0.2653061E+00 -0.1661945E-05  0.0000000E+00  0.6512823E-02
  0.5510204E+00  0.0000000E+00  0.2653061E+00 -0.2334586E-05  0.0000000E+00  0.6512175E-02
  0.5918368E+00  0.0000000E+00  0.2653061E+00 -0.2969362E-05  0.0000000E+00  0.6511272E-02
  0.6326531E+00  0.0000000E+00  0.2653061E+00 -0.3535645E-05  0.0000000E+00  0.6510140E-02
  0.6734694E+00  0.0000000E+00  0.2653061E+00 -0.4010267E-05  0.0000000E+00  0.6508815E-02
  0.7142857E+00  0.0000000E+00  0.2653061E+00 -0.4378698E-05  0.0000000E+00  0.6507340E-02
  0.7551020E+00  0.0000000E+00  0.2653061E+00 -0.4635046E-05  0.0000000E+00  0.6505763E-02
  0.7959183E+00  0.0000000E+00  0.2653061E+00 -0.4781086E-05  0.0000000E+00  0.6504127E-02
  0.8367347E+00  0.0000000E+00  0.2653061E+00 -0.4824650E-05  0.0000000E+00  0.6502475E-02
  0.8775510E+00  0.0000000E+00  0.2653061E+00 -0.4777779E-05  0.0000000E+00  0.6500842E-02
  0.9183673E+00  0.0000000E+00  0.2653061E+00 -0.4654919E-05  0.0000000E+00  0.6499258E-02
  0.9591837E+00  0.0000000E+00  0.2653061E+00 -0.4471397E-05  0.0000000E+00  0.6497746E-02
  0.1000000E+01  0.0000000E+00  0.2653061E+00 -0.4242224E-05  0.0000000E+00  0.6496321E-02
  0.1040816E+01  0.0000000E+00  0.2653061E+00 -0.3981250E-05  0.0000000E+00  0.6494994E-02
  0.1081633E+01  0.0000000E+00  0.2653061E+00 -0.3700661E-05  0.0000000E+00  0.6493770E-02
  0.1122449E+01  0.0000000E+00  0.2653061E+00 -0.3410760E-05  0.0000000E+00  0.6492651E-02
  0.1163265E+01  0.0000000E+00  0.2653061E+00 -0.3119910E-05  0.0000000E+00  0.6491636E-02
  0.1204082E+01  0.0000000E+00  0.2653061E+00 -0.2834631E-05  0.0000000E+00  0.6490721E-02
  0.1244898E+01  0.0000000E+00  0.2653061E+00 -0.2559782E-05  0.0000000E+00  0.6489900E-02
  0.1285714E+01  0.0000000E+00  0.2653061E+00 -0.2298782E-05  0.0000000E+00  0.6489169E-02
  0.1326531E+01  0.0000000E+00  0.2653061E+00 -0.2053844E-05  0.0000000E+00  0.6488520E-02