title = "dataset feddes"
variables = "x", "y", "z", "vx", "vy", "vz"
zone t = "velocities, solution time =  2.900E+01 days        " i =   49, j =   49, k =    1,  f=point
  0.2040816E-01  0.0000000E+00  0.2040816E-01  0.3187017E-07  0.0000000E+00  0.1098394E-02
  0.6122449E-01  0.0000000E+00  0.2040816E-01  0.8856458E-07  0.0000000E+00  0.1098652E-02
  0.1020408E+00  0.0000000E+00  0.2040816E-01  0.1245444E-06  0.0000000E+00  0.1099110E-02
  0.1428571E+00  0.0000000E+00  0.2040816E-01  0.1272546E-06  0.0000000E+00  0.1099650E-02
  0.1836735E+00  0.0000000E+00  0.2040816E-01  0.8598333E-07  0.0000000E+00  0.1100108E-02
  0.2244898E+00  0.0000000E+00  0.2040816E-01 -0.7450814E-08  0.0000000E+00  0.1100276E-02
  0.2653061E+00  0.0000000E+00  0.2040816E-01 -0.1581114E-06  0.0000000E+00  0.1099921E-02
  0.3061225E+00  0.0000000E+00  0.2040816E-01 -0.3674958E-06  0.0000000E+00  0.1098793E-02
  0.3469388E+00  0.0000000E+00  0.2040816E-01 -0.6332904E-06  0.0000000E+00  0.1096644E-02
  0.3877551E+00  0.0000000E+00  0.2040816E-01 -0.9493994E-06  0.0000000E+00  0.1093247E-02
  0.4285714E+00  0.0000000E+00  0.2040816E-01 -0.1306264E-05  0.0000000E+00  0.1088405E-02
  0.4693878E+00  0.0000000E+00  0.2040816E-01 -0.1691490E-05  0.0000000E+00  0.1081970E-02
  0.5102041E+00  0.0000000E+00  0.2040816E-01 -0.2090740E-05  0.0000000E+00  0.1073851E-02
  0.5510204E+00  0.0000000E+00  0.2040816E-01 -0.2488804E-05  0.0000000E+00  0.1064020E-02
  0.5918368E+00  0.0000000E+00  0.2040816E-01 -0.2870719E-05  0.0000000E+00  0.1052515E-02
  0.6326531E+00  0.0000000E+00  0.2040816E-01 -0.3222831E-05  0.0000000E+00  0.1039435E-02
  0.6734694E+00  0.0000000E+00  0.2040816E-01 -0.3533656E-05  0.0000000E+00  0.1024932E-02
  0.7142857E+00  0.0000000E+00  0.2040816E-01 -0.3794477E-05  0.0000000E+00  0.1009202E-02
  0.7551020E+00  0.0000000E+00  0.2040816E-01 -0.3999630E-05  0.0000000E+00  0.9924716E-03
  0.7959183E+00  0.0000000E+00  0.2040816E-01 -0.4146503E-05  0.0000000E+00  0.9749861E-03
  0.8367347E+00  0.0000000E+00  0.2040816E-01 -0.4235283E-05  0.0000000E+00  0.9569950E-03
  0.8775510E+00  0.0000000E+00  0.2040816E-01 -0.4268523E-05  0.0000000E+00  0.9387421E-03
  0.9183673E+00  0.0000000E+00  0.2040816E-01 -0.4250624E-05  0.0000000E+00  0.9204566E-03
  0.9591837E+00  0.0000000E+00  0.2040816E-01 -0.4187272E-05  0.0000000E+00  0.9023457E-03
  0.1000000E+01  0.0000000E+00  0.2040816E-01 -0.4084913E-05  0.0000000E+00  0.8845907E-03
  0.1040816E+01  0.0000000E+00  0.2040816E-01 -0.3950290E-05  0.0000000E+00  0.8673446E-03
  0.1081633E+01  0.0000000E+00  0.2040816E-01 -0.3790067E-05  0.0000000E+00  0.8507315E-03
  0.1122449E+01  0.0000000E+00  0.2040816E-01 -0.3610540E-05  0.0000000E+00  0.8348478E-03
  0.1163265E+01  0.0000000E+00  0.2040816E-01 -0.3417439E-05  0.0000000E+00  0.8197639E-03
  0.1204082E+01  0.0000000E+00  0.2040816E-01 -0.3215805E-05  0.0000000E+00  0.8055275E-03
  0.1244898E+01  0.0000000E+00  0.2040816E-01 -0.3009925E-05  0.0000000E+00  0.7921657E-03
  0.1285714E+01  0.0000000E+00  0.2040816E-01 -0.2803325E-05  0.0000000E+00  0.7796894E-03
  0.1326531E+01  0.0000000E+00  0.2040816E-01 -0.2598787E-05  0.0000000E+00  0.7680955E-03
  0.1367347E+01  0.0000000E+00  0.2040816E-01 -0.2398401E-05  0.0000000E+00  0.7573708E-03
  0.1408163E+01  0.0000000E+00  0.2040816E-01 -0.2203629E-05  0.0000000E+00  0.7474941E-03
  0.1448980E+01  0.0000000E+00  0.2040816E-01 -0.2015386E-05  0.0000000E+00  0.7384396E-03
  0.1489796E+01  0.0000000E+00  0.2040816E-01 -0.1834121E-05  0.0000000E+00  0.7301781E-03
  0.1530612E+01  0.0000000E+00  0.2040816E-01 -0.1659907E-05  0.0000000E+00  0.7226795E-03
  0.1571429E+01  0.0000000E+00  0.2040816E-01 -0.1492524E-05  0.0000000E+00  0.7159141E-03
  0.1612245E+01  0.0000000E+00  0.2040816E-01 -0.1331543E-05  0.0000000E+00  0.7098534E-03
  0.1653061E+01  0.0000000E+00  0.2040816E-01 -0.1176393E-05  0.0000000E+00  0.7044712E-03
  0.1693878E+01  0.0000000E+00  0.2040816E-01 -0.1026422E-05  0.0000000E+00  0.6997438E-03
  0.1734694E+01  0.0000000E+00  0.2040816E-01 -0.8809450E-06  0.0000000E+00  0.6956505E-03
  0.1775510E+01  0.0000000E+00  0.2040816E-01 -0.7392767E-06  0.0000000E+00  0.6921734E-03
  0.1816326E+01  0.0000000E+00  0.2040816E-01 -0.6007511E-06  0.0000000E+00  0.6892976E-03
  0.1857143E+01  0.0000000E+00  0.2040816E-01 -0.4647340E-06  0.0000000E+00  0.6870110E-03
  0.1897959E+01  0.0000000E+00  0.2040816E-01 -0.3306251E-06  0.0000000E+00  0.6853041E-03
  0.1938776E+01  0.0000000E+00  0.2040816E-01 -0.1978561E-06  0.0000000E+00  0.6841700E-03
  0.1989796E+01  0.0000000E+00  0.2040816E-01 -0.6588517E-07  0.0000000E+00  0.6836040E-03
  0.2040816E-01  0.0000000E+00  0.6122449E-01  0.1117573E-06  0.0000000E+00  0.1098257E-02
  0.6122449E-01  0.0000000E+00  0.6122449E-01  0.3114502E-06  0.0000000E+00  0.1098544E-02
  0.1020408E+00  0.0000000E+00  0.6122449E-01  0.4410645E-06  0.0000000E+00  0.1099055E-02
  0.1428571E+00  0.0000000E+00  0.6122449E-01  0.4580937E-06  0.0000000E+00  0.1099673E-02
  0.1836735E+00  0.0000000E+00  0.6122449E-01  0.3262269E-06  0.0000000E+00  0.1100227E-02
  0.2244898E+00  0.0000000E+00  0.6122449E-01  0.1767798E-07  0.0000000E+00  0.1100505E-02
  0.2653061E+00  0.0000000E+00  0.6122449E-01 -0.4848123E-06  0.0000000E+00  0.1100265E-02
  0.3061225E+00  0.0000000E+00  0.6122449E-01 -0.1186428E-05  0.0000000E+00  0.1099252E-02
  0.3469388E+00  0.0000000E+00  0.6122449E-01 -0.2079422E-05  0.0000000E+00  0.1097211E-02
  0.3877551E+00  0.0000000E+00  0.6122449E-01 -0.3143175E-05  0.0000000E+00  0.1093904E-02
  0.4285714E+00  0.0000000E+00  0.6122449E-01 -0.4345269E-05  0.0000000E+00  0.1089131E-02
  0.4693878E+00  0.0000000E+00  0.6122449E-01 -0.5643612E-05  0.0000000E+00  0.1082738E-02
  0.5102041E+00  0.0000000E+00  0.6122449E-01 -0.6989485E-05  0.0000000E+00  0.1074632E-02
  0.5510204E+00  0.0000000E+00  0.6122449E-01 -0.8331206E-05  0.0000000E+00  0.1064784E-02
  0.5918368E+00  0.0000000E+00  0.6122449E-01 -0.9617979E-05  0.0000000E+00  0.1053233E-02
  0.6326531E+00  0.0000000E+00  0.6122449E-01 -0.1080351E-04  0.0000000E+00  0.1040082E-02
  0.6734694E+00  0.0000000E+00  0.6122449E-01 -0.1184898E-04  0.0000000E+00  0.1025487E-02
  0.7142857E+00  0.0000000E+00  0.6122449E-01 -0.1272503E-04  0.0000000E+00  0.1009651E-02
  0.7551020E+00  0.0000000E+00  0.6122449E-01 -0.1341273E-04  0.0000000E+00  0.9928070E-03
  0.7959183E+00  0.0000000E+00  0.6122449E-01 -0.1390353E-04  0.0000000E+00  0.9752050E-03
  0.8367347E+00  0.0000000E+00  0.6122449E-01 -0.1419839E-04  0.0000000E+00  0.9571000E-03
  0.8775510E+00  0.0000000E+00  0.6122449E-01 -0.1430622E-04  0.0000000E+00  0.9387404E-03
  0.9183673E+00  0.0000000E+00  0.6122449E-01 -0.1424215E-04  0.0000000E+00  0.9203581E-03
  0.9591837E+00  0.0000000E+00  0.6122449E-01 -0.1402558E-04  0.0000000E+00  0.9021626E-03
  0.1000000E+01  0.0000000E+00  0.6122449E-01 -0.1367841E-04  0.0000000E+00  0.8843362E-03
  0.1040816E+01  0.0000000E+00  0.6122449E-01 -0.1322345E-04  0.0000000E+00  0.8670320E-03
  0.1081633E+01  0.0000000E+00  0.6122449E-01 -0.1268319E-04  0.0000000E+00  0.8503738E-03
  0.1122449E+01  0.0000000E+00  0.6122449E-01 -0.1207882E-04  0.0000000E+00  0.8344571E-03
  0.1163265E+01  0.0000000E+00  0.6122449E-01 -0.1142960E-04  0.0000000E+00  0.8193510E-03
  0.1204082E+01  0.0000000E+00  0.6122449E-01 -0.1075241E-04  0.0000000E+00  0.8051016E-03
  0.1244898E+01  0.0000000E+00  0.6122449E-01 -0.1006160E-04  0.0000000E+00  0.7917348E-03
  0.1285714E+01  0.0000000E+00  0.6122449E-01 -0.9368933E-05  0.0000000E+00  0.7792597E-03
  0.1326531E+01  0.0000000E+00  0.6122449E-01 -0.8683678E-05  0.0000000E+00  0.7676719E-03
  0.1367347E+01  0.0000000E+00  0.6122449E-01 -0.8012769E-05  0.0000000E+00  0.7569568E-03
  0.1408163E+01  0.0000000E+00  0.6122449E-01 -0.7361036E-05  0.0000000E+00  0.7470923E-03
  0.1448980E+01  0.0000000E+00  0.6122449E-01 -0.6731472E-05  0.0000000E+00  0.7380512E-03
  0.1489796E+01  0.0000000E+00  0.6122449E-01 -0.6125514E-05  0.0000000E+00  0.7298036E-03
  0.1530612E+01  0.0000000E+00  0.6122449E-01 -0.5543343E-05  0.0000000E+00  0.7223189E-03
  0.1571429E+01  0.0000000E+00  0.6122449E-01 -0.4984165E-05  0.0000000E+00  0.7155666E-03
  0.1612245E+01  0.0000000E+00  0.6122449E-01 -0.4446489E-05  0.0000000E+00  0.7095181E-03
  0.1653061E+01  0.0000000E+00  0.6122449E-01 -0.3928364E-05  0.0000000E+00  0.7041469E-03
  0.1693878E+01  0.0000000E+00  0.6122449E-01 -0.3427578E-05  0.0000000E+00  0.6994291E-03
  0.1734694E+01  0.0000000E+00  0.6122449E-01 -0.2941816E-05  0.0000000E+00  0.6953441E-03
  0.1775510E+01  0.0000000E+00  0.6122449E-01 -0.2468769E-05  0.0000000E+00  0.6918739E-03
  0.1816326E+01  0.0000000E+00  0.6122449E-01 -0.2006204E-05  0.0000000E+00  0.6890038E-03
  0.1857143E+01  0.0000000E+00  0.6122449E-01 -0.1551999E-05  0.0000000E+00  0.6867216E-03
  0.1897959E+01  0.0000000E+00  0.6122449E-01 -0.1104149E-05  0.0000000E+00  0.6850179E-03
  0.1938776E+01  0.0000000E+00  0.6122449E-01 -0.6607588E-06  0.0000000E+00  0.6838859E-03
  0.1989796E+01  0.0000000E+00  0.6122449E-01 -0.2200181E-06  0.0000000E+00  0.6833210E-03
  0.2040816E-01  0.0000000E+00  0.1020408E+00  0.2159176E-06  0.0000000E+00  0.1097892E-02
  0.6122449E-01  0.0000000E+00  0.1020408E+00  0.6047783E-06  0.0000000E+00  0.1098244E-02
  0.1020408E+00  0.0000000E+00  0.1020408E+00  0.8671086E-06  0.0000000E+00  0.1098885E-02
  0.1428571E+00  0.0000000E+00  0.1020408E+00  0.9260347E-06  0.0000000E+00  0.1099687E-02
  0.1836735E+00  0.0000000E+00  0.1020408E+00  0.7157220E-06  0.0000000E+00  0.1100470E-02
  0.2244898E+00  0.0000000E+00  0.1020408E+00  0.1855883E-06  0.0000000E+00  0.1101009E-02
  0.2653061E+00  0.0000000E+00  0.1020408E+00 -0.6960144E-06  0.0000000E+00  0.1101047E-02
  0.3061225E+00  0.0000000E+00  0.1020408E+00 -0.1938903E-05  0.0000000E+00  0.1100309E-02
  0.3469388E+00  0.0000000E+00  0.1020408E+00 -0.3529388E-05  0.0000000E+00  0.1098523E-02
  0.3877551E+00  0.0000000E+00  0.1020408E+00 -0.5430262E-05  0.0000000E+00  0.1095434E-02
  0.4285714E+00  0.0000000E+00  0.1020408E+00 -0.7582687E-05  0.0000000E+00  0.1090827E-02
  0.4693878E+00  0.0000000E+00  0.1020408E+00 -0.9910049E-05  0.0000000E+00  0.1084535E-02
  0.5102041E+00  0.0000000E+00  0.1020408E+00 -0.1232356E-04  0.0000000E+00  0.1076459E-02
  0.5510204E+00  0.0000000E+00  0.1020408E+00 -0.1472903E-04  0.0000000E+00  0.1066569E-02
  0.5918368E+00  0.0000000E+00  0.1020408E+00 -0.1703407E-04  0.0000000E+00  0.1054908E-02
  0.6326531E+00  0.0000000E+00  0.1020408E+00 -0.1915472E-04  0.0000000E+00  0.1041585E-02
  0.6734694E+00  0.0000000E+00  0.1020408E+00 -0.2102093E-04  0.0000000E+00  0.1026772E-02
  0.7142857E+00  0.0000000E+00  0.1020408E+00 -0.2258019E-04  0.0000000E+00  0.1010684E-02
  0.7551020E+00  0.0000000E+00  0.1020408E+00 -0.2379918E-04  0.0000000E+00  0.9935675E-03
  0.7959183E+00  0.0000000E+00  0.1020408E+00 -0.2466356E-04  0.0000000E+00  0.9756883E-03
  0.8367347E+00  0.0000000E+00  0.1020408E+00 -0.2517616E-04  0.0000000E+00  0.9573134E-03
  0.8775510E+00  0.0000000E+00  0.1020408E+00 -0.2535418E-04  0.0000000E+00  0.9387008E-03
  0.9183673E+00  0.0000000E+00  0.1020408E+00 -0.2522578E-04  0.0000000E+00  0.9200901E-03
  0.9591837E+00  0.0000000E+00  0.1020408E+00 -0.2482658E-04  0.0000000E+00  0.9016953E-03
  0.1000000E+01  0.0000000E+00  0.1020408E+00 -0.2419642E-04  0.0000000E+00  0.8837011E-03
  0.1040816E+01  0.0000000E+00  0.1020408E+00 -0.2337653E-04  0.0000000E+00  0.8662610E-03
  0.1081633E+01  0.0000000E+00  0.1020408E+00 -0.2240732E-04  0.0000000E+00  0.8494978E-03
  0.1122449E+01  0.0000000E+00  0.1020408E+00 -0.2132667E-04  0.0000000E+00  0.8335043E-03
  0.1163265E+01  0.0000000E+00  0.1020408E+00 -0.2016882E-04  0.0000000E+00  0.8183470E-03
  0.1204082E+01  0.0000000E+00  0.1020408E+00 -0.1896371E-04  0.0000000E+00  0.8040683E-03
  0.1244898E+01  0.0000000E+00  0.1020408E+00 -0.1773666E-04  0.0000000E+00  0.7906904E-03
  0.1285714E+01  0.0000000E+00  0.1020408E+00 -0.1650833E-04  0.0000000E+00  0.7782190E-03
  0.1326531E+01  0.0000000E+00  0.1020408E+00 -0.1529491E-04  0.0000000E+00  0.7666464E-03
  0.1367347E+01  0.0000000E+00  0.1020408E+00 -0.1410846E-04  0.0000000E+00  0.7559547E-03
  0.1408163E+01  0.0000000E+00  0.1020408E+00 -0.1295728E-04  0.0000000E+00  0.7461189E-03
  0.1448980E+01  0.0000000E+00  0.1020408E+00 -0.1184642E-04  0.0000000E+00  0.7371098E-03
  0.1489796E+01  0.0000000E+00  0.1020408E+00 -0.1077817E-04  0.0000000E+00  0.7288953E-03
  0.1530612E+01  0.0000000E+00  0.1020408E+00 -0.9752627E-05  0.0000000E+00  0.7214432E-03
  0.1571429E+01  0.0000000E+00  0.1020408E+00 -0.8768172E-05  0.0000000E+00  0.7147220E-03
  0.1612245E+01  0.0000000E+00  0.1020408E+00 -0.7821986E-05  0.0000000E+00  0.7087022E-03
  0.1653061E+01  0.0000000E+00  0.1020408E+00 -0.6910470E-05  0.0000000E+00  0.7033566E-03
  0.1693878E+01  0.0000000E+00  0.1020408E+00 -0.6029602E-05  0.0000000E+00  0.6986614E-03
  0.1734694E+01  0.0000000E+00  0.1020408E+00 -0.5175213E-05  0.0000000E+00  0.6945957E-03
  0.1775510E+01  0.0000000E+00  0.1020408E+00 -0.4343178E-05  0.0000000E+00  0.6911417E-03
  0.1816326E+01  0.0000000E+00  0.1020408E+00 -0.3529534E-05  0.0000000E+00  0.6882847E-03
  0.1857143E+01  0.0000000E+00  0.1020408E+00 -0.2730533E-05  0.0000000E+00  0.6860128E-03
  0.1897959E+01  0.0000000E+00  0.1020408E+00 -0.1942651E-05  0.0000000E+00  0.6843167E-03
  0.1938776E+01  0.0000000E+00  0.1020408E+00 -0.1162559E-05  0.0000000E+00  0.6831896E-03
  0.1989796E+01  0.0000000E+00  0.1020408E+00 -0.3870849E-06  0.0000000E+00  0.6826272E-03
  0.2040816E-01  0.0000000E+00  0.1428571E+00  0.3433405E-06  0.0000000E+00  0.1097239E-02
  0.6122449E-01  0.0000000E+00  0.1428571E+00  0.9680360E-06  0.0000000E+00  0.1097695E-02
  0.1020408E+00  0.0000000E+00  0.1428571E+00  0.1410054E-05  0.0000000E+00  0.1098536E-02
  0.1428571E+00  0.0000000E+00  0.1428571E+00  0.1558098E-05  0.0000000E+00  0.1099627E-02
  0.1836735E+00  0.0000000E+00  0.1428571E+00  0.1316454E-05  0.0000000E+00  0.1100770E-02
  0.2244898E+00  0.0000000E+00  0.1428571E+00  0.6110834E-06  0.0000000E+00  0.1101719E-02
  0.2653061E+00  0.0000000E+00  0.1428571E+00 -0.6048959E-06  0.0000000E+00  0.1102193E-02
  0.3061225E+00  0.0000000E+00  0.1428571E+00 -0.2346781E-05  0.0000000E+00  0.1101889E-02
  0.3469388E+00  0.0000000E+00  0.1428571E+00 -0.4595558E-05  0.0000000E+00  0.1100505E-02
  0.3877551E+00  0.0000000E+00  0.1428571E+00 -0.7297576E-05  0.0000000E+00  0.1097760E-02
  0.4285714E+00  0.0000000E+00  0.1428571E+00 -0.1036715E-04  0.0000000E+00  0.1093413E-02
  0.4693878E+00  0.0000000E+00  0.1428571E+00 -0.1369215E-04  0.0000000E+00  0.1087281E-02
  0.5102041E+00  0.0000000E+00  0.1428571E+00 -0.1714234E-04  0.0000000E+00  0.1079252E-02
  0.5510204E+00  0.0000000E+00  0.1428571E+00 -0.2057962E-04  0.0000000E+00  0.1069294E-02
  0.5918368E+00  0.0000000E+00  0.1428571E+00 -0.2386882E-04  0.0000000E+00  0.1057457E-02
  0.6326531E+00  0.0000000E+00  0.1428571E+00 -0.2688776E-04  0.0000000E+00  0.1043865E-02
  0.6734694E+00  0.0000000E+00  0.1428571E+00 -0.2953538E-04  0.0000000E+00  0.1028708E-02
  0.7142857E+00  0.0000000E+00  0.1428571E+00 -0.3173699E-04  0.0000000E+00  0.1012223E-02
  0.7551020E+00  0.0000000E+00  0.1428571E+00 -0.3344648E-04  0.0000000E+00  0.9946820E-03
  0.7959183E+00  0.0000000E+00  0.1428571E+00 -0.3464565E-04  0.0000000E+00  0.9763716E-03
  0.8367347E+00  0.0000000E+00  0.1428571E+00 -0.3534126E-04  0.0000000E+00  0.9575782E-03
  0.8775510E+00  0.0000000E+00  0.1428571E+00 -0.3556061E-04  0.0000000E+00  0.9385754E-03
  0.9183673E+00  0.0000000E+00  0.1428571E+00 -0.3534634E-04  0.0000000E+00  0.9196138E-03
  0.9591837E+00  0.0000000E+00  0.1428571E+00 -0.3475127E-04  0.0000000E+00  0.9009144E-03
  0.1000000E+01  0.0000000E+00  0.1428571E+00 -0.3383362E-04  0.0000000E+00  0.8826652E-03
  0.1040816E+01  0.0000000E+00  0.1428571E+00 -0.3265298E-04  0.0000000E+00  0.8650200E-03
  0.1081633E+01  0.0000000E+00  0.1428571E+00 -0.3126722E-04  0.0000000E+00  0.8480991E-03
  0.1122449E+01  0.0000000E+00  0.1428571E+00 -0.2973015E-04  0.0000000E+00  0.8319918E-03
  0.1163265E+01  0.0000000E+00  0.1428571E+00 -0.2809008E-04  0.0000000E+00  0.8167595E-03
  0.1204082E+01  0.0000000E+00  0.1428571E+00 -0.2638894E-04  0.0000000E+00  0.8024392E-03
  0.1244898E+01  0.0000000E+00  0.1428571E+00 -0.2466196E-04  0.0000000E+00  0.7890476E-03
  0.1285714E+01  0.0000000E+00  0.1428571E+00 -0.2293772E-04  0.0000000E+00  0.7765846E-03
  0.1326531E+01  0.0000000E+00  0.1428571E+00 -0.2123840E-04  0.0000000E+00  0.7650374E-03
  0.1367347E+01  0.0000000E+00  0.1428571E+00 -0.1958036E-04  0.0000000E+00  0.7543833E-03
  0.1408163E+01  0.0000000E+00  0.1428571E+00 -0.1797464E-04  0.0000000E+00  0.7445932E-03
  0.1448980E+01  0.0000000E+00  0.1428571E+00 -0.1642775E-04  0.0000000E+00  0.7356340E-03
  0.1489796E+01  0.0000000E+00  0.1428571E+00 -0.1494236E-04  0.0000000E+00  0.7274709E-03
  0.1530612E+01  0.0000000E+00  0.1428571E+00 -0.1351806E-04  0.0000000E+00  0.7200691E-03
  0.1571429E+01  0.0000000E+00  0.1428571E+00 -0.1215212E-04  0.0000000E+00  0.7133956E-03
  0.1612245E+01  0.0000000E+00  0.1428571E+00 -0.1084018E-04  0.0000000E+00  0.7074194E-03
  0.1653061E+01  0.0000000E+00  0.1428571E+00 -0.9576888E-05  0.0000000E+00  0.7021130E-03
  0.1693878E+01  0.0000000E+00  0.1428571E+00 -0.8356367E-05  0.0000000E+00  0.6974520E-03
  0.1734694E+01  0.0000000E+00  0.1428571E+00 -0.7172628E-05  0.0000000E+00  0.6934154E-03
  0.1775510E+01  0.0000000E+00  0.1428571E+00 -0.6019817E-05  0.0000000E+00  0.6899858E-03
  0.1816326E+01  0.0000000E+00  0.1428571E+00 -0.4892367E-05  0.0000000E+00  0.6871485E-03
  0.1857143E+01  0.0000000E+00  0.1428571E+00 -0.3785057E-05  0.0000000E+00  0.6848919E-03
  0.1897959E+01  0.0000000E+00  0.1428571E+00 -0.2693011E-05  0.0000000E+00  0.6832071E-03
  0.1938776E+01  0.0000000E+00  0.1428571E+00 -0.1611644E-05  0.0000000E+00  0.6820874E-03
  0.1989796E+01  0.0000000E+00  0.1428571E+00 -0.5365948E-06  0.0000000E+00  0.6815286E-03
  0.2040816E-01  0.0000000E+00  0.1836735E+00  0.5076566E-06  0.0000000E+00  0.1096214E-02
  0.6122449E-01  0.0000000E+00  0.1836735E+00  0.1441242E-05  0.0000000E+00  0.1096811E-02
  0.1020408E+00  0.0000000E+00  0.1836735E+00  0.2133720E-05  0.0000000E+00  0.1097928E-02
  0.1428571E+00  0.0000000E+00  0.1836735E+00  0.2437599E-05  0.0000000E+00  0.1099414E-02
  0.1836735E+00  0.0000000E+00  0.1836735E+00  0.2225253E-05  0.0000000E+00  0.1101051E-02
  0.2244898E+00  0.0000000E+00  0.1836735E+00  0.1396997E-05  0.0000000E+00  0.1102565E-02
  0.2653061E+00  0.0000000E+00  0.1836735E+00 -0.1113921E-06  0.0000000E+00  0.1103639E-02
  0.3061225E+00  0.0000000E+00  0.1836735E+00 -0.2322331E-05  0.0000000E+00  0.1103934E-02
  0.3469388E+00  0.0000000E+00  0.1836735E+00 -0.5212228E-05  0.0000000E+00  0.1103107E-02
  0.3877551E+00  0.0000000E+00  0.1836735E+00 -0.8710472E-05  0.0000000E+00  0.1100839E-02
  0.4285714E+00  0.0000000E+00  0.1836735E+00 -0.1270254E-04  0.0000000E+00  0.1096854E-02
  0.4693878E+00  0.0000000E+00  0.1836735E+00 -0.1703746E-04  0.0000000E+00  0.1090942E-02
  0.5102041E+00  0.0000000E+00  0.1836735E+00 -0.2153929E-04  0.0000000E+00  0.1082976E-02
  0.5510204E+00  0.0000000E+00  0.1836735E+00 -0.2602146E-04  0.0000000E+00  0.1072923E-02
  0.5918368E+00  0.0000000E+00  0.1836735E+00 -0.3030199E-04  0.0000000E+00  0.1060841E-02
  0.6326531E+00  0.0000000E+00  0.1836735E+00 -0.3421758E-04  0.0000000E+00  0.1046875E-02
  0.6734694E+00  0.0000000E+00  0.1836735E+00 -0.3763481E-04  0.0000000E+00  0.1031241E-02
  0.7142857E+00  0.0000000E+00  0.1836735E+00 -0.4045709E-04  0.0000000E+00  0.1014211E-02
  0.7551020E+00  0.0000000E+00  0.1836735E+00 -0.4262719E-04  0.0000000E+00  0.9960889E-03
  0.7959183E+00  0.0000000E+00  0.1836735E+00 -0.4412573E-04  0.0000000E+00  0.9771921E-03
  0.8367347E+00  0.0000000E+00  0.1836735E+00 -0.4496653E-04  0.0000000E+00  0.9578335E-03
  0.8775510E+00  0.0000000E+00  0.1836735E+00 -0.4519011E-04  0.0000000E+00  0.9383071E-03
  0.9183673E+00  0.0000000E+00  0.1836735E+00 -0.4485638E-04  0.0000000E+00  0.9188779E-03
  0.9591837E+00  0.0000000E+00  0.1836735E+00 -0.4403753E-04  0.0000000E+00  0.8997757E-03
  0.1000000E+01  0.0000000E+00  0.1836735E+00 -0.4281163E-04  0.0000000E+00  0.8811921E-03
  0.1040816E+01  0.0000000E+00  0.1836735E+00 -0.4125744E-04  0.0000000E+00  0.8632801E-03
  0.1081633E+01  0.0000000E+00  0.1836735E+00 -0.3945048E-04  0.0000000E+00  0.8461567E-03
  0.1122449E+01  0.0000000E+00  0.1836735E+00 -0.3746025E-04  0.0000000E+00  0.8299055E-03
  0.1163265E+01  0.0000000E+00  0.1836735E+00 -0.3534850E-04  0.0000000E+00  0.8145807E-03
  0.1204082E+01  0.0000000E+00  0.1836735E+00 -0.3316835E-04  0.0000000E+00  0.8002119E-03
  0.1244898E+01  0.0000000E+00  0.1836735E+00 -0.3096403E-04  0.0000000E+00  0.7868080E-03
  0.1285714E+01  0.0000000E+00  0.1836735E+00 -0.2877104E-04  0.0000000E+00  0.7743615E-03
  0.1326531E+01  0.0000000E+00  0.1836735E+00 -0.2661668E-04  0.0000000E+00  0.7628525E-03
  0.1367347E+01  0.0000000E+00  0.1836735E+00 -0.2452070E-04  0.0000000E+00  0.7522521E-03
  0.1408163E+01  0.0000000E+00  0.1836735E+00 -0.2249615E-04  0.0000000E+00  0.7425254E-03
  0.1448980E+01  0.0000000E+00  0.1836735E+00 -0.2055026E-04  0.0000000E+00  0.7336347E-03
  0.1489796E+01  0.0000000E+00  0.1836735E+00 -0.1868544E-04  0.0000000E+00  0.7255411E-03
  0.1530612E+01  0.0000000E+00  0.1836735E+00 -0.1690026E-04  0.0000000E+00  0.7182070E-03
  0.1571429E+01  0.0000000E+00  0.1836735E+00 -0.1519043E-04  0.0000000E+00  0.7115969E-03
  0.1612245E+01  0.0000000E+00  0.1836735E+00 -0.1354972E-04  0.0000000E+00  0.7056787E-03
  0.1653061E+01  0.0000000E+00  0.1836735E+00 -0.1197077E-04  0.0000000E+00  0.7004237E-03
  0.1693878E+01  0.0000000E+00  0.1836735E+00 -0.1044572E-04  0.0000000E+00  0.6958073E-03
  0.1734694E+01  0.0000000E+00  0.1836735E+00 -0.8966729E-05  0.0000000E+00  0.6918087E-03
  0.1775510E+01  0.0000000E+00  0.1836735E+00 -0.7526249E-05  0.0000000E+00  0.6884105E-03
  0.1816326E+01  0.0000000E+00  0.1836735E+00 -0.6117209E-05  0.0000000E+00  0.6855987E-03
  0.1857143E+01  0.0000000E+00  0.1836735E+00 -0.4733052E-05  0.0000000E+00  0.6833619E-03
  0.1897959E+01  0.0000000E+00  0.1836735E+00 -0.3367705E-05  0.0000000E+00  0.6816915E-03
  0.1938776E+01  0.0000000E+00  0.1836735E+00 -0.2015499E-05  0.0000000E+00  0.6805814E-03
  0.1989796E+01  0.0000000E+00  0.1836735E+00 -0.6710536E-06  0.0000000E+00  0.6800273E-03
  0.2040816E-01  0.0000000E+00  0.2244898E+00  0.7220855E-06  0.0000000E+00  0.1094704E-02
  0.6122449E-01  0.0000000E+00  0.2244898E+00  0.2063338E-05  0.0000000E+00  0.1095483E-02
  0.1020408E+00  0.0000000E+00  0.2244898E+00  0.3100596E-05  0.0000000E+00  0.1096954E-02
  0.1428571E+00  0.0000000E+00  0.2244898E+00  0.3646865E-05  0.0000000E+00  0.1098950E-02
  0.1836735E+00  0.0000000E+00  0.2244898E+00  0.3538979E-05  0.0000000E+00  0.1101226E-02
  0.2244898E+00  0.0000000E+00  0.2244898E+00  0.2647799E-05  0.0000000E+00  0.1103472E-02
  0.2653061E+00  0.0000000E+00  0.2244898E+00  0.8881938E-06  0.0000000E+00  0.1105328E-02
  0.3061225E+00  0.0000000E+00  0.2244898E+00 -0.1772097E-05  0.0000000E+00  0.1106405E-02
  0.3469388E+00  0.0000000E+00  0.2244898E+00 -0.5306085E-05  0.0000000E+00  0.1106308E-02
  0.3877551E+00  0.0000000E+00  0.2244898E+00 -0.9625225E-05  0.0000000E+00  0.1104665E-02
  0.4285714E+00  0.0000000E+00  0.2244898E+00 -0.1458267E-04  0.0000000E+00  0.1101153E-02
  0.4693878E+00  0.0000000E+00  0.2244898E+00 -0.1998279E-04  0.0000000E+00  0.1095529E-02
  0.5102041E+00  0.0000000E+00  0.2244898E+00 -0.2559648E-04  0.0000000E+00  0.1087645E-02
  0.5510204E+00  0.0000000E+00  0.2244898E+00 -0.3118069E-04  0.0000000E+00  0.1077463E-02
  0.5918368E+00  0.0000000E+00  0.2244898E+00 -0.3649938E-04  0.0000000E+00  0.1065056E-02
  0.6326531E+00  0.0000000E+00  0.2244898E+00 -0.4134280E-04  0.0000000E+00  0.1050596E-02
  0.6734694E+00  0.0000000E+00  0.2244898E+00 -0.4554232E-04  0.0000000E+00  0.1034340E-02
  0.7142857E+00  0.0000000E+00  0.2244898E+00 -0.4897929E-04  0.0000000E+00  0.1016603E-02
  0.7551020E+00  0.0000000E+00  0.2244898E+00 -0.5158752E-04  0.0000000E+00  0.9977323E-03
  0.7959183E+00  0.0000000E+00  0.2244898E+00 -0.5335014E-04  0.0000000E+00  0.9780865E-03
  0.8367347E+00  0.0000000E+00  0.2244898E+00 -0.5429259E-04  0.0000000E+00  0.9580118E-03
  0.8775510E+00  0.0000000E+00  0.2244898E+00 -0.5447327E-04  0.0000000E+00  0.9378281E-03
  0.9183673E+00  0.0000000E+00  0.2244898E+00 -0.5397352E-04  0.0000000E+00  0.9178176E-03
  0.9591837E+00  0.0000000E+00  0.2244898E+00 -0.5288824E-04  0.0000000E+00  0.8982197E-03
  0.1000000E+01  0.0000000E+00  0.2244898E+00 -0.5131781E-04  0.0000000E+00  0.8792289E-03
  0.1040816E+01  0.0000000E+00  0.2244898E+00 -0.4936168E-04  0.0000000E+00  0.8609965E-03
  0.1081633E+01  0.0000000E+00  0.2244898E+00 -0.4711371E-04  0.0000000E+00  0.8436336E-03
  0.1122449E+01  0.0000000E+00  0.2244898E+00 -0.4465913E-04  0.0000000E+00  0.8272159E-03
  0.1163265E+01  0.0000000E+00  0.2244898E+00 -0.4207273E-04  0.0000000E+00  0.8117882E-03
  0.1204082E+01  0.0000000E+00  0.2244898E+00 -0.3941810E-04  0.0000000E+00  0.7973703E-03
  0.1244898E+01  0.0000000E+00  0.2244898E+00 -0.3674757E-04  0.0000000E+00  0.7839611E-03
  0.1285714E+01  0.0000000E+00  0.2244898E+00 -0.3410266E-04  0.0000000E+00  0.7715436E-03
  0.1326531E+01  0.0000000E+00  0.2244898E+00 -0.3151479E-04  0.0000000E+00  0.7600893E-03
  0.1367347E+01  0.0000000E+00  0.2244898E+00 -0.2900622E-04  0.0000000E+00  0.7495613E-03
  0.1408163E+01  0.0000000E+00  0.2244898E+00 -0.2659112E-04  0.0000000E+00  0.7399179E-03
  0.1448980E+01  0.0000000E+00  0.2244898E+00 -0.2427665E-04  0.0000000E+00  0.7311154E-03
  0.1489796E+01  0.0000000E+00  0.2244898E+00 -0.2206421E-04  0.0000000E+00  0.7231103E-03
  0.1530612E+01  0.0000000E+00  0.2244898E+00 -0.1995067E-04  0.0000000E+00  0.7158612E-03
  0.1571429E+01  0.0000000E+00  0.2244898E+00 -0.1792958E-04  0.0000000E+00  0.7093302E-03
  0.1612245E+01  0.0000000E+00  0.2244898E+00 -0.1599238E-04  0.0000000E+00  0.7034832E-03
  0.1653061E+01  0.0000000E+00  0.2244898E+00 -0.1412935E-04  0.0000000E+00  0.6982911E-03
  0.1693878E+01  0.0000000E+00  0.2244898E+00 -0.1233046E-04  0.0000000E+00  0.6937289E-03
  0.1734694E+01  0.0000000E+00  0.2244898E+00 -0.1058592E-04  0.0000000E+00  0.6897760E-03
  0.1775510E+01  0.0000000E+00  0.2244898E+00 -0.8886501E-05  0.0000000E+00  0.6864155E-03
  0.1816326E+01  0.0000000E+00  0.2244898E+00 -0.7223711E-05  0.0000000E+00  0.6836340E-03
  0.1857143E+01  0.0000000E+00  0.2244898E+00 -0.5589793E-05  0.0000000E+00  0.6814207E-03
  0.1897959E+01  0.0000000E+00  0.2244898E+00 -0.3977640E-05  0.0000000E+00  0.6797676E-03
  0.1938776E+01  0.0000000E+00  0.2244898E+00 -0.2380664E-05  0.0000000E+00  0.6786686E-03
  0.1989796E+01  0.0000000E+00  0.2244898E+00 -0.7926435E-06  0.0000000E+00  0.6781201E-03
  0.2040816E-01  0.0000000E+00  0.2653061E+00  0.1000146E-05  0.0000000E+00  0.1092572E-02
  0.6122449E-01  0.0000000E+00  0.2653061E+00  0.2874332E-05  0.0000000E+00  0.1093577E-02
  0.1020408E+00  0.0000000E+00  0.2653061E+00  0.4375460E-05  0.0000000E+00  0.1095489E-02
  0.1428571E+00  0.0000000E+00  0.2653061E+00  0.5272383E-05  0.0000000E+00  0.1098121E-02
  0.1836735E+00  0.0000000E+00  0.2653061E+00  0.5361158E-05  0.0000000E+00  0.1101196E-02
  0.2244898E+00  0.0000000E+00  0.2653061E+00  0.4477592E-05  0.0000000E+00  0.1104363E-02
  0.2653061E+00  0.0000000E+00  0.2653061E+00  0.2510227E-05  0.0000000E+00  0.1107207E-02
  0.3061225E+00  0.0000000E+00  0.2653061E+00 -0.5873463E-06  0.0000000E+00  0.1109276E-02
  0.3469388E+00  0.0000000E+00  0.2653061E+00 -0.4786850E-05  0.0000000E+00  0.1110109E-02
  0.3877551E+00  0.0000000E+00  0.2653061E+00 -0.9980689E-05  0.0000000E+00  0.1109263E-02
  0.4285714E+00  0.0000000E+00  0.2653061E+00 -0.1598473E-04  0.0000000E+00  0.1106357E-02
  0.4693878E+00  0.0000000E+00  0.2653061E+00 -0.2255002E-04  0.0000000E+00  0.1101098E-02
  0.5102041E+00  0.0000000E+00  0.2653061E+00 -0.2938295E-04  0.0000000E+00  0.1093313E-02
  0.5510204E+00  0.0000000E+00  0.2653061E+00 -0.3617178E-04  0.0000000E+00  0.1082961E-02
  0.5918368E+00  0.0000000E+00  0.2653061E+00 -0.4261535E-04  0.0000000E+00  0.1070132E-02
  0.6326531E+00  0.0000000E+00  0.2653061E+00 -0.4844926E-04  0.0000000E+00  0.1055040E-02
  0.6734694E+00  0.0000000E+00  0.2653061E+00 -0.5346544E-04  0.0000000E+00  0.1037993E-02
  0.7142857E+00  0.0000000E+00  0.2653061E+00 -0.5752295E-04  0.0000000E+00  0.1019363E-02
  0.7551020E+00  0.0000000E+00  0.2653061E+00 -0.6054972E-04  0.0000000E+00  0.9995580E-03
  0.7959183E+00  0.0000000E+00  0.2653061E+00 -0.6253686E-04  0.0000000E+00  0.9789863E-03
  0.8367347E+00  0.0000000E+00  0.2653061E+00 -0.6352787E-04  0.0000000E+00  0.9580364E-03
  0.8775510E+00  0.0000000E+00  0.2653061E+00 -0.6360549E-04  0.0000000E+00  0.9370583E-03
  0.9183673E+00  0.0000000E+00  0.2653061E+00 -0.6287824E-04  0.0000000E+00  0.9163536E-03
  0.9591837E+00  0.0000000E+00  0.2653061E+00 -0.6146834E-04  0.0000000E+00  0.8961713E-03
  0.1000000E+01  0.0000000E+00  0.2653061E+00 -0.5950175E-04  0.0000000E+00  0.8767075E-03
  0.1040816E+01  0.0000000E+00  0.2653061E+00 -0.5710065E-04  0.0000000E+00  0.8581090E-03
  0.1081633E+01  0.0000000E+00  0.2653061E+00 -0.5437827E-04  0.0000000E+00  0.8404785E-03
  0.1122449E+01  0.0000000E+00  0.2653061E+00 -0.5143573E-04  0.0000000E+00  0.8238804E-03
  0.1163265E+01  0.0000000E+00  0.2653061E+00 -0.4836047E-04  0.0000000E+00  0.8083477E-03
  0.1204082E+01  0.0000000E+00  0.2653061E+00 -0.4522580E-04  0.0000000E+00  0.7938873E-03
  0.1244898E+01  0.0000000E+00  0.2653061E+00 -0.4209122E-04  0.0000000E+00  0.7804861E-03
  0.1285714E+01  0.0000000E+00  0.2653061E+00 -0.3900323E-04  0.0000000E+00  0.7681158E-03
  0.1326531E+01  0.0000000E+00  0.2653061E+00 -0.3599638E-04  0.0000000E+00  0.7567372E-03