title = "dataset feddes"
variables = "x", "y", "z", "vx", "vy", "vz"
zone t = "velocities, solution time =  4.000E+01 days        " i =   49, j =   49, k =    1,  f=point
  0.2040816E-01  0.0000000E+00  0.2040816E-01  0.4681541E-07  0.0000000E+00  0.8606726E-03
  0.6122449E-01  0.0000000E+00  0.2040816E-01  0.1299529E-06  0.0000000E+00  0.8610520E-03
  0.1020408E+00  0.0000000E+00  0.2040816E-01  0.1816202E-06  0.0000000E+00  0.8617207E-03
  0.1428571E+00  0.0000000E+00  0.2040816E-01  0.1827083E-06  0.0000000E+00  0.8625027E-03
  0.1836735E+00  0.0000000E+00  0.2040816E-01  0.1169588E-06  0.0000000E+00  0.8631459E-03
  0.2244898E+00  0.0000000E+00  0.2040816E-01 -0.2806513E-07  0.0000000E+00  0.8633367E-03
  0.2653061E+00  0.0000000E+00  0.2040816E-01 -0.2600514E-06  0.0000000E+00  0.8627183E-03
  0.3061225E+00  0.0000000E+00  0.2040816E-01 -0.5812843E-06  0.0000000E+00  0.8609125E-03
  0.3469388E+00  0.0000000E+00  0.2040816E-01 -0.9882639E-06  0.0000000E+00  0.8575438E-03
  0.3877551E+00  0.0000000E+00  0.2040816E-01 -0.1471741E-05  0.0000000E+00  0.8522639E-03
  0.4285714E+00  0.0000000E+00  0.2040816E-01 -0.2017213E-05  0.0000000E+00  0.8447756E-03
  0.4693878E+00  0.0000000E+00  0.2040816E-01 -0.2605873E-05  0.0000000E+00  0.8348532E-03
  0.5102041E+00  0.0000000E+00  0.2040816E-01 -0.3215965E-05  0.0000000E+00  0.8223580E-03
  0.5510204E+00  0.0000000E+00  0.2040816E-01 -0.3824398E-05  0.0000000E+00  0.8072478E-03
  0.5918368E+00  0.0000000E+00  0.2040816E-01 -0.4408454E-05  0.0000000E+00  0.7895784E-03
  0.6326531E+00  0.0000000E+00  0.2040816E-01 -0.4947391E-05  0.0000000E+00  0.7694991E-03
  0.6734694E+00  0.0000000E+00  0.2040816E-01 -0.5423744E-05  0.0000000E+00  0.7472412E-03
  0.7142857E+00  0.0000000E+00  0.2040816E-01 -0.5824237E-05  0.0000000E+00  0.7231018E-03
  0.7551020E+00  0.0000000E+00  0.2040816E-01 -0.6140214E-05  0.0000000E+00  0.6974253E-03
  0.7959183E+00  0.0000000E+00  0.2040816E-01 -0.6367636E-05  0.0000000E+00  0.6705831E-03
  0.8367347E+00  0.0000000E+00  0.2040816E-01 -0.6506696E-05  0.0000000E+00  0.6429549E-03
  0.8775510E+00  0.0000000E+00  0.2040816E-01 -0.6561172E-05  0.0000000E+00  0.6149120E-03
  0.9183673E+00  0.0000000E+00  0.2040816E-01 -0.6537634E-05  0.0000000E+00  0.5868032E-03
  0.9591837E+00  0.0000000E+00  0.2040816E-01 -0.6444597E-05  0.0000000E+00  0.5589452E-03
  0.1000000E+01  0.0000000E+00  0.2040816E-01 -0.6291731E-05  0.0000000E+00  0.5316153E-03
  0.1040816E+01  0.0000000E+00  0.2040816E-01 -0.6089153E-05  0.0000000E+00  0.5050486E-03
  0.1081633E+01  0.0000000E+00  0.2040816E-01 -0.5846866E-05  0.0000000E+00  0.4794370E-03
  0.1122449E+01  0.0000000E+00  0.2040816E-01 -0.5574324E-05  0.0000000E+00  0.4549305E-03
  0.1163265E+01  0.0000000E+00  0.2040816E-01 -0.5280142E-05  0.0000000E+00  0.4316404E-03
  0.1204082E+01  0.0000000E+00  0.2040816E-01 -0.4971910E-05  0.0000000E+00  0.4096432E-03
  0.1244898E+01  0.0000000E+00  0.2040816E-01 -0.4656112E-05  0.0000000E+00  0.3889852E-03
  0.1285714E+01  0.0000000E+00  0.2040816E-01 -0.4338111E-05  0.0000000E+00  0.3696874E-03
  0.1326531E+01  0.0000000E+00  0.2040816E-01 -0.4022196E-05  0.0000000E+00  0.3517499E-03
  0.1367347E+01  0.0000000E+00  0.2040816E-01 -0.3711654E-05  0.0000000E+00  0.3351567E-03
  0.1408163E+01  0.0000000E+00  0.2040816E-01 -0.3408872E-05  0.0000000E+00  0.3198796E-03
  0.1448980E+01  0.0000000E+00  0.2040816E-01 -0.3115454E-05  0.0000000E+00  0.3058818E-03
  0.1489796E+01  0.0000000E+00  0.2040816E-01 -0.2832333E-05  0.0000000E+00  0.2931210E-03
  0.1530612E+01  0.0000000E+00  0.2040816E-01 -0.2559891E-05  0.0000000E+00  0.2815523E-03
  0.1571429E+01  0.0000000E+00  0.2040816E-01 -0.2298072E-05  0.0000000E+00  0.2711299E-03
  0.1612245E+01  0.0000000E+00  0.2040816E-01 -0.2046479E-05  0.0000000E+00  0.2618090E-03
  0.1653061E+01  0.0000000E+00  0.2040816E-01 -0.1804467E-05  0.0000000E+00  0.2535471E-03
  0.1693878E+01  0.0000000E+00  0.2040816E-01 -0.1571217E-05  0.0000000E+00  0.2463050E-03
  0.1734694E+01  0.0000000E+00  0.2040816E-01 -0.1345793E-05  0.0000000E+00  0.2400469E-03
  0.1775510E+01  0.0000000E+00  0.2040816E-01 -0.1127194E-05  0.0000000E+00  0.2347414E-03
  0.1816326E+01  0.0000000E+00  0.2040816E-01 -0.9143805E-06  0.0000000E+00  0.2303614E-03
  0.1857143E+01  0.0000000E+00  0.2040816E-01 -0.7062967E-06  0.0000000E+00  0.2268845E-03
  0.1897959E+01  0.0000000E+00  0.2040816E-01 -0.5018854E-06  0.0000000E+00  0.2242925E-03
  0.1938776E+01  0.0000000E+00  0.2040816E-01 -0.3000930E-06  0.0000000E+00  0.2225720E-03
  0.1989796E+01  0.0000000E+00  0.2040816E-01 -0.9987296E-07  0.0000000E+00  0.2217139E-03
  0.2040816E-01  0.0000000E+00  0.6122449E-01  0.1644808E-06  0.0000000E+00  0.8604976E-03
  0.6122449E-01  0.0000000E+00  0.6122449E-01  0.4578208E-06  0.0000000E+00  0.8609193E-03
  0.1020408E+00  0.0000000E+00  0.6122449E-01  0.6447227E-06  0.0000000E+00  0.8616701E-03
  0.1428571E+00  0.0000000E+00  0.6122449E-01  0.6604689E-06  0.0000000E+00  0.8625694E-03
  0.1836735E+00  0.0000000E+00  0.6122449E-01  0.4499454E-06  0.0000000E+00  0.8633587E-03
  0.2244898E+00  0.0000000E+00  0.6122449E-01 -0.2908344E-07  0.0000000E+00  0.8637158E-03
  0.2653061E+00  0.0000000E+00  0.6122449E-01 -0.8028290E-06  0.0000000E+00  0.8632736E-03
  0.3061225E+00  0.0000000E+00  0.6122449E-01 -0.1879193E-05  0.0000000E+00  0.8616428E-03
  0.3469388E+00  0.0000000E+00  0.6122449E-01 -0.3246453E-05  0.0000000E+00  0.8584363E-03
  0.3877551E+00  0.0000000E+00  0.6122449E-01 -0.4873330E-05  0.0000000E+00  0.8532948E-03
  0.4285714E+00  0.0000000E+00  0.6122449E-01 -0.6710634E-05  0.0000000E+00  0.8459117E-03
  0.4693878E+00  0.0000000E+00  0.6122449E-01 -0.8694501E-05  0.0000000E+00  0.8360538E-03
  0.5102041E+00  0.0000000E+00  0.6122449E-01 -0.1075100E-04  0.0000000E+00  0.8235784E-03
  0.5510204E+00  0.0000000E+00  0.6122449E-01 -0.1280167E-04  0.0000000E+00  0.8084420E-03
  0.5918368E+00  0.0000000E+00  0.6122449E-01 -0.1476940E-04  0.0000000E+00  0.7907030E-03
  0.6326531E+00  0.0000000E+00  0.6122449E-01 -0.1658387E-04  0.0000000E+00  0.7705159E-03
  0.6734694E+00  0.0000000E+00  0.6122449E-01 -0.1818603E-04  0.0000000E+00  0.7481194E-03
  0.7142857E+00  0.0000000E+00  0.6122449E-01 -0.1953117E-04  0.0000000E+00  0.7238195E-03
  0.7551020E+00  0.0000000E+00  0.6122449E-01 -0.2059038E-04  0.0000000E+00  0.6979697E-03
  0.7959183E+00  0.0000000E+00  0.6122449E-01 -0.2135042E-04  0.0000000E+00  0.6709504E-03
  0.8367347E+00  0.0000000E+00  0.6122449E-01 -0.2181242E-04  0.0000000E+00  0.6431492E-03
  0.8775510E+00  0.0000000E+00  0.6122449E-01 -0.2198961E-04  0.0000000E+00  0.6149435E-03
  0.9183673E+00  0.0000000E+00  0.6122449E-01 -0.2190458E-04  0.0000000E+00  0.5866870E-03
  0.9591837E+00  0.0000000E+00  0.6122449E-01 -0.2158638E-04  0.0000000E+00  0.5586994E-03
  0.1000000E+01  0.0000000E+00  0.6122449E-01 -0.2106785E-04  0.0000000E+00  0.5312598E-03
  0.1040816E+01  0.0000000E+00  0.6122449E-01 -0.2038325E-04  0.0000000E+00  0.5046035E-03
  0.1081633E+01  0.0000000E+00  0.6122449E-01 -0.1956632E-04  0.0000000E+00  0.4789218E-03
  0.1122449E+01  0.0000000E+00  0.6122449E-01 -0.1864889E-04  0.0000000E+00  0.4543632E-03
  0.1163265E+01  0.0000000E+00  0.6122449E-01 -0.1765989E-04  0.0000000E+00  0.4310372E-03
  0.1204082E+01  0.0000000E+00  0.6122449E-01 -0.1662474E-04  0.0000000E+00  0.4090182E-03
  0.1244898E+01  0.0000000E+00  0.6122449E-01 -0.1556515E-04  0.0000000E+00  0.3883503E-03
  0.1285714E+01  0.0000000E+00  0.6122449E-01 -0.1449899E-04  0.0000000E+00  0.3690523E-03
  0.1326531E+01  0.0000000E+00  0.6122449E-01 -0.1344055E-04  0.0000000E+00  0.3511221E-03
  0.1367347E+01  0.0000000E+00  0.6122449E-01 -0.1240075E-04  0.0000000E+00  0.3345420E-03
  0.1408163E+01  0.0000000E+00  0.6122449E-01 -0.1138747E-04  0.0000000E+00  0.3192819E-03
  0.1448980E+01  0.0000000E+00  0.6122449E-01 -0.1040599E-04  0.0000000E+00  0.3053036E-03
  0.1489796E+01  0.0000000E+00  0.6122449E-01 -0.9459344E-05  0.0000000E+00  0.2925637E-03
  0.1530612E+01  0.0000000E+00  0.6122449E-01 -0.8548723E-05  0.0000000E+00  0.2810162E-03
  0.1571429E+01  0.0000000E+00  0.6122449E-01 -0.7673862E-05  0.0000000E+00  0.2706146E-03
  0.1612245E+01  0.0000000E+00  0.6122449E-01 -0.6833370E-05  0.0000000E+00  0.2613135E-03
  0.1653061E+01  0.0000000E+00  0.6122449E-01 -0.6025034E-05  0.0000000E+00  0.2530699E-03
  0.1693878E+01  0.0000000E+00  0.6122449E-01 -0.5246070E-05  0.0000000E+00  0.2458443E-03
  0.1734694E+01  0.0000000E+00  0.6122449E-01 -0.4493322E-05  0.0000000E+00  0.2396008E-03
  0.1775510E+01  0.0000000E+00  0.6122449E-01 -0.3763413E-05  0.0000000E+00  0.2343079E-03
  0.1816326E+01  0.0000000E+00  0.6122449E-01 -0.3052853E-05  0.0000000E+00  0.2299384E-03
  0.1857143E+01  0.0000000E+00  0.6122449E-01 -0.2358106E-05  0.0000000E+00  0.2264699E-03
  0.1897959E+01  0.0000000E+00  0.6122449E-01 -0.1675632E-05  0.0000000E+00  0.2238842E-03
  0.1938776E+01  0.0000000E+00  0.6122449E-01 -0.1001908E-05  0.0000000E+00  0.2221678E-03
  0.1989796E+01  0.0000000E+00  0.6122449E-01 -0.3334312E-06  0.0000000E+00  0.2213119E-03
  0.2040816E-01  0.0000000E+00  0.1020408E+00  0.3187849E-06  0.0000000E+00  0.8600588E-03
  0.6122449E-01  0.0000000E+00  0.1020408E+00  0.8918154E-06  0.0000000E+00  0.8605810E-03
  0.1020408E+00  0.0000000E+00  0.1020408E+00  0.1272697E-05  0.0000000E+00  0.8615274E-03
  0.1428571E+00  0.0000000E+00  0.1020408E+00  0.1344378E-05  0.0000000E+00  0.8627067E-03
  0.1836735E+00  0.0000000E+00  0.1020408E+00  0.1006923E-05  0.0000000E+00  0.8638447E-03
  0.2244898E+00  0.0000000E+00  0.1020408E+00  0.1834619E-06  0.0000000E+00  0.8645987E-03
  0.2653061E+00  0.0000000E+00  0.1020408E+00 -0.1174101E-05  0.0000000E+00  0.8645777E-03
  0.3061225E+00  0.0000000E+00  0.1020408E+00 -0.3080692E-05  0.0000000E+00  0.8633654E-03
  0.3469388E+00  0.0000000E+00  0.1020408E+00 -0.5515601E-05  0.0000000E+00  0.8605471E-03
  0.3877551E+00  0.0000000E+00  0.1020408E+00 -0.8422392E-05  0.0000000E+00  0.8557371E-03
  0.4285714E+00  0.0000000E+00  0.1020408E+00 -0.1171179E-04  0.0000000E+00  0.8486055E-03
  0.4693878E+00  0.0000000E+00  0.1020408E+00 -0.1526754E-04  0.0000000E+00  0.8389020E-03
  0.5102041E+00  0.0000000E+00  0.1020408E+00 -0.1895492E-04  0.0000000E+00  0.8264733E-03
  0.5510204E+00  0.0000000E+00  0.1020408E+00 -0.2263097E-04  0.0000000E+00  0.8112739E-03
  0.5918368E+00  0.0000000E+00  0.1020408E+00 -0.2615541E-04  0.0000000E+00  0.7933677E-03
  0.6326531E+00  0.0000000E+00  0.1020408E+00 -0.2940072E-04  0.0000000E+00  0.7729223E-03
  0.6734694E+00  0.0000000E+00  0.1020408E+00 -0.3226038E-04  0.0000000E+00  0.7501943E-03
  0.7142857E+00  0.0000000E+00  0.1020408E+00 -0.3465443E-04  0.0000000E+00  0.7255113E-03
  0.7551020E+00  0.0000000E+00  0.1020408E+00 -0.3653195E-04  0.0000000E+00  0.6992488E-03
  0.7959183E+00  0.0000000E+00  0.1020408E+00 -0.3787071E-04  0.0000000E+00  0.6718086E-03
  0.8367347E+00  0.0000000E+00  0.1020408E+00 -0.3867448E-04  0.0000000E+00  0.6435967E-03
  0.8775510E+00  0.0000000E+00  0.1020408E+00 -0.3896877E-04  0.0000000E+00  0.6150059E-03
  0.9183673E+00  0.0000000E+00  0.1020408E+00 -0.3879568E-04  0.0000000E+00  0.5864008E-03
  0.9591837E+00  0.0000000E+00  0.1020408E+00 -0.3820859E-04  0.0000000E+00  0.5581083E-03
  0.1000000E+01  0.0000000E+00  0.1020408E+00 -0.3726727E-04  0.0000000E+00  0.5304112E-03
  0.1040816E+01  0.0000000E+00  0.1020408E+00 -0.3603360E-04  0.0000000E+00  0.5035452E-03
  0.1081633E+01  0.0000000E+00  0.1020408E+00 -0.3456823E-04  0.0000000E+00  0.4776999E-03
  0.1122449E+01  0.0000000E+00  0.1020408E+00 -0.3292803E-04  0.0000000E+00  0.4530205E-03
  0.1163265E+01  0.0000000E+00  0.1020408E+00 -0.3116446E-04  0.0000000E+00  0.4296119E-03
  0.1204082E+01  0.0000000E+00  0.1020408E+00 -0.2932256E-04  0.0000000E+00  0.4075434E-03
  0.1244898E+01  0.0000000E+00  0.1020408E+00 -0.2744058E-04  0.0000000E+00  0.3868538E-03
  0.1285714E+01  0.0000000E+00  0.1020408E+00 -0.2554994E-04  0.0000000E+00  0.3675565E-03
  0.1326531E+01  0.0000000E+00  0.1020408E+00 -0.2367558E-04  0.0000000E+00  0.3496448E-03
  0.1367347E+01  0.0000000E+00  0.1020408E+00 -0.2183648E-04  0.0000000E+00  0.3330962E-03
  0.1408163E+01  0.0000000E+00  0.1020408E+00 -0.2004624E-04  0.0000000E+00  0.3178769E-03
  0.1448980E+01  0.0000000E+00  0.1020408E+00 -0.1831384E-04  0.0000000E+00  0.3039453E-03
  0.1489796E+01  0.0000000E+00  0.1020408E+00 -0.1664430E-04  0.0000000E+00  0.2912550E-03
  0.1530612E+01  0.0000000E+00  0.1020408E+00 -0.1503943E-04  0.0000000E+00  0.2797577E-03
  0.1571429E+01  0.0000000E+00  0.1020408E+00 -0.1349850E-04  0.0000000E+00  0.2694051E-03
  0.1612245E+01  0.0000000E+00  0.1020408E+00 -0.1201880E-04  0.0000000E+00  0.2601505E-03
  0.1653061E+01  0.0000000E+00  0.1020408E+00 -0.1059625E-04  0.0000000E+00  0.2519499E-03
  0.1693878E+01  0.0000000E+00  0.1020408E+00 -0.9225760E-05  0.0000000E+00  0.2447631E-03
  0.1734694E+01  0.0000000E+00  0.1020408E+00 -0.7901660E-05  0.0000000E+00  0.2385539E-03
  0.1775510E+01  0.0000000E+00  0.1020408E+00 -0.6617911E-05  0.0000000E+00  0.2332904E-03
  0.1816326E+01  0.0000000E+00  0.1020408E+00 -0.5368303E-05  0.0000000E+00  0.2289455E-03
  0.1857143E+01  0.0000000E+00  0.1020408E+00 -0.4146573E-05  0.0000000E+00  0.2254965E-03
  0.1897959E+01  0.0000000E+00  0.1020408E+00 -0.2946464E-05  0.0000000E+00  0.2229255E-03
  0.1938776E+01  0.0000000E+00  0.1020408E+00 -0.1761760E-05  0.0000000E+00  0.2212189E-03
  0.1989796E+01  0.0000000E+00  0.1020408E+00 -0.5862857E-06  0.0000000E+00  0.2203678E-03
  0.2040816E-01  0.0000000E+00  0.1428571E+00  0.5088822E-06  0.0000000E+00  0.8593080E-03
  0.6122449E-01  0.0000000E+00  0.1428571E+00  0.1433264E-05  0.0000000E+00  0.8599872E-03
  0.1020408E+00  0.0000000E+00  0.1428571E+00  0.2080234E-05  0.0000000E+00  0.8612395E-03
  0.1428571E+00  0.0000000E+00  0.1428571E+00  0.2280358E-05  0.0000000E+00  0.8628572E-03
  0.1836735E+00  0.0000000E+00  0.1428571E+00  0.1888331E-05  0.0000000E+00  0.8645417E-03
  0.2244898E+00  0.0000000E+00  0.1428571E+00  0.7916610E-06  0.0000000E+00  0.8659189E-03
  0.2653061E+00  0.0000000E+00  0.1428571E+00 -0.1080923E-05  0.0000000E+00  0.8665599E-03
  0.3061225E+00  0.0000000E+00  0.1428571E+00 -0.3752655E-05  0.0000000E+00  0.8660063E-03
  0.3469388E+00  0.0000000E+00  0.1428571E+00 -0.7194744E-05  0.0000000E+00  0.8637998E-03
  0.3877551E+00  0.0000000E+00  0.1428571E+00 -0.1132584E-04  0.0000000E+00  0.8595125E-03
  0.4285714E+00  0.0000000E+00  0.1428571E+00 -0.1601591E-04  0.0000000E+00  0.8527777E-03
  0.4693878E+00  0.0000000E+00  0.1428571E+00 -0.2109484E-04  0.0000000E+00  0.8433171E-03
  0.5102041E+00  0.0000000E+00  0.1428571E+00 -0.2636504E-04  0.0000000E+00  0.8309610E-03
  0.5510204E+00  0.0000000E+00  0.1428571E+00 -0.3161688E-04  0.0000000E+00  0.8156606E-03
  0.5918368E+00  0.0000000E+00  0.1428571E+00 -0.3664518E-04  0.0000000E+00  0.7974895E-03
  0.6326531E+00  0.0000000E+00  0.1428571E+00 -0.4126438E-04  0.0000000E+00  0.7766360E-03
  0.6734694E+00  0.0000000E+00  0.1428571E+00 -0.4532085E-04  0.0000000E+00  0.7533866E-03
  0.7142857E+00  0.0000000E+00  0.1428571E+00 -0.4870085E-04  0.0000000E+00  0.7281027E-03
  0.7551020E+00  0.0000000E+00  0.1428571E+00 -0.5133388E-04  0.0000000E+00  0.7011956E-03
  0.7959183E+00  0.0000000E+00  0.1428571E+00 -0.5319170E-04  0.0000000E+00  0.6731005E-03
  0.8367347E+00  0.0000000E+00  0.1428571E+00 -0.5428382E-04  0.0000000E+00  0.6442525E-03
  0.8775510E+00  0.0000000E+00  0.1428571E+00 -0.5465083E-04  0.0000000E+00  0.6150678E-03
  0.9183673E+00  0.0000000E+00  0.1428571E+00 -0.5435656E-04  0.0000000E+00  0.5859277E-03
  0.9591837E+00  0.0000000E+00  0.1428571E+00 -0.5348020E-04  0.0000000E+00  0.5571696E-03
  0.1000000E+01  0.0000000E+00  0.1428571E+00 -0.5210911E-04  0.0000000E+00  0.5290813E-03
  0.1040816E+01  0.0000000E+00  0.1428571E+00 -0.5033276E-04  0.0000000E+00  0.5018988E-03
  0.1081633E+01  0.0000000E+00  0.1428571E+00 -0.4823799E-04  0.0000000E+00  0.4758085E-03
  0.1122449E+01  0.0000000E+00  0.1428571E+00 -0.4590558E-04  0.0000000E+00  0.4509497E-03
  0.1163265E+01  0.0000000E+00  0.1428571E+00 -0.4340807E-04  0.0000000E+00  0.4274202E-03
  0.1204082E+01  0.0000000E+00  0.1428571E+00 -0.4080853E-04  0.0000000E+00  0.4052811E-03
  0.1244898E+01  0.0000000E+00  0.1428571E+00 -0.3816011E-04  0.0000000E+00  0.3845628E-03
  0.1285714E+01  0.0000000E+00  0.1428571E+00 -0.3550621E-04  0.0000000E+00  0.3652708E-03
  0.1326531E+01  0.0000000E+00  0.1428571E+00 -0.3288100E-04  0.0000000E+00  0.3473908E-03
  0.1367347E+01  0.0000000E+00  0.1428571E+00 -0.3031021E-04  0.0000000E+00  0.3308935E-03
  0.1408163E+01  0.0000000E+00  0.1428571E+00 -0.2781207E-04  0.0000000E+00  0.3157389E-03
  0.1448980E+01  0.0000000E+00  0.1428571E+00 -0.2539832E-04  0.0000000E+00  0.3018803E-03
  0.1489796E+01  0.0000000E+00  0.1428571E+00 -0.2307524E-04  0.0000000E+00  0.2892669E-03
  0.1530612E+01  0.0000000E+00  0.1428571E+00 -0.2084468E-04  0.0000000E+00  0.2778472E-03
  0.1571429E+01  0.0000000E+00  0.1428571E+00 -0.1870499E-04  0.0000000E+00  0.2675699E-03
  0.1612245E+01  0.0000000E+00  0.1428571E+00 -0.1665187E-04  0.0000000E+00  0.2583865E-03
  0.1653061E+01  0.0000000E+00  0.1428571E+00 -0.1467919E-04  0.0000000E+00  0.2502515E-03
  0.1693878E+01  0.0000000E+00  0.1428571E+00 -0.1277953E-04  0.0000000E+00  0.2431238E-03
  0.1734694E+01  0.0000000E+00  0.1428571E+00 -0.1094474E-04  0.0000000E+00  0.2369666E-03
  0.1775510E+01  0.0000000E+00  0.1428571E+00 -0.9166226E-05  0.0000000E+00  0.2317477E-03
  0.1816326E+01  0.0000000E+00  0.1428571E+00 -0.7435244E-05  0.0000000E+00  0.2274400E-03
  0.1857143E+01  0.0000000E+00  0.1428571E+00 -0.5743017E-05  0.0000000E+00  0.2240207E-03
  0.1897959E+01  0.0000000E+00  0.1428571E+00 -0.4080818E-05  0.0000000E+00  0.2214718E-03
  0.1938776E+01  0.0000000E+00  0.1428571E+00 -0.2439994E-05  0.0000000E+00  0.2197799E-03
  0.1989796E+01  0.0000000E+00  0.1428571E+00 -0.8119676E-06  0.0000000E+00  0.2189362E-03
  0.2040816E-01  0.0000000E+00  0.1836735E+00  0.7553761E-06  0.0000000E+00  0.8581549E-03
  0.6122449E-01  0.0000000E+00  0.1836735E+00  0.2142756E-05  0.0000000E+00  0.8590489E-03
  0.1020408E+00  0.0000000E+00  0.1836735E+00  0.3163968E-05  0.0000000E+00  0.8607198E-03
  0.1428571E+00  0.0000000E+00  0.1836735E+00  0.3594535E-05  0.0000000E+00  0.8629382E-03
  0.1836735E+00  0.0000000E+00  0.1836735E+00  0.3240696E-05  0.0000000E+00  0.8653732E-03
  0.2244898E+00  0.0000000E+00  0.1836735E+00  0.1951013E-05  0.0000000E+00  0.8676078E-03
  0.2653061E+00  0.0000000E+00  0.1836735E+00 -0.3721117E-06  0.0000000E+00  0.8691619E-03
  0.3061225E+00  0.0000000E+00  0.1836735E+00 -0.3762760E-05  0.0000000E+00  0.8695189E-03
  0.3469388E+00  0.0000000E+00  0.1836735E+00 -0.8185145E-05  0.0000000E+00  0.8681596E-03
  0.3877551E+00  0.0000000E+00  0.1836735E+00 -0.1353220E-04  0.0000000E+00  0.8645969E-03
  0.4285714E+00  0.0000000E+00  0.1836735E+00 -0.1963017E-04  0.0000000E+00  0.8584122E-03
  0.4693878E+00  0.0000000E+00  0.1836735E+00 -0.2625000E-04  0.0000000E+00  0.8492874E-03
  0.5102041E+00  0.0000000E+00  0.1836735E+00 -0.3312477E-04  0.0000000E+00  0.8370299E-03
  0.5510204E+00  0.0000000E+00  0.1836735E+00 -0.3997135E-04  0.0000000E+00  0.8215864E-03
  0.5918368E+00  0.0000000E+00  0.1836735E+00 -0.4651351E-04  0.0000000E+00  0.8030451E-03
  0.6326531E+00  0.0000000E+00  0.1836735E+00 -0.5250330E-04  0.0000000E+00  0.7816249E-03
  0.6734694E+00  0.0000000E+00  0.1836735E+00 -0.5773792E-04  0.0000000E+00  0.7576546E-03
  0.7142857E+00  0.0000000E+00  0.1836735E+00 -0.6207030E-04  0.0000000E+00  0.7315446E-03
  0.7551020E+00  0.0000000E+00  0.1836735E+00 -0.6541294E-04  0.0000000E+00  0.7037563E-03
  0.7959183E+00  0.0000000E+00  0.1836735E+00 -0.6773561E-04  0.0000000E+00  0.6747712E-03
  0.8367347E+00  0.0000000E+00  0.1836735E+00 -0.6905833E-04  0.0000000E+00  0.6450645E-03
  0.8775510E+00  0.0000000E+00  0.1836735E+00 -0.6944154E-04  0.0000000E+00  0.6150832E-03
  0.9183673E+00  0.0000000E+00  0.1836735E+00 -0.6897499E-04  0.0000000E+00  0.5852307E-03
  0.9591837E+00  0.0000000E+00  0.1836735E+00 -0.6776701E-04  0.0000000E+00  0.5558573E-03
  0.1000000E+01  0.0000000E+00  0.1836735E+00 -0.6593480E-04  0.0000000E+00  0.5272562E-03
  0.1040816E+01  0.0000000E+00  0.1836735E+00 -0.6359665E-04  0.0000000E+00  0.4996626E-03
  0.1081633E+01  0.0000000E+00  0.1836735E+00 -0.6086588E-04  0.0000000E+00  0.4732575E-03
  0.1122449E+01  0.0000000E+00  0.1836735E+00 -0.5784678E-04  0.0000000E+00  0.4481718E-03
  0.1163265E+01  0.0000000E+00  0.1836735E+00 -0.5463200E-04  0.0000000E+00  0.4244927E-03
  0.1204082E+01  0.0000000E+00  0.1836735E+00 -0.5130135E-04  0.0000000E+00  0.4022701E-03
  0.1244898E+01  0.0000000E+00  0.1836735E+00 -0.4792145E-04  0.0000000E+00  0.3815231E-03
  0.1285714E+01  0.0000000E+00  0.1836735E+00 -0.4454616E-04  0.0000000E+00  0.3622462E-03
  0.1326531E+01  0.0000000E+00  0.1836735E+00 -0.4121744E-04  0.0000000E+00  0.3444150E-03
  0.1367347E+01  0.0000000E+00  0.1836735E+00 -0.3796644E-04  0.0000000E+00  0.3279912E-03
  0.1408163E+01  0.0000000E+00  0.1836735E+00 -0.3481480E-04  0.0000000E+00  0.3129268E-03
  0.1448980E+01  0.0000000E+00  0.1836735E+00 -0.3177599E-04  0.0000000E+00  0.2991682E-03
  0.1489796E+01  0.0000000E+00  0.1836735E+00 -0.2885662E-04  0.0000000E+00  0.2866593E-03
  0.1530612E+01  0.0000000E+00  0.1836735E+00 -0.2605784E-04  0.0000000E+00  0.2753438E-03
  0.1571429E+01  0.0000000E+00  0.1836735E+00 -0.2337649E-04  0.0000000E+00  0.2651672E-03
  0.1612245E+01  0.0000000E+00  0.1836735E+00 -0.2080624E-04  0.0000000E+00  0.2560783E-03
  0.1653061E+01  0.0000000E+00  0.1836735E+00 -0.1833860E-04  0.0000000E+00  0.2480300E-03
  0.1693878E+01  0.0000000E+00  0.1836735E+00 -0.1596366E-04  0.0000000E+00  0.2409801E-03
  0.1734694E+01  0.0000000E+00  0.1836735E+00 -0.1367071E-04  0.0000000E+00  0.2348911E-03
  0.1775510E+01  0.0000000E+00  0.1836735E+00 -0.1144868E-04  0.0000000E+00  0.2297307E-03
  0.1816326E+01  0.0000000E+00  0.1836735E+00 -0.9286386E-05  0.0000000E+00  0.2254715E-03
  0.1857143E+01  0.0000000E+00  0.1836735E+00 -0.7172710E-05  0.0000000E+00  0.2220909E-03
  0.1897959E+01  0.0000000E+00  0.1836735E+00 -0.5096654E-05  0.0000000E+00  0.2195709E-03
  0.1938776E+01  0.0000000E+00  0.1836735E+00 -0.3047354E-05  0.0000000E+00  0.2178982E-03
  0.1989796E+01  0.0000000E+00  0.1836735E+00 -0.1014062E-05  0.0000000E+00  0.2170641E-03
  0.2040816E-01  0.0000000E+00  0.2244898E+00  0.1078282E-05  0.0000000E+00  0.8564700E-03
  0.6122449E-01  0.0000000E+00  0.2244898E+00  0.3079267E-05  0.0000000E+00  0.8576399E-03
  0.1020408E+00  0.0000000E+00  0.2244898E+00  0.4618539E-05  0.0000000E+00  0.8598493E-03
  0.1428571E+00  0.0000000E+00  0.2244898E+00  0.5411570E-05  0.0000000E+00  0.8628423E-03
  0.1836735E+00  0.0000000E+00  0.2244898E+00  0.5210629E-05  0.0000000E+00  0.8662474E-03
  0.2244898E+00  0.0000000E+00  0.2244898E+00  0.3819574E-05  0.0000000E+00  0.8695941E-03
  0.2653061E+00  0.0000000E+00  0.2244898E+00  0.1109086E-05  0.0000000E+00  0.8723360E-03
  0.3061225E+00  0.0000000E+00  0.2244898E+00 -0.2969892E-05  0.0000000E+00  0.8738816E-03
  0.3469388E+00  0.0000000E+00  0.2244898E+00 -0.8376365E-05  0.0000000E+00  0.8736309E-03
  0.3877551E+00  0.0000000E+00  0.2244898E+00 -0.1497605E-04  0.0000000E+00  0.8710182E-03
  0.4285714E+00  0.0000000E+00  0.2244898E+00 -0.2254619E-04  0.0000000E+00  0.8655546E-03
  0.4693878E+00  0.0000000E+00  0.2244898E+00 -0.3078998E-04  0.0000000E+00  0.8568687E-03
  0.5102041E+00  0.0000000E+00  0.2244898E+00 -0.3935986E-04  0.0000000E+00  0.8447366E-03
  0.5510204E+00  0.0000000E+00  0.2244898E+00 -0.4788708E-04  0.0000000E+00  0.8291001E-03
  0.5918368E+00  0.0000000E+00  0.2244898E+00 -0.5601344E-04  0.0000000E+00  0.8100682E-03
  0.6326531E+00  0.0000000E+00  0.2244898E+00 -0.6342048E-04  0.0000000E+00  0.7879026E-03
  0.6734694E+00  0.0000000E+00  0.2244898E+00 -0.6985195E-04  0.0000000E+00  0.7629906E-03
  0.7142857E+00  0.0000000E+00  0.2244898E+00 -0.7512723E-04  0.0000000E+00  0.7358091E-03
  0.7551020E+00  0.0000000E+00  0.2244898E+00 -0.7914505E-04  0.0000000E+00  0.7068863E-03
  0.7959183E+00  0.0000000E+00  0.2244898E+00 -0.8187884E-04  0.0000000E+00  0.6767650E-03
  0.8367347E+00  0.0000000E+00  0.2244898E+00 -0.8336603E-04  0.0000000E+00  0.6459712E-03
  0.8775510E+00  0.0000000E+00  0.2244898E+00 -0.8369394E-04  0.0000000E+00  0.6149906E-03
  0.9183673E+00  0.0000000E+00  0.2244898E+00 -0.8298460E-04  0.0000000E+00  0.5842527E-03
  0.9591837E+00  0.0000000E+00  0.2244898E+00 -0.8138057E-04  0.0000000E+00  0.5541226E-03
  0.1000000E+01  0.0000000E+00  0.2244898E+00 -0.7903263E-04  0.0000000E+00  0.5248977E-03
  0.1040816E+01  0.0000000E+00  0.2244898E+00 -0.7609013E-04  0.0000000E+00  0.4968105E-03
  0.1081633E+01  0.0000000E+00  0.2244898E+00 -0.7269395E-04  0.0000000E+00  0.4700333E-03
  0.1122449E+01  0.0000000E+00  0.2244898E+00 -0.6897192E-04  0.0000000E+00  0.4446849E-03
  0.1163265E+01  0.0000000E+00  0.2244898E+00 -0.6503614E-04  0.0000000E+00  0.4208384E-03
  0.1204082E+01  0.0000000E+00  0.2244898E+00 -0.6098201E-04  0.0000000E+00  0.3985291E-03
  0.1244898E+01  0.0000000E+00  0.2244898E+00 -0.5688820E-04  0.0000000E+00  0.3777615E-03
  0.1285714E+01  0.0000000E+00  0.2244898E+00 -0.5281753E-04  0.0000000E+00  0.3585163E-03
  0.1326531E+01  0.0000000E+00  0.2244898E+00 -0.4881822E-04  0.0000000E+00  0.3407565E-03
  0.1367347E+01  0.0000000E+00  0.2244898E+00 -0.4492541E-04  0.0000000E+00  0.3244325E-03
  0.1408163E+01  0.0000000E+00  0.2244898E+00 -0.4116284E-04  0.0000000E+00  0.3094867E-03
  0.1448980E+01  0.0000000E+00  0.2244898E+00 -0.3754451E-04  0.0000000E+00  0.2958572E-03
  0.1489796E+01  0.0000000E+00  0.2244898E+00 -0.3407634E-04  0.0000000E+00  0.2834811E-03
  0.1530612E+01  0.0000000E+00  0.2244898E+00 -0.3075786E-04  0.0000000E+00  0.2722967E-03
  0.1571429E+01  0.0000000E+00  0.2244898E+00 -0.2758364E-04  0.0000000E+00  0.2622457E-03
  0.1612245E+01  0.0000000E+00  0.2244898E+00 -0.2454476E-04  0.0000000E+00  0.2532739E-03
  0.1653061E+01  0.0000000E+00  0.2244898E+00 -0.2162994E-04  0.0000000E+00  0.2453325E-03
  0.1693878E+01  0.0000000E+00  0.2244898E+00 -0.1882650E-04  0.0000000E+00  0.2383778E-03
  0.1734694E+01  0.0000000E+00  0.2244898E+00 -0.1612109E-04  0.0000000E+00  0.2323722E-03
  0.1775510E+01  0.0000000E+00  0.2244898E+00 -0.1350011E-04  0.0000000E+00  0.2272828E-03
  0.1816326E+01  0.0000000E+00  0.2244898E+00 -0.1095003E-04  0.0000000E+00  0.2230825E-03
  0.1857143E+01  0.0000000E+00  0.2244898E+00 -0.8457542E-05  0.0000000E+00  0.2197486E-03
  0.1897959E+01  0.0000000E+00  0.2244898E+00 -0.6009542E-05  0.0000000E+00  0.2172635E-03
  0.1938776E+01  0.0000000E+00  0.2244898E+00 -0.3593155E-05  0.0000000E+00  0.2156141E-03
  0.1989796E+01  0.0000000E+00  0.2244898E+00 -0.1195670E-05  0.0000000E+00  0.2147915E-03
  0.2040816E-01  0.0000000E+00  0.2653061E+00  0.1498087E-05  0.0000000E+00  0.8540840E-03
  0.6122449E-01  0.0000000E+00  0.2653061E+00  0.4303422E-05  0.0000000E+00  0.8555965E-03
  0.1020408E+00  0.0000000E+00  0.2653061E+00  0.6542100E-05  0.0000000E+00  0.8584758E-03
  0.1428571E+00  0.0000000E+00  0.2653061E+00  0.7862479E-05  0.0000000E+00  0.8624349E-03
  0.1836735E+00  0.0000000E+00  0.2653061E+00  0.7954923E-05  0.0000000E+00  0.8670545E-03
  0.2244898E+00  0.0000000E+00  0.2653061E+00  0.6570084E-05  0.0000000E+00  0.8717992E-03
  0.2653061E+00  0.0000000E+00  0.2653061E+00  0.3538733E-05  0.0000000E+00  0.8760414E-03
  0.3061225E+00  0.0000000E+00  0.2653061E+00 -0.1209643E-05  0.0000000E+00  0.8790943E-03
  0.3469388E+00  0.0000000E+00  0.2653061E+00 -0.7632071E-05  0.0000000E+00  0.8802551E-03
  0.3877551E+00  0.0000000E+00  0.2653061E+00 -0.1556533E-04  0.0000000E+00  0.8788547E-03
  0.4285714E+00  0.0000000E+00  0.2653061E+00 -0.2473010E-04  0.0000000E+00  0.8743119E-03
  0.4693878E+00  0.0000000E+00  0.2653061E+00 -0.3474874E-04  0.0000000E+00  0.8661838E-03
  0.5102041E+00  0.0000000E+00  0.2653061E+00 -0.4517587E-04  0.0000000E+00  0.8542057E-03
  0.5510204E+00  0.0000000E+00  0.2653061E+00 -0.5553864E-04  0.0000000E+00  0.8383137E-03
  0.5918368E+00  0.0000000E+00  0.2653061E+00 -0.6538012E-04  0.0000000E+00  0.8186463E-03
  0.6326531E+00  0.0000000E+00  0.2653061E+00 -0.7429894E-04  0.0000000E+00  0.7955244E-03
  0.6734694E+00  0.0000000E+00  0.2653061E+00 -0.8197902E-04  0.0000000E+00  0.7694147E-03
  0.7142857E+00  0.0000000E+00  0.2653061E+00 -0.8820581E-04  0.0000000E+00  0.7408827E-03
  0.7551020E+00  0.0000000E+00  0.2653061E+00 -0.9286901E-04  0.0000000E+00  0.7105440E-03
  0.7959183E+00  0.0000000E+00  0.2653061E+00 -0.9595391E-04  0.0000000E+00  0.6790191E-03
  0.8367347E+00  0.0000000E+00  0.2653061E+00 -0.9752515E-04  0.0000000E+00  0.6468970E-03
  0.8775510E+00  0.0000000E+00  0.2653061E+00 -0.9770673E-04  0.0000000E+00  0.6147095E-03
  0.9183673E+00  0.0000000E+00  0.2653061E+00 -0.9666172E-04  0.0000000E+00  0.5829155E-03
  0.9591837E+00  0.0000000E+00  0.2653061E+00 -0.9457386E-04  0.0000000E+00  0.5518940E-03
  0.1000000E+01  0.0000000E+00  0.2653061E+00 -0.9163247E-04  0.0000000E+00  0.5219451E-03
  0.1040816E+01  0.0000000E+00  0.2653061E+00 -0.8802111E-04  0.0000000E+00  0.4932943E-03
  0.1081633E+01  0.0000000E+00  0.2653061E+00 -0.8390972E-04  0.0000000E+00  0.4661011E-03
  0.1122449E+01  0.0000000E+00  0.2653061E+00 -0.7944988E-04  0.0000000E+00  0.4404676E-03
  0.1163265E+01  0.0000000E+00  0.2653061E+00 -0.7477252E-04  0.0000000E+00  0.4164485E-03
  0.1204082E+01  0.0000000E+00  0.2653061E+00 -0.6998737E-04  0.0000000E+00  0.3940606E-03
  0.1244898E+01  0.0000000E+00  0.2653061E+00 -0.6518364E-04  0.0000000E+00  0.3732902E-03
  0.1285714E+01  0.0000000E+00  0.2653061E+00 -0.6043143E-04  0.0000000E+00  0.3541015E-03
  0.1326531E+01  0.0000000E+00  0.2653061E+00 -0.5578359E-04  0.0000000E+00  0.3364423E-03