title = "dataset feddes"
variables = "x", "y", "z", "vx", "vy", "vz"
zone t = "velocities, solution time =  2.300E+01 days        " i =   49, j =   49, k =    1,  f=point
  0.2040816E-01  0.0000000E+00  0.2040816E-01  0.2569559E-07  0.0000000E+00  0.1890302E-02
  0.6122449E-01  0.0000000E+00  0.2040816E-01  0.7164573E-07  0.0000000E+00  0.1890511E-02
  0.1020408E+00  0.0000000E+00  0.2040816E-01  0.1019155E-06  0.0000000E+00  0.1890884E-02
  0.1428571E+00  0.0000000E+00  0.2040816E-01  0.1070087E-06  0.0000000E+00  0.1891332E-02
  0.1836735E+00  0.0000000E+00  0.2040816E-01  0.7880381E-07  0.0000000E+00  0.1891731E-02
  0.2244898E+00  0.0000000E+00  0.2040816E-01  0.1109612E-07  0.0000000E+00  0.1891924E-02
  0.2653061E+00  0.0000000E+00  0.2040816E-01 -0.9996137E-07  0.0000000E+00  0.1891734E-02
  0.3061225E+00  0.0000000E+00  0.2040816E-01 -0.2555196E-06  0.0000000E+00  0.1890970E-02
  0.3469388E+00  0.0000000E+00  0.2040816E-01 -0.4538499E-06  0.0000000E+00  0.1889446E-02
  0.3877551E+00  0.0000000E+00  0.2040816E-01 -0.6903579E-06  0.0000000E+00  0.1886989E-02
  0.4285714E+00  0.0000000E+00  0.2040816E-01 -0.9578295E-06  0.0000000E+00  0.1883449E-02
  0.4693878E+00  0.0000000E+00  0.2040816E-01 -0.1246905E-05  0.0000000E+00  0.1878713E-02
  0.5102041E+00  0.0000000E+00  0.2040816E-01 -0.1546754E-05  0.0000000E+00  0.1872713E-02
  0.5510204E+00  0.0000000E+00  0.2040816E-01 -0.1845884E-05  0.0000000E+00  0.1865426E-02
  0.5918368E+00  0.0000000E+00  0.2040816E-01 -0.2132993E-05  0.0000000E+00  0.1856881E-02
  0.6326531E+00  0.0000000E+00  0.2040816E-01 -0.2397768E-05  0.0000000E+00  0.1847149E-02
  0.6734694E+00  0.0000000E+00  0.2040816E-01 -0.2631540E-05  0.0000000E+00  0.1836348E-02
  0.7142857E+00  0.0000000E+00  0.2040816E-01 -0.2827735E-05  0.0000000E+00  0.1824622E-02
  0.7551020E+00  0.0000000E+00  0.2040816E-01 -0.2982087E-05  0.0000000E+00  0.1812144E-02
  0.7959183E+00  0.0000000E+00  0.2040816E-01 -0.3092635E-05  0.0000000E+00  0.1799098E-02
  0.8367347E+00  0.0000000E+00  0.2040816E-01 -0.3159527E-05  0.0000000E+00  0.1785670E-02
  0.8775510E+00  0.0000000E+00  0.2040816E-01 -0.3184698E-05  0.0000000E+00  0.1772045E-02
  0.9183673E+00  0.0000000E+00  0.2040816E-01 -0.3171464E-05  0.0000000E+00  0.1758394E-02
  0.9591837E+00  0.0000000E+00  0.2040816E-01 -0.3124104E-05  0.0000000E+00  0.1744873E-02
  0.1000000E+01  0.0000000E+00  0.2040816E-01 -0.3047459E-05  0.0000000E+00  0.1731619E-02
  0.1040816E+01  0.0000000E+00  0.2040816E-01 -0.2946585E-05  0.0000000E+00  0.1718746E-02
  0.1081633E+01  0.0000000E+00  0.2040816E-01 -0.2826468E-05  0.0000000E+00  0.1706348E-02
  0.1122449E+01  0.0000000E+00  0.2040816E-01 -0.2691809E-05  0.0000000E+00  0.1694497E-02
  0.1163265E+01  0.0000000E+00  0.2040816E-01 -0.2546881E-05  0.0000000E+00  0.1683247E-02
  0.1204082E+01  0.0000000E+00  0.2040816E-01 -0.2395441E-05  0.0000000E+00  0.1672633E-02
  0.1244898E+01  0.0000000E+00  0.2040816E-01 -0.2240683E-05  0.0000000E+00  0.1662677E-02
  0.1285714E+01  0.0000000E+00  0.2040816E-01 -0.2085241E-05  0.0000000E+00  0.1653387E-02
  0.1326531E+01  0.0000000E+00  0.2040816E-01 -0.1931207E-05  0.0000000E+00  0.1644762E-02
  0.1367347E+01  0.0000000E+00  0.2040816E-01 -0.1780173E-05  0.0000000E+00  0.1636792E-02
  0.1408163E+01  0.0000000E+00  0.2040816E-01 -0.1633279E-05  0.0000000E+00  0.1629462E-02
  0.1448980E+01  0.0000000E+00  0.2040816E-01 -0.1491276E-05  0.0000000E+00  0.1622752E-02
  0.1489796E+01  0.0000000E+00  0.2040816E-01 -0.1354580E-05  0.0000000E+00  0.1616640E-02
  0.1530612E+01  0.0000000E+00  0.2040816E-01 -0.1223337E-05  0.0000000E+00  0.1611105E-02
  0.1571429E+01  0.0000000E+00  0.2040816E-01 -0.1097476E-05  0.0000000E+00  0.1606121E-02
  0.1612245E+01  0.0000000E+00  0.2040816E-01 -0.9767605E-06  0.0000000E+00  0.1601667E-02
  0.1653061E+01  0.0000000E+00  0.2040816E-01 -0.8608374E-06  0.0000000E+00  0.1597720E-02
  0.1693878E+01  0.0000000E+00  0.2040816E-01 -0.7492709E-06  0.0000000E+00  0.1594263E-02
  0.1734694E+01  0.0000000E+00  0.2040816E-01 -0.6415754E-06  0.0000000E+00  0.1591276E-02
  0.1775510E+01  0.0000000E+00  0.2040816E-01 -0.5372374E-06  0.0000000E+00  0.1588745E-02
  0.1816326E+01  0.0000000E+00  0.2040816E-01 -0.4357319E-06  0.0000000E+00  0.1586655E-02
  0.1857143E+01  0.0000000E+00  0.2040816E-01 -0.3365324E-06  0.0000000E+00  0.1584997E-02
  0.1897959E+01  0.0000000E+00  0.2040816E-01 -0.2391171E-06  0.0000000E+00  0.1583761E-02
  0.1938776E+01  0.0000000E+00  0.2040816E-01 -0.1429706E-06  0.0000000E+00  0.1582940E-02
  0.1989796E+01  0.0000000E+00  0.2040816E-01 -0.4758553E-07  0.0000000E+00  0.1582531E-02
  0.2040816E-01  0.0000000E+00  0.6122449E-01  0.8982136E-07  0.0000000E+00  0.1890166E-02
  0.6122449E-01  0.0000000E+00  0.6122449E-01  0.2511401E-06  0.0000000E+00  0.1890396E-02
  0.1020408E+00  0.0000000E+00  0.6122449E-01  0.3593973E-06  0.0000000E+00  0.1890810E-02
  0.1428571E+00  0.0000000E+00  0.6122449E-01  0.3824569E-06  0.0000000E+00  0.1891317E-02
  0.1836735E+00  0.0000000E+00  0.6122449E-01  0.2927888E-06  0.0000000E+00  0.1891789E-02
  0.2244898E+00  0.0000000E+00  0.6122449E-01  0.6932169E-07  0.0000000E+00  0.1892065E-02
  0.2653061E+00  0.0000000E+00  0.6122449E-01 -0.3010566E-06  0.0000000E+00  0.1891962E-02
  0.3061225E+00  0.0000000E+00  0.6122449E-01 -0.8223298E-06  0.0000000E+00  0.1891286E-02
  0.3469388E+00  0.0000000E+00  0.6122449E-01 -0.1488707E-05  0.0000000E+00  0.1889843E-02
  0.3877551E+00  0.0000000E+00  0.6122449E-01 -0.2284651E-05  0.0000000E+00  0.1887454E-02
  0.4285714E+00  0.0000000E+00  0.6122449E-01 -0.3185692E-05  0.0000000E+00  0.1883967E-02
  0.4693878E+00  0.0000000E+00  0.6122449E-01 -0.4160044E-05  0.0000000E+00  0.1879264E-02
  0.5102041E+00  0.0000000E+00  0.6122449E-01 -0.5170901E-05  0.0000000E+00  0.1873274E-02
  0.5510204E+00  0.0000000E+00  0.6122449E-01 -0.6179214E-05  0.0000000E+00  0.1865974E-02
  0.5918368E+00  0.0000000E+00  0.6122449E-01 -0.7146609E-05  0.0000000E+00  0.1857394E-02
  0.6326531E+00  0.0000000E+00  0.6122449E-01 -0.8038125E-05  0.0000000E+00  0.1847609E-02
  0.6734694E+00  0.0000000E+00  0.6122449E-01 -0.8824451E-05  0.0000000E+00  0.1836739E-02
  0.7142857E+00  0.0000000E+00  0.6122449E-01 -0.9483447E-05  0.0000000E+00  0.1824934E-02
  0.7551020E+00  0.0000000E+00  0.6122449E-01 -0.1000086E-04  0.0000000E+00  0.1812370E-02
  0.7959183E+00  0.0000000E+00  0.6122449E-01 -0.1037028E-04  0.0000000E+00  0.1799236E-02
  0.8367347E+00  0.0000000E+00  0.6122449E-01 -0.1059244E-04  0.0000000E+00  0.1785722E-02
  0.8775510E+00  0.0000000E+00  0.6122449E-01 -0.1067411E-04  0.0000000E+00  0.1772017E-02
  0.9183673E+00  0.0000000E+00  0.6122449E-01 -0.1062669E-04  0.0000000E+00  0.1758293E-02
  0.9591837E+00  0.0000000E+00  0.6122449E-01 -0.1046477E-04  0.0000000E+00  0.1744709E-02
  0.1000000E+01  0.0000000E+00  0.6122449E-01 -0.1020481E-04  0.0000000E+00  0.1731401E-02
  0.1040816E+01  0.0000000E+00  0.6122449E-01 -0.9863902E-05  0.0000000E+00  0.1718485E-02
  0.1081633E+01  0.0000000E+00  0.6122449E-01 -0.9458883E-05  0.0000000E+00  0.1706053E-02
  0.1122449E+01  0.0000000E+00  0.6122449E-01 -0.9005575E-05  0.0000000E+00  0.1694177E-02
  0.1163265E+01  0.0000000E+00  0.6122449E-01 -0.8518329E-05  0.0000000E+00  0.1682910E-02
  0.1204082E+01  0.0000000E+00  0.6122449E-01 -0.8009726E-05  0.0000000E+00  0.1672286E-02
  0.1244898E+01  0.0000000E+00  0.6122449E-01 -0.7490455E-05  0.0000000E+00  0.1662326E-02
  0.1285714E+01  0.0000000E+00  0.6122449E-01 -0.6969300E-05  0.0000000E+00  0.1653036E-02
  0.1326531E+01  0.0000000E+00  0.6122449E-01 -0.6453226E-05  0.0000000E+00  0.1644415E-02
  0.1367347E+01  0.0000000E+00  0.6122449E-01 -0.5947511E-05  0.0000000E+00  0.1636452E-02
  0.1408163E+01  0.0000000E+00  0.6122449E-01 -0.5455930E-05  0.0000000E+00  0.1629131E-02
  0.1448980E+01  0.0000000E+00  0.6122449E-01 -0.4980942E-05  0.0000000E+00  0.1622431E-02
  0.1489796E+01  0.0000000E+00  0.6122449E-01 -0.4523899E-05  0.0000000E+00  0.1616330E-02
  0.1530612E+01  0.0000000E+00  0.6122449E-01 -0.4085244E-05  0.0000000E+00  0.1610805E-02
  0.1571429E+01  0.0000000E+00  0.6122449E-01 -0.3664701E-05  0.0000000E+00  0.1605832E-02
  0.1612245E+01  0.0000000E+00  0.6122449E-01 -0.3261449E-05  0.0000000E+00  0.1601388E-02
  0.1653061E+01  0.0000000E+00  0.6122449E-01 -0.2874275E-05  0.0000000E+00  0.1597451E-02
  0.1693878E+01  0.0000000E+00  0.6122449E-01 -0.2501703E-05  0.0000000E+00  0.1594001E-02
  0.1734694E+01  0.0000000E+00  0.6122449E-01 -0.2142091E-05  0.0000000E+00  0.1591022E-02
  0.1775510E+01  0.0000000E+00  0.6122449E-01 -0.1793711E-05  0.0000000E+00  0.1588497E-02
  0.1816326E+01  0.0000000E+00  0.6122449E-01 -0.1454800E-05  0.0000000E+00  0.1586412E-02
  0.1857143E+01  0.0000000E+00  0.6122449E-01 -0.1123595E-05  0.0000000E+00  0.1584758E-02
  0.1897959E+01  0.0000000E+00  0.6122449E-01 -0.7983492E-06  0.0000000E+00  0.1583525E-02
  0.1938776E+01  0.0000000E+00  0.6122449E-01 -0.4773391E-06  0.0000000E+00  0.1582706E-02
  0.1989796E+01  0.0000000E+00  0.6122449E-01 -0.1588670E-06  0.0000000E+00  0.1582298E-02
  0.2040816E-01  0.0000000E+00  0.1020408E+00  0.1725993E-06  0.0000000E+00  0.1889771E-02
  0.6122449E-01  0.0000000E+00  0.1020408E+00  0.4848780E-06  0.0000000E+00  0.1890051E-02
  0.1020408E+00  0.0000000E+00  0.1020408E+00  0.7013364E-06  0.0000000E+00  0.1890562E-02
  0.1428571E+00  0.0000000E+00  0.1020408E+00  0.7638693E-06  0.0000000E+00  0.1891209E-02
  0.1836735E+00  0.0000000E+00  0.1020408E+00  0.6225669E-06  0.0000000E+00  0.1891855E-02
  0.2244898E+00  0.0000000E+00  0.1020408E+00  0.2390739E-06  0.0000000E+00  0.1892328E-02
  0.2653061E+00  0.0000000E+00  0.1020408E+00 -0.4106535E-06  0.0000000E+00  0.1892435E-02
  0.3061225E+00  0.0000000E+00  0.1020408E+00 -0.1334153E-05  0.0000000E+00  0.1891968E-02
  0.3469388E+00  0.0000000E+00  0.1020408E+00 -0.2521191E-05  0.0000000E+00  0.1890719E-02
  0.3877551E+00  0.0000000E+00  0.1020408E+00 -0.3943732E-05  0.0000000E+00  0.1888496E-02
  0.4285714E+00  0.0000000E+00  0.1020408E+00 -0.5557362E-05  0.0000000E+00  0.1885134E-02
  0.4693878E+00  0.0000000E+00  0.1020408E+00 -0.7304216E-05  0.0000000E+00  0.1880508E-02
  0.5102041E+00  0.0000000E+00  0.1020408E+00 -0.9117207E-05  0.0000000E+00  0.1874541E-02
  0.5510204E+00  0.0000000E+00  0.1020408E+00 -0.1092517E-04  0.0000000E+00  0.1867210E-02
  0.5918368E+00  0.0000000E+00  0.1020408E+00 -0.1265830E-04  0.0000000E+00  0.1858547E-02
  0.6326531E+00  0.0000000E+00  0.1020408E+00 -0.1425317E-04  0.0000000E+00  0.1848634E-02
  0.6734694E+00  0.0000000E+00  0.1020408E+00 -0.1565690E-04  0.0000000E+00  0.1837599E-02
  0.7142857E+00  0.0000000E+00  0.1020408E+00 -0.1682991E-04  0.0000000E+00  0.1825604E-02
  0.7551020E+00  0.0000000E+00  0.1020408E+00 -0.1774709E-04  0.0000000E+00  0.1812836E-02
  0.7959183E+00  0.0000000E+00  0.1020408E+00 -0.1839769E-04  0.0000000E+00  0.1799493E-02
  0.8367347E+00  0.0000000E+00  0.1020408E+00 -0.1878393E-04  0.0000000E+00  0.1785776E-02
  0.8775510E+00  0.0000000E+00  0.1020408E+00 -0.1891881E-04  0.0000000E+00  0.1771881E-02
  0.9183673E+00  0.0000000E+00  0.1020408E+00 -0.1882359E-04  0.0000000E+00  0.1757985E-02
  0.9591837E+00  0.0000000E+00  0.1020408E+00 -0.1852507E-04  0.0000000E+00  0.1744251E-02
  0.1000000E+01  0.0000000E+00  0.1020408E+00 -0.1805318E-04  0.0000000E+00  0.1730817E-02
  0.1040816E+01  0.0000000E+00  0.1020408E+00 -0.1743884E-04  0.0000000E+00  0.1717798E-02
  0.1081633E+01  0.0000000E+00  0.1020408E+00 -0.1671227E-04  0.0000000E+00  0.1705287E-02
  0.1122449E+01  0.0000000E+00  0.1020408E+00 -0.1590177E-04  0.0000000E+00  0.1693353E-02
  0.1163265E+01  0.0000000E+00  0.1020408E+00 -0.1503284E-04  0.0000000E+00  0.1682047E-02
  0.1204082E+01  0.0000000E+00  0.1020408E+00 -0.1412777E-04  0.0000000E+00  0.1671400E-02
  0.1244898E+01  0.0000000E+00  0.1020408E+00 -0.1320542E-04  0.0000000E+00  0.1661431E-02
  0.1285714E+01  0.0000000E+00  0.1020408E+00 -0.1228120E-04  0.0000000E+00  0.1652143E-02
  0.1326531E+01  0.0000000E+00  0.1020408E+00 -0.1136727E-04  0.0000000E+00  0.1643533E-02
  0.1367347E+01  0.0000000E+00  0.1020408E+00 -0.1047280E-04  0.0000000E+00  0.1635587E-02
  0.1408163E+01  0.0000000E+00  0.1020408E+00 -0.9604295E-05  0.0000000E+00  0.1628287E-02
  0.1448980E+01  0.0000000E+00  0.1020408E+00 -0.8765922E-05  0.0000000E+00  0.1621611E-02
  0.1489796E+01  0.0000000E+00  0.1020408E+00 -0.7959906E-05  0.0000000E+00  0.1615535E-02
  0.1530612E+01  0.0000000E+00  0.1020408E+00 -0.7186875E-05  0.0000000E+00  0.1610036E-02
  0.1571429E+01  0.0000000E+00  0.1020408E+00 -0.6446205E-05  0.0000000E+00  0.1605087E-02
  0.1612245E+01  0.0000000E+00  0.1020408E+00 -0.5736330E-05  0.0000000E+00  0.1600666E-02
  0.1653061E+01  0.0000000E+00  0.1020408E+00 -0.5055009E-05  0.0000000E+00  0.1596750E-02
  0.1693878E+01  0.0000000E+00  0.1020408E+00 -0.4399558E-05  0.0000000E+00  0.1593320E-02
  0.1734694E+01  0.0000000E+00  0.1020408E+00 -0.3767023E-05  0.0000000E+00  0.1590357E-02
  0.1775510E+01  0.0000000E+00  0.1020408E+00 -0.3154317E-05  0.0000000E+00  0.1587846E-02
  0.1816326E+01  0.0000000E+00  0.1020408E+00 -0.2558306E-05  0.0000000E+00  0.1585774E-02
  0.1857143E+01  0.0000000E+00  0.1020408E+00 -0.1975865E-05  0.0000000E+00  0.1584129E-02
  0.1897959E+01  0.0000000E+00  0.1020408E+00 -0.1403910E-05  0.0000000E+00  0.1582903E-02
  0.1938776E+01  0.0000000E+00  0.1020408E+00 -0.8394033E-06  0.0000000E+00  0.1582089E-02
  0.1989796E+01  0.0000000E+00  0.1020408E+00 -0.2793527E-06  0.0000000E+00  0.1581683E-02
  0.2040816E-01  0.0000000E+00  0.1428571E+00  0.2725604E-06  0.0000000E+00  0.1889031E-02
  0.6122449E-01  0.0000000E+00  0.1428571E+00  0.7703434E-06  0.0000000E+00  0.1889389E-02
  0.1020408E+00  0.0000000E+00  0.1428571E+00  0.1129792E-05  0.0000000E+00  0.1890052E-02
  0.1428571E+00  0.0000000E+00  0.1428571E+00  0.1266780E-05  0.0000000E+00  0.1890917E-02
  0.1836735E+00  0.0000000E+00  0.1428571E+00  0.1108758E-05  0.0000000E+00  0.1891835E-02
  0.2244898E+00  0.0000000E+00  0.1428571E+00  0.5995905E-06  0.0000000E+00  0.1892620E-02
  0.2653061E+00  0.0000000E+00  0.1428571E+00 -0.2963403E-06  0.0000000E+00  0.1893057E-02
  0.3061225E+00  0.0000000E+00  0.1428571E+00 -0.1590769E-05  0.0000000E+00  0.1892917E-02
  0.3469388E+00  0.0000000E+00  0.1428571E+00 -0.3269479E-05  0.0000000E+00  0.1891973E-02
  0.3877551E+00  0.0000000E+00  0.1428571E+00 -0.5292050E-05  0.0000000E+00  0.1890011E-02
  0.4285714E+00  0.0000000E+00  0.1428571E+00 -0.7593795E-05  0.0000000E+00  0.1886847E-02
  0.4693878E+00  0.0000000E+00  0.1428571E+00 -0.1009001E-04  0.0000000E+00  0.1882343E-02
  0.5102041E+00  0.0000000E+00  0.1428571E+00 -0.1268229E-04  0.0000000E+00  0.1876412E-02
  0.5510204E+00  0.0000000E+00  0.1428571E+00 -0.1526625E-04  0.0000000E+00  0.1869031E-02
  0.5918368E+00  0.0000000E+00  0.1428571E+00 -0.1773975E-04  0.0000000E+00  0.1860236E-02
  0.6326531E+00  0.0000000E+00  0.1428571E+00 -0.2001051E-04  0.0000000E+00  0.1850121E-02
  0.6734694E+00  0.0000000E+00  0.1428571E+00 -0.2200222E-04  0.0000000E+00  0.1838826E-02
  0.7142857E+00  0.0000000E+00  0.1428571E+00 -0.2365857E-04  0.0000000E+00  0.1826533E-02
  0.7551020E+00  0.0000000E+00  0.1428571E+00 -0.2494485E-04  0.0000000E+00  0.1813445E-02
  0.7959183E+00  0.0000000E+00  0.1428571E+00 -0.2584745E-04  0.0000000E+00  0.1799777E-02
  0.8367347E+00  0.0000000E+00  0.1428571E+00 -0.2637157E-04  0.0000000E+00  0.1785746E-02
  0.8775510E+00  0.0000000E+00  0.1428571E+00 -0.2653790E-04  0.0000000E+00  0.1771556E-02
  0.9183673E+00  0.0000000E+00  0.1428571E+00 -0.2637862E-04  0.0000000E+00  0.1757397E-02
  0.9591837E+00  0.0000000E+00  0.1428571E+00 -0.2593350E-04  0.0000000E+00  0.1743434E-02
  0.1000000E+01  0.0000000E+00  0.1428571E+00 -0.2524628E-04  0.0000000E+00  0.1729807E-02
  0.1040816E+01  0.0000000E+00  0.1428571E+00 -0.2436166E-04  0.0000000E+00  0.1716634E-02
  0.1081633E+01  0.0000000E+00  0.1428571E+00 -0.2332290E-04  0.0000000E+00  0.1704004E-02
  0.1122449E+01  0.0000000E+00  0.1428571E+00 -0.2217018E-04  0.0000000E+00  0.1691983E-02
  0.1163265E+01  0.0000000E+00  0.1428571E+00 -0.2093948E-04  0.0000000E+00  0.1680619E-02
  0.1204082E+01  0.0000000E+00  0.1428571E+00 -0.1966199E-04  0.0000000E+00  0.1669940E-02
  0.1244898E+01  0.0000000E+00  0.1428571E+00 -0.1836389E-04  0.0000000E+00  0.1659959E-02
  0.1285714E+01  0.0000000E+00  0.1428571E+00 -0.1706648E-04  0.0000000E+00  0.1650676E-02
  0.1326531E+01  0.0000000E+00  0.1428571E+00 -0.1578640E-04  0.0000000E+00  0.1642083E-02
  0.1367347E+01  0.0000000E+00  0.1428571E+00 -0.1453607E-04  0.0000000E+00  0.1634164E-02
  0.1408163E+01  0.0000000E+00  0.1428571E+00 -0.1332419E-04  0.0000000E+00  0.1626898E-02
  0.1448980E+01  0.0000000E+00  0.1428571E+00 -0.1215617E-04  0.0000000E+00  0.1620259E-02
  0.1489796E+01  0.0000000E+00  0.1428571E+00 -0.1103475E-04  0.0000000E+00  0.1614223E-02
  0.1530612E+01  0.0000000E+00  0.1428571E+00 -0.9960469E-05  0.0000000E+00  0.1608762E-02
  0.1571429E+01  0.0000000E+00  0.1428571E+00 -0.8932141E-05  0.0000000E+00  0.1603851E-02
  0.1612245E+01  0.0000000E+00  0.1428571E+00 -0.7947314E-05  0.0000000E+00  0.1599465E-02
  0.1653061E+01  0.0000000E+00  0.1428571E+00 -0.7002649E-05  0.0000000E+00  0.1595582E-02
  0.1693878E+01  0.0000000E+00  0.1428571E+00 -0.6094233E-05  0.0000000E+00  0.1592180E-02
  0.1734694E+01  0.0000000E+00  0.1428571E+00 -0.5217826E-05  0.0000000E+00  0.1589243E-02
  0.1775510E+01  0.0000000E+00  0.1428571E+00 -0.4369041E-05  0.0000000E+00  0.1586754E-02
  0.1816326E+01  0.0000000E+00  0.1428571E+00 -0.3543465E-05  0.0000000E+00  0.1584700E-02
  0.1857143E+01  0.0000000E+00  0.1428571E+00 -0.2736725E-05  0.0000000E+00  0.1583069E-02
  0.1897959E+01  0.0000000E+00  0.1428571E+00 -0.1944521E-05  0.0000000E+00  0.1581854E-02
  0.1938776E+01  0.0000000E+00  0.1428571E+00 -0.1162632E-05  0.0000000E+00  0.1581047E-02
  0.1989796E+01  0.0000000E+00  0.1428571E+00 -0.3869065E-06  0.0000000E+00  0.1580645E-02
  0.2040816E-01  0.0000000E+00  0.1836735E+00  0.4000904E-06  0.0000000E+00  0.1887839E-02
  0.6122449E-01  0.0000000E+00  0.1836735E+00  0.1137988E-05  0.0000000E+00  0.1888304E-02
  0.1020408E+00  0.0000000E+00  0.1836735E+00  0.1693332E-05  0.0000000E+00  0.1889176E-02
  0.1428571E+00  0.0000000E+00  0.1836735E+00  0.1954633E-05  0.0000000E+00  0.1890340E-02
  0.1836735E+00  0.0000000E+00  0.1836735E+00  0.1825170E-05  0.0000000E+00  0.1891632E-02
  0.2244898E+00  0.0000000E+00  0.1836735E+00  0.1229370E-05  0.0000000E+00  0.1892844E-02
  0.2653061E+00  0.0000000E+00  0.1836735E+00  0.1184441E-06  0.0000000E+00  0.1893736E-02
  0.3061225E+00  0.0000000E+00  0.1836735E+00 -0.1524781E-05  0.0000000E+00  0.1894051E-02
  0.3469388E+00  0.0000000E+00  0.1836735E+00 -0.3682679E-05  0.0000000E+00  0.1893529E-02
  0.3877551E+00  0.0000000E+00  0.1836735E+00 -0.6302051E-05  0.0000000E+00  0.1891929E-02
  0.4285714E+00  0.0000000E+00  0.1836735E+00 -0.9296433E-05  0.0000000E+00  0.1889039E-02
  0.4693878E+00  0.0000000E+00  0.1836735E+00 -0.1255176E-04  0.0000000E+00  0.1884702E-02
  0.5102041E+00  0.0000000E+00  0.1836735E+00 -0.1593505E-04  0.0000000E+00  0.1878821E-02
  0.5510204E+00  0.0000000E+00  0.1836735E+00 -0.1930528E-04  0.0000000E+00  0.1871369E-02
  0.5918368E+00  0.0000000E+00  0.1836735E+00 -0.2252490E-04  0.0000000E+00  0.1862390E-02
  0.6326531E+00  0.0000000E+00  0.1836735E+00 -0.2547057E-04  0.0000000E+00  0.1851992E-02
  0.6734694E+00  0.0000000E+00  0.1836735E+00 -0.2804153E-04  0.0000000E+00  0.1840339E-02
  0.7142857E+00  0.0000000E+00  0.1836735E+00 -0.3016498E-04  0.0000000E+00  0.1827634E-02
  0.7551020E+00  0.0000000E+00  0.1836735E+00 -0.3179786E-04  0.0000000E+00  0.1814108E-02
  0.7959183E+00  0.0000000E+00  0.1836735E+00 -0.3292572E-04  0.0000000E+00  0.1799999E-02
  0.8367347E+00  0.0000000E+00  0.1836735E+00 -0.3355920E-04  0.0000000E+00  0.1785541E-02
  0.8775510E+00  0.0000000E+00  0.1836735E+00 -0.3372898E-04  0.0000000E+00  0.1770958E-02
  0.9183673E+00  0.0000000E+00  0.1836735E+00 -0.3348033E-04  0.0000000E+00  0.1756446E-02
  0.9591837E+00  0.0000000E+00  0.1836735E+00 -0.3286760E-04  0.0000000E+00  0.1742180E-02
  0.1000000E+01  0.0000000E+00  0.1836735E+00 -0.3194947E-04  0.0000000E+00  0.1728302E-02
  0.1040816E+01  0.0000000E+00  0.1836735E+00 -0.3078502E-04  0.0000000E+00  0.1714927E-02
  0.1081633E+01  0.0000000E+00  0.1836735E+00 -0.2943072E-04  0.0000000E+00  0.1702143E-02
  0.1122449E+01  0.0000000E+00  0.1836735E+00 -0.2793840E-04  0.0000000E+00  0.1690013E-02
  0.1163265E+01  0.0000000E+00  0.1836735E+00 -0.2635403E-04  0.0000000E+00  0.1678578E-02
  0.1204082E+01  0.0000000E+00  0.1836735E+00 -0.2471705E-04  0.0000000E+00  0.1667860E-02
  0.1244898E+01  0.0000000E+00  0.1836735E+00 -0.2306028E-04  0.0000000E+00  0.1657867E-02
  0.1285714E+01  0.0000000E+00  0.1836735E+00 -0.2141012E-04  0.0000000E+00  0.1648595E-02
  0.1326531E+01  0.0000000E+00  0.1836735E+00 -0.1978699E-04  0.0000000E+00  0.1640028E-02
  0.1367347E+01  0.0000000E+00  0.1836735E+00 -0.1820590E-04  0.0000000E+00  0.1632147E-02
  0.1408163E+01  0.0000000E+00  0.1836735E+00 -0.1667712E-04  0.0000000E+00  0.1624927E-02
  0.1448980E+01  0.0000000E+00  0.1836735E+00 -0.1520683E-04  0.0000000E+00  0.1618339E-02
  0.1489796E+01  0.0000000E+00  0.1836735E+00 -0.1379781E-04  0.0000000E+00  0.1612355E-02
  0.1530612E+01  0.0000000E+00  0.1836735E+00 -0.1245014E-04  0.0000000E+00  0.1606947E-02
  0.1571429E+01  0.0000000E+00  0.1836735E+00 -0.1116179E-04  0.0000000E+00  0.1602086E-02
  0.1612245E+01  0.0000000E+00  0.1836735E+00 -0.9929198E-05  0.0000000E+00  0.1597747E-02
  0.1653061E+01  0.0000000E+00  0.1836735E+00 -0.8747786E-05  0.0000000E+00  0.1593906E-02
  0.1693878E+01  0.0000000E+00  0.1836735E+00 -0.7612328E-05  0.0000000E+00  0.1590543E-02
  0.1734694E+01  0.0000000E+00  0.1836735E+00 -0.6517276E-05  0.0000000E+00  0.1587639E-02
  0.1775510E+01  0.0000000E+00  0.1836735E+00 -0.5456969E-05  0.0000000E+00  0.1585179E-02
  0.1816326E+01  0.0000000E+00  0.1836735E+00 -0.4425773E-05  0.0000000E+00  0.1583148E-02
  0.1857143E+01  0.0000000E+00  0.1836735E+00 -0.3418154E-05  0.0000000E+00  0.1581536E-02
  0.1897959E+01  0.0000000E+00  0.1836735E+00 -0.2428700E-05  0.0000000E+00  0.1580335E-02
  0.1938776E+01  0.0000000E+00  0.1836735E+00 -0.1452122E-05  0.0000000E+00  0.1579537E-02
  0.1989796E+01  0.0000000E+00  0.1836735E+00 -0.4832329E-06  0.0000000E+00  0.1579139E-02
  0.2040816E-01  0.0000000E+00  0.2244898E+00  0.5652384E-06  0.0000000E+00  0.1886071E-02
  0.6122449E-01  0.0000000E+00  0.2244898E+00  0.1617408E-05  0.0000000E+00  0.1886673E-02
  0.1020408E+00  0.0000000E+00  0.2244898E+00  0.2439462E-05  0.0000000E+00  0.1887813E-02
  0.1428571E+00  0.0000000E+00  0.2244898E+00  0.2890046E-05  0.0000000E+00  0.1889364E-02
  0.1836735E+00  0.0000000E+00  0.2244898E+00  0.2845527E-05  0.0000000E+00  0.1891139E-02
  0.2244898E+00  0.0000000E+00  0.2244898E+00  0.2208013E-05  0.0000000E+00  0.1892905E-02
  0.2653061E+00  0.0000000E+00  0.2244898E+00  0.9128430E-06  0.0000000E+00  0.1894389E-02
  0.3061225E+00  0.0000000E+00  0.2244898E+00 -0.1064668E-05  0.0000000E+00  0.1895297E-02
  0.3469388E+00  0.0000000E+00  0.2244898E+00 -0.3704392E-05  0.0000000E+00  0.1895328E-02
  0.3877551E+00  0.0000000E+00  0.2244898E+00 -0.6939611E-05  0.0000000E+00  0.1894201E-02
  0.4285714E+00  0.0000000E+00  0.2244898E+00 -0.1065945E-04  0.0000000E+00  0.1891671E-02
  0.4693878E+00  0.0000000E+00  0.2244898E+00 -0.1471608E-04  0.0000000E+00  0.1887553E-02
  0.5102041E+00  0.0000000E+00  0.2244898E+00 -0.1893628E-04  0.0000000E+00  0.1881734E-02
  0.5510204E+00  0.0000000E+00  0.2244898E+00 -0.2313631E-04  0.0000000E+00  0.1874186E-02
  0.5918368E+00  0.0000000E+00  0.2244898E+00 -0.2713773E-04  0.0000000E+00  0.1864962E-02
  0.6326531E+00  0.0000000E+00  0.2244898E+00 -0.3078206E-04  0.0000000E+00  0.1854192E-02
  0.6734694E+00  0.0000000E+00  0.2244898E+00 -0.3394199E-04  0.0000000E+00  0.1842070E-02
  0.7142857E+00  0.0000000E+00  0.2244898E+00 -0.3652808E-04  0.0000000E+00  0.1828832E-02
  0.7551020E+00  0.0000000E+00  0.2244898E+00 -0.3849059E-04  0.0000000E+00  0.1814741E-02
  0.7959183E+00  0.0000000E+00  0.2244898E+00 -0.3981708E-04  0.0000000E+00  0.1800067E-02
  0.8367347E+00  0.0000000E+00  0.2244898E+00 -0.4052703E-04  0.0000000E+00  0.1785070E-02
  0.8775510E+00  0.0000000E+00  0.2244898E+00 -0.4066471E-04  0.0000000E+00  0.1769991E-02
  0.9183673E+00  0.0000000E+00  0.2244898E+00 -0.4029158E-04  0.0000000E+00  0.1755042E-02
  0.9591837E+00  0.0000000E+00  0.2244898E+00 -0.3947918E-04  0.0000000E+00  0.1740401E-02
  0.1000000E+01  0.0000000E+00  0.2244898E+00 -0.3830295E-04  0.0000000E+00  0.1726216E-02
  0.1040816E+01  0.0000000E+00  0.2244898E+00 -0.3683747E-04  0.0000000E+00  0.1712600E-02
  0.1081633E+01  0.0000000E+00  0.2244898E+00 -0.3515293E-04  0.0000000E+00  0.1699634E-02
  0.1122449E+01  0.0000000E+00  0.2244898E+00 -0.3331287E-04  0.0000000E+00  0.1687377E-02
  0.1163265E+01  0.0000000E+00  0.2244898E+00 -0.3137285E-04  0.0000000E+00  0.1675862E-02
  0.1204082E+01  0.0000000E+00  0.2244898E+00 -0.2938003E-04  0.0000000E+00  0.1665105E-02
  0.1244898E+01  0.0000000E+00  0.2244898E+00 -0.2737312E-04  0.0000000E+00  0.1655104E-02
  0.1285714E+01  0.0000000E+00  0.2244898E+00 -0.2538290E-04  0.0000000E+00  0.1645850E-02
  0.1326531E+01  0.0000000E+00  0.2244898E+00 -0.2343279E-04  0.0000000E+00  0.1637321E-02
  0.1367347E+01  0.0000000E+00  0.2244898E+00 -0.2153970E-04  0.0000000E+00  0.1629492E-02
  0.1408163E+01  0.0000000E+00  0.2244898E+00 -0.1971480E-04  0.0000000E+00  0.1622331E-02
  0.1448980E+01  0.0000000E+00  0.2244898E+00 -0.1796443E-04  0.0000000E+00  0.1615809E-02
  0.1489796E+01  0.0000000E+00  0.2244898E+00 -0.1629093E-04  0.0000000E+00  0.1609892E-02
  0.1530612E+01  0.0000000E+00  0.2244898E+00 -0.1469346E-04  0.0000000E+00  0.1604548E-02
  0.1571429E+01  0.0000000E+00  0.2244898E+00 -0.1316876E-04  0.0000000E+00  0.1599750E-02
  0.1612245E+01  0.0000000E+00  0.2244898E+00 -0.1171190E-04  0.0000000E+00  0.1595469E-02
  0.1653061E+01  0.0000000E+00  0.2244898E+00 -0.1031683E-04  0.0000000E+00  0.1591680E-02
  0.1693878E+01  0.0000000E+00  0.2244898E+00 -0.8976895E-05  0.0000000E+00  0.1588364E-02
  0.1734694E+01  0.0000000E+00  0.2244898E+00 -0.7685172E-05  0.0000000E+00  0.1585501E-02
  0.1775510E+01  0.0000000E+00  0.2244898E+00 -0.6434727E-05  0.0000000E+00  0.1583074E-02
  0.1816326E+01  0.0000000E+00  0.2244898E+00 -0.5218749E-05  0.0000000E+00  0.1581072E-02
  0.1857143E+01  0.0000000E+00  0.2244898E+00 -0.4030613E-05  0.0000000E+00  0.1579483E-02
  0.1897959E+01  0.0000000E+00  0.2244898E+00 -0.2863891E-05  0.0000000E+00  0.1578298E-02
  0.1938776E+01  0.0000000E+00  0.2244898E+00 -0.1712332E-05  0.0000000E+00  0.1577511E-02
  0.1989796E+01  0.0000000E+00  0.2244898E+00 -0.5698174E-06  0.0000000E+00  0.1577119E-02
  0.2040816E-01  0.0000000E+00  0.2653061E+00  0.7782608E-06  0.0000000E+00  0.1883579E-02
  0.6122449E-01  0.0000000E+00  0.2653061E+00  0.2238961E-05  0.0000000E+00  0.1884353E-02
  0.1020408E+00  0.0000000E+00  0.2653061E+00  0.3417341E-05  0.0000000E+00  0.1885826E-02
  0.1428571E+00  0.0000000E+00  0.2653061E+00  0.4138676E-05  0.0000000E+00  0.1887858E-02
  0.1836735E+00  0.0000000E+00  0.2653061E+00  0.4248465E-05  0.0000000E+00  0.1890238E-02
  0.2244898E+00  0.0000000E+00  0.2653061E+00  0.3622254E-05  0.0000000E+00  0.1892701E-02
  0.2653061E+00  0.0000000E+00  0.2653061E+00  0.2175406E-05  0.0000000E+00  0.1894933E-02
  0.3061225E+00  0.0000000E+00  0.2653061E+00 -0.1275590E-06  0.0000000E+00  0.1896592E-02
  0.3469388E+00  0.0000000E+00  0.2653061E+00 -0.3265615E-05  0.0000000E+00  0.1897328E-02
  0.3877551E+00  0.0000000E+00  0.2653061E+00 -0.7157694E-05  0.0000000E+00  0.1896805E-02
  0.4285714E+00  0.0000000E+00  0.2653061E+00 -0.1166477E-04  0.0000000E+00  0.1894734E-02
  0.4693878E+00  0.0000000E+00  0.2653061E+00 -0.1659864E-04  0.0000000E+00  0.1890894E-02
  0.5102041E+00  0.0000000E+00  0.2653061E+00 -0.2173731E-04  0.0000000E+00  0.1885152E-02
  0.5510204E+00  0.0000000E+00  0.2653061E+00 -0.2684500E-04  0.0000000E+00  0.1877475E-02
  0.5918368E+00  0.0000000E+00  0.2653061E+00 -0.3169402E-04  0.0000000E+00  0.1867933E-02
  0.6326531E+00  0.0000000E+00  0.2653061E+00 -0.3608455E-04  0.0000000E+00  0.1856686E-02
  0.6734694E+00  0.0000000E+00  0.2653061E+00 -0.3985950E-04  0.0000000E+00  0.1843966E-02
  0.7142857E+00  0.0000000E+00  0.2653061E+00 -0.4291266E-04  0.0000000E+00  0.1830055E-02
  0.7551020E+00  0.0000000E+00  0.2653061E+00 -0.4518998E-04  0.0000000E+00  0.1815259E-02
  0.7959183E+00  0.0000000E+00  0.2653061E+00 -0.4668516E-04  0.0000000E+00  0.1799886E-02
  0.8367347E+00  0.0000000E+00  0.2653061E+00 -0.4743146E-04  0.0000000E+00  0.1784229E-02
  0.8775510E+00  0.0000000E+00  0.2653061E+00 -0.4749163E-04  0.0000000E+00  0.1768551E-02
  0.9183673E+00  0.0000000E+00  0.2653061E+00 -0.4694771E-04  0.0000000E+00  0.1753079E-02
  0.9591837E+00  0.0000000E+00  0.2653061E+00 -0.4589187E-04  0.0000000E+00  0.1737998E-02
  0.1000000E+01  0.0000000E+00  0.2653061E+00 -0.4441882E-04  0.0000000E+00  0.1723456E-02
  0.1040816E+01  0.0000000E+00  0.2653061E+00 -0.4262019E-04  0.0000000E+00  0.1709562E-02
  0.1081633E+01  0.0000000E+00  0.2653061E+00 -0.4058061E-04  0.0000000E+00  0.1696394E-02
  0.1122449E+01  0.0000000E+00  0.2653061E+00 -0.3837540E-04  0.0000000E+00  0.1683999E-02
  0.1163265E+01  0.0000000E+00  0.2653061E+00 -0.3606944E-04  0.0000000E+00  0.1672401E-02
  0.1204082E+01  0.0000000E+00  0.2653061E+00 -0.3371694E-04  0.0000000E+00  0.1661608E-02
  0.1244898E+01  0.0000000E+00  0.2653061E+00 -0.3136177E-04  0.0000000E+00  0.1651609E-02
  0.1285714E+01  0.0000000E+00  0.2653061E+00 -0.2903821E-04  0.0000000E+00  0.1642385E-02
  0.1326531E+01  0.0000000E+00  0.2653061E+00 -0.2677191E-04  0.0000000E+00  0.1633908E-02