title = "dataset feddes"
variables = "x", "y", "z", "vx", "vy", "vz"
zone t = "velocities, solution time =  4.200E+01 days        " i =   49, j =   49, k =    1,  f=point
  0.2040816E-01  0.0000000E+00  0.2040816E-01  0.4970809E-07  0.0000000E+00  0.8845992E-03
  0.6122449E-01  0.0000000E+00  0.2040816E-01  0.1379004E-06  0.0000000E+00  0.8850019E-03
  0.1020408E+00  0.0000000E+00  0.2040816E-01  0.1926705E-06  0.0000000E+00  0.8857114E-03
  0.1428571E+00  0.0000000E+00  0.2040816E-01  0.1937363E-06  0.0000000E+00  0.8865407E-03
  0.1836735E+00  0.0000000E+00  0.2040816E-01  0.1238254E-06  0.0000000E+00  0.8872223E-03
  0.2244898E+00  0.0000000E+00  0.2040816E-01 -0.3026460E-07  0.0000000E+00  0.8874232E-03
  0.2653061E+00  0.0000000E+00  0.2040816E-01 -0.2767033E-06  0.0000000E+00  0.8867643E-03
  0.3061225E+00  0.0000000E+00  0.2040816E-01 -0.6179119E-06  0.0000000E+00  0.8848441E-03
  0.3469388E+00  0.0000000E+00  0.2040816E-01 -0.1050171E-05  0.0000000E+00  0.8812639E-03
  0.3877551E+00  0.0000000E+00  0.2040816E-01 -0.1563656E-05  0.0000000E+00  0.8756537E-03
  0.4285714E+00  0.0000000E+00  0.2040816E-01 -0.2142962E-05  0.0000000E+00  0.8676981E-03
  0.4693878E+00  0.0000000E+00  0.2040816E-01 -0.2768114E-05  0.0000000E+00  0.8571574E-03
  0.5102041E+00  0.0000000E+00  0.2040816E-01 -0.3416004E-05  0.0000000E+00  0.8438846E-03
  0.5510204E+00  0.0000000E+00  0.2040816E-01 -0.4062106E-05  0.0000000E+00  0.8278346E-03
  0.5918368E+00  0.0000000E+00  0.2040816E-01 -0.4682293E-05  0.0000000E+00  0.8090670E-03
  0.6326531E+00  0.0000000E+00  0.2040816E-01 -0.5254532E-05  0.0000000E+00  0.7877406E-03
  0.6734694E+00  0.0000000E+00  0.2040816E-01 -0.5760275E-05  0.0000000E+00  0.7641010E-03
  0.7142857E+00  0.0000000E+00  0.2040816E-01 -0.6185421E-05  0.0000000E+00  0.7384640E-03
  0.7551020E+00  0.0000000E+00  0.2040816E-01 -0.6520777E-05  0.0000000E+00  0.7111954E-03
  0.7959183E+00  0.0000000E+00  0.2040816E-01 -0.6762055E-05  0.0000000E+00  0.6826898E-03
  0.8367347E+00  0.0000000E+00  0.2040816E-01 -0.6909463E-05  0.0000000E+00  0.6533507E-03
  0.8775510E+00  0.0000000E+00  0.2040816E-01 -0.6967019E-05  0.0000000E+00  0.6235723E-03
  0.9183673E+00  0.0000000E+00  0.2040816E-01 -0.6941709E-05  0.0000000E+00  0.5937254E-03
  0.9591837E+00  0.0000000E+00  0.2040816E-01 -0.6842588E-05  0.0000000E+00  0.5641461E-03
  0.1000000E+01  0.0000000E+00  0.2040816E-01 -0.6679936E-05  0.0000000E+00  0.5351291E-03
  0.1040816E+01  0.0000000E+00  0.2040816E-01 -0.6464517E-05  0.0000000E+00  0.5069240E-03
  0.1081633E+01  0.0000000E+00  0.2040816E-01 -0.6206971E-05  0.0000000E+00  0.4797342E-03
  0.1122449E+01  0.0000000E+00  0.2040816E-01 -0.5917358E-05  0.0000000E+00  0.4537190E-03
  0.1163265E+01  0.0000000E+00  0.2040816E-01 -0.5604844E-05  0.0000000E+00  0.4289961E-03
  0.1204082E+01  0.0000000E+00  0.2040816E-01 -0.5277507E-05  0.0000000E+00  0.4056466E-03
  0.1244898E+01  0.0000000E+00  0.2040816E-01 -0.4942246E-05  0.0000000E+00  0.3837191E-03
  0.1285714E+01  0.0000000E+00  0.2040816E-01 -0.4604765E-05  0.0000000E+00  0.3632353E-03
  0.1326531E+01  0.0000000E+00  0.2040816E-01 -0.4269617E-05  0.0000000E+00  0.3441950E-03
  0.1367347E+01  0.0000000E+00  0.2040816E-01 -0.3940284E-05  0.0000000E+00  0.3265805E-03
  0.1408163E+01  0.0000000E+00  0.2040816E-01 -0.3619286E-05  0.0000000E+00  0.3103616E-03
  0.1448980E+01  0.0000000E+00  0.2040816E-01 -0.3308297E-05  0.0000000E+00  0.2954986E-03
  0.1489796E+01  0.0000000E+00  0.2040816E-01 -0.3008275E-05  0.0000000E+00  0.2819468E-03
  0.1530612E+01  0.0000000E+00  0.2040816E-01 -0.2719590E-05  0.0000000E+00  0.2696580E-03
  0.1571429E+01  0.0000000E+00  0.2040816E-01 -0.2442138E-05  0.0000000E+00  0.2585840E-03
  0.1612245E+01  0.0000000E+00  0.2040816E-01 -0.2175462E-05  0.0000000E+00  0.2486774E-03
  0.1653061E+01  0.0000000E+00  0.2040816E-01 -0.1918842E-05  0.0000000E+00  0.2398936E-03
  0.1693878E+01  0.0000000E+00  0.2040816E-01 -0.1671381E-05  0.0000000E+00  0.2321912E-03
  0.1734694E+01  0.0000000E+00  0.2040816E-01 -0.1432071E-05  0.0000000E+00  0.2255332E-03
  0.1775510E+01  0.0000000E+00  0.2040816E-01 -0.1199841E-05  0.0000000E+00  0.2198868E-03
  0.1816326E+01  0.0000000E+00  0.2040816E-01 -0.9735918E-06  0.0000000E+00  0.2152240E-03
  0.1857143E+01  0.0000000E+00  0.2040816E-01 -0.7522180E-06  0.0000000E+00  0.2115216E-03
  0.1897959E+01  0.0000000E+00  0.2040816E-01 -0.5346200E-06  0.0000000E+00  0.2087609E-03
  0.1938776E+01  0.0000000E+00  0.2040816E-01 -0.3197096E-06  0.0000000E+00  0.2069280E-03
  0.1989796E+01  0.0000000E+00  0.2040816E-01 -0.1064112E-06  0.0000000E+00  0.2060139E-03
  0.2040816E-01  0.0000000E+00  0.6122449E-01  0.1746245E-06  0.0000000E+00  0.8844142E-03
  0.6122449E-01  0.0000000E+00  0.6122449E-01  0.4858321E-06  0.0000000E+00  0.8848617E-03
  0.1020408E+00  0.0000000E+00  0.6122449E-01  0.6839883E-06  0.0000000E+00  0.8856584E-03
  0.1428571E+00  0.0000000E+00  0.6122449E-01  0.7004117E-06  0.0000000E+00  0.8866124E-03
  0.1836735E+00  0.0000000E+00  0.6122449E-01  0.4765523E-06  0.0000000E+00  0.8874492E-03
  0.2244898E+00  0.0000000E+00  0.6122449E-01 -0.3242841E-07  0.0000000E+00  0.8878265E-03
  0.2653061E+00  0.0000000E+00  0.6122449E-01 -0.8543774E-06  0.0000000E+00  0.8873548E-03
  0.3061225E+00  0.0000000E+00  0.6122449E-01 -0.1997675E-05  0.0000000E+00  0.8856205E-03
  0.3469388E+00  0.0000000E+00  0.6122449E-01 -0.3449863E-05  0.0000000E+00  0.8822125E-03
  0.3877551E+00  0.0000000E+00  0.6122449E-01 -0.5177716E-05  0.0000000E+00  0.8767493E-03
  0.4285714E+00  0.0000000E+00  0.6122449E-01 -0.7128987E-05  0.0000000E+00  0.8689054E-03
  0.4693878E+00  0.0000000E+00  0.6122449E-01 -0.9235841E-05  0.0000000E+00  0.8584333E-03
  0.5102041E+00  0.0000000E+00  0.6122449E-01 -0.1141975E-04  0.0000000E+00  0.8451812E-03
  0.5510204E+00  0.0000000E+00  0.6122449E-01 -0.1359740E-04  0.0000000E+00  0.8291035E-03
  0.5918368E+00  0.0000000E+00  0.6122449E-01 -0.1568686E-04  0.0000000E+00  0.8102620E-03
  0.6326531E+00  0.0000000E+00  0.6122449E-01 -0.1761345E-04  0.0000000E+00  0.7888210E-03
  0.6734694E+00  0.0000000E+00  0.6122449E-01 -0.1931447E-04  0.0000000E+00  0.7650341E-03
  0.7142857E+00  0.0000000E+00  0.6122449E-01 -0.2074242E-04  0.0000000E+00  0.7392266E-03
  0.7551020E+00  0.0000000E+00  0.6122449E-01 -0.2186658E-04  0.0000000E+00  0.7117739E-03
  0.7959183E+00  0.0000000E+00  0.6122449E-01 -0.2267293E-04  0.0000000E+00  0.6830802E-03
  0.8367347E+00  0.0000000E+00  0.6122449E-01 -0.2316265E-04  0.0000000E+00  0.6535572E-03
  0.8775510E+00  0.0000000E+00  0.6122449E-01 -0.2334983E-04  0.0000000E+00  0.6236059E-03
  0.9183673E+00  0.0000000E+00  0.6122449E-01 -0.2325847E-04  0.0000000E+00  0.5936021E-03
  0.9591837E+00  0.0000000E+00  0.6122449E-01 -0.2291948E-04  0.0000000E+00  0.5638853E-03
  0.1000000E+01  0.0000000E+00  0.6122449E-01 -0.2236776E-04  0.0000000E+00  0.5347518E-03
  0.1040816E+01  0.0000000E+00  0.6122449E-01 -0.2163975E-04  0.0000000E+00  0.5064516E-03
  0.1081633E+01  0.0000000E+00  0.6122449E-01 -0.2077136E-04  0.0000000E+00  0.4791875E-03
  0.1122449E+01  0.0000000E+00  0.6122449E-01 -0.1979645E-04  0.0000000E+00  0.4531171E-03
  0.1163265E+01  0.0000000E+00  0.6122449E-01 -0.1874581E-04  0.0000000E+00  0.4283564E-03
  0.1204082E+01  0.0000000E+00  0.6122449E-01 -0.1764649E-04  0.0000000E+00  0.4049840E-03
  0.1244898E+01  0.0000000E+00  0.6122449E-01 -0.1652158E-04  0.0000000E+00  0.3830463E-03
  0.1285714E+01  0.0000000E+00  0.6122449E-01 -0.1539012E-04  0.0000000E+00  0.3625625E-03
  0.1326531E+01  0.0000000E+00  0.6122449E-01 -0.1426724E-04  0.0000000E+00  0.3435302E-03
  0.1367347E+01  0.0000000E+00  0.6122449E-01 -0.1316453E-04  0.0000000E+00  0.3259298E-03
  0.1408163E+01  0.0000000E+00  0.6122449E-01 -0.1209031E-04  0.0000000E+00  0.3097290E-03
  0.1448980E+01  0.0000000E+00  0.6122449E-01 -0.1105008E-04  0.0000000E+00  0.2948870E-03
  0.1489796E+01  0.0000000E+00  0.6122449E-01 -0.1004695E-04  0.0000000E+00  0.2813574E-03
  0.1530612E+01  0.0000000E+00  0.6122449E-01 -0.9082067E-05  0.0000000E+00  0.2690911E-03
  0.1571429E+01  0.0000000E+00  0.6122449E-01 -0.8155001E-05  0.0000000E+00  0.2580391E-03
  0.1612245E+01  0.0000000E+00  0.6122449E-01 -0.7264146E-05  0.0000000E+00  0.2481533E-03
  0.1653061E+01  0.0000000E+00  0.6122449E-01 -0.6407039E-05  0.0000000E+00  0.2393886E-03
  0.1693878E+01  0.0000000E+00  0.6122449E-01 -0.5580632E-05  0.0000000E+00  0.2317035E-03
  0.1734694E+01  0.0000000E+00  0.6122449E-01 -0.4781518E-05  0.0000000E+00  0.2250606E-03
  0.1775510E+01  0.0000000E+00  0.6122449E-01 -0.4006091E-05  0.0000000E+00  0.2194273E-03
  0.1816326E+01  0.0000000E+00  0.6122449E-01 -0.3250660E-05  0.0000000E+00  0.2147753E-03
  0.1857143E+01  0.0000000E+00  0.6122449E-01 -0.2511522E-05  0.0000000E+00  0.2110815E-03
  0.1897959E+01  0.0000000E+00  0.6122449E-01 -0.1784998E-05  0.0000000E+00  0.2083273E-03
  0.1938776E+01  0.0000000E+00  0.6122449E-01 -0.1067447E-05  0.0000000E+00  0.2064987E-03
  0.1989796E+01  0.0000000E+00  0.6122449E-01 -0.3552733E-06  0.0000000E+00  0.2055867E-03
  0.2040816E-01  0.0000000E+00  0.1020408E+00  0.3384118E-06  0.0000000E+00  0.8839517E-03
  0.6122449E-01  0.0000000E+00  0.1020408E+00  0.9464277E-06  0.0000000E+00  0.8845059E-03
  0.1020408E+00  0.0000000E+00  0.1020408E+00  0.1350345E-05  0.0000000E+00  0.8855103E-03
  0.1428571E+00  0.0000000E+00  0.1020408E+00  0.1425945E-05  0.0000000E+00  0.8867617E-03
  0.1836735E+00  0.0000000E+00  0.1020408E+00  0.1067069E-05  0.0000000E+00  0.8879687E-03
  0.2244898E+00  0.0000000E+00  0.1020408E+00  0.1920970E-06  0.0000000E+00  0.8887676E-03
  0.2653061E+00  0.0000000E+00  0.1020408E+00 -0.1250039E-05  0.0000000E+00  0.8887431E-03
  0.3061225E+00  0.0000000E+00  0.1020408E+00 -0.3275195E-05  0.0000000E+00  0.8874532E-03
  0.3469388E+00  0.0000000E+00  0.1020408E+00 -0.5861355E-05  0.0000000E+00  0.8844574E-03
  0.3877551E+00  0.0000000E+00  0.1020408E+00 -0.8948570E-05  0.0000000E+00  0.8793463E-03
  0.4285714E+00  0.0000000E+00  0.1020408E+00 -0.1244201E-04  0.0000000E+00  0.8717695E-03
  0.4693878E+00  0.0000000E+00  0.1020408E+00 -0.1621821E-04  0.0000000E+00  0.8614612E-03
  0.5102041E+00  0.0000000E+00  0.1020408E+00 -0.2013407E-04  0.0000000E+00  0.8482588E-03
  0.5510204E+00  0.0000000E+00  0.1020408E+00 -0.2403775E-04  0.0000000E+00  0.8321139E-03
  0.5918368E+00  0.0000000E+00  0.1020408E+00 -0.2778025E-04  0.0000000E+00  0.8130948E-03
  0.6326531E+00  0.0000000E+00  0.1020408E+00 -0.3122612E-04  0.0000000E+00  0.7913793E-03
  0.6734694E+00  0.0000000E+00  0.1020408E+00 -0.3426225E-04  0.0000000E+00  0.7672403E-03
  0.7142857E+00  0.0000000E+00  0.1020408E+00 -0.3680369E-04  0.0000000E+00  0.7410257E-03
  0.7551020E+00  0.0000000E+00  0.1020408E+00 -0.3879636E-04  0.0000000E+00  0.7131347E-03
  0.7959183E+00  0.0000000E+00  0.1020408E+00 -0.4021667E-04  0.0000000E+00  0.6839938E-03
  0.8367347E+00  0.0000000E+00  0.1020408E+00 -0.4106864E-04  0.0000000E+00  0.6540347E-03
  0.8775510E+00  0.0000000E+00  0.1020408E+00 -0.4137939E-04  0.0000000E+00  0.6236743E-03
  0.9183673E+00  0.0000000E+00  0.1020408E+00 -0.4119366E-04  0.0000000E+00  0.5933003E-03
  0.9591837E+00  0.0000000E+00  0.1020408E+00 -0.4056824E-04  0.0000000E+00  0.5632598E-03
  0.1000000E+01  0.0000000E+00  0.1020408E+00 -0.3956667E-04  0.0000000E+00  0.5338529E-03
  0.1040816E+01  0.0000000E+00  0.1020408E+00 -0.3825477E-04  0.0000000E+00  0.5053302E-03
  0.1081633E+01  0.0000000E+00  0.1020408E+00 -0.3669706E-04  0.0000000E+00  0.4778928E-03
  0.1122449E+01  0.0000000E+00  0.1020408E+00 -0.3495405E-04  0.0000000E+00  0.4516945E-03
  0.1163265E+01  0.0000000E+00  0.1020408E+00 -0.3308052E-04  0.0000000E+00  0.4268466E-03
  0.1204082E+01  0.0000000E+00  0.1020408E+00 -0.3112440E-04  0.0000000E+00  0.4034221E-03
  0.1244898E+01  0.0000000E+00  0.1020408E+00 -0.2912638E-04  0.0000000E+00  0.3814619E-03
  0.1285714E+01  0.0000000E+00  0.1020408E+00 -0.2711991E-04  0.0000000E+00  0.3609795E-03
  0.1326531E+01  0.0000000E+00  0.1020408E+00 -0.2513146E-04  0.0000000E+00  0.3419674E-03
  0.1367347E+01  0.0000000E+00  0.1020408E+00 -0.2318114E-04  0.0000000E+00  0.3244011E-03
  0.1408163E+01  0.0000000E+00  0.1020408E+00 -0.2128329E-04  0.0000000E+00  0.3082442E-03
  0.1448980E+01  0.0000000E+00  0.1020408E+00 -0.1944727E-04  0.0000000E+00  0.2934520E-03
  0.1489796E+01  0.0000000E+00  0.1020408E+00 -0.1767822E-04  0.0000000E+00  0.2799751E-03
  0.1530612E+01  0.0000000E+00  0.1020408E+00 -0.1597784E-04  0.0000000E+00  0.2677621E-03
  0.1571429E+01  0.0000000E+00  0.1020408E+00 -0.1434506E-04  0.0000000E+00  0.2567618E-03
  0.1612245E+01  0.0000000E+00  0.1020408E+00 -0.1277680E-04  0.0000000E+00  0.2469249E-03
  0.1653061E+01  0.0000000E+00  0.1020408E+00 -0.1126849E-04  0.0000000E+00  0.2382052E-03
  0.1693878E+01  0.0000000E+00  0.1020408E+00 -0.9814581E-05  0.0000000E+00  0.2305606E-03
  0.1734694E+01  0.0000000E+00  0.1020408E+00 -0.8408942E-05  0.0000000E+00  0.2239534E-03
  0.1775510E+01  0.0000000E+00  0.1020408E+00 -0.7045123E-05  0.0000000E+00  0.2183505E-03
  0.1816326E+01  0.0000000E+00  0.1020408E+00 -0.5716564E-05  0.0000000E+00  0.2137239E-03
  0.1857143E+01  0.0000000E+00  0.1020408E+00 -0.4416704E-05  0.0000000E+00  0.2100503E-03
  0.1897959E+01  0.0000000E+00  0.1020408E+00 -0.3139045E-05  0.0000000E+00  0.2073111E-03
  0.1938776E+01  0.0000000E+00  0.1020408E+00 -0.1877172E-05  0.0000000E+00  0.2054926E-03
  0.1989796E+01  0.0000000E+00  0.1020408E+00 -0.6247447E-06  0.0000000E+00  0.2045856E-03
  0.2040816E-01  0.0000000E+00  0.1428571E+00  0.5401933E-06  0.0000000E+00  0.8831618E-03
  0.6122449E-01  0.0000000E+00  0.1428571E+00  0.1521145E-05  0.0000000E+00  0.8838828E-03
  0.1020408E+00  0.0000000E+00  0.1428571E+00  0.2207433E-05  0.0000000E+00  0.8852120E-03
  0.1428571E+00  0.0000000E+00  0.1428571E+00  0.2419237E-05  0.0000000E+00  0.8869289E-03
  0.1836735E+00  0.0000000E+00  0.1428571E+00  0.2002210E-05  0.0000000E+00  0.8887163E-03
  0.2244898E+00  0.0000000E+00  0.1428571E+00  0.8368992E-06  0.0000000E+00  0.8901771E-03
  0.2653061E+00  0.0000000E+00  0.1428571E+00 -0.1152349E-05  0.0000000E+00  0.8908556E-03
  0.3061225E+00  0.0000000E+00  0.1428571E+00 -0.3990232E-05  0.0000000E+00  0.8902652E-03
  0.3469388E+00  0.0000000E+00  0.1428571E+00 -0.7646146E-05  0.0000000E+00  0.8879191E-03
  0.3877551E+00  0.0000000E+00  0.1428571E+00 -0.1203367E-04  0.0000000E+00  0.8833630E-03
  0.4285714E+00  0.0000000E+00  0.1428571E+00 -0.1701469E-04  0.0000000E+00  0.8762075E-03
  0.4693878E+00  0.0000000E+00  0.1428571E+00 -0.2240853E-04  0.0000000E+00  0.8661571E-03
  0.5102041E+00  0.0000000E+00  0.1428571E+00 -0.2800531E-04  0.0000000E+00  0.8530317E-03
  0.5510204E+00  0.0000000E+00  0.1428571E+00 -0.3358240E-04  0.0000000E+00  0.8367795E-03
  0.5918368E+00  0.0000000E+00  0.1428571E+00 -0.3892184E-04  0.0000000E+00  0.8174788E-03
  0.6326531E+00  0.0000000E+00  0.1428571E+00 -0.4382657E-04  0.0000000E+00  0.7953299E-03
  0.6734694E+00  0.0000000E+00  0.1428571E+00 -0.4813339E-04  0.0000000E+00  0.7706369E-03
  0.7142857E+00  0.0000000E+00  0.1428571E+00 -0.5172150E-04  0.0000000E+00  0.7437840E-03
  0.7551020E+00  0.0000000E+00  0.1428571E+00 -0.5451603E-04  0.0000000E+00  0.7152082E-03
  0.7959183E+00  0.0000000E+00  0.1428571E+00 -0.5648699E-04  0.0000000E+00  0.6853717E-03
  0.8367347E+00  0.0000000E+00  0.1428571E+00 -0.5764451E-04  0.0000000E+00  0.6547369E-03
  0.8775510E+00  0.0000000E+00  0.1428571E+00 -0.5803173E-04  0.0000000E+00  0.6237458E-03
  0.9183673E+00  0.0000000E+00  0.1428571E+00 -0.5771650E-04  0.0000000E+00  0.5928036E-03
  0.9591837E+00  0.0000000E+00  0.1428571E+00 -0.5678302E-04  0.0000000E+00  0.5622687E-03
  0.1000000E+01  0.0000000E+00  0.1428571E+00 -0.5532418E-04  0.0000000E+00  0.5324466E-03
  0.1040816E+01  0.0000000E+00  0.1428571E+00 -0.5343515E-04  0.0000000E+00  0.5035882E-03
  0.1081633E+01  0.0000000E+00  0.1428571E+00 -0.5120829E-04  0.0000000E+00  0.4758910E-03
  0.1122449E+01  0.0000000E+00  0.1428571E+00 -0.4872960E-04  0.0000000E+00  0.4495029E-03
  0.1163265E+01  0.0000000E+00  0.1428571E+00 -0.4607626E-04  0.0000000E+00  0.4245273E-03
  0.1204082E+01  0.0000000E+00  0.1428571E+00 -0.4331542E-04  0.0000000E+00  0.4010288E-03
  0.1244898E+01  0.0000000E+00  0.1428571E+00 -0.4050366E-04  0.0000000E+00  0.3790391E-03
  0.1285714E+01  0.0000000E+00  0.1428571E+00 -0.3768714E-04  0.0000000E+00  0.3585635E-03
  0.1326531E+01  0.0000000E+00  0.1428571E+00 -0.3490216E-04  0.0000000E+00  0.3395860E-03
  0.1367347E+01  0.0000000E+00  0.1428571E+00 -0.3217599E-04  0.0000000E+00  0.3220750E-03
  0.1408163E+01  0.0000000E+00  0.1428571E+00 -0.2952783E-04  0.0000000E+00  0.3059874E-03
  0.1448980E+01  0.0000000E+00  0.1428571E+00 -0.2696992E-04  0.0000000E+00  0.2912732E-03
  0.1489796E+01  0.0000000E+00  0.1428571E+00 -0.2450864E-04  0.0000000E+00  0.2778783E-03
  0.1530612E+01  0.0000000E+00  0.1428571E+00 -0.2214557E-04  0.0000000E+00  0.2657475E-03
  0.1571429E+01  0.0000000E+00  0.1428571E+00 -0.1987860E-04  0.0000000E+00  0.2548267E-03
  0.1612245E+01  0.0000000E+00  0.1428571E+00 -0.1770282E-04  0.0000000E+00  0.2450647E-03
  0.1653061E+01  0.0000000E+00  0.1428571E+00 -0.1561140E-04  0.0000000E+00  0.2364138E-03
  0.1693878E+01  0.0000000E+00  0.1428571E+00 -0.1359622E-04  0.0000000E+00  0.2288308E-03
  0.1734694E+01  0.0000000E+00  0.1428571E+00 -0.1164848E-04  0.0000000E+00  0.2222776E-03
  0.1775510E+01  0.0000000E+00  0.1428571E+00 -0.9759012E-05  0.0000000E+00  0.2167209E-03
  0.1816326E+01  0.0000000E+00  0.1428571E+00 -0.7918568E-05  0.0000000E+00  0.2121326E-03
  0.1857143E+01  0.0000000E+00  0.1428571E+00 -0.6117969E-05  0.0000000E+00  0.2084895E-03
  0.1897959E+01  0.0000000E+00  0.1428571E+00 -0.4348158E-05  0.0000000E+00  0.2057730E-03
  0.1938776E+01  0.0000000E+00  0.1428571E+00 -0.2600220E-05  0.0000000E+00  0.2039696E-03
  0.1989796E+01  0.0000000E+00  0.1428571E+00 -0.8653568E-06  0.0000000E+00  0.2030701E-03
  0.2040816E-01  0.0000000E+00  0.1836735E+00  0.8018634E-06  0.0000000E+00  0.8819502E-03
  0.6122449E-01  0.0000000E+00  0.1836735E+00  0.2274331E-05  0.0000000E+00  0.8828993E-03
  0.1020408E+00  0.0000000E+00  0.1836735E+00  0.3357871E-05  0.0000000E+00  0.8846730E-03
  0.1428571E+00  0.0000000E+00  0.1836735E+00  0.3814217E-05  0.0000000E+00  0.8870278E-03
  0.1836735E+00  0.0000000E+00  0.1836735E+00  0.3437566E-05  0.0000000E+00  0.8896122E-03
  0.2244898E+00  0.0000000E+00  0.1836735E+00  0.2067104E-05  0.0000000E+00  0.8919836E-03
  0.2653061E+00  0.0000000E+00  0.1836735E+00 -0.4007856E-06  0.0000000E+00  0.8936317E-03
  0.3061225E+00  0.0000000E+00  0.1836735E+00 -0.4002288E-05  0.0000000E+00  0.8940084E-03
  0.3469388E+00  0.0000000E+00  0.1836735E+00 -0.8699401E-05  0.0000000E+00  0.8925620E-03
  0.3877551E+00  0.0000000E+00  0.1836735E+00 -0.1437838E-04  0.0000000E+00  0.8887754E-03
  0.4285714E+00  0.0000000E+00  0.1836735E+00 -0.2085467E-04  0.0000000E+00  0.8822040E-03
  0.4693878E+00  0.0000000E+00  0.1836735E+00 -0.2788498E-04  0.0000000E+00  0.8725102E-03
  0.5102041E+00  0.0000000E+00  0.1836735E+00 -0.3518582E-04  0.0000000E+00  0.8594893E-03
  0.5510204E+00  0.0000000E+00  0.1836735E+00 -0.4245645E-04  0.0000000E+00  0.8430851E-03
  0.5918368E+00  0.0000000E+00  0.1836735E+00 -0.4940350E-04  0.0000000E+00  0.8233911E-03
  0.6326531E+00  0.0000000E+00  0.1836735E+00 -0.5576361E-04  0.0000000E+00  0.8006401E-03
  0.6734694E+00  0.0000000E+00  0.1836735E+00 -0.6132135E-04  0.0000000E+00  0.7751813E-03
  0.7142857E+00  0.0000000E+00  0.1836735E+00 -0.6592054E-04  0.0000000E+00  0.7474509E-03
  0.7551020E+00  0.0000000E+00  0.1836735E+00 -0.6946823E-04  0.0000000E+00  0.7179390E-03
  0.7959183E+00  0.0000000E+00  0.1836735E+00 -0.7193230E-04  0.0000000E+00  0.6871572E-03
  0.8367347E+00  0.0000000E+00  0.1836735E+00 -0.7333406E-04  0.0000000E+00  0.6556103E-03
  0.8775510E+00  0.0000000E+00  0.1836735E+00 -0.7373773E-04  0.0000000E+00  0.6237731E-03
  0.9183673E+00  0.0000000E+00  0.1836735E+00 -0.7323872E-04  0.0000000E+00  0.5920743E-03
  0.9591837E+00  0.0000000E+00  0.1836735E+00 -0.7195217E-04  0.0000000E+00  0.5608861E-03
  0.1000000E+01  0.0000000E+00  0.1836735E+00 -0.7000273E-04  0.0000000E+00  0.5305197E-03
  0.1040816E+01  0.0000000E+00  0.1836735E+00 -0.6751618E-04  0.0000000E+00  0.5012252E-03
  0.1081633E+01  0.0000000E+00  0.1836735E+00 -0.6461311E-04  0.0000000E+00  0.4731945E-03
  0.1122449E+01  0.0000000E+00  0.1836735E+00 -0.6140448E-04  0.0000000E+00  0.4465663E-03
  0.1163265E+01  0.0000000E+00  0.1836735E+00 -0.5798895E-04  0.0000000E+00  0.4214329E-03
  0.1204082E+01  0.0000000E+00  0.1836735E+00 -0.5445148E-04  0.0000000E+00  0.3978470E-03
  0.1244898E+01  0.0000000E+00  0.1836735E+00 -0.5086301E-04  0.0000000E+00  0.3758282E-03
  0.1285714E+01  0.0000000E+00  0.1836735E+00 -0.4728086E-04  0.0000000E+00  0.3553700E-03
  0.1326531E+01  0.0000000E+00  0.1836735E+00 -0.4374961E-04  0.0000000E+00  0.3364458E-03
  0.1367347E+01  0.0000000E+00  0.1836735E+00 -0.4030227E-04  0.0000000E+00  0.3190140E-03
  0.1408163E+01  0.0000000E+00  0.1836735E+00 -0.3696164E-04  0.0000000E+00  0.3030233E-03
  0.1448980E+01  0.0000000E+00  0.1836735E+00 -0.3374170E-04  0.0000000E+00  0.2884160E-03
  0.1489796E+01  0.0000000E+00  0.1836735E+00 -0.3064909E-04  0.0000000E+00  0.2751323E-03
  0.1530612E+01  0.0000000E+00  0.1836735E+00 -0.2768452E-04  0.0000000E+00  0.2631120E-03
  0.1571429E+01  0.0000000E+00  0.1836735E+00 -0.2484413E-04  0.0000000E+00  0.2522976E-03
  0.1612245E+01  0.0000000E+00  0.1836735E+00 -0.2212074E-04  0.0000000E+00  0.2426350E-03
  0.1653061E+01  0.0000000E+00  0.1836735E+00 -0.1950488E-04  0.0000000E+00  0.2340748E-03
  0.1693878E+01  0.0000000E+00  0.1836735E+00 -0.1698572E-04  0.0000000E+00  0.2265729E-03
  0.1734694E+01  0.0000000E+00  0.1836735E+00 -0.1455170E-04  0.0000000E+00  0.2200905E-03
  0.1775510E+01  0.0000000E+00  0.1836735E+00 -0.1219099E-04  0.0000000E+00  0.2145942E-03
  0.1816326E+01  0.0000000E+00  0.1836735E+00 -0.9891782E-05  0.0000000E+00  0.2100559E-03
  0.1857143E+01  0.0000000E+00  0.1836735E+00 -0.7642465E-05  0.0000000E+00  0.2064524E-03
  0.1897959E+01  0.0000000E+00  0.1836735E+00 -0.5431645E-05  0.0000000E+00  0.2037655E-03
  0.1938776E+01  0.0000000E+00  0.1836735E+00 -0.3248145E-05  0.0000000E+00  0.2019817E-03
  0.1989796E+01  0.0000000E+00  0.1836735E+00 -0.1080968E-05  0.0000000E+00  0.2010920E-03
  0.2040816E-01  0.0000000E+00  0.2244898E+00  0.1144681E-05  0.0000000E+00  0.8801806E-03
  0.6122449E-01  0.0000000E+00  0.2244898E+00  0.3268618E-05  0.0000000E+00  0.8814227E-03
  0.1020408E+00  0.0000000E+00  0.2244898E+00  0.4902156E-05  0.0000000E+00  0.8837683E-03
  0.1428571E+00  0.0000000E+00  0.2244898E+00  0.5743264E-05  0.0000000E+00  0.8869457E-03
  0.1836735E+00  0.0000000E+00  0.2244898E+00  0.5528823E-05  0.0000000E+00  0.8905604E-03
  0.2244898E+00  0.0000000E+00  0.2244898E+00  0.4050541E-05  0.0000000E+00  0.8941127E-03
  0.2653061E+00  0.0000000E+00  0.2244898E+00  0.1171110E-05  0.0000000E+00  0.8970225E-03
  0.3061225E+00  0.0000000E+00  0.2244898E+00 -0.3161521E-05  0.0000000E+00  0.8986613E-03
  0.3469388E+00  0.0000000E+00  0.2244898E+00 -0.8903858E-05  0.0000000E+00  0.8983923E-03
  0.3877551E+00  0.0000000E+00  0.2244898E+00 -0.1591324E-04  0.0000000E+00  0.8956145E-03
  0.4285714E+00  0.0000000E+00  0.2244898E+00 -0.2395305E-04  0.0000000E+00  0.8898089E-03
  0.4693878E+00  0.0000000E+00  0.2244898E+00 -0.3270807E-04  0.0000000E+00  0.8805811E-03
  0.5102041E+00  0.0000000E+00  0.2244898E+00 -0.4180914E-04  0.0000000E+00  0.8676933E-03
  0.5510204E+00  0.0000000E+00  0.2244898E+00 -0.5086459E-04  0.0000000E+00  0.8510839E-03
  0.5918368E+00  0.0000000E+00  0.2244898E+00 -0.5949399E-04  0.0000000E+00  0.8308687E-03
  0.6326531E+00  0.0000000E+00  0.2244898E+00 -0.6735906E-04  0.0000000E+00  0.8073259E-03
  0.6734694E+00  0.0000000E+00  0.2244898E+00 -0.7418764E-04  0.0000000E+00  0.7808668E-03
  0.7142857E+00  0.0000000E+00  0.2244898E+00 -0.7978787E-04  0.0000000E+00  0.7519982E-03
  0.7551020E+00  0.0000000E+00  0.2244898E+00 -0.8405217E-04  0.0000000E+00  0.7212813E-03
  0.7959183E+00  0.0000000E+00  0.2244898E+00 -0.8695232E-04  0.0000000E+00  0.6892925E-03
  0.8367347E+00  0.0000000E+00  0.2244898E+00 -0.8852811E-04  0.0000000E+00  0.6565909E-03
  0.8775510E+00  0.0000000E+00  0.2244898E+00 -0.8887228E-04  0.0000000E+00  0.6236924E-03
  0.9183673E+00  0.0000000E+00  0.2244898E+00 -0.8811457E-04  0.0000000E+00  0.5910535E-03
  0.9591837E+00  0.0000000E+00  0.2244898E+00 -0.8640648E-04  0.0000000E+00  0.5590617E-03
  0.1000000E+01  0.0000000E+00  0.2244898E+00 -0.8390834E-04  0.0000000E+00  0.5280333E-03
  0.1040816E+01  0.0000000E+00  0.2244898E+00 -0.8077899E-04  0.0000000E+00  0.4982152E-03
  0.1081633E+01  0.0000000E+00  0.2244898E+00 -0.7716833E-04  0.0000000E+00  0.4697901E-03
  0.1122449E+01  0.0000000E+00  0.2244898E+00 -0.7321240E-04  0.0000000E+00  0.4428841E-03
  0.1163265E+01  0.0000000E+00  0.2244898E+00 -0.6903058E-04  0.0000000E+00  0.4175744E-03
  0.1204082E+01  0.0000000E+00  0.2244898E+00 -0.6472444E-04  0.0000000E+00  0.3938980E-03
  0.1244898E+01  0.0000000E+00  0.2244898E+00 -0.6037782E-04  0.0000000E+00  0.3718591E-03
  0.1285714E+01  0.0000000E+00  0.2244898E+00 -0.5605759E-04  0.0000000E+00  0.3514365E-03
  0.1326531E+01  0.0000000E+00  0.2244898E+00 -0.5181502E-04  0.0000000E+00  0.3325900E-03
  0.1367347E+01  0.0000000E+00  0.2244898E+00 -0.4768737E-04  0.0000000E+00  0.3152659E-03
  0.1408163E+01  0.0000000E+00  0.2244898E+00 -0.4369961E-04  0.0000000E+00  0.2994025E-03
  0.1448980E+01  0.0000000E+00  0.2244898E+00 -0.3986620E-04  0.0000000E+00  0.2849333E-03
  0.1489796E+01  0.0000000E+00  0.2244898E+00 -0.3619292E-04  0.0000000E+00  0.2717910E-03
  0.1530612E+01  0.0000000E+00  0.2244898E+00 -0.3267862E-04  0.0000000E+00  0.2599099E-03
  0.1571429E+01  0.0000000E+00  0.2244898E+00 -0.2931688E-04  0.0000000E+00  0.2492281E-03
  0.1612245E+01  0.0000000E+00  0.2244898E+00 -0.2609758E-04  0.0000000E+00  0.2396886E-03
  0.1653061E+01  0.0000000E+00  0.2244898E+00 -0.2300820E-04  0.0000000E+00  0.2312401E-03
  0.1693878E+01  0.0000000E+00  0.2244898E+00 -0.2003484E-04  0.0000000E+00  0.2238374E-03
  0.1734694E+01  0.0000000E+00  0.2244898E+00 -0.1716309E-04  0.0000000E+00  0.2174413E-03
  0.1775510E+01  0.0000000E+00  0.2244898E+00 -0.1437843E-04  0.0000000E+00  0.2120183E-03
  0.1816326E+01  0.0000000E+00  0.2244898E+00 -0.1166661E-04  0.0000000E+00  0.2075404E-03
  0.1857143E+01  0.0000000E+00  0.2244898E+00 -0.9013732E-05  0.0000000E+00  0.2039848E-03
  0.1897959E+01  0.0000000E+00  0.2244898E+00 -0.6406257E-05  0.0000000E+00  0.2013336E-03
  0.1938776E+01  0.0000000E+00  0.2244898E+00 -0.3830977E-05  0.0000000E+00  0.1995735E-03
  0.1989796E+01  0.0000000E+00  0.2244898E+00 -0.1274918E-05  0.0000000E+00  0.1986956E-03
  0.2040816E-01  0.0000000E+00  0.2653061E+00  0.1590404E-05  0.0000000E+00  0.8776749E-03
  0.6122449E-01  0.0000000E+00  0.2653061E+00  0.4568387E-05  0.0000000E+00  0.8792807E-03
  0.1020408E+00  0.0000000E+00  0.2653061E+00  0.6944524E-05  0.0000000E+00  0.8823378E-03
  0.1428571E+00  0.0000000E+00  0.2653061E+00  0.8345507E-05  0.0000000E+00  0.8865412E-03
  0.1836735E+00  0.0000000E+00  0.2653061E+00  0.8442474E-05  0.0000000E+00  0.8914457E-03
  0.2244898E+00  0.0000000E+00  0.2653061E+00  0.6970640E-05  0.0000000E+00  0.8964827E-03
  0.2653061E+00  0.0000000E+00  0.2653061E+00  0.3750306E-05  0.0000000E+00  0.9009857E-03
  0.3061225E+00  0.0000000E+00  0.2653061E+00 -0.1293356E-05  0.0000000E+00  0.9042253E-03
  0.3469388E+00  0.0000000E+00  0.2653061E+00 -0.8114750E-05  0.0000000E+00  0.9054552E-03
  0.3877551E+00  0.0000000E+00  0.2653061E+00 -0.1654048E-04  0.0000000E+00  0.9039649E-03
  0.4285714E+00  0.0000000E+00  0.2653061E+00 -0.2627390E-04  0.0000000E+00  0.8991372E-03
  0.4693878E+00  0.0000000E+00  0.2653061E+00 -0.3691387E-04  0.0000000E+00  0.8905017E-03
  0.5102041E+00  0.0000000E+00  0.2653061E+00 -0.4798739E-04  0.0000000E+00  0.8777774E-03
  0.5510204E+00  0.0000000E+00  0.2653061E+00 -0.5899221E-04  0.0000000E+00  0.8608965E-03
  0.5918368E+00  0.0000000E+00  0.2653061E+00 -0.6944301E-04  0.0000000E+00  0.8400062E-03
  0.6326531E+00  0.0000000E+00  0.2653061E+00 -0.7891351E-04  0.0000000E+00  0.8154476E-03
  0.6734694E+00  0.0000000E+00  0.2653061E+00 -0.8706793E-04  0.0000000E+00  0.7877164E-03
  0.7142857E+00  0.0000000E+00  0.2653061E+00 -0.9367839E-04  0.0000000E+00  0.7574133E-03
  0.7551020E+00  0.0000000E+00  0.2653061E+00 -0.9862770E-04  0.0000000E+00  0.7251924E-03
  0.7959183E+00  0.0000000E+00  0.2653061E+00 -0.1019002E-03  0.0000000E+00  0.6917128E-03
  0.8367347E+00  0.0000000E+00  0.2653061E+00 -0.1035646E-03  0.0000000E+00  0.6576004E-03
  0.8775510E+00  0.0000000E+00  0.2653061E+00 -0.1037526E-03  0.0000000E+00  0.6234201E-03
  0.9183673E+00  0.0000000E+00  0.2653061E+00 -0.1026375E-03  0.0000000E+00  0.5896594E-03
  0.9591837E+00  0.0000000E+00  0.2653061E+00 -0.1004145E-03  0.0000000E+00  0.5567213E-03
  0.1000000E+01  0.0000000E+00  0.2653061E+00 -0.9728507E-04  0.0000000E+00  0.5249244E-03
  0.1040816E+01  0.0000000E+00  0.2653061E+00 -0.9344426E-04  0.0000000E+00  0.4945085E-03
  0.1081633E+01  0.0000000E+00  0.2653061E+00 -0.8907294E-04  0.0000000E+00  0.4656427E-03
  0.1122449E+01  0.0000000E+00  0.2653061E+00 -0.8433247E-04  0.0000000E+00  0.4384352E-03
  0.1163265E+01  0.0000000E+00  0.2653061E+00 -0.7936229E-04  0.0000000E+00  0.4129441E-03
  0.1204082E+01  0.0000000E+00  0.2653061E+00 -0.7427932E-04  0.0000000E+00  0.3891862E-03
  0.1244898E+01  0.0000000E+00  0.2653061E+00 -0.6917864E-04  0.0000000E+00  0.3671467E-03
  0.1285714E+01  0.0000000E+00  0.2653061E+00 -0.6413496E-04  0.0000000E+00  0.3467865E-03
  0.1326531E+01  0.0000000E+00  0.2653061E+00 -0.5920452E-04  0.0000000E+00  0.3280492E-03