title = "dataset feddes"
variables = "x", "y", "z", "vx", "vy", "vz"
zone t = "velocities, solution time =  7.000E+00 days        " i =   49, j =   49, k =    1,  f=point
  0.2040816E-01  0.0000000E+00  0.2040816E-01  0.6333862E-10  0.0000000E+00  0.8180541E-02
  0.6122449E-01  0.0000000E+00  0.2040816E-01  0.2706839E-09  0.0000000E+00  0.8180542E-02
  0.1020408E+00  0.0000000E+00  0.2040816E-01  0.2245205E-09  0.0000000E+00  0.8180543E-02
  0.1428571E+00  0.0000000E+00  0.2040816E-01 -0.1385572E-10  0.0000000E+00  0.8180543E-02
  0.1836735E+00  0.0000000E+00  0.2040816E-01 -0.1793988E-09  0.0000000E+00  0.8180543E-02
  0.2244898E+00  0.0000000E+00  0.2040816E-01 -0.1006143E-09  0.0000000E+00  0.8180542E-02
  0.2653061E+00  0.0000000E+00  0.2040816E-01 -0.4529595E-10  0.0000000E+00  0.8180542E-02
  0.3061225E+00  0.0000000E+00  0.2040816E-01 -0.5217208E-10  0.0000000E+00  0.8180542E-02
  0.3469388E+00  0.0000000E+00  0.2040816E-01 -0.8184778E-10  0.0000000E+00  0.8180541E-02
  0.3877551E+00  0.0000000E+00  0.2040816E-01 -0.1038097E-09  0.0000000E+00  0.8180541E-02
  0.4285714E+00  0.0000000E+00  0.2040816E-01 -0.1326075E-09  0.0000000E+00  0.8180541E-02
  0.4693878E+00  0.0000000E+00  0.2040816E-01  0.2897841E-10  0.0000000E+00  0.8180540E-02
  0.5102041E+00  0.0000000E+00  0.2040816E-01  0.2103080E-09  0.0000000E+00  0.8180541E-02
  0.5510204E+00  0.0000000E+00  0.2040816E-01  0.1833946E-09  0.0000000E+00  0.8180542E-02
  0.5918368E+00  0.0000000E+00  0.2040816E-01  0.1386355E-09  0.0000000E+00  0.8180542E-02
  0.6326531E+00  0.0000000E+00  0.2040816E-01  0.1249253E-09  0.0000000E+00  0.8180543E-02
  0.6734694E+00  0.0000000E+00  0.2040816E-01  0.1316354E-09  0.0000000E+00  0.8180544E-02
  0.7142857E+00  0.0000000E+00  0.2040816E-01 -0.4565504E-10  0.0000000E+00  0.8180544E-02
  0.7551020E+00  0.0000000E+00  0.2040816E-01 -0.2060559E-09  0.0000000E+00  0.8180543E-02
  0.7959183E+00  0.0000000E+00  0.2040816E-01 -0.1200725E-09  0.0000000E+00  0.8180542E-02
  0.8367347E+00  0.0000000E+00  0.2040816E-01 -0.6550993E-10  0.0000000E+00  0.8180542E-02
  0.8775510E+00  0.0000000E+00  0.2040816E-01 -0.5475024E-10  0.0000000E+00  0.8180542E-02
  0.9183673E+00  0.0000000E+00  0.2040816E-01 -0.6999901E-10  0.0000000E+00  0.8180542E-02
  0.9591837E+00  0.0000000E+00  0.2040816E-01 -0.9375367E-10  0.0000000E+00  0.8180541E-02
  0.1000000E+01  0.0000000E+00  0.2040816E-01 -0.1042688E-09  0.0000000E+00  0.8180541E-02
  0.1040816E+01  0.0000000E+00  0.2040816E-01 -0.5329751E-10  0.0000000E+00  0.8180540E-02
  0.1081633E+01  0.0000000E+00  0.2040816E-01  0.2403599E-09  0.0000000E+00  0.8180541E-02
  0.1122449E+01  0.0000000E+00  0.2040816E-01  0.1263692E-09  0.0000000E+00  0.8180542E-02
  0.1163265E+01  0.0000000E+00  0.2040816E-01  0.4836394E-10  0.0000000E+00  0.8180542E-02
  0.1204082E+01  0.0000000E+00  0.2040816E-01  0.1118901E-10  0.0000000E+00  0.8180542E-02
  0.1244898E+01  0.0000000E+00  0.2040816E-01  0.1313844E-11  0.0000000E+00  0.8180542E-02
  0.1285714E+01  0.0000000E+00  0.2040816E-01  0.6396153E-12  0.0000000E+00  0.8180542E-02
  0.1326531E+01  0.0000000E+00  0.2040816E-01 -0.4447649E-11  0.0000000E+00  0.8180542E-02
  0.1367347E+01  0.0000000E+00  0.2040816E-01 -0.7329403E-11  0.0000000E+00  0.8180542E-02
  0.1408163E+01  0.0000000E+00  0.2040816E-01 -0.2471621E-11  0.0000000E+00  0.8180542E-02
  0.1448980E+01  0.0000000E+00  0.2040816E-01  0.8859994E-12  0.0000000E+00  0.8180542E-02
  0.1489796E+01  0.0000000E+00  0.2040816E-01 -0.5211029E-12  0.0000000E+00  0.8180542E-02
  0.1530612E+01  0.0000000E+00  0.2040816E-01 -0.2383694E-11  0.0000000E+00  0.8180542E-02
  0.1571429E+01  0.0000000E+00  0.2040816E-01 -0.2239611E-11  0.0000000E+00  0.8180542E-02
  0.1612245E+01  0.0000000E+00  0.2040816E-01 -0.1302945E-11  0.0000000E+00  0.8180542E-02
  0.1653061E+01  0.0000000E+00  0.2040816E-01 -0.9079761E-12  0.0000000E+00  0.8180542E-02
  0.1693878E+01  0.0000000E+00  0.2040816E-01 -0.4378560E-12  0.0000000E+00  0.8180542E-02
  0.1734694E+01  0.0000000E+00  0.2040816E-01  0.2171134E-11  0.0000000E+00  0.8180542E-02
  0.1775510E+01  0.0000000E+00  0.2040816E-01  0.9314061E-11  0.0000000E+00  0.8180542E-02
  0.1816326E+01  0.0000000E+00  0.2040816E-01  0.2319241E-10  0.0000000E+00  0.8180542E-02
  0.1857143E+01  0.0000000E+00  0.2040816E-01  0.4539679E-10  0.0000000E+00  0.8180542E-02
  0.1897959E+01  0.0000000E+00  0.2040816E-01  0.7541630E-10  0.0000000E+00  0.8180543E-02
  0.1938776E+01  0.0000000E+00  0.2040816E-01  0.1087186E-09  0.0000000E+00  0.8180543E-02
  0.1989796E+01  0.0000000E+00  0.2040816E-01  0.1453614E-09  0.0000000E+00  0.8180544E-02
  0.2040816E-01  0.0000000E+00  0.6122449E-01  0.1907278E-09  0.0000000E+00  0.8180312E-02
  0.6122449E-01  0.0000000E+00  0.6122449E-01  0.8092019E-09  0.0000000E+00  0.8180312E-02
  0.1020408E+00  0.0000000E+00  0.6122449E-01  0.6195462E-09  0.0000000E+00  0.8180313E-02
  0.1428571E+00  0.0000000E+00  0.6122449E-01 -0.7542746E-10  0.0000000E+00  0.8180313E-02
  0.1836735E+00  0.0000000E+00  0.6122449E-01 -0.4906024E-09  0.0000000E+00  0.8180313E-02
  0.2244898E+00  0.0000000E+00  0.6122449E-01 -0.3002107E-09  0.0000000E+00  0.8180312E-02
  0.2653061E+00  0.0000000E+00  0.6122449E-01 -0.1620023E-09  0.0000000E+00  0.8180312E-02
  0.3061225E+00  0.0000000E+00  0.6122449E-01 -0.1732794E-09  0.0000000E+00  0.8180312E-02
  0.3469388E+00  0.0000000E+00  0.6122449E-01 -0.2594303E-09  0.0000000E+00  0.8180312E-02
  0.3877551E+00  0.0000000E+00  0.6122449E-01 -0.3367113E-09  0.0000000E+00  0.8180311E-02
  0.4285714E+00  0.0000000E+00  0.6122449E-01 -0.3567803E-09  0.0000000E+00  0.8180311E-02
  0.4693878E+00  0.0000000E+00  0.6122449E-01  0.8682473E-10  0.0000000E+00  0.8180311E-02
  0.5102041E+00  0.0000000E+00  0.6122449E-01  0.5897090E-09  0.0000000E+00  0.8180311E-02
  0.5510204E+00  0.0000000E+00  0.6122449E-01  0.5980957E-09  0.0000000E+00  0.8180312E-02
  0.5918368E+00  0.0000000E+00  0.6122449E-01  0.4762911E-09  0.0000000E+00  0.8180312E-02
  0.6326531E+00  0.0000000E+00  0.6122449E-01  0.4194230E-09  0.0000000E+00  0.8180313E-02
  0.6734694E+00  0.0000000E+00  0.6122449E-01  0.3464336E-09  0.0000000E+00  0.8180313E-02
  0.7142857E+00  0.0000000E+00  0.6122449E-01 -0.1610587E-09  0.0000000E+00  0.8180314E-02
  0.7551020E+00  0.0000000E+00  0.6122449E-01 -0.5960583E-09  0.0000000E+00  0.8180313E-02
  0.7959183E+00  0.0000000E+00  0.6122449E-01 -0.3711674E-09  0.0000000E+00  0.8180313E-02
  0.8367347E+00  0.0000000E+00  0.6122449E-01 -0.2159178E-09  0.0000000E+00  0.8180312E-02
  0.8775510E+00  0.0000000E+00  0.6122449E-01 -0.1873317E-09  0.0000000E+00  0.8180312E-02
  0.9183673E+00  0.0000000E+00  0.6122449E-01 -0.2409305E-09  0.0000000E+00  0.8180312E-02
  0.9591837E+00  0.0000000E+00  0.6122449E-01 -0.3189396E-09  0.0000000E+00  0.8180311E-02
  0.1000000E+01  0.0000000E+00  0.6122449E-01 -0.3553208E-09  0.0000000E+00  0.8180311E-02
  0.1040816E+01  0.0000000E+00  0.6122449E-01  0.2306484E-10  0.0000000E+00  0.8180311E-02
  0.1081633E+01  0.0000000E+00  0.6122449E-01  0.6574346E-09  0.0000000E+00  0.8180311E-02
  0.1122449E+01  0.0000000E+00  0.6122449E-01  0.3753070E-09  0.0000000E+00  0.8180312E-02
  0.1163265E+01  0.0000000E+00  0.6122449E-01  0.1543780E-09  0.0000000E+00  0.8180312E-02
  0.1204082E+01  0.0000000E+00  0.6122449E-01  0.4477236E-10  0.0000000E+00  0.8180312E-02
  0.1244898E+01  0.0000000E+00  0.6122449E-01  0.5536816E-11  0.0000000E+00  0.8180312E-02
  0.1285714E+01  0.0000000E+00  0.6122449E-01 -0.3808249E-11  0.0000000E+00  0.8180312E-02
  0.1326531E+01  0.0000000E+00  0.6122449E-01 -0.1410123E-10  0.0000000E+00  0.8180312E-02
  0.1367347E+01  0.0000000E+00  0.6122449E-01 -0.1911335E-10  0.0000000E+00  0.8180312E-02
  0.1408163E+01  0.0000000E+00  0.6122449E-01 -0.8020036E-11  0.0000000E+00  0.8180312E-02
  0.1448980E+01  0.0000000E+00  0.6122449E-01 -0.2057342E-12  0.0000000E+00  0.8180312E-02
  0.1489796E+01  0.0000000E+00  0.6122449E-01 -0.3073892E-11  0.0000000E+00  0.8180312E-02
  0.1530612E+01  0.0000000E+00  0.6122449E-01 -0.7191100E-11  0.0000000E+00  0.8180312E-02
  0.1571429E+01  0.0000000E+00  0.6122449E-01 -0.6990845E-11  0.0000000E+00  0.8180312E-02
  0.1612245E+01  0.0000000E+00  0.6122449E-01 -0.5163135E-11  0.0000000E+00  0.8180312E-02
  0.1653061E+01  0.0000000E+00  0.6122449E-01 -0.4483540E-11  0.0000000E+00  0.8180312E-02
  0.1693878E+01  0.0000000E+00  0.6122449E-01 -0.2841340E-11  0.0000000E+00  0.8180312E-02
  0.1734694E+01  0.0000000E+00  0.6122449E-01  0.5908615E-11  0.0000000E+00  0.8180312E-02
  0.1775510E+01  0.0000000E+00  0.6122449E-01  0.2961186E-10  0.0000000E+00  0.8180312E-02
  0.1816326E+01  0.0000000E+00  0.6122449E-01  0.7642717E-10  0.0000000E+00  0.8180312E-02
  0.1857143E+01  0.0000000E+00  0.6122449E-01  0.1527104E-09  0.0000000E+00  0.8180312E-02
  0.1897959E+01  0.0000000E+00  0.6122449E-01  0.2552965E-09  0.0000000E+00  0.8180313E-02
  0.1938776E+01  0.0000000E+00  0.6122449E-01  0.3526279E-09  0.0000000E+00  0.8180313E-02
  0.1989796E+01  0.0000000E+00  0.6122449E-01  0.3624333E-09  0.0000000E+00  0.8180313E-02
  0.2040816E-01  0.0000000E+00  0.1020408E+00  0.3337079E-09  0.0000000E+00  0.8179391E-02
  0.6122449E-01  0.0000000E+00  0.1020408E+00  0.1260342E-08  0.0000000E+00  0.8179392E-02
  0.1020408E+00  0.0000000E+00  0.1020408E+00  0.8397645E-09  0.0000000E+00  0.8179392E-02
  0.1428571E+00  0.0000000E+00  0.1020408E+00 -0.2613173E-09  0.0000000E+00  0.8179392E-02
  0.1836735E+00  0.0000000E+00  0.1020408E+00 -0.6603105E-09  0.0000000E+00  0.8179392E-02
  0.2244898E+00  0.0000000E+00  0.1020408E+00 -0.4314633E-09  0.0000000E+00  0.8179392E-02
  0.2653061E+00  0.0000000E+00  0.1020408E+00 -0.2693026E-09  0.0000000E+00  0.8179391E-02
  0.3061225E+00  0.0000000E+00  0.1020408E+00 -0.2876773E-09  0.0000000E+00  0.8179391E-02
  0.3469388E+00  0.0000000E+00  0.1020408E+00 -0.4277407E-09  0.0000000E+00  0.8179391E-02
  0.3877551E+00  0.0000000E+00  0.1020408E+00 -0.5692862E-09  0.0000000E+00  0.8179391E-02
  0.4285714E+00  0.0000000E+00  0.1020408E+00 -0.4615355E-09  0.0000000E+00  0.8179390E-02
  0.4693878E+00  0.0000000E+00  0.1020408E+00  0.1400416E-09  0.0000000E+00  0.8179390E-02
  0.5102041E+00  0.0000000E+00  0.1020408E+00  0.7645372E-09  0.0000000E+00  0.8179390E-02
  0.5510204E+00  0.0000000E+00  0.1020408E+00  0.1011990E-08  0.0000000E+00  0.8179391E-02
  0.5918368E+00  0.0000000E+00  0.1020408E+00  0.8681946E-09  0.0000000E+00  0.8179392E-02
  0.6326531E+00  0.0000000E+00  0.1020408E+00  0.7521494E-09  0.0000000E+00  0.8179392E-02
  0.6734694E+00  0.0000000E+00  0.1020408E+00  0.4369318E-09  0.0000000E+00  0.8179393E-02
  0.7142857E+00  0.0000000E+00  0.1020408E+00 -0.3338273E-09  0.0000000E+00  0.8179392E-02
  0.7551020E+00  0.0000000E+00  0.1020408E+00 -0.8645227E-09  0.0000000E+00  0.8179392E-02
  0.7959183E+00  0.0000000E+00  0.1020408E+00 -0.5721757E-09  0.0000000E+00  0.8179392E-02
  0.8367347E+00  0.0000000E+00  0.1020408E+00 -0.3584971E-09  0.0000000E+00  0.8179391E-02
  0.8775510E+00  0.0000000E+00  0.1020408E+00 -0.3305557E-09  0.0000000E+00  0.8179391E-02
  0.9183673E+00  0.0000000E+00  0.1020408E+00 -0.4375329E-09  0.0000000E+00  0.8179391E-02
  0.9591837E+00  0.0000000E+00  0.1020408E+00 -0.5713712E-09  0.0000000E+00  0.8179391E-02
  0.1000000E+01  0.0000000E+00  0.1020408E+00 -0.5062146E-09  0.0000000E+00  0.8179390E-02
  0.1040816E+01  0.0000000E+00  0.1020408E+00  0.2161395E-09  0.0000000E+00  0.8179390E-02
  0.1081633E+01  0.0000000E+00  0.1020408E+00  0.9415972E-09  0.0000000E+00  0.8179391E-02
  0.1122449E+01  0.0000000E+00  0.1020408E+00  0.5786026E-09  0.0000000E+00  0.8179391E-02
  0.1163265E+01  0.0000000E+00  0.1020408E+00  0.2542234E-09  0.0000000E+00  0.8179391E-02
  0.1204082E+01  0.0000000E+00  0.1020408E+00  0.8469602E-10  0.0000000E+00  0.8179391E-02
  0.1244898E+01  0.0000000E+00  0.1020408E+00  0.1217704E-10  0.0000000E+00  0.8179391E-02
  0.1285714E+01  0.0000000E+00  0.1020408E+00 -0.1267255E-10  0.0000000E+00  0.8179391E-02
  0.1326531E+01  0.0000000E+00  0.1020408E+00 -0.2313460E-10  0.0000000E+00  0.8179391E-02
  0.1367347E+01  0.0000000E+00  0.1020408E+00 -0.2598560E-10  0.0000000E+00  0.8179391E-02
  0.1408163E+01  0.0000000E+00  0.1020408E+00 -0.1396014E-10  0.0000000E+00  0.8179391E-02
  0.1448980E+01  0.0000000E+00  0.1020408E+00 -0.5179300E-11  0.0000000E+00  0.8179391E-02
  0.1489796E+01  0.0000000E+00  0.1020408E+00 -0.7387734E-11  0.0000000E+00  0.8179391E-02
  0.1530612E+01  0.0000000E+00  0.1020408E+00 -0.1148279E-10  0.0000000E+00  0.8179391E-02
  0.1571429E+01  0.0000000E+00  0.1020408E+00 -0.1179612E-10  0.0000000E+00  0.8179391E-02
  0.1612245E+01  0.0000000E+00  0.1020408E+00 -0.1093530E-10  0.0000000E+00  0.8179391E-02
  0.1653061E+01  0.0000000E+00  0.1020408E+00 -0.1108466E-10  0.0000000E+00  0.8179391E-02
  0.1693878E+01  0.0000000E+00  0.1020408E+00 -0.8478457E-11  0.0000000E+00  0.8179391E-02
  0.1734694E+01  0.0000000E+00  0.1020408E+00  0.6247260E-11  0.0000000E+00  0.8179391E-02
  0.1775510E+01  0.0000000E+00  0.1020408E+00  0.4644252E-10  0.0000000E+00  0.8179391E-02
  0.1816326E+01  0.0000000E+00  0.1020408E+00  0.1282733E-09  0.0000000E+00  0.8179391E-02
  0.1857143E+01  0.0000000E+00  0.1020408E+00  0.2665211E-09  0.0000000E+00  0.8179392E-02
  0.1897959E+01  0.0000000E+00  0.1020408E+00  0.4563239E-09  0.0000000E+00  0.8179392E-02
  0.1938776E+01  0.0000000E+00  0.1020408E+00  0.6149819E-09  0.0000000E+00  0.8179392E-02
  0.1989796E+01  0.0000000E+00  0.1020408E+00  0.4473164E-09  0.0000000E+00  0.8179393E-02
  0.2040816E-01  0.0000000E+00  0.1428571E+00  0.4936743E-09  0.0000000E+00  0.8177388E-02
  0.6122449E-01  0.0000000E+00  0.1428571E+00  0.1576921E-08  0.0000000E+00  0.8177389E-02
  0.1020408E+00  0.0000000E+00  0.1428571E+00  0.8899692E-09  0.0000000E+00  0.8177389E-02
  0.1428571E+00  0.0000000E+00  0.1428571E+00 -0.6153037E-09  0.0000000E+00  0.8177389E-02
  0.1836735E+00  0.0000000E+00  0.1428571E+00 -0.6913597E-09  0.0000000E+00  0.8177389E-02
  0.2244898E+00  0.0000000E+00  0.1428571E+00 -0.4437473E-09  0.0000000E+00  0.8177388E-02
  0.2653061E+00  0.0000000E+00  0.1428571E+00 -0.2965484E-09  0.0000000E+00  0.8177388E-02
  0.3061225E+00  0.0000000E+00  0.1428571E+00 -0.3407063E-09  0.0000000E+00  0.8177388E-02
  0.3469388E+00  0.0000000E+00  0.1428571E+00 -0.5334359E-09  0.0000000E+00  0.8177388E-02
  0.3877551E+00  0.0000000E+00  0.1428571E+00 -0.7366102E-09  0.0000000E+00  0.8177388E-02
  0.4285714E+00  0.0000000E+00  0.1428571E+00 -0.4709748E-09  0.0000000E+00  0.8177388E-02
  0.4693878E+00  0.0000000E+00  0.1428571E+00  0.1702407E-09  0.0000000E+00  0.8177388E-02
  0.5102041E+00  0.0000000E+00  0.1428571E+00  0.6382637E-09  0.0000000E+00  0.8177388E-02
  0.5510204E+00  0.0000000E+00  0.1428571E+00  0.1324962E-08  0.0000000E+00  0.8177388E-02
  0.5918368E+00  0.0000000E+00  0.1428571E+00  0.1242523E-08  0.0000000E+00  0.8177388E-02
  0.6326531E+00  0.0000000E+00  0.1428571E+00  0.1071253E-08  0.0000000E+00  0.8177389E-02
  0.6734694E+00  0.0000000E+00  0.1428571E+00  0.4473333E-09  0.0000000E+00  0.8177389E-02
  0.7142857E+00  0.0000000E+00  0.1428571E+00 -0.5956889E-09  0.0000000E+00  0.8177389E-02
  0.7551020E+00  0.0000000E+00  0.1428571E+00 -0.9699499E-09  0.0000000E+00  0.8177389E-02
  0.7959183E+00  0.0000000E+00  0.1428571E+00 -0.6585083E-09  0.0000000E+00  0.8177389E-02
  0.8367347E+00  0.0000000E+00  0.1428571E+00 -0.4402240E-09  0.0000000E+00  0.8177388E-02
  0.8775510E+00  0.0000000E+00  0.1428571E+00 -0.4348910E-09  0.0000000E+00  0.8177388E-02
  0.9183673E+00  0.0000000E+00  0.1428571E+00 -0.6004636E-09  0.0000000E+00  0.8177388E-02
  0.9591837E+00  0.0000000E+00  0.1428571E+00 -0.7850044E-09  0.0000000E+00  0.8177388E-02
  0.1000000E+01  0.0000000E+00  0.1428571E+00 -0.5026326E-09  0.0000000E+00  0.8177388E-02
  0.1040816E+01  0.0000000E+00  0.1428571E+00  0.3246638E-09  0.0000000E+00  0.8177388E-02
  0.1081633E+01  0.0000000E+00  0.1428571E+00  0.1111787E-08  0.0000000E+00  0.8177388E-02
  0.1122449E+01  0.0000000E+00  0.1428571E+00  0.7106628E-09  0.0000000E+00  0.8177388E-02
  0.1163265E+01  0.0000000E+00  0.1428571E+00  0.3260066E-09  0.0000000E+00  0.8177388E-02
  0.1204082E+01  0.0000000E+00  0.1428571E+00  0.1140423E-09  0.0000000E+00  0.8177388E-02
  0.1244898E+01  0.0000000E+00  0.1428571E+00  0.1922872E-10  0.0000000E+00  0.8177389E-02
  0.1285714E+01  0.0000000E+00  0.1428571E+00 -0.1756935E-10  0.0000000E+00  0.8177389E-02
  0.1326531E+01  0.0000000E+00  0.1428571E+00 -0.2961860E-10  0.0000000E+00  0.8177388E-02
  0.1367347E+01  0.0000000E+00  0.1428571E+00 -0.3086075E-10  0.0000000E+00  0.8177388E-02
  0.1408163E+01  0.0000000E+00  0.1428571E+00 -0.1964721E-10  0.0000000E+00  0.8177388E-02
  0.1448980E+01  0.0000000E+00  0.1428571E+00 -0.1079467E-10  0.0000000E+00  0.8177388E-02
  0.1489796E+01  0.0000000E+00  0.1428571E+00 -0.1154109E-10  0.0000000E+00  0.8177388E-02
  0.1530612E+01  0.0000000E+00  0.1428571E+00 -0.1507643E-10  0.0000000E+00  0.8177388E-02
  0.1571429E+01  0.0000000E+00  0.1428571E+00 -0.1646555E-10  0.0000000E+00  0.8177388E-02
  0.1612245E+01  0.0000000E+00  0.1428571E+00 -0.1748319E-10  0.0000000E+00  0.8177388E-02
  0.1653061E+01  0.0000000E+00  0.1428571E+00 -0.1913287E-10  0.0000000E+00  0.8177388E-02
  0.1693878E+01  0.0000000E+00  0.1428571E+00 -0.1636621E-10  0.0000000E+00  0.8177388E-02
  0.1734694E+01  0.0000000E+00  0.1428571E+00  0.2127035E-11  0.0000000E+00  0.8177388E-02
  0.1775510E+01  0.0000000E+00  0.1428571E+00  0.5362091E-10  0.0000000E+00  0.8177388E-02
  0.1816326E+01  0.0000000E+00  0.1428571E+00  0.1617516E-09  0.0000000E+00  0.8177388E-02
  0.1857143E+01  0.0000000E+00  0.1428571E+00  0.3522485E-09  0.0000000E+00  0.8177389E-02
  0.1897959E+01  0.0000000E+00  0.1428571E+00  0.6246000E-09  0.0000000E+00  0.8177389E-02
  0.1938776E+01  0.0000000E+00  0.1428571E+00  0.8476996E-09  0.0000000E+00  0.8177389E-02
  0.1989796E+01  0.0000000E+00  0.1428571E+00  0.4795010E-09  0.0000000E+00  0.8177389E-02
  0.2040816E-01  0.0000000E+00  0.1836735E+00  0.6294391E-09  0.0000000E+00  0.8173912E-02
  0.6122449E-01  0.0000000E+00  0.1836735E+00  0.1797590E-08  0.0000000E+00  0.8173912E-02
  0.1020408E+00  0.0000000E+00  0.1836735E+00  0.6498661E-09  0.0000000E+00  0.8173912E-02
  0.1428571E+00  0.0000000E+00  0.1836735E+00 -0.8230132E-09  0.0000000E+00  0.8173912E-02
  0.1836735E+00  0.0000000E+00  0.1836735E+00 -0.6707144E-09  0.0000000E+00  0.8173912E-02
  0.2244898E+00  0.0000000E+00  0.1836735E+00 -0.4008219E-09  0.0000000E+00  0.8173912E-02
  0.2653061E+00  0.0000000E+00  0.1836735E+00 -0.2649439E-09  0.0000000E+00  0.8173912E-02
  0.3061225E+00  0.0000000E+00  0.1836735E+00 -0.3283895E-09  0.0000000E+00  0.8173912E-02
  0.3469388E+00  0.0000000E+00  0.1836735E+00 -0.5567739E-09  0.0000000E+00  0.8173912E-02
  0.3877551E+00  0.0000000E+00  0.1836735E+00 -0.8171481E-09  0.0000000E+00  0.8173911E-02
  0.4285714E+00  0.0000000E+00  0.1836735E+00 -0.4478985E-09  0.0000000E+00  0.8173911E-02
  0.4693878E+00  0.0000000E+00  0.1836735E+00 -0.4405628E-10  0.0000000E+00  0.8173911E-02
  0.5102041E+00  0.0000000E+00  0.1836735E+00  0.5469497E-09  0.0000000E+00  0.8173911E-02
  0.5510204E+00  0.0000000E+00  0.1836735E+00  0.1499753E-08  0.0000000E+00  0.8173911E-02
  0.5918368E+00  0.0000000E+00  0.1836735E+00  0.1565303E-08  0.0000000E+00  0.8173912E-02
  0.6326531E+00  0.0000000E+00  0.1836735E+00  0.1363496E-08  0.0000000E+00  0.8173912E-02
  0.6734694E+00  0.0000000E+00  0.1836735E+00  0.4527283E-09  0.0000000E+00  0.8173913E-02
  0.7142857E+00  0.0000000E+00  0.1836735E+00 -0.9719312E-09  0.0000000E+00  0.8173912E-02
  0.7551020E+00  0.0000000E+00  0.1836735E+00 -0.9716397E-09  0.0000000E+00  0.8173912E-02
  0.7959183E+00  0.0000000E+00  0.1836735E+00 -0.6487327E-09  0.0000000E+00  0.8173912E-02
  0.8367347E+00  0.0000000E+00  0.1836735E+00 -0.4580948E-09  0.0000000E+00  0.8173912E-02
  0.8775510E+00  0.0000000E+00  0.1836735E+00 -0.4878253E-09  0.0000000E+00  0.8173912E-02
  0.9183673E+00  0.0000000E+00  0.1836735E+00 -0.7075665E-09  0.0000000E+00  0.8173911E-02
  0.9591837E+00  0.0000000E+00  0.1836735E+00 -0.9385393E-09  0.0000000E+00  0.8173911E-02
  0.1000000E+01  0.0000000E+00  0.1836735E+00 -0.4929540E-09  0.0000000E+00  0.8173911E-02
  0.1040816E+01  0.0000000E+00  0.1836735E+00  0.4023180E-09  0.0000000E+00  0.8173911E-02
  0.1081633E+01  0.0000000E+00  0.1836735E+00  0.1209092E-08  0.0000000E+00  0.8173911E-02
  0.1122449E+01  0.0000000E+00  0.1836735E+00  0.7909220E-09  0.0000000E+00  0.8173912E-02
  0.1163265E+01  0.0000000E+00  0.1836735E+00  0.3745742E-09  0.0000000E+00  0.8173912E-02
  0.1204082E+01  0.0000000E+00  0.1836735E+00  0.1346218E-09  0.0000000E+00  0.8173912E-02
  0.1244898E+01  0.0000000E+00  0.1836735E+00  0.2520507E-10  0.0000000E+00  0.8173912E-02
  0.1285714E+01  0.0000000E+00  0.1836735E+00 -0.1918751E-10  0.0000000E+00  0.8173912E-02
  0.1326531E+01  0.0000000E+00  0.1836735E+00 -0.3418556E-10  0.0000000E+00  0.8173912E-02
  0.1367347E+01  0.0000000E+00  0.1836735E+00 -0.3521397E-10  0.0000000E+00  0.8173912E-02
  0.1408163E+01  0.0000000E+00  0.1836735E+00 -0.2485226E-10  0.0000000E+00  0.8173912E-02
  0.1448980E+01  0.0000000E+00  0.1836735E+00 -0.1572194E-10  0.0000000E+00  0.8173912E-02
  0.1489796E+01  0.0000000E+00  0.1836735E+00 -0.1503947E-10  0.0000000E+00  0.8173912E-02
  0.1530612E+01  0.0000000E+00  0.1836735E+00 -0.1836834E-10  0.0000000E+00  0.8173912E-02
  0.1571429E+01  0.0000000E+00  0.1836735E+00 -0.2105930E-10  0.0000000E+00  0.8173912E-02
  0.1612245E+01  0.0000000E+00  0.1836735E+00 -0.2379081E-10  0.0000000E+00  0.8173912E-02
  0.1653061E+01  0.0000000E+00  0.1836735E+00 -0.2685646E-10  0.0000000E+00  0.8173912E-02
  0.1693878E+01  0.0000000E+00  0.1836735E+00 -0.2448756E-10  0.0000000E+00  0.8173912E-02
  0.1734694E+01  0.0000000E+00  0.1836735E+00 -0.4028576E-11  0.0000000E+00  0.8173912E-02
  0.1775510E+01  0.0000000E+00  0.1836735E+00  0.5405683E-10  0.0000000E+00  0.8173912E-02
  0.1816326E+01  0.0000000E+00  0.1836735E+00  0.1783428E-09  0.0000000E+00  0.8173912E-02
  0.1857143E+01  0.0000000E+00  0.1836735E+00  0.4051126E-09  0.0000000E+00  0.8173912E-02
  0.1897959E+01  0.0000000E+00  0.1836735E+00  0.7421181E-09  0.0000000E+00  0.8173912E-02
  0.1938776E+01  0.0000000E+00  0.1836735E+00  0.1026926E-08  0.0000000E+00  0.8173912E-02
  0.1989796E+01  0.0000000E+00  0.1836735E+00  0.5160199E-09  0.0000000E+00  0.8173913E-02
  0.2040816E-01  0.0000000E+00  0.2244898E+00  0.7191448E-09  0.0000000E+00  0.8168558E-02
  0.6122449E-01  0.0000000E+00  0.2244898E+00  0.1726696E-08  0.0000000E+00  0.8168558E-02
  0.1020408E+00  0.0000000E+00  0.2244898E+00  0.3924536E-09  0.0000000E+00  0.8168558E-02
  0.1428571E+00  0.0000000E+00  0.2244898E+00 -0.8140417E-09  0.0000000E+00  0.8168558E-02
  0.1836735E+00  0.0000000E+00  0.2244898E+00 -0.6446285E-09  0.0000000E+00  0.8168558E-02
  0.2244898E+00  0.0000000E+00  0.2244898E+00 -0.3594981E-09  0.0000000E+00  0.8168558E-02
  0.2653061E+00  0.0000000E+00  0.2244898E+00 -0.2179566E-09  0.0000000E+00  0.8168558E-02
  0.3061225E+00  0.0000000E+00  0.2244898E+00 -0.2746696E-09  0.0000000E+00  0.8168558E-02
  0.3469388E+00  0.0000000E+00  0.2244898E+00 -0.5018538E-09  0.0000000E+00  0.8168558E-02
  0.3877551E+00  0.0000000E+00  0.2244898E+00 -0.8064744E-09  0.0000000E+00  0.8168558E-02
  0.4285714E+00  0.0000000E+00  0.2244898E+00 -0.5821805E-09  0.0000000E+00  0.8168557E-02
  0.4693878E+00  0.0000000E+00  0.2244898E+00 -0.2736253E-09  0.0000000E+00  0.8168557E-02
  0.5102041E+00  0.0000000E+00  0.2244898E+00  0.6017975E-09  0.0000000E+00  0.8168557E-02
  0.5510204E+00  0.0000000E+00  0.2244898E+00  0.1481510E-08  0.0000000E+00  0.8168557E-02
  0.5918368E+00  0.0000000E+00  0.2244898E+00  0.1814089E-08  0.0000000E+00  0.8168558E-02
  0.6326531E+00  0.0000000E+00  0.2244898E+00  0.1627561E-08  0.0000000E+00  0.8168558E-02
  0.6734694E+00  0.0000000E+00  0.2244898E+00  0.2464900E-09  0.0000000E+00  0.8168558E-02
  0.7142857E+00  0.0000000E+00  0.2244898E+00 -0.1158836E-08  0.0000000E+00  0.8168558E-02
  0.7551020E+00  0.0000000E+00  0.2244898E+00 -0.9315788E-09  0.0000000E+00  0.8168558E-02
  0.7959183E+00  0.0000000E+00  0.2244898E+00 -0.6013635E-09  0.0000000E+00  0.8168558E-02
  0.8367347E+00  0.0000000E+00  0.2244898E+00 -0.4399655E-09  0.0000000E+00  0.8168558E-02
  0.8775510E+00  0.0000000E+00  0.2244898E+00 -0.5027846E-09  0.0000000E+00  0.8168558E-02
  0.9183673E+00  0.0000000E+00  0.2244898E+00 -0.7670394E-09  0.0000000E+00  0.8168557E-02
  0.9591837E+00  0.0000000E+00  0.2244898E+00 -0.1034673E-08  0.0000000E+00  0.8168557E-02
  0.1000000E+01  0.0000000E+00  0.2244898E+00 -0.4878496E-09  0.0000000E+00  0.8168557E-02
  0.1040816E+01  0.0000000E+00  0.2244898E+00  0.4549119E-09  0.0000000E+00  0.8168557E-02
  0.1081633E+01  0.0000000E+00  0.2244898E+00  0.1257042E-08  0.0000000E+00  0.8168557E-02
  0.1122449E+01  0.0000000E+00  0.2244898E+00  0.8330021E-09  0.0000000E+00  0.8168558E-02
  0.1163265E+01  0.0000000E+00  0.2244898E+00  0.4038991E-09  0.0000000E+00  0.8168558E-02
  0.1204082E+01  0.0000000E+00  0.2244898E+00  0.1492173E-09  0.0000000E+00  0.8168558E-02
  0.1244898E+01  0.0000000E+00  0.2244898E+00  0.2989020E-10  0.0000000E+00  0.8168558E-02
  0.1285714E+01  0.0000000E+00  0.2244898E+00 -0.1997258E-10  0.0000000E+00  0.8168558E-02
  0.1326531E+01  0.0000000E+00  0.2244898E+00 -0.3747666E-10  0.0000000E+00  0.8168558E-02
  0.1367347E+01  0.0000000E+00  0.2244898E+00 -0.3831541E-10  0.0000000E+00  0.8168558E-02
  0.1408163E+01  0.0000000E+00  0.2244898E+00 -0.2907514E-10  0.0000000E+00  0.8168558E-02
  0.1448980E+01  0.0000000E+00  0.2244898E+00 -0.2024254E-10  0.0000000E+00  0.8168558E-02
  0.1489796E+01  0.0000000E+00  0.2244898E+00 -0.1830190E-10  0.0000000E+00  0.8168558E-02
  0.1530612E+01  0.0000000E+00  0.2244898E+00 -0.2131896E-10  0.0000000E+00  0.8168558E-02
  0.1571429E+01  0.0000000E+00  0.2244898E+00 -0.2516449E-10  0.0000000E+00  0.8168558E-02
  0.1612245E+01  0.0000000E+00  0.2244898E+00 -0.2921784E-10  0.0000000E+00  0.8168558E-02
  0.1653061E+01  0.0000000E+00  0.2244898E+00 -0.3331903E-10  0.0000000E+00  0.8168558E-02
  0.1693878E+01  0.0000000E+00  0.2244898E+00 -0.3159413E-10  0.0000000E+00  0.8168558E-02
  0.1734694E+01  0.0000000E+00  0.2244898E+00 -0.1038618E-10  0.0000000E+00  0.8168558E-02
  0.1775510E+01  0.0000000E+00  0.2244898E+00  0.5121491E-10  0.0000000E+00  0.8168558E-02
  0.1816326E+01  0.0000000E+00  0.2244898E+00  0.1840965E-09  0.0000000E+00  0.8168558E-02
  0.1857143E+01  0.0000000E+00  0.2244898E+00  0.4324278E-09  0.0000000E+00  0.8168558E-02
  0.1897959E+01  0.0000000E+00  0.2244898E+00  0.8120094E-09  0.0000000E+00  0.8168558E-02
  0.1938776E+01  0.0000000E+00  0.2244898E+00  0.1143497E-08  0.0000000E+00  0.8168558E-02
  0.1989796E+01  0.0000000E+00  0.2244898E+00  0.5419392E-09  0.0000000E+00  0.8168558E-02
  0.2040816E-01  0.0000000E+00  0.2653061E+00  0.7849563E-09  0.0000000E+00  0.8160905E-02
  0.6122449E-01  0.0000000E+00  0.2653061E+00  0.1467320E-08  0.0000000E+00  0.8160905E-02
  0.1020408E+00  0.0000000E+00  0.2653061E+00  0.3486501E-09  0.0000000E+00  0.8160905E-02
  0.1428571E+00  0.0000000E+00  0.2653061E+00 -0.8032707E-09  0.0000000E+00  0.8160905E-02
  0.1836735E+00  0.0000000E+00  0.2653061E+00 -0.6187782E-09  0.0000000E+00  0.8160905E-02
  0.2244898E+00  0.0000000E+00  0.2653061E+00 -0.3265015E-09  0.0000000E+00  0.8160905E-02
  0.2653061E+00  0.0000000E+00  0.2653061E+00 -0.1749031E-09  0.0000000E+00  0.8160905E-02
  0.3061225E+00  0.0000000E+00  0.2653061E+00 -0.2108220E-09  0.0000000E+00  0.8160905E-02
  0.3469388E+00  0.0000000E+00  0.2653061E+00 -0.4112632E-09  0.0000000E+00  0.8160905E-02
  0.3877551E+00  0.0000000E+00  0.2653061E+00 -0.7342891E-09  0.0000000E+00  0.8160905E-02
  0.4285714E+00  0.0000000E+00  0.2653061E+00 -0.8004546E-09  0.0000000E+00  0.8160904E-02
  0.4693878E+00  0.0000000E+00  0.2653061E+00 -0.2778484E-09  0.0000000E+00  0.8160904E-02
  0.5102041E+00  0.0000000E+00  0.2653061E+00  0.6073355E-09  0.0000000E+00  0.8160904E-02
  0.5510204E+00  0.0000000E+00  0.2653061E+00  0.1250232E-08  0.0000000E+00  0.8160904E-02
  0.5918368E+00  0.0000000E+00  0.2653061E+00  0.1981015E-08  0.0000000E+00  0.8160904E-02
  0.6326531E+00  0.0000000E+00  0.2653061E+00  0.1685552E-08  0.0000000E+00  0.8160905E-02
  0.6734694E+00  0.0000000E+00  0.2653061E+00  0.7439947E-10  0.0000000E+00  0.8160905E-02
  0.7142857E+00  0.0000000E+00  0.2653061E+00 -0.1067690E-08  0.0000000E+00  0.8160905E-02
  0.7551020E+00  0.0000000E+00  0.2653061E+00 -0.8899350E-09  0.0000000E+00  0.8160905E-02
  0.7959183E+00  0.0000000E+00  0.2653061E+00 -0.5683799E-09  0.0000000E+00  0.8160905E-02
  0.8367347E+00  0.0000000E+00  0.2653061E+00 -0.4193622E-09  0.0000000E+00  0.8160905E-02
  0.8775510E+00  0.0000000E+00  0.2653061E+00 -0.5002161E-09  0.0000000E+00  0.8160905E-02
  0.9183673E+00  0.0000000E+00  0.2653061E+00 -0.7920951E-09  0.0000000E+00  0.8160904E-02
  0.9591837E+00  0.0000000E+00  0.2653061E+00 -0.1085305E-08  0.0000000E+00  0.8160904E-02
  0.1000000E+01  0.0000000E+00  0.2653061E+00 -0.4779894E-09  0.0000000E+00  0.8160904E-02
  0.1040816E+01  0.0000000E+00  0.2653061E+00  0.4851406E-09  0.0000000E+00  0.8160904E-02
  0.1081633E+01  0.0000000E+00  0.2653061E+00  0.1267065E-08  0.0000000E+00  0.8160904E-02
  0.1122449E+01  0.0000000E+00  0.2653061E+00  0.8474621E-09  0.0000000E+00  0.8160904E-02
  0.1163265E+01  0.0000000E+00  0.2653061E+00  0.4178843E-09  0.0000000E+00  0.8160905E-02
  0.1204082E+01  0.0000000E+00  0.2653061E+00  0.1581658E-09  0.0000000E+00  0.8160905E-02
  0.1244898E+01  0.0000000E+00  0.2653061E+00  0.3338637E-10  0.0000000E+00  0.8160905E-02
  0.1285714E+01  0.0000000E+00  0.2653061E+00 -0.2031162E-10  0.0000000E+00  0.8160905E-02
  0.1326531E+01  0.0000000E+00  0.2653061E+00 -0.3992577E-10  0.0000000E+00  0.8160905E-02