title = "dataset feddes"
variables = "x", "y", "z", "vx", "vy", "vz"
zone t = "velocities, solution time =  5.800E+01 days        " i =   49, j =   49, k =    1,  f=point
  0.2040816E-01  0.0000000E+00  0.2040816E-01  0.6944644E-07  0.0000000E+00  0.1222275E-02
  0.6122449E-01  0.0000000E+00  0.2040816E-01  0.1921778E-06  0.0000000E+00  0.1222836E-02
  0.1020408E+00  0.0000000E+00  0.2040816E-01  0.2668125E-06  0.0000000E+00  0.1223822E-02
  0.1428571E+00  0.0000000E+00  0.2040816E-01  0.2641660E-06  0.0000000E+00  0.1224962E-02
  0.1836735E+00  0.0000000E+00  0.2040816E-01  0.1593856E-06  0.0000000E+00  0.1225871E-02
  0.2244898E+00  0.0000000E+00  0.2040816E-01 -0.6651984E-07  0.0000000E+00  0.1226070E-02
  0.2653061E+00  0.0000000E+00  0.2040816E-01 -0.4252944E-06  0.0000000E+00  0.1225015E-02
  0.3061225E+00  0.0000000E+00  0.2040816E-01 -0.9204027E-06  0.0000000E+00  0.1222126E-02
  0.3469388E+00  0.0000000E+00  0.2040816E-01 -0.1546466E-05  0.0000000E+00  0.1216830E-02
  0.3877551E+00  0.0000000E+00  0.2040816E-01 -0.2289312E-05  0.0000000E+00  0.1208595E-02
  0.4285714E+00  0.0000000E+00  0.2040816E-01 -0.3126731E-05  0.0000000E+00  0.1196968E-02
  0.4693878E+00  0.0000000E+00  0.2040816E-01 -0.4029929E-05  0.0000000E+00  0.1181604E-02
  0.5102041E+00  0.0000000E+00  0.2040816E-01 -0.4965598E-05  0.0000000E+00  0.1162292E-02
  0.5510204E+00  0.0000000E+00  0.2040816E-01 -0.5898391E-05  0.0000000E+00  0.1138970E-02
  0.5918368E+00  0.0000000E+00  0.2040816E-01 -0.6793534E-05  0.0000000E+00  0.1111725E-02
  0.6326531E+00  0.0000000E+00  0.2040816E-01 -0.7619268E-05  0.0000000E+00  0.1080786E-02
  0.6734694E+00  0.0000000E+00  0.2040816E-01 -0.8348858E-05  0.0000000E+00  0.1046509E-02
  0.7142857E+00  0.0000000E+00  0.2040816E-01 -0.8961972E-05  0.0000000E+00  0.1009350E-02
  0.7551020E+00  0.0000000E+00  0.2040816E-01 -0.9445352E-05  0.0000000E+00  0.9698396E-03
  0.7959183E+00  0.0000000E+00  0.2040816E-01 -0.9792808E-05  0.0000000E+00  0.9285465E-03
  0.8367347E+00  0.0000000E+00  0.2040816E-01 -0.1000464E-04  0.0000000E+00  0.8860543E-03
  0.8775510E+00  0.0000000E+00  0.2040816E-01 -0.1008663E-04  0.0000000E+00  0.8429327E-03
  0.9183673E+00  0.0000000E+00  0.2040816E-01 -0.1004888E-04  0.0000000E+00  0.7997174E-03
  0.9591837E+00  0.0000000E+00  0.2040816E-01 -0.9904465E-05  0.0000000E+00  0.7568944E-03
  0.1000000E+01  0.0000000E+00  0.2040816E-01 -0.9668262E-05  0.0000000E+00  0.7148895E-03
  0.1040816E+01  0.0000000E+00  0.2040816E-01 -0.9355859E-05  0.0000000E+00  0.6740630E-03
  0.1081633E+01  0.0000000E+00  0.2040816E-01 -0.8982686E-05  0.0000000E+00  0.6347090E-03
  0.1122449E+01  0.0000000E+00  0.2040816E-01 -0.8563351E-05  0.0000000E+00  0.5970566E-03
  0.1163265E+01  0.0000000E+00  0.2040816E-01 -0.8111184E-05  0.0000000E+00  0.5612753E-03
  0.1204082E+01  0.0000000E+00  0.2040816E-01 -0.7637940E-05  0.0000000E+00  0.5274806E-03
  0.1244898E+01  0.0000000E+00  0.2040816E-01 -0.7153663E-05  0.0000000E+00  0.4957412E-03
  0.1285714E+01  0.0000000E+00  0.2040816E-01 -0.6666648E-05  0.0000000E+00  0.4660867E-03
  0.1326531E+01  0.0000000E+00  0.2040816E-01 -0.6183496E-05  0.0000000E+00  0.4385143E-03
  0.1367347E+01  0.0000000E+00  0.2040816E-01 -0.5709217E-05  0.0000000E+00  0.4129968E-03
  0.1408163E+01  0.0000000E+00  0.2040816E-01 -0.5247382E-05  0.0000000E+00  0.3894882E-03
  0.1448980E+01  0.0000000E+00  0.2040816E-01 -0.4800292E-05  0.0000000E+00  0.3679302E-03
  0.1489796E+01  0.0000000E+00  0.2040816E-01 -0.4369167E-05  0.0000000E+00  0.3482567E-03
  0.1530612E+01  0.0000000E+00  0.2040816E-01 -0.3954344E-05  0.0000000E+00  0.3303984E-03
  0.1571429E+01  0.0000000E+00  0.2040816E-01 -0.3555457E-05  0.0000000E+00  0.3142862E-03
  0.1612245E+01  0.0000000E+00  0.2040816E-01 -0.3171629E-05  0.0000000E+00  0.2998534E-03
  0.1653061E+01  0.0000000E+00  0.2040816E-01 -0.2801622E-05  0.0000000E+00  0.2870380E-03
  0.1693878E+01  0.0000000E+00  0.2040816E-01 -0.2443982E-05  0.0000000E+00  0.2757839E-03
  0.1734694E+01  0.0000000E+00  0.2040816E-01 -0.2097146E-05  0.0000000E+00  0.2660413E-03
  0.1775510E+01  0.0000000E+00  0.2040816E-01 -0.1759519E-05  0.0000000E+00  0.2577671E-03
  0.1816326E+01  0.0000000E+00  0.2040816E-01 -0.1429533E-05  0.0000000E+00  0.2509253E-03
  0.1857143E+01  0.0000000E+00  0.2040816E-01 -0.1105674E-05  0.0000000E+00  0.2454863E-03
  0.1897959E+01  0.0000000E+00  0.2040816E-01 -0.7864922E-06  0.0000000E+00  0.2414269E-03
  0.1938776E+01  0.0000000E+00  0.2040816E-01 -0.4706007E-06  0.0000000E+00  0.2387299E-03
  0.1989796E+01  0.0000000E+00  0.2040816E-01 -0.1566656E-06  0.0000000E+00  0.2373842E-03
  0.2040816E-01  0.0000000E+00  0.6122449E-01  0.2443183E-06  0.0000000E+00  0.1222016E-02
  0.6122449E-01  0.0000000E+00  0.6122449E-01  0.6781785E-06  0.0000000E+00  0.1222642E-02
  0.1020408E+00  0.0000000E+00  0.6122449E-01  0.9493469E-06  0.0000000E+00  0.1223753E-02
  0.1428571E+00  0.0000000E+00  0.6122449E-01  0.9589969E-06  0.0000000E+00  0.1225072E-02
  0.1836735E+00  0.0000000E+00  0.6122449E-01  0.6228816E-06  0.0000000E+00  0.1226205E-02
  0.2244898E+00  0.0000000E+00  0.6122449E-01 -0.1234990E-06  0.0000000E+00  0.1226658E-02
  0.2653061E+00  0.0000000E+00  0.6122449E-01 -0.1320177E-05  0.0000000E+00  0.1225871E-02
  0.3061225E+00  0.0000000E+00  0.6122449E-01 -0.2979150E-05  0.0000000E+00  0.1223250E-02
  0.3469388E+00  0.0000000E+00  0.6122449E-01 -0.5082401E-05  0.0000000E+00  0.1218201E-02
  0.3877551E+00  0.0000000E+00  0.6122449E-01 -0.7582002E-05  0.0000000E+00  0.1210178E-02
  0.4285714E+00  0.0000000E+00  0.6122449E-01 -0.1040263E-04  0.0000000E+00  0.1198711E-02
  0.4693878E+00  0.0000000E+00  0.6122449E-01 -0.1344649E-04  0.0000000E+00  0.1183445E-02
  0.5102041E+00  0.0000000E+00  0.6122449E-01 -0.1660042E-04  0.0000000E+00  0.1164164E-02
  0.5510204E+00  0.0000000E+00  0.6122449E-01 -0.1974432E-04  0.0000000E+00  0.1140801E-02
  0.5918368E+00  0.0000000E+00  0.6122449E-01 -0.2276012E-04  0.0000000E+00  0.1113448E-02
  0.6326531E+00  0.0000000E+00  0.6122449E-01 -0.2554017E-04  0.0000000E+00  0.1082344E-02
  0.6734694E+00  0.0000000E+00  0.6122449E-01 -0.2799408E-04  0.0000000E+00  0.1047854E-02
  0.7142857E+00  0.0000000E+00  0.6122449E-01 -0.3005338E-04  0.0000000E+00  0.1010449E-02
  0.7551020E+00  0.0000000E+00  0.6122449E-01 -0.3167376E-04  0.0000000E+00  0.9706726E-03
  0.7959183E+00  0.0000000E+00  0.6122449E-01 -0.3283496E-04  0.0000000E+00  0.9291079E-03
  0.8367347E+00  0.0000000E+00  0.6122449E-01 -0.3353869E-04  0.0000000E+00  0.8863501E-03
  0.8775510E+00  0.0000000E+00  0.6122449E-01 -0.3380525E-04  0.0000000E+00  0.8429788E-03
  0.9183673E+00  0.0000000E+00  0.6122449E-01 -0.3366928E-04  0.0000000E+00  0.7995370E-03
  0.9591837E+00  0.0000000E+00  0.6122449E-01 -0.3317544E-04  0.0000000E+00  0.7565155E-03
  0.1000000E+01  0.0000000E+00  0.6122449E-01 -0.3237426E-04  0.0000000E+00  0.7143424E-03
  0.1040816E+01  0.0000000E+00  0.6122449E-01 -0.3131847E-04  0.0000000E+00  0.6733790E-03
  0.1081633E+01  0.0000000E+00  0.6122449E-01 -0.3006017E-04  0.0000000E+00  0.6339179E-03
  0.1122449E+01  0.0000000E+00  0.6122449E-01 -0.2864853E-04  0.0000000E+00  0.5961864E-03
  0.1163265E+01  0.0000000E+00  0.6122449E-01 -0.2712831E-04  0.0000000E+00  0.5603511E-03
  0.1204082E+01  0.0000000E+00  0.6122449E-01 -0.2553892E-04  0.0000000E+00  0.5265242E-03
  0.1244898E+01  0.0000000E+00  0.6122449E-01 -0.2391395E-04  0.0000000E+00  0.4947710E-03
  0.1285714E+01  0.0000000E+00  0.6122449E-01 -0.2228111E-04  0.0000000E+00  0.4651175E-03
  0.1326531E+01  0.0000000E+00  0.6122449E-01 -0.2066236E-04  0.0000000E+00  0.4375578E-03
  0.1367347E+01  0.0000000E+00  0.6122449E-01 -0.1907435E-04  0.0000000E+00  0.4120616E-03
  0.1408163E+01  0.0000000E+00  0.6122449E-01 -0.1752889E-04  0.0000000E+00  0.3885801E-03
  0.1448980E+01  0.0000000E+00  0.6122449E-01 -0.1603352E-04  0.0000000E+00  0.3670527E-03
  0.1489796E+01  0.0000000E+00  0.6122449E-01 -0.1459218E-04  0.0000000E+00  0.3474114E-03
  0.1530612E+01  0.0000000E+00  0.6122449E-01 -0.1320585E-04  0.0000000E+00  0.3295853E-03
  0.1571429E+01  0.0000000E+00  0.6122449E-01 -0.1187318E-04  0.0000000E+00  0.3135040E-03
  0.1612245E+01  0.0000000E+00  0.6122449E-01 -0.1059112E-04  0.0000000E+00  0.2991001E-03
  0.1653061E+01  0.0000000E+00  0.6122449E-01 -0.9355417E-05  0.0000000E+00  0.2863109E-03
  0.1693878E+01  0.0000000E+00  0.6122449E-01 -0.8161138E-05  0.0000000E+00  0.2750799E-03
  0.1734694E+01  0.0000000E+00  0.6122449E-01 -0.7002994E-05  0.0000000E+00  0.2653572E-03
  0.1775510E+01  0.0000000E+00  0.6122449E-01 -0.5875618E-05  0.0000000E+00  0.2570999E-03
  0.1816326E+01  0.0000000E+00  0.6122449E-01 -0.4773745E-05  0.0000000E+00  0.2502719E-03
  0.1857143E+01  0.0000000E+00  0.6122449E-01 -0.3692302E-05  0.0000000E+00  0.2448437E-03
  0.1897959E+01  0.0000000E+00  0.6122449E-01 -0.2626447E-05  0.0000000E+00  0.2407922E-03
  0.1938776E+01  0.0000000E+00  0.6122449E-01 -0.1571554E-05  0.0000000E+00  0.2381005E-03
  0.1989796E+01  0.0000000E+00  0.6122449E-01 -0.5231720E-06  0.0000000E+00  0.2367574E-03
  0.2040816E-01  0.0000000E+00  0.1020408E+00  0.4746889E-06  0.0000000E+00  0.1221365E-02
  0.6122449E-01  0.0000000E+00  0.1020408E+00  0.1324987E-05  0.0000000E+00  0.1222145E-02
  0.1020408E+00  0.0000000E+00  0.1020408E+00  0.1881556E-05  0.0000000E+00  0.1223554E-02
  0.1428571E+00  0.0000000E+00  0.1020408E+00  0.1965659E-05  0.0000000E+00  0.1225302E-02
  0.1836735E+00  0.0000000E+00  0.1020408E+00  0.1424540E-05  0.0000000E+00  0.1226967E-02
  0.2244898E+00  0.0000000E+00  0.1020408E+00  0.1407847E-06  0.0000000E+00  0.1228027E-02
  0.2653061E+00  0.0000000E+00  0.1020408E+00 -0.1959028E-05  0.0000000E+00  0.1227883E-02
  0.3061225E+00  0.0000000E+00  0.1020408E+00 -0.4897609E-05  0.0000000E+00  0.1225901E-02
  0.3469388E+00  0.0000000E+00  0.1020408E+00 -0.8643122E-05  0.0000000E+00  0.1221445E-02
  0.3877551E+00  0.0000000E+00  0.1020408E+00 -0.1310909E-04  0.0000000E+00  0.1213928E-02
  0.4285714E+00  0.0000000E+00  0.1020408E+00 -0.1815882E-04  0.0000000E+00  0.1202845E-02
  0.4693878E+00  0.0000000E+00  0.1020408E+00 -0.2361431E-04  0.0000000E+00  0.1187814E-02
  0.5102041E+00  0.0000000E+00  0.1020408E+00 -0.2926932E-04  0.0000000E+00  0.1168603E-02
  0.5510204E+00  0.0000000E+00  0.1020408E+00 -0.3490503E-04  0.0000000E+00  0.1145142E-02
  0.5918368E+00  0.0000000E+00  0.1020408E+00 -0.4030666E-04  0.0000000E+00  0.1117532E-02
  0.6326531E+00  0.0000000E+00  0.1020408E+00 -0.4527901E-04  0.0000000E+00  0.1086031E-02
  0.6734694E+00  0.0000000E+00  0.1020408E+00 -0.4965899E-04  0.0000000E+00  0.1051033E-02
  0.7142857E+00  0.0000000E+00  0.1020408E+00 -0.5332413E-04  0.0000000E+00  0.1013041E-02
  0.7551020E+00  0.0000000E+00  0.1020408E+00 -0.5619643E-04  0.0000000E+00  0.9726313E-03
  0.7959183E+00  0.0000000E+00  0.1020408E+00 -0.5824180E-04  0.0000000E+00  0.9304212E-03
  0.8367347E+00  0.0000000E+00  0.1020408E+00 -0.5946600E-04  0.0000000E+00  0.8870338E-03
  0.8775510E+00  0.0000000E+00  0.1020408E+00 -0.5990812E-04  0.0000000E+00  0.8430720E-03
  0.9183673E+00  0.0000000E+00  0.1020408E+00 -0.5963275E-04  0.0000000E+00  0.7990959E-03
  0.9591837E+00  0.0000000E+00  0.1020408E+00 -0.5872190E-04  0.0000000E+00  0.7556072E-03
  0.1000000E+01  0.0000000E+00  0.1020408E+00 -0.5726750E-04  0.0000000E+00  0.7130399E-03
  0.1040816E+01  0.0000000E+00  0.1020408E+00 -0.5536488E-04  0.0000000E+00  0.6717559E-03
  0.1081633E+01  0.0000000E+00  0.1020408E+00 -0.5310759E-04  0.0000000E+00  0.6320455E-03
  0.1122449E+01  0.0000000E+00  0.1020408E+00 -0.5058355E-04  0.0000000E+00  0.5941308E-03
  0.1163265E+01  0.0000000E+00  0.1020408E+00 -0.4787241E-04  0.0000000E+00  0.5581713E-03
  0.1204082E+01  0.0000000E+00  0.1020408E+00 -0.4504400E-04  0.0000000E+00  0.5242714E-03
  0.1244898E+01  0.0000000E+00  0.1020408E+00 -0.4215761E-04  0.0000000E+00  0.4924883E-03
  0.1285714E+01  0.0000000E+00  0.1020408E+00 -0.3926189E-04  0.0000000E+00  0.4628396E-03
  0.1326531E+01  0.0000000E+00  0.1020408E+00 -0.3639530E-04  0.0000000E+00  0.4353117E-03
  0.1367347E+01  0.0000000E+00  0.1020408E+00 -0.3358676E-04  0.0000000E+00  0.4098671E-03
  0.1408163E+01  0.0000000E+00  0.1020408E+00 -0.3085662E-04  0.0000000E+00  0.3864509E-03
  0.1448980E+01  0.0000000E+00  0.1020408E+00 -0.2821767E-04  0.0000000E+00  0.3649967E-03
  0.1489796E+01  0.0000000E+00  0.1020408E+00 -0.2567633E-04  0.0000000E+00  0.3454320E-03
  0.1530612E+01  0.0000000E+00  0.1020408E+00 -0.2323382E-04  0.0000000E+00  0.3276821E-03
  0.1571429E+01  0.0000000E+00  0.1020408E+00 -0.2088727E-04  0.0000000E+00  0.3116739E-03
  0.1612245E+01  0.0000000E+00  0.1020408E+00 -0.1863084E-04  0.0000000E+00  0.2973379E-03
  0.1653061E+01  0.0000000E+00  0.1020408E+00 -0.1645672E-04  0.0000000E+00  0.2846102E-03
  0.1693878E+01  0.0000000E+00  0.1020408E+00 -0.1435590E-04  0.0000000E+00  0.2734335E-03
  0.1734694E+01  0.0000000E+00  0.1020408E+00 -0.1231883E-04  0.0000000E+00  0.2637576E-03
  0.1775510E+01  0.0000000E+00  0.1020408E+00 -0.1033592E-04  0.0000000E+00  0.2555396E-03
  0.1816326E+01  0.0000000E+00  0.1020408E+00 -0.8397815E-05  0.0000000E+00  0.2487437E-03
  0.1857143E+01  0.0000000E+00  0.1020408E+00 -0.6495541E-05  0.0000000E+00  0.2433406E-03
  0.1897959E+01  0.0000000E+00  0.1020408E+00 -0.4620574E-05  0.0000000E+00  0.2393077E-03
  0.1938776E+01  0.0000000E+00  0.1020408E+00 -0.2764791E-05  0.0000000E+00  0.2366282E-03
  0.1989796E+01  0.0000000E+00  0.1020408E+00 -0.9203908E-06  0.0000000E+00  0.2352911E-03
  0.2040816E-01  0.0000000E+00  0.1428571E+00  0.7602342E-06  0.0000000E+00  0.1220248E-02
  0.6122449E-01  0.0000000E+00  0.1428571E+00  0.2137511E-05  0.0000000E+00  0.1221268E-02
  0.1020408E+00  0.0000000E+00  0.1428571E+00  0.3090710E-05  0.0000000E+00  0.1223145E-02
  0.1428571E+00  0.0000000E+00  0.1428571E+00  0.3361087E-05  0.0000000E+00  0.1225562E-02
  0.1836735E+00  0.0000000E+00  0.1428571E+00  0.2726539E-05  0.0000000E+00  0.1228062E-02
  0.2244898E+00  0.0000000E+00  0.1428571E+00  0.1015223E-05  0.0000000E+00  0.1230074E-02
  0.2653061E+00  0.0000000E+00  0.1428571E+00 -0.1881644E-05  0.0000000E+00  0.1230942E-02
  0.3061225E+00  0.0000000E+00  0.1428571E+00 -0.5999458E-05  0.0000000E+00  0.1229966E-02
  0.3469388E+00  0.0000000E+00  0.1428571E+00 -0.1129398E-04  0.0000000E+00  0.1226445E-02
  0.3877551E+00  0.0000000E+00  0.1428571E+00 -0.1764054E-04  0.0000000E+00  0.1219725E-02
  0.4285714E+00  0.0000000E+00  0.1428571E+00 -0.2484008E-04  0.0000000E+00  0.1209247E-02
  0.4693878E+00  0.0000000E+00  0.1428571E+00 -0.3263214E-04  0.0000000E+00  0.1194586E-02
  0.5102041E+00  0.0000000E+00  0.1428571E+00 -0.4071422E-04  0.0000000E+00  0.1175484E-02
  0.5510204E+00  0.0000000E+00  0.1428571E+00 -0.4876549E-04  0.0000000E+00  0.1151868E-02
  0.5918368E+00  0.0000000E+00  0.1428571E+00 -0.5647181E-04  0.0000000E+00  0.1123851E-02
  0.6326531E+00  0.0000000E+00  0.1428571E+00 -0.6354914E-04  0.0000000E+00  0.1091723E-02
  0.6734694E+00  0.0000000E+00  0.1428571E+00 -0.6976223E-04  0.0000000E+00  0.1055926E-02
  0.7142857E+00  0.0000000E+00  0.1428571E+00 -0.7493689E-04  0.0000000E+00  0.1017012E-02
  0.7551020E+00  0.0000000E+00  0.1428571E+00 -0.7896510E-04  0.0000000E+00  0.9756150E-03
  0.7959183E+00  0.0000000E+00  0.1428571E+00 -0.8180350E-04  0.0000000E+00  0.9324011E-03
  0.8367347E+00  0.0000000E+00  0.1428571E+00 -0.8346660E-04  0.0000000E+00  0.8880389E-03
  0.8775510E+00  0.0000000E+00  0.1428571E+00 -0.8401656E-04  0.0000000E+00  0.8431669E-03
  0.9183673E+00  0.0000000E+00  0.1428571E+00 -0.8355127E-04  0.0000000E+00  0.7983710E-03
  0.9591837E+00  0.0000000E+00  0.1428571E+00 -0.8219234E-04  0.0000000E+00  0.7541692E-03
  0.1000000E+01  0.0000000E+00  0.1428571E+00 -0.8007411E-04  0.0000000E+00  0.7110033E-03
  0.1040816E+01  0.0000000E+00  0.1428571E+00 -0.7733440E-04  0.0000000E+00  0.6692358E-03
  0.1081633E+01  0.0000000E+00  0.1428571E+00 -0.7410718E-04  0.0000000E+00  0.6291522E-03
  0.1122449E+01  0.0000000E+00  0.1428571E+00 -0.7051736E-04  0.0000000E+00  0.5909658E-03
  0.1163265E+01  0.0000000E+00  0.1428571E+00 -0.6667729E-04  0.0000000E+00  0.5548251E-03
  0.1204082E+01  0.0000000E+00  0.1428571E+00 -0.6268480E-04  0.0000000E+00  0.5208219E-03
  0.1244898E+01  0.0000000E+00  0.1428571E+00 -0.5862240E-04  0.0000000E+00  0.4890005E-03
  0.1285714E+01  0.0000000E+00  0.1428571E+00 -0.5455738E-04  0.0000000E+00  0.4593658E-03
  0.1326531E+01  0.0000000E+00  0.1428571E+00 -0.5054248E-04  0.0000000E+00  0.4318925E-03
  0.1367347E+01  0.0000000E+00  0.1428571E+00 -0.4661699E-04  0.0000000E+00  0.4065318E-03
  0.1408163E+01  0.0000000E+00  0.1428571E+00 -0.4280811E-04  0.0000000E+00  0.3832192E-03
  0.1448980E+01  0.0000000E+00  0.1428571E+00 -0.3913250E-04  0.0000000E+00  0.3618799E-03
  0.1489796E+01  0.0000000E+00  0.1428571E+00 -0.3559791E-04  0.0000000E+00  0.3424344E-03
  0.1530612E+01  0.0000000E+00  0.1428571E+00 -0.3220483E-04  0.0000000E+00  0.3248025E-03
  0.1571429E+01  0.0000000E+00  0.1428571E+00 -0.2894820E-04  0.0000000E+00  0.3089068E-03
  0.1612245E+01  0.0000000E+00  0.1428571E+00 -0.2581894E-04  0.0000000E+00  0.2946748E-03
  0.1653061E+01  0.0000000E+00  0.1428571E+00 -0.2280531E-04  0.0000000E+00  0.2820409E-03
  0.1693878E+01  0.0000000E+00  0.1428571E+00 -0.1989415E-04  0.0000000E+00  0.2709466E-03
  0.1734694E+01  0.0000000E+00  0.1428571E+00 -0.1707172E-04  0.0000000E+00  0.2613416E-03
  0.1775510E+01  0.0000000E+00  0.1428571E+00 -0.1432437E-04  0.0000000E+00  0.2531830E-03
  0.1816326E+01  0.0000000E+00  0.1428571E+00 -0.1163892E-04  0.0000000E+00  0.2464354E-03
  0.1857143E+01  0.0000000E+00  0.1428571E+00 -0.9002871E-05  0.0000000E+00  0.2410701E-03
  0.1897959E+01  0.0000000E+00  0.1428571E+00 -0.6404384E-05  0.0000000E+00  0.2370650E-03
  0.1938776E+01  0.0000000E+00  0.1428571E+00 -0.3832254E-05  0.0000000E+00  0.2344038E-03
  0.1989796E+01  0.0000000E+00  0.1428571E+00 -0.1275744E-05  0.0000000E+00  0.2330758E-03
  0.2040816E-01  0.0000000E+00  0.1836735E+00  0.1132347E-05  0.0000000E+00  0.1218526E-02
  0.6122449E-01  0.0000000E+00  0.1836735E+00  0.3208008E-05  0.0000000E+00  0.1219874E-02
  0.1020408E+00  0.0000000E+00  0.1836735E+00  0.4723915E-05  0.0000000E+00  0.1222391E-02
  0.1428571E+00  0.0000000E+00  0.1836735E+00  0.5337230E-05  0.0000000E+00  0.1225725E-02
  0.1836735E+00  0.0000000E+00  0.1836735E+00  0.4751801E-05  0.0000000E+00  0.1229372E-02
  0.2244898E+00  0.0000000E+00  0.1836735E+00  0.2736274E-05  0.0000000E+00  0.1232694E-02
  0.2653061E+00  0.0000000E+00  0.1836735E+00 -0.8583596E-06  0.0000000E+00  0.1234957E-02
  0.3061225E+00  0.0000000E+00  0.1836735E+00 -0.6083996E-05  0.0000000E+00  0.1235372E-02
  0.3469388E+00  0.0000000E+00  0.1836735E+00 -0.1288572E-04  0.0000000E+00  0.1233145E-02
  0.3877551E+00  0.0000000E+00  0.1836735E+00 -0.2109948E-04  0.0000000E+00  0.1227531E-02
  0.4285714E+00  0.0000000E+00  0.1836735E+00 -0.3045927E-04  0.0000000E+00  0.1217893E-02
  0.4693878E+00  0.0000000E+00  0.1836735E+00 -0.4061444E-04  0.0000000E+00  0.1203744E-02
  0.5102041E+00  0.0000000E+00  0.1836735E+00 -0.5115641E-04  0.0000000E+00  0.1184791E-02
  0.5510204E+00  0.0000000E+00  0.1836735E+00 -0.6165182E-04  0.0000000E+00  0.1160953E-02
  0.5918368E+00  0.0000000E+00  0.1836735E+00 -0.7167783E-04  0.0000000E+00  0.1132368E-02
  0.6326531E+00  0.0000000E+00  0.1836735E+00 -0.8085489E-04  0.0000000E+00  0.1099372E-02
  0.6734694E+00  0.0000000E+00  0.1836735E+00 -0.8887246E-04  0.0000000E+00  0.1062469E-02
  0.7142857E+00  0.0000000E+00  0.1836735E+00 -0.9550529E-04  0.0000000E+00  0.1022291E-02
  0.7551020E+00  0.0000000E+00  0.1836735E+00 -0.1006193E-03  0.0000000E+00  0.9795430E-03
  0.7959183E+00  0.0000000E+00  0.1836735E+00 -0.1041679E-03  0.0000000E+00  0.9349657E-03
  0.8367347E+00  0.0000000E+00  0.1836735E+00 -0.1061817E-03  0.0000000E+00  0.8892879E-03
  0.8775510E+00  0.0000000E+00  0.1836735E+00 -0.1067531E-03  0.0000000E+00  0.8431956E-03
  0.9183673E+00  0.0000000E+00  0.1836735E+00 -0.1060198E-03  0.0000000E+00  0.7973085E-03
  0.9591837E+00  0.0000000E+00  0.1836735E+00 -0.1041479E-03  0.0000000E+00  0.7521647E-03
  0.1000000E+01  0.0000000E+00  0.1836735E+00 -0.1013177E-03  0.0000000E+00  0.7082145E-03
  0.1040816E+01  0.0000000E+00  0.1836735E+00 -0.9771139E-04  0.0000000E+00  0.6658194E-03
  0.1081633E+01  0.0000000E+00  0.1836735E+00 -0.9350377E-04  0.0000000E+00  0.6252569E-03
  0.1122449E+01  0.0000000E+00  0.1836735E+00 -0.8885614E-04  0.0000000E+00  0.5867273E-03
  0.1163265E+01  0.0000000E+00  0.1836735E+00 -0.8391213E-04  0.0000000E+00  0.5503632E-03
  0.1204082E+01  0.0000000E+00  0.1836735E+00 -0.7879568E-04  0.0000000E+00  0.5162392E-03
  0.1244898E+01  0.0000000E+00  0.1836735E+00 -0.7361037E-04  0.0000000E+00  0.4843817E-03
  0.1285714E+01  0.0000000E+00  0.1836735E+00 -0.6843990E-04  0.0000000E+00  0.4547787E-03
  0.1326531E+01  0.0000000E+00  0.1836735E+00 -0.6334916E-04  0.0000000E+00  0.4273888E-03
  0.1367347E+01  0.0000000E+00  0.1836735E+00 -0.5838581E-04  0.0000000E+00  0.4021488E-03
  0.1408163E+01  0.0000000E+00  0.1836735E+00 -0.5358210E-04  0.0000000E+00  0.3789810E-03
  0.1448980E+01  0.0000000E+00  0.1836735E+00 -0.4895690E-04  0.0000000E+00  0.3577998E-03
  0.1489796E+01  0.0000000E+00  0.1836735E+00 -0.4451786E-04  0.0000000E+00  0.3385164E-03
  0.1530612E+01  0.0000000E+00  0.1836735E+00 -0.4026356E-04  0.0000000E+00  0.3210435E-03
  0.1571429E+01  0.0000000E+00  0.1836735E+00 -0.3618570E-04  0.0000000E+00  0.3052982E-03
  0.1612245E+01  0.0000000E+00  0.1836735E+00 -0.3227112E-04  0.0000000E+00  0.2912043E-03
  0.1653061E+01  0.0000000E+00  0.1836735E+00 -0.2850368E-04  0.0000000E+00  0.2786940E-03
  0.1693878E+01  0.0000000E+00  0.1836735E+00 -0.2486568E-04  0.0000000E+00  0.2677079E-03
  0.1734694E+01  0.0000000E+00  0.1836735E+00 -0.2133907E-04  0.0000000E+00  0.2581953E-03
  0.1775510E+01  0.0000000E+00  0.1836735E+00 -0.1790622E-04  0.0000000E+00  0.2501139E-03
  0.1816326E+01  0.0000000E+00  0.1836735E+00 -0.1455033E-04  0.0000000E+00  0.2434289E-03
  0.1857143E+01  0.0000000E+00  0.1836735E+00 -0.1125564E-04  0.0000000E+00  0.2381126E-03
  0.1897959E+01  0.0000000E+00  0.1836735E+00 -0.8007374E-05  0.0000000E+00  0.2341434E-03
  0.1938776E+01  0.0000000E+00  0.1836735E+00 -0.4791628E-05  0.0000000E+00  0.2315057E-03
  0.1989796E+01  0.0000000E+00  0.1836735E+00 -0.1595132E-05  0.0000000E+00  0.2301894E-03
  0.2040816E-01  0.0000000E+00  0.2244898E+00  0.1621513E-05  0.0000000E+00  0.1216001E-02
  0.6122449E-01  0.0000000E+00  0.2244898E+00  0.4626290E-05  0.0000000E+00  0.1217771E-02
  0.1020408E+00  0.0000000E+00  0.2244898E+00  0.6925269E-05  0.0000000E+00  0.1221110E-02
  0.1428571E+00  0.0000000E+00  0.2244898E+00  0.8083864E-05  0.0000000E+00  0.1225628E-02
  0.1836735E+00  0.0000000E+00  0.2244898E+00  0.7723452E-05  0.0000000E+00  0.1230757E-02
  0.2244898E+00  0.0000000E+00  0.2244898E+00  0.5544370E-05  0.0000000E+00  0.1235778E-02
  0.2653061E+00  0.0000000E+00  0.2244898E+00  0.1349139E-05  0.0000000E+00  0.1239855E-02
  0.3061225E+00  0.0000000E+00  0.2244898E+00 -0.4936953E-05  0.0000000E+00  0.1242086E-02
  0.3469388E+00  0.0000000E+00  0.2244898E+00 -0.1325107E-04  0.0000000E+00  0.1241552E-02
  0.3877551E+00  0.0000000E+00  0.2244898E+00 -0.2338751E-04  0.0000000E+00  0.1237389E-02
  0.4285714E+00  0.0000000E+00  0.2244898E+00 -0.3500526E-04  0.0000000E+00  0.1228852E-02
  0.4693878E+00  0.0000000E+00  0.2244898E+00 -0.4765005E-04  0.0000000E+00  0.1215372E-02
  0.5102041E+00  0.0000000E+00  0.2244898E+00 -0.6078990E-04  0.0000000E+00  0.1196608E-02
  0.5510204E+00  0.0000000E+00  0.2244898E+00 -0.7386046E-04  0.0000000E+00  0.1172473E-02
  0.5918368E+00  0.0000000E+00  0.2244898E+00 -0.8631346E-04  0.0000000E+00  0.1143136E-02
  0.6326531E+00  0.0000000E+00  0.2244898E+00 -0.9766141E-04  0.0000000E+00  0.1108998E-02
  0.6734694E+00  0.0000000E+00  0.2244898E+00 -0.1075120E-03  0.0000000E+00  0.1070653E-02
  0.7142857E+00  0.0000000E+00  0.2244898E+00 -0.1155885E-03  0.0000000E+00  0.1028833E-02
  0.7551020E+00  0.0000000E+00  0.2244898E+00 -0.1217357E-03  0.0000000E+00  0.9843487E-03
  0.7959183E+00  0.0000000E+00  0.2244898E+00 -0.1259125E-03  0.0000000E+00  0.9380315E-03
  0.8367347E+00  0.0000000E+00  0.2244898E+00 -0.1281760E-03  0.0000000E+00  0.8906888E-03
  0.8775510E+00  0.0000000E+00  0.2244898E+00 -0.1286596E-03  0.0000000E+00  0.8430663E-03
  0.9183673E+00  0.0000000E+00  0.2244898E+00 -0.1275503E-03  0.0000000E+00  0.7958238E-03
  0.9591837E+00  0.0000000E+00  0.2244898E+00 -0.1250667E-03  0.0000000E+00  0.7495218E-03
  0.1000000E+01  0.0000000E+00  0.2244898E+00 -0.1214407E-03  0.0000000E+00  0.7046180E-03
  0.1040816E+01  0.0000000E+00  0.2244898E+00 -0.1169020E-03  0.0000000E+00  0.6614697E-03
  0.1081633E+01  0.0000000E+00  0.2244898E+00 -0.1116683E-03  0.0000000E+00  0.6203416E-03
  0.1122449E+01  0.0000000E+00  0.2244898E+00 -0.1059372E-03  0.0000000E+00  0.5814156E-03
  0.1163265E+01  0.0000000E+00  0.2244898E+00 -0.9988271E-04  0.0000000E+00  0.5448029E-03
  0.1204082E+01  0.0000000E+00  0.2244898E+00 -0.9365316E-04  0.0000000E+00  0.5105555E-03
  0.1244898E+01  0.0000000E+00  0.2244898E+00 -0.8737119E-04  0.0000000E+00  0.4786771E-03
  0.1285714E+01  0.0000000E+00  0.2244898E+00 -0.8113469E-04  0.0000000E+00  0.4491343E-03
  0.1326531E+01  0.0000000E+00  0.2244898E+00 -0.7501850E-04  0.0000000E+00  0.4218655E-03
  0.1367347E+01  0.0000000E+00  0.2244898E+00 -0.6907653E-04  0.0000000E+00  0.3967894E-03
  0.1408163E+01  0.0000000E+00  0.2244898E+00 -0.6334410E-04  0.0000000E+00  0.3738127E-03
  0.1448980E+01  0.0000000E+00  0.2244898E+00 -0.5784047E-04  0.0000000E+00  0.3528361E-03
  0.1489796E+01  0.0000000E+00  0.2244898E+00 -0.5257149E-04  0.0000000E+00  0.3337596E-03
  0.1530612E+01  0.0000000E+00  0.2244898E+00 -0.4753228E-04  0.0000000E+00  0.3164872E-03
  0.1571429E+01  0.0000000E+00  0.2244898E+00 -0.4270999E-04  0.0000000E+00  0.3009298E-03
  0.1612245E+01  0.0000000E+00  0.2244898E+00 -0.3808635E-04  0.0000000E+00  0.2870070E-03
  0.1653061E+01  0.0000000E+00  0.2244898E+00 -0.3363991E-04  0.0000000E+00  0.2746485E-03
  0.1693878E+01  0.0000000E+00  0.2244898E+00 -0.2934798E-04  0.0000000E+00  0.2637941E-03
  0.1734694E+01  0.0000000E+00  0.2244898E+00 -0.2518795E-04  0.0000000E+00  0.2543935E-03
  0.1775510E+01  0.0000000E+00  0.2244898E+00 -0.2113816E-04  0.0000000E+00  0.2464050E-03
  0.1816326E+01  0.0000000E+00  0.2244898E+00 -0.1717838E-04  0.0000000E+00  0.2397950E-03
  0.1857143E+01  0.0000000E+00  0.2244898E+00 -0.1328986E-04  0.0000000E+00  0.2345370E-03
  0.1897959E+01  0.0000000E+00  0.2244898E+00 -0.9455252E-05  0.0000000E+00  0.2306106E-03
  0.1938776E+01  0.0000000E+00  0.2244898E+00 -0.5658331E-05  0.0000000E+00  0.2280010E-03
  0.1989796E+01  0.0000000E+00  0.2244898E+00 -0.1883696E-05  0.0000000E+00  0.2266985E-03
  0.2040816E-01  0.0000000E+00  0.2653061E+00  0.2258940E-05  0.0000000E+00  0.1212414E-02
  0.6122449E-01  0.0000000E+00  0.2653061E+00  0.6484705E-05  0.0000000E+00  0.1214707E-02
  0.1020408E+00  0.0000000E+00  0.2653061E+00  0.9844272E-05  0.0000000E+00  0.1219070E-02
  0.1428571E+00  0.0000000E+00  0.2653061E+00  0.1180052E-04  0.0000000E+00  0.1225063E-02
  0.1836735E+00  0.0000000E+00  0.2653061E+00  0.1188023E-04  0.0000000E+00  0.1232048E-02
  0.2244898E+00  0.0000000E+00  0.2653061E+00  0.9702463E-05  0.0000000E+00  0.1239204E-02
  0.2653061E+00  0.0000000E+00  0.2653061E+00  0.5008775E-05  0.0000000E+00  0.1245573E-02
  0.3061225E+00  0.0000000E+00  0.2653061E+00 -0.2308324E-05  0.0000000E+00  0.1250106E-02
  0.3469388E+00  0.0000000E+00  0.2653061E+00 -0.1218298E-04  0.0000000E+00  0.1251728E-02
  0.3877551E+00  0.0000000E+00  0.2653061E+00 -0.2436525E-04  0.0000000E+00  0.1249417E-02
  0.4285714E+00  0.0000000E+00  0.2653061E+00 -0.3842766E-04  0.0000000E+00  0.1242285E-02
  0.4693878E+00  0.0000000E+00  0.2653061E+00 -0.5379224E-04  0.0000000E+00  0.1229656E-02
  0.5102041E+00  0.0000000E+00  0.2653061E+00 -0.6977745E-04  0.0000000E+00  0.1211126E-02
  0.5510204E+00  0.0000000E+00  0.2653061E+00 -0.8565963E-04  0.0000000E+00  0.1186599E-02
  0.5918368E+00  0.0000000E+00  0.2653061E+00 -0.1007395E-03  0.0000000E+00  0.1156288E-02
  0.6326531E+00  0.0000000E+00  0.2653061E+00 -0.1144028E-03  0.0000000E+00  0.1120686E-02
  0.6734694E+00  0.0000000E+00  0.2653061E+00 -0.1261655E-03  0.0000000E+00  0.1080508E-02
  0.7142857E+00  0.0000000E+00  0.2653061E+00 -0.1356990E-03  0.0000000E+00  0.1036622E-02
  0.7551020E+00  0.0000000E+00  0.2653061E+00 -0.1428340E-03  0.0000000E+00  0.9899701E-03
  0.7959183E+00  0.0000000E+00  0.2653061E+00 -0.1475474E-03  0.0000000E+00  0.9415045E-03
  0.8367347E+00  0.0000000E+00  0.2653061E+00 -0.1499377E-03  0.0000000E+00  0.8921286E-03
  0.8775510E+00  0.0000000E+00  0.2653061E+00 -0.1501944E-03  0.0000000E+00  0.8426587E-03
  0.9183673E+00  0.0000000E+00  0.2653061E+00 -0.1485669E-03  0.0000000E+00  0.7937995E-03
  0.9591837E+00  0.0000000E+00  0.2653061E+00 -0.1453370E-03  0.0000000E+00  0.7461340E-03
  0.1000000E+01  0.0000000E+00  0.2653061E+00 -0.1407956E-03  0.0000000E+00  0.7001237E-03
  0.1040816E+01  0.0000000E+00  0.2653061E+00 -0.1352252E-03  0.0000000E+00  0.6561161E-03
  0.1081633E+01  0.0000000E+00  0.2653061E+00 -0.1288881E-03  0.0000000E+00  0.6143563E-03
  0.1122449E+01  0.0000000E+00  0.2653061E+00 -0.1220190E-03  0.0000000E+00  0.5750012E-03
  0.1163265E+01  0.0000000E+00  0.2653061E+00 -0.1148212E-03  0.0000000E+00  0.5381341E-03
  0.1204082E+01  0.0000000E+00  0.2653061E+00 -0.1074659E-03  0.0000000E+00  0.5037782E-03
  0.1244898E+01  0.0000000E+00  0.2653061E+00 -0.1000924E-03  0.0000000E+00  0.4719095E-03
  0.1285714E+01  0.0000000E+00  0.2653061E+00 -0.9281047E-04  0.0000000E+00  0.4424683E-03
  0.1326531E+01  0.0000000E+00  0.2653061E+00 -0.8570254E-04  0.0000000E+00  0.4153691E-03