title = "dataset feddes"
variables = "x", "y", "z", "vx", "vy", "vz"
zone t = "velocities, solution time =  1.000E+00 days        " i =   49, j =   49, k =    1,  f=point
  0.2040816E-01  0.0000000E+00  0.2040816E-01  0.1064407E-09  0.0000000E+00  0.4113158E-01
  0.6122449E-01  0.0000000E+00  0.2040816E-01  0.1723279E-09  0.0000000E+00  0.4113158E-01
  0.1020408E+00  0.0000000E+00  0.2040816E-01  0.9965159E-10  0.0000000E+00  0.4113158E-01
  0.1428571E+00  0.0000000E+00  0.2040816E-01  0.2012200E-09  0.0000000E+00  0.4113158E-01
  0.1836735E+00  0.0000000E+00  0.2040816E-01  0.9541995E-10  0.0000000E+00  0.4113158E-01
  0.2244898E+00  0.0000000E+00  0.2040816E-01 -0.2315407E-10  0.0000000E+00  0.4113158E-01
  0.2653061E+00  0.0000000E+00  0.2040816E-01 -0.4755730E-10  0.0000000E+00  0.4113158E-01
  0.3061225E+00  0.0000000E+00  0.2040816E-01 -0.3102121E-10  0.0000000E+00  0.4113158E-01
  0.3469388E+00  0.0000000E+00  0.2040816E-01 -0.2891211E-10  0.0000000E+00  0.4113158E-01
  0.3877551E+00  0.0000000E+00  0.2040816E-01 -0.2932021E-10  0.0000000E+00  0.4113158E-01
  0.4285714E+00  0.0000000E+00  0.2040816E-01 -0.2152817E-10  0.0000000E+00  0.4113158E-01
  0.4693878E+00  0.0000000E+00  0.2040816E-01 -0.8684956E-11  0.0000000E+00  0.4113158E-01
  0.5102041E+00  0.0000000E+00  0.2040816E-01 -0.9037863E-12  0.0000000E+00  0.4113158E-01
  0.5510204E+00  0.0000000E+00  0.2040816E-01  0.2051880E-11  0.0000000E+00  0.4113158E-01
  0.5918368E+00  0.0000000E+00  0.2040816E-01  0.7549604E-11  0.0000000E+00  0.4113158E-01
  0.6326531E+00  0.0000000E+00  0.2040816E-01  0.3116935E-10  0.0000000E+00  0.4113158E-01
  0.6734694E+00  0.0000000E+00  0.2040816E-01  0.5088584E-10  0.0000000E+00  0.4113158E-01
  0.7142857E+00  0.0000000E+00  0.2040816E-01  0.6240068E-10  0.0000000E+00  0.4113158E-01
  0.7551020E+00  0.0000000E+00  0.2040816E-01  0.5937366E-10  0.0000000E+00  0.4113158E-01
  0.7959183E+00  0.0000000E+00  0.2040816E-01  0.4475368E-10  0.0000000E+00  0.4113158E-01
  0.8367347E+00  0.0000000E+00  0.2040816E-01 -0.9483221E-10  0.0000000E+00  0.4113158E-01
  0.8775510E+00  0.0000000E+00  0.2040816E-01 -0.8441224E-10  0.0000000E+00  0.4113158E-01
  0.9183673E+00  0.0000000E+00  0.2040816E-01 -0.3016324E-10  0.0000000E+00  0.4113158E-01
  0.9591837E+00  0.0000000E+00  0.2040816E-01 -0.6628571E-10  0.0000000E+00  0.4113158E-01
  0.1000000E+01  0.0000000E+00  0.2040816E-01  0.3727381E-10  0.0000000E+00  0.4113158E-01
  0.1040816E+01  0.0000000E+00  0.2040816E-01  0.9297421E-10  0.0000000E+00  0.4113158E-01
  0.1081633E+01  0.0000000E+00  0.2040816E-01  0.6264051E-10  0.0000000E+00  0.4113158E-01
  0.1122449E+01  0.0000000E+00  0.2040816E-01 -0.5821402E-11  0.0000000E+00  0.4113158E-01
  0.1163265E+01  0.0000000E+00  0.2040816E-01 -0.6716849E-10  0.0000000E+00  0.4113158E-01
  0.1204082E+01  0.0000000E+00  0.2040816E-01 -0.8570048E-10  0.0000000E+00  0.4113158E-01
  0.1244898E+01  0.0000000E+00  0.2040816E-01 -0.3919547E-10  0.0000000E+00  0.4113158E-01
  0.1285714E+01  0.0000000E+00  0.2040816E-01  0.2732135E-10  0.0000000E+00  0.4113158E-01
  0.1326531E+01  0.0000000E+00  0.2040816E-01  0.5485573E-10  0.0000000E+00  0.4113158E-01
  0.1367347E+01  0.0000000E+00  0.2040816E-01  0.1714490E-09  0.0000000E+00  0.4113158E-01
  0.1408163E+01  0.0000000E+00  0.2040816E-01  0.6199194E-10  0.0000000E+00  0.4113158E-01
  0.1448980E+01  0.0000000E+00  0.2040816E-01 -0.4220264E-10  0.0000000E+00  0.4113158E-01
  0.1489796E+01  0.0000000E+00  0.2040816E-01 -0.5830789E-10  0.0000000E+00  0.4113158E-01
  0.1530612E+01  0.0000000E+00  0.2040816E-01 -0.3511816E-10  0.0000000E+00  0.4113158E-01
  0.1571429E+01  0.0000000E+00  0.2040816E-01 -0.1056398E-10  0.0000000E+00  0.4113158E-01
  0.1612245E+01  0.0000000E+00  0.2040816E-01  0.8205357E-12  0.0000000E+00  0.4113158E-01
  0.1653061E+01  0.0000000E+00  0.2040816E-01  0.5543732E-12  0.0000000E+00  0.4113158E-01
  0.1693878E+01  0.0000000E+00  0.2040816E-01 -0.4610986E-11  0.0000000E+00  0.4113158E-01
  0.1734694E+01  0.0000000E+00  0.2040816E-01 -0.7866061E-11  0.0000000E+00  0.4113158E-01
  0.1775510E+01  0.0000000E+00  0.2040816E-01 -0.2209597E-11  0.0000000E+00  0.4113158E-01
  0.1816326E+01  0.0000000E+00  0.2040816E-01  0.1818211E-10  0.0000000E+00  0.4113158E-01
  0.1857143E+01  0.0000000E+00  0.2040816E-01  0.5492508E-10  0.0000000E+00  0.4113158E-01
  0.1897959E+01  0.0000000E+00  0.2040816E-01  0.9978012E-10  0.0000000E+00  0.4113158E-01
  0.1938776E+01  0.0000000E+00  0.2040816E-01  0.1374232E-09  0.0000000E+00  0.4113158E-01
  0.1989796E+01  0.0000000E+00  0.2040816E-01  0.1895316E-09  0.0000000E+00  0.4113158E-01
  0.2040816E-01  0.0000000E+00  0.6122449E-01  0.2698780E-09  0.0000000E+00  0.4112379E-01
  0.6122449E-01  0.0000000E+00  0.6122449E-01  0.5985615E-09  0.0000000E+00  0.4112379E-01
  0.1020408E+00  0.0000000E+00  0.6122449E-01  0.3366642E-09  0.0000000E+00  0.4112379E-01
  0.1428571E+00  0.0000000E+00  0.6122449E-01  0.5296206E-09  0.0000000E+00  0.4112379E-01
  0.1836735E+00  0.0000000E+00  0.6122449E-01  0.2722173E-09  0.0000000E+00  0.4112379E-01
  0.2244898E+00  0.0000000E+00  0.6122449E-01 -0.5197570E-10  0.0000000E+00  0.4112379E-01
  0.2653061E+00  0.0000000E+00  0.6122449E-01 -0.1298318E-09  0.0000000E+00  0.4112379E-01
  0.3061225E+00  0.0000000E+00  0.6122449E-01 -0.7688197E-10  0.0000000E+00  0.4112379E-01
  0.3469388E+00  0.0000000E+00  0.6122449E-01 -0.7091131E-10  0.0000000E+00  0.4112379E-01
  0.3877551E+00  0.0000000E+00  0.6122449E-01 -0.8356339E-10  0.0000000E+00  0.4112379E-01
  0.4285714E+00  0.0000000E+00  0.6122449E-01 -0.7369202E-10  0.0000000E+00  0.4112379E-01
  0.4693878E+00  0.0000000E+00  0.6122449E-01 -0.3991363E-10  0.0000000E+00  0.4112379E-01
  0.5102041E+00  0.0000000E+00  0.6122449E-01 -0.1481304E-10  0.0000000E+00  0.4112379E-01
  0.5510204E+00  0.0000000E+00  0.6122449E-01 -0.1167654E-11  0.0000000E+00  0.4112379E-01
  0.5918368E+00  0.0000000E+00  0.6122449E-01  0.2386112E-10  0.0000000E+00  0.4112379E-01
  0.6326531E+00  0.0000000E+00  0.6122449E-01  0.1064250E-09  0.0000000E+00  0.4112379E-01
  0.6734694E+00  0.0000000E+00  0.6122449E-01  0.1744934E-09  0.0000000E+00  0.4112379E-01
  0.7142857E+00  0.0000000E+00  0.6122449E-01  0.1896124E-09  0.0000000E+00  0.4112379E-01
  0.7551020E+00  0.0000000E+00  0.6122449E-01  0.1483301E-09  0.0000000E+00  0.4112379E-01
  0.7959183E+00  0.0000000E+00  0.6122449E-01  0.1808454E-09  0.0000000E+00  0.4112379E-01
  0.8367347E+00  0.0000000E+00  0.6122449E-01 -0.2784561E-09  0.0000000E+00  0.4112379E-01
  0.8775510E+00  0.0000000E+00  0.6122449E-01 -0.3734274E-09  0.0000000E+00  0.4112379E-01
  0.9183673E+00  0.0000000E+00  0.6122449E-01 -0.5868549E-10  0.0000000E+00  0.4112379E-01
  0.9591837E+00  0.0000000E+00  0.6122449E-01 -0.1230356E-09  0.0000000E+00  0.4112379E-01
  0.1000000E+01  0.0000000E+00  0.6122449E-01  0.1327675E-09  0.0000000E+00  0.4112379E-01
  0.1040816E+01  0.0000000E+00  0.6122449E-01  0.2704190E-09  0.0000000E+00  0.4112379E-01
  0.1081633E+01  0.0000000E+00  0.6122449E-01  0.1734705E-09  0.0000000E+00  0.4112379E-01
  0.1122449E+01  0.0000000E+00  0.6122449E-01 -0.3961252E-10  0.0000000E+00  0.4112379E-01
  0.1163265E+01  0.0000000E+00  0.6122449E-01 -0.2313636E-09  0.0000000E+00  0.4112379E-01
  0.1204082E+01  0.0000000E+00  0.6122449E-01 -0.2771042E-09  0.0000000E+00  0.4112379E-01
  0.1244898E+01  0.0000000E+00  0.6122449E-01 -0.9126766E-10  0.0000000E+00  0.4112379E-01
  0.1285714E+01  0.0000000E+00  0.6122449E-01  0.1793386E-09  0.0000000E+00  0.4112379E-01
  0.1326531E+01  0.0000000E+00  0.6122449E-01  0.1779435E-09  0.0000000E+00  0.4112379E-01
  0.1367347E+01  0.0000000E+00  0.6122449E-01  0.4650897E-09  0.0000000E+00  0.4112379E-01
  0.1408163E+01  0.0000000E+00  0.6122449E-01  0.1677397E-09  0.0000000E+00  0.4112379E-01
  0.1448980E+01  0.0000000E+00  0.6122449E-01 -0.1245392E-09  0.0000000E+00  0.4112379E-01
  0.1489796E+01  0.0000000E+00  0.6122449E-01 -0.1721216E-09  0.0000000E+00  0.4112379E-01
  0.1530612E+01  0.0000000E+00  0.6122449E-01 -0.1058963E-09  0.0000000E+00  0.4112379E-01
  0.1571429E+01  0.0000000E+00  0.6122449E-01 -0.3408002E-10  0.0000000E+00  0.4112379E-01
  0.1612245E+01  0.0000000E+00  0.6122449E-01 -0.1101296E-11  0.0000000E+00  0.4112379E-01
  0.1653061E+01  0.0000000E+00  0.6122449E-01 -0.3258765E-11  0.0000000E+00  0.4112379E-01
  0.1693878E+01  0.0000000E+00  0.6122449E-01 -0.1954685E-10  0.0000000E+00  0.4112379E-01
  0.1734694E+01  0.0000000E+00  0.6122449E-01 -0.2813866E-10  0.0000000E+00  0.4112379E-01
  0.1775510E+01  0.0000000E+00  0.6122449E-01 -0.6005284E-11  0.0000000E+00  0.4112379E-01
  0.1816326E+01  0.0000000E+00  0.6122449E-01  0.6586168E-10  0.0000000E+00  0.4112379E-01
  0.1857143E+01  0.0000000E+00  0.6122449E-01  0.1913719E-09  0.0000000E+00  0.4112379E-01
  0.1897959E+01  0.0000000E+00  0.6122449E-01  0.3352216E-09  0.0000000E+00  0.4112379E-01
  0.1938776E+01  0.0000000E+00  0.6122449E-01  0.4101177E-09  0.0000000E+00  0.4112379E-01
  0.1989796E+01  0.0000000E+00  0.6122449E-01  0.4138175E-09  0.0000000E+00  0.4112379E-01
  0.2040816E-01  0.0000000E+00  0.1020408E+00  0.2819803E-09  0.0000000E+00  0.4109115E-01
  0.6122449E-01  0.0000000E+00  0.1020408E+00  0.1000219E-08  0.0000000E+00  0.4109115E-01
  0.1020408E+00  0.0000000E+00  0.1020408E+00  0.5735794E-09  0.0000000E+00  0.4109115E-01
  0.1428571E+00  0.0000000E+00  0.1020408E+00  0.6546879E-09  0.0000000E+00  0.4109115E-01
  0.1836735E+00  0.0000000E+00  0.1020408E+00  0.3831267E-09  0.0000000E+00  0.4109115E-01
  0.2244898E+00  0.0000000E+00  0.1020408E+00 -0.3948753E-10  0.0000000E+00  0.4109115E-01
  0.2653061E+00  0.0000000E+00  0.1020408E+00 -0.1720833E-09  0.0000000E+00  0.4109115E-01
  0.3061225E+00  0.0000000E+00  0.1020408E+00 -0.8107347E-10  0.0000000E+00  0.4109115E-01
  0.3469388E+00  0.0000000E+00  0.1020408E+00 -0.6206148E-10  0.0000000E+00  0.4109115E-01
  0.3877551E+00  0.0000000E+00  0.1020408E+00 -0.1023010E-09  0.0000000E+00  0.4109115E-01
  0.4285714E+00  0.0000000E+00  0.1020408E+00 -0.1252788E-09  0.0000000E+00  0.4109115E-01
  0.4693878E+00  0.0000000E+00  0.1020408E+00 -0.9302817E-10  0.0000000E+00  0.4109115E-01
  0.5102041E+00  0.0000000E+00  0.1020408E+00 -0.5547024E-10  0.0000000E+00  0.4109115E-01
  0.5510204E+00  0.0000000E+00  0.1020408E+00 -0.2557438E-10  0.0000000E+00  0.4109115E-01
  0.5918368E+00  0.0000000E+00  0.1020408E+00  0.3056780E-10  0.0000000E+00  0.4109115E-01
  0.6326531E+00  0.0000000E+00  0.1020408E+00  0.1846371E-09  0.0000000E+00  0.4109115E-01
  0.6734694E+00  0.0000000E+00  0.1020408E+00  0.3200488E-09  0.0000000E+00  0.4109115E-01
  0.7142857E+00  0.0000000E+00  0.1020408E+00  0.3165818E-09  0.0000000E+00  0.4109115E-01
  0.7551020E+00  0.0000000E+00  0.1020408E+00  0.1018442E-09  0.0000000E+00  0.4109115E-01
  0.7959183E+00  0.0000000E+00  0.1020408E+00  0.2957116E-09  0.0000000E+00  0.4109115E-01
  0.8367347E+00  0.0000000E+00  0.1020408E+00 -0.2802404E-09  0.0000000E+00  0.4109115E-01
  0.8775510E+00  0.0000000E+00  0.1020408E+00 -0.6951102E-09  0.0000000E+00  0.4109115E-01
  0.9183673E+00  0.0000000E+00  0.1020408E+00 -0.1384737E-09  0.0000000E+00  0.4109115E-01
  0.9591837E+00  0.0000000E+00  0.1020408E+00 -0.8226319E-10  0.0000000E+00  0.4109115E-01
  0.1000000E+01  0.0000000E+00  0.1020408E+00  0.2603721E-09  0.0000000E+00  0.4109115E-01
  0.1040816E+01  0.0000000E+00  0.1020408E+00  0.4126236E-09  0.0000000E+00  0.4109115E-01
  0.1081633E+01  0.0000000E+00  0.1020408E+00  0.2340589E-09  0.0000000E+00  0.4109115E-01
  0.1122449E+01  0.0000000E+00  0.1020408E+00 -0.1120710E-09  0.0000000E+00  0.4109115E-01
  0.1163265E+01  0.0000000E+00  0.1020408E+00 -0.4065042E-09  0.0000000E+00  0.4109115E-01
  0.1204082E+01  0.0000000E+00  0.1020408E+00 -0.4577632E-09  0.0000000E+00  0.4109115E-01
  0.1244898E+01  0.0000000E+00  0.1020408E+00 -0.1051075E-09  0.0000000E+00  0.4109115E-01
  0.1285714E+01  0.0000000E+00  0.1020408E+00  0.5037800E-09  0.0000000E+00  0.4109115E-01
  0.1326531E+01  0.0000000E+00  0.1020408E+00  0.3237794E-09  0.0000000E+00  0.4109115E-01
  0.1367347E+01  0.0000000E+00  0.1020408E+00  0.5858325E-09  0.0000000E+00  0.4109115E-01
  0.1408163E+01  0.0000000E+00  0.1020408E+00  0.1927065E-09  0.0000000E+00  0.4109115E-01
  0.1448980E+01  0.0000000E+00  0.1020408E+00 -0.1940778E-09  0.0000000E+00  0.4109115E-01
  0.1489796E+01  0.0000000E+00  0.1020408E+00 -0.2538029E-09  0.0000000E+00  0.4109115E-01
  0.1530612E+01  0.0000000E+00  0.1020408E+00 -0.1582872E-09  0.0000000E+00  0.4109115E-01
  0.1571429E+01  0.0000000E+00  0.1020408E+00 -0.5455682E-10  0.0000000E+00  0.4109115E-01
  0.1612245E+01  0.0000000E+00  0.1020408E+00 -0.9068136E-11  0.0000000E+00  0.4109115E-01
  0.1653061E+01  0.0000000E+00  0.1020408E+00 -0.1677732E-10  0.0000000E+00  0.4109115E-01
  0.1693878E+01  0.0000000E+00  0.1020408E+00 -0.4311430E-10  0.0000000E+00  0.4109115E-01
  0.1734694E+01  0.0000000E+00  0.1020408E+00 -0.5199897E-10  0.0000000E+00  0.4109115E-01
  0.1775510E+01  0.0000000E+00  0.1020408E+00 -0.5192265E-11  0.0000000E+00  0.4109115E-01
  0.1816326E+01  0.0000000E+00  0.1020408E+00  0.1264049E-09  0.0000000E+00  0.4109115E-01
  0.1857143E+01  0.0000000E+00  0.1020408E+00  0.3448624E-09  0.0000000E+00  0.4109115E-01
  0.1897959E+01  0.0000000E+00  0.1020408E+00  0.5865465E-09  0.0000000E+00  0.4109115E-01
  0.1938776E+01  0.0000000E+00  0.1020408E+00  0.6437936E-09  0.0000000E+00  0.4109116E-01
  0.1989796E+01  0.0000000E+00  0.1020408E+00  0.2770681E-09  0.0000000E+00  0.4109116E-01
  0.2040816E-01  0.0000000E+00  0.1428571E+00  0.1884816E-09  0.0000000E+00  0.4101714E-01
  0.6122449E-01  0.0000000E+00  0.1428571E+00  0.1167623E-08  0.0000000E+00  0.4101714E-01
  0.1020408E+00  0.0000000E+00  0.1428571E+00  0.7257881E-09  0.0000000E+00  0.4101714E-01
  0.1428571E+00  0.0000000E+00  0.1428571E+00  0.5656345E-09  0.0000000E+00  0.4101714E-01
  0.1836735E+00  0.0000000E+00  0.1428571E+00  0.4043744E-09  0.0000000E+00  0.4101714E-01
  0.2244898E+00  0.0000000E+00  0.1428571E+00  0.2619274E-10  0.0000000E+00  0.4101714E-01
  0.2653061E+00  0.0000000E+00  0.1428571E+00 -0.1615885E-09  0.0000000E+00  0.4101714E-01
  0.3061225E+00  0.0000000E+00  0.1428571E+00 -0.5601698E-10  0.0000000E+00  0.4101714E-01
  0.3469388E+00  0.0000000E+00  0.1428571E+00 -0.3700430E-11  0.0000000E+00  0.4101714E-01
  0.3877551E+00  0.0000000E+00  0.1428571E+00 -0.5989546E-10  0.0000000E+00  0.4101714E-01
  0.4285714E+00  0.0000000E+00  0.1428571E+00 -0.1476831E-09  0.0000000E+00  0.4101714E-01
  0.4693878E+00  0.0000000E+00  0.1428571E+00 -0.1516931E-09  0.0000000E+00  0.4101714E-01
  0.5102041E+00  0.0000000E+00  0.1428571E+00 -0.1178719E-09  0.0000000E+00  0.4101714E-01
  0.5510204E+00  0.0000000E+00  0.1428571E+00 -0.7388443E-10  0.0000000E+00  0.4101714E-01
  0.5918368E+00  0.0000000E+00  0.1428571E+00  0.1113859E-10  0.0000000E+00  0.4101714E-01
  0.6326531E+00  0.0000000E+00  0.1428571E+00  0.2195053E-09  0.0000000E+00  0.4101714E-01
  0.6734694E+00  0.0000000E+00  0.1428571E+00  0.4273619E-09  0.0000000E+00  0.4101714E-01
  0.7142857E+00  0.0000000E+00  0.1428571E+00  0.4800890E-09  0.0000000E+00  0.4101714E-01
  0.7551020E+00  0.0000000E+00  0.1428571E+00 -0.1817972E-10  0.0000000E+00  0.4101714E-01
  0.7959183E+00  0.0000000E+00  0.1428571E+00  0.1978608E-09  0.0000000E+00  0.4101714E-01
  0.8367347E+00  0.0000000E+00  0.1428571E+00 -0.9281004E-10  0.0000000E+00  0.4101714E-01
  0.8775510E+00  0.0000000E+00  0.1428571E+00 -0.7713633E-09  0.0000000E+00  0.4101714E-01
  0.9183673E+00  0.0000000E+00  0.1428571E+00 -0.2586211E-09  0.0000000E+00  0.4101714E-01
  0.9591837E+00  0.0000000E+00  0.1428571E+00 -0.4922694E-10  0.0000000E+00  0.4101714E-01
  0.1000000E+01  0.0000000E+00  0.1428571E+00  0.3619825E-09  0.0000000E+00  0.4101714E-01
  0.1040816E+01  0.0000000E+00  0.1428571E+00  0.4944264E-09  0.0000000E+00  0.4101714E-01
  0.1081633E+01  0.0000000E+00  0.1428571E+00  0.2323230E-09  0.0000000E+00  0.4101714E-01
  0.1122449E+01  0.0000000E+00  0.1428571E+00 -0.2019976E-09  0.0000000E+00  0.4101714E-01
  0.1163265E+01  0.0000000E+00  0.1428571E+00 -0.4965414E-09  0.0000000E+00  0.4101714E-01
  0.1204082E+01  0.0000000E+00  0.1428571E+00 -0.5006553E-09  0.0000000E+00  0.4101714E-01
  0.1244898E+01  0.0000000E+00  0.1428571E+00 -0.1658749E-09  0.0000000E+00  0.4101714E-01
  0.1285714E+01  0.0000000E+00  0.1428571E+00  0.8270002E-09  0.0000000E+00  0.4101714E-01
  0.1326531E+01  0.0000000E+00  0.1428571E+00  0.4638969E-09  0.0000000E+00  0.4101714E-01
  0.1367347E+01  0.0000000E+00  0.1428571E+00  0.5499502E-09  0.0000000E+00  0.4101714E-01
  0.1408163E+01  0.0000000E+00  0.1428571E+00  0.1368219E-09  0.0000000E+00  0.4101714E-01
  0.1448980E+01  0.0000000E+00  0.1428571E+00 -0.2428506E-09  0.0000000E+00  0.4101714E-01
  0.1489796E+01  0.0000000E+00  0.1428571E+00 -0.2873756E-09  0.0000000E+00  0.4101714E-01
  0.1530612E+01  0.0000000E+00  0.1428571E+00 -0.1796892E-09  0.0000000E+00  0.4101714E-01
  0.1571429E+01  0.0000000E+00  0.1428571E+00 -0.6551113E-10  0.0000000E+00  0.4101714E-01
  0.1612245E+01  0.0000000E+00  0.1428571E+00 -0.1947749E-10  0.0000000E+00  0.4101714E-01
  0.1653061E+01  0.0000000E+00  0.1428571E+00 -0.3506096E-10  0.0000000E+00  0.4101714E-01
  0.1693878E+01  0.0000000E+00  0.1428571E+00 -0.6563370E-10  0.0000000E+00  0.4101714E-01
  0.1734694E+01  0.0000000E+00  0.1428571E+00 -0.6514081E-10  0.0000000E+00  0.4101714E-01
  0.1775510E+01  0.0000000E+00  0.1428571E+00  0.1254301E-10  0.0000000E+00  0.4101714E-01
  0.1816326E+01  0.0000000E+00  0.1428571E+00  0.1910598E-09  0.0000000E+00  0.4101714E-01
  0.1857143E+01  0.0000000E+00  0.1428571E+00  0.4504500E-09  0.0000000E+00  0.4101714E-01
  0.1897959E+01  0.0000000E+00  0.1428571E+00  0.7303344E-09  0.0000000E+00  0.4101714E-01
  0.1938776E+01  0.0000000E+00  0.1428571E+00  0.8283973E-09  0.0000000E+00  0.4101714E-01
  0.1989796E+01  0.0000000E+00  0.1428571E+00 -0.9018893E-10  0.0000000E+00  0.4101714E-01
  0.2040816E-01  0.0000000E+00  0.1836735E+00  0.1345936E-09  0.0000000E+00  0.4088320E-01
  0.6122449E-01  0.0000000E+00  0.1836735E+00  0.1128398E-08  0.0000000E+00  0.4088320E-01
  0.1020408E+00  0.0000000E+00  0.1836735E+00  0.7938058E-09  0.0000000E+00  0.4088320E-01
  0.1428571E+00  0.0000000E+00  0.1836735E+00  0.3347019E-09  0.0000000E+00  0.4088320E-01
  0.1836735E+00  0.0000000E+00  0.1836735E+00  0.3192146E-09  0.0000000E+00  0.4088320E-01
  0.2244898E+00  0.0000000E+00  0.1836735E+00  0.1392734E-09  0.0000000E+00  0.4088320E-01
  0.2653061E+00  0.0000000E+00  0.1836735E+00 -0.7766151E-10  0.0000000E+00  0.4088320E-01
  0.3061225E+00  0.0000000E+00  0.1836735E+00 -0.2879128E-10  0.0000000E+00  0.4088320E-01
  0.3469388E+00  0.0000000E+00  0.1836735E+00  0.5128497E-10  0.0000000E+00  0.4088320E-01
  0.3877551E+00  0.0000000E+00  0.1836735E+00  0.2545567E-10  0.0000000E+00  0.4088320E-01
  0.4285714E+00  0.0000000E+00  0.1836735E+00 -0.1264548E-09  0.0000000E+00  0.4088320E-01
  0.4693878E+00  0.0000000E+00  0.1836735E+00 -0.1928622E-09  0.0000000E+00  0.4088320E-01
  0.5102041E+00  0.0000000E+00  0.1836735E+00 -0.1833907E-09  0.0000000E+00  0.4088320E-01
  0.5510204E+00  0.0000000E+00  0.1836735E+00 -0.1330624E-09  0.0000000E+00  0.4088320E-01
  0.5918368E+00  0.0000000E+00  0.1836735E+00 -0.2814659E-10  0.0000000E+00  0.4088320E-01
  0.6326531E+00  0.0000000E+00  0.1836735E+00  0.1937841E-09  0.0000000E+00  0.4088320E-01
  0.6734694E+00  0.0000000E+00  0.1836735E+00  0.4272531E-09  0.0000000E+00  0.4088320E-01
  0.7142857E+00  0.0000000E+00  0.1836735E+00  0.6728820E-09  0.0000000E+00  0.4088320E-01
  0.7551020E+00  0.0000000E+00  0.1836735E+00  0.4293250E-10  0.0000000E+00  0.4088320E-01
  0.7959183E+00  0.0000000E+00  0.1836735E+00 -0.6279943E-10  0.0000000E+00  0.4088320E-01
  0.8367347E+00  0.0000000E+00  0.1836735E+00 -0.3044653E-10  0.0000000E+00  0.4088320E-01
  0.8775510E+00  0.0000000E+00  0.1836735E+00 -0.6839704E-09  0.0000000E+00  0.4088320E-01
  0.9183673E+00  0.0000000E+00  0.1836735E+00 -0.2379158E-09  0.0000000E+00  0.4088320E-01
  0.9591837E+00  0.0000000E+00  0.1836735E+00 -0.1724250E-10  0.0000000E+00  0.4088320E-01
  0.1000000E+01  0.0000000E+00  0.1836735E+00  0.4026801E-09  0.0000000E+00  0.4088320E-01
  0.1040816E+01  0.0000000E+00  0.1836735E+00  0.5110337E-09  0.0000000E+00  0.4088320E-01
  0.1081633E+01  0.0000000E+00  0.1836735E+00  0.1831245E-09  0.0000000E+00  0.4088320E-01
  0.1122449E+01  0.0000000E+00  0.1836735E+00 -0.3046843E-09  0.0000000E+00  0.4088320E-01
  0.1163265E+01  0.0000000E+00  0.1836735E+00 -0.5033476E-09  0.0000000E+00  0.4088320E-01
  0.1204082E+01  0.0000000E+00  0.1836735E+00 -0.3381170E-09  0.0000000E+00  0.4088320E-01
  0.1244898E+01  0.0000000E+00  0.1836735E+00 -0.2511576E-09  0.0000000E+00  0.4088320E-01
  0.1285714E+01  0.0000000E+00  0.1836735E+00  0.9474914E-09  0.0000000E+00  0.4088320E-01
  0.1326531E+01  0.0000000E+00  0.1836735E+00  0.5377161E-09  0.0000000E+00  0.4088320E-01
  0.1367347E+01  0.0000000E+00  0.1836735E+00  0.4743572E-09  0.0000000E+00  0.4088320E-01
  0.1408163E+01  0.0000000E+00  0.1836735E+00  0.6872381E-10  0.0000000E+00  0.4088320E-01
  0.1448980E+01  0.0000000E+00  0.1836735E+00 -0.2684732E-09  0.0000000E+00  0.4088320E-01
  0.1489796E+01  0.0000000E+00  0.1836735E+00 -0.2881195E-09  0.0000000E+00  0.4088320E-01
  0.1530612E+01  0.0000000E+00  0.1836735E+00 -0.1813148E-09  0.0000000E+00  0.4088320E-01
  0.1571429E+01  0.0000000E+00  0.1836735E+00 -0.6891514E-10  0.0000000E+00  0.4088320E-01
  0.1612245E+01  0.0000000E+00  0.1836735E+00 -0.2647794E-10  0.0000000E+00  0.4088320E-01
  0.1653061E+01  0.0000000E+00  0.1836735E+00 -0.4762567E-10  0.0000000E+00  0.4088320E-01
  0.1693878E+01  0.0000000E+00  0.1836735E+00 -0.7342314E-10  0.0000000E+00  0.4088320E-01
  0.1734694E+01  0.0000000E+00  0.1836735E+00 -0.5220607E-10  0.0000000E+00  0.4088320E-01
  0.1775510E+01  0.0000000E+00  0.1836735E+00  0.6248503E-10  0.0000000E+00  0.4088320E-01
  0.1816326E+01  0.0000000E+00  0.1836735E+00  0.2710002E-09  0.0000000E+00  0.4088320E-01
  0.1857143E+01  0.0000000E+00  0.1836735E+00  0.4868829E-09  0.0000000E+00  0.4088320E-01
  0.1897959E+01  0.0000000E+00  0.1836735E+00  0.6720249E-09  0.0000000E+00  0.4088320E-01
  0.1938776E+01  0.0000000E+00  0.1836735E+00  0.9471576E-09  0.0000000E+00  0.4088320E-01
  0.1989796E+01  0.0000000E+00  0.1836735E+00 -0.4451287E-09  0.0000000E+00  0.4088320E-01
  0.2040816E-01  0.0000000E+00  0.2244898E+00  0.1306070E-09  0.0000000E+00  0.4066782E-01
  0.6122449E-01  0.0000000E+00  0.2244898E+00  0.9270203E-09  0.0000000E+00  0.4066782E-01
  0.1020408E+00  0.0000000E+00  0.2244898E+00  0.7929627E-09  0.0000000E+00  0.4066782E-01
  0.1428571E+00  0.0000000E+00  0.2244898E+00  0.5109297E-10  0.0000000E+00  0.4066782E-01
  0.1836735E+00  0.0000000E+00  0.2244898E+00  0.7626041E-10  0.0000000E+00  0.4066782E-01
  0.2244898E+00  0.0000000E+00  0.2244898E+00  0.2317471E-09  0.0000000E+00  0.4066782E-01
  0.2653061E+00  0.0000000E+00  0.2244898E+00  0.1236814E-09  0.0000000E+00  0.4066782E-01
  0.3061225E+00  0.0000000E+00  0.2244898E+00  0.4258730E-10  0.0000000E+00  0.4066782E-01
  0.3469388E+00  0.0000000E+00  0.2244898E+00  0.6187136E-10  0.0000000E+00  0.4066782E-01
  0.3877551E+00  0.0000000E+00  0.2244898E+00  0.1043140E-09  0.0000000E+00  0.4066782E-01
  0.4285714E+00  0.0000000E+00  0.2244898E+00 -0.7207652E-10  0.0000000E+00  0.4066782E-01
  0.4693878E+00  0.0000000E+00  0.2244898E+00 -0.2018994E-09  0.0000000E+00  0.4066782E-01
  0.5102041E+00  0.0000000E+00  0.2244898E+00 -0.2340354E-09  0.0000000E+00  0.4066782E-01
  0.5510204E+00  0.0000000E+00  0.2244898E+00 -0.1881822E-09  0.0000000E+00  0.4066782E-01
  0.5918368E+00  0.0000000E+00  0.2244898E+00 -0.6524568E-10  0.0000000E+00  0.4066782E-01
  0.6326531E+00  0.0000000E+00  0.2244898E+00  0.1469431E-09  0.0000000E+00  0.4066782E-01
  0.6734694E+00  0.0000000E+00  0.2244898E+00  0.3210192E-09  0.0000000E+00  0.4066782E-01
  0.7142857E+00  0.0000000E+00  0.2244898E+00  0.7602109E-09  0.0000000E+00  0.4066782E-01
  0.7551020E+00  0.0000000E+00  0.2244898E+00  0.2820529E-09  0.0000000E+00  0.4066782E-01
  0.7959183E+00  0.0000000E+00  0.2244898E+00 -0.1963713E-09  0.0000000E+00  0.4066782E-01
  0.8367347E+00  0.0000000E+00  0.2244898E+00 -0.1204874E-09  0.0000000E+00  0.4066782E-01
  0.8775510E+00  0.0000000E+00  0.2244898E+00 -0.6628097E-09  0.0000000E+00  0.4066782E-01
  0.9183673E+00  0.0000000E+00  0.2244898E+00 -0.1394144E-09  0.0000000E+00  0.4066782E-01
  0.9591837E+00  0.0000000E+00  0.2244898E+00  0.5897713E-10  0.0000000E+00  0.4066782E-01
  0.1000000E+01  0.0000000E+00  0.2244898E+00  0.4204826E-09  0.0000000E+00  0.4066782E-01
  0.1040816E+01  0.0000000E+00  0.2244898E+00  0.4899738E-09  0.0000000E+00  0.4066782E-01
  0.1081633E+01  0.0000000E+00  0.2244898E+00  0.1270369E-09  0.0000000E+00  0.4066782E-01
  0.1122449E+01  0.0000000E+00  0.2244898E+00 -0.3924925E-09  0.0000000E+00  0.4066782E-01
  0.1163265E+01  0.0000000E+00  0.2244898E+00 -0.5370305E-09  0.0000000E+00  0.4066782E-01
  0.1204082E+01  0.0000000E+00  0.2244898E+00 -0.8376104E-10  0.0000000E+00  0.4066782E-01
  0.1244898E+01  0.0000000E+00  0.2244898E+00 -0.2578608E-09  0.0000000E+00  0.4066782E-01
  0.1285714E+01  0.0000000E+00  0.2244898E+00  0.8903104E-09  0.0000000E+00  0.4066782E-01
  0.1326531E+01  0.0000000E+00  0.2244898E+00  0.5245909E-09  0.0000000E+00  0.4066782E-01
  0.1367347E+01  0.0000000E+00  0.2244898E+00  0.3912464E-09  0.0000000E+00  0.4066782E-01
  0.1408163E+01  0.0000000E+00  0.2244898E+00  0.1703616E-10  0.0000000E+00  0.4066782E-01
  0.1448980E+01  0.0000000E+00  0.2244898E+00 -0.2702815E-09  0.0000000E+00  0.4066782E-01
  0.1489796E+01  0.0000000E+00  0.2244898E+00 -0.2639633E-09  0.0000000E+00  0.4066782E-01
  0.1530612E+01  0.0000000E+00  0.2244898E+00 -0.1703687E-09  0.0000000E+00  0.4066782E-01
  0.1571429E+01  0.0000000E+00  0.2244898E+00 -0.6595533E-10  0.0000000E+00  0.4066782E-01
  0.1612245E+01  0.0000000E+00  0.2244898E+00 -0.2327089E-10  0.0000000E+00  0.4066782E-01
  0.1653061E+01  0.0000000E+00  0.2244898E+00 -0.4249377E-10  0.0000000E+00  0.4066782E-01
  0.1693878E+01  0.0000000E+00  0.2244898E+00 -0.5303499E-10  0.0000000E+00  0.4066782E-01
  0.1734694E+01  0.0000000E+00  0.2244898E+00 -0.4768878E-11  0.0000000E+00  0.4066782E-01
  0.1775510E+01  0.0000000E+00  0.2244898E+00  0.1415432E-09  0.0000000E+00  0.4066782E-01
  0.1816326E+01  0.0000000E+00  0.2244898E+00  0.3607382E-09  0.0000000E+00  0.4066782E-01
  0.1857143E+01  0.0000000E+00  0.2244898E+00  0.4753954E-09  0.0000000E+00  0.4066782E-01
  0.1897959E+01  0.0000000E+00  0.2244898E+00  0.3471995E-09  0.0000000E+00  0.4066782E-01
  0.1938776E+01  0.0000000E+00  0.2244898E+00  0.8933623E-09  0.0000000E+00  0.4066782E-01
  0.1989796E+01  0.0000000E+00  0.2244898E+00 -0.5915726E-09  0.0000000E+00  0.4066782E-01
  0.2040816E-01  0.0000000E+00  0.2653061E+00  0.1500345E-09  0.0000000E+00  0.4034563E-01
  0.6122449E-01  0.0000000E+00  0.2653061E+00  0.5128573E-09  0.0000000E+00  0.4034563E-01
  0.1020408E+00  0.0000000E+00  0.2653061E+00  0.6589220E-09  0.0000000E+00  0.4034563E-01
  0.1428571E+00  0.0000000E+00  0.2653061E+00 -0.1165609E-09  0.0000000E+00  0.4034563E-01
  0.1836735E+00  0.0000000E+00  0.2653061E+00 -0.2202592E-09  0.0000000E+00  0.4034563E-01
  0.2244898E+00  0.0000000E+00  0.2653061E+00  0.1760713E-09  0.0000000E+00  0.4034563E-01
  0.2653061E+00  0.0000000E+00  0.2653061E+00  0.3527689E-09  0.0000000E+00  0.4034563E-01
  0.3061225E+00  0.0000000E+00  0.2653061E+00  0.2361984E-09  0.0000000E+00  0.4034563E-01
  0.3469388E+00  0.0000000E+00  0.2653061E+00  0.7196051E-10  0.0000000E+00  0.4034563E-01
  0.3877551E+00  0.0000000E+00  0.2653061E+00  0.1424708E-09  0.0000000E+00  0.4034563E-01
  0.4285714E+00  0.0000000E+00  0.2653061E+00 -0.1705112E-10  0.0000000E+00  0.4034563E-01
  0.4693878E+00  0.0000000E+00  0.2653061E+00 -0.1843584E-09  0.0000000E+00  0.4034563E-01
  0.5102041E+00  0.0000000E+00  0.2653061E+00 -0.2619460E-09  0.0000000E+00  0.4034563E-01
  0.5510204E+00  0.0000000E+00  0.2653061E+00 -0.2328805E-09  0.0000000E+00  0.4034563E-01
  0.5918368E+00  0.0000000E+00  0.2653061E+00 -0.9123051E-10  0.0000000E+00  0.4034563E-01
  0.6326531E+00  0.0000000E+00  0.2653061E+00  0.1325663E-09  0.0000000E+00  0.4034563E-01
  0.6734694E+00  0.0000000E+00  0.2653061E+00  0.2156252E-09  0.0000000E+00  0.4034563E-01
  0.7142857E+00  0.0000000E+00  0.2653061E+00  0.6587707E-09  0.0000000E+00  0.4034563E-01
  0.7551020E+00  0.0000000E+00  0.2653061E+00  0.4321694E-09  0.0000000E+00  0.4034563E-01
  0.7959183E+00  0.0000000E+00  0.2653061E+00 -0.1245833E-09  0.0000000E+00  0.4034563E-01
  0.8367347E+00  0.0000000E+00  0.2653061E+00 -0.1306168E-09  0.0000000E+00  0.4034563E-01
  0.8775510E+00  0.0000000E+00  0.2653061E+00 -0.6801919E-09  0.0000000E+00  0.4034563E-01
  0.9183673E+00  0.0000000E+00  0.2653061E+00 -0.1012786E-09  0.0000000E+00  0.4034563E-01
  0.9591837E+00  0.0000000E+00  0.2653061E+00  0.1231933E-09  0.0000000E+00  0.4034563E-01
  0.1000000E+01  0.0000000E+00  0.2653061E+00  0.4214040E-09  0.0000000E+00  0.4034563E-01
  0.1040816E+01  0.0000000E+00  0.2653061E+00  0.4476841E-09  0.0000000E+00  0.4034563E-01
  0.1081633E+01  0.0000000E+00  0.2653061E+00  0.9397508E-10  0.0000000E+00  0.4034563E-01
  0.1122449E+01  0.0000000E+00  0.2653061E+00 -0.3952351E-09  0.0000000E+00  0.4034563E-01
  0.1163265E+01  0.0000000E+00  0.2653061E+00 -0.6172412E-09  0.0000000E+00  0.4034563E-01
  0.1204082E+01  0.0000000E+00  0.2653061E+00  0.9381854E-10  0.0000000E+00  0.4034563E-01
  0.1244898E+01  0.0000000E+00  0.2653061E+00 -0.2095709E-09  0.0000000E+00  0.4034563E-01
  0.1285714E+01  0.0000000E+00  0.2653061E+00  0.7723285E-09  0.0000000E+00  0.4034563E-01
  0.1326531E+01  0.0000000E+00  0.2653061E+00  0.4637740E-09  0.0000000E+00  0.4034563E-01