title = "dataset feddes"
variables = "x", "y", "z", "vx", "vy", "vz"
zone t = "velocities, solution time =  2.500E+01 days        " i =   49, j =   49, k =    1,  f=point
  0.2040816E-01  0.0000000E+00  0.2040816E-01  0.2715398E-07  0.0000000E+00  0.1549224E-02
  0.6122449E-01  0.0000000E+00  0.2040816E-01  0.7551263E-07  0.0000000E+00  0.1549444E-02
  0.1020408E+00  0.0000000E+00  0.2040816E-01  0.1063549E-06  0.0000000E+00  0.1549835E-02
  0.1428571E+00  0.0000000E+00  0.2040816E-01  0.1090588E-06  0.0000000E+00  0.1550297E-02
  0.1836735E+00  0.0000000E+00  0.2040816E-01  0.7456069E-07  0.0000000E+00  0.1550692E-02
  0.2244898E+00  0.0000000E+00  0.2040816E-01 -0.4066224E-08  0.0000000E+00  0.1550843E-02
  0.2653061E+00  0.0000000E+00  0.2040816E-01 -0.1311169E-06  0.0000000E+00  0.1550553E-02
  0.3061225E+00  0.0000000E+00  0.2040816E-01 -0.3078726E-06  0.0000000E+00  0.1549610E-02
  0.3469388E+00  0.0000000E+00  0.2040816E-01 -0.5323980E-06  0.0000000E+00  0.1547806E-02
  0.3877551E+00  0.0000000E+00  0.2040816E-01 -0.7995598E-06  0.0000000E+00  0.1544946E-02
  0.4285714E+00  0.0000000E+00  0.2040816E-01 -0.1101298E-05  0.0000000E+00  0.1540864E-02
  0.4693878E+00  0.0000000E+00  0.2040816E-01 -0.1427157E-05  0.0000000E+00  0.1535434E-02
  0.5102041E+00  0.0000000E+00  0.2040816E-01 -0.1765037E-05  0.0000000E+00  0.1528580E-02
  0.5510204E+00  0.0000000E+00  0.2040816E-01 -0.2102096E-05  0.0000000E+00  0.1520276E-02
  0.5918368E+00  0.0000000E+00  0.2040816E-01 -0.2425702E-05  0.0000000E+00  0.1510553E-02
  0.6326531E+00  0.0000000E+00  0.2040816E-01 -0.2724321E-05  0.0000000E+00  0.1499495E-02
  0.6734694E+00  0.0000000E+00  0.2040816E-01 -0.2988250E-05  0.0000000E+00  0.1487229E-02
  0.7142857E+00  0.0000000E+00  0.2040816E-01 -0.3210115E-05  0.0000000E+00  0.1473919E-02
  0.7551020E+00  0.0000000E+00  0.2040816E-01 -0.3385117E-05  0.0000000E+00  0.1459758E-02
  0.7959183E+00  0.0000000E+00  0.2040816E-01 -0.3511025E-05  0.0000000E+00  0.1444951E-02
  0.8367347E+00  0.0000000E+00  0.2040816E-01 -0.3587959E-05  0.0000000E+00  0.1429708E-02
  0.8775510E+00  0.0000000E+00  0.2040816E-01 -0.3618032E-05  0.0000000E+00  0.1414236E-02
  0.9183673E+00  0.0000000E+00  0.2040816E-01 -0.3604901E-05  0.0000000E+00  0.1398727E-02
  0.9591837E+00  0.0000000E+00  0.2040816E-01 -0.3553298E-05  0.0000000E+00  0.1383358E-02
  0.1000000E+01  0.0000000E+00  0.2040816E-01 -0.3468587E-05  0.0000000E+00  0.1368281E-02
  0.1040816E+01  0.0000000E+00  0.2040816E-01 -0.3356375E-05  0.0000000E+00  0.1353628E-02
  0.1081633E+01  0.0000000E+00  0.2040816E-01 -0.3222194E-05  0.0000000E+00  0.1339504E-02
  0.1122449E+01  0.0000000E+00  0.2040816E-01 -0.3071270E-05  0.0000000E+00  0.1325991E-02
  0.1163265E+01  0.0000000E+00  0.2040816E-01 -0.2908357E-05  0.0000000E+00  0.1313153E-02
  0.1204082E+01  0.0000000E+00  0.2040816E-01 -0.2737640E-05  0.0000000E+00  0.1301031E-02
  0.1244898E+01  0.0000000E+00  0.2040816E-01 -0.2562693E-05  0.0000000E+00  0.1289652E-02
  0.1285714E+01  0.0000000E+00  0.2040816E-01 -0.2386479E-05  0.0000000E+00  0.1279026E-02
  0.1326531E+01  0.0000000E+00  0.2040816E-01 -0.2211370E-05  0.0000000E+00  0.1269155E-02
  0.1367347E+01  0.0000000E+00  0.2040816E-01 -0.2039196E-05  0.0000000E+00  0.1260029E-02
  0.1408163E+01  0.0000000E+00  0.2040816E-01 -0.1871302E-05  0.0000000E+00  0.1251634E-02
  0.1448980E+01  0.0000000E+00  0.2040816E-01 -0.1708610E-05  0.0000000E+00  0.1243948E-02
  0.1489796E+01  0.0000000E+00  0.2040816E-01 -0.1551681E-05  0.0000000E+00  0.1236949E-02
  0.1530612E+01  0.0000000E+00  0.2040816E-01 -0.1400778E-05  0.0000000E+00  0.1230610E-02
  0.1571429E+01  0.0000000E+00  0.2040816E-01 -0.1255921E-05  0.0000000E+00  0.1224907E-02
  0.1612245E+01  0.0000000E+00  0.2040816E-01 -0.1116942E-05  0.0000000E+00  0.1219813E-02
  0.1653061E+01  0.0000000E+00  0.2040816E-01 -0.9835232E-06  0.0000000E+00  0.1215303E-02
  0.1693878E+01  0.0000000E+00  0.2040816E-01 -0.8552423E-06  0.0000000E+00  0.1211356E-02
  0.1734694E+01  0.0000000E+00  0.2040816E-01 -0.7315971E-06  0.0000000E+00  0.1207949E-02
  0.1775510E+01  0.0000000E+00  0.2040816E-01 -0.6120318E-06  0.0000000E+00  0.1205064E-02
  0.1816326E+01  0.0000000E+00  0.2040816E-01 -0.4959549E-06  0.0000000E+00  0.1202686E-02
  0.1857143E+01  0.0000000E+00  0.2040816E-01 -0.3827518E-06  0.0000000E+00  0.1200799E-02
  0.1897959E+01  0.0000000E+00  0.2040816E-01 -0.2717945E-06  0.0000000E+00  0.1199394E-02
  0.1938776E+01  0.0000000E+00  0.2040816E-01 -0.1624483E-06  0.0000000E+00  0.1198462E-02
  0.1989796E+01  0.0000000E+00  0.2040816E-01 -0.5407876E-07  0.0000000E+00  0.1197997E-02
  0.2040816E-01  0.0000000E+00  0.6122449E-01  0.9518947E-07  0.0000000E+00  0.1549091E-02
  0.6122449E-01  0.0000000E+00  0.6122449E-01  0.2654428E-06  0.0000000E+00  0.1549335E-02
  0.1020408E+00  0.0000000E+00  0.6122449E-01  0.3764379E-06  0.0000000E+00  0.1549771E-02
  0.1428571E+00  0.0000000E+00  0.6122449E-01  0.3922144E-06  0.0000000E+00  0.1550299E-02
  0.1836735E+00  0.0000000E+00  0.6122449E-01  0.2820494E-06  0.0000000E+00  0.1550775E-02
  0.2244898E+00  0.0000000E+00  0.6122449E-01  0.2241709E-07  0.0000000E+00  0.1551019E-02
  0.2653061E+00  0.0000000E+00  0.6122449E-01 -0.4013193E-06  0.0000000E+00  0.1550826E-02
  0.3061225E+00  0.0000000E+00  0.6122449E-01 -0.9935966E-06  0.0000000E+00  0.1549981E-02
  0.3469388E+00  0.0000000E+00  0.6122449E-01 -0.1747932E-05  0.0000000E+00  0.1548267E-02
  0.3877551E+00  0.0000000E+00  0.6122449E-01 -0.2646963E-05  0.0000000E+00  0.1545484E-02
  0.4285714E+00  0.0000000E+00  0.6122449E-01 -0.3663355E-05  0.0000000E+00  0.1541461E-02
  0.4693878E+00  0.0000000E+00  0.6122449E-01 -0.4761597E-05  0.0000000E+00  0.1536068E-02
  0.5102041E+00  0.0000000E+00  0.6122449E-01 -0.5900573E-05  0.0000000E+00  0.1529224E-02
  0.5510204E+00  0.0000000E+00  0.6122449E-01 -0.7036652E-05  0.0000000E+00  0.1520906E-02
  0.5918368E+00  0.0000000E+00  0.6122449E-01 -0.8126945E-05  0.0000000E+00  0.1511145E-02
  0.6326531E+00  0.0000000E+00  0.6122449E-01 -0.9132355E-05  0.0000000E+00  0.1500027E-02
  0.6734694E+00  0.0000000E+00  0.6122449E-01 -0.1002007E-04  0.0000000E+00  0.1487684E-02
  0.7142857E+00  0.0000000E+00  0.6122449E-01 -0.1076527E-04  0.0000000E+00  0.1474285E-02
  0.7551020E+00  0.0000000E+00  0.6122449E-01 -0.1135190E-04  0.0000000E+00  0.1460028E-02
  0.7959183E+00  0.0000000E+00  0.6122449E-01 -0.1177268E-04  0.0000000E+00  0.1445122E-02
  0.8367347E+00  0.0000000E+00  0.6122449E-01 -0.1202828E-04  0.0000000E+00  0.1429784E-02
  0.8775510E+00  0.0000000E+00  0.6122449E-01 -0.1212608E-04  0.0000000E+00  0.1414221E-02
  0.9183673E+00  0.0000000E+00  0.6122449E-01 -0.1207866E-04  0.0000000E+00  0.1398631E-02
  0.9591837E+00  0.0000000E+00  0.6122449E-01 -0.1190218E-04  0.0000000E+00  0.1383190E-02
  0.1000000E+01  0.0000000E+00  0.6122449E-01 -0.1161484E-04  0.0000000E+00  0.1368053E-02
  0.1040816E+01  0.0000000E+00  0.6122449E-01 -0.1123563E-04  0.0000000E+00  0.1353349E-02
  0.1081633E+01  0.0000000E+00  0.6122449E-01 -0.1078321E-04  0.0000000E+00  0.1339186E-02
  0.1122449E+01  0.0000000E+00  0.6122449E-01 -0.1027518E-04  0.0000000E+00  0.1325645E-02
  0.1163265E+01  0.0000000E+00  0.6122449E-01 -0.9727496E-05  0.0000000E+00  0.1312787E-02
  0.1204082E+01  0.0000000E+00  0.6122449E-01 -0.9154180E-05  0.0000000E+00  0.1300653E-02
  0.1244898E+01  0.0000000E+00  0.6122449E-01 -0.8567185E-05  0.0000000E+00  0.1289268E-02
  0.1285714E+01  0.0000000E+00  0.6122449E-01 -0.7976390E-05  0.0000000E+00  0.1278642E-02
  0.1326531E+01  0.0000000E+00  0.6122449E-01 -0.7389693E-05  0.0000000E+00  0.1268775E-02
  0.1367347E+01  0.0000000E+00  0.6122449E-01 -0.6813169E-05  0.0000000E+00  0.1259656E-02
  0.1408163E+01  0.0000000E+00  0.6122449E-01 -0.6251267E-05  0.0000000E+00  0.1251270E-02
  0.1448980E+01  0.0000000E+00  0.6122449E-01 -0.5707022E-05  0.0000000E+00  0.1243596E-02
  0.1489796E+01  0.0000000E+00  0.6122449E-01 -0.5182264E-05  0.0000000E+00  0.1236608E-02
  0.1530612E+01  0.0000000E+00  0.6122449E-01 -0.4677828E-05  0.0000000E+00  0.1230281E-02
  0.1571429E+01  0.0000000E+00  0.6122449E-01 -0.4193746E-05  0.0000000E+00  0.1224590E-02
  0.1612245E+01  0.0000000E+00  0.6122449E-01 -0.3729417E-05  0.0000000E+00  0.1219507E-02
  0.1653061E+01  0.0000000E+00  0.6122449E-01 -0.3283759E-05  0.0000000E+00  0.1215008E-02
  0.1693878E+01  0.0000000E+00  0.6122449E-01 -0.2855332E-05  0.0000000E+00  0.1211070E-02
  0.1734694E+01  0.0000000E+00  0.6122449E-01 -0.2442441E-05  0.0000000E+00  0.1207672E-02
  0.1775510E+01  0.0000000E+00  0.6122449E-01 -0.2043215E-05  0.0000000E+00  0.1204795E-02
  0.1816326E+01  0.0000000E+00  0.6122449E-01 -0.1655667E-05  0.0000000E+00  0.1202423E-02
  0.1857143E+01  0.0000000E+00  0.6122449E-01 -0.1277735E-05  0.0000000E+00  0.1200542E-02
  0.1897959E+01  0.0000000E+00  0.6122449E-01 -0.9073149E-06  0.0000000E+00  0.1199140E-02
  0.1938776E+01  0.0000000E+00  0.6122449E-01 -0.5422804E-06  0.0000000E+00  0.1198211E-02
  0.1989796E+01  0.0000000E+00  0.6122449E-01 -0.1804995E-06  0.0000000E+00  0.1197747E-02
  0.2040816E-01  0.0000000E+00  0.1020408E+00  0.1837987E-06  0.0000000E+00  0.1548714E-02
  0.6122449E-01  0.0000000E+00  0.1020408E+00  0.5150636E-06  0.0000000E+00  0.1549013E-02
  0.1020408E+00  0.0000000E+00  0.1020408E+00  0.7393356E-06  0.0000000E+00  0.1549558E-02
  0.1428571E+00  0.0000000E+00  0.1020408E+00  0.7915866E-06  0.0000000E+00  0.1550242E-02
  0.1836735E+00  0.0000000E+00  0.1020408E+00  0.6161141E-06  0.0000000E+00  0.1550912E-02
  0.2244898E+00  0.0000000E+00  0.1020408E+00  0.1700936E-06  0.0000000E+00  0.1551377E-02
  0.2653061E+00  0.0000000E+00  0.1020408E+00 -0.5733111E-06  0.0000000E+00  0.1551419E-02
  0.3061225E+00  0.0000000E+00  0.1020408E+00 -0.1622497E-05  0.0000000E+00  0.1550807E-02
  0.3469388E+00  0.0000000E+00  0.1020408E+00 -0.2966007E-05  0.0000000E+00  0.1549309E-02
  0.3877551E+00  0.0000000E+00  0.1020408E+00 -0.4572512E-05  0.0000000E+00  0.1546711E-02
  0.4285714E+00  0.0000000E+00  0.1020408E+00 -0.6392399E-05  0.0000000E+00  0.1542828E-02
  0.4693878E+00  0.0000000E+00  0.1020408E+00 -0.8361029E-05  0.0000000E+00  0.1537521E-02
  0.5102041E+00  0.0000000E+00  0.1020408E+00 -0.1040347E-04  0.0000000E+00  0.1530704E-02
  0.5510204E+00  0.0000000E+00  0.1020408E+00 -0.1244020E-04  0.0000000E+00  0.1522351E-02
  0.5918368E+00  0.0000000E+00  0.1020408E+00 -0.1439322E-04  0.0000000E+00  0.1512497E-02
  0.6326531E+00  0.0000000E+00  0.1020408E+00 -0.1619160E-04  0.0000000E+00  0.1501235E-02
  0.6734694E+00  0.0000000E+00  0.1020408E+00 -0.1777617E-04  0.0000000E+00  0.1488708E-02
  0.7142857E+00  0.0000000E+00  0.1020408E+00 -0.1910251E-04  0.0000000E+00  0.1475097E-02
  0.7551020E+00  0.0000000E+00  0.1020408E+00 -0.2014240E-04  0.0000000E+00  0.1460611E-02
  0.7959183E+00  0.0000000E+00  0.1020408E+00 -0.2088358E-04  0.0000000E+00  0.1445472E-02
  0.8367347E+00  0.0000000E+00  0.1020408E+00 -0.2132823E-04  0.0000000E+00  0.1429905E-02
  0.8775510E+00  0.0000000E+00  0.1020408E+00 -0.2149061E-04  0.0000000E+00  0.1414129E-02
  0.9183673E+00  0.0000000E+00  0.1020408E+00 -0.2139416E-04  0.0000000E+00  0.1398346E-02
  0.9591837E+00  0.0000000E+00  0.1020408E+00 -0.2106855E-04  0.0000000E+00  0.1382736E-02
  0.1000000E+01  0.0000000E+00  0.1020408E+00 -0.2054693E-04  0.0000000E+00  0.1367456E-02
  0.1040816E+01  0.0000000E+00  0.1020408E+00 -0.1986360E-04  0.0000000E+00  0.1352636E-02
  0.1081633E+01  0.0000000E+00  0.1020408E+00 -0.1905210E-04  0.0000000E+00  0.1338383E-02
  0.1122449E+01  0.0000000E+00  0.1020408E+00 -0.1814386E-04  0.0000000E+00  0.1324774E-02
  0.1163265E+01  0.0000000E+00  0.1020408E+00 -0.1716726E-04  0.0000000E+00  0.1311870E-02
  0.1204082E+01  0.0000000E+00  0.1020408E+00 -0.1614713E-04  0.0000000E+00  0.1299709E-02
  0.1244898E+01  0.0000000E+00  0.1020408E+00 -0.1510455E-04  0.0000000E+00  0.1288311E-02
  0.1285714E+01  0.0000000E+00  0.1020408E+00 -0.1405684E-04  0.0000000E+00  0.1277685E-02
  0.1326531E+01  0.0000000E+00  0.1020408E+00 -0.1301781E-04  0.0000000E+00  0.1267828E-02
  0.1367347E+01  0.0000000E+00  0.1020408E+00 -0.1199801E-04  0.0000000E+00  0.1258726E-02
  0.1408163E+01  0.0000000E+00  0.1020408E+00 -0.1100512E-04  0.0000000E+00  0.1250363E-02
  0.1448980E+01  0.0000000E+00  0.1020408E+00 -0.1004431E-04  0.0000000E+00  0.1242714E-02
  0.1489796E+01  0.0000000E+00  0.1020408E+00 -0.9118637E-05  0.0000000E+00  0.1235754E-02
  0.1530612E+01  0.0000000E+00  0.1020408E+00 -0.8229433E-05  0.0000000E+00  0.1229456E-02
  0.1571429E+01  0.0000000E+00  0.1020408E+00 -0.7376611E-05  0.0000000E+00  0.1223792E-02
  0.1612245E+01  0.0000000E+00  0.1020408E+00 -0.6558994E-05  0.0000000E+00  0.1218736E-02
  0.1653061E+01  0.0000000E+00  0.1020408E+00 -0.5774573E-05  0.0000000E+00  0.1214262E-02
  0.1693878E+01  0.0000000E+00  0.1020408E+00 -0.5020730E-05  0.0000000E+00  0.1210347E-02
  0.1734694E+01  0.0000000E+00  0.1020408E+00 -0.4294412E-05  0.0000000E+00  0.1206969E-02
  0.1775510E+01  0.0000000E+00  0.1020408E+00 -0.3592276E-05  0.0000000E+00  0.1204110E-02
  0.1816326E+01  0.0000000E+00  0.1020408E+00 -0.2910783E-05  0.0000000E+00  0.1201753E-02
  0.1857143E+01  0.0000000E+00  0.1020408E+00 -0.2246277E-05  0.0000000E+00  0.1199883E-02
  0.1897959E+01  0.0000000E+00  0.1020408E+00 -0.1595031E-05  0.0000000E+00  0.1198491E-02
  0.1938776E+01  0.0000000E+00  0.1020408E+00 -0.9532824E-06  0.0000000E+00  0.1197567E-02
  0.1989796E+01  0.0000000E+00  0.1020408E+00 -0.3172517E-06  0.0000000E+00  0.1197107E-02
  0.2040816E-01  0.0000000E+00  0.1428571E+00  0.2920237E-06  0.0000000E+00  0.1548015E-02
  0.6122449E-01  0.0000000E+00  0.1428571E+00  0.8236320E-06  0.0000000E+00  0.1548402E-02
  0.1020408E+00  0.0000000E+00  0.1428571E+00  0.1200773E-05  0.0000000E+00  0.1549117E-02
  0.1428571E+00  0.0000000E+00  0.1428571E+00  0.1329317E-05  0.0000000E+00  0.1550045E-02
  0.1836735E+00  0.0000000E+00  0.1428571E+00  0.1128282E-05  0.0000000E+00  0.1551018E-02
  0.2244898E+00  0.0000000E+00  0.1428571E+00  0.5349922E-06  0.0000000E+00  0.1551830E-02
  0.2653061E+00  0.0000000E+00  0.1428571E+00 -0.4903014E-06  0.0000000E+00  0.1552241E-02
  0.3061225E+00  0.0000000E+00  0.1428571E+00 -0.1960670E-05  0.0000000E+00  0.1551996E-02
  0.3469388E+00  0.0000000E+00  0.1428571E+00 -0.3860199E-05  0.0000000E+00  0.1550839E-02
  0.3877551E+00  0.0000000E+00  0.1428571E+00 -0.6143717E-05  0.0000000E+00  0.1548532E-02
  0.4285714E+00  0.0000000E+00  0.1428571E+00 -0.8738966E-05  0.0000000E+00  0.1544870E-02
  0.4693878E+00  0.0000000E+00  0.1428571E+00 -0.1155134E-04  0.0000000E+00  0.1539698E-02
  0.5102041E+00  0.0000000E+00  0.1428571E+00 -0.1447094E-04  0.0000000E+00  0.1532922E-02
  0.5510204E+00  0.0000000E+00  0.1428571E+00 -0.1738115E-04  0.0000000E+00  0.1524513E-02
  0.5918368E+00  0.0000000E+00  0.1428571E+00 -0.2016784E-04  0.0000000E+00  0.1514513E-02
  0.6326531E+00  0.0000000E+00  0.1428571E+00 -0.2272785E-04  0.0000000E+00  0.1503025E-02
  0.6734694E+00  0.0000000E+00  0.1428571E+00 -0.2497576E-04  0.0000000E+00  0.1490208E-02
  0.7142857E+00  0.0000000E+00  0.1428571E+00 -0.2684845E-04  0.0000000E+00  0.1476263E-02
  0.7551020E+00  0.0000000E+00  0.1428571E+00 -0.2830683E-04  0.0000000E+00  0.1461419E-02
  0.7959183E+00  0.0000000E+00  0.1428571E+00 -0.2933536E-04  0.0000000E+00  0.1445916E-02
  0.8367347E+00  0.0000000E+00  0.1428571E+00 -0.2993946E-04  0.0000000E+00  0.1429997E-02
  0.8775510E+00  0.0000000E+00  0.1428571E+00 -0.3014181E-04  0.0000000E+00  0.1413891E-02
  0.9183673E+00  0.0000000E+00  0.1428571E+00 -0.2997796E-04  0.0000000E+00  0.1397811E-02
  0.9591837E+00  0.0000000E+00  0.1428571E+00 -0.2949193E-04  0.0000000E+00  0.1381943E-02
  0.1000000E+01  0.0000000E+00  0.1428571E+00 -0.2873219E-04  0.0000000E+00  0.1366446E-02
  0.1040816E+01  0.0000000E+00  0.1428571E+00 -0.2774830E-04  0.0000000E+00  0.1351451E-02
  0.1081633E+01  0.0000000E+00  0.1428571E+00 -0.2658832E-04  0.0000000E+00  0.1337061E-02
  0.1122449E+01  0.0000000E+00  0.1428571E+00 -0.2529684E-04  0.0000000E+00  0.1323353E-02
  0.1163265E+01  0.0000000E+00  0.1428571E+00 -0.2391389E-04  0.0000000E+00  0.1310381E-02
  0.1204082E+01  0.0000000E+00  0.1428571E+00 -0.2247419E-04  0.0000000E+00  0.1298180E-02
  0.1244898E+01  0.0000000E+00  0.1428571E+00 -0.2100703E-04  0.0000000E+00  0.1286766E-02
  0.1285714E+01  0.0000000E+00  0.1428571E+00 -0.1953631E-04  0.0000000E+00  0.1276142E-02
  0.1326531E+01  0.0000000E+00  0.1428571E+00 -0.1808093E-04  0.0000000E+00  0.1266301E-02
  0.1367347E+01  0.0000000E+00  0.1428571E+00 -0.1665519E-04  0.0000000E+00  0.1257228E-02
  0.1408163E+01  0.0000000E+00  0.1428571E+00 -0.1526939E-04  0.0000000E+00  0.1248899E-02
  0.1448980E+01  0.0000000E+00  0.1428571E+00 -0.1393033E-04  0.0000000E+00  0.1241291E-02
  0.1489796E+01  0.0000000E+00  0.1428571E+00 -0.1264190E-04  0.0000000E+00  0.1234374E-02
  0.1530612E+01  0.0000000E+00  0.1428571E+00 -0.1140560E-04  0.0000000E+00  0.1228119E-02
  0.1571429E+01  0.0000000E+00  0.1428571E+00 -0.1022099E-04  0.0000000E+00  0.1222498E-02
  0.1612245E+01  0.0000000E+00  0.1428571E+00 -0.9086172E-05  0.0000000E+00  0.1217483E-02
  0.1653061E+01  0.0000000E+00  0.1428571E+00 -0.7998134E-05  0.0000000E+00  0.1213048E-02
  0.1693878E+01  0.0000000E+00  0.1428571E+00 -0.6953051E-05  0.0000000E+00  0.1209167E-02
  0.1734694E+01  0.0000000E+00  0.1428571E+00 -0.5946543E-05  0.0000000E+00  0.1205821E-02
  0.1775510E+01  0.0000000E+00  0.1428571E+00 -0.4973854E-05  0.0000000E+00  0.1202988E-02
  0.1816326E+01  0.0000000E+00  0.1428571E+00 -0.4029992E-05  0.0000000E+00  0.1200653E-02
  0.1857143E+01  0.0000000E+00  0.1428571E+00 -0.3109822E-05  0.0000000E+00  0.1198802E-02
  0.1897959E+01  0.0000000E+00  0.1428571E+00 -0.2208129E-05  0.0000000E+00  0.1197423E-02
  0.1938776E+01  0.0000000E+00  0.1428571E+00 -0.1319654E-05  0.0000000E+00  0.1196508E-02
  0.1989796E+01  0.0000000E+00  0.1428571E+00 -0.4391236E-06  0.0000000E+00  0.1196052E-02
  0.2040816E-01  0.0000000E+00  0.1836735E+00  0.4313807E-06  0.0000000E+00  0.1546895E-02
  0.6122449E-01  0.0000000E+00  0.1836735E+00  0.1224969E-05  0.0000000E+00  0.1547402E-02
  0.1020408E+00  0.0000000E+00  0.1836735E+00  0.1814695E-05  0.0000000E+00  0.1548350E-02
  0.1428571E+00  0.0000000E+00  0.1836735E+00  0.2075839E-05  0.0000000E+00  0.1549612E-02
  0.1836735E+00  0.0000000E+00  0.1836735E+00  0.1900432E-05  0.0000000E+00  0.1551003E-02
  0.2244898E+00  0.0000000E+00  0.1836735E+00  0.1204095E-05  0.0000000E+00  0.1552293E-02
  0.2653061E+00  0.0000000E+00  0.1836735E+00 -0.6760857E-07  0.0000000E+00  0.1553212E-02
  0.3061225E+00  0.0000000E+00  0.1836735E+00 -0.1933807E-05  0.0000000E+00  0.1553473E-02
  0.3469388E+00  0.0000000E+00  0.1836735E+00 -0.4374766E-05  0.0000000E+00  0.1552788E-02
  0.3877551E+00  0.0000000E+00  0.1836735E+00 -0.7331027E-05  0.0000000E+00  0.1550885E-02
  0.4285714E+00  0.0000000E+00  0.1836735E+00 -0.1070602E-04  0.0000000E+00  0.1547530E-02
  0.4693878E+00  0.0000000E+00  0.1836735E+00 -0.1437235E-04  0.0000000E+00  0.1542545E-02
  0.5102041E+00  0.0000000E+00  0.1836735E+00 -0.1818155E-04  0.0000000E+00  0.1535824E-02
  0.5510204E+00  0.0000000E+00  0.1836735E+00 -0.2197608E-04  0.0000000E+00  0.1527336E-02
  0.5918368E+00  0.0000000E+00  0.1836735E+00 -0.2560229E-04  0.0000000E+00  0.1517130E-02
  0.6326531E+00  0.0000000E+00  0.1836735E+00 -0.2892228E-04  0.0000000E+00  0.1505327E-02
  0.6734694E+00  0.0000000E+00  0.1836735E+00 -0.3182334E-04  0.0000000E+00  0.1492110E-02
  0.7142857E+00  0.0000000E+00  0.1836735E+00 -0.3422382E-04  0.0000000E+00  0.1477706E-02
  0.7551020E+00  0.0000000E+00  0.1836735E+00 -0.3607524E-04  0.0000000E+00  0.1462372E-02
  0.7959183E+00  0.0000000E+00  0.1836735E+00 -0.3736102E-04  0.0000000E+00  0.1446375E-02
  0.8367347E+00  0.0000000E+00  0.1836735E+00 -0.3809250E-04  0.0000000E+00  0.1429979E-02
  0.8775510E+00  0.0000000E+00  0.1836735E+00 -0.3830344E-04  0.0000000E+00  0.1413432E-02
  0.9183673E+00  0.0000000E+00  0.1836735E+00 -0.3804384E-04  0.0000000E+00  0.1396956E-02
  0.9591837E+00  0.0000000E+00  0.1836735E+00 -0.3737391E-04  0.0000000E+00  0.1380746E-02
  0.1000000E+01  0.0000000E+00  0.1836735E+00 -0.3635870E-04  0.0000000E+00  0.1364965E-02
  0.1040816E+01  0.0000000E+00  0.1836735E+00 -0.3506374E-04  0.0000000E+00  0.1349742E-02
  0.1081633E+01  0.0000000E+00  0.1836735E+00 -0.3355170E-04  0.0000000E+00  0.1335177E-02
  0.1122449E+01  0.0000000E+00  0.1836735E+00 -0.3188016E-04  0.0000000E+00  0.1321342E-02
  0.1163265E+01  0.0000000E+00  0.1836735E+00 -0.3010020E-04  0.0000000E+00  0.1308287E-02
  0.1204082E+01  0.0000000E+00  0.1836735E+00 -0.2825574E-04  0.0000000E+00  0.1296038E-02
  0.1244898E+01  0.0000000E+00  0.1836735E+00 -0.2638342E-04  0.0000000E+00  0.1284606E-02
  0.1285714E+01  0.0000000E+00  0.1836735E+00 -0.2451290E-04  0.0000000E+00  0.1273989E-02
  0.1326531E+01  0.0000000E+00  0.1836735E+00 -0.2266732E-04  0.0000000E+00  0.1264174E-02
  0.1367347E+01  0.0000000E+00  0.1836735E+00 -0.2086403E-04  0.0000000E+00  0.1255140E-02
  0.1408163E+01  0.0000000E+00  0.1836735E+00 -0.1911523E-04  0.0000000E+00  0.1246861E-02
  0.1448980E+01  0.0000000E+00  0.1836735E+00 -0.1742879E-04  0.0000000E+00  0.1239308E-02
  0.1489796E+01  0.0000000E+00  0.1836735E+00 -0.1580895E-04  0.0000000E+00  0.1232449E-02
  0.1530612E+01  0.0000000E+00  0.1836735E+00 -0.1425697E-04  0.0000000E+00  0.1226253E-02
  0.1571429E+01  0.0000000E+00  0.1836735E+00 -0.1277179E-04  0.0000000E+00  0.1220689E-02
  0.1612245E+01  0.0000000E+00  0.1836735E+00 -0.1135054E-04  0.0000000E+00  0.1215728E-02
  0.1653061E+01  0.0000000E+00  0.1836735E+00 -0.9989060E-05  0.0000000E+00  0.1211343E-02
  0.1693878E+01  0.0000000E+00  0.1836735E+00 -0.8682239E-05  0.0000000E+00  0.1207509E-02
  0.1734694E+01  0.0000000E+00  0.1836735E+00 -0.7424341E-05  0.0000000E+00  0.1204202E-02
  0.1775510E+01  0.0000000E+00  0.1836735E+00 -0.6209222E-05  0.0000000E+00  0.1201405E-02
  0.1816326E+01  0.0000000E+00  0.1836735E+00 -0.5030491E-05  0.0000000E+00  0.1199100E-02
  0.1857143E+01  0.0000000E+00  0.1836735E+00 -0.3881619E-05  0.0000000E+00  0.1197272E-02
  0.1897959E+01  0.0000000E+00  0.1836735E+00 -0.2756005E-05  0.0000000E+00  0.1195911E-02
  0.1938776E+01  0.0000000E+00  0.1836735E+00 -0.1647017E-05  0.0000000E+00  0.1195008E-02
  0.1989796E+01  0.0000000E+00  0.1836735E+00 -0.5480071E-06  0.0000000E+00  0.1194558E-02
  0.2040816E-01  0.0000000E+00  0.2244898E+00  0.6130357E-06  0.0000000E+00  0.1545235E-02
  0.6122449E-01  0.0000000E+00  0.2244898E+00  0.1751971E-05  0.0000000E+00  0.1545895E-02
  0.1020408E+00  0.0000000E+00  0.2244898E+00  0.2633893E-05  0.0000000E+00  0.1547143E-02
  0.1428571E+00  0.0000000E+00  0.2244898E+00  0.3100716E-05  0.0000000E+00  0.1548836E-02
  0.1836735E+00  0.0000000E+00  0.2244898E+00  0.3014417E-05  0.0000000E+00  0.1550767E-02
  0.2244898E+00  0.0000000E+00  0.2244898E+00  0.2265707E-05  0.0000000E+00  0.1552675E-02
  0.2653061E+00  0.0000000E+00  0.2244898E+00  0.7824433E-06  0.0000000E+00  0.1554255E-02
  0.3061225E+00  0.0000000E+00  0.2244898E+00 -0.1462858E-05  0.0000000E+00  0.1555179E-02
  0.3469388E+00  0.0000000E+00  0.2244898E+00 -0.4447643E-05  0.0000000E+00  0.1555111E-02
  0.3877551E+00  0.0000000E+00  0.2244898E+00 -0.8097349E-05  0.0000000E+00  0.1553737E-02
  0.4285714E+00  0.0000000E+00  0.2244898E+00 -0.1228815E-04  0.0000000E+00  0.1550783E-02
  0.4693878E+00  0.0000000E+00  0.2244898E+00 -0.1685496E-04  0.0000000E+00  0.1546044E-02
  0.5102041E+00  0.0000000E+00  0.2244898E+00 -0.2160443E-04  0.0000000E+00  0.1539393E-02
  0.5510204E+00  0.0000000E+00  0.2244898E+00 -0.2633134E-04  0.0000000E+00  0.1530798E-02
  0.5918368E+00  0.0000000E+00  0.2244898E+00 -0.3083641E-04  0.0000000E+00  0.1520319E-02
  0.6326531E+00  0.0000000E+00  0.2244898E+00 -0.3494252E-04  0.0000000E+00  0.1508101E-02
  0.6734694E+00  0.0000000E+00  0.2244898E+00 -0.3850722E-04  0.0000000E+00  0.1494360E-02
  0.7142857E+00  0.0000000E+00  0.2244898E+00 -0.4143027E-04  0.0000000E+00  0.1479361E-02
  0.7551020E+00  0.0000000E+00  0.2244898E+00 -0.4365561E-04  0.0000000E+00  0.1463396E-02
  0.7959183E+00  0.0000000E+00  0.2244898E+00 -0.4516876E-04  0.0000000E+00  0.1446768E-02
  0.8367347E+00  0.0000000E+00  0.2244898E+00 -0.4599085E-04  0.0000000E+00  0.1429768E-02
  0.8775510E+00  0.0000000E+00  0.2244898E+00 -0.4617064E-04  0.0000000E+00  0.1412665E-02
  0.9183673E+00  0.0000000E+00  0.2244898E+00 -0.4577615E-04  0.0000000E+00  0.1395698E-02
  0.9591837E+00  0.0000000E+00  0.2244898E+00 -0.4488661E-04  0.0000000E+00  0.1379068E-02
  0.1000000E+01  0.0000000E+00  0.2244898E+00 -0.4358571E-04  0.0000000E+00  0.1362941E-02
  0.1040816E+01  0.0000000E+00  0.2244898E+00 -0.4195619E-04  0.0000000E+00  0.1347443E-02
  0.1081633E+01  0.0000000E+00  0.2244898E+00 -0.4007594E-04  0.0000000E+00  0.1332671E-02
  0.1122449E+01  0.0000000E+00  0.2244898E+00 -0.3801552E-04  0.0000000E+00  0.1318690E-02
  0.1163265E+01  0.0000000E+00  0.2244898E+00 -0.3583666E-04  0.0000000E+00  0.1305540E-02
  0.1204082E+01  0.0000000E+00  0.2244898E+00 -0.3359180E-04  0.0000000E+00  0.1293241E-02
  0.1244898E+01  0.0000000E+00  0.2244898E+00 -0.3132417E-04  0.0000000E+00  0.1281796E-02
  0.1285714E+01  0.0000000E+00  0.2244898E+00 -0.2906827E-04  0.0000000E+00  0.1271195E-02
  0.1326531E+01  0.0000000E+00  0.2244898E+00 -0.2685066E-04  0.0000000E+00  0.1261417E-02
  0.1367347E+01  0.0000000E+00  0.2244898E+00 -0.2469087E-04  0.0000000E+00  0.1252437E-02
  0.1408163E+01  0.0000000E+00  0.2244898E+00 -0.2260235E-04  0.0000000E+00  0.1244222E-02
  0.1448980E+01  0.0000000E+00  0.2244898E+00 -0.2059336E-04  0.0000000E+00  0.1236739E-02
  0.1489796E+01  0.0000000E+00  0.2244898E+00 -0.1866791E-04  0.0000000E+00  0.1229954E-02
  0.1530612E+01  0.0000000E+00  0.2244898E+00 -0.1682659E-04  0.0000000E+00  0.1223831E-02
  0.1571429E+01  0.0000000E+00  0.2244898E+00 -0.1506731E-04  0.0000000E+00  0.1218339E-02
  0.1612245E+01  0.0000000E+00  0.2244898E+00 -0.1338599E-04  0.0000000E+00  0.1213445E-02
  0.1653061E+01  0.0000000E+00  0.2244898E+00 -0.1177709E-04  0.0000000E+00  0.1209122E-02
  0.1693878E+01  0.0000000E+00  0.2244898E+00 -0.1023410E-04  0.0000000E+00  0.1205344E-02
  0.1734694E+01  0.0000000E+00  0.2244898E+00 -0.8749846E-05  0.0000000E+00  0.1202088E-02
  0.1775510E+01  0.0000000E+00  0.2244898E+00 -0.7316796E-05  0.0000000E+00  0.1199333E-02
  0.1816326E+01  0.0000000E+00  0.2244898E+00 -0.5927191E-05  0.0000000E+00  0.1197064E-02
  0.1857143E+01  0.0000000E+00  0.2244898E+00 -0.4573169E-05  0.0000000E+00  0.1195265E-02
  0.1897959E+01  0.0000000E+00  0.2244898E+00 -0.3246827E-05  0.0000000E+00  0.1193925E-02
  0.1938776E+01  0.0000000E+00  0.2244898E+00 -0.1940252E-05  0.0000000E+00  0.1193037E-02
  0.1989796E+01  0.0000000E+00  0.2244898E+00 -0.6455316E-06  0.0000000E+00  0.1192594E-02
  0.2040816E-01  0.0000000E+00  0.2653061E+00  0.8484007E-06  0.0000000E+00  0.1542890E-02
  0.6122449E-01  0.0000000E+00  0.2653061E+00  0.2438415E-05  0.0000000E+00  0.1543740E-02
  0.1020408E+00  0.0000000E+00  0.2653061E+00  0.3713064E-05  0.0000000E+00  0.1545361E-02
  0.1428571E+00  0.0000000E+00  0.2653061E+00  0.4476979E-05  0.0000000E+00  0.1547591E-02
  0.1836735E+00  0.0000000E+00  0.2653061E+00  0.4557668E-05  0.0000000E+00  0.1550198E-02
  0.2244898E+00  0.0000000E+00  0.2653061E+00  0.3816200E-05  0.0000000E+00  0.1552884E-02
  0.2653061E+00  0.0000000E+00  0.2653061E+00  0.2158158E-05  0.0000000E+00  0.1555300E-02
  0.3061225E+00  0.0000000E+00  0.2653061E+00 -0.4559463E-06  0.0000000E+00  0.1557062E-02
  0.3469388E+00  0.0000000E+00  0.2653061E+00 -0.4002519E-05  0.0000000E+00  0.1557780E-02
  0.3877551E+00  0.0000000E+00  0.2653061E+00 -0.8390958E-05  0.0000000E+00  0.1557081E-02
  0.4285714E+00  0.0000000E+00  0.2653061E+00 -0.1346599E-04  0.0000000E+00  0.1554641E-02
  0.4693878E+00  0.0000000E+00  0.2653061E+00 -0.1901754E-04  0.0000000E+00  0.1550212E-02
  0.5102041E+00  0.0000000E+00  0.2653061E+00 -0.2479778E-04  0.0000000E+00  0.1543647E-02
  0.5510204E+00  0.0000000E+00  0.2653061E+00 -0.3054353E-04  0.0000000E+00  0.1534910E-02
  0.5918368E+00  0.0000000E+00  0.2653061E+00 -0.3600050E-04  0.0000000E+00  0.1524078E-02
  0.6326531E+00  0.0000000E+00  0.2653061E+00 -0.4094545E-04  0.0000000E+00  0.1511328E-02
  0.6734694E+00  0.0000000E+00  0.2653061E+00 -0.4520266E-04  0.0000000E+00  0.1496920E-02
  0.7142857E+00  0.0000000E+00  0.2653061E+00 -0.4865306E-04  0.0000000E+00  0.1481169E-02
  0.7551020E+00  0.0000000E+00  0.2653061E+00 -0.5123569E-04  0.0000000E+00  0.1464417E-02
  0.7959183E+00  0.0000000E+00  0.2653061E+00 -0.5294279E-04  0.0000000E+00  0.1447009E-02
  0.8367347E+00  0.0000000E+00  0.2653061E+00 -0.5381073E-04  0.0000000E+00  0.1429270E-02
  0.8775510E+00  0.0000000E+00  0.2653061E+00 -0.5390879E-04  0.0000000E+00  0.1411497E-02
  0.9183673E+00  0.0000000E+00  0.2653061E+00 -0.5332782E-04  0.0000000E+00  0.1393943E-02
  0.9591837E+00  0.0000000E+00  0.2653061E+00 -0.5216999E-04  0.0000000E+00  0.1376818E-02
  0.1000000E+01  0.0000000E+00  0.2653061E+00 -0.5054039E-04  0.0000000E+00  0.1360288E-02
  0.1040816E+01  0.0000000E+00  0.2653061E+00 -0.4854070E-04  0.0000000E+00  0.1344477E-02
  0.1081633E+01  0.0000000E+00  0.2653061E+00 -0.4626484E-04  0.0000000E+00  0.1329473E-02
  0.1122449E+01  0.0000000E+00  0.2653061E+00 -0.4379643E-04  0.0000000E+00  0.1315332E-02
  0.1163265E+01  0.0000000E+00  0.2653061E+00 -0.4120751E-04  0.0000000E+00  0.1302085E-02
  0.1204082E+01  0.0000000E+00  0.2653061E+00 -0.3855831E-04  0.0000000E+00  0.1289740E-02
  0.1244898E+01  0.0000000E+00  0.2653061E+00 -0.3589771E-04  0.0000000E+00  0.1278291E-02
  0.1285714E+01  0.0000000E+00  0.2653061E+00 -0.3326414E-04  0.0000000E+00  0.1267718E-02
  0.1326531E+01  0.0000000E+00  0.2653061E+00 -0.3068664E-04  0.0000000E+00  0.1257993E-02