title = "dataset feddes"
variables = "x", "y", "z", "vx", "vy", "vz"
zone t = "velocities, solution time =  4.400E+01 days        " i =   49, j =   49, k =    1,  f=point
  0.2040816E-01  0.0000000E+00  0.2040816E-01  0.5279888E-07  0.0000000E+00  0.9182032E-03
  0.6122449E-01  0.0000000E+00  0.2040816E-01  0.1465299E-06  0.0000000E+00  0.9186310E-03
  0.1020408E+00  0.0000000E+00  0.2040816E-01  0.2047661E-06  0.0000000E+00  0.9193850E-03
  0.1428571E+00  0.0000000E+00  0.2040816E-01  0.2059597E-06  0.0000000E+00  0.9202666E-03
  0.1836735E+00  0.0000000E+00  0.2040816E-01  0.1317697E-06  0.0000000E+00  0.9209915E-03
  0.2244898E+00  0.0000000E+00  0.2040816E-01 -0.3183107E-07  0.0000000E+00  0.9212060E-03
  0.2653061E+00  0.0000000E+00  0.2040816E-01 -0.2935174E-06  0.0000000E+00  0.9205077E-03
  0.3061225E+00  0.0000000E+00  0.2040816E-01 -0.6558669E-06  0.0000000E+00  0.9184700E-03
  0.3469388E+00  0.0000000E+00  0.2040816E-01 -0.1114934E-05  0.0000000E+00  0.9146691E-03
  0.3877551E+00  0.0000000E+00  0.2040816E-01 -0.1660288E-05  0.0000000E+00  0.9087124E-03
  0.4285714E+00  0.0000000E+00  0.2040816E-01 -0.2275574E-05  0.0000000E+00  0.9002646E-03
  0.4693878E+00  0.0000000E+00  0.2040816E-01 -0.2939581E-05  0.0000000E+00  0.8890710E-03
  0.5102041E+00  0.0000000E+00  0.2040816E-01 -0.3627768E-05  0.0000000E+00  0.8749753E-03
  0.5510204E+00  0.0000000E+00  0.2040816E-01 -0.4314091E-05  0.0000000E+00  0.8579297E-03
  0.5918368E+00  0.0000000E+00  0.2040816E-01 -0.4972927E-05  0.0000000E+00  0.8379971E-03
  0.6326531E+00  0.0000000E+00  0.2040816E-01 -0.5580876E-05  0.0000000E+00  0.8153461E-03
  0.6734694E+00  0.0000000E+00  0.2040816E-01 -0.6118238E-05  0.0000000E+00  0.7902374E-03
  0.7142857E+00  0.0000000E+00  0.2040816E-01 -0.6570035E-05  0.0000000E+00  0.7630063E-03
  0.7551020E+00  0.0000000E+00  0.2040816E-01 -0.6926502E-05  0.0000000E+00  0.7340410E-03
  0.7959183E+00  0.0000000E+00  0.2040816E-01 -0.7183076E-05  0.0000000E+00  0.7037608E-03
  0.8367347E+00  0.0000000E+00  0.2040816E-01 -0.7339974E-05  0.0000000E+00  0.6725939E-03
  0.8775510E+00  0.0000000E+00  0.2040816E-01 -0.7401453E-05  0.0000000E+00  0.6409590E-03
  0.9183673E+00  0.0000000E+00  0.2040816E-01 -0.7374922E-05  0.0000000E+00  0.6092498E-03
  0.9591837E+00  0.0000000E+00  0.2040816E-01 -0.7269985E-05  0.0000000E+00  0.5778235E-03
  0.1000000E+01  0.0000000E+00  0.2040816E-01 -0.7097549E-05  0.0000000E+00  0.5469930E-03
  0.1040816E+01  0.0000000E+00  0.2040816E-01 -0.6869029E-05  0.0000000E+00  0.5170235E-03
  0.1081633E+01  0.0000000E+00  0.2040816E-01 -0.6595709E-05  0.0000000E+00  0.4881315E-03
  0.1122449E+01  0.0000000E+00  0.2040816E-01 -0.6288262E-05  0.0000000E+00  0.4604861E-03
  0.1163265E+01  0.0000000E+00  0.2040816E-01 -0.5956408E-05  0.0000000E+00  0.4342131E-03
  0.1204082E+01  0.0000000E+00  0.2040816E-01 -0.5608715E-05  0.0000000E+00  0.4093985E-03
  0.1244898E+01  0.0000000E+00  0.2040816E-01 -0.5252502E-05  0.0000000E+00  0.3860946E-03
  0.1285714E+01  0.0000000E+00  0.2040816E-01 -0.4893826E-05  0.0000000E+00  0.3643249E-03
  0.1326531E+01  0.0000000E+00  0.2040816E-01 -0.4537526E-05  0.0000000E+00  0.3440896E-03
  0.1367347E+01  0.0000000E+00  0.2040816E-01 -0.4187310E-05  0.0000000E+00  0.3253703E-03
  0.1408163E+01  0.0000000E+00  0.2040816E-01 -0.3845871E-05  0.0000000E+00  0.3081353E-03
  0.1448980E+01  0.0000000E+00  0.2040816E-01 -0.3515011E-05  0.0000000E+00  0.2923428E-03
  0.1489796E+01  0.0000000E+00  0.2040816E-01 -0.3195777E-05  0.0000000E+00  0.2779452E-03
  0.1530612E+01  0.0000000E+00  0.2040816E-01 -0.2888591E-05  0.0000000E+00  0.2648916E-03
  0.1571429E+01  0.0000000E+00  0.2040816E-01 -0.2593378E-05  0.0000000E+00  0.2531306E-03
  0.1612245E+01  0.0000000E+00  0.2040816E-01 -0.2309678E-05  0.0000000E+00  0.2426116E-03
  0.1653061E+01  0.0000000E+00  0.2040816E-01 -0.2036752E-05  0.0000000E+00  0.2332869E-03
  0.1693878E+01  0.0000000E+00  0.2040816E-01 -0.1773668E-05  0.0000000E+00  0.2251122E-03
  0.1734694E+01  0.0000000E+00  0.2040816E-01 -0.1519363E-05  0.0000000E+00  0.2180475E-03
  0.1775510E+01  0.0000000E+00  0.2040816E-01 -0.1272703E-05  0.0000000E+00  0.2120575E-03
  0.1816326E+01  0.0000000E+00  0.2040816E-01 -0.1032515E-05  0.0000000E+00  0.2071120E-03
  0.1857143E+01  0.0000000E+00  0.2040816E-01 -0.7976133E-06  0.0000000E+00  0.2031858E-03
  0.1897959E+01  0.0000000E+00  0.2040816E-01 -0.5668111E-06  0.0000000E+00  0.2002587E-03
  0.1938776E+01  0.0000000E+00  0.2040816E-01 -0.3389302E-06  0.0000000E+00  0.1983156E-03
  0.1989796E+01  0.0000000E+00  0.2040816E-01 -0.1128028E-06  0.0000000E+00  0.1973465E-03
  0.2040816E-01  0.0000000E+00  0.6122449E-01  0.1854952E-06  0.0000000E+00  0.9180075E-03
  0.6122449E-01  0.0000000E+00  0.6122449E-01  0.5162249E-06  0.0000000E+00  0.9184830E-03
  0.1020408E+00  0.0000000E+00  0.6122449E-01  0.7269005E-06  0.0000000E+00  0.9193295E-03
  0.1428571E+00  0.0000000E+00  0.6122449E-01  0.7445482E-06  0.0000000E+00  0.9203435E-03
  0.1836735E+00  0.0000000E+00  0.6122449E-01  0.5069948E-06  0.0000000E+00  0.9212332E-03
  0.2244898E+00  0.0000000E+00  0.6122449E-01 -0.3339688E-07  0.0000000E+00  0.9216353E-03
  0.2653061E+00  0.0000000E+00  0.6122449E-01 -0.9062007E-06  0.0000000E+00  0.9211357E-03
  0.3061225E+00  0.0000000E+00  0.6122449E-01 -0.2120334E-05  0.0000000E+00  0.9192953E-03
  0.3469388E+00  0.0000000E+00  0.6122449E-01 -0.3662583E-05  0.0000000E+00  0.9156775E-03
  0.3877551E+00  0.0000000E+00  0.6122449E-01 -0.5497674E-05  0.0000000E+00  0.9098770E-03
  0.4285714E+00  0.0000000E+00  0.6122449E-01 -0.7570132E-05  0.0000000E+00  0.9015477E-03
  0.4693878E+00  0.0000000E+00  0.6122449E-01 -0.9807928E-05  0.0000000E+00  0.8904270E-03
  0.5102041E+00  0.0000000E+00  0.6122449E-01 -0.1212767E-04  0.0000000E+00  0.8763535E-03
  0.5510204E+00  0.0000000E+00  0.6122449E-01 -0.1444088E-04  0.0000000E+00  0.8592784E-03
  0.5918368E+00  0.0000000E+00  0.6122449E-01 -0.1666055E-04  0.0000000E+00  0.8392674E-03
  0.6326531E+00  0.0000000E+00  0.6122449E-01 -0.1870737E-04  0.0000000E+00  0.8164948E-03
  0.6734694E+00  0.0000000E+00  0.6122449E-01 -0.2051473E-04  0.0000000E+00  0.7912298E-03
  0.7142857E+00  0.0000000E+00  0.6122449E-01 -0.2203219E-04  0.0000000E+00  0.7638176E-03
  0.7551020E+00  0.0000000E+00  0.6122449E-01 -0.2322712E-04  0.0000000E+00  0.7346569E-03
  0.7959183E+00  0.0000000E+00  0.6122449E-01 -0.2408459E-04  0.0000000E+00  0.7041769E-03
  0.8367347E+00  0.0000000E+00  0.6122449E-01 -0.2460586E-04  0.0000000E+00  0.6728147E-03
  0.8775510E+00  0.0000000E+00  0.6122449E-01 -0.2480584E-04  0.0000000E+00  0.6409962E-03
  0.9183673E+00  0.0000000E+00  0.6122449E-01 -0.2470999E-04  0.0000000E+00  0.6091204E-03
  0.9591837E+00  0.0000000E+00  0.6122449E-01 -0.2435108E-04  0.0000000E+00  0.5775480E-03
  0.1000000E+01  0.0000000E+00  0.6122449E-01 -0.2376617E-04  0.0000000E+00  0.5465937E-03
  0.1040816E+01  0.0000000E+00  0.6122449E-01 -0.2299389E-04  0.0000000E+00  0.5165231E-03
  0.1081633E+01  0.0000000E+00  0.6122449E-01 -0.2207232E-04  0.0000000E+00  0.4875520E-03
  0.1122449E+01  0.0000000E+00  0.6122449E-01 -0.2103738E-04  0.0000000E+00  0.4598479E-03
  0.1163265E+01  0.0000000E+00  0.6122449E-01 -0.1992172E-04  0.0000000E+00  0.4335344E-03
  0.1204082E+01  0.0000000E+00  0.6122449E-01 -0.1875405E-04  0.0000000E+00  0.4086953E-03
  0.1244898E+01  0.0000000E+00  0.6122449E-01 -0.1755884E-04  0.0000000E+00  0.3853803E-03
  0.1285714E+01  0.0000000E+00  0.6122449E-01 -0.1635631E-04  0.0000000E+00  0.3636104E-03
  0.1326531E+01  0.0000000E+00  0.6122449E-01 -0.1516257E-04  0.0000000E+00  0.3433834E-03
  0.1367347E+01  0.0000000E+00  0.6122449E-01 -0.1398992E-04  0.0000000E+00  0.3246789E-03
  0.1408163E+01  0.0000000E+00  0.6122449E-01 -0.1284727E-04  0.0000000E+00  0.3074630E-03
  0.1448980E+01  0.0000000E+00  0.6122449E-01 -0.1174056E-04  0.0000000E+00  0.2916926E-03
  0.1489796E+01  0.0000000E+00  0.6122449E-01 -0.1067317E-04  0.0000000E+00  0.2773186E-03
  0.1530612E+01  0.0000000E+00  0.6122449E-01 -0.9646421E-05  0.0000000E+00  0.2642890E-03
  0.1571429E+01  0.0000000E+00  0.6122449E-01 -0.8659981E-05  0.0000000E+00  0.2525514E-03
  0.1612245E+01  0.0000000E+00  0.6122449E-01 -0.7712237E-05  0.0000000E+00  0.2420547E-03
  0.1653061E+01  0.0000000E+00  0.6122449E-01 -0.6800656E-05  0.0000000E+00  0.2327505E-03
  0.1693878E+01  0.0000000E+00  0.6122449E-01 -0.5922064E-05  0.0000000E+00  0.2245944E-03
  0.1734694E+01  0.0000000E+00  0.6122449E-01 -0.5072876E-05  0.0000000E+00  0.2175460E-03
  0.1775510E+01  0.0000000E+00  0.6122449E-01 -0.4249271E-05  0.0000000E+00  0.2115702E-03
  0.1816326E+01  0.0000000E+00  0.6122449E-01 -0.3447310E-05  0.0000000E+00  0.2066365E-03
  0.1857143E+01  0.0000000E+00  0.6122449E-01 -0.2663017E-05  0.0000000E+00  0.2027196E-03
  0.1897959E+01  0.0000000E+00  0.6122449E-01 -0.1892423E-05  0.0000000E+00  0.1997995E-03
  0.1938776E+01  0.0000000E+00  0.6122449E-01 -0.1131588E-05  0.0000000E+00  0.1978610E-03
  0.1989796E+01  0.0000000E+00  0.6122449E-01 -0.3766022E-06  0.0000000E+00  0.1968943E-03
  0.2040816E-01  0.0000000E+00  0.1020408E+00  0.3594998E-06  0.0000000E+00  0.9175192E-03
  0.6122449E-01  0.0000000E+00  0.1020408E+00  0.1005600E-05  0.0000000E+00  0.9181081E-03
  0.1020408E+00  0.0000000E+00  0.1020408E+00  0.1434966E-05  0.0000000E+00  0.9191753E-03
  0.1428571E+00  0.0000000E+00  0.1020408E+00  0.1515616E-05  0.0000000E+00  0.9205051E-03
  0.1836735E+00  0.0000000E+00  0.1020408E+00  0.1134817E-05  0.0000000E+00  0.9217880E-03
  0.2244898E+00  0.0000000E+00  0.1020408E+00  0.2058658E-06  0.0000000E+00  0.9226378E-03
  0.2653061E+00  0.0000000E+00  0.1020408E+00 -0.1325496E-05  0.0000000E+00  0.9226132E-03
  0.3061225E+00  0.0000000E+00  0.1020408E+00 -0.3476121E-05  0.0000000E+00  0.9212449E-03
  0.3469388E+00  0.0000000E+00  0.1020408E+00 -0.6222661E-05  0.0000000E+00  0.9180649E-03
  0.3877551E+00  0.0000000E+00  0.1020408E+00 -0.9501476E-05  0.0000000E+00  0.9126383E-03
  0.4285714E+00  0.0000000E+00  0.1020408E+00 -0.1321188E-04  0.0000000E+00  0.9045930E-03
  0.4693878E+00  0.0000000E+00  0.1020408E+00 -0.1722276E-04  0.0000000E+00  0.8936464E-03
  0.5102041E+00  0.0000000E+00  0.1020408E+00 -0.2138216E-04  0.0000000E+00  0.8796257E-03
  0.5510204E+00  0.0000000E+00  0.1020408E+00 -0.2552884E-04  0.0000000E+00  0.8624794E-03
  0.5918368E+00  0.0000000E+00  0.1020408E+00 -0.2950455E-04  0.0000000E+00  0.8422800E-03
  0.6326531E+00  0.0000000E+00  0.1020408E+00 -0.3316544E-04  0.0000000E+00  0.8192160E-03
  0.6734694E+00  0.0000000E+00  0.1020408E+00 -0.3639138E-04  0.0000000E+00  0.7935772E-03
  0.7142857E+00  0.0000000E+00  0.1020408E+00 -0.3909213E-04  0.0000000E+00  0.7657328E-03
  0.7551020E+00  0.0000000E+00  0.1020408E+00 -0.4121025E-04  0.0000000E+00  0.7361067E-03
  0.7959183E+00  0.0000000E+00  0.1020408E+00 -0.4272063E-04  0.0000000E+00  0.7051519E-03
  0.8367347E+00  0.0000000E+00  0.1020408E+00 -0.4362753E-04  0.0000000E+00  0.6733265E-03
  0.8775510E+00  0.0000000E+00  0.1020408E+00 -0.4395967E-04  0.0000000E+00  0.6410736E-03
  0.9183673E+00  0.0000000E+00  0.1020408E+00 -0.4376453E-04  0.0000000E+00  0.6088045E-03
  0.9591837E+00  0.0000000E+00  0.1020408E+00 -0.4310233E-04  0.0000000E+00  0.5768881E-03
  0.1000000E+01  0.0000000E+00  0.1020408E+00 -0.4204047E-04  0.0000000E+00  0.5456433E-03
  0.1040816E+01  0.0000000E+00  0.1020408E+00 -0.4064879E-04  0.0000000E+00  0.5153362E-03
  0.1081633E+01  0.0000000E+00  0.1020408E+00 -0.3899570E-04  0.0000000E+00  0.4861806E-03
  0.1122449E+01  0.0000000E+00  0.1020408E+00 -0.3714539E-04  0.0000000E+00  0.4583403E-03
  0.1163265E+01  0.0000000E+00  0.1020408E+00 -0.3515594E-04  0.0000000E+00  0.4319337E-03
  0.1204082E+01  0.0000000E+00  0.1020408E+00 -0.3307820E-04  0.0000000E+00  0.4070388E-03
  0.1244898E+01  0.0000000E+00  0.1020408E+00 -0.3095533E-04  0.0000000E+00  0.3836993E-03
  0.1285714E+01  0.0000000E+00  0.1020408E+00 -0.2882283E-04  0.0000000E+00  0.3619304E-03
  0.1326531E+01  0.0000000E+00  0.1020408E+00 -0.2670885E-04  0.0000000E+00  0.3417244E-03
  0.1367347E+01  0.0000000E+00  0.1020408E+00 -0.2463479E-04  0.0000000E+00  0.3230556E-03
  0.1408163E+01  0.0000000E+00  0.1020408E+00 -0.2261599E-04  0.0000000E+00  0.3058860E-03
  0.1448980E+01  0.0000000E+00  0.1020408E+00 -0.2066254E-04  0.0000000E+00  0.2901682E-03
  0.1489796E+01  0.0000000E+00  0.1020408E+00 -0.1878008E-04  0.0000000E+00  0.2758502E-03
  0.1530612E+01  0.0000000E+00  0.1020408E+00 -0.1697059E-04  0.0000000E+00  0.2628772E-03
  0.1571429E+01  0.0000000E+00  0.1020408E+00 -0.1523316E-04  0.0000000E+00  0.2511948E-03
  0.1612245E+01  0.0000000E+00  0.1020408E+00 -0.1356468E-04  0.0000000E+00  0.2407505E-03
  0.1653061E+01  0.0000000E+00  0.1020408E+00 -0.1196045E-04  0.0000000E+00  0.2314946E-03
  0.1693878E+01  0.0000000E+00  0.1020408E+00 -0.1041470E-04  0.0000000E+00  0.2233821E-03
  0.1734694E+01  0.0000000E+00  0.1020408E+00 -0.8920969E-05  0.0000000E+00  0.2163722E-03
  0.1775510E+01  0.0000000E+00  0.1020408E+00 -0.7472429E-05  0.0000000E+00  0.2104293E-03
  0.1816326E+01  0.0000000E+00  0.1020408E+00 -0.6062073E-05  0.0000000E+00  0.2055230E-03
  0.1857143E+01  0.0000000E+00  0.1020408E+00 -0.4682855E-05  0.0000000E+00  0.2016280E-03
  0.1897959E+01  0.0000000E+00  0.1020408E+00 -0.3327763E-05  0.0000000E+00  0.1987243E-03
  0.1938776E+01  0.0000000E+00  0.1020408E+00 -0.1989845E-05  0.0000000E+00  0.1967967E-03
  0.1989796E+01  0.0000000E+00  0.1020408E+00 -0.6622115E-06  0.0000000E+00  0.1958354E-03
  0.2040816E-01  0.0000000E+00  0.1428571E+00  0.5738659E-06  0.0000000E+00  0.9166868E-03
  0.6122449E-01  0.0000000E+00  0.1428571E+00  0.1616164E-05  0.0000000E+00  0.9174528E-03
  0.1020408E+00  0.0000000E+00  0.1428571E+00  0.2345559E-05  0.0000000E+00  0.9188650E-03
  0.1428571E+00  0.0000000E+00  0.1428571E+00  0.2571000E-05  0.0000000E+00  0.9206892E-03
  0.1836735E+00  0.0000000E+00  0.1428571E+00  0.2128578E-05  0.0000000E+00  0.9225886E-03
  0.2244898E+00  0.0000000E+00  0.1428571E+00  0.8914095E-06  0.0000000E+00  0.9241412E-03
  0.2653061E+00  0.0000000E+00  0.1428571E+00 -0.1220901E-05  0.0000000E+00  0.9248633E-03
  0.3061225E+00  0.0000000E+00  0.1428571E+00 -0.4234591E-05  0.0000000E+00  0.9242380E-03
  0.3469388E+00  0.0000000E+00  0.1428571E+00 -0.8117208E-05  0.0000000E+00  0.9217481E-03
  0.3877551E+00  0.0000000E+00  0.1428571E+00 -0.1277701E-04  0.0000000E+00  0.9169111E-03
  0.4285714E+00  0.0000000E+00  0.1428571E+00 -0.1806736E-04  0.0000000E+00  0.9093134E-03
  0.4693878E+00  0.0000000E+00  0.1428571E+00 -0.2379639E-04  0.0000000E+00  0.8986409E-03
  0.5102041E+00  0.0000000E+00  0.1428571E+00 -0.2974123E-04  0.0000000E+00  0.8847022E-03
  0.5510204E+00  0.0000000E+00  0.1428571E+00 -0.3566544E-04  0.0000000E+00  0.8674422E-03
  0.5918368E+00  0.0000000E+00  0.1428571E+00 -0.4133758E-04  0.0000000E+00  0.8469439E-03
  0.6326531E+00  0.0000000E+00  0.1428571E+00 -0.4654833E-04  0.0000000E+00  0.8234199E-03
  0.6734694E+00  0.0000000E+00  0.1428571E+00 -0.5112438E-04  0.0000000E+00  0.7971929E-03
  0.7142857E+00  0.0000000E+00  0.1428571E+00 -0.5493741E-04  0.0000000E+00  0.7686708E-03
  0.7551020E+00  0.0000000E+00  0.1428571E+00 -0.5790789E-04  0.0000000E+00  0.7383177E-03
  0.7959183E+00  0.0000000E+00  0.1428571E+00 -0.6000391E-04  0.0000000E+00  0.7066241E-03
  0.8367347E+00  0.0000000E+00  0.1428571E+00 -0.6123617E-04  0.0000000E+00  0.6740813E-03
  0.8775510E+00  0.0000000E+00  0.1428571E+00 -0.6165042E-04  0.0000000E+00  0.6411584E-03
  0.9183673E+00  0.0000000E+00  0.1428571E+00 -0.6131863E-04  0.0000000E+00  0.6082859E-03
  0.9591837E+00  0.0000000E+00  0.1428571E+00 -0.6033012E-04  0.0000000E+00  0.5758443E-03
  0.1000000E+01  0.0000000E+00  0.1428571E+00 -0.5878344E-04  0.0000000E+00  0.5441581E-03
  0.1040816E+01  0.0000000E+00  0.1428571E+00 -0.5677953E-04  0.0000000E+00  0.5134940E-03
  0.1081633E+01  0.0000000E+00  0.1428571E+00 -0.5441636E-04  0.0000000E+00  0.4840620E-03
  0.1122449E+01  0.0000000E+00  0.1428571E+00 -0.5178512E-04  0.0000000E+00  0.4560195E-03
  0.1163265E+01  0.0000000E+00  0.1428571E+00 -0.4896768E-04  0.0000000E+00  0.4294765E-03
  0.1204082E+01  0.0000000E+00  0.1428571E+00 -0.4603523E-04  0.0000000E+00  0.4045021E-03
  0.1244898E+01  0.0000000E+00  0.1428571E+00 -0.4304779E-04  0.0000000E+00  0.3811305E-03
  0.1285714E+01  0.0000000E+00  0.1428571E+00 -0.4005435E-04  0.0000000E+00  0.3593678E-03
  0.1326531E+01  0.0000000E+00  0.1428571E+00 -0.3709350E-04  0.0000000E+00  0.3391977E-03
  0.1367347E+01  0.0000000E+00  0.1428571E+00 -0.3419427E-04  0.0000000E+00  0.3205870E-03
  0.1408163E+01  0.0000000E+00  0.1428571E+00 -0.3137720E-04  0.0000000E+00  0.3034905E-03
  0.1448980E+01  0.0000000E+00  0.1428571E+00 -0.2865551E-04  0.0000000E+00  0.2878553E-03
  0.1489796E+01  0.0000000E+00  0.1428571E+00 -0.2603622E-04  0.0000000E+00  0.2736241E-03
  0.1530612E+01  0.0000000E+00  0.1428571E+00 -0.2352132E-04  0.0000000E+00  0.2607386E-03
  0.1571429E+01  0.0000000E+00  0.1428571E+00 -0.2110884E-04  0.0000000E+00  0.2491412E-03
  0.1612245E+01  0.0000000E+00  0.1428571E+00 -0.1879385E-04  0.0000000E+00  0.2387769E-03
  0.1653061E+01  0.0000000E+00  0.1428571E+00 -0.1656930E-04  0.0000000E+00  0.2295949E-03
  0.1693878E+01  0.0000000E+00  0.1428571E+00 -0.1442675E-04  0.0000000E+00  0.2215486E-03
  0.1734694E+01  0.0000000E+00  0.1428571E+00 -0.1235693E-04  0.0000000E+00  0.2145970E-03
  0.1775510E+01  0.0000000E+00  0.1428571E+00 -0.1035012E-04  0.0000000E+00  0.2087042E-03
  0.1816326E+01  0.0000000E+00  0.1428571E+00 -0.8396444E-05  0.0000000E+00  0.2038394E-03
  0.1857143E+01  0.0000000E+00  0.1428571E+00 -0.6486037E-05  0.0000000E+00  0.1999776E-03
  0.1897959E+01  0.0000000E+00  0.1428571E+00 -0.4609117E-05  0.0000000E+00  0.1970986E-03
  0.1938776E+01  0.0000000E+00  0.1428571E+00 -0.2756014E-05  0.0000000E+00  0.1951874E-03
  0.1989796E+01  0.0000000E+00  0.1428571E+00 -0.9171610E-06  0.0000000E+00  0.1942343E-03
  0.2040816E-01  0.0000000E+00  0.1836735E+00  0.8518341E-06  0.0000000E+00  0.9154112E-03
  0.6122449E-01  0.0000000E+00  0.1836735E+00  0.2416249E-05  0.0000000E+00  0.9164194E-03
  0.1020408E+00  0.0000000E+00  0.1836735E+00  0.3567658E-05  0.0000000E+00  0.9183036E-03
  0.1428571E+00  0.0000000E+00  0.1836735E+00  0.4052936E-05  0.0000000E+00  0.9208053E-03
  0.1836735E+00  0.0000000E+00  0.1836735E+00  0.3653523E-05  0.0000000E+00  0.9235511E-03
  0.2244898E+00  0.0000000E+00  0.1836735E+00  0.2198605E-05  0.0000000E+00  0.9260709E-03
  0.2653061E+00  0.0000000E+00  0.1836735E+00 -0.4219126E-06  0.0000000E+00  0.9278229E-03
  0.3061225E+00  0.0000000E+00  0.1836735E+00 -0.4246504E-05  0.0000000E+00  0.9282247E-03
  0.3469388E+00  0.0000000E+00  0.1836735E+00 -0.9234848E-05  0.0000000E+00  0.9266904E-03
  0.3877551E+00  0.0000000E+00  0.1836735E+00 -0.1526621E-04  0.0000000E+00  0.9226709E-03
  0.4285714E+00  0.0000000E+00  0.1836735E+00 -0.2214463E-04  0.0000000E+00  0.9156937E-03
  0.4693878E+00  0.0000000E+00  0.1836735E+00 -0.2961178E-04  0.0000000E+00  0.9054002E-03
  0.5102041E+00  0.0000000E+00  0.1836735E+00 -0.3736659E-04  0.0000000E+00  0.8915728E-03
  0.5510204E+00  0.0000000E+00  0.1836735E+00 -0.4508970E-04  0.0000000E+00  0.8741516E-03
  0.5918368E+00  0.0000000E+00  0.1836735E+00 -0.5246955E-04  0.0000000E+00  0.8532359E-03
  0.6326531E+00  0.0000000E+00  0.1836735E+00 -0.5922644E-04  0.0000000E+00  0.8290727E-03
  0.6734694E+00  0.0000000E+00  0.1836735E+00 -0.6513158E-04  0.0000000E+00  0.8020328E-03
  0.7142857E+00  0.0000000E+00  0.1836735E+00 -0.7001906E-04  0.0000000E+00  0.7725791E-03
  0.7551020E+00  0.0000000E+00  0.1836735E+00 -0.7379014E-04  0.0000000E+00  0.7412319E-03
  0.7959183E+00  0.0000000E+00  0.1836735E+00 -0.7641065E-04  0.0000000E+00  0.7085346E-03
  0.8367347E+00  0.0000000E+00  0.1836735E+00 -0.7790315E-04  0.0000000E+00  0.6750232E-03
  0.8775510E+00  0.0000000E+00  0.1836735E+00 -0.7833576E-04  0.0000000E+00  0.6412017E-03
  0.9183673E+00  0.0000000E+00  0.1836735E+00 -0.7780969E-04  0.0000000E+00  0.6075255E-03
  0.9591837E+00  0.0000000E+00  0.1836735E+00 -0.7644710E-04  0.0000000E+00  0.5743897E-03
  0.1000000E+01  0.0000000E+00  0.1836735E+00 -0.7438022E-04  0.0000000E+00  0.5421251E-03
  0.1040816E+01  0.0000000E+00  0.1836735E+00 -0.7174247E-04  0.0000000E+00  0.5109973E-03
  0.1081633E+01  0.0000000E+00  0.1836735E+00 -0.6866176E-04  0.0000000E+00  0.4812103E-03
  0.1122449E+01  0.0000000E+00  0.1836735E+00 -0.6525577E-04  0.0000000E+00  0.4529118E-03
  0.1163265E+01  0.0000000E+00  0.1836735E+00 -0.6162909E-04  0.0000000E+00  0.4262003E-03
  0.1204082E+01  0.0000000E+00  0.1836735E+00 -0.5787181E-04  0.0000000E+00  0.4011319E-03
  0.1244898E+01  0.0000000E+00  0.1836735E+00 -0.5405918E-04  0.0000000E+00  0.3777281E-03
  0.1285714E+01  0.0000000E+00  0.1836735E+00 -0.5025201E-04  0.0000000E+00  0.3559828E-03
  0.1326531E+01  0.0000000E+00  0.1836735E+00 -0.4649767E-04  0.0000000E+00  0.3358681E-03
  0.1367347E+01  0.0000000E+00  0.1836735E+00 -0.4283132E-04  0.0000000E+00  0.3173406E-03
  0.1408163E+01  0.0000000E+00  0.1836735E+00 -0.3927736E-04  0.0000000E+00  0.3003461E-03
  0.1448980E+01  0.0000000E+00  0.1836735E+00 -0.3585092E-04  0.0000000E+00  0.2848240E-03
  0.1489796E+01  0.0000000E+00  0.1836735E+00 -0.3255940E-04  0.0000000E+00  0.2707108E-03
  0.1530612E+01  0.0000000E+00  0.1836735E+00 -0.2940396E-04  0.0000000E+00  0.2579429E-03
  0.1571429E+01  0.0000000E+00  0.1836735E+00 -0.2638090E-04  0.0000000E+00  0.2464589E-03
  0.1612245E+01  0.0000000E+00  0.1836735E+00 -0.2348294E-04  0.0000000E+00  0.2362010E-03
  0.1653061E+01  0.0000000E+00  0.1836735E+00 -0.2070035E-04  0.0000000E+00  0.2271165E-03
  0.1693878E+01  0.0000000E+00  0.1836735E+00 -0.1802184E-04  0.0000000E+00  0.2191576E-03
  0.1734694E+01  0.0000000E+00  0.1836735E+00 -0.1543522E-04  0.0000000E+00  0.2122825E-03
  0.1775510E+01  0.0000000E+00  0.1836735E+00 -0.1292796E-04  0.0000000E+00  0.2064551E-03
  0.1816326E+01  0.0000000E+00  0.1836735E+00 -0.1048745E-04  0.0000000E+00  0.2016446E-03
  0.1857143E+01  0.0000000E+00  0.1836735E+00 -0.8101180E-05  0.0000000E+00  0.1978259E-03
  0.1897959E+01  0.0000000E+00  0.1836735E+00 -0.5756830E-05  0.0000000E+00  0.1949791E-03
  0.1938776E+01  0.0000000E+00  0.1836735E+00 -0.3442267E-05  0.0000000E+00  0.1930894E-03
  0.1989796E+01  0.0000000E+00  0.1836735E+00 -0.1145513E-05  0.0000000E+00  0.1921470E-03
  0.2040816E-01  0.0000000E+00  0.2244898E+00  0.1215978E-05  0.0000000E+00  0.9135487E-03
  0.6122449E-01  0.0000000E+00  0.2244898E+00  0.3472363E-05  0.0000000E+00  0.9148681E-03
  0.1020408E+00  0.0000000E+00  0.2244898E+00  0.5207986E-05  0.0000000E+00  0.9173598E-03
  0.1428571E+00  0.0000000E+00  0.2244898E+00  0.6102004E-05  0.0000000E+00  0.9207350E-03
  0.1836735E+00  0.0000000E+00  0.2244898E+00  0.5874987E-05  0.0000000E+00  0.9245750E-03
  0.2244898E+00  0.0000000E+00  0.2244898E+00  0.4305696E-05  0.0000000E+00  0.9283490E-03
  0.2653061E+00  0.0000000E+00  0.2244898E+00  0.1248253E-05  0.0000000E+00  0.9314409E-03
  0.3061225E+00  0.0000000E+00  0.2244898E+00 -0.3352707E-05  0.0000000E+00  0.9331832E-03
  0.3469388E+00  0.0000000E+00  0.2244898E+00 -0.9451018E-05  0.0000000E+00  0.9328996E-03
  0.3877551E+00  0.0000000E+00  0.2244898E+00 -0.1689526E-04  0.0000000E+00  0.9299516E-03
  0.4285714E+00  0.0000000E+00  0.2244898E+00 -0.2543422E-04  0.0000000E+00  0.9237880E-03
  0.4693878E+00  0.0000000E+00  0.2244898E+00 -0.3473314E-04  0.0000000E+00  0.9139896E-03
  0.5102041E+00  0.0000000E+00  0.2244898E+00 -0.4440003E-04  0.0000000E+00  0.9003040E-03
  0.5510204E+00  0.0000000E+00  0.2244898E+00 -0.5401895E-04  0.0000000E+00  0.8826653E-03
  0.5918368E+00  0.0000000E+00  0.2244898E+00 -0.6318586E-04  0.0000000E+00  0.8611965E-03
  0.6326531E+00  0.0000000E+00  0.2244898E+00 -0.7154152E-04  0.0000000E+00  0.8361927E-03
  0.6734694E+00  0.0000000E+00  0.2244898E+00 -0.7879687E-04  0.0000000E+00  0.8080907E-03
  0.7142857E+00  0.0000000E+00  0.2244898E+00 -0.8474813E-04  0.0000000E+00  0.7774286E-03
  0.7551020E+00  0.0000000E+00  0.2244898E+00 -0.8928099E-04  0.0000000E+00  0.7448020E-03
  0.7959183E+00  0.0000000E+00  0.2244898E+00 -0.9236544E-04  0.0000000E+00  0.7108231E-03
  0.8367347E+00  0.0000000E+00  0.2244898E+00 -0.9404363E-04  0.0000000E+00  0.6760853E-03
  0.8775510E+00  0.0000000E+00  0.2244898E+00 -0.9441396E-04  0.0000000E+00  0.6411367E-03
  0.9183673E+00  0.0000000E+00  0.2244898E+00 -0.9361408E-04  0.0000000E+00  0.6064618E-03
  0.9591837E+00  0.0000000E+00  0.2244898E+00 -0.9180474E-04  0.0000000E+00  0.5724724E-03
  0.1000000E+01  0.0000000E+00  0.2244898E+00 -0.8915602E-04  0.0000000E+00  0.5395041E-03
  0.1040816E+01  0.0000000E+00  0.2244898E+00 -0.8583642E-04  0.0000000E+00  0.5078195E-03
  0.1081633E+01  0.0000000E+00  0.2244898E+00 -0.8200494E-04  0.0000000E+00  0.4776127E-03
  0.1122449E+01  0.0000000E+00  0.2244898E+00 -0.7780582E-04  0.0000000E+00  0.4490180E-03
  0.1163265E+01  0.0000000E+00  0.2244898E+00 -0.7336564E-04  0.0000000E+00  0.4221178E-03
  0.1204082E+01  0.0000000E+00  0.2244898E+00 -0.6879209E-04  0.0000000E+00  0.3969519E-03
  0.1244898E+01  0.0000000E+00  0.2244898E+00 -0.6417403E-04  0.0000000E+00  0.3735253E-03
  0.1285714E+01  0.0000000E+00  0.2244898E+00 -0.5958241E-04  0.0000000E+00  0.3518160E-03
  0.1326531E+01  0.0000000E+00  0.2244898E+00 -0.5507168E-04  0.0000000E+00  0.3317823E-03
  0.1367347E+01  0.0000000E+00  0.2244898E+00 -0.5068152E-04  0.0000000E+00  0.3133678E-03
  0.1408163E+01  0.0000000E+00  0.2244898E+00 -0.4643869E-04  0.0000000E+00  0.2965075E-03
  0.1448980E+01  0.0000000E+00  0.2244898E+00 -0.4235892E-04  0.0000000E+00  0.2811313E-03
  0.1489796E+01  0.0000000E+00  0.2244898E+00 -0.3844879E-04  0.0000000E+00  0.2671681E-03
  0.1530612E+01  0.0000000E+00  0.2244898E+00 -0.3470761E-04  0.0000000E+00  0.2545483E-03
  0.1571429E+01  0.0000000E+00  0.2244898E+00 -0.3112908E-04  0.0000000E+00  0.2432059E-03
  0.1612245E+01  0.0000000E+00  0.2244898E+00 -0.2770294E-04  0.0000000E+00  0.2330800E-03
  0.1653061E+01  0.0000000E+00  0.2244898E+00 -0.2441628E-04  0.0000000E+00  0.2241154E-03
  0.1693878E+01  0.0000000E+00  0.2244898E+00 -0.2125463E-04  0.0000000E+00  0.2162635E-03
  0.1734694E+01  0.0000000E+00  0.2244898E+00 -0.1820280E-04  0.0000000E+00  0.2094818E-03
  0.1775510E+01  0.0000000E+00  0.2244898E+00 -0.1524539E-04  0.0000000E+00  0.2037339E-03
  0.1816326E+01  0.0000000E+00  0.2244898E+00 -0.1236714E-04  0.0000000E+00  0.1989892E-03
  0.1857143E+01  0.0000000E+00  0.2244898E+00 -0.9553077E-05  0.0000000E+00  0.1952227E-03
  0.1897959E+01  0.0000000E+00  0.2244898E+00 -0.6788540E-05  0.0000000E+00  0.1924148E-03
  0.1938776E+01  0.0000000E+00  0.2244898E+00 -0.4059160E-05  0.0000000E+00  0.1905510E-03
  0.1989796E+01  0.0000000E+00  0.2244898E+00 -0.1350785E-05  0.0000000E+00  0.1896214E-03
  0.2040816E-01  0.0000000E+00  0.2653061E+00  0.1689398E-05  0.0000000E+00  0.9109114E-03
  0.6122449E-01  0.0000000E+00  0.2653061E+00  0.4852870E-05  0.0000000E+00  0.9126171E-03
  0.1020408E+00  0.0000000E+00  0.2653061E+00  0.7377229E-05  0.0000000E+00  0.9158643E-03
  0.1428571E+00  0.0000000E+00  0.2653061E+00  0.8865947E-05  0.0000000E+00  0.9203291E-03
  0.1836735E+00  0.0000000E+00  0.2653061E+00  0.8969778E-05  0.0000000E+00  0.9255389E-03
  0.2244898E+00  0.0000000E+00  0.2653061E+00  0.7407480E-05  0.0000000E+00  0.9308897E-03
  0.2653061E+00  0.0000000E+00  0.2653061E+00  0.3988150E-05  0.0000000E+00  0.9356736E-03
  0.3061225E+00  0.0000000E+00  0.2653061E+00 -0.1367786E-05  0.0000000E+00  0.9391163E-03
  0.3469388E+00  0.0000000E+00  0.2653061E+00 -0.8611955E-05  0.0000000E+00  0.9404247E-03
  0.3877551E+00  0.0000000E+00  0.2653061E+00 -0.1756032E-04  0.0000000E+00  0.9388443E-03
  0.4285714E+00  0.0000000E+00  0.2653061E+00 -0.2789790E-04  0.0000000E+00  0.9337196E-03
  0.4693878E+00  0.0000000E+00  0.2653061E+00 -0.3919876E-04  0.0000000E+00  0.9245507E-03
  0.5102041E+00  0.0000000E+00  0.2653061E+00 -0.5096060E-04  0.0000000E+00  0.9110390E-03
  0.5510204E+00  0.0000000E+00  0.2653061E+00 -0.6265004E-04  0.0000000E+00  0.8931125E-03
  0.5918368E+00  0.0000000E+00  0.2653061E+00 -0.7375168E-04  0.0000000E+00  0.8709272E-03
  0.6326531E+00  0.0000000E+00  0.2653061E+00 -0.8381279E-04  0.0000000E+00  0.8448450E-03
  0.6734694E+00  0.0000000E+00  0.2653061E+00 -0.9247676E-04  0.0000000E+00  0.8153924E-03
  0.7142857E+00  0.0000000E+00  0.2653061E+00 -0.9950155E-04  0.0000000E+00  0.7832072E-03
  0.7551020E+00  0.0000000E+00  0.2653061E+00 -0.1047627E-03  0.0000000E+00  0.7489836E-03
  0.7959183E+00  0.0000000E+00  0.2653061E+00 -0.1082434E-03  0.0000000E+00  0.7134216E-03
  0.8367347E+00  0.0000000E+00  0.2653061E+00 -0.1100166E-03  0.0000000E+00  0.6771857E-03
  0.8775510E+00  0.0000000E+00  0.2653061E+00 -0.1102220E-03  0.0000000E+00  0.6408757E-03
  0.9183673E+00  0.0000000E+00  0.2653061E+00 -0.1090436E-03  0.0000000E+00  0.6050093E-03
  0.9591837E+00  0.0000000E+00  0.2653061E+00 -0.1066884E-03  0.0000000E+00  0.5700144E-03
  0.1000000E+01  0.0000000E+00  0.2653061E+00 -0.1033702E-03  0.0000000E+00  0.5362293E-03
  0.1040816E+01  0.0000000E+00  0.2653061E+00 -0.9929594E-04  0.0000000E+00  0.5039089E-03
  0.1081633E+01  0.0000000E+00  0.2653061E+00 -0.9465744E-04  0.0000000E+00  0.4732329E-03
  0.1122449E+01  0.0000000E+00  0.2653061E+00 -0.8962580E-04  0.0000000E+00  0.4443167E-03
  0.1163265E+01  0.0000000E+00  0.2653061E+00 -0.8434882E-04  0.0000000E+00  0.4172221E-03
  0.1204082E+01  0.0000000E+00  0.2653061E+00 -0.7895041E-04  0.0000000E+00  0.3919678E-03
  0.1244898E+01  0.0000000E+00  0.2653061E+00 -0.7353135E-04  0.0000000E+00  0.3685385E-03
  0.1285714E+01  0.0000000E+00  0.2653061E+00 -0.6817084E-04  0.0000000E+00  0.3468934E-03
  0.1326531E+01  0.0000000E+00  0.2653061E+00 -0.6292857E-04  0.0000000E+00  0.3269737E-03