title = "dataset feddes"
variables = "x", "y", "z", "vx", "vy", "vz"
zone t = "velocities, solution time =  3.000E+01 days        " i =   49, j =   49, k =    1,  f=point
  0.2040816E-01  0.0000000E+00  0.2040816E-01  0.3360659E-07  0.0000000E+00  0.1031603E-02
  0.6122449E-01  0.0000000E+00  0.2040816E-01  0.9326726E-07  0.0000000E+00  0.1031876E-02
  0.1020408E+00  0.0000000E+00  0.2040816E-01  0.1310997E-06  0.0000000E+00  0.1032357E-02
  0.1428571E+00  0.0000000E+00  0.2040816E-01  0.1339115E-06  0.0000000E+00  0.1032926E-02
  0.1836735E+00  0.0000000E+00  0.2040816E-01  0.9040719E-07  0.0000000E+00  0.1033408E-02
  0.2244898E+00  0.0000000E+00  0.2040816E-01 -0.8039547E-08  0.0000000E+00  0.1033584E-02
  0.2653061E+00  0.0000000E+00  0.2040816E-01 -0.1667760E-06  0.0000000E+00  0.1033209E-02
  0.3061225E+00  0.0000000E+00  0.2040816E-01 -0.3873890E-06  0.0000000E+00  0.1032020E-02
  0.3469388E+00  0.0000000E+00  0.2040816E-01 -0.6674498E-06  0.0000000E+00  0.1029755E-02
  0.3877551E+00  0.0000000E+00  0.2040816E-01 -0.1000558E-05  0.0000000E+00  0.1026175E-02
  0.4285714E+00  0.0000000E+00  0.2040816E-01 -0.1376664E-05  0.0000000E+00  0.1021072E-02
  0.4693878E+00  0.0000000E+00  0.2040816E-01 -0.1782730E-05  0.0000000E+00  0.1014290E-02
  0.5102041E+00  0.0000000E+00  0.2040816E-01 -0.2203671E-05  0.0000000E+00  0.1005733E-02
  0.5510204E+00  0.0000000E+00  0.2040816E-01 -0.2623483E-05  0.0000000E+00  0.9953718E-03
  0.5918368E+00  0.0000000E+00  0.2040816E-01 -0.3026419E-05  0.0000000E+00  0.9832443E-03
  0.6326531E+00  0.0000000E+00  0.2040816E-01 -0.3398108E-05  0.0000000E+00  0.9694542E-03
  0.6734694E+00  0.0000000E+00  0.2040816E-01 -0.3726460E-05  0.0000000E+00  0.9541617E-03
  0.7142857E+00  0.0000000E+00  0.2040816E-01 -0.4002289E-05  0.0000000E+00  0.9375725E-03
  0.7551020E+00  0.0000000E+00  0.2040816E-01 -0.4219620E-05  0.0000000E+00  0.9199250E-03
  0.7959183E+00  0.0000000E+00  0.2040816E-01 -0.4375683E-05  0.0000000E+00  0.9014762E-03
  0.8367347E+00  0.0000000E+00  0.2040816E-01 -0.4470646E-05  0.0000000E+00  0.8824890E-03
  0.8775510E+00  0.0000000E+00  0.2040816E-01 -0.4507163E-05  0.0000000E+00  0.8632197E-03
  0.9183673E+00  0.0000000E+00  0.2040816E-01 -0.4489818E-05  0.0000000E+00  0.8439096E-03
  0.9591837E+00  0.0000000E+00  0.2040816E-01 -0.4424547E-05  0.0000000E+00  0.8247771E-03
  0.1000000E+01  0.0000000E+00  0.2040816E-01 -0.4318078E-05  0.0000000E+00  0.8060134E-03
  0.1040816E+01  0.0000000E+00  0.2040816E-01 -0.4177444E-05  0.0000000E+00  0.7877803E-03
  0.1081633E+01  0.0000000E+00  0.2040816E-01 -0.4009592E-05  0.0000000E+00  0.7702094E-03
  0.1122449E+01  0.0000000E+00  0.2040816E-01 -0.3821085E-05  0.0000000E+00  0.7534036E-03
  0.1163265E+01  0.0000000E+00  0.2040816E-01 -0.3617894E-05  0.0000000E+00  0.7374386E-03
  0.1204082E+01  0.0000000E+00  0.2040816E-01 -0.3405273E-05  0.0000000E+00  0.7223662E-03
  0.1244898E+01  0.0000000E+00  0.2040816E-01 -0.3187703E-05  0.0000000E+00  0.7082171E-03
  0.1285714E+01  0.0000000E+00  0.2040816E-01 -0.2968883E-05  0.0000000E+00  0.6950046E-03
  0.1326531E+01  0.0000000E+00  0.2040816E-01 -0.2751758E-05  0.0000000E+00  0.6827279E-03
  0.1367347E+01  0.0000000E+00  0.2040816E-01 -0.2538575E-05  0.0000000E+00  0.6713747E-03
  0.1408163E+01  0.0000000E+00  0.2040816E-01 -0.2330951E-05  0.0000000E+00  0.6609246E-03
  0.1448980E+01  0.0000000E+00  0.2040816E-01 -0.2129957E-05  0.0000000E+00  0.6513515E-03
  0.1489796E+01  0.0000000E+00  0.2040816E-01 -0.1936195E-05  0.0000000E+00  0.6426256E-03
  0.1530612E+01  0.0000000E+00  0.2040816E-01 -0.1749887E-05  0.0000000E+00  0.6347153E-03
  0.1571429E+01  0.0000000E+00  0.2040816E-01 -0.1570952E-05  0.0000000E+00  0.6275889E-03
  0.1612245E+01  0.0000000E+00  0.2040816E-01 -0.1399077E-05  0.0000000E+00  0.6212154E-03
  0.1653061E+01  0.0000000E+00  0.2040816E-01 -0.1233781E-05  0.0000000E+00  0.6155654E-03
  0.1693878E+01  0.0000000E+00  0.2040816E-01 -0.1074471E-05  0.0000000E+00  0.6106120E-03
  0.1734694E+01  0.0000000E+00  0.2040816E-01 -0.9204806E-06  0.0000000E+00  0.6063310E-03
  0.1775510E+01  0.0000000E+00  0.2040816E-01 -0.7711076E-06  0.0000000E+00  0.6027010E-03
  0.1816326E+01  0.0000000E+00  0.2040816E-01 -0.6256311E-06  0.0000000E+00  0.5997037E-03
  0.1857143E+01  0.0000000E+00  0.2040816E-01 -0.4833287E-06  0.0000000E+00  0.5973239E-03
  0.1897959E+01  0.0000000E+00  0.2040816E-01 -0.3434833E-06  0.0000000E+00  0.5955497E-03
  0.1938776E+01  0.0000000E+00  0.2040816E-01 -0.2053853E-06  0.0000000E+00  0.5943719E-03
  0.1989796E+01  0.0000000E+00  0.2040816E-01 -0.6833035E-07  0.0000000E+00  0.5937845E-03
  0.2040816E-01  0.0000000E+00  0.6122449E-01  0.1178015E-06  0.0000000E+00  0.1031464E-02
  0.6122449E-01  0.0000000E+00  0.6122449E-01  0.3279759E-06  0.0000000E+00  0.1031765E-02
  0.1020408E+00  0.0000000E+00  0.6122449E-01  0.4642956E-06  0.0000000E+00  0.1032304E-02
  0.1428571E+00  0.0000000E+00  0.6122449E-01  0.4820971E-06  0.0000000E+00  0.1032954E-02
  0.1836735E+00  0.0000000E+00  0.6122449E-01  0.3430948E-06  0.0000000E+00  0.1033537E-02
  0.2244898E+00  0.0000000E+00  0.6122449E-01  0.1799336E-07  0.0000000E+00  0.1033829E-02
  0.2653061E+00  0.0000000E+00  0.6122449E-01 -0.5114187E-06  0.0000000E+00  0.1033576E-02
  0.3061225E+00  0.0000000E+00  0.6122449E-01 -0.1250651E-05  0.0000000E+00  0.1032507E-02
  0.3469388E+00  0.0000000E+00  0.6122449E-01 -0.2191566E-05  0.0000000E+00  0.1030356E-02
  0.3877551E+00  0.0000000E+00  0.6122449E-01 -0.3312509E-05  0.0000000E+00  0.1026871E-02
  0.4285714E+00  0.0000000E+00  0.6122449E-01 -0.4579397E-05  0.0000000E+00  0.1021841E-02
  0.4693878E+00  0.0000000E+00  0.6122449E-01 -0.5947952E-05  0.0000000E+00  0.1015104E-02
  0.5102041E+00  0.0000000E+00  0.6122449E-01 -0.7366921E-05  0.0000000E+00  0.1006561E-02
  0.5510204E+00  0.0000000E+00  0.6122449E-01 -0.8781918E-05  0.0000000E+00  0.9961814E-03
  0.5918368E+00  0.0000000E+00  0.6122449E-01 -0.1013949E-04  0.0000000E+00  0.9840056E-03
  0.6326531E+00  0.0000000E+00  0.6122449E-01 -0.1139092E-04  0.0000000E+00  0.9701409E-03
  0.6734694E+00  0.0000000E+00  0.6122449E-01 -0.1249532E-04  0.0000000E+00  0.9547523E-03
  0.7142857E+00  0.0000000E+00  0.6122449E-01 -0.1342176E-04  0.0000000E+00  0.9380519E-03
  0.7551020E+00  0.0000000E+00  0.6122449E-01 -0.1415029E-04  0.0000000E+00  0.9202845E-03
  0.7959183E+00  0.0000000E+00  0.6122449E-01 -0.1467182E-04  0.0000000E+00  0.9017132E-03
  0.8367347E+00  0.0000000E+00  0.6122449E-01 -0.1498727E-04  0.0000000E+00  0.8826062E-03
  0.8775510E+00  0.0000000E+00  0.6122449E-01 -0.1510592E-04  0.0000000E+00  0.8632245E-03
  0.9183673E+00  0.0000000E+00  0.6122449E-01 -0.1504352E-04  0.0000000E+00  0.8438124E-03
  0.9591837E+00  0.0000000E+00  0.6122449E-01 -0.1482033E-04  0.0000000E+00  0.8245906E-03
  0.1000000E+01  0.0000000E+00  0.6122449E-01 -0.1445919E-04  0.0000000E+00  0.8057513E-03
  0.1040816E+01  0.0000000E+00  0.6122449E-01 -0.1398393E-04  0.0000000E+00  0.7874566E-03
  0.1081633E+01  0.0000000E+00  0.6122449E-01 -0.1341797E-04  0.0000000E+00  0.7698377E-03
  0.1122449E+01  0.0000000E+00  0.6122449E-01 -0.1278340E-04  0.0000000E+00  0.7529964E-03
  0.1163265E+01  0.0000000E+00  0.6122449E-01 -0.1210029E-04  0.0000000E+00  0.7370071E-03
  0.1204082E+01  0.0000000E+00  0.6122449E-01 -0.1138623E-04  0.0000000E+00  0.7219201E-03
  0.1244898E+01  0.0000000E+00  0.6122449E-01 -0.1065622E-04  0.0000000E+00  0.7077647E-03
  0.1285714E+01  0.0000000E+00  0.6122449E-01 -0.9922587E-05  0.0000000E+00  0.6945526E-03
  0.1326531E+01  0.0000000E+00  0.6122449E-01 -0.9195143E-05  0.0000000E+00  0.6822813E-03
  0.1367347E+01  0.0000000E+00  0.6122449E-01 -0.8481342E-05  0.0000000E+00  0.6709375E-03
  0.1408163E+01  0.0000000E+00  0.6122449E-01 -0.7786534E-05  0.0000000E+00  0.6604995E-03
  0.1448980E+01  0.0000000E+00  0.6122449E-01 -0.7114232E-05  0.0000000E+00  0.6509402E-03
  0.1489796E+01  0.0000000E+00  0.6122449E-01 -0.6466392E-05  0.0000000E+00  0.6422289E-03
  0.1530612E+01  0.0000000E+00  0.6122449E-01 -0.5843696E-05  0.0000000E+00  0.6343334E-03
  0.1571429E+01  0.0000000E+00  0.6122449E-01 -0.5245817E-05  0.0000000E+00  0.6272214E-03
  0.1612245E+01  0.0000000E+00  0.6122449E-01 -0.4671660E-05  0.0000000E+00  0.6208614E-03
  0.1653061E+01  0.0000000E+00  0.6122449E-01 -0.4119581E-05  0.0000000E+00  0.6152240E-03
  0.1693878E+01  0.0000000E+00  0.6122449E-01 -0.3587563E-05  0.0000000E+00  0.6102819E-03
  0.1734694E+01  0.0000000E+00  0.6122449E-01 -0.3073359E-05  0.0000000E+00  0.6060108E-03
  0.1775510E+01  0.0000000E+00  0.6122449E-01 -0.2574600E-05  0.0000000E+00  0.6023893E-03
  0.1816326E+01  0.0000000E+00  0.6122449E-01 -0.2088869E-05  0.0000000E+00  0.5993990E-03
  0.1857143E+01  0.0000000E+00  0.6122449E-01 -0.1613744E-05  0.0000000E+00  0.5970249E-03
  0.1897959E+01  0.0000000E+00  0.6122449E-01 -0.1146828E-05  0.0000000E+00  0.5952548E-03
  0.1938776E+01  0.0000000E+00  0.6122449E-01 -0.6857484E-06  0.0000000E+00  0.5940798E-03
  0.1989796E+01  0.0000000E+00  0.6122449E-01 -0.2281557E-06  0.0000000E+00  0.5934937E-03
  0.2040816E-01  0.0000000E+00  0.1020408E+00  0.2275036E-06  0.0000000E+00  0.1031094E-02
  0.6122449E-01  0.0000000E+00  0.1020408E+00  0.6368432E-06  0.0000000E+00  0.1031465E-02
  0.1020408E+00  0.0000000E+00  0.1020408E+00  0.9128342E-06  0.0000000E+00  0.1032139E-02
  0.1428571E+00  0.0000000E+00  0.1020408E+00  0.9746839E-06  0.0000000E+00  0.1032984E-02
  0.1836735E+00  0.0000000E+00  0.1020408E+00  0.7529883E-06  0.0000000E+00  0.1033808E-02
  0.2244898E+00  0.0000000E+00  0.1020408E+00  0.1944226E-06  0.0000000E+00  0.1034376E-02
  0.2653061E+00  0.0000000E+00  0.1020408E+00 -0.7343805E-06  0.0000000E+00  0.1034414E-02
  0.3061225E+00  0.0000000E+00  0.1020408E+00 -0.2043868E-05  0.0000000E+00  0.1033636E-02
  0.3469388E+00  0.0000000E+00  0.1020408E+00 -0.3719666E-05  0.0000000E+00  0.1031754E-02
  0.3877551E+00  0.0000000E+00  0.1020408E+00 -0.5722676E-05  0.0000000E+00  0.1028499E-02
  0.4285714E+00  0.0000000E+00  0.1020408E+00 -0.7991043E-05  0.0000000E+00  0.1023644E-02
  0.4693878E+00  0.0000000E+00  0.1020408E+00 -0.1044418E-04  0.0000000E+00  0.1017014E-02
  0.5102041E+00  0.0000000E+00  0.1020408E+00 -0.1298867E-04  0.0000000E+00  0.1008503E-02
  0.5510204E+00  0.0000000E+00  0.1020408E+00 -0.1552542E-04  0.0000000E+00  0.9980794E-03
  0.5918368E+00  0.0000000E+00  0.1020408E+00 -0.1795719E-04  0.0000000E+00  0.9857878E-03
  0.6326531E+00  0.0000000E+00  0.1020408E+00 -0.2019561E-04  0.0000000E+00  0.9717439E-03
  0.6734694E+00  0.0000000E+00  0.1020408E+00 -0.2216694E-04  0.0000000E+00  0.9561257E-03
  0.7142857E+00  0.0000000E+00  0.1020408E+00 -0.2381587E-04  0.0000000E+00  0.9391598E-03
  0.7551020E+00  0.0000000E+00  0.1020408E+00 -0.2510724E-04  0.0000000E+00  0.9211066E-03
  0.7959183E+00  0.0000000E+00  0.1020408E+00 -0.2602582E-04  0.0000000E+00  0.9022439E-03
  0.8367347E+00  0.0000000E+00  0.1020408E+00 -0.2657444E-04  0.0000000E+00  0.8828528E-03
  0.8775510E+00  0.0000000E+00  0.1020408E+00 -0.2677100E-04  0.0000000E+00  0.8632048E-03
  0.9183673E+00  0.0000000E+00  0.1020408E+00 -0.2664486E-04  0.0000000E+00  0.8435519E-03
  0.9591837E+00  0.0000000E+00  0.1020408E+00 -0.2623322E-04  0.0000000E+00  0.8241196E-03
  0.1000000E+01  0.0000000E+00  0.1020408E+00 -0.2557767E-04  0.0000000E+00  0.8051029E-03
  0.1040816E+01  0.0000000E+00  0.1020408E+00 -0.2472123E-04  0.0000000E+00  0.7866640E-03
  0.1081633E+01  0.0000000E+00  0.1020408E+00 -0.2370601E-04  0.0000000E+00  0.7689330E-03
  0.1122449E+01  0.0000000E+00  0.1020408E+00 -0.2257148E-04  0.0000000E+00  0.7520092E-03
  0.1163265E+01  0.0000000E+00  0.1020408E+00 -0.2135333E-04  0.0000000E+00  0.7359639E-03
  0.1204082E+01  0.0000000E+00  0.1020408E+00 -0.2008273E-04  0.0000000E+00  0.7208438E-03
  0.1244898E+01  0.0000000E+00  0.1020408E+00 -0.1878611E-04  0.0000000E+00  0.7066744E-03
  0.1285714E+01  0.0000000E+00  0.1020408E+00 -0.1748513E-04  0.0000000E+00  0.6934639E-03
  0.1326531E+01  0.0000000E+00  0.1020408E+00 -0.1619694E-04  0.0000000E+00  0.6812063E-03
  0.1367347E+01  0.0000000E+00  0.1020408E+00 -0.1493448E-04  0.0000000E+00  0.6698852E-03
  0.1408163E+01  0.0000000E+00  0.1020408E+00 -0.1370696E-04  0.0000000E+00  0.6594761E-03
  0.1448980E+01  0.0000000E+00  0.1020408E+00 -0.1252035E-04  0.0000000E+00  0.6499495E-03
  0.1489796E+01  0.0000000E+00  0.1020408E+00 -0.1137788E-04  0.0000000E+00  0.6412729E-03
  0.1530612E+01  0.0000000E+00  0.1020408E+00 -0.1028054E-04  0.0000000E+00  0.6334122E-03
  0.1571429E+01  0.0000000E+00  0.1020408E+00 -0.9227556E-05  0.0000000E+00  0.6263341E-03
  0.1612245E+01  0.0000000E+00  0.1020408E+00 -0.8216828E-05  0.0000000E+00  0.6200061E-03
  0.1653061E+01  0.0000000E+00  0.1020408E+00 -0.7245313E-05  0.0000000E+00  0.6143980E-03
  0.1693878E+01  0.0000000E+00  0.1020408E+00 -0.6309345E-05  0.0000000E+00  0.6094824E-03
  0.1734694E+01  0.0000000E+00  0.1020408E+00 -0.5404878E-05  0.0000000E+00  0.6052344E-03
  0.1775510E+01  0.0000000E+00  0.1020408E+00 -0.4527677E-05  0.0000000E+00  0.6016328E-03
  0.1816326E+01  0.0000000E+00  0.1020408E+00 -0.3673443E-05  0.0000000E+00  0.5986590E-03
  0.1857143E+01  0.0000000E+00  0.1020408E+00 -0.2837891E-05  0.0000000E+00  0.5962980E-03
  0.1897959E+01  0.0000000E+00  0.1020408E+00 -0.2016786E-05  0.0000000E+00  0.5945377E-03
  0.1938776E+01  0.0000000E+00  0.1020408E+00 -0.1205954E-05  0.0000000E+00  0.5933691E-03
  0.1989796E+01  0.0000000E+00  0.1020408E+00 -0.4012581E-06  0.0000000E+00  0.5927863E-03
  0.2040816E-01  0.0000000E+00  0.1428571E+00  0.3616668E-06  0.0000000E+00  0.1030440E-02
  0.6122449E-01  0.0000000E+00  0.1428571E+00  0.1019346E-05  0.0000000E+00  0.1030920E-02
  0.1020408E+00  0.0000000E+00  0.1428571E+00  0.1484526E-05  0.0000000E+00  0.1031806E-02
  0.1428571E+00  0.0000000E+00  0.1428571E+00  0.1640194E-05  0.0000000E+00  0.1032954E-02
  0.1836735E+00  0.0000000E+00  0.1428571E+00  0.1385461E-05  0.0000000E+00  0.1034158E-02
  0.2244898E+00  0.0000000E+00  0.1428571E+00  0.6422828E-06  0.0000000E+00  0.1035157E-02
  0.2653061E+00  0.0000000E+00  0.1428571E+00 -0.6387484E-06  0.0000000E+00  0.1035655E-02
  0.3061225E+00  0.0000000E+00  0.1428571E+00 -0.2473885E-05  0.0000000E+00  0.1035334E-02
  0.3469388E+00  0.0000000E+00  0.1428571E+00 -0.4843192E-05  0.0000000E+00  0.1033875E-02
  0.3877551E+00  0.0000000E+00  0.1428571E+00 -0.7690265E-05  0.0000000E+00  0.1030983E-02
  0.4285714E+00  0.0000000E+00  0.1428571E+00 -0.1092502E-04  0.0000000E+00  0.1026403E-02
  0.4693878E+00  0.0000000E+00  0.1428571E+00 -0.1442952E-04  0.0000000E+00  0.1019941E-02
  0.5102041E+00  0.0000000E+00  0.1428571E+00 -0.1806675E-04  0.0000000E+00  0.1011480E-02
  0.5510204E+00  0.0000000E+00  0.1428571E+00 -0.2169140E-04  0.0000000E+00  0.1000987E-02
  0.5918368E+00  0.0000000E+00  0.1428571E+00 -0.2516122E-04  0.0000000E+00  0.9885115E-03
  0.6326531E+00  0.0000000E+00  0.1428571E+00 -0.2834764E-04  0.0000000E+00  0.9741846E-03
  0.6734694E+00  0.0000000E+00  0.1428571E+00 -0.3114424E-04  0.0000000E+00  0.9582047E-03
  0.7142857E+00  0.0000000E+00  0.1428571E+00 -0.3347237E-04  0.0000000E+00  0.9408224E-03
  0.7551020E+00  0.0000000E+00  0.1428571E+00 -0.3528337E-04  0.0000000E+00  0.9223225E-03
  0.7959183E+00  0.0000000E+00  0.1428571E+00 -0.3655793E-04  0.0000000E+00  0.9030062E-03
  0.8367347E+00  0.0000000E+00  0.1428571E+00 -0.3730293E-04  0.0000000E+00  0.8831748E-03
  0.8775510E+00  0.0000000E+00  0.1428571E+00 -0.3754682E-04  0.0000000E+00  0.8631159E-03
  0.9183673E+00  0.0000000E+00  0.1428571E+00 -0.3733413E-04  0.0000000E+00  0.8430932E-03
  0.9591837E+00  0.0000000E+00  0.1428571E+00 -0.3672002E-04  0.0000000E+00  0.8233395E-03
  0.1000000E+01  0.0000000E+00  0.1428571E+00 -0.3576527E-04  0.0000000E+00  0.8040531E-03
  0.1040816E+01  0.0000000E+00  0.1428571E+00 -0.3453207E-04  0.0000000E+00  0.7853964E-03
  0.1081633E+01  0.0000000E+00  0.1428571E+00 -0.3308073E-04  0.0000000E+00  0.7674972E-03
  0.1122449E+01  0.0000000E+00  0.1428571E+00 -0.3146732E-04  0.0000000E+00  0.7504508E-03
  0.1163265E+01  0.0000000E+00  0.1428571E+00 -0.2974212E-04  0.0000000E+00  0.7343234E-03
  0.1204082E+01  0.0000000E+00  0.1428571E+00 -0.2794879E-04  0.0000000E+00  0.7191560E-03
  0.1244898E+01  0.0000000E+00  0.1428571E+00 -0.2612408E-04  0.0000000E+00  0.7049684E-03
  0.1285714E+01  0.0000000E+00  0.1428571E+00 -0.2429789E-04  0.0000000E+00  0.6917630E-03
  0.1326531E+01  0.0000000E+00  0.1428571E+00 -0.2249369E-04  0.0000000E+00  0.6795287E-03
  0.1367347E+01  0.0000000E+00  0.1428571E+00 -0.2072904E-04  0.0000000E+00  0.6682442E-03
  0.1408163E+01  0.0000000E+00  0.1428571E+00 -0.1901626E-04  0.0000000E+00  0.6578808E-03
  0.1448980E+01  0.0000000E+00  0.1428571E+00 -0.1736313E-04  0.0000000E+00  0.6484053E-03
  0.1489796E+01  0.0000000E+00  0.1428571E+00 -0.1577364E-04  0.0000000E+00  0.6397823E-03
  0.1530612E+01  0.0000000E+00  0.1428571E+00 -0.1424868E-04  0.0000000E+00  0.6319754E-03
  0.1571429E+01  0.0000000E+00  0.1428571E+00 -0.1278674E-04  0.0000000E+00  0.6249492E-03
  0.1612245E+01  0.0000000E+00  0.1428571E+00 -0.1138452E-04  0.0000000E+00  0.6186701E-03
  0.1653061E+01  0.0000000E+00  0.1428571E+00 -0.1003746E-04  0.0000000E+00  0.6131068E-03
  0.1693878E+01  0.0000000E+00  0.1428571E+00 -0.8740212E-05  0.0000000E+00  0.6082313E-03
  0.1734694E+01  0.0000000E+00  0.1428571E+00 -0.7486968E-05  0.0000000E+00  0.6040186E-03
  0.1775510E+01  0.0000000E+00  0.1428571E+00 -0.6271709E-05  0.0000000E+00  0.6004470E-03
  0.1816326E+01  0.0000000E+00  0.1428571E+00 -0.5088379E-05  0.0000000E+00  0.5974981E-03
  0.1857143E+01  0.0000000E+00  0.1428571E+00 -0.3930980E-05  0.0000000E+00  0.5951569E-03
  0.1897959E+01  0.0000000E+00  0.1428571E+00 -0.2793614E-05  0.0000000E+00  0.5934113E-03
  0.1938776E+01  0.0000000E+00  0.1428571E+00 -0.1670484E-05  0.0000000E+00  0.5922525E-03
  0.1989796E+01  0.0000000E+00  0.1428571E+00 -0.5558498E-06  0.0000000E+00  0.5916746E-03
  0.2040816E-01  0.0000000E+00  0.1836735E+00  0.5346786E-06  0.0000000E+00  0.1029418E-02
  0.6122449E-01  0.0000000E+00  0.1836735E+00  0.1517654E-05  0.0000000E+00  0.1030047E-02
  0.1020408E+00  0.0000000E+00  0.1836735E+00  0.2246591E-05  0.0000000E+00  0.1031223E-02
  0.1428571E+00  0.0000000E+00  0.1836735E+00  0.2566371E-05  0.0000000E+00  0.1032788E-02
  0.1836735E+00  0.0000000E+00  0.1836735E+00  0.2342493E-05  0.0000000E+00  0.1034512E-02
  0.2244898E+00  0.0000000E+00  0.1836735E+00  0.1469884E-05  0.0000000E+00  0.1036105E-02
  0.2653061E+00  0.0000000E+00  0.1836735E+00 -0.1191343E-06  0.0000000E+00  0.1037236E-02
  0.3061225E+00  0.0000000E+00  0.1836735E+00 -0.2448294E-05  0.0000000E+00  0.1037547E-02
  0.3469388E+00  0.0000000E+00  0.1836735E+00 -0.5492919E-05  0.0000000E+00  0.1036676E-02
  0.3877551E+00  0.0000000E+00  0.1836735E+00 -0.9178753E-05  0.0000000E+00  0.1034286E-02
  0.4285714E+00  0.0000000E+00  0.1836735E+00 -0.1338537E-04  0.0000000E+00  0.1030087E-02
  0.4693878E+00  0.0000000E+00  0.1836735E+00 -0.1795400E-04  0.0000000E+00  0.1023858E-02
  0.5102041E+00  0.0000000E+00  0.1836735E+00 -0.2269954E-04  0.0000000E+00  0.1015465E-02
  0.5510204E+00  0.0000000E+00  0.1836735E+00 -0.2742566E-04  0.0000000E+00  0.1004872E-02
  0.5918368E+00  0.0000000E+00  0.1836735E+00 -0.3194088E-04  0.0000000E+00  0.9921396E-03
  0.6326531E+00  0.0000000E+00  0.1836735E+00 -0.3607337E-04  0.0000000E+00  0.9774194E-03
  0.6734694E+00  0.0000000E+00  0.1836735E+00 -0.3968262E-04  0.0000000E+00  0.9609394E-03
  0.7142857E+00  0.0000000E+00  0.1836735E+00 -0.4266694E-04  0.0000000E+00  0.9429842E-03
  0.7551020E+00  0.0000000E+00  0.1836735E+00 -0.4496596E-04  0.0000000E+00  0.9238733E-03
  0.7959183E+00  0.0000000E+00  0.1836735E+00 -0.4655906E-04  0.0000000E+00  0.9039404E-03
  0.8367347E+00  0.0000000E+00  0.1836735E+00 -0.4746053E-04  0.0000000E+00  0.8835142E-03
  0.8775510E+00  0.0000000E+00  0.1836735E+00 -0.4771265E-04  0.0000000E+00  0.8629040E-03
  0.9183673E+00  0.0000000E+00  0.1836735E+00 -0.4737803E-04  0.0000000E+00  0.8423886E-03
  0.9591837E+00  0.0000000E+00  0.1836735E+00 -0.4653211E-04  0.0000000E+00  0.8222098E-03
  0.1000000E+01  0.0000000E+00  0.1836735E+00 -0.4525642E-04  0.0000000E+00  0.8025695E-03
  0.1040816E+01  0.0000000E+00  0.1836735E+00 -0.4363317E-04  0.0000000E+00  0.7836298E-03
  0.1081633E+01  0.0000000E+00  0.1836735E+00 -0.4174108E-04  0.0000000E+00  0.7655143E-03
  0.1122449E+01  0.0000000E+00  0.1836735E+00 -0.3965250E-04  0.0000000E+00  0.7483126E-03
  0.1163265E+01  0.0000000E+00  0.1836735E+00 -0.3743169E-04  0.0000000E+00  0.7320836E-03
  0.1204082E+01  0.0000000E+00  0.1836735E+00 -0.3513387E-04  0.0000000E+00  0.7168603E-03
  0.1244898E+01  0.0000000E+00  0.1836735E+00 -0.3280511E-04  0.0000000E+00  0.7026547E-03
  0.1285714E+01  0.0000000E+00  0.1836735E+00 -0.3048252E-04  0.0000000E+00  0.6894615E-03
  0.1326531E+01  0.0000000E+00  0.1836735E+00 -0.2819490E-04  0.0000000E+00  0.6772626E-03
  0.1367347E+01  0.0000000E+00  0.1836735E+00 -0.2596349E-04  0.0000000E+00  0.6660303E-03
  0.1408163E+01  0.0000000E+00  0.1836735E+00 -0.2380289E-04  0.0000000E+00  0.6557303E-03
  0.1448980E+01  0.0000000E+00  0.1836735E+00 -0.2172197E-04  0.0000000E+00  0.6463249E-03
  0.1489796E+01  0.0000000E+00  0.1836735E+00 -0.1972484E-04  0.0000000E+00  0.6377744E-03
  0.1530612E+01  0.0000000E+00  0.1836735E+00 -0.1781179E-04  0.0000000E+00  0.6300397E-03
  0.1571429E+01  0.0000000E+00  0.1836735E+00 -0.1598013E-04  0.0000000E+00  0.6230828E-03
  0.1612245E+01  0.0000000E+00  0.1836735E+00 -0.1422506E-04  0.0000000E+00  0.6168685E-03
  0.1653061E+01  0.0000000E+00  0.1836735E+00 -0.1254031E-04  0.0000000E+00  0.6113643E-03
  0.1693878E+01  0.0000000E+00  0.1836735E+00 -0.1091871E-04  0.0000000E+00  0.6065416E-03
  0.1734694E+01  0.0000000E+00  0.1836735E+00 -0.9352660E-05  0.0000000E+00  0.6023749E-03
  0.1775510E+01  0.0000000E+00  0.1836735E+00 -0.7834388E-05  0.0000000E+00  0.5988426E-03
  0.1816326E+01  0.0000000E+00  0.1836735E+00 -0.6356165E-05  0.0000000E+00  0.5959262E-03
  0.1857143E+01  0.0000000E+00  0.1836735E+00 -0.4910400E-05  0.0000000E+00  0.5936107E-03
  0.1897959E+01  0.0000000E+00  0.1836735E+00 -0.3489676E-05  0.0000000E+00  0.5918843E-03
  0.1938776E+01  0.0000000E+00  0.1836735E+00 -0.2086728E-05  0.0000000E+00  0.5907382E-03
  0.1989796E+01  0.0000000E+00  0.1836735E+00 -0.6943800E-06  0.0000000E+00  0.5901666E-03
  0.2040816E-01  0.0000000E+00  0.2244898E+00  0.7604678E-06  0.0000000E+00  0.1027917E-02
  0.6122449E-01  0.0000000E+00  0.2244898E+00  0.2172781E-05  0.0000000E+00  0.1028737E-02
  0.1020408E+00  0.0000000E+00  0.2244898E+00  0.3264832E-05  0.0000000E+00  0.1030287E-02
  0.1428571E+00  0.0000000E+00  0.2244898E+00  0.3839908E-05  0.0000000E+00  0.1032389E-02
  0.1836735E+00  0.0000000E+00  0.2244898E+00  0.3726074E-05  0.0000000E+00  0.1034785E-02
  0.2244898E+00  0.0000000E+00  0.2244898E+00  0.2787236E-05  0.0000000E+00  0.1037150E-02
  0.2653061E+00  0.0000000E+00  0.2244898E+00  0.9336686E-06  0.0000000E+00  0.1039105E-02
  0.3061225E+00  0.0000000E+00  0.2244898E+00 -0.1868686E-05  0.0000000E+00  0.1040239E-02
  0.3469388E+00  0.0000000E+00  0.2244898E+00 -0.5591631E-05  0.0000000E+00  0.1040137E-02
  0.3877551E+00  0.0000000E+00  0.2244898E+00 -0.1014207E-04  0.0000000E+00  0.1038405E-02
  0.4285714E+00  0.0000000E+00  0.2244898E+00 -0.1536556E-04  0.0000000E+00  0.1034706E-02
  0.4693878E+00  0.0000000E+00  0.2244898E+00 -0.2105634E-04  0.0000000E+00  0.1028781E-02
  0.5102041E+00  0.0000000E+00  0.2244898E+00 -0.2697340E-04  0.0000000E+00  0.1020475E-02
  0.5510204E+00  0.0000000E+00  0.2244898E+00 -0.3286098E-04  0.0000000E+00  0.1009748E-02
  0.5918368E+00  0.0000000E+00  0.2244898E+00 -0.3847074E-04  0.0000000E+00  0.9966743E-03
  0.6326531E+00  0.0000000E+00  0.2244898E+00 -0.4358193E-04  0.0000000E+00  0.9814365E-03
  0.6734694E+00  0.0000000E+00  0.2244898E+00 -0.4801705E-04  0.0000000E+00  0.9643029E-03
  0.7142857E+00  0.0000000E+00  0.2244898E+00 -0.5165115E-04  0.0000000E+00  0.9456042E-03
  0.7551020E+00  0.0000000E+00  0.2244898E+00 -0.5441441E-04  0.0000000E+00  0.9257065E-03
  0.7959183E+00  0.0000000E+00  0.2244898E+00 -0.5628886E-04  0.0000000E+00  0.9049858E-03
  0.8367347E+00  0.0000000E+00  0.2244898E+00 -0.5730095E-04  0.0000000E+00  0.8838063E-03
  0.8775510E+00  0.0000000E+00  0.2244898E+00 -0.5751173E-04  0.0000000E+00  0.8625040E-03
  0.9183673E+00  0.0000000E+00  0.2244898E+00 -0.5700629E-04  0.0000000E+00  0.8413760E-03
  0.9591837E+00  0.0000000E+00  0.2244898E+00 -0.5588385E-04  0.0000000E+00  0.8206740E-03
  0.1000000E+01  0.0000000E+00  0.2244898E+00 -0.5424931E-04  0.0000000E+00  0.8006031E-03
  0.1040816E+01  0.0000000E+00  0.2244898E+00 -0.5220646E-04  0.0000000E+00  0.7813230E-03
  0.1081633E+01  0.0000000E+00  0.2244898E+00 -0.4985315E-04  0.0000000E+00  0.7629518E-03
  0.1122449E+01  0.0000000E+00  0.2244898E+00 -0.4727806E-04  0.0000000E+00  0.7455702E-03
  0.1163265E+01  0.0000000E+00  0.2244898E+00 -0.4455894E-04  0.0000000E+00  0.7292274E-03
  0.1204082E+01  0.0000000E+00  0.2244898E+00 -0.4176180E-04  0.0000000E+00  0.7139462E-03
  0.1244898E+01  0.0000000E+00  0.2244898E+00 -0.3894104E-04  0.0000000E+00  0.6997284E-03
  0.1285714E+01  0.0000000E+00  0.2244898E+00 -0.3613993E-04  0.0000000E+00  0.6865591E-03
  0.1326531E+01  0.0000000E+00  0.2244898E+00 -0.3339157E-04  0.0000000E+00  0.6744114E-03
  0.1367347E+01  0.0000000E+00  0.2244898E+00 -0.3071989E-04  0.0000000E+00  0.6632496E-03
  0.1408163E+01  0.0000000E+00  0.2244898E+00 -0.2814083E-04  0.0000000E+00  0.6530328E-03
  0.1448980E+01  0.0000000E+00  0.2244898E+00 -0.2566354E-04  0.0000000E+00  0.6437174E-03
  0.1489796E+01  0.0000000E+00  0.2244898E+00 -0.2329153E-04  0.0000000E+00  0.6352591E-03
  0.1530612E+01  0.0000000E+00  0.2244898E+00 -0.2102382E-04  0.0000000E+00  0.6276150E-03
  0.1571429E+01  0.0000000E+00  0.2244898E+00 -0.1885607E-04  0.0000000E+00  0.6207445E-03
  0.1612245E+01  0.0000000E+00  0.2244898E+00 -0.1678153E-04  0.0000000E+00  0.6146102E-03
  0.1653061E+01  0.0000000E+00  0.2244898E+00 -0.1479191E-04  0.0000000E+00  0.6091788E-03
  0.1693878E+01  0.0000000E+00  0.2244898E+00 -0.1287807E-04  0.0000000E+00  0.6044205E-03
  0.1734694E+01  0.0000000E+00  0.2244898E+00 -0.1103051E-04  0.0000000E+00  0.6003100E-03
  0.1775510E+01  0.0000000E+00  0.2244898E+00 -0.9239710E-05  0.0000000E+00  0.5968252E-03
  0.1816326E+01  0.0000000E+00  0.2244898E+00 -0.7496319E-05  0.0000000E+00  0.5939481E-03
  0.1857143E+01  0.0000000E+00  0.2244898E+00 -0.5791258E-05  0.0000000E+00  0.5916637E-03
  0.1897959E+01  0.0000000E+00  0.2244898E+00 -0.4115720E-05  0.0000000E+00  0.5899605E-03
  0.1938776E+01  0.0000000E+00  0.2244898E+00 -0.2461117E-05  0.0000000E+00  0.5888297E-03
  0.1989796E+01  0.0000000E+00  0.2244898E+00 -0.8189853E-06  0.0000000E+00  0.5882657E-03
  0.2040816E-01  0.0000000E+00  0.2653061E+00  0.1053271E-05  0.0000000E+00  0.1025799E-02
  0.6122449E-01  0.0000000E+00  0.2653061E+00  0.3026855E-05  0.0000000E+00  0.1026857E-02
  0.1020408E+00  0.0000000E+00  0.2653061E+00  0.4607458E-05  0.0000000E+00  0.1028871E-02
  0.1428571E+00  0.0000000E+00  0.2653061E+00  0.5551863E-05  0.0000000E+00  0.1031642E-02
  0.1836735E+00  0.0000000E+00  0.2653061E+00  0.5645201E-05  0.0000000E+00  0.1034881E-02
  0.2244898E+00  0.0000000E+00  0.2653061E+00  0.4714465E-05  0.0000000E+00  0.1038215E-02
  0.2653061E+00  0.0000000E+00  0.2653061E+00  0.2642187E-05  0.0000000E+00  0.1041210E-02
  0.3061225E+00  0.0000000E+00  0.2653061E+00 -0.6205846E-06  0.0000000E+00  0.1043390E-02
  0.3469388E+00  0.0000000E+00  0.2653061E+00 -0.5044276E-05  0.0000000E+00  0.1044266E-02
  0.3877551E+00  0.0000000E+00  0.2653061E+00 -0.1051583E-04  0.0000000E+00  0.1043376E-02
  0.4285714E+00  0.0000000E+00  0.2653061E+00 -0.1684154E-04  0.0000000E+00  0.1040315E-02
  0.4693878E+00  0.0000000E+00  0.2653061E+00 -0.2375955E-04  0.0000000E+00  0.1034776E-02
  0.5102041E+00  0.0000000E+00  0.2653061E+00 -0.3096099E-04  0.0000000E+00  0.1026576E-02
  0.5510204E+00  0.0000000E+00  0.2653061E+00 -0.3811786E-04  0.0000000E+00  0.1015670E-02
  0.5918368E+00  0.0000000E+00  0.2653061E+00 -0.4491328E-04  0.0000000E+00  0.1002155E-02
  0.6326531E+00  0.0000000E+00  0.2653061E+00 -0.5106901E-04  0.0000000E+00  0.9862529E-03
  0.6734694E+00  0.0000000E+00  0.2653061E+00 -0.5636606E-04  0.0000000E+00  0.9682875E-03
  0.7142857E+00  0.0000000E+00  0.2653061E+00 -0.6065600E-04  0.0000000E+00  0.9486513E-03
  0.7551020E+00  0.0000000E+00  0.2653061E+00 -0.6386285E-04  0.0000000E+00  0.9277710E-03
  0.7959183E+00  0.0000000E+00  0.2653061E+00 -0.6597701E-04  0.0000000E+00  0.9060767E-03
  0.8367347E+00  0.0000000E+00  0.2653061E+00 -0.6704390E-04  0.0000000E+00  0.8839763E-03
  0.8775510E+00  0.0000000E+00  0.2653061E+00 -0.6715015E-04  0.0000000E+00  0.8618378E-03
  0.9183673E+00  0.0000000E+00  0.2653061E+00 -0.6640938E-04  0.0000000E+00  0.8399784E-03
  0.9591837E+00  0.0000000E+00  0.2653061E+00 -0.6494948E-04  0.0000000E+00  0.8186598E-03
  0.1000000E+01  0.0000000E+00  0.2653061E+00 -0.6290212E-04  0.0000000E+00  0.7980886E-03
  0.1040816E+01  0.0000000E+00  0.2653061E+00 -0.6039487E-04  0.0000000E+00  0.7784198E-03
  0.1081633E+01  0.0000000E+00  0.2653061E+00 -0.5754572E-04  0.0000000E+00  0.7597623E-03
  0.1122449E+01  0.0000000E+00  0.2653061E+00 -0.5445987E-04  0.0000000E+00  0.7421853E-03
  0.1163265E+01  0.0000000E+00  0.2653061E+00 -0.5122807E-04  0.0000000E+00  0.7257251E-03
  0.1204082E+01  0.0000000E+00  0.2653061E+00 -0.4792630E-04  0.0000000E+00  0.7103917E-03
  0.1244898E+01  0.0000000E+00  0.2653061E+00 -0.4461621E-04  0.0000000E+00  0.6961742E-03
  0.1285714E+01  0.0000000E+00  0.2653061E+00 -0.4134610E-04  0.0000000E+00  0.6830460E-03
  0.1326531E+01  0.0000000E+00  0.2653061E+00 -0.3815221E-04  0.0000000E+00  0.6709697E-03