title = "dataset feddes"
variables = "x", "y", "z", "vx", "vy", "vz"
zone t = "velocities, solution time =  8.000E+00 days        " i =   49, j =   49, k =    1,  f=point
  0.2040816E-01  0.0000000E+00  0.2040816E-01 -0.6640449E-10  0.0000000E+00  0.7242113E-02
  0.6122449E-01  0.0000000E+00  0.2040816E-01 -0.5082917E-10  0.0000000E+00  0.7242112E-02
  0.1020408E+00  0.0000000E+00  0.2040816E-01 -0.2889914E-10  0.0000000E+00  0.7242112E-02
  0.1428571E+00  0.0000000E+00  0.2040816E-01 -0.1571882E-10  0.0000000E+00  0.7242112E-02
  0.1836735E+00  0.0000000E+00  0.2040816E-01 -0.9717987E-11  0.0000000E+00  0.7242112E-02
  0.2244898E+00  0.0000000E+00  0.2040816E-01 -0.1102024E-10  0.0000000E+00  0.7242112E-02
  0.2653061E+00  0.0000000E+00  0.2040816E-01 -0.1021315E-10  0.0000000E+00  0.7242112E-02
  0.3061225E+00  0.0000000E+00  0.2040816E-01 -0.7424047E-11  0.0000000E+00  0.7242112E-02
  0.3469388E+00  0.0000000E+00  0.2040816E-01 -0.5614996E-11  0.0000000E+00  0.7242112E-02
  0.3877551E+00  0.0000000E+00  0.2040816E-01 -0.6631818E-11  0.0000000E+00  0.7242112E-02
  0.4285714E+00  0.0000000E+00  0.2040816E-01 -0.5715941E-11  0.0000000E+00  0.7242112E-02
  0.4693878E+00  0.0000000E+00  0.2040816E-01 -0.7054172E-11  0.0000000E+00  0.7242112E-02
  0.5102041E+00  0.0000000E+00  0.2040816E-01 -0.7571069E-11  0.0000000E+00  0.7242112E-02
  0.5510204E+00  0.0000000E+00  0.2040816E-01 -0.6449508E-11  0.0000000E+00  0.7242112E-02
  0.5918368E+00  0.0000000E+00  0.2040816E-01 -0.3983691E-11  0.0000000E+00  0.7242112E-02
  0.6326531E+00  0.0000000E+00  0.2040816E-01 -0.4961292E-11  0.0000000E+00  0.7242112E-02
  0.6734694E+00  0.0000000E+00  0.2040816E-01 -0.5032897E-11  0.0000000E+00  0.7242112E-02
  0.7142857E+00  0.0000000E+00  0.2040816E-01 -0.5999592E-11  0.0000000E+00  0.7242112E-02
  0.7551020E+00  0.0000000E+00  0.2040816E-01 -0.1970951E-11  0.0000000E+00  0.7242112E-02
  0.7959183E+00  0.0000000E+00  0.2040816E-01 -0.2820874E-11  0.0000000E+00  0.7242112E-02
  0.8367347E+00  0.0000000E+00  0.2040816E-01 -0.6334060E-11  0.0000000E+00  0.7242112E-02
  0.8775510E+00  0.0000000E+00  0.2040816E-01 -0.7232985E-11  0.0000000E+00  0.7242112E-02
  0.9183673E+00  0.0000000E+00  0.2040816E-01 -0.5806672E-11  0.0000000E+00  0.7242112E-02
  0.9591837E+00  0.0000000E+00  0.2040816E-01 -0.5499331E-11  0.0000000E+00  0.7242112E-02
  0.1000000E+01  0.0000000E+00  0.2040816E-01 -0.5658247E-11  0.0000000E+00  0.7242112E-02
  0.1040816E+01  0.0000000E+00  0.2040816E-01 -0.5230203E-11  0.0000000E+00  0.7242111E-02
  0.1081633E+01  0.0000000E+00  0.2040816E-01 -0.7882262E-11  0.0000000E+00  0.7242111E-02
  0.1122449E+01  0.0000000E+00  0.2040816E-01 -0.6911122E-11  0.0000000E+00  0.7242111E-02
  0.1163265E+01  0.0000000E+00  0.2040816E-01 -0.4859201E-11  0.0000000E+00  0.7242111E-02
  0.1204082E+01  0.0000000E+00  0.2040816E-01 -0.5151190E-11  0.0000000E+00  0.7242111E-02
  0.1244898E+01  0.0000000E+00  0.2040816E-01 -0.8791619E-11  0.0000000E+00  0.7242111E-02
  0.1285714E+01  0.0000000E+00  0.2040816E-01 -0.6109369E-11  0.0000000E+00  0.7242111E-02
  0.1326531E+01  0.0000000E+00  0.2040816E-01 -0.2284337E-11  0.0000000E+00  0.7242111E-02
  0.1367347E+01  0.0000000E+00  0.2040816E-01 -0.5406921E-11  0.0000000E+00  0.7242111E-02
  0.1408163E+01  0.0000000E+00  0.2040816E-01 -0.9020144E-11  0.0000000E+00  0.7242111E-02
  0.1448980E+01  0.0000000E+00  0.2040816E-01 -0.1155988E-10  0.0000000E+00  0.7242111E-02
  0.1489796E+01  0.0000000E+00  0.2040816E-01 -0.7619793E-11  0.0000000E+00  0.7242111E-02
  0.1530612E+01  0.0000000E+00  0.2040816E-01 -0.9408533E-11  0.0000000E+00  0.7242111E-02
  0.1571429E+01  0.0000000E+00  0.2040816E-01 -0.1004720E-10  0.0000000E+00  0.7242111E-02
  0.1612245E+01  0.0000000E+00  0.2040816E-01 -0.9009020E-11  0.0000000E+00  0.7242111E-02
  0.1653061E+01  0.0000000E+00  0.2040816E-01 -0.7612818E-11  0.0000000E+00  0.7242111E-02
  0.1693878E+01  0.0000000E+00  0.2040816E-01 -0.6404123E-11  0.0000000E+00  0.7242111E-02
  0.1734694E+01  0.0000000E+00  0.2040816E-01 -0.9790224E-11  0.0000000E+00  0.7242111E-02
  0.1775510E+01  0.0000000E+00  0.2040816E-01 -0.1441195E-10  0.0000000E+00  0.7242111E-02
  0.1816326E+01  0.0000000E+00  0.2040816E-01 -0.1573663E-10  0.0000000E+00  0.7242111E-02
  0.1857143E+01  0.0000000E+00  0.2040816E-01 -0.1840052E-10  0.0000000E+00  0.7242111E-02
  0.1897959E+01  0.0000000E+00  0.2040816E-01 -0.2374894E-10  0.0000000E+00  0.7242111E-02
  0.1938776E+01  0.0000000E+00  0.2040816E-01 -0.4011064E-10  0.0000000E+00  0.7242111E-02
  0.1989796E+01  0.0000000E+00  0.2040816E-01 -0.7208836E-10  0.0000000E+00  0.7242110E-02
  0.2040816E-01  0.0000000E+00  0.6122449E-01 -0.1867485E-09  0.0000000E+00  0.7241936E-02
  0.6122449E-01  0.0000000E+00  0.6122449E-01 -0.1594409E-09  0.0000000E+00  0.7241936E-02
  0.1020408E+00  0.0000000E+00  0.6122449E-01 -0.8696253E-10  0.0000000E+00  0.7241936E-02
  0.1428571E+00  0.0000000E+00  0.6122449E-01 -0.5138565E-10  0.0000000E+00  0.7241935E-02
  0.1836735E+00  0.0000000E+00  0.6122449E-01 -0.3362123E-10  0.0000000E+00  0.7241935E-02
  0.2244898E+00  0.0000000E+00  0.6122449E-01 -0.3463998E-10  0.0000000E+00  0.7241935E-02
  0.2653061E+00  0.0000000E+00  0.6122449E-01 -0.3141093E-10  0.0000000E+00  0.7241935E-02
  0.3061225E+00  0.0000000E+00  0.6122449E-01 -0.2531712E-10  0.0000000E+00  0.7241935E-02
  0.3469388E+00  0.0000000E+00  0.6122449E-01 -0.2055743E-10  0.0000000E+00  0.7241935E-02
  0.3877551E+00  0.0000000E+00  0.6122449E-01 -0.2180592E-10  0.0000000E+00  0.7241935E-02
  0.4285714E+00  0.0000000E+00  0.6122449E-01 -0.1960827E-10  0.0000000E+00  0.7241935E-02
  0.4693878E+00  0.0000000E+00  0.6122449E-01 -0.2191752E-10  0.0000000E+00  0.7241935E-02
  0.5102041E+00  0.0000000E+00  0.6122449E-01 -0.2396913E-10  0.0000000E+00  0.7241935E-02
  0.5510204E+00  0.0000000E+00  0.6122449E-01 -0.2054233E-10  0.0000000E+00  0.7241935E-02
  0.5918368E+00  0.0000000E+00  0.6122449E-01 -0.1328718E-10  0.0000000E+00  0.7241935E-02
  0.6326531E+00  0.0000000E+00  0.6122449E-01 -0.1835573E-10  0.0000000E+00  0.7241935E-02
  0.6734694E+00  0.0000000E+00  0.6122449E-01 -0.1556997E-10  0.0000000E+00  0.7241935E-02
  0.7142857E+00  0.0000000E+00  0.6122449E-01 -0.1702856E-10  0.0000000E+00  0.7241935E-02
  0.7551020E+00  0.0000000E+00  0.6122449E-01 -0.9352887E-11  0.0000000E+00  0.7241935E-02
  0.7959183E+00  0.0000000E+00  0.6122449E-01 -0.1175937E-10  0.0000000E+00  0.7241935E-02
  0.8367347E+00  0.0000000E+00  0.6122449E-01 -0.1954508E-10  0.0000000E+00  0.7241935E-02
  0.8775510E+00  0.0000000E+00  0.6122449E-01 -0.2324895E-10  0.0000000E+00  0.7241935E-02
  0.9183673E+00  0.0000000E+00  0.6122449E-01 -0.2059010E-10  0.0000000E+00  0.7241935E-02
  0.9591837E+00  0.0000000E+00  0.6122449E-01 -0.1792528E-10  0.0000000E+00  0.7241935E-02
  0.1000000E+01  0.0000000E+00  0.6122449E-01 -0.1692078E-10  0.0000000E+00  0.7241935E-02
  0.1040816E+01  0.0000000E+00  0.6122449E-01 -0.2096216E-10  0.0000000E+00  0.7241935E-02
  0.1081633E+01  0.0000000E+00  0.6122449E-01 -0.2335177E-10  0.0000000E+00  0.7241935E-02
  0.1122449E+01  0.0000000E+00  0.6122449E-01 -0.2208949E-10  0.0000000E+00  0.7241935E-02
  0.1163265E+01  0.0000000E+00  0.6122449E-01 -0.1810060E-10  0.0000000E+00  0.7241935E-02
  0.1204082E+01  0.0000000E+00  0.6122449E-01 -0.1728535E-10  0.0000000E+00  0.7241935E-02
  0.1244898E+01  0.0000000E+00  0.6122449E-01 -0.2605190E-10  0.0000000E+00  0.7241935E-02
  0.1285714E+01  0.0000000E+00  0.6122449E-01 -0.1989144E-10  0.0000000E+00  0.7241935E-02
  0.1326531E+01  0.0000000E+00  0.6122449E-01 -0.1102143E-10  0.0000000E+00  0.7241935E-02
  0.1367347E+01  0.0000000E+00  0.6122449E-01 -0.1915294E-10  0.0000000E+00  0.7241935E-02
  0.1408163E+01  0.0000000E+00  0.6122449E-01 -0.3005058E-10  0.0000000E+00  0.7241935E-02
  0.1448980E+01  0.0000000E+00  0.6122449E-01 -0.3371147E-10  0.0000000E+00  0.7241935E-02
  0.1489796E+01  0.0000000E+00  0.6122449E-01 -0.2811047E-10  0.0000000E+00  0.7241935E-02
  0.1530612E+01  0.0000000E+00  0.6122449E-01 -0.3166104E-10  0.0000000E+00  0.7241935E-02
  0.1571429E+01  0.0000000E+00  0.6122449E-01 -0.3267403E-10  0.0000000E+00  0.7241934E-02
  0.1612245E+01  0.0000000E+00  0.6122449E-01 -0.2945388E-10  0.0000000E+00  0.7241934E-02
  0.1653061E+01  0.0000000E+00  0.6122449E-01 -0.2530344E-10  0.0000000E+00  0.7241934E-02
  0.1693878E+01  0.0000000E+00  0.6122449E-01 -0.2348548E-10  0.0000000E+00  0.7241934E-02
  0.1734694E+01  0.0000000E+00  0.6122449E-01 -0.3239705E-10  0.0000000E+00  0.7241934E-02
  0.1775510E+01  0.0000000E+00  0.6122449E-01 -0.4344101E-10  0.0000000E+00  0.7241934E-02
  0.1816326E+01  0.0000000E+00  0.6122449E-01 -0.5033107E-10  0.0000000E+00  0.7241934E-02
  0.1857143E+01  0.0000000E+00  0.6122449E-01 -0.5911320E-10  0.0000000E+00  0.7241934E-02
  0.1897959E+01  0.0000000E+00  0.6122449E-01 -0.7585172E-10  0.0000000E+00  0.7241934E-02
  0.1938776E+01  0.0000000E+00  0.6122449E-01 -0.1175139E-09  0.0000000E+00  0.7241934E-02
  0.1989796E+01  0.0000000E+00  0.6122449E-01 -0.1967409E-09  0.0000000E+00  0.7241934E-02
  0.2040816E-01  0.0000000E+00  0.1020408E+00 -0.2650057E-09  0.0000000E+00  0.7241228E-02
  0.6122449E-01  0.0000000E+00  0.1020408E+00 -0.2468083E-09  0.0000000E+00  0.7241227E-02
  0.1020408E+00  0.0000000E+00  0.1020408E+00 -0.1323821E-09  0.0000000E+00  0.7241227E-02
  0.1428571E+00  0.0000000E+00  0.1020408E+00 -0.8467496E-10  0.0000000E+00  0.7241227E-02
  0.1836735E+00  0.0000000E+00  0.1020408E+00 -0.5842772E-10  0.0000000E+00  0.7241227E-02
  0.2244898E+00  0.0000000E+00  0.1020408E+00 -0.5682423E-10  0.0000000E+00  0.7241227E-02
  0.2653061E+00  0.0000000E+00  0.1020408E+00 -0.5102495E-10  0.0000000E+00  0.7241227E-02
  0.3061225E+00  0.0000000E+00  0.1020408E+00 -0.4490570E-10  0.0000000E+00  0.7241227E-02
  0.3469388E+00  0.0000000E+00  0.1020408E+00 -0.3852723E-10  0.0000000E+00  0.7241227E-02
  0.3877551E+00  0.0000000E+00  0.1020408E+00 -0.3736588E-10  0.0000000E+00  0.7241227E-02
  0.4285714E+00  0.0000000E+00  0.1020408E+00 -0.3472088E-10  0.0000000E+00  0.7241227E-02
  0.4693878E+00  0.0000000E+00  0.1020408E+00 -0.3598774E-10  0.0000000E+00  0.7241227E-02
  0.5102041E+00  0.0000000E+00  0.1020408E+00 -0.3780394E-10  0.0000000E+00  0.7241227E-02
  0.5510204E+00  0.0000000E+00  0.1020408E+00 -0.3510346E-10  0.0000000E+00  0.7241227E-02
  0.5918368E+00  0.0000000E+00  0.1020408E+00 -0.2304569E-10  0.0000000E+00  0.7241227E-02
  0.6326531E+00  0.0000000E+00  0.1020408E+00 -0.3278062E-10  0.0000000E+00  0.7241227E-02
  0.6734694E+00  0.0000000E+00  0.1020408E+00 -0.2820973E-10  0.0000000E+00  0.7241227E-02
  0.7142857E+00  0.0000000E+00  0.1020408E+00 -0.2450562E-10  0.0000000E+00  0.7241227E-02
  0.7551020E+00  0.0000000E+00  0.1020408E+00 -0.1966188E-10  0.0000000E+00  0.7241227E-02
  0.7959183E+00  0.0000000E+00  0.1020408E+00 -0.2506631E-10  0.0000000E+00  0.7241227E-02
  0.8367347E+00  0.0000000E+00  0.1020408E+00 -0.3282887E-10  0.0000000E+00  0.7241227E-02
  0.8775510E+00  0.0000000E+00  0.1020408E+00 -0.3876679E-10  0.0000000E+00  0.7241227E-02
  0.9183673E+00  0.0000000E+00  0.1020408E+00 -0.3754390E-10  0.0000000E+00  0.7241227E-02
  0.9591837E+00  0.0000000E+00  0.1020408E+00 -0.3055068E-10  0.0000000E+00  0.7241227E-02
  0.1000000E+01  0.0000000E+00  0.1020408E+00 -0.2858554E-10  0.0000000E+00  0.7241227E-02
  0.1040816E+01  0.0000000E+00  0.1020408E+00 -0.3754709E-10  0.0000000E+00  0.7241227E-02
  0.1081633E+01  0.0000000E+00  0.1020408E+00 -0.3956602E-10  0.0000000E+00  0.7241227E-02
  0.1122449E+01  0.0000000E+00  0.1020408E+00 -0.3616412E-10  0.0000000E+00  0.7241227E-02
  0.1163265E+01  0.0000000E+00  0.1020408E+00 -0.3363458E-10  0.0000000E+00  0.7241227E-02
  0.1204082E+01  0.0000000E+00  0.1020408E+00 -0.3010156E-10  0.0000000E+00  0.7241227E-02
  0.1244898E+01  0.0000000E+00  0.1020408E+00 -0.4247031E-10  0.0000000E+00  0.7241227E-02
  0.1285714E+01  0.0000000E+00  0.1020408E+00 -0.3301858E-10  0.0000000E+00  0.7241227E-02
  0.1326531E+01  0.0000000E+00  0.1020408E+00 -0.2419387E-10  0.0000000E+00  0.7241227E-02
  0.1367347E+01  0.0000000E+00  0.1020408E+00 -0.3591984E-10  0.0000000E+00  0.7241227E-02
  0.1408163E+01  0.0000000E+00  0.1020408E+00 -0.5043028E-10  0.0000000E+00  0.7241227E-02
  0.1448980E+01  0.0000000E+00  0.1020408E+00 -0.5466371E-10  0.0000000E+00  0.7241226E-02
  0.1489796E+01  0.0000000E+00  0.1020408E+00 -0.5223200E-10  0.0000000E+00  0.7241226E-02
  0.1530612E+01  0.0000000E+00  0.1020408E+00 -0.5550594E-10  0.0000000E+00  0.7241226E-02
  0.1571429E+01  0.0000000E+00  0.1020408E+00 -0.5567826E-10  0.0000000E+00  0.7241226E-02
  0.1612245E+01  0.0000000E+00  0.1020408E+00 -0.5038961E-10  0.0000000E+00  0.7241226E-02
  0.1653061E+01  0.0000000E+00  0.1020408E+00 -0.4382924E-10  0.0000000E+00  0.7241226E-02
  0.1693878E+01  0.0000000E+00  0.1020408E+00 -0.4397337E-10  0.0000000E+00  0.7241226E-02
  0.1734694E+01  0.0000000E+00  0.1020408E+00 -0.5545203E-10  0.0000000E+00  0.7241226E-02
  0.1775510E+01  0.0000000E+00  0.1020408E+00 -0.6609924E-10  0.0000000E+00  0.7241226E-02
  0.1816326E+01  0.0000000E+00  0.1020408E+00 -0.8318735E-10  0.0000000E+00  0.7241226E-02
  0.1857143E+01  0.0000000E+00  0.1020408E+00 -0.9612075E-10  0.0000000E+00  0.7241226E-02
  0.1897959E+01  0.0000000E+00  0.1020408E+00 -0.1211882E-09  0.0000000E+00  0.7241226E-02
  0.1938776E+01  0.0000000E+00  0.1020408E+00 -0.1688154E-09  0.0000000E+00  0.7241226E-02
  0.1989796E+01  0.0000000E+00  0.1020408E+00 -0.2613930E-09  0.0000000E+00  0.7241226E-02
  0.2040816E-01  0.0000000E+00  0.1428571E+00 -0.2945374E-09  0.0000000E+00  0.7239688E-02
  0.6122449E-01  0.0000000E+00  0.1428571E+00 -0.2899531E-09  0.0000000E+00  0.7239688E-02
  0.1020408E+00  0.0000000E+00  0.1428571E+00 -0.1557722E-09  0.0000000E+00  0.7239688E-02
  0.1428571E+00  0.0000000E+00  0.1428571E+00 -0.1051070E-09  0.0000000E+00  0.7239688E-02
  0.1836735E+00  0.0000000E+00  0.1428571E+00 -0.7542185E-10  0.0000000E+00  0.7239688E-02
  0.2244898E+00  0.0000000E+00  0.1428571E+00 -0.7324960E-10  0.0000000E+00  0.7239688E-02
  0.2653061E+00  0.0000000E+00  0.1428571E+00 -0.6679866E-10  0.0000000E+00  0.7239688E-02
  0.3061225E+00  0.0000000E+00  0.1428571E+00 -0.6139608E-10  0.0000000E+00  0.7239688E-02
  0.3469388E+00  0.0000000E+00  0.1428571E+00 -0.5378344E-10  0.0000000E+00  0.7239688E-02
  0.3877551E+00  0.0000000E+00  0.1428571E+00 -0.4994381E-10  0.0000000E+00  0.7239688E-02
  0.4285714E+00  0.0000000E+00  0.1428571E+00 -0.4753567E-10  0.0000000E+00  0.7239687E-02
  0.4693878E+00  0.0000000E+00  0.1428571E+00 -0.4719557E-10  0.0000000E+00  0.7239687E-02
  0.5102041E+00  0.0000000E+00  0.1428571E+00 -0.4400148E-10  0.0000000E+00  0.7239687E-02
  0.5510204E+00  0.0000000E+00  0.1428571E+00 -0.4841561E-10  0.0000000E+00  0.7239687E-02
  0.5918368E+00  0.0000000E+00  0.1428571E+00 -0.3167524E-10  0.0000000E+00  0.7239687E-02
  0.6326531E+00  0.0000000E+00  0.1428571E+00 -0.4252489E-10  0.0000000E+00  0.7239687E-02
  0.6734694E+00  0.0000000E+00  0.1428571E+00 -0.4099845E-10  0.0000000E+00  0.7239687E-02
  0.7142857E+00  0.0000000E+00  0.1428571E+00 -0.3037379E-10  0.0000000E+00  0.7239687E-02
  0.7551020E+00  0.0000000E+00  0.1428571E+00 -0.2828350E-10  0.0000000E+00  0.7239687E-02
  0.7959183E+00  0.0000000E+00  0.1428571E+00 -0.3866592E-10  0.0000000E+00  0.7239687E-02
  0.8367347E+00  0.0000000E+00  0.1428571E+00 -0.4572257E-10  0.0000000E+00  0.7239687E-02
  0.8775510E+00  0.0000000E+00  0.1428571E+00 -0.5077980E-10  0.0000000E+00  0.7239687E-02
  0.9183673E+00  0.0000000E+00  0.1428571E+00 -0.5165634E-10  0.0000000E+00  0.7239687E-02
  0.9591837E+00  0.0000000E+00  0.1428571E+00 -0.4142974E-10  0.0000000E+00  0.7239687E-02
  0.1000000E+01  0.0000000E+00  0.1428571E+00 -0.3976382E-10  0.0000000E+00  0.7239687E-02
  0.1040816E+01  0.0000000E+00  0.1428571E+00 -0.4862573E-10  0.0000000E+00  0.7239687E-02
  0.1081633E+01  0.0000000E+00  0.1428571E+00 -0.5427593E-10  0.0000000E+00  0.7239687E-02
  0.1122449E+01  0.0000000E+00  0.1428571E+00 -0.4703747E-10  0.0000000E+00  0.7239687E-02
  0.1163265E+01  0.0000000E+00  0.1428571E+00 -0.4620645E-10  0.0000000E+00  0.7239687E-02
  0.1204082E+01  0.0000000E+00  0.1428571E+00 -0.4189095E-10  0.0000000E+00  0.7239687E-02
  0.1244898E+01  0.0000000E+00  0.1428571E+00 -0.5589993E-10  0.0000000E+00  0.7239687E-02
  0.1285714E+01  0.0000000E+00  0.1428571E+00 -0.4374507E-10  0.0000000E+00  0.7239687E-02
  0.1326531E+01  0.0000000E+00  0.1428571E+00 -0.3649364E-10  0.0000000E+00  0.7239687E-02
  0.1367347E+01  0.0000000E+00  0.1428571E+00 -0.5168084E-10  0.0000000E+00  0.7239687E-02
  0.1408163E+01  0.0000000E+00  0.1428571E+00 -0.6639193E-10  0.0000000E+00  0.7239687E-02
  0.1448980E+01  0.0000000E+00  0.1428571E+00 -0.7357014E-10  0.0000000E+00  0.7239687E-02
  0.1489796E+01  0.0000000E+00  0.1428571E+00 -0.7257741E-10  0.0000000E+00  0.7239687E-02
  0.1530612E+01  0.0000000E+00  0.1428571E+00 -0.7547938E-10  0.0000000E+00  0.7239687E-02
  0.1571429E+01  0.0000000E+00  0.1428571E+00 -0.7476344E-10  0.0000000E+00  0.7239687E-02
  0.1612245E+01  0.0000000E+00  0.1428571E+00 -0.6765022E-10  0.0000000E+00  0.7239687E-02
  0.1653061E+01  0.0000000E+00  0.1428571E+00 -0.5936232E-10  0.0000000E+00  0.7239687E-02
  0.1693878E+01  0.0000000E+00  0.1428571E+00 -0.6204987E-10  0.0000000E+00  0.7239687E-02
  0.1734694E+01  0.0000000E+00  0.1428571E+00 -0.6811604E-10  0.0000000E+00  0.7239687E-02
  0.1775510E+01  0.0000000E+00  0.1428571E+00 -0.8223989E-10  0.0000000E+00  0.7239687E-02
  0.1816326E+01  0.0000000E+00  0.1428571E+00 -0.1053662E-09  0.0000000E+00  0.7239687E-02
  0.1857143E+01  0.0000000E+00  0.1428571E+00 -0.1179578E-09  0.0000000E+00  0.7239687E-02
  0.1897959E+01  0.0000000E+00  0.1428571E+00 -0.1453523E-09  0.0000000E+00  0.7239687E-02
  0.1938776E+01  0.0000000E+00  0.1428571E+00 -0.1886188E-09  0.0000000E+00  0.7239686E-02
  0.1989796E+01  0.0000000E+00  0.1428571E+00 -0.2654666E-09  0.0000000E+00  0.7239686E-02
  0.2040816E-01  0.0000000E+00  0.1836735E+00 -0.2984159E-09  0.0000000E+00  0.7237018E-02
  0.6122449E-01  0.0000000E+00  0.1836735E+00 -0.3077214E-09  0.0000000E+00  0.7237018E-02
  0.1020408E+00  0.0000000E+00  0.1836735E+00 -0.1636846E-09  0.0000000E+00  0.7237018E-02
  0.1428571E+00  0.0000000E+00  0.1836735E+00 -0.1146109E-09  0.0000000E+00  0.7237018E-02
  0.1836735E+00  0.0000000E+00  0.1836735E+00 -0.8507766E-10  0.0000000E+00  0.7237018E-02
  0.2244898E+00  0.0000000E+00  0.1836735E+00 -0.8417575E-10  0.0000000E+00  0.7237018E-02
  0.2653061E+00  0.0000000E+00  0.1836735E+00 -0.7894356E-10  0.0000000E+00  0.7237018E-02
  0.3061225E+00  0.0000000E+00  0.1836735E+00 -0.7434249E-10  0.0000000E+00  0.7237018E-02
  0.3469388E+00  0.0000000E+00  0.1836735E+00 -0.6532613E-10  0.0000000E+00  0.7237018E-02
  0.3877551E+00  0.0000000E+00  0.1836735E+00 -0.5961055E-10  0.0000000E+00  0.7237017E-02
  0.4285714E+00  0.0000000E+00  0.1836735E+00 -0.5880597E-10  0.0000000E+00  0.7237017E-02
  0.4693878E+00  0.0000000E+00  0.1836735E+00 -0.5143267E-10  0.0000000E+00  0.7237017E-02
  0.5102041E+00  0.0000000E+00  0.1836735E+00 -0.4943671E-10  0.0000000E+00  0.7237017E-02
  0.5510204E+00  0.0000000E+00  0.1836735E+00 -0.5885831E-10  0.0000000E+00  0.7237017E-02
  0.5918368E+00  0.0000000E+00  0.1836735E+00 -0.4032517E-10  0.0000000E+00  0.7237017E-02
  0.6326531E+00  0.0000000E+00  0.1836735E+00 -0.4626569E-10  0.0000000E+00  0.7237017E-02
  0.6734694E+00  0.0000000E+00  0.1836735E+00 -0.5161894E-10  0.0000000E+00  0.7237017E-02
  0.7142857E+00  0.0000000E+00  0.1836735E+00 -0.3788752E-10  0.0000000E+00  0.7237017E-02
  0.7551020E+00  0.0000000E+00  0.1836735E+00 -0.3519109E-10  0.0000000E+00  0.7237017E-02
  0.7959183E+00  0.0000000E+00  0.1836735E+00 -0.4990141E-10  0.0000000E+00  0.7237017E-02
  0.8367347E+00  0.0000000E+00  0.1836735E+00 -0.5802795E-10  0.0000000E+00  0.7237017E-02
  0.8775510E+00  0.0000000E+00  0.1836735E+00 -0.6060609E-10  0.0000000E+00  0.7237017E-02
  0.9183673E+00  0.0000000E+00  0.1836735E+00 -0.6180506E-10  0.0000000E+00  0.7237017E-02
  0.9591837E+00  0.0000000E+00  0.1836735E+00 -0.5086515E-10  0.0000000E+00  0.7237017E-02
  0.1000000E+01  0.0000000E+00  0.1836735E+00 -0.4969090E-10  0.0000000E+00  0.7237017E-02
  0.1040816E+01  0.0000000E+00  0.1836735E+00 -0.5761756E-10  0.0000000E+00  0.7237017E-02
  0.1081633E+01  0.0000000E+00  0.1836735E+00 -0.6445677E-10  0.0000000E+00  0.7237017E-02
  0.1122449E+01  0.0000000E+00  0.1836735E+00 -0.5586280E-10  0.0000000E+00  0.7237017E-02
  0.1163265E+01  0.0000000E+00  0.1836735E+00 -0.5523445E-10  0.0000000E+00  0.7237017E-02
  0.1204082E+01  0.0000000E+00  0.1836735E+00 -0.5535185E-10  0.0000000E+00  0.7237017E-02
  0.1244898E+01  0.0000000E+00  0.1836735E+00 -0.6432745E-10  0.0000000E+00  0.7237017E-02
  0.1285714E+01  0.0000000E+00  0.1836735E+00 -0.5330886E-10  0.0000000E+00  0.7237017E-02
  0.1326531E+01  0.0000000E+00  0.1836735E+00 -0.4713708E-10  0.0000000E+00  0.7237017E-02
  0.1367347E+01  0.0000000E+00  0.1836735E+00 -0.6490991E-10  0.0000000E+00  0.7237017E-02
  0.1408163E+01  0.0000000E+00  0.1836735E+00 -0.8027927E-10  0.0000000E+00  0.7237017E-02
  0.1448980E+01  0.0000000E+00  0.1836735E+00 -0.8880099E-10  0.0000000E+00  0.7237017E-02
  0.1489796E+01  0.0000000E+00  0.1836735E+00 -0.8867965E-10  0.0000000E+00  0.7237017E-02
  0.1530612E+01  0.0000000E+00  0.1836735E+00 -0.9132653E-10  0.0000000E+00  0.7237017E-02
  0.1571429E+01  0.0000000E+00  0.1836735E+00 -0.9031382E-10  0.0000000E+00  0.7237017E-02
  0.1612245E+01  0.0000000E+00  0.1836735E+00 -0.8173188E-10  0.0000000E+00  0.7237017E-02
  0.1653061E+01  0.0000000E+00  0.1836735E+00 -0.7210335E-10  0.0000000E+00  0.7237017E-02
  0.1693878E+01  0.0000000E+00  0.1836735E+00 -0.7229372E-10  0.0000000E+00  0.7237017E-02
  0.1734694E+01  0.0000000E+00  0.1836735E+00 -0.7510198E-10  0.0000000E+00  0.7237017E-02
  0.1775510E+01  0.0000000E+00  0.1836735E+00 -0.9444645E-10  0.0000000E+00  0.7237017E-02
  0.1816326E+01  0.0000000E+00  0.1836735E+00 -0.1167052E-09  0.0000000E+00  0.7237017E-02
  0.1857143E+01  0.0000000E+00  0.1836735E+00 -0.1266218E-09  0.0000000E+00  0.7237017E-02
  0.1897959E+01  0.0000000E+00  0.1836735E+00 -0.1528225E-09  0.0000000E+00  0.7237017E-02
  0.1938776E+01  0.0000000E+00  0.1836735E+00 -0.1927121E-09  0.0000000E+00  0.7237017E-02
  0.1989796E+01  0.0000000E+00  0.1836735E+00 -0.2451773E-09  0.0000000E+00  0.7237017E-02
  0.2040816E-01  0.0000000E+00  0.2244898E+00 -0.2921042E-09  0.0000000E+00  0.7232910E-02
  0.6122449E-01  0.0000000E+00  0.2244898E+00 -0.3105072E-09  0.0000000E+00  0.7232910E-02
  0.1020408E+00  0.0000000E+00  0.2244898E+00 -0.1612129E-09  0.0000000E+00  0.7232910E-02
  0.1428571E+00  0.0000000E+00  0.2244898E+00 -0.1160486E-09  0.0000000E+00  0.7232910E-02
  0.1836735E+00  0.0000000E+00  0.2244898E+00 -0.8917037E-10  0.0000000E+00  0.7232910E-02
  0.2244898E+00  0.0000000E+00  0.2244898E+00 -0.8992128E-10  0.0000000E+00  0.7232910E-02
  0.2653061E+00  0.0000000E+00  0.2244898E+00 -0.8655666E-10  0.0000000E+00  0.7232910E-02
  0.3061225E+00  0.0000000E+00  0.2244898E+00 -0.8345352E-10  0.0000000E+00  0.7232910E-02
  0.3469388E+00  0.0000000E+00  0.2244898E+00 -0.7424791E-10  0.0000000E+00  0.7232910E-02
  0.3877551E+00  0.0000000E+00  0.2244898E+00 -0.6712647E-10  0.0000000E+00  0.7232910E-02
  0.4285714E+00  0.0000000E+00  0.2244898E+00 -0.6382108E-10  0.0000000E+00  0.7232910E-02
  0.4693878E+00  0.0000000E+00  0.2244898E+00 -0.5373747E-10  0.0000000E+00  0.7232910E-02
  0.5102041E+00  0.0000000E+00  0.2244898E+00 -0.5617979E-10  0.0000000E+00  0.7232910E-02
  0.5510204E+00  0.0000000E+00  0.2244898E+00 -0.6472622E-10  0.0000000E+00  0.7232910E-02
  0.5918368E+00  0.0000000E+00  0.2244898E+00 -0.4807759E-10  0.0000000E+00  0.7232910E-02
  0.6326531E+00  0.0000000E+00  0.2244898E+00 -0.4758343E-10  0.0000000E+00  0.7232910E-02
  0.6734694E+00  0.0000000E+00  0.2244898E+00 -0.5887888E-10  0.0000000E+00  0.7232910E-02
  0.7142857E+00  0.0000000E+00  0.2244898E+00 -0.4577054E-10  0.0000000E+00  0.7232910E-02
  0.7551020E+00  0.0000000E+00  0.2244898E+00 -0.4132159E-10  0.0000000E+00  0.7232910E-02
  0.7959183E+00  0.0000000E+00  0.2244898E+00 -0.5781721E-10  0.0000000E+00  0.7232910E-02
  0.8367347E+00  0.0000000E+00  0.2244898E+00 -0.6813339E-10  0.0000000E+00  0.7232910E-02
  0.8775510E+00  0.0000000E+00  0.2244898E+00 -0.6952058E-10  0.0000000E+00  0.7232910E-02
  0.9183673E+00  0.0000000E+00  0.2244898E+00 -0.6865868E-10  0.0000000E+00  0.7232910E-02
  0.9591837E+00  0.0000000E+00  0.2244898E+00 -0.5794914E-10  0.0000000E+00  0.7232910E-02
  0.1000000E+01  0.0000000E+00  0.2244898E+00 -0.5842178E-10  0.0000000E+00  0.7232910E-02
  0.1040816E+01  0.0000000E+00  0.2244898E+00 -0.6485877E-10  0.0000000E+00  0.7232910E-02
  0.1081633E+01  0.0000000E+00  0.2244898E+00 -0.7131857E-10  0.0000000E+00  0.7232910E-02
  0.1122449E+01  0.0000000E+00  0.2244898E+00 -0.6249989E-10  0.0000000E+00  0.7232910E-02
  0.1163265E+01  0.0000000E+00  0.2244898E+00 -0.6235797E-10  0.0000000E+00  0.7232910E-02
  0.1204082E+01  0.0000000E+00  0.2244898E+00 -0.6742771E-10  0.0000000E+00  0.7232910E-02
  0.1244898E+01  0.0000000E+00  0.2244898E+00 -0.7021885E-10  0.0000000E+00  0.7232910E-02
  0.1285714E+01  0.0000000E+00  0.2244898E+00 -0.6100420E-10  0.0000000E+00  0.7232910E-02
  0.1326531E+01  0.0000000E+00  0.2244898E+00 -0.5647489E-10  0.0000000E+00  0.7232910E-02
  0.1367347E+01  0.0000000E+00  0.2244898E+00 -0.7539617E-10  0.0000000E+00  0.7232910E-02
  0.1408163E+01  0.0000000E+00  0.2244898E+00 -0.9137899E-10  0.0000000E+00  0.7232910E-02
  0.1448980E+01  0.0000000E+00  0.2244898E+00 -0.1004562E-09  0.0000000E+00  0.7232910E-02
  0.1489796E+01  0.0000000E+00  0.2244898E+00 -0.1008656E-09  0.0000000E+00  0.7232910E-02
  0.1530612E+01  0.0000000E+00  0.2244898E+00 -0.1029663E-09  0.0000000E+00  0.7232910E-02
  0.1571429E+01  0.0000000E+00  0.2244898E+00 -0.1018586E-09  0.0000000E+00  0.7232910E-02
  0.1612245E+01  0.0000000E+00  0.2244898E+00 -0.9278110E-10  0.0000000E+00  0.7232909E-02
  0.1653061E+01  0.0000000E+00  0.2244898E+00 -0.8152836E-10  0.0000000E+00  0.7232909E-02
  0.1693878E+01  0.0000000E+00  0.2244898E+00 -0.7541682E-10  0.0000000E+00  0.7232909E-02
  0.1734694E+01  0.0000000E+00  0.2244898E+00 -0.8173570E-10  0.0000000E+00  0.7232909E-02
  0.1775510E+01  0.0000000E+00  0.2244898E+00 -0.9989574E-10  0.0000000E+00  0.7232909E-02
  0.1816326E+01  0.0000000E+00  0.2244898E+00 -0.1196628E-09  0.0000000E+00  0.7232909E-02
  0.1857143E+01  0.0000000E+00  0.2244898E+00 -0.1260012E-09  0.0000000E+00  0.7232909E-02
  0.1897959E+01  0.0000000E+00  0.2244898E+00 -0.1491130E-09  0.0000000E+00  0.7232909E-02
  0.1938776E+01  0.0000000E+00  0.2244898E+00 -0.1849488E-09  0.0000000E+00  0.7232909E-02
  0.1989796E+01  0.0000000E+00  0.2244898E+00 -0.2190668E-09  0.0000000E+00  0.7232909E-02
  0.2040816E-01  0.0000000E+00  0.2653061E+00 -0.2798187E-09  0.0000000E+00  0.7227046E-02
  0.6122449E-01  0.0000000E+00  0.2653061E+00 -0.3036488E-09  0.0000000E+00  0.7227046E-02
  0.1020408E+00  0.0000000E+00  0.2653061E+00 -0.1521523E-09  0.0000000E+00  0.7227046E-02
  0.1428571E+00  0.0000000E+00  0.2653061E+00 -0.1117381E-09  0.0000000E+00  0.7227046E-02
  0.1836735E+00  0.0000000E+00  0.2653061E+00 -0.8883320E-10  0.0000000E+00  0.7227046E-02
  0.2244898E+00  0.0000000E+00  0.2653061E+00 -0.9134903E-10  0.0000000E+00  0.7227046E-02
  0.2653061E+00  0.0000000E+00  0.2653061E+00 -0.8972148E-10  0.0000000E+00  0.7227046E-02
  0.3061225E+00  0.0000000E+00  0.2653061E+00 -0.8817608E-10  0.0000000E+00  0.7227046E-02
  0.3469388E+00  0.0000000E+00  0.2653061E+00 -0.8073028E-10  0.0000000E+00  0.7227046E-02
  0.3877551E+00  0.0000000E+00  0.2653061E+00 -0.7288023E-10  0.0000000E+00  0.7227046E-02
  0.4285714E+00  0.0000000E+00  0.2653061E+00 -0.6364065E-10  0.0000000E+00  0.7227046E-02
  0.4693878E+00  0.0000000E+00  0.2653061E+00 -0.5845135E-10  0.0000000E+00  0.7227046E-02
  0.5102041E+00  0.0000000E+00  0.2653061E+00 -0.5970585E-10  0.0000000E+00  0.7227046E-02
  0.5510204E+00  0.0000000E+00  0.2653061E+00 -0.6565676E-10  0.0000000E+00  0.7227046E-02
  0.5918368E+00  0.0000000E+00  0.2653061E+00 -0.5633206E-10  0.0000000E+00  0.7227046E-02
  0.6326531E+00  0.0000000E+00  0.2653061E+00 -0.4966558E-10  0.0000000E+00  0.7227046E-02
  0.6734694E+00  0.0000000E+00  0.2653061E+00 -0.6167420E-10  0.0000000E+00  0.7227046E-02
  0.7142857E+00  0.0000000E+00  0.2653061E+00 -0.5252521E-10  0.0000000E+00  0.7227046E-02
  0.7551020E+00  0.0000000E+00  0.2653061E+00 -0.4721618E-10  0.0000000E+00  0.7227046E-02
  0.7959183E+00  0.0000000E+00  0.2653061E+00 -0.6245927E-10  0.0000000E+00  0.7227046E-02
  0.8367347E+00  0.0000000E+00  0.2653061E+00 -0.7457930E-10  0.0000000E+00  0.7227046E-02
  0.8775510E+00  0.0000000E+00  0.2653061E+00 -0.7745544E-10  0.0000000E+00  0.7227046E-02
  0.9183673E+00  0.0000000E+00  0.2653061E+00 -0.7392715E-10  0.0000000E+00  0.7227046E-02
  0.9591837E+00  0.0000000E+00  0.2653061E+00 -0.6271764E-10  0.0000000E+00  0.7227046E-02
  0.1000000E+01  0.0000000E+00  0.2653061E+00 -0.6519118E-10  0.0000000E+00  0.7227046E-02
  0.1040816E+01  0.0000000E+00  0.2653061E+00 -0.7054546E-10  0.0000000E+00  0.7227046E-02
  0.1081633E+01  0.0000000E+00  0.2653061E+00 -0.7573663E-10  0.0000000E+00  0.7227046E-02
  0.1122449E+01  0.0000000E+00  0.2653061E+00 -0.6743749E-10  0.0000000E+00  0.7227046E-02
  0.1163265E+01  0.0000000E+00  0.2653061E+00 -0.6850427E-10  0.0000000E+00  0.7227046E-02
  0.1204082E+01  0.0000000E+00  0.2653061E+00 -0.7530687E-10  0.0000000E+00  0.7227046E-02
  0.1244898E+01  0.0000000E+00  0.2653061E+00 -0.7561671E-10  0.0000000E+00  0.7227046E-02
  0.1285714E+01  0.0000000E+00  0.2653061E+00 -0.6704305E-10  0.0000000E+00  0.7227046E-02
  0.1326531E+01  0.0000000E+00  0.2653061E+00 -0.6406344E-10  0.0000000E+00  0.7227046E-02