title = "dataset feddes"
variables = "x", "y", "z", "vx", "vy", "vz"
zone t = "velocities, solution time =  1.500E+01 days        " i =   49, j =   49, k =    1,  f=point
  0.2040816E-01  0.0000000E+00  0.2040816E-01  0.1870524E-07  0.0000000E+00  0.3999741E-02
  0.6122449E-01  0.0000000E+00  0.2040816E-01  0.5304634E-07  0.0000000E+00  0.3999895E-02
  0.1020408E+00  0.0000000E+00  0.2040816E-01  0.7858908E-07  0.0000000E+00  0.4000178E-02
  0.1428571E+00  0.0000000E+00  0.2040816E-01  0.9001201E-07  0.0000000E+00  0.4000541E-02
  0.1836735E+00  0.0000000E+00  0.2040816E-01  0.8274479E-07  0.0000000E+00  0.4000913E-02
  0.2244898E+00  0.0000000E+00  0.2040816E-01  0.5328522E-07  0.0000000E+00  0.4001205E-02
  0.2653061E+00  0.0000000E+00  0.2040816E-01 -0.5515044E-09  0.0000000E+00  0.4001319E-02
  0.3061225E+00  0.0000000E+00  0.2040816E-01 -0.7944507E-07  0.0000000E+00  0.4001147E-02
  0.3469388E+00  0.0000000E+00  0.2040816E-01 -0.1824641E-06  0.0000000E+00  0.4000583E-02
  0.3877551E+00  0.0000000E+00  0.2040816E-01 -0.3070625E-06  0.0000000E+00  0.3999530E-02
  0.4285714E+00  0.0000000E+00  0.2040816E-01 -0.4492334E-06  0.0000000E+00  0.3997904E-02
  0.4693878E+00  0.0000000E+00  0.2040816E-01 -0.6037602E-06  0.0000000E+00  0.3995639E-02
  0.5102041E+00  0.0000000E+00  0.2040816E-01 -0.7646005E-06  0.0000000E+00  0.3992695E-02
  0.5510204E+00  0.0000000E+00  0.2040816E-01 -0.9253435E-06  0.0000000E+00  0.3989060E-02
  0.5918368E+00  0.0000000E+00  0.2040816E-01 -0.1079691E-05  0.0000000E+00  0.3984747E-02
  0.6326531E+00  0.0000000E+00  0.2040816E-01 -0.1221908E-05  0.0000000E+00  0.3979797E-02
  0.6734694E+00  0.0000000E+00  0.2040816E-01 -0.1347191E-05  0.0000000E+00  0.3974271E-02
  0.7142857E+00  0.0000000E+00  0.2040816E-01 -0.1451917E-05  0.0000000E+00  0.3968250E-02
  0.7551020E+00  0.0000000E+00  0.2040816E-01 -0.1533764E-05  0.0000000E+00  0.3961828E-02
  0.7959183E+00  0.0000000E+00  0.2040816E-01 -0.1591703E-05  0.0000000E+00  0.3955105E-02
  0.8367347E+00  0.0000000E+00  0.2040816E-01 -0.1625883E-05  0.0000000E+00  0.3948184E-02
  0.8775510E+00  0.0000000E+00  0.2040816E-01 -0.1637444E-05  0.0000000E+00  0.3941165E-02
  0.9183673E+00  0.0000000E+00  0.2040816E-01 -0.1628285E-05  0.0000000E+00  0.3934141E-02
  0.9591837E+00  0.0000000E+00  0.2040816E-01 -0.1600831E-05  0.0000000E+00  0.3927195E-02
  0.1000000E+01  0.0000000E+00  0.2040816E-01 -0.1557803E-05  0.0000000E+00  0.3920402E-02
  0.1040816E+01  0.0000000E+00  0.2040816E-01 -0.1502023E-05  0.0000000E+00  0.3913820E-02
  0.1081633E+01  0.0000000E+00  0.2040816E-01 -0.1436260E-05  0.0000000E+00  0.3907500E-02
  0.1122449E+01  0.0000000E+00  0.2040816E-01 -0.1363108E-05  0.0000000E+00  0.3901479E-02
  0.1163265E+01  0.0000000E+00  0.2040816E-01 -0.1284911E-05  0.0000000E+00  0.3895784E-02
  0.1204082E+01  0.0000000E+00  0.2040816E-01 -0.1203714E-05  0.0000000E+00  0.3890431E-02
  0.1244898E+01  0.0000000E+00  0.2040816E-01 -0.1121246E-05  0.0000000E+00  0.3885431E-02
  0.1285714E+01  0.0000000E+00  0.2040816E-01 -0.1038921E-05  0.0000000E+00  0.3880784E-02
  0.1326531E+01  0.0000000E+00  0.2040816E-01 -0.9578496E-06  0.0000000E+00  0.3876490E-02
  0.1367347E+01  0.0000000E+00  0.2040816E-01 -0.8788703E-06  0.0000000E+00  0.3872539E-02
  0.1408163E+01  0.0000000E+00  0.2040816E-01 -0.8025755E-06  0.0000000E+00  0.3868923E-02
  0.1448980E+01  0.0000000E+00  0.2040816E-01 -0.7293459E-06  0.0000000E+00  0.3865628E-02
  0.1489796E+01  0.0000000E+00  0.2040816E-01 -0.6593840E-06  0.0000000E+00  0.3862641E-02
  0.1530612E+01  0.0000000E+00  0.2040816E-01 -0.5927455E-06  0.0000000E+00  0.3859948E-02
  0.1571429E+01  0.0000000E+00  0.2040816E-01 -0.5293707E-06  0.0000000E+00  0.3857535E-02
  0.1612245E+01  0.0000000E+00  0.2040816E-01 -0.4691105E-06  0.0000000E+00  0.3855387E-02
  0.1653061E+01  0.0000000E+00  0.2040816E-01 -0.4117512E-06  0.0000000E+00  0.3853493E-02
  0.1693878E+01  0.0000000E+00  0.2040816E-01 -0.3570330E-06  0.0000000E+00  0.3851839E-02
  0.1734694E+01  0.0000000E+00  0.2040816E-01 -0.3046669E-06  0.0000000E+00  0.3850416E-02
  0.1775510E+01  0.0000000E+00  0.2040816E-01 -0.2543460E-06  0.0000000E+00  0.3849214E-02
  0.1816326E+01  0.0000000E+00  0.2040816E-01 -0.2057545E-06  0.0000000E+00  0.3848224E-02
  0.1857143E+01  0.0000000E+00  0.2040816E-01 -0.1585741E-06  0.0000000E+00  0.3847440E-02
  0.1897959E+01  0.0000000E+00  0.2040816E-01 -0.1124867E-06  0.0000000E+00  0.3846857E-02
  0.1938776E+01  0.0000000E+00  0.2040816E-01 -0.6717627E-07  0.0000000E+00  0.3846471E-02
  0.1989796E+01  0.0000000E+00  0.2040816E-01 -0.2232706E-07  0.0000000E+00  0.3846278E-02
  0.2040816E-01  0.0000000E+00  0.6122449E-01  0.6471999E-07  0.0000000E+00  0.3999609E-02
  0.6122449E-01  0.0000000E+00  0.6122449E-01  0.1838442E-06  0.0000000E+00  0.3999775E-02
  0.1020408E+00  0.0000000E+00  0.6122449E-01  0.2731987E-06  0.0000000E+00  0.4000081E-02
  0.1428571E+00  0.0000000E+00  0.6122449E-01  0.3147729E-06  0.0000000E+00  0.4000477E-02
  0.1836735E+00  0.0000000E+00  0.6122449E-01  0.2930768E-06  0.0000000E+00  0.4000889E-02
  0.2244898E+00  0.0000000E+00  0.6122449E-01  0.1962176E-06  0.0000000E+00  0.4001228E-02
  0.2653061E+00  0.0000000E+00  0.6122449E-01  0.1674768E-07  0.0000000E+00  0.4001391E-02
  0.3061225E+00  0.0000000E+00  0.6122449E-01 -0.2476777E-06  0.0000000E+00  0.4001268E-02
  0.3469388E+00  0.0000000E+00  0.6122449E-01 -0.5939461E-06  0.0000000E+00  0.4000751E-02
  0.3877551E+00  0.0000000E+00  0.6122449E-01 -0.1013446E-05  0.0000000E+00  0.3999737E-02
  0.4285714E+00  0.0000000E+00  0.6122449E-01 -0.1492582E-05  0.0000000E+00  0.3998140E-02
  0.4693878E+00  0.0000000E+00  0.6122449E-01 -0.2013634E-05  0.0000000E+00  0.3995893E-02
  0.5102041E+00  0.0000000E+00  0.6122449E-01 -0.2556065E-05  0.0000000E+00  0.3992956E-02
  0.5510204E+00  0.0000000E+00  0.6122449E-01 -0.3098088E-05  0.0000000E+00  0.3989315E-02
  0.5918368E+00  0.0000000E+00  0.6122449E-01 -0.3618314E-05  0.0000000E+00  0.3984983E-02
  0.6326531E+00  0.0000000E+00  0.6122449E-01 -0.4097298E-05  0.0000000E+00  0.3980003E-02
  0.6734694E+00  0.0000000E+00  0.6122449E-01 -0.4518795E-05  0.0000000E+00  0.3974440E-02
  0.7142857E+00  0.0000000E+00  0.6122449E-01 -0.4870608E-05  0.0000000E+00  0.3968375E-02
  0.7551020E+00  0.0000000E+00  0.6122449E-01 -0.5144981E-05  0.0000000E+00  0.3961906E-02
  0.7959183E+00  0.0000000E+00  0.6122449E-01 -0.5338557E-05  0.0000000E+00  0.3955136E-02
  0.8367347E+00  0.0000000E+00  0.6122449E-01 -0.5451973E-05  0.0000000E+00  0.3948168E-02
  0.8775510E+00  0.0000000E+00  0.6122449E-01 -0.5489207E-05  0.0000000E+00  0.3941106E-02
  0.9183673E+00  0.0000000E+00  0.6122449E-01 -0.5456791E-05  0.0000000E+00  0.3934042E-02
  0.9591837E+00  0.0000000E+00  0.6122449E-01 -0.5362995E-05  0.0000000E+00  0.3927063E-02
  0.1000000E+01  0.0000000E+00  0.6122449E-01 -0.5217060E-05  0.0000000E+00  0.3920240E-02
  0.1040816E+01  0.0000000E+00  0.6122449E-01 -0.5028540E-05  0.0000000E+00  0.3913636E-02
  0.1081633E+01  0.0000000E+00  0.6122449E-01 -0.4806774E-05  0.0000000E+00  0.3907299E-02
  0.1122449E+01  0.0000000E+00  0.6122449E-01 -0.4560495E-05  0.0000000E+00  0.3901265E-02
  0.1163265E+01  0.0000000E+00  0.6122449E-01 -0.4297569E-05  0.0000000E+00  0.3895561E-02
  0.1204082E+01  0.0000000E+00  0.6122449E-01 -0.4024851E-05  0.0000000E+00  0.3890204E-02
  0.1244898E+01  0.0000000E+00  0.6122449E-01 -0.3748119E-05  0.0000000E+00  0.3885202E-02
  0.1285714E+01  0.0000000E+00  0.6122449E-01 -0.3472086E-05  0.0000000E+00  0.3880557E-02
  0.1326531E+01  0.0000000E+00  0.6122449E-01 -0.3200451E-05  0.0000000E+00  0.3876266E-02
  0.1367347E+01  0.0000000E+00  0.6122449E-01 -0.2935991E-05  0.0000000E+00  0.3872320E-02
  0.1408163E+01  0.0000000E+00  0.6122449E-01 -0.2680662E-05  0.0000000E+00  0.3868709E-02
  0.1448980E+01  0.0000000E+00  0.6122449E-01 -0.2435711E-05  0.0000000E+00  0.3865421E-02
  0.1489796E+01  0.0000000E+00  0.6122449E-01 -0.2201792E-05  0.0000000E+00  0.3862440E-02
  0.1530612E+01  0.0000000E+00  0.6122449E-01 -0.1979069E-05  0.0000000E+00  0.3859754E-02
  0.1571429E+01  0.0000000E+00  0.6122449E-01 -0.1767321E-05  0.0000000E+00  0.3857346E-02
  0.1612245E+01  0.0000000E+00  0.6122449E-01 -0.1566035E-05  0.0000000E+00  0.3855205E-02
  0.1653061E+01  0.0000000E+00  0.6122449E-01 -0.1374480E-05  0.0000000E+00  0.3853316E-02
  0.1693878E+01  0.0000000E+00  0.6122449E-01 -0.1191777E-05  0.0000000E+00  0.3851667E-02
  0.1734694E+01  0.0000000E+00  0.6122449E-01 -0.1016950E-05  0.0000000E+00  0.3850249E-02
  0.1775510E+01  0.0000000E+00  0.6122449E-01 -0.8489666E-06  0.0000000E+00  0.3849050E-02
  0.1816326E+01  0.0000000E+00  0.6122449E-01 -0.6867669E-06  0.0000000E+00  0.3848064E-02
  0.1857143E+01  0.0000000E+00  0.6122449E-01 -0.5292840E-06  0.0000000E+00  0.3847282E-02
  0.1897959E+01  0.0000000E+00  0.6122449E-01 -0.3754542E-06  0.0000000E+00  0.3846701E-02
  0.1938776E+01  0.0000000E+00  0.6122449E-01 -0.2242213E-06  0.0000000E+00  0.3846316E-02
  0.1989796E+01  0.0000000E+00  0.6122449E-01 -0.7453435E-07  0.0000000E+00  0.3846124E-02
  0.2040816E-01  0.0000000E+00  0.1020408E+00  0.1220668E-06  0.0000000E+00  0.3999193E-02
  0.6122449E-01  0.0000000E+00  0.1020408E+00  0.3477127E-06  0.0000000E+00  0.3999387E-02
  0.1020408E+00  0.0000000E+00  0.1020408E+00  0.5196121E-06  0.0000000E+00  0.3999747E-02
  0.1428571E+00  0.0000000E+00  0.1020408E+00  0.6051929E-06  0.0000000E+00  0.4000221E-02
  0.1836735E+00  0.0000000E+00  0.1020408E+00  0.5763792E-06  0.0000000E+00  0.4000731E-02
  0.2244898E+00  0.0000000E+00  0.1020408E+00  0.4115254E-06  0.0000000E+00  0.4001182E-02
  0.2653061E+00  0.0000000E+00  0.1020408E+00  0.9697193E-07  0.0000000E+00  0.4001463E-02
  0.3061225E+00  0.0000000E+00  0.1020408E+00 -0.3717019E-06  0.0000000E+00  0.4001457E-02
  0.3469388E+00  0.0000000E+00  0.1020408E+00 -0.9890073E-06  0.0000000E+00  0.4001049E-02
  0.3877551E+00  0.0000000E+00  0.1020408E+00 -0.1739410E-05  0.0000000E+00  0.4000129E-02
  0.4285714E+00  0.0000000E+00  0.1020408E+00 -0.2598212E-05  0.0000000E+00  0.3998603E-02
  0.4693878E+00  0.0000000E+00  0.1020408E+00 -0.3533148E-05  0.0000000E+00  0.3996401E-02
  0.5102041E+00  0.0000000E+00  0.1020408E+00 -0.4506771E-05  0.0000000E+00  0.3993478E-02
  0.5510204E+00  0.0000000E+00  0.1020408E+00 -0.5479356E-05  0.0000000E+00  0.3989820E-02
  0.5918368E+00  0.0000000E+00  0.1020408E+00 -0.6411972E-05  0.0000000E+00  0.3985444E-02
  0.6326531E+00  0.0000000E+00  0.1020408E+00 -0.7269337E-05  0.0000000E+00  0.3980394E-02
  0.6734694E+00  0.0000000E+00  0.1020408E+00 -0.8022136E-05  0.0000000E+00  0.3974740E-02
  0.7142857E+00  0.0000000E+00  0.1020408E+00 -0.8648553E-05  0.0000000E+00  0.3968571E-02
  0.7551020E+00  0.0000000E+00  0.1020408E+00 -0.9134949E-05  0.0000000E+00  0.3961990E-02
  0.7959183E+00  0.0000000E+00  0.1020408E+00 -0.9475726E-05  0.0000000E+00  0.3955105E-02
  0.8367347E+00  0.0000000E+00  0.1020408E+00 -0.9672524E-05  0.0000000E+00  0.3948027E-02
  0.8775510E+00  0.0000000E+00  0.1020408E+00 -0.9732983E-05  0.0000000E+00  0.3940861E-02
  0.9183673E+00  0.0000000E+00  0.1020408E+00 -0.9669267E-05  0.0000000E+00  0.3933705E-02
  0.9591837E+00  0.0000000E+00  0.1020408E+00 -0.9496563E-05  0.0000000E+00  0.3926645E-02
  0.1000000E+01  0.0000000E+00  0.1020408E+00 -0.9231689E-05  0.0000000E+00  0.3919755E-02
  0.1040816E+01  0.0000000E+00  0.1020408E+00 -0.8891906E-05  0.0000000E+00  0.3913097E-02
  0.1081633E+01  0.0000000E+00  0.1020408E+00 -0.8493989E-05  0.0000000E+00  0.3906719E-02
  0.1122449E+01  0.0000000E+00  0.1020408E+00 -0.8053542E-05  0.0000000E+00  0.3900656E-02
  0.1163265E+01  0.0000000E+00  0.1020408E+00 -0.7584553E-05  0.0000000E+00  0.3894933E-02
  0.1204082E+01  0.0000000E+00  0.1020408E+00 -0.7099151E-05  0.0000000E+00  0.3889566E-02
  0.1244898E+01  0.0000000E+00  0.1020408E+00 -0.6607519E-05  0.0000000E+00  0.3884561E-02
  0.1285714E+01  0.0000000E+00  0.1020408E+00 -0.6117921E-05  0.0000000E+00  0.3879919E-02
  0.1326531E+01  0.0000000E+00  0.1020408E+00 -0.5636813E-05  0.0000000E+00  0.3875635E-02
  0.1367347E+01  0.0000000E+00  0.1020408E+00 -0.5169006E-05  0.0000000E+00  0.3871701E-02
  0.1408163E+01  0.0000000E+00  0.1020408E+00 -0.4717859E-05  0.0000000E+00  0.3868103E-02
  0.1448980E+01  0.0000000E+00  0.1020408E+00 -0.4285481E-05  0.0000000E+00  0.3864829E-02
  0.1489796E+01  0.0000000E+00  0.1020408E+00 -0.3872937E-05  0.0000000E+00  0.3861864E-02
  0.1530612E+01  0.0000000E+00  0.1020408E+00 -0.3480437E-05  0.0000000E+00  0.3859193E-02
  0.1571429E+01  0.0000000E+00  0.1020408E+00 -0.3107522E-05  0.0000000E+00  0.3856800E-02
  0.1612245E+01  0.0000000E+00  0.1020408E+00 -0.2753224E-05  0.0000000E+00  0.3854673E-02
  0.1653061E+01  0.0000000E+00  0.1020408E+00 -0.2416202E-05  0.0000000E+00  0.3852796E-02
  0.1693878E+01  0.0000000E+00  0.1020408E+00 -0.2094864E-05  0.0000000E+00  0.3851159E-02
  0.1734694E+01  0.0000000E+00  0.1020408E+00 -0.1787458E-05  0.0000000E+00  0.3849751E-02
  0.1775510E+01  0.0000000E+00  0.1020408E+00 -0.1492140E-05  0.0000000E+00  0.3848561E-02
  0.1816326E+01  0.0000000E+00  0.1020408E+00 -0.1207027E-05  0.0000000E+00  0.3847582E-02
  0.1857143E+01  0.0000000E+00  0.1020408E+00 -0.9302287E-06  0.0000000E+00  0.3846807E-02
  0.1897959E+01  0.0000000E+00  0.1020408E+00 -0.6598658E-06  0.0000000E+00  0.3846230E-02
  0.1938776E+01  0.0000000E+00  0.1020408E+00 -0.3940782E-06  0.0000000E+00  0.3845847E-02
  0.1989796E+01  0.0000000E+00  0.1020408E+00 -0.1310199E-06  0.0000000E+00  0.3845657E-02
  0.2040816E-01  0.0000000E+00  0.1428571E+00  0.1879573E-06  0.0000000E+00  0.3998381E-02
  0.6122449E-01  0.0000000E+00  0.1428571E+00  0.5373429E-06  0.0000000E+00  0.3998619E-02
  0.1020408E+00  0.0000000E+00  0.1428571E+00  0.8091670E-06  0.0000000E+00  0.3999065E-02
  0.1428571E+00  0.0000000E+00  0.1428571E+00  0.9562654E-06  0.0000000E+00  0.3999661E-02
  0.1836735E+00  0.0000000E+00  0.1428571E+00  0.9378372E-06  0.0000000E+00  0.4000324E-02
  0.2244898E+00  0.0000000E+00  0.1428571E+00  0.7222076E-06  0.0000000E+00  0.4000949E-02
  0.2653061E+00  0.0000000E+00  0.1428571E+00  0.2891403E-06  0.0000000E+00  0.4001416E-02
  0.3061225E+00  0.0000000E+00  0.1428571E+00 -0.3682264E-06  0.0000000E+00  0.4001596E-02
  0.3469388E+00  0.0000000E+00  0.1428571E+00 -0.1242281E-05  0.0000000E+00  0.4001359E-02
  0.3877551E+00  0.0000000E+00  0.1428571E+00 -0.2310640E-05  0.0000000E+00  0.4000587E-02
  0.4285714E+00  0.0000000E+00  0.1428571E+00 -0.3537300E-05  0.0000000E+00  0.3999174E-02
  0.4693878E+00  0.0000000E+00  0.1428571E+00 -0.4875008E-05  0.0000000E+00  0.3997041E-02
  0.5102041E+00  0.0000000E+00  0.1428571E+00 -0.6268798E-05  0.0000000E+00  0.3994140E-02
  0.5510204E+00  0.0000000E+00  0.1428571E+00 -0.7660367E-05  0.0000000E+00  0.3990456E-02
  0.5918368E+00  0.0000000E+00  0.1428571E+00 -0.8992719E-05  0.0000000E+00  0.3986008E-02
  0.6326531E+00  0.0000000E+00  0.1428571E+00 -0.1021448E-04  0.0000000E+00  0.3980847E-02
  0.6734694E+00  0.0000000E+00  0.1428571E+00 -0.1128334E-04  0.0000000E+00  0.3975050E-02
  0.7142857E+00  0.0000000E+00  0.1428571E+00 -0.1216826E-04  0.0000000E+00  0.3968717E-02
  0.7551020E+00  0.0000000E+00  0.1428571E+00 -0.1285042E-04  0.0000000E+00  0.3961960E-02
  0.7959183E+00  0.0000000E+00  0.1428571E+00 -0.1332281E-04  0.0000000E+00  0.3954898E-02
  0.8367347E+00  0.0000000E+00  0.1428571E+00 -0.1358894E-04  0.0000000E+00  0.3947648E-02
  0.8775510E+00  0.0000000E+00  0.1428571E+00 -0.1366091E-04  0.0000000E+00  0.3940322E-02
  0.9183673E+00  0.0000000E+00  0.1428571E+00 -0.1355713E-04  0.0000000E+00  0.3933023E-02
  0.9591837E+00  0.0000000E+00  0.1428571E+00 -0.1330012E-04  0.0000000E+00  0.3925840E-02
  0.1000000E+01  0.0000000E+00  0.1428571E+00 -0.1291446E-04  0.0000000E+00  0.3918848E-02
  0.1040816E+01  0.0000000E+00  0.1428571E+00 -0.1242508E-04  0.0000000E+00  0.3912108E-02
  0.1081633E+01  0.0000000E+00  0.1428571E+00 -0.1185602E-04  0.0000000E+00  0.3905667E-02
  0.1122449E+01  0.0000000E+00  0.1428571E+00 -0.1122941E-04  0.0000000E+00  0.3899560E-02
  0.1163265E+01  0.0000000E+00  0.1428571E+00 -0.1056496E-04  0.0000000E+00  0.3893809E-02
  0.1204082E+01  0.0000000E+00  0.1428571E+00 -0.9879637E-05  0.0000000E+00  0.3888428E-02
  0.1244898E+01  0.0000000E+00  0.1428571E+00 -0.9187570E-05  0.0000000E+00  0.3883420E-02
  0.1285714E+01  0.0000000E+00  0.1428571E+00 -0.8500144E-05  0.0000000E+00  0.3878783E-02
  0.1326531E+01  0.0000000E+00  0.1428571E+00 -0.7826177E-05  0.0000000E+00  0.3874512E-02
  0.1367347E+01  0.0000000E+00  0.1428571E+00 -0.7172168E-05  0.0000000E+00  0.3870594E-02
  0.1408163E+01  0.0000000E+00  0.1428571E+00 -0.6542584E-05  0.0000000E+00  0.3867018E-02
  0.1448980E+01  0.0000000E+00  0.1428571E+00 -0.5940154E-05  0.0000000E+00  0.3863766E-02
  0.1489796E+01  0.0000000E+00  0.1428571E+00 -0.5366164E-05  0.0000000E+00  0.3860825E-02
  0.1530612E+01  0.0000000E+00  0.1428571E+00 -0.4820727E-05  0.0000000E+00  0.3858177E-02
  0.1571429E+01  0.0000000E+00  0.1428571E+00 -0.4303044E-05  0.0000000E+00  0.3855807E-02
  0.1612245E+01  0.0000000E+00  0.1428571E+00 -0.3811627E-05  0.0000000E+00  0.3853700E-02
  0.1653061E+01  0.0000000E+00  0.1428571E+00 -0.3344500E-05  0.0000000E+00  0.3851844E-02
  0.1693878E+01  0.0000000E+00  0.1428571E+00 -0.2899353E-05  0.0000000E+00  0.3850224E-02
  0.1734694E+01  0.0000000E+00  0.1428571E+00 -0.2473679E-05  0.0000000E+00  0.3848831E-02
  0.1775510E+01  0.0000000E+00  0.1428571E+00 -0.2064861E-05  0.0000000E+00  0.3847654E-02
  0.1816326E+01  0.0000000E+00  0.1428571E+00 -0.1670249E-05  0.0000000E+00  0.3846686E-02
  0.1857143E+01  0.0000000E+00  0.1428571E+00 -0.1287192E-05  0.0000000E+00  0.3845919E-02
  0.1897959E+01  0.0000000E+00  0.1428571E+00 -0.9130723E-06  0.0000000E+00  0.3845349E-02
  0.1938776E+01  0.0000000E+00  0.1428571E+00 -0.5453028E-06  0.0000000E+00  0.3844971E-02
  0.1989796E+01  0.0000000E+00  0.1428571E+00 -0.1813232E-06  0.0000000E+00  0.3844783E-02
  0.2040816E-01  0.0000000E+00  0.1836735E+00  0.2683828E-06  0.0000000E+00  0.3997053E-02
  0.6122449E-01  0.0000000E+00  0.1836735E+00  0.7703003E-06  0.0000000E+00  0.3997351E-02
  0.1020408E+00  0.0000000E+00  0.1836735E+00  0.1169924E-05  0.0000000E+00  0.3997914E-02
  0.1428571E+00  0.0000000E+00  0.1836735E+00  0.1404752E-05  0.0000000E+00  0.3998678E-02
  0.1836735E+00  0.0000000E+00  0.1836735E+00  0.1420410E-05  0.0000000E+00  0.3999551E-02
  0.2244898E+00  0.0000000E+00  0.1836735E+00  0.1174263E-05  0.0000000E+00  0.4000417E-02
  0.2653061E+00  0.0000000E+00  0.1836735E+00  0.6385928E-06  0.0000000E+00  0.4001139E-02
  0.3061225E+00  0.0000000E+00  0.1836735E+00 -0.1966191E-06  0.0000000E+00  0.4001575E-02
  0.3469388E+00  0.0000000E+00  0.1836735E+00 -0.1321958E-05  0.0000000E+00  0.4001577E-02
  0.3877551E+00  0.0000000E+00  0.1836735E+00 -0.2707989E-05  0.0000000E+00  0.4001008E-02
  0.4285714E+00  0.0000000E+00  0.1836735E+00 -0.4306552E-05  0.0000000E+00  0.3999751E-02
  0.4693878E+00  0.0000000E+00  0.1836735E+00 -0.6053967E-05  0.0000000E+00  0.3997714E-02
  0.5102041E+00  0.0000000E+00  0.1836735E+00 -0.7875904E-05  0.0000000E+00  0.3994843E-02
  0.5510204E+00  0.0000000E+00  0.1836735E+00 -0.9693518E-05  0.0000000E+00  0.3991121E-02
  0.5918368E+00  0.0000000E+00  0.1836735E+00 -0.1143000E-04  0.0000000E+00  0.3986572E-02
  0.6326531E+00  0.0000000E+00  0.1836735E+00 -0.1301663E-04  0.0000000E+00  0.3981255E-02
  0.6734694E+00  0.0000000E+00  0.1836735E+00 -0.1439752E-04  0.0000000E+00  0.3975261E-02
  0.7142857E+00  0.0000000E+00  0.1836735E+00 -0.1553256E-04  0.0000000E+00  0.3968701E-02
  0.7551020E+00  0.0000000E+00  0.1836735E+00 -0.1639846E-04  0.0000000E+00  0.3961703E-02
  0.7959183E+00  0.0000000E+00  0.1836735E+00 -0.1698797E-04  0.0000000E+00  0.3954398E-02
  0.8367347E+00  0.0000000E+00  0.1836735E+00 -0.1730783E-04  0.0000000E+00  0.3946915E-02
  0.8775510E+00  0.0000000E+00  0.1836735E+00 -0.1737593E-04  0.0000000E+00  0.3939375E-02
  0.9183673E+00  0.0000000E+00  0.1836735E+00 -0.1721814E-04  0.0000000E+00  0.3931885E-02
  0.9591837E+00  0.0000000E+00  0.1836735E+00 -0.1686522E-04  0.0000000E+00  0.3924538E-02
  0.1000000E+01  0.0000000E+00  0.1836735E+00 -0.1635013E-04  0.0000000E+00  0.3917411E-02
  0.1040816E+01  0.0000000E+00  0.1836735E+00 -0.1570584E-04  0.0000000E+00  0.3910565E-02
  0.1081633E+01  0.0000000E+00  0.1836735E+00 -0.1496366E-04  0.0000000E+00  0.3904045E-02
  0.1122449E+01  0.0000000E+00  0.1836735E+00 -0.1415217E-04  0.0000000E+00  0.3897882E-02
  0.1163265E+01  0.0000000E+00  0.1836735E+00 -0.1329650E-04  0.0000000E+00  0.3892096E-02
  0.1204082E+01  0.0000000E+00  0.1836735E+00 -0.1241809E-04  0.0000000E+00  0.3886697E-02
  0.1244898E+01  0.0000000E+00  0.1836735E+00 -0.1153459E-04  0.0000000E+00  0.3881687E-02
  0.1285714E+01  0.0000000E+00  0.1836735E+00 -0.1066010E-04  0.0000000E+00  0.3877060E-02
  0.1326531E+01  0.0000000E+00  0.1836735E+00 -0.9805390E-05  0.0000000E+00  0.3872806E-02
  0.1367347E+01  0.0000000E+00  0.1836735E+00 -0.8978273E-05  0.0000000E+00  0.3868913E-02
  0.1408163E+01  0.0000000E+00  0.1836735E+00 -0.8183997E-05  0.0000000E+00  0.3865364E-02
  0.1448980E+01  0.0000000E+00  0.1836735E+00 -0.7425633E-05  0.0000000E+00  0.3862143E-02
  0.1489796E+01  0.0000000E+00  0.1836735E+00 -0.6704450E-05  0.0000000E+00  0.3859233E-02
  0.1530612E+01  0.0000000E+00  0.1836735E+00 -0.6020279E-05  0.0000000E+00  0.3856616E-02
  0.1571429E+01  0.0000000E+00  0.1836735E+00 -0.5371837E-05  0.0000000E+00  0.3854276E-02
  0.1612245E+01  0.0000000E+00  0.1836735E+00 -0.4757015E-05  0.0000000E+00  0.3852197E-02
  0.1653061E+01  0.0000000E+00  0.1836735E+00 -0.4173128E-05  0.0000000E+00  0.3850366E-02
  0.1693878E+01  0.0000000E+00  0.1836735E+00 -0.3617120E-05  0.0000000E+00  0.3848770E-02
  0.1734694E+01  0.0000000E+00  0.1836735E+00 -0.3085719E-05  0.0000000E+00  0.3847397E-02
  0.1775510E+01  0.0000000E+00  0.1836735E+00 -0.2575556E-05  0.0000000E+00  0.3846237E-02
  0.1816326E+01  0.0000000E+00  0.1836735E+00 -0.2083242E-05  0.0000000E+00  0.3845283E-02
  0.1857143E+01  0.0000000E+00  0.1836735E+00 -0.1605423E-05  0.0000000E+00  0.3844528E-02
  0.1897959E+01  0.0000000E+00  0.1836735E+00 -0.1138795E-05  0.0000000E+00  0.3843966E-02
  0.1938776E+01  0.0000000E+00  0.1836735E+00 -0.6801137E-06  0.0000000E+00  0.3843594E-02
  0.1989796E+01  0.0000000E+00  0.1836735E+00 -0.2261713E-06  0.0000000E+00  0.3843408E-02
  0.2040816E-01  0.0000000E+00  0.2244898E+00  0.3691119E-06  0.0000000E+00  0.3995075E-02
  0.6122449E-01  0.0000000E+00  0.2244898E+00  0.1063583E-05  0.0000000E+00  0.3995450E-02
  0.1020408E+00  0.0000000E+00  0.2244898E+00  0.1629204E-05  0.0000000E+00  0.3996164E-02
  0.1428571E+00  0.0000000E+00  0.2244898E+00  0.1986753E-05  0.0000000E+00  0.3997144E-02
  0.1836735E+00  0.0000000E+00  0.2244898E+00  0.2066753E-05  0.0000000E+00  0.3998289E-02
  0.2244898E+00  0.0000000E+00  0.2244898E+00  0.1813992E-05  0.0000000E+00  0.3999465E-02
  0.2653061E+00  0.0000000E+00  0.2244898E+00  0.1191737E-05  0.0000000E+00  0.4000521E-02
  0.3061225E+00  0.0000000E+00  0.2244898E+00  0.1856114E-06  0.0000000E+00  0.4001290E-02
  0.3469388E+00  0.0000000E+00  0.2244898E+00 -0.1193680E-05  0.0000000E+00  0.4001604E-02
  0.3877551E+00  0.0000000E+00  0.2244898E+00 -0.2909262E-05  0.0000000E+00  0.4001303E-02
  0.4285714E+00  0.0000000E+00  0.2244898E+00 -0.4899350E-05  0.0000000E+00  0.4000249E-02
  0.4693878E+00  0.0000000E+00  0.2244898E+00 -0.7081326E-05  0.0000000E+00  0.3998338E-02
  0.5102041E+00  0.0000000E+00  0.2244898E+00 -0.9358285E-05  0.0000000E+00  0.3995504E-02
  0.5510204E+00  0.0000000E+00  0.2244898E+00 -0.1162739E-04  0.0000000E+00  0.3991730E-02
  0.5918368E+00  0.0000000E+00  0.2244898E+00 -0.1378891E-04  0.0000000E+00  0.3987046E-02
  0.6326531E+00  0.0000000E+00  0.2244898E+00 -0.1575446E-04  0.0000000E+00  0.3981524E-02
  0.6734694E+00  0.0000000E+00  0.2244898E+00 -0.1745339E-04  0.0000000E+00  0.3975270E-02
  0.7142857E+00  0.0000000E+00  0.2244898E+00 -0.1883648E-04  0.0000000E+00  0.3968416E-02
  0.7551020E+00  0.0000000E+00  0.2244898E+00 -0.1987691E-04  0.0000000E+00  0.3961106E-02
  0.7959183E+00  0.0000000E+00  0.2244898E+00 -0.2056882E-04  0.0000000E+00  0.3953490E-02
  0.8367347E+00  0.0000000E+00  0.2244898E+00 -0.2092417E-04  0.0000000E+00  0.3945711E-02
  0.8775510E+00  0.0000000E+00  0.2244898E+00 -0.2096863E-04  0.0000000E+00  0.3937900E-02
  0.9183673E+00  0.0000000E+00  0.2244898E+00 -0.2073731E-04  0.0000000E+00  0.3930172E-02
  0.9591837E+00  0.0000000E+00  0.2244898E+00 -0.2027065E-04  0.0000000E+00  0.3922624E-02
  0.1000000E+01  0.0000000E+00  0.2244898E+00 -0.1961103E-04  0.0000000E+00  0.3915333E-02
  0.1040816E+01  0.0000000E+00  0.2244898E+00 -0.1880003E-04  0.0000000E+00  0.3908359E-02
  0.1081633E+01  0.0000000E+00  0.2244898E+00 -0.1787657E-04  0.0000000E+00  0.3901744E-02
  0.1122449E+01  0.0000000E+00  0.2244898E+00 -0.1687561E-04  0.0000000E+00  0.3895516E-02
  0.1163265E+01  0.0000000E+00  0.2244898E+00 -0.1582753E-04  0.0000000E+00  0.3889692E-02
  0.1204082E+01  0.0000000E+00  0.2244898E+00 -0.1475787E-04  0.0000000E+00  0.3884276E-02
  0.1244898E+01  0.0000000E+00  0.2244898E+00 -0.1368742E-04  0.0000000E+00  0.3879265E-02
  0.1285714E+01  0.0000000E+00  0.2244898E+00 -0.1263253E-04  0.0000000E+00  0.3874652E-02
  0.1326531E+01  0.0000000E+00  0.2244898E+00 -0.1160550E-04  0.0000000E+00  0.3870423E-02
  0.1367347E+01  0.0000000E+00  0.2244898E+00 -0.1061506E-04  0.0000000E+00  0.3866561E-02
  0.1408163E+01  0.0000000E+00  0.2244898E+00 -0.9666872E-05  0.0000000E+00  0.3863049E-02
  0.1448980E+01  0.0000000E+00  0.2244898E+00 -0.8764025E-05  0.0000000E+00  0.3859867E-02
  0.1489796E+01  0.0000000E+00  0.2244898E+00 -0.7907506E-05  0.0000000E+00  0.3856996E-02
  0.1530612E+01  0.0000000E+00  0.2244898E+00 -0.7096633E-05  0.0000000E+00  0.3854417E-02
  0.1571429E+01  0.0000000E+00  0.2244898E+00 -0.6329459E-05  0.0000000E+00  0.3852114E-02
  0.1612245E+01  0.0000000E+00  0.2244898E+00 -0.5603116E-05  0.0000000E+00  0.3850070E-02
  0.1653061E+01  0.0000000E+00  0.2244898E+00 -0.4914116E-05  0.0000000E+00  0.3848270E-02
  0.1693878E+01  0.0000000E+00  0.2244898E+00 -0.4258592E-05  0.0000000E+00  0.3846702E-02
  0.1734694E+01  0.0000000E+00  0.2244898E+00 -0.3632483E-05  0.0000000E+00  0.3845353E-02
  0.1775510E+01  0.0000000E+00  0.2244898E+00 -0.3031664E-05  0.0000000E+00  0.3844215E-02
  0.1816326E+01  0.0000000E+00  0.2244898E+00 -0.2452036E-05  0.0000000E+00  0.3843278E-02
  0.1857143E+01  0.0000000E+00  0.2244898E+00 -0.1889572E-05  0.0000000E+00  0.3842536E-02
  0.1897959E+01  0.0000000E+00  0.2244898E+00 -0.1340336E-05  0.0000000E+00  0.3841985E-02
  0.1938776E+01  0.0000000E+00  0.2244898E+00 -0.8004813E-06  0.0000000E+00  0.3841619E-02
  0.1989796E+01  0.0000000E+00  0.2244898E+00 -0.2662160E-06  0.0000000E+00  0.3841437E-02
  0.2040816E-01  0.0000000E+00  0.2653061E+00  0.4959875E-06  0.0000000E+00  0.3992299E-02
  0.6122449E-01  0.0000000E+00  0.2653061E+00  0.1434490E-05  0.0000000E+00  0.3992770E-02
  0.1020408E+00  0.0000000E+00  0.2653061E+00  0.2215056E-05  0.0000000E+00  0.3993670E-02
  0.1428571E+00  0.0000000E+00  0.2653061E+00  0.2739801E-05  0.0000000E+00  0.3994921E-02
  0.1836735E+00  0.0000000E+00  0.2653061E+00  0.2921946E-05  0.0000000E+00  0.3996405E-02
  0.2244898E+00  0.0000000E+00  0.2653061E+00  0.2691309E-05  0.0000000E+00  0.3997973E-02
  0.2653061E+00  0.0000000E+00  0.2653061E+00  0.1999811E-05  0.0000000E+00  0.3999449E-02
  0.3061225E+00  0.0000000E+00  0.2653061E+00  0.8268284E-06  0.0000000E+00  0.4000641E-02
  0.3469388E+00  0.0000000E+00  0.2653061E+00 -0.8165891E-06  0.0000000E+00  0.4001351E-02
  0.3877551E+00  0.0000000E+00  0.2653061E+00 -0.2885676E-05  0.0000000E+00  0.4001392E-02
  0.4285714E+00  0.0000000E+00  0.2653061E+00 -0.5302938E-05  0.0000000E+00  0.4000598E-02
  0.4693878E+00  0.0000000E+00  0.2653061E+00 -0.7963099E-05  0.0000000E+00  0.3998845E-02
  0.5102041E+00  0.0000000E+00  0.2653061E+00 -0.1074180E-04  0.0000000E+00  0.3996056E-02
  0.5510204E+00  0.0000000E+00  0.2653061E+00 -0.1350695E-04  0.0000000E+00  0.3992213E-02
  0.5918368E+00  0.0000000E+00  0.2653061E+00 -0.1613110E-04  0.0000000E+00  0.3987354E-02
  0.6326531E+00  0.0000000E+00  0.2653061E+00 -0.1850274E-04  0.0000000E+00  0.3981566E-02
  0.6734694E+00  0.0000000E+00  0.2653061E+00 -0.2053463E-04  0.0000000E+00  0.3974980E-02
  0.7142857E+00  0.0000000E+00  0.2653061E+00 -0.2216840E-04  0.0000000E+00  0.3967753E-02
  0.7551020E+00  0.0000000E+00  0.2653061E+00 -0.2337510E-04  0.0000000E+00  0.3960053E-02
  0.7959183E+00  0.0000000E+00  0.2653061E+00 -0.2415264E-04  0.0000000E+00  0.3952052E-02
  0.8367347E+00  0.0000000E+00  0.2653061E+00 -0.2452097E-04  0.0000000E+00  0.3943910E-02
  0.8775510E+00  0.0000000E+00  0.2653061E+00 -0.2451638E-04  0.0000000E+00  0.3935772E-02
  0.9183673E+00  0.0000000E+00  0.2653061E+00 -0.2418565E-04  0.0000000E+00  0.3927759E-02
  0.9591837E+00  0.0000000E+00  0.2653061E+00 -0.2358086E-04  0.0000000E+00  0.3919973E-02
  0.1000000E+01  0.0000000E+00  0.2653061E+00 -0.2275518E-04  0.0000000E+00  0.3912490E-02
  0.1040816E+01  0.0000000E+00  0.2653061E+00 -0.2175967E-04  0.0000000E+00  0.3905369E-02
  0.1081633E+01  0.0000000E+00  0.2653061E+00 -0.2064119E-04  0.0000000E+00  0.3898648E-02
  0.1122449E+01  0.0000000E+00  0.2653061E+00 -0.1944117E-04  0.0000000E+00  0.3892350E-02
  0.1163265E+01  0.0000000E+00  0.2653061E+00 -0.1819498E-04  0.0000000E+00  0.3886486E-02
  0.1204082E+01  0.0000000E+00  0.2653061E+00 -0.1693193E-04  0.0000000E+00  0.3881055E-02
  0.1244898E+01  0.0000000E+00  0.2653061E+00 -0.1567546E-04  0.0000000E+00  0.3876051E-02
  0.1285714E+01  0.0000000E+00  0.2653061E+00 -0.1444371E-04  0.0000000E+00  0.3871459E-02
  0.1326531E+01  0.0000000E+00  0.2653061E+00 -0.1325001E-04  0.0000000E+00  0.3867262E-02