title = "dataset feddes"
variables = "x", "y", "z", "h_w", "p_w", "s_w", "theta_w", "transp", "evap"
zone t = "Flow variables, solution time =  3.700E+01 days        " i =   50, j =   50, k =    1,  f=point
  0.0000000E+00  0.0000000E+00  0.0000000E+00  0.0000000E+00  0.0000000E+00  0.1000000E+01  0.4280000E+00  0.0000000E+00  0.0000000E+00
  0.4081633E-01  0.0000000E+00  0.0000000E+00  0.0000000E+00  0.0000000E+00  0.1000000E+01  0.4280000E+00  0.0000000E+00  0.0000000E+00
  0.8163265E-01  0.0000000E+00  0.0000000E+00  0.0000000E+00  0.0000000E+00  0.1000000E+01  0.4280000E+00  0.0000000E+00  0.0000000E+00
  0.1224490E+00  0.0000000E+00  0.0000000E+00  0.0000000E+00  0.0000000E+00  0.1000000E+01  0.4280000E+00  0.0000000E+00  0.0000000E+00
  0.1632653E+00  0.0000000E+00  0.0000000E+00  0.0000000E+00  0.0000000E+00  0.1000000E+01  0.4280000E+00  0.0000000E+00  0.0000000E+00
  0.2040816E+00  0.0000000E+00  0.0000000E+00  0.0000000E+00  0.0000000E+00  0.1000000E+01  0.4280000E+00  0.0000000E+00  0.0000000E+00
  0.2448980E+00  0.0000000E+00  0.0000000E+00  0.0000000E+00  0.0000000E+00  0.1000000E+01  0.4280000E+00  0.0000000E+00  0.0000000E+00
  0.2857143E+00  0.0000000E+00  0.0000000E+00  0.0000000E+00  0.0000000E+00  0.1000000E+01  0.4280000E+00  0.0000000E+00  0.0000000E+00
  0.3265306E+00  0.0000000E+00  0.0000000E+00  0.0000000E+00  0.0000000E+00  0.1000000E+01  0.4280000E+00  0.0000000E+00  0.0000000E+00
  0.3673469E+00  0.0000000E+00  0.0000000E+00  0.0000000E+00  0.0000000E+00  0.1000000E+01  0.4280000E+00  0.0000000E+00  0.0000000E+00
  0.4081633E+00  0.0000000E+00  0.0000000E+00  0.0000000E+00  0.0000000E+00  0.1000000E+01  0.4280000E+00  0.0000000E+00  0.0000000E+00
  0.4489796E+00  0.0000000E+00  0.0000000E+00  0.0000000E+00  0.0000000E+00  0.1000000E+01  0.4280000E+00  0.0000000E+00  0.0000000E+00
  0.4897959E+00  0.0000000E+00  0.0000000E+00  0.0000000E+00  0.0000000E+00  0.1000000E+01  0.4280000E+00  0.0000000E+00  0.0000000E+00
  0.5306122E+00  0.0000000E+00  0.0000000E+00  0.0000000E+00  0.0000000E+00  0.1000000E+01  0.4280000E+00  0.0000000E+00  0.0000000E+00
  0.5714286E+00  0.0000000E+00  0.0000000E+00  0.0000000E+00  0.0000000E+00  0.1000000E+01  0.4280000E+00  0.0000000E+00  0.0000000E+00
  0.6122449E+00  0.0000000E+00  0.0000000E+00  0.0000000E+00  0.0000000E+00  0.1000000E+01  0.4280000E+00  0.0000000E+00  0.0000000E+00
  0.6530612E+00  0.0000000E+00  0.0000000E+00  0.0000000E+00  0.0000000E+00  0.1000000E+01  0.4280000E+00  0.0000000E+00  0.0000000E+00
  0.6938776E+00  0.0000000E+00  0.0000000E+00  0.0000000E+00  0.0000000E+00  0.1000000E+01  0.4280000E+00  0.0000000E+00  0.0000000E+00
  0.7346939E+00  0.0000000E+00  0.0000000E+00  0.0000000E+00  0.0000000E+00  0.1000000E+01  0.4280000E+00  0.0000000E+00  0.0000000E+00
  0.7755102E+00  0.0000000E+00  0.0000000E+00  0.0000000E+00  0.0000000E+00  0.1000000E+01  0.4280000E+00  0.0000000E+00  0.0000000E+00
  0.8163265E+00  0.0000000E+00  0.0000000E+00  0.0000000E+00  0.0000000E+00  0.1000000E+01  0.4280000E+00  0.0000000E+00  0.0000000E+00
  0.8571429E+00  0.0000000E+00  0.0000000E+00  0.0000000E+00  0.0000000E+00  0.1000000E+01  0.4280000E+00  0.0000000E+00  0.0000000E+00
  0.8979592E+00  0.0000000E+00  0.0000000E+00  0.0000000E+00  0.0000000E+00  0.1000000E+01  0.4280000E+00  0.0000000E+00  0.0000000E+00
  0.9387755E+00  0.0000000E+00  0.0000000E+00  0.0000000E+00  0.0000000E+00  0.1000000E+01  0.4280000E+00  0.0000000E+00  0.0000000E+00
  0.9795918E+00  0.0000000E+00  0.0000000E+00  0.0000000E+00  0.0000000E+00  0.1000000E+01  0.4280000E+00  0.0000000E+00  0.0000000E+00
  0.1020408E+01  0.0000000E+00  0.0000000E+00  0.0000000E+00  0.0000000E+00  0.1000000E+01  0.4280000E+00  0.0000000E+00  0.0000000E+00
  0.1061224E+01  0.0000000E+00  0.0000000E+00  0.0000000E+00  0.0000000E+00  0.1000000E+01  0.4280000E+00  0.0000000E+00  0.0000000E+00
  0.1102041E+01  0.0000000E+00  0.0000000E+00  0.0000000E+00  0.0000000E+00  0.1000000E+01  0.4280000E+00  0.0000000E+00  0.0000000E+00
  0.1142857E+01  0.0000000E+00  0.0000000E+00  0.0000000E+00  0.0000000E+00  0.1000000E+01  0.4280000E+00  0.0000000E+00  0.0000000E+00
  0.1183673E+01  0.0000000E+00  0.0000000E+00  0.0000000E+00  0.0000000E+00  0.1000000E+01  0.4280000E+00  0.0000000E+00  0.0000000E+00
  0.1224490E+01  0.0000000E+00  0.0000000E+00  0.0000000E+00  0.0000000E+00  0.1000000E+01  0.4280000E+00  0.0000000E+00  0.0000000E+00
  0.1265306E+01  0.0000000E+00  0.0000000E+00  0.0000000E+00  0.0000000E+00  0.1000000E+01  0.4280000E+00  0.0000000E+00  0.0000000E+00
  0.1306122E+01  0.0000000E+00  0.0000000E+00  0.0000000E+00  0.0000000E+00  0.1000000E+01  0.4280000E+00  0.0000000E+00  0.0000000E+00
  0.1346939E+01  0.0000000E+00  0.0000000E+00  0.0000000E+00  0.0000000E+00  0.1000000E+01  0.4280000E+00  0.0000000E+00  0.0000000E+00
  0.1387755E+01  0.0000000E+00  0.0000000E+00  0.0000000E+00  0.0000000E+00  0.1000000E+01  0.4280000E+00  0.0000000E+00  0.0000000E+00
  0.1428571E+01  0.0000000E+00  0.0000000E+00  0.0000000E+00  0.0000000E+00  0.1000000E+01  0.4280000E+00  0.0000000E+00  0.0000000E+00
  0.1469388E+01  0.0000000E+00  0.0000000E+00  0.0000000E+00  0.0000000E+00  0.1000000E+01  0.4280000E+00  0.0000000E+00  0.0000000E+00
  0.1510204E+01  0.0000000E+00  0.0000000E+00  0.0000000E+00  0.0000000E+00  0.1000000E+01  0.4280000E+00  0.0000000E+00  0.0000000E+00
  0.1551020E+01  0.0000000E+00  0.0000000E+00  0.0000000E+00  0.0000000E+00  0.1000000E+01  0.4280000E+00  0.0000000E+00  0.0000000E+00
  0.1591837E+01  0.0000000E+00  0.0000000E+00  0.0000000E+00  0.0000000E+00  0.1000000E+01  0.4280000E+00  0.0000000E+00  0.0000000E+00
  0.1632653E+01  0.0000000E+00  0.0000000E+00  0.0000000E+00  0.0000000E+00  0.1000000E+01  0.4280000E+00  0.0000000E+00  0.0000000E+00
  0.1673469E+01  0.0000000E+00  0.0000000E+00  0.0000000E+00  0.0000000E+00  0.1000000E+01  0.4280000E+00  0.0000000E+00  0.0000000E+00
  0.1714286E+01  0.0000000E+00  0.0000000E+00  0.0000000E+00  0.0000000E+00  0.1000000E+01  0.4280000E+00  0.0000000E+00  0.0000000E+00
  0.1755102E+01  0.0000000E+00  0.0000000E+00  0.0000000E+00  0.0000000E+00  0.1000000E+01  0.4280000E+00  0.0000000E+00  0.0000000E+00
  0.1795918E+01  0.0000000E+00  0.0000000E+00  0.0000000E+00  0.0000000E+00  0.1000000E+01  0.4280000E+00  0.0000000E+00  0.0000000E+00
  0.1836735E+01  0.0000000E+00  0.0000000E+00  0.0000000E+00  0.0000000E+00  0.1000000E+01  0.4280000E+00  0.0000000E+00  0.0000000E+00
  0.1877551E+01  0.0000000E+00  0.0000000E+00  0.0000000E+00  0.0000000E+00  0.1000000E+01  0.4280000E+00  0.0000000E+00  0.0000000E+00
  0.1918367E+01  0.0000000E+00  0.0000000E+00  0.0000000E+00  0.0000000E+00  0.1000000E+01  0.4280000E+00  0.0000000E+00  0.0000000E+00
  0.1959184E+01  0.0000000E+00  0.0000000E+00  0.0000000E+00  0.0000000E+00  0.1000000E+01  0.4280000E+00  0.0000000E+00  0.0000000E+00
  0.2000000E+01  0.0000000E+00  0.0000000E+00  0.0000000E+00  0.0000000E+00  0.1000000E+01  0.4280000E+00  0.0000000E+00  0.0000000E+00
  0.0000000E+00  0.0000000E+00  0.4081633E-01 -0.6903083E-04 -0.4088536E-01  0.9960518E+00  0.4263102E+00  0.0000000E+00  0.0000000E+00
  0.4081633E-01  0.0000000E+00  0.4081633E-01 -0.6904569E-04 -0.4088537E-01  0.9960518E+00  0.4263102E+00  0.0000000E+00  0.0000000E+00
  0.8163265E-01  0.0000000E+00  0.4081633E-01 -0.6908693E-04 -0.4088541E-01  0.9960518E+00  0.4263102E+00  0.0000000E+00  0.0000000E+00
  0.1224490E+00  0.0000000E+00  0.4081633E-01 -0.6914458E-04 -0.4088547E-01  0.9960518E+00  0.4263102E+00  0.0000000E+00  0.0000000E+00
  0.1632653E+00  0.0000000E+00  0.4081633E-01 -0.6920260E-04 -0.4088553E-01  0.9960518E+00  0.4263102E+00  0.0000000E+00  0.0000000E+00
  0.2040816E+00  0.0000000E+00  0.4081633E-01 -0.6923982E-04 -0.4088557E-01  0.9960518E+00  0.4263102E+00  0.0000000E+00  0.0000000E+00
  0.2448980E+00  0.0000000E+00  0.4081633E-01 -0.6923112E-04 -0.4088556E-01  0.9960518E+00  0.4263102E+00  0.0000000E+00  0.0000000E+00
  0.2857143E+00  0.0000000E+00  0.4081633E-01 -0.6914891E-04 -0.4088548E-01  0.9960518E+00  0.4263102E+00  0.0000000E+00  0.0000000E+00
  0.3265306E+00  0.0000000E+00  0.4081633E-01 -0.6896493E-04 -0.4088529E-01  0.9960519E+00  0.4263102E+00  0.0000000E+00  0.0000000E+00
  0.3673469E+00  0.0000000E+00  0.4081633E-01 -0.6865200E-04 -0.4088498E-01  0.9960519E+00  0.4263102E+00  0.0000000E+00  0.0000000E+00
  0.4081633E+00  0.0000000E+00  0.4081633E-01 -0.6818586E-04 -0.4088451E-01  0.9960520E+00  0.4263102E+00  0.0000000E+00  0.0000000E+00
  0.4489796E+00  0.0000000E+00  0.4081633E-01 -0.6754688E-04 -0.4088387E-01  0.9960520E+00  0.4263103E+00  0.0000000E+00  0.0000000E+00
  0.4897959E+00  0.0000000E+00  0.4081633E-01 -0.6672136E-04 -0.4088305E-01  0.9960522E+00  0.4263103E+00  0.0000000E+00  0.0000000E+00
  0.5306122E+00  0.0000000E+00  0.4081633E-01 -0.6570251E-04 -0.4088203E-01  0.9960523E+00  0.4263104E+00  0.0000000E+00  0.0000000E+00
  0.5714286E+00  0.0000000E+00  0.4081633E-01 -0.6449087E-04 -0.4088082E-01  0.9960524E+00  0.4263104E+00  0.0000000E+00  0.0000000E+00
  0.6122449E+00  0.0000000E+00  0.4081633E-01 -0.6309415E-04 -0.4087942E-01  0.9960526E+00  0.4263105E+00  0.0000000E+00  0.0000000E+00
  0.6530612E+00  0.0000000E+00  0.4081633E-01 -0.6152666E-04 -0.4087785E-01  0.9960528E+00  0.4263106E+00  0.0000000E+00  0.0000000E+00
  0.6938776E+00  0.0000000E+00  0.4081633E-01 -0.5980824E-04 -0.4087613E-01  0.9960531E+00  0.4263107E+00  0.0000000E+00  0.0000000E+00
  0.7346939E+00  0.0000000E+00  0.4081633E-01 -0.5796293E-04 -0.4087429E-01  0.9960533E+00  0.4263108E+00  0.0000000E+00  0.0000000E+00
  0.7755102E+00  0.0000000E+00  0.4081633E-01 -0.5601751E-04 -0.4087234E-01  0.9960536E+00  0.4263109E+00  0.0000000E+00  0.0000000E+00
  0.8163265E+00  0.0000000E+00  0.4081633E-01 -0.5400004E-04 -0.4087033E-01  0.9960538E+00  0.4263110E+00  0.0000000E+00  0.0000000E+00
  0.8571429E+00  0.0000000E+00  0.4081633E-01 -0.5193852E-04 -0.4086827E-01  0.9960541E+00  0.4263112E+00  0.0000000E+00  0.0000000E+00
  0.8979592E+00  0.0000000E+00  0.4081633E-01 -0.4985975E-04 -0.4086619E-01  0.9960544E+00  0.4263113E+00  0.0000000E+00  0.0000000E+00
  0.9387755E+00  0.0000000E+00  0.4081633E-01 -0.4778844E-04 -0.4086411E-01  0.9960546E+00  0.4263114E+00  0.0000000E+00  0.0000000E+00
  0.9795918E+00  0.0000000E+00  0.4081633E-01 -0.4574663E-04 -0.4086207E-01  0.9960549E+00  0.4263115E+00  0.0000000E+00  0.0000000E+00
  0.1020408E+01  0.0000000E+00  0.4081633E-01 -0.4375324E-04 -0.4086008E-01  0.9960552E+00  0.4263116E+00  0.0000000E+00  0.0000000E+00
  0.1061224E+01  0.0000000E+00  0.4081633E-01 -0.4182405E-04 -0.4085815E-01  0.9960554E+00  0.4263117E+00  0.0000000E+00  0.0000000E+00
  0.1102041E+01  0.0000000E+00  0.4081633E-01 -0.3997162E-04 -0.4085630E-01  0.9960557E+00  0.4263118E+00  0.0000000E+00  0.0000000E+00
  0.1142857E+01  0.0000000E+00  0.4081633E-01 -0.3820556E-04 -0.4085453E-01  0.9960559E+00  0.4263119E+00  0.0000000E+00  0.0000000E+00
  0.1183673E+01  0.0000000E+00  0.4081633E-01 -0.3653271E-04 -0.4085286E-01  0.9960561E+00  0.4263120E+00  0.0000000E+00  0.0000000E+00
  0.1224490E+01  0.0000000E+00  0.4081633E-01 -0.3495753E-04 -0.4085128E-01  0.9960563E+00  0.4263121E+00  0.0000000E+00  0.0000000E+00
  0.1265306E+01  0.0000000E+00  0.4081633E-01 -0.3348244E-04 -0.4084981E-01  0.9960565E+00  0.4263122E+00  0.0000000E+00  0.0000000E+00
  0.1306122E+01  0.0000000E+00  0.4081633E-01 -0.3210814E-04 -0.4084843E-01  0.9960567E+00  0.4263123E+00  0.0000000E+00  0.0000000E+00
  0.1346939E+01  0.0000000E+00  0.4081633E-01 -0.3083399E-04 -0.4084716E-01  0.9960569E+00  0.4263123E+00  0.0000000E+00  0.0000000E+00
  0.1387755E+01  0.0000000E+00  0.4081633E-01 -0.2965828E-04 -0.4084598E-01  0.9960570E+00  0.4263124E+00  0.0000000E+00  0.0000000E+00
  0.1428571E+01  0.0000000E+00  0.4081633E-01 -0.2857857E-04 -0.4084491E-01  0.9960572E+00  0.4263125E+00  0.0000000E+00  0.0000000E+00
  0.1469388E+01  0.0000000E+00  0.4081633E-01 -0.2759190E-04 -0.4084392E-01  0.9960573E+00  0.4263125E+00  0.0000000E+00  0.0000000E+00
  0.1510204E+01  0.0000000E+00  0.4081633E-01 -0.2669500E-04 -0.4084302E-01  0.9960574E+00  0.4263126E+00  0.0000000E+00  0.0000000E+00
  0.1551020E+01  0.0000000E+00  0.4081633E-01 -0.2588448E-04 -0.4084221E-01  0.9960575E+00  0.4263126E+00  0.0000000E+00  0.0000000E+00
  0.1591837E+01  0.0000000E+00  0.4081633E-01 -0.2515698E-04 -0.4084148E-01  0.9960576E+00  0.4263127E+00  0.0000000E+00  0.0000000E+00
  0.1632653E+01  0.0000000E+00  0.4081633E-01 -0.2450923E-04 -0.4084084E-01  0.9960577E+00  0.4263127E+00  0.0000000E+00  0.0000000E+00
  0.1673469E+01  0.0000000E+00  0.4081633E-01 -0.2393818E-04 -0.4084026E-01  0.9960578E+00  0.4263127E+00  0.0000000E+00  0.0000000E+00
  0.1714286E+01  0.0000000E+00  0.4081633E-01 -0.2344103E-04 -0.4083977E-01  0.9960579E+00  0.4263128E+00  0.0000000E+00  0.0000000E+00
  0.1755102E+01  0.0000000E+00  0.4081633E-01 -0.2301528E-04 -0.4083934E-01  0.9960579E+00  0.4263128E+00  0.0000000E+00  0.0000000E+00
  0.1795918E+01  0.0000000E+00  0.4081633E-01 -0.2265874E-04 -0.4083899E-01  0.9960580E+00  0.4263128E+00  0.0000000E+00  0.0000000E+00
  0.1836735E+01  0.0000000E+00  0.4081633E-01 -0.2236956E-04 -0.4083870E-01  0.9960580E+00  0.4263128E+00  0.0000000E+00  0.0000000E+00
  0.1877551E+01  0.0000000E+00  0.4081633E-01 -0.2214622E-04 -0.4083847E-01  0.9960580E+00  0.4263128E+00  0.0000000E+00  0.0000000E+00
  0.1918367E+01  0.0000000E+00  0.4081633E-01 -0.2198752E-04 -0.4083831E-01  0.9960581E+00  0.4263128E+00  0.0000000E+00  0.0000000E+00
  0.1959184E+01  0.0000000E+00  0.4081633E-01 -0.2189264E-04 -0.4083822E-01  0.9960581E+00  0.4263129E+00  0.0000000E+00  0.0000000E+00
  0.2000000E+01  0.0000000E+00  0.4081633E-01 -0.2186106E-04 -0.4083819E-01  0.9960581E+00  0.4263129E+00  0.0000000E+00  0.0000000E+00
  0.0000000E+00  0.0000000E+00  0.8163265E-01 -0.2171614E-03 -0.8184981E-01  0.9898697E+00  0.4236642E+00  0.0000000E+00  0.0000000E+00
  0.4081633E-01  0.0000000E+00  0.8163265E-01 -0.2172115E-03 -0.8184986E-01  0.9898697E+00  0.4236642E+00  0.0000000E+00  0.0000000E+00
  0.8163265E-01  0.0000000E+00  0.8163265E-01 -0.2173513E-03 -0.8185000E-01  0.9898697E+00  0.4236642E+00  0.0000000E+00  0.0000000E+00
  0.1224490E+00  0.0000000E+00  0.8163265E-01 -0.2175488E-03 -0.8185020E-01  0.9898697E+00  0.4236642E+00  0.0000000E+00  0.0000000E+00
  0.1632653E+00  0.0000000E+00  0.8163265E-01 -0.2177526E-03 -0.8185041E-01  0.9898696E+00  0.4236642E+00  0.0000000E+00  0.0000000E+00
  0.2040816E+00  0.0000000E+00  0.8163265E-01 -0.2178949E-03 -0.8185055E-01  0.9898696E+00  0.4236642E+00  0.0000000E+00  0.0000000E+00
  0.2448980E+00  0.0000000E+00  0.8163265E-01 -0.2178951E-03 -0.8185055E-01  0.9898696E+00  0.4236642E+00  0.0000000E+00  0.0000000E+00
  0.2857143E+00  0.0000000E+00  0.8163265E-01 -0.2176646E-03 -0.8185032E-01  0.9898696E+00  0.4236642E+00  0.0000000E+00  0.0000000E+00
  0.3265306E+00  0.0000000E+00  0.8163265E-01 -0.2171127E-03 -0.8184977E-01  0.9898697E+00  0.4236642E+00  0.0000000E+00  0.0000000E+00
  0.3673469E+00  0.0000000E+00  0.8163265E-01 -0.2161520E-03 -0.8184881E-01  0.9898699E+00  0.4236643E+00  0.0000000E+00  0.0000000E+00
  0.4081633E+00  0.0000000E+00  0.8163265E-01 -0.2147044E-03 -0.8184736E-01  0.9898701E+00  0.4236644E+00  0.0000000E+00  0.0000000E+00
  0.4489796E+00  0.0000000E+00  0.8163265E-01 -0.2127069E-03 -0.8184536E-01  0.9898705E+00  0.4236646E+00  0.0000000E+00  0.0000000E+00
  0.4897959E+00  0.0000000E+00  0.8163265E-01 -0.2101154E-03 -0.8184277E-01  0.9898709E+00  0.4236647E+00  0.0000000E+00  0.0000000E+00
  0.5306122E+00  0.0000000E+00  0.8163265E-01 -0.2069080E-03 -0.8183956E-01  0.9898714E+00  0.4236650E+00  0.0000000E+00  0.0000000E+00
  0.5714286E+00  0.0000000E+00  0.8163265E-01 -0.2030867E-03 -0.8183574E-01  0.9898721E+00  0.4236652E+00  0.0000000E+00  0.0000000E+00
  0.6122449E+00  0.0000000E+00  0.8163265E-01 -0.1986764E-03 -0.8183133E-01  0.9898728E+00  0.4236656E+00  0.0000000E+00  0.0000000E+00
  0.6530612E+00  0.0000000E+00  0.8163265E-01 -0.1937232E-03 -0.8182638E-01  0.9898736E+00  0.4236659E+00  0.0000000E+00  0.0000000E+00
  0.6938776E+00  0.0000000E+00  0.8163265E-01 -0.1882908E-03 -0.8182094E-01  0.9898745E+00  0.4236663E+00  0.0000000E+00  0.0000000E+00
  0.7346939E+00  0.0000000E+00  0.8163265E-01 -0.1824565E-03 -0.8181511E-01  0.9898755E+00  0.4236667E+00  0.0000000E+00  0.0000000E+00
  0.7755102E+00  0.0000000E+00  0.8163265E-01 -0.1763059E-03 -0.8180896E-01  0.9898765E+00  0.4236672E+00  0.0000000E+00  0.0000000E+00
  0.8163265E+00  0.0000000E+00  0.8163265E-01 -0.1699288E-03 -0.8180258E-01  0.9898776E+00  0.4236676E+00  0.0000000E+00  0.0000000E+00
  0.8571429E+00  0.0000000E+00  0.8163265E-01 -0.1634145E-03 -0.8179607E-01  0.9898787E+00  0.4236681E+00  0.0000000E+00  0.0000000E+00
  0.8979592E+00  0.0000000E+00  0.8163265E-01 -0.1568480E-03 -0.8178950E-01  0.9898798E+00  0.4236685E+00  0.0000000E+00  0.0000000E+00
  0.9387755E+00  0.0000000E+00  0.8163265E-01 -0.1503080E-03 -0.8178296E-01  0.9898809E+00  0.4236690E+00  0.0000000E+00  0.0000000E+00
  0.9795918E+00  0.0000000E+00  0.8163265E-01 -0.1438639E-03 -0.8177652E-01  0.9898819E+00  0.4236695E+00  0.0000000E+00  0.0000000E+00
  0.1020408E+01  0.0000000E+00  0.8163265E-01 -0.1375756E-03 -0.8177023E-01  0.9898830E+00  0.4236699E+00  0.0000000E+00  0.0000000E+00
  0.1061224E+01  0.0000000E+00  0.8163265E-01 -0.1314926E-03 -0.8176415E-01  0.9898840E+00  0.4236703E+00  0.0000000E+00  0.0000000E+00
  0.1102041E+01  0.0000000E+00  0.8163265E-01 -0.1256543E-03 -0.8175831E-01  0.9898850E+00  0.4236708E+00  0.0000000E+00  0.0000000E+00
  0.1142857E+01  0.0000000E+00  0.8163265E-01 -0.1200905E-03 -0.8175274E-01  0.9898859E+00  0.4236712E+00  0.0000000E+00  0.0000000E+00
  0.1183673E+01  0.0000000E+00  0.8163265E-01 -0.1148226E-03 -0.8174748E-01  0.9898868E+00  0.4236715E+00  0.0000000E+00  0.0000000E+00
  0.1224490E+01  0.0000000E+00  0.8163265E-01 -0.1098641E-03 -0.8174252E-01  0.9898876E+00  0.4236719E+00  0.0000000E+00  0.0000000E+00
  0.1265306E+01  0.0000000E+00  0.8163265E-01 -0.1052224E-03 -0.8173788E-01  0.9898884E+00  0.4236722E+00  0.0000000E+00  0.0000000E+00
  0.1306122E+01  0.0000000E+00  0.8163265E-01 -0.1008991E-03 -0.8173355E-01  0.9898891E+00  0.4236725E+00  0.0000000E+00  0.0000000E+00
  0.1346939E+01  0.0000000E+00  0.8163265E-01 -0.9689208E-04 -0.8172955E-01  0.9898897E+00  0.4236728E+00  0.0000000E+00  0.0000000E+00
  0.1387755E+01  0.0000000E+00  0.8163265E-01 -0.9319557E-04 -0.8172585E-01  0.9898904E+00  0.4236731E+00  0.0000000E+00  0.0000000E+00
  0.1428571E+01  0.0000000E+00  0.8163265E-01 -0.8980165E-04 -0.8172245E-01  0.9898909E+00  0.4236733E+00  0.0000000E+00  0.0000000E+00
  0.1469388E+01  0.0000000E+00  0.8163265E-01 -0.8670077E-04 -0.8171935E-01  0.9898914E+00  0.4236735E+00  0.0000000E+00  0.0000000E+00
  0.1510204E+01  0.0000000E+00  0.8163265E-01 -0.8388248E-04 -0.8171654E-01  0.9898919E+00  0.4236737E+00  0.0000000E+00  0.0000000E+00
  0.1551020E+01  0.0000000E+00  0.8163265E-01 -0.8133597E-04 -0.8171399E-01  0.9898923E+00  0.4236739E+00  0.0000000E+00  0.0000000E+00
  0.1591837E+01  0.0000000E+00  0.8163265E-01 -0.7905051E-04 -0.8171170E-01  0.9898927E+00  0.4236741E+00  0.0000000E+00  0.0000000E+00
  0.1632653E+01  0.0000000E+00  0.8163265E-01 -0.7701577E-04 -0.8170967E-01  0.9898931E+00  0.4236742E+00  0.0000000E+00  0.0000000E+00
  0.1673469E+01  0.0000000E+00  0.8163265E-01 -0.7522208E-04 -0.8170788E-01  0.9898934E+00  0.4236744E+00  0.0000000E+00  0.0000000E+00
  0.1714286E+01  0.0000000E+00  0.8163265E-01 -0.7366060E-04 -0.8170631E-01  0.9898936E+00  0.4236745E+00  0.0000000E+00  0.0000000E+00
  0.1755102E+01  0.0000000E+00  0.8163265E-01 -0.7232343E-04 -0.8170498E-01  0.9898938E+00  0.4236746E+00  0.0000000E+00  0.0000000E+00
  0.1795918E+01  0.0000000E+00  0.8163265E-01 -0.7120366E-04 -0.8170386E-01  0.9898940E+00  0.4236746E+00  0.0000000E+00  0.0000000E+00
  0.1836735E+01  0.0000000E+00  0.8163265E-01 -0.7029545E-04 -0.8170295E-01  0.9898942E+00  0.4236747E+00  0.0000000E+00  0.0000000E+00
  0.1877551E+01  0.0000000E+00  0.8163265E-01 -0.6959401E-04 -0.8170225E-01  0.9898943E+00  0.4236748E+00  0.0000000E+00  0.0000000E+00
  0.1918367E+01  0.0000000E+00  0.8163265E-01 -0.6909563E-04 -0.8170175E-01  0.9898944E+00  0.4236748E+00  0.0000000E+00  0.0000000E+00
  0.1959184E+01  0.0000000E+00  0.8163265E-01 -0.6879765E-04 -0.8170145E-01  0.9898944E+00  0.4236748E+00  0.0000000E+00  0.0000000E+00
  0.2000000E+01  0.0000000E+00  0.8163265E-01 -0.6869849E-04 -0.8170135E-01  0.9898944E+00  0.4236748E+00  0.0000000E+00  0.0000000E+00
  0.0000000E+00  0.0000000E+00  0.1224490E+00 -0.4160909E-03 -0.1228651E+00  0.9825820E+00  0.4205451E+00  0.0000000E+00  0.0000000E+00
  0.4081633E-01  0.0000000E+00  0.1224490E+00 -0.4161994E-03 -0.1228652E+00  0.9825820E+00  0.4205451E+00  0.0000000E+00  0.0000000E+00
  0.8163265E-01  0.0000000E+00  0.1224490E+00 -0.4165036E-03 -0.1228655E+00  0.9825819E+00  0.4205451E+00  0.0000000E+00  0.0000000E+00
  0.1224490E+00  0.0000000E+00  0.1224490E+00 -0.4169405E-03 -0.1228659E+00  0.9825818E+00  0.4205450E+00  0.0000000E+00  0.0000000E+00
  0.1632653E+00  0.0000000E+00  0.1224490E+00 -0.4174082E-03 -0.1228664E+00  0.9825818E+00  0.4205450E+00  0.0000000E+00  0.0000000E+00
  0.2040816E+00  0.0000000E+00  0.1224490E+00 -0.4177724E-03 -0.1228668E+00  0.9825817E+00  0.4205450E+00  0.0000000E+00  0.0000000E+00
  0.2448980E+00  0.0000000E+00  0.1224490E+00 -0.4178729E-03 -0.1228669E+00  0.9825817E+00  0.4205450E+00  0.0000000E+00  0.0000000E+00
  0.2857143E+00  0.0000000E+00  0.1224490E+00 -0.4175340E-03 -0.1228665E+00  0.9825817E+00  0.4205450E+00  0.0000000E+00  0.0000000E+00
  0.3265306E+00  0.0000000E+00  0.1224490E+00 -0.4165747E-03 -0.1228656E+00  0.9825819E+00  0.4205451E+00  0.0000000E+00  0.0000000E+00
  0.3673469E+00  0.0000000E+00  0.1224490E+00 -0.4148209E-03 -0.1228638E+00  0.9825822E+00  0.4205452E+00  0.0000000E+00  0.0000000E+00
  0.4081633E+00  0.0000000E+00  0.1224490E+00 -0.4121169E-03 -0.1228611E+00  0.9825827E+00  0.4205454E+00  0.0000000E+00  0.0000000E+00
  0.4489796E+00  0.0000000E+00  0.1224490E+00 -0.4083366E-03 -0.1228573E+00  0.9825835E+00  0.4205457E+00  0.0000000E+00  0.0000000E+00
  0.4897959E+00  0.0000000E+00  0.1224490E+00 -0.4033922E-03 -0.1228524E+00  0.9825844E+00  0.4205461E+00  0.0000000E+00  0.0000000E+00
  0.5306122E+00  0.0000000E+00  0.1224490E+00 -0.3972405E-03 -0.1228462E+00  0.9825855E+00  0.4205466E+00  0.0000000E+00  0.0000000E+00
  0.5714286E+00  0.0000000E+00  0.1224490E+00 -0.3898854E-03 -0.1228389E+00  0.9825869E+00  0.4205472E+00  0.0000000E+00  0.0000000E+00
  0.6122449E+00  0.0000000E+00  0.1224490E+00 -0.3813771E-03 -0.1228304E+00  0.9825885E+00  0.4205479E+00  0.0000000E+00  0.0000000E+00
  0.6530612E+00  0.0000000E+00  0.1224490E+00 -0.3718081E-03 -0.1228208E+00  0.9825903E+00  0.4205486E+00  0.0000000E+00  0.0000000E+00
  0.6938776E+00  0.0000000E+00  0.1224490E+00 -0.3613054E-03 -0.1228103E+00  0.9825923E+00  0.4205495E+00  0.0000000E+00  0.0000000E+00
  0.7346939E+00  0.0000000E+00  0.1224490E+00 -0.3500224E-03 -0.1227990E+00  0.9825944E+00  0.4205504E+00  0.0000000E+00  0.0000000E+00
  0.7755102E+00  0.0000000E+00  0.1224490E+00 -0.3381291E-03 -0.1227871E+00  0.9825966E+00  0.4205513E+00  0.0000000E+00  0.0000000E+00
  0.8163265E+00  0.0000000E+00  0.1224490E+00 -0.3258022E-03 -0.1227748E+00  0.9825989E+00  0.4205523E+00  0.0000000E+00  0.0000000E+00
  0.8571429E+00  0.0000000E+00  0.1224490E+00 -0.3132171E-03 -0.1227622E+00  0.9826013E+00  0.4205533E+00  0.0000000E+00  0.0000000E+00
  0.8979592E+00  0.0000000E+00  0.1224490E+00 -0.3005402E-03 -0.1227495E+00  0.9826036E+00  0.4205544E+00  0.0000000E+00  0.0000000E+00
  0.9387755E+00  0.0000000E+00  0.1224490E+00 -0.2879241E-03 -0.1227369E+00  0.9826060E+00  0.4205554E+00  0.0000000E+00  0.0000000E+00
  0.9795918E+00  0.0000000E+00  0.1224490E+00 -0.2755036E-03 -0.1227245E+00  0.9826083E+00  0.4205564E+00  0.0000000E+00  0.0000000E+00
  0.1020408E+01  0.0000000E+00  0.1224490E+00 -0.2633936E-03 -0.1227124E+00  0.9826106E+00  0.4205573E+00  0.0000000E+00  0.0000000E+00
  0.1061224E+01  0.0000000E+00  0.1224490E+00 -0.2516889E-03 -0.1227007E+00  0.9826128E+00  0.4205583E+00  0.0000000E+00  0.0000000E+00
  0.1102041E+01  0.0000000E+00  0.1224490E+00 -0.2404642E-03 -0.1226894E+00  0.9826149E+00  0.4205592E+00  0.0000000E+00  0.0000000E+00
  0.1142857E+01  0.0000000E+00  0.1224490E+00 -0.2297759E-03 -0.1226788E+00  0.9826169E+00  0.4205600E+00  0.0000000E+00  0.0000000E+00
  0.1183673E+01  0.0000000E+00  0.1224490E+00 -0.2196635E-03 -0.1226686E+00  0.9826188E+00  0.4205608E+00  0.0000000E+00  0.0000000E+00
  0.1224490E+01  0.0000000E+00  0.1224490E+00 -0.2101517E-03 -0.1226591E+00  0.9826206E+00  0.4205616E+00  0.0000000E+00  0.0000000E+00
  0.1265306E+01  0.0000000E+00  0.1224490E+00 -0.2012532E-03 -0.1226502E+00  0.9826222E+00  0.4205623E+00  0.0000000E+00  0.0000000E+00
  0.1306122E+01  0.0000000E+00  0.1224490E+00 -0.1929701E-03 -0.1226419E+00  0.9826238E+00  0.4205630E+00  0.0000000E+00  0.0000000E+00
  0.1346939E+01  0.0000000E+00  0.1224490E+00 -0.1852969E-03 -0.1226343E+00  0.9826252E+00  0.4205636E+00  0.0000000E+00  0.0000000E+00
  0.1387755E+01  0.0000000E+00  0.1224490E+00 -0.1782216E-03 -0.1226272E+00  0.9826265E+00  0.4205642E+00  0.0000000E+00  0.0000000E+00
  0.1428571E+01  0.0000000E+00  0.1224490E+00 -0.1717281E-03 -0.1226207E+00  0.9826278E+00  0.4205647E+00  0.0000000E+00  0.0000000E+00
  0.1469388E+01  0.0000000E+00  0.1224490E+00 -0.1657973E-03 -0.1226148E+00  0.9826289E+00  0.4205652E+00  0.0000000E+00  0.0000000E+00
  0.1510204E+01  0.0000000E+00  0.1224490E+00 -0.1604085E-03 -0.1226094E+00  0.9826299E+00  0.4205656E+00  0.0000000E+00  0.0000000E+00
  0.1551020E+01  0.0000000E+00  0.1224490E+00 -0.1555406E-03 -0.1226045E+00  0.9826308E+00  0.4205660E+00  0.0000000E+00  0.0000000E+00
  0.1591837E+01  0.0000000E+00  0.1224490E+00 -0.1511726E-03 -0.1226002E+00  0.9826316E+00  0.4205663E+00  0.0000000E+00  0.0000000E+00
  0.1632653E+01  0.0000000E+00  0.1224490E+00 -0.1472843E-03 -0.1225963E+00  0.9826323E+00  0.4205666E+00  0.0000000E+00  0.0000000E+00
  0.1673469E+01  0.0000000E+00  0.1224490E+00 -0.1438570E-03 -0.1225928E+00  0.9826330E+00  0.4205669E+00  0.0000000E+00  0.0000000E+00
  0.1714286E+01  0.0000000E+00  0.1224490E+00 -0.1408737E-03 -0.1225899E+00  0.9826335E+00  0.4205671E+00  0.0000000E+00  0.0000000E+00
  0.1755102E+01  0.0000000E+00  0.1224490E+00 -0.1383191E-03 -0.1225873E+00  0.9826340E+00  0.4205674E+00  0.0000000E+00  0.0000000E+00
  0.1795918E+01  0.0000000E+00  0.1224490E+00 -0.1361799E-03 -0.1225852E+00  0.9826344E+00  0.4205675E+00  0.0000000E+00  0.0000000E+00
  0.1836735E+01  0.0000000E+00  0.1224490E+00 -0.1344449E-03 -0.1225834E+00  0.9826347E+00  0.4205677E+00  0.0000000E+00  0.0000000E+00
  0.1877551E+01  0.0000000E+00  0.1224490E+00 -0.1331050E-03 -0.1225821E+00  0.9826350E+00  0.4205678E+00  0.0000000E+00  0.0000000E+00
  0.1918367E+01  0.0000000E+00  0.1224490E+00 -0.1321530E-03 -0.1225811E+00  0.9826352E+00  0.4205678E+00  0.0000000E+00  0.0000000E+00
  0.1959184E+01  0.0000000E+00  0.1224490E+00 -0.1315838E-03 -0.1225806E+00  0.9826353E+00  0.4205679E+00  0.0000000E+00  0.0000000E+00
  0.2000000E+01  0.0000000E+00  0.1224490E+00 -0.1313943E-03 -0.1225804E+00  0.9826353E+00  0.4205679E+00  0.0000000E+00  0.0000000E+00
  0.0000000E+00  0.0000000E+00  0.1632653E+00 -0.6676363E-03 -0.1639329E+00  0.9745974E+00  0.4171277E+00  0.0000000E+00  0.0000000E+00
  0.4081633E-01  0.0000000E+00  0.1632653E+00 -0.6678401E-03 -0.1639331E+00  0.9745974E+00  0.4171277E+00  0.0000000E+00  0.0000000E+00
  0.8163265E-01  0.0000000E+00  0.1632653E+00 -0.6684159E-03 -0.1639337E+00  0.9745973E+00  0.4171276E+00  0.0000000E+00  0.0000000E+00
  0.1224490E+00  0.0000000E+00  0.1632653E+00 -0.6692576E-03 -0.1639346E+00  0.9745971E+00  0.4171276E+00  0.0000000E+00  0.0000000E+00
  0.1632653E+00  0.0000000E+00  0.1632653E+00 -0.6701943E-03 -0.1639355E+00  0.9745969E+00  0.4171275E+00  0.0000000E+00  0.0000000E+00
  0.2040816E+00  0.0000000E+00  0.1632653E+00 -0.6709994E-03 -0.1639363E+00  0.9745967E+00  0.4171274E+00  0.0000000E+00  0.0000000E+00
  0.2448980E+00  0.0000000E+00  0.1632653E+00 -0.6714031E-03 -0.1639367E+00  0.9745967E+00  0.4171274E+00  0.0000000E+00  0.0000000E+00
  0.2857143E+00  0.0000000E+00  0.1632653E+00 -0.6711077E-03 -0.1639364E+00  0.9745967E+00  0.4171274E+00  0.0000000E+00  0.0000000E+00
  0.3265306E+00  0.0000000E+00  0.1632653E+00 -0.6698065E-03 -0.1639351E+00  0.9745970E+00  0.4171275E+00  0.0000000E+00  0.0000000E+00
  0.3673469E+00  0.0000000E+00  0.1632653E+00 -0.6672037E-03 -0.1639325E+00  0.9745975E+00  0.4171277E+00  0.0000000E+00  0.0000000E+00
  0.4081633E+00  0.0000000E+00  0.1632653E+00 -0.6630343E-03 -0.1639283E+00  0.9745983E+00  0.4171281E+00  0.0000000E+00  0.0000000E+00
  0.4489796E+00  0.0000000E+00  0.1632653E+00 -0.6570836E-03 -0.1639224E+00  0.9745995E+00  0.4171286E+00  0.0000000E+00  0.0000000E+00
  0.4897959E+00  0.0000000E+00  0.1632653E+00 -0.6492023E-03 -0.1639145E+00  0.9746011E+00  0.4171293E+00  0.0000000E+00  0.0000000E+00
  0.5306122E+00  0.0000000E+00  0.1632653E+00 -0.6393171E-03 -0.1639046E+00  0.9746031E+00  0.4171301E+00  0.0000000E+00  0.0000000E+00
  0.5714286E+00  0.0000000E+00  0.1632653E+00 -0.6274358E-03 -0.1638927E+00  0.9746055E+00  0.4171311E+00  0.0000000E+00  0.0000000E+00
  0.6122449E+00  0.0000000E+00  0.1632653E+00 -0.6136450E-03 -0.1638790E+00  0.9746082E+00  0.4171323E+00  0.0000000E+00  0.0000000E+00
  0.6530612E+00  0.0000000E+00  0.1632653E+00 -0.5981026E-03 -0.1638634E+00  0.9746114E+00  0.4171337E+00  0.0000000E+00  0.0000000E+00
  0.6938776E+00  0.0000000E+00  0.1632653E+00 -0.5810252E-03 -0.1638463E+00  0.9746148E+00  0.4171351E+00  0.0000000E+00  0.0000000E+00
  0.7346939E+00  0.0000000E+00  0.1632653E+00 -0.5626722E-03 -0.1638280E+00  0.9746185E+00  0.4171367E+00  0.0000000E+00  0.0000000E+00