title = "dataset feddes"
variables = "x", "y", "z", "vx", "vy", "vz"
zone t = "velocities, solution time =  4.600E+01 days        " i =   49, j =   49, k =    1,  f=point
  0.2040816E-01  0.0000000E+00  0.2040816E-01  0.5547617E-07  0.0000000E+00  0.9571420E-03
  0.6122449E-01  0.0000000E+00  0.2040816E-01  0.1538918E-06  0.0000000E+00  0.9575914E-03
  0.1020408E+00  0.0000000E+00  0.2040816E-01  0.2148383E-06  0.0000000E+00  0.9583829E-03
  0.1428571E+00  0.0000000E+00  0.2040816E-01  0.2155711E-06  0.0000000E+00  0.9593068E-03
  0.1836735E+00  0.0000000E+00  0.2040816E-01  0.1367285E-06  0.0000000E+00  0.9600630E-03
  0.2244898E+00  0.0000000E+00  0.2040816E-01 -0.3649075E-07  0.0000000E+00  0.9602781E-03
  0.2653061E+00  0.0000000E+00  0.2040816E-01 -0.3132456E-06  0.0000000E+00  0.9595274E-03
  0.3061225E+00  0.0000000E+00  0.2040816E-01 -0.6962506E-06  0.0000000E+00  0.9573606E-03
  0.3469388E+00  0.0000000E+00  0.2040816E-01 -0.1181335E-05  0.0000000E+00  0.9533304E-03
  0.3877551E+00  0.0000000E+00  0.2040816E-01 -0.1757485E-05  0.0000000E+00  0.9470224E-03
  0.4285714E+00  0.0000000E+00  0.2040816E-01 -0.2407426E-05  0.0000000E+00  0.9380828E-03
  0.4693878E+00  0.0000000E+00  0.2040816E-01 -0.3108761E-05  0.0000000E+00  0.9262428E-03
  0.5102041E+00  0.0000000E+00  0.2040816E-01 -0.3835577E-05  0.0000000E+00  0.9113375E-03
  0.5510204E+00  0.0000000E+00  0.2040816E-01 -0.4560376E-05  0.0000000E+00  0.8933168E-03
  0.5918368E+00  0.0000000E+00  0.2040816E-01 -0.5256100E-05  0.0000000E+00  0.8722474E-03
  0.6326531E+00  0.0000000E+00  0.2040816E-01 -0.5898040E-05  0.0000000E+00  0.8483073E-03
  0.6734694E+00  0.0000000E+00  0.2040816E-01 -0.6465396E-05  0.0000000E+00  0.8217723E-03
  0.7142857E+00  0.0000000E+00  0.2040816E-01 -0.6942349E-05  0.0000000E+00  0.7929964E-03
  0.7551020E+00  0.0000000E+00  0.2040816E-01 -0.7318585E-05  0.0000000E+00  0.7623901E-03
  0.7959183E+00  0.0000000E+00  0.2040816E-01 -0.7589288E-05  0.0000000E+00  0.7303961E-03
  0.8367347E+00  0.0000000E+00  0.2040816E-01 -0.7754684E-05  0.0000000E+00  0.6974668E-03
  0.8775510E+00  0.0000000E+00  0.2040816E-01 -0.7819275E-05  0.0000000E+00  0.6640448E-03
  0.9183673E+00  0.0000000E+00  0.2040816E-01 -0.7790886E-05  0.0000000E+00  0.6305459E-03
  0.9591837E+00  0.0000000E+00  0.2040816E-01 -0.7679671E-05  0.0000000E+00  0.5973474E-03
  0.1000000E+01  0.0000000E+00  0.2040816E-01 -0.7497161E-05  0.0000000E+00  0.5647798E-03
  0.1040816E+01  0.0000000E+00  0.2040816E-01 -0.7255429E-05  0.0000000E+00  0.5331234E-03
  0.1081633E+01  0.0000000E+00  0.2040816E-01 -0.6966416E-05  0.0000000E+00  0.5026065E-03
  0.1122449E+01  0.0000000E+00  0.2040816E-01 -0.6641415E-05  0.0000000E+00  0.4734077E-03
  0.1163265E+01  0.0000000E+00  0.2040816E-01 -0.6290719E-05  0.0000000E+00  0.4456593E-03
  0.1204082E+01  0.0000000E+00  0.2040816E-01 -0.5923403E-05  0.0000000E+00  0.4194520E-03
  0.1244898E+01  0.0000000E+00  0.2040816E-01 -0.5547218E-05  0.0000000E+00  0.3948405E-03
  0.1285714E+01  0.0000000E+00  0.2040816E-01 -0.5168575E-05  0.0000000E+00  0.3718489E-03
  0.1326531E+01  0.0000000E+00  0.2040816E-01 -0.4792589E-05  0.0000000E+00  0.3504767E-03
  0.1367347E+01  0.0000000E+00  0.2040816E-01 -0.4423173E-05  0.0000000E+00  0.3307041E-03
  0.1408163E+01  0.0000000E+00  0.2040816E-01 -0.4063148E-05  0.0000000E+00  0.3124967E-03
  0.1448980E+01  0.0000000E+00  0.2040816E-01 -0.3714388E-05  0.0000000E+00  0.2958103E-03
  0.1489796E+01  0.0000000E+00  0.2040816E-01 -0.3377954E-05  0.0000000E+00  0.2805940E-03
  0.1530612E+01  0.0000000E+00  0.2040816E-01 -0.3054240E-05  0.0000000E+00  0.2667942E-03
  0.1571429E+01  0.0000000E+00  0.2040816E-01 -0.2743110E-05  0.0000000E+00  0.2543566E-03
  0.1612245E+01  0.0000000E+00  0.2040816E-01 -0.2444026E-05  0.0000000E+00  0.2432281E-03
  0.1653061E+01  0.0000000E+00  0.2040816E-01 -0.2156157E-05  0.0000000E+00  0.2333590E-03
  0.1693878E+01  0.0000000E+00  0.2040816E-01 -0.1878480E-05  0.0000000E+00  0.2247033E-03
  0.1734694E+01  0.0000000E+00  0.2040816E-01 -0.1609848E-05  0.0000000E+00  0.2172196E-03
  0.1775510E+01  0.0000000E+00  0.2040816E-01 -0.1349054E-05  0.0000000E+00  0.2108717E-03
  0.1816326E+01  0.0000000E+00  0.2040816E-01 -0.1094863E-05  0.0000000E+00  0.2056287E-03
  0.1857143E+01  0.0000000E+00  0.2040816E-01 -0.8460439E-06  0.0000000E+00  0.2014648E-03
  0.1897959E+01  0.0000000E+00  0.2040816E-01 -0.6013765E-06  0.0000000E+00  0.1983596E-03
  0.1938776E+01  0.0000000E+00  0.2040816E-01 -0.3596595E-06  0.0000000E+00  0.1962979E-03
  0.1989796E+01  0.0000000E+00  0.2040816E-01 -0.1197094E-06  0.0000000E+00  0.1952695E-03
  0.2040816E-01  0.0000000E+00  0.6122449E-01  0.1949420E-06  0.0000000E+00  0.9569366E-03
  0.6122449E-01  0.0000000E+00  0.6122449E-01  0.5423014E-06  0.0000000E+00  0.9574363E-03
  0.1020408E+00  0.0000000E+00  0.6122449E-01  0.7629265E-06  0.0000000E+00  0.9583254E-03
  0.1428571E+00  0.0000000E+00  0.6122449E-01  0.7797921E-06  0.0000000E+00  0.9593891E-03
  0.1836735E+00  0.0000000E+00  0.6122449E-01  0.5272664E-06  0.0000000E+00  0.9603192E-03
  0.2244898E+00  0.0000000E+00  0.6122449E-01 -0.4492083E-07  0.0000000E+00  0.9607323E-03
  0.2653061E+00  0.0000000E+00  0.6122449E-01 -0.9679887E-06  0.0000000E+00  0.9601914E-03
  0.3061225E+00  0.0000000E+00  0.6122449E-01 -0.2251333E-05  0.0000000E+00  0.9582329E-03
  0.3469388E+00  0.0000000E+00  0.6122449E-01 -0.3880987E-05  0.0000000E+00  0.9543959E-03
  0.3877551E+00  0.0000000E+00  0.6122449E-01 -0.5819696E-05  0.0000000E+00  0.9482527E-03
  0.4285714E+00  0.0000000E+00  0.6122449E-01 -0.8008878E-05  0.0000000E+00  0.9394382E-03
  0.4693878E+00  0.0000000E+00  0.6122449E-01 -0.1037247E-04  0.0000000E+00  0.9276750E-03
  0.5102041E+00  0.0000000E+00  0.6122449E-01 -0.1282243E-04  0.0000000E+00  0.9127932E-03
  0.5510204E+00  0.0000000E+00  0.6122449E-01 -0.1526531E-04  0.0000000E+00  0.8947413E-03
  0.5918368E+00  0.0000000E+00  0.6122449E-01 -0.1760926E-04  0.0000000E+00  0.8735889E-03
  0.6326531E+00  0.0000000E+00  0.6122449E-01 -0.1977052E-04  0.0000000E+00  0.8495204E-03
  0.6734694E+00  0.0000000E+00  0.6122449E-01 -0.2167877E-04  0.0000000E+00  0.8228202E-03
  0.7142857E+00  0.0000000E+00  0.6122449E-01 -0.2328073E-04  0.0000000E+00  0.7938531E-03
  0.7551020E+00  0.0000000E+00  0.6122449E-01 -0.2454193E-04  0.0000000E+00  0.7630403E-03
  0.7959183E+00  0.0000000E+00  0.6122449E-01 -0.2544662E-04  0.0000000E+00  0.7308353E-03
  0.8367347E+00  0.0000000E+00  0.6122449E-01 -0.2599612E-04  0.0000000E+00  0.6976997E-03
  0.8775510E+00  0.0000000E+00  0.6122449E-01 -0.2620618E-04  0.0000000E+00  0.6640838E-03
  0.9183673E+00  0.0000000E+00  0.6122449E-01 -0.2610371E-04  0.0000000E+00  0.6304089E-03
  0.9591837E+00  0.0000000E+00  0.6122449E-01 -0.2572335E-04  0.0000000E+00  0.5970560E-03
  0.1000000E+01  0.0000000E+00  0.6122449E-01 -0.2510428E-04  0.0000000E+00  0.5643577E-03
  0.1040816E+01  0.0000000E+00  0.6122449E-01 -0.2428734E-04  0.0000000E+00  0.5325946E-03
  0.1081633E+01  0.0000000E+00  0.6122449E-01 -0.2331285E-04  0.0000000E+00  0.5019942E-03
  0.1122449E+01  0.0000000E+00  0.6122449E-01 -0.2221880E-04  0.0000000E+00  0.4727336E-03
  0.1163265E+01  0.0000000E+00  0.6122449E-01 -0.2103978E-04  0.0000000E+00  0.4449427E-03
  0.1204082E+01  0.0000000E+00  0.6122449E-01 -0.1980619E-04  0.0000000E+00  0.4187098E-03
  0.1244898E+01  0.0000000E+00  0.6122449E-01 -0.1854396E-04  0.0000000E+00  0.3940868E-03
  0.1285714E+01  0.0000000E+00  0.6122449E-01 -0.1727448E-04  0.0000000E+00  0.3710953E-03
  0.1326531E+01  0.0000000E+00  0.6122449E-01 -0.1601478E-04  0.0000000E+00  0.3497322E-03
  0.1367347E+01  0.0000000E+00  0.6122449E-01 -0.1477785E-04  0.0000000E+00  0.3299754E-03
  0.1408163E+01  0.0000000E+00  0.6122449E-01 -0.1357303E-04  0.0000000E+00  0.3117887E-03
  0.1448980E+01  0.0000000E+00  0.6122449E-01 -0.1240647E-04  0.0000000E+00  0.2951257E-03
  0.1489796E+01  0.0000000E+00  0.6122449E-01 -0.1128161E-04  0.0000000E+00  0.2799344E-03
  0.1530612E+01  0.0000000E+00  0.6122449E-01 -0.1019966E-04  0.0000000E+00  0.2661599E-03
  0.1571429E+01  0.0000000E+00  0.6122449E-01 -0.9160077E-05  0.0000000E+00  0.2537468E-03
  0.1612245E+01  0.0000000E+00  0.6122449E-01 -0.8160976E-05  0.0000000E+00  0.2426416E-03
  0.1653061E+01  0.0000000E+00  0.6122449E-01 -0.7199514E-05  0.0000000E+00  0.2327938E-03
  0.1693878E+01  0.0000000E+00  0.6122449E-01 -0.6272207E-05  0.0000000E+00  0.2241572E-03
  0.1734694E+01  0.0000000E+00  0.6122449E-01 -0.5375185E-05  0.0000000E+00  0.2166904E-03
  0.1775510E+01  0.0000000E+00  0.6122449E-01 -0.4504378E-05  0.0000000E+00  0.2103570E-03
  0.1816326E+01  0.0000000E+00  0.6122449E-01 -0.3655646E-05  0.0000000E+00  0.2051259E-03
  0.1857143E+01  0.0000000E+00  0.6122449E-01 -0.2824860E-05  0.0000000E+00  0.2009715E-03
  0.1897959E+01  0.0000000E+00  0.6122449E-01 -0.2007938E-05  0.0000000E+00  0.1978734E-03
  0.1938776E+01  0.0000000E+00  0.6122449E-01 -0.1200866E-05  0.0000000E+00  0.1958164E-03
  0.1989796E+01  0.0000000E+00  0.6122449E-01 -0.3996858E-06  0.0000000E+00  0.1947904E-03
  0.2040816E-01  0.0000000E+00  0.1020408E+00  0.3779534E-06  0.0000000E+00  0.9564240E-03
  0.6122449E-01  0.0000000E+00  0.1020408E+00  0.1056879E-05  0.0000000E+00  0.9570434E-03
  0.1020408E+00  0.0000000E+00  0.1020408E+00  0.1507008E-05  0.0000000E+00  0.9581654E-03
  0.1428571E+00  0.0000000E+00  0.1020408E+00  0.1589031E-05  0.0000000E+00  0.9595624E-03
  0.1836735E+00  0.0000000E+00  0.1020408E+00  0.1183945E-05  0.0000000E+00  0.9609077E-03
  0.2244898E+00  0.0000000E+00  0.1020408E+00  0.2002451E-06  0.0000000E+00  0.9617934E-03
  0.2653061E+00  0.0000000E+00  0.1020408E+00 -0.1419327E-05  0.0000000E+00  0.9617539E-03
  0.3061225E+00  0.0000000E+00  0.1020408E+00 -0.3692548E-05  0.0000000E+00  0.9602936E-03
  0.3469388E+00  0.0000000E+00  0.1020408E+00 -0.6594733E-05  0.0000000E+00  0.9569188E-03
  0.3877551E+00  0.0000000E+00  0.1020408E+00 -0.1005867E-04  0.0000000E+00  0.9511702E-03
  0.4285714E+00  0.0000000E+00  0.1020408E+00 -0.1397803E-04  0.0000000E+00  0.9426552E-03
  0.4693878E+00  0.0000000E+00  0.1020408E+00 -0.1821437E-04  0.0000000E+00  0.9310757E-03
  0.5102041E+00  0.0000000E+00  0.1020408E+00 -0.2260723E-04  0.0000000E+00  0.9162494E-03
  0.5510204E+00  0.0000000E+00  0.1020408E+00 -0.2698636E-04  0.0000000E+00  0.8981222E-03
  0.5918368E+00  0.0000000E+00  0.1020408E+00 -0.3118467E-04  0.0000000E+00  0.8767707E-03
  0.6326531E+00  0.0000000E+00  0.1020408E+00 -0.3505027E-04  0.0000000E+00  0.8523944E-03
  0.6734694E+00  0.0000000E+00  0.1020408E+00 -0.3845628E-04  0.0000000E+00  0.8252993E-03
  0.7142857E+00  0.0000000E+00  0.1020408E+00 -0.4130744E-04  0.0000000E+00  0.7958757E-03
  0.7551020E+00  0.0000000E+00  0.1020408E+00 -0.4354305E-04  0.0000000E+00  0.7645713E-03
  0.7959183E+00  0.0000000E+00  0.1020408E+00 -0.4513660E-04  0.0000000E+00  0.7318647E-03
  0.8367347E+00  0.0000000E+00  0.1020408E+00 -0.4609258E-04  0.0000000E+00  0.6982400E-03
  0.8775510E+00  0.0000000E+00  0.1020408E+00 -0.4644134E-04  0.0000000E+00  0.6641651E-03
  0.9183673E+00  0.0000000E+00  0.1020408E+00 -0.4623303E-04  0.0000000E+00  0.6300749E-03
  0.9591837E+00  0.0000000E+00  0.1020408E+00 -0.4553131E-04  0.0000000E+00  0.5963588E-03
  0.1000000E+01  0.0000000E+00  0.1020408E+00 -0.4440745E-04  0.0000000E+00  0.5633538E-03
  0.1040816E+01  0.0000000E+00  0.1020408E+00 -0.4293529E-04  0.0000000E+00  0.5313411E-03
  0.1081633E+01  0.0000000E+00  0.1020408E+00 -0.4118722E-04  0.0000000E+00  0.5005462E-03
  0.1122449E+01  0.0000000E+00  0.1020408E+00 -0.3923119E-04  0.0000000E+00  0.4711421E-03
  0.1163265E+01  0.0000000E+00  0.1020408E+00 -0.3712869E-04  0.0000000E+00  0.4432534E-03
  0.1204082E+01  0.0000000E+00  0.1020408E+00 -0.3493360E-04  0.0000000E+00  0.4169622E-03
  0.1244898E+01  0.0000000E+00  0.1020408E+00 -0.3269164E-04  0.0000000E+00  0.3923141E-03
  0.1285714E+01  0.0000000E+00  0.1020408E+00 -0.3044039E-04  0.0000000E+00  0.3693245E-03
  0.1326531E+01  0.0000000E+00  0.1020408E+00 -0.2820962E-04  0.0000000E+00  0.3479843E-03
  0.1367347E+01  0.0000000E+00  0.1020408E+00 -0.2602191E-04  0.0000000E+00  0.3282661E-03
  0.1408163E+01  0.0000000E+00  0.1020408E+00 -0.2389334E-04  0.0000000E+00  0.3101286E-03
  0.1448980E+01  0.0000000E+00  0.1020408E+00 -0.2183437E-04  0.0000000E+00  0.2935217E-03
  0.1489796E+01  0.0000000E+00  0.1020408E+00 -0.1985069E-04  0.0000000E+00  0.2783897E-03
  0.1530612E+01  0.0000000E+00  0.1020408E+00 -0.1794407E-04  0.0000000E+00  0.2646749E-03
  0.1571429E+01  0.0000000E+00  0.1020408E+00 -0.1611319E-04  0.0000000E+00  0.2523197E-03
  0.1612245E+01  0.0000000E+00  0.1020408E+00 -0.1435443E-04  0.0000000E+00  0.2412692E-03
  0.1653061E+01  0.0000000E+00  0.1020408E+00 -0.1266253E-04  0.0000000E+00  0.2314716E-03
  0.1693878E+01  0.0000000E+00  0.1020408E+00 -0.1103115E-04  0.0000000E+00  0.2228801E-03
  0.1734694E+01  0.0000000E+00  0.1020408E+00 -0.9453305E-05  0.0000000E+00  0.2154527E-03
  0.1775510E+01  0.0000000E+00  0.1020408E+00 -0.7921729E-05  0.0000000E+00  0.2091530E-03
  0.1816326E+01  0.0000000E+00  0.1020408E+00 -0.6429059E-05  0.0000000E+00  0.2039499E-03
  0.1857143E+01  0.0000000E+00  0.1020408E+00 -0.4967981E-05  0.0000000E+00  0.1998177E-03
  0.1897959E+01  0.0000000E+00  0.1020408E+00 -0.3531292E-05  0.0000000E+00  0.1967361E-03
  0.1938776E+01  0.0000000E+00  0.1020408E+00 -0.2111917E-05  0.0000000E+00  0.1946901E-03
  0.1989796E+01  0.0000000E+00  0.1020408E+00 -0.7028895E-06  0.0000000E+00  0.1936696E-03
  0.2040816E-01  0.0000000E+00  0.1428571E+00  0.6036298E-06  0.0000000E+00  0.9555499E-03
  0.6122449E-01  0.0000000E+00  0.1428571E+00  0.1699572E-05  0.0000000E+00  0.9563563E-03
  0.1020408E+00  0.0000000E+00  0.1428571E+00  0.2465196E-05  0.0000000E+00  0.9578425E-03
  0.1428571E+00  0.0000000E+00  0.1428571E+00  0.2698838E-05  0.0000000E+00  0.9597613E-03
  0.1836735E+00  0.0000000E+00  0.1428571E+00  0.2227476E-05  0.0000000E+00  0.9617573E-03
  0.2244898E+00  0.0000000E+00  0.1428571E+00  0.9171886E-06  0.0000000E+00  0.9633849E-03
  0.2653061E+00  0.0000000E+00  0.1428571E+00 -0.1316850E-05  0.0000000E+00  0.9641335E-03
  0.3061225E+00  0.0000000E+00  0.1428571E+00 -0.4502329E-05  0.0000000E+00  0.9634576E-03
  0.3469388E+00  0.0000000E+00  0.1428571E+00 -0.8604938E-05  0.0000000E+00  0.9608111E-03
  0.3877551E+00  0.0000000E+00  0.1428571E+00 -0.1352778E-04  0.0000000E+00  0.9556848E-03
  0.4285714E+00  0.0000000E+00  0.1428571E+00 -0.1911602E-04  0.0000000E+00  0.9476422E-03
  0.4693878E+00  0.0000000E+00  0.1428571E+00 -0.2516704E-04  0.0000000E+00  0.9363518E-03
  0.5102041E+00  0.0000000E+00  0.1428571E+00 -0.3144552E-04  0.0000000E+00  0.9216119E-03
  0.5510204E+00  0.0000000E+00  0.1428571E+00 -0.3770181E-04  0.0000000E+00  0.9033643E-03
  0.5918368E+00  0.0000000E+00  0.1428571E+00 -0.4369153E-04  0.0000000E+00  0.8816971E-03
  0.6326531E+00  0.0000000E+00  0.1428571E+00 -0.4919365E-04  0.0000000E+00  0.8568347E-03
  0.6734694E+00  0.0000000E+00  0.1428571E+00 -0.5402517E-04  0.0000000E+00  0.8291184E-03
  0.7142857E+00  0.0000000E+00  0.1428571E+00 -0.5805057E-04  0.0000000E+00  0.7989790E-03
  0.7551020E+00  0.0000000E+00  0.1428571E+00 -0.6118583E-04  0.0000000E+00  0.7669067E-03
  0.7959183E+00  0.0000000E+00  0.1428571E+00 -0.6339726E-04  0.0000000E+00  0.7334199E-03
  0.8367347E+00  0.0000000E+00  0.1428571E+00 -0.6469615E-04  0.0000000E+00  0.6990374E-03
  0.8775510E+00  0.0000000E+00  0.1428571E+00 -0.6513080E-04  0.0000000E+00  0.6642550E-03
  0.9183673E+00  0.0000000E+00  0.1428571E+00 -0.6477726E-04  0.0000000E+00  0.6295274E-03
  0.9591837E+00  0.0000000E+00  0.1428571E+00 -0.6372992E-04  0.0000000E+00  0.5952567E-03
  0.1000000E+01  0.0000000E+00  0.1428571E+00 -0.6209296E-04  0.0000000E+00  0.5617859E-03
  0.1040816E+01  0.0000000E+00  0.1428571E+00 -0.5997314E-04  0.0000000E+00  0.5293965E-03
  0.1081633E+01  0.0000000E+00  0.1428571E+00 -0.5747412E-04  0.0000000E+00  0.4983102E-03
  0.1122449E+01  0.0000000E+00  0.1428571E+00 -0.5469242E-04  0.0000000E+00  0.4686932E-03
  0.1163265E+01  0.0000000E+00  0.1428571E+00 -0.5171475E-04  0.0000000E+00  0.4406615E-03
  0.1204082E+01  0.0000000E+00  0.1428571E+00 -0.4861654E-04  0.0000000E+00  0.4142874E-03
  0.1244898E+01  0.0000000E+00  0.1428571E+00 -0.4546140E-04  0.0000000E+00  0.3896067E-03
  0.1285714E+01  0.0000000E+00  0.1428571E+00 -0.4230121E-04  0.0000000E+00  0.3666249E-03
  0.1326531E+01  0.0000000E+00  0.1428571E+00 -0.3917680E-04  0.0000000E+00  0.3453240E-03
  0.1367347E+01  0.0000000E+00  0.1428571E+00 -0.3611880E-04  0.0000000E+00  0.3256682E-03
  0.1408163E+01  0.0000000E+00  0.1428571E+00 -0.3314874E-04  0.0000000E+00  0.3076090E-03
  0.1448980E+01  0.0000000E+00  0.1428571E+00 -0.3028030E-04  0.0000000E+00  0.2910900E-03
  0.1489796E+01  0.0000000E+00  0.1428571E+00 -0.2752049E-04  0.0000000E+00  0.2760501E-03
  0.1530612E+01  0.0000000E+00  0.1428571E+00 -0.2487095E-04  0.0000000E+00  0.2624275E-03
  0.1571429E+01  0.0000000E+00  0.1428571E+00 -0.2232908E-04  0.0000000E+00  0.2501615E-03
  0.1612245E+01  0.0000000E+00  0.1428571E+00 -0.1988916E-04  0.0000000E+00  0.2391946E-03
  0.1653061E+01  0.0000000E+00  0.1428571E+00 -0.1754330E-04  0.0000000E+00  0.2294736E-03
  0.1693878E+01  0.0000000E+00  0.1428571E+00 -0.1528222E-04  0.0000000E+00  0.2209506E-03
  0.1734694E+01  0.0000000E+00  0.1428571E+00 -0.1309591E-04  0.0000000E+00  0.2135831E-03
  0.1775510E+01  0.0000000E+00  0.1428571E+00 -0.1097402E-04  0.0000000E+00  0.2073344E-03
  0.1816326E+01  0.0000000E+00  0.1428571E+00 -0.8906185E-05  0.0000000E+00  0.2021735E-03
  0.1857143E+01  0.0000000E+00  0.1428571E+00 -0.6882164E-05  0.0000000E+00  0.1980748E-03
  0.1897959E+01  0.0000000E+00  0.1428571E+00 -0.4891930E-05  0.0000000E+00  0.1950182E-03
  0.1938776E+01  0.0000000E+00  0.1428571E+00 -0.2925659E-05  0.0000000E+00  0.1929887E-03
  0.1989796E+01  0.0000000E+00  0.1428571E+00 -0.9736968E-06  0.0000000E+00  0.1919765E-03
  0.2040816E-01  0.0000000E+00  0.1836735E+00  0.8964938E-06  0.0000000E+00  0.9542098E-03
  0.6122449E-01  0.0000000E+00  0.1836735E+00  0.2542475E-05  0.0000000E+00  0.9552718E-03
  0.1020408E+00  0.0000000E+00  0.1836735E+00  0.3752463E-05  0.0000000E+00  0.9572563E-03
  0.1428571E+00  0.0000000E+00  0.1836735E+00  0.4259267E-05  0.0000000E+00  0.9598904E-03
  0.1836735E+00  0.0000000E+00  0.1836735E+00  0.3832175E-05  0.0000000E+00  0.9627797E-03
  0.2244898E+00  0.0000000E+00  0.1836735E+00  0.2290896E-05  0.0000000E+00  0.9654283E-03
  0.2653061E+00  0.0000000E+00  0.1836735E+00 -0.4807455E-06  0.0000000E+00  0.9672640E-03
  0.3061225E+00  0.0000000E+00  0.1836735E+00 -0.4523325E-05  0.0000000E+00  0.9676721E-03
  0.3469388E+00  0.0000000E+00  0.1836735E+00 -0.9794240E-05  0.0000000E+00  0.9660343E-03
  0.3877551E+00  0.0000000E+00  0.1836735E+00 -0.1616597E-04  0.0000000E+00  0.9617707E-03
  0.4285714E+00  0.0000000E+00  0.1836735E+00 -0.2343158E-04  0.0000000E+00  0.9543830E-03
  0.4693878E+00  0.0000000E+00  0.1836735E+00 -0.3131831E-04  0.0000000E+00  0.9434924E-03
  0.5102041E+00  0.0000000E+00  0.1836735E+00 -0.3950826E-04  0.0000000E+00  0.9288697E-03
  0.5510204E+00  0.0000000E+00  0.1836735E+00 -0.4766423E-04  0.0000000E+00  0.9104517E-03
  0.5918368E+00  0.0000000E+00  0.1836735E+00 -0.5545725E-04  0.0000000E+00  0.8883435E-03
  0.6326531E+00  0.0000000E+00  0.1836735E+00 -0.6259196E-04  0.0000000E+00  0.8628062E-03
  0.6734694E+00  0.0000000E+00  0.1836735E+00 -0.6882679E-04  0.0000000E+00  0.8342312E-03
  0.7142857E+00  0.0000000E+00  0.1836735E+00 -0.7398651E-04  0.0000000E+00  0.8031079E-03
  0.7551020E+00  0.0000000E+00  0.1836735E+00 -0.7796683E-04  0.0000000E+00  0.7699859E-03
  0.7959183E+00  0.0000000E+00  0.1836735E+00 -0.8073163E-04  0.0000000E+00  0.7354390E-03
  0.8367347E+00  0.0000000E+00  0.1836735E+00 -0.8230470E-04  0.0000000E+00  0.7000335E-03
  0.8775510E+00  0.0000000E+00  0.1836735E+00 -0.8275796E-04  0.0000000E+00  0.6643022E-03
  0.9183673E+00  0.0000000E+00  0.1836735E+00 -0.8219835E-04  0.0000000E+00  0.6287259E-03
  0.9591837E+00  0.0000000E+00  0.1836735E+00 -0.8075493E-04  0.0000000E+00  0.5937224E-03
  0.1000000E+01  0.0000000E+00  0.1836735E+00 -0.7856749E-04  0.0000000E+00  0.5596410E-03
  0.1040816E+01  0.0000000E+00  0.1836735E+00 -0.7577713E-04  0.0000000E+00  0.5267623E-03
  0.1081633E+01  0.0000000E+00  0.1836735E+00 -0.7251919E-04  0.0000000E+00  0.4953020E-03
  0.1122449E+01  0.0000000E+00  0.1836735E+00 -0.6891823E-04  0.0000000E+00  0.4654157E-03
  0.1163265E+01  0.0000000E+00  0.1836735E+00 -0.6508508E-04  0.0000000E+00  0.4372072E-03
  0.1204082E+01  0.0000000E+00  0.1836735E+00 -0.6111520E-04  0.0000000E+00  0.4107355E-03
  0.1244898E+01  0.0000000E+00  0.1836735E+00 -0.5708835E-04  0.0000000E+00  0.3860225E-03
  0.1285714E+01  0.0000000E+00  0.1836735E+00 -0.5306900E-04  0.0000000E+00  0.3630609E-03
  0.1326531E+01  0.0000000E+00  0.1836735E+00 -0.4910729E-04  0.0000000E+00  0.3418205E-03
  0.1367347E+01  0.0000000E+00  0.1836735E+00 -0.4524033E-04  0.0000000E+00  0.3222544E-03
  0.1408163E+01  0.0000000E+00  0.1836735E+00 -0.4149370E-04  0.0000000E+00  0.3043044E-03
  0.1448980E+01  0.0000000E+00  0.1836735E+00 -0.3788300E-04  0.0000000E+00  0.2879059E-03
  0.1489796E+01  0.0000000E+00  0.1836735E+00 -0.3441551E-04  0.0000000E+00  0.2729911E-03
  0.1530612E+01  0.0000000E+00  0.1836735E+00 -0.3109180E-04  0.0000000E+00  0.2594926E-03
  0.1571429E+01  0.0000000E+00  0.1836735E+00 -0.2790726E-04  0.0000000E+00  0.2473457E-03
  0.1612245E+01  0.0000000E+00  0.1836735E+00 -0.2485351E-04  0.0000000E+00  0.2364899E-03
  0.1653061E+01  0.0000000E+00  0.1836735E+00 -0.2191965E-04  0.0000000E+00  0.2268700E-03
  0.1693878E+01  0.0000000E+00  0.1836735E+00 -0.1909326E-04  0.0000000E+00  0.2184370E-03
  0.1734694E+01  0.0000000E+00  0.1836735E+00 -0.1636119E-04  0.0000000E+00  0.2111480E-03
  0.1775510E+01  0.0000000E+00  0.1836735E+00 -0.1371008E-04  0.0000000E+00  0.2049660E-03
  0.1816326E+01  0.0000000E+00  0.1836735E+00 -0.1112670E-04  0.0000000E+00  0.1998601E-03
  0.1857143E+01  0.0000000E+00  0.1836735E+00 -0.8598108E-05  0.0000000E+00  0.1958050E-03
  0.1897959E+01  0.0000000E+00  0.1836735E+00 -0.6111696E-05  0.0000000E+00  0.1927808E-03
  0.1938776E+01  0.0000000E+00  0.1836735E+00 -0.3655169E-05  0.0000000E+00  0.1907728E-03
  0.1989796E+01  0.0000000E+00  0.1836735E+00 -0.1216472E-05  0.0000000E+00  0.1897712E-03
  0.2040816E-01  0.0000000E+00  0.2244898E+00  0.1280363E-05  0.0000000E+00  0.9522522E-03
  0.6122449E-01  0.0000000E+00  0.2244898E+00  0.3655759E-05  0.0000000E+00  0.9536426E-03
  0.1020408E+00  0.0000000E+00  0.2244898E+00  0.5481408E-05  0.0000000E+00  0.9562683E-03
  0.1428571E+00  0.0000000E+00  0.2244898E+00  0.6418630E-05  0.0000000E+00  0.9598245E-03
  0.1836735E+00  0.0000000E+00  0.2244898E+00  0.6172461E-05  0.0000000E+00  0.9638688E-03
  0.2244898E+00  0.0000000E+00  0.2244898E+00  0.4509386E-05  0.0000000E+00  0.9678412E-03
  0.2653061E+00  0.0000000E+00  0.2244898E+00  0.1275454E-05  0.0000000E+00  0.9710912E-03
  0.3061225E+00  0.0000000E+00  0.2244898E+00 -0.3587705E-05  0.0000000E+00  0.9729144E-03
  0.3469388E+00  0.0000000E+00  0.2244898E+00 -0.1003134E-04  0.0000000E+00  0.9725966E-03
  0.3877551E+00  0.0000000E+00  0.2244898E+00 -0.1789551E-04  0.0000000E+00  0.9694640E-03
  0.4285714E+00  0.0000000E+00  0.2244898E+00 -0.2691494E-04  0.0000000E+00  0.9629349E-03
  0.4693878E+00  0.0000000E+00  0.2244898E+00 -0.3673619E-04  0.0000000E+00  0.9525668E-03
  0.5102041E+00  0.0000000E+00  0.2244898E+00 -0.4694535E-04  0.0000000E+00  0.9380934E-03
  0.5510204E+00  0.0000000E+00  0.2244898E+00 -0.5710326E-04  0.0000000E+00  0.9194455E-03
  0.5918368E+00  0.0000000E+00  0.2244898E+00 -0.6678332E-04  0.0000000E+00  0.8967531E-03
  0.6326531E+00  0.0000000E+00  0.2244898E+00 -0.7560619E-04  0.0000000E+00  0.8703280E-03
  0.6734694E+00  0.0000000E+00  0.2244898E+00 -0.8326665E-04  0.0000000E+00  0.8406316E-03
  0.7142857E+00  0.0000000E+00  0.2244898E+00 -0.8954946E-04  0.0000000E+00  0.8082321E-03
  0.7551020E+00  0.0000000E+00  0.2244898E+00 -0.9433388E-04  0.0000000E+00  0.7737590E-03
  0.7959183E+00  0.0000000E+00  0.2244898E+00 -0.9758815E-04  0.0000000E+00  0.7378588E-03
  0.8367347E+00  0.0000000E+00  0.2244898E+00 -0.9935672E-04  0.0000000E+00  0.7011584E-03
  0.8775510E+00  0.0000000E+00  0.2244898E+00 -0.9974348E-04  0.0000000E+00  0.6642368E-03
  0.9183673E+00  0.0000000E+00  0.2244898E+00 -0.9889380E-04  0.0000000E+00  0.6276060E-03
  0.9591837E+00  0.0000000E+00  0.2244898E+00 -0.9697753E-04  0.0000000E+00  0.5917012E-03
  0.1000000E+01  0.0000000E+00  0.2244898E+00 -0.9417445E-04  0.0000000E+00  0.5568772E-03
  0.1040816E+01  0.0000000E+00  0.2244898E+00 -0.9066274E-04  0.0000000E+00  0.5234112E-03
  0.1081633E+01  0.0000000E+00  0.2244898E+00 -0.8661062E-04  0.0000000E+00  0.4915085E-03
  0.1122449E+01  0.0000000E+00  0.2244898E+00 -0.8217084E-04  0.0000000E+00  0.4613109E-03
  0.1163265E+01  0.0000000E+00  0.2244898E+00 -0.7747751E-04  0.0000000E+00  0.4329050E-03
  0.1204082E+01  0.0000000E+00  0.2244898E+00 -0.7264479E-04  0.0000000E+00  0.4063324E-03
  0.1244898E+01  0.0000000E+00  0.2244898E+00 -0.6776696E-04  0.0000000E+00  0.3815976E-03
  0.1285714E+01  0.0000000E+00  0.2244898E+00 -0.6291928E-04  0.0000000E+00  0.3586768E-03
  0.1326531E+01  0.0000000E+00  0.2244898E+00 -0.5815944E-04  0.0000000E+00  0.3375244E-03
  0.1367347E+01  0.0000000E+00  0.2244898E+00 -0.5352935E-04  0.0000000E+00  0.3180802E-03
  0.1408163E+01  0.0000000E+00  0.2244898E+00 -0.4905704E-04  0.0000000E+00  0.3002740E-03
  0.1448980E+01  0.0000000E+00  0.2244898E+00 -0.4475866E-04  0.0000000E+00  0.2840311E-03
  0.1489796E+01  0.0000000E+00  0.2244898E+00 -0.4064047E-04  0.0000000E+00  0.2692755E-03
  0.1530612E+01  0.0000000E+00  0.2244898E+00 -0.3670086E-04  0.0000000E+00  0.2559334E-03
  0.1571429E+01  0.0000000E+00  0.2244898E+00 -0.3293227E-04  0.0000000E+00  0.2439351E-03
  0.1612245E+01  0.0000000E+00  0.2244898E+00 -0.2932291E-04  0.0000000E+00  0.2332168E-03
  0.1653061E+01  0.0000000E+00  0.2244898E+00 -0.2585832E-04  0.0000000E+00  0.2237213E-03
  0.1693878E+01  0.0000000E+00  0.2244898E+00 -0.2252262E-04  0.0000000E+00  0.2153985E-03
  0.1734694E+01  0.0000000E+00  0.2244898E+00 -0.1929935E-04  0.0000000E+00  0.2082048E-03
  0.1775510E+01  0.0000000E+00  0.2244898E+00 -0.1617214E-04  0.0000000E+00  0.2021037E-03
  0.1816326E+01  0.0000000E+00  0.2244898E+00 -0.1312500E-04  0.0000000E+00  0.1970643E-03
  0.1857143E+01  0.0000000E+00  0.2244898E+00 -0.1014246E-04  0.0000000E+00  0.1930617E-03
  0.1897959E+01  0.0000000E+00  0.2244898E+00 -0.7209561E-05  0.0000000E+00  0.1900766E-03
  0.1938776E+01  0.0000000E+00  0.2244898E+00 -0.4311804E-05  0.0000000E+00  0.1880944E-03
  0.1989796E+01  0.0000000E+00  0.2244898E+00 -0.1435000E-05  0.0000000E+00  0.1871057E-03
  0.2040816E-01  0.0000000E+00  0.2653061E+00  0.1779613E-05  0.0000000E+00  0.9494787E-03
  0.6122449E-01  0.0000000E+00  0.2653061E+00  0.5111558E-05  0.0000000E+00  0.9512769E-03
  0.1020408E+00  0.0000000E+00  0.2653061E+00  0.7768816E-05  0.0000000E+00  0.9547001E-03
  0.1428571E+00  0.0000000E+00  0.2653061E+00  0.9332808E-05  0.0000000E+00  0.9594064E-03
  0.1836735E+00  0.0000000E+00  0.2653061E+00  0.9434873E-05  0.0000000E+00  0.9648966E-03
  0.2244898E+00  0.0000000E+00  0.2653061E+00  0.7778163E-05  0.0000000E+00  0.9705334E-03
  0.2653061E+00  0.0000000E+00  0.2653061E+00  0.4161207E-05  0.0000000E+00  0.9755695E-03
  0.3061225E+00  0.0000000E+00  0.2653061E+00 -0.1499906E-05  0.0000000E+00  0.9791872E-03
  0.3469388E+00  0.0000000E+00  0.2653061E+00 -0.9154083E-05  0.0000000E+00  0.9805498E-03
  0.3877551E+00  0.0000000E+00  0.2653061E+00 -0.1860695E-04  0.0000000E+00  0.9788607E-03
  0.4285714E+00  0.0000000E+00  0.2653061E+00 -0.2952592E-04  0.0000000E+00  0.9734279E-03
  0.4693878E+00  0.0000000E+00  0.2653061E+00 -0.4146126E-04  0.0000000E+00  0.9637241E-03
  0.5102041E+00  0.0000000E+00  0.2653061E+00 -0.5388262E-04  0.0000000E+00  0.9494341E-03
  0.5510204E+00  0.0000000E+00  0.2653061E+00 -0.6622688E-04  0.0000000E+00  0.9304820E-03
  0.5918368E+00  0.0000000E+00  0.2653061E+00 -0.7794983E-04  0.0000000E+00  0.9070330E-03
  0.6326531E+00  0.0000000E+00  0.2653061E+00 -0.8857347E-04  0.0000000E+00  0.8794692E-03
  0.6734694E+00  0.0000000E+00  0.2653061E+00 -0.9772122E-04  0.0000000E+00  0.8483467E-03
  0.7142857E+00  0.0000000E+00  0.2653061E+00 -0.1051375E-03  0.0000000E+00  0.8143392E-03
  0.7551020E+00  0.0000000E+00  0.2653061E+00 -0.1106906E-03  0.0000000E+00  0.7781798E-03
  0.7959183E+00  0.0000000E+00  0.2653061E+00 -0.1143630E-03  0.0000000E+00  0.7406080E-03
  0.8367347E+00  0.0000000E+00  0.2653061E+00 -0.1162313E-03  0.0000000E+00  0.7023257E-03
  0.8775510E+00  0.0000000E+00  0.2653061E+00 -0.1164433E-03  0.0000000E+00  0.6639666E-03
  0.9183673E+00  0.0000000E+00  0.2653061E+00 -0.1151929E-03  0.0000000E+00  0.6260778E-03
  0.9591837E+00  0.0000000E+00  0.2653061E+00 -0.1126991E-03  0.0000000E+00  0.5891116E-03
  0.1000000E+01  0.0000000E+00  0.2653061E+00 -0.1091877E-03  0.0000000E+00  0.5534256E-03
  0.1040816E+01  0.0000000E+00  0.2653061E+00 -0.1048776E-03  0.0000000E+00  0.5192892E-03
  0.1081633E+01  0.0000000E+00  0.2653061E+00 -0.9997168E-04  0.0000000E+00  0.4868923E-03
  0.1122449E+01  0.0000000E+00  0.2653061E+00 -0.9465121E-04  0.0000000E+00  0.4563569E-03
  0.1163265E+01  0.0000000E+00  0.2653061E+00 -0.8907281E-04  0.0000000E+00  0.4277480E-03
  0.1204082E+01  0.0000000E+00  0.2653061E+00 -0.8336795E-04  0.0000000E+00  0.4010847E-03
  0.1244898E+01  0.0000000E+00  0.2653061E+00 -0.7764360E-04  0.0000000E+00  0.3763503E-03
  0.1285714E+01  0.0000000E+00  0.2653061E+00 -0.7198388E-04  0.0000000E+00  0.3535006E-03
  0.1326531E+01  0.0000000E+00  0.2653061E+00 -0.6645213E-04  0.0000000E+00  0.3324722E-03