title = "dataset feddes"
variables = "time", "absolute mass balance error", "relative mass balance error", "absolute cumulative mass balance error", "relative cumulative mass balance error" 
zone t = "mass balance error -  variably saturated flow", f=point
  1.0000E-10 -1.6201E-18 -1.8615E-16 -1.6201E-18 -1.8615E-16
  6.0000E-10  8.6130E-19  9.8960E-17 -7.5884E-19 -8.7187E-17
  3.1000E-09 -1.8253E-16 -2.0971E-14 -1.8328E-16 -2.1059E-14
  1.5600E-08 -2.8446E-14 -3.2683E-12 -2.8630E-14 -3.2894E-12
  7.8100E-08 -4.1050E-17 -4.7164E-15 -2.8671E-14 -3.2941E-12
  3.9060E-07 -5.5927E-15 -6.4254E-13 -3.4263E-14 -3.9365E-12
  1.9531E-06 -2.4092E-17 -2.7673E-15 -3.4287E-14 -3.9384E-12
  9.7656E-06 -1.5781E-14 -1.8110E-12 -5.0068E-14 -5.7458E-12
  4.3892E-05 -1.1106E-16 -1.2710E-14 -5.0179E-14 -5.7430E-12
  9.4526E-05 -1.4751E-17 -1.6837E-15 -5.0194E-14 -5.7290E-12
  1.6916E-04 -3.1819E-17 -3.6219E-15 -5.0226E-14 -5.7170E-12
  2.8115E-04 -2.0036E-15 -2.2744E-13 -5.2229E-14 -5.9288E-12
  4.6057E-04  9.4457E-15  1.0691E-12 -4.2784E-14 -4.8424E-12
  7.9728E-04 -1.3649E-15 -1.5392E-13 -4.4148E-14 -4.9787E-12
  1.4588E-03  1.1521E-12  1.2931E-10  1.1080E-12  1.2436E-10
  2.2143E-03 -1.1602E-14 -1.2970E-12  1.0964E-12  1.2256E-10
  3.2807E-03  1.0144E-13  1.1290E-11  1.1978E-12  1.3332E-10
  5.1212E-03  1.1533E-15  1.2765E-13  1.1990E-12  1.3271E-10
  7.4804E-03 -1.7659E-13 -1.9438E-11  1.0224E-12  1.1253E-10
