title = "dataset feddes"
variables = "x", "y", "z", "h_w", "p_w", "s_w", "theta_w", "transp", "evap"
zone t = "Flow variables, solution time =  2.900E+01 days        " i =   50, j =   50, k =    1,  f=point
  0.0000000E+00  0.0000000E+00  0.0000000E+00  0.0000000E+00  0.0000000E+00  0.1000000E+01  0.4280000E+00  0.0000000E+00  0.0000000E+00
  0.4081633E-01  0.0000000E+00  0.0000000E+00  0.0000000E+00  0.0000000E+00  0.1000000E+01  0.4280000E+00  0.0000000E+00  0.0000000E+00
  0.8163265E-01  0.0000000E+00  0.0000000E+00  0.0000000E+00  0.0000000E+00  0.1000000E+01  0.4280000E+00  0.0000000E+00  0.0000000E+00
  0.1224490E+00  0.0000000E+00  0.0000000E+00  0.0000000E+00  0.0000000E+00  0.1000000E+01  0.4280000E+00  0.0000000E+00  0.0000000E+00
  0.1632653E+00  0.0000000E+00  0.0000000E+00  0.0000000E+00  0.0000000E+00  0.1000000E+01  0.4280000E+00  0.0000000E+00  0.0000000E+00
  0.2040816E+00  0.0000000E+00  0.0000000E+00  0.0000000E+00  0.0000000E+00  0.1000000E+01  0.4280000E+00  0.0000000E+00  0.0000000E+00
  0.2448980E+00  0.0000000E+00  0.0000000E+00  0.0000000E+00  0.0000000E+00  0.1000000E+01  0.4280000E+00  0.0000000E+00  0.0000000E+00
  0.2857143E+00  0.0000000E+00  0.0000000E+00  0.0000000E+00  0.0000000E+00  0.1000000E+01  0.4280000E+00  0.0000000E+00  0.0000000E+00
  0.3265306E+00  0.0000000E+00  0.0000000E+00  0.0000000E+00  0.0000000E+00  0.1000000E+01  0.4280000E+00  0.0000000E+00  0.0000000E+00
  0.3673469E+00  0.0000000E+00  0.0000000E+00  0.0000000E+00  0.0000000E+00  0.1000000E+01  0.4280000E+00  0.0000000E+00  0.0000000E+00
  0.4081633E+00  0.0000000E+00  0.0000000E+00  0.0000000E+00  0.0000000E+00  0.1000000E+01  0.4280000E+00  0.0000000E+00  0.0000000E+00
  0.4489796E+00  0.0000000E+00  0.0000000E+00  0.0000000E+00  0.0000000E+00  0.1000000E+01  0.4280000E+00  0.0000000E+00  0.0000000E+00
  0.4897959E+00  0.0000000E+00  0.0000000E+00  0.0000000E+00  0.0000000E+00  0.1000000E+01  0.4280000E+00  0.0000000E+00  0.0000000E+00
  0.5306122E+00  0.0000000E+00  0.0000000E+00  0.0000000E+00  0.0000000E+00  0.1000000E+01  0.4280000E+00  0.0000000E+00  0.0000000E+00
  0.5714286E+00  0.0000000E+00  0.0000000E+00  0.0000000E+00  0.0000000E+00  0.1000000E+01  0.4280000E+00  0.0000000E+00  0.0000000E+00
  0.6122449E+00  0.0000000E+00  0.0000000E+00  0.0000000E+00  0.0000000E+00  0.1000000E+01  0.4280000E+00  0.0000000E+00  0.0000000E+00
  0.6530612E+00  0.0000000E+00  0.0000000E+00  0.0000000E+00  0.0000000E+00  0.1000000E+01  0.4280000E+00  0.0000000E+00  0.0000000E+00
  0.6938776E+00  0.0000000E+00  0.0000000E+00  0.0000000E+00  0.0000000E+00  0.1000000E+01  0.4280000E+00  0.0000000E+00  0.0000000E+00
  0.7346939E+00  0.0000000E+00  0.0000000E+00  0.0000000E+00  0.0000000E+00  0.1000000E+01  0.4280000E+00  0.0000000E+00  0.0000000E+00
  0.7755102E+00  0.0000000E+00  0.0000000E+00  0.0000000E+00  0.0000000E+00  0.1000000E+01  0.4280000E+00  0.0000000E+00  0.0000000E+00
  0.8163265E+00  0.0000000E+00  0.0000000E+00  0.0000000E+00  0.0000000E+00  0.1000000E+01  0.4280000E+00  0.0000000E+00  0.0000000E+00
  0.8571429E+00  0.0000000E+00  0.0000000E+00  0.0000000E+00  0.0000000E+00  0.1000000E+01  0.4280000E+00  0.0000000E+00  0.0000000E+00
  0.8979592E+00  0.0000000E+00  0.0000000E+00  0.0000000E+00  0.0000000E+00  0.1000000E+01  0.4280000E+00  0.0000000E+00  0.0000000E+00
  0.9387755E+00  0.0000000E+00  0.0000000E+00  0.0000000E+00  0.0000000E+00  0.1000000E+01  0.4280000E+00  0.0000000E+00  0.0000000E+00
  0.9795918E+00  0.0000000E+00  0.0000000E+00  0.0000000E+00  0.0000000E+00  0.1000000E+01  0.4280000E+00  0.0000000E+00  0.0000000E+00
  0.1020408E+01  0.0000000E+00  0.0000000E+00  0.0000000E+00  0.0000000E+00  0.1000000E+01  0.4280000E+00  0.0000000E+00  0.0000000E+00
  0.1061224E+01  0.0000000E+00  0.0000000E+00  0.0000000E+00  0.0000000E+00  0.1000000E+01  0.4280000E+00  0.0000000E+00  0.0000000E+00
  0.1102041E+01  0.0000000E+00  0.0000000E+00  0.0000000E+00  0.0000000E+00  0.1000000E+01  0.4280000E+00  0.0000000E+00  0.0000000E+00
  0.1142857E+01  0.0000000E+00  0.0000000E+00  0.0000000E+00  0.0000000E+00  0.1000000E+01  0.4280000E+00  0.0000000E+00  0.0000000E+00
  0.1183673E+01  0.0000000E+00  0.0000000E+00  0.0000000E+00  0.0000000E+00  0.1000000E+01  0.4280000E+00  0.0000000E+00  0.0000000E+00
  0.1224490E+01  0.0000000E+00  0.0000000E+00  0.0000000E+00  0.0000000E+00  0.1000000E+01  0.4280000E+00  0.0000000E+00  0.0000000E+00
  0.1265306E+01  0.0000000E+00  0.0000000E+00  0.0000000E+00  0.0000000E+00  0.1000000E+01  0.4280000E+00  0.0000000E+00  0.0000000E+00
  0.1306122E+01  0.0000000E+00  0.0000000E+00  0.0000000E+00  0.0000000E+00  0.1000000E+01  0.4280000E+00  0.0000000E+00  0.0000000E+00
  0.1346939E+01  0.0000000E+00  0.0000000E+00  0.0000000E+00  0.0000000E+00  0.1000000E+01  0.4280000E+00  0.0000000E+00  0.0000000E+00
  0.1387755E+01  0.0000000E+00  0.0000000E+00  0.0000000E+00  0.0000000E+00  0.1000000E+01  0.4280000E+00  0.0000000E+00  0.0000000E+00
  0.1428571E+01  0.0000000E+00  0.0000000E+00  0.0000000E+00  0.0000000E+00  0.1000000E+01  0.4280000E+00  0.0000000E+00  0.0000000E+00
  0.1469388E+01  0.0000000E+00  0.0000000E+00  0.0000000E+00  0.0000000E+00  0.1000000E+01  0.4280000E+00  0.0000000E+00  0.0000000E+00
  0.1510204E+01  0.0000000E+00  0.0000000E+00  0.0000000E+00  0.0000000E+00  0.1000000E+01  0.4280000E+00  0.0000000E+00  0.0000000E+00
  0.1551020E+01  0.0000000E+00  0.0000000E+00  0.0000000E+00  0.0000000E+00  0.1000000E+01  0.4280000E+00  0.0000000E+00  0.0000000E+00
  0.1591837E+01  0.0000000E+00  0.0000000E+00  0.0000000E+00  0.0000000E+00  0.1000000E+01  0.4280000E+00  0.0000000E+00  0.0000000E+00
  0.1632653E+01  0.0000000E+00  0.0000000E+00  0.0000000E+00  0.0000000E+00  0.1000000E+01  0.4280000E+00  0.0000000E+00  0.0000000E+00
  0.1673469E+01  0.0000000E+00  0.0000000E+00  0.0000000E+00  0.0000000E+00  0.1000000E+01  0.4280000E+00  0.0000000E+00  0.0000000E+00
  0.1714286E+01  0.0000000E+00  0.0000000E+00  0.0000000E+00  0.0000000E+00  0.1000000E+01  0.4280000E+00  0.0000000E+00  0.0000000E+00
  0.1755102E+01  0.0000000E+00  0.0000000E+00  0.0000000E+00  0.0000000E+00  0.1000000E+01  0.4280000E+00  0.0000000E+00  0.0000000E+00
  0.1795918E+01  0.0000000E+00  0.0000000E+00  0.0000000E+00  0.0000000E+00  0.1000000E+01  0.4280000E+00  0.0000000E+00  0.0000000E+00
  0.1836735E+01  0.0000000E+00  0.0000000E+00  0.0000000E+00  0.0000000E+00  0.1000000E+01  0.4280000E+00  0.0000000E+00  0.0000000E+00
  0.1877551E+01  0.0000000E+00  0.0000000E+00  0.0000000E+00  0.0000000E+00  0.1000000E+01  0.4280000E+00  0.0000000E+00  0.0000000E+00
  0.1918367E+01  0.0000000E+00  0.0000000E+00  0.0000000E+00  0.0000000E+00  0.1000000E+01  0.4280000E+00  0.0000000E+00  0.0000000E+00
  0.1959184E+01  0.0000000E+00  0.0000000E+00  0.0000000E+00  0.0000000E+00  0.1000000E+01  0.4280000E+00  0.0000000E+00  0.0000000E+00
  0.2000000E+01  0.0000000E+00  0.0000000E+00  0.0000000E+00  0.0000000E+00  0.1000000E+01  0.4280000E+00  0.0000000E+00  0.0000000E+00
  0.0000000E+00  0.0000000E+00  0.4081633E-01 -0.8945881E-04 -0.4090579E-01  0.9960491E+00  0.4263090E+00  0.0000000E+00  0.0000000E+00
  0.4081633E-01  0.0000000E+00  0.4081633E-01 -0.8946995E-04 -0.4090580E-01  0.9960491E+00  0.4263090E+00  0.0000000E+00  0.0000000E+00
  0.8163265E-01  0.0000000E+00  0.4081633E-01 -0.8950092E-04 -0.4090583E-01  0.9960491E+00  0.4263090E+00  0.0000000E+00  0.0000000E+00
  0.1224490E+00  0.0000000E+00  0.4081633E-01 -0.8954448E-04 -0.4090587E-01  0.9960491E+00  0.4263090E+00  0.0000000E+00  0.0000000E+00
  0.1632653E+00  0.0000000E+00  0.4081633E-01 -0.8958898E-04 -0.4090592E-01  0.9960491E+00  0.4263090E+00  0.0000000E+00  0.0000000E+00
  0.2040816E+00  0.0000000E+00  0.4081633E-01 -0.8961904E-04 -0.4090595E-01  0.9960491E+00  0.4263090E+00  0.0000000E+00  0.0000000E+00
  0.2448980E+00  0.0000000E+00  0.4081633E-01 -0.8961644E-04 -0.4090594E-01  0.9960491E+00  0.4263090E+00  0.0000000E+00  0.0000000E+00
  0.2857143E+00  0.0000000E+00  0.4081633E-01 -0.8956115E-04 -0.4090589E-01  0.9960491E+00  0.4263090E+00  0.0000000E+00  0.0000000E+00
  0.3265306E+00  0.0000000E+00  0.4081633E-01 -0.8943264E-04 -0.4090576E-01  0.9960492E+00  0.4263090E+00  0.0000000E+00  0.0000000E+00
  0.3673469E+00  0.0000000E+00  0.4081633E-01 -0.8921118E-04 -0.4090554E-01  0.9960492E+00  0.4263091E+00  0.0000000E+00  0.0000000E+00
  0.4081633E+00  0.0000000E+00  0.4081633E-01 -0.8887918E-04 -0.4090521E-01  0.9960492E+00  0.4263091E+00  0.0000000E+00  0.0000000E+00
  0.4489796E+00  0.0000000E+00  0.4081633E-01 -0.8842240E-04 -0.4090475E-01  0.9960493E+00  0.4263091E+00  0.0000000E+00  0.0000000E+00
  0.4897959E+00  0.0000000E+00  0.4081633E-01 -0.8783090E-04 -0.4090416E-01  0.9960494E+00  0.4263091E+00  0.0000000E+00  0.0000000E+00
  0.5306122E+00  0.0000000E+00  0.4081633E-01 -0.8709980E-04 -0.4090343E-01  0.9960495E+00  0.4263092E+00  0.0000000E+00  0.0000000E+00
  0.5714286E+00  0.0000000E+00  0.4081633E-01 -0.8622951E-04 -0.4090256E-01  0.9960496E+00  0.4263092E+00  0.0000000E+00  0.0000000E+00
  0.6122449E+00  0.0000000E+00  0.4081633E-01 -0.8522567E-04 -0.4090155E-01  0.9960497E+00  0.4263093E+00  0.0000000E+00  0.0000000E+00
  0.6530612E+00  0.0000000E+00  0.4081633E-01 -0.8409872E-04 -0.4090043E-01  0.9960499E+00  0.4263093E+00  0.0000000E+00  0.0000000E+00
  0.6938776E+00  0.0000000E+00  0.4081633E-01 -0.8286310E-04 -0.4089919E-01  0.9960500E+00  0.4263094E+00  0.0000000E+00  0.0000000E+00
  0.7346939E+00  0.0000000E+00  0.4081633E-01 -0.8153628E-04 -0.4089786E-01  0.9960502E+00  0.4263095E+00  0.0000000E+00  0.0000000E+00
  0.7755102E+00  0.0000000E+00  0.4081633E-01 -0.8013775E-04 -0.4089646E-01  0.9960504E+00  0.4263096E+00  0.0000000E+00  0.0000000E+00
  0.8163265E+00  0.0000000E+00  0.4081633E-01 -0.7868788E-04 -0.4089501E-01  0.9960506E+00  0.4263096E+00  0.0000000E+00  0.0000000E+00
  0.8571429E+00  0.0000000E+00  0.4081633E-01 -0.7720699E-04 -0.4089353E-01  0.9960508E+00  0.4263097E+00  0.0000000E+00  0.0000000E+00
  0.8979592E+00  0.0000000E+00  0.4081633E-01 -0.7571449E-04 -0.4089204E-01  0.9960510E+00  0.4263098E+00  0.0000000E+00  0.0000000E+00
  0.9387755E+00  0.0000000E+00  0.4081633E-01 -0.7422827E-04 -0.4089055E-01  0.9960512E+00  0.4263099E+00  0.0000000E+00  0.0000000E+00
  0.9795918E+00  0.0000000E+00  0.4081633E-01 -0.7276422E-04 -0.4088909E-01  0.9960514E+00  0.4263100E+00  0.0000000E+00  0.0000000E+00
  0.1020408E+01  0.0000000E+00  0.4081633E-01 -0.7133597E-04 -0.4088766E-01  0.9960515E+00  0.4263101E+00  0.0000000E+00  0.0000000E+00
  0.1061224E+01  0.0000000E+00  0.4081633E-01 -0.6995482E-04 -0.4088628E-01  0.9960517E+00  0.4263101E+00  0.0000000E+00  0.0000000E+00
  0.1102041E+01  0.0000000E+00  0.4081633E-01 -0.6862969E-04 -0.4088496E-01  0.9960519E+00  0.4263102E+00  0.0000000E+00  0.0000000E+00
  0.1142857E+01  0.0000000E+00  0.4081633E-01 -0.6736735E-04 -0.4088369E-01  0.9960521E+00  0.4263103E+00  0.0000000E+00  0.0000000E+00
  0.1183673E+01  0.0000000E+00  0.4081633E-01 -0.6617253E-04 -0.4088250E-01  0.9960522E+00  0.4263104E+00  0.0000000E+00  0.0000000E+00
  0.1224490E+01  0.0000000E+00  0.4081633E-01 -0.6504822E-04 -0.4088137E-01  0.9960524E+00  0.4263104E+00  0.0000000E+00  0.0000000E+00
  0.1265306E+01  0.0000000E+00  0.4081633E-01 -0.6399590E-04 -0.4088032E-01  0.9960525E+00  0.4263105E+00  0.0000000E+00  0.0000000E+00
  0.1306122E+01  0.0000000E+00  0.4081633E-01 -0.6301582E-04 -0.4087934E-01  0.9960526E+00  0.4263105E+00  0.0000000E+00  0.0000000E+00
  0.1346939E+01  0.0000000E+00  0.4081633E-01 -0.6210725E-04 -0.4087843E-01  0.9960528E+00  0.4263106E+00  0.0000000E+00  0.0000000E+00
  0.1387755E+01  0.0000000E+00  0.4081633E-01 -0.6126875E-04 -0.4087760E-01  0.9960529E+00  0.4263106E+00  0.0000000E+00  0.0000000E+00
  0.1428571E+01  0.0000000E+00  0.4081633E-01 -0.6049835E-04 -0.4087682E-01  0.9960530E+00  0.4263107E+00  0.0000000E+00  0.0000000E+00
  0.1469388E+01  0.0000000E+00  0.4081633E-01 -0.5979376E-04 -0.4087612E-01  0.9960531E+00  0.4263107E+00  0.0000000E+00  0.0000000E+00
  0.1510204E+01  0.0000000E+00  0.4081633E-01 -0.5915255E-04 -0.4087548E-01  0.9960531E+00  0.4263107E+00  0.0000000E+00  0.0000000E+00
  0.1551020E+01  0.0000000E+00  0.4081633E-01 -0.5857224E-04 -0.4087490E-01  0.9960532E+00  0.4263108E+00  0.0000000E+00  0.0000000E+00
  0.1591837E+01  0.0000000E+00  0.4081633E-01 -0.5805046E-04 -0.4087438E-01  0.9960533E+00  0.4263108E+00  0.0000000E+00  0.0000000E+00
  0.1632653E+01  0.0000000E+00  0.4081633E-01 -0.5758495E-04 -0.4087391E-01  0.9960534E+00  0.4263108E+00  0.0000000E+00  0.0000000E+00
  0.1673469E+01  0.0000000E+00  0.4081633E-01 -0.5717369E-04 -0.4087350E-01  0.9960534E+00  0.4263109E+00  0.0000000E+00  0.0000000E+00
  0.1714286E+01  0.0000000E+00  0.4081633E-01 -0.5681486E-04 -0.4087314E-01  0.9960535E+00  0.4263109E+00  0.0000000E+00  0.0000000E+00
  0.1755102E+01  0.0000000E+00  0.4081633E-01 -0.5650688E-04 -0.4087283E-01  0.9960535E+00  0.4263109E+00  0.0000000E+00  0.0000000E+00
  0.1795918E+01  0.0000000E+00  0.4081633E-01 -0.5624844E-04 -0.4087257E-01  0.9960535E+00  0.4263109E+00  0.0000000E+00  0.0000000E+00
  0.1836735E+01  0.0000000E+00  0.4081633E-01 -0.5603842E-04 -0.4087236E-01  0.9960536E+00  0.4263109E+00  0.0000000E+00  0.0000000E+00
  0.1877551E+01  0.0000000E+00  0.4081633E-01 -0.5587595E-04 -0.4087220E-01  0.9960536E+00  0.4263109E+00  0.0000000E+00  0.0000000E+00
  0.1918367E+01  0.0000000E+00  0.4081633E-01 -0.5576037E-04 -0.4087209E-01  0.9960536E+00  0.4263109E+00  0.0000000E+00  0.0000000E+00
  0.1959184E+01  0.0000000E+00  0.4081633E-01 -0.5569120E-04 -0.4087202E-01  0.9960536E+00  0.4263109E+00  0.0000000E+00  0.0000000E+00
  0.2000000E+01  0.0000000E+00  0.4081633E-01 -0.5566817E-04 -0.4087199E-01  0.9960536E+00  0.4263109E+00  0.0000000E+00  0.0000000E+00
  0.0000000E+00  0.0000000E+00  0.8163265E-01 -0.2814721E-03 -0.8191413E-01  0.9898590E+00  0.4236597E+00  0.0000000E+00  0.0000000E+00
  0.4081633E-01  0.0000000E+00  0.8163265E-01 -0.2815097E-03 -0.8191416E-01  0.9898590E+00  0.4236597E+00  0.0000000E+00  0.0000000E+00
  0.8163265E-01  0.0000000E+00  0.8163265E-01 -0.2816144E-03 -0.8191427E-01  0.9898590E+00  0.4236596E+00  0.0000000E+00  0.0000000E+00
  0.1224490E+00  0.0000000E+00  0.8163265E-01 -0.2817632E-03 -0.8191442E-01  0.9898590E+00  0.4236596E+00  0.0000000E+00  0.0000000E+00
  0.1632653E+00  0.0000000E+00  0.8163265E-01 -0.2819187E-03 -0.8191457E-01  0.9898589E+00  0.4236596E+00  0.0000000E+00  0.0000000E+00
  0.2040816E+00  0.0000000E+00  0.8163265E-01 -0.2820316E-03 -0.8191468E-01  0.9898589E+00  0.4236596E+00  0.0000000E+00  0.0000000E+00
  0.2448980E+00  0.0000000E+00  0.8163265E-01 -0.2820434E-03 -0.8191470E-01  0.9898589E+00  0.4236596E+00  0.0000000E+00  0.0000000E+00
  0.2857143E+00  0.0000000E+00  0.8163265E-01 -0.2818898E-03 -0.8191454E-01  0.9898589E+00  0.4236596E+00  0.0000000E+00  0.0000000E+00
  0.3265306E+00  0.0000000E+00  0.8163265E-01 -0.2815050E-03 -0.8191416E-01  0.9898590E+00  0.4236597E+00  0.0000000E+00  0.0000000E+00
  0.3673469E+00  0.0000000E+00  0.8163265E-01 -0.2808254E-03 -0.8191348E-01  0.9898591E+00  0.4236597E+00  0.0000000E+00  0.0000000E+00
  0.4081633E+00  0.0000000E+00  0.8163265E-01 -0.2797944E-03 -0.8191245E-01  0.9898593E+00  0.4236598E+00  0.0000000E+00  0.0000000E+00
  0.4489796E+00  0.0000000E+00  0.8163265E-01 -0.2783662E-03 -0.8191102E-01  0.9898595E+00  0.4236599E+00  0.0000000E+00  0.0000000E+00
  0.4897959E+00  0.0000000E+00  0.8163265E-01 -0.2765089E-03 -0.8190916E-01  0.9898598E+00  0.4236600E+00  0.0000000E+00  0.0000000E+00
  0.5306122E+00  0.0000000E+00  0.8163265E-01 -0.2742068E-03 -0.8190686E-01  0.9898602E+00  0.4236602E+00  0.0000000E+00  0.0000000E+00
  0.5714286E+00  0.0000000E+00  0.8163265E-01 -0.2714613E-03 -0.8190411E-01  0.9898607E+00  0.4236604E+00  0.0000000E+00  0.0000000E+00
  0.6122449E+00  0.0000000E+00  0.8163265E-01 -0.2682906E-03 -0.8190094E-01  0.9898612E+00  0.4236606E+00  0.0000000E+00  0.0000000E+00
  0.6530612E+00  0.0000000E+00  0.8163265E-01 -0.2647283E-03 -0.8189738E-01  0.9898618E+00  0.4236609E+00  0.0000000E+00  0.0000000E+00
  0.6938776E+00  0.0000000E+00  0.8163265E-01 -0.2608210E-03 -0.8189347E-01  0.9898625E+00  0.4236611E+00  0.0000000E+00  0.0000000E+00
  0.7346939E+00  0.0000000E+00  0.8163265E-01 -0.2566246E-03 -0.8188928E-01  0.9898632E+00  0.4236614E+00  0.0000000E+00  0.0000000E+00
  0.7755102E+00  0.0000000E+00  0.8163265E-01 -0.2522016E-03 -0.8188485E-01  0.9898639E+00  0.4236617E+00  0.0000000E+00  0.0000000E+00
  0.8163265E+00  0.0000000E+00  0.8163265E-01 -0.2476172E-03 -0.8188027E-01  0.9898647E+00  0.4236621E+00  0.0000000E+00  0.0000000E+00
  0.8571429E+00  0.0000000E+00  0.8163265E-01 -0.2429360E-03 -0.8187559E-01  0.9898654E+00  0.4236624E+00  0.0000000E+00  0.0000000E+00
  0.8979592E+00  0.0000000E+00  0.8163265E-01 -0.2382200E-03 -0.8187087E-01  0.9898662E+00  0.4236627E+00  0.0000000E+00  0.0000000E+00
  0.9387755E+00  0.0000000E+00  0.8163265E-01 -0.2335258E-03 -0.8186618E-01  0.9898670E+00  0.4236631E+00  0.0000000E+00  0.0000000E+00
  0.9795918E+00  0.0000000E+00  0.8163265E-01 -0.2289037E-03 -0.8186156E-01  0.9898678E+00  0.4236634E+00  0.0000000E+00  0.0000000E+00
  0.1020408E+01  0.0000000E+00  0.8163265E-01 -0.2243967E-03 -0.8185705E-01  0.9898685E+00  0.4236637E+00  0.0000000E+00  0.0000000E+00
  0.1061224E+01  0.0000000E+00  0.8163265E-01 -0.2200404E-03 -0.8185269E-01  0.9898692E+00  0.4236640E+00  0.0000000E+00  0.0000000E+00
  0.1102041E+01  0.0000000E+00  0.8163265E-01 -0.2158627E-03 -0.8184852E-01  0.9898699E+00  0.4236643E+00  0.0000000E+00  0.0000000E+00
  0.1142857E+01  0.0000000E+00  0.8163265E-01 -0.2118847E-03 -0.8184454E-01  0.9898706E+00  0.4236646E+00  0.0000000E+00  0.0000000E+00
  0.1183673E+01  0.0000000E+00  0.8163265E-01 -0.2081210E-03 -0.8184077E-01  0.9898712E+00  0.4236649E+00  0.0000000E+00  0.0000000E+00
  0.1224490E+01  0.0000000E+00  0.8163265E-01 -0.2045808E-03 -0.8183723E-01  0.9898718E+00  0.4236651E+00  0.0000000E+00  0.0000000E+00
  0.1265306E+01  0.0000000E+00  0.8163265E-01 -0.2012685E-03 -0.8183392E-01  0.9898724E+00  0.4236654E+00  0.0000000E+00  0.0000000E+00
  0.1306122E+01  0.0000000E+00  0.8163265E-01 -0.1981845E-03 -0.8183084E-01  0.9898729E+00  0.4236656E+00  0.0000000E+00  0.0000000E+00
  0.1346939E+01  0.0000000E+00  0.8163265E-01 -0.1953264E-03 -0.8182798E-01  0.9898734E+00  0.4236658E+00  0.0000000E+00  0.0000000E+00
  0.1387755E+01  0.0000000E+00  0.8163265E-01 -0.1926893E-03 -0.8182534E-01  0.9898738E+00  0.4236660E+00  0.0000000E+00  0.0000000E+00
  0.1428571E+01  0.0000000E+00  0.8163265E-01 -0.1902669E-03 -0.8182292E-01  0.9898742E+00  0.4236662E+00  0.0000000E+00  0.0000000E+00
  0.1469388E+01  0.0000000E+00  0.8163265E-01 -0.1880519E-03 -0.8182070E-01  0.9898746E+00  0.4236663E+00  0.0000000E+00  0.0000000E+00
  0.1510204E+01  0.0000000E+00  0.8163265E-01 -0.1860363E-03 -0.8181869E-01  0.9898749E+00  0.4236665E+00  0.0000000E+00  0.0000000E+00
  0.1551020E+01  0.0000000E+00  0.8163265E-01 -0.1842123E-03 -0.8181687E-01  0.9898752E+00  0.4236666E+00  0.0000000E+00  0.0000000E+00
  0.1591837E+01  0.0000000E+00  0.8163265E-01 -0.1825724E-03 -0.8181523E-01  0.9898755E+00  0.4236667E+00  0.0000000E+00  0.0000000E+00
  0.1632653E+01  0.0000000E+00  0.8163265E-01 -0.1811094E-03 -0.8181376E-01  0.9898757E+00  0.4236668E+00  0.0000000E+00  0.0000000E+00
  0.1673469E+01  0.0000000E+00  0.8163265E-01 -0.1798170E-03 -0.8181247E-01  0.9898759E+00  0.4236669E+00  0.0000000E+00  0.0000000E+00
  0.1714286E+01  0.0000000E+00  0.8163265E-01 -0.1786892E-03 -0.8181134E-01  0.9898761E+00  0.4236670E+00  0.0000000E+00  0.0000000E+00
  0.1755102E+01  0.0000000E+00  0.8163265E-01 -0.1777213E-03 -0.8181037E-01  0.9898763E+00  0.4236671E+00  0.0000000E+00  0.0000000E+00
  0.1795918E+01  0.0000000E+00  0.8163265E-01 -0.1769091E-03 -0.8180956E-01  0.9898764E+00  0.4236671E+00  0.0000000E+00  0.0000000E+00
  0.1836735E+01  0.0000000E+00  0.8163265E-01 -0.1762490E-03 -0.8180890E-01  0.9898765E+00  0.4236672E+00  0.0000000E+00  0.0000000E+00
  0.1877551E+01  0.0000000E+00  0.8163265E-01 -0.1757384E-03 -0.8180839E-01  0.9898766E+00  0.4236672E+00  0.0000000E+00  0.0000000E+00
  0.1918367E+01  0.0000000E+00  0.8163265E-01 -0.1753751E-03 -0.8180803E-01  0.9898767E+00  0.4236672E+00  0.0000000E+00  0.0000000E+00
  0.1959184E+01  0.0000000E+00  0.8163265E-01 -0.1751577E-03 -0.8180781E-01  0.9898767E+00  0.4236672E+00  0.0000000E+00  0.0000000E+00
  0.2000000E+01  0.0000000E+00  0.8163265E-01 -0.1750853E-03 -0.8180774E-01  0.9898767E+00  0.4236672E+00  0.0000000E+00  0.0000000E+00
  0.0000000E+00  0.0000000E+00  0.1224490E+00 -0.5394336E-03 -0.1229884E+00  0.9825589E+00  0.4205352E+00  0.0000000E+00  0.0000000E+00
  0.4081633E-01  0.0000000E+00  0.1224490E+00 -0.5395145E-03 -0.1229885E+00  0.9825589E+00  0.4205352E+00  0.0000000E+00  0.0000000E+00
  0.8163265E-01  0.0000000E+00  0.1224490E+00 -0.5397417E-03 -0.1229887E+00  0.9825588E+00  0.4205352E+00  0.0000000E+00  0.0000000E+00
  0.1224490E+00  0.0000000E+00  0.1224490E+00 -0.5400693E-03 -0.1229890E+00  0.9825588E+00  0.4205352E+00  0.0000000E+00  0.0000000E+00
  0.1632653E+00  0.0000000E+00  0.1224490E+00 -0.5404234E-03 -0.1229894E+00  0.9825587E+00  0.4205351E+00  0.0000000E+00  0.0000000E+00
  0.2040816E+00  0.0000000E+00  0.1224490E+00 -0.5407063E-03 -0.1229897E+00  0.9825587E+00  0.4205351E+00  0.0000000E+00  0.0000000E+00
  0.2448980E+00  0.0000000E+00  0.1224490E+00 -0.5408017E-03 -0.1229898E+00  0.9825586E+00  0.4205351E+00  0.0000000E+00  0.0000000E+00
  0.2857143E+00  0.0000000E+00  0.1224490E+00 -0.5405820E-03 -0.1229896E+00  0.9825587E+00  0.4205351E+00  0.0000000E+00  0.0000000E+00
  0.3265306E+00  0.0000000E+00  0.1224490E+00 -0.5399157E-03 -0.1229889E+00  0.9825588E+00  0.4205352E+00  0.0000000E+00  0.0000000E+00
  0.3673469E+00  0.0000000E+00  0.1224490E+00 -0.5386763E-03 -0.1229877E+00  0.9825590E+00  0.4205353E+00  0.0000000E+00  0.0000000E+00
  0.4081633E+00  0.0000000E+00  0.1224490E+00 -0.5367509E-03 -0.1229857E+00  0.9825594E+00  0.4205354E+00  0.0000000E+00  0.0000000E+00
  0.4489796E+00  0.0000000E+00  0.1224490E+00 -0.5340478E-03 -0.1229830E+00  0.9825599E+00  0.4205356E+00  0.0000000E+00  0.0000000E+00
  0.4897959E+00  0.0000000E+00  0.1224490E+00 -0.5305034E-03 -0.1229795E+00  0.9825606E+00  0.4205359E+00  0.0000000E+00  0.0000000E+00
  0.5306122E+00  0.0000000E+00  0.1224490E+00 -0.5260865E-03 -0.1229751E+00  0.9825614E+00  0.4205363E+00  0.0000000E+00  0.0000000E+00
  0.5714286E+00  0.0000000E+00  0.1224490E+00 -0.5208001E-03 -0.1229698E+00  0.9825624E+00  0.4205367E+00  0.0000000E+00  0.0000000E+00
  0.6122449E+00  0.0000000E+00  0.1224490E+00 -0.5146810E-03 -0.1229637E+00  0.9825635E+00  0.4205372E+00  0.0000000E+00  0.0000000E+00
  0.6530612E+00  0.0000000E+00  0.1224490E+00 -0.5077964E-03 -0.1229568E+00  0.9825648E+00  0.4205377E+00  0.0000000E+00  0.0000000E+00
  0.6938776E+00  0.0000000E+00  0.1224490E+00 -0.5002390E-03 -0.1229492E+00  0.9825662E+00  0.4205384E+00  0.0000000E+00  0.0000000E+00
  0.7346939E+00  0.0000000E+00  0.1224490E+00 -0.4921205E-03 -0.1229411E+00  0.9825678E+00  0.4205390E+00  0.0000000E+00  0.0000000E+00
  0.7755102E+00  0.0000000E+00  0.1224490E+00 -0.4835643E-03 -0.1229325E+00  0.9825694E+00  0.4205397E+00  0.0000000E+00  0.0000000E+00
  0.8163265E+00  0.0000000E+00  0.1224490E+00 -0.4746990E-03 -0.1229237E+00  0.9825710E+00  0.4205404E+00  0.0000000E+00  0.0000000E+00
  0.8571429E+00  0.0000000E+00  0.1224490E+00 -0.4656519E-03 -0.1229146E+00  0.9825727E+00  0.4205411E+00  0.0000000E+00  0.0000000E+00
  0.8979592E+00  0.0000000E+00  0.1224490E+00 -0.4565436E-03 -0.1229055E+00  0.9825744E+00  0.4205419E+00  0.0000000E+00  0.0000000E+00
  0.9387755E+00  0.0000000E+00  0.1224490E+00 -0.4474848E-03 -0.1228965E+00  0.9825761E+00  0.4205426E+00  0.0000000E+00  0.0000000E+00
  0.9795918E+00  0.0000000E+00  0.1224490E+00 -0.4385726E-03 -0.1228876E+00  0.9825778E+00  0.4205433E+00  0.0000000E+00  0.0000000E+00
  0.1020408E+01  0.0000000E+00  0.1224490E+00 -0.4298899E-03 -0.1228789E+00  0.9825794E+00  0.4205440E+00  0.0000000E+00  0.0000000E+00
  0.1061224E+01  0.0000000E+00  0.1224490E+00 -0.4215046E-03 -0.1228705E+00  0.9825810E+00  0.4205447E+00  0.0000000E+00  0.0000000E+00
  0.1102041E+01  0.0000000E+00  0.1224490E+00 -0.4134700E-03 -0.1228624E+00  0.9825825E+00  0.4205453E+00  0.0000000E+00  0.0000000E+00
  0.1142857E+01  0.0000000E+00  0.1224490E+00 -0.4058256E-03 -0.1228548E+00  0.9825839E+00  0.4205459E+00  0.0000000E+00  0.0000000E+00
  0.1183673E+01  0.0000000E+00  0.1224490E+00 -0.3985986E-03 -0.1228476E+00  0.9825853E+00  0.4205465E+00  0.0000000E+00  0.0000000E+00
  0.1224490E+01  0.0000000E+00  0.1224490E+00 -0.3918056E-03 -0.1228408E+00  0.9825865E+00  0.4205470E+00  0.0000000E+00  0.0000000E+00
  0.1265306E+01  0.0000000E+00  0.1224490E+00 -0.3854540E-03 -0.1228344E+00  0.9825877E+00  0.4205476E+00  0.0000000E+00  0.0000000E+00
  0.1306122E+01  0.0000000E+00  0.1224490E+00 -0.3795438E-03 -0.1228285E+00  0.9825888E+00  0.4205480E+00  0.0000000E+00  0.0000000E+00
  0.1346939E+01  0.0000000E+00  0.1224490E+00 -0.3740693E-03 -0.1228230E+00  0.9825899E+00  0.4205485E+00  0.0000000E+00  0.0000000E+00
  0.1387755E+01  0.0000000E+00  0.1224490E+00 -0.3690205E-03 -0.1228180E+00  0.9825908E+00  0.4205489E+00  0.0000000E+00  0.0000000E+00
  0.1428571E+01  0.0000000E+00  0.1224490E+00 -0.3643844E-03 -0.1228134E+00  0.9825917E+00  0.4205492E+00  0.0000000E+00  0.0000000E+00
  0.1469388E+01  0.0000000E+00  0.1224490E+00 -0.3601464E-03 -0.1228091E+00  0.9825925E+00  0.4205496E+00  0.0000000E+00  0.0000000E+00
  0.1510204E+01  0.0000000E+00  0.1224490E+00 -0.3562910E-03 -0.1228053E+00  0.9825932E+00  0.4205499E+00  0.0000000E+00  0.0000000E+00
  0.1551020E+01  0.0000000E+00  0.1224490E+00 -0.3528027E-03 -0.1228018E+00  0.9825939E+00  0.4205502E+00  0.0000000E+00  0.0000000E+00
  0.1591837E+01  0.0000000E+00  0.1224490E+00 -0.3496667E-03 -0.1227986E+00  0.9825944E+00  0.4205504E+00  0.0000000E+00  0.0000000E+00
  0.1632653E+01  0.0000000E+00  0.1224490E+00 -0.3468692E-03 -0.1227958E+00  0.9825950E+00  0.4205506E+00  0.0000000E+00  0.0000000E+00
  0.1673469E+01  0.0000000E+00  0.1224490E+00 -0.3443977E-03 -0.1227934E+00  0.9825954E+00  0.4205508E+00  0.0000000E+00  0.0000000E+00
  0.1714286E+01  0.0000000E+00  0.1224490E+00 -0.3422413E-03 -0.1227912E+00  0.9825958E+00  0.4205510E+00  0.0000000E+00  0.0000000E+00
  0.1755102E+01  0.0000000E+00  0.1224490E+00 -0.3403905E-03 -0.1227894E+00  0.9825962E+00  0.4205512E+00  0.0000000E+00  0.0000000E+00
  0.1795918E+01  0.0000000E+00  0.1224490E+00 -0.3388372E-03 -0.1227878E+00  0.9825965E+00  0.4205513E+00  0.0000000E+00  0.0000000E+00
  0.1836735E+01  0.0000000E+00  0.1224490E+00 -0.3375748E-03 -0.1227866E+00  0.9825967E+00  0.4205514E+00  0.0000000E+00  0.0000000E+00
  0.1877551E+01  0.0000000E+00  0.1224490E+00 -0.3365982E-03 -0.1227856E+00  0.9825969E+00  0.4205515E+00  0.0000000E+00  0.0000000E+00
  0.1918367E+01  0.0000000E+00  0.1224490E+00 -0.3359035E-03 -0.1227849E+00  0.9825970E+00  0.4205515E+00  0.0000000E+00  0.0000000E+00
  0.1959184E+01  0.0000000E+00  0.1224490E+00 -0.3354877E-03 -0.1227845E+00  0.9825971E+00  0.4205516E+00  0.0000000E+00  0.0000000E+00
  0.2000000E+01  0.0000000E+00  0.1224490E+00 -0.3353492E-03 -0.1227843E+00  0.9825971E+00  0.4205516E+00  0.0000000E+00  0.0000000E+00
  0.0000000E+00  0.0000000E+00  0.1632653E+00 -0.8657884E-03 -0.1641311E+00  0.9745577E+00  0.4171107E+00  0.0000000E+00  0.0000000E+00
  0.4081633E-01  0.0000000E+00  0.1632653E+00 -0.8659399E-03 -0.1641312E+00  0.9745576E+00  0.4171107E+00  0.0000000E+00  0.0000000E+00
  0.8163265E-01  0.0000000E+00  0.1632653E+00 -0.8663682E-03 -0.1641317E+00  0.9745575E+00  0.4171106E+00  0.0000000E+00  0.0000000E+00
  0.1224490E+00  0.0000000E+00  0.1632653E+00 -0.8669962E-03 -0.1641323E+00  0.9745574E+00  0.4171106E+00  0.0000000E+00  0.0000000E+00
  0.1632653E+00  0.0000000E+00  0.1632653E+00 -0.8676999E-03 -0.1641330E+00  0.9745573E+00  0.4171105E+00  0.0000000E+00  0.0000000E+00
  0.2040816E+00  0.0000000E+00  0.1632653E+00 -0.8683144E-03 -0.1641336E+00  0.9745572E+00  0.4171105E+00  0.0000000E+00  0.0000000E+00
  0.2448980E+00  0.0000000E+00  0.1632653E+00 -0.8686437E-03 -0.1641339E+00  0.9745571E+00  0.4171104E+00  0.0000000E+00  0.0000000E+00
  0.2857143E+00  0.0000000E+00  0.1632653E+00 -0.8684715E-03 -0.1641338E+00  0.9745571E+00  0.4171104E+00  0.0000000E+00  0.0000000E+00
  0.3265306E+00  0.0000000E+00  0.1632653E+00 -0.8675751E-03 -0.1641329E+00  0.9745573E+00  0.4171105E+00  0.0000000E+00  0.0000000E+00
  0.3673469E+00  0.0000000E+00  0.1632653E+00 -0.8657393E-03 -0.1641310E+00  0.9745577E+00  0.4171107E+00  0.0000000E+00  0.0000000E+00
  0.4081633E+00  0.0000000E+00  0.1632653E+00 -0.8627718E-03 -0.1641281E+00  0.9745583E+00  0.4171109E+00  0.0000000E+00  0.0000000E+00
  0.4489796E+00  0.0000000E+00  0.1632653E+00 -0.8585166E-03 -0.1641238E+00  0.9745591E+00  0.4171113E+00  0.0000000E+00  0.0000000E+00
  0.4897959E+00  0.0000000E+00  0.1632653E+00 -0.8528654E-03 -0.1641182E+00  0.9745603E+00  0.4171118E+00  0.0000000E+00  0.0000000E+00
  0.5306122E+00  0.0000000E+00  0.1632653E+00 -0.8457652E-03 -0.1641111E+00  0.9745617E+00  0.4171124E+00  0.0000000E+00  0.0000000E+00
  0.5714286E+00  0.0000000E+00  0.1632653E+00 -0.8372221E-03 -0.1641025E+00  0.9745634E+00  0.4171131E+00  0.0000000E+00  0.0000000E+00
  0.6122449E+00  0.0000000E+00  0.1632653E+00 -0.8272992E-03 -0.1640926E+00  0.9745654E+00  0.4171140E+00  0.0000000E+00  0.0000000E+00
  0.6530612E+00  0.0000000E+00  0.1632653E+00 -0.8161117E-03 -0.1640814E+00  0.9745676E+00  0.4171149E+00  0.0000000E+00  0.0000000E+00
  0.6938776E+00  0.0000000E+00  0.1632653E+00 -0.8038174E-03 -0.1640691E+00  0.9745701E+00  0.4171160E+00  0.0000000E+00  0.0000000E+00
  0.7346939E+00  0.0000000E+00  0.1632653E+00 -0.7906053E-03 -0.1640559E+00  0.9745727E+00  0.4171171E+00  0.0000000E+00  0.0000000E+00