title = "dataset feddes"
variables = "x", "y", "z", "vx", "vy", "vz"
zone t = "velocities, solution time =  4.800E+01 days        " i =   49, j =   49, k =    1,  f=point
  0.2040816E-01  0.0000000E+00  0.2040816E-01  0.5831067E-07  0.0000000E+00  0.9992179E-03
  0.6122449E-01  0.0000000E+00  0.2040816E-01  0.1617582E-06  0.0000000E+00  0.9996903E-03
  0.1020408E+00  0.0000000E+00  0.2040816E-01  0.2257963E-06  0.0000000E+00  0.1000522E-02
  0.1428571E+00  0.0000000E+00  0.2040816E-01  0.2265016E-06  0.0000000E+00  0.1001493E-02
  0.1836735E+00  0.0000000E+00  0.2040816E-01  0.1435123E-06  0.0000000E+00  0.1002287E-02
  0.2244898E+00  0.0000000E+00  0.2040816E-01 -0.3873691E-07  0.0000000E+00  0.1002512E-02
  0.2653061E+00  0.0000000E+00  0.2040816E-01 -0.3298746E-06  0.0000000E+00  0.1001721E-02
  0.3061225E+00  0.0000000E+00  0.2040816E-01 -0.7327499E-06  0.0000000E+00  0.9994400E-03
  0.3469388E+00  0.0000000E+00  0.2040816E-01 -0.1242969E-05  0.0000000E+00  0.9951991E-03
  0.3877551E+00  0.0000000E+00  0.2040816E-01 -0.1848936E-05  0.0000000E+00  0.9885624E-03
  0.4285714E+00  0.0000000E+00  0.2040816E-01 -0.2532472E-05  0.0000000E+00  0.9791577E-03
  0.4693878E+00  0.0000000E+00  0.2040816E-01 -0.3270008E-05  0.0000000E+00  0.9667029E-03
  0.5102041E+00  0.0000000E+00  0.2040816E-01 -0.4034279E-05  0.0000000E+00  0.9510246E-03
  0.5510204E+00  0.0000000E+00  0.2040816E-01 -0.4796350E-05  0.0000000E+00  0.9320704E-03
  0.5918368E+00  0.0000000E+00  0.2040816E-01 -0.5527754E-05  0.0000000E+00  0.9099109E-03
  0.6326531E+00  0.0000000E+00  0.2040816E-01 -0.6202498E-05  0.0000000E+00  0.8847337E-03
  0.6734694E+00  0.0000000E+00  0.2040816E-01 -0.6798701E-05  0.0000000E+00  0.8568291E-03
  0.7142857E+00  0.0000000E+00  0.2040816E-01 -0.7299726E-05  0.0000000E+00  0.8265702E-03
  0.7551020E+00  0.0000000E+00  0.2040816E-01 -0.7694734E-05  0.0000000E+00  0.7943889E-03
  0.7959183E+00  0.0000000E+00  0.2040816E-01 -0.7978668E-05  0.0000000E+00  0.7607513E-03
  0.8367347E+00  0.0000000E+00  0.2040816E-01 -0.8151782E-05  0.0000000E+00  0.7261335E-03
  0.8775510E+00  0.0000000E+00  0.2040816E-01 -0.8218832E-05  0.0000000E+00  0.6910012E-03
  0.9183673E+00  0.0000000E+00  0.2040816E-01 -0.8188076E-05  0.0000000E+00  0.6557919E-03
  0.9591837E+00  0.0000000E+00  0.2040816E-01 -0.8070225E-05  0.0000000E+00  0.6209023E-03
  0.1000000E+01  0.0000000E+00  0.2040816E-01 -0.7877443E-05  0.0000000E+00  0.5866802E-03
  0.1040816E+01  0.0000000E+00  0.2040816E-01 -0.7622470E-05  0.0000000E+00  0.5534196E-03
  0.1081633E+01  0.0000000E+00  0.2040816E-01 -0.7317906E-05  0.0000000E+00  0.5213605E-03
  0.1122449E+01  0.0000000E+00  0.2040816E-01 -0.6975675E-05  0.0000000E+00  0.4906899E-03
  0.1163265E+01  0.0000000E+00  0.2040816E-01 -0.6606643E-05  0.0000000E+00  0.4615461E-03
  0.1204082E+01  0.0000000E+00  0.2040816E-01 -0.6220389E-05  0.0000000E+00  0.4340234E-03
  0.1244898E+01  0.0000000E+00  0.2040816E-01 -0.5825090E-05  0.0000000E+00  0.4081782E-03
  0.1285714E+01  0.0000000E+00  0.2040816E-01 -0.5427501E-05  0.0000000E+00  0.3840347E-03
  0.1326531E+01  0.0000000E+00  0.2040816E-01 -0.5032996E-05  0.0000000E+00  0.3615910E-03
  0.1367347E+01  0.0000000E+00  0.2040816E-01 -0.4645664E-05  0.0000000E+00  0.3408250E-03
  0.1408163E+01  0.0000000E+00  0.2040816E-01 -0.4268430E-05  0.0000000E+00  0.3216998E-03
  0.1448980E+01  0.0000000E+00  0.2040816E-01 -0.3903198E-05  0.0000000E+00  0.3041677E-03
  0.1489796E+01  0.0000000E+00  0.2040816E-01 -0.3551006E-05  0.0000000E+00  0.2881750E-03
  0.1530612E+01  0.0000000E+00  0.2040816E-01 -0.3212179E-05  0.0000000E+00  0.2736651E-03
  0.1571429E+01  0.0000000E+00  0.2040816E-01 -0.2886484E-05  0.0000000E+00  0.2605809E-03
  0.1612245E+01  0.0000000E+00  0.2040816E-01 -0.2573266E-05  0.0000000E+00  0.2488676E-03
  0.1653061E+01  0.0000000E+00  0.2040816E-01 -0.2271579E-05  0.0000000E+00  0.2384735E-03
  0.1693878E+01  0.0000000E+00  0.2040816E-01 -0.1980286E-05  0.0000000E+00  0.2293517E-03
  0.1734694E+01  0.0000000E+00  0.2040816E-01 -0.1698148E-05  0.0000000E+00  0.2214601E-03
  0.1775510E+01  0.0000000E+00  0.2040816E-01 -0.1423881E-05  0.0000000E+00  0.2147623E-03
  0.1816326E+01  0.0000000E+00  0.2040816E-01 -0.1156199E-05  0.0000000E+00  0.2092272E-03
  0.1857143E+01  0.0000000E+00  0.2040816E-01 -0.8938402E-06  0.0000000E+00  0.2048291E-03
  0.1897959E+01  0.0000000E+00  0.2040816E-01 -0.6355736E-06  0.0000000E+00  0.2015481E-03
  0.1938776E+01  0.0000000E+00  0.2040816E-01 -0.3802032E-06  0.0000000E+00  0.1993689E-03
  0.1989796E+01  0.0000000E+00  0.2040816E-01 -0.1265627E-06  0.0000000E+00  0.1982817E-03
  0.2040816E-01  0.0000000E+00  0.6122449E-01  0.2049116E-06  0.0000000E+00  0.9990021E-03
  0.6122449E-01  0.0000000E+00  0.6122449E-01  0.5700409E-06  0.0000000E+00  0.9995273E-03
  0.1020408E+00  0.0000000E+00  0.6122449E-01  0.8018743E-06  0.0000000E+00  0.1000462E-02
  0.1428571E+00  0.0000000E+00  0.6122449E-01  0.8193929E-06  0.0000000E+00  0.1001580E-02
  0.1836735E+00  0.0000000E+00  0.6122449E-01  0.5535737E-06  0.0000000E+00  0.1002557E-02
  0.2244898E+00  0.0000000E+00  0.6122449E-01 -0.4844776E-07  0.0000000E+00  0.1002990E-02
  0.2653061E+00  0.0000000E+00  0.6122449E-01 -0.1019493E-05  0.0000000E+00  0.1002420E-02
  0.3061225E+00  0.0000000E+00  0.6122449E-01 -0.2369424E-05  0.0000000E+00  0.1000358E-02
  0.3469388E+00  0.0000000E+00  0.6122449E-01 -0.4083524E-05  0.0000000E+00  0.9963199E-03
  0.3877551E+00  0.0000000E+00  0.6122449E-01 -0.6122578E-05  0.0000000E+00  0.9898564E-03
  0.4285714E+00  0.0000000E+00  0.6122449E-01 -0.8424930E-05  0.0000000E+00  0.9805833E-03
  0.4693878E+00  0.0000000E+00  0.6122449E-01 -0.1091054E-04  0.0000000E+00  0.9682091E-03
  0.5102041E+00  0.0000000E+00  0.6122449E-01 -0.1348676E-04  0.0000000E+00  0.9525553E-03
  0.5510204E+00  0.0000000E+00  0.6122449E-01 -0.1605528E-04  0.0000000E+00  0.9335682E-03
  0.5918368E+00  0.0000000E+00  0.6122449E-01 -0.1851946E-04  0.0000000E+00  0.9113213E-03
  0.6326531E+00  0.0000000E+00  0.6122449E-01 -0.2079118E-04  0.0000000E+00  0.8860087E-03
  0.6734694E+00  0.0000000E+00  0.6122449E-01 -0.2279646E-04  0.0000000E+00  0.8579303E-03
  0.7142857E+00  0.0000000E+00  0.6122449E-01 -0.2447928E-04  0.0000000E+00  0.8274701E-03
  0.7551020E+00  0.0000000E+00  0.6122449E-01 -0.2580341E-04  0.0000000E+00  0.7950715E-03
  0.7959183E+00  0.0000000E+00  0.6122449E-01 -0.2675231E-04  0.0000000E+00  0.7612118E-03
  0.8367347E+00  0.0000000E+00  0.6122449E-01 -0.2732742E-04  0.0000000E+00  0.7263770E-03
  0.8775510E+00  0.0000000E+00  0.6122449E-01 -0.2754538E-04  0.0000000E+00  0.6910406E-03
  0.9183673E+00  0.0000000E+00  0.6122449E-01 -0.2743458E-04  0.0000000E+00  0.6556462E-03
  0.9591837E+00  0.0000000E+00  0.6122449E-01 -0.2703156E-04  0.0000000E+00  0.6205944E-03
  0.1000000E+01  0.0000000E+00  0.6122449E-01 -0.2637765E-04  0.0000000E+00  0.5862350E-03
  0.1040816E+01  0.0000000E+00  0.6122449E-01 -0.2551596E-04  0.0000000E+00  0.5528624E-03
  0.1081633E+01  0.0000000E+00  0.6122449E-01 -0.2448901E-04  0.0000000E+00  0.5207159E-03
  0.1122449E+01  0.0000000E+00  0.6122449E-01 -0.2333695E-04  0.0000000E+00  0.4899806E-03
  0.1163265E+01  0.0000000E+00  0.6122449E-01 -0.2209626E-04  0.0000000E+00  0.4607926E-03
  0.1204082E+01  0.0000000E+00  0.6122449E-01 -0.2079904E-04  0.0000000E+00  0.4332436E-03
  0.1244898E+01  0.0000000E+00  0.6122449E-01 -0.1947266E-04  0.0000000E+00  0.4073869E-03
  0.1285714E+01  0.0000000E+00  0.6122449E-01 -0.1813965E-04  0.0000000E+00  0.3832440E-03
  0.1326531E+01  0.0000000E+00  0.6122449E-01 -0.1681792E-04  0.0000000E+00  0.3608104E-03
  0.1367347E+01  0.0000000E+00  0.6122449E-01 -0.1552103E-04  0.0000000E+00  0.3400617E-03
  0.1408163E+01  0.0000000E+00  0.6122449E-01 -0.1425866E-04  0.0000000E+00  0.3209585E-03
  0.1448980E+01  0.0000000E+00  0.6122449E-01 -0.1303705E-04  0.0000000E+00  0.3034513E-03
  0.1489796E+01  0.0000000E+00  0.6122449E-01 -0.1185957E-04  0.0000000E+00  0.2874850E-03
  0.1530612E+01  0.0000000E+00  0.6122449E-01 -0.1072718E-04  0.0000000E+00  0.2730015E-03
  0.1571429E+01  0.0000000E+00  0.6122449E-01 -0.9638994E-05  0.0000000E+00  0.2599428E-03
  0.1612245E+01  0.0000000E+00  0.6122449E-01 -0.8592739E-05  0.0000000E+00  0.2482535E-03
  0.1653061E+01  0.0000000E+00  0.6122449E-01 -0.7585168E-05  0.0000000E+00  0.2378813E-03
  0.1693878E+01  0.0000000E+00  0.6122449E-01 -0.6612421E-05  0.0000000E+00  0.2287790E-03
  0.1734694E+01  0.0000000E+00  0.6122449E-01 -0.5670307E-05  0.0000000E+00  0.2209044E-03
  0.1775510E+01  0.0000000E+00  0.6122449E-01 -0.4754505E-05  0.0000000E+00  0.2142210E-03
  0.1816326E+01  0.0000000E+00  0.6122449E-01 -0.3860702E-05  0.0000000E+00  0.2086977E-03
  0.1857143E+01  0.0000000E+00  0.6122449E-01 -0.2984666E-05  0.0000000E+00  0.2043091E-03
  0.1897959E+01  0.0000000E+00  0.6122449E-01 -0.2122285E-05  0.0000000E+00  0.2010350E-03
  0.1938776E+01  0.0000000E+00  0.6122449E-01 -0.1269562E-05  0.0000000E+00  0.1988605E-03
  0.1989796E+01  0.0000000E+00  0.6122449E-01 -0.4226025E-06  0.0000000E+00  0.1977756E-03
  0.2040816E-01  0.0000000E+00  0.1020408E+00  0.3973100E-06  0.0000000E+00  0.9984637E-03
  0.6122449E-01  0.0000000E+00  0.1020408E+00  0.1111005E-05  0.0000000E+00  0.9991148E-03
  0.1020408E+00  0.0000000E+00  0.1020408E+00  0.1584059E-05  0.0000000E+00  0.1000294E-02
  0.1428571E+00  0.0000000E+00  0.1020408E+00  0.1669935E-05  0.0000000E+00  0.1001763E-02
  0.1836735E+00  0.0000000E+00  0.1020408E+00  0.1243481E-05  0.0000000E+00  0.1003177E-02
  0.2244898E+00  0.0000000E+00  0.1020408E+00  0.2084673E-06  0.0000000E+00  0.1004107E-02
  0.2653061E+00  0.0000000E+00  0.1020408E+00 -0.1495305E-05  0.0000000E+00  0.1004064E-02
  0.3061225E+00  0.0000000E+00  0.1020408E+00 -0.3886497E-05  0.0000000E+00  0.1002526E-02
  0.3469388E+00  0.0000000E+00  0.1020408E+00 -0.6939099E-05  0.0000000E+00  0.9989738E-03
  0.3877551E+00  0.0000000E+00  0.1020408E+00 -0.1058236E-04  0.0000000E+00  0.9929252E-03
  0.4285714E+00  0.0000000E+00  0.1020408E+00 -0.1470438E-04  0.0000000E+00  0.9839669E-03
  0.4693878E+00  0.0000000E+00  0.1020408E+00 -0.1915946E-04  0.0000000E+00  0.9717857E-03
  0.5102041E+00  0.0000000E+00  0.1020408E+00 -0.2377878E-04  0.0000000E+00  0.9561900E-03
  0.5510204E+00  0.0000000E+00  0.1020408E+00 -0.2838320E-04  0.0000000E+00  0.9371234E-03
  0.5918368E+00  0.0000000E+00  0.1020408E+00 -0.3279690E-04  0.0000000E+00  0.9146666E-03
  0.6326531E+00  0.0000000E+00  0.1020408E+00 -0.3686011E-04  0.0000000E+00  0.8890299E-03
  0.6734694E+00  0.0000000E+00  0.1020408E+00 -0.4043936E-04  0.0000000E+00  0.8605358E-03
  0.7142857E+00  0.0000000E+00  0.1020408E+00 -0.4343446E-04  0.0000000E+00  0.8295950E-03
  0.7551020E+00  0.0000000E+00  0.1020408E+00 -0.4578161E-04  0.0000000E+00  0.7966790E-03
  0.7959183E+00  0.0000000E+00  0.1020408E+00 -0.4745298E-04  0.0000000E+00  0.7622915E-03
  0.8367347E+00  0.0000000E+00  0.1020408E+00 -0.4845339E-04  0.0000000E+00  0.7269419E-03
  0.8775510E+00  0.0000000E+00  0.1020408E+00 -0.4881488E-04  0.0000000E+00  0.6911229E-03
  0.9183673E+00  0.0000000E+00  0.1020408E+00 -0.4859038E-04  0.0000000E+00  0.6552917E-03
  0.9591837E+00  0.0000000E+00  0.1020408E+00 -0.4784700E-04  0.0000000E+00  0.6198581E-03
  0.1000000E+01  0.0000000E+00  0.1020408E+00 -0.4665993E-04  0.0000000E+00  0.5851764E-03
  0.1040816E+01  0.0000000E+00  0.1020408E+00 -0.4510708E-04  0.0000000E+00  0.5515420E-03
  0.1081633E+01  0.0000000E+00  0.1020408E+00 -0.4326487E-04  0.0000000E+00  0.5191917E-03
  0.1122449E+01  0.0000000E+00  0.1020408E+00 -0.4120501E-04  0.0000000E+00  0.4883066E-03
  0.1163265E+01  0.0000000E+00  0.1020408E+00 -0.3899245E-04  0.0000000E+00  0.4590169E-03
  0.1204082E+01  0.0000000E+00  0.1020408E+00 -0.3668407E-04  0.0000000E+00  0.4314079E-03
  0.1244898E+01  0.0000000E+00  0.1020408E+00 -0.3432811E-04  0.0000000E+00  0.4055262E-03
  0.1285714E+01  0.0000000E+00  0.1020408E+00 -0.3196419E-04  0.0000000E+00  0.3813868E-03
  0.1326531E+01  0.0000000E+00  0.1020408E+00 -0.2962360E-04  0.0000000E+00  0.3589786E-03
  0.1367347E+01  0.0000000E+00  0.1020408E+00 -0.2732993E-04  0.0000000E+00  0.3382716E-03
  0.1408163E+01  0.0000000E+00  0.1020408E+00 -0.2509983E-04  0.0000000E+00  0.3192212E-03
  0.1448980E+01  0.0000000E+00  0.1020408E+00 -0.2294391E-04  0.0000000E+00  0.3017736E-03
  0.1489796E+01  0.0000000E+00  0.1020408E+00 -0.2086767E-04  0.0000000E+00  0.2858698E-03
  0.1530612E+01  0.0000000E+00  0.1020408E+00 -0.1887240E-04  0.0000000E+00  0.2714488E-03
  0.1571429E+01  0.0000000E+00  0.1020408E+00 -0.1695617E-04  0.0000000E+00  0.2584505E-03
  0.1612245E+01  0.0000000E+00  0.1020408E+00 -0.1511462E-04  0.0000000E+00  0.2468175E-03
  0.1653061E+01  0.0000000E+00  0.1020408E+00 -0.1334174E-04  0.0000000E+00  0.2364967E-03
  0.1693878E+01  0.0000000E+00  0.1020408E+00 -0.1163052E-04  0.0000000E+00  0.2274402E-03
  0.1734694E+01  0.0000000E+00  0.1020408E+00 -0.9973404E-05  0.0000000E+00  0.2196054E-03
  0.1775510E+01  0.0000000E+00  0.1020408E+00 -0.8362660E-05  0.0000000E+00  0.2129557E-03
  0.1816326E+01  0.0000000E+00  0.1020408E+00 -0.6790626E-05  0.0000000E+00  0.2074602E-03
  0.1857143E+01  0.0000000E+00  0.1020408E+00 -0.5249819E-05  0.0000000E+00  0.2030935E-03
  0.1897959E+01  0.0000000E+00  0.1020408E+00 -0.3732987E-05  0.0000000E+00  0.1998356E-03
  0.1938776E+01  0.0000000E+00  0.1020408E+00 -0.2233103E-05  0.0000000E+00  0.1976718E-03
  0.1989796E+01  0.0000000E+00  0.1020408E+00 -0.7433172E-06  0.0000000E+00  0.1965924E-03
  0.2040816E-01  0.0000000E+00  0.1428571E+00  0.6345944E-06  0.0000000E+00  0.9975456E-03
  0.6122449E-01  0.0000000E+00  0.1428571E+00  0.1786747E-05  0.0000000E+00  0.9983934E-03
  0.1020408E+00  0.0000000E+00  0.1428571E+00  0.2591475E-05  0.0000000E+00  0.9999560E-03
  0.1428571E+00  0.0000000E+00  0.1428571E+00  0.2836657E-05  0.0000000E+00  0.1001973E-02
  0.1836735E+00  0.0000000E+00  0.1428571E+00  0.2340323E-05  0.0000000E+00  0.1004072E-02
  0.2244898E+00  0.0000000E+00  0.1428571E+00  0.9616344E-06  0.0000000E+00  0.1005782E-02
  0.2653061E+00  0.0000000E+00  0.1428571E+00 -0.1388594E-05  0.0000000E+00  0.1006568E-02
  0.3061225E+00  0.0000000E+00  0.1428571E+00 -0.4739436E-05  0.0000000E+00  0.1005855E-02
  0.3469388E+00  0.0000000E+00  0.1428571E+00 -0.9054741E-05  0.0000000E+00  0.1003069E-02
  0.3877551E+00  0.0000000E+00  0.1428571E+00 -0.1423251E-04  0.0000000E+00  0.9976743E-03
  0.4285714E+00  0.0000000E+00  0.1428571E+00 -0.2010979E-04  0.0000000E+00  0.9892125E-03
  0.4693878E+00  0.0000000E+00  0.1428571E+00 -0.2647336E-04  0.0000000E+00  0.9773350E-03
  0.5102041E+00  0.0000000E+00  0.1428571E+00 -0.3307561E-04  0.0000000E+00  0.9618297E-03
  0.5510204E+00  0.0000000E+00  0.1428571E+00 -0.3965388E-04  0.0000000E+00  0.9426359E-03
  0.5918368E+00  0.0000000E+00  0.1428571E+00 -0.4595102E-04  0.0000000E+00  0.9198465E-03
  0.6326531E+00  0.0000000E+00  0.1428571E+00 -0.5173453E-04  0.0000000E+00  0.8936980E-03
  0.6734694E+00  0.0000000E+00  0.1428571E+00 -0.5681188E-04  0.0000000E+00  0.8645499E-03
  0.7142857E+00  0.0000000E+00  0.1428571E+00 -0.6104055E-04  0.0000000E+00  0.8328557E-03
  0.7551020E+00  0.0000000E+00  0.1428571E+00 -0.6433223E-04  0.0000000E+00  0.7991315E-03
  0.7959183E+00  0.0000000E+00  0.1428571E+00 -0.6665155E-04  0.0000000E+00  0.7639230E-03
  0.8367347E+00  0.0000000E+00  0.1428571E+00 -0.6801051E-04  0.0000000E+00  0.7277762E-03
  0.8775510E+00  0.0000000E+00  0.1428571E+00 -0.6846011E-04  0.0000000E+00  0.6912128E-03
  0.9183673E+00  0.0000000E+00  0.1428571E+00 -0.6808053E-04  0.0000000E+00  0.6547114E-03
  0.9591837E+00  0.0000000E+00  0.1428571E+00 -0.6697132E-04  0.0000000E+00  0.6186949E-03
  0.1000000E+01  0.0000000E+00  0.1428571E+00 -0.6524238E-04  0.0000000E+00  0.5835239E-03
  0.1040816E+01  0.0000000E+00  0.1428571E+00 -0.6300632E-04  0.0000000E+00  0.5494942E-03
  0.1081633E+01  0.0000000E+00  0.1428571E+00 -0.6037257E-04  0.0000000E+00  0.5168387E-03
  0.1122449E+01  0.0000000E+00  0.1428571E+00 -0.5744304E-04  0.0000000E+00  0.4857313E-03
  0.1163265E+01  0.0000000E+00  0.1428571E+00 -0.5430929E-04  0.0000000E+00  0.4562930E-03
  0.1204082E+01  0.0000000E+00  0.1428571E+00 -0.5105100E-04  0.0000000E+00  0.4285989E-03
  0.1244898E+01  0.0000000E+00  0.1428571E+00 -0.4773531E-04  0.0000000E+00  0.4026852E-03
  0.1285714E+01  0.0000000E+00  0.1428571E+00 -0.4441693E-04  0.0000000E+00  0.3785563E-03
  0.1326531E+01  0.0000000E+00  0.1428571E+00 -0.4113879E-04  0.0000000E+00  0.3561917E-03
  0.1367347E+01  0.0000000E+00  0.1428571E+00 -0.3793289E-04  0.0000000E+00  0.3355523E-03
  0.1408163E+01  0.0000000E+00  0.1428571E+00 -0.3482151E-04  0.0000000E+00  0.3165857E-03
  0.1448980E+01  0.0000000E+00  0.1428571E+00 -0.3181846E-04  0.0000000E+00  0.2992315E-03
  0.1489796E+01  0.0000000E+00  0.1428571E+00 -0.2893042E-04  0.0000000E+00  0.2834249E-03
  0.1530612E+01  0.0000000E+00  0.1428571E+00 -0.2615828E-04  0.0000000E+00  0.2691006E-03
  0.1571429E+01  0.0000000E+00  0.1428571E+00 -0.2349847E-04  0.0000000E+00  0.2561949E-03
  0.1612245E+01  0.0000000E+00  0.1428571E+00 -0.2094418E-04  0.0000000E+00  0.2446482E-03
  0.1653061E+01  0.0000000E+00  0.1428571E+00 -0.1848643E-04  0.0000000E+00  0.2344058E-03
  0.1693878E+01  0.0000000E+00  0.1428571E+00 -0.1611494E-04  0.0000000E+00  0.2254187E-03
  0.1734694E+01  0.0000000E+00  0.1428571E+00 -0.1381886E-04  0.0000000E+00  0.2176442E-03
  0.1775510E+01  0.0000000E+00  0.1428571E+00 -0.1158722E-04  0.0000000E+00  0.2110454E-03
  0.1816326E+01  0.0000000E+00  0.1428571E+00 -0.9409215E-05  0.0000000E+00  0.2055918E-03
  0.1857143E+01  0.0000000E+00  0.1428571E+00 -0.7274402E-05  0.0000000E+00  0.2012581E-03
  0.1897959E+01  0.0000000E+00  0.1428571E+00 -0.5172702E-05  0.0000000E+00  0.1980247E-03
  0.1938776E+01  0.0000000E+00  0.1428571E+00 -0.3094385E-05  0.0000000E+00  0.1958771E-03
  0.1989796E+01  0.0000000E+00  0.1428571E+00 -0.1029987E-05  0.0000000E+00  0.1948056E-03
  0.2040816E-01  0.0000000E+00  0.1836735E+00  0.9425532E-06  0.0000000E+00  0.9961379E-03
  0.6122449E-01  0.0000000E+00  0.1836735E+00  0.2673086E-05  0.0000000E+00  0.9972547E-03
  0.1020408E+00  0.0000000E+00  0.1836735E+00  0.3945041E-05  0.0000000E+00  0.9993414E-03
  0.1428571E+00  0.0000000E+00  0.1836735E+00  0.4477368E-05  0.0000000E+00  0.1002111E-02
  0.1836735E+00  0.0000000E+00  0.1836735E+00  0.4027422E-05  0.0000000E+00  0.1005149E-02
  0.2244898E+00  0.0000000E+00  0.1836735E+00  0.2405595E-05  0.0000000E+00  0.1007933E-02
  0.2653061E+00  0.0000000E+00  0.1836735E+00 -0.5102662E-06  0.0000000E+00  0.1009862E-02
  0.3061225E+00  0.0000000E+00  0.1836735E+00 -0.4762780E-05  0.0000000E+00  0.1010289E-02
  0.3469388E+00  0.0000000E+00  0.1836735E+00 -0.1030706E-04  0.0000000E+00  0.1008564E-02
  0.3877551E+00  0.0000000E+00  0.1836735E+00 -0.1700885E-04  0.0000000E+00  0.1004077E-02
  0.4285714E+00  0.0000000E+00  0.1836735E+00 -0.2465041E-04  0.0000000E+00  0.9963033E-03
  0.4693878E+00  0.0000000E+00  0.1836735E+00 -0.3294468E-04  0.0000000E+00  0.9848458E-03
  0.5102041E+00  0.0000000E+00  0.1836735E+00 -0.4155716E-04  0.0000000E+00  0.9694632E-03
  0.5510204E+00  0.0000000E+00  0.1836735E+00 -0.5013307E-04  0.0000000E+00  0.9500894E-03
  0.5918368E+00  0.0000000E+00  0.1836735E+00 -0.5832626E-04  0.0000000E+00  0.9268355E-03
  0.6326531E+00  0.0000000E+00  0.1836735E+00 -0.6582603E-04  0.0000000E+00  0.8999763E-03
  0.6734694E+00  0.0000000E+00  0.1836735E+00 -0.7237824E-04  0.0000000E+00  0.8699243E-03
  0.7142857E+00  0.0000000E+00  0.1836735E+00 -0.7779860E-04  0.0000000E+00  0.8371945E-03
  0.7551020E+00  0.0000000E+00  0.1836735E+00 -0.8197746E-04  0.0000000E+00  0.8023656E-03
  0.7959183E+00  0.0000000E+00  0.1836735E+00 -0.8487696E-04  0.0000000E+00  0.7660416E-03
  0.8367347E+00  0.0000000E+00  0.1836735E+00 -0.8652225E-04  0.0000000E+00  0.7288185E-03
  0.8775510E+00  0.0000000E+00  0.1836735E+00 -0.8698921E-04  0.0000000E+00  0.6912570E-03
  0.9183673E+00  0.0000000E+00  0.1836735E+00 -0.8639057E-04  0.0000000E+00  0.6538631E-03
  0.9591837E+00  0.0000000E+00  0.1836735E+00 -0.8486243E-04  0.0000000E+00  0.6170763E-03
  0.1000000E+01  0.0000000E+00  0.1836735E+00 -0.8255220E-04  0.0000000E+00  0.5812639E-03
  0.1040816E+01  0.0000000E+00  0.1836735E+00 -0.7960876E-04  0.0000000E+00  0.5467210E-03
  0.1081633E+01  0.0000000E+00  0.1836735E+00 -0.7617493E-04  0.0000000E+00  0.5136737E-03
  0.1122449E+01  0.0000000E+00  0.1836735E+00 -0.7238228E-04  0.0000000E+00  0.4822853E-03
  0.1163265E+01  0.0000000E+00  0.1836735E+00 -0.6834785E-04  0.0000000E+00  0.4526637E-03
  0.1204082E+01  0.0000000E+00  0.1836735E+00 -0.6417252E-04  0.0000000E+00  0.4248698E-03
  0.1244898E+01  0.0000000E+00  0.1836735E+00 -0.5994055E-04  0.0000000E+00  0.3989253E-03
  0.1285714E+01  0.0000000E+00  0.1836735E+00 -0.5571994E-04  0.0000000E+00  0.3748209E-03
  0.1326531E+01  0.0000000E+00  0.1836735E+00 -0.5156345E-04  0.0000000E+00  0.3525229E-03
  0.1367347E+01  0.0000000E+00  0.1836735E+00 -0.4750986E-04  0.0000000E+00  0.3319805E-03
  0.1408163E+01  0.0000000E+00  0.1836735E+00 -0.4358558E-04  0.0000000E+00  0.3131310E-03
  0.1448980E+01  0.0000000E+00  0.1836735E+00 -0.3980628E-04  0.0000000E+00  0.2959050E-03
  0.1489796E+01  0.0000000E+00  0.1836735E+00 -0.3617865E-04  0.0000000E+00  0.2802304E-03
  0.1530612E+01  0.0000000E+00  0.1836735E+00 -0.3270220E-04  0.0000000E+00  0.2660362E-03
  0.1571429E+01  0.0000000E+00  0.1836735E+00 -0.2937093E-04  0.0000000E+00  0.2532543E-03
  0.1612245E+01  0.0000000E+00  0.1836735E+00 -0.2617493E-04  0.0000000E+00  0.2418222E-03
  0.1653061E+01  0.0000000E+00  0.1836735E+00 -0.2310182E-04  0.0000000E+00  0.2316831E-03
  0.1693878E+01  0.0000000E+00  0.1836735E+00 -0.2013784E-04  0.0000000E+00  0.2227872E-03
  0.1734694E+01  0.0000000E+00  0.1836735E+00 -0.1726875E-04  0.0000000E+00  0.2150914E-03
  0.1775510E+01  0.0000000E+00  0.1836735E+00 -0.1448038E-04  0.0000000E+00  0.2085590E-03
  0.1816326E+01  0.0000000E+00  0.1836735E+00 -0.1175897E-04  0.0000000E+00  0.2031597E-03
  0.1857143E+01  0.0000000E+00  0.1836735E+00 -0.9091353E-05  0.0000000E+00  0.1988688E-03
  0.1897959E+01  0.0000000E+00  0.1836735E+00 -0.6464894E-05  0.0000000E+00  0.1956671E-03
  0.1938776E+01  0.0000000E+00  0.1836735E+00 -0.3867465E-05  0.0000000E+00  0.1935403E-03
  0.1989796E+01  0.0000000E+00  0.1836735E+00 -0.1287306E-05  0.0000000E+00  0.1924793E-03
  0.2040816E-01  0.0000000E+00  0.2244898E+00  0.1346236E-05  0.0000000E+00  0.9940816E-03
  0.6122449E-01  0.0000000E+00  0.2244898E+00  0.3843824E-05  0.0000000E+00  0.9955438E-03
  0.1020408E+00  0.0000000E+00  0.2244898E+00  0.5763181E-05  0.0000000E+00  0.9983050E-03
  0.1428571E+00  0.0000000E+00  0.2244898E+00  0.6748055E-05  0.0000000E+00  0.1002044E-02
  0.1836735E+00  0.0000000E+00  0.2244898E+00  0.6488221E-05  0.0000000E+00  0.1006297E-02
  0.2244898E+00  0.0000000E+00  0.2244898E+00  0.4738089E-05  0.0000000E+00  0.1010474E-02
  0.2653061E+00  0.0000000E+00  0.2244898E+00  0.1335779E-05  0.0000000E+00  0.1013890E-02
  0.3061225E+00  0.0000000E+00  0.2244898E+00 -0.3780036E-05  0.0000000E+00  0.1015805E-02
  0.3469388E+00  0.0000000E+00  0.2244898E+00 -0.1055798E-04  0.0000000E+00  0.1015468E-02
  0.3877551E+00  0.0000000E+00  0.2244898E+00 -0.1882970E-04  0.0000000E+00  0.1012170E-02
  0.4285714E+00  0.0000000E+00  0.2244898E+00 -0.2831603E-04  0.0000000E+00  0.1005300E-02
  0.4693878E+00  0.0000000E+00  0.2244898E+00 -0.3864503E-04  0.0000000E+00  0.9943911E-03
  0.5102041E+00  0.0000000E+00  0.2244898E+00 -0.4938116E-04  0.0000000E+00  0.9791649E-03
  0.5510204E+00  0.0000000E+00  0.2244898E+00 -0.6006237E-04  0.0000000E+00  0.9595485E-03
  0.5918368E+00  0.0000000E+00  0.2244898E+00 -0.7023979E-04  0.0000000E+00  0.9356792E-03
  0.6326531E+00  0.0000000E+00  0.2244898E+00 -0.7951435E-04  0.0000000E+00  0.9078853E-03
  0.6734694E+00  0.0000000E+00  0.2244898E+00 -0.8756497E-04  0.0000000E+00  0.8766529E-03
  0.7142857E+00  0.0000000E+00  0.2244898E+00 -0.9416526E-04  0.0000000E+00  0.8425800E-03
  0.7551020E+00  0.0000000E+00  0.2244898E+00 -0.9918830E-04  0.0000000E+00  0.8063292E-03
  0.7959183E+00  0.0000000E+00  0.2244898E+00 -0.1026008E-03  0.0000000E+00  0.7685812E-03
  0.8367347E+00  0.0000000E+00  0.2244898E+00 -0.1044496E-03  0.0000000E+00  0.7299957E-03
  0.8775510E+00  0.0000000E+00  0.2244898E+00 -0.1048444E-03  0.0000000E+00  0.6911821E-03
  0.9183673E+00  0.0000000E+00  0.2244898E+00 -0.1039383E-03  0.0000000E+00  0.6526794E-03
  0.9591837E+00  0.0000000E+00  0.2244898E+00 -0.1019104E-03  0.0000000E+00  0.6149452E-03
  0.1000000E+01  0.0000000E+00  0.2244898E+00 -0.9895015E-04  0.0000000E+00  0.5783529E-03
  0.1040816E+01  0.0000000E+00  0.2244898E+00 -0.9524565E-04  0.0000000E+00  0.5431938E-03
  0.1081633E+01  0.0000000E+00  0.2244898E+00 -0.9097442E-04  0.0000000E+00  0.5096835E-03
  0.1122449E+01  0.0000000E+00  0.2244898E+00 -0.8629778E-04  0.0000000E+00  0.4779702E-03
  0.1163265E+01  0.0000000E+00  0.2244898E+00 -0.8135744E-04  0.0000000E+00  0.4481444E-03
  0.1204082E+01  0.0000000E+00  0.2244898E+00 -0.7627412E-04  0.0000000E+00  0.4202481E-03
  0.1244898E+01  0.0000000E+00  0.2244898E+00 -0.7114745E-04  0.0000000E+00  0.3942848E-03
  0.1285714E+01  0.0000000E+00  0.2244898E+00 -0.6605692E-04  0.0000000E+00  0.3702274E-03
  0.1326531E+01  0.0000000E+00  0.2244898E+00 -0.6106327E-04  0.0000000E+00  0.3480262E-03
  0.1367347E+01  0.0000000E+00  0.2244898E+00 -0.5621032E-04  0.0000000E+00  0.3276156E-03
  0.1408163E+01  0.0000000E+00  0.2244898E+00 -0.5152695E-04  0.0000000E+00  0.3089202E-03
  0.1448980E+01  0.0000000E+00  0.2244898E+00 -0.4702919E-04  0.0000000E+00  0.2918598E-03
  0.1489796E+01  0.0000000E+00  0.2244898E+00 -0.4272240E-04  0.0000000E+00  0.2763535E-03
  0.1530612E+01  0.0000000E+00  0.2244898E+00 -0.3860344E-04  0.0000000E+00  0.2623231E-03
  0.1571429E+01  0.0000000E+00  0.2244898E+00 -0.3466284E-04  0.0000000E+00  0.2496958E-03
  0.1612245E+01  0.0000000E+00  0.2244898E+00 -0.3088679E-04  0.0000000E+00  0.2384053E-03
  0.1653061E+01  0.0000000E+00  0.2244898E+00 -0.2725887E-04  0.0000000E+00  0.2283931E-03
  0.1693878E+01  0.0000000E+00  0.2244898E+00 -0.2376147E-04  0.0000000E+00  0.2196084E-03
  0.1734694E+01  0.0000000E+00  0.2244898E+00 -0.2037676E-04  0.0000000E+00  0.2120081E-03
  0.1775510E+01  0.0000000E+00  0.2244898E+00 -0.1708741E-04  0.0000000E+00  0.2055558E-03
  0.1816326E+01  0.0000000E+00  0.2244898E+00 -0.1387683E-04  0.0000000E+00  0.2002219E-03
  0.1857143E+01  0.0000000E+00  0.2244898E+00 -0.1072932E-04  0.0000000E+00  0.1959823E-03
  0.1897959E+01  0.0000000E+00  0.2244898E+00 -0.7629979E-05  0.0000000E+00  0.1928185E-03
  0.1938776E+01  0.0000000E+00  0.2244898E+00 -0.4564578E-05  0.0000000E+00  0.1907168E-03
  0.1989796E+01  0.0000000E+00  0.2244898E+00 -0.1519351E-05  0.0000000E+00  0.1896681E-03
  0.2040816E-01  0.0000000E+00  0.2653061E+00  0.1871281E-05  0.0000000E+00  0.9911680E-03
  0.6122449E-01  0.0000000E+00  0.2653061E+00  0.5374830E-05  0.0000000E+00  0.9930592E-03
  0.1020408E+00  0.0000000E+00  0.2653061E+00  0.8168725E-05  0.0000000E+00  0.9966592E-03
  0.1428571E+00  0.0000000E+00  0.2653061E+00  0.9812666E-05  0.0000000E+00  0.1001608E-02
  0.1836735E+00  0.0000000E+00  0.2653061E+00  0.9918911E-05  0.0000000E+00  0.1007382E-02
  0.2244898E+00  0.0000000E+00  0.2653061E+00  0.8175253E-05  0.0000000E+00  0.1013309E-02
  0.2653061E+00  0.0000000E+00  0.2653061E+00  0.4369834E-05  0.0000000E+00  0.1018604E-02
  0.3061225E+00  0.0000000E+00  0.2653061E+00 -0.1585533E-05  0.0000000E+00  0.1022407E-02
  0.3469388E+00  0.0000000E+00  0.2653061E+00 -0.9636998E-05  0.0000000E+00  0.1023837E-02
  0.3877551E+00  0.0000000E+00  0.2653061E+00 -0.1957996E-04  0.0000000E+00  0.1022057E-02
  0.4285714E+00  0.0000000E+00  0.2653061E+00 -0.3106442E-04  0.0000000E+00  0.1016339E-02
  0.4693878E+00  0.0000000E+00  0.2653061E+00 -0.4361713E-04  0.0000000E+00  0.1006128E-02
  0.5102041E+00  0.0000000E+00  0.2653061E+00 -0.5668002E-04  0.0000000E+00  0.9910940E-03
  0.5510204E+00  0.0000000E+00  0.2653061E+00 -0.6966058E-04  0.0000000E+00  0.9711567E-03
  0.5918368E+00  0.0000000E+00  0.2653061E+00 -0.8198626E-04  0.0000000E+00  0.9464905E-03
  0.6326531E+00  0.0000000E+00  0.2653061E+00 -0.9315414E-04  0.0000000E+00  0.9174980E-03
  0.6734694E+00  0.0000000E+00  0.2653061E+00 -0.1027681E-03  0.0000000E+00  0.8847645E-03
  0.7142857E+00  0.0000000E+00  0.2653061E+00 -0.1105592E-03  0.0000000E+00  0.8489992E-03
  0.7551020E+00  0.0000000E+00  0.2653061E+00 -0.1163893E-03  0.0000000E+00  0.8109740E-03
  0.7959183E+00  0.0000000E+00  0.2653061E+00 -0.1202397E-03  0.0000000E+00  0.7714671E-03
  0.8367347E+00  0.0000000E+00  0.2653061E+00 -0.1221914E-03  0.0000000E+00  0.7312173E-03
  0.8775510E+00  0.0000000E+00  0.2653061E+00 -0.1223999E-03  0.0000000E+00  0.6908916E-03
  0.9183673E+00  0.0000000E+00  0.2653061E+00 -0.1210698E-03  0.0000000E+00  0.6510659E-03
  0.9591837E+00  0.0000000E+00  0.2653061E+00 -0.1184318E-03  0.0000000E+00  0.6122160E-03
  0.1000000E+01  0.0000000E+00  0.2653061E+00 -0.1147239E-03  0.0000000E+00  0.5747184E-03
  0.1040816E+01  0.0000000E+00  0.2653061E+00 -0.1101770E-03  0.0000000E+00  0.5388561E-03
  0.1081633E+01  0.0000000E+00  0.2653061E+00 -0.1050053E-03  0.0000000E+00  0.5048286E-03
  0.1122449E+01  0.0000000E+00  0.2653061E+00 -0.9940024E-04  0.0000000E+00  0.4727634E-03
  0.1163265E+01  0.0000000E+00  0.2653061E+00 -0.9352744E-04  0.0000000E+00  0.4427280E-03
  0.1204082E+01  0.0000000E+00  0.2653061E+00 -0.8752597E-04  0.0000000E+00  0.4147412E-03
  0.1244898E+01  0.0000000E+00  0.2653061E+00 -0.8150904E-04  0.0000000E+00  0.3887833E-03
  0.1285714E+01  0.0000000E+00  0.2653061E+00 -0.7556558E-04  0.0000000E+00  0.3648061E-03
  0.1326531E+01  0.0000000E+00  0.2653061E+00 -0.6976239E-04  0.0000000E+00  0.3427405E-03