title = "dataset feddes"
variables = "x", "y", "z", "vx", "vy", "vz"
zone t = "velocities, solution time =  4.500E+01 days        " i =   49, j =   49, k =    1,  f=point
  0.2040816E-01  0.0000000E+00  0.2040816E-01  0.5420782E-07  0.0000000E+00  0.9374993E-03
  0.6122449E-01  0.0000000E+00  0.2040816E-01  0.1504113E-06  0.0000000E+00  0.9379385E-03
  0.1020408E+00  0.0000000E+00  0.2040816E-01  0.2100963E-06  0.0000000E+00  0.9387123E-03
  0.1428571E+00  0.0000000E+00  0.2040816E-01  0.2110936E-06  0.0000000E+00  0.9396163E-03
  0.1836735E+00  0.0000000E+00  0.2040816E-01  0.1345324E-06  0.0000000E+00  0.9403582E-03
  0.2244898E+00  0.0000000E+00  0.2040816E-01 -0.3401537E-07  0.0000000E+00  0.9405740E-03
  0.2653061E+00  0.0000000E+00  0.2040816E-01 -0.3034788E-06  0.0000000E+00  0.9398495E-03
  0.3061225E+00  0.0000000E+00  0.2040816E-01 -0.6765076E-06  0.0000000E+00  0.9377461E-03
  0.3469388E+00  0.0000000E+00  0.2040816E-01 -0.1149042E-05  0.0000000E+00  0.9338277E-03
  0.3877551E+00  0.0000000E+00  0.2040816E-01 -0.1710351E-05  0.0000000E+00  0.9276902E-03
  0.4285714E+00  0.0000000E+00  0.2040816E-01 -0.2343607E-05  0.0000000E+00  0.9189888E-03
  0.4693878E+00  0.0000000E+00  0.2040816E-01 -0.3026987E-05  0.0000000E+00  0.9074615E-03
  0.5102041E+00  0.0000000E+00  0.2040816E-01 -0.3735241E-05  0.0000000E+00  0.8929473E-03
  0.5510204E+00  0.0000000E+00  0.2040816E-01 -0.4441576E-05  0.0000000E+00  0.8753971E-03
  0.5918368E+00  0.0000000E+00  0.2040816E-01 -0.5119626E-05  0.0000000E+00  0.8548759E-03
  0.6326531E+00  0.0000000E+00  0.2040816E-01 -0.5745315E-05  0.0000000E+00  0.8315568E-03
  0.6734694E+00  0.0000000E+00  0.2040816E-01 -0.6298373E-05  0.0000000E+00  0.8057083E-03
  0.7142857E+00  0.0000000E+00  0.2040816E-01 -0.6763387E-05  0.0000000E+00  0.7776753E-03
  0.7551020E+00  0.0000000E+00  0.2040816E-01 -0.7130304E-05  0.0000000E+00  0.7478575E-03
  0.7959183E+00  0.0000000E+00  0.2040816E-01 -0.7394430E-05  0.0000000E+00  0.7166860E-03
  0.8367347E+00  0.0000000E+00  0.2040816E-01 -0.7555980E-05  0.0000000E+00  0.6846017E-03
  0.8775510E+00  0.0000000E+00  0.2040816E-01 -0.7619334E-05  0.0000000E+00  0.6520354E-03
  0.9183673E+00  0.0000000E+00  0.2040816E-01 -0.7592109E-05  0.0000000E+00  0.6193924E-03
  0.9591837E+00  0.0000000E+00  0.2040816E-01 -0.7484186E-05  0.0000000E+00  0.5870401E-03
  0.1000000E+01  0.0000000E+00  0.2040816E-01 -0.7306782E-05  0.0000000E+00  0.5553008E-03
  0.1040816E+01  0.0000000E+00  0.2040816E-01 -0.7071644E-05  0.0000000E+00  0.5244475E-03
  0.1081633E+01  0.0000000E+00  0.2040816E-01 -0.6790382E-05  0.0000000E+00  0.4947028E-03
  0.1122449E+01  0.0000000E+00  0.2040816E-01 -0.6473979E-05  0.0000000E+00  0.4662411E-03
  0.1163265E+01  0.0000000E+00  0.2040816E-01 -0.6132438E-05  0.0000000E+00  0.4391918E-03
  0.1204082E+01  0.0000000E+00  0.2040816E-01 -0.5774579E-05  0.0000000E+00  0.4136435E-03
  0.1244898E+01  0.0000000E+00  0.2040816E-01 -0.5407938E-05  0.0000000E+00  0.3896502E-03
  0.1285714E+01  0.0000000E+00  0.2040816E-01 -0.5038749E-05  0.0000000E+00  0.3672361E-03
  0.1326531E+01  0.0000000E+00  0.2040816E-01 -0.4671996E-05  0.0000000E+00  0.3464013E-03
  0.1367347E+01  0.0000000E+00  0.2040816E-01 -0.4311498E-05  0.0000000E+00  0.3271270E-03
  0.1408163E+01  0.0000000E+00  0.2040816E-01 -0.3960029E-05  0.0000000E+00  0.3093806E-03
  0.1448980E+01  0.0000000E+00  0.2040816E-01 -0.3619444E-05  0.0000000E+00  0.2931191E-03
  0.1489796E+01  0.0000000E+00  0.2040816E-01 -0.3290821E-05  0.0000000E+00  0.2782935E-03
  0.1530612E+01  0.0000000E+00  0.2040816E-01 -0.2974593E-05  0.0000000E+00  0.2648515E-03
  0.1571429E+01  0.0000000E+00  0.2040816E-01 -0.2670680E-05  0.0000000E+00  0.2527401E-03
  0.1612245E+01  0.0000000E+00  0.2040816E-01 -0.2378607E-05  0.0000000E+00  0.2419075E-03
  0.1653061E+01  0.0000000E+00  0.2040816E-01 -0.2097613E-05  0.0000000E+00  0.2323043E-03
  0.1693878E+01  0.0000000E+00  0.2040816E-01 -0.1826733E-05  0.0000000E+00  0.2238852E-03
  0.1734694E+01  0.0000000E+00  0.2040816E-01 -0.1564874E-05  0.0000000E+00  0.2166090E-03
  0.1775510E+01  0.0000000E+00  0.2040816E-01 -0.1310869E-05  0.0000000E+00  0.2104395E-03
  0.1816326E+01  0.0000000E+00  0.2040816E-01 -0.1063509E-05  0.0000000E+00  0.2053457E-03
  0.1857143E+01  0.0000000E+00  0.2040816E-01 -0.8215760E-06  0.0000000E+00  0.2013016E-03
  0.1897959E+01  0.0000000E+00  0.2040816E-01 -0.5838508E-06  0.0000000E+00  0.1982865E-03
  0.1938776E+01  0.0000000E+00  0.2040816E-01 -0.3491233E-06  0.0000000E+00  0.1962850E-03
  0.1989796E+01  0.0000000E+00  0.2040816E-01 -0.1161943E-06  0.0000000E+00  0.1952867E-03
  0.2040816E-01  0.0000000E+00  0.6122449E-01  0.1904629E-06  0.0000000E+00  0.9372985E-03
  0.6122449E-01  0.0000000E+00  0.6122449E-01  0.5299607E-06  0.0000000E+00  0.9377867E-03
  0.1020408E+00  0.0000000E+00  0.6122449E-01  0.7459405E-06  0.0000000E+00  0.9386557E-03
  0.1428571E+00  0.0000000E+00  0.6122449E-01  0.7633259E-06  0.0000000E+00  0.9396960E-03
  0.1836735E+00  0.0000000E+00  0.6122449E-01  0.5181479E-06  0.0000000E+00  0.9406075E-03
  0.2244898E+00  0.0000000E+00  0.6122449E-01 -0.3859468E-07  0.0000000E+00  0.9410161E-03
  0.2653061E+00  0.0000000E+00  0.6122449E-01 -0.9373383E-06  0.0000000E+00  0.9404962E-03
  0.3061225E+00  0.0000000E+00  0.6122449E-01 -0.2187254E-05  0.0000000E+00  0.9385958E-03
  0.3469388E+00  0.0000000E+00  0.6122449E-01 -0.3774743E-05  0.0000000E+00  0.9348657E-03
  0.3877551E+00  0.0000000E+00  0.6122449E-01 -0.5663516E-05  0.0000000E+00  0.9288889E-03
  0.4285714E+00  0.0000000E+00  0.6122449E-01 -0.7796498E-05  0.0000000E+00  0.9203096E-03
  0.4693878E+00  0.0000000E+00  0.6122449E-01 -0.1009958E-04  0.0000000E+00  0.9088572E-03
  0.5102041E+00  0.0000000E+00  0.6122449E-01 -0.1248696E-04  0.0000000E+00  0.8943659E-03
  0.5510204E+00  0.0000000E+00  0.6122449E-01 -0.1486761E-04  0.0000000E+00  0.8767854E-03
  0.5918368E+00  0.0000000E+00  0.6122449E-01 -0.1715201E-04  0.0000000E+00  0.8561834E-03
  0.6326531E+00  0.0000000E+00  0.6122449E-01 -0.1925856E-04  0.0000000E+00  0.8327392E-03
  0.6734694E+00  0.0000000E+00  0.6122449E-01 -0.2111871E-04  0.0000000E+00  0.8067299E-03
  0.7142857E+00  0.0000000E+00  0.6122449E-01 -0.2268056E-04  0.0000000E+00  0.7785106E-03
  0.7551020E+00  0.0000000E+00  0.6122449E-01 -0.2391053E-04  0.0000000E+00  0.7484917E-03
  0.7959183E+00  0.0000000E+00  0.6122449E-01 -0.2479324E-04  0.0000000E+00  0.7171146E-03
  0.8367347E+00  0.0000000E+00  0.6122449E-01 -0.2532998E-04  0.0000000E+00  0.6848293E-03
  0.8775510E+00  0.0000000E+00  0.6122449E-01 -0.2553606E-04  0.0000000E+00  0.6520741E-03
  0.9183673E+00  0.0000000E+00  0.6122449E-01 -0.2543768E-04  0.0000000E+00  0.6192596E-03
  0.9591837E+00  0.0000000E+00  0.6122449E-01 -0.2506856E-04  0.0000000E+00  0.5867569E-03
  0.1000000E+01  0.0000000E+00  0.6122449E-01 -0.2446680E-04  0.0000000E+00  0.5548902E-03
  0.1040816E+01  0.0000000E+00  0.6122449E-01 -0.2367215E-04  0.0000000E+00  0.5239328E-03
  0.1081633E+01  0.0000000E+00  0.6122449E-01 -0.2272380E-04  0.0000000E+00  0.4941067E-03
  0.1122449E+01  0.0000000E+00  0.6122449E-01 -0.2165871E-04  0.0000000E+00  0.4655845E-03
  0.1163265E+01  0.0000000E+00  0.6122449E-01 -0.2051048E-04  0.0000000E+00  0.4384935E-03
  0.1204082E+01  0.0000000E+00  0.6122449E-01 -0.1930867E-04  0.0000000E+00  0.4129200E-03
  0.1244898E+01  0.0000000E+00  0.6122449E-01 -0.1807847E-04  0.0000000E+00  0.3889153E-03
  0.1285714E+01  0.0000000E+00  0.6122449E-01 -0.1684069E-04  0.0000000E+00  0.3665009E-03
  0.1326531E+01  0.0000000E+00  0.6122449E-01 -0.1561192E-04  0.0000000E+00  0.3456746E-03
  0.1367347E+01  0.0000000E+00  0.6122449E-01 -0.1440484E-04  0.0000000E+00  0.3264155E-03
  0.1408163E+01  0.0000000E+00  0.6122449E-01 -0.1322863E-04  0.0000000E+00  0.3086889E-03
  0.1448980E+01  0.0000000E+00  0.6122449E-01 -0.1208938E-04  0.0000000E+00  0.2924501E-03
  0.1489796E+01  0.0000000E+00  0.6122449E-01 -0.1099060E-04  0.0000000E+00  0.2776488E-03
  0.1530612E+01  0.0000000E+00  0.6122449E-01 -0.9933632E-05  0.0000000E+00  0.2642315E-03
  0.1571429E+01  0.0000000E+00  0.6122449E-01 -0.8918124E-05  0.0000000E+00  0.2521442E-03
  0.1612245E+01  0.0000000E+00  0.6122449E-01 -0.7942413E-05  0.0000000E+00  0.2413344E-03
  0.1653061E+01  0.0000000E+00  0.6122449E-01 -0.7003881E-05  0.0000000E+00  0.2317524E-03
  0.1693878E+01  0.0000000E+00  0.6122449E-01 -0.6099256E-05  0.0000000E+00  0.2233523E-03
  0.1734694E+01  0.0000000E+00  0.6122449E-01 -0.5224845E-05  0.0000000E+00  0.2160930E-03
  0.1775510E+01  0.0000000E+00  0.6122449E-01 -0.4376711E-05  0.0000000E+00  0.2099380E-03
  0.1816326E+01  0.0000000E+00  0.6122449E-01 -0.3550803E-05  0.0000000E+00  0.2048562E-03
  0.1857143E+01  0.0000000E+00  0.6122449E-01 -0.2743032E-05  0.0000000E+00  0.2008217E-03
  0.1897959E+01  0.0000000E+00  0.6122449E-01 -0.1949322E-05  0.0000000E+00  0.1978138E-03
  0.1938776E+01  0.0000000E+00  0.6122449E-01 -0.1165625E-05  0.0000000E+00  0.1958171E-03
  0.1989796E+01  0.0000000E+00  0.6122449E-01 -0.3879278E-06  0.0000000E+00  0.1948212E-03
  0.2040816E-01  0.0000000E+00  0.1020408E+00  0.3691904E-06  0.0000000E+00  0.9367978E-03
  0.6122449E-01  0.0000000E+00  0.1020408E+00  0.1032567E-05  0.0000000E+00  0.9374026E-03
  0.1020408E+00  0.0000000E+00  0.1020408E+00  0.1472957E-05  0.0000000E+00  0.9384986E-03
  0.1428571E+00  0.0000000E+00  0.1020408E+00  0.1554573E-05  0.0000000E+00  0.9398638E-03
  0.1836735E+00  0.0000000E+00  0.1020408E+00  0.1161430E-05  0.0000000E+00  0.9411798E-03
  0.2244898E+00  0.0000000E+00  0.1020408E+00  0.2043307E-06  0.0000000E+00  0.9420492E-03
  0.2653061E+00  0.0000000E+00  0.1020408E+00 -0.1372545E-05  0.0000000E+00  0.9420180E-03
  0.3061225E+00  0.0000000E+00  0.1020408E+00 -0.3586545E-05  0.0000000E+00  0.9406032E-03
  0.3469388E+00  0.0000000E+00  0.1020408E+00 -0.6413640E-05  0.0000000E+00  0.9373236E-03
  0.3877551E+00  0.0000000E+00  0.1020408E+00 -0.9788355E-05  0.0000000E+00  0.9317315E-03
  0.4285714E+00  0.0000000E+00  0.1020408E+00 -0.1360710E-04  0.0000000E+00  0.9234442E-03
  0.4693878E+00  0.0000000E+00  0.1020408E+00 -0.1773498E-04  0.0000000E+00  0.9121710E-03
  0.5102041E+00  0.0000000E+00  0.1020408E+00 -0.2201564E-04  0.0000000E+00  0.8977340E-03
  0.5510204E+00  0.0000000E+00  0.1020408E+00 -0.2628320E-04  0.0000000E+00  0.8800804E-03
  0.5918368E+00  0.0000000E+00  0.1020408E+00 -0.3037484E-04  0.0000000E+00  0.8592845E-03
  0.6326531E+00  0.0000000E+00  0.1020408E+00 -0.3414255E-04  0.0000000E+00  0.8355405E-03
  0.6734694E+00  0.0000000E+00  0.1020408E+00 -0.3746271E-04  0.0000000E+00  0.8091466E-03
  0.7142857E+00  0.0000000E+00  0.1020408E+00 -0.4024247E-04  0.0000000E+00  0.7804826E-03
  0.7551020E+00  0.0000000E+00  0.1020408E+00 -0.4242270E-04  0.0000000E+00  0.7499848E-03
  0.7959183E+00  0.0000000E+00  0.1020408E+00 -0.4397756E-04  0.0000000E+00  0.7181192E-03
  0.8367347E+00  0.0000000E+00  0.1020408E+00 -0.4491138E-04  0.0000000E+00  0.6853573E-03
  0.8775510E+00  0.0000000E+00  0.1020408E+00 -0.4525371E-04  0.0000000E+00  0.6521550E-03
  0.9183673E+00  0.0000000E+00  0.1020408E+00 -0.4505337E-04  0.0000000E+00  0.6189357E-03
  0.9591837E+00  0.0000000E+00  0.1020408E+00 -0.4437230E-04  0.0000000E+00  0.5860791E-03
  0.1000000E+01  0.0000000E+00  0.1020408E+00 -0.4327985E-04  0.0000000E+00  0.5539133E-03
  0.1040816E+01  0.0000000E+00  0.1020408E+00 -0.4184786E-04  0.0000000E+00  0.5227124E-03
  0.1081633E+01  0.0000000E+00  0.1020408E+00 -0.4014672E-04  0.0000000E+00  0.4926964E-03
  0.1122449E+01  0.0000000E+00  0.1020408E+00 -0.3824250E-04  0.0000000E+00  0.4640340E-03
  0.1163265E+01  0.0000000E+00  0.1020408E+00 -0.3619497E-04  0.0000000E+00  0.4368471E-03
  0.1204082E+01  0.0000000E+00  0.1020408E+00 -0.3405646E-04  0.0000000E+00  0.4112161E-03
  0.1244898E+01  0.0000000E+00  0.1020408E+00 -0.3187143E-04  0.0000000E+00  0.3871861E-03
  0.1285714E+01  0.0000000E+00  0.1020408E+00 -0.2967641E-04  0.0000000E+00  0.3647727E-03
  0.1326531E+01  0.0000000E+00  0.1020408E+00 -0.2750041E-04  0.0000000E+00  0.3439680E-03
  0.1367347E+01  0.0000000E+00  0.1020408E+00 -0.2536544E-04  0.0000000E+00  0.3247458E-03
  0.1408163E+01  0.0000000E+00  0.1020408E+00 -0.2328734E-04  0.0000000E+00  0.3070666E-03
  0.1448980E+01  0.0000000E+00  0.1020408E+00 -0.2127647E-04  0.0000000E+00  0.2908821E-03
  0.1489796E+01  0.0000000E+00  0.1020408E+00 -0.1933865E-04  0.0000000E+00  0.2761384E-03
  0.1530612E+01  0.0000000E+00  0.1020408E+00 -0.1747590E-04  0.0000000E+00  0.2627794E-03
  0.1571429E+01  0.0000000E+00  0.1020408E+00 -0.1568728E-04  0.0000000E+00  0.2507489E-03
  0.1612245E+01  0.0000000E+00  0.1020408E+00 -0.1396956E-04  0.0000000E+00  0.2399929E-03
  0.1653061E+01  0.0000000E+00  0.1020408E+00 -0.1231791E-04  0.0000000E+00  0.2304606E-03
  0.1693878E+01  0.0000000E+00  0.1020408E+00 -0.1072637E-04  0.0000000E+00  0.2221054E-03
  0.1734694E+01  0.0000000E+00  0.1020408E+00 -0.9188269E-05  0.0000000E+00  0.2148855E-03
  0.1775510E+01  0.0000000E+00  0.1020408E+00 -0.7696586E-05  0.0000000E+00  0.2087644E-03
  0.1816326E+01  0.0000000E+00  0.1020408E+00 -0.6244110E-05  0.0000000E+00  0.2037108E-03
  0.1857143E+01  0.0000000E+00  0.1020408E+00 -0.4823598E-05  0.0000000E+00  0.1996988E-03
  0.1897959E+01  0.0000000E+00  0.1020408E+00 -0.3427846E-05  0.0000000E+00  0.1967077E-03
  0.1938776E+01  0.0000000E+00  0.1020408E+00 -0.2049716E-05  0.0000000E+00  0.1947221E-03
  0.1989796E+01  0.0000000E+00  0.1020408E+00 -0.6821342E-06  0.0000000E+00  0.1937319E-03
  0.2040816E-01  0.0000000E+00  0.1428571E+00  0.5894680E-06  0.0000000E+00  0.9359442E-03
  0.6122449E-01  0.0000000E+00  0.1428571E+00  0.1659939E-05  0.0000000E+00  0.9367312E-03
  0.1020408E+00  0.0000000E+00  0.1428571E+00  0.2408478E-05  0.0000000E+00  0.9381822E-03
  0.1428571E+00  0.0000000E+00  0.1428571E+00  0.2638530E-05  0.0000000E+00  0.9400560E-03
  0.1836735E+00  0.0000000E+00  0.1428571E+00  0.2181456E-05  0.0000000E+00  0.9420062E-03
  0.2244898E+00  0.0000000E+00  0.1428571E+00  0.9067154E-06  0.0000000E+00  0.9435987E-03
  0.2653061E+00  0.0000000E+00  0.1428571E+00 -0.1268387E-05  0.0000000E+00  0.9443357E-03
  0.3061225E+00  0.0000000E+00  0.1428571E+00 -0.4370869E-05  0.0000000E+00  0.9436854E-03
  0.3469388E+00  0.0000000E+00  0.1428571E+00 -0.8367331E-05  0.0000000E+00  0.9411158E-03
  0.3877551E+00  0.0000000E+00  0.1428571E+00 -0.1316338E-04  0.0000000E+00  0.9361304E-03
  0.4285714E+00  0.0000000E+00  0.1428571E+00 -0.1860816E-04  0.0000000E+00  0.9283036E-03
  0.4693878E+00  0.0000000E+00  0.1428571E+00 -0.2450426E-04  0.0000000E+00  0.9173124E-03
  0.5102041E+00  0.0000000E+00  0.1428571E+00 -0.3062238E-04  0.0000000E+00  0.9029599E-03
  0.5510204E+00  0.0000000E+00  0.1428571E+00 -0.3671926E-04  0.0000000E+00  0.8851892E-03
  0.5918368E+00  0.0000000E+00  0.1428571E+00 -0.4255676E-04  0.0000000E+00  0.8640859E-03
  0.6326531E+00  0.0000000E+00  0.1428571E+00 -0.4791953E-04  0.0000000E+00  0.8398686E-03
  0.6734694E+00  0.0000000E+00  0.1428571E+00 -0.5262923E-04  0.0000000E+00  0.8128695E-03
  0.7142857E+00  0.0000000E+00  0.1428571E+00 -0.5655381E-04  0.0000000E+00  0.7835083E-03
  0.7551020E+00  0.0000000E+00  0.1428571E+00 -0.5961141E-04  0.0000000E+00  0.7522623E-03
  0.7959183E+00  0.0000000E+00  0.1428571E+00 -0.6176917E-04  0.0000000E+00  0.7196366E-03
  0.8367347E+00  0.0000000E+00  0.1428571E+00 -0.6303806E-04  0.0000000E+00  0.6861365E-03
  0.8775510E+00  0.0000000E+00  0.1428571E+00 -0.6346512E-04  0.0000000E+00  0.6522447E-03
  0.9183673E+00  0.0000000E+00  0.1428571E+00 -0.6312437E-04  0.0000000E+00  0.6184044E-03
  0.9591837E+00  0.0000000E+00  0.1428571E+00 -0.6210768E-04  0.0000000E+00  0.5850072E-03
  0.1000000E+01  0.0000000E+00  0.1428571E+00 -0.6051643E-04  0.0000000E+00  0.5523872E-03
  0.1040816E+01  0.0000000E+00  0.1428571E+00 -0.5845447E-04  0.0000000E+00  0.5208188E-03
  0.1081633E+01  0.0000000E+00  0.1428571E+00 -0.5602261E-04  0.0000000E+00  0.4905183E-03
  0.1122449E+01  0.0000000E+00  0.1428571E+00 -0.5331469E-04  0.0000000E+00  0.4616476E-03
  0.1163265E+01  0.0000000E+00  0.1428571E+00 -0.5041498E-04  0.0000000E+00  0.4343204E-03
  0.1204082E+01  0.0000000E+00  0.1428571E+00 -0.4739675E-04  0.0000000E+00  0.4086075E-03
  0.1244898E+01  0.0000000E+00  0.1428571E+00 -0.4432180E-04  0.0000000E+00  0.3845445E-03
  0.1285714E+01  0.0000000E+00  0.1428571E+00 -0.4124059E-04  0.0000000E+00  0.3621375E-03
  0.1326531E+01  0.0000000E+00  0.1428571E+00 -0.3819285E-04  0.0000000E+00  0.3413698E-03
  0.1367347E+01  0.0000000E+00  0.1428571E+00 -0.3520847E-04  0.0000000E+00  0.3222072E-03
  0.1408163E+01  0.0000000E+00  0.1428571E+00 -0.3230864E-04  0.0000000E+00  0.3046034E-03
  0.1448980E+01  0.0000000E+00  0.1428571E+00 -0.2950696E-04  0.0000000E+00  0.2885039E-03
  0.1489796E+01  0.0000000E+00  0.1428571E+00 -0.2681065E-04  0.0000000E+00  0.2738496E-03
  0.1530612E+01  0.0000000E+00  0.1428571E+00 -0.2422174E-04  0.0000000E+00  0.2605806E-03
  0.1571429E+01  0.0000000E+00  0.1428571E+00 -0.2173820E-04  0.0000000E+00  0.2486375E-03
  0.1612245E+01  0.0000000E+00  0.1428571E+00 -0.1935491E-04  0.0000000E+00  0.2379640E-03
  0.1653061E+01  0.0000000E+00  0.1428571E+00 -0.1706462E-04  0.0000000E+00  0.2285075E-03
  0.1693878E+01  0.0000000E+00  0.1428571E+00 -0.1485861E-04  0.0000000E+00  0.2202204E-03
  0.1734694E+01  0.0000000E+00  0.1428571E+00 -0.1272731E-04  0.0000000E+00  0.2130605E-03
  0.1775510E+01  0.0000000E+00  0.1428571E+00 -0.1066072E-04  0.0000000E+00  0.2069907E-03
  0.1816326E+01  0.0000000E+00  0.1428571E+00 -0.8648686E-05  0.0000000E+00  0.2019798E-03
  0.1857143E+01  0.0000000E+00  0.1428571E+00 -0.6681064E-05  0.0000000E+00  0.1980017E-03
  0.1897959E+01  0.0000000E+00  0.1428571E+00 -0.4747804E-05  0.0000000E+00  0.1950360E-03
  0.1938776E+01  0.0000000E+00  0.1428571E+00 -0.2838979E-05  0.0000000E+00  0.1930673E-03
  0.1989796E+01  0.0000000E+00  0.1428571E+00 -0.9447699E-06  0.0000000E+00  0.1920855E-03
  0.2040816E-01  0.0000000E+00  0.1836735E+00  0.8752016E-06  0.0000000E+00  0.9346359E-03
  0.6122449E-01  0.0000000E+00  0.1836735E+00  0.2482359E-05  0.0000000E+00  0.9356721E-03
  0.1020408E+00  0.0000000E+00  0.1836735E+00  0.3664597E-05  0.0000000E+00  0.9376087E-03
  0.1428571E+00  0.0000000E+00  0.1836735E+00  0.4161493E-05  0.0000000E+00  0.9401796E-03
  0.1836735E+00  0.0000000E+00  0.1836735E+00  0.3748183E-05  0.0000000E+00  0.9430006E-03
  0.2244898E+00  0.0000000E+00  0.1836735E+00  0.2248931E-05  0.0000000E+00  0.9455881E-03
  0.2653061E+00  0.0000000E+00  0.1836735E+00 -0.4495197E-06  0.0000000E+00  0.9473847E-03
  0.3061225E+00  0.0000000E+00  0.1836735E+00 -0.4386756E-05  0.0000000E+00  0.9477912E-03
  0.3469388E+00  0.0000000E+00  0.1836735E+00 -0.9521308E-05  0.0000000E+00  0.9462048E-03
  0.3877551E+00  0.0000000E+00  0.1836735E+00 -0.1572895E-04  0.0000000E+00  0.9420604E-03
  0.4285714E+00  0.0000000E+00  0.1836735E+00 -0.2280807E-04  0.0000000E+00  0.9348721E-03
  0.4693878E+00  0.0000000E+00  0.1836735E+00 -0.3049289E-04  0.0000000E+00  0.9242708E-03
  0.5102041E+00  0.0000000E+00  0.1836735E+00 -0.3847365E-04  0.0000000E+00  0.9100328E-03
  0.5510204E+00  0.0000000E+00  0.1836735E+00 -0.4642179E-04  0.0000000E+00  0.8920964E-03
  0.5918368E+00  0.0000000E+00  0.1836735E+00 -0.5401673E-04  0.0000000E+00  0.8705637E-03
  0.6326531E+00  0.0000000E+00  0.1836735E+00 -0.6097070E-04  0.0000000E+00  0.8456889E-03
  0.6734694E+00  0.0000000E+00  0.1836735E+00 -0.6704828E-04  0.0000000E+00  0.8178534E-03
  0.7142857E+00  0.0000000E+00  0.1836735E+00 -0.7207874E-04  0.0000000E+00  0.7875336E-03
  0.7551020E+00  0.0000000E+00  0.1836735E+00 -0.7596045E-04  0.0000000E+00  0.7552650E-03
  0.7959183E+00  0.0000000E+00  0.1836735E+00 -0.7865821E-04  0.0000000E+00  0.7216065E-03
  0.8367347E+00  0.0000000E+00  0.1836735E+00 -0.8019517E-04  0.0000000E+00  0.6871096E-03
  0.8775510E+00  0.0000000E+00  0.1836735E+00 -0.8064137E-04  0.0000000E+00  0.6522932E-03
  0.9183673E+00  0.0000000E+00  0.1836735E+00 -0.8010091E-04  0.0000000E+00  0.6176258E-03
  0.9591837E+00  0.0000000E+00  0.1836735E+00 -0.7869943E-04  0.0000000E+00  0.5835143E-03
  0.1000000E+01  0.0000000E+00  0.1836735E+00 -0.7657298E-04  0.0000000E+00  0.5502990E-03
  0.1040816E+01  0.0000000E+00  0.1836735E+00 -0.7385882E-04  0.0000000E+00  0.5182533E-03
  0.1081633E+01  0.0000000E+00  0.1836735E+00 -0.7068856E-04  0.0000000E+00  0.4875873E-03
  0.1122449E+01  0.0000000E+00  0.1836735E+00 -0.6718329E-04  0.0000000E+00  0.4584532E-03
  0.1163265E+01  0.0000000E+00  0.1836735E+00 -0.6345068E-04  0.0000000E+00  0.4309523E-03
  0.1204082E+01  0.0000000E+00  0.1836735E+00 -0.5958348E-04  0.0000000E+00  0.4051427E-03
  0.1244898E+01  0.0000000E+00  0.1836735E+00 -0.5565913E-04  0.0000000E+00  0.3810466E-03
  0.1285714E+01  0.0000000E+00  0.1836735E+00 -0.5174029E-04  0.0000000E+00  0.3586574E-03
  0.1326531E+01  0.0000000E+00  0.1836735E+00 -0.4787574E-04  0.0000000E+00  0.3379468E-03
  0.1367347E+01  0.0000000E+00  0.1836735E+00 -0.4410171E-04  0.0000000E+00  0.3188700E-03
  0.1408163E+01  0.0000000E+00  0.1836735E+00 -0.4044333E-04  0.0000000E+00  0.3013713E-03
  0.1448980E+01  0.0000000E+00  0.1836735E+00 -0.3691620E-04  0.0000000E+00  0.2853882E-03
  0.1489796E+01  0.0000000E+00  0.1836735E+00 -0.3352792E-04  0.0000000E+00  0.2708554E-03
  0.1530612E+01  0.0000000E+00  0.1836735E+00 -0.3027965E-04  0.0000000E+00  0.2577074E-03
  0.1571429E+01  0.0000000E+00  0.1836735E+00 -0.2716758E-04  0.0000000E+00  0.2458811E-03
  0.1612245E+01  0.0000000E+00  0.1836735E+00 -0.2418417E-04  0.0000000E+00  0.2353170E-03
  0.1653061E+01  0.0000000E+00  0.1836735E+00 -0.2131937E-04  0.0000000E+00  0.2259607E-03
  0.1693878E+01  0.0000000E+00  0.1836735E+00 -0.1856152E-04  0.0000000E+00  0.2177635E-03
  0.1734694E+01  0.0000000E+00  0.1836735E+00 -0.1589808E-04  0.0000000E+00  0.2106821E-03
  0.1775510E+01  0.0000000E+00  0.1836735E+00 -0.1331613E-04  0.0000000E+00  0.2046795E-03
  0.1816326E+01  0.0000000E+00  0.1836735E+00 -0.1080270E-04  0.0000000E+00  0.1997243E-03
  0.1857143E+01  0.0000000E+00  0.1836735E+00 -0.8344932E-05  0.0000000E+00  0.1957906E-03
  0.1897959E+01  0.0000000E+00  0.1836735E+00 -0.5930172E-05  0.0000000E+00  0.1928579E-03
  0.1938776E+01  0.0000000E+00  0.1836735E+00 -0.3545965E-05  0.0000000E+00  0.1909112E-03
  0.1989796E+01  0.0000000E+00  0.1836735E+00 -0.1180023E-05  0.0000000E+00  0.1899403E-03
  0.2040816E-01  0.0000000E+00  0.2244898E+00  0.1249610E-05  0.0000000E+00  0.9327254E-03
  0.6122449E-01  0.0000000E+00  0.2244898E+00  0.3568236E-05  0.0000000E+00  0.9340818E-03
  0.1020408E+00  0.0000000E+00  0.2244898E+00  0.5351084E-05  0.0000000E+00  0.9366433E-03
  0.1428571E+00  0.0000000E+00  0.2244898E+00  0.6268054E-05  0.0000000E+00  0.9401129E-03
  0.1836735E+00  0.0000000E+00  0.2244898E+00  0.6031663E-05  0.0000000E+00  0.9440596E-03
  0.2244898E+00  0.0000000E+00  0.2244898E+00  0.4414296E-05  0.0000000E+00  0.9479375E-03
  0.2653061E+00  0.0000000E+00  0.2244898E+00  0.1265875E-05  0.0000000E+00  0.9511126E-03
  0.3061225E+00  0.0000000E+00  0.2244898E+00 -0.3470542E-05  0.0000000E+00  0.9528983E-03
  0.3469388E+00  0.0000000E+00  0.2244898E+00 -0.9747497E-05  0.0000000E+00  0.9525985E-03
  0.3877551E+00  0.0000000E+00  0.2244898E+00 -0.1740919E-04  0.0000000E+00  0.9495567E-03
  0.4285714E+00  0.0000000E+00  0.2244898E+00 -0.2619715E-04  0.0000000E+00  0.9432055E-03
  0.4693878E+00  0.0000000E+00  0.2244898E+00 -0.3576700E-04  0.0000000E+00  0.9331137E-03
  0.5102041E+00  0.0000000E+00  0.2244898E+00 -0.4571542E-04  0.0000000E+00  0.9190216E-03
  0.5510204E+00  0.0000000E+00  0.2244898E+00 -0.5561447E-04  0.0000000E+00  0.9008615E-03
  0.5918368E+00  0.0000000E+00  0.2244898E+00 -0.6504846E-04  0.0000000E+00  0.8787598E-03
  0.6326531E+00  0.0000000E+00  0.2244898E+00 -0.7364776E-04  0.0000000E+00  0.8530203E-03
  0.6734694E+00  0.0000000E+00  0.2244898E+00 -0.8111494E-04  0.0000000E+00  0.8240922E-03
  0.7142857E+00  0.0000000E+00  0.2244898E+00 -0.8724030E-04  0.0000000E+00  0.7925291E-03
  0.7551020E+00  0.0000000E+00  0.2244898E+00 -0.9190619E-04  0.0000000E+00  0.7589441E-03
  0.7959183E+00  0.0000000E+00  0.2244898E+00 -0.9508164E-04  0.0000000E+00  0.7239669E-03
  0.8367347E+00  0.0000000E+00  0.2244898E+00 -0.9680997E-04  0.0000000E+00  0.6882083E-03
  0.8775510E+00  0.0000000E+00  0.2244898E+00 -0.9719237E-04  0.0000000E+00  0.6522322E-03
  0.9183673E+00  0.0000000E+00  0.2244898E+00 -0.9637038E-04  0.0000000E+00  0.6165372E-03
  0.9591837E+00  0.0000000E+00  0.2244898E+00 -0.9450936E-04  0.0000000E+00  0.5815471E-03
  0.1000000E+01  0.0000000E+00  0.2244898E+00 -0.9178429E-04  0.0000000E+00  0.5476076E-03
  0.1040816E+01  0.0000000E+00  0.2244898E+00 -0.8836852E-04  0.0000000E+00  0.5149887E-03
  0.1081633E+01  0.0000000E+00  0.2244898E+00 -0.8442564E-04  0.0000000E+00  0.4838907E-03
  0.1122449E+01  0.0000000E+00  0.2244898E+00 -0.8010411E-04  0.0000000E+00  0.4544517E-03
  0.1163265E+01  0.0000000E+00  0.2244898E+00 -0.7553421E-04  0.0000000E+00  0.4267567E-03
  0.1204082E+01  0.0000000E+00  0.2244898E+00 -0.7082680E-04  0.0000000E+00  0.4008467E-03
  0.1244898E+01  0.0000000E+00  0.2244898E+00 -0.6607338E-04  0.0000000E+00  0.3767270E-03
  0.1285714E+01  0.0000000E+00  0.2244898E+00 -0.6134703E-04  0.0000000E+00  0.3543751E-03
  0.1326531E+01  0.0000000E+00  0.2244898E+00 -0.5670385E-04  0.0000000E+00  0.3337479E-03
  0.1367347E+01  0.0000000E+00  0.2244898E+00 -0.5218473E-04  0.0000000E+00  0.3147876E-03
  0.1408163E+01  0.0000000E+00  0.2244898E+00 -0.4781724E-04  0.0000000E+00  0.2974271E-03
  0.1448980E+01  0.0000000E+00  0.2244898E+00 -0.4361759E-04  0.0000000E+00  0.2815943E-03
  0.1489796E+01  0.0000000E+00  0.2244898E+00 -0.3959255E-04  0.0000000E+00  0.2672160E-03
  0.1530612E+01  0.0000000E+00  0.2244898E+00 -0.3574137E-04  0.0000000E+00  0.2542205E-03
  0.1571429E+01  0.0000000E+00  0.2244898E+00 -0.3205754E-04  0.0000000E+00  0.2425398E-03
  0.1612245E+01  0.0000000E+00  0.2244898E+00 -0.2853044E-04  0.0000000E+00  0.2321114E-03
  0.1653061E+01  0.0000000E+00  0.2244898E+00 -0.2514672E-04  0.0000000E+00  0.2228786E-03
  0.1693878E+01  0.0000000E+00  0.2244898E+00 -0.2189146E-04  0.0000000E+00  0.2147913E-03
  0.1734694E+01  0.0000000E+00  0.2244898E+00 -0.1874900E-04  0.0000000E+00  0.2078058E-03
  0.1775510E+01  0.0000000E+00  0.2244898E+00 -0.1570348E-04  0.0000000E+00  0.2018848E-03
  0.1816326E+01  0.0000000E+00  0.2244898E+00 -0.1273920E-04  0.0000000E+00  0.1969971E-03
  0.1857143E+01  0.0000000E+00  0.2244898E+00 -0.9840769E-05  0.0000000E+00  0.1931169E-03
  0.1897959E+01  0.0000000E+00  0.2244898E+00 -0.6993139E-05  0.0000000E+00  0.1902242E-03
  0.1938776E+01  0.0000000E+00  0.2244898E+00 -0.4181561E-05  0.0000000E+00  0.1883039E-03
  0.1989796E+01  0.0000000E+00  0.2244898E+00 -0.1391521E-05  0.0000000E+00  0.1873463E-03
  0.2040816E-01  0.0000000E+00  0.2653061E+00  0.1736455E-05  0.0000000E+00  0.9300194E-03
  0.6122449E-01  0.0000000E+00  0.2653061E+00  0.4987890E-05  0.0000000E+00  0.9317733E-03
  0.1020408E+00  0.0000000E+00  0.2653061E+00  0.7581786E-05  0.0000000E+00  0.9351121E-03
  0.1428571E+00  0.0000000E+00  0.2653061E+00  0.9110176E-05  0.0000000E+00  0.9397027E-03
  0.1836735E+00  0.0000000E+00  0.2653061E+00  0.9213749E-05  0.0000000E+00  0.9450587E-03
  0.2244898E+00  0.0000000E+00  0.2653061E+00  0.7603161E-05  0.0000000E+00  0.9505588E-03
  0.2653061E+00  0.0000000E+00  0.2653061E+00  0.4082011E-05  0.0000000E+00  0.9554747E-03
  0.3061225E+00  0.0000000E+00  0.2653061E+00 -0.1431542E-05  0.0000000E+00  0.9590096E-03
  0.3469388E+00  0.0000000E+00  0.2653061E+00 -0.8887776E-05  0.0000000E+00  0.9603478E-03
  0.3877551E+00  0.0000000E+00  0.2653061E+00 -0.1809733E-04  0.0000000E+00  0.9587130E-03
  0.4285714E+00  0.0000000E+00  0.2653061E+00 -0.2873616E-04  0.0000000E+00  0.9534307E-03
  0.4693878E+00  0.0000000E+00  0.2653061E+00 -0.4036605E-04  0.0000000E+00  0.9439867E-03
  0.5102041E+00  0.0000000E+00  0.2653061E+00 -0.5247022E-04  0.0000000E+00  0.9300737E-03
  0.5510204E+00  0.0000000E+00  0.2653061E+00 -0.6449990E-04  0.0000000E+00  0.9116175E-03
  0.5918368E+00  0.0000000E+00  0.2653061E+00 -0.7592482E-04  0.0000000E+00  0.8887788E-03
  0.6326531E+00  0.0000000E+00  0.2653061E+00 -0.8627918E-04  0.0000000E+00  0.8619300E-03
  0.6734694E+00  0.0000000E+00  0.2653061E+00 -0.9519606E-04  0.0000000E+00  0.8316124E-03
  0.7142857E+00  0.0000000E+00  0.2653061E+00 -0.1024264E-03  0.0000000E+00  0.7984825E-03
  0.7551020E+00  0.0000000E+00  0.2653061E+00 -0.1078419E-03  0.0000000E+00  0.7632546E-03
  0.7959183E+00  0.0000000E+00  0.2653061E+00 -0.1114255E-03  0.0000000E+00  0.7266486E-03
  0.8367347E+00  0.0000000E+00  0.2653061E+00 -0.1132519E-03  0.0000000E+00  0.6893486E-03
  0.8775510E+00  0.0000000E+00  0.2653061E+00 -0.1134649E-03  0.0000000E+00  0.6519716E-03
  0.9183673E+00  0.0000000E+00  0.2653061E+00 -0.1122537E-03  0.0000000E+00  0.6150505E-03
  0.9591837E+00  0.0000000E+00  0.2653061E+00 -0.1098312E-03  0.0000000E+00  0.5790258E-03
  0.1000000E+01  0.0000000E+00  0.2653061E+00 -0.1064173E-03  0.0000000E+00  0.5442457E-03
  0.1040816E+01  0.0000000E+00  0.2653061E+00 -0.1022250E-03  0.0000000E+00  0.5109726E-03
  0.1081633E+01  0.0000000E+00  0.2653061E+00 -0.9745164E-04  0.0000000E+00  0.4793916E-03
  0.1122449E+01  0.0000000E+00  0.2653061E+00 -0.9227328E-04  0.0000000E+00  0.4496217E-03
  0.1163265E+01  0.0000000E+00  0.2653061E+00 -0.8684207E-04  0.0000000E+00  0.4217266E-03
  0.1204082E+01  0.0000000E+00  0.2653061E+00 -0.8128560E-04  0.0000000E+00  0.3957257E-03
  0.1244898E+01  0.0000000E+00  0.2653061E+00 -0.7570763E-04  0.0000000E+00  0.3716033E-03
  0.1285714E+01  0.0000000E+00  0.2653061E+00 -0.7018976E-04  0.0000000E+00  0.3493176E-03
  0.1326531E+01  0.0000000E+00  0.2653061E+00 -0.6479351E-04  0.0000000E+00  0.3288080E-03