title = "dataset feddes"
variables = "x", "y", "z", "vx", "vy", "vz"
zone t = "velocities, solution time =  3.900E+01 days        " i =   49, j =   49, k =    1,  f=point
  0.2040816E-01  0.0000000E+00  0.2040816E-01  0.4538234E-07  0.0000000E+00  0.8526486E-03
  0.6122449E-01  0.0000000E+00  0.2040816E-01  0.1259250E-06  0.0000000E+00  0.8530163E-03
  0.1020408E+00  0.0000000E+00  0.2040816E-01  0.1759834E-06  0.0000000E+00  0.8536643E-03
  0.1428571E+00  0.0000000E+00  0.2040816E-01  0.1770558E-06  0.0000000E+00  0.8544220E-03
  0.1836735E+00  0.0000000E+00  0.2040816E-01  0.1133885E-06  0.0000000E+00  0.8550454E-03
  0.2244898E+00  0.0000000E+00  0.2040816E-01 -0.2706099E-07  0.0000000E+00  0.8552307E-03
  0.2653061E+00  0.0000000E+00  0.2040816E-01 -0.2517455E-06  0.0000000E+00  0.8546323E-03
  0.3061225E+00  0.0000000E+00  0.2040816E-01 -0.5628744E-06  0.0000000E+00  0.8528839E-03
  0.3469388E+00  0.0000000E+00  0.2040816E-01 -0.9570582E-06  0.0000000E+00  0.8496216E-03
  0.3877551E+00  0.0000000E+00  0.2040816E-01 -0.1425339E-05  0.0000000E+00  0.8445083E-03
  0.4285714E+00  0.0000000E+00  0.2040816E-01 -0.1953669E-05  0.0000000E+00  0.8372560E-03
  0.4693878E+00  0.0000000E+00  0.2040816E-01 -0.2523832E-05  0.0000000E+00  0.8276462E-03
  0.5102041E+00  0.0000000E+00  0.2040816E-01 -0.3114757E-05  0.0000000E+00  0.8155444E-03
  0.5510204E+00  0.0000000E+00  0.2040816E-01 -0.3704076E-05  0.0000000E+00  0.8009096E-03
  0.5918368E+00  0.0000000E+00  0.2040816E-01 -0.4269789E-05  0.0000000E+00  0.7837962E-03
  0.6326531E+00  0.0000000E+00  0.2040816E-01 -0.4791801E-05  0.0000000E+00  0.7643485E-03
  0.6734694E+00  0.0000000E+00  0.2040816E-01 -0.5253199E-05  0.0000000E+00  0.7427905E-03
  0.7142857E+00  0.0000000E+00  0.2040816E-01 -0.5641122E-05  0.0000000E+00  0.7194102E-03
  0.7551020E+00  0.0000000E+00  0.2040816E-01 -0.5947189E-05  0.0000000E+00  0.6945410E-03
  0.7959183E+00  0.0000000E+00  0.2040816E-01 -0.6167485E-05  0.0000000E+00  0.6685426E-03
  0.8367347E+00  0.0000000E+00  0.2040816E-01 -0.6302199E-05  0.0000000E+00  0.6417828E-03
  0.8775510E+00  0.0000000E+00  0.2040816E-01 -0.6354990E-05  0.0000000E+00  0.6146212E-03
  0.9183673E+00  0.0000000E+00  0.2040816E-01 -0.6332220E-05  0.0000000E+00  0.5873957E-03
  0.9591837E+00  0.0000000E+00  0.2040816E-01 -0.6242138E-05  0.0000000E+00  0.5604128E-03
  0.1000000E+01  0.0000000E+00  0.2040816E-01 -0.6094106E-05  0.0000000E+00  0.5339414E-03
  0.1040816E+01  0.0000000E+00  0.2040816E-01 -0.5897923E-05  0.0000000E+00  0.5082091E-03
  0.1081633E+01  0.0000000E+00  0.2040816E-01 -0.5663272E-05  0.0000000E+00  0.4834016E-03
  0.1122449E+01  0.0000000E+00  0.2040816E-01 -0.5399311E-05  0.0000000E+00  0.4596645E-03
  0.1163265E+01  0.0000000E+00  0.2040816E-01 -0.5114378E-05  0.0000000E+00  0.4371055E-03
  0.1204082E+01  0.0000000E+00  0.2040816E-01 -0.4815824E-05  0.0000000E+00  0.4157988E-03
  0.1244898E+01  0.0000000E+00  0.2040816E-01 -0.4509925E-05  0.0000000E+00  0.3957893E-03
  0.1285714E+01  0.0000000E+00  0.2040816E-01 -0.4201877E-05  0.0000000E+00  0.3770973E-03
  0.1326531E+01  0.0000000E+00  0.2040816E-01 -0.3895834E-05  0.0000000E+00  0.3597232E-03
  0.1367347E+01  0.0000000E+00  0.2040816E-01 -0.3594980E-05  0.0000000E+00  0.3436513E-03
  0.1408163E+01  0.0000000E+00  0.2040816E-01 -0.3301633E-05  0.0000000E+00  0.3288545E-03
  0.1448980E+01  0.0000000E+00  0.2040816E-01 -0.3017348E-05  0.0000000E+00  0.3152972E-03
  0.1489796E+01  0.0000000E+00  0.2040816E-01 -0.2743036E-05  0.0000000E+00  0.3029384E-03
  0.1530612E+01  0.0000000E+00  0.2040816E-01 -0.2479071E-05  0.0000000E+00  0.2917345E-03
  0.1571429E+01  0.0000000E+00  0.2040816E-01 -0.2225405E-05  0.0000000E+00  0.2816413E-03
  0.1612245E+01  0.0000000E+00  0.2040816E-01 -0.1981659E-05  0.0000000E+00  0.2726154E-03
  0.1653061E+01  0.0000000E+00  0.2040816E-01 -0.1747212E-05  0.0000000E+00  0.2646154E-03
  0.1693878E+01  0.0000000E+00  0.2040816E-01 -0.1521275E-05  0.0000000E+00  0.2576031E-03
  0.1734694E+01  0.0000000E+00  0.2040816E-01 -0.1302943E-05  0.0000000E+00  0.2515440E-03
  0.1775510E+01  0.0000000E+00  0.2040816E-01 -0.1091247E-05  0.0000000E+00  0.2464075E-03
  0.1816326E+01  0.0000000E+00  0.2040816E-01 -0.8851785E-06  0.0000000E+00  0.2421673E-03
  0.1857143E+01  0.0000000E+00  0.2040816E-01 -0.6837131E-06  0.0000000E+00  0.2388015E-03
  0.1897959E+01  0.0000000E+00  0.2040816E-01 -0.4858232E-06  0.0000000E+00  0.2362924E-03
  0.1938776E+01  0.0000000E+00  0.2040816E-01 -0.2904840E-06  0.0000000E+00  0.2346269E-03
  0.1989796E+01  0.0000000E+00  0.2040816E-01 -0.9667723E-07  0.0000000E+00  0.2337963E-03
  0.2040816E-01  0.0000000E+00  0.6122449E-01  0.1594244E-06  0.0000000E+00  0.8524783E-03
  0.6122449E-01  0.0000000E+00  0.6122449E-01  0.4436171E-06  0.0000000E+00  0.8528869E-03
  0.1020408E+00  0.0000000E+00  0.6122449E-01  0.6246985E-06  0.0000000E+00  0.8536144E-03
  0.1428571E+00  0.0000000E+00  0.6122449E-01  0.6400138E-06  0.0000000E+00  0.8544858E-03
  0.1836735E+00  0.0000000E+00  0.6122449E-01  0.4361618E-06  0.0000000E+00  0.8552507E-03
  0.2244898E+00  0.0000000E+00  0.6122449E-01 -0.2775690E-07  0.0000000E+00  0.8555970E-03
  0.2653061E+00  0.0000000E+00  0.6122449E-01 -0.7771462E-06  0.0000000E+00  0.8551693E-03
  0.3061225E+00  0.0000000E+00  0.6122449E-01 -0.1819654E-05  0.0000000E+00  0.8535904E-03
  0.3469388E+00  0.0000000E+00  0.6122449E-01 -0.3143925E-05  0.0000000E+00  0.8504853E-03
  0.3877551E+00  0.0000000E+00  0.6122449E-01 -0.4719666E-05  0.0000000E+00  0.8455062E-03
  0.4285714E+00  0.0000000E+00  0.6122449E-01 -0.6499231E-05  0.0000000E+00  0.8383557E-03
  0.4693878E+00  0.0000000E+00  0.6122449E-01 -0.8420763E-05  0.0000000E+00  0.8288084E-03
  0.5102041E+00  0.0000000E+00  0.6122449E-01 -0.1041265E-04  0.0000000E+00  0.8167257E-03
  0.5510204E+00  0.0000000E+00  0.6122449E-01 -0.1239891E-04  0.0000000E+00  0.8020656E-03
  0.5918368E+00  0.0000000E+00  0.6122449E-01 -0.1430484E-04  0.0000000E+00  0.7848847E-03
  0.6326531E+00  0.0000000E+00  0.6122449E-01 -0.1606232E-04  0.0000000E+00  0.7653326E-03
  0.6734694E+00  0.0000000E+00  0.6122449E-01 -0.1761418E-04  0.0000000E+00  0.7436405E-03
  0.7142857E+00  0.0000000E+00  0.6122449E-01 -0.1891711E-04  0.0000000E+00  0.7201047E-03
  0.7551020E+00  0.0000000E+00  0.6122449E-01 -0.1994309E-04  0.0000000E+00  0.6950676E-03
  0.7959183E+00  0.0000000E+00  0.6122449E-01 -0.2067931E-04  0.0000000E+00  0.6688977E-03
  0.8367347E+00  0.0000000E+00  0.6122449E-01 -0.2112688E-04  0.0000000E+00  0.6419702E-03
  0.8775510E+00  0.0000000E+00  0.6122449E-01 -0.2129859E-04  0.0000000E+00  0.6146509E-03
  0.9183673E+00  0.0000000E+00  0.6122449E-01 -0.2121633E-04  0.0000000E+00  0.5872823E-03
  0.9591837E+00  0.0000000E+00  0.6122449E-01 -0.2090823E-04  0.0000000E+00  0.5601740E-03
  0.1000000E+01  0.0000000E+00  0.6122449E-01 -0.2040610E-04  0.0000000E+00  0.5335963E-03
  0.1040816E+01  0.0000000E+00  0.6122449E-01 -0.1974311E-04  0.0000000E+00  0.5077772E-03
  0.1081633E+01  0.0000000E+00  0.6122449E-01 -0.1895193E-04  0.0000000E+00  0.4829018E-03
  0.1122449E+01  0.0000000E+00  0.6122449E-01 -0.1806338E-04  0.0000000E+00  0.4591143E-03
  0.1163265E+01  0.0000000E+00  0.6122449E-01 -0.1710548E-04  0.0000000E+00  0.4365205E-03
  0.1204082E+01  0.0000000E+00  0.6122449E-01 -0.1610284E-04  0.0000000E+00  0.4151927E-03
  0.1244898E+01  0.0000000E+00  0.6122449E-01 -0.1507646E-04  0.0000000E+00  0.3951736E-03
  0.1285714E+01  0.0000000E+00  0.6122449E-01 -0.1404367E-04  0.0000000E+00  0.3764814E-03
  0.1326531E+01  0.0000000E+00  0.6122449E-01 -0.1301831E-04  0.0000000E+00  0.3591143E-03
  0.1367347E+01  0.0000000E+00  0.6122449E-01 -0.1201094E-04  0.0000000E+00  0.3430551E-03
  0.1408163E+01  0.0000000E+00  0.6122449E-01 -0.1102924E-04  0.0000000E+00  0.3282747E-03
  0.1448980E+01  0.0000000E+00  0.6122449E-01 -0.1007831E-04  0.0000000E+00  0.3147363E-03
  0.1489796E+01  0.0000000E+00  0.6122449E-01 -0.9161107E-05  0.0000000E+00  0.3023978E-03
  0.1530612E+01  0.0000000E+00  0.6122449E-01 -0.8278817E-05  0.0000000E+00  0.2912145E-03
  0.1571429E+01  0.0000000E+00  0.6122449E-01 -0.7431195E-05  0.0000000E+00  0.2811415E-03
  0.1612245E+01  0.0000000E+00  0.6122449E-01 -0.6616914E-05  0.0000000E+00  0.2721347E-03
  0.1653061E+01  0.0000000E+00  0.6122449E-01 -0.5833845E-05  0.0000000E+00  0.2641524E-03
  0.1693878E+01  0.0000000E+00  0.6122449E-01 -0.5079302E-05  0.0000000E+00  0.2571563E-03
  0.1734694E+01  0.0000000E+00  0.6122449E-01 -0.4350236E-05  0.0000000E+00  0.2511114E-03
  0.1775510E+01  0.0000000E+00  0.6122449E-01 -0.3643376E-05  0.0000000E+00  0.2459871E-03
  0.1816326E+01  0.0000000E+00  0.6122449E-01 -0.2955339E-05  0.0000000E+00  0.2417571E-03
  0.1857143E+01  0.0000000E+00  0.6122449E-01 -0.2282692E-05  0.0000000E+00  0.2383994E-03
  0.1897959E+01  0.0000000E+00  0.6122449E-01 -0.1621995E-05  0.0000000E+00  0.2358964E-03
  0.1938776E+01  0.0000000E+00  0.6122449E-01 -0.9698195E-06  0.0000000E+00  0.2342350E-03
  0.1989796E+01  0.0000000E+00  0.6122449E-01 -0.3227574E-06  0.0000000E+00  0.2334065E-03
  0.2040816E-01  0.0000000E+00  0.1020408E+00  0.3089360E-06  0.0000000E+00  0.8520504E-03
  0.6122449E-01  0.0000000E+00  0.1020408E+00  0.8641045E-06  0.0000000E+00  0.8525563E-03
  0.1020408E+00  0.0000000E+00  0.1020408E+00  0.1233122E-05  0.0000000E+00  0.8534732E-03
  0.1428571E+00  0.0000000E+00  0.1020408E+00  0.1302671E-05  0.0000000E+00  0.8546159E-03
  0.1836735E+00  0.0000000E+00  0.1020408E+00  0.9759255E-06  0.0000000E+00  0.8557186E-03
  0.2244898E+00  0.0000000E+00  0.1020408E+00  0.1784382E-06  0.0000000E+00  0.8564494E-03
  0.2653061E+00  0.0000000E+00  0.1020408E+00 -0.1136380E-05  0.0000000E+00  0.8564296E-03
  0.3061225E+00  0.0000000E+00  0.1020408E+00 -0.2982999E-05  0.0000000E+00  0.8552561E-03
  0.3469388E+00  0.0000000E+00  0.1020408E+00 -0.5341351E-05  0.0000000E+00  0.8525271E-03
  0.3877551E+00  0.0000000E+00  0.1020408E+00 -0.8156775E-05  0.0000000E+00  0.8478689E-03
  0.4285714E+00  0.0000000E+00  0.1020408E+00 -0.1134280E-04  0.0000000E+00  0.8409623E-03
  0.4693878E+00  0.0000000E+00  0.1020408E+00 -0.1478683E-04  0.0000000E+00  0.8315644E-03
  0.5102041E+00  0.0000000E+00  0.1020408E+00 -0.1835836E-04  0.0000000E+00  0.8195270E-03
  0.5510204E+00  0.0000000E+00  0.1020408E+00 -0.2191895E-04  0.0000000E+00  0.8048059E-03
  0.5918368E+00  0.0000000E+00  0.1020408E+00 -0.2533269E-04  0.0000000E+00  0.7874631E-03
  0.6326531E+00  0.0000000E+00  0.1020408E+00 -0.2847609E-04  0.0000000E+00  0.7676607E-03
  0.6734694E+00  0.0000000E+00  0.1020408E+00 -0.3124597E-04  0.0000000E+00  0.7456476E-03
  0.7142857E+00  0.0000000E+00  0.1020408E+00 -0.3356488E-04  0.0000000E+00  0.7217406E-03
  0.7551020E+00  0.0000000E+00  0.1020408E+00 -0.3538351E-04  0.0000000E+00  0.6963038E-03
  0.7959183E+00  0.0000000E+00  0.1020408E+00 -0.3668031E-04  0.0000000E+00  0.6697262E-03
  0.8367347E+00  0.0000000E+00  0.1020408E+00 -0.3745897E-04  0.0000000E+00  0.6424010E-03
  0.8775510E+00  0.0000000E+00  0.1020408E+00 -0.3774417E-04  0.0000000E+00  0.6147087E-03
  0.9183673E+00  0.0000000E+00  0.1020408E+00 -0.3757669E-04  0.0000000E+00  0.5870025E-03
  0.9591837E+00  0.0000000E+00  0.1020408E+00 -0.3700824E-04  0.0000000E+00  0.5595988E-03
  0.1000000E+01  0.0000000E+00  0.1020408E+00 -0.3609668E-04  0.0000000E+00  0.5327717E-03
  0.1040816E+01  0.0000000E+00  0.1020408E+00 -0.3490196E-04  0.0000000E+00  0.5067495E-03
  0.1081633E+01  0.0000000E+00  0.1020408E+00 -0.3348278E-04  0.0000000E+00  0.4817157E-03
  0.1122449E+01  0.0000000E+00  0.1020408E+00 -0.3189423E-04  0.0000000E+00  0.4578111E-03
  0.1163265E+01  0.0000000E+00  0.1020408E+00 -0.3018611E-04  0.0000000E+00  0.4351373E-03
  0.1204082E+01  0.0000000E+00  0.1020408E+00 -0.2840205E-04  0.0000000E+00  0.4137614E-03
  0.1244898E+01  0.0000000E+00  0.1020408E+00 -0.2657907E-04  0.0000000E+00  0.3937211E-03
  0.1285714E+01  0.0000000E+00  0.1020408E+00 -0.2474761E-04  0.0000000E+00  0.3750296E-03
  0.1326531E+01  0.0000000E+00  0.1020408E+00 -0.2293183E-04  0.0000000E+00  0.3576804E-03
  0.1367347E+01  0.0000000E+00  0.1020408E+00 -0.2115010E-04  0.0000000E+00  0.3416517E-03
  0.1408163E+01  0.0000000E+00  0.1020408E+00 -0.1941563E-04  0.0000000E+00  0.3269109E-03
  0.1448980E+01  0.0000000E+00  0.1020408E+00 -0.1773714E-04  0.0000000E+00  0.3134176E-03
  0.1489796E+01  0.0000000E+00  0.1020408E+00 -0.1611952E-04  0.0000000E+00  0.3011271E-03
  0.1530612E+01  0.0000000E+00  0.1020408E+00 -0.1456457E-04  0.0000000E+00  0.2899925E-03
  0.1571429E+01  0.0000000E+00  0.1020408E+00 -0.1307160E-04  0.0000000E+00  0.2799670E-03
  0.1612245E+01  0.0000000E+00  0.1020408E+00 -0.1163804E-04  0.0000000E+00  0.2710053E-03
  0.1653061E+01  0.0000000E+00  0.1020408E+00 -0.1025994E-04  0.0000000E+00  0.2630648E-03
  0.1693878E+01  0.0000000E+00  0.1020408E+00 -0.8932414E-05  0.0000000E+00  0.2561064E-03
  0.1734694E+01  0.0000000E+00  0.1020408E+00 -0.7649970E-05  0.0000000E+00  0.2500948E-03
  0.1775510E+01  0.0000000E+00  0.1020408E+00 -0.6406762E-05  0.0000000E+00  0.2449992E-03
  0.1816326E+01  0.0000000E+00  0.1020408E+00 -0.5196770E-05  0.0000000E+00  0.2407931E-03
  0.1857143E+01  0.0000000E+00  0.1020408E+00 -0.4013912E-05  0.0000000E+00  0.2374544E-03
  0.1897959E+01  0.0000000E+00  0.1020408E+00 -0.2852109E-05  0.0000000E+00  0.2349657E-03
  0.1938776E+01  0.0000000E+00  0.1020408E+00 -0.1705310E-05  0.0000000E+00  0.2333138E-03
  0.1989796E+01  0.0000000E+00  0.1020408E+00 -0.5675043E-06  0.0000000E+00  0.2324900E-03
  0.2040816E-01  0.0000000E+00  0.1428571E+00  0.4930948E-06  0.0000000E+00  0.8513172E-03
  0.6122449E-01  0.0000000E+00  0.1428571E+00  0.1388652E-05  0.0000000E+00  0.8519752E-03
  0.1020408E+00  0.0000000E+00  0.1428571E+00  0.2015459E-05  0.0000000E+00  0.8531884E-03
  0.1428571E+00  0.0000000E+00  0.1428571E+00  0.2209477E-05  0.0000000E+00  0.8547557E-03
  0.1836735E+00  0.0000000E+00  0.1428571E+00  0.1829929E-05  0.0000000E+00  0.8563878E-03
  0.2244898E+00  0.0000000E+00  0.1428571E+00  0.7678580E-06  0.0000000E+00  0.8577222E-03
  0.2653061E+00  0.0000000E+00  0.1428571E+00 -0.1045752E-05  0.0000000E+00  0.8583437E-03
  0.3061225E+00  0.0000000E+00  0.1428571E+00 -0.3633439E-05  0.0000000E+00  0.8578083E-03
  0.3469388E+00  0.0000000E+00  0.1428571E+00 -0.6967306E-05  0.0000000E+00  0.8556719E-03
  0.3877551E+00  0.0000000E+00  0.1428571E+00 -0.1096855E-04  0.0000000E+00  0.8515201E-03
  0.4285714E+00  0.0000000E+00  0.1428571E+00 -0.1551124E-04  0.0000000E+00  0.8449978E-03
  0.4693878E+00  0.0000000E+00  0.1428571E+00 -0.2043060E-04  0.0000000E+00  0.8358352E-03
  0.5102041E+00  0.0000000E+00  0.1428571E+00 -0.2553523E-04  0.0000000E+00  0.8238682E-03
  0.5510204E+00  0.0000000E+00  0.1428571E+00 -0.3062211E-04  0.0000000E+00  0.8090493E-03
  0.5918368E+00  0.0000000E+00  0.1428571E+00 -0.3549249E-04  0.0000000E+00  0.7914499E-03
  0.6326531E+00  0.0000000E+00  0.1428571E+00 -0.3996664E-04  0.0000000E+00  0.7712523E-03
  0.6734694E+00  0.0000000E+00  0.1428571E+00 -0.4389576E-04  0.0000000E+00  0.7487340E-03
  0.7142857E+00  0.0000000E+00  0.1428571E+00 -0.4716967E-04  0.0000000E+00  0.7242450E-03
  0.7551020E+00  0.0000000E+00  0.1428571E+00 -0.4972011E-04  0.0000000E+00  0.6981839E-03
  0.7959183E+00  0.0000000E+00  0.1428571E+00 -0.5151971E-04  0.0000000E+00  0.6709719E-03
  0.8367347E+00  0.0000000E+00  0.1428571E+00 -0.5257771E-04  0.0000000E+00  0.6430306E-03
  0.8775510E+00  0.0000000E+00  0.1428571E+00 -0.5293341E-04  0.0000000E+00  0.6147630E-03
  0.9183673E+00  0.0000000E+00  0.1428571E+00 -0.5264863E-04  0.0000000E+00  0.5865385E-03
  0.9591837E+00  0.0000000E+00  0.1428571E+00 -0.5180007E-04  0.0000000E+00  0.5586840E-03
  0.1000000E+01  0.0000000E+00  0.1428571E+00 -0.5047233E-04  0.0000000E+00  0.5314779E-03
  0.1040816E+01  0.0000000E+00  0.1428571E+00 -0.4875206E-04  0.0000000E+00  0.5051491E-03
  0.1081633E+01  0.0000000E+00  0.1428571E+00 -0.4672333E-04  0.0000000E+00  0.4798779E-03
  0.1122449E+01  0.0000000E+00  0.1428571E+00 -0.4446437E-04  0.0000000E+00  0.4557995E-03
  0.1163265E+01  0.0000000E+00  0.1428571E+00 -0.4204542E-04  0.0000000E+00  0.4330085E-03
  0.1204082E+01  0.0000000E+00  0.1428571E+00 -0.3952751E-04  0.0000000E+00  0.4115642E-03
  0.1244898E+01  0.0000000E+00  0.1428571E+00 -0.3696214E-04  0.0000000E+00  0.3914961E-03
  0.1285714E+01  0.0000000E+00  0.1428571E+00 -0.3439131E-04  0.0000000E+00  0.3728097E-03
  0.1326531E+01  0.0000000E+00  0.1428571E+00 -0.3184813E-04  0.0000000E+00  0.3554910E-03
  0.1367347E+01  0.0000000E+00  0.1428571E+00 -0.2935754E-04  0.0000000E+00  0.3395119E-03
  0.1408163E+01  0.0000000E+00  0.1428571E+00 -0.2693720E-04  0.0000000E+00  0.3248337E-03
  0.1448980E+01  0.0000000E+00  0.1428571E+00 -0.2459854E-04  0.0000000E+00  0.3114111E-03
  0.1489796E+01  0.0000000E+00  0.1428571E+00 -0.2234768E-04  0.0000000E+00  0.2991952E-03
  0.1530612E+01  0.0000000E+00  0.1428571E+00 -0.2018646E-04  0.0000000E+00  0.2881357E-03
  0.1571429E+01  0.0000000E+00  0.1428571E+00 -0.1811334E-04  0.0000000E+00  0.2781833E-03
  0.1612245E+01  0.0000000E+00  0.1428571E+00 -0.1612421E-04  0.0000000E+00  0.2692907E-03
  0.1653061E+01  0.0000000E+00  0.1428571E+00 -0.1421315E-04  0.0000000E+00  0.2614139E-03
  0.1693878E+01  0.0000000E+00  0.1428571E+00 -0.1237304E-04  0.0000000E+00  0.2545128E-03
  0.1734694E+01  0.0000000E+00  0.1428571E+00 -0.1059596E-04  0.0000000E+00  0.2485518E-03
  0.1775510E+01  0.0000000E+00  0.1428571E+00 -0.8873619E-05  0.0000000E+00  0.2434996E-03
  0.1816326E+01  0.0000000E+00  0.1428571E+00 -0.7197529E-05  0.0000000E+00  0.2393296E-03
  0.1857143E+01  0.0000000E+00  0.1428571E+00 -0.5559168E-05  0.0000000E+00  0.2360198E-03
  0.1897959E+01  0.0000000E+00  0.1428571E+00 -0.3950050E-05  0.0000000E+00  0.2335527E-03
  0.1938776E+01  0.0000000E+00  0.1428571E+00 -0.2361757E-05  0.0000000E+00  0.2319152E-03
  0.1989796E+01  0.0000000E+00  0.1428571E+00 -0.7859328E-06  0.0000000E+00  0.2310986E-03
  0.2040816E-01  0.0000000E+00  0.1836735E+00  0.7318710E-06  0.0000000E+00  0.8501904E-03
  0.6122449E-01  0.0000000E+00  0.1836735E+00  0.2075959E-05  0.0000000E+00  0.8510564E-03
  0.1020408E+00  0.0000000E+00  0.1836735E+00  0.3065323E-05  0.0000000E+00  0.8526751E-03
  0.1428571E+00  0.0000000E+00  0.1836735E+00  0.3482612E-05  0.0000000E+00  0.8548242E-03
  0.1836735E+00  0.0000000E+00  0.1836735E+00  0.3140114E-05  0.0000000E+00  0.8571832E-03
  0.2244898E+00  0.0000000E+00  0.1836735E+00  0.1891146E-05  0.0000000E+00  0.8593483E-03
  0.2653061E+00  0.0000000E+00  0.1836735E+00 -0.3588141E-06  0.0000000E+00  0.8608542E-03
  0.3061225E+00  0.0000000E+00  0.1836735E+00 -0.3642787E-05  0.0000000E+00  0.8612009E-03
  0.3469388E+00  0.0000000E+00  0.1836735E+00 -0.7926132E-05  0.0000000E+00  0.8598851E-03
  0.3877551E+00  0.0000000E+00  0.1836735E+00 -0.1310513E-04  0.0000000E+00  0.8564352E-03
  0.4285714E+00  0.0000000E+00  0.1836735E+00 -0.1901149E-04  0.0000000E+00  0.8504458E-03
  0.4693878E+00  0.0000000E+00  0.1836735E+00 -0.2542335E-04  0.0000000E+00  0.8416086E-03
  0.5102041E+00  0.0000000E+00  0.1836735E+00 -0.3208217E-04  0.0000000E+00  0.8297371E-03
  0.5510204E+00  0.0000000E+00  0.1836735E+00 -0.3871370E-04  0.0000000E+00  0.8147796E-03
  0.5918368E+00  0.0000000E+00  0.1836735E+00 -0.4505041E-04  0.0000000E+00  0.7968216E-03
  0.6326531E+00  0.0000000E+00  0.1836735E+00 -0.5085212E-04  0.0000000E+00  0.7760751E-03
  0.6734694E+00  0.0000000E+00  0.1836735E+00 -0.5592240E-04  0.0000000E+00  0.7528585E-03
  0.7142857E+00  0.0000000E+00  0.1836735E+00 -0.6011880E-04  0.0000000E+00  0.7275694E-03
  0.7551020E+00  0.0000000E+00  0.1836735E+00 -0.6335659E-04  0.0000000E+00  0.7006546E-03
  0.7959183E+00  0.0000000E+00  0.1836735E+00 -0.6560647E-04  0.0000000E+00  0.6725806E-03
  0.8367347E+00  0.0000000E+00  0.1836735E+00 -0.6688787E-04  0.0000000E+00  0.6438075E-03
  0.8775510E+00  0.0000000E+00  0.1836735E+00 -0.6725930E-04  0.0000000E+00  0.6147683E-03
  0.9183673E+00  0.0000000E+00  0.1836735E+00 -0.6680772E-04  0.0000000E+00  0.5858538E-03
  0.9591837E+00  0.0000000E+00  0.1836735E+00 -0.6563803E-04  0.0000000E+00  0.5574032E-03
  0.1000000E+01  0.0000000E+00  0.1836735E+00 -0.6386375E-04  0.0000000E+00  0.5297004E-03
  0.1040816E+01  0.0000000E+00  0.1836735E+00 -0.6159941E-04  0.0000000E+00  0.5029734E-03
  0.1081633E+01  0.0000000E+00  0.1836735E+00 -0.5895476E-04  0.0000000E+00  0.4773973E-03
  0.1122449E+01  0.0000000E+00  0.1836735E+00 -0.5603075E-04  0.0000000E+00  0.4530990E-03
  0.1163265E+01  0.0000000E+00  0.1836735E+00 -0.5291711E-04  0.0000000E+00  0.4301630E-03
  0.1204082E+01  0.0000000E+00  0.1836735E+00 -0.4969108E-04  0.0000000E+00  0.4086377E-03
  0.1244898E+01  0.0000000E+00  0.1836735E+00 -0.4641717E-04  0.0000000E+00  0.3885416E-03
  0.1285714E+01  0.0000000E+00  0.1836735E+00 -0.4314755E-04  0.0000000E+00  0.3698697E-03
  0.1326531E+01  0.0000000E+00  0.1836735E+00 -0.3992284E-04  0.0000000E+00  0.3525982E-03
  0.1367347E+01  0.0000000E+00  0.1836735E+00 -0.3677323E-04  0.0000000E+00  0.3366902E-03
  0.1408163E+01  0.0000000E+00  0.1836735E+00 -0.3371971E-04  0.0000000E+00  0.3220992E-03
  0.1448980E+01  0.0000000E+00  0.1836735E+00 -0.3077538E-04  0.0000000E+00  0.3087736E-03
  0.1489796E+01  0.0000000E+00  0.1836735E+00 -0.2794673E-04  0.0000000E+00  0.2966588E-03
  0.1530612E+01  0.0000000E+00  0.1836735E+00 -0.2523490E-04  0.0000000E+00  0.2857004E-03
  0.1571429E+01  0.0000000E+00  0.1836735E+00 -0.2263691E-04  0.0000000E+00  0.2758455E-03
  0.1612245E+01  0.0000000E+00  0.1836735E+00 -0.2014671E-04  0.0000000E+00  0.2670446E-03
  0.1653061E+01  0.0000000E+00  0.1836735E+00 -0.1775613E-04  0.0000000E+00  0.2592520E-03
  0.1693878E+01  0.0000000E+00  0.1836735E+00 -0.1545560E-04  0.0000000E+00  0.2524265E-03
  0.1734694E+01  0.0000000E+00  0.1836735E+00 -0.1323478E-04  0.0000000E+00  0.2465319E-03
  0.1775510E+01  0.0000000E+00  0.1836735E+00 -0.1108294E-04  0.0000000E+00  0.2415365E-03
  0.1816326E+01  0.0000000E+00  0.1836735E+00 -0.8989243E-05  0.0000000E+00  0.2374138E-03
  0.1857143E+01  0.0000000E+00  0.1836735E+00 -0.6942888E-05  0.0000000E+00  0.2341416E-03
  0.1897959E+01  0.0000000E+00  0.1836735E+00 -0.4933180E-05  0.0000000E+00  0.2317026E-03
  0.1938776E+01  0.0000000E+00  0.1836735E+00 -0.2949545E-05  0.0000000E+00  0.2300838E-03
  0.1989796E+01  0.0000000E+00  0.1836735E+00 -0.9815103E-06  0.0000000E+00  0.2292765E-03
  0.2040816E-01  0.0000000E+00  0.2244898E+00  0.1044657E-05  0.0000000E+00  0.8485434E-03
  0.6122449E-01  0.0000000E+00  0.2244898E+00  0.2983159E-05  0.0000000E+00  0.8496767E-03
  0.1020408E+00  0.0000000E+00  0.2244898E+00  0.4474392E-05  0.0000000E+00  0.8518171E-03
  0.1428571E+00  0.0000000E+00  0.2244898E+00  0.5242837E-05  0.0000000E+00  0.8547165E-03
  0.1836735E+00  0.0000000E+00  0.2244898E+00  0.5048507E-05  0.0000000E+00  0.8580152E-03
  0.2244898E+00  0.0000000E+00  0.2244898E+00  0.3701412E-05  0.0000000E+00  0.8612575E-03
  0.2653061E+00  0.0000000E+00  0.2244898E+00  0.1076296E-05  0.0000000E+00  0.8639141E-03
  0.3061225E+00  0.0000000E+00  0.2244898E+00 -0.2874337E-05  0.0000000E+00  0.8654121E-03
  0.3469388E+00  0.0000000E+00  0.2244898E+00 -0.8110837E-05  0.0000000E+00  0.8651702E-03
  0.3877551E+00  0.0000000E+00  0.2244898E+00 -0.1450312E-04  0.0000000E+00  0.8626406E-03
  0.4285714E+00  0.0000000E+00  0.2244898E+00 -0.2183541E-04  0.0000000E+00  0.8573497E-03
  0.4693878E+00  0.0000000E+00  0.2244898E+00 -0.2982023E-04  0.0000000E+00  0.8489376E-03
  0.5102041E+00  0.0000000E+00  0.2244898E+00 -0.3812095E-04  0.0000000E+00  0.8371876E-03
  0.5510204E+00  0.0000000E+00  0.2244898E+00 -0.4638037E-04  0.0000000E+00  0.8220432E-03
  0.5918368E+00  0.0000000E+00  0.2244898E+00 -0.5425155E-04  0.0000000E+00  0.8036100E-03
  0.6326531E+00  0.0000000E+00  0.2244898E+00 -0.6142602E-04  0.0000000E+00  0.7821415E-03
  0.6734694E+00  0.0000000E+00  0.2244898E+00 -0.6765558E-04  0.0000000E+00  0.7580126E-03
  0.7142857E+00  0.0000000E+00  0.2244898E+00 -0.7276529E-04  0.0000000E+00  0.7316856E-03
  0.7551020E+00  0.0000000E+00  0.2244898E+00 -0.7665706E-04  0.0000000E+00  0.7036720E-03
  0.7959183E+00  0.0000000E+00  0.2244898E+00 -0.7930517E-04  0.0000000E+00  0.6744973E-03
  0.8367347E+00  0.0000000E+00  0.2244898E+00 -0.8074590E-04  0.0000000E+00  0.6446712E-03
  0.8775510E+00  0.0000000E+00  0.2244898E+00 -0.8106381E-04  0.0000000E+00  0.6146641E-03
  0.9183673E+00  0.0000000E+00  0.2244898E+00 -0.8037713E-04  0.0000000E+00  0.5848920E-03
  0.9591837E+00  0.0000000E+00  0.2244898E+00 -0.7882391E-04  0.0000000E+00  0.5557083E-03
  0.1000000E+01  0.0000000E+00  0.2244898E+00 -0.7655019E-04  0.0000000E+00  0.5274013E-03
  0.1040816E+01  0.0000000E+00  0.2244898E+00 -0.7370058E-04  0.0000000E+00  0.5001961E-03
  0.1081633E+01  0.0000000E+00  0.2244898E+00 -0.7041152E-04  0.0000000E+00  0.4742595E-03
  0.1122449E+01  0.0000000E+00  0.2244898E+00 -0.6680675E-04  0.0000000E+00  0.4497066E-03
  0.1163265E+01  0.0000000E+00  0.2244898E+00 -0.6299483E-04  0.0000000E+00  0.4266084E-03
  0.1204082E+01  0.0000000E+00  0.2244898E+00 -0.5906808E-04  0.0000000E+00  0.4049989E-03
  0.1244898E+01  0.0000000E+00  0.2244898E+00 -0.5510268E-04  0.0000000E+00  0.3848828E-03
  0.1285714E+01  0.0000000E+00  0.2244898E+00 -0.5115945E-04  0.0000000E+00  0.3662413E-03
  0.1326531E+01  0.0000000E+00  0.2244898E+00 -0.4728509E-04  0.0000000E+00  0.3490388E-03
  0.1367347E+01  0.0000000E+00  0.2244898E+00 -0.4351366E-04  0.0000000E+00  0.3332273E-03
  0.1408163E+01  0.0000000E+00  0.2244898E+00 -0.3986819E-04  0.0000000E+00  0.3187511E-03
  0.1448980E+01  0.0000000E+00  0.2244898E+00 -0.3636229E-04  0.0000000E+00  0.3055504E-03
  0.1489796E+01  0.0000000E+00  0.2244898E+00 -0.3300179E-04  0.0000000E+00  0.2935642E-03
  0.1530612E+01  0.0000000E+00  0.2244898E+00 -0.2978631E-04  0.0000000E+00  0.2827329E-03
  0.1571429E+01  0.0000000E+00  0.2244898E+00 -0.2671069E-04  0.0000000E+00  0.2729999E-03
  0.1612245E+01  0.0000000E+00  0.2244898E+00 -0.2376639E-04  0.0000000E+00  0.2643127E-03
  0.1653061E+01  0.0000000E+00  0.2244898E+00 -0.2094253E-04  0.0000000E+00  0.2566237E-03
  0.1693878E+01  0.0000000E+00  0.2244898E+00 -0.1822690E-04  0.0000000E+00  0.2498909E-03
  0.1734694E+01  0.0000000E+00  0.2244898E+00 -0.1560658E-04  0.0000000E+00  0.2440772E-03
  0.1775510E+01  0.0000000E+00  0.2244898E+00 -0.1306841E-04  0.0000000E+00  0.2391509E-03
  0.1816326E+01  0.0000000E+00  0.2244898E+00 -0.1059928E-04  0.0000000E+00  0.2350855E-03
  0.1857143E+01  0.0000000E+00  0.2244898E+00 -0.8186235E-05  0.0000000E+00  0.2318589E-03
  0.1897959E+01  0.0000000E+00  0.2244898E+00 -0.5816548E-05  0.0000000E+00  0.2294539E-03
  0.1938776E+01  0.0000000E+00  0.2244898E+00 -0.3477678E-05  0.0000000E+00  0.2278577E-03
  0.1989796E+01  0.0000000E+00  0.2244898E+00 -0.1157236E-05  0.0000000E+00  0.2270617E-03
  0.2040816E-01  0.0000000E+00  0.2653061E+00  0.1451300E-05  0.0000000E+00  0.8462115E-03
  0.6122449E-01  0.0000000E+00  0.2653061E+00  0.4168984E-05  0.0000000E+00  0.8476767E-03
  0.1020408E+00  0.0000000E+00  0.2653061E+00  0.6337751E-05  0.0000000E+00  0.8504659E-03
  0.1428571E+00  0.0000000E+00  0.2653061E+00  0.7617072E-05  0.0000000E+00  0.8543012E-03
  0.1836735E+00  0.0000000E+00  0.2653061E+00  0.7706994E-05  0.0000000E+00  0.8587764E-03
  0.2244898E+00  0.0000000E+00  0.2653061E+00  0.6365993E-05  0.0000000E+00  0.8633729E-03
  0.2653061E+00  0.0000000E+00  0.2653061E+00  0.3430145E-05  0.0000000E+00  0.8674828E-03
  0.3061225E+00  0.0000000E+00  0.2653061E+00 -0.1168823E-05  0.0000000E+00  0.8704409E-03
  0.3469388E+00  0.0000000E+00  0.2653061E+00 -0.7389348E-05  0.0000000E+00  0.8715663E-03
  0.3877551E+00  0.0000000E+00  0.2653061E+00 -0.1507331E-04  0.0000000E+00  0.8702110E-03
  0.4285714E+00  0.0000000E+00  0.2653061E+00 -0.2395018E-04  0.0000000E+00  0.8658121E-03
  0.4693878E+00  0.0000000E+00  0.2653061E+00 -0.3365414E-04  0.0000000E+00  0.8579404E-03
  0.5102041E+00  0.0000000E+00  0.2653061E+00 -0.4375382E-04  0.0000000E+00  0.8463396E-03
  0.5510204E+00  0.0000000E+00  0.2653061E+00 -0.5379119E-04  0.0000000E+00  0.8309477E-03
  0.5918368E+00  0.0000000E+00  0.2653061E+00 -0.6332367E-04  0.0000000E+00  0.8118989E-03
  0.6326531E+00  0.0000000E+00  0.2653061E+00 -0.7196249E-04  0.0000000E+00  0.7895040E-03
  0.6734694E+00  0.0000000E+00  0.2653061E+00 -0.7940147E-04  0.0000000E+00  0.7642150E-03
  0.7142857E+00  0.0000000E+00  0.2653061E+00 -0.8543282E-04  0.0000000E+00  0.7365799E-03
  0.7551020E+00  0.0000000E+00  0.2653061E+00 -0.8994970E-04  0.0000000E+00  0.7071946E-03
  0.7959183E+00  0.0000000E+00  0.2653061E+00 -0.9293791E-04  0.0000000E+00  0.6766604E-03
  0.8367347E+00  0.0000000E+00  0.2653061E+00 -0.9446006E-04  0.0000000E+00  0.6455476E-03
  0.8775510E+00  0.0000000E+00  0.2653061E+00 -0.9463628E-04  0.0000000E+00  0.6143714E-03
  0.9183673E+00  0.0000000E+00  0.2653061E+00 -0.9362452E-04  0.0000000E+00  0.5835762E-03
  0.9591837E+00  0.0000000E+00  0.2653061E+00 -0.9160274E-04  0.0000000E+00  0.5535292E-03
  0.1000000E+01  0.0000000E+00  0.2653061E+00 -0.8875431E-04  0.0000000E+00  0.5245208E-03
  0.1040816E+01  0.0000000E+00  0.2653061E+00 -0.8525697E-04  0.0000000E+00  0.4967696E-03
  0.1081633E+01  0.0000000E+00  0.2653061E+00 -0.8127527E-04  0.0000000E+00  0.4704299E-03
  0.1122449E+01  0.0000000E+00  0.2653061E+00 -0.7695599E-04  0.0000000E+00  0.4456007E-03
  0.1163265E+01  0.0000000E+00  0.2653061E+00 -0.7242587E-04  0.0000000E+00  0.4223352E-03
  0.1204082E+01  0.0000000E+00  0.2653061E+00 -0.6779112E-04  0.0000000E+00  0.4006493E-03
  0.1244898E+01  0.0000000E+00  0.2653061E+00 -0.6313810E-04  0.0000000E+00  0.3805303E-03
  0.1285714E+01  0.0000000E+00  0.2653061E+00 -0.5853469E-04  0.0000000E+00  0.3619432E-03
  0.1326531E+01  0.0000000E+00  0.2653061E+00 -0.5403206E-04  0.0000000E+00  0.3448379E-03