title = "dataset feddes"
variables = "x", "y", "z", "vx", "vy", "vz"
zone t = "velocities, solution time =  3.400E+01 days        " i =   49, j =   49, k =    1,  f=point
  0.2040816E-01  0.0000000E+00  0.2040816E-01  0.3827033E-07  0.0000000E+00  0.8787895E-03
  0.6122449E-01  0.0000000E+00  0.2040816E-01  0.1062134E-06  0.0000000E+00  0.8790996E-03
  0.1020408E+00  0.0000000E+00  0.2040816E-01  0.1484947E-06  0.0000000E+00  0.8796463E-03
  0.1428571E+00  0.0000000E+00  0.2040816E-01  0.1495341E-06  0.0000000E+00  0.8802859E-03
  0.1836735E+00  0.0000000E+00  0.2040816E-01  0.9606719E-07  0.0000000E+00  0.8808131E-03
  0.2244898E+00  0.0000000E+00  0.2040816E-01 -0.2204656E-07  0.0000000E+00  0.8809720E-03
  0.2653061E+00  0.0000000E+00  0.2040816E-01 -0.2110851E-06  0.0000000E+00  0.8804716E-03
  0.3061225E+00  0.0000000E+00  0.2040816E-01 -0.4729105E-06  0.0000000E+00  0.8790035E-03
  0.3469388E+00  0.0000000E+00  0.2040816E-01 -0.8046762E-06  0.0000000E+00  0.8762614E-03
  0.3877551E+00  0.0000000E+00  0.2040816E-01 -0.1198844E-05  0.0000000E+00  0.8719611E-03
  0.4285714E+00  0.0000000E+00  0.2040816E-01 -0.1643589E-05  0.0000000E+00  0.8658604E-03
  0.4693878E+00  0.0000000E+00  0.2040816E-01 -0.2123582E-05  0.0000000E+00  0.8577749E-03
  0.5102041E+00  0.0000000E+00  0.2040816E-01 -0.2621081E-05  0.0000000E+00  0.8475914E-03
  0.5510204E+00  0.0000000E+00  0.2040816E-01 -0.3117261E-05  0.0000000E+00  0.8352754E-03
  0.5918368E+00  0.0000000E+00  0.2040816E-01 -0.3593597E-05  0.0000000E+00  0.8208722E-03
  0.6326531E+00  0.0000000E+00  0.2040816E-01 -0.4033175E-05  0.0000000E+00  0.8045034E-03
  0.6734694E+00  0.0000000E+00  0.2040816E-01 -0.4421752E-05  0.0000000E+00  0.7863574E-03
  0.7142857E+00  0.0000000E+00  0.2040816E-01 -0.4748503E-05  0.0000000E+00  0.7666765E-03
  0.7551020E+00  0.0000000E+00  0.2040816E-01 -0.5006365E-05  0.0000000E+00  0.7457412E-03
  0.7959183E+00  0.0000000E+00  0.2040816E-01 -0.5192044E-05  0.0000000E+00  0.7238543E-03
  0.8367347E+00  0.0000000E+00  0.2040816E-01 -0.5305692E-05  0.0000000E+00  0.7013254E-03
  0.8775510E+00  0.0000000E+00  0.2040816E-01 -0.5350385E-05  0.0000000E+00  0.6784570E-03
  0.9183673E+00  0.0000000E+00  0.2040816E-01 -0.5331472E-05  0.0000000E+00  0.6555337E-03
  0.9591837E+00  0.0000000E+00  0.2040816E-01 -0.5255887E-05  0.0000000E+00  0.6328135E-03
  0.1000000E+01  0.0000000E+00  0.2040816E-01 -0.5131501E-05  0.0000000E+00  0.6105228E-03
  0.1040816E+01  0.0000000E+00  0.2040816E-01 -0.4966549E-05  0.0000000E+00  0.5888533E-03
  0.1081633E+01  0.0000000E+00  0.2040816E-01 -0.4769171E-05  0.0000000E+00  0.5679617E-03
  0.1122449E+01  0.0000000E+00  0.2040816E-01 -0.4547058E-05  0.0000000E+00  0.5479705E-03
  0.1163265E+01  0.0000000E+00  0.2040816E-01 -0.4307220E-05  0.0000000E+00  0.5289708E-03
  0.1204082E+01  0.0000000E+00  0.2040816E-01 -0.4055831E-05  0.0000000E+00  0.5110255E-03
  0.1244898E+01  0.0000000E+00  0.2040816E-01 -0.3798168E-05  0.0000000E+00  0.4941726E-03
  0.1285714E+01  0.0000000E+00  0.2040816E-01 -0.3538603E-05  0.0000000E+00  0.4784298E-03
  0.1326531E+01  0.0000000E+00  0.2040816E-01 -0.3280635E-05  0.0000000E+00  0.4637976E-03
  0.1367347E+01  0.0000000E+00  0.2040816E-01 -0.3026956E-05  0.0000000E+00  0.4502635E-03
  0.1408163E+01  0.0000000E+00  0.2040816E-01 -0.2779531E-05  0.0000000E+00  0.4378046E-03
  0.1448980E+01  0.0000000E+00  0.2040816E-01 -0.2539695E-05  0.0000000E+00  0.4263913E-03
  0.1489796E+01  0.0000000E+00  0.2040816E-01 -0.2308239E-05  0.0000000E+00  0.4159894E-03
  0.1530612E+01  0.0000000E+00  0.2040816E-01 -0.2085514E-05  0.0000000E+00  0.4065620E-03
  0.1571429E+01  0.0000000E+00  0.2040816E-01 -0.1871507E-05  0.0000000E+00  0.3980717E-03
  0.1612245E+01  0.0000000E+00  0.2040816E-01 -0.1665930E-05  0.0000000E+00  0.3904817E-03
  0.1653061E+01  0.0000000E+00  0.2040816E-01 -0.1468287E-05  0.0000000E+00  0.3837570E-03
  0.1693878E+01  0.0000000E+00  0.2040816E-01 -0.1277932E-05  0.0000000E+00  0.3778647E-03
  0.1734694E+01  0.0000000E+00  0.2040816E-01 -0.1094117E-05  0.0000000E+00  0.3727753E-03
  0.1775510E+01  0.0000000E+00  0.2040816E-01 -0.9160280E-06  0.0000000E+00  0.3684624E-03
  0.1816326E+01  0.0000000E+00  0.2040816E-01 -0.7428115E-06  0.0000000E+00  0.3649032E-03
  0.1857143E+01  0.0000000E+00  0.2040816E-01 -0.5735927E-06  0.0000000E+00  0.3620788E-03
  0.1897959E+01  0.0000000E+00  0.2040816E-01 -0.4074865E-06  0.0000000E+00  0.3599738E-03
  0.1938776E+01  0.0000000E+00  0.2040816E-01 -0.2436041E-06  0.0000000E+00  0.3585768E-03
  0.1989796E+01  0.0000000E+00  0.2040816E-01 -0.8105679E-07  0.0000000E+00  0.3578803E-03
  0.2040816E-01  0.0000000E+00  0.6122449E-01  0.1344329E-06  0.0000000E+00  0.8786405E-03
  0.6122449E-01  0.0000000E+00  0.6122449E-01  0.3741417E-06  0.0000000E+00  0.8789850E-03
  0.1020408E+00  0.0000000E+00  0.6122449E-01  0.5270502E-06  0.0000000E+00  0.8795986E-03
  0.1428571E+00  0.0000000E+00  0.6122449E-01  0.5403994E-06  0.0000000E+00  0.8803341E-03
  0.1836735E+00  0.0000000E+00  0.6122449E-01  0.3692259E-06  0.0000000E+00  0.8809804E-03
  0.2244898E+00  0.0000000E+00  0.6122449E-01 -0.2090907E-07  0.0000000E+00  0.8812748E-03
  0.2653061E+00  0.0000000E+00  0.6122449E-01 -0.6514075E-06  0.0000000E+00  0.8809181E-03
  0.3061225E+00  0.0000000E+00  0.6122449E-01 -0.1528713E-05  0.0000000E+00  0.8795927E-03
  0.3469388E+00  0.0000000E+00  0.6122449E-01 -0.2643288E-05  0.0000000E+00  0.8769829E-03
  0.3877551E+00  0.0000000E+00  0.6122449E-01 -0.3969640E-05  0.0000000E+00  0.8727957E-03
  0.4285714E+00  0.0000000E+00  0.6122449E-01 -0.5467670E-05  0.0000000E+00  0.8667807E-03
  0.4693878E+00  0.0000000E+00  0.6122449E-01 -0.7085309E-05  0.0000000E+00  0.8587478E-03
  0.5102041E+00  0.0000000E+00  0.6122449E-01 -0.8762278E-05  0.0000000E+00  0.8485805E-03
  0.5510204E+00  0.0000000E+00  0.6122449E-01 -0.1043461E-04  0.0000000E+00  0.8362432E-03
  0.5918368E+00  0.0000000E+00  0.6122449E-01 -0.1203942E-04  0.0000000E+00  0.8217833E-03
  0.6326531E+00  0.0000000E+00  0.6122449E-01 -0.1351937E-04  0.0000000E+00  0.8053266E-03
  0.6734694E+00  0.0000000E+00  0.6122449E-01 -0.1482630E-04  0.0000000E+00  0.7870677E-03
  0.7142857E+00  0.0000000E+00  0.6122449E-01 -0.1592376E-04  0.0000000E+00  0.7672559E-03
  0.7551020E+00  0.0000000E+00  0.6122449E-01 -0.1678815E-04  0.0000000E+00  0.7461794E-03
  0.7959183E+00  0.0000000E+00  0.6122449E-01 -0.1740869E-04  0.0000000E+00  0.7241481E-03
  0.8367347E+00  0.0000000E+00  0.6122449E-01 -0.1778627E-04  0.0000000E+00  0.7014781E-03
  0.8775510E+00  0.0000000E+00  0.6122449E-01 -0.1793168E-04  0.0000000E+00  0.6784770E-03
  0.9183673E+00  0.0000000E+00  0.6122449E-01 -0.1786329E-04  0.0000000E+00  0.6554332E-03
  0.9591837E+00  0.0000000E+00  0.6122449E-01 -0.1760477E-04  0.0000000E+00  0.6326074E-03
  0.1000000E+01  0.0000000E+00  0.6122449E-01 -0.1718285E-04  0.0000000E+00  0.6102272E-03
  0.1040816E+01  0.0000000E+00  0.6122449E-01 -0.1662540E-04  0.0000000E+00  0.5884846E-03
  0.1081633E+01  0.0000000E+00  0.6122449E-01 -0.1595990E-04  0.0000000E+00  0.5675357E-03
  0.1122449E+01  0.0000000E+00  0.6122449E-01 -0.1521224E-04  0.0000000E+00  0.5475019E-03
  0.1163265E+01  0.0000000E+00  0.6122449E-01 -0.1440594E-04  0.0000000E+00  0.5284728E-03
  0.1204082E+01  0.0000000E+00  0.6122449E-01 -0.1356171E-04  0.0000000E+00  0.5105095E-03
  0.1244898E+01  0.0000000E+00  0.6122449E-01 -0.1269718E-04  0.0000000E+00  0.4936484E-03
  0.1285714E+01  0.0000000E+00  0.6122449E-01 -0.1182695E-04  0.0000000E+00  0.4779052E-03
  0.1326531E+01  0.0000000E+00  0.6122449E-01 -0.1096265E-04  0.0000000E+00  0.4632788E-03
  0.1367347E+01  0.0000000E+00  0.6122449E-01 -0.1011323E-04  0.0000000E+00  0.4497550E-03
  0.1408163E+01  0.0000000E+00  0.6122449E-01 -0.9285192E-05  0.0000000E+00  0.4373099E-03
  0.1448980E+01  0.0000000E+00  0.6122449E-01 -0.8482920E-05  0.0000000E+00  0.4259125E-03
  0.1489796E+01  0.0000000E+00  0.6122449E-01 -0.7708997E-05  0.0000000E+00  0.4155276E-03
  0.1530612E+01  0.0000000E+00  0.6122449E-01 -0.6964521E-05  0.0000000E+00  0.4061176E-03
  0.1571429E+01  0.0000000E+00  0.6122449E-01 -0.6249396E-05  0.0000000E+00  0.3976444E-03
  0.1612245E+01  0.0000000E+00  0.6122449E-01 -0.5562606E-05  0.0000000E+00  0.3900708E-03
  0.1653061E+01  0.0000000E+00  0.6122449E-01 -0.4902448E-05  0.0000000E+00  0.3833612E-03
  0.1693878E+01  0.0000000E+00  0.6122449E-01 -0.4266726E-05  0.0000000E+00  0.3774827E-03
  0.1734694E+01  0.0000000E+00  0.6122449E-01 -0.3652913E-05  0.0000000E+00  0.3724055E-03
  0.1775510E+01  0.0000000E+00  0.6122449E-01 -0.3058270E-05  0.0000000E+00  0.3681031E-03
  0.1816326E+01  0.0000000E+00  0.6122449E-01 -0.2479931E-05  0.0000000E+00  0.3645528E-03
  0.1857143E+01  0.0000000E+00  0.6122449E-01 -0.1914962E-05  0.0000000E+00  0.3617354E-03
  0.1897959E+01  0.0000000E+00  0.6122449E-01 -0.1360400E-05  0.0000000E+00  0.3596358E-03
  0.1938776E+01  0.0000000E+00  0.6122449E-01 -0.8132726E-06  0.0000000E+00  0.3582424E-03
  0.1989796E+01  0.0000000E+00  0.6122449E-01 -0.2706058E-06  0.0000000E+00  0.3575476E-03
  0.2040816E-01  0.0000000E+00  0.1020408E+00  0.2604760E-06  0.0000000E+00  0.8782584E-03
  0.6122449E-01  0.0000000E+00  0.1020408E+00  0.7286550E-06  0.0000000E+00  0.8786849E-03
  0.1020408E+00  0.0000000E+00  0.1020408E+00  0.1040129E-05  0.0000000E+00  0.8794580E-03
  0.1428571E+00  0.0000000E+00  0.1020408E+00  0.1099480E-05  0.0000000E+00  0.8804218E-03
  0.1836735E+00  0.0000000E+00  0.1020408E+00  0.8251849E-06  0.0000000E+00  0.8813524E-03
  0.2244898E+00  0.0000000E+00  0.1020408E+00  0.1545545E-06  0.0000000E+00  0.8819706E-03
  0.2653061E+00  0.0000000E+00  0.1020408E+00 -0.9516601E-06  0.0000000E+00  0.8819574E-03
  0.3061225E+00  0.0000000E+00  0.1020408E+00 -0.2505652E-05  0.0000000E+00  0.8809733E-03
  0.3469388E+00  0.0000000E+00  0.1020408E+00 -0.4490562E-05  0.0000000E+00  0.8786801E-03
  0.3877551E+00  0.0000000E+00  0.1020408E+00 -0.6860394E-05  0.0000000E+00  0.8747631E-03
  0.4285714E+00  0.0000000E+00  0.1020408E+00 -0.9542371E-05  0.0000000E+00  0.8689534E-03
  0.4693878E+00  0.0000000E+00  0.1020408E+00 -0.1244172E-04  0.0000000E+00  0.8610465E-03
  0.5102041E+00  0.0000000E+00  0.1020408E+00 -0.1544859E-04  0.0000000E+00  0.8509174E-03
  0.5510204E+00  0.0000000E+00  0.1020408E+00 -0.1844642E-04  0.0000000E+00  0.8385288E-03
  0.5918368E+00  0.0000000E+00  0.1020408E+00 -0.2132082E-04  0.0000000E+00  0.8239327E-03
  0.6326531E+00  0.0000000E+00  0.1020408E+00 -0.2396780E-04  0.0000000E+00  0.8072654E-03
  0.6734694E+00  0.0000000E+00  0.1020408E+00 -0.2630051E-04  0.0000000E+00  0.7887364E-03
  0.7142857E+00  0.0000000E+00  0.1020408E+00 -0.2825373E-04  0.0000000E+00  0.7686122E-03
  0.7551020E+00  0.0000000E+00  0.1020408E+00 -0.2978594E-04  0.0000000E+00  0.7471993E-03
  0.7959183E+00  0.0000000E+00  0.1020408E+00 -0.3087898E-04  0.0000000E+00  0.7248248E-03
  0.8367347E+00  0.0000000E+00  0.1020408E+00 -0.3153593E-04  0.0000000E+00  0.7018200E-03
  0.8775510E+00  0.0000000E+00  0.1020408E+00 -0.3177755E-04  0.0000000E+00  0.6785049E-03
  0.9183673E+00  0.0000000E+00  0.1020408E+00 -0.3163811E-04  0.0000000E+00  0.6551769E-03
  0.9591837E+00  0.0000000E+00  0.1020408E+00 -0.3116109E-04  0.0000000E+00  0.6321024E-03
  0.1000000E+01  0.0000000E+00  0.1020408E+00 -0.3039514E-04  0.0000000E+00  0.6095121E-03
  0.1040816E+01  0.0000000E+00  0.1020408E+00 -0.2939065E-04  0.0000000E+00  0.5875983E-03
  0.1081633E+01  0.0000000E+00  0.1020408E+00 -0.2819694E-04  0.0000000E+00  0.5665158E-03
  0.1122449E+01  0.0000000E+00  0.1020408E+00 -0.2686029E-04  0.0000000E+00  0.5463831E-03
  0.1163265E+01  0.0000000E+00  0.1020408E+00 -0.2542256E-04  0.0000000E+00  0.5272863E-03
  0.1204082E+01  0.0000000E+00  0.1020408E+00 -0.2392039E-04  0.0000000E+00  0.5092821E-03
  0.1244898E+01  0.0000000E+00  0.1020408E+00 -0.2238490E-04  0.0000000E+00  0.4924027E-03
  0.1285714E+01  0.0000000E+00  0.1020408E+00 -0.2084169E-04  0.0000000E+00  0.4766596E-03
  0.1326531E+01  0.0000000E+00  0.1020408E+00 -0.1931112E-04  0.0000000E+00  0.4620478E-03
  0.1367347E+01  0.0000000E+00  0.1020408E+00 -0.1780871E-04  0.0000000E+00  0.4485494E-03
  0.1408163E+01  0.0000000E+00  0.1020408E+00 -0.1634568E-04  0.0000000E+00  0.4361372E-03
  0.1448980E+01  0.0000000E+00  0.1020408E+00 -0.1492951E-04  0.0000000E+00  0.4247777E-03
  0.1489796E+01  0.0000000E+00  0.1020408E+00 -0.1356450E-04  0.0000000E+00  0.4144331E-03
  0.1530612E+01  0.0000000E+00  0.1020408E+00 -0.1225234E-04  0.0000000E+00  0.4050642E-03
  0.1571429E+01  0.0000000E+00  0.1020408E+00 -0.1099266E-04  0.0000000E+00  0.3966313E-03
  0.1612245E+01  0.0000000E+00  0.1020408E+00 -0.9783470E-05  0.0000000E+00  0.3890960E-03
  0.1653061E+01  0.0000000E+00  0.1020408E+00 -0.8621614E-05  0.0000000E+00  0.3824221E-03
  0.1693878E+01  0.0000000E+00  0.1020408E+00 -0.7503096E-05  0.0000000E+00  0.3765759E-03
  0.1734694E+01  0.0000000E+00  0.1020408E+00 -0.6423368E-05  0.0000000E+00  0.3715274E-03
  0.1775510E+01  0.0000000E+00  0.1020408E+00 -0.5377528E-05  0.0000000E+00  0.3672497E-03
  0.1816326E+01  0.0000000E+00  0.1020408E+00 -0.4360481E-05  0.0000000E+00  0.3637201E-03
  0.1857143E+01  0.0000000E+00  0.1020408E+00 -0.3367025E-05  0.0000000E+00  0.3609193E-03
  0.1897959E+01  0.0000000E+00  0.1020408E+00 -0.2391923E-05  0.0000000E+00  0.3588321E-03
  0.1938776E+01  0.0000000E+00  0.1020408E+00 -0.1429923E-05  0.0000000E+00  0.3574470E-03
  0.1989796E+01  0.0000000E+00  0.1020408E+00 -0.4757830E-06  0.0000000E+00  0.3567563E-03
  0.2040816E-01  0.0000000E+00  0.1428571E+00  0.4156749E-06  0.0000000E+00  0.8775945E-03
  0.6122449E-01  0.0000000E+00  0.1428571E+00  0.1170721E-05  0.0000000E+00  0.8781491E-03
  0.1020408E+00  0.0000000E+00  0.1428571E+00  0.1699525E-05  0.0000000E+00  0.8791716E-03
  0.1428571E+00  0.0000000E+00  0.1428571E+00  0.1863972E-05  0.0000000E+00  0.8804928E-03
  0.1836735E+00  0.0000000E+00  0.1428571E+00  0.1545529E-05  0.0000000E+00  0.8818691E-03
  0.2244898E+00  0.0000000E+00  0.1428571E+00  0.6524520E-06  0.0000000E+00  0.8829954E-03
  0.2653061E+00  0.0000000E+00  0.1428571E+00 -0.8733999E-06  0.0000000E+00  0.8835221E-03
  0.3061225E+00  0.0000000E+00  0.1428571E+00 -0.3051023E-05  0.0000000E+00  0.8830752E-03
  0.3469388E+00  0.0000000E+00  0.1428571E+00 -0.5856972E-05  0.0000000E+00  0.8812810E-03
  0.3877551E+00  0.0000000E+00  0.1428571E+00 -0.9224945E-05  0.0000000E+00  0.8777903E-03
  0.4285714E+00  0.0000000E+00  0.1428571E+00 -0.1304895E-04  0.0000000E+00  0.8723043E-03
  0.4693878E+00  0.0000000E+00  0.1428571E+00 -0.1719029E-04  0.0000000E+00  0.8645956E-03
  0.5102041E+00  0.0000000E+00  0.1428571E+00 -0.2148786E-04  0.0000000E+00  0.8545259E-03
  0.5510204E+00  0.0000000E+00  0.1428571E+00 -0.2577074E-04  0.0000000E+00  0.8420550E-03
  0.5918368E+00  0.0000000E+00  0.1428571E+00 -0.2987162E-04  0.0000000E+00  0.8272430E-03
  0.6326531E+00  0.0000000E+00  0.1428571E+00 -0.3363918E-04  0.0000000E+00  0.8102432E-03
  0.6734694E+00  0.0000000E+00  0.1428571E+00 -0.3694814E-04  0.0000000E+00  0.7912890E-03
  0.7142857E+00  0.0000000E+00  0.1428571E+00 -0.3970574E-04  0.0000000E+00  0.7706750E-03
  0.7551020E+00  0.0000000E+00  0.1428571E+00 -0.4185451E-04  0.0000000E+00  0.7487365E-03
  0.7959183E+00  0.0000000E+00  0.1428571E+00 -0.4337138E-04  0.0000000E+00  0.7258281E-03
  0.8367347E+00  0.0000000E+00  0.1428571E+00 -0.4426409E-04  0.0000000E+00  0.7023048E-03
  0.8775510E+00  0.0000000E+00  0.1428571E+00 -0.4456570E-04  0.0000000E+00  0.6785054E-03
  0.9183673E+00  0.0000000E+00  0.1428571E+00 -0.4432819E-04  0.0000000E+00  0.6547410E-03
  0.9591837E+00  0.0000000E+00  0.1428571E+00 -0.4361605E-04  0.0000000E+00  0.6312869E-03
  0.1000000E+01  0.0000000E+00  0.1428571E+00 -0.4250040E-04  0.0000000E+00  0.6083773E-03
  0.1040816E+01  0.0000000E+00  0.1428571E+00 -0.4105407E-04  0.0000000E+00  0.5862052E-03
  0.1081633E+01  0.0000000E+00  0.1428571E+00 -0.3934772E-04  0.0000000E+00  0.5649223E-03
  0.1122449E+01  0.0000000E+00  0.1428571E+00 -0.3744706E-04  0.0000000E+00  0.5446429E-03
  0.1163265E+01  0.0000000E+00  0.1428571E+00 -0.3541108E-04  0.0000000E+00  0.5254468E-03
  0.1204082E+01  0.0000000E+00  0.1428571E+00 -0.3329109E-04  0.0000000E+00  0.5073842E-03
  0.1244898E+01  0.0000000E+00  0.1428571E+00 -0.3113032E-04  0.0000000E+00  0.4904807E-03
  0.1285714E+01  0.0000000E+00  0.1428571E+00 -0.2896412E-04  0.0000000E+00  0.4747411E-03
  0.1326531E+01  0.0000000E+00  0.1428571E+00 -0.2682037E-04  0.0000000E+00  0.4601543E-03
  0.1367347E+01  0.0000000E+00  0.1428571E+00 -0.2472014E-04  0.0000000E+00  0.4466969E-03
  0.1408163E+01  0.0000000E+00  0.1428571E+00 -0.2267845E-04  0.0000000E+00  0.4343370E-03
  0.1448980E+01  0.0000000E+00  0.1428571E+00 -0.2070512E-04  0.0000000E+00  0.4230367E-03
  0.1489796E+01  0.0000000E+00  0.1428571E+00 -0.1880556E-04  0.0000000E+00  0.4127548E-03
  0.1530612E+01  0.0000000E+00  0.1428571E+00 -0.1698159E-04  0.0000000E+00  0.4034493E-03
  0.1571429E+01  0.0000000E+00  0.1428571E+00 -0.1523220E-04  0.0000000E+00  0.3950783E-03
  0.1612245E+01  0.0000000E+00  0.1428571E+00 -0.1355422E-04  0.0000000E+00  0.3876018E-03
  0.1653061E+01  0.0000000E+00  0.1428571E+00 -0.1194289E-04  0.0000000E+00  0.3809822E-03
  0.1693878E+01  0.0000000E+00  0.1428571E+00 -0.1039239E-04  0.0000000E+00  0.3751853E-03
  0.1734694E+01  0.0000000E+00  0.1428571E+00 -0.8896180E-05  0.0000000E+00  0.3701802E-03
  0.1775510E+01  0.0000000E+00  0.1428571E+00 -0.7447291E-05  0.0000000E+00  0.3659401E-03
  0.1816326E+01  0.0000000E+00  0.1428571E+00 -0.6038537E-05  0.0000000E+00  0.3624418E-03
  0.1857143E+01  0.0000000E+00  0.1428571E+00 -0.4662629E-05  0.0000000E+00  0.3596661E-03
  0.1897959E+01  0.0000000E+00  0.1428571E+00 -0.3312247E-05  0.0000000E+00  0.3575977E-03
  0.1938776E+01  0.0000000E+00  0.1428571E+00 -0.1980080E-05  0.0000000E+00  0.3562251E-03
  0.1989796E+01  0.0000000E+00  0.1428571E+00 -0.6588315E-06  0.0000000E+00  0.3555407E-03
  0.2040816E-01  0.0000000E+00  0.1836735E+00  0.6168394E-06  0.0000000E+00  0.8765660E-03
  0.6122449E-01  0.0000000E+00  0.1836735E+00  0.1749755E-05  0.0000000E+00  0.8772957E-03
  0.1020408E+00  0.0000000E+00  0.1836735E+00  0.2584052E-05  0.0000000E+00  0.8786595E-03
  0.1428571E+00  0.0000000E+00  0.1836735E+00  0.2936740E-05  0.0000000E+00  0.8804706E-03
  0.1836735E+00  0.0000000E+00  0.1836735E+00  0.2649769E-05  0.0000000E+00  0.8824588E-03
  0.2244898E+00  0.0000000E+00  0.1836735E+00  0.1599627E-05  0.0000000E+00  0.8842844E-03
  0.2653061E+00  0.0000000E+00  0.1836735E+00 -0.2933060E-06  0.0000000E+00  0.8855556E-03
  0.3061225E+00  0.0000000E+00  0.1836735E+00 -0.3056868E-05  0.0000000E+00  0.8858514E-03
  0.3469388E+00  0.0000000E+00  0.1836735E+00 -0.6661939E-05  0.0000000E+00  0.8847480E-03
  0.3877551E+00  0.0000000E+00  0.1836735E+00 -0.1102126E-04  0.0000000E+00  0.8818484E-03
  0.4285714E+00  0.0000000E+00  0.1836735E+00 -0.1599318E-04  0.0000000E+00  0.8768111E-03
  0.4693878E+00  0.0000000E+00  0.1836735E+00 -0.2139096E-04  0.0000000E+00  0.8693765E-03
  0.5102041E+00  0.0000000E+00  0.1836735E+00 -0.2699697E-04  0.0000000E+00  0.8593872E-03
  0.5510204E+00  0.0000000E+00  0.1836735E+00 -0.3258034E-04  0.0000000E+00  0.8467999E-03
  0.5918368E+00  0.0000000E+00  0.1836735E+00 -0.3791583E-04  0.0000000E+00  0.8316861E-03
  0.6326531E+00  0.0000000E+00  0.1836735E+00 -0.4280125E-04  0.0000000E+00  0.8142243E-03
  0.6734694E+00  0.0000000E+00  0.1836735E+00 -0.4707121E-04  0.0000000E+00  0.7946824E-03
  0.7142857E+00  0.0000000E+00  0.1836735E+00 -0.5060580E-04  0.0000000E+00  0.7733949E-03
  0.7551020E+00  0.0000000E+00  0.1836735E+00 -0.5333365E-04  0.0000000E+00  0.7507379E-03
  0.7959183E+00  0.0000000E+00  0.1836735E+00 -0.5523010E-04  0.0000000E+00  0.7271039E-03
  0.8367347E+00  0.0000000E+00  0.1836735E+00 -0.5631146E-04  0.0000000E+00  0.7028803E-03
  0.8775510E+00  0.0000000E+00  0.1836735E+00 -0.5662694E-04  0.0000000E+00  0.6784314E-03
  0.9183673E+00  0.0000000E+00  0.1836735E+00 -0.5624970E-04  0.0000000E+00  0.6540861E-03
  0.9591837E+00  0.0000000E+00  0.1836735E+00 -0.5526792E-04  0.0000000E+00  0.6301300E-03
  0.1000000E+01  0.0000000E+00  0.1836735E+00 -0.5377706E-04  0.0000000E+00  0.6068020E-03
  0.1040816E+01  0.0000000E+00  0.1836735E+00 -0.5187337E-04  0.0000000E+00  0.5842942E-03
  0.1081633E+01  0.0000000E+00  0.1836735E+00 -0.4964907E-04  0.0000000E+00  0.5627541E-03
  0.1122449E+01  0.0000000E+00  0.1836735E+00 -0.4718898E-04  0.0000000E+00  0.5422888E-03
  0.1163265E+01  0.0000000E+00  0.1836735E+00 -0.4456845E-04  0.0000000E+00  0.5229697E-03
  0.1204082E+01  0.0000000E+00  0.1836735E+00 -0.4185235E-04  0.0000000E+00  0.5048380E-03
  0.1244898E+01  0.0000000E+00  0.1836735E+00 -0.3909488E-04  0.0000000E+00  0.4879099E-03
  0.1285714E+01  0.0000000E+00  0.1836735E+00 -0.3633989E-04  0.0000000E+00  0.4721814E-03
  0.1326531E+01  0.0000000E+00  0.1836735E+00 -0.3362159E-04  0.0000000E+00  0.4576333E-03
  0.1367347E+01  0.0000000E+00  0.1836735E+00 -0.3096549E-04  0.0000000E+00  0.4442349E-03
  0.1408163E+01  0.0000000E+00  0.1836735E+00 -0.2838946E-04  0.0000000E+00  0.4319477E-03
  0.1448980E+01  0.0000000E+00  0.1836735E+00 -0.2590478E-04  0.0000000E+00  0.4207285E-03
  0.1489796E+01  0.0000000E+00  0.1836735E+00 -0.2351724E-04  0.0000000E+00  0.4105316E-03
  0.1530612E+01  0.0000000E+00  0.1836735E+00 -0.2122821E-04  0.0000000E+00  0.4013113E-03
  0.1571429E+01  0.0000000E+00  0.1836735E+00 -0.1903557E-04  0.0000000E+00  0.3930230E-03
  0.1612245E+01  0.0000000E+00  0.1836735E+00 -0.1693458E-04  0.0000000E+00  0.3856245E-03
  0.1653061E+01  0.0000000E+00  0.1836735E+00 -0.1491869E-04  0.0000000E+00  0.3790769E-03
  0.1693878E+01  0.0000000E+00  0.1836735E+00 -0.1298008E-04  0.0000000E+00  0.3733448E-03
  0.1734694E+01  0.0000000E+00  0.1836735E+00 -0.1111020E-04  0.0000000E+00  0.3683969E-03
  0.1775510E+01  0.0000000E+00  0.1836735E+00 -0.9300036E-05  0.0000000E+00  0.3642060E-03
  0.1816326E+01  0.0000000E+00  0.1836735E+00 -0.7540412E-05  0.0000000E+00  0.3607486E-03
  0.1857143E+01  0.0000000E+00  0.1836735E+00 -0.5822078E-05  0.0000000E+00  0.3580057E-03
  0.1897959E+01  0.0000000E+00  0.1836735E+00 -0.4135794E-05  0.0000000E+00  0.3559618E-03
  0.1938776E+01  0.0000000E+00  0.1836735E+00 -0.2472362E-05  0.0000000E+00  0.3546055E-03
  0.1989796E+01  0.0000000E+00  0.1836735E+00 -0.8226204E-06  0.0000000E+00  0.3539293E-03
  0.2040816E-01  0.0000000E+00  0.2244898E+00  0.8802929E-06  0.0000000E+00  0.8750580E-03
  0.6122449E-01  0.0000000E+00  0.2244898E+00  0.2513853E-05  0.0000000E+00  0.8760126E-03
  0.1020408E+00  0.0000000E+00  0.2244898E+00  0.3770888E-05  0.0000000E+00  0.8778156E-03
  0.1428571E+00  0.0000000E+00  0.2244898E+00  0.4419451E-05  0.0000000E+00  0.8802582E-03
  0.1836735E+00  0.0000000E+00  0.2244898E+00  0.4257479E-05  0.0000000E+00  0.8830375E-03
  0.2244898E+00  0.0000000E+00  0.2244898E+00  0.3124992E-05  0.0000000E+00  0.8857699E-03
  0.2653061E+00  0.0000000E+00  0.2244898E+00  0.9164914E-06  0.0000000E+00  0.8880099E-03
  0.3061225E+00  0.0000000E+00  0.2244898E+00 -0.2408067E-05  0.0000000E+00  0.8892749E-03
  0.3469388E+00  0.0000000E+00  0.2244898E+00 -0.6815351E-05  0.0000000E+00  0.8890758E-03
  0.3877551E+00  0.0000000E+00  0.2244898E+00 -0.1219592E-04  0.0000000E+00  0.8869509E-03
  0.4285714E+00  0.0000000E+00  0.2244898E+00 -0.1836816E-04  0.0000000E+00  0.8825018E-03
  0.4693878E+00  0.0000000E+00  0.2244898E+00 -0.2509012E-04  0.0000000E+00  0.8754252E-03
  0.5102041E+00  0.0000000E+00  0.2244898E+00 -0.3207839E-04  0.0000000E+00  0.8655384E-03
  0.5510204E+00  0.0000000E+00  0.2244898E+00 -0.3903230E-04  0.0000000E+00  0.8527939E-03
  0.5918368E+00  0.0000000E+00  0.2244898E+00 -0.4565976E-04  0.0000000E+00  0.8372802E-03
  0.6326531E+00  0.0000000E+00  0.2244898E+00 -0.5170106E-04  0.0000000E+00  0.8192106E-03
  0.6734694E+00  0.0000000E+00  0.2244898E+00 -0.5694725E-04  0.0000000E+00  0.7989008E-03
  0.7142857E+00  0.0000000E+00  0.2244898E+00 -0.6125105E-04  0.0000000E+00  0.7767397E-03
  0.7551020E+00  0.0000000E+00  0.2244898E+00 -0.6452987E-04  0.0000000E+00  0.7531576E-03
  0.7959183E+00  0.0000000E+00  0.2244898E+00 -0.6676205E-04  0.0000000E+00  0.7285972E-03
  0.8367347E+00  0.0000000E+00  0.2244898E+00 -0.6797810E-04  0.0000000E+00  0.7034871E-03
  0.8775510E+00  0.0000000E+00  0.2244898E+00 -0.6824918E-04  0.0000000E+00  0.6782234E-03
  0.9183673E+00  0.0000000E+00  0.2244898E+00 -0.6767472E-04  0.0000000E+00  0.6531560E-03
  0.9591837E+00  0.0000000E+00  0.2244898E+00 -0.6637082E-04  0.0000000E+00  0.6285826E-03
  0.1000000E+01  0.0000000E+00  0.2244898E+00 -0.6446028E-04  0.0000000E+00  0.6047456E-03
  0.1040816E+01  0.0000000E+00  0.2244898E+00 -0.6206464E-04  0.0000000E+00  0.5818347E-03
  0.1081633E+01  0.0000000E+00  0.2244898E+00 -0.5929853E-04  0.0000000E+00  0.5599903E-03
  0.1122449E+01  0.0000000E+00  0.2244898E+00 -0.5626590E-04  0.0000000E+00  0.5393098E-03
  0.1163265E+01  0.0000000E+00  0.2244898E+00 -0.5305789E-04  0.0000000E+00  0.5198530E-03
  0.1204082E+01  0.0000000E+00  0.2244898E+00 -0.4975203E-04  0.0000000E+00  0.5016492E-03
  0.1244898E+01  0.0000000E+00  0.2244898E+00 -0.4641228E-04  0.0000000E+00  0.4847027E-03
  0.1285714E+01  0.0000000E+00  0.2244898E+00 -0.4308974E-04  0.0000000E+00  0.4689985E-03
  0.1326531E+01  0.0000000E+00  0.2244898E+00 -0.3982372E-04  0.0000000E+00  0.4545070E-03
  0.1367347E+01  0.0000000E+00  0.2244898E+00 -0.3664302E-04  0.0000000E+00  0.4411887E-03
  0.1408163E+01  0.0000000E+00  0.2244898E+00 -0.3356724E-04  0.0000000E+00  0.4289971E-03
  0.1448980E+01  0.0000000E+00  0.2244898E+00 -0.3060819E-04  0.0000000E+00  0.4178824E-03
  0.1489796E+01  0.0000000E+00  0.2244898E+00 -0.2777121E-04  0.0000000E+00  0.4077936E-03
  0.1530612E+01  0.0000000E+00  0.2244898E+00 -0.2505647E-04  0.0000000E+00  0.3986806E-03
  0.1571429E+01  0.0000000E+00  0.2244898E+00 -0.2246015E-04  0.0000000E+00  0.3904954E-03
  0.1612245E+01  0.0000000E+00  0.2244898E+00 -0.1997553E-04  0.0000000E+00  0.3831936E-03
  0.1653061E+01  0.0000000E+00  0.2244898E+00 -0.1759389E-04  0.0000000E+00  0.3767346E-03
  0.1693878E+01  0.0000000E+00  0.2244898E+00 -0.1530524E-04  0.0000000E+00  0.3710821E-03
  0.1734694E+01  0.0000000E+00  0.2244898E+00 -0.1309889E-04  0.0000000E+00  0.3662040E-03
  0.1775510E+01  0.0000000E+00  0.2244898E+00 -0.1096381E-04  0.0000000E+00  0.3620729E-03
  0.1816326E+01  0.0000000E+00  0.2244898E+00 -0.8888867E-05  0.0000000E+00  0.3586654E-03
  0.1857143E+01  0.0000000E+00  0.2244898E+00 -0.6862957E-05  0.0000000E+00  0.3559622E-03
  0.1897959E+01  0.0000000E+00  0.2244898E+00 -0.4875058E-05  0.0000000E+00  0.3539480E-03
  0.1938776E+01  0.0000000E+00  0.2244898E+00 -0.2914240E-05  0.0000000E+00  0.3526116E-03
  0.1989796E+01  0.0000000E+00  0.2244898E+00 -0.9696359E-06  0.0000000E+00  0.3519452E-03
  0.2040816E-01  0.0000000E+00  0.2653061E+00  0.1222739E-05  0.0000000E+00  0.8729231E-03
  0.6122449E-01  0.0000000E+00  0.2653061E+00  0.3512450E-05  0.0000000E+00  0.8741571E-03
  0.1020408E+00  0.0000000E+00  0.2653061E+00  0.5340074E-05  0.0000000E+00  0.8765063E-03
  0.1428571E+00  0.0000000E+00  0.2653061E+00  0.6418949E-05  0.0000000E+00  0.8797367E-03
  0.1836735E+00  0.0000000E+00  0.2653061E+00  0.6496527E-05  0.0000000E+00  0.8835064E-03
  0.2244898E+00  0.0000000E+00  0.2653061E+00  0.5369432E-05  0.0000000E+00  0.8873789E-03
  0.2653061E+00  0.0000000E+00  0.2653061E+00  0.2899603E-05  0.0000000E+00  0.8908422E-03
  0.3061225E+00  0.0000000E+00  0.2653061E+00 -0.9705143E-06  0.0000000E+00  0.8933365E-03
  0.3469388E+00  0.0000000E+00  0.2653061E+00 -0.6205993E-05  0.0000000E+00  0.8942884E-03
  0.3877551E+00  0.0000000E+00  0.2653061E+00 -0.1267380E-04  0.0000000E+00  0.8931524E-03
  0.4285714E+00  0.0000000E+00  0.2653061E+00 -0.2014625E-04  0.0000000E+00  0.8894543E-03
  0.4693878E+00  0.0000000E+00  0.2653061E+00 -0.2831542E-04  0.0000000E+00  0.8828328E-03
  0.5102041E+00  0.0000000E+00  0.2653061E+00 -0.3681819E-04  0.0000000E+00  0.8730718E-03
  0.5510204E+00  0.0000000E+00  0.2653061E+00 -0.4526897E-04  0.0000000E+00  0.8601190E-03
  0.5918368E+00  0.0000000E+00  0.2653061E+00 -0.5329514E-04  0.0000000E+00  0.8440871E-03
  0.6326531E+00  0.0000000E+00  0.2653061E+00 -0.6056941E-04  0.0000000E+00  0.8252378E-03
  0.6734694E+00  0.0000000E+00  0.2653061E+00 -0.6683401E-04  0.0000000E+00  0.8039514E-03
  0.7142857E+00  0.0000000E+00  0.2653061E+00 -0.7191399E-04  0.0000000E+00  0.7806890E-03
  0.7551020E+00  0.0000000E+00  0.2653061E+00 -0.7571944E-04  0.0000000E+00  0.7559524E-03
  0.7959183E+00  0.0000000E+00  0.2653061E+00 -0.7823839E-04  0.0000000E+00  0.7302474E-03
  0.8367347E+00  0.0000000E+00  0.2653061E+00 -0.7952354E-04  0.0000000E+00  0.7040542E-03
  0.8775510E+00  0.0000000E+00  0.2653061E+00 -0.7967599E-04  0.0000000E+00  0.6778063E-03
  0.9183673E+00  0.0000000E+00  0.2653061E+00 -0.7882861E-04  0.0000000E+00  0.6518775E-03
  0.9591837E+00  0.0000000E+00  0.2653061E+00 -0.7713109E-04  0.0000000E+00  0.6265769E-03
  0.1000000E+01  0.0000000E+00  0.2653061E+00 -0.7473761E-04  0.0000000E+00  0.6021491E-03
  0.1040816E+01  0.0000000E+00  0.2653061E+00 -0.7179755E-04  0.0000000E+00  0.5787779E-03
  0.1081633E+01  0.0000000E+00  0.2653061E+00 -0.6844919E-04  0.0000000E+00  0.5565934E-03
  0.1122449E+01  0.0000000E+00  0.2653061E+00 -0.6481576E-04  0.0000000E+00  0.5356791E-03
  0.1163265E+01  0.0000000E+00  0.2653061E+00 -0.6100366E-04  0.0000000E+00  0.5160800E-03
  0.1204082E+01  0.0000000E+00  0.2653061E+00 -0.5710203E-04  0.0000000E+00  0.4978103E-03
  0.1244898E+01  0.0000000E+00  0.2653061E+00 -0.5318335E-04  0.0000000E+00  0.4808596E-03
  0.1285714E+01  0.0000000E+00  0.2653061E+00 -0.4930461E-04  0.0000000E+00  0.4651993E-03
  0.1326531E+01  0.0000000E+00  0.2653061E+00 -0.4550886E-04  0.0000000E+00  0.4507879E-03