title = "dataset feddes"
variables = "time", "delta t"
zone t = "time step data", f=point
  1.00000E-10  1.00000E-10
  6.00000E-10  5.00000E-10
  3.10000E-09  2.50000E-09
  1.56000E-08  1.25000E-08
  7.81000E-08  6.25000E-08
  3.90600E-07  3.12500E-07
  1.95310E-06  1.56250E-06
  9.76560E-06  7.81250E-06
  4.38919E-05  3.41263E-05
  9.45264E-05  5.06345E-05
  1.69162E-04  7.46352E-05
  2.81149E-04  1.11988E-04
  4.60574E-04  1.79425E-04
  7.97276E-04  3.36702E-04
  1.45881E-03  6.61532E-04
  2.21429E-03  7.55485E-04
  3.28070E-03  1.06641E-03
  5.12117E-03  1.84047E-03
  7.48036E-03  2.35919E-03
