title = "dataset feddes"
variables = "x", "y", "z", "vx", "vy", "vz"
zone t = "velocities, solution time =  4.300E+01 days        " i =   49, j =   49, k =    1,  f=point
  0.2040816E-01  0.0000000E+00  0.2040816E-01  0.5121054E-07  0.0000000E+00  0.9001652E-03
  0.6122449E-01  0.0000000E+00  0.2040816E-01  0.1420776E-06  0.0000000E+00  0.9005801E-03
  0.1020408E+00  0.0000000E+00  0.2040816E-01  0.1985146E-06  0.0000000E+00  0.9013112E-03
  0.1428571E+00  0.0000000E+00  0.2040816E-01  0.1996269E-06  0.0000000E+00  0.9021657E-03
  0.1836735E+00  0.0000000E+00  0.2040816E-01  0.1276216E-06  0.0000000E+00  0.9028681E-03
  0.2244898E+00  0.0000000E+00  0.2040816E-01 -0.3110198E-07  0.0000000E+00  0.9030753E-03
  0.2653061E+00  0.0000000E+00  0.2040816E-01 -0.2849601E-06  0.0000000E+00  0.9023969E-03
  0.3061225E+00  0.0000000E+00  0.2040816E-01 -0.6364471E-06  0.0000000E+00  0.9004192E-03
  0.3469388E+00  0.0000000E+00  0.2040816E-01 -0.1081732E-05  0.0000000E+00  0.8967314E-03
  0.3877551E+00  0.0000000E+00  0.2040816E-01 -0.1610694E-05  0.0000000E+00  0.8909525E-03
  0.4285714E+00  0.0000000E+00  0.2040816E-01 -0.2207464E-05  0.0000000E+00  0.8827574E-03
  0.4693878E+00  0.0000000E+00  0.2040816E-01 -0.2851465E-05  0.0000000E+00  0.8718993E-03
  0.5102041E+00  0.0000000E+00  0.2040816E-01 -0.3518889E-05  0.0000000E+00  0.8582265E-03
  0.5510204E+00  0.0000000E+00  0.2040816E-01 -0.4184474E-05  0.0000000E+00  0.8416929E-03
  0.5918368E+00  0.0000000E+00  0.2040816E-01 -0.4823363E-05  0.0000000E+00  0.8223598E-03
  0.6326531E+00  0.0000000E+00  0.2040816E-01 -0.5412859E-05  0.0000000E+00  0.8003906E-03
  0.6734694E+00  0.0000000E+00  0.2040816E-01 -0.5933854E-05  0.0000000E+00  0.7760385E-03
  0.7142857E+00  0.0000000E+00  0.2040816E-01 -0.6371820E-05  0.0000000E+00  0.7496287E-03
  0.7551020E+00  0.0000000E+00  0.2040816E-01 -0.6717289E-05  0.0000000E+00  0.7215381E-03
  0.7959183E+00  0.0000000E+00  0.2040816E-01 -0.6965842E-05  0.0000000E+00  0.6921733E-03
  0.8367347E+00  0.0000000E+00  0.2040816E-01 -0.7117693E-05  0.0000000E+00  0.6619498E-03
  0.8775510E+00  0.0000000E+00  0.2040816E-01 -0.7176982E-05  0.0000000E+00  0.6312739E-03
  0.9183673E+00  0.0000000E+00  0.2040816E-01 -0.7150904E-05  0.0000000E+00  0.6005273E-03
  0.9591837E+00  0.0000000E+00  0.2040816E-01 -0.7048788E-05  0.0000000E+00  0.5700565E-03
  0.1000000E+01  0.0000000E+00  0.2040816E-01 -0.6881224E-05  0.0000000E+00  0.5401650E-03
  0.1040816E+01  0.0000000E+00  0.2040816E-01 -0.6659302E-05  0.0000000E+00  0.5111099E-03
  0.1081633E+01  0.0000000E+00  0.2040816E-01 -0.6393982E-05  0.0000000E+00  0.4831008E-03
  0.1122449E+01  0.0000000E+00  0.2040816E-01 -0.6095629E-05  0.0000000E+00  0.4563018E-03
  0.1163265E+01  0.0000000E+00  0.2040816E-01 -0.5773688E-05  0.0000000E+00  0.4308341E-03
  0.1204082E+01  0.0000000E+00  0.2040816E-01 -0.5436481E-05  0.0000000E+00  0.4067812E-03
  0.1244898E+01  0.0000000E+00  0.2040816E-01 -0.5091114E-05  0.0000000E+00  0.3841932E-03
  0.1285714E+01  0.0000000E+00  0.2040816E-01 -0.4743466E-05  0.0000000E+00  0.3630924E-03
  0.1326531E+01  0.0000000E+00  0.2040816E-01 -0.4398228E-05  0.0000000E+00  0.3434785E-03
  0.1367347E+01  0.0000000E+00  0.2040816E-01 -0.4058986E-05  0.0000000E+00  0.3253335E-03
  0.1408163E+01  0.0000000E+00  0.2040816E-01 -0.3728335E-05  0.0000000E+00  0.3086259E-03
  0.1448980E+01  0.0000000E+00  0.2040816E-01 -0.3408000E-05  0.0000000E+00  0.2933151E-03
  0.1489796E+01  0.0000000E+00  0.2040816E-01 -0.3098967E-05  0.0000000E+00  0.2793548E-03
  0.1530612E+01  0.0000000E+00  0.2040816E-01 -0.2801613E-05  0.0000000E+00  0.2666955E-03
  0.1571429E+01  0.0000000E+00  0.2040816E-01 -0.2515831E-05  0.0000000E+00  0.2552874E-03
  0.1612245E+01  0.0000000E+00  0.2040816E-01 -0.2241146E-05  0.0000000E+00  0.2450819E-03
  0.1653061E+01  0.0000000E+00  0.2040816E-01 -0.1976815E-05  0.0000000E+00  0.2360327E-03
  0.1693878E+01  0.0000000E+00  0.2040816E-01 -0.1721912E-05  0.0000000E+00  0.2280976E-03
  0.1734694E+01  0.0000000E+00  0.2040816E-01 -0.1475397E-05  0.0000000E+00  0.2212382E-03
  0.1775510E+01  0.0000000E+00  0.2040816E-01 -0.1236166E-05  0.0000000E+00  0.2154210E-03
  0.1816326E+01  0.0000000E+00  0.2040816E-01 -0.1003086E-05  0.0000000E+00  0.2106170E-03
  0.1857143E+01  0.0000000E+00  0.2040816E-01 -0.7750181E-06  0.0000000E+00  0.2068024E-03
  0.1897959E+01  0.0000000E+00  0.2040816E-01 -0.5508320E-06  0.0000000E+00  0.2039580E-03
  0.1938776E+01  0.0000000E+00  0.2040816E-01 -0.3294084E-06  0.0000000E+00  0.2020696E-03
  0.1989796E+01  0.0000000E+00  0.2040816E-01 -0.1096419E-06  0.0000000E+00  0.2011277E-03
  0.2040816E-01  0.0000000E+00  0.6122449E-01  0.1799037E-06  0.0000000E+00  0.8999751E-03
  0.6122449E-01  0.0000000E+00  0.6122449E-01  0.5005456E-06  0.0000000E+00  0.9004361E-03
  0.1020408E+00  0.0000000E+00  0.6122449E-01  0.7047284E-06  0.0000000E+00  0.9012569E-03
  0.1428571E+00  0.0000000E+00  0.6122449E-01  0.7216949E-06  0.0000000E+00  0.9022399E-03
  0.1836735E+00  0.0000000E+00  0.6122449E-01  0.4911310E-06  0.0000000E+00  0.9031022E-03
  0.2244898E+00  0.0000000E+00  0.6122449E-01 -0.3315449E-07  0.0000000E+00  0.9034912E-03
  0.2653061E+00  0.0000000E+00  0.6122449E-01 -0.8798493E-06  0.0000000E+00  0.9030056E-03
  0.3061225E+00  0.0000000E+00  0.6122449E-01 -0.2057588E-05  0.0000000E+00  0.9012193E-03
  0.3469388E+00  0.0000000E+00  0.6122449E-01 -0.3553537E-05  0.0000000E+00  0.8977090E-03
  0.3877551E+00  0.0000000E+00  0.6122449E-01 -0.5333471E-05  0.0000000E+00  0.8920815E-03
  0.4285714E+00  0.0000000E+00  0.6122449E-01 -0.7343566E-05  0.0000000E+00  0.8840014E-03
  0.4693878E+00  0.0000000E+00  0.6122449E-01 -0.9513943E-05  0.0000000E+00  0.8732139E-03
  0.5102041E+00  0.0000000E+00  0.6122449E-01 -0.1176371E-04  0.0000000E+00  0.8595627E-03
  0.5510204E+00  0.0000000E+00  0.6122449E-01 -0.1400702E-04  0.0000000E+00  0.8430005E-03
  0.5918368E+00  0.0000000E+00  0.6122449E-01 -0.1615949E-04  0.0000000E+00  0.8235912E-03
  0.6326531E+00  0.0000000E+00  0.6122449E-01 -0.1814418E-04  0.0000000E+00  0.8015039E-03
  0.6734694E+00  0.0000000E+00  0.6122449E-01 -0.1989650E-04  0.0000000E+00  0.7770001E-03
  0.7142857E+00  0.0000000E+00  0.6122449E-01 -0.2136751E-04  0.0000000E+00  0.7504147E-03
  0.7551020E+00  0.0000000E+00  0.6122449E-01 -0.2252558E-04  0.0000000E+00  0.7221345E-03
  0.7959183E+00  0.0000000E+00  0.6122449E-01 -0.2335623E-04  0.0000000E+00  0.6925759E-03
  0.8367347E+00  0.0000000E+00  0.6122449E-01 -0.2386072E-04  0.0000000E+00  0.6621629E-03
  0.8775510E+00  0.0000000E+00  0.6122449E-01 -0.2405353E-04  0.0000000E+00  0.6313089E-03
  0.9183673E+00  0.0000000E+00  0.6122449E-01 -0.2395940E-04  0.0000000E+00  0.6004007E-03
  0.9591837E+00  0.0000000E+00  0.6122449E-01 -0.2361016E-04  0.0000000E+00  0.5697882E-03
  0.1000000E+01  0.0000000E+00  0.6122449E-01 -0.2304178E-04  0.0000000E+00  0.5397767E-03
  0.1040816E+01  0.0000000E+00  0.6122449E-01 -0.2229180E-04  0.0000000E+00  0.5106237E-03
  0.1081633E+01  0.0000000E+00  0.6122449E-01 -0.2139719E-04  0.0000000E+00  0.4825380E-03
  0.1122449E+01  0.0000000E+00  0.6122449E-01 -0.2039286E-04  0.0000000E+00  0.4556821E-03
  0.1163265E+01  0.0000000E+00  0.6122449E-01 -0.1931052E-04  0.0000000E+00  0.4301755E-03
  0.1204082E+01  0.0000000E+00  0.6122449E-01 -0.1817806E-04  0.0000000E+00  0.4060990E-03
  0.1244898E+01  0.0000000E+00  0.6122449E-01 -0.1701924E-04  0.0000000E+00  0.3835004E-03
  0.1285714E+01  0.0000000E+00  0.6122449E-01 -0.1585368E-04  0.0000000E+00  0.3623997E-03
  0.1326531E+01  0.0000000E+00  0.6122449E-01 -0.1469701E-04  0.0000000E+00  0.3427941E-03
  0.1367347E+01  0.0000000E+00  0.6122449E-01 -0.1356111E-04  0.0000000E+00  0.3246635E-03
  0.1408163E+01  0.0000000E+00  0.6122449E-01 -0.1245459E-04  0.0000000E+00  0.3079747E-03
  0.1448980E+01  0.0000000E+00  0.6122449E-01 -0.1138310E-04  0.0000000E+00  0.2926855E-03
  0.1489796E+01  0.0000000E+00  0.6122449E-01 -0.1034984E-04  0.0000000E+00  0.2787481E-03
  0.1530612E+01  0.0000000E+00  0.6122449E-01 -0.9355985E-05  0.0000000E+00  0.2661120E-03
  0.1571429E+01  0.0000000E+00  0.6122449E-01 -0.8401085E-05  0.0000000E+00  0.2547265E-03
  0.1612245E+01  0.0000000E+00  0.6122449E-01 -0.7483479E-05  0.0000000E+00  0.2445423E-03
  0.1653061E+01  0.0000000E+00  0.6122449E-01 -0.6600619E-05  0.0000000E+00  0.2355129E-03
  0.1693878E+01  0.0000000E+00  0.6122449E-01 -0.5749360E-05  0.0000000E+00  0.2275956E-03
  0.1734694E+01  0.0000000E+00  0.6122449E-01 -0.4926187E-05  0.0000000E+00  0.2207519E-03
  0.1775510E+01  0.0000000E+00  0.6122449E-01 -0.4127382E-05  0.0000000E+00  0.2149480E-03
  0.1816326E+01  0.0000000E+00  0.6122449E-01 -0.3349142E-05  0.0000000E+00  0.2101552E-03
  0.1857143E+01  0.0000000E+00  0.6122449E-01 -0.2587654E-05  0.0000000E+00  0.2063494E-03
  0.1897959E+01  0.0000000E+00  0.6122449E-01 -0.1839131E-05  0.0000000E+00  0.2035117E-03
  0.1938776E+01  0.0000000E+00  0.6122449E-01 -0.1099832E-05  0.0000000E+00  0.2016277E-03
  0.1989796E+01  0.0000000E+00  0.6122449E-01 -0.3660593E-06  0.0000000E+00  0.2006880E-03
  0.2040816E-01  0.0000000E+00  0.1020408E+00  0.3486436E-06  0.0000000E+00  0.8995000E-03
  0.6122449E-01  0.0000000E+00  0.1020408E+00  0.9750799E-06  0.0000000E+00  0.9000710E-03
  0.1020408E+00  0.0000000E+00  0.1020408E+00  0.1391267E-05  0.0000000E+00  0.9011058E-03
  0.1428571E+00  0.0000000E+00  0.1020408E+00  0.1469231E-05  0.0000000E+00  0.9023951E-03
  0.1836735E+00  0.0000000E+00  0.1020408E+00  0.1099614E-05  0.0000000E+00  0.9036388E-03
  0.2244898E+00  0.0000000E+00  0.1020408E+00  0.1983344E-06  0.0000000E+00  0.9044621E-03
  0.2653061E+00  0.0000000E+00  0.1020408E+00 -0.1287219E-05  0.0000000E+00  0.9044372E-03
  0.3061225E+00  0.0000000E+00  0.1020408E+00 -0.3373383E-05  0.0000000E+00  0.9031088E-03
  0.3469388E+00  0.0000000E+00  0.1020408E+00 -0.6037478E-05  0.0000000E+00  0.9000231E-03
  0.3877551E+00  0.0000000E+00  0.1020408E+00 -0.9217751E-05  0.0000000E+00  0.8947582E-03
  0.4285714E+00  0.0000000E+00  0.1020408E+00 -0.1281651E-04  0.0000000E+00  0.8869534E-03
  0.4693878E+00  0.0000000E+00  0.1020408E+00 -0.1670657E-04  0.0000000E+00  0.8763347E-03
  0.5102041E+00  0.0000000E+00  0.1020408E+00 -0.2074051E-04  0.0000000E+00  0.8627345E-03
  0.5510204E+00  0.0000000E+00  0.1020408E+00 -0.2476191E-04  0.0000000E+00  0.8461032E-03
  0.5918368E+00  0.0000000E+00  0.1020408E+00 -0.2861727E-04  0.0000000E+00  0.8265109E-03
  0.6326531E+00  0.0000000E+00  0.1020408E+00 -0.3216707E-04  0.0000000E+00  0.8041409E-03
  0.6734694E+00  0.0000000E+00  0.1020408E+00 -0.3529476E-04  0.0000000E+00  0.7792744E-03
  0.7142857E+00  0.0000000E+00  0.1020408E+00 -0.3791285E-04  0.0000000E+00  0.7522696E-03
  0.7551020E+00  0.0000000E+00  0.1020408E+00 -0.3996561E-04  0.0000000E+00  0.7235378E-03
  0.7959183E+00  0.0000000E+00  0.1020408E+00 -0.4142874E-04  0.0000000E+00  0.6935185E-03
  0.8367347E+00  0.0000000E+00  0.1020408E+00 -0.4230640E-04  0.0000000E+00  0.6626563E-03
  0.8775510E+00  0.0000000E+00  0.1020408E+00 -0.4262649E-04  0.0000000E+00  0.6313808E-03
  0.9183673E+00  0.0000000E+00  0.1020408E+00 -0.4243514E-04  0.0000000E+00  0.6000913E-03
  0.9591837E+00  0.0000000E+00  0.1020408E+00 -0.4179082E-04  0.0000000E+00  0.5691453E-03
  0.1000000E+01  0.0000000E+00  0.1020408E+00 -0.4075899E-04  0.0000000E+00  0.5388522E-03
  0.1040816E+01  0.0000000E+00  0.1020408E+00 -0.3940748E-04  0.0000000E+00  0.5094700E-03
  0.1081633E+01  0.0000000E+00  0.1020408E+00 -0.3780275E-04  0.0000000E+00  0.4812057E-03
  0.1122449E+01  0.0000000E+00  0.1020408E+00 -0.3600713E-04  0.0000000E+00  0.4542181E-03
  0.1163265E+01  0.0000000E+00  0.1020408E+00 -0.3407707E-04  0.0000000E+00  0.4286216E-03
  0.1204082E+01  0.0000000E+00  0.1020408E+00 -0.3206196E-04  0.0000000E+00  0.4044915E-03
  0.1244898E+01  0.0000000E+00  0.1020408E+00 -0.3000371E-04  0.0000000E+00  0.3818698E-03
  0.1285714E+01  0.0000000E+00  0.1020408E+00 -0.2793678E-04  0.0000000E+00  0.3607705E-03
  0.1326531E+01  0.0000000E+00  0.1020408E+00 -0.2588847E-04  0.0000000E+00  0.3411858E-03
  0.1367347E+01  0.0000000E+00  0.1020408E+00 -0.2387946E-04  0.0000000E+00  0.3230904E-03
  0.1408163E+01  0.0000000E+00  0.1020408E+00 -0.2192454E-04  0.0000000E+00  0.3064467E-03
  0.1448980E+01  0.0000000E+00  0.1020408E+00 -0.2003335E-04  0.0000000E+00  0.2912088E-03
  0.1489796E+01  0.0000000E+00  0.1020408E+00 -0.1821117E-04  0.0000000E+00  0.2773257E-03
  0.1530612E+01  0.0000000E+00  0.1020408E+00 -0.1645973E-04  0.0000000E+00  0.2647445E-03
  0.1571429E+01  0.0000000E+00  0.1020408E+00 -0.1477794E-04  0.0000000E+00  0.2534124E-03
  0.1612245E+01  0.0000000E+00  0.1020408E+00 -0.1316259E-04  0.0000000E+00  0.2432786E-03
  0.1653061E+01  0.0000000E+00  0.1020408E+00 -0.1160897E-04  0.0000000E+00  0.2342955E-03
  0.1693878E+01  0.0000000E+00  0.1020408E+00 -0.1011134E-04  0.0000000E+00  0.2264199E-03
  0.1734694E+01  0.0000000E+00  0.1020408E+00 -0.8663387E-05  0.0000000E+00  0.2196128E-03
  0.1775510E+01  0.0000000E+00  0.1020408E+00 -0.7258452E-05  0.0000000E+00  0.2138403E-03
  0.1816326E+01  0.0000000E+00  0.1020408E+00 -0.5889777E-05  0.0000000E+00  0.2090735E-03
  0.1857143E+01  0.0000000E+00  0.1020408E+00 -0.4550608E-05  0.0000000E+00  0.2052885E-03
  0.1897959E+01  0.0000000E+00  0.1020408E+00 -0.3234259E-05  0.0000000E+00  0.2024663E-03
  0.1938776E+01  0.0000000E+00  0.1020408E+00 -0.1934132E-05  0.0000000E+00  0.2005926E-03
  0.1989796E+01  0.0000000E+00  0.1020408E+00 -0.6437121E-06  0.0000000E+00  0.1996580E-03
  0.2040816E-01  0.0000000E+00  0.1428571E+00  0.5565232E-06  0.0000000E+00  0.8986894E-03
  0.6122449E-01  0.0000000E+00  0.1428571E+00  0.1567173E-05  0.0000000E+00  0.8994322E-03
  0.1020408E+00  0.0000000E+00  0.1428571E+00  0.2274280E-05  0.0000000E+00  0.9008016E-03
  0.1428571E+00  0.0000000E+00  0.1428571E+00  0.2492588E-05  0.0000000E+00  0.9025705E-03
  0.1836735E+00  0.0000000E+00  0.1428571E+00  0.2063099E-05  0.0000000E+00  0.9044121E-03
  0.2244898E+00  0.0000000E+00  0.1428571E+00  0.8627560E-06  0.0000000E+00  0.9059171E-03
  0.2653061E+00  0.0000000E+00  0.1428571E+00 -0.1186380E-05  0.0000000E+00  0.9066165E-03
  0.3061225E+00  0.0000000E+00  0.1428571E+00 -0.4109755E-05  0.0000000E+00  0.9060088E-03
  0.3469388E+00  0.0000000E+00  0.1428571E+00 -0.7875845E-05  0.0000000E+00  0.9035923E-03
  0.3877551E+00  0.0000000E+00  0.1428571E+00 -0.1239562E-04  0.0000000E+00  0.8988993E-03
  0.4285714E+00  0.0000000E+00  0.1428571E+00 -0.1752682E-04  0.0000000E+00  0.8915285E-03
  0.4693878E+00  0.0000000E+00  0.1428571E+00 -0.2308330E-04  0.0000000E+00  0.8811755E-03
  0.5102041E+00  0.0000000E+00  0.1428571E+00 -0.2884886E-04  0.0000000E+00  0.8676547E-03
  0.5510204E+00  0.0000000E+00  0.1428571E+00 -0.3459413E-04  0.0000000E+00  0.8509127E-03
  0.5918368E+00  0.0000000E+00  0.1428571E+00 -0.4009461E-04  0.0000000E+00  0.8310305E-03
  0.6326531E+00  0.0000000E+00  0.1428571E+00 -0.4514726E-04  0.0000000E+00  0.8082140E-03
  0.6734694E+00  0.0000000E+00  0.1428571E+00 -0.4958398E-04  0.0000000E+00  0.7827767E-03
  0.7142857E+00  0.0000000E+00  0.1428571E+00 -0.5328031E-04  0.0000000E+00  0.7551144E-03
  0.7551020E+00  0.0000000E+00  0.1428571E+00 -0.5615913E-04  0.0000000E+00  0.7256771E-03
  0.7959183E+00  0.0000000E+00  0.1428571E+00 -0.5818952E-04  0.0000000E+00  0.6949412E-03
  0.8367347E+00  0.0000000E+00  0.1428571E+00 -0.5938193E-04  0.0000000E+00  0.6633830E-03
  0.8775510E+00  0.0000000E+00  0.1428571E+00 -0.5978080E-04  0.0000000E+00  0.6314576E-03
  0.9183673E+00  0.0000000E+00  0.1428571E+00 -0.5945602E-04  0.0000000E+00  0.5995828E-03
  0.9591837E+00  0.0000000E+00  0.1428571E+00 -0.5849432E-04  0.0000000E+00  0.5681276E-03
  0.1000000E+01  0.0000000E+00  0.1428571E+00 -0.5699142E-04  0.0000000E+00  0.5374067E-03
  0.1040816E+01  0.0000000E+00  0.1428571E+00 -0.5504533E-04  0.0000000E+00  0.5076785E-03
  0.1081633E+01  0.0000000E+00  0.1428571E+00 -0.5275124E-04  0.0000000E+00  0.4791467E-03
  0.1122449E+01  0.0000000E+00  0.1428571E+00 -0.5019773E-04  0.0000000E+00  0.4519636E-03
  0.1163265E+01  0.0000000E+00  0.1428571E+00 -0.4746433E-04  0.0000000E+00  0.4262356E-03
  0.1204082E+01  0.0000000E+00  0.1428571E+00 -0.4462021E-04  0.0000000E+00  0.4020292E-03
  0.1244898E+01  0.0000000E+00  0.1428571E+00 -0.4172367E-04  0.0000000E+00  0.3793772E-03
  0.1285714E+01  0.0000000E+00  0.1428571E+00 -0.3882229E-04  0.0000000E+00  0.3582849E-03
  0.1326531E+01  0.0000000E+00  0.1428571E+00 -0.3595345E-04  0.0000000E+00  0.3387359E-03
  0.1367347E+01  0.0000000E+00  0.1428571E+00 -0.3314525E-04  0.0000000E+00  0.3206975E-03
  0.1408163E+01  0.0000000E+00  0.1428571E+00 -0.3041746E-04  0.0000000E+00  0.3041253E-03
  0.1448980E+01  0.0000000E+00  0.1428571E+00 -0.2778269E-04  0.0000000E+00  0.2889678E-03
  0.1489796E+01  0.0000000E+00  0.1428571E+00 -0.2524749E-04  0.0000000E+00  0.2751692E-03
  0.1530612E+01  0.0000000E+00  0.1428571E+00 -0.2281349E-04  0.0000000E+00  0.2626726E-03
  0.1571429E+01  0.0000000E+00  0.1428571E+00 -0.2047847E-04  0.0000000E+00  0.2514225E-03
  0.1612245E+01  0.0000000E+00  0.1428571E+00 -0.1823738E-04  0.0000000E+00  0.2413658E-03
  0.1653061E+01  0.0000000E+00  0.1428571E+00 -0.1608314E-04  0.0000000E+00  0.2324535E-03
  0.1693878E+01  0.0000000E+00  0.1428571E+00 -0.1400738E-04  0.0000000E+00  0.2246413E-03
  0.1734694E+01  0.0000000E+00  0.1428571E+00 -0.1200101E-04  0.0000000E+00  0.2178897E-03
  0.1775510E+01  0.0000000E+00  0.1428571E+00 -0.1005458E-04  0.0000000E+00  0.2121648E-03
  0.1816326E+01  0.0000000E+00  0.1428571E+00 -0.8158559E-05  0.0000000E+00  0.2074374E-03
  0.1857143E+01  0.0000000E+00  0.1428571E+00 -0.6303501E-05  0.0000000E+00  0.2036837E-03
  0.1897959E+01  0.0000000E+00  0.1428571E+00 -0.4480084E-05  0.0000000E+00  0.2008848E-03
  0.1938776E+01  0.0000000E+00  0.1428571E+00 -0.2679142E-05  0.0000000E+00  0.1990266E-03
  0.1989796E+01  0.0000000E+00  0.1428571E+00 -0.8916342E-06  0.0000000E+00  0.1980998E-03
  0.2040816E-01  0.0000000E+00  0.1836735E+00  0.8260958E-06  0.0000000E+00  0.8974466E-03
  0.6122449E-01  0.0000000E+00  0.1836735E+00  0.2343112E-05  0.0000000E+00  0.8984243E-03
  0.1020408E+00  0.0000000E+00  0.1836735E+00  0.3459480E-05  0.0000000E+00  0.9002516E-03
  0.1428571E+00  0.0000000E+00  0.1836735E+00  0.3929735E-05  0.0000000E+00  0.9026777E-03
  0.1836735E+00  0.0000000E+00  0.1836735E+00  0.3541869E-05  0.0000000E+00  0.9053403E-03
  0.2244898E+00  0.0000000E+00  0.1836735E+00  0.2130218E-05  0.0000000E+00  0.9077835E-03
  0.2653061E+00  0.0000000E+00  0.1836735E+00 -0.4119651E-06  0.0000000E+00  0.9094817E-03
  0.3061225E+00  0.0000000E+00  0.1836735E+00 -0.4121963E-05  0.0000000E+00  0.9098702E-03
  0.3469388E+00  0.0000000E+00  0.1836735E+00 -0.8960632E-05  0.0000000E+00  0.9083807E-03
  0.3877551E+00  0.0000000E+00  0.1836735E+00 -0.1481080E-04  0.0000000E+00  0.9044803E-03
  0.4285714E+00  0.0000000E+00  0.1836735E+00 -0.2148235E-04  0.0000000E+00  0.8977113E-03
  0.4693878E+00  0.0000000E+00  0.1836735E+00 -0.2872466E-04  0.0000000E+00  0.8877257E-03
  0.5102041E+00  0.0000000E+00  0.1836735E+00 -0.3624567E-04  0.0000000E+00  0.8743126E-03
  0.5510204E+00  0.0000000E+00  0.1836735E+00 -0.4373558E-04  0.0000000E+00  0.8574140E-03
  0.5918368E+00  0.0000000E+00  0.1836735E+00 -0.5089216E-04  0.0000000E+00  0.8371266E-03
  0.6326531E+00  0.0000000E+00  0.1836735E+00 -0.5744409E-04  0.0000000E+00  0.8136899E-03
  0.6734694E+00  0.0000000E+00  0.1836735E+00 -0.6316947E-04  0.0000000E+00  0.7874637E-03
  0.7142857E+00  0.0000000E+00  0.1836735E+00 -0.6790738E-04  0.0000000E+00  0.7588974E-03
  0.7551020E+00  0.0000000E+00  0.1836735E+00 -0.7156208E-04  0.0000000E+00  0.7284959E-03
  0.7959183E+00  0.0000000E+00  0.1836735E+00 -0.7410046E-04  0.0000000E+00  0.6967861E-03
  0.8367347E+00  0.0000000E+00  0.1836735E+00 -0.7554448E-04  0.0000000E+00  0.6642882E-03
  0.8775510E+00  0.0000000E+00  0.1836735E+00 -0.7596028E-04  0.0000000E+00  0.6314913E-03
  0.9183673E+00  0.0000000E+00  0.1836735E+00 -0.7544616E-04  0.0000000E+00  0.5988370E-03
  0.9591837E+00  0.0000000E+00  0.1836735E+00 -0.7412073E-04  0.0000000E+00  0.5667087E-03
  0.1000000E+01  0.0000000E+00  0.1836735E+00 -0.7211240E-04  0.0000000E+00  0.5354271E-03
  0.1040816E+01  0.0000000E+00  0.1836735E+00 -0.6955075E-04  0.0000000E+00  0.5052498E-03
  0.1081633E+01  0.0000000E+00  0.1836735E+00 -0.6656001E-04  0.0000000E+00  0.4763743E-03
  0.1122449E+01  0.0000000E+00  0.1836735E+00 -0.6325452E-04  0.0000000E+00  0.4489438E-03
  0.1163265E+01  0.0000000E+00  0.1836735E+00 -0.5973590E-04  0.0000000E+00  0.4230533E-03
  0.1204082E+01  0.0000000E+00  0.1836735E+00 -0.5609171E-04  0.0000000E+00  0.3987569E-03
  0.1244898E+01  0.0000000E+00  0.1836735E+00 -0.5239503E-04  0.0000000E+00  0.3760750E-03
  0.1285714E+01  0.0000000E+00  0.1836735E+00 -0.4870493E-04  0.0000000E+00  0.3550007E-03
  0.1326531E+01  0.0000000E+00  0.1836735E+00 -0.4506733E-04  0.0000000E+00  0.3355066E-03
  0.1367347E+01  0.0000000E+00  0.1836735E+00 -0.4151626E-04  0.0000000E+00  0.3175499E-03
  0.1408163E+01  0.0000000E+00  0.1836735E+00 -0.3807519E-04  0.0000000E+00  0.3010776E-03
  0.1448980E+01  0.0000000E+00  0.1836735E+00 -0.3475851E-04  0.0000000E+00  0.2860303E-03
  0.1489796E+01  0.0000000E+00  0.1836735E+00 -0.3157304E-04  0.0000000E+00  0.2723462E-03
  0.1530612E+01  0.0000000E+00  0.1836735E+00 -0.2851949E-04  0.0000000E+00  0.2599636E-03
  0.1571429E+01  0.0000000E+00  0.1836735E+00 -0.2559388E-04  0.0000000E+00  0.2488229E-03
  0.1612245E+01  0.0000000E+00  0.1836735E+00 -0.2278875E-04  0.0000000E+00  0.2388686E-03
  0.1653061E+01  0.0000000E+00  0.1836735E+00 -0.2009435E-04  0.0000000E+00  0.2300497E-03
  0.1693878E+01  0.0000000E+00  0.1836735E+00 -0.1749947E-04  0.0000000E+00  0.2223210E-03
  0.1734694E+01  0.0000000E+00  0.1836735E+00 -0.1499219E-04  0.0000000E+00  0.2156423E-03
  0.1775510E+01  0.0000000E+00  0.1836735E+00 -0.1256031E-04  0.0000000E+00  0.2099795E-03
  0.1816326E+01  0.0000000E+00  0.1836735E+00 -0.1019168E-04  0.0000000E+00  0.2053035E-03
  0.1857143E+01  0.0000000E+00  0.1836735E+00 -0.7874316E-05  0.0000000E+00  0.2015906E-03
  0.1897959E+01  0.0000000E+00  0.1836735E+00 -0.5596512E-05  0.0000000E+00  0.1988221E-03
  0.1938776E+01  0.0000000E+00  0.1836735E+00 -0.3346776E-05  0.0000000E+00  0.1969841E-03
  0.1989796E+01  0.0000000E+00  0.1836735E+00 -0.1113804E-05  0.0000000E+00  0.1960673E-03
  0.2040816E-01  0.0000000E+00  0.2244898E+00  0.1179261E-05  0.0000000E+00  0.8956318E-03
  0.6122449E-01  0.0000000E+00  0.2244898E+00  0.3367415E-05  0.0000000E+00  0.8969114E-03
  0.1020408E+00  0.0000000E+00  0.2244898E+00  0.5050394E-05  0.0000000E+00  0.8993279E-03
  0.1428571E+00  0.0000000E+00  0.2244898E+00  0.5917040E-05  0.0000000E+00  0.9026013E-03
  0.1836735E+00  0.0000000E+00  0.2244898E+00  0.5696304E-05  0.0000000E+00  0.9063252E-03
  0.2244898E+00  0.0000000E+00  0.2244898E+00  0.4173612E-05  0.0000000E+00  0.9099850E-03
  0.2653061E+00  0.0000000E+00  0.2244898E+00  0.1207507E-05  0.0000000E+00  0.9129829E-03
  0.3061225E+00  0.0000000E+00  0.2244898E+00 -0.3255642E-05  0.0000000E+00  0.9146717E-03
  0.3469388E+00  0.0000000E+00  0.2244898E+00 -0.9171035E-05  0.0000000E+00  0.9143950E-03
  0.3877551E+00  0.0000000E+00  0.2244898E+00 -0.1639171E-04  0.0000000E+00  0.9115340E-03
  0.4285714E+00  0.0000000E+00  0.2244898E+00 -0.2467394E-04  0.0000000E+00  0.9055539E-03
  0.4693878E+00  0.0000000E+00  0.2244898E+00 -0.3369297E-04  0.0000000E+00  0.8960483E-03
  0.5102041E+00  0.0000000E+00  0.2244898E+00 -0.4306851E-04  0.0000000E+00  0.8827723E-03
  0.5510204E+00  0.0000000E+00  0.2244898E+00 -0.5239708E-04  0.0000000E+00  0.8656625E-03
  0.5918368E+00  0.0000000E+00  0.2244898E+00 -0.6128676E-04  0.0000000E+00  0.8448382E-03
  0.6326531E+00  0.0000000E+00  0.2244898E+00 -0.6938907E-04  0.0000000E+00  0.8205858E-03
  0.6734694E+00  0.0000000E+00  0.2244898E+00 -0.7642363E-04  0.0000000E+00  0.7933291E-03
  0.7142857E+00  0.0000000E+00  0.2244898E+00 -0.8219280E-04  0.0000000E+00  0.7635903E-03
  0.7551020E+00  0.0000000E+00  0.2244898E+00 -0.8658573E-04  0.0000000E+00  0.7319474E-03
  0.7959183E+00  0.0000000E+00  0.2244898E+00 -0.8957336E-04  0.0000000E+00  0.6989943E-03
  0.8367347E+00  0.0000000E+00  0.2244898E+00 -0.9119665E-04  0.0000000E+00  0.6653068E-03
  0.8775510E+00  0.0000000E+00  0.2244898E+00 -0.9155117E-04  0.0000000E+00  0.6314166E-03
  0.9183673E+00  0.0000000E+00  0.2244898E+00 -0.9077053E-04  0.0000000E+00  0.5977938E-03
  0.9591837E+00  0.0000000E+00  0.2244898E+00 -0.8901083E-04  0.0000000E+00  0.5648377E-03
  0.1000000E+01  0.0000000E+00  0.2244898E+00 -0.8643722E-04  0.0000000E+00  0.5328741E-03
  0.1040816E+01  0.0000000E+00  0.2244898E+00 -0.8321333E-04  0.0000000E+00  0.5021573E-03
  0.1081633E+01  0.0000000E+00  0.2244898E+00 -0.7949362E-04  0.0000000E+00  0.4728756E-03
  0.1122449E+01  0.0000000E+00  0.2244898E+00 -0.7541823E-04  0.0000000E+00  0.4451589E-03
  0.1163265E+01  0.0000000E+00  0.2244898E+00 -0.7111017E-04  0.0000000E+00  0.4190868E-03
  0.1204082E+01  0.0000000E+00  0.2244898E+00 -0.6667410E-04  0.0000000E+00  0.3946973E-03
  0.1244898E+01  0.0000000E+00  0.2244898E+00 -0.6219638E-04  0.0000000E+00  0.3719947E-03
  0.1285714E+01  0.0000000E+00  0.2244898E+00 -0.5774594E-04  0.0000000E+00  0.3509571E-03
  0.1326531E+01  0.0000000E+00  0.2244898E+00 -0.5337559E-04  0.0000000E+00  0.3315431E-03
  0.1367347E+01  0.0000000E+00  0.2244898E+00 -0.4912373E-04  0.0000000E+00  0.3136975E-03
  0.1408163E+01  0.0000000E+00  0.2244898E+00 -0.4501607E-04  0.0000000E+00  0.2973563E-03
  0.1448980E+01  0.0000000E+00  0.2244898E+00 -0.4106750E-04  0.0000000E+00  0.2824513E-03
  0.1489796E+01  0.0000000E+00  0.2244898E+00 -0.3728395E-04  0.0000000E+00  0.2689130E-03
  0.1530612E+01  0.0000000E+00  0.2244898E+00 -0.3366421E-04  0.0000000E+00  0.2566738E-03
  0.1571429E+01  0.0000000E+00  0.2244898E+00 -0.3020164E-04  0.0000000E+00  0.2456697E-03
  0.1612245E+01  0.0000000E+00  0.2244898E+00 -0.2688577E-04  0.0000000E+00  0.2358422E-03
  0.1653061E+01  0.0000000E+00  0.2244898E+00 -0.2370365E-04  0.0000000E+00  0.2271383E-03
  0.1693878E+01  0.0000000E+00  0.2244898E+00 -0.2064096E-04  0.0000000E+00  0.2195116E-03
  0.1734694E+01  0.0000000E+00  0.2244898E+00 -0.1768279E-04  0.0000000E+00  0.2129217E-03
  0.1775510E+01  0.0000000E+00  0.2244898E+00 -0.1481419E-04  0.0000000E+00  0.2073343E-03
  0.1816326E+01  0.0000000E+00  0.2244898E+00 -0.1202047E-04  0.0000000E+00  0.2027204E-03
  0.1857143E+01  0.0000000E+00  0.2244898E+00 -0.9287321E-05  0.0000000E+00  0.1990568E-03
  0.1897959E+01  0.0000000E+00  0.2244898E+00 -0.6600813E-05  0.0000000E+00  0.1963250E-03
  0.1938776E+01  0.0000000E+00  0.2244898E+00 -0.3947371E-05  0.0000000E+00  0.1945113E-03
  0.1989796E+01  0.0000000E+00  0.2244898E+00 -0.1313668E-05  0.0000000E+00  0.1936066E-03
  0.2040816E-01  0.0000000E+00  0.2653061E+00  0.1638432E-05  0.0000000E+00  0.8930620E-03
  0.6122449E-01  0.0000000E+00  0.2653061E+00  0.4706405E-05  0.0000000E+00  0.8947164E-03
  0.1020408E+00  0.0000000E+00  0.2653061E+00  0.7154398E-05  0.0000000E+00  0.8978658E-03
  0.1428571E+00  0.0000000E+00  0.2653061E+00  0.8597826E-05  0.0000000E+00  0.9021961E-03
  0.1836735E+00  0.0000000E+00  0.2653061E+00  0.8697917E-05  0.0000000E+00  0.9072488E-03
  0.2244898E+00  0.0000000E+00  0.2653061E+00  0.7181896E-05  0.0000000E+00  0.9124380E-03
  0.2653061E+00  0.0000000E+00  0.2653061E+00  0.3864639E-05  0.0000000E+00  0.9170772E-03
  0.3061225E+00  0.0000000E+00  0.2653061E+00 -0.1330951E-05  0.0000000E+00  0.9204151E-03
  0.3469388E+00  0.0000000E+00  0.2653061E+00 -0.8357917E-05  0.0000000E+00  0.9216826E-03
  0.3877551E+00  0.0000000E+00  0.2653061E+00 -0.1703765E-04  0.0000000E+00  0.9201479E-03
  0.4285714E+00  0.0000000E+00  0.2653061E+00 -0.2706454E-04  0.0000000E+00  0.9151752E-03
  0.4693878E+00  0.0000000E+00  0.2653061E+00 -0.3802538E-04  0.0000000E+00  0.9062799E-03
  0.5102041E+00  0.0000000E+00  0.2653061E+00 -0.4943287E-04  0.0000000E+00  0.8931724E-03
  0.5510204E+00  0.0000000E+00  0.2653061E+00 -0.6076962E-04  0.0000000E+00  0.8757829E-03
  0.5918368E+00  0.0000000E+00  0.2653061E+00 -0.7153566E-04  0.0000000E+00  0.8542632E-03
  0.6326531E+00  0.0000000E+00  0.2653061E+00 -0.8129184E-04  0.0000000E+00  0.8289643E-03
  0.6734694E+00  0.0000000E+00  0.2653061E+00 -0.8969226E-04  0.0000000E+00  0.8003972E-03
  0.7142857E+00  0.0000000E+00  0.2653061E+00 -0.9650214E-04  0.0000000E+00  0.7691807E-03
  0.7551020E+00  0.0000000E+00  0.2653061E+00 -0.1016008E-03  0.0000000E+00  0.7359885E-03
  0.7959183E+00  0.0000000E+00  0.2653061E+00 -0.1049720E-03  0.0000000E+00  0.7014995E-03
  0.8367347E+00  0.0000000E+00  0.2653061E+00 -0.1066866E-03  0.0000000E+00  0.6663587E-03
  0.8775510E+00  0.0000000E+00  0.2653061E+00 -0.1068803E-03  0.0000000E+00  0.6311479E-03
  0.9183673E+00  0.0000000E+00  0.2653061E+00 -0.1057314E-03  0.0000000E+00  0.5963695E-03
  0.9591837E+00  0.0000000E+00  0.2653061E+00 -0.1034413E-03  0.0000000E+00  0.5624384E-03
  0.1000000E+01  0.0000000E+00  0.2653061E+00 -0.1002173E-03  0.0000000E+00  0.5296832E-03
  0.1040816E+01  0.0000000E+00  0.2653061E+00 -0.9626042E-04  0.0000000E+00  0.4983505E-03
  0.1081633E+01  0.0000000E+00  0.2653061E+00 -0.9175704E-04  0.0000000E+00  0.4686148E-03
  0.1122449E+01  0.0000000E+00  0.2653061E+00 -0.8687340E-04  0.0000000E+00  0.4405876E-03
  0.1163265E+01  0.0000000E+00  0.2653061E+00 -0.8175314E-04  0.0000000E+00  0.4143286E-03
  0.1204082E+01  0.0000000E+00  0.2653061E+00 -0.7651675E-04  0.0000000E+00  0.3898552E-03
  0.1244898E+01  0.0000000E+00  0.2653061E+00 -0.7126220E-04  0.0000000E+00  0.3671520E-03
  0.1285714E+01  0.0000000E+00  0.2653061E+00 -0.6606648E-04  0.0000000E+00  0.3461787E-03
  0.1326531E+01  0.0000000E+00  0.2653061E+00 -0.6098752E-04  0.0000000E+00  0.3268774E-03