title = "dataset feddes"
variables = "x", "y", "z", "h_w", "p_w", "s_w", "theta_w", "transp", "evap"
zone t = "Flow variables, solution time =  6.000E+01 days        " i =   50, j =   50, k =    1,  f=point
  0.0000000E+00  0.0000000E+00  0.0000000E+00  0.0000000E+00  0.0000000E+00  0.1000000E+01  0.4280000E+00  0.0000000E+00  0.0000000E+00
  0.4081633E-01  0.0000000E+00  0.0000000E+00  0.0000000E+00  0.0000000E+00  0.1000000E+01  0.4280000E+00  0.0000000E+00  0.0000000E+00
  0.8163265E-01  0.0000000E+00  0.0000000E+00  0.0000000E+00  0.0000000E+00  0.1000000E+01  0.4280000E+00  0.0000000E+00  0.0000000E+00
  0.1224490E+00  0.0000000E+00  0.0000000E+00  0.0000000E+00  0.0000000E+00  0.1000000E+01  0.4280000E+00  0.0000000E+00  0.0000000E+00
  0.1632653E+00  0.0000000E+00  0.0000000E+00  0.0000000E+00  0.0000000E+00  0.1000000E+01  0.4280000E+00  0.0000000E+00  0.0000000E+00
  0.2040816E+00  0.0000000E+00  0.0000000E+00  0.0000000E+00  0.0000000E+00  0.1000000E+01  0.4280000E+00  0.0000000E+00  0.0000000E+00
  0.2448980E+00  0.0000000E+00  0.0000000E+00  0.0000000E+00  0.0000000E+00  0.1000000E+01  0.4280000E+00  0.0000000E+00  0.0000000E+00
  0.2857143E+00  0.0000000E+00  0.0000000E+00  0.0000000E+00  0.0000000E+00  0.1000000E+01  0.4280000E+00  0.0000000E+00  0.0000000E+00
  0.3265306E+00  0.0000000E+00  0.0000000E+00  0.0000000E+00  0.0000000E+00  0.1000000E+01  0.4280000E+00  0.0000000E+00  0.0000000E+00
  0.3673469E+00  0.0000000E+00  0.0000000E+00  0.0000000E+00  0.0000000E+00  0.1000000E+01  0.4280000E+00  0.0000000E+00  0.0000000E+00
  0.4081633E+00  0.0000000E+00  0.0000000E+00  0.0000000E+00  0.0000000E+00  0.1000000E+01  0.4280000E+00  0.0000000E+00  0.0000000E+00
  0.4489796E+00  0.0000000E+00  0.0000000E+00  0.0000000E+00  0.0000000E+00  0.1000000E+01  0.4280000E+00  0.0000000E+00  0.0000000E+00
  0.4897959E+00  0.0000000E+00  0.0000000E+00  0.0000000E+00  0.0000000E+00  0.1000000E+01  0.4280000E+00  0.0000000E+00  0.0000000E+00
  0.5306122E+00  0.0000000E+00  0.0000000E+00  0.0000000E+00  0.0000000E+00  0.1000000E+01  0.4280000E+00  0.0000000E+00  0.0000000E+00
  0.5714286E+00  0.0000000E+00  0.0000000E+00  0.0000000E+00  0.0000000E+00  0.1000000E+01  0.4280000E+00  0.0000000E+00  0.0000000E+00
  0.6122449E+00  0.0000000E+00  0.0000000E+00  0.0000000E+00  0.0000000E+00  0.1000000E+01  0.4280000E+00  0.0000000E+00  0.0000000E+00
  0.6530612E+00  0.0000000E+00  0.0000000E+00  0.0000000E+00  0.0000000E+00  0.1000000E+01  0.4280000E+00  0.0000000E+00  0.0000000E+00
  0.6938776E+00  0.0000000E+00  0.0000000E+00  0.0000000E+00  0.0000000E+00  0.1000000E+01  0.4280000E+00  0.0000000E+00  0.0000000E+00
  0.7346939E+00  0.0000000E+00  0.0000000E+00  0.0000000E+00  0.0000000E+00  0.1000000E+01  0.4280000E+00  0.0000000E+00  0.0000000E+00
  0.7755102E+00  0.0000000E+00  0.0000000E+00  0.0000000E+00  0.0000000E+00  0.1000000E+01  0.4280000E+00  0.0000000E+00  0.0000000E+00
  0.8163265E+00  0.0000000E+00  0.0000000E+00  0.0000000E+00  0.0000000E+00  0.1000000E+01  0.4280000E+00  0.0000000E+00  0.0000000E+00
  0.8571429E+00  0.0000000E+00  0.0000000E+00  0.0000000E+00  0.0000000E+00  0.1000000E+01  0.4280000E+00  0.0000000E+00  0.0000000E+00
  0.8979592E+00  0.0000000E+00  0.0000000E+00  0.0000000E+00  0.0000000E+00  0.1000000E+01  0.4280000E+00  0.0000000E+00  0.0000000E+00
  0.9387755E+00  0.0000000E+00  0.0000000E+00  0.0000000E+00  0.0000000E+00  0.1000000E+01  0.4280000E+00  0.0000000E+00  0.0000000E+00
  0.9795918E+00  0.0000000E+00  0.0000000E+00  0.0000000E+00  0.0000000E+00  0.1000000E+01  0.4280000E+00  0.0000000E+00  0.0000000E+00
  0.1020408E+01  0.0000000E+00  0.0000000E+00  0.0000000E+00  0.0000000E+00  0.1000000E+01  0.4280000E+00  0.0000000E+00  0.0000000E+00
  0.1061224E+01  0.0000000E+00  0.0000000E+00  0.0000000E+00  0.0000000E+00  0.1000000E+01  0.4280000E+00  0.0000000E+00  0.0000000E+00
  0.1102041E+01  0.0000000E+00  0.0000000E+00  0.0000000E+00  0.0000000E+00  0.1000000E+01  0.4280000E+00  0.0000000E+00  0.0000000E+00
  0.1142857E+01  0.0000000E+00  0.0000000E+00  0.0000000E+00  0.0000000E+00  0.1000000E+01  0.4280000E+00  0.0000000E+00  0.0000000E+00
  0.1183673E+01  0.0000000E+00  0.0000000E+00  0.0000000E+00  0.0000000E+00  0.1000000E+01  0.4280000E+00  0.0000000E+00  0.0000000E+00
  0.1224490E+01  0.0000000E+00  0.0000000E+00  0.0000000E+00  0.0000000E+00  0.1000000E+01  0.4280000E+00  0.0000000E+00  0.0000000E+00
  0.1265306E+01  0.0000000E+00  0.0000000E+00  0.0000000E+00  0.0000000E+00  0.1000000E+01  0.4280000E+00  0.0000000E+00  0.0000000E+00
  0.1306122E+01  0.0000000E+00  0.0000000E+00  0.0000000E+00  0.0000000E+00  0.1000000E+01  0.4280000E+00  0.0000000E+00  0.0000000E+00
  0.1346939E+01  0.0000000E+00  0.0000000E+00  0.0000000E+00  0.0000000E+00  0.1000000E+01  0.4280000E+00  0.0000000E+00  0.0000000E+00
  0.1387755E+01  0.0000000E+00  0.0000000E+00  0.0000000E+00  0.0000000E+00  0.1000000E+01  0.4280000E+00  0.0000000E+00  0.0000000E+00
  0.1428571E+01  0.0000000E+00  0.0000000E+00  0.0000000E+00  0.0000000E+00  0.1000000E+01  0.4280000E+00  0.0000000E+00  0.0000000E+00
  0.1469388E+01  0.0000000E+00  0.0000000E+00  0.0000000E+00  0.0000000E+00  0.1000000E+01  0.4280000E+00  0.0000000E+00  0.0000000E+00
  0.1510204E+01  0.0000000E+00  0.0000000E+00  0.0000000E+00  0.0000000E+00  0.1000000E+01  0.4280000E+00  0.0000000E+00  0.0000000E+00
  0.1551020E+01  0.0000000E+00  0.0000000E+00  0.0000000E+00  0.0000000E+00  0.1000000E+01  0.4280000E+00  0.0000000E+00  0.0000000E+00
  0.1591837E+01  0.0000000E+00  0.0000000E+00  0.0000000E+00  0.0000000E+00  0.1000000E+01  0.4280000E+00  0.0000000E+00  0.0000000E+00
  0.1632653E+01  0.0000000E+00  0.0000000E+00  0.0000000E+00  0.0000000E+00  0.1000000E+01  0.4280000E+00  0.0000000E+00  0.0000000E+00
  0.1673469E+01  0.0000000E+00  0.0000000E+00  0.0000000E+00  0.0000000E+00  0.1000000E+01  0.4280000E+00  0.0000000E+00  0.0000000E+00
  0.1714286E+01  0.0000000E+00  0.0000000E+00  0.0000000E+00  0.0000000E+00  0.1000000E+01  0.4280000E+00  0.0000000E+00  0.0000000E+00
  0.1755102E+01  0.0000000E+00  0.0000000E+00  0.0000000E+00  0.0000000E+00  0.1000000E+01  0.4280000E+00  0.0000000E+00  0.0000000E+00
  0.1795918E+01  0.0000000E+00  0.0000000E+00  0.0000000E+00  0.0000000E+00  0.1000000E+01  0.4280000E+00  0.0000000E+00  0.0000000E+00
  0.1836735E+01  0.0000000E+00  0.0000000E+00  0.0000000E+00  0.0000000E+00  0.1000000E+01  0.4280000E+00  0.0000000E+00  0.0000000E+00
  0.1877551E+01  0.0000000E+00  0.0000000E+00  0.0000000E+00  0.0000000E+00  0.1000000E+01  0.4280000E+00  0.0000000E+00  0.0000000E+00
  0.1918367E+01  0.0000000E+00  0.0000000E+00  0.0000000E+00  0.0000000E+00  0.1000000E+01  0.4280000E+00  0.0000000E+00  0.0000000E+00
  0.1959184E+01  0.0000000E+00  0.0000000E+00  0.0000000E+00  0.0000000E+00  0.1000000E+01  0.4280000E+00  0.0000000E+00  0.0000000E+00
  0.2000000E+01  0.0000000E+00  0.0000000E+00  0.0000000E+00  0.0000000E+00  0.1000000E+01  0.4280000E+00  0.0000000E+00  0.0000000E+00
  0.0000000E+00  0.0000000E+00  0.4081633E-01 -0.1005822E-03 -0.4091691E-01  0.9960477E+00  0.4263084E+00  0.0000000E+00  0.0000000E+00
  0.4081633E-01  0.0000000E+00  0.4081633E-01 -0.1006058E-03 -0.4091693E-01  0.9960477E+00  0.4263084E+00  0.0000000E+00  0.0000000E+00
  0.8163265E-01  0.0000000E+00  0.4081633E-01 -0.1006711E-03 -0.4091700E-01  0.9960477E+00  0.4263084E+00  0.0000000E+00  0.0000000E+00
  0.1224490E+00  0.0000000E+00  0.4081633E-01 -0.1007610E-03 -0.4091709E-01  0.9960477E+00  0.4263084E+00  0.0000000E+00  0.0000000E+00
  0.1632653E+00  0.0000000E+00  0.4081633E-01 -0.1008487E-03 -0.4091718E-01  0.9960476E+00  0.4263084E+00  0.0000000E+00  0.0000000E+00
  0.2040816E+00  0.0000000E+00  0.4081633E-01 -0.1008985E-03 -0.4091723E-01  0.9960476E+00  0.4263084E+00  0.0000000E+00  0.0000000E+00
  0.2448980E+00  0.0000000E+00  0.4081633E-01 -0.1008679E-03 -0.4091719E-01  0.9960476E+00  0.4263084E+00  0.0000000E+00  0.0000000E+00
  0.2857143E+00  0.0000000E+00  0.4081633E-01 -0.1007105E-03 -0.4091704E-01  0.9960477E+00  0.4263084E+00  0.0000000E+00  0.0000000E+00
  0.3265306E+00  0.0000000E+00  0.4081633E-01 -0.1003787E-03 -0.4091671E-01  0.9960477E+00  0.4263084E+00  0.0000000E+00  0.0000000E+00
  0.3673469E+00  0.0000000E+00  0.4081633E-01 -0.9982668E-04 -0.4091615E-01  0.9960478E+00  0.4263085E+00  0.0000000E+00  0.0000000E+00
  0.4081633E+00  0.0000000E+00  0.4081633E-01 -0.9901360E-04 -0.4091534E-01  0.9960479E+00  0.4263085E+00  0.0000000E+00  0.0000000E+00
  0.4489796E+00  0.0000000E+00  0.4081633E-01 -0.9790642E-04 -0.4091423E-01  0.9960480E+00  0.4263086E+00  0.0000000E+00  0.0000000E+00
  0.4897959E+00  0.0000000E+00  0.4081633E-01 -0.9648219E-04 -0.4091281E-01  0.9960482E+00  0.4263086E+00  0.0000000E+00  0.0000000E+00
  0.5306122E+00  0.0000000E+00  0.4081633E-01 -0.9472960E-04 -0.4091106E-01  0.9960485E+00  0.4263087E+00  0.0000000E+00  0.0000000E+00
  0.5714286E+00  0.0000000E+00  0.4081633E-01 -0.9264972E-04 -0.4090898E-01  0.9960487E+00  0.4263089E+00  0.0000000E+00  0.0000000E+00
  0.6122449E+00  0.0000000E+00  0.4081633E-01 -0.9025578E-04 -0.4090658E-01  0.9960490E+00  0.4263090E+00  0.0000000E+00  0.0000000E+00
  0.6530612E+00  0.0000000E+00  0.4081633E-01 -0.8757214E-04 -0.4090390E-01  0.9960494E+00  0.4263091E+00  0.0000000E+00  0.0000000E+00
  0.6938776E+00  0.0000000E+00  0.4081633E-01 -0.8463251E-04 -0.4090096E-01  0.9960498E+00  0.4263093E+00  0.0000000E+00  0.0000000E+00
  0.7346939E+00  0.0000000E+00  0.4081633E-01 -0.8147773E-04 -0.4089780E-01  0.9960502E+00  0.4263095E+00  0.0000000E+00  0.0000000E+00
  0.7755102E+00  0.0000000E+00  0.4081633E-01 -0.7815328E-04 -0.4089448E-01  0.9960506E+00  0.4263097E+00  0.0000000E+00  0.0000000E+00
  0.8163265E+00  0.0000000E+00  0.4081633E-01 -0.7470680E-04 -0.4089103E-01  0.9960511E+00  0.4263099E+00  0.0000000E+00  0.0000000E+00
  0.8571429E+00  0.0000000E+00  0.4081633E-01 -0.7118584E-04 -0.4088751E-01  0.9960516E+00  0.4263101E+00  0.0000000E+00  0.0000000E+00
  0.8979592E+00  0.0000000E+00  0.4081633E-01 -0.6763594E-04 -0.4088396E-01  0.9960520E+00  0.4263103E+00  0.0000000E+00  0.0000000E+00
  0.9387755E+00  0.0000000E+00  0.4081633E-01 -0.6409909E-04 -0.4088043E-01  0.9960525E+00  0.4263105E+00  0.0000000E+00  0.0000000E+00
  0.9795918E+00  0.0000000E+00  0.4081633E-01 -0.6061271E-04 -0.4087694E-01  0.9960530E+00  0.4263107E+00  0.0000000E+00  0.0000000E+00
  0.1020408E+01  0.0000000E+00  0.4081633E-01 -0.5720904E-04 -0.4087354E-01  0.9960534E+00  0.4263109E+00  0.0000000E+00  0.0000000E+00
  0.1061224E+01  0.0000000E+00  0.4081633E-01 -0.5391482E-04 -0.4087024E-01  0.9960538E+00  0.4263110E+00  0.0000000E+00  0.0000000E+00
  0.1102041E+01  0.0000000E+00  0.4081633E-01 -0.5075143E-04 -0.4086708E-01  0.9960543E+00  0.4263112E+00  0.0000000E+00  0.0000000E+00
  0.1142857E+01  0.0000000E+00  0.4081633E-01 -0.4773511E-04 -0.4086406E-01  0.9960547E+00  0.4263114E+00  0.0000000E+00  0.0000000E+00
  0.1183673E+01  0.0000000E+00  0.4081633E-01 -0.4487743E-04 -0.4086120E-01  0.9960550E+00  0.4263116E+00  0.0000000E+00  0.0000000E+00
  0.1224490E+01  0.0000000E+00  0.4081633E-01 -0.4218586E-04 -0.4085851E-01  0.9960554E+00  0.4263117E+00  0.0000000E+00  0.0000000E+00
  0.1265306E+01  0.0000000E+00  0.4081633E-01 -0.3966433E-04 -0.4085599E-01  0.9960557E+00  0.4263118E+00  0.0000000E+00  0.0000000E+00
  0.1306122E+01  0.0000000E+00  0.4081633E-01 -0.3731385E-04 -0.4085364E-01  0.9960560E+00  0.4263120E+00  0.0000000E+00  0.0000000E+00
  0.1346939E+01  0.0000000E+00  0.4081633E-01 -0.3513314E-04 -0.4085146E-01  0.9960563E+00  0.4263121E+00  0.0000000E+00  0.0000000E+00
  0.1387755E+01  0.0000000E+00  0.4081633E-01 -0.3311913E-04 -0.4084945E-01  0.9960566E+00  0.4263122E+00  0.0000000E+00  0.0000000E+00
  0.1428571E+01  0.0000000E+00  0.4081633E-01 -0.3126752E-04 -0.4084759E-01  0.9960568E+00  0.4263123E+00  0.0000000E+00  0.0000000E+00
  0.1469388E+01  0.0000000E+00  0.4081633E-01 -0.2957317E-04 -0.4084590E-01  0.9960571E+00  0.4263124E+00  0.0000000E+00  0.0000000E+00
  0.1510204E+01  0.0000000E+00  0.4081633E-01 -0.2803054E-04 -0.4084436E-01  0.9960573E+00  0.4263125E+00  0.0000000E+00  0.0000000E+00
  0.1551020E+01  0.0000000E+00  0.4081633E-01 -0.2663395E-04 -0.4084296E-01  0.9960574E+00  0.4263126E+00  0.0000000E+00  0.0000000E+00
  0.1591837E+01  0.0000000E+00  0.4081633E-01 -0.2537787E-04 -0.4084170E-01  0.9960576E+00  0.4263127E+00  0.0000000E+00  0.0000000E+00
  0.1632653E+01  0.0000000E+00  0.4081633E-01 -0.2425706E-04 -0.4084058E-01  0.9960578E+00  0.4263127E+00  0.0000000E+00  0.0000000E+00
  0.1673469E+01  0.0000000E+00  0.4081633E-01 -0.2326672E-04 -0.4083959E-01  0.9960579E+00  0.4263128E+00  0.0000000E+00  0.0000000E+00
  0.1714286E+01  0.0000000E+00  0.4081633E-01 -0.2240257E-04 -0.4083873E-01  0.9960580E+00  0.4263128E+00  0.0000000E+00  0.0000000E+00
  0.1755102E+01  0.0000000E+00  0.4081633E-01 -0.2166086E-04 -0.4083799E-01  0.9960581E+00  0.4263129E+00  0.0000000E+00  0.0000000E+00
  0.1795918E+01  0.0000000E+00  0.4081633E-01 -0.2103843E-04 -0.4083736E-01  0.9960582E+00  0.4263129E+00  0.0000000E+00  0.0000000E+00
  0.1836735E+01  0.0000000E+00  0.4081633E-01 -0.2053262E-04 -0.4083686E-01  0.9960582E+00  0.4263129E+00  0.0000000E+00  0.0000000E+00
  0.1877551E+01  0.0000000E+00  0.4081633E-01 -0.2014134E-04 -0.4083647E-01  0.9960583E+00  0.4263130E+00  0.0000000E+00  0.0000000E+00
  0.1918367E+01  0.0000000E+00  0.4081633E-01 -0.1986298E-04 -0.4083619E-01  0.9960583E+00  0.4263130E+00  0.0000000E+00  0.0000000E+00
  0.1959184E+01  0.0000000E+00  0.4081633E-01 -0.1969639E-04 -0.4083602E-01  0.9960584E+00  0.4263130E+00  0.0000000E+00  0.0000000E+00
  0.2000000E+01  0.0000000E+00  0.4081633E-01 -0.1964091E-04 -0.4083597E-01  0.9960584E+00  0.4263130E+00  0.0000000E+00  0.0000000E+00
  0.0000000E+00  0.0000000E+00  0.8163265E-01 -0.3164722E-03 -0.8194913E-01  0.9898532E+00  0.4236572E+00  0.0000000E+00  0.0000000E+00
  0.4081633E-01  0.0000000E+00  0.8163265E-01 -0.3165524E-03 -0.8194921E-01  0.9898532E+00  0.4236572E+00  0.0000000E+00  0.0000000E+00
  0.8163265E-01  0.0000000E+00  0.8163265E-01 -0.3167745E-03 -0.8194943E-01  0.9898531E+00  0.4236571E+00  0.0000000E+00  0.0000000E+00
  0.1224490E+00  0.0000000E+00  0.8163265E-01 -0.3170848E-03 -0.8194974E-01  0.9898531E+00  0.4236571E+00  0.0000000E+00  0.0000000E+00
  0.1632653E+00  0.0000000E+00  0.8163265E-01 -0.3173967E-03 -0.8195005E-01  0.9898530E+00  0.4236571E+00  0.0000000E+00  0.0000000E+00
  0.2040816E+00  0.0000000E+00  0.8163265E-01 -0.3175957E-03 -0.8195025E-01  0.9898530E+00  0.4236571E+00  0.0000000E+00  0.0000000E+00
  0.2448980E+00  0.0000000E+00  0.8163265E-01 -0.3175459E-03 -0.8195020E-01  0.9898530E+00  0.4236571E+00  0.0000000E+00  0.0000000E+00
  0.2857143E+00  0.0000000E+00  0.8163265E-01 -0.3170980E-03 -0.8194975E-01  0.9898531E+00  0.4236571E+00  0.0000000E+00  0.0000000E+00
  0.3265306E+00  0.0000000E+00  0.8163265E-01 -0.3160990E-03 -0.8194875E-01  0.9898532E+00  0.4236572E+00  0.0000000E+00  0.0000000E+00
  0.3673469E+00  0.0000000E+00  0.8163265E-01 -0.3144016E-03 -0.8194705E-01  0.9898535E+00  0.4236573E+00  0.0000000E+00  0.0000000E+00
  0.4081633E+00  0.0000000E+00  0.8163265E-01 -0.3118745E-03 -0.8194453E-01  0.9898540E+00  0.4236575E+00  0.0000000E+00  0.0000000E+00
  0.4489796E+00  0.0000000E+00  0.8163265E-01 -0.3084114E-03 -0.8194106E-01  0.9898545E+00  0.4236577E+00  0.0000000E+00  0.0000000E+00
  0.4897959E+00  0.0000000E+00  0.8163265E-01 -0.3039384E-03 -0.8193659E-01  0.9898553E+00  0.4236581E+00  0.0000000E+00  0.0000000E+00
  0.5306122E+00  0.0000000E+00  0.8163265E-01 -0.2984193E-03 -0.8193107E-01  0.9898562E+00  0.4236584E+00  0.0000000E+00  0.0000000E+00
  0.5714286E+00  0.0000000E+00  0.8163265E-01 -0.2918576E-03 -0.8192451E-01  0.9898573E+00  0.4236589E+00  0.0000000E+00  0.0000000E+00
  0.6122449E+00  0.0000000E+00  0.8163265E-01 -0.2842962E-03 -0.8191695E-01  0.9898585E+00  0.4236595E+00  0.0000000E+00  0.0000000E+00
  0.6530612E+00  0.0000000E+00  0.8163265E-01 -0.2758136E-03 -0.8190847E-01  0.9898600E+00  0.4236601E+00  0.0000000E+00  0.0000000E+00
  0.6938776E+00  0.0000000E+00  0.8163265E-01 -0.2665183E-03 -0.8189917E-01  0.9898615E+00  0.4236607E+00  0.0000000E+00  0.0000000E+00
  0.7346939E+00  0.0000000E+00  0.8163265E-01 -0.2565414E-03 -0.8188919E-01  0.9898632E+00  0.4236614E+00  0.0000000E+00  0.0000000E+00
  0.7755102E+00  0.0000000E+00  0.8163265E-01 -0.2460285E-03 -0.8187868E-01  0.9898649E+00  0.4236622E+00  0.0000000E+00  0.0000000E+00
  0.8163265E+00  0.0000000E+00  0.8163265E-01 -0.2351320E-03 -0.8186779E-01  0.9898667E+00  0.4236630E+00  0.0000000E+00  0.0000000E+00
  0.8571429E+00  0.0000000E+00  0.8163265E-01 -0.2240035E-03 -0.8185666E-01  0.9898686E+00  0.4236638E+00  0.0000000E+00  0.0000000E+00
  0.8979592E+00  0.0000000E+00  0.8163265E-01 -0.2127880E-03 -0.8184544E-01  0.9898705E+00  0.4236646E+00  0.0000000E+00  0.0000000E+00
  0.9387755E+00  0.0000000E+00  0.8163265E-01 -0.2016185E-03 -0.8183427E-01  0.9898723E+00  0.4236653E+00  0.0000000E+00  0.0000000E+00
  0.9795918E+00  0.0000000E+00  0.8163265E-01 -0.1906136E-03 -0.8182327E-01  0.9898741E+00  0.4236661E+00  0.0000000E+00  0.0000000E+00
  0.1020408E+01  0.0000000E+00  0.8163265E-01 -0.1798748E-03 -0.8181253E-01  0.9898759E+00  0.4236669E+00  0.0000000E+00  0.0000000E+00
  0.1061224E+01  0.0000000E+00  0.8163265E-01 -0.1694863E-03 -0.8180214E-01  0.9898777E+00  0.4236676E+00  0.0000000E+00  0.0000000E+00
  0.1102041E+01  0.0000000E+00  0.8163265E-01 -0.1595150E-03 -0.8179217E-01  0.9898793E+00  0.4236684E+00  0.0000000E+00  0.0000000E+00
  0.1142857E+01  0.0000000E+00  0.8163265E-01 -0.1500116E-03 -0.8178266E-01  0.9898809E+00  0.4236690E+00  0.0000000E+00  0.0000000E+00
  0.1183673E+01  0.0000000E+00  0.8163265E-01 -0.1410118E-03 -0.8177366E-01  0.9898824E+00  0.4236697E+00  0.0000000E+00  0.0000000E+00
  0.1224490E+01  0.0000000E+00  0.8163265E-01 -0.1325385E-03 -0.8176519E-01  0.9898838E+00  0.4236703E+00  0.0000000E+00  0.0000000E+00
  0.1265306E+01  0.0000000E+00  0.8163265E-01 -0.1246034E-03 -0.8175726E-01  0.9898851E+00  0.4236708E+00  0.0000000E+00  0.0000000E+00
  0.1306122E+01  0.0000000E+00  0.8163265E-01 -0.1172090E-03 -0.8174986E-01  0.9898864E+00  0.4236714E+00  0.0000000E+00  0.0000000E+00
  0.1346939E+01  0.0000000E+00  0.8163265E-01 -0.1103508E-03 -0.8174300E-01  0.9898875E+00  0.4236719E+00  0.0000000E+00  0.0000000E+00
  0.1387755E+01  0.0000000E+00  0.8163265E-01 -0.1040185E-03 -0.8173667E-01  0.9898886E+00  0.4236723E+00  0.0000000E+00  0.0000000E+00
  0.1428571E+01  0.0000000E+00  0.8163265E-01 -0.9819801E-04 -0.8173085E-01  0.9898895E+00  0.4236727E+00  0.0000000E+00  0.0000000E+00
  0.1469388E+01  0.0000000E+00  0.8163265E-01 -0.9287291E-04 -0.8172553E-01  0.9898904E+00  0.4236731E+00  0.0000000E+00  0.0000000E+00
  0.1510204E+01  0.0000000E+00  0.8163265E-01 -0.8802533E-04 -0.8172068E-01  0.9898912E+00  0.4236734E+00  0.0000000E+00  0.0000000E+00
  0.1551020E+01  0.0000000E+00  0.8163265E-01 -0.8363717E-04 -0.8171629E-01  0.9898920E+00  0.4236738E+00  0.0000000E+00  0.0000000E+00
  0.1591837E+01  0.0000000E+00  0.8163265E-01 -0.7969079E-04 -0.8171234E-01  0.9898926E+00  0.4236740E+00  0.0000000E+00  0.0000000E+00
  0.1632653E+01  0.0000000E+00  0.8163265E-01 -0.7616958E-04 -0.8170882E-01  0.9898932E+00  0.4236743E+00  0.0000000E+00  0.0000000E+00
  0.1673469E+01  0.0000000E+00  0.8163265E-01 -0.7305836E-04 -0.8170571E-01  0.9898937E+00  0.4236745E+00  0.0000000E+00  0.0000000E+00
  0.1714286E+01  0.0000000E+00  0.8163265E-01 -0.7034359E-04 -0.8170300E-01  0.9898942E+00  0.4236747E+00  0.0000000E+00  0.0000000E+00
  0.1755102E+01  0.0000000E+00  0.8163265E-01 -0.6801350E-04 -0.8170067E-01  0.9898946E+00  0.4236749E+00  0.0000000E+00  0.0000000E+00
  0.1795918E+01  0.0000000E+00  0.8163265E-01 -0.6605807E-04 -0.8169871E-01  0.9898949E+00  0.4236750E+00  0.0000000E+00  0.0000000E+00
  0.1836735E+01  0.0000000E+00  0.8163265E-01 -0.6446903E-04 -0.8169712E-01  0.9898951E+00  0.4236751E+00  0.0000000E+00  0.0000000E+00
  0.1877551E+01  0.0000000E+00  0.8163265E-01 -0.6323975E-04 -0.8169589E-01  0.9898953E+00  0.4236752E+00  0.0000000E+00  0.0000000E+00
  0.1918367E+01  0.0000000E+00  0.8163265E-01 -0.6236521E-04 -0.8169502E-01  0.9898955E+00  0.4236753E+00  0.0000000E+00  0.0000000E+00
  0.1959184E+01  0.0000000E+00  0.8163265E-01 -0.6184185E-04 -0.8169449E-01  0.9898956E+00  0.4236753E+00  0.0000000E+00  0.0000000E+00
  0.2000000E+01  0.0000000E+00  0.8163265E-01 -0.6166758E-04 -0.8169432E-01  0.9898956E+00  0.4236753E+00  0.0000000E+00  0.0000000E+00
  0.0000000E+00  0.0000000E+00  0.1224490E+00 -0.6064885E-03 -0.1230555E+00  0.9825463E+00  0.4205298E+00  0.0000000E+00  0.0000000E+00
  0.4081633E-01  0.0000000E+00  0.1224490E+00 -0.6066630E-03 -0.1230556E+00  0.9825463E+00  0.4205298E+00  0.0000000E+00  0.0000000E+00
  0.8163265E-01  0.0000000E+00  0.1224490E+00 -0.6071502E-03 -0.1230561E+00  0.9825462E+00  0.4205298E+00  0.0000000E+00  0.0000000E+00
  0.1224490E+00  0.0000000E+00  0.1224490E+00 -0.6078436E-03 -0.1230568E+00  0.9825461E+00  0.4205297E+00  0.0000000E+00  0.0000000E+00
  0.1632653E+00  0.0000000E+00  0.1224490E+00 -0.6085717E-03 -0.1230576E+00  0.9825459E+00  0.4205297E+00  0.0000000E+00  0.0000000E+00
  0.2040816E+00  0.0000000E+00  0.1224490E+00 -0.6091074E-03 -0.1230581E+00  0.9825458E+00  0.4205296E+00  0.0000000E+00  0.0000000E+00
  0.2448980E+00  0.0000000E+00  0.1224490E+00 -0.6091808E-03 -0.1230582E+00  0.9825458E+00  0.4205296E+00  0.0000000E+00  0.0000000E+00
  0.2857143E+00  0.0000000E+00  0.1224490E+00 -0.6084953E-03 -0.1230575E+00  0.9825460E+00  0.4205297E+00  0.0000000E+00  0.0000000E+00
  0.3265306E+00  0.0000000E+00  0.1224490E+00 -0.6067457E-03 -0.1230557E+00  0.9825463E+00  0.4205298E+00  0.0000000E+00  0.0000000E+00
  0.3673469E+00  0.0000000E+00  0.1224490E+00 -0.6036385E-03 -0.1230526E+00  0.9825469E+00  0.4205301E+00  0.0000000E+00  0.0000000E+00
  0.4081633E+00  0.0000000E+00  0.1224490E+00 -0.5989114E-03 -0.1230479E+00  0.9825478E+00  0.4205304E+00  0.0000000E+00  0.0000000E+00
  0.4489796E+00  0.0000000E+00  0.1224490E+00 -0.5923522E-03 -0.1230413E+00  0.9825490E+00  0.4205310E+00  0.0000000E+00  0.0000000E+00
  0.4897959E+00  0.0000000E+00  0.1224490E+00 -0.5838133E-03 -0.1230328E+00  0.9825506E+00  0.4205317E+00  0.0000000E+00  0.0000000E+00
  0.5306122E+00  0.0000000E+00  0.1224490E+00 -0.5732229E-03 -0.1230222E+00  0.9825526E+00  0.4205325E+00  0.0000000E+00  0.0000000E+00
  0.5714286E+00  0.0000000E+00  0.1224490E+00 -0.5605887E-03 -0.1230096E+00  0.9825549E+00  0.4205335E+00  0.0000000E+00  0.0000000E+00
  0.6122449E+00  0.0000000E+00  0.1224490E+00 -0.5459969E-03 -0.1229950E+00  0.9825577E+00  0.4205347E+00  0.0000000E+00  0.0000000E+00
  0.6530612E+00  0.0000000E+00  0.1224490E+00 -0.5296049E-03 -0.1229786E+00  0.9825607E+00  0.4205360E+00  0.0000000E+00  0.0000000E+00
  0.6938776E+00  0.0000000E+00  0.1224490E+00 -0.5116290E-03 -0.1229606E+00  0.9825641E+00  0.4205374E+00  0.0000000E+00  0.0000000E+00
  0.7346939E+00  0.0000000E+00  0.1224490E+00 -0.4923301E-03 -0.1229413E+00  0.9825677E+00  0.4205390E+00  0.0000000E+00  0.0000000E+00
  0.7755102E+00  0.0000000E+00  0.1224490E+00 -0.4719966E-03 -0.1229210E+00  0.9825715E+00  0.4205406E+00  0.0000000E+00  0.0000000E+00
  0.8163265E+00  0.0000000E+00  0.1224490E+00 -0.4509291E-03 -0.1228999E+00  0.9825755E+00  0.4205423E+00  0.0000000E+00  0.0000000E+00
  0.8571429E+00  0.0000000E+00  0.1224490E+00 -0.4294255E-03 -0.1228784E+00  0.9825795E+00  0.4205440E+00  0.0000000E+00  0.0000000E+00
  0.8979592E+00  0.0000000E+00  0.1224490E+00 -0.4077689E-03 -0.1228567E+00  0.9825836E+00  0.4205458E+00  0.0000000E+00  0.0000000E+00
  0.9387755E+00  0.0000000E+00  0.1224490E+00 -0.3862185E-03 -0.1228352E+00  0.9825876E+00  0.4205475E+00  0.0000000E+00  0.0000000E+00
  0.9795918E+00  0.0000000E+00  0.1224490E+00 -0.3650035E-03 -0.1228140E+00  0.9825916E+00  0.4205492E+00  0.0000000E+00  0.0000000E+00
  0.1020408E+01  0.0000000E+00  0.1224490E+00 -0.3443196E-03 -0.1227933E+00  0.9825954E+00  0.4205508E+00  0.0000000E+00  0.0000000E+00
  0.1061224E+01  0.0000000E+00  0.1224490E+00 -0.3243277E-03 -0.1227733E+00  0.9825992E+00  0.4205525E+00  0.0000000E+00  0.0000000E+00
  0.1102041E+01  0.0000000E+00  0.1224490E+00 -0.3051549E-03 -0.1227541E+00  0.9826028E+00  0.4205540E+00  0.0000000E+00  0.0000000E+00
  0.1142857E+01  0.0000000E+00  0.1224490E+00 -0.2868965E-03 -0.1227359E+00  0.9826062E+00  0.4205555E+00  0.0000000E+00  0.0000000E+00
  0.1183673E+01  0.0000000E+00  0.1224490E+00 -0.2696191E-03 -0.1227186E+00  0.9826094E+00  0.4205568E+00  0.0000000E+00  0.0000000E+00
  0.1224490E+01  0.0000000E+00  0.1224490E+00 -0.2533640E-03 -0.1227023E+00  0.9826125E+00  0.4205581E+00  0.0000000E+00  0.0000000E+00
  0.1265306E+01  0.0000000E+00  0.1224490E+00 -0.2381515E-03 -0.1226871E+00  0.9826153E+00  0.4205594E+00  0.0000000E+00  0.0000000E+00
  0.1306122E+01  0.0000000E+00  0.1224490E+00 -0.2239842E-03 -0.1226730E+00  0.9826180E+00  0.4205605E+00  0.0000000E+00  0.0000000E+00
  0.1346939E+01  0.0000000E+00  0.1224490E+00 -0.2108510E-03 -0.1226598E+00  0.9826204E+00  0.4205615E+00  0.0000000E+00  0.0000000E+00
  0.1387755E+01  0.0000000E+00  0.1224490E+00 -0.1987306E-03 -0.1226477E+00  0.9826227E+00  0.4205625E+00  0.0000000E+00  0.0000000E+00
  0.1428571E+01  0.0000000E+00  0.1224490E+00 -0.1875943E-03 -0.1226366E+00  0.9826248E+00  0.4205634E+00  0.0000000E+00  0.0000000E+00
  0.1469388E+01  0.0000000E+00  0.1224490E+00 -0.1774091E-03 -0.1226264E+00  0.9826267E+00  0.4205642E+00  0.0000000E+00  0.0000000E+00
  0.1510204E+01  0.0000000E+00  0.1224490E+00 -0.1681396E-03 -0.1226171E+00  0.9826284E+00  0.4205650E+00  0.0000000E+00  0.0000000E+00
  0.1551020E+01  0.0000000E+00  0.1224490E+00 -0.1597502E-03 -0.1226087E+00  0.9826300E+00  0.4205656E+00  0.0000000E+00  0.0000000E+00
  0.1591837E+01  0.0000000E+00  0.1224490E+00 -0.1522064E-03 -0.1226012E+00  0.9826314E+00  0.4205662E+00  0.0000000E+00  0.0000000E+00
  0.1632653E+01  0.0000000E+00  0.1224490E+00 -0.1454758E-03 -0.1225945E+00  0.9826327E+00  0.4205668E+00  0.0000000E+00  0.0000000E+00
  0.1673469E+01  0.0000000E+00  0.1224490E+00 -0.1395292E-03 -0.1225885E+00  0.9826338E+00  0.4205673E+00  0.0000000E+00  0.0000000E+00
  0.1714286E+01  0.0000000E+00  0.1224490E+00 -0.1343403E-03 -0.1225833E+00  0.9826348E+00  0.4205677E+00  0.0000000E+00  0.0000000E+00
  0.1755102E+01  0.0000000E+00  0.1224490E+00 -0.1298866E-03 -0.1225789E+00  0.9826356E+00  0.4205680E+00  0.0000000E+00  0.0000000E+00
  0.1795918E+01  0.0000000E+00  0.1224490E+00 -0.1261490E-03 -0.1225751E+00  0.9826363E+00  0.4205683E+00  0.0000000E+00  0.0000000E+00
  0.1836735E+01  0.0000000E+00  0.1224490E+00 -0.1231115E-03 -0.1225721E+00  0.9826369E+00  0.4205686E+00  0.0000000E+00  0.0000000E+00
  0.1877551E+01  0.0000000E+00  0.1224490E+00 -0.1207617E-03 -0.1225697E+00  0.9826373E+00  0.4205688E+00  0.0000000E+00  0.0000000E+00
  0.1918367E+01  0.0000000E+00  0.1224490E+00 -0.1190899E-03 -0.1225681E+00  0.9826376E+00  0.4205689E+00  0.0000000E+00  0.0000000E+00
  0.1959184E+01  0.0000000E+00  0.1224490E+00 -0.1180895E-03 -0.1225671E+00  0.9826378E+00  0.4205690E+00  0.0000000E+00  0.0000000E+00
  0.2000000E+01  0.0000000E+00  0.1224490E+00 -0.1177563E-03 -0.1225667E+00  0.9826379E+00  0.4205690E+00  0.0000000E+00  0.0000000E+00
  0.0000000E+00  0.0000000E+00  0.1632653E+00 -0.9733272E-03 -0.1642386E+00  0.9745361E+00  0.4171014E+00  0.0000000E+00  0.0000000E+00
  0.4081633E-01  0.0000000E+00  0.1632653E+00 -0.9736574E-03 -0.1642390E+00  0.9745360E+00  0.4171014E+00  0.0000000E+00  0.0000000E+00
  0.8163265E-01  0.0000000E+00  0.1632653E+00 -0.9745873E-03 -0.1642399E+00  0.9745358E+00  0.4171013E+00  0.0000000E+00  0.0000000E+00
  0.1224490E+00  0.0000000E+00  0.1632653E+00 -0.9759378E-03 -0.1642412E+00  0.9745356E+00  0.4171012E+00  0.0000000E+00  0.0000000E+00
  0.1632653E+00  0.0000000E+00  0.1632653E+00 -0.9774206E-03 -0.1642427E+00  0.9745353E+00  0.4171011E+00  0.0000000E+00  0.0000000E+00
  0.2040816E+00  0.0000000E+00  0.1632653E+00 -0.9786530E-03 -0.1642440E+00  0.9745350E+00  0.4171010E+00  0.0000000E+00  0.0000000E+00
  0.2448980E+00  0.0000000E+00  0.1632653E+00 -0.9791794E-03 -0.1642445E+00  0.9745349E+00  0.4171009E+00  0.0000000E+00  0.0000000E+00
  0.2857143E+00  0.0000000E+00  0.1632653E+00 -0.9784977E-03 -0.1642438E+00  0.9745350E+00  0.4171010E+00  0.0000000E+00  0.0000000E+00
  0.3265306E+00  0.0000000E+00  0.1632653E+00 -0.9760904E-03 -0.1642414E+00  0.9745355E+00  0.4171012E+00  0.0000000E+00  0.0000000E+00
  0.3673469E+00  0.0000000E+00  0.1632653E+00 -0.9714583E-03 -0.1642368E+00  0.9745365E+00  0.4171016E+00  0.0000000E+00  0.0000000E+00
  0.4081633E+00  0.0000000E+00  0.1632653E+00 -0.9641550E-03 -0.1642295E+00  0.9745379E+00  0.4171022E+00  0.0000000E+00  0.0000000E+00
  0.4489796E+00  0.0000000E+00  0.1632653E+00 -0.9538186E-03 -0.1642191E+00  0.9745400E+00  0.4171031E+00  0.0000000E+00  0.0000000E+00
  0.4897959E+00  0.0000000E+00  0.1632653E+00 -0.9401983E-03 -0.1642055E+00  0.9745427E+00  0.4171043E+00  0.0000000E+00  0.0000000E+00
  0.5306122E+00  0.0000000E+00  0.1632653E+00 -0.9231723E-03 -0.1641885E+00  0.9745461E+00  0.4171058E+00  0.0000000E+00  0.0000000E+00
  0.5714286E+00  0.0000000E+00  0.1632653E+00 -0.9027556E-03 -0.1641681E+00  0.9745502E+00  0.4171075E+00  0.0000000E+00  0.0000000E+00
  0.6122449E+00  0.0000000E+00  0.1632653E+00 -0.8790966E-03 -0.1641444E+00  0.9745550E+00  0.4171095E+00  0.0000000E+00  0.0000000E+00
  0.6530612E+00  0.0000000E+00  0.1632653E+00 -0.8524647E-03 -0.1641178E+00  0.9745603E+00  0.4171118E+00  0.0000000E+00  0.0000000E+00
  0.6938776E+00  0.0000000E+00  0.1632653E+00 -0.8232283E-03 -0.1640885E+00  0.9745662E+00  0.4171143E+00  0.0000000E+00  0.0000000E+00
  0.7346939E+00  0.0000000E+00  0.1632653E+00 -0.7918288E-03 -0.1640571E+00  0.9745725E+00  0.4171170E+00  0.0000000E+00  0.0000000E+00