title = "dataset feddes"
variables = "time", "inflow", "outflow", "change in storage", "root water uptake" 
zone t = "mass balance -  variably saturated flow", f=point
  1.0000E-10  1.2277E+02  0.0000E+00  1.2277E+02  0.0000E+00
  6.0000E-10  1.2277E+02  0.0000E+00  1.2277E+02  0.0000E+00
  3.1000E-09  1.2277E+02  0.0000E+00  1.2277E+02  0.0000E+00
  1.5600E-08  1.2273E+02  0.0000E+00  1.2273E+02  0.0000E+00
  7.8100E-08  1.2256E+02  0.0000E+00  1.2256E+02  0.0000E+00
  3.9060E-07  1.2173E+02  0.0000E+00  1.2173E+02  0.0000E+00
  1.9531E-06  1.1779E+02  0.0000E+00  1.1779E+02  0.0000E+00
  9.7656E-06  1.0239E+02  0.0000E+00  1.0239E+02  0.0000E+00
  4.3892E-05  6.9087E+01  0.0000E+00  6.9087E+01  0.0000E+00
  9.4526E-05  4.7124E+01  0.0000E+00  4.7124E+01  0.0000E+00
  1.6916E-04  3.2093E+01  0.0000E+00  3.2093E+01  0.0000E+00
  2.8115E-04  2.1603E+01  0.0000E+00  2.1603E+01  0.0000E+00
  4.6057E-04  1.4382E+01  0.0000E+00  1.4382E+01  0.0000E+00
  7.9728E-04  9.5478E+00  0.0000E+00  9.5478E+00  0.0000E+00
  1.4588E-03  6.3996E+00  0.0000E+00  6.3996E+00  0.0000E+00
  2.2143E-03  4.7666E+00  0.0000E+00  4.7666E+00  0.0000E+00
  3.2807E-03  3.6360E+00  0.0000E+00  3.6360E+00  0.0000E+00
  5.1212E-03  2.7345E+00  0.0000E+00  2.7345E+00  0.0000E+00
  7.4804E-03  2.1358E+00  0.0000E+00  2.1358E+00  0.0000E+00
