title = "dataset feddes"
variables = "x", "y", "z", "vx", "vy", "vz"
zone t = "velocities, solution time =  1.000E+01 days        " i =   49, j =   49, k =    1,  f=point
  0.2040816E-01  0.0000000E+00  0.2040816E-01  0.1225821E-07  0.0000000E+00  0.5939878E-02
  0.6122449E-01  0.0000000E+00  0.2040816E-01  0.3551652E-07  0.0000000E+00  0.5939981E-02
  0.1020408E+00  0.0000000E+00  0.2040816E-01  0.5484545E-07  0.0000000E+00  0.5940175E-02
  0.1428571E+00  0.0000000E+00  0.2040816E-01  0.6787115E-07  0.0000000E+00  0.5940440E-02
  0.1836735E+00  0.0000000E+00  0.2040816E-01  0.7252575E-07  0.0000000E+00  0.5940742E-02
  0.2244898E+00  0.0000000E+00  0.2040816E-01  0.6723004E-07  0.0000000E+00  0.5941043E-02
  0.2653061E+00  0.0000000E+00  0.2040816E-01  0.5099047E-07  0.0000000E+00  0.5941298E-02
  0.3061225E+00  0.0000000E+00  0.2040816E-01  0.2348011E-07  0.0000000E+00  0.5941458E-02
  0.3469388E+00  0.0000000E+00  0.2040816E-01 -0.1491373E-07  0.0000000E+00  0.5941477E-02
  0.3877551E+00  0.0000000E+00  0.2040816E-01 -0.6308876E-07  0.0000000E+00  0.5941309E-02
  0.4285714E+00  0.0000000E+00  0.2040816E-01 -0.1192803E-06  0.0000000E+00  0.5940916E-02
  0.4693878E+00  0.0000000E+00  0.2040816E-01 -0.1811895E-06  0.0000000E+00  0.5940269E-02
  0.5102041E+00  0.0000000E+00  0.2040816E-01 -0.2461629E-06  0.0000000E+00  0.5939348E-02
  0.5510204E+00  0.0000000E+00  0.2040816E-01 -0.3113545E-06  0.0000000E+00  0.5938147E-02
  0.5918368E+00  0.0000000E+00  0.2040816E-01 -0.3739919E-06  0.0000000E+00  0.5936671E-02
  0.6326531E+00  0.0000000E+00  0.2040816E-01 -0.4315685E-06  0.0000000E+00  0.5934936E-02
  0.6734694E+00  0.0000000E+00  0.2040816E-01 -0.4820008E-06  0.0000000E+00  0.5932968E-02
  0.7142857E+00  0.0000000E+00  0.2040816E-01 -0.5237402E-06  0.0000000E+00  0.5930802E-02
  0.7551020E+00  0.0000000E+00  0.2040816E-01 -0.5558224E-06  0.0000000E+00  0.5928477E-02
  0.7959183E+00  0.0000000E+00  0.2040816E-01 -0.5778600E-06  0.0000000E+00  0.5926035E-02
  0.8367347E+00  0.0000000E+00  0.2040816E-01 -0.5899876E-06  0.0000000E+00  0.5923519E-02
  0.8775510E+00  0.0000000E+00  0.2040816E-01 -0.5927713E-06  0.0000000E+00  0.5920972E-02
  0.9183673E+00  0.0000000E+00  0.2040816E-01 -0.5871022E-06  0.0000000E+00  0.5918431E-02
  0.9591837E+00  0.0000000E+00  0.2040816E-01 -0.5740880E-06  0.0000000E+00  0.5915930E-02
  0.1000000E+01  0.0000000E+00  0.2040816E-01 -0.5549494E-06  0.0000000E+00  0.5913498E-02
  0.1040816E+01  0.0000000E+00  0.2040816E-01 -0.5309334E-06  0.0000000E+00  0.5911159E-02
  0.1081633E+01  0.0000000E+00  0.2040816E-01 -0.5032456E-06  0.0000000E+00  0.5908932E-02
  0.1122449E+01  0.0000000E+00  0.2040816E-01 -0.4729997E-06  0.0000000E+00  0.5906829E-02
  0.1163265E+01  0.0000000E+00  0.2040816E-01 -0.4411855E-06  0.0000000E+00  0.5904860E-02
  0.1204082E+01  0.0000000E+00  0.2040816E-01 -0.4086526E-06  0.0000000E+00  0.5903029E-02
  0.1244898E+01  0.0000000E+00  0.2040816E-01 -0.3761059E-06  0.0000000E+00  0.5901339E-02
  0.1285714E+01  0.0000000E+00  0.2040816E-01 -0.3441091E-06  0.0000000E+00  0.5899788E-02
  0.1326531E+01  0.0000000E+00  0.2040816E-01 -0.3130943E-06  0.0000000E+00  0.5898372E-02
  0.1367347E+01  0.0000000E+00  0.2040816E-01 -0.2833757E-06  0.0000000E+00  0.5897088E-02
  0.1408163E+01  0.0000000E+00  0.2040816E-01 -0.2551650E-06  0.0000000E+00  0.5895928E-02
  0.1448980E+01  0.0000000E+00  0.2040816E-01 -0.2285873E-06  0.0000000E+00  0.5894886E-02
  0.1489796E+01  0.0000000E+00  0.2040816E-01 -0.2036958E-06  0.0000000E+00  0.5893955E-02
  0.1530612E+01  0.0000000E+00  0.2040816E-01 -0.1804861E-06  0.0000000E+00  0.5893127E-02
  0.1571429E+01  0.0000000E+00  0.2040816E-01 -0.1589083E-06  0.0000000E+00  0.5892396E-02
  0.1612245E+01  0.0000000E+00  0.2040816E-01 -0.1388781E-06  0.0000000E+00  0.5891755E-02
  0.1653061E+01  0.0000000E+00  0.2040816E-01 -0.1202852E-06  0.0000000E+00  0.5891197E-02
  0.1693878E+01  0.0000000E+00  0.2040816E-01 -0.1030013E-06  0.0000000E+00  0.5890716E-02
  0.1734694E+01  0.0000000E+00  0.2040816E-01 -0.8688585E-07  0.0000000E+00  0.5890307E-02
  0.1775510E+01  0.0000000E+00  0.2040816E-01 -0.7178985E-07  0.0000000E+00  0.5889965E-02
  0.1816326E+01  0.0000000E+00  0.2040816E-01 -0.5755967E-07  0.0000000E+00  0.5889686E-02
  0.1857143E+01  0.0000000E+00  0.2040816E-01 -0.4403922E-07  0.0000000E+00  0.5889468E-02
  0.1897959E+01  0.0000000E+00  0.2040816E-01 -0.3107207E-07  0.0000000E+00  0.5889306E-02
  0.1938776E+01  0.0000000E+00  0.2040816E-01 -0.1850392E-07  0.0000000E+00  0.5889199E-02
  0.1989796E+01  0.0000000E+00  0.2040816E-01 -0.6188029E-08  0.0000000E+00  0.5889146E-02
  0.2040816E-01  0.0000000E+00  0.6122449E-01  0.4197697E-07  0.0000000E+00  0.5939720E-02
  0.6122449E-01  0.0000000E+00  0.6122449E-01  0.1216511E-06  0.0000000E+00  0.5939829E-02
  0.1020408E+00  0.0000000E+00  0.6122449E-01  0.1880431E-06  0.0000000E+00  0.5940034E-02
  0.1428571E+00  0.0000000E+00  0.6122449E-01  0.2330970E-06  0.0000000E+00  0.5940313E-02
  0.1836735E+00  0.0000000E+00  0.6122449E-01  0.2498245E-06  0.0000000E+00  0.5940633E-02
  0.2244898E+00  0.0000000E+00  0.6122449E-01  0.2328600E-06  0.0000000E+00  0.5940955E-02
  0.2653061E+00  0.0000000E+00  0.6122449E-01  0.1788141E-06  0.0000000E+00  0.5941232E-02
  0.3061225E+00  0.0000000E+00  0.6122449E-01  0.8655647E-07  0.0000000E+00  0.5941415E-02
  0.3469388E+00  0.0000000E+00  0.6122449E-01 -0.4261312E-07  0.0000000E+00  0.5941454E-02
  0.3877551E+00  0.0000000E+00  0.6122449E-01 -0.2049751E-06  0.0000000E+00  0.5941303E-02
  0.4285714E+00  0.0000000E+00  0.6122449E-01 -0.3945468E-06  0.0000000E+00  0.5940924E-02
  0.4693878E+00  0.0000000E+00  0.6122449E-01 -0.6034919E-06  0.0000000E+00  0.5940286E-02
  0.5102041E+00  0.0000000E+00  0.6122449E-01 -0.8227943E-06  0.0000000E+00  0.5939369E-02
  0.5510204E+00  0.0000000E+00  0.6122449E-01 -0.1042791E-05  0.0000000E+00  0.5938165E-02
  0.5918368E+00  0.0000000E+00  0.6122449E-01 -0.1254059E-05  0.0000000E+00  0.5936681E-02
  0.6326531E+00  0.0000000E+00  0.6122449E-01 -0.1448092E-05  0.0000000E+00  0.5934934E-02
  0.6734694E+00  0.0000000E+00  0.6122449E-01 -0.1617843E-05  0.0000000E+00  0.5932950E-02
  0.7142857E+00  0.0000000E+00  0.6122449E-01 -0.1758097E-05  0.0000000E+00  0.5930765E-02
  0.7551020E+00  0.0000000E+00  0.6122449E-01 -0.1865639E-05  0.0000000E+00  0.5928420E-02
  0.7959183E+00  0.0000000E+00  0.6122449E-01 -0.1939215E-05  0.0000000E+00  0.5925958E-02
  0.8367347E+00  0.0000000E+00  0.6122449E-01 -0.1979339E-05  0.0000000E+00  0.5923423E-02
  0.8775510E+00  0.0000000E+00  0.6122449E-01 -0.1987985E-05  0.0000000E+00  0.5920858E-02
  0.9183673E+00  0.0000000E+00  0.6122449E-01 -0.1968213E-05  0.0000000E+00  0.5918301E-02
  0.9591837E+00  0.0000000E+00  0.6122449E-01 -0.1923800E-05  0.0000000E+00  0.5915786E-02
  0.1000000E+01  0.0000000E+00  0.6122449E-01 -0.1858893E-05  0.0000000E+00  0.5913343E-02
  0.1040816E+01  0.0000000E+00  0.6122449E-01 -0.1777712E-05  0.0000000E+00  0.5910995E-02
  0.1081633E+01  0.0000000E+00  0.6122449E-01 -0.1684323E-05  0.0000000E+00  0.5908761E-02
  0.1122449E+01  0.0000000E+00  0.6122449E-01 -0.1582473E-05  0.0000000E+00  0.5906654E-02
  0.1163265E+01  0.0000000E+00  0.6122449E-01 -0.1475484E-05  0.0000000E+00  0.5904683E-02
  0.1204082E+01  0.0000000E+00  0.6122449E-01 -0.1366200E-05  0.0000000E+00  0.5902851E-02
  0.1244898E+01  0.0000000E+00  0.6122449E-01 -0.1256975E-05  0.0000000E+00  0.5901162E-02
  0.1285714E+01  0.0000000E+00  0.6122449E-01 -0.1149684E-05  0.0000000E+00  0.5899612E-02
  0.1326531E+01  0.0000000E+00  0.6122449E-01 -0.1045764E-05  0.0000000E+00  0.5898198E-02
  0.1367347E+01  0.0000000E+00  0.6122449E-01 -0.9462529E-06  0.0000000E+00  0.5896916E-02
  0.1408163E+01  0.0000000E+00  0.6122449E-01 -0.8518477E-06  0.0000000E+00  0.5895759E-02
  0.1448980E+01  0.0000000E+00  0.6122449E-01 -0.7629549E-06  0.0000000E+00  0.5894721E-02
  0.1489796E+01  0.0000000E+00  0.6122449E-01 -0.6797422E-06  0.0000000E+00  0.5893793E-02
  0.1530612E+01  0.0000000E+00  0.6122449E-01 -0.6021856E-06  0.0000000E+00  0.5892969E-02
  0.1571429E+01  0.0000000E+00  0.6122449E-01 -0.5301104E-06  0.0000000E+00  0.5892241E-02
  0.1612245E+01  0.0000000E+00  0.6122449E-01 -0.4632276E-06  0.0000000E+00  0.5891602E-02
  0.1653061E+01  0.0000000E+00  0.6122449E-01 -0.4011636E-06  0.0000000E+00  0.5891047E-02
  0.1693878E+01  0.0000000E+00  0.6122449E-01 -0.3434853E-06  0.0000000E+00  0.5890568E-02
  0.1734694E+01  0.0000000E+00  0.6122449E-01 -0.2897188E-06  0.0000000E+00  0.5890162E-02
  0.1775510E+01  0.0000000E+00  0.6122449E-01 -0.2393640E-06  0.0000000E+00  0.5889822E-02
  0.1816326E+01  0.0000000E+00  0.6122449E-01 -0.1919055E-06  0.0000000E+00  0.5889545E-02
  0.1857143E+01  0.0000000E+00  0.6122449E-01 -0.1468199E-06  0.0000000E+00  0.5889327E-02
  0.1897959E+01  0.0000000E+00  0.6122449E-01 -0.1035830E-06  0.0000000E+00  0.5889166E-02
  0.1938776E+01  0.0000000E+00  0.6122449E-01 -0.6167539E-07  0.0000000E+00  0.5889060E-02
  0.1989796E+01  0.0000000E+00  0.6122449E-01 -0.2059550E-07  0.0000000E+00  0.5889007E-02
  0.2040816E-01  0.0000000E+00  0.1020408E+00  0.7761207E-07  0.0000000E+00  0.5939166E-02
  0.6122449E-01  0.0000000E+00  0.1020408E+00  0.2250503E-06  0.0000000E+00  0.5939287E-02
  0.1020408E+00  0.0000000E+00  0.1020408E+00  0.3485307E-06  0.0000000E+00  0.5939517E-02
  0.1428571E+00  0.0000000E+00  0.1020408E+00  0.4334577E-06  0.0000000E+00  0.5939831E-02
  0.1836735E+00  0.0000000E+00  0.1020408E+00  0.4671968E-06  0.0000000E+00  0.5940195E-02
  0.2244898E+00  0.0000000E+00  0.1020408E+00  0.4399784E-06  0.0000000E+00  0.5940567E-02
  0.2653061E+00  0.0000000E+00  0.1020408E+00  0.3455809E-06  0.0000000E+00  0.5940897E-02
  0.3061225E+00  0.0000000E+00  0.1020408E+00  0.1818665E-06  0.0000000E+00  0.5941132E-02
  0.3469388E+00  0.0000000E+00  0.1020408E+00 -0.4886558E-07  0.0000000E+00  0.5941221E-02
  0.3877551E+00  0.0000000E+00  0.1020408E+00 -0.3399032E-06  0.0000000E+00  0.5941113E-02
  0.4285714E+00  0.0000000E+00  0.1020408E+00 -0.6803968E-06  0.0000000E+00  0.5940767E-02
  0.4693878E+00  0.0000000E+00  0.1020408E+00 -0.1056036E-05  0.0000000E+00  0.5940149E-02
  0.5102041E+00  0.0000000E+00  0.1020408E+00 -0.1450354E-05  0.0000000E+00  0.5939239E-02
  0.5510204E+00  0.0000000E+00  0.1020408E+00 -0.1845748E-05  0.0000000E+00  0.5938030E-02
  0.5918368E+00  0.0000000E+00  0.1020408E+00 -0.2225042E-05  0.0000000E+00  0.5936527E-02
  0.6326531E+00  0.0000000E+00  0.1020408E+00 -0.2572787E-05  0.0000000E+00  0.5934749E-02
  0.6734694E+00  0.0000000E+00  0.1020408E+00 -0.2876257E-05  0.0000000E+00  0.5932727E-02
  0.7142857E+00  0.0000000E+00  0.1020408E+00 -0.3126126E-05  0.0000000E+00  0.5930498E-02
  0.7551020E+00  0.0000000E+00  0.1020408E+00 -0.3316754E-05  0.0000000E+00  0.5928105E-02
  0.7959183E+00  0.0000000E+00  0.1020408E+00 -0.3446087E-05  0.0000000E+00  0.5925594E-02
  0.8367347E+00  0.0000000E+00  0.1020408E+00 -0.3515279E-05  0.0000000E+00  0.5923013E-02
  0.8775510E+00  0.0000000E+00  0.1020408E+00 -0.3528099E-05  0.0000000E+00  0.5920404E-02
  0.9183673E+00  0.0000000E+00  0.1020408E+00 -0.3490242E-05  0.0000000E+00  0.5917809E-02
  0.9591837E+00  0.0000000E+00  0.1020408E+00 -0.3408641E-05  0.0000000E+00  0.5915262E-02
  0.1000000E+01  0.0000000E+00  0.1020408E+00 -0.3290842E-05  0.0000000E+00  0.5912792E-02
  0.1040816E+01  0.0000000E+00  0.1020408E+00 -0.3144469E-05  0.0000000E+00  0.5910424E-02
  0.1081633E+01  0.0000000E+00  0.1020408E+00 -0.2976820E-05  0.0000000E+00  0.5908174E-02
  0.1122449E+01  0.0000000E+00  0.1020408E+00 -0.2794588E-05  0.0000000E+00  0.5906057E-02
  0.1163265E+01  0.0000000E+00  0.1020408E+00 -0.2603673E-05  0.0000000E+00  0.5904080E-02
  0.1204082E+01  0.0000000E+00  0.1020408E+00 -0.2409101E-05  0.0000000E+00  0.5902246E-02
  0.1244898E+01  0.0000000E+00  0.1020408E+00 -0.2215008E-05  0.0000000E+00  0.5900557E-02
  0.1285714E+01  0.0000000E+00  0.1020408E+00 -0.2024677E-05  0.0000000E+00  0.5899011E-02
  0.1326531E+01  0.0000000E+00  0.1020408E+00 -0.1840602E-05  0.0000000E+00  0.5897602E-02
  0.1367347E+01  0.0000000E+00  0.1020408E+00 -0.1664573E-05  0.0000000E+00  0.5896326E-02
  0.1408163E+01  0.0000000E+00  0.1020408E+00 -0.1497778E-05  0.0000000E+00  0.5895177E-02
  0.1448980E+01  0.0000000E+00  0.1020408E+00 -0.1340893E-05  0.0000000E+00  0.5894145E-02
  0.1489796E+01  0.0000000E+00  0.1020408E+00 -0.1194176E-05  0.0000000E+00  0.5893225E-02
  0.1530612E+01  0.0000000E+00  0.1020408E+00 -0.1057553E-05  0.0000000E+00  0.5892408E-02
  0.1571429E+01  0.0000000E+00  0.1020408E+00 -0.9306849E-06  0.0000000E+00  0.5891688E-02
  0.1612245E+01  0.0000000E+00  0.1020408E+00 -0.8130399E-06  0.0000000E+00  0.5891056E-02
  0.1653061E+01  0.0000000E+00  0.1020408E+00 -0.7039398E-06  0.0000000E+00  0.5890507E-02
  0.1693878E+01  0.0000000E+00  0.1020408E+00 -0.6026054E-06  0.0000000E+00  0.5890034E-02
  0.1734694E+01  0.0000000E+00  0.1020408E+00 -0.5081895E-06  0.0000000E+00  0.5889632E-02
  0.1775510E+01  0.0000000E+00  0.1020408E+00 -0.4198016E-06  0.0000000E+00  0.5889296E-02
  0.1816326E+01  0.0000000E+00  0.1020408E+00 -0.3365262E-06  0.0000000E+00  0.5889023E-02
  0.1857143E+01  0.0000000E+00  0.1020408E+00 -0.2574363E-06  0.0000000E+00  0.5888808E-02
  0.1897959E+01  0.0000000E+00  0.1020408E+00 -0.1816042E-06  0.0000000E+00  0.5888650E-02
  0.1938776E+01  0.0000000E+00  0.1020408E+00 -0.1081082E-06  0.0000000E+00  0.5888545E-02
  0.1989796E+01  0.0000000E+00  0.1020408E+00 -0.3603875E-07  0.0000000E+00  0.5888493E-02
  0.2040816E-01  0.0000000E+00  0.1428571E+00  0.1161247E-06  0.0000000E+00  0.5938029E-02
  0.6122449E-01  0.0000000E+00  0.1428571E+00  0.3370522E-06  0.0000000E+00  0.5938169E-02
  0.1020408E+00  0.0000000E+00  0.1428571E+00  0.5234326E-06  0.0000000E+00  0.5938437E-02
  0.1428571E+00  0.0000000E+00  0.1428571E+00  0.6541239E-06  0.0000000E+00  0.5938806E-02
  0.1836735E+00  0.0000000E+00  0.1428571E+00  0.7107948E-06  0.0000000E+00  0.5939239E-02
  0.2244898E+00  0.0000000E+00  0.1428571E+00  0.6791466E-06  0.0000000E+00  0.5939689E-02
  0.2653061E+00  0.0000000E+00  0.1428571E+00  0.5499569E-06  0.0000000E+00  0.5940103E-02
  0.3061225E+00  0.0000000E+00  0.1428571E+00  0.3198996E-06  0.0000000E+00  0.5940422E-02
  0.3469388E+00  0.0000000E+00  0.1428571E+00 -0.7843575E-08  0.0000000E+00  0.5940588E-02
  0.3877551E+00  0.0000000E+00  0.1428571E+00 -0.4235654E-06  0.0000000E+00  0.5940547E-02
  0.4285714E+00  0.0000000E+00  0.1428571E+00 -0.9114766E-06  0.0000000E+00  0.5940252E-02
  0.4693878E+00  0.0000000E+00  0.1428571E+00 -0.1450590E-05  0.0000000E+00  0.5939666E-02
  0.5102041E+00  0.0000000E+00  0.1428571E+00 -0.2016650E-05  0.0000000E+00  0.5938768E-02
  0.5510204E+00  0.0000000E+00  0.1428571E+00 -0.2583832E-05  0.0000000E+00  0.5937548E-02
  0.5918368E+00  0.0000000E+00  0.1428571E+00 -0.3126946E-05  0.0000000E+00  0.5936015E-02
  0.6326531E+00  0.0000000E+00  0.1428571E+00 -0.3623457E-05  0.0000000E+00  0.5934189E-02
  0.6734694E+00  0.0000000E+00  0.1428571E+00 -0.4054985E-05  0.0000000E+00  0.5932106E-02
  0.7142857E+00  0.0000000E+00  0.1428571E+00 -0.4408270E-05  0.0000000E+00  0.5929806E-02
  0.7551020E+00  0.0000000E+00  0.1428571E+00 -0.4675555E-05  0.0000000E+00  0.5927337E-02
  0.7959183E+00  0.0000000E+00  0.1428571E+00 -0.4854371E-05  0.0000000E+00  0.5924751E-02
  0.8367347E+00  0.0000000E+00  0.1428571E+00 -0.4946904E-05  0.0000000E+00  0.5922097E-02
  0.8775510E+00  0.0000000E+00  0.1428571E+00 -0.4959078E-05  0.0000000E+00  0.5919421E-02
  0.9183673E+00  0.0000000E+00  0.1428571E+00 -0.4899503E-05  0.0000000E+00  0.5916767E-02
  0.9591837E+00  0.0000000E+00  0.1428571E+00 -0.4778454E-05  0.0000000E+00  0.5914169E-02
  0.1000000E+01  0.0000000E+00  0.1428571E+00 -0.4606955E-05  0.0000000E+00  0.5911659E-02
  0.1040816E+01  0.0000000E+00  0.1428571E+00 -0.4396019E-05  0.0000000E+00  0.5909259E-02
  0.1081633E+01  0.0000000E+00  0.1428571E+00 -0.4156090E-05  0.0000000E+00  0.5906986E-02
  0.1122449E+01  0.0000000E+00  0.1428571E+00 -0.3896654E-05  0.0000000E+00  0.5904854E-02
  0.1163265E+01  0.0000000E+00  0.1428571E+00 -0.3626011E-05  0.0000000E+00  0.5902867E-02
  0.1204082E+01  0.0000000E+00  0.1428571E+00 -0.3351169E-05  0.0000000E+00  0.5901031E-02
  0.1244898E+01  0.0000000E+00  0.1428571E+00 -0.3077850E-05  0.0000000E+00  0.5899343E-02
  0.1285714E+01  0.0000000E+00  0.1428571E+00 -0.2810553E-05  0.0000000E+00  0.5897801E-02
  0.1326531E+01  0.0000000E+00  0.1428571E+00 -0.2552659E-05  0.0000000E+00  0.5896401E-02
  0.1367347E+01  0.0000000E+00  0.1428571E+00 -0.2306568E-05  0.0000000E+00  0.5895134E-02
  0.1408163E+01  0.0000000E+00  0.1428571E+00 -0.2073835E-05  0.0000000E+00  0.5893995E-02
  0.1448980E+01  0.0000000E+00  0.1428571E+00 -0.1855309E-05  0.0000000E+00  0.5892975E-02
  0.1489796E+01  0.0000000E+00  0.1428571E+00 -0.1651265E-05  0.0000000E+00  0.5892066E-02
  0.1530612E+01  0.0000000E+00  0.1428571E+00 -0.1461526E-05  0.0000000E+00  0.5891261E-02
  0.1571429E+01  0.0000000E+00  0.1428571E+00 -0.1285557E-05  0.0000000E+00  0.5890551E-02
  0.1612245E+01  0.0000000E+00  0.1428571E+00 -0.1122564E-05  0.0000000E+00  0.5889930E-02
  0.1653061E+01  0.0000000E+00  0.1428571E+00 -0.9715608E-06  0.0000000E+00  0.5889390E-02
  0.1693878E+01  0.0000000E+00  0.1428571E+00 -0.8314299E-06  0.0000000E+00  0.5888925E-02
  0.1734694E+01  0.0000000E+00  0.1428571E+00 -0.7009670E-06  0.0000000E+00  0.5888531E-02
  0.1775510E+01  0.0000000E+00  0.1428571E+00 -0.5789145E-06  0.0000000E+00  0.5888202E-02
  0.1816326E+01  0.0000000E+00  0.1428571E+00 -0.4639856E-06  0.0000000E+00  0.5887934E-02
  0.1857143E+01  0.0000000E+00  0.1428571E+00 -0.3548813E-06  0.0000000E+00  0.5887723E-02
  0.1897959E+01  0.0000000E+00  0.1428571E+00 -0.2503064E-06  0.0000000E+00  0.5887568E-02
  0.1938776E+01  0.0000000E+00  0.1428571E+00 -0.1489755E-06  0.0000000E+00  0.5887465E-02
  0.1989796E+01  0.0000000E+00  0.1428571E+00 -0.4959464E-07  0.0000000E+00  0.5887414E-02
  0.2040816E-01  0.0000000E+00  0.1836735E+00  0.1603313E-06  0.0000000E+00  0.5936117E-02
  0.6122449E-01  0.0000000E+00  0.1836735E+00  0.4659763E-06  0.0000000E+00  0.5936284E-02
  0.1020408E+00  0.0000000E+00  0.1836735E+00  0.7260969E-06  0.0000000E+00  0.5936604E-02
  0.1428571E+00  0.0000000E+00  0.1836735E+00  0.9126870E-06  0.0000000E+00  0.5937048E-02
  0.1836735E+00  0.0000000E+00  0.1836735E+00  0.1001343E-05  0.0000000E+00  0.5937575E-02
  0.2244898E+00  0.0000000E+00  0.1836735E+00  0.9728174E-06  0.0000000E+00  0.5938133E-02
  0.2653061E+00  0.0000000E+00  0.1836735E+00  0.8144720E-06  0.0000000E+00  0.5938662E-02
  0.3061225E+00  0.0000000E+00  0.1836735E+00  0.5214581E-06  0.0000000E+00  0.5939096E-02
  0.3469388E+00  0.0000000E+00  0.1836735E+00  0.9766771E-07  0.0000000E+00  0.5939370E-02
  0.3877551E+00  0.0000000E+00  0.1836735E+00 -0.4440800E-06  0.0000000E+00  0.5939422E-02
  0.4285714E+00  0.0000000E+00  0.1836735E+00 -0.1082671E-05  0.0000000E+00  0.5939198E-02
  0.4693878E+00  0.0000000E+00  0.1836735E+00 -0.1789801E-05  0.0000000E+00  0.5938656E-02
  0.5102041E+00  0.0000000E+00  0.1836735E+00 -0.2532534E-05  0.0000000E+00  0.5937772E-02
  0.5510204E+00  0.0000000E+00  0.1836735E+00 -0.3275929E-05  0.0000000E+00  0.5936537E-02
  0.5918368E+00  0.0000000E+00  0.1836735E+00 -0.3985967E-05  0.0000000E+00  0.5934961E-02
  0.6326531E+00  0.0000000E+00  0.1836735E+00 -0.4632442E-05  0.0000000E+00  0.5933068E-02
  0.6734694E+00  0.0000000E+00  0.1836735E+00 -0.5191053E-05  0.0000000E+00  0.5930898E-02
  0.7142857E+00  0.0000000E+00  0.1836735E+00 -0.5644673E-05  0.0000000E+00  0.5928500E-02
  0.7551020E+00  0.0000000E+00  0.1836735E+00 -0.5983773E-05  0.0000000E+00  0.5925928E-02
  0.7959183E+00  0.0000000E+00  0.1836735E+00 -0.6206007E-05  0.0000000E+00  0.5923237E-02
  0.8367347E+00  0.0000000E+00  0.1836735E+00 -0.6315224E-05  0.0000000E+00  0.5920484E-02
  0.8775510E+00  0.0000000E+00  0.1836735E+00 -0.6320122E-05  0.0000000E+00  0.5917718E-02
  0.9183673E+00  0.0000000E+00  0.1836735E+00 -0.6232766E-05  0.0000000E+00  0.5914984E-02
  0.9591837E+00  0.0000000E+00  0.1836735E+00 -0.6067190E-05  0.0000000E+00  0.5912319E-02
  0.1000000E+01  0.0000000E+00  0.1836735E+00 -0.5838174E-05  0.0000000E+00  0.5909754E-02
  0.1040816E+01  0.0000000E+00  0.1836735E+00 -0.5560262E-05  0.0000000E+00  0.5907313E-02
  0.1081633E+01  0.0000000E+00  0.1836735E+00 -0.5247060E-05  0.0000000E+00  0.5905010E-02
  0.1122449E+01  0.0000000E+00  0.1836735E+00 -0.4910781E-05  0.0000000E+00  0.5902857E-02
  0.1163265E+01  0.0000000E+00  0.1836735E+00 -0.4561988E-05  0.0000000E+00  0.5900860E-02
  0.1204082E+01  0.0000000E+00  0.1836735E+00 -0.4209501E-05  0.0000000E+00  0.5899020E-02
  0.1244898E+01  0.0000000E+00  0.1836735E+00 -0.3860435E-05  0.0000000E+00  0.5897335E-02
  0.1285714E+01  0.0000000E+00  0.1836735E+00 -0.3520313E-05  0.0000000E+00  0.5895800E-02
  0.1326531E+01  0.0000000E+00  0.1836735E+00 -0.3193227E-05  0.0000000E+00  0.5894410E-02
  0.1367347E+01  0.0000000E+00  0.1836735E+00 -0.2882020E-05  0.0000000E+00  0.5893156E-02
  0.1408163E+01  0.0000000E+00  0.1836735E+00 -0.2588475E-05  0.0000000E+00  0.5892031E-02
  0.1448980E+01  0.0000000E+00  0.1836735E+00 -0.2313501E-05  0.0000000E+00  0.5891026E-02
  0.1489796E+01  0.0000000E+00  0.1836735E+00 -0.2057297E-05  0.0000000E+00  0.5890133E-02
  0.1530612E+01  0.0000000E+00  0.1836735E+00 -0.1819509E-05  0.0000000E+00  0.5889342E-02
  0.1571429E+01  0.0000000E+00  0.1836735E+00 -0.1599357E-05  0.0000000E+00  0.5888646E-02
  0.1612245E+01  0.0000000E+00  0.1836735E+00 -0.1395751E-05  0.0000000E+00  0.5888038E-02
  0.1653061E+01  0.0000000E+00  0.1836735E+00 -0.1207379E-05  0.0000000E+00  0.5887510E-02
  0.1693878E+01  0.0000000E+00  0.1836735E+00 -0.1032778E-05  0.0000000E+00  0.5887057E-02
  0.1734694E+01  0.0000000E+00  0.1836735E+00 -0.8703933E-06  0.0000000E+00  0.5886672E-02
  0.1775510E+01  0.0000000E+00  0.1836735E+00 -0.7186133E-06  0.0000000E+00  0.5886351E-02
  0.1816326E+01  0.0000000E+00  0.1836735E+00 -0.5757995E-06  0.0000000E+00  0.5886090E-02
  0.1857143E+01  0.0000000E+00  0.1836735E+00 -0.4403060E-06  0.0000000E+00  0.5885885E-02
  0.1897959E+01  0.0000000E+00  0.1836735E+00 -0.3104989E-06  0.0000000E+00  0.5885734E-02
  0.1938776E+01  0.0000000E+00  0.1836735E+00 -0.1847645E-06  0.0000000E+00  0.5885634E-02
  0.1989796E+01  0.0000000E+00  0.1836735E+00 -0.6145574E-07  0.0000000E+00  0.5885584E-02
  0.2040816E-01  0.0000000E+00  0.2244898E+00  0.2129368E-06  0.0000000E+00  0.5933229E-02
  0.6122449E-01  0.0000000E+00  0.2244898E+00  0.6198327E-06  0.0000000E+00  0.5933431E-02
  0.1020408E+00  0.0000000E+00  0.2244898E+00  0.9694444E-06  0.0000000E+00  0.5933818E-02
  0.1428571E+00  0.0000000E+00  0.2244898E+00  0.1226304E-05  0.0000000E+00  0.5934360E-02
  0.1836735E+00  0.0000000E+00  0.2244898E+00  0.1359253E-05  0.0000000E+00  0.5935008E-02
  0.2244898E+00  0.0000000E+00  0.2244898E+00  0.1343361E-05  0.0000000E+00  0.5935706E-02
  0.2653061E+00  0.0000000E+00  0.2244898E+00  0.1161864E-05  0.0000000E+00  0.5936385E-02
  0.3061225E+00  0.0000000E+00  0.2244898E+00  0.8078521E-06  0.0000000E+00  0.5936969E-02
  0.3469388E+00  0.0000000E+00  0.2244898E+00  0.2856402E-06  0.0000000E+00  0.5937384E-02
  0.3877551E+00  0.0000000E+00  0.2244898E+00 -0.3886698E-06  0.0000000E+00  0.5937557E-02
  0.4285714E+00  0.0000000E+00  0.2244898E+00 -0.1187943E-05  0.0000000E+00  0.5937426E-02
  0.4693878E+00  0.0000000E+00  0.2244898E+00 -0.2075445E-05  0.0000000E+00  0.5936942E-02
  0.5102041E+00  0.0000000E+00  0.2244898E+00 -0.3008045E-05  0.0000000E+00  0.5936076E-02
  0.5510204E+00  0.0000000E+00  0.2244898E+00 -0.3940099E-05  0.0000000E+00  0.5934819E-02
  0.5918368E+00  0.0000000E+00  0.2244898E+00 -0.4827332E-05  0.0000000E+00  0.5933184E-02
  0.6326531E+00  0.0000000E+00  0.2244898E+00 -0.5630800E-05  0.0000000E+00  0.5931201E-02
  0.6734694E+00  0.0000000E+00  0.2244898E+00 -0.6319740E-05  0.0000000E+00  0.5928917E-02
  0.7142857E+00  0.0000000E+00  0.2244898E+00 -0.6873161E-05  0.0000000E+00  0.5926390E-02
  0.7551020E+00  0.0000000E+00  0.2244898E+00 -0.7280215E-05  0.0000000E+00  0.5923682E-02
  0.7959183E+00  0.0000000E+00  0.2244898E+00 -0.7539453E-05  0.0000000E+00  0.5920858E-02
  0.8367347E+00  0.0000000E+00  0.2244898E+00 -0.7657304E-05  0.0000000E+00  0.5917978E-02
  0.8775510E+00  0.0000000E+00  0.2244898E+00 -0.7646164E-05  0.0000000E+00  0.5915097E-02
  0.9183673E+00  0.0000000E+00  0.2244898E+00 -0.7522373E-05  0.0000000E+00  0.5912263E-02
  0.9591837E+00  0.0000000E+00  0.2244898E+00 -0.7304365E-05  0.0000000E+00  0.5909515E-02
  0.1000000E+01  0.0000000E+00  0.2244898E+00 -0.7011132E-05  0.0000000E+00  0.5906884E-02
  0.1040816E+01  0.0000000E+00  0.2244898E+00 -0.6661016E-05  0.0000000E+00  0.5904391E-02
  0.1081633E+01  0.0000000E+00  0.2244898E+00 -0.6270889E-05  0.0000000E+00  0.5902053E-02
  0.1122449E+01  0.0000000E+00  0.2244898E+00 -0.5855666E-05  0.0000000E+00  0.5899877E-02
  0.1163265E+01  0.0000000E+00  0.2244898E+00 -0.5428060E-05  0.0000000E+00  0.5897868E-02
  0.1204082E+01  0.0000000E+00  0.2244898E+00 -0.4998535E-05  0.0000000E+00  0.5896024E-02
  0.1244898E+01  0.0000000E+00  0.2244898E+00 -0.4575402E-05  0.0000000E+00  0.5894343E-02
  0.1285714E+01  0.0000000E+00  0.2244898E+00 -0.4165004E-05  0.0000000E+00  0.5892817E-02
  0.1326531E+01  0.0000000E+00  0.2244898E+00 -0.3771945E-05  0.0000000E+00  0.5891440E-02
  0.1367347E+01  0.0000000E+00  0.2244898E+00 -0.3399332E-05  0.0000000E+00  0.5890203E-02
  0.1408163E+01  0.0000000E+00  0.2244898E+00 -0.3049019E-05  0.0000000E+00  0.5889096E-02
  0.1448980E+01  0.0000000E+00  0.2244898E+00 -0.2721838E-05  0.0000000E+00  0.5888109E-02
  0.1489796E+01  0.0000000E+00  0.2244898E+00 -0.2417803E-05  0.0000000E+00  0.5887234E-02
  0.1530612E+01  0.0000000E+00  0.2244898E+00 -0.2136297E-05  0.0000000E+00  0.5886462E-02
  0.1571429E+01  0.0000000E+00  0.2244898E+00 -0.1876230E-05  0.0000000E+00  0.5885783E-02
  0.1612245E+01  0.0000000E+00  0.2244898E+00 -0.1636168E-05  0.0000000E+00  0.5885191E-02
  0.1653061E+01  0.0000000E+00  0.2244898E+00 -0.1414442E-05  0.0000000E+00  0.5884678E-02
  0.1693878E+01  0.0000000E+00  0.2244898E+00 -0.1209232E-05  0.0000000E+00  0.5884238E-02
  0.1734694E+01  0.0000000E+00  0.2244898E+00 -0.1018627E-05  0.0000000E+00  0.5883865E-02
  0.1775510E+01  0.0000000E+00  0.2244898E+00 -0.8406684E-06  0.0000000E+00  0.5883554E-02
  0.1816326E+01  0.0000000E+00  0.2244898E+00 -0.6733801E-06  0.0000000E+00  0.5883301E-02
  0.1857143E+01  0.0000000E+00  0.2244898E+00 -0.5147877E-06  0.0000000E+00  0.5883102E-02
  0.1897959E+01  0.0000000E+00  0.2244898E+00 -0.3629419E-06  0.0000000E+00  0.5882956E-02
  0.1938776E+01  0.0000000E+00  0.2244898E+00 -0.2159287E-06  0.0000000E+00  0.5882860E-02
  0.1989796E+01  0.0000000E+00  0.2244898E+00 -0.7177978E-07  0.0000000E+00  0.5882812E-02
  0.2040816E-01  0.0000000E+00  0.2653061E+00  0.2766579E-06  0.0000000E+00  0.5929155E-02
  0.6122449E-01  0.0000000E+00  0.2653061E+00  0.8066846E-06  0.0000000E+00  0.5929399E-02
  0.1020408E+00  0.0000000E+00  0.2653061E+00  0.1266585E-05  0.0000000E+00  0.5929870E-02
  0.1428571E+00  0.0000000E+00  0.2653061E+00  0.1612584E-05  0.0000000E+00  0.5930532E-02
  0.1836735E+00  0.0000000E+00  0.2653061E+00  0.1805786E-05  0.0000000E+00  0.5931333E-02
  0.2244898E+00  0.0000000E+00  0.2653061E+00  0.1814490E-05  0.0000000E+00  0.5932207E-02
  0.2653061E+00  0.0000000E+00  0.2653061E+00  0.1616722E-05  0.0000000E+00  0.5933075E-02
  0.3061225E+00  0.0000000E+00  0.2653061E+00  0.1202639E-05  0.0000000E+00  0.5933850E-02
  0.3469388E+00  0.0000000E+00  0.2653061E+00  0.5765038E-06  0.0000000E+00  0.5934444E-02
  0.3877551E+00  0.0000000E+00  0.2653061E+00 -0.2421367E-06  0.0000000E+00  0.5934772E-02
  0.4285714E+00  0.0000000E+00  0.2653061E+00 -0.1219141E-05  0.0000000E+00  0.5934759E-02
  0.4693878E+00  0.0000000E+00  0.2653061E+00 -0.2307668E-05  0.0000000E+00  0.5934347E-02
  0.5102041E+00  0.0000000E+00  0.2653061E+00 -0.3452148E-05  0.0000000E+00  0.5933503E-02
  0.5510204E+00  0.0000000E+00  0.2653061E+00 -0.4593770E-05  0.0000000E+00  0.5932216E-02
  0.5918368E+00  0.0000000E+00  0.2653061E+00 -0.5675817E-05  0.0000000E+00  0.5930503E-02
  0.6326531E+00  0.0000000E+00  0.2653061E+00 -0.6649002E-05  0.0000000E+00  0.5928403E-02
  0.6734694E+00  0.0000000E+00  0.2653061E+00 -0.7475293E-05  0.0000000E+00  0.5925972E-02
  0.7142857E+00  0.0000000E+00  0.2653061E+00 -0.8129842E-05  0.0000000E+00  0.5923281E-02
  0.7551020E+00  0.0000000E+00  0.2653061E+00 -0.8601165E-05  0.0000000E+00  0.5920402E-02
  0.7959183E+00  0.0000000E+00  0.2653061E+00 -0.8889827E-05  0.0000000E+00  0.5917410E-02
  0.8367347E+00  0.0000000E+00  0.2653061E+00 -0.9006154E-05  0.0000000E+00  0.5914373E-02
  0.8775510E+00  0.0000000E+00  0.2653061E+00 -0.8967533E-05  0.0000000E+00  0.5911352E-02
  0.9183673E+00  0.0000000E+00  0.2653061E+00 -0.8795706E-05  0.0000000E+00  0.5908398E-02
  0.9591837E+00  0.0000000E+00  0.2653061E+00 -0.8514383E-05  0.0000000E+00  0.5905551E-02
  0.1000000E+01  0.0000000E+00  0.2653061E+00 -0.8147375E-05  0.0000000E+00  0.5902842E-02
  0.1040816E+01  0.0000000E+00  0.2653061E+00 -0.7717184E-05  0.0000000E+00  0.5900291E-02
  0.1081633E+01  0.0000000E+00  0.2653061E+00 -0.7244098E-05  0.0000000E+00  0.5897912E-02
  0.1122449E+01  0.0000000E+00  0.2653061E+00 -0.6745721E-05  0.0000000E+00  0.5895711E-02
  0.1163265E+01  0.0000000E+00  0.2653061E+00 -0.6236791E-05  0.0000000E+00  0.5893689E-02
  0.1204082E+01  0.0000000E+00  0.2653061E+00 -0.5729226E-05  0.0000000E+00  0.5891844E-02
  0.1244898E+01  0.0000000E+00  0.2653061E+00 -0.5232310E-05  0.0000000E+00  0.5890169E-02
  0.1285714E+01  0.0000000E+00  0.2653061E+00 -0.4752975E-05  0.0000000E+00  0.5888656E-02
  0.1326531E+01  0.0000000E+00  0.2653061E+00 -0.4296112E-05  0.0000000E+00  0.5887296E-02