title = "dataset feddes"
variables = "x", "y", "z", "vx", "vy", "vz"
zone t = "velocities, solution time =  3.500E+01 days        " i =   49, j =   49, k =    1,  f=point
  0.2040816E-01  0.0000000E+00  0.2040816E-01  0.3971810E-07  0.0000000E+00  0.8623026E-03
  0.6122449E-01  0.0000000E+00  0.2040816E-01  0.1102811E-06  0.0000000E+00  0.8626245E-03
  0.1020408E+00  0.0000000E+00  0.2040816E-01  0.1542128E-06  0.0000000E+00  0.8631922E-03
  0.1428571E+00  0.0000000E+00  0.2040816E-01  0.1553397E-06  0.0000000E+00  0.8638566E-03
  0.1836735E+00  0.0000000E+00  0.2040816E-01  0.9990026E-07  0.0000000E+00  0.8644044E-03
  0.2244898E+00  0.0000000E+00  0.2040816E-01 -0.2262841E-07  0.0000000E+00  0.8645703E-03
  0.2653061E+00  0.0000000E+00  0.2040816E-01 -0.2187616E-06  0.0000000E+00  0.8640522E-03
  0.3061225E+00  0.0000000E+00  0.2040816E-01 -0.4904322E-06  0.0000000E+00  0.8625300E-03
  0.3469388E+00  0.0000000E+00  0.2040816E-01 -0.8346850E-06  0.0000000E+00  0.8596859E-03
  0.3877551E+00  0.0000000E+00  0.2040816E-01 -0.1243697E-05  0.0000000E+00  0.8552251E-03
  0.4285714E+00  0.0000000E+00  0.2040816E-01 -0.1705200E-05  0.0000000E+00  0.8488959E-03
  0.4693878E+00  0.0000000E+00  0.2040816E-01 -0.2203282E-05  0.0000000E+00  0.8405072E-03
  0.5102041E+00  0.0000000E+00  0.2040816E-01 -0.2719535E-05  0.0000000E+00  0.8299415E-03
  0.5510204E+00  0.0000000E+00  0.2040816E-01 -0.3234421E-05  0.0000000E+00  0.8171628E-03
  0.5918368E+00  0.0000000E+00  0.2040816E-01 -0.3728718E-05  0.0000000E+00  0.8022184E-03
  0.6326531E+00  0.0000000E+00  0.2040816E-01 -0.4184873E-05  0.0000000E+00  0.7852342E-03
  0.6734694E+00  0.0000000E+00  0.2040816E-01 -0.4588109E-05  0.0000000E+00  0.7664059E-03
  0.7142857E+00  0.0000000E+00  0.2040816E-01 -0.4927191E-05  0.0000000E+00  0.7459848E-03
  0.7551020E+00  0.0000000E+00  0.2040816E-01 -0.5194795E-05  0.0000000E+00  0.7242619E-03
  0.7959183E+00  0.0000000E+00  0.2040816E-01 -0.5387501E-05  0.0000000E+00  0.7015515E-03
  0.8367347E+00  0.0000000E+00  0.2040816E-01 -0.5505469E-05  0.0000000E+00  0.6781747E-03
  0.8775510E+00  0.0000000E+00  0.2040816E-01 -0.5551892E-05  0.0000000E+00  0.6544456E-03
  0.9183673E+00  0.0000000E+00  0.2040816E-01 -0.5532320E-05  0.0000000E+00  0.6306592E-03
  0.9591837E+00  0.0000000E+00  0.2040816E-01 -0.5453948E-05  0.0000000E+00  0.6070834E-03
  0.1000000E+01  0.0000000E+00  0.2040816E-01 -0.5324942E-05  0.0000000E+00  0.5839530E-03
  0.1040816E+01  0.0000000E+00  0.2040816E-01 -0.5153844E-05  0.0000000E+00  0.5614669E-03
  0.1081633E+01  0.0000000E+00  0.2040816E-01 -0.4949097E-05  0.0000000E+00  0.5397877E-03
  0.1122449E+01  0.0000000E+00  0.2040816E-01 -0.4718678E-05  0.0000000E+00  0.5190426E-03
  0.1163265E+01  0.0000000E+00  0.2040816E-01 -0.4469855E-05  0.0000000E+00  0.4993261E-03
  0.1204082E+01  0.0000000E+00  0.2040816E-01 -0.4209029E-05  0.0000000E+00  0.4807034E-03
  0.1244898E+01  0.0000000E+00  0.2040816E-01 -0.3941673E-05  0.0000000E+00  0.4632143E-03
  0.1285714E+01  0.0000000E+00  0.2040816E-01 -0.3672319E-05  0.0000000E+00  0.4468770E-03
  0.1326531E+01  0.0000000E+00  0.2040816E-01 -0.3404594E-05  0.0000000E+00  0.4316923E-03
  0.1367347E+01  0.0000000E+00  0.2040816E-01 -0.3141293E-05  0.0000000E+00  0.4176471E-03
  0.1408163E+01  0.0000000E+00  0.2040816E-01 -0.2884459E-05  0.0000000E+00  0.4047180E-03
  0.1448980E+01  0.0000000E+00  0.2040816E-01 -0.2635478E-05  0.0000000E+00  0.3928744E-03
  0.1489796E+01  0.0000000E+00  0.2040816E-01 -0.2395183E-05  0.0000000E+00  0.3820806E-03
  0.1530612E+01  0.0000000E+00  0.2040816E-01 -0.2163943E-05  0.0000000E+00  0.3722986E-03
  0.1571429E+01  0.0000000E+00  0.2040816E-01 -0.1941755E-05  0.0000000E+00  0.3634896E-03
  0.1612245E+01  0.0000000E+00  0.2040816E-01 -0.1728330E-05  0.0000000E+00  0.3556152E-03
  0.1653061E+01  0.0000000E+00  0.2040816E-01 -0.1523160E-05  0.0000000E+00  0.3486390E-03
  0.1693878E+01  0.0000000E+00  0.2040816E-01 -0.1325580E-05  0.0000000E+00  0.3425269E-03
  0.1734694E+01  0.0000000E+00  0.2040816E-01 -0.1134818E-05  0.0000000E+00  0.3372480E-03
  0.1775510E+01  0.0000000E+00  0.2040816E-01 -0.9500313E-06  0.0000000E+00  0.3327749E-03
  0.1816326E+01  0.0000000E+00  0.2040816E-01 -0.7703323E-06  0.0000000E+00  0.3290839E-03
  0.1857143E+01  0.0000000E+00  0.2040816E-01 -0.5948105E-06  0.0000000E+00  0.3261549E-03
  0.1897959E+01  0.0000000E+00  0.2040816E-01 -0.4225428E-06  0.0000000E+00  0.3239722E-03
  0.1938776E+01  0.0000000E+00  0.2040816E-01 -0.2526016E-06  0.0000000E+00  0.3225237E-03
  0.1989796E+01  0.0000000E+00  0.2040816E-01 -0.8405981E-07  0.0000000E+00  0.3218014E-03
  0.2040816E-01  0.0000000E+00  0.6122449E-01  0.1395302E-06  0.0000000E+00  0.8621497E-03
  0.6122449E-01  0.0000000E+00  0.6122449E-01  0.3884638E-06  0.0000000E+00  0.8625074E-03
  0.1020408E+00  0.0000000E+00  0.6122449E-01  0.5473251E-06  0.0000000E+00  0.8631445E-03
  0.1428571E+00  0.0000000E+00  0.6122449E-01  0.5613391E-06  0.0000000E+00  0.8639083E-03
  0.1836735E+00  0.0000000E+00  0.6122449E-01  0.3838572E-06  0.0000000E+00  0.8645798E-03
  0.2244898E+00  0.0000000E+00  0.6122449E-01 -0.2085901E-07  0.0000000E+00  0.8648863E-03
  0.2653061E+00  0.0000000E+00  0.6122449E-01 -0.6750189E-06  0.0000000E+00  0.8645174E-03
  0.3061225E+00  0.0000000E+00  0.6122449E-01 -0.1585312E-05  0.0000000E+00  0.8631433E-03
  0.3469388E+00  0.0000000E+00  0.6122449E-01 -0.2741839E-05  0.0000000E+00  0.8604365E-03
  0.3877551E+00  0.0000000E+00  0.6122449E-01 -0.4118145E-05  0.0000000E+00  0.8560929E-03
  0.4285714E+00  0.0000000E+00  0.6122449E-01 -0.5672616E-05  0.0000000E+00  0.8498527E-03
  0.4693878E+00  0.0000000E+00  0.6122449E-01 -0.7351221E-05  0.0000000E+00  0.8415187E-03
  0.5102041E+00  0.0000000E+00  0.6122449E-01 -0.9091404E-05  0.0000000E+00  0.8309697E-03
  0.5510204E+00  0.0000000E+00  0.6122449E-01 -0.1082679E-04  0.0000000E+00  0.8181690E-03
  0.5918368E+00  0.0000000E+00  0.6122449E-01 -0.1249211E-04  0.0000000E+00  0.8031657E-03
  0.6326531E+00  0.0000000E+00  0.6122449E-01 -0.1402786E-04  0.0000000E+00  0.7860904E-03
  0.6734694E+00  0.0000000E+00  0.6122449E-01 -0.1538410E-04  0.0000000E+00  0.7671448E-03
  0.7142857E+00  0.0000000E+00  0.6122449E-01 -0.1652298E-04  0.0000000E+00  0.7465879E-03
  0.7551020E+00  0.0000000E+00  0.6122449E-01 -0.1742002E-04  0.0000000E+00  0.7247185E-03
  0.7959183E+00  0.0000000E+00  0.6122449E-01 -0.1806404E-04  0.0000000E+00  0.7018583E-03
  0.8367347E+00  0.0000000E+00  0.6122449E-01 -0.1845598E-04  0.0000000E+00  0.6783351E-03
  0.8775510E+00  0.0000000E+00  0.6122449E-01 -0.1860701E-04  0.0000000E+00  0.6544682E-03
  0.9183673E+00  0.0000000E+00  0.6122449E-01 -0.1853623E-04  0.0000000E+00  0.6305569E-03
  0.9591837E+00  0.0000000E+00  0.6122449E-01 -0.1826817E-04  0.0000000E+00  0.6068715E-03
  0.1000000E+01  0.0000000E+00  0.6122449E-01 -0.1783058E-04  0.0000000E+00  0.5836482E-03
  0.1040816E+01  0.0000000E+00  0.6122449E-01 -0.1725236E-04  0.0000000E+00  0.5610862E-03
  0.1081633E+01  0.0000000E+00  0.6122449E-01 -0.1656202E-04  0.0000000E+00  0.5393475E-03
  0.1122449E+01  0.0000000E+00  0.6122449E-01 -0.1578640E-04  0.0000000E+00  0.5185582E-03
  0.1163265E+01  0.0000000E+00  0.6122449E-01 -0.1494990E-04  0.0000000E+00  0.4988111E-03
  0.1204082E+01  0.0000000E+00  0.6122449E-01 -0.1407398E-04  0.0000000E+00  0.4801698E-03
  0.1244898E+01  0.0000000E+00  0.6122449E-01 -0.1317693E-04  0.0000000E+00  0.4626720E-03
  0.1285714E+01  0.0000000E+00  0.6122449E-01 -0.1227387E-04  0.0000000E+00  0.4463343E-03
  0.1326531E+01  0.0000000E+00  0.6122449E-01 -0.1137689E-04  0.0000000E+00  0.4311555E-03
  0.1367347E+01  0.0000000E+00  0.6122449E-01 -0.1049525E-04  0.0000000E+00  0.4171211E-03
  0.1408163E+01  0.0000000E+00  0.6122449E-01 -0.9635717E-05  0.0000000E+00  0.4042063E-03
  0.1448980E+01  0.0000000E+00  0.6122449E-01 -0.8802854E-05  0.0000000E+00  0.3923791E-03
  0.1489796E+01  0.0000000E+00  0.6122449E-01 -0.7999367E-05  0.0000000E+00  0.3816029E-03
  0.1530612E+01  0.0000000E+00  0.6122449E-01 -0.7226423E-05  0.0000000E+00  0.3718390E-03
  0.1571429E+01  0.0000000E+00  0.6122449E-01 -0.6483955E-05  0.0000000E+00  0.3630477E-03
  0.1612245E+01  0.0000000E+00  0.6122449E-01 -0.5770939E-05  0.0000000E+00  0.3551902E-03
  0.1653061E+01  0.0000000E+00  0.6122449E-01 -0.5085633E-05  0.0000000E+00  0.3482298E-03
  0.1693878E+01  0.0000000E+00  0.6122449E-01 -0.4425780E-05  0.0000000E+00  0.3421321E-03
  0.1734694E+01  0.0000000E+00  0.6122449E-01 -0.3788771E-05  0.0000000E+00  0.3368660E-03
  0.1775510E+01  0.0000000E+00  0.6122449E-01 -0.3171765E-05  0.0000000E+00  0.3324039E-03
  0.1816326E+01  0.0000000E+00  0.6122449E-01 -0.2571785E-05  0.0000000E+00  0.3287221E-03
  0.1857143E+01  0.0000000E+00  0.6122449E-01 -0.1985777E-05  0.0000000E+00  0.3258005E-03
  0.1897959E+01  0.0000000E+00  0.6122449E-01 -0.1410649E-05  0.0000000E+00  0.3236233E-03
  0.1938776E+01  0.0000000E+00  0.6122449E-01 -0.8432980E-06  0.0000000E+00  0.3221785E-03
  0.1989796E+01  0.0000000E+00  0.6122449E-01 -0.2806201E-06  0.0000000E+00  0.3214581E-03
  0.2040816E-01  0.0000000E+00  0.1020408E+00  0.2703729E-06  0.0000000E+00  0.8617600E-03
  0.6122449E-01  0.0000000E+00  0.1020408E+00  0.7565240E-06  0.0000000E+00  0.8622028E-03
  0.1020408E+00  0.0000000E+00  0.1020408E+00  0.1080071E-05  0.0000000E+00  0.8630055E-03
  0.1428571E+00  0.0000000E+00  0.1020408E+00  0.1141946E-05  0.0000000E+00  0.8640062E-03
  0.1836735E+00  0.0000000E+00  0.1020408E+00  0.8575678E-06  0.0000000E+00  0.8649728E-03
  0.2244898E+00  0.0000000E+00  0.1020408E+00  0.1618799E-06  0.0000000E+00  0.8656153E-03
  0.2653061E+00  0.0000000E+00  0.1020408E+00 -0.9858456E-06  0.0000000E+00  0.8656027E-03
  0.3061225E+00  0.0000000E+00  0.1020408E+00 -0.2598269E-05  0.0000000E+00  0.8645829E-03
  0.3469388E+00  0.0000000E+00  0.1020408E+00 -0.4657890E-05  0.0000000E+00  0.8622047E-03
  0.3877551E+00  0.0000000E+00  0.1020408E+00 -0.7116979E-05  0.0000000E+00  0.8581416E-03
  0.4285714E+00  0.0000000E+00  0.1020408E+00 -0.9900009E-05  0.0000000E+00  0.8521144E-03
  0.4693878E+00  0.0000000E+00  0.1020408E+00 -0.1290863E-04  0.0000000E+00  0.8439111E-03
  0.5102041E+00  0.0000000E+00  0.1020408E+00 -0.1602884E-04  0.0000000E+00  0.8334018E-03
  0.5510204E+00  0.0000000E+00  0.1020408E+00 -0.1913970E-04  0.0000000E+00  0.8205479E-03
  0.5918368E+00  0.0000000E+00  0.1020408E+00 -0.2212248E-04  0.0000000E+00  0.8054032E-03
  0.6326531E+00  0.0000000E+00  0.1020408E+00 -0.2486928E-04  0.0000000E+00  0.7881094E-03
  0.6734694E+00  0.0000000E+00  0.1020408E+00 -0.2728999E-04  0.0000000E+00  0.7688835E-03
  0.7142857E+00  0.0000000E+00  0.1020408E+00 -0.2931692E-04  0.0000000E+00  0.7480024E-03
  0.7551020E+00  0.0000000E+00  0.1020408E+00 -0.3090700E-04  0.0000000E+00  0.7257839E-03
  0.7959183E+00  0.0000000E+00  0.1020408E+00 -0.3204140E-04  0.0000000E+00  0.7025676E-03
  0.8367347E+00  0.0000000E+00  0.1020408E+00 -0.3272332E-04  0.0000000E+00  0.6786971E-03
  0.8775510E+00  0.0000000E+00  0.1020408E+00 -0.3297431E-04  0.0000000E+00  0.6545044E-03
  0.9183673E+00  0.0000000E+00  0.1020408E+00 -0.3282993E-04  0.0000000E+00  0.6302981E-03
  0.9591837E+00  0.0000000E+00  0.1020408E+00 -0.3233530E-04  0.0000000E+00  0.6063546E-03
  0.1000000E+01  0.0000000E+00  0.1020408E+00 -0.3154089E-04  0.0000000E+00  0.5829133E-03
  0.1040816E+01  0.0000000E+00  0.1020408E+00 -0.3049897E-04  0.0000000E+00  0.5601737E-03
  0.1081633E+01  0.0000000E+00  0.1020408E+00 -0.2926070E-04  0.0000000E+00  0.5382963E-03
  0.1122449E+01  0.0000000E+00  0.1020408E+00 -0.2787408E-04  0.0000000E+00  0.5174043E-03
  0.1163265E+01  0.0000000E+00  0.1020408E+00 -0.2638250E-04  0.0000000E+00  0.4975868E-03
  0.1204082E+01  0.0000000E+00  0.1020408E+00 -0.2482396E-04  0.0000000E+00  0.4789030E-03
  0.1244898E+01  0.0000000E+00  0.1020408E+00 -0.2323072E-04  0.0000000E+00  0.4613861E-03
  0.1285714E+01  0.0000000E+00  0.1020408E+00 -0.2162932E-04  0.0000000E+00  0.4450483E-03
  0.1326531E+01  0.0000000E+00  0.1020408E+00 -0.2004086E-04  0.0000000E+00  0.4298845E-03
  0.1367347E+01  0.0000000E+00  0.1020408E+00 -0.1848146E-04  0.0000000E+00  0.4158762E-03
  0.1408163E+01  0.0000000E+00  0.1020408E+00 -0.1696278E-04  0.0000000E+00  0.4029955E-03
  0.1448980E+01  0.0000000E+00  0.1020408E+00 -0.1549259E-04  0.0000000E+00  0.3912075E-03
  0.1489796E+01  0.0000000E+00  0.1020408E+00 -0.1407541E-04  0.0000000E+00  0.3804732E-03
  0.1530612E+01  0.0000000E+00  0.1020408E+00 -0.1271305E-04  0.0000000E+00  0.3707519E-03
  0.1571429E+01  0.0000000E+00  0.1020408E+00 -0.1140518E-04  0.0000000E+00  0.3620024E-03
  0.1612245E+01  0.0000000E+00  0.1020408E+00 -0.1014979E-04  0.0000000E+00  0.3541849E-03
  0.1653061E+01  0.0000000E+00  0.1020408E+00 -0.8943665E-05  0.0000000E+00  0.3472616E-03
  0.1693878E+01  0.0000000E+00  0.1020408E+00 -0.7782682E-05  0.0000000E+00  0.3411976E-03
  0.1734694E+01  0.0000000E+00  0.1020408E+00 -0.6662147E-05  0.0000000E+00  0.3359614E-03
  0.1775510E+01  0.0000000E+00  0.1020408E+00 -0.5576983E-05  0.0000000E+00  0.3315251E-03
  0.1816326E+01  0.0000000E+00  0.1020408E+00 -0.4521890E-05  0.0000000E+00  0.3278649E-03
  0.1857143E+01  0.0000000E+00  0.1020408E+00 -0.3491455E-05  0.0000000E+00  0.3249607E-03
  0.1897959E+01  0.0000000E+00  0.1020408E+00 -0.2480209E-05  0.0000000E+00  0.3227965E-03
  0.1938776E+01  0.0000000E+00  0.1020408E+00 -0.1482671E-05  0.0000000E+00  0.3213604E-03
  0.1989796E+01  0.0000000E+00  0.1020408E+00 -0.4933612E-06  0.0000000E+00  0.3206443E-03
  0.2040816E-01  0.0000000E+00  0.1428571E+00  0.4314834E-06  0.0000000E+00  0.8610858E-03
  0.6122449E-01  0.0000000E+00  0.1428571E+00  0.1215442E-05  0.0000000E+00  0.8616615E-03
  0.1020408E+00  0.0000000E+00  0.1428571E+00  0.1764644E-05  0.0000000E+00  0.8627230E-03
  0.1428571E+00  0.0000000E+00  0.1428571E+00  0.1935696E-05  0.0000000E+00  0.8640947E-03
  0.1836735E+00  0.0000000E+00  0.1428571E+00  0.1605613E-05  0.0000000E+00  0.8655238E-03
  0.2244898E+00  0.0000000E+00  0.1428571E+00  0.6791860E-06  0.0000000E+00  0.8666937E-03
  0.2653061E+00  0.0000000E+00  0.1428571E+00 -0.9039179E-06  0.0000000E+00  0.8672414E-03
  0.3061225E+00  0.0000000E+00  0.1428571E+00 -0.3163420E-05  0.0000000E+00  0.8667791E-03
  0.3469388E+00  0.0000000E+00  0.1428571E+00 -0.6074989E-05  0.0000000E+00  0.8649187E-03
  0.3877551E+00  0.0000000E+00  0.1428571E+00 -0.9569819E-05  0.0000000E+00  0.8612981E-03
  0.4285714E+00  0.0000000E+00  0.1428571E+00 -0.1353792E-04  0.0000000E+00  0.8556068E-03
  0.4693878E+00  0.0000000E+00  0.1428571E+00 -0.1783535E-04  0.0000000E+00  0.8476092E-03
  0.5102041E+00  0.0000000E+00  0.1428571E+00 -0.2229493E-04  0.0000000E+00  0.8371615E-03
  0.5510204E+00  0.0000000E+00  0.1428571E+00 -0.2673929E-04  0.0000000E+00  0.8242222E-03
  0.5918368E+00  0.0000000E+00  0.1428571E+00 -0.3099479E-04  0.0000000E+00  0.8088535E-03
  0.6326531E+00  0.0000000E+00  0.1428571E+00 -0.3490443E-04  0.0000000E+00  0.7912146E-03
  0.6734694E+00  0.0000000E+00  0.1428571E+00 -0.3833820E-04  0.0000000E+00  0.7715475E-03
  0.7142857E+00  0.0000000E+00  0.1428571E+00 -0.4119986E-04  0.0000000E+00  0.7501581E-03
  0.7551020E+00  0.0000000E+00  0.1428571E+00 -0.4342978E-04  0.0000000E+00  0.7273942E-03
  0.7959183E+00  0.0000000E+00  0.1428571E+00 -0.4500403E-04  0.0000000E+00  0.7036239E-03
  0.8367347E+00  0.0000000E+00  0.1428571E+00 -0.4593067E-04  0.0000000E+00  0.6792152E-03
  0.8775510E+00  0.0000000E+00  0.1428571E+00 -0.4624401E-04  0.0000000E+00  0.6545200E-03
  0.9183673E+00  0.0000000E+00  0.1428571E+00 -0.4599799E-04  0.0000000E+00  0.6298609E-03
  0.9591837E+00  0.0000000E+00  0.1428571E+00 -0.4525953E-04  0.0000000E+00  0.6055235E-03
  0.1000000E+01  0.0000000E+00  0.1428571E+00 -0.4410242E-04  0.0000000E+00  0.5817509E-03
  0.1040816E+01  0.0000000E+00  0.1428571E+00 -0.4260220E-04  0.0000000E+00  0.5587431E-03
  0.1081633E+01  0.0000000E+00  0.1428571E+00 -0.4083216E-04  0.0000000E+00  0.5366578E-03
  0.1122449E+01  0.0000000E+00  0.1428571E+00 -0.3886046E-04  0.0000000E+00  0.5156134E-03
  0.1163265E+01  0.0000000E+00  0.1428571E+00 -0.3674826E-04  0.0000000E+00  0.4956927E-03
  0.1204082E+01  0.0000000E+00  0.1428571E+00 -0.3454873E-04  0.0000000E+00  0.4769481E-03
  0.1244898E+01  0.0000000E+00  0.1428571E+00 -0.3230672E-04  0.0000000E+00  0.4594059E-03
  0.1285714E+01  0.0000000E+00  0.1428571E+00 -0.3005885E-04  0.0000000E+00  0.4430715E-03
  0.1326531E+01  0.0000000E+00  0.1428571E+00 -0.2783402E-04  0.0000000E+00  0.4279334E-03
  0.1367347E+01  0.0000000E+00  0.1428571E+00 -0.2565411E-04  0.0000000E+00  0.4139675E-03
  0.1408163E+01  0.0000000E+00  0.1428571E+00 -0.2353472E-04  0.0000000E+00  0.4011408E-03
  0.1448980E+01  0.0000000E+00  0.1428571E+00 -0.2148607E-04  0.0000000E+00  0.3894140E-03
  0.1489796E+01  0.0000000E+00  0.1428571E+00 -0.1951386E-04  0.0000000E+00  0.3787448E-03
  0.1530612E+01  0.0000000E+00  0.1428571E+00 -0.1762005E-04  0.0000000E+00  0.3690893E-03
  0.1571429E+01  0.0000000E+00  0.1428571E+00 -0.1580368E-04  0.0000000E+00  0.3604041E-03
  0.1612245E+01  0.0000000E+00  0.1428571E+00 -0.1406154E-04  0.0000000E+00  0.3526477E-03
  0.1653061E+01  0.0000000E+00  0.1428571E+00 -0.1238877E-04  0.0000000E+00  0.3457810E-03
  0.1693878E+01  0.0000000E+00  0.1428571E+00 -0.1077939E-04  0.0000000E+00  0.3397683E-03
  0.1734694E+01  0.0000000E+00  0.1428571E+00 -0.9226621E-05  0.0000000E+00  0.3345775E-03
  0.1775510E+01  0.0000000E+00  0.1428571E+00 -0.7723263E-05  0.0000000E+00  0.3301805E-03
  0.1816326E+01  0.0000000E+00  0.1428571E+00 -0.6261839E-05  0.0000000E+00  0.3265530E-03
  0.1857143E+01  0.0000000E+00  0.1428571E+00 -0.4834751E-05  0.0000000E+00  0.3236751E-03
  0.1897959E+01  0.0000000E+00  0.1428571E+00 -0.3434362E-05  0.0000000E+00  0.3215306E-03
  0.1938776E+01  0.0000000E+00  0.1428571E+00 -0.2053030E-05  0.0000000E+00  0.3201075E-03
  0.1989796E+01  0.0000000E+00  0.1428571E+00 -0.6831257E-06  0.0000000E+00  0.3193980E-03
  0.2040816E-01  0.0000000E+00  0.1836735E+00  0.6402988E-06  0.0000000E+00  0.8600437E-03
  0.6122449E-01  0.0000000E+00  0.1836735E+00  0.1816503E-05  0.0000000E+00  0.8608012E-03
  0.1020408E+00  0.0000000E+00  0.1836735E+00  0.2682845E-05  0.0000000E+00  0.8622169E-03
  0.1428571E+00  0.0000000E+00  0.1836735E+00  0.3049354E-05  0.0000000E+00  0.8640970E-03
  0.1836735E+00  0.0000000E+00  0.1836735E+00  0.2752038E-05  0.0000000E+00  0.8661611E-03
  0.2244898E+00  0.0000000E+00  0.1836735E+00  0.1662719E-05  0.0000000E+00  0.8680567E-03
  0.2653061E+00  0.0000000E+00  0.1836735E+00 -0.3012308E-06  0.0000000E+00  0.8693772E-03
  0.3061225E+00  0.0000000E+00  0.1836735E+00 -0.3168704E-05  0.0000000E+00  0.8696856E-03
  0.3469388E+00  0.0000000E+00  0.1836735E+00 -0.6909486E-05  0.0000000E+00  0.8685423E-03
  0.3877551E+00  0.0000000E+00  0.1836735E+00 -0.1143302E-04  0.0000000E+00  0.8655350E-03
  0.4285714E+00  0.0000000E+00  0.1836735E+00 -0.1659231E-04  0.0000000E+00  0.8603095E-03
  0.4693878E+00  0.0000000E+00  0.1836735E+00 -0.2219357E-04  0.0000000E+00  0.8525963E-03
  0.5102041E+00  0.0000000E+00  0.1836735E+00 -0.2801093E-04  0.0000000E+00  0.8422321E-03
  0.5510204E+00  0.0000000E+00  0.1836735E+00 -0.3380482E-04  0.0000000E+00  0.8291720E-03
  0.5918368E+00  0.0000000E+00  0.1836735E+00 -0.3934150E-04  0.0000000E+00  0.8134901E-03
  0.6326531E+00  0.0000000E+00  0.1836735E+00 -0.4441115E-04  0.0000000E+00  0.7953717E-03
  0.6734694E+00  0.0000000E+00  0.1836735E+00 -0.4884217E-04  0.0000000E+00  0.7750947E-03
  0.7142857E+00  0.0000000E+00  0.1836735E+00 -0.5251012E-04  0.0000000E+00  0.7530064E-03
  0.7551020E+00  0.0000000E+00  0.1836735E+00 -0.5534098E-04  0.0000000E+00  0.7294969E-03
  0.7959183E+00  0.0000000E+00  0.1836735E+00 -0.5730916E-04  0.0000000E+00  0.7049735E-03
  0.8367347E+00  0.0000000E+00  0.1836735E+00 -0.5843162E-04  0.0000000E+00  0.6798382E-03
  0.8775510E+00  0.0000000E+00  0.1836735E+00 -0.5875944E-04  0.0000000E+00  0.6544690E-03
  0.9183673E+00  0.0000000E+00  0.1836735E+00 -0.5836854E-04  0.0000000E+00  0.6292070E-03
  0.9591837E+00  0.0000000E+00  0.1836735E+00 -0.5735042E-04  0.0000000E+00  0.6043487E-03
  0.1000000E+01  0.0000000E+00  0.1836735E+00 -0.5580413E-04  0.0000000E+00  0.5801418E-03
  0.1040816E+01  0.0000000E+00  0.1836735E+00 -0.5382951E-04  0.0000000E+00  0.5567857E-03
  0.1081633E+01  0.0000000E+00  0.1836735E+00 -0.5152221E-04  0.0000000E+00  0.5344333E-03
  0.1122449E+01  0.0000000E+00  0.1836735E+00 -0.4897020E-04  0.0000000E+00  0.5131958E-03
  0.1163265E+01  0.0000000E+00  0.1836735E+00 -0.4625160E-04  0.0000000E+00  0.4931474E-03
  0.1204082E+01  0.0000000E+00  0.1836735E+00 -0.4343365E-04  0.0000000E+00  0.4743307E-03
  0.1244898E+01  0.0000000E+00  0.1836735E+00 -0.4057254E-04  0.0000000E+00  0.4567627E-03
  0.1285714E+01  0.0000000E+00  0.1836735E+00 -0.3771369E-04  0.0000000E+00  0.4404394E-03
  0.1326531E+01  0.0000000E+00  0.1836735E+00 -0.3489259E-04  0.0000000E+00  0.4253411E-03
  0.1367347E+01  0.0000000E+00  0.1836735E+00 -0.3213570E-04  0.0000000E+00  0.4114360E-03
  0.1408163E+01  0.0000000E+00  0.1836735E+00 -0.2946156E-04  0.0000000E+00  0.3986845E-03
  0.1448980E+01  0.0000000E+00  0.1836735E+00 -0.2688197E-04  0.0000000E+00  0.3870417E-03
  0.1489796E+01  0.0000000E+00  0.1836735E+00 -0.2440301E-04  0.0000000E+00  0.3764605E-03
  0.1530612E+01  0.0000000E+00  0.1836735E+00 -0.2202621E-04  0.0000000E+00  0.3668934E-03
  0.1571429E+01  0.0000000E+00  0.1836735E+00 -0.1974950E-04  0.0000000E+00  0.3582942E-03
  0.1612245E+01  0.0000000E+00  0.1836735E+00 -0.1756809E-04  0.0000000E+00  0.3506189E-03
  0.1653061E+01  0.0000000E+00  0.1836735E+00 -0.1547526E-04  0.0000000E+00  0.3438272E-03
  0.1693878E+01  0.0000000E+00  0.1836735E+00 -0.1346298E-04  0.0000000E+00  0.3378822E-03
  0.1734694E+01  0.0000000E+00  0.1836735E+00 -0.1152241E-04  0.0000000E+00  0.3327511E-03
  0.1775510E+01  0.0000000E+00  0.1836735E+00 -0.9644221E-05  0.0000000E+00  0.3284054E-03
  0.1816326E+01  0.0000000E+00  0.1836735E+00 -0.7818856E-05  0.0000000E+00  0.3248208E-03
  0.1857143E+01  0.0000000E+00  0.1836735E+00 -0.6036673E-05  0.0000000E+00  0.3219772E-03
  0.1897959E+01  0.0000000E+00  0.1836735E+00 -0.4288023E-05  0.0000000E+00  0.3198584E-03
  0.1938776E+01  0.0000000E+00  0.1836735E+00 -0.2563289E-05  0.0000000E+00  0.3184525E-03
  0.1989796E+01  0.0000000E+00  0.1836735E+00 -0.8528882E-06  0.0000000E+00  0.3177515E-03
  0.2040816E-01  0.0000000E+00  0.2244898E+00  0.9137591E-06  0.0000000E+00  0.8585173E-03
  0.6122449E-01  0.0000000E+00  0.2244898E+00  0.2609624E-05  0.0000000E+00  0.8595082E-03
  0.1020408E+00  0.0000000E+00  0.2244898E+00  0.3914781E-05  0.0000000E+00  0.8613797E-03
  0.1428571E+00  0.0000000E+00  0.2244898E+00  0.4588448E-05  0.0000000E+00  0.8639152E-03
  0.1836735E+00  0.0000000E+00  0.2244898E+00  0.4420957E-05  0.0000000E+00  0.8668004E-03
  0.2244898E+00  0.0000000E+00  0.2244898E+00  0.3246286E-05  0.0000000E+00  0.8696371E-03
  0.2653061E+00  0.0000000E+00  0.2244898E+00  0.9549471E-06  0.0000000E+00  0.8719630E-03
  0.3061225E+00  0.0000000E+00  0.2244898E+00 -0.2494619E-05  0.0000000E+00  0.8732774E-03
  0.3469388E+00  0.0000000E+00  0.2244898E+00 -0.7067834E-05  0.0000000E+00  0.8730724E-03
  0.3877551E+00  0.0000000E+00  0.2244898E+00 -0.1265111E-04  0.0000000E+00  0.8708693E-03
  0.4285714E+00  0.0000000E+00  0.2244898E+00 -0.1905601E-04  0.0000000E+00  0.8662542E-03
  0.4693878E+00  0.0000000E+00  0.2244898E+00 -0.2603139E-04  0.0000000E+00  0.8589125E-03
  0.5102041E+00  0.0000000E+00  0.2244898E+00 -0.3328317E-04  0.0000000E+00  0.8486548E-03
  0.5510204E+00  0.0000000E+00  0.2244898E+00 -0.4049931E-04  0.0000000E+00  0.8354314E-03
  0.5918368E+00  0.0000000E+00  0.2244898E+00 -0.4737670E-04  0.0000000E+00  0.8193345E-03
  0.6326531E+00  0.0000000E+00  0.2244898E+00 -0.5364584E-04  0.0000000E+00  0.8005853E-03
  0.6734694E+00  0.0000000E+00  0.2244898E+00 -0.5908990E-04  0.0000000E+00  0.7795115E-03
  0.7142857E+00  0.0000000E+00  0.2244898E+00 -0.6355607E-04  0.0000000E+00  0.7565165E-03
  0.7551020E+00  0.0000000E+00  0.2244898E+00 -0.6695868E-04  0.0000000E+00  0.7320470E-03
  0.7959183E+00  0.0000000E+00  0.2244898E+00 -0.6927528E-04  0.0000000E+00  0.7065622E-03
  0.8367347E+00  0.0000000E+00  0.2244898E+00 -0.7053755E-04  0.0000000E+00  0.6805070E-03
  0.8775510E+00  0.0000000E+00  0.2244898E+00 -0.7081936E-04  0.0000000E+00  0.6542921E-03
  0.9183673E+00  0.0000000E+00  0.2244898E+00 -0.7022392E-04  0.0000000E+00  0.6282809E-03
  0.9591837E+00  0.0000000E+00  0.2244898E+00 -0.6887169E-04  0.0000000E+00  0.6027819E-03
  0.1000000E+01  0.0000000E+00  0.2244898E+00 -0.6689008E-04  0.0000000E+00  0.5780468E-03
  0.1040816E+01  0.0000000E+00  0.2244898E+00 -0.6440518E-04  0.0000000E+00  0.5542722E-03
  0.1081633E+01  0.0000000E+00  0.2244898E+00 -0.6153589E-04  0.0000000E+00  0.5316040E-03
  0.1122449E+01  0.0000000E+00  0.2244898E+00 -0.5839000E-04  0.0000000E+00  0.5101429E-03
  0.1163265E+01  0.0000000E+00  0.2244898E+00 -0.5506200E-04  0.0000000E+00  0.4899512E-03
  0.1204082E+01  0.0000000E+00  0.2244898E+00 -0.5163225E-04  0.0000000E+00  0.4710593E-03
  0.1244898E+01  0.0000000E+00  0.2244898E+00 -0.4816702E-04  0.0000000E+00  0.4534718E-03
  0.1285714E+01  0.0000000E+00  0.2244898E+00 -0.4471927E-04  0.0000000E+00  0.4371732E-03
  0.1326531E+01  0.0000000E+00  0.2244898E+00 -0.4132974E-04  0.0000000E+00  0.4221331E-03
  0.1367347E+01  0.0000000E+00  0.2244898E+00 -0.3802828E-04  0.0000000E+00  0.4083106E-03
  0.1408163E+01  0.0000000E+00  0.2244898E+00 -0.3483527E-04  0.0000000E+00  0.3956579E-03
  0.1448980E+01  0.0000000E+00  0.2244898E+00 -0.3176304E-04  0.0000000E+00  0.3841233E-03
  0.1489796E+01  0.0000000E+00  0.2244898E+00 -0.2881725E-04  0.0000000E+00  0.3736540E-03
  0.1530612E+01  0.0000000E+00  0.2244898E+00 -0.2599822E-04  0.0000000E+00  0.3641982E-03
  0.1571429E+01  0.0000000E+00  0.2244898E+00 -0.2330217E-04  0.0000000E+00  0.3557062E-03
  0.1612245E+01  0.0000000E+00  0.2244898E+00 -0.2072227E-04  0.0000000E+00  0.3481316E-03
  0.1653061E+01  0.0000000E+00  0.2244898E+00 -0.1824961E-04  0.0000000E+00  0.3414322E-03
  0.1693878E+01  0.0000000E+00  0.2244898E+00 -0.1587392E-04  0.0000000E+00  0.3355702E-03
  0.1734694E+01  0.0000000E+00  0.2244898E+00 -0.1358415E-04  0.0000000E+00  0.3305121E-03
  0.1775510E+01  0.0000000E+00  0.2244898E+00 -0.1136886E-04  0.0000000E+00  0.3262291E-03
  0.1816326E+01  0.0000000E+00  0.2244898E+00 -0.9216473E-05  0.0000000E+00  0.3226967E-03
  0.1857143E+01  0.0000000E+00  0.2244898E+00 -0.7115394E-05  0.0000000E+00  0.3198946E-03
  0.1897959E+01  0.0000000E+00  0.2244898E+00 -0.5054107E-05  0.0000000E+00  0.3178070E-03
  0.1938776E+01  0.0000000E+00  0.2244898E+00 -0.3021173E-05  0.0000000E+00  0.3164219E-03
  0.1989796E+01  0.0000000E+00  0.2244898E+00 -0.1005220E-05  0.0000000E+00  0.3157312E-03
  0.2040816E-01  0.0000000E+00  0.2653061E+00  0.1269202E-05  0.0000000E+00  0.8563563E-03
  0.6122449E-01  0.0000000E+00  0.2653061E+00  0.3646118E-05  0.0000000E+00  0.8576371E-03
  0.1020408E+00  0.0000000E+00  0.2653061E+00  0.5543532E-05  0.0000000E+00  0.8600756E-03
  0.1428571E+00  0.0000000E+00  0.2653061E+00  0.6663879E-05  0.0000000E+00  0.8634287E-03
  0.1836735E+00  0.0000000E+00  0.2653061E+00  0.6745098E-05  0.0000000E+00  0.8673417E-03
  0.2244898E+00  0.0000000E+00  0.2653061E+00  0.5576129E-05  0.0000000E+00  0.8713617E-03
  0.2653061E+00  0.0000000E+00  0.2653061E+00  0.3013690E-05  0.0000000E+00  0.8749573E-03
  0.3061225E+00  0.0000000E+00  0.2653061E+00 -0.1001957E-05  0.0000000E+00  0.8775474E-03
  0.3469388E+00  0.0000000E+00  0.2653061E+00 -0.6434577E-05  0.0000000E+00  0.8785372E-03
  0.3877551E+00  0.0000000E+00  0.2653061E+00 -0.1314611E-04  0.0000000E+00  0.8773602E-03
  0.4285714E+00  0.0000000E+00  0.2653061E+00 -0.2090027E-04  0.0000000E+00  0.8735246E-03
  0.4693878E+00  0.0000000E+00  0.2653061E+00 -0.2937751E-04  0.0000000E+00  0.8666553E-03
  0.5102041E+00  0.0000000E+00  0.2653061E+00 -0.3820097E-04  0.0000000E+00  0.8565280E-03
  0.5510204E+00  0.0000000E+00  0.2653061E+00 -0.4697048E-04  0.0000000E+00  0.8430885E-03
  0.5918368E+00  0.0000000E+00  0.2653061E+00 -0.5529937E-04  0.0000000E+00  0.8264538E-03
  0.6326531E+00  0.0000000E+00  0.2653061E+00 -0.6284800E-04  0.0000000E+00  0.8068954E-03
  0.6734694E+00  0.0000000E+00  0.2653061E+00 -0.6934888E-04  0.0000000E+00  0.7848080E-03
  0.7142857E+00  0.0000000E+00  0.2653061E+00 -0.7462051E-04  0.0000000E+00  0.7606701E-03
  0.7551020E+00  0.0000000E+00  0.2653061E+00 -0.7856960E-04  0.0000000E+00  0.7350024E-03
  0.7959183E+00  0.0000000E+00  0.2653061E+00 -0.8118378E-04  0.0000000E+00  0.7083298E-03
  0.8367347E+00  0.0000000E+00  0.2653061E+00 -0.8251779E-04  0.0000000E+00  0.6811505E-03
  0.8775510E+00  0.0000000E+00  0.2653061E+00 -0.8267656E-04  0.0000000E+00  0.6539143E-03
  0.9183673E+00  0.0000000E+00  0.2653061E+00 -0.8179801E-04  0.0000000E+00  0.6270091E-03
  0.9591837E+00  0.0000000E+00  0.2653061E+00 -0.8003747E-04  0.0000000E+00  0.6007555E-03
  0.1000000E+01  0.0000000E+00  0.2653061E+00 -0.7755491E-04  0.0000000E+00  0.5754071E-03
  0.1040816E+01  0.0000000E+00  0.2653061E+00 -0.7450532E-04  0.0000000E+00  0.5511548E-03
  0.1081633E+01  0.0000000E+00  0.2653061E+00 -0.7103209E-04  0.0000000E+00  0.5281332E-03
  0.1122449E+01  0.0000000E+00  0.2653061E+00 -0.6726304E-04  0.0000000E+00  0.5064292E-03
  0.1163265E+01  0.0000000E+00  0.2653061E+00 -0.6330845E-04  0.0000000E+00  0.4860895E-03
  0.1204082E+01  0.0000000E+00  0.2653061E+00 -0.5926071E-04  0.0000000E+00  0.4671287E-03
  0.1244898E+01  0.0000000E+00  0.2653061E+00 -0.5519490E-04  0.0000000E+00  0.4495361E-03
  0.1285714E+01  0.0000000E+00  0.2653061E+00 -0.5117005E-04  0.0000000E+00  0.4332825E-03
  0.1326531E+01  0.0000000E+00  0.2653061E+00 -0.4723075E-04  0.0000000E+00  0.4183248E-03