title = "dataset feddes"
variables = "x", "y", "z", "vx", "vy", "vz"
zone t = "velocities, solution time =  6.000E+00 days        " i =   49, j =   49, k =    1,  f=point
  0.2040816E-01  0.0000000E+00  0.2040816E-01 -0.2023933E-10  0.0000000E+00  0.9396174E-02
  0.6122449E-01  0.0000000E+00  0.2040816E-01 -0.9392211E-11  0.0000000E+00  0.9396174E-02
  0.1020408E+00  0.0000000E+00  0.2040816E-01 -0.2129141E-11  0.0000000E+00  0.9396174E-02
  0.1428571E+00  0.0000000E+00  0.2040816E-01  0.1749281E-11  0.0000000E+00  0.9396174E-02
  0.1836735E+00  0.0000000E+00  0.2040816E-01  0.5560369E-11  0.0000000E+00  0.9396174E-02
  0.2244898E+00  0.0000000E+00  0.2040816E-01  0.8830372E-11  0.0000000E+00  0.9396174E-02
  0.2653061E+00  0.0000000E+00  0.2040816E-01  0.1203975E-10  0.0000000E+00  0.9396174E-02
  0.3061225E+00  0.0000000E+00  0.2040816E-01  0.9179613E-11  0.0000000E+00  0.9396174E-02
  0.3469388E+00  0.0000000E+00  0.2040816E-01  0.7549336E-11  0.0000000E+00  0.9396174E-02
  0.3877551E+00  0.0000000E+00  0.2040816E-01  0.1161802E-10  0.0000000E+00  0.9396174E-02
  0.4285714E+00  0.0000000E+00  0.2040816E-01  0.1451681E-10  0.0000000E+00  0.9396175E-02
  0.4693878E+00  0.0000000E+00  0.2040816E-01  0.1490269E-10  0.0000000E+00  0.9396175E-02
  0.5102041E+00  0.0000000E+00  0.2040816E-01  0.1506788E-10  0.0000000E+00  0.9396175E-02
  0.5510204E+00  0.0000000E+00  0.2040816E-01  0.1513683E-10  0.0000000E+00  0.9396175E-02
  0.5918368E+00  0.0000000E+00  0.2040816E-01  0.1460600E-10  0.0000000E+00  0.9396175E-02
  0.6326531E+00  0.0000000E+00  0.2040816E-01  0.1352867E-10  0.0000000E+00  0.9396175E-02
  0.6734694E+00  0.0000000E+00  0.2040816E-01  0.1249034E-10  0.0000000E+00  0.9396175E-02
  0.7142857E+00  0.0000000E+00  0.2040816E-01  0.1147347E-10  0.0000000E+00  0.9396175E-02
  0.7551020E+00  0.0000000E+00  0.2040816E-01  0.1010843E-10  0.0000000E+00  0.9396175E-02
  0.7959183E+00  0.0000000E+00  0.2040816E-01  0.8475785E-11  0.0000000E+00  0.9396175E-02
  0.8367347E+00  0.0000000E+00  0.2040816E-01  0.6598483E-11  0.0000000E+00  0.9396175E-02
  0.8775510E+00  0.0000000E+00  0.2040816E-01  0.4644021E-11  0.0000000E+00  0.9396175E-02
  0.9183673E+00  0.0000000E+00  0.2040816E-01  0.2787178E-11  0.0000000E+00  0.9396175E-02
  0.9591837E+00  0.0000000E+00  0.2040816E-01  0.1342669E-11  0.0000000E+00  0.9396175E-02
  0.1000000E+01  0.0000000E+00  0.2040816E-01  0.2802271E-11  0.0000000E+00  0.9396175E-02
  0.1040816E+01  0.0000000E+00  0.2040816E-01  0.6315808E-12  0.0000000E+00  0.9396175E-02
  0.1081633E+01  0.0000000E+00  0.2040816E-01 -0.2382085E-11  0.0000000E+00  0.9396175E-02
  0.1122449E+01  0.0000000E+00  0.2040816E-01 -0.3592393E-11  0.0000000E+00  0.9396175E-02
  0.1163265E+01  0.0000000E+00  0.2040816E-01 -0.4948320E-11  0.0000000E+00  0.9396175E-02
  0.1204082E+01  0.0000000E+00  0.2040816E-01 -0.6260725E-11  0.0000000E+00  0.9396175E-02
  0.1244898E+01  0.0000000E+00  0.2040816E-01 -0.6904084E-11  0.0000000E+00  0.9396175E-02
  0.1285714E+01  0.0000000E+00  0.2040816E-01 -0.7514140E-11  0.0000000E+00  0.9396175E-02
  0.1326531E+01  0.0000000E+00  0.2040816E-01 -0.8121632E-11  0.0000000E+00  0.9396175E-02
  0.1367347E+01  0.0000000E+00  0.2040816E-01 -0.8553951E-11  0.0000000E+00  0.9396175E-02
  0.1408163E+01  0.0000000E+00  0.2040816E-01 -0.8817785E-11  0.0000000E+00  0.9396175E-02
  0.1448980E+01  0.0000000E+00  0.2040816E-01 -0.8975873E-11  0.0000000E+00  0.9396175E-02
  0.1489796E+01  0.0000000E+00  0.2040816E-01 -0.9044450E-11  0.0000000E+00  0.9396175E-02
  0.1530612E+01  0.0000000E+00  0.2040816E-01 -0.9019868E-11  0.0000000E+00  0.9396175E-02
  0.1571429E+01  0.0000000E+00  0.2040816E-01 -0.8913786E-11  0.0000000E+00  0.9396175E-02
  0.1612245E+01  0.0000000E+00  0.2040816E-01 -0.8748557E-11  0.0000000E+00  0.9396175E-02
  0.1653061E+01  0.0000000E+00  0.2040816E-01 -0.8551307E-11  0.0000000E+00  0.9396175E-02
  0.1693878E+01  0.0000000E+00  0.2040816E-01 -0.8349678E-11  0.0000000E+00  0.9396175E-02
  0.1734694E+01  0.0000000E+00  0.2040816E-01 -0.8164976E-11  0.0000000E+00  0.9396175E-02
  0.1775510E+01  0.0000000E+00  0.2040816E-01 -0.8017325E-11  0.0000000E+00  0.9396175E-02
  0.1816326E+01  0.0000000E+00  0.2040816E-01 -0.7948866E-11  0.0000000E+00  0.9396175E-02
  0.1857143E+01  0.0000000E+00  0.2040816E-01 -0.8088408E-11  0.0000000E+00  0.9396174E-02
  0.1897959E+01  0.0000000E+00  0.2040816E-01 -0.8834358E-11  0.0000000E+00  0.9396174E-02
  0.1938776E+01  0.0000000E+00  0.2040816E-01 -0.1137009E-10  0.0000000E+00  0.9396174E-02
  0.1989796E+01  0.0000000E+00  0.2040816E-01 -0.1911348E-10  0.0000000E+00  0.9396174E-02
  0.2040816E-01  0.0000000E+00  0.6122449E-01 -0.5639572E-10  0.0000000E+00  0.9395866E-02
  0.6122449E-01  0.0000000E+00  0.6122449E-01 -0.2972361E-10  0.0000000E+00  0.9395866E-02
  0.1020408E+00  0.0000000E+00  0.6122449E-01 -0.5223448E-11  0.0000000E+00  0.9395866E-02
  0.1428571E+00  0.0000000E+00  0.6122449E-01  0.6905051E-11  0.0000000E+00  0.9395866E-02
  0.1836735E+00  0.0000000E+00  0.6122449E-01  0.1863016E-10  0.0000000E+00  0.9395866E-02
  0.2244898E+00  0.0000000E+00  0.6122449E-01  0.2944194E-10  0.0000000E+00  0.9395866E-02
  0.2653061E+00  0.0000000E+00  0.6122449E-01  0.3800724E-10  0.0000000E+00  0.9395866E-02
  0.3061225E+00  0.0000000E+00  0.6122449E-01  0.3116445E-10  0.0000000E+00  0.9395866E-02
  0.3469388E+00  0.0000000E+00  0.6122449E-01  0.2760337E-10  0.0000000E+00  0.9395866E-02
  0.3877551E+00  0.0000000E+00  0.6122449E-01  0.3888594E-10  0.0000000E+00  0.9395866E-02
  0.4285714E+00  0.0000000E+00  0.6122449E-01  0.4785504E-10  0.0000000E+00  0.9395866E-02
  0.4693878E+00  0.0000000E+00  0.6122449E-01  0.4990364E-10  0.0000000E+00  0.9395866E-02
  0.5102041E+00  0.0000000E+00  0.6122449E-01  0.5019162E-10  0.0000000E+00  0.9395866E-02
  0.5510204E+00  0.0000000E+00  0.6122449E-01  0.4994168E-10  0.0000000E+00  0.9395866E-02
  0.5918368E+00  0.0000000E+00  0.6122449E-01  0.4851552E-10  0.0000000E+00  0.9395866E-02
  0.6326531E+00  0.0000000E+00  0.6122449E-01  0.4533540E-10  0.0000000E+00  0.9395866E-02
  0.6734694E+00  0.0000000E+00  0.6122449E-01  0.4171120E-10  0.0000000E+00  0.9395866E-02
  0.7142857E+00  0.0000000E+00  0.6122449E-01  0.3810072E-10  0.0000000E+00  0.9395866E-02
  0.7551020E+00  0.0000000E+00  0.6122449E-01  0.3355299E-10  0.0000000E+00  0.9395866E-02
  0.7959183E+00  0.0000000E+00  0.6122449E-01  0.2819222E-10  0.0000000E+00  0.9395867E-02
  0.8367347E+00  0.0000000E+00  0.6122449E-01  0.2194123E-10  0.0000000E+00  0.9395867E-02
  0.8775510E+00  0.0000000E+00  0.6122449E-01  0.1534471E-10  0.0000000E+00  0.9395867E-02
  0.9183673E+00  0.0000000E+00  0.6122449E-01  0.9162017E-11  0.0000000E+00  0.9395867E-02
  0.9591837E+00  0.0000000E+00  0.6122449E-01  0.5595815E-11  0.0000000E+00  0.9395867E-02
  0.1000000E+01  0.0000000E+00  0.6122449E-01  0.9549499E-11  0.0000000E+00  0.9395867E-02
  0.1040816E+01  0.0000000E+00  0.6122449E-01  0.1143953E-11  0.0000000E+00  0.9395867E-02
  0.1081633E+01  0.0000000E+00  0.6122449E-01 -0.8081259E-11  0.0000000E+00  0.9395867E-02
  0.1122449E+01  0.0000000E+00  0.6122449E-01 -0.1246236E-10  0.0000000E+00  0.9395867E-02
  0.1163265E+01  0.0000000E+00  0.6122449E-01 -0.1656337E-10  0.0000000E+00  0.9395867E-02
  0.1204082E+01  0.0000000E+00  0.6122449E-01 -0.2063575E-10  0.0000000E+00  0.9395867E-02
  0.1244898E+01  0.0000000E+00  0.6122449E-01 -0.2300079E-10  0.0000000E+00  0.9395867E-02
  0.1285714E+01  0.0000000E+00  0.6122449E-01 -0.2506299E-10  0.0000000E+00  0.9395866E-02
  0.1326531E+01  0.0000000E+00  0.6122449E-01 -0.2699296E-10  0.0000000E+00  0.9395866E-02
  0.1367347E+01  0.0000000E+00  0.6122449E-01 -0.2840463E-10  0.0000000E+00  0.9395866E-02
  0.1408163E+01  0.0000000E+00  0.6122449E-01 -0.2929701E-10  0.0000000E+00  0.9395866E-02
  0.1448980E+01  0.0000000E+00  0.6122449E-01 -0.2982367E-10  0.0000000E+00  0.9395866E-02
  0.1489796E+01  0.0000000E+00  0.6122449E-01 -0.3003642E-10  0.0000000E+00  0.9395866E-02
  0.1530612E+01  0.0000000E+00  0.6122449E-01 -0.2993833E-10  0.0000000E+00  0.9395866E-02
  0.1571429E+01  0.0000000E+00  0.6122449E-01 -0.2957644E-10  0.0000000E+00  0.9395866E-02
  0.1612245E+01  0.0000000E+00  0.6122449E-01 -0.2902512E-10  0.0000000E+00  0.9395866E-02
  0.1653061E+01  0.0000000E+00  0.6122449E-01 -0.2836603E-10  0.0000000E+00  0.9395866E-02
  0.1693878E+01  0.0000000E+00  0.6122449E-01 -0.2768498E-10  0.0000000E+00  0.9395866E-02
  0.1734694E+01  0.0000000E+00  0.6122449E-01 -0.2705067E-10  0.0000000E+00  0.9395866E-02
  0.1775510E+01  0.0000000E+00  0.6122449E-01 -0.2651082E-10  0.0000000E+00  0.9395866E-02
  0.1816326E+01  0.0000000E+00  0.6122449E-01 -0.2614552E-10  0.0000000E+00  0.9395866E-02
  0.1857143E+01  0.0000000E+00  0.6122449E-01 -0.2624710E-10  0.0000000E+00  0.9395866E-02
  0.1897959E+01  0.0000000E+00  0.6122449E-01 -0.2782268E-10  0.0000000E+00  0.9395866E-02
  0.1938776E+01  0.0000000E+00  0.6122449E-01 -0.3394787E-10  0.0000000E+00  0.9395866E-02
  0.1989796E+01  0.0000000E+00  0.6122449E-01 -0.5336310E-10  0.0000000E+00  0.9395866E-02
  0.2040816E-01  0.0000000E+00  0.1020408E+00 -0.7639974E-10  0.0000000E+00  0.9394626E-02
  0.6122449E-01  0.0000000E+00  0.1020408E+00 -0.4562734E-10  0.0000000E+00  0.9394626E-02
  0.1020408E+00  0.0000000E+00  0.1020408E+00 -0.5169672E-11  0.0000000E+00  0.9394626E-02
  0.1428571E+00  0.0000000E+00  0.1020408E+00  0.1458749E-10  0.0000000E+00  0.9394626E-02
  0.1836735E+00  0.0000000E+00  0.1020408E+00  0.3339125E-10  0.0000000E+00  0.9394626E-02
  0.2244898E+00  0.0000000E+00  0.1020408E+00  0.5201303E-10  0.0000000E+00  0.9394626E-02
  0.2653061E+00  0.0000000E+00  0.1020408E+00  0.6320586E-10  0.0000000E+00  0.9394626E-02
  0.3061225E+00  0.0000000E+00  0.1020408E+00  0.5533306E-10  0.0000000E+00  0.9394626E-02
  0.3469388E+00  0.0000000E+00  0.1020408E+00  0.5283133E-10  0.0000000E+00  0.9394626E-02
  0.3877551E+00  0.0000000E+00  0.1020408E+00  0.6904022E-10  0.0000000E+00  0.9394626E-02
  0.4285714E+00  0.0000000E+00  0.1020408E+00  0.8287009E-10  0.0000000E+00  0.9394626E-02
  0.4693878E+00  0.0000000E+00  0.1020408E+00  0.8752818E-10  0.0000000E+00  0.9394626E-02
  0.5102041E+00  0.0000000E+00  0.1020408E+00  0.8798866E-10  0.0000000E+00  0.9394627E-02
  0.5510204E+00  0.0000000E+00  0.1020408E+00  0.8662711E-10  0.0000000E+00  0.9394627E-02
  0.5918368E+00  0.0000000E+00  0.1020408E+00  0.8435831E-10  0.0000000E+00  0.9394627E-02
  0.6326531E+00  0.0000000E+00  0.1020408E+00  0.7963453E-10  0.0000000E+00  0.9394627E-02
  0.6734694E+00  0.0000000E+00  0.1020408E+00  0.7325630E-10  0.0000000E+00  0.9394627E-02
  0.7142857E+00  0.0000000E+00  0.1020408E+00  0.6657948E-10  0.0000000E+00  0.9394627E-02
  0.7551020E+00  0.0000000E+00  0.1020408E+00  0.5851183E-10  0.0000000E+00  0.9394627E-02
  0.7959183E+00  0.0000000E+00  0.1020408E+00  0.4918086E-10  0.0000000E+00  0.9394627E-02
  0.8367347E+00  0.0000000E+00  0.1020408E+00  0.3817390E-10  0.0000000E+00  0.9394627E-02
  0.8775510E+00  0.0000000E+00  0.1020408E+00  0.2637247E-10  0.0000000E+00  0.9394627E-02
  0.9183673E+00  0.0000000E+00  0.1020408E+00  0.1519272E-10  0.0000000E+00  0.9394627E-02
  0.9591837E+00  0.0000000E+00  0.1020408E+00  0.1482815E-10  0.0000000E+00  0.9394627E-02
  0.1000000E+01  0.0000000E+00  0.1020408E+00  0.1439809E-10  0.0000000E+00  0.9394627E-02
  0.1040816E+01  0.0000000E+00  0.1020408E+00  0.2663502E-12  0.0000000E+00  0.9394627E-02
  0.1081633E+01  0.0000000E+00  0.1020408E+00 -0.1422908E-10  0.0000000E+00  0.9394627E-02
  0.1122449E+01  0.0000000E+00  0.1020408E+00 -0.2244904E-10  0.0000000E+00  0.9394627E-02
  0.1163265E+01  0.0000000E+00  0.1020408E+00 -0.2914987E-10  0.0000000E+00  0.9394627E-02
  0.1204082E+01  0.0000000E+00  0.1020408E+00 -0.3573840E-10  0.0000000E+00  0.9394627E-02
  0.1244898E+01  0.0000000E+00  0.1020408E+00 -0.4016395E-10  0.0000000E+00  0.9394627E-02
  0.1285714E+01  0.0000000E+00  0.1020408E+00 -0.4382590E-10  0.0000000E+00  0.9394627E-02
  0.1326531E+01  0.0000000E+00  0.1020408E+00 -0.4705694E-10  0.0000000E+00  0.9394627E-02
  0.1367347E+01  0.0000000E+00  0.1020408E+00 -0.4947032E-10  0.0000000E+00  0.9394627E-02
  0.1408163E+01  0.0000000E+00  0.1020408E+00 -0.5103830E-10  0.0000000E+00  0.9394627E-02
  0.1448980E+01  0.0000000E+00  0.1020408E+00 -0.5194462E-10  0.0000000E+00  0.9394627E-02
  0.1489796E+01  0.0000000E+00  0.1020408E+00 -0.5228003E-10  0.0000000E+00  0.9394627E-02
  0.1530612E+01  0.0000000E+00  0.1020408E+00 -0.5207038E-10  0.0000000E+00  0.9394627E-02
  0.1571429E+01  0.0000000E+00  0.1020408E+00 -0.5140735E-10  0.0000000E+00  0.9394627E-02
  0.1612245E+01  0.0000000E+00  0.1020408E+00 -0.5042454E-10  0.0000000E+00  0.9394627E-02
  0.1653061E+01  0.0000000E+00  0.1020408E+00 -0.4925139E-10  0.0000000E+00  0.9394627E-02
  0.1693878E+01  0.0000000E+00  0.1020408E+00 -0.4801962E-10  0.0000000E+00  0.9394627E-02
  0.1734694E+01  0.0000000E+00  0.1020408E+00 -0.4683719E-10  0.0000000E+00  0.9394627E-02
  0.1775510E+01  0.0000000E+00  0.1020408E+00 -0.4574162E-10  0.0000000E+00  0.9394626E-02
  0.1816326E+01  0.0000000E+00  0.1020408E+00 -0.4471932E-10  0.0000000E+00  0.9394626E-02
  0.1857143E+01  0.0000000E+00  0.1020408E+00 -0.4392078E-10  0.0000000E+00  0.9394626E-02
  0.1897959E+01  0.0000000E+00  0.1020408E+00 -0.4434237E-10  0.0000000E+00  0.9394626E-02
  0.1938776E+01  0.0000000E+00  0.1020408E+00 -0.4956318E-10  0.0000000E+00  0.9394626E-02
  0.1989796E+01  0.0000000E+00  0.1020408E+00 -0.7091729E-10  0.0000000E+00  0.9394626E-02
  0.2040816E-01  0.0000000E+00  0.1428571E+00 -0.8065984E-10  0.0000000E+00  0.9391924E-02
  0.6122449E-01  0.0000000E+00  0.1428571E+00 -0.5152812E-10  0.0000000E+00  0.9391924E-02
  0.1020408E+00  0.0000000E+00  0.1428571E+00 -0.1609508E-11  0.0000000E+00  0.9391924E-02
  0.1428571E+00  0.0000000E+00  0.1428571E+00  0.2354030E-10  0.0000000E+00  0.9391924E-02
  0.1836735E+00  0.0000000E+00  0.1428571E+00  0.4752813E-10  0.0000000E+00  0.9391924E-02
  0.2244898E+00  0.0000000E+00  0.1428571E+00  0.7234640E-10  0.0000000E+00  0.9391924E-02
  0.2653061E+00  0.0000000E+00  0.1428571E+00  0.8460890E-10  0.0000000E+00  0.9391925E-02
  0.3061225E+00  0.0000000E+00  0.1428571E+00  0.7688999E-10  0.0000000E+00  0.9391925E-02
  0.3469388E+00  0.0000000E+00  0.1428571E+00  0.7718881E-10  0.0000000E+00  0.9391925E-02
  0.3877551E+00  0.0000000E+00  0.1428571E+00  0.9663480E-10  0.0000000E+00  0.9391925E-02
  0.4285714E+00  0.0000000E+00  0.1428571E+00  0.1129745E-09  0.0000000E+00  0.9391925E-02
  0.4693878E+00  0.0000000E+00  0.1428571E+00  0.1198138E-09  0.0000000E+00  0.9391925E-02
  0.5102041E+00  0.0000000E+00  0.1428571E+00  0.1209955E-09  0.0000000E+00  0.9391925E-02
  0.5510204E+00  0.0000000E+00  0.1428571E+00  0.1184176E-09  0.0000000E+00  0.9391925E-02
  0.5918368E+00  0.0000000E+00  0.1428571E+00  0.1148770E-09  0.0000000E+00  0.9391925E-02
  0.6326531E+00  0.0000000E+00  0.1428571E+00  0.1091724E-09  0.0000000E+00  0.9391925E-02
  0.6734694E+00  0.0000000E+00  0.1428571E+00  0.1007820E-09  0.0000000E+00  0.9391925E-02
  0.7142857E+00  0.0000000E+00  0.1428571E+00  0.9144018E-10  0.0000000E+00  0.9391925E-02
  0.7551020E+00  0.0000000E+00  0.1428571E+00  0.8017200E-10  0.0000000E+00  0.9391925E-02
  0.7959183E+00  0.0000000E+00  0.1428571E+00  0.6727870E-10  0.0000000E+00  0.9391925E-02
  0.8367347E+00  0.0000000E+00  0.1428571E+00  0.5197202E-10  0.0000000E+00  0.9391925E-02
  0.8775510E+00  0.0000000E+00  0.1428571E+00  0.3545543E-10  0.0000000E+00  0.9391925E-02
  0.9183673E+00  0.0000000E+00  0.1428571E+00  0.2185811E-10  0.0000000E+00  0.9391925E-02
  0.9591837E+00  0.0000000E+00  0.1428571E+00  0.2424040E-10  0.0000000E+00  0.9391925E-02
  0.1000000E+01  0.0000000E+00  0.1428571E+00  0.1624622E-10  0.0000000E+00  0.9391925E-02
  0.1040816E+01  0.0000000E+00  0.1428571E+00 -0.1349821E-11  0.0000000E+00  0.9391925E-02
  0.1081633E+01  0.0000000E+00  0.1428571E+00 -0.1943138E-10  0.0000000E+00  0.9391925E-02
  0.1122449E+01  0.0000000E+00  0.1428571E+00 -0.3103682E-10  0.0000000E+00  0.9391925E-02
  0.1163265E+01  0.0000000E+00  0.1428571E+00 -0.4009173E-10  0.0000000E+00  0.9391925E-02
  0.1204082E+01  0.0000000E+00  0.1428571E+00 -0.4862558E-10  0.0000000E+00  0.9391925E-02
  0.1244898E+01  0.0000000E+00  0.1428571E+00 -0.5484665E-10  0.0000000E+00  0.9391925E-02
  0.1285714E+01  0.0000000E+00  0.1428571E+00 -0.5990827E-10  0.0000000E+00  0.9391925E-02
  0.1326531E+01  0.0000000E+00  0.1428571E+00 -0.6421307E-10  0.0000000E+00  0.9391925E-02
  0.1367347E+01  0.0000000E+00  0.1428571E+00 -0.6745693E-10  0.0000000E+00  0.9391925E-02
  0.1408163E+01  0.0000000E+00  0.1428571E+00 -0.6958790E-10  0.0000000E+00  0.9391925E-02
  0.1448980E+01  0.0000000E+00  0.1428571E+00 -0.7078527E-10  0.0000000E+00  0.9391925E-02
  0.1489796E+01  0.0000000E+00  0.1428571E+00 -0.7118490E-10  0.0000000E+00  0.9391925E-02
  0.1530612E+01  0.0000000E+00  0.1428571E+00 -0.7083957E-10  0.0000000E+00  0.9391925E-02
  0.1571429E+01  0.0000000E+00  0.1428571E+00 -0.6987028E-10  0.0000000E+00  0.9391925E-02
  0.1612245E+01  0.0000000E+00  0.1428571E+00 -0.6846445E-10  0.0000000E+00  0.9391925E-02
  0.1653061E+01  0.0000000E+00  0.1428571E+00 -0.6679234E-10  0.0000000E+00  0.9391925E-02
  0.1693878E+01  0.0000000E+00  0.1428571E+00 -0.6500474E-10  0.0000000E+00  0.9391925E-02
  0.1734694E+01  0.0000000E+00  0.1428571E+00 -0.6321904E-10  0.0000000E+00  0.9391925E-02
  0.1775510E+01  0.0000000E+00  0.1428571E+00 -0.6142995E-10  0.0000000E+00  0.9391925E-02
  0.1816326E+01  0.0000000E+00  0.1428571E+00 -0.5942359E-10  0.0000000E+00  0.9391925E-02
  0.1857143E+01  0.0000000E+00  0.1428571E+00 -0.5689996E-10  0.0000000E+00  0.9391925E-02
  0.1897959E+01  0.0000000E+00  0.1428571E+00 -0.5426275E-10  0.0000000E+00  0.9391925E-02
  0.1938776E+01  0.0000000E+00  0.1428571E+00 -0.5472343E-10  0.0000000E+00  0.9391925E-02
  0.1989796E+01  0.0000000E+00  0.1428571E+00 -0.7173157E-10  0.0000000E+00  0.9391925E-02
  0.2040816E-01  0.0000000E+00  0.1836735E+00 -0.7978797E-10  0.0000000E+00  0.9387227E-02
  0.6122449E-01  0.0000000E+00  0.1836735E+00 -0.5151924E-10  0.0000000E+00  0.9387227E-02
  0.1020408E+00  0.0000000E+00  0.1836735E+00  0.4680633E-11  0.0000000E+00  0.9387227E-02
  0.1428571E+00  0.0000000E+00  0.1836735E+00  0.3294688E-10  0.0000000E+00  0.9387227E-02
  0.1836735E+00  0.0000000E+00  0.1836735E+00  0.6087764E-10  0.0000000E+00  0.9387227E-02
  0.2244898E+00  0.0000000E+00  0.1836735E+00  0.9017443E-10  0.0000000E+00  0.9387227E-02
  0.2653061E+00  0.0000000E+00  0.1836735E+00  0.1036439E-09  0.0000000E+00  0.9387227E-02
  0.3061225E+00  0.0000000E+00  0.1836735E+00  0.9629774E-10  0.0000000E+00  0.9387227E-02
  0.3469388E+00  0.0000000E+00  0.1836735E+00  0.9914467E-10  0.0000000E+00  0.9387227E-02
  0.3877551E+00  0.0000000E+00  0.1836735E+00  0.1210988E-09  0.0000000E+00  0.9387227E-02
  0.4285714E+00  0.0000000E+00  0.1836735E+00  0.1387346E-09  0.0000000E+00  0.9387227E-02
  0.4693878E+00  0.0000000E+00  0.1836735E+00  0.1468353E-09  0.0000000E+00  0.9387227E-02
  0.5102041E+00  0.0000000E+00  0.1836735E+00  0.1488973E-09  0.0000000E+00  0.9387227E-02
  0.5510204E+00  0.0000000E+00  0.1836735E+00  0.1457911E-09  0.0000000E+00  0.9387227E-02
  0.5918368E+00  0.0000000E+00  0.1836735E+00  0.1406629E-09  0.0000000E+00  0.9387227E-02
  0.6326531E+00  0.0000000E+00  0.1836735E+00  0.1338604E-09  0.0000000E+00  0.9387227E-02
  0.6734694E+00  0.0000000E+00  0.1836735E+00  0.1240567E-09  0.0000000E+00  0.9387227E-02
  0.7142857E+00  0.0000000E+00  0.1836735E+00  0.1126799E-09  0.0000000E+00  0.9387227E-02
  0.7551020E+00  0.0000000E+00  0.1836735E+00  0.9873031E-10  0.0000000E+00  0.9387227E-02
  0.7959183E+00  0.0000000E+00  0.1836735E+00  0.8275435E-10  0.0000000E+00  0.9387227E-02
  0.8367347E+00  0.0000000E+00  0.1836735E+00  0.6375907E-10  0.0000000E+00  0.9387227E-02
  0.8775510E+00  0.0000000E+00  0.1836735E+00  0.4318582E-10  0.0000000E+00  0.9387228E-02
  0.9183673E+00  0.0000000E+00  0.1836735E+00  0.2943339E-10  0.0000000E+00  0.9387228E-02
  0.9591837E+00  0.0000000E+00  0.1836735E+00  0.2958569E-10  0.0000000E+00  0.9387228E-02
  0.1000000E+01  0.0000000E+00  0.1836735E+00  0.1790434E-10  0.0000000E+00  0.9387228E-02
  0.1040816E+01  0.0000000E+00  0.1836735E+00 -0.2921470E-11  0.0000000E+00  0.9387228E-02
  0.1081633E+01  0.0000000E+00  0.1836735E+00 -0.2370915E-10  0.0000000E+00  0.9387228E-02
  0.1122449E+01  0.0000000E+00  0.1836735E+00 -0.3800214E-10  0.0000000E+00  0.9387228E-02
  0.1163265E+01  0.0000000E+00  0.1836735E+00 -0.4918641E-10  0.0000000E+00  0.9387228E-02
  0.1204082E+01  0.0000000E+00  0.1836735E+00 -0.5933090E-10  0.0000000E+00  0.9387227E-02
  0.1244898E+01  0.0000000E+00  0.1836735E+00 -0.6704351E-10  0.0000000E+00  0.9387227E-02
  0.1285714E+01  0.0000000E+00  0.1836735E+00 -0.7328041E-10  0.0000000E+00  0.9387227E-02
  0.1326531E+01  0.0000000E+00  0.1836735E+00 -0.7846347E-10  0.0000000E+00  0.9387227E-02
  0.1367347E+01  0.0000000E+00  0.1836735E+00 -0.8237956E-10  0.0000000E+00  0.9387227E-02
  0.1408163E+01  0.0000000E+00  0.1836735E+00 -0.8496122E-10  0.0000000E+00  0.9387227E-02
  0.1448980E+01  0.0000000E+00  0.1836735E+00 -0.8636164E-10  0.0000000E+00  0.9387227E-02
  0.1489796E+01  0.0000000E+00  0.1836735E+00 -0.8676581E-10  0.0000000E+00  0.9387227E-02
  0.1530612E+01  0.0000000E+00  0.1836735E+00 -0.8626166E-10  0.0000000E+00  0.9387227E-02
  0.1571429E+01  0.0000000E+00  0.1836735E+00 -0.8498025E-10  0.0000000E+00  0.9387227E-02
  0.1612245E+01  0.0000000E+00  0.1836735E+00 -0.8314502E-10  0.0000000E+00  0.9387227E-02
  0.1653061E+01  0.0000000E+00  0.1836735E+00 -0.8096751E-10  0.0000000E+00  0.9387227E-02
  0.1693878E+01  0.0000000E+00  0.1836735E+00 -0.7860240E-10  0.0000000E+00  0.9387227E-02
  0.1734694E+01  0.0000000E+00  0.1836735E+00 -0.7614183E-10  0.0000000E+00  0.9387227E-02
  0.1775510E+01  0.0000000E+00  0.1836735E+00 -0.7352447E-10  0.0000000E+00  0.9387227E-02
  0.1816326E+01  0.0000000E+00  0.1836735E+00 -0.7035519E-10  0.0000000E+00  0.9387227E-02
  0.1857143E+01  0.0000000E+00  0.1836735E+00 -0.6582247E-10  0.0000000E+00  0.9387227E-02
  0.1897959E+01  0.0000000E+00  0.1836735E+00 -0.5951332E-10  0.0000000E+00  0.9387227E-02
  0.1938776E+01  0.0000000E+00  0.1836735E+00 -0.5462512E-10  0.0000000E+00  0.9387227E-02
  0.1989796E+01  0.0000000E+00  0.1836735E+00 -0.6736564E-10  0.0000000E+00  0.9387227E-02
  0.2040816E-01  0.0000000E+00  0.2244898E+00 -0.7720959E-10  0.0000000E+00  0.9379980E-02
  0.6122449E-01  0.0000000E+00  0.2244898E+00 -0.4918115E-10  0.0000000E+00  0.9379980E-02
  0.1020408E+00  0.0000000E+00  0.2244898E+00  0.1359299E-10  0.0000000E+00  0.9379980E-02
  0.1428571E+00  0.0000000E+00  0.2244898E+00  0.4189921E-10  0.0000000E+00  0.9379980E-02
  0.1836735E+00  0.0000000E+00  0.2244898E+00  0.7313617E-10  0.0000000E+00  0.9379980E-02
  0.2244898E+00  0.0000000E+00  0.2244898E+00  0.1055991E-09  0.0000000E+00  0.9379980E-02
  0.2653061E+00  0.0000000E+00  0.2244898E+00  0.1201705E-09  0.0000000E+00  0.9379980E-02
  0.3061225E+00  0.0000000E+00  0.2244898E+00  0.1136768E-09  0.0000000E+00  0.9379980E-02
  0.3469388E+00  0.0000000E+00  0.2244898E+00  0.1184935E-09  0.0000000E+00  0.9379980E-02
  0.3877551E+00  0.0000000E+00  0.2244898E+00  0.1420254E-09  0.0000000E+00  0.9379980E-02
  0.4285714E+00  0.0000000E+00  0.2244898E+00  0.1604238E-09  0.0000000E+00  0.9379980E-02
  0.4693878E+00  0.0000000E+00  0.2244898E+00  0.1692170E-09  0.0000000E+00  0.9379980E-02
  0.5102041E+00  0.0000000E+00  0.2244898E+00  0.1716276E-09  0.0000000E+00  0.9379981E-02
  0.5510204E+00  0.0000000E+00  0.2244898E+00  0.1686843E-09  0.0000000E+00  0.9379981E-02
  0.5918368E+00  0.0000000E+00  0.2244898E+00  0.1623301E-09  0.0000000E+00  0.9379981E-02
  0.6326531E+00  0.0000000E+00  0.2244898E+00  0.1541552E-09  0.0000000E+00  0.9379981E-02
  0.6734694E+00  0.0000000E+00  0.2244898E+00  0.1431788E-09  0.0000000E+00  0.9379981E-02
  0.7142857E+00  0.0000000E+00  0.2244898E+00  0.1302597E-09  0.0000000E+00  0.9379981E-02
  0.7551020E+00  0.0000000E+00  0.2244898E+00  0.1142527E-09  0.0000000E+00  0.9379981E-02
  0.7959183E+00  0.0000000E+00  0.2244898E+00  0.9577730E-10  0.0000000E+00  0.9379981E-02
  0.8367347E+00  0.0000000E+00  0.2244898E+00  0.7377745E-10  0.0000000E+00  0.9379981E-02
  0.8775510E+00  0.0000000E+00  0.2244898E+00  0.5004936E-10  0.0000000E+00  0.9379981E-02
  0.9183673E+00  0.0000000E+00  0.2244898E+00  0.3549818E-10  0.0000000E+00  0.9379981E-02
  0.9591837E+00  0.0000000E+00  0.2244898E+00  0.3356204E-10  0.0000000E+00  0.9379981E-02
  0.1000000E+01  0.0000000E+00  0.2244898E+00  0.1905550E-10  0.0000000E+00  0.9379981E-02
  0.1040816E+01  0.0000000E+00  0.2244898E+00 -0.4213966E-11  0.0000000E+00  0.9379981E-02
  0.1081633E+01  0.0000000E+00  0.2244898E+00 -0.2706088E-10  0.0000000E+00  0.9379981E-02
  0.1122449E+01  0.0000000E+00  0.2244898E+00 -0.4343798E-10  0.0000000E+00  0.9379981E-02
  0.1163265E+01  0.0000000E+00  0.2244898E+00 -0.5641270E-10  0.0000000E+00  0.9379981E-02
  0.1204082E+01  0.0000000E+00  0.2244898E+00 -0.6788248E-10  0.0000000E+00  0.9379981E-02
  0.1244898E+01  0.0000000E+00  0.2244898E+00 -0.7682769E-10  0.0000000E+00  0.9379981E-02
  0.1285714E+01  0.0000000E+00  0.2244898E+00 -0.8403727E-10  0.0000000E+00  0.9379981E-02
  0.1326531E+01  0.0000000E+00  0.2244898E+00 -0.8991545E-10  0.0000000E+00  0.9379981E-02
  0.1367347E+01  0.0000000E+00  0.2244898E+00 -0.9434623E-10  0.0000000E+00  0.9379981E-02
  0.1408163E+01  0.0000000E+00  0.2244898E+00 -0.9727362E-10  0.0000000E+00  0.9379981E-02
  0.1448980E+01  0.0000000E+00  0.2244898E+00 -0.9880290E-10  0.0000000E+00  0.9379981E-02
  0.1489796E+01  0.0000000E+00  0.2244898E+00 -0.9915710E-10  0.0000000E+00  0.9379981E-02
  0.1530612E+01  0.0000000E+00  0.2244898E+00 -0.9846876E-10  0.0000000E+00  0.9379981E-02
  0.1571429E+01  0.0000000E+00  0.2244898E+00 -0.9687343E-10  0.0000000E+00  0.9379981E-02
  0.1612245E+01  0.0000000E+00  0.2244898E+00 -0.9460540E-10  0.0000000E+00  0.9379981E-02
  0.1653061E+01  0.0000000E+00  0.2244898E+00 -0.9191351E-10  0.0000000E+00  0.9379981E-02
  0.1693878E+01  0.0000000E+00  0.2244898E+00 -0.8895834E-10  0.0000000E+00  0.9379981E-02
  0.1734694E+01  0.0000000E+00  0.2244898E+00 -0.8578328E-10  0.0000000E+00  0.9379980E-02
  0.1775510E+01  0.0000000E+00  0.2244898E+00 -0.8224693E-10  0.0000000E+00  0.9379980E-02
  0.1816326E+01  0.0000000E+00  0.2244898E+00 -0.7784758E-10  0.0000000E+00  0.9379980E-02
  0.1857143E+01  0.0000000E+00  0.2244898E+00 -0.7143840E-10  0.0000000E+00  0.9379980E-02
  0.1897959E+01  0.0000000E+00  0.2244898E+00 -0.6171742E-10  0.0000000E+00  0.9379980E-02
  0.1938776E+01  0.0000000E+00  0.2244898E+00 -0.5225615E-10  0.0000000E+00  0.9379980E-02
  0.1989796E+01  0.0000000E+00  0.2244898E+00 -0.6155781E-10  0.0000000E+00  0.9379980E-02
  0.2040816E-01  0.0000000E+00  0.2653061E+00 -0.7376429E-10  0.0000000E+00  0.9369604E-02
  0.6122449E-01  0.0000000E+00  0.2653061E+00 -0.4564152E-10  0.0000000E+00  0.9369604E-02
  0.1020408E+00  0.0000000E+00  0.2653061E+00  0.2288328E-10  0.0000000E+00  0.9369604E-02
  0.1428571E+00  0.0000000E+00  0.2653061E+00  0.5046680E-10  0.0000000E+00  0.9369604E-02
  0.1836735E+00  0.0000000E+00  0.2653061E+00  0.8402214E-10  0.0000000E+00  0.9369604E-02
  0.2244898E+00  0.0000000E+00  0.2653061E+00  0.1187085E-09  0.0000000E+00  0.9369604E-02
  0.2653061E+00  0.0000000E+00  0.2653061E+00  0.1341845E-09  0.0000000E+00  0.9369604E-02
  0.3061225E+00  0.0000000E+00  0.2653061E+00  0.1289947E-09  0.0000000E+00  0.9369604E-02
  0.3469388E+00  0.0000000E+00  0.2653061E+00  0.1354049E-09  0.0000000E+00  0.9369604E-02
  0.3877551E+00  0.0000000E+00  0.2653061E+00  0.1592752E-09  0.0000000E+00  0.9369604E-02
  0.4285714E+00  0.0000000E+00  0.2653061E+00  0.1780334E-09  0.0000000E+00  0.9369604E-02
  0.4693878E+00  0.0000000E+00  0.2653061E+00  0.1875006E-09  0.0000000E+00  0.9369604E-02
  0.5102041E+00  0.0000000E+00  0.2653061E+00  0.1896509E-09  0.0000000E+00  0.9369604E-02
  0.5510204E+00  0.0000000E+00  0.2653061E+00  0.1869058E-09  0.0000000E+00  0.9369604E-02
  0.5918368E+00  0.0000000E+00  0.2653061E+00  0.1800931E-09  0.0000000E+00  0.9369604E-02
  0.6326531E+00  0.0000000E+00  0.2653061E+00  0.1705528E-09  0.0000000E+00  0.9369604E-02
  0.6734694E+00  0.0000000E+00  0.2653061E+00  0.1585117E-09  0.0000000E+00  0.9369604E-02
  0.7142857E+00  0.0000000E+00  0.2653061E+00  0.1442958E-09  0.0000000E+00  0.9369604E-02
  0.7551020E+00  0.0000000E+00  0.2653061E+00  0.1267884E-09  0.0000000E+00  0.9369604E-02
  0.7959183E+00  0.0000000E+00  0.2653061E+00  0.1064127E-09  0.0000000E+00  0.9369604E-02
  0.8367347E+00  0.0000000E+00  0.2653061E+00  0.8195211E-10  0.0000000E+00  0.9369605E-02
  0.8775510E+00  0.0000000E+00  0.2653061E+00  0.5602074E-10  0.0000000E+00  0.9369605E-02
  0.9183673E+00  0.0000000E+00  0.2653061E+00  0.4047715E-10  0.0000000E+00  0.9369605E-02
  0.9591837E+00  0.0000000E+00  0.2653061E+00  0.3664890E-10  0.0000000E+00  0.9369605E-02
  0.1000000E+01  0.0000000E+00  0.2653061E+00  0.1974256E-10  0.0000000E+00  0.9369605E-02
  0.1040816E+01  0.0000000E+00  0.2653061E+00 -0.5258331E-11  0.0000000E+00  0.9369605E-02
  0.1081633E+01  0.0000000E+00  0.2653061E+00 -0.2953849E-10  0.0000000E+00  0.9369605E-02
  0.1122449E+01  0.0000000E+00  0.2653061E+00 -0.4746715E-10  0.0000000E+00  0.9369605E-02
  0.1163265E+01  0.0000000E+00  0.2653061E+00 -0.6186827E-10  0.0000000E+00  0.9369605E-02
  0.1204082E+01  0.0000000E+00  0.2653061E+00 -0.7437782E-10  0.0000000E+00  0.9369605E-02
  0.1244898E+01  0.0000000E+00  0.2653061E+00 -0.8430217E-10  0.0000000E+00  0.9369604E-02
  0.1285714E+01  0.0000000E+00  0.2653061E+00 -0.9230024E-10  0.0000000E+00  0.9369604E-02
  0.1326531E+01  0.0000000E+00  0.2653061E+00 -0.9871632E-10  0.0000000E+00  0.9369604E-02