title = "dataset feddes"
variables = "x", "y", "z", "h_w", "p_w", "s_w", "theta_w", "transp", "evap"
zone t = "Flow variables, solution time =  2.600E+01 days        " i =   50, j =   50, k =    1,  f=point
  0.0000000E+00  0.0000000E+00  0.0000000E+00  0.0000000E+00  0.0000000E+00  0.1000000E+01  0.4280000E+00  0.0000000E+00  0.0000000E+00
  0.4081633E-01  0.0000000E+00  0.0000000E+00  0.0000000E+00  0.0000000E+00  0.1000000E+01  0.4280000E+00  0.0000000E+00  0.0000000E+00
  0.8163265E-01  0.0000000E+00  0.0000000E+00  0.0000000E+00  0.0000000E+00  0.1000000E+01  0.4280000E+00  0.0000000E+00  0.0000000E+00
  0.1224490E+00  0.0000000E+00  0.0000000E+00  0.0000000E+00  0.0000000E+00  0.1000000E+01  0.4280000E+00  0.0000000E+00  0.0000000E+00
  0.1632653E+00  0.0000000E+00  0.0000000E+00  0.0000000E+00  0.0000000E+00  0.1000000E+01  0.4280000E+00  0.0000000E+00  0.0000000E+00
  0.2040816E+00  0.0000000E+00  0.0000000E+00  0.0000000E+00  0.0000000E+00  0.1000000E+01  0.4280000E+00  0.0000000E+00  0.0000000E+00
  0.2448980E+00  0.0000000E+00  0.0000000E+00  0.0000000E+00  0.0000000E+00  0.1000000E+01  0.4280000E+00  0.0000000E+00  0.0000000E+00
  0.2857143E+00  0.0000000E+00  0.0000000E+00  0.0000000E+00  0.0000000E+00  0.1000000E+01  0.4280000E+00  0.0000000E+00  0.0000000E+00
  0.3265306E+00  0.0000000E+00  0.0000000E+00  0.0000000E+00  0.0000000E+00  0.1000000E+01  0.4280000E+00  0.0000000E+00  0.0000000E+00
  0.3673469E+00  0.0000000E+00  0.0000000E+00  0.0000000E+00  0.0000000E+00  0.1000000E+01  0.4280000E+00  0.0000000E+00  0.0000000E+00
  0.4081633E+00  0.0000000E+00  0.0000000E+00  0.0000000E+00  0.0000000E+00  0.1000000E+01  0.4280000E+00  0.0000000E+00  0.0000000E+00
  0.4489796E+00  0.0000000E+00  0.0000000E+00  0.0000000E+00  0.0000000E+00  0.1000000E+01  0.4280000E+00  0.0000000E+00  0.0000000E+00
  0.4897959E+00  0.0000000E+00  0.0000000E+00  0.0000000E+00  0.0000000E+00  0.1000000E+01  0.4280000E+00  0.0000000E+00  0.0000000E+00
  0.5306122E+00  0.0000000E+00  0.0000000E+00  0.0000000E+00  0.0000000E+00  0.1000000E+01  0.4280000E+00  0.0000000E+00  0.0000000E+00
  0.5714286E+00  0.0000000E+00  0.0000000E+00  0.0000000E+00  0.0000000E+00  0.1000000E+01  0.4280000E+00  0.0000000E+00  0.0000000E+00
  0.6122449E+00  0.0000000E+00  0.0000000E+00  0.0000000E+00  0.0000000E+00  0.1000000E+01  0.4280000E+00  0.0000000E+00  0.0000000E+00
  0.6530612E+00  0.0000000E+00  0.0000000E+00  0.0000000E+00  0.0000000E+00  0.1000000E+01  0.4280000E+00  0.0000000E+00  0.0000000E+00
  0.6938776E+00  0.0000000E+00  0.0000000E+00  0.0000000E+00  0.0000000E+00  0.1000000E+01  0.4280000E+00  0.0000000E+00  0.0000000E+00
  0.7346939E+00  0.0000000E+00  0.0000000E+00  0.0000000E+00  0.0000000E+00  0.1000000E+01  0.4280000E+00  0.0000000E+00  0.0000000E+00
  0.7755102E+00  0.0000000E+00  0.0000000E+00  0.0000000E+00  0.0000000E+00  0.1000000E+01  0.4280000E+00  0.0000000E+00  0.0000000E+00
  0.8163265E+00  0.0000000E+00  0.0000000E+00  0.0000000E+00  0.0000000E+00  0.1000000E+01  0.4280000E+00  0.0000000E+00  0.0000000E+00
  0.8571429E+00  0.0000000E+00  0.0000000E+00  0.0000000E+00  0.0000000E+00  0.1000000E+01  0.4280000E+00  0.0000000E+00  0.0000000E+00
  0.8979592E+00  0.0000000E+00  0.0000000E+00  0.0000000E+00  0.0000000E+00  0.1000000E+01  0.4280000E+00  0.0000000E+00  0.0000000E+00
  0.9387755E+00  0.0000000E+00  0.0000000E+00  0.0000000E+00  0.0000000E+00  0.1000000E+01  0.4280000E+00  0.0000000E+00  0.0000000E+00
  0.9795918E+00  0.0000000E+00  0.0000000E+00  0.0000000E+00  0.0000000E+00  0.1000000E+01  0.4280000E+00  0.0000000E+00  0.0000000E+00
  0.1020408E+01  0.0000000E+00  0.0000000E+00  0.0000000E+00  0.0000000E+00  0.1000000E+01  0.4280000E+00  0.0000000E+00  0.0000000E+00
  0.1061224E+01  0.0000000E+00  0.0000000E+00  0.0000000E+00  0.0000000E+00  0.1000000E+01  0.4280000E+00  0.0000000E+00  0.0000000E+00
  0.1102041E+01  0.0000000E+00  0.0000000E+00  0.0000000E+00  0.0000000E+00  0.1000000E+01  0.4280000E+00  0.0000000E+00  0.0000000E+00
  0.1142857E+01  0.0000000E+00  0.0000000E+00  0.0000000E+00  0.0000000E+00  0.1000000E+01  0.4280000E+00  0.0000000E+00  0.0000000E+00
  0.1183673E+01  0.0000000E+00  0.0000000E+00  0.0000000E+00  0.0000000E+00  0.1000000E+01  0.4280000E+00  0.0000000E+00  0.0000000E+00
  0.1224490E+01  0.0000000E+00  0.0000000E+00  0.0000000E+00  0.0000000E+00  0.1000000E+01  0.4280000E+00  0.0000000E+00  0.0000000E+00
  0.1265306E+01  0.0000000E+00  0.0000000E+00  0.0000000E+00  0.0000000E+00  0.1000000E+01  0.4280000E+00  0.0000000E+00  0.0000000E+00
  0.1306122E+01  0.0000000E+00  0.0000000E+00  0.0000000E+00  0.0000000E+00  0.1000000E+01  0.4280000E+00  0.0000000E+00  0.0000000E+00
  0.1346939E+01  0.0000000E+00  0.0000000E+00  0.0000000E+00  0.0000000E+00  0.1000000E+01  0.4280000E+00  0.0000000E+00  0.0000000E+00
  0.1387755E+01  0.0000000E+00  0.0000000E+00  0.0000000E+00  0.0000000E+00  0.1000000E+01  0.4280000E+00  0.0000000E+00  0.0000000E+00
  0.1428571E+01  0.0000000E+00  0.0000000E+00  0.0000000E+00  0.0000000E+00  0.1000000E+01  0.4280000E+00  0.0000000E+00  0.0000000E+00
  0.1469388E+01  0.0000000E+00  0.0000000E+00  0.0000000E+00  0.0000000E+00  0.1000000E+01  0.4280000E+00  0.0000000E+00  0.0000000E+00
  0.1510204E+01  0.0000000E+00  0.0000000E+00  0.0000000E+00  0.0000000E+00  0.1000000E+01  0.4280000E+00  0.0000000E+00  0.0000000E+00
  0.1551020E+01  0.0000000E+00  0.0000000E+00  0.0000000E+00  0.0000000E+00  0.1000000E+01  0.4280000E+00  0.0000000E+00  0.0000000E+00
  0.1591837E+01  0.0000000E+00  0.0000000E+00  0.0000000E+00  0.0000000E+00  0.1000000E+01  0.4280000E+00  0.0000000E+00  0.0000000E+00
  0.1632653E+01  0.0000000E+00  0.0000000E+00  0.0000000E+00  0.0000000E+00  0.1000000E+01  0.4280000E+00  0.0000000E+00  0.0000000E+00
  0.1673469E+01  0.0000000E+00  0.0000000E+00  0.0000000E+00  0.0000000E+00  0.1000000E+01  0.4280000E+00  0.0000000E+00  0.0000000E+00
  0.1714286E+01  0.0000000E+00  0.0000000E+00  0.0000000E+00  0.0000000E+00  0.1000000E+01  0.4280000E+00  0.0000000E+00  0.0000000E+00
  0.1755102E+01  0.0000000E+00  0.0000000E+00  0.0000000E+00  0.0000000E+00  0.1000000E+01  0.4280000E+00  0.0000000E+00  0.0000000E+00
  0.1795918E+01  0.0000000E+00  0.0000000E+00  0.0000000E+00  0.0000000E+00  0.1000000E+01  0.4280000E+00  0.0000000E+00  0.0000000E+00
  0.1836735E+01  0.0000000E+00  0.0000000E+00  0.0000000E+00  0.0000000E+00  0.1000000E+01  0.4280000E+00  0.0000000E+00  0.0000000E+00
  0.1877551E+01  0.0000000E+00  0.0000000E+00  0.0000000E+00  0.0000000E+00  0.1000000E+01  0.4280000E+00  0.0000000E+00  0.0000000E+00
  0.1918367E+01  0.0000000E+00  0.0000000E+00  0.0000000E+00  0.0000000E+00  0.1000000E+01  0.4280000E+00  0.0000000E+00  0.0000000E+00
  0.1959184E+01  0.0000000E+00  0.0000000E+00  0.0000000E+00  0.0000000E+00  0.1000000E+01  0.4280000E+00  0.0000000E+00  0.0000000E+00
  0.2000000E+01  0.0000000E+00  0.0000000E+00  0.0000000E+00  0.0000000E+00  0.1000000E+01  0.4280000E+00  0.0000000E+00  0.0000000E+00
  0.0000000E+00  0.0000000E+00  0.4081633E-01 -0.1147957E-03 -0.4093112E-01  0.9960458E+00  0.4263076E+00  0.0000000E+00  0.0000000E+00
  0.4081633E-01  0.0000000E+00  0.4081633E-01 -0.1148055E-03 -0.4093113E-01  0.9960458E+00  0.4263076E+00  0.0000000E+00  0.0000000E+00
  0.8163265E-01  0.0000000E+00  0.4081633E-01 -0.1148327E-03 -0.4093116E-01  0.9960458E+00  0.4263076E+00  0.0000000E+00  0.0000000E+00
  0.1224490E+00  0.0000000E+00  0.4081633E-01 -0.1148709E-03 -0.4093120E-01  0.9960458E+00  0.4263076E+00  0.0000000E+00  0.0000000E+00
  0.1632653E+00  0.0000000E+00  0.4081633E-01 -0.1149098E-03 -0.4093124E-01  0.9960458E+00  0.4263076E+00  0.0000000E+00  0.0000000E+00
  0.2040816E+00  0.0000000E+00  0.4081633E-01 -0.1149356E-03 -0.4093126E-01  0.9960458E+00  0.4263076E+00  0.0000000E+00  0.0000000E+00
  0.2448980E+00  0.0000000E+00  0.4081633E-01 -0.1149324E-03 -0.4093126E-01  0.9960458E+00  0.4263076E+00  0.0000000E+00  0.0000000E+00
  0.2857143E+00  0.0000000E+00  0.4081633E-01 -0.1148822E-03 -0.4093121E-01  0.9960458E+00  0.4263076E+00  0.0000000E+00  0.0000000E+00
  0.3265306E+00  0.0000000E+00  0.4081633E-01 -0.1147670E-03 -0.4093109E-01  0.9960458E+00  0.4263076E+00  0.0000000E+00  0.0000000E+00
  0.3673469E+00  0.0000000E+00  0.4081633E-01 -0.1145691E-03 -0.4093090E-01  0.9960458E+00  0.4263076E+00  0.0000000E+00  0.0000000E+00
  0.4081633E+00  0.0000000E+00  0.4081633E-01 -0.1142731E-03 -0.4093060E-01  0.9960459E+00  0.4263076E+00  0.0000000E+00  0.0000000E+00
  0.4489796E+00  0.0000000E+00  0.4081633E-01 -0.1138661E-03 -0.4093019E-01  0.9960459E+00  0.4263077E+00  0.0000000E+00  0.0000000E+00
  0.4897959E+00  0.0000000E+00  0.4081633E-01 -0.1133394E-03 -0.4092967E-01  0.9960460E+00  0.4263077E+00  0.0000000E+00  0.0000000E+00
  0.5306122E+00  0.0000000E+00  0.4081633E-01 -0.1126885E-03 -0.4092902E-01  0.9960461E+00  0.4263077E+00  0.0000000E+00  0.0000000E+00
  0.5714286E+00  0.0000000E+00  0.4081633E-01 -0.1119139E-03 -0.4092824E-01  0.9960462E+00  0.4263078E+00  0.0000000E+00  0.0000000E+00
  0.6122449E+00  0.0000000E+00  0.4081633E-01 -0.1110204E-03 -0.4092735E-01  0.9960463E+00  0.4263078E+00  0.0000000E+00  0.0000000E+00
  0.6530612E+00  0.0000000E+00  0.4081633E-01 -0.1100173E-03 -0.4092634E-01  0.9960464E+00  0.4263079E+00  0.0000000E+00  0.0000000E+00
  0.6938776E+00  0.0000000E+00  0.4081633E-01 -0.1089173E-03 -0.4092524E-01  0.9960466E+00  0.4263079E+00  0.0000000E+00  0.0000000E+00
  0.7346939E+00  0.0000000E+00  0.4081633E-01 -0.1077357E-03 -0.4092406E-01  0.9960467E+00  0.4263080E+00  0.0000000E+00  0.0000000E+00
  0.7755102E+00  0.0000000E+00  0.4081633E-01 -0.1064900E-03 -0.4092282E-01  0.9960469E+00  0.4263081E+00  0.0000000E+00  0.0000000E+00
  0.8163265E+00  0.0000000E+00  0.4081633E-01 -0.1051979E-03 -0.4092152E-01  0.9960471E+00  0.4263081E+00  0.0000000E+00  0.0000000E+00
  0.8571429E+00  0.0000000E+00  0.4081633E-01 -0.1038776E-03 -0.4092020E-01  0.9960472E+00  0.4263082E+00  0.0000000E+00  0.0000000E+00
  0.8979592E+00  0.0000000E+00  0.4081633E-01 -0.1025463E-03 -0.4091887E-01  0.9960474E+00  0.4263083E+00  0.0000000E+00  0.0000000E+00
  0.9387755E+00  0.0000000E+00  0.4081633E-01 -0.1012198E-03 -0.4091755E-01  0.9960476E+00  0.4263084E+00  0.0000000E+00  0.0000000E+00
  0.9795918E+00  0.0000000E+00  0.4081633E-01 -0.9991223E-04 -0.4091624E-01  0.9960478E+00  0.4263084E+00  0.0000000E+00  0.0000000E+00
  0.1020408E+01  0.0000000E+00  0.4081633E-01 -0.9863579E-04 -0.4091496E-01  0.9960479E+00  0.4263085E+00  0.0000000E+00  0.0000000E+00
  0.1061224E+01  0.0000000E+00  0.4081633E-01 -0.9740057E-04 -0.4091373E-01  0.9960481E+00  0.4263086E+00  0.0000000E+00  0.0000000E+00
  0.1102041E+01  0.0000000E+00  0.4081633E-01 -0.9621464E-04 -0.4091254E-01  0.9960483E+00  0.4263087E+00  0.0000000E+00  0.0000000E+00
  0.1142857E+01  0.0000000E+00  0.4081633E-01 -0.9508415E-04 -0.4091141E-01  0.9960484E+00  0.4263087E+00  0.0000000E+00  0.0000000E+00
  0.1183673E+01  0.0000000E+00  0.4081633E-01 -0.9401352E-04 -0.4091034E-01  0.9960485E+00  0.4263088E+00  0.0000000E+00  0.0000000E+00
  0.1224490E+01  0.0000000E+00  0.4081633E-01 -0.9300559E-04 -0.4090933E-01  0.9960487E+00  0.4263088E+00  0.0000000E+00  0.0000000E+00
  0.1265306E+01  0.0000000E+00  0.4081633E-01 -0.9206193E-04 -0.4090839E-01  0.9960488E+00  0.4263089E+00  0.0000000E+00  0.0000000E+00
  0.1306122E+01  0.0000000E+00  0.4081633E-01 -0.9118299E-04 -0.4090751E-01  0.9960489E+00  0.4263089E+00  0.0000000E+00  0.0000000E+00
  0.1346939E+01  0.0000000E+00  0.4081633E-01 -0.9036836E-04 -0.4090669E-01  0.9960490E+00  0.4263090E+00  0.0000000E+00  0.0000000E+00
  0.1387755E+01  0.0000000E+00  0.4081633E-01 -0.8961696E-04 -0.4090594E-01  0.9960491E+00  0.4263090E+00  0.0000000E+00  0.0000000E+00
  0.1428571E+01  0.0000000E+00  0.4081633E-01 -0.8892723E-04 -0.4090525E-01  0.9960492E+00  0.4263091E+00  0.0000000E+00  0.0000000E+00
  0.1469388E+01  0.0000000E+00  0.4081633E-01 -0.8829724E-04 -0.4090462E-01  0.9960493E+00  0.4263091E+00  0.0000000E+00  0.0000000E+00
  0.1510204E+01  0.0000000E+00  0.4081633E-01 -0.8772490E-04 -0.4090405E-01  0.9960494E+00  0.4263091E+00  0.0000000E+00  0.0000000E+00
  0.1551020E+01  0.0000000E+00  0.4081633E-01 -0.8720801E-04 -0.4090353E-01  0.9960494E+00  0.4263092E+00  0.0000000E+00  0.0000000E+00
  0.1591837E+01  0.0000000E+00  0.4081633E-01 -0.8674436E-04 -0.4090307E-01  0.9960495E+00  0.4263092E+00  0.0000000E+00  0.0000000E+00
  0.1632653E+01  0.0000000E+00  0.4081633E-01 -0.8633183E-04 -0.4090266E-01  0.9960496E+00  0.4263092E+00  0.0000000E+00  0.0000000E+00
  0.1673469E+01  0.0000000E+00  0.4081633E-01 -0.8596840E-04 -0.4090229E-01  0.9960496E+00  0.4263092E+00  0.0000000E+00  0.0000000E+00
  0.1714286E+01  0.0000000E+00  0.4081633E-01 -0.8565223E-04 -0.4090198E-01  0.9960497E+00  0.4263093E+00  0.0000000E+00  0.0000000E+00
  0.1755102E+01  0.0000000E+00  0.4081633E-01 -0.8538165E-04 -0.4090171E-01  0.9960497E+00  0.4263093E+00  0.0000000E+00  0.0000000E+00
  0.1795918E+01  0.0000000E+00  0.4081633E-01 -0.8515519E-04 -0.4090148E-01  0.9960497E+00  0.4263093E+00  0.0000000E+00  0.0000000E+00
  0.1836735E+01  0.0000000E+00  0.4081633E-01 -0.8497162E-04 -0.4090130E-01  0.9960497E+00  0.4263093E+00  0.0000000E+00  0.0000000E+00
  0.1877551E+01  0.0000000E+00  0.4081633E-01 -0.8482991E-04 -0.4090116E-01  0.9960498E+00  0.4263093E+00  0.0000000E+00  0.0000000E+00
  0.1918367E+01  0.0000000E+00  0.4081633E-01 -0.8472925E-04 -0.4090106E-01  0.9960498E+00  0.4263093E+00  0.0000000E+00  0.0000000E+00
  0.1959184E+01  0.0000000E+00  0.4081633E-01 -0.8466908E-04 -0.4090100E-01  0.9960498E+00  0.4263093E+00  0.0000000E+00  0.0000000E+00
  0.2000000E+01  0.0000000E+00  0.4081633E-01 -0.8464905E-04 -0.4090098E-01  0.9960498E+00  0.4263093E+00  0.0000000E+00  0.0000000E+00
  0.0000000E+00  0.0000000E+00  0.8163265E-01 -0.3612532E-03 -0.8199391E-01  0.9898457E+00  0.4236540E+00  0.0000000E+00  0.0000000E+00
  0.4081633E-01  0.0000000E+00  0.8163265E-01 -0.3612863E-03 -0.8199394E-01  0.9898457E+00  0.4236540E+00  0.0000000E+00  0.0000000E+00
  0.8163265E-01  0.0000000E+00  0.8163265E-01 -0.3613783E-03 -0.8199403E-01  0.9898457E+00  0.4236540E+00  0.0000000E+00  0.0000000E+00
  0.1224490E+00  0.0000000E+00  0.8163265E-01 -0.3615089E-03 -0.8199416E-01  0.9898457E+00  0.4236540E+00  0.0000000E+00  0.0000000E+00
  0.1632653E+00  0.0000000E+00  0.8163265E-01 -0.3616449E-03 -0.8199430E-01  0.9898457E+00  0.4236539E+00  0.0000000E+00  0.0000000E+00
  0.2040816E+00  0.0000000E+00  0.8163265E-01 -0.3617426E-03 -0.8199440E-01  0.9898456E+00  0.4236539E+00  0.0000000E+00  0.0000000E+00
  0.2448980E+00  0.0000000E+00  0.8163265E-01 -0.3617501E-03 -0.8199440E-01  0.9898456E+00  0.4236539E+00  0.0000000E+00  0.0000000E+00
  0.2857143E+00  0.0000000E+00  0.8163265E-01 -0.3616104E-03 -0.8199426E-01  0.9898457E+00  0.4236539E+00  0.0000000E+00  0.0000000E+00
  0.3265306E+00  0.0000000E+00  0.8163265E-01 -0.3612650E-03 -0.8199392E-01  0.9898457E+00  0.4236540E+00  0.0000000E+00  0.0000000E+00
  0.3673469E+00  0.0000000E+00  0.8163265E-01 -0.3606575E-03 -0.8199331E-01  0.9898458E+00  0.4236540E+00  0.0000000E+00  0.0000000E+00
  0.4081633E+00  0.0000000E+00  0.8163265E-01 -0.3597377E-03 -0.8199239E-01  0.9898460E+00  0.4236541E+00  0.0000000E+00  0.0000000E+00
  0.4489796E+00  0.0000000E+00  0.8163265E-01 -0.3584648E-03 -0.8199112E-01  0.9898462E+00  0.4236542E+00  0.0000000E+00  0.0000000E+00
  0.4897959E+00  0.0000000E+00  0.8163265E-01 -0.3568105E-03 -0.8198946E-01  0.9898465E+00  0.4236543E+00  0.0000000E+00  0.0000000E+00
  0.5306122E+00  0.0000000E+00  0.8163265E-01 -0.3547606E-03 -0.8198741E-01  0.9898468E+00  0.4236544E+00  0.0000000E+00  0.0000000E+00
  0.5714286E+00  0.0000000E+00  0.8163265E-01 -0.3523163E-03 -0.8198497E-01  0.9898472E+00  0.4236546E+00  0.0000000E+00  0.0000000E+00
  0.6122449E+00  0.0000000E+00  0.8163265E-01 -0.3494934E-03 -0.8198215E-01  0.9898477E+00  0.4236548E+00  0.0000000E+00  0.0000000E+00
  0.6530612E+00  0.0000000E+00  0.8163265E-01 -0.3463217E-03 -0.8197897E-01  0.9898482E+00  0.4236550E+00  0.0000000E+00  0.0000000E+00
  0.6938776E+00  0.0000000E+00  0.8163265E-01 -0.3428422E-03 -0.8197550E-01  0.9898488E+00  0.4236553E+00  0.0000000E+00  0.0000000E+00
  0.7346939E+00  0.0000000E+00  0.8163265E-01 -0.3391043E-03 -0.8197176E-01  0.9898494E+00  0.4236555E+00  0.0000000E+00  0.0000000E+00
  0.7755102E+00  0.0000000E+00  0.8163265E-01 -0.3351633E-03 -0.8196782E-01  0.9898501E+00  0.4236558E+00  0.0000000E+00  0.0000000E+00
  0.8163265E+00  0.0000000E+00  0.8163265E-01 -0.3310768E-03 -0.8196373E-01  0.9898508E+00  0.4236561E+00  0.0000000E+00  0.0000000E+00
  0.8571429E+00  0.0000000E+00  0.8163265E-01 -0.3269022E-03 -0.8195956E-01  0.9898514E+00  0.4236564E+00  0.0000000E+00  0.0000000E+00
  0.8979592E+00  0.0000000E+00  0.8163265E-01 -0.3226942E-03 -0.8195535E-01  0.9898521E+00  0.4236567E+00  0.0000000E+00  0.0000000E+00
  0.9387755E+00  0.0000000E+00  0.8163265E-01 -0.3185032E-03 -0.8195116E-01  0.9898528E+00  0.4236570E+00  0.0000000E+00  0.0000000E+00
  0.9795918E+00  0.0000000E+00  0.8163265E-01 -0.3143738E-03 -0.8194703E-01  0.9898535E+00  0.4236573E+00  0.0000000E+00  0.0000000E+00
  0.1020408E+01  0.0000000E+00  0.8163265E-01 -0.3103446E-03 -0.8194300E-01  0.9898542E+00  0.4236576E+00  0.0000000E+00  0.0000000E+00
  0.1061224E+01  0.0000000E+00  0.8163265E-01 -0.3064473E-03 -0.8193910E-01  0.9898549E+00  0.4236579E+00  0.0000000E+00  0.0000000E+00
  0.1102041E+01  0.0000000E+00  0.8163265E-01 -0.3027071E-03 -0.8193536E-01  0.9898555E+00  0.4236581E+00  0.0000000E+00  0.0000000E+00
  0.1142857E+01  0.0000000E+00  0.8163265E-01 -0.2991433E-03 -0.8193180E-01  0.9898561E+00  0.4236584E+00  0.0000000E+00  0.0000000E+00
  0.1183673E+01  0.0000000E+00  0.8163265E-01 -0.2957695E-03 -0.8192842E-01  0.9898566E+00  0.4236586E+00  0.0000000E+00  0.0000000E+00
  0.1224490E+01  0.0000000E+00  0.8163265E-01 -0.2925945E-03 -0.8192525E-01  0.9898572E+00  0.4236589E+00  0.0000000E+00  0.0000000E+00
  0.1265306E+01  0.0000000E+00  0.8163265E-01 -0.2896230E-03 -0.8192228E-01  0.9898577E+00  0.4236591E+00  0.0000000E+00  0.0000000E+00
  0.1306122E+01  0.0000000E+00  0.8163265E-01 -0.2868561E-03 -0.8191951E-01  0.9898581E+00  0.4236593E+00  0.0000000E+00  0.0000000E+00
  0.1346939E+01  0.0000000E+00  0.8163265E-01 -0.2842925E-03 -0.8191695E-01  0.9898585E+00  0.4236595E+00  0.0000000E+00  0.0000000E+00
  0.1387755E+01  0.0000000E+00  0.8163265E-01 -0.2819284E-03 -0.8191458E-01  0.9898589E+00  0.4236596E+00  0.0000000E+00  0.0000000E+00
  0.1428571E+01  0.0000000E+00  0.8163265E-01 -0.2797588E-03 -0.8191241E-01  0.9898593E+00  0.4236598E+00  0.0000000E+00  0.0000000E+00
  0.1469388E+01  0.0000000E+00  0.8163265E-01 -0.2777775E-03 -0.8191043E-01  0.9898596E+00  0.4236599E+00  0.0000000E+00  0.0000000E+00
  0.1510204E+01  0.0000000E+00  0.8163265E-01 -0.2759778E-03 -0.8190863E-01  0.9898599E+00  0.4236600E+00  0.0000000E+00  0.0000000E+00
  0.1551020E+01  0.0000000E+00  0.8163265E-01 -0.2743527E-03 -0.8190701E-01  0.9898602E+00  0.4236602E+00  0.0000000E+00  0.0000000E+00
  0.1591837E+01  0.0000000E+00  0.8163265E-01 -0.2728952E-03 -0.8190555E-01  0.9898604E+00  0.4236603E+00  0.0000000E+00  0.0000000E+00
  0.1632653E+01  0.0000000E+00  0.8163265E-01 -0.2715984E-03 -0.8190425E-01  0.9898607E+00  0.4236604E+00  0.0000000E+00  0.0000000E+00
  0.1673469E+01  0.0000000E+00  0.8163265E-01 -0.2704561E-03 -0.8190311E-01  0.9898608E+00  0.4236604E+00  0.0000000E+00  0.0000000E+00
  0.1714286E+01  0.0000000E+00  0.8163265E-01 -0.2694624E-03 -0.8190212E-01  0.9898610E+00  0.4236605E+00  0.0000000E+00  0.0000000E+00
  0.1755102E+01  0.0000000E+00  0.8163265E-01 -0.2686120E-03 -0.8190127E-01  0.9898612E+00  0.4236606E+00  0.0000000E+00  0.0000000E+00
  0.1795918E+01  0.0000000E+00  0.8163265E-01 -0.2679004E-03 -0.8190055E-01  0.9898613E+00  0.4236606E+00  0.0000000E+00  0.0000000E+00
  0.1836735E+01  0.0000000E+00  0.8163265E-01 -0.2673235E-03 -0.8189998E-01  0.9898614E+00  0.4236607E+00  0.0000000E+00  0.0000000E+00
  0.1877551E+01  0.0000000E+00  0.8163265E-01 -0.2668781E-03 -0.8189953E-01  0.9898614E+00  0.4236607E+00  0.0000000E+00  0.0000000E+00
  0.1918367E+01  0.0000000E+00  0.8163265E-01 -0.2665618E-03 -0.8189921E-01  0.9898615E+00  0.4236607E+00  0.0000000E+00  0.0000000E+00
  0.1959184E+01  0.0000000E+00  0.8163265E-01 -0.2663727E-03 -0.8189903E-01  0.9898615E+00  0.4236607E+00  0.0000000E+00  0.0000000E+00
  0.2000000E+01  0.0000000E+00  0.8163265E-01 -0.2663098E-03 -0.8189896E-01  0.9898615E+00  0.4236607E+00  0.0000000E+00  0.0000000E+00
  0.0000000E+00  0.0000000E+00  0.1224490E+00 -0.6924768E-03 -0.1231415E+00  0.9825302E+00  0.4205229E+00  0.0000000E+00  0.0000000E+00
  0.4081633E-01  0.0000000E+00  0.1224490E+00 -0.6925480E-03 -0.1231415E+00  0.9825302E+00  0.4205229E+00  0.0000000E+00  0.0000000E+00
  0.8163265E-01  0.0000000E+00  0.1224490E+00 -0.6927480E-03 -0.1231417E+00  0.9825302E+00  0.4205229E+00  0.0000000E+00  0.0000000E+00
  0.1224490E+00  0.0000000E+00  0.1224490E+00 -0.6930360E-03 -0.1231420E+00  0.9825301E+00  0.4205229E+00  0.0000000E+00  0.0000000E+00
  0.1632653E+00  0.0000000E+00  0.1224490E+00 -0.6933465E-03 -0.1231423E+00  0.9825301E+00  0.4205229E+00  0.0000000E+00  0.0000000E+00
  0.2040816E+00  0.0000000E+00  0.1224490E+00 -0.6935928E-03 -0.1231426E+00  0.9825300E+00  0.4205228E+00  0.0000000E+00  0.0000000E+00
  0.2448980E+00  0.0000000E+00  0.1224490E+00 -0.6936717E-03 -0.1231427E+00  0.9825300E+00  0.4205228E+00  0.0000000E+00  0.0000000E+00
  0.2857143E+00  0.0000000E+00  0.1224490E+00 -0.6934700E-03 -0.1231424E+00  0.9825300E+00  0.4205229E+00  0.0000000E+00  0.0000000E+00
  0.3265306E+00  0.0000000E+00  0.1224490E+00 -0.6928710E-03 -0.1231419E+00  0.9825302E+00  0.4205229E+00  0.0000000E+00  0.0000000E+00
  0.3673469E+00  0.0000000E+00  0.1224490E+00 -0.6917624E-03 -0.1231407E+00  0.9825304E+00  0.4205230E+00  0.0000000E+00  0.0000000E+00
  0.4081633E+00  0.0000000E+00  0.1224490E+00 -0.6900438E-03 -0.1231390E+00  0.9825307E+00  0.4205231E+00  0.0000000E+00  0.0000000E+00
  0.4489796E+00  0.0000000E+00  0.1224490E+00 -0.6876339E-03 -0.1231366E+00  0.9825311E+00  0.4205233E+00  0.0000000E+00  0.0000000E+00
  0.4897959E+00  0.0000000E+00  0.1224490E+00 -0.6844758E-03 -0.1231335E+00  0.9825317E+00  0.4205236E+00  0.0000000E+00  0.0000000E+00
  0.5306122E+00  0.0000000E+00  0.1224490E+00 -0.6805417E-03 -0.1231295E+00  0.9825325E+00  0.4205239E+00  0.0000000E+00  0.0000000E+00
  0.5714286E+00  0.0000000E+00  0.1224490E+00 -0.6758338E-03 -0.1231248E+00  0.9825333E+00  0.4205243E+00  0.0000000E+00  0.0000000E+00
  0.6122449E+00  0.0000000E+00  0.1224490E+00 -0.6703846E-03 -0.1231194E+00  0.9825344E+00  0.4205247E+00  0.0000000E+00  0.0000000E+00
  0.6530612E+00  0.0000000E+00  0.1224490E+00 -0.6642531E-03 -0.1231132E+00  0.9825355E+00  0.4205252E+00  0.0000000E+00  0.0000000E+00
  0.6938776E+00  0.0000000E+00  0.1224490E+00 -0.6575213E-03 -0.1231065E+00  0.9825368E+00  0.4205257E+00  0.0000000E+00  0.0000000E+00
  0.7346939E+00  0.0000000E+00  0.1224490E+00 -0.6502878E-03 -0.1230993E+00  0.9825381E+00  0.4205263E+00  0.0000000E+00  0.0000000E+00
  0.7755102E+00  0.0000000E+00  0.1224490E+00 -0.6426619E-03 -0.1230916E+00  0.9825396E+00  0.4205269E+00  0.0000000E+00  0.0000000E+00
  0.8163265E+00  0.0000000E+00  0.1224490E+00 -0.6347572E-03 -0.1230837E+00  0.9825410E+00  0.4205276E+00  0.0000000E+00  0.0000000E+00
  0.8571429E+00  0.0000000E+00  0.1224490E+00 -0.6266865E-03 -0.1230757E+00  0.9825426E+00  0.4205282E+00  0.0000000E+00  0.0000000E+00
  0.8979592E+00  0.0000000E+00  0.1224490E+00 -0.6185569E-03 -0.1230675E+00  0.9825441E+00  0.4205289E+00  0.0000000E+00  0.0000000E+00
  0.9387755E+00  0.0000000E+00  0.1224490E+00 -0.6104663E-03 -0.1230594E+00  0.9825456E+00  0.4205295E+00  0.0000000E+00  0.0000000E+00
  0.9795918E+00  0.0000000E+00  0.1224490E+00 -0.6025015E-03 -0.1230515E+00  0.9825471E+00  0.4205302E+00  0.0000000E+00  0.0000000E+00
  0.1020408E+01  0.0000000E+00  0.1224490E+00 -0.5947363E-03 -0.1230437E+00  0.9825485E+00  0.4205308E+00  0.0000000E+00  0.0000000E+00
  0.1061224E+01  0.0000000E+00  0.1224490E+00 -0.5872316E-03 -0.1230362E+00  0.9825499E+00  0.4205314E+00  0.0000000E+00  0.0000000E+00
  0.1102041E+01  0.0000000E+00  0.1224490E+00 -0.5800354E-03 -0.1230290E+00  0.9825513E+00  0.4205320E+00  0.0000000E+00  0.0000000E+00
  0.1142857E+01  0.0000000E+00  0.1224490E+00 -0.5731839E-03 -0.1230222E+00  0.9825526E+00  0.4205325E+00  0.0000000E+00  0.0000000E+00
  0.1183673E+01  0.0000000E+00  0.1224490E+00 -0.5667025E-03 -0.1230157E+00  0.9825538E+00  0.4205330E+00  0.0000000E+00  0.0000000E+00
  0.1224490E+01  0.0000000E+00  0.1224490E+00 -0.5606072E-03 -0.1230096E+00  0.9825549E+00  0.4205335E+00  0.0000000E+00  0.0000000E+00
  0.1265306E+01  0.0000000E+00  0.1224490E+00 -0.5549061E-03 -0.1230039E+00  0.9825560E+00  0.4205340E+00  0.0000000E+00  0.0000000E+00
  0.1306122E+01  0.0000000E+00  0.1224490E+00 -0.5496008E-03 -0.1229986E+00  0.9825570E+00  0.4205344E+00  0.0000000E+00  0.0000000E+00
  0.1346939E+01  0.0000000E+00  0.1224490E+00 -0.5446876E-03 -0.1229937E+00  0.9825579E+00  0.4205348E+00  0.0000000E+00  0.0000000E+00
  0.1387755E+01  0.0000000E+00  0.1224490E+00 -0.5401590E-03 -0.1229891E+00  0.9825588E+00  0.4205352E+00  0.0000000E+00  0.0000000E+00
  0.1428571E+01  0.0000000E+00  0.1224490E+00 -0.5360047E-03 -0.1229850E+00  0.9825595E+00  0.4205355E+00  0.0000000E+00  0.0000000E+00
  0.1469388E+01  0.0000000E+00  0.1224490E+00 -0.5322123E-03 -0.1229812E+00  0.9825603E+00  0.4205358E+00  0.0000000E+00  0.0000000E+00
  0.1510204E+01  0.0000000E+00  0.1224490E+00 -0.5287685E-03 -0.1229777E+00  0.9825609E+00  0.4205361E+00  0.0000000E+00  0.0000000E+00
  0.1551020E+01  0.0000000E+00  0.1224490E+00 -0.5256595E-03 -0.1229746E+00  0.9825615E+00  0.4205363E+00  0.0000000E+00  0.0000000E+00
  0.1591837E+01  0.0000000E+00  0.1224490E+00 -0.5228717E-03 -0.1229719E+00  0.9825620E+00  0.4205365E+00  0.0000000E+00  0.0000000E+00
  0.1632653E+01  0.0000000E+00  0.1224490E+00 -0.5203919E-03 -0.1229694E+00  0.9825625E+00  0.4205367E+00  0.0000000E+00  0.0000000E+00
  0.1673469E+01  0.0000000E+00  0.1224490E+00 -0.5182077E-03 -0.1229672E+00  0.9825629E+00  0.4205369E+00  0.0000000E+00  0.0000000E+00
  0.1714286E+01  0.0000000E+00  0.1224490E+00 -0.5163078E-03 -0.1229653E+00  0.9825632E+00  0.4205371E+00  0.0000000E+00  0.0000000E+00
  0.1755102E+01  0.0000000E+00  0.1224490E+00 -0.5146821E-03 -0.1229637E+00  0.9825635E+00  0.4205372E+00  0.0000000E+00  0.0000000E+00
  0.1795918E+01  0.0000000E+00  0.1224490E+00 -0.5133217E-03 -0.1229623E+00  0.9825638E+00  0.4205373E+00  0.0000000E+00  0.0000000E+00
  0.1836735E+01  0.0000000E+00  0.1224490E+00 -0.5122189E-03 -0.1229612E+00  0.9825640E+00  0.4205374E+00  0.0000000E+00  0.0000000E+00
  0.1877551E+01  0.0000000E+00  0.1224490E+00 -0.5113677E-03 -0.1229603E+00  0.9825642E+00  0.4205375E+00  0.0000000E+00  0.0000000E+00
  0.1918367E+01  0.0000000E+00  0.1224490E+00 -0.5107631E-03 -0.1229597E+00  0.9825643E+00  0.4205375E+00  0.0000000E+00  0.0000000E+00
  0.1959184E+01  0.0000000E+00  0.1224490E+00 -0.5104017E-03 -0.1229594E+00  0.9825643E+00  0.4205375E+00  0.0000000E+00  0.0000000E+00
  0.2000000E+01  0.0000000E+00  0.1224490E+00 -0.5102814E-03 -0.1229593E+00  0.9825644E+00  0.4205375E+00  0.0000000E+00  0.0000000E+00
  0.0000000E+00  0.0000000E+00  0.1632653E+00 -0.1111698E-02 -0.1643770E+00  0.9745083E+00  0.4170896E+00  0.0000000E+00  0.0000000E+00
  0.4081633E-01  0.0000000E+00  0.1632653E+00 -0.1111831E-02 -0.1643771E+00  0.9745083E+00  0.4170895E+00  0.0000000E+00  0.0000000E+00
  0.8163265E-01  0.0000000E+00  0.1632653E+00 -0.1112209E-02 -0.1643775E+00  0.9745082E+00  0.4170895E+00  0.0000000E+00  0.0000000E+00
  0.1224490E+00  0.0000000E+00  0.1632653E+00 -0.1112762E-02 -0.1643781E+00  0.9745081E+00  0.4170895E+00  0.0000000E+00  0.0000000E+00
  0.1632653E+00  0.0000000E+00  0.1632653E+00 -0.1113381E-02 -0.1643787E+00  0.9745080E+00  0.4170894E+00  0.0000000E+00  0.0000000E+00
  0.2040816E+00  0.0000000E+00  0.1632653E+00 -0.1113918E-02 -0.1643792E+00  0.9745079E+00  0.4170894E+00  0.0000000E+00  0.0000000E+00
  0.2448980E+00  0.0000000E+00  0.1632653E+00 -0.1114201E-02 -0.1643795E+00  0.9745078E+00  0.4170893E+00  0.0000000E+00  0.0000000E+00
  0.2857143E+00  0.0000000E+00  0.1632653E+00 -0.1114038E-02 -0.1643793E+00  0.9745078E+00  0.4170894E+00  0.0000000E+00  0.0000000E+00
  0.3265306E+00  0.0000000E+00  0.1632653E+00 -0.1113229E-02 -0.1643785E+00  0.9745080E+00  0.4170894E+00  0.0000000E+00  0.0000000E+00
  0.3673469E+00  0.0000000E+00  0.1632653E+00 -0.1111586E-02 -0.1643769E+00  0.9745083E+00  0.4170896E+00  0.0000000E+00  0.0000000E+00
  0.4081633E+00  0.0000000E+00  0.1632653E+00 -0.1108935E-02 -0.1643742E+00  0.9745089E+00  0.4170898E+00  0.0000000E+00  0.0000000E+00
  0.4489796E+00  0.0000000E+00  0.1632653E+00 -0.1105140E-02 -0.1643704E+00  0.9745096E+00  0.4170901E+00  0.0000000E+00  0.0000000E+00
  0.4897959E+00  0.0000000E+00  0.1632653E+00 -0.1100103E-02 -0.1643654E+00  0.9745106E+00  0.4170906E+00  0.0000000E+00  0.0000000E+00
  0.5306122E+00  0.0000000E+00  0.1632653E+00 -0.1093777E-02 -0.1643591E+00  0.9745119E+00  0.4170911E+00  0.0000000E+00  0.0000000E+00
  0.5714286E+00  0.0000000E+00  0.1632653E+00 -0.1086167E-02 -0.1643515E+00  0.9745134E+00  0.4170918E+00  0.0000000E+00  0.0000000E+00
  0.6122449E+00  0.0000000E+00  0.1632653E+00 -0.1077328E-02 -0.1643426E+00  0.9745152E+00  0.4170925E+00  0.0000000E+00  0.0000000E+00
  0.6530612E+00  0.0000000E+00  0.1632653E+00 -0.1067361E-02 -0.1643327E+00  0.9745172E+00  0.4170934E+00  0.0000000E+00  0.0000000E+00
  0.6938776E+00  0.0000000E+00  0.1632653E+00 -0.1056407E-02 -0.1643217E+00  0.9745194E+00  0.4170943E+00  0.0000000E+00  0.0000000E+00
  0.7346939E+00  0.0000000E+00  0.1632653E+00 -0.1044632E-02 -0.1643099E+00  0.9745218E+00  0.4170953E+00  0.0000000E+00  0.0000000E+00