title = "dataset feddes"
variables = "x", "y", "z", "vx", "vy", "vz"
zone t = "velocities, solution time =  6.000E+01 days        " i =   49, j =   49, k =    1,  f=point
  0.2040816E-01  0.0000000E+00  0.2040816E-01  0.6759494E-07  0.0000000E+00  0.1235037E-02
  0.6122449E-01  0.0000000E+00  0.2040816E-01  0.1864789E-06  0.0000000E+00  0.1235583E-02
  0.1020408E+00  0.0000000E+00  0.2040816E-01  0.2572700E-06  0.0000000E+00  0.1236535E-02
  0.1428571E+00  0.0000000E+00  0.2040816E-01  0.2508059E-06  0.0000000E+00  0.1237626E-02
  0.1836735E+00  0.0000000E+00  0.2040816E-01  0.1422281E-06  0.0000000E+00  0.1238470E-02
  0.2244898E+00  0.0000000E+00  0.2040816E-01 -0.8745014E-07  0.0000000E+00  0.1238587E-02
  0.2653061E+00  0.0000000E+00  0.2040816E-01 -0.4499677E-06  0.0000000E+00  0.1237434E-02
  0.3061225E+00  0.0000000E+00  0.2040816E-01 -0.9487816E-06  0.0000000E+00  0.1234431E-02
  0.3469388E+00  0.0000000E+00  0.2040816E-01 -0.1578504E-05  0.0000000E+00  0.1229005E-02
  0.3877551E+00  0.0000000E+00  0.2040816E-01 -0.2324953E-05  0.0000000E+00  0.1220625E-02
  0.4285714E+00  0.0000000E+00  0.2040816E-01 -0.3165904E-05  0.0000000E+00  0.1208837E-02
  0.4693878E+00  0.0000000E+00  0.2040816E-01 -0.4072550E-05  0.0000000E+00  0.1193297E-02
  0.5102041E+00  0.0000000E+00  0.2040816E-01 -0.5011563E-05  0.0000000E+00  0.1173796E-02
  0.5510204E+00  0.0000000E+00  0.2040816E-01 -0.5947574E-05  0.0000000E+00  0.1150269E-02
  0.5918368E+00  0.0000000E+00  0.2040816E-01 -0.6845783E-05  0.0000000E+00  0.1122806E-02
  0.6326531E+00  0.0000000E+00  0.2040816E-01 -0.7674399E-05  0.0000000E+00  0.1091636E-02
  0.6734694E+00  0.0000000E+00  0.2040816E-01 -0.8406656E-05  0.0000000E+00  0.1057116E-02
  0.7142857E+00  0.0000000E+00  0.2040816E-01 -0.9022187E-05  0.0000000E+00  0.1019704E-02
  0.7551020E+00  0.0000000E+00  0.2040816E-01 -0.9507700E-05  0.0000000E+00  0.9799301E-03
  0.7959183E+00  0.0000000E+00  0.2040816E-01 -0.9856973E-05  0.0000000E+00  0.9383652E-03
  0.8367347E+00  0.0000000E+00  0.2040816E-01 -0.1007027E-04  0.0000000E+00  0.8955941E-03
  0.8775510E+00  0.0000000E+00  0.2040816E-01 -0.1015338E-04  0.0000000E+00  0.8521880E-03
  0.9183673E+00  0.0000000E+00  0.2040816E-01 -0.1011635E-04  0.0000000E+00  0.8086844E-03
  0.9591837E+00  0.0000000E+00  0.2040816E-01 -0.9972270E-05  0.0000000E+00  0.7655708E-03
  0.1000000E+01  0.0000000E+00  0.2040816E-01 -0.9736012E-05  0.0000000E+00  0.7232747E-03
  0.1040816E+01  0.0000000E+00  0.2040816E-01 -0.9423171E-05  0.0000000E+00  0.6821582E-03
  0.1081633E+01  0.0000000E+00  0.2040816E-01 -0.9049191E-05  0.0000000E+00  0.6425168E-03
  0.1122449E+01  0.0000000E+00  0.2040816E-01 -0.8628704E-05  0.0000000E+00  0.6045813E-03
  0.1163265E+01  0.0000000E+00  0.2040816E-01 -0.8175066E-05  0.0000000E+00  0.5685225E-03
  0.1204082E+01  0.0000000E+00  0.2040816E-01 -0.7700065E-05  0.0000000E+00  0.5344572E-03
  0.1244898E+01  0.0000000E+00  0.2040816E-01 -0.7213778E-05  0.0000000E+00  0.5024554E-03
  0.1285714E+01  0.0000000E+00  0.2040816E-01 -0.6724537E-05  0.0000000E+00  0.4725475E-03
  0.1326531E+01  0.0000000E+00  0.2040816E-01 -0.6238976E-05  0.0000000E+00  0.4447318E-03
  0.1367347E+01  0.0000000E+00  0.2040816E-01 -0.5762135E-05  0.0000000E+00  0.4189816E-03
  0.1408163E+01  0.0000000E+00  0.2040816E-01 -0.5297611E-05  0.0000000E+00  0.3952516E-03
  0.1448980E+01  0.0000000E+00  0.2040816E-01 -0.4847723E-05  0.0000000E+00  0.3734839E-03
  0.1489796E+01  0.0000000E+00  0.2040816E-01 -0.4413705E-05  0.0000000E+00  0.3536130E-03
  0.1530612E+01  0.0000000E+00  0.2040816E-01 -0.3995894E-05  0.0000000E+00  0.3355700E-03
  0.1571429E+01  0.0000000E+00  0.2040816E-01 -0.3593926E-05  0.0000000E+00  0.3192860E-03
  0.1612245E+01  0.0000000E+00  0.2040816E-01 -0.3206918E-05  0.0000000E+00  0.3046949E-03
  0.1653061E+01  0.0000000E+00  0.2040816E-01 -0.2833625E-05  0.0000000E+00  0.2917352E-03
  0.1693878E+01  0.0000000E+00  0.2040816E-01 -0.2472589E-05  0.0000000E+00  0.2803510E-03
  0.1734694E+01  0.0000000E+00  0.2040816E-01 -0.2122242E-05  0.0000000E+00  0.2704931E-03
  0.1775510E+01  0.0000000E+00  0.2040816E-01 -0.1780991E-05  0.0000000E+00  0.2621190E-03
  0.1816326E+01  0.0000000E+00  0.2040816E-01 -0.1447275E-05  0.0000000E+00  0.2551931E-03
  0.1857143E+01  0.0000000E+00  0.2040816E-01 -0.1119591E-05  0.0000000E+00  0.2496861E-03
  0.1897959E+01  0.0000000E+00  0.2040816E-01 -0.7965054E-06  0.0000000E+00  0.2455753E-03
  0.1938776E+01  0.0000000E+00  0.2040816E-01 -0.4766566E-06  0.0000000E+00  0.2428439E-03
  0.1989796E+01  0.0000000E+00  0.2040816E-01 -0.1587429E-06  0.0000000E+00  0.2414807E-03
  0.2040816E-01  0.0000000E+00  0.6122449E-01  0.2380955E-06  0.0000000E+00  0.1234784E-02
  0.6122449E-01  0.0000000E+00  0.6122449E-01  0.6591150E-06  0.0000000E+00  0.1235394E-02
  0.1020408E+00  0.0000000E+00  0.6122449E-01  0.9174360E-06  0.0000000E+00  0.1236472E-02
  0.1428571E+00  0.0000000E+00  0.6122449E-01  0.9143232E-06  0.0000000E+00  0.1237742E-02
  0.1836735E+00  0.0000000E+00  0.6122449E-01  0.5655113E-06  0.0000000E+00  0.1238809E-02
  0.2244898E+00  0.0000000E+00  0.6122449E-01 -0.1934853E-06  0.0000000E+00  0.1239180E-02
  0.2653061E+00  0.0000000E+00  0.6122449E-01 -0.1402680E-05  0.0000000E+00  0.1238296E-02
  0.3061225E+00  0.0000000E+00  0.6122449E-01 -0.3074044E-05  0.0000000E+00  0.1235560E-02
  0.3469388E+00  0.0000000E+00  0.6122449E-01 -0.5189533E-05  0.0000000E+00  0.1230382E-02
  0.3877551E+00  0.0000000E+00  0.6122449E-01 -0.7701183E-05  0.0000000E+00  0.1222213E-02
  0.4285714E+00  0.0000000E+00  0.6122449E-01 -0.1053363E-04  0.0000000E+00  0.1210585E-02
  0.4693878E+00  0.0000000E+00  0.6122449E-01 -0.1358903E-04  0.0000000E+00  0.1195144E-02
  0.5102041E+00  0.0000000E+00  0.6122449E-01 -0.1675415E-04  0.0000000E+00  0.1175672E-02
  0.5510204E+00  0.0000000E+00  0.6122449E-01 -0.1990882E-04  0.0000000E+00  0.1152104E-02
  0.5918368E+00  0.0000000E+00  0.6122449E-01 -0.2293488E-04  0.0000000E+00  0.1124533E-02
  0.6326531E+00  0.0000000E+00  0.6122449E-01 -0.2572460E-04  0.0000000E+00  0.1093198E-02
  0.6734694E+00  0.0000000E+00  0.6122449E-01 -0.2818744E-04  0.0000000E+00  0.1058465E-02
  0.7142857E+00  0.0000000E+00  0.6122449E-01 -0.3025484E-04  0.0000000E+00  0.1020806E-02
  0.7551020E+00  0.0000000E+00  0.6122449E-01 -0.3188237E-04  0.0000000E+00  0.9807657E-03
  0.7959183E+00  0.0000000E+00  0.6122449E-01 -0.3304966E-04  0.0000000E+00  0.9389286E-03
  0.8367347E+00  0.0000000E+00  0.6122449E-01 -0.3375834E-04  0.0000000E+00  0.8958913E-03
  0.8775510E+00  0.0000000E+00  0.6122449E-01 -0.3402860E-04  0.0000000E+00  0.8522350E-03
  0.9183673E+00  0.0000000E+00  0.6122449E-01 -0.3389506E-04  0.0000000E+00  0.8085042E-03
  0.9591837E+00  0.0000000E+00  0.6122449E-01 -0.3340235E-04  0.0000000E+00  0.7651914E-03
  0.1000000E+01  0.0000000E+00  0.6122449E-01 -0.3260097E-04  0.0000000E+00  0.7227266E-03
  0.1040816E+01  0.0000000E+00  0.6122449E-01 -0.3154372E-04  0.0000000E+00  0.6814724E-03
  0.1081633E+01  0.0000000E+00  0.6122449E-01 -0.3028270E-04  0.0000000E+00  0.6417233E-03
  0.1122449E+01  0.0000000E+00  0.6122449E-01 -0.2886719E-04  0.0000000E+00  0.6037081E-03
  0.1163265E+01  0.0000000E+00  0.6122449E-01 -0.2734203E-04  0.0000000E+00  0.5675948E-03
  0.1204082E+01  0.0000000E+00  0.6122449E-01 -0.2574674E-04  0.0000000E+00  0.5334969E-03
  0.1244898E+01  0.0000000E+00  0.6122449E-01 -0.2411503E-04  0.0000000E+00  0.5014808E-03
  0.1285714E+01  0.0000000E+00  0.6122449E-01 -0.2247472E-04  0.0000000E+00  0.4715737E-03
  0.1326531E+01  0.0000000E+00  0.6122449E-01 -0.2084790E-04  0.0000000E+00  0.4437704E-03
  0.1367347E+01  0.0000000E+00  0.6122449E-01 -0.1925131E-04  0.0000000E+00  0.4180412E-03
  0.1408163E+01  0.0000000E+00  0.6122449E-01 -0.1769684E-04  0.0000000E+00  0.3943382E-03
  0.1448980E+01  0.0000000E+00  0.6122449E-01 -0.1619211E-04  0.0000000E+00  0.3726010E-03
  0.1489796E+01  0.0000000E+00  0.6122449E-01 -0.1474110E-04  0.0000000E+00  0.3527622E-03
  0.1530612E+01  0.0000000E+00  0.6122449E-01 -0.1334479E-04  0.0000000E+00  0.3347512E-03
  0.1571429E+01  0.0000000E+00  0.6122449E-01 -0.1200183E-04  0.0000000E+00  0.3184980E-03
  0.1612245E+01  0.0000000E+00  0.6122449E-01 -0.1070914E-04  0.0000000E+00  0.3039356E-03
  0.1653061E+01  0.0000000E+00  0.6122449E-01 -0.9462462E-05  0.0000000E+00  0.2910018E-03
  0.1693878E+01  0.0000000E+00  0.6122449E-01 -0.8256834E-05  0.0000000E+00  0.2796406E-03
  0.1734694E+01  0.0000000E+00  0.6122449E-01 -0.7086955E-05  0.0000000E+00  0.2698025E-03
  0.1775510E+01  0.0000000E+00  0.6122449E-01 -0.5947463E-05  0.0000000E+00  0.2614450E-03
  0.1816326E+01  0.0000000E+00  0.6122449E-01 -0.4833112E-05  0.0000000E+00  0.2545327E-03
  0.1857143E+01  0.0000000E+00  0.6122449E-01 -0.3738870E-05  0.0000000E+00  0.2490363E-03
  0.1897959E+01  0.0000000E+00  0.6122449E-01 -0.2659953E-05  0.0000000E+00  0.2449334E-03
  0.1938776E+01  0.0000000E+00  0.6122449E-01 -0.1591809E-05  0.0000000E+00  0.2422071E-03
  0.1989796E+01  0.0000000E+00  0.6122449E-01 -0.5300841E-06  0.0000000E+00  0.2408466E-03
  0.2040816E-01  0.0000000E+00  0.1020408E+00  0.4636529E-06  0.0000000E+00  0.1234144E-02
  0.6122449E-01  0.0000000E+00  0.1020408E+00  0.1291340E-05  0.0000000E+00  0.1234908E-02
  0.1020408E+00  0.0000000E+00  0.1020408E+00  0.1825263E-05  0.0000000E+00  0.1236284E-02
  0.1428571E+00  0.0000000E+00  0.1020408E+00  0.1886861E-05  0.0000000E+00  0.1237982E-02
  0.1836735E+00  0.0000000E+00  0.1020408E+00  0.1323349E-05  0.0000000E+00  0.1239582E-02
  0.2244898E+00  0.0000000E+00  0.1020408E+00  0.1733940E-07  0.0000000E+00  0.1240560E-02
  0.2653061E+00  0.0000000E+00  0.1020408E+00 -0.2104550E-05  0.0000000E+00  0.1240318E-02
  0.3061225E+00  0.0000000E+00  0.1020408E+00 -0.5064992E-05  0.0000000E+00  0.1238222E-02
  0.3469388E+00  0.0000000E+00  0.1020408E+00 -0.8832096E-05  0.0000000E+00  0.1233636E-02
  0.3877551E+00  0.0000000E+00  0.1020408E+00 -0.1331933E-04  0.0000000E+00  0.1225973E-02
  0.4285714E+00  0.0000000E+00  0.1020408E+00 -0.1838991E-04  0.0000000E+00  0.1214729E-02
  0.4693878E+00  0.0000000E+00  0.1020408E+00 -0.2386578E-04  0.0000000E+00  0.1199522E-02
  0.5102041E+00  0.0000000E+00  0.1020408E+00 -0.2954056E-04  0.0000000E+00  0.1180119E-02
  0.5510204E+00  0.0000000E+00  0.1020408E+00 -0.3519532E-04  0.0000000E+00  0.1156454E-02
  0.5918368E+00  0.0000000E+00  0.1020408E+00 -0.4061511E-04  0.0000000E+00  0.1128625E-02
  0.6326531E+00  0.0000000E+00  0.1020408E+00 -0.4560455E-04  0.0000000E+00  0.1096892E-02
  0.6734694E+00  0.0000000E+00  0.1020408E+00 -0.5000036E-04  0.0000000E+00  0.1061650E-02
  0.7142857E+00  0.0000000E+00  0.1020408E+00 -0.5367986E-04  0.0000000E+00  0.1023403E-02
  0.7551020E+00  0.0000000E+00  0.1020408E+00 -0.5656484E-04  0.0000000E+00  0.9827288E-03
  0.7959183E+00  0.0000000E+00  0.1020408E+00 -0.5862102E-04  0.0000000E+00  0.9402451E-03
  0.8367347E+00  0.0000000E+00  0.1020408E+00 -0.5985398E-04  0.0000000E+00  0.8965770E-03
  0.8775510E+00  0.0000000E+00  0.1020408E+00 -0.6030269E-04  0.0000000E+00  0.8523288E-03
  0.9183673E+00  0.0000000E+00  0.1020408E+00 -0.6003162E-04  0.0000000E+00  0.8080622E-03
  0.9591837E+00  0.0000000E+00  0.1020408E+00 -0.5912275E-04  0.0000000E+00  0.7642808E-03
  0.1000000E+01  0.0000000E+00  0.1020408E+00 -0.5766799E-04  0.0000000E+00  0.7214202E-03
  0.1040816E+01  0.0000000E+00  0.1020408E+00 -0.5576273E-04  0.0000000E+00  0.6798441E-03
  0.1081633E+01  0.0000000E+00  0.1020408E+00 -0.5350061E-04  0.0000000E+00  0.6398444E-03
  0.1122449E+01  0.0000000E+00  0.1020408E+00 -0.5096968E-04  0.0000000E+00  0.6016447E-03
  0.1163265E+01  0.0000000E+00  0.1020408E+00 -0.4824975E-04  0.0000000E+00  0.5654062E-03
  0.1204082E+01  0.0000000E+00  0.1020408E+00 -0.4541085E-04  0.0000000E+00  0.5312343E-03
  0.1244898E+01  0.0000000E+00  0.1020408E+00 -0.4251248E-04  0.0000000E+00  0.4991875E-03
  0.1285714E+01  0.0000000E+00  0.1020408E+00 -0.3960351E-04  0.0000000E+00  0.4692845E-03
  0.1326531E+01  0.0000000E+00  0.1020408E+00 -0.3672261E-04  0.0000000E+00  0.4415125E-03
  0.1367347E+01  0.0000000E+00  0.1020408E+00 -0.3389889E-04  0.0000000E+00  0.4158347E-03
  0.1408163E+01  0.0000000E+00  0.1020408E+00 -0.3115284E-04  0.0000000E+00  0.3921966E-03
  0.1448980E+01  0.0000000E+00  0.1020408E+00 -0.2849737E-04  0.0000000E+00  0.3705323E-03
  0.1489796E+01  0.0000000E+00  0.1020408E+00 -0.2593898E-04  0.0000000E+00  0.3507698E-03
  0.1530612E+01  0.0000000E+00  0.1020408E+00 -0.2347888E-04  0.0000000E+00  0.3328349E-03
  0.1571429E+01  0.0000000E+00  0.1020408E+00 -0.2111420E-04  0.0000000E+00  0.3166545E-03
  0.1612245E+01  0.0000000E+00  0.1020408E+00 -0.1883909E-04  0.0000000E+00  0.3021597E-03
  0.1653061E+01  0.0000000E+00  0.1020408E+00 -0.1664565E-04  0.0000000E+00  0.2892870E-03
  0.1693878E+01  0.0000000E+00  0.1020408E+00 -0.1452483E-04  0.0000000E+00  0.2779796E-03
  0.1734694E+01  0.0000000E+00  0.1020408E+00 -0.1246709E-04  0.0000000E+00  0.2681878E-03
  0.1775510E+01  0.0000000E+00  0.1020408E+00 -0.1046281E-04  0.0000000E+00  0.2598692E-03
  0.1816326E+01  0.0000000E+00  0.1020408E+00 -0.8502686E-05  0.0000000E+00  0.2529885E-03
  0.1857143E+01  0.0000000E+00  0.1020408E+00 -0.6577813E-05  0.0000000E+00  0.2475170E-03
  0.1897959E+01  0.0000000E+00  0.1020408E+00 -0.4679766E-05  0.0000000E+00  0.2434323E-03
  0.1938776E+01  0.0000000E+00  0.1020408E+00 -0.2800552E-05  0.0000000E+00  0.2407181E-03
  0.1989796E+01  0.0000000E+00  0.1020408E+00 -0.9325223E-06  0.0000000E+00  0.2393636E-03
  0.2040816E-01  0.0000000E+00  0.1428571E+00  0.7448147E-06  0.0000000E+00  0.1233040E-02
  0.6122449E-01  0.0000000E+00  0.1428571E+00  0.2090651E-05  0.0000000E+00  0.1234043E-02
  0.1020408E+00  0.0000000E+00  0.1428571E+00  0.3012351E-05  0.0000000E+00  0.1235887E-02
  0.1428571E+00  0.0000000E+00  0.1428571E+00  0.3251413E-05  0.0000000E+00  0.1238255E-02
  0.1836735E+00  0.0000000E+00  0.1428571E+00  0.2585704E-05  0.0000000E+00  0.1240689E-02
  0.2244898E+00  0.0000000E+00  0.1428571E+00  0.8434145E-06  0.0000000E+00  0.1242619E-02
  0.2653061E+00  0.0000000E+00  0.1428571E+00 -0.2084178E-05  0.0000000E+00  0.1243389E-02
  0.3061225E+00  0.0000000E+00  0.1428571E+00 -0.6232418E-05  0.0000000E+00  0.1242298E-02
  0.3469388E+00  0.0000000E+00  0.1428571E+00 -0.1155699E-04  0.0000000E+00  0.1238647E-02
  0.3877551E+00  0.0000000E+00  0.1428571E+00 -0.1793316E-04  0.0000000E+00  0.1231781E-02
  0.4285714E+00  0.0000000E+00  0.1428571E+00 -0.2516175E-04  0.0000000E+00  0.1221142E-02
  0.4693878E+00  0.0000000E+00  0.1428571E+00 -0.3298220E-04  0.0000000E+00  0.1206304E-02
  0.5102041E+00  0.0000000E+00  0.1428571E+00 -0.4109187E-04  0.0000000E+00  0.1187011E-02
  0.5510204E+00  0.0000000E+00  0.1428571E+00 -0.4916972E-04  0.0000000E+00  0.1163188E-02
  0.5918368E+00  0.0000000E+00  0.1428571E+00 -0.5690143E-04  0.0000000E+00  0.1134952E-02
  0.6326531E+00  0.0000000E+00  0.1428571E+00 -0.6400268E-04  0.0000000E+00  0.1102592E-02
  0.6734694E+00  0.0000000E+00  0.1428571E+00 -0.7023794E-04  0.0000000E+00  0.1066550E-02
  0.7142857E+00  0.0000000E+00  0.1428571E+00 -0.7543274E-04  0.0000000E+00  0.1027380E-02
  0.7551020E+00  0.0000000E+00  0.1428571E+00 -0.7947874E-04  0.0000000E+00  0.9857164E-03
  0.7959183E+00  0.0000000E+00  0.1428571E+00 -0.8233232E-04  0.0000000E+00  0.9422273E-03
  0.8367347E+00  0.0000000E+00  0.1428571E+00 -0.8400773E-04  0.0000000E+00  0.8975826E-03
  0.8775510E+00  0.0000000E+00  0.1428571E+00 -0.8456693E-04  0.0000000E+00  0.8524223E-03
  0.9183673E+00  0.0000000E+00  0.1428571E+00 -0.8410768E-04  0.0000000E+00  0.8073340E-03
  0.9591837E+00  0.0000000E+00  0.1428571E+00 -0.8275151E-04  0.0000000E+00  0.7628375E-03
  0.1000000E+01  0.0000000E+00  0.1428571E+00 -0.8063275E-04  0.0000000E+00  0.7193762E-03
  0.1040816E+01  0.0000000E+00  0.1428571E+00 -0.7788928E-04  0.0000000E+00  0.6773147E-03
  0.1081633E+01  0.0000000E+00  0.1428571E+00 -0.7465522E-04  0.0000000E+00  0.6369399E-03
  0.1122449E+01  0.0000000E+00  0.1428571E+00 -0.7105566E-04  0.0000000E+00  0.5984669E-03
  0.1163265E+01  0.0000000E+00  0.1428571E+00 -0.6720319E-04  0.0000000E+00  0.5620456E-03
  0.1204082E+01  0.0000000E+00  0.1428571E+00 -0.6319591E-04  0.0000000E+00  0.5277692E-03
  0.1244898E+01  0.0000000E+00  0.1428571E+00 -0.5911666E-04  0.0000000E+00  0.4956831E-03
  0.1285714E+01  0.0000000E+00  0.1428571E+00 -0.5503303E-04  0.0000000E+00  0.4657934E-03
  0.1326531E+01  0.0000000E+00  0.1428571E+00 -0.5099807E-04  0.0000000E+00  0.4380753E-03
  0.1367347E+01  0.0000000E+00  0.1428571E+00 -0.4705133E-04  0.0000000E+00  0.4124809E-03
  0.1408163E+01  0.0000000E+00  0.1428571E+00 -0.4322025E-04  0.0000000E+00  0.3889461E-03
  0.1448980E+01  0.0000000E+00  0.1428571E+00 -0.3952164E-04  0.0000000E+00  0.3673966E-03
  0.1489796E+01  0.0000000E+00  0.1428571E+00 -0.3596333E-04  0.0000000E+00  0.3477531E-03
  0.1530612E+01  0.0000000E+00  0.1428571E+00 -0.3254585E-04  0.0000000E+00  0.3299358E-03
  0.1571429E+01  0.0000000E+00  0.1428571E+00 -0.2926410E-04  0.0000000E+00  0.3138675E-03
  0.1612245E+01  0.0000000E+00  0.1428571E+00 -0.2610891E-04  0.0000000E+00  0.2994763E-03
  0.1653061E+01  0.0000000E+00  0.1428571E+00 -0.2306849E-04  0.0000000E+00  0.2866968E-03
  0.1693878E+01  0.0000000E+00  0.1428571E+00 -0.2012959E-04  0.0000000E+00  0.2754712E-03
  0.1734694E+01  0.0000000E+00  0.1428571E+00 -0.1727843E-04  0.0000000E+00  0.2657495E-03
  0.1775510E+01  0.0000000E+00  0.1428571E+00 -0.1450135E-04  0.0000000E+00  0.2574897E-03
  0.1816326E+01  0.0000000E+00  0.1428571E+00 -0.1178525E-04  0.0000000E+00  0.2506567E-03
  0.1857143E+01  0.0000000E+00  0.1428571E+00 -0.9117686E-05  0.0000000E+00  0.2452224E-03
  0.1897959E+01  0.0000000E+00  0.1428571E+00 -0.6486993E-05  0.0000000E+00  0.2411651E-03
  0.1938776E+01  0.0000000E+00  0.1428571E+00 -0.3882137E-05  0.0000000E+00  0.2384688E-03
  0.1989796E+01  0.0000000E+00  0.1428571E+00 -0.1292590E-05  0.0000000E+00  0.2371232E-03
  0.2040816E-01  0.0000000E+00  0.1836735E+00  0.1112915E-05  0.0000000E+00  0.1231329E-02
  0.6122449E-01  0.0000000E+00  0.1836735E+00  0.3149059E-05  0.0000000E+00  0.1232660E-02
  0.1020408E+00  0.0000000E+00  0.1836735E+00  0.4625376E-05  0.0000000E+00  0.1235144E-02
  0.1428571E+00  0.0000000E+00  0.1836735E+00  0.5199326E-05  0.0000000E+00  0.1238429E-02
  0.1836735E+00  0.0000000E+00  0.1836735E+00  0.4574724E-05  0.0000000E+00  0.1242010E-02
  0.2244898E+00  0.0000000E+00  0.1836735E+00  0.2520262E-05  0.0000000E+00  0.1245249E-02
  0.2653061E+00  0.0000000E+00  0.1836735E+00 -0.1112994E-05  0.0000000E+00  0.1247414E-02
  0.3061225E+00  0.0000000E+00  0.1836735E+00 -0.6376873E-05  0.0000000E+00  0.1247714E-02
  0.3469388E+00  0.0000000E+00  0.1836735E+00 -0.1321637E-04  0.0000000E+00  0.1245356E-02
  0.3877551E+00  0.0000000E+00  0.1836735E+00 -0.2146735E-04  0.0000000E+00  0.1239596E-02
  0.4285714E+00  0.0000000E+00  0.1836735E+00 -0.3086368E-04  0.0000000E+00  0.1229796E-02
  0.4693878E+00  0.0000000E+00  0.1836735E+00 -0.4105458E-04  0.0000000E+00  0.1215470E-02
  0.5102041E+00  0.0000000E+00  0.1836735E+00 -0.5163131E-04  0.0000000E+00  0.1196325E-02
  0.5510204E+00  0.0000000E+00  0.1836735E+00 -0.6216027E-04  0.0000000E+00  0.1172281E-02
  0.5918368E+00  0.0000000E+00  0.1836735E+00 -0.7221836E-04  0.0000000E+00  0.1143476E-02
  0.6326531E+00  0.0000000E+00  0.1836735E+00 -0.8142570E-04  0.0000000E+00  0.1110246E-02
  0.6734694E+00  0.0000000E+00  0.1836735E+00 -0.8947140E-04  0.0000000E+00  0.1073098E-02
  0.7142857E+00  0.0000000E+00  0.1836735E+00 -0.9612981E-04  0.0000000E+00  0.1032661E-02
  0.7551020E+00  0.0000000E+00  0.1836735E+00 -0.1012664E-03  0.0000000E+00  0.9896458E-03
  0.7959183E+00  0.0000000E+00  0.1836735E+00 -0.1048344E-03  0.0000000E+00  0.9447915E-03
  0.8367347E+00  0.0000000E+00  0.1836735E+00 -0.1068638E-03  0.0000000E+00  0.8988290E-03
  0.8775510E+00  0.0000000E+00  0.1836735E+00 -0.1074470E-03  0.0000000E+00  0.8524461E-03
  0.9183673E+00  0.0000000E+00  0.1836735E+00 -0.1067213E-03  0.0000000E+00  0.8062642E-03
  0.9591837E+00  0.0000000E+00  0.1836735E+00 -0.1048529E-03  0.0000000E+00  0.7608232E-03
  0.1000000E+01  0.0000000E+00  0.1836735E+00 -0.1020220E-03  0.0000000E+00  0.7165753E-03
  0.1040816E+01  0.0000000E+00  0.1836735E+00 -0.9841085E-04  0.0000000E+00  0.6738838E-03
  0.1081633E+01  0.0000000E+00  0.1836735E+00 -0.9419443E-04  0.0000000E+00  0.6330280E-03
  0.1122449E+01  0.0000000E+00  0.1836735E+00 -0.8953429E-04  0.0000000E+00  0.5942098E-03
  0.1163265E+01  0.0000000E+00  0.1836735E+00 -0.8457440E-04  0.0000000E+00  0.5575635E-03
  0.1204082E+01  0.0000000E+00  0.1836735E+00 -0.7943904E-04  0.0000000E+00  0.5231648E-03
  0.1244898E+01  0.0000000E+00  0.1836735E+00 -0.7423223E-04  0.0000000E+00  0.4910415E-03
  0.1285714E+01  0.0000000E+00  0.1836735E+00 -0.6903806E-04  0.0000000E+00  0.4611827E-03
  0.1326531E+01  0.0000000E+00  0.1836735E+00 -0.6392185E-04  0.0000000E+00  0.4335476E-03
  0.1367347E+01  0.0000000E+00  0.1836735E+00 -0.5893161E-04  0.0000000E+00  0.4080735E-03
  0.1408163E+01  0.0000000E+00  0.1836735E+00 -0.5409988E-04  0.0000000E+00  0.3846834E-03
  0.1448980E+01  0.0000000E+00  0.1836735E+00 -0.4944576E-04  0.0000000E+00  0.3632918E-03
  0.1489796E+01  0.0000000E+00  0.1836735E+00 -0.4497698E-04  0.0000000E+00  0.3438104E-03
  0.1530612E+01  0.0000000E+00  0.1836735E+00 -0.4069214E-04  0.0000000E+00  0.3261518E-03
  0.1571429E+01  0.0000000E+00  0.1836735E+00 -0.3658287E-04  0.0000000E+00  0.3102336E-03
  0.1612245E+01  0.0000000E+00  0.1836735E+00 -0.3263593E-04  0.0000000E+00  0.2959800E-03
  0.1653061E+01  0.0000000E+00  0.1836735E+00 -0.2883499E-04  0.0000000E+00  0.2833235E-03
  0.1693878E+01  0.0000000E+00  0.1836735E+00 -0.2516226E-04  0.0000000E+00  0.2722052E-03
  0.1734694E+01  0.0000000E+00  0.1836735E+00 -0.2159963E-04  0.0000000E+00  0.2625751E-03
  0.1775510E+01  0.0000000E+00  0.1836735E+00 -0.1812944E-04  0.0000000E+00  0.2543915E-03
  0.1816326E+01  0.0000000E+00  0.1836735E+00 -0.1473496E-04  0.0000000E+00  0.2476202E-03
  0.1857143E+01  0.0000000E+00  0.1836735E+00 -0.1140056E-04  0.0000000E+00  0.2422340E-03
  0.1897959E+01  0.0000000E+00  0.1836735E+00 -0.8111662E-05  0.0000000E+00  0.2382120E-03
  0.1938776E+01  0.0000000E+00  0.1836735E+00 -0.4854584E-05  0.0000000E+00  0.2355388E-03
  0.1989796E+01  0.0000000E+00  0.1836735E+00 -0.1616333E-05  0.0000000E+00  0.2342047E-03
  0.2040816E-01  0.0000000E+00  0.2244898E+00  0.1598370E-05  0.0000000E+00  0.1228810E-02
  0.6122449E-01  0.0000000E+00  0.2244898E+00  0.4556156E-05  0.0000000E+00  0.1230563E-02
  0.1020408E+00  0.0000000E+00  0.2244898E+00  0.6808060E-05  0.0000000E+00  0.1233869E-02
  0.1428571E+00  0.0000000E+00  0.2244898E+00  0.7919849E-05  0.0000000E+00  0.1238337E-02
  0.1836735E+00  0.0000000E+00  0.2244898E+00  0.7512862E-05  0.0000000E+00  0.1243400E-02
  0.2244898E+00  0.0000000E+00  0.2244898E+00  0.5287499E-05  0.0000000E+00  0.1248338E-02
  0.2653061E+00  0.0000000E+00  0.2244898E+00  0.1046367E-05  0.0000000E+00  0.1252317E-02
  0.3061225E+00  0.0000000E+00  0.2244898E+00 -0.5285158E-05  0.0000000E+00  0.1254432E-02
  0.3469388E+00  0.0000000E+00  0.2244898E+00 -0.1364414E-04  0.0000000E+00  0.1253767E-02
  0.3877551E+00  0.0000000E+00  0.2244898E+00 -0.2382478E-04  0.0000000E+00  0.1249458E-02
  0.4285714E+00  0.0000000E+00  0.2244898E+00 -0.3548597E-04  0.0000000E+00  0.1240758E-02
  0.4693878E+00  0.0000000E+00  0.2244898E+00 -0.4817326E-04  0.0000000E+00  0.1227101E-02
  0.5102041E+00  0.0000000E+00  0.2244898E+00 -0.6135451E-04  0.0000000E+00  0.1208145E-02
  0.5510204E+00  0.0000000E+00  0.2244898E+00 -0.7446511E-04  0.0000000E+00  0.1183804E-02
  0.5918368E+00  0.0000000E+00  0.2244898E+00 -0.8695649E-04  0.0000000E+00  0.1154246E-02
  0.6326531E+00  0.0000000E+00  0.2244898E+00 -0.9834075E-04  0.0000000E+00  0.1119873E-02
  0.6734694E+00  0.0000000E+00  0.2244898E+00 -0.1082251E-03  0.0000000E+00  0.1081281E-02
  0.7142857E+00  0.0000000E+00  0.2244898E+00 -0.1163325E-03  0.0000000E+00  0.1039203E-02
  0.7551020E+00  0.0000000E+00  0.2244898E+00 -0.1225070E-03  0.0000000E+00  0.9944483E-03
  0.7959183E+00  0.0000000E+00  0.2244898E+00 -0.1267071E-03  0.0000000E+00  0.9478520E-03
  0.8367347E+00  0.0000000E+00  0.2244898E+00 -0.1289895E-03  0.0000000E+00  0.9002225E-03
  0.8775510E+00  0.0000000E+00  0.2244898E+00 -0.1294873E-03  0.0000000E+00  0.8523069E-03
  0.9183673E+00  0.0000000E+00  0.2244898E+00 -0.1283872E-03  0.0000000E+00  0.8047670E-03
  0.9591837E+00  0.0000000E+00  0.2244898E+00 -0.1259078E-03  0.0000000E+00  0.7581651E-03
  0.1000000E+01  0.0000000E+00  0.2244898E+00 -0.1222808E-03  0.0000000E+00  0.7129610E-03
  0.1040816E+01  0.0000000E+00  0.2244898E+00 -0.1177362E-03  0.0000000E+00  0.6695138E-03
  0.1081633E+01  0.0000000E+00  0.2244898E+00 -0.1124917E-03  0.0000000E+00  0.6280899E-03
  0.1122449E+01  0.0000000E+00  0.2244898E+00 -0.1067453E-03  0.0000000E+00  0.5888733E-03
  0.1163265E+01  0.0000000E+00  0.2244898E+00 -0.1006715E-03  0.0000000E+00  0.5519766E-03
  0.1204082E+01  0.0000000E+00  0.2244898E+00 -0.9441900E-04  0.0000000E+00  0.5174531E-03
  0.1244898E+01  0.0000000E+00  0.2244898E+00 -0.8811097E-04  0.0000000E+00  0.4853081E-03
  0.1285714E+01  0.0000000E+00  0.2244898E+00 -0.8184584E-04  0.0000000E+00  0.4555088E-03
  0.1326531E+01  0.0000000E+00  0.2244898E+00 -0.7569899E-04  0.0000000E+00  0.4279944E-03
  0.1367347E+01  0.0000000E+00  0.2244898E+00 -0.6972477E-04  0.0000000E+00  0.4026843E-03
  0.1408163E+01  0.0000000E+00  0.2244898E+00 -0.6395890E-04  0.0000000E+00  0.3794855E-03
  0.1448980E+01  0.0000000E+00  0.2244898E+00 -0.5842089E-04  0.0000000E+00  0.3582987E-03
  0.1489796E+01  0.0000000E+00  0.2244898E+00 -0.5311670E-04  0.0000000E+00  0.3390243E-03
  0.1530612E+01  0.0000000E+00  0.2244898E+00 -0.4804146E-04  0.0000000E+00  0.3215663E-03
  0.1571429E+01  0.0000000E+00  0.2244898E+00 -0.4318218E-04  0.0000000E+00  0.3058357E-03
  0.1612245E+01  0.0000000E+00  0.2244898E+00 -0.3852040E-04  0.0000000E+00  0.2917525E-03
  0.1653061E+01  0.0000000E+00  0.2244898E+00 -0.3403448E-04  0.0000000E+00  0.2792470E-03
  0.1693878E+01  0.0000000E+00  0.2244898E+00 -0.2970153E-04  0.0000000E+00  0.2682594E-03
  0.1734694E+01  0.0000000E+00  0.2244898E+00 -0.2549883E-04  0.0000000E+00  0.2587401E-03
  0.1775510E+01  0.0000000E+00  0.2244898E+00 -0.2140471E-04  0.0000000E+00  0.2506482E-03
  0.1816326E+01  0.0000000E+00  0.2244898E+00 -0.1739899E-04  0.0000000E+00  0.2439508E-03
  0.1857143E+01  0.0000000E+00  0.2244898E+00 -0.1346311E-04  0.0000000E+00  0.2386219E-03
  0.1897959E+01  0.0000000E+00  0.2244898E+00 -0.9579955E-05  0.0000000E+00  0.2346418E-03
  0.1938776E+01  0.0000000E+00  0.2244898E+00 -0.5733603E-05  0.0000000E+00  0.2319961E-03
  0.1989796E+01  0.0000000E+00  0.2244898E+00 -0.1908996E-05  0.0000000E+00  0.2306755E-03
  0.2040816E-01  0.0000000E+00  0.2653061E+00  0.2232326E-05  0.0000000E+00  0.1225221E-02
  0.6122449E-01  0.0000000E+00  0.2653061E+00  0.6404103E-05  0.0000000E+00  0.1227497E-02
  0.1020408E+00  0.0000000E+00  0.2653061E+00  0.9709589E-05  0.0000000E+00  0.1231826E-02
  0.1428571E+00  0.0000000E+00  0.2653061E+00  0.1161207E-04  0.0000000E+00  0.1237770E-02
  0.1836735E+00  0.0000000E+00  0.2653061E+00  0.1163829E-04  0.0000000E+00  0.1244688E-02
  0.2244898E+00  0.0000000E+00  0.2653061E+00  0.9407399E-05  0.0000000E+00  0.1251761E-02
  0.2653061E+00  0.0000000E+00  0.2653061E+00  0.4661048E-05  0.0000000E+00  0.1258031E-02
  0.3061225E+00  0.0000000E+00  0.2653061E+00 -0.2708141E-05  0.0000000E+00  0.1262448E-02
  0.3469388E+00  0.0000000E+00  0.2653061E+00 -0.1263421E-04  0.0000000E+00  0.1263939E-02
  0.3877551E+00  0.0000000E+00  0.2653061E+00 -0.2486713E-04  0.0000000E+00  0.1261481E-02
  0.4285714E+00  0.0000000E+00  0.2653061E+00 -0.3897931E-04  0.0000000E+00  0.1254187E-02
  0.4693878E+00  0.0000000E+00  0.2653061E+00 -0.5439265E-04  0.0000000E+00  0.1241381E-02
  0.5102041E+00  0.0000000E+00  0.2653061E+00 -0.7042543E-04  0.0000000E+00  0.1222658E-02
  0.5510204E+00  0.0000000E+00  0.2653061E+00 -0.8635375E-04  0.0000000E+00  0.1197924E-02
  0.5918368E+00  0.0000000E+00  0.2653061E+00 -0.1014780E-03  0.0000000E+00  0.1167392E-02
  0.6326531E+00  0.0000000E+00  0.2653061E+00 -0.1151833E-03  0.0000000E+00  0.1131555E-02
  0.6734694E+00  0.0000000E+00  0.2653061E+00 -0.1269854E-03  0.0000000E+00  0.1091129E-02
  0.7142857E+00  0.0000000E+00  0.2653061E+00 -0.1365548E-03  0.0000000E+00  0.1046983E-02
  0.7551020E+00  0.0000000E+00  0.2653061E+00 -0.1437217E-03  0.0000000E+00  0.1000060E-02
  0.7959183E+00  0.0000000E+00  0.2653061E+00 -0.1484624E-03  0.0000000E+00  0.9513133E-03
  0.8367347E+00  0.0000000E+00  0.2653061E+00 -0.1508748E-03  0.0000000E+00  0.9016483E-03
  0.8775510E+00  0.0000000E+00  0.2653061E+00 -0.1511481E-03  0.0000000E+00  0.8518828E-03
  0.9183673E+00  0.0000000E+00  0.2653061E+00 -0.1495314E-03  0.0000000E+00  0.8027235E-03
  0.9591837E+00  0.0000000E+00  0.2653061E+00 -0.1463063E-03  0.0000000E+00  0.7547554E-03
  0.1000000E+01  0.0000000E+00  0.2653061E+00 -0.1417637E-03  0.0000000E+00  0.7084420E-03
  0.1040816E+01  0.0000000E+00  0.2653061E+00 -0.1361861E-03  0.0000000E+00  0.6641328E-03
  0.1081633E+01  0.0000000E+00  0.2653061E+00 -0.1298363E-03  0.0000000E+00  0.6220750E-03
  0.1122449E+01  0.0000000E+00  0.2653061E+00 -0.1229491E-03  0.0000000E+00  0.5824272E-03
  0.1163265E+01  0.0000000E+00  0.2653061E+00 -0.1157285E-03  0.0000000E+00  0.5452744E-03
  0.1204082E+01  0.0000000E+00  0.2653061E+00 -0.1083461E-03  0.0000000E+00  0.5106413E-03
  0.1244898E+01  0.0000000E+00  0.2653061E+00 -0.1009420E-03  0.0000000E+00  0.4785051E-03
  0.1285714E+01  0.0000000E+00  0.2653061E+00 -0.9362653E-04  0.0000000E+00  0.4488072E-03
  0.1326531E+01  0.0000000E+00  0.2653061E+00 -0.8648285E-04  0.0000000E+00  0.4214627E-03