title = "dataset feddes"
variables = "x", "y", "z", "vx", "vy", "vz"
zone t = "velocities, solution time =  4.100E+01 days        " i =   49, j =   49, k =    1,  f=point
  0.2040816E-01  0.0000000E+00  0.2040816E-01  0.4823883E-07  0.0000000E+00  0.8713666E-03
  0.6122449E-01  0.0000000E+00  0.2040816E-01  0.1338067E-06  0.0000000E+00  0.8717573E-03
  0.1020408E+00  0.0000000E+00  0.2040816E-01  0.1869375E-06  0.0000000E+00  0.8724457E-03
  0.1428571E+00  0.0000000E+00  0.2040816E-01  0.1879496E-06  0.0000000E+00  0.8732504E-03
  0.1836735E+00  0.0000000E+00  0.2040816E-01  0.1200783E-06  0.0000000E+00  0.8739115E-03
  0.2244898E+00  0.0000000E+00  0.2040816E-01 -0.2948926E-07  0.0000000E+00  0.8741059E-03
  0.2653061E+00  0.0000000E+00  0.2040816E-01 -0.2686824E-06  0.0000000E+00  0.8734660E-03
  0.3061225E+00  0.0000000E+00  0.2040816E-01 -0.5998507E-06  0.0000000E+00  0.8716018E-03
  0.3469388E+00  0.0000000E+00  0.2040816E-01 -0.1019385E-05  0.0000000E+00  0.8681264E-03
  0.3877551E+00  0.0000000E+00  0.2040816E-01 -0.1517751E-05  0.0000000E+00  0.8626809E-03
  0.4285714E+00  0.0000000E+00  0.2040816E-01 -0.2080000E-05  0.0000000E+00  0.8549590E-03
  0.4693878E+00  0.0000000E+00  0.2040816E-01 -0.2686746E-05  0.0000000E+00  0.8447282E-03
  0.5102041E+00  0.0000000E+00  0.2040816E-01 -0.3315564E-05  0.0000000E+00  0.8318457E-03
  0.5510204E+00  0.0000000E+00  0.2040816E-01 -0.3942654E-05  0.0000000E+00  0.8162677E-03
  0.5918368E+00  0.0000000E+00  0.2040816E-01 -0.4544601E-05  0.0000000E+00  0.7980522E-03
  0.6326531E+00  0.0000000E+00  0.2040816E-01 -0.5100024E-05  0.0000000E+00  0.7773531E-03
  0.6734694E+00  0.0000000E+00  0.2040816E-01 -0.5590923E-05  0.0000000E+00  0.7544087E-03
  0.7142857E+00  0.0000000E+00  0.2040816E-01 -0.6003613E-05  0.0000000E+00  0.7295255E-03
  0.7551020E+00  0.0000000E+00  0.2040816E-01 -0.6329174E-05  0.0000000E+00  0.7030583E-03
  0.7959183E+00  0.0000000E+00  0.2040816E-01 -0.6563441E-05  0.0000000E+00  0.6753903E-03
  0.8367347E+00  0.0000000E+00  0.2040816E-01 -0.6706615E-05  0.0000000E+00  0.6469129E-03
  0.8775510E+00  0.0000000E+00  0.2040816E-01 -0.6762595E-05  0.0000000E+00  0.6180087E-03
  0.9183673E+00  0.0000000E+00  0.2040816E-01 -0.6738154E-05  0.0000000E+00  0.5890373E-03
  0.9591837E+00  0.0000000E+00  0.2040816E-01 -0.6642078E-05  0.0000000E+00  0.5603252E-03
  0.1000000E+01  0.0000000E+00  0.2040816E-01 -0.6484337E-05  0.0000000E+00  0.5321582E-03
  0.1040816E+01  0.0000000E+00  0.2040816E-01 -0.6275372E-05  0.0000000E+00  0.5047787E-03
  0.1081633E+01  0.0000000E+00  0.2040816E-01 -0.6025501E-05  0.0000000E+00  0.4783842E-03
  0.1122449E+01  0.0000000E+00  0.2040816E-01 -0.5744481E-05  0.0000000E+00  0.4531293E-03
  0.1163265E+01  0.0000000E+00  0.2040816E-01 -0.5441203E-05  0.0000000E+00  0.4291285E-03
  0.1204082E+01  0.0000000E+00  0.2040816E-01 -0.5123500E-05  0.0000000E+00  0.4064605E-03
  0.1244898E+01  0.0000000E+00  0.2040816E-01 -0.4798062E-05  0.0000000E+00  0.3851728E-03
  0.1285714E+01  0.0000000E+00  0.2040816E-01 -0.4470426E-05  0.0000000E+00  0.3652866E-03
  0.1326531E+01  0.0000000E+00  0.2040816E-01 -0.4145009E-05  0.0000000E+00  0.3468018E-03
  0.1367347E+01  0.0000000E+00  0.2040816E-01 -0.3825195E-05  0.0000000E+00  0.3297016E-03
  0.1408163E+01  0.0000000E+00  0.2040816E-01 -0.3513436E-05  0.0000000E+00  0.3139566E-03
  0.1448980E+01  0.0000000E+00  0.2040816E-01 -0.3211365E-05  0.0000000E+00  0.2995287E-03
  0.1489796E+01  0.0000000E+00  0.2040816E-01 -0.2919926E-05  0.0000000E+00  0.2863743E-03
  0.1530612E+01  0.0000000E+00  0.2040816E-01 -0.2639489E-05  0.0000000E+00  0.2744469E-03
  0.1571429E+01  0.0000000E+00  0.2040816E-01 -0.2369969E-05  0.0000000E+00  0.2636995E-03
  0.1612245E+01  0.0000000E+00  0.2040816E-01 -0.2110936E-05  0.0000000E+00  0.2540862E-03
  0.1653061E+01  0.0000000E+00  0.2040816E-01 -0.1861704E-05  0.0000000E+00  0.2455633E-03
  0.1693878E+01  0.0000000E+00  0.2040816E-01 -0.1621411E-05  0.0000000E+00  0.2380907E-03
  0.1734694E+01  0.0000000E+00  0.2040816E-01 -0.1389086E-05  0.0000000E+00  0.2316320E-03
  0.1775510E+01  0.0000000E+00  0.2040816E-01 -0.1163691E-05  0.0000000E+00  0.2261554E-03
  0.1816326E+01  0.0000000E+00  0.2040816E-01 -0.9441592E-06  0.0000000E+00  0.2216333E-03
  0.1857143E+01  0.0000000E+00  0.2040816E-01 -0.7294123E-06  0.0000000E+00  0.2180429E-03
  0.1897959E+01  0.0000000E+00  0.2040816E-01 -0.5183750E-06  0.0000000E+00  0.2153660E-03
  0.1938776E+01  0.0000000E+00  0.2040816E-01 -0.3099806E-06  0.0000000E+00  0.2135889E-03
  0.1989796E+01  0.0000000E+00  0.2040816E-01 -0.1031729E-06  0.0000000E+00  0.2127025E-03
  0.2040816E-01  0.0000000E+00  0.6122449E-01  0.1694604E-06  0.0000000E+00  0.8711867E-03
  0.6122449E-01  0.0000000E+00  0.6122449E-01  0.4714139E-06  0.0000000E+00  0.8716209E-03
  0.1020408E+00  0.0000000E+00  0.6122449E-01  0.6636459E-06  0.0000000E+00  0.8723939E-03
  0.1428571E+00  0.0000000E+00  0.6122449E-01  0.6795102E-06  0.0000000E+00  0.8733195E-03
  0.1836735E+00  0.0000000E+00  0.6122449E-01  0.4621786E-06  0.0000000E+00  0.8741312E-03
  0.2244898E+00  0.0000000E+00  0.6122449E-01 -0.3186514E-07  0.0000000E+00  0.8744970E-03
  0.2653061E+00  0.0000000E+00  0.6122449E-01 -0.8296478E-06  0.0000000E+00  0.8740386E-03
  0.3061225E+00  0.0000000E+00  0.6122449E-01 -0.1939303E-05  0.0000000E+00  0.8723548E-03
  0.3469388E+00  0.0000000E+00  0.6122449E-01 -0.3348741E-05  0.0000000E+00  0.8690466E-03
  0.3877551E+00  0.0000000E+00  0.6122449E-01 -0.5025718E-05  0.0000000E+00  0.8637438E-03
  0.4285714E+00  0.0000000E+00  0.6122449E-01 -0.6919532E-05  0.0000000E+00  0.8561303E-03
  0.4693878E+00  0.0000000E+00  0.6122449E-01 -0.8964352E-05  0.0000000E+00  0.8459660E-03
  0.5102041E+00  0.0000000E+00  0.6122449E-01 -0.1108397E-04  0.0000000E+00  0.8331037E-03
  0.5510204E+00  0.0000000E+00  0.6122449E-01 -0.1319753E-04  0.0000000E+00  0.8174988E-03
  0.5918368E+00  0.0000000E+00  0.6122449E-01 -0.1522554E-04  0.0000000E+00  0.7992115E-03
  0.6326531E+00  0.0000000E+00  0.6122449E-01 -0.1709552E-04  0.0000000E+00  0.7784012E-03
  0.6734694E+00  0.0000000E+00  0.6122449E-01 -0.1874660E-04  0.0000000E+00  0.7553139E-03
  0.7142857E+00  0.0000000E+00  0.6122449E-01 -0.2013271E-04  0.0000000E+00  0.7302652E-03
  0.7551020E+00  0.0000000E+00  0.6122449E-01 -0.2122404E-04  0.0000000E+00  0.7036195E-03
  0.7959183E+00  0.0000000E+00  0.6122449E-01 -0.2200695E-04  0.0000000E+00  0.6757689E-03
  0.8367347E+00  0.0000000E+00  0.6122449E-01 -0.2248262E-04  0.0000000E+00  0.6471130E-03
  0.8775510E+00  0.0000000E+00  0.6122449E-01 -0.2266468E-04  0.0000000E+00  0.6180410E-03
  0.9183673E+00  0.0000000E+00  0.6122449E-01 -0.2257643E-04  0.0000000E+00  0.5889174E-03
  0.9591837E+00  0.0000000E+00  0.6122449E-01 -0.2224784E-04  0.0000000E+00  0.5600718E-03
  0.1000000E+01  0.0000000E+00  0.6122449E-01 -0.2171279E-04  0.0000000E+00  0.5317918E-03
  0.1040816E+01  0.0000000E+00  0.6122449E-01 -0.2100659E-04  0.0000000E+00  0.5043200E-03
  0.1081633E+01  0.0000000E+00  0.6122449E-01 -0.2016408E-04  0.0000000E+00  0.4778533E-03
  0.1122449E+01  0.0000000E+00  0.6122449E-01 -0.1921811E-04  0.0000000E+00  0.4525448E-03
  0.1163265E+01  0.0000000E+00  0.6122449E-01 -0.1819852E-04  0.0000000E+00  0.4285073E-03
  0.1204082E+01  0.0000000E+00  0.6122449E-01 -0.1713156E-04  0.0000000E+00  0.4058170E-03
  0.1244898E+01  0.0000000E+00  0.6122449E-01 -0.1603962E-04  0.0000000E+00  0.3845192E-03
  0.1285714E+01  0.0000000E+00  0.6122449E-01 -0.1494116E-04  0.0000000E+00  0.3646329E-03
  0.1326531E+01  0.0000000E+00  0.6122449E-01 -0.1385089E-04  0.0000000E+00  0.3461558E-03
  0.1367347E+01  0.0000000E+00  0.6122449E-01 -0.1278005E-04  0.0000000E+00  0.3290692E-03
  0.1408163E+01  0.0000000E+00  0.6122449E-01 -0.1173674E-04  0.0000000E+00  0.3133418E-03
  0.1448980E+01  0.0000000E+00  0.6122449E-01 -0.1072633E-04  0.0000000E+00  0.2989342E-03
  0.1489796E+01  0.0000000E+00  0.6122449E-01 -0.9751888E-05  0.0000000E+00  0.2858013E-03
  0.1530612E+01  0.0000000E+00  0.6122449E-01 -0.8814561E-05  0.0000000E+00  0.2738958E-03
  0.1571429E+01  0.0000000E+00  0.6122449E-01 -0.7913989E-05  0.0000000E+00  0.2631698E-03
  0.1612245E+01  0.0000000E+00  0.6122449E-01 -0.7048658E-05  0.0000000E+00  0.2535766E-03
  0.1653061E+01  0.0000000E+00  0.6122449E-01 -0.6216217E-05  0.0000000E+00  0.2450725E-03
  0.1693878E+01  0.0000000E+00  0.6122449E-01 -0.5413743E-05  0.0000000E+00  0.2376167E-03
  0.1734694E+01  0.0000000E+00  0.6122449E-01 -0.4637950E-05  0.0000000E+00  0.2311729E-03
  0.1775510E+01  0.0000000E+00  0.6122449E-01 -0.3885348E-05  0.0000000E+00  0.2257091E-03
  0.1816326E+01  0.0000000E+00  0.6122449E-01 -0.3152350E-05  0.0000000E+00  0.2211976E-03
  0.1857143E+01  0.0000000E+00  0.6122449E-01 -0.2435344E-05  0.0000000E+00  0.2176156E-03
  0.1897959E+01  0.0000000E+00  0.6122449E-01 -0.1730733E-05  0.0000000E+00  0.2149450E-03
  0.1938776E+01  0.0000000E+00  0.6122449E-01 -0.1034947E-05  0.0000000E+00  0.2131722E-03
  0.1989796E+01  0.0000000E+00  0.6122449E-01 -0.3444546E-06  0.0000000E+00  0.2122879E-03
  0.2040816E-01  0.0000000E+00  0.1020408E+00  0.3284008E-06  0.0000000E+00  0.8707362E-03
  0.6122449E-01  0.0000000E+00  0.1020408E+00  0.9183545E-06  0.0000000E+00  0.8712740E-03
  0.1020408E+00  0.0000000E+00  0.1020408E+00  0.1310218E-05  0.0000000E+00  0.8722485E-03
  0.1428571E+00  0.0000000E+00  0.1020408E+00  0.1383456E-05  0.0000000E+00  0.8734628E-03
  0.1836735E+00  0.0000000E+00  0.1020408E+00  0.1035032E-05  0.0000000E+00  0.8746338E-03
  0.2244898E+00  0.0000000E+00  0.1020408E+00  0.1857341E-06  0.0000000E+00  0.8754087E-03
  0.2653061E+00  0.0000000E+00  0.1020408E+00 -0.1214001E-05  0.0000000E+00  0.8753844E-03
  0.3061225E+00  0.0000000E+00  0.1020408E+00 -0.3179564E-05  0.0000000E+00  0.8741318E-03
  0.3469388E+00  0.0000000E+00  0.1020408E+00 -0.5689588E-05  0.0000000E+00  0.8712237E-03
  0.3877551E+00  0.0000000E+00  0.1020408E+00 -0.8685896E-05  0.0000000E+00  0.8662624E-03
  0.4285714E+00  0.0000000E+00  0.1020408E+00 -0.1207646E-04  0.0000000E+00  0.8589082E-03
  0.4693878E+00  0.0000000E+00  0.1020408E+00 -0.1574147E-04  0.0000000E+00  0.8489029E-03
  0.5102041E+00  0.0000000E+00  0.1020408E+00 -0.1954204E-04  0.0000000E+00  0.8360887E-03
  0.5510204E+00  0.0000000E+00  0.1020408E+00 -0.2333083E-04  0.0000000E+00  0.8204188E-03
  0.5918368E+00  0.0000000E+00  0.1020408E+00 -0.2696324E-04  0.0000000E+00  0.8019591E-03
  0.6326531E+00  0.0000000E+00  0.1020408E+00 -0.3030783E-04  0.0000000E+00  0.7808824E-03
  0.6734694E+00  0.0000000E+00  0.1020408E+00 -0.3325482E-04  0.0000000E+00  0.7574535E-03
  0.7142857E+00  0.0000000E+00  0.1020408E+00 -0.3572179E-04  0.0000000E+00  0.7320098E-03
  0.7551020E+00  0.0000000E+00  0.1020408E+00 -0.3765625E-04  0.0000000E+00  0.7049387E-03
  0.7959183E+00  0.0000000E+00  0.1020408E+00 -0.3903529E-04  0.0000000E+00  0.6766542E-03
  0.8367347E+00  0.0000000E+00  0.1020408E+00 -0.3986281E-04  0.0000000E+00  0.6475751E-03
  0.8775510E+00  0.0000000E+00  0.1020408E+00 -0.4016512E-04  0.0000000E+00  0.6181061E-03
  0.9183673E+00  0.0000000E+00  0.1020408E+00 -0.3998561E-04  0.0000000E+00  0.5886232E-03
  0.9591837E+00  0.0000000E+00  0.1020408E+00 -0.3937938E-04  0.0000000E+00  0.5594634E-03
  0.1000000E+01  0.0000000E+00  0.1020408E+00 -0.3840804E-04  0.0000000E+00  0.5309181E-03
  0.1040816E+01  0.0000000E+00  0.1020408E+00 -0.3713546E-04  0.0000000E+00  0.5032303E-03
  0.1081633E+01  0.0000000E+00  0.1020408E+00 -0.3562419E-04  0.0000000E+00  0.4765953E-03
  0.1122449E+01  0.0000000E+00  0.1020408E+00 -0.3393293E-04  0.0000000E+00  0.4511626E-03
  0.1163265E+01  0.0000000E+00  0.1020408E+00 -0.3211479E-04  0.0000000E+00  0.4270402E-03
  0.1204082E+01  0.0000000E+00  0.1020408E+00 -0.3021626E-04  0.0000000E+00  0.4042993E-03
  0.1244898E+01  0.0000000E+00  0.1020408E+00 -0.2827682E-04  0.0000000E+00  0.3829795E-03
  0.1285714E+01  0.0000000E+00  0.1020408E+00 -0.2632888E-04  0.0000000E+00  0.3630944E-03
  0.1326531E+01  0.0000000E+00  0.1020408E+00 -0.2439817E-04  0.0000000E+00  0.3446367E-03
  0.1367347E+01  0.0000000E+00  0.1020408E+00 -0.2250420E-04  0.0000000E+00  0.3275830E-03
  0.1408163E+01  0.0000000E+00  0.1020408E+00 -0.2066095E-04  0.0000000E+00  0.3118980E-03
  0.1448980E+01  0.0000000E+00  0.1020408E+00 -0.1887754E-04  0.0000000E+00  0.2975385E-03
  0.1489796E+01  0.0000000E+00  0.1020408E+00 -0.1715905E-04  0.0000000E+00  0.2844568E-03
  0.1530612E+01  0.0000000E+00  0.1020408E+00 -0.1550719E-04  0.0000000E+00  0.2726030E-03
  0.1571429E+01  0.0000000E+00  0.1020408E+00 -0.1392104E-04  0.0000000E+00  0.2619273E-03
  0.1612245E+01  0.0000000E+00  0.1020408E+00 -0.1239768E-04  0.0000000E+00  0.2523818E-03
  0.1653061E+01  0.0000000E+00  0.1020408E+00 -0.1093274E-04  0.0000000E+00  0.2439215E-03
  0.1693878E+01  0.0000000E+00  0.1020408E+00 -0.9520925E-05  0.0000000E+00  0.2365053E-03
  0.1734694E+01  0.0000000E+00  0.1020408E+00 -0.8156299E-05  0.0000000E+00  0.2300964E-03
  0.1775510E+01  0.0000000E+00  0.1020408E+00 -0.6832626E-05  0.0000000E+00  0.2246624E-03
  0.1816326E+01  0.0000000E+00  0.1020408E+00 -0.5543531E-05  0.0000000E+00  0.2201757E-03
  0.1857143E+01  0.0000000E+00  0.1020408E+00 -0.4282615E-05  0.0000000E+00  0.2166136E-03
  0.1897959E+01  0.0000000E+00  0.1020408E+00 -0.3043522E-05  0.0000000E+00  0.2139578E-03
  0.1938776E+01  0.0000000E+00  0.1020408E+00 -0.1819960E-05  0.0000000E+00  0.2121947E-03
  0.1989796E+01  0.0000000E+00  0.1020408E+00 -0.6056968E-06  0.0000000E+00  0.2113154E-03
  0.2040816E-01  0.0000000E+00  0.1428571E+00  0.5242139E-06  0.0000000E+00  0.8699661E-03
  0.6122449E-01  0.0000000E+00  0.1428571E+00  0.1476055E-05  0.0000000E+00  0.8706658E-03
  0.1020408E+00  0.0000000E+00  0.1428571E+00  0.2141906E-05  0.0000000E+00  0.8719556E-03
  0.1428571E+00  0.0000000E+00  0.1428571E+00  0.2347277E-05  0.0000000E+00  0.8736216E-03
  0.1836735E+00  0.0000000E+00  0.1428571E+00  0.1942364E-05  0.0000000E+00  0.8753559E-03
  0.2244898E+00  0.0000000E+00  0.1428571E+00  0.8112369E-06  0.0000000E+00  0.8767731E-03
  0.2653061E+00  0.0000000E+00  0.1428571E+00 -0.1119527E-05  0.0000000E+00  0.8774310E-03
  0.3061225E+00  0.0000000E+00  0.1428571E+00 -0.3873898E-05  0.0000000E+00  0.8768574E-03
  0.3469388E+00  0.0000000E+00  0.1428571E+00 -0.7422175E-05  0.0000000E+00  0.8745797E-03
  0.3877551E+00  0.0000000E+00  0.1428571E+00 -0.1168049E-04  0.0000000E+00  0.8701571E-03
  0.4285714E+00  0.0000000E+00  0.1428571E+00 -0.1651482E-04  0.0000000E+00  0.8632117E-03
  0.4693878E+00  0.0000000E+00  0.1428571E+00 -0.2174981E-04  0.0000000E+00  0.8534567E-03
  0.5102041E+00  0.0000000E+00  0.1428571E+00 -0.2718178E-04  0.0000000E+00  0.8407173E-03
  0.5510204E+00  0.0000000E+00  0.1428571E+00 -0.3259470E-04  0.0000000E+00  0.8249431E-03
  0.5918368E+00  0.0000000E+00  0.1428571E+00 -0.3777706E-04  0.0000000E+00  0.8062103E-03
  0.6326531E+00  0.0000000E+00  0.1428571E+00 -0.4253760E-04  0.0000000E+00  0.7847130E-03
  0.6734694E+00  0.0000000E+00  0.1428571E+00 -0.4671795E-04  0.0000000E+00  0.7607464E-03
  0.7142857E+00  0.0000000E+00  0.1428571E+00 -0.5020090E-04  0.0000000E+00  0.7346834E-03
  0.7551020E+00  0.0000000E+00  0.1428571E+00 -0.5291378E-04  0.0000000E+00  0.7069478E-03
  0.7959183E+00  0.0000000E+00  0.1428571E+00 -0.5482748E-04  0.0000000E+00  0.6779882E-03
  0.8367347E+00  0.0000000E+00  0.1428571E+00 -0.5595181E-04  0.0000000E+00  0.6482535E-03
  0.8775510E+00  0.0000000E+00  0.1428571E+00 -0.5632863E-04  0.0000000E+00  0.6181724E-03
  0.9183673E+00  0.0000000E+00  0.1428571E+00 -0.5602376E-04  0.0000000E+00  0.5881381E-03
  0.9591837E+00  0.0000000E+00  0.1428571E+00 -0.5511887E-04  0.0000000E+00  0.5584986E-03
  0.1000000E+01  0.0000000E+00  0.1428571E+00 -0.5370407E-04  0.0000000E+00  0.5295502E-03
  0.1040816E+01  0.0000000E+00  0.1428571E+00 -0.5187166E-04  0.0000000E+00  0.5015365E-03
  0.1081633E+01  0.0000000E+00  0.1428571E+00 -0.4971123E-04  0.0000000E+00  0.4746493E-03
  0.1122449E+01  0.0000000E+00  0.1428571E+00 -0.4730616E-04  0.0000000E+00  0.4490322E-03
  0.1163265E+01  0.0000000E+00  0.1428571E+00 -0.4473132E-04  0.0000000E+00  0.4247857E-03
  0.1204082E+01  0.0000000E+00  0.1428571E+00 -0.4205181E-04  0.0000000E+00  0.4019726E-03
  0.1244898E+01  0.0000000E+00  0.1428571E+00 -0.3932249E-04  0.0000000E+00  0.3806239E-03
  0.1285714E+01  0.0000000E+00  0.1428571E+00 -0.3658816E-04  0.0000000E+00  0.3607450E-03
  0.1326531E+01  0.0000000E+00  0.1428571E+00 -0.3388405E-04  0.0000000E+00  0.3423206E-03
  0.1367347E+01  0.0000000E+00  0.1428571E+00 -0.3123662E-04  0.0000000E+00  0.3253202E-03
  0.1408163E+01  0.0000000E+00  0.1428571E+00 -0.2866460E-04  0.0000000E+00  0.3097023E-03
  0.1448980E+01  0.0000000E+00  0.1428571E+00 -0.2617992E-04  0.0000000E+00  0.2954184E-03
  0.1489796E+01  0.0000000E+00  0.1428571E+00 -0.2378889E-04  0.0000000E+00  0.2824162E-03
  0.1530612E+01  0.0000000E+00  0.1428571E+00 -0.2149318E-04  0.0000000E+00  0.2706421E-03
  0.1571429E+01  0.0000000E+00  0.1428571E+00 -0.1929085E-04  0.0000000E+00  0.2600438E-03
  0.1612245E+01  0.0000000E+00  0.1428571E+00 -0.1717729E-04  0.0000000E+00  0.2505712E-03
  0.1653061E+01  0.0000000E+00  0.1428571E+00 -0.1514595E-04  0.0000000E+00  0.2421779E-03
  0.1693878E+01  0.0000000E+00  0.1428571E+00 -0.1318907E-04  0.0000000E+00  0.2348219E-03
  0.1734694E+01  0.0000000E+00  0.1428571E+00 -0.1129814E-04  0.0000000E+00  0.2284658E-03
  0.1775510E+01  0.0000000E+00  0.1428571E+00 -0.9464297E-05  0.0000000E+00  0.2230770E-03
  0.1816326E+01  0.0000000E+00  0.1428571E+00 -0.7678553E-05  0.0000000E+00  0.2186280E-03
  0.1857143E+01  0.0000000E+00  0.1428571E+00 -0.5931951E-05  0.0000000E+00  0.2150958E-03
  0.1897959E+01  0.0000000E+00  0.1428571E+00 -0.4215628E-05  0.0000000E+00  0.2124623E-03
  0.1938776E+01  0.0000000E+00  0.1428571E+00 -0.2520836E-05  0.0000000E+00  0.2107141E-03
  0.1989796E+01  0.0000000E+00  0.1428571E+00 -0.8389240E-06  0.0000000E+00  0.2098422E-03
  0.2040816E-01  0.0000000E+00  0.1836735E+00  0.7781505E-06  0.0000000E+00  0.8687843E-03
  0.6122449E-01  0.0000000E+00  0.1836735E+00  0.2206965E-05  0.0000000E+00  0.8697053E-03
  0.1020408E+00  0.0000000E+00  0.1836735E+00  0.3258299E-05  0.0000000E+00  0.8714265E-03
  0.1428571E+00  0.0000000E+00  0.1836735E+00  0.3700951E-05  0.0000000E+00  0.8737116E-03
  0.1836735E+00  0.0000000E+00  0.1836735E+00  0.3335171E-05  0.0000000E+00  0.8762194E-03
  0.2244898E+00  0.0000000E+00  0.1836735E+00  0.2004892E-05  0.0000000E+00  0.8785203E-03
  0.2653061E+00  0.0000000E+00  0.1836735E+00 -0.3904466E-06  0.0000000E+00  0.8801192E-03
  0.3061225E+00  0.0000000E+00  0.1836735E+00 -0.3885961E-05  0.0000000E+00  0.8804841E-03
  0.3469388E+00  0.0000000E+00  0.1836735E+00 -0.8444773E-05  0.0000000E+00  0.8790795E-03
  0.3877551E+00  0.0000000E+00  0.1836735E+00 -0.1395649E-04  0.0000000E+00  0.8754037E-03
  0.4285714E+00  0.0000000E+00  0.1836735E+00 -0.2024202E-04  0.0000000E+00  0.8690252E-03
  0.4693878E+00  0.0000000E+00  0.1836735E+00 -0.2706526E-04  0.0000000E+00  0.8596162E-03
  0.5102041E+00  0.0000000E+00  0.1836735E+00 -0.3415108E-04  0.0000000E+00  0.8469783E-03
  0.5510204E+00  0.0000000E+00  0.1836735E+00 -0.4120766E-04  0.0000000E+00  0.8310566E-03
  0.5918368E+00  0.0000000E+00  0.1836735E+00 -0.4795028E-04  0.0000000E+00  0.8119421E-03
  0.6326531E+00  0.0000000E+00  0.1836735E+00 -0.5412336E-04  0.0000000E+00  0.7898606E-03
  0.6734694E+00  0.0000000E+00  0.1836735E+00 -0.5951787E-04  0.0000000E+00  0.7651509E-03
  0.7142857E+00  0.0000000E+00  0.1836735E+00 -0.6398223E-04  0.0000000E+00  0.7382362E-03
  0.7551020E+00  0.0000000E+00  0.1836735E+00 -0.6742624E-04  0.0000000E+00  0.7095922E-03
  0.7959183E+00  0.0000000E+00  0.1836735E+00 -0.6981873E-04  0.0000000E+00  0.6797154E-03
  0.8367347E+00  0.0000000E+00  0.1836735E+00 -0.7118035E-04  0.0000000E+00  0.6490955E-03
  0.8775510E+00  0.0000000E+00  0.1836735E+00 -0.7157343E-04  0.0000000E+00  0.6181934E-03
  0.9183673E+00  0.0000000E+00  0.1836735E+00 -0.7109051E-04  0.0000000E+00  0.5874249E-03
  0.9591837E+00  0.0000000E+00  0.1836735E+00 -0.6984330E-04  0.0000000E+00  0.5571513E-03
  0.1000000E+01  0.0000000E+00  0.1836735E+00 -0.6795269E-04  0.0000000E+00  0.5276747E-03
  0.1040816E+01  0.0000000E+00  0.1836735E+00 -0.6554070E-04  0.0000000E+00  0.4992377E-03
  0.1081633E+01  0.0000000E+00  0.1836735E+00 -0.6272428E-04  0.0000000E+00  0.4720265E-03
  0.1122449E+01  0.0000000E+00  0.1836735E+00 -0.5961102E-04  0.0000000E+00  0.4461761E-03
  0.1163265E+01  0.0000000E+00  0.1836735E+00 -0.5629661E-04  0.0000000E+00  0.4217762E-03
  0.1204082E+01  0.0000000E+00  0.1836735E+00 -0.5286340E-04  0.0000000E+00  0.3988778E-03
  0.1244898E+01  0.0000000E+00  0.1836735E+00 -0.4938020E-04  0.0000000E+00  0.3775004E-03
  0.1285714E+01  0.0000000E+00  0.1836735E+00 -0.4590261E-04  0.0000000E+00  0.3576380E-03
  0.1326531E+01  0.0000000E+00  0.1836735E+00 -0.4247388E-04  0.0000000E+00  0.3392648E-03
  0.1367347E+01  0.0000000E+00  0.1836735E+00 -0.3912609E-04  0.0000000E+00  0.3223410E-03
  0.1408163E+01  0.0000000E+00  0.1836735E+00 -0.3588141E-04  0.0000000E+00  0.3068167E-03
  0.1448980E+01  0.0000000E+00  0.1836735E+00 -0.3275355E-04  0.0000000E+00  0.2926364E-03
  0.1489796E+01  0.0000000E+00  0.1836735E+00 -0.2974907E-04  0.0000000E+00  0.2797420E-03
  0.1530612E+01  0.0000000E+00  0.1836735E+00 -0.2686884E-04  0.0000000E+00  0.2680753E-03
  0.1571429E+01  0.0000000E+00  0.1836735E+00 -0.2410929E-04  0.0000000E+00  0.2575803E-03
  0.1612245E+01  0.0000000E+00  0.1836735E+00 -0.2146362E-04  0.0000000E+00  0.2482045E-03
  0.1653061E+01  0.0000000E+00  0.1836735E+00 -0.1892281E-04  0.0000000E+00  0.2398997E-03
  0.1693878E+01  0.0000000E+00  0.1836735E+00 -0.1647644E-04  0.0000000E+00  0.2326229E-03
  0.1734694E+01  0.0000000E+00  0.1836735E+00 -0.1411338E-04  0.0000000E+00  0.2263361E-03
  0.1775510E+01  0.0000000E+00  0.1836735E+00 -0.1182218E-04  0.0000000E+00  0.2210065E-03
  0.1816326E+01  0.0000000E+00  0.1836735E+00 -0.9591365E-05  0.0000000E+00  0.2166065E-03
  0.1857143E+01  0.0000000E+00  0.1836735E+00 -0.7409594E-05  0.0000000E+00  0.2131132E-03
  0.1897959E+01  0.0000000E+00  0.1836735E+00 -0.5265711E-05  0.0000000E+00  0.2105089E-03
  0.1938776E+01  0.0000000E+00  0.1836735E+00 -0.3148744E-05  0.0000000E+00  0.2087800E-03
  0.1989796E+01  0.0000000E+00  0.1836735E+00 -0.1047866E-05  0.0000000E+00  0.2079177E-03
  0.2040816E-01  0.0000000E+00  0.2244898E+00  0.1110843E-05  0.0000000E+00  0.8670578E-03
  0.6122449E-01  0.0000000E+00  0.2244898E+00  0.3171869E-05  0.0000000E+00  0.8682632E-03
  0.1020408E+00  0.0000000E+00  0.2244898E+00  0.4756932E-05  0.0000000E+00  0.8705394E-03
  0.1428571E+00  0.0000000E+00  0.2244898E+00  0.5572948E-05  0.0000000E+00  0.8736228E-03
  0.1836735E+00  0.0000000E+00  0.2244898E+00  0.5364545E-05  0.0000000E+00  0.8771304E-03
  0.2244898E+00  0.0000000E+00  0.2244898E+00  0.3929577E-05  0.0000000E+00  0.8805774E-03
  0.2653061E+00  0.0000000E+00  0.2244898E+00  0.1134785E-05  0.0000000E+00  0.8834007E-03
  0.3061225E+00  0.0000000E+00  0.2244898E+00 -0.3070341E-05  0.0000000E+00  0.8849905E-03
  0.3469388E+00  0.0000000E+00  0.2244898E+00 -0.8643591E-05  0.0000000E+00  0.8847285E-03
  0.3877551E+00  0.0000000E+00  0.2244898E+00 -0.1544651E-04  0.0000000E+00  0.8820317E-03
  0.4285714E+00  0.0000000E+00  0.2244898E+00 -0.2324948E-04  0.0000000E+00  0.8763964E-03
  0.4693878E+00  0.0000000E+00  0.2244898E+00 -0.3174658E-04  0.0000000E+00  0.8674396E-03
  0.5102041E+00  0.0000000E+00  0.2244898E+00 -0.4057956E-04  0.0000000E+00  0.8549309E-03
  0.5510204E+00  0.0000000E+00  0.2244898E+00 -0.4936835E-04  0.0000000E+00  0.8388101E-03
  0.5918368E+00  0.0000000E+00  0.2244898E+00 -0.5774374E-04  0.0000000E+00  0.8191898E-03
  0.6326531E+00  0.0000000E+00  0.2244898E+00 -0.6537747E-04  0.0000000E+00  0.7963399E-03
  0.6734694E+00  0.0000000E+00  0.2244898E+00 -0.7200543E-04  0.0000000E+00  0.7706595E-03
  0.7142857E+00  0.0000000E+00  0.2244898E+00 -0.7744143E-04  0.0000000E+00  0.7426403E-03
  0.7551020E+00  0.0000000E+00  0.2244898E+00 -0.8158107E-04  0.0000000E+00  0.7128270E-03
  0.7959183E+00  0.0000000E+00  0.2244898E+00 -0.8439698E-04  0.0000000E+00  0.6817790E-03
  0.8367347E+00  0.0000000E+00  0.2244898E+00 -0.8592775E-04  0.0000000E+00  0.6500385E-03
  0.8775510E+00  0.0000000E+00  0.2244898E+00 -0.8626337E-04  0.0000000E+00  0.6181065E-03
  0.9183673E+00  0.0000000E+00  0.2244898E+00 -0.8552971E-04  0.0000000E+00  0.5864256E-03
  0.9591837E+00  0.0000000E+00  0.2244898E+00 -0.8387374E-04  0.0000000E+00  0.5553722E-03
  0.1000000E+01  0.0000000E+00  0.2244898E+00 -0.8145097E-04  0.0000000E+00  0.5252530E-03
  0.1040816E+01  0.0000000E+00  0.2244898E+00 -0.7841549E-04  0.0000000E+00  0.4963077E-03
  0.1081633E+01  0.0000000E+00  0.2244898E+00 -0.7491267E-04  0.0000000E+00  0.4687136E-03
  0.1122449E+01  0.0000000E+00  0.2244898E+00 -0.7107442E-04  0.0000000E+00  0.4425932E-03
  0.1163265E+01  0.0000000E+00  0.2244898E+00 -0.6701650E-04  0.0000000E+00  0.4180218E-03
  0.1204082E+01  0.0000000E+00  0.2244898E+00 -0.6283739E-04  0.0000000E+00  0.3950351E-03
  0.1244898E+01  0.0000000E+00  0.2244898E+00 -0.5861837E-04  0.0000000E+00  0.3736377E-03
  0.1285714E+01  0.0000000E+00  0.2244898E+00 -0.5442428E-04  0.0000000E+00  0.3538092E-03
  0.1326531E+01  0.0000000E+00  0.2244898E+00 -0.5030488E-04  0.0000000E+00  0.3355108E-03
  0.1367347E+01  0.0000000E+00  0.2244898E+00 -0.4629635E-04  0.0000000E+00  0.3186909E-03
  0.1408163E+01  0.0000000E+00  0.2244898E+00 -0.4242300E-04  0.0000000E+00  0.3032897E-03
  0.1448980E+01  0.0000000E+00  0.2244898E+00 -0.3869902E-04  0.0000000E+00  0.2892431E-03
  0.1489796E+01  0.0000000E+00  0.2244898E+00 -0.3513019E-04  0.0000000E+00  0.2764857E-03
  0.1530612E+01  0.0000000E+00  0.2244898E+00 -0.3171562E-04  0.0000000E+00  0.2649542E-03
  0.1571429E+01  0.0000000E+00  0.2244898E+00 -0.2844931E-04  0.0000000E+00  0.2545881E-03
  0.1612245E+01  0.0000000E+00  0.2244898E+00 -0.2532166E-04  0.0000000E+00  0.2453322E-03
  0.1653061E+01  0.0000000E+00  0.2244898E+00 -0.2232072E-04  0.0000000E+00  0.2371364E-03
  0.1693878E+01  0.0000000E+00  0.2244898E+00 -0.1943316E-04  0.0000000E+00  0.2299565E-03
  0.1734694E+01  0.0000000E+00  0.2244898E+00 -0.1664508E-04  0.0000000E+00  0.2237542E-03
  0.1775510E+01  0.0000000E+00  0.2244898E+00 -0.1394244E-04  0.0000000E+00  0.2184964E-03
  0.1816326E+01  0.0000000E+00  0.2244898E+00 -0.1131137E-04  0.0000000E+00  0.2141558E-03
  0.1857143E+01  0.0000000E+00  0.2244898E+00 -0.8738294E-05  0.0000000E+00  0.2107097E-03
  0.1897959E+01  0.0000000E+00  0.2244898E+00 -0.6209957E-05  0.0000000E+00  0.2081404E-03
  0.1938776E+01  0.0000000E+00  0.2244898E+00 -0.3713369E-05  0.0000000E+00  0.2064348E-03
  0.1989796E+01  0.0000000E+00  0.2244898E+00 -0.1235750E-05  0.0000000E+00  0.2055842E-03
  0.2040816E-01  0.0000000E+00  0.2653061E+00  0.1543405E-05  0.0000000E+00  0.8646130E-03
  0.6122449E-01  0.0000000E+00  0.2653061E+00  0.4433251E-05  0.0000000E+00  0.8661714E-03
  0.1020408E+00  0.0000000E+00  0.2653061E+00  0.6738965E-05  0.0000000E+00  0.8691381E-03
  0.1428571E+00  0.0000000E+00  0.2653061E+00  0.8098298E-05  0.0000000E+00  0.8732172E-03
  0.1836735E+00  0.0000000E+00  0.2653061E+00  0.8192073E-05  0.0000000E+00  0.8779766E-03
  0.2244898E+00  0.0000000E+00  0.2653061E+00  0.6763312E-05  0.0000000E+00  0.8828645E-03
  0.2653061E+00  0.0000000E+00  0.2653061E+00  0.3637621E-05  0.0000000E+00  0.8872340E-03
  0.3061225E+00  0.0000000E+00  0.2653061E+00 -0.1257612E-05  0.0000000E+00  0.8903773E-03
  0.3469388E+00  0.0000000E+00  0.2653061E+00 -0.7878135E-05  0.0000000E+00  0.8915700E-03
  0.3877551E+00  0.0000000E+00  0.2653061E+00 -0.1605567E-04  0.0000000E+00  0.8901227E-03
  0.4285714E+00  0.0000000E+00  0.2653061E+00 -0.2550231E-04  0.0000000E+00  0.8854364E-03
  0.4693878E+00  0.0000000E+00  0.2653061E+00 -0.3582878E-04  0.0000000E+00  0.8770545E-03
  0.5102041E+00  0.0000000E+00  0.2653061E+00 -0.4657605E-04  0.0000000E+00  0.8647043E-03
  0.5510204E+00  0.0000000E+00  0.2653061E+00 -0.5725671E-04  0.0000000E+00  0.8483201E-03
  0.5918368E+00  0.0000000E+00  0.2653061E+00 -0.6739981E-04  0.0000000E+00  0.8280447E-03
  0.6326531E+00  0.0000000E+00  0.2653061E+00 -0.7659164E-04  0.0000000E+00  0.8042089E-03
  0.6734694E+00  0.0000000E+00  0.2653061E+00 -0.8450640E-04  0.0000000E+00  0.7772940E-03
  0.7142857E+00  0.0000000E+00  0.2653061E+00 -0.9092293E-04  0.0000000E+00  0.7478828E-03
  0.7551020E+00  0.0000000E+00  0.2653061E+00 -0.9572752E-04  0.0000000E+00  0.7166100E-03
  0.7959183E+00  0.0000000E+00  0.2653061E+00 -0.9890501E-04  0.0000000E+00  0.6841152E-03
  0.8367347E+00  0.0000000E+00  0.2653061E+00 -0.1005220E-03  0.0000000E+00  0.6510057E-03
  0.8775510E+00  0.0000000E+00  0.2653061E+00 -0.1007064E-03  0.0000000E+00  0.6178298E-03
  0.9183673E+00  0.0000000E+00  0.2653061E+00 -0.9962616E-04  0.0000000E+00  0.5850604E-03
  0.9591837E+00  0.0000000E+00  0.2653061E+00 -0.9747088E-04  0.0000000E+00  0.5530885E-03
  0.1000000E+01  0.0000000E+00  0.2653061E+00 -0.9443580E-04  0.0000000E+00  0.5222235E-03
  0.1040816E+01  0.0000000E+00  0.2653061E+00 -0.9071025E-04  0.0000000E+00  0.4926978E-03
  0.1081633E+01  0.0000000E+00  0.2653061E+00 -0.8646958E-04  0.0000000E+00  0.4646757E-03
  0.1122449E+01  0.0000000E+00  0.2653061E+00 -0.8187027E-04  0.0000000E+00  0.4382624E-03
  0.1163265E+01  0.0000000E+00  0.2653061E+00 -0.7704751E-04  0.0000000E+00  0.4135143E-03
  0.1204082E+01  0.0000000E+00  0.2653061E+00 -0.7211464E-04  0.0000000E+00  0.3904480E-03
  0.1244898E+01  0.0000000E+00  0.2653061E+00 -0.6716381E-04  0.0000000E+00  0.3690492E-03
  0.1285714E+01  0.0000000E+00  0.2653061E+00 -0.6226747E-04  0.0000000E+00  0.3492804E-03
  0.1326531E+01  0.0000000E+00  0.2653061E+00 -0.5748016E-04  0.0000000E+00  0.3310873E-03