title = "dataset feddes"
variables = "x", "y", "z", "vx", "vy", "vz"
zone t = "velocities, solution time =  4.000E+00 days        " i =   49, j =   49, k =    1,  f=point
  0.2040816E-01  0.0000000E+00  0.2040816E-01 -0.7133074E-10  0.0000000E+00  0.1333547E-01
  0.6122449E-01  0.0000000E+00  0.2040816E-01 -0.4503529E-10  0.0000000E+00  0.1333547E-01
  0.1020408E+00  0.0000000E+00  0.2040816E-01 -0.1908308E-10  0.0000000E+00  0.1333546E-01
  0.1428571E+00  0.0000000E+00  0.2040816E-01 -0.8914104E-11  0.0000000E+00  0.1333546E-01
  0.1836735E+00  0.0000000E+00  0.2040816E-01 -0.1700775E-11  0.0000000E+00  0.1333546E-01
  0.2244898E+00  0.0000000E+00  0.2040816E-01  0.1824001E-11  0.0000000E+00  0.1333546E-01
  0.2653061E+00  0.0000000E+00  0.2040816E-01  0.5686819E-11  0.0000000E+00  0.1333546E-01
  0.3061225E+00  0.0000000E+00  0.2040816E-01  0.7389581E-11  0.0000000E+00  0.1333546E-01
  0.3469388E+00  0.0000000E+00  0.2040816E-01  0.9681580E-11  0.0000000E+00  0.1333546E-01
  0.3877551E+00  0.0000000E+00  0.2040816E-01  0.1067245E-10  0.0000000E+00  0.1333547E-01
  0.4285714E+00  0.0000000E+00  0.2040816E-01  0.1085281E-10  0.0000000E+00  0.1333547E-01
  0.4693878E+00  0.0000000E+00  0.2040816E-01  0.1020069E-10  0.0000000E+00  0.1333547E-01
  0.5102041E+00  0.0000000E+00  0.2040816E-01  0.1017982E-10  0.0000000E+00  0.1333547E-01
  0.5510204E+00  0.0000000E+00  0.2040816E-01  0.9014901E-11  0.0000000E+00  0.1333547E-01
  0.5918368E+00  0.0000000E+00  0.2040816E-01  0.6105235E-11  0.0000000E+00  0.1333547E-01
  0.6326531E+00  0.0000000E+00  0.2040816E-01  0.2522771E-11  0.0000000E+00  0.1333547E-01
  0.6734694E+00  0.0000000E+00  0.2040816E-01  0.1593092E-11  0.0000000E+00  0.1333547E-01
  0.7142857E+00  0.0000000E+00  0.2040816E-01 -0.4326959E-11  0.0000000E+00  0.1333547E-01
  0.7551020E+00  0.0000000E+00  0.2040816E-01 -0.5980710E-11  0.0000000E+00  0.1333547E-01
  0.7959183E+00  0.0000000E+00  0.2040816E-01 -0.9927128E-11  0.0000000E+00  0.1333547E-01
  0.8367347E+00  0.0000000E+00  0.2040816E-01 -0.1441121E-10  0.0000000E+00  0.1333547E-01
  0.8775510E+00  0.0000000E+00  0.2040816E-01 -0.1776842E-10  0.0000000E+00  0.1333547E-01
  0.9183673E+00  0.0000000E+00  0.2040816E-01 -0.2017205E-10  0.0000000E+00  0.1333546E-01
  0.9591837E+00  0.0000000E+00  0.2040816E-01 -0.2214964E-10  0.0000000E+00  0.1333546E-01
  0.1000000E+01  0.0000000E+00  0.2040816E-01 -0.2377502E-10  0.0000000E+00  0.1333546E-01
  0.1040816E+01  0.0000000E+00  0.2040816E-01 -0.2489181E-10  0.0000000E+00  0.1333546E-01
  0.1081633E+01  0.0000000E+00  0.2040816E-01 -0.2539833E-10  0.0000000E+00  0.1333546E-01
  0.1122449E+01  0.0000000E+00  0.2040816E-01 -0.2525871E-10  0.0000000E+00  0.1333546E-01
  0.1163265E+01  0.0000000E+00  0.2040816E-01 -0.2450690E-10  0.0000000E+00  0.1333546E-01
  0.1204082E+01  0.0000000E+00  0.2040816E-01 -0.2326061E-10  0.0000000E+00  0.1333546E-01
  0.1244898E+01  0.0000000E+00  0.2040816E-01 -0.2165933E-10  0.0000000E+00  0.1333546E-01
  0.1285714E+01  0.0000000E+00  0.2040816E-01 -0.1982089E-10  0.0000000E+00  0.1333546E-01
  0.1326531E+01  0.0000000E+00  0.2040816E-01 -0.1786795E-10  0.0000000E+00  0.1333546E-01
  0.1367347E+01  0.0000000E+00  0.2040816E-01 -0.1588881E-10  0.0000000E+00  0.1333546E-01
  0.1408163E+01  0.0000000E+00  0.2040816E-01 -0.1395569E-10  0.0000000E+00  0.1333546E-01
  0.1448980E+01  0.0000000E+00  0.2040816E-01 -0.1215725E-10  0.0000000E+00  0.1333546E-01
  0.1489796E+01  0.0000000E+00  0.2040816E-01 -0.1051501E-10  0.0000000E+00  0.1333546E-01
  0.1530612E+01  0.0000000E+00  0.2040816E-01 -0.1061848E-10  0.0000000E+00  0.1333546E-01
  0.1571429E+01  0.0000000E+00  0.2040816E-01 -0.1061767E-10  0.0000000E+00  0.1333546E-01
  0.1612245E+01  0.0000000E+00  0.2040816E-01 -0.9712628E-11  0.0000000E+00  0.1333546E-01
  0.1653061E+01  0.0000000E+00  0.2040816E-01 -0.9636150E-11  0.0000000E+00  0.1333546E-01
  0.1693878E+01  0.0000000E+00  0.2040816E-01 -0.1035402E-10  0.0000000E+00  0.1333546E-01
  0.1734694E+01  0.0000000E+00  0.2040816E-01 -0.1024937E-10  0.0000000E+00  0.1333546E-01
  0.1775510E+01  0.0000000E+00  0.2040816E-01 -0.1125872E-10  0.0000000E+00  0.1333546E-01
  0.1816326E+01  0.0000000E+00  0.2040816E-01 -0.1450168E-10  0.0000000E+00  0.1333546E-01
  0.1857143E+01  0.0000000E+00  0.2040816E-01 -0.1899984E-10  0.0000000E+00  0.1333546E-01
  0.1897959E+01  0.0000000E+00  0.2040816E-01 -0.2660612E-10  0.0000000E+00  0.1333546E-01
  0.1938776E+01  0.0000000E+00  0.2040816E-01 -0.4214373E-10  0.0000000E+00  0.1333546E-01
  0.1989796E+01  0.0000000E+00  0.2040816E-01 -0.7940091E-10  0.0000000E+00  0.1333546E-01
  0.2040816E-01  0.0000000E+00  0.6122449E-01 -0.1965229E-09  0.0000000E+00  0.1333479E-01
  0.6122449E-01  0.0000000E+00  0.6122449E-01 -0.1370549E-09  0.0000000E+00  0.1333479E-01
  0.1020408E+00  0.0000000E+00  0.6122449E-01 -0.5543408E-10  0.0000000E+00  0.1333479E-01
  0.1428571E+00  0.0000000E+00  0.6122449E-01 -0.2608063E-10  0.0000000E+00  0.1333479E-01
  0.1836735E+00  0.0000000E+00  0.6122449E-01 -0.4617418E-11  0.0000000E+00  0.1333479E-01
  0.2244898E+00  0.0000000E+00  0.6122449E-01  0.7242912E-11  0.0000000E+00  0.1333479E-01
  0.2653061E+00  0.0000000E+00  0.6122449E-01  0.1954176E-10  0.0000000E+00  0.1333479E-01
  0.3061225E+00  0.0000000E+00  0.6122449E-01  0.2523438E-10  0.0000000E+00  0.1333479E-01
  0.3469388E+00  0.0000000E+00  0.6122449E-01  0.3204743E-10  0.0000000E+00  0.1333479E-01
  0.3877551E+00  0.0000000E+00  0.6122449E-01  0.3500185E-10  0.0000000E+00  0.1333479E-01
  0.4285714E+00  0.0000000E+00  0.6122449E-01  0.3575483E-10  0.0000000E+00  0.1333479E-01
  0.4693878E+00  0.0000000E+00  0.6122449E-01  0.3434583E-10  0.0000000E+00  0.1333479E-01
  0.5102041E+00  0.0000000E+00  0.6122449E-01  0.3381893E-10  0.0000000E+00  0.1333479E-01
  0.5510204E+00  0.0000000E+00  0.6122449E-01  0.2830045E-10  0.0000000E+00  0.1333479E-01
  0.5918368E+00  0.0000000E+00  0.6122449E-01  0.1952255E-10  0.0000000E+00  0.1333479E-01
  0.6326531E+00  0.0000000E+00  0.6122449E-01  0.9233425E-11  0.0000000E+00  0.1333479E-01
  0.6734694E+00  0.0000000E+00  0.6122449E-01  0.5634118E-11  0.0000000E+00  0.1333479E-01
  0.7142857E+00  0.0000000E+00  0.6122449E-01 -0.1448095E-10  0.0000000E+00  0.1333479E-01
  0.7551020E+00  0.0000000E+00  0.6122449E-01 -0.2171654E-10  0.0000000E+00  0.1333479E-01
  0.7959183E+00  0.0000000E+00  0.6122449E-01 -0.3302820E-10  0.0000000E+00  0.1333479E-01
  0.8367347E+00  0.0000000E+00  0.6122449E-01 -0.4714294E-10  0.0000000E+00  0.1333479E-01
  0.8775510E+00  0.0000000E+00  0.6122449E-01 -0.5854522E-10  0.0000000E+00  0.1333479E-01
  0.9183673E+00  0.0000000E+00  0.6122449E-01 -0.6682790E-10  0.0000000E+00  0.1333479E-01
  0.9591837E+00  0.0000000E+00  0.6122449E-01 -0.7344327E-10  0.0000000E+00  0.1333479E-01
  0.1000000E+01  0.0000000E+00  0.6122449E-01 -0.7877881E-10  0.0000000E+00  0.1333479E-01
  0.1040816E+01  0.0000000E+00  0.6122449E-01 -0.8239080E-10  0.0000000E+00  0.1333479E-01
  0.1081633E+01  0.0000000E+00  0.6122449E-01 -0.8396310E-10  0.0000000E+00  0.1333479E-01
  0.1122449E+01  0.0000000E+00  0.6122449E-01 -0.8343146E-10  0.0000000E+00  0.1333479E-01
  0.1163265E+01  0.0000000E+00  0.6122449E-01 -0.8091501E-10  0.0000000E+00  0.1333479E-01
  0.1204082E+01  0.0000000E+00  0.6122449E-01 -0.7676985E-10  0.0000000E+00  0.1333479E-01
  0.1244898E+01  0.0000000E+00  0.6122449E-01 -0.7145286E-10  0.0000000E+00  0.1333479E-01
  0.1285714E+01  0.0000000E+00  0.6122449E-01 -0.6535171E-10  0.0000000E+00  0.1333479E-01
  0.1326531E+01  0.0000000E+00  0.6122449E-01 -0.5887272E-10  0.0000000E+00  0.1333479E-01
  0.1367347E+01  0.0000000E+00  0.6122449E-01 -0.5231567E-10  0.0000000E+00  0.1333479E-01
  0.1408163E+01  0.0000000E+00  0.6122449E-01 -0.4589926E-10  0.0000000E+00  0.1333479E-01
  0.1448980E+01  0.0000000E+00  0.6122449E-01 -0.3997600E-10  0.0000000E+00  0.1333479E-01
  0.1489796E+01  0.0000000E+00  0.6122449E-01 -0.3500957E-10  0.0000000E+00  0.1333479E-01
  0.1530612E+01  0.0000000E+00  0.6122449E-01 -0.3474836E-10  0.0000000E+00  0.1333479E-01
  0.1571429E+01  0.0000000E+00  0.6122449E-01 -0.3441538E-10  0.0000000E+00  0.1333479E-01
  0.1612245E+01  0.0000000E+00  0.6122449E-01 -0.3185170E-10  0.0000000E+00  0.1333479E-01
  0.1653061E+01  0.0000000E+00  0.6122449E-01 -0.3164365E-10  0.0000000E+00  0.1333479E-01
  0.1693878E+01  0.0000000E+00  0.6122449E-01 -0.3348191E-10  0.0000000E+00  0.1333479E-01
  0.1734694E+01  0.0000000E+00  0.6122449E-01 -0.3356002E-10  0.0000000E+00  0.1333479E-01
  0.1775510E+01  0.0000000E+00  0.6122449E-01 -0.3692052E-10  0.0000000E+00  0.1333479E-01
  0.1816326E+01  0.0000000E+00  0.6122449E-01 -0.4664499E-10  0.0000000E+00  0.1333479E-01
  0.1857143E+01  0.0000000E+00  0.6122449E-01 -0.6011107E-10  0.0000000E+00  0.1333479E-01
  0.1897959E+01  0.0000000E+00  0.6122449E-01 -0.8196238E-10  0.0000000E+00  0.1333479E-01
  0.1938776E+01  0.0000000E+00  0.6122449E-01 -0.1236193E-09  0.0000000E+00  0.1333479E-01
  0.1989796E+01  0.0000000E+00  0.6122449E-01 -0.2139316E-09  0.0000000E+00  0.1333479E-01
  0.2040816E-01  0.0000000E+00  0.1020408E+00 -0.2614680E-09  0.0000000E+00  0.1333207E-01
  0.6122449E-01  0.0000000E+00  0.1020408E+00 -0.2034210E-09  0.0000000E+00  0.1333207E-01
  0.1020408E+00  0.0000000E+00  0.1020408E+00 -0.7817883E-10  0.0000000E+00  0.1333207E-01
  0.1428571E+00  0.0000000E+00  0.1020408E+00 -0.3599165E-10  0.0000000E+00  0.1333207E-01
  0.1836735E+00  0.0000000E+00  0.1020408E+00 -0.3980313E-11  0.0000000E+00  0.1333207E-01
  0.2244898E+00  0.0000000E+00  0.1020408E+00  0.1633941E-10  0.0000000E+00  0.1333207E-01
  0.2653061E+00  0.0000000E+00  0.1020408E+00  0.3534694E-10  0.0000000E+00  0.1333207E-01
  0.3061225E+00  0.0000000E+00  0.1020408E+00  0.4527150E-10  0.0000000E+00  0.1333207E-01
  0.3469388E+00  0.0000000E+00  0.1020408E+00  0.5575341E-10  0.0000000E+00  0.1333207E-01
  0.3877551E+00  0.0000000E+00  0.1020408E+00  0.6010149E-10  0.0000000E+00  0.1333207E-01
  0.4285714E+00  0.0000000E+00  0.1020408E+00  0.6144901E-10  0.0000000E+00  0.1333207E-01
  0.4693878E+00  0.0000000E+00  0.1020408E+00  0.6030191E-10  0.0000000E+00  0.1333207E-01
  0.5102041E+00  0.0000000E+00  0.1020408E+00  0.5782756E-10  0.0000000E+00  0.1333207E-01
  0.5510204E+00  0.0000000E+00  0.1020408E+00  0.4789656E-10  0.0000000E+00  0.1333207E-01
  0.5918368E+00  0.0000000E+00  0.1020408E+00  0.3226832E-10  0.0000000E+00  0.1333207E-01
  0.6326531E+00  0.0000000E+00  0.1020408E+00  0.1514722E-10  0.0000000E+00  0.1333207E-01
  0.6734694E+00  0.0000000E+00  0.1020408E+00  0.1020264E-10  0.0000000E+00  0.1333207E-01
  0.7142857E+00  0.0000000E+00  0.1020408E+00 -0.2331641E-10  0.0000000E+00  0.1333207E-01
  0.7551020E+00  0.0000000E+00  0.1020408E+00 -0.4105661E-10  0.0000000E+00  0.1333207E-01
  0.7959183E+00  0.0000000E+00  0.1020408E+00 -0.5875997E-10  0.0000000E+00  0.1333207E-01
  0.8367347E+00  0.0000000E+00  0.1020408E+00 -0.8094574E-10  0.0000000E+00  0.1333207E-01
  0.8775510E+00  0.0000000E+00  0.1020408E+00 -0.1005917E-09  0.0000000E+00  0.1333207E-01
  0.9183673E+00  0.0000000E+00  0.1020408E+00 -0.1155650E-09  0.0000000E+00  0.1333207E-01
  0.9591837E+00  0.0000000E+00  0.1020408E+00 -0.1272914E-09  0.0000000E+00  0.1333207E-01
  0.1000000E+01  0.0000000E+00  0.1020408E+00 -0.1364919E-09  0.0000000E+00  0.1333207E-01
  0.1040816E+01  0.0000000E+00  0.1020408E+00 -0.1425814E-09  0.0000000E+00  0.1333207E-01
  0.1081633E+01  0.0000000E+00  0.1020408E+00 -0.1450617E-09  0.0000000E+00  0.1333207E-01
  0.1122449E+01  0.0000000E+00  0.1020408E+00 -0.1439355E-09  0.0000000E+00  0.1333207E-01
  0.1163265E+01  0.0000000E+00  0.1020408E+00 -0.1394625E-09  0.0000000E+00  0.1333207E-01
  0.1204082E+01  0.0000000E+00  0.1020408E+00 -0.1322039E-09  0.0000000E+00  0.1333207E-01
  0.1244898E+01  0.0000000E+00  0.1020408E+00 -0.1229377E-09  0.0000000E+00  0.1333207E-01
  0.1285714E+01  0.0000000E+00  0.1020408E+00 -0.1123192E-09  0.0000000E+00  0.1333207E-01
  0.1326531E+01  0.0000000E+00  0.1020408E+00 -0.1010427E-09  0.0000000E+00  0.1333207E-01
  0.1367347E+01  0.0000000E+00  0.1020408E+00 -0.8965906E-10  0.0000000E+00  0.1333207E-01
  0.1408163E+01  0.0000000E+00  0.1020408E+00 -0.7849645E-10  0.0000000E+00  0.1333207E-01
  0.1448980E+01  0.0000000E+00  0.1020408E+00 -0.6823062E-10  0.0000000E+00  0.1333207E-01
  0.1489796E+01  0.0000000E+00  0.1020408E+00 -0.6049831E-10  0.0000000E+00  0.1333207E-01
  0.1530612E+01  0.0000000E+00  0.1020408E+00 -0.5900832E-10  0.0000000E+00  0.1333207E-01
  0.1571429E+01  0.0000000E+00  0.1020408E+00 -0.5773393E-10  0.0000000E+00  0.1333207E-01
  0.1612245E+01  0.0000000E+00  0.1020408E+00 -0.5402481E-10  0.0000000E+00  0.1333207E-01
  0.1653061E+01  0.0000000E+00  0.1020408E+00 -0.5378946E-10  0.0000000E+00  0.1333207E-01
  0.1693878E+01  0.0000000E+00  0.1020408E+00 -0.5589480E-10  0.0000000E+00  0.1333207E-01
  0.1734694E+01  0.0000000E+00  0.1020408E+00 -0.5654047E-10  0.0000000E+00  0.1333207E-01
  0.1775510E+01  0.0000000E+00  0.1020408E+00 -0.6206013E-10  0.0000000E+00  0.1333207E-01
  0.1816326E+01  0.0000000E+00  0.1020408E+00 -0.7635408E-10  0.0000000E+00  0.1333207E-01
  0.1857143E+01  0.0000000E+00  0.1020408E+00 -0.9570889E-10  0.0000000E+00  0.1333207E-01
  0.1897959E+01  0.0000000E+00  0.1020408E+00 -0.1250938E-09  0.0000000E+00  0.1333207E-01
  0.1938776E+01  0.0000000E+00  0.1020408E+00 -0.1753030E-09  0.0000000E+00  0.1333207E-01
  0.1989796E+01  0.0000000E+00  0.1020408E+00 -0.2690592E-09  0.0000000E+00  0.1333207E-01
  0.2040816E-01  0.0000000E+00  0.1428571E+00 -0.2674680E-09  0.0000000E+00  0.1332612E-01
  0.6122449E-01  0.0000000E+00  0.1428571E+00 -0.2244679E-09  0.0000000E+00  0.1332612E-01
  0.1020408E+00  0.0000000E+00  0.1428571E+00 -0.8052418E-10  0.0000000E+00  0.1332612E-01
  0.1428571E+00  0.0000000E+00  0.1428571E+00 -0.3396979E-10  0.0000000E+00  0.1332612E-01
  0.1836735E+00  0.0000000E+00  0.1428571E+00  0.1992527E-11  0.0000000E+00  0.1332612E-01
  0.2244898E+00  0.0000000E+00  0.1428571E+00  0.3074983E-10  0.0000000E+00  0.1332612E-01
  0.2653061E+00  0.0000000E+00  0.1428571E+00  0.4895043E-10  0.0000000E+00  0.1332612E-01
  0.3061225E+00  0.0000000E+00  0.1428571E+00  0.6279927E-10  0.0000000E+00  0.1332612E-01
  0.3469388E+00  0.0000000E+00  0.1428571E+00  0.7586774E-10  0.0000000E+00  0.1332612E-01
  0.3877551E+00  0.0000000E+00  0.1428571E+00  0.8083111E-10  0.0000000E+00  0.1332612E-01
  0.4285714E+00  0.0000000E+00  0.1428571E+00  0.8239998E-10  0.0000000E+00  0.1332612E-01
  0.4693878E+00  0.0000000E+00  0.1428571E+00  0.8073744E-10  0.0000000E+00  0.1332612E-01
  0.5102041E+00  0.0000000E+00  0.1428571E+00  0.7703548E-10  0.0000000E+00  0.1332612E-01
  0.5510204E+00  0.0000000E+00  0.1428571E+00  0.6495677E-10  0.0000000E+00  0.1332612E-01
  0.5918368E+00  0.0000000E+00  0.1428571E+00  0.4252460E-10  0.0000000E+00  0.1332612E-01
  0.6326531E+00  0.0000000E+00  0.1428571E+00  0.1620724E-10  0.0000000E+00  0.1332612E-01
  0.6734694E+00  0.0000000E+00  0.1428571E+00  0.1268276E-10  0.0000000E+00  0.1332612E-01
  0.7142857E+00  0.0000000E+00  0.1428571E+00 -0.2818087E-10  0.0000000E+00  0.1332612E-01
  0.7551020E+00  0.0000000E+00  0.1428571E+00 -0.5791895E-10  0.0000000E+00  0.1332612E-01
  0.7959183E+00  0.0000000E+00  0.1428571E+00 -0.8205784E-10  0.0000000E+00  0.1332612E-01
  0.8367347E+00  0.0000000E+00  0.1428571E+00 -0.1091639E-09  0.0000000E+00  0.1332612E-01
  0.8775510E+00  0.0000000E+00  0.1428571E+00 -0.1347616E-09  0.0000000E+00  0.1332612E-01
  0.9183673E+00  0.0000000E+00  0.1428571E+00 -0.1555530E-09  0.0000000E+00  0.1332612E-01
  0.9591837E+00  0.0000000E+00  0.1428571E+00 -0.1718247E-09  0.0000000E+00  0.1332612E-01
  0.1000000E+01  0.0000000E+00  0.1428571E+00 -0.1842455E-09  0.0000000E+00  0.1332612E-01
  0.1040816E+01  0.0000000E+00  0.1428571E+00 -0.1922793E-09  0.0000000E+00  0.1332612E-01
  0.1081633E+01  0.0000000E+00  0.1428571E+00 -0.1953162E-09  0.0000000E+00  0.1332612E-01
  0.1122449E+01  0.0000000E+00  0.1428571E+00 -0.1934618E-09  0.0000000E+00  0.1332612E-01
  0.1163265E+01  0.0000000E+00  0.1428571E+00 -0.1871763E-09  0.0000000E+00  0.1332612E-01
  0.1204082E+01  0.0000000E+00  0.1428571E+00 -0.1771803E-09  0.0000000E+00  0.1332612E-01
  0.1244898E+01  0.0000000E+00  0.1428571E+00 -0.1645227E-09  0.0000000E+00  0.1332612E-01
  0.1285714E+01  0.0000000E+00  0.1428571E+00 -0.1500668E-09  0.0000000E+00  0.1332612E-01
  0.1326531E+01  0.0000000E+00  0.1428571E+00 -0.1347042E-09  0.0000000E+00  0.1332612E-01
  0.1367347E+01  0.0000000E+00  0.1428571E+00 -0.1192453E-09  0.0000000E+00  0.1332612E-01
  0.1408163E+01  0.0000000E+00  0.1428571E+00 -0.1040947E-09  0.0000000E+00  0.1332612E-01
  0.1448980E+01  0.0000000E+00  0.1428571E+00 -0.9011826E-10  0.0000000E+00  0.1332612E-01
  0.1489796E+01  0.0000000E+00  0.1428571E+00 -0.8042643E-10  0.0000000E+00  0.1332612E-01
  0.1530612E+01  0.0000000E+00  0.1428571E+00 -0.7748474E-10  0.0000000E+00  0.1332612E-01
  0.1571429E+01  0.0000000E+00  0.1428571E+00 -0.7490985E-10  0.0000000E+00  0.1332612E-01
  0.1612245E+01  0.0000000E+00  0.1428571E+00 -0.7053037E-10  0.0000000E+00  0.1332612E-01
  0.1653061E+01  0.0000000E+00  0.1428571E+00 -0.7033162E-10  0.0000000E+00  0.1332612E-01
  0.1693878E+01  0.0000000E+00  0.1428571E+00 -0.7197362E-10  0.0000000E+00  0.1332612E-01
  0.1734694E+01  0.0000000E+00  0.1428571E+00 -0.7280473E-10  0.0000000E+00  0.1332612E-01
  0.1775510E+01  0.0000000E+00  0.1428571E+00 -0.7921033E-10  0.0000000E+00  0.1332612E-01
  0.1816326E+01  0.0000000E+00  0.1428571E+00 -0.9453635E-10  0.0000000E+00  0.1332612E-01
  0.1857143E+01  0.0000000E+00  0.1428571E+00 -0.1142874E-09  0.0000000E+00  0.1332612E-01
  0.1897959E+01  0.0000000E+00  0.1428571E+00 -0.1420090E-09  0.0000000E+00  0.1332612E-01
  0.1938776E+01  0.0000000E+00  0.1428571E+00 -0.1838761E-09  0.0000000E+00  0.1332612E-01
  0.1989796E+01  0.0000000E+00  0.1428571E+00 -0.2519750E-09  0.0000000E+00  0.1332612E-01
  0.2040816E-01  0.0000000E+00  0.1836735E+00 -0.2498170E-09  0.0000000E+00  0.1331573E-01
  0.6122449E-01  0.0000000E+00  0.1836735E+00 -0.2176364E-09  0.0000000E+00  0.1331573E-01
  0.1020408E+00  0.0000000E+00  0.1836735E+00 -0.6861692E-10  0.0000000E+00  0.1331573E-01
  0.1428571E+00  0.0000000E+00  0.1836735E+00 -0.2279078E-10  0.0000000E+00  0.1331573E-01
  0.1836735E+00  0.0000000E+00  0.1836735E+00  0.1353006E-10  0.0000000E+00  0.1331573E-01
  0.2244898E+00  0.0000000E+00  0.1836735E+00  0.4652535E-10  0.0000000E+00  0.1331573E-01
  0.2653061E+00  0.0000000E+00  0.1836735E+00  0.6055224E-10  0.0000000E+00  0.1331573E-01
  0.3061225E+00  0.0000000E+00  0.1836735E+00  0.7710082E-10  0.0000000E+00  0.1331573E-01
  0.3469388E+00  0.0000000E+00  0.1836735E+00  0.9189735E-10  0.0000000E+00  0.1331573E-01
  0.3877551E+00  0.0000000E+00  0.1836735E+00  0.9688130E-10  0.0000000E+00  0.1331573E-01
  0.4285714E+00  0.0000000E+00  0.1836735E+00  0.9838090E-10  0.0000000E+00  0.1331573E-01
  0.4693878E+00  0.0000000E+00  0.1836735E+00  0.9694762E-10  0.0000000E+00  0.1331573E-01
  0.5102041E+00  0.0000000E+00  0.1836735E+00  0.8955672E-10  0.0000000E+00  0.1331573E-01
  0.5510204E+00  0.0000000E+00  0.1836735E+00  0.7623741E-10  0.0000000E+00  0.1331573E-01
  0.5918368E+00  0.0000000E+00  0.1836735E+00  0.5255813E-10  0.0000000E+00  0.1331573E-01
  0.6326531E+00  0.0000000E+00  0.1836735E+00  0.1710241E-10  0.0000000E+00  0.1331573E-01
  0.6734694E+00  0.0000000E+00  0.1836735E+00  0.1033995E-10  0.0000000E+00  0.1331573E-01
  0.7142857E+00  0.0000000E+00  0.1836735E+00 -0.3190788E-10  0.0000000E+00  0.1331573E-01
  0.7551020E+00  0.0000000E+00  0.1836735E+00 -0.7030716E-10  0.0000000E+00  0.1331573E-01
  0.7959183E+00  0.0000000E+00  0.1836735E+00 -0.1010924E-09  0.0000000E+00  0.1331573E-01
  0.8367347E+00  0.0000000E+00  0.1836735E+00 -0.1317904E-09  0.0000000E+00  0.1331573E-01
  0.8775510E+00  0.0000000E+00  0.1836735E+00 -0.1613007E-09  0.0000000E+00  0.1331573E-01
  0.9183673E+00  0.0000000E+00  0.1836735E+00 -0.1865756E-09  0.0000000E+00  0.1331573E-01
  0.9591837E+00  0.0000000E+00  0.1836735E+00 -0.2065913E-09  0.0000000E+00  0.1331573E-01
  0.1000000E+01  0.0000000E+00  0.1836735E+00 -0.2215375E-09  0.0000000E+00  0.1331573E-01
  0.1040816E+01  0.0000000E+00  0.1836735E+00 -0.2310073E-09  0.0000000E+00  0.1331573E-01
  0.1081633E+01  0.0000000E+00  0.1836735E+00 -0.2343549E-09  0.0000000E+00  0.1331573E-01
  0.1122449E+01  0.0000000E+00  0.1836735E+00 -0.2317286E-09  0.0000000E+00  0.1331573E-01
  0.1163265E+01  0.0000000E+00  0.1836735E+00 -0.2237993E-09  0.0000000E+00  0.1331573E-01
  0.1204082E+01  0.0000000E+00  0.1836735E+00 -0.2114203E-09  0.0000000E+00  0.1331573E-01
  0.1244898E+01  0.0000000E+00  0.1836735E+00 -0.1958899E-09  0.0000000E+00  0.1331573E-01
  0.1285714E+01  0.0000000E+00  0.1836735E+00 -0.1782697E-09  0.0000000E+00  0.1331573E-01
  0.1326531E+01  0.0000000E+00  0.1836735E+00 -0.1595371E-09  0.0000000E+00  0.1331573E-01
  0.1367347E+01  0.0000000E+00  0.1836735E+00 -0.1407321E-09  0.0000000E+00  0.1331573E-01
  0.1408163E+01  0.0000000E+00  0.1836735E+00 -0.1223963E-09  0.0000000E+00  0.1331573E-01
  0.1448980E+01  0.0000000E+00  0.1836735E+00 -0.1054140E-09  0.0000000E+00  0.1331573E-01
  0.1489796E+01  0.0000000E+00  0.1836735E+00 -0.9412672E-10  0.0000000E+00  0.1331573E-01
  0.1530612E+01  0.0000000E+00  0.1836735E+00 -0.8990116E-10  0.0000000E+00  0.1331573E-01
  0.1571429E+01  0.0000000E+00  0.1836735E+00 -0.8594616E-10  0.0000000E+00  0.1331573E-01
  0.1612245E+01  0.0000000E+00  0.1836735E+00 -0.8108483E-10  0.0000000E+00  0.1331573E-01
  0.1653061E+01  0.0000000E+00  0.1836735E+00 -0.8081865E-10  0.0000000E+00  0.1331573E-01
  0.1693878E+01  0.0000000E+00  0.1836735E+00 -0.8169962E-10  0.0000000E+00  0.1331573E-01
  0.1734694E+01  0.0000000E+00  0.1836735E+00 -0.8205076E-10  0.0000000E+00  0.1331573E-01
  0.1775510E+01  0.0000000E+00  0.1836735E+00 -0.8798195E-10  0.0000000E+00  0.1331573E-01
  0.1816326E+01  0.0000000E+00  0.1836735E+00 -0.1016357E-09  0.0000000E+00  0.1331573E-01
  0.1857143E+01  0.0000000E+00  0.1836735E+00 -0.1179498E-09  0.0000000E+00  0.1331573E-01
  0.1897959E+01  0.0000000E+00  0.1836735E+00 -0.1389830E-09  0.0000000E+00  0.1331573E-01
  0.1938776E+01  0.0000000E+00  0.1836735E+00 -0.1679057E-09  0.0000000E+00  0.1331573E-01
  0.1989796E+01  0.0000000E+00  0.1836735E+00 -0.2122071E-09  0.0000000E+00  0.1331573E-01
  0.2040816E-01  0.0000000E+00  0.2244898E+00 -0.2206929E-09  0.0000000E+00  0.1329962E-01
  0.6122449E-01  0.0000000E+00  0.2244898E+00 -0.1950320E-09  0.0000000E+00  0.1329962E-01
  0.1020408E+00  0.0000000E+00  0.2244898E+00 -0.4818625E-10  0.0000000E+00  0.1329962E-01
  0.1428571E+00  0.0000000E+00  0.2244898E+00 -0.6296730E-11  0.0000000E+00  0.1329962E-01
  0.1836735E+00  0.0000000E+00  0.2244898E+00  0.3108831E-10  0.0000000E+00  0.1329962E-01
  0.2244898E+00  0.0000000E+00  0.2244898E+00  0.5836407E-10  0.0000000E+00  0.1329962E-01
  0.2653061E+00  0.0000000E+00  0.2244898E+00  0.7043651E-10  0.0000000E+00  0.1329962E-01
  0.3061225E+00  0.0000000E+00  0.2244898E+00  0.8797823E-10  0.0000000E+00  0.1329962E-01
  0.3469388E+00  0.0000000E+00  0.2244898E+00  0.1035598E-09  0.0000000E+00  0.1329962E-01
  0.3877551E+00  0.0000000E+00  0.2244898E+00  0.1078777E-09  0.0000000E+00  0.1329962E-01
  0.4285714E+00  0.0000000E+00  0.2244898E+00  0.1100851E-09  0.0000000E+00  0.1329962E-01
  0.4693878E+00  0.0000000E+00  0.2244898E+00  0.1070361E-09  0.0000000E+00  0.1329962E-01
  0.5102041E+00  0.0000000E+00  0.2244898E+00  0.9604706E-10  0.0000000E+00  0.1329962E-01
  0.5510204E+00  0.0000000E+00  0.2244898E+00  0.8097725E-10  0.0000000E+00  0.1329962E-01
  0.5918368E+00  0.0000000E+00  0.2244898E+00  0.6099103E-10  0.0000000E+00  0.1329962E-01
  0.6326531E+00  0.0000000E+00  0.2244898E+00  0.2353977E-10  0.0000000E+00  0.1329962E-01
  0.6734694E+00  0.0000000E+00  0.2244898E+00  0.1064559E-11  0.0000000E+00  0.1329962E-01
  0.7142857E+00  0.0000000E+00  0.2244898E+00 -0.3552748E-10  0.0000000E+00  0.1329962E-01
  0.7551020E+00  0.0000000E+00  0.2244898E+00 -0.7840077E-10  0.0000000E+00  0.1329962E-01
  0.7959183E+00  0.0000000E+00  0.2244898E+00 -0.1149236E-09  0.0000000E+00  0.1329962E-01
  0.8367347E+00  0.0000000E+00  0.2244898E+00 -0.1486799E-09  0.0000000E+00  0.1329962E-01
  0.8775510E+00  0.0000000E+00  0.2244898E+00 -0.1806282E-09  0.0000000E+00  0.1329962E-01
  0.9183673E+00  0.0000000E+00  0.2244898E+00 -0.2089311E-09  0.0000000E+00  0.1329962E-01
  0.9591837E+00  0.0000000E+00  0.2244898E+00 -0.2317459E-09  0.0000000E+00  0.1329962E-01
  0.1000000E+01  0.0000000E+00  0.2244898E+00 -0.2485170E-09  0.0000000E+00  0.1329962E-01
  0.1040816E+01  0.0000000E+00  0.2244898E+00 -0.2589235E-09  0.0000000E+00  0.1329962E-01
  0.1081633E+01  0.0000000E+00  0.2244898E+00 -0.2623813E-09  0.0000000E+00  0.1329962E-01
  0.1122449E+01  0.0000000E+00  0.2244898E+00 -0.2590055E-09  0.0000000E+00  0.1329962E-01
  0.1163265E+01  0.0000000E+00  0.2244898E+00 -0.2496396E-09  0.0000000E+00  0.1329962E-01
  0.1204082E+01  0.0000000E+00  0.2244898E+00 -0.2352221E-09  0.0000000E+00  0.1329962E-01
  0.1244898E+01  0.0000000E+00  0.2244898E+00 -0.2172614E-09  0.0000000E+00  0.1329962E-01
  0.1285714E+01  0.0000000E+00  0.2244898E+00 -0.1970783E-09  0.0000000E+00  0.1329962E-01
  0.1326531E+01  0.0000000E+00  0.2244898E+00 -0.1756720E-09  0.0000000E+00  0.1329962E-01
  0.1367347E+01  0.0000000E+00  0.2244898E+00 -0.1541930E-09  0.0000000E+00  0.1329962E-01
  0.1408163E+01  0.0000000E+00  0.2244898E+00 -0.1334287E-09  0.0000000E+00  0.1329962E-01
  0.1448980E+01  0.0000000E+00  0.2244898E+00 -0.1142228E-09  0.0000000E+00  0.1329962E-01
  0.1489796E+01  0.0000000E+00  0.2244898E+00 -0.1016968E-09  0.0000000E+00  0.1329962E-01
  0.1530612E+01  0.0000000E+00  0.2244898E+00 -0.9642984E-10  0.0000000E+00  0.1329962E-01
  0.1571429E+01  0.0000000E+00  0.2244898E+00 -0.9106601E-10  0.0000000E+00  0.1329962E-01
  0.1612245E+01  0.0000000E+00  0.2244898E+00 -0.8591332E-10  0.0000000E+00  0.1329962E-01
  0.1653061E+01  0.0000000E+00  0.2244898E+00 -0.8545132E-10  0.0000000E+00  0.1329962E-01
  0.1693878E+01  0.0000000E+00  0.2244898E+00 -0.8544269E-10  0.0000000E+00  0.1329962E-01
  0.1734694E+01  0.0000000E+00  0.2244898E+00 -0.8487524E-10  0.0000000E+00  0.1329962E-01
  0.1775510E+01  0.0000000E+00  0.2244898E+00 -0.8934550E-10  0.0000000E+00  0.1329962E-01
  0.1816326E+01  0.0000000E+00  0.2244898E+00 -0.9966818E-10  0.0000000E+00  0.1329962E-01
  0.1857143E+01  0.0000000E+00  0.2244898E+00 -0.1107075E-09  0.0000000E+00  0.1329962E-01
  0.1897959E+01  0.0000000E+00  0.2244898E+00 -0.1230787E-09  0.0000000E+00  0.1329962E-01
  0.1938776E+01  0.0000000E+00  0.2244898E+00 -0.1393951E-09  0.0000000E+00  0.1329962E-01
  0.1989796E+01  0.0000000E+00  0.2244898E+00 -0.1650424E-09  0.0000000E+00  0.1329962E-01
  0.2040816E-01  0.0000000E+00  0.2653061E+00 -0.1855212E-09  0.0000000E+00  0.1327645E-01
  0.6122449E-01  0.0000000E+00  0.2653061E+00 -0.1641469E-09  0.0000000E+00  0.1327645E-01
  0.1020408E+00  0.0000000E+00  0.2653061E+00 -0.2405407E-10  0.0000000E+00  0.1327645E-01
  0.1428571E+00  0.0000000E+00  0.2653061E+00  0.1509626E-10  0.0000000E+00  0.1327645E-01
  0.1836735E+00  0.0000000E+00  0.2653061E+00  0.4748018E-10  0.0000000E+00  0.1327645E-01
  0.2244898E+00  0.0000000E+00  0.2653061E+00  0.6652423E-10  0.0000000E+00  0.1327645E-01
  0.2653061E+00  0.0000000E+00  0.2653061E+00  0.7888438E-10  0.0000000E+00  0.1327645E-01
  0.3061225E+00  0.0000000E+00  0.2653061E+00  0.9505655E-10  0.0000000E+00  0.1327645E-01
  0.3469388E+00  0.0000000E+00  0.2653061E+00  0.1105882E-09  0.0000000E+00  0.1327645E-01
  0.3877551E+00  0.0000000E+00  0.2653061E+00  0.1139257E-09  0.0000000E+00  0.1327645E-01
  0.4285714E+00  0.0000000E+00  0.2653061E+00  0.1154563E-09  0.0000000E+00  0.1327645E-01
  0.4693878E+00  0.0000000E+00  0.2653061E+00  0.1102254E-09  0.0000000E+00  0.1327645E-01
  0.5102041E+00  0.0000000E+00  0.2653061E+00  0.1000244E-09  0.0000000E+00  0.1327645E-01
  0.5510204E+00  0.0000000E+00  0.2653061E+00  0.8157302E-10  0.0000000E+00  0.1327645E-01
  0.5918368E+00  0.0000000E+00  0.2653061E+00  0.6415439E-10  0.0000000E+00  0.1327645E-01
  0.6326531E+00  0.0000000E+00  0.2653061E+00  0.3097711E-10  0.0000000E+00  0.1327645E-01
  0.6734694E+00  0.0000000E+00  0.2653061E+00 -0.8713956E-11  0.0000000E+00  0.1327645E-01
  0.7142857E+00  0.0000000E+00  0.2653061E+00 -0.4034227E-10  0.0000000E+00  0.1327645E-01
  0.7551020E+00  0.0000000E+00  0.2653061E+00 -0.8300865E-10  0.0000000E+00  0.1327645E-01
  0.7959183E+00  0.0000000E+00  0.2653061E+00 -0.1232237E-09  0.0000000E+00  0.1327645E-01
  0.8367347E+00  0.0000000E+00  0.2653061E+00 -0.1597036E-09  0.0000000E+00  0.1327645E-01
  0.8775510E+00  0.0000000E+00  0.2653061E+00 -0.1932093E-09  0.0000000E+00  0.1327645E-01
  0.9183673E+00  0.0000000E+00  0.2653061E+00 -0.2232017E-09  0.0000000E+00  0.1327645E-01
  0.9591837E+00  0.0000000E+00  0.2653061E+00 -0.2477960E-09  0.0000000E+00  0.1327645E-01
  0.1000000E+01  0.0000000E+00  0.2653061E+00 -0.2657134E-09  0.0000000E+00  0.1327645E-01
  0.1040816E+01  0.0000000E+00  0.2653061E+00 -0.2765783E-09  0.0000000E+00  0.1327645E-01
  0.1081633E+01  0.0000000E+00  0.2653061E+00 -0.2799569E-09  0.0000000E+00  0.1327645E-01
  0.1122449E+01  0.0000000E+00  0.2653061E+00 -0.2758717E-09  0.0000000E+00  0.1327645E-01
  0.1163265E+01  0.0000000E+00  0.2653061E+00 -0.2652946E-09  0.0000000E+00  0.1327645E-01
  0.1204082E+01  0.0000000E+00  0.2653061E+00 -0.2492033E-09  0.0000000E+00  0.1327645E-01
  0.1244898E+01  0.0000000E+00  0.2653061E+00 -0.2292021E-09  0.0000000E+00  0.1327645E-01
  0.1285714E+01  0.0000000E+00  0.2653061E+00 -0.2069408E-09  0.0000000E+00  0.1327645E-01
  0.1326531E+01  0.0000000E+00  0.2653061E+00 -0.1835243E-09  0.0000000E+00  0.1327645E-01