title = "dataset feddes"
variables = "x", "y", "z", "vx", "vy", "vz"
zone t = "velocities, solution time =  2.100E+01 days        " i =   49, j =   49, k =    1,  f=point
  0.2040816E-01  0.0000000E+00  0.2040816E-01  0.2267038E-07  0.0000000E+00  0.2315972E-02
  0.6122449E-01  0.0000000E+00  0.2040816E-01  0.6329573E-07  0.0000000E+00  0.2316156E-02
  0.1020408E+00  0.0000000E+00  0.2040816E-01  0.9046511E-07  0.0000000E+00  0.2316487E-02
  0.1428571E+00  0.0000000E+00  0.2040816E-01  0.9604037E-07  0.0000000E+00  0.2316887E-02
  0.1836735E+00  0.0000000E+00  0.2040816E-01  0.7305390E-07  0.0000000E+00  0.2317251E-02
  0.2244898E+00  0.0000000E+00  0.2040816E-01  0.1618873E-07  0.0000000E+00  0.2317442E-02
  0.2653061E+00  0.0000000E+00  0.2040816E-01 -0.7784268E-07  0.0000000E+00  0.2317310E-02
  0.3061225E+00  0.0000000E+00  0.2040816E-01 -0.2100120E-06  0.0000000E+00  0.2316691E-02
  0.3469388E+00  0.0000000E+00  0.2040816E-01 -0.3788095E-06  0.0000000E+00  0.2315426E-02
  0.3877551E+00  0.0000000E+00  0.2040816E-01 -0.5802643E-06  0.0000000E+00  0.2313366E-02
  0.4285714E+00  0.0000000E+00  0.2040816E-01 -0.8081520E-06  0.0000000E+00  0.2310383E-02
  0.4693878E+00  0.0000000E+00  0.2040816E-01 -0.1054403E-05  0.0000000E+00  0.2306381E-02
  0.5102041E+00  0.0000000E+00  0.2040816E-01 -0.1309685E-05  0.0000000E+00  0.2301302E-02
  0.5510204E+00  0.0000000E+00  0.2040816E-01 -0.1564100E-05  0.0000000E+00  0.2295128E-02
  0.5918368E+00  0.0000000E+00  0.2040816E-01 -0.1807921E-05  0.0000000E+00  0.2287883E-02
  0.6326531E+00  0.0000000E+00  0.2040816E-01 -0.2032275E-05  0.0000000E+00  0.2279633E-02
  0.6734694E+00  0.0000000E+00  0.2040816E-01 -0.2229719E-05  0.0000000E+00  0.2270476E-02
  0.7142857E+00  0.0000000E+00  0.2040816E-01 -0.2394617E-05  0.0000000E+00  0.2260541E-02
  0.7551020E+00  0.0000000E+00  0.2040816E-01 -0.2523337E-05  0.0000000E+00  0.2249976E-02
  0.7959183E+00  0.0000000E+00  0.2040816E-01 -0.2614246E-05  0.0000000E+00  0.2238938E-02
  0.8367347E+00  0.0000000E+00  0.2040816E-01 -0.2667541E-05  0.0000000E+00  0.2227591E-02
  0.8775510E+00  0.0000000E+00  0.2040816E-01 -0.2684978E-05  0.0000000E+00  0.2216092E-02
  0.9183673E+00  0.0000000E+00  0.2040816E-01 -0.2669519E-05  0.0000000E+00  0.2204589E-02
  0.9591837E+00  0.0000000E+00  0.2040816E-01 -0.2624978E-05  0.0000000E+00  0.2193215E-02
  0.1000000E+01  0.0000000E+00  0.2040816E-01 -0.2555672E-05  0.0000000E+00  0.2182085E-02
  0.1040816E+01  0.0000000E+00  0.2040816E-01 -0.2466116E-05  0.0000000E+00  0.2171297E-02
  0.1081633E+01  0.0000000E+00  0.2040816E-01 -0.2360774E-05  0.0000000E+00  0.2160927E-02
  0.1122449E+01  0.0000000E+00  0.2040816E-01 -0.2243869E-05  0.0000000E+00  0.2151036E-02
  0.1163265E+01  0.0000000E+00  0.2040816E-01 -0.2119242E-05  0.0000000E+00  0.2141663E-02
  0.1204082E+01  0.0000000E+00  0.2040816E-01 -0.1990261E-05  0.0000000E+00  0.2132835E-02
  0.1244898E+01  0.0000000E+00  0.2040816E-01 -0.1859771E-05  0.0000000E+00  0.2124564E-02
  0.1285714E+01  0.0000000E+00  0.2040816E-01 -0.1730075E-05  0.0000000E+00  0.2116852E-02
  0.1326531E+01  0.0000000E+00  0.2040816E-01 -0.1602933E-05  0.0000000E+00  0.2109692E-02
  0.1367347E+01  0.0000000E+00  0.2040816E-01 -0.1479592E-05  0.0000000E+00  0.2103071E-02
  0.1408163E+01  0.0000000E+00  0.2040816E-01 -0.1360825E-05  0.0000000E+00  0.2096969E-02
  0.1448980E+01  0.0000000E+00  0.2040816E-01 -0.1246985E-05  0.0000000E+00  0.2091367E-02
  0.1489796E+01  0.0000000E+00  0.2040816E-01 -0.1138077E-05  0.0000000E+00  0.2086243E-02
  0.1530612E+01  0.0000000E+00  0.2040816E-01 -0.1033829E-05  0.0000000E+00  0.2081578E-02
  0.1571429E+01  0.0000000E+00  0.2040816E-01 -0.9337710E-06  0.0000000E+00  0.2077351E-02
  0.1612245E+01  0.0000000E+00  0.2040816E-01 -0.8373174E-06  0.0000000E+00  0.2073547E-02
  0.1653061E+01  0.0000000E+00  0.2040816E-01 -0.7438324E-06  0.0000000E+00  0.2070150E-02
  0.1693878E+01  0.0000000E+00  0.2040816E-01 -0.6526903E-06  0.0000000E+00  0.2067150E-02
  0.1734694E+01  0.0000000E+00  0.2040816E-01 -0.5633182E-06  0.0000000E+00  0.2064538E-02
  0.1775510E+01  0.0000000E+00  0.2040816E-01 -0.4752237E-06  0.0000000E+00  0.2062307E-02
  0.1816326E+01  0.0000000E+00  0.2040816E-01 -0.3880071E-06  0.0000000E+00  0.2060453E-02
  0.1857143E+01  0.0000000E+00  0.2040816E-01 -0.3013623E-06  0.0000000E+00  0.2058972E-02
  0.1897959E+01  0.0000000E+00  0.2040816E-01 -0.2150675E-06  0.0000000E+00  0.2057863E-02
  0.1938776E+01  0.0000000E+00  0.2040816E-01 -0.1289701E-06  0.0000000E+00  0.2057124E-02
  0.1989796E+01  0.0000000E+00  0.2040816E-01 -0.4296729E-07  0.0000000E+00  0.2056754E-02
  0.2040816E-01  0.0000000E+00  0.6122449E-01  0.7913749E-07  0.0000000E+00  0.2315839E-02
  0.6122449E-01  0.0000000E+00  0.6122449E-01  0.2215682E-06  0.0000000E+00  0.2316042E-02
  0.1020408E+00  0.0000000E+00  0.6122449E-01  0.3184584E-06  0.0000000E+00  0.2316407E-02
  0.1428571E+00  0.0000000E+00  0.6122449E-01  0.3422699E-06  0.0000000E+00  0.2316858E-02
  0.1836735E+00  0.0000000E+00  0.6122449E-01  0.2693839E-06  0.0000000E+00  0.2317284E-02
  0.2244898E+00  0.0000000E+00  0.6122449E-01  0.8174274E-07  0.0000000E+00  0.2317546E-02
  0.2653061E+00  0.0000000E+00  0.6122449E-01 -0.2318597E-06  0.0000000E+00  0.2317489E-02
  0.3061225E+00  0.0000000E+00  0.6122449E-01 -0.6747887E-06  0.0000000E+00  0.2316945E-02
  0.3469388E+00  0.0000000E+00  0.6122449E-01 -0.1241988E-05  0.0000000E+00  0.2315750E-02
  0.3877551E+00  0.0000000E+00  0.6122449E-01 -0.1920028E-05  0.0000000E+00  0.2313748E-02
  0.4285714E+00  0.0000000E+00  0.6122449E-01 -0.2687797E-05  0.0000000E+00  0.2310810E-02
  0.4693878E+00  0.0000000E+00  0.6122449E-01 -0.3517890E-05  0.0000000E+00  0.2306836E-02
  0.5102041E+00  0.0000000E+00  0.6122449E-01 -0.4378591E-05  0.0000000E+00  0.2301765E-02
  0.5510204E+00  0.0000000E+00  0.6122449E-01 -0.5236271E-05  0.0000000E+00  0.2295579E-02
  0.5918368E+00  0.0000000E+00  0.6122449E-01 -0.6057896E-05  0.0000000E+00  0.2288304E-02
  0.6326531E+00  0.0000000E+00  0.6122449E-01 -0.6813394E-05  0.0000000E+00  0.2280007E-02
  0.6734694E+00  0.0000000E+00  0.6122449E-01 -0.7477586E-05  0.0000000E+00  0.2270791E-02
  0.7142857E+00  0.0000000E+00  0.6122449E-01 -0.8031500E-05  0.0000000E+00  0.2260787E-02
  0.7551020E+00  0.0000000E+00  0.6122449E-01 -0.8462995E-05  0.0000000E+00  0.2250148E-02
  0.7959183E+00  0.0000000E+00  0.6122449E-01 -0.8766731E-05  0.0000000E+00  0.2239035E-02
  0.8367347E+00  0.0000000E+00  0.6122449E-01 -0.8943580E-05  0.0000000E+00  0.2227614E-02
  0.8775510E+00  0.0000000E+00  0.6122449E-01 -0.8999660E-05  0.0000000E+00  0.2216046E-02
  0.9183673E+00  0.0000000E+00  0.6122449E-01 -0.8945149E-05  0.0000000E+00  0.2204481E-02
  0.9591837E+00  0.0000000E+00  0.6122449E-01 -0.8793049E-05  0.0000000E+00  0.2193053E-02
  0.1000000E+01  0.0000000E+00  0.6122449E-01 -0.8558016E-05  0.0000000E+00  0.2181878E-02
  0.1040816E+01  0.0000000E+00  0.6122449E-01 -0.8255329E-05  0.0000000E+00  0.2171054E-02
  0.1081633E+01  0.0000000E+00  0.6122449E-01 -0.7900057E-05  0.0000000E+00  0.2160657E-02
  0.1122449E+01  0.0000000E+00  0.6122449E-01 -0.7506415E-05  0.0000000E+00  0.2150745E-02
  0.1163265E+01  0.0000000E+00  0.6122449E-01 -0.7087310E-05  0.0000000E+00  0.2141360E-02
  0.1204082E+01  0.0000000E+00  0.6122449E-01 -0.6654042E-05  0.0000000E+00  0.2132526E-02
  0.1244898E+01  0.0000000E+00  0.6122449E-01 -0.6216137E-05  0.0000000E+00  0.2124255E-02
  0.1285714E+01  0.0000000E+00  0.6122449E-01 -0.5781283E-05  0.0000000E+00  0.2116546E-02
  0.1326531E+01  0.0000000E+00  0.6122449E-01 -0.5355352E-05  0.0000000E+00  0.2109393E-02
  0.1367347E+01  0.0000000E+00  0.6122449E-01 -0.4942480E-05  0.0000000E+00  0.2102779E-02
  0.1408163E+01  0.0000000E+00  0.6122449E-01 -0.4545207E-05  0.0000000E+00  0.2096687E-02
  0.1448980E+01  0.0000000E+00  0.6122449E-01 -0.4164669E-05  0.0000000E+00  0.2091095E-02
  0.1489796E+01  0.0000000E+00  0.6122449E-01 -0.3800821E-05  0.0000000E+00  0.2085981E-02
  0.1530612E+01  0.0000000E+00  0.6122449E-01 -0.3452693E-05  0.0000000E+00  0.2081324E-02
  0.1571429E+01  0.0000000E+00  0.6122449E-01 -0.3118663E-05  0.0000000E+00  0.2077105E-02
  0.1612245E+01  0.0000000E+00  0.6122449E-01 -0.2796717E-05  0.0000000E+00  0.2073307E-02
  0.1653061E+01  0.0000000E+00  0.6122449E-01 -0.2484687E-05  0.0000000E+00  0.2069916E-02
  0.1693878E+01  0.0000000E+00  0.6122449E-01 -0.2180450E-05  0.0000000E+00  0.2066920E-02
  0.1734694E+01  0.0000000E+00  0.6122449E-01 -0.1882070E-05  0.0000000E+00  0.2064311E-02
  0.1775510E+01  0.0000000E+00  0.6122449E-01 -0.1587891E-05  0.0000000E+00  0.2062083E-02
  0.1816326E+01  0.0000000E+00  0.6122449E-01 -0.1296577E-05  0.0000000E+00  0.2060230E-02
  0.1857143E+01  0.0000000E+00  0.6122449E-01 -0.1007112E-05  0.0000000E+00  0.2058750E-02
  0.1897959E+01  0.0000000E+00  0.6122449E-01 -0.7187656E-06  0.0000000E+00  0.2057641E-02
  0.1938776E+01  0.0000000E+00  0.6122449E-01 -0.4310423E-06  0.0000000E+00  0.2056902E-02
  0.1989796E+01  0.0000000E+00  0.6122449E-01 -0.1436163E-06  0.0000000E+00  0.2056533E-02
  0.2040816E-01  0.0000000E+00  0.1020408E+00  0.1517138E-06  0.0000000E+00  0.2315438E-02
  0.6122449E-01  0.0000000E+00  0.1020408E+00  0.4267467E-06  0.0000000E+00  0.2315684E-02
  0.1020408E+00  0.0000000E+00  0.1020408E+00  0.6195330E-06  0.0000000E+00  0.2316133E-02
  0.1428571E+00  0.0000000E+00  0.1020408E+00  0.6802741E-06  0.0000000E+00  0.2316703E-02
  0.1836735E+00  0.0000000E+00  0.1020408E+00  0.5661499E-06  0.0000000E+00  0.2317278E-02
  0.2244898E+00  0.0000000E+00  0.1020408E+00  0.2442882E-06  0.0000000E+00  0.2317711E-02
  0.2653061E+00  0.0000000E+00  0.1020408E+00 -0.3058651E-06  0.0000000E+00  0.2317834E-02
  0.3061225E+00  0.0000000E+00  0.1020408E+00 -0.1090684E-05  0.0000000E+00  0.2317469E-02
  0.3469388E+00  0.0000000E+00  0.1020408E+00 -0.2101237E-05  0.0000000E+00  0.2316439E-02
  0.3877551E+00  0.0000000E+00  0.1020408E+00 -0.3313290E-05  0.0000000E+00  0.2314579E-02
  0.4285714E+00  0.0000000E+00  0.1020408E+00 -0.4688523E-05  0.0000000E+00  0.2311748E-02
  0.4693878E+00  0.0000000E+00  0.1020408E+00 -0.6177050E-05  0.0000000E+00  0.2307839E-02
  0.5102041E+00  0.0000000E+00  0.1020408E+00 -0.7721063E-05  0.0000000E+00  0.2302787E-02
  0.5510204E+00  0.0000000E+00  0.1020408E+00 -0.9259269E-05  0.0000000E+00  0.2296573E-02
  0.5918368E+00  0.0000000E+00  0.1020408E+00 -0.1073157E-04  0.0000000E+00  0.2289226E-02
  0.6326531E+00  0.0000000E+00  0.1020408E+00 -0.1208340E-04  0.0000000E+00  0.2280818E-02
  0.6734694E+00  0.0000000E+00  0.1020408E+00 -0.1326934E-04  0.0000000E+00  0.2271459E-02
  0.7142857E+00  0.0000000E+00  0.1020408E+00 -0.1425545E-04  0.0000000E+00  0.2261291E-02
  0.7551020E+00  0.0000000E+00  0.1020408E+00 -0.1502034E-04  0.0000000E+00  0.2250475E-02
  0.7959183E+00  0.0000000E+00  0.1020408E+00 -0.1555507E-04  0.0000000E+00  0.2239182E-02
  0.8367347E+00  0.0000000E+00  0.1020408E+00 -0.1586196E-04  0.0000000E+00  0.2227586E-02
  0.8775510E+00  0.0000000E+00  0.1020408E+00 -0.1595271E-04  0.0000000E+00  0.2215855E-02
  0.9183673E+00  0.0000000E+00  0.1020408E+00 -0.1584626E-04  0.0000000E+00  0.2204144E-02
  0.9591837E+00  0.0000000E+00  0.1020408E+00 -0.1556647E-04  0.0000000E+00  0.2192588E-02
  0.1000000E+01  0.0000000E+00  0.1020408E+00 -0.1513998E-04  0.0000000E+00  0.2181308E-02
  0.1040816E+01  0.0000000E+00  0.1020408E+00 -0.1459441E-04  0.0000000E+00  0.2170399E-02
  0.1081633E+01  0.0000000E+00  0.1020408E+00 -0.1395681E-04  0.0000000E+00  0.2159938E-02
  0.1122449E+01  0.0000000E+00  0.1020408E+00 -0.1325261E-04  0.0000000E+00  0.2149981E-02
  0.1163265E+01  0.0000000E+00  0.1020408E+00 -0.1250481E-04  0.0000000E+00  0.2140568E-02
  0.1204082E+01  0.0000000E+00  0.1020408E+00 -0.1173346E-04  0.0000000E+00  0.2131721E-02
  0.1244898E+01  0.0000000E+00  0.1020408E+00 -0.1095539E-04  0.0000000E+00  0.2123448E-02
  0.1285714E+01  0.0000000E+00  0.1020408E+00 -0.1018415E-04  0.0000000E+00  0.2115748E-02
  0.1326531E+01  0.0000000E+00  0.1020408E+00 -0.9430020E-05  0.0000000E+00  0.2108610E-02
  0.1367347E+01  0.0000000E+00  0.1020408E+00 -0.8700181E-05  0.0000000E+00  0.2102017E-02
  0.1408163E+01  0.0000000E+00  0.1020408E+00 -0.7998963E-05  0.0000000E+00  0.2095947E-02
  0.1448980E+01  0.0000000E+00  0.1020408E+00 -0.7328183E-05  0.0000000E+00  0.2090378E-02
  0.1489796E+01  0.0000000E+00  0.1020408E+00 -0.6687560E-05  0.0000000E+00  0.2085287E-02
  0.1530612E+01  0.0000000E+00  0.1020408E+00 -0.6075171E-05  0.0000000E+00  0.2080651E-02
  0.1571429E+01  0.0000000E+00  0.1020408E+00 -0.5487946E-05  0.0000000E+00  0.2076450E-02
  0.1612245E+01  0.0000000E+00  0.1020408E+00 -0.4922145E-05  0.0000000E+00  0.2072668E-02
  0.1653061E+01  0.0000000E+00  0.1020408E+00 -0.4373791E-05  0.0000000E+00  0.2069289E-02
  0.1693878E+01  0.0000000E+00  0.1020408E+00 -0.3839023E-05  0.0000000E+00  0.2066302E-02
  0.1734694E+01  0.0000000E+00  0.1020408E+00 -0.3314358E-05  0.0000000E+00  0.2063700E-02
  0.1775510E+01  0.0000000E+00  0.1020408E+00 -0.2796844E-05  0.0000000E+00  0.2061476E-02
  0.1816326E+01  0.0000000E+00  0.1020408E+00 -0.2284128E-05  0.0000000E+00  0.2059626E-02
  0.1857143E+01  0.0000000E+00  0.1020408E+00 -0.1774442E-05  0.0000000E+00  0.2058148E-02
  0.1897959E+01  0.0000000E+00  0.1020408E+00 -0.1266541E-05  0.0000000E+00  0.2057041E-02
  0.1938776E+01  0.0000000E+00  0.1020408E+00 -0.7596039E-06  0.0000000E+00  0.2056303E-02
  0.1989796E+01  0.0000000E+00  0.1020408E+00 -0.2531152E-06  0.0000000E+00  0.2055934E-02
  0.2040816E-01  0.0000000E+00  0.1428571E+00  0.2388656E-06  0.0000000E+00  0.2314674E-02
  0.6122449E-01  0.0000000E+00  0.1428571E+00  0.6758414E-06  0.0000000E+00  0.2314986E-02
  0.1020408E+00  0.0000000E+00  0.1428571E+00  0.9940737E-06  0.0000000E+00  0.2315566E-02
  0.1428571E+00  0.0000000E+00  0.1428571E+00  0.1121443E-05  0.0000000E+00  0.2316324E-02
  0.1836735E+00  0.0000000E+00  0.1428571E+00  0.9957000E-06  0.0000000E+00  0.2317132E-02
  0.2244898E+00  0.0000000E+00  0.1428571E+00  0.5687270E-06  0.0000000E+00  0.2317831E-02
  0.2653061E+00  0.0000000E+00  0.1428571E+00 -0.1899364E-06  0.0000000E+00  0.2318237E-02
  0.3061225E+00  0.0000000E+00  0.1428571E+00 -0.1290227E-05  0.0000000E+00  0.2318154E-02
  0.3469388E+00  0.0000000E+00  0.1428571E+00 -0.2719745E-05  0.0000000E+00  0.2317385E-02
  0.3877551E+00  0.0000000E+00  0.1428571E+00 -0.4443548E-05  0.0000000E+00  0.2315748E-02
  0.4285714E+00  0.0000000E+00  0.1428571E+00 -0.6405829E-05  0.0000000E+00  0.2313086E-02
  0.4693878E+00  0.0000000E+00  0.1428571E+00 -0.8533568E-05  0.0000000E+00  0.2309280E-02
  0.5102041E+00  0.0000000E+00  0.1428571E+00 -0.1074196E-04  0.0000000E+00  0.2304258E-02
  0.5510204E+00  0.0000000E+00  0.1428571E+00 -0.1294111E-04  0.0000000E+00  0.2298000E-02
  0.5918368E+00  0.0000000E+00  0.1428571E+00 -0.1504307E-04  0.0000000E+00  0.2290538E-02
  0.6326531E+00  0.0000000E+00  0.1428571E+00 -0.1696844E-04  0.0000000E+00  0.2281953E-02
  0.6734694E+00  0.0000000E+00  0.1428571E+00 -0.1865164E-04  0.0000000E+00  0.2272370E-02
  0.7142857E+00  0.0000000E+00  0.1428571E+00 -0.2004439E-04  0.0000000E+00  0.2261944E-02
  0.7551020E+00  0.0000000E+00  0.1428571E+00 -0.2111710E-04  0.0000000E+00  0.2250851E-02
  0.7959183E+00  0.0000000E+00  0.1428571E+00 -0.2185846E-04  0.0000000E+00  0.2239279E-02
  0.8367347E+00  0.0000000E+00  0.1428571E+00 -0.2227353E-04  0.0000000E+00  0.2227413E-02
  0.8775510E+00  0.0000000E+00  0.1428571E+00 -0.2238081E-04  0.0000000E+00  0.2215430E-02
  0.9183673E+00  0.0000000E+00  0.1428571E+00 -0.2220890E-04  0.0000000E+00  0.2203493E-02
  0.9591837E+00  0.0000000E+00  0.1428571E+00 -0.2179311E-04  0.0000000E+00  0.2191743E-02
  0.1000000E+01  0.0000000E+00  0.1428571E+00 -0.2117234E-04  0.0000000E+00  0.2180301E-02
  0.1040816E+01  0.0000000E+00  0.1428571E+00 -0.2038648E-04  0.0000000E+00  0.2169264E-02
  0.1081633E+01  0.0000000E+00  0.1428571E+00 -0.1947430E-04  0.0000000E+00  0.2158707E-02
  0.1122449E+01  0.0000000E+00  0.1428571E+00 -0.1847196E-04  0.0000000E+00  0.2148684E-02
  0.1163265E+01  0.0000000E+00  0.1428571E+00 -0.1741192E-04  0.0000000E+00  0.2139231E-02
  0.1204082E+01  0.0000000E+00  0.1428571E+00 -0.1632235E-04  0.0000000E+00  0.2130366E-02
  0.1244898E+01  0.0000000E+00  0.1428571E+00 -0.1522678E-04  0.0000000E+00  0.2122093E-02
  0.1285714E+01  0.0000000E+00  0.1428571E+00 -0.1414397E-04  0.0000000E+00  0.2114408E-02
  0.1326531E+01  0.0000000E+00  0.1428571E+00 -0.1308809E-04  0.0000000E+00  0.2107295E-02
  0.1367347E+01  0.0000000E+00  0.1428571E+00 -0.1206885E-04  0.0000000E+00  0.2100733E-02
  0.1408163E+01  0.0000000E+00  0.1428571E+00 -0.1109193E-04  0.0000000E+00  0.2094699E-02
  0.1448980E+01  0.0000000E+00  0.1428571E+00 -0.1015946E-04  0.0000000E+00  0.2089167E-02
  0.1489796E+01  0.0000000E+00  0.1428571E+00 -0.9270576E-05  0.0000000E+00  0.2084111E-02
  0.1530612E+01  0.0000000E+00  0.1428571E+00 -0.8422112E-05  0.0000000E+00  0.2079507E-02
  0.1571429E+01  0.0000000E+00  0.1428571E+00 -0.7609321E-05  0.0000000E+00  0.2075334E-02
  0.1612245E+01  0.0000000E+00  0.1428571E+00 -0.6826566E-05  0.0000000E+00  0.2071574E-02
  0.1653061E+01  0.0000000E+00  0.1428571E+00 -0.6067960E-05  0.0000000E+00  0.2068214E-02
  0.1693878E+01  0.0000000E+00  0.1428571E+00 -0.5327875E-05  0.0000000E+00  0.2065241E-02
  0.1734694E+01  0.0000000E+00  0.1428571E+00 -0.4601308E-05  0.0000000E+00  0.2062649E-02
  0.1775510E+01  0.0000000E+00  0.1428571E+00 -0.3884087E-05  0.0000000E+00  0.2060432E-02
  0.1816326E+01  0.0000000E+00  0.1428571E+00 -0.3172951E-05  0.0000000E+00  0.2058587E-02
  0.1857143E+01  0.0000000E+00  0.1428571E+00 -0.2465504E-05  0.0000000E+00  0.2057111E-02
  0.1897959E+01  0.0000000E+00  0.1428571E+00 -0.1760115E-05  0.0000000E+00  0.2056005E-02
  0.1938776E+01  0.0000000E+00  0.1428571E+00 -0.1055757E-05  0.0000000E+00  0.2055268E-02
  0.1989796E+01  0.0000000E+00  0.1428571E+00 -0.3518401E-06  0.0000000E+00  0.2054899E-02
  0.2040816E-01  0.0000000E+00  0.1836735E+00  0.3495399E-06  0.0000000E+00  0.2313432E-02
  0.6122449E-01  0.0000000E+00  0.1836735E+00  0.9950617E-06  0.0000000E+00  0.2313836E-02
  0.1020408E+00  0.0000000E+00  0.1836735E+00  0.1483880E-05  0.0000000E+00  0.2314595E-02
  0.1428571E+00  0.0000000E+00  0.1836735E+00  0.1720384E-05  0.0000000E+00  0.2315609E-02
  0.1836735E+00  0.0000000E+00  0.1836735E+00  0.1621582E-05  0.0000000E+00  0.2316739E-02
  0.2244898E+00  0.0000000E+00  0.1836735E+00  0.1122677E-05  0.0000000E+00  0.2317804E-02
  0.2653061E+00  0.0000000E+00  0.1836735E+00  0.1819226E-06  0.0000000E+00  0.2318601E-02
  0.3061225E+00  0.0000000E+00  0.1836735E+00 -0.1215247E-05  0.0000000E+00  0.2318907E-02
  0.3469388E+00  0.0000000E+00  0.1836735E+00 -0.3053467E-05  0.0000000E+00  0.2318500E-02
  0.3877551E+00  0.0000000E+00  0.1836735E+00 -0.5286751E-05  0.0000000E+00  0.2317172E-02
  0.4285714E+00  0.0000000E+00  0.1836735E+00 -0.7840510E-05  0.0000000E+00  0.2314744E-02
  0.4693878E+00  0.0000000E+00  0.1836735E+00 -0.1061642E-04  0.0000000E+00  0.2311081E-02
  0.5102041E+00  0.0000000E+00  0.1836735E+00 -0.1349989E-04  0.0000000E+00  0.2306099E-02
  0.5510204E+00  0.0000000E+00  0.1836735E+00 -0.1636944E-04  0.0000000E+00  0.2299777E-02
  0.5918368E+00  0.0000000E+00  0.1836735E+00 -0.1910663E-04  0.0000000E+00  0.2292155E-02
  0.6326531E+00  0.0000000E+00  0.1836735E+00 -0.2160533E-04  0.0000000E+00  0.2283325E-02
  0.6734694E+00  0.0000000E+00  0.1836735E+00 -0.2377891E-04  0.0000000E+00  0.2273432E-02
  0.7142857E+00  0.0000000E+00  0.1836735E+00 -0.2556492E-04  0.0000000E+00  0.2262651E-02
  0.7551020E+00  0.0000000E+00  0.1836735E+00 -0.2692663E-04  0.0000000E+00  0.2251180E-02
  0.7959183E+00  0.0000000E+00  0.1836735E+00 -0.2785212E-04  0.0000000E+00  0.2239227E-02
  0.8367347E+00  0.0000000E+00  0.1836735E+00 -0.2835119E-04  0.0000000E+00  0.2226995E-02
  0.8775510E+00  0.0000000E+00  0.1836735E+00 -0.2845116E-04  0.0000000E+00  0.2214674E-02
  0.9183673E+00  0.0000000E+00  0.1836735E+00 -0.2819207E-04  0.0000000E+00  0.2202436E-02
  0.9591837E+00  0.0000000E+00  0.1836735E+00 -0.2762209E-04  0.0000000E+00  0.2190429E-02
  0.1000000E+01  0.0000000E+00  0.1836735E+00 -0.2679334E-04  0.0000000E+00  0.2178775E-02
  0.1040816E+01  0.0000000E+00  0.1836735E+00 -0.2575847E-04  0.0000000E+00  0.2167572E-02
  0.1081633E+01  0.0000000E+00  0.1836735E+00 -0.2456813E-04  0.0000000E+00  0.2156892E-02
  0.1122449E+01  0.0000000E+00  0.1836735E+00 -0.2326902E-04  0.0000000E+00  0.2146786E-02
  0.1163265E+01  0.0000000E+00  0.1836735E+00 -0.2190277E-04  0.0000000E+00  0.2137283E-02
  0.1204082E+01  0.0000000E+00  0.1836735E+00 -0.2050516E-04  0.0000000E+00  0.2128398E-02
  0.1244898E+01  0.0000000E+00  0.1836735E+00 -0.1910588E-04  0.0000000E+00  0.2120131E-02
  0.1285714E+01  0.0000000E+00  0.1836735E+00 -0.1772840E-04  0.0000000E+00  0.2112468E-02
  0.1326531E+01  0.0000000E+00  0.1836735E+00 -0.1639020E-04  0.0000000E+00  0.2105392E-02
  0.1367347E+01  0.0000000E+00  0.1836735E+00 -0.1510305E-04  0.0000000E+00  0.2098876E-02
  0.1408163E+01  0.0000000E+00  0.1836735E+00 -0.1387348E-04  0.0000000E+00  0.2092892E-02
  0.1448980E+01  0.0000000E+00  0.1836735E+00 -0.1270343E-04  0.0000000E+00  0.2087410E-02
  0.1489796E+01  0.0000000E+00  0.1836735E+00 -0.1159098E-04  0.0000000E+00  0.2082401E-02
  0.1530612E+01  0.0000000E+00  0.1836735E+00 -0.1053129E-04  0.0000000E+00  0.2077840E-02
  0.1571429E+01  0.0000000E+00  0.1836735E+00 -0.9517521E-05  0.0000000E+00  0.2073704E-02
  0.1612245E+01  0.0000000E+00  0.1836735E+00 -0.8541824E-05  0.0000000E+00  0.2069975E-02
  0.1653061E+01  0.0000000E+00  0.1836735E+00 -0.7596172E-05  0.0000000E+00  0.2066637E-02
  0.1693878E+01  0.0000000E+00  0.1836735E+00 -0.6673043E-05  0.0000000E+00  0.2063682E-02
  0.1734694E+01  0.0000000E+00  0.1836735E+00 -0.5765885E-05  0.0000000E+00  0.2061102E-02
  0.1775510E+01  0.0000000E+00  0.1836735E+00 -0.4869365E-05  0.0000000E+00  0.2058893E-02
  0.1816326E+01  0.0000000E+00  0.1836735E+00 -0.3979419E-05  0.0000000E+00  0.2057053E-02
  0.1857143E+01  0.0000000E+00  0.1836735E+00 -0.3093171E-05  0.0000000E+00  0.2055580E-02
  0.1897959E+01  0.0000000E+00  0.1836735E+00 -0.2208752E-05  0.0000000E+00  0.2054475E-02
  0.1938776E+01  0.0000000E+00  0.1836735E+00 -0.1325085E-05  0.0000000E+00  0.2053738E-02
  0.1989796E+01  0.0000000E+00  0.1836735E+00 -0.4416490E-06  0.0000000E+00  0.2053370E-02
  0.2040816E-01  0.0000000E+00  0.2244898E+00  0.4923861E-06  0.0000000E+00  0.2311582E-02
  0.6122449E-01  0.0000000E+00  0.2244898E+00  0.1409876E-05  0.0000000E+00  0.2312105E-02
  0.1020408E+00  0.0000000E+00  0.2244898E+00  0.2129827E-05  0.0000000E+00  0.2313093E-02
  0.1428571E+00  0.0000000E+00  0.2244898E+00  0.2530987E-05  0.0000000E+00  0.2314439E-02
  0.1836735E+00  0.0000000E+00  0.2244898E+00  0.2507256E-05  0.0000000E+00  0.2315984E-02
  0.2244898E+00  0.0000000E+00  0.2244898E+00  0.1974683E-05  0.0000000E+00  0.2317525E-02
  0.2653061E+00  0.0000000E+00  0.2244898E+00  0.8779006E-06  0.0000000E+00  0.2318829E-02
  0.3061225E+00  0.0000000E+00  0.2244898E+00 -0.8040694E-06  0.0000000E+00  0.2319643E-02
  0.3469388E+00  0.0000000E+00  0.2244898E+00 -0.3053676E-05  0.0000000E+00  0.2319710E-02
  0.3877551E+00  0.0000000E+00  0.2244898E+00 -0.5813267E-05  0.0000000E+00  0.2318788E-02
  0.4285714E+00  0.0000000E+00  0.2244898E+00 -0.8987206E-05  0.0000000E+00  0.2316668E-02
  0.4693878E+00  0.0000000E+00  0.2244898E+00 -0.1244806E-04  0.0000000E+00  0.2313190E-02
  0.5102041E+00  0.0000000E+00  0.2244898E+00 -0.1604659E-04  0.0000000E+00  0.2308259E-02
  0.5510204E+00  0.0000000E+00  0.2244898E+00 -0.1962449E-04  0.0000000E+00  0.2301852E-02
  0.5918368E+00  0.0000000E+00  0.2244898E+00 -0.2302813E-04  0.0000000E+00  0.2294016E-02
  0.6326531E+00  0.0000000E+00  0.2244898E+00 -0.2612108E-04  0.0000000E+00  0.2284865E-02
  0.6734694E+00  0.0000000E+00  0.2244898E+00 -0.2879386E-04  0.0000000E+00  0.2274566E-02
  0.7142857E+00  0.0000000E+00  0.2244898E+00 -0.3096971E-04  0.0000000E+00  0.2263323E-02
  0.7551020E+00  0.0000000E+00  0.2244898E+00 -0.3260618E-04  0.0000000E+00  0.2251366E-02
  0.7959183E+00  0.0000000E+00  0.2244898E+00 -0.3369311E-04  0.0000000E+00  0.2238926E-02
  0.8367347E+00  0.0000000E+00  0.2244898E+00 -0.3424802E-04  0.0000000E+00  0.2226230E-02
  0.8775510E+00  0.0000000E+00  0.2244898E+00 -0.3431002E-04  0.0000000E+00  0.2213484E-02
  0.9183673E+00  0.0000000E+00  0.2244898E+00 -0.3393333E-04  0.0000000E+00  0.2200872E-02
  0.9591837E+00  0.0000000E+00  0.2244898E+00 -0.3318113E-04  0.0000000E+00  0.2188548E-02
  0.1000000E+01  0.0000000E+00  0.2244898E+00 -0.3212030E-04  0.0000000E+00  0.2176637E-02
  0.1040816E+01  0.0000000E+00  0.2244898E+00 -0.3081729E-04  0.0000000E+00  0.2165234E-02
  0.1081633E+01  0.0000000E+00  0.2244898E+00 -0.2933504E-04  0.0000000E+00  0.2154409E-02
  0.1122449E+01  0.0000000E+00  0.2244898E+00 -0.2773091E-04  0.0000000E+00  0.2144207E-02
  0.1163265E+01  0.0000000E+00  0.2244898E+00 -0.2605546E-04  0.0000000E+00  0.2134651E-02
  0.1204082E+01  0.0000000E+00  0.2244898E+00 -0.2435174E-04  0.0000000E+00  0.2125749E-02
  0.1244898E+01  0.0000000E+00  0.2244898E+00 -0.2265511E-04  0.0000000E+00  0.2117494E-02
  0.1285714E+01  0.0000000E+00  0.2244898E+00 -0.2099324E-04  0.0000000E+00  0.2109867E-02
  0.1326531E+01  0.0000000E+00  0.2244898E+00 -0.1938644E-04  0.0000000E+00  0.2102841E-02
  0.1367347E+01  0.0000000E+00  0.2244898E+00 -0.1784798E-04  0.0000000E+00  0.2096386E-02
  0.1408163E+01  0.0000000E+00  0.2244898E+00 -0.1638470E-04  0.0000000E+00  0.2090467E-02
  0.1448980E+01  0.0000000E+00  0.2244898E+00 -0.1499775E-04  0.0000000E+00  0.2085049E-02
  0.1489796E+01  0.0000000E+00  0.2244898E+00 -0.1368357E-04  0.0000000E+00  0.2080102E-02
  0.1530612E+01  0.0000000E+00  0.2244898E+00 -0.1243501E-04  0.0000000E+00  0.2075595E-02
  0.1571429E+01  0.0000000E+00  0.2244898E+00 -0.1124259E-04  0.0000000E+00  0.2071504E-02
  0.1612245E+01  0.0000000E+00  0.2244898E+00 -0.1009575E-04  0.0000000E+00  0.2067811E-02
  0.1653061E+01  0.0000000E+00  0.2244898E+00 -0.8983963E-05  0.0000000E+00  0.2064502E-02
  0.1693878E+01  0.0000000E+00  0.2244898E+00 -0.7897615E-05  0.0000000E+00  0.2061566E-02
  0.1734694E+01  0.0000000E+00  0.2244898E+00 -0.6828544E-05  0.0000000E+00  0.2059000E-02
  0.1775510E+01  0.0000000E+00  0.2244898E+00 -0.5770301E-05  0.0000000E+00  0.2056799E-02
  0.1816326E+01  0.0000000E+00  0.2244898E+00 -0.4718161E-05  0.0000000E+00  0.2054963E-02
  0.1857143E+01  0.0000000E+00  0.2244898E+00 -0.3668938E-05  0.0000000E+00  0.2053492E-02
  0.1897959E+01  0.0000000E+00  0.2244898E+00 -0.2620724E-05  0.0000000E+00  0.2052388E-02
  0.1938776E+01  0.0000000E+00  0.2244898E+00 -0.1572574E-05  0.0000000E+00  0.2051651E-02
  0.1989796E+01  0.0000000E+00  0.2244898E+00 -0.5242051E-06  0.0000000E+00  0.2051283E-02
  0.2040816E-01  0.0000000E+00  0.2653061E+00  0.6762252E-06  0.0000000E+00  0.2308976E-02
  0.6122449E-01  0.0000000E+00  0.2653061E+00  0.1946389E-05  0.0000000E+00  0.2309645E-02
  0.1020408E+00  0.0000000E+00  0.2653061E+00  0.2974193E-05  0.0000000E+00  0.2310920E-02
  0.1428571E+00  0.0000000E+00  0.2653061E+00  0.3609721E-05  0.0000000E+00  0.2312679E-02
  0.1836735E+00  0.0000000E+00  0.2653061E+00  0.3720369E-05  0.0000000E+00  0.2314743E-02
  0.2244898E+00  0.0000000E+00  0.2653061E+00  0.3199375E-05  0.0000000E+00  0.2316882E-02
  0.2653061E+00  0.0000000E+00  0.2653061E+00  0.1974223E-05  0.0000000E+00  0.2318828E-02
  0.3061225E+00  0.0000000E+00  0.2653061E+00  0.1468356E-07  0.0000000E+00  0.2320287E-02
  0.3469388E+00  0.0000000E+00  0.2653061E+00 -0.2660878E-05  0.0000000E+00  0.2320958E-02
  0.3877551E+00  0.0000000E+00  0.2653061E+00 -0.5982441E-05  0.0000000E+00  0.2320553E-02
  0.4285714E+00  0.0000000E+00  0.2653061E+00 -0.9830095E-05  0.0000000E+00  0.2318825E-02
  0.4693878E+00  0.0000000E+00  0.2653061E+00 -0.1404164E-04  0.0000000E+00  0.2315584E-02
  0.5102041E+00  0.0000000E+00  0.2653061E+00 -0.1842580E-04  0.0000000E+00  0.2310716E-02
  0.5510204E+00  0.0000000E+00  0.2653061E+00 -0.2277949E-04  0.0000000E+00  0.2304196E-02
  0.5918368E+00  0.0000000E+00  0.2653061E+00 -0.2690658E-04  0.0000000E+00  0.2296084E-02
  0.6326531E+00  0.0000000E+00  0.2653061E+00 -0.3063506E-04  0.0000000E+00  0.2286519E-02
  0.6734694E+00  0.0000000E+00  0.2653061E+00 -0.3382980E-04  0.0000000E+00  0.2275703E-02
  0.7142857E+00  0.0000000E+00  0.2653061E+00 -0.3639958E-04  0.0000000E+00  0.2263879E-02
  0.7551020E+00  0.0000000E+00  0.2653061E+00 -0.3829824E-04  0.0000000E+00  0.2251313E-02
  0.7959183E+00  0.0000000E+00  0.2653061E+00 -0.3952092E-04  0.0000000E+00  0.2238272E-02
  0.8367347E+00  0.0000000E+00  0.2653061E+00 -0.4009706E-04  0.0000000E+00  0.2225008E-02
  0.8775510E+00  0.0000000E+00  0.2653061E+00 -0.4008178E-04  0.0000000E+00  0.2211748E-02
  0.9183673E+00  0.0000000E+00  0.2653061E+00 -0.3954714E-04  0.0000000E+00  0.2198689E-02
  0.9591837E+00  0.0000000E+00  0.2653061E+00 -0.3857430E-04  0.0000000E+00  0.2185991E-02
  0.1000000E+01  0.0000000E+00  0.2653061E+00 -0.3724706E-04  0.0000000E+00  0.2173780E-02
  0.1040816E+01  0.0000000E+00  0.2653061E+00 -0.3564697E-04  0.0000000E+00  0.2162150E-02
  0.1081633E+01  0.0000000E+00  0.2653061E+00 -0.3384995E-04  0.0000000E+00  0.2151163E-02
  0.1122449E+01  0.0000000E+00  0.2653061E+00 -0.3192418E-04  0.0000000E+00  0.2140857E-02
  0.1163265E+01  0.0000000E+00  0.2653061E+00 -0.2992897E-04  0.0000000E+00  0.2131250E-02
  0.1204082E+01  0.0000000E+00  0.2653061E+00 -0.2791428E-04  0.0000000E+00  0.2122339E-02
  0.1244898E+01  0.0000000E+00  0.2653061E+00 -0.2592068E-04  0.0000000E+00  0.2114108E-02
  0.1285714E+01  0.0000000E+00  0.2653061E+00 -0.2397957E-04  0.0000000E+00  0.2106532E-02
  0.1326531E+01  0.0000000E+00  0.2653061E+00 -0.2211352E-04  0.0000000E+00  0.2099575E-02