title = "dataset water"
variables = "x", "y", "z", "vx", "vy", "vz"
zone t = "velocities, solution time =  4.400E+01 days        " i =   99, j =   99, k =    1,  f=point
  0.5050505E-02  0.0000000E+00  0.5050505E-02  0.8131543E-07  0.0000000E+00  0.8521425E-04
  0.1515152E-01  0.0000000E+00  0.5050505E-02  0.2443069E-06  0.0000000E+00  0.8554424E-04
  0.2525252E-01  0.0000000E+00  0.5050505E-02  0.4083889E-06  0.0000000E+00  0.8620573E-04
  0.3535353E-01  0.0000000E+00  0.5050505E-02  0.5743055E-06  0.0000000E+00  0.8720175E-04
  0.4545455E-01  0.0000000E+00  0.5050505E-02  0.7428190E-06  0.0000000E+00  0.8853689E-04
  0.5555556E-01  0.0000000E+00  0.5050505E-02  0.9147160E-06  0.0000000E+00  0.9021737E-04
  0.6565657E-01  0.0000000E+00  0.5050505E-02  0.1090813E-05  0.0000000E+00  0.9225109E-04
  0.7575758E-01  0.0000000E+00  0.5050505E-02  0.1271966E-05  0.0000000E+00  0.9464767E-04
  0.8585858E-01  0.0000000E+00  0.5050505E-02  0.1459075E-05  0.0000000E+00  0.9741859E-04
  0.9595960E-01  0.0000000E+00  0.5050505E-02  0.1653094E-05  0.0000000E+00  0.1005773E-03
  0.1060606E+00  0.0000000E+00  0.5050505E-02  0.1855042E-05  0.0000000E+00  0.1041392E-03
  0.1161616E+00  0.0000000E+00  0.5050505E-02  0.2066015E-05  0.0000000E+00  0.1081221E-03
  0.1262626E+00  0.0000000E+00  0.5050505E-02  0.2287195E-05  0.0000000E+00  0.1125462E-03
  0.1363636E+00  0.0000000E+00  0.5050505E-02  0.2519866E-05  0.0000000E+00  0.1174341E-03
  0.1464646E+00  0.0000000E+00  0.5050505E-02  0.2765432E-05  0.0000000E+00  0.1228115E-03
  0.1565657E+00  0.0000000E+00  0.5050505E-02  0.3025434E-05  0.0000000E+00  0.1287072E-03
  0.1666667E+00  0.0000000E+00  0.5050505E-02  0.3301577E-05  0.0000000E+00  0.1351534E-03
  0.1767677E+00  0.0000000E+00  0.5050505E-02  0.3595753E-05  0.0000000E+00  0.1421861E-03
  0.1868687E+00  0.0000000E+00  0.5050505E-02  0.3910077E-05  0.0000000E+00  0.1498459E-03
  0.1969697E+00  0.0000000E+00  0.5050505E-02  0.4246928E-05  0.0000000E+00  0.1581779E-03
  0.2070707E+00  0.0000000E+00  0.5050505E-02  0.4609001E-05  0.0000000E+00  0.1672331E-03
  0.2171717E+00  0.0000000E+00  0.5050505E-02  0.4999372E-05  0.0000000E+00  0.1770685E-03
  0.2272727E+00  0.0000000E+00  0.5050505E-02  0.5421586E-05  0.0000000E+00  0.1877484E-03
  0.2373737E+00  0.0000000E+00  0.5050505E-02  0.5879777E-05  0.0000000E+00  0.1993458E-03
  0.2474747E+00  0.0000000E+00  0.5050505E-02  0.6378822E-05  0.0000000E+00  0.2119431E-03
  0.2575758E+00  0.0000000E+00  0.5050505E-02  0.6924579E-05  0.0000000E+00  0.2256352E-03
  0.2676768E+00  0.0000000E+00  0.5050505E-02  0.7524207E-05  0.0000000E+00  0.2405309E-03
  0.2777778E+00  0.0000000E+00  0.5050505E-02  0.8186654E-05  0.0000000E+00  0.2567570E-03
  0.2878788E+00  0.0000000E+00  0.5050505E-02  0.8923377E-05  0.0000000E+00  0.2744631E-03
  0.2979798E+00  0.0000000E+00  0.5050505E-02  0.9749422E-05  0.0000000E+00  0.2938280E-03
  0.3080808E+00  0.0000000E+00  0.5050505E-02  0.1068505E-04  0.0000000E+00  0.3150697E-03
  0.3181818E+00  0.0000000E+00  0.5050505E-02  0.1175824E-04  0.0000000E+00  0.3384599E-03
  0.3282828E+00  0.0000000E+00  0.5050505E-02  0.1300843E-04  0.0000000E+00  0.3643447E-03
  0.3383838E+00  0.0000000E+00  0.5050505E-02  0.1449254E-04  0.0000000E+00  0.3931777E-03
  0.3484848E+00  0.0000000E+00  0.5050505E-02  0.1629475E-04  0.0000000E+00  0.4255693E-03
  0.3585859E+00  0.0000000E+00  0.5050505E-02  0.1854421E-04  0.0000000E+00  0.4623678E-03
  0.3686869E+00  0.0000000E+00  0.5050505E-02  0.2145117E-04  0.0000000E+00  0.5048019E-03
  0.3787879E+00  0.0000000E+00  0.5050505E-02  0.2539290E-04  0.0000000E+00  0.5547592E-03
  0.3888889E+00  0.0000000E+00  0.5050505E-02  0.3115405E-04  0.0000000E+00  0.6154325E-03
  0.3989899E+00  0.0000000E+00  0.5050505E-02  0.4071123E-04  0.0000000E+00  0.6931193E-03
  0.4090909E+00  0.0000000E+00  0.5050505E-02  0.6016356E-04  0.0000000E+00  0.8032341E-03
  0.4191919E+00  0.0000000E+00  0.5050505E-02  0.8514324E-04  0.0000000E+00  0.9639944E-03
  0.4292929E+00  0.0000000E+00  0.5050505E-02  0.4697700E-04  0.0000000E+00  0.1112292E-02
  0.4393939E+00  0.0000000E+00  0.5050505E-02  0.5704917E-04  0.0000000E+00  0.1231562E-02
  0.4494950E+00  0.0000000E+00  0.5050505E-02  0.7033988E-04  0.0000000E+00  0.1379696E-02
  0.4595959E+00  0.0000000E+00  0.5050505E-02  0.1126402E-03  0.0000000E+00  0.1596476E-02
  0.4696970E+00  0.0000000E+00  0.5050505E-02 -0.1739405E-04  0.0000000E+00  0.1709595E-02
  0.4797980E+00  0.0000000E+00  0.5050505E-02 -0.1350661E-04  0.0000000E+00  0.1671809E-02
  0.4898990E+00  0.0000000E+00  0.5050505E-02 -0.9520695E-04  0.0000000E+00  0.1542142E-02
  0.5000000E+00  0.0000000E+00  0.5050505E-02 -0.6254614E-04  0.0000000E+00  0.1355850E-02
  0.5101010E+00  0.0000000E+00  0.5050505E-02 -0.5193147E-04  0.0000000E+00  0.1222885E-02
  0.5202020E+00  0.0000000E+00  0.5050505E-02 -0.5459933E-04  0.0000000E+00  0.1101001E-02
  0.5303030E+00  0.0000000E+00  0.5050505E-02 -0.4951298E-04  0.0000000E+00  0.9834586E-03
  0.5404040E+00  0.0000000E+00  0.5050505E-02 -0.4352550E-04  0.0000000E+00  0.8796919E-03
  0.5505050E+00  0.0000000E+00  0.5050505E-02 -0.3894623E-04  0.0000000E+00  0.7887040E-03
  0.5606061E+00  0.0000000E+00  0.5050505E-02 -0.3272980E-04  0.0000000E+00  0.7103528E-03
  0.5707071E+00  0.0000000E+00  0.5050505E-02 -0.2791055E-04  0.0000000E+00  0.6445879E-03
  0.5808081E+00  0.0000000E+00  0.5050505E-02 -0.2429307E-04  0.0000000E+00  0.5883557E-03
  0.5909091E+00  0.0000000E+00  0.5050505E-02 -0.2146984E-04  0.0000000E+00  0.5393519E-03
  0.6010101E+00  0.0000000E+00  0.5050505E-02 -0.1917155E-04  0.0000000E+00  0.4960590E-03
  0.6111111E+00  0.0000000E+00  0.5050505E-02 -0.1724000E-04  0.0000000E+00  0.4574522E-03
  0.6212121E+00  0.0000000E+00  0.5050505E-02 -0.1558063E-04  0.0000000E+00  0.4227982E-03
  0.6313131E+00  0.0000000E+00  0.5050505E-02 -0.1413364E-04  0.0000000E+00  0.3915424E-03
  0.6414142E+00  0.0000000E+00  0.5050505E-02 -0.1285871E-04  0.0000000E+00  0.3632468E-03
  0.6515151E+00  0.0000000E+00  0.5050505E-02 -0.1172697E-04  0.0000000E+00  0.3375540E-03
  0.6616161E+00  0.0000000E+00  0.5050505E-02 -0.1071672E-04  0.0000000E+00  0.3141661E-03
  0.6717172E+00  0.0000000E+00  0.5050505E-02 -0.9810953E-05  0.0000000E+00  0.2928301E-03
  0.6818182E+00  0.0000000E+00  0.5050505E-02 -0.8995930E-05  0.0000000E+00  0.2733289E-03
  0.6919192E+00  0.0000000E+00  0.5050505E-02 -0.8260252E-05  0.0000000E+00  0.2554743E-03
  0.7020202E+00  0.0000000E+00  0.5050505E-02 -0.7594305E-05  0.0000000E+00  0.2391026E-03
  0.7121212E+00  0.0000000E+00  0.5050505E-02 -0.6989863E-05  0.0000000E+00  0.2240702E-03
  0.7222222E+00  0.0000000E+00  0.5050505E-02 -0.6439825E-05  0.0000000E+00  0.2102510E-03
  0.7323232E+00  0.0000000E+00  0.5050505E-02 -0.5938020E-05  0.0000000E+00  0.1975339E-03
  0.7424242E+00  0.0000000E+00  0.5050505E-02 -0.5479053E-05  0.0000000E+00  0.1858206E-03
  0.7525253E+00  0.0000000E+00  0.5050505E-02 -0.5058191E-05  0.0000000E+00  0.1750241E-03
  0.7626263E+00  0.0000000E+00  0.5050505E-02 -0.4671271E-05  0.0000000E+00  0.1650674E-03
  0.7727273E+00  0.0000000E+00  0.5050505E-02 -0.4314617E-05  0.0000000E+00  0.1558819E-03
  0.7828283E+00  0.0000000E+00  0.5050505E-02 -0.3984979E-05  0.0000000E+00  0.1474067E-03
  0.7929293E+00  0.0000000E+00  0.5050505E-02 -0.3679472E-05  0.0000000E+00  0.1395876E-03
  0.8030303E+00  0.0000000E+00  0.5050505E-02 -0.3395536E-05  0.0000000E+00  0.1323761E-03
  0.8131313E+00  0.0000000E+00  0.5050505E-02 -0.3130887E-05  0.0000000E+00  0.1257292E-03
  0.8232324E+00  0.0000000E+00  0.5050505E-02 -0.2883488E-05  0.0000000E+00  0.1196084E-03
  0.8333333E+00  0.0000000E+00  0.5050505E-02 -0.2651514E-05  0.0000000E+00  0.1139793E-03
  0.8434343E+00  0.0000000E+00  0.5050505E-02 -0.2433331E-05  0.0000000E+00  0.1088113E-03
  0.8535354E+00  0.0000000E+00  0.5050505E-02 -0.2227465E-05  0.0000000E+00  0.1040770E-03
  0.8636364E+00  0.0000000E+00  0.5050505E-02 -0.2032587E-05  0.0000000E+00  0.9975200E-04
  0.8737374E+00  0.0000000E+00  0.5050505E-02 -0.1847495E-05  0.0000000E+00  0.9581470E-04
  0.8838384E+00  0.0000000E+00  0.5050505E-02 -0.1671095E-05  0.0000000E+00  0.9224578E-04
  0.8939394E+00  0.0000000E+00  0.5050505E-02 -0.1502391E-05  0.0000000E+00  0.8902816E-04
  0.9040404E+00  0.0000000E+00  0.5050505E-02 -0.1340467E-05  0.0000000E+00  0.8614678E-04
  0.9141414E+00  0.0000000E+00  0.5050505E-02 -0.1184484E-05  0.0000000E+00  0.8358842E-04
  0.9242424E+00  0.0000000E+00  0.5050505E-02 -0.1033662E-05  0.0000000E+00  0.8134154E-04
  0.9343435E+00  0.0000000E+00  0.5050505E-02 -0.8872749E-06  0.0000000E+00  0.7939618E-04
  0.9444444E+00  0.0000000E+00  0.5050505E-02 -0.7446432E-06  0.0000000E+00  0.7774385E-04
  0.9545454E+00  0.0000000E+00  0.5050505E-02 -0.6051251E-06  0.0000000E+00  0.7637743E-04
  0.9646465E+00  0.0000000E+00  0.5050505E-02 -0.4681104E-06  0.0000000E+00  0.7529109E-04
  0.9747475E+00  0.0000000E+00  0.5050505E-02 -0.3330144E-06  0.0000000E+00  0.7448027E-04
  0.9848485E+00  0.0000000E+00  0.5050505E-02 -0.1992726E-06  0.0000000E+00  0.7394157E-04
  0.9974747E+00  0.0000000E+00  0.5050505E-02 -0.6633552E-07  0.0000000E+00  0.7367278E-04
  0.5050505E-02  0.0000000E+00  0.1515152E-01  0.2435570E-06  0.0000000E+00  0.8514960E-04
  0.1515152E-01  0.0000000E+00  0.1515152E-01  0.7317537E-06  0.0000000E+00  0.8547899E-04
  0.2525252E-01  0.0000000E+00  0.1515152E-01  0.1223221E-05  0.0000000E+00  0.8613925E-04
  0.3535353E-01  0.0000000E+00  0.1515152E-01  0.1720187E-05  0.0000000E+00  0.8713339E-04
  0.4545455E-01  0.0000000E+00  0.1515152E-01  0.2224932E-05  0.0000000E+00  0.8846597E-04
  0.5555556E-01  0.0000000E+00  0.1515152E-01  0.2739811E-05  0.0000000E+00  0.9014319E-04
  0.6565657E-01  0.0000000E+00  0.1515152E-01  0.3267268E-05  0.0000000E+00  0.9217286E-04
  0.7575758E-01  0.0000000E+00  0.1515152E-01  0.3809861E-05  0.0000000E+00  0.9456459E-04
  0.8585858E-01  0.0000000E+00  0.1515152E-01  0.4370284E-05  0.0000000E+00  0.9732977E-04
  0.9595960E-01  0.0000000E+00  0.1515152E-01  0.4951393E-05  0.0000000E+00  0.1004817E-03
  0.1060606E+00  0.0000000E+00  0.1515152E-01  0.5556236E-05  0.0000000E+00  0.1040359E-03
  0.1161616E+00  0.0000000E+00  0.1515152E-01  0.6188088E-05  0.0000000E+00  0.1080098E-03
  0.1262626E+00  0.0000000E+00  0.1515152E-01  0.6850483E-05  0.0000000E+00  0.1124236E-03
  0.1363636E+00  0.0000000E+00  0.1515152E-01  0.7547262E-05  0.0000000E+00  0.1172998E-03
  0.1464646E+00  0.0000000E+00  0.1515152E-01  0.8282621E-05  0.0000000E+00  0.1226638E-03
  0.1565657E+00  0.0000000E+00  0.1515152E-01  0.9061168E-05  0.0000000E+00  0.1285441E-03
  0.1666667E+00  0.0000000E+00  0.1515152E-01  0.9887992E-05  0.0000000E+00  0.1349728E-03
  0.1767677E+00  0.0000000E+00  0.1515152E-01  0.1076874E-04  0.0000000E+00  0.1419856E-03
  0.1868687E+00  0.0000000E+00  0.1515152E-01  0.1170973E-04  0.0000000E+00  0.1496227E-03
  0.1969697E+00  0.0000000E+00  0.1515152E-01  0.1271806E-04  0.0000000E+00  0.1579287E-03
  0.2070707E+00  0.0000000E+00  0.1515152E-01  0.1380175E-04  0.0000000E+00  0.1669541E-03
  0.2171717E+00  0.0000000E+00  0.1515152E-01  0.1496996E-04  0.0000000E+00  0.1767551E-03
  0.2272727E+00  0.0000000E+00  0.1515152E-01  0.1623323E-04  0.0000000E+00  0.1873954E-03
  0.2373737E+00  0.0000000E+00  0.1515152E-01  0.1760381E-04  0.0000000E+00  0.1989465E-03
  0.2474747E+00  0.0000000E+00  0.1515152E-01  0.1909615E-04  0.0000000E+00  0.2114898E-03
  0.2575758E+00  0.0000000E+00  0.1515152E-01  0.2072752E-04  0.0000000E+00  0.2251177E-03
  0.2676768E+00  0.0000000E+00  0.1515152E-01  0.2251898E-04  0.0000000E+00  0.2399367E-03
  0.2777778E+00  0.0000000E+00  0.1515152E-01  0.2449672E-04  0.0000000E+00  0.2560695E-03
  0.2878788E+00  0.0000000E+00  0.1515152E-01  0.2669416E-04  0.0000000E+00  0.2736601E-03
  0.2979798E+00  0.0000000E+00  0.1515152E-01  0.2915497E-04  0.0000000E+00  0.2928793E-03
  0.3080808E+00  0.0000000E+00  0.1515152E-01  0.3193775E-04  0.0000000E+00  0.3139330E-03
  0.3181818E+00  0.0000000E+00  0.1515152E-01  0.3512304E-04  0.0000000E+00  0.3370746E-03
  0.3282828E+00  0.0000000E+00  0.1515152E-01  0.3882400E-04  0.0000000E+00  0.3626232E-03
  0.3383838E+00  0.0000000E+00  0.1515152E-01  0.4320275E-04  0.0000000E+00  0.3909897E-03
  0.3484848E+00  0.0000000E+00  0.1515152E-01  0.4849635E-04  0.0000000E+00  0.4227156E-03
  0.3585859E+00  0.0000000E+00  0.1515152E-01  0.5506038E-04  0.0000000E+00  0.4585281E-03
  0.3686869E+00  0.0000000E+00  0.1515152E-01  0.6344903E-04  0.0000000E+00  0.4994152E-03
  0.3787879E+00  0.0000000E+00  0.1515152E-01  0.7457840E-04  0.0000000E+00  0.5467024E-03
  0.3888889E+00  0.0000000E+00  0.1515152E-01  0.9009530E-04  0.0000000E+00  0.6020055E-03
  0.3989899E+00  0.0000000E+00  0.1515152E-01  0.1132899E-03  0.0000000E+00  0.6663528E-03
  0.4090909E+00  0.0000000E+00  0.1515152E-01  0.1515561E-03  0.0000000E+00  0.7348756E-03
  0.4191919E+00  0.0000000E+00  0.1515152E-01  0.1968197E-03  0.0000000E+00  0.7981367E-03
  0.4292929E+00  0.0000000E+00  0.1515152E-01  0.1688219E-03  0.0000000E+00  0.9102961E-03
  0.4393939E+00  0.0000000E+00  0.1515152E-01  0.1921477E-03  0.0000000E+00  0.1081557E-02
  0.4494950E+00  0.0000000E+00  0.1515152E-01  0.2100693E-03  0.0000000E+00  0.1250316E-02
  0.4595959E+00  0.0000000E+00  0.1515152E-01  0.2752176E-03  0.0000000E+00  0.1390136E-02
  0.4696970E+00  0.0000000E+00  0.1515152E-01  0.6283912E-04  0.0000000E+00  0.1568906E-02
  0.4797980E+00  0.0000000E+00  0.1515152E-01 -0.6413887E-04  0.0000000E+00  0.1642048E-02
  0.4898990E+00  0.0000000E+00  0.1515152E-01 -0.2858811E-03  0.0000000E+00  0.1482614E-02
  0.5000000E+00  0.0000000E+00  0.1515152E-01 -0.1930862E-03  0.0000000E+00  0.1290064E-02
  0.5101010E+00  0.0000000E+00  0.1515152E-01 -0.1693089E-03  0.0000000E+00  0.1135816E-02
  0.5202020E+00  0.0000000E+00  0.1515152E-01 -0.1464173E-03  0.0000000E+00  0.1018718E-02
  0.5303030E+00  0.0000000E+00  0.1515152E-01 -0.1244211E-03  0.0000000E+00  0.9478194E-03
  0.5404040E+00  0.0000000E+00  0.1515152E-01 -0.1294511E-03  0.0000000E+00  0.8721066E-03
  0.5505050E+00  0.0000000E+00  0.1515152E-01 -0.1185590E-03  0.0000000E+00  0.7804853E-03
  0.5606061E+00  0.0000000E+00  0.1515152E-01 -0.9705214E-04  0.0000000E+00  0.7015185E-03
  0.5707071E+00  0.0000000E+00  0.1515152E-01 -0.8271866E-04  0.0000000E+00  0.6380656E-03
  0.5808081E+00  0.0000000E+00  0.1515152E-01 -0.7221167E-04  0.0000000E+00  0.5836082E-03
  0.5909091E+00  0.0000000E+00  0.1515152E-01 -0.6397330E-04  0.0000000E+00  0.5357468E-03
  0.6010101E+00  0.0000000E+00  0.1515152E-01 -0.5721354E-04  0.0000000E+00  0.4931997E-03
  0.6111111E+00  0.0000000E+00  0.1515152E-01 -0.5149845E-04  0.0000000E+00  0.4551087E-03
  0.6212121E+00  0.0000000E+00  0.1515152E-01 -0.4656972E-04  0.0000000E+00  0.4208334E-03
  0.6313131E+00  0.0000000E+00  0.1515152E-01 -0.4226142E-04  0.0000000E+00  0.3898699E-03
  0.6414142E+00  0.0000000E+00  0.1515152E-01 -0.3845956E-04  0.0000000E+00  0.3618084E-03
  0.6515151E+00  0.0000000E+00  0.1515152E-01 -0.3508136E-04  0.0000000E+00  0.3363086E-03
  0.6616161E+00  0.0000000E+00  0.1515152E-01 -0.3206382E-04  0.0000000E+00  0.3130826E-03
  0.6717172E+00  0.0000000E+00  0.1515152E-01 -0.2935718E-04  0.0000000E+00  0.2918844E-03
  0.6818182E+00  0.0000000E+00  0.1515152E-01 -0.2692095E-04  0.0000000E+00  0.2725015E-03
  0.6919192E+00  0.0000000E+00  0.1515152E-01 -0.2472141E-04  0.0000000E+00  0.2547493E-03
  0.7020202E+00  0.0000000E+00  0.1515152E-01 -0.2273001E-04  0.0000000E+00  0.2384663E-03
  0.7121212E+00  0.0000000E+00  0.1515152E-01 -0.2092230E-04  0.0000000E+00  0.2235113E-03
  0.7222222E+00  0.0000000E+00  0.1515152E-01 -0.1927711E-04  0.0000000E+00  0.2097595E-03
  0.7323232E+00  0.0000000E+00  0.1515152E-01 -0.1777604E-04  0.0000000E+00  0.1971013E-03
  0.7424242E+00  0.0000000E+00  0.1515152E-01 -0.1640298E-04  0.0000000E+00  0.1854396E-03
  0.7525253E+00  0.0000000E+00  0.1515152E-01 -0.1514382E-04  0.0000000E+00  0.1746882E-03
  0.7626263E+00  0.0000000E+00  0.1515152E-01 -0.1398610E-04  0.0000000E+00  0.1647710E-03
  0.7727273E+00  0.0000000E+00  0.1515152E-01 -0.1291887E-04  0.0000000E+00  0.1556202E-03
  0.7828283E+00  0.0000000E+00  0.1515152E-01 -0.1193239E-04  0.0000000E+00  0.1471753E-03
  0.7929293E+00  0.0000000E+00  0.1515152E-01 -0.1101806E-04  0.0000000E+00  0.1393827E-03
  0.8030303E+00  0.0000000E+00  0.1515152E-01 -0.1016822E-04  0.0000000E+00  0.1321945E-03
  0.8131313E+00  0.0000000E+00  0.1515152E-01 -0.9376049E-05  0.0000000E+00  0.1255680E-03
  0.8232324E+00  0.0000000E+00  0.1515152E-01 -0.8635458E-05  0.0000000E+00  0.1194651E-03
  0.8333333E+00  0.0000000E+00  0.1515152E-01 -0.7940997E-05  0.0000000E+00  0.1138516E-03
  0.8434343E+00  0.0000000E+00  0.1515152E-01 -0.7287773E-05  0.0000000E+00  0.1086972E-03
  0.8535354E+00  0.0000000E+00  0.1515152E-01 -0.6671385E-05  0.0000000E+00  0.1039749E-03
  0.8636364E+00  0.0000000E+00  0.1515152E-01 -0.6087861E-05  0.0000000E+00  0.9966031E-04
  0.8737374E+00  0.0000000E+00  0.1515152E-01 -0.5533606E-05  0.0000000E+00  0.9573206E-04
  0.8838384E+00  0.0000000E+00  0.1515152E-01 -0.5005351E-05  0.0000000E+00  0.9217100E-04
  0.8939394E+00  0.0000000E+00  0.1515152E-01 -0.4500114E-05  0.0000000E+00  0.8896018E-04
  0.9040404E+00  0.0000000E+00  0.1515152E-01 -0.4015163E-05  0.0000000E+00  0.8608465E-04
  0.9141414E+00  0.0000000E+00  0.1515152E-01 -0.3547983E-05  0.0000000E+00  0.8353130E-04
  0.9242424E+00  0.0000000E+00  0.1515152E-01 -0.3096242E-05  0.0000000E+00  0.8128867E-04
  0.9343435E+00  0.0000000E+00  0.1515152E-01 -0.2657773E-05  0.0000000E+00  0.7934687E-04
  0.9444444E+00  0.0000000E+00  0.1515152E-01 -0.2230542E-05  0.0000000E+00  0.7769749E-04
  0.9545454E+00  0.0000000E+00  0.1515152E-01 -0.1812628E-05  0.0000000E+00  0.7633343E-04
  0.9646465E+00  0.0000000E+00  0.1515152E-01 -0.1402208E-05  0.0000000E+00  0.7524894E-04
  0.9747475E+00  0.0000000E+00  0.1515152E-01 -0.9975325E-06  0.0000000E+00  0.7443947E-04
  0.9848485E+00  0.0000000E+00  0.1515152E-01 -0.5969130E-06  0.0000000E+00  0.7390165E-04
  0.9974747E+00  0.0000000E+00  0.1515152E-01 -0.1987049E-06  0.0000000E+00  0.7363329E-04
  0.5050505E-02  0.0000000E+00  0.2525252E-01  0.4048794E-06  0.0000000E+00  0.8502416E-04
  0.1515152E-01  0.0000000E+00  0.2525252E-01  0.1216441E-05  0.0000000E+00  0.8535236E-04
  0.2525252E-01  0.0000000E+00  0.2525252E-01  0.2033444E-05  0.0000000E+00  0.8601020E-04
  0.3535353E-01  0.0000000E+00  0.2525252E-01  0.2859586E-05  0.0000000E+00  0.8700065E-04
  0.4545455E-01  0.0000000E+00  0.2525252E-01  0.3698654E-05  0.0000000E+00  0.8832822E-04
  0.5555556E-01  0.0000000E+00  0.2525252E-01  0.4554553E-05  0.0000000E+00  0.8999902E-04
  0.6565657E-01  0.0000000E+00  0.2525252E-01  0.5431339E-05  0.0000000E+00  0.9202079E-04
  0.7575758E-01  0.0000000E+00  0.2525252E-01  0.6333252E-05  0.0000000E+00  0.9440300E-04
  0.8585858E-01  0.0000000E+00  0.2525252E-01  0.7264761E-05  0.0000000E+00  0.9715692E-04
  0.9595960E-01  0.0000000E+00  0.2525252E-01  0.8230600E-05  0.0000000E+00  0.1002957E-03
  0.1060606E+00  0.0000000E+00  0.2525252E-01  0.9235823E-05  0.0000000E+00  0.1038346E-03
  0.1161616E+00  0.0000000E+00  0.2525252E-01  0.1028585E-04  0.0000000E+00  0.1077910E-03
  0.1262626E+00  0.0000000E+00  0.2525252E-01  0.1138655E-04  0.0000000E+00  0.1121847E-03
  0.1363636E+00  0.0000000E+00  0.2525252E-01  0.1254427E-04  0.0000000E+00  0.1170378E-03
  0.1464646E+00  0.0000000E+00  0.2525252E-01  0.1376595E-04  0.0000000E+00  0.1223755E-03
  0.1565657E+00  0.0000000E+00  0.2525252E-01  0.1505923E-04  0.0000000E+00  0.1282260E-03
  0.1666667E+00  0.0000000E+00  0.2525252E-01  0.1643250E-04  0.0000000E+00  0.1346205E-03
  0.1767677E+00  0.0000000E+00  0.2525252E-01  0.1789511E-04  0.0000000E+00  0.1415945E-03
  0.1868687E+00  0.0000000E+00  0.2525252E-01  0.1945748E-04  0.0000000E+00  0.1491871E-03
  0.1969697E+00  0.0000000E+00  0.2525252E-01  0.2113128E-04  0.0000000E+00  0.1574425E-03
  0.2070707E+00  0.0000000E+00  0.2525252E-01  0.2292973E-04  0.0000000E+00  0.1664097E-03
  0.2171717E+00  0.0000000E+00  0.2525252E-01  0.2486786E-04  0.0000000E+00  0.1761439E-03
  0.2272727E+00  0.0000000E+00  0.2525252E-01  0.2696292E-04  0.0000000E+00  0.1867069E-03
  0.2373737E+00  0.0000000E+00  0.2525252E-01  0.2923490E-04  0.0000000E+00  0.1981684E-03
  0.2474747E+00  0.0000000E+00  0.2525252E-01  0.3170724E-04  0.0000000E+00  0.2106068E-03
  0.2575758E+00  0.0000000E+00  0.2525252E-01  0.3440782E-04  0.0000000E+00  0.2241110E-03
  0.2676768E+00  0.0000000E+00  0.2525252E-01  0.3737038E-04  0.0000000E+00  0.2387821E-03
  0.2777778E+00  0.0000000E+00  0.2525252E-01  0.4063655E-04  0.0000000E+00  0.2547360E-03
  0.2878788E+00  0.0000000E+00  0.2525252E-01  0.4425897E-04  0.0000000E+00  0.2721062E-03
  0.2979798E+00  0.0000000E+00  0.2525252E-01  0.4830583E-04  0.0000000E+00  0.2910484E-03
  0.3080808E+00  0.0000000E+00  0.2525252E-01  0.5286785E-04  0.0000000E+00  0.3117463E-03
  0.3181818E+00  0.0000000E+00  0.2525252E-01  0.5806876E-04  0.0000000E+00  0.3344206E-03
  0.3282828E+00  0.0000000E+00  0.2525252E-01  0.6408103E-04  0.0000000E+00  0.3593407E-03
  0.3383838E+00  0.0000000E+00  0.2525252E-01  0.7114942E-04  0.0000000E+00  0.3868428E-03
  0.3484848E+00  0.0000000E+00  0.2525252E-01  0.7962590E-04  0.0000000E+00  0.4173538E-03
  0.3585859E+00  0.0000000E+00  0.2525252E-01  0.9002256E-04  0.0000000E+00  0.4514196E-03
  0.3686869E+00  0.0000000E+00  0.2525252E-01  0.1030940E-03  0.0000000E+00  0.4897301E-03
  0.3787879E+00  0.0000000E+00  0.2525252E-01  0.1199689E-03  0.0000000E+00  0.5331147E-03
  0.3888889E+00  0.0000000E+00  0.2525252E-01  0.1423464E-03  0.0000000E+00  0.5824491E-03
  0.3989899E+00  0.0000000E+00  0.2525252E-01  0.1726507E-03  0.0000000E+00  0.6383845E-03
  0.4090909E+00  0.0000000E+00  0.2525252E-01  0.2132706E-03  0.0000000E+00  0.7011543E-03
  0.4191919E+00  0.0000000E+00  0.2525252E-01  0.2600089E-03  0.0000000E+00  0.7742699E-03
  0.4292929E+00  0.0000000E+00  0.2525252E-01  0.2943556E-03  0.0000000E+00  0.8700429E-03
  0.4393939E+00  0.0000000E+00  0.2525252E-01  0.3134629E-03  0.0000000E+00  0.9743910E-03
  0.4494950E+00  0.0000000E+00  0.2525252E-01  0.3112627E-03  0.0000000E+00  0.1059710E-02
  0.4595959E+00  0.0000000E+00  0.2525252E-01  0.3746256E-03  0.0000000E+00  0.1153623E-02
  0.4696970E+00  0.0000000E+00  0.2525252E-01  0.2988838E-03  0.0000000E+00  0.1375179E-02
  0.4797980E+00  0.0000000E+00  0.2525252E-01 -0.1891104E-03  0.0000000E+00  0.1432157E-02
  0.4898990E+00  0.0000000E+00  0.2525252E-01 -0.4313978E-03  0.0000000E+00  0.1266010E-02
  0.5000000E+00  0.0000000E+00  0.2525252E-01 -0.3137520E-03  0.0000000E+00  0.1146433E-02
  0.5101010E+00  0.0000000E+00  0.2525252E-01 -0.2638691E-03  0.0000000E+00  0.1051946E-02
  0.5202020E+00  0.0000000E+00  0.2525252E-01 -0.2135192E-03  0.0000000E+00  0.9841601E-03
  0.5303030E+00  0.0000000E+00  0.2525252E-01 -0.1970167E-03  0.0000000E+00  0.8973681E-03
  0.5404040E+00  0.0000000E+00  0.2525252E-01 -0.2072487E-03  0.0000000E+00  0.8056670E-03
  0.5505050E+00  0.0000000E+00  0.2525252E-01 -0.1849439E-03  0.0000000E+00  0.7384148E-03
  0.5606061E+00  0.0000000E+00  0.2525252E-01 -0.1552448E-03  0.0000000E+00  0.6812443E-03
  0.5707071E+00  0.0000000E+00  0.2525252E-01 -0.1343193E-03  0.0000000E+00  0.6255939E-03
  0.5808081E+00  0.0000000E+00  0.2525252E-01 -0.1182730E-03  0.0000000E+00  0.5747805E-03
  0.5909091E+00  0.0000000E+00  0.2525252E-01 -0.1052956E-03  0.0000000E+00  0.5289818E-03
  0.6010101E+00  0.0000000E+00  0.2525252E-01 -0.9443869E-04  0.0000000E+00  0.4877637E-03
  0.6111111E+00  0.0000000E+00  0.2525252E-01 -0.8515182E-04  0.0000000E+00  0.4506086E-03
  0.6212121E+00  0.0000000E+00  0.2525252E-01 -0.7708627E-04  0.0000000E+00  0.4170354E-03
  0.6313131E+00  0.0000000E+00  0.2525252E-01 -0.7000542E-04  0.0000000E+00  0.3866228E-03
  0.6414142E+00  0.0000000E+00  0.2525252E-01 -0.6373976E-04  0.0000000E+00  0.3590082E-03
  0.6515151E+00  0.0000000E+00  0.2525252E-01 -0.5816233E-04  0.0000000E+00  0.3338794E-03
  0.6616161E+00  0.0000000E+00  0.2525252E-01 -0.5317441E-04  0.0000000E+00  0.3109666E-03
  0.6717172E+00  0.0000000E+00  0.2525252E-01 -0.4869677E-04  0.0000000E+00  0.2900360E-03
  0.6818182E+00  0.0000000E+00  0.2525252E-01 -0.4466417E-04  0.0000000E+00  0.2708836E-03
  0.6919192E+00  0.0000000E+00  0.2525252E-01 -0.4102184E-04  0.0000000E+00  0.2533309E-03
  0.7020202E+00  0.0000000E+00  0.2525252E-01 -0.3772315E-04  0.0000000E+00  0.2372215E-03
  0.7121212E+00  0.0000000E+00  0.2525252E-01 -0.3472794E-04  0.0000000E+00  0.2224177E-03
  0.7222222E+00  0.0000000E+00  0.2525252E-01 -0.3200141E-04  0.0000000E+00  0.2087980E-03
  0.7323232E+00  0.0000000E+00  0.2525252E-01 -0.2951322E-04  0.0000000E+00  0.1962552E-03
  0.7424242E+00  0.0000000E+00  0.2525252E-01 -0.2723680E-04  0.0000000E+00  0.1846944E-03
  0.7525253E+00  0.0000000E+00  0.2525252E-01 -0.2514882E-04  0.0000000E+00  0.1740314E-03
  0.7626263E+00  0.0000000E+00  0.2525252E-01 -0.2322874E-04  0.0000000E+00  0.1641917E-03
  0.7727273E+00  0.0000000E+00  0.2525252E-01 -0.2145840E-04  0.0000000E+00  0.1551086E-03
  0.7828283E+00  0.0000000E+00  0.2525252E-01 -0.1982176E-04  0.0000000E+00  0.1467232E-03
  0.7929293E+00  0.0000000E+00  0.2525252E-01 -0.1830457E-04  0.0000000E+00  0.1389827E-03
  0.8030303E+00  0.0000000E+00  0.2525252E-01 -0.1689416E-04  0.0000000E+00  0.1318402E-03
  0.8131313E+00  0.0000000E+00  0.2525252E-01 -0.1557925E-04  0.0000000E+00  0.1252536E-03
  0.8232324E+00  0.0000000E+00  0.2525252E-01 -0.1434977E-04  0.0000000E+00  0.1191856E-03
  0.8333333E+00  0.0000000E+00  0.2525252E-01 -0.1319669E-04  0.0000000E+00  0.1136028E-03
  0.8434343E+00  0.0000000E+00  0.2525252E-01 -0.1211192E-04  0.0000000E+00  0.1084752E-03
  0.8535354E+00  0.0000000E+00  0.2525252E-01 -0.1108817E-04  0.0000000E+00  0.1037762E-03
  0.8636364E+00  0.0000000E+00  0.2525252E-01 -0.1011888E-04  0.0000000E+00  0.9948203E-04
  0.8737374E+00  0.0000000E+00  0.2525252E-01 -0.9198084E-05  0.0000000E+00  0.9557152E-04
  0.8838384E+00  0.0000000E+00  0.2525252E-01 -0.8320377E-05  0.0000000E+00  0.9202585E-04
  0.8939394E+00  0.0000000E+00  0.2525252E-01 -0.7480821E-05  0.0000000E+00  0.8882835E-04
  0.9040404E+00  0.0000000E+00  0.2525252E-01 -0.6674889E-05  0.0000000E+00  0.8596429E-04
  0.9141414E+00  0.0000000E+00  0.2525252E-01 -0.5898416E-05  0.0000000E+00  0.8342074E-04
  0.9242424E+00  0.0000000E+00  0.2525252E-01 -0.5147543E-05  0.0000000E+00  0.8118643E-04
  0.9343435E+00  0.0000000E+00  0.2525252E-01 -0.4418675E-05  0.0000000E+00  0.7925162E-04
  0.9444444E+00  0.0000000E+00  0.2525252E-01 -0.3708443E-05  0.0000000E+00  0.7760799E-04
  0.9545454E+00  0.0000000E+00  0.2525252E-01 -0.3013668E-05  0.0000000E+00  0.7624859E-04
  0.9646465E+00  0.0000000E+00  0.2525252E-01 -0.2331325E-05  0.0000000E+00  0.7516771E-04
  0.9747475E+00  0.0000000E+00  0.2525252E-01 -0.1658516E-05  0.0000000E+00  0.7436088E-04
  0.9848485E+00  0.0000000E+00  0.2525252E-01 -0.9924401E-06  0.0000000E+00  0.7382479E-04
  0.9974747E+00  0.0000000E+00  0.2525252E-01 -0.3303708E-06  0.0000000E+00  0.7355728E-04
  0.5050505E-02  0.0000000E+00  0.3535353E-01  0.5650078E-06  0.0000000E+00  0.8484192E-04
  0.1515152E-01  0.0000000E+00  0.3535353E-01  0.1697539E-05  0.0000000E+00  0.8516836E-04
  0.2525252E-01  0.0000000E+00  0.3535353E-01  0.2837657E-05  0.0000000E+00  0.8582265E-04
  0.3535353E-01  0.0000000E+00  0.3535353E-01  0.3990511E-05  0.0000000E+00  0.8680768E-04
  0.4545455E-01  0.0000000E+00  0.3535353E-01  0.5161372E-05  0.0000000E+00  0.8812790E-04
  0.5555556E-01  0.0000000E+00  0.3535353E-01  0.6355673E-05  0.0000000E+00  0.8978928E-04
  0.6565657E-01  0.0000000E+00  0.3535353E-01  0.7579053E-05  0.0000000E+00  0.9179946E-04
  0.7575758E-01  0.0000000E+00  0.3535353E-01  0.8837411E-05  0.0000000E+00  0.9416773E-04
  0.8585858E-01  0.0000000E+00  0.3535353E-01  0.1013696E-04  0.0000000E+00  0.9690516E-04
  0.9595960E-01  0.0000000E+00  0.3535353E-01  0.1148427E-04  0.0000000E+00  0.1000247E-03
  0.1060606E+00  0.0000000E+00  0.3535353E-01  0.1288637E-04  0.0000000E+00  0.1035413E-03
  0.1161616E+00  0.0000000E+00  0.3535353E-01  0.1435078E-04  0.0000000E+00  0.1074720E-03
  0.1262626E+00  0.0000000E+00  0.3535353E-01  0.1588565E-04  0.0000000E+00  0.1118362E-03
  0.1363636E+00  0.0000000E+00  0.3535353E-01  0.1749977E-04  0.0000000E+00  0.1166557E-03
  0.1464646E+00  0.0000000E+00  0.3535353E-01  0.1920279E-04  0.0000000E+00  0.1219551E-03
  0.1565657E+00  0.0000000E+00  0.3535353E-01  0.2100524E-04  0.0000000E+00  0.1277618E-03
  0.1666667E+00  0.0000000E+00  0.3535353E-01  0.2291879E-04  0.0000000E+00  0.1341066E-03
  0.1767677E+00  0.0000000E+00  0.3535353E-01  0.2495631E-04  0.0000000E+00  0.1410238E-03
  0.1868687E+00  0.0000000E+00  0.3535353E-01  0.2713219E-04  0.0000000E+00  0.1485518E-03
  0.1969697E+00  0.0000000E+00  0.3535353E-01  0.2946252E-04  0.0000000E+00  0.1567333E-03
  0.2070707E+00  0.0000000E+00  0.3535353E-01  0.3196546E-04  0.0000000E+00  0.1656161E-03
  0.2171717E+00  0.0000000E+00  0.3535353E-01  0.3466160E-04  0.0000000E+00  0.1752533E-03
  0.2272727E+00  0.0000000E+00  0.3535353E-01  0.3757448E-04  0.0000000E+00  0.1857047E-03
  0.2373737E+00  0.0000000E+00  0.3535353E-01  0.4073123E-04  0.0000000E+00  0.1970368E-03
  0.2474747E+00  0.0000000E+00  0.3535353E-01  0.4416348E-04  0.0000000E+00  0.2093244E-03
  0.2575758E+00  0.0000000E+00  0.3535353E-01  0.4790848E-04  0.0000000E+00  0.2226514E-03
  0.2676768E+00  0.0000000E+00  0.3535353E-01  0.5201089E-04  0.0000000E+00  0.2371123E-03
  0.2777778E+00  0.0000000E+00  0.3535353E-01  0.5652512E-04  0.0000000E+00  0.2528132E-03
  0.2878788E+00  0.0000000E+00  0.3535353E-01  0.6151895E-04  0.0000000E+00  0.2698744E-03
  0.2979798E+00  0.0000000E+00  0.3535353E-01  0.6707897E-04  0.0000000E+00  0.2884319E-03