title = "dataset water"
variables = "x", "y", "z", "vx", "vy", "vz"
zone t = "velocities, solution time =  3.200E+01 days        " i =   99, j =   99, k =    1,  f=point
  0.5050505E-02  0.0000000E+00  0.5050505E-02  0.8782479E-08  0.0000000E+00  0.1129850E-05
  0.1515152E-01  0.0000000E+00  0.5050505E-02  0.2637155E-07  0.0000000E+00  0.1165112E-05
  0.2525252E-01  0.0000000E+00  0.5050505E-02  0.4403309E-07  0.0000000E+00  0.1235732E-05
  0.3535353E-01  0.0000000E+00  0.5050505E-02  0.6181577E-07  0.0000000E+00  0.1341906E-05
  0.4545455E-01  0.0000000E+00  0.5050505E-02  0.7976869E-07  0.0000000E+00  0.1483928E-05
  0.5555556E-01  0.0000000E+00  0.5050505E-02  0.9794157E-07  0.0000000E+00  0.1662190E-05
  0.6565657E-01  0.0000000E+00  0.5050505E-02  0.1163850E-06  0.0000000E+00  0.1877186E-05
  0.7575758E-01  0.0000000E+00  0.5050505E-02  0.1351504E-06  0.0000000E+00  0.2129514E-05
  0.8585858E-01  0.0000000E+00  0.5050505E-02  0.1542907E-06  0.0000000E+00  0.2419877E-05
  0.9595960E-01  0.0000000E+00  0.5050505E-02  0.1738602E-06  0.0000000E+00  0.2749084E-05
  0.1060606E+00  0.0000000E+00  0.5050505E-02  0.1939152E-06  0.0000000E+00  0.3118058E-05
  0.1161616E+00  0.0000000E+00  0.5050505E-02  0.2145143E-06  0.0000000E+00  0.3527837E-05
  0.1262626E+00  0.0000000E+00  0.5050505E-02  0.2357196E-06  0.0000000E+00  0.3979582E-05
  0.1363636E+00  0.0000000E+00  0.5050505E-02  0.2575963E-06  0.0000000E+00  0.4474580E-05
  0.1464646E+00  0.0000000E+00  0.5050505E-02  0.2802138E-06  0.0000000E+00  0.5014258E-05
  0.1565657E+00  0.0000000E+00  0.5050505E-02  0.3036465E-06  0.0000000E+00  0.5600184E-05
  0.1666667E+00  0.0000000E+00  0.5050505E-02  0.3279746E-06  0.0000000E+00  0.6234085E-05
  0.1767677E+00  0.0000000E+00  0.5050505E-02  0.3532862E-06  0.0000000E+00  0.6917858E-05
  0.1868687E+00  0.0000000E+00  0.5050505E-02  0.3796786E-06  0.0000000E+00  0.7653588E-05
  0.1969697E+00  0.0000000E+00  0.5050505E-02  0.4072608E-06  0.0000000E+00  0.8443567E-05
  0.2070707E+00  0.0000000E+00  0.5050505E-02  0.4361561E-06  0.0000000E+00  0.9290324E-05
  0.2171717E+00  0.0000000E+00  0.5050505E-02  0.4665057E-06  0.0000000E+00  0.1019665E-04
  0.2272727E+00  0.0000000E+00  0.5050505E-02  0.4984735E-06  0.0000000E+00  0.1116566E-04
  0.2373737E+00  0.0000000E+00  0.5050505E-02  0.5322517E-06  0.0000000E+00  0.1220081E-04
  0.2474747E+00  0.0000000E+00  0.5050505E-02  0.5680689E-06  0.0000000E+00  0.1330600E-04
  0.2575758E+00  0.0000000E+00  0.5050505E-02  0.6061993E-06  0.0000000E+00  0.1448562E-04
  0.2676768E+00  0.0000000E+00  0.5050505E-02  0.6469763E-06  0.0000000E+00  0.1574469E-04
  0.2777778E+00  0.0000000E+00  0.5050505E-02  0.6908089E-06  0.0000000E+00  0.1708898E-04
  0.2878788E+00  0.0000000E+00  0.5050505E-02  0.7382047E-06  0.0000000E+00  0.1852517E-04
  0.2979798E+00  0.0000000E+00  0.5050505E-02  0.7897994E-06  0.0000000E+00  0.2006112E-04
  0.3080808E+00  0.0000000E+00  0.5050505E-02  0.8463967E-06  0.0000000E+00  0.2170614E-04
  0.3181818E+00  0.0000000E+00  0.5050505E-02  0.9090218E-06  0.0000000E+00  0.2347137E-04
  0.3282828E+00  0.0000000E+00  0.5050505E-02  0.9789938E-06  0.0000000E+00  0.2537036E-04
  0.3383838E+00  0.0000000E+00  0.5050505E-02  0.1058022E-05  0.0000000E+00  0.2741969E-04
  0.3484848E+00  0.0000000E+00  0.5050505E-02  0.1148338E-05  0.0000000E+00  0.2963994E-04
  0.3585859E+00  0.0000000E+00  0.5050505E-02  0.1252862E-05  0.0000000E+00  0.3205692E-04
  0.3686869E+00  0.0000000E+00  0.5050505E-02  0.1375421E-05  0.0000000E+00  0.3470327E-04
  0.3787879E+00  0.0000000E+00  0.5050505E-02  0.1520998E-05  0.0000000E+00  0.3762053E-04
  0.3888889E+00  0.0000000E+00  0.5050505E-02  0.1695937E-05  0.0000000E+00  0.4086178E-04
  0.3989899E+00  0.0000000E+00  0.5050505E-02  0.1907939E-05  0.0000000E+00  0.4449435E-04
  0.4090909E+00  0.0000000E+00  0.5050505E-02  0.2165266E-05  0.0000000E+00  0.4860181E-04
  0.4191919E+00  0.0000000E+00  0.5050505E-02  0.2473801E-05  0.0000000E+00  0.5328226E-04
  0.4292929E+00  0.0000000E+00  0.5050505E-02  0.2828540E-05  0.0000000E+00  0.5863498E-04
  0.4393939E+00  0.0000000E+00  0.5050505E-02  0.3191682E-05  0.0000000E+00  0.6471638E-04
  0.4494950E+00  0.0000000E+00  0.5050505E-02  0.3441019E-05  0.0000000E+00  0.7142141E-04
  0.4595959E+00  0.0000000E+00  0.5050505E-02  0.3264719E-05  0.0000000E+00  0.7820566E-04
  0.4696970E+00  0.0000000E+00  0.5050505E-02  0.2025544E-05  0.0000000E+00  0.8356186E-04
  0.4797980E+00  0.0000000E+00  0.5050505E-02 -0.9362809E-06  0.0000000E+00  0.8466499E-04
  0.4898990E+00  0.0000000E+00  0.5050505E-02 -0.2342218E-05  0.0000000E+00  0.8134446E-04
  0.5000000E+00  0.0000000E+00  0.5050505E-02 -0.2762451E-05  0.0000000E+00  0.7617711E-04
  0.5101010E+00  0.0000000E+00  0.5050505E-02 -0.2752120E-05  0.0000000E+00  0.7059847E-04
  0.5202020E+00  0.0000000E+00  0.5050505E-02 -0.2582796E-05  0.0000000E+00  0.6520507E-04
  0.5303030E+00  0.0000000E+00  0.5050505E-02 -0.2369005E-05  0.0000000E+00  0.6020204E-04
  0.5404040E+00  0.0000000E+00  0.5050505E-02 -0.2156244E-05  0.0000000E+00  0.5563252E-04
  0.5505050E+00  0.0000000E+00  0.5050505E-02 -0.1961139E-05  0.0000000E+00  0.5147697E-04
  0.5606061E+00  0.0000000E+00  0.5050505E-02 -0.1788231E-05  0.0000000E+00  0.4769461E-04
  0.5707071E+00  0.0000000E+00  0.5050505E-02 -0.1637073E-05  0.0000000E+00  0.4424062E-04
  0.5808081E+00  0.0000000E+00  0.5050505E-02 -0.1505331E-05  0.0000000E+00  0.4107313E-04
  0.5909091E+00  0.0000000E+00  0.5050505E-02 -0.1390174E-05  0.0000000E+00  0.3815556E-04
  0.6010101E+00  0.0000000E+00  0.5050505E-02 -0.1288877E-05  0.0000000E+00  0.3545698E-04
  0.6111111E+00  0.0000000E+00  0.5050505E-02 -0.1199057E-05  0.0000000E+00  0.3295168E-04
  0.6212121E+00  0.0000000E+00  0.5050505E-02 -0.1118724E-05  0.0000000E+00  0.3061839E-04
  0.6313131E+00  0.0000000E+00  0.5050505E-02 -0.1046259E-05  0.0000000E+00  0.2843951E-04
  0.6414142E+00  0.0000000E+00  0.5050505E-02 -0.9803660E-06  0.0000000E+00  0.2640038E-04
  0.6515151E+00  0.0000000E+00  0.5050505E-02 -0.9200137E-06  0.0000000E+00  0.2448872E-04
  0.6616161E+00  0.0000000E+00  0.5050505E-02 -0.8643802E-06  0.0000000E+00  0.2269413E-04
  0.6717172E+00  0.0000000E+00  0.5050505E-02 -0.8128098E-06  0.0000000E+00  0.2100770E-04
  0.6818182E+00  0.0000000E+00  0.5050505E-02 -0.7647756E-06  0.0000000E+00  0.1942174E-04
  0.6919192E+00  0.0000000E+00  0.5050505E-02 -0.7198506E-06  0.0000000E+00  0.1792950E-04
  0.7020202E+00  0.0000000E+00  0.5050505E-02 -0.6776851E-06  0.0000000E+00  0.1652504E-04
  0.7121212E+00  0.0000000E+00  0.5050505E-02 -0.6379894E-06  0.0000000E+00  0.1520306E-04
  0.7222222E+00  0.0000000E+00  0.5050505E-02 -0.6005205E-06  0.0000000E+00  0.1395881E-04
  0.7323232E+00  0.0000000E+00  0.5050505E-02 -0.5650719E-06  0.0000000E+00  0.1278798E-04
  0.7424242E+00  0.0000000E+00  0.5050505E-02 -0.5314661E-06  0.0000000E+00  0.1168666E-04
  0.7525253E+00  0.0000000E+00  0.5050505E-02 -0.4995482E-06  0.0000000E+00  0.1065128E-04
  0.7626263E+00  0.0000000E+00  0.5050505E-02 -0.4691819E-06  0.0000000E+00  0.9678568E-05
  0.7727273E+00  0.0000000E+00  0.5050505E-02 -0.4402458E-06  0.0000000E+00  0.8765503E-05
  0.7828283E+00  0.0000000E+00  0.5050505E-02 -0.4126305E-06  0.0000000E+00  0.7909306E-05
  0.7929293E+00  0.0000000E+00  0.5050505E-02 -0.3862366E-06  0.0000000E+00  0.7107407E-05
  0.8030303E+00  0.0000000E+00  0.5050505E-02 -0.3609735E-06  0.0000000E+00  0.6357429E-05
  0.8131313E+00  0.0000000E+00  0.5050505E-02 -0.3367571E-06  0.0000000E+00  0.5657175E-05
  0.8232324E+00  0.0000000E+00  0.5050505E-02 -0.3135095E-06  0.0000000E+00  0.5004609E-05
  0.8333333E+00  0.0000000E+00  0.5050505E-02 -0.2911580E-06  0.0000000E+00  0.4397848E-05
  0.8434343E+00  0.0000000E+00  0.5050505E-02 -0.2696339E-06  0.0000000E+00  0.3835153E-05
  0.8535354E+00  0.0000000E+00  0.5050505E-02 -0.2488723E-06  0.0000000E+00  0.3314921E-05
  0.8636364E+00  0.0000000E+00  0.5050505E-02 -0.2288113E-06  0.0000000E+00  0.2835675E-05
  0.8737374E+00  0.0000000E+00  0.5050505E-02 -0.2093924E-06  0.0000000E+00  0.2396062E-05
  0.8838384E+00  0.0000000E+00  0.5050505E-02 -0.1905599E-06  0.0000000E+00  0.1994843E-05
  0.8939394E+00  0.0000000E+00  0.5050505E-02 -0.1722601E-06  0.0000000E+00  0.1630890E-05
  0.9040404E+00  0.0000000E+00  0.5050505E-02 -0.1544412E-06  0.0000000E+00  0.1303182E-05
  0.9141414E+00  0.0000000E+00  0.5050505E-02 -0.1370530E-06  0.0000000E+00  0.1010800E-05
  0.9242424E+00  0.0000000E+00  0.5050505E-02 -0.1200468E-06  0.0000000E+00  0.7529256E-06
  0.9343435E+00  0.0000000E+00  0.5050505E-02 -0.1033752E-06  0.0000000E+00  0.5288363E-06
  0.9444444E+00  0.0000000E+00  0.5050505E-02 -0.8699217E-07  0.0000000E+00  0.3379049E-06
  0.9545454E+00  0.0000000E+00  0.5050505E-02 -0.7085275E-07  0.0000000E+00  0.1795953E-06
  0.9646465E+00  0.0000000E+00  0.5050505E-02 -0.5491393E-07  0.0000000E+00  0.5346276E-07
  0.9747475E+00  0.0000000E+00  0.5050505E-02 -0.3913313E-07  0.0000000E+00 -0.4074232E-07
  0.9848485E+00  0.0000000E+00  0.5050505E-02 -0.2343469E-07  0.0000000E+00 -0.1033104E-06
  0.9974747E+00  0.0000000E+00  0.5050505E-02 -0.7804223E-08  0.0000000E+00 -0.1345496E-06
  0.5050505E-02  0.0000000E+00  0.1515152E-01  0.2634849E-07  0.0000000E+00  0.1159435E-05
  0.1515152E-01  0.0000000E+00  0.1515152E-01  0.7911787E-07  0.0000000E+00  0.1194803E-05
  0.2525252E-01  0.0000000E+00  0.1515152E-01  0.1321049E-06  0.0000000E+00  0.1265637E-05
  0.3535353E-01  0.0000000E+00  0.1515152E-01  0.1854556E-06  0.0000000E+00  0.1372133E-05
  0.4545455E-01  0.0000000E+00  0.1515152E-01  0.2393175E-06  0.0000000E+00  0.1514585E-05
  0.5555556E-01  0.0000000E+00  0.1515152E-01  0.2938397E-06  0.0000000E+00  0.1693388E-05
  0.6565657E-01  0.0000000E+00  0.1515152E-01  0.3491739E-06  0.0000000E+00  0.1909039E-05
  0.7575758E-01  0.0000000E+00  0.1515152E-01  0.4054749E-06  0.0000000E+00  0.2162136E-05
  0.8585858E-01  0.0000000E+00  0.1515152E-01  0.4629010E-06  0.0000000E+00  0.2453386E-05
  0.9595960E-01  0.0000000E+00  0.1515152E-01  0.5216155E-06  0.0000000E+00  0.2783602E-05
  0.1060606E+00  0.0000000E+00  0.1515152E-01  0.5817871E-06  0.0000000E+00  0.3153710E-05
  0.1161616E+00  0.0000000E+00  0.1515152E-01  0.6435916E-06  0.0000000E+00  0.3564752E-05
  0.1262626E+00  0.0000000E+00  0.1515152E-01  0.7072153E-06  0.0000000E+00  0.4017892E-05
  0.1363636E+00  0.0000000E+00  0.1515152E-01  0.7728538E-06  0.0000000E+00  0.4514423E-05
  0.1464646E+00  0.0000000E+00  0.1515152E-01  0.8407148E-06  0.0000000E+00  0.5055774E-05
  0.1565657E+00  0.0000000E+00  0.1515152E-01  0.9110207E-06  0.0000000E+00  0.5643518E-05
  0.1666667E+00  0.0000000E+00  0.1515152E-01  0.9840123E-06  0.0000000E+00  0.6279386E-05
  0.1767677E+00  0.0000000E+00  0.1515152E-01  0.1059953E-05  0.0000000E+00  0.6965277E-05
  0.1868687E+00  0.0000000E+00  0.1515152E-01  0.1139133E-05  0.0000000E+00  0.7703275E-05
  0.1969697E+00  0.0000000E+00  0.1515152E-01  0.1221879E-05  0.0000000E+00  0.8495673E-05
  0.2070707E+00  0.0000000E+00  0.1515152E-01  0.1308559E-05  0.0000000E+00  0.9344995E-05
  0.2171717E+00  0.0000000E+00  0.1515152E-01  0.1399593E-05  0.0000000E+00  0.1025403E-04
  0.2272727E+00  0.0000000E+00  0.1515152E-01  0.1495470E-05  0.0000000E+00  0.1122587E-04
  0.2373737E+00  0.0000000E+00  0.1515152E-01  0.1596763E-05  0.0000000E+00  0.1226397E-04
  0.2474747E+00  0.0000000E+00  0.1515152E-01  0.1704152E-05  0.0000000E+00  0.1337218E-04
  0.2575758E+00  0.0000000E+00  0.1515152E-01  0.1818450E-05  0.0000000E+00  0.1455486E-04
  0.2676768E+00  0.0000000E+00  0.1515152E-01  0.1940648E-05  0.0000000E+00  0.1581698E-04
  0.2777778E+00  0.0000000E+00  0.1515152E-01  0.2071959E-05  0.0000000E+00  0.1716421E-04
  0.2878788E+00  0.0000000E+00  0.1515152E-01  0.2213887E-05  0.0000000E+00  0.1860314E-04
  0.2979798E+00  0.0000000E+00  0.1515152E-01  0.2368311E-05  0.0000000E+00  0.2014146E-04
  0.3080808E+00  0.0000000E+00  0.1515152E-01  0.2537607E-05  0.0000000E+00  0.2178827E-04
  0.3181818E+00  0.0000000E+00  0.1515152E-01  0.2724803E-05  0.0000000E+00  0.2355441E-04
  0.3282828E+00  0.0000000E+00  0.1515152E-01  0.2933789E-05  0.0000000E+00  0.2545302E-04
  0.3383838E+00  0.0000000E+00  0.1515152E-01  0.3169606E-05  0.0000000E+00  0.2750012E-04
  0.3484848E+00  0.0000000E+00  0.1515152E-01  0.3438830E-05  0.0000000E+00  0.2971556E-04
  0.3585859E+00  0.0000000E+00  0.1515152E-01  0.3750085E-05  0.0000000E+00  0.3212411E-04
  0.3686869E+00  0.0000000E+00  0.1515152E-01  0.4114709E-05  0.0000000E+00  0.3475715E-04
  0.3787879E+00  0.0000000E+00  0.1515152E-01  0.4547565E-05  0.0000000E+00  0.3765474E-04
  0.3888889E+00  0.0000000E+00  0.1515152E-01  0.5067889E-05  0.0000000E+00  0.4086858E-04
  0.3989899E+00  0.0000000E+00  0.1515152E-01  0.5699789E-05  0.0000000E+00  0.4446587E-04
  0.4090909E+00  0.0000000E+00  0.1515152E-01  0.6471251E-05  0.0000000E+00  0.4853432E-04
  0.4191919E+00  0.0000000E+00  0.1515152E-01  0.7408610E-05  0.0000000E+00  0.5318812E-04
  0.4292929E+00  0.0000000E+00  0.1515152E-01  0.8518623E-05  0.0000000E+00  0.5857340E-04
  0.4393939E+00  0.0000000E+00  0.1515152E-01  0.9738280E-05  0.0000000E+00  0.6486627E-04
  0.4494950E+00  0.0000000E+00  0.1515152E-01  0.1080226E-04  0.0000000E+00  0.7223484E-04
  0.4595959E+00  0.0000000E+00  0.1515152E-01  0.1090162E-04  0.0000000E+00  0.8063880E-04
  0.4696970E+00  0.0000000E+00  0.1515152E-01  0.7810346E-05  0.0000000E+00  0.8888519E-04
  0.4797980E+00  0.0000000E+00  0.1515152E-01 -0.4367222E-05  0.0000000E+00  0.9016794E-04
  0.4898990E+00  0.0000000E+00  0.1515152E-01 -0.8048124E-05  0.0000000E+00  0.8422444E-04
  0.5000000E+00  0.0000000E+00  0.1515152E-01 -0.8764790E-05  0.0000000E+00  0.7752714E-04
  0.5101010E+00  0.0000000E+00  0.1515152E-01 -0.8460738E-05  0.0000000E+00  0.7124583E-04
  0.5202020E+00  0.0000000E+00  0.1515152E-01 -0.7832448E-05  0.0000000E+00  0.6554833E-04
  0.5303030E+00  0.0000000E+00  0.1515152E-01 -0.7139146E-05  0.0000000E+00  0.6041612E-04
  0.5404040E+00  0.0000000E+00  0.1515152E-01 -0.6478458E-05  0.0000000E+00  0.5579337E-04
  0.5505050E+00  0.0000000E+00  0.1515152E-01 -0.5883773E-05  0.0000000E+00  0.5161749E-04
  0.5606061E+00  0.0000000E+00  0.1515152E-01 -0.5361594E-05  0.0000000E+00  0.4782848E-04
  0.5707071E+00  0.0000000E+00  0.1515152E-01 -0.4907334E-05  0.0000000E+00  0.4437282E-04
  0.5808081E+00  0.0000000E+00  0.1515152E-01 -0.4512448E-05  0.0000000E+00  0.4120473E-04
  0.5909091E+00  0.0000000E+00  0.1515152E-01 -0.4167706E-05  0.0000000E+00  0.3828604E-04
  0.6010101E+00  0.0000000E+00  0.1515152E-01 -0.3864597E-05  0.0000000E+00  0.3558531E-04
  0.6111111E+00  0.0000000E+00  0.1515152E-01 -0.3595824E-05  0.0000000E+00  0.3307684E-04
  0.6212121E+00  0.0000000E+00  0.1515152E-01 -0.3355374E-05  0.0000000E+00  0.3073954E-04
  0.6313131E+00  0.0000000E+00  0.1515152E-01 -0.3138394E-05  0.0000000E+00  0.2855604E-04
  0.6414142E+00  0.0000000E+00  0.1515152E-01 -0.2941015E-05  0.0000000E+00  0.2651192E-04
  0.6515151E+00  0.0000000E+00  0.1515152E-01 -0.2760163E-05  0.0000000E+00  0.2459508E-04
  0.6616161E+00  0.0000000E+00  0.1515152E-01 -0.2593396E-05  0.0000000E+00  0.2279525E-04
  0.6717172E+00  0.0000000E+00  0.1515152E-01 -0.2438766E-05  0.0000000E+00  0.2110366E-04
  0.6818182E+00  0.0000000E+00  0.1515152E-01 -0.2294706E-05  0.0000000E+00  0.1951265E-04
  0.6919192E+00  0.0000000E+00  0.1515152E-01 -0.2159947E-05  0.0000000E+00  0.1801555E-04
  0.7020202E+00  0.0000000E+00  0.1515152E-01 -0.2033449E-05  0.0000000E+00  0.1660644E-04
  0.7121212E+00  0.0000000E+00  0.1515152E-01 -0.1914348E-05  0.0000000E+00  0.1528004E-04
  0.7222222E+00  0.0000000E+00  0.1515152E-01 -0.1801921E-05  0.0000000E+00  0.1403161E-04
  0.7323232E+00  0.0000000E+00  0.1515152E-01 -0.1695550E-05  0.0000000E+00  0.1285684E-04
  0.7424242E+00  0.0000000E+00  0.1515152E-01 -0.1594705E-05  0.0000000E+00  0.1175181E-04
  0.7525253E+00  0.0000000E+00  0.1515152E-01 -0.1498924E-05  0.0000000E+00  0.1071296E-04
  0.7626263E+00  0.0000000E+00  0.1515152E-01 -0.1407798E-05  0.0000000E+00  0.9736997E-05
  0.7727273E+00  0.0000000E+00  0.1515152E-01 -0.1320963E-05  0.0000000E+00  0.8820895E-05
  0.7828283E+00  0.0000000E+00  0.1515152E-01 -0.1238093E-05  0.0000000E+00  0.7961864E-05
  0.7929293E+00  0.0000000E+00  0.1515152E-01 -0.1158888E-05  0.0000000E+00  0.7157327E-05
  0.8030303E+00  0.0000000E+00  0.1515152E-01 -0.1083078E-05  0.0000000E+00  0.6404898E-05
  0.8131313E+00  0.0000000E+00  0.1515152E-01 -0.1010409E-05  0.0000000E+00  0.5702369E-05
  0.8232324E+00  0.0000000E+00  0.1515152E-01 -0.9406487E-06  0.0000000E+00  0.5047696E-05
  0.8333333E+00  0.0000000E+00  0.1515152E-01 -0.8735780E-06  0.0000000E+00  0.4438989E-05
  0.8434343E+00  0.0000000E+00  0.1515152E-01 -0.8089914E-06  0.0000000E+00  0.3874501E-05
  0.8535354E+00  0.0000000E+00  0.1515152E-01 -0.7466938E-06  0.0000000E+00  0.3352621E-05
  0.8636364E+00  0.0000000E+00  0.1515152E-01 -0.6864995E-06  0.0000000E+00  0.2871865E-05
  0.8737374E+00  0.0000000E+00  0.1515152E-01 -0.6282330E-06  0.0000000E+00  0.2430875E-05
  0.8838384E+00  0.0000000E+00  0.1515152E-01 -0.5717267E-06  0.0000000E+00  0.2028405E-05
  0.8939394E+00  0.0000000E+00  0.1515152E-01 -0.5168194E-06  0.0000000E+00  0.1663324E-05
  0.9040404E+00  0.0000000E+00  0.1515152E-01 -0.4633558E-06  0.0000000E+00  0.1334604E-05
  0.9141414E+00  0.0000000E+00  0.1515152E-01 -0.4111852E-06  0.0000000E+00  0.1041323E-05
  0.9242424E+00  0.0000000E+00  0.1515152E-01 -0.3601614E-06  0.0000000E+00  0.7826582E-06
  0.9343435E+00  0.0000000E+00  0.1515152E-01 -0.3101420E-06  0.0000000E+00  0.5578856E-06
  0.9444444E+00  0.0000000E+00  0.1515152E-01 -0.2609882E-06  0.0000000E+00  0.3663750E-06
  0.9545454E+00  0.0000000E+00  0.1515152E-01 -0.2125649E-06  0.0000000E+00  0.2075896E-06
  0.9646465E+00  0.0000000E+00  0.1515152E-01 -0.1647417E-06  0.0000000E+00  0.8108306E-07
  0.9747475E+00  0.0000000E+00  0.1515152E-01 -0.1173941E-06  0.0000000E+00 -0.1342943E-07
  0.9848485E+00  0.0000000E+00  0.1515152E-01 -0.7030458E-07  0.0000000E+00 -0.7621162E-07
  0.9974747E+00  0.0000000E+00  0.1515152E-01 -0.2341341E-07  0.0000000E+00 -0.1075428E-06
  0.5050505E-02  0.0000000E+00  0.2525252E-01  0.4394324E-07  0.0000000E+00  0.1218643E-05
  0.1515152E-01  0.0000000E+00  0.2525252E-01  0.1319507E-06  0.0000000E+00  0.1254225E-05
  0.2525252E-01  0.0000000E+00  0.2525252E-01  0.2203217E-06  0.0000000E+00  0.1325487E-05
  0.3535353E-01  0.0000000E+00  0.2525252E-01  0.3093000E-06  0.0000000E+00  0.1432627E-05
  0.4545455E-01  0.0000000E+00  0.2525252E-01  0.3991319E-06  0.0000000E+00  0.1575941E-05
  0.5555556E-01  0.0000000E+00  0.2525252E-01  0.4900665E-06  0.0000000E+00  0.1755829E-05
  0.6565657E-01  0.0000000E+00  0.2525252E-01  0.5823568E-06  0.0000000E+00  0.1972789E-05
  0.7575758E-01  0.0000000E+00  0.2525252E-01  0.6762611E-06  0.0000000E+00  0.2227428E-05
  0.8585858E-01  0.0000000E+00  0.2525252E-01  0.7720437E-06  0.0000000E+00  0.2520457E-05
  0.9595960E-01  0.0000000E+00  0.2525252E-01  0.8699767E-06  0.0000000E+00  0.2852694E-05
  0.1060606E+00  0.0000000E+00  0.2525252E-01  0.9703416E-06  0.0000000E+00  0.3225075E-05
  0.1161616E+00  0.0000000E+00  0.2525252E-01  0.1073432E-05  0.0000000E+00  0.3638647E-05
  0.1262626E+00  0.0000000E+00  0.2525252E-01  0.1179558E-05  0.0000000E+00  0.4094585E-05
  0.1363636E+00  0.0000000E+00  0.2525252E-01  0.1289044E-05  0.0000000E+00  0.4594190E-05
  0.1464646E+00  0.0000000E+00  0.2525252E-01  0.1402238E-05  0.0000000E+00  0.5138898E-05
  0.1565657E+00  0.0000000E+00  0.2525252E-01  0.1519507E-05  0.0000000E+00  0.5730291E-05
  0.1666667E+00  0.0000000E+00  0.2525252E-01  0.1641252E-05  0.0000000E+00  0.6370106E-05
  0.1767677E+00  0.0000000E+00  0.2525252E-01  0.1767910E-05  0.0000000E+00  0.7060246E-05
  0.1868687E+00  0.0000000E+00  0.2525252E-01  0.1899962E-05  0.0000000E+00  0.7802800E-05
  0.1969697E+00  0.0000000E+00  0.2525252E-01  0.2037947E-05  0.0000000E+00  0.8600059E-05
  0.2070707E+00  0.0000000E+00  0.2525252E-01  0.2182472E-05  0.0000000E+00  0.9454542E-05
  0.2171717E+00  0.0000000E+00  0.2525252E-01  0.2334232E-05  0.0000000E+00  0.1036902E-04
  0.2272727E+00  0.0000000E+00  0.2525252E-01  0.2494032E-05  0.0000000E+00  0.1134658E-04
  0.2373737E+00  0.0000000E+00  0.2525252E-01  0.2662811E-05  0.0000000E+00  0.1239061E-04
  0.2474747E+00  0.0000000E+00  0.2525252E-01  0.2841683E-05  0.0000000E+00  0.1350493E-04
  0.2575758E+00  0.0000000E+00  0.2525252E-01  0.3031981E-05  0.0000000E+00  0.1469383E-04
  0.2676768E+00  0.0000000E+00  0.2525252E-01  0.3235322E-05  0.0000000E+00  0.1596214E-04
  0.2777778E+00  0.0000000E+00  0.2525252E-01  0.3453681E-05  0.0000000E+00  0.1731539E-04
  0.2878788E+00  0.0000000E+00  0.2525252E-01  0.3689502E-05  0.0000000E+00  0.1875996E-04
  0.2979798E+00  0.0000000E+00  0.2525252E-01  0.3945837E-05  0.0000000E+00  0.2030323E-04
  0.3080808E+00  0.0000000E+00  0.2525252E-01  0.4226529E-05  0.0000000E+00  0.2195389E-04
  0.3181818E+00  0.0000000E+00  0.2525252E-01  0.4536466E-05  0.0000000E+00  0.2372221E-04
  0.3282828E+00  0.0000000E+00  0.2525252E-01  0.4881918E-05  0.0000000E+00  0.2562054E-04
  0.3383838E+00  0.0000000E+00  0.2525252E-01  0.5270996E-05  0.0000000E+00  0.2766383E-04
  0.3484848E+00  0.0000000E+00  0.2525252E-01  0.5714278E-05  0.0000000E+00  0.2987043E-04
  0.3585859E+00  0.0000000E+00  0.2525252E-01  0.6225650E-05  0.0000000E+00  0.3226314E-04
  0.3686869E+00  0.0000000E+00  0.2525252E-01  0.6823458E-05  0.0000000E+00  0.3487064E-04
  0.3787879E+00  0.0000000E+00  0.2525252E-01  0.7532008E-05  0.0000000E+00  0.3772964E-04
  0.3888889E+00  0.0000000E+00  0.2525252E-01  0.8383478E-05  0.0000000E+00  0.4088798E-04
  0.3989899E+00  0.0000000E+00  0.2525252E-01  0.9420093E-05  0.0000000E+00  0.4440955E-04
  0.4090909E+00  0.0000000E+00  0.2525252E-01  0.1069595E-04  0.0000000E+00  0.4838270E-04
  0.4191919E+00  0.0000000E+00  0.2525252E-01  0.1227659E-04  0.0000000E+00  0.5293561E-04
  0.4292929E+00  0.0000000E+00  0.2525252E-01  0.1423094E-04  0.0000000E+00  0.5826745E-04
  0.4393939E+00  0.0000000E+00  0.2525252E-01  0.1660119E-04  0.0000000E+00  0.6471710E-04
  0.4494950E+00  0.0000000E+00  0.2525252E-01  0.1931092E-04  0.0000000E+00  0.7292941E-04
  0.4595959E+00  0.0000000E+00  0.2525252E-01  0.2189741E-04  0.0000000E+00  0.8430018E-04
  0.4696970E+00  0.0000000E+00  0.2525252E-01  0.2270805E-04  0.0000000E+00  0.1023157E-03
  0.4797980E+00  0.0000000E+00  0.2525252E-01 -0.1628552E-04  0.0000000E+00  0.1040497E-03
  0.4898990E+00  0.0000000E+00  0.2525252E-01 -0.1685549E-04  0.0000000E+00  0.8895969E-04
  0.5000000E+00  0.0000000E+00  0.2525252E-01 -0.1594893E-04  0.0000000E+00  0.7942979E-04
  0.5101010E+00  0.0000000E+00  0.2525252E-01 -0.1464186E-04  0.0000000E+00  0.7215137E-04
  0.5202020E+00  0.0000000E+00  0.2525252E-01 -0.1327385E-04  0.0000000E+00  0.6606130E-04
  0.5303030E+00  0.0000000E+00  0.2525252E-01 -0.1198222E-04  0.0000000E+00  0.6076725E-04
  0.5404040E+00  0.0000000E+00  0.2525252E-01 -0.1082193E-04  0.0000000E+00  0.5608071E-04
  0.5505050E+00  0.0000000E+00  0.2525252E-01 -0.9806150E-05  0.0000000E+00  0.5188368E-04
  0.5606061E+00  0.0000000E+00  0.2525252E-01 -0.8927221E-05  0.0000000E+00  0.4809061E-04
  0.5707071E+00  0.0000000E+00  0.2525252E-01 -0.8168759E-05  0.0000000E+00  0.4463594E-04
  0.5808081E+00  0.0000000E+00  0.2525252E-01 -0.7512250E-05  0.0000000E+00  0.4146859E-04
  0.5909091E+00  0.0000000E+00  0.2525252E-01 -0.6940239E-05  0.0000000E+00  0.3854838E-04
  0.6010101E+00  0.0000000E+00  0.2525252E-01 -0.6437599E-05  0.0000000E+00  0.3584354E-04
  0.6111111E+00  0.0000000E+00  0.2525252E-01 -0.5991795E-05  0.0000000E+00  0.3332864E-04
  0.6212121E+00  0.0000000E+00  0.2525252E-01 -0.5592708E-05  0.0000000E+00  0.3098313E-04
  0.6313131E+00  0.0000000E+00  0.2525252E-01 -0.5232281E-05  0.0000000E+00  0.2879020E-04
  0.6414142E+00  0.0000000E+00  0.2525252E-01 -0.4904136E-05  0.0000000E+00  0.2673591E-04
  0.6515151E+00  0.0000000E+00  0.2525252E-01 -0.4603234E-05  0.0000000E+00  0.2480855E-04
  0.6616161E+00  0.0000000E+00  0.2525252E-01 -0.4325581E-05  0.0000000E+00  0.2299814E-04
  0.6717172E+00  0.0000000E+00  0.2525252E-01 -0.4067989E-05  0.0000000E+00  0.2129609E-04
  0.6818182E+00  0.0000000E+00  0.2525252E-01 -0.3827899E-05  0.0000000E+00  0.1969491E-04
  0.6919192E+00  0.0000000E+00  0.2525252E-01 -0.3603232E-05  0.0000000E+00  0.1818803E-04
  0.7020202E+00  0.0000000E+00  0.2525252E-01 -0.3392281E-05  0.0000000E+00  0.1676957E-04
  0.7121212E+00  0.0000000E+00  0.2525252E-01 -0.3193627E-05  0.0000000E+00  0.1543429E-04
  0.7222222E+00  0.0000000E+00  0.2525252E-01 -0.3006076E-05  0.0000000E+00  0.1417746E-04
  0.7323232E+00  0.0000000E+00  0.2525252E-01 -0.2828612E-05  0.0000000E+00  0.1299477E-04
  0.7424242E+00  0.0000000E+00  0.2525252E-01 -0.2660356E-05  0.0000000E+00  0.1188232E-04
  0.7525253E+00  0.0000000E+00  0.2525252E-01 -0.2500542E-05  0.0000000E+00  0.1083650E-04
  0.7626263E+00  0.0000000E+00  0.2525252E-01 -0.2348492E-05  0.0000000E+00  0.9854009E-05
  0.7727273E+00  0.0000000E+00  0.2525252E-01 -0.2203602E-05  0.0000000E+00  0.8931815E-05
  0.7828283E+00  0.0000000E+00  0.2525252E-01 -0.2065327E-05  0.0000000E+00  0.8067104E-05
  0.7929293E+00  0.0000000E+00  0.2525252E-01 -0.1933170E-05  0.0000000E+00  0.7257279E-05
  0.8030303E+00  0.0000000E+00  0.2525252E-01 -0.1806679E-05  0.0000000E+00  0.6499935E-05
  0.8131313E+00  0.0000000E+00  0.2525252E-01 -0.1685432E-05  0.0000000E+00  0.5792847E-05
  0.8232324E+00  0.0000000E+00  0.2525252E-01 -0.1569042E-05  0.0000000E+00  0.5133952E-05
  0.8333333E+00  0.0000000E+00  0.2525252E-01 -0.1457141E-05  0.0000000E+00  0.4521345E-05
  0.8434343E+00  0.0000000E+00  0.2525252E-01 -0.1349389E-05  0.0000000E+00  0.3953263E-05
  0.8535354E+00  0.0000000E+00  0.2525252E-01 -0.1245458E-05  0.0000000E+00  0.3428080E-05
  0.8636364E+00  0.0000000E+00  0.2525252E-01 -0.1145041E-05  0.0000000E+00  0.2944300E-05
  0.8737374E+00  0.0000000E+00  0.2525252E-01 -0.1047842E-05  0.0000000E+00  0.2500549E-05
  0.8838384E+00  0.0000000E+00  0.2525252E-01 -0.9535819E-06  0.0000000E+00  0.2095574E-05
  0.8939394E+00  0.0000000E+00  0.2525252E-01 -0.8619920E-06  0.0000000E+00  0.1728231E-05
  0.9040404E+00  0.0000000E+00  0.2525252E-01 -0.7728126E-06  0.0000000E+00  0.1397483E-05
  0.9141414E+00  0.0000000E+00  0.2525252E-01 -0.6857922E-06  0.0000000E+00  0.1102401E-05
  0.9242424E+00  0.0000000E+00  0.2525252E-01 -0.6006864E-06  0.0000000E+00  0.8421550E-06
  0.9343435E+00  0.0000000E+00  0.2525252E-01 -0.5172573E-06  0.0000000E+00  0.6160133E-06
  0.9444444E+00  0.0000000E+00  0.2525252E-01 -0.4352725E-06  0.0000000E+00  0.4233414E-06
  0.9545454E+00  0.0000000E+00  0.2525252E-01 -0.3545047E-06  0.0000000E+00  0.2635998E-06
  0.9646465E+00  0.0000000E+00  0.2525252E-01 -0.2747321E-06  0.0000000E+00  0.1363437E-06
  0.9747475E+00  0.0000000E+00  0.2525252E-01 -0.1957395E-06  0.0000000E+00  0.4122800E-07
  0.9848485E+00  0.0000000E+00  0.2525252E-01 -0.1172476E-06  0.0000000E+00 -0.2197758E-07
  0.9974747E+00  0.0000000E+00  0.2525252E-01 -0.3904936E-07  0.0000000E+00 -0.5350018E-07
  0.5050505E-02  0.0000000E+00  0.3535353E-01  0.6161997E-07  0.0000000E+00  0.1307438E-05
  0.1515152E-01  0.0000000E+00  0.3535353E-01  0.1850299E-06  0.0000000E+00  0.1343340E-05
  0.2525252E-01  0.0000000E+00  0.3535353E-01  0.3089506E-06  0.0000000E+00  0.1415245E-05
  0.3535353E-01  0.0000000E+00  0.3535353E-01  0.4337246E-06  0.0000000E+00  0.1523351E-05
  0.4545455E-01  0.0000000E+00  0.3535353E-01  0.5596975E-06  0.0000000E+00  0.1667960E-05
  0.5555556E-01  0.0000000E+00  0.3535353E-01  0.6872192E-06  0.0000000E+00  0.1849476E-05
  0.6565657E-01  0.0000000E+00  0.3535353E-01  0.8166451E-06  0.0000000E+00  0.2068404E-05
  0.7575758E-01  0.0000000E+00  0.3535353E-01  0.9483374E-06  0.0000000E+00  0.2325358E-05
  0.8585858E-01  0.0000000E+00  0.3535353E-01  0.1082667E-05  0.0000000E+00  0.2621057E-05
  0.9595960E-01  0.0000000E+00  0.3535353E-01  0.1220016E-05  0.0000000E+00  0.2956332E-05
  0.1060606E+00  0.0000000E+00  0.3535353E-01  0.1360778E-05  0.0000000E+00  0.3332126E-05
  0.1161616E+00  0.0000000E+00  0.3535353E-01  0.1505366E-05  0.0000000E+00  0.3749502E-05
  0.1262626E+00  0.0000000E+00  0.3535353E-01  0.1654214E-05  0.0000000E+00  0.4209645E-05
  0.1363636E+00  0.0000000E+00  0.3535353E-01  0.1807777E-05  0.0000000E+00  0.4713871E-05
  0.1464646E+00  0.0000000E+00  0.3535353E-01  0.1966536E-05  0.0000000E+00  0.5263628E-05
  0.1565657E+00  0.0000000E+00  0.3535353E-01  0.2131008E-05  0.0000000E+00  0.5860511E-05
  0.1666667E+00  0.0000000E+00  0.3535353E-01  0.2301749E-05  0.0000000E+00  0.6506266E-05
  0.1767677E+00  0.0000000E+00  0.3535353E-01  0.2479367E-05  0.0000000E+00  0.7202806E-05
  0.1868687E+00  0.0000000E+00  0.3535353E-01  0.2664530E-05  0.0000000E+00  0.7952224E-05
  0.1969697E+00  0.0000000E+00  0.3535353E-01  0.2857985E-05  0.0000000E+00  0.8756812E-05
  0.2070707E+00  0.0000000E+00  0.3535353E-01  0.3060572E-05  0.0000000E+00  0.9619081E-05
  0.2171717E+00  0.0000000E+00  0.3535353E-01  0.3273247E-05  0.0000000E+00  0.1054179E-04
  0.2272727E+00  0.0000000E+00  0.3535353E-01  0.3497115E-05  0.0000000E+00  0.1152798E-04
  0.2373737E+00  0.0000000E+00  0.3535353E-01  0.3733467E-05  0.0000000E+00  0.1258102E-04
  0.2474747E+00  0.0000000E+00  0.3535353E-01  0.3983823E-05  0.0000000E+00  0.1370463E-04
  0.2575758E+00  0.0000000E+00  0.3535353E-01  0.4250002E-05  0.0000000E+00  0.1490298E-04
  0.2676768E+00  0.0000000E+00  0.3535353E-01  0.4534199E-05  0.0000000E+00  0.1618078E-04
  0.2777778E+00  0.0000000E+00  0.3535353E-01  0.4839089E-05  0.0000000E+00  0.1754333E-04
  0.2878788E+00  0.0000000E+00  0.3535353E-01  0.5167970E-05  0.0000000E+00  0.1899669E-04
  0.2979798E+00  0.0000000E+00  0.3535353E-01  0.5524946E-05  0.0000000E+00  0.2054783E-04