title = "dataset water"
variables = "x", "y", "z", "vx", "vy", "vz"
zone t = "velocities, solution time =  3.000E+01 days        " i =   99, j =   99, k =    1,  f=point
  0.5050505E-02  0.0000000E+00  0.5050505E-02  0.5007251E-08  0.0000000E+00 -0.3824999E-05
  0.1515152E-01  0.0000000E+00  0.5050505E-02  0.1503251E-07  0.0000000E+00 -0.3804950E-05
  0.2525252E-01  0.0000000E+00  0.5050505E-02  0.2509002E-07  0.0000000E+00 -0.3764809E-05
  0.3535353E-01  0.0000000E+00  0.5050505E-02  0.3520130E-07  0.0000000E+00 -0.3704490E-05
  0.4545455E-01  0.0000000E+00  0.5050505E-02  0.4538775E-07  0.0000000E+00 -0.3623865E-05
  0.5555556E-01  0.0000000E+00  0.5050505E-02  0.5567071E-07  0.0000000E+00 -0.3522763E-05
  0.6565657E-01  0.0000000E+00  0.5050505E-02  0.6607138E-07  0.0000000E+00 -0.3400970E-05
  0.7575758E-01  0.0000000E+00  0.5050505E-02  0.7661074E-07  0.0000000E+00 -0.3258231E-05
  0.8585858E-01  0.0000000E+00  0.5050505E-02  0.8730960E-07  0.0000000E+00 -0.3094249E-05
  0.9595960E-01  0.0000000E+00  0.5050505E-02  0.9818842E-07  0.0000000E+00 -0.2908685E-05
  0.1060606E+00  0.0000000E+00  0.5050505E-02  0.1092673E-06  0.0000000E+00 -0.2701160E-05
  0.1161616E+00  0.0000000E+00  0.5050505E-02  0.1205660E-06  0.0000000E+00 -0.2471257E-05
  0.1262626E+00  0.0000000E+00  0.5050505E-02  0.1321036E-06  0.0000000E+00 -0.2218519E-05
  0.1363636E+00  0.0000000E+00  0.5050505E-02  0.1438986E-06  0.0000000E+00 -0.1942451E-05
  0.1464646E+00  0.0000000E+00  0.5050505E-02  0.1559686E-06  0.0000000E+00 -0.1642524E-05
  0.1565657E+00  0.0000000E+00  0.5050505E-02  0.1683306E-06  0.0000000E+00 -0.1318172E-05
  0.1666667E+00  0.0000000E+00  0.5050505E-02  0.1810001E-06  0.0000000E+00 -0.9688003E-06
  0.1767677E+00  0.0000000E+00  0.5050505E-02  0.1939921E-06  0.0000000E+00 -0.5937810E-06
  0.1868687E+00  0.0000000E+00  0.5050505E-02  0.2073209E-06  0.0000000E+00 -0.1924372E-06
  0.1969697E+00  0.0000000E+00  0.5050505E-02  0.2209339E-06  0.0000000E+00  0.2364846E-06
  0.2070707E+00  0.0000000E+00  0.5050505E-02  0.2348996E-06  0.0000000E+00  0.6936630E-06
  0.2171717E+00  0.0000000E+00  0.5050505E-02  0.2492196E-06  0.0000000E+00  0.1179238E-05
  0.2272727E+00  0.0000000E+00  0.5050505E-02  0.2638910E-06  0.0000000E+00  0.1693922E-05
  0.2373737E+00  0.0000000E+00  0.5050505E-02  0.2789056E-06  0.0000000E+00  0.2238417E-05
  0.2474747E+00  0.0000000E+00  0.5050505E-02  0.2942483E-06  0.0000000E+00  0.2813403E-05
  0.2575758E+00  0.0000000E+00  0.5050505E-02  0.3098952E-06  0.0000000E+00  0.3419520E-05
  0.2676768E+00  0.0000000E+00  0.5050505E-02  0.3258107E-06  0.0000000E+00  0.4057350E-05
  0.2777778E+00  0.0000000E+00  0.5050505E-02  0.3419444E-06  0.0000000E+00  0.4727389E-05
  0.2878788E+00  0.0000000E+00  0.5050505E-02  0.3582276E-06  0.0000000E+00  0.5430014E-05
  0.2979798E+00  0.0000000E+00  0.5050505E-02  0.3745657E-06  0.0000000E+00  0.6165437E-05
  0.3080808E+00  0.0000000E+00  0.5050505E-02  0.3908300E-06  0.0000000E+00  0.6933648E-05
  0.3181818E+00  0.0000000E+00  0.5050505E-02  0.4068473E-06  0.0000000E+00  0.7734336E-05
  0.3282828E+00  0.0000000E+00  0.5050505E-02  0.4223861E-06  0.0000000E+00  0.8566780E-05
  0.3383838E+00  0.0000000E+00  0.5050505E-02  0.4371384E-06  0.0000000E+00  0.9429720E-05
  0.3484848E+00  0.0000000E+00  0.5050505E-02  0.4506972E-06  0.0000000E+00  0.1032118E-04
  0.3585859E+00  0.0000000E+00  0.5050505E-02  0.4625280E-06  0.0000000E+00  0.1123823E-04
  0.3686869E+00  0.0000000E+00  0.5050505E-02  0.4719367E-06  0.0000000E+00  0.1217671E-04
  0.3787879E+00  0.0000000E+00  0.5050505E-02  0.4780331E-06  0.0000000E+00  0.1313088E-04
  0.3888889E+00  0.0000000E+00  0.5050505E-02  0.4796980E-06  0.0000000E+00  0.1409295E-04
  0.3989899E+00  0.0000000E+00  0.5050505E-02  0.4755619E-06  0.0000000E+00  0.1505266E-04
  0.4090909E+00  0.0000000E+00  0.5050505E-02  0.4640115E-06  0.0000000E+00  0.1599671E-04
  0.4191919E+00  0.0000000E+00  0.5050505E-02  0.4432513E-06  0.0000000E+00  0.1690841E-04
  0.4292929E+00  0.0000000E+00  0.5050505E-02  0.4114505E-06  0.0000000E+00  0.1776738E-04
  0.4393939E+00  0.0000000E+00  0.5050505E-02  0.3670089E-06  0.0000000E+00  0.1854981E-04
  0.4494950E+00  0.0000000E+00  0.5050505E-02  0.3089541E-06  0.0000000E+00  0.1922929E-04
  0.4595959E+00  0.0000000E+00  0.5050505E-02  0.2374334E-06  0.0000000E+00  0.1977856E-04
  0.4696970E+00  0.0000000E+00  0.5050505E-02  0.1541741E-06  0.0000000E+00  0.2017226E-04
  0.4797980E+00  0.0000000E+00  0.5050505E-02  0.6268890E-07  0.0000000E+00  0.2039029E-04
  0.4898990E+00  0.0000000E+00  0.5050505E-02 -0.3202220E-07  0.0000000E+00  0.2042113E-04
  0.5000000E+00  0.0000000E+00  0.5050505E-02 -0.1243484E-06  0.0000000E+00  0.2026391E-04
  0.5101010E+00  0.0000000E+00  0.5050505E-02 -0.2092338E-06  0.0000000E+00  0.1992854E-04
  0.5202020E+00  0.0000000E+00  0.5050505E-02 -0.2830631E-06  0.0000000E+00  0.1943363E-04
  0.5303030E+00  0.0000000E+00  0.5050505E-02 -0.3439702E-06  0.0000000E+00  0.1880332E-04
  0.5404040E+00  0.0000000E+00  0.5050505E-02 -0.3916492E-06  0.0000000E+00  0.1806392E-04
  0.5505050E+00  0.0000000E+00  0.5050505E-02 -0.4269087E-06  0.0000000E+00  0.1724124E-04
  0.5606061E+00  0.0000000E+00  0.5050505E-02 -0.4511950E-06  0.0000000E+00  0.1635881E-04
  0.5707071E+00  0.0000000E+00  0.5050505E-02 -0.4662049E-06  0.0000000E+00  0.1543699E-04
  0.5808081E+00  0.0000000E+00  0.5050505E-02 -0.4736270E-06  0.0000000E+00  0.1449274E-04
  0.5909091E+00  0.0000000E+00  0.5050505E-02 -0.4749972E-06  0.0000000E+00  0.1353976E-04
  0.6010101E+00  0.0000000E+00  0.5050505E-02 -0.4716369E-06  0.0000000E+00  0.1258890E-04
  0.6111111E+00  0.0000000E+00  0.5050505E-02 -0.4646426E-06  0.0000000E+00  0.1164855E-04
  0.6212121E+00  0.0000000E+00  0.5050505E-02 -0.4549025E-06  0.0000000E+00  0.1072510E-04
  0.6313131E+00  0.0000000E+00  0.5050505E-02 -0.4431252E-06  0.0000000E+00  0.9823368E-05
  0.6414142E+00  0.0000000E+00  0.5050505E-02 -0.4298700E-06  0.0000000E+00  0.8946862E-05
  0.6515151E+00  0.0000000E+00  0.5050505E-02 -0.4155754E-06  0.0000000E+00  0.8098106E-05
  0.6616161E+00  0.0000000E+00  0.5050505E-02 -0.4005838E-06  0.0000000E+00  0.7278832E-05
  0.6717172E+00  0.0000000E+00  0.5050505E-02 -0.3851612E-06  0.0000000E+00  0.6490165E-05
  0.6818182E+00  0.0000000E+00  0.5050505E-02 -0.3695137E-06  0.0000000E+00  0.5732754E-05
  0.6919192E+00  0.0000000E+00  0.5050505E-02 -0.3538004E-06  0.0000000E+00  0.5006882E-05
  0.7020202E+00  0.0000000E+00  0.5050505E-02 -0.3381426E-06  0.0000000E+00  0.4312551E-05
  0.7121212E+00  0.0000000E+00  0.5050505E-02 -0.3226323E-06  0.0000000E+00  0.3649549E-05
  0.7222222E+00  0.0000000E+00  0.5050505E-02 -0.3073396E-06  0.0000000E+00  0.3017503E-05
  0.7323232E+00  0.0000000E+00  0.5050505E-02 -0.2923167E-06  0.0000000E+00  0.2415917E-05
  0.7424242E+00  0.0000000E+00  0.5050505E-02 -0.2776010E-06  0.0000000E+00  0.1844205E-05
  0.7525253E+00  0.0000000E+00  0.5050505E-02 -0.2632190E-06  0.0000000E+00  0.1301719E-05
  0.7626263E+00  0.0000000E+00  0.5050505E-02 -0.2491881E-06  0.0000000E+00  0.7877650E-06
  0.7727273E+00  0.0000000E+00  0.5050505E-02 -0.2355188E-06  0.0000000E+00  0.3016241E-06
  0.7828283E+00  0.0000000E+00  0.5050505E-02 -0.2222154E-06  0.0000000E+00 -0.1568935E-06
  0.7929293E+00  0.0000000E+00  0.5050505E-02 -0.2092121E-06  0.0000000E+00 -0.5884245E-06
  0.8030303E+00  0.0000000E+00  0.5050505E-02 -0.1965674E-06  0.0000000E+00 -0.9942331E-06
  0.8131313E+00  0.0000000E+00  0.5050505E-02 -0.1842705E-06  0.0000000E+00 -0.1375117E-05
  0.8232324E+00  0.0000000E+00  0.5050505E-02 -0.1723094E-06  0.0000000E+00 -0.1731757E-05
  0.8333333E+00  0.0000000E+00  0.5050505E-02 -0.1606710E-06  0.0000000E+00 -0.2064808E-05
  0.8434343E+00  0.0000000E+00  0.5050505E-02 -0.1493408E-06  0.0000000E+00 -0.2374898E-05
  0.8535354E+00  0.0000000E+00  0.5050505E-02 -0.1383033E-06  0.0000000E+00 -0.2662626E-05
  0.8636364E+00  0.0000000E+00  0.5050505E-02 -0.1275419E-06  0.0000000E+00 -0.2928558E-05
  0.8737374E+00  0.0000000E+00  0.5050505E-02 -0.1170396E-06  0.0000000E+00 -0.3173227E-05
  0.8838384E+00  0.0000000E+00  0.5050505E-02 -0.1067784E-06  0.0000000E+00 -0.3397132E-05
  0.8939394E+00  0.0000000E+00  0.5050505E-02 -0.9674015E-07  0.0000000E+00 -0.3600735E-05
  0.9040404E+00  0.0000000E+00  0.5050505E-02 -0.8690627E-07  0.0000000E+00 -0.3784463E-05
  0.9141414E+00  0.0000000E+00  0.5050505E-02 -0.7725785E-07  0.0000000E+00 -0.3948703E-05
  0.9242424E+00  0.0000000E+00  0.5050505E-02 -0.6777578E-07  0.0000000E+00 -0.4093807E-05
  0.9343435E+00  0.0000000E+00  0.5050505E-02 -0.5844079E-07  0.0000000E+00 -0.4220087E-05
  0.9444444E+00  0.0000000E+00  0.5050505E-02 -0.4923346E-07  0.0000000E+00 -0.4327817E-05
  0.9545454E+00  0.0000000E+00  0.5050505E-02 -0.4013427E-07  0.0000000E+00 -0.4417232E-05
  0.9646465E+00  0.0000000E+00  0.5050505E-02 -0.3112365E-07  0.0000000E+00 -0.4488529E-05
  0.9747475E+00  0.0000000E+00  0.5050505E-02 -0.2218194E-07  0.0000000E+00 -0.4541864E-05
  0.9848485E+00  0.0000000E+00  0.5050505E-02 -0.1328947E-07  0.0000000E+00 -0.4577355E-05
  0.9974747E+00  0.0000000E+00  0.5050505E-02 -0.4426541E-08  0.0000000E+00 -0.4595081E-05
  0.5050505E-02  0.0000000E+00  0.1515152E-01  0.1502873E-07  0.0000000E+00 -0.3797917E-05
  0.1515152E-01  0.0000000E+00  0.1515152E-01  0.4511856E-07  0.0000000E+00 -0.3777782E-05
  0.2525252E-01  0.0000000E+00  0.1515152E-01  0.7530549E-07  0.0000000E+00 -0.3737468E-05
  0.3535353E-01  0.0000000E+00  0.1515152E-01  0.1056542E-06  0.0000000E+00 -0.3676888E-05
  0.4545455E-01  0.0000000E+00  0.1515152E-01  0.1362291E-06  0.0000000E+00 -0.3595914E-05
  0.5555556E-01  0.0000000E+00  0.1515152E-01  0.1670944E-06  0.0000000E+00 -0.3494371E-05
  0.6565657E-01  0.0000000E+00  0.1515152E-01  0.1983140E-06  0.0000000E+00 -0.3372043E-05
  0.7575758E-01  0.0000000E+00  0.1515152E-01  0.2299510E-06  0.0000000E+00 -0.3228673E-05
  0.8585858E-01  0.0000000E+00  0.1515152E-01  0.2620680E-06  0.0000000E+00 -0.3063959E-05
  0.9595960E-01  0.0000000E+00  0.1515152E-01  0.2947269E-06  0.0000000E+00 -0.2877559E-05
  0.1060606E+00  0.0000000E+00  0.1515152E-01  0.3279882E-06  0.0000000E+00 -0.2669089E-05
  0.1161616E+00  0.0000000E+00  0.1515152E-01  0.3619112E-06  0.0000000E+00 -0.2438125E-05
  0.1262626E+00  0.0000000E+00  0.1515152E-01  0.3965539E-06  0.0000000E+00 -0.2184204E-05
  0.1363636E+00  0.0000000E+00  0.1515152E-01  0.4319721E-06  0.0000000E+00 -0.1906824E-05
  0.1464646E+00  0.0000000E+00  0.1515152E-01  0.4682193E-06  0.0000000E+00 -0.1605446E-05
  0.1565657E+00  0.0000000E+00  0.1515152E-01  0.5053462E-06  0.0000000E+00 -0.1279498E-05
  0.1666667E+00  0.0000000E+00  0.1515152E-01  0.5434005E-06  0.0000000E+00 -0.9283710E-06
  0.1767677E+00  0.0000000E+00  0.1515152E-01  0.5824268E-06  0.0000000E+00 -0.5514293E-06
  0.1868687E+00  0.0000000E+00  0.1515152E-01  0.6224682E-06  0.0000000E+00 -0.1479173E-06
  0.1969697E+00  0.0000000E+00  0.1515152E-01  0.6633730E-06  0.0000000E+00  0.2833741E-06
  0.2070707E+00  0.0000000E+00  0.1515152E-01  0.7053463E-06  0.0000000E+00  0.7430805E-06
  0.2171717E+00  0.0000000E+00  0.1515152E-01  0.7483935E-06  0.0000000E+00  0.1231427E-05
  0.2272727E+00  0.0000000E+00  0.1515152E-01  0.7925075E-06  0.0000000E+00  0.1749151E-05
  0.2373737E+00  0.0000000E+00  0.1515152E-01  0.8376658E-06  0.0000000E+00  0.2296985E-05
  0.2474747E+00  0.0000000E+00  0.1515152E-01  0.8838260E-06  0.0000000E+00  0.2875642E-05
  0.2575758E+00  0.0000000E+00  0.1515152E-01  0.9309202E-06  0.0000000E+00  0.3485804E-05
  0.2676768E+00  0.0000000E+00  0.1515152E-01  0.9788468E-06  0.0000000E+00  0.4128101E-05
  0.2777778E+00  0.0000000E+00  0.1515152E-01  0.1027460E-05  0.0000000E+00  0.4803089E-05
  0.2878788E+00  0.0000000E+00  0.1515152E-01  0.1076561E-05  0.0000000E+00  0.5511218E-05
  0.2979798E+00  0.0000000E+00  0.1515152E-01  0.1125876E-05  0.0000000E+00  0.6252790E-05
  0.3080808E+00  0.0000000E+00  0.1515152E-01  0.1175029E-05  0.0000000E+00  0.7027905E-05
  0.3181818E+00  0.0000000E+00  0.1515152E-01  0.1223517E-05  0.0000000E+00  0.7836384E-05
  0.3282828E+00  0.0000000E+00  0.1515152E-01  0.1270662E-05  0.0000000E+00  0.8677676E-05
  0.3383838E+00  0.0000000E+00  0.1515152E-01  0.1315563E-05  0.0000000E+00  0.9550726E-05
  0.3484848E+00  0.0000000E+00  0.1515152E-01  0.1357024E-05  0.0000000E+00  0.1045381E-04
  0.3585859E+00  0.0000000E+00  0.1515152E-01  0.1393470E-05  0.0000000E+00  0.1138430E-04
  0.3686869E+00  0.0000000E+00  0.1515152E-01  0.1422847E-05  0.0000000E+00  0.1233840E-04
  0.3787879E+00  0.0000000E+00  0.1515152E-01  0.1442507E-05  0.0000000E+00  0.1331076E-04
  0.3888889E+00  0.0000000E+00  0.1515152E-01  0.1449097E-05  0.0000000E+00  0.1429403E-04
  0.3989899E+00  0.0000000E+00  0.1515152E-01  0.1438480E-05  0.0000000E+00  0.1527833E-04
  0.4090909E+00  0.0000000E+00  0.1515152E-01  0.1405727E-05  0.0000000E+00  0.1625065E-04
  0.4191919E+00  0.0000000E+00  0.1515152E-01  0.1345271E-05  0.0000000E+00  0.1719427E-04
  0.4292929E+00  0.0000000E+00  0.1515152E-01  0.1251320E-05  0.0000000E+00  0.1808833E-04
  0.4393939E+00  0.0000000E+00  0.1515152E-01  0.1118642E-05  0.0000000E+00  0.1890775E-04
  0.4494950E+00  0.0000000E+00  0.1515152E-01  0.9438041E-06  0.0000000E+00  0.1962391E-04
  0.4595959E+00  0.0000000E+00  0.1515152E-01  0.7267854E-06  0.0000000E+00  0.2020636E-04
  0.4696970E+00  0.0000000E+00  0.1515152E-01  0.4725861E-06  0.0000000E+00  0.2062589E-04
  0.4797980E+00  0.0000000E+00  0.1515152E-01  0.1920952E-06  0.0000000E+00  0.2085873E-04
  0.4898990E+00  0.0000000E+00  0.1515152E-01 -0.9873227E-07  0.0000000E+00  0.2089103E-04
  0.5000000E+00  0.0000000E+00  0.1515152E-01 -0.3818179E-06  0.0000000E+00  0.2072185E-04
  0.5101010E+00  0.0000000E+00  0.1515152E-01 -0.6410322E-06  0.0000000E+00  0.2036327E-04
  0.5202020E+00  0.0000000E+00  0.1515152E-01 -0.8651627E-06  0.0000000E+00  0.1983747E-04
  0.5303030E+00  0.0000000E+00  0.1515152E-01 -0.1048775E-05  0.0000000E+00  0.1917234E-04
  0.5404040E+00  0.0000000E+00  0.1515152E-01 -0.1191395E-05  0.0000000E+00  0.1839735E-04
  0.5505050E+00  0.0000000E+00  0.1515152E-01 -0.1295947E-05  0.0000000E+00  0.1754050E-04
  0.5606061E+00  0.0000000E+00  0.1515152E-01 -0.1367183E-05  0.0000000E+00  0.1662661E-04
  0.5707071E+00  0.0000000E+00  0.1515152E-01 -0.1410488E-05  0.0000000E+00  0.1567659E-04
  0.5808081E+00  0.0000000E+00  0.1515152E-01 -0.1431100E-05  0.0000000E+00  0.1470749E-04
  0.5909091E+00  0.0000000E+00  0.1515152E-01 -0.1433716E-05  0.0000000E+00  0.1373280E-04
  0.6010101E+00  0.0000000E+00  0.1515152E-01 -0.1422331E-05  0.0000000E+00  0.1276305E-04
  0.6111111E+00  0.0000000E+00  0.1515152E-01 -0.1400234E-05  0.0000000E+00  0.1180627E-04
  0.6212121E+00  0.0000000E+00  0.1515152E-01 -0.1370074E-05  0.0000000E+00  0.1086851E-04
  0.6313131E+00  0.0000000E+00  0.1515152E-01 -0.1333952E-05  0.0000000E+00  0.9954254E-05
  0.6414142E+00  0.0000000E+00  0.1515152E-01 -0.1293524E-05  0.0000000E+00  0.9066758E-05
  0.6515151E+00  0.0000000E+00  0.1515152E-01 -0.1250085E-05  0.0000000E+00  0.8208311E-05
  0.6616161E+00  0.0000000E+00  0.1515152E-01 -0.1204643E-05  0.0000000E+00  0.7380455E-05
  0.6717172E+00  0.0000000E+00  0.1515152E-01 -0.1157981E-05  0.0000000E+00  0.6584154E-05
  0.6818182E+00  0.0000000E+00  0.1515152E-01 -0.1110705E-05  0.0000000E+00  0.5819926E-05
  0.6919192E+00  0.0000000E+00  0.1515152E-01 -0.1063282E-05  0.0000000E+00  0.5087943E-05
  0.7020202E+00  0.0000000E+00  0.1515152E-01 -0.1016067E-05  0.0000000E+00  0.4388115E-05
  0.7121212E+00  0.0000000E+00  0.1515152E-01 -0.9693295E-06  0.0000000E+00  0.3720153E-05
  0.7222222E+00  0.0000000E+00  0.1515152E-01 -0.9232741E-06  0.0000000E+00  0.3083617E-05
  0.7323232E+00  0.0000000E+00  0.1515152E-01 -0.8780520E-06  0.0000000E+00  0.2477958E-05
  0.7424242E+00  0.0000000E+00  0.1515152E-01 -0.8337722E-06  0.0000000E+00  0.1902543E-05
  0.7525253E+00  0.0000000E+00  0.1515152E-01 -0.7905106E-06  0.0000000E+00  0.1356684E-05
  0.7626263E+00  0.0000000E+00  0.1515152E-01 -0.7483169E-06  0.0000000E+00  0.8396553E-06
  0.7727273E+00  0.0000000E+00  0.1515152E-01 -0.7072207E-06  0.0000000E+00  0.3507066E-06
  0.7828283E+00  0.0000000E+00  0.1515152E-01 -0.6672349E-06  0.0000000E+00 -0.1104430E-06
  0.7929293E+00  0.0000000E+00  0.1515152E-01 -0.6281621E-06  0.0000000E+00 -0.5443880E-06
  0.8030303E+00  0.0000000E+00  0.1515152E-01 -0.5901706E-06  0.0000000E+00 -0.9523489E-06
  0.8131313E+00  0.0000000E+00  0.1515152E-01 -0.5532276E-06  0.0000000E+00 -0.1335206E-05
  0.8232324E+00  0.0000000E+00  0.1515152E-01 -0.5172976E-06  0.0000000E+00 -0.1693652E-05
  0.8333333E+00  0.0000000E+00  0.1515152E-01 -0.4823407E-06  0.0000000E+00 -0.2028354E-05
  0.8434343E+00  0.0000000E+00  0.1515152E-01 -0.4483129E-06  0.0000000E+00 -0.2339951E-05
  0.8535354E+00  0.0000000E+00  0.1515152E-01 -0.4151670E-06  0.0000000E+00 -0.2629053E-05
  0.8636364E+00  0.0000000E+00  0.1515152E-01 -0.3828531E-06  0.0000000E+00 -0.2896234E-05
  0.8737374E+00  0.0000000E+00  0.1515152E-01 -0.3513191E-06  0.0000000E+00 -0.3142034E-05
  0.8838384E+00  0.0000000E+00  0.1515152E-01 -0.3205112E-06  0.0000000E+00 -0.3366961E-05
  0.8939394E+00  0.0000000E+00  0.1515152E-01 -0.2903745E-06  0.0000000E+00 -0.3571481E-05
  0.9040404E+00  0.0000000E+00  0.1515152E-01 -0.2608528E-06  0.0000000E+00 -0.3756026E-05
  0.9141414E+00  0.0000000E+00  0.1515152E-01 -0.2318891E-06  0.0000000E+00 -0.3920990E-05
  0.9242424E+00  0.0000000E+00  0.1515152E-01 -0.2034261E-06  0.0000000E+00 -0.4066728E-05
  0.9343435E+00  0.0000000E+00  0.1515152E-01 -0.1754055E-06  0.0000000E+00 -0.4193555E-05
  0.9444444E+00  0.0000000E+00  0.1515152E-01 -0.1477689E-06  0.0000000E+00 -0.4301748E-05
  0.9545454E+00  0.0000000E+00  0.1515152E-01 -0.1204577E-06  0.0000000E+00 -0.4391546E-05
  0.9646465E+00  0.0000000E+00  0.1515152E-01 -0.9341291E-07  0.0000000E+00 -0.4463146E-05
  0.9747475E+00  0.0000000E+00  0.1515152E-01 -0.6657540E-07  0.0000000E+00 -0.4516707E-05
  0.9848485E+00  0.0000000E+00  0.1515152E-01 -0.3988599E-07  0.0000000E+00 -0.4552349E-05
  0.9974747E+00  0.0000000E+00  0.1515152E-01 -0.1328546E-07  0.0000000E+00 -0.4570150E-05
  0.5050505E-02  0.0000000E+00  0.2525252E-01  0.2508571E-07  0.0000000E+00 -0.3743773E-05
  0.1515152E-01  0.0000000E+00  0.2525252E-01  0.7531141E-07  0.0000000E+00 -0.3723466E-05
  0.2525252E-01  0.0000000E+00  0.2525252E-01  0.1257000E-06  0.0000000E+00 -0.3682806E-05
  0.3535353E-01  0.0000000E+00  0.2525252E-01  0.1763600E-06  0.0000000E+00 -0.3621705E-05
  0.4545455E-01  0.0000000E+00  0.2525252E-01  0.2273994E-06  0.0000000E+00 -0.3540032E-05
  0.5555556E-01  0.0000000E+00  0.2525252E-01  0.2789262E-06  0.0000000E+00 -0.3437607E-05
  0.6565657E-01  0.0000000E+00  0.2525252E-01  0.3310472E-06  0.0000000E+00 -0.3314212E-05
  0.7575758E-01  0.0000000E+00  0.2525252E-01  0.3838689E-06  0.0000000E+00 -0.3169580E-05
  0.8585858E-01  0.0000000E+00  0.2525252E-01  0.4374963E-06  0.0000000E+00 -0.3003403E-05
  0.9595960E-01  0.0000000E+00  0.2525252E-01  0.4920334E-06  0.0000000E+00 -0.2815332E-05
  0.1060606E+00  0.0000000E+00  0.2525252E-01  0.5475822E-06  0.0000000E+00 -0.2604971E-05
  0.1161616E+00  0.0000000E+00  0.2525252E-01  0.6042430E-06  0.0000000E+00 -0.2371886E-05
  0.1262626E+00  0.0000000E+00  0.2525252E-01  0.6621133E-06  0.0000000E+00 -0.2115600E-05
  0.1363636E+00  0.0000000E+00  0.2525252E-01  0.7212877E-06  0.0000000E+00 -0.1835596E-05
  0.1464646E+00  0.0000000E+00  0.2525252E-01  0.7818569E-06  0.0000000E+00 -0.1531320E-05
  0.1565657E+00  0.0000000E+00  0.2525252E-01  0.8439074E-06  0.0000000E+00 -0.1202179E-05
  0.1666667E+00  0.0000000E+00  0.2525252E-01  0.9075196E-06  0.0000000E+00 -0.8475447E-06
  0.1767677E+00  0.0000000E+00  0.2525252E-01  0.9727675E-06  0.0000000E+00 -0.4667590E-06
  0.1868687E+00  0.0000000E+00  0.2525252E-01  0.1039718E-05  0.0000000E+00 -0.5891709E-07
  0.1969697E+00  0.0000000E+00  0.2525252E-01  0.1108151E-05  0.0000000E+00  0.3771024E-06
  0.2070707E+00  0.0000000E+00  0.2525252E-01  0.1178399E-05  0.0000000E+00  0.8418544E-06
  0.2171717E+00  0.0000000E+00  0.2525252E-01  0.1250474E-05  0.0000000E+00  0.1335733E-05
  0.2272727E+00  0.0000000E+00  0.2525252E-01  0.1324369E-05  0.0000000E+00  0.1859525E-05
  0.2373737E+00  0.0000000E+00  0.2525252E-01  0.1400054E-05  0.0000000E+00  0.2414019E-05
  0.2474747E+00  0.0000000E+00  0.2525252E-01  0.1477468E-05  0.0000000E+00  0.2999995E-05
  0.2575758E+00  0.0000000E+00  0.2525252E-01  0.1556510E-05  0.0000000E+00  0.3618218E-05
  0.2676768E+00  0.0000000E+00  0.2525252E-01  0.1637026E-05  0.0000000E+00  0.4269413E-05
  0.2777778E+00  0.0000000E+00  0.2525252E-01  0.1718793E-05  0.0000000E+00  0.4954254E-05
  0.2878788E+00  0.0000000E+00  0.2525252E-01  0.1801505E-05  0.0000000E+00  0.5673335E-05
  0.2979798E+00  0.0000000E+00  0.2525252E-01  0.1884733E-05  0.0000000E+00  0.6427133E-05
  0.3080808E+00  0.0000000E+00  0.2525252E-01  0.1967891E-05  0.0000000E+00  0.7215963E-05
  0.3181818E+00  0.0000000E+00  0.2525252E-01  0.2050186E-05  0.0000000E+00  0.8039913E-05
  0.3282828E+00  0.0000000E+00  0.2525252E-01  0.2130551E-05  0.0000000E+00  0.8898760E-05
  0.3383838E+00  0.0000000E+00  0.2525252E-01  0.2207554E-05  0.0000000E+00  0.9791857E-05
  0.3484848E+00  0.0000000E+00  0.2525252E-01  0.2279290E-05  0.0000000E+00  0.1071798E-04
  0.3585859E+00  0.0000000E+00  0.2525252E-01  0.2343231E-05  0.0000000E+00  0.1167512E-04
  0.3686869E+00  0.0000000E+00  0.2525252E-01  0.2396051E-05  0.0000000E+00  0.1266021E-04
  0.3787879E+00  0.0000000E+00  0.2525252E-01  0.2433420E-05  0.0000000E+00  0.1366873E-04
  0.3888889E+00  0.0000000E+00  0.2525252E-01  0.2449785E-05  0.0000000E+00  0.1469425E-04
  0.3989899E+00  0.0000000E+00  0.2525252E-01  0.2438172E-05  0.0000000E+00  0.1572780E-04
  0.4090909E+00  0.0000000E+00  0.2525252E-01  0.2390098E-05  0.0000000E+00  0.1675707E-04
  0.4191919E+00  0.0000000E+00  0.2525252E-01  0.2295706E-05  0.0000000E+00  0.1776552E-04
  0.4292929E+00  0.0000000E+00  0.2525252E-01  0.2144334E-05  0.0000000E+00  0.1873154E-04
  0.4393939E+00  0.0000000E+00  0.2525252E-01  0.1925769E-05  0.0000000E+00  0.1962774E-04
  0.4494950E+00  0.0000000E+00  0.2525252E-01  0.1632428E-05  0.0000000E+00  0.2042107E-04
  0.4595959E+00  0.0000000E+00  0.2525252E-01  0.1262484E-05  0.0000000E+00  0.2107428E-04
  0.4696970E+00  0.0000000E+00  0.2525252E-01  0.8234194E-06  0.0000000E+00  0.2154955E-04
  0.4797980E+00  0.0000000E+00  0.2525252E-01  0.3344988E-06  0.0000000E+00  0.2181458E-04
  0.4898990E+00  0.0000000E+00  0.2525252E-01 -0.1741603E-06  0.0000000E+00  0.2184991E-04
  0.5000000E+00  0.0000000E+00  0.2525252E-01 -0.6676582E-06  0.0000000E+00  0.2165443E-04
  0.5101010E+00  0.0000000E+00  0.2525252E-01 -0.1115559E-05  0.0000000E+00  0.2124554E-04
  0.5202020E+00  0.0000000E+00  0.2525252E-01 -0.1498006E-05  0.0000000E+00  0.2065369E-04
  0.5303030E+00  0.0000000E+00  0.2525252E-01 -0.1806732E-05  0.0000000E+00  0.1991520E-04
  0.5404040E+00  0.0000000E+00  0.2525252E-01 -0.2042666E-05  0.0000000E+00  0.1906624E-04
  0.5505050E+00  0.0000000E+00  0.2525252E-01 -0.2212480E-05  0.0000000E+00  0.1813926E-04
  0.5606061E+00  0.0000000E+00  0.2525252E-01 -0.2325543E-05  0.0000000E+00  0.1716143E-04
  0.5707071E+00  0.0000000E+00  0.2525252E-01 -0.2391797E-05  0.0000000E+00  0.1615454E-04
  0.5808081E+00  0.0000000E+00  0.2525252E-01 -0.2420538E-05  0.0000000E+00  0.1513559E-04
  0.5909091E+00  0.0000000E+00  0.2525252E-01 -0.2419861E-05  0.0000000E+00  0.1411753E-04
  0.6010101E+00  0.0000000E+00  0.2525252E-01 -0.2396509E-05  0.0000000E+00  0.1311014E-04
  0.6111111E+00  0.0000000E+00  0.2525252E-01 -0.2355947E-05  0.0000000E+00  0.1212066E-04
  0.6212121E+00  0.0000000E+00  0.2525252E-01 -0.2302526E-05  0.0000000E+00  0.1115443E-04
  0.6313131E+00  0.0000000E+00  0.2525252E-01 -0.2239671E-05  0.0000000E+00  0.1021529E-04
  0.6414142E+00  0.0000000E+00  0.2525252E-01 -0.2170061E-05  0.0000000E+00  0.9305944E-05
  0.6515151E+00  0.0000000E+00  0.2525252E-01 -0.2095783E-05  0.0000000E+00  0.8428223E-05
  0.6616161E+00  0.0000000E+00  0.2525252E-01 -0.2018458E-05  0.0000000E+00  0.7583291E-05
  0.6717172E+00  0.0000000E+00  0.2525252E-01 -0.1939341E-05  0.0000000E+00  0.6771796E-05
  0.6818182E+00  0.0000000E+00  0.2525252E-01 -0.1859400E-05  0.0000000E+00  0.5993993E-05
  0.6919192E+00  0.0000000E+00  0.2525252E-01 -0.1779379E-05  0.0000000E+00  0.5249837E-05
  0.7020202E+00  0.0000000E+00  0.2525252E-01 -0.1699844E-05  0.0000000E+00  0.4539056E-05
  0.7121212E+00  0.0000000E+00  0.2525252E-01 -0.1621221E-05  0.0000000E+00  0.3861205E-05
  0.7222222E+00  0.0000000E+00  0.2525252E-01 -0.1543831E-05  0.0000000E+00  0.3215718E-05
  0.7323232E+00  0.0000000E+00  0.2525252E-01 -0.1467912E-05  0.0000000E+00  0.2601933E-05
  0.7424242E+00  0.0000000E+00  0.2525252E-01 -0.1393631E-05  0.0000000E+00  0.2019130E-05
  0.7525253E+00  0.0000000E+00  0.2525252E-01 -0.1321104E-05  0.0000000E+00  0.1466540E-05
  0.7626263E+00  0.0000000E+00  0.2525252E-01 -0.1250407E-05  0.0000000E+00  0.9433711E-06
  0.7727273E+00  0.0000000E+00  0.2525252E-01 -0.1181581E-05  0.0000000E+00  0.4488178E-06
  0.7828283E+00  0.0000000E+00  0.2525252E-01 -0.1114647E-05  0.0000000E+00 -0.1758280E-07
  0.7929293E+00  0.0000000E+00  0.2525252E-01 -0.1049288E-05  0.0000000E+00 -0.4563492E-06
  0.8030303E+00  0.0000000E+00  0.2525252E-01 -0.9857405E-06  0.0000000E+00 -0.8686146E-06
  0.8131313E+00  0.0000000E+00  0.2525252E-01 -0.9239599E-06  0.0000000E+00 -0.1255416E-05
  0.8232324E+00  0.0000000E+00  0.2525252E-01 -0.8638872E-06  0.0000000E+00 -0.1617472E-05
  0.8333333E+00  0.0000000E+00  0.2525252E-01 -0.8054541E-06  0.0000000E+00 -0.1955474E-05
  0.8434343E+00  0.0000000E+00  0.2525252E-01 -0.7485852E-06  0.0000000E+00 -0.2270086E-05
  0.8535354E+00  0.0000000E+00  0.2525252E-01 -0.6931998E-06  0.0000000E+00 -0.2561933E-05
  0.8636364E+00  0.0000000E+00  0.2525252E-01 -0.6392131E-06  0.0000000E+00 -0.2831611E-05
  0.8737374E+00  0.0000000E+00  0.2525252E-01 -0.5865368E-06  0.0000000E+00 -0.3079674E-05
  0.8838384E+00  0.0000000E+00  0.2525252E-01 -0.5350801E-06  0.0000000E+00 -0.3306642E-05
  0.8939394E+00  0.0000000E+00  0.2525252E-01 -0.4847501E-06  0.0000000E+00 -0.3512996E-05
  0.9040404E+00  0.0000000E+00  0.2525252E-01 -0.4354522E-06  0.0000000E+00 -0.3699177E-05
  0.9141414E+00  0.0000000E+00  0.2525252E-01 -0.3870907E-06  0.0000000E+00 -0.3865589E-05
  0.9242424E+00  0.0000000E+00  0.2525252E-01 -0.3395687E-06  0.0000000E+00 -0.4012593E-05
  0.9343435E+00  0.0000000E+00  0.2525252E-01 -0.2927888E-06  0.0000000E+00 -0.4140515E-05
  0.9444444E+00  0.0000000E+00  0.2525252E-01 -0.2466529E-06  0.0000000E+00 -0.4249635E-05
  0.9545454E+00  0.0000000E+00  0.2525252E-01 -0.2010624E-06  0.0000000E+00 -0.4340198E-05
  0.9646465E+00  0.0000000E+00  0.2525252E-01 -0.1559185E-06  0.0000000E+00 -0.4412405E-05
  0.9747475E+00  0.0000000E+00  0.2525252E-01 -0.1111221E-06  0.0000000E+00 -0.4466419E-05
  0.9848485E+00  0.0000000E+00  0.2525252E-01 -0.6657392E-07  0.0000000E+00 -0.4502361E-05
  0.9974747E+00  0.0000000E+00  0.2525252E-01 -0.2217476E-07  0.0000000E+00 -0.4520311E-05
  0.5050505E-02  0.0000000E+00  0.3535353E-01  0.3522111E-07  0.0000000E+00 -0.3662649E-05
  0.1515152E-01  0.0000000E+00  0.3535353E-01  0.1057401E-06  0.0000000E+00 -0.3642082E-05
  0.2525252E-01  0.0000000E+00  0.3535353E-01  0.1764895E-06  0.0000000E+00 -0.3600904E-05
  0.3535353E-01  0.0000000E+00  0.3535353E-01  0.2476226E-06  0.0000000E+00 -0.3539023E-05
  0.4545455E-01  0.0000000E+00  0.3535353E-01  0.3192925E-06  0.0000000E+00 -0.3456301E-05
  0.5555556E-01  0.0000000E+00  0.3535353E-01  0.3916515E-06  0.0000000E+00 -0.3352556E-05
  0.6565657E-01  0.0000000E+00  0.3535353E-01  0.4648514E-06  0.0000000E+00 -0.3227559E-05
  0.7575758E-01  0.0000000E+00  0.3535353E-01  0.5390428E-06  0.0000000E+00 -0.3081037E-05
  0.8585858E-01  0.0000000E+00  0.3535353E-01  0.6143747E-06  0.0000000E+00 -0.2912670E-05
  0.9595960E-01  0.0000000E+00  0.3535353E-01  0.6909947E-06  0.0000000E+00 -0.2722094E-05
  0.1060606E+00  0.0000000E+00  0.3535353E-01  0.7690481E-06  0.0000000E+00 -0.2508901E-05
  0.1161616E+00  0.0000000E+00  0.3535353E-01  0.8486777E-06  0.0000000E+00 -0.2272638E-05
  0.1262626E+00  0.0000000E+00  0.3535353E-01  0.9300228E-06  0.0000000E+00 -0.2012810E-05
  0.1363636E+00  0.0000000E+00  0.3535353E-01  0.1013219E-05  0.0000000E+00 -0.1728878E-05
  0.1464646E+00  0.0000000E+00  0.3535353E-01  0.1098397E-05  0.0000000E+00 -0.1420262E-05
  0.1565657E+00  0.0000000E+00  0.3535353E-01  0.1185681E-05  0.0000000E+00 -0.1086340E-05
  0.1666667E+00  0.0000000E+00  0.3535353E-01  0.1275188E-05  0.0000000E+00 -0.7264521E-06
  0.1767677E+00  0.0000000E+00  0.3535353E-01  0.1367025E-05  0.0000000E+00 -0.3399009E-06
  0.1868687E+00  0.0000000E+00  0.3535353E-01  0.1461230E-05  0.0000000E+00  0.7441489E-07
  0.1969697E+00  0.0000000E+00  0.3535353E-01  0.1557642E-05  0.0000000E+00  0.5174870E-06
  0.2070707E+00  0.0000000E+00  0.3535353E-01  0.1656666E-05  0.0000000E+00  0.9897765E-06
  0.2171717E+00  0.0000000E+00  0.3535353E-01  0.1758319E-05  0.0000000E+00  0.1491920E-05
  0.2272727E+00  0.0000000E+00  0.3535353E-01  0.1862607E-05  0.0000000E+00  0.2024774E-05
  0.2373737E+00  0.0000000E+00  0.3535353E-01  0.1969503E-05  0.0000000E+00  0.2589208E-05
  0.2474747E+00  0.0000000E+00  0.3535353E-01  0.2078945E-05  0.0000000E+00  0.3186103E-05
  0.2575758E+00  0.0000000E+00  0.3535353E-01  0.2190814E-05  0.0000000E+00  0.3816338E-05
  0.2676768E+00  0.0000000E+00  0.3535353E-01  0.2304927E-05  0.0000000E+00  0.4480783E-05
  0.2777778E+00  0.0000000E+00  0.3535353E-01  0.2421013E-05  0.0000000E+00  0.5180282E-05
  0.2878788E+00  0.0000000E+00  0.3535353E-01  0.2538690E-05  0.0000000E+00  0.5915639E-05
  0.2979798E+00  0.0000000E+00  0.3535353E-01  0.2657422E-05  0.0000000E+00  0.6687585E-05