title = "dataset water"
variables = "x", "y", "z", "vx", "vy", "vz"
zone t = "velocities, solution time =  5.800E+01 days        " i =   99, j =   99, k =    1,  f=point
  0.5050505E-02  0.0000000E+00  0.5050505E-02  0.2184593E-06  0.0000000E+00  0.2612256E-03
  0.1515152E-01  0.0000000E+00  0.5050505E-02  0.6571691E-06  0.0000000E+00  0.2621322E-03
  0.2525252E-01  0.0000000E+00  0.5050505E-02  0.1101352E-05  0.0000000E+00  0.2639531E-03
  0.3535353E-01  0.0000000E+00  0.5050505E-02  0.1554898E-05  0.0000000E+00  0.2667042E-03
  0.4545455E-01  0.0000000E+00  0.5050505E-02  0.2022014E-05  0.0000000E+00  0.2704101E-03
  0.5555556E-01  0.0000000E+00  0.5050505E-02  0.2507366E-05  0.0000000E+00  0.2751050E-03
  0.6565657E-01  0.0000000E+00  0.5050505E-02  0.3016245E-05  0.0000000E+00  0.2808336E-03
  0.7575758E-01  0.0000000E+00  0.5050505E-02  0.3554781E-05  0.0000000E+00  0.2876533E-03
  0.8585858E-01  0.0000000E+00  0.5050505E-02  0.4130215E-05  0.0000000E+00  0.2956358E-03
  0.9595960E-01  0.0000000E+00  0.5050505E-02  0.4751257E-05  0.0000000E+00  0.3048700E-03
  0.1060606E+00  0.0000000E+00  0.5050505E-02  0.5428564E-05  0.0000000E+00  0.3154659E-03
  0.1161616E+00  0.0000000E+00  0.5050505E-02  0.6175395E-05  0.0000000E+00  0.3275597E-03
  0.1262626E+00  0.0000000E+00  0.5050505E-02  0.7008510E-05  0.0000000E+00  0.3413204E-03
  0.1363636E+00  0.0000000E+00  0.5050505E-02  0.7949416E-05  0.0000000E+00  0.3569588E-03
  0.1464646E+00  0.0000000E+00  0.5050505E-02  0.9026035E-05  0.0000000E+00  0.3747401E-03
  0.1565657E+00  0.0000000E+00  0.5050505E-02  0.1027473E-04  0.0000000E+00  0.3950008E-03
  0.1666667E+00  0.0000000E+00  0.5050505E-02  0.1174199E-04  0.0000000E+00  0.4181694E-03
  0.1767677E+00  0.0000000E+00  0.5050505E-02  0.1348279E-04  0.0000000E+00  0.4447885E-03
  0.1868687E+00  0.0000000E+00  0.5050505E-02  0.1554592E-04  0.0000000E+00  0.4755206E-03
  0.1969697E+00  0.0000000E+00  0.5050505E-02  0.1791665E-04  0.0000000E+00  0.5110785E-03
  0.2070707E+00  0.0000000E+00  0.5050505E-02  0.2034184E-04  0.0000000E+00  0.5519068E-03
  0.2171717E+00  0.0000000E+00  0.5050505E-02  0.2191848E-04  0.0000000E+00  0.5972249E-03
  0.2272727E+00  0.0000000E+00  0.5050505E-02  0.2079692E-04  0.0000000E+00  0.6432721E-03
  0.2373737E+00  0.0000000E+00  0.5050505E-02  0.1948905E-04  0.0000000E+00  0.6869393E-03
  0.2474747E+00  0.0000000E+00  0.5050505E-02  0.1932684E-04  0.0000000E+00  0.7292358E-03
  0.2575758E+00  0.0000000E+00  0.5050505E-02  0.2013450E-04  0.0000000E+00  0.7724554E-03
  0.2676768E+00  0.0000000E+00  0.5050505E-02  0.2142213E-04  0.0000000E+00  0.8182054E-03
  0.2777778E+00  0.0000000E+00  0.5050505E-02  0.2294469E-04  0.0000000E+00  0.8673157E-03
  0.2878788E+00  0.0000000E+00  0.5050505E-02  0.2464283E-04  0.0000000E+00  0.9202988E-03
  0.2979798E+00  0.0000000E+00  0.5050505E-02  0.2667606E-04  0.0000000E+00  0.9777963E-03
  0.3080808E+00  0.0000000E+00  0.5050505E-02  0.2946025E-04  0.0000000E+00  0.1041122E-02
  0.3181818E+00  0.0000000E+00  0.5050505E-02  0.3360401E-04  0.0000000E+00  0.1112800E-02
  0.3282828E+00  0.0000000E+00  0.5050505E-02  0.3897963E-04  0.0000000E+00  0.1196001E-02
  0.3383838E+00  0.0000000E+00  0.5050505E-02  0.3883944E-04  0.0000000E+00  0.1286045E-02
  0.3484848E+00  0.0000000E+00  0.5050505E-02  0.3836547E-04  0.0000000E+00  0.1376318E-02
  0.3585859E+00  0.0000000E+00  0.5050505E-02  0.4388863E-04  0.0000000E+00  0.1473546E-02
  0.3686869E+00  0.0000000E+00  0.5050505E-02  0.6761944E-04  0.0000000E+00  0.1606968E-02
  0.3787879E+00  0.0000000E+00  0.5050505E-02  0.6739206E-04  0.0000000E+00  0.1770804E-02
  0.3888889E+00  0.0000000E+00  0.5050505E-02  0.5874445E-04  0.0000000E+00  0.1926672E-02
  0.3989899E+00  0.0000000E+00  0.5050505E-02  0.9031673E-04  0.0000000E+00  0.2114614E-02
  0.4090909E+00  0.0000000E+00  0.5050505E-02  0.8554912E-04  0.0000000E+00  0.2340645E-02
  0.4191919E+00  0.0000000E+00  0.5050505E-02  0.1117611E-03  0.0000000E+00  0.2601271E-02
  0.4292929E+00  0.0000000E+00  0.5050505E-02  0.9330100E-04  0.0000000E+00  0.2879234E-02
  0.4393939E+00  0.0000000E+00  0.5050505E-02  0.1010343E-03  0.0000000E+00  0.3151390E-02
  0.4494950E+00  0.0000000E+00  0.5050505E-02  0.1947962E-03  0.0000000E+00  0.3580020E-02
  0.4595959E+00  0.0000000E+00  0.5050505E-02  0.2600267E-03  0.0000000E+00  0.4269879E-02
  0.4696970E+00  0.0000000E+00  0.5050505E-02 -0.3153746E-04  0.0000000E+00  0.4621700E-02
  0.4797980E+00  0.0000000E+00  0.5050505E-02 -0.8561876E-04  0.0000000E+00  0.4429579E-02
  0.4898990E+00  0.0000000E+00  0.5050505E-02 -0.1552458E-03  0.0000000E+00  0.4050099E-02
  0.5000000E+00  0.0000000E+00  0.5050505E-02 -0.1762844E-03  0.0000000E+00  0.3551836E-02
  0.5101010E+00  0.0000000E+00  0.5050505E-02 -0.8483640E-04  0.0000000E+00  0.3172756E-02
  0.5202020E+00  0.0000000E+00  0.5050505E-02 -0.9218206E-04  0.0000000E+00  0.2923921E-02
  0.5303030E+00  0.0000000E+00  0.5050505E-02 -0.5322356E-04  0.0000000E+00  0.2723434E-02
  0.5404040E+00  0.0000000E+00  0.5050505E-02 -0.5535826E-04  0.0000000E+00  0.2576469E-02
  0.5505050E+00  0.0000000E+00  0.5050505E-02 -0.9238735E-04  0.0000000E+00  0.2381406E-02
  0.5606061E+00  0.0000000E+00  0.5050505E-02 -0.8677443E-04  0.0000000E+00  0.2150048E-02
  0.5707071E+00  0.0000000E+00  0.5050505E-02 -0.7686190E-04  0.0000000E+00  0.1943557E-02
  0.5808081E+00  0.0000000E+00  0.5050505E-02 -0.8388086E-04  0.0000000E+00  0.1745471E-02
  0.5909091E+00  0.0000000E+00  0.5050505E-02 -0.6508776E-04  0.0000000E+00  0.1565354E-02
  0.6010101E+00  0.0000000E+00  0.5050505E-02 -0.4724962E-04  0.0000000E+00  0.1431623E-02
  0.6111111E+00  0.0000000E+00  0.5050505E-02 -0.3268588E-04  0.0000000E+00  0.1337518E-02
  0.6212121E+00  0.0000000E+00  0.5050505E-02 -0.2202969E-04  0.0000000E+00  0.1273594E-02
  0.6313131E+00  0.0000000E+00  0.5050505E-02 -0.6544325E-04  0.0000000E+00  0.1173087E-02
  0.6414142E+00  0.0000000E+00  0.5050505E-02 -0.4340292E-04  0.0000000E+00  0.1049143E-02
  0.6515151E+00  0.0000000E+00  0.5050505E-02 -0.3433602E-04  0.0000000E+00  0.9615840E-03
  0.6616161E+00  0.0000000E+00  0.5050505E-02 -0.2927833E-04  0.0000000E+00  0.8905480E-03
  0.6717172E+00  0.0000000E+00  0.5050505E-02 -0.2601064E-04  0.0000000E+00  0.8292611E-03
  0.6818182E+00  0.0000000E+00  0.5050505E-02 -0.2379183E-04  0.0000000E+00  0.7744172E-03
  0.6919192E+00  0.0000000E+00  0.5050505E-02 -0.2219207E-04  0.0000000E+00  0.7240823E-03
  0.7020202E+00  0.0000000E+00  0.5050505E-02 -0.2088177E-04  0.0000000E+00  0.6771960E-03
  0.7121212E+00  0.0000000E+00  0.5050505E-02 -0.1964177E-04  0.0000000E+00  0.6333163E-03
  0.7222222E+00  0.0000000E+00  0.5050505E-02 -0.1837287E-04  0.0000000E+00  0.5923541E-03
  0.7323232E+00  0.0000000E+00  0.5050505E-02 -0.1705413E-04  0.0000000E+00  0.5543533E-03
  0.7424242E+00  0.0000000E+00  0.5050505E-02 -0.1570840E-04  0.0000000E+00  0.5193576E-03
  0.7525253E+00  0.0000000E+00  0.5050505E-02 -0.1437485E-04  0.0000000E+00  0.4873470E-03
  0.7626263E+00  0.0000000E+00  0.5050505E-02 -0.1309061E-04  0.0000000E+00  0.4582242E-03
  0.7727273E+00  0.0000000E+00  0.5050505E-02 -0.1188227E-04  0.0000000E+00  0.4318283E-03
  0.7828283E+00  0.0000000E+00  0.5050505E-02 -0.1076455E-04  0.0000000E+00  0.4079599E-03
  0.7929293E+00  0.0000000E+00  0.5050505E-02 -0.9742346E-05  0.0000000E+00  0.3864031E-03
  0.8030303E+00  0.0000000E+00  0.5050505E-02 -0.8813809E-05  0.0000000E+00  0.3669427E-03
  0.8131313E+00  0.0000000E+00  0.5050505E-02 -0.7973031E-05  0.0000000E+00  0.3493752E-03
  0.8232324E+00  0.0000000E+00  0.5050505E-02 -0.7212083E-05  0.0000000E+00  0.3335145E-03
  0.8333333E+00  0.0000000E+00  0.5050505E-02 -0.6522331E-05  0.0000000E+00  0.3191938E-03
  0.8434343E+00  0.0000000E+00  0.5050505E-02 -0.5895237E-05  0.0000000E+00  0.3062665E-03
  0.8535354E+00  0.0000000E+00  0.5050505E-02 -0.5322783E-05  0.0000000E+00  0.2946045E-03
  0.8636364E+00  0.0000000E+00  0.5050505E-02 -0.4797670E-05  0.0000000E+00  0.2840969E-03
  0.8737374E+00  0.0000000E+00  0.5050505E-02 -0.4313380E-05  0.0000000E+00  0.2746481E-03
  0.8838384E+00  0.0000000E+00  0.5050505E-02 -0.3864155E-05  0.0000000E+00  0.2661762E-03
  0.8939394E+00  0.0000000E+00  0.5050505E-02 -0.3444943E-05  0.0000000E+00  0.2586109E-03
  0.9040404E+00  0.0000000E+00  0.5050505E-02 -0.3051320E-05  0.0000000E+00  0.2518925E-03
  0.9141414E+00  0.0000000E+00  0.5050505E-02 -0.2679412E-05  0.0000000E+00  0.2459700E-03
  0.9242424E+00  0.0000000E+00  0.5050505E-02 -0.2325819E-05  0.0000000E+00  0.2408005E-03
  0.9343435E+00  0.0000000E+00  0.5050505E-02 -0.1987542E-05  0.0000000E+00  0.2363480E-03
  0.9444444E+00  0.0000000E+00  0.5050505E-02 -0.1661913E-05  0.0000000E+00  0.2325826E-03
  0.9545454E+00  0.0000000E+00  0.5050505E-02 -0.1346545E-05  0.0000000E+00  0.2294797E-03
  0.9646465E+00  0.0000000E+00  0.5050505E-02 -0.1039272E-05  0.0000000E+00  0.2270197E-03
  0.9747475E+00  0.0000000E+00  0.5050505E-02 -0.7381066E-06  0.0000000E+00  0.2251875E-03
  0.9848485E+00  0.0000000E+00  0.5050505E-02 -0.4411968E-06  0.0000000E+00  0.2239720E-03
  0.9974747E+00  0.0000000E+00  0.5050505E-02 -0.1467915E-06  0.0000000E+00  0.2233660E-03
  0.5050505E-02  0.0000000E+00  0.1515152E-01  0.6532107E-06  0.0000000E+00  0.2606690E-03
  0.1515152E-01  0.0000000E+00  0.1515152E-01  0.1964981E-05  0.0000000E+00  0.2615700E-03
  0.2525252E-01  0.0000000E+00  0.1515152E-01  0.3293062E-05  0.0000000E+00  0.2633793E-03
  0.3535353E-01  0.0000000E+00  0.1515152E-01  0.4649016E-05  0.0000000E+00  0.2661124E-03
  0.4545455E-01  0.0000000E+00  0.1515152E-01  0.6045335E-05  0.0000000E+00  0.2697932E-03
  0.5555556E-01  0.0000000E+00  0.1515152E-01  0.7495859E-05  0.0000000E+00  0.2744550E-03
  0.6565657E-01  0.0000000E+00  0.1515152E-01  0.9016265E-05  0.0000000E+00  0.2801412E-03
  0.7575758E-01  0.0000000E+00  0.1515152E-01  0.1062470E-04  0.0000000E+00  0.2869074E-03
  0.8585858E-01  0.0000000E+00  0.1515152E-01  0.1234255E-04  0.0000000E+00  0.2948229E-03
  0.9595960E-01  0.0000000E+00  0.1515152E-01  0.1419552E-04  0.0000000E+00  0.3039737E-03
  0.1060606E+00  0.0000000E+00  0.1515152E-01  0.1621498E-04  0.0000000E+00  0.3144657E-03
  0.1161616E+00  0.0000000E+00  0.1515152E-01  0.1843990E-04  0.0000000E+00  0.3264292E-03
  0.1262626E+00  0.0000000E+00  0.1515152E-01  0.2091942E-04  0.0000000E+00  0.3400255E-03
  0.1363636E+00  0.0000000E+00  0.1515152E-01  0.2371655E-04  0.0000000E+00  0.3554549E-03
  0.1464646E+00  0.0000000E+00  0.1515152E-01  0.2691327E-04  0.0000000E+00  0.3729686E-03
  0.1565657E+00  0.0000000E+00  0.1515152E-01  0.3061725E-04  0.0000000E+00  0.3928851E-03
  0.1666667E+00  0.0000000E+00  0.1515152E-01  0.3496971E-04  0.0000000E+00  0.4156151E-03
  0.1767677E+00  0.0000000E+00  0.1515152E-01  0.4014990E-04  0.0000000E+00  0.4416999E-03
  0.1868687E+00  0.0000000E+00  0.1515152E-01  0.4635844E-04  0.0000000E+00  0.4718723E-03
  0.1969697E+00  0.0000000E+00  0.1515152E-01  0.5371493E-04  0.0000000E+00  0.5071475E-03
  0.2070707E+00  0.0000000E+00  0.1515152E-01  0.6183974E-04  0.0000000E+00  0.5488580E-03
  0.2171717E+00  0.0000000E+00  0.1515152E-01  0.6827953E-04  0.0000000E+00  0.5978176E-03
  0.2272727E+00  0.0000000E+00  0.1515152E-01  0.6253435E-04  0.0000000E+00  0.6468465E-03
  0.2373737E+00  0.0000000E+00  0.1515152E-01  0.5736237E-04  0.0000000E+00  0.6896492E-03
  0.2474747E+00  0.0000000E+00  0.1515152E-01  0.5702942E-04  0.0000000E+00  0.7299211E-03
  0.2575758E+00  0.0000000E+00  0.1515152E-01  0.5988802E-04  0.0000000E+00  0.7717776E-03
  0.2676768E+00  0.0000000E+00  0.1515152E-01  0.6395416E-04  0.0000000E+00  0.8168953E-03
  0.2777778E+00  0.0000000E+00  0.1515152E-01  0.6854891E-04  0.0000000E+00  0.8656724E-03
  0.2878788E+00  0.0000000E+00  0.1515152E-01  0.7346663E-04  0.0000000E+00  0.9182149E-03
  0.2979798E+00  0.0000000E+00  0.1515152E-01  0.7915601E-04  0.0000000E+00  0.9746867E-03
  0.3080808E+00  0.0000000E+00  0.1515152E-01  0.8692510E-04  0.0000000E+00  0.1035950E-02
  0.3181818E+00  0.0000000E+00  0.1515152E-01  0.9941545E-04  0.0000000E+00  0.1105070E-02
  0.3282828E+00  0.0000000E+00  0.1515152E-01  0.1213214E-03  0.0000000E+00  0.1192572E-02
  0.3383838E+00  0.0000000E+00  0.1515152E-01  0.1162105E-03  0.0000000E+00  0.1288459E-02
  0.3484848E+00  0.0000000E+00  0.1515152E-01  0.1092978E-03  0.0000000E+00  0.1373036E-02
  0.3585859E+00  0.0000000E+00  0.1515152E-01  0.1155798E-03  0.0000000E+00  0.1446006E-02
  0.3686869E+00  0.0000000E+00  0.1515152E-01  0.1472142E-03  0.0000000E+00  0.1495334E-02
  0.3787879E+00  0.0000000E+00  0.1515152E-01  0.1534658E-03  0.0000000E+00  0.1534452E-02
  0.3888889E+00  0.0000000E+00  0.1515152E-01  0.1703836E-03  0.0000000E+00  0.1623765E-02
  0.3989899E+00  0.0000000E+00  0.1515152E-01  0.2268995E-03  0.0000000E+00  0.1748323E-02
  0.4090909E+00  0.0000000E+00  0.1515152E-01  0.2433738E-03  0.0000000E+00  0.1900324E-02
  0.4191919E+00  0.0000000E+00  0.1515152E-01  0.2972906E-03  0.0000000E+00  0.2091507E-02
  0.4292929E+00  0.0000000E+00  0.1515152E-01  0.2986605E-03  0.0000000E+00  0.2342711E-02
  0.4393939E+00  0.0000000E+00  0.1515152E-01  0.3561662E-03  0.0000000E+00  0.2716007E-02
  0.4494950E+00  0.0000000E+00  0.1515152E-01  0.5388630E-03  0.0000000E+00  0.3165371E-02
  0.4595959E+00  0.0000000E+00  0.1515152E-01  0.5899792E-03  0.0000000E+00  0.3525137E-02
  0.4696970E+00  0.0000000E+00  0.1515152E-01  0.9708608E-04  0.0000000E+00  0.3938995E-02
  0.4797980E+00  0.0000000E+00  0.1515152E-01 -0.3037780E-03  0.0000000E+00  0.3981522E-02
  0.4898990E+00  0.0000000E+00  0.1515152E-01 -0.4956573E-03  0.0000000E+00  0.3444061E-02
  0.5000000E+00  0.0000000E+00  0.1515152E-01 -0.3927696E-03  0.0000000E+00  0.3075928E-02
  0.5101010E+00  0.0000000E+00  0.1515152E-01 -0.2512958E-03  0.0000000E+00  0.2880484E-02
  0.5202020E+00  0.0000000E+00  0.1515152E-01 -0.2260774E-03  0.0000000E+00  0.2692314E-02
  0.5303030E+00  0.0000000E+00  0.1515152E-01 -0.1355178E-03  0.0000000E+00  0.2584365E-02
  0.5404040E+00  0.0000000E+00  0.1515152E-01 -0.1975146E-03  0.0000000E+00  0.2419887E-02
  0.5505050E+00  0.0000000E+00  0.1515152E-01 -0.2590928E-03  0.0000000E+00  0.2199128E-02
  0.5606061E+00  0.0000000E+00  0.1515152E-01 -0.2614842E-03  0.0000000E+00  0.1985535E-02
  0.5707071E+00  0.0000000E+00  0.1515152E-01 -0.2083573E-03  0.0000000E+00  0.1802514E-02
  0.5808081E+00  0.0000000E+00  0.1515152E-01 -0.2184039E-03  0.0000000E+00  0.1669870E-02
  0.5909091E+00  0.0000000E+00  0.1515152E-01 -0.1936909E-03  0.0000000E+00  0.1529812E-02
  0.6010101E+00  0.0000000E+00  0.1515152E-01 -0.1383380E-03  0.0000000E+00  0.1400319E-02
  0.6111111E+00  0.0000000E+00  0.1515152E-01 -0.9420423E-04  0.0000000E+00  0.1313424E-02
  0.6212121E+00  0.0000000E+00  0.1515152E-01 -0.1195197E-03  0.0000000E+00  0.1191804E-02
  0.6313131E+00  0.0000000E+00  0.1515152E-01 -0.1521209E-03  0.0000000E+00  0.1079935E-02
  0.6414142E+00  0.0000000E+00  0.1515152E-01 -0.1185441E-03  0.0000000E+00  0.1019225E-02
  0.6515151E+00  0.0000000E+00  0.1515152E-01 -0.9926170E-04  0.0000000E+00  0.9486379E-03
  0.6616161E+00  0.0000000E+00  0.1515152E-01 -0.8608478E-04  0.0000000E+00  0.8833793E-03
  0.6717172E+00  0.0000000E+00  0.1515152E-01 -0.7696842E-04  0.0000000E+00  0.8249007E-03
  0.6818182E+00  0.0000000E+00  0.1515152E-01 -0.7072196E-04  0.0000000E+00  0.7716868E-03
  0.6919192E+00  0.0000000E+00  0.1515152E-01 -0.6624326E-04  0.0000000E+00  0.7222157E-03
  0.7020202E+00  0.0000000E+00  0.1515152E-01 -0.6253177E-04  0.0000000E+00  0.6756388E-03
  0.7121212E+00  0.0000000E+00  0.1515152E-01 -0.5891855E-04  0.0000000E+00  0.6317456E-03
  0.7222222E+00  0.0000000E+00  0.1515152E-01 -0.5514280E-04  0.0000000E+00  0.5906474E-03
  0.7323232E+00  0.0000000E+00  0.1515152E-01 -0.5117322E-04  0.0000000E+00  0.5525117E-03
  0.7424242E+00  0.0000000E+00  0.1515152E-01 -0.4710430E-04  0.0000000E+00  0.5174441E-03
  0.7525253E+00  0.0000000E+00  0.1515152E-01 -0.4307146E-04  0.0000000E+00  0.4854403E-03
  0.7626263E+00  0.0000000E+00  0.1515152E-01 -0.3919484E-04  0.0000000E+00  0.4563911E-03
  0.7727273E+00  0.0000000E+00  0.1515152E-01 -0.3555623E-04  0.0000000E+00  0.4301142E-03
  0.7828283E+00  0.0000000E+00  0.1515152E-01 -0.3219827E-04  0.0000000E+00  0.4063883E-03
  0.7929293E+00  0.0000000E+00  0.1515152E-01 -0.2913308E-04  0.0000000E+00  0.3849813E-03
  0.8030303E+00  0.0000000E+00  0.1515152E-01 -0.2635267E-04  0.0000000E+00  0.3656669E-03
  0.8131313E+00  0.0000000E+00  0.1515152E-01 -0.2383752E-04  0.0000000E+00  0.3482355E-03
  0.8232324E+00  0.0000000E+00  0.1515152E-01 -0.2156260E-04  0.0000000E+00  0.3324977E-03
  0.8333333E+00  0.0000000E+00  0.1515152E-01 -0.1950129E-04  0.0000000E+00  0.3182861E-03
  0.8434343E+00  0.0000000E+00  0.1515152E-01 -0.1762755E-04  0.0000000E+00  0.3054542E-03
  0.8535354E+00  0.0000000E+00  0.1515152E-01 -0.1591714E-04  0.0000000E+00  0.2938749E-03
  0.8636364E+00  0.0000000E+00  0.1515152E-01 -0.1434810E-04  0.0000000E+00  0.2834386E-03
  0.8737374E+00  0.0000000E+00  0.1515152E-01 -0.1290087E-04  0.0000000E+00  0.2740510E-03
  0.8838384E+00  0.0000000E+00  0.1515152E-01 -0.1155823E-04  0.0000000E+00  0.2656312E-03
  0.8939394E+00  0.0000000E+00  0.1515152E-01 -0.1030508E-04  0.0000000E+00  0.2581103E-03
  0.9040404E+00  0.0000000E+00  0.1515152E-01 -0.9128232E-05  0.0000000E+00  0.2514294E-03
  0.9141414E+00  0.0000000E+00  0.1515152E-01 -0.8016122E-05  0.0000000E+00  0.2455386E-03
  0.9242424E+00  0.0000000E+00  0.1515152E-01 -0.6958617E-05  0.0000000E+00  0.2403956E-03
  0.9343435E+00  0.0000000E+00  0.1515152E-01 -0.5946776E-05  0.0000000E+00  0.2359651E-03
  0.9444444E+00  0.0000000E+00  0.1515152E-01 -0.4972654E-05  0.0000000E+00  0.2322175E-03
  0.9545454E+00  0.0000000E+00  0.1515152E-01 -0.4029135E-05  0.0000000E+00  0.2291289E-03
  0.9646465E+00  0.0000000E+00  0.1515152E-01 -0.3109766E-05  0.0000000E+00  0.2266799E-03
  0.9747475E+00  0.0000000E+00  0.1515152E-01 -0.2208623E-05  0.0000000E+00  0.2248557E-03
  0.9848485E+00  0.0000000E+00  0.1515152E-01 -0.1320190E-05  0.0000000E+00  0.2236454E-03
  0.9974747E+00  0.0000000E+00  0.1515152E-01 -0.4392424E-06  0.0000000E+00  0.2230420E-03
  0.5050505E-02  0.0000000E+00  0.2525252E-01  0.1082353E-05  0.0000000E+00  0.2595743E-03
  0.1515152E-01  0.0000000E+00  0.2525252E-01  0.3255859E-05  0.0000000E+00  0.2604641E-03
  0.2525252E-01  0.0000000E+00  0.2525252E-01  0.5456155E-05  0.0000000E+00  0.2622507E-03
  0.3535353E-01  0.0000000E+00  0.2525252E-01  0.7702160E-05  0.0000000E+00  0.2649486E-03
  0.4545455E-01  0.0000000E+00  0.2525252E-01  0.1001429E-04  0.0000000E+00  0.2685804E-03
  0.5555556E-01  0.0000000E+00  0.2525252E-01  0.1241511E-04  0.0000000E+00  0.2731775E-03
  0.6565657E-01  0.0000000E+00  0.2525252E-01  0.1493013E-04  0.0000000E+00  0.2787809E-03
  0.7575758E-01  0.0000000E+00  0.2525252E-01  0.1758881E-04  0.0000000E+00  0.2854429E-03
  0.8585858E-01  0.0000000E+00  0.2525252E-01  0.2042576E-04  0.0000000E+00  0.2932283E-03
  0.9595960E-01  0.0000000E+00  0.2525252E-01  0.2348243E-04  0.0000000E+00  0.3022172E-03
  0.1060606E+00  0.0000000E+00  0.2525252E-01  0.2680923E-04  0.0000000E+00  0.3125075E-03
  0.1161616E+00  0.0000000E+00  0.2525252E-01  0.3046845E-04  0.0000000E+00  0.3242190E-03
  0.1262626E+00  0.0000000E+00  0.2525252E-01  0.3453833E-04  0.0000000E+00  0.3374980E-03
  0.1363636E+00  0.0000000E+00  0.2525252E-01  0.3911881E-04  0.0000000E+00  0.3525247E-03
  0.1464646E+00  0.0000000E+00  0.2525252E-01  0.4433980E-04  0.0000000E+00  0.3695217E-03
  0.1565657E+00  0.0000000E+00  0.2525252E-01  0.5037341E-04  0.0000000E+00  0.3887685E-03
  0.1666667E+00  0.0000000E+00  0.2525252E-01  0.5745212E-04  0.0000000E+00  0.4106247E-03
  0.1767677E+00  0.0000000E+00  0.2525252E-01  0.6589634E-04  0.0000000E+00  0.4355762E-03
  0.1868687E+00  0.0000000E+00  0.2525252E-01  0.7615667E-04  0.0000000E+00  0.4643479E-03
  0.1969697E+00  0.0000000E+00  0.2525252E-01  0.8888171E-04  0.0000000E+00  0.4982343E-03
  0.2070707E+00  0.0000000E+00  0.2525252E-01  0.1050373E-03  0.0000000E+00  0.5402528E-03
  0.2171717E+00  0.0000000E+00  0.2525252E-01  0.1261536E-03  0.0000000E+00  0.5997383E-03
  0.2272727E+00  0.0000000E+00  0.2525252E-01  0.1037125E-03  0.0000000E+00  0.6577037E-03
  0.2373737E+00  0.0000000E+00  0.2525252E-01  0.9071467E-04  0.0000000E+00  0.6962578E-03
  0.2474747E+00  0.0000000E+00  0.2525252E-01  0.9172595E-04  0.0000000E+00  0.7308111E-03
  0.2575758E+00  0.0000000E+00  0.2525252E-01  0.9843039E-04  0.0000000E+00  0.7699079E-03
  0.2676768E+00  0.0000000E+00  0.2525252E-01  0.1058515E-03  0.0000000E+00  0.8141871E-03
  0.2777778E+00  0.0000000E+00  0.2525252E-01  0.1136457E-03  0.0000000E+00  0.8626966E-03
  0.2878788E+00  0.0000000E+00  0.2525252E-01  0.1213051E-03  0.0000000E+00  0.9148149E-03
  0.2979798E+00  0.0000000E+00  0.2525252E-01  0.1293989E-03  0.0000000E+00  0.9696618E-03
  0.3080808E+00  0.0000000E+00  0.2525252E-01  0.1397296E-03  0.0000000E+00  0.1026350E-02
  0.3181818E+00  0.0000000E+00  0.2525252E-01  0.1563763E-03  0.0000000E+00  0.1084010E-02
  0.3282828E+00  0.0000000E+00  0.2525252E-01  0.1874404E-03  0.0000000E+00  0.1140008E-02
  0.3383838E+00  0.0000000E+00  0.2525252E-01  0.1944709E-03  0.0000000E+00  0.1214149E-02
  0.3484848E+00  0.0000000E+00  0.2525252E-01  0.2057102E-03  0.0000000E+00  0.1337812E-02
  0.3585859E+00  0.0000000E+00  0.2525252E-01  0.1643524E-03  0.0000000E+00  0.1441052E-02
  0.3686869E+00  0.0000000E+00  0.2525252E-01  0.1716903E-03  0.0000000E+00  0.1484522E-02
  0.3787879E+00  0.0000000E+00  0.2525252E-01  0.1744091E-03  0.0000000E+00  0.1505816E-02
  0.3888889E+00  0.0000000E+00  0.2525252E-01  0.2414960E-03  0.0000000E+00  0.1534896E-02
  0.3989899E+00  0.0000000E+00  0.2525252E-01  0.3012044E-03  0.0000000E+00  0.1596893E-02
  0.4090909E+00  0.0000000E+00  0.2525252E-01  0.3580736E-03  0.0000000E+00  0.1690842E-02
  0.4191919E+00  0.0000000E+00  0.2525252E-01  0.4193651E-03  0.0000000E+00  0.1813577E-02
  0.4292929E+00  0.0000000E+00  0.2525252E-01  0.4875472E-03  0.0000000E+00  0.1986282E-02
  0.4393939E+00  0.0000000E+00  0.2525252E-01  0.6043782E-03  0.0000000E+00  0.2229544E-02
  0.4494950E+00  0.0000000E+00  0.2525252E-01  0.7024202E-03  0.0000000E+00  0.2405509E-02
  0.4595959E+00  0.0000000E+00  0.2525252E-01  0.7379061E-03  0.0000000E+00  0.2582146E-02
  0.4696970E+00  0.0000000E+00  0.2525252E-01  0.4740634E-03  0.0000000E+00  0.3118281E-02
  0.4797980E+00  0.0000000E+00  0.2525252E-01 -0.6061433E-03  0.0000000E+00  0.3196033E-02
  0.4898990E+00  0.0000000E+00  0.2525252E-01 -0.7377393E-03  0.0000000E+00  0.2762040E-02
  0.5000000E+00  0.0000000E+00  0.2525252E-01 -0.4448261E-03  0.0000000E+00  0.2613126E-02
  0.5101010E+00  0.0000000E+00  0.2525252E-01 -0.3463240E-03  0.0000000E+00  0.2544381E-02
  0.5202020E+00  0.0000000E+00  0.2525252E-01 -0.2555432E-03  0.0000000E+00  0.2519753E-02
  0.5303030E+00  0.0000000E+00  0.2525252E-01 -0.2382641E-03  0.0000000E+00  0.2414803E-02
  0.5404040E+00  0.0000000E+00  0.2525252E-01 -0.3465307E-03  0.0000000E+00  0.2209442E-02
  0.5505050E+00  0.0000000E+00  0.2525252E-01 -0.4334786E-03  0.0000000E+00  0.1982796E-02
  0.5606061E+00  0.0000000E+00  0.2525252E-01 -0.4045300E-03  0.0000000E+00  0.1775259E-02
  0.5707071E+00  0.0000000E+00  0.2525252E-01 -0.3382534E-03  0.0000000E+00  0.1607615E-02
  0.5808081E+00  0.0000000E+00  0.2525252E-01 -0.3046494E-03  0.0000000E+00  0.1468100E-02
  0.5909091E+00  0.0000000E+00  0.2525252E-01 -0.2736462E-03  0.0000000E+00  0.1401673E-02
  0.6010101E+00  0.0000000E+00  0.2525252E-01 -0.2187977E-03  0.0000000E+00  0.1335582E-02
  0.6111111E+00  0.0000000E+00  0.2525252E-01 -0.1925221E-03  0.0000000E+00  0.1209465E-02
  0.6212121E+00  0.0000000E+00  0.2525252E-01 -0.2127716E-03  0.0000000E+00  0.1106667E-02
  0.6313131E+00  0.0000000E+00  0.2525252E-01 -0.1949722E-03  0.0000000E+00  0.1060090E-02
  0.6414142E+00  0.0000000E+00  0.2525252E-01 -0.1806583E-03  0.0000000E+00  0.9999840E-03
  0.6515151E+00  0.0000000E+00  0.2525252E-01 -0.1584269E-03  0.0000000E+00  0.9327870E-03
  0.6616161E+00  0.0000000E+00  0.2525252E-01 -0.1389846E-03  0.0000000E+00  0.8718431E-03
  0.6717172E+00  0.0000000E+00  0.2525252E-01 -0.1251250E-03  0.0000000E+00  0.8173863E-03
  0.6818182E+00  0.0000000E+00  0.2525252E-01 -0.1158892E-03  0.0000000E+00  0.7670571E-03
  0.6919192E+00  0.0000000E+00  0.2525252E-01 -0.1094875E-03  0.0000000E+00  0.7191137E-03
  0.7020202E+00  0.0000000E+00  0.2525252E-01 -0.1040305E-03  0.0000000E+00  0.6729317E-03
  0.7121212E+00  0.0000000E+00  0.2525252E-01 -0.9831914E-04  0.0000000E+00  0.6288134E-03
  0.7222222E+00  0.0000000E+00  0.2525252E-01 -0.9209038E-04  0.0000000E+00  0.5873134E-03
  0.7323232E+00  0.0000000E+00  0.2525252E-01 -0.8539721E-04  0.0000000E+00  0.5488367E-03
  0.7424242E+00  0.0000000E+00  0.2525252E-01 -0.7848584E-04  0.0000000E+00  0.5135989E-03
  0.7525253E+00  0.0000000E+00  0.2525252E-01 -0.7164289E-04  0.0000000E+00  0.4816099E-03
  0.7626263E+00  0.0000000E+00  0.2525252E-01 -0.6509551E-04  0.0000000E+00  0.4527213E-03
  0.7727273E+00  0.0000000E+00  0.2525252E-01 -0.5898333E-04  0.0000000E+00  0.4266966E-03
  0.7828283E+00  0.0000000E+00  0.2525252E-01 -0.5336985E-04  0.0000000E+00  0.4032672E-03
  0.7929293E+00  0.0000000E+00  0.2525252E-01 -0.4826538E-04  0.0000000E+00  0.3821666E-03
  0.8030303E+00  0.0000000E+00  0.2525252E-01 -0.4364803E-04  0.0000000E+00  0.3631476E-03
  0.8131313E+00  0.0000000E+00  0.2525252E-01 -0.3947905E-04  0.0000000E+00  0.3459888E-03
  0.8232324E+00  0.0000000E+00  0.2525252E-01 -0.3571275E-04  0.0000000E+00  0.3304960E-03
  0.8333333E+00  0.0000000E+00  0.2525252E-01 -0.3230235E-04  0.0000000E+00  0.3165007E-03
  0.8434343E+00  0.0000000E+00  0.2525252E-01 -0.2920320E-04  0.0000000E+00  0.3038574E-03
  0.8535354E+00  0.0000000E+00  0.2525252E-01 -0.2637428E-04  0.0000000E+00  0.2924413E-03
  0.8636364E+00  0.0000000E+00  0.2525252E-01 -0.2377881E-04  0.0000000E+00  0.2821454E-03
  0.8737374E+00  0.0000000E+00  0.2525252E-01 -0.2138426E-04  0.0000000E+00  0.2728780E-03
  0.8838384E+00  0.0000000E+00  0.2525252E-01 -0.1916205E-04  0.0000000E+00  0.2645608E-03
  0.8939394E+00  0.0000000E+00  0.2525252E-01 -0.1708724E-04  0.0000000E+00  0.2571271E-03
  0.9040404E+00  0.0000000E+00  0.2525252E-01 -0.1513806E-04  0.0000000E+00  0.2505201E-03
  0.9141414E+00  0.0000000E+00  0.2525252E-01 -0.1329548E-04  0.0000000E+00  0.2446914E-03
  0.9242424E+00  0.0000000E+00  0.2525252E-01 -0.1154280E-04  0.0000000E+00  0.2396004E-03
  0.9343435E+00  0.0000000E+00  0.2525252E-01 -0.9865306E-05  0.0000000E+00  0.2352129E-03
  0.9444444E+00  0.0000000E+00  0.2525252E-01 -0.8249941E-05  0.0000000E+00  0.2315005E-03
  0.9545454E+00  0.0000000E+00  0.2525252E-01 -0.6684990E-05  0.0000000E+00  0.2284399E-03
  0.9646465E+00  0.0000000E+00  0.2525252E-01 -0.5159839E-05  0.0000000E+00  0.2260126E-03
  0.9747475E+00  0.0000000E+00  0.2525252E-01 -0.3664740E-05  0.0000000E+00  0.2242041E-03
  0.9848485E+00  0.0000000E+00  0.2525252E-01 -0.2190610E-05  0.0000000E+00  0.2230041E-03
  0.9974747E+00  0.0000000E+00  0.2525252E-01 -0.7288452E-06  0.0000000E+00  0.2224057E-03
  0.5050505E-02  0.0000000E+00  0.3535353E-01  0.1503431E-05  0.0000000E+00  0.2579643E-03
  0.1515152E-01  0.0000000E+00  0.3535353E-01  0.4522346E-05  0.0000000E+00  0.2588379E-03
  0.2525252E-01  0.0000000E+00  0.3535353E-01  0.7577898E-05  0.0000000E+00  0.2605915E-03
  0.3535353E-01  0.0000000E+00  0.3535353E-01  0.1069589E-04  0.0000000E+00  0.2632382E-03
  0.4545455E-01  0.0000000E+00  0.3535353E-01  0.1390408E-04  0.0000000E+00  0.2667989E-03
  0.5555556E-01  0.0000000E+00  0.3535353E-01  0.1723308E-04  0.0000000E+00  0.2713024E-03
  0.6565657E-01  0.0000000E+00  0.3535353E-01  0.2071739E-04  0.0000000E+00  0.2767862E-03
  0.7575758E-01  0.0000000E+00  0.3535353E-01  0.2439668E-04  0.0000000E+00  0.2832978E-03
  0.8585858E-01  0.0000000E+00  0.3535353E-01  0.2831739E-04  0.0000000E+00  0.2908959E-03
  0.9595960E-01  0.0000000E+00  0.3535353E-01  0.3253481E-04  0.0000000E+00  0.2996524E-03
  0.1060606E+00  0.0000000E+00  0.3535353E-01  0.3711580E-04  0.0000000E+00  0.3096543E-03
  0.1161616E+00  0.0000000E+00  0.3535353E-01  0.4214239E-04  0.0000000E+00  0.3210065E-03
  0.1262626E+00  0.0000000E+00  0.3535353E-01  0.4771675E-04  0.0000000E+00  0.3338354E-03
  0.1363636E+00  0.0000000E+00  0.3535353E-01  0.5396829E-04  0.0000000E+00  0.3482928E-03
  0.1464646E+00  0.0000000E+00  0.3535353E-01  0.6106382E-04  0.0000000E+00  0.3645616E-03
  0.1565657E+00  0.0000000E+00  0.3535353E-01  0.6922339E-04  0.0000000E+00  0.3828617E-03
  0.1666667E+00  0.0000000E+00  0.3535353E-01  0.7874582E-04  0.0000000E+00  0.4034604E-03
  0.1767677E+00  0.0000000E+00  0.3535353E-01  0.9005433E-04  0.0000000E+00  0.4266856E-03
  0.1868687E+00  0.0000000E+00  0.3535353E-01  0.1037884E-03  0.0000000E+00  0.4529471E-03
  0.1969697E+00  0.0000000E+00  0.3535353E-01  0.1210181E-03  0.0000000E+00  0.4827490E-03
  0.2070707E+00  0.0000000E+00  0.3535353E-01  0.1438317E-03  0.0000000E+00  0.5165444E-03
  0.2171717E+00  0.0000000E+00  0.3535353E-01  0.1771884E-03  0.0000000E+00  0.5534145E-03
  0.2272727E+00  0.0000000E+00  0.3535353E-01  0.1842915E-03  0.0000000E+00  0.6371075E-03
  0.2373737E+00  0.0000000E+00  0.3535353E-01  0.1112055E-03  0.0000000E+00  0.7082072E-03
  0.2474747E+00  0.0000000E+00  0.3535353E-01  0.1212274E-03  0.0000000E+00  0.7292919E-03
  0.2575758E+00  0.0000000E+00  0.3535353E-01  0.1363161E-03  0.0000000E+00  0.7652405E-03
  0.2676768E+00  0.0000000E+00  0.3535353E-01  0.1473534E-03  0.0000000E+00  0.8097571E-03
  0.2777778E+00  0.0000000E+00  0.3535353E-01  0.1587323E-03  0.0000000E+00  0.8587642E-03
  0.2878788E+00  0.0000000E+00  0.3535353E-01  0.1685231E-03  0.0000000E+00  0.9114433E-03
  0.2979798E+00  0.0000000E+00  0.3535353E-01  0.1773032E-03  0.0000000E+00  0.9656316E-03