title = "dataset water"
variables = "x", "y", "z", "vx", "vy", "vz"
zone t = "velocities, solution time =  1.800E+01 days        " i =   99, j =   99, k =    1,  f=point
  0.5050505E-02  0.0000000E+00  0.5050505E-02  0.5186194E-10  0.0000000E+00 -0.2134914E-04
  0.1515152E-01  0.0000000E+00  0.5050505E-02  0.1554625E-09  0.0000000E+00 -0.2134893E-04
  0.2525252E-01  0.0000000E+00  0.5050505E-02  0.2586810E-09  0.0000000E+00 -0.2134851E-04
  0.3535353E-01  0.0000000E+00  0.5050505E-02  0.3612592E-09  0.0000000E+00 -0.2134789E-04
  0.4545455E-01  0.0000000E+00  0.5050505E-02  0.4629366E-09  0.0000000E+00 -0.2134707E-04
  0.5555556E-01  0.0000000E+00  0.5050505E-02  0.5634475E-09  0.0000000E+00 -0.2134604E-04
  0.6565657E-01  0.0000000E+00  0.5050505E-02  0.6625202E-09  0.0000000E+00 -0.2134481E-04
  0.7575758E-01  0.0000000E+00  0.5050505E-02  0.7598757E-09  0.0000000E+00 -0.2134338E-04
  0.8585858E-01  0.0000000E+00  0.5050505E-02  0.8552272E-09  0.0000000E+00 -0.2134176E-04
  0.9595960E-01  0.0000000E+00  0.5050505E-02  0.9482789E-09  0.0000000E+00 -0.2133995E-04
  0.1060606E+00  0.0000000E+00  0.5050505E-02  0.1038726E-08  0.0000000E+00 -0.2133796E-04
  0.1161616E+00  0.0000000E+00  0.5050505E-02  0.1126254E-08  0.0000000E+00 -0.2133579E-04
  0.1262626E+00  0.0000000E+00  0.5050505E-02  0.1210538E-08  0.0000000E+00 -0.2133345E-04
  0.1363636E+00  0.0000000E+00  0.5050505E-02  0.1291246E-08  0.0000000E+00 -0.2133094E-04
  0.1464646E+00  0.0000000E+00  0.5050505E-02  0.1368036E-08  0.0000000E+00 -0.2132827E-04
  0.1565657E+00  0.0000000E+00  0.5050505E-02  0.1440557E-08  0.0000000E+00 -0.2132546E-04
  0.1666667E+00  0.0000000E+00  0.5050505E-02  0.1508455E-08  0.0000000E+00 -0.2132250E-04
  0.1767677E+00  0.0000000E+00  0.5050505E-02  0.1571368E-08  0.0000000E+00 -0.2131941E-04
  0.1868687E+00  0.0000000E+00  0.5050505E-02  0.1628934E-08  0.0000000E+00 -0.2131620E-04
  0.1969697E+00  0.0000000E+00  0.5050505E-02  0.1680788E-08  0.0000000E+00 -0.2131289E-04
  0.2070707E+00  0.0000000E+00  0.5050505E-02  0.1726571E-08  0.0000000E+00 -0.2130947E-04
  0.2171717E+00  0.0000000E+00  0.5050505E-02  0.1765927E-08  0.0000000E+00 -0.2130597E-04
  0.2272727E+00  0.0000000E+00  0.5050505E-02  0.1798511E-08  0.0000000E+00 -0.2130239E-04
  0.2373737E+00  0.0000000E+00  0.5050505E-02  0.1823991E-08  0.0000000E+00 -0.2129876E-04
  0.2474747E+00  0.0000000E+00  0.5050505E-02  0.1842051E-08  0.0000000E+00 -0.2129509E-04
  0.2575758E+00  0.0000000E+00  0.5050505E-02  0.1852399E-08  0.0000000E+00 -0.2129138E-04
  0.2676768E+00  0.0000000E+00  0.5050505E-02  0.1854768E-08  0.0000000E+00 -0.2128767E-04
  0.2777778E+00  0.0000000E+00  0.5050505E-02  0.1848922E-08  0.0000000E+00 -0.2128395E-04
  0.2878788E+00  0.0000000E+00  0.5050505E-02  0.1834662E-08  0.0000000E+00 -0.2128026E-04
  0.2979798E+00  0.0000000E+00  0.5050505E-02  0.1811829E-08  0.0000000E+00 -0.2127660E-04
  0.3080808E+00  0.0000000E+00  0.5050505E-02  0.1780310E-08  0.0000000E+00 -0.2127300E-04
  0.3181818E+00  0.0000000E+00  0.5050505E-02  0.1740040E-08  0.0000000E+00 -0.2126947E-04
  0.3282828E+00  0.0000000E+00  0.5050505E-02  0.1691012E-08  0.0000000E+00 -0.2126603E-04
  0.3383838E+00  0.0000000E+00  0.5050505E-02  0.1633272E-08  0.0000000E+00 -0.2126270E-04
  0.3484848E+00  0.0000000E+00  0.5050505E-02  0.1566931E-08  0.0000000E+00 -0.2125949E-04
  0.3585859E+00  0.0000000E+00  0.5050505E-02  0.1492161E-08  0.0000000E+00 -0.2125642E-04
  0.3686869E+00  0.0000000E+00  0.5050505E-02  0.1409199E-08  0.0000000E+00 -0.2125351E-04
  0.3787879E+00  0.0000000E+00  0.5050505E-02  0.1318352E-08  0.0000000E+00 -0.2125078E-04
  0.3888889E+00  0.0000000E+00  0.5050505E-02  0.1219991E-08  0.0000000E+00 -0.2124824E-04
  0.3989899E+00  0.0000000E+00  0.5050505E-02  0.1114552E-08  0.0000000E+00 -0.2124589E-04
  0.4090909E+00  0.0000000E+00  0.5050505E-02  0.1002538E-08  0.0000000E+00 -0.2124377E-04
  0.4191919E+00  0.0000000E+00  0.5050505E-02  0.8845118E-09  0.0000000E+00 -0.2124188E-04
  0.4292929E+00  0.0000000E+00  0.5050505E-02  0.7610935E-09  0.0000000E+00 -0.2124023E-04
  0.4393939E+00  0.0000000E+00  0.5050505E-02  0.6329568E-09  0.0000000E+00 -0.2123883E-04
  0.4494950E+00  0.0000000E+00  0.5050505E-02  0.5008225E-09  0.0000000E+00 -0.2123770E-04
  0.4595959E+00  0.0000000E+00  0.5050505E-02  0.3654519E-09  0.0000000E+00 -0.2123683E-04
  0.4696970E+00  0.0000000E+00  0.5050505E-02  0.2276397E-09  0.0000000E+00 -0.2123623E-04
  0.4797980E+00  0.0000000E+00  0.5050505E-02  0.8820595E-10  0.0000000E+00 -0.2123592E-04
  0.4898990E+00  0.0000000E+00  0.5050505E-02 -0.5201244E-10  0.0000000E+00 -0.2123588E-04
  0.5000000E+00  0.0000000E+00  0.5050505E-02 -0.1921703E-09  0.0000000E+00 -0.2123612E-04
  0.5101010E+00  0.0000000E+00  0.5050505E-02 -0.3314234E-09  0.0000000E+00 -0.2123665E-04
  0.5202020E+00  0.0000000E+00  0.5050505E-02 -0.4689371E-09  0.0000000E+00 -0.2123745E-04
  0.5303030E+00  0.0000000E+00  0.5050505E-02 -0.6038957E-09  0.0000000E+00 -0.2123853E-04
  0.5404040E+00  0.0000000E+00  0.5050505E-02 -0.7355102E-09  0.0000000E+00 -0.2123987E-04
  0.5505050E+00  0.0000000E+00  0.5050505E-02 -0.8630270E-09  0.0000000E+00 -0.2124147E-04
  0.5606061E+00  0.0000000E+00  0.5050505E-02 -0.9857348E-09  0.0000000E+00 -0.2124333E-04
  0.5707071E+00  0.0000000E+00  0.5050505E-02 -0.1102971E-08  0.0000000E+00 -0.2124542E-04
  0.5808081E+00  0.0000000E+00  0.5050505E-02 -0.1214128E-08  0.0000000E+00 -0.2124774E-04
  0.5909091E+00  0.0000000E+00  0.5050505E-02 -0.1318658E-08  0.0000000E+00 -0.2125028E-04
  0.6010101E+00  0.0000000E+00  0.5050505E-02 -0.1416075E-08  0.0000000E+00 -0.2125303E-04
  0.6111111E+00  0.0000000E+00  0.5050505E-02 -0.1505961E-08  0.0000000E+00 -0.2125595E-04
  0.6212121E+00  0.0000000E+00  0.5050505E-02 -0.1587964E-08  0.0000000E+00 -0.2125906E-04
  0.6313131E+00  0.0000000E+00  0.5050505E-02 -0.1661800E-08  0.0000000E+00 -0.2126231E-04
  0.6414142E+00  0.0000000E+00  0.5050505E-02 -0.1727254E-08  0.0000000E+00 -0.2126571E-04
  0.6515151E+00  0.0000000E+00  0.5050505E-02 -0.1784177E-08  0.0000000E+00 -0.2126923E-04
  0.6616161E+00  0.0000000E+00  0.5050505E-02 -0.1832484E-08  0.0000000E+00 -0.2127286E-04
  0.6717172E+00  0.0000000E+00  0.5050505E-02 -0.1872153E-08  0.0000000E+00 -0.2127657E-04
  0.6818182E+00  0.0000000E+00  0.5050505E-02 -0.1903219E-08  0.0000000E+00 -0.2128036E-04
  0.6919192E+00  0.0000000E+00  0.5050505E-02 -0.1925772E-08  0.0000000E+00 -0.2128420E-04
  0.7020202E+00  0.0000000E+00  0.5050505E-02 -0.1939949E-08  0.0000000E+00 -0.2128807E-04
  0.7121212E+00  0.0000000E+00  0.5050505E-02 -0.1945936E-08  0.0000000E+00 -0.2129197E-04
  0.7222222E+00  0.0000000E+00  0.5050505E-02 -0.1943954E-08  0.0000000E+00 -0.2129587E-04
  0.7323232E+00  0.0000000E+00  0.5050505E-02 -0.1934263E-08  0.0000000E+00 -0.2129976E-04
  0.7424242E+00  0.0000000E+00  0.5050505E-02 -0.1917149E-08  0.0000000E+00 -0.2130362E-04
  0.7525253E+00  0.0000000E+00  0.5050505E-02 -0.1892924E-08  0.0000000E+00 -0.2130744E-04
  0.7626263E+00  0.0000000E+00  0.5050505E-02 -0.1861919E-08  0.0000000E+00 -0.2131120E-04
  0.7727273E+00  0.0000000E+00  0.5050505E-02 -0.1824480E-08  0.0000000E+00 -0.2131490E-04
  0.7828283E+00  0.0000000E+00  0.5050505E-02 -0.1780963E-08  0.0000000E+00 -0.2131852E-04
  0.7929293E+00  0.0000000E+00  0.5050505E-02 -0.1731730E-08  0.0000000E+00 -0.2132204E-04
  0.8030303E+00  0.0000000E+00  0.5050505E-02 -0.1677145E-08  0.0000000E+00 -0.2132545E-04
  0.8131313E+00  0.0000000E+00  0.5050505E-02 -0.1617572E-08  0.0000000E+00 -0.2132876E-04
  0.8232324E+00  0.0000000E+00  0.5050505E-02 -0.1553369E-08  0.0000000E+00 -0.2133194E-04
  0.8333333E+00  0.0000000E+00  0.5050505E-02 -0.1484890E-08  0.0000000E+00 -0.2133498E-04
  0.8434343E+00  0.0000000E+00  0.5050505E-02 -0.1412477E-08  0.0000000E+00 -0.2133789E-04
  0.8535354E+00  0.0000000E+00  0.5050505E-02 -0.1336463E-08  0.0000000E+00 -0.2134064E-04
  0.8636364E+00  0.0000000E+00  0.5050505E-02 -0.1257170E-08  0.0000000E+00 -0.2134325E-04
  0.8737374E+00  0.0000000E+00  0.5050505E-02 -0.1174905E-08  0.0000000E+00 -0.2134568E-04
  0.8838384E+00  0.0000000E+00  0.5050505E-02 -0.1089961E-08  0.0000000E+00 -0.2134795E-04
  0.8939394E+00  0.0000000E+00  0.5050505E-02 -0.1002618E-08  0.0000000E+00 -0.2135005E-04
  0.9040404E+00  0.0000000E+00  0.5050505E-02 -0.9131414E-09  0.0000000E+00 -0.2135197E-04
  0.9141414E+00  0.0000000E+00  0.5050505E-02 -0.8217835E-09  0.0000000E+00 -0.2135371E-04
  0.9242424E+00  0.0000000E+00  0.5050505E-02 -0.7287821E-09  0.0000000E+00 -0.2135527E-04
  0.9343435E+00  0.0000000E+00  0.5050505E-02 -0.6343630E-09  0.0000000E+00 -0.2135663E-04
  0.9444444E+00  0.0000000E+00  0.5050505E-02 -0.5387402E-09  0.0000000E+00 -0.2135781E-04
  0.9545454E+00  0.0000000E+00  0.5050505E-02 -0.4421176E-09  0.0000000E+00 -0.2135879E-04
  0.9646465E+00  0.0000000E+00  0.5050505E-02 -0.3446897E-09  0.0000000E+00 -0.2135958E-04
  0.9747475E+00  0.0000000E+00  0.5050505E-02 -0.2466436E-09  0.0000000E+00 -0.2136018E-04
  0.9848485E+00  0.0000000E+00  0.5050505E-02 -0.1481605E-09  0.0000000E+00 -0.2136057E-04
  0.9974747E+00  0.0000000E+00  0.5050505E-02 -0.4941713E-10  0.0000000E+00 -0.2136077E-04
  0.5050505E-02  0.0000000E+00  0.1515152E-01  0.1560730E-09  0.0000000E+00 -0.2129959E-04
  0.1515152E-01  0.0000000E+00  0.1515152E-01  0.4678465E-09  0.0000000E+00 -0.2129938E-04
  0.2525252E-01  0.0000000E+00  0.1515152E-01  0.7784739E-09  0.0000000E+00 -0.2129896E-04
  0.3535353E-01  0.0000000E+00  0.1515152E-01  0.1087180E-08  0.0000000E+00 -0.2129833E-04
  0.4545455E-01  0.0000000E+00  0.1515152E-01  0.1393184E-08  0.0000000E+00 -0.2129750E-04
  0.5555556E-01  0.0000000E+00  0.1515152E-01  0.1695687E-08  0.0000000E+00 -0.2129646E-04
  0.6565657E-01  0.0000000E+00  0.1515152E-01  0.1993874E-08  0.0000000E+00 -0.2129521E-04
  0.7575758E-01  0.0000000E+00  0.1515152E-01  0.2286907E-08  0.0000000E+00 -0.2129377E-04
  0.8585858E-01  0.0000000E+00  0.1515152E-01  0.2573925E-08  0.0000000E+00 -0.2129213E-04
  0.9595960E-01  0.0000000E+00  0.1515152E-01  0.2854038E-08  0.0000000E+00 -0.2129030E-04
  0.1060606E+00  0.0000000E+00  0.1515152E-01  0.3126331E-08  0.0000000E+00 -0.2128828E-04
  0.1161616E+00  0.0000000E+00  0.1515152E-01  0.3389858E-08  0.0000000E+00 -0.2128608E-04
  0.1262626E+00  0.0000000E+00  0.1515152E-01  0.3643644E-08  0.0000000E+00 -0.2128371E-04
  0.1363636E+00  0.0000000E+00  0.1515152E-01  0.3886686E-08  0.0000000E+00 -0.2128117E-04
  0.1464646E+00  0.0000000E+00  0.1515152E-01  0.4117956E-08  0.0000000E+00 -0.2127847E-04
  0.1565657E+00  0.0000000E+00  0.1515152E-01  0.4336401E-08  0.0000000E+00 -0.2127561E-04
  0.1666667E+00  0.0000000E+00  0.1515152E-01  0.4540950E-08  0.0000000E+00 -0.2127262E-04
  0.1767677E+00  0.0000000E+00  0.1515152E-01  0.4730515E-08  0.0000000E+00 -0.2126949E-04
  0.1868687E+00  0.0000000E+00  0.1515152E-01  0.4904002E-08  0.0000000E+00 -0.2126624E-04
  0.1969697E+00  0.0000000E+00  0.1515152E-01  0.5060315E-08  0.0000000E+00 -0.2126287E-04
  0.2070707E+00  0.0000000E+00  0.1515152E-01  0.5198368E-08  0.0000000E+00 -0.2125941E-04
  0.2171717E+00  0.0000000E+00  0.1515152E-01  0.5317087E-08  0.0000000E+00 -0.2125586E-04
  0.2272727E+00  0.0000000E+00  0.1515152E-01  0.5415431E-08  0.0000000E+00 -0.2125224E-04
  0.2373737E+00  0.0000000E+00  0.1515152E-01  0.5492395E-08  0.0000000E+00 -0.2124856E-04
  0.2474747E+00  0.0000000E+00  0.1515152E-01  0.5547028E-08  0.0000000E+00 -0.2124483E-04
  0.2575758E+00  0.0000000E+00  0.1515152E-01  0.5578444E-08  0.0000000E+00 -0.2124107E-04
  0.2676768E+00  0.0000000E+00  0.1515152E-01  0.5585835E-08  0.0000000E+00 -0.2123730E-04
  0.2777778E+00  0.0000000E+00  0.1515152E-01  0.5568488E-08  0.0000000E+00 -0.2123353E-04
  0.2878788E+00  0.0000000E+00  0.1515152E-01  0.5525798E-08  0.0000000E+00 -0.2122978E-04
  0.2979798E+00  0.0000000E+00  0.1515152E-01  0.5457281E-08  0.0000000E+00 -0.2122607E-04
  0.3080808E+00  0.0000000E+00  0.1515152E-01  0.5362592E-08  0.0000000E+00 -0.2122242E-04
  0.3181818E+00  0.0000000E+00  0.1515152E-01  0.5241536E-08  0.0000000E+00 -0.2121884E-04
  0.3282828E+00  0.0000000E+00  0.1515152E-01  0.5094079E-08  0.0000000E+00 -0.2121534E-04
  0.3383838E+00  0.0000000E+00  0.1515152E-01  0.4920363E-08  0.0000000E+00 -0.2121196E-04
  0.3484848E+00  0.0000000E+00  0.1515152E-01  0.4720714E-08  0.0000000E+00 -0.2120870E-04
  0.3585859E+00  0.0000000E+00  0.1515152E-01  0.4495648E-08  0.0000000E+00 -0.2120559E-04
  0.3686869E+00  0.0000000E+00  0.1515152E-01  0.4245881E-08  0.0000000E+00 -0.2120263E-04
  0.3787879E+00  0.0000000E+00  0.1515152E-01  0.3972330E-08  0.0000000E+00 -0.2119985E-04
  0.3888889E+00  0.0000000E+00  0.1515152E-01  0.3676111E-08  0.0000000E+00 -0.2119727E-04
  0.3989899E+00  0.0000000E+00  0.1515152E-01  0.3358541E-08  0.0000000E+00 -0.2119489E-04
  0.4090909E+00  0.0000000E+00  0.1515152E-01  0.3021132E-08  0.0000000E+00 -0.2119273E-04
  0.4191919E+00  0.0000000E+00  0.1515152E-01  0.2665581E-08  0.0000000E+00 -0.2119081E-04
  0.4292929E+00  0.0000000E+00  0.1515152E-01  0.2293759E-08  0.0000000E+00 -0.2118913E-04
  0.4393939E+00  0.0000000E+00  0.1515152E-01  0.1907696E-08  0.0000000E+00 -0.2118771E-04
  0.4494950E+00  0.0000000E+00  0.1515152E-01  0.1509568E-08  0.0000000E+00 -0.2118655E-04
  0.4595959E+00  0.0000000E+00  0.1515152E-01  0.1101671E-08  0.0000000E+00 -0.2118567E-04
  0.4696970E+00  0.0000000E+00  0.1515152E-01  0.6864029E-09  0.0000000E+00 -0.2118506E-04
  0.4797980E+00  0.0000000E+00  0.1515152E-01  0.2662393E-09  0.0000000E+00 -0.2118474E-04
  0.4898990E+00  0.0000000E+00  0.1515152E-01 -0.1562939E-09  0.0000000E+00 -0.2118470E-04
  0.5000000E+00  0.0000000E+00  0.1515152E-01 -0.5786456E-09  0.0000000E+00 -0.2118495E-04
  0.5101010E+00  0.0000000E+00  0.1515152E-01 -0.9982675E-09  0.0000000E+00 -0.2118548E-04
  0.5202020E+00  0.0000000E+00  0.1515152E-01 -0.1412641E-08  0.0000000E+00 -0.2118630E-04
  0.5303030E+00  0.0000000E+00  0.1515152E-01 -0.1819302E-08  0.0000000E+00 -0.2118739E-04
  0.5404040E+00  0.0000000E+00  0.1515152E-01 -0.2215872E-08  0.0000000E+00 -0.2118876E-04
  0.5505050E+00  0.0000000E+00  0.1515152E-01 -0.2600076E-08  0.0000000E+00 -0.2119038E-04
  0.5606061E+00  0.0000000E+00  0.1515152E-01 -0.2969766E-08  0.0000000E+00 -0.2119227E-04
  0.5707071E+00  0.0000000E+00  0.1515152E-01 -0.3322946E-08  0.0000000E+00 -0.2119439E-04
  0.5808081E+00  0.0000000E+00  0.1515152E-01 -0.3657783E-08  0.0000000E+00 -0.2119675E-04
  0.5909091E+00  0.0000000E+00  0.1515152E-01 -0.3972625E-08  0.0000000E+00 -0.2119933E-04
  0.6010101E+00  0.0000000E+00  0.1515152E-01 -0.4266008E-08  0.0000000E+00 -0.2120212E-04
  0.6111111E+00  0.0000000E+00  0.1515152E-01 -0.4536672E-08  0.0000000E+00 -0.2120509E-04
  0.6212121E+00  0.0000000E+00  0.1515152E-01 -0.4783559E-08  0.0000000E+00 -0.2120824E-04
  0.6313131E+00  0.0000000E+00  0.1515152E-01 -0.5005816E-08  0.0000000E+00 -0.2121155E-04
  0.6414142E+00  0.0000000E+00  0.1515152E-01 -0.5202796E-08  0.0000000E+00 -0.2121500E-04
  0.6515151E+00  0.0000000E+00  0.1515152E-01 -0.5374055E-08  0.0000000E+00 -0.2121857E-04
  0.6616161E+00  0.0000000E+00  0.1515152E-01 -0.5519341E-08  0.0000000E+00 -0.2122225E-04
  0.6717172E+00  0.0000000E+00  0.1515152E-01 -0.5638589E-08  0.0000000E+00 -0.2122602E-04
  0.6818182E+00  0.0000000E+00  0.1515152E-01 -0.5731909E-08  0.0000000E+00 -0.2122986E-04
  0.6919192E+00  0.0000000E+00  0.1515152E-01 -0.5799576E-08  0.0000000E+00 -0.2123376E-04
  0.7020202E+00  0.0000000E+00  0.1515152E-01 -0.5842012E-08  0.0000000E+00 -0.2123769E-04
  0.7121212E+00  0.0000000E+00  0.1515152E-01 -0.5859775E-08  0.0000000E+00 -0.2124164E-04
  0.7222222E+00  0.0000000E+00  0.1515152E-01 -0.5853541E-08  0.0000000E+00 -0.2124559E-04
  0.7323232E+00  0.0000000E+00  0.1515152E-01 -0.5824092E-08  0.0000000E+00 -0.2124954E-04
  0.7424242E+00  0.0000000E+00  0.1515152E-01 -0.5772297E-08  0.0000000E+00 -0.2125345E-04
  0.7525253E+00  0.0000000E+00  0.1515152E-01 -0.5699100E-08  0.0000000E+00 -0.2125732E-04
  0.7626263E+00  0.0000000E+00  0.1515152E-01 -0.5605500E-08  0.0000000E+00 -0.2126114E-04
  0.7727273E+00  0.0000000E+00  0.1515152E-01 -0.5492543E-08  0.0000000E+00 -0.2126488E-04
  0.7828283E+00  0.0000000E+00  0.1515152E-01 -0.5361302E-08  0.0000000E+00 -0.2126855E-04
  0.7929293E+00  0.0000000E+00  0.1515152E-01 -0.5212871E-08  0.0000000E+00 -0.2127212E-04
  0.8030303E+00  0.0000000E+00  0.1515152E-01 -0.5048349E-08  0.0000000E+00 -0.2127558E-04
  0.8131313E+00  0.0000000E+00  0.1515152E-01 -0.4868832E-08  0.0000000E+00 -0.2127892E-04
  0.8232324E+00  0.0000000E+00  0.1515152E-01 -0.4675402E-08  0.0000000E+00 -0.2128214E-04
  0.8333333E+00  0.0000000E+00  0.1515152E-01 -0.4469121E-08  0.0000000E+00 -0.2128523E-04
  0.8434343E+00  0.0000000E+00  0.1515152E-01 -0.4251025E-08  0.0000000E+00 -0.2128817E-04
  0.8535354E+00  0.0000000E+00  0.1515152E-01 -0.4022115E-08  0.0000000E+00 -0.2129096E-04
  0.8636364E+00  0.0000000E+00  0.1515152E-01 -0.3783358E-08  0.0000000E+00 -0.2129359E-04
  0.8737374E+00  0.0000000E+00  0.1515152E-01 -0.3535678E-08  0.0000000E+00 -0.2129606E-04
  0.8838384E+00  0.0000000E+00  0.1515152E-01 -0.3279960E-08  0.0000000E+00 -0.2129836E-04
  0.8939394E+00  0.0000000E+00  0.1515152E-01 -0.3017044E-08  0.0000000E+00 -0.2130048E-04
  0.9040404E+00  0.0000000E+00  0.1515152E-01 -0.2747729E-08  0.0000000E+00 -0.2130243E-04
  0.9141414E+00  0.0000000E+00  0.1515152E-01 -0.2472770E-08  0.0000000E+00 -0.2130419E-04
  0.9242424E+00  0.0000000E+00  0.1515152E-01 -0.2192883E-08  0.0000000E+00 -0.2130576E-04
  0.9343435E+00  0.0000000E+00  0.1515152E-01 -0.1908746E-08  0.0000000E+00 -0.2130714E-04
  0.9444444E+00  0.0000000E+00  0.1515152E-01 -0.1621000E-08  0.0000000E+00 -0.2130833E-04
  0.9545454E+00  0.0000000E+00  0.1515152E-01 -0.1330259E-08  0.0000000E+00 -0.2130933E-04
  0.9646465E+00  0.0000000E+00  0.1515152E-01 -0.1037104E-08  0.0000000E+00 -0.2131013E-04
  0.9747475E+00  0.0000000E+00  0.1515152E-01 -0.7420966E-09  0.0000000E+00 -0.2131073E-04
  0.9848485E+00  0.0000000E+00  0.1515152E-01 -0.4457798E-09  0.0000000E+00 -0.2131113E-04
  0.9974747E+00  0.0000000E+00  0.1515152E-01 -0.1486831E-09  0.0000000E+00 -0.2131133E-04
  0.5050505E-02  0.0000000E+00  0.2525252E-01  0.2618980E-09  0.0000000E+00 -0.2120084E-04
  0.1515152E-01  0.0000000E+00  0.2525252E-01  0.7850688E-09  0.0000000E+00 -0.2120062E-04
  0.2525252E-01  0.0000000E+00  0.2525252E-01  0.1306328E-08  0.0000000E+00 -0.2120019E-04
  0.3535353E-01  0.0000000E+00  0.2525252E-01  0.1824384E-08  0.0000000E+00 -0.2119955E-04
  0.4545455E-01  0.0000000E+00  0.2525252E-01  0.2337930E-08  0.0000000E+00 -0.2119869E-04
  0.5555556E-01  0.0000000E+00  0.2525252E-01  0.2845636E-08  0.0000000E+00 -0.2119762E-04
  0.6565657E-01  0.0000000E+00  0.2525252E-01  0.3346140E-08  0.0000000E+00 -0.2119635E-04
  0.7575758E-01  0.0000000E+00  0.2525252E-01  0.3838041E-08  0.0000000E+00 -0.2119487E-04
  0.8585858E-01  0.0000000E+00  0.2525252E-01  0.4319900E-08  0.0000000E+00 -0.2119319E-04
  0.9595960E-01  0.0000000E+00  0.2525252E-01  0.4790229E-08  0.0000000E+00 -0.2119131E-04
  0.1060606E+00  0.0000000E+00  0.2525252E-01  0.5247496E-08  0.0000000E+00 -0.2118924E-04
  0.1161616E+00  0.0000000E+00  0.2525252E-01  0.5690115E-08  0.0000000E+00 -0.2118699E-04
  0.1262626E+00  0.0000000E+00  0.2525252E-01  0.6116454E-08  0.0000000E+00 -0.2118456E-04
  0.1363636E+00  0.0000000E+00  0.2525252E-01  0.6524831E-08  0.0000000E+00 -0.2118195E-04
  0.1464646E+00  0.0000000E+00  0.2525252E-01  0.6913519E-08  0.0000000E+00 -0.2117918E-04
  0.1565657E+00  0.0000000E+00  0.2525252E-01  0.7280750E-08  0.0000000E+00 -0.2117626E-04
  0.1666667E+00  0.0000000E+00  0.2525252E-01  0.7624723E-08  0.0000000E+00 -0.2117318E-04
  0.1767677E+00  0.0000000E+00  0.2525252E-01  0.7943610E-08  0.0000000E+00 -0.2116997E-04
  0.1868687E+00  0.0000000E+00  0.2525252E-01  0.8235570E-08  0.0000000E+00 -0.2116663E-04
  0.1969697E+00  0.0000000E+00  0.2525252E-01  0.8498755E-08  0.0000000E+00 -0.2116318E-04
  0.2070707E+00  0.0000000E+00  0.2525252E-01  0.8731332E-08  0.0000000E+00 -0.2115962E-04
  0.2171717E+00  0.0000000E+00  0.2525252E-01  0.8931495E-08  0.0000000E+00 -0.2115597E-04
  0.2272727E+00  0.0000000E+00  0.2525252E-01  0.9097480E-08  0.0000000E+00 -0.2115225E-04
  0.2373737E+00  0.0000000E+00  0.2525252E-01  0.9227591E-08  0.0000000E+00 -0.2114847E-04
  0.2474747E+00  0.0000000E+00  0.2525252E-01  0.9320218E-08  0.0000000E+00 -0.2114463E-04
  0.2575758E+00  0.0000000E+00  0.2525252E-01  0.9373859E-08  0.0000000E+00 -0.2114077E-04
  0.2676768E+00  0.0000000E+00  0.2525252E-01  0.9387144E-08  0.0000000E+00 -0.2113689E-04
  0.2777778E+00  0.0000000E+00  0.2525252E-01  0.9358859E-08  0.0000000E+00 -0.2113302E-04
  0.2878788E+00  0.0000000E+00  0.2525252E-01  0.9287974E-08  0.0000000E+00 -0.2112916E-04
  0.2979798E+00  0.0000000E+00  0.2525252E-01  0.9173661E-08  0.0000000E+00 -0.2112534E-04
  0.3080808E+00  0.0000000E+00  0.2525252E-01  0.9015324E-08  0.0000000E+00 -0.2112157E-04
  0.3181818E+00  0.0000000E+00  0.2525252E-01  0.8812620E-08  0.0000000E+00 -0.2111788E-04
  0.3282828E+00  0.0000000E+00  0.2525252E-01  0.8565479E-08  0.0000000E+00 -0.2111429E-04
  0.3383838E+00  0.0000000E+00  0.2525252E-01  0.8274127E-08  0.0000000E+00 -0.2111080E-04
  0.3484848E+00  0.0000000E+00  0.2525252E-01  0.7939097E-08  0.0000000E+00 -0.2110744E-04
  0.3585859E+00  0.0000000E+00  0.2525252E-01  0.7561250E-08  0.0000000E+00 -0.2110423E-04
  0.3686869E+00  0.0000000E+00  0.2525252E-01  0.7141778E-08  0.0000000E+00 -0.2110118E-04
  0.3787879E+00  0.0000000E+00  0.2525252E-01  0.6682216E-08  0.0000000E+00 -0.2109831E-04
  0.3888889E+00  0.0000000E+00  0.2525252E-01  0.6184437E-08  0.0000000E+00 -0.2109564E-04
  0.3989899E+00  0.0000000E+00  0.2525252E-01  0.5650654E-08  0.0000000E+00 -0.2109319E-04
  0.4090909E+00  0.0000000E+00  0.2525252E-01  0.5083407E-08  0.0000000E+00 -0.2109096E-04
  0.4191919E+00  0.0000000E+00  0.2525252E-01  0.4485553E-08  0.0000000E+00 -0.2108898E-04
  0.4292929E+00  0.0000000E+00  0.2525252E-01  0.3860242E-08  0.0000000E+00 -0.2108724E-04
  0.4393939E+00  0.0000000E+00  0.2525252E-01  0.3210900E-08  0.0000000E+00 -0.2108578E-04
  0.4494950E+00  0.0000000E+00  0.2525252E-01  0.2541190E-08  0.0000000E+00 -0.2108458E-04
  0.4595959E+00  0.0000000E+00  0.2525252E-01  0.1854989E-08  0.0000000E+00 -0.2108367E-04
  0.4696970E+00  0.0000000E+00  0.2525252E-01  0.1156342E-08  0.0000000E+00 -0.2108304E-04
  0.4797980E+00  0.0000000E+00  0.2525252E-01  0.4494259E-09  0.0000000E+00 -0.2108271E-04
  0.4898990E+00  0.0000000E+00  0.2525252E-01 -0.2614942E-09  0.0000000E+00 -0.2108267E-04
  0.5000000E+00  0.0000000E+00  0.2525252E-01 -0.9721122E-09  0.0000000E+00 -0.2108292E-04
  0.5101010E+00  0.0000000E+00  0.2525252E-01 -0.1678126E-08  0.0000000E+00 -0.2108347E-04
  0.5202020E+00  0.0000000E+00  0.2525252E-01 -0.2375283E-08  0.0000000E+00 -0.2108431E-04
  0.5303030E+00  0.0000000E+00  0.2525252E-01 -0.3059427E-08  0.0000000E+00 -0.2108543E-04
  0.5404040E+00  0.0000000E+00  0.2525252E-01 -0.3726540E-08  0.0000000E+00 -0.2108684E-04
  0.5505050E+00  0.0000000E+00  0.2525252E-01 -0.4372785E-08  0.0000000E+00 -0.2108852E-04
  0.5606061E+00  0.0000000E+00  0.2525252E-01 -0.4994541E-08  0.0000000E+00 -0.2109046E-04
  0.5707071E+00  0.0000000E+00  0.2525252E-01 -0.5588441E-08  0.0000000E+00 -0.2109265E-04
  0.5808081E+00  0.0000000E+00  0.2525252E-01 -0.6151396E-08  0.0000000E+00 -0.2109508E-04
  0.5909091E+00  0.0000000E+00  0.2525252E-01 -0.6680624E-08  0.0000000E+00 -0.2109774E-04
  0.6010101E+00  0.0000000E+00  0.2525252E-01 -0.7173666E-08  0.0000000E+00 -0.2110061E-04
  0.6111111E+00  0.0000000E+00  0.2525252E-01 -0.7628401E-08  0.0000000E+00 -0.2110368E-04
  0.6212121E+00  0.0000000E+00  0.2525252E-01 -0.8043053E-08  0.0000000E+00 -0.2110692E-04
  0.6313131E+00  0.0000000E+00  0.2525252E-01 -0.8416198E-08  0.0000000E+00 -0.2111033E-04
  0.6414142E+00  0.0000000E+00  0.2525252E-01 -0.8746755E-08  0.0000000E+00 -0.2111388E-04
  0.6515151E+00  0.0000000E+00  0.2525252E-01 -0.9033985E-08  0.0000000E+00 -0.2111756E-04
  0.6616161E+00  0.0000000E+00  0.2525252E-01 -0.9277479E-08  0.0000000E+00 -0.2112135E-04
  0.6717172E+00  0.0000000E+00  0.2525252E-01 -0.9477140E-08  0.0000000E+00 -0.2112523E-04
  0.6818182E+00  0.0000000E+00  0.2525252E-01 -0.9633168E-08  0.0000000E+00 -0.2112918E-04
  0.6919192E+00  0.0000000E+00  0.2525252E-01 -0.9746038E-08  0.0000000E+00 -0.2113319E-04
  0.7020202E+00  0.0000000E+00  0.2525252E-01 -0.9816475E-08  0.0000000E+00 -0.2113724E-04
  0.7121212E+00  0.0000000E+00  0.2525252E-01 -0.9845432E-08  0.0000000E+00 -0.2114130E-04
  0.7222222E+00  0.0000000E+00  0.2525252E-01 -0.9834062E-08  0.0000000E+00 -0.2114536E-04
  0.7323232E+00  0.0000000E+00  0.2525252E-01 -0.9783693E-08  0.0000000E+00 -0.2114942E-04
  0.7424242E+00  0.0000000E+00  0.2525252E-01 -0.9695800E-08  0.0000000E+00 -0.2115344E-04
  0.7525253E+00  0.0000000E+00  0.2525252E-01 -0.9571979E-08  0.0000000E+00 -0.2115742E-04
  0.7626263E+00  0.0000000E+00  0.2525252E-01 -0.9413926E-08  0.0000000E+00 -0.2116134E-04
  0.7727273E+00  0.0000000E+00  0.2525252E-01 -0.9223405E-08  0.0000000E+00 -0.2116518E-04
  0.7828283E+00  0.0000000E+00  0.2525252E-01 -0.9002233E-08  0.0000000E+00 -0.2116894E-04
  0.7929293E+00  0.0000000E+00  0.2525252E-01 -0.8752253E-08  0.0000000E+00 -0.2117260E-04
  0.8030303E+00  0.0000000E+00  0.2525252E-01 -0.8475321E-08  0.0000000E+00 -0.2117615E-04
  0.8131313E+00  0.0000000E+00  0.2525252E-01 -0.8173282E-08  0.0000000E+00 -0.2117959E-04
  0.8232324E+00  0.0000000E+00  0.2525252E-01 -0.7847960E-08  0.0000000E+00 -0.2118289E-04
  0.8333333E+00  0.0000000E+00  0.2525252E-01 -0.7501143E-08  0.0000000E+00 -0.2118605E-04
  0.8434343E+00  0.0000000E+00  0.2525252E-01 -0.7134570E-08  0.0000000E+00 -0.2118907E-04
  0.8535354E+00  0.0000000E+00  0.2525252E-01 -0.6749926E-08  0.0000000E+00 -0.2119192E-04
  0.8636364E+00  0.0000000E+00  0.2525252E-01 -0.6348832E-08  0.0000000E+00 -0.2119462E-04
  0.8737374E+00  0.0000000E+00  0.2525252E-01 -0.5932841E-08  0.0000000E+00 -0.2119715E-04
  0.8838384E+00  0.0000000E+00  0.2525252E-01 -0.5503436E-08  0.0000000E+00 -0.2119950E-04
  0.8939394E+00  0.0000000E+00  0.2525252E-01 -0.5062024E-08  0.0000000E+00 -0.2120168E-04
  0.9040404E+00  0.0000000E+00  0.2525252E-01 -0.4609942E-08  0.0000000E+00 -0.2120367E-04
  0.9141414E+00  0.0000000E+00  0.2525252E-01 -0.4148453E-08  0.0000000E+00 -0.2120547E-04
  0.9242424E+00  0.0000000E+00  0.2525252E-01 -0.3678755E-08  0.0000000E+00 -0.2120708E-04
  0.9343435E+00  0.0000000E+00  0.2525252E-01 -0.3201979E-08  0.0000000E+00 -0.2120850E-04
  0.9444444E+00  0.0000000E+00  0.2525252E-01 -0.2719197E-08  0.0000000E+00 -0.2120971E-04
  0.9545454E+00  0.0000000E+00  0.2525252E-01 -0.2231427E-08  0.0000000E+00 -0.2121073E-04
  0.9646465E+00  0.0000000E+00  0.2525252E-01 -0.1739643E-08  0.0000000E+00 -0.2121155E-04
  0.9747475E+00  0.0000000E+00  0.2525252E-01 -0.1244777E-08  0.0000000E+00 -0.2121216E-04
  0.9848485E+00  0.0000000E+00  0.2525252E-01 -0.7477337E-09  0.0000000E+00 -0.2121257E-04
  0.9974747E+00  0.0000000E+00  0.2525252E-01 -0.2493921E-09  0.0000000E+00 -0.2121278E-04
  0.5050505E-02  0.0000000E+00  0.3535353E-01  0.3706256E-09  0.0000000E+00 -0.2105340E-04
  0.1515152E-01  0.0000000E+00  0.3535353E-01  0.1110997E-08  0.0000000E+00 -0.2105317E-04
  0.2525252E-01  0.0000000E+00  0.3535353E-01  0.1848687E-08  0.0000000E+00 -0.2105273E-04
  0.3535353E-01  0.0000000E+00  0.3535353E-01  0.2581885E-08  0.0000000E+00 -0.2105206E-04
  0.4545455E-01  0.0000000E+00  0.3535353E-01  0.3308757E-08  0.0000000E+00 -0.2105117E-04
  0.5555556E-01  0.0000000E+00  0.3535353E-01  0.4027436E-08  0.0000000E+00 -0.2105007E-04
  0.6565657E-01  0.0000000E+00  0.3535353E-01  0.4736007E-08  0.0000000E+00 -0.2104874E-04
  0.7575758E-01  0.0000000E+00  0.3535353E-01  0.5432502E-08  0.0000000E+00 -0.2104721E-04
  0.8585858E-01  0.0000000E+00  0.3535353E-01  0.6114894E-08  0.0000000E+00 -0.2104547E-04
  0.9595960E-01  0.0000000E+00  0.3535353E-01  0.6781090E-08  0.0000000E+00 -0.2104352E-04
  0.1060606E+00  0.0000000E+00  0.3535353E-01  0.7428927E-08  0.0000000E+00 -0.2104138E-04
  0.1161616E+00  0.0000000E+00  0.3535353E-01  0.8056170E-08  0.0000000E+00 -0.2103904E-04
  0.1262626E+00  0.0000000E+00  0.3535353E-01  0.8660511E-08  0.0000000E+00 -0.2103652E-04
  0.1363636E+00  0.0000000E+00  0.3535353E-01  0.9239573E-08  0.0000000E+00 -0.2103381E-04
  0.1464646E+00  0.0000000E+00  0.3535353E-01  0.9790911E-08  0.0000000E+00 -0.2103094E-04
  0.1565657E+00  0.0000000E+00  0.3535353E-01  0.1031202E-07  0.0000000E+00 -0.2102790E-04
  0.1666667E+00  0.0000000E+00  0.3535353E-01  0.1080035E-07  0.0000000E+00 -0.2102471E-04
  0.1767677E+00  0.0000000E+00  0.3535353E-01  0.1125329E-07  0.0000000E+00 -0.2102137E-04
  0.1868687E+00  0.0000000E+00  0.3535353E-01  0.1166824E-07  0.0000000E+00 -0.2101790E-04
  0.1969697E+00  0.0000000E+00  0.3535353E-01  0.1204256E-07  0.0000000E+00 -0.2101431E-04
  0.2070707E+00  0.0000000E+00  0.3535353E-01  0.1237365E-07  0.0000000E+00 -0.2101061E-04
  0.2171717E+00  0.0000000E+00  0.3535353E-01  0.1265891E-07  0.0000000E+00 -0.2100682E-04
  0.2272727E+00  0.0000000E+00  0.3535353E-01  0.1289584E-07  0.0000000E+00 -0.2100295E-04
  0.2373737E+00  0.0000000E+00  0.3535353E-01  0.1308201E-07  0.0000000E+00 -0.2099901E-04
  0.2474747E+00  0.0000000E+00  0.3535353E-01  0.1321511E-07  0.0000000E+00 -0.2099501E-04
  0.2575758E+00  0.0000000E+00  0.3535353E-01  0.1329299E-07  0.0000000E+00 -0.2099099E-04
  0.2676768E+00  0.0000000E+00  0.3535353E-01  0.1331366E-07  0.0000000E+00 -0.2098695E-04
  0.2777778E+00  0.0000000E+00  0.3535353E-01  0.1327539E-07  0.0000000E+00 -0.2098291E-04
  0.2878788E+00  0.0000000E+00  0.3535353E-01  0.1317667E-07  0.0000000E+00 -0.2097888E-04
  0.2979798E+00  0.0000000E+00  0.3535353E-01  0.1301631E-07  0.0000000E+00 -0.2097490E-04