title = "dataset water"
variables = "time", "absolute mass balance error", "relative mass balance error", "absolute cumulative mass balance error", "relative cumulative mass balance error" 
zone t = "mass balance error -  variably saturated flow", f=point
  1.0000E-10  5.4229E-17  2.9882E-14  5.4229E-17  2.9882E-14
  6.0000E-10  2.7813E-16  1.5326E-13  3.3236E-16  1.8314E-13
  3.1000E-09 -9.9029E-19 -5.4569E-16  3.3137E-16  1.8260E-13
  1.5600E-08  1.8730E-18  1.0321E-15  3.3324E-16  1.8363E-13
  7.8100E-08  1.7445E-18  9.6127E-16  3.3498E-16  1.8459E-13
  3.9060E-07 -1.3890E-17 -7.6540E-15  3.2109E-16  1.7693E-13
  1.9531E-06 -2.0549E-15 -1.1323E-12 -1.7338E-15 -9.5541E-13
  9.7656E-06 -1.4584E-18 -8.0361E-16 -1.7353E-15 -9.5621E-13
  4.8828E-05 -2.0760E-16 -1.1440E-13 -1.9429E-15 -1.0706E-12
  2.4414E-04 -3.9844E-19 -2.1954E-16 -1.9433E-15 -1.0707E-12
  1.2207E-03 -3.4856E-16 -1.9198E-13 -2.2918E-15 -1.2623E-12
  6.1035E-03 -2.3507E-16 -1.2935E-13 -2.5269E-15 -1.3904E-12
  2.3462E-02  6.4272E-15  3.5301E-12  3.9003E-15  2.1422E-12
  8.7359E-02 -1.4858E-13 -8.1330E-11 -1.4468E-13 -7.9195E-11
  3.0004E-01 -2.2569E-11 -1.2280E-08 -2.2714E-11 -1.2359E-08
  1.0000E+00 -1.4945E-10 -8.0463E-08 -1.7216E-10 -9.2693E-08
  2.0000E+00  2.1955E-04  1.1952E-01  2.1955E-04  1.1952E-01
  3.0000E+00 -4.5864E-10 -2.5044E-07  2.1955E-04  1.1989E-01
  4.0000E+00 -3.1115E-10 -1.7018E-07  2.1955E-04  1.2008E-01
  5.0000E+00 -2.7502E-10 -1.5058E-07  2.1955E-04  1.2021E-01
  6.0000E+00 -4.9788E-10 -2.7280E-07  2.1955E-04  1.2030E-01
  7.0000E+00 -5.3822E-10 -2.9506E-07  2.1955E-04  1.2036E-01
  8.0000E+00 -6.0529E-11 -3.3201E-08  2.1955E-04  1.2042E-01
  9.0000E+00 -1.6400E-10 -8.9993E-08  2.1955E-04  1.2048E-01
  1.0000E+01 -3.1479E-10 -1.7281E-07  2.1955E-04  1.2053E-01
  1.1000E+01 -2.4626E-10 -1.3524E-07  2.1955E-04  1.2057E-01
  1.2000E+01 -1.6223E-10 -8.9129E-08  2.1955E-04  1.2062E-01
  1.3000E+01 -8.4731E-11 -4.6568E-08  2.1955E-04  1.2067E-01
  1.4000E+01 -1.5587E-10 -8.5701E-08  2.1955E-04  1.2072E-01
  1.5000E+01 -3.3761E-11 -1.8572E-08  2.1955E-04  1.2078E-01
  1.6000E+01  2.2373E-11  1.2314E-08  2.1955E-04  1.2084E-01
  1.7000E+01  1.4549E-11  8.0129E-09  2.1955E-04  1.2092E-01
  1.8000E+01  1.1610E-10  6.3993E-08  2.1955E-04  1.2102E-01
  1.9000E+01  1.0771E-10  5.9422E-08  2.1955E-04  1.2112E-01
  2.0000E+01  1.5896E-10  8.7798E-08  2.1955E-04  1.2126E-01
  2.1000E+01  1.0716E-10  5.9254E-08  2.1955E-04  1.2140E-01
  2.2000E+01  6.4639E-11  3.5800E-08  2.1955E-04  1.2160E-01
  2.3000E+01  4.3684E-11  2.4245E-08  2.1955E-04  1.2185E-01
  2.4000E+01  9.0293E-11  5.0247E-08  2.1955E-04  1.2218E-01
  2.5000E+01  1.1819E-10  6.5963E-08  2.1955E-04  1.2253E-01
  2.6000E+01  1.4418E-10  8.0724E-08  2.1955E-04  1.2292E-01
  2.7000E+01  1.2030E-10  6.7628E-08  2.1955E-04  1.2342E-01
  2.8000E+01  3.2226E-11  1.8218E-08  2.1955E-04  1.2411E-01
  2.9000E+01 -7.0421E-11 -3.9982E-08  2.1955E-04  1.2465E-01
  3.0000E+01 -1.9673E-11 -1.1245E-08  2.1955E-04  1.2549E-01
  3.1000E+01 -5.9453E-11 -3.4199E-08  2.1955E-04  1.2629E-01
  3.2000E+01 -4.7671E-11 -2.7646E-08  2.1955E-04  1.2733E-01
  3.3000E+01 -6.4251E-07 -3.7575E-04  2.1891E-04  1.2802E-01
  3.4000E+01 -6.8599E-07 -4.0504E-04  2.1822E-04  1.2885E-01
  3.5000E+01 -8.0781E-07 -4.8194E-04  2.1741E-04  1.2971E-01
  3.6000E+01 -9.1805E-07 -5.5421E-04  2.1650E-04  1.3070E-01
  3.7000E+01 -5.2676E-07 -3.2122E-04  2.1597E-04  1.3170E-01
  3.8000E+01 -1.0556E-06 -6.5235E-04  2.1491E-04  1.3281E-01
  3.9000E+01 -2.2039E-06 -1.3793E-03  2.1271E-04  1.3312E-01
  4.0000E+01 -3.2310E-06 -2.0443E-03  2.0948E-04  1.3254E-01
  4.1000E+01 -5.2248E-06 -3.3517E-03  2.0425E-04  1.3103E-01
  4.2000E+01 -6.6219E-06 -4.3096E-03  1.9763E-04  1.2862E-01
  4.3000E+01 -6.3360E-06 -4.1740E-03  1.9130E-04  1.2602E-01
  4.4000E+01 -8.5796E-06 -5.7333E-03  1.8272E-04  1.2210E-01
  4.5000E+01 -1.1537E-05 -7.8244E-03  1.7118E-04  1.1609E-01
  4.6000E+01 -1.1400E-05 -7.8297E-03  1.5978E-04  1.0974E-01
  4.6500E+01 -8.6757E-06 -6.0001E-03  1.5110E-04  1.0450E-01
  4.7000E+01 -8.7471E-06 -6.0884E-03  1.4236E-04  9.9086E-02
  4.8000E+01 -1.9291E-05 -1.3599E-02  1.2307E-04  8.6756E-02
  4.9000E+01 -2.0652E-05 -1.4738E-02  1.0241E-04  7.3082E-02
  5.0000E+01 -2.2245E-05 -1.6061E-02  8.0167E-05  5.7881E-02
  5.1000E+01 -2.7207E-05 -1.9869E-02  5.2960E-05  3.8677E-02
  5.2000E+01 -2.7527E-05 -2.0319E-02  2.5433E-05  1.8773E-02
  5.3000E+01 -2.3834E-05 -1.7749E-02  1.5987E-06  1.1905E-03
  5.3500E+01 -1.6995E-05 -1.2737E-02 -1.5396E-05 -1.1538E-02
  5.4000E+01 -1.7083E-05 -1.2877E-02 -3.2480E-05 -2.4483E-02
  5.4500E+01 -1.7597E-05 -1.3355E-02 -5.0076E-05 -3.8005E-02
  5.5000E+01 -1.7680E-05 -1.3502E-02 -6.7756E-05 -5.1746E-02
  5.6000E+01 -3.0132E-05 -2.3252E-02 -9.7888E-05 -7.5536E-02
  5.6500E+01 -2.2265E-05 -1.7296E-02 -1.2015E-04 -9.3338E-02
  5.7000E+01 -2.2370E-05 -1.7483E-02 -1.4252E-04 -1.1139E-01
  5.7500E+01 -2.3592E-05 -1.8538E-02 -1.6612E-04 -1.3053E-01
  5.8000E+01 -2.3673E-05 -1.8695E-02 -1.8979E-04 -1.4988E-01
  5.8500E+01 -1.7007E-05 -1.3483E-02 -2.0680E-04 -1.6394E-01
  5.9000E+01 -1.7024E-05 -1.3547E-02 -2.2382E-04 -1.7810E-01
  5.9500E+01 -2.2569E-05 -1.8069E-02 -2.4639E-04 -1.9726E-01
  6.0000E+01 -2.2650E-05 -1.8234E-02 -2.6904E-04 -2.1659E-01
