title = "dataset water"
variables = "x", "y", "z", "vx", "vy", "vz"
zone t = "velocities, solution time =  4.000E+01 days        " i =   99, j =   99, k =    1,  f=point
  0.5050505E-02  0.0000000E+00  0.5050505E-02  0.4823070E-07  0.0000000E+00  0.4547476E-04
  0.1515152E-01  0.0000000E+00  0.5050505E-02  0.1448856E-06  0.0000000E+00  0.4566952E-04
  0.2525252E-01  0.0000000E+00  0.5050505E-02  0.2421240E-06  0.0000000E+00  0.4605984E-04
  0.3535353E-01  0.0000000E+00  0.5050505E-02  0.3403412E-06  0.0000000E+00  0.4664731E-04
  0.4545455E-01  0.0000000E+00  0.5050505E-02  0.4399398E-06  0.0000000E+00  0.4743435E-04
  0.5555556E-01  0.0000000E+00  0.5050505E-02  0.5413314E-06  0.0000000E+00  0.4842422E-04
  0.6565657E-01  0.0000000E+00  0.5050505E-02  0.6449393E-06  0.0000000E+00  0.4962103E-04
  0.7575758E-01  0.0000000E+00  0.5050505E-02  0.7512017E-06  0.0000000E+00  0.5102979E-04
  0.8585858E-01  0.0000000E+00  0.5050505E-02  0.8605739E-06  0.0000000E+00  0.5265641E-04
  0.9595960E-01  0.0000000E+00  0.5050505E-02  0.9735322E-06  0.0000000E+00  0.5450777E-04
  0.1060606E+00  0.0000000E+00  0.5050505E-02  0.1090577E-05  0.0000000E+00  0.5659177E-04
  0.1161616E+00  0.0000000E+00  0.5050505E-02  0.1212239E-05  0.0000000E+00  0.5891738E-04
  0.1262626E+00  0.0000000E+00  0.5050505E-02  0.1339080E-05  0.0000000E+00  0.6149468E-04
  0.1363636E+00  0.0000000E+00  0.5050505E-02  0.1471703E-05  0.0000000E+00  0.6433498E-04
  0.1464646E+00  0.0000000E+00  0.5050505E-02  0.1610753E-05  0.0000000E+00  0.6745088E-04
  0.1565657E+00  0.0000000E+00  0.5050505E-02  0.1756931E-05  0.0000000E+00  0.7085641E-04
  0.1666667E+00  0.0000000E+00  0.5050505E-02  0.1911000E-05  0.0000000E+00  0.7456711E-04
  0.1767677E+00  0.0000000E+00  0.5050505E-02  0.2073795E-05  0.0000000E+00  0.7860019E-04
  0.1868687E+00  0.0000000E+00  0.5050505E-02  0.2246237E-05  0.0000000E+00  0.8297473E-04
  0.1969697E+00  0.0000000E+00  0.5050505E-02  0.2429354E-05  0.0000000E+00  0.8771184E-04
  0.2070707E+00  0.0000000E+00  0.5050505E-02  0.2624298E-05  0.0000000E+00  0.9283495E-04
  0.2171717E+00  0.0000000E+00  0.5050505E-02  0.2832376E-05  0.0000000E+00  0.9837009E-04
  0.2272727E+00  0.0000000E+00  0.5050505E-02  0.3055085E-05  0.0000000E+00  0.1043463E-03
  0.2373737E+00  0.0000000E+00  0.5050505E-02  0.3294159E-05  0.0000000E+00  0.1107959E-03
  0.2474747E+00  0.0000000E+00  0.5050505E-02  0.3551632E-05  0.0000000E+00  0.1177553E-03
  0.2575758E+00  0.0000000E+00  0.5050505E-02  0.3829921E-05  0.0000000E+00  0.1252659E-03
  0.2676768E+00  0.0000000E+00  0.5050505E-02  0.4131936E-05  0.0000000E+00  0.1333743E-03
  0.2777778E+00  0.0000000E+00  0.5050505E-02  0.4461233E-05  0.0000000E+00  0.1421342E-03
  0.2878788E+00  0.0000000E+00  0.5050505E-02  0.4822219E-05  0.0000000E+00  0.1516080E-03
  0.2979798E+00  0.0000000E+00  0.5050505E-02  0.5220440E-05  0.0000000E+00  0.1618685E-03
  0.3080808E+00  0.0000000E+00  0.5050505E-02  0.5662981E-05  0.0000000E+00  0.1730018E-03
  0.3181818E+00  0.0000000E+00  0.5050505E-02  0.6159030E-05  0.0000000E+00  0.1851117E-03
  0.3282828E+00  0.0000000E+00  0.5050505E-02  0.6720691E-05  0.0000000E+00  0.1983245E-03
  0.3383838E+00  0.0000000E+00  0.5050505E-02  0.7364165E-05  0.0000000E+00  0.2127970E-03
  0.3484848E+00  0.0000000E+00  0.5050505E-02  0.8111494E-05  0.0000000E+00  0.2287266E-03
  0.3585859E+00  0.0000000E+00  0.5050505E-02  0.8993201E-05  0.0000000E+00  0.2463672E-03
  0.3686869E+00  0.0000000E+00  0.5050505E-02  0.1005237E-04  0.0000000E+00  0.2660518E-03
  0.3787879E+00  0.0000000E+00  0.5050505E-02  0.1135119E-04  0.0000000E+00  0.2882267E-03
  0.3888889E+00  0.0000000E+00  0.5050505E-02  0.1298179E-04  0.0000000E+00  0.3135048E-03
  0.3989899E+00  0.0000000E+00  0.5050505E-02  0.1508543E-04  0.0000000E+00  0.3427523E-03
  0.4090909E+00  0.0000000E+00  0.5050505E-02  0.1788843E-04  0.0000000E+00  0.3772358E-03
  0.4191919E+00  0.0000000E+00  0.5050505E-02  0.2177459E-04  0.0000000E+00  0.4188902E-03
  0.4292929E+00  0.0000000E+00  0.5050505E-02  0.2743907E-04  0.0000000E+00  0.4708399E-03
  0.4393939E+00  0.0000000E+00  0.5050505E-02  0.3620833E-04  0.0000000E+00  0.5384580E-03
  0.4494950E+00  0.0000000E+00  0.5050505E-02  0.5052878E-04  0.0000000E+00  0.6313835E-03
  0.4595959E+00  0.0000000E+00  0.5050505E-02  0.7310880E-04  0.0000000E+00  0.7653797E-03
  0.4696970E+00  0.0000000E+00  0.5050505E-02 -0.2034775E-04  0.0000000E+00  0.8225607E-03
  0.4797980E+00  0.0000000E+00  0.5050505E-02 -0.7613461E-05  0.0000000E+00  0.7916962E-03
  0.4898990E+00  0.0000000E+00  0.5050505E-02 -0.4270608E-04  0.0000000E+00  0.7367504E-03
  0.5000000E+00  0.0000000E+00  0.5050505E-02 -0.3305905E-04  0.0000000E+00  0.6544644E-03
  0.5101010E+00  0.0000000E+00  0.5050505E-02 -0.3069646E-04  0.0000000E+00  0.5858144E-03
  0.5202020E+00  0.0000000E+00  0.5050505E-02 -0.2539248E-04  0.0000000E+00  0.5258422E-03
  0.5303030E+00  0.0000000E+00  0.5050505E-02 -0.2128487E-04  0.0000000E+00  0.4762328E-03
  0.5404040E+00  0.0000000E+00  0.5050505E-02 -0.1829093E-04  0.0000000E+00  0.4343847E-03
  0.5505050E+00  0.0000000E+00  0.5050505E-02 -0.1602438E-04  0.0000000E+00  0.3982583E-03
  0.5606061E+00  0.0000000E+00  0.5050505E-02 -0.1423122E-04  0.0000000E+00  0.3665283E-03
  0.5707071E+00  0.0000000E+00  0.5050505E-02 -0.1276270E-04  0.0000000E+00  0.3383157E-03
  0.5808081E+00  0.0000000E+00  0.5050505E-02 -0.1152877E-04  0.0000000E+00  0.3130055E-03
  0.5909091E+00  0.0000000E+00  0.5050505E-02 -0.1047171E-04  0.0000000E+00  0.2901460E-03
  0.6010101E+00  0.0000000E+00  0.5050505E-02 -0.9552587E-05  0.0000000E+00  0.2693921E-03
  0.6111111E+00  0.0000000E+00  0.5050505E-02 -0.8744019E-05  0.0000000E+00  0.2504724E-03
  0.6212121E+00  0.0000000E+00  0.5050505E-02 -0.8026097E-05  0.0000000E+00  0.2331677E-03
  0.6313131E+00  0.0000000E+00  0.5050505E-02 -0.7383893E-05  0.0000000E+00  0.2172971E-03
  0.6414142E+00  0.0000000E+00  0.5050505E-02 -0.6805920E-05  0.0000000E+00  0.2027091E-03
  0.6515151E+00  0.0000000E+00  0.5050505E-02 -0.6283129E-05  0.0000000E+00  0.1892748E-03
  0.6616161E+00  0.0000000E+00  0.5050505E-02 -0.5808246E-05  0.0000000E+00  0.1768831E-03
  0.6717172E+00  0.0000000E+00  0.5050505E-02 -0.5375316E-05  0.0000000E+00  0.1654378E-03
  0.6818182E+00  0.0000000E+00  0.5050505E-02 -0.4979391E-05  0.0000000E+00  0.1548544E-03
  0.6919192E+00  0.0000000E+00  0.5050505E-02 -0.4616300E-05  0.0000000E+00  0.1450584E-03
  0.7020202E+00  0.0000000E+00  0.5050505E-02 -0.4282485E-05  0.0000000E+00  0.1359840E-03
  0.7121212E+00  0.0000000E+00  0.5050505E-02 -0.3974877E-05  0.0000000E+00  0.1275723E-03
  0.7222222E+00  0.0000000E+00  0.5050505E-02 -0.3690810E-05  0.0000000E+00  0.1197708E-03
  0.7323232E+00  0.0000000E+00  0.5050505E-02 -0.3427940E-05  0.0000000E+00  0.1125323E-03
  0.7424242E+00  0.0000000E+00  0.5050505E-02 -0.3184201E-05  0.0000000E+00  0.1058144E-03
  0.7525253E+00  0.0000000E+00  0.5050505E-02 -0.2957756E-05  0.0000000E+00  0.9957898E-04
  0.7626263E+00  0.0000000E+00  0.5050505E-02 -0.2746963E-05  0.0000000E+00  0.9379155E-04
  0.7727273E+00  0.0000000E+00  0.5050505E-02 -0.2550353E-05  0.0000000E+00  0.8842096E-04
  0.7828283E+00  0.0000000E+00  0.5050505E-02 -0.2366600E-05  0.0000000E+00  0.8343903E-04
  0.7929293E+00  0.0000000E+00  0.5050505E-02 -0.2194510E-05  0.0000000E+00  0.7882024E-04
  0.8030303E+00  0.0000000E+00  0.5050505E-02 -0.2033000E-05  0.0000000E+00  0.7454152E-04
  0.8131313E+00  0.0000000E+00  0.5050505E-02 -0.1881086E-05  0.0000000E+00  0.7058193E-04
  0.8232324E+00  0.0000000E+00  0.5050505E-02 -0.1737873E-05  0.0000000E+00  0.6692254E-04
  0.8333333E+00  0.0000000E+00  0.5050505E-02 -0.1602545E-05  0.0000000E+00  0.6354620E-04
  0.8434343E+00  0.0000000E+00  0.5050505E-02 -0.1474355E-05  0.0000000E+00  0.6043739E-04
  0.8535354E+00  0.0000000E+00  0.5050505E-02 -0.1352617E-05  0.0000000E+00  0.5758210E-04
  0.8636364E+00  0.0000000E+00  0.5050505E-02 -0.1236702E-05  0.0000000E+00  0.5496768E-04
  0.8737374E+00  0.0000000E+00  0.5050505E-02 -0.1126026E-05  0.0000000E+00  0.5258274E-04
  0.8838384E+00  0.0000000E+00  0.5050505E-02 -0.1020051E-05  0.0000000E+00  0.5041706E-04
  0.8939394E+00  0.0000000E+00  0.5050505E-02 -0.9182780E-06  0.0000000E+00  0.4846150E-04
  0.9040404E+00  0.0000000E+00  0.5050505E-02 -0.8202388E-06  0.0000000E+00  0.4670790E-04
  0.9141414E+00  0.0000000E+00  0.5050505E-02 -0.7254965E-06  0.0000000E+00  0.4514905E-04
  0.9242424E+00  0.0000000E+00  0.5050505E-02 -0.6336394E-06  0.0000000E+00  0.4377862E-04
  0.9343435E+00  0.0000000E+00  0.5050505E-02 -0.5442782E-06  0.0000000E+00  0.4259108E-04
  0.9444444E+00  0.0000000E+00  0.5050505E-02 -0.4570425E-06  0.0000000E+00  0.4158171E-04
  0.9545454E+00  0.0000000E+00  0.5050505E-02 -0.3715781E-06  0.0000000E+00  0.4074651E-04
  0.9646465E+00  0.0000000E+00  0.5050505E-02 -0.2875442E-06  0.0000000E+00  0.4008221E-04
  0.9747475E+00  0.0000000E+00  0.5050505E-02 -0.2046111E-06  0.0000000E+00  0.3958622E-04
  0.9848485E+00  0.0000000E+00  0.5050505E-02 -0.1224573E-06  0.0000000E+00  0.3925661E-04
  0.9974747E+00  0.0000000E+00  0.5050505E-02 -0.4076778E-07  0.0000000E+00  0.3909213E-04
  0.5050505E-02  0.0000000E+00  0.1515152E-01  0.1445318E-06  0.0000000E+00  0.4547889E-04
  0.1515152E-01  0.0000000E+00  0.1515152E-01  0.4341761E-06  0.0000000E+00  0.4567357E-04
  0.2525252E-01  0.0000000E+00  0.1515152E-01  0.7255711E-06  0.0000000E+00  0.4606372E-04
  0.3535353E-01  0.0000000E+00  0.1515152E-01  0.1019901E-05  0.0000000E+00  0.4665093E-04
  0.4545455E-01  0.0000000E+00  0.1515152E-01  0.1318373E-05  0.0000000E+00  0.4743761E-04
  0.5555556E-01  0.0000000E+00  0.1515152E-01  0.1622218E-05  0.0000000E+00  0.4842701E-04
  0.6565657E-01  0.0000000E+00  0.1515152E-01  0.1932706E-05  0.0000000E+00  0.4962324E-04
  0.7575758E-01  0.0000000E+00  0.1515152E-01  0.2251149E-05  0.0000000E+00  0.5103128E-04
  0.8585858E-01  0.0000000E+00  0.1515152E-01  0.2578910E-05  0.0000000E+00  0.5265704E-04
  0.9595960E-01  0.0000000E+00  0.1515152E-01  0.2917417E-05  0.0000000E+00  0.5450738E-04
  0.1060606E+00  0.0000000E+00  0.1515152E-01  0.3268168E-05  0.0000000E+00  0.5659018E-04
  0.1161616E+00  0.0000000E+00  0.1515152E-01  0.3632749E-05  0.0000000E+00  0.5891436E-04
  0.1262626E+00  0.0000000E+00  0.1515152E-01  0.4012846E-05  0.0000000E+00  0.6149000E-04
  0.1363636E+00  0.0000000E+00  0.1515152E-01  0.4410258E-05  0.0000000E+00  0.6432837E-04
  0.1464646E+00  0.0000000E+00  0.1515152E-01  0.4826923E-05  0.0000000E+00  0.6744201E-04
  0.1565657E+00  0.0000000E+00  0.1515152E-01  0.5264933E-05  0.0000000E+00  0.7084489E-04
  0.1666667E+00  0.0000000E+00  0.1515152E-01  0.5726567E-05  0.0000000E+00  0.7455249E-04
  0.1767677E+00  0.0000000E+00  0.1515152E-01  0.6214320E-05  0.0000000E+00  0.7858193E-04
  0.1868687E+00  0.0000000E+00  0.1515152E-01  0.6730947E-05  0.0000000E+00  0.8295217E-04
  0.1969697E+00  0.0000000E+00  0.1515152E-01  0.7279509E-05  0.0000000E+00  0.8768420E-04
  0.2070707E+00  0.0000000E+00  0.1515152E-01  0.7863442E-05  0.0000000E+00  0.9280126E-04
  0.2171717E+00  0.0000000E+00  0.1515152E-01  0.8486638E-05  0.0000000E+00  0.9832913E-04
  0.2272727E+00  0.0000000E+00  0.1515152E-01  0.9153547E-05  0.0000000E+00  0.1042965E-03
  0.2373737E+00  0.0000000E+00  0.1515152E-01  0.9869320E-05  0.0000000E+00  0.1107355E-03
  0.2474747E+00  0.0000000E+00  0.1515152E-01  0.1063999E-04  0.0000000E+00  0.1176818E-03
  0.2575758E+00  0.0000000E+00  0.1515152E-01  0.1147270E-04  0.0000000E+00  0.1251761E-03
  0.2676768E+00  0.0000000E+00  0.1515152E-01  0.1237606E-04  0.0000000E+00  0.1332643E-03
  0.2777778E+00  0.0000000E+00  0.1515152E-01  0.1336056E-04  0.0000000E+00  0.1419987E-03
  0.2878788E+00  0.0000000E+00  0.1515152E-01  0.1443916E-04  0.0000000E+00  0.1514399E-03
  0.2979798E+00  0.0000000E+00  0.1515152E-01  0.1562815E-04  0.0000000E+00  0.1616584E-03
  0.3080808E+00  0.0000000E+00  0.1515152E-01  0.1694829E-04  0.0000000E+00  0.1727373E-03
  0.3181818E+00  0.0000000E+00  0.1515152E-01  0.1842642E-04  0.0000000E+00  0.1847757E-03
  0.3282828E+00  0.0000000E+00  0.1515152E-01  0.2009783E-04  0.0000000E+00  0.1978938E-03
  0.3383838E+00  0.0000000E+00  0.1515152E-01  0.2200959E-04  0.0000000E+00  0.2122390E-03
  0.3484848E+00  0.0000000E+00  0.1515152E-01  0.2422553E-04  0.0000000E+00  0.2279958E-03
  0.3585859E+00  0.0000000E+00  0.1515152E-01  0.2683364E-04  0.0000000E+00  0.2453987E-03
  0.3686869E+00  0.0000000E+00  0.1515152E-01  0.2995750E-04  0.0000000E+00  0.2647513E-03
  0.3787879E+00  0.0000000E+00  0.1515152E-01  0.3377416E-04  0.0000000E+00  0.2864541E-03
  0.3888889E+00  0.0000000E+00  0.1515152E-01  0.3854332E-04  0.0000000E+00  0.3110457E-03
  0.3989899E+00  0.0000000E+00  0.1515152E-01  0.4465721E-04  0.0000000E+00  0.3392654E-03
  0.4090909E+00  0.0000000E+00  0.1515152E-01  0.5273099E-04  0.0000000E+00  0.3721482E-03
  0.4191919E+00  0.0000000E+00  0.1515152E-01  0.6378056E-04  0.0000000E+00  0.4111779E-03
  0.4292929E+00  0.0000000E+00  0.1515152E-01  0.7961130E-04  0.0000000E+00  0.4585649E-03
  0.4393939E+00  0.0000000E+00  0.1515152E-01  0.1037960E-03  0.0000000E+00  0.5179769E-03
  0.4494950E+00  0.0000000E+00  0.1515152E-01  0.1446065E-03  0.0000000E+00  0.5977279E-03
  0.4595959E+00  0.0000000E+00  0.1515152E-01  0.1685850E-03  0.0000000E+00  0.6684281E-03
  0.4696970E+00  0.0000000E+00  0.1515152E-01 -0.1701781E-05  0.0000000E+00  0.7354302E-03
  0.4797980E+00  0.0000000E+00  0.1515152E-01 -0.3601272E-04  0.0000000E+00  0.7552836E-03
  0.4898990E+00  0.0000000E+00  0.1515152E-01 -0.1123217E-03  0.0000000E+00  0.7030694E-03
  0.5000000E+00  0.0000000E+00  0.1515152E-01 -0.9247561E-04  0.0000000E+00  0.6452498E-03
  0.5101010E+00  0.0000000E+00  0.1515152E-01 -0.9506454E-04  0.0000000E+00  0.5807073E-03
  0.5202020E+00  0.0000000E+00  0.1515152E-01 -0.7520902E-04  0.0000000E+00  0.5186689E-03
  0.5303030E+00  0.0000000E+00  0.1515152E-01 -0.6291144E-04  0.0000000E+00  0.4711075E-03
  0.5404040E+00  0.0000000E+00  0.1515152E-01 -0.5426313E-04  0.0000000E+00  0.4308922E-03
  0.5505050E+00  0.0000000E+00  0.1515152E-01 -0.4768469E-04  0.0000000E+00  0.3957960E-03
  0.5606061E+00  0.0000000E+00  0.1515152E-01 -0.4243353E-04  0.0000000E+00  0.3647207E-03
  0.5707071E+00  0.0000000E+00  0.1515152E-01 -0.3810450E-04  0.0000000E+00  0.3369441E-03
  0.5808081E+00  0.0000000E+00  0.1515152E-01 -0.3445094E-04  0.0000000E+00  0.3119378E-03
  0.5909091E+00  0.0000000E+00  0.1515152E-01 -0.3131170E-04  0.0000000E+00  0.2892980E-03
  0.6010101E+00  0.0000000E+00  0.1515152E-01 -0.2857632E-04  0.0000000E+00  0.2687078E-03
  0.6111111E+00  0.0000000E+00  0.1515152E-01 -0.2616628E-04  0.0000000E+00  0.2499132E-03
  0.6212121E+00  0.0000000E+00  0.1515152E-01 -0.2402401E-04  0.0000000E+00  0.2327060E-03
  0.6313131E+00  0.0000000E+00  0.1515152E-01 -0.2210606E-04  0.0000000E+00  0.2169129E-03
  0.6414142E+00  0.0000000E+00  0.1515152E-01 -0.2037883E-04  0.0000000E+00  0.2023873E-03
  0.6515151E+00  0.0000000E+00  0.1515152E-01 -0.1881573E-04  0.0000000E+00  0.1890041E-03
  0.6616161E+00  0.0000000E+00  0.1515152E-01 -0.1739532E-04  0.0000000E+00  0.1766546E-03
  0.6717172E+00  0.0000000E+00  0.1515152E-01 -0.1610000E-04  0.0000000E+00  0.1652445E-03
  0.6818182E+00  0.0000000E+00  0.1515152E-01 -0.1491512E-04  0.0000000E+00  0.1546907E-03
  0.6919192E+00  0.0000000E+00  0.1515152E-01 -0.1382828E-04  0.0000000E+00  0.1449199E-03
  0.7020202E+00  0.0000000E+00  0.1515152E-01 -0.1282893E-04  0.0000000E+00  0.1358669E-03
  0.7121212E+00  0.0000000E+00  0.1515152E-01 -0.1190791E-04  0.0000000E+00  0.1274735E-03
  0.7222222E+00  0.0000000E+00  0.1515152E-01 -0.1105729E-04  0.0000000E+00  0.1196877E-03
  0.7323232E+00  0.0000000E+00  0.1515152E-01 -0.1027008E-04  0.0000000E+00  0.1124627E-03
  0.7424242E+00  0.0000000E+00  0.1515152E-01 -0.9540107E-05  0.0000000E+00  0.1057565E-03
  0.7525253E+00  0.0000000E+00  0.1515152E-01 -0.8861884E-05  0.0000000E+00  0.9953115E-04
  0.7626263E+00  0.0000000E+00  0.1515152E-01 -0.8230509E-05  0.0000000E+00  0.9375241E-04
  0.7727273E+00  0.0000000E+00  0.1515152E-01 -0.7641585E-05  0.0000000E+00  0.8838932E-04
  0.7828283E+00  0.0000000E+00  0.1515152E-01 -0.7091152E-05  0.0000000E+00  0.8341385E-04
  0.7929293E+00  0.0000000E+00  0.1515152E-01 -0.6575632E-05  0.0000000E+00  0.7880064E-04
  0.8030303E+00  0.0000000E+00  0.1515152E-01 -0.6091787E-05  0.0000000E+00  0.7452671E-04
  0.8131313E+00  0.0000000E+00  0.1515152E-01 -0.5636675E-05  0.0000000E+00  0.7057124E-04
  0.8232324E+00  0.0000000E+00  0.1515152E-01 -0.5207616E-05  0.0000000E+00  0.6691536E-04
  0.8333333E+00  0.0000000E+00  0.1515152E-01 -0.4802166E-05  0.0000000E+00  0.6354202E-04
  0.8434343E+00  0.0000000E+00  0.1515152E-01 -0.4418090E-05  0.0000000E+00  0.6043577E-04
  0.8535354E+00  0.0000000E+00  0.1515152E-01 -0.4053334E-05  0.0000000E+00  0.5758265E-04
  0.8636364E+00  0.0000000E+00  0.1515152E-01 -0.3706012E-05  0.0000000E+00  0.5497006E-04
  0.8737374E+00  0.0000000E+00  0.1515152E-01 -0.3374382E-05  0.0000000E+00  0.5258666E-04
  0.8838384E+00  0.0000000E+00  0.1515152E-01 -0.3056832E-05  0.0000000E+00  0.5042228E-04
  0.8939394E+00  0.0000000E+00  0.1515152E-01 -0.2751863E-05  0.0000000E+00  0.4846779E-04
  0.9040404E+00  0.0000000E+00  0.1515152E-01 -0.2458077E-05  0.0000000E+00  0.4671508E-04
  0.9141414E+00  0.0000000E+00  0.1515152E-01 -0.2174166E-05  0.0000000E+00  0.4515697E-04
  0.9242424E+00  0.0000000E+00  0.1515152E-01 -0.1898896E-05  0.0000000E+00  0.4378713E-04
  0.9343435E+00  0.0000000E+00  0.1515152E-01 -0.1631102E-05  0.0000000E+00  0.4260007E-04
  0.9444444E+00  0.0000000E+00  0.1515152E-01 -0.1369675E-05  0.0000000E+00  0.4159108E-04
  0.9545454E+00  0.0000000E+00  0.1515152E-01 -0.1113554E-05  0.0000000E+00  0.4075618E-04
  0.9646465E+00  0.0000000E+00  0.1515152E-01 -0.8617194E-06  0.0000000E+00  0.4009210E-04
  0.9747475E+00  0.0000000E+00  0.1515152E-01 -0.6131828E-06  0.0000000E+00  0.3959626E-04
  0.9848485E+00  0.0000000E+00  0.1515152E-01 -0.3669820E-06  0.0000000E+00  0.3926675E-04
  0.9974747E+00  0.0000000E+00  0.1515152E-01 -0.1221734E-06  0.0000000E+00  0.3910231E-04
  0.5050505E-02  0.0000000E+00  0.2525252E-01  0.2404951E-06  0.0000000E+00  0.4548867E-04
  0.1515152E-01  0.0000000E+00  0.2525252E-01  0.7224534E-06  0.0000000E+00  0.4568320E-04
  0.2525252E-01  0.0000000E+00  0.2525252E-01  0.1207327E-05  0.0000000E+00  0.4607302E-04
  0.3535353E-01  0.0000000E+00  0.2525252E-01  0.1697088E-05  0.0000000E+00  0.4665974E-04
  0.4545455E-01  0.0000000E+00  0.2525252E-01  0.2193741E-05  0.0000000E+00  0.4744574E-04
  0.5555556E-01  0.0000000E+00  0.2525252E-01  0.2699335E-05  0.0000000E+00  0.4843426E-04
  0.6565657E-01  0.0000000E+00  0.2525252E-01  0.3215981E-05  0.0000000E+00  0.4962938E-04
  0.7575758E-01  0.0000000E+00  0.2525252E-01  0.3745857E-05  0.0000000E+00  0.5103606E-04
  0.8585858E-01  0.0000000E+00  0.2525252E-01  0.4291233E-05  0.0000000E+00  0.5266019E-04
  0.9595960E-01  0.0000000E+00  0.2525252E-01  0.4854478E-05  0.0000000E+00  0.5450859E-04
  0.1060606E+00  0.0000000E+00  0.2525252E-01  0.5438083E-05  0.0000000E+00  0.5658909E-04
  0.1161616E+00  0.0000000E+00  0.2525252E-01  0.6044682E-05  0.0000000E+00  0.5891059E-04
  0.1262626E+00  0.0000000E+00  0.2525252E-01  0.6677071E-05  0.0000000E+00  0.6148308E-04
  0.1363636E+00  0.0000000E+00  0.2525252E-01  0.7338239E-05  0.0000000E+00  0.6431777E-04
  0.1464646E+00  0.0000000E+00  0.2525252E-01  0.8031396E-05  0.0000000E+00  0.6742711E-04
  0.1565657E+00  0.0000000E+00  0.2525252E-01  0.8760011E-05  0.0000000E+00  0.7082497E-04
  0.1666667E+00  0.0000000E+00  0.2525252E-01  0.9527856E-05  0.0000000E+00  0.7452668E-04
  0.1767677E+00  0.0000000E+00  0.2525252E-01  0.1033906E-04  0.0000000E+00  0.7854920E-04
  0.1868687E+00  0.0000000E+00  0.2525252E-01  0.1119816E-04  0.0000000E+00  0.8291129E-04
  0.1969697E+00  0.0000000E+00  0.2525252E-01  0.1211022E-04  0.0000000E+00  0.8763365E-04
  0.2070707E+00  0.0000000E+00  0.2525252E-01  0.1308089E-04  0.0000000E+00  0.9273920E-04
  0.2171717E+00  0.0000000E+00  0.2525252E-01  0.1411656E-04  0.0000000E+00  0.9825327E-04
  0.2272727E+00  0.0000000E+00  0.2525252E-01  0.1522451E-04  0.0000000E+00  0.1042040E-03
  0.2373737E+00  0.0000000E+00  0.2525252E-01  0.1641317E-04  0.0000000E+00  0.1106227E-03
  0.2474747E+00  0.0000000E+00  0.2525252E-01  0.1769236E-04  0.0000000E+00  0.1175441E-03
  0.2575758E+00  0.0000000E+00  0.2525252E-01  0.1907369E-04  0.0000000E+00  0.1250076E-03
  0.2676768E+00  0.0000000E+00  0.2525252E-01  0.2057107E-04  0.0000000E+00  0.1330573E-03
  0.2777778E+00  0.0000000E+00  0.2525252E-01  0.2220139E-04  0.0000000E+00  0.1417431E-03
  0.2878788E+00  0.0000000E+00  0.2525252E-01  0.2398546E-04  0.0000000E+00  0.1511225E-03
  0.2979798E+00  0.0000000E+00  0.2525252E-01  0.2594931E-04  0.0000000E+00  0.1612615E-03
  0.3080808E+00  0.0000000E+00  0.2525252E-01  0.2812592E-04  0.0000000E+00  0.1722371E-03
  0.3181818E+00  0.0000000E+00  0.2525252E-01  0.3055779E-04  0.0000000E+00  0.1841402E-03
  0.3282828E+00  0.0000000E+00  0.2525252E-01  0.3330040E-04  0.0000000E+00  0.1970788E-03
  0.3383838E+00  0.0000000E+00  0.2525252E-01  0.3642737E-04  0.0000000E+00  0.2111838E-03
  0.3484848E+00  0.0000000E+00  0.2525252E-01  0.4003779E-04  0.0000000E+00  0.2266155E-03
  0.3585859E+00  0.0000000E+00  0.2525252E-01  0.4426723E-04  0.0000000E+00  0.2435727E-03
  0.3686869E+00  0.0000000E+00  0.2525252E-01  0.4930409E-04  0.0000000E+00  0.2623063E-03
  0.3787879E+00  0.0000000E+00  0.2525252E-01  0.5541479E-04  0.0000000E+00  0.2831360E-03
  0.3888889E+00  0.0000000E+00  0.2525252E-01  0.6298297E-04  0.0000000E+00  0.3064737E-03
  0.3989899E+00  0.0000000E+00  0.2525252E-01  0.7257239E-04  0.0000000E+00  0.3328512E-03
  0.4090909E+00  0.0000000E+00  0.2525252E-01  0.8503001E-04  0.0000000E+00  0.3629433E-03
  0.4191919E+00  0.0000000E+00  0.2525252E-01  0.1016577E-03  0.0000000E+00  0.3975459E-03
  0.4292929E+00  0.0000000E+00  0.2525252E-01  0.1244913E-03  0.0000000E+00  0.4373115E-03
  0.4393939E+00  0.0000000E+00  0.2525252E-01  0.1566824E-03  0.0000000E+00  0.4812993E-03
  0.4494950E+00  0.0000000E+00  0.2525252E-01  0.2025602E-03  0.0000000E+00  0.5194748E-03
  0.4595959E+00  0.0000000E+00  0.2525252E-01  0.2075220E-03  0.0000000E+00  0.5526757E-03
  0.4696970E+00  0.0000000E+00  0.2525252E-01  0.1209413E-03  0.0000000E+00  0.6608118E-03
  0.4797980E+00  0.0000000E+00  0.2525252E-01 -0.8060029E-04  0.0000000E+00  0.7249423E-03
  0.4898990E+00  0.0000000E+00  0.2525252E-01 -0.1761899E-03  0.0000000E+00  0.6588467E-03
  0.5000000E+00  0.0000000E+00  0.2525252E-01 -0.1504201E-03  0.0000000E+00  0.5851536E-03
  0.5101010E+00  0.0000000E+00  0.2525252E-01 -0.1431026E-03  0.0000000E+00  0.5358947E-03
  0.5202020E+00  0.0000000E+00  0.2525252E-01 -0.1183751E-03  0.0000000E+00  0.5004996E-03
  0.5303030E+00  0.0000000E+00  0.2525252E-01 -0.1014241E-03  0.0000000E+00  0.4612853E-03
  0.5404040E+00  0.0000000E+00  0.2525252E-01 -0.8852951E-04  0.0000000E+00  0.4245235E-03
  0.5505050E+00  0.0000000E+00  0.2525252E-01 -0.7828807E-04  0.0000000E+00  0.3912759E-03
  0.5606061E+00  0.0000000E+00  0.2525252E-01 -0.6992557E-04  0.0000000E+00  0.3613583E-03
  0.5707071E+00  0.0000000E+00  0.2525252E-01 -0.6294276E-04  0.0000000E+00  0.3343674E-03
  0.5808081E+00  0.0000000E+00  0.2525252E-01 -0.5700189E-04  0.0000000E+00  0.3099187E-03
  0.5909091E+00  0.0000000E+00  0.2525252E-01 -0.5186915E-04  0.0000000E+00  0.2876872E-03
  0.6010101E+00  0.0000000E+00  0.2525252E-01 -0.4737905E-04  0.0000000E+00  0.2674040E-03
  0.6111111E+00  0.0000000E+00  0.2525252E-01 -0.4341152E-04  0.0000000E+00  0.2488453E-03
  0.6212121E+00  0.0000000E+00  0.2525252E-01 -0.3987718E-04  0.0000000E+00  0.2318230E-03
  0.6313131E+00  0.0000000E+00  0.2525252E-01 -0.3670776E-04  0.0000000E+00  0.2161774E-03
  0.6414142E+00  0.0000000E+00  0.2525252E-01 -0.3384995E-04  0.0000000E+00  0.2017711E-03
  0.6515151E+00  0.0000000E+00  0.2525252E-01 -0.3126122E-04  0.0000000E+00  0.1884856E-03
  0.6616161E+00  0.0000000E+00  0.2525252E-01 -0.2890703E-04  0.0000000E+00  0.1762170E-03
  0.6717172E+00  0.0000000E+00  0.2525252E-01 -0.2675888E-04  0.0000000E+00  0.1648746E-03
  0.6818182E+00  0.0000000E+00  0.2525252E-01 -0.2479293E-04  0.0000000E+00  0.1543778E-03
  0.6919192E+00  0.0000000E+00  0.2525252E-01 -0.2298898E-04  0.0000000E+00  0.1446553E-03
  0.7020202E+00  0.0000000E+00  0.2525252E-01 -0.2132969E-04  0.0000000E+00  0.1356435E-03
  0.7121212E+00  0.0000000E+00  0.2525252E-01 -0.1980010E-04  0.0000000E+00  0.1272853E-03
  0.7222222E+00  0.0000000E+00  0.2525252E-01 -0.1838712E-04  0.0000000E+00  0.1195298E-03
  0.7323232E+00  0.0000000E+00  0.2525252E-01 -0.1707923E-04  0.0000000E+00  0.1123309E-03
  0.7424242E+00  0.0000000E+00  0.2525252E-01 -0.1586626E-04  0.0000000E+00  0.1056472E-03
  0.7525253E+00  0.0000000E+00  0.2525252E-01 -0.1473914E-04  0.0000000E+00  0.9944132E-04
  0.7626263E+00  0.0000000E+00  0.2525252E-01 -0.1368975E-04  0.0000000E+00  0.9367935E-04
  0.7727273E+00  0.0000000E+00  0.2525252E-01 -0.1271081E-04  0.0000000E+00  0.8833073E-04
  0.7828283E+00  0.0000000E+00  0.2525252E-01 -0.1179577E-04  0.0000000E+00  0.8336774E-04
  0.7929293E+00  0.0000000E+00  0.2525252E-01 -0.1093869E-04  0.0000000E+00  0.7876526E-04
  0.8030303E+00  0.0000000E+00  0.2525252E-01 -0.1013421E-04  0.0000000E+00  0.7450055E-04
  0.8131313E+00  0.0000000E+00  0.2525252E-01 -0.9377442E-05  0.0000000E+00  0.7055298E-04
  0.8232324E+00  0.0000000E+00  0.2525252E-01 -0.8663940E-05  0.0000000E+00  0.6690387E-04
  0.8333333E+00  0.0000000E+00  0.2525252E-01 -0.7989649E-05  0.0000000E+00  0.6353630E-04
  0.8434343E+00  0.0000000E+00  0.2525252E-01 -0.7350858E-05  0.0000000E+00  0.6043494E-04
  0.8535354E+00  0.0000000E+00  0.2525252E-01 -0.6744161E-05  0.0000000E+00  0.5758596E-04
  0.8636364E+00  0.0000000E+00  0.2525252E-01 -0.6166423E-05  0.0000000E+00  0.5497687E-04
  0.8737374E+00  0.0000000E+00  0.2525252E-01 -0.5614753E-05  0.0000000E+00  0.5259641E-04
  0.8838384E+00  0.0000000E+00  0.2525252E-01 -0.5086475E-05  0.0000000E+00  0.5043448E-04
  0.8939394E+00  0.0000000E+00  0.2525252E-01 -0.4579099E-05  0.0000000E+00  0.4848204E-04
  0.9040404E+00  0.0000000E+00  0.2525252E-01 -0.4090305E-05  0.0000000E+00  0.4673101E-04
  0.9141414E+00  0.0000000E+00  0.2525252E-01 -0.3617918E-05  0.0000000E+00  0.4517428E-04
  0.9242424E+00  0.0000000E+00  0.2525252E-01 -0.3159892E-05  0.0000000E+00  0.4380556E-04
  0.9343435E+00  0.0000000E+00  0.2525252E-01 -0.2714289E-05  0.0000000E+00  0.4261941E-04
  0.9444444E+00  0.0000000E+00  0.2525252E-01 -0.2279269E-05  0.0000000E+00  0.4161113E-04
  0.9545454E+00  0.0000000E+00  0.2525252E-01 -0.1853069E-05  0.0000000E+00  0.4077678E-04
  0.9646465E+00  0.0000000E+00  0.2525252E-01 -0.1433995E-05  0.0000000E+00  0.4011311E-04
  0.9747475E+00  0.0000000E+00  0.2525252E-01 -0.1020404E-05  0.0000000E+00  0.3961756E-04
  0.9848485E+00  0.0000000E+00  0.2525252E-01 -0.6106988E-06  0.0000000E+00  0.3928824E-04
  0.9974747E+00  0.0000000E+00  0.2525252E-01 -0.2033099E-06  0.0000000E+00  0.3912389E-04
  0.5050505E-02  0.0000000E+00  0.3535353E-01  0.3360884E-06  0.0000000E+00  0.4550549E-04
  0.1515152E-01  0.0000000E+00  0.3535353E-01  0.1009619E-05  0.0000000E+00  0.4569979E-04
  0.2525252E-01  0.0000000E+00  0.3535353E-01  0.1687225E-05  0.0000000E+00  0.4608916E-04
  0.3535353E-01  0.0000000E+00  0.3535353E-01  0.2371660E-05  0.0000000E+00  0.4667517E-04
  0.4545455E-01  0.0000000E+00  0.3535353E-01  0.3065721E-05  0.0000000E+00  0.4746020E-04
  0.5555556E-01  0.0000000E+00  0.3535353E-01  0.3772272E-05  0.0000000E+00  0.4844746E-04
  0.6565657E-01  0.0000000E+00  0.3535353E-01  0.4494256E-05  0.0000000E+00  0.4964100E-04
  0.7575758E-01  0.0000000E+00  0.3535353E-01  0.5234714E-05  0.0000000E+00  0.5104576E-04
  0.8585858E-01  0.0000000E+00  0.3535353E-01  0.5996809E-05  0.0000000E+00  0.5266757E-04
  0.9595960E-01  0.0000000E+00  0.3535353E-01  0.6783846E-05  0.0000000E+00  0.5451322E-04
  0.1060606E+00  0.0000000E+00  0.3535353E-01  0.7599299E-05  0.0000000E+00  0.5659048E-04
  0.1161616E+00  0.0000000E+00  0.3535353E-01  0.8446834E-05  0.0000000E+00  0.5890817E-04
  0.1262626E+00  0.0000000E+00  0.3535353E-01  0.9330349E-05  0.0000000E+00  0.6147620E-04
  0.1363636E+00  0.0000000E+00  0.3535353E-01  0.1025400E-04  0.0000000E+00  0.6430566E-04
  0.1464646E+00  0.0000000E+00  0.3535353E-01  0.1122225E-04  0.0000000E+00  0.6740892E-04
  0.1565657E+00  0.0000000E+00  0.3535353E-01  0.1223992E-04  0.0000000E+00  0.7079966E-04
  0.1666667E+00  0.0000000E+00  0.3535353E-01  0.1331223E-04  0.0000000E+00  0.7449303E-04
  0.1767677E+00  0.0000000E+00  0.3535353E-01  0.1444490E-04  0.0000000E+00  0.7850578E-04
  0.1868687E+00  0.0000000E+00  0.3535353E-01  0.1564422E-04  0.0000000E+00  0.8285634E-04
  0.1969697E+00  0.0000000E+00  0.3535353E-01  0.1691714E-04  0.0000000E+00  0.8756507E-04
  0.2070707E+00  0.0000000E+00  0.3535353E-01  0.1827145E-04  0.0000000E+00  0.9265439E-04
  0.2171717E+00  0.0000000E+00  0.3535353E-01  0.1971589E-04  0.0000000E+00  0.9814903E-04
  0.2272727E+00  0.0000000E+00  0.3535353E-01  0.2126043E-04  0.0000000E+00  0.1040763E-03
  0.2373737E+00  0.0000000E+00  0.3535353E-01  0.2291650E-04  0.0000000E+00  0.1104665E-03
  0.2474747E+00  0.0000000E+00  0.3535353E-01  0.2469741E-04  0.0000000E+00  0.1173531E-03
  0.2575758E+00  0.0000000E+00  0.3535353E-01  0.2661880E-04  0.0000000E+00  0.1247735E-03
  0.2676768E+00  0.0000000E+00  0.3535353E-01  0.2869929E-04  0.0000000E+00  0.1327693E-03
  0.2777778E+00  0.0000000E+00  0.3535353E-01  0.3096139E-04  0.0000000E+00  0.1413874E-03
  0.2878788E+00  0.0000000E+00  0.3535353E-01  0.3343263E-04  0.0000000E+00  0.1506807E-03
  0.2979798E+00  0.0000000E+00  0.3535353E-01  0.3614722E-04  0.0000000E+00  0.1607093E-03