title = "dataset water"
variables = "x", "y", "z", "vx", "vy", "vz"
zone t = "velocities, solution time =  5.200E+01 days        " i =   99, j =   99, k =    1,  f=point
  0.5050505E-02  0.0000000E+00  0.5050505E-02  0.1525824E-06  0.0000000E+00  0.1838158E-03
  0.1515152E-01  0.0000000E+00  0.5050505E-02  0.4585977E-06  0.0000000E+00  0.1844427E-03
  0.2525252E-01  0.0000000E+00  0.5050505E-02  0.7672003E-06  0.0000000E+00  0.1857001E-03
  0.3535353E-01  0.0000000E+00  0.5050505E-02  0.1080189E-05  0.0000000E+00  0.1875954E-03
  0.4545455E-01  0.0000000E+00  0.5050505E-02  0.1399449E-05  0.0000000E+00  0.1901399E-03
  0.5555556E-01  0.0000000E+00  0.5050505E-02  0.1726983E-05  0.0000000E+00  0.1933491E-03
  0.6565657E-01  0.0000000E+00  0.5050505E-02  0.2064947E-05  0.0000000E+00  0.1972429E-03
  0.7575758E-01  0.0000000E+00  0.5050505E-02  0.2415691E-05  0.0000000E+00  0.2018462E-03
  0.8585858E-01  0.0000000E+00  0.5050505E-02  0.2781808E-05  0.0000000E+00  0.2071889E-03
  0.9595960E-01  0.0000000E+00  0.5050505E-02  0.3166189E-05  0.0000000E+00  0.2133071E-03
  0.1060606E+00  0.0000000E+00  0.5050505E-02  0.3572084E-05  0.0000000E+00  0.2202433E-03
  0.1161616E+00  0.0000000E+00  0.5050505E-02  0.4003181E-05  0.0000000E+00  0.2280476E-03
  0.1262626E+00  0.0000000E+00  0.5050505E-02  0.4463682E-05  0.0000000E+00  0.2367788E-03
  0.1363636E+00  0.0000000E+00  0.5050505E-02  0.4958394E-05  0.0000000E+00  0.2465054E-03
  0.1464646E+00  0.0000000E+00  0.5050505E-02  0.5492821E-05  0.0000000E+00  0.2573071E-03
  0.1565657E+00  0.0000000E+00  0.5050505E-02  0.6073237E-05  0.0000000E+00  0.2692768E-03
  0.1666667E+00  0.0000000E+00  0.5050505E-02  0.6706723E-05  0.0000000E+00  0.2825220E-03
  0.1767677E+00  0.0000000E+00  0.5050505E-02  0.7401109E-05  0.0000000E+00  0.2971669E-03
  0.1868687E+00  0.0000000E+00  0.5050505E-02  0.8164727E-05  0.0000000E+00  0.3133540E-03
  0.1969697E+00  0.0000000E+00  0.5050505E-02  0.9005825E-05  0.0000000E+00  0.3312450E-03
  0.2070707E+00  0.0000000E+00  0.5050505E-02  0.9931389E-05  0.0000000E+00  0.3510196E-03
  0.2171717E+00  0.0000000E+00  0.5050505E-02  0.1094508E-04  0.0000000E+00  0.3728714E-03
  0.2272727E+00  0.0000000E+00  0.5050505E-02  0.1204409E-04  0.0000000E+00  0.3969983E-03
  0.2373737E+00  0.0000000E+00  0.5050505E-02  0.1321514E-04  0.0000000E+00  0.4235850E-03
  0.2474747E+00  0.0000000E+00  0.5050505E-02  0.1443166E-04  0.0000000E+00  0.4527782E-03
  0.2575758E+00  0.0000000E+00  0.5050505E-02  0.1565682E-04  0.0000000E+00  0.4846614E-03
  0.2676768E+00  0.0000000E+00  0.5050505E-02  0.1686043E-04  0.0000000E+00  0.5192505E-03
  0.2777778E+00  0.0000000E+00  0.5050505E-02  0.1805385E-04  0.0000000E+00  0.5565438E-03
  0.2878788E+00  0.0000000E+00  0.5050505E-02  0.1932261E-04  0.0000000E+00  0.5966461E-03
  0.2979798E+00  0.0000000E+00  0.5050505E-02  0.2080948E-04  0.0000000E+00  0.6399127E-03
  0.3080808E+00  0.0000000E+00  0.5050505E-02  0.2269654E-04  0.0000000E+00  0.6870609E-03
  0.3181818E+00  0.0000000E+00  0.5050505E-02  0.2522143E-04  0.0000000E+00  0.7392851E-03
  0.3282828E+00  0.0000000E+00  0.5050505E-02  0.2863649E-04  0.0000000E+00  0.7983521E-03
  0.3383838E+00  0.0000000E+00  0.5050505E-02  0.3296359E-04  0.0000000E+00  0.8663894E-03
  0.3484848E+00  0.0000000E+00  0.5050505E-02  0.3760505E-04  0.0000000E+00  0.9449647E-03
  0.3585859E+00  0.0000000E+00  0.5050505E-02  0.4490188E-04  0.0000000E+00  0.1037704E-02
  0.3686869E+00  0.0000000E+00  0.5050505E-02  0.6471640E-04  0.0000000E+00  0.1162348E-02
  0.3787879E+00  0.0000000E+00  0.5050505E-02  0.6125000E-04  0.0000000E+00  0.1307500E-02
  0.3888889E+00  0.0000000E+00  0.5050505E-02  0.5810063E-04  0.0000000E+00  0.1447377E-02
  0.3989899E+00  0.0000000E+00  0.5050505E-02  0.8422632E-04  0.0000000E+00  0.1617192E-02
  0.4090909E+00  0.0000000E+00  0.5050505E-02  0.7075216E-04  0.0000000E+00  0.1805295E-02
  0.4191919E+00  0.0000000E+00  0.5050505E-02  0.8588107E-04  0.0000000E+00  0.1999923E-02
  0.4292929E+00  0.0000000E+00  0.5050505E-02  0.6064659E-04  0.0000000E+00  0.2185498E-02
  0.4393939E+00  0.0000000E+00  0.5050505E-02  0.9934054E-04  0.0000000E+00  0.2393272E-02
  0.4494950E+00  0.0000000E+00  0.5050505E-02  0.1587416E-03  0.0000000E+00  0.2736760E-02
  0.4595959E+00  0.0000000E+00  0.5050505E-02  0.2144514E-03  0.0000000E+00  0.3252863E-02
  0.4696970E+00  0.0000000E+00  0.5050505E-02 -0.1010110E-04  0.0000000E+00  0.3540186E-02
  0.4797980E+00  0.0000000E+00  0.5050505E-02 -0.6771014E-04  0.0000000E+00  0.3425548E-02
  0.4898990E+00  0.0000000E+00  0.5050505E-02 -0.1557235E-03  0.0000000E+00  0.3107877E-02
  0.5000000E+00  0.0000000E+00  0.5050505E-02 -0.1504807E-03  0.0000000E+00  0.2688005E-02
  0.5101010E+00  0.0000000E+00  0.5050505E-02 -0.9609152E-04  0.0000000E+00  0.2361095E-02
  0.5202020E+00  0.0000000E+00  0.5050505E-02 -0.8743272E-04  0.0000000E+00  0.2124730E-02
  0.5303030E+00  0.0000000E+00  0.5050505E-02 -0.7867025E-04  0.0000000E+00  0.1915801E-02
  0.5404040E+00  0.0000000E+00  0.5050505E-02 -0.6254928E-04  0.0000000E+00  0.1741592E-02
  0.5505050E+00  0.0000000E+00  0.5050505E-02 -0.7697796E-04  0.0000000E+00  0.1573113E-02
  0.5606061E+00  0.0000000E+00  0.5050505E-02 -0.6913111E-04  0.0000000E+00  0.1399904E-02
  0.5707071E+00  0.0000000E+00  0.5050505E-02 -0.5183585E-04  0.0000000E+00  0.1258763E-02
  0.5808081E+00  0.0000000E+00  0.5050505E-02 -0.4245410E-04  0.0000000E+00  0.1150182E-02
  0.5909091E+00  0.0000000E+00  0.5050505E-02 -0.3686708E-04  0.0000000E+00  0.1059819E-02
  0.6010101E+00  0.0000000E+00  0.5050505E-02 -0.3388000E-04  0.0000000E+00  0.9799897E-03
  0.6111111E+00  0.0000000E+00  0.5050505E-02 -0.3203475E-04  0.0000000E+00  0.9062620E-03
  0.6212121E+00  0.0000000E+00  0.5050505E-02 -0.3228533E-04  0.0000000E+00  0.8349317E-03
  0.6313131E+00  0.0000000E+00  0.5050505E-02 -0.2858112E-04  0.0000000E+00  0.7679493E-03
  0.6414142E+00  0.0000000E+00  0.5050505E-02 -0.2525363E-04  0.0000000E+00  0.7091194E-03
  0.6515151E+00  0.0000000E+00  0.5050505E-02 -0.2265378E-04  0.0000000E+00  0.6570926E-03
  0.6616161E+00  0.0000000E+00  0.5050505E-02 -0.2056896E-04  0.0000000E+00  0.6104156E-03
  0.6717172E+00  0.0000000E+00  0.5050505E-02 -0.1880086E-04  0.0000000E+00  0.5681147E-03
  0.6818182E+00  0.0000000E+00  0.5050505E-02 -0.1723048E-04  0.0000000E+00  0.5295797E-03
  0.6919192E+00  0.0000000E+00  0.5050505E-02 -0.1579785E-04  0.0000000E+00  0.4944053E-03
  0.7020202E+00  0.0000000E+00  0.5050505E-02 -0.1447652E-04  0.0000000E+00  0.4622883E-03
  0.7121212E+00  0.0000000E+00  0.5050505E-02 -0.1325601E-04  0.0000000E+00  0.4329715E-03
  0.7222222E+00  0.0000000E+00  0.5050505E-02 -0.1213178E-04  0.0000000E+00  0.4062199E-03
  0.7323232E+00  0.0000000E+00  0.5050505E-02 -0.1110033E-04  0.0000000E+00  0.3818118E-03
  0.7424242E+00  0.0000000E+00  0.5050505E-02 -0.1015735E-04  0.0000000E+00  0.3595381E-03
  0.7525253E+00  0.0000000E+00  0.5050505E-02 -0.9297344E-05  0.0000000E+00  0.3392037E-03
  0.7626263E+00  0.0000000E+00  0.5050505E-02 -0.8513903E-05  0.0000000E+00  0.3206288E-03
  0.7727273E+00  0.0000000E+00  0.5050505E-02 -0.7800169E-05  0.0000000E+00  0.3036503E-03
  0.7828283E+00  0.0000000E+00  0.5050505E-02 -0.7149229E-05  0.0000000E+00  0.2881213E-03
  0.7929293E+00  0.0000000E+00  0.5050505E-02 -0.6554409E-05  0.0000000E+00  0.2739109E-03
  0.8030303E+00  0.0000000E+00  0.5050505E-02 -0.6009459E-05  0.0000000E+00  0.2609030E-03
  0.8131313E+00  0.0000000E+00  0.5050505E-02 -0.5508643E-05  0.0000000E+00  0.2489950E-03
  0.8232324E+00  0.0000000E+00  0.5050505E-02 -0.5046772E-05  0.0000000E+00  0.2380968E-03
  0.8333333E+00  0.0000000E+00  0.5050505E-02 -0.4619196E-05  0.0000000E+00  0.2281289E-03
  0.8434343E+00  0.0000000E+00  0.5050505E-02 -0.4221770E-05  0.0000000E+00  0.2190220E-03
  0.8535354E+00  0.0000000E+00  0.5050505E-02 -0.3850814E-05  0.0000000E+00  0.2107149E-03
  0.8636364E+00  0.0000000E+00  0.5050505E-02 -0.3503066E-05  0.0000000E+00  0.2031543E-03
  0.8737374E+00  0.0000000E+00  0.5050505E-02 -0.3175630E-05  0.0000000E+00  0.1962937E-03
  0.8838384E+00  0.0000000E+00  0.5050505E-02 -0.2865938E-05  0.0000000E+00  0.1900922E-03
  0.8939394E+00  0.0000000E+00  0.5050505E-02 -0.2571701E-05  0.0000000E+00  0.1845144E-03
  0.9040404E+00  0.0000000E+00  0.5050505E-02 -0.2290877E-05  0.0000000E+00  0.1795295E-03
  0.9141414E+00  0.0000000E+00  0.5050505E-02 -0.2021632E-05  0.0000000E+00  0.1751109E-03
  0.9242424E+00  0.0000000E+00  0.5050505E-02 -0.1762313E-05  0.0000000E+00  0.1712357E-03
  0.9343435E+00  0.0000000E+00  0.5050505E-02 -0.1511422E-05  0.0000000E+00  0.1678844E-03
  0.9444444E+00  0.0000000E+00  0.5050505E-02 -0.1267586E-05  0.0000000E+00  0.1650405E-03
  0.9545454E+00  0.0000000E+00  0.5050505E-02 -0.1029543E-05  0.0000000E+00  0.1626904E-03
  0.9646465E+00  0.0000000E+00  0.5050505E-02 -0.7961165E-06  0.0000000E+00  0.1608231E-03
  0.9747475E+00  0.0000000E+00  0.5050505E-02 -0.5662028E-06  0.0000000E+00  0.1594299E-03
  0.9848485E+00  0.0000000E+00  0.5050505E-02 -0.3387524E-06  0.0000000E+00  0.1585046E-03
  0.9974747E+00  0.0000000E+00  0.5050505E-02 -0.1127578E-06  0.0000000E+00  0.1580429E-03
  0.5050505E-02  0.0000000E+00  0.1515152E-01  0.4566410E-06  0.0000000E+00  0.1835112E-03
  0.1515152E-01  0.0000000E+00  0.1515152E-01  0.1372474E-05  0.0000000E+00  0.1841355E-03
  0.2525252E-01  0.0000000E+00  0.1515152E-01  0.2296053E-05  0.0000000E+00  0.1853878E-03
  0.3535353E-01  0.0000000E+00  0.1515152E-01  0.3232749E-05  0.0000000E+00  0.1872753E-03
  0.4545455E-01  0.0000000E+00  0.1515152E-01  0.4188189E-05  0.0000000E+00  0.1898091E-03
  0.5555556E-01  0.0000000E+00  0.1515152E-01  0.5168348E-05  0.0000000E+00  0.1930046E-03
  0.6565657E-01  0.0000000E+00  0.1515152E-01  0.6179658E-05  0.0000000E+00  0.1968813E-03
  0.7575758E-01  0.0000000E+00  0.1515152E-01  0.7229127E-05  0.0000000E+00  0.2014636E-03
  0.8585858E-01  0.0000000E+00  0.1515152E-01  0.8324487E-05  0.0000000E+00  0.2067813E-03
  0.9595960E-01  0.0000000E+00  0.1515152E-01  0.9474358E-05  0.0000000E+00  0.2128697E-03
  0.1060606E+00  0.0000000E+00  0.1515152E-01  0.1068844E-04  0.0000000E+00  0.2197708E-03
  0.1161616E+00  0.0000000E+00  0.1515152E-01  0.1197772E-04  0.0000000E+00  0.2275339E-03
  0.1262626E+00  0.0000000E+00  0.1515152E-01  0.1335475E-04  0.0000000E+00  0.2362169E-03
  0.1363636E+00  0.0000000E+00  0.1515152E-01  0.1483389E-04  0.0000000E+00  0.2458873E-03
  0.1464646E+00  0.0000000E+00  0.1515152E-01  0.1643160E-04  0.0000000E+00  0.2566237E-03
  0.1565657E+00  0.0000000E+00  0.1515152E-01  0.1816673E-04  0.0000000E+00  0.2685178E-03
  0.1666667E+00  0.0000000E+00  0.1515152E-01  0.2006062E-04  0.0000000E+00  0.2816761E-03
  0.1767677E+00  0.0000000E+00  0.1515152E-01  0.2213703E-04  0.0000000E+00  0.2962222E-03
  0.1868687E+00  0.0000000E+00  0.1515152E-01  0.2442161E-04  0.0000000E+00  0.3122989E-03
  0.1969697E+00  0.0000000E+00  0.1515152E-01  0.2694023E-04  0.0000000E+00  0.3300699E-03
  0.2070707E+00  0.0000000E+00  0.1515152E-01  0.2971583E-04  0.0000000E+00  0.3497206E-03
  0.2171717E+00  0.0000000E+00  0.1515152E-01  0.3276228E-04  0.0000000E+00  0.3714551E-03
  0.2272727E+00  0.0000000E+00  0.1515152E-01  0.3607458E-04  0.0000000E+00  0.3954887E-03
  0.2373737E+00  0.0000000E+00  0.1515152E-01  0.3961506E-04  0.0000000E+00  0.4220300E-03
  0.2474747E+00  0.0000000E+00  0.1515152E-01  0.4330009E-04  0.0000000E+00  0.4512483E-03
  0.2575758E+00  0.0000000E+00  0.1515152E-01  0.4700190E-04  0.0000000E+00  0.4832284E-03
  0.2676768E+00  0.0000000E+00  0.1515152E-01  0.5059643E-04  0.0000000E+00  0.5179345E-03
  0.2777778E+00  0.0000000E+00  0.1515152E-01  0.5408799E-04  0.0000000E+00  0.5552457E-03
  0.2878788E+00  0.0000000E+00  0.1515152E-01  0.5775196E-04  0.0000000E+00  0.5951344E-03
  0.2979798E+00  0.0000000E+00  0.1515152E-01  0.6203667E-04  0.0000000E+00  0.6378628E-03
  0.3080808E+00  0.0000000E+00  0.1515152E-01  0.6747601E-04  0.0000000E+00  0.6840614E-03
  0.3181818E+00  0.0000000E+00  0.1515152E-01  0.7482279E-04  0.0000000E+00  0.7348653E-03
  0.3282828E+00  0.0000000E+00  0.1515152E-01  0.8505784E-04  0.0000000E+00  0.7922690E-03
  0.3383838E+00  0.0000000E+00  0.1515152E-01  0.9858358E-04  0.0000000E+00  0.8592523E-03
  0.3484848E+00  0.0000000E+00  0.1515152E-01  0.1103623E-03  0.0000000E+00  0.9350297E-03
  0.3585859E+00  0.0000000E+00  0.1515152E-01  0.1234932E-03  0.0000000E+00  0.1012747E-02
  0.3686869E+00  0.0000000E+00  0.1515152E-01  0.1525711E-03  0.0000000E+00  0.1077732E-02
  0.3787879E+00  0.0000000E+00  0.1515152E-01  0.1528426E-03  0.0000000E+00  0.1139681E-02
  0.3888889E+00  0.0000000E+00  0.1515152E-01  0.1659114E-03  0.0000000E+00  0.1232903E-02
  0.3989899E+00  0.0000000E+00  0.1515152E-01  0.2163440E-03  0.0000000E+00  0.1347740E-02
  0.4090909E+00  0.0000000E+00  0.1515152E-01  0.2073658E-03  0.0000000E+00  0.1483982E-02
  0.4191919E+00  0.0000000E+00  0.1515152E-01  0.2375457E-03  0.0000000E+00  0.1644694E-02
  0.4292929E+00  0.0000000E+00  0.1515152E-01  0.2232532E-03  0.0000000E+00  0.1855033E-02
  0.4393939E+00  0.0000000E+00  0.1515152E-01  0.3071518E-03  0.0000000E+00  0.2126275E-02
  0.4494950E+00  0.0000000E+00  0.1515152E-01  0.4194619E-03  0.0000000E+00  0.2408535E-02
  0.4595959E+00  0.0000000E+00  0.1515152E-01  0.5222297E-03  0.0000000E+00  0.2684912E-02
  0.4696970E+00  0.0000000E+00  0.1515152E-01  0.1305690E-03  0.0000000E+00  0.3051666E-02
  0.4797980E+00  0.0000000E+00  0.1515152E-01 -0.2267658E-03  0.0000000E+00  0.3137835E-02
  0.4898990E+00  0.0000000E+00  0.1515152E-01 -0.4808384E-03  0.0000000E+00  0.2753703E-02
  0.5000000E+00  0.0000000E+00  0.1515152E-01 -0.3742675E-03  0.0000000E+00  0.2410963E-02
  0.5101010E+00  0.0000000E+00  0.1515152E-01 -0.2788011E-03  0.0000000E+00  0.2192377E-02
  0.5202020E+00  0.0000000E+00  0.1515152E-01 -0.2321095E-03  0.0000000E+00  0.2001425E-02
  0.5303030E+00  0.0000000E+00  0.1515152E-01 -0.2111138E-03  0.0000000E+00  0.1857172E-02
  0.5404040E+00  0.0000000E+00  0.1515152E-01 -0.2180471E-03  0.0000000E+00  0.1673993E-02
  0.5505050E+00  0.0000000E+00  0.1515152E-01 -0.2210568E-03  0.0000000E+00  0.1479328E-02
  0.5606061E+00  0.0000000E+00  0.1515152E-01 -0.1859631E-03  0.0000000E+00  0.1342336E-02
  0.5707071E+00  0.0000000E+00  0.1515152E-01 -0.1483209E-03  0.0000000E+00  0.1233712E-02
  0.5808081E+00  0.0000000E+00  0.1515152E-01 -0.1237251E-03  0.0000000E+00  0.1136780E-02
  0.5909091E+00  0.0000000E+00  0.1515152E-01 -0.1080125E-03  0.0000000E+00  0.1052820E-02
  0.6010101E+00  0.0000000E+00  0.1515152E-01 -0.1003889E-03  0.0000000E+00  0.9767665E-03
  0.6111111E+00  0.0000000E+00  0.1515152E-01 -0.9405692E-04  0.0000000E+00  0.9062702E-03
  0.6212121E+00  0.0000000E+00  0.1515152E-01 -0.1004518E-03  0.0000000E+00  0.8329533E-03
  0.6313131E+00  0.0000000E+00  0.1515152E-01 -0.8540024E-04  0.0000000E+00  0.7622046E-03
  0.6414142E+00  0.0000000E+00  0.1515152E-01 -0.7508008E-04  0.0000000E+00  0.7043403E-03
  0.6515151E+00  0.0000000E+00  0.1515152E-01 -0.6746979E-04  0.0000000E+00  0.6534560E-03
  0.6616161E+00  0.0000000E+00  0.1515152E-01 -0.6139932E-04  0.0000000E+00  0.6075315E-03
  0.6717172E+00  0.0000000E+00  0.1515152E-01 -0.5620859E-04  0.0000000E+00  0.5656762E-03
  0.6818182E+00  0.0000000E+00  0.1515152E-01 -0.5155644E-04  0.0000000E+00  0.5274133E-03
  0.6919192E+00  0.0000000E+00  0.1515152E-01 -0.4728541E-04  0.0000000E+00  0.4924288E-03
  0.7020202E+00  0.0000000E+00  0.1515152E-01 -0.4333234E-04  0.0000000E+00  0.4604685E-03
  0.7121212E+00  0.0000000E+00  0.1515152E-01 -0.3967532E-04  0.0000000E+00  0.4312976E-03
  0.7222222E+00  0.0000000E+00  0.1515152E-01 -0.3630559E-04  0.0000000E+00  0.4046882E-03
  0.7323232E+00  0.0000000E+00  0.1515152E-01 -0.3321470E-04  0.0000000E+00  0.3804190E-03
  0.7424242E+00  0.0000000E+00  0.1515152E-01 -0.3039023E-04  0.0000000E+00  0.3582786E-03
  0.7525253E+00  0.0000000E+00  0.1515152E-01 -0.2781555E-04  0.0000000E+00  0.3380697E-03
  0.7626263E+00  0.0000000E+00  0.1515152E-01 -0.2547109E-04  0.0000000E+00  0.3196109E-03
  0.7727273E+00  0.0000000E+00  0.1515152E-01 -0.2333593E-04  0.0000000E+00  0.3027381E-03
  0.7828283E+00  0.0000000E+00  0.1515152E-01 -0.2138905E-04  0.0000000E+00  0.2873042E-03
  0.7929293E+00  0.0000000E+00  0.1515152E-01 -0.1961026E-04  0.0000000E+00  0.2731787E-03
  0.8030303E+00  0.0000000E+00  0.1515152E-01 -0.1798070E-04  0.0000000E+00  0.2602461E-03
  0.8131313E+00  0.0000000E+00  0.1515152E-01 -0.1648312E-04  0.0000000E+00  0.2484045E-03
  0.8232324E+00  0.0000000E+00  0.1515152E-01 -0.1510194E-04  0.0000000E+00  0.2375647E-03
  0.8333333E+00  0.0000000E+00  0.1515152E-01 -0.1382323E-04  0.0000000E+00  0.2276482E-03
  0.8434343E+00  0.0000000E+00  0.1515152E-01 -0.1263459E-04  0.0000000E+00  0.2185861E-03
  0.8535354E+00  0.0000000E+00  0.1515152E-01 -0.1152502E-04  0.0000000E+00  0.2103182E-03
  0.8636364E+00  0.0000000E+00  0.1515152E-01 -0.1048475E-04  0.0000000E+00  0.2027919E-03
  0.8737374E+00  0.0000000E+00  0.1515152E-01 -0.9505148E-05  0.0000000E+00  0.1959609E-03
  0.8838384E+00  0.0000000E+00  0.1515152E-01 -0.8578532E-05  0.0000000E+00  0.1897853E-03
  0.8939394E+00  0.0000000E+00  0.1515152E-01 -0.7698073E-05  0.0000000E+00  0.1842298E-03
  0.9040404E+00  0.0000000E+00  0.1515152E-01 -0.6857670E-05  0.0000000E+00  0.1792641E-03
  0.9141414E+00  0.0000000E+00  0.1515152E-01 -0.6051851E-05  0.0000000E+00  0.1748620E-03
  0.9242424E+00  0.0000000E+00  0.1515152E-01 -0.5275683E-05  0.0000000E+00  0.1710008E-03
  0.9343435E+00  0.0000000E+00  0.1515152E-01 -0.4524689E-05  0.0000000E+00  0.1676611E-03
  0.9444444E+00  0.0000000E+00  0.1515152E-01 -0.3794776E-05  0.0000000E+00  0.1648269E-03
  0.9545454E+00  0.0000000E+00  0.1515152E-01 -0.3082172E-05  0.0000000E+00  0.1624847E-03
  0.9646465E+00  0.0000000E+00  0.1515152E-01 -0.2383369E-05  0.0000000E+00  0.1606234E-03
  0.9747475E+00  0.0000000E+00  0.1515152E-01 -0.1695069E-05  0.0000000E+00  0.1592347E-03
  0.9848485E+00  0.0000000E+00  0.1515152E-01 -0.1014138E-05  0.0000000E+00  0.1583122E-03
  0.9974747E+00  0.0000000E+00  0.1515152E-01 -0.3375668E-06  0.0000000E+00  0.1578520E-03
  0.5050505E-02  0.0000000E+00  0.2525252E-01  0.7579106E-06  0.0000000E+00  0.1829126E-03
  0.1515152E-01  0.0000000E+00  0.2525252E-01  0.2277966E-05  0.0000000E+00  0.1835321E-03
  0.2525252E-01  0.0000000E+00  0.2525252E-01  0.3810852E-05  0.0000000E+00  0.1847743E-03
  0.3535353E-01  0.0000000E+00  0.2525252E-01  0.5365444E-05  0.0000000E+00  0.1866465E-03
  0.4545455E-01  0.0000000E+00  0.2525252E-01  0.6951027E-05  0.0000000E+00  0.1891593E-03
  0.5555556E-01  0.0000000E+00  0.2525252E-01  0.8577457E-05  0.0000000E+00  0.1923276E-03
  0.6565657E-01  0.0000000E+00  0.2525252E-01  0.1025534E-04  0.0000000E+00  0.1961705E-03
  0.7575758E-01  0.0000000E+00  0.2525252E-01  0.1199622E-04  0.0000000E+00  0.2007118E-03
  0.8585858E-01  0.0000000E+00  0.2525252E-01  0.1381284E-04  0.0000000E+00  0.2059802E-03
  0.9595960E-01  0.0000000E+00  0.2525252E-01  0.1571940E-04  0.0000000E+00  0.2120101E-03
  0.1060606E+00  0.0000000E+00  0.2525252E-01  0.1773187E-04  0.0000000E+00  0.2188422E-03
  0.1161616E+00  0.0000000E+00  0.2525252E-01  0.1986838E-04  0.0000000E+00  0.2265243E-03
  0.1262626E+00  0.0000000E+00  0.2525252E-01  0.2214962E-04  0.0000000E+00  0.2351126E-03
  0.1363636E+00  0.0000000E+00  0.2525252E-01  0.2459932E-04  0.0000000E+00  0.2446725E-03
  0.1464646E+00  0.0000000E+00  0.2525252E-01  0.2724479E-04  0.0000000E+00  0.2552803E-03
  0.1565657E+00  0.0000000E+00  0.2525252E-01  0.3011740E-04  0.0000000E+00  0.2670254E-03
  0.1666667E+00  0.0000000E+00  0.2525252E-01  0.3325300E-04  0.0000000E+00  0.2800119E-03
  0.1767677E+00  0.0000000E+00  0.2525252E-01  0.3669208E-04  0.0000000E+00  0.2943616E-03
  0.1868687E+00  0.0000000E+00  0.2525252E-01  0.4047924E-04  0.0000000E+00  0.3102173E-03
  0.1969697E+00  0.0000000E+00  0.2525252E-01  0.4466134E-04  0.0000000E+00  0.3277458E-03
  0.2070707E+00  0.0000000E+00  0.2525252E-01  0.4928305E-04  0.0000000E+00  0.3471418E-03
  0.2171717E+00  0.0000000E+00  0.2525252E-01  0.5437771E-04  0.0000000E+00  0.3686295E-03
  0.2272727E+00  0.0000000E+00  0.2525252E-01  0.5995045E-04  0.0000000E+00  0.3924607E-03
  0.2373737E+00  0.0000000E+00  0.2525252E-01  0.6595012E-04  0.0000000E+00  0.4188990E-03
  0.2474747E+00  0.0000000E+00  0.2525252E-01  0.7223128E-04  0.0000000E+00  0.4481790E-03
  0.2575758E+00  0.0000000E+00  0.2525252E-01  0.7852591E-04  0.0000000E+00  0.4804175E-03
  0.2676768E+00  0.0000000E+00  0.2525252E-01  0.8449536E-04  0.0000000E+00  0.5154863E-03
  0.2777778E+00  0.0000000E+00  0.2525252E-01  0.9000536E-04  0.0000000E+00  0.5529714E-03
  0.2878788E+00  0.0000000E+00  0.2525252E-01  0.9562431E-04  0.0000000E+00  0.5925286E-03
  0.2979798E+00  0.0000000E+00  0.2525252E-01  0.1021992E-03  0.0000000E+00  0.6342658E-03
  0.3080808E+00  0.0000000E+00  0.2525252E-01  0.1105002E-03  0.0000000E+00  0.6786220E-03
  0.3181818E+00  0.0000000E+00  0.2525252E-01  0.1217976E-03  0.0000000E+00  0.7263819E-03
  0.3282828E+00  0.0000000E+00  0.2525252E-01  0.1385505E-03  0.0000000E+00  0.7797105E-03
  0.3383838E+00  0.0000000E+00  0.2525252E-01  0.1659302E-03  0.0000000E+00  0.8467888E-03
  0.3484848E+00  0.0000000E+00  0.2525252E-01  0.1818620E-03  0.0000000E+00  0.9263316E-03
  0.3585859E+00  0.0000000E+00  0.2525252E-01  0.1875553E-03  0.0000000E+00  0.1002048E-02
  0.3686869E+00  0.0000000E+00  0.2525252E-01  0.2033550E-03  0.0000000E+00  0.1068984E-02
  0.3787879E+00  0.0000000E+00  0.2525252E-01  0.2019657E-03  0.0000000E+00  0.1123584E-02
  0.3888889E+00  0.0000000E+00  0.2525252E-01  0.2436338E-03  0.0000000E+00  0.1179415E-02
  0.3989899E+00  0.0000000E+00  0.2525252E-01  0.2855028E-03  0.0000000E+00  0.1238942E-02
  0.4090909E+00  0.0000000E+00  0.2525252E-01  0.3156343E-03  0.0000000E+00  0.1316397E-02
  0.4191919E+00  0.0000000E+00  0.2525252E-01  0.3469429E-03  0.0000000E+00  0.1421750E-02
  0.4292929E+00  0.0000000E+00  0.2525252E-01  0.3960120E-03  0.0000000E+00  0.1564301E-02
  0.4393939E+00  0.0000000E+00  0.2525252E-01  0.4866777E-03  0.0000000E+00  0.1745072E-02
  0.4494950E+00  0.0000000E+00  0.2525252E-01  0.5737236E-03  0.0000000E+00  0.1910575E-02
  0.4595959E+00  0.0000000E+00  0.2525252E-01  0.6706716E-03  0.0000000E+00  0.2065472E-02
  0.4696970E+00  0.0000000E+00  0.2525252E-01  0.4894145E-03  0.0000000E+00  0.2456625E-02
  0.4797980E+00  0.0000000E+00  0.2525252E-01 -0.4457678E-03  0.0000000E+00  0.2564222E-02
  0.4898990E+00  0.0000000E+00  0.2525252E-01 -0.7010894E-03  0.0000000E+00  0.2281119E-02
  0.5000000E+00  0.0000000E+00  0.2525252E-01 -0.4804232E-03  0.0000000E+00  0.2147145E-02
  0.5101010E+00  0.0000000E+00  0.2525252E-01 -0.3939050E-03  0.0000000E+00  0.2050244E-02
  0.5202020E+00  0.0000000E+00  0.2525252E-01 -0.3235196E-03  0.0000000E+00  0.1956906E-02
  0.5303030E+00  0.0000000E+00  0.2525252E-01 -0.3411970E-03  0.0000000E+00  0.1808249E-02
  0.5404040E+00  0.0000000E+00  0.2525252E-01 -0.4059547E-03  0.0000000E+00  0.1592233E-02
  0.5505050E+00  0.0000000E+00  0.2525252E-01 -0.3405637E-03  0.0000000E+00  0.1412020E-02
  0.5606061E+00  0.0000000E+00  0.2525252E-01 -0.2751950E-03  0.0000000E+00  0.1298554E-02
  0.5707071E+00  0.0000000E+00  0.2525252E-01 -0.2329304E-03  0.0000000E+00  0.1201607E-02
  0.5808081E+00  0.0000000E+00  0.2525252E-01 -0.1966201E-03  0.0000000E+00  0.1114735E-02
  0.5909091E+00  0.0000000E+00  0.2525252E-01 -0.1713725E-03  0.0000000E+00  0.1041391E-02
  0.6010101E+00  0.0000000E+00  0.2525252E-01 -0.1652470E-03  0.0000000E+00  0.9711027E-03
  0.6111111E+00  0.0000000E+00  0.2525252E-01 -0.1714550E-03  0.0000000E+00  0.8815683E-03
  0.6212121E+00  0.0000000E+00  0.2525252E-01 -0.1612398E-03  0.0000000E+00  0.8010504E-03
  0.6313131E+00  0.0000000E+00  0.2525252E-01 -0.1380052E-03  0.0000000E+00  0.7465222E-03
  0.6414142E+00  0.0000000E+00  0.2525252E-01 -0.1224577E-03  0.0000000E+00  0.6947039E-03
  0.6515151E+00  0.0000000E+00  0.2525252E-01 -0.1108841E-03  0.0000000E+00  0.6466268E-03
  0.6616161E+00  0.0000000E+00  0.2525252E-01 -0.1014331E-03  0.0000000E+00  0.6021291E-03
  0.6717172E+00  0.0000000E+00  0.2525252E-01 -0.9313912E-04  0.0000000E+00  0.5610342E-03
  0.6818182E+00  0.0000000E+00  0.2525252E-01 -0.8555505E-04  0.0000000E+00  0.5232217E-03
  0.6919192E+00  0.0000000E+00  0.2525252E-01 -0.7850560E-04  0.0000000E+00  0.4885612E-03
  0.7020202E+00  0.0000000E+00  0.2525252E-01 -0.7193978E-04  0.0000000E+00  0.4568852E-03
  0.7121212E+00  0.0000000E+00  0.2525252E-01 -0.6585113E-04  0.0000000E+00  0.4279922E-03
  0.7222222E+00  0.0000000E+00  0.2525252E-01 -0.6023946E-04  0.0000000E+00  0.4016611E-03
  0.7323232E+00  0.0000000E+00  0.2525252E-01 -0.5509611E-04  0.0000000E+00  0.3776668E-03
  0.7424242E+00  0.0000000E+00  0.2525252E-01 -0.5040127E-04  0.0000000E+00  0.3557917E-03
  0.7525253E+00  0.0000000E+00  0.2525252E-01 -0.4612621E-04  0.0000000E+00  0.3358325E-03
  0.7626263E+00  0.0000000E+00  0.2525252E-01 -0.4223688E-04  0.0000000E+00  0.3176042E-03
  0.7727273E+00  0.0000000E+00  0.2525252E-01 -0.3869708E-04  0.0000000E+00  0.3009409E-03
  0.7828283E+00  0.0000000E+00  0.2525252E-01 -0.3547084E-04  0.0000000E+00  0.2856953E-03
  0.7929293E+00  0.0000000E+00  0.2525252E-01 -0.3252389E-04  0.0000000E+00  0.2717376E-03
  0.8030303E+00  0.0000000E+00  0.2525252E-01 -0.2982445E-04  0.0000000E+00  0.2589536E-03
  0.8131313E+00  0.0000000E+00  0.2525252E-01 -0.2734363E-04  0.0000000E+00  0.2472432E-03
  0.8232324E+00  0.0000000E+00  0.2525252E-01 -0.2505544E-04  0.0000000E+00  0.2365187E-03
  0.8333333E+00  0.0000000E+00  0.2525252E-01 -0.2293671E-04  0.0000000E+00  0.2267032E-03
  0.8434343E+00  0.0000000E+00  0.2525252E-01 -0.2096686E-04  0.0000000E+00  0.2177295E-03
  0.8535354E+00  0.0000000E+00  0.2525252E-01 -0.1912766E-04  0.0000000E+00  0.2095389E-03
  0.8636364E+00  0.0000000E+00  0.2525252E-01 -0.1740297E-04  0.0000000E+00  0.2020799E-03
  0.8737374E+00  0.0000000E+00  0.2525252E-01 -0.1577850E-04  0.0000000E+00  0.1953076E-03
  0.8838384E+00  0.0000000E+00  0.2525252E-01 -0.1424157E-04  0.0000000E+00  0.1891827E-03
  0.8939394E+00  0.0000000E+00  0.2525252E-01 -0.1278089E-04  0.0000000E+00  0.1836712E-03
  0.9040404E+00  0.0000000E+00  0.2525252E-01 -0.1138638E-04  0.0000000E+00  0.1787434E-03
  0.9141414E+00  0.0000000E+00  0.2525252E-01 -0.1004902E-04  0.0000000E+00  0.1743736E-03
  0.9242424E+00  0.0000000E+00  0.2525252E-01 -0.8760658E-05  0.0000000E+00  0.1705398E-03
  0.9343435E+00  0.0000000E+00  0.2525252E-01 -0.7513901E-05  0.0000000E+00  0.1672233E-03
  0.9444444E+00  0.0000000E+00  0.2525252E-01 -0.6301992E-05  0.0000000E+00  0.1644081E-03
  0.9545454E+00  0.0000000E+00  0.2525252E-01 -0.5118705E-05  0.0000000E+00  0.1620812E-03
  0.9646465E+00  0.0000000E+00  0.2525252E-01 -0.3958243E-05  0.0000000E+00  0.1602319E-03
  0.9747475E+00  0.0000000E+00  0.2525252E-01 -0.2815162E-05  0.0000000E+00  0.1588519E-03
  0.9848485E+00  0.0000000E+00  0.2525252E-01 -0.1684284E-05  0.0000000E+00  0.1579352E-03
  0.9974747E+00  0.0000000E+00  0.2525252E-01 -0.5606323E-06  0.0000000E+00  0.1574778E-03
  0.5050505E-02  0.0000000E+00  0.3535353E-01  0.1055265E-05  0.0000000E+00  0.1820328E-03
  0.1515152E-01  0.0000000E+00  0.3535353E-01  0.3171664E-05  0.0000000E+00  0.1826450E-03
  0.2525252E-01  0.0000000E+00  0.3535353E-01  0.5305833E-05  0.0000000E+00  0.1838725E-03
  0.3535353E-01  0.0000000E+00  0.3535353E-01  0.7470032E-05  0.0000000E+00  0.1857220E-03
  0.4545455E-01  0.0000000E+00  0.3535353E-01  0.9677082E-05  0.0000000E+00  0.1882040E-03
  0.5555556E-01  0.0000000E+00  0.3535353E-01  0.1194057E-04  0.0000000E+00  0.1913325E-03
  0.6565657E-01  0.0000000E+00  0.3535353E-01  0.1427512E-04  0.0000000E+00  0.1951260E-03
  0.7575758E-01  0.0000000E+00  0.3535353E-01  0.1669664E-04  0.0000000E+00  0.1996070E-03
  0.8585858E-01  0.0000000E+00  0.3535353E-01  0.1922266E-04  0.0000000E+00  0.2048032E-03
  0.9595960E-01  0.0000000E+00  0.3535353E-01  0.2187272E-04  0.0000000E+00  0.2107474E-03
  0.1060606E+00  0.0000000E+00  0.3535353E-01  0.2466881E-04  0.0000000E+00  0.2174784E-03
  0.1161616E+00  0.0000000E+00  0.3535353E-01  0.2763586E-04  0.0000000E+00  0.2250419E-03
  0.1262626E+00  0.0000000E+00  0.3535353E-01  0.3080239E-04  0.0000000E+00  0.2334913E-03
  0.1363636E+00  0.0000000E+00  0.3535353E-01  0.3420118E-04  0.0000000E+00  0.2428891E-03
  0.1464646E+00  0.0000000E+00  0.3535353E-01  0.3787009E-04  0.0000000E+00  0.2533080E-03
  0.1565657E+00  0.0000000E+00  0.3535353E-01  0.4185286E-04  0.0000000E+00  0.2648335E-03
  0.1666667E+00  0.0000000E+00  0.3535353E-01  0.4620005E-04  0.0000000E+00  0.2775657E-03
  0.1767677E+00  0.0000000E+00  0.3535353E-01  0.5096973E-04  0.0000000E+00  0.2916229E-03
  0.1868687E+00  0.0000000E+00  0.3535353E-01  0.5622766E-04  0.0000000E+00  0.3071453E-03
  0.1969697E+00  0.0000000E+00  0.3535353E-01  0.6204634E-04  0.0000000E+00  0.3243015E-03
  0.2070707E+00  0.0000000E+00  0.3535353E-01  0.6850128E-04  0.0000000E+00  0.3432956E-03
  0.2171717E+00  0.0000000E+00  0.3535353E-01  0.7566149E-04  0.0000000E+00  0.3643769E-03
  0.2272727E+00  0.0000000E+00  0.3535353E-01  0.8356819E-04  0.0000000E+00  0.3878505E-03
  0.2373737E+00  0.0000000E+00  0.3535353E-01  0.9219062E-04  0.0000000E+00  0.4140783E-03
  0.2474747E+00  0.0000000E+00  0.3535353E-01  0.1013431E-03  0.0000000E+00  0.4434443E-03
  0.2575758E+00  0.0000000E+00  0.3535353E-01  0.1105593E-03  0.0000000E+00  0.4762147E-03
  0.2676768E+00  0.0000000E+00  0.3535353E-01  0.1190162E-03  0.0000000E+00  0.5121953E-03
  0.2777778E+00  0.0000000E+00  0.3535353E-01  0.1259735E-03  0.0000000E+00  0.5503258E-03
  0.2878788E+00  0.0000000E+00  0.3535353E-01  0.1327193E-03  0.0000000E+00  0.5895812E-03
  0.2979798E+00  0.0000000E+00  0.3535353E-01  0.1408566E-03  0.0000000E+00  0.6300432E-03