title = "dataset water"
variables = "x", "y", "z", "vx", "vy", "vz"
zone t = "velocities, solution time =  1.200E+01 days        " i =   99, j =   99, k =    1,  f=point
  0.5050505E-02  0.0000000E+00  0.5050505E-02  0.9296884E-12  0.0000000E+00 -0.4109954E-04
  0.1515152E-01  0.0000000E+00  0.5050505E-02  0.2774472E-11  0.0000000E+00 -0.4109954E-04
  0.2525252E-01  0.0000000E+00  0.5050505E-02  0.4609307E-11  0.0000000E+00 -0.4109953E-04
  0.3535353E-01  0.0000000E+00  0.5050505E-02  0.6431127E-11  0.0000000E+00 -0.4109952E-04
  0.4545455E-01  0.0000000E+00  0.5050505E-02  0.8235626E-11  0.0000000E+00 -0.4109950E-04
  0.5555556E-01  0.0000000E+00  0.5050505E-02  0.1001281E-10  0.0000000E+00 -0.4109948E-04
  0.6565657E-01  0.0000000E+00  0.5050505E-02  0.1176006E-10  0.0000000E+00 -0.4109946E-04
  0.7575758E-01  0.0000000E+00  0.5050505E-02  0.1347362E-10  0.0000000E+00 -0.4109944E-04
  0.8585858E-01  0.0000000E+00  0.5050505E-02  0.1514710E-10  0.0000000E+00 -0.4109941E-04
  0.9595960E-01  0.0000000E+00  0.5050505E-02  0.1677325E-10  0.0000000E+00 -0.4109938E-04
  0.1060606E+00  0.0000000E+00  0.5050505E-02  0.1834529E-10  0.0000000E+00 -0.4109934E-04
  0.1161616E+00  0.0000000E+00  0.5050505E-02  0.1985718E-10  0.0000000E+00 -0.4109930E-04
  0.1262626E+00  0.0000000E+00  0.5050505E-02  0.2130323E-10  0.0000000E+00 -0.4109926E-04
  0.1363636E+00  0.0000000E+00  0.5050505E-02  0.2267786E-10  0.0000000E+00 -0.4109922E-04
  0.1464646E+00  0.0000000E+00  0.5050505E-02  0.2397544E-10  0.0000000E+00 -0.4109917E-04
  0.1565657E+00  0.0000000E+00  0.5050505E-02  0.2519021E-10  0.0000000E+00 -0.4109912E-04
  0.1666667E+00  0.0000000E+00  0.5050505E-02  0.2631637E-10  0.0000000E+00 -0.4109907E-04
  0.1767677E+00  0.0000000E+00  0.5050505E-02  0.2734808E-10  0.0000000E+00 -0.4109901E-04
  0.1868687E+00  0.0000000E+00  0.5050505E-02  0.2827957E-10  0.0000000E+00 -0.4109896E-04
  0.1969697E+00  0.0000000E+00  0.5050505E-02  0.2910522E-10  0.0000000E+00 -0.4109890E-04
  0.2070707E+00  0.0000000E+00  0.5050505E-02  0.2981959E-10  0.0000000E+00 -0.4109884E-04
  0.2171717E+00  0.0000000E+00  0.5050505E-02  0.3041751E-10  0.0000000E+00 -0.4109878E-04
  0.2272727E+00  0.0000000E+00  0.5050505E-02  0.3089410E-10  0.0000000E+00 -0.4109872E-04
  0.2373737E+00  0.0000000E+00  0.5050505E-02  0.3124490E-10  0.0000000E+00 -0.4109866E-04
  0.2474747E+00  0.0000000E+00  0.5050505E-02  0.3146587E-10  0.0000000E+00 -0.4109859E-04
  0.2575758E+00  0.0000000E+00  0.5050505E-02  0.3155349E-10  0.0000000E+00 -0.4109853E-04
  0.2676768E+00  0.0000000E+00  0.5050505E-02  0.3150476E-10  0.0000000E+00 -0.4109847E-04
  0.2777778E+00  0.0000000E+00  0.5050505E-02  0.3131733E-10  0.0000000E+00 -0.4109840E-04
  0.2878788E+00  0.0000000E+00  0.5050505E-02  0.3098953E-10  0.0000000E+00 -0.4109834E-04
  0.2979798E+00  0.0000000E+00  0.5050505E-02  0.3052037E-10  0.0000000E+00 -0.4109828E-04
  0.3080808E+00  0.0000000E+00  0.5050505E-02  0.2990962E-10  0.0000000E+00 -0.4109822E-04
  0.3181818E+00  0.0000000E+00  0.5050505E-02  0.2915787E-10  0.0000000E+00 -0.4109816E-04
  0.3282828E+00  0.0000000E+00  0.5050505E-02  0.2826649E-10  0.0000000E+00 -0.4109810E-04
  0.3383838E+00  0.0000000E+00  0.5050505E-02  0.2723772E-10  0.0000000E+00 -0.4109805E-04
  0.3484848E+00  0.0000000E+00  0.5050505E-02  0.2607463E-10  0.0000000E+00 -0.4109799E-04
  0.3585859E+00  0.0000000E+00  0.5050505E-02  0.2478117E-10  0.0000000E+00 -0.4109794E-04
  0.3686869E+00  0.0000000E+00  0.5050505E-02  0.2336214E-10  0.0000000E+00 -0.4109789E-04
  0.3787879E+00  0.0000000E+00  0.5050505E-02  0.2182322E-10  0.0000000E+00 -0.4109785E-04
  0.3888889E+00  0.0000000E+00  0.5050505E-02  0.2017094E-10  0.0000000E+00 -0.4109781E-04
  0.3989899E+00  0.0000000E+00  0.5050505E-02  0.1841270E-10  0.0000000E+00 -0.4109777E-04
  0.4090909E+00  0.0000000E+00  0.5050505E-02  0.1655673E-10  0.0000000E+00 -0.4109773E-04
  0.4191919E+00  0.0000000E+00  0.5050505E-02  0.1461206E-10  0.0000000E+00 -0.4109770E-04
  0.4292929E+00  0.0000000E+00  0.5050505E-02  0.1258844E-10  0.0000000E+00 -0.4109767E-04
  0.4393939E+00  0.0000000E+00  0.5050505E-02  0.1049631E-10  0.0000000E+00 -0.4109765E-04
  0.4494950E+00  0.0000000E+00  0.5050505E-02  0.8346632E-11  0.0000000E+00 -0.4109763E-04
  0.4595959E+00  0.0000000E+00  0.5050505E-02  0.6150726E-11  0.0000000E+00 -0.4109762E-04
  0.4696970E+00  0.0000000E+00  0.5050505E-02  0.3920145E-11  0.0000000E+00 -0.4109761E-04
  0.4797980E+00  0.0000000E+00  0.5050505E-02  0.1666515E-11  0.0000000E+00 -0.4109760E-04
  0.4898990E+00  0.0000000E+00  0.5050505E-02 -0.5978535E-12  0.0000000E+00 -0.4109760E-04
  0.5000000E+00  0.0000000E+00  0.5050505E-02 -0.2860842E-11  0.0000000E+00 -0.4109760E-04
  0.5101010E+00  0.0000000E+00  0.5050505E-02 -0.5110259E-11  0.0000000E+00 -0.4109761E-04
  0.5202020E+00  0.0000000E+00  0.5050505E-02 -0.7333450E-11  0.0000000E+00 -0.4109762E-04
  0.5303030E+00  0.0000000E+00  0.5050505E-02 -0.9520288E-11  0.0000000E+00 -0.4109764E-04
  0.5404040E+00  0.0000000E+00  0.5050505E-02 -0.1165644E-10  0.0000000E+00 -0.4109766E-04
  0.5505050E+00  0.0000000E+00  0.5050505E-02 -0.1373315E-10  0.0000000E+00 -0.4109769E-04
  0.5606061E+00  0.0000000E+00  0.5050505E-02 -0.1574115E-10  0.0000000E+00 -0.4109772E-04
  0.5707071E+00  0.0000000E+00  0.5050505E-02 -0.1766984E-10  0.0000000E+00 -0.4109775E-04
  0.5808081E+00  0.0000000E+00  0.5050505E-02 -0.1950880E-10  0.0000000E+00 -0.4109779E-04
  0.5909091E+00  0.0000000E+00  0.5050505E-02 -0.2124889E-10  0.0000000E+00 -0.4109783E-04
  0.6010101E+00  0.0000000E+00  0.5050505E-02 -0.2288237E-10  0.0000000E+00 -0.4109787E-04
  0.6111111E+00  0.0000000E+00  0.5050505E-02 -0.2440264E-10  0.0000000E+00 -0.4109792E-04
  0.6212121E+00  0.0000000E+00  0.5050505E-02 -0.2580403E-10  0.0000000E+00 -0.4109797E-04
  0.6313131E+00  0.0000000E+00  0.5050505E-02 -0.2708170E-10  0.0000000E+00 -0.4109802E-04
  0.6414142E+00  0.0000000E+00  0.5050505E-02 -0.2823156E-10  0.0000000E+00 -0.4109808E-04
  0.6515151E+00  0.0000000E+00  0.5050505E-02 -0.2925032E-10  0.0000000E+00 -0.4109814E-04
  0.6616161E+00  0.0000000E+00  0.5050505E-02 -0.3013549E-10  0.0000000E+00 -0.4109820E-04
  0.6717172E+00  0.0000000E+00  0.5050505E-02 -0.3088535E-10  0.0000000E+00 -0.4109826E-04
  0.6818182E+00  0.0000000E+00  0.5050505E-02 -0.3149903E-10  0.0000000E+00 -0.4109832E-04
  0.6919192E+00  0.0000000E+00  0.5050505E-02 -0.3197639E-10  0.0000000E+00 -0.4109838E-04
  0.7020202E+00  0.0000000E+00  0.5050505E-02 -0.3231806E-10  0.0000000E+00 -0.4109845E-04
  0.7121212E+00  0.0000000E+00  0.5050505E-02 -0.3252537E-10  0.0000000E+00 -0.4109851E-04
  0.7222222E+00  0.0000000E+00  0.5050505E-02 -0.3260034E-10  0.0000000E+00 -0.4109858E-04
  0.7323232E+00  0.0000000E+00  0.5050505E-02 -0.3254556E-10  0.0000000E+00 -0.4109865E-04
  0.7424242E+00  0.0000000E+00  0.5050505E-02 -0.3236423E-10  0.0000000E+00 -0.4109871E-04
  0.7525253E+00  0.0000000E+00  0.5050505E-02 -0.3206000E-10  0.0000000E+00 -0.4109878E-04
  0.7626263E+00  0.0000000E+00  0.5050505E-02 -0.3163699E-10  0.0000000E+00 -0.4109884E-04
  0.7727273E+00  0.0000000E+00  0.5050505E-02 -0.3109970E-10  0.0000000E+00 -0.4109890E-04
  0.7828283E+00  0.0000000E+00  0.5050505E-02 -0.3045293E-10  0.0000000E+00 -0.4109896E-04
  0.7929293E+00  0.0000000E+00  0.5050505E-02 -0.2970175E-10  0.0000000E+00 -0.4109902E-04
  0.8030303E+00  0.0000000E+00  0.5050505E-02 -0.2885144E-10  0.0000000E+00 -0.4109908E-04
  0.8131313E+00  0.0000000E+00  0.5050505E-02 -0.2790739E-10  0.0000000E+00 -0.4109914E-04
  0.8232324E+00  0.0000000E+00  0.5050505E-02 -0.2687511E-10  0.0000000E+00 -0.4109920E-04
  0.8333333E+00  0.0000000E+00  0.5050505E-02 -0.2576010E-10  0.0000000E+00 -0.4109925E-04
  0.8434343E+00  0.0000000E+00  0.5050505E-02 -0.2456790E-10  0.0000000E+00 -0.4109930E-04
  0.8535354E+00  0.0000000E+00  0.5050505E-02 -0.2330393E-10  0.0000000E+00 -0.4109935E-04
  0.8636364E+00  0.0000000E+00  0.5050505E-02 -0.2197356E-10  0.0000000E+00 -0.4109939E-04
  0.8737374E+00  0.0000000E+00  0.5050505E-02 -0.2058203E-10  0.0000000E+00 -0.4109944E-04
  0.8838384E+00  0.0000000E+00  0.5050505E-02 -0.1913445E-10  0.0000000E+00 -0.4109948E-04
  0.8939394E+00  0.0000000E+00  0.5050505E-02 -0.1763580E-10  0.0000000E+00 -0.4109951E-04
  0.9040404E+00  0.0000000E+00  0.5050505E-02 -0.1609095E-10  0.0000000E+00 -0.4109955E-04
  0.9141414E+00  0.0000000E+00  0.5050505E-02 -0.1450471E-10  0.0000000E+00 -0.4109958E-04
  0.9242424E+00  0.0000000E+00  0.5050505E-02 -0.1288181E-10  0.0000000E+00 -0.4109960E-04
  0.9343435E+00  0.0000000E+00  0.5050505E-02 -0.1122692E-10  0.0000000E+00 -0.4109963E-04
  0.9444444E+00  0.0000000E+00  0.5050505E-02 -0.9544686E-11  0.0000000E+00 -0.4109965E-04
  0.9545454E+00  0.0000000E+00  0.5050505E-02 -0.7839578E-11  0.0000000E+00 -0.4109967E-04
  0.9646465E+00  0.0000000E+00  0.5050505E-02 -0.6115899E-11  0.0000000E+00 -0.4109968E-04
  0.9747475E+00  0.0000000E+00  0.5050505E-02 -0.4377675E-11  0.0000000E+00 -0.4109969E-04
  0.9848485E+00  0.0000000E+00  0.5050505E-02 -0.2628643E-11  0.0000000E+00 -0.4109970E-04
  0.9974747E+00  0.0000000E+00  0.5050505E-02 -0.8721160E-12  0.0000000E+00 -0.4109970E-04
  0.5050505E-02  0.0000000E+00  0.1515152E-01  0.2799763E-11  0.0000000E+00 -0.4094794E-04
  0.1515152E-01  0.0000000E+00  0.1515152E-01  0.8364279E-11  0.0000000E+00 -0.4094794E-04
  0.2525252E-01  0.0000000E+00  0.1515152E-01  0.1389794E-10  0.0000000E+00 -0.4094793E-04
  0.3535353E-01  0.0000000E+00  0.1515152E-01  0.1939106E-10  0.0000000E+00 -0.4094792E-04
  0.4545455E-01  0.0000000E+00  0.1515152E-01  0.2483202E-10  0.0000000E+00 -0.4094791E-04
  0.5555556E-01  0.0000000E+00  0.1515152E-01  0.3019210E-10  0.0000000E+00 -0.4094789E-04
  0.6565657E-01  0.0000000E+00  0.1515152E-01  0.3546179E-10  0.0000000E+00 -0.4094786E-04
  0.7575758E-01  0.0000000E+00  0.1515152E-01  0.4062923E-10  0.0000000E+00 -0.4094784E-04
  0.8585858E-01  0.0000000E+00  0.1515152E-01  0.4567559E-10  0.0000000E+00 -0.4094781E-04
  0.9595960E-01  0.0000000E+00  0.1515152E-01  0.5057948E-10  0.0000000E+00 -0.4094778E-04
  0.1060606E+00  0.0000000E+00  0.1515152E-01  0.5532066E-10  0.0000000E+00 -0.4094774E-04
  0.1161616E+00  0.0000000E+00  0.1515152E-01  0.5988086E-10  0.0000000E+00 -0.4094770E-04
  0.1262626E+00  0.0000000E+00  0.1515152E-01  0.6424284E-10  0.0000000E+00 -0.4094766E-04
  0.1363636E+00  0.0000000E+00  0.1515152E-01  0.6838970E-10  0.0000000E+00 -0.4094761E-04
  0.1464646E+00  0.0000000E+00  0.1515152E-01  0.7230440E-10  0.0000000E+00 -0.4094757E-04
  0.1565657E+00  0.0000000E+00  0.1515152E-01  0.7596957E-10  0.0000000E+00 -0.4094752E-04
  0.1666667E+00  0.0000000E+00  0.1515152E-01  0.7936765E-10  0.0000000E+00 -0.4094746E-04
  0.1767677E+00  0.0000000E+00  0.1515152E-01  0.8248107E-10  0.0000000E+00 -0.4094741E-04
  0.1868687E+00  0.0000000E+00  0.1515152E-01  0.8529241E-10  0.0000000E+00 -0.4094735E-04
  0.1969697E+00  0.0000000E+00  0.1515152E-01  0.8778468E-10  0.0000000E+00 -0.4094729E-04
  0.2070707E+00  0.0000000E+00  0.1515152E-01  0.8994145E-10  0.0000000E+00 -0.4094723E-04
  0.2171717E+00  0.0000000E+00  0.1515152E-01  0.9174707E-10  0.0000000E+00 -0.4094717E-04
  0.2272727E+00  0.0000000E+00  0.1515152E-01  0.9318685E-10  0.0000000E+00 -0.4094711E-04
  0.2373737E+00  0.0000000E+00  0.1515152E-01  0.9424724E-10  0.0000000E+00 -0.4094704E-04
  0.2474747E+00  0.0000000E+00  0.1515152E-01  0.9491605E-10  0.0000000E+00 -0.4094698E-04
  0.2575758E+00  0.0000000E+00  0.1515152E-01  0.9518257E-10  0.0000000E+00 -0.4094692E-04
  0.2676768E+00  0.0000000E+00  0.1515152E-01  0.9503780E-10  0.0000000E+00 -0.4094685E-04
  0.2777778E+00  0.0000000E+00  0.1515152E-01  0.9447458E-10  0.0000000E+00 -0.4094679E-04
  0.2878788E+00  0.0000000E+00  0.1515152E-01  0.9348779E-10  0.0000000E+00 -0.4094672E-04
  0.2979798E+00  0.0000000E+00  0.1515152E-01  0.9207443E-10  0.0000000E+00 -0.4094666E-04
  0.3080808E+00  0.0000000E+00  0.1515152E-01  0.9023381E-10  0.0000000E+00 -0.4094660E-04
  0.3181818E+00  0.0000000E+00  0.1515152E-01  0.8796762E-10  0.0000000E+00 -0.4094654E-04
  0.3282828E+00  0.0000000E+00  0.1515152E-01  0.8528001E-10  0.0000000E+00 -0.4094648E-04
  0.3383838E+00  0.0000000E+00  0.1515152E-01  0.8217767E-10  0.0000000E+00 -0.4094642E-04
  0.3484848E+00  0.0000000E+00  0.1515152E-01  0.7866987E-10  0.0000000E+00 -0.4094637E-04
  0.3585859E+00  0.0000000E+00  0.1515152E-01  0.7476849E-10  0.0000000E+00 -0.4094631E-04
  0.3686869E+00  0.0000000E+00  0.1515152E-01  0.7048800E-10  0.0000000E+00 -0.4094627E-04
  0.3787879E+00  0.0000000E+00  0.1515152E-01  0.6584552E-10  0.0000000E+00 -0.4094622E-04
  0.3888889E+00  0.0000000E+00  0.1515152E-01  0.6086078E-10  0.0000000E+00 -0.4094618E-04
  0.3989899E+00  0.0000000E+00  0.1515152E-01  0.5555609E-10  0.0000000E+00 -0.4094614E-04
  0.4090909E+00  0.0000000E+00  0.1515152E-01  0.4995633E-10  0.0000000E+00 -0.4094610E-04
  0.4191919E+00  0.0000000E+00  0.1515152E-01  0.4408876E-10  0.0000000E+00 -0.4094607E-04
  0.4292929E+00  0.0000000E+00  0.1515152E-01  0.3798293E-10  0.0000000E+00 -0.4094604E-04
  0.4393939E+00  0.0000000E+00  0.1515152E-01  0.3167035E-10  0.0000000E+00 -0.4094602E-04
  0.4494950E+00  0.0000000E+00  0.1515152E-01  0.2518409E-10  0.0000000E+00 -0.4094600E-04
  0.4595959E+00  0.0000000E+00  0.1515152E-01  0.1855820E-10  0.0000000E+00 -0.4094598E-04
  0.4696970E+00  0.0000000E+00  0.1515152E-01  0.1182737E-10  0.0000000E+00 -0.4094597E-04
  0.4797980E+00  0.0000000E+00  0.1515152E-01  0.5027273E-11  0.0000000E+00 -0.4094597E-04
  0.4898990E+00  0.0000000E+00  0.1515152E-01 -0.1805941E-11  0.0000000E+00 -0.4094597E-04
  0.5000000E+00  0.0000000E+00  0.1515152E-01 -0.8634998E-11  0.0000000E+00 -0.4094597E-04
  0.5101010E+00  0.0000000E+00  0.1515152E-01 -0.1542223E-10  0.0000000E+00 -0.4094598E-04
  0.5202020E+00  0.0000000E+00  0.1515152E-01 -0.2212994E-10  0.0000000E+00 -0.4094599E-04
  0.5303030E+00  0.0000000E+00  0.1515152E-01 -0.2872825E-10  0.0000000E+00 -0.4094601E-04
  0.5404040E+00  0.0000000E+00  0.1515152E-01 -0.3517427E-10  0.0000000E+00 -0.4094603E-04
  0.5505050E+00  0.0000000E+00  0.1515152E-01 -0.4144034E-10  0.0000000E+00 -0.4094605E-04
  0.5606061E+00  0.0000000E+00  0.1515152E-01 -0.4749823E-10  0.0000000E+00 -0.4094609E-04
  0.5707071E+00  0.0000000E+00  0.1515152E-01 -0.5331636E-10  0.0000000E+00 -0.4094612E-04
  0.5808081E+00  0.0000000E+00  0.1515152E-01 -0.5886366E-10  0.0000000E+00 -0.4094616E-04
  0.5909091E+00  0.0000000E+00  0.1515152E-01 -0.6411260E-10  0.0000000E+00 -0.4094620E-04
  0.6010101E+00  0.0000000E+00  0.1515152E-01 -0.6903980E-10  0.0000000E+00 -0.4094624E-04
  0.6111111E+00  0.0000000E+00  0.1515152E-01 -0.7362519E-10  0.0000000E+00 -0.4094629E-04
  0.6212121E+00  0.0000000E+00  0.1515152E-01 -0.7785169E-10  0.0000000E+00 -0.4094634E-04
  0.6313131E+00  0.0000000E+00  0.1515152E-01 -0.8170462E-10  0.0000000E+00 -0.4094640E-04
  0.6414142E+00  0.0000000E+00  0.1515152E-01 -0.8517168E-10  0.0000000E+00 -0.4094646E-04
  0.6515151E+00  0.0000000E+00  0.1515152E-01 -0.8824297E-10  0.0000000E+00 -0.4094651E-04
  0.6616161E+00  0.0000000E+00  0.1515152E-01 -0.9091097E-10  0.0000000E+00 -0.4094658E-04
  0.6717172E+00  0.0000000E+00  0.1515152E-01 -0.9317061E-10  0.0000000E+00 -0.4094664E-04
  0.6818182E+00  0.0000000E+00  0.1515152E-01 -0.9501921E-10  0.0000000E+00 -0.4094670E-04
  0.6919192E+00  0.0000000E+00  0.1515152E-01 -0.9645644E-10  0.0000000E+00 -0.4094677E-04
  0.7020202E+00  0.0000000E+00  0.1515152E-01 -0.9748425E-10  0.0000000E+00 -0.4094683E-04
  0.7121212E+00  0.0000000E+00  0.1515152E-01 -0.9810669E-10  0.0000000E+00 -0.4094690E-04
  0.7222222E+00  0.0000000E+00  0.1515152E-01 -0.9832986E-10  0.0000000E+00 -0.4094697E-04
  0.7323232E+00  0.0000000E+00  0.1515152E-01 -0.9816169E-10  0.0000000E+00 -0.4094703E-04
  0.7424242E+00  0.0000000E+00  0.1515152E-01 -0.9761179E-10  0.0000000E+00 -0.4094710E-04
  0.7525253E+00  0.0000000E+00  0.1515152E-01 -0.9669127E-10  0.0000000E+00 -0.4094716E-04
  0.7626263E+00  0.0000000E+00  0.1515152E-01 -0.9541260E-10  0.0000000E+00 -0.4094723E-04
  0.7727273E+00  0.0000000E+00  0.1515152E-01 -0.9378936E-10  0.0000000E+00 -0.4094729E-04
  0.7828283E+00  0.0000000E+00  0.1515152E-01 -0.9183610E-10  0.0000000E+00 -0.4094736E-04
  0.7929293E+00  0.0000000E+00  0.1515152E-01 -0.8956815E-10  0.0000000E+00 -0.4094742E-04
  0.8030303E+00  0.0000000E+00  0.1515152E-01 -0.8700142E-10  0.0000000E+00 -0.4094748E-04
  0.8131313E+00  0.0000000E+00  0.1515152E-01 -0.8415225E-10  0.0000000E+00 -0.4094754E-04
  0.8232324E+00  0.0000000E+00  0.1515152E-01 -0.8103723E-10  0.0000000E+00 -0.4094759E-04
  0.8333333E+00  0.0000000E+00  0.1515152E-01 -0.7767305E-10  0.0000000E+00 -0.4094765E-04
  0.8434343E+00  0.0000000E+00  0.1515152E-01 -0.7407633E-10  0.0000000E+00 -0.4094770E-04
  0.8535354E+00  0.0000000E+00  0.1515152E-01 -0.7026350E-10  0.0000000E+00 -0.4094775E-04
  0.8636364E+00  0.0000000E+00  0.1515152E-01 -0.6625074E-10  0.0000000E+00 -0.4094779E-04
  0.8737374E+00  0.0000000E+00  0.1515152E-01 -0.6205382E-10  0.0000000E+00 -0.4094784E-04
  0.8838384E+00  0.0000000E+00  0.1515152E-01 -0.5768816E-10  0.0000000E+00 -0.4094788E-04
  0.8939394E+00  0.0000000E+00  0.1515152E-01 -0.5316877E-10  0.0000000E+00 -0.4094792E-04
  0.9040404E+00  0.0000000E+00  0.1515152E-01 -0.4851035E-10  0.0000000E+00 -0.4094795E-04
  0.9141414E+00  0.0000000E+00  0.1515152E-01 -0.4372738E-10  0.0000000E+00 -0.4094798E-04
  0.9242424E+00  0.0000000E+00  0.1515152E-01 -0.3883415E-10  0.0000000E+00 -0.4094801E-04
  0.9343435E+00  0.0000000E+00  0.1515152E-01 -0.3384482E-10  0.0000000E+00 -0.4094803E-04
  0.9444444E+00  0.0000000E+00  0.1515152E-01 -0.2877334E-10  0.0000000E+00 -0.4094806E-04
  0.9545454E+00  0.0000000E+00  0.1515152E-01 -0.2363323E-10  0.0000000E+00 -0.4094807E-04
  0.9646465E+00  0.0000000E+00  0.1515152E-01 -0.1843741E-10  0.0000000E+00 -0.4094809E-04
  0.9747475E+00  0.0000000E+00  0.1515152E-01 -0.1319798E-10  0.0000000E+00 -0.4094810E-04
  0.9848485E+00  0.0000000E+00  0.1515152E-01 -0.7926353E-11  0.0000000E+00 -0.4094811E-04
  0.9974747E+00  0.0000000E+00  0.1515152E-01 -0.2633919E-11  0.0000000E+00 -0.4094811E-04
  0.5050505E-02  0.0000000E+00  0.2525252E-01  0.4709225E-11  0.0000000E+00 -0.4064663E-04
  0.1515152E-01  0.0000000E+00  0.2525252E-01  0.1408570E-10  0.0000000E+00 -0.4064662E-04
  0.2525252E-01  0.0000000E+00  0.2525252E-01  0.2341060E-10  0.0000000E+00 -0.4064661E-04
  0.3535353E-01  0.0000000E+00  0.2525252E-01  0.3266516E-10  0.0000000E+00 -0.4064660E-04
  0.4545455E-01  0.0000000E+00  0.2525252E-01  0.4183133E-10  0.0000000E+00 -0.4064659E-04
  0.5555556E-01  0.0000000E+00  0.2525252E-01  0.5086347E-10  0.0000000E+00 -0.4064657E-04
  0.6565657E-01  0.0000000E+00  0.2525252E-01  0.5974325E-10  0.0000000E+00 -0.4064654E-04
  0.7575758E-01  0.0000000E+00  0.2525252E-01  0.6844998E-10  0.0000000E+00 -0.4064652E-04
  0.8585858E-01  0.0000000E+00  0.2525252E-01  0.7695274E-10  0.0000000E+00 -0.4064649E-04
  0.9595960E-01  0.0000000E+00  0.2525252E-01  0.8521638E-10  0.0000000E+00 -0.4064645E-04
  0.1060606E+00  0.0000000E+00  0.2525252E-01  0.9320712E-10  0.0000000E+00 -0.4064642E-04
  0.1161616E+00  0.0000000E+00  0.2525252E-01  0.1008940E-09  0.0000000E+00 -0.4064638E-04
  0.1262626E+00  0.0000000E+00  0.2525252E-01  0.1082479E-09  0.0000000E+00 -0.4064633E-04
  0.1363636E+00  0.0000000E+00  0.2525252E-01  0.1152402E-09  0.0000000E+00 -0.4064628E-04
  0.1464646E+00  0.0000000E+00  0.2525252E-01  0.1218419E-09  0.0000000E+00 -0.4064624E-04
  0.1565657E+00  0.0000000E+00  0.2525252E-01  0.1280238E-09  0.0000000E+00 -0.4064618E-04
  0.1666667E+00  0.0000000E+00  0.2525252E-01  0.1337562E-09  0.0000000E+00 -0.4064613E-04
  0.1767677E+00  0.0000000E+00  0.2525252E-01  0.1390095E-09  0.0000000E+00 -0.4064607E-04
  0.1868687E+00  0.0000000E+00  0.2525252E-01  0.1437542E-09  0.0000000E+00 -0.4064601E-04
  0.1969697E+00  0.0000000E+00  0.2525252E-01  0.1479617E-09  0.0000000E+00 -0.4064595E-04
  0.2070707E+00  0.0000000E+00  0.2525252E-01  0.1516042E-09  0.0000000E+00 -0.4064589E-04
  0.2171717E+00  0.0000000E+00  0.2525252E-01  0.1546551E-09  0.0000000E+00 -0.4064582E-04
  0.2272727E+00  0.0000000E+00  0.2525252E-01  0.1570896E-09  0.0000000E+00 -0.4064576E-04
  0.2373737E+00  0.0000000E+00  0.2525252E-01  0.1588848E-09  0.0000000E+00 -0.4064569E-04
  0.2474747E+00  0.0000000E+00  0.2525252E-01  0.1600199E-09  0.0000000E+00 -0.4064563E-04
  0.2575758E+00  0.0000000E+00  0.2525252E-01  0.1604768E-09  0.0000000E+00 -0.4064556E-04
  0.2676768E+00  0.0000000E+00  0.2525252E-01  0.1602401E-09  0.0000000E+00 -0.4064549E-04
  0.2777778E+00  0.0000000E+00  0.2525252E-01  0.1592978E-09  0.0000000E+00 -0.4064543E-04
  0.2878788E+00  0.0000000E+00  0.2525252E-01  0.1576409E-09  0.0000000E+00 -0.4064536E-04
  0.2979798E+00  0.0000000E+00  0.2525252E-01  0.1552644E-09  0.0000000E+00 -0.4064529E-04
  0.3080808E+00  0.0000000E+00  0.2525252E-01  0.1521669E-09  0.0000000E+00 -0.4064523E-04
  0.3181818E+00  0.0000000E+00  0.2525252E-01  0.1483512E-09  0.0000000E+00 -0.4064517E-04
  0.3282828E+00  0.0000000E+00  0.2525252E-01  0.1438241E-09  0.0000000E+00 -0.4064511E-04
  0.3383838E+00  0.0000000E+00  0.2525252E-01  0.1385970E-09  0.0000000E+00 -0.4064505E-04
  0.3484848E+00  0.0000000E+00  0.2525252E-01  0.1326852E-09  0.0000000E+00 -0.4064499E-04
  0.3585859E+00  0.0000000E+00  0.2525252E-01  0.1261089E-09  0.0000000E+00 -0.4064494E-04
  0.3686869E+00  0.0000000E+00  0.2525252E-01  0.1188923E-09  0.0000000E+00 -0.4064488E-04
  0.3787879E+00  0.0000000E+00  0.2525252E-01  0.1110643E-09  0.0000000E+00 -0.4064484E-04
  0.3888889E+00  0.0000000E+00  0.2525252E-01  0.1026582E-09  0.0000000E+00 -0.4064479E-04
  0.3989899E+00  0.0000000E+00  0.2525252E-01  0.9371169E-10  0.0000000E+00 -0.4064475E-04
  0.4090909E+00  0.0000000E+00  0.2525252E-01  0.8426681E-10  0.0000000E+00 -0.4064471E-04
  0.4191919E+00  0.0000000E+00  0.2525252E-01  0.7436972E-10  0.0000000E+00 -0.4064468E-04
  0.4292929E+00  0.0000000E+00  0.2525252E-01  0.6407041E-10  0.0000000E+00 -0.4064465E-04
  0.4393939E+00  0.0000000E+00  0.2525252E-01  0.5342215E-10  0.0000000E+00 -0.4064463E-04
  0.4494950E+00  0.0000000E+00  0.2525252E-01  0.4248071E-10  0.0000000E+00 -0.4064461E-04
  0.4595959E+00  0.0000000E+00  0.2525252E-01  0.3130327E-10  0.0000000E+00 -0.4064459E-04
  0.4696970E+00  0.0000000E+00  0.2525252E-01  0.1994765E-10  0.0000000E+00 -0.4064458E-04
  0.4797980E+00  0.0000000E+00  0.2525252E-01  0.8475331E-11  0.0000000E+00 -0.4064457E-04
  0.4898990E+00  0.0000000E+00  0.2525252E-01 -0.3052947E-11  0.0000000E+00 -0.4064457E-04
  0.5000000E+00  0.0000000E+00  0.2525252E-01 -0.1457447E-10  0.0000000E+00 -0.4064458E-04
  0.5101010E+00  0.0000000E+00  0.2525252E-01 -0.2602465E-10  0.0000000E+00 -0.4064458E-04
  0.5202020E+00  0.0000000E+00  0.2525252E-01 -0.3733980E-10  0.0000000E+00 -0.4064460E-04
  0.5303030E+00  0.0000000E+00  0.2525252E-01 -0.4846997E-10  0.0000000E+00 -0.4064462E-04
  0.5404040E+00  0.0000000E+00  0.2525252E-01 -0.5934366E-10  0.0000000E+00 -0.4064464E-04
  0.5505050E+00  0.0000000E+00  0.2525252E-01 -0.6991243E-10  0.0000000E+00 -0.4064467E-04
  0.5606061E+00  0.0000000E+00  0.2525252E-01 -0.8012832E-10  0.0000000E+00 -0.4064470E-04
  0.5707071E+00  0.0000000E+00  0.2525252E-01 -0.8993877E-10  0.0000000E+00 -0.4064473E-04
  0.5808081E+00  0.0000000E+00  0.2525252E-01 -0.9929196E-10  0.0000000E+00 -0.4064477E-04
  0.5909091E+00  0.0000000E+00  0.2525252E-01 -0.1081415E-09  0.0000000E+00 -0.4064482E-04
  0.6010101E+00  0.0000000E+00  0.2525252E-01 -0.1164478E-09  0.0000000E+00 -0.4064486E-04
  0.6111111E+00  0.0000000E+00  0.2525252E-01 -0.1241769E-09  0.0000000E+00 -0.4064491E-04
  0.6212121E+00  0.0000000E+00  0.2525252E-01 -0.1312997E-09  0.0000000E+00 -0.4064497E-04
  0.6313131E+00  0.0000000E+00  0.2525252E-01 -0.1377916E-09  0.0000000E+00 -0.4064502E-04
  0.6414142E+00  0.0000000E+00  0.2525252E-01 -0.1436318E-09  0.0000000E+00 -0.4064508E-04
  0.6515151E+00  0.0000000E+00  0.2525252E-01 -0.1488037E-09  0.0000000E+00 -0.4064514E-04
  0.6616161E+00  0.0000000E+00  0.2525252E-01 -0.1532947E-09  0.0000000E+00 -0.4064521E-04
  0.6717172E+00  0.0000000E+00  0.2525252E-01 -0.1570965E-09  0.0000000E+00 -0.4064527E-04
  0.6818182E+00  0.0000000E+00  0.2525252E-01 -0.1602045E-09  0.0000000E+00 -0.4064534E-04
  0.6919192E+00  0.0000000E+00  0.2525252E-01 -0.1626185E-09  0.0000000E+00 -0.4064541E-04
  0.7020202E+00  0.0000000E+00  0.2525252E-01 -0.1643417E-09  0.0000000E+00 -0.4064547E-04
  0.7121212E+00  0.0000000E+00  0.2525252E-01 -0.1653813E-09  0.0000000E+00 -0.4064554E-04
  0.7222222E+00  0.0000000E+00  0.2525252E-01 -0.1657476E-09  0.0000000E+00 -0.4064561E-04
  0.7323232E+00  0.0000000E+00  0.2525252E-01 -0.1654542E-09  0.0000000E+00 -0.4064568E-04
  0.7424242E+00  0.0000000E+00  0.2525252E-01 -0.1645173E-09  0.0000000E+00 -0.4064575E-04
  0.7525253E+00  0.0000000E+00  0.2525252E-01 -0.1629560E-09  0.0000000E+00 -0.4064582E-04
  0.7626263E+00  0.0000000E+00  0.2525252E-01 -0.1607913E-09  0.0000000E+00 -0.4064589E-04
  0.7727273E+00  0.0000000E+00  0.2525252E-01 -0.1580462E-09  0.0000000E+00 -0.4064595E-04
  0.7828283E+00  0.0000000E+00  0.2525252E-01 -0.1547455E-09  0.0000000E+00 -0.4064602E-04
  0.7929293E+00  0.0000000E+00  0.2525252E-01 -0.1509150E-09  0.0000000E+00 -0.4064608E-04
  0.8030303E+00  0.0000000E+00  0.2525252E-01 -0.1465818E-09  0.0000000E+00 -0.4064614E-04
  0.8131313E+00  0.0000000E+00  0.2525252E-01 -0.1417734E-09  0.0000000E+00 -0.4064620E-04
  0.8232324E+00  0.0000000E+00  0.2525252E-01 -0.1365179E-09  0.0000000E+00 -0.4064626E-04
  0.8333333E+00  0.0000000E+00  0.2525252E-01 -0.1308434E-09  0.0000000E+00 -0.4064632E-04
  0.8434343E+00  0.0000000E+00  0.2525252E-01 -0.1247781E-09  0.0000000E+00 -0.4064637E-04
  0.8535354E+00  0.0000000E+00  0.2525252E-01 -0.1183496E-09  0.0000000E+00 -0.4064642E-04
  0.8636364E+00  0.0000000E+00  0.2525252E-01 -0.1115853E-09  0.0000000E+00 -0.4064647E-04
  0.8737374E+00  0.0000000E+00  0.2525252E-01 -0.1045117E-09  0.0000000E+00 -0.4064652E-04
  0.8838384E+00  0.0000000E+00  0.2525252E-01 -0.9715469E-10  0.0000000E+00 -0.4064656E-04
  0.8939394E+00  0.0000000E+00  0.2525252E-01 -0.8953966E-10  0.0000000E+00 -0.4064660E-04
  0.9040404E+00  0.0000000E+00  0.2525252E-01 -0.8169133E-10  0.0000000E+00 -0.4064663E-04
  0.9141414E+00  0.0000000E+00  0.2525252E-01 -0.7363410E-10  0.0000000E+00 -0.4064666E-04
  0.9242424E+00  0.0000000E+00  0.2525252E-01 -0.6539211E-10  0.0000000E+00 -0.4064669E-04
  0.9343435E+00  0.0000000E+00  0.2525252E-01 -0.5698929E-10  0.0000000E+00 -0.4064672E-04
  0.9444444E+00  0.0000000E+00  0.2525252E-01 -0.4844912E-10  0.0000000E+00 -0.4064674E-04
  0.9545454E+00  0.0000000E+00  0.2525252E-01 -0.3979434E-10  0.0000000E+00 -0.4064676E-04
  0.9646465E+00  0.0000000E+00  0.2525252E-01 -0.3104646E-10  0.0000000E+00 -0.4064677E-04
  0.9747475E+00  0.0000000E+00  0.2525252E-01 -0.2222570E-10  0.0000000E+00 -0.4064679E-04
  0.9848485E+00  0.0000000E+00  0.2525252E-01 -0.1335133E-10  0.0000000E+00 -0.4064679E-04
  0.9974747E+00  0.0000000E+00  0.2525252E-01 -0.4444049E-11  0.0000000E+00 -0.4064680E-04
  0.5050505E-02  0.0000000E+00  0.3535353E-01  0.6694947E-11  0.0000000E+00 -0.4019845E-04
  0.1515152E-01  0.0000000E+00  0.3535353E-01  0.2004191E-10  0.0000000E+00 -0.4019845E-04
  0.2525252E-01  0.0000000E+00  0.3535353E-01  0.3331853E-10  0.0000000E+00 -0.4019844E-04
  0.3535353E-01  0.0000000E+00  0.3535353E-01  0.4649369E-10  0.0000000E+00 -0.4019843E-04
  0.4545455E-01  0.0000000E+00  0.3535353E-01  0.5954179E-10  0.0000000E+00 -0.4019841E-04
  0.5555556E-01  0.0000000E+00  0.3535353E-01  0.7240072E-10  0.0000000E+00 -0.4019839E-04
  0.6565657E-01  0.0000000E+00  0.3535353E-01  0.8504310E-10  0.0000000E+00 -0.4019836E-04
  0.7575758E-01  0.0000000E+00  0.3535353E-01  0.9743934E-10  0.0000000E+00 -0.4019834E-04
  0.8585858E-01  0.0000000E+00  0.3535353E-01  0.1095463E-09  0.0000000E+00 -0.4019830E-04
  0.9595960E-01  0.0000000E+00  0.3535353E-01  0.1213147E-09  0.0000000E+00 -0.4019827E-04
  0.1060606E+00  0.0000000E+00  0.3535353E-01  0.1326969E-09  0.0000000E+00 -0.4019823E-04
  0.1161616E+00  0.0000000E+00  0.3535353E-01  0.1436485E-09  0.0000000E+00 -0.4019819E-04
  0.1262626E+00  0.0000000E+00  0.3535353E-01  0.1541278E-09  0.0000000E+00 -0.4019814E-04
  0.1363636E+00  0.0000000E+00  0.3535353E-01  0.1640938E-09  0.0000000E+00 -0.4019809E-04
  0.1464646E+00  0.0000000E+00  0.3535353E-01  0.1735052E-09  0.0000000E+00 -0.4019804E-04
  0.1565657E+00  0.0000000E+00  0.3535353E-01  0.1823201E-09  0.0000000E+00 -0.4019798E-04
  0.1666667E+00  0.0000000E+00  0.3535353E-01  0.1904964E-09  0.0000000E+00 -0.4019793E-04
  0.1767677E+00  0.0000000E+00  0.3535353E-01  0.1979915E-09  0.0000000E+00 -0.4019787E-04
  0.1868687E+00  0.0000000E+00  0.3535353E-01  0.2047636E-09  0.0000000E+00 -0.4019780E-04
  0.1969697E+00  0.0000000E+00  0.3535353E-01  0.2107715E-09  0.0000000E+00 -0.4019774E-04
  0.2070707E+00  0.0000000E+00  0.3535353E-01  0.2159754E-09  0.0000000E+00 -0.4019767E-04
  0.2171717E+00  0.0000000E+00  0.3535353E-01  0.2203374E-09  0.0000000E+00 -0.4019761E-04
  0.2272727E+00  0.0000000E+00  0.3535353E-01  0.2238219E-09  0.0000000E+00 -0.4019754E-04
  0.2373737E+00  0.0000000E+00  0.3535353E-01  0.2263959E-09  0.0000000E+00 -0.4019747E-04
  0.2474747E+00  0.0000000E+00  0.3535353E-01  0.2280295E-09  0.0000000E+00 -0.4019740E-04
  0.2575758E+00  0.0000000E+00  0.3535353E-01  0.2286966E-09  0.0000000E+00 -0.4019733E-04
  0.2676768E+00  0.0000000E+00  0.3535353E-01  0.2283752E-09  0.0000000E+00 -0.4019726E-04
  0.2777778E+00  0.0000000E+00  0.3535353E-01  0.2270476E-09  0.0000000E+00 -0.4019718E-04
  0.2878788E+00  0.0000000E+00  0.3535353E-01  0.2247009E-09  0.0000000E+00 -0.4019711E-04
  0.2979798E+00  0.0000000E+00  0.3535353E-01  0.2213276E-09  0.0000000E+00 -0.4019705E-04