title = "dataset water"
variables = "x", "y", "z", "vx", "vy", "vz"
zone t = "velocities, solution time =  5.300E+01 days        " i =   99, j =   99, k =    1,  f=point
  0.5050505E-02  0.0000000E+00  0.5050505E-02  0.1612351E-06  0.0000000E+00  0.1965711E-03
  0.1515152E-01  0.0000000E+00  0.5050505E-02  0.4846112E-06  0.0000000E+00  0.1972346E-03
  0.2525252E-01  0.0000000E+00  0.5050505E-02  0.8107437E-06  0.0000000E+00  0.1985654E-03
  0.3535353E-01  0.0000000E+00  0.5050505E-02  0.1141547E-05  0.0000000E+00  0.2005714E-03
  0.4545455E-01  0.0000000E+00  0.5050505E-02  0.1479023E-05  0.0000000E+00  0.2032648E-03
  0.5555556E-01  0.0000000E+00  0.5050505E-02  0.1825290E-05  0.0000000E+00  0.2066620E-03
  0.6565657E-01  0.0000000E+00  0.5050505E-02  0.2182620E-05  0.0000000E+00  0.2107843E-03
  0.7575758E-01  0.0000000E+00  0.5050505E-02  0.2553471E-05  0.0000000E+00  0.2156580E-03
  0.8585858E-01  0.0000000E+00  0.5050505E-02  0.2940538E-05  0.0000000E+00  0.2213150E-03
  0.9595960E-01  0.0000000E+00  0.5050505E-02  0.3346796E-05  0.0000000E+00  0.2277933E-03
  0.1060606E+00  0.0000000E+00  0.5050505E-02  0.3775556E-05  0.0000000E+00  0.2351378E-03
  0.1161616E+00  0.0000000E+00  0.5050505E-02  0.4230526E-05  0.0000000E+00  0.2434010E-03
  0.1262626E+00  0.0000000E+00  0.5050505E-02  0.4715873E-05  0.0000000E+00  0.2526439E-03
  0.1363636E+00  0.0000000E+00  0.5050505E-02  0.5236282E-05  0.0000000E+00  0.2629375E-03
  0.1464646E+00  0.0000000E+00  0.5050505E-02  0.5797016E-05  0.0000000E+00  0.2743636E-03
  0.1565657E+00  0.0000000E+00  0.5050505E-02  0.6403941E-05  0.0000000E+00  0.2870164E-03
  0.1666667E+00  0.0000000E+00  0.5050505E-02  0.7063508E-05  0.0000000E+00  0.3010041E-03
  0.1767677E+00  0.0000000E+00  0.5050505E-02  0.7782625E-05  0.0000000E+00  0.3164500E-03
  0.1868687E+00  0.0000000E+00  0.5050505E-02  0.8568344E-05  0.0000000E+00  0.3334933E-03
  0.1969697E+00  0.0000000E+00  0.5050505E-02  0.9427225E-05  0.0000000E+00  0.3522896E-03
  0.2070707E+00  0.0000000E+00  0.5050505E-02  0.1036417E-04  0.0000000E+00  0.3730088E-03
  0.2171717E+00  0.0000000E+00  0.5050505E-02  0.1138051E-04  0.0000000E+00  0.3958299E-03
  0.2272727E+00  0.0000000E+00  0.5050505E-02  0.1247119E-04  0.0000000E+00  0.4209314E-03
  0.2373737E+00  0.0000000E+00  0.5050505E-02  0.1362151E-04  0.0000000E+00  0.4484746E-03
  0.2474747E+00  0.0000000E+00  0.5050505E-02  0.1480509E-04  0.0000000E+00  0.4785812E-03
  0.2575758E+00  0.0000000E+00  0.5050505E-02  0.1598745E-04  0.0000000E+00  0.5113117E-03
  0.2676768E+00  0.0000000E+00  0.5050505E-02  0.1714191E-04  0.0000000E+00  0.5466647E-03
  0.2777778E+00  0.0000000E+00  0.5050505E-02  0.1828041E-04  0.0000000E+00  0.5846251E-03
  0.2878788E+00  0.0000000E+00  0.5050505E-02  0.1948121E-04  0.0000000E+00  0.6252769E-03
  0.2979798E+00  0.0000000E+00  0.5050505E-02  0.2087246E-04  0.0000000E+00  0.6689312E-03
  0.3080808E+00  0.0000000E+00  0.5050505E-02  0.2261461E-04  0.0000000E+00  0.7162218E-03
  0.3181818E+00  0.0000000E+00  0.5050505E-02  0.2491292E-04  0.0000000E+00  0.7682000E-03
  0.3282828E+00  0.0000000E+00  0.5050505E-02  0.2798346E-04  0.0000000E+00  0.8264110E-03
  0.3383838E+00  0.0000000E+00  0.5050505E-02  0.3185011E-04  0.0000000E+00  0.8927155E-03
  0.3484848E+00  0.0000000E+00  0.5050505E-02  0.3603403E-04  0.0000000E+00  0.9685353E-03
  0.3585859E+00  0.0000000E+00  0.5050505E-02  0.4251021E-04  0.0000000E+00  0.1057061E-02
  0.3686869E+00  0.0000000E+00  0.5050505E-02  0.5962484E-04  0.0000000E+00  0.1173446E-02
  0.3787879E+00  0.0000000E+00  0.5050505E-02  0.6037783E-04  0.0000000E+00  0.1311944E-02
  0.3888889E+00  0.0000000E+00  0.5050505E-02  0.5507528E-04  0.0000000E+00  0.1447302E-02
  0.3989899E+00  0.0000000E+00  0.5050505E-02  0.7291461E-04  0.0000000E+00  0.1599947E-02
  0.4090909E+00  0.0000000E+00  0.5050505E-02  0.7215147E-04  0.0000000E+00  0.1775837E-02
  0.4191919E+00  0.0000000E+00  0.5050505E-02  0.7919382E-04  0.0000000E+00  0.1963172E-02
  0.4292929E+00  0.0000000E+00  0.5050505E-02  0.5705752E-04  0.0000000E+00  0.2135062E-02
  0.4393939E+00  0.0000000E+00  0.5050505E-02  0.8506371E-04  0.0000000E+00  0.2318499E-02
  0.4494950E+00  0.0000000E+00  0.5050505E-02  0.1424294E-03  0.0000000E+00  0.2618687E-02
  0.4595959E+00  0.0000000E+00  0.5050505E-02  0.1814351E-03  0.0000000E+00  0.3060326E-02
  0.4696970E+00  0.0000000E+00  0.5050505E-02 -0.3669750E-05  0.0000000E+00  0.3306914E-02
  0.4797980E+00  0.0000000E+00  0.5050505E-02 -0.5422472E-04  0.0000000E+00  0.3223414E-02
  0.4898990E+00  0.0000000E+00  0.5050505E-02 -0.1397483E-03  0.0000000E+00  0.2952261E-02
  0.5000000E+00  0.0000000E+00  0.5050505E-02 -0.1317474E-03  0.0000000E+00  0.2584173E-02
  0.5101010E+00  0.0000000E+00  0.5050505E-02 -0.8393140E-04  0.0000000E+00  0.2300272E-02
  0.5202020E+00  0.0000000E+00  0.5050505E-02 -0.7303210E-04  0.0000000E+00  0.2098684E-02
  0.5303030E+00  0.0000000E+00  0.5050505E-02 -0.6049858E-04  0.0000000E+00  0.1930413E-02
  0.5404040E+00  0.0000000E+00  0.5050505E-02 -0.6804143E-04  0.0000000E+00  0.1771548E-02
  0.5505050E+00  0.0000000E+00  0.5050505E-02 -0.7471506E-04  0.0000000E+00  0.1598559E-02
  0.5606061E+00  0.0000000E+00  0.5050505E-02 -0.6345002E-04  0.0000000E+00  0.1434086E-02
  0.5707071E+00  0.0000000E+00  0.5050505E-02 -0.4535624E-04  0.0000000E+00  0.1306426E-02
  0.5808081E+00  0.0000000E+00  0.5050505E-02 -0.4838950E-04  0.0000000E+00  0.1197950E-02
  0.5909091E+00  0.0000000E+00  0.5050505E-02 -0.3987119E-04  0.0000000E+00  0.1096948E-02
  0.6010101E+00  0.0000000E+00  0.5050505E-02 -0.3548381E-04  0.0000000E+00  0.1011595E-02
  0.6111111E+00  0.0000000E+00  0.5050505E-02 -0.3285942E-04  0.0000000E+00  0.9348889E-03
  0.6212121E+00  0.0000000E+00  0.5050505E-02 -0.3227258E-04  0.0000000E+00  0.8624189E-03
  0.6313131E+00  0.0000000E+00  0.5050505E-02 -0.2864032E-04  0.0000000E+00  0.7951687E-03
  0.6414142E+00  0.0000000E+00  0.5050505E-02 -0.2542473E-04  0.0000000E+00  0.7358991E-03
  0.6515151E+00  0.0000000E+00  0.5050505E-02 -0.2288834E-04  0.0000000E+00  0.6832680E-03
  0.6616161E+00  0.0000000E+00  0.5050505E-02 -0.2083711E-04  0.0000000E+00  0.6359042E-03
  0.6717172E+00  0.0000000E+00  0.5050505E-02 -0.1909098E-04  0.0000000E+00  0.5928763E-03
  0.6818182E+00  0.0000000E+00  0.5050505E-02 -0.1753883E-04  0.0000000E+00  0.5535883E-03
  0.6919192E+00  0.0000000E+00  0.5050505E-02 -0.1612215E-04  0.0000000E+00  0.5176402E-03
  0.7020202E+00  0.0000000E+00  0.5050505E-02 -0.1481356E-04  0.0000000E+00  0.4847329E-03
  0.7121212E+00  0.0000000E+00  0.5050505E-02 -0.1360133E-04  0.0000000E+00  0.4546165E-03
  0.7222222E+00  0.0000000E+00  0.5050505E-02 -0.1248022E-04  0.0000000E+00  0.4270647E-03
  0.7323232E+00  0.0000000E+00  0.5050505E-02 -0.1144671E-04  0.0000000E+00  0.4018658E-03
  0.7424242E+00  0.0000000E+00  0.5050505E-02 -0.1049700E-04  0.0000000E+00  0.3788197E-03
  0.7525253E+00  0.0000000E+00  0.5050505E-02 -0.9626388E-05  0.0000000E+00  0.3577392E-03
  0.7626263E+00  0.0000000E+00  0.5050505E-02 -0.8829364E-05  0.0000000E+00  0.3384508E-03
  0.7727273E+00  0.0000000E+00  0.5050505E-02 -0.8099942E-05  0.0000000E+00  0.3207954E-03
  0.7828283E+00  0.0000000E+00  0.5050505E-02 -0.7431974E-05  0.0000000E+00  0.3046290E-03
  0.7929293E+00  0.0000000E+00  0.5050505E-02 -0.6819419E-05  0.0000000E+00  0.2898221E-03
  0.8030303E+00  0.0000000E+00  0.5050505E-02 -0.6256522E-05  0.0000000E+00  0.2762588E-03
  0.8131313E+00  0.0000000E+00  0.5050505E-02 -0.5737913E-05  0.0000000E+00  0.2638360E-03
  0.8232324E+00  0.0000000E+00  0.5050505E-02 -0.5258661E-05  0.0000000E+00  0.2524625E-03
  0.8333333E+00  0.0000000E+00  0.5050505E-02 -0.4814287E-05  0.0000000E+00  0.2420574E-03
  0.8434343E+00  0.0000000E+00  0.5050505E-02 -0.4400746E-05  0.0000000E+00  0.2325494E-03
  0.8535354E+00  0.0000000E+00  0.5050505E-02 -0.4014406E-05  0.0000000E+00  0.2238760E-03
  0.8636364E+00  0.0000000E+00  0.5050505E-02 -0.3652011E-05  0.0000000E+00  0.2159818E-03
  0.8737374E+00  0.0000000E+00  0.5050505E-02 -0.3310649E-05  0.0000000E+00  0.2088186E-03
  0.8838384E+00  0.0000000E+00  0.5050505E-02 -0.2987711E-05  0.0000000E+00  0.2023438E-03
  0.8939394E+00  0.0000000E+00  0.5050505E-02 -0.2680858E-05  0.0000000E+00  0.1965207E-03
  0.9040404E+00  0.0000000E+00  0.5050505E-02 -0.2387992E-05  0.0000000E+00  0.1913169E-03
  0.9141414E+00  0.0000000E+00  0.5050505E-02 -0.2107218E-05  0.0000000E+00  0.1867046E-03
  0.9242424E+00  0.0000000E+00  0.5050505E-02 -0.1836823E-05  0.0000000E+00  0.1826598E-03
  0.9343435E+00  0.0000000E+00  0.5050505E-02 -0.1575244E-05  0.0000000E+00  0.1791621E-03
  0.9444444E+00  0.0000000E+00  0.5050505E-02 -0.1321053E-05  0.0000000E+00  0.1761941E-03
  0.9545454E+00  0.0000000E+00  0.5050505E-02 -0.1072928E-05  0.0000000E+00  0.1737417E-03
  0.9646465E+00  0.0000000E+00  0.5050505E-02 -0.8296397E-06  0.0000000E+00  0.1717931E-03
  0.9747475E+00  0.0000000E+00  0.5050505E-02 -0.5900313E-06  0.0000000E+00  0.1703394E-03
  0.9848485E+00  0.0000000E+00  0.5050505E-02 -0.3530036E-06  0.0000000E+00  0.1693738E-03
  0.9974747E+00  0.0000000E+00  0.5050505E-02 -0.1175006E-06  0.0000000E+00  0.1688921E-03
  0.5050505E-02  0.0000000E+00  0.1515152E-01  0.4824886E-06  0.0000000E+00  0.1962298E-03
  0.1515152E-01  0.0000000E+00  0.1515152E-01  0.1450183E-05  0.0000000E+00  0.1968905E-03
  0.2525252E-01  0.0000000E+00  0.1515152E-01  0.2426129E-05  0.0000000E+00  0.1982156E-03
  0.3535353E-01  0.0000000E+00  0.1515152E-01  0.3416042E-05  0.0000000E+00  0.2002129E-03
  0.4545455E-01  0.0000000E+00  0.1515152E-01  0.4425896E-05  0.0000000E+00  0.2028943E-03
  0.5555556E-01  0.0000000E+00  0.1515152E-01  0.5462012E-05  0.0000000E+00  0.2062761E-03
  0.6565657E-01  0.0000000E+00  0.1515152E-01  0.6531161E-05  0.0000000E+00  0.2103792E-03
  0.7575758E-01  0.0000000E+00  0.1515152E-01  0.7640680E-05  0.0000000E+00  0.2152295E-03
  0.8585858E-01  0.0000000E+00  0.1515152E-01  0.8798599E-05  0.0000000E+00  0.2208585E-03
  0.9595960E-01  0.0000000E+00  0.1515152E-01  0.1001379E-04  0.0000000E+00  0.2273036E-03
  0.1060606E+00  0.0000000E+00  0.1515152E-01  0.1129613E-04  0.0000000E+00  0.2346090E-03
  0.1161616E+00  0.0000000E+00  0.1515152E-01  0.1265668E-04  0.0000000E+00  0.2428263E-03
  0.1262626E+00  0.0000000E+00  0.1515152E-01  0.1410787E-04  0.0000000E+00  0.2520158E-03
  0.1363636E+00  0.0000000E+00  0.1515152E-01  0.1566372E-04  0.0000000E+00  0.2622473E-03
  0.1464646E+00  0.0000000E+00  0.1515152E-01  0.1733996E-04  0.0000000E+00  0.2736014E-03
  0.1565657E+00  0.0000000E+00  0.1515152E-01  0.1915421E-04  0.0000000E+00  0.2861714E-03
  0.1666667E+00  0.0000000E+00  0.1515152E-01  0.2112593E-04  0.0000000E+00  0.3000643E-03
  0.1767677E+00  0.0000000E+00  0.1515152E-01  0.2327612E-04  0.0000000E+00  0.3154026E-03
  0.1868687E+00  0.0000000E+00  0.1515152E-01  0.2562651E-04  0.0000000E+00  0.3323260E-03
  0.1969697E+00  0.0000000E+00  0.1515152E-01  0.2819784E-04  0.0000000E+00  0.3509921E-03
  0.2070707E+00  0.0000000E+00  0.1515152E-01  0.3100656E-04  0.0000000E+00  0.3715756E-03
  0.2171717E+00  0.0000000E+00  0.1515152E-01  0.3405917E-04  0.0000000E+00  0.3942652E-03
  0.2272727E+00  0.0000000E+00  0.1515152E-01  0.3734343E-04  0.0000000E+00  0.4192550E-03
  0.2373737E+00  0.0000000E+00  0.1515152E-01  0.4081680E-04  0.0000000E+00  0.4467270E-03
  0.2474747E+00  0.0000000E+00  0.1515152E-01  0.4439632E-04  0.0000000E+00  0.4768220E-03
  0.2575758E+00  0.0000000E+00  0.1515152E-01  0.4796320E-04  0.0000000E+00  0.5096005E-03
  0.2676768E+00  0.0000000E+00  0.1515152E-01  0.5140813E-04  0.0000000E+00  0.5450140E-03
  0.2777778E+00  0.0000000E+00  0.1515152E-01  0.5474156E-04  0.0000000E+00  0.5829423E-03
  0.2878788E+00  0.0000000E+00  0.1515152E-01  0.5821418E-04  0.0000000E+00  0.6233527E-03
  0.2979798E+00  0.0000000E+00  0.1515152E-01  0.6222737E-04  0.0000000E+00  0.6664731E-03
  0.3080808E+00  0.0000000E+00  0.1515152E-01  0.6725091E-04  0.0000000E+00  0.7128583E-03
  0.3181818E+00  0.0000000E+00  0.1515152E-01  0.7393184E-04  0.0000000E+00  0.7635004E-03
  0.3282828E+00  0.0000000E+00  0.1515152E-01  0.8310187E-04  0.0000000E+00  0.8201212E-03
  0.3383838E+00  0.0000000E+00  0.1515152E-01  0.9510625E-04  0.0000000E+00  0.8852702E-03
  0.3484848E+00  0.0000000E+00  0.1515152E-01  0.1058471E-03  0.0000000E+00  0.9584149E-03
  0.3585859E+00  0.0000000E+00  0.1515152E-01  0.1178582E-03  0.0000000E+00  0.1033912E-02
  0.3686869E+00  0.0000000E+00  0.1515152E-01  0.1431211E-03  0.0000000E+00  0.1098983E-02
  0.3787879E+00  0.0000000E+00  0.1515152E-01  0.1480045E-03  0.0000000E+00  0.1158425E-02
  0.3888889E+00  0.0000000E+00  0.1515152E-01  0.1564456E-03  0.0000000E+00  0.1244418E-02
  0.3989899E+00  0.0000000E+00  0.1515152E-01  0.1942666E-03  0.0000000E+00  0.1356201E-02
  0.4090909E+00  0.0000000E+00  0.1515152E-01  0.1992189E-03  0.0000000E+00  0.1480228E-02
  0.4191919E+00  0.0000000E+00  0.1515152E-01  0.2180721E-03  0.0000000E+00  0.1620386E-02
  0.4292929E+00  0.0000000E+00  0.1515152E-01  0.2073970E-03  0.0000000E+00  0.1811691E-02
  0.4393939E+00  0.0000000E+00  0.1515152E-01  0.2749847E-03  0.0000000E+00  0.2065777E-02
  0.4494950E+00  0.0000000E+00  0.1515152E-01  0.3890814E-03  0.0000000E+00  0.2343652E-02
  0.4595959E+00  0.0000000E+00  0.1515152E-01  0.4373884E-03  0.0000000E+00  0.2593905E-02
  0.4696970E+00  0.0000000E+00  0.1515152E-01  0.1194371E-03  0.0000000E+00  0.2892149E-02
  0.4797980E+00  0.0000000E+00  0.1515152E-01 -0.1859933E-03  0.0000000E+00  0.2962225E-02
  0.4898990E+00  0.0000000E+00  0.1515152E-01 -0.4212361E-03  0.0000000E+00  0.2643570E-02
  0.5000000E+00  0.0000000E+00  0.1515152E-01 -0.3317785E-03  0.0000000E+00  0.2349154E-02
  0.5101010E+00  0.0000000E+00  0.1515152E-01 -0.2432673E-03  0.0000000E+00  0.2153439E-02
  0.5202020E+00  0.0000000E+00  0.1515152E-01 -0.1954554E-03  0.0000000E+00  0.1987676E-02
  0.5303030E+00  0.0000000E+00  0.1515152E-01 -0.1665950E-03  0.0000000E+00  0.1863679E-02
  0.5404040E+00  0.0000000E+00  0.1515152E-01 -0.2219804E-03  0.0000000E+00  0.1698736E-02
  0.5505050E+00  0.0000000E+00  0.1515152E-01 -0.2159676E-03  0.0000000E+00  0.1512419E-02
  0.5606061E+00  0.0000000E+00  0.1515152E-01 -0.1722399E-03  0.0000000E+00  0.1378066E-02
  0.5707071E+00  0.0000000E+00  0.1515152E-01 -0.1328196E-03  0.0000000E+00  0.1274434E-02
  0.5808081E+00  0.0000000E+00  0.1515152E-01 -0.1393666E-03  0.0000000E+00  0.1175542E-02
  0.5909091E+00  0.0000000E+00  0.1515152E-01 -0.1157639E-03  0.0000000E+00  0.1084887E-02
  0.6010101E+00  0.0000000E+00  0.1515152E-01 -0.1046920E-03  0.0000000E+00  0.1005306E-02
  0.6111111E+00  0.0000000E+00  0.1515152E-01 -0.9658150E-04  0.0000000E+00  0.9323342E-03
  0.6212121E+00  0.0000000E+00  0.1515152E-01 -0.9946413E-04  0.0000000E+00  0.8588328E-03
  0.6313131E+00  0.0000000E+00  0.1515152E-01 -0.8545545E-04  0.0000000E+00  0.7889500E-03
  0.6414142E+00  0.0000000E+00  0.1515152E-01 -0.7558103E-04  0.0000000E+00  0.7307680E-03
  0.6515151E+00  0.0000000E+00  0.1515152E-01 -0.6816003E-04  0.0000000E+00  0.6792890E-03
  0.6616161E+00  0.0000000E+00  0.1515152E-01 -0.6218153E-04  0.0000000E+00  0.6327010E-03
  0.6717172E+00  0.0000000E+00  0.1515152E-01 -0.5705391E-04  0.0000000E+00  0.5901566E-03
  0.6818182E+00  0.0000000E+00  0.1515152E-01 -0.5245821E-04  0.0000000E+00  0.5511817E-03
  0.6919192E+00  0.0000000E+00  0.1515152E-01 -0.4823875E-04  0.0000000E+00  0.5154601E-03
  0.7020202E+00  0.0000000E+00  0.1515152E-01 -0.4432781E-04  0.0000000E+00  0.4827396E-03
  0.7121212E+00  0.0000000E+00  0.1515152E-01 -0.4069895E-04  0.0000000E+00  0.4527927E-03
  0.7222222E+00  0.0000000E+00  0.1515152E-01 -0.3734112E-04  0.0000000E+00  0.4254016E-03
  0.7323232E+00  0.0000000E+00  0.1515152E-01 -0.3424589E-04  0.0000000E+00  0.4003561E-03
  0.7424242E+00  0.0000000E+00  0.1515152E-01 -0.3140253E-04  0.0000000E+00  0.3774553E-03
  0.7525253E+00  0.0000000E+00  0.1515152E-01 -0.2879695E-04  0.0000000E+00  0.3565103E-03
  0.7626263E+00  0.0000000E+00  0.1515152E-01 -0.2641242E-04  0.0000000E+00  0.3373466E-03
  0.7727273E+00  0.0000000E+00  0.1515152E-01 -0.2423071E-04  0.0000000E+00  0.3198046E-03
  0.7828283E+00  0.0000000E+00  0.1515152E-01 -0.2223318E-04  0.0000000E+00  0.3037403E-03
  0.7929293E+00  0.0000000E+00  0.1515152E-01 -0.2040155E-04  0.0000000E+00  0.2890246E-03
  0.8030303E+00  0.0000000E+00  0.1515152E-01 -0.1871848E-04  0.0000000E+00  0.2755423E-03
  0.8131313E+00  0.0000000E+00  0.1515152E-01 -0.1716783E-04  0.0000000E+00  0.2631912E-03
  0.8232324E+00  0.0000000E+00  0.1515152E-01 -0.1573480E-04  0.0000000E+00  0.2518808E-03
  0.8333333E+00  0.0000000E+00  0.1515152E-01 -0.1440598E-04  0.0000000E+00  0.2415312E-03
  0.8434343E+00  0.0000000E+00  0.1515152E-01 -0.1316925E-04  0.0000000E+00  0.2320719E-03
  0.8535354E+00  0.0000000E+00  0.1515152E-01 -0.1201375E-04  0.0000000E+00  0.2234410E-03
  0.8636364E+00  0.0000000E+00  0.1515152E-01 -0.1092976E-04  0.0000000E+00  0.2155840E-03
  0.8737374E+00  0.0000000E+00  0.1515152E-01 -0.9908581E-05  0.0000000E+00  0.2084531E-03
  0.8838384E+00  0.0000000E+00  0.1515152E-01 -0.8942413E-05  0.0000000E+00  0.2020065E-03
  0.8939394E+00  0.0000000E+00  0.1515152E-01 -0.8024279E-05  0.0000000E+00  0.1962076E-03
  0.9040404E+00  0.0000000E+00  0.1515152E-01 -0.7147909E-05  0.0000000E+00  0.1910248E-03
  0.9141414E+00  0.0000000E+00  0.1515152E-01 -0.6307650E-05  0.0000000E+00  0.1864304E-03
  0.9242424E+00  0.0000000E+00  0.1515152E-01 -0.5498386E-05  0.0000000E+00  0.1824008E-03
  0.9343435E+00  0.0000000E+00  0.1515152E-01 -0.4715457E-05  0.0000000E+00  0.1789158E-03
  0.9444444E+00  0.0000000E+00  0.1515152E-01 -0.3954596E-05  0.0000000E+00  0.1759584E-03
  0.9545454E+00  0.0000000E+00  0.1515152E-01 -0.3211860E-05  0.0000000E+00  0.1735145E-03
  0.9646465E+00  0.0000000E+00  0.1515152E-01 -0.2483579E-05  0.0000000E+00  0.1715725E-03
  0.9747475E+00  0.0000000E+00  0.1515152E-01 -0.1766299E-05  0.0000000E+00  0.1701236E-03
  0.9848485E+00  0.0000000E+00  0.1515152E-01 -0.1056739E-05  0.0000000E+00  0.1691612E-03
  0.9974747E+00  0.0000000E+00  0.1515152E-01 -0.3517446E-06  0.0000000E+00  0.1686810E-03
  0.5050505E-02  0.0000000E+00  0.2525252E-01  0.8006629E-06  0.0000000E+00  0.1955590E-03
  0.1515152E-01  0.0000000E+00  0.2525252E-01  0.2406498E-05  0.0000000E+00  0.1962141E-03
  0.2525252E-01  0.0000000E+00  0.2525252E-01  0.4025999E-05  0.0000000E+00  0.1975280E-03
  0.3535353E-01  0.0000000E+00  0.2525252E-01  0.5668605E-05  0.0000000E+00  0.1995080E-03
  0.4545455E-01  0.0000000E+00  0.2525252E-01  0.7344171E-05  0.0000000E+00  0.2021659E-03
  0.5555556E-01  0.0000000E+00  0.2525252E-01  0.9063120E-05  0.0000000E+00  0.2055173E-03
  0.6565657E-01  0.0000000E+00  0.2525252E-01  0.1083661E-04  0.0000000E+00  0.2095826E-03
  0.7575758E-01  0.0000000E+00  0.2525252E-01  0.1267674E-04  0.0000000E+00  0.2143870E-03
  0.8585858E-01  0.0000000E+00  0.2525252E-01  0.1459673E-04  0.0000000E+00  0.2199609E-03
  0.9595960E-01  0.0000000E+00  0.2525252E-01  0.1661119E-04  0.0000000E+00  0.2263406E-03
  0.1060606E+00  0.0000000E+00  0.2525252E-01  0.1873640E-04  0.0000000E+00  0.2335690E-03
  0.1161616E+00  0.0000000E+00  0.2525252E-01  0.2099059E-04  0.0000000E+00  0.2416962E-03
  0.1262626E+00  0.0000000E+00  0.2525252E-01  0.2339427E-04  0.0000000E+00  0.2507806E-03
  0.1363636E+00  0.0000000E+00  0.2525252E-01  0.2597060E-04  0.0000000E+00  0.2608897E-03
  0.1464646E+00  0.0000000E+00  0.2525252E-01  0.2874569E-04  0.0000000E+00  0.2721022E-03
  0.1565657E+00  0.0000000E+00  0.2525252E-01  0.3174892E-04  0.0000000E+00  0.2845085E-03
  0.1666667E+00  0.0000000E+00  0.2525252E-01  0.3501300E-04  0.0000000E+00  0.2982134E-03
  0.1767677E+00  0.0000000E+00  0.2525252E-01  0.3857375E-04  0.0000000E+00  0.3133379E-03
  0.1868687E+00  0.0000000E+00  0.2525252E-01  0.4246919E-04  0.0000000E+00  0.3300213E-03
  0.1969697E+00  0.0000000E+00  0.2525252E-01  0.4673723E-04  0.0000000E+00  0.3484240E-03
  0.2070707E+00  0.0000000E+00  0.2525252E-01  0.5141106E-04  0.0000000E+00  0.3687293E-03
  0.2171717E+00  0.0000000E+00  0.2525252E-01  0.5651042E-04  0.0000000E+00  0.3911439E-03
  0.2272727E+00  0.0000000E+00  0.2525252E-01  0.6202632E-04  0.0000000E+00  0.4158940E-03
  0.2373737E+00  0.0000000E+00  0.2525252E-01  0.6789714E-04  0.0000000E+00  0.4432096E-03
  0.2474747E+00  0.0000000E+00  0.2525252E-01  0.7397788E-04  0.0000000E+00  0.4732868E-03
  0.2575758E+00  0.0000000E+00  0.2525252E-01  0.8002136E-04  0.0000000E+00  0.5062110E-03
  0.2676768E+00  0.0000000E+00  0.2525252E-01  0.8573146E-04  0.0000000E+00  0.5418501E-03
  0.2777778E+00  0.0000000E+00  0.2525252E-01  0.9100573E-04  0.0000000E+00  0.5798286E-03
  0.2878788E+00  0.0000000E+00  0.2525252E-01  0.9635433E-04  0.0000000E+00  0.6198384E-03
  0.2979798E+00  0.0000000E+00  0.2525252E-01  0.1025300E-03  0.0000000E+00  0.6619685E-03
  0.3080808E+00  0.0000000E+00  0.2525252E-01  0.1102117E-03  0.0000000E+00  0.7066015E-03
  0.3181818E+00  0.0000000E+00  0.2525252E-01  0.1204833E-03  0.0000000E+00  0.7544161E-03
  0.3282828E+00  0.0000000E+00  0.2525252E-01  0.1354050E-03  0.0000000E+00  0.8072424E-03
  0.3383838E+00  0.0000000E+00  0.2525252E-01  0.1592081E-03  0.0000000E+00  0.8718478E-03
  0.3484848E+00  0.0000000E+00  0.2525252E-01  0.1741017E-03  0.0000000E+00  0.9474648E-03
  0.3585859E+00  0.0000000E+00  0.2525252E-01  0.1808971E-03  0.0000000E+00  0.1021214E-02
  0.3686869E+00  0.0000000E+00  0.2525252E-01  0.1939993E-03  0.0000000E+00  0.1087493E-02
  0.3787879E+00  0.0000000E+00  0.2525252E-01  0.1936388E-03  0.0000000E+00  0.1141118E-02
  0.3888889E+00  0.0000000E+00  0.2525252E-01  0.2294308E-03  0.0000000E+00  0.1195171E-02
  0.3989899E+00  0.0000000E+00  0.2525252E-01  0.2659322E-03  0.0000000E+00  0.1255640E-02
  0.4090909E+00  0.0000000E+00  0.2525252E-01  0.2941922E-03  0.0000000E+00  0.1332907E-02
  0.4191919E+00  0.0000000E+00  0.2525252E-01  0.3167966E-03  0.0000000E+00  0.1430448E-02
  0.4292929E+00  0.0000000E+00  0.2525252E-01  0.3617244E-03  0.0000000E+00  0.1556015E-02
  0.4393939E+00  0.0000000E+00  0.2525252E-01  0.4429794E-03  0.0000000E+00  0.1714955E-02
  0.4494950E+00  0.0000000E+00  0.2525252E-01  0.5346693E-03  0.0000000E+00  0.1855623E-02
  0.4595959E+00  0.0000000E+00  0.2525252E-01  0.5753508E-03  0.0000000E+00  0.2004700E-02
  0.4696970E+00  0.0000000E+00  0.2525252E-01  0.4217687E-03  0.0000000E+00  0.2352722E-02
  0.4797980E+00  0.0000000E+00  0.2525252E-01 -0.3653175E-03  0.0000000E+00  0.2451453E-02
  0.4898990E+00  0.0000000E+00  0.2525252E-01 -0.6092056E-03  0.0000000E+00  0.2219598E-02
  0.5000000E+00  0.0000000E+00  0.2525252E-01 -0.4268593E-03  0.0000000E+00  0.2102917E-02
  0.5101010E+00  0.0000000E+00  0.2525252E-01 -0.3454288E-03  0.0000000E+00  0.2018318E-02
  0.5202020E+00  0.0000000E+00  0.2525252E-01 -0.2752640E-03  0.0000000E+00  0.1933466E-02
  0.5303030E+00  0.0000000E+00  0.2525252E-01 -0.2850936E-03  0.0000000E+00  0.1794300E-02
  0.5404040E+00  0.0000000E+00  0.2525252E-01 -0.3961193E-03  0.0000000E+00  0.1590193E-02
  0.5505050E+00  0.0000000E+00  0.2525252E-01 -0.3284559E-03  0.0000000E+00  0.1425074E-02
  0.5606061E+00  0.0000000E+00  0.2525252E-01 -0.2527301E-03  0.0000000E+00  0.1325980E-02
  0.5707071E+00  0.0000000E+00  0.2525252E-01 -0.2255184E-03  0.0000000E+00  0.1223617E-02
  0.5808081E+00  0.0000000E+00  0.2525252E-01 -0.2100545E-03  0.0000000E+00  0.1130921E-02
  0.5909091E+00  0.0000000E+00  0.2525252E-01 -0.1802489E-03  0.0000000E+00  0.1064802E-02
  0.6010101E+00  0.0000000E+00  0.2525252E-01 -0.1709290E-03  0.0000000E+00  0.9945978E-03
  0.6111111E+00  0.0000000E+00  0.2525252E-01 -0.1718644E-03  0.0000000E+00  0.9076780E-03
  0.6212121E+00  0.0000000E+00  0.2525252E-01 -0.1600673E-03  0.0000000E+00  0.8292534E-03
  0.6313131E+00  0.0000000E+00  0.2525252E-01 -0.1383578E-03  0.0000000E+00  0.7732257E-03
  0.6414142E+00  0.0000000E+00  0.2525252E-01 -0.1233708E-03  0.0000000E+00  0.7205166E-03
  0.6515151E+00  0.0000000E+00  0.2525252E-01 -0.1120087E-03  0.0000000E+00  0.6717396E-03
  0.6616161E+00  0.0000000E+00  0.2525252E-01 -0.1026645E-03  0.0000000E+00  0.6266215E-03
  0.6717172E+00  0.0000000E+00  0.2525252E-01 -0.9446484E-04  0.0000000E+00  0.5849261E-03
  0.6818182E+00  0.0000000E+00  0.2525252E-01 -0.8698169E-04  0.0000000E+00  0.5464941E-03
  0.6919192E+00  0.0000000E+00  0.2525252E-01 -0.8003131E-04  0.0000000E+00  0.5111767E-03
  0.7020202E+00  0.0000000E+00  0.2525252E-01 -0.7354904E-04  0.0000000E+00  0.4788046E-03
  0.7121212E+00  0.0000000E+00  0.2525252E-01 -0.6751842E-04  0.0000000E+00  0.4491848E-03
  0.7222222E+00  0.0000000E+00  0.2525252E-01 -0.6193490E-04  0.0000000E+00  0.4221101E-03
  0.7323232E+00  0.0000000E+00  0.2525252E-01 -0.5679024E-04  0.0000000E+00  0.3973695E-03
  0.7424242E+00  0.0000000E+00  0.2525252E-01 -0.5206799E-04  0.0000000E+00  0.3747581E-03
  0.7525253E+00  0.0000000E+00  0.2525252E-01 -0.4774428E-04  0.0000000E+00  0.3540832E-03
  0.7626263E+00  0.0000000E+00  0.2525252E-01 -0.4379024E-04  0.0000000E+00  0.3351677E-03
  0.7727273E+00  0.0000000E+00  0.2525252E-01 -0.4017446E-04  0.0000000E+00  0.3178509E-03
  0.7828283E+00  0.0000000E+00  0.2525252E-01 -0.3686512E-04  0.0000000E+00  0.3019891E-03
  0.7929293E+00  0.0000000E+00  0.2525252E-01 -0.3383126E-04  0.0000000E+00  0.2874539E-03
  0.8030303E+00  0.0000000E+00  0.2525252E-01 -0.3104368E-04  0.0000000E+00  0.2741318E-03
  0.8131313E+00  0.0000000E+00  0.2525252E-01 -0.2847537E-04  0.0000000E+00  0.2619222E-03
  0.8232324E+00  0.0000000E+00  0.2525252E-01 -0.2610166E-04  0.0000000E+00  0.2507365E-03
  0.8333333E+00  0.0000000E+00  0.2525252E-01 -0.2390023E-04  0.0000000E+00  0.2404963E-03
  0.8434343E+00  0.0000000E+00  0.2525252E-01 -0.2185101E-04  0.0000000E+00  0.2311330E-03
  0.8535354E+00  0.0000000E+00  0.2525252E-01 -0.1993601E-04  0.0000000E+00  0.2225860E-03
  0.8636364E+00  0.0000000E+00  0.2525252E-01 -0.1813914E-04  0.0000000E+00  0.2148022E-03
  0.8737374E+00  0.0000000E+00  0.2525252E-01 -0.1644599E-04  0.0000000E+00  0.2077351E-03
  0.8838384E+00  0.0000000E+00  0.2525252E-01 -0.1484372E-04  0.0000000E+00  0.2013438E-03
  0.8939394E+00  0.0000000E+00  0.2525252E-01 -0.1332077E-04  0.0000000E+00  0.1955928E-03
  0.9040404E+00  0.0000000E+00  0.2525252E-01 -0.1186681E-04  0.0000000E+00  0.1904512E-03
  0.9141414E+00  0.0000000E+00  0.2525252E-01 -0.1047250E-04  0.0000000E+00  0.1858921E-03
  0.9242424E+00  0.0000000E+00  0.2525252E-01 -0.9129383E-05  0.0000000E+00  0.1818924E-03
  0.9343435E+00  0.0000000E+00  0.2525252E-01 -0.7829784E-05  0.0000000E+00  0.1784326E-03
  0.9444444E+00  0.0000000E+00  0.2525252E-01 -0.6566652E-05  0.0000000E+00  0.1754959E-03
  0.9545454E+00  0.0000000E+00  0.2525252E-01 -0.5333480E-05  0.0000000E+00  0.1730687E-03
  0.9646465E+00  0.0000000E+00  0.2525252E-01 -0.4124208E-05  0.0000000E+00  0.1711397E-03
  0.9747475E+00  0.0000000E+00  0.2525252E-01 -0.2933136E-05  0.0000000E+00  0.1697004E-03
  0.9848485E+00  0.0000000E+00  0.2525252E-01 -0.1754842E-05  0.0000000E+00  0.1687442E-03
  0.9974747E+00  0.0000000E+00  0.2525252E-01 -0.5841143E-06  0.0000000E+00  0.1682671E-03
  0.5050505E-02  0.0000000E+00  0.3535353E-01  0.1114496E-05  0.0000000E+00  0.1945723E-03
  0.1515152E-01  0.0000000E+00  0.3535353E-01  0.3349738E-05  0.0000000E+00  0.1952193E-03
  0.2525252E-01  0.0000000E+00  0.3535353E-01  0.5603895E-05  0.0000000E+00  0.1965166E-03
  0.3535353E-01  0.0000000E+00  0.3535353E-01  0.7890004E-05  0.0000000E+00  0.1984713E-03
  0.4545455E-01  0.0000000E+00  0.3535353E-01  0.1022166E-04  0.0000000E+00  0.2010946E-03
  0.5555556E-01  0.0000000E+00  0.3535353E-01  0.1261324E-04  0.0000000E+00  0.2044014E-03
  0.6565657E-01  0.0000000E+00  0.3535353E-01  0.1508011E-04  0.0000000E+00  0.2084113E-03
  0.7575758E-01  0.0000000E+00  0.3535353E-01  0.1763892E-04  0.0000000E+00  0.2131482E-03
  0.8585858E-01  0.0000000E+00  0.3535353E-01  0.2030788E-04  0.0000000E+00  0.2186413E-03
  0.9595960E-01  0.0000000E+00  0.3535353E-01  0.2310709E-04  0.0000000E+00  0.2249252E-03
  0.1060606E+00  0.0000000E+00  0.3535353E-01  0.2605895E-04  0.0000000E+00  0.2320408E-03
  0.1161616E+00  0.0000000E+00  0.3535353E-01  0.2918855E-04  0.0000000E+00  0.2400359E-03
  0.1262626E+00  0.0000000E+00  0.3535353E-01  0.3252418E-04  0.0000000E+00  0.2489659E-03
  0.1363636E+00  0.0000000E+00  0.3535353E-01  0.3609782E-04  0.0000000E+00  0.2588955E-03
  0.1464646E+00  0.0000000E+00  0.3535353E-01  0.3994572E-04  0.0000000E+00  0.2698994E-03
  0.1565657E+00  0.0000000E+00  0.3535353E-01  0.4410886E-04  0.0000000E+00  0.2820644E-03
  0.1666667E+00  0.0000000E+00  0.3535353E-01  0.4863346E-04  0.0000000E+00  0.2954911E-03
  0.1767677E+00  0.0000000E+00  0.3535353E-01  0.5357101E-04  0.0000000E+00  0.3102968E-03
  0.1868687E+00  0.0000000E+00  0.3535353E-01  0.5897788E-04  0.0000000E+00  0.3266187E-03
  0.1969697E+00  0.0000000E+00  0.3535353E-01  0.6491347E-04  0.0000000E+00  0.3446184E-03
  0.2070707E+00  0.0000000E+00  0.3535353E-01  0.7143581E-04  0.0000000E+00  0.3644878E-03
  0.2171717E+00  0.0000000E+00  0.3535353E-01  0.7859200E-04  0.0000000E+00  0.3864557E-03
  0.2272727E+00  0.0000000E+00  0.3535353E-01  0.8639844E-04  0.0000000E+00  0.4107952E-03
  0.2373737E+00  0.0000000E+00  0.3535353E-01  0.9480238E-04  0.0000000E+00  0.4378210E-03
  0.2474747E+00  0.0000000E+00  0.3535353E-01  0.1036129E-03  0.0000000E+00  0.4678559E-03
  0.2575758E+00  0.0000000E+00  0.3535353E-01  0.1124015E-03  0.0000000E+00  0.5011083E-03
  0.2676768E+00  0.0000000E+00  0.3535353E-01  0.1204549E-03  0.0000000E+00  0.5373837E-03
  0.2777778E+00  0.0000000E+00  0.3535353E-01  0.1271677E-03  0.0000000E+00  0.5757556E-03
  0.2878788E+00  0.0000000E+00  0.3535353E-01  0.1336653E-03  0.0000000E+00  0.6153359E-03
  0.2979798E+00  0.0000000E+00  0.3535353E-01  0.1413489E-03  0.0000000E+00  0.6561791E-03