title = "dataset water"
variables = "time", "water mass", "water filled volume", "gas filled volume" 
zone t = "system mass -  variably saturated flow", f=point
  0.0000E+00  1.8147E-01  1.8147E-01  2.4653E-01
  1.0000E-10  1.8147E-01  1.8147E-01  2.4653E-01
  6.0000E-10  1.8147E-01  1.8147E-01  2.4653E-01
  3.1000E-09  1.8147E-01  1.8147E-01  2.4653E-01
  1.5600E-08  1.8147E-01  1.8147E-01  2.4653E-01
  7.8100E-08  1.8147E-01  1.8147E-01  2.4653E-01
  3.9060E-07  1.8147E-01  1.8147E-01  2.4653E-01
  1.9531E-06  1.8148E-01  1.8148E-01  2.4652E-01
  9.7656E-06  1.8148E-01  1.8148E-01  2.4652E-01
  4.8828E-05  1.8148E-01  1.8148E-01  2.4652E-01
  2.4414E-04  1.8149E-01  1.8149E-01  2.4651E-01
  1.2207E-03  1.8156E-01  1.8156E-01  2.4644E-01
  6.1035E-03  1.8174E-01  1.8174E-01  2.4626E-01
  2.3462E-02  1.8207E-01  1.8207E-01  2.4593E-01
  8.7359E-02  1.8269E-01  1.8269E-01  2.4531E-01
  3.0004E-01  1.8379E-01  1.8379E-01  2.4421E-01
  1.0000E+00  1.8573E-01  1.8573E-01  2.4227E-01
  2.0000E+00  1.8369E-01  1.8369E-01  2.4431E-01
  3.0000E+00  1.8313E-01  1.8313E-01  2.4487E-01
  4.0000E+00  1.8283E-01  1.8283E-01  2.4517E-01
  5.0000E+00  1.8264E-01  1.8264E-01  2.4536E-01
  6.0000E+00  1.8251E-01  1.8251E-01  2.4549E-01
  7.0000E+00  1.8241E-01  1.8241E-01  2.4559E-01
  8.0000E+00  1.8231E-01  1.8231E-01  2.4569E-01
  9.0000E+00  1.8223E-01  1.8223E-01  2.4577E-01
  1.0000E+01  1.8216E-01  1.8216E-01  2.4584E-01
  1.1000E+01  1.8209E-01  1.8209E-01  2.4591E-01
  1.2000E+01  1.8202E-01  1.8202E-01  2.4598E-01
  1.3000E+01  1.8195E-01  1.8195E-01  2.4605E-01
  1.4000E+01  1.8187E-01  1.8187E-01  2.4613E-01
  1.5000E+01  1.8178E-01  1.8178E-01  2.4622E-01
  1.6000E+01  1.8168E-01  1.8168E-01  2.4632E-01
  1.7000E+01  1.8157E-01  1.8157E-01  2.4643E-01
  1.8000E+01  1.8142E-01  1.8142E-01  2.4658E-01
  1.9000E+01  1.8126E-01  1.8126E-01  2.4674E-01
  2.0000E+01  1.8106E-01  1.8106E-01  2.4694E-01
  2.1000E+01  1.8085E-01  1.8085E-01  2.4715E-01
  2.2000E+01  1.8055E-01  1.8055E-01  2.4745E-01
  2.3000E+01  1.8018E-01  1.8018E-01  2.4782E-01
  2.4000E+01  1.7970E-01  1.7970E-01  2.4830E-01
  2.5000E+01  1.7918E-01  1.7918E-01  2.4882E-01
  2.6000E+01  1.7861E-01  1.7861E-01  2.4939E-01
  2.7000E+01  1.7789E-01  1.7789E-01  2.5011E-01
  2.8000E+01  1.7690E-01  1.7690E-01  2.5110E-01
  2.9000E+01  1.7613E-01  1.7613E-01  2.5187E-01
  3.0000E+01  1.7495E-01  1.7495E-01  2.5305E-01
  3.1000E+01  1.7385E-01  1.7385E-01  2.5415E-01
  3.2000E+01  1.7243E-01  1.7243E-01  2.5557E-01
  3.3000E+01  1.7099E-01  1.7099E-01  2.5701E-01
  3.4000E+01  1.6936E-01  1.6936E-01  2.5864E-01
  3.5000E+01  1.6762E-01  1.6762E-01  2.6038E-01
  3.6000E+01  1.6565E-01  1.6565E-01  2.6235E-01
  3.7000E+01  1.6399E-01  1.6399E-01  2.6401E-01
  3.8000E+01  1.6182E-01  1.6182E-01  2.6618E-01
  3.9000E+01  1.5978E-01  1.5978E-01  2.6822E-01
  4.0000E+01  1.5805E-01  1.5805E-01  2.6995E-01
  4.1000E+01  1.5589E-01  1.5589E-01  2.7211E-01
  4.2000E+01  1.5365E-01  1.5365E-01  2.7435E-01
  4.3000E+01  1.5180E-01  1.5180E-01  2.7620E-01
  4.4000E+01  1.4964E-01  1.4964E-01  2.7836E-01
  4.5000E+01  1.4745E-01  1.4745E-01  2.8055E-01
  4.6000E+01  1.4560E-01  1.4560E-01  2.8240E-01
  4.6500E+01  1.4459E-01  1.4459E-01  2.8341E-01
  4.7000E+01  1.4367E-01  1.4367E-01  2.8433E-01
  4.8000E+01  1.4185E-01  1.4185E-01  2.8615E-01
  4.9000E+01  1.4013E-01  1.4013E-01  2.8787E-01
  5.0000E+01  1.3850E-01  1.3850E-01  2.8950E-01
  5.1000E+01  1.3693E-01  1.3693E-01  2.9107E-01
  5.2000E+01  1.3548E-01  1.3548E-01  2.9252E-01
  5.3000E+01  1.3428E-01  1.3428E-01  2.9372E-01
  5.3500E+01  1.3344E-01  1.3344E-01  2.9456E-01
  5.4000E+01  1.3266E-01  1.3266E-01  2.9534E-01
  5.4500E+01  1.3176E-01  1.3176E-01  2.9624E-01
  5.5000E+01  1.3094E-01  1.3094E-01  2.9706E-01
  5.6000E+01  1.2959E-01  1.2959E-01  2.9841E-01
  5.6500E+01  1.2873E-01  1.2873E-01  2.9927E-01
  5.7000E+01  1.2796E-01  1.2796E-01  3.0004E-01
  5.7500E+01  1.2726E-01  1.2726E-01  3.0074E-01
  5.8000E+01  1.2663E-01  1.2663E-01  3.0137E-01
  5.8500E+01  1.2614E-01  1.2614E-01  3.0186E-01
  5.9000E+01  1.2567E-01  1.2567E-01  3.0233E-01
  5.9500E+01  1.2490E-01  1.2490E-01  3.0310E-01
  6.0000E+01  1.2422E-01  1.2422E-01  3.0378E-01
