title = "dataset water"
variables = "x", "y", "z", "h_w", "p_w", "s_w", "theta_w", "transp", "evap", "transp2", "transp_tot"
zone t = "Flow variables, solution time =  5.200E+01 days        " i =  100, j =  100, k =    1,  f=point
  0.0000000E+00  0.0000000E+00  0.0000000E+00 -0.1000000E+02 -0.1000000E+02  0.4298033E+00  0.1839558E+00  0.0000000E+00  0.0000000E+00  0.0000000E+00  0.0000000E+00
  0.1010101E-01  0.0000000E+00  0.0000000E+00 -0.1000000E+02 -0.1000000E+02  0.4298033E+00  0.1839558E+00  0.0000000E+00  0.0000000E+00  0.0000000E+00  0.0000000E+00
  0.2020202E-01  0.0000000E+00  0.0000000E+00 -0.1000000E+02 -0.1000000E+02  0.4298033E+00  0.1839558E+00  0.0000000E+00  0.0000000E+00  0.0000000E+00  0.0000000E+00
  0.3030303E-01  0.0000000E+00  0.0000000E+00 -0.1000000E+02 -0.1000000E+02  0.4298033E+00  0.1839558E+00  0.0000000E+00  0.0000000E+00  0.0000000E+00  0.0000000E+00
  0.4040404E-01  0.0000000E+00  0.0000000E+00 -0.1000000E+02 -0.1000000E+02  0.4298033E+00  0.1839558E+00  0.0000000E+00  0.0000000E+00  0.0000000E+00  0.0000000E+00
  0.5050505E-01  0.0000000E+00  0.0000000E+00 -0.1000000E+02 -0.1000000E+02  0.4298033E+00  0.1839558E+00  0.0000000E+00  0.0000000E+00  0.0000000E+00  0.0000000E+00
  0.6060606E-01  0.0000000E+00  0.0000000E+00 -0.1000000E+02 -0.1000000E+02  0.4298033E+00  0.1839558E+00  0.0000000E+00  0.0000000E+00  0.0000000E+00  0.0000000E+00
  0.7070707E-01  0.0000000E+00  0.0000000E+00 -0.1000000E+02 -0.1000000E+02  0.4298033E+00  0.1839558E+00  0.0000000E+00  0.0000000E+00  0.0000000E+00  0.0000000E+00
  0.8080808E-01  0.0000000E+00  0.0000000E+00 -0.1000000E+02 -0.1000000E+02  0.4298033E+00  0.1839558E+00  0.0000000E+00  0.0000000E+00  0.0000000E+00  0.0000000E+00
  0.9090909E-01  0.0000000E+00  0.0000000E+00 -0.1000000E+02 -0.1000000E+02  0.4298033E+00  0.1839558E+00  0.0000000E+00  0.0000000E+00  0.0000000E+00  0.0000000E+00
  0.1010101E+00  0.0000000E+00  0.0000000E+00 -0.1000000E+02 -0.1000000E+02  0.4298033E+00  0.1839558E+00  0.0000000E+00  0.0000000E+00  0.0000000E+00  0.0000000E+00
  0.1111111E+00  0.0000000E+00  0.0000000E+00 -0.1000000E+02 -0.1000000E+02  0.4298033E+00  0.1839558E+00  0.0000000E+00  0.0000000E+00  0.0000000E+00  0.0000000E+00
  0.1212121E+00  0.0000000E+00  0.0000000E+00 -0.1000000E+02 -0.1000000E+02  0.4298033E+00  0.1839558E+00  0.0000000E+00  0.0000000E+00  0.0000000E+00  0.0000000E+00
  0.1313131E+00  0.0000000E+00  0.0000000E+00 -0.1000000E+02 -0.1000000E+02  0.4298033E+00  0.1839558E+00  0.0000000E+00  0.0000000E+00  0.0000000E+00  0.0000000E+00
  0.1414141E+00  0.0000000E+00  0.0000000E+00 -0.1000000E+02 -0.1000000E+02  0.4298033E+00  0.1839558E+00  0.0000000E+00  0.0000000E+00  0.0000000E+00  0.0000000E+00
  0.1515152E+00  0.0000000E+00  0.0000000E+00 -0.1000000E+02 -0.1000000E+02  0.4298033E+00  0.1839558E+00  0.0000000E+00  0.0000000E+00  0.0000000E+00  0.0000000E+00
  0.1616162E+00  0.0000000E+00  0.0000000E+00 -0.1000000E+02 -0.1000000E+02  0.4298033E+00  0.1839558E+00  0.0000000E+00  0.0000000E+00  0.0000000E+00  0.0000000E+00
  0.1717172E+00  0.0000000E+00  0.0000000E+00 -0.1000000E+02 -0.1000000E+02  0.4298033E+00  0.1839558E+00  0.0000000E+00  0.0000000E+00  0.0000000E+00  0.0000000E+00
  0.1818182E+00  0.0000000E+00  0.0000000E+00 -0.1000000E+02 -0.1000000E+02  0.4298033E+00  0.1839558E+00  0.0000000E+00  0.0000000E+00  0.0000000E+00  0.0000000E+00
  0.1919192E+00  0.0000000E+00  0.0000000E+00 -0.1000000E+02 -0.1000000E+02  0.4298033E+00  0.1839558E+00  0.0000000E+00  0.0000000E+00  0.0000000E+00  0.0000000E+00
  0.2020202E+00  0.0000000E+00  0.0000000E+00 -0.1000000E+02 -0.1000000E+02  0.4298033E+00  0.1839558E+00  0.0000000E+00  0.0000000E+00  0.0000000E+00  0.0000000E+00
  0.2121212E+00  0.0000000E+00  0.0000000E+00 -0.1000000E+02 -0.1000000E+02  0.4298033E+00  0.1839558E+00  0.0000000E+00  0.0000000E+00  0.0000000E+00  0.0000000E+00
  0.2222222E+00  0.0000000E+00  0.0000000E+00 -0.1000000E+02 -0.1000000E+02  0.4298033E+00  0.1839558E+00  0.0000000E+00  0.0000000E+00  0.0000000E+00  0.0000000E+00
  0.2323232E+00  0.0000000E+00  0.0000000E+00 -0.1000000E+02 -0.1000000E+02  0.4298033E+00  0.1839558E+00  0.0000000E+00  0.0000000E+00  0.0000000E+00  0.0000000E+00
  0.2424242E+00  0.0000000E+00  0.0000000E+00 -0.1000000E+02 -0.1000000E+02  0.4298033E+00  0.1839558E+00  0.0000000E+00  0.0000000E+00  0.0000000E+00  0.0000000E+00
  0.2525253E+00  0.0000000E+00  0.0000000E+00 -0.1000000E+02 -0.1000000E+02  0.4298033E+00  0.1839558E+00  0.0000000E+00  0.0000000E+00  0.0000000E+00  0.0000000E+00
  0.2626263E+00  0.0000000E+00  0.0000000E+00 -0.1000000E+02 -0.1000000E+02  0.4298033E+00  0.1839558E+00  0.0000000E+00  0.0000000E+00  0.0000000E+00  0.0000000E+00
  0.2727273E+00  0.0000000E+00  0.0000000E+00 -0.1000000E+02 -0.1000000E+02  0.4298033E+00  0.1839558E+00  0.0000000E+00  0.0000000E+00  0.0000000E+00  0.0000000E+00
  0.2828283E+00  0.0000000E+00  0.0000000E+00 -0.1000000E+02 -0.1000000E+02  0.4298033E+00  0.1839558E+00  0.0000000E+00  0.0000000E+00  0.0000000E+00  0.0000000E+00
  0.2929293E+00  0.0000000E+00  0.0000000E+00 -0.1000000E+02 -0.1000000E+02  0.4298033E+00  0.1839558E+00  0.0000000E+00  0.0000000E+00  0.0000000E+00  0.0000000E+00
  0.3030303E+00  0.0000000E+00  0.0000000E+00 -0.1000000E+02 -0.1000000E+02  0.4298033E+00  0.1839558E+00  0.0000000E+00  0.0000000E+00  0.0000000E+00  0.0000000E+00
  0.3131313E+00  0.0000000E+00  0.0000000E+00 -0.1000000E+02 -0.1000000E+02  0.4298033E+00  0.1839558E+00  0.0000000E+00  0.0000000E+00  0.0000000E+00  0.0000000E+00
  0.3232323E+00  0.0000000E+00  0.0000000E+00 -0.1000000E+02 -0.1000000E+02  0.4298033E+00  0.1839558E+00  0.0000000E+00  0.0000000E+00  0.0000000E+00  0.0000000E+00
  0.3333333E+00  0.0000000E+00  0.0000000E+00 -0.1000000E+02 -0.1000000E+02  0.4298033E+00  0.1839558E+00  0.0000000E+00  0.0000000E+00  0.0000000E+00  0.0000000E+00
  0.3434343E+00  0.0000000E+00  0.0000000E+00 -0.1000000E+02 -0.1000000E+02  0.4298033E+00  0.1839558E+00  0.0000000E+00  0.0000000E+00  0.0000000E+00  0.0000000E+00
  0.3535354E+00  0.0000000E+00  0.0000000E+00 -0.1000000E+02 -0.1000000E+02  0.4298033E+00  0.1839558E+00  0.0000000E+00  0.0000000E+00  0.4172379E-11  0.4172379E-11
  0.3636364E+00  0.0000000E+00  0.0000000E+00 -0.1000000E+02 -0.1000000E+02  0.4298033E+00  0.1839558E+00  0.0000000E+00  0.0000000E+00  0.2097305E-10  0.2097305E-10
  0.3737374E+00  0.0000000E+00  0.0000000E+00 -0.1000000E+02 -0.1000000E+02  0.4298033E+00  0.1839558E+00  0.0000000E+00  0.0000000E+00  0.8344766E-11  0.8344766E-11
  0.3838384E+00  0.0000000E+00  0.0000000E+00 -0.1000000E+02 -0.1000000E+02  0.4298033E+00  0.1839558E+00  0.0000000E+00  0.0000000E+00  0.2443106E-10  0.2443106E-10
  0.3939394E+00  0.0000000E+00  0.0000000E+00 -0.1000000E+02 -0.1000000E+02  0.4298033E+00  0.1839558E+00  0.0000000E+00  0.0000000E+00  0.2045976E-10  0.2045976E-10
  0.4040404E+00  0.0000000E+00  0.0000000E+00 -0.1000000E+02 -0.1000000E+02  0.4298033E+00  0.1839558E+00  0.0000000E+00  0.0000000E+00  0.4172383E-11  0.4172383E-11
  0.4141414E+00  0.0000000E+00  0.0000000E+00 -0.1000000E+02 -0.1000000E+02  0.4298033E+00  0.1839558E+00  0.0000000E+00  0.0000000E+00  0.0000000E+00  0.0000000E+00
  0.4242424E+00  0.0000000E+00  0.0000000E+00 -0.1000000E+02 -0.1000000E+02  0.4298033E+00  0.1839558E+00  0.0000000E+00  0.0000000E+00  0.0000000E+00  0.0000000E+00
  0.4343434E+00  0.0000000E+00  0.0000000E+00 -0.1000000E+02 -0.1000000E+02  0.4298033E+00  0.1839558E+00  0.0000000E+00  0.0000000E+00  0.0000000E+00  0.0000000E+00
  0.4444444E+00  0.0000000E+00  0.0000000E+00 -0.1000000E+02 -0.1000000E+02  0.4298033E+00  0.1839558E+00  0.0000000E+00  0.0000000E+00  0.0000000E+00  0.0000000E+00
  0.4545455E+00  0.0000000E+00  0.0000000E+00 -0.1000000E+02 -0.1000000E+02  0.4298033E+00  0.1839558E+00  0.1193399E-10  0.0000000E+00  0.7184316E-11  0.1911831E-10
  0.4646465E+00  0.0000000E+00  0.0000000E+00 -0.1000000E+02 -0.1000000E+02  0.4298033E+00  0.1839558E+00  0.9411397E-11  0.0000000E+00  0.9397095E-10  0.1033823E-09
  0.4747475E+00  0.0000000E+00  0.0000000E+00 -0.1000000E+02 -0.1000000E+02  0.4298033E+00  0.1839558E+00  0.5722917E-11  0.0000000E+00  0.2906892E-10  0.3479183E-10
  0.4848485E+00  0.0000000E+00  0.0000000E+00 -0.1000000E+02 -0.1000000E+02  0.4298033E+00  0.1839558E+00  0.1452108E-10  0.0000000E+00  0.1496576E-10  0.2948684E-10
  0.4949495E+00  0.0000000E+00  0.0000000E+00 -0.1000000E+02 -0.1000000E+02  0.4298033E+00  0.1839558E+00  0.0000000E+00  0.0000000E+00  0.2356204E-10  0.2356204E-10
  0.5050505E+00  0.0000000E+00  0.0000000E+00 -0.1000000E+02 -0.1000000E+02  0.4298033E+00  0.1839558E+00  0.0000000E+00  0.0000000E+00  0.0000000E+00  0.0000000E+00
  0.5151515E+00  0.0000000E+00  0.0000000E+00 -0.1000000E+02 -0.1000000E+02  0.4298033E+00  0.1839558E+00  0.0000000E+00  0.0000000E+00  0.0000000E+00  0.0000000E+00
  0.5252525E+00  0.0000000E+00  0.0000000E+00 -0.1000000E+02 -0.1000000E+02  0.4298033E+00  0.1839558E+00  0.0000000E+00  0.0000000E+00  0.4378631E-11  0.4378631E-11
  0.5353535E+00  0.0000000E+00  0.0000000E+00 -0.1000000E+02 -0.1000000E+02  0.4298033E+00  0.1839558E+00  0.0000000E+00  0.0000000E+00  0.1313585E-10  0.1313585E-10
  0.5454545E+00  0.0000000E+00  0.0000000E+00 -0.1000000E+02 -0.1000000E+02  0.4298033E+00  0.1839558E+00  0.0000000E+00  0.0000000E+00  0.0000000E+00  0.0000000E+00
  0.5555556E+00  0.0000000E+00  0.0000000E+00 -0.1000000E+02 -0.1000000E+02  0.4298033E+00  0.1839558E+00  0.0000000E+00  0.0000000E+00  0.8195557E-11  0.8195557E-11
  0.5656566E+00  0.0000000E+00  0.0000000E+00 -0.1000000E+02 -0.1000000E+02  0.4298033E+00  0.1839558E+00  0.0000000E+00  0.0000000E+00  0.0000000E+00  0.0000000E+00
  0.5757576E+00  0.0000000E+00  0.0000000E+00 -0.1000000E+02 -0.1000000E+02  0.4298033E+00  0.1839558E+00  0.0000000E+00  0.0000000E+00  0.0000000E+00  0.0000000E+00
  0.5858586E+00  0.0000000E+00  0.0000000E+00 -0.1000000E+02 -0.1000000E+02  0.4298033E+00  0.1839558E+00  0.0000000E+00  0.0000000E+00  0.0000000E+00  0.0000000E+00
  0.5959596E+00  0.0000000E+00  0.0000000E+00 -0.1000000E+02 -0.1000000E+02  0.4298033E+00  0.1839558E+00  0.0000000E+00  0.0000000E+00  0.0000000E+00  0.0000000E+00
  0.6060606E+00  0.0000000E+00  0.0000000E+00 -0.1000000E+02 -0.1000000E+02  0.4298033E+00  0.1839558E+00  0.0000000E+00  0.0000000E+00  0.0000000E+00  0.0000000E+00
  0.6161616E+00  0.0000000E+00  0.0000000E+00 -0.1000000E+02 -0.1000000E+02  0.4298033E+00  0.1839558E+00  0.0000000E+00  0.0000000E+00  0.0000000E+00  0.0000000E+00
  0.6262626E+00  0.0000000E+00  0.0000000E+00 -0.1000000E+02 -0.1000000E+02  0.4298033E+00  0.1839558E+00  0.0000000E+00  0.0000000E+00  0.0000000E+00  0.0000000E+00
  0.6363636E+00  0.0000000E+00  0.0000000E+00 -0.1000000E+02 -0.1000000E+02  0.4298033E+00  0.1839558E+00  0.0000000E+00  0.0000000E+00  0.0000000E+00  0.0000000E+00
  0.6464646E+00  0.0000000E+00  0.0000000E+00 -0.1000000E+02 -0.1000000E+02  0.4298033E+00  0.1839558E+00  0.0000000E+00  0.0000000E+00  0.0000000E+00  0.0000000E+00
  0.6565657E+00  0.0000000E+00  0.0000000E+00 -0.1000000E+02 -0.1000000E+02  0.4298033E+00  0.1839558E+00  0.0000000E+00  0.0000000E+00  0.0000000E+00  0.0000000E+00
  0.6666667E+00  0.0000000E+00  0.0000000E+00 -0.1000000E+02 -0.1000000E+02  0.4298033E+00  0.1839558E+00  0.0000000E+00  0.0000000E+00  0.0000000E+00  0.0000000E+00
  0.6767677E+00  0.0000000E+00  0.0000000E+00 -0.1000000E+02 -0.1000000E+02  0.4298033E+00  0.1839558E+00  0.0000000E+00  0.0000000E+00  0.0000000E+00  0.0000000E+00
  0.6868687E+00  0.0000000E+00  0.0000000E+00 -0.1000000E+02 -0.1000000E+02  0.4298033E+00  0.1839558E+00  0.0000000E+00  0.0000000E+00  0.0000000E+00  0.0000000E+00
  0.6969697E+00  0.0000000E+00  0.0000000E+00 -0.1000000E+02 -0.1000000E+02  0.4298033E+00  0.1839558E+00  0.0000000E+00  0.0000000E+00  0.0000000E+00  0.0000000E+00
  0.7070707E+00  0.0000000E+00  0.0000000E+00 -0.1000000E+02 -0.1000000E+02  0.4298033E+00  0.1839558E+00  0.0000000E+00  0.0000000E+00  0.0000000E+00  0.0000000E+00
  0.7171717E+00  0.0000000E+00  0.0000000E+00 -0.1000000E+02 -0.1000000E+02  0.4298033E+00  0.1839558E+00  0.0000000E+00  0.0000000E+00  0.0000000E+00  0.0000000E+00
  0.7272727E+00  0.0000000E+00  0.0000000E+00 -0.1000000E+02 -0.1000000E+02  0.4298033E+00  0.1839558E+00  0.0000000E+00  0.0000000E+00  0.0000000E+00  0.0000000E+00
  0.7373737E+00  0.0000000E+00  0.0000000E+00 -0.1000000E+02 -0.1000000E+02  0.4298033E+00  0.1839558E+00  0.0000000E+00  0.0000000E+00  0.0000000E+00  0.0000000E+00
  0.7474747E+00  0.0000000E+00  0.0000000E+00 -0.1000000E+02 -0.1000000E+02  0.4298033E+00  0.1839558E+00  0.0000000E+00  0.0000000E+00  0.0000000E+00  0.0000000E+00
  0.7575758E+00  0.0000000E+00  0.0000000E+00 -0.1000000E+02 -0.1000000E+02  0.4298033E+00  0.1839558E+00  0.0000000E+00  0.0000000E+00  0.0000000E+00  0.0000000E+00
  0.7676768E+00  0.0000000E+00  0.0000000E+00 -0.1000000E+02 -0.1000000E+02  0.4298033E+00  0.1839558E+00  0.0000000E+00  0.0000000E+00  0.0000000E+00  0.0000000E+00
  0.7777778E+00  0.0000000E+00  0.0000000E+00 -0.1000000E+02 -0.1000000E+02  0.4298033E+00  0.1839558E+00  0.0000000E+00  0.0000000E+00  0.0000000E+00  0.0000000E+00
  0.7878788E+00  0.0000000E+00  0.0000000E+00 -0.1000000E+02 -0.1000000E+02  0.4298033E+00  0.1839558E+00  0.0000000E+00  0.0000000E+00  0.0000000E+00  0.0000000E+00
  0.7979798E+00  0.0000000E+00  0.0000000E+00 -0.1000000E+02 -0.1000000E+02  0.4298033E+00  0.1839558E+00  0.0000000E+00  0.0000000E+00  0.0000000E+00  0.0000000E+00
  0.8080808E+00  0.0000000E+00  0.0000000E+00 -0.1000000E+02 -0.1000000E+02  0.4298033E+00  0.1839558E+00  0.0000000E+00  0.0000000E+00  0.0000000E+00  0.0000000E+00
  0.8181818E+00  0.0000000E+00  0.0000000E+00 -0.1000000E+02 -0.1000000E+02  0.4298033E+00  0.1839558E+00  0.0000000E+00  0.0000000E+00  0.0000000E+00  0.0000000E+00
  0.8282828E+00  0.0000000E+00  0.0000000E+00 -0.1000000E+02 -0.1000000E+02  0.4298033E+00  0.1839558E+00  0.0000000E+00  0.0000000E+00  0.0000000E+00  0.0000000E+00
  0.8383838E+00  0.0000000E+00  0.0000000E+00 -0.1000000E+02 -0.1000000E+02  0.4298033E+00  0.1839558E+00  0.0000000E+00  0.0000000E+00  0.0000000E+00  0.0000000E+00
  0.8484848E+00  0.0000000E+00  0.0000000E+00 -0.1000000E+02 -0.1000000E+02  0.4298033E+00  0.1839558E+00  0.0000000E+00  0.0000000E+00  0.0000000E+00  0.0000000E+00
  0.8585859E+00  0.0000000E+00  0.0000000E+00 -0.1000000E+02 -0.1000000E+02  0.4298033E+00  0.1839558E+00  0.0000000E+00  0.0000000E+00  0.0000000E+00  0.0000000E+00
  0.8686869E+00  0.0000000E+00  0.0000000E+00 -0.1000000E+02 -0.1000000E+02  0.4298033E+00  0.1839558E+00  0.0000000E+00  0.0000000E+00  0.0000000E+00  0.0000000E+00
  0.8787879E+00  0.0000000E+00  0.0000000E+00 -0.1000000E+02 -0.1000000E+02  0.4298033E+00  0.1839558E+00  0.0000000E+00  0.0000000E+00  0.0000000E+00  0.0000000E+00
  0.8888889E+00  0.0000000E+00  0.0000000E+00 -0.1000000E+02 -0.1000000E+02  0.4298033E+00  0.1839558E+00  0.0000000E+00  0.0000000E+00  0.0000000E+00  0.0000000E+00
  0.8989899E+00  0.0000000E+00  0.0000000E+00 -0.1000000E+02 -0.1000000E+02  0.4298033E+00  0.1839558E+00  0.0000000E+00  0.0000000E+00  0.0000000E+00  0.0000000E+00
  0.9090909E+00  0.0000000E+00  0.0000000E+00 -0.1000000E+02 -0.1000000E+02  0.4298033E+00  0.1839558E+00  0.0000000E+00  0.0000000E+00  0.0000000E+00  0.0000000E+00
  0.9191919E+00  0.0000000E+00  0.0000000E+00 -0.1000000E+02 -0.1000000E+02  0.4298033E+00  0.1839558E+00  0.0000000E+00  0.0000000E+00  0.0000000E+00  0.0000000E+00
  0.9292929E+00  0.0000000E+00  0.0000000E+00 -0.1000000E+02 -0.1000000E+02  0.4298033E+00  0.1839558E+00  0.0000000E+00  0.0000000E+00  0.0000000E+00  0.0000000E+00
  0.9393939E+00  0.0000000E+00  0.0000000E+00 -0.1000000E+02 -0.1000000E+02  0.4298033E+00  0.1839558E+00  0.0000000E+00  0.0000000E+00  0.0000000E+00  0.0000000E+00
  0.9494949E+00  0.0000000E+00  0.0000000E+00 -0.1000000E+02 -0.1000000E+02  0.4298033E+00  0.1839558E+00  0.0000000E+00  0.0000000E+00  0.0000000E+00  0.0000000E+00
  0.9595960E+00  0.0000000E+00  0.0000000E+00 -0.1000000E+02 -0.1000000E+02  0.4298033E+00  0.1839558E+00  0.0000000E+00  0.0000000E+00  0.0000000E+00  0.0000000E+00
  0.9696970E+00  0.0000000E+00  0.0000000E+00 -0.1000000E+02 -0.1000000E+02  0.4298033E+00  0.1839558E+00  0.0000000E+00  0.0000000E+00  0.0000000E+00  0.0000000E+00
  0.9797980E+00  0.0000000E+00  0.0000000E+00 -0.1000000E+02 -0.1000000E+02  0.4298033E+00  0.1839558E+00  0.0000000E+00  0.0000000E+00  0.0000000E+00  0.0000000E+00
  0.9898990E+00  0.0000000E+00  0.0000000E+00 -0.1000000E+02 -0.1000000E+02  0.4298033E+00  0.1839558E+00  0.0000000E+00  0.0000000E+00  0.0000000E+00  0.0000000E+00
  0.1000000E+01  0.0000000E+00  0.0000000E+00 -0.1000000E+02 -0.1000000E+02  0.4298033E+00  0.1839558E+00  0.0000000E+00  0.0000000E+00  0.0000000E+00  0.0000000E+00
  0.0000000E+00  0.0000000E+00  0.1010101E-01 -0.1007795E+02 -0.1008805E+02  0.4286504E+00  0.1834624E+00  0.0000000E+00  0.0000000E+00  0.0000000E+00  0.0000000E+00
  0.1010101E-01  0.0000000E+00  0.1010101E-01 -0.1007808E+02 -0.1008818E+02  0.4286486E+00  0.1834616E+00  0.0000000E+00  0.0000000E+00  0.0000000E+00  0.0000000E+00
  0.2020202E-01  0.0000000E+00  0.1010101E-01 -0.1007848E+02 -0.1008858E+02  0.4286434E+00  0.1834594E+00  0.0000000E+00  0.0000000E+00  0.0000000E+00  0.0000000E+00
  0.3030303E-01  0.0000000E+00  0.1010101E-01 -0.1007915E+02 -0.1008925E+02  0.4286347E+00  0.1834557E+00  0.0000000E+00  0.0000000E+00  0.0000000E+00  0.0000000E+00
  0.4040404E-01  0.0000000E+00  0.1010101E-01 -0.1008009E+02 -0.1009019E+02  0.4286225E+00  0.1834504E+00  0.0000000E+00  0.0000000E+00  0.0000000E+00  0.0000000E+00
  0.5050505E-01  0.0000000E+00  0.1010101E-01 -0.1008131E+02 -0.1009141E+02  0.4286066E+00  0.1834436E+00  0.0000000E+00  0.0000000E+00  0.0000000E+00  0.0000000E+00
  0.6060606E-01  0.0000000E+00  0.1010101E-01 -0.1008282E+02 -0.1009292E+02  0.4285870E+00  0.1834353E+00  0.0000000E+00  0.0000000E+00  0.0000000E+00  0.0000000E+00
  0.7070707E-01  0.0000000E+00  0.1010101E-01 -0.1008462E+02 -0.1009472E+02  0.4285636E+00  0.1834252E+00  0.0000000E+00  0.0000000E+00  0.0000000E+00  0.0000000E+00
  0.8080808E-01  0.0000000E+00  0.1010101E-01 -0.1008672E+02 -0.1009682E+02  0.4285362E+00  0.1834135E+00  0.0000000E+00  0.0000000E+00  0.0000000E+00  0.0000000E+00
  0.9090909E-01  0.0000000E+00  0.1010101E-01 -0.1008915E+02 -0.1009925E+02  0.4285047E+00  0.1834000E+00  0.0000000E+00  0.0000000E+00  0.0000000E+00  0.0000000E+00
  0.1010101E+00  0.0000000E+00  0.1010101E-01 -0.1009192E+02 -0.1010202E+02  0.4284687E+00  0.1833846E+00  0.0000000E+00  0.0000000E+00  0.0000000E+00  0.0000000E+00
  0.1111111E+00  0.0000000E+00  0.1010101E-01 -0.1009504E+02 -0.1010514E+02  0.4284282E+00  0.1833673E+00  0.0000000E+00  0.0000000E+00  0.0000000E+00  0.0000000E+00
  0.1212121E+00  0.0000000E+00  0.1010101E-01 -0.1009854E+02 -0.1010864E+02  0.4283827E+00  0.1833478E+00  0.0000000E+00  0.0000000E+00  0.0000000E+00  0.0000000E+00
  0.1313131E+00  0.0000000E+00  0.1010101E-01 -0.1010245E+02 -0.1011255E+02  0.4283319E+00  0.1833261E+00  0.0000000E+00  0.0000000E+00  0.0000000E+00  0.0000000E+00
  0.1414141E+00  0.0000000E+00  0.1010101E-01 -0.1010680E+02 -0.1011690E+02  0.4282755E+00  0.1833019E+00  0.0000000E+00  0.0000000E+00  0.0000000E+00  0.0000000E+00
  0.1515152E+00  0.0000000E+00  0.1010101E-01 -0.1011162E+02 -0.1012172E+02  0.4282130E+00  0.1832752E+00  0.0000000E+00  0.0000000E+00  0.0000000E+00  0.0000000E+00
  0.1616162E+00  0.0000000E+00  0.1010101E-01 -0.1011696E+02 -0.1012706E+02  0.4281439E+00  0.1832456E+00  0.0000000E+00  0.0000000E+00  0.0000000E+00  0.0000000E+00
  0.1717172E+00  0.0000000E+00  0.1010101E-01 -0.1012286E+02 -0.1013296E+02  0.4280674E+00  0.1832129E+00  0.0000000E+00  0.0000000E+00  0.0000000E+00  0.0000000E+00
  0.1818182E+00  0.0000000E+00  0.1010101E-01 -0.1012939E+02 -0.1013949E+02  0.4279830E+00  0.1831767E+00  0.0000000E+00  0.0000000E+00  0.0000000E+00  0.0000000E+00
  0.1919192E+00  0.0000000E+00  0.1010101E-01 -0.1013660E+02 -0.1014671E+02  0.4278898E+00  0.1831368E+00  0.0000000E+00  0.0000000E+00  0.0000000E+00  0.0000000E+00
  0.2020202E+00  0.0000000E+00  0.1010101E-01 -0.1014458E+02 -0.1015468E+02  0.4277868E+00  0.1830928E+00  0.0000000E+00  0.0000000E+00  0.0000000E+00  0.0000000E+00
  0.2121212E+00  0.0000000E+00  0.1010101E-01 -0.1015339E+02 -0.1016349E+02  0.4276732E+00  0.1830441E+00  0.0000000E+00  0.0000000E+00  0.0000000E+00  0.0000000E+00
  0.2222222E+00  0.0000000E+00  0.1010101E-01 -0.1016313E+02 -0.1017323E+02  0.4275477E+00  0.1829904E+00  0.0000000E+00  0.0000000E+00  0.0000000E+00  0.0000000E+00
  0.2323232E+00  0.0000000E+00  0.1010101E-01 -0.1017387E+02 -0.1018397E+02  0.4274095E+00  0.1829313E+00  0.0000000E+00  0.0000000E+00  0.0000000E+00  0.0000000E+00
  0.2424242E+00  0.0000000E+00  0.1010101E-01 -0.1018570E+02 -0.1019580E+02  0.4272576E+00  0.1828663E+00  0.0000000E+00  0.0000000E+00  0.0000000E+00  0.0000000E+00
  0.2525253E+00  0.0000000E+00  0.1010101E-01 -0.1019865E+02 -0.1020875E+02  0.4270915E+00  0.1827952E+00  0.0000000E+00  0.0000000E+00  0.0000000E+00  0.0000000E+00
  0.2626263E+00  0.0000000E+00  0.1010101E-01 -0.1021276E+02 -0.1022286E+02  0.4269109E+00  0.1827178E+00  0.0000000E+00  0.0000000E+00  0.0000000E+00  0.0000000E+00
  0.2727273E+00  0.0000000E+00  0.1010101E-01 -0.1022801E+02 -0.1023811E+02  0.4267160E+00  0.1826344E+00  0.0000000E+00  0.0000000E+00  0.0000000E+00  0.0000000E+00
  0.2828283E+00  0.0000000E+00  0.1010101E-01 -0.1024442E+02 -0.1025452E+02  0.4265068E+00  0.1825449E+00  0.0000000E+00  0.0000000E+00  0.0000000E+00  0.0000000E+00
  0.2929293E+00  0.0000000E+00  0.1010101E-01 -0.1026206E+02 -0.1027216E+02  0.4262824E+00  0.1824489E+00  0.0000000E+00  0.0000000E+00  0.0000000E+00  0.0000000E+00
  0.3030303E+00  0.0000000E+00  0.1010101E-01 -0.1028114E+02 -0.1029125E+02  0.4260401E+00  0.1823451E+00  0.0000000E+00  0.0000000E+00  0.0000000E+00  0.0000000E+00
  0.3131313E+00  0.0000000E+00  0.1010101E-01 -0.1030208E+02 -0.1031218E+02  0.4257750E+00  0.1822317E+00  0.0000000E+00  0.0000000E+00  0.0000000E+00  0.0000000E+00
  0.3232323E+00  0.0000000E+00  0.1010101E-01 -0.1032548E+02 -0.1033558E+02  0.4254796E+00  0.1821053E+00  0.0000000E+00  0.0000000E+00  0.0000000E+00  0.0000000E+00
  0.3333333E+00  0.0000000E+00  0.1010101E-01 -0.1035222E+02 -0.1036232E+02  0.4251431E+00  0.1819613E+00  0.0000000E+00  0.0000000E+00  0.0000000E+00  0.0000000E+00
  0.3434343E+00  0.0000000E+00  0.1010101E-01 -0.1038323E+02 -0.1039333E+02  0.4247543E+00  0.1817948E+00  0.0000000E+00  0.0000000E+00  0.0000000E+00  0.0000000E+00
  0.3535354E+00  0.0000000E+00  0.1010101E-01 -0.1041892E+02 -0.1042902E+02  0.4243088E+00  0.1816041E+00  0.0000000E+00  0.0000000E+00  0.0000000E+00  0.0000000E+00
  0.3636364E+00  0.0000000E+00  0.1010101E-01 -0.1046195E+02 -0.1047205E+02  0.4237742E+00  0.1813753E+00  0.0000000E+00  0.0000000E+00  0.0000000E+00  0.0000000E+00
  0.3737374E+00  0.0000000E+00  0.1010101E-01 -0.1052472E+02 -0.1053482E+02  0.4229996E+00  0.1810438E+00  0.0000000E+00  0.0000000E+00  0.1655039E-10  0.1655039E-10
  0.3838384E+00  0.0000000E+00  0.1010101E-01 -0.1058517E+02 -0.1059527E+02  0.4222596E+00  0.1807271E+00  0.0000000E+00  0.0000000E+00  0.2476630E-10  0.2476630E-10
  0.3939394E+00  0.0000000E+00  0.1010101E-01 -0.1064346E+02 -0.1065356E+02  0.4215512E+00  0.1804239E+00  0.3913471E-11  0.0000000E+00  0.1647299E-10  0.2038646E-10
  0.4040404E+00  0.0000000E+00  0.1010101E-01 -0.1072932E+02 -0.1073942E+02  0.4205171E+00  0.1799813E+00  0.0000000E+00  0.0000000E+00  0.3993958E-10  0.3993958E-10
  0.4141414E+00  0.0000000E+00  0.1010101E-01 -0.1080313E+02 -0.1081324E+02  0.4196368E+00  0.1796046E+00  0.3461816E-11  0.0000000E+00  0.3153199E-10  0.3499381E-10
  0.4242424E+00  0.0000000E+00  0.1010101E-01 -0.1089453E+02 -0.1090463E+02  0.4185579E+00  0.1791428E+00  0.3449567E-11  0.0000000E+00  0.4713061E-10  0.5058018E-10
  0.4343434E+00  0.0000000E+00  0.1010101E-01 -0.1096066E+02 -0.1097076E+02  0.4177847E+00  0.1788118E+00  0.0000000E+00  0.0000000E+00  0.2369869E-10  0.2369869E-10
  0.4444444E+00  0.0000000E+00  0.1010101E-01 -0.1107090E+02 -0.1108100E+02  0.4165095E+00  0.1782661E+00  0.0000000E+00  0.0000000E+00  0.1598930E-10  0.1598930E-10
  0.4545455E+00  0.0000000E+00  0.1010101E-01 -0.1125224E+02 -0.1126234E+02  0.4144482E+00  0.1773838E+00  0.5597986E-11  0.0000000E+00  0.2844664E-10  0.3404462E-10
  0.4646465E+00  0.0000000E+00  0.1010101E-01 -0.1150900E+02 -0.1151911E+02  0.4116039E+00  0.1761665E+00  0.1099047E-10  0.0000000E+00  0.1274322E-09  0.1384227E-09
  0.4747475E+00  0.0000000E+00  0.1010101E-01 -0.1149614E+02 -0.1150624E+02  0.4117445E+00  0.1762266E+00  0.1850321E-10  0.0000000E+00  0.2360347E-10  0.4210669E-10
  0.4848485E+00  0.0000000E+00  0.1010101E-01 -0.1141169E+02 -0.1142179E+02  0.4126718E+00  0.1766235E+00  0.2820951E-10  0.0000000E+00  0.3149483E-10  0.5970434E-10
  0.4949495E+00  0.0000000E+00  0.1010101E-01 -0.1122648E+02 -0.1123658E+02  0.4147383E+00  0.1775080E+00  0.0000000E+00  0.0000000E+00  0.4304021E-10  0.4304021E-10
  0.5050505E+00  0.0000000E+00  0.1010101E-01 -0.1105528E+02 -0.1106538E+02  0.4166892E+00  0.1783430E+00  0.0000000E+00  0.0000000E+00  0.8394845E-11  0.8394845E-11
  0.5151515E+00  0.0000000E+00  0.1010101E-01 -0.1094897E+02 -0.1095907E+02  0.4179209E+00  0.1788702E+00  0.0000000E+00  0.0000000E+00  0.1685830E-10  0.1685830E-10
  0.5252525E+00  0.0000000E+00  0.1010101E-01 -0.1085464E+02 -0.1086474E+02  0.4190274E+00  0.1793437E+00  0.0000000E+00  0.0000000E+00  0.8459983E-11  0.8459983E-11
  0.5353535E+00  0.0000000E+00  0.1010101E-01 -0.1077162E+02 -0.1078172E+02  0.4200117E+00  0.1797650E+00  0.0000000E+00  0.0000000E+00  0.0000000E+00  0.0000000E+00
  0.5454545E+00  0.0000000E+00  0.1010101E-01 -0.1070676E+02 -0.1071686E+02  0.4207878E+00  0.1800972E+00  0.0000000E+00  0.0000000E+00  0.1592621E-10  0.1592621E-10
  0.5555556E+00  0.0000000E+00  0.1010101E-01 -0.1062860E+02 -0.1063871E+02  0.4217312E+00  0.1805010E+00  0.0000000E+00  0.0000000E+00  0.7987605E-11  0.7987605E-11
  0.5656566E+00  0.0000000E+00  0.1010101E-01 -0.1055973E+02 -0.1056983E+02  0.4225704E+00  0.1808601E+00  0.0000000E+00  0.0000000E+00  0.0000000E+00  0.0000000E+00
  0.5757576E+00  0.0000000E+00  0.1010101E-01 -0.1050880E+02 -0.1051890E+02  0.4231956E+00  0.1811277E+00  0.0000000E+00  0.0000000E+00  0.0000000E+00  0.0000000E+00
  0.5858586E+00  0.0000000E+00  0.1010101E-01 -0.1046755E+02 -0.1047766E+02  0.4237048E+00  0.1813457E+00  0.0000000E+00  0.0000000E+00  0.0000000E+00  0.0000000E+00
  0.5959596E+00  0.0000000E+00  0.1010101E-01 -0.1043209E+02 -0.1044219E+02  0.4241448E+00  0.1815340E+00  0.0000000E+00  0.0000000E+00  0.0000000E+00  0.0000000E+00
  0.6060606E+00  0.0000000E+00  0.1010101E-01 -0.1039979E+02 -0.1040989E+02  0.4245473E+00  0.1817062E+00  0.0000000E+00  0.0000000E+00  0.0000000E+00  0.0000000E+00
  0.6161616E+00  0.0000000E+00  0.1010101E-01 -0.1036950E+02 -0.1037961E+02  0.4249262E+00  0.1818684E+00  0.0000000E+00  0.0000000E+00  0.0000000E+00  0.0000000E+00
  0.6262626E+00  0.0000000E+00  0.1010101E-01 -0.1033924E+02 -0.1034934E+02  0.4253063E+00  0.1820311E+00  0.0000000E+00  0.0000000E+00  0.0000000E+00  0.0000000E+00
  0.6363636E+00  0.0000000E+00  0.1010101E-01 -0.1031265E+02 -0.1032275E+02  0.4256415E+00  0.1821746E+00  0.0000000E+00  0.0000000E+00  0.0000000E+00  0.0000000E+00
  0.6464646E+00  0.0000000E+00  0.1010101E-01 -0.1028930E+02 -0.1029940E+02  0.4259367E+00  0.1823009E+00  0.0000000E+00  0.0000000E+00  0.0000000E+00  0.0000000E+00
  0.6565657E+00  0.0000000E+00  0.1010101E-01 -0.1026848E+02 -0.1027858E+02  0.4262007E+00  0.1824139E+00  0.0000000E+00  0.0000000E+00  0.0000000E+00  0.0000000E+00
  0.6666667E+00  0.0000000E+00  0.1010101E-01 -0.1024968E+02 -0.1025978E+02  0.4264398E+00  0.1825162E+00  0.0000000E+00  0.0000000E+00  0.0000000E+00  0.0000000E+00
  0.6767677E+00  0.0000000E+00  0.1010101E-01 -0.1023257E+02 -0.1024268E+02  0.4266578E+00  0.1826095E+00  0.0000000E+00  0.0000000E+00  0.0000000E+00  0.0000000E+00
  0.6868687E+00  0.0000000E+00  0.1010101E-01 -0.1021697E+02 -0.1022707E+02  0.4268571E+00  0.1826948E+00  0.0000000E+00  0.0000000E+00  0.0000000E+00  0.0000000E+00
  0.6969697E+00  0.0000000E+00  0.1010101E-01 -0.1020272E+02 -0.1021282E+02  0.4270394E+00  0.1827729E+00  0.0000000E+00  0.0000000E+00  0.0000000E+00  0.0000000E+00
  0.7070707E+00  0.0000000E+00  0.1010101E-01 -0.1018970E+02 -0.1019981E+02  0.4272062E+00  0.1828443E+00  0.0000000E+00  0.0000000E+00  0.0000000E+00  0.0000000E+00
  0.7171717E+00  0.0000000E+00  0.1010101E-01 -0.1017783E+02 -0.1018793E+02  0.4273586E+00  0.1829095E+00  0.0000000E+00  0.0000000E+00  0.0000000E+00  0.0000000E+00
  0.7272727E+00  0.0000000E+00  0.1010101E-01 -0.1016700E+02 -0.1017710E+02  0.4274979E+00  0.1829691E+00  0.0000000E+00  0.0000000E+00  0.0000000E+00  0.0000000E+00
  0.7373737E+00  0.0000000E+00  0.1010101E-01 -0.1015711E+02 -0.1016721E+02  0.4276252E+00  0.1830236E+00  0.0000000E+00  0.0000000E+00  0.0000000E+00  0.0000000E+00
  0.7474747E+00  0.0000000E+00  0.1010101E-01 -0.1014809E+02 -0.1015819E+02  0.4277415E+00  0.1830734E+00  0.0000000E+00  0.0000000E+00  0.0000000E+00  0.0000000E+00
  0.7575758E+00  0.0000000E+00  0.1010101E-01 -0.1013985E+02 -0.1014995E+02  0.4278479E+00  0.1831189E+00  0.0000000E+00  0.0000000E+00  0.0000000E+00  0.0000000E+00
  0.7676768E+00  0.0000000E+00  0.1010101E-01 -0.1013232E+02 -0.1014242E+02  0.4279451E+00  0.1831605E+00  0.0000000E+00  0.0000000E+00  0.0000000E+00  0.0000000E+00
  0.7777778E+00  0.0000000E+00  0.1010101E-01 -0.1012544E+02 -0.1013554E+02  0.4280341E+00  0.1831986E+00  0.0000000E+00  0.0000000E+00  0.0000000E+00  0.0000000E+00
  0.7878788E+00  0.0000000E+00  0.1010101E-01 -0.1011914E+02 -0.1012924E+02  0.4281156E+00  0.1832335E+00  0.0000000E+00  0.0000000E+00  0.0000000E+00  0.0000000E+00