title = "dataset water"
variables = "x", "y", "z", "vx", "vy", "vz"
zone t = "velocities, solution time =  4.900E+01 days        " i =   99, j =   99, k =    1,  f=point
  0.5050505E-02  0.0000000E+00  0.5050505E-02  0.1261585E-06  0.0000000E+00  0.1455338E-03
  0.1515152E-01  0.0000000E+00  0.5050505E-02  0.3790908E-06  0.0000000E+00  0.1460496E-03
  0.2525252E-01  0.0000000E+00  0.5050505E-02  0.6338907E-06  0.0000000E+00  0.1470838E-03
  0.3535353E-01  0.0000000E+00  0.5050505E-02  0.8918435E-06  0.0000000E+00  0.1486418E-03
  0.4545455E-01  0.0000000E+00  0.5050505E-02  0.1154278E-05  0.0000000E+00  0.1507315E-03
  0.5555556E-01  0.0000000E+00  0.5050505E-02  0.1422582E-05  0.0000000E+00  0.1533639E-03
  0.6565657E-01  0.0000000E+00  0.5050505E-02  0.1698215E-05  0.0000000E+00  0.1565530E-03
  0.7575758E-01  0.0000000E+00  0.5050505E-02  0.1982725E-05  0.0000000E+00  0.1603160E-03
  0.8585858E-01  0.0000000E+00  0.5050505E-02  0.2277774E-05  0.0000000E+00  0.1646735E-03
  0.9595960E-01  0.0000000E+00  0.5050505E-02  0.2585154E-05  0.0000000E+00  0.1696497E-03
  0.1060606E+00  0.0000000E+00  0.5050505E-02  0.2906811E-05  0.0000000E+00  0.1752731E-03
  0.1161616E+00  0.0000000E+00  0.5050505E-02  0.3244877E-05  0.0000000E+00  0.1815762E-03
  0.1262626E+00  0.0000000E+00  0.5050505E-02  0.3601695E-05  0.0000000E+00  0.1885968E-03
  0.1363636E+00  0.0000000E+00  0.5050505E-02  0.3979852E-05  0.0000000E+00  0.1963776E-03
  0.1464646E+00  0.0000000E+00  0.5050505E-02  0.4382213E-05  0.0000000E+00  0.2049677E-03
  0.1565657E+00  0.0000000E+00  0.5050505E-02  0.4811959E-05  0.0000000E+00  0.2144224E-03
  0.1666667E+00  0.0000000E+00  0.5050505E-02  0.5272615E-05  0.0000000E+00  0.2248046E-03
  0.1767677E+00  0.0000000E+00  0.5050505E-02  0.5768085E-05  0.0000000E+00  0.2361856E-03
  0.1868687E+00  0.0000000E+00  0.5050505E-02  0.6302669E-05  0.0000000E+00  0.2486456E-03
  0.1969697E+00  0.0000000E+00  0.5050505E-02  0.6881062E-05  0.0000000E+00  0.2622750E-03
  0.2070707E+00  0.0000000E+00  0.5050505E-02  0.7508327E-05  0.0000000E+00  0.2771755E-03
  0.2171717E+00  0.0000000E+00  0.5050505E-02  0.8189820E-05  0.0000000E+00  0.2934607E-03
  0.2272727E+00  0.0000000E+00  0.5050505E-02  0.8931064E-05  0.0000000E+00  0.3112570E-03
  0.2373737E+00  0.0000000E+00  0.5050505E-02  0.9737566E-05  0.0000000E+00  0.3307039E-03
  0.2474747E+00  0.0000000E+00  0.5050505E-02  0.1061463E-04  0.0000000E+00  0.3519546E-03
  0.2575758E+00  0.0000000E+00  0.5050505E-02  0.1156731E-04  0.0000000E+00  0.3751755E-03
  0.2676768E+00  0.0000000E+00  0.5050505E-02  0.1260075E-04  0.0000000E+00  0.4005466E-03
  0.2777778E+00  0.0000000E+00  0.5050505E-02  0.1372160E-04  0.0000000E+00  0.4282641E-03
  0.2878788E+00  0.0000000E+00  0.5050505E-02  0.1494136E-04  0.0000000E+00  0.4585473E-03
  0.2979798E+00  0.0000000E+00  0.5050505E-02  0.1628273E-04  0.0000000E+00  0.4916570E-03
  0.3080808E+00  0.0000000E+00  0.5050505E-02  0.1778965E-04  0.0000000E+00  0.5279315E-03
  0.3181818E+00  0.0000000E+00  0.5050505E-02  0.1953986E-04  0.0000000E+00  0.5678474E-03
  0.3282828E+00  0.0000000E+00  0.5050505E-02  0.2165713E-04  0.0000000E+00  0.6121110E-03
  0.3383838E+00  0.0000000E+00  0.5050505E-02  0.2432182E-04  0.0000000E+00  0.6617762E-03
  0.3484848E+00  0.0000000E+00  0.5050505E-02  0.2778753E-04  0.0000000E+00  0.7184007E-03
  0.3585859E+00  0.0000000E+00  0.5050505E-02  0.3242149E-04  0.0000000E+00  0.7842740E-03
  0.3686869E+00  0.0000000E+00  0.5050505E-02  0.3882922E-04  0.0000000E+00  0.8628484E-03
  0.3787879E+00  0.0000000E+00  0.5050505E-02  0.4834769E-04  0.0000000E+00  0.9599022E-03
  0.3888889E+00  0.0000000E+00  0.5050505E-02  0.6521703E-04  0.0000000E+00  0.1087841E-02
  0.3989899E+00  0.0000000E+00  0.5050505E-02  0.1056929E-03  0.0000000E+00  0.1283518E-02
  0.4090909E+00  0.0000000E+00  0.5050505E-02  0.7546865E-04  0.0000000E+00  0.1494800E-02
  0.4191919E+00  0.0000000E+00  0.5050505E-02  0.8561769E-04  0.0000000E+00  0.1687900E-02
  0.4292929E+00  0.0000000E+00  0.5050505E-02  0.6061675E-04  0.0000000E+00  0.1866654E-02
  0.4393939E+00  0.0000000E+00  0.5050505E-02  0.8766152E-04  0.0000000E+00  0.2052301E-02
  0.4494950E+00  0.0000000E+00  0.5050505E-02  0.1348746E-03  0.0000000E+00  0.2337163E-02
  0.4595959E+00  0.0000000E+00  0.5050505E-02  0.1803954E-03  0.0000000E+00  0.2753950E-02
  0.4696970E+00  0.0000000E+00  0.5050505E-02 -0.8463305E-05  0.0000000E+00  0.2984430E-02
  0.4797980E+00  0.0000000E+00  0.5050505E-02 -0.4975457E-04  0.0000000E+00  0.2903174E-02
  0.4898990E+00  0.0000000E+00  0.5050505E-02 -0.1681783E-03  0.0000000E+00  0.2610942E-02
  0.5000000E+00  0.0000000E+00  0.5050505E-02 -0.1290071E-03  0.0000000E+00  0.2223193E-02
  0.5101010E+00  0.0000000E+00  0.5050505E-02 -0.8784671E-04  0.0000000E+00  0.1948914E-02
  0.5202020E+00  0.0000000E+00  0.5050505E-02 -0.7969454E-04  0.0000000E+00  0.1742308E-02
  0.5303030E+00  0.0000000E+00  0.5050505E-02 -0.6743767E-04  0.0000000E+00  0.1564493E-02
  0.5404040E+00  0.0000000E+00  0.5050505E-02 -0.4834183E-04  0.0000000E+00  0.1426733E-02
  0.5505050E+00  0.0000000E+00  0.5050505E-02 -0.6309218E-04  0.0000000E+00  0.1296421E-02
  0.5606061E+00  0.0000000E+00  0.5050505E-02 -0.5877063E-04  0.0000000E+00  0.1156030E-02
  0.5707071E+00  0.0000000E+00  0.5050505E-02 -0.4512552E-04  0.0000000E+00  0.1037923E-02
  0.5808081E+00  0.0000000E+00  0.5050505E-02 -0.3825488E-04  0.0000000E+00  0.9442128E-03
  0.5909091E+00  0.0000000E+00  0.5050505E-02 -0.3395426E-04  0.0000000E+00  0.8638366E-03
  0.6010101E+00  0.0000000E+00  0.5050505E-02 -0.3043721E-04  0.0000000E+00  0.7927666E-03
  0.6111111E+00  0.0000000E+00  0.5050505E-02 -0.2735944E-04  0.0000000E+00  0.7294550E-03
  0.6212121E+00  0.0000000E+00  0.5050505E-02 -0.2467091E-04  0.0000000E+00  0.6728442E-03
  0.6313131E+00  0.0000000E+00  0.5050505E-02 -0.2232780E-04  0.0000000E+00  0.6220182E-03
  0.6414142E+00  0.0000000E+00  0.5050505E-02 -0.2027346E-04  0.0000000E+00  0.5762003E-03
  0.6515151E+00  0.0000000E+00  0.5050505E-02 -0.1845491E-04  0.0000000E+00  0.5347545E-03
  0.6616161E+00  0.0000000E+00  0.5050505E-02 -0.1683056E-04  0.0000000E+00  0.4971634E-03
  0.6717172E+00  0.0000000E+00  0.5050505E-02 -0.1537002E-04  0.0000000E+00  0.4629997E-03
  0.6818182E+00  0.0000000E+00  0.5050505E-02 -0.1405122E-04  0.0000000E+00  0.4319015E-03
  0.6919192E+00  0.0000000E+00  0.5050505E-02 -0.1285752E-04  0.0000000E+00  0.4035562E-03
  0.7020202E+00  0.0000000E+00  0.5050505E-02 -0.1177556E-04  0.0000000E+00  0.3776890E-03
  0.7121212E+00  0.0000000E+00  0.5050505E-02 -0.1079395E-04  0.0000000E+00  0.3540564E-03
  0.7222222E+00  0.0000000E+00  0.5050505E-02 -0.9902590E-05  0.0000000E+00  0.3324416E-03
  0.7323232E+00  0.0000000E+00  0.5050505E-02 -0.9092282E-05  0.0000000E+00  0.3126514E-03
  0.7424242E+00  0.0000000E+00  0.5050505E-02 -0.8354636E-05  0.0000000E+00  0.2945140E-03
  0.7525253E+00  0.0000000E+00  0.5050505E-02 -0.7681981E-05  0.0000000E+00  0.2778763E-03
  0.7626263E+00  0.0000000E+00  0.5050505E-02 -0.7067347E-05  0.0000000E+00  0.2626024E-03
  0.7727273E+00  0.0000000E+00  0.5050505E-02 -0.6504431E-05  0.0000000E+00  0.2485719E-03
  0.7828283E+00  0.0000000E+00  0.5050505E-02 -0.5987562E-05  0.0000000E+00  0.2356779E-03
  0.7929293E+00  0.0000000E+00  0.5050505E-02 -0.5511658E-05  0.0000000E+00  0.2238257E-03
  0.8030303E+00  0.0000000E+00  0.5050505E-02 -0.5072179E-05  0.0000000E+00  0.2129315E-03
  0.8131313E+00  0.0000000E+00  0.5050505E-02 -0.4665071E-05  0.0000000E+00  0.2029208E-03
  0.8232324E+00  0.0000000E+00  0.5050505E-02 -0.4286721E-05  0.0000000E+00  0.1937280E-03
  0.8333333E+00  0.0000000E+00  0.5050505E-02 -0.3933907E-05  0.0000000E+00  0.1852946E-03
  0.8434343E+00  0.0000000E+00  0.5050505E-02 -0.3603755E-05  0.0000000E+00  0.1775692E-03
  0.8535354E+00  0.0000000E+00  0.5050505E-02 -0.3293694E-05  0.0000000E+00  0.1705060E-03
  0.8636364E+00  0.0000000E+00  0.5050505E-02 -0.3001424E-05  0.0000000E+00  0.1640647E-03
  0.8737374E+00  0.0000000E+00  0.5050505E-02 -0.2724883E-05  0.0000000E+00  0.1582095E-03
  0.8838384E+00  0.0000000E+00  0.5050505E-02 -0.2462212E-05  0.0000000E+00  0.1529092E-03
  0.8939394E+00  0.0000000E+00  0.5050505E-02 -0.2211735E-05  0.0000000E+00  0.1481359E-03
  0.9040404E+00  0.0000000E+00  0.5050505E-02 -0.1971932E-05  0.0000000E+00  0.1438656E-03
  0.9141414E+00  0.0000000E+00  0.5050505E-02 -0.1741420E-05  0.0000000E+00  0.1400771E-03
  0.9242424E+00  0.0000000E+00  0.5050505E-02 -0.1518931E-05  0.0000000E+00  0.1367521E-03
  0.9343435E+00  0.0000000E+00  0.5050505E-02 -0.1303300E-05  0.0000000E+00  0.1338750E-03
  0.9444444E+00  0.0000000E+00  0.5050505E-02 -0.1093446E-05  0.0000000E+00  0.1314323E-03
  0.9545454E+00  0.0000000E+00  0.5050505E-02 -0.8883595E-06  0.0000000E+00  0.1294130E-03
  0.9646465E+00  0.0000000E+00  0.5050505E-02 -0.6870902E-06  0.0000000E+00  0.1278081E-03
  0.9747475E+00  0.0000000E+00  0.5050505E-02 -0.4887360E-06  0.0000000E+00  0.1266104E-03
  0.9848485E+00  0.0000000E+00  0.5050505E-02 -0.2924326E-06  0.0000000E+00  0.1258148E-03
  0.9974747E+00  0.0000000E+00  0.5050505E-02 -0.9734400E-07  0.0000000E+00  0.1254179E-03
  0.5050505E-02  0.0000000E+00  0.1515152E-01  0.3776851E-06  0.0000000E+00  0.1453311E-03
  0.1515152E-01  0.0000000E+00  0.1515152E-01  0.1134903E-05  0.0000000E+00  0.1458453E-03
  0.2525252E-01  0.0000000E+00  0.1515152E-01  0.1897719E-05  0.0000000E+00  0.1468762E-03
  0.3535353E-01  0.0000000E+00  0.1515152E-01  0.2669976E-05  0.0000000E+00  0.1484291E-03
  0.4545455E-01  0.0000000E+00  0.1515152E-01  0.3455647E-05  0.0000000E+00  0.1505119E-03
  0.5555556E-01  0.0000000E+00  0.1515152E-01  0.4258877E-05  0.0000000E+00  0.1531355E-03
  0.6565657E-01  0.0000000E+00  0.1515152E-01  0.5084025E-05  0.0000000E+00  0.1563137E-03
  0.7575758E-01  0.0000000E+00  0.1515152E-01  0.5935721E-05  0.0000000E+00  0.1600635E-03
  0.8585858E-01  0.0000000E+00  0.1515152E-01  0.6818926E-05  0.0000000E+00  0.1644053E-03
  0.9595960E-01  0.0000000E+00  0.1515152E-01  0.7738991E-05  0.0000000E+00  0.1693632E-03
  0.1060606E+00  0.0000000E+00  0.1515152E-01  0.8701735E-05  0.0000000E+00  0.1749651E-03
  0.1161616E+00  0.0000000E+00  0.1515152E-01  0.9713522E-05  0.0000000E+00  0.1812434E-03
  0.1262626E+00  0.0000000E+00  0.1515152E-01  0.1078135E-04  0.0000000E+00  0.1882354E-03
  0.1363636E+00  0.0000000E+00  0.1515152E-01  0.1191296E-04  0.0000000E+00  0.1959834E-03
  0.1464646E+00  0.0000000E+00  0.1515152E-01  0.1311690E-04  0.0000000E+00  0.2045358E-03
  0.1565657E+00  0.0000000E+00  0.1515152E-01  0.1440269E-04  0.0000000E+00  0.2139476E-03
  0.1666667E+00  0.0000000E+00  0.1515152E-01  0.1578089E-04  0.0000000E+00  0.2242809E-03
  0.1767677E+00  0.0000000E+00  0.1515152E-01  0.1726319E-04  0.0000000E+00  0.2356062E-03
  0.1868687E+00  0.0000000E+00  0.1515152E-01  0.1886250E-04  0.0000000E+00  0.2480033E-03
  0.1969697E+00  0.0000000E+00  0.1515152E-01  0.2059293E-04  0.0000000E+00  0.2615618E-03
  0.2070707E+00  0.0000000E+00  0.1515152E-01  0.2246975E-04  0.0000000E+00  0.2763828E-03
  0.2171717E+00  0.0000000E+00  0.1515152E-01  0.2450914E-04  0.0000000E+00  0.2925796E-03
  0.2272727E+00  0.0000000E+00  0.1515152E-01  0.2672784E-04  0.0000000E+00  0.3102787E-03
  0.2373737E+00  0.0000000E+00  0.1515152E-01  0.2914252E-04  0.0000000E+00  0.3296199E-03
  0.2474747E+00  0.0000000E+00  0.1515152E-01  0.3176911E-04  0.0000000E+00  0.3507569E-03
  0.2575758E+00  0.0000000E+00  0.1515152E-01  0.3462229E-04  0.0000000E+00  0.3738564E-03
  0.2676768E+00  0.0000000E+00  0.1515152E-01  0.3771608E-04  0.0000000E+00  0.3990967E-03
  0.2777778E+00  0.0000000E+00  0.1515152E-01  0.4106711E-04  0.0000000E+00  0.4266675E-03
  0.2878788E+00  0.0000000E+00  0.1515152E-01  0.4470370E-04  0.0000000E+00  0.4567719E-03
  0.2979798E+00  0.0000000E+00  0.1515152E-01  0.4868457E-04  0.0000000E+00  0.4896381E-03
  0.3080808E+00  0.0000000E+00  0.1515152E-01  0.5312995E-04  0.0000000E+00  0.5255489E-03
  0.3181818E+00  0.0000000E+00  0.1515152E-01  0.5826243E-04  0.0000000E+00  0.5649016E-03
  0.3282828E+00  0.0000000E+00  0.1515152E-01  0.6444488E-04  0.0000000E+00  0.6083005E-03
  0.3383838E+00  0.0000000E+00  0.1515152E-01  0.7220498E-04  0.0000000E+00  0.6566719E-03
  0.3484848E+00  0.0000000E+00  0.1515152E-01  0.8226955E-04  0.0000000E+00  0.7113891E-03
  0.3585859E+00  0.0000000E+00  0.1515152E-01  0.9563225E-04  0.0000000E+00  0.7743931E-03
  0.3686869E+00  0.0000000E+00  0.1515152E-01  0.1136760E-03  0.0000000E+00  0.8481709E-03
  0.3787879E+00  0.0000000E+00  0.1515152E-01  0.1385053E-03  0.0000000E+00  0.9348725E-03
  0.3888889E+00  0.0000000E+00  0.1515152E-01  0.1749352E-03  0.0000000E+00  0.1032007E-02
  0.3989899E+00  0.0000000E+00  0.1515152E-01  0.2446870E-03  0.0000000E+00  0.1120691E-02
  0.4090909E+00  0.0000000E+00  0.1515152E-01  0.2213293E-03  0.0000000E+00  0.1240521E-02
  0.4191919E+00  0.0000000E+00  0.1515152E-01  0.2373529E-03  0.0000000E+00  0.1400497E-02
  0.4292929E+00  0.0000000E+00  0.1515152E-01  0.2147066E-03  0.0000000E+00  0.1592720E-02
  0.4393939E+00  0.0000000E+00  0.1515152E-01  0.2710859E-03  0.0000000E+00  0.1826674E-02
  0.4494950E+00  0.0000000E+00  0.1515152E-01  0.3682288E-03  0.0000000E+00  0.2074789E-02
  0.4595959E+00  0.0000000E+00  0.1515152E-01  0.4419391E-03  0.0000000E+00  0.2313899E-02
  0.4696970E+00  0.0000000E+00  0.1515152E-01  0.1215191E-03  0.0000000E+00  0.2622643E-02
  0.4797980E+00  0.0000000E+00  0.1515152E-01 -0.2131510E-03  0.0000000E+00  0.2657112E-02
  0.4898990E+00  0.0000000E+00  0.1515152E-01 -0.4747182E-03  0.0000000E+00  0.2310903E-02
  0.5000000E+00  0.0000000E+00  0.1515152E-01 -0.3407661E-03  0.0000000E+00  0.2020475E-02
  0.5101010E+00  0.0000000E+00  0.1515152E-01 -0.2629631E-03  0.0000000E+00  0.1803858E-02
  0.5202020E+00  0.0000000E+00  0.1515152E-01 -0.2151217E-03  0.0000000E+00  0.1625737E-02
  0.5303030E+00  0.0000000E+00  0.1515152E-01 -0.1799558E-03  0.0000000E+00  0.1502089E-02
  0.5404040E+00  0.0000000E+00  0.1515152E-01 -0.1685097E-03  0.0000000E+00  0.1362400E-02
  0.5505050E+00  0.0000000E+00  0.1515152E-01 -0.1793358E-03  0.0000000E+00  0.1215909E-02
  0.5606061E+00  0.0000000E+00  0.1515152E-01 -0.1573355E-03  0.0000000E+00  0.1108587E-02
  0.5707071E+00  0.0000000E+00  0.1515152E-01 -0.1292382E-03  0.0000000E+00  0.1018707E-02
  0.5808081E+00  0.0000000E+00  0.1515152E-01 -0.1123545E-03  0.0000000E+00  0.9342717E-03
  0.5909091E+00  0.0000000E+00  0.1515152E-01 -0.1010848E-03  0.0000000E+00  0.8571762E-03
  0.6010101E+00  0.0000000E+00  0.1515152E-01 -0.9086642E-04  0.0000000E+00  0.7872526E-03
  0.6111111E+00  0.0000000E+00  0.1515152E-01 -0.8169028E-04  0.0000000E+00  0.7246971E-03
  0.6212121E+00  0.0000000E+00  0.1515152E-01 -0.7367144E-04  0.0000000E+00  0.6687556E-03
  0.6313131E+00  0.0000000E+00  0.1515152E-01 -0.6669872E-04  0.0000000E+00  0.6185053E-03
  0.6414142E+00  0.0000000E+00  0.1515152E-01 -0.6058782E-04  0.0000000E+00  0.5731592E-03
  0.6515151E+00  0.0000000E+00  0.1515152E-01 -0.5517299E-04  0.0000000E+00  0.5320954E-03
  0.6616161E+00  0.0000000E+00  0.1515152E-01 -0.5032971E-04  0.0000000E+00  0.4948184E-03
  0.6717172E+00  0.0000000E+00  0.1515152E-01 -0.4596959E-04  0.0000000E+00  0.4609198E-03
  0.6818182E+00  0.0000000E+00  0.1515152E-01 -0.4202929E-04  0.0000000E+00  0.4300511E-03
  0.6919192E+00  0.0000000E+00  0.1515152E-01 -0.3846098E-04  0.0000000E+00  0.4019081E-03
  0.7020202E+00  0.0000000E+00  0.1515152E-01 -0.3522591E-04  0.0000000E+00  0.3762210E-03
  0.7121212E+00  0.0000000E+00  0.1515152E-01 -0.3229065E-04  0.0000000E+00  0.3527494E-03
  0.7222222E+00  0.0000000E+00  0.1515152E-01 -0.2962523E-04  0.0000000E+00  0.3312785E-03
  0.7323232E+00  0.0000000E+00  0.1515152E-01 -0.2720225E-04  0.0000000E+00  0.3116167E-03
  0.7424242E+00  0.0000000E+00  0.1515152E-01 -0.2499659E-04  0.0000000E+00  0.2935934E-03
  0.7525253E+00  0.0000000E+00  0.1515152E-01 -0.2298529E-04  0.0000000E+00  0.2770568E-03
  0.7626263E+00  0.0000000E+00  0.1515152E-01 -0.2114744E-04  0.0000000E+00  0.2618726E-03
  0.7727273E+00  0.0000000E+00  0.1515152E-01 -0.1946417E-04  0.0000000E+00  0.2479211E-03
  0.7828283E+00  0.0000000E+00  0.1515152E-01 -0.1791851E-04  0.0000000E+00  0.2350968E-03
  0.7929293E+00  0.0000000E+00  0.1515152E-01 -0.1649526E-04  0.0000000E+00  0.2233060E-03
  0.8030303E+00  0.0000000E+00  0.1515152E-01 -0.1518083E-04  0.0000000E+00  0.2124657E-03
  0.8131313E+00  0.0000000E+00  0.1515152E-01 -0.1396312E-04  0.0000000E+00  0.2025025E-03
  0.8232324E+00  0.0000000E+00  0.1515152E-01 -0.1283132E-04  0.0000000E+00  0.1933513E-03
  0.8333333E+00  0.0000000E+00  0.1515152E-01 -0.1177581E-04  0.0000000E+00  0.1849545E-03
  0.8434343E+00  0.0000000E+00  0.1515152E-01 -0.1078801E-04  0.0000000E+00  0.1772612E-03
  0.8535354E+00  0.0000000E+00  0.1515152E-01 -0.9860227E-05  0.0000000E+00  0.1702260E-03
  0.8636364E+00  0.0000000E+00  0.1515152E-01 -0.8985604E-05  0.0000000E+00  0.1638092E-03
  0.8737374E+00  0.0000000E+00  0.1515152E-01 -0.8157973E-05  0.0000000E+00  0.1579755E-03
  0.8838384E+00  0.0000000E+00  0.1515152E-01 -0.7371789E-05  0.0000000E+00  0.1526938E-03
  0.8939394E+00  0.0000000E+00  0.1515152E-01 -0.6622043E-05  0.0000000E+00  0.1479367E-03
  0.9040404E+00  0.0000000E+00  0.1515152E-01 -0.5904197E-05  0.0000000E+00  0.1436803E-03
  0.9141414E+00  0.0000000E+00  0.1515152E-01 -0.5214116E-05  0.0000000E+00  0.1399038E-03
  0.9242424E+00  0.0000000E+00  0.1515152E-01 -0.4548018E-05  0.0000000E+00  0.1365890E-03
  0.9343435E+00  0.0000000E+00  0.1515152E-01 -0.3902419E-05  0.0000000E+00  0.1337204E-03
  0.9444444E+00  0.0000000E+00  0.1515152E-01 -0.3274091E-05  0.0000000E+00  0.1312848E-03
  0.9545454E+00  0.0000000E+00  0.1515152E-01 -0.2660018E-05  0.0000000E+00  0.1292712E-03
  0.9646465E+00  0.0000000E+00  0.1515152E-01 -0.2057362E-05  0.0000000E+00  0.1276707E-03
  0.9747475E+00  0.0000000E+00  0.1515152E-01 -0.1463428E-05  0.0000000E+00  0.1264763E-03
  0.9848485E+00  0.0000000E+00  0.1515152E-01 -0.8756326E-06  0.0000000E+00  0.1256829E-03
  0.9974747E+00  0.0000000E+00  0.1515152E-01 -0.2914769E-06  0.0000000E+00  0.1252870E-03
  0.5050505E-02  0.0000000E+00  0.2525252E-01  0.6272533E-06  0.0000000E+00  0.1449338E-03
  0.1515152E-01  0.0000000E+00  0.2525252E-01  0.1884834E-05  0.0000000E+00  0.1454448E-03
  0.2525252E-01  0.0000000E+00  0.2525252E-01  0.3151709E-05  0.0000000E+00  0.1464692E-03
  0.3535353E-01  0.0000000E+00  0.2525252E-01  0.4434247E-05  0.0000000E+00  0.1480121E-03
  0.4545455E-01  0.0000000E+00  0.2525252E-01  0.5739023E-05  0.0000000E+00  0.1500814E-03
  0.5555556E-01  0.0000000E+00  0.2525252E-01  0.7072891E-05  0.0000000E+00  0.1526876E-03
  0.6565657E-01  0.0000000E+00  0.2525252E-01  0.8443064E-05  0.0000000E+00  0.1558443E-03
  0.7575758E-01  0.0000000E+00  0.2525252E-01  0.9857198E-05  0.0000000E+00  0.1595681E-03
  0.8585858E-01  0.0000000E+00  0.2525252E-01  0.1132349E-04  0.0000000E+00  0.1638791E-03
  0.9595960E-01  0.0000000E+00  0.2525252E-01  0.1285079E-04  0.0000000E+00  0.1688008E-03
  0.1060606E+00  0.0000000E+00  0.2525252E-01  0.1444872E-04  0.0000000E+00  0.1743605E-03
  0.1161616E+00  0.0000000E+00  0.2525252E-01  0.1612779E-04  0.0000000E+00  0.1805901E-03
  0.1262626E+00  0.0000000E+00  0.2525252E-01  0.1789957E-04  0.0000000E+00  0.1875259E-03
  0.1363636E+00  0.0000000E+00  0.2525252E-01  0.1977686E-04  0.0000000E+00  0.1952093E-03
  0.1464646E+00  0.0000000E+00  0.2525252E-01  0.2177384E-04  0.0000000E+00  0.2036878E-03
  0.1565657E+00  0.0000000E+00  0.2525252E-01  0.2390624E-04  0.0000000E+00  0.2130150E-03
  0.1666667E+00  0.0000000E+00  0.2525252E-01  0.2619160E-04  0.0000000E+00  0.2232520E-03
  0.1767677E+00  0.0000000E+00  0.2525252E-01  0.2864937E-04  0.0000000E+00  0.2344678E-03
  0.1868687E+00  0.0000000E+00  0.2525252E-01  0.3130105E-04  0.0000000E+00  0.2467407E-03
  0.1969697E+00  0.0000000E+00  0.2525252E-01  0.3417031E-04  0.0000000E+00  0.2601592E-03
  0.2070707E+00  0.0000000E+00  0.2525252E-01  0.3728283E-04  0.0000000E+00  0.2748231E-03
  0.2171717E+00  0.0000000E+00  0.2525252E-01  0.4066602E-04  0.0000000E+00  0.2908451E-03
  0.2272727E+00  0.0000000E+00  0.2525252E-01  0.4434839E-04  0.0000000E+00  0.3083515E-03
  0.2373737E+00  0.0000000E+00  0.2525252E-01  0.4835840E-04  0.0000000E+00  0.3274833E-03
  0.2474747E+00  0.0000000E+00  0.2525252E-01  0.5272299E-04  0.0000000E+00  0.3483959E-03
  0.2575758E+00  0.0000000E+00  0.2525252E-01  0.5746577E-04  0.0000000E+00  0.3712579E-03
  0.2676768E+00  0.0000000E+00  0.2525252E-01  0.6260612E-04  0.0000000E+00  0.3962474E-03
  0.2777778E+00  0.0000000E+00  0.2525252E-01  0.6816171E-04  0.0000000E+00  0.4235458E-03
  0.2878788E+00  0.0000000E+00  0.2525252E-01  0.7415967E-04  0.0000000E+00  0.4533299E-03
  0.2979798E+00  0.0000000E+00  0.2525252E-01  0.8066534E-04  0.0000000E+00  0.4857675E-03
  0.3080808E+00  0.0000000E+00  0.2525252E-01  0.8783794E-04  0.0000000E+00  0.5210323E-03
  0.3181818E+00  0.0000000E+00  0.2525252E-01  0.9601186E-04  0.0000000E+00  0.5593592E-03
  0.3282828E+00  0.0000000E+00  0.2525252E-01  0.1057708E-03  0.0000000E+00  0.6011519E-03
  0.3383838E+00  0.0000000E+00  0.2525252E-01  0.1179640E-03  0.0000000E+00  0.6471068E-03
  0.3484848E+00  0.0000000E+00  0.2525252E-01  0.1337383E-03  0.0000000E+00  0.6983242E-03
  0.3585859E+00  0.0000000E+00  0.2525252E-01  0.1546164E-03  0.0000000E+00  0.7564494E-03
  0.3686869E+00  0.0000000E+00  0.2525252E-01  0.1824816E-03  0.0000000E+00  0.8238369E-03
  0.3787879E+00  0.0000000E+00  0.2525252E-01  0.2184598E-03  0.0000000E+00  0.9028430E-03
  0.3888889E+00  0.0000000E+00  0.2525252E-01  0.2553891E-03  0.0000000E+00  0.9862638E-03
  0.3989899E+00  0.0000000E+00  0.2525252E-01  0.3037313E-03  0.0000000E+00  0.1056926E-02
  0.4090909E+00  0.0000000E+00  0.2525252E-01  0.3366537E-03  0.0000000E+00  0.1138813E-02
  0.4191919E+00  0.0000000E+00  0.2525252E-01  0.3472982E-03  0.0000000E+00  0.1242740E-02
  0.4292929E+00  0.0000000E+00  0.2525252E-01  0.3725559E-03  0.0000000E+00  0.1371974E-02
  0.4393939E+00  0.0000000E+00  0.2525252E-01  0.4265626E-03  0.0000000E+00  0.1523482E-02
  0.4494950E+00  0.0000000E+00  0.2525252E-01  0.5170159E-03  0.0000000E+00  0.1663099E-02
  0.4595959E+00  0.0000000E+00  0.2525252E-01  0.5827038E-03  0.0000000E+00  0.1808487E-02
  0.4696970E+00  0.0000000E+00  0.2525252E-01  0.4195025E-03  0.0000000E+00  0.2109159E-02
  0.4797980E+00  0.0000000E+00  0.2525252E-01 -0.4264492E-03  0.0000000E+00  0.2186309E-02
  0.4898990E+00  0.0000000E+00  0.2525252E-01 -0.6712834E-03  0.0000000E+00  0.1962335E-02
  0.5000000E+00  0.0000000E+00  0.2525252E-01 -0.4850612E-03  0.0000000E+00  0.1800737E-02
  0.5101010E+00  0.0000000E+00  0.2525252E-01 -0.3881718E-03  0.0000000E+00  0.1669458E-02
  0.5202020E+00  0.0000000E+00  0.2525252E-01 -0.3117658E-03  0.0000000E+00  0.1567156E-02
  0.5303030E+00  0.0000000E+00  0.2525252E-01 -0.2944682E-03  0.0000000E+00  0.1430815E-02
  0.5404040E+00  0.0000000E+00  0.2525252E-01 -0.2968490E-03  0.0000000E+00  0.1279814E-02
  0.5505050E+00  0.0000000E+00  0.2525252E-01 -0.2713516E-03  0.0000000E+00  0.1167448E-02
  0.5606061E+00  0.0000000E+00  0.2525252E-01 -0.2339767E-03  0.0000000E+00  0.1079398E-02
  0.5707071E+00  0.0000000E+00  0.2525252E-01 -0.2031868E-03  0.0000000E+00  0.9970060E-03
  0.5808081E+00  0.0000000E+00  0.2525252E-01 -0.1812604E-03  0.0000000E+00  0.9198974E-03
  0.5909091E+00  0.0000000E+00  0.2525252E-01 -0.1672121E-03  0.0000000E+00  0.8459476E-03
  0.6010101E+00  0.0000000E+00  0.2525252E-01 -0.1503340E-03  0.0000000E+00  0.7767169E-03
  0.6111111E+00  0.0000000E+00  0.2525252E-01 -0.1349616E-03  0.0000000E+00  0.7153694E-03
  0.6212121E+00  0.0000000E+00  0.2525252E-01 -0.1217151E-03  0.0000000E+00  0.6607533E-03
  0.6313131E+00  0.0000000E+00  0.2525252E-01 -0.1102825E-03  0.0000000E+00  0.6116502E-03
  0.6414142E+00  0.0000000E+00  0.2525252E-01 -0.1002680E-03  0.0000000E+00  0.5672241E-03
  0.6515151E+00  0.0000000E+00  0.2525252E-01 -0.9137165E-04  0.0000000E+00  0.5268953E-03
  0.6616161E+00  0.0000000E+00  0.2525252E-01 -0.8339029E-04  0.0000000E+00  0.4902213E-03
  0.6717172E+00  0.0000000E+00  0.2525252E-01 -0.7618775E-04  0.0000000E+00  0.4568340E-03
  0.6818182E+00  0.0000000E+00  0.2525252E-01 -0.6966847E-04  0.0000000E+00  0.4264113E-03
  0.6919192E+00  0.0000000E+00  0.2525252E-01 -0.6375960E-04  0.0000000E+00  0.3986638E-03
  0.7020202E+00  0.0000000E+00  0.2525252E-01 -0.5840061E-04  0.0000000E+00  0.3733305E-03
  0.7121212E+00  0.0000000E+00  0.2525252E-01 -0.5353790E-04  0.0000000E+00  0.3501760E-03
  0.7222222E+00  0.0000000E+00  0.2525252E-01 -0.4912245E-04  0.0000000E+00  0.3289888E-03
  0.7323232E+00  0.0000000E+00  0.2525252E-01 -0.4510898E-04  0.0000000E+00  0.3095802E-03
  0.7424242E+00  0.0000000E+00  0.2525252E-01 -0.4145572E-04  0.0000000E+00  0.2917821E-03
  0.7525253E+00  0.0000000E+00  0.2525252E-01 -0.3812443E-04  0.0000000E+00  0.2754452E-03
  0.7626263E+00  0.0000000E+00  0.2525252E-01 -0.3508035E-04  0.0000000E+00  0.2604375E-03
  0.7727273E+00  0.0000000E+00  0.2525252E-01 -0.3229209E-04  0.0000000E+00  0.2466419E-03
  0.7828283E+00  0.0000000E+00  0.2525252E-01 -0.2973147E-04  0.0000000E+00  0.2339549E-03
  0.7929293E+00  0.0000000E+00  0.2525252E-01 -0.2737329E-04  0.0000000E+00  0.2222849E-03
  0.8030303E+00  0.0000000E+00  0.2525252E-01 -0.2519505E-04  0.0000000E+00  0.2115509E-03
  0.8131313E+00  0.0000000E+00  0.2525252E-01 -0.2317672E-04  0.0000000E+00  0.2016811E-03
  0.8232324E+00  0.0000000E+00  0.2525252E-01 -0.2130042E-04  0.0000000E+00  0.1926119E-03
  0.8333333E+00  0.0000000E+00  0.2525252E-01 -0.1955025E-04  0.0000000E+00  0.1842871E-03
  0.8434343E+00  0.0000000E+00  0.2525252E-01 -0.1791201E-04  0.0000000E+00  0.1766568E-03
  0.8535354E+00  0.0000000E+00  0.2525252E-01 -0.1637302E-04  0.0000000E+00  0.1696769E-03
  0.8636364E+00  0.0000000E+00  0.2525252E-01 -0.1492192E-04  0.0000000E+00  0.1633083E-03
  0.8737374E+00  0.0000000E+00  0.2525252E-01 -0.1354854E-04  0.0000000E+00  0.1575167E-03
  0.8838384E+00  0.0000000E+00  0.2525252E-01 -0.1224369E-04  0.0000000E+00  0.1522716E-03
  0.8939394E+00  0.0000000E+00  0.2525252E-01 -0.1099912E-04  0.0000000E+00  0.1475463E-03
  0.9040404E+00  0.0000000E+00  0.2525252E-01 -0.9807307E-05  0.0000000E+00  0.1433174E-03
  0.9141414E+00  0.0000000E+00  0.2525252E-01 -0.8661433E-05  0.0000000E+00  0.1395644E-03
  0.9242424E+00  0.0000000E+00  0.2525252E-01 -0.7555241E-05  0.0000000E+00  0.1362696E-03
  0.9343435E+00  0.0000000E+00  0.2525252E-01 -0.6482972E-05  0.0000000E+00  0.1334178E-03
  0.9444444E+00  0.0000000E+00  0.2525252E-01 -0.5439290E-05  0.0000000E+00  0.1309962E-03
  0.9545454E+00  0.0000000E+00  0.2525252E-01 -0.4419208E-05  0.0000000E+00  0.1289939E-03
  0.9646465E+00  0.0000000E+00  0.2525252E-01 -0.3418035E-05  0.0000000E+00  0.1274021E-03
  0.9747475E+00  0.0000000E+00  0.2525252E-01 -0.2431311E-05  0.0000000E+00  0.1262142E-03
  0.9848485E+00  0.0000000E+00  0.2525252E-01 -0.1454764E-05  0.0000000E+00  0.1254249E-03
  0.9974747E+00  0.0000000E+00  0.2525252E-01 -0.4842553E-06  0.0000000E+00  0.1250311E-03
  0.5050505E-02  0.0000000E+00  0.3535353E-01  0.8741237E-06  0.0000000E+00  0.1443509E-03
  0.1515152E-01  0.0000000E+00  0.3535353E-01  0.2626647E-05  0.0000000E+00  0.1448571E-03
  0.2525252E-01  0.0000000E+00  0.3535353E-01  0.4392090E-05  0.0000000E+00  0.1458719E-03
  0.3535353E-01  0.0000000E+00  0.3535353E-01  0.6179285E-05  0.0000000E+00  0.1474002E-03
  0.4545455E-01  0.0000000E+00  0.3535353E-01  0.7997346E-05  0.0000000E+00  0.1494496E-03
  0.5555556E-01  0.0000000E+00  0.3535353E-01  0.9855769E-05  0.0000000E+00  0.1520302E-03
  0.6565657E-01  0.0000000E+00  0.3535353E-01  0.1176454E-04  0.0000000E+00  0.1551553E-03
  0.7575758E-01  0.0000000E+00  0.3535353E-01  0.1373426E-04  0.0000000E+00  0.1588410E-03
  0.8585858E-01  0.0000000E+00  0.3535353E-01  0.1577627E-04  0.0000000E+00  0.1631067E-03
  0.9595960E-01  0.0000000E+00  0.3535353E-01  0.1790282E-04  0.0000000E+00  0.1679752E-03
  0.1060606E+00  0.0000000E+00  0.3535353E-01  0.2012720E-04  0.0000000E+00  0.1734732E-03
  0.1161616E+00  0.0000000E+00  0.3535353E-01  0.2246396E-04  0.0000000E+00  0.1796311E-03
  0.1262626E+00  0.0000000E+00  0.3535353E-01  0.2492912E-04  0.0000000E+00  0.1864844E-03
  0.1363636E+00  0.0000000E+00  0.3535353E-01  0.2754037E-04  0.0000000E+00  0.1940731E-03
  0.1464646E+00  0.0000000E+00  0.3535353E-01  0.3031736E-04  0.0000000E+00  0.2024429E-03
  0.1565657E+00  0.0000000E+00  0.3535353E-01  0.3328194E-04  0.0000000E+00  0.2116460E-03
  0.1666667E+00  0.0000000E+00  0.3535353E-01  0.3645846E-04  0.0000000E+00  0.2217413E-03
  0.1767677E+00  0.0000000E+00  0.3535353E-01  0.3987406E-04  0.0000000E+00  0.2327958E-03
  0.1868687E+00  0.0000000E+00  0.3535353E-01  0.4355888E-04  0.0000000E+00  0.2448856E-03
  0.1969697E+00  0.0000000E+00  0.3535353E-01  0.4754625E-04  0.0000000E+00  0.2580971E-03
  0.2070707E+00  0.0000000E+00  0.3535353E-01  0.5187266E-04  0.0000000E+00  0.2725283E-03
  0.2171717E+00  0.0000000E+00  0.3535353E-01  0.5657744E-04  0.0000000E+00  0.2882906E-03
  0.2272727E+00  0.0000000E+00  0.3535353E-01  0.6170196E-04  0.0000000E+00  0.3055101E-03
  0.2373737E+00  0.0000000E+00  0.3535353E-01  0.6728801E-04  0.0000000E+00  0.3243294E-03
  0.2474747E+00  0.0000000E+00  0.3535353E-01  0.7337512E-04  0.0000000E+00  0.3449079E-03
  0.2575758E+00  0.0000000E+00  0.3535353E-01  0.7999649E-04  0.0000000E+00  0.3674204E-03
  0.2676768E+00  0.0000000E+00  0.3535353E-01  0.8717411E-04  0.0000000E+00  0.3920516E-03
  0.2777778E+00  0.0000000E+00  0.3535353E-01  0.9491538E-04  0.0000000E+00  0.4189830E-03
  0.2878788E+00  0.0000000E+00  0.3535353E-01  0.1032183E-03  0.0000000E+00  0.4483690E-03
  0.2979798E+00  0.0000000E+00  0.3535353E-01  0.1121020E-03  0.0000000E+00  0.4803034E-03