title = "dataset water"
variables = "x", "y", "z", "vx", "vy", "vz"
zone t = "velocities, solution time =  2.300E+01 days        " i =   99, j =   99, k =    1,  f=point
  0.5050505E-02  0.0000000E+00  0.5050505E-02  0.4298551E-09  0.0000000E+00 -0.1393394E-04
  0.1515152E-01  0.0000000E+00  0.5050505E-02  0.1288979E-08  0.0000000E+00 -0.1393222E-04
  0.2525252E-01  0.0000000E+00  0.5050505E-02  0.2146324E-08  0.0000000E+00 -0.1392877E-04
  0.3535353E-01  0.0000000E+00  0.5050505E-02  0.3000671E-08  0.0000000E+00 -0.1392362E-04
  0.4545455E-01  0.0000000E+00  0.5050505E-02  0.3850753E-08  0.0000000E+00 -0.1391676E-04
  0.5555556E-01  0.0000000E+00  0.5050505E-02  0.4695234E-08  0.0000000E+00 -0.1390819E-04
  0.6565657E-01  0.0000000E+00  0.5050505E-02  0.5532687E-08  0.0000000E+00 -0.1389795E-04
  0.7575758E-01  0.0000000E+00  0.5050505E-02  0.6361584E-08  0.0000000E+00 -0.1388603E-04
  0.8585858E-01  0.0000000E+00  0.5050505E-02  0.7180268E-08  0.0000000E+00 -0.1387247E-04
  0.9595960E-01  0.0000000E+00  0.5050505E-02  0.7986942E-08  0.0000000E+00 -0.1385728E-04
  0.1060606E+00  0.0000000E+00  0.5050505E-02  0.8779651E-08  0.0000000E+00 -0.1384048E-04
  0.1161616E+00  0.0000000E+00  0.5050505E-02  0.9556269E-08  0.0000000E+00 -0.1382212E-04
  0.1262626E+00  0.0000000E+00  0.5050505E-02  0.1031448E-07  0.0000000E+00 -0.1380221E-04
  0.1363636E+00  0.0000000E+00  0.5050505E-02  0.1105177E-07  0.0000000E+00 -0.1378081E-04
  0.1464646E+00  0.0000000E+00  0.5050505E-02  0.1176543E-07  0.0000000E+00 -0.1375795E-04
  0.1565657E+00  0.0000000E+00  0.5050505E-02  0.1245252E-07  0.0000000E+00 -0.1373369E-04
  0.1666667E+00  0.0000000E+00  0.5050505E-02  0.1310990E-07  0.0000000E+00 -0.1370809E-04
  0.1767677E+00  0.0000000E+00  0.5050505E-02  0.1373420E-07  0.0000000E+00 -0.1368120E-04
  0.1868687E+00  0.0000000E+00  0.5050505E-02  0.1432183E-07  0.0000000E+00 -0.1365310E-04
  0.1969697E+00  0.0000000E+00  0.5050505E-02  0.1486904E-07  0.0000000E+00 -0.1362386E-04
  0.2070707E+00  0.0000000E+00  0.5050505E-02  0.1537184E-07  0.0000000E+00 -0.1359357E-04
  0.2171717E+00  0.0000000E+00  0.5050505E-02  0.1582611E-07  0.0000000E+00 -0.1356232E-04
  0.2272727E+00  0.0000000E+00  0.5050505E-02  0.1622758E-07  0.0000000E+00 -0.1353021E-04
  0.2373737E+00  0.0000000E+00  0.5050505E-02  0.1657188E-07  0.0000000E+00 -0.1349735E-04
  0.2474747E+00  0.0000000E+00  0.5050505E-02  0.1685457E-07  0.0000000E+00 -0.1346387E-04
  0.2575758E+00  0.0000000E+00  0.5050505E-02  0.1707121E-07  0.0000000E+00 -0.1342989E-04
  0.2676768E+00  0.0000000E+00  0.5050505E-02  0.1721742E-07  0.0000000E+00 -0.1339555E-04
  0.2777778E+00  0.0000000E+00  0.5050505E-02  0.1728891E-07  0.0000000E+00 -0.1336098E-04
  0.2878788E+00  0.0000000E+00  0.5050505E-02  0.1728162E-07  0.0000000E+00 -0.1332636E-04
  0.2979798E+00  0.0000000E+00  0.5050505E-02  0.1719173E-07  0.0000000E+00 -0.1329183E-04
  0.3080808E+00  0.0000000E+00  0.5050505E-02  0.1701582E-07  0.0000000E+00 -0.1325756E-04
  0.3181818E+00  0.0000000E+00  0.5050505E-02  0.1675090E-07  0.0000000E+00 -0.1322374E-04
  0.3282828E+00  0.0000000E+00  0.5050505E-02  0.1639455E-07  0.0000000E+00 -0.1319054E-04
  0.3383838E+00  0.0000000E+00  0.5050505E-02  0.1594500E-07  0.0000000E+00 -0.1315815E-04
  0.3484848E+00  0.0000000E+00  0.5050505E-02  0.1540124E-07  0.0000000E+00 -0.1312675E-04
  0.3585859E+00  0.0000000E+00  0.5050505E-02  0.1476308E-07  0.0000000E+00 -0.1309654E-04
  0.3686869E+00  0.0000000E+00  0.5050505E-02  0.1403125E-07  0.0000000E+00 -0.1306770E-04
  0.3787879E+00  0.0000000E+00  0.5050505E-02  0.1320748E-07  0.0000000E+00 -0.1304042E-04
  0.3888889E+00  0.0000000E+00  0.5050505E-02  0.1229453E-07  0.0000000E+00 -0.1301488E-04
  0.3989899E+00  0.0000000E+00  0.5050505E-02  0.1129625E-07  0.0000000E+00 -0.1299125E-04
  0.4090909E+00  0.0000000E+00  0.5050505E-02  0.1021756E-07  0.0000000E+00 -0.1296970E-04
  0.4191919E+00  0.0000000E+00  0.5050505E-02  0.9064464E-08  0.0000000E+00 -0.1295039E-04
  0.4292929E+00  0.0000000E+00  0.5050505E-02  0.7843997E-08  0.0000000E+00 -0.1293345E-04
  0.4393939E+00  0.0000000E+00  0.5050505E-02  0.6564169E-08  0.0000000E+00 -0.1291902E-04
  0.4494950E+00  0.0000000E+00  0.5050505E-02  0.5233864E-08  0.0000000E+00 -0.1290720E-04
  0.4595959E+00  0.0000000E+00  0.5050505E-02  0.3862725E-08  0.0000000E+00 -0.1289809E-04
  0.4696970E+00  0.0000000E+00  0.5050505E-02  0.2461018E-08  0.0000000E+00 -0.1289176E-04
  0.4797980E+00  0.0000000E+00  0.5050505E-02  0.1039469E-08  0.0000000E+00 -0.1288825E-04
  0.4898990E+00  0.0000000E+00  0.5050505E-02 -0.3909061E-09  0.0000000E+00 -0.1288760E-04
  0.5000000E+00  0.0000000E+00  0.5050505E-02 -0.1818982E-08  0.0000000E+00 -0.1288982E-04
  0.5101010E+00  0.0000000E+00  0.5050505E-02 -0.3233709E-08  0.0000000E+00 -0.1289488E-04
  0.5202020E+00  0.0000000E+00  0.5050505E-02 -0.4624293E-08  0.0000000E+00 -0.1290275E-04
  0.5303030E+00  0.0000000E+00  0.5050505E-02 -0.5980366E-08  0.0000000E+00 -0.1291337E-04
  0.5404040E+00  0.0000000E+00  0.5050505E-02 -0.7292143E-08  0.0000000E+00 -0.1292666E-04
  0.5505050E+00  0.0000000E+00  0.5050505E-02 -0.8550564E-08  0.0000000E+00 -0.1294253E-04
  0.5606061E+00  0.0000000E+00  0.5050505E-02 -0.9747406E-08  0.0000000E+00 -0.1296086E-04
  0.5707071E+00  0.0000000E+00  0.5050505E-02 -0.1087538E-07  0.0000000E+00 -0.1298151E-04
  0.5808081E+00  0.0000000E+00  0.5050505E-02 -0.1192818E-07  0.0000000E+00 -0.1300435E-04
  0.5909091E+00  0.0000000E+00  0.5050505E-02 -0.1290056E-07  0.0000000E+00 -0.1302922E-04
  0.6010101E+00  0.0000000E+00  0.5050505E-02 -0.1378831E-07  0.0000000E+00 -0.1305595E-04
  0.6111111E+00  0.0000000E+00  0.5050505E-02 -0.1458828E-07  0.0000000E+00 -0.1308438E-04
  0.6212121E+00  0.0000000E+00  0.5050505E-02 -0.1529832E-07  0.0000000E+00 -0.1311431E-04
  0.6313131E+00  0.0000000E+00  0.5050505E-02 -0.1591725E-07  0.0000000E+00 -0.1314558E-04
  0.6414142E+00  0.0000000E+00  0.5050505E-02 -0.1644482E-07  0.0000000E+00 -0.1317799E-04
  0.6515151E+00  0.0000000E+00  0.5050505E-02 -0.1688158E-07  0.0000000E+00 -0.1321137E-04
  0.6616161E+00  0.0000000E+00  0.5050505E-02 -0.1722884E-07  0.0000000E+00 -0.1324554E-04
  0.6717172E+00  0.0000000E+00  0.5050505E-02 -0.1748860E-07  0.0000000E+00 -0.1328031E-04
  0.6818182E+00  0.0000000E+00  0.5050505E-02 -0.1766339E-07  0.0000000E+00 -0.1331552E-04
  0.6919192E+00  0.0000000E+00  0.5050505E-02 -0.1775625E-07  0.0000000E+00 -0.1335100E-04
  0.7020202E+00  0.0000000E+00  0.5050505E-02 -0.1777060E-07  0.0000000E+00 -0.1338658E-04
  0.7121212E+00  0.0000000E+00  0.5050505E-02 -0.1771019E-07  0.0000000E+00 -0.1342212E-04
  0.7222222E+00  0.0000000E+00  0.5050505E-02 -0.1757897E-07  0.0000000E+00 -0.1345747E-04
  0.7323232E+00  0.0000000E+00  0.5050505E-02 -0.1738106E-07  0.0000000E+00 -0.1349249E-04
  0.7424242E+00  0.0000000E+00  0.5050505E-02 -0.1712069E-07  0.0000000E+00 -0.1352704E-04
  0.7525253E+00  0.0000000E+00  0.5050505E-02 -0.1680209E-07  0.0000000E+00 -0.1356102E-04
  0.7626263E+00  0.0000000E+00  0.5050505E-02 -0.1642948E-07  0.0000000E+00 -0.1359431E-04
  0.7727273E+00  0.0000000E+00  0.5050505E-02 -0.1600704E-07  0.0000000E+00 -0.1362680E-04
  0.7828283E+00  0.0000000E+00  0.5050505E-02 -0.1553880E-07  0.0000000E+00 -0.1365840E-04
  0.7929293E+00  0.0000000E+00  0.5050505E-02 -0.1502870E-07  0.0000000E+00 -0.1368902E-04
  0.8030303E+00  0.0000000E+00  0.5050505E-02 -0.1448048E-07  0.0000000E+00 -0.1371858E-04
  0.8131313E+00  0.0000000E+00  0.5050505E-02 -0.1389774E-07  0.0000000E+00 -0.1374700E-04
  0.8232324E+00  0.0000000E+00  0.5050505E-02 -0.1328385E-07  0.0000000E+00 -0.1377423E-04
  0.8333333E+00  0.0000000E+00  0.5050505E-02 -0.1264201E-07  0.0000000E+00 -0.1380020E-04
  0.8434343E+00  0.0000000E+00  0.5050505E-02 -0.1197518E-07  0.0000000E+00 -0.1382486E-04
  0.8535354E+00  0.0000000E+00  0.5050505E-02 -0.1128613E-07  0.0000000E+00 -0.1384816E-04
  0.8636364E+00  0.0000000E+00  0.5050505E-02 -0.1057741E-07  0.0000000E+00 -0.1387006E-04
  0.8737374E+00  0.0000000E+00  0.5050505E-02 -0.9851375E-08  0.0000000E+00 -0.1389052E-04
  0.8838384E+00  0.0000000E+00  0.5050505E-02 -0.9110175E-08  0.0000000E+00 -0.1390952E-04
  0.8939394E+00  0.0000000E+00  0.5050505E-02 -0.8355770E-08  0.0000000E+00 -0.1392701E-04
  0.9040404E+00  0.0000000E+00  0.5050505E-02 -0.7589942E-08  0.0000000E+00 -0.1394299E-04
  0.9141414E+00  0.0000000E+00  0.5050505E-02 -0.6814307E-08  0.0000000E+00 -0.1395742E-04
  0.9242424E+00  0.0000000E+00  0.5050505E-02 -0.6030326E-08  0.0000000E+00 -0.1397028E-04
  0.9343435E+00  0.0000000E+00  0.5050505E-02 -0.5239317E-08  0.0000000E+00 -0.1398157E-04
  0.9444444E+00  0.0000000E+00  0.5050505E-02 -0.4442477E-08  0.0000000E+00 -0.1399127E-04
  0.9545454E+00  0.0000000E+00  0.5050505E-02 -0.3640891E-08  0.0000000E+00 -0.1399937E-04
  0.9646465E+00  0.0000000E+00  0.5050505E-02 -0.2835551E-08  0.0000000E+00 -0.1400585E-04
  0.9747475E+00  0.0000000E+00  0.5050505E-02 -0.2027370E-08  0.0000000E+00 -0.1401073E-04
  0.9848485E+00  0.0000000E+00  0.5050505E-02 -0.1217205E-08  0.0000000E+00 -0.1401398E-04
  0.9974747E+00  0.0000000E+00  0.5050505E-02 -0.4058652E-09  0.0000000E+00 -0.1401560E-04
  0.5050505E-02  0.0000000E+00  0.1515152E-01  0.1292153E-08  0.0000000E+00 -0.1390557E-04
  0.1515152E-01  0.0000000E+00  0.1515152E-01  0.3874708E-08  0.0000000E+00 -0.1390384E-04
  0.2525252E-01  0.0000000E+00  0.1515152E-01  0.6451956E-08  0.0000000E+00 -0.1390036E-04
  0.3535353E-01  0.0000000E+00  0.1515152E-01  0.9020257E-08  0.0000000E+00 -0.1389516E-04
  0.4545455E-01  0.0000000E+00  0.1515152E-01  0.1157583E-07  0.0000000E+00 -0.1388824E-04
  0.5555556E-01  0.0000000E+00  0.1515152E-01  0.1411467E-07  0.0000000E+00 -0.1387960E-04
  0.6565657E-01  0.0000000E+00  0.1515152E-01  0.1663253E-07  0.0000000E+00 -0.1386926E-04
  0.7575758E-01  0.0000000E+00  0.1515152E-01  0.1912483E-07  0.0000000E+00 -0.1385724E-04
  0.8585858E-01  0.0000000E+00  0.1515152E-01  0.2158662E-07  0.0000000E+00 -0.1384355E-04
  0.9595960E-01  0.0000000E+00  0.1515152E-01  0.2401251E-07  0.0000000E+00 -0.1382821E-04
  0.1060606E+00  0.0000000E+00  0.1515152E-01  0.2639666E-07  0.0000000E+00 -0.1381126E-04
  0.1161616E+00  0.0000000E+00  0.1515152E-01  0.2873268E-07  0.0000000E+00 -0.1379271E-04
  0.1262626E+00  0.0000000E+00  0.1515152E-01  0.3101363E-07  0.0000000E+00 -0.1377262E-04
  0.1363636E+00  0.0000000E+00  0.1515152E-01  0.3323198E-07  0.0000000E+00 -0.1375101E-04
  0.1464646E+00  0.0000000E+00  0.1515152E-01  0.3537958E-07  0.0000000E+00 -0.1372792E-04
  0.1565657E+00  0.0000000E+00  0.1515152E-01  0.3744761E-07  0.0000000E+00 -0.1370342E-04
  0.1666667E+00  0.0000000E+00  0.1515152E-01  0.3942662E-07  0.0000000E+00 -0.1367755E-04
  0.1767677E+00  0.0000000E+00  0.1515152E-01  0.4130648E-07  0.0000000E+00 -0.1365039E-04
  0.1868687E+00  0.0000000E+00  0.1515152E-01  0.4307645E-07  0.0000000E+00 -0.1362199E-04
  0.1969697E+00  0.0000000E+00  0.1515152E-01  0.4472516E-07  0.0000000E+00 -0.1359243E-04
  0.2070707E+00  0.0000000E+00  0.1515152E-01  0.4624065E-07  0.0000000E+00 -0.1356181E-04
  0.2171717E+00  0.0000000E+00  0.1515152E-01  0.4761049E-07  0.0000000E+00 -0.1353021E-04
  0.2272727E+00  0.0000000E+00  0.1515152E-01  0.4882180E-07  0.0000000E+00 -0.1349774E-04
  0.2373737E+00  0.0000000E+00  0.1515152E-01  0.4986139E-07  0.0000000E+00 -0.1346450E-04
  0.2474747E+00  0.0000000E+00  0.1515152E-01  0.5071589E-07  0.0000000E+00 -0.1343063E-04
  0.2575758E+00  0.0000000E+00  0.1515152E-01  0.5137189E-07  0.0000000E+00 -0.1339624E-04
  0.2676768E+00  0.0000000E+00  0.1515152E-01  0.5181610E-07  0.0000000E+00 -0.1336147E-04
  0.2777778E+00  0.0000000E+00  0.1515152E-01  0.5203562E-07  0.0000000E+00 -0.1332647E-04
  0.2878788E+00  0.0000000E+00  0.1515152E-01  0.5201808E-07  0.0000000E+00 -0.1329140E-04
  0.2979798E+00  0.0000000E+00  0.1515152E-01  0.5175195E-07  0.0000000E+00 -0.1325642E-04
  0.3080808E+00  0.0000000E+00  0.1515152E-01  0.5122681E-07  0.0000000E+00 -0.1322170E-04
  0.3181818E+00  0.0000000E+00  0.1515152E-01  0.5043359E-07  0.0000000E+00 -0.1318742E-04
  0.3282828E+00  0.0000000E+00  0.1515152E-01  0.4936491E-07  0.0000000E+00 -0.1315376E-04
  0.3383838E+00  0.0000000E+00  0.1515152E-01  0.4801535E-07  0.0000000E+00 -0.1312092E-04
  0.3484848E+00  0.0000000E+00  0.1515152E-01  0.4638172E-07  0.0000000E+00 -0.1308907E-04
  0.3585859E+00  0.0000000E+00  0.1515152E-01  0.4446340E-07  0.0000000E+00 -0.1305842E-04
  0.3686869E+00  0.0000000E+00  0.1515152E-01  0.4226251E-07  0.0000000E+00 -0.1302915E-04
  0.3787879E+00  0.0000000E+00  0.1515152E-01  0.3978417E-07  0.0000000E+00 -0.1300146E-04
  0.3888889E+00  0.0000000E+00  0.1515152E-01  0.3703666E-07  0.0000000E+00 -0.1297552E-04
  0.3989899E+00  0.0000000E+00  0.1515152E-01  0.3403151E-07  0.0000000E+00 -0.1295153E-04
  0.4090909E+00  0.0000000E+00  0.1515152E-01  0.3078354E-07  0.0000000E+00 -0.1292965E-04
  0.4191919E+00  0.0000000E+00  0.1515152E-01  0.2731082E-07  0.0000000E+00 -0.1291003E-04
  0.4292929E+00  0.0000000E+00  0.1515152E-01  0.2363459E-07  0.0000000E+00 -0.1289282E-04
  0.4393939E+00  0.0000000E+00  0.1515152E-01  0.1977900E-07  0.0000000E+00 -0.1287816E-04
  0.4494950E+00  0.0000000E+00  0.1515152E-01  0.1577089E-07  0.0000000E+00 -0.1286615E-04
  0.4595959E+00  0.0000000E+00  0.1515152E-01  0.1163940E-07  0.0000000E+00 -0.1285690E-04
  0.4696970E+00  0.0000000E+00  0.1515152E-01  0.7415555E-08  0.0000000E+00 -0.1285046E-04
  0.4797980E+00  0.0000000E+00  0.1515152E-01  0.3131776E-08  0.0000000E+00 -0.1284690E-04
  0.4898990E+00  0.0000000E+00  0.1515152E-01 -0.1178629E-08  0.0000000E+00 -0.1284624E-04
  0.5000000E+00  0.0000000E+00  0.1515152E-01 -0.5482024E-08  0.0000000E+00 -0.1284849E-04
  0.5101010E+00  0.0000000E+00  0.1515152E-01 -0.9745003E-08  0.0000000E+00 -0.1285363E-04
  0.5202020E+00  0.0000000E+00  0.1515152E-01 -0.1393494E-07  0.0000000E+00 -0.1286163E-04
  0.5303030E+00  0.0000000E+00  0.1515152E-01 -0.1802050E-07  0.0000000E+00 -0.1287243E-04
  0.5404040E+00  0.0000000E+00  0.1515152E-01 -0.2197212E-07  0.0000000E+00 -0.1288593E-04
  0.5505050E+00  0.0000000E+00  0.1515152E-01 -0.2576246E-07  0.0000000E+00 -0.1290206E-04
  0.5606061E+00  0.0000000E+00  0.1515152E-01 -0.2936670E-07  0.0000000E+00 -0.1292067E-04
  0.5707071E+00  0.0000000E+00  0.1515152E-01 -0.3276285E-07  0.0000000E+00 -0.1294165E-04
  0.5808081E+00  0.0000000E+00  0.1515152E-01 -0.3593196E-07  0.0000000E+00 -0.1296484E-04
  0.5909091E+00  0.0000000E+00  0.1515152E-01 -0.3885821E-07  0.0000000E+00 -0.1299008E-04
  0.6010101E+00  0.0000000E+00  0.1515152E-01 -0.4152899E-07  0.0000000E+00 -0.1301721E-04
  0.6111111E+00  0.0000000E+00  0.1515152E-01 -0.4393483E-07  0.0000000E+00 -0.1304605E-04
  0.6212121E+00  0.0000000E+00  0.1515152E-01 -0.4606935E-07  0.0000000E+00 -0.1307642E-04
  0.6313131E+00  0.0000000E+00  0.1515152E-01 -0.4792910E-07  0.0000000E+00 -0.1310813E-04
  0.6414142E+00  0.0000000E+00  0.1515152E-01 -0.4951336E-07  0.0000000E+00 -0.1314099E-04
  0.6515151E+00  0.0000000E+00  0.1515152E-01 -0.5082393E-07  0.0000000E+00 -0.1317483E-04
  0.6616161E+00  0.0000000E+00  0.1515152E-01 -0.5186485E-07  0.0000000E+00 -0.1320945E-04
  0.6717172E+00  0.0000000E+00  0.1515152E-01 -0.5264218E-07  0.0000000E+00 -0.1324468E-04
  0.6818182E+00  0.0000000E+00  0.1515152E-01 -0.5316368E-07  0.0000000E+00 -0.1328034E-04
  0.6919192E+00  0.0000000E+00  0.1515152E-01 -0.5343857E-07  0.0000000E+00 -0.1331627E-04
  0.7020202E+00  0.0000000E+00  0.1515152E-01 -0.5347723E-07  0.0000000E+00 -0.1335229E-04
  0.7121212E+00  0.0000000E+00  0.1515152E-01 -0.5329099E-07  0.0000000E+00 -0.1338826E-04
  0.7222222E+00  0.0000000E+00  0.1515152E-01 -0.5289184E-07  0.0000000E+00 -0.1342403E-04
  0.7323232E+00  0.0000000E+00  0.1515152E-01 -0.5229225E-07  0.0000000E+00 -0.1345945E-04
  0.7424242E+00  0.0000000E+00  0.1515152E-01 -0.5150495E-07  0.0000000E+00 -0.1349440E-04
  0.7525253E+00  0.0000000E+00  0.1515152E-01 -0.5054274E-07  0.0000000E+00 -0.1352876E-04
  0.7626263E+00  0.0000000E+00  0.1515152E-01 -0.4941837E-07  0.0000000E+00 -0.1356241E-04
  0.7727273E+00  0.0000000E+00  0.1515152E-01 -0.4814438E-07  0.0000000E+00 -0.1359525E-04
  0.7828283E+00  0.0000000E+00  0.1515152E-01 -0.4673299E-07  0.0000000E+00 -0.1362718E-04
  0.7929293E+00  0.0000000E+00  0.1515152E-01 -0.4519600E-07  0.0000000E+00 -0.1365811E-04
  0.8030303E+00  0.0000000E+00  0.1515152E-01 -0.4354474E-07  0.0000000E+00 -0.1368797E-04
  0.8131313E+00  0.0000000E+00  0.1515152E-01 -0.4178997E-07  0.0000000E+00 -0.1371668E-04
  0.8232324E+00  0.0000000E+00  0.1515152E-01 -0.3994188E-07  0.0000000E+00 -0.1374418E-04
  0.8333333E+00  0.0000000E+00  0.1515152E-01 -0.3801004E-07  0.0000000E+00 -0.1377040E-04
  0.8434343E+00  0.0000000E+00  0.1515152E-01 -0.3600340E-07  0.0000000E+00 -0.1379529E-04
  0.8535354E+00  0.0000000E+00  0.1515152E-01 -0.3393025E-07  0.0000000E+00 -0.1381881E-04
  0.8636364E+00  0.0000000E+00  0.1515152E-01 -0.3179825E-07  0.0000000E+00 -0.1384091E-04
  0.8737374E+00  0.0000000E+00  0.1515152E-01 -0.2961447E-07  0.0000000E+00 -0.1386156E-04
  0.8838384E+00  0.0000000E+00  0.1515152E-01 -0.2738535E-07  0.0000000E+00 -0.1388072E-04
  0.8939394E+00  0.0000000E+00  0.1515152E-01 -0.2511678E-07  0.0000000E+00 -0.1389837E-04
  0.9040404E+00  0.0000000E+00  0.1515152E-01 -0.2281409E-07  0.0000000E+00 -0.1391449E-04
  0.9141414E+00  0.0000000E+00  0.1515152E-01 -0.2048212E-07  0.0000000E+00 -0.1392904E-04
  0.9242424E+00  0.0000000E+00  0.1515152E-01 -0.1812523E-07  0.0000000E+00 -0.1394202E-04
  0.9343435E+00  0.0000000E+00  0.1515152E-01 -0.1574739E-07  0.0000000E+00 -0.1395340E-04
  0.9444444E+00  0.0000000E+00  0.1515152E-01 -0.1335216E-07  0.0000000E+00 -0.1396319E-04
  0.9545454E+00  0.0000000E+00  0.1515152E-01 -0.1094278E-07  0.0000000E+00 -0.1397135E-04
  0.9646465E+00  0.0000000E+00  0.1515152E-01 -0.8522208E-08  0.0000000E+00 -0.1397789E-04
  0.9747475E+00  0.0000000E+00  0.1515152E-01 -0.6093179E-08  0.0000000E+00 -0.1398281E-04
  0.9848485E+00  0.0000000E+00  0.1515152E-01 -0.3658237E-08  0.0000000E+00 -0.1398608E-04
  0.9974747E+00  0.0000000E+00  0.1515152E-01 -0.1219800E-08  0.0000000E+00 -0.1398772E-04
  0.5050505E-02  0.0000000E+00  0.2525252E-01  0.2163472E-08  0.0000000E+00 -0.1384896E-04
  0.1515152E-01  0.0000000E+00  0.2525252E-01  0.6487522E-08  0.0000000E+00 -0.1384719E-04
  0.2525252E-01  0.0000000E+00  0.2525252E-01  0.1080281E-07  0.0000000E+00 -0.1384366E-04
  0.3535353E-01  0.0000000E+00  0.2525252E-01  0.1510334E-07  0.0000000E+00 -0.1383837E-04
  0.4545455E-01  0.0000000E+00  0.2525252E-01  0.1938285E-07  0.0000000E+00 -0.1383132E-04
  0.5555556E-01  0.0000000E+00  0.2525252E-01  0.2363474E-07  0.0000000E+00 -0.1382252E-04
  0.6565657E-01  0.0000000E+00  0.2525252E-01  0.2785196E-07  0.0000000E+00 -0.1381200E-04
  0.7575758E-01  0.0000000E+00  0.2525252E-01  0.3202693E-07  0.0000000E+00 -0.1379975E-04
  0.8585858E-01  0.0000000E+00  0.2525252E-01  0.3615144E-07  0.0000000E+00 -0.1378581E-04
  0.9595960E-01  0.0000000E+00  0.2525252E-01  0.4021654E-07  0.0000000E+00 -0.1377019E-04
  0.1060606E+00  0.0000000E+00  0.2525252E-01  0.4421250E-07  0.0000000E+00 -0.1375292E-04
  0.1161616E+00  0.0000000E+00  0.2525252E-01  0.4812871E-07  0.0000000E+00 -0.1373403E-04
  0.1262626E+00  0.0000000E+00  0.2525252E-01  0.5195361E-07  0.0000000E+00 -0.1371355E-04
  0.1363636E+00  0.0000000E+00  0.2525252E-01  0.5567463E-07  0.0000000E+00 -0.1369152E-04
  0.1464646E+00  0.0000000E+00  0.2525252E-01  0.5927815E-07  0.0000000E+00 -0.1366798E-04
  0.1565657E+00  0.0000000E+00  0.2525252E-01  0.6274945E-07  0.0000000E+00 -0.1364299E-04
  0.1666667E+00  0.0000000E+00  0.2525252E-01  0.6607270E-07  0.0000000E+00 -0.1361660E-04
  0.1767677E+00  0.0000000E+00  0.2525252E-01  0.6923098E-07  0.0000000E+00 -0.1358887E-04
  0.1868687E+00  0.0000000E+00  0.2525252E-01  0.7220623E-07  0.0000000E+00 -0.1355987E-04
  0.1969697E+00  0.0000000E+00  0.2525252E-01  0.7497938E-07  0.0000000E+00 -0.1352969E-04
  0.2070707E+00  0.0000000E+00  0.2525252E-01  0.7753038E-07  0.0000000E+00 -0.1349840E-04
  0.2171717E+00  0.0000000E+00  0.2525252E-01  0.7983828E-07  0.0000000E+00 -0.1346610E-04
  0.2272727E+00  0.0000000E+00  0.2525252E-01  0.8188142E-07  0.0000000E+00 -0.1343290E-04
  0.2373737E+00  0.0000000E+00  0.2525252E-01  0.8363757E-07  0.0000000E+00 -0.1339890E-04
  0.2474747E+00  0.0000000E+00  0.2525252E-01  0.8508415E-07  0.0000000E+00 -0.1336423E-04
  0.2575758E+00  0.0000000E+00  0.2525252E-01  0.8619848E-07  0.0000000E+00 -0.1332901E-04
  0.2676768E+00  0.0000000E+00  0.2525252E-01  0.8695810E-07  0.0000000E+00 -0.1329340E-04
  0.2777778E+00  0.0000000E+00  0.2525252E-01  0.8734109E-07  0.0000000E+00 -0.1325753E-04
  0.2878788E+00  0.0000000E+00  0.2525252E-01  0.8732647E-07  0.0000000E+00 -0.1322157E-04
  0.2979798E+00  0.0000000E+00  0.2525252E-01  0.8689462E-07  0.0000000E+00 -0.1318568E-04
  0.3080808E+00  0.0000000E+00  0.2525252E-01  0.8602770E-07  0.0000000E+00 -0.1315004E-04
  0.3181818E+00  0.0000000E+00  0.2525252E-01  0.8471019E-07  0.0000000E+00 -0.1311484E-04
  0.3282828E+00  0.0000000E+00  0.2525252E-01  0.8292937E-07  0.0000000E+00 -0.1308026E-04
  0.3383838E+00  0.0000000E+00  0.2525252E-01  0.8067578E-07  0.0000000E+00 -0.1304649E-04
  0.3484848E+00  0.0000000E+00  0.2525252E-01  0.7794378E-07  0.0000000E+00 -0.1301374E-04
  0.3585859E+00  0.0000000E+00  0.2525252E-01  0.7473199E-07  0.0000000E+00 -0.1298220E-04
  0.3686869E+00  0.0000000E+00  0.2525252E-01  0.7104372E-07  0.0000000E+00 -0.1295207E-04
  0.3787879E+00  0.0000000E+00  0.2525252E-01  0.6688733E-07  0.0000000E+00 -0.1292355E-04
  0.3888889E+00  0.0000000E+00  0.2525252E-01  0.6227654E-07  0.0000000E+00 -0.1289683E-04
  0.3989899E+00  0.0000000E+00  0.2525252E-01  0.5723058E-07  0.0000000E+00 -0.1287210E-04
  0.4090909E+00  0.0000000E+00  0.2525252E-01  0.5177431E-07  0.0000000E+00 -0.1284954E-04
  0.4191919E+00  0.0000000E+00  0.2525252E-01  0.4593814E-07  0.0000000E+00 -0.1282930E-04
  0.4292929E+00  0.0000000E+00  0.2525252E-01  0.3975782E-07  0.0000000E+00 -0.1281156E-04
  0.4393939E+00  0.0000000E+00  0.2525252E-01  0.3327414E-07  0.0000000E+00 -0.1279643E-04
  0.4494950E+00  0.0000000E+00  0.2525252E-01  0.2653245E-07  0.0000000E+00 -0.1278404E-04
  0.4595959E+00  0.0000000E+00  0.2525252E-01  0.1958203E-07  0.0000000E+00 -0.1277448E-04
  0.4696970E+00  0.0000000E+00  0.2525252E-01  0.1247538E-07  0.0000000E+00 -0.1276784E-04
  0.4797980E+00  0.0000000E+00  0.2525252E-01  0.5267430E-08  0.0000000E+00 -0.1276416E-04
  0.4898990E+00  0.0000000E+00  0.2525252E-01 -0.1985425E-08  0.0000000E+00 -0.1276348E-04
  0.5000000E+00  0.0000000E+00  0.2525252E-01 -0.9226206E-08  0.0000000E+00 -0.1276581E-04
  0.5101010E+00  0.0000000E+00  0.2525252E-01 -0.1639834E-07  0.0000000E+00 -0.1277112E-04
  0.5202020E+00  0.0000000E+00  0.2525252E-01 -0.2344659E-07  0.0000000E+00 -0.1277938E-04
  0.5303030E+00  0.0000000E+00  0.2525252E-01 -0.3031794E-07  0.0000000E+00 -0.1279053E-04
  0.5404040E+00  0.0000000E+00  0.2525252E-01 -0.3696242E-07  0.0000000E+00 -0.1280447E-04
  0.5505050E+00  0.0000000E+00  0.2525252E-01 -0.4333381E-07  0.0000000E+00 -0.1282110E-04
  0.5606061E+00  0.0000000E+00  0.2525252E-01 -0.4939028E-07  0.0000000E+00 -0.1284030E-04
  0.5707071E+00  0.0000000E+00  0.2525252E-01 -0.5509478E-07  0.0000000E+00 -0.1286192E-04
  0.5808081E+00  0.0000000E+00  0.2525252E-01 -0.6041545E-07  0.0000000E+00 -0.1288582E-04
  0.5909091E+00  0.0000000E+00  0.2525252E-01 -0.6532579E-07  0.0000000E+00 -0.1291183E-04
  0.6010101E+00  0.0000000E+00  0.2525252E-01 -0.6980473E-07  0.0000000E+00 -0.1293976E-04
  0.6111111E+00  0.0000000E+00  0.2525252E-01 -0.7383657E-07  0.0000000E+00 -0.1296944E-04
  0.6212121E+00  0.0000000E+00  0.2525252E-01 -0.7741081E-07  0.0000000E+00 -0.1300068E-04
  0.6313131E+00  0.0000000E+00  0.2525252E-01 -0.8052193E-07  0.0000000E+00 -0.1303328E-04
  0.6414142E+00  0.0000000E+00  0.2525252E-01 -0.8316902E-07  0.0000000E+00 -0.1306705E-04
  0.6515151E+00  0.0000000E+00  0.2525252E-01 -0.8535541E-07  0.0000000E+00 -0.1310181E-04
  0.6616161E+00  0.0000000E+00  0.2525252E-01 -0.8708822E-07  0.0000000E+00 -0.1313735E-04
  0.6717172E+00  0.0000000E+00  0.2525252E-01 -0.8837792E-07  0.0000000E+00 -0.1317350E-04
  0.6818182E+00  0.0000000E+00  0.2525252E-01 -0.8923787E-07  0.0000000E+00 -0.1321007E-04
  0.6919192E+00  0.0000000E+00  0.2525252E-01 -0.8968382E-07  0.0000000E+00 -0.1324689E-04
  0.7020202E+00  0.0000000E+00  0.2525252E-01 -0.8973349E-07  0.0000000E+00 -0.1328380E-04
  0.7121212E+00  0.0000000E+00  0.2525252E-01 -0.8940612E-07  0.0000000E+00 -0.1332063E-04
  0.7222222E+00  0.0000000E+00  0.2525252E-01 -0.8872207E-07  0.0000000E+00 -0.1335724E-04
  0.7323232E+00  0.0000000E+00  0.2525252E-01 -0.8770244E-07  0.0000000E+00 -0.1339348E-04
  0.7424242E+00  0.0000000E+00  0.2525252E-01 -0.8636877E-07  0.0000000E+00 -0.1342922E-04
  0.7525253E+00  0.0000000E+00  0.2525252E-01 -0.8474268E-07  0.0000000E+00 -0.1346433E-04
  0.7626263E+00  0.0000000E+00  0.2525252E-01 -0.8284567E-07  0.0000000E+00 -0.1349871E-04
  0.7727273E+00  0.0000000E+00  0.2525252E-01 -0.8069885E-07  0.0000000E+00 -0.1353225E-04
  0.7828283E+00  0.0000000E+00  0.2525252E-01 -0.7832279E-07  0.0000000E+00 -0.1356485E-04
  0.7929293E+00  0.0000000E+00  0.2525252E-01 -0.7573733E-07  0.0000000E+00 -0.1359642E-04
  0.8030303E+00  0.0000000E+00  0.2525252E-01 -0.7296148E-07  0.0000000E+00 -0.1362687E-04
  0.8131313E+00  0.0000000E+00  0.2525252E-01 -0.7001330E-07  0.0000000E+00 -0.1365615E-04
  0.8232324E+00  0.0000000E+00  0.2525252E-01 -0.6690988E-07  0.0000000E+00 -0.1368418E-04
  0.8333333E+00  0.0000000E+00  0.2525252E-01 -0.6366724E-07  0.0000000E+00 -0.1371090E-04
  0.8434343E+00  0.0000000E+00  0.2525252E-01 -0.6030033E-07  0.0000000E+00 -0.1373626E-04
  0.8535354E+00  0.0000000E+00  0.2525252E-01 -0.5682303E-07  0.0000000E+00 -0.1376022E-04
  0.8636364E+00  0.0000000E+00  0.2525252E-01 -0.5324815E-07  0.0000000E+00 -0.1378272E-04
  0.8737374E+00  0.0000000E+00  0.2525252E-01 -0.4958744E-07  0.0000000E+00 -0.1380374E-04
  0.8838384E+00  0.0000000E+00  0.2525252E-01 -0.4585167E-07  0.0000000E+00 -0.1382325E-04
  0.8939394E+00  0.0000000E+00  0.2525252E-01 -0.4205063E-07  0.0000000E+00 -0.1384121E-04
  0.9040404E+00  0.0000000E+00  0.2525252E-01 -0.3819320E-07  0.0000000E+00 -0.1385761E-04
  0.9141414E+00  0.0000000E+00  0.2525252E-01 -0.3428742E-07  0.0000000E+00 -0.1387241E-04
  0.9242424E+00  0.0000000E+00  0.2525252E-01 -0.3034053E-07  0.0000000E+00 -0.1388561E-04
  0.9343435E+00  0.0000000E+00  0.2525252E-01 -0.2635908E-07  0.0000000E+00 -0.1389719E-04
  0.9444444E+00  0.0000000E+00  0.2525252E-01 -0.2234898E-07  0.0000000E+00 -0.1390714E-04
  0.9545454E+00  0.0000000E+00  0.2525252E-01 -0.1831560E-07  0.0000000E+00 -0.1391544E-04
  0.9646465E+00  0.0000000E+00  0.2525252E-01 -0.1426381E-07  0.0000000E+00 -0.1392209E-04
  0.9747475E+00  0.0000000E+00  0.2525252E-01 -0.1019811E-07  0.0000000E+00 -0.1392709E-04
  0.9848485E+00  0.0000000E+00  0.2525252E-01 -0.6122694E-08  0.0000000E+00 -0.1393042E-04
  0.9974747E+00  0.0000000E+00  0.2525252E-01 -0.2041534E-08  0.0000000E+00 -0.1393208E-04
  0.5050505E-02  0.0000000E+00  0.3535353E-01  0.3051516E-08  0.0000000E+00 -0.1376430E-04
  0.1515152E-01  0.0000000E+00  0.3535353E-01  0.9150553E-08  0.0000000E+00 -0.1376248E-04
  0.2525252E-01  0.0000000E+00  0.3535353E-01  0.1523751E-07  0.0000000E+00 -0.1375886E-04
  0.3535353E-01  0.0000000E+00  0.3535353E-01  0.2130409E-07  0.0000000E+00 -0.1375342E-04
  0.4545455E-01  0.0000000E+00  0.3535353E-01  0.2734166E-07  0.0000000E+00 -0.1374619E-04
  0.5555556E-01  0.0000000E+00  0.3535353E-01  0.3334108E-07  0.0000000E+00 -0.1373716E-04
  0.6565657E-01  0.0000000E+00  0.3535353E-01  0.3929257E-07  0.0000000E+00 -0.1372635E-04
  0.7575758E-01  0.0000000E+00  0.3535353E-01  0.4518562E-07  0.0000000E+00 -0.1371378E-04
  0.8585858E-01  0.0000000E+00  0.3535353E-01  0.5100879E-07  0.0000000E+00 -0.1369946E-04
  0.9595960E-01  0.0000000E+00  0.3535353E-01  0.5674964E-07  0.0000000E+00 -0.1368342E-04
  0.1060606E+00  0.0000000E+00  0.3535353E-01  0.6239459E-07  0.0000000E+00 -0.1366567E-04
  0.1161616E+00  0.0000000E+00  0.3535353E-01  0.6792880E-07  0.0000000E+00 -0.1364625E-04
  0.1262626E+00  0.0000000E+00  0.3535353E-01  0.7333608E-07  0.0000000E+00 -0.1362518E-04
  0.1363636E+00  0.0000000E+00  0.3535353E-01  0.7859881E-07  0.0000000E+00 -0.1360252E-04
  0.1464646E+00  0.0000000E+00  0.3535353E-01  0.8369786E-07  0.0000000E+00 -0.1357830E-04
  0.1565657E+00  0.0000000E+00  0.3535353E-01  0.8861254E-07  0.0000000E+00 -0.1355257E-04
  0.1666667E+00  0.0000000E+00  0.3535353E-01  0.9332054E-07  0.0000000E+00 -0.1352539E-04
  0.1767677E+00  0.0000000E+00  0.3535353E-01  0.9779797E-07  0.0000000E+00 -0.1349681E-04
  0.1868687E+00  0.0000000E+00  0.3535353E-01  0.1020194E-06  0.0000000E+00 -0.1346692E-04
  0.1969697E+00  0.0000000E+00  0.3535353E-01  0.1059577E-06  0.0000000E+00 -0.1343579E-04
  0.2070707E+00  0.0000000E+00  0.3535353E-01  0.1095845E-06  0.0000000E+00 -0.1340349E-04
  0.2171717E+00  0.0000000E+00  0.3535353E-01  0.1128702E-06  0.0000000E+00 -0.1337014E-04
  0.2272727E+00  0.0000000E+00  0.3535353E-01  0.1157838E-06  0.0000000E+00 -0.1333583E-04
  0.2373737E+00  0.0000000E+00  0.3535353E-01  0.1182937E-06  0.0000000E+00 -0.1330068E-04
  0.2474747E+00  0.0000000E+00  0.3535353E-01  0.1203678E-06  0.0000000E+00 -0.1326480E-04
  0.2575758E+00  0.0000000E+00  0.3535353E-01  0.1219735E-06  0.0000000E+00 -0.1322834E-04
  0.2676768E+00  0.0000000E+00  0.3535353E-01  0.1230786E-06  0.0000000E+00 -0.1319144E-04
  0.2777778E+00  0.0000000E+00  0.3535353E-01  0.1236517E-06  0.0000000E+00 -0.1315426E-04
  0.2878788E+00  0.0000000E+00  0.3535353E-01  0.1236625E-06  0.0000000E+00 -0.1311695E-04
  0.2979798E+00  0.0000000E+00  0.3535353E-01  0.1230826E-06  0.0000000E+00 -0.1307968E-04