title = "dataset water"
variables = "x", "y", "z", "vx", "vy", "vz"
zone t = "velocities, solution time =  3.700E+01 days        " i =   99, j =   99, k =    1,  f=point
  0.5050505E-02  0.0000000E+00  0.5050505E-02  0.2840311E-07  0.0000000E+00  0.2323736E-04
  0.1515152E-01  0.0000000E+00  0.5050505E-02  0.8531533E-07  0.0000000E+00  0.2335174E-04
  0.2525252E-01  0.0000000E+00  0.5050505E-02  0.1425467E-06  0.0000000E+00  0.2358092E-04
  0.3535353E-01  0.0000000E+00  0.5050505E-02  0.2003121E-06  0.0000000E+00  0.2392578E-04
  0.4545455E-01  0.0000000E+00  0.5050505E-02  0.2588291E-06  0.0000000E+00  0.2438761E-04
  0.5555556E-01  0.0000000E+00  0.5050505E-02  0.3183186E-06  0.0000000E+00  0.2496818E-04
  0.6565657E-01  0.0000000E+00  0.5050505E-02  0.3790055E-06  0.0000000E+00  0.2566968E-04
  0.7575758E-01  0.0000000E+00  0.5050505E-02  0.4411199E-06  0.0000000E+00  0.2649479E-04
  0.8585858E-01  0.0000000E+00  0.5050505E-02  0.5048977E-06  0.0000000E+00  0.2744666E-04
  0.9595960E-01  0.0000000E+00  0.5050505E-02  0.5705816E-06  0.0000000E+00  0.2852891E-04
  0.1060606E+00  0.0000000E+00  0.5050505E-02  0.6384222E-06  0.0000000E+00  0.2974570E-04
  0.1161616E+00  0.0000000E+00  0.5050505E-02  0.7086790E-06  0.0000000E+00  0.3110166E-04
  0.1262626E+00  0.0000000E+00  0.5050505E-02  0.7816212E-06  0.0000000E+00  0.3260202E-04
  0.1363636E+00  0.0000000E+00  0.5050505E-02  0.8575292E-06  0.0000000E+00  0.3425254E-04
  0.1464646E+00  0.0000000E+00  0.5050505E-02  0.9366960E-06  0.0000000E+00  0.3605958E-04
  0.1565657E+00  0.0000000E+00  0.5050505E-02  0.1019428E-05  0.0000000E+00  0.3803010E-04
  0.1666667E+00  0.0000000E+00  0.5050505E-02  0.1106048E-05  0.0000000E+00  0.4017174E-04
  0.1767677E+00  0.0000000E+00  0.5050505E-02  0.1196896E-05  0.0000000E+00  0.4249281E-04
  0.1868687E+00  0.0000000E+00  0.5050505E-02  0.1292333E-05  0.0000000E+00  0.4500234E-04
  0.1969697E+00  0.0000000E+00  0.5050505E-02  0.1392743E-05  0.0000000E+00  0.4771014E-04
  0.2070707E+00  0.0000000E+00  0.5050505E-02  0.1498536E-05  0.0000000E+00  0.5062686E-04
  0.2171717E+00  0.0000000E+00  0.5050505E-02  0.1610160E-05  0.0000000E+00  0.5376403E-04
  0.2272727E+00  0.0000000E+00  0.5050505E-02  0.1728097E-05  0.0000000E+00  0.5713415E-04
  0.2373737E+00  0.0000000E+00  0.5050505E-02  0.1852883E-05  0.0000000E+00  0.6075081E-04
  0.2474747E+00  0.0000000E+00  0.5050505E-02  0.1985114E-05  0.0000000E+00  0.6462876E-04
  0.2575758E+00  0.0000000E+00  0.5050505E-02  0.2125464E-05  0.0000000E+00  0.6878410E-04
  0.2676768E+00  0.0000000E+00  0.5050505E-02  0.2274706E-05  0.0000000E+00  0.7323444E-04
  0.2777778E+00  0.0000000E+00  0.5050505E-02  0.2433745E-05  0.0000000E+00  0.7799917E-04
  0.2878788E+00  0.0000000E+00  0.5050505E-02  0.2603655E-05  0.0000000E+00  0.8309975E-04
  0.2979798E+00  0.0000000E+00  0.5050505E-02  0.2785734E-05  0.0000000E+00  0.8856014E-04
  0.3080808E+00  0.0000000E+00  0.5050505E-02  0.2981584E-05  0.0000000E+00  0.9440733E-04
  0.3181818E+00  0.0000000E+00  0.5050505E-02  0.3193211E-05  0.0000000E+00  0.1006721E-03
  0.3282828E+00  0.0000000E+00  0.5050505E-02  0.3423177E-05  0.0000000E+00  0.1073901E-03
  0.3383838E+00  0.0000000E+00  0.5050505E-02  0.3674813E-05  0.0000000E+00  0.1146030E-03
  0.3484848E+00  0.0000000E+00  0.5050505E-02  0.3952530E-05  0.0000000E+00  0.1223606E-03
  0.3585859E+00  0.0000000E+00  0.5050505E-02  0.4262290E-05  0.0000000E+00  0.1307236E-03
  0.3686869E+00  0.0000000E+00  0.5050505E-02  0.4612338E-05  0.0000000E+00  0.1397676E-03
  0.3787879E+00  0.0000000E+00  0.5050505E-02  0.5014381E-05  0.0000000E+00  0.1495889E-03
  0.3888889E+00  0.0000000E+00  0.5050505E-02  0.5485629E-05  0.0000000E+00  0.1603140E-03
  0.3989899E+00  0.0000000E+00  0.5050505E-02  0.6052569E-05  0.0000000E+00  0.1721150E-03
  0.4090909E+00  0.0000000E+00  0.5050505E-02  0.6758657E-05  0.0000000E+00  0.1852370E-03
  0.4191919E+00  0.0000000E+00  0.5050505E-02  0.7681826E-05  0.0000000E+00  0.2000515E-03
  0.4292929E+00  0.0000000E+00  0.5050505E-02  0.8979397E-05  0.0000000E+00  0.2171754E-03
  0.4393939E+00  0.0000000E+00  0.5050505E-02  0.1101751E-04  0.0000000E+00  0.2377713E-03
  0.4494950E+00  0.0000000E+00  0.5050505E-02  0.1478533E-04  0.0000000E+00  0.2644158E-03
  0.4595959E+00  0.0000000E+00  0.5050505E-02  0.2334442E-04  0.0000000E+00  0.3039252E-03
  0.4696970E+00  0.0000000E+00  0.5050505E-02 -0.4537451E-05  0.0000000E+00  0.3234183E-03
  0.4797980E+00  0.0000000E+00  0.5050505E-02 -0.5240286E-05  0.0000000E+00  0.3132315E-03
  0.4898990E+00  0.0000000E+00  0.5050505E-02 -0.8649594E-05  0.0000000E+00  0.2987889E-03
  0.5000000E+00  0.0000000E+00  0.5050505E-02 -0.9479286E-05  0.0000000E+00  0.2799775E-03
  0.5101010E+00  0.0000000E+00  0.5050505E-02 -0.9089758E-05  0.0000000E+00  0.2607526E-03
  0.5202020E+00  0.0000000E+00  0.5050505E-02 -0.8373970E-05  0.0000000E+00  0.2427113E-03
  0.5303030E+00  0.0000000E+00  0.5050505E-02 -0.7654572E-05  0.0000000E+00  0.2261858E-03
  0.5404040E+00  0.0000000E+00  0.5050505E-02 -0.7014657E-05  0.0000000E+00  0.2110895E-03
  0.5505050E+00  0.0000000E+00  0.5050505E-02 -0.6459982E-05  0.0000000E+00  0.1972459E-03
  0.5606061E+00  0.0000000E+00  0.5050505E-02 -0.5977143E-05  0.0000000E+00  0.1844882E-03
  0.5707071E+00  0.0000000E+00  0.5050505E-02 -0.5551278E-05  0.0000000E+00  0.1726795E-03
  0.5808081E+00  0.0000000E+00  0.5050505E-02 -0.5170316E-05  0.0000000E+00  0.1617120E-03
  0.5909091E+00  0.0000000E+00  0.5050505E-02 -0.4825290E-05  0.0000000E+00  0.1514998E-03
  0.6010101E+00  0.0000000E+00  0.5050505E-02 -0.4509712E-05  0.0000000E+00  0.1419736E-03
  0.6111111E+00  0.0000000E+00  0.5050505E-02 -0.4218891E-05  0.0000000E+00  0.1330759E-03
  0.6212121E+00  0.0000000E+00  0.5050505E-02 -0.3949392E-05  0.0000000E+00  0.1247578E-03
  0.6313131E+00  0.0000000E+00  0.5050505E-02 -0.3698644E-05  0.0000000E+00  0.1169769E-03
  0.6414142E+00  0.0000000E+00  0.5050505E-02 -0.3464668E-05  0.0000000E+00  0.1096956E-03
  0.6515151E+00  0.0000000E+00  0.5050505E-02 -0.3245896E-05  0.0000000E+00  0.1028802E-03
  0.6616161E+00  0.0000000E+00  0.5050505E-02 -0.3041038E-05  0.0000000E+00  0.9650000E-04
  0.6717172E+00  0.0000000E+00  0.5050505E-02 -0.2849006E-05  0.0000000E+00  0.9052695E-04
  0.6818182E+00  0.0000000E+00  0.5050505E-02 -0.2668848E-05  0.0000000E+00  0.8493515E-04
  0.6919192E+00  0.0000000E+00  0.5050505E-02 -0.2499717E-05  0.0000000E+00  0.7970067E-04
  0.7020202E+00  0.0000000E+00  0.5050505E-02 -0.2340843E-05  0.0000000E+00  0.7480132E-04
  0.7121212E+00  0.0000000E+00  0.5050505E-02 -0.2191516E-05  0.0000000E+00  0.7021648E-04
  0.7222222E+00  0.0000000E+00  0.5050505E-02 -0.2051077E-05  0.0000000E+00  0.6592701E-04
  0.7323232E+00  0.0000000E+00  0.5050505E-02 -0.1918906E-05  0.0000000E+00  0.6191513E-04
  0.7424242E+00  0.0000000E+00  0.5050505E-02 -0.1794426E-05  0.0000000E+00  0.5816433E-04
  0.7525253E+00  0.0000000E+00  0.5050505E-02 -0.1677089E-05  0.0000000E+00  0.5465929E-04
  0.7626263E+00  0.0000000E+00  0.5050505E-02 -0.1566384E-05  0.0000000E+00  0.5138581E-04
  0.7727273E+00  0.0000000E+00  0.5050505E-02 -0.1461826E-05  0.0000000E+00  0.4833072E-04
  0.7828283E+00  0.0000000E+00  0.5050505E-02 -0.1362961E-05  0.0000000E+00  0.4548186E-04
  0.7929293E+00  0.0000000E+00  0.5050505E-02 -0.1269362E-05  0.0000000E+00  0.4282796E-04
  0.8030303E+00  0.0000000E+00  0.5050505E-02 -0.1180629E-05  0.0000000E+00  0.4035863E-04
  0.8131313E+00  0.0000000E+00  0.5050505E-02 -0.1096382E-05  0.0000000E+00  0.3806430E-04
  0.8232324E+00  0.0000000E+00  0.5050505E-02 -0.1016268E-05  0.0000000E+00  0.3593613E-04
  0.8333333E+00  0.0000000E+00  0.5050505E-02 -0.9399542E-06  0.0000000E+00  0.3396601E-04
  0.8434343E+00  0.0000000E+00  0.5050505E-02 -0.8671266E-06  0.0000000E+00  0.3214650E-04
  0.8535354E+00  0.0000000E+00  0.5050505E-02 -0.7974903E-06  0.0000000E+00  0.3047078E-04
  0.8636364E+00  0.0000000E+00  0.5050505E-02 -0.7307673E-06  0.0000000E+00  0.2893261E-04
  0.8737374E+00  0.0000000E+00  0.5050505E-02 -0.6666948E-06  0.0000000E+00  0.2752633E-04
  0.8838384E+00  0.0000000E+00  0.5050505E-02 -0.6050241E-06  0.0000000E+00  0.2624679E-04
  0.8939394E+00  0.0000000E+00  0.5050505E-02 -0.5455194E-06  0.0000000E+00  0.2508933E-04
  0.9040404E+00  0.0000000E+00  0.5050505E-02 -0.4879561E-06  0.0000000E+00  0.2404978E-04
  0.9141414E+00  0.0000000E+00  0.5050505E-02 -0.4321199E-06  0.0000000E+00  0.2312440E-04
  0.9242424E+00  0.0000000E+00  0.5050505E-02 -0.3778057E-06  0.0000000E+00  0.2230988E-04
  0.9343435E+00  0.0000000E+00  0.5050505E-02 -0.3248161E-06  0.0000000E+00  0.2160334E-04
  0.9444444E+00  0.0000000E+00  0.5050505E-02 -0.2729607E-06  0.0000000E+00  0.2100227E-04
  0.9545454E+00  0.0000000E+00  0.5050505E-02 -0.2220549E-06  0.0000000E+00  0.2050456E-04
  0.9646465E+00  0.0000000E+00  0.5050505E-02 -0.1719192E-06  0.0000000E+00  0.2010846E-04
  0.9747475E+00  0.0000000E+00  0.5050505E-02 -0.1223780E-06  0.0000000E+00  0.1981259E-04
  0.9848485E+00  0.0000000E+00  0.5050505E-02 -0.7325882E-07  0.0000000E+00  0.1961591E-04
  0.9974747E+00  0.0000000E+00  0.5050505E-02 -0.2439171E-07  0.0000000E+00  0.1951774E-04
  0.5050505E-02  0.0000000E+00  0.1515152E-01  0.8515040E-07  0.0000000E+00  0.2326418E-04
  0.1515152E-01  0.0000000E+00  0.1515152E-01  0.2557695E-06  0.0000000E+00  0.2337865E-04
  0.2525252E-01  0.0000000E+00  0.1515152E-01  0.4273462E-06  0.0000000E+00  0.2360802E-04
  0.3535353E-01  0.0000000E+00  0.1515152E-01  0.6005254E-06  0.0000000E+00  0.2395315E-04
  0.4545455E-01  0.0000000E+00  0.1515152E-01  0.7759595E-06  0.0000000E+00  0.2441536E-04
  0.5555556E-01  0.0000000E+00  0.1515152E-01  0.9543106E-06  0.0000000E+00  0.2499640E-04
  0.6565657E-01  0.0000000E+00  0.1515152E-01  0.1136253E-05  0.0000000E+00  0.2569847E-04
  0.7575758E-01  0.0000000E+00  0.1515152E-01  0.1322478E-05  0.0000000E+00  0.2652425E-04
  0.8585858E-01  0.0000000E+00  0.1515152E-01  0.1513691E-05  0.0000000E+00  0.2747689E-04
  0.9595960E-01  0.0000000E+00  0.1515152E-01  0.1710621E-05  0.0000000E+00  0.2856002E-04
  0.1060606E+00  0.0000000E+00  0.1515152E-01  0.1914018E-05  0.0000000E+00  0.2977778E-04
  0.1161616E+00  0.0000000E+00  0.1515152E-01  0.2124662E-05  0.0000000E+00  0.3113484E-04
  0.1262626E+00  0.0000000E+00  0.1515152E-01  0.2343359E-05  0.0000000E+00  0.3263641E-04
  0.1363636E+00  0.0000000E+00  0.1515152E-01  0.2570950E-05  0.0000000E+00  0.3428825E-04
  0.1464646E+00  0.0000000E+00  0.1515152E-01  0.2808313E-05  0.0000000E+00  0.3609673E-04
  0.1565657E+00  0.0000000E+00  0.1515152E-01  0.3056366E-05  0.0000000E+00  0.3806883E-04
  0.1666667E+00  0.0000000E+00  0.1515152E-01  0.3316076E-05  0.0000000E+00  0.4021216E-04
  0.1767677E+00  0.0000000E+00  0.1515152E-01  0.3588461E-05  0.0000000E+00  0.4253503E-04
  0.1868687E+00  0.0000000E+00  0.1515152E-01  0.3874600E-05  0.0000000E+00  0.4504649E-04
  0.1969697E+00  0.0000000E+00  0.1515152E-01  0.4175641E-05  0.0000000E+00  0.4775631E-04
  0.2070707E+00  0.0000000E+00  0.1515152E-01  0.4492815E-05  0.0000000E+00  0.5067514E-04
  0.2171717E+00  0.0000000E+00  0.1515152E-01  0.4827449E-05  0.0000000E+00  0.5381446E-04
  0.2272727E+00  0.0000000E+00  0.1515152E-01  0.5180990E-05  0.0000000E+00  0.5718674E-04
  0.2373737E+00  0.0000000E+00  0.1515152E-01  0.5555027E-05  0.0000000E+00  0.6080548E-04
  0.2474747E+00  0.0000000E+00  0.1515152E-01  0.5951332E-05  0.0000000E+00  0.6468535E-04
  0.2575758E+00  0.0000000E+00  0.1515152E-01  0.6371903E-05  0.0000000E+00  0.6884231E-04
  0.2676768E+00  0.0000000E+00  0.1515152E-01  0.6819033E-05  0.0000000E+00  0.7329379E-04
  0.2777778E+00  0.0000000E+00  0.1515152E-01  0.7295392E-05  0.0000000E+00  0.7805890E-04
  0.2878788E+00  0.0000000E+00  0.1515152E-01  0.7804145E-05  0.0000000E+00  0.8315875E-04
  0.2979798E+00  0.0000000E+00  0.1515152E-01  0.8349111E-05  0.0000000E+00  0.8861680E-04
  0.3080808E+00  0.0000000E+00  0.1515152E-01  0.8934983E-05  0.0000000E+00  0.9445936E-04
  0.3181818E+00  0.0000000E+00  0.1515152E-01  0.9567630E-05  0.0000000E+00  0.1007163E-03
  0.3282828E+00  0.0000000E+00  0.1515152E-01  0.1025452E-04  0.0000000E+00  0.1074218E-03
  0.3383838E+00  0.0000000E+00  0.1515152E-01  0.1100533E-04  0.0000000E+00  0.1146158E-03
  0.3484848E+00  0.0000000E+00  0.1515152E-01  0.1183283E-04  0.0000000E+00  0.1223454E-03
  0.3585859E+00  0.0000000E+00  0.1515152E-01  0.1275418E-04  0.0000000E+00  0.1306675E-03
  0.3686869E+00  0.0000000E+00  0.1515152E-01  0.1379291E-04  0.0000000E+00  0.1396516E-03
  0.3787879E+00  0.0000000E+00  0.1515152E-01  0.1498213E-04  0.0000000E+00  0.1493850E-03
  0.3888889E+00  0.0000000E+00  0.1515152E-01  0.1636971E-04  0.0000000E+00  0.1599791E-03
  0.3989899E+00  0.0000000E+00  0.1515152E-01  0.1802747E-04  0.0000000E+00  0.1715790E-03
  0.4090909E+00  0.0000000E+00  0.1515152E-01  0.2006838E-04  0.0000000E+00  0.1843770E-03
  0.4191919E+00  0.0000000E+00  0.1515152E-01  0.2268180E-04  0.0000000E+00  0.1986280E-03
  0.4292929E+00  0.0000000E+00  0.1515152E-01  0.2621209E-04  0.0000000E+00  0.2146541E-03
  0.4393939E+00  0.0000000E+00  0.1515152E-01  0.3135121E-04  0.0000000E+00  0.2327698E-03
  0.4494950E+00  0.0000000E+00  0.1515152E-01  0.3965118E-04  0.0000000E+00  0.2528129E-03
  0.4595959E+00  0.0000000E+00  0.1515152E-01  0.5498653E-04  0.0000000E+00  0.2718660E-03
  0.4696970E+00  0.0000000E+00  0.1515152E-01  0.1035795E-04  0.0000000E+00  0.3006789E-03
  0.4797980E+00  0.0000000E+00  0.1515152E-01 -0.1291691E-04  0.0000000E+00  0.3183105E-03
  0.4898990E+00  0.0000000E+00  0.1515152E-01 -0.2837026E-04  0.0000000E+00  0.3042336E-03
  0.5000000E+00  0.0000000E+00  0.1515152E-01 -0.2961858E-04  0.0000000E+00  0.2816505E-03
  0.5101010E+00  0.0000000E+00  0.1515152E-01 -0.2760771E-04  0.0000000E+00  0.2608246E-03
  0.5202020E+00  0.0000000E+00  0.1515152E-01 -0.2515003E-04  0.0000000E+00  0.2423777E-03
  0.5303030E+00  0.0000000E+00  0.1515152E-01 -0.2290829E-04  0.0000000E+00  0.2258542E-03
  0.5404040E+00  0.0000000E+00  0.1515152E-01 -0.2097946E-04  0.0000000E+00  0.2108560E-03
  0.5505050E+00  0.0000000E+00  0.1515152E-01 -0.1932561E-04  0.0000000E+00  0.1971102E-03
  0.5606061E+00  0.0000000E+00  0.1515152E-01 -0.1788948E-04  0.0000000E+00  0.1844278E-03
  0.5707071E+00  0.0000000E+00  0.1515152E-01 -0.1662216E-04  0.0000000E+00  0.1726723E-03
  0.5808081E+00  0.0000000E+00  0.1515152E-01 -0.1548694E-04  0.0000000E+00  0.1617404E-03
  0.5909091E+00  0.0000000E+00  0.1515152E-01 -0.1445739E-04  0.0000000E+00  0.1515513E-03
  0.6010101E+00  0.0000000E+00  0.1515152E-01 -0.1351458E-04  0.0000000E+00  0.1420395E-03
  0.6111111E+00  0.0000000E+00  0.1515152E-01 -0.1264491E-04  0.0000000E+00  0.1331502E-03
  0.6212121E+00  0.0000000E+00  0.1515152E-01 -0.1183841E-04  0.0000000E+00  0.1248364E-03
  0.6313131E+00  0.0000000E+00  0.1515152E-01 -0.1108761E-04  0.0000000E+00  0.1170571E-03
  0.6414142E+00  0.0000000E+00  0.1515152E-01 -0.1038675E-04  0.0000000E+00  0.1097757E-03
  0.6515151E+00  0.0000000E+00  0.1515152E-01 -0.9731228E-05  0.0000000E+00  0.1029591E-03
  0.6616161E+00  0.0000000E+00  0.1515152E-01 -0.9117269E-05  0.0000000E+00  0.9657693E-04
  0.6717172E+00  0.0000000E+00  0.1515152E-01 -0.8541659E-05  0.0000000E+00  0.9060153E-04
  0.6818182E+00  0.0000000E+00  0.1515152E-01 -0.8001586E-05  0.0000000E+00  0.8500717E-04
  0.6919192E+00  0.0000000E+00  0.1515152E-01 -0.7494536E-05  0.0000000E+00  0.7977004E-04
  0.7020202E+00  0.0000000E+00  0.1515152E-01 -0.7018214E-05  0.0000000E+00  0.7486802E-04
  0.7121212E+00  0.0000000E+00  0.1515152E-01 -0.6570505E-05  0.0000000E+00  0.7028055E-04
  0.7222222E+00  0.0000000E+00  0.1515152E-01 -0.6149436E-05  0.0000000E+00  0.6598852E-04
  0.7323232E+00  0.0000000E+00  0.1515152E-01 -0.5753159E-05  0.0000000E+00  0.6197415E-04
  0.7424242E+00  0.0000000E+00  0.1515152E-01 -0.5379937E-05  0.0000000E+00  0.5822096E-04
  0.7525253E+00  0.0000000E+00  0.1515152E-01 -0.5028137E-05  0.0000000E+00  0.5471362E-04
  0.7626263E+00  0.0000000E+00  0.1515152E-01 -0.4696219E-05  0.0000000E+00  0.5143792E-04
  0.7727273E+00  0.0000000E+00  0.1515152E-01 -0.4382735E-05  0.0000000E+00  0.4838072E-04
  0.7828283E+00  0.0000000E+00  0.1515152E-01 -0.4086323E-05  0.0000000E+00  0.4552983E-04
  0.7929293E+00  0.0000000E+00  0.1515152E-01 -0.3805700E-05  0.0000000E+00  0.4287400E-04
  0.8030303E+00  0.0000000E+00  0.1515152E-01 -0.3539664E-05  0.0000000E+00  0.4040283E-04
  0.8131313E+00  0.0000000E+00  0.1515152E-01 -0.3287082E-05  0.0000000E+00  0.3810674E-04
  0.8232324E+00  0.0000000E+00  0.1515152E-01 -0.3046891E-05  0.0000000E+00  0.3597690E-04
  0.8333333E+00  0.0000000E+00  0.1515152E-01 -0.2818092E-05  0.0000000E+00  0.3400521E-04
  0.8434343E+00  0.0000000E+00  0.1515152E-01 -0.2599746E-05  0.0000000E+00  0.3218421E-04
  0.8535354E+00  0.0000000E+00  0.1515152E-01 -0.2390969E-05  0.0000000E+00  0.3050710E-04
  0.8636364E+00  0.0000000E+00  0.1515152E-01 -0.2190925E-05  0.0000000E+00  0.2896763E-04
  0.8737374E+00  0.0000000E+00  0.1515152E-01 -0.1998827E-05  0.0000000E+00  0.2756014E-04
  0.8838384E+00  0.0000000E+00  0.1515152E-01 -0.1813931E-05  0.0000000E+00  0.2627948E-04
  0.8939394E+00  0.0000000E+00  0.1515152E-01 -0.1635528E-05  0.0000000E+00  0.2512099E-04
  0.9040404E+00  0.0000000E+00  0.1515152E-01 -0.1462946E-05  0.0000000E+00  0.2408051E-04
  0.9141414E+00  0.0000000E+00  0.1515152E-01 -0.1295542E-05  0.0000000E+00  0.2315428E-04
  0.9242424E+00  0.0000000E+00  0.1515152E-01 -0.1132700E-05  0.0000000E+00  0.2233902E-04
  0.9343435E+00  0.0000000E+00  0.1515152E-01 -0.9738308E-06  0.0000000E+00  0.2163182E-04
  0.9444444E+00  0.0000000E+00  0.1515152E-01 -0.8183618E-06  0.0000000E+00  0.2103019E-04
  0.9545454E+00  0.0000000E+00  0.1515152E-01 -0.6657405E-06  0.0000000E+00  0.2053201E-04
  0.9646465E+00  0.0000000E+00  0.1515152E-01 -0.5154282E-06  0.0000000E+00  0.2013553E-04
  0.9747475E+00  0.0000000E+00  0.1515152E-01 -0.3668988E-06  0.0000000E+00  0.1983938E-04
  0.9848485E+00  0.0000000E+00  0.1515152E-01 -0.2196353E-06  0.0000000E+00  0.1964251E-04
  0.9974747E+00  0.0000000E+00  0.1515152E-01 -0.7312803E-07  0.0000000E+00  0.1954424E-04
  0.5050505E-02  0.0000000E+00  0.2525252E-01  0.1418043E-06  0.0000000E+00  0.2331838E-04
  0.1515152E-01  0.0000000E+00  0.2525252E-01  0.4259439E-06  0.0000000E+00  0.2343304E-04
  0.2525252E-01  0.0000000E+00  0.2525252E-01  0.7116806E-06  0.0000000E+00  0.2366279E-04
  0.3535353E-01  0.0000000E+00  0.2525252E-01  0.1000089E-05  0.0000000E+00  0.2400850E-04
  0.4545455E-01  0.0000000E+00  0.2525252E-01  0.1292256E-05  0.0000000E+00  0.2447148E-04
  0.5555556E-01  0.0000000E+00  0.2525252E-01  0.1589285E-05  0.0000000E+00  0.2505347E-04
  0.6565657E-01  0.0000000E+00  0.2525252E-01  0.1892299E-05  0.0000000E+00  0.2575670E-04
  0.7575758E-01  0.0000000E+00  0.2525252E-01  0.2202449E-05  0.0000000E+00  0.2658384E-04
  0.8585858E-01  0.0000000E+00  0.2525252E-01  0.2520912E-05  0.0000000E+00  0.2753805E-04
  0.9595960E-01  0.0000000E+00  0.2525252E-01  0.2848900E-05  0.0000000E+00  0.2862296E-04
  0.1060606E+00  0.0000000E+00  0.2525252E-01  0.3187667E-05  0.0000000E+00  0.2984273E-04
  0.1161616E+00  0.0000000E+00  0.2525252E-01  0.3538506E-05  0.0000000E+00  0.3120203E-04
  0.1262626E+00  0.0000000E+00  0.2525252E-01  0.3902763E-05  0.0000000E+00  0.3270607E-04
  0.1363636E+00  0.0000000E+00  0.2525252E-01  0.4281836E-05  0.0000000E+00  0.3436064E-04
  0.1464646E+00  0.0000000E+00  0.2525252E-01  0.4677188E-05  0.0000000E+00  0.3617209E-04
  0.1565657E+00  0.0000000E+00  0.2525252E-01  0.5090345E-05  0.0000000E+00  0.3814741E-04
  0.1666667E+00  0.0000000E+00  0.2525252E-01  0.5522915E-05  0.0000000E+00  0.4029423E-04
  0.1767677E+00  0.0000000E+00  0.2525252E-01  0.5976587E-05  0.0000000E+00  0.4262086E-04
  0.1868687E+00  0.0000000E+00  0.2525252E-01  0.6453153E-05  0.0000000E+00  0.4513630E-04
  0.1969697E+00  0.0000000E+00  0.2525252E-01  0.6954514E-05  0.0000000E+00  0.4785035E-04
  0.2070707E+00  0.0000000E+00  0.2525252E-01  0.7482706E-05  0.0000000E+00  0.5077358E-04
  0.2171717E+00  0.0000000E+00  0.2525252E-01  0.8039920E-05  0.0000000E+00  0.5391745E-04
  0.2272727E+00  0.0000000E+00  0.2525252E-01  0.8628535E-05  0.0000000E+00  0.5729432E-04
  0.2373737E+00  0.0000000E+00  0.2525252E-01  0.9251164E-05  0.0000000E+00  0.6091758E-04
  0.2474747E+00  0.0000000E+00  0.2525252E-01  0.9910703E-05  0.0000000E+00  0.6480172E-04
  0.2575758E+00  0.0000000E+00  0.2525252E-01  0.1061041E-04  0.0000000E+00  0.6896243E-04
  0.2676768E+00  0.0000000E+00  0.2525252E-01  0.1135401E-04  0.0000000E+00  0.7341679E-04
  0.2777778E+00  0.0000000E+00  0.2525252E-01  0.1214581E-04  0.0000000E+00  0.7818342E-04
  0.2878788E+00  0.0000000E+00  0.2525252E-01  0.1299092E-04  0.0000000E+00  0.8328275E-04
  0.2979798E+00  0.0000000E+00  0.2525252E-01  0.1389543E-04  0.0000000E+00  0.8873729E-04
  0.3080808E+00  0.0000000E+00  0.2525252E-01  0.1486684E-04  0.0000000E+00  0.9457207E-04
  0.3181818E+00  0.0000000E+00  0.2525252E-01  0.1591444E-04  0.0000000E+00  0.1008151E-03
  0.3282828E+00  0.0000000E+00  0.2525252E-01  0.1704999E-04  0.0000000E+00  0.1074983E-03
  0.3383838E+00  0.0000000E+00  0.2525252E-01  0.1828864E-04  0.0000000E+00  0.1146579E-03
  0.3484848E+00  0.0000000E+00  0.2525252E-01  0.1965018E-04  0.0000000E+00  0.1223363E-03
  0.3585859E+00  0.0000000E+00  0.2525252E-01  0.2116099E-04  0.0000000E+00  0.1305831E-03
  0.3686869E+00  0.0000000E+00  0.2525252E-01  0.2285676E-04  0.0000000E+00  0.1394577E-03
  0.3787879E+00  0.0000000E+00  0.2525252E-01  0.2478678E-04  0.0000000E+00  0.1490315E-03
  0.3888889E+00  0.0000000E+00  0.2525252E-01  0.2702044E-04  0.0000000E+00  0.1593914E-03
  0.3989899E+00  0.0000000E+00  0.2525252E-01  0.2965774E-04  0.0000000E+00  0.1706428E-03
  0.4090909E+00  0.0000000E+00  0.2525252E-01  0.3284614E-04  0.0000000E+00  0.1829099E-03
  0.4191919E+00  0.0000000E+00  0.2525252E-01  0.3680820E-04  0.0000000E+00  0.1963266E-03
  0.4292929E+00  0.0000000E+00  0.2525252E-01  0.4188425E-04  0.0000000E+00  0.2109931E-03
  0.4393939E+00  0.0000000E+00  0.2525252E-01  0.4858543E-04  0.0000000E+00  0.2268322E-03
  0.4494950E+00  0.0000000E+00  0.2525252E-01  0.5758718E-04  0.0000000E+00  0.2431610E-03
  0.4595959E+00  0.0000000E+00  0.2525252E-01  0.6926715E-04  0.0000000E+00  0.2575500E-03
  0.4696970E+00  0.0000000E+00  0.2525252E-01  0.5510338E-04  0.0000000E+00  0.2900023E-03
  0.4797980E+00  0.0000000E+00  0.2525252E-01 -0.2755925E-05  0.0000000E+00  0.3293504E-03
  0.4898990E+00  0.0000000E+00  0.2525252E-01 -0.6170097E-04  0.0000000E+00  0.3193570E-03
  0.5000000E+00  0.0000000E+00  0.2525252E-01 -0.5298446E-04  0.0000000E+00  0.2830363E-03
  0.5101010E+00  0.0000000E+00  0.2525252E-01 -0.4666133E-04  0.0000000E+00  0.2598729E-03
  0.5202020E+00  0.0000000E+00  0.2525252E-01 -0.4181186E-04  0.0000000E+00  0.2413471E-03
  0.5303030E+00  0.0000000E+00  0.2525252E-01 -0.3793940E-04  0.0000000E+00  0.2251190E-03
  0.5404040E+00  0.0000000E+00  0.2525252E-01 -0.3474581E-04  0.0000000E+00  0.2104071E-03
  0.5505050E+00  0.0000000E+00  0.2525252E-01 -0.3203889E-04  0.0000000E+00  0.1968766E-03
  0.5606061E+00  0.0000000E+00  0.2525252E-01 -0.2969014E-04  0.0000000E+00  0.1843441E-03
  0.5707071E+00  0.0000000E+00  0.2525252E-01 -0.2761213E-04  0.0000000E+00  0.1726891E-03
  0.5808081E+00  0.0000000E+00  0.2525252E-01 -0.2574473E-04  0.0000000E+00  0.1618228E-03
  0.5909091E+00  0.0000000E+00  0.2525252E-01 -0.2404617E-04  0.0000000E+00  0.1516751E-03
  0.6010101E+00  0.0000000E+00  0.2525252E-01 -0.2248697E-04  0.0000000E+00  0.1421882E-03
  0.6111111E+00  0.0000000E+00  0.2525252E-01 -0.2104601E-04  0.0000000E+00  0.1333126E-03
  0.6212121E+00  0.0000000E+00  0.2525252E-01 -0.1970779E-04  0.0000000E+00  0.1250052E-03
  0.6313131E+00  0.0000000E+00  0.2525252E-01 -0.1846065E-04  0.0000000E+00  0.1172274E-03
  0.6414142E+00  0.0000000E+00  0.2525252E-01 -0.1729552E-04  0.0000000E+00  0.1099442E-03
  0.6515151E+00  0.0000000E+00  0.2525252E-01 -0.1620513E-04  0.0000000E+00  0.1031239E-03
  0.6616161E+00  0.0000000E+00  0.2525252E-01 -0.1518345E-04  0.0000000E+00  0.9673692E-04
  0.6717172E+00  0.0000000E+00  0.2525252E-01 -0.1422529E-04  0.0000000E+00  0.9075603E-04
  0.6818182E+00  0.0000000E+00  0.2525252E-01 -0.1332610E-04  0.0000000E+00  0.8515588E-04
  0.6919192E+00  0.0000000E+00  0.2525252E-01 -0.1248178E-04  0.0000000E+00  0.7991288E-04
  0.7020202E+00  0.0000000E+00  0.2525252E-01 -0.1168856E-04  0.0000000E+00  0.7500506E-04
  0.7121212E+00  0.0000000E+00  0.2525252E-01 -0.1094294E-04  0.0000000E+00  0.7041192E-04
  0.7222222E+00  0.0000000E+00  0.2525252E-01 -0.1024168E-04  0.0000000E+00  0.6611441E-04
  0.7323232E+00  0.0000000E+00  0.2525252E-01 -0.9581688E-05  0.0000000E+00  0.6209478E-04
  0.7424242E+00  0.0000000E+00  0.2525252E-01 -0.8960098E-05  0.0000000E+00  0.5833653E-04
  0.7525253E+00  0.0000000E+00  0.2525252E-01 -0.8374187E-05  0.0000000E+00  0.5482435E-04
  0.7626263E+00  0.0000000E+00  0.2525252E-01 -0.7821392E-05  0.0000000E+00  0.5154403E-04
  0.7727273E+00  0.0000000E+00  0.2525252E-01 -0.7299303E-05  0.0000000E+00  0.4848241E-04
  0.7828283E+00  0.0000000E+00  0.2525252E-01 -0.6805648E-05  0.0000000E+00  0.4562731E-04
  0.7929293E+00  0.0000000E+00  0.2525252E-01 -0.6338292E-05  0.0000000E+00  0.4296746E-04
  0.8030303E+00  0.0000000E+00  0.2525252E-01 -0.5895229E-05  0.0000000E+00  0.4049248E-04
  0.8131313E+00  0.0000000E+00  0.2525252E-01 -0.5474573E-05  0.0000000E+00  0.3819277E-04
  0.8232324E+00  0.0000000E+00  0.2525252E-01 -0.5074554E-05  0.0000000E+00  0.3605951E-04
  0.8333333E+00  0.0000000E+00  0.2525252E-01 -0.4693506E-05  0.0000000E+00  0.3408458E-04
  0.8434343E+00  0.0000000E+00  0.2525252E-01 -0.4329865E-05  0.0000000E+00  0.3226054E-04
  0.8535354E+00  0.0000000E+00  0.2525252E-01 -0.3982156E-05  0.0000000E+00  0.3058056E-04
  0.8636364E+00  0.0000000E+00  0.2525252E-01 -0.3648992E-05  0.0000000E+00  0.2903843E-04
  0.8737374E+00  0.0000000E+00  0.2525252E-01 -0.3329060E-05  0.0000000E+00  0.2762847E-04
  0.8838384E+00  0.0000000E+00  0.2525252E-01 -0.3021118E-05  0.0000000E+00  0.2634552E-04
  0.8939394E+00  0.0000000E+00  0.2525252E-01 -0.2723990E-05  0.0000000E+00  0.2518495E-04
  0.9040404E+00  0.0000000E+00  0.2525252E-01 -0.2436555E-05  0.0000000E+00  0.2414255E-04
  0.9141414E+00  0.0000000E+00  0.2525252E-01 -0.2157742E-05  0.0000000E+00  0.2321462E-04
  0.9242424E+00  0.0000000E+00  0.2525252E-01 -0.1886528E-05  0.0000000E+00  0.2239783E-04
  0.9343435E+00  0.0000000E+00  0.2525252E-01 -0.1621928E-05  0.0000000E+00  0.2168930E-04
  0.9444444E+00  0.0000000E+00  0.2525252E-01 -0.1362991E-05  0.0000000E+00  0.2108653E-04
  0.9545454E+00  0.0000000E+00  0.2525252E-01 -0.1108797E-05  0.0000000E+00  0.2058739E-04
  0.9646465E+00  0.0000000E+00  0.2525252E-01 -0.8584494E-06  0.0000000E+00  0.2019015E-04
  0.9747475E+00  0.0000000E+00  0.2525252E-01 -0.6110716E-06  0.0000000E+00  0.1989342E-04
  0.9848485E+00  0.0000000E+00  0.2525252E-01 -0.3658031E-06  0.0000000E+00  0.1969616E-04
  0.9974747E+00  0.0000000E+00  0.2525252E-01 -0.1217947E-06  0.0000000E+00  0.1959771E-04
  0.5050505E-02  0.0000000E+00  0.3535353E-01  0.1984141E-06  0.0000000E+00  0.2340038E-04
  0.1515152E-01  0.0000000E+00  0.3535353E-01  0.5959866E-06  0.0000000E+00  0.2351533E-04
  0.2525252E-01  0.0000000E+00  0.3535353E-01  0.9957966E-06  0.0000000E+00  0.2374567E-04
  0.3535353E-01  0.0000000E+00  0.3535353E-01  0.1399349E-05  0.0000000E+00  0.2409225E-04
  0.4545455E-01  0.0000000E+00  0.3535353E-01  0.1808166E-05  0.0000000E+00  0.2455638E-04
  0.5555556E-01  0.0000000E+00  0.3535353E-01  0.2223791E-05  0.0000000E+00  0.2513984E-04
  0.6565657E-01  0.0000000E+00  0.3535353E-01  0.2647799E-05  0.0000000E+00  0.2584483E-04
  0.7575758E-01  0.0000000E+00  0.3535353E-01  0.3081798E-05  0.0000000E+00  0.2667405E-04
  0.8585858E-01  0.0000000E+00  0.3535353E-01  0.3527437E-05  0.0000000E+00  0.2763065E-04
  0.9595960E-01  0.0000000E+00  0.3535353E-01  0.3986414E-05  0.0000000E+00  0.2871828E-04
  0.1060606E+00  0.0000000E+00  0.3535353E-01  0.4460481E-05  0.0000000E+00  0.2994112E-04
  0.1161616E+00  0.0000000E+00  0.3535353E-01  0.4951450E-05  0.0000000E+00  0.3130384E-04
  0.1262626E+00  0.0000000E+00  0.3535353E-01  0.5461203E-05  0.0000000E+00  0.3281168E-04
  0.1363636E+00  0.0000000E+00  0.3535353E-01  0.5991696E-05  0.0000000E+00  0.3447041E-04
  0.1464646E+00  0.0000000E+00  0.3535353E-01  0.6544970E-05  0.0000000E+00  0.3628643E-04
  0.1565657E+00  0.0000000E+00  0.3535353E-01  0.7123162E-05  0.0000000E+00  0.3826673E-04
  0.1666667E+00  0.0000000E+00  0.3535353E-01  0.7728510E-05  0.0000000E+00  0.4041894E-04
  0.1767677E+00  0.0000000E+00  0.3535353E-01  0.8363373E-05  0.0000000E+00  0.4275136E-04
  0.1868687E+00  0.0000000E+00  0.3535353E-01  0.9030240E-05  0.0000000E+00  0.4527301E-04
  0.1969697E+00  0.0000000E+00  0.3535353E-01  0.9731752E-05  0.0000000E+00  0.4799365E-04
  0.2070707E+00  0.0000000E+00  0.3535353E-01  0.1047073E-04  0.0000000E+00  0.5092382E-04
  0.2171717E+00  0.0000000E+00  0.3535353E-01  0.1125020E-04  0.0000000E+00  0.5407489E-04
  0.2272727E+00  0.0000000E+00  0.3535353E-01  0.1207343E-04  0.0000000E+00  0.5745913E-04
  0.2373737E+00  0.0000000E+00  0.3535353E-01  0.1294400E-04  0.0000000E+00  0.6108975E-04
  0.2474747E+00  0.0000000E+00  0.3535353E-01  0.1386586E-04  0.0000000E+00  0.6498100E-04
  0.2575758E+00  0.0000000E+00  0.3535353E-01  0.1484343E-04  0.0000000E+00  0.6914824E-04
  0.2676768E+00  0.0000000E+00  0.3535353E-01  0.1588172E-04  0.0000000E+00  0.7360804E-04
  0.2777778E+00  0.0000000E+00  0.3535353E-01  0.1698650E-04  0.0000000E+00  0.7837838E-04
  0.2878788E+00  0.0000000E+00  0.3535353E-01  0.1816455E-04  0.0000000E+00  0.8347873E-04
  0.2979798E+00  0.0000000E+00  0.3535353E-01  0.1942393E-04  0.0000000E+00  0.8893034E-04