title = "dataset water"
variables = "x", "y", "z", "vx", "vy", "vz"
zone t = "velocities, solution time =  1.100E+01 days        " i =   99, j =   99, k =    1,  f=point
  0.5050505E-02  0.0000000E+00  0.5050505E-02  0.4033605E-12  0.0000000E+00 -0.4741551E-04
  0.1515152E-01  0.0000000E+00  0.5050505E-02  0.1062191E-11  0.0000000E+00 -0.4741551E-04
  0.2525252E-01  0.0000000E+00  0.5050505E-02  0.1708956E-11  0.0000000E+00 -0.4741551E-04
  0.3535353E-01  0.0000000E+00  0.5050505E-02  0.2362221E-11  0.0000000E+00 -0.4741551E-04
  0.4545455E-01  0.0000000E+00  0.5050505E-02  0.3019054E-11  0.0000000E+00 -0.4741550E-04
  0.5555556E-01  0.0000000E+00  0.5050505E-02  0.3669832E-11  0.0000000E+00 -0.4741549E-04
  0.6565657E-01  0.0000000E+00  0.5050505E-02  0.4308299E-11  0.0000000E+00 -0.4741549E-04
  0.7575758E-01  0.0000000E+00  0.5050505E-02  0.4931903E-11  0.0000000E+00 -0.4741548E-04
  0.8585858E-01  0.0000000E+00  0.5050505E-02  0.5539109E-11  0.0000000E+00 -0.4741547E-04
  0.9595960E-01  0.0000000E+00  0.5050505E-02  0.6129607E-11  0.0000000E+00 -0.4741545E-04
  0.1060606E+00  0.0000000E+00  0.5050505E-02  0.6701958E-11  0.0000000E+00 -0.4741544E-04
  0.1161616E+00  0.0000000E+00  0.5050505E-02  0.7254608E-11  0.0000000E+00 -0.4741543E-04
  0.1262626E+00  0.0000000E+00  0.5050505E-02  0.7785763E-11  0.0000000E+00 -0.4741541E-04
  0.1363636E+00  0.0000000E+00  0.5050505E-02  0.8293143E-11  0.0000000E+00 -0.4741540E-04
  0.1464646E+00  0.0000000E+00  0.5050505E-02  0.8774490E-11  0.0000000E+00 -0.4741538E-04
  0.1565657E+00  0.0000000E+00  0.5050505E-02  0.9227477E-11  0.0000000E+00 -0.4741536E-04
  0.1666667E+00  0.0000000E+00  0.5050505E-02  0.9649697E-11  0.0000000E+00 -0.4741534E-04
  0.1767677E+00  0.0000000E+00  0.5050505E-02  0.1003874E-10  0.0000000E+00 -0.4741532E-04
  0.1868687E+00  0.0000000E+00  0.5050505E-02  0.1039224E-10  0.0000000E+00 -0.4741530E-04
  0.1969697E+00  0.0000000E+00  0.5050505E-02  0.1070791E-10  0.0000000E+00 -0.4741528E-04
  0.2070707E+00  0.0000000E+00  0.5050505E-02  0.1098353E-10  0.0000000E+00 -0.4741526E-04
  0.2171717E+00  0.0000000E+00  0.5050505E-02  0.1121697E-10  0.0000000E+00 -0.4741524E-04
  0.2272727E+00  0.0000000E+00  0.5050505E-02  0.1140623E-10  0.0000000E+00 -0.4741521E-04
  0.2373737E+00  0.0000000E+00  0.5050505E-02  0.1154944E-10  0.0000000E+00 -0.4741519E-04
  0.2474747E+00  0.0000000E+00  0.5050505E-02  0.1164489E-10  0.0000000E+00 -0.4741517E-04
  0.2575758E+00  0.0000000E+00  0.5050505E-02  0.1169110E-10  0.0000000E+00 -0.4741514E-04
  0.2676768E+00  0.0000000E+00  0.5050505E-02  0.1168681E-10  0.0000000E+00 -0.4741512E-04
  0.2777778E+00  0.0000000E+00  0.5050505E-02  0.1163101E-10  0.0000000E+00 -0.4741510E-04
  0.2878788E+00  0.0000000E+00  0.5050505E-02  0.1152295E-10  0.0000000E+00 -0.4741507E-04
  0.2979798E+00  0.0000000E+00  0.5050505E-02  0.1136219E-10  0.0000000E+00 -0.4741505E-04
  0.3080808E+00  0.0000000E+00  0.5050505E-02  0.1114859E-10  0.0000000E+00 -0.4741503E-04
  0.3181818E+00  0.0000000E+00  0.5050505E-02  0.1088234E-10  0.0000000E+00 -0.4741501E-04
  0.3282828E+00  0.0000000E+00  0.5050505E-02  0.1056393E-10  0.0000000E+00 -0.4741498E-04
  0.3383838E+00  0.0000000E+00  0.5050505E-02  0.1019421E-10  0.0000000E+00 -0.4741496E-04
  0.3484848E+00  0.0000000E+00  0.5050505E-02  0.9774344E-11  0.0000000E+00 -0.4741494E-04
  0.3585859E+00  0.0000000E+00  0.5050505E-02  0.9305797E-11  0.0000000E+00 -0.4741492E-04
  0.3686869E+00  0.0000000E+00  0.5050505E-02  0.8790334E-11  0.0000000E+00 -0.4741491E-04
  0.3787879E+00  0.0000000E+00  0.5050505E-02  0.8230009E-11  0.0000000E+00 -0.4741489E-04
  0.3888889E+00  0.0000000E+00  0.5050505E-02  0.7627116E-11  0.0000000E+00 -0.4741487E-04
  0.3989899E+00  0.0000000E+00  0.5050505E-02  0.6984177E-11  0.0000000E+00 -0.4741486E-04
  0.4090909E+00  0.0000000E+00  0.5050505E-02  0.6303931E-11  0.0000000E+00 -0.4741484E-04
  0.4191919E+00  0.0000000E+00  0.5050505E-02  0.5589327E-11  0.0000000E+00 -0.4741483E-04
  0.4292929E+00  0.0000000E+00  0.5050505E-02  0.4843532E-11  0.0000000E+00 -0.4741482E-04
  0.4393939E+00  0.0000000E+00  0.5050505E-02  0.4069993E-11  0.0000000E+00 -0.4741481E-04
  0.4494950E+00  0.0000000E+00  0.5050505E-02  0.3272452E-11  0.0000000E+00 -0.4741481E-04
  0.4595959E+00  0.0000000E+00  0.5050505E-02  0.2454998E-11  0.0000000E+00 -0.4741480E-04
  0.4696970E+00  0.0000000E+00  0.5050505E-02  0.1622099E-11  0.0000000E+00 -0.4741480E-04
  0.4797980E+00  0.0000000E+00  0.5050505E-02  0.7786387E-12  0.0000000E+00 -0.4741479E-04
  0.4898990E+00  0.0000000E+00  0.5050505E-02 -0.6943209E-13  0.0000000E+00 -0.4741479E-04
  0.5000000E+00  0.0000000E+00  0.5050505E-02 -0.9168125E-12  0.0000000E+00 -0.4741479E-04
  0.5101010E+00  0.0000000E+00  0.5050505E-02 -0.1763523E-11  0.0000000E+00 -0.4741480E-04
  0.5202020E+00  0.0000000E+00  0.5050505E-02 -0.2599817E-11  0.0000000E+00 -0.4741480E-04
  0.5303030E+00  0.0000000E+00  0.5050505E-02 -0.3418099E-11  0.0000000E+00 -0.4741481E-04
  0.5404040E+00  0.0000000E+00  0.5050505E-02 -0.4222707E-11  0.0000000E+00 -0.4741481E-04
  0.5505050E+00  0.0000000E+00  0.5050505E-02 -0.5005152E-11  0.0000000E+00 -0.4741482E-04
  0.5606061E+00  0.0000000E+00  0.5050505E-02 -0.5758508E-11  0.0000000E+00 -0.4741483E-04
  0.5707071E+00  0.0000000E+00  0.5050505E-02 -0.6479025E-11  0.0000000E+00 -0.4741485E-04
  0.5808081E+00  0.0000000E+00  0.5050505E-02 -0.7163711E-11  0.0000000E+00 -0.4741486E-04
  0.5909091E+00  0.0000000E+00  0.5050505E-02 -0.7811053E-11  0.0000000E+00 -0.4741488E-04
  0.6010101E+00  0.0000000E+00  0.5050505E-02 -0.8418712E-11  0.0000000E+00 -0.4741489E-04
  0.6111111E+00  0.0000000E+00  0.5050505E-02 -0.8984572E-11  0.0000000E+00 -0.4741491E-04
  0.6212121E+00  0.0000000E+00  0.5050505E-02 -0.9506800E-11  0.0000000E+00 -0.4741493E-04
  0.6313131E+00  0.0000000E+00  0.5050505E-02 -0.9983669E-11  0.0000000E+00 -0.4741495E-04
  0.6414142E+00  0.0000000E+00  0.5050505E-02 -0.1041346E-10  0.0000000E+00 -0.4741497E-04
  0.6515151E+00  0.0000000E+00  0.5050505E-02 -0.1079481E-10  0.0000000E+00 -0.4741499E-04
  0.6616161E+00  0.0000000E+00  0.5050505E-02 -0.1112675E-10  0.0000000E+00 -0.4741501E-04
  0.6717172E+00  0.0000000E+00  0.5050505E-02 -0.1140859E-10  0.0000000E+00 -0.4741503E-04
  0.6818182E+00  0.0000000E+00  0.5050505E-02 -0.1163983E-10  0.0000000E+00 -0.4741506E-04
  0.6919192E+00  0.0000000E+00  0.5050505E-02 -0.1182027E-10  0.0000000E+00 -0.4741508E-04
  0.7020202E+00  0.0000000E+00  0.5050505E-02 -0.1195005E-10  0.0000000E+00 -0.4741510E-04
  0.7121212E+00  0.0000000E+00  0.5050505E-02 -0.1202960E-10  0.0000000E+00 -0.4741513E-04
  0.7222222E+00  0.0000000E+00  0.5050505E-02 -0.1205960E-10  0.0000000E+00 -0.4741515E-04
  0.7323232E+00  0.0000000E+00  0.5050505E-02 -0.1204099E-10  0.0000000E+00 -0.4741518E-04
  0.7424242E+00  0.0000000E+00  0.5050505E-02 -0.1197493E-10  0.0000000E+00 -0.4741520E-04
  0.7525253E+00  0.0000000E+00  0.5050505E-02 -0.1186281E-10  0.0000000E+00 -0.4741523E-04
  0.7626263E+00  0.0000000E+00  0.5050505E-02 -0.1170617E-10  0.0000000E+00 -0.4741525E-04
  0.7727273E+00  0.0000000E+00  0.5050505E-02 -0.1150678E-10  0.0000000E+00 -0.4741527E-04
  0.7828283E+00  0.0000000E+00  0.5050505E-02 -0.1126649E-10  0.0000000E+00 -0.4741530E-04
  0.7929293E+00  0.0000000E+00  0.5050505E-02 -0.1098730E-10  0.0000000E+00 -0.4741532E-04
  0.8030303E+00  0.0000000E+00  0.5050505E-02 -0.1067129E-10  0.0000000E+00 -0.4741534E-04
  0.8131313E+00  0.0000000E+00  0.5050505E-02 -0.1032061E-10  0.0000000E+00 -0.4741536E-04
  0.8232324E+00  0.0000000E+00  0.5050505E-02 -0.9937452E-11  0.0000000E+00 -0.4741538E-04
  0.8333333E+00  0.0000000E+00  0.5050505E-02 -0.9524029E-11  0.0000000E+00 -0.4741540E-04
  0.8434343E+00  0.0000000E+00  0.5050505E-02 -0.9082538E-11  0.0000000E+00 -0.4741542E-04
  0.8535354E+00  0.0000000E+00  0.5050505E-02 -0.8615139E-11  0.0000000E+00 -0.4741544E-04
  0.8636364E+00  0.0000000E+00  0.5050505E-02 -0.8123926E-11  0.0000000E+00 -0.4741545E-04
  0.8737374E+00  0.0000000E+00  0.5050505E-02 -0.7610890E-11  0.0000000E+00 -0.4741547E-04
  0.8838384E+00  0.0000000E+00  0.5050505E-02 -0.7077884E-11  0.0000000E+00 -0.4741548E-04
  0.8939394E+00  0.0000000E+00  0.5050505E-02 -0.6526615E-11  0.0000000E+00 -0.4741550E-04
  0.9040404E+00  0.0000000E+00  0.5050505E-02 -0.5958593E-11  0.0000000E+00 -0.4741551E-04
  0.9141414E+00  0.0000000E+00  0.5050505E-02 -0.5375159E-11  0.0000000E+00 -0.4741552E-04
  0.9242424E+00  0.0000000E+00  0.5050505E-02 -0.4777482E-11  0.0000000E+00 -0.4741553E-04
  0.9343435E+00  0.0000000E+00  0.5050505E-02 -0.4166601E-11  0.0000000E+00 -0.4741554E-04
  0.9444444E+00  0.0000000E+00  0.5050505E-02 -0.3543492E-11  0.0000000E+00 -0.4741555E-04
  0.9545454E+00  0.0000000E+00  0.5050505E-02 -0.2909132E-11  0.0000000E+00 -0.4741556E-04
  0.9646465E+00  0.0000000E+00  0.5050505E-02 -0.2264373E-11  0.0000000E+00 -0.4741556E-04
  0.9747475E+00  0.0000000E+00  0.5050505E-02 -0.1609538E-11  0.0000000E+00 -0.4741556E-04
  0.9848485E+00  0.0000000E+00  0.5050505E-02 -0.9429409E-12  0.0000000E+00 -0.4741557E-04
  0.9974747E+00  0.0000000E+00  0.5050505E-02 -0.2568740E-12  0.0000000E+00 -0.4741557E-04
  0.5050505E-02  0.0000000E+00  0.1515152E-01  0.1176081E-11  0.0000000E+00 -0.4722071E-04
  0.1515152E-01  0.0000000E+00  0.1515152E-01  0.3181590E-11  0.0000000E+00 -0.4722071E-04
  0.2525252E-01  0.0000000E+00  0.1515152E-01  0.5148643E-11  0.0000000E+00 -0.4722071E-04
  0.3535353E-01  0.0000000E+00  0.1515152E-01  0.7125252E-11  0.0000000E+00 -0.4722070E-04
  0.4545455E-01  0.0000000E+00  0.1515152E-01  0.9107184E-11  0.0000000E+00 -0.4722070E-04
  0.5555556E-01  0.0000000E+00  0.1515152E-01  0.1107067E-10  0.0000000E+00 -0.4722069E-04
  0.6565657E-01  0.0000000E+00  0.1515152E-01  0.1299737E-10  0.0000000E+00 -0.4722068E-04
  0.7575758E-01  0.0000000E+00  0.1515152E-01  0.1487966E-10  0.0000000E+00 -0.4722067E-04
  0.8585858E-01  0.0000000E+00  0.1515152E-01  0.1671258E-10  0.0000000E+00 -0.4722066E-04
  0.9595960E-01  0.0000000E+00  0.1515152E-01  0.1849480E-10  0.0000000E+00 -0.4722065E-04
  0.1060606E+00  0.0000000E+00  0.1515152E-01  0.2022228E-10  0.0000000E+00 -0.4722064E-04
  0.1161616E+00  0.0000000E+00  0.1515152E-01  0.2189023E-10  0.0000000E+00 -0.4722062E-04
  0.1262626E+00  0.0000000E+00  0.1515152E-01  0.2349326E-10  0.0000000E+00 -0.4722061E-04
  0.1363636E+00  0.0000000E+00  0.1515152E-01  0.2502463E-10  0.0000000E+00 -0.4722059E-04
  0.1464646E+00  0.0000000E+00  0.1515152E-01  0.2647750E-10  0.0000000E+00 -0.4722057E-04
  0.1565657E+00  0.0000000E+00  0.1515152E-01  0.2784482E-10  0.0000000E+00 -0.4722055E-04
  0.1666667E+00  0.0000000E+00  0.1515152E-01  0.2911934E-10  0.0000000E+00 -0.4722053E-04
  0.1767677E+00  0.0000000E+00  0.1515152E-01  0.3029383E-10  0.0000000E+00 -0.4722051E-04
  0.1868687E+00  0.0000000E+00  0.1515152E-01  0.3136114E-10  0.0000000E+00 -0.4722049E-04
  0.1969697E+00  0.0000000E+00  0.1515152E-01  0.3231434E-10  0.0000000E+00 -0.4722047E-04
  0.2070707E+00  0.0000000E+00  0.1515152E-01  0.3314672E-10  0.0000000E+00 -0.4722045E-04
  0.2171717E+00  0.0000000E+00  0.1515152E-01  0.3385187E-10  0.0000000E+00 -0.4722043E-04
  0.2272727E+00  0.0000000E+00  0.1515152E-01  0.3442372E-10  0.0000000E+00 -0.4722040E-04
  0.2373737E+00  0.0000000E+00  0.1515152E-01  0.3485660E-10  0.0000000E+00 -0.4722038E-04
  0.2474747E+00  0.0000000E+00  0.1515152E-01  0.3514539E-10  0.0000000E+00 -0.4722036E-04
  0.2575758E+00  0.0000000E+00  0.1515152E-01  0.3528557E-10  0.0000000E+00 -0.4722033E-04
  0.2676768E+00  0.0000000E+00  0.1515152E-01  0.3527333E-10  0.0000000E+00 -0.4722031E-04
  0.2777778E+00  0.0000000E+00  0.1515152E-01  0.3510559E-10  0.0000000E+00 -0.4722028E-04
  0.2878788E+00  0.0000000E+00  0.1515152E-01  0.3478012E-10  0.0000000E+00 -0.4722026E-04
  0.2979798E+00  0.0000000E+00  0.1515152E-01  0.3429554E-10  0.0000000E+00 -0.4722024E-04
  0.3080808E+00  0.0000000E+00  0.1515152E-01  0.3365144E-10  0.0000000E+00 -0.4722021E-04
  0.3181818E+00  0.0000000E+00  0.1515152E-01  0.3284834E-10  0.0000000E+00 -0.4722019E-04
  0.3282828E+00  0.0000000E+00  0.1515152E-01  0.3188778E-10  0.0000000E+00 -0.4722017E-04
  0.3383838E+00  0.0000000E+00  0.1515152E-01  0.3077226E-10  0.0000000E+00 -0.4722015E-04
  0.3484848E+00  0.0000000E+00  0.1515152E-01  0.2950528E-10  0.0000000E+00 -0.4722013E-04
  0.3585859E+00  0.0000000E+00  0.1515152E-01  0.2809128E-10  0.0000000E+00 -0.4722011E-04
  0.3686869E+00  0.0000000E+00  0.1515152E-01  0.2653560E-10  0.0000000E+00 -0.4722009E-04
  0.3787879E+00  0.0000000E+00  0.1515152E-01  0.2484440E-10  0.0000000E+00 -0.4722007E-04
  0.3888889E+00  0.0000000E+00  0.1515152E-01  0.2302461E-10  0.0000000E+00 -0.4722006E-04
  0.3989899E+00  0.0000000E+00  0.1515152E-01  0.2108384E-10  0.0000000E+00 -0.4722004E-04
  0.4090909E+00  0.0000000E+00  0.1515152E-01  0.1903032E-10  0.0000000E+00 -0.4722003E-04
  0.4191919E+00  0.0000000E+00  0.1515152E-01  0.1687292E-10  0.0000000E+00 -0.4722001E-04
  0.4292929E+00  0.0000000E+00  0.1515152E-01  0.1462121E-10  0.0000000E+00 -0.4722000E-04
  0.4393939E+00  0.0000000E+00  0.1515152E-01  0.1228555E-10  0.0000000E+00 -0.4721999E-04
  0.4494950E+00  0.0000000E+00  0.1515152E-01  0.9877304E-11  0.0000000E+00 -0.4721999E-04
  0.4595959E+00  0.0000000E+00  0.1515152E-01  0.7408976E-11  0.0000000E+00 -0.4721998E-04
  0.4696970E+00  0.0000000E+00  0.1515152E-01  0.4894212E-11  0.0000000E+00 -0.4721998E-04
  0.4797980E+00  0.0000000E+00  0.1515152E-01  0.2347496E-11  0.0000000E+00 -0.4721997E-04
  0.4898990E+00  0.0000000E+00  0.1515152E-01 -0.2148455E-12  0.0000000E+00 -0.4721997E-04
  0.5000000E+00  0.0000000E+00  0.1515152E-01 -0.2771379E-11  0.0000000E+00 -0.4721997E-04
  0.5101010E+00  0.0000000E+00  0.1515152E-01 -0.5323302E-11  0.0000000E+00 -0.4721998E-04
  0.5202020E+00  0.0000000E+00  0.1515152E-01 -0.7852593E-11  0.0000000E+00 -0.4721998E-04
  0.5303030E+00  0.0000000E+00  0.1515152E-01 -0.1032325E-10  0.0000000E+00 -0.4721999E-04
  0.5404040E+00  0.0000000E+00  0.1515152E-01 -0.1275042E-10  0.0000000E+00 -0.4722000E-04
  0.5505050E+00  0.0000000E+00  0.1515152E-01 -0.1511154E-10  0.0000000E+00 -0.4722001E-04
  0.5606061E+00  0.0000000E+00  0.1515152E-01 -0.1738546E-10  0.0000000E+00 -0.4722002E-04
  0.5707071E+00  0.0000000E+00  0.1515152E-01 -0.1956064E-10  0.0000000E+00 -0.4722003E-04
  0.5808081E+00  0.0000000E+00  0.1515152E-01 -0.2162762E-10  0.0000000E+00 -0.4722004E-04
  0.5909091E+00  0.0000000E+00  0.1515152E-01 -0.2358145E-10  0.0000000E+00 -0.4722006E-04
  0.6010101E+00  0.0000000E+00  0.1515152E-01 -0.2541547E-10  0.0000000E+00 -0.4722008E-04
  0.6111111E+00  0.0000000E+00  0.1515152E-01 -0.2712316E-10  0.0000000E+00 -0.4722009E-04
  0.6212121E+00  0.0000000E+00  0.1515152E-01 -0.2869879E-10  0.0000000E+00 -0.4722011E-04
  0.6313131E+00  0.0000000E+00  0.1515152E-01 -0.3013732E-10  0.0000000E+00 -0.4722013E-04
  0.6414142E+00  0.0000000E+00  0.1515152E-01 -0.3143381E-10  0.0000000E+00 -0.4722015E-04
  0.6515151E+00  0.0000000E+00  0.1515152E-01 -0.3258403E-10  0.0000000E+00 -0.4722018E-04
  0.6616161E+00  0.0000000E+00  0.1515152E-01 -0.3358497E-10  0.0000000E+00 -0.4722020E-04
  0.6717172E+00  0.0000000E+00  0.1515152E-01 -0.3443450E-10  0.0000000E+00 -0.4722022E-04
  0.6818182E+00  0.0000000E+00  0.1515152E-01 -0.3513126E-10  0.0000000E+00 -0.4722024E-04
  0.6919192E+00  0.0000000E+00  0.1515152E-01 -0.3567471E-10  0.0000000E+00 -0.4722027E-04
  0.7020202E+00  0.0000000E+00  0.1515152E-01 -0.3606523E-10  0.0000000E+00 -0.4722029E-04
  0.7121212E+00  0.0000000E+00  0.1515152E-01 -0.3630410E-10  0.0000000E+00 -0.4722032E-04
  0.7222222E+00  0.0000000E+00  0.1515152E-01 -0.3639341E-10  0.0000000E+00 -0.4722034E-04
  0.7323232E+00  0.0000000E+00  0.1515152E-01 -0.3633602E-10  0.0000000E+00 -0.4722037E-04
  0.7424242E+00  0.0000000E+00  0.1515152E-01 -0.3613547E-10  0.0000000E+00 -0.4722039E-04
  0.7525253E+00  0.0000000E+00  0.1515152E-01 -0.3579593E-10  0.0000000E+00 -0.4722042E-04
  0.7626263E+00  0.0000000E+00  0.1515152E-01 -0.3532215E-10  0.0000000E+00 -0.4722044E-04
  0.7727273E+00  0.0000000E+00  0.1515152E-01 -0.3471938E-10  0.0000000E+00 -0.4722046E-04
  0.7828283E+00  0.0000000E+00  0.1515152E-01 -0.3399329E-10  0.0000000E+00 -0.4722049E-04
  0.7929293E+00  0.0000000E+00  0.1515152E-01 -0.3314989E-10  0.0000000E+00 -0.4722051E-04
  0.8030303E+00  0.0000000E+00  0.1515152E-01 -0.3219549E-10  0.0000000E+00 -0.4722053E-04
  0.8131313E+00  0.0000000E+00  0.1515152E-01 -0.3113658E-10  0.0000000E+00 -0.4722055E-04
  0.8232324E+00  0.0000000E+00  0.1515152E-01 -0.2997978E-10  0.0000000E+00 -0.4722057E-04
  0.8333333E+00  0.0000000E+00  0.1515152E-01 -0.2873178E-10  0.0000000E+00 -0.4722059E-04
  0.8434343E+00  0.0000000E+00  0.1515152E-01 -0.2739922E-10  0.0000000E+00 -0.4722061E-04
  0.8535354E+00  0.0000000E+00  0.1515152E-01 -0.2598862E-10  0.0000000E+00 -0.4722063E-04
  0.8636364E+00  0.0000000E+00  0.1515152E-01 -0.2450630E-10  0.0000000E+00 -0.4722065E-04
  0.8737374E+00  0.0000000E+00  0.1515152E-01 -0.2295828E-10  0.0000000E+00 -0.4722067E-04
  0.8838384E+00  0.0000000E+00  0.1515152E-01 -0.2135015E-10  0.0000000E+00 -0.4722068E-04
  0.8939394E+00  0.0000000E+00  0.1515152E-01 -0.1968705E-10  0.0000000E+00 -0.4722069E-04
  0.9040404E+00  0.0000000E+00  0.1515152E-01 -0.1797353E-10  0.0000000E+00 -0.4722071E-04
  0.9141414E+00  0.0000000E+00  0.1515152E-01 -0.1621360E-10  0.0000000E+00 -0.4722072E-04
  0.9242424E+00  0.0000000E+00  0.1515152E-01 -0.1441077E-10  0.0000000E+00 -0.4722073E-04
  0.9343435E+00  0.0000000E+00  0.1515152E-01 -0.1256816E-10  0.0000000E+00 -0.4722074E-04
  0.9444444E+00  0.0000000E+00  0.1515152E-01 -0.1068878E-10  0.0000000E+00 -0.4722075E-04
  0.9545454E+00  0.0000000E+00  0.1515152E-01 -0.8775802E-11  0.0000000E+00 -0.4722075E-04
  0.9646465E+00  0.0000000E+00  0.1515152E-01 -0.6832483E-11  0.0000000E+00 -0.4722076E-04
  0.9747475E+00  0.0000000E+00  0.1515152E-01 -0.4861500E-11  0.0000000E+00 -0.4722076E-04
  0.9848485E+00  0.0000000E+00  0.1515152E-01 -0.2862002E-11  0.0000000E+00 -0.4722076E-04
  0.9974747E+00  0.0000000E+00  0.1515152E-01 -0.8246708E-12  0.0000000E+00 -0.4722077E-04
  0.5050505E-02  0.0000000E+00  0.2525252E-01  0.1914034E-11  0.0000000E+00 -0.4683386E-04
  0.1515152E-01  0.0000000E+00  0.2525252E-01  0.5316156E-11  0.0000000E+00 -0.4683386E-04
  0.2525252E-01  0.0000000E+00  0.2525252E-01  0.8663586E-11  0.0000000E+00 -0.4683386E-04
  0.3535353E-01  0.0000000E+00  0.2525252E-01  0.1200919E-10  0.0000000E+00 -0.4683385E-04
  0.4545455E-01  0.0000000E+00  0.2525252E-01  0.1535389E-10  0.0000000E+00 -0.4683385E-04
  0.5555556E-01  0.0000000E+00  0.2525252E-01  0.1866699E-10  0.0000000E+00 -0.4683384E-04
  0.6565657E-01  0.0000000E+00  0.2525252E-01  0.2191857E-10  0.0000000E+00 -0.4683383E-04
  0.7575758E-01  0.0000000E+00  0.2525252E-01  0.2509559E-10  0.0000000E+00 -0.4683382E-04
  0.8585858E-01  0.0000000E+00  0.2525252E-01  0.2818953E-10  0.0000000E+00 -0.4683381E-04
  0.9595960E-01  0.0000000E+00  0.2525252E-01  0.3119738E-10  0.0000000E+00 -0.4683380E-04
  0.1060606E+00  0.0000000E+00  0.2525252E-01  0.3411282E-10  0.0000000E+00 -0.4683379E-04
  0.1161616E+00  0.0000000E+00  0.2525252E-01  0.3692771E-10  0.0000000E+00 -0.4683377E-04
  0.1262626E+00  0.0000000E+00  0.2525252E-01  0.3963305E-10  0.0000000E+00 -0.4683375E-04
  0.1363636E+00  0.0000000E+00  0.2525252E-01  0.4221765E-10  0.0000000E+00 -0.4683374E-04
  0.1464646E+00  0.0000000E+00  0.2525252E-01  0.4467003E-10  0.0000000E+00 -0.4683372E-04
  0.1565657E+00  0.0000000E+00  0.2525252E-01  0.4697824E-10  0.0000000E+00 -0.4683370E-04
  0.1666667E+00  0.0000000E+00  0.2525252E-01  0.4913006E-10  0.0000000E+00 -0.4683368E-04
  0.1767677E+00  0.0000000E+00  0.2525252E-01  0.5111332E-10  0.0000000E+00 -0.4683366E-04
  0.1868687E+00  0.0000000E+00  0.2525252E-01  0.5291599E-10  0.0000000E+00 -0.4683364E-04
  0.1969697E+00  0.0000000E+00  0.2525252E-01  0.5452634E-10  0.0000000E+00 -0.4683361E-04
  0.2070707E+00  0.0000000E+00  0.2525252E-01  0.5593298E-10  0.0000000E+00 -0.4683359E-04
  0.2171717E+00  0.0000000E+00  0.2525252E-01  0.5712507E-10  0.0000000E+00 -0.4683357E-04
  0.2272727E+00  0.0000000E+00  0.2525252E-01  0.5809232E-10  0.0000000E+00 -0.4683354E-04
  0.2373737E+00  0.0000000E+00  0.2525252E-01  0.5882517E-10  0.0000000E+00 -0.4683352E-04
  0.2474747E+00  0.0000000E+00  0.2525252E-01  0.5931491E-10  0.0000000E+00 -0.4683349E-04
  0.2575758E+00  0.0000000E+00  0.2525252E-01  0.5955388E-10  0.0000000E+00 -0.4683347E-04
  0.2676768E+00  0.0000000E+00  0.2525252E-01  0.5953557E-10  0.0000000E+00 -0.4683344E-04
  0.2777778E+00  0.0000000E+00  0.2525252E-01  0.5925478E-10  0.0000000E+00 -0.4683342E-04
  0.2878788E+00  0.0000000E+00  0.2525252E-01  0.5870767E-10  0.0000000E+00 -0.4683339E-04
  0.2979798E+00  0.0000000E+00  0.2525252E-01  0.5789190E-10  0.0000000E+00 -0.4683337E-04
  0.3080808E+00  0.0000000E+00  0.2525252E-01  0.5680671E-10  0.0000000E+00 -0.4683335E-04
  0.3181818E+00  0.0000000E+00  0.2525252E-01  0.5545294E-10  0.0000000E+00 -0.4683332E-04
  0.3282828E+00  0.0000000E+00  0.2525252E-01  0.5383316E-10  0.0000000E+00 -0.4683330E-04
  0.3383838E+00  0.0000000E+00  0.2525252E-01  0.5195155E-10  0.0000000E+00 -0.4683328E-04
  0.3484848E+00  0.0000000E+00  0.2525252E-01  0.4981400E-10  0.0000000E+00 -0.4683326E-04
  0.3585859E+00  0.0000000E+00  0.2525252E-01  0.4742799E-10  0.0000000E+00 -0.4683324E-04
  0.3686869E+00  0.0000000E+00  0.2525252E-01  0.4480249E-10  0.0000000E+00 -0.4683322E-04
  0.3787879E+00  0.0000000E+00  0.2525252E-01  0.4194791E-10  0.0000000E+00 -0.4683320E-04
  0.3888889E+00  0.0000000E+00  0.2525252E-01  0.3887591E-10  0.0000000E+00 -0.4683318E-04
  0.3989899E+00  0.0000000E+00  0.2525252E-01  0.3559928E-10  0.0000000E+00 -0.4683317E-04
  0.4090909E+00  0.0000000E+00  0.2525252E-01  0.3213189E-10  0.0000000E+00 -0.4683315E-04
  0.4191919E+00  0.0000000E+00  0.2525252E-01  0.2848863E-10  0.0000000E+00 -0.4683314E-04
  0.4292929E+00  0.0000000E+00  0.2525252E-01  0.2468559E-10  0.0000000E+00 -0.4683313E-04
  0.4393939E+00  0.0000000E+00  0.2525252E-01  0.2074023E-10  0.0000000E+00 -0.4683312E-04
  0.4494950E+00  0.0000000E+00  0.2525252E-01  0.1667186E-10  0.0000000E+00 -0.4683311E-04
  0.4595959E+00  0.0000000E+00  0.2525252E-01  0.1250206E-10  0.0000000E+00 -0.4683310E-04
  0.4696970E+00  0.0000000E+00  0.2525252E-01  0.8254853E-11  0.0000000E+00 -0.4683310E-04
  0.4797980E+00  0.0000000E+00  0.2525252E-01  0.3955423E-11  0.0000000E+00 -0.4683310E-04
  0.4898990E+00  0.0000000E+00  0.2525252E-01 -0.3749174E-12  0.0000000E+00 -0.4683310E-04
  0.5000000E+00  0.0000000E+00  0.2525252E-01 -0.4693758E-11  0.0000000E+00 -0.4683310E-04
  0.5101010E+00  0.0000000E+00  0.2525252E-01 -0.8992010E-11  0.0000000E+00 -0.4683310E-04
  0.5202020E+00  0.0000000E+00  0.2525252E-01 -0.1326974E-10  0.0000000E+00 -0.4683310E-04
  0.5303030E+00  0.0000000E+00  0.2525252E-01 -0.1744221E-10  0.0000000E+00 -0.4683311E-04
  0.5404040E+00  0.0000000E+00  0.2525252E-01 -0.2153735E-10  0.0000000E+00 -0.4683312E-04
  0.5505050E+00  0.0000000E+00  0.2525252E-01 -0.2552254E-10  0.0000000E+00 -0.4683313E-04
  0.5606061E+00  0.0000000E+00  0.2525252E-01 -0.2936163E-10  0.0000000E+00 -0.4683314E-04
  0.5707071E+00  0.0000000E+00  0.2525252E-01 -0.3303439E-10  0.0000000E+00 -0.4683315E-04
  0.5808081E+00  0.0000000E+00  0.2525252E-01 -0.3652435E-10  0.0000000E+00 -0.4683317E-04
  0.5909091E+00  0.0000000E+00  0.2525252E-01 -0.3982205E-10  0.0000000E+00 -0.4683318E-04
  0.6010101E+00  0.0000000E+00  0.2525252E-01 -0.4291709E-10  0.0000000E+00 -0.4683320E-04
  0.6111111E+00  0.0000000E+00  0.2525252E-01 -0.4579860E-10  0.0000000E+00 -0.4683322E-04
  0.6212121E+00  0.0000000E+00  0.2525252E-01 -0.4845641E-10  0.0000000E+00 -0.4683324E-04
  0.6313131E+00  0.0000000E+00  0.2525252E-01 -0.5088204E-10  0.0000000E+00 -0.4683326E-04
  0.6414142E+00  0.0000000E+00  0.2525252E-01 -0.5306771E-10  0.0000000E+00 -0.4683328E-04
  0.6515151E+00  0.0000000E+00  0.2525252E-01 -0.5500638E-10  0.0000000E+00 -0.4683331E-04
  0.6616161E+00  0.0000000E+00  0.2525252E-01 -0.5669267E-10  0.0000000E+00 -0.4683333E-04
  0.6717172E+00  0.0000000E+00  0.2525252E-01 -0.5812297E-10  0.0000000E+00 -0.4683335E-04
  0.6818182E+00  0.0000000E+00  0.2525252E-01 -0.5929514E-10  0.0000000E+00 -0.4683338E-04
  0.6919192E+00  0.0000000E+00  0.2525252E-01 -0.6020842E-10  0.0000000E+00 -0.4683340E-04
  0.7020202E+00  0.0000000E+00  0.2525252E-01 -0.6086351E-10  0.0000000E+00 -0.4683343E-04
  0.7121212E+00  0.0000000E+00  0.2525252E-01 -0.6126256E-10  0.0000000E+00 -0.4683345E-04
  0.7222222E+00  0.0000000E+00  0.2525252E-01 -0.6140918E-10  0.0000000E+00 -0.4683348E-04
  0.7323232E+00  0.0000000E+00  0.2525252E-01 -0.6130825E-10  0.0000000E+00 -0.4683351E-04
  0.7424242E+00  0.0000000E+00  0.2525252E-01 -0.6096581E-10  0.0000000E+00 -0.4683353E-04
  0.7525253E+00  0.0000000E+00  0.2525252E-01 -0.6038898E-10  0.0000000E+00 -0.4683356E-04
  0.7626263E+00  0.0000000E+00  0.2525252E-01 -0.5958582E-10  0.0000000E+00 -0.4683358E-04
  0.7727273E+00  0.0000000E+00  0.2525252E-01 -0.5856523E-10  0.0000000E+00 -0.4683361E-04
  0.7828283E+00  0.0000000E+00  0.2525252E-01 -0.5733683E-10  0.0000000E+00 -0.4683363E-04
  0.7929293E+00  0.0000000E+00  0.2525252E-01 -0.5591082E-10  0.0000000E+00 -0.4683365E-04
  0.8030303E+00  0.0000000E+00  0.2525252E-01 -0.5429786E-10  0.0000000E+00 -0.4683368E-04
  0.8131313E+00  0.0000000E+00  0.2525252E-01 -0.5250894E-10  0.0000000E+00 -0.4683370E-04
  0.8232324E+00  0.0000000E+00  0.2525252E-01 -0.5055527E-10  0.0000000E+00 -0.4683372E-04
  0.8333333E+00  0.0000000E+00  0.2525252E-01 -0.4844815E-10  0.0000000E+00 -0.4683374E-04
  0.8434343E+00  0.0000000E+00  0.2525252E-01 -0.4619880E-10  0.0000000E+00 -0.4683376E-04
  0.8535354E+00  0.0000000E+00  0.2525252E-01 -0.4381825E-10  0.0000000E+00 -0.4683378E-04
  0.8636364E+00  0.0000000E+00  0.2525252E-01 -0.4131718E-10  0.0000000E+00 -0.4683380E-04
  0.8737374E+00  0.0000000E+00  0.2525252E-01 -0.3870575E-10  0.0000000E+00 -0.4683382E-04
  0.8838384E+00  0.0000000E+00  0.2525252E-01 -0.3599339E-10  0.0000000E+00 -0.4683383E-04
  0.8939394E+00  0.0000000E+00  0.2525252E-01 -0.3318874E-10  0.0000000E+00 -0.4683385E-04
  0.9040404E+00  0.0000000E+00  0.2525252E-01 -0.3029947E-10  0.0000000E+00 -0.4683386E-04
  0.9141414E+00  0.0000000E+00  0.2525252E-01 -0.2733226E-10  0.0000000E+00 -0.4683387E-04
  0.9242424E+00  0.0000000E+00  0.2525252E-01 -0.2429297E-10  0.0000000E+00 -0.4683388E-04
  0.9343435E+00  0.0000000E+00  0.2525252E-01 -0.2118688E-10  0.0000000E+00 -0.4683389E-04
  0.9444444E+00  0.0000000E+00  0.2525252E-01 -0.1801917E-10  0.0000000E+00 -0.4683390E-04
  0.9545454E+00  0.0000000E+00  0.2525252E-01 -0.1479569E-10  0.0000000E+00 -0.4683391E-04
  0.9646465E+00  0.0000000E+00  0.2525252E-01 -0.1152339E-10  0.0000000E+00 -0.4683391E-04
  0.9747475E+00  0.0000000E+00  0.2525252E-01 -0.8210411E-11  0.0000000E+00 -0.4683392E-04
  0.9848485E+00  0.0000000E+00  0.2525252E-01 -0.4862858E-11  0.0000000E+00 -0.4683392E-04
  0.9974747E+00  0.0000000E+00  0.2525252E-01 -0.1481330E-11  0.0000000E+00 -0.4683392E-04
  0.5050505E-02  0.0000000E+00  0.3535353E-01  0.2664440E-11  0.0000000E+00 -0.4625915E-04
  0.1515152E-01  0.0000000E+00  0.3535353E-01  0.7518878E-11  0.0000000E+00 -0.4625915E-04
  0.2525252E-01  0.0000000E+00  0.3535353E-01  0.1232194E-10  0.0000000E+00 -0.4625914E-04
  0.3535353E-01  0.0000000E+00  0.3535353E-01  0.1710589E-10  0.0000000E+00 -0.4625914E-04
  0.4545455E-01  0.0000000E+00  0.3535353E-01  0.2187954E-10  0.0000000E+00 -0.4625913E-04
  0.5555556E-01  0.0000000E+00  0.3535353E-01  0.2660770E-10  0.0000000E+00 -0.4625913E-04
  0.6565657E-01  0.0000000E+00  0.3535353E-01  0.3124871E-10  0.0000000E+00 -0.4625912E-04
  0.7575758E-01  0.0000000E+00  0.3535353E-01  0.3578316E-10  0.0000000E+00 -0.4625911E-04
  0.8585858E-01  0.0000000E+00  0.3535353E-01  0.4019916E-10  0.0000000E+00 -0.4625909E-04
  0.9595960E-01  0.0000000E+00  0.3535353E-01  0.4449172E-10  0.0000000E+00 -0.4625908E-04
  0.1060606E+00  0.0000000E+00  0.3535353E-01  0.4865233E-10  0.0000000E+00 -0.4625907E-04
  0.1161616E+00  0.0000000E+00  0.3535353E-01  0.5266950E-10  0.0000000E+00 -0.4625905E-04
  0.1262626E+00  0.0000000E+00  0.3535353E-01  0.5653044E-10  0.0000000E+00 -0.4625903E-04
  0.1363636E+00  0.0000000E+00  0.3535353E-01  0.6021951E-10  0.0000000E+00 -0.4625902E-04
  0.1464646E+00  0.0000000E+00  0.3535353E-01  0.6372041E-10  0.0000000E+00 -0.4625900E-04
  0.1565657E+00  0.0000000E+00  0.3535353E-01  0.6701608E-10  0.0000000E+00 -0.4625898E-04
  0.1666667E+00  0.0000000E+00  0.3535353E-01  0.7008906E-10  0.0000000E+00 -0.4625895E-04
  0.1767677E+00  0.0000000E+00  0.3535353E-01  0.7292202E-10  0.0000000E+00 -0.4625893E-04
  0.1868687E+00  0.0000000E+00  0.3535353E-01  0.7549780E-10  0.0000000E+00 -0.4625891E-04
  0.1969697E+00  0.0000000E+00  0.3535353E-01  0.7779962E-10  0.0000000E+00 -0.4625889E-04
  0.2070707E+00  0.0000000E+00  0.3535353E-01  0.7981119E-10  0.0000000E+00 -0.4625886E-04
  0.2171717E+00  0.0000000E+00  0.3535353E-01  0.8151689E-10  0.0000000E+00 -0.4625884E-04
  0.2272727E+00  0.0000000E+00  0.3535353E-01  0.8290200E-10  0.0000000E+00 -0.4625881E-04
  0.2373737E+00  0.0000000E+00  0.3535353E-01  0.8395279E-10  0.0000000E+00 -0.4625878E-04
  0.2474747E+00  0.0000000E+00  0.3535353E-01  0.8465676E-10  0.0000000E+00 -0.4625876E-04
  0.2575758E+00  0.0000000E+00  0.3535353E-01  0.8500288E-10  0.0000000E+00 -0.4625873E-04
  0.2676768E+00  0.0000000E+00  0.3535353E-01  0.8498178E-10  0.0000000E+00 -0.4625870E-04
  0.2777778E+00  0.0000000E+00  0.3535353E-01  0.8458591E-10  0.0000000E+00 -0.4625868E-04
  0.2878788E+00  0.0000000E+00  0.3535353E-01  0.8380973E-10  0.0000000E+00 -0.4625865E-04
  0.2979798E+00  0.0000000E+00  0.3535353E-01  0.8264977E-10  0.0000000E+00 -0.4625863E-04