title = "dataset water"
variables = "x", "y", "z", "vx", "vy", "vz"
zone t = "velocities, solution time =  4.200E+01 days        " i =   99, j =   99, k =    1,  f=point
  0.5050505E-02  0.0000000E+00  0.5050505E-02  0.6410316E-07  0.0000000E+00  0.6405035E-04
  0.1515152E-01  0.0000000E+00  0.5050505E-02  0.1925863E-06  0.0000000E+00  0.6430981E-04
  0.2525252E-01  0.0000000E+00  0.5050505E-02  0.3219057E-06  0.0000000E+00  0.6482988E-04
  0.3535353E-01  0.0000000E+00  0.5050505E-02  0.4526308E-06  0.0000000E+00  0.6561287E-04
  0.4545455E-01  0.0000000E+00  0.5050505E-02  0.5853442E-06  0.0000000E+00  0.6666227E-04
  0.5555556E-01  0.0000000E+00  0.5050505E-02  0.7206469E-06  0.0000000E+00  0.6798281E-04
  0.6565657E-01  0.0000000E+00  0.5050505E-02  0.8591623E-06  0.0000000E+00  0.6958048E-04
  0.7575758E-01  0.0000000E+00  0.5050505E-02  0.1001542E-05  0.0000000E+00  0.7146258E-04
  0.8585858E-01  0.0000000E+00  0.5050505E-02  0.1148474E-05  0.0000000E+00  0.7363782E-04
  0.9595960E-01  0.0000000E+00  0.5050505E-02  0.1300685E-05  0.0000000E+00  0.7611638E-04
  0.1060606E+00  0.0000000E+00  0.5050505E-02  0.1458952E-05  0.0000000E+00  0.7890998E-04
  0.1161616E+00  0.0000000E+00  0.5050505E-02  0.1624111E-05  0.0000000E+00  0.8203206E-04
  0.1262626E+00  0.0000000E+00  0.5050505E-02  0.1797064E-05  0.0000000E+00  0.8549785E-04
  0.1363636E+00  0.0000000E+00  0.5050505E-02  0.1978795E-05  0.0000000E+00  0.8932457E-04
  0.1464646E+00  0.0000000E+00  0.5050505E-02  0.2170380E-05  0.0000000E+00  0.9353160E-04
  0.1565657E+00  0.0000000E+00  0.5050505E-02  0.2373007E-05  0.0000000E+00  0.9814071E-04
  0.1666667E+00  0.0000000E+00  0.5050505E-02  0.2587993E-05  0.0000000E+00  0.1031763E-03
  0.1767677E+00  0.0000000E+00  0.5050505E-02  0.2816811E-05  0.0000000E+00  0.1086658E-03
  0.1868687E+00  0.0000000E+00  0.5050505E-02  0.3061118E-05  0.0000000E+00  0.1146398E-03
  0.1969697E+00  0.0000000E+00  0.5050505E-02  0.3322795E-05  0.0000000E+00  0.1211327E-03
  0.2070707E+00  0.0000000E+00  0.5050505E-02  0.3603991E-05  0.0000000E+00  0.1281834E-03
  0.2171717E+00  0.0000000E+00  0.5050505E-02  0.3907189E-05  0.0000000E+00  0.1358356E-03
  0.2272727E+00  0.0000000E+00  0.5050505E-02  0.4235286E-05  0.0000000E+00  0.1441386E-03
  0.2373737E+00  0.0000000E+00  0.5050505E-02  0.4591694E-05  0.0000000E+00  0.1531488E-03
  0.2474747E+00  0.0000000E+00  0.5050505E-02  0.4980487E-05  0.0000000E+00  0.1629303E-03
  0.2575758E+00  0.0000000E+00  0.5050505E-02  0.5406593E-05  0.0000000E+00  0.1735573E-03
  0.2676768E+00  0.0000000E+00  0.5050505E-02  0.5876052E-05  0.0000000E+00  0.1851155E-03
  0.2777778E+00  0.0000000E+00  0.5050505E-02  0.6396388E-05  0.0000000E+00  0.1977053E-03
  0.2878788E+00  0.0000000E+00  0.5050505E-02  0.6977117E-05  0.0000000E+00  0.2114457E-03
  0.2979798E+00  0.0000000E+00  0.5050505E-02  0.7630476E-05  0.0000000E+00  0.2264793E-03
  0.3080808E+00  0.0000000E+00  0.5050505E-02  0.8372473E-05  0.0000000E+00  0.2429790E-03
  0.3181818E+00  0.0000000E+00  0.5050505E-02  0.9224399E-05  0.0000000E+00  0.2611586E-03
  0.3282828E+00  0.0000000E+00  0.5050505E-02  0.1021508E-04  0.0000000E+00  0.2812863E-03
  0.3383838E+00  0.0000000E+00  0.5050505E-02  0.1138426E-04  0.0000000E+00  0.3037052E-03
  0.3484848E+00  0.0000000E+00  0.5050505E-02  0.1278776E-04  0.0000000E+00  0.3288629E-03
  0.3585859E+00  0.0000000E+00  0.5050505E-02  0.1450572E-04  0.0000000E+00  0.3573564E-03
  0.3686869E+00  0.0000000E+00  0.5050505E-02  0.1665632E-04  0.0000000E+00  0.3900014E-03
  0.3787879E+00  0.0000000E+00  0.5050505E-02  0.1942014E-04  0.0000000E+00  0.4279453E-03
  0.3888889E+00  0.0000000E+00  0.5050505E-02  0.2308789E-04  0.0000000E+00  0.4728607E-03
  0.3989899E+00  0.0000000E+00  0.5050505E-02  0.2816534E-04  0.0000000E+00  0.5273143E-03
  0.4090909E+00  0.0000000E+00  0.5050505E-02  0.3564003E-04  0.0000000E+00  0.5955572E-03
  0.4191919E+00  0.0000000E+00  0.5050505E-02  0.4776790E-04  0.0000000E+00  0.6855198E-03
  0.4292929E+00  0.0000000E+00  0.5050505E-02  0.7072187E-04  0.0000000E+00  0.8147696E-03
  0.4393939E+00  0.0000000E+00  0.5050505E-02  0.6699207E-04  0.0000000E+00  0.9670965E-03
  0.4494950E+00  0.0000000E+00  0.5050505E-02  0.6695242E-04  0.0000000E+00  0.1117981E-02
  0.4595959E+00  0.0000000E+00  0.5050505E-02  0.1007543E-03  0.0000000E+00  0.1310621E-02
  0.4696970E+00  0.0000000E+00  0.5050505E-02 -0.3578689E-04  0.0000000E+00  0.1385054E-02
  0.4797980E+00  0.0000000E+00  0.5050505E-02 -0.2395344E-04  0.0000000E+00  0.1314920E-02
  0.4898990E+00  0.0000000E+00  0.5050505E-02 -0.6910139E-04  0.0000000E+00  0.1207582E-02
  0.5000000E+00  0.0000000E+00  0.5050505E-02 -0.4456870E-04  0.0000000E+00  0.1077696E-02
  0.5101010E+00  0.0000000E+00  0.5050505E-02 -0.4131302E-04  0.0000000E+00  0.9807782E-03
  0.5202020E+00  0.0000000E+00  0.5050505E-02 -0.4982162E-04  0.0000000E+00  0.8792391E-03
  0.5303030E+00  0.0000000E+00  0.5050505E-02 -0.4778583E-04  0.0000000E+00  0.7717844E-03
  0.5404040E+00  0.0000000E+00  0.5050505E-02 -0.3572487E-04  0.0000000E+00  0.6807899E-03
  0.5505050E+00  0.0000000E+00  0.5050505E-02 -0.2928656E-04  0.0000000E+00  0.6105643E-03
  0.5606061E+00  0.0000000E+00  0.5050505E-02 -0.2496139E-04  0.0000000E+00  0.5523787E-03
  0.5707071E+00  0.0000000E+00  0.5050505E-02 -0.2170864E-04  0.0000000E+00  0.5026220E-03
  0.5808081E+00  0.0000000E+00  0.5050505E-02 -0.1911959E-04  0.0000000E+00  0.4593209E-03
  0.5909091E+00  0.0000000E+00  0.5050505E-02 -0.1698859E-04  0.0000000E+00  0.4212019E-03
  0.6010101E+00  0.0000000E+00  0.5050505E-02 -0.1519483E-04  0.0000000E+00  0.3873652E-03
  0.6111111E+00  0.0000000E+00  0.5050505E-02 -0.1366055E-04  0.0000000E+00  0.3571384E-03
  0.6212121E+00  0.0000000E+00  0.5050505E-02 -0.1233260E-04  0.0000000E+00  0.3299993E-03
  0.6313131E+00  0.0000000E+00  0.5050505E-02 -0.1117283E-04  0.0000000E+00  0.3055304E-03
  0.6414142E+00  0.0000000E+00  0.5050505E-02 -0.1015275E-04  0.0000000E+00  0.2833902E-03
  0.6515151E+00  0.0000000E+00  0.5050505E-02 -0.9250296E-05  0.0000000E+00  0.2632951E-03
  0.6616161E+00  0.0000000E+00  0.5050505E-02 -0.8447963E-05  0.0000000E+00  0.2450063E-03
  0.6717172E+00  0.0000000E+00  0.5050505E-02 -0.7731527E-05  0.0000000E+00  0.2283209E-03
  0.6818182E+00  0.0000000E+00  0.5050505E-02 -0.7089251E-05  0.0000000E+00  0.2130649E-03
  0.6919192E+00  0.0000000E+00  0.5050505E-02 -0.6511330E-05  0.0000000E+00  0.1990888E-03
  0.7020202E+00  0.0000000E+00  0.5050505E-02 -0.5989497E-05  0.0000000E+00  0.1862629E-03
  0.7121212E+00  0.0000000E+00  0.5050505E-02 -0.5516730E-05  0.0000000E+00  0.1744744E-03
  0.7222222E+00  0.0000000E+00  0.5050505E-02 -0.5087027E-05  0.0000000E+00  0.1636248E-03
  0.7323232E+00  0.0000000E+00  0.5050505E-02 -0.4695235E-05  0.0000000E+00  0.1536280E-03
  0.7424242E+00  0.0000000E+00  0.5050505E-02 -0.4336910E-05  0.0000000E+00  0.1444081E-03
  0.7525253E+00  0.0000000E+00  0.5050505E-02 -0.4008199E-05  0.0000000E+00  0.1358984E-03
  0.7626263E+00  0.0000000E+00  0.5050505E-02 -0.3705754E-05  0.0000000E+00  0.1280398E-03
  0.7727273E+00  0.0000000E+00  0.5050505E-02 -0.3426652E-05  0.0000000E+00  0.1207801E-03
  0.7828283E+00  0.0000000E+00  0.5050505E-02 -0.3168332E-05  0.0000000E+00  0.1140729E-03
  0.7929293E+00  0.0000000E+00  0.5050505E-02 -0.2928543E-05  0.0000000E+00  0.1078770E-03
  0.8030303E+00  0.0000000E+00  0.5050505E-02 -0.2705300E-05  0.0000000E+00  0.1021557E-03
  0.8131313E+00  0.0000000E+00  0.5050505E-02 -0.2496843E-05  0.0000000E+00  0.9687611E-04
  0.8232324E+00  0.0000000E+00  0.5050505E-02 -0.2301612E-05  0.0000000E+00  0.9200914E-04
  0.8333333E+00  0.0000000E+00  0.5050505E-02 -0.2118214E-05  0.0000000E+00  0.8752867E-04
  0.8434343E+00  0.0000000E+00  0.5050505E-02 -0.1945402E-05  0.0000000E+00  0.8341137E-04
  0.8535354E+00  0.0000000E+00  0.5050505E-02 -0.1782060E-05  0.0000000E+00  0.7963640E-04
  0.8636364E+00  0.0000000E+00  0.5050505E-02 -0.1627176E-05  0.0000000E+00  0.7618517E-04
  0.8737374E+00  0.0000000E+00  0.5050505E-02 -0.1479839E-05  0.0000000E+00  0.7304110E-04
  0.8838384E+00  0.0000000E+00  0.5050505E-02 -0.1339217E-05  0.0000000E+00  0.7018941E-04
  0.8939394E+00  0.0000000E+00  0.5050505E-02 -0.1204551E-05  0.0000000E+00  0.6761700E-04
  0.9040404E+00  0.0000000E+00  0.5050505E-02 -0.1075144E-05  0.0000000E+00  0.6531230E-04
  0.9141414E+00  0.0000000E+00  0.5050505E-02 -0.9503529E-06  0.0000000E+00  0.6326509E-04
  0.9242424E+00  0.0000000E+00  0.5050505E-02 -0.8295792E-06  0.0000000E+00  0.6146647E-04
  0.9343435E+00  0.0000000E+00  0.5050505E-02 -0.7122646E-06  0.0000000E+00  0.5990874E-04
  0.9444444E+00  0.0000000E+00  0.5050505E-02 -0.5978839E-06  0.0000000E+00  0.5858531E-04
  0.9545454E+00  0.0000000E+00  0.5050505E-02 -0.4859394E-06  0.0000000E+00  0.5749064E-04
  0.9646465E+00  0.0000000E+00  0.5050505E-02 -0.3759567E-06  0.0000000E+00  0.5662021E-04
  0.9747475E+00  0.0000000E+00  0.5050505E-02 -0.2674795E-06  0.0000000E+00  0.5597046E-04
  0.9848485E+00  0.0000000E+00  0.5050505E-02 -0.1600661E-06  0.0000000E+00  0.5553874E-04
  0.9974747E+00  0.0000000E+00  0.5050505E-02 -0.5328554E-07  0.0000000E+00  0.5532331E-04
  0.5050505E-02  0.0000000E+00  0.1515152E-01  0.1920463E-06  0.0000000E+00  0.6402568E-04
  0.1515152E-01  0.0000000E+00  0.1515152E-01  0.5769698E-06  0.0000000E+00  0.6428484E-04
  0.2525252E-01  0.0000000E+00  0.1515152E-01  0.9644015E-06  0.0000000E+00  0.6480429E-04
  0.3535353E-01  0.0000000E+00  0.1515152E-01  0.1356047E-05  0.0000000E+00  0.6558632E-04
  0.4545455E-01  0.0000000E+00  0.1515152E-01  0.1753650E-05  0.0000000E+00  0.6663442E-04
  0.5555556E-01  0.0000000E+00  0.1515152E-01  0.2159011E-05  0.0000000E+00  0.6795328E-04
  0.6565657E-01  0.0000000E+00  0.1515152E-01  0.2573996E-05  0.0000000E+00  0.6954887E-04
  0.7575758E-01  0.0000000E+00  0.1515152E-01  0.3000556E-05  0.0000000E+00  0.7142847E-04
  0.8585858E-01  0.0000000E+00  0.1515152E-01  0.3440746E-05  0.0000000E+00  0.7360074E-04
  0.9595960E-01  0.0000000E+00  0.1515152E-01  0.3896746E-05  0.0000000E+00  0.7607581E-04
  0.1060606E+00  0.0000000E+00  0.1515152E-01  0.4370881E-05  0.0000000E+00  0.7886536E-04
  0.1161616E+00  0.0000000E+00  0.1515152E-01  0.4865649E-05  0.0000000E+00  0.8198274E-04
  0.1262626E+00  0.0000000E+00  0.1515152E-01  0.5383751E-05  0.0000000E+00  0.8544311E-04
  0.1363636E+00  0.0000000E+00  0.1515152E-01  0.5928128E-05  0.0000000E+00  0.8926361E-04
  0.1464646E+00  0.0000000E+00  0.1515152E-01  0.6502000E-05  0.0000000E+00  0.9346349E-04
  0.1565657E+00  0.0000000E+00  0.1515152E-01  0.7108913E-05  0.0000000E+00  0.9806437E-04
  0.1666667E+00  0.0000000E+00  0.1515152E-01  0.7752806E-05  0.0000000E+00  0.1030905E-03
  0.1767677E+00  0.0000000E+00  0.1515152E-01  0.8438073E-05  0.0000000E+00  0.1085691E-03
  0.1868687E+00  0.0000000E+00  0.1515152E-01  0.9169659E-05  0.0000000E+00  0.1145305E-03
  0.1969697E+00  0.0000000E+00  0.1515152E-01  0.9953171E-05  0.0000000E+00  0.1210089E-03
  0.2070707E+00  0.0000000E+00  0.1515152E-01  0.1079501E-04  0.0000000E+00  0.1280426E-03
  0.2171717E+00  0.0000000E+00  0.1515152E-01  0.1170257E-04  0.0000000E+00  0.1356748E-03
  0.2272727E+00  0.0000000E+00  0.1515152E-01  0.1268444E-04  0.0000000E+00  0.1439543E-03
  0.2373737E+00  0.0000000E+00  0.1515152E-01  0.1375076E-04  0.0000000E+00  0.1529365E-03
  0.2474747E+00  0.0000000E+00  0.1515152E-01  0.1491359E-04  0.0000000E+00  0.1626844E-03
  0.2575758E+00  0.0000000E+00  0.1515152E-01  0.1618748E-04  0.0000000E+00  0.1732706E-03
  0.2676768E+00  0.0000000E+00  0.1515152E-01  0.1759026E-04  0.0000000E+00  0.1847787E-03
  0.2777778E+00  0.0000000E+00  0.1515152E-01  0.1914406E-04  0.0000000E+00  0.1973063E-03
  0.2878788E+00  0.0000000E+00  0.1515152E-01  0.2087679E-04  0.0000000E+00  0.2109682E-03
  0.2979798E+00  0.0000000E+00  0.1515152E-01  0.2282428E-04  0.0000000E+00  0.2259014E-03
  0.3080808E+00  0.0000000E+00  0.1515152E-01  0.2503322E-04  0.0000000E+00  0.2422709E-03
  0.3181818E+00  0.0000000E+00  0.1515152E-01  0.2756556E-04  0.0000000E+00  0.2602789E-03
  0.3282828E+00  0.0000000E+00  0.1515152E-01  0.3050487E-04  0.0000000E+00  0.2801767E-03
  0.3383838E+00  0.0000000E+00  0.1515152E-01  0.3396588E-04  0.0000000E+00  0.3022827E-03
  0.3484848E+00  0.0000000E+00  0.1515152E-01  0.3810901E-04  0.0000000E+00  0.3270069E-03
  0.3585859E+00  0.0000000E+00  0.1515152E-01  0.4316291E-04  0.0000000E+00  0.3548881E-03
  0.3686869E+00  0.0000000E+00  0.1515152E-01  0.4946108E-04  0.0000000E+00  0.3866473E-03
  0.3787879E+00  0.0000000E+00  0.1515152E-01  0.5750410E-04  0.0000000E+00  0.4232676E-03
  0.3888889E+00  0.0000000E+00  0.1515152E-01  0.6807264E-04  0.0000000E+00  0.4661097E-03
  0.3989899E+00  0.0000000E+00  0.1515152E-01  0.8244996E-04  0.0000000E+00  0.5170653E-03
  0.4090909E+00  0.0000000E+00  0.1515152E-01  0.1029041E-03  0.0000000E+00  0.5786766E-03
  0.4191919E+00  0.0000000E+00  0.1515152E-01  0.1338627E-03  0.0000000E+00  0.6537790E-03
  0.4292929E+00  0.0000000E+00  0.1515152E-01  0.1852201E-03  0.0000000E+00  0.7425312E-03
  0.4393939E+00  0.0000000E+00  0.1515152E-01  0.1990096E-03  0.0000000E+00  0.8613817E-03
  0.4494950E+00  0.0000000E+00  0.1515152E-01  0.1970986E-03  0.0000000E+00  0.1003563E-02
  0.4595959E+00  0.0000000E+00  0.1515152E-01  0.2361557E-03  0.0000000E+00  0.1114196E-02
  0.4696970E+00  0.0000000E+00  0.1515152E-01  0.1345418E-05  0.0000000E+00  0.1239344E-02
  0.4797980E+00  0.0000000E+00  0.1515152E-01 -0.9151403E-04  0.0000000E+00  0.1273320E-02
  0.4898990E+00  0.0000000E+00  0.1515152E-01 -0.1984897E-03  0.0000000E+00  0.1152934E-02
  0.5000000E+00  0.0000000E+00  0.1515152E-01 -0.1417962E-03  0.0000000E+00  0.1024363E-02
  0.5101010E+00  0.0000000E+00  0.1515152E-01 -0.1409206E-03  0.0000000E+00  0.9001058E-03
  0.5202020E+00  0.0000000E+00  0.1515152E-01 -0.1321912E-03  0.0000000E+00  0.7995415E-03
  0.5303030E+00  0.0000000E+00  0.1515152E-01 -0.1253699E-03  0.0000000E+00  0.7311679E-03
  0.5404040E+00  0.0000000E+00  0.1515152E-01 -0.1022385E-03  0.0000000E+00  0.6653012E-03
  0.5505050E+00  0.0000000E+00  0.1515152E-01 -0.8606729E-04  0.0000000E+00  0.6024007E-03
  0.5606061E+00  0.0000000E+00  0.1515152E-01 -0.7400981E-04  0.0000000E+00  0.5470885E-03
  0.5707071E+00  0.0000000E+00  0.1515152E-01 -0.6460351E-04  0.0000000E+00  0.4988137E-03
  0.5808081E+00  0.0000000E+00  0.1515152E-01 -0.5700881E-04  0.0000000E+00  0.4564205E-03
  0.5909091E+00  0.0000000E+00  0.1515152E-01 -0.5071454E-04  0.0000000E+00  0.4189135E-03
  0.6010101E+00  0.0000000E+00  0.1515152E-01 -0.4539495E-04  0.0000000E+00  0.3855145E-03
  0.6111111E+00  0.0000000E+00  0.1515152E-01 -0.4083303E-04  0.0000000E+00  0.3556146E-03
  0.6212121E+00  0.0000000E+00  0.1515152E-01 -0.3687766E-04  0.0000000E+00  0.3287281E-03
  0.6313131E+00  0.0000000E+00  0.1515152E-01 -0.3341905E-04  0.0000000E+00  0.3044595E-03
  0.6414142E+00  0.0000000E+00  0.1515152E-01 -0.3037440E-04  0.0000000E+00  0.2824817E-03
  0.6515151E+00  0.0000000E+00  0.1515152E-01 -0.2767923E-04  0.0000000E+00  0.2625202E-03
  0.6616161E+00  0.0000000E+00  0.1515152E-01 -0.2528200E-04  0.0000000E+00  0.2443427E-03
  0.6717172E+00  0.0000000E+00  0.1515152E-01 -0.2314069E-04  0.0000000E+00  0.2277508E-03
  0.6818182E+00  0.0000000E+00  0.1515152E-01 -0.2122053E-04  0.0000000E+00  0.2125740E-03
  0.6919192E+00  0.0000000E+00  0.1515152E-01 -0.1949239E-04  0.0000000E+00  0.1986652E-03
  0.7020202E+00  0.0000000E+00  0.1515152E-01 -0.1793168E-04  0.0000000E+00  0.1858967E-03
  0.7121212E+00  0.0000000E+00  0.1515152E-01 -0.1651750E-04  0.0000000E+00  0.1741575E-03
  0.7222222E+00  0.0000000E+00  0.1515152E-01 -0.1523195E-04  0.0000000E+00  0.1633503E-03
  0.7323232E+00  0.0000000E+00  0.1515152E-01 -0.1405967E-04  0.0000000E+00  0.1533899E-03
  0.7424242E+00  0.0000000E+00  0.1515152E-01 -0.1298741E-04  0.0000000E+00  0.1442015E-03
  0.7525253E+00  0.0000000E+00  0.1515152E-01 -0.1200365E-04  0.0000000E+00  0.1357190E-03
  0.7626263E+00  0.0000000E+00  0.1515152E-01 -0.1109842E-04  0.0000000E+00  0.1278840E-03
  0.7727273E+00  0.0000000E+00  0.1515152E-01 -0.1026298E-04  0.0000000E+00  0.1206448E-03
  0.7828283E+00  0.0000000E+00  0.1515152E-01 -0.9489680E-05  0.0000000E+00  0.1139553E-03
  0.7929293E+00  0.0000000E+00  0.1515152E-01 -0.8771796E-05  0.0000000E+00  0.1077748E-03
  0.8030303E+00  0.0000000E+00  0.1515152E-01 -0.8103394E-05  0.0000000E+00  0.1020668E-03
  0.8131313E+00  0.0000000E+00  0.1515152E-01 -0.7479221E-05  0.0000000E+00  0.9679887E-04
  0.8232324E+00  0.0000000E+00  0.1515152E-01 -0.6894608E-05  0.0000000E+00  0.9194198E-04
  0.8333333E+00  0.0000000E+00  0.1515152E-01 -0.6345394E-05  0.0000000E+00  0.8747025E-04
  0.8434343E+00  0.0000000E+00  0.1515152E-01 -0.5827853E-05  0.0000000E+00  0.8336053E-04
  0.8535354E+00  0.0000000E+00  0.1515152E-01 -0.5338640E-05  0.0000000E+00  0.7959213E-04
  0.8636364E+00  0.0000000E+00  0.1515152E-01 -0.4874739E-05  0.0000000E+00  0.7614659E-04
  0.8737374E+00  0.0000000E+00  0.1515152E-01 -0.4433418E-05  0.0000000E+00  0.7300742E-04
  0.8838384E+00  0.0000000E+00  0.1515152E-01 -0.4012192E-05  0.0000000E+00  0.7015995E-04
  0.8939394E+00  0.0000000E+00  0.1515152E-01 -0.3608790E-05  0.0000000E+00  0.6759118E-04
  0.9040404E+00  0.0000000E+00  0.1515152E-01 -0.3221128E-05  0.0000000E+00  0.6528957E-04
  0.9141414E+00  0.0000000E+00  0.1515152E-01 -0.2847280E-05  0.0000000E+00  0.6324499E-04
  0.9242424E+00  0.0000000E+00  0.1515152E-01 -0.2485457E-05  0.0000000E+00  0.6144860E-04
  0.9343435E+00  0.0000000E+00  0.1515152E-01 -0.2133990E-05  0.0000000E+00  0.5989271E-04
  0.9444444E+00  0.0000000E+00  0.1515152E-01 -0.1791305E-05  0.0000000E+00  0.5857080E-04
  0.9545454E+00  0.0000000E+00  0.1515152E-01 -0.1455914E-05  0.0000000E+00  0.5747734E-04
  0.9646465E+00  0.0000000E+00  0.1515152E-01 -0.1126398E-05  0.0000000E+00  0.5660786E-04
  0.9747475E+00  0.0000000E+00  0.1515152E-01 -0.8013908E-06  0.0000000E+00  0.5595879E-04
  0.9848485E+00  0.0000000E+00  0.1515152E-01 -0.4795707E-06  0.0000000E+00  0.5552751E-04
  0.9974747E+00  0.0000000E+00  0.1515152E-01 -0.1596474E-06  0.0000000E+00  0.5531230E-04
  0.5050505E-02  0.0000000E+00  0.2525252E-01  0.3193925E-06  0.0000000E+00  0.6397890E-04
  0.1515152E-01  0.0000000E+00  0.2525252E-01  0.9595619E-06  0.0000000E+00  0.6423746E-04
  0.2525252E-01  0.0000000E+00  0.2525252E-01  0.1603905E-05  0.0000000E+00  0.6475568E-04
  0.3535353E-01  0.0000000E+00  0.2525252E-01  0.2255257E-05  0.0000000E+00  0.6553584E-04
  0.4545455E-01  0.0000000E+00  0.2525252E-01  0.2916515E-05  0.0000000E+00  0.6658139E-04
  0.5555556E-01  0.0000000E+00  0.2525252E-01  0.3590666E-05  0.0000000E+00  0.6789699E-04
  0.6565657E-01  0.0000000E+00  0.2525252E-01  0.4280811E-05  0.0000000E+00  0.6948854E-04
  0.7575758E-01  0.0000000E+00  0.2525252E-01  0.4990188E-05  0.0000000E+00  0.7136326E-04
  0.8585858E-01  0.0000000E+00  0.2525252E-01  0.5722210E-05  0.0000000E+00  0.7352975E-04
  0.9595960E-01  0.0000000E+00  0.2525252E-01  0.6480491E-05  0.0000000E+00  0.7599803E-04
  0.1060606E+00  0.0000000E+00  0.2525252E-01  0.7268888E-05  0.0000000E+00  0.7877968E-04
  0.1161616E+00  0.0000000E+00  0.2525252E-01  0.8091547E-05  0.0000000E+00  0.8188792E-04
  0.1262626E+00  0.0000000E+00  0.2525252E-01  0.8952944E-05  0.0000000E+00  0.8533777E-04
  0.1363636E+00  0.0000000E+00  0.2525252E-01  0.9857951E-05  0.0000000E+00  0.8914616E-04
  0.1464646E+00  0.0000000E+00  0.2525252E-01  0.1081190E-04  0.0000000E+00  0.9333214E-04
  0.1565657E+00  0.0000000E+00  0.2525252E-01  0.1182066E-04  0.0000000E+00  0.9791706E-04
  0.1666667E+00  0.0000000E+00  0.2525252E-01  0.1289074E-04  0.0000000E+00  0.1029249E-03
  0.1767677E+00  0.0000000E+00  0.2525252E-01  0.1402940E-04  0.0000000E+00  0.1083823E-03
  0.1868687E+00  0.0000000E+00  0.2525252E-01  0.1524480E-04  0.0000000E+00  0.1143193E-03
  0.1969697E+00  0.0000000E+00  0.2525252E-01  0.1654616E-04  0.0000000E+00  0.1207695E-03
  0.2070707E+00  0.0000000E+00  0.2525252E-01  0.1794400E-04  0.0000000E+00  0.1277703E-03
  0.2171717E+00  0.0000000E+00  0.2525252E-01  0.1945045E-04  0.0000000E+00  0.1353640E-03
  0.2272727E+00  0.0000000E+00  0.2525252E-01  0.2107957E-04  0.0000000E+00  0.1435982E-03
  0.2373737E+00  0.0000000E+00  0.2525252E-01  0.2284786E-04  0.0000000E+00  0.1525265E-03
  0.2474747E+00  0.0000000E+00  0.2525252E-01  0.2477493E-04  0.0000000E+00  0.1622098E-03
  0.2575758E+00  0.0000000E+00  0.2525252E-01  0.2688434E-04  0.0000000E+00  0.1727177E-03
  0.2676768E+00  0.0000000E+00  0.2525252E-01  0.2920480E-04  0.0000000E+00  0.1841300E-03
  0.2777778E+00  0.0000000E+00  0.2525252E-01  0.3177179E-04  0.0000000E+00  0.1965386E-03
  0.2878788E+00  0.0000000E+00  0.2525252E-01  0.3462986E-04  0.0000000E+00  0.2100510E-03
  0.2979798E+00  0.0000000E+00  0.2525252E-01  0.3783580E-04  0.0000000E+00  0.2247934E-03
  0.3080808E+00  0.0000000E+00  0.2525252E-01  0.4146325E-04  0.0000000E+00  0.2409159E-03
  0.3181818E+00  0.0000000E+00  0.2525252E-01  0.4560930E-04  0.0000000E+00  0.2585993E-03
  0.3282828E+00  0.0000000E+00  0.2525252E-01  0.5040400E-04  0.0000000E+00  0.2780641E-03
  0.3383838E+00  0.0000000E+00  0.2525252E-01  0.5602460E-04  0.0000000E+00  0.2995829E-03
  0.3484848E+00  0.0000000E+00  0.2525252E-01  0.6271659E-04  0.0000000E+00  0.3234983E-03
  0.3585859E+00  0.0000000E+00  0.2525252E-01  0.7082563E-04  0.0000000E+00  0.3502463E-03
  0.3686869E+00  0.0000000E+00  0.2525252E-01  0.8084698E-04  0.0000000E+00  0.3803876E-03
  0.3787879E+00  0.0000000E+00  0.2525252E-01  0.9350363E-04  0.0000000E+00  0.4146469E-03
  0.3888889E+00  0.0000000E+00  0.2525252E-01  0.1098735E-03  0.0000000E+00  0.4539517E-03
  0.3989899E+00  0.0000000E+00  0.2525252E-01  0.1315980E-03  0.0000000E+00  0.4994407E-03
  0.4090909E+00  0.0000000E+00  0.2525252E-01  0.1611988E-03  0.0000000E+00  0.5523227E-03
  0.4191919E+00  0.0000000E+00  0.2525252E-01  0.2023697E-03  0.0000000E+00  0.6130942E-03
  0.4292929E+00  0.0000000E+00  0.2525252E-01  0.2590251E-03  0.0000000E+00  0.6778039E-03
  0.4393939E+00  0.0000000E+00  0.2525252E-01  0.2990988E-03  0.0000000E+00  0.7482114E-03
  0.4494950E+00  0.0000000E+00  0.2525252E-01  0.2917993E-03  0.0000000E+00  0.8209999E-03
  0.4595959E+00  0.0000000E+00  0.2525252E-01  0.3023888E-03  0.0000000E+00  0.8910758E-03
  0.4696970E+00  0.0000000E+00  0.2525252E-01  0.2054073E-03  0.0000000E+00  0.1075972E-02
  0.4797980E+00  0.0000000E+00  0.2525252E-01 -0.1935570E-03  0.0000000E+00  0.1157410E-02
  0.4898990E+00  0.0000000E+00  0.2525252E-01 -0.3113388E-03  0.0000000E+00  0.1029910E-02
  0.5000000E+00  0.0000000E+00  0.2525252E-01 -0.2438985E-03  0.0000000E+00  0.9154176E-03
  0.5101010E+00  0.0000000E+00  0.2525252E-01 -0.2221607E-03  0.0000000E+00  0.8346372E-03
  0.5202020E+00  0.0000000E+00  0.2525252E-01 -0.1860801E-03  0.0000000E+00  0.7852835E-03
  0.5303030E+00  0.0000000E+00  0.2525252E-01 -0.1912856E-03  0.0000000E+00  0.7222808E-03
  0.5404040E+00  0.0000000E+00  0.2525252E-01 -0.1630244E-03  0.0000000E+00  0.6505632E-03
  0.5505050E+00  0.0000000E+00  0.2525252E-01 -0.1395427E-03  0.0000000E+00  0.5902390E-03
  0.5606061E+00  0.0000000E+00  0.2525252E-01 -0.1209854E-03  0.0000000E+00  0.5378810E-03
  0.5707071E+00  0.0000000E+00  0.2525252E-01 -0.1061252E-03  0.0000000E+00  0.4918123E-03
  0.5808081E+00  0.0000000E+00  0.2525252E-01 -0.9394374E-04  0.0000000E+00  0.4509683E-03
  0.5909091E+00  0.0000000E+00  0.2525252E-01 -0.8374676E-04  0.0000000E+00  0.4145621E-03
  0.6010101E+00  0.0000000E+00  0.2525252E-01 -0.7506979E-04  0.0000000E+00  0.3819703E-03
  0.6111111E+00  0.0000000E+00  0.2525252E-01 -0.6759365E-04  0.0000000E+00  0.3526822E-03
  0.6212121E+00  0.0000000E+00  0.2525252E-01 -0.6109044E-04  0.0000000E+00  0.3262733E-03
  0.6313131E+00  0.0000000E+00  0.2525252E-01 -0.5539112E-04  0.0000000E+00  0.3023868E-03
  0.6414142E+00  0.0000000E+00  0.2525252E-01 -0.5036597E-04  0.0000000E+00  0.2807202E-03
  0.6515151E+00  0.0000000E+00  0.2525252E-01 -0.4591253E-04  0.0000000E+00  0.2610160E-03
  0.6616161E+00  0.0000000E+00  0.2525252E-01 -0.4194804E-04  0.0000000E+00  0.2430534E-03
  0.6717172E+00  0.0000000E+00  0.2525252E-01 -0.3840450E-04  0.0000000E+00  0.2266425E-03
  0.6818182E+00  0.0000000E+00  0.2525252E-01 -0.3522526E-04  0.0000000E+00  0.2116192E-03
  0.6919192E+00  0.0000000E+00  0.2525252E-01 -0.3236274E-04  0.0000000E+00  0.1978411E-03
  0.7020202E+00  0.0000000E+00  0.2525252E-01 -0.2977660E-04  0.0000000E+00  0.1851845E-03
  0.7121212E+00  0.0000000E+00  0.2525252E-01 -0.2743250E-04  0.0000000E+00  0.1735411E-03
  0.7222222E+00  0.0000000E+00  0.2525252E-01 -0.2530101E-04  0.0000000E+00  0.1628163E-03
  0.7323232E+00  0.0000000E+00  0.2525252E-01 -0.2335682E-04  0.0000000E+00  0.1529271E-03
  0.7424242E+00  0.0000000E+00  0.2525252E-01 -0.2157807E-04  0.0000000E+00  0.1438001E-03
  0.7525253E+00  0.0000000E+00  0.2525252E-01 -0.1994579E-04  0.0000000E+00  0.1353707E-03
  0.7626263E+00  0.0000000E+00  0.2525252E-01 -0.1844349E-04  0.0000000E+00  0.1275817E-03
  0.7727273E+00  0.0000000E+00  0.2525252E-01 -0.1705674E-04  0.0000000E+00  0.1203824E-03
  0.7828283E+00  0.0000000E+00  0.2525252E-01 -0.1577291E-04  0.0000000E+00  0.1137275E-03
  0.7929293E+00  0.0000000E+00  0.2525252E-01 -0.1458087E-04  0.0000000E+00  0.1075770E-03
  0.8030303E+00  0.0000000E+00  0.2525252E-01 -0.1347082E-04  0.0000000E+00  0.1018951E-03
  0.8131313E+00  0.0000000E+00  0.2525252E-01 -0.1243407E-04  0.0000000E+00  0.9664977E-04
  0.8232324E+00  0.0000000E+00  0.2525252E-01 -0.1146288E-04  0.0000000E+00  0.9181254E-04
  0.8333333E+00  0.0000000E+00  0.2525252E-01 -0.1055038E-04  0.0000000E+00  0.8735786E-04
  0.8434343E+00  0.0000000E+00  0.2525252E-01 -0.9690387E-05  0.0000000E+00  0.8326292E-04
  0.8535354E+00  0.0000000E+00  0.2525252E-01 -0.8877368E-05  0.0000000E+00  0.7950733E-04
  0.8636364E+00  0.0000000E+00  0.2525252E-01 -0.8106324E-05  0.0000000E+00  0.7607285E-04
  0.8737374E+00  0.0000000E+00  0.2525252E-01 -0.7372731E-05  0.0000000E+00  0.7294324E-04
  0.8838384E+00  0.0000000E+00  0.2525252E-01 -0.6672471E-05  0.0000000E+00  0.7010401E-04
  0.8939394E+00  0.0000000E+00  0.2525252E-01 -0.6001781E-05  0.0000000E+00  0.6754229E-04
  0.9040404E+00  0.0000000E+00  0.2525252E-01 -0.5357206E-05  0.0000000E+00  0.6524672E-04
  0.9141414E+00  0.0000000E+00  0.2525252E-01 -0.4735553E-05  0.0000000E+00  0.6320727E-04
  0.9242424E+00  0.0000000E+00  0.2525252E-01 -0.4133856E-05  0.0000000E+00  0.6141519E-04
  0.9343435E+00  0.0000000E+00  0.2525252E-01 -0.3549346E-05  0.0000000E+00  0.5986291E-04
  0.9444444E+00  0.0000000E+00  0.2525252E-01 -0.2979415E-05  0.0000000E+00  0.5854394E-04
  0.9545454E+00  0.0000000E+00  0.2525252E-01 -0.2421595E-05  0.0000000E+00  0.5745285E-04
  0.9646465E+00  0.0000000E+00  0.2525252E-01 -0.1873528E-05  0.0000000E+00  0.5658520E-04
  0.9747475E+00  0.0000000E+00  0.2525252E-01 -0.1332951E-05  0.0000000E+00  0.5593746E-04
  0.9848485E+00  0.0000000E+00  0.2525252E-01 -0.7976697E-06  0.0000000E+00  0.5550705E-04
  0.9974747E+00  0.0000000E+00  0.2525252E-01 -0.2655413E-06  0.0000000E+00  0.5529227E-04
  0.5050505E-02  0.0000000E+00  0.3535353E-01  0.4460050E-06  0.0000000E+00  0.6391249E-04
  0.1515152E-01  0.0000000E+00  0.3535353E-01  0.1339948E-05  0.0000000E+00  0.6417016E-04
  0.2525252E-01  0.0000000E+00  0.3535353E-01  0.2239717E-05  0.0000000E+00  0.6468660E-04
  0.3535353E-01  0.0000000E+00  0.3535353E-01  0.3149263E-05  0.0000000E+00  0.6546403E-04
  0.4545455E-01  0.0000000E+00  0.3535353E-01  0.4072626E-05  0.0000000E+00  0.6650586E-04
  0.5555556E-01  0.0000000E+00  0.3535353E-01  0.5013967E-05  0.0000000E+00  0.6781668E-04
  0.6565657E-01  0.0000000E+00  0.3535353E-01  0.5977603E-05  0.0000000E+00  0.6940234E-04
  0.7575758E-01  0.0000000E+00  0.3535353E-01  0.6968046E-05  0.0000000E+00  0.7126996E-04
  0.8585858E-01  0.0000000E+00  0.3535353E-01  0.7990044E-05  0.0000000E+00  0.7342802E-04
  0.9595960E-01  0.0000000E+00  0.3535353E-01  0.9048628E-05  0.0000000E+00  0.7588641E-04
  0.1060606E+00  0.0000000E+00  0.3535353E-01  0.1014916E-04  0.0000000E+00  0.7865657E-04
  0.1161616E+00  0.0000000E+00  0.3535353E-01  0.1129741E-04  0.0000000E+00  0.8175153E-04
  0.1262626E+00  0.0000000E+00  0.3535353E-01  0.1249960E-04  0.0000000E+00  0.8518607E-04
  0.1363636E+00  0.0000000E+00  0.3535353E-01  0.1376248E-04  0.0000000E+00  0.8897688E-04
  0.1464646E+00  0.0000000E+00  0.3535353E-01  0.1509346E-04  0.0000000E+00  0.9314268E-04
  0.1565657E+00  0.0000000E+00  0.3535353E-01  0.1650067E-04  0.0000000E+00  0.9770447E-04
  0.1666667E+00  0.0000000E+00  0.3535353E-01  0.1799311E-04  0.0000000E+00  0.1026857E-03
  0.1767677E+00  0.0000000E+00  0.3535353E-01  0.1958082E-04  0.0000000E+00  0.1081126E-03
  0.1868687E+00  0.0000000E+00  0.3535353E-01  0.2127503E-04  0.0000000E+00  0.1140144E-03
  0.1969697E+00  0.0000000E+00  0.3535353E-01  0.2308846E-04  0.0000000E+00  0.1204238E-03
  0.2070707E+00  0.0000000E+00  0.3535353E-01  0.2503553E-04  0.0000000E+00  0.1273773E-03
  0.2171717E+00  0.0000000E+00  0.3535353E-01  0.2713281E-04  0.0000000E+00  0.1349158E-03
  0.2272727E+00  0.0000000E+00  0.3535353E-01  0.2939947E-04  0.0000000E+00  0.1430850E-03
  0.2373737E+00  0.0000000E+00  0.3535353E-01  0.3185789E-04  0.0000000E+00  0.1519364E-03
  0.2474747E+00  0.0000000E+00  0.3535353E-01  0.3453451E-04  0.0000000E+00  0.1615279E-03
  0.2575758E+00  0.0000000E+00  0.3535353E-01  0.3746094E-04  0.0000000E+00  0.1719249E-03
  0.2676768E+00  0.0000000E+00  0.3535353E-01  0.4067541E-04  0.0000000E+00  0.1832018E-03
  0.2777778E+00  0.0000000E+00  0.3535353E-01  0.4422484E-04  0.0000000E+00  0.1954433E-03
  0.2878788E+00  0.0000000E+00  0.3535353E-01  0.4816769E-04  0.0000000E+00  0.2087466E-03
  0.2979798E+00  0.0000000E+00  0.3535353E-01  0.5257782E-04  0.0000000E+00  0.2232237E-03