title = "dataset water"
variables = "x", "y", "z", "vx", "vy", "vz"
zone t = "velocities, solution time =  4.500E+01 days        " i =   99, j =   99, k =    1,  f=point
  0.5050505E-02  0.0000000E+00  0.5050505E-02  0.9022115E-07  0.0000000E+00  0.9658492E-04
  0.1515152E-01  0.0000000E+00  0.5050505E-02  0.2710742E-06  0.0000000E+00  0.9695158E-04
  0.2525252E-01  0.0000000E+00  0.5050505E-02  0.4531705E-06  0.0000000E+00  0.9768660E-04
  0.3535353E-01  0.0000000E+00  0.5050505E-02  0.6373606E-06  0.0000000E+00  0.9879347E-04
  0.4545455E-01  0.0000000E+00  0.5050505E-02  0.8245185E-06  0.0000000E+00  0.1002774E-03
  0.5555556E-01  0.0000000E+00  0.5050505E-02  0.1015550E-05  0.0000000E+00  0.1021457E-03
  0.6565657E-01  0.0000000E+00  0.5050505E-02  0.1211401E-05  0.0000000E+00  0.1044072E-03
  0.7575758E-01  0.0000000E+00  0.5050505E-02  0.1413066E-05  0.0000000E+00  0.1070732E-03
  0.8585858E-01  0.0000000E+00  0.5050505E-02  0.1621602E-05  0.0000000E+00  0.1101568E-03
  0.9595960E-01  0.0000000E+00  0.5050505E-02  0.1838137E-05  0.0000000E+00  0.1136737E-03
  0.1060606E+00  0.0000000E+00  0.5050505E-02  0.2063887E-05  0.0000000E+00  0.1176419E-03
  0.1161616E+00  0.0000000E+00  0.5050505E-02  0.2300170E-05  0.0000000E+00  0.1220822E-03
  0.1262626E+00  0.0000000E+00  0.5050505E-02  0.2548424E-05  0.0000000E+00  0.1270181E-03
  0.1363636E+00  0.0000000E+00  0.5050505E-02  0.2810226E-05  0.0000000E+00  0.1324765E-03
  0.1464646E+00  0.0000000E+00  0.5050505E-02  0.3087321E-05  0.0000000E+00  0.1384879E-03
  0.1565657E+00  0.0000000E+00  0.5050505E-02  0.3381641E-05  0.0000000E+00  0.1450865E-03
  0.1666667E+00  0.0000000E+00  0.5050505E-02  0.3695343E-05  0.0000000E+00  0.1523112E-03
  0.1767677E+00  0.0000000E+00  0.5050505E-02  0.4030844E-05  0.0000000E+00  0.1602055E-03
  0.1868687E+00  0.0000000E+00  0.5050505E-02  0.4390860E-05  0.0000000E+00  0.1688188E-03
  0.1969697E+00  0.0000000E+00  0.5050505E-02  0.4778461E-05  0.0000000E+00  0.1782066E-03
  0.2070707E+00  0.0000000E+00  0.5050505E-02  0.5197129E-05  0.0000000E+00  0.1884315E-03
  0.2171717E+00  0.0000000E+00  0.5050505E-02  0.5650829E-05  0.0000000E+00  0.1995645E-03
  0.2272727E+00  0.0000000E+00  0.5050505E-02  0.6144106E-05  0.0000000E+00  0.2116857E-03
  0.2373737E+00  0.0000000E+00  0.5050505E-02  0.6682209E-05  0.0000000E+00  0.2248863E-03
  0.2474747E+00  0.0000000E+00  0.5050505E-02  0.7271266E-05  0.0000000E+00  0.2392701E-03
  0.2575758E+00  0.0000000E+00  0.5050505E-02  0.7918552E-05  0.0000000E+00  0.2549557E-03
  0.2676768E+00  0.0000000E+00  0.5050505E-02  0.8632907E-05  0.0000000E+00  0.2720799E-03
  0.2777778E+00  0.0000000E+00  0.5050505E-02  0.9425414E-05  0.0000000E+00  0.2908021E-03
  0.2878788E+00  0.0000000E+00  0.5050505E-02  0.1031050E-04  0.0000000E+00  0.3113102E-03
  0.2979798E+00  0.0000000E+00  0.5050505E-02  0.1130777E-04  0.0000000E+00  0.3338301E-03
  0.3080808E+00  0.0000000E+00  0.5050505E-02  0.1244487E-04  0.0000000E+00  0.3586411E-03
  0.3181818E+00  0.0000000E+00  0.5050505E-02  0.1376214E-04  0.0000000E+00  0.3860983E-03
  0.3282828E+00  0.0000000E+00  0.5050505E-02  0.1531991E-04  0.0000000E+00  0.4166692E-03
  0.3383838E+00  0.0000000E+00  0.5050505E-02  0.1721038E-04  0.0000000E+00  0.4509918E-03
  0.3484848E+00  0.0000000E+00  0.5050505E-02  0.1957886E-04  0.0000000E+00  0.4899697E-03
  0.3585859E+00  0.0000000E+00  0.5050505E-02  0.2266779E-04  0.0000000E+00  0.5349417E-03
  0.3686869E+00  0.0000000E+00  0.5050505E-02  0.2692545E-04  0.0000000E+00  0.5880233E-03
  0.3787879E+00  0.0000000E+00  0.5050505E-02  0.3332395E-04  0.0000000E+00  0.6529294E-03
  0.3888889E+00  0.0000000E+00  0.5050505E-02  0.4443757E-04  0.0000000E+00  0.7373741E-03
  0.3989899E+00  0.0000000E+00  0.5050505E-02  0.6858903E-04  0.0000000E+00  0.8614321E-03
  0.4090909E+00  0.0000000E+00  0.5050505E-02  0.7912258E-04  0.0000000E+00  0.1025868E-02
  0.4191919E+00  0.0000000E+00  0.5050505E-02  0.7961560E-04  0.0000000E+00  0.1205931E-02
  0.4292929E+00  0.0000000E+00  0.5050505E-02  0.4443401E-04  0.0000000E+00  0.1349205E-02
  0.4393939E+00  0.0000000E+00  0.5050505E-02  0.6083577E-04  0.0000000E+00  0.1473321E-02
  0.4494950E+00  0.0000000E+00  0.5050505E-02  0.8263152E-04  0.0000000E+00  0.1644978E-02
  0.4595959E+00  0.0000000E+00  0.5050505E-02  0.1301322E-03  0.0000000E+00  0.1904965E-02
  0.4696970E+00  0.0000000E+00  0.5050505E-02 -0.1744704E-04  0.0000000E+00  0.2043193E-02
  0.4797980E+00  0.0000000E+00  0.5050505E-02  0.2517014E-05  0.0000000E+00  0.2024200E-02
  0.4898990E+00  0.0000000E+00  0.5050505E-02 -0.1352013E-03  0.0000000E+00  0.1861655E-02
  0.5000000E+00  0.0000000E+00  0.5050505E-02 -0.8023245E-04  0.0000000E+00  0.1599701E-02
  0.5101010E+00  0.0000000E+00  0.5050505E-02 -0.6224001E-04  0.0000000E+00  0.1430116E-02
  0.5202020E+00  0.0000000E+00  0.5050505E-02 -0.6216828E-04  0.0000000E+00  0.1284665E-02
  0.5303030E+00  0.0000000E+00  0.5050505E-02 -0.5303751E-04  0.0000000E+00  0.1151969E-02
  0.5404040E+00  0.0000000E+00  0.5050505E-02 -0.3613569E-04  0.0000000E+00  0.1050438E-02
  0.5505050E+00  0.0000000E+00  0.5050505E-02 -0.5154246E-04  0.0000000E+00  0.9519650E-03
  0.5606061E+00  0.0000000E+00  0.5050505E-02 -0.4838061E-04  0.0000000E+00  0.8410464E-03
  0.5707071E+00  0.0000000E+00  0.5050505E-02 -0.3594706E-04  0.0000000E+00  0.7484173E-03
  0.5808081E+00  0.0000000E+00  0.5050505E-02 -0.2963417E-04  0.0000000E+00  0.6770126E-03
  0.5909091E+00  0.0000000E+00  0.5050505E-02 -0.2558351E-04  0.0000000E+00  0.6173259E-03
  0.6010101E+00  0.0000000E+00  0.5050505E-02 -0.2257198E-04  0.0000000E+00  0.5655971E-03
  0.6111111E+00  0.0000000E+00  0.5050505E-02 -0.2014629E-04  0.0000000E+00  0.5199608E-03
  0.6212121E+00  0.0000000E+00  0.5050505E-02 -0.1810701E-04  0.0000000E+00  0.4792944E-03
  0.6313131E+00  0.0000000E+00  0.5050505E-02 -0.1635048E-04  0.0000000E+00  0.4428241E-03
  0.6414142E+00  0.0000000E+00  0.5050505E-02 -0.1481484E-04  0.0000000E+00  0.4099689E-03
  0.6515151E+00  0.0000000E+00  0.5050505E-02 -0.1345922E-04  0.0000000E+00  0.3802686E-03
  0.6616161E+00  0.0000000E+00  0.5050505E-02 -0.1225456E-04  0.0000000E+00  0.3533455E-03
  0.6717172E+00  0.0000000E+00  0.5050505E-02 -0.1117894E-04  0.0000000E+00  0.3288826E-03
  0.6818182E+00  0.0000000E+00  0.5050505E-02 -0.1021508E-04  0.0000000E+00  0.3066090E-03
  0.6919192E+00  0.0000000E+00  0.5050505E-02 -0.9348829E-05  0.0000000E+00  0.2862908E-03
  0.7020202E+00  0.0000000E+00  0.5050505E-02 -0.8568260E-05  0.0000000E+00  0.2677248E-03
  0.7121212E+00  0.0000000E+00  0.5050505E-02 -0.7863145E-05  0.0000000E+00  0.2507335E-03
  0.7222222E+00  0.0000000E+00  0.5050505E-02 -0.7224605E-05  0.0000000E+00  0.2351610E-03
  0.7323232E+00  0.0000000E+00  0.5050505E-02 -0.6644881E-05  0.0000000E+00  0.2208709E-03
  0.7424242E+00  0.0000000E+00  0.5050505E-02 -0.6117172E-05  0.0000000E+00  0.2077427E-03
  0.7525253E+00  0.0000000E+00  0.5050505E-02 -0.5635505E-05  0.0000000E+00  0.1956706E-03
  0.7626263E+00  0.0000000E+00  0.5050505E-02 -0.5194627E-05  0.0000000E+00  0.1845612E-03
  0.7727273E+00  0.0000000E+00  0.5050505E-02 -0.4789916E-05  0.0000000E+00  0.1743319E-03
  0.7828283E+00  0.0000000E+00  0.5050505E-02 -0.4417304E-05  0.0000000E+00  0.1649098E-03
  0.7929293E+00  0.0000000E+00  0.5050505E-02 -0.4073201E-05  0.0000000E+00  0.1562303E-03
  0.8030303E+00  0.0000000E+00  0.5050505E-02 -0.3754440E-05  0.0000000E+00  0.1482363E-03
  0.8131313E+00  0.0000000E+00  0.5050505E-02 -0.3458216E-05  0.0000000E+00  0.1408769E-03
  0.8232324E+00  0.0000000E+00  0.5050505E-02 -0.3182047E-05  0.0000000E+00  0.1341072E-03
  0.8333333E+00  0.0000000E+00  0.5050505E-02 -0.2923725E-05  0.0000000E+00  0.1278870E-03
  0.8434343E+00  0.0000000E+00  0.5050505E-02 -0.2681285E-05  0.0000000E+00  0.1221810E-03
  0.8535354E+00  0.0000000E+00  0.5050505E-02 -0.2452970E-05  0.0000000E+00  0.1169576E-03
  0.8636364E+00  0.0000000E+00  0.5050505E-02 -0.2237207E-05  0.0000000E+00  0.1121887E-03
  0.8737374E+00  0.0000000E+00  0.5050505E-02 -0.2032582E-05  0.0000000E+00  0.1078496E-03
  0.8838384E+00  0.0000000E+00  0.5050505E-02 -0.1837816E-05  0.0000000E+00  0.1039182E-03
  0.8939394E+00  0.0000000E+00  0.5050505E-02 -0.1651752E-05  0.0000000E+00  0.1003752E-03
  0.9040404E+00  0.0000000E+00  0.5050505E-02 -0.1473334E-05  0.0000000E+00  0.9720354E-04
  0.9141414E+00  0.0000000E+00  0.5050505E-02 -0.1301597E-05  0.0000000E+00  0.9438818E-04
  0.9242424E+00  0.0000000E+00  0.5050505E-02 -0.1135651E-05  0.0000000E+00  0.9191617E-04
  0.9343435E+00  0.0000000E+00  0.5050505E-02 -0.9746729E-06  0.0000000E+00  0.8977630E-04
  0.9444444E+00  0.0000000E+00  0.5050505E-02 -0.8178922E-06  0.0000000E+00  0.8795905E-04
  0.9545454E+00  0.0000000E+00  0.5050505E-02 -0.6645867E-06  0.0000000E+00  0.8645643E-04
  0.9646465E+00  0.0000000E+00  0.5050505E-02 -0.5140714E-06  0.0000000E+00  0.8526193E-04
  0.9747475E+00  0.0000000E+00  0.5050505E-02 -0.3656925E-06  0.0000000E+00  0.8437044E-04
  0.9848485E+00  0.0000000E+00  0.5050505E-02 -0.2188198E-06  0.0000000E+00  0.8377818E-04
  0.9974747E+00  0.0000000E+00  0.5050505E-02 -0.7284142E-07  0.0000000E+00  0.8348267E-04
  0.5050505E-02  0.0000000E+00  0.1515152E-01  0.2702032E-06  0.0000000E+00  0.9649664E-04
  0.1515152E-01  0.0000000E+00  0.1515152E-01  0.8118430E-06  0.0000000E+00  0.9686252E-04
  0.2525252E-01  0.0000000E+00  0.1515152E-01  0.1357211E-05  0.0000000E+00  0.9759596E-04
  0.3535353E-01  0.0000000E+00  0.1515152E-01  0.1908853E-05  0.0000000E+00  0.9870041E-04
  0.4545455E-01  0.0000000E+00  0.1515152E-01  0.2469384E-05  0.0000000E+00  0.1001811E-03
  0.5555556E-01  0.0000000E+00  0.1515152E-01  0.3041514E-05  0.0000000E+00  0.1020451E-03
  0.6565657E-01  0.0000000E+00  0.1515152E-01  0.3628072E-05  0.0000000E+00  0.1043014E-03
  0.7575758E-01  0.0000000E+00  0.1515152E-01  0.4232034E-05  0.0000000E+00  0.1069611E-03
  0.8585858E-01  0.0000000E+00  0.1515152E-01  0.4856560E-05  0.0000000E+00  0.1100374E-03
  0.9595960E-01  0.0000000E+00  0.1515152E-01  0.5505025E-05  0.0000000E+00  0.1135456E-03
  0.1060606E+00  0.0000000E+00  0.1515152E-01  0.6181063E-05  0.0000000E+00  0.1175038E-03
  0.1161616E+00  0.0000000E+00  0.1515152E-01  0.6888616E-05  0.0000000E+00  0.1219324E-03
  0.1262626E+00  0.0000000E+00  0.1515152E-01  0.7631983E-05  0.0000000E+00  0.1268549E-03
  0.1363636E+00  0.0000000E+00  0.1515152E-01  0.8415881E-05  0.0000000E+00  0.1322981E-03
  0.1464646E+00  0.0000000E+00  0.1515152E-01  0.9245521E-05  0.0000000E+00  0.1382920E-03
  0.1565657E+00  0.0000000E+00  0.1515152E-01  0.1012668E-04  0.0000000E+00  0.1448707E-03
  0.1666667E+00  0.0000000E+00  0.1515152E-01  0.1106581E-04  0.0000000E+00  0.1520727E-03
  0.1767677E+00  0.0000000E+00  0.1515152E-01  0.1207013E-04  0.0000000E+00  0.1599412E-03
  0.1868687E+00  0.0000000E+00  0.1515152E-01  0.1314775E-04  0.0000000E+00  0.1685250E-03
  0.1969697E+00  0.0000000E+00  0.1515152E-01  0.1430784E-04  0.0000000E+00  0.1778791E-03
  0.2070707E+00  0.0000000E+00  0.1515152E-01  0.1556081E-04  0.0000000E+00  0.1880657E-03
  0.2171717E+00  0.0000000E+00  0.1515152E-01  0.1691847E-04  0.0000000E+00  0.1991547E-03
  0.2272727E+00  0.0000000E+00  0.1515152E-01  0.1839438E-04  0.0000000E+00  0.2112256E-03
  0.2373737E+00  0.0000000E+00  0.1515152E-01  0.2000414E-04  0.0000000E+00  0.2243683E-03
  0.2474747E+00  0.0000000E+00  0.1515152E-01  0.2176590E-04  0.0000000E+00  0.2386849E-03
  0.2575758E+00  0.0000000E+00  0.1515152E-01  0.2370114E-04  0.0000000E+00  0.2542922E-03
  0.2676768E+00  0.0000000E+00  0.1515152E-01  0.2583578E-04  0.0000000E+00  0.2713236E-03
  0.2777778E+00  0.0000000E+00  0.1515152E-01  0.2820207E-04  0.0000000E+00  0.2899337E-03
  0.2878788E+00  0.0000000E+00  0.1515152E-01  0.3084168E-04  0.0000000E+00  0.3103026E-03
  0.2979798E+00  0.0000000E+00  0.1515152E-01  0.3381076E-04  0.0000000E+00  0.3326443E-03
  0.3080808E+00  0.0000000E+00  0.1515152E-01  0.3718817E-04  0.0000000E+00  0.3572187E-03
  0.3181818E+00  0.0000000E+00  0.1515152E-01  0.4108849E-04  0.0000000E+00  0.3843499E-03
  0.3282828E+00  0.0000000E+00  0.1515152E-01  0.4568228E-04  0.0000000E+00  0.4144565E-03
  0.3383838E+00  0.0000000E+00  0.1515152E-01  0.5122770E-04  0.0000000E+00  0.4480956E-03
  0.3484848E+00  0.0000000E+00  0.1515152E-01  0.5812229E-04  0.0000000E+00  0.4860273E-03
  0.3585859E+00  0.0000000E+00  0.1515152E-01  0.6699730E-04  0.0000000E+00  0.5292985E-03
  0.3686869E+00  0.0000000E+00  0.1515152E-01  0.7891455E-04  0.0000000E+00  0.5793152E-03
  0.3787879E+00  0.0000000E+00  0.1515152E-01  0.9582690E-04  0.0000000E+00  0.6377080E-03
  0.3888889E+00  0.0000000E+00  0.1515152E-01  0.1217565E-03  0.0000000E+00  0.7049428E-03
  0.3989899E+00  0.0000000E+00  0.1515152E-01  0.1661125E-03  0.0000000E+00  0.7724055E-03
  0.4090909E+00  0.0000000E+00  0.1515152E-01  0.1958553E-03  0.0000000E+00  0.8456067E-03
  0.4191919E+00  0.0000000E+00  0.1515152E-01  0.2215609E-03  0.0000000E+00  0.9563777E-03
  0.4292929E+00  0.0000000E+00  0.1515152E-01  0.1648304E-03  0.0000000E+00  0.1112320E-02
  0.4393939E+00  0.0000000E+00  0.1515152E-01  0.2032938E-03  0.0000000E+00  0.1294103E-02
  0.4494950E+00  0.0000000E+00  0.1515152E-01  0.2522070E-03  0.0000000E+00  0.1493082E-02
  0.4595959E+00  0.0000000E+00  0.1515152E-01  0.3094094E-03  0.0000000E+00  0.1658141E-02
  0.4696970E+00  0.0000000E+00  0.1515152E-01  0.7070843E-04  0.0000000E+00  0.1853844E-02
  0.4797980E+00  0.0000000E+00  0.1515152E-01 -0.6118952E-04  0.0000000E+00  0.1903037E-02
  0.4898990E+00  0.0000000E+00  0.1515152E-01 -0.3628271E-03  0.0000000E+00  0.1704815E-02
  0.5000000E+00  0.0000000E+00  0.1515152E-01 -0.2360953E-03  0.0000000E+00  0.1501154E-02
  0.5101010E+00  0.0000000E+00  0.1515152E-01 -0.1986529E-03  0.0000000E+00  0.1323514E-02
  0.5202020E+00  0.0000000E+00  0.1515152E-01 -0.1677414E-03  0.0000000E+00  0.1186275E-02
  0.5303030E+00  0.0000000E+00  0.1515152E-01 -0.1385211E-03  0.0000000E+00  0.1098607E-02
  0.5404040E+00  0.0000000E+00  0.1515152E-01 -0.1317596E-03  0.0000000E+00  0.9943211E-03
  0.5505050E+00  0.0000000E+00  0.1515152E-01 -0.1456674E-03  0.0000000E+00  0.8801130E-03
  0.5606061E+00  0.0000000E+00  0.1515152E-01 -0.1273503E-03  0.0000000E+00  0.7991496E-03
  0.5707071E+00  0.0000000E+00  0.1515152E-01 -0.1024211E-03  0.0000000E+00  0.7320813E-03
  0.5808081E+00  0.0000000E+00  0.1515152E-01 -0.8692320E-04  0.0000000E+00  0.6687146E-03
  0.5909091E+00  0.0000000E+00  0.1515152E-01 -0.7586189E-04  0.0000000E+00  0.6120858E-03
  0.6010101E+00  0.0000000E+00  0.1515152E-01 -0.6722870E-04  0.0000000E+00  0.5617891E-03
  0.6111111E+00  0.0000000E+00  0.1515152E-01 -0.6012544E-04  0.0000000E+00  0.5169638E-03
  0.6212121E+00  0.0000000E+00  0.1515152E-01 -0.5409576E-04  0.0000000E+00  0.4768281E-03
  0.6313131E+00  0.0000000E+00  0.1515152E-01 -0.4887720E-04  0.0000000E+00  0.4407410E-03
  0.6414142E+00  0.0000000E+00  0.1515152E-01 -0.4430293E-04  0.0000000E+00  0.4081811E-03
  0.6515151E+00  0.0000000E+00  0.1515152E-01 -0.4025857E-04  0.0000000E+00  0.3787187E-03
  0.6616161E+00  0.0000000E+00  0.1515152E-01 -0.3666104E-04  0.0000000E+00  0.3519933E-03
  0.6717172E+00  0.0000000E+00  0.1515152E-01 -0.3344693E-04  0.0000000E+00  0.3276982E-03
  0.6818182E+00  0.0000000E+00  0.1515152E-01 -0.3056571E-04  0.0000000E+00  0.3055691E-03
  0.6919192E+00  0.0000000E+00  0.1515152E-01 -0.2797566E-04  0.0000000E+00  0.2853765E-03
  0.7020202E+00  0.0000000E+00  0.1515152E-01 -0.2564147E-04  0.0000000E+00  0.2669202E-03
  0.7121212E+00  0.0000000E+00  0.1515152E-01 -0.2353273E-04  0.0000000E+00  0.2500248E-03
  0.7222222E+00  0.0000000E+00  0.1515152E-01 -0.2162296E-04  0.0000000E+00  0.2345365E-03
  0.7323232E+00  0.0000000E+00  0.1515152E-01 -0.1988899E-04  0.0000000E+00  0.2203201E-03
  0.7424242E+00  0.0000000E+00  0.1515152E-01 -0.1831051E-04  0.0000000E+00  0.2072566E-03
  0.7525253E+00  0.0000000E+00  0.1515152E-01 -0.1686966E-04  0.0000000E+00  0.1952412E-03
  0.7626263E+00  0.0000000E+00  0.1515152E-01 -0.1555074E-04  0.0000000E+00  0.1841814E-03
  0.7727273E+00  0.0000000E+00  0.1515152E-01 -0.1433992E-04  0.0000000E+00  0.1739957E-03
  0.7828283E+00  0.0000000E+00  0.1515152E-01 -0.1322505E-04  0.0000000E+00  0.1646118E-03
  0.7929293E+00  0.0000000E+00  0.1515152E-01 -0.1219541E-04  0.0000000E+00  0.1559658E-03
  0.8030303E+00  0.0000000E+00  0.1515152E-01 -0.1124151E-04  0.0000000E+00  0.1480011E-03
  0.8131313E+00  0.0000000E+00  0.1515152E-01 -0.1035499E-04  0.0000000E+00  0.1406674E-03
  0.8232324E+00  0.0000000E+00  0.1515152E-01 -0.9528421E-05  0.0000000E+00  0.1339201E-03
  0.8333333E+00  0.0000000E+00  0.1515152E-01 -0.8755208E-05  0.0000000E+00  0.1277196E-03
  0.8434343E+00  0.0000000E+00  0.1515152E-01 -0.8029476E-05  0.0000000E+00  0.1220309E-03
  0.8535354E+00  0.0000000E+00  0.1515152E-01 -0.7345978E-05  0.0000000E+00  0.1168225E-03
  0.8636364E+00  0.0000000E+00  0.1515152E-01 -0.6700011E-05  0.0000000E+00  0.1120667E-03
  0.8737374E+00  0.0000000E+00  0.1515152E-01 -0.6087346E-05  0.0000000E+00  0.1077390E-03
  0.8838384E+00  0.0000000E+00  0.1515152E-01 -0.5504165E-05  0.0000000E+00  0.1038176E-03
  0.8939394E+00  0.0000000E+00  0.1515152E-01 -0.4947006E-05  0.0000000E+00  0.1002832E-03
  0.9040404E+00  0.0000000E+00  0.1515152E-01 -0.4412716E-05  0.0000000E+00  0.9711885E-04
  0.9141414E+00  0.0000000E+00  0.1515152E-01 -0.3898409E-05  0.0000000E+00  0.9430983E-04
  0.9242424E+00  0.0000000E+00  0.1515152E-01 -0.3401424E-05  0.0000000E+00  0.9184320E-04
  0.9343435E+00  0.0000000E+00  0.1515152E-01 -0.2919297E-05  0.0000000E+00  0.8970786E-04
  0.9444444E+00  0.0000000E+00  0.1515152E-01 -0.2449730E-05  0.0000000E+00  0.8789434E-04
  0.9545454E+00  0.0000000E+00  0.1515152E-01 -0.1990561E-05  0.0000000E+00  0.8639474E-04
  0.9646465E+00  0.0000000E+00  0.1515152E-01 -0.1539743E-05  0.0000000E+00  0.8520258E-04
  0.9747475E+00  0.0000000E+00  0.1515152E-01 -0.1095319E-05  0.0000000E+00  0.8431281E-04
  0.9848485E+00  0.0000000E+00  0.1515152E-01 -0.6554061E-06  0.0000000E+00  0.8372167E-04
  0.9974747E+00  0.0000000E+00  0.1515152E-01 -0.2181732E-06  0.0000000E+00  0.8342671E-04
  0.5050505E-02  0.0000000E+00  0.2525252E-01  0.4490836E-06  0.0000000E+00  0.9632470E-04
  0.1515152E-01  0.0000000E+00  0.2525252E-01  0.1349304E-05  0.0000000E+00  0.9668904E-04
  0.2525252E-01  0.0000000E+00  0.2525252E-01  0.2255725E-05  0.0000000E+00  0.9741937E-04
  0.3535353E-01  0.0000000E+00  0.2525252E-01  0.3172570E-05  0.0000000E+00  0.9851906E-04
  0.4545455E-01  0.0000000E+00  0.2525252E-01  0.4104178E-05  0.0000000E+00  0.9999328E-04
  0.5555556E-01  0.0000000E+00  0.2525252E-01  0.5055042E-05  0.0000000E+00  0.1018490E-03
  0.6565657E-01  0.0000000E+00  0.2525252E-01  0.6029850E-05  0.0000000E+00  0.1040951E-03
  0.7575758E-01  0.0000000E+00  0.2525252E-01  0.7033539E-05  0.0000000E+00  0.1067426E-03
  0.8585858E-01  0.0000000E+00  0.2525252E-01  0.8071341E-05  0.0000000E+00  0.1098043E-03
  0.9595960E-01  0.0000000E+00  0.2525252E-01  0.9148851E-05  0.0000000E+00  0.1132955E-03
  0.1060606E+00  0.0000000E+00  0.2525252E-01  0.1027209E-04  0.0000000E+00  0.1172339E-03
  0.1161616E+00  0.0000000E+00  0.2525252E-01  0.1144758E-04  0.0000000E+00  0.1216397E-03
  0.1262626E+00  0.0000000E+00  0.2525252E-01  0.1268245E-04  0.0000000E+00  0.1265362E-03
  0.1363636E+00  0.0000000E+00  0.2525252E-01  0.1398450E-04  0.0000000E+00  0.1319494E-03
  0.1464646E+00  0.0000000E+00  0.2525252E-01  0.1536236E-04  0.0000000E+00  0.1379092E-03
  0.1565657E+00  0.0000000E+00  0.2525252E-01  0.1682560E-04  0.0000000E+00  0.1444489E-03
  0.1666667E+00  0.0000000E+00  0.2525252E-01  0.1838488E-04  0.0000000E+00  0.1516065E-03
  0.1767677E+00  0.0000000E+00  0.2525252E-01  0.2005213E-04  0.0000000E+00  0.1594244E-03
  0.1868687E+00  0.0000000E+00  0.2525252E-01  0.2184080E-04  0.0000000E+00  0.1679505E-03
  0.1969697E+00  0.0000000E+00  0.2525252E-01  0.2376603E-04  0.0000000E+00  0.1772389E-03
  0.2070707E+00  0.0000000E+00  0.2525252E-01  0.2584499E-04  0.0000000E+00  0.1873504E-03
  0.2171717E+00  0.0000000E+00  0.2525252E-01  0.2809721E-04  0.0000000E+00  0.1983537E-03
  0.2272727E+00  0.0000000E+00  0.2525252E-01  0.3054495E-04  0.0000000E+00  0.2103265E-03
  0.2373737E+00  0.0000000E+00  0.2525252E-01  0.3321382E-04  0.0000000E+00  0.2233565E-03
  0.2474747E+00  0.0000000E+00  0.2525252E-01  0.3613341E-04  0.0000000E+00  0.2375431E-03
  0.2575758E+00  0.0000000E+00  0.2525252E-01  0.3933841E-04  0.0000000E+00  0.2529990E-03
  0.2676768E+00  0.0000000E+00  0.2525252E-01  0.4287018E-04  0.0000000E+00  0.2698523E-03
  0.2777778E+00  0.0000000E+00  0.2525252E-01  0.4677940E-04  0.0000000E+00  0.2882487E-03
  0.2878788E+00  0.0000000E+00  0.2525252E-01  0.5113041E-04  0.0000000E+00  0.3083549E-03
  0.2979798E+00  0.0000000E+00  0.2525252E-01  0.5600858E-04  0.0000000E+00  0.3303632E-03
  0.3080808E+00  0.0000000E+00  0.2525252E-01  0.6153233E-04  0.0000000E+00  0.3544983E-03
  0.3181818E+00  0.0000000E+00  0.2525252E-01  0.6787260E-04  0.0000000E+00  0.3810295E-03
  0.3282828E+00  0.0000000E+00  0.2525252E-01  0.7528262E-04  0.0000000E+00  0.4102886E-03
  0.3383838E+00  0.0000000E+00  0.2525252E-01  0.8414184E-04  0.0000000E+00  0.4426990E-03
  0.3484848E+00  0.0000000E+00  0.2525252E-01  0.9501870E-04  0.0000000E+00  0.4788104E-03
  0.3585859E+00  0.0000000E+00  0.2525252E-01  0.1087624E-03  0.0000000E+00  0.5193281E-03
  0.3686869E+00  0.0000000E+00  0.2525252E-01  0.1266455E-03  0.0000000E+00  0.5650979E-03
  0.3787879E+00  0.0000000E+00  0.2525252E-01  0.1505676E-03  0.0000000E+00  0.6169681E-03
  0.3888889E+00  0.0000000E+00  0.2525252E-01  0.1830893E-03  0.0000000E+00  0.6753805E-03
  0.3989899E+00  0.0000000E+00  0.2525252E-01  0.2256590E-03  0.0000000E+00  0.7396500E-03
  0.4090909E+00  0.0000000E+00  0.2525252E-01  0.2663682E-03  0.0000000E+00  0.8092699E-03
  0.4191919E+00  0.0000000E+00  0.2525252E-01  0.3094672E-03  0.0000000E+00  0.8740915E-03
  0.4292929E+00  0.0000000E+00  0.2525252E-01  0.3076380E-03  0.0000000E+00  0.9773378E-03
  0.4393939E+00  0.0000000E+00  0.2525252E-01  0.3418484E-03  0.0000000E+00  0.1117158E-02
  0.4494950E+00  0.0000000E+00  0.2525252E-01  0.3761408E-03  0.0000000E+00  0.1226289E-02
  0.4595959E+00  0.0000000E+00  0.2525252E-01  0.4280828E-03  0.0000000E+00  0.1352834E-02
  0.4696970E+00  0.0000000E+00  0.2525252E-01  0.3305913E-03  0.0000000E+00  0.1626804E-02
  0.4797980E+00  0.0000000E+00  0.2525252E-01 -0.2379290E-03  0.0000000E+00  0.1677373E-02
  0.4898990E+00  0.0000000E+00  0.2525252E-01 -0.5112451E-03  0.0000000E+00  0.1468493E-02
  0.5000000E+00  0.0000000E+00  0.2525252E-01 -0.3702608E-03  0.0000000E+00  0.1330773E-02
  0.5101010E+00  0.0000000E+00  0.2525252E-01 -0.3051921E-03  0.0000000E+00  0.1222530E-02
  0.5202020E+00  0.0000000E+00  0.2525252E-01 -0.2452963E-03  0.0000000E+00  0.1143894E-02
  0.5303030E+00  0.0000000E+00  0.2525252E-01 -0.2278531E-03  0.0000000E+00  0.1039166E-02
  0.5404040E+00  0.0000000E+00  0.2525252E-01 -0.2362977E-03  0.0000000E+00  0.9240791E-03
  0.5505050E+00  0.0000000E+00  0.2525252E-01 -0.2175489E-03  0.0000000E+00  0.8411000E-03
  0.5606061E+00  0.0000000E+00  0.2525252E-01 -0.1864789E-03  0.0000000E+00  0.7770436E-03
  0.5707071E+00  0.0000000E+00  0.2525252E-01 -0.1607361E-03  0.0000000E+00  0.7152040E-03
  0.5808081E+00  0.0000000E+00  0.2525252E-01 -0.1404625E-03  0.0000000E+00  0.6567358E-03
  0.5909091E+00  0.0000000E+00  0.2525252E-01 -0.1241550E-03  0.0000000E+00  0.6031970E-03
  0.6010101E+00  0.0000000E+00  0.2525252E-01 -0.1106780E-03  0.0000000E+00  0.5548395E-03
  0.6111111E+00  0.0000000E+00  0.2525252E-01 -0.9928308E-04  0.0000000E+00  0.5113107E-03
  0.6212121E+00  0.0000000E+00  0.2525252E-01 -0.8947812E-04  0.0000000E+00  0.4721019E-03
  0.6313131E+00  0.0000000E+00  0.2525252E-01 -0.8092955E-04  0.0000000E+00  0.4367154E-03
  0.6414142E+00  0.0000000E+00  0.2525252E-01 -0.7340375E-04  0.0000000E+00  0.4047087E-03
  0.6515151E+00  0.0000000E+00  0.2525252E-01 -0.6673164E-04  0.0000000E+00  0.3756985E-03
  0.6616161E+00  0.0000000E+00  0.2525252E-01 -0.6078637E-04  0.0000000E+00  0.3493527E-03
  0.6717172E+00  0.0000000E+00  0.2525252E-01 -0.5546895E-04  0.0000000E+00  0.3253820E-03
  0.6818182E+00  0.0000000E+00  0.2525252E-01 -0.5069906E-04  0.0000000E+00  0.3035337E-03
  0.6919192E+00  0.0000000E+00  0.2525252E-01 -0.4640952E-04  0.0000000E+00  0.2835859E-03
  0.7020202E+00  0.0000000E+00  0.2525252E-01 -0.4254278E-04  0.0000000E+00  0.2653439E-03
  0.7121212E+00  0.0000000E+00  0.2525252E-01 -0.3904895E-04  0.0000000E+00  0.2486363E-03
  0.7222222E+00  0.0000000E+00  0.2525252E-01 -0.3588438E-04  0.0000000E+00  0.2333128E-03
  0.7323232E+00  0.0000000E+00  0.2525252E-01 -0.3301079E-04  0.0000000E+00  0.2192410E-03
  0.7424242E+00  0.0000000E+00  0.2525252E-01 -0.3039455E-04  0.0000000E+00  0.2063043E-03
  0.7525253E+00  0.0000000E+00  0.2525252E-01 -0.2800611E-04  0.0000000E+00  0.1944001E-03
  0.7626263E+00  0.0000000E+00  0.2525252E-01 -0.2581946E-04  0.0000000E+00  0.1834379E-03
  0.7727273E+00  0.0000000E+00  0.2525252E-01 -0.2381173E-04  0.0000000E+00  0.1733376E-03
  0.7828283E+00  0.0000000E+00  0.2525252E-01 -0.2196281E-04  0.0000000E+00  0.1640286E-03
  0.7929293E+00  0.0000000E+00  0.2525252E-01 -0.2025493E-04  0.0000000E+00  0.1554482E-03
  0.8030303E+00  0.0000000E+00  0.2525252E-01 -0.1867243E-04  0.0000000E+00  0.1475410E-03
  0.8131313E+00  0.0000000E+00  0.2525252E-01 -0.1720145E-04  0.0000000E+00  0.1402577E-03
  0.8232324E+00  0.0000000E+00  0.2525252E-01 -0.1582971E-04  0.0000000E+00  0.1335545E-03
  0.8333333E+00  0.0000000E+00  0.2525252E-01 -0.1454631E-04  0.0000000E+00  0.1273927E-03
  0.8434343E+00  0.0000000E+00  0.2525252E-01 -0.1334152E-04  0.0000000E+00  0.1217376E-03
  0.8535354E+00  0.0000000E+00  0.2525252E-01 -0.1220667E-04  0.0000000E+00  0.1165587E-03
  0.8636364E+00  0.0000000E+00  0.2525252E-01 -0.1113396E-04  0.0000000E+00  0.1118287E-03
  0.8737374E+00  0.0000000E+00  0.2525252E-01 -0.1011641E-04  0.0000000E+00  0.1075234E-03
  0.8838384E+00  0.0000000E+00  0.2525252E-01 -0.9147695E-05  0.0000000E+00  0.1036214E-03
  0.8939394E+00  0.0000000E+00  0.2525252E-01 -0.8222088E-05  0.0000000E+00  0.1001039E-03
  0.9040404E+00  0.0000000E+00  0.2525252E-01 -0.7334370E-05  0.0000000E+00  0.9695408E-04
  0.9141414E+00  0.0000000E+00  0.2525252E-01 -0.6479760E-05  0.0000000E+00  0.9415750E-04
  0.9242424E+00  0.0000000E+00  0.2525252E-01 -0.5653856E-05  0.0000000E+00  0.9170143E-04
  0.9343435E+00  0.0000000E+00  0.2525252E-01 -0.4852579E-05  0.0000000E+00  0.8957496E-04
  0.9444444E+00  0.0000000E+00  0.2525252E-01 -0.4072121E-05  0.0000000E+00  0.8776877E-04
  0.9545454E+00  0.0000000E+00  0.2525252E-01 -0.3308903E-05  0.0000000E+00  0.8627507E-04
  0.9646465E+00  0.0000000E+00  0.2525252E-01 -0.2559534E-05  0.0000000E+00  0.8508752E-04
  0.9747475E+00  0.0000000E+00  0.2525252E-01 -0.1820773E-05  0.0000000E+00  0.8420111E-04
  0.9848485E+00  0.0000000E+00  0.2525252E-01 -0.1089498E-05  0.0000000E+00  0.8361218E-04
  0.9974747E+00  0.0000000E+00  0.2525252E-01 -0.3626747E-06  0.0000000E+00  0.8331831E-04
  0.5050505E-02  0.0000000E+00  0.3535353E-01  0.6265078E-06  0.0000000E+00  0.9607397E-04
  0.1515152E-01  0.0000000E+00  0.3535353E-01  0.1882387E-05  0.0000000E+00  0.9643604E-04
  0.2525252E-01  0.0000000E+00  0.3535353E-01  0.3146905E-05  0.0000000E+00  0.9716178E-04
  0.3535353E-01  0.0000000E+00  0.3535353E-01  0.4425941E-05  0.0000000E+00  0.9825449E-04
  0.4545455E-01  0.0000000E+00  0.3535353E-01  0.5725527E-05  0.0000000E+00  0.9971921E-04
  0.5555556E-01  0.0000000E+00  0.3535353E-01  0.7051909E-05  0.0000000E+00  0.1015628E-03
  0.6565657E-01  0.0000000E+00  0.3535353E-01  0.8411603E-05  0.0000000E+00  0.1037940E-03
  0.7575758E-01  0.0000000E+00  0.3535353E-01  0.9811465E-05  0.0000000E+00  0.1064234E-03
  0.8585858E-01  0.0000000E+00  0.3535353E-01  0.1125876E-04  0.0000000E+00  0.1094637E-03
  0.9595960E-01  0.0000000E+00  0.3535353E-01  0.1276126E-04  0.0000000E+00  0.1129300E-03
  0.1060606E+00  0.0000000E+00  0.3535353E-01  0.1432732E-04  0.0000000E+00  0.1168395E-03
  0.1161616E+00  0.0000000E+00  0.3535353E-01  0.1596600E-04  0.0000000E+00  0.1212120E-03
  0.1262626E+00  0.0000000E+00  0.3535353E-01  0.1768716E-04  0.0000000E+00  0.1260702E-03
  0.1363636E+00  0.0000000E+00  0.3535353E-01  0.1950164E-04  0.0000000E+00  0.1314397E-03
  0.1464646E+00  0.0000000E+00  0.3535353E-01  0.2142139E-04  0.0000000E+00  0.1373494E-03
  0.1565657E+00  0.0000000E+00  0.3535353E-01  0.2345966E-04  0.0000000E+00  0.1438322E-03
  0.1666667E+00  0.0000000E+00  0.3535353E-01  0.2563124E-04  0.0000000E+00  0.1509248E-03
  0.1767677E+00  0.0000000E+00  0.3535353E-01  0.2795266E-04  0.0000000E+00  0.1586688E-03
  0.1868687E+00  0.0000000E+00  0.3535353E-01  0.3044252E-04  0.0000000E+00  0.1671107E-03
  0.1969697E+00  0.0000000E+00  0.3535353E-01  0.3312178E-04  0.0000000E+00  0.1763031E-03
  0.2070707E+00  0.0000000E+00  0.3535353E-01  0.3601418E-04  0.0000000E+00  0.1863052E-03
  0.2171717E+00  0.0000000E+00  0.3535353E-01  0.3914666E-04  0.0000000E+00  0.1971837E-03
  0.2272727E+00  0.0000000E+00  0.3535353E-01  0.4254991E-04  0.0000000E+00  0.2090139E-03
  0.2373737E+00  0.0000000E+00  0.3535353E-01  0.4625897E-04  0.0000000E+00  0.2218806E-03
  0.2474747E+00  0.0000000E+00  0.3535353E-01  0.5031411E-04  0.0000000E+00  0.2358797E-03
  0.2575758E+00  0.0000000E+00  0.3535353E-01  0.5476192E-04  0.0000000E+00  0.2511189E-03
  0.2676768E+00  0.0000000E+00  0.3535353E-01  0.5965697E-04  0.0000000E+00  0.2677195E-03
  0.2777778E+00  0.0000000E+00  0.3535353E-01  0.6506454E-04  0.0000000E+00  0.2858167E-03
  0.2878788E+00  0.0000000E+00  0.3535353E-01  0.7106511E-04  0.0000000E+00  0.3055609E-03
  0.2979798E+00  0.0000000E+00  0.3535353E-01  0.7776240E-04  0.0000000E+00  0.3271176E-03