title = "dataset water"
variables = "x", "y", "z", "vx", "vy", "vz"
zone t = "velocities, solution time =  3.900E+01 days        " i =   99, j =   99, k =    1,  f=point
  0.5050505E-02  0.0000000E+00  0.5050505E-02  0.4109416E-07  0.0000000E+00  0.3728252E-04
  0.1515152E-01  0.0000000E+00  0.5050505E-02  0.1234448E-06  0.0000000E+00  0.3744830E-04
  0.2525252E-01  0.0000000E+00  0.5050505E-02  0.2062847E-06  0.0000000E+00  0.3778051E-04
  0.3535353E-01  0.0000000E+00  0.5050505E-02  0.2899450E-06  0.0000000E+00  0.3828050E-04
  0.4545455E-01  0.0000000E+00  0.5050505E-02  0.3747621E-06  0.0000000E+00  0.3895028E-04
  0.5555556E-01  0.0000000E+00  0.5050505E-02  0.4610797E-06  0.0000000E+00  0.3979257E-04
  0.6565657E-01  0.0000000E+00  0.5050505E-02  0.5492508E-06  0.0000000E+00  0.4081080E-04
  0.7575758E-01  0.0000000E+00  0.5050505E-02  0.6396396E-06  0.0000000E+00  0.4200914E-04
  0.8585858E-01  0.0000000E+00  0.5050505E-02  0.7326240E-06  0.0000000E+00  0.4339251E-04
  0.9595960E-01  0.0000000E+00  0.5050505E-02  0.8285984E-06  0.0000000E+00  0.4496664E-04
  0.1060606E+00  0.0000000E+00  0.5050505E-02  0.9279763E-06  0.0000000E+00  0.4673808E-04
  0.1161616E+00  0.0000000E+00  0.5050505E-02  0.1031194E-05  0.0000000E+00  0.4871425E-04
  0.1262626E+00  0.0000000E+00  0.5050505E-02  0.1138714E-05  0.0000000E+00  0.5090352E-04
  0.1363636E+00  0.0000000E+00  0.5050505E-02  0.1251030E-05  0.0000000E+00  0.5331523E-04
  0.1464646E+00  0.0000000E+00  0.5050505E-02  0.1368670E-05  0.0000000E+00  0.5595980E-04
  0.1565657E+00  0.0000000E+00  0.5050505E-02  0.1492207E-05  0.0000000E+00  0.5884876E-04
  0.1666667E+00  0.0000000E+00  0.5050505E-02  0.1622262E-05  0.0000000E+00  0.6199492E-04
  0.1767677E+00  0.0000000E+00  0.5050505E-02  0.1759515E-05  0.0000000E+00  0.6541242E-04
  0.1868687E+00  0.0000000E+00  0.5050505E-02  0.1904715E-05  0.0000000E+00  0.6911690E-04
  0.1969697E+00  0.0000000E+00  0.5050505E-02  0.2058697E-05  0.0000000E+00  0.7312567E-04
  0.2070707E+00  0.0000000E+00  0.5050505E-02  0.2222395E-05  0.0000000E+00  0.7745788E-04
  0.2171717E+00  0.0000000E+00  0.5050505E-02  0.2396870E-05  0.0000000E+00  0.8213477E-04
  0.2272727E+00  0.0000000E+00  0.5050505E-02  0.2583330E-05  0.0000000E+00  0.8717999E-04
  0.2373737E+00  0.0000000E+00  0.5050505E-02  0.2783176E-05  0.0000000E+00  0.9261991E-04
  0.2474747E+00  0.0000000E+00  0.5050505E-02  0.2998041E-05  0.0000000E+00  0.9848411E-04
  0.2575758E+00  0.0000000E+00  0.5050505E-02  0.3229855E-05  0.0000000E+00  0.1048059E-03
  0.2676768E+00  0.0000000E+00  0.5050505E-02  0.3480924E-05  0.0000000E+00  0.1116232E-03
  0.2777778E+00  0.0000000E+00  0.5050505E-02  0.3754038E-05  0.0000000E+00  0.1189790E-03
  0.2878788E+00  0.0000000E+00  0.5050505E-02  0.4052607E-05  0.0000000E+00  0.1269233E-03
  0.2979798E+00  0.0000000E+00  0.5050505E-02  0.4380857E-05  0.0000000E+00  0.1355137E-03
  0.3080808E+00  0.0000000E+00  0.5050505E-02  0.4744086E-05  0.0000000E+00  0.1448182E-03
  0.3181818E+00  0.0000000E+00  0.5050505E-02  0.5149020E-05  0.0000000E+00  0.1549175E-03
  0.3282828E+00  0.0000000E+00  0.5050505E-02  0.5604315E-05  0.0000000E+00  0.1659085E-03
  0.3383838E+00  0.0000000E+00  0.5050505E-02  0.6121262E-05  0.0000000E+00  0.1779092E-03
  0.3484848E+00  0.0000000E+00  0.5050505E-02  0.6714819E-05  0.0000000E+00  0.1910658E-03
  0.3585859E+00  0.0000000E+00  0.5050505E-02  0.7405124E-05  0.0000000E+00  0.2055616E-03
  0.3686869E+00  0.0000000E+00  0.5050505E-02  0.8219807E-05  0.0000000E+00  0.2216308E-03
  0.3787879E+00  0.0000000E+00  0.5050505E-02  0.9197603E-05  0.0000000E+00  0.2395786E-03
  0.3888889E+00  0.0000000E+00  0.5050505E-02  0.1039430E-04  0.0000000E+00  0.2598113E-03
  0.3989899E+00  0.0000000E+00  0.5050505E-02  0.1189318E-04  0.0000000E+00  0.2828847E-03
  0.4090909E+00  0.0000000E+00  0.5050505E-02  0.1382512E-04  0.0000000E+00  0.3095852E-03
  0.4191919E+00  0.0000000E+00  0.5050505E-02  0.1641248E-04  0.0000000E+00  0.3410802E-03
  0.4292929E+00  0.0000000E+00  0.5050505E-02  0.2007912E-04  0.0000000E+00  0.3792366E-03
  0.4393939E+00  0.0000000E+00  0.5050505E-02  0.2576622E-04  0.0000000E+00  0.4273998E-03
  0.4494950E+00  0.0000000E+00  0.5050505E-02  0.3594375E-04  0.0000000E+00  0.4926218E-03
  0.4595959E+00  0.0000000E+00  0.5050505E-02  0.5812480E-04  0.0000000E+00  0.5928808E-03
  0.4696970E+00  0.0000000E+00  0.5050505E-02 -0.4069289E-05  0.0000000E+00  0.6506342E-03
  0.4797980E+00  0.0000000E+00  0.5050505E-02  0.7521273E-05  0.0000000E+00  0.6543775E-03
  0.4898990E+00  0.0000000E+00  0.5050505E-02 -0.4416471E-04  0.0000000E+00  0.6150888E-03
  0.5000000E+00  0.0000000E+00  0.5050505E-02 -0.3085623E-04  0.0000000E+00  0.5347564E-03
  0.5101010E+00  0.0000000E+00  0.5050505E-02 -0.2388126E-04  0.0000000E+00  0.4765695E-03
  0.5202020E+00  0.0000000E+00  0.5050505E-02 -0.1962531E-04  0.0000000E+00  0.4305829E-03
  0.5303030E+00  0.0000000E+00  0.5050505E-02 -0.1673507E-04  0.0000000E+00  0.3923294E-03
  0.5404040E+00  0.0000000E+00  0.5050505E-02 -0.1460992E-04  0.0000000E+00  0.3594843E-03
  0.5505050E+00  0.0000000E+00  0.5050505E-02 -0.1295363E-04  0.0000000E+00  0.3307026E-03
  0.5606061E+00  0.0000000E+00  0.5050505E-02 -0.1160786E-04  0.0000000E+00  0.3051352E-03
  0.5707071E+00  0.0000000E+00  0.5050505E-02 -0.1048147E-04  0.0000000E+00  0.2822053E-03
  0.5808081E+00  0.0000000E+00  0.5050505E-02 -0.9518292E-05  0.0000000E+00  0.2614966E-03
  0.5909091E+00  0.0000000E+00  0.5050505E-02 -0.8681533E-05  0.0000000E+00  0.2426947E-03
  0.6010101E+00  0.0000000E+00  0.5050505E-02 -0.7945810E-05  0.0000000E+00  0.2255532E-03
  0.6111111E+00  0.0000000E+00  0.5050505E-02 -0.7292851E-05  0.0000000E+00  0.2098732E-03
  0.6212121E+00  0.0000000E+00  0.5050505E-02 -0.6709022E-05  0.0000000E+00  0.1954910E-03
  0.6313131E+00  0.0000000E+00  0.5050505E-02 -0.6183847E-05  0.0000000E+00  0.1822692E-03
  0.6414142E+00  0.0000000E+00  0.5050505E-02 -0.5709078E-05  0.0000000E+00  0.1700910E-03
  0.6515151E+00  0.0000000E+00  0.5050505E-02 -0.5278077E-05  0.0000000E+00  0.1588557E-03
  0.6616161E+00  0.0000000E+00  0.5050505E-02 -0.4885409E-05  0.0000000E+00  0.1484758E-03
  0.6717172E+00  0.0000000E+00  0.5050505E-02 -0.4526549E-05  0.0000000E+00  0.1388747E-03
  0.6818182E+00  0.0000000E+00  0.5050505E-02 -0.4197682E-05  0.0000000E+00  0.1299847E-03
  0.6919192E+00  0.0000000E+00  0.5050505E-02 -0.3895550E-05  0.0000000E+00  0.1217461E-03
  0.7020202E+00  0.0000000E+00  0.5050505E-02 -0.3617344E-05  0.0000000E+00  0.1141053E-03
  0.7121212E+00  0.0000000E+00  0.5050505E-02 -0.3360615E-05  0.0000000E+00  0.1070148E-03
  0.7222222E+00  0.0000000E+00  0.5050505E-02 -0.3123221E-05  0.0000000E+00  0.1004316E-03
  0.7323232E+00  0.0000000E+00  0.5050505E-02 -0.2903266E-05  0.0000000E+00  0.9431732E-04
  0.7424242E+00  0.0000000E+00  0.5050505E-02 -0.2699069E-05  0.0000000E+00  0.8863734E-04
  0.7525253E+00  0.0000000E+00  0.5050505E-02 -0.2509130E-05  0.0000000E+00  0.8336036E-04
  0.7626263E+00  0.0000000E+00  0.5050505E-02 -0.2332108E-05  0.0000000E+00  0.7845812E-04
  0.7727273E+00  0.0000000E+00  0.5050505E-02 -0.2166796E-05  0.0000000E+00  0.7390507E-04
  0.7828283E+00  0.0000000E+00  0.5050505E-02 -0.2012107E-05  0.0000000E+00  0.6967805E-04
  0.7929293E+00  0.0000000E+00  0.5050505E-02 -0.1867058E-05  0.0000000E+00  0.6575611E-04
  0.8030303E+00  0.0000000E+00  0.5050505E-02 -0.1730760E-05  0.0000000E+00  0.6212023E-04
  0.8131313E+00  0.0000000E+00  0.5050505E-02 -0.1602404E-05  0.0000000E+00  0.5875319E-04
  0.8232324E+00  0.0000000E+00  0.5050505E-02 -0.1481254E-05  0.0000000E+00  0.5563938E-04
  0.8333333E+00  0.0000000E+00  0.5050505E-02 -0.1366639E-05  0.0000000E+00  0.5276465E-04
  0.8434343E+00  0.0000000E+00  0.5050505E-02 -0.1257945E-05  0.0000000E+00  0.5011620E-04
  0.8535354E+00  0.0000000E+00  0.5050505E-02 -0.1154607E-05  0.0000000E+00  0.4768242E-04
  0.8636364E+00  0.0000000E+00  0.5050505E-02 -0.1056107E-05  0.0000000E+00  0.4545288E-04
  0.8737374E+00  0.0000000E+00  0.5050505E-02 -0.9619642E-06  0.0000000E+00  0.4341812E-04
  0.8838384E+00  0.0000000E+00  0.5050505E-02 -0.8717357E-06  0.0000000E+00  0.4156967E-04
  0.8939394E+00  0.0000000E+00  0.5050505E-02 -0.7850077E-06  0.0000000E+00  0.3989995E-04
  0.9040404E+00  0.0000000E+00  0.5050505E-02 -0.7013944E-06  0.0000000E+00  0.3840218E-04
  0.9141414E+00  0.0000000E+00  0.5050505E-02 -0.6205335E-06  0.0000000E+00  0.3707035E-04
  0.9242424E+00  0.0000000E+00  0.5050505E-02 -0.5420835E-06  0.0000000E+00  0.3589920E-04
  0.9343435E+00  0.0000000E+00  0.5050505E-02 -0.4657210E-06  0.0000000E+00  0.3488412E-04
  0.9444444E+00  0.0000000E+00  0.5050505E-02 -0.3911375E-06  0.0000000E+00  0.3402117E-04
  0.9545454E+00  0.0000000E+00  0.5050505E-02 -0.3180377E-06  0.0000000E+00  0.3330702E-04
  0.9646465E+00  0.0000000E+00  0.5050505E-02 -0.2461370E-06  0.0000000E+00  0.3273892E-04
  0.9747475E+00  0.0000000E+00  0.5050505E-02 -0.1751595E-06  0.0000000E+00  0.3231472E-04
  0.9848485E+00  0.0000000E+00  0.5050505E-02 -0.1048359E-06  0.0000000E+00  0.3203280E-04
  0.9974747E+00  0.0000000E+00  0.5050505E-02 -0.3490220E-07  0.0000000E+00  0.3189211E-04
  0.5050505E-02  0.0000000E+00  0.1515152E-01  0.1231624E-06  0.0000000E+00  0.3729676E-04
  0.1515152E-01  0.0000000E+00  0.1515152E-01  0.3699746E-06  0.0000000E+00  0.3746253E-04
  0.2525252E-01  0.0000000E+00  0.1515152E-01  0.6182549E-06  0.0000000E+00  0.3779474E-04
  0.3535353E-01  0.0000000E+00  0.1515152E-01  0.8689955E-06  0.0000000E+00  0.3829470E-04
  0.4545455E-01  0.0000000E+00  0.1515152E-01  0.1123205E-05  0.0000000E+00  0.3896445E-04
  0.5555556E-01  0.0000000E+00  0.1515152E-01  0.1381913E-05  0.0000000E+00  0.3980670E-04
  0.6565657E-01  0.0000000E+00  0.1515152E-01  0.1646177E-05  0.0000000E+00  0.4082486E-04
  0.7575758E-01  0.0000000E+00  0.1515152E-01  0.1917089E-05  0.0000000E+00  0.4202310E-04
  0.8585858E-01  0.0000000E+00  0.1515152E-01  0.2195780E-05  0.0000000E+00  0.4340633E-04
  0.9595960E-01  0.0000000E+00  0.1515152E-01  0.2483433E-05  0.0000000E+00  0.4498028E-04
  0.1060606E+00  0.0000000E+00  0.1515152E-01  0.2781286E-05  0.0000000E+00  0.4675147E-04
  0.1161616E+00  0.0000000E+00  0.1515152E-01  0.3090645E-05  0.0000000E+00  0.4872734E-04
  0.1262626E+00  0.0000000E+00  0.1515152E-01  0.3412896E-05  0.0000000E+00  0.5091621E-04
  0.1363636E+00  0.0000000E+00  0.1515152E-01  0.3749516E-05  0.0000000E+00  0.5332742E-04
  0.1464646E+00  0.0000000E+00  0.1515152E-01  0.4102088E-05  0.0000000E+00  0.5597135E-04
  0.1565657E+00  0.0000000E+00  0.1515152E-01  0.4472323E-05  0.0000000E+00  0.5885950E-04
  0.1666667E+00  0.0000000E+00  0.1515152E-01  0.4862079E-05  0.0000000E+00  0.6200464E-04
  0.1767677E+00  0.0000000E+00  0.1515152E-01  0.5273388E-05  0.0000000E+00  0.6542084E-04
  0.1868687E+00  0.0000000E+00  0.1515152E-01  0.5708489E-05  0.0000000E+00  0.6912369E-04
  0.1969697E+00  0.0000000E+00  0.1515152E-01  0.6169872E-05  0.0000000E+00  0.7313038E-04
  0.2070707E+00  0.0000000E+00  0.1515152E-01  0.6660326E-05  0.0000000E+00  0.7745996E-04
  0.2171717E+00  0.0000000E+00  0.1515152E-01  0.7183005E-05  0.0000000E+00  0.8213350E-04
  0.2272727E+00  0.0000000E+00  0.1515152E-01  0.7741513E-05  0.0000000E+00  0.8717442E-04
  0.2373737E+00  0.0000000E+00  0.1515152E-01  0.8340009E-05  0.0000000E+00  0.9260884E-04
  0.2474747E+00  0.0000000E+00  0.1515152E-01  0.8983344E-05  0.0000000E+00  0.9846596E-04
  0.2575758E+00  0.0000000E+00  0.1515152E-01  0.9677238E-05  0.0000000E+00  0.1047786E-03
  0.2676768E+00  0.0000000E+00  0.1515152E-01  0.1042852E-04  0.0000000E+00  0.1115840E-03
  0.2777778E+00  0.0000000E+00  0.1515152E-01  0.1124543E-04  0.0000000E+00  0.1189244E-03
  0.2878788E+00  0.0000000E+00  0.1515152E-01  0.1213804E-04  0.0000000E+00  0.1268484E-03
  0.2979798E+00  0.0000000E+00  0.1515152E-01  0.1311879E-04  0.0000000E+00  0.1354123E-03
  0.3080808E+00  0.0000000E+00  0.1515152E-01  0.1420325E-04  0.0000000E+00  0.1446818E-03
  0.3181818E+00  0.0000000E+00  0.1515152E-01  0.1541115E-04  0.0000000E+00  0.1547345E-03
  0.3282828E+00  0.0000000E+00  0.1515152E-01  0.1676780E-04  0.0000000E+00  0.1656633E-03
  0.3383838E+00  0.0000000E+00  0.1515152E-01  0.1830614E-04  0.0000000E+00  0.1775805E-03
  0.3484848E+00  0.0000000E+00  0.1515152E-01  0.2006963E-04  0.0000000E+00  0.1906239E-03
  0.3585859E+00  0.0000000E+00  0.1515152E-01  0.2211657E-04  0.0000000E+00  0.2049647E-03
  0.3686869E+00  0.0000000E+00  0.1515152E-01  0.2452651E-04  0.0000000E+00  0.2208195E-03
  0.3787879E+00  0.0000000E+00  0.1515152E-01  0.2741018E-04  0.0000000E+00  0.2384662E-03
  0.3888889E+00  0.0000000E+00  0.1515152E-01  0.3092534E-04  0.0000000E+00  0.2582677E-03
  0.3989899E+00  0.0000000E+00  0.1515152E-01  0.3530329E-04  0.0000000E+00  0.2807061E-03
  0.4090909E+00  0.0000000E+00  0.1515152E-01  0.4089618E-04  0.0000000E+00  0.3064307E-03
  0.4191919E+00  0.0000000E+00  0.1515152E-01  0.4826908E-04  0.0000000E+00  0.3363194E-03
  0.4292929E+00  0.0000000E+00  0.1515152E-01  0.5840018E-04  0.0000000E+00  0.3715260E-03
  0.4393939E+00  0.0000000E+00  0.1515152E-01  0.7317328E-04  0.0000000E+00  0.4133620E-03
  0.4494950E+00  0.0000000E+00  0.1515152E-01  0.9674267E-04  0.0000000E+00  0.4623354E-03
  0.4595959E+00  0.0000000E+00  0.1515152E-01  0.1397207E-03  0.0000000E+00  0.5134677E-03
  0.4696970E+00  0.0000000E+00  0.1515152E-01  0.3261049E-04  0.0000000E+00  0.5821668E-03
  0.4797980E+00  0.0000000E+00  0.1515152E-01  0.4079330E-05  0.0000000E+00  0.6141234E-03
  0.4898990E+00  0.0000000E+00  0.1515152E-01 -0.1156988E-03  0.0000000E+00  0.5730127E-03
  0.5000000E+00  0.0000000E+00  0.1515152E-01 -0.8690891E-04  0.0000000E+00  0.5169455E-03
  0.5101010E+00  0.0000000E+00  0.1515152E-01 -0.6921813E-04  0.0000000E+00  0.4674328E-03
  0.5202020E+00  0.0000000E+00  0.1515152E-01 -0.5766503E-04  0.0000000E+00  0.4253082E-03
  0.5303030E+00  0.0000000E+00  0.1515152E-01 -0.4953628E-04  0.0000000E+00  0.3890248E-03
  0.5404040E+00  0.0000000E+00  0.1515152E-01 -0.4342904E-04  0.0000000E+00  0.3572817E-03
  0.5505050E+00  0.0000000E+00  0.1515152E-01 -0.3860352E-04  0.0000000E+00  0.3291632E-03
  0.5606061E+00  0.0000000E+00  0.1515152E-01 -0.3464826E-04  0.0000000E+00  0.3040201E-03
  0.5707071E+00  0.0000000E+00  0.1515152E-01 -0.3131910E-04  0.0000000E+00  0.2813753E-03
  0.5808081E+00  0.0000000E+00  0.1515152E-01 -0.2846174E-04  0.0000000E+00  0.2608659E-03
  0.5909091E+00  0.0000000E+00  0.1515152E-01 -0.2597309E-04  0.0000000E+00  0.2422077E-03
  0.6010101E+00  0.0000000E+00  0.1515152E-01 -0.2378102E-04  0.0000000E+00  0.2251723E-03
  0.6111111E+00  0.0000000E+00  0.1515152E-01 -0.2183299E-04  0.0000000E+00  0.2095723E-03
  0.6212121E+00  0.0000000E+00  0.1515152E-01 -0.2008950E-04  0.0000000E+00  0.1952515E-03
  0.6313131E+00  0.0000000E+00  0.1515152E-01 -0.1852001E-04  0.0000000E+00  0.1820776E-03
  0.6414142E+00  0.0000000E+00  0.1515152E-01 -0.1710034E-04  0.0000000E+00  0.1699371E-03
  0.6515151E+00  0.0000000E+00  0.1515152E-01 -0.1581098E-04  0.0000000E+00  0.1587320E-03
  0.6616161E+00  0.0000000E+00  0.1515152E-01 -0.1463588E-04  0.0000000E+00  0.1483765E-03
  0.6717172E+00  0.0000000E+00  0.1515152E-01 -0.1356167E-04  0.0000000E+00  0.1387954E-03
  0.6818182E+00  0.0000000E+00  0.1515152E-01 -0.1257703E-04  0.0000000E+00  0.1299219E-03
  0.6919192E+00  0.0000000E+00  0.1515152E-01 -0.1167228E-04  0.0000000E+00  0.1216969E-03
  0.7020202E+00  0.0000000E+00  0.1515152E-01 -0.1083907E-04  0.0000000E+00  0.1140675E-03
  0.7121212E+00  0.0000000E+00  0.1515152E-01 -0.1007010E-04  0.0000000E+00  0.1069865E-03
  0.7222222E+00  0.0000000E+00  0.1515152E-01 -0.9358990E-05  0.0000000E+00  0.1004113E-03
  0.7323232E+00  0.0000000E+00  0.1515152E-01 -0.8700071E-05  0.0000000E+00  0.9430383E-04
  0.7424242E+00  0.0000000E+00  0.1515152E-01 -0.8088326E-05  0.0000000E+00  0.8862956E-04
  0.7525253E+00  0.0000000E+00  0.1515152E-01 -0.7519272E-05  0.0000000E+00  0.8335738E-04
  0.7626263E+00  0.0000000E+00  0.1515152E-01 -0.6988895E-05  0.0000000E+00  0.7845918E-04
  0.7727273E+00  0.0000000E+00  0.1515152E-01 -0.6493585E-05  0.0000000E+00  0.7390950E-04
  0.7828283E+00  0.0000000E+00  0.1515152E-01 -0.6030088E-05  0.0000000E+00  0.6968530E-04
  0.7929293E+00  0.0000000E+00  0.1515152E-01 -0.5595465E-05  0.0000000E+00  0.6576569E-04
  0.8030303E+00  0.0000000E+00  0.1515152E-01 -0.5187051E-05  0.0000000E+00  0.6213173E-04
  0.8131313E+00  0.0000000E+00  0.1515152E-01 -0.4802426E-05  0.0000000E+00  0.5876626E-04
  0.8232324E+00  0.0000000E+00  0.1515152E-01 -0.4439386E-05  0.0000000E+00  0.5565371E-04
  0.8333333E+00  0.0000000E+00  0.1515152E-01 -0.4095921E-05  0.0000000E+00  0.5277999E-04
  0.8434343E+00  0.0000000E+00  0.1515152E-01 -0.3770190E-05  0.0000000E+00  0.5013231E-04
  0.8535354E+00  0.0000000E+00  0.1515152E-01 -0.3460504E-05  0.0000000E+00  0.4769915E-04
  0.8636364E+00  0.0000000E+00  0.1515152E-01 -0.3165309E-05  0.0000000E+00  0.4547005E-04
  0.8737374E+00  0.0000000E+00  0.1515152E-01 -0.2883169E-05  0.0000000E+00  0.4343561E-04
  0.8838384E+00  0.0000000E+00  0.1515152E-01 -0.2612754E-05  0.0000000E+00  0.4158739E-04
  0.8939394E+00  0.0000000E+00  0.1515152E-01 -0.2352825E-05  0.0000000E+00  0.3991781E-04
  0.9040404E+00  0.0000000E+00  0.1515152E-01 -0.2102228E-05  0.0000000E+00  0.3842012E-04
  0.9141414E+00  0.0000000E+00  0.1515152E-01 -0.1859877E-05  0.0000000E+00  0.3708832E-04
  0.9242424E+00  0.0000000E+00  0.1515152E-01 -0.1624748E-05  0.0000000E+00  0.3591717E-04
  0.9343435E+00  0.0000000E+00  0.1515152E-01 -0.1395875E-05  0.0000000E+00  0.3490206E-04
  0.9444444E+00  0.0000000E+00  0.1515152E-01 -0.1172331E-05  0.0000000E+00  0.3403907E-04
  0.9545454E+00  0.0000000E+00  0.1515152E-01 -0.9532341E-06  0.0000000E+00  0.3332486E-04
  0.9646465E+00  0.0000000E+00  0.1515152E-01 -0.7377304E-06  0.0000000E+00  0.3275672E-04
  0.9747475E+00  0.0000000E+00  0.1515152E-01 -0.5249935E-06  0.0000000E+00  0.3233247E-04
  0.9848485E+00  0.0000000E+00  0.1515152E-01 -0.3142170E-06  0.0000000E+00  0.3205052E-04
  0.9974747E+00  0.0000000E+00  0.1515152E-01 -0.1046097E-06  0.0000000E+00  0.3190981E-04
  0.5050505E-02  0.0000000E+00  0.2525252E-01  0.2049921E-06  0.0000000E+00  0.3732638E-04
  0.1515152E-01  0.0000000E+00  0.2525252E-01  0.6157889E-06  0.0000000E+00  0.3749215E-04
  0.2525252E-01  0.0000000E+00  0.2525252E-01  0.1029032E-05  0.0000000E+00  0.3782435E-04
  0.3535353E-01  0.0000000E+00  0.2525252E-01  0.1446372E-05  0.0000000E+00  0.3832430E-04
  0.4545455E-01  0.0000000E+00  0.2525252E-01  0.1869488E-05  0.0000000E+00  0.3899401E-04
  0.5555556E-01  0.0000000E+00  0.2525252E-01  0.2300094E-05  0.0000000E+00  0.3983619E-04
  0.6565657E-01  0.0000000E+00  0.2525252E-01  0.2739947E-05  0.0000000E+00  0.4085425E-04
  0.7575758E-01  0.0000000E+00  0.2525252E-01  0.3190864E-05  0.0000000E+00  0.4205234E-04
  0.8585858E-01  0.0000000E+00  0.2525252E-01  0.3654728E-05  0.0000000E+00  0.4343536E-04
  0.9595960E-01  0.0000000E+00  0.2525252E-01  0.4133502E-05  0.0000000E+00  0.4500902E-04
  0.1060606E+00  0.0000000E+00  0.2525252E-01  0.4629248E-05  0.0000000E+00  0.4677984E-04
  0.1161616E+00  0.0000000E+00  0.2525252E-01  0.5144135E-05  0.0000000E+00  0.4875519E-04
  0.1262626E+00  0.0000000E+00  0.2525252E-01  0.5680464E-05  0.0000000E+00  0.5094340E-04
  0.1363636E+00  0.0000000E+00  0.2525252E-01  0.6240689E-05  0.0000000E+00  0.5335375E-04
  0.1464646E+00  0.0000000E+00  0.2525252E-01  0.6827437E-05  0.0000000E+00  0.5599657E-04
  0.1565657E+00  0.0000000E+00  0.2525252E-01  0.7443545E-05  0.0000000E+00  0.5888330E-04
  0.1666667E+00  0.0000000E+00  0.2525252E-01  0.8092090E-05  0.0000000E+00  0.6202662E-04
  0.1767677E+00  0.0000000E+00  0.2525252E-01  0.8776436E-05  0.0000000E+00  0.6544051E-04
  0.1868687E+00  0.0000000E+00  0.2525252E-01  0.9500284E-05  0.0000000E+00  0.6914041E-04
  0.1969697E+00  0.0000000E+00  0.2525252E-01  0.1026774E-04  0.0000000E+00  0.7314333E-04
  0.2070707E+00  0.0000000E+00  0.2525252E-01  0.1108341E-04  0.0000000E+00  0.7746809E-04
  0.2171717E+00  0.0000000E+00  0.2525252E-01  0.1195247E-04  0.0000000E+00  0.8213546E-04
  0.2272727E+00  0.0000000E+00  0.2525252E-01  0.1288084E-04  0.0000000E+00  0.8716847E-04
  0.2373737E+00  0.0000000E+00  0.2525252E-01  0.1387532E-04  0.0000000E+00  0.9259268E-04
  0.2474747E+00  0.0000000E+00  0.2525252E-01  0.1494384E-04  0.0000000E+00  0.9843662E-04
  0.2575758E+00  0.0000000E+00  0.2525252E-01  0.1609572E-04  0.0000000E+00  0.1047322E-03
  0.2676768E+00  0.0000000E+00  0.2525252E-01  0.1734204E-04  0.0000000E+00  0.1115153E-03
  0.2777778E+00  0.0000000E+00  0.2525252E-01  0.1869613E-04  0.0000000E+00  0.1188267E-03
  0.2878788E+00  0.0000000E+00  0.2525252E-01  0.2017425E-04  0.0000000E+00  0.1267127E-03
  0.2979798E+00  0.0000000E+00  0.2525252E-01  0.2179637E-04  0.0000000E+00  0.1352264E-03
  0.3080808E+00  0.0000000E+00  0.2525252E-01  0.2358742E-04  0.0000000E+00  0.1444297E-03
  0.3181818E+00  0.0000000E+00  0.2525252E-01  0.2557882E-04  0.0000000E+00  0.1543945E-03
  0.3282828E+00  0.0000000E+00  0.2525252E-01  0.2781069E-04  0.0000000E+00  0.1652060E-03
  0.3383838E+00  0.0000000E+00  0.2525252E-01  0.3033492E-04  0.0000000E+00  0.1769656E-03
  0.3484848E+00  0.0000000E+00  0.2525252E-01  0.3321955E-04  0.0000000E+00  0.1897958E-03
  0.3585859E+00  0.0000000E+00  0.2525252E-01  0.3655507E-04  0.0000000E+00  0.2038459E-03
  0.3686869E+00  0.0000000E+00  0.2525252E-01  0.4046378E-04  0.0000000E+00  0.2193000E-03
  0.3787879E+00  0.0000000E+00  0.2525252E-01  0.4511375E-04  0.0000000E+00  0.2363879E-03
  0.3888889E+00  0.0000000E+00  0.2525252E-01  0.5074023E-04  0.0000000E+00  0.2553988E-03
  0.3989899E+00  0.0000000E+00  0.2525252E-01  0.5767888E-04  0.0000000E+00  0.2766983E-03
  0.4090909E+00  0.0000000E+00  0.2525252E-01  0.6641810E-04  0.0000000E+00  0.3007447E-03
  0.4191919E+00  0.0000000E+00  0.2525252E-01  0.7768068E-04  0.0000000E+00  0.3280883E-03
  0.4292929E+00  0.0000000E+00  0.2525252E-01  0.9254311E-04  0.0000000E+00  0.3592918E-03
  0.4393939E+00  0.0000000E+00  0.2525252E-01  0.1125660E-03  0.0000000E+00  0.3945536E-03
  0.4494950E+00  0.0000000E+00  0.2525252E-01  0.1397052E-03  0.0000000E+00  0.4322619E-03
  0.4595959E+00  0.0000000E+00  0.2525252E-01  0.1747990E-03  0.0000000E+00  0.4637263E-03
  0.4696970E+00  0.0000000E+00  0.2525252E-01  0.1303556E-03  0.0000000E+00  0.5365809E-03
  0.4797980E+00  0.0000000E+00  0.2525252E-01 -0.1527397E-04  0.0000000E+00  0.5879470E-03
  0.4898990E+00  0.0000000E+00  0.2525252E-01 -0.1717849E-03  0.0000000E+00  0.5482912E-03
  0.5000000E+00  0.0000000E+00  0.2525252E-01 -0.1331419E-03  0.0000000E+00  0.4954004E-03
  0.5101010E+00  0.0000000E+00  0.2525252E-01 -0.1091079E-03  0.0000000E+00  0.4535565E-03
  0.5202020E+00  0.0000000E+00  0.2525252E-01 -0.9269568E-04  0.0000000E+00  0.4165359E-03
  0.5303030E+00  0.0000000E+00  0.2525252E-01 -0.8059843E-04  0.0000000E+00  0.3832668E-03
  0.5404040E+00  0.0000000E+00  0.2525252E-01 -0.7117998E-04  0.0000000E+00  0.3533326E-03
  0.5505050E+00  0.0000000E+00  0.2525252E-01 -0.6355721E-04  0.0000000E+00  0.3263523E-03
  0.5606061E+00  0.0000000E+00  0.2525252E-01 -0.5721123E-04  0.0000000E+00  0.3019604E-03
  0.5707071E+00  0.0000000E+00  0.2525252E-01 -0.5181539E-04  0.0000000E+00  0.2798316E-03
  0.5808081E+00  0.0000000E+00  0.2525252E-01 -0.4715266E-04  0.0000000E+00  0.2596882E-03
  0.5909091E+00  0.0000000E+00  0.2525252E-01 -0.4307242E-04  0.0000000E+00  0.2412963E-03
  0.6010101E+00  0.0000000E+00  0.2525252E-01 -0.3946623E-04  0.0000000E+00  0.2244589E-03
  0.6111111E+00  0.0000000E+00  0.2525252E-01 -0.3625351E-04  0.0000000E+00  0.2090088E-03
  0.6212121E+00  0.0000000E+00  0.2525252E-01 -0.3337270E-04  0.0000000E+00  0.1948033E-03
  0.6313131E+00  0.0000000E+00  0.2525252E-01 -0.3077566E-04  0.0000000E+00  0.1817194E-03
  0.6414142E+00  0.0000000E+00  0.2525252E-01 -0.2842392E-04  0.0000000E+00  0.1696502E-03
  0.6515151E+00  0.0000000E+00  0.2525252E-01 -0.2628617E-04  0.0000000E+00  0.1585021E-03
  0.6616161E+00  0.0000000E+00  0.2525252E-01 -0.2433654E-04  0.0000000E+00  0.1481928E-03
  0.6717172E+00  0.0000000E+00  0.2525252E-01 -0.2255333E-04  0.0000000E+00  0.1386493E-03
  0.6818182E+00  0.0000000E+00  0.2525252E-01 -0.2091812E-04  0.0000000E+00  0.1298069E-03
  0.6919192E+00  0.0000000E+00  0.2525252E-01 -0.1941509E-04  0.0000000E+00  0.1216077E-03
  0.7020202E+00  0.0000000E+00  0.2525252E-01 -0.1803053E-04  0.0000000E+00  0.1139999E-03
  0.7121212E+00  0.0000000E+00  0.2525252E-01 -0.1675247E-04  0.0000000E+00  0.1069370E-03
  0.7222222E+00  0.0000000E+00  0.2525252E-01 -0.1557035E-04  0.0000000E+00  0.1003771E-03
  0.7323232E+00  0.0000000E+00  0.2525252E-01 -0.1447485E-04  0.0000000E+00  0.9428238E-04
  0.7424242E+00  0.0000000E+00  0.2525252E-01 -0.1345766E-04  0.0000000E+00  0.8861889E-04
  0.7525253E+00  0.0000000E+00  0.2525252E-01 -0.1251136E-04  0.0000000E+00  0.8335579E-04
  0.7626263E+00  0.0000000E+00  0.2525252E-01 -0.1162931E-04  0.0000000E+00  0.7846520E-04
  0.7727273E+00  0.0000000E+00  0.2525252E-01 -0.1080551E-04  0.0000000E+00  0.7392188E-04
  0.7828283E+00  0.0000000E+00  0.2525252E-01 -0.1003457E-04  0.0000000E+00  0.6970296E-04
  0.7929293E+00  0.0000000E+00  0.2525252E-01 -0.9311614E-05  0.0000000E+00  0.6578771E-04
  0.8030303E+00  0.0000000E+00  0.2525252E-01 -0.8632210E-05  0.0000000E+00  0.6215732E-04
  0.8131313E+00  0.0000000E+00  0.2525252E-01 -0.7992342E-05  0.0000000E+00  0.5879474E-04
  0.8232324E+00  0.0000000E+00  0.2525252E-01 -0.7388350E-05  0.0000000E+00  0.5568450E-04
  0.8333333E+00  0.0000000E+00  0.2525252E-01 -0.6816893E-05  0.0000000E+00  0.5281260E-04
  0.8434343E+00  0.0000000E+00  0.2525252E-01 -0.6274913E-05  0.0000000E+00  0.5016634E-04
  0.8535354E+00  0.0000000E+00  0.2525252E-01 -0.5759604E-05  0.0000000E+00  0.4773424E-04
  0.8636364E+00  0.0000000E+00  0.2525252E-01 -0.5268384E-05  0.0000000E+00  0.4550592E-04
  0.8737374E+00  0.0000000E+00  0.2525252E-01 -0.4798867E-05  0.0000000E+00  0.4347203E-04
  0.8838384E+00  0.0000000E+00  0.2525252E-01 -0.4348841E-05  0.0000000E+00  0.4162416E-04
  0.8939394E+00  0.0000000E+00  0.2525252E-01 -0.3916251E-05  0.0000000E+00  0.3995478E-04
  0.9040404E+00  0.0000000E+00  0.2525252E-01 -0.3499174E-05  0.0000000E+00  0.3845716E-04
  0.9141414E+00  0.0000000E+00  0.2525252E-01 -0.3095809E-05  0.0000000E+00  0.3712537E-04
  0.9242424E+00  0.0000000E+00  0.2525252E-01 -0.2704454E-05  0.0000000E+00  0.3595415E-04
  0.9343435E+00  0.0000000E+00  0.2525252E-01 -0.2323500E-05  0.0000000E+00  0.3493894E-04
  0.9444444E+00  0.0000000E+00  0.2525252E-01 -0.1951411E-05  0.0000000E+00  0.3407582E-04
  0.9545454E+00  0.0000000E+00  0.2525252E-01 -0.1586716E-05  0.0000000E+00  0.3336149E-04
  0.9646465E+00  0.0000000E+00  0.2525252E-01 -0.1228000E-05  0.0000000E+00  0.3279323E-04
  0.9747475E+00  0.0000000E+00  0.2525252E-01 -0.8738858E-06  0.0000000E+00  0.3236888E-04
  0.9848485E+00  0.0000000E+00  0.2525252E-01 -0.5230345E-06  0.0000000E+00  0.3208686E-04
  0.9974747E+00  0.0000000E+00  0.2525252E-01 -0.1741294E-06  0.0000000E+00  0.3194611E-04
  0.5050505E-02  0.0000000E+00  0.3535353E-01  0.2865874E-06  0.0000000E+00  0.3737234E-04
  0.1515152E-01  0.0000000E+00  0.3535353E-01  0.8608992E-06  0.0000000E+00  0.3753812E-04
  0.2525252E-01  0.0000000E+00  0.3535353E-01  0.1438632E-05  0.0000000E+00  0.3787032E-04
  0.3535353E-01  0.0000000E+00  0.3535353E-01  0.2022096E-05  0.0000000E+00  0.3837027E-04
  0.4545455E-01  0.0000000E+00  0.3535353E-01  0.2613634E-05  0.0000000E+00  0.3903996E-04
  0.5555556E-01  0.0000000E+00  0.3535353E-01  0.3215640E-05  0.0000000E+00  0.3988209E-04
  0.6565657E-01  0.0000000E+00  0.3535353E-01  0.3830573E-05  0.0000000E+00  0.4090007E-04
  0.7575758E-01  0.0000000E+00  0.3535353E-01  0.4460966E-05  0.0000000E+00  0.4209802E-04
  0.8585858E-01  0.0000000E+00  0.3535353E-01  0.5109450E-05  0.0000000E+00  0.4348083E-04
  0.9595960E-01  0.0000000E+00  0.3535353E-01  0.5778765E-05  0.0000000E+00  0.4505417E-04
  0.1060606E+00  0.0000000E+00  0.3535353E-01  0.6471787E-05  0.0000000E+00  0.4682454E-04
  0.1161616E+00  0.0000000E+00  0.3535353E-01  0.7191543E-05  0.0000000E+00  0.4879929E-04
  0.1262626E+00  0.0000000E+00  0.3535353E-01  0.7941240E-05  0.0000000E+00  0.5098669E-04
  0.1363636E+00  0.0000000E+00  0.3535353E-01  0.8724294E-05  0.0000000E+00  0.5339596E-04
  0.1464646E+00  0.0000000E+00  0.3535353E-01  0.9544364E-05  0.0000000E+00  0.5603737E-04
  0.1565657E+00  0.0000000E+00  0.3535353E-01  0.1040539E-04  0.0000000E+00  0.5892227E-04
  0.1666667E+00  0.0000000E+00  0.3535353E-01  0.1131165E-04  0.0000000E+00  0.6206323E-04
  0.1767677E+00  0.0000000E+00  0.3535353E-01  0.1226780E-04  0.0000000E+00  0.6547408E-04
  0.1868687E+00  0.0000000E+00  0.3535353E-01  0.1327897E-04  0.0000000E+00  0.6917007E-04
  0.1969697E+00  0.0000000E+00  0.3535353E-01  0.1435082E-04  0.0000000E+00  0.7316797E-04
  0.2070707E+00  0.0000000E+00  0.3535353E-01  0.1548968E-04  0.0000000E+00  0.7748627E-04
  0.2171717E+00  0.0000000E+00  0.3535353E-01  0.1670269E-04  0.0000000E+00  0.8214531E-04
  0.2272727E+00  0.0000000E+00  0.3535353E-01  0.1799793E-04  0.0000000E+00  0.8716758E-04
  0.2373737E+00  0.0000000E+00  0.3535353E-01  0.1938470E-04  0.0000000E+00  0.9257792E-04
  0.2474747E+00  0.0000000E+00  0.3535353E-01  0.2087375E-04  0.0000000E+00  0.9840385E-04
  0.2575758E+00  0.0000000E+00  0.3535353E-01  0.2247770E-04  0.0000000E+00  0.1046760E-03
  0.2676768E+00  0.0000000E+00  0.3535353E-01  0.2421147E-04  0.0000000E+00  0.1114286E-03
  0.2777778E+00  0.0000000E+00  0.3535353E-01  0.2609296E-04  0.0000000E+00  0.1187001E-03
  0.2878788E+00  0.0000000E+00  0.3535353E-01  0.2814382E-04  0.0000000E+00  0.1265337E-03
  0.2979798E+00  0.0000000E+00  0.3535353E-01  0.3039057E-04  0.0000000E+00  0.1349785E-03