title = "dataset water"
variables = "x", "y", "z", "vx", "vy", "vz"
zone t = "velocities, solution time =  3.400E+01 days        " i =   99, j =   99, k =    1,  f=point
  0.5050505E-02  0.0000000E+00  0.5050505E-02  0.1455367E-07  0.0000000E+00  0.7997588E-05
  0.1515152E-01  0.0000000E+00  0.5050505E-02  0.4370774E-07  0.0000000E+00  0.8056076E-05
  0.2525252E-01  0.0000000E+00  0.5050505E-02  0.7300240E-07  0.0000000E+00  0.8173243E-05
  0.3535353E-01  0.0000000E+00  0.5050505E-02  0.1025322E-06  0.0000000E+00  0.8349467E-05
  0.4545455E-01  0.0000000E+00  0.5050505E-02  0.1323929E-06  0.0000000E+00  0.8585320E-05
  0.5555556E-01  0.0000000E+00  0.5050505E-02  0.1626814E-06  0.0000000E+00  0.8881567E-05
  0.6565657E-01  0.0000000E+00  0.5050505E-02  0.1934968E-06  0.0000000E+00  0.9239175E-05
  0.7575758E-01  0.0000000E+00  0.5050505E-02  0.2249403E-06  0.0000000E+00  0.9659310E-05
  0.8585858E-01  0.0000000E+00  0.5050505E-02  0.2571159E-06  0.0000000E+00  0.1014335E-04
  0.9595960E-01  0.0000000E+00  0.5050505E-02  0.2901308E-06  0.0000000E+00  0.1069288E-04
  0.1060606E+00  0.0000000E+00  0.5050505E-02  0.3240964E-06  0.0000000E+00  0.1130971E-04
  0.1161616E+00  0.0000000E+00  0.5050505E-02  0.3591283E-06  0.0000000E+00  0.1199588E-04
  0.1262626E+00  0.0000000E+00  0.5050505E-02  0.3953475E-06  0.0000000E+00  0.1275367E-04
  0.1363636E+00  0.0000000E+00  0.5050505E-02  0.4328814E-06  0.0000000E+00  0.1358562E-04
  0.1464646E+00  0.0000000E+00  0.5050505E-02  0.4718643E-06  0.0000000E+00  0.1449452E-04
  0.1565657E+00  0.0000000E+00  0.5050505E-02  0.5124393E-06  0.0000000E+00  0.1548345E-04
  0.1666667E+00  0.0000000E+00  0.5050505E-02  0.5547594E-06  0.0000000E+00  0.1655580E-04
  0.1767677E+00  0.0000000E+00  0.5050505E-02  0.5989894E-06  0.0000000E+00  0.1771527E-04
  0.1868687E+00  0.0000000E+00  0.5050505E-02  0.6453087E-06  0.0000000E+00  0.1896592E-04
  0.1969697E+00  0.0000000E+00  0.5050505E-02  0.6939136E-06  0.0000000E+00  0.2031218E-04
  0.2070707E+00  0.0000000E+00  0.5050505E-02  0.7450219E-06  0.0000000E+00  0.2175891E-04
  0.2171717E+00  0.0000000E+00  0.5050505E-02  0.7988770E-06  0.0000000E+00  0.2331145E-04
  0.2272727E+00  0.0000000E+00  0.5050505E-02  0.8557547E-06  0.0000000E+00  0.2497567E-04
  0.2373737E+00  0.0000000E+00  0.5050505E-02  0.9159716E-06  0.0000000E+00  0.2675802E-04
  0.2474747E+00  0.0000000E+00  0.5050505E-02  0.9798951E-06  0.0000000E+00  0.2866566E-04
  0.2575758E+00  0.0000000E+00  0.5050505E-02  0.1047959E-05  0.0000000E+00  0.3070660E-04
  0.2676768E+00  0.0000000E+00  0.5050505E-02  0.1120681E-05  0.0000000E+00  0.3288977E-04
  0.2777778E+00  0.0000000E+00  0.5050505E-02  0.1198691E-05  0.0000000E+00  0.3522531E-04
  0.2878788E+00  0.0000000E+00  0.5050505E-02  0.1282762E-05  0.0000000E+00  0.3772478E-04
  0.2979798E+00  0.0000000E+00  0.5050505E-02  0.1373863E-05  0.0000000E+00  0.4040150E-04
  0.3080808E+00  0.0000000E+00  0.5050505E-02  0.1473222E-05  0.0000000E+00  0.4327107E-04
  0.3181818E+00  0.0000000E+00  0.5050505E-02  0.1582425E-05  0.0000000E+00  0.4635194E-04
  0.3282828E+00  0.0000000E+00  0.5050505E-02  0.1703551E-05  0.0000000E+00  0.4966628E-04
  0.3383838E+00  0.0000000E+00  0.5050505E-02  0.1839376E-05  0.0000000E+00  0.5324124E-04
  0.3484848E+00  0.0000000E+00  0.5050505E-02  0.1993688E-05  0.0000000E+00  0.5711066E-04
  0.3585859E+00  0.0000000E+00  0.5050505E-02  0.2171773E-05  0.0000000E+00  0.6131762E-04
  0.3686869E+00  0.0000000E+00  0.5050505E-02  0.2381224E-05  0.0000000E+00  0.6591835E-04
  0.3787879E+00  0.0000000E+00  0.5050505E-02  0.2633322E-05  0.0000000E+00  0.7098833E-04
  0.3888889E+00  0.0000000E+00  0.5050505E-02  0.2945569E-05  0.0000000E+00  0.7663240E-04
  0.3989899E+00  0.0000000E+00  0.5050505E-02  0.3346632E-05  0.0000000E+00  0.8300254E-04
  0.4090909E+00  0.0000000E+00  0.5050505E-02  0.3886889E-05  0.0000000E+00  0.9033142E-04
  0.4191919E+00  0.0000000E+00  0.5050505E-02  0.4663113E-05  0.0000000E+00  0.9900199E-04
  0.4292929E+00  0.0000000E+00  0.5050505E-02  0.5882489E-05  0.0000000E+00  0.1097079E-03
  0.4393939E+00  0.0000000E+00  0.5050505E-02  0.8046317E-05  0.0000000E+00  0.1238675E-03
  0.4494950E+00  0.0000000E+00  0.5050505E-02  0.1252920E-04  0.0000000E+00  0.1448223E-03
  0.4595959E+00  0.0000000E+00  0.5050505E-02  0.2356381E-04  0.0000000E+00  0.1816842E-03
  0.4696970E+00  0.0000000E+00  0.5050505E-02 -0.1209992E-04  0.0000000E+00  0.1933697E-03
  0.4797980E+00  0.0000000E+00  0.5050505E-02 -0.1003368E-04  0.0000000E+00  0.1707014E-03
  0.4898990E+00  0.0000000E+00  0.5050505E-02 -0.7842513E-05  0.0000000E+00  0.1524341E-03
  0.5000000E+00  0.0000000E+00  0.5050505E-02 -0.6261106E-05  0.0000000E+00  0.1380475E-03
  0.5101010E+00  0.0000000E+00  0.5050505E-02 -0.5198218E-05  0.0000000E+00  0.1263752E-03
  0.5202020E+00  0.0000000E+00  0.5050505E-02 -0.4470743E-05  0.0000000E+00  0.1165385E-03
  0.5303030E+00  0.0000000E+00  0.5050505E-02 -0.3946533E-05  0.0000000E+00  0.1079842E-03
  0.5404040E+00  0.0000000E+00  0.5050505E-02 -0.3546557E-05  0.0000000E+00  0.1003763E-03
  0.5505050E+00  0.0000000E+00  0.5050505E-02 -0.3225893E-05  0.0000000E+00  0.9350588E-04
  0.5606061E+00  0.0000000E+00  0.5050505E-02 -0.2958847E-05  0.0000000E+00  0.8723646E-04
  0.5707071E+00  0.0000000E+00  0.5050505E-02 -0.2730163E-05  0.0000000E+00  0.8147364E-04
  0.5808081E+00  0.0000000E+00  0.5050505E-02 -0.2530303E-05  0.0000000E+00  0.7614838E-04
  0.5909091E+00  0.0000000E+00  0.5050505E-02 -0.2352964E-05  0.0000000E+00  0.7120797E-04
  0.6010101E+00  0.0000000E+00  0.5050505E-02 -0.2193764E-05  0.0000000E+00  0.6661061E-04
  0.6111111E+00  0.0000000E+00  0.5050505E-02 -0.2049524E-05  0.0000000E+00  0.6232233E-04
  0.6212121E+00  0.0000000E+00  0.5050505E-02 -0.1917859E-05  0.0000000E+00  0.5831484E-04
  0.6313131E+00  0.0000000E+00  0.5050505E-02 -0.1796931E-05  0.0000000E+00  0.5456422E-04
  0.6414142E+00  0.0000000E+00  0.5050505E-02 -0.1685293E-05  0.0000000E+00  0.5104992E-04
  0.6515151E+00  0.0000000E+00  0.5050505E-02 -0.1581786E-05  0.0000000E+00  0.4775407E-04
  0.6616161E+00  0.0000000E+00  0.5050505E-02 -0.1485465E-05  0.0000000E+00  0.4466099E-04
  0.6717172E+00  0.0000000E+00  0.5050505E-02 -0.1395551E-05  0.0000000E+00  0.4175674E-04
  0.6818182E+00  0.0000000E+00  0.5050505E-02 -0.1311392E-05  0.0000000E+00  0.3902888E-04
  0.6919192E+00  0.0000000E+00  0.5050505E-02 -0.1232435E-05  0.0000000E+00  0.3646620E-04
  0.7020202E+00  0.0000000E+00  0.5050505E-02 -0.1158207E-05  0.0000000E+00  0.3405855E-04
  0.7121212E+00  0.0000000E+00  0.5050505E-02 -0.1088296E-05  0.0000000E+00  0.3179669E-04
  0.7222222E+00  0.0000000E+00  0.5050505E-02 -0.1022341E-05  0.0000000E+00  0.2967218E-04
  0.7323232E+00  0.0000000E+00  0.5050505E-02 -0.9600246E-06  0.0000000E+00  0.2767727E-04
  0.7424242E+00  0.0000000E+00  0.5050505E-02 -0.9010601E-06  0.0000000E+00  0.2580484E-04
  0.7525253E+00  0.0000000E+00  0.5050505E-02 -0.8451913E-06  0.0000000E+00  0.2404831E-04
  0.7626263E+00  0.0000000E+00  0.5050505E-02 -0.7921849E-06  0.0000000E+00  0.2240164E-04
  0.7727273E+00  0.0000000E+00  0.5050505E-02 -0.7418282E-06  0.0000000E+00  0.2085921E-04
  0.7828283E+00  0.0000000E+00  0.5050505E-02 -0.6939256E-06  0.0000000E+00  0.1941583E-04
  0.7929293E+00  0.0000000E+00  0.5050505E-02 -0.6482964E-06  0.0000000E+00  0.1806670E-04
  0.8030303E+00  0.0000000E+00  0.5050505E-02 -0.6047733E-06  0.0000000E+00  0.1680738E-04
  0.8131313E+00  0.0000000E+00  0.5050505E-02 -0.5631999E-06  0.0000000E+00  0.1563375E-04
  0.8232324E+00  0.0000000E+00  0.5050505E-02 -0.5234301E-06  0.0000000E+00  0.1454200E-04
  0.8333333E+00  0.0000000E+00  0.5050505E-02 -0.4853268E-06  0.0000000E+00  0.1352862E-04
  0.8434343E+00  0.0000000E+00  0.5050505E-02 -0.4487604E-06  0.0000000E+00  0.1259036E-04
  0.8535354E+00  0.0000000E+00  0.5050505E-02 -0.4136087E-06  0.0000000E+00  0.1172423E-04
  0.8636364E+00  0.0000000E+00  0.5050505E-02 -0.3797555E-06  0.0000000E+00  0.1092748E-04
  0.8737374E+00  0.0000000E+00  0.5050505E-02 -0.3470903E-06  0.0000000E+00  0.1019760E-04
  0.8838384E+00  0.0000000E+00  0.5050505E-02 -0.3155073E-06  0.0000000E+00  0.9532287E-05
  0.8939394E+00  0.0000000E+00  0.5050505E-02 -0.2849055E-06  0.0000000E+00  0.8929460E-05
  0.9040404E+00  0.0000000E+00  0.5050505E-02 -0.2551874E-06  0.0000000E+00  0.8387233E-05
  0.9141414E+00  0.0000000E+00  0.5050505E-02 -0.2262591E-06  0.0000000E+00  0.7903912E-05
  0.9242424E+00  0.0000000E+00  0.5050505E-02 -0.1980299E-06  0.0000000E+00  0.7477993E-05
  0.9343435E+00  0.0000000E+00  0.5050505E-02 -0.1704114E-06  0.0000000E+00  0.7108153E-05
  0.9444444E+00  0.0000000E+00  0.5050505E-02 -0.1433177E-06  0.0000000E+00  0.6793246E-05
  0.9545454E+00  0.0000000E+00  0.5050505E-02 -0.1166648E-06  0.0000000E+00  0.6532295E-05
  0.9646465E+00  0.0000000E+00  0.5050505E-02 -0.9037035E-07  0.0000000E+00  0.6324494E-05
  0.9747475E+00  0.0000000E+00  0.5050505E-02 -0.6435319E-07  0.0000000E+00  0.6169201E-05
  0.9848485E+00  0.0000000E+00  0.5050505E-02 -0.3853328E-07  0.0000000E+00  0.6065937E-05
  0.9974747E+00  0.0000000E+00  0.5050505E-02 -0.1283135E-07  0.0000000E+00  0.6014384E-05
  0.5050505E-02  0.0000000E+00  0.1515152E-01  0.4364880E-07  0.0000000E+00  0.8028848E-05
  0.1515152E-01  0.0000000E+00  0.1515152E-01  0.1310867E-06  0.0000000E+00  0.8087458E-05
  0.2525252E-01  0.0000000E+00  0.1515152E-01  0.2189466E-06  0.0000000E+00  0.8204867E-05
  0.3535353E-01  0.0000000E+00  0.1515152E-01  0.3075122E-06  0.0000000E+00  0.8381454E-05
  0.4545455E-01  0.0000000E+00  0.1515152E-01  0.3970704E-06  0.0000000E+00  0.8617792E-05
  0.5555556E-01  0.0000000E+00  0.1515152E-01  0.4879125E-06  0.0000000E+00  0.8914651E-05
  0.6565657E-01  0.0000000E+00  0.1515152E-01  0.5803352E-06  0.0000000E+00  0.9272995E-05
  0.7575758E-01  0.0000000E+00  0.1515152E-01  0.6746421E-06  0.0000000E+00  0.9693996E-05
  0.8585858E-01  0.0000000E+00  0.1515152E-01  0.7711452E-06  0.0000000E+00  0.1017903E-04
  0.9595960E-01  0.0000000E+00  0.1515152E-01  0.8701662E-06  0.0000000E+00  0.1072969E-04
  0.1060606E+00  0.0000000E+00  0.1515152E-01  0.9720384E-06  0.0000000E+00  0.1134779E-04
  0.1161616E+00  0.0000000E+00  0.1515152E-01  0.1077109E-05  0.0000000E+00  0.1203537E-04
  0.1262626E+00  0.0000000E+00  0.1515152E-01  0.1185740E-05  0.0000000E+00  0.1279472E-04
  0.1363636E+00  0.0000000E+00  0.1515152E-01  0.1298313E-05  0.0000000E+00  0.1362837E-04
  0.1464646E+00  0.0000000E+00  0.1515152E-01  0.1415231E-05  0.0000000E+00  0.1453912E-04
  0.1565657E+00  0.0000000E+00  0.1515152E-01  0.1536922E-05  0.0000000E+00  0.1553005E-04
  0.1666667E+00  0.0000000E+00  0.1515152E-01  0.1663842E-05  0.0000000E+00  0.1660455E-04
  0.1767677E+00  0.0000000E+00  0.1515152E-01  0.1796486E-05  0.0000000E+00  0.1776631E-04
  0.1868687E+00  0.0000000E+00  0.1515152E-01  0.1935388E-05  0.0000000E+00  0.1901938E-04
  0.1969697E+00  0.0000000E+00  0.1515152E-01  0.2081134E-05  0.0000000E+00  0.2036819E-04
  0.2070707E+00  0.0000000E+00  0.1515152E-01  0.2234374E-05  0.0000000E+00  0.2181759E-04
  0.2171717E+00  0.0000000E+00  0.1515152E-01  0.2395831E-05  0.0000000E+00  0.2337286E-04
  0.2272727E+00  0.0000000E+00  0.1515152E-01  0.2566326E-05  0.0000000E+00  0.2503985E-04
  0.2373737E+00  0.0000000E+00  0.1515152E-01  0.2746797E-05  0.0000000E+00  0.2682494E-04
  0.2474747E+00  0.0000000E+00  0.1515152E-01  0.2938334E-05  0.0000000E+00  0.2873523E-04
  0.2575758E+00  0.0000000E+00  0.1515152E-01  0.3142219E-05  0.0000000E+00  0.3077859E-04
  0.2676768E+00  0.0000000E+00  0.1515152E-01  0.3359980E-05  0.0000000E+00  0.3296382E-04
  0.2777778E+00  0.0000000E+00  0.1515152E-01  0.3593471E-05  0.0000000E+00  0.3530083E-04
  0.2878788E+00  0.0000000E+00  0.1515152E-01  0.3844967E-05  0.0000000E+00  0.3780089E-04
  0.2979798E+00  0.0000000E+00  0.1515152E-01  0.4117306E-05  0.0000000E+00  0.4047693E-04
  0.3080808E+00  0.0000000E+00  0.1515152E-01  0.4414080E-05  0.0000000E+00  0.4334397E-04
  0.3181818E+00  0.0000000E+00  0.1515152E-01  0.4739909E-05  0.0000000E+00  0.4641966E-04
  0.3282828E+00  0.0000000E+00  0.1515152E-01  0.5100827E-05  0.0000000E+00  0.4972507E-04
  0.3383838E+00  0.0000000E+00  0.1515152E-01  0.5504860E-05  0.0000000E+00  0.5328569E-04
  0.3484848E+00  0.0000000E+00  0.1515152E-01  0.5962883E-05  0.0000000E+00  0.5713293E-04
  0.3585859E+00  0.0000000E+00  0.1515152E-01  0.6489964E-05  0.0000000E+00  0.6130618E-04
  0.3686869E+00  0.0000000E+00  0.1515152E-01  0.7107515E-05  0.0000000E+00  0.6585577E-04
  0.3787879E+00  0.0000000E+00  0.1515152E-01  0.7846895E-05  0.0000000E+00  0.7084741E-04
  0.3888889E+00  0.0000000E+00  0.1515152E-01  0.8755740E-05  0.0000000E+00  0.7636872E-04
  0.3989899E+00  0.0000000E+00  0.1515152E-01  0.9909702E-05  0.0000000E+00  0.8253904E-04
  0.4090909E+00  0.0000000E+00  0.1515152E-01  0.1143568E-04  0.0000000E+00  0.8952328E-04
  0.4191919E+00  0.0000000E+00  0.1515152E-01  0.1356118E-04  0.0000000E+00  0.9754813E-04
  0.4292929E+00  0.0000000E+00  0.1515152E-01  0.1672769E-04  0.0000000E+00  0.1069037E-03
  0.4393939E+00  0.0000000E+00  0.1515152E-01  0.2187191E-04  0.0000000E+00  0.1178430E-03
  0.4494950E+00  0.0000000E+00  0.1515152E-01  0.3117676E-04  0.0000000E+00  0.1299809E-03
  0.4595959E+00  0.0000000E+00  0.1515152E-01  0.5020815E-04  0.0000000E+00  0.1394236E-03
  0.4696970E+00  0.0000000E+00  0.1515152E-01 -0.7046771E-05  0.0000000E+00  0.1601068E-03
  0.4797980E+00  0.0000000E+00  0.1515152E-01 -0.3023831E-04  0.0000000E+00  0.1671909E-03
  0.4898990E+00  0.0000000E+00  0.1515152E-01 -0.2293807E-04  0.0000000E+00  0.1493735E-03
  0.5000000E+00  0.0000000E+00  0.1515152E-01 -0.1828022E-04  0.0000000E+00  0.1360830E-03
  0.5101010E+00  0.0000000E+00  0.1515152E-01 -0.1527049E-04  0.0000000E+00  0.1252342E-03
  0.5202020E+00  0.0000000E+00  0.1515152E-01 -0.1321800E-04  0.0000000E+00  0.1159066E-03
  0.5303030E+00  0.0000000E+00  0.1515152E-01 -0.1172344E-04  0.0000000E+00  0.1076506E-03
  0.5404040E+00  0.0000000E+00  0.1515152E-01 -0.1056804E-04  0.0000000E+00  0.1002174E-03
  0.5505050E+00  0.0000000E+00  0.1515152E-01 -0.9631553E-05  0.0000000E+00  0.9345135E-04
  0.5606061E+00  0.0000000E+00  0.1515152E-01 -0.8845498E-05  0.0000000E+00  0.8724606E-04
  0.5707071E+00  0.0000000E+00  0.1515152E-01 -0.8168778E-05  0.0000000E+00  0.8152342E-04
  0.5808081E+00  0.0000000E+00  0.1515152E-01 -0.7575245E-05  0.0000000E+00  0.7622353E-04
  0.5909091E+00  0.0000000E+00  0.1515152E-01 -0.7047313E-05  0.0000000E+00  0.7129891E-04
  0.6010101E+00  0.0000000E+00  0.1515152E-01 -0.6572566E-05  0.0000000E+00  0.6671099E-04
  0.6111111E+00  0.0000000E+00  0.1515152E-01 -0.6141892E-05  0.0000000E+00  0.6242779E-04
  0.6212121E+00  0.0000000E+00  0.1515152E-01 -0.5748393E-05  0.0000000E+00  0.5842238E-04
  0.6313131E+00  0.0000000E+00  0.1515152E-01 -0.5386720E-05  0.0000000E+00  0.5467174E-04
  0.6414142E+00  0.0000000E+00  0.1515152E-01 -0.5052639E-05  0.0000000E+00  0.5115596E-04
  0.6515151E+00  0.0000000E+00  0.1515152E-01 -0.4742747E-05  0.0000000E+00  0.4785764E-04
  0.6616161E+00  0.0000000E+00  0.1515152E-01 -0.4454265E-05  0.0000000E+00  0.4476140E-04
  0.6717172E+00  0.0000000E+00  0.1515152E-01 -0.4184893E-05  0.0000000E+00  0.4185357E-04
  0.6818182E+00  0.0000000E+00  0.1515152E-01 -0.3932701E-05  0.0000000E+00  0.3912188E-04
  0.6919192E+00  0.0000000E+00  0.1515152E-01 -0.3696053E-05  0.0000000E+00  0.3655524E-04
  0.7020202E+00  0.0000000E+00  0.1515152E-01 -0.3473543E-05  0.0000000E+00  0.3414359E-04
  0.7121212E+00  0.0000000E+00  0.1515152E-01 -0.3263948E-05  0.0000000E+00  0.3187777E-04
  0.7222222E+00  0.0000000E+00  0.1515152E-01 -0.3066195E-05  0.0000000E+00  0.2974938E-04
  0.7323232E+00  0.0000000E+00  0.1515152E-01 -0.2879335E-05  0.0000000E+00  0.2775070E-04
  0.7424242E+00  0.0000000E+00  0.1515152E-01 -0.2702515E-05  0.0000000E+00  0.2587464E-04
  0.7525253E+00  0.0000000E+00  0.1515152E-01 -0.2534969E-05  0.0000000E+00  0.2411465E-04
  0.7626263E+00  0.0000000E+00  0.1515152E-01 -0.2376002E-05  0.0000000E+00  0.2246466E-04
  0.7727273E+00  0.0000000E+00  0.1515152E-01 -0.2224976E-05  0.0000000E+00  0.2091909E-04
  0.7828283E+00  0.0000000E+00  0.1515152E-01 -0.2081306E-05  0.0000000E+00  0.1947274E-04
  0.7929293E+00  0.0000000E+00  0.1515152E-01 -0.1944453E-05  0.0000000E+00  0.1812082E-04
  0.8030303E+00  0.0000000E+00  0.1515152E-01 -0.1813913E-05  0.0000000E+00  0.1685887E-04
  0.8131313E+00  0.0000000E+00  0.1515152E-01 -0.1689221E-05  0.0000000E+00  0.1568278E-04
  0.8232324E+00  0.0000000E+00  0.1515152E-01 -0.1569937E-05  0.0000000E+00  0.1458873E-04
  0.8333333E+00  0.0000000E+00  0.1515152E-01 -0.1455651E-05  0.0000000E+00  0.1357321E-04
  0.8434343E+00  0.0000000E+00  0.1515152E-01 -0.1345974E-05  0.0000000E+00  0.1263296E-04
  0.8535354E+00  0.0000000E+00  0.1515152E-01 -0.1240540E-05  0.0000000E+00  0.1176499E-04
  0.8636364E+00  0.0000000E+00  0.1515152E-01 -0.1139002E-05  0.0000000E+00  0.1096656E-04
  0.8737374E+00  0.0000000E+00  0.1515152E-01 -0.1041026E-05  0.0000000E+00  0.1023513E-04
  0.8838384E+00  0.0000000E+00  0.1515152E-01 -0.9462972E-06  0.0000000E+00  0.9568407E-05
  0.8939394E+00  0.0000000E+00  0.1515152E-01 -0.8545112E-06  0.0000000E+00  0.8964302E-05
  0.9040404E+00  0.0000000E+00  0.1515152E-01 -0.7653762E-06  0.0000000E+00  0.8420925E-05
  0.9141414E+00  0.0000000E+00  0.1515152E-01 -0.6786108E-06  0.0000000E+00  0.7936580E-05
  0.9242424E+00  0.0000000E+00  0.1515152E-01 -0.5939423E-06  0.0000000E+00  0.7509759E-05
  0.9343435E+00  0.0000000E+00  0.1515152E-01 -0.5111061E-06  0.0000000E+00  0.7139137E-05
  0.9444444E+00  0.0000000E+00  0.1515152E-01 -0.4298444E-06  0.0000000E+00  0.6823562E-05
  0.9545454E+00  0.0000000E+00  0.1515152E-01 -0.3499052E-06  0.0000000E+00  0.6562059E-05
  0.9646465E+00  0.0000000E+00  0.1515152E-01 -0.2710414E-06  0.0000000E+00  0.6353819E-05
  0.9747475E+00  0.0000000E+00  0.1515152E-01 -0.1930096E-06  0.0000000E+00  0.6198197E-05
  0.9848485E+00  0.0000000E+00  0.1515152E-01 -0.1155697E-06  0.0000000E+00  0.6094714E-05
  0.9974747E+00  0.0000000E+00  0.1515152E-01 -0.3848399E-07  0.0000000E+00  0.6043053E-05
  0.5050505E-02  0.0000000E+00  0.2525252E-01  0.7274988E-07  0.0000000E+00  0.8091529E-05
  0.1515152E-01  0.0000000E+00  0.2525252E-01  0.2184838E-06  0.0000000E+00  0.8150382E-05
  0.2525252E-01  0.0000000E+00  0.2525252E-01  0.3649218E-06  0.0000000E+00  0.8268275E-05
  0.3535353E-01  0.0000000E+00  0.2525252E-01  0.5125369E-06  0.0000000E+00  0.8445592E-05
  0.4545455E-01  0.0000000E+00  0.2525252E-01  0.6618076E-06  0.0000000E+00  0.8682907E-05
  0.5555556E-01  0.0000000E+00  0.2525252E-01  0.8132194E-06  0.0000000E+00  0.8980991E-05
  0.6565657E-01  0.0000000E+00  0.2525252E-01  0.9672670E-06  0.0000000E+00  0.9340817E-05
  0.7575758E-01  0.0000000E+00  0.2525252E-01  0.1124456E-05  0.0000000E+00  0.9763558E-05
  0.8585858E-01  0.0000000E+00  0.2525252E-01  0.1285307E-05  0.0000000E+00  0.1025060E-04
  0.9595960E-01  0.0000000E+00  0.2525252E-01  0.1450356E-05  0.0000000E+00  0.1080353E-04
  0.1060606E+00  0.0000000E+00  0.2525252E-01  0.1620157E-05  0.0000000E+00  0.1142419E-04
  0.1161616E+00  0.0000000E+00  0.2525252E-01  0.1795288E-05  0.0000000E+00  0.1211461E-04
  0.1262626E+00  0.0000000E+00  0.2525252E-01  0.1976352E-05  0.0000000E+00  0.1287709E-04
  0.1363636E+00  0.0000000E+00  0.2525252E-01  0.2163984E-05  0.0000000E+00  0.1371417E-04
  0.1464646E+00  0.0000000E+00  0.2525252E-01  0.2358852E-05  0.0000000E+00  0.1462865E-04
  0.1565657E+00  0.0000000E+00  0.2525252E-01  0.2561666E-05  0.0000000E+00  0.1562362E-04
  0.1666667E+00  0.0000000E+00  0.2525252E-01  0.2773185E-05  0.0000000E+00  0.1670245E-04
  0.1767677E+00  0.0000000E+00  0.2525252E-01  0.2994225E-05  0.0000000E+00  0.1786884E-04
  0.1868687E+00  0.0000000E+00  0.2525252E-01  0.3225670E-05  0.0000000E+00  0.1912684E-04
  0.1969697E+00  0.0000000E+00  0.2525252E-01  0.3468487E-05  0.0000000E+00  0.2048083E-04
  0.2070707E+00  0.0000000E+00  0.2525252E-01  0.3723743E-05  0.0000000E+00  0.2193563E-04
  0.2171717E+00  0.0000000E+00  0.2525252E-01  0.3992627E-05  0.0000000E+00  0.2349648E-04
  0.2272727E+00  0.0000000E+00  0.2525252E-01  0.4276483E-05  0.0000000E+00  0.2516914E-04
  0.2373737E+00  0.0000000E+00  0.2525252E-01  0.4576840E-05  0.0000000E+00  0.2695990E-04
  0.2474747E+00  0.0000000E+00  0.2525252E-01  0.4895473E-05  0.0000000E+00  0.2887569E-04
  0.2575758E+00  0.0000000E+00  0.2525252E-01  0.5234456E-05  0.0000000E+00  0.3092416E-04
  0.2676768E+00  0.0000000E+00  0.2525252E-01  0.5596259E-05  0.0000000E+00  0.3311384E-04
  0.2777778E+00  0.0000000E+00  0.2525252E-01  0.5983860E-05  0.0000000E+00  0.3545422E-04
  0.2878788E+00  0.0000000E+00  0.2525252E-01  0.6400900E-05  0.0000000E+00  0.3795602E-04
  0.2979798E+00  0.0000000E+00  0.2525252E-01  0.6851899E-05  0.0000000E+00  0.4063141E-04
  0.3080808E+00  0.0000000E+00  0.2525252E-01  0.7342549E-05  0.0000000E+00  0.4349435E-04
  0.3181818E+00  0.0000000E+00  0.2525252E-01  0.7880119E-05  0.0000000E+00  0.4656102E-04
  0.3282828E+00  0.0000000E+00  0.2525252E-01  0.8474038E-05  0.0000000E+00  0.4985040E-04
  0.3383838E+00  0.0000000E+00  0.2525252E-01  0.9136732E-05  0.0000000E+00  0.5338500E-04
  0.3484848E+00  0.0000000E+00  0.2525252E-01  0.9884850E-05  0.0000000E+00  0.5719186E-04
  0.3585859E+00  0.0000000E+00  0.2525252E-01  0.1074112E-04  0.0000000E+00  0.6130379E-04
  0.3686869E+00  0.0000000E+00  0.2525252E-01  0.1173725E-04  0.0000000E+00  0.6576107E-04
  0.3787879E+00  0.0000000E+00  0.2525252E-01  0.1291844E-04  0.0000000E+00  0.7061333E-04
  0.3888889E+00  0.0000000E+00  0.2525252E-01  0.1435093E-04  0.0000000E+00  0.7592162E-04
  0.3989899E+00  0.0000000E+00  0.2525252E-01  0.1613457E-04  0.0000000E+00  0.8175927E-04
  0.4090909E+00  0.0000000E+00  0.2525252E-01  0.1842431E-04  0.0000000E+00  0.8820799E-04
  0.4191919E+00  0.0000000E+00  0.2525252E-01  0.2146724E-04  0.0000000E+00  0.9533751E-04
  0.4292929E+00  0.0000000E+00  0.2525252E-01  0.2566340E-04  0.0000000E+00  0.1031345E-03
  0.4393939E+00  0.0000000E+00  0.2525252E-01  0.3164930E-04  0.0000000E+00  0.1112800E-03
  0.4494950E+00  0.0000000E+00  0.2525252E-01  0.4032551E-04  0.0000000E+00  0.1184943E-03
  0.4595959E+00  0.0000000E+00  0.2525252E-01  0.5234144E-04  0.0000000E+00  0.1207382E-03
  0.4696970E+00  0.0000000E+00  0.2525252E-01  0.3091761E-04  0.0000000E+00  0.1410353E-03
  0.4797980E+00  0.0000000E+00  0.2525252E-01 -0.4732707E-04  0.0000000E+00  0.1551199E-03
  0.4898990E+00  0.0000000E+00  0.2525252E-01 -0.3547091E-04  0.0000000E+00  0.1426160E-03
  0.5000000E+00  0.0000000E+00  0.2525252E-01 -0.2870647E-04  0.0000000E+00  0.1324259E-03
  0.5101010E+00  0.0000000E+00  0.2525252E-01 -0.2442709E-04  0.0000000E+00  0.1232692E-03
  0.5202020E+00  0.0000000E+00  0.2525252E-01 -0.2144247E-04  0.0000000E+00  0.1148594E-03
  0.5303030E+00  0.0000000E+00  0.2525252E-01 -0.1919350E-04  0.0000000E+00  0.1071143E-03
  0.5404040E+00  0.0000000E+00  0.2525252E-01 -0.1740158E-04  0.0000000E+00  0.9997699E-04
  0.5505050E+00  0.0000000E+00  0.2525252E-01 -0.1591683E-04  0.0000000E+00  0.9338961E-04
  0.5606061E+00  0.0000000E+00  0.2525252E-01 -0.1465195E-04  0.0000000E+00  0.8729560E-04
  0.5707071E+00  0.0000000E+00  0.2525252E-01 -0.1355229E-04  0.0000000E+00  0.8164354E-04
  0.5808081E+00  0.0000000E+00  0.2525252E-01 -0.1258150E-04  0.0000000E+00  0.7638845E-04
  0.5909091E+00  0.0000000E+00  0.2525252E-01 -0.1171411E-04  0.0000000E+00  0.7149167E-04
  0.6010101E+00  0.0000000E+00  0.2525252E-01 -0.1093160E-04  0.0000000E+00  0.6692008E-04
  0.6111111E+00  0.0000000E+00  0.2525252E-01 -0.1022004E-04  0.0000000E+00  0.6264527E-04
  0.6212121E+00  0.0000000E+00  0.2525252E-01 -0.9568728E-05  0.0000000E+00  0.5864271E-04
  0.6313131E+00  0.0000000E+00  0.2525252E-01 -0.8969247E-05  0.0000000E+00  0.5489105E-04
  0.6414142E+00  0.0000000E+00  0.2525252E-01 -0.8414883E-05  0.0000000E+00  0.5137157E-04
  0.6515151E+00  0.0000000E+00  0.2525252E-01 -0.7900197E-05  0.0000000E+00  0.4806770E-04
  0.6616161E+00  0.0000000E+00  0.2525252E-01 -0.7420725E-05  0.0000000E+00  0.4496470E-04
  0.6717172E+00  0.0000000E+00  0.2525252E-01 -0.6972755E-05  0.0000000E+00  0.4204934E-04
  0.6818182E+00  0.0000000E+00  0.2525252E-01 -0.6553160E-05  0.0000000E+00  0.3930967E-04
  0.6919192E+00  0.0000000E+00  0.2525252E-01 -0.6159277E-05  0.0000000E+00  0.3673485E-04
  0.7020202E+00  0.0000000E+00  0.2525252E-01 -0.5788812E-05  0.0000000E+00  0.3431500E-04
  0.7121212E+00  0.0000000E+00  0.2525252E-01 -0.5439764E-05  0.0000000E+00  0.3204108E-04
  0.7222222E+00  0.0000000E+00  0.2525252E-01 -0.5110372E-05  0.0000000E+00  0.2990478E-04
  0.7323232E+00  0.0000000E+00  0.2525252E-01 -0.4799072E-05  0.0000000E+00  0.2789845E-04
  0.7424242E+00  0.0000000E+00  0.2525252E-01 -0.4504461E-05  0.0000000E+00  0.2601503E-04
  0.7525253E+00  0.0000000E+00  0.2525252E-01 -0.4225275E-05  0.0000000E+00  0.2424800E-04
  0.7626263E+00  0.0000000E+00  0.2525252E-01 -0.3960359E-05  0.0000000E+00  0.2259132E-04
  0.7727273E+00  0.0000000E+00  0.2525252E-01 -0.3708662E-05  0.0000000E+00  0.2103940E-04
  0.7828283E+00  0.0000000E+00  0.2525252E-01 -0.3469212E-05  0.0000000E+00  0.1958705E-04
  0.7929293E+00  0.0000000E+00  0.2525252E-01 -0.3241113E-05  0.0000000E+00  0.1822948E-04
  0.8030303E+00  0.0000000E+00  0.2525252E-01 -0.3023531E-05  0.0000000E+00  0.1696223E-04
  0.8131313E+00  0.0000000E+00  0.2525252E-01 -0.2815689E-05  0.0000000E+00  0.1578118E-04
  0.8232324E+00  0.0000000E+00  0.2525252E-01 -0.2616860E-05  0.0000000E+00  0.1468250E-04
  0.8333333E+00  0.0000000E+00  0.2525252E-01 -0.2426358E-05  0.0000000E+00  0.1366267E-04
  0.8434343E+00  0.0000000E+00  0.2525252E-01 -0.2243538E-05  0.0000000E+00  0.1271843E-04
  0.8535354E+00  0.0000000E+00  0.2525252E-01 -0.2067791E-05  0.0000000E+00  0.1184677E-04
  0.8636364E+00  0.0000000E+00  0.2525252E-01 -0.1898535E-05  0.0000000E+00  0.1104493E-04
  0.8737374E+00  0.0000000E+00  0.2525252E-01 -0.1735219E-05  0.0000000E+00  0.1031039E-04
  0.8838384E+00  0.0000000E+00  0.2525252E-01 -0.1577316E-05  0.0000000E+00  0.9640835E-05
  0.8939394E+00  0.0000000E+00  0.2525252E-01 -0.1424318E-05  0.0000000E+00  0.9034161E-05
  0.9040404E+00  0.0000000E+00  0.2525252E-01 -0.1275741E-05  0.0000000E+00  0.8488474E-05
  0.9141414E+00  0.0000000E+00  0.2525252E-01 -0.1131114E-05  0.0000000E+00  0.8002072E-05
  0.9242424E+00  0.0000000E+00  0.2525252E-01 -0.9899843E-06  0.0000000E+00  0.7573439E-05
  0.9343435E+00  0.0000000E+00  0.2525252E-01 -0.8519095E-06  0.0000000E+00  0.7201244E-05
  0.9444444E+00  0.0000000E+00  0.2525252E-01 -0.7164603E-06  0.0000000E+00  0.6884331E-05
  0.9545454E+00  0.0000000E+00  0.2525252E-01 -0.5832166E-06  0.0000000E+00  0.6621719E-05
  0.9646465E+00  0.0000000E+00  0.2525252E-01 -0.4517662E-06  0.0000000E+00  0.6412596E-05
  0.9747475E+00  0.0000000E+00  0.2525252E-01 -0.3217036E-06  0.0000000E+00  0.6256314E-05
  0.9848485E+00  0.0000000E+00  0.2525252E-01 -0.1926284E-06  0.0000000E+00  0.6152393E-05
  0.9974747E+00  0.0000000E+00  0.2525252E-01 -0.6414396E-07  0.0000000E+00  0.6100512E-05
  0.5050505E-02  0.0000000E+00  0.3535353E-01  0.1019177E-06  0.0000000E+00  0.8185687E-05
  0.1515152E-01  0.0000000E+00  0.3535353E-01  0.3060815E-06  0.0000000E+00  0.8244903E-05
  0.2525252E-01  0.0000000E+00  0.3535353E-01  0.5112327E-06  0.0000000E+00  0.8363527E-05
  0.3535353E-01  0.0000000E+00  0.3535353E-01  0.7180345E-06  0.0000000E+00  0.8541942E-05
  0.4545455E-01  0.0000000E+00  0.3535353E-01  0.9271576E-06  0.0000000E+00  0.8780726E-05
  0.5555556E-01  0.0000000E+00  0.3535353E-01  0.1139282E-05  0.0000000E+00  0.9080657E-05
  0.6565657E-01  0.0000000E+00  0.3535353E-01  0.1355102E-05  0.0000000E+00  0.9442713E-05
  0.7575758E-01  0.0000000E+00  0.3535353E-01  0.1575325E-05  0.0000000E+00  0.9868076E-05
  0.8585858E-01  0.0000000E+00  0.3535353E-01  0.1800680E-05  0.0000000E+00  0.1035814E-04
  0.9595960E-01  0.0000000E+00  0.3535353E-01  0.2031917E-05  0.0000000E+00  0.1091451E-04
  0.1060606E+00  0.0000000E+00  0.3535353E-01  0.2269812E-05  0.0000000E+00  0.1153902E-04
  0.1161616E+00  0.0000000E+00  0.3535353E-01  0.2515173E-05  0.0000000E+00  0.1223373E-04
  0.1262626E+00  0.0000000E+00  0.3535353E-01  0.2768843E-05  0.0000000E+00  0.1300093E-04
  0.1363636E+00  0.0000000E+00  0.3535353E-01  0.3031707E-05  0.0000000E+00  0.1384319E-04
  0.1464646E+00  0.0000000E+00  0.3535353E-01  0.3304698E-05  0.0000000E+00  0.1476332E-04
  0.1565657E+00  0.0000000E+00  0.3535353E-01  0.3588803E-05  0.0000000E+00  0.1576439E-04
  0.1666667E+00  0.0000000E+00  0.3535353E-01  0.3885078E-05  0.0000000E+00  0.1684980E-04
  0.1767677E+00  0.0000000E+00  0.3535353E-01  0.4194653E-05  0.0000000E+00  0.1802323E-04
  0.1868687E+00  0.0000000E+00  0.3535353E-01  0.4518753E-05  0.0000000E+00  0.1928871E-04
  0.1969697E+00  0.0000000E+00  0.3535353E-01  0.4858711E-05  0.0000000E+00  0.2065060E-04
  0.2070707E+00  0.0000000E+00  0.3535353E-01  0.5215994E-05  0.0000000E+00  0.2211368E-04
  0.2171717E+00  0.0000000E+00  0.3535353E-01  0.5592232E-05  0.0000000E+00  0.2368311E-04
  0.2272727E+00  0.0000000E+00  0.3535353E-01  0.5989255E-05  0.0000000E+00  0.2536454E-04
  0.2373737E+00  0.0000000E+00  0.3535353E-01  0.6409143E-05  0.0000000E+00  0.2716412E-04
  0.2474747E+00  0.0000000E+00  0.3535353E-01  0.6854288E-05  0.0000000E+00  0.2908858E-04
  0.2575758E+00  0.0000000E+00  0.3535353E-01  0.7327482E-05  0.0000000E+00  0.3114527E-04
  0.2676768E+00  0.0000000E+00  0.3535353E-01  0.7832023E-05  0.0000000E+00  0.3334230E-04
  0.2777778E+00  0.0000000E+00  0.3535353E-01  0.8371863E-05  0.0000000E+00  0.3568864E-04
  0.2878788E+00  0.0000000E+00  0.3535353E-01  0.8951804E-05  0.0000000E+00  0.3819424E-04
  0.2979798E+00  0.0000000E+00  0.3535353E-01  0.9577766E-05  0.0000000E+00  0.4087023E-04