title = "dataset water"
variables = "x", "y", "z", "vx", "vy", "vz"
zone t = "velocities, solution time =  2.600E+01 days        " i =   99, j =   99, k =    1,  f=point
  0.5050505E-02  0.0000000E+00  0.5050505E-02  0.1311567E-08  0.0000000E+00 -0.1027748E-04
  0.1515152E-01  0.0000000E+00  0.5050505E-02  0.3934931E-08  0.0000000E+00 -0.1027223E-04
  0.2525252E-01  0.0000000E+00  0.5050505E-02  0.6558941E-08  0.0000000E+00 -0.1026172E-04
  0.3535353E-01  0.0000000E+00  0.5050505E-02  0.9183916E-08  0.0000000E+00 -0.1024596E-04
  0.4545455E-01  0.0000000E+00  0.5050505E-02  0.1181001E-07  0.0000000E+00 -0.1022494E-04
  0.5555556E-01  0.0000000E+00  0.5050505E-02  0.1443714E-07  0.0000000E+00 -0.1019866E-04
  0.6565657E-01  0.0000000E+00  0.5050505E-02  0.1706492E-07  0.0000000E+00 -0.1016712E-04
  0.7575758E-01  0.0000000E+00  0.5050505E-02  0.1969257E-07  0.0000000E+00 -0.1013031E-04
  0.8585858E-01  0.0000000E+00  0.5050505E-02  0.2231885E-07  0.0000000E+00 -0.1008825E-04
  0.9595960E-01  0.0000000E+00  0.5050505E-02  0.2494197E-07  0.0000000E+00 -0.1004093E-04
  0.1060606E+00  0.0000000E+00  0.5050505E-02  0.2755954E-07  0.0000000E+00 -0.9988365E-05
  0.1161616E+00  0.0000000E+00  0.5050505E-02  0.3016840E-07  0.0000000E+00 -0.9930567E-05
  0.1262626E+00  0.0000000E+00  0.5050505E-02  0.3276460E-07  0.0000000E+00 -0.9867557E-05
  0.1363636E+00  0.0000000E+00  0.5050505E-02  0.3534326E-07  0.0000000E+00 -0.9799368E-05
  0.1464646E+00  0.0000000E+00  0.5050505E-02  0.3789847E-07  0.0000000E+00 -0.9726039E-05
  0.1565657E+00  0.0000000E+00  0.5050505E-02  0.4042318E-07  0.0000000E+00 -0.9647624E-05
  0.1666667E+00  0.0000000E+00  0.5050505E-02  0.4290911E-07  0.0000000E+00 -0.9564194E-05
  0.1767677E+00  0.0000000E+00  0.5050505E-02  0.4534658E-07  0.0000000E+00 -0.9475836E-05
  0.1868687E+00  0.0000000E+00  0.5050505E-02  0.4772446E-07  0.0000000E+00 -0.9382658E-05
  0.1969697E+00  0.0000000E+00  0.5050505E-02  0.5003003E-07  0.0000000E+00 -0.9284792E-05
  0.2070707E+00  0.0000000E+00  0.5050505E-02  0.5224889E-07  0.0000000E+00 -0.9182397E-05
  0.2171717E+00  0.0000000E+00  0.5050505E-02  0.5436487E-07  0.0000000E+00 -0.9075665E-05
  0.2272727E+00  0.0000000E+00  0.5050505E-02  0.5635995E-07  0.0000000E+00 -0.8964818E-05
  0.2373737E+00  0.0000000E+00  0.5050505E-02  0.5821426E-07  0.0000000E+00 -0.8850120E-05
  0.2474747E+00  0.0000000E+00  0.5050505E-02  0.5990604E-07  0.0000000E+00 -0.8731873E-05
  0.2575758E+00  0.0000000E+00  0.5050505E-02  0.6141170E-07  0.0000000E+00 -0.8610427E-05
  0.2676768E+00  0.0000000E+00  0.5050505E-02  0.6270592E-07  0.0000000E+00 -0.8486180E-05
  0.2777778E+00  0.0000000E+00  0.5050505E-02  0.6376181E-07  0.0000000E+00 -0.8359582E-05
  0.2878788E+00  0.0000000E+00  0.5050505E-02  0.6455119E-07  0.0000000E+00 -0.8231140E-05
  0.2979798E+00  0.0000000E+00  0.5050505E-02  0.6504493E-07  0.0000000E+00 -0.8101415E-05
  0.3080808E+00  0.0000000E+00  0.5050505E-02  0.6521339E-07  0.0000000E+00 -0.7971029E-05
  0.3181818E+00  0.0000000E+00  0.5050505E-02  0.6502703E-07  0.0000000E+00 -0.7840663E-05
  0.3282828E+00  0.0000000E+00  0.5050505E-02  0.6445708E-07  0.0000000E+00 -0.7711057E-05
  0.3383838E+00  0.0000000E+00  0.5050505E-02  0.6347641E-07  0.0000000E+00 -0.7583004E-05
  0.3484848E+00  0.0000000E+00  0.5050505E-02  0.6206043E-07  0.0000000E+00 -0.7457352E-05
  0.3585859E+00  0.0000000E+00  0.5050505E-02  0.6018813E-07  0.0000000E+00 -0.7334994E-05
  0.3686869E+00  0.0000000E+00  0.5050505E-02  0.5784322E-07  0.0000000E+00 -0.7216858E-05
  0.3787879E+00  0.0000000E+00  0.5050505E-02  0.5501526E-07  0.0000000E+00 -0.7103901E-05
  0.3888889E+00  0.0000000E+00  0.5050505E-02  0.5170078E-07  0.0000000E+00 -0.6997093E-05
  0.3989899E+00  0.0000000E+00  0.5050505E-02  0.4790430E-07  0.0000000E+00 -0.6897403E-05
  0.4090909E+00  0.0000000E+00  0.5050505E-02  0.4363921E-07  0.0000000E+00 -0.6805783E-05
  0.4191919E+00  0.0000000E+00  0.5050505E-02  0.3892839E-07  0.0000000E+00 -0.6723148E-05
  0.4292929E+00  0.0000000E+00  0.5050505E-02  0.3380454E-07  0.0000000E+00 -0.6650355E-05
  0.4393939E+00  0.0000000E+00  0.5050505E-02  0.2831010E-07  0.0000000E+00 -0.6588190E-05
  0.4494950E+00  0.0000000E+00  0.5050505E-02  0.2249680E-07  0.0000000E+00 -0.6537343E-05
  0.4595959E+00  0.0000000E+00  0.5050505E-02  0.1642470E-07  0.0000000E+00 -0.6498390E-05
  0.4696970E+00  0.0000000E+00  0.5050505E-02  0.1016085E-07  0.0000000E+00 -0.6471783E-05
  0.4797980E+00  0.0000000E+00  0.5050505E-02  0.3777610E-08  0.0000000E+00 -0.6457834E-05
  0.4898990E+00  0.0000000E+00  0.5050505E-02 -0.2649420E-08  0.0000000E+00 -0.6456705E-05
  0.5000000E+00  0.0000000E+00  0.5050505E-02 -0.9043549E-08  0.0000000E+00 -0.6468407E-05
  0.5101010E+00  0.0000000E+00  0.5050505E-02 -0.1532929E-07  0.0000000E+00 -0.6492799E-05
  0.5202020E+00  0.0000000E+00  0.5050505E-02 -0.2143451E-07  0.0000000E+00 -0.6529592E-05
  0.5303030E+00  0.0000000E+00  0.5050505E-02 -0.2729245E-07  0.0000000E+00 -0.6578358E-05
  0.5404040E+00  0.0000000E+00  0.5050505E-02 -0.3284335E-07  0.0000000E+00 -0.6638543E-05
  0.5505050E+00  0.0000000E+00  0.5050505E-02 -0.3803573E-07  0.0000000E+00 -0.6709480E-05
  0.5606061E+00  0.0000000E+00  0.5050505E-02 -0.4282733E-07  0.0000000E+00 -0.6790409E-05
  0.5707071E+00  0.0000000E+00  0.5050505E-02 -0.4718547E-07  0.0000000E+00 -0.6880497E-05
  0.5808081E+00  0.0000000E+00  0.5050505E-02 -0.5108713E-07  0.0000000E+00 -0.6978853E-05
  0.5909091E+00  0.0000000E+00  0.5050505E-02 -0.5451863E-07  0.0000000E+00 -0.7084549E-05
  0.6010101E+00  0.0000000E+00  0.5050505E-02 -0.5747497E-07  0.0000000E+00 -0.7196640E-05
  0.6111111E+00  0.0000000E+00  0.5050505E-02 -0.5995901E-07  0.0000000E+00 -0.7314178E-05
  0.6212121E+00  0.0000000E+00  0.5050505E-02 -0.6198044E-07  0.0000000E+00 -0.7436227E-05
  0.6313131E+00  0.0000000E+00  0.5050505E-02 -0.6355472E-07  0.0000000E+00 -0.7561877E-05
  0.6414142E+00  0.0000000E+00  0.5050505E-02 -0.6470193E-07  0.0000000E+00 -0.7690252E-05
  0.6515151E+00  0.0000000E+00  0.5050505E-02 -0.6544574E-07  0.0000000E+00 -0.7820523E-05
  0.6616161E+00  0.0000000E+00  0.5050505E-02 -0.6581236E-07  0.0000000E+00 -0.7951907E-05
  0.6717172E+00  0.0000000E+00  0.5050505E-02 -0.6582965E-07  0.0000000E+00 -0.8083678E-05
  0.6818182E+00  0.0000000E+00  0.5050505E-02 -0.6552628E-07  0.0000000E+00 -0.8215164E-05
  0.6919192E+00  0.0000000E+00  0.5050505E-02 -0.6493107E-07  0.0000000E+00 -0.8345753E-05
  0.7020202E+00  0.0000000E+00  0.5050505E-02 -0.6407245E-07  0.0000000E+00 -0.8474888E-05
  0.7121212E+00  0.0000000E+00  0.5050505E-02 -0.6297794E-07  0.0000000E+00 -0.8602071E-05
  0.7222222E+00  0.0000000E+00  0.5050505E-02 -0.6167387E-07  0.0000000E+00 -0.8726854E-05
  0.7323232E+00  0.0000000E+00  0.5050505E-02 -0.6018509E-07  0.0000000E+00 -0.8848844E-05
  0.7424242E+00  0.0000000E+00  0.5050505E-02 -0.5853482E-07  0.0000000E+00 -0.8967693E-05
  0.7525253E+00  0.0000000E+00  0.5050505E-02 -0.5674452E-07  0.0000000E+00 -0.9083099E-05
  0.7626263E+00  0.0000000E+00  0.5050505E-02 -0.5483387E-07  0.0000000E+00 -0.9194802E-05
  0.7727273E+00  0.0000000E+00  0.5050505E-02 -0.5282076E-07  0.0000000E+00 -0.9302578E-05
  0.7828283E+00  0.0000000E+00  0.5050505E-02 -0.5072132E-07  0.0000000E+00 -0.9406238E-05
  0.7929293E+00  0.0000000E+00  0.5050505E-02 -0.4854998E-07  0.0000000E+00 -0.9505624E-05
  0.8030303E+00  0.0000000E+00  0.5050505E-02 -0.4631956E-07  0.0000000E+00 -0.9600604E-05
  0.8131313E+00  0.0000000E+00  0.5050505E-02 -0.4404134E-07  0.0000000E+00 -0.9691072E-05
  0.8232324E+00  0.0000000E+00  0.5050505E-02 -0.4172518E-07  0.0000000E+00 -0.9776940E-05
  0.8333333E+00  0.0000000E+00  0.5050505E-02 -0.3937963E-07  0.0000000E+00 -0.9858142E-05
  0.8434343E+00  0.0000000E+00  0.5050505E-02 -0.3701199E-07  0.0000000E+00 -0.9934626E-05
  0.8535354E+00  0.0000000E+00  0.5050505E-02 -0.3462847E-07  0.0000000E+00 -0.1000635E-04
  0.8636364E+00  0.0000000E+00  0.5050505E-02 -0.3223426E-07  0.0000000E+00 -0.1007330E-04
  0.8737374E+00  0.0000000E+00  0.5050505E-02 -0.2983363E-07  0.0000000E+00 -0.1013544E-04
  0.8838384E+00  0.0000000E+00  0.5050505E-02 -0.2743001E-07  0.0000000E+00 -0.1019278E-04
  0.8939394E+00  0.0000000E+00  0.5050505E-02 -0.2502611E-07  0.0000000E+00 -0.1024530E-04
  0.9040404E+00  0.0000000E+00  0.5050505E-02 -0.2262397E-07  0.0000000E+00 -0.1029301E-04
  0.9141414E+00  0.0000000E+00  0.5050505E-02 -0.2022505E-07  0.0000000E+00 -0.1033591E-04
  0.9242424E+00  0.0000000E+00  0.5050505E-02 -0.1783028E-07  0.0000000E+00 -0.1037402E-04
  0.9343435E+00  0.0000000E+00  0.5050505E-02 -0.1544017E-07  0.0000000E+00 -0.1040733E-04
  0.9444444E+00  0.0000000E+00  0.5050505E-02 -0.1305485E-07  0.0000000E+00 -0.1043586E-04
  0.9545454E+00  0.0000000E+00  0.5050505E-02 -0.1067409E-07  0.0000000E+00 -0.1045962E-04
  0.9646465E+00  0.0000000E+00  0.5050505E-02 -0.8297423E-08  0.0000000E+00 -0.1047862E-04
  0.9747475E+00  0.0000000E+00  0.5050505E-02 -0.5924162E-08  0.0000000E+00 -0.1049286E-04
  0.9848485E+00  0.0000000E+00  0.5050505E-02 -0.3553447E-08  0.0000000E+00 -0.1050235E-04
  0.9974747E+00  0.0000000E+00  0.5050505E-02 -0.1184307E-08  0.0000000E+00 -0.1050709E-04
  0.5050505E-02  0.0000000E+00  0.1515152E-01  0.3940418E-08  0.0000000E+00 -0.1025260E-04
  0.1515152E-01  0.0000000E+00  0.1515152E-01  0.1182199E-07  0.0000000E+00 -0.1024731E-04
  0.2525252E-01  0.0000000E+00  0.1515152E-01  0.1970564E-07  0.0000000E+00 -0.1023673E-04
  0.3535353E-01  0.0000000E+00  0.1515152E-01  0.2759241E-07  0.0000000E+00 -0.1022085E-04
  0.4545455E-01  0.0000000E+00  0.1515152E-01  0.3548287E-07  0.0000000E+00 -0.1019968E-04
  0.5555556E-01  0.0000000E+00  0.1515152E-01  0.4337686E-07  0.0000000E+00 -0.1017320E-04
  0.6565657E-01  0.0000000E+00  0.1515152E-01  0.5127330E-07  0.0000000E+00 -0.1014142E-04
  0.7575758E-01  0.0000000E+00  0.1515152E-01  0.5916995E-07  0.0000000E+00 -0.1010434E-04
  0.8585858E-01  0.0000000E+00  0.1515152E-01  0.6706321E-07  0.0000000E+00 -0.1006196E-04
  0.9595960E-01  0.0000000E+00  0.1515152E-01  0.7494784E-07  0.0000000E+00 -0.1001427E-04
  0.1060606E+00  0.0000000E+00  0.1515152E-01  0.8281667E-07  0.0000000E+00 -0.9961295E-05
  0.1161616E+00  0.0000000E+00  0.1515152E-01  0.9066042E-07  0.0000000E+00 -0.9903035E-05
  0.1262626E+00  0.0000000E+00  0.1515152E-01  0.9846730E-07  0.0000000E+00 -0.9839514E-05
  0.1363636E+00  0.0000000E+00  0.1515152E-01  0.1062228E-06  0.0000000E+00 -0.9770760E-05
  0.1464646E+00  0.0000000E+00  0.1515152E-01  0.1139092E-06  0.0000000E+00 -0.9696811E-05
  0.1565657E+00  0.0000000E+00  0.1515152E-01  0.1215056E-06  0.0000000E+00 -0.9617719E-05
  0.1666667E+00  0.0000000E+00  0.1515152E-01  0.1289871E-06  0.0000000E+00 -0.9533551E-05
  0.1767677E+00  0.0000000E+00  0.1515152E-01  0.1363247E-06  0.0000000E+00 -0.9444391E-05
  0.1868687E+00  0.0000000E+00  0.1515152E-01  0.1434853E-06  0.0000000E+00 -0.9350346E-05
  0.1969697E+00  0.0000000E+00  0.1515152E-01  0.1504306E-06  0.0000000E+00 -0.9251543E-05
  0.2070707E+00  0.0000000E+00  0.1515152E-01  0.1571174E-06  0.0000000E+00 -0.9148141E-05
  0.2171717E+00  0.0000000E+00  0.1515152E-01  0.1634973E-06  0.0000000E+00 -0.9040325E-05
  0.2272727E+00  0.0000000E+00  0.1515152E-01  0.1695160E-06  0.0000000E+00 -0.8928318E-05
  0.2373737E+00  0.0000000E+00  0.1515152E-01  0.1751139E-06  0.0000000E+00 -0.8812379E-05
  0.2474747E+00  0.0000000E+00  0.1515152E-01  0.1802254E-06  0.0000000E+00 -0.8692811E-05
  0.2575758E+00  0.0000000E+00  0.1515152E-01  0.1847797E-06  0.0000000E+00 -0.8569961E-05
  0.2676768E+00  0.0000000E+00  0.1515152E-01  0.1887002E-06  0.0000000E+00 -0.8444227E-05
  0.2777778E+00  0.0000000E+00  0.1515152E-01  0.1919060E-06  0.0000000E+00 -0.8316059E-05
  0.2878788E+00  0.0000000E+00  0.1515152E-01  0.1943119E-06  0.0000000E+00 -0.8185965E-05
  0.2979798E+00  0.0000000E+00  0.1515152E-01  0.1958297E-06  0.0000000E+00 -0.8054511E-05
  0.3080808E+00  0.0000000E+00  0.1515152E-01  0.1963699E-06  0.0000000E+00 -0.7922322E-05
  0.3181818E+00  0.0000000E+00  0.1515152E-01  0.1958427E-06  0.0000000E+00 -0.7790087E-05
  0.3282828E+00  0.0000000E+00  0.1515152E-01  0.1941608E-06  0.0000000E+00 -0.7658553E-05
  0.3383838E+00  0.0000000E+00  0.1515152E-01  0.1912417E-06  0.0000000E+00 -0.7528527E-05
  0.3484848E+00  0.0000000E+00  0.1515152E-01  0.1870101E-06  0.0000000E+00 -0.7400870E-05
  0.3585859E+00  0.0000000E+00  0.1515152E-01  0.1814017E-06  0.0000000E+00 -0.7276490E-05
  0.3686869E+00  0.0000000E+00  0.1515152E-01  0.1743665E-06  0.0000000E+00 -0.7156337E-05
  0.3787879E+00  0.0000000E+00  0.1515152E-01  0.1658716E-06  0.0000000E+00 -0.7041390E-05
  0.3888889E+00  0.0000000E+00  0.1515152E-01  0.1559057E-06  0.0000000E+00 -0.6932643E-05
  0.3989899E+00  0.0000000E+00  0.1515152E-01  0.1444814E-06  0.0000000E+00 -0.6831092E-05
  0.4090909E+00  0.0000000E+00  0.1515152E-01  0.1316381E-06  0.0000000E+00 -0.6737717E-05
  0.4191919E+00  0.0000000E+00  0.1515152E-01  0.1174445E-06  0.0000000E+00 -0.6653461E-05
  0.4292929E+00  0.0000000E+00  0.1515152E-01  0.1019989E-06  0.0000000E+00 -0.6579213E-05
  0.4393939E+00  0.0000000E+00  0.1515152E-01  0.8542934E-07  0.0000000E+00 -0.6515783E-05
  0.4494950E+00  0.0000000E+00  0.1515152E-01  0.6789235E-07  0.0000000E+00 -0.6463886E-05
  0.4595959E+00  0.0000000E+00  0.1515152E-01  0.4956993E-07  0.0000000E+00 -0.6424122E-05
  0.4696970E+00  0.0000000E+00  0.1515152E-01  0.3066552E-07  0.0000000E+00 -0.6396959E-05
  0.4797980E+00  0.0000000E+00  0.1515152E-01  0.1139875E-07  0.0000000E+00 -0.6382720E-05
  0.4898990E+00  0.0000000E+00  0.1515152E-01 -0.8000756E-08  0.0000000E+00 -0.6381575E-05
  0.5000000E+00  0.0000000E+00  0.1515152E-01 -0.2730006E-07  0.0000000E+00 -0.6393533E-05
  0.5101010E+00  0.0000000E+00  0.1515152E-01 -0.4626991E-07  0.0000000E+00 -0.6418448E-05
  0.5202020E+00  0.0000000E+00  0.1515152E-01 -0.6469140E-07  0.0000000E+00 -0.6456018E-05
  0.5303030E+00  0.0000000E+00  0.1515152E-01 -0.8236202E-07  0.0000000E+00 -0.6505798E-05
  0.5404040E+00  0.0000000E+00  0.1515152E-01 -0.9910074E-07  0.0000000E+00 -0.6567213E-05
  0.5505050E+00  0.0000000E+00  0.1515152E-01 -0.1147519E-06  0.0000000E+00 -0.6639571E-05
  0.5606061E+00  0.0000000E+00  0.1515152E-01 -0.1291880E-06  0.0000000E+00 -0.6722087E-05
  0.5707071E+00  0.0000000E+00  0.1515152E-01 -0.1423107E-06  0.0000000E+00 -0.6813897E-05
  0.5808081E+00  0.0000000E+00  0.1515152E-01 -0.1540512E-06  0.0000000E+00 -0.6914082E-05
  0.5909091E+00  0.0000000E+00  0.1515152E-01 -0.1643689E-06  0.0000000E+00 -0.7021688E-05
  0.6010101E+00  0.0000000E+00  0.1515152E-01 -0.1732499E-06  0.0000000E+00 -0.7135742E-05
  0.6111111E+00  0.0000000E+00  0.1515152E-01 -0.1807038E-06  0.0000000E+00 -0.7255273E-05
  0.6212121E+00  0.0000000E+00  0.1515152E-01 -0.1867609E-06  0.0000000E+00 -0.7379322E-05
  0.6313131E+00  0.0000000E+00  0.1515152E-01 -0.1914688E-06  0.0000000E+00 -0.7506961E-05
  0.6414142E+00  0.0000000E+00  0.1515152E-01 -0.1948892E-06  0.0000000E+00 -0.7637297E-05
  0.6515151E+00  0.0000000E+00  0.1515152E-01 -0.1970943E-06  0.0000000E+00 -0.7769486E-05
  0.6616161E+00  0.0000000E+00  0.1515152E-01 -0.1981638E-06  0.0000000E+00 -0.7902734E-05
  0.6717172E+00  0.0000000E+00  0.1515152E-01 -0.1981825E-06  0.0000000E+00 -0.8036307E-05
  0.6818182E+00  0.0000000E+00  0.1515152E-01 -0.1972372E-06  0.0000000E+00 -0.8169526E-05
  0.6919192E+00  0.0000000E+00  0.1515152E-01 -0.1954153E-06  0.0000000E+00 -0.8301774E-05
  0.7020202E+00  0.0000000E+00  0.1515152E-01 -0.1928027E-06  0.0000000E+00 -0.8432492E-05
  0.7121212E+00  0.0000000E+00  0.1515152E-01 -0.1894825E-06  0.0000000E+00 -0.8561177E-05
  0.7222222E+00  0.0000000E+00  0.1515152E-01 -0.1855343E-06  0.0000000E+00 -0.8687384E-05
  0.7323232E+00  0.0000000E+00  0.1515152E-01 -0.1810328E-06  0.0000000E+00 -0.8810717E-05
  0.7424242E+00  0.0000000E+00  0.1515152E-01 -0.1760480E-06  0.0000000E+00 -0.8930832E-05
  0.7525253E+00  0.0000000E+00  0.1515152E-01 -0.1706446E-06  0.0000000E+00 -0.9047427E-05
  0.7626263E+00  0.0000000E+00  0.1515152E-01 -0.1648815E-06  0.0000000E+00 -0.9160245E-05
  0.7727273E+00  0.0000000E+00  0.1515152E-01 -0.1588127E-06  0.0000000E+00 -0.9269064E-05
  0.7828283E+00  0.0000000E+00  0.1515152E-01 -0.1524865E-06  0.0000000E+00 -0.9373698E-05
  0.7929293E+00  0.0000000E+00  0.1515152E-01 -0.1459463E-06  0.0000000E+00 -0.9473992E-05
  0.8030303E+00  0.0000000E+00  0.1515152E-01 -0.1392303E-06  0.0000000E+00 -0.9569816E-05
  0.8131313E+00  0.0000000E+00  0.1515152E-01 -0.1323725E-06  0.0000000E+00 -0.9661066E-05
  0.8232324E+00  0.0000000E+00  0.1515152E-01 -0.1254024E-06  0.0000000E+00 -0.9747659E-05
  0.8333333E+00  0.0000000E+00  0.1515152E-01 -0.1183455E-06  0.0000000E+00 -0.9829530E-05
  0.8434343E+00  0.0000000E+00  0.1515152E-01 -0.1112237E-06  0.0000000E+00 -0.9906631E-05
  0.8535354E+00  0.0000000E+00  0.1515152E-01 -0.1040554E-06  0.0000000E+00 -0.9978925E-05
  0.8636364E+00  0.0000000E+00  0.1515152E-01 -0.9685627E-07  0.0000000E+00 -0.1004639E-04
  0.8737374E+00  0.0000000E+00  0.1515152E-01 -0.8963890E-07  0.0000000E+00 -0.1010900E-04
  0.8838384E+00  0.0000000E+00  0.1515152E-01 -0.8241355E-07  0.0000000E+00 -0.1016677E-04
  0.8939394E+00  0.0000000E+00  0.1515152E-01 -0.7518825E-07  0.0000000E+00 -0.1021968E-04
  0.9040404E+00  0.0000000E+00  0.1515152E-01 -0.6796901E-07  0.0000000E+00 -0.1026773E-04
  0.9141414E+00  0.0000000E+00  0.1515152E-01 -0.6076014E-07  0.0000000E+00 -0.1031094E-04
  0.9242424E+00  0.0000000E+00  0.1515152E-01 -0.5356438E-07  0.0000000E+00 -0.1034931E-04
  0.9343435E+00  0.0000000E+00  0.1515152E-01 -0.4638316E-07  0.0000000E+00 -0.1038286E-04
  0.9444444E+00  0.0000000E+00  0.1515152E-01 -0.3921674E-07  0.0000000E+00 -0.1041159E-04
  0.9545454E+00  0.0000000E+00  0.1515152E-01 -0.3206443E-07  0.0000000E+00 -0.1043551E-04
  0.9646465E+00  0.0000000E+00  0.1515152E-01 -0.2492473E-07  0.0000000E+00 -0.1045464E-04
  0.9747475E+00  0.0000000E+00  0.1515152E-01 -0.1779549E-07  0.0000000E+00 -0.1046897E-04
  0.9848485E+00  0.0000000E+00  0.1515152E-01 -0.1067408E-07  0.0000000E+00 -0.1047853E-04
  0.9974747E+00  0.0000000E+00  0.1515152E-01 -0.3557485E-08  0.0000000E+00 -0.1048330E-04
  0.5050505E-02  0.0000000E+00  0.2525252E-01  0.6590230E-08  0.0000000E+00 -0.1020292E-04
  0.1515152E-01  0.0000000E+00  0.2525252E-01  0.1977207E-07  0.0000000E+00 -0.1019756E-04
  0.2525252E-01  0.0000000E+00  0.2525252E-01  0.3295783E-07  0.0000000E+00 -0.1018682E-04
  0.3535353E-01  0.0000000E+00  0.2525252E-01  0.4614957E-07  0.0000000E+00 -0.1017071E-04
  0.4545455E-01  0.0000000E+00  0.2525252E-01  0.5934853E-07  0.0000000E+00 -0.1014923E-04
  0.5555556E-01  0.0000000E+00  0.2525252E-01  0.7255477E-07  0.0000000E+00 -0.1012236E-04
  0.6565657E-01  0.0000000E+00  0.2525252E-01  0.8576680E-07  0.0000000E+00 -0.1009011E-04
  0.7575758E-01  0.0000000E+00  0.2525252E-01  0.9898124E-07  0.0000000E+00 -0.1005248E-04
  0.8585858E-01  0.0000000E+00  0.2525252E-01  0.1121924E-06  0.0000000E+00 -0.1000945E-04
  0.9595960E-01  0.0000000E+00  0.2525252E-01  0.1253918E-06  0.0000000E+00 -0.9961031E-05
  0.1060606E+00  0.0000000E+00  0.2525252E-01  0.1385680E-06  0.0000000E+00 -0.9907226E-05
  0.1161616E+00  0.0000000E+00  0.2525252E-01  0.1517056E-06  0.0000000E+00 -0.9848044E-05
  0.1262626E+00  0.0000000E+00  0.2525252E-01  0.1647856E-06  0.0000000E+00 -0.9783498E-05
  0.1363636E+00  0.0000000E+00  0.2525252E-01  0.1777838E-06  0.0000000E+00 -0.9713614E-05
  0.1464646E+00  0.0000000E+00  0.2525252E-01  0.1906714E-06  0.0000000E+00 -0.9638424E-05
  0.1565657E+00  0.0000000E+00  0.2525252E-01  0.2034134E-06  0.0000000E+00 -0.9557976E-05
  0.1666667E+00  0.0000000E+00  0.2525252E-01  0.2159689E-06  0.0000000E+00 -0.9472330E-05
  0.1767677E+00  0.0000000E+00  0.2525252E-01  0.2282898E-06  0.0000000E+00 -0.9381566E-05
  0.1868687E+00  0.0000000E+00  0.2525252E-01  0.2403208E-06  0.0000000E+00 -0.9285784E-05
  0.1969697E+00  0.0000000E+00  0.2525252E-01  0.2519984E-06  0.0000000E+00 -0.9185106E-05
  0.2070707E+00  0.0000000E+00  0.2525252E-01  0.2632506E-06  0.0000000E+00 -0.9079683E-05
  0.2171717E+00  0.0000000E+00  0.2525252E-01  0.2739964E-06  0.0000000E+00 -0.8969697E-05
  0.2272727E+00  0.0000000E+00  0.2525252E-01  0.2841454E-06  0.0000000E+00 -0.8855364E-05
  0.2373737E+00  0.0000000E+00  0.2525252E-01  0.2935975E-06  0.0000000E+00 -0.8736940E-05
  0.2474747E+00  0.0000000E+00  0.2525252E-01  0.3022430E-06  0.0000000E+00 -0.8614722E-05
  0.2575758E+00  0.0000000E+00  0.2525252E-01  0.3099625E-06  0.0000000E+00 -0.8489055E-05
  0.2676768E+00  0.0000000E+00  0.2525252E-01  0.3166276E-06  0.0000000E+00 -0.8360336E-05
  0.2777778E+00  0.0000000E+00  0.2525252E-01  0.3221015E-06  0.0000000E+00 -0.8229016E-05
  0.2878788E+00  0.0000000E+00  0.2525252E-01  0.3262404E-06  0.0000000E+00 -0.8095605E-05
  0.2979798E+00  0.0000000E+00  0.2525252E-01  0.3288950E-06  0.0000000E+00 -0.7960675E-05
  0.3080808E+00  0.0000000E+00  0.2525252E-01  0.3299129E-06  0.0000000E+00 -0.7824862E-05
  0.3181818E+00  0.0000000E+00  0.2525252E-01  0.3291415E-06  0.0000000E+00 -0.7688866E-05
  0.3282828E+00  0.0000000E+00  0.2525252E-01  0.3264315E-06  0.0000000E+00 -0.7553452E-05
  0.3383838E+00  0.0000000E+00  0.2525252E-01  0.3216409E-06  0.0000000E+00 -0.7419451E-05
  0.3484848E+00  0.0000000E+00  0.2525252E-01  0.3146403E-06  0.0000000E+00 -0.7287751E-05
  0.3585859E+00  0.0000000E+00  0.2525252E-01  0.3053178E-06  0.0000000E+00 -0.7159294E-05
  0.3686869E+00  0.0000000E+00  0.2525252E-01  0.2935851E-06  0.0000000E+00 -0.7035070E-05
  0.3787879E+00  0.0000000E+00  0.2525252E-01  0.2793835E-06  0.0000000E+00 -0.6916102E-05
  0.3888889E+00  0.0000000E+00  0.2525252E-01  0.2626899E-06  0.0000000E+00 -0.6803434E-05
  0.3989899E+00  0.0000000E+00  0.2525252E-01  0.2435223E-06  0.0000000E+00 -0.6698118E-05
  0.4090909E+00  0.0000000E+00  0.2525252E-01  0.2219446E-06  0.0000000E+00 -0.6601190E-05
  0.4191919E+00  0.0000000E+00  0.2525252E-01  0.1980704E-06  0.0000000E+00 -0.6513652E-05
  0.4292929E+00  0.0000000E+00  0.2525252E-01  0.1720644E-06  0.0000000E+00 -0.6436452E-05
  0.4393939E+00  0.0000000E+00  0.2525252E-01  0.1441430E-06  0.0000000E+00 -0.6370457E-05
  0.4494950E+00  0.0000000E+00  0.2525252E-01  0.1145716E-06  0.0000000E+00 -0.6316432E-05
  0.4595959E+00  0.0000000E+00  0.2525252E-01  0.8365976E-07  0.0000000E+00 -0.6275022E-05
  0.4696970E+00  0.0000000E+00  0.2525252E-01  0.5175437E-07  0.0000000E+00 -0.6246730E-05
  0.4797980E+00  0.0000000E+00  0.2525252E-01  0.1923052E-07  0.0000000E+00 -0.6231904E-05
  0.4898990E+00  0.0000000E+00  0.2525252E-01 -0.1351930E-07  0.0000000E+00 -0.6230725E-05
  0.5000000E+00  0.0000000E+00  0.2525252E-01 -0.4609692E-07  0.0000000E+00 -0.6243204E-05
  0.5101010E+00  0.0000000E+00  0.2525252E-01 -0.7811060E-07  0.0000000E+00 -0.6269180E-05
  0.5202020E+00  0.0000000E+00  0.2525252E-01 -0.1091867E-06  0.0000000E+00 -0.6308328E-05
  0.5303030E+00  0.0000000E+00  0.2525252E-01 -0.1389799E-06  0.0000000E+00 -0.6360167E-05
  0.5404040E+00  0.0000000E+00  0.2525252E-01 -0.1671826E-06  0.0000000E+00 -0.6424077E-05
  0.5505050E+00  0.0000000E+00  0.2525252E-01 -0.1935310E-06  0.0000000E+00 -0.6499318E-05
  0.5606061E+00  0.0000000E+00  0.2525252E-01 -0.2178099E-06  0.0000000E+00 -0.6585046E-05
  0.5707071E+00  0.0000000E+00  0.2525252E-01 -0.2398548E-06  0.0000000E+00 -0.6680342E-05
  0.5808081E+00  0.0000000E+00  0.2525252E-01 -0.2595515E-06  0.0000000E+00 -0.6784228E-05
  0.5909091E+00  0.0000000E+00  0.2525252E-01 -0.2768345E-06  0.0000000E+00 -0.6895695E-05
  0.6010101E+00  0.0000000E+00  0.2525252E-01 -0.2916836E-06  0.0000000E+00 -0.7013715E-05
  0.6111111E+00  0.0000000E+00  0.2525252E-01 -0.3041184E-06  0.0000000E+00 -0.7137268E-05
  0.6212121E+00  0.0000000E+00  0.2525252E-01 -0.3141939E-06  0.0000000E+00 -0.7265353E-05
  0.6313131E+00  0.0000000E+00  0.2525252E-01 -0.3219939E-06  0.0000000E+00 -0.7397000E-05
  0.6414142E+00  0.0000000E+00  0.2525252E-01 -0.3276255E-06  0.0000000E+00 -0.7531285E-05
  0.6515151E+00  0.0000000E+00  0.2525252E-01 -0.3312133E-06  0.0000000E+00 -0.7667335E-05
  0.6616161E+00  0.0000000E+00  0.2525252E-01 -0.3328945E-06  0.0000000E+00 -0.7804335E-05
  0.6717172E+00  0.0000000E+00  0.2525252E-01 -0.3328137E-06  0.0000000E+00 -0.7941532E-05
  0.6818182E+00  0.0000000E+00  0.2525252E-01 -0.3311191E-06  0.0000000E+00 -0.8078234E-05
  0.6919192E+00  0.0000000E+00  0.2525252E-01 -0.3279589E-06  0.0000000E+00 -0.8213815E-05
  0.7020202E+00  0.0000000E+00  0.2525252E-01 -0.3234787E-06  0.0000000E+00 -0.8347708E-05
  0.7121212E+00  0.0000000E+00  0.2525252E-01 -0.3178191E-06  0.0000000E+00 -0.8479410E-05
  0.7222222E+00  0.0000000E+00  0.2525252E-01 -0.3111141E-06  0.0000000E+00 -0.8608471E-05
  0.7323232E+00  0.0000000E+00  0.2525252E-01 -0.3034897E-06  0.0000000E+00 -0.8734500E-05
  0.7424242E+00  0.0000000E+00  0.2525252E-01 -0.2950633E-06  0.0000000E+00 -0.8857153E-05
  0.7525253E+00  0.0000000E+00  0.2525252E-01 -0.2859434E-06  0.0000000E+00 -0.8976132E-05
  0.7626263E+00  0.0000000E+00  0.2525252E-01 -0.2762290E-06  0.0000000E+00 -0.9091184E-05
  0.7727273E+00  0.0000000E+00  0.2525252E-01 -0.2660100E-06  0.0000000E+00 -0.9202093E-05
  0.7828283E+00  0.0000000E+00  0.2525252E-01 -0.2553671E-06  0.0000000E+00 -0.9308678E-05
  0.7929293E+00  0.0000000E+00  0.2525252E-01 -0.2443727E-06  0.0000000E+00 -0.9410788E-05
  0.8030303E+00  0.0000000E+00  0.2525252E-01 -0.2330907E-06  0.0000000E+00 -0.9508301E-05
  0.8131313E+00  0.0000000E+00  0.2525252E-01 -0.2215773E-06  0.0000000E+00 -0.9601119E-05
  0.8232324E+00  0.0000000E+00  0.2525252E-01 -0.2098815E-06  0.0000000E+00 -0.9689163E-05
  0.8333333E+00  0.0000000E+00  0.2525252E-01 -0.1980456E-06  0.0000000E+00 -0.9772374E-05
  0.8434343E+00  0.0000000E+00  0.2525252E-01 -0.1861059E-06  0.0000000E+00 -0.9850709E-05
  0.8535354E+00  0.0000000E+00  0.2525252E-01 -0.1740930E-06  0.0000000E+00 -0.9924136E-05
  0.8636364E+00  0.0000000E+00  0.2525252E-01 -0.1620323E-06  0.0000000E+00 -0.9992635E-05
  0.8737374E+00  0.0000000E+00  0.2525252E-01 -0.1499448E-06  0.0000000E+00 -0.1005620E-04
  0.8838384E+00  0.0000000E+00  0.2525252E-01 -0.1378473E-06  0.0000000E+00 -0.1011482E-04
  0.8939394E+00  0.0000000E+00  0.2525252E-01 -0.1257527E-06  0.0000000E+00 -0.1016850E-04
  0.9040404E+00  0.0000000E+00  0.2525252E-01 -0.1136710E-06  0.0000000E+00 -0.1021724E-04
  0.9141414E+00  0.0000000E+00  0.2525252E-01 -0.1016089E-06  0.0000000E+00 -0.1026107E-04
  0.9242424E+00  0.0000000E+00  0.2525252E-01 -0.8957087E-07  0.0000000E+00 -0.1029998E-04
  0.9343435E+00  0.0000000E+00  0.2525252E-01 -0.7755888E-07  0.0000000E+00 -0.1033399E-04
  0.9444444E+00  0.0000000E+00  0.2525252E-01 -0.6557316E-07  0.0000000E+00 -0.1036312E-04
  0.9545454E+00  0.0000000E+00  0.2525252E-01 -0.5361230E-07  0.0000000E+00 -0.1038737E-04
  0.9646465E+00  0.0000000E+00  0.2525252E-01 -0.4167354E-07  0.0000000E+00 -0.1040675E-04
  0.9747475E+00  0.0000000E+00  0.2525252E-01 -0.2975307E-07  0.0000000E+00 -0.1042128E-04
  0.9848485E+00  0.0000000E+00  0.2525252E-01 -0.1784623E-07  0.0000000E+00 -0.1043097E-04
  0.9974747E+00  0.0000000E+00  0.2525252E-01 -0.5947801E-08  0.0000000E+00 -0.1043581E-04
  0.5050505E-02  0.0000000E+00  0.3535353E-01  0.9280041E-08  0.0000000E+00 -0.1012857E-04
  0.1515152E-01  0.0000000E+00  0.3535353E-01  0.2784237E-07  0.0000000E+00 -0.1012308E-04
  0.2525252E-01  0.0000000E+00  0.3535353E-01  0.4641116E-07  0.0000000E+00 -0.1011212E-04
  0.3535353E-01  0.0000000E+00  0.3535353E-01  0.6498995E-07  0.0000000E+00 -0.1009566E-04
  0.4545455E-01  0.0000000E+00  0.3535353E-01  0.8358113E-07  0.0000000E+00 -0.1007371E-04
  0.5555556E-01  0.0000000E+00  0.3535353E-01  0.1021854E-06  0.0000000E+00 -0.1004626E-04
  0.6565657E-01  0.0000000E+00  0.3535353E-01  0.1208014E-06  0.0000000E+00 -0.1001331E-04
  0.7575758E-01  0.0000000E+00  0.3535353E-01  0.1394251E-06  0.0000000E+00 -0.9974834E-05
  0.8585858E-01  0.0000000E+00  0.3535353E-01  0.1580491E-06  0.0000000E+00 -0.9930842E-05
  0.9595960E-01  0.0000000E+00  0.3535353E-01  0.1766624E-06  0.0000000E+00 -0.9881324E-05
  0.1060606E+00  0.0000000E+00  0.3535353E-01  0.1952494E-06  0.0000000E+00 -0.9826279E-05
  0.1161616E+00  0.0000000E+00  0.3535353E-01  0.2137896E-06  0.0000000E+00 -0.9765710E-05
  0.1262626E+00  0.0000000E+00  0.3535353E-01  0.2322567E-06  0.0000000E+00 -0.9699626E-05
  0.1363636E+00  0.0000000E+00  0.3535353E-01  0.2506178E-06  0.0000000E+00 -0.9628044E-05
  0.1464646E+00  0.0000000E+00  0.3535353E-01  0.2688330E-06  0.0000000E+00 -0.9550991E-05
  0.1565657E+00  0.0000000E+00  0.3535353E-01  0.2868541E-06  0.0000000E+00 -0.9468505E-05
  0.1666667E+00  0.0000000E+00  0.3535353E-01  0.3046242E-06  0.0000000E+00 -0.9380639E-05
  0.1767677E+00  0.0000000E+00  0.3535353E-01  0.3220766E-06  0.0000000E+00 -0.9287463E-05
  0.1868687E+00  0.0000000E+00  0.3535353E-01  0.3391340E-06  0.0000000E+00 -0.9189069E-05
  0.1969697E+00  0.0000000E+00  0.3535353E-01  0.3557078E-06  0.0000000E+00 -0.9085569E-05
  0.2070707E+00  0.0000000E+00  0.3535353E-01  0.3716973E-06  0.0000000E+00 -0.8977107E-05
  0.2171717E+00  0.0000000E+00  0.3535353E-01  0.3869886E-06  0.0000000E+00 -0.8863855E-05
  0.2272727E+00  0.0000000E+00  0.3535353E-01  0.4014546E-06  0.0000000E+00 -0.8746021E-05
  0.2373737E+00  0.0000000E+00  0.3535353E-01  0.4149542E-06  0.0000000E+00 -0.8623852E-05
  0.2474747E+00  0.0000000E+00  0.3535353E-01  0.4273323E-06  0.0000000E+00 -0.8497639E-05
  0.2575758E+00  0.0000000E+00  0.3535353E-01  0.4384199E-06  0.0000000E+00 -0.8367725E-05
  0.2676768E+00  0.0000000E+00  0.3535353E-01  0.4480342E-06  0.0000000E+00 -0.8234501E-05
  0.2777778E+00  0.0000000E+00  0.3535353E-01  0.4559806E-06  0.0000000E+00 -0.8098421E-05
  0.2878788E+00  0.0000000E+00  0.3535353E-01  0.4620534E-06  0.0000000E+00 -0.7959997E-05
  0.2979798E+00  0.0000000E+00  0.3535353E-01  0.4660383E-06  0.0000000E+00 -0.7819810E-05