title = "dataset water"
variables = "x", "y", "z", "vx", "vy", "vz"
zone t = "velocities, solution time =  5.500E+01 days        " i =   99, j =   99, k =    1,  f=point
  0.5050505E-02  0.0000000E+00  0.5050505E-02  0.1828977E-06  0.0000000E+00  0.2222341E-03
  0.1515152E-01  0.0000000E+00  0.5050505E-02  0.5499263E-06  0.0000000E+00  0.2229893E-03
  0.2525252E-01  0.0000000E+00  0.5050505E-02  0.9207122E-06  0.0000000E+00  0.2245049E-03
  0.3535353E-01  0.0000000E+00  0.5050505E-02  0.1297886E-05  0.0000000E+00  0.2267918E-03
  0.4545455E-01  0.0000000E+00  0.5050505E-02  0.1684234E-05  0.0000000E+00  0.2298665E-03
  0.5555556E-01  0.0000000E+00  0.5050505E-02  0.2082757E-05  0.0000000E+00  0.2337519E-03
  0.6565657E-01  0.0000000E+00  0.5050505E-02  0.2496737E-05  0.0000000E+00  0.2384777E-03
  0.7575758E-01  0.0000000E+00  0.5050505E-02  0.2929824E-05  0.0000000E+00  0.2440807E-03
  0.8585858E-01  0.0000000E+00  0.5050505E-02  0.3386125E-05  0.0000000E+00  0.2506066E-03
  0.9595960E-01  0.0000000E+00  0.5050505E-02  0.3870320E-05  0.0000000E+00  0.2581101E-03
  0.1060606E+00  0.0000000E+00  0.5050505E-02  0.4387795E-05  0.0000000E+00  0.2666571E-03
  0.1161616E+00  0.0000000E+00  0.5050505E-02  0.4944798E-05  0.0000000E+00  0.2763263E-03
  0.1262626E+00  0.0000000E+00  0.5050505E-02  0.5548614E-05  0.0000000E+00  0.2872110E-03
  0.1363636E+00  0.0000000E+00  0.5050505E-02  0.6207753E-05  0.0000000E+00  0.2994218E-03
  0.1464646E+00  0.0000000E+00  0.5050505E-02  0.6932107E-05  0.0000000E+00  0.3130898E-03
  0.1565657E+00  0.0000000E+00  0.5050505E-02  0.7732999E-05  0.0000000E+00  0.3283697E-03
  0.1666667E+00  0.0000000E+00  0.5050505E-02  0.8622912E-05  0.0000000E+00  0.3454429E-03
  0.1767677E+00  0.0000000E+00  0.5050505E-02  0.9614459E-05  0.0000000E+00  0.3645194E-03
  0.1868687E+00  0.0000000E+00  0.5050505E-02  0.1071768E-04  0.0000000E+00  0.3858363E-03
  0.1969697E+00  0.0000000E+00  0.5050505E-02  0.1193406E-04  0.0000000E+00  0.4096465E-03
  0.2070707E+00  0.0000000E+00  0.5050505E-02  0.1324482E-04  0.0000000E+00  0.4361892E-03
  0.2171717E+00  0.0000000E+00  0.5050505E-02  0.1459219E-04  0.0000000E+00  0.4656281E-03
  0.2272727E+00  0.0000000E+00  0.5050505E-02  0.1586073E-04  0.0000000E+00  0.4979474E-03
  0.2373737E+00  0.0000000E+00  0.5050505E-02  0.1689499E-04  0.0000000E+00  0.5328455E-03
  0.2474747E+00  0.0000000E+00  0.5050505E-02  0.1763690E-04  0.0000000E+00  0.5697895E-03
  0.2575758E+00  0.0000000E+00  0.5050505E-02  0.1837176E-04  0.0000000E+00  0.6084843E-03
  0.2676768E+00  0.0000000E+00  0.5050505E-02  0.1925524E-04  0.0000000E+00  0.6491060E-03
  0.2777778E+00  0.0000000E+00  0.5050505E-02  0.2039348E-04  0.0000000E+00  0.6921192E-03
  0.2878788E+00  0.0000000E+00  0.5050505E-02  0.2185102E-04  0.0000000E+00  0.7381849E-03
  0.2979798E+00  0.0000000E+00  0.5050505E-02  0.2373831E-04  0.0000000E+00  0.7881726E-03
  0.3080808E+00  0.0000000E+00  0.5050505E-02  0.2628726E-04  0.0000000E+00  0.8433532E-03
  0.3181818E+00  0.0000000E+00  0.5050505E-02  0.2986679E-04  0.0000000E+00  0.9057041E-03
  0.3282828E+00  0.0000000E+00  0.5050505E-02  0.3446809E-04  0.0000000E+00  0.9776717E-03
  0.3383838E+00  0.0000000E+00  0.5050505E-02  0.3601070E-04  0.0000000E+00  0.1057170E-02
  0.3484848E+00  0.0000000E+00  0.5050505E-02  0.3775512E-04  0.0000000E+00  0.1141158E-02
  0.3585859E+00  0.0000000E+00  0.5050505E-02  0.4522114E-04  0.0000000E+00  0.1236599E-02
  0.3686869E+00  0.0000000E+00  0.5050505E-02  0.6334027E-04  0.0000000E+00  0.1362941E-02
  0.3787879E+00  0.0000000E+00  0.5050505E-02  0.6827181E-04  0.0000000E+00  0.1518268E-02
  0.3888889E+00  0.0000000E+00  0.5050505E-02  0.6505459E-04  0.0000000E+00  0.1678383E-02
  0.3989899E+00  0.0000000E+00  0.5050505E-02  0.7689478E-04  0.0000000E+00  0.1852189E-02
  0.4090909E+00  0.0000000E+00  0.5050505E-02  0.8630019E-04  0.0000000E+00  0.2055989E-02
  0.4191919E+00  0.0000000E+00  0.5050505E-02  0.9585254E-04  0.0000000E+00  0.2288788E-02
  0.4292929E+00  0.0000000E+00  0.5050505E-02  0.6643843E-04  0.0000000E+00  0.2501033E-02
  0.4393939E+00  0.0000000E+00  0.5050505E-02  0.9941373E-04  0.0000000E+00  0.2724116E-02
  0.4494950E+00  0.0000000E+00  0.5050505E-02  0.1685945E-03  0.0000000E+00  0.3094316E-02
  0.4595959E+00  0.0000000E+00  0.5050505E-02  0.2013498E-03  0.0000000E+00  0.3625682E-02
  0.4696970E+00  0.0000000E+00  0.5050505E-02  0.4620774E-05  0.0000000E+00  0.3928847E-02
  0.4797980E+00  0.0000000E+00  0.5050505E-02 -0.5134704E-04  0.0000000E+00  0.3856914E-02
  0.4898990E+00  0.0000000E+00  0.5050505E-02 -0.1735610E-03  0.0000000E+00  0.3524275E-02
  0.5000000E+00  0.0000000E+00  0.5050505E-02 -0.1576915E-03  0.0000000E+00  0.3051248E-02
  0.5101010E+00  0.0000000E+00  0.5050505E-02 -0.8578739E-04  0.0000000E+00  0.2715278E-02
  0.5202020E+00  0.0000000E+00  0.5050505E-02 -0.6955764E-04  0.0000000E+00  0.2506386E-02
  0.5303030E+00  0.0000000E+00  0.5050505E-02 -0.4502743E-04  0.0000000E+00  0.2354834E-02
  0.5404040E+00  0.0000000E+00  0.5050505E-02 -0.5120069E-04  0.0000000E+00  0.2229569E-02
  0.5505050E+00  0.0000000E+00  0.5050505E-02 -0.1089158E-03  0.0000000E+00  0.2026865E-02
  0.5606061E+00  0.0000000E+00  0.5050505E-02 -0.8292354E-04  0.0000000E+00  0.1788791E-02
  0.5707071E+00  0.0000000E+00  0.5050505E-02 -0.5422971E-04  0.0000000E+00  0.1621809E-02
  0.5808081E+00  0.0000000E+00  0.5050505E-02 -0.7200725E-04  0.0000000E+00  0.1471203E-02
  0.5909091E+00  0.0000000E+00  0.5050505E-02 -0.5141659E-04  0.0000000E+00  0.1326041E-02
  0.6010101E+00  0.0000000E+00  0.5050505E-02 -0.4039687E-04  0.0000000E+00  0.1219443E-02
  0.6111111E+00  0.0000000E+00  0.5050505E-02 -0.3231692E-04  0.0000000E+00  0.1135855E-02
  0.6212121E+00  0.0000000E+00  0.5050505E-02 -0.2576671E-04  0.0000000E+00  0.1069608E-02
  0.6313131E+00  0.0000000E+00  0.5050505E-02 -0.5321045E-04  0.0000000E+00  0.9807178E-03
  0.6414142E+00  0.0000000E+00  0.5050505E-02 -0.3697395E-04  0.0000000E+00  0.8800791E-03
  0.6515151E+00  0.0000000E+00  0.5050505E-02 -0.2980886E-04  0.0000000E+00  0.8062371E-03
  0.6616161E+00  0.0000000E+00  0.5050505E-02 -0.2576879E-04  0.0000000E+00  0.7452387E-03
  0.6717172E+00  0.0000000E+00  0.5050505E-02 -0.2305957E-04  0.0000000E+00  0.6919904E-03
  0.6818182E+00  0.0000000E+00  0.5050505E-02 -0.2101433E-04  0.0000000E+00  0.6442019E-03
  0.6919192E+00  0.0000000E+00  0.5050505E-02 -0.1931363E-04  0.0000000E+00  0.6007025E-03
  0.7020202E+00  0.0000000E+00  0.5050505E-02 -0.1779080E-04  0.0000000E+00  0.5608709E-03
  0.7121212E+00  0.0000000E+00  0.5050505E-02 -0.1637032E-04  0.0000000E+00  0.5243592E-03
  0.7222222E+00  0.0000000E+00  0.5050505E-02 -0.1502694E-04  0.0000000E+00  0.4909360E-03
  0.7323232E+00  0.0000000E+00  0.5050505E-02 -0.1375849E-04  0.0000000E+00  0.4604055E-03
  0.7424242E+00  0.0000000E+00  0.5050505E-02 -0.1257026E-04  0.0000000E+00  0.4325741E-03
  0.7525253E+00  0.0000000E+00  0.5050505E-02 -0.1146736E-04  0.0000000E+00  0.4072421E-03
  0.7626263E+00  0.0000000E+00  0.5050505E-02 -0.1045187E-04  0.0000000E+00  0.3842067E-03
  0.7727273E+00  0.0000000E+00  0.5050505E-02 -0.9522451E-05  0.0000000E+00  0.3632683E-03
  0.7828283E+00  0.0000000E+00  0.5050505E-02 -0.8675007E-05  0.0000000E+00  0.3442364E-03
  0.7929293E+00  0.0000000E+00  0.5050505E-02 -0.7903679E-05  0.0000000E+00  0.3269338E-03
  0.8030303E+00  0.0000000E+00  0.5050505E-02 -0.7201688E-05  0.0000000E+00  0.3111989E-03
  0.8131313E+00  0.0000000E+00  0.5050505E-02 -0.6561979E-05  0.0000000E+00  0.2968864E-03
  0.8232324E+00  0.0000000E+00  0.5050505E-02 -0.5977649E-05  0.0000000E+00  0.2838674E-03
  0.8333333E+00  0.0000000E+00  0.5050505E-02 -0.5442199E-05  0.0000000E+00  0.2720280E-03
  0.8434343E+00  0.0000000E+00  0.5050505E-02 -0.4949658E-05  0.0000000E+00  0.2612684E-03
  0.8535354E+00  0.0000000E+00  0.5050505E-02 -0.4494630E-05  0.0000000E+00  0.2515015E-03
  0.8636364E+00  0.0000000E+00  0.5050505E-02 -0.4072289E-05  0.0000000E+00  0.2426515E-03
  0.8737374E+00  0.0000000E+00  0.5050505E-02 -0.3678346E-05  0.0000000E+00  0.2346525E-03
  0.8838384E+00  0.0000000E+00  0.5050505E-02 -0.3309005E-05  0.0000000E+00  0.2274475E-03
  0.8939394E+00  0.0000000E+00  0.5050505E-02 -0.2960910E-05  0.0000000E+00  0.2209874E-03
  0.9040404E+00  0.0000000E+00  0.5050505E-02 -0.2631091E-05  0.0000000E+00  0.2152298E-03
  0.9141414E+00  0.0000000E+00  0.5050505E-02 -0.2316915E-05  0.0000000E+00  0.2101385E-03
  0.9242424E+00  0.0000000E+00  0.5050505E-02 -0.2016039E-05  0.0000000E+00  0.2056824E-03
  0.9343435E+00  0.0000000E+00  0.5050505E-02 -0.1726366E-05  0.0000000E+00  0.2018355E-03
  0.9444444E+00  0.0000000E+00  0.5050505E-02 -0.1446007E-05  0.0000000E+00  0.1985758E-03
  0.9545454E+00  0.0000000E+00  0.5050505E-02 -0.1173247E-05  0.0000000E+00  0.1958853E-03
  0.9646465E+00  0.0000000E+00  0.5050505E-02 -0.9065101E-06  0.0000000E+00  0.1937495E-03
  0.9747475E+00  0.0000000E+00  0.5050505E-02 -0.6443358E-06  0.0000000E+00  0.1921572E-03
  0.9848485E+00  0.0000000E+00  0.5050505E-02 -0.3853499E-06  0.0000000E+00  0.1911002E-03
  0.9974747E+00  0.0000000E+00  0.5050505E-02 -0.1282440E-06  0.0000000E+00  0.1905730E-03
  0.5050505E-02  0.0000000E+00  0.1515152E-01  0.5471399E-06  0.0000000E+00  0.2218103E-03
  0.1515152E-01  0.0000000E+00  0.1515152E-01  0.1645113E-05  0.0000000E+00  0.2225616E-03
  0.2525252E-01  0.0000000E+00  0.1515152E-01  0.2754315E-05  0.0000000E+00  0.2240695E-03
  0.3535353E-01  0.0000000E+00  0.1515152E-01  0.3882589E-05  0.0000000E+00  0.2263444E-03
  0.4545455E-01  0.0000000E+00  0.1515152E-01  0.5038235E-05  0.0000000E+00  0.2294027E-03
  0.5555556E-01  0.0000000E+00  0.1515152E-01  0.6230185E-05  0.0000000E+00  0.2332667E-03
  0.6565657E-01  0.0000000E+00  0.1515152E-01  0.7468214E-05  0.0000000E+00  0.2379655E-03
  0.7575758E-01  0.0000000E+00  0.1515152E-01  0.8763176E-05  0.0000000E+00  0.2435354E-03
  0.8585858E-01  0.0000000E+00  0.1515152E-01  0.1012729E-04  0.0000000E+00  0.2500208E-03
  0.9595960E-01  0.0000000E+00  0.1515152E-01  0.1157447E-04  0.0000000E+00  0.2574757E-03
  0.1060606E+00  0.0000000E+00  0.1515152E-01  0.1312072E-04  0.0000000E+00  0.2659643E-03
  0.1161616E+00  0.0000000E+00  0.1515152E-01  0.1478464E-04  0.0000000E+00  0.2755635E-03
  0.1262626E+00  0.0000000E+00  0.1515152E-01  0.1658790E-04  0.0000000E+00  0.2863647E-03
  0.1363636E+00  0.0000000E+00  0.1515152E-01  0.1855589E-04  0.0000000E+00  0.2984760E-03
  0.1464646E+00  0.0000000E+00  0.1515152E-01  0.2071826E-04  0.0000000E+00  0.3120259E-03
  0.1565657E+00  0.0000000E+00  0.1515152E-01  0.2310923E-04  0.0000000E+00  0.3271666E-03
  0.1666667E+00  0.0000000E+00  0.1515152E-01  0.2576725E-04  0.0000000E+00  0.3440785E-03
  0.1767677E+00  0.0000000E+00  0.1515152E-01  0.2873270E-04  0.0000000E+00  0.3629742E-03
  0.1868687E+00  0.0000000E+00  0.1515152E-01  0.3204137E-04  0.0000000E+00  0.3841018E-03
  0.1969697E+00  0.0000000E+00  0.1515152E-01  0.3570858E-04  0.0000000E+00  0.4077430E-03
  0.2070707E+00  0.0000000E+00  0.1515152E-01  0.3969530E-04  0.0000000E+00  0.4341959E-03
  0.2171717E+00  0.0000000E+00  0.1515152E-01  0.4384471E-04  0.0000000E+00  0.4637198E-03
  0.2272727E+00  0.0000000E+00  0.1515152E-01  0.4779209E-04  0.0000000E+00  0.4963953E-03
  0.2373737E+00  0.0000000E+00  0.1515152E-01  0.5094041E-04  0.0000000E+00  0.5318614E-03
  0.2474747E+00  0.0000000E+00  0.1515152E-01  0.5288727E-04  0.0000000E+00  0.5691432E-03
  0.2575758E+00  0.0000000E+00  0.1515152E-01  0.5493644E-04  0.0000000E+00  0.6077325E-03
  0.2676768E+00  0.0000000E+00  0.1515152E-01  0.5747881E-04  0.0000000E+00  0.6479867E-03
  0.2777778E+00  0.0000000E+00  0.1515152E-01  0.6082366E-04  0.0000000E+00  0.6904632E-03
  0.2878788E+00  0.0000000E+00  0.1515152E-01  0.6508245E-04  0.0000000E+00  0.7358189E-03
  0.2979798E+00  0.0000000E+00  0.1515152E-01  0.7051751E-04  0.0000000E+00  0.7847547E-03
  0.3080808E+00  0.0000000E+00  0.1515152E-01  0.7781268E-04  0.0000000E+00  0.8382818E-03
  0.3181818E+00  0.0000000E+00  0.1515152E-01  0.8854082E-04  0.0000000E+00  0.8986166E-03
  0.3282828E+00  0.0000000E+00  0.1515152E-01  0.1059593E-03  0.0000000E+00  0.9726551E-03
  0.3383838E+00  0.0000000E+00  0.1515152E-01  0.1075795E-03  0.0000000E+00  0.1055043E-02
  0.3484848E+00  0.0000000E+00  0.1515152E-01  0.1079086E-03  0.0000000E+00  0.1133140E-02
  0.3585859E+00  0.0000000E+00  0.1515152E-01  0.1260419E-03  0.0000000E+00  0.1212236E-02
  0.3686869E+00  0.0000000E+00  0.1515152E-01  0.1506486E-03  0.0000000E+00  0.1282477E-02
  0.3787879E+00  0.0000000E+00  0.1515152E-01  0.1635632E-03  0.0000000E+00  0.1343649E-02
  0.3888889E+00  0.0000000E+00  0.1515152E-01  0.1846782E-03  0.0000000E+00  0.1441813E-02
  0.3989899E+00  0.0000000E+00  0.1515152E-01  0.2105223E-03  0.0000000E+00  0.1577050E-02
  0.4090909E+00  0.0000000E+00  0.1515152E-01  0.2243030E-03  0.0000000E+00  0.1711797E-02
  0.4191919E+00  0.0000000E+00  0.1515152E-01  0.2554285E-03  0.0000000E+00  0.1858717E-02
  0.4292929E+00  0.0000000E+00  0.1515152E-01  0.2538872E-03  0.0000000E+00  0.2098920E-02
  0.4393939E+00  0.0000000E+00  0.1515152E-01  0.3270371E-03  0.0000000E+00  0.2433050E-02
  0.4494950E+00  0.0000000E+00  0.1515152E-01  0.4672033E-03  0.0000000E+00  0.2797098E-02
  0.4595959E+00  0.0000000E+00  0.1515152E-01  0.4700869E-03  0.0000000E+00  0.3097197E-02
  0.4696970E+00  0.0000000E+00  0.1515152E-01  0.1355215E-03  0.0000000E+00  0.3415141E-02
  0.4797980E+00  0.0000000E+00  0.1515152E-01 -0.2052047E-03  0.0000000E+00  0.3450845E-02
  0.4898990E+00  0.0000000E+00  0.1515152E-01 -0.5015590E-03  0.0000000E+00  0.3048166E-02
  0.5000000E+00  0.0000000E+00  0.1515152E-01 -0.3764173E-03  0.0000000E+00  0.2723030E-02
  0.5101010E+00  0.0000000E+00  0.1515152E-01 -0.2342765E-03  0.0000000E+00  0.2539556E-02
  0.5202020E+00  0.0000000E+00  0.1515152E-01 -0.1893396E-03  0.0000000E+00  0.2378055E-02
  0.5303030E+00  0.0000000E+00  0.1515152E-01 -0.1294094E-03  0.0000000E+00  0.2252544E-02
  0.5404040E+00  0.0000000E+00  0.1515152E-01 -0.2042870E-03  0.0000000E+00  0.2064934E-02
  0.5505050E+00  0.0000000E+00  0.1515152E-01 -0.2754054E-03  0.0000000E+00  0.1858080E-02
  0.5606061E+00  0.0000000E+00  0.1515152E-01 -0.2268646E-03  0.0000000E+00  0.1708207E-02
  0.5707071E+00  0.0000000E+00  0.1515152E-01 -0.1745794E-03  0.0000000E+00  0.1551698E-02
  0.5808081E+00  0.0000000E+00  0.1515152E-01 -0.1960942E-03  0.0000000E+00  0.1409076E-02
  0.5909091E+00  0.0000000E+00  0.1515152E-01 -0.1456196E-03  0.0000000E+00  0.1296409E-02
  0.6010101E+00  0.0000000E+00  0.1515152E-01 -0.1182964E-03  0.0000000E+00  0.1202190E-02
  0.6111111E+00  0.0000000E+00  0.1515152E-01 -0.9533627E-04  0.0000000E+00  0.1122949E-02
  0.6212121E+00  0.0000000E+00  0.1515152E-01 -0.1142613E-03  0.0000000E+00  0.1016558E-02
  0.6313131E+00  0.0000000E+00  0.1515152E-01 -0.1311443E-03  0.0000000E+00  0.9178589E-03
  0.6414142E+00  0.0000000E+00  0.1515152E-01 -0.1027075E-03  0.0000000E+00  0.8580358E-03
  0.6515151E+00  0.0000000E+00  0.1515152E-01 -0.8654484E-04  0.0000000E+00  0.7962754E-03
  0.6616161E+00  0.0000000E+00  0.1515152E-01 -0.7605095E-04  0.0000000E+00  0.7396322E-03
  0.6717172E+00  0.0000000E+00  0.1515152E-01 -0.6853658E-04  0.0000000E+00  0.6882907E-03
  0.6818182E+00  0.0000000E+00  0.1515152E-01 -0.6270021E-04  0.0000000E+00  0.6414328E-03
  0.6919192E+00  0.0000000E+00  0.1515152E-01 -0.5775776E-04  0.0000000E+00  0.5983859E-03
  0.7020202E+00  0.0000000E+00  0.1515152E-01 -0.5326407E-04  0.0000000E+00  0.5587707E-03
  0.7121212E+00  0.0000000E+00  0.1515152E-01 -0.4902952E-04  0.0000000E+00  0.5223796E-03
  0.7222222E+00  0.0000000E+00  0.1515152E-01 -0.4500356E-04  0.0000000E+00  0.4890540E-03
  0.7323232E+00  0.0000000E+00  0.1515152E-01 -0.4119439E-04  0.0000000E+00  0.4586282E-03
  0.7424242E+00  0.0000000E+00  0.1515152E-01 -0.3762532E-04  0.0000000E+00  0.4309158E-03
  0.7525253E+00  0.0000000E+00  0.1515152E-01 -0.3431469E-04  0.0000000E+00  0.4057139E-03
  0.7626263E+00  0.0000000E+00  0.1515152E-01 -0.3126929E-04  0.0000000E+00  0.3828131E-03
  0.7727273E+00  0.0000000E+00  0.1515152E-01 -0.2848458E-04  0.0000000E+00  0.3620075E-03
  0.7828283E+00  0.0000000E+00  0.1515152E-01 -0.2594748E-04  0.0000000E+00  0.3431019E-03
  0.7929293E+00  0.0000000E+00  0.1515152E-01 -0.2363965E-04  0.0000000E+00  0.3259162E-03
  0.8030303E+00  0.0000000E+00  0.1515152E-01 -0.2154015E-04  0.0000000E+00  0.3102873E-03
  0.8131313E+00  0.0000000E+00  0.1515152E-01 -0.1962742E-04  0.0000000E+00  0.2960698E-03
  0.8232324E+00  0.0000000E+00  0.1515152E-01 -0.1788053E-04  0.0000000E+00  0.2831347E-03
  0.8333333E+00  0.0000000E+00  0.1515152E-01 -0.1627985E-04  0.0000000E+00  0.2713691E-03
  0.8434343E+00  0.0000000E+00  0.1515152E-01 -0.1480742E-04  0.0000000E+00  0.2606739E-03
  0.8535354E+00  0.0000000E+00  0.1515152E-01 -0.1344704E-04  0.0000000E+00  0.2509631E-03
  0.8636364E+00  0.0000000E+00  0.1515152E-01 -0.1218426E-04  0.0000000E+00  0.2421617E-03
  0.8737374E+00  0.0000000E+00  0.1515152E-01 -0.1100626E-04  0.0000000E+00  0.2342047E-03
  0.8838384E+00  0.0000000E+00  0.1515152E-01 -0.9901688E-05  0.0000000E+00  0.2270359E-03
  0.8939394E+00  0.0000000E+00  0.1515152E-01 -0.8860523E-05  0.0000000E+00  0.2206069E-03
  0.9040404E+00  0.0000000E+00  0.1515152E-01 -0.7873899E-05  0.0000000E+00  0.2148759E-03
  0.9141414E+00  0.0000000E+00  0.1515152E-01 -0.6933960E-05  0.0000000E+00  0.2098070E-03
  0.9242424E+00  0.0000000E+00  0.1515152E-01 -0.6033714E-05  0.0000000E+00  0.2053700E-03
  0.9343435E+00  0.0000000E+00  0.1515152E-01 -0.5166906E-05  0.0000000E+00  0.2015389E-03
  0.9444444E+00  0.0000000E+00  0.1515152E-01 -0.4327902E-05  0.0000000E+00  0.1982922E-03
  0.9545454E+00  0.0000000E+00  0.1515152E-01 -0.3511585E-05  0.0000000E+00  0.1956122E-03
  0.9646465E+00  0.0000000E+00  0.1515152E-01 -0.2713256E-05  0.0000000E+00  0.1934846E-03
  0.9747475E+00  0.0000000E+00  0.1515152E-01 -0.1928557E-05  0.0000000E+00  0.1918982E-03
  0.9848485E+00  0.0000000E+00  0.1515152E-01 -0.1153389E-05  0.0000000E+00  0.1908450E-03
  0.9974747E+00  0.0000000E+00  0.1515152E-01 -0.3838455E-06  0.0000000E+00  0.1903197E-03
  0.5050505E-02  0.0000000E+00  0.2525252E-01  0.9074064E-06  0.0000000E+00  0.2209768E-03
  0.1515152E-01  0.0000000E+00  0.2525252E-01  0.2728328E-05  0.0000000E+00  0.2217206E-03
  0.2525252E-01  0.0000000E+00  0.2525252E-01  0.4567792E-05  0.0000000E+00  0.2232132E-03
  0.3535353E-01  0.0000000E+00  0.2525252E-01  0.6438709E-05  0.0000000E+00  0.2254646E-03
  0.4545455E-01  0.0000000E+00  0.2525252E-01  0.8354728E-05  0.0000000E+00  0.2284906E-03
  0.5555556E-01  0.0000000E+00  0.2525252E-01  0.1033053E-04  0.0000000E+00  0.2323126E-03
  0.6565657E-01  0.0000000E+00  0.2525252E-01  0.1238215E-04  0.0000000E+00  0.2369585E-03
  0.7575758E-01  0.0000000E+00  0.2525252E-01  0.1452739E-04  0.0000000E+00  0.2424634E-03
  0.8585858E-01  0.0000000E+00  0.2525252E-01  0.1678629E-04  0.0000000E+00  0.2488697E-03
  0.9595960E-01  0.0000000E+00  0.2525252E-01  0.1918162E-04  0.0000000E+00  0.2562291E-03
  0.1060606E+00  0.0000000E+00  0.2525252E-01  0.2173961E-04  0.0000000E+00  0.2646032E-03
  0.1161616E+00  0.0000000E+00  0.2525252E-01  0.2449068E-04  0.0000000E+00  0.2740655E-03
  0.1262626E+00  0.0000000E+00  0.2525252E-01  0.2747039E-04  0.0000000E+00  0.2847029E-03
  0.1363636E+00  0.0000000E+00  0.2525252E-01  0.3072049E-04  0.0000000E+00  0.2966188E-03
  0.1464646E+00  0.0000000E+00  0.2525252E-01  0.3429011E-04  0.0000000E+00  0.3099361E-03
  0.1565657E+00  0.0000000E+00  0.2525252E-01  0.3823682E-04  0.0000000E+00  0.3248012E-03
  0.1666667E+00  0.0000000E+00  0.2525252E-01  0.4262722E-04  0.0000000E+00  0.3413899E-03
  0.1767677E+00  0.0000000E+00  0.2525252E-01  0.4753574E-04  0.0000000E+00  0.3599154E-03
  0.1868687E+00  0.0000000E+00  0.2525252E-01  0.5303888E-04  0.0000000E+00  0.3806400E-03
  0.1969697E+00  0.0000000E+00  0.2525252E-01  0.5919765E-04  0.0000000E+00  0.4038911E-03
  0.2070707E+00  0.0000000E+00  0.2525252E-01  0.6601182E-04  0.0000000E+00  0.4300790E-03
  0.2171717E+00  0.0000000E+00  0.2525252E-01  0.7330791E-04  0.0000000E+00  0.4596907E-03
  0.2272727E+00  0.0000000E+00  0.2525252E-01  0.8048936E-04  0.0000000E+00  0.4931462E-03
  0.2373737E+00  0.0000000E+00  0.2525252E-01  0.8610830E-04  0.0000000E+00  0.5301755E-03
  0.2474747E+00  0.0000000E+00  0.2525252E-01  0.8800595E-04  0.0000000E+00  0.5683397E-03
  0.2575758E+00  0.0000000E+00  0.2525252E-01  0.9098396E-04  0.0000000E+00  0.6065523E-03
  0.2676768E+00  0.0000000E+00  0.2525252E-01  0.9488139E-04  0.0000000E+00  0.6459923E-03
  0.2777778E+00  0.0000000E+00  0.2525252E-01  0.1003134E-03  0.0000000E+00  0.6874093E-03
  0.2878788E+00  0.0000000E+00  0.2525252E-01  0.1071113E-03  0.0000000E+00  0.7315119E-03
  0.2979798E+00  0.0000000E+00  0.2525252E-01  0.1154432E-03  0.0000000E+00  0.7785934E-03
  0.3080808E+00  0.0000000E+00  0.2525252E-01  0.1260302E-03  0.0000000E+00  0.8286093E-03
  0.3181818E+00  0.0000000E+00  0.2525252E-01  0.1409573E-03  0.0000000E+00  0.8809589E-03
  0.3282828E+00  0.0000000E+00  0.2525252E-01  0.1649955E-03  0.0000000E+00  0.9327070E-03
  0.3383838E+00  0.0000000E+00  0.2525252E-01  0.1801398E-03  0.0000000E+00  0.1000055E-02
  0.3484848E+00  0.0000000E+00  0.2525252E-01  0.1877355E-03  0.0000000E+00  0.1097088E-02
  0.3585859E+00  0.0000000E+00  0.2525252E-01  0.2004534E-03  0.0000000E+00  0.1197714E-02
  0.3686869E+00  0.0000000E+00  0.2525252E-01  0.1968042E-03  0.0000000E+00  0.1270704E-02
  0.3787879E+00  0.0000000E+00  0.2525252E-01  0.2031701E-03  0.0000000E+00  0.1314104E-02
  0.3888889E+00  0.0000000E+00  0.2525252E-01  0.2607227E-03  0.0000000E+00  0.1357500E-02
  0.3989899E+00  0.0000000E+00  0.2525252E-01  0.3045807E-03  0.0000000E+00  0.1431285E-02
  0.4090909E+00  0.0000000E+00  0.2525252E-01  0.3126757E-03  0.0000000E+00  0.1525002E-02
  0.4191919E+00  0.0000000E+00  0.2525252E-01  0.3581281E-03  0.0000000E+00  0.1623445E-02
  0.4292929E+00  0.0000000E+00  0.2525252E-01  0.4398174E-03  0.0000000E+00  0.1760388E-02
  0.4393939E+00  0.0000000E+00  0.2525252E-01  0.5274542E-03  0.0000000E+00  0.1945135E-02
  0.4494950E+00  0.0000000E+00  0.2525252E-01  0.6265264E-03  0.0000000E+00  0.2093861E-02
  0.4595959E+00  0.0000000E+00  0.2525252E-01  0.6287414E-03  0.0000000E+00  0.2282008E-02
  0.4696970E+00  0.0000000E+00  0.2525252E-01  0.4240423E-03  0.0000000E+00  0.2687113E-02
  0.4797980E+00  0.0000000E+00  0.2525252E-01 -0.4086355E-03  0.0000000E+00  0.2776057E-02
  0.4898990E+00  0.0000000E+00  0.2525252E-01 -0.7012058E-03  0.0000000E+00  0.2515431E-02
  0.5000000E+00  0.0000000E+00  0.2525252E-01 -0.4462008E-03  0.0000000E+00  0.2406745E-02
  0.5101010E+00  0.0000000E+00  0.2525252E-01 -0.3286208E-03  0.0000000E+00  0.2327950E-02
  0.5202020E+00  0.0000000E+00  0.2525252E-01 -0.2470492E-03  0.0000000E+00  0.2257844E-02
  0.5303030E+00  0.0000000E+00  0.2525252E-01 -0.2283523E-03  0.0000000E+00  0.2154724E-02
  0.5404040E+00  0.0000000E+00  0.2525252E-01 -0.3863545E-03  0.0000000E+00  0.1960283E-02
  0.5505050E+00  0.0000000E+00  0.2525252E-01 -0.4113636E-03  0.0000000E+00  0.1751370E-02
  0.5606061E+00  0.0000000E+00  0.2525252E-01 -0.3338834E-03  0.0000000E+00  0.1592029E-02
  0.5707071E+00  0.0000000E+00  0.2525252E-01 -0.3102886E-03  0.0000000E+00  0.1448708E-02
  0.5808081E+00  0.0000000E+00  0.2525252E-01 -0.2777704E-03  0.0000000E+00  0.1327783E-02
  0.5909091E+00  0.0000000E+00  0.2525252E-01 -0.2191922E-03  0.0000000E+00  0.1254426E-02
  0.6010101E+00  0.0000000E+00  0.2525252E-01 -0.1918206E-03  0.0000000E+00  0.1174921E-02
  0.6111111E+00  0.0000000E+00  0.2525252E-01 -0.1864599E-03  0.0000000E+00  0.1063275E-02
  0.6212121E+00  0.0000000E+00  0.2525252E-01 -0.2061212E-03  0.0000000E+00  0.9609308E-03
  0.6313131E+00  0.0000000E+00  0.2525252E-01 -0.1820896E-03  0.0000000E+00  0.8981884E-03
  0.6414142E+00  0.0000000E+00  0.2525252E-01 -0.1573572E-03  0.0000000E+00  0.8396617E-03
  0.6515151E+00  0.0000000E+00  0.2525252E-01 -0.1381088E-03  0.0000000E+00  0.7834062E-03
  0.6616161E+00  0.0000000E+00  0.2525252E-01 -0.1235906E-03  0.0000000E+00  0.7307428E-03
  0.6717172E+00  0.0000000E+00  0.2525252E-01 -0.1124600E-03  0.0000000E+00  0.6818778E-03
  0.6818182E+00  0.0000000E+00  0.2525252E-01 -0.1035591E-03  0.0000000E+00  0.6364191E-03
  0.6919192E+00  0.0000000E+00  0.2525252E-01 -0.9579377E-04  0.0000000E+00  0.5940452E-03
  0.7020202E+00  0.0000000E+00  0.2525252E-01 -0.8851126E-04  0.0000000E+00  0.5547232E-03
  0.7121212E+00  0.0000000E+00  0.2525252E-01 -0.8151300E-04  0.0000000E+00  0.5184966E-03
  0.7222222E+00  0.0000000E+00  0.2525252E-01 -0.7479742E-04  0.0000000E+00  0.4853297E-03
  0.7323232E+00  0.0000000E+00  0.2525252E-01 -0.6842435E-04  0.0000000E+00  0.4550998E-03
  0.7424242E+00  0.0000000E+00  0.2525252E-01 -0.6245463E-04  0.0000000E+00  0.4276231E-03
  0.7525253E+00  0.0000000E+00  0.2525252E-01 -0.5692666E-04  0.0000000E+00  0.4026831E-03
  0.7626263E+00  0.0000000E+00  0.2525252E-01 -0.5185227E-04  0.0000000E+00  0.3800539E-03
  0.7727273E+00  0.0000000E+00  0.2525252E-01 -0.4722136E-04  0.0000000E+00  0.3595154E-03
  0.7828283E+00  0.0000000E+00  0.2525252E-01 -0.4300899E-04  0.0000000E+00  0.3408628E-03
  0.7929293E+00  0.0000000E+00  0.2525252E-01 -0.3918182E-04  0.0000000E+00  0.3239102E-03
  0.8030303E+00  0.0000000E+00  0.2525252E-01 -0.3570297E-04  0.0000000E+00  0.3084921E-03
  0.8131313E+00  0.0000000E+00  0.2525252E-01 -0.3253519E-04  0.0000000E+00  0.2944625E-03
  0.8232324E+00  0.0000000E+00  0.2525252E-01 -0.2964279E-04  0.0000000E+00  0.2816935E-03
  0.8333333E+00  0.0000000E+00  0.2525252E-01 -0.2699267E-04  0.0000000E+00  0.2700734E-03
  0.8434343E+00  0.0000000E+00  0.2525252E-01 -0.2455474E-04  0.0000000E+00  0.2595054E-03
  0.8535354E+00  0.0000000E+00  0.2525252E-01 -0.2230201E-04  0.0000000E+00  0.2499050E-03
  0.8636364E+00  0.0000000E+00  0.2525252E-01 -0.2021048E-04  0.0000000E+00  0.2411993E-03
  0.8737374E+00  0.0000000E+00  0.2525252E-01 -0.1825888E-04  0.0000000E+00  0.2333250E-03
  0.8838384E+00  0.0000000E+00  0.2525252E-01 -0.1642845E-04  0.0000000E+00  0.2262274E-03
  0.8939394E+00  0.0000000E+00  0.2525252E-01 -0.1470264E-04  0.0000000E+00  0.2198595E-03
  0.9040404E+00  0.0000000E+00  0.2525252E-01 -0.1306680E-04  0.0000000E+00  0.2141807E-03
  0.9141414E+00  0.0000000E+00  0.2525252E-01 -0.1150798E-04  0.0000000E+00  0.2091563E-03
  0.9242424E+00  0.0000000E+00  0.2525252E-01 -0.1001464E-04  0.0000000E+00  0.2047566E-03
  0.9343435E+00  0.0000000E+00  0.2525252E-01 -0.8576481E-05  0.0000000E+00  0.2009567E-03
  0.9444444E+00  0.0000000E+00  0.2525252E-01 -0.7184205E-05  0.0000000E+00  0.1977357E-03
  0.9545454E+00  0.0000000E+00  0.2525252E-01 -0.5829375E-05  0.0000000E+00  0.1950763E-03
  0.9646465E+00  0.0000000E+00  0.2525252E-01 -0.4504250E-05  0.0000000E+00  0.1929645E-03
  0.9747475E+00  0.0000000E+00  0.2525252E-01 -0.3201640E-05  0.0000000E+00  0.1913898E-03
  0.9848485E+00  0.0000000E+00  0.2525252E-01 -0.1914785E-05  0.0000000E+00  0.1903442E-03
  0.9974747E+00  0.0000000E+00  0.2525252E-01 -0.6372381E-06  0.0000000E+00  0.1898226E-03
  0.5050505E-02  0.0000000E+00  0.3535353E-01  0.1262008E-05  0.0000000E+00  0.2197507E-03
  0.1515152E-01  0.0000000E+00  0.3535353E-01  0.3794453E-05  0.0000000E+00  0.2204835E-03
  0.2525252E-01  0.0000000E+00  0.3535353E-01  0.6352455E-05  0.0000000E+00  0.2219537E-03
  0.3535353E-01  0.0000000E+00  0.3535353E-01  0.8953766E-05  0.0000000E+00  0.2241708E-03
  0.4545455E-01  0.0000000E+00  0.3535353E-01  0.1161713E-04  0.0000000E+00  0.2271494E-03
  0.5555556E-01  0.0000000E+00  0.3535353E-01  0.1436266E-04  0.0000000E+00  0.2309101E-03
  0.6565657E-01  0.0000000E+00  0.3535353E-01  0.1721235E-04  0.0000000E+00  0.2354789E-03
  0.7575758E-01  0.0000000E+00  0.3535353E-01  0.2019052E-04  0.0000000E+00  0.2408888E-03
  0.8585858E-01  0.0000000E+00  0.3535353E-01  0.2332454E-04  0.0000000E+00  0.2471798E-03
  0.9595960E-01  0.0000000E+00  0.3535353E-01  0.2664548E-04  0.0000000E+00  0.2544003E-03
  0.1060606E+00  0.0000000E+00  0.3535353E-01  0.3018908E-04  0.0000000E+00  0.2626077E-03
  0.1161616E+00  0.0000000E+00  0.3535353E-01  0.3399678E-04  0.0000000E+00  0.2718704E-03
  0.1262626E+00  0.0000000E+00  0.3535353E-01  0.3811707E-04  0.0000000E+00  0.2822694E-03
  0.1363636E+00  0.0000000E+00  0.3535353E-01  0.4260704E-04  0.0000000E+00  0.2939003E-03
  0.1464646E+00  0.0000000E+00  0.3535353E-01  0.4753434E-04  0.0000000E+00  0.3068769E-03
  0.1565657E+00  0.0000000E+00  0.3535353E-01  0.5297949E-04  0.0000000E+00  0.3213350E-03
  0.1666667E+00  0.0000000E+00  0.3535353E-01  0.5903848E-04  0.0000000E+00  0.3374391E-03
  0.1767677E+00  0.0000000E+00  0.3535353E-01  0.6582547E-04  0.0000000E+00  0.3553930E-03
  0.1868687E+00  0.0000000E+00  0.3535353E-01  0.7347436E-04  0.0000000E+00  0.3754587E-03
  0.1969697E+00  0.0000000E+00  0.3535353E-01  0.8213534E-04  0.0000000E+00  0.3979945E-03
  0.2070707E+00  0.0000000E+00  0.3535353E-01  0.9195247E-04  0.0000000E+00  0.4235317E-03
  0.2171717E+00  0.0000000E+00  0.3535353E-01  0.1029695E-03  0.0000000E+00  0.4529227E-03
  0.2272727E+00  0.0000000E+00  0.3535353E-01  0.1147537E-03  0.0000000E+00  0.4875156E-03
  0.2373737E+00  0.0000000E+00  0.3535353E-01  0.1248492E-03  0.0000000E+00  0.5284999E-03
  0.2474747E+00  0.0000000E+00  0.3535353E-01  0.1221211E-03  0.0000000E+00  0.5686380E-03
  0.2575758E+00  0.0000000E+00  0.3535353E-01  0.1261638E-03  0.0000000E+00  0.6054280E-03
  0.2676768E+00  0.0000000E+00  0.3535353E-01  0.1308350E-03  0.0000000E+00  0.6434336E-03
  0.2777778E+00  0.0000000E+00  0.3535353E-01  0.1385048E-03  0.0000000E+00  0.6832313E-03
  0.2878788E+00  0.0000000E+00  0.3535353E-01  0.1476730E-03  0.0000000E+00  0.7259253E-03
  0.2979798E+00  0.0000000E+00  0.3535353E-01  0.1582195E-03  0.0000000E+00  0.7713192E-03