title = "dataset water"
variables = "x", "y", "z", "vx", "vy", "vz"
zone t = "velocities, solution time =  4.600E+01 days        " i =   99, j =   99, k =    1,  f=point
  0.5050505E-02  0.0000000E+00  0.5050505E-02  0.9906085E-07  0.0000000E+00  0.1083698E-03
  0.1515152E-01  0.0000000E+00  0.5050505E-02  0.2976375E-06  0.0000000E+00  0.1087730E-03
  0.2525252E-01  0.0000000E+00  0.5050505E-02  0.4975918E-06  0.0000000E+00  0.1095812E-03
  0.3535353E-01  0.0000000E+00  0.5050505E-02  0.6998676E-06  0.0000000E+00  0.1107984E-03
  0.4545455E-01  0.0000000E+00  0.5050505E-02  0.9054355E-06  0.0000000E+00  0.1124304E-03
  0.5555556E-01  0.0000000E+00  0.5050505E-02  0.1115302E-05  0.0000000E+00  0.1144851E-03
  0.6565657E-01  0.0000000E+00  0.5050505E-02  0.1330519E-05  0.0000000E+00  0.1169726E-03
  0.7575758E-01  0.0000000E+00  0.5050505E-02  0.1552195E-05  0.0000000E+00  0.1199054E-03
  0.8585858E-01  0.0000000E+00  0.5050505E-02  0.1781506E-05  0.0000000E+00  0.1232982E-03
  0.9595960E-01  0.0000000E+00  0.5050505E-02  0.2019710E-05  0.0000000E+00  0.1271684E-03
  0.1060606E+00  0.0000000E+00  0.5050505E-02  0.2268161E-05  0.0000000E+00  0.1315362E-03
  0.1161616E+00  0.0000000E+00  0.5050505E-02  0.2528328E-05  0.0000000E+00  0.1364247E-03
  0.1262626E+00  0.0000000E+00  0.5050505E-02  0.2801812E-05  0.0000000E+00  0.1418603E-03
  0.1363636E+00  0.0000000E+00  0.5050505E-02  0.3090368E-05  0.0000000E+00  0.1478731E-03
  0.1464646E+00  0.0000000E+00  0.5050505E-02  0.3395927E-05  0.0000000E+00  0.1544970E-03
  0.1565657E+00  0.0000000E+00  0.5050505E-02  0.3720630E-05  0.0000000E+00  0.1617704E-03
  0.1666667E+00  0.0000000E+00  0.5050505E-02  0.4066849E-05  0.0000000E+00  0.1697365E-03
  0.1767677E+00  0.0000000E+00  0.5050505E-02  0.4437232E-05  0.0000000E+00  0.1784442E-03
  0.1868687E+00  0.0000000E+00  0.5050505E-02  0.4834734E-05  0.0000000E+00  0.1879482E-03
  0.1969697E+00  0.0000000E+00  0.5050505E-02  0.5262667E-05  0.0000000E+00  0.1983102E-03
  0.2070707E+00  0.0000000E+00  0.5050505E-02  0.5724750E-05  0.0000000E+00  0.2095999E-03
  0.2171717E+00  0.0000000E+00  0.5050505E-02  0.6225170E-05  0.0000000E+00  0.2218954E-03
  0.2272727E+00  0.0000000E+00  0.5050505E-02  0.6768663E-05  0.0000000E+00  0.2352850E-03
  0.2373737E+00  0.0000000E+00  0.5050505E-02  0.7360612E-05  0.0000000E+00  0.2498683E-03
  0.2474747E+00  0.0000000E+00  0.5050505E-02  0.8007207E-05  0.0000000E+00  0.2657581E-03
  0.2575758E+00  0.0000000E+00  0.5050505E-02  0.8715685E-05  0.0000000E+00  0.2830824E-03
  0.2676768E+00  0.0000000E+00  0.5050505E-02  0.9494738E-05  0.0000000E+00  0.3019875E-03
  0.2777778E+00  0.0000000E+00  0.5050505E-02  0.1035521E-04  0.0000000E+00  0.3226419E-03
  0.2878788E+00  0.0000000E+00  0.5050505E-02  0.1131131E-04  0.0000000E+00  0.3452430E-03
  0.2979798E+00  0.0000000E+00  0.5050505E-02  0.1238257E-04  0.0000000E+00  0.3700267E-03
  0.3080808E+00  0.0000000E+00  0.5050505E-02  0.1359716E-04  0.0000000E+00  0.3972830E-03
  0.3181818E+00  0.0000000E+00  0.5050505E-02  0.1499695E-04  0.0000000E+00  0.4273813E-03
  0.3282828E+00  0.0000000E+00  0.5050505E-02  0.1664530E-04  0.0000000E+00  0.4608095E-03
  0.3383838E+00  0.0000000E+00  0.5050505E-02  0.1863915E-04  0.0000000E+00  0.4982364E-03
  0.3484848E+00  0.0000000E+00  0.5050505E-02  0.2113002E-04  0.0000000E+00  0.5406117E-03
  0.3585859E+00  0.0000000E+00  0.5050505E-02  0.2436793E-04  0.0000000E+00  0.5893403E-03
  0.3686869E+00  0.0000000E+00  0.5050505E-02  0.2881394E-04  0.0000000E+00  0.6466356E-03
  0.3787879E+00  0.0000000E+00  0.5050505E-02  0.3548047E-04  0.0000000E+00  0.7163873E-03
  0.3888889E+00  0.0000000E+00  0.5050505E-02  0.4712248E-04  0.0000000E+00  0.8067733E-03
  0.3989899E+00  0.0000000E+00  0.5050505E-02  0.7294115E-04  0.0000000E+00  0.9396573E-03
  0.4090909E+00  0.0000000E+00  0.5050505E-02  0.7193348E-04  0.0000000E+00  0.1102318E-02
  0.4191919E+00  0.0000000E+00  0.5050505E-02  0.7710752E-04  0.0000000E+00  0.1272954E-02
  0.4292929E+00  0.0000000E+00  0.5050505E-02  0.4871214E-04  0.0000000E+00  0.1419512E-02
  0.4393939E+00  0.0000000E+00  0.5050505E-02  0.6610961E-04  0.0000000E+00  0.1556007E-02
  0.4494950E+00  0.0000000E+00  0.5050505E-02  0.8895979E-04  0.0000000E+00  0.1743338E-02
  0.4595959E+00  0.0000000E+00  0.5050505E-02  0.1366205E-03  0.0000000E+00  0.2022127E-02
  0.4696970E+00  0.0000000E+00  0.5050505E-02  0.1501095E-04  0.0000000E+00  0.2212086E-02
  0.4797980E+00  0.0000000E+00  0.5050505E-02 -0.2460119E-04  0.0000000E+00  0.2199736E-02
  0.4898990E+00  0.0000000E+00  0.5050505E-02 -0.1453845E-03  0.0000000E+00  0.1987413E-02
  0.5000000E+00  0.0000000E+00  0.5050505E-02 -0.8600185E-04  0.0000000E+00  0.1702649E-02
  0.5101010E+00  0.0000000E+00  0.5050505E-02 -0.6550298E-04  0.0000000E+00  0.1520397E-02
  0.5202020E+00  0.0000000E+00  0.5050505E-02 -0.6339326E-04  0.0000000E+00  0.1368209E-02
  0.5303030E+00  0.0000000E+00  0.5050505E-02 -0.5434026E-04  0.0000000E+00  0.1231339E-02
  0.5404040E+00  0.0000000E+00  0.5050505E-02 -0.3878131E-04  0.0000000E+00  0.1124393E-02
  0.5505050E+00  0.0000000E+00  0.5050505E-02 -0.5205559E-04  0.0000000E+00  0.1021515E-02
  0.5606061E+00  0.0000000E+00  0.5050505E-02 -0.4881697E-04  0.0000000E+00  0.9086437E-03
  0.5707071E+00  0.0000000E+00  0.5050505E-02 -0.3730549E-04  0.0000000E+00  0.8133154E-03
  0.5808081E+00  0.0000000E+00  0.5050505E-02 -0.3124349E-04  0.0000000E+00  0.7381352E-03
  0.5909091E+00  0.0000000E+00  0.5050505E-02 -0.2722336E-04  0.0000000E+00  0.6745037E-03
  0.6010101E+00  0.0000000E+00  0.5050505E-02 -0.2416331E-04  0.0000000E+00  0.6189504E-03
  0.6111111E+00  0.0000000E+00  0.5050505E-02 -0.2165969E-04  0.0000000E+00  0.5697044E-03
  0.6212121E+00  0.0000000E+00  0.5050505E-02 -0.1953213E-04  0.0000000E+00  0.5256695E-03
  0.6313131E+00  0.0000000E+00  0.5050505E-02 -0.1768481E-04  0.0000000E+00  0.4860730E-03
  0.6414142E+00  0.0000000E+00  0.5050505E-02 -0.1605931E-04  0.0000000E+00  0.4503258E-03
  0.6515151E+00  0.0000000E+00  0.5050505E-02 -0.1461641E-04  0.0000000E+00  0.4179558E-03
  0.6616161E+00  0.0000000E+00  0.5050505E-02 -0.1332793E-04  0.0000000E+00  0.3885726E-03
  0.6717172E+00  0.0000000E+00  0.5050505E-02 -0.1217250E-04  0.0000000E+00  0.3618456E-03
  0.6818182E+00  0.0000000E+00  0.5050505E-02 -0.1113316E-04  0.0000000E+00  0.3374908E-03
  0.6919192E+00  0.0000000E+00  0.5050505E-02 -0.1019597E-04  0.0000000E+00  0.3152615E-03
  0.7020202E+00  0.0000000E+00  0.5050505E-02 -0.9349069E-05  0.0000000E+00  0.2949417E-03
  0.7121212E+00  0.0000000E+00  0.5050505E-02 -0.8582208E-05  0.0000000E+00  0.2763417E-03
  0.7222222E+00  0.0000000E+00  0.5050505E-02 -0.7886402E-05  0.0000000E+00  0.2592941E-03
  0.7323232E+00  0.0000000E+00  0.5050505E-02 -0.7253721E-05  0.0000000E+00  0.2436516E-03
  0.7424242E+00  0.0000000E+00  0.5050505E-02 -0.6677142E-05  0.0000000E+00  0.2292835E-03
  0.7525253E+00  0.0000000E+00  0.5050505E-02 -0.6150439E-05  0.0000000E+00  0.2160746E-03
  0.7626263E+00  0.0000000E+00  0.5050505E-02 -0.5668091E-05  0.0000000E+00  0.2039226E-03
  0.7727273E+00  0.0000000E+00  0.5050505E-02 -0.5225198E-05  0.0000000E+00  0.1927373E-03
  0.7828283E+00  0.0000000E+00  0.5050505E-02 -0.4817414E-05  0.0000000E+00  0.1824384E-03
  0.7929293E+00  0.0000000E+00  0.5050505E-02 -0.4440880E-05  0.0000000E+00  0.1729548E-03
  0.8030303E+00  0.0000000E+00  0.5050505E-02 -0.4092170E-05  0.0000000E+00  0.1642233E-03
  0.8131313E+00  0.0000000E+00  0.5050505E-02 -0.3768239E-05  0.0000000E+00  0.1561880E-03
  0.8232324E+00  0.0000000E+00  0.5050505E-02 -0.3466374E-05  0.0000000E+00  0.1487991E-03
  0.8333333E+00  0.0000000E+00  0.5050505E-02 -0.3184159E-05  0.0000000E+00  0.1420124E-03
  0.8434343E+00  0.0000000E+00  0.5050505E-02 -0.2919433E-05  0.0000000E+00  0.1357885E-03
  0.8535354E+00  0.0000000E+00  0.5050505E-02 -0.2670263E-05  0.0000000E+00  0.1300926E-03
  0.8636364E+00  0.0000000E+00  0.5050505E-02 -0.2434914E-05  0.0000000E+00  0.1248937E-03
  0.8737374E+00  0.0000000E+00  0.5050505E-02 -0.2211823E-05  0.0000000E+00  0.1201644E-03
  0.8838384E+00  0.0000000E+00  0.5050505E-02 -0.1999578E-05  0.0000000E+00  0.1158804E-03
  0.8939394E+00  0.0000000E+00  0.5050505E-02 -0.1796901E-05  0.0000000E+00  0.1120203E-03
  0.9040404E+00  0.0000000E+00  0.5050505E-02 -0.1602624E-05  0.0000000E+00  0.1085653E-03
  0.9141414E+00  0.0000000E+00  0.5050505E-02 -0.1415683E-05  0.0000000E+00  0.1054989E-03
  0.9242424E+00  0.0000000E+00  0.5050505E-02 -0.1235095E-05  0.0000000E+00  0.1028067E-03
  0.9343435E+00  0.0000000E+00  0.5050505E-02 -0.1059953E-05  0.0000000E+00  0.1004765E-03
  0.9444444E+00  0.0000000E+00  0.5050505E-02 -0.8894096E-06  0.0000000E+00  0.9849772E-04
  0.9545454E+00  0.0000000E+00  0.5050505E-02 -0.7226706E-06  0.0000000E+00  0.9686166E-04
  0.9646465E+00  0.0000000E+00  0.5050505E-02 -0.5589844E-06  0.0000000E+00  0.9556114E-04
  0.9747475E+00  0.0000000E+00  0.5050505E-02 -0.3976341E-06  0.0000000E+00  0.9459056E-04
  0.9848485E+00  0.0000000E+00  0.5050505E-02 -0.2379298E-06  0.0000000E+00  0.9394578E-04
  0.9974747E+00  0.0000000E+00  0.5050505E-02 -0.7920240E-07  0.0000000E+00  0.9362406E-04
  0.5050505E-02  0.0000000E+00  0.1515152E-01  0.2966485E-06  0.0000000E+00  0.1082559E-03
  0.1515152E-01  0.0000000E+00  0.1515152E-01  0.8913116E-06  0.0000000E+00  0.1086581E-03
  0.2525252E-01  0.0000000E+00  0.1515152E-01  0.1490106E-05  0.0000000E+00  0.1094644E-03
  0.3535353E-01  0.0000000E+00  0.1515152E-01  0.2095856E-05  0.0000000E+00  0.1106786E-03
  0.4545455E-01  0.0000000E+00  0.1515152E-01  0.2711464E-05  0.0000000E+00  0.1123065E-03
  0.5555556E-01  0.0000000E+00  0.1515152E-01  0.3339942E-05  0.0000000E+00  0.1143560E-03
  0.6565657E-01  0.0000000E+00  0.1515152E-01  0.3984436E-05  0.0000000E+00  0.1168371E-03
  0.7575758E-01  0.0000000E+00  0.1515152E-01  0.4648257E-05  0.0000000E+00  0.1197621E-03
  0.8585858E-01  0.0000000E+00  0.1515152E-01  0.5334924E-05  0.0000000E+00  0.1231458E-03
  0.9595960E-01  0.0000000E+00  0.1515152E-01  0.6048197E-05  0.0000000E+00  0.1270053E-03
  0.1060606E+00  0.0000000E+00  0.1515152E-01  0.6792127E-05  0.0000000E+00  0.1313606E-03
  0.1161616E+00  0.0000000E+00  0.1515152E-01  0.7571102E-05  0.0000000E+00  0.1362347E-03
  0.1262626E+00  0.0000000E+00  0.1515152E-01  0.8389907E-05  0.0000000E+00  0.1416538E-03
  0.1363636E+00  0.0000000E+00  0.1515152E-01  0.9253785E-05  0.0000000E+00  0.1476476E-03
  0.1464646E+00  0.0000000E+00  0.1515152E-01  0.1016851E-04  0.0000000E+00  0.1542499E-03
  0.1565657E+00  0.0000000E+00  0.1515152E-01  0.1114048E-04  0.0000000E+00  0.1614986E-03
  0.1666667E+00  0.0000000E+00  0.1515152E-01  0.1217679E-04  0.0000000E+00  0.1694367E-03
  0.1767677E+00  0.0000000E+00  0.1515152E-01  0.1328533E-04  0.0000000E+00  0.1781123E-03
  0.1868687E+00  0.0000000E+00  0.1515152E-01  0.1447495E-04  0.0000000E+00  0.1875798E-03
  0.1969697E+00  0.0000000E+00  0.1515152E-01  0.1575554E-04  0.0000000E+00  0.1979003E-03
  0.2070707E+00  0.0000000E+00  0.1515152E-01  0.1713819E-04  0.0000000E+00  0.2091426E-03
  0.2171717E+00  0.0000000E+00  0.1515152E-01  0.1863542E-04  0.0000000E+00  0.2213840E-03
  0.2272727E+00  0.0000000E+00  0.1515152E-01  0.2026131E-04  0.0000000E+00  0.2347119E-03
  0.2373737E+00  0.0000000E+00  0.1515152E-01  0.2203190E-04  0.0000000E+00  0.2492247E-03
  0.2474747E+00  0.0000000E+00  0.1515152E-01  0.2396552E-04  0.0000000E+00  0.2650333E-03
  0.2575758E+00  0.0000000E+00  0.1515152E-01  0.2608348E-04  0.0000000E+00  0.2822635E-03
  0.2676768E+00  0.0000000E+00  0.1515152E-01  0.2841120E-04  0.0000000E+00  0.3010582E-03
  0.2777778E+00  0.0000000E+00  0.1515152E-01  0.3098008E-04  0.0000000E+00  0.3215807E-03
  0.2878788E+00  0.0000000E+00  0.1515152E-01  0.3383079E-04  0.0000000E+00  0.3440197E-03
  0.2979798E+00  0.0000000E+00  0.1515152E-01  0.3701895E-04  0.0000000E+00  0.3685974E-03
  0.3080808E+00  0.0000000E+00  0.1515152E-01  0.4062428E-04  0.0000000E+00  0.3955817E-03
  0.3181818E+00  0.0000000E+00  0.1515152E-01  0.4476529E-04  0.0000000E+00  0.4253071E-03
  0.3282828E+00  0.0000000E+00  0.1515152E-01  0.4962107E-04  0.0000000E+00  0.4582068E-03
  0.3383838E+00  0.0000000E+00  0.1515152E-01  0.5546371E-04  0.0000000E+00  0.4948621E-03
  0.3484848E+00  0.0000000E+00  0.1515152E-01  0.6270834E-04  0.0000000E+00  0.5360705E-03
  0.3585859E+00  0.0000000E+00  0.1515152E-01  0.7200377E-04  0.0000000E+00  0.5829288E-03
  0.3686869E+00  0.0000000E+00  0.1515152E-01  0.8442661E-04  0.0000000E+00  0.6368898E-03
  0.3787879E+00  0.0000000E+00  0.1515152E-01  0.1019426E-03  0.0000000E+00  0.6995531E-03
  0.3888889E+00  0.0000000E+00  0.1515152E-01  0.1286070E-03  0.0000000E+00  0.7709172E-03
  0.3989899E+00  0.0000000E+00  0.1515152E-01  0.1740407E-03  0.0000000E+00  0.8397701E-03
  0.4090909E+00  0.0000000E+00  0.1515152E-01  0.1878803E-03  0.0000000E+00  0.9199582E-03
  0.4191919E+00  0.0000000E+00  0.1515152E-01  0.2177767E-03  0.0000000E+00  0.1040494E-02
  0.4292929E+00  0.0000000E+00  0.1515152E-01  0.1739995E-03  0.0000000E+00  0.1200401E-02
  0.4393939E+00  0.0000000E+00  0.1515152E-01  0.2160057E-03  0.0000000E+00  0.1387639E-02
  0.4494950E+00  0.0000000E+00  0.1515152E-01  0.2687435E-03  0.0000000E+00  0.1596475E-02
  0.4595959E+00  0.0000000E+00  0.1515152E-01  0.3312619E-03  0.0000000E+00  0.1779722E-02
  0.4696970E+00  0.0000000E+00  0.1515152E-01  0.1323995E-03  0.0000000E+00  0.1985723E-02
  0.4797980E+00  0.0000000E+00  0.1515152E-01 -0.1235991E-03  0.0000000E+00  0.2020989E-02
  0.4898990E+00  0.0000000E+00  0.1515152E-01 -0.3846911E-03  0.0000000E+00  0.1807056E-02
  0.5000000E+00  0.0000000E+00  0.1515152E-01 -0.2484906E-03  0.0000000E+00  0.1597523E-02
  0.5101010E+00  0.0000000E+00  0.1515152E-01 -0.2045510E-03  0.0000000E+00  0.1417109E-02
  0.5202020E+00  0.0000000E+00  0.1515152E-01 -0.1724802E-03  0.0000000E+00  0.1276092E-02
  0.5303030E+00  0.0000000E+00  0.1515152E-01 -0.1444190E-03  0.0000000E+00  0.1180865E-02
  0.5404040E+00  0.0000000E+00  0.1515152E-01 -0.1368726E-03  0.0000000E+00  0.1071840E-02
  0.5505050E+00  0.0000000E+00  0.1515152E-01 -0.1480084E-03  0.0000000E+00  0.9551637E-03
  0.5606061E+00  0.0000000E+00  0.1515152E-01 -0.1304791E-03  0.0000000E+00  0.8694212E-03
  0.5707071E+00  0.0000000E+00  0.1515152E-01 -0.1069647E-03  0.0000000E+00  0.7972418E-03
  0.5808081E+00  0.0000000E+00  0.1515152E-01 -0.9186104E-04  0.0000000E+00  0.7294713E-03
  0.5909091E+00  0.0000000E+00  0.1515152E-01 -0.8078903E-04  0.0000000E+00  0.6687547E-03
  0.6010101E+00  0.0000000E+00  0.1515152E-01 -0.7198102E-04  0.0000000E+00  0.6146326E-03
  0.6111111E+00  0.0000000E+00  0.1515152E-01 -0.6463742E-04  0.0000000E+00  0.5662379E-03
  0.6212121E+00  0.0000000E+00  0.1515152E-01 -0.5834361E-04  0.0000000E+00  0.5227829E-03
  0.6313131E+00  0.0000000E+00  0.1515152E-01 -0.5285552E-04  0.0000000E+00  0.4836173E-03
  0.6414142E+00  0.0000000E+00  0.1515152E-01 -0.4801479E-04  0.0000000E+00  0.4482083E-03
  0.6515151E+00  0.0000000E+00  0.1515152E-01 -0.4371142E-04  0.0000000E+00  0.4161139E-03
  0.6616161E+00  0.0000000E+00  0.1515152E-01 -0.3986487E-04  0.0000000E+00  0.3869613E-03
  0.6717172E+00  0.0000000E+00  0.1515152E-01 -0.3641333E-04  0.0000000E+00  0.3604311E-03
  0.6818182E+00  0.0000000E+00  0.1515152E-01 -0.3330737E-04  0.0000000E+00  0.3362463E-03
  0.6919192E+00  0.0000000E+00  0.1515152E-01 -0.3050592E-04  0.0000000E+00  0.3141649E-03
  0.7020202E+00  0.0000000E+00  0.1515152E-01 -0.2797397E-04  0.0000000E+00  0.2939745E-03
  0.7121212E+00  0.0000000E+00  0.1515152E-01 -0.2568106E-04  0.0000000E+00  0.2754879E-03
  0.7222222E+00  0.0000000E+00  0.1515152E-01 -0.2360042E-04  0.0000000E+00  0.2585401E-03
  0.7323232E+00  0.0000000E+00  0.1515152E-01 -0.2170842E-04  0.0000000E+00  0.2429850E-03
  0.7424242E+00  0.0000000E+00  0.1515152E-01 -0.1998406E-04  0.0000000E+00  0.2286937E-03
  0.7525253E+00  0.0000000E+00  0.1515152E-01 -0.1840877E-04  0.0000000E+00  0.2155523E-03
  0.7626263E+00  0.0000000E+00  0.1515152E-01 -0.1696602E-04  0.0000000E+00  0.2034596E-03
  0.7727273E+00  0.0000000E+00  0.1515152E-01 -0.1564118E-04  0.0000000E+00  0.1923263E-03
  0.7828283E+00  0.0000000E+00  0.1515152E-01 -0.1442127E-04  0.0000000E+00  0.1820730E-03
  0.7929293E+00  0.0000000E+00  0.1515152E-01 -0.1329475E-04  0.0000000E+00  0.1726294E-03
  0.8030303E+00  0.0000000E+00  0.1515152E-01 -0.1225139E-04  0.0000000E+00  0.1639331E-03
  0.8131313E+00  0.0000000E+00  0.1515152E-01 -0.1128208E-04  0.0000000E+00  0.1559287E-03
  0.8232324E+00  0.0000000E+00  0.1515152E-01 -0.1037873E-04  0.0000000E+00  0.1485668E-03
  0.8333333E+00  0.0000000E+00  0.1515152E-01 -0.9534116E-05  0.0000000E+00  0.1418037E-03
  0.8434343E+00  0.0000000E+00  0.1515152E-01 -0.8741776E-05  0.0000000E+00  0.1356006E-03
  0.8535354E+00  0.0000000E+00  0.1515152E-01 -0.7995938E-05  0.0000000E+00  0.1299228E-03
  0.8636364E+00  0.0000000E+00  0.1515152E-01 -0.7291415E-05  0.0000000E+00  0.1247398E-03
  0.8737374E+00  0.0000000E+00  0.1515152E-01 -0.6623539E-05  0.0000000E+00  0.1200244E-03
  0.8838384E+00  0.0000000E+00  0.1515152E-01 -0.5988093E-05  0.0000000E+00  0.1157524E-03
  0.8939394E+00  0.0000000E+00  0.1515152E-01 -0.5381250E-05  0.0000000E+00  0.1119027E-03
  0.9040404E+00  0.0000000E+00  0.1515152E-01 -0.4799529E-05  0.0000000E+00  0.1084567E-03
  0.9141414E+00  0.0000000E+00  0.1515152E-01 -0.4239743E-05  0.0000000E+00  0.1053980E-03
  0.9242424E+00  0.0000000E+00  0.1515152E-01 -0.3698957E-05  0.0000000E+00  0.1027123E-03
  0.9343435E+00  0.0000000E+00  0.1515152E-01 -0.3174458E-05  0.0000000E+00  0.1003876E-03
  0.9444444E+00  0.0000000E+00  0.1515152E-01 -0.2663715E-05  0.0000000E+00  0.9841344E-04
  0.9545454E+00  0.0000000E+00  0.1515152E-01 -0.2164353E-05  0.0000000E+00  0.9678105E-04
  0.9646465E+00  0.0000000E+00  0.1515152E-01 -0.1674127E-05  0.0000000E+00  0.9548340E-04
  0.9747475E+00  0.0000000E+00  0.1515152E-01 -0.1190891E-05  0.0000000E+00  0.9451492E-04
  0.9848485E+00  0.0000000E+00  0.1515152E-01 -0.7125850E-06  0.0000000E+00  0.9387150E-04
  0.9974747E+00  0.0000000E+00  0.1515152E-01 -0.2372057E-06  0.0000000E+00  0.9355045E-04
  0.5050505E-02  0.0000000E+00  0.2525252E-01  0.4929442E-06  0.0000000E+00  0.1080335E-03
  0.1515152E-01  0.0000000E+00  0.2525252E-01  0.1481107E-05  0.0000000E+00  0.1084338E-03
  0.2525252E-01  0.0000000E+00  0.2525252E-01  0.2476137E-05  0.0000000E+00  0.1092362E-03
  0.3535353E-01  0.0000000E+00  0.2525252E-01  0.3482720E-05  0.0000000E+00  0.1104445E-03
  0.4545455E-01  0.0000000E+00  0.2525252E-01  0.4505670E-05  0.0000000E+00  0.1120644E-03
  0.5555556E-01  0.0000000E+00  0.2525252E-01  0.5549976E-05  0.0000000E+00  0.1141037E-03
  0.6565657E-01  0.0000000E+00  0.2525252E-01  0.6620850E-05  0.0000000E+00  0.1165722E-03
  0.7575758E-01  0.0000000E+00  0.2525252E-01  0.7723780E-05  0.0000000E+00  0.1194820E-03
  0.8585858E-01  0.0000000E+00  0.2525252E-01  0.8864591E-05  0.0000000E+00  0.1228476E-03
  0.9595960E-01  0.0000000E+00  0.2525252E-01  0.1004951E-04  0.0000000E+00  0.1266861E-03
  0.1060606E+00  0.0000000E+00  0.2525252E-01  0.1128525E-04  0.0000000E+00  0.1310169E-03
  0.1161616E+00  0.0000000E+00  0.2525252E-01  0.1257906E-04  0.0000000E+00  0.1358628E-03
  0.1262626E+00  0.0000000E+00  0.2525252E-01  0.1393887E-04  0.0000000E+00  0.1412495E-03
  0.1363636E+00  0.0000000E+00  0.2525252E-01  0.1537335E-04  0.0000000E+00  0.1472063E-03
  0.1464646E+00  0.0000000E+00  0.2525252E-01  0.1689206E-04  0.0000000E+00  0.1537661E-03
  0.1565657E+00  0.0000000E+00  0.2525252E-01  0.1850557E-04  0.0000000E+00  0.1609665E-03
  0.1666667E+00  0.0000000E+00  0.2525252E-01  0.2022561E-04  0.0000000E+00  0.1688494E-03
  0.1767677E+00  0.0000000E+00  0.2525252E-01  0.2206526E-04  0.0000000E+00  0.1774623E-03
  0.1868687E+00  0.0000000E+00  0.2525252E-01  0.2403912E-04  0.0000000E+00  0.1868582E-03
  0.1969697E+00  0.0000000E+00  0.2525252E-01  0.2616355E-04  0.0000000E+00  0.1970973E-03
  0.2070707E+00  0.0000000E+00  0.2525252E-01  0.2845688E-04  0.0000000E+00  0.2082468E-03
  0.2171717E+00  0.0000000E+00  0.2525252E-01  0.3093975E-04  0.0000000E+00  0.2203825E-03
  0.2272727E+00  0.0000000E+00  0.2525252E-01  0.3363539E-04  0.0000000E+00  0.2335898E-03
  0.2373737E+00  0.0000000E+00  0.2525252E-01  0.3657006E-04  0.0000000E+00  0.2479647E-03
  0.2474747E+00  0.0000000E+00  0.2525252E-01  0.3977365E-04  0.0000000E+00  0.2636152E-03
  0.2575758E+00  0.0000000E+00  0.2525252E-01  0.4328052E-04  0.0000000E+00  0.2806629E-03
  0.2676768E+00  0.0000000E+00  0.2525252E-01  0.4713102E-04  0.0000000E+00  0.2992446E-03
  0.2777778E+00  0.0000000E+00  0.2525252E-01  0.5137395E-04  0.0000000E+00  0.3195144E-03
  0.2878788E+00  0.0000000E+00  0.2525252E-01  0.5607119E-04  0.0000000E+00  0.3416460E-03
  0.2979798E+00  0.0000000E+00  0.2525252E-01  0.6130570E-04  0.0000000E+00  0.3658369E-03
  0.3080808E+00  0.0000000E+00  0.2525252E-01  0.6719529E-04  0.0000000E+00  0.3923149E-03
  0.3181818E+00  0.0000000E+00  0.2525252E-01  0.7391498E-04  0.0000000E+00  0.4213508E-03
  0.3282828E+00  0.0000000E+00  0.2525252E-01  0.8173050E-04  0.0000000E+00  0.4532804E-03
  0.3383838E+00  0.0000000E+00  0.2525252E-01  0.9104431E-04  0.0000000E+00  0.4885384E-03
  0.3484848E+00  0.0000000E+00  0.2525252E-01  0.1024547E-03  0.0000000E+00  0.5277006E-03
  0.3585859E+00  0.0000000E+00  0.2525252E-01  0.1168362E-03  0.0000000E+00  0.5715147E-03
  0.3686869E+00  0.0000000E+00  0.2525252E-01  0.1354691E-03  0.0000000E+00  0.6208829E-03
  0.3787879E+00  0.0000000E+00  0.2525252E-01  0.1602031E-03  0.0000000E+00  0.6767232E-03
  0.3888889E+00  0.0000000E+00  0.2525252E-01  0.1933140E-03  0.0000000E+00  0.7395678E-03
  0.3989899E+00  0.0000000E+00  0.2525252E-01  0.2349257E-03  0.0000000E+00  0.8088452E-03
  0.4090909E+00  0.0000000E+00  0.2525252E-01  0.2670383E-03  0.0000000E+00  0.8840578E-03
  0.4191919E+00  0.0000000E+00  0.2525252E-01  0.3108139E-03  0.0000000E+00  0.9565580E-03
  0.4292929E+00  0.0000000E+00  0.2525252E-01  0.3181281E-03  0.0000000E+00  0.1066433E-02
  0.4393939E+00  0.0000000E+00  0.2525252E-01  0.3613584E-03  0.0000000E+00  0.1214488E-02
  0.4494950E+00  0.0000000E+00  0.2525252E-01  0.4061804E-03  0.0000000E+00  0.1342138E-02
  0.4595959E+00  0.0000000E+00  0.2525252E-01  0.4515054E-03  0.0000000E+00  0.1474357E-02
  0.4696970E+00  0.0000000E+00  0.2525252E-01  0.3414779E-03  0.0000000E+00  0.1685981E-02
  0.4797980E+00  0.0000000E+00  0.2525252E-01 -0.2797660E-03  0.0000000E+00  0.1715475E-02
  0.4898990E+00  0.0000000E+00  0.2525252E-01 -0.5266769E-03  0.0000000E+00  0.1549259E-02
  0.5000000E+00  0.0000000E+00  0.2525252E-01 -0.3799624E-03  0.0000000E+00  0.1422220E-02
  0.5101010E+00  0.0000000E+00  0.2525252E-01 -0.3114777E-03  0.0000000E+00  0.1314785E-02
  0.5202020E+00  0.0000000E+00  0.2525252E-01 -0.2541526E-03  0.0000000E+00  0.1231346E-02
  0.5303030E+00  0.0000000E+00  0.2525252E-01 -0.2368874E-03  0.0000000E+00  0.1123067E-02
  0.5404040E+00  0.0000000E+00  0.2525252E-01 -0.2424576E-03  0.0000000E+00  0.1005188E-02
  0.5505050E+00  0.0000000E+00  0.2525252E-01 -0.2238776E-03  0.0000000E+00  0.9167769E-03
  0.5606061E+00  0.0000000E+00  0.2525252E-01 -0.1941539E-03  0.0000000E+00  0.8464787E-03
  0.5707071E+00  0.0000000E+00  0.2525252E-01 -0.1690469E-03  0.0000000E+00  0.7793567E-03
  0.5808081E+00  0.0000000E+00  0.2525252E-01 -0.1488606E-03  0.0000000E+00  0.7163371E-03
  0.5909091E+00  0.0000000E+00  0.2525252E-01 -0.1323449E-03  0.0000000E+00  0.6587180E-03
  0.6010101E+00  0.0000000E+00  0.2525252E-01 -0.1185178E-03  0.0000000E+00  0.6066212E-03
  0.6111111E+00  0.0000000E+00  0.2525252E-01 -0.1067109E-03  0.0000000E+00  0.5596331E-03
  0.6212121E+00  0.0000000E+00  0.2525252E-01 -0.9647067E-04  0.0000000E+00  0.5172144E-03
  0.6313131E+00  0.0000000E+00  0.2525252E-01 -0.8748246E-04  0.0000000E+00  0.4788488E-03
  0.6414142E+00  0.0000000E+00  0.2525252E-01 -0.7952253E-04  0.0000000E+00  0.4440804E-03
  0.6515151E+00  0.0000000E+00  0.2525252E-01 -0.7242761E-04  0.0000000E+00  0.4125143E-03
  0.6616161E+00  0.0000000E+00  0.2525252E-01 -0.6607481E-04  0.0000000E+00  0.3838073E-03
  0.6717172E+00  0.0000000E+00  0.2525252E-01 -0.6036796E-04  0.0000000E+00  0.3576592E-03
  0.6818182E+00  0.0000000E+00  0.2525252E-01 -0.5522879E-04  0.0000000E+00  0.3338057E-03
  0.6919192E+00  0.0000000E+00  0.2525252E-01 -0.5059141E-04  0.0000000E+00  0.3120137E-03
  0.7020202E+00  0.0000000E+00  0.2525252E-01 -0.4639893E-04  0.0000000E+00  0.2920768E-03
  0.7121212E+00  0.0000000E+00  0.2525252E-01 -0.4260154E-04  0.0000000E+00  0.2738128E-03
  0.7222222E+00  0.0000000E+00  0.2525252E-01 -0.3915519E-04  0.0000000E+00  0.2570605E-03
  0.7323232E+00  0.0000000E+00  0.2525252E-01 -0.3602084E-04  0.0000000E+00  0.2416772E-03
  0.7424242E+00  0.0000000E+00  0.2525252E-01 -0.3316385E-04  0.0000000E+00  0.2275369E-03
  0.7525253E+00  0.0000000E+00  0.2525252E-01 -0.3055343E-04  0.0000000E+00  0.2145279E-03
  0.7626263E+00  0.0000000E+00  0.2525252E-01 -0.2816229E-04  0.0000000E+00  0.2025516E-03
  0.7727273E+00  0.0000000E+00  0.2525252E-01 -0.2596621E-04  0.0000000E+00  0.1915205E-03
  0.7828283E+00  0.0000000E+00  0.2525252E-01 -0.2394371E-04  0.0000000E+00  0.1813568E-03
  0.7929293E+00  0.0000000E+00  0.2525252E-01 -0.2207573E-04  0.0000000E+00  0.1719919E-03
  0.8030303E+00  0.0000000E+00  0.2525252E-01 -0.2034532E-04  0.0000000E+00  0.1633647E-03
  0.8131313E+00  0.0000000E+00  0.2525252E-01 -0.1873745E-04  0.0000000E+00  0.1554208E-03
  0.8232324E+00  0.0000000E+00  0.2525252E-01 -0.1723872E-04  0.0000000E+00  0.1481120E-03
  0.8333333E+00  0.0000000E+00  0.2525252E-01 -0.1583718E-04  0.0000000E+00  0.1413955E-03
  0.8434343E+00  0.0000000E+00  0.2525252E-01 -0.1452216E-04  0.0000000E+00  0.1352331E-03
  0.8535354E+00  0.0000000E+00  0.2525252E-01 -0.1328411E-04  0.0000000E+00  0.1295910E-03
  0.8636364E+00  0.0000000E+00  0.2525252E-01 -0.1211445E-04  0.0000000E+00  0.1244391E-03
  0.8737374E+00  0.0000000E+00  0.2525252E-01 -0.1100546E-04  0.0000000E+00  0.1197508E-03
  0.8838384E+00  0.0000000E+00  0.2525252E-01 -0.9950164E-05  0.0000000E+00  0.1155024E-03
  0.8939394E+00  0.0000000E+00  0.2525252E-01 -0.8942233E-05  0.0000000E+00  0.1116732E-03
  0.9040404E+00  0.0000000E+00  0.2525252E-01 -0.7975905E-05  0.0000000E+00  0.1082448E-03
  0.9141414E+00  0.0000000E+00  0.2525252E-01 -0.7045906E-05  0.0000000E+00  0.1052012E-03
  0.9242424E+00  0.0000000E+00  0.2525252E-01 -0.6147382E-05  0.0000000E+00  0.1025285E-03
  0.9343435E+00  0.0000000E+00  0.2525252E-01 -0.5275840E-05  0.0000000E+00  0.1002146E-03
  0.9444444E+00  0.0000000E+00  0.2525252E-01 -0.4427094E-05  0.0000000E+00  0.9824934E-04
  0.9545454E+00  0.0000000E+00  0.2525252E-01 -0.3597210E-05  0.0000000E+00  0.9662417E-04
  0.9646465E+00  0.0000000E+00  0.2525252E-01 -0.2782470E-05  0.0000000E+00  0.9533214E-04
  0.9747475E+00  0.0000000E+00  0.2525252E-01 -0.1979325E-05  0.0000000E+00  0.9436778E-04
  0.9848485E+00  0.0000000E+00  0.2525252E-01 -0.1184357E-05  0.0000000E+00  0.9372706E-04
  0.9974747E+00  0.0000000E+00  0.2525252E-01 -0.3942492E-06  0.0000000E+00  0.9340735E-04
  0.5050505E-02  0.0000000E+00  0.3535353E-01  0.6875092E-06  0.0000000E+00  0.1077084E-03
  0.1515152E-01  0.0000000E+00  0.3535353E-01  0.2065697E-05  0.0000000E+00  0.1081059E-03
  0.2525252E-01  0.0000000E+00  0.3535353E-01  0.3453450E-05  0.0000000E+00  0.1089026E-03
  0.3535353E-01  0.0000000E+00  0.3535353E-01  0.4857281E-05  0.0000000E+00  0.1101023E-03
  0.4545455E-01  0.0000000E+00  0.3535353E-01  0.6283881E-05  0.0000000E+00  0.1117104E-03
  0.5555556E-01  0.0000000E+00  0.3535353E-01  0.7740179E-05  0.0000000E+00  0.1137346E-03
  0.6565657E-01  0.0000000E+00  0.3535353E-01  0.9233411E-05  0.0000000E+00  0.1161846E-03
  0.7575758E-01  0.0000000E+00  0.3535353E-01  0.1077120E-04  0.0000000E+00  0.1190721E-03
  0.8585858E-01  0.0000000E+00  0.3535353E-01  0.1236161E-04  0.0000000E+00  0.1224114E-03
  0.9595960E-01  0.0000000E+00  0.3535353E-01  0.1401331E-04  0.0000000E+00  0.1262189E-03
  0.1060606E+00  0.0000000E+00  0.3535353E-01  0.1573557E-04  0.0000000E+00  0.1305139E-03
  0.1161616E+00  0.0000000E+00  0.3535353E-01  0.1753847E-04  0.0000000E+00  0.1353184E-03
  0.1262626E+00  0.0000000E+00  0.3535353E-01  0.1943297E-04  0.0000000E+00  0.1406576E-03
  0.1363636E+00  0.0000000E+00  0.3535353E-01  0.2143111E-04  0.0000000E+00  0.1465600E-03
  0.1464646E+00  0.0000000E+00  0.3535353E-01  0.2354611E-04  0.0000000E+00  0.1530578E-03
  0.1565657E+00  0.0000000E+00  0.3535353E-01  0.2579262E-04  0.0000000E+00  0.1601873E-03
  0.1666667E+00  0.0000000E+00  0.3535353E-01  0.2818686E-04  0.0000000E+00  0.1679896E-03
  0.1767677E+00  0.0000000E+00  0.3535353E-01  0.3074695E-04  0.0000000E+00  0.1765105E-03
  0.1868687E+00  0.0000000E+00  0.3535353E-01  0.3349310E-04  0.0000000E+00  0.1858018E-03
  0.1969697E+00  0.0000000E+00  0.3535353E-01  0.3644793E-04  0.0000000E+00  0.1959217E-03
  0.2070707E+00  0.0000000E+00  0.3535353E-01  0.3963682E-04  0.0000000E+00  0.2069355E-03
  0.2171717E+00  0.0000000E+00  0.3535353E-01  0.4308825E-04  0.0000000E+00  0.2189167E-03
  0.2272727E+00  0.0000000E+00  0.3535353E-01  0.4683426E-04  0.0000000E+00  0.2319480E-03
  0.2373737E+00  0.0000000E+00  0.3535353E-01  0.5091087E-04  0.0000000E+00  0.2461220E-03
  0.2474747E+00  0.0000000E+00  0.3535353E-01  0.5535872E-04  0.0000000E+00  0.2615431E-03
  0.2575758E+00  0.0000000E+00  0.3535353E-01  0.6022393E-04  0.0000000E+00  0.2783275E-03
  0.2676768E+00  0.0000000E+00  0.3535353E-01  0.6555934E-04  0.0000000E+00  0.2966050E-03
  0.2777778E+00  0.0000000E+00  0.3535353E-01  0.7142695E-04  0.0000000E+00  0.3165186E-03
  0.2878788E+00  0.0000000E+00  0.3535353E-01  0.7790221E-04  0.0000000E+00  0.3382242E-03
  0.2979798E+00  0.0000000E+00  0.3535353E-01  0.8508251E-04  0.0000000E+00  0.3618889E-03