variables = "ivol", "x", "z", "RSD_tot"
zone t = "RSD_tot, T = 48.000000 days i = 100, j = 100, k = 1, f=point
0 0.000000 0.000000 0.000000
1 0.010101 0.000000 0.000000
2 0.020202 0.000000 0.000000
3 0.030303 0.000000 0.000000
4 0.040404 0.000000 0.000000
5 0.050505 0.000000 0.000000
6 0.060606 0.000000 0.000000
7 0.070707 0.000000 0.000000
8 0.080808 0.000000 0.000000
9 0.090909 0.000000 0.000000
10 0.101010 0.000000 0.000000
11 0.111111 0.000000 0.000000
12 0.121212 0.000000 0.000000
13 0.131313 0.000000 0.000000
14 0.141414 0.000000 0.000000
15 0.151515 0.000000 0.000000
16 0.161616 0.000000 0.000000
17 0.171717 0.000000 0.000000
18 0.181818 0.000000 0.000000
19 0.191919 0.000000 0.000000
20 0.202020 0.000000 0.000000
21 0.212121 0.000000 0.000000
22 0.222222 0.000000 0.000000
23 0.232323 0.000000 0.000000
24 0.242424 0.000000 0.000000
25 0.252525 0.000000 0.000000
26 0.262626 0.000000 0.000000
27 0.272727 0.000000 0.000000
28 0.282828 0.000000 0.000000
29 0.292929 0.000000 0.000000
30 0.303030 0.000000 0.000000
31 0.313131 0.000000 0.046577
32 0.323232 0.000000 0.000000
33 0.333333 0.000000 0.000000
34 0.343434 0.000000 0.000000
35 0.353535 0.000000 0.113893
36 0.363636 0.000000 0.037964
37 0.373737 0.000000 0.000000
38 0.383838 0.000000 0.000000
39 0.393939 0.000000 0.528428
40 0.404040 0.000000 0.327961
41 0.414141 0.000000 0.095314
42 0.424242 0.000000 0.142971
43 0.434343 0.000000 0.095314
44 0.444444 0.000000 0.088226
45 0.454545 0.000000 0.135628
46 0.464646 0.000000 0.095059
47 0.474747 0.000000 0.000000
48 0.484848 0.000000 0.000000
49 0.494949 0.000000 0.000000
50 0.505050 0.000000 0.111178
51 0.515152 0.000000 0.000000
52 0.525253 0.000000 0.000000
53 0.535354 0.000000 0.000000
54 0.545455 0.000000 0.000000
55 0.555556 0.000000 0.000000
56 0.565657 0.000000 0.724117
57 0.575758 0.000000 0.328976
58 0.585859 0.000000 0.298009
59 0.595960 0.000000 0.254076
60 0.606061 0.000000 0.131261
61 0.616162 0.000000 0.088218
62 0.626263 0.000000 0.044109
63 0.636364 0.000000 0.101653
64 0.646465 0.000000 0.000000
65 0.656566 0.000000 0.000000
66 0.666667 0.000000 0.000000
67 0.676768 0.000000 0.000000
68 0.686869 0.000000 0.000000
69 0.696970 0.000000 0.000000
70 0.707071 0.000000 0.000000
71 0.717172 0.000000 0.000000
72 0.727273 0.000000 0.000000
73 0.737374 0.000000 0.000000
74 0.747475 0.000000 0.000000
75 0.757576 0.000000 0.000000
76 0.767677 0.000000 0.000000
77 0.777778 0.000000 0.000000
78 0.787879 0.000000 0.000000
79 0.797980 0.000000 0.000000
80 0.808081 0.000000 0.000000
81 0.818182 0.000000 0.000000
82 0.828283 0.000000 0.000000
83 0.838384 0.000000 0.000000
84 0.848485 0.000000 0.000000
85 0.858586 0.000000 0.000000
86 0.868687 0.000000 0.000000
87 0.878788 0.000000 0.000000
88 0.888889 0.000000 0.000000
89 0.898990 0.000000 0.000000
90 0.909091 0.000000 0.000000
91 0.919192 0.000000 0.000000
92 0.929293 0.000000 0.000000
93 0.939394 0.000000 0.000000
94 0.949495 0.000000 0.000000
95 0.959596 0.000000 0.000000
96 0.969697 0.000000 0.000000
97 0.979798 0.000000 0.000000
98 0.989899 0.000000 0.000000
99 1.000000 0.000000 0.000000
100 0.000000 0.010101 0.000000
101 0.010101 0.010101 0.000000
102 0.020202 0.010101 0.000000
103 0.030303 0.010101 0.000000
104 0.040404 0.010101 0.000000
105 0.050505 0.010101 0.000000
106 0.060606 0.010101 0.000000
107 0.070707 0.010101 0.000000
108 0.080808 0.010101 0.000000
109 0.090909 0.010101 0.000000
110 0.101010 0.010101 0.000000
111 0.111111 0.010101 0.000000
112 0.121212 0.010101 0.000000
113 0.131313 0.010101 0.000000
114 0.141414 0.010101 0.000000
115 0.151515 0.010101 0.000000
116 0.161616 0.010101 0.000000
117 0.171717 0.010101 0.000000
118 0.181818 0.010101 0.000000
119 0.191919 0.010101 0.000000
120 0.202020 0.010101 0.000000
121 0.212121 0.010101 0.000000
122 0.222222 0.010101 0.000000
123 0.232323 0.010101 0.000000
124 0.242424 0.010101 0.000000
125 0.252525 0.010101 0.000000
126 0.262626 0.010101 0.000000
127 0.272727 0.010101 0.000000
128 0.282828 0.010101 0.000000
129 0.292929 0.010101 0.000000
130 0.303030 0.010101 0.000000
131 0.313131 0.010101 0.046577
132 0.323232 0.010101 0.093153
133 0.333333 0.010101 0.000000
134 0.343434 0.010101 0.000000
135 0.353535 0.010101 0.000000
136 0.363636 0.010101 0.075488
137 0.373737 0.010101 0.075928
138 0.383838 0.010101 0.000000
139 0.393939 0.010101 0.463504
140 0.404040 0.010101 0.046247
141 0.414141 0.010101 0.142588
142 0.424242 0.010101 0.095059
143 0.434343 0.010101 0.176198
144 0.444444 0.010101 0.176198
145 0.454545 0.010101 0.047529
146 0.464646 0.010101 0.000000
147 0.474747 0.010101 0.000000
148 0.484848 0.010101 0.000000
149 0.494949 0.010101 0.000000
150 0.505050 0.010101 0.000000
151 0.515152 0.010101 0.166767
152 0.525253 0.010101 0.000000
153 0.535354 0.010101 0.000000
154 0.545455 0.010101 0.000000
155 0.555556 0.010101 0.048282
156 0.565657 0.010101 0.563745
157 0.575758 0.010101 0.266767
158 0.585859 0.010101 0.132326
159 0.595960 0.010101 0.088218
160 0.606061 0.010101 0.000000
161 0.616162 0.010101 0.000000
162 0.626263 0.010101 0.050826
163 0.636364 0.010101 0.050826
164 0.646465 0.010101 0.000000
165 0.656566 0.010101 0.000000
166 0.666667 0.010101 0.000000
167 0.676768 0.010101 0.000000
168 0.686869 0.010101 0.000000
169 0.696970 0.010101 0.000000
170 0.707071 0.010101 0.000000
171 0.717172 0.010101 0.000000
172 0.727273 0.010101 0.000000
173 0.737374 0.010101 0.000000
174 0.747475 0.010101 0.000000
175 0.757576 0.010101 0.000000
176 0.767677 0.010101 0.000000
177 0.777778 0.010101 0.000000
178 0.787879 0.010101 0.000000
179 0.797980 0.010101 0.000000
180 0.808081 0.010101 0.000000
181 0.818182 0.010101 0.000000
182 0.828283 0.010101 0.000000
183 0.838384 0.010101 0.000000
184 0.848485 0.010101 0.000000
185 0.858586 0.010101 0.000000
186 0.868687 0.010101 0.000000
187 0.878788 0.010101 0.000000
188 0.888889 0.010101 0.000000
189 0.898990 0.010101 0.000000
190 0.909091 0.010101 0.000000
191 0.919192 0.010101 0.000000
192 0.929293 0.010101 0.000000
193 0.939394 0.010101 0.000000
194 0.949495 0.010101 0.000000
195 0.959596 0.010101 0.000000
196 0.969697 0.010101 0.000000
197 0.979798 0.010101 0.000000
198 0.989899 0.010101 0.000000
199 1.000000 0.010101 0.000000
200 0.000000 0.020202 0.000000
201 0.010101 0.020202 0.000000
202 0.020202 0.020202 0.000000
203 0.030303 0.020202 0.000000
204 0.040404 0.020202 0.000000
205 0.050505 0.020202 0.000000
206 0.060606 0.020202 0.000000
207 0.070707 0.020202 0.000000
208 0.080808 0.020202 0.000000
209 0.090909 0.020202 0.000000
210 0.101010 0.020202 0.000000
211 0.111111 0.020202 0.000000
212 0.121212 0.020202 0.000000
213 0.131313 0.020202 0.000000
214 0.141414 0.020202 0.000000
215 0.151515 0.020202 0.000000
216 0.161616 0.020202 0.000000
217 0.171717 0.020202 0.000000
218 0.181818 0.020202 0.000000
219 0.191919 0.020202 0.000000
220 0.202020 0.020202 0.000000
221 0.212121 0.020202 0.000000
222 0.222222 0.020202 0.000000
223 0.232323 0.020202 0.000000
224 0.242424 0.020202 0.000000
225 0.252525 0.020202 0.000000
226 0.262626 0.020202 0.000000
227 0.272727 0.020202 0.000000
228 0.282828 0.020202 0.000000
229 0.292929 0.020202 0.000000
230 0.303030 0.020202 0.000000
231 0.313131 0.020202 0.000000
232 0.323232 0.020202 0.000000
233 0.333333 0.020202 0.139729
234 0.343434 0.020202 0.046576
235 0.353535 0.020202 0.000000
236 0.363636 0.020202 0.000000
237 0.373737 0.020202 0.000000
238 0.383838 0.020202 0.075928
239 0.393939 0.020202 0.742964
240 0.404040 0.020202 0.095059
241 0.414141 0.020202 0.000000
242 0.424242 0.020202 0.121709
243 0.434343 0.020202 0.000000
244 0.444444 0.020202 0.000000
245 0.454545 0.020202 0.000000
246 0.464646 0.020202 0.000000
247 0.474747 0.020202 0.000000
248 0.484848 0.020202 0.000000
249 0.494949 0.020202 0.000000
250 0.505050 0.020202 0.000000
251 0.515152 0.020202 0.111179
252 0.525253 0.020202 0.000000
253 0.535354 0.020202 0.000000
254 0.545455 0.020202 0.000000
255 0.555556 0.020202 0.236885
256 0.565657 0.020202 0.641531
257 0.575758 0.020202 0.193992
258 0.585859 0.020202 0.000000
259 0.595960 0.020202 0.000000
260 0.606061 0.020202 0.080109
261 0.616162 0.020202 0.000000
262 0.626263 0.020202 0.192433
263 0.636364 0.020202 0.079907
264 0.646465 0.020202 0.079907
265 0.656566 0.020202 0.079907
266 0.666667 0.020202 0.039954
267 0.676768 0.020202 0.000000
268 0.686869 0.020202 0.000000
269 0.696970 0.020202 0.000000
270 0.707071 0.020202 0.000000
271 0.717172 0.020202 0.000000
272 0.727273 0.020202 0.000000
273 0.737374 0.020202 0.000000
274 0.747475 0.020202 0.000000
275 0.757576 0.020202 0.000000
276 0.767677 0.020202 0.000000
277 0.777778 0.020202 0.000000
278 0.787879 0.020202 0.000000
279 0.797980 0.020202 0.000000
280 0.808081 0.020202 0.000000
281 0.818182 0.020202 0.000000
282 0.828283 0.020202 0.000000
283 0.838384 0.020202 0.000000
284 0.848485 0.020202 0.000000
285 0.858586 0.020202 0.000000
286 0.868687 0.020202 0.000000
287 0.878788 0.020202 0.000000
288 0.888889 0.020202 0.000000
289 0.898990 0.020202 0.000000
290 0.909091 0.020202 0.000000
291 0.919192 0.020202 0.000000
292 0.929293 0.020202 0.000000
293 0.939394 0.020202 0.000000
294 0.949495 0.020202 0.000000
295 0.959596 0.020202 0.000000
296 0.969697 0.020202 0.000000
297 0.979798 0.020202 0.000000
298 0.989899 0.020202 0.000000
299 1.000000 0.020202 0.000000
300 0.000000 0.030303 0.000000
301 0.010101 0.030303 0.000000
302 0.020202 0.030303 0.000000
303 0.030303 0.030303 0.000000
304 0.040404 0.030303 0.000000
305 0.050505 0.030303 0.000000
306 0.060606 0.030303 0.000000
307 0.070707 0.030303 0.000000
308 0.080808 0.030303 0.000000
309 0.090909 0.030303 0.000000
310 0.101010 0.030303 0.000000
311 0.111111 0.030303 0.000000
312 0.121212 0.030303 0.000000
313 0.131313 0.030303 0.000000
314 0.141414 0.030303 0.000000
315 0.151515 0.030303 0.000000
316 0.161616 0.030303 0.000000
317 0.171717 0.030303 0.000000
318 0.181818 0.030303 0.000000
319 0.191919 0.030303 0.000000
320 0.202020 0.030303 0.000000
321 0.212121 0.030303 0.000000
322 0.222222 0.030303 0.000000
323 0.232323 0.030303 0.000000
324 0.242424 0.030303 0.000000
325 0.252525 0.030303 0.000000
326 0.262626 0.030303 0.000000
327 0.272727 0.030303 0.000000
328 0.282828 0.030303 0.000000
329 0.292929 0.030303 0.000000
330 0.303030 0.030303 0.000000
331 0.313131 0.030303 0.055435
332 0.323232 0.030303 0.110870
333 0.333333 0.030303 0.000000
334 0.343434 0.030303 0.046577
335 0.353535 0.030303 0.093153
336 0.363636 0.030303 0.093153
337 0.373737 0.030303 0.000000
338 0.383838 0.030303 0.000000
339 0.393939 0.030303 0.706240
340 0.404040 0.030303 0.081139
341 0.414141 0.030303 0.081139
342 0.424242 0.030303 0.000000
343 0.434343 0.030303 0.000000
344 0.444444 0.030303 0.000000
345 0.454545 0.030303 0.000000
346 0.464646 0.030303 0.000000
347 0.474747 0.030303 0.086482
348 0.484848 0.030303 0.129723
349 0.494949 0.030303 0.129723
350 0.505050 0.030303 0.086482
351 0.515152 0.030303 0.185312
352 0.525253 0.030303 0.197660
353 0.535354 0.030303 0.086482
354 0.545455 0.030303 0.129723
355 0.555556 0.030303 0.157923
356 0.565657 0.030303 0.537461
357 0.575758 0.030303 0.079907
358 0.585859 0.030303 0.159915
359 0.595960 0.030303 0.280179
360 0.606061 0.030303 0.160016
361 0.616162 0.030303 0.170307
362 0.626263 0.030303 0.229316
363 0.636364 0.030303 0.000000
364 0.646465 0.030303 0.000000
365 0.656566 0.030303 0.000000
366 0.666667 0.030303 0.000000
367 0.676768 0.030303 0.000000
368 0.686869 0.030303 0.000000
369 0.696970 0.030303 0.000000
370 0.707071 0.030303 0.000000
371 0.717172 0.030303 0.000000
372 0.727273 0.030303 0.000000
373 0.737374 0.030303 0.000000
374 0.747475 0.030303 0.000000
375 0.757576 0.030303 0.000000
376 0.767677 0.030303 0.000000
377 0.777778 0.030303 0.000000
378 0.787879 0.030303 0.000000
379 0.797980 0.030303 0.000000
380 0.808081 0.030303 0.000000
381 0.818182 0.030303 0.000000
382 0.828283 0.030303 0.000000
383 0.838384 0.030303 0.000000
384 0.848485 0.030303 0.000000
385 0.858586 0.030303 0.000000
386 0.868687 0.030303 0.000000
387 0.878788 0.030303 0.000000
388 0.888889 0.030303 0.000000
389 0.898990 0.030303 0.000000
390 0.909091 0.030303 0.000000
391 0.919192 0.030303 0.000000
392 0.929293 0.030303 0.000000
393 0.939394 0.030303 0.000000
394 0.949495 0.030303 0.000000
395 0.959596 0.030303 0.000000
396 0.969697 0.030303 0.000000
397 0.979798 0.030303 0.000000
398 0.989899 0.030303 0.000000
399 1.000000 0.030303 0.000000
400 0.000000 0.040404 0.000000
401 0.010101 0.040404 0.000000
402 0.020202 0.040404 0.000000
403 0.030303 0.040404 0.000000
404 0.040404 0.040404 0.000000
405 0.050505 0.040404 0.000000
406 0.060606 0.040404 0.000000
407 0.070707 0.040404 0.000000
408 0.080808 0.040404 0.000000
409 0.090909 0.040404 0.000000
410 0.101010 0.040404 0.000000
411 0.111111 0.040404 0.000000
412 0.121212 0.040404 0.000000
413 0.131313 0.040404 0.000000
414 0.141414 0.040404 0.000000
415 0.151515 0.040404 0.000000
416 0.161616 0.040404 0.000000
417 0.171717 0.040404 0.000000
418 0.181818 0.040404 0.000000
419 0.191919 0.040404 0.000000
420 0.202020 0.040404 0.000000
421 0.212121 0.040404 0.000000
422 0.222222 0.040404 0.000000
423 0.232323 0.040404 0.000000
424 0.242424 0.040404 0.000000
425 0.252525 0.040404 0.000000
426 0.262626 0.040404 0.000000
427 0.272727 0.040404 0.000000
428 0.282828 0.040404 0.000000
429 0.292929 0.040404 0.000000
430 0.303030 0.040404 0.000000
431 0.313131 0.040404 0.000000
432 0.323232 0.040404 0.103059
433 0.333333 0.040404 0.166305
434 0.343434 0.040404 0.161347
435 0.353535 0.040404 0.110870
436 0.363636 0.040404 0.212882
437 0.373737 0.040404 0.204023
438 0.383838 0.040404 0.157447
439 0.393939 0.040404 0.591296
440 0.404040 0.040404 0.000000
441 0.414141 0.040404 0.000000
442 0.424242 0.040404 0.000000
443 0.434343 0.040404 0.000000
444 0.444444 0.040404 0.000000
445 0.454545 0.040404 0.000000
446 0.464646 0.040404 0.000000
447 0.474747 0.040404 0.000000
448 0.484848 0.040404 0.000000
449 0.494949 0.040404 0.000000
450 0.505050 0.040404 0.053914
451 0.515152 0.040404 0.000000
452 0.525253 0.040404 0.055589
453 0.535354 0.040404 0.201927
454 0.545455 0.040404 0.044068
455 0.555556 0.040404 0.204924
456 0.565657 0.040404 0.587963
457 0.575758 0.040404 0.240327
458 0.585859 0.040404 0.207974
459 0.595960 0.040404 0.191027
460 0.606061 0.040404 0.366713
461 0.616162 0.040404 0.383079
462 0.626263 0.040404 0.045093
463 0.636364 0.040404 0.135280
464 0.646465 0.040404 0.045093
465 0.656566 0.040404 0.000000
466 0.666667 0.040404 0.000000
467 0.676768 0.040404 0.000000
468 0.686869 0.040404 0.000000
469 0.696970 0.040404 0.000000
470 0.707071 0.040404 0.000000
471 0.717172 0.040404 0.000000
472 0.727273 0.040404 0.000000
473 0.737374 0.040404 0.000000
474 0.747475 0.040404 0.000000
475 0.757576 0.040404 0.000000
476 0.767677 0.040404 0.000000
477 0.777778 0.040404 0.000000
478 0.787879 0.040404 0.000000
479 0.797980 0.040404 0.000000
480 0.808081 0.040404 0.000000
481 0.818182 0.040404 0.000000
482 0.828283 0.040404 0.000000
483 0.838384 0.040404 0.000000
484 0.848485 0.040404 0.000000
485 0.858586 0.040404 0.000000
486 0.868687 0.040404 0.000000
487 0.878788 0.040404 0.000000
488 0.888889 0.040404 0.000000
489 0.898990 0.040404 0.000000
490 0.909091 0.040404 0.000000
491 0.919192 0.040404 0.000000
492 0.929293 0.040404 0.000000
493 0.939394 0.040404 0.000000
494 0.949495 0.040404 0.000000
495 0.959596 0.040404 0.000000
496 0.969697 0.040404 0.000000
497 0.979798 0.040404 0.000000
498 0.989899 0.040404 0.000000
499 1.000000 0.040404 0.000000
500 0.000000 0.050505 0.000000
501 0.010101 0.050505 0.000000
502 0.020202 0.050505 0.000000
503 0.030303 0.050505 0.000000
504 0.040404 0.050505 0.000000
505 0.050505 0.050505 0.000000
506 0.060606 0.050505 0.000000
507 0.070707 0.050505 0.000000
508 0.080808 0.050505 0.000000
509 0.090909 0.050505 0.000000
510 0.101010 0.050505 0.000000
511 0.111111 0.050505 0.000000
512 0.121212 0.050505 0.000000
513 0.131313 0.050505 0.000000
514 0.141414 0.050505 0.000000
515 0.151515 0.050505 0.000000
516 0.161616 0.050505 0.000000
517 0.171717 0.050505 0.000000
518 0.181818 0.050505 0.000000
519 0.191919 0.050505 0.000000
520 0.202020 0.050505 0.000000
521 0.212121 0.050505 0.000000
522 0.222222 0.050505 0.000000
523 0.232323 0.050505 0.000000
524 0.242424 0.050505 0.000000
525 0.252525 0.050505 0.000000
526 0.262626 0.050505 0.000000
527 0.272727 0.050505 0.000000
528 0.282828 0.050505 0.000000
529 0.292929 0.050505 0.000000
530 0.303030 0.050505 0.000000
531 0.313131 0.050505 0.000000
532 0.323232 0.050505 0.051530
533 0.333333 0.050505 0.154589
534 0.343434 0.050505 0.252384
535 0.353535 0.050505 0.252384
536 0.363636 0.050505 0.151431
537 0.373737 0.050505 0.151431
538 0.383838 0.050505 0.198007
539 0.393939 0.050505 0.514710
540 0.404040 0.050505 0.000000
541 0.414141 0.050505 0.000000
542 0.424242 0.050505 0.000000
543 0.434343 0.050505 0.000000
544 0.444444 0.050505 0.000000
545 0.454545 0.050505 0.000000
546 0.464646 0.050505 0.000000
547 0.474747 0.050505 0.053914
548 0.484848 0.050505 0.107829
549 0.494949 0.050505 0.107829
550 0.505050 0.050505 0.000000
551 0.515152 0.050505 0.000000
552 0.525253 0.050505 0.000000
553 0.535354 0.050505 0.201927
554 0.545455 0.050505 0.143725
555 0.555556 0.050505 0.201991
556 0.565657 0.050505 0.654321
557 0.575758 0.050505 0.278550
558 0.585859 0.050505 0.278550
559 0.595960 0.050505 0.177923
560 0.606061 0.050505 0.409955
561 0.616162 0.050505 0.186106
562 0.626263 0.050505 0.090186
563 0.636364 0.050505 0.000000
564 0.646465 0.050505 0.000000
565 0.656566 0.050505 0.000000
566 0.666667 0.050505 0.000000
567 0.676768 0.050505 0.000000
568 0.686869 0.050505 0.000000
569 0.696970 0.050505 0.000000
570 0.707071 0.050505 0.000000
571 0.717172 0.050505 0.000000
572 0.727273 0.050505 0.000000
573 0.737374 0.050505 0.000000
574 0.747475 0.050505 0.000000
575 0.757576 0.050505 0.000000
576 0.767677 0.050505 0.000000
577 0.777778 0.050505 0.000000
578 0.787879 0.050505 0.000000
579 0.797980 0.050505 0.000000
580 0.808081 0.050505 0.000000
581 0.818182 0.050505 0.000000
582 0.828283 0.050505 0.000000
583 0.838384 0.050505 0.000000
584 0.848485 0.050505 0.000000
585 0.858586 0.050505 0.000000
586 0.868687 0.050505 0.000000
587 0.878788 0.050505 0.000000
588 0.888889 0.050505 0.000000
589 0.898990 0.050505 0.000000
590 0.909091 0.050505 0.000000
591 0.919192 0.050505 0.000000
592 0.929293 0.050505 0.000000
593 0.939394 0.050505 0.000000
594 0.949495 0.050505 0.000000
595 0.959596 0.050505 0.000000
596 0.969697 0.050505 0.000000
597 0.979798 0.050505 0.000000
598 0.989899 0.050505 0.000000
599 1.000000 0.050505 0.000000
600 0.000000 0.060606 0.000000
601 0.010101 0.060606 0.000000
602 0.020202 0.060606 0.000000
603 0.030303 0.060606 0.000000
604 0.040404 0.060606 0.000000
605 0.050505 0.060606 0.000000
606 0.060606 0.060606 0.000000
607 0.070707 0.060606 0.000000
608 0.080808 0.060606 0.000000
609 0.090909 0.060606 0.000000
610 0.101010 0.060606 0.000000
611 0.111111 0.060606 0.000000
612 0.121212 0.060606 0.000000
613 0.131313 0.060606 0.000000
614 0.141414 0.060606 0.000000
615 0.151515 0.060606 0.000000
616 0.161616 0.060606 0.000000
617 0.171717 0.060606 0.000000
618 0.181818 0.060606 0.000000
619 0.191919 0.060606 0.000000
620 0.202020 0.060606 0.000000
621 0.212121 0.060606 0.000000
622 0.222222 0.060606 0.000000
623 0.232323 0.060606 0.000000
624 0.242424 0.060606 0.000000
625 0.252525 0.060606 0.000000
626 0.262626 0.060606 0.000000
627 0.272727 0.060606 0.000000
628 0.282828 0.060606 0.000000
629 0.292929 0.060606 0.000000
630 0.303030 0.060606 0.000000
631 0.313131 0.060606 0.000000
632 0.323232 0.060606 0.000000
633 0.333333 0.060606 0.051530
634 0.343434 0.060606 0.103059
635 0.353535 0.060606 0.000000
636 0.363636 0.060606 0.047463
637 0.373737 0.060606 0.000000
638 0.383838 0.060606 0.000000
639 0.393939 0.060606 0.531417
640 0.404040 0.060606 0.000000
641 0.414141 0.060606 0.000000
642 0.424242 0.060606 0.062219
643 0.434343 0.060606 0.124438
644 0.444444 0.060606 0.000000
645 0.454545 0.060606 0.107829
646 0.464646 0.060606 0.161743
647 0.474747 0.060606 0.053914
648 0.484848 0.060606 0.000000
649 0.494949 0.060606 0.057315
650 0.505050 0.060606 0.114630
651 0.515152 0.060606 0.000000
652 0.525253 0.060606 0.000000
653 0.535354 0.060606 0.136123
654 0.545455 0.060606 0.111178
655 0.555556 0.060606 0.317756
656 0.565657 0.060606 0.606213
657 0.575758 0.060606 0.175686
658 0.585859 0.060606 0.170573
659 0.595960 0.060606 0.264042
660 0.606061 0.060606 0.101653
661 0.616162 0.060606 0.000000
662 0.626263 0.060606 0.000000
663 0.636364 0.060606 0.000000
664 0.646465 0.060606 0.000000
665 0.656566 0.060606 0.000000
666 0.666667 0.060606 0.000000
667 0.676768 0.060606 0.000000
668 0.686869 0.060606 0.000000
669 0.696970 0.060606 0.000000
670 0.707071 0.060606 0.000000
671 0.717172 0.060606 0.000000
672 0.727273 0.060606 0.000000
673 0.737374 0.060606 0.000000
674 0.747475 0.060606 0.000000
675 0.757576 0.060606 0.000000
676 0.767677 0.060606 0.000000
677 0.777778 0.060606 0.000000
678 0.787879 0.060606 0.000000
679 0.797980 0.060606 0.000000
680 0.808081 0.060606 0.000000
681 0.818182 0.060606 0.000000
682 0.828283 0.060606 0.000000
683 0.838384 0.060606 0.000000
684 0.848485 0.060606 0.000000
685 0.858586 0.060606 0.000000
686 0.868687 0.060606 0.000000
687 0.878788 0.060606 0.000000
688 0.888889 0.060606 0.000000
689 0.898990 0.060606 0.000000
690 0.909091 0.060606 0.000000
691 0.919192 0.060606 0.000000
692 0.929293 0.060606 0.000000
693 0.939394 0.060606 0.000000
694 0.949495 0.060606 0.000000
695 0.959596 0.060606 0.000000
696 0.969697 0.060606 0.000000
697 0.979798 0.060606 0.000000
698 0.989899 0.060606 0.000000
699 1.000000 0.060606 0.000000
700 0.000000 0.070707 0.000000
701 0.010101 0.070707 0.000000
702 0.020202 0.070707 0.000000
703 0.030303 0.070707 0.000000
704 0.040404 0.070707 0.000000
705 0.050505 0.070707 0.000000
706 0.060606 0.070707 0.000000
707 0.070707 0.070707 0.000000
708 0.080808 0.070707 0.000000
709 0.090909 0.070707 0.000000
710 0.101010 0.070707 0.000000
711 0.111111 0.070707 0.000000
712 0.121212 0.070707 0.000000
713 0.131313 0.070707 0.000000
714 0.141414 0.070707 0.000000
715 0.151515 0.070707 0.000000
716 0.161616 0.070707 0.000000
717 0.171717 0.070707 0.000000
718 0.181818 0.070707 0.000000
719 0.191919 0.070707 0.000000
720 0.202020 0.070707 0.000000
721 0.212121 0.070707 0.000000
722 0.222222 0.070707 0.000000
723 0.232323 0.070707 0.000000
724 0.242424 0.070707 0.000000
725 0.252525 0.070707 0.058125
726 0.262626 0.070707 0.000000
727 0.272727 0.070707 0.000000
728 0.282828 0.070707 0.000000
729 0.292929 0.070707 0.000000
730 0.303030 0.070707 0.000000
731 0.313131 0.070707 0.000000
732 0.323232 0.070707 0.000000
733 0.333333 0.070707 0.000000
734 0.343434 0.070707 0.103059
735 0.353535 0.070707 0.103059
736 0.363636 0.070707 0.284776
737 0.373737 0.070707 0.000000
738 0.383838 0.070707 0.000000
739 0.393939 0.070707 1.387570
740 0.404040 0.070707 0.000000
741 0.414141 0.070707 0.107829
742 0.424242 0.070707 0.294486
743 0.434343 0.070707 0.107829
744 0.444444 0.070707 0.107829
745 0.454545 0.070707 0.000000
746 0.464646 0.070707 0.114630
747 0.474747 0.070707 0.171945
748 0.484848 0.070707 0.114630
749 0.494949 0.070707 0.057315
750 0.505050 0.070707 0.000000
751 0.515152 0.070707 0.000000
752 0.525253 0.070707 0.000000
753 0.535354 0.070707 0.090749
754 0.545455 0.070707 0.045374
755 0.555556 0.070707 0.243382
756 0.565657 0.070707 0.810567
757 0.575758 0.070707 0.042643
758 0.585859 0.070707 0.050826
759 0.595960 0.070707 0.101653
760 0.606061 0.070707 0.000000
761 0.616162 0.070707 0.000000
762 0.626263 0.070707 0.000000
763 0.636364 0.070707 0.000000
764 0.646465 0.070707 0.000000
765 0.656566 0.070707 0.080690
766 0.666667 0.070707 0.122434
767 0.676768 0.070707 0.089818
768 0.686869 0.070707 0.089818
769 0.696970 0.070707 0.089818
770 0.707071 0.070707 0.048118
771 0.717172 0.070707 0.000000
772 0.727273 0.070707 0.000000
773 0.737374 0.070707 0.000000
774 0.747475 0.070707 0.000000
775 0.757576 0.070707 0.000000
776 0.767677 0.070707 0.000000
777 0.777778 0.070707 0.000000
778 0.787879 0.070707 0.000000
779 0.797980 0.070707 0.000000
780 0.808081 0.070707 0.000000
781 0.818182 0.070707 0.000000
782 0.828283 0.070707 0.000000
783 0.838384 0.070707 0.000000
784 0.848485 0.070707 0.000000
785 0.858586 0.070707 0.000000
786 0.868687 0.070707 0.000000
787 0.878788 0.070707 0.000000
788 0.888889 0.070707 0.000000
789 0.898990 0.070707 0.000000
790 0.909091 0.070707 0.000000
791 0.919192 0.070707 0.000000
792 0.929293 0.070707 0.000000
793 0.939394 0.070707 0.000000
794 0.949495 0.070707 0.000000
795 0.959596 0.070707 0.000000
796 0.969697 0.070707 0.000000
797 0.979798 0.070707 0.000000
798 0.989899 0.070707 0.000000
799 1.000000 0.070707 0.000000
800 0.000000 0.080808 0.000000
801 0.010101 0.080808 0.000000
802 0.020202 0.080808 0.000000
803 0.030303 0.080808 0.000000
804 0.040404 0.080808 0.000000
805 0.050505 0.080808 0.000000
806 0.060606 0.080808 0.000000
807 0.070707 0.080808 0.000000
808 0.080808 0.080808 0.000000
809 0.090909 0.080808 0.000000
810 0.101010 0.080808 0.000000
811 0.111111 0.080808 0.000000
812 0.121212 0.080808 0.000000
813 0.131313 0.080808 0.000000
814 0.141414 0.080808 0.000000
815 0.151515 0.080808 0.000000
816 0.161616 0.080808 0.000000
817 0.171717 0.080808 0.000000
818 0.181818 0.080808 0.000000
819 0.191919 0.080808 0.000000
820 0.202020 0.080808 0.000000
821 0.212121 0.080808 0.000000
822 0.222222 0.080808 0.000000
823 0.232323 0.080808 0.000000
824 0.242424 0.080808 0.000000
825 0.252525 0.080808 0.000000
826 0.262626 0.080808 0.174375
827 0.272727 0.080808 0.000000
828 0.282828 0.080808 0.000000
829 0.292929 0.080808 0.000000
830 0.303030 0.080808 0.000000
831 0.313131 0.080808 0.088625
832 0.323232 0.080808 0.044313
833 0.333333 0.080808 0.000000
834 0.343434 0.080808 0.222846
835 0.353535 0.080808 0.103059
836 0.363636 0.080808 0.391902
837 0.373737 0.080808 0.000000
838 0.383838 0.080808 0.000000
839 0.393939 0.080808 0.660587
840 0.404040 0.080808 0.323039
841 0.414141 0.080808 0.434690
842 0.424242 0.080808 0.457963
843 0.434343 0.080808 0.375901
844 0.444444 0.080808 0.317298
845 0.454545 0.080808 0.188173
846 0.464646 0.080808 0.073543
847 0.474747 0.080808 0.000000
848 0.484848 0.080808 0.000000
849 0.494949 0.080808 0.000000
850 0.505050 0.080808 0.000000
851 0.515152 0.080808 0.077874
852 0.525253 0.080808 0.077874
853 0.535354 0.080808 0.077874
854 0.545455 0.080808 0.259371
855 0.555556 0.080808 0.166010
856 0.565657 0.080808 0.619503
857 0.575758 0.080808 0.050827
858 0.585859 0.080808 0.153610
859 0.595960 0.080808 0.000000
860 0.606061 0.080808 0.000000
861 0.616162 0.080808 0.000000
862 0.626263 0.080808 0.089818
863 0.636364 0.080808 0.089818
864 0.646465 0.080808 0.369776
865 0.656566 0.080808 0.206406
866 0.666667 0.080808 0.248392
867 0.676768 0.080808 0.000000
868 0.686869 0.080808 0.144354
869 0.696970 0.080808 0.096236
870 0.707071 0.080808 0.048118
871 0.717172 0.080808 0.000000
872 0.727273 0.080808 0.000000
873 0.737374 0.080808 0.000000
874 0.747475 0.080808 0.000000
875 0.757576 0.080808 0.000000
876 0.767677 0.080808 0.000000
877 0.777778 0.080808 0.000000
878 0.787879 0.080808 0.000000
879 0.797980 0.080808 0.000000
880 0.808081 0.080808 0.000000
881 0.818182 0.080808 0.000000
882 0.828283 0.080808 0.000000
883 0.838384 0.080808 0.000000
884 0.848485 0.080808 0.000000
885 0.858586 0.080808 0.000000
886 0.868687 0.080808 0.000000
887 0.878788 0.080808 0.000000
888 0.888889 0.080808 0.000000
889 0.898990 0.080808 0.000000
890 0.909091 0.080808 0.000000
891 0.919192 0.080808 0.000000
892 0.929293 0.080808 0.000000
893 0.939394 0.080808 0.000000
894 0.949495 0.080808 0.000000
895 0.959596 0.080808 0.000000
896 0.969697 0.080808 0.000000
897 0.979798 0.080808 0.000000
898 0.989899 0.080808 0.000000
899 1.000000 0.080808 0.000000
900 0.000000 0.090909 0.000000
901 0.010101 0.090909 0.000000
902 0.020202 0.090909 0.000000
903 0.030303 0.090909 0.000000
904 0.040404 0.090909 0.000000
905 0.050505 0.090909 0.000000
906 0.060606 0.090909 0.000000
907 0.070707 0.090909 0.000000
908 0.080808 0.090909 0.000000
909 0.090909 0.090909 0.000000
910 0.101010 0.090909 0.000000
911 0.111111 0.090909 0.000000
912 0.121212 0.090909 0.000000
913 0.131313 0.090909 0.000000
914 0.141414 0.090909 0.000000
915 0.151515 0.090909 0.000000
916 0.161616 0.090909 0.000000
917 0.171717 0.090909 0.000000
918 0.181818 0.090909 0.000000
919 0.191919 0.090909 0.000000
920 0.202020 0.090909 0.000000
921 0.212121 0.090909 0.000000
922 0.222222 0.090909 0.000000
923 0.232323 0.090909 0.000000
924 0.242424 0.090909 0.000000
925 0.252525 0.090909 0.000000
926 0.262626 0.090909 0.000000
927 0.272727 0.090909 0.174376
928 0.282828 0.090909 0.000000
929 0.292929 0.090909 0.000000
930 0.303030 0.090909 0.000000
931 0.313131 0.090909 0.000000
932 0.323232 0.090909 0.132938
933 0.333333 0.090909 0.044313
934 0.343434 0.090909 0.044569
935 0.353535 0.090909 0.133707
936 0.363636 0.090909 0.094925
937 0.373737 0.090909 0.344440
938 0.383838 0.090909 0.103059
939 0.393939 0.090909 0.540047
940 0.404040 0.090909 0.182702
941 0.414141 0.090909 0.265824
942 0.424242 0.090909 0.110315
943 0.434343 0.090909 0.189340
944 0.444444 0.090909 0.094479
945 0.454545 0.090909 0.301465
946 0.464646 0.090909 0.206986
947 0.474747 0.090909 0.159747
948 0.484848 0.090909 0.077874
949 0.494949 0.090909 0.116811
950 0.505050 0.090909 0.077874
951 0.515152 0.090909 0.000000
952 0.525253 0.090909 0.000000
953 0.535354 0.090909 0.000000
954 0.545455 0.090909 0.136123
955 0.555556 0.090909 0.000000
956 0.565657 0.090909 0.761459
957 0.575758 0.090909 0.293123
958 0.585859 0.090909 0.245688
959 0.595960 0.090909 0.089818
960 0.606061 0.090909 0.165595
961 0.616162 0.090909 0.210504
962 0.626263 0.090909 0.116588
963 0.636364 0.090909 0.195288
964 0.646465 0.090909 0.213882
965 0.656566 0.090909 0.096236
966 0.666667 0.090909 0.096236