title = "dataset water"
variables = "x", "y", "z", "vx", "vy", "vz"
zone t = "velocities, solution time =  5.900E+01 days        " i =   99, j =   99, k =    1,  f=point
  0.5050505E-02  0.0000000E+00  0.5050505E-02  0.3122665E-06  0.0000000E+00  0.3748549E-03
  0.1515152E-01  0.0000000E+00  0.5050505E-02  0.9396863E-06  0.0000000E+00  0.3761691E-03
  0.2525252E-01  0.0000000E+00  0.5050505E-02  0.1575989E-05  0.0000000E+00  0.3788102E-03
  0.3535353E-01  0.0000000E+00  0.5050505E-02  0.2227641E-05  0.0000000E+00  0.3828048E-03
  0.4545455E-01  0.0000000E+00  0.5050505E-02  0.2901833E-05  0.0000000E+00  0.3881945E-03
  0.5555556E-01  0.0000000E+00  0.5050505E-02  0.3606800E-05  0.0000000E+00  0.3950377E-03
  0.6565657E-01  0.0000000E+00  0.5050505E-02  0.4352236E-05  0.0000000E+00  0.4034128E-03
  0.7575758E-01  0.0000000E+00  0.5050505E-02  0.5149921E-05  0.0000000E+00  0.4134218E-03
  0.8585858E-01  0.0000000E+00  0.5050505E-02  0.6014742E-05  0.0000000E+00  0.4251962E-03
  0.9595960E-01  0.0000000E+00  0.5050505E-02  0.6966528E-05  0.0000000E+00  0.4389059E-03
  0.1060606E+00  0.0000000E+00  0.5050505E-02  0.8033576E-05  0.0000000E+00  0.4547741E-03
  0.1161616E+00  0.0000000E+00  0.5050505E-02  0.9259729E-05  0.0000000E+00  0.4731033E-03
  0.1262626E+00  0.0000000E+00  0.5050505E-02  0.1071946E-04  0.0000000E+00  0.4943262E-03
  0.1363636E+00  0.0000000E+00  0.5050505E-02  0.1255256E-04  0.0000000E+00  0.5191106E-03
  0.1464646E+00  0.0000000E+00  0.5050505E-02  0.1505274E-04  0.0000000E+00  0.5485985E-03
  0.1565657E+00  0.0000000E+00  0.5050505E-02  0.1892491E-04  0.0000000E+00  0.5850246E-03
  0.1666667E+00  0.0000000E+00  0.5050505E-02  0.2613389E-04  0.0000000E+00  0.6335496E-03
  0.1767677E+00  0.0000000E+00  0.5050505E-02  0.4303214E-04  0.0000000E+00  0.7085020E-03
  0.1868687E+00  0.0000000E+00  0.5050505E-02  0.2354536E-04  0.0000000E+00  0.7811190E-03
  0.1969697E+00  0.0000000E+00  0.5050505E-02  0.1559851E-04  0.0000000E+00  0.8242268E-03
  0.2070707E+00  0.0000000E+00  0.5050505E-02  0.1947059E-04  0.0000000E+00  0.8630780E-03
  0.2171717E+00  0.0000000E+00  0.5050505E-02  0.2246003E-04  0.0000000E+00  0.9097428E-03
  0.2272727E+00  0.0000000E+00  0.5050505E-02  0.2408022E-04  0.0000000E+00  0.9618201E-03
  0.2373737E+00  0.0000000E+00  0.5050505E-02  0.2496248E-04  0.0000000E+00  0.1017033E-02
  0.2474747E+00  0.0000000E+00  0.5050505E-02  0.2661064E-04  0.0000000E+00  0.1075476E-02
  0.2575758E+00  0.0000000E+00  0.5050505E-02  0.3055276E-04  0.0000000E+00  0.1140709E-02
  0.2676768E+00  0.0000000E+00  0.5050505E-02  0.3825496E-04  0.0000000E+00  0.1219850E-02
  0.2777778E+00  0.0000000E+00  0.5050505E-02  0.5302161E-04  0.0000000E+00  0.1325849E-02
  0.2878788E+00  0.0000000E+00  0.5050505E-02  0.5542680E-04  0.0000000E+00  0.1453267E-02
  0.2979798E+00  0.0000000E+00  0.5050505E-02  0.2714863E-04  0.0000000E+00  0.1551459E-02
  0.3080808E+00  0.0000000E+00  0.5050505E-02  0.4580263E-04  0.0000000E+00  0.1639505E-02
  0.3181818E+00  0.0000000E+00  0.5050505E-02  0.5749492E-04  0.0000000E+00  0.1765417E-02
  0.3282828E+00  0.0000000E+00  0.5050505E-02  0.2714311E-04  0.0000000E+00  0.1869705E-02
  0.3383838E+00  0.0000000E+00  0.5050505E-02  0.2394774E-04  0.0000000E+00  0.1933578E-02
  0.3484848E+00  0.0000000E+00  0.5050505E-02  0.2029862E-04  0.0000000E+00  0.1989294E-02
  0.3585859E+00  0.0000000E+00  0.5050505E-02  0.4658197E-04  0.0000000E+00  0.2074166E-02
  0.3686869E+00  0.0000000E+00  0.5050505E-02  0.3662306E-04  0.0000000E+00  0.2180566E-02
  0.3787879E+00  0.0000000E+00  0.5050505E-02  0.7458713E-04  0.0000000E+00  0.2324868E-02
  0.3888889E+00  0.0000000E+00  0.5050505E-02  0.1662070E-03  0.0000000E+00  0.2643152E-02
  0.3989899E+00  0.0000000E+00  0.5050505E-02 -0.1234985E-03  0.0000000E+00  0.2697968E-02
  0.4090909E+00  0.0000000E+00  0.5050505E-02 -0.4522002E-04  0.0000000E+00  0.2471517E-02
  0.4191919E+00  0.0000000E+00  0.5050505E-02 -0.2309192E-04  0.0000000E+00  0.2380932E-02
  0.4292929E+00  0.0000000E+00  0.5050505E-02 -0.1091797E-04  0.0000000E+00  0.2336082E-02
  0.4393939E+00  0.0000000E+00  0.5050505E-02 -0.1590544E-04  0.0000000E+00  0.2300884E-02
  0.4494950E+00  0.0000000E+00  0.5050505E-02 -0.2301189E-04  0.0000000E+00  0.2250114E-02
  0.4595959E+00  0.0000000E+00  0.5050505E-02 -0.6185231E-04  0.0000000E+00  0.2141127E-02
  0.4696970E+00  0.0000000E+00  0.5050505E-02 -0.2032745E-04  0.0000000E+00  0.2036250E-02
  0.4797980E+00  0.0000000E+00  0.5050505E-02  0.4216744E-05  0.0000000E+00  0.2015780E-02
  0.4898990E+00  0.0000000E+00  0.5050505E-02  0.2630608E-04  0.0000000E+00  0.2054602E-02
  0.5000000E+00  0.0000000E+00  0.5050505E-02  0.6379484E-04  0.0000000E+00  0.2169838E-02
  0.5101010E+00  0.0000000E+00  0.5050505E-02  0.1541908E-04  0.0000000E+00  0.2271740E-02
  0.5202020E+00  0.0000000E+00  0.5050505E-02  0.7898870E-04  0.0000000E+00  0.2395463E-02
  0.5303030E+00  0.0000000E+00  0.5050505E-02  0.8079934E-04  0.0000000E+00  0.2607496E-02
  0.5404040E+00  0.0000000E+00  0.5050505E-02  0.9727254E-04  0.0000000E+00  0.2849658E-02
  0.5505050E+00  0.0000000E+00  0.5050505E-02  0.1000339E-03  0.0000000E+00  0.3124984E-02
  0.5606061E+00  0.0000000E+00  0.5050505E-02 -0.1170396E-03  0.0000000E+00  0.3101750E-02
  0.5707071E+00  0.0000000E+00  0.5050505E-02 -0.6758235E-04  0.0000000E+00  0.2843650E-02
  0.5808081E+00  0.0000000E+00  0.5050505E-02 -0.4268736E-05  0.0000000E+00  0.2744509E-02
  0.5909091E+00  0.0000000E+00  0.5050505E-02 -0.3549309E-04  0.0000000E+00  0.2690231E-02
  0.6010101E+00  0.0000000E+00  0.5050505E-02 -0.5485325E-04  0.0000000E+00  0.2568253E-02
  0.6111111E+00  0.0000000E+00  0.5050505E-02 -0.6468460E-04  0.0000000E+00  0.2409528E-02
  0.6212121E+00  0.0000000E+00  0.5050505E-02 -0.4857689E-04  0.0000000E+00  0.2261345E-02
  0.6313131E+00  0.0000000E+00  0.5050505E-02 -0.7858365E-04  0.0000000E+00  0.2098585E-02
  0.6414142E+00  0.0000000E+00  0.5050505E-02 -0.4573625E-04  0.0000000E+00  0.1941580E-02
  0.6515151E+00  0.0000000E+00  0.5050505E-02 -0.7100829E-04  0.0000000E+00  0.1797103E-02
  0.6616161E+00  0.0000000E+00  0.5050505E-02 -0.5087123E-04  0.0000000E+00  0.1648324E-02
  0.6717172E+00  0.0000000E+00  0.5050505E-02 -0.3481063E-04  0.0000000E+00  0.1544996E-02
  0.6818182E+00  0.0000000E+00  0.5050505E-02 -0.6432165E-04  0.0000000E+00  0.1427468E-02
  0.6919192E+00  0.0000000E+00  0.5050505E-02 -0.3360486E-04  0.0000000E+00  0.1312446E-02
  0.7020202E+00  0.0000000E+00  0.5050505E-02 -0.2981773E-04  0.0000000E+00  0.1238676E-02
  0.7121212E+00  0.0000000E+00  0.5050505E-02 -0.4163058E-04  0.0000000E+00  0.1156460E-02
  0.7222222E+00  0.0000000E+00  0.5050505E-02 -0.4455307E-04  0.0000000E+00  0.1058350E-02
  0.7323232E+00  0.0000000E+00  0.5050505E-02 -0.3586143E-04  0.0000000E+00  0.9677141E-03
  0.7424242E+00  0.0000000E+00  0.5050505E-02 -0.3214836E-04  0.0000000E+00  0.8917646E-03
  0.7525253E+00  0.0000000E+00  0.5050505E-02 -0.2925124E-04  0.0000000E+00  0.8237499E-03
  0.7626263E+00  0.0000000E+00  0.5050505E-02 -0.2759706E-04  0.0000000E+00  0.7612468E-03
  0.7727273E+00  0.0000000E+00  0.5050505E-02 -0.2681882E-04  0.0000000E+00  0.7018424E-03
  0.7828283E+00  0.0000000E+00  0.5050505E-02 -0.2440713E-04  0.0000000E+00  0.6462839E-03
  0.7929293E+00  0.0000000E+00  0.5050505E-02 -0.2150877E-04  0.0000000E+00  0.5967769E-03
  0.8030303E+00  0.0000000E+00  0.5050505E-02 -0.1876951E-04  0.0000000E+00  0.5535729E-03
  0.8131313E+00  0.0000000E+00  0.5050505E-02 -0.1638145E-04  0.0000000E+00  0.5160387E-03
  0.8232324E+00  0.0000000E+00  0.5050505E-02 -0.1435046E-04  0.0000000E+00  0.4833523E-03
  0.8333333E+00  0.0000000E+00  0.5050505E-02 -0.1262656E-04  0.0000000E+00  0.4547585E-03
  0.8434343E+00  0.0000000E+00  0.5050505E-02 -0.1115207E-04  0.0000000E+00  0.4296313E-03
  0.8535354E+00  0.0000000E+00  0.5050505E-02 -0.9876312E-05  0.0000000E+00  0.4074697E-03
  0.8636364E+00  0.0000000E+00  0.5050505E-02 -0.8758448E-05  0.0000000E+00  0.3878773E-03
  0.8737374E+00  0.0000000E+00  0.5050505E-02 -0.7766614E-05  0.0000000E+00  0.3705394E-03
  0.8838384E+00  0.0000000E+00  0.5050505E-02 -0.6876183E-05  0.0000000E+00  0.3552049E-03
  0.8939394E+00  0.0000000E+00  0.5050505E-02 -0.6068055E-05  0.0000000E+00  0.3416713E-03
  0.9040404E+00  0.0000000E+00  0.5050505E-02 -0.5327259E-05  0.0000000E+00  0.3297744E-03
  0.9141414E+00  0.0000000E+00  0.5050505E-02 -0.4641870E-05  0.0000000E+00  0.3193795E-03
  0.9242424E+00  0.0000000E+00  0.5050505E-02 -0.4002199E-05  0.0000000E+00  0.3103761E-03
  0.9343435E+00  0.0000000E+00  0.5050505E-02 -0.3400200E-05  0.0000000E+00  0.3026732E-03
  0.9444444E+00  0.0000000E+00  0.5050505E-02 -0.2829033E-05  0.0000000E+00  0.2961962E-03
  0.9545454E+00  0.0000000E+00  0.5050505E-02 -0.2282747E-05  0.0000000E+00  0.2908845E-03
  0.9646465E+00  0.0000000E+00  0.5050505E-02 -0.1756041E-05  0.0000000E+00  0.2866899E-03
  0.9747475E+00  0.0000000E+00  0.5050505E-02 -0.1244094E-05  0.0000000E+00  0.2835752E-03
  0.9848485E+00  0.0000000E+00  0.5050505E-02 -0.7424302E-06  0.0000000E+00  0.2815133E-03
  0.9974747E+00  0.0000000E+00  0.5050505E-02 -0.2468153E-06  0.0000000E+00  0.2804867E-03
  0.5050505E-02  0.0000000E+00  0.1515152E-01  0.9329915E-06  0.0000000E+00  0.3740421E-03
  0.1515152E-01  0.0000000E+00  0.1515152E-01  0.2807557E-05  0.0000000E+00  0.3753463E-03
  0.2525252E-01  0.0000000E+00  0.1515152E-01  0.4708474E-05  0.0000000E+00  0.3779668E-03
  0.3535353E-01  0.0000000E+00  0.1515152E-01  0.6654866E-05  0.0000000E+00  0.3819290E-03
  0.4545455E-01  0.0000000E+00  0.1515152E-01  0.8667980E-05  0.0000000E+00  0.3872728E-03
  0.5555556E-01  0.0000000E+00  0.1515152E-01  0.1077209E-04  0.0000000E+00  0.3940541E-03
  0.6565657E-01  0.0000000E+00  0.1515152E-01  0.1299567E-04  0.0000000E+00  0.4023480E-03
  0.7575758E-01  0.0000000E+00  0.1515152E-01  0.1537308E-04  0.0000000E+00  0.4122512E-03
  0.8585858E-01  0.0000000E+00  0.1515152E-01  0.1794722E-04  0.0000000E+00  0.4238874E-03
  0.9595960E-01  0.0000000E+00  0.1515152E-01  0.2077424E-04  0.0000000E+00  0.4374132E-03
  0.1060606E+00  0.0000000E+00  0.1515152E-01  0.2393237E-04  0.0000000E+00  0.4530279E-03
  0.1161616E+00  0.0000000E+00  0.1515152E-01  0.2753904E-04  0.0000000E+00  0.4709879E-03
  0.1262626E+00  0.0000000E+00  0.1515152E-01  0.3178535E-04  0.0000000E+00  0.4916303E-03
  0.1363636E+00  0.0000000E+00  0.1515152E-01  0.3700834E-04  0.0000000E+00  0.5154037E-03
  0.1464646E+00  0.0000000E+00  0.1515152E-01  0.4385094E-04  0.0000000E+00  0.5428854E-03
  0.1565657E+00  0.0000000E+00  0.1515152E-01  0.5364488E-04  0.0000000E+00  0.5746389E-03
  0.1666667E+00  0.0000000E+00  0.1515152E-01  0.6940948E-04  0.0000000E+00  0.6101781E-03
  0.1767677E+00  0.0000000E+00  0.1515152E-01  0.9865764E-04  0.0000000E+00  0.6424541E-03
  0.1868687E+00  0.0000000E+00  0.1515152E-01  0.9224511E-04  0.0000000E+00  0.7052852E-03
  0.1969697E+00  0.0000000E+00  0.1515152E-01  0.6756465E-04  0.0000000E+00  0.7944967E-03
  0.2070707E+00  0.0000000E+00  0.1515152E-01  0.5908602E-04  0.0000000E+00  0.8571341E-03
  0.2171717E+00  0.0000000E+00  0.1515152E-01  0.6845214E-04  0.0000000E+00  0.9060950E-03
  0.2272727E+00  0.0000000E+00  0.1515152E-01  0.7269851E-04  0.0000000E+00  0.9603210E-03
  0.2373737E+00  0.0000000E+00  0.1515152E-01  0.7396566E-04  0.0000000E+00  0.1015543E-02
  0.2474747E+00  0.0000000E+00  0.1515152E-01  0.7752889E-04  0.0000000E+00  0.1070957E-02
  0.2575758E+00  0.0000000E+00  0.1515152E-01  0.8804015E-04  0.0000000E+00  0.1130163E-02
  0.2676768E+00  0.0000000E+00  0.1515152E-01  0.1082543E-03  0.0000000E+00  0.1198502E-02
  0.2777778E+00  0.0000000E+00  0.1515152E-01  0.1467956E-03  0.0000000E+00  0.1283641E-02
  0.2878788E+00  0.0000000E+00  0.1515152E-01  0.1368008E-03  0.0000000E+00  0.1362998E-02
  0.2979798E+00  0.0000000E+00  0.1515152E-01  0.1179818E-03  0.0000000E+00  0.1471139E-02
  0.3080808E+00  0.0000000E+00  0.1515152E-01  0.1196808E-03  0.0000000E+00  0.1582984E-02
  0.3181818E+00  0.0000000E+00  0.1515152E-01  0.1594437E-03  0.0000000E+00  0.1673695E-02
  0.3282828E+00  0.0000000E+00  0.1515152E-01  0.1259666E-03  0.0000000E+00  0.1820260E-02
  0.3383838E+00  0.0000000E+00  0.1515152E-01  0.7099627E-04  0.0000000E+00  0.1941658E-02
  0.3484848E+00  0.0000000E+00  0.1515152E-01  0.3685481E-04  0.0000000E+00  0.1967892E-02
  0.3585859E+00  0.0000000E+00  0.1515152E-01  0.9399952E-04  0.0000000E+00  0.1966037E-02
  0.3686869E+00  0.0000000E+00  0.1515152E-01  0.1093001E-03  0.0000000E+00  0.2016519E-02
  0.3787879E+00  0.0000000E+00  0.1515152E-01  0.2144703E-03  0.0000000E+00  0.2152286E-02
  0.3888889E+00  0.0000000E+00  0.1515152E-01  0.4154798E-03  0.0000000E+00  0.2354258E-02
  0.3989899E+00  0.0000000E+00  0.1515152E-01 -0.2977621E-03  0.0000000E+00  0.2395599E-02
  0.4090909E+00  0.0000000E+00  0.1515152E-01 -0.1336734E-03  0.0000000E+00  0.2262696E-02
  0.4191919E+00  0.0000000E+00  0.1515152E-01 -0.4035396E-04  0.0000000E+00  0.2209730E-02
  0.4292929E+00  0.0000000E+00  0.1515152E-01 -0.5457239E-04  0.0000000E+00  0.2172300E-02
  0.4393939E+00  0.0000000E+00  0.1515152E-01 -0.4546965E-04  0.0000000E+00  0.2109058E-02
  0.4494950E+00  0.0000000E+00  0.1515152E-01 -0.6978732E-04  0.0000000E+00  0.2058149E-02
  0.4595959E+00  0.0000000E+00  0.1515152E-01 -0.1400832E-03  0.0000000E+00  0.2003061E-02
  0.4696970E+00  0.0000000E+00  0.1515152E-01 -0.4698370E-04  0.0000000E+00  0.1971225E-02
  0.4797980E+00  0.0000000E+00  0.1515152E-01  0.1428916E-04  0.0000000E+00  0.1970167E-02
  0.4898990E+00  0.0000000E+00  0.1515152E-01  0.6584151E-04  0.0000000E+00  0.1996029E-02
  0.5000000E+00  0.0000000E+00  0.1515152E-01  0.1390196E-03  0.0000000E+00  0.2030845E-02
  0.5101010E+00  0.0000000E+00  0.1515152E-01  0.7493058E-04  0.0000000E+00  0.2106654E-02
  0.5202020E+00  0.0000000E+00  0.1515152E-01  0.2059059E-03  0.0000000E+00  0.2231939E-02
  0.5303030E+00  0.0000000E+00  0.1515152E-01  0.2084376E-03  0.0000000E+00  0.2364785E-02
  0.5404040E+00  0.0000000E+00  0.1515152E-01  0.2087403E-03  0.0000000E+00  0.2455333E-02
  0.5505050E+00  0.0000000E+00  0.1515152E-01  0.2407911E-03  0.0000000E+00  0.2540854E-02
  0.5606061E+00  0.0000000E+00  0.1515152E-01 -0.2842568E-03  0.0000000E+00  0.2527794E-02
  0.5707071E+00  0.0000000E+00  0.1515152E-01 -0.1755339E-03  0.0000000E+00  0.2394802E-02
  0.5808081E+00  0.0000000E+00  0.1515152E-01  0.3246049E-06  0.0000000E+00  0.2348680E-02
  0.5909091E+00  0.0000000E+00  0.1515152E-01 -0.1196310E-03  0.0000000E+00  0.2293205E-02
  0.6010101E+00  0.0000000E+00  0.1515152E-01 -0.1318634E-03  0.0000000E+00  0.2193833E-02
  0.6111111E+00  0.0000000E+00  0.1515152E-01 -0.1064752E-03  0.0000000E+00  0.2190456E-02
  0.6212121E+00  0.0000000E+00  0.1515152E-01 -0.1808002E-03  0.0000000E+00  0.2108131E-02
  0.6313131E+00  0.0000000E+00  0.1515152E-01 -0.2056185E-03  0.0000000E+00  0.1934111E-02
  0.6414142E+00  0.0000000E+00  0.1515152E-01 -0.1131256E-03  0.0000000E+00  0.1842145E-02
  0.6515151E+00  0.0000000E+00  0.1515152E-01 -0.1989982E-03  0.0000000E+00  0.1741971E-02
  0.6616161E+00  0.0000000E+00  0.1515152E-01 -0.1482160E-03  0.0000000E+00  0.1612845E-02
  0.6717172E+00  0.0000000E+00  0.1515152E-01 -0.1499858E-03  0.0000000E+00  0.1459026E-02
  0.6818182E+00  0.0000000E+00  0.1515152E-01 -0.1586566E-03  0.0000000E+00  0.1326831E-02
  0.6919192E+00  0.0000000E+00  0.1515152E-01 -0.1029088E-03  0.0000000E+00  0.1248942E-02
  0.7020202E+00  0.0000000E+00  0.1515152E-01 -0.1016667E-03  0.0000000E+00  0.1158254E-02
  0.7121212E+00  0.0000000E+00  0.1515152E-01 -0.1065537E-03  0.0000000E+00  0.1082655E-02
  0.7222222E+00  0.0000000E+00  0.1515152E-01 -0.1174116E-03  0.0000000E+00  0.1023469E-02
  0.7323232E+00  0.0000000E+00  0.1515152E-01 -0.1029654E-03  0.0000000E+00  0.9559504E-03
  0.7424242E+00  0.0000000E+00  0.1515152E-01 -0.9557745E-04  0.0000000E+00  0.8857794E-03
  0.7525253E+00  0.0000000E+00  0.1515152E-01 -0.8651798E-04  0.0000000E+00  0.8198061E-03
  0.7626263E+00  0.0000000E+00  0.1515152E-01 -0.8190769E-04  0.0000000E+00  0.7594030E-03
  0.7727273E+00  0.0000000E+00  0.1515152E-01 -0.8192091E-04  0.0000000E+00  0.6992209E-03
  0.7828283E+00  0.0000000E+00  0.1515152E-01 -0.7364757E-04  0.0000000E+00  0.6415214E-03
  0.7929293E+00  0.0000000E+00  0.1515152E-01 -0.6435632E-04  0.0000000E+00  0.5916657E-03
  0.8030303E+00  0.0000000E+00  0.1515152E-01 -0.5595851E-04  0.0000000E+00  0.5489510E-03
  0.8131313E+00  0.0000000E+00  0.1515152E-01 -0.4878803E-04  0.0000000E+00  0.5121044E-03
  0.8232324E+00  0.0000000E+00  0.1515152E-01 -0.4274195E-04  0.0000000E+00  0.4800621E-03
  0.8333333E+00  0.0000000E+00  0.1515152E-01 -0.3762513E-04  0.0000000E+00  0.4520054E-03
  0.8434343E+00  0.0000000E+00  0.1515152E-01 -0.3325045E-04  0.0000000E+00  0.4273076E-03
  0.8535354E+00  0.0000000E+00  0.1515152E-01 -0.2946291E-04  0.0000000E+00  0.4054848E-03
  0.8636364E+00  0.0000000E+00  0.1515152E-01 -0.2614067E-04  0.0000000E+00  0.3861594E-03
  0.8737374E+00  0.0000000E+00  0.1515152E-01 -0.2318969E-04  0.0000000E+00  0.3690331E-03
  0.8838384E+00  0.0000000E+00  0.1515152E-01 -0.2053766E-04  0.0000000E+00  0.3538675E-03
  0.8939394E+00  0.0000000E+00  0.1515152E-01 -0.1812859E-04  0.0000000E+00  0.3404700E-03
  0.9040404E+00  0.0000000E+00  0.1515152E-01 -0.1591860E-04  0.0000000E+00  0.3286834E-03
  0.9141414E+00  0.0000000E+00  0.1515152E-01 -0.1387267E-04  0.0000000E+00  0.3183785E-03
  0.9242424E+00  0.0000000E+00  0.1515152E-01 -0.1196231E-04  0.0000000E+00  0.3094486E-03
  0.9343435E+00  0.0000000E+00  0.1515152E-01 -0.1016383E-04  0.0000000E+00  0.3018055E-03
  0.9444444E+00  0.0000000E+00  0.1515152E-01 -0.8457005E-05  0.0000000E+00  0.2953767E-03
  0.9545454E+00  0.0000000E+00  0.1515152E-01 -0.6824223E-05  0.0000000E+00  0.2901033E-03
  0.9646465E+00  0.0000000E+00  0.1515152E-01 -0.5249768E-05  0.0000000E+00  0.2859381E-03
  0.9747475E+00  0.0000000E+00  0.1515152E-01 -0.3719318E-05  0.0000000E+00  0.2828447E-03
  0.9848485E+00  0.0000000E+00  0.1515152E-01 -0.2219555E-05  0.0000000E+00  0.2807967E-03
  0.9974747E+00  0.0000000E+00  0.1515152E-01 -0.7378707E-06  0.0000000E+00  0.2797769E-03
  0.5050505E-02  0.0000000E+00  0.2525252E-01  0.1543923E-05  0.0000000E+00  0.3724518E-03
  0.1515152E-01  0.0000000E+00  0.2525252E-01  0.4645759E-05  0.0000000E+00  0.3737366E-03
  0.2525252E-01  0.0000000E+00  0.2525252E-01  0.7790448E-05  0.0000000E+00  0.3763171E-03
  0.3535353E-01  0.0000000E+00  0.2525252E-01  0.1100900E-04  0.0000000E+00  0.3802165E-03
  0.4545455E-01  0.0000000E+00  0.2525252E-01  0.1433582E-04  0.0000000E+00  0.3854712E-03
  0.5555556E-01  0.0000000E+00  0.2525252E-01  0.1781008E-04  0.0000000E+00  0.3921328E-03
  0.6565657E-01  0.0000000E+00  0.2525252E-01  0.2147744E-04  0.0000000E+00  0.4002698E-03
  0.7575758E-01  0.0000000E+00  0.2525252E-01  0.2539225E-04  0.0000000E+00  0.4099702E-03
  0.8585858E-01  0.0000000E+00  0.2525252E-01  0.2962101E-04  0.0000000E+00  0.4213440E-03
  0.9595960E-01  0.0000000E+00  0.2525252E-01  0.3424793E-04  0.0000000E+00  0.4345261E-03
  0.1060606E+00  0.0000000E+00  0.2525252E-01  0.3938511E-04  0.0000000E+00  0.4496789E-03
  0.1161616E+00  0.0000000E+00  0.2525252E-01  0.4519134E-04  0.0000000E+00  0.4669925E-03
  0.1262626E+00  0.0000000E+00  0.2525252E-01  0.5190718E-04  0.0000000E+00  0.4866808E-03
  0.1363636E+00  0.0000000E+00  0.2525252E-01  0.5991859E-04  0.0000000E+00  0.5089601E-03
  0.1464646E+00  0.0000000E+00  0.2525252E-01  0.6986390E-04  0.0000000E+00  0.5339785E-03
  0.1565657E+00  0.0000000E+00  0.2525252E-01  0.8278188E-04  0.0000000E+00  0.5615952E-03
  0.1666667E+00  0.0000000E+00  0.2525252E-01  0.1001743E-03  0.0000000E+00  0.5907907E-03
  0.1767677E+00  0.0000000E+00  0.2525252E-01  0.1231987E-03  0.0000000E+00  0.6186416E-03
  0.1868687E+00  0.0000000E+00  0.2525252E-01  0.1469636E-03  0.0000000E+00  0.6422955E-03
  0.1969697E+00  0.0000000E+00  0.2525252E-01  0.1369162E-03  0.0000000E+00  0.6888168E-03
  0.2070707E+00  0.0000000E+00  0.2525252E-01  0.1447264E-03  0.0000000E+00  0.7968074E-03
  0.2171717E+00  0.0000000E+00  0.2525252E-01  0.1187524E-03  0.0000000E+00  0.8991092E-03
  0.2272727E+00  0.0000000E+00  0.2525252E-01  0.1235695E-03  0.0000000E+00  0.9594214E-03
  0.2373737E+00  0.0000000E+00  0.2525252E-01  0.1204377E-03  0.0000000E+00  0.1015439E-02
  0.2474747E+00  0.0000000E+00  0.2525252E-01  0.1217737E-03  0.0000000E+00  0.1064742E-02
  0.2575758E+00  0.0000000E+00  0.2525252E-01  0.1364102E-03  0.0000000E+00  0.1113413E-02
  0.2676768E+00  0.0000000E+00  0.2525252E-01  0.1616465E-03  0.0000000E+00  0.1164604E-02
  0.2777778E+00  0.0000000E+00  0.2525252E-01  0.2152102E-03  0.0000000E+00  0.1223711E-02
  0.2878788E+00  0.0000000E+00  0.2525252E-01  0.1880309E-03  0.0000000E+00  0.1287894E-02
  0.2979798E+00  0.0000000E+00  0.2525252E-01  0.2179301E-03  0.0000000E+00  0.1363378E-02
  0.3080808E+00  0.0000000E+00  0.2525252E-01  0.2110271E-03  0.0000000E+00  0.1486209E-02
  0.3181818E+00  0.0000000E+00  0.2525252E-01  0.2261549E-03  0.0000000E+00  0.1594245E-02
  0.3282828E+00  0.0000000E+00  0.2525252E-01  0.2217503E-03  0.0000000E+00  0.1656634E-02
  0.3383838E+00  0.0000000E+00  0.2525252E-01  0.1653299E-03  0.0000000E+00  0.1783042E-02
  0.3484848E+00  0.0000000E+00  0.2525252E-01  0.4292780E-04  0.0000000E+00  0.1890704E-02
  0.3585859E+00  0.0000000E+00  0.2525252E-01  0.9947735E-04  0.0000000E+00  0.1912637E-02
  0.3686869E+00  0.0000000E+00  0.2525252E-01  0.1478769E-03  0.0000000E+00  0.1926785E-02
  0.3787879E+00  0.0000000E+00  0.2525252E-01  0.2786105E-03  0.0000000E+00  0.1936389E-02
  0.3888889E+00  0.0000000E+00  0.2525252E-01  0.4651544E-03  0.0000000E+00  0.1905189E-02
  0.3989899E+00  0.0000000E+00  0.2525252E-01 -0.3214239E-03  0.0000000E+00  0.1899789E-02
  0.4090909E+00  0.0000000E+00  0.2525252E-01 -0.1692387E-03  0.0000000E+00  0.1935847E-02
  0.4191919E+00  0.0000000E+00  0.2525252E-01 -0.4564549E-04  0.0000000E+00  0.1926505E-02
  0.4292929E+00  0.0000000E+00  0.2525252E-01 -0.7698849E-04  0.0000000E+00  0.1922695E-02
  0.4393939E+00  0.0000000E+00  0.2525252E-01 -0.3254923E-04  0.0000000E+00  0.1970605E-02
  0.4494950E+00  0.0000000E+00  0.2525252E-01 -0.1404119E-03  0.0000000E+00  0.1941212E-02
  0.4595959E+00  0.0000000E+00  0.2525252E-01 -0.1532223E-03  0.0000000E+00  0.1877746E-02
  0.4696970E+00  0.0000000E+00  0.2525252E-01 -0.4816115E-04  0.0000000E+00  0.1885229E-02
  0.4797980E+00  0.0000000E+00  0.2525252E-01  0.3092246E-04  0.0000000E+00  0.1906233E-02
  0.4898990E+00  0.0000000E+00  0.2525252E-01  0.6978600E-04  0.0000000E+00  0.1910246E-02
  0.5000000E+00  0.0000000E+00  0.2525252E-01  0.1582072E-03  0.0000000E+00  0.1912332E-02
  0.5101010E+00  0.0000000E+00  0.2525252E-01  0.1569835E-03  0.0000000E+00  0.1979266E-02
  0.5202020E+00  0.0000000E+00  0.2525252E-01  0.2563787E-03  0.0000000E+00  0.2041782E-02
  0.5303030E+00  0.0000000E+00  0.2525252E-01  0.2445170E-03  0.0000000E+00  0.2041474E-02
  0.5404040E+00  0.0000000E+00  0.2525252E-01  0.2191490E-03  0.0000000E+00  0.2032509E-02
  0.5505050E+00  0.0000000E+00  0.2525252E-01  0.2938279E-03  0.0000000E+00  0.2056292E-02
  0.5606061E+00  0.0000000E+00  0.2525252E-01 -0.3320297E-03  0.0000000E+00  0.2075392E-02
  0.5707071E+00  0.0000000E+00  0.2525252E-01 -0.1967861E-03  0.0000000E+00  0.2092038E-02
  0.5808081E+00  0.0000000E+00  0.2525252E-01 -0.1108355E-04  0.0000000E+00  0.2084219E-02
  0.5909091E+00  0.0000000E+00  0.2525252E-01 -0.1887343E-03  0.0000000E+00  0.2023144E-02
  0.6010101E+00  0.0000000E+00  0.2525252E-01 -0.1581511E-03  0.0000000E+00  0.1982186E-02
  0.6111111E+00  0.0000000E+00  0.2525252E-01 -0.1538941E-03  0.0000000E+00  0.1877419E-02
  0.6212121E+00  0.0000000E+00  0.2525252E-01 -0.2916453E-03  0.0000000E+00  0.1743357E-02
  0.6313131E+00  0.0000000E+00  0.2525252E-01 -0.2774523E-03  0.0000000E+00  0.1672630E-02
  0.6414142E+00  0.0000000E+00  0.2525252E-01 -0.2093841E-03  0.0000000E+00  0.1546338E-02
  0.6515151E+00  0.0000000E+00  0.2525252E-01 -0.3206917E-03  0.0000000E+00  0.1374280E-02
  0.6616161E+00  0.0000000E+00  0.2525252E-01 -0.2511452E-03  0.0000000E+00  0.1229150E-02
  0.6717172E+00  0.0000000E+00  0.2525252E-01 -0.2378335E-03  0.0000000E+00  0.1152346E-02
  0.6818182E+00  0.0000000E+00  0.2525252E-01 -0.1945879E-03  0.0000000E+00  0.1134596E-02
  0.6919192E+00  0.0000000E+00  0.2525252E-01 -0.1506151E-03  0.0000000E+00  0.1112130E-02
  0.7020202E+00  0.0000000E+00  0.2525252E-01 -0.1432023E-03  0.0000000E+00  0.1097333E-02
  0.7121212E+00  0.0000000E+00  0.2525252E-01 -0.1660947E-03  0.0000000E+00  0.1055293E-02
  0.7222222E+00  0.0000000E+00  0.2525252E-01 -0.1595184E-03  0.0000000E+00  0.9972466E-03
  0.7323232E+00  0.0000000E+00  0.2525252E-01 -0.1634111E-03  0.0000000E+00  0.9478735E-03
  0.7424242E+00  0.0000000E+00  0.2525252E-01 -0.1602972E-03  0.0000000E+00  0.8772558E-03
  0.7525253E+00  0.0000000E+00  0.2525252E-01 -0.1395457E-03  0.0000000E+00  0.8119597E-03
  0.7626263E+00  0.0000000E+00  0.2525252E-01 -0.1318198E-03  0.0000000E+00  0.7584668E-03
  0.7727273E+00  0.0000000E+00  0.2525252E-01 -0.1446712E-03  0.0000000E+00  0.6953331E-03
  0.7828283E+00  0.0000000E+00  0.2525252E-01 -0.1238356E-03  0.0000000E+00  0.6304020E-03
  0.7929293E+00  0.0000000E+00  0.2525252E-01 -0.1063626E-03  0.0000000E+00  0.5807028E-03
  0.8030303E+00  0.0000000E+00  0.2525252E-01 -0.9198225E-04  0.0000000E+00  0.5395528E-03
  0.8131313E+00  0.0000000E+00  0.2525252E-01 -0.8011784E-04  0.0000000E+00  0.5043051E-03
  0.8232324E+00  0.0000000E+00  0.2525252E-01 -0.7023578E-04  0.0000000E+00  0.4736092E-03
  0.8333333E+00  0.0000000E+00  0.2525252E-01 -0.6190058E-04  0.0000000E+00  0.4466260E-03
  0.8434343E+00  0.0000000E+00  0.2525252E-01 -0.5477170E-04  0.0000000E+00  0.4227697E-03
  0.8535354E+00  0.0000000E+00  0.2525252E-01 -0.4858812E-04  0.0000000E+00  0.4016052E-03
  0.8636364E+00  0.0000000E+00  0.2525252E-01 -0.4315145E-04  0.0000000E+00  0.3827970E-03
  0.8737374E+00  0.0000000E+00  0.2525252E-01 -0.3831102E-04  0.0000000E+00  0.3660803E-03
  0.8838384E+00  0.0000000E+00  0.2525252E-01 -0.3395172E-04  0.0000000E+00  0.3512422E-03
  0.8939394E+00  0.0000000E+00  0.2525252E-01 -0.2998459E-04  0.0000000E+00  0.3381088E-03
  0.9040404E+00  0.0000000E+00  0.2525252E-01 -0.2633985E-04  0.0000000E+00  0.3265369E-03
  0.9141414E+00  0.0000000E+00  0.2525252E-01 -0.2296167E-04  0.0000000E+00  0.3164073E-03
  0.9242424E+00  0.0000000E+00  0.2525252E-01 -0.1980439E-04  0.0000000E+00  0.3076209E-03
  0.9343435E+00  0.0000000E+00  0.2525252E-01 -0.1682987E-04  0.0000000E+00  0.3000948E-03
  0.9444444E+00  0.0000000E+00  0.2525252E-01 -0.1400543E-04  0.0000000E+00  0.2937607E-03
  0.9545454E+00  0.0000000E+00  0.2525252E-01 -0.1130246E-04  0.0000000E+00  0.2885624E-03
  0.9646465E+00  0.0000000E+00  0.2525252E-01 -0.8695339E-05  0.0000000E+00  0.2844549E-03
  0.9747475E+00  0.0000000E+00  0.2525252E-01 -0.6160634E-05  0.0000000E+00  0.2814036E-03
  0.9848485E+00  0.0000000E+00  0.2525252E-01 -0.3676508E-05  0.0000000E+00  0.2793829E-03
  0.9974747E+00  0.0000000E+00  0.2525252E-01 -0.1222224E-05  0.0000000E+00  0.2783765E-03
  0.5050505E-02  0.0000000E+00  0.3535353E-01  0.2140952E-05  0.0000000E+00  0.3701290E-03
  0.1515152E-01  0.0000000E+00  0.3535353E-01  0.6441712E-05  0.0000000E+00  0.3713859E-03
  0.2525252E-01  0.0000000E+00  0.3535353E-01  0.1080018E-04  0.0000000E+00  0.3739090E-03
  0.3535353E-01  0.0000000E+00  0.3535353E-01  0.1525804E-04  0.0000000E+00  0.3777182E-03
  0.4545455E-01  0.0000000E+00  0.3535353E-01  0.1986153E-04  0.0000000E+00  0.3828454E-03
  0.5555556E-01  0.0000000E+00  0.3535353E-01  0.2466315E-04  0.0000000E+00  0.3893359E-03
  0.6565657E-01  0.0000000E+00  0.3535353E-01  0.2972359E-04  0.0000000E+00  0.3972497E-03
  0.7575758E-01  0.0000000E+00  0.3535353E-01  0.3511410E-04  0.0000000E+00  0.4066637E-03
  0.8585858E-01  0.0000000E+00  0.3535353E-01  0.4091948E-04  0.0000000E+00  0.4176721E-03
  0.9595960E-01  0.0000000E+00  0.3535353E-01  0.4724258E-04  0.0000000E+00  0.4303867E-03
  0.1060606E+00  0.0000000E+00  0.3535353E-01  0.5421181E-04  0.0000000E+00  0.4449328E-03
  0.1161616E+00  0.0000000E+00  0.3535353E-01  0.6199468E-04  0.0000000E+00  0.4614397E-03
  0.1262626E+00  0.0000000E+00  0.3535353E-01  0.7082224E-04  0.0000000E+00  0.4800179E-03
  0.1363636E+00  0.0000000E+00  0.3535353E-01  0.8103059E-04  0.0000000E+00  0.5007195E-03
  0.1464646E+00  0.0000000E+00  0.3535353E-01  0.9311780E-04  0.0000000E+00  0.5234700E-03
  0.1565657E+00  0.0000000E+00  0.3535353E-01  0.1077763E-03  0.0000000E+00  0.5479713E-03
  0.1666667E+00  0.0000000E+00  0.3535353E-01  0.1257469E-03  0.0000000E+00  0.5736200E-03
  0.1767677E+00  0.0000000E+00  0.3535353E-01  0.1471330E-03  0.0000000E+00  0.5997617E-03
  0.1868687E+00  0.0000000E+00  0.3535353E-01  0.1698859E-03  0.0000000E+00  0.6275611E-03
  0.1969697E+00  0.0000000E+00  0.3535353E-01  0.1904989E-03  0.0000000E+00  0.6647795E-03
  0.2070707E+00  0.0000000E+00  0.3535353E-01  0.2323299E-03  0.0000000E+00  0.7116545E-03
  0.2171717E+00  0.0000000E+00  0.3535353E-01  0.2328038E-03  0.0000000E+00  0.8321016E-03
  0.2272727E+00  0.0000000E+00  0.3535353E-01  0.1810885E-03  0.0000000E+00  0.9640715E-03
  0.2373737E+00  0.0000000E+00  0.3535353E-01  0.1624145E-03  0.0000000E+00  0.1023006E-02
  0.2474747E+00  0.0000000E+00  0.3535353E-01  0.1538201E-03  0.0000000E+00  0.1060851E-02
  0.2575758E+00  0.0000000E+00  0.3535353E-01  0.1749220E-03  0.0000000E+00  0.1096330E-02
  0.2676768E+00  0.0000000E+00  0.3535353E-01  0.1899268E-03  0.0000000E+00  0.1125902E-02
  0.2777778E+00  0.0000000E+00  0.3535353E-01  0.2445895E-03  0.0000000E+00  0.1138243E-02
  0.2878788E+00  0.0000000E+00  0.3535353E-01  0.2456430E-03  0.0000000E+00  0.1181040E-02
  0.2979798E+00  0.0000000E+00  0.3535353E-01  0.2751512E-03  0.0000000E+00  0.1247066E-02