title = "dataset water"
variables = "x", "y", "z", "vx", "vy", "vz"
zone t = "velocities, solution time =  5.400E+01 days        " i =   99, j =   99, k =    1,  f=point
  0.5050505E-02  0.0000000E+00  0.5050505E-02  0.2359817E-06  0.0000000E+00  0.2916469E-03
  0.1515152E-01  0.0000000E+00  0.5050505E-02  0.7093155E-06  0.0000000E+00  0.2926293E-03
  0.2525252E-01  0.0000000E+00  0.5050505E-02  0.1186862E-05  0.0000000E+00  0.2946000E-03
  0.3535353E-01  0.0000000E+00  0.5050505E-02  0.1671654E-05  0.0000000E+00  0.2975716E-03
  0.4545455E-01  0.0000000E+00  0.5050505E-02  0.2167006E-05  0.0000000E+00  0.3015636E-03
  0.5555556E-01  0.0000000E+00  0.5050505E-02  0.2676623E-05  0.0000000E+00  0.3066032E-03
  0.6565657E-01  0.0000000E+00  0.5050505E-02  0.3204733E-05  0.0000000E+00  0.3127262E-03
  0.7575758E-01  0.0000000E+00  0.5050505E-02  0.3756251E-05  0.0000000E+00  0.3199785E-03
  0.8585858E-01  0.0000000E+00  0.5050505E-02  0.4336984E-05  0.0000000E+00  0.3284180E-03
  0.9595960E-01  0.0000000E+00  0.5050505E-02  0.4953901E-05  0.0000000E+00  0.3381162E-03
  0.1060606E+00  0.0000000E+00  0.5050505E-02  0.5615487E-05  0.0000000E+00  0.3491619E-03
  0.1161616E+00  0.0000000E+00  0.5050505E-02  0.6332232E-05  0.0000000E+00  0.3616648E-03
  0.1262626E+00  0.0000000E+00  0.5050505E-02  0.7117280E-05  0.0000000E+00  0.3757606E-03
  0.1363636E+00  0.0000000E+00  0.5050505E-02  0.7987269E-05  0.0000000E+00  0.3916180E-03
  0.1464646E+00  0.0000000E+00  0.5050505E-02  0.8963316E-05  0.0000000E+00  0.4094476E-03
  0.1565657E+00  0.0000000E+00  0.5050505E-02  0.1007179E-04  0.0000000E+00  0.4295130E-03
  0.1666667E+00  0.0000000E+00  0.5050505E-02  0.1134388E-04  0.0000000E+00  0.4521427E-03
  0.1767677E+00  0.0000000E+00  0.5050505E-02  0.1281106E-04  0.0000000E+00  0.4777368E-03
  0.1868687E+00  0.0000000E+00  0.5050505E-02  0.1449002E-04  0.0000000E+00  0.5067540E-03
  0.1969697E+00  0.0000000E+00  0.5050505E-02  0.1634426E-04  0.0000000E+00  0.5396412E-03
  0.2070707E+00  0.0000000E+00  0.5050505E-02  0.1820884E-04  0.0000000E+00  0.5766405E-03
  0.2171717E+00  0.0000000E+00  0.5050505E-02  0.1971408E-04  0.0000000E+00  0.6174277E-03
  0.2272727E+00  0.0000000E+00  0.5050505E-02  0.2050021E-04  0.0000000E+00  0.6608888E-03
  0.2373737E+00  0.0000000E+00  0.5050505E-02  0.2150159E-04  0.0000000E+00  0.7065185E-03
  0.2474747E+00  0.0000000E+00  0.5050505E-02  0.2350494E-04  0.0000000E+00  0.7556819E-03
  0.2575758E+00  0.0000000E+00  0.5050505E-02  0.2661013E-04  0.0000000E+00  0.8107502E-03
  0.2676768E+00  0.0000000E+00  0.5050505E-02  0.3074825E-04  0.0000000E+00  0.8741949E-03
  0.2777778E+00  0.0000000E+00  0.5050505E-02  0.3674624E-04  0.0000000E+00  0.9494222E-03
  0.2878788E+00  0.0000000E+00  0.5050505E-02  0.4691613E-04  0.0000000E+00  0.1043523E-02
  0.2979798E+00  0.0000000E+00  0.5050505E-02  0.3751336E-04  0.0000000E+00  0.1139422E-02
  0.3080808E+00  0.0000000E+00  0.5050505E-02  0.4001736E-04  0.0000000E+00  0.1228556E-02
  0.3181818E+00  0.0000000E+00  0.5050505E-02  0.4042414E-04  0.0000000E+00  0.1321992E-02
  0.3282828E+00  0.0000000E+00  0.5050505E-02  0.2726526E-04  0.0000000E+00  0.1401388E-02
  0.3383838E+00  0.0000000E+00  0.5050505E-02  0.3056257E-04  0.0000000E+00  0.1469932E-02
  0.3484848E+00  0.0000000E+00  0.5050505E-02  0.3171140E-04  0.0000000E+00  0.1544323E-02
  0.3585859E+00  0.0000000E+00  0.5050505E-02  0.4453041E-04  0.0000000E+00  0.1636245E-02
  0.3686869E+00  0.0000000E+00  0.5050505E-02  0.4541524E-04  0.0000000E+00  0.1745768E-02
  0.3787879E+00  0.0000000E+00  0.5050505E-02  0.6050549E-04  0.0000000E+00  0.1876482E-02
  0.3888889E+00  0.0000000E+00  0.5050505E-02  0.1141199E-03  0.0000000E+00  0.2095593E-02
  0.3989899E+00  0.0000000E+00  0.5050505E-02 -0.8904194E-04  0.0000000E+00  0.2126457E-02
  0.4090909E+00  0.0000000E+00  0.5050505E-02 -0.4015171E-04  0.0000000E+00  0.1962832E-02
  0.4191919E+00  0.0000000E+00  0.5050505E-02 -0.2654109E-04  0.0000000E+00  0.1879278E-02
  0.4292929E+00  0.0000000E+00  0.5050505E-02 -0.6431189E-05  0.0000000E+00  0.1838172E-02
  0.4393939E+00  0.0000000E+00  0.5050505E-02 -0.1342732E-04  0.0000000E+00  0.1813514E-02
  0.4494950E+00  0.0000000E+00  0.5050505E-02 -0.3260174E-04  0.0000000E+00  0.1756800E-02
  0.4595959E+00  0.0000000E+00  0.5050505E-02 -0.2981448E-04  0.0000000E+00  0.1680403E-02
  0.4696970E+00  0.0000000E+00  0.5050505E-02 -0.1000156E-04  0.0000000E+00  0.1631915E-02
  0.4797980E+00  0.0000000E+00  0.5050505E-02  0.5033176E-05  0.0000000E+00  0.1625877E-02
  0.4898990E+00  0.0000000E+00  0.5050505E-02  0.2215932E-04  0.0000000E+00  0.1658961E-02
  0.5000000E+00  0.0000000E+00  0.5050505E-02  0.5127219E-04  0.0000000E+00  0.1748713E-02
  0.5101010E+00  0.0000000E+00  0.5050505E-02  0.2032444E-04  0.0000000E+00  0.1836744E-02
  0.5202020E+00  0.0000000E+00  0.5050505E-02  0.6173917E-04  0.0000000E+00  0.1939127E-02
  0.5303030E+00  0.0000000E+00  0.5050505E-02  0.6650936E-04  0.0000000E+00  0.2100825E-02
  0.5404040E+00  0.0000000E+00  0.5050505E-02  0.7383017E-04  0.0000000E+00  0.2281064E-02
  0.5505050E+00  0.0000000E+00  0.5050505E-02  0.6876125E-04  0.0000000E+00  0.2467778E-02
  0.5606061E+00  0.0000000E+00  0.5050505E-02 -0.8843819E-04  0.0000000E+00  0.2442389E-02
  0.5707071E+00  0.0000000E+00  0.5050505E-02 -0.7073951E-04  0.0000000E+00  0.2234721E-02
  0.5808081E+00  0.0000000E+00  0.5050505E-02 -0.4959292E-04  0.0000000E+00  0.2080419E-02
  0.5909091E+00  0.0000000E+00  0.5050505E-02 -0.1483965E-04  0.0000000E+00  0.1998567E-02
  0.6010101E+00  0.0000000E+00  0.5050505E-02 -0.3045719E-04  0.0000000E+00  0.1941545E-02
  0.6111111E+00  0.0000000E+00  0.5050505E-02 -0.6342479E-04  0.0000000E+00  0.1825105E-02
  0.6212121E+00  0.0000000E+00  0.5050505E-02 -0.6941591E-04  0.0000000E+00  0.1662931E-02
  0.6313131E+00  0.0000000E+00  0.5050505E-02 -0.6467695E-04  0.0000000E+00  0.1502109E-02
  0.6414142E+00  0.0000000E+00  0.5050505E-02 -0.4866987E-04  0.0000000E+00  0.1368177E-02
  0.6515151E+00  0.0000000E+00  0.5050505E-02 -0.4152902E-04  0.0000000E+00  0.1262943E-02
  0.6616161E+00  0.0000000E+00  0.5050505E-02 -0.4009663E-04  0.0000000E+00  0.1168785E-02
  0.6717172E+00  0.0000000E+00  0.5050505E-02 -0.3904391E-04  0.0000000E+00  0.1078456E-02
  0.6818182E+00  0.0000000E+00  0.5050505E-02 -0.3707838E-04  0.0000000E+00  0.9924403E-03
  0.6919192E+00  0.0000000E+00  0.5050505E-02 -0.3419449E-04  0.0000000E+00  0.9126540E-03
  0.7020202E+00  0.0000000E+00  0.5050505E-02 -0.2991253E-04  0.0000000E+00  0.8414851E-03
  0.7121212E+00  0.0000000E+00  0.5050505E-02 -0.2688381E-04  0.0000000E+00  0.7789029E-03
  0.7222222E+00  0.0000000E+00  0.5050505E-02 -0.2475509E-04  0.0000000E+00  0.7223875E-03
  0.7323232E+00  0.0000000E+00  0.5050505E-02 -0.2304850E-04  0.0000000E+00  0.6703938E-03
  0.7424242E+00  0.0000000E+00  0.5050505E-02 -0.2141731E-04  0.0000000E+00  0.6223073E-03
  0.7525253E+00  0.0000000E+00  0.5050505E-02 -0.1971038E-04  0.0000000E+00  0.5780652E-03
  0.7626263E+00  0.0000000E+00  0.5050505E-02 -0.1795664E-04  0.0000000E+00  0.5377410E-03
  0.7727273E+00  0.0000000E+00  0.5050505E-02 -0.1624120E-04  0.0000000E+00  0.5012904E-03
  0.7828283E+00  0.0000000E+00  0.5050505E-02 -0.1463188E-04  0.0000000E+00  0.4685131E-03
  0.7929293E+00  0.0000000E+00  0.5050505E-02 -0.1316248E-04  0.0000000E+00  0.4391088E-03
  0.8030303E+00  0.0000000E+00  0.5050505E-02 -0.1184026E-04  0.0000000E+00  0.4127419E-03
  0.8131313E+00  0.0000000E+00  0.5050505E-02 -0.1065730E-04  0.0000000E+00  0.3890846E-03
  0.8232324E+00  0.0000000E+00  0.5050505E-02 -0.9599077E-05  0.0000000E+00  0.3678387E-03
  0.8333333E+00  0.0000000E+00  0.5050505E-02 -0.8649433E-05  0.0000000E+00  0.3487429E-03
  0.8434343E+00  0.0000000E+00  0.5050505E-02 -0.7792995E-05  0.0000000E+00  0.3315728E-03
  0.8535354E+00  0.0000000E+00  0.5050505E-02 -0.7016117E-05  0.0000000E+00  0.3161373E-03
  0.8636364E+00  0.0000000E+00  0.5050505E-02 -0.6307073E-05  0.0000000E+00  0.3022738E-03
  0.8737374E+00  0.0000000E+00  0.5050505E-02 -0.5655928E-05  0.0000000E+00  0.2898444E-03
  0.8838384E+00  0.0000000E+00  0.5050505E-02 -0.5054275E-05  0.0000000E+00  0.2787316E-03
  0.8939394E+00  0.0000000E+00  0.5050505E-02 -0.4494978E-05  0.0000000E+00  0.2688353E-03
  0.9040404E+00  0.0000000E+00  0.5050505E-02 -0.3971927E-05  0.0000000E+00  0.2600701E-03
  0.9141414E+00  0.0000000E+00  0.5050505E-02 -0.3479833E-05  0.0000000E+00  0.2523630E-03
  0.9242424E+00  0.0000000E+00  0.5050505E-02 -0.3014064E-05  0.0000000E+00  0.2456520E-03
  0.9343435E+00  0.0000000E+00  0.5050505E-02 -0.2570512E-05  0.0000000E+00  0.2398848E-03
  0.9444444E+00  0.0000000E+00  0.5050505E-02 -0.2145486E-05  0.0000000E+00  0.2350175E-03
  0.9545454E+00  0.0000000E+00  0.5050505E-02 -0.1735626E-05  0.0000000E+00  0.2310137E-03
  0.9646465E+00  0.0000000E+00  0.5050505E-02 -0.1337830E-05  0.0000000E+00  0.2278444E-03
  0.9747475E+00  0.0000000E+00  0.5050505E-02 -0.9492016E-06  0.0000000E+00  0.2254867E-03
  0.9848485E+00  0.0000000E+00  0.5050505E-02 -0.5669957E-06  0.0000000E+00  0.2239240E-03
  0.9974747E+00  0.0000000E+00  0.5050505E-02 -0.1885828E-06  0.0000000E+00  0.2231453E-03
  0.5050505E-02  0.0000000E+00  0.1515152E-01  0.7059338E-06  0.0000000E+00  0.2910707E-03
  0.1515152E-01  0.0000000E+00  0.1515152E-01  0.2121897E-05  0.0000000E+00  0.2920485E-03
  0.2525252E-01  0.0000000E+00  0.1515152E-01  0.3550414E-05  0.0000000E+00  0.2940099E-03
  0.3535353E-01  0.0000000E+00  0.1515152E-01  0.5000492E-05  0.0000000E+00  0.2969670E-03
  0.4545455E-01  0.0000000E+00  0.1515152E-01  0.6481967E-05  0.0000000E+00  0.3009386E-03
  0.5555556E-01  0.0000000E+00  0.1515152E-01  0.8005824E-05  0.0000000E+00  0.3059511E-03
  0.6565657E-01  0.0000000E+00  0.1515152E-01  0.9584594E-05  0.0000000E+00  0.3120393E-03
  0.7575758E-01  0.0000000E+00  0.1515152E-01  0.1123283E-04  0.0000000E+00  0.3192478E-03
  0.8585858E-01  0.0000000E+00  0.1515152E-01  0.1296771E-04  0.0000000E+00  0.3276322E-03
  0.9595960E-01  0.0000000E+00  0.1515152E-01  0.1480982E-04  0.0000000E+00  0.3372621E-03
  0.1060606E+00  0.0000000E+00  0.1515152E-01  0.1678418E-04  0.0000000E+00  0.3482230E-03
  0.1161616E+00  0.0000000E+00  0.1515152E-01  0.1892167E-04  0.0000000E+00  0.3606202E-03
  0.1262626E+00  0.0000000E+00  0.1515152E-01  0.2126098E-04  0.0000000E+00  0.3745840E-03
  0.1363636E+00  0.0000000E+00  0.1515152E-01  0.2385117E-04  0.0000000E+00  0.3902756E-03
  0.1464646E+00  0.0000000E+00  0.1515152E-01  0.2675494E-04  0.0000000E+00  0.4078969E-03
  0.1565657E+00  0.0000000E+00  0.1515152E-01  0.3005195E-04  0.0000000E+00  0.4277024E-03
  0.1666667E+00  0.0000000E+00  0.1515152E-01  0.3384013E-04  0.0000000E+00  0.4500165E-03
  0.1767677E+00  0.0000000E+00  0.1515152E-01  0.3822818E-04  0.0000000E+00  0.4752551E-03
  0.1868687E+00  0.0000000E+00  0.1515152E-01  0.4330188E-04  0.0000000E+00  0.5039458E-03
  0.1969697E+00  0.0000000E+00  0.1515152E-01  0.4902091E-04  0.0000000E+00  0.5367173E-03
  0.2070707E+00  0.0000000E+00  0.1515152E-01  0.5495764E-04  0.0000000E+00  0.5741436E-03
  0.2171717E+00  0.0000000E+00  0.1515152E-01  0.5979625E-04  0.0000000E+00  0.6160916E-03
  0.2272727E+00  0.0000000E+00  0.1515152E-01  0.6126780E-04  0.0000000E+00  0.6601377E-03
  0.2373737E+00  0.0000000E+00  0.1515152E-01  0.6353329E-04  0.0000000E+00  0.7046274E-03
  0.2474747E+00  0.0000000E+00  0.1515152E-01  0.6944582E-04  0.0000000E+00  0.7517632E-03
  0.2575758E+00  0.0000000E+00  0.1515152E-01  0.7881863E-04  0.0000000E+00  0.8047759E-03
  0.2676768E+00  0.0000000E+00  0.1515152E-01  0.9047641E-04  0.0000000E+00  0.8654095E-03
  0.2777778E+00  0.0000000E+00  0.1515152E-01  0.1063994E-03  0.0000000E+00  0.9346863E-03
  0.2878788E+00  0.0000000E+00  0.1515152E-01  0.1332057E-03  0.0000000E+00  0.1016283E-02
  0.2979798E+00  0.0000000E+00  0.1515152E-01  0.1264478E-03  0.0000000E+00  0.1119903E-02
  0.3080808E+00  0.0000000E+00  0.1515152E-01  0.9961644E-04  0.0000000E+00  0.1202016E-02
  0.3181818E+00  0.0000000E+00  0.1515152E-01  0.1110075E-03  0.0000000E+00  0.1260773E-02
  0.3282828E+00  0.0000000E+00  0.1515152E-01  0.1101282E-03  0.0000000E+00  0.1362510E-02
  0.3383838E+00  0.0000000E+00  0.1515152E-01  0.9275138E-04  0.0000000E+00  0.1467114E-02
  0.3484848E+00  0.0000000E+00  0.1515152E-01  0.8466887E-04  0.0000000E+00  0.1531988E-02
  0.3585859E+00  0.0000000E+00  0.1515152E-01  0.1090715E-03  0.0000000E+00  0.1583582E-02
  0.3686869E+00  0.0000000E+00  0.1515152E-01  0.1236665E-03  0.0000000E+00  0.1650087E-02
  0.3787879E+00  0.0000000E+00  0.1515152E-01  0.1823139E-03  0.0000000E+00  0.1768680E-02
  0.3888889E+00  0.0000000E+00  0.1515152E-01  0.3092857E-03  0.0000000E+00  0.1949958E-02
  0.3989899E+00  0.0000000E+00  0.1515152E-01 -0.2500229E-03  0.0000000E+00  0.1960799E-02
  0.4090909E+00  0.0000000E+00  0.1515152E-01 -0.1327678E-03  0.0000000E+00  0.1800820E-02
  0.4191919E+00  0.0000000E+00  0.1515152E-01 -0.6393733E-04  0.0000000E+00  0.1719737E-02
  0.4292929E+00  0.0000000E+00  0.1515152E-01 -0.3225376E-04  0.0000000E+00  0.1681047E-02
  0.4393939E+00  0.0000000E+00  0.1515152E-01 -0.3028100E-04  0.0000000E+00  0.1652013E-02
  0.4494950E+00  0.0000000E+00  0.1515152E-01 -0.5908311E-04  0.0000000E+00  0.1654380E-02
  0.4595959E+00  0.0000000E+00  0.1515152E-01 -0.8177243E-04  0.0000000E+00  0.1633400E-02
  0.4696970E+00  0.0000000E+00  0.1515152E-01 -0.2588789E-04  0.0000000E+00  0.1598001E-02
  0.4797980E+00  0.0000000E+00  0.1515152E-01  0.1314382E-04  0.0000000E+00  0.1594433E-02
  0.4898990E+00  0.0000000E+00  0.1515152E-01  0.5600336E-04  0.0000000E+00  0.1613219E-02
  0.5000000E+00  0.0000000E+00  0.1515152E-01  0.1234077E-03  0.0000000E+00  0.1654781E-02
  0.5101010E+00  0.0000000E+00  0.1515152E-01  0.7925558E-04  0.0000000E+00  0.1730301E-02
  0.5202020E+00  0.0000000E+00  0.1515152E-01  0.1713996E-03  0.0000000E+00  0.1840729E-02
  0.5303030E+00  0.0000000E+00  0.1515152E-01  0.1745366E-03  0.0000000E+00  0.1957136E-02
  0.5404040E+00  0.0000000E+00  0.1515152E-01  0.1570665E-03  0.0000000E+00  0.2026353E-02
  0.5505050E+00  0.0000000E+00  0.1515152E-01  0.1611832E-03  0.0000000E+00  0.2073908E-02
  0.5606061E+00  0.0000000E+00  0.1515152E-01 -0.2221341E-03  0.0000000E+00  0.2046072E-02
  0.5707071E+00  0.0000000E+00  0.1515152E-01 -0.1841151E-03  0.0000000E+00  0.1928933E-02
  0.5808081E+00  0.0000000E+00  0.1515152E-01 -0.1087653E-03  0.0000000E+00  0.1859300E-02
  0.5909091E+00  0.0000000E+00  0.1515152E-01 -0.5946740E-04  0.0000000E+00  0.1807526E-02
  0.6010101E+00  0.0000000E+00  0.1515152E-01 -0.9205634E-04  0.0000000E+00  0.1729541E-02
  0.6111111E+00  0.0000000E+00  0.1515152E-01 -0.1217913E-03  0.0000000E+00  0.1694799E-02
  0.6212121E+00  0.0000000E+00  0.1515152E-01 -0.2165056E-03  0.0000000E+00  0.1605025E-02
  0.6313131E+00  0.0000000E+00  0.1515152E-01 -0.1780717E-03  0.0000000E+00  0.1451619E-02
  0.6414142E+00  0.0000000E+00  0.1515152E-01 -0.1378104E-03  0.0000000E+00  0.1344774E-02
  0.6515151E+00  0.0000000E+00  0.1515152E-01 -0.1191127E-03  0.0000000E+00  0.1254211E-02
  0.6616161E+00  0.0000000E+00  0.1515152E-01 -0.1195201E-03  0.0000000E+00  0.1166224E-02
  0.6717172E+00  0.0000000E+00  0.1515152E-01 -0.1176135E-03  0.0000000E+00  0.1075437E-02
  0.6818182E+00  0.0000000E+00  0.1515152E-01 -0.1118226E-03  0.0000000E+00  0.9876612E-03
  0.6919192E+00  0.0000000E+00  0.1515152E-01 -0.1036813E-03  0.0000000E+00  0.9056261E-03
  0.7020202E+00  0.0000000E+00  0.1515152E-01 -0.8846286E-04  0.0000000E+00  0.8343748E-03
  0.7121212E+00  0.0000000E+00  0.1515152E-01 -0.7971244E-04  0.0000000E+00  0.7740018E-03
  0.7222222E+00  0.0000000E+00  0.1515152E-01 -0.7378146E-04  0.0000000E+00  0.7188567E-03
  0.7323232E+00  0.0000000E+00  0.1515152E-01 -0.6900012E-04  0.0000000E+00  0.6674004E-03
  0.7424242E+00  0.0000000E+00  0.1515152E-01 -0.6426382E-04  0.0000000E+00  0.6193443E-03
  0.7525253E+00  0.0000000E+00  0.1515152E-01 -0.5912913E-04  0.0000000E+00  0.5750014E-03
  0.7626263E+00  0.0000000E+00  0.1515152E-01 -0.5379715E-04  0.0000000E+00  0.5346824E-03
  0.7727273E+00  0.0000000E+00  0.1515152E-01 -0.4859295E-04  0.0000000E+00  0.4983833E-03
  0.7828283E+00  0.0000000E+00  0.1515152E-01 -0.4373715E-04  0.0000000E+00  0.4658539E-03
  0.7929293E+00  0.0000000E+00  0.1515152E-01 -0.3932514E-04  0.0000000E+00  0.4367343E-03
  0.8030303E+00  0.0000000E+00  0.1515152E-01 -0.3536838E-04  0.0000000E+00  0.4106484E-03
  0.8131313E+00  0.0000000E+00  0.1515152E-01 -0.3183530E-04  0.0000000E+00  0.3872474E-03
  0.8232324E+00  0.0000000E+00  0.1515152E-01 -0.2867774E-04  0.0000000E+00  0.3662256E-03
  0.8333333E+00  0.0000000E+00  0.1515152E-01 -0.2584496E-04  0.0000000E+00  0.3473214E-03
  0.8434343E+00  0.0000000E+00  0.1515152E-01 -0.2328999E-04  0.0000000E+00  0.3303133E-03
  0.8535354E+00  0.0000000E+00  0.1515152E-01 -0.2097172E-04  0.0000000E+00  0.3150142E-03
  0.8636364E+00  0.0000000E+00  0.1515152E-01 -0.1885513E-04  0.0000000E+00  0.3012657E-03
  0.8737374E+00  0.0000000E+00  0.1515152E-01 -0.1691067E-04  0.0000000E+00  0.2889333E-03
  0.8838384E+00  0.0000000E+00  0.1515152E-01 -0.1511340E-04  0.0000000E+00  0.2779025E-03
  0.8939394E+00  0.0000000E+00  0.1515152E-01 -0.1344216E-04  0.0000000E+00  0.2680755E-03
  0.9040404E+00  0.0000000E+00  0.1515152E-01 -0.1187883E-04  0.0000000E+00  0.2593689E-03
  0.9141414E+00  0.0000000E+00  0.1515152E-01 -0.1040771E-04  0.0000000E+00  0.2517113E-03
  0.9242424E+00  0.0000000E+00  0.1515152E-01 -0.9015048E-05  0.0000000E+00  0.2450419E-03
  0.9343435E+00  0.0000000E+00  0.1515152E-01 -0.7688635E-05  0.0000000E+00  0.2393093E-03
  0.9444444E+00  0.0000000E+00  0.1515152E-01 -0.6417490E-05  0.0000000E+00  0.2344704E-03
  0.9545454E+00  0.0000000E+00  0.1515152E-01 -0.5191606E-05  0.0000000E+00  0.2304895E-03
  0.9646465E+00  0.0000000E+00  0.1515152E-01 -0.4001747E-05  0.0000000E+00  0.2273379E-03
  0.9747475E+00  0.0000000E+00  0.1515152E-01 -0.2839275E-05  0.0000000E+00  0.2249932E-03
  0.9848485E+00  0.0000000E+00  0.1515152E-01 -0.1696005E-05  0.0000000E+00  0.2234389E-03
  0.9974747E+00  0.0000000E+00  0.1515152E-01 -0.5640882E-06  0.0000000E+00  0.2226644E-03
  0.5050505E-02  0.0000000E+00  0.2525252E-01  0.1170857E-05  0.0000000E+00  0.2899395E-03
  0.1515152E-01  0.0000000E+00  0.2525252E-01  0.3519308E-05  0.0000000E+00  0.2909085E-03
  0.2525252E-01  0.0000000E+00  0.2525252E-01  0.5888349E-05  0.0000000E+00  0.2928516E-03
  0.3535353E-01  0.0000000E+00  0.2525252E-01  0.8292700E-05  0.0000000E+00  0.2957803E-03
  0.4545455E-01  0.0000000E+00  0.2525252E-01  0.1074841E-04  0.0000000E+00  0.2997121E-03
  0.5555556E-01  0.0000000E+00  0.2525252E-01  0.1327338E-04  0.0000000E+00  0.3046719E-03
  0.6565657E-01  0.0000000E+00  0.2525252E-01  0.1588802E-04  0.0000000E+00  0.3106923E-03
  0.7575758E-01  0.0000000E+00  0.2525252E-01  0.1861600E-04  0.0000000E+00  0.3178151E-03
  0.8585858E-01  0.0000000E+00  0.2525252E-01  0.2148516E-04  0.0000000E+00  0.3260928E-03
  0.9595960E-01  0.0000000E+00  0.2525252E-01  0.2452879E-04  0.0000000E+00  0.3355899E-03
  0.1060606E+00  0.0000000E+00  0.2525252E-01  0.2778722E-04  0.0000000E+00  0.3463860E-03
  0.1161616E+00  0.0000000E+00  0.2525252E-01  0.3131002E-04  0.0000000E+00  0.3585783E-03
  0.1262626E+00  0.0000000E+00  0.2525252E-01  0.3515915E-04  0.0000000E+00  0.3722862E-03
  0.1363636E+00  0.0000000E+00  0.2525252E-01  0.3941325E-04  0.0000000E+00  0.3876564E-03
  0.1464646E+00  0.0000000E+00  0.2525252E-01  0.4417377E-04  0.0000000E+00  0.4048713E-03
  0.1565657E+00  0.0000000E+00  0.2525252E-01  0.4957291E-04  0.0000000E+00  0.4241625E-03
  0.1666667E+00  0.0000000E+00  0.2525252E-01  0.5578283E-04  0.0000000E+00  0.4458328E-03
  0.1767677E+00  0.0000000E+00  0.2525252E-01  0.6302170E-04  0.0000000E+00  0.4702982E-03
  0.1868687E+00  0.0000000E+00  0.2525252E-01  0.7154117E-04  0.0000000E+00  0.4981697E-03
  0.1969697E+00  0.0000000E+00  0.2525252E-01  0.8153930E-04  0.0000000E+00  0.5304092E-03
  0.2070707E+00  0.0000000E+00  0.2525252E-01  0.9278406E-04  0.0000000E+00  0.5685310E-03
  0.2171717E+00  0.0000000E+00  0.2525252E-01  0.1030455E-03  0.0000000E+00  0.6140410E-03
  0.2272727E+00  0.0000000E+00  0.2525252E-01  0.1012734E-03  0.0000000E+00  0.6603289E-03
  0.2373737E+00  0.0000000E+00  0.2525252E-01  0.1021467E-03  0.0000000E+00  0.7017573E-03
  0.2474747E+00  0.0000000E+00  0.2525252E-01  0.1121464E-03  0.0000000E+00  0.7440506E-03
  0.2575758E+00  0.0000000E+00  0.2525252E-01  0.1288669E-03  0.0000000E+00  0.7936222E-03
  0.2676768E+00  0.0000000E+00  0.2525252E-01  0.1462385E-03  0.0000000E+00  0.8507749E-03
  0.2777778E+00  0.0000000E+00  0.2525252E-01  0.1661452E-03  0.0000000E+00  0.9111084E-03
  0.2878788E+00  0.0000000E+00  0.2525252E-01  0.1999649E-03  0.0000000E+00  0.9727343E-03
  0.2979798E+00  0.0000000E+00  0.2525252E-01  0.2095417E-03  0.0000000E+00  0.1040529E-02
  0.3080808E+00  0.0000000E+00  0.2525252E-01  0.1748363E-03  0.0000000E+00  0.1141789E-02
  0.3181818E+00  0.0000000E+00  0.2525252E-01  0.1697321E-03  0.0000000E+00  0.1240904E-02
  0.3282828E+00  0.0000000E+00  0.2525252E-01  0.1865206E-03  0.0000000E+00  0.1301003E-02
  0.3383838E+00  0.0000000E+00  0.2525252E-01  0.1868664E-03  0.0000000E+00  0.1402796E-02
  0.3484848E+00  0.0000000E+00  0.2525252E-01  0.1292926E-03  0.0000000E+00  0.1508790E-02
  0.3585859E+00  0.0000000E+00  0.2525252E-01  0.1465313E-03  0.0000000E+00  0.1561817E-02
  0.3686869E+00  0.0000000E+00  0.2525252E-01  0.1642240E-03  0.0000000E+00  0.1596356E-02
  0.3787879E+00  0.0000000E+00  0.2525252E-01  0.2481849E-03  0.0000000E+00  0.1616213E-02
  0.3888889E+00  0.0000000E+00  0.2525252E-01  0.3726788E-03  0.0000000E+00  0.1607225E-02
  0.3989899E+00  0.0000000E+00  0.2525252E-01 -0.3000484E-03  0.0000000E+00  0.1613252E-02
  0.4090909E+00  0.0000000E+00  0.2525252E-01 -0.1872806E-03  0.0000000E+00  0.1631815E-02
  0.4191919E+00  0.0000000E+00  0.2525252E-01 -0.1006309E-03  0.0000000E+00  0.1593252E-02
  0.4292929E+00  0.0000000E+00  0.2525252E-01 -0.5668586E-04  0.0000000E+00  0.1552535E-02
  0.4393939E+00  0.0000000E+00  0.2525252E-01 -0.2249463E-04  0.0000000E+00  0.1559411E-02
  0.4494950E+00  0.0000000E+00  0.2525252E-01 -0.7324061E-04  0.0000000E+00  0.1547115E-02
  0.4595959E+00  0.0000000E+00  0.2525252E-01 -0.9712342E-04  0.0000000E+00  0.1528265E-02
  0.4696970E+00  0.0000000E+00  0.2525252E-01 -0.2803353E-04  0.0000000E+00  0.1539971E-02
  0.4797980E+00  0.0000000E+00  0.2525252E-01  0.1760271E-04  0.0000000E+00  0.1546279E-02
  0.4898990E+00  0.0000000E+00  0.2525252E-01  0.6871636E-04  0.0000000E+00  0.1550303E-02
  0.5000000E+00  0.0000000E+00  0.2525252E-01  0.1558644E-03  0.0000000E+00  0.1568441E-02
  0.5101010E+00  0.0000000E+00  0.2525252E-01  0.1535993E-03  0.0000000E+00  0.1631066E-02
  0.5202020E+00  0.0000000E+00  0.2525252E-01  0.2257103E-03  0.0000000E+00  0.1688496E-02
  0.5303030E+00  0.0000000E+00  0.2525252E-01  0.2136433E-03  0.0000000E+00  0.1699243E-02
  0.5404040E+00  0.0000000E+00  0.2525252E-01  0.1685067E-03  0.0000000E+00  0.1704216E-02
  0.5505050E+00  0.0000000E+00  0.2525252E-01  0.1953976E-03  0.0000000E+00  0.1725831E-02
  0.5606061E+00  0.0000000E+00  0.2525252E-01 -0.2691184E-03  0.0000000E+00  0.1736272E-02
  0.5707071E+00  0.0000000E+00  0.2525252E-01 -0.2115398E-03  0.0000000E+00  0.1746434E-02
  0.5808081E+00  0.0000000E+00  0.2525252E-01 -0.1249861E-03  0.0000000E+00  0.1752209E-02
  0.5909091E+00  0.0000000E+00  0.2525252E-01 -0.1341321E-03  0.0000000E+00  0.1682955E-02
  0.6010101E+00  0.0000000E+00  0.2525252E-01 -0.1371275E-03  0.0000000E+00  0.1605045E-02
  0.6111111E+00  0.0000000E+00  0.2525252E-01 -0.1806163E-03  0.0000000E+00  0.1506048E-02
  0.6212121E+00  0.0000000E+00  0.2525252E-01 -0.3236605E-03  0.0000000E+00  0.1389285E-02
  0.6313131E+00  0.0000000E+00  0.2525252E-01 -0.2677341E-03  0.0000000E+00  0.1303037E-02
  0.6414142E+00  0.0000000E+00  0.2525252E-01 -0.2079198E-03  0.0000000E+00  0.1218138E-02
  0.6515151E+00  0.0000000E+00  0.2525252E-01 -0.2021765E-03  0.0000000E+00  0.1127913E-02
  0.6616161E+00  0.0000000E+00  0.2525252E-01 -0.1985476E-03  0.0000000E+00  0.1027717E-02
  0.6717172E+00  0.0000000E+00  0.2525252E-01 -0.1793446E-03  0.0000000E+00  0.9567290E-03
  0.6818182E+00  0.0000000E+00  0.2525252E-01 -0.1680062E-03  0.0000000E+00  0.9101041E-03
  0.6919192E+00  0.0000000E+00  0.2525252E-01 -0.1585754E-03  0.0000000E+00  0.8668037E-03
  0.7020202E+00  0.0000000E+00  0.2525252E-01 -0.1408581E-03  0.0000000E+00  0.8181409E-03
  0.7121212E+00  0.0000000E+00  0.2525252E-01 -0.1297197E-03  0.0000000E+00  0.7650165E-03
  0.7222222E+00  0.0000000E+00  0.2525252E-01 -0.1215516E-03  0.0000000E+00  0.7126173E-03
  0.7323232E+00  0.0000000E+00  0.2525252E-01 -0.1147586E-03  0.0000000E+00  0.6619391E-03
  0.7424242E+00  0.0000000E+00  0.2525252E-01 -0.1073704E-03  0.0000000E+00  0.6135915E-03
  0.7525253E+00  0.0000000E+00  0.2525252E-01 -0.9865041E-04  0.0000000E+00  0.5688180E-03
  0.7626263E+00  0.0000000E+00  0.2525252E-01 -0.8945420E-04  0.0000000E+00  0.5284640E-03
  0.7727273E+00  0.0000000E+00  0.2525252E-01 -0.8056502E-04  0.0000000E+00  0.4925091E-03
  0.7828283E+00  0.0000000E+00  0.2525252E-01 -0.7238008E-04  0.0000000E+00  0.4605274E-03
  0.7929293E+00  0.0000000E+00  0.2525252E-01 -0.6501994E-04  0.0000000E+00  0.4320132E-03
  0.8030303E+00  0.0000000E+00  0.2525252E-01 -0.5846283E-04  0.0000000E+00  0.4065072E-03
  0.8131313E+00  0.0000000E+00  0.2525252E-01 -0.5262892E-04  0.0000000E+00  0.3836243E-03
  0.8232324E+00  0.0000000E+00  0.2525252E-01 -0.4742328E-04  0.0000000E+00  0.3630495E-03
  0.8333333E+00  0.0000000E+00  0.2525252E-01 -0.4275470E-04  0.0000000E+00  0.3445244E-03
  0.8434343E+00  0.0000000E+00  0.2525252E-01 -0.3854257E-04  0.0000000E+00  0.3278354E-03
  0.8535354E+00  0.0000000E+00  0.2525252E-01 -0.3471819E-04  0.0000000E+00  0.3128044E-03
  0.8636364E+00  0.0000000E+00  0.2525252E-01 -0.3122387E-04  0.0000000E+00  0.2992815E-03
  0.8737374E+00  0.0000000E+00  0.2525252E-01 -0.2801130E-04  0.0000000E+00  0.2871393E-03
  0.8838384E+00  0.0000000E+00  0.2525252E-01 -0.2503985E-04  0.0000000E+00  0.2762693E-03
  0.8939394E+00  0.0000000E+00  0.2525252E-01 -0.2227508E-04  0.0000000E+00  0.2665784E-03
  0.9040404E+00  0.0000000E+00  0.2525252E-01 -0.1968747E-04  0.0000000E+00  0.2579869E-03
  0.9141414E+00  0.0000000E+00  0.2525252E-01 -0.1725142E-04  0.0000000E+00  0.2504266E-03
  0.9242424E+00  0.0000000E+00  0.2525252E-01 -0.1494447E-04  0.0000000E+00  0.2438390E-03
  0.9343435E+00  0.0000000E+00  0.2525252E-01 -0.1274662E-04  0.0000000E+00  0.2381746E-03
  0.9444444E+00  0.0000000E+00  0.2525252E-01 -0.1063986E-04  0.0000000E+00  0.2333917E-03
  0.9545454E+00  0.0000000E+00  0.2525252E-01 -0.8607770E-05  0.0000000E+00  0.2294559E-03
  0.9646465E+00  0.0000000E+00  0.2525252E-01 -0.6635145E-05  0.0000000E+00  0.2263392E-03
  0.9747475E+00  0.0000000E+00  0.2525252E-01 -0.4707766E-05  0.0000000E+00  0.2240201E-03
  0.9848485E+00  0.0000000E+00  0.2525252E-01 -0.2812140E-05  0.0000000E+00  0.2224825E-03
  0.9974747E+00  0.0000000E+00  0.2525252E-01 -0.9353113E-06  0.0000000E+00  0.2217163E-03
  0.5050505E-02  0.0000000E+00  0.3535353E-01  0.1628828E-05  0.0000000E+00  0.2882785E-03
  0.1515152E-01  0.0000000E+00  0.3535353E-01  0.4895682E-05  0.0000000E+00  0.2892346E-03
  0.2525252E-01  0.0000000E+00  0.3535353E-01  0.8190605E-05  0.0000000E+00  0.2911513E-03
  0.3535353E-01  0.0000000E+00  0.3535353E-01  0.1153360E-04  0.0000000E+00  0.2940389E-03
  0.4545455E-01  0.0000000E+00  0.3535353E-01  0.1494646E-04  0.0000000E+00  0.2979132E-03
  0.5555556E-01  0.0000000E+00  0.3535353E-01  0.1845347E-04  0.0000000E+00  0.3027968E-03
  0.6565657E-01  0.0000000E+00  0.3535353E-01  0.2208224E-04  0.0000000E+00  0.3087193E-03
  0.7575758E-01  0.0000000E+00  0.3535353E-01  0.2586473E-04  0.0000000E+00  0.3157188E-03
  0.8585858E-01  0.0000000E+00  0.3535353E-01  0.2983844E-04  0.0000000E+00  0.3238425E-03
  0.9595960E-01  0.0000000E+00  0.3535353E-01  0.3404798E-04  0.0000000E+00  0.3331488E-03
  0.1060606E+00  0.0000000E+00  0.3535353E-01  0.3854706E-04  0.0000000E+00  0.3437085E-03
  0.1161616E+00  0.0000000E+00  0.3535353E-01  0.4340129E-04  0.0000000E+00  0.3556079E-03
  0.1262626E+00  0.0000000E+00  0.3535353E-01  0.4869206E-04  0.0000000E+00  0.3689507E-03
  0.1363636E+00  0.0000000E+00  0.3535353E-01  0.5452233E-04  0.0000000E+00  0.3838622E-03
  0.1464646E+00  0.0000000E+00  0.3535353E-01  0.6102530E-04  0.0000000E+00  0.4004949E-03
  0.1565657E+00  0.0000000E+00  0.3535353E-01  0.6837783E-04  0.0000000E+00  0.4190376E-03
  0.1666667E+00  0.0000000E+00  0.3535353E-01  0.7682154E-04  0.0000000E+00  0.4397348E-03
  0.1767677E+00  0.0000000E+00  0.3535353E-01  0.8669709E-04  0.0000000E+00  0.4629294E-03
  0.1868687E+00  0.0000000E+00  0.3535353E-01  0.9850516E-04  0.0000000E+00  0.4891757E-03
  0.1969697E+00  0.0000000E+00  0.3535353E-01  0.1130361E-03  0.0000000E+00  0.5195906E-03
  0.2070707E+00  0.0000000E+00  0.3535353E-01  0.1317175E-03  0.0000000E+00  0.5571738E-03
  0.2171717E+00  0.0000000E+00  0.3535353E-01  0.1577344E-03  0.0000000E+00  0.6125937E-03
  0.2272727E+00  0.0000000E+00  0.3535353E-01  0.1388649E-03  0.0000000E+00  0.6664749E-03
  0.2373737E+00  0.0000000E+00  0.3535353E-01  0.1323616E-03  0.0000000E+00  0.6996066E-03
  0.2474747E+00  0.0000000E+00  0.3535353E-01  0.1487161E-03  0.0000000E+00  0.7313052E-03
  0.2575758E+00  0.0000000E+00  0.3535353E-01  0.1783929E-03  0.0000000E+00  0.7773852E-03
  0.2676768E+00  0.0000000E+00  0.3535353E-01  0.1997326E-03  0.0000000E+00  0.8352938E-03
  0.2777778E+00  0.0000000E+00  0.3535353E-01  0.2133203E-03  0.0000000E+00  0.8885692E-03
  0.2878788E+00  0.0000000E+00  0.3535353E-01  0.2380267E-03  0.0000000E+00  0.9246258E-03
  0.2979798E+00  0.0000000E+00  0.3535353E-01  0.2603523E-03  0.0000000E+00  0.9598081E-03