title = "dataset water"
variables = "x", "y", "z", "vx", "vy", "vz"
zone t = "velocities, solution time =  3.400E+01 days        " i =   99, j =   99, k =    1,  f=point
  0.5050505E-02  0.0000000E+00  0.5050505E-02  0.3284045E-07  0.0000000E+00  0.2279586E-04
  0.1515152E-01  0.0000000E+00  0.5050505E-02  0.9865232E-07  0.0000000E+00  0.2292810E-04
  0.2525252E-01  0.0000000E+00  0.5050505E-02  0.1648584E-06  0.0000000E+00  0.2319313E-04
  0.3535353E-01  0.0000000E+00  0.5050505E-02  0.2317240E-06  0.0000000E+00  0.2359200E-04
  0.4545455E-01  0.0000000E+00  0.5050505E-02  0.2995166E-06  0.0000000E+00  0.2412634E-04
  0.5555556E-01  0.0000000E+00  0.5050505E-02  0.3685071E-06  0.0000000E+00  0.2479829E-04
  0.6565657E-01  0.0000000E+00  0.5050505E-02  0.4389699E-06  0.0000000E+00  0.2561060E-04
  0.7575758E-01  0.0000000E+00  0.5050505E-02  0.5111845E-06  0.0000000E+00  0.2656652E-04
  0.8585858E-01  0.0000000E+00  0.5050505E-02  0.5854355E-06  0.0000000E+00  0.2766993E-04
  0.9595960E-01  0.0000000E+00  0.5050505E-02  0.6620146E-06  0.0000000E+00  0.2892527E-04
  0.1060606E+00  0.0000000E+00  0.5050505E-02  0.7412209E-06  0.0000000E+00  0.3033761E-04
  0.1161616E+00  0.0000000E+00  0.5050505E-02  0.8233631E-06  0.0000000E+00  0.3191261E-04
  0.1262626E+00  0.0000000E+00  0.5050505E-02  0.9087608E-06  0.0000000E+00  0.3365660E-04
  0.1363636E+00  0.0000000E+00  0.5050505E-02  0.9977469E-06  0.0000000E+00  0.3557657E-04
  0.1464646E+00  0.0000000E+00  0.5050505E-02  0.1090671E-05  0.0000000E+00  0.3768024E-04
  0.1565657E+00  0.0000000E+00  0.5050505E-02  0.1187901E-05  0.0000000E+00  0.3997604E-04
  0.1666667E+00  0.0000000E+00  0.5050505E-02  0.1289833E-05  0.0000000E+00  0.4247322E-04
  0.1767677E+00  0.0000000E+00  0.5050505E-02  0.1396891E-05  0.0000000E+00  0.4518185E-04
  0.1868687E+00  0.0000000E+00  0.5050505E-02  0.1509544E-05  0.0000000E+00  0.4811295E-04
  0.1969697E+00  0.0000000E+00  0.5050505E-02  0.1628308E-05  0.0000000E+00  0.5127857E-04
  0.2070707E+00  0.0000000E+00  0.5050505E-02  0.1753767E-05  0.0000000E+00  0.5469190E-04
  0.2171717E+00  0.0000000E+00  0.5050505E-02  0.1886583E-05  0.0000000E+00  0.5836742E-04
  0.2272727E+00  0.0000000E+00  0.5050505E-02  0.2027519E-05  0.0000000E+00  0.6232111E-04
  0.2373737E+00  0.0000000E+00  0.5050505E-02  0.2177458E-05  0.0000000E+00  0.6657068E-04
  0.2474747E+00  0.0000000E+00  0.5050505E-02  0.2337411E-05  0.0000000E+00  0.7113580E-04
  0.2575758E+00  0.0000000E+00  0.5050505E-02  0.2508524E-05  0.0000000E+00  0.7603840E-04
  0.2676768E+00  0.0000000E+00  0.5050505E-02  0.2692046E-05  0.0000000E+00  0.8130295E-04
  0.2777778E+00  0.0000000E+00  0.5050505E-02  0.2889236E-05  0.0000000E+00  0.8695652E-04
  0.2878788E+00  0.0000000E+00  0.5050505E-02  0.3101145E-05  0.0000000E+00  0.9302869E-04
  0.2979798E+00  0.0000000E+00  0.5050505E-02  0.3328156E-05  0.0000000E+00  0.9955060E-04
  0.3080808E+00  0.0000000E+00  0.5050505E-02  0.3569082E-05  0.0000000E+00  0.1065528E-03
  0.3181818E+00  0.0000000E+00  0.5050505E-02  0.3819427E-05  0.0000000E+00  0.1140601E-03
  0.3282828E+00  0.0000000E+00  0.5050505E-02  0.4068161E-05  0.0000000E+00  0.1220819E-03
  0.3383838E+00  0.0000000E+00  0.5050505E-02  0.4291974E-05  0.0000000E+00  0.1305925E-03
  0.3484848E+00  0.0000000E+00  0.5050505E-02  0.4445739E-05  0.0000000E+00  0.1394968E-03
  0.3585859E+00  0.0000000E+00  0.5050505E-02  0.4448885E-05  0.0000000E+00  0.1485706E-03
  0.3686869E+00  0.0000000E+00  0.5050505E-02  0.4172887E-05  0.0000000E+00  0.1573757E-03
  0.3787879E+00  0.0000000E+00  0.5050505E-02  0.3452555E-05  0.0000000E+00  0.1651714E-03
  0.3888889E+00  0.0000000E+00  0.5050505E-02  0.2181321E-05  0.0000000E+00  0.1709363E-03
  0.3989899E+00  0.0000000E+00  0.5050505E-02  0.5709038E-06  0.0000000E+00  0.1737543E-03
  0.4090909E+00  0.0000000E+00  0.5050505E-02 -0.6133526E-06  0.0000000E+00  0.1737108E-03
  0.4191919E+00  0.0000000E+00  0.5050505E-02 -0.1168709E-05  0.0000000E+00  0.1718857E-03
  0.4292929E+00  0.0000000E+00  0.5050505E-02 -0.1216408E-05  0.0000000E+00  0.1694437E-03
  0.4393939E+00  0.0000000E+00  0.5050505E-02 -0.9339749E-06  0.0000000E+00  0.1672425E-03
  0.4494950E+00  0.0000000E+00  0.5050505E-02 -0.4550938E-06  0.0000000E+00  0.1658209E-03
  0.4595959E+00  0.0000000E+00  0.5050505E-02  0.1437488E-06  0.0000000E+00  0.1655022E-03
  0.4696970E+00  0.0000000E+00  0.5050505E-02  0.8320039E-06  0.0000000E+00  0.1665008E-03
  0.4797980E+00  0.0000000E+00  0.5050505E-02  0.1614207E-05  0.0000000E+00  0.1690046E-03
  0.4898990E+00  0.0000000E+00  0.5050505E-02  0.2527036E-05  0.0000000E+00  0.1732447E-03
  0.5000000E+00  0.0000000E+00  0.5050505E-02  0.3648264E-05  0.0000000E+00  0.1795708E-03
  0.5101010E+00  0.0000000E+00  0.5050505E-02  0.5127206E-05  0.0000000E+00  0.1885675E-03
  0.5202020E+00  0.0000000E+00  0.5050505E-02  0.7265256E-05  0.0000000E+00  0.2012868E-03
  0.5303030E+00  0.0000000E+00  0.5050505E-02  0.1073665E-04  0.0000000E+00  0.2197933E-03
  0.5404040E+00  0.0000000E+00  0.5050505E-02  0.1725449E-04  0.0000000E+00  0.2486377E-03
  0.5505050E+00  0.0000000E+00  0.5050505E-02  0.3180237E-04  0.0000000E+00  0.2993839E-03
  0.5606061E+00  0.0000000E+00  0.5050505E-02 -0.3441634E-04  0.0000000E+00  0.2966990E-03
  0.5707071E+00  0.0000000E+00  0.5050505E-02 -0.1989743E-04  0.0000000E+00  0.2405684E-03
  0.5808081E+00  0.0000000E+00  0.5050505E-02 -0.1343399E-04  0.0000000E+00  0.2062768E-03
  0.5909091E+00  0.0000000E+00  0.5050505E-02 -0.1004330E-04  0.0000000E+00  0.1821973E-03
  0.6010101E+00  0.0000000E+00  0.5050505E-02 -0.8013561E-05  0.0000000E+00  0.1637200E-03
  0.6111111E+00  0.0000000E+00  0.5050505E-02 -0.6671837E-05  0.0000000E+00  0.1487207E-03
  0.6212121E+00  0.0000000E+00  0.5050505E-02 -0.5717535E-05  0.0000000E+00  0.1360862E-03
  0.6313131E+00  0.0000000E+00  0.5050505E-02 -0.5000621E-05  0.0000000E+00  0.1251707E-03
  0.6414142E+00  0.0000000E+00  0.5050505E-02 -0.4439055E-05  0.0000000E+00  0.1155685E-03
  0.6515151E+00  0.0000000E+00  0.5050505E-02 -0.3984573E-05  0.0000000E+00  0.1070088E-03
  0.6616161E+00  0.0000000E+00  0.5050505E-02 -0.3607063E-05  0.0000000E+00  0.9930183E-04
  0.6717172E+00  0.0000000E+00  0.5050505E-02 -0.3286823E-05  0.0000000E+00  0.9230921E-04
  0.6818182E+00  0.0000000E+00  0.5050505E-02 -0.3010441E-05  0.0000000E+00  0.8592675E-04
  0.6919192E+00  0.0000000E+00  0.5050505E-02 -0.2768483E-05  0.0000000E+00  0.8007384E-04
  0.7020202E+00  0.0000000E+00  0.5050505E-02 -0.2554115E-05  0.0000000E+00  0.7468665E-04
  0.7121212E+00  0.0000000E+00  0.5050505E-02 -0.2362265E-05  0.0000000E+00  0.6971363E-04
  0.7222222E+00  0.0000000E+00  0.5050505E-02 -0.2189083E-05  0.0000000E+00  0.6511244E-04
  0.7323232E+00  0.0000000E+00  0.5050505E-02 -0.2031590E-05  0.0000000E+00  0.6084778E-04
  0.7424242E+00  0.0000000E+00  0.5050505E-02 -0.1887435E-05  0.0000000E+00  0.5688982E-04
  0.7525253E+00  0.0000000E+00  0.5050505E-02 -0.1754740E-05  0.0000000E+00  0.5321312E-04
  0.7626263E+00  0.0000000E+00  0.5050505E-02 -0.1631977E-05  0.0000000E+00  0.4979573E-04
  0.7727273E+00  0.0000000E+00  0.5050505E-02 -0.1517889E-05  0.0000000E+00  0.4661857E-04
  0.7828283E+00  0.0000000E+00  0.5050505E-02 -0.1411429E-05  0.0000000E+00  0.4366494E-04
  0.7929293E+00  0.0000000E+00  0.5050505E-02 -0.1311716E-05  0.0000000E+00  0.4092012E-04
  0.8030303E+00  0.0000000E+00  0.5050505E-02 -0.1217998E-05  0.0000000E+00  0.3837106E-04
  0.8131313E+00  0.0000000E+00  0.5050505E-02 -0.1129631E-05  0.0000000E+00  0.3600616E-04
  0.8232324E+00  0.0000000E+00  0.5050505E-02 -0.1046055E-05  0.0000000E+00  0.3381506E-04
  0.8333333E+00  0.0000000E+00  0.5050505E-02 -0.9667806E-06  0.0000000E+00  0.3178847E-04
  0.8434343E+00  0.0000000E+00  0.5050505E-02 -0.8913746E-06  0.0000000E+00  0.2991804E-04
  0.8535354E+00  0.0000000E+00  0.5050505E-02 -0.8194513E-06  0.0000000E+00  0.2819628E-04
  0.8636364E+00  0.0000000E+00  0.5050505E-02 -0.7506642E-06  0.0000000E+00  0.2661643E-04
  0.8737374E+00  0.0000000E+00  0.5050505E-02 -0.6846990E-06  0.0000000E+00  0.2517243E-04
  0.8838384E+00  0.0000000E+00  0.5050505E-02 -0.6212681E-06  0.0000000E+00  0.2385881E-04
  0.8939394E+00  0.0000000E+00  0.5050505E-02 -0.5601066E-06  0.0000000E+00  0.2267069E-04
  0.9040404E+00  0.0000000E+00  0.5050505E-02 -0.5009681E-06  0.0000000E+00  0.2160369E-04
  0.9141414E+00  0.0000000E+00  0.5050505E-02 -0.4436217E-06  0.0000000E+00  0.2065394E-04
  0.9242424E+00  0.0000000E+00  0.5050505E-02 -0.3878495E-06  0.0000000E+00  0.1981801E-04
  0.9343435E+00  0.0000000E+00  0.5050505E-02 -0.3334444E-06  0.0000000E+00  0.1909292E-04
  0.9444444E+00  0.0000000E+00  0.5050505E-02 -0.2802078E-06  0.0000000E+00  0.1847608E-04
  0.9545454E+00  0.0000000E+00  0.5050505E-02 -0.2279485E-06  0.0000000E+00  0.1796531E-04
  0.9646465E+00  0.0000000E+00  0.5050505E-02 -0.1764812E-06  0.0000000E+00  0.1755883E-04
  0.9747475E+00  0.0000000E+00  0.5050505E-02 -0.1256250E-06  0.0000000E+00  0.1725520E-04
  0.9848485E+00  0.0000000E+00  0.5050505E-02 -0.7520241E-07  0.0000000E+00  0.1705336E-04
  0.9974747E+00  0.0000000E+00  0.5050505E-02 -0.2503881E-07  0.0000000E+00  0.1695262E-04
  0.5050505E-02  0.0000000E+00  0.1515152E-01  0.9847468E-07  0.0000000E+00  0.2282449E-04
  0.1515152E-01  0.0000000E+00  0.1515152E-01  0.2958179E-06  0.0000000E+00  0.2295693E-04
  0.2525252E-01  0.0000000E+00  0.1515152E-01  0.4943460E-06  0.0000000E+00  0.2322235E-04
  0.3535353E-01  0.0000000E+00  0.1515152E-01  0.6948553E-06  0.0000000E+00  0.2362182E-04
  0.4545455E-01  0.0000000E+00  0.1515152E-01  0.8981496E-06  0.0000000E+00  0.2415695E-04
  0.5555556E-01  0.0000000E+00  0.1515152E-01  0.1105042E-05  0.0000000E+00  0.2482993E-04
  0.6565657E-01  0.0000000E+00  0.1515152E-01  0.1316356E-05  0.0000000E+00  0.2564348E-04
  0.7575758E-01  0.0000000E+00  0.1515152E-01  0.1532930E-05  0.0000000E+00  0.2660090E-04
  0.8585858E-01  0.0000000E+00  0.1515152E-01  0.1755621E-05  0.0000000E+00  0.2770606E-04
  0.9595960E-01  0.0000000E+00  0.1515152E-01  0.1985301E-05  0.0000000E+00  0.2896343E-04
  0.1060606E+00  0.0000000E+00  0.1515152E-01  0.2222870E-05  0.0000000E+00  0.3037810E-04
  0.1161616E+00  0.0000000E+00  0.1515152E-01  0.2469252E-05  0.0000000E+00  0.3195575E-04
  0.1262626E+00  0.0000000E+00  0.1515152E-01  0.2725407E-05  0.0000000E+00  0.3370274E-04
  0.1363636E+00  0.0000000E+00  0.1515152E-01  0.2992330E-05  0.0000000E+00  0.3562609E-04
  0.1464646E+00  0.0000000E+00  0.1515152E-01  0.3271068E-05  0.0000000E+00  0.3773350E-04
  0.1565657E+00  0.0000000E+00  0.1515152E-01  0.3562723E-05  0.0000000E+00  0.4003344E-04
  0.1666667E+00  0.0000000E+00  0.1515152E-01  0.3868475E-05  0.0000000E+00  0.4253515E-04
  0.1767677E+00  0.0000000E+00  0.1515152E-01  0.4189593E-05  0.0000000E+00  0.4524871E-04
  0.1868687E+00  0.0000000E+00  0.1515152E-01  0.4527468E-05  0.0000000E+00  0.4818511E-04
  0.1969697E+00  0.0000000E+00  0.1515152E-01  0.4883639E-05  0.0000000E+00  0.5135635E-04
  0.2070707E+00  0.0000000E+00  0.1515152E-01  0.5259838E-05  0.0000000E+00  0.5477554E-04
  0.2171717E+00  0.0000000E+00  0.1515152E-01  0.5658038E-05  0.0000000E+00  0.5845706E-04
  0.2272727E+00  0.0000000E+00  0.1515152E-01  0.6080508E-05  0.0000000E+00  0.6241674E-04
  0.2373737E+00  0.0000000E+00  0.1515152E-01  0.6529877E-05  0.0000000E+00  0.6667212E-04
  0.2474747E+00  0.0000000E+00  0.1515152E-01  0.7009181E-05  0.0000000E+00  0.7124266E-04
  0.2575758E+00  0.0000000E+00  0.1515152E-01  0.7521881E-05  0.0000000E+00  0.7615014E-04
  0.2676768E+00  0.0000000E+00  0.1515152E-01  0.8071813E-05  0.0000000E+00  0.8141894E-04
  0.2777778E+00  0.0000000E+00  0.1515152E-01  0.8662960E-05  0.0000000E+00  0.8707642E-04
  0.2878788E+00  0.0000000E+00  0.1515152E-01  0.9298916E-05  0.0000000E+00  0.9315303E-04
  0.2979798E+00  0.0000000E+00  0.1515152E-01  0.9981708E-05  0.0000000E+00  0.9968217E-04
  0.3080808E+00  0.0000000E+00  0.1515152E-01  0.1070946E-04  0.0000000E+00  0.1066992E-03
  0.3181818E+00  0.0000000E+00  0.1515152E-01  0.1147179E-04  0.0000000E+00  0.1142387E-03
  0.3282828E+00  0.0000000E+00  0.1515152E-01  0.1224119E-04  0.0000000E+00  0.1223286E-03
  0.3383838E+00  0.0000000E+00  0.1515152E-01  0.1295696E-04  0.0000000E+00  0.1309769E-03
  0.3484848E+00  0.0000000E+00  0.1515152E-01  0.1349680E-04  0.0000000E+00  0.1401449E-03
  0.3585859E+00  0.0000000E+00  0.1515152E-01  0.1363091E-04  0.0000000E+00  0.1496907E-03
  0.3686869E+00  0.0000000E+00  0.1515152E-01  0.1296220E-04  0.0000000E+00  0.1592587E-03
  0.3787879E+00  0.0000000E+00  0.1515152E-01  0.1090184E-04  0.0000000E+00  0.1680835E-03
  0.3888889E+00  0.0000000E+00  0.1515152E-01  0.6877785E-05  0.0000000E+00  0.1747634E-03
  0.3989899E+00  0.0000000E+00  0.1515152E-01  0.1298275E-05  0.0000000E+00  0.1775077E-03
  0.4090909E+00  0.0000000E+00  0.1515152E-01 -0.2453143E-05  0.0000000E+00  0.1764112E-03
  0.4191919E+00  0.0000000E+00  0.1515152E-01 -0.4002516E-05  0.0000000E+00  0.1734435E-03
  0.4292929E+00  0.0000000E+00  0.1515152E-01 -0.3973490E-05  0.0000000E+00  0.1701535E-03
  0.4393939E+00  0.0000000E+00  0.1515152E-01 -0.2996235E-05  0.0000000E+00  0.1674147E-03
  0.4494950E+00  0.0000000E+00  0.1515152E-01 -0.1485090E-05  0.0000000E+00  0.1656672E-03
  0.4595959E+00  0.0000000E+00  0.1515152E-01  0.3412322E-06  0.0000000E+00  0.1651328E-03
  0.4696970E+00  0.0000000E+00  0.1515152E-01  0.2401777E-05  0.0000000E+00  0.1659459E-03
  0.4797980E+00  0.0000000E+00  0.1515152E-01  0.4713162E-05  0.0000000E+00  0.1682280E-03
  0.4898990E+00  0.0000000E+00  0.1515152E-01  0.7376737E-05  0.0000000E+00  0.1721377E-03
  0.5000000E+00  0.0000000E+00  0.1515152E-01  0.1059635E-04  0.0000000E+00  0.1779129E-03
  0.5101010E+00  0.0000000E+00  0.1515152E-01  0.1474206E-04  0.0000000E+00  0.1859159E-03
  0.5202020E+00  0.0000000E+00  0.1515152E-01  0.2050475E-04  0.0000000E+00  0.1966754E-03
  0.5303030E+00  0.0000000E+00  0.1515152E-01  0.2926442E-04  0.0000000E+00  0.2108470E-03
  0.5404040E+00  0.0000000E+00  0.1515152E-01  0.4401041E-04  0.0000000E+00  0.2286763E-03
  0.5505050E+00  0.0000000E+00  0.1515152E-01  0.7177759E-04  0.0000000E+00  0.2469570E-03
  0.5606061E+00  0.0000000E+00  0.1515152E-01 -0.7962016E-04  0.0000000E+00  0.2442843E-03
  0.5707071E+00  0.0000000E+00  0.1515152E-01 -0.5193559E-04  0.0000000E+00  0.2206398E-03
  0.5808081E+00  0.0000000E+00  0.1515152E-01 -0.3734960E-04  0.0000000E+00  0.1973809E-03
  0.5909091E+00  0.0000000E+00  0.1515152E-01 -0.2882938E-04  0.0000000E+00  0.1776553E-03
  0.6010101E+00  0.0000000E+00  0.1515152E-01 -0.2338935E-04  0.0000000E+00  0.1611587E-03
  0.6111111E+00  0.0000000E+00  0.1515152E-01 -0.1965373E-04  0.0000000E+00  0.1471748E-03
  0.6212121E+00  0.0000000E+00  0.1515152E-01 -0.1693494E-04  0.0000000E+00  0.1351116E-03
  0.6313131E+00  0.0000000E+00  0.1515152E-01 -0.1486266E-04  0.0000000E+00  0.1245405E-03
  0.6414142E+00  0.0000000E+00  0.1515152E-01 -0.1322383E-04  0.0000000E+00  0.1151568E-03
  0.6515151E+00  0.0000000E+00  0.1515152E-01 -0.1188873E-04  0.0000000E+00  0.1067409E-03
  0.6616161E+00  0.0000000E+00  0.1515152E-01 -0.1077453E-04  0.0000000E+00  0.9913121E-04
  0.6717172E+00  0.0000000E+00  0.1515152E-01 -0.9826082E-05  0.0000000E+00  0.9220570E-04
  0.6818182E+00  0.0000000E+00  0.1515152E-01 -0.9005407E-05  0.0000000E+00  0.8587018E-04
  0.6919192E+00  0.0000000E+00  0.1515152E-01 -0.8285522E-05  0.0000000E+00  0.8005038E-04
  0.7020202E+00  0.0000000E+00  0.1515152E-01 -0.7646745E-05  0.0000000E+00  0.7468664E-04
  0.7121212E+00  0.0000000E+00  0.1515152E-01 -0.7074380E-05  0.0000000E+00  0.6973020E-04
  0.7222222E+00  0.0000000E+00  0.1515152E-01 -0.6557219E-05  0.0000000E+00  0.6514065E-04
  0.7323232E+00  0.0000000E+00  0.1515152E-01 -0.6086549E-05  0.0000000E+00  0.6088404E-04
  0.7424242E+00  0.0000000E+00  0.1515152E-01 -0.5655482E-05  0.0000000E+00  0.5693151E-04
  0.7525253E+00  0.0000000E+00  0.1515152E-01 -0.5258488E-05  0.0000000E+00  0.5325830E-04
  0.7626263E+00  0.0000000E+00  0.1515152E-01 -0.4891063E-05  0.0000000E+00  0.4984298E-04
  0.7727273E+00  0.0000000E+00  0.1515152E-01 -0.4549492E-05  0.0000000E+00  0.4666684E-04
  0.7828283E+00  0.0000000E+00  0.1515152E-01 -0.4230674E-05  0.0000000E+00  0.4371346E-04
  0.7929293E+00  0.0000000E+00  0.1515152E-01 -0.3931995E-05  0.0000000E+00  0.4096833E-04
  0.8030303E+00  0.0000000E+00  0.1515152E-01 -0.3651225E-05  0.0000000E+00  0.3841857E-04
  0.8131313E+00  0.0000000E+00  0.1515152E-01 -0.3386446E-05  0.0000000E+00  0.3605269E-04
  0.8232324E+00  0.0000000E+00  0.1515152E-01 -0.3135992E-05  0.0000000E+00  0.3386042E-04
  0.8333333E+00  0.0000000E+00  0.1515152E-01 -0.2898404E-05  0.0000000E+00  0.3183255E-04
  0.8434343E+00  0.0000000E+00  0.1515152E-01 -0.2672390E-05  0.0000000E+00  0.2996078E-04
  0.8535354E+00  0.0000000E+00  0.1515152E-01 -0.2456801E-05  0.0000000E+00  0.2823766E-04
  0.8636364E+00  0.0000000E+00  0.1515152E-01 -0.2250600E-05  0.0000000E+00  0.2665648E-04
  0.8737374E+00  0.0000000E+00  0.1515152E-01 -0.2052848E-05  0.0000000E+00  0.2521117E-04
  0.8838384E+00  0.0000000E+00  0.1515152E-01 -0.1862687E-05  0.0000000E+00  0.2389632E-04
  0.8939394E+00  0.0000000E+00  0.1515152E-01 -0.1679324E-05  0.0000000E+00  0.2270703E-04
  0.9040404E+00  0.0000000E+00  0.1515152E-01 -0.1502021E-05  0.0000000E+00  0.2163895E-04
  0.9141414E+00  0.0000000E+00  0.1515152E-01 -0.1330088E-05  0.0000000E+00  0.2068821E-04
  0.9242424E+00  0.0000000E+00  0.1515152E-01 -0.1162872E-05  0.0000000E+00  0.1985140E-04
  0.9343435E+00  0.0000000E+00  0.1515152E-01 -0.9997532E-06  0.0000000E+00  0.1912552E-04
  0.9444444E+00  0.0000000E+00  0.1515152E-01 -0.8401367E-06  0.0000000E+00  0.1850800E-04
  0.9545454E+00  0.0000000E+00  0.1515152E-01 -0.6834497E-06  0.0000000E+00  0.1799667E-04
  0.9646465E+00  0.0000000E+00  0.1515152E-01 -0.5291369E-06  0.0000000E+00  0.1758972E-04
  0.9747475E+00  0.0000000E+00  0.1515152E-01 -0.3766561E-06  0.0000000E+00  0.1728575E-04
  0.9848485E+00  0.0000000E+00  0.1515152E-01 -0.2254760E-06  0.0000000E+00  0.1708368E-04
  0.9974747E+00  0.0000000E+00  0.1515152E-01 -0.7507265E-07  0.0000000E+00  0.1698282E-04
  0.5050505E-02  0.0000000E+00  0.2525252E-01  0.1640651E-06  0.0000000E+00  0.2288235E-04
  0.1515152E-01  0.0000000E+00  0.2525252E-01  0.4928542E-06  0.0000000E+00  0.2301519E-04
  0.2525252E-01  0.0000000E+00  0.2525252E-01  0.8236245E-06  0.0000000E+00  0.2328139E-04
  0.3535353E-01  0.0000000E+00  0.2525252E-01  0.1157707E-05  0.0000000E+00  0.2368206E-04
  0.4545455E-01  0.0000000E+00  0.2525252E-01  0.1496444E-05  0.0000000E+00  0.2421881E-04
  0.5555556E-01  0.0000000E+00  0.2525252E-01  0.1841193E-05  0.0000000E+00  0.2489384E-04
  0.6565657E-01  0.0000000E+00  0.2525252E-01  0.2193330E-05  0.0000000E+00  0.2570990E-04
  0.7575758E-01  0.0000000E+00  0.2525252E-01  0.2554257E-05  0.0000000E+00  0.2667033E-04
  0.8585858E-01  0.0000000E+00  0.2525252E-01  0.2925399E-05  0.0000000E+00  0.2777904E-04
  0.9595960E-01  0.0000000E+00  0.2525252E-01  0.3308217E-05  0.0000000E+00  0.2904052E-04
  0.1060606E+00  0.0000000E+00  0.2525252E-01  0.3704209E-05  0.0000000E+00  0.3045991E-04
  0.1161616E+00  0.0000000E+00  0.2525252E-01  0.4114916E-05  0.0000000E+00  0.3204294E-04
  0.1262626E+00  0.0000000E+00  0.2525252E-01  0.4541935E-05  0.0000000E+00  0.3379601E-04
  0.1363636E+00  0.0000000E+00  0.2525252E-01  0.4986923E-05  0.0000000E+00  0.3572617E-04
  0.1464646E+00  0.0000000E+00  0.2525252E-01  0.5451614E-05  0.0000000E+00  0.3784120E-04
  0.1565657E+00  0.0000000E+00  0.2525252E-01  0.5937838E-05  0.0000000E+00  0.4014957E-04
  0.1666667E+00  0.0000000E+00  0.2525252E-01  0.6447541E-05  0.0000000E+00  0.4266053E-04
  0.1767677E+00  0.0000000E+00  0.2525252E-01  0.6982816E-05  0.0000000E+00  0.4538417E-04
  0.1868687E+00  0.0000000E+00  0.2525252E-01  0.7545947E-05  0.0000000E+00  0.4833143E-04
  0.1969697E+00  0.0000000E+00  0.2525252E-01  0.8139457E-05  0.0000000E+00  0.5151423E-04
  0.2070707E+00  0.0000000E+00  0.2525252E-01  0.8766181E-05  0.0000000E+00  0.5494553E-04
  0.2171717E+00  0.0000000E+00  0.2525252E-01  0.9429343E-05  0.0000000E+00  0.5863950E-04
  0.2272727E+00  0.0000000E+00  0.2525252E-01  0.1013266E-04  0.0000000E+00  0.6261170E-04
  0.2373737E+00  0.0000000E+00  0.2525252E-01  0.1088046E-04  0.0000000E+00  0.6687926E-04
  0.2474747E+00  0.0000000E+00  0.2525252E-01  0.1167776E-04  0.0000000E+00  0.7146125E-04
  0.2575758E+00  0.0000000E+00  0.2525252E-01  0.1253040E-04  0.0000000E+00  0.7637900E-04
  0.2676768E+00  0.0000000E+00  0.2525252E-01  0.1344501E-04  0.0000000E+00  0.8165661E-04
  0.2777778E+00  0.0000000E+00  0.2525252E-01  0.1442880E-04  0.0000000E+00  0.8732156E-04
  0.2878788E+00  0.0000000E+00  0.2525252E-01  0.1548903E-04  0.0000000E+00  0.9340546E-04
  0.2979798E+00  0.0000000E+00  0.2525252E-01  0.1663165E-04  0.0000000E+00  0.9994494E-04
  0.3080808E+00  0.0000000E+00  0.2525252E-01  0.1785850E-04  0.0000000E+00  0.1069828E-03
  0.3181818E+00  0.0000000E+00  0.2525252E-01  0.1916173E-04  0.0000000E+00  0.1145692E-03
  0.3282828E+00  0.0000000E+00  0.2525252E-01  0.2051285E-04  0.0000000E+00  0.1227631E-03
  0.3383838E+00  0.0000000E+00  0.2525252E-01  0.2184121E-04  0.0000000E+00  0.1316325E-03
  0.3484848E+00  0.0000000E+00  0.2525252E-01  0.2299177E-04  0.0000000E+00  0.1412491E-03
  0.3585859E+00  0.0000000E+00  0.2525252E-01  0.2364273E-04  0.0000000E+00  0.1516602E-03
  0.3686869E+00  0.0000000E+00  0.2525252E-01  0.2315056E-04  0.0000000E+00  0.1627806E-03
  0.3787879E+00  0.0000000E+00  0.2525252E-01  0.2029710E-04  0.0000000E+00  0.1740363E-03
  0.3888889E+00  0.0000000E+00  0.2525252E-01  0.1310622E-04  0.0000000E+00  0.1833977E-03
  0.3989899E+00  0.0000000E+00  0.2525252E-01  0.2510779E-06  0.0000000E+00  0.1859834E-03
  0.4090909E+00  0.0000000E+00  0.2525252E-01 -0.6440241E-05  0.0000000E+00  0.1819139E-03
  0.4191919E+00  0.0000000E+00  0.2525252E-01 -0.8382757E-05  0.0000000E+00  0.1762879E-03
  0.4292929E+00  0.0000000E+00  0.2525252E-01 -0.7665754E-05  0.0000000E+00  0.1712870E-03
  0.4393939E+00  0.0000000E+00  0.2525252E-01 -0.5590017E-05  0.0000000E+00  0.1675696E-03
  0.4494950E+00  0.0000000E+00  0.2525252E-01 -0.2832132E-05  0.0000000E+00  0.1652698E-03
  0.4595959E+00  0.0000000E+00  0.2525252E-01  0.3025792E-06  0.0000000E+00  0.1643823E-03
  0.4696970E+00  0.0000000E+00  0.2525252E-01  0.3721878E-05  0.0000000E+00  0.1648891E-03
  0.4797980E+00  0.0000000E+00  0.2525252E-01  0.7467284E-05  0.0000000E+00  0.1667981E-03
  0.4898990E+00  0.0000000E+00  0.2525252E-01  0.1168750E-04  0.0000000E+00  0.1701552E-03
  0.5000000E+00  0.0000000E+00  0.2525252E-01  0.1665068E-04  0.0000000E+00  0.1750433E-03
  0.5101010E+00  0.0000000E+00  0.2525252E-01  0.2279793E-04  0.0000000E+00  0.1815628E-03
  0.5202020E+00  0.0000000E+00  0.2525252E-01  0.3085325E-04  0.0000000E+00  0.1897592E-03
  0.5303030E+00  0.0000000E+00  0.2525252E-01  0.4201264E-04  0.0000000E+00  0.1994033E-03
  0.5404040E+00  0.0000000E+00  0.2525252E-01  0.5819020E-04  0.0000000E+00  0.2093955E-03
  0.5505050E+00  0.0000000E+00  0.2525252E-01  0.8195882E-04  0.0000000E+00  0.2164299E-03
  0.5606061E+00  0.0000000E+00  0.2525252E-01 -0.9501207E-04  0.0000000E+00  0.2137763E-03
  0.5707071E+00  0.0000000E+00  0.2525252E-01 -0.7137513E-04  0.0000000E+00  0.2014149E-03
  0.5808081E+00  0.0000000E+00  0.2525252E-01 -0.5545856E-04  0.0000000E+00  0.1860289E-03
  0.5909091E+00  0.0000000E+00  0.2525252E-01 -0.4469262E-04  0.0000000E+00  0.1708690E-03
  0.6010101E+00  0.0000000E+00  0.2525252E-01 -0.3716963E-04  0.0000000E+00  0.1569774E-03
  0.6111111E+00  0.0000000E+00  0.2525252E-01 -0.3170179E-04  0.0000000E+00  0.1445221E-03
  0.6212121E+00  0.0000000E+00  0.2525252E-01 -0.2757341E-04  0.0000000E+00  0.1333915E-03
  0.6313131E+00  0.0000000E+00  0.2525252E-01 -0.2434864E-04  0.0000000E+00  0.1234112E-03
  0.6414142E+00  0.0000000E+00  0.2525252E-01 -0.2175494E-04  0.0000000E+00  0.1144140E-03
  0.6515151E+00  0.0000000E+00  0.2525252E-01 -0.1961646E-04  0.0000000E+00  0.1062577E-03
  0.6616161E+00  0.0000000E+00  0.2525252E-01 -0.1781611E-04  0.0000000E+00  0.9882601E-04
  0.6717172E+00  0.0000000E+00  0.2525252E-01 -0.1627358E-04  0.0000000E+00  0.9202435E-04
  0.6818182E+00  0.0000000E+00  0.2525252E-01 -0.1493224E-04  0.0000000E+00  0.8577590E-04
  0.6919192E+00  0.0000000E+00  0.2525252E-01 -0.1375114E-04  0.0000000E+00  0.8001770E-04
  0.7020202E+00  0.0000000E+00  0.2525252E-01 -0.1270001E-04  0.0000000E+00  0.7469759E-04
  0.7121212E+00  0.0000000E+00  0.2525252E-01 -0.1175595E-04  0.0000000E+00  0.6977197E-04
  0.7222222E+00  0.0000000E+00  0.2525252E-01 -0.1090136E-04  0.0000000E+00  0.6520396E-04
  0.7323232E+00  0.0000000E+00  0.2525252E-01 -0.1012245E-04  0.0000000E+00  0.6096215E-04
  0.7424242E+00  0.0000000E+00  0.2525252E-01 -0.9408229E-05  0.0000000E+00  0.5701946E-04
  0.7525253E+00  0.0000000E+00  0.2525252E-01 -0.8749830E-05  0.0000000E+00  0.5335246E-04
  0.7626263E+00  0.0000000E+00  0.2525252E-01 -0.8139994E-05  0.0000000E+00  0.4994067E-04
  0.7727273E+00  0.0000000E+00  0.2525252E-01 -0.7572707E-05  0.0000000E+00  0.4676608E-04
  0.7828283E+00  0.0000000E+00  0.2525252E-01 -0.7042933E-05  0.0000000E+00  0.4381281E-04
  0.7929293E+00  0.0000000E+00  0.2525252E-01 -0.6546407E-05  0.0000000E+00  0.4106675E-04
  0.8030303E+00  0.0000000E+00  0.2525252E-01 -0.6079486E-05  0.0000000E+00  0.3851531E-04
  0.8131313E+00  0.0000000E+00  0.2525252E-01 -0.5639028E-05  0.0000000E+00  0.3614725E-04
  0.8232324E+00  0.0000000E+00  0.2525252E-01 -0.5222297E-05  0.0000000E+00  0.3395247E-04
  0.8333333E+00  0.0000000E+00  0.2525252E-01 -0.4826892E-05  0.0000000E+00  0.3192188E-04
  0.8434343E+00  0.0000000E+00  0.2525252E-01 -0.4450685E-05  0.0000000E+00  0.3004731E-04
  0.8535354E+00  0.0000000E+00  0.2525252E-01 -0.4091778E-05  0.0000000E+00  0.2832137E-04
  0.8636364E+00  0.0000000E+00  0.2525252E-01 -0.3748461E-05  0.0000000E+00  0.2673741E-04
  0.8737374E+00  0.0000000E+00  0.2525252E-01 -0.3419179E-05  0.0000000E+00  0.2528943E-04
  0.8838384E+00  0.0000000E+00  0.2525252E-01 -0.3102511E-05  0.0000000E+00  0.2397203E-04
  0.8939394E+00  0.0000000E+00  0.2525252E-01 -0.2797142E-05  0.0000000E+00  0.2278036E-04
  0.9040404E+00  0.0000000E+00  0.2525252E-01 -0.2501851E-05  0.0000000E+00  0.2171007E-04
  0.9141414E+00  0.0000000E+00  0.2525252E-01 -0.2215491E-05  0.0000000E+00  0.2075732E-04
  0.9242424E+00  0.0000000E+00  0.2525252E-01 -0.1936978E-05  0.0000000E+00  0.1991869E-04
  0.9343435E+00  0.0000000E+00  0.2525252E-01 -0.1665282E-05  0.0000000E+00  0.1919121E-04
  0.9444444E+00  0.0000000E+00  0.2525252E-01 -0.1399415E-05  0.0000000E+00  0.1857232E-04
  0.9545454E+00  0.0000000E+00  0.2525252E-01 -0.1138425E-05  0.0000000E+00  0.1805983E-04
  0.9646465E+00  0.0000000E+00  0.2525252E-01 -0.8813860E-06  0.0000000E+00  0.1765196E-04
  0.9747475E+00  0.0000000E+00  0.2525252E-01 -0.6273981E-06  0.0000000E+00  0.1734729E-04
  0.9848485E+00  0.0000000E+00  0.2525252E-01 -0.3755764E-06  0.0000000E+00  0.1714475E-04
  0.9974747E+00  0.0000000E+00  0.2525252E-01 -0.1250488E-06  0.0000000E+00  0.1704366E-04
  0.5050505E-02  0.0000000E+00  0.3535353E-01  0.2297104E-06  0.0000000E+00  0.2296976E-04
  0.1515152E-01  0.0000000E+00  0.3535353E-01  0.6900584E-06  0.0000000E+00  0.2310319E-04
  0.2525252E-01  0.0000000E+00  0.3535353E-01  0.1153193E-05  0.0000000E+00  0.2337058E-04
  0.3535353E-01  0.0000000E+00  0.3535353E-01  0.1620986E-05  0.0000000E+00  0.2377304E-04
  0.4545455E-01  0.0000000E+00  0.3535353E-01  0.2095323E-05  0.0000000E+00  0.2431222E-04
  0.5555556E-01  0.0000000E+00  0.3535353E-01  0.2578113E-05  0.0000000E+00  0.2499035E-04
  0.6565657E-01  0.0000000E+00  0.3535353E-01  0.3071290E-05  0.0000000E+00  0.2581021E-04
  0.7575758E-01  0.0000000E+00  0.3535353E-01  0.3576820E-05  0.0000000E+00  0.2677518E-04
  0.8585858E-01  0.0000000E+00  0.3535353E-01  0.4096708E-05  0.0000000E+00  0.2788923E-04
  0.9595960E-01  0.0000000E+00  0.3535353E-01  0.4633003E-05  0.0000000E+00  0.2915693E-04
  0.1060606E+00  0.0000000E+00  0.3535353E-01  0.5187805E-05  0.0000000E+00  0.3058345E-04
  0.1161616E+00  0.0000000E+00  0.3535353E-01  0.5763275E-05  0.0000000E+00  0.3217462E-04
  0.1262626E+00  0.0000000E+00  0.3535353E-01  0.6361645E-05  0.0000000E+00  0.3393691E-04
  0.1363636E+00  0.0000000E+00  0.3535353E-01  0.6985229E-05  0.0000000E+00  0.3587745E-04
  0.1464646E+00  0.0000000E+00  0.3535353E-01  0.7636444E-05  0.0000000E+00  0.3800406E-04
  0.1565657E+00  0.0000000E+00  0.3535353E-01  0.8317826E-05  0.0000000E+00  0.4032528E-04
  0.1666667E+00  0.0000000E+00  0.3535353E-01  0.9032069E-05  0.0000000E+00  0.4285041E-04
  0.1767677E+00  0.0000000E+00  0.3535353E-01  0.9782055E-05  0.0000000E+00  0.4558952E-04
  0.1868687E+00  0.0000000E+00  0.3535353E-01  0.1057091E-04  0.0000000E+00  0.4855351E-04
  0.1969697E+00  0.0000000E+00  0.3535353E-01  0.1140209E-04  0.0000000E+00  0.5175418E-04
  0.2070707E+00  0.0000000E+00  0.3535353E-01  0.1227945E-04  0.0000000E+00  0.5520433E-04
  0.2171717E+00  0.0000000E+00  0.3535353E-01  0.1320736E-04  0.0000000E+00  0.5891780E-04
  0.2272727E+00  0.0000000E+00  0.3535353E-01  0.1419087E-04  0.0000000E+00  0.6290972E-04
  0.2373737E+00  0.0000000E+00  0.3535353E-01  0.1523589E-04  0.0000000E+00  0.6719664E-04
  0.2474747E+00  0.0000000E+00  0.3535353E-01  0.1634936E-04  0.0000000E+00  0.7179690E-04
  0.2575758E+00  0.0000000E+00  0.3535353E-01  0.1753946E-04  0.0000000E+00  0.7673100E-04
  0.2676768E+00  0.0000000E+00  0.3535353E-01  0.1881576E-04  0.0000000E+00  0.8202221E-04
  0.2777778E+00  0.0000000E+00  0.3535353E-01  0.2018928E-04  0.0000000E+00  0.8769750E-04
  0.2878788E+00  0.0000000E+00  0.3535353E-01  0.2167219E-04  0.0000000E+00  0.9378874E-04
  0.2979798E+00  0.0000000E+00  0.3535353E-01  0.2327704E-04  0.0000000E+00  0.1003348E-03