title = "dataset water"
variables = "x", "y", "z", "h_w", "p_w", "s_w", "theta_w", "transp", "evap", "transp2", "transp_tot"
zone t = "Flow variables, solution time =  5.900E+01 days        " i =  100, j =  100, k =    1,  f=point
  0.0000000E+00  0.0000000E+00  0.0000000E+00 -0.1000000E+02 -0.1000000E+02  0.4298033E+00  0.1839558E+00  0.0000000E+00  0.0000000E+00  0.0000000E+00  0.0000000E+00
  0.1010101E-01  0.0000000E+00  0.0000000E+00 -0.1000000E+02 -0.1000000E+02  0.4298033E+00  0.1839558E+00  0.0000000E+00  0.0000000E+00  0.0000000E+00  0.0000000E+00
  0.2020202E-01  0.0000000E+00  0.0000000E+00 -0.1000000E+02 -0.1000000E+02  0.4298033E+00  0.1839558E+00  0.0000000E+00  0.0000000E+00  0.0000000E+00  0.0000000E+00
  0.3030303E-01  0.0000000E+00  0.0000000E+00 -0.1000000E+02 -0.1000000E+02  0.4298033E+00  0.1839558E+00  0.0000000E+00  0.0000000E+00  0.0000000E+00  0.0000000E+00
  0.4040404E-01  0.0000000E+00  0.0000000E+00 -0.1000000E+02 -0.1000000E+02  0.4298033E+00  0.1839558E+00  0.0000000E+00  0.0000000E+00  0.0000000E+00  0.0000000E+00
  0.5050505E-01  0.0000000E+00  0.0000000E+00 -0.1000000E+02 -0.1000000E+02  0.4298033E+00  0.1839558E+00  0.0000000E+00  0.0000000E+00  0.0000000E+00  0.0000000E+00
  0.6060606E-01  0.0000000E+00  0.0000000E+00 -0.1000000E+02 -0.1000000E+02  0.4298033E+00  0.1839558E+00  0.0000000E+00  0.0000000E+00  0.0000000E+00  0.0000000E+00
  0.7070707E-01  0.0000000E+00  0.0000000E+00 -0.1000000E+02 -0.1000000E+02  0.4298033E+00  0.1839558E+00  0.0000000E+00  0.0000000E+00  0.0000000E+00  0.0000000E+00
  0.8080808E-01  0.0000000E+00  0.0000000E+00 -0.1000000E+02 -0.1000000E+02  0.4298033E+00  0.1839558E+00  0.0000000E+00  0.0000000E+00  0.0000000E+00  0.0000000E+00
  0.9090909E-01  0.0000000E+00  0.0000000E+00 -0.1000000E+02 -0.1000000E+02  0.4298033E+00  0.1839558E+00  0.0000000E+00  0.0000000E+00  0.0000000E+00  0.0000000E+00
  0.1010101E+00  0.0000000E+00  0.0000000E+00 -0.1000000E+02 -0.1000000E+02  0.4298033E+00  0.1839558E+00  0.0000000E+00  0.0000000E+00  0.0000000E+00  0.0000000E+00
  0.1111111E+00  0.0000000E+00  0.0000000E+00 -0.1000000E+02 -0.1000000E+02  0.4298033E+00  0.1839558E+00  0.0000000E+00  0.0000000E+00  0.0000000E+00  0.0000000E+00
  0.1212121E+00  0.0000000E+00  0.0000000E+00 -0.1000000E+02 -0.1000000E+02  0.4298033E+00  0.1839558E+00  0.0000000E+00  0.0000000E+00  0.0000000E+00  0.0000000E+00
  0.1313131E+00  0.0000000E+00  0.0000000E+00 -0.1000000E+02 -0.1000000E+02  0.4298033E+00  0.1839558E+00  0.0000000E+00  0.0000000E+00  0.0000000E+00  0.0000000E+00
  0.1414141E+00  0.0000000E+00  0.0000000E+00 -0.1000000E+02 -0.1000000E+02  0.4298033E+00  0.1839558E+00  0.0000000E+00  0.0000000E+00  0.0000000E+00  0.0000000E+00
  0.1515152E+00  0.0000000E+00  0.0000000E+00 -0.1000000E+02 -0.1000000E+02  0.4298033E+00  0.1839558E+00  0.0000000E+00  0.0000000E+00  0.0000000E+00  0.0000000E+00
  0.1616162E+00  0.0000000E+00  0.0000000E+00 -0.1000000E+02 -0.1000000E+02  0.4298033E+00  0.1839558E+00  0.0000000E+00  0.0000000E+00  0.0000000E+00  0.0000000E+00
  0.1717172E+00  0.0000000E+00  0.0000000E+00 -0.1000000E+02 -0.1000000E+02  0.4298033E+00  0.1839558E+00  0.0000000E+00  0.0000000E+00  0.0000000E+00  0.0000000E+00
  0.1818182E+00  0.0000000E+00  0.0000000E+00 -0.1000000E+02 -0.1000000E+02  0.4298033E+00  0.1839558E+00  0.0000000E+00  0.0000000E+00  0.0000000E+00  0.0000000E+00
  0.1919192E+00  0.0000000E+00  0.0000000E+00 -0.1000000E+02 -0.1000000E+02  0.4298033E+00  0.1839558E+00  0.0000000E+00  0.0000000E+00  0.0000000E+00  0.0000000E+00
  0.2020202E+00  0.0000000E+00  0.0000000E+00 -0.1000000E+02 -0.1000000E+02  0.4298033E+00  0.1839558E+00  0.0000000E+00  0.0000000E+00  0.0000000E+00  0.0000000E+00
  0.2121212E+00  0.0000000E+00  0.0000000E+00 -0.1000000E+02 -0.1000000E+02  0.4298033E+00  0.1839558E+00  0.0000000E+00  0.0000000E+00  0.0000000E+00  0.0000000E+00
  0.2222222E+00  0.0000000E+00  0.0000000E+00 -0.1000000E+02 -0.1000000E+02  0.4298033E+00  0.1839558E+00  0.0000000E+00  0.0000000E+00  0.0000000E+00  0.0000000E+00
  0.2323232E+00  0.0000000E+00  0.0000000E+00 -0.1000000E+02 -0.1000000E+02  0.4298033E+00  0.1839558E+00  0.0000000E+00  0.0000000E+00  0.0000000E+00  0.0000000E+00
  0.2424242E+00  0.0000000E+00  0.0000000E+00 -0.1000000E+02 -0.1000000E+02  0.4298033E+00  0.1839558E+00  0.0000000E+00  0.0000000E+00  0.0000000E+00  0.0000000E+00
  0.2525253E+00  0.0000000E+00  0.0000000E+00 -0.1000000E+02 -0.1000000E+02  0.4298033E+00  0.1839558E+00  0.0000000E+00  0.0000000E+00  0.0000000E+00  0.0000000E+00
  0.2626263E+00  0.0000000E+00  0.0000000E+00 -0.1000000E+02 -0.1000000E+02  0.4298033E+00  0.1839558E+00  0.0000000E+00  0.0000000E+00  0.0000000E+00  0.0000000E+00
  0.2727273E+00  0.0000000E+00  0.0000000E+00 -0.1000000E+02 -0.1000000E+02  0.4298033E+00  0.1839558E+00  0.0000000E+00  0.0000000E+00  0.0000000E+00  0.0000000E+00
  0.2828283E+00  0.0000000E+00  0.0000000E+00 -0.1000000E+02 -0.1000000E+02  0.4298033E+00  0.1839558E+00  0.1093827E-10  0.0000000E+00  0.0000000E+00  0.1093827E-10
  0.2929293E+00  0.0000000E+00  0.0000000E+00 -0.1000000E+02 -0.1000000E+02  0.4298033E+00  0.1839558E+00  0.0000000E+00  0.0000000E+00  0.0000000E+00  0.0000000E+00
  0.3030303E+00  0.0000000E+00  0.0000000E+00 -0.1000000E+02 -0.1000000E+02  0.4298033E+00  0.1839558E+00  0.3295624E-11  0.0000000E+00  0.0000000E+00  0.3295624E-11
  0.3131313E+00  0.0000000E+00  0.0000000E+00 -0.1000000E+02 -0.1000000E+02  0.4298033E+00  0.1839558E+00  0.6591240E-11  0.0000000E+00  0.0000000E+00  0.6591240E-11
  0.3232323E+00  0.0000000E+00  0.0000000E+00 -0.1000000E+02 -0.1000000E+02  0.4298033E+00  0.1839558E+00  0.0000000E+00  0.0000000E+00  0.0000000E+00  0.0000000E+00
  0.3333333E+00  0.0000000E+00  0.0000000E+00 -0.1000000E+02 -0.1000000E+02  0.4298033E+00  0.1839558E+00  0.0000000E+00  0.0000000E+00  0.0000000E+00  0.0000000E+00
  0.3434343E+00  0.0000000E+00  0.0000000E+00 -0.1000000E+02 -0.1000000E+02  0.4298033E+00  0.1839558E+00  0.0000000E+00  0.0000000E+00  0.0000000E+00  0.0000000E+00
  0.3535354E+00  0.0000000E+00  0.0000000E+00 -0.1000000E+02 -0.1000000E+02  0.4298033E+00  0.1839558E+00  0.8058698E-11  0.0000000E+00  0.0000000E+00  0.8058698E-11
  0.3636364E+00  0.0000000E+00  0.0000000E+00 -0.1000000E+02 -0.1000000E+02  0.4298033E+00  0.1839558E+00  0.8626068E-11  0.0000000E+00  0.0000000E+00  0.8626068E-11
  0.3737374E+00  0.0000000E+00  0.0000000E+00 -0.1000000E+02 -0.1000000E+02  0.4298033E+00  0.1839558E+00  0.2969909E-11  0.0000000E+00  0.0000000E+00  0.2969909E-11
  0.3838384E+00  0.0000000E+00  0.0000000E+00 -0.1000000E+02 -0.1000000E+02  0.4298033E+00  0.1839558E+00  0.0000000E+00  0.0000000E+00  0.0000000E+00  0.0000000E+00
  0.3939394E+00  0.0000000E+00  0.0000000E+00 -0.1000000E+02 -0.1000000E+02  0.4298033E+00  0.1839558E+00  0.5047066E-10  0.0000000E+00  0.0000000E+00  0.5047066E-10
  0.4040404E+00  0.0000000E+00  0.0000000E+00 -0.1000000E+02 -0.1000000E+02  0.4298033E+00  0.1839558E+00  0.2320555E-10  0.0000000E+00  0.0000000E+00  0.2320555E-10
  0.4141414E+00  0.0000000E+00  0.0000000E+00 -0.1000000E+02 -0.1000000E+02  0.4298033E+00  0.1839558E+00  0.6744133E-11  0.0000000E+00  0.0000000E+00  0.6744133E-11
  0.4242424E+00  0.0000000E+00  0.0000000E+00 -0.1000000E+02 -0.1000000E+02  0.4298033E+00  0.1839558E+00  0.1011620E-10  0.0000000E+00  0.0000000E+00  0.1011620E-10
  0.4343434E+00  0.0000000E+00  0.0000000E+00 -0.1000000E+02 -0.1000000E+02  0.4298033E+00  0.1839558E+00  0.6744131E-11  0.0000000E+00  0.0000000E+00  0.6744131E-11
  0.4444444E+00  0.0000000E+00  0.0000000E+00 -0.1000000E+02 -0.1000000E+02  0.4298033E+00  0.1839558E+00  0.6242642E-11  0.0000000E+00  0.0000000E+00  0.6242642E-11
  0.4545455E+00  0.0000000E+00  0.0000000E+00 -0.1000000E+02 -0.1000000E+02  0.4298033E+00  0.1839558E+00  0.2854513E-10  0.0000000E+00  0.0000000E+00  0.2854513E-10
  0.4646465E+00  0.0000000E+00  0.0000000E+00 -0.1000000E+02 -0.1000000E+02  0.4298033E+00  0.1839558E+00  0.6726076E-11  0.0000000E+00  0.0000000E+00  0.6726076E-11
  0.4747475E+00  0.0000000E+00  0.0000000E+00 -0.1000000E+02 -0.1000000E+02  0.4298033E+00  0.1839558E+00  0.6726077E-11  0.0000000E+00  0.0000000E+00  0.6726077E-11
  0.4848485E+00  0.0000000E+00  0.0000000E+00 -0.1000000E+02 -0.1000000E+02  0.4298033E+00  0.1839558E+00  0.6726074E-11  0.0000000E+00  0.0000000E+00  0.6726074E-11
  0.4949495E+00  0.0000000E+00  0.0000000E+00 -0.1000000E+02 -0.1000000E+02  0.4298033E+00  0.1839558E+00  0.6726072E-11  0.0000000E+00  0.9874438E-11  0.1660051E-10
  0.5050505E+00  0.0000000E+00  0.0000000E+00 -0.1000000E+02 -0.1000000E+02  0.4298033E+00  0.1839558E+00  0.6726074E-11  0.0000000E+00  0.7036642E-11  0.1376272E-10
  0.5151515E+00  0.0000000E+00  0.0000000E+00 -0.1000000E+02 -0.1000000E+02  0.4298033E+00  0.1839558E+00  0.6726074E-11  0.0000000E+00  0.0000000E+00  0.6726074E-11
  0.5252525E+00  0.0000000E+00  0.0000000E+00 -0.1000000E+02 -0.1000000E+02  0.4298033E+00  0.1839558E+00  0.6726068E-11  0.0000000E+00  0.1208999E-10  0.1881606E-10
  0.5353535E+00  0.0000000E+00  0.0000000E+00 -0.1000000E+02 -0.1000000E+02  0.4298033E+00  0.1839558E+00  0.3363038E-11  0.0000000E+00  0.1834748E-10  0.2171051E-10
  0.5454545E+00  0.0000000E+00  0.0000000E+00 -0.1000000E+02 -0.1000000E+02  0.4298033E+00  0.1839558E+00  0.7629621E-11  0.0000000E+00  0.3506547E-11  0.1113617E-10
  0.5555556E+00  0.0000000E+00  0.0000000E+00 -0.1000000E+02 -0.1000000E+02  0.4298033E+00  0.1839558E+00  0.3814820E-11  0.0000000E+00  0.8218254E-10  0.8599736E-10
  0.5656566E+00  0.0000000E+00  0.0000000E+00 -0.1000000E+02 -0.1000000E+02  0.4298033E+00  0.1839558E+00  0.0000000E+00  0.0000000E+00  0.2921844E-10  0.2921844E-10
  0.5757576E+00  0.0000000E+00  0.0000000E+00 -0.1000000E+02 -0.1000000E+02  0.4298033E+00  0.1839558E+00  0.0000000E+00  0.0000000E+00  0.2941553E-10  0.2941553E-10
  0.5858586E+00  0.0000000E+00  0.0000000E+00 -0.1000000E+02 -0.1000000E+02  0.4298033E+00  0.1839558E+00  0.0000000E+00  0.0000000E+00  0.3212291E-10  0.3212291E-10
  0.5959596E+00  0.0000000E+00  0.0000000E+00 -0.1000000E+02 -0.1000000E+02  0.4298033E+00  0.1839558E+00  0.0000000E+00  0.0000000E+00  0.3781992E-10  0.3781992E-10
  0.6060606E+00  0.0000000E+00  0.0000000E+00 -0.1000000E+02 -0.1000000E+02  0.4298033E+00  0.1839558E+00  0.0000000E+00  0.0000000E+00  0.2562264E-10  0.2562264E-10
  0.6161616E+00  0.0000000E+00  0.0000000E+00 -0.1000000E+02 -0.1000000E+02  0.4298033E+00  0.1839558E+00  0.0000000E+00  0.0000000E+00  0.3917596E-11  0.3917596E-11
  0.6262626E+00  0.0000000E+00  0.0000000E+00 -0.1000000E+02 -0.1000000E+02  0.4298033E+00  0.1839558E+00  0.0000000E+00  0.0000000E+00  0.1660331E-10  0.1660331E-10
  0.6363636E+00  0.0000000E+00  0.0000000E+00 -0.1000000E+02 -0.1000000E+02  0.4298033E+00  0.1839558E+00  0.0000000E+00  0.0000000E+00  0.1904886E-10  0.1904886E-10
  0.6464646E+00  0.0000000E+00  0.0000000E+00 -0.1000000E+02 -0.1000000E+02  0.4298033E+00  0.1839558E+00  0.0000000E+00  0.0000000E+00  0.0000000E+00  0.0000000E+00
  0.6565657E+00  0.0000000E+00  0.0000000E+00 -0.1000000E+02 -0.1000000E+02  0.4298033E+00  0.1839558E+00  0.0000000E+00  0.0000000E+00  0.0000000E+00  0.0000000E+00
  0.6666667E+00  0.0000000E+00  0.0000000E+00 -0.1000000E+02 -0.1000000E+02  0.4298033E+00  0.1839558E+00  0.0000000E+00  0.0000000E+00  0.0000000E+00  0.0000000E+00
  0.6767677E+00  0.0000000E+00  0.0000000E+00 -0.1000000E+02 -0.1000000E+02  0.4298033E+00  0.1839558E+00  0.0000000E+00  0.0000000E+00  0.0000000E+00  0.0000000E+00
  0.6868687E+00  0.0000000E+00  0.0000000E+00 -0.1000000E+02 -0.1000000E+02  0.4298033E+00  0.1839558E+00  0.0000000E+00  0.0000000E+00  0.0000000E+00  0.0000000E+00
  0.6969697E+00  0.0000000E+00  0.0000000E+00 -0.1000000E+02 -0.1000000E+02  0.4298033E+00  0.1839558E+00  0.0000000E+00  0.0000000E+00  0.0000000E+00  0.0000000E+00
  0.7070707E+00  0.0000000E+00  0.0000000E+00 -0.1000000E+02 -0.1000000E+02  0.4298033E+00  0.1839558E+00  0.0000000E+00  0.0000000E+00  0.0000000E+00  0.0000000E+00
  0.7171717E+00  0.0000000E+00  0.0000000E+00 -0.1000000E+02 -0.1000000E+02  0.4298033E+00  0.1839558E+00  0.0000000E+00  0.0000000E+00  0.0000000E+00  0.0000000E+00
  0.7272727E+00  0.0000000E+00  0.0000000E+00 -0.1000000E+02 -0.1000000E+02  0.4298033E+00  0.1839558E+00  0.0000000E+00  0.0000000E+00  0.0000000E+00  0.0000000E+00
  0.7373737E+00  0.0000000E+00  0.0000000E+00 -0.1000000E+02 -0.1000000E+02  0.4298033E+00  0.1839558E+00  0.0000000E+00  0.0000000E+00  0.0000000E+00  0.0000000E+00
  0.7474747E+00  0.0000000E+00  0.0000000E+00 -0.1000000E+02 -0.1000000E+02  0.4298033E+00  0.1839558E+00  0.0000000E+00  0.0000000E+00  0.0000000E+00  0.0000000E+00
  0.7575758E+00  0.0000000E+00  0.0000000E+00 -0.1000000E+02 -0.1000000E+02  0.4298033E+00  0.1839558E+00  0.0000000E+00  0.0000000E+00  0.0000000E+00  0.0000000E+00
  0.7676768E+00  0.0000000E+00  0.0000000E+00 -0.1000000E+02 -0.1000000E+02  0.4298033E+00  0.1839558E+00  0.0000000E+00  0.0000000E+00  0.0000000E+00  0.0000000E+00
  0.7777778E+00  0.0000000E+00  0.0000000E+00 -0.1000000E+02 -0.1000000E+02  0.4298033E+00  0.1839558E+00  0.0000000E+00  0.0000000E+00  0.0000000E+00  0.0000000E+00
  0.7878788E+00  0.0000000E+00  0.0000000E+00 -0.1000000E+02 -0.1000000E+02  0.4298033E+00  0.1839558E+00  0.0000000E+00  0.0000000E+00  0.0000000E+00  0.0000000E+00
  0.7979798E+00  0.0000000E+00  0.0000000E+00 -0.1000000E+02 -0.1000000E+02  0.4298033E+00  0.1839558E+00  0.0000000E+00  0.0000000E+00  0.0000000E+00  0.0000000E+00
  0.8080808E+00  0.0000000E+00  0.0000000E+00 -0.1000000E+02 -0.1000000E+02  0.4298033E+00  0.1839558E+00  0.0000000E+00  0.0000000E+00  0.0000000E+00  0.0000000E+00
  0.8181818E+00  0.0000000E+00  0.0000000E+00 -0.1000000E+02 -0.1000000E+02  0.4298033E+00  0.1839558E+00  0.0000000E+00  0.0000000E+00  0.0000000E+00  0.0000000E+00
  0.8282828E+00  0.0000000E+00  0.0000000E+00 -0.1000000E+02 -0.1000000E+02  0.4298033E+00  0.1839558E+00  0.0000000E+00  0.0000000E+00  0.0000000E+00  0.0000000E+00
  0.8383838E+00  0.0000000E+00  0.0000000E+00 -0.1000000E+02 -0.1000000E+02  0.4298033E+00  0.1839558E+00  0.0000000E+00  0.0000000E+00  0.0000000E+00  0.0000000E+00
  0.8484848E+00  0.0000000E+00  0.0000000E+00 -0.1000000E+02 -0.1000000E+02  0.4298033E+00  0.1839558E+00  0.0000000E+00  0.0000000E+00  0.0000000E+00  0.0000000E+00
  0.8585859E+00  0.0000000E+00  0.0000000E+00 -0.1000000E+02 -0.1000000E+02  0.4298033E+00  0.1839558E+00  0.0000000E+00  0.0000000E+00  0.0000000E+00  0.0000000E+00
  0.8686869E+00  0.0000000E+00  0.0000000E+00 -0.1000000E+02 -0.1000000E+02  0.4298033E+00  0.1839558E+00  0.0000000E+00  0.0000000E+00  0.0000000E+00  0.0000000E+00
  0.8787879E+00  0.0000000E+00  0.0000000E+00 -0.1000000E+02 -0.1000000E+02  0.4298033E+00  0.1839558E+00  0.0000000E+00  0.0000000E+00  0.0000000E+00  0.0000000E+00
  0.8888889E+00  0.0000000E+00  0.0000000E+00 -0.1000000E+02 -0.1000000E+02  0.4298033E+00  0.1839558E+00  0.0000000E+00  0.0000000E+00  0.0000000E+00  0.0000000E+00
  0.8989899E+00  0.0000000E+00  0.0000000E+00 -0.1000000E+02 -0.1000000E+02  0.4298033E+00  0.1839558E+00  0.0000000E+00  0.0000000E+00  0.0000000E+00  0.0000000E+00
  0.9090909E+00  0.0000000E+00  0.0000000E+00 -0.1000000E+02 -0.1000000E+02  0.4298033E+00  0.1839558E+00  0.0000000E+00  0.0000000E+00  0.0000000E+00  0.0000000E+00
  0.9191919E+00  0.0000000E+00  0.0000000E+00 -0.1000000E+02 -0.1000000E+02  0.4298033E+00  0.1839558E+00  0.0000000E+00  0.0000000E+00  0.0000000E+00  0.0000000E+00
  0.9292929E+00  0.0000000E+00  0.0000000E+00 -0.1000000E+02 -0.1000000E+02  0.4298033E+00  0.1839558E+00  0.0000000E+00  0.0000000E+00  0.0000000E+00  0.0000000E+00
  0.9393939E+00  0.0000000E+00  0.0000000E+00 -0.1000000E+02 -0.1000000E+02  0.4298033E+00  0.1839558E+00  0.0000000E+00  0.0000000E+00  0.0000000E+00  0.0000000E+00
  0.9494949E+00  0.0000000E+00  0.0000000E+00 -0.1000000E+02 -0.1000000E+02  0.4298033E+00  0.1839558E+00  0.0000000E+00  0.0000000E+00  0.0000000E+00  0.0000000E+00
  0.9595960E+00  0.0000000E+00  0.0000000E+00 -0.1000000E+02 -0.1000000E+02  0.4298033E+00  0.1839558E+00  0.0000000E+00  0.0000000E+00  0.0000000E+00  0.0000000E+00
  0.9696970E+00  0.0000000E+00  0.0000000E+00 -0.1000000E+02 -0.1000000E+02  0.4298033E+00  0.1839558E+00  0.0000000E+00  0.0000000E+00  0.0000000E+00  0.0000000E+00
  0.9797980E+00  0.0000000E+00  0.0000000E+00 -0.1000000E+02 -0.1000000E+02  0.4298033E+00  0.1839558E+00  0.0000000E+00  0.0000000E+00  0.0000000E+00  0.0000000E+00
  0.9898990E+00  0.0000000E+00  0.0000000E+00 -0.1000000E+02 -0.1000000E+02  0.4298033E+00  0.1839558E+00  0.0000000E+00  0.0000000E+00  0.0000000E+00  0.0000000E+00
  0.1000000E+01  0.0000000E+00  0.0000000E+00 -0.1000000E+02 -0.1000000E+02  0.4298033E+00  0.1839558E+00  0.0000000E+00  0.0000000E+00  0.0000000E+00  0.0000000E+00
  0.0000000E+00  0.0000000E+00  0.1010101E-01 -0.1015896E+02 -0.1016906E+02  0.4276014E+00  0.1830134E+00  0.0000000E+00  0.0000000E+00  0.0000000E+00  0.0000000E+00
  0.1010101E-01  0.0000000E+00  0.1010101E-01 -0.1015924E+02 -0.1016934E+02  0.4275978E+00  0.1830119E+00  0.0000000E+00  0.0000000E+00  0.0000000E+00  0.0000000E+00
  0.2020202E-01  0.0000000E+00  0.1010101E-01 -0.1016008E+02 -0.1017018E+02  0.4275870E+00  0.1830072E+00  0.0000000E+00  0.0000000E+00  0.0000000E+00  0.0000000E+00
  0.3030303E-01  0.0000000E+00  0.1010101E-01 -0.1016148E+02 -0.1017158E+02  0.4275689E+00  0.1829995E+00  0.0000000E+00  0.0000000E+00  0.0000000E+00  0.0000000E+00
  0.4040404E-01  0.0000000E+00  0.1010101E-01 -0.1016347E+02 -0.1017357E+02  0.4275434E+00  0.1829886E+00  0.0000000E+00  0.0000000E+00  0.0000000E+00  0.0000000E+00
  0.5050505E-01  0.0000000E+00  0.1010101E-01 -0.1016606E+02 -0.1017616E+02  0.4275100E+00  0.1829743E+00  0.0000000E+00  0.0000000E+00  0.0000000E+00  0.0000000E+00
  0.6060606E-01  0.0000000E+00  0.1010101E-01 -0.1016928E+02 -0.1017938E+02  0.4274686E+00  0.1829566E+00  0.0000000E+00  0.0000000E+00  0.0000000E+00  0.0000000E+00
  0.7070707E-01  0.0000000E+00  0.1010101E-01 -0.1017317E+02 -0.1018327E+02  0.4274186E+00  0.1829352E+00  0.0000000E+00  0.0000000E+00  0.0000000E+00  0.0000000E+00
  0.8080808E-01  0.0000000E+00  0.1010101E-01 -0.1017777E+02 -0.1018787E+02  0.4273594E+00  0.1829098E+00  0.0000000E+00  0.0000000E+00  0.0000000E+00  0.0000000E+00
  0.9090909E-01  0.0000000E+00  0.1010101E-01 -0.1018316E+02 -0.1019326E+02  0.4272902E+00  0.1828802E+00  0.0000000E+00  0.0000000E+00  0.0000000E+00  0.0000000E+00
  0.1010101E+00  0.0000000E+00  0.1010101E-01 -0.1018941E+02 -0.1019951E+02  0.4272100E+00  0.1828459E+00  0.0000000E+00  0.0000000E+00  0.0000000E+00  0.0000000E+00
  0.1111111E+00  0.0000000E+00  0.1010101E-01 -0.1019663E+02 -0.1020673E+02  0.4271174E+00  0.1828062E+00  0.0000000E+00  0.0000000E+00  0.0000000E+00  0.0000000E+00
  0.1212121E+00  0.0000000E+00  0.1010101E-01 -0.1020497E+02 -0.1021507E+02  0.4270106E+00  0.1827605E+00  0.0000000E+00  0.0000000E+00  0.0000000E+00  0.0000000E+00
  0.1313131E+00  0.0000000E+00  0.1010101E-01 -0.1021465E+02 -0.1022475E+02  0.4268867E+00  0.1827075E+00  0.0000000E+00  0.0000000E+00  0.0000000E+00  0.0000000E+00
  0.1414141E+00  0.0000000E+00  0.1010101E-01 -0.1022601E+02 -0.1023611E+02  0.4267416E+00  0.1826454E+00  0.0000000E+00  0.0000000E+00  0.0000000E+00  0.0000000E+00
  0.1515152E+00  0.0000000E+00  0.1010101E-01 -0.1023968E+02 -0.1024978E+02  0.4265672E+00  0.1825708E+00  0.0000000E+00  0.0000000E+00  0.0000000E+00  0.0000000E+00
  0.1616162E+00  0.0000000E+00  0.1010101E-01 -0.1025693E+02 -0.1026703E+02  0.4263475E+00  0.1824767E+00  0.0000000E+00  0.0000000E+00  0.0000000E+00  0.0000000E+00
  0.1717172E+00  0.0000000E+00  0.1010101E-01 -0.1028087E+02 -0.1029097E+02  0.4260436E+00  0.1823466E+00  0.0000000E+00  0.0000000E+00  0.0000000E+00  0.0000000E+00
  0.1818182E+00  0.0000000E+00  0.1010101E-01 -0.1032055E+02 -0.1033065E+02  0.4255417E+00  0.1821318E+00  0.1623129E-10  0.0000000E+00  0.0000000E+00  0.1623129E-10
  0.1919192E+00  0.0000000E+00  0.1010101E-01 -0.1034251E+02 -0.1035261E+02  0.4252651E+00  0.1820135E+00  0.8108417E-11  0.0000000E+00  0.0000000E+00  0.8108417E-11
  0.2020202E+00  0.0000000E+00  0.1010101E-01 -0.1035715E+02 -0.1036725E+02  0.4250812E+00  0.1819348E+00  0.0000000E+00  0.0000000E+00  0.0000000E+00  0.0000000E+00
  0.2121212E+00  0.0000000E+00  0.1010101E-01 -0.1037549E+02 -0.1038559E+02  0.4248512E+00  0.1818363E+00  0.0000000E+00  0.0000000E+00  0.0000000E+00  0.0000000E+00
  0.2222222E+00  0.0000000E+00  0.1010101E-01 -0.1039676E+02 -0.1040686E+02  0.4245852E+00  0.1817224E+00  0.0000000E+00  0.0000000E+00  0.0000000E+00  0.0000000E+00
  0.2323232E+00  0.0000000E+00  0.1010101E-01 -0.1041970E+02 -0.1042980E+02  0.4242990E+00  0.1816000E+00  0.0000000E+00  0.0000000E+00  0.0000000E+00  0.0000000E+00
  0.2424242E+00  0.0000000E+00  0.1010101E-01 -0.1044363E+02 -0.1045373E+02  0.4240015E+00  0.1814726E+00  0.0000000E+00  0.0000000E+00  0.0000000E+00  0.0000000E+00
  0.2525253E+00  0.0000000E+00  0.1010101E-01 -0.1046931E+02 -0.1047941E+02  0.4236831E+00  0.1813364E+00  0.0000000E+00  0.0000000E+00  0.0000000E+00  0.0000000E+00
  0.2626263E+00  0.0000000E+00  0.1010101E-01 -0.1049900E+02 -0.1050910E+02  0.4233163E+00  0.1811794E+00  0.0000000E+00  0.0000000E+00  0.0000000E+00  0.0000000E+00
  0.2727273E+00  0.0000000E+00  0.1010101E-01 -0.1053649E+02 -0.1054659E+02  0.4228552E+00  0.1809820E+00  0.0000000E+00  0.0000000E+00  0.0000000E+00  0.0000000E+00
  0.2828283E+00  0.0000000E+00  0.1010101E-01 -0.1058898E+02 -0.1059908E+02  0.4222131E+00  0.1807072E+00  0.6121284E-11  0.0000000E+00  0.0000000E+00  0.6121284E-11
  0.2929293E+00  0.0000000E+00  0.1010101E-01 -0.1064465E+02 -0.1065475E+02  0.4215368E+00  0.1804178E+00  0.2130787E-10  0.0000000E+00  0.0000000E+00  0.2130787E-10
  0.3030303E+00  0.0000000E+00  0.1010101E-01 -0.1067233E+02 -0.1068243E+02  0.4212022E+00  0.1802746E+00  0.0000000E+00  0.0000000E+00  0.0000000E+00  0.0000000E+00
  0.3131313E+00  0.0000000E+00  0.1010101E-01 -0.1071939E+02 -0.1072949E+02  0.4206362E+00  0.1800323E+00  0.6401114E-11  0.0000000E+00  0.0000000E+00  0.6401114E-11
  0.3232323E+00  0.0000000E+00  0.1010101E-01 -0.1077921E+02 -0.1078931E+02  0.4199212E+00  0.1797263E+00  0.1969331E-10  0.0000000E+00  0.0000000E+00  0.1969331E-10
  0.3333333E+00  0.0000000E+00  0.1010101E-01 -0.1080791E+02 -0.1081802E+02  0.4195801E+00  0.1795803E+00  0.0000000E+00  0.0000000E+00  0.0000000E+00  0.0000000E+00
  0.3434343E+00  0.0000000E+00  0.1010101E-01 -0.1083343E+02 -0.1084353E+02  0.4192778E+00  0.1794509E+00  0.0000000E+00  0.0000000E+00  0.0000000E+00  0.0000000E+00
  0.3535354E+00  0.0000000E+00  0.1010101E-01 -0.1085521E+02 -0.1086531E+02  0.4190206E+00  0.1793408E+00  0.0000000E+00  0.0000000E+00  0.0000000E+00  0.0000000E+00
  0.3636364E+00  0.0000000E+00  0.1010101E-01 -0.1090548E+02 -0.1091558E+02  0.4184295E+00  0.1790878E+00  0.2175357E-10  0.0000000E+00  0.0000000E+00  0.2175357E-10
  0.3737374E+00  0.0000000E+00  0.1010101E-01 -0.1094553E+02 -0.1095563E+02  0.4179611E+00  0.1788873E+00  0.1034378E-10  0.0000000E+00  0.0000000E+00  0.1034378E-10
  0.3838384E+00  0.0000000E+00  0.1010101E-01 -0.1102797E+02 -0.1103807E+02  0.4170041E+00  0.1784777E+00  0.0000000E+00  0.0000000E+00  0.0000000E+00  0.0000000E+00
  0.3939394E+00  0.0000000E+00  0.1010101E-01 -0.1121571E+02 -0.1122581E+02  0.4148598E+00  0.1775600E+00  0.1141631E-09  0.0000000E+00  0.0000000E+00  0.1141631E-09
  0.4040404E+00  0.0000000E+00  0.1010101E-01 -0.1107450E+02 -0.1108460E+02  0.4164681E+00  0.1782484E+00  0.6269208E-11  0.0000000E+00  0.0000000E+00  0.6269208E-11
  0.4141414E+00  0.0000000E+00  0.1010101E-01 -0.1102348E+02 -0.1103358E+02  0.4170559E+00  0.1784999E+00  0.1936675E-10  0.0000000E+00  0.0000000E+00  0.1936675E-10
  0.4242424E+00  0.0000000E+00  0.1010101E-01 -0.1099761E+02 -0.1100771E+02  0.4173554E+00  0.1786281E+00  0.1292401E-10  0.0000000E+00  0.0000000E+00  0.1292401E-10
  0.4343434E+00  0.0000000E+00  0.1010101E-01 -0.1098541E+02 -0.1099551E+02  0.4174969E+00  0.1786887E+00  0.2396670E-10  0.0000000E+00  0.0000000E+00  0.2396670E-10
  0.4444444E+00  0.0000000E+00  0.1010101E-01 -0.1096773E+02 -0.1097783E+02  0.4177024E+00  0.1787766E+00  0.2398303E-10  0.0000000E+00  0.0000000E+00  0.2398303E-10
  0.4545455E+00  0.0000000E+00  0.1010101E-01 -0.1094232E+02 -0.1095242E+02  0.4179986E+00  0.1789034E+00  0.3190740E-10  0.0000000E+00  0.0000000E+00  0.3190740E-10
  0.4646465E+00  0.0000000E+00  0.1010101E-01 -0.1087521E+02 -0.1088531E+02  0.4187849E+00  0.1792400E+00  0.0000000E+00  0.0000000E+00  0.0000000E+00  0.0000000E+00
  0.4747475E+00  0.0000000E+00  0.1010101E-01 -0.1085329E+02 -0.1086339E+02  0.4190433E+00  0.1793505E+00  0.0000000E+00  0.0000000E+00  0.0000000E+00  0.0000000E+00
  0.4848485E+00  0.0000000E+00  0.1010101E-01 -0.1085784E+02 -0.1086794E+02  0.4189896E+00  0.1793276E+00  0.0000000E+00  0.0000000E+00  0.0000000E+00  0.0000000E+00
  0.4949495E+00  0.0000000E+00  0.1010101E-01 -0.1088624E+02 -0.1089634E+02  0.4186552E+00  0.1791844E+00  0.0000000E+00  0.0000000E+00  0.0000000E+00  0.0000000E+00
  0.5050505E+00  0.0000000E+00  0.1010101E-01 -0.1095566E+02 -0.1096576E+02  0.4178430E+00  0.1788368E+00  0.0000000E+00  0.0000000E+00  0.3527742E-10  0.3527742E-10
  0.5151515E+00  0.0000000E+00  0.1010101E-01 -0.1097274E+02 -0.1098285E+02  0.4176441E+00  0.1787517E+00  0.0000000E+00  0.0000000E+00  0.0000000E+00  0.0000000E+00
  0.5252525E+00  0.0000000E+00  0.1010101E-01 -0.1106068E+02 -0.1107078E+02  0.4166270E+00  0.1783164E+00  0.0000000E+00  0.0000000E+00  0.2317445E-10  0.2317445E-10
  0.5353535E+00  0.0000000E+00  0.1010101E-01 -0.1115273E+02 -0.1116283E+02  0.4155738E+00  0.1778656E+00  0.1457351E-10  0.0000000E+00  0.1495219E-10  0.2952570E-10
  0.5454545E+00  0.0000000E+00  0.1010101E-01 -0.1126624E+02 -0.1127634E+02  0.4142908E+00  0.1773165E+00  0.7255479E-11  0.0000000E+00  0.5114428E-10  0.5839976E-10
  0.5555556E+00  0.0000000E+00  0.1010101E-01 -0.1138645E+02 -0.1139655E+02  0.4129509E+00  0.1767430E+00  0.0000000E+00  0.0000000E+00  0.1285119E-09  0.1285119E-09
  0.5656566E+00  0.0000000E+00  0.1010101E-01 -0.1124652E+02 -0.1125662E+02  0.4145125E+00  0.1774114E+00  0.0000000E+00  0.0000000E+00  0.4509622E-10  0.4509622E-10
  0.5757576E+00  0.0000000E+00  0.1010101E-01 -0.1116736E+02 -0.1117746E+02  0.4154075E+00  0.1777944E+00  0.0000000E+00  0.0000000E+00  0.3369033E-10  0.3369033E-10
  0.5858586E+00  0.0000000E+00  0.1010101E-01 -0.1116236E+02 -0.1117246E+02  0.4154642E+00  0.1778187E+00  0.0000000E+00  0.0000000E+00  0.5155935E-10  0.5155935E-10
  0.5959596E+00  0.0000000E+00  0.1010101E-01 -0.1112128E+02 -0.1113138E+02  0.4159323E+00  0.1780190E+00  0.0000000E+00  0.0000000E+00  0.5329775E-10  0.5329775E-10
  0.6060606E+00  0.0000000E+00  0.1010101E-01 -0.1105882E+02 -0.1106892E+02  0.4166484E+00  0.1783255E+00  0.0000000E+00  0.0000000E+00  0.4126769E-10  0.4126769E-10
  0.6161616E+00  0.0000000E+00  0.1010101E-01 -0.1098655E+02 -0.1099665E+02  0.4174838E+00  0.1786830E+00  0.0000000E+00  0.0000000E+00  0.8677595E-11  0.8677595E-11
  0.6262626E+00  0.0000000E+00  0.1010101E-01 -0.1093303E+02 -0.1094313E+02  0.4181070E+00  0.1789498E+00  0.0000000E+00  0.0000000E+00  0.3058217E-10  0.3058217E-10
  0.6363636E+00  0.0000000E+00  0.1010101E-01 -0.1084838E+02 -0.1085849E+02  0.4191011E+00  0.1793753E+00  0.0000000E+00  0.0000000E+00  0.7391473E-11  0.7391473E-11
  0.6464646E+00  0.0000000E+00  0.1010101E-01 -0.1079976E+02 -0.1080986E+02  0.4196769E+00  0.1796217E+00  0.0000000E+00  0.0000000E+00  0.1426340E-10  0.1426340E-10
  0.6565657E+00  0.0000000E+00  0.1010101E-01 -0.1072574E+02 -0.1073584E+02  0.4205600E+00  0.1799997E+00  0.0000000E+00  0.0000000E+00  0.0000000E+00  0.0000000E+00
  0.6666667E+00  0.0000000E+00  0.1010101E-01 -0.1067346E+02 -0.1068356E+02  0.4211886E+00  0.1802687E+00  0.0000000E+00  0.0000000E+00  0.0000000E+00  0.0000000E+00
  0.6767677E+00  0.0000000E+00  0.1010101E-01 -0.1063803E+02 -0.1064813E+02  0.4216170E+00  0.1804521E+00  0.0000000E+00  0.0000000E+00  0.2341160E-10  0.2341160E-10
  0.6868687E+00  0.0000000E+00  0.1010101E-01 -0.1057370E+02 -0.1058380E+02  0.4223996E+00  0.1807870E+00  0.0000000E+00  0.0000000E+00  0.0000000E+00  0.0000000E+00
  0.6969697E+00  0.0000000E+00  0.1010101E-01 -0.1054039E+02 -0.1055049E+02  0.4228073E+00  0.1809615E+00  0.0000000E+00  0.0000000E+00  0.6941077E-11  0.6941077E-11
  0.7070707E+00  0.0000000E+00  0.1010101E-01 -0.1051108E+02 -0.1052118E+02  0.4231675E+00  0.1811157E+00  0.0000000E+00  0.0000000E+00  0.1389832E-10  0.1389832E-10
  0.7171717E+00  0.0000000E+00  0.1010101E-01 -0.1047060E+02 -0.1048070E+02  0.4236671E+00  0.1813295E+00  0.0000000E+00  0.0000000E+00  0.6960350E-11  0.6960350E-11
  0.7272727E+00  0.0000000E+00  0.1010101E-01 -0.1042779E+02 -0.1043790E+02  0.4241982E+00  0.1815568E+00  0.0000000E+00  0.0000000E+00  0.0000000E+00  0.0000000E+00
  0.7373737E+00  0.0000000E+00  0.1010101E-01 -0.1039366E+02 -0.1040376E+02  0.4246238E+00  0.1817390E+00  0.0000000E+00  0.0000000E+00  0.0000000E+00  0.0000000E+00
  0.7474747E+00  0.0000000E+00  0.1010101E-01 -0.1036332E+02 -0.1037343E+02  0.4250037E+00  0.1819016E+00  0.0000000E+00  0.0000000E+00  0.0000000E+00  0.0000000E+00
  0.7575758E+00  0.0000000E+00  0.1010101E-01 -0.1033593E+02 -0.1034603E+02  0.4253480E+00  0.1820489E+00  0.0000000E+00  0.0000000E+00  0.0000000E+00  0.0000000E+00
  0.7676768E+00  0.0000000E+00  0.1010101E-01 -0.1031027E+02 -0.1032037E+02  0.4256715E+00  0.1821874E+00  0.0000000E+00  0.0000000E+00  0.0000000E+00  0.0000000E+00
  0.7777778E+00  0.0000000E+00  0.1010101E-01 -0.1028550E+02 -0.1029560E+02  0.4259848E+00  0.1823215E+00  0.0000000E+00  0.0000000E+00  0.0000000E+00  0.0000000E+00
  0.7878788E+00  0.0000000E+00  0.1010101E-01 -0.1026311E+02 -0.1027321E+02  0.4262690E+00  0.1824431E+00  0.0000000E+00  0.0000000E+00  0.0000000E+00  0.0000000E+00