title = "dataset water"
variables = "x", "y", "z", "vx", "vy", "vz"
zone t = "velocities, solution time =  7.000E+00 days        " i =   99, j =   99, k =    1,  f=point
  0.5050505E-02  0.0000000E+00  0.5050505E-02  0.4597864E-12  0.0000000E+00 -0.1023607E-03
  0.1515152E-01  0.0000000E+00  0.5050505E-02 -0.1166505E-12  0.0000000E+00 -0.1023607E-03
  0.2525252E-01  0.0000000E+00  0.5050505E-02 -0.9214150E-12  0.0000000E+00 -0.1023607E-03
  0.3535353E-01  0.0000000E+00  0.5050505E-02 -0.1289487E-11  0.0000000E+00 -0.1023607E-03
  0.4545455E-01  0.0000000E+00  0.5050505E-02 -0.1423921E-11  0.0000000E+00 -0.1023607E-03
  0.5555556E-01  0.0000000E+00  0.5050505E-02 -0.1453325E-11  0.0000000E+00 -0.1023607E-03
  0.6565657E-01  0.0000000E+00  0.5050505E-02 -0.1441915E-11  0.0000000E+00 -0.1023607E-03
  0.7575758E-01  0.0000000E+00  0.5050505E-02 -0.1422092E-11  0.0000000E+00 -0.1023607E-03
  0.8585858E-01  0.0000000E+00  0.5050505E-02 -0.1399072E-11  0.0000000E+00 -0.1023607E-03
  0.9595960E-01  0.0000000E+00  0.5050505E-02 -0.1386844E-11  0.0000000E+00 -0.1023607E-03
  0.1060606E+00  0.0000000E+00  0.5050505E-02 -0.1374863E-11  0.0000000E+00 -0.1023607E-03
  0.1161616E+00  0.0000000E+00  0.5050505E-02 -0.1359490E-11  0.0000000E+00 -0.1023607E-03
  0.1262626E+00  0.0000000E+00  0.5050505E-02 -0.1330703E-11  0.0000000E+00 -0.1023607E-03
  0.1363636E+00  0.0000000E+00  0.5050505E-02 -0.1281078E-11  0.0000000E+00 -0.1023607E-03
  0.1464646E+00  0.0000000E+00  0.5050505E-02 -0.1202910E-11  0.0000000E+00 -0.1023607E-03
  0.1565657E+00  0.0000000E+00  0.5050505E-02 -0.1079049E-11  0.0000000E+00 -0.1023607E-03
  0.1666667E+00  0.0000000E+00  0.5050505E-02 -0.8952772E-12  0.0000000E+00 -0.1023607E-03
  0.1767677E+00  0.0000000E+00  0.5050505E-02 -0.6558475E-12  0.0000000E+00 -0.1023607E-03
  0.1868687E+00  0.0000000E+00  0.5050505E-02 -0.3697575E-12  0.0000000E+00 -0.1023607E-03
  0.1969697E+00  0.0000000E+00  0.5050505E-02 -0.5906572E-13  0.0000000E+00 -0.1023607E-03
  0.2070707E+00  0.0000000E+00  0.5050505E-02  0.1719620E-12  0.0000000E+00 -0.1023607E-03
  0.2171717E+00  0.0000000E+00  0.5050505E-02  0.4684969E-12  0.0000000E+00 -0.1023607E-03
  0.2272727E+00  0.0000000E+00  0.5050505E-02  0.7552523E-12  0.0000000E+00 -0.1023607E-03
  0.2373737E+00  0.0000000E+00  0.5050505E-02  0.8334988E-12  0.0000000E+00 -0.1023607E-03
  0.2474747E+00  0.0000000E+00  0.5050505E-02  0.9273410E-12  0.0000000E+00 -0.1023607E-03
  0.2575758E+00  0.0000000E+00  0.5050505E-02  0.1018050E-11  0.0000000E+00 -0.1023607E-03
  0.2676768E+00  0.0000000E+00  0.5050505E-02  0.1127038E-11  0.0000000E+00 -0.1023607E-03
  0.2777778E+00  0.0000000E+00  0.5050505E-02  0.1187870E-11  0.0000000E+00 -0.1023607E-03
  0.2878788E+00  0.0000000E+00  0.5050505E-02  0.1157566E-11  0.0000000E+00 -0.1023607E-03
  0.2979798E+00  0.0000000E+00  0.5050505E-02  0.1044046E-11  0.0000000E+00 -0.1023607E-03
  0.3080808E+00  0.0000000E+00  0.5050505E-02  0.9131841E-12  0.0000000E+00 -0.1023607E-03
  0.3181818E+00  0.0000000E+00  0.5050505E-02  0.7593234E-12  0.0000000E+00 -0.1023607E-03
  0.3282828E+00  0.0000000E+00  0.5050505E-02  0.5822784E-12  0.0000000E+00 -0.1023607E-03
  0.3383838E+00  0.0000000E+00  0.5050505E-02  0.3915961E-12  0.0000000E+00 -0.1023607E-03
  0.3484848E+00  0.0000000E+00  0.5050505E-02  0.2126370E-12  0.0000000E+00 -0.1023607E-03
  0.3585859E+00  0.0000000E+00  0.5050505E-02  0.1239772E-12  0.0000000E+00 -0.1023607E-03
  0.3686869E+00  0.0000000E+00  0.5050505E-02 -0.1595607E-12  0.0000000E+00 -0.1023607E-03
  0.3787879E+00  0.0000000E+00  0.5050505E-02 -0.2341333E-12  0.0000000E+00 -0.1023607E-03
  0.3888889E+00  0.0000000E+00  0.5050505E-02 -0.4249888E-12  0.0000000E+00 -0.1023607E-03
  0.3989899E+00  0.0000000E+00  0.5050505E-02 -0.6248379E-12  0.0000000E+00 -0.1023607E-03
  0.4090909E+00  0.0000000E+00  0.5050505E-02 -0.7793577E-12  0.0000000E+00 -0.1023607E-03
  0.4191919E+00  0.0000000E+00  0.5050505E-02 -0.1026754E-11  0.0000000E+00 -0.1023607E-03
  0.4292929E+00  0.0000000E+00  0.5050505E-02 -0.1222537E-11  0.0000000E+00 -0.1023607E-03
  0.4393939E+00  0.0000000E+00  0.5050505E-02 -0.1279010E-11  0.0000000E+00 -0.1023607E-03
  0.4494950E+00  0.0000000E+00  0.5050505E-02 -0.1286987E-11  0.0000000E+00 -0.1023607E-03
  0.4595959E+00  0.0000000E+00  0.5050505E-02 -0.1175308E-11  0.0000000E+00 -0.1023607E-03
  0.4696970E+00  0.0000000E+00  0.5050505E-02 -0.9228368E-12  0.0000000E+00 -0.1023607E-03
  0.4797980E+00  0.0000000E+00  0.5050505E-02 -0.5507511E-12  0.0000000E+00 -0.1023607E-03
  0.4898990E+00  0.0000000E+00  0.5050505E-02 -0.1162279E-12  0.0000000E+00 -0.1023607E-03
  0.5000000E+00  0.0000000E+00  0.5050505E-02  0.3923714E-12  0.0000000E+00 -0.1023607E-03
  0.5101010E+00  0.0000000E+00  0.5050505E-02  0.9406635E-12  0.0000000E+00 -0.1023607E-03
  0.5202020E+00  0.0000000E+00  0.5050505E-02  0.1191244E-11  0.0000000E+00 -0.1023607E-03
  0.5303030E+00  0.0000000E+00  0.5050505E-02  0.1345489E-11  0.0000000E+00 -0.1023607E-03
  0.5404040E+00  0.0000000E+00  0.5050505E-02  0.1404267E-11  0.0000000E+00 -0.1023607E-03
  0.5505050E+00  0.0000000E+00  0.5050505E-02  0.1436760E-11  0.0000000E+00 -0.1023607E-03
  0.5606061E+00  0.0000000E+00  0.5050505E-02  0.1456552E-11  0.0000000E+00 -0.1023607E-03
  0.5707071E+00  0.0000000E+00  0.5050505E-02  0.1449459E-11  0.0000000E+00 -0.1023607E-03
  0.5808081E+00  0.0000000E+00  0.5050505E-02  0.1439226E-11  0.0000000E+00 -0.1023607E-03
  0.5909091E+00  0.0000000E+00  0.5050505E-02  0.1429267E-11  0.0000000E+00 -0.1023607E-03
  0.6010101E+00  0.0000000E+00  0.5050505E-02  0.1407785E-11  0.0000000E+00 -0.1023607E-03
  0.6111111E+00  0.0000000E+00  0.5050505E-02  0.1355763E-11  0.0000000E+00 -0.1023607E-03
  0.6212121E+00  0.0000000E+00  0.5050505E-02  0.1254938E-11  0.0000000E+00 -0.1023607E-03
  0.6313131E+00  0.0000000E+00  0.5050505E-02  0.1086532E-11  0.0000000E+00 -0.1023607E-03
  0.6414142E+00  0.0000000E+00  0.5050505E-02  0.8348002E-12  0.0000000E+00 -0.1023607E-03
  0.6515151E+00  0.0000000E+00  0.5050505E-02  0.4940495E-12  0.0000000E+00 -0.1023607E-03
  0.6616161E+00  0.0000000E+00  0.5050505E-02  0.9346825E-13  0.0000000E+00 -0.1023607E-03
  0.6717172E+00  0.0000000E+00  0.5050505E-02 -0.3038067E-12  0.0000000E+00 -0.1023607E-03
  0.6818182E+00  0.0000000E+00  0.5050505E-02 -0.7666839E-12  0.0000000E+00 -0.1023607E-03
  0.6919192E+00  0.0000000E+00  0.5050505E-02 -0.1061721E-11  0.0000000E+00 -0.1023607E-03
  0.7020202E+00  0.0000000E+00  0.5050505E-02 -0.1232671E-11  0.0000000E+00 -0.1023607E-03
  0.7121212E+00  0.0000000E+00  0.5050505E-02 -0.1304696E-11  0.0000000E+00 -0.1023607E-03
  0.7222222E+00  0.0000000E+00  0.5050505E-02 -0.1318424E-11  0.0000000E+00 -0.1023607E-03
  0.7323232E+00  0.0000000E+00  0.5050505E-02 -0.1300276E-11  0.0000000E+00 -0.1023607E-03
  0.7424242E+00  0.0000000E+00  0.5050505E-02 -0.1282593E-11  0.0000000E+00 -0.1023607E-03
  0.7525253E+00  0.0000000E+00  0.5050505E-02 -0.1250770E-11  0.0000000E+00 -0.1023607E-03
  0.7626263E+00  0.0000000E+00  0.5050505E-02 -0.1232339E-11  0.0000000E+00 -0.1023607E-03
  0.7727273E+00  0.0000000E+00  0.5050505E-02 -0.1227945E-11  0.0000000E+00 -0.1023607E-03
  0.7828283E+00  0.0000000E+00  0.5050505E-02 -0.1206297E-11  0.0000000E+00 -0.1023607E-03
  0.7929293E+00  0.0000000E+00  0.5050505E-02 -0.1164527E-11  0.0000000E+00 -0.1023607E-03
  0.8030303E+00  0.0000000E+00  0.5050505E-02 -0.1118953E-11  0.0000000E+00 -0.1023607E-03
  0.8131313E+00  0.0000000E+00  0.5050505E-02 -0.1053065E-11  0.0000000E+00 -0.1023607E-03
  0.8232324E+00  0.0000000E+00  0.5050505E-02 -0.9326354E-12  0.0000000E+00 -0.1023607E-03
  0.8333333E+00  0.0000000E+00  0.5050505E-02 -0.7446277E-12  0.0000000E+00 -0.1023607E-03
  0.8434343E+00  0.0000000E+00  0.5050505E-02 -0.5001847E-12  0.0000000E+00 -0.1023607E-03
  0.8535354E+00  0.0000000E+00  0.5050505E-02 -0.2092462E-12  0.0000000E+00 -0.1023607E-03
  0.8636364E+00  0.0000000E+00  0.5050505E-02  0.1263581E-12  0.0000000E+00 -0.1023607E-03
  0.8737374E+00  0.0000000E+00  0.5050505E-02  0.3550492E-12  0.0000000E+00 -0.1023607E-03
  0.8838384E+00  0.0000000E+00  0.5050505E-02  0.6775677E-12  0.0000000E+00 -0.1023607E-03
  0.8939394E+00  0.0000000E+00  0.5050505E-02  0.1007413E-11  0.0000000E+00 -0.1023607E-03
  0.9040404E+00  0.0000000E+00  0.5050505E-02  0.1149096E-11  0.0000000E+00 -0.1023607E-03
  0.9141414E+00  0.0000000E+00  0.5050505E-02  0.1340290E-11  0.0000000E+00 -0.1023607E-03
  0.9242424E+00  0.0000000E+00  0.5050505E-02  0.1377073E-11  0.0000000E+00 -0.1023607E-03
  0.9343435E+00  0.0000000E+00  0.5050505E-02  0.1304651E-11  0.0000000E+00 -0.1023607E-03
  0.9444444E+00  0.0000000E+00  0.5050505E-02  0.1193785E-11  0.0000000E+00 -0.1023607E-03
  0.9545454E+00  0.0000000E+00  0.5050505E-02  0.1059215E-11  0.0000000E+00 -0.1023607E-03
  0.9646465E+00  0.0000000E+00  0.5050505E-02  0.9073236E-12  0.0000000E+00 -0.1023607E-03
  0.9747475E+00  0.0000000E+00  0.5050505E-02  0.8107751E-12  0.0000000E+00 -0.1023607E-03
  0.9848485E+00  0.0000000E+00  0.5050505E-02  0.6710671E-12  0.0000000E+00 -0.1023607E-03
  0.9974747E+00  0.0000000E+00  0.5050505E-02  0.6991042E-12  0.0000000E+00 -0.1023607E-03
  0.5050505E-02  0.0000000E+00  0.1515152E-01  0.8835316E-12  0.0000000E+00 -0.1015880E-03
  0.1515152E-01  0.0000000E+00  0.1515152E-01 -0.6147922E-12  0.0000000E+00 -0.1015880E-03
  0.2525252E-01  0.0000000E+00  0.1515152E-01 -0.2868246E-11  0.0000000E+00 -0.1015880E-03
  0.3535353E-01  0.0000000E+00  0.1515152E-01 -0.3909994E-11  0.0000000E+00 -0.1015880E-03
  0.4545455E-01  0.0000000E+00  0.1515152E-01 -0.4295892E-11  0.0000000E+00 -0.1015880E-03
  0.5555556E-01  0.0000000E+00  0.1515152E-01 -0.4378233E-11  0.0000000E+00 -0.1015880E-03
  0.6565657E-01  0.0000000E+00  0.1515152E-01 -0.4337313E-11  0.0000000E+00 -0.1015880E-03
  0.7575758E-01  0.0000000E+00  0.1515152E-01 -0.4276079E-11  0.0000000E+00 -0.1015880E-03
  0.8585858E-01  0.0000000E+00  0.1515152E-01 -0.4205101E-11  0.0000000E+00 -0.1015880E-03
  0.9595960E-01  0.0000000E+00  0.1515152E-01 -0.4164596E-11  0.0000000E+00 -0.1015880E-03
  0.1060606E+00  0.0000000E+00  0.1515152E-01 -0.4131160E-11  0.0000000E+00 -0.1015880E-03
  0.1161616E+00  0.0000000E+00  0.1515152E-01 -0.4092581E-11  0.0000000E+00 -0.1015880E-03
  0.1262626E+00  0.0000000E+00  0.1515152E-01 -0.4014262E-11  0.0000000E+00 -0.1015880E-03
  0.1363636E+00  0.0000000E+00  0.1515152E-01 -0.3865745E-11  0.0000000E+00 -0.1015880E-03
  0.1464646E+00  0.0000000E+00  0.1515152E-01 -0.3628652E-11  0.0000000E+00 -0.1015880E-03
  0.1565657E+00  0.0000000E+00  0.1515152E-01 -0.3262319E-11  0.0000000E+00 -0.1015880E-03
  0.1666667E+00  0.0000000E+00  0.1515152E-01 -0.2713175E-11  0.0000000E+00 -0.1015880E-03
  0.1767677E+00  0.0000000E+00  0.1515152E-01 -0.1982311E-11  0.0000000E+00 -0.1015880E-03
  0.1868687E+00  0.0000000E+00  0.1515152E-01 -0.1100894E-11  0.0000000E+00 -0.1015880E-03
  0.1969697E+00  0.0000000E+00  0.1515152E-01 -0.8799950E-13  0.0000000E+00 -0.1015880E-03
  0.2070707E+00  0.0000000E+00  0.1515152E-01  0.5724330E-12  0.0000000E+00 -0.1015880E-03
  0.2171717E+00  0.0000000E+00  0.1515152E-01  0.1326790E-11  0.0000000E+00 -0.1015880E-03
  0.2272727E+00  0.0000000E+00  0.1515152E-01  0.2259581E-11  0.0000000E+00 -0.1015880E-03
  0.2373737E+00  0.0000000E+00  0.1515152E-01  0.2588448E-11  0.0000000E+00 -0.1015880E-03
  0.2474747E+00  0.0000000E+00  0.1515152E-01  0.2851092E-11  0.0000000E+00 -0.1015880E-03
  0.2575758E+00  0.0000000E+00  0.1515152E-01  0.3099583E-11  0.0000000E+00 -0.1015880E-03
  0.2676768E+00  0.0000000E+00  0.1515152E-01  0.3394335E-11  0.0000000E+00 -0.1015880E-03
  0.2777778E+00  0.0000000E+00  0.1515152E-01  0.3548456E-11  0.0000000E+00 -0.1015880E-03
  0.2878788E+00  0.0000000E+00  0.1515152E-01  0.3481291E-11  0.0000000E+00 -0.1015880E-03
  0.2979798E+00  0.0000000E+00  0.1515152E-01  0.3147668E-11  0.0000000E+00 -0.1015880E-03
  0.3080808E+00  0.0000000E+00  0.1515152E-01  0.2733208E-11  0.0000000E+00 -0.1015880E-03
  0.3181818E+00  0.0000000E+00  0.1515152E-01  0.2266422E-11  0.0000000E+00 -0.1015880E-03
  0.3282828E+00  0.0000000E+00  0.1515152E-01  0.1745240E-11  0.0000000E+00 -0.1015880E-03
  0.3383838E+00  0.0000000E+00  0.1515152E-01  0.1168339E-11  0.0000000E+00 -0.1015880E-03
  0.3484848E+00  0.0000000E+00  0.1515152E-01  0.5436567E-12  0.0000000E+00 -0.1015880E-03
  0.3585859E+00  0.0000000E+00  0.1515152E-01  0.4015159E-12  0.0000000E+00 -0.1015880E-03
  0.3686869E+00  0.0000000E+00  0.1515152E-01 -0.4722707E-12  0.0000000E+00 -0.1015880E-03
  0.3787879E+00  0.0000000E+00  0.1515152E-01 -0.6809010E-12  0.0000000E+00 -0.1015880E-03
  0.3888889E+00  0.0000000E+00  0.1515152E-01 -0.1211364E-11  0.0000000E+00 -0.1015880E-03
  0.3989899E+00  0.0000000E+00  0.1515152E-01 -0.1860834E-11  0.0000000E+00 -0.1015880E-03
  0.4090909E+00  0.0000000E+00  0.1515152E-01 -0.2352677E-11  0.0000000E+00 -0.1015880E-03
  0.4191919E+00  0.0000000E+00  0.1515152E-01 -0.3044783E-11  0.0000000E+00 -0.1015880E-03
  0.4292929E+00  0.0000000E+00  0.1515152E-01 -0.3678471E-11  0.0000000E+00 -0.1015880E-03
  0.4393939E+00  0.0000000E+00  0.1515152E-01 -0.3937191E-11  0.0000000E+00 -0.1015880E-03
  0.4494950E+00  0.0000000E+00  0.1515152E-01 -0.3958236E-11  0.0000000E+00 -0.1015880E-03
  0.4595959E+00  0.0000000E+00  0.1515152E-01 -0.3603016E-11  0.0000000E+00 -0.1015880E-03
  0.4696970E+00  0.0000000E+00  0.1515152E-01 -0.2808947E-11  0.0000000E+00 -0.1015880E-03
  0.4797980E+00  0.0000000E+00  0.1515152E-01 -0.1611210E-11  0.0000000E+00 -0.1015880E-03
  0.4898990E+00  0.0000000E+00  0.1515152E-01 -0.2807398E-12  0.0000000E+00 -0.1015880E-03
  0.5000000E+00  0.0000000E+00  0.1515152E-01  0.1118275E-11  0.0000000E+00 -0.1015880E-03
  0.5101010E+00  0.0000000E+00  0.1515152E-01  0.2805858E-11  0.0000000E+00 -0.1015880E-03
  0.5202020E+00  0.0000000E+00  0.1515152E-01  0.3632760E-11  0.0000000E+00 -0.1015880E-03
  0.5303030E+00  0.0000000E+00  0.1515152E-01  0.4091808E-11  0.0000000E+00 -0.1015880E-03
  0.5404040E+00  0.0000000E+00  0.1515152E-01  0.4244385E-11  0.0000000E+00 -0.1015880E-03
  0.5505050E+00  0.0000000E+00  0.1515152E-01  0.4301608E-11  0.0000000E+00 -0.1015880E-03
  0.5606061E+00  0.0000000E+00  0.1515152E-01  0.4358106E-11  0.0000000E+00 -0.1015880E-03
  0.5707071E+00  0.0000000E+00  0.1515152E-01  0.4362190E-11  0.0000000E+00 -0.1015880E-03
  0.5808081E+00  0.0000000E+00  0.1515152E-01  0.4342420E-11  0.0000000E+00 -0.1015880E-03
  0.5909091E+00  0.0000000E+00  0.1515152E-01  0.4309511E-11  0.0000000E+00 -0.1015880E-03
  0.6010101E+00  0.0000000E+00  0.1515152E-01  0.4244373E-11  0.0000000E+00 -0.1015880E-03
  0.6111111E+00  0.0000000E+00  0.1515152E-01  0.4095554E-11  0.0000000E+00 -0.1015880E-03
  0.6212121E+00  0.0000000E+00  0.1515152E-01  0.3801824E-11  0.0000000E+00 -0.1015880E-03
  0.6313131E+00  0.0000000E+00  0.1515152E-01  0.3298152E-11  0.0000000E+00 -0.1015880E-03
  0.6414142E+00  0.0000000E+00  0.1515152E-01  0.2531619E-11  0.0000000E+00 -0.1015880E-03
  0.6515151E+00  0.0000000E+00  0.1515152E-01  0.1474152E-11  0.0000000E+00 -0.1015880E-03
  0.6616161E+00  0.0000000E+00  0.1515152E-01  0.2050983E-12  0.0000000E+00 -0.1015880E-03
  0.6717172E+00  0.0000000E+00  0.1515152E-01 -0.9432608E-12  0.0000000E+00 -0.1015880E-03
  0.6818182E+00  0.0000000E+00  0.1515152E-01 -0.2303004E-11  0.0000000E+00 -0.1015880E-03
  0.6919192E+00  0.0000000E+00  0.1515152E-01 -0.3186676E-11  0.0000000E+00 -0.1015880E-03
  0.7020202E+00  0.0000000E+00  0.1515152E-01 -0.3708917E-11  0.0000000E+00 -0.1015880E-03
  0.7121212E+00  0.0000000E+00  0.1515152E-01 -0.3934527E-11  0.0000000E+00 -0.1015880E-03
  0.7222222E+00  0.0000000E+00  0.1515152E-01 -0.3980021E-11  0.0000000E+00 -0.1015880E-03
  0.7323232E+00  0.0000000E+00  0.1515152E-01 -0.3917265E-11  0.0000000E+00 -0.1015880E-03
  0.7424242E+00  0.0000000E+00  0.1515152E-01 -0.3862974E-11  0.0000000E+00 -0.1015880E-03
  0.7525253E+00  0.0000000E+00  0.1515152E-01 -0.3768067E-11  0.0000000E+00 -0.1015880E-03
  0.7626263E+00  0.0000000E+00  0.1515152E-01 -0.3689165E-11  0.0000000E+00 -0.1015880E-03
  0.7727273E+00  0.0000000E+00  0.1515152E-01 -0.3672895E-11  0.0000000E+00 -0.1015880E-03
  0.7828283E+00  0.0000000E+00  0.1515152E-01 -0.3643733E-11  0.0000000E+00 -0.1015880E-03
  0.7929293E+00  0.0000000E+00  0.1515152E-01 -0.3536050E-11  0.0000000E+00 -0.1015880E-03
  0.8030303E+00  0.0000000E+00  0.1515152E-01 -0.3376878E-11  0.0000000E+00 -0.1015880E-03
  0.8131313E+00  0.0000000E+00  0.1515152E-01 -0.3161003E-11  0.0000000E+00 -0.1015880E-03
  0.8232324E+00  0.0000000E+00  0.1515152E-01 -0.2810630E-11  0.0000000E+00 -0.1015880E-03
  0.8333333E+00  0.0000000E+00  0.1515152E-01 -0.2259391E-11  0.0000000E+00 -0.1015880E-03
  0.8434343E+00  0.0000000E+00  0.1515152E-01 -0.1521177E-11  0.0000000E+00 -0.1015880E-03
  0.8535354E+00  0.0000000E+00  0.1515152E-01 -0.6474625E-12  0.0000000E+00 -0.1015880E-03
  0.8636364E+00  0.0000000E+00  0.1515152E-01  0.4765427E-12  0.0000000E+00 -0.1015880E-03
  0.8737374E+00  0.0000000E+00  0.1515152E-01  0.1123724E-11  0.0000000E+00 -0.1015880E-03
  0.8838384E+00  0.0000000E+00  0.1515152E-01  0.1984075E-11  0.0000000E+00 -0.1015880E-03
  0.8939394E+00  0.0000000E+00  0.1515152E-01  0.3051552E-11  0.0000000E+00 -0.1015880E-03
  0.9040404E+00  0.0000000E+00  0.1515152E-01  0.3492857E-11  0.0000000E+00 -0.1015880E-03
  0.9141414E+00  0.0000000E+00  0.1515152E-01  0.4025875E-11  0.0000000E+00 -0.1015880E-03
  0.9242424E+00  0.0000000E+00  0.1515152E-01  0.4163095E-11  0.0000000E+00 -0.1015880E-03
  0.9343435E+00  0.0000000E+00  0.1515152E-01  0.3961640E-11  0.0000000E+00 -0.1015880E-03
  0.9444444E+00  0.0000000E+00  0.1515152E-01  0.3605941E-11  0.0000000E+00 -0.1015880E-03
  0.9545454E+00  0.0000000E+00  0.1515152E-01  0.3167415E-11  0.0000000E+00 -0.1015880E-03
  0.9646465E+00  0.0000000E+00  0.1515152E-01  0.2623128E-11  0.0000000E+00 -0.1015880E-03
  0.9747475E+00  0.0000000E+00  0.1515152E-01  0.2355350E-11  0.0000000E+00 -0.1015880E-03
  0.9848485E+00  0.0000000E+00  0.1515152E-01  0.1970345E-11  0.0000000E+00 -0.1015880E-03
  0.9974747E+00  0.0000000E+00  0.1515152E-01  0.1817591E-11  0.0000000E+00 -0.1015880E-03
  0.5050505E-02  0.0000000E+00  0.2525252E-01  0.5987706E-12  0.0000000E+00 -0.1000661E-03
  0.1515152E-01  0.0000000E+00  0.2525252E-01 -0.1612812E-11  0.0000000E+00 -0.1000661E-03
  0.2525252E-01  0.0000000E+00  0.2525252E-01 -0.5068396E-11  0.0000000E+00 -0.1000661E-03
  0.3535353E-01  0.0000000E+00  0.2525252E-01 -0.6671334E-11  0.0000000E+00 -0.1000661E-03
  0.4545455E-01  0.0000000E+00  0.2525252E-01 -0.7255029E-11  0.0000000E+00 -0.1000661E-03
  0.5555556E-01  0.0000000E+00  0.2525252E-01 -0.7360956E-11  0.0000000E+00 -0.1000661E-03
  0.6565657E-01  0.0000000E+00  0.2525252E-01 -0.7266075E-11  0.0000000E+00 -0.1000661E-03
  0.7575758E-01  0.0000000E+00  0.2525252E-01 -0.7152724E-11  0.0000000E+00 -0.1000661E-03
  0.8585858E-01  0.0000000E+00  0.2525252E-01 -0.7032395E-11  0.0000000E+00 -0.1000661E-03
  0.9595960E-01  0.0000000E+00  0.2525252E-01 -0.6958372E-11  0.0000000E+00 -0.1000661E-03
  0.1060606E+00  0.0000000E+00  0.2525252E-01 -0.6904665E-11  0.0000000E+00 -0.1000661E-03
  0.1161616E+00  0.0000000E+00  0.2525252E-01 -0.6856355E-11  0.0000000E+00 -0.1000661E-03
  0.1262626E+00  0.0000000E+00  0.2525252E-01 -0.6754096E-11  0.0000000E+00 -0.1000661E-03
  0.1363636E+00  0.0000000E+00  0.2525252E-01 -0.6520458E-11  0.0000000E+00 -0.1000661E-03
  0.1464646E+00  0.0000000E+00  0.2525252E-01 -0.6114400E-11  0.0000000E+00 -0.1000661E-03
  0.1565657E+00  0.0000000E+00  0.2525252E-01 -0.5496327E-11  0.0000000E+00 -0.1000661E-03
  0.1666667E+00  0.0000000E+00  0.2525252E-01 -0.4578153E-11  0.0000000E+00 -0.1000661E-03
  0.1767677E+00  0.0000000E+00  0.2525252E-01 -0.3338606E-11  0.0000000E+00 -0.1000661E-03
  0.1868687E+00  0.0000000E+00  0.2525252E-01 -0.1882201E-11  0.0000000E+00 -0.1000661E-03
  0.1969697E+00  0.0000000E+00  0.2525252E-01  0.4410375E-13  0.0000000E+00 -0.1000661E-03
  0.2070707E+00  0.0000000E+00  0.2525252E-01  0.1223435E-11  0.0000000E+00 -0.1000661E-03
  0.2171717E+00  0.0000000E+00  0.2525252E-01  0.2074459E-11  0.0000000E+00 -0.1000661E-03
  0.2272727E+00  0.0000000E+00  0.2525252E-01  0.3645310E-11  0.0000000E+00 -0.1000661E-03
  0.2373737E+00  0.0000000E+00  0.2525252E-01  0.4559186E-11  0.0000000E+00 -0.1000661E-03
  0.2474747E+00  0.0000000E+00  0.2525252E-01  0.5014580E-11  0.0000000E+00 -0.1000661E-03
  0.2575758E+00  0.0000000E+00  0.2525252E-01  0.5278199E-11  0.0000000E+00 -0.1000661E-03
  0.2676768E+00  0.0000000E+00  0.2525252E-01  0.5710406E-11  0.0000000E+00 -0.1000661E-03
  0.2777778E+00  0.0000000E+00  0.2525252E-01  0.5898217E-11  0.0000000E+00 -0.1000661E-03
  0.2878788E+00  0.0000000E+00  0.2525252E-01  0.5817672E-11  0.0000000E+00 -0.1000661E-03
  0.2979798E+00  0.0000000E+00  0.2525252E-01  0.5278094E-11  0.0000000E+00 -0.1000661E-03
  0.3080808E+00  0.0000000E+00  0.2525252E-01  0.4522865E-11  0.0000000E+00 -0.1000661E-03
  0.3181818E+00  0.0000000E+00  0.2525252E-01  0.3691636E-11  0.0000000E+00 -0.1000661E-03
  0.3282828E+00  0.0000000E+00  0.2525252E-01  0.2839309E-11  0.0000000E+00 -0.1000661E-03
  0.3383838E+00  0.0000000E+00  0.2525252E-01  0.1983254E-11  0.0000000E+00 -0.1000661E-03
  0.3484848E+00  0.0000000E+00  0.2525252E-01  0.6739454E-12  0.0000000E+00 -0.1000661E-03
  0.3585859E+00  0.0000000E+00  0.2525252E-01  0.7624658E-12  0.0000000E+00 -0.1000661E-03
  0.3686869E+00  0.0000000E+00  0.2525252E-01 -0.7165577E-12  0.0000000E+00 -0.1000661E-03
  0.3787879E+00  0.0000000E+00  0.2525252E-01 -0.1156773E-11  0.0000000E+00 -0.1000661E-03
  0.3888889E+00  0.0000000E+00  0.2525252E-01 -0.1874710E-11  0.0000000E+00 -0.1000661E-03
  0.3989899E+00  0.0000000E+00  0.2525252E-01 -0.2903522E-11  0.0000000E+00 -0.1000661E-03
  0.4090909E+00  0.0000000E+00  0.2525252E-01 -0.3935447E-11  0.0000000E+00 -0.1000661E-03
  0.4191919E+00  0.0000000E+00  0.2525252E-01 -0.5096258E-11  0.0000000E+00 -0.1000661E-03
  0.4292929E+00  0.0000000E+00  0.2525252E-01 -0.6134525E-11  0.0000000E+00 -0.1000661E-03
  0.4393939E+00  0.0000000E+00  0.2525252E-01 -0.6780648E-11  0.0000000E+00 -0.1000661E-03
  0.4494950E+00  0.0000000E+00  0.2525252E-01 -0.6841623E-11  0.0000000E+00 -0.1000661E-03
  0.4595959E+00  0.0000000E+00  0.2525252E-01 -0.6232368E-11  0.0000000E+00 -0.1000661E-03
  0.4696970E+00  0.0000000E+00  0.2525252E-01 -0.4903878E-11  0.0000000E+00 -0.1000661E-03
  0.4797980E+00  0.0000000E+00  0.2525252E-01 -0.2722078E-11  0.0000000E+00 -0.1000661E-03
  0.4898990E+00  0.0000000E+00  0.2525252E-01 -0.2168884E-12  0.0000000E+00 -0.1000661E-03
  0.5000000E+00  0.0000000E+00  0.2525252E-01  0.1858827E-11  0.0000000E+00 -0.1000661E-03
  0.5101010E+00  0.0000000E+00  0.2525252E-01  0.4600948E-11  0.0000000E+00 -0.1000661E-03
  0.5202020E+00  0.0000000E+00  0.2525252E-01  0.6137368E-11  0.0000000E+00 -0.1000661E-03
  0.5303030E+00  0.0000000E+00  0.2525252E-01  0.6933903E-11  0.0000000E+00 -0.1000661E-03
  0.5404040E+00  0.0000000E+00  0.2525252E-01  0.7192326E-11  0.0000000E+00 -0.1000661E-03
  0.5505050E+00  0.0000000E+00  0.2525252E-01  0.7213624E-11  0.0000000E+00 -0.1000661E-03
  0.5606061E+00  0.0000000E+00  0.2525252E-01  0.7255127E-11  0.0000000E+00 -0.1000661E-03
  0.5707071E+00  0.0000000E+00  0.2525252E-01  0.7283507E-11  0.0000000E+00 -0.1000661E-03
  0.5808081E+00  0.0000000E+00  0.2525252E-01  0.7284155E-11  0.0000000E+00 -0.1000661E-03
  0.5909091E+00  0.0000000E+00  0.2525252E-01  0.7244388E-11  0.0000000E+00 -0.1000661E-03
  0.6010101E+00  0.0000000E+00  0.2525252E-01  0.7142757E-11  0.0000000E+00 -0.1000661E-03
  0.6111111E+00  0.0000000E+00  0.2525252E-01  0.6907949E-11  0.0000000E+00 -0.1000661E-03
  0.6212121E+00  0.0000000E+00  0.2525252E-01  0.6434245E-11  0.0000000E+00 -0.1000661E-03
  0.6313131E+00  0.0000000E+00  0.2525252E-01  0.5597525E-11  0.0000000E+00 -0.1000661E-03
  0.6414142E+00  0.0000000E+00  0.2525252E-01  0.4295952E-11  0.0000000E+00 -0.1000661E-03
  0.6515151E+00  0.0000000E+00  0.2525252E-01  0.2484247E-11  0.0000000E+00 -0.1000661E-03
  0.6616161E+00  0.0000000E+00  0.2525252E-01  0.1790682E-12  0.0000000E+00 -0.1000661E-03
  0.6717172E+00  0.0000000E+00  0.2525252E-01 -0.1692875E-11  0.0000000E+00 -0.1000661E-03
  0.6818182E+00  0.0000000E+00  0.2525252E-01 -0.3866964E-11  0.0000000E+00 -0.1000661E-03
  0.6919192E+00  0.0000000E+00  0.2525252E-01 -0.5318268E-11  0.0000000E+00 -0.1000661E-03
  0.7020202E+00  0.0000000E+00  0.2525252E-01 -0.6229261E-11  0.0000000E+00 -0.1000661E-03
  0.7121212E+00  0.0000000E+00  0.2525252E-01 -0.6623788E-11  0.0000000E+00 -0.1000661E-03
  0.7222222E+00  0.0000000E+00  0.2525252E-01 -0.6701745E-11  0.0000000E+00 -0.1000661E-03
  0.7323232E+00  0.0000000E+00  0.2525252E-01 -0.6574162E-11  0.0000000E+00 -0.1000661E-03
  0.7424242E+00  0.0000000E+00  0.2525252E-01 -0.6471616E-11  0.0000000E+00 -0.1000661E-03
  0.7525253E+00  0.0000000E+00  0.2525252E-01 -0.6337360E-11  0.0000000E+00 -0.1000661E-03
  0.7626263E+00  0.0000000E+00  0.2525252E-01 -0.6170773E-11  0.0000000E+00 -0.1000661E-03
  0.7727273E+00  0.0000000E+00  0.2525252E-01 -0.6093007E-11  0.0000000E+00 -0.1000661E-03
  0.7828283E+00  0.0000000E+00  0.2525252E-01 -0.6086824E-11  0.0000000E+00 -0.1000661E-03
  0.7929293E+00  0.0000000E+00  0.2525252E-01 -0.5984086E-11  0.0000000E+00 -0.1000661E-03
  0.8030303E+00  0.0000000E+00  0.2525252E-01 -0.5721376E-11  0.0000000E+00 -0.1000661E-03
  0.8131313E+00  0.0000000E+00  0.2525252E-01 -0.5313889E-11  0.0000000E+00 -0.1000661E-03
  0.8232324E+00  0.0000000E+00  0.2525252E-01 -0.4709128E-11  0.0000000E+00 -0.1000661E-03
  0.8333333E+00  0.0000000E+00  0.2525252E-01 -0.3789654E-11  0.0000000E+00 -0.1000661E-03
  0.8434343E+00  0.0000000E+00  0.2525252E-01 -0.2555904E-11  0.0000000E+00 -0.1000661E-03
  0.8535354E+00  0.0000000E+00  0.2525252E-01 -0.1228382E-11  0.0000000E+00 -0.1000661E-03
  0.8636364E+00  0.0000000E+00  0.2525252E-01  0.9756626E-12  0.0000000E+00 -0.1000661E-03
  0.8737374E+00  0.0000000E+00  0.2525252E-01  0.2138555E-11  0.0000000E+00 -0.1000661E-03
  0.8838384E+00  0.0000000E+00  0.2525252E-01  0.3245068E-11  0.0000000E+00 -0.1000661E-03
  0.8939394E+00  0.0000000E+00  0.2525252E-01  0.5091490E-11  0.0000000E+00 -0.1000661E-03
  0.9040404E+00  0.0000000E+00  0.2525252E-01  0.5990799E-11  0.0000000E+00 -0.1000661E-03
  0.9141414E+00  0.0000000E+00  0.2525252E-01  0.6750019E-11  0.0000000E+00 -0.1000661E-03
  0.9242424E+00  0.0000000E+00  0.2525252E-01  0.6972439E-11  0.0000000E+00 -0.1000661E-03
  0.9343435E+00  0.0000000E+00  0.2525252E-01  0.6678015E-11  0.0000000E+00 -0.1000661E-03
  0.9444444E+00  0.0000000E+00  0.2525252E-01  0.6080508E-11  0.0000000E+00 -0.1000661E-03
  0.9545454E+00  0.0000000E+00  0.2525252E-01  0.5383589E-11  0.0000000E+00 -0.1000661E-03
  0.9646465E+00  0.0000000E+00  0.2525252E-01  0.4200213E-11  0.0000000E+00 -0.1000661E-03
  0.9747475E+00  0.0000000E+00  0.2525252E-01  0.3560089E-11  0.0000000E+00 -0.1000661E-03
  0.9848485E+00  0.0000000E+00  0.2525252E-01  0.3004793E-11  0.0000000E+00 -0.1000661E-03
  0.9974747E+00  0.0000000E+00  0.2525252E-01  0.2707206E-11  0.0000000E+00 -0.1000661E-03
  0.5050505E-02  0.0000000E+00  0.3535353E-01 -0.5982774E-13  0.0000000E+00 -0.9782901E-04
  0.1515152E-01  0.0000000E+00  0.3535353E-01 -0.3023520E-11  0.0000000E+00 -0.9782901E-04
  0.2525252E-01  0.0000000E+00  0.3535353E-01 -0.7541384E-11  0.0000000E+00 -0.9782901E-04
  0.3535353E-01  0.0000000E+00  0.3535353E-01 -0.9627219E-11  0.0000000E+00 -0.9782901E-04
  0.4545455E-01  0.0000000E+00  0.3535353E-01 -0.1034702E-10  0.0000000E+00 -0.9782901E-04
  0.5555556E-01  0.0000000E+00  0.3535353E-01 -0.1043103E-10  0.0000000E+00 -0.9782902E-04
  0.6565657E-01  0.0000000E+00  0.3535353E-01 -0.1024460E-10  0.0000000E+00 -0.9782902E-04
  0.7575758E-01  0.0000000E+00  0.3535353E-01 -0.1005309E-10  0.0000000E+00 -0.9782902E-04
  0.8585858E-01  0.0000000E+00  0.3535353E-01 -0.9881641E-11  0.0000000E+00 -0.9782903E-04
  0.9595960E-01  0.0000000E+00  0.3535353E-01 -0.9778706E-11  0.0000000E+00 -0.9782903E-04
  0.1060606E+00  0.0000000E+00  0.3535353E-01 -0.9706048E-11  0.0000000E+00 -0.9782903E-04
  0.1161616E+00  0.0000000E+00  0.3535353E-01 -0.9652104E-11  0.0000000E+00 -0.9782904E-04
  0.1262626E+00  0.0000000E+00  0.3535353E-01 -0.9555797E-11  0.0000000E+00 -0.9782904E-04
  0.1363636E+00  0.0000000E+00  0.3535353E-01 -0.9280646E-11  0.0000000E+00 -0.9782904E-04
  0.1464646E+00  0.0000000E+00  0.3535353E-01 -0.8708693E-11  0.0000000E+00 -0.9782904E-04
  0.1565657E+00  0.0000000E+00  0.3535353E-01 -0.7792775E-11  0.0000000E+00 -0.9782905E-04
  0.1666667E+00  0.0000000E+00  0.3535353E-01 -0.6451156E-11  0.0000000E+00 -0.9782905E-04
  0.1767677E+00  0.0000000E+00  0.3535353E-01 -0.4649443E-11  0.0000000E+00 -0.9782905E-04
  0.1868687E+00  0.0000000E+00  0.3535353E-01 -0.2822239E-11  0.0000000E+00 -0.9782905E-04
  0.1969697E+00  0.0000000E+00  0.3535353E-01  0.1114529E-12  0.0000000E+00 -0.9782905E-04
  0.2070707E+00  0.0000000E+00  0.3535353E-01  0.2381727E-11  0.0000000E+00 -0.9782905E-04
  0.2171717E+00  0.0000000E+00  0.3535353E-01  0.3082228E-11  0.0000000E+00 -0.9782905E-04
  0.2272727E+00  0.0000000E+00  0.3535353E-01  0.4744175E-11  0.0000000E+00 -0.9782905E-04
  0.2373737E+00  0.0000000E+00  0.3535353E-01  0.6477378E-11  0.0000000E+00 -0.9782905E-04
  0.2474747E+00  0.0000000E+00  0.3535353E-01  0.7609471E-11  0.0000000E+00 -0.9782904E-04
  0.2575758E+00  0.0000000E+00  0.3535353E-01  0.7720144E-11  0.0000000E+00 -0.9782904E-04
  0.2676768E+00  0.0000000E+00  0.3535353E-01  0.8112463E-11  0.0000000E+00 -0.9782904E-04
  0.2777778E+00  0.0000000E+00  0.3535353E-01  0.8239898E-11  0.0000000E+00 -0.9782904E-04
  0.2878788E+00  0.0000000E+00  0.3535353E-01  0.8136076E-11  0.0000000E+00 -0.9782903E-04
  0.2979798E+00  0.0000000E+00  0.3535353E-01  0.7408969E-11  0.0000000E+00 -0.9782903E-04