title = "dataset water"
variables = "x", "y", "z", "vx", "vy", "vz"
zone t = "velocities, solution time =  2.000E+01 days        " i =   99, j =   99, k =    1,  f=point
  0.5050505E-02  0.0000000E+00  0.5050505E-02  0.2026766E-09  0.0000000E+00 -0.1786595E-04
  0.1515152E-01  0.0000000E+00  0.5050505E-02  0.6076879E-09  0.0000000E+00 -0.1786514E-04
  0.2525252E-01  0.0000000E+00  0.5050505E-02  0.1011663E-08  0.0000000E+00 -0.1786352E-04
  0.3535353E-01  0.0000000E+00  0.5050505E-02  0.1413893E-08  0.0000000E+00 -0.1786109E-04
  0.4545455E-01  0.0000000E+00  0.5050505E-02  0.1813649E-08  0.0000000E+00 -0.1785785E-04
  0.5555556E-01  0.0000000E+00  0.5050505E-02  0.2210165E-08  0.0000000E+00 -0.1785382E-04
  0.6565657E-01  0.0000000E+00  0.5050505E-02  0.2602634E-08  0.0000000E+00 -0.1784900E-04
  0.7575758E-01  0.0000000E+00  0.5050505E-02  0.2990199E-08  0.0000000E+00 -0.1784339E-04
  0.8585858E-01  0.0000000E+00  0.5050505E-02  0.3371945E-08  0.0000000E+00 -0.1783701E-04
  0.9595960E-01  0.0000000E+00  0.5050505E-02  0.3746890E-08  0.0000000E+00 -0.1782988E-04
  0.1060606E+00  0.0000000E+00  0.5050505E-02  0.4113982E-08  0.0000000E+00 -0.1782200E-04
  0.1161616E+00  0.0000000E+00  0.5050505E-02  0.4472093E-08  0.0000000E+00 -0.1781340E-04
  0.1262626E+00  0.0000000E+00  0.5050505E-02  0.4820015E-08  0.0000000E+00 -0.1780408E-04
  0.1363636E+00  0.0000000E+00  0.5050505E-02  0.5156457E-08  0.0000000E+00 -0.1779409E-04
  0.1464646E+00  0.0000000E+00  0.5050505E-02  0.5480045E-08  0.0000000E+00 -0.1778343E-04
  0.1565657E+00  0.0000000E+00  0.5050505E-02  0.5789326E-08  0.0000000E+00 -0.1777213E-04
  0.1666667E+00  0.0000000E+00  0.5050505E-02  0.6082767E-08  0.0000000E+00 -0.1776023E-04
  0.1767677E+00  0.0000000E+00  0.5050505E-02  0.6358764E-08  0.0000000E+00 -0.1774777E-04
  0.1868687E+00  0.0000000E+00  0.5050505E-02  0.6615646E-08  0.0000000E+00 -0.1773476E-04
  0.1969697E+00  0.0000000E+00  0.5050505E-02  0.6851692E-08  0.0000000E+00 -0.1772127E-04
  0.2070707E+00  0.0000000E+00  0.5050505E-02  0.7065135E-08  0.0000000E+00 -0.1770732E-04
  0.2171717E+00  0.0000000E+00  0.5050505E-02  0.7254188E-08  0.0000000E+00 -0.1769297E-04
  0.2272727E+00  0.0000000E+00  0.5050505E-02  0.7417052E-08  0.0000000E+00 -0.1767827E-04
  0.2373737E+00  0.0000000E+00  0.5050505E-02  0.7551944E-08  0.0000000E+00 -0.1766326E-04
  0.2474747E+00  0.0000000E+00  0.5050505E-02  0.7657120E-08  0.0000000E+00 -0.1764802E-04
  0.2575758E+00  0.0000000E+00  0.5050505E-02  0.7730896E-08  0.0000000E+00 -0.1763260E-04
  0.2676768E+00  0.0000000E+00  0.5050505E-02  0.7771678E-08  0.0000000E+00 -0.1761707E-04
  0.2777778E+00  0.0000000E+00  0.5050505E-02  0.7777994E-08  0.0000000E+00 -0.1760148E-04
  0.2878788E+00  0.0000000E+00  0.5050505E-02  0.7748516E-08  0.0000000E+00 -0.1758592E-04
  0.2979798E+00  0.0000000E+00  0.5050505E-02  0.7682099E-08  0.0000000E+00 -0.1757046E-04
  0.3080808E+00  0.0000000E+00  0.5050505E-02  0.7577802E-08  0.0000000E+00 -0.1755517E-04
  0.3181818E+00  0.0000000E+00  0.5050505E-02  0.7434925E-08  0.0000000E+00 -0.1754012E-04
  0.3282828E+00  0.0000000E+00  0.5050505E-02  0.7253030E-08  0.0000000E+00 -0.1752540E-04
  0.3383838E+00  0.0000000E+00  0.5050505E-02  0.7031967E-08  0.0000000E+00 -0.1751109E-04
  0.3484848E+00  0.0000000E+00  0.5050505E-02  0.6771896E-08  0.0000000E+00 -0.1749725E-04
  0.3585859E+00  0.0000000E+00  0.5050505E-02  0.6473305E-08  0.0000000E+00 -0.1748398E-04
  0.3686869E+00  0.0000000E+00  0.5050505E-02  0.6137021E-08  0.0000000E+00 -0.1747134E-04
  0.3787879E+00  0.0000000E+00  0.5050505E-02  0.5764217E-08  0.0000000E+00 -0.1745941E-04
  0.3888889E+00  0.0000000E+00  0.5050505E-02  0.5356418E-08  0.0000000E+00 -0.1744827E-04
  0.3989899E+00  0.0000000E+00  0.5050505E-02  0.4915490E-08  0.0000000E+00 -0.1743798E-04
  0.4090909E+00  0.0000000E+00  0.5050505E-02  0.4443641E-08  0.0000000E+00 -0.1742860E-04
  0.4191919E+00  0.0000000E+00  0.5050505E-02  0.3943395E-08  0.0000000E+00 -0.1742019E-04
  0.4292929E+00  0.0000000E+00  0.5050505E-02  0.3417578E-08  0.0000000E+00 -0.1741281E-04
  0.4393939E+00  0.0000000E+00  0.5050505E-02  0.2869289E-08  0.0000000E+00 -0.1740651E-04
  0.4494950E+00  0.0000000E+00  0.5050505E-02  0.2301871E-08  0.0000000E+00 -0.1740133E-04
  0.4595959E+00  0.0000000E+00  0.5050505E-02  0.1718873E-08  0.0000000E+00 -0.1739730E-04
  0.4696970E+00  0.0000000E+00  0.5050505E-02  0.1124012E-08  0.0000000E+00 -0.1739445E-04
  0.4797980E+00  0.0000000E+00  0.5050505E-02  0.5211324E-09  0.0000000E+00 -0.1739281E-04
  0.4898990E+00  0.0000000E+00  0.5050505E-02 -0.8583868E-10  0.0000000E+00 -0.1739237E-04
  0.5000000E+00  0.0000000E+00  0.5050505E-02 -0.6929364E-09  0.0000000E+00 -0.1739315E-04
  0.5101010E+00  0.0000000E+00  0.5050505E-02 -0.1296204E-08  0.0000000E+00 -0.1739514E-04
  0.5202020E+00  0.0000000E+00  0.5050505E-02 -0.1891736E-08  0.0000000E+00 -0.1739834E-04
  0.5303030E+00  0.0000000E+00  0.5050505E-02 -0.2475725E-08  0.0000000E+00 -0.1740271E-04
  0.5404040E+00  0.0000000E+00  0.5050505E-02 -0.3044503E-08  0.0000000E+00 -0.1740825E-04
  0.5505050E+00  0.0000000E+00  0.5050505E-02 -0.3594576E-08  0.0000000E+00 -0.1741490E-04
  0.5606061E+00  0.0000000E+00  0.5050505E-02 -0.4122666E-08  0.0000000E+00 -0.1742263E-04
  0.5707071E+00  0.0000000E+00  0.5050505E-02 -0.4625742E-08  0.0000000E+00 -0.1743140E-04
  0.5808081E+00  0.0000000E+00  0.5050505E-02 -0.5101042E-08  0.0000000E+00 -0.1744115E-04
  0.5909091E+00  0.0000000E+00  0.5050505E-02 -0.5546104E-08  0.0000000E+00 -0.1745182E-04
  0.6010101E+00  0.0000000E+00  0.5050505E-02 -0.5958779E-08  0.0000000E+00 -0.1746335E-04
  0.6111111E+00  0.0000000E+00  0.5050505E-02 -0.6337244E-08  0.0000000E+00 -0.1747567E-04
  0.6212121E+00  0.0000000E+00  0.5050505E-02 -0.6680012E-08  0.0000000E+00 -0.1748872E-04
  0.6313131E+00  0.0000000E+00  0.5050505E-02 -0.6985933E-08  0.0000000E+00 -0.1750241E-04
  0.6414142E+00  0.0000000E+00  0.5050505E-02 -0.7254189E-08  0.0000000E+00 -0.1751668E-04
  0.6515151E+00  0.0000000E+00  0.5050505E-02 -0.7484291E-08  0.0000000E+00 -0.1753145E-04
  0.6616161E+00  0.0000000E+00  0.5050505E-02 -0.7676063E-08  0.0000000E+00 -0.1754664E-04
  0.6717172E+00  0.0000000E+00  0.5050505E-02 -0.7829629E-08  0.0000000E+00 -0.1756218E-04
  0.6818182E+00  0.0000000E+00  0.5050505E-02 -0.7945390E-08  0.0000000E+00 -0.1757799E-04
  0.6919192E+00  0.0000000E+00  0.5050505E-02 -0.8024007E-08  0.0000000E+00 -0.1759400E-04
  0.7020202E+00  0.0000000E+00  0.5050505E-02 -0.8066369E-08  0.0000000E+00 -0.1761012E-04
  0.7121212E+00  0.0000000E+00  0.5050505E-02 -0.8073573E-08  0.0000000E+00 -0.1762630E-04
  0.7222222E+00  0.0000000E+00  0.5050505E-02 -0.8046894E-08  0.0000000E+00 -0.1764245E-04
  0.7323232E+00  0.0000000E+00  0.5050505E-02 -0.7987756E-08  0.0000000E+00 -0.1765852E-04
  0.7424242E+00  0.0000000E+00  0.5050505E-02 -0.7897704E-08  0.0000000E+00 -0.1767444E-04
  0.7525253E+00  0.0000000E+00  0.5050505E-02 -0.7778380E-08  0.0000000E+00 -0.1769015E-04
  0.7626263E+00  0.0000000E+00  0.5050505E-02 -0.7631492E-08  0.0000000E+00 -0.1770559E-04
  0.7727273E+00  0.0000000E+00  0.5050505E-02 -0.7458792E-08  0.0000000E+00 -0.1772072E-04
  0.7828283E+00  0.0000000E+00  0.5050505E-02 -0.7262051E-08  0.0000000E+00 -0.1773547E-04
  0.7929293E+00  0.0000000E+00  0.5050505E-02 -0.7043042E-08  0.0000000E+00 -0.1774981E-04
  0.8030303E+00  0.0000000E+00  0.5050505E-02 -0.6803513E-08  0.0000000E+00 -0.1776368E-04
  0.8131313E+00  0.0000000E+00  0.5050505E-02 -0.6545179E-08  0.0000000E+00 -0.1777706E-04
  0.8232324E+00  0.0000000E+00  0.5050505E-02 -0.6269700E-08  0.0000000E+00 -0.1778990E-04
  0.8333333E+00  0.0000000E+00  0.5050505E-02 -0.5978676E-08  0.0000000E+00 -0.1780218E-04
  0.8434343E+00  0.0000000E+00  0.5050505E-02 -0.5673631E-08  0.0000000E+00 -0.1781386E-04
  0.8535354E+00  0.0000000E+00  0.5050505E-02 -0.5356011E-08  0.0000000E+00 -0.1782491E-04
  0.8636364E+00  0.0000000E+00  0.5050505E-02 -0.5027174E-08  0.0000000E+00 -0.1783532E-04
  0.8737374E+00  0.0000000E+00  0.5050505E-02 -0.4688392E-08  0.0000000E+00 -0.1784505E-04
  0.8838384E+00  0.0000000E+00  0.5050505E-02 -0.4340843E-08  0.0000000E+00 -0.1785410E-04
  0.8939394E+00  0.0000000E+00  0.5050505E-02 -0.3985619E-08  0.0000000E+00 -0.1786245E-04
  0.9040404E+00  0.0000000E+00  0.5050505E-02 -0.3623721E-08  0.0000000E+00 -0.1787007E-04
  0.9141414E+00  0.0000000E+00  0.5050505E-02 -0.3256068E-08  0.0000000E+00 -0.1787697E-04
  0.9242424E+00  0.0000000E+00  0.5050505E-02 -0.2883498E-08  0.0000000E+00 -0.1788312E-04
  0.9343435E+00  0.0000000E+00  0.5050505E-02 -0.2506775E-08  0.0000000E+00 -0.1788852E-04
  0.9444444E+00  0.0000000E+00  0.5050505E-02 -0.2126596E-08  0.0000000E+00 -0.1789317E-04
  0.9545454E+00  0.0000000E+00  0.5050505E-02 -0.1743598E-08  0.0000000E+00 -0.1789704E-04
  0.9646465E+00  0.0000000E+00  0.5050505E-02 -0.1358365E-08  0.0000000E+00 -0.1790015E-04
  0.9747475E+00  0.0000000E+00  0.5050505E-02 -0.9714405E-09  0.0000000E+00 -0.1790249E-04
  0.9848485E+00  0.0000000E+00  0.5050505E-02 -0.5833315E-09  0.0000000E+00 -0.1790405E-04
  0.9974747E+00  0.0000000E+00  0.5050505E-02 -0.1945219E-09  0.0000000E+00 -0.1790483E-04
  0.5050505E-02  0.0000000E+00  0.1515152E-01  0.6097200E-09  0.0000000E+00 -0.1782736E-04
  0.1515152E-01  0.0000000E+00  0.1515152E-01  0.1828137E-08  0.0000000E+00 -0.1782654E-04
  0.2525252E-01  0.0000000E+00  0.1515152E-01  0.3043455E-08  0.0000000E+00 -0.1782490E-04
  0.3535353E-01  0.0000000E+00  0.1515152E-01  0.4253557E-08  0.0000000E+00 -0.1782244E-04
  0.4545455E-01  0.0000000E+00  0.1515152E-01  0.5456257E-08  0.0000000E+00 -0.1781917E-04
  0.5555556E-01  0.0000000E+00  0.1515152E-01  0.6649267E-08  0.0000000E+00 -0.1781509E-04
  0.6565657E-01  0.0000000E+00  0.1515152E-01  0.7830169E-08  0.0000000E+00 -0.1781021E-04
  0.7575758E-01  0.0000000E+00  0.1515152E-01  0.8996397E-08  0.0000000E+00 -0.1780454E-04
  0.8585858E-01  0.0000000E+00  0.1515152E-01  0.1014520E-07  0.0000000E+00 -0.1779809E-04
  0.9595960E-01  0.0000000E+00  0.1515152E-01  0.1127365E-07  0.0000000E+00 -0.1779087E-04
  0.1060606E+00  0.0000000E+00  0.1515152E-01  0.1237857E-07  0.0000000E+00 -0.1778290E-04
  0.1161616E+00  0.0000000E+00  0.1515152E-01  0.1345659E-07  0.0000000E+00 -0.1777420E-04
  0.1262626E+00  0.0000000E+00  0.1515152E-01  0.1450406E-07  0.0000000E+00 -0.1776477E-04
  0.1363636E+00  0.0000000E+00  0.1515152E-01  0.1551712E-07  0.0000000E+00 -0.1775465E-04
  0.1464646E+00  0.0000000E+00  0.1515152E-01  0.1649162E-07  0.0000000E+00 -0.1774386E-04
  0.1565657E+00  0.0000000E+00  0.1515152E-01  0.1742320E-07  0.0000000E+00 -0.1773243E-04
  0.1666667E+00  0.0000000E+00  0.1515152E-01  0.1830724E-07  0.0000000E+00 -0.1772038E-04
  0.1767677E+00  0.0000000E+00  0.1515152E-01  0.1913891E-07  0.0000000E+00 -0.1770776E-04
  0.1868687E+00  0.0000000E+00  0.1515152E-01  0.1991317E-07  0.0000000E+00 -0.1769459E-04
  0.1969697E+00  0.0000000E+00  0.1515152E-01  0.2062483E-07  0.0000000E+00 -0.1768091E-04
  0.2070707E+00  0.0000000E+00  0.1515152E-01  0.2126857E-07  0.0000000E+00 -0.1766678E-04
  0.2171717E+00  0.0000000E+00  0.1515152E-01  0.2183898E-07  0.0000000E+00 -0.1765224E-04
  0.2272727E+00  0.0000000E+00  0.1515152E-01  0.2233064E-07  0.0000000E+00 -0.1763734E-04
  0.2373737E+00  0.0000000E+00  0.1515152E-01  0.2273816E-07  0.0000000E+00 -0.1762213E-04
  0.2474747E+00  0.0000000E+00  0.1515152E-01  0.2305626E-07  0.0000000E+00 -0.1760668E-04
  0.2575758E+00  0.0000000E+00  0.1515152E-01  0.2327985E-07  0.0000000E+00 -0.1759104E-04
  0.2676768E+00  0.0000000E+00  0.1515152E-01  0.2340412E-07  0.0000000E+00 -0.1757528E-04
  0.2777778E+00  0.0000000E+00  0.1515152E-01  0.2342460E-07  0.0000000E+00 -0.1755947E-04
  0.2878788E+00  0.0000000E+00  0.1515152E-01  0.2333726E-07  0.0000000E+00 -0.1754369E-04
  0.2979798E+00  0.0000000E+00  0.1515152E-01  0.2313863E-07  0.0000000E+00 -0.1752799E-04
  0.3080808E+00  0.0000000E+00  0.1515152E-01  0.2282585E-07  0.0000000E+00 -0.1751247E-04
  0.3181818E+00  0.0000000E+00  0.1515152E-01  0.2239678E-07  0.0000000E+00 -0.1749720E-04
  0.3282828E+00  0.0000000E+00  0.1515152E-01  0.2185008E-07  0.0000000E+00 -0.1748225E-04
  0.3383838E+00  0.0000000E+00  0.1515152E-01  0.2118528E-07  0.0000000E+00 -0.1746771E-04
  0.3484848E+00  0.0000000E+00  0.1515152E-01  0.2040285E-07  0.0000000E+00 -0.1745366E-04
  0.3585859E+00  0.0000000E+00  0.1515152E-01  0.1950422E-07  0.0000000E+00 -0.1744018E-04
  0.3686869E+00  0.0000000E+00  0.1515152E-01  0.1849189E-07  0.0000000E+00 -0.1742734E-04
  0.3787879E+00  0.0000000E+00  0.1515152E-01  0.1736938E-07  0.0000000E+00 -0.1741522E-04
  0.3888889E+00  0.0000000E+00  0.1515152E-01  0.1614127E-07  0.0000000E+00 -0.1740389E-04
  0.3989899E+00  0.0000000E+00  0.1515152E-01  0.1481320E-07  0.0000000E+00 -0.1739343E-04
  0.4090909E+00  0.0000000E+00  0.1515152E-01  0.1339180E-07  0.0000000E+00 -0.1738390E-04
  0.4191919E+00  0.0000000E+00  0.1515152E-01  0.1188471E-07  0.0000000E+00 -0.1737535E-04
  0.4292929E+00  0.0000000E+00  0.1515152E-01  0.1030043E-07  0.0000000E+00 -0.1736785E-04
  0.4393939E+00  0.0000000E+00  0.1515152E-01  0.8648326E-08  0.0000000E+00 -0.1736144E-04
  0.4494950E+00  0.0000000E+00  0.1515152E-01  0.6938482E-08  0.0000000E+00 -0.1735617E-04
  0.4595959E+00  0.0000000E+00  0.1515152E-01  0.5181611E-08  0.0000000E+00 -0.1735207E-04
  0.4696970E+00  0.0000000E+00  0.1515152E-01  0.3388935E-08  0.0000000E+00 -0.1734918E-04
  0.4797980E+00  0.0000000E+00  0.1515152E-01  0.1572059E-08  0.0000000E+00 -0.1734750E-04
  0.4898990E+00  0.0000000E+00  0.1515152E-01 -0.2571627E-09  0.0000000E+00 -0.1734705E-04
  0.5000000E+00  0.0000000E+00  0.1515152E-01 -0.2086759E-08  0.0000000E+00 -0.1734784E-04
  0.5101010E+00  0.0000000E+00  0.1515152E-01 -0.3904785E-08  0.0000000E+00 -0.1734986E-04
  0.5202020E+00  0.0000000E+00  0.1515152E-01 -0.5699454E-08  0.0000000E+00 -0.1735311E-04
  0.5303030E+00  0.0000000E+00  0.1515152E-01 -0.7459272E-08  0.0000000E+00 -0.1735755E-04
  0.5404040E+00  0.0000000E+00  0.1515152E-01 -0.9173165E-08  0.0000000E+00 -0.1736317E-04
  0.5505050E+00  0.0000000E+00  0.1515152E-01 -0.1083059E-07  0.0000000E+00 -0.1736993E-04
  0.5606061E+00  0.0000000E+00  0.1515152E-01 -0.1242167E-07  0.0000000E+00 -0.1737779E-04
  0.5707071E+00  0.0000000E+00  0.1515152E-01 -0.1393724E-07  0.0000000E+00 -0.1738670E-04
  0.5808081E+00  0.0000000E+00  0.1515152E-01 -0.1536899E-07  0.0000000E+00 -0.1739660E-04
  0.5909091E+00  0.0000000E+00  0.1515152E-01 -0.1670948E-07  0.0000000E+00 -0.1740744E-04
  0.6010101E+00  0.0000000E+00  0.1515152E-01 -0.1795225E-07  0.0000000E+00 -0.1741915E-04
  0.6111111E+00  0.0000000E+00  0.1515152E-01 -0.1909180E-07  0.0000000E+00 -0.1743166E-04
  0.6212121E+00  0.0000000E+00  0.1515152E-01 -0.2012367E-07  0.0000000E+00 -0.1744491E-04
  0.6313131E+00  0.0000000E+00  0.1515152E-01 -0.2104438E-07  0.0000000E+00 -0.1745881E-04
  0.6414142E+00  0.0000000E+00  0.1515152E-01 -0.2185150E-07  0.0000000E+00 -0.1747330E-04
  0.6515151E+00  0.0000000E+00  0.1515152E-01 -0.2254356E-07  0.0000000E+00 -0.1748830E-04
  0.6616161E+00  0.0000000E+00  0.1515152E-01 -0.2312006E-07  0.0000000E+00 -0.1750372E-04
  0.6717172E+00  0.0000000E+00  0.1515152E-01 -0.2358138E-07  0.0000000E+00 -0.1751948E-04
  0.6818182E+00  0.0000000E+00  0.1515152E-01 -0.2392875E-07  0.0000000E+00 -0.1753553E-04
  0.6919192E+00  0.0000000E+00  0.1515152E-01 -0.2416419E-07  0.0000000E+00 -0.1755176E-04
  0.7020202E+00  0.0000000E+00  0.1515152E-01 -0.2429040E-07  0.0000000E+00 -0.1756812E-04
  0.7121212E+00  0.0000000E+00  0.1515152E-01 -0.2431071E-07  0.0000000E+00 -0.1758452E-04
  0.7222222E+00  0.0000000E+00  0.1515152E-01 -0.2422898E-07  0.0000000E+00 -0.1760090E-04
  0.7323232E+00  0.0000000E+00  0.1515152E-01 -0.2404952E-07  0.0000000E+00 -0.1761719E-04
  0.7424242E+00  0.0000000E+00  0.1515152E-01 -0.2377701E-07  0.0000000E+00 -0.1763333E-04
  0.7525253E+00  0.0000000E+00  0.1515152E-01 -0.2341640E-07  0.0000000E+00 -0.1764925E-04
  0.7626263E+00  0.0000000E+00  0.1515152E-01 -0.2297288E-07  0.0000000E+00 -0.1766490E-04
  0.7727273E+00  0.0000000E+00  0.1515152E-01 -0.2245172E-07  0.0000000E+00 -0.1768022E-04
  0.7828283E+00  0.0000000E+00  0.1515152E-01 -0.2185829E-07  0.0000000E+00 -0.1769516E-04
  0.7929293E+00  0.0000000E+00  0.1515152E-01 -0.2119791E-07  0.0000000E+00 -0.1770968E-04
  0.8030303E+00  0.0000000E+00  0.1515152E-01 -0.2047589E-07  0.0000000E+00 -0.1772373E-04
  0.8131313E+00  0.0000000E+00  0.1515152E-01 -0.1969737E-07  0.0000000E+00 -0.1773728E-04
  0.8232324E+00  0.0000000E+00  0.1515152E-01 -0.1886737E-07  0.0000000E+00 -0.1775028E-04
  0.8333333E+00  0.0000000E+00  0.1515152E-01 -0.1799072E-07  0.0000000E+00 -0.1776270E-04
  0.8434343E+00  0.0000000E+00  0.1515152E-01 -0.1707200E-07  0.0000000E+00 -0.1777452E-04
  0.8535354E+00  0.0000000E+00  0.1515152E-01 -0.1611556E-07  0.0000000E+00 -0.1778570E-04
  0.8636364E+00  0.0000000E+00  0.1515152E-01 -0.1512549E-07  0.0000000E+00 -0.1779623E-04
  0.8737374E+00  0.0000000E+00  0.1515152E-01 -0.1410562E-07  0.0000000E+00 -0.1780608E-04
  0.8838384E+00  0.0000000E+00  0.1515152E-01 -0.1305949E-07  0.0000000E+00 -0.1781523E-04
  0.8939394E+00  0.0000000E+00  0.1515152E-01 -0.1199038E-07  0.0000000E+00 -0.1782367E-04
  0.9040404E+00  0.0000000E+00  0.1515152E-01 -0.1090130E-07  0.0000000E+00 -0.1783139E-04
  0.9141414E+00  0.0000000E+00  0.1515152E-01 -0.9795001E-08  0.0000000E+00 -0.1783836E-04
  0.9242424E+00  0.0000000E+00  0.1515152E-01 -0.8674002E-08  0.0000000E+00 -0.1784458E-04
  0.9343435E+00  0.0000000E+00  0.1515152E-01 -0.7540592E-08  0.0000000E+00 -0.1785004E-04
  0.9444444E+00  0.0000000E+00  0.1515152E-01 -0.6396856E-08  0.0000000E+00 -0.1785473E-04
  0.9545454E+00  0.0000000E+00  0.1515152E-01 -0.5244702E-08  0.0000000E+00 -0.1785866E-04
  0.9646465E+00  0.0000000E+00  0.1515152E-01 -0.4085878E-08  0.0000000E+00 -0.1786180E-04
  0.9747475E+00  0.0000000E+00  0.1515152E-01 -0.2922003E-08  0.0000000E+00 -0.1786416E-04
  0.9848485E+00  0.0000000E+00  0.1515152E-01 -0.1754595E-08  0.0000000E+00 -0.1786573E-04
  0.9974747E+00  0.0000000E+00  0.1515152E-01 -0.5850975E-09  0.0000000E+00 -0.1786652E-04
  0.5050505E-02  0.0000000E+00  0.2525252E-01  0.1022432E-08  0.0000000E+00 -0.1775039E-04
  0.1515152E-01  0.0000000E+00  0.2525252E-01  0.3065599E-08  0.0000000E+00 -0.1774955E-04
  0.2525252E-01  0.0000000E+00  0.2525252E-01  0.5103634E-08  0.0000000E+00 -0.1774787E-04
  0.3535353E-01  0.0000000E+00  0.2525252E-01  0.7133029E-08  0.0000000E+00 -0.1774536E-04
  0.4545455E-01  0.0000000E+00  0.2525252E-01  0.9150157E-08  0.0000000E+00 -0.1774202E-04
  0.5555556E-01  0.0000000E+00  0.2525252E-01  0.1115122E-07  0.0000000E+00 -0.1773784E-04
  0.6565657E-01  0.0000000E+00  0.2525252E-01  0.1313221E-07  0.0000000E+00 -0.1773286E-04
  0.7575758E-01  0.0000000E+00  0.2525252E-01  0.1508884E-07  0.0000000E+00 -0.1772706E-04
  0.8585858E-01  0.0000000E+00  0.2525252E-01  0.1701656E-07  0.0000000E+00 -0.1772046E-04
  0.9595960E-01  0.0000000E+00  0.2525252E-01  0.1891045E-07  0.0000000E+00 -0.1771307E-04
  0.1060606E+00  0.0000000E+00  0.2525252E-01  0.2076524E-07  0.0000000E+00 -0.1770492E-04
  0.1161616E+00  0.0000000E+00  0.2525252E-01  0.2257528E-07  0.0000000E+00 -0.1769601E-04
  0.1262626E+00  0.0000000E+00  0.2525252E-01  0.2433449E-07  0.0000000E+00 -0.1768636E-04
  0.1363636E+00  0.0000000E+00  0.2525252E-01  0.2603637E-07  0.0000000E+00 -0.1767600E-04
  0.1464646E+00  0.0000000E+00  0.2525252E-01  0.2767400E-07  0.0000000E+00 -0.1766494E-04
  0.1565657E+00  0.0000000E+00  0.2525252E-01  0.2924003E-07  0.0000000E+00 -0.1765323E-04
  0.1666667E+00  0.0000000E+00  0.2525252E-01  0.3072673E-07  0.0000000E+00 -0.1764088E-04
  0.1767677E+00  0.0000000E+00  0.2525252E-01  0.3212595E-07  0.0000000E+00 -0.1762794E-04
  0.1868687E+00  0.0000000E+00  0.2525252E-01  0.3342923E-07  0.0000000E+00 -0.1761443E-04
  0.1969697E+00  0.0000000E+00  0.2525252E-01  0.3462782E-07  0.0000000E+00 -0.1760041E-04
  0.2070707E+00  0.0000000E+00  0.2525252E-01  0.3571275E-07  0.0000000E+00 -0.1758591E-04
  0.2171717E+00  0.0000000E+00  0.2525252E-01  0.3667489E-07  0.0000000E+00 -0.1757098E-04
  0.2272727E+00  0.0000000E+00  0.2525252E-01  0.3750508E-07  0.0000000E+00 -0.1755568E-04
  0.2373737E+00  0.0000000E+00  0.2525252E-01  0.3819420E-07  0.0000000E+00 -0.1754006E-04
  0.2474747E+00  0.0000000E+00  0.2525252E-01  0.3873333E-07  0.0000000E+00 -0.1752418E-04
  0.2575758E+00  0.0000000E+00  0.2525252E-01  0.3911383E-07  0.0000000E+00 -0.1750811E-04
  0.2676768E+00  0.0000000E+00  0.2525252E-01  0.3932752E-07  0.0000000E+00 -0.1749190E-04
  0.2777778E+00  0.0000000E+00  0.2525252E-01  0.3936681E-07  0.0000000E+00 -0.1747564E-04
  0.2878788E+00  0.0000000E+00  0.2525252E-01  0.3922486E-07  0.0000000E+00 -0.1745939E-04
  0.2979798E+00  0.0000000E+00  0.2525252E-01  0.3889572E-07  0.0000000E+00 -0.1744324E-04
  0.3080808E+00  0.0000000E+00  0.2525252E-01  0.3837452E-07  0.0000000E+00 -0.1742725E-04
  0.3181818E+00  0.0000000E+00  0.2525252E-01  0.3765756E-07  0.0000000E+00 -0.1741152E-04
  0.3282828E+00  0.0000000E+00  0.2525252E-01  0.3674252E-07  0.0000000E+00 -0.1739612E-04
  0.3383838E+00  0.0000000E+00  0.2525252E-01  0.3562852E-07  0.0000000E+00 -0.1738113E-04
  0.3484848E+00  0.0000000E+00  0.2525252E-01  0.3431628E-07  0.0000000E+00 -0.1736664E-04
  0.3585859E+00  0.0000000E+00  0.2525252E-01  0.3280819E-07  0.0000000E+00 -0.1735274E-04
  0.3686869E+00  0.0000000E+00  0.2525252E-01  0.3110837E-07  0.0000000E+00 -0.1733949E-04
  0.3787879E+00  0.0000000E+00  0.2525252E-01  0.2922272E-07  0.0000000E+00 -0.1732698E-04
  0.3888889E+00  0.0000000E+00  0.2525252E-01  0.2715893E-07  0.0000000E+00 -0.1731529E-04
  0.3989899E+00  0.0000000E+00  0.2525252E-01  0.2492647E-07  0.0000000E+00 -0.1730449E-04
  0.4090909E+00  0.0000000E+00  0.2525252E-01  0.2253654E-07  0.0000000E+00 -0.1729464E-04
  0.4191919E+00  0.0000000E+00  0.2525252E-01  0.2000196E-07  0.0000000E+00 -0.1728581E-04
  0.4292929E+00  0.0000000E+00  0.2525252E-01  0.1733711E-07  0.0000000E+00 -0.1727806E-04
  0.4393939E+00  0.0000000E+00  0.2525252E-01  0.1455776E-07  0.0000000E+00 -0.1727144E-04
  0.4494950E+00  0.0000000E+00  0.2525252E-01  0.1168095E-07  0.0000000E+00 -0.1726599E-04
  0.4595959E+00  0.0000000E+00  0.2525252E-01  0.8724747E-08  0.0000000E+00 -0.1726175E-04
  0.4696970E+00  0.0000000E+00  0.2525252E-01  0.5708108E-08  0.0000000E+00 -0.1725875E-04
  0.4797980E+00  0.0000000E+00  0.2525252E-01  0.2650628E-08  0.0000000E+00 -0.1725701E-04
  0.4898990E+00  0.0000000E+00  0.2525252E-01 -0.4276740E-09  0.0000000E+00 -0.1725654E-04
  0.5000000E+00  0.0000000E+00  0.2525252E-01 -0.3506586E-08  0.0000000E+00 -0.1725735E-04
  0.5101010E+00  0.0000000E+00  0.2525252E-01 -0.6565935E-08  0.0000000E+00 -0.1725944E-04
  0.5202020E+00  0.0000000E+00  0.2525252E-01 -0.9585824E-08  0.0000000E+00 -0.1726278E-04
  0.5303030E+00  0.0000000E+00  0.2525252E-01 -0.1254685E-07  0.0000000E+00 -0.1726737E-04
  0.5404040E+00  0.0000000E+00  0.2525252E-01 -0.1543032E-07  0.0000000E+00 -0.1727317E-04
  0.5505050E+00  0.0000000E+00  0.2525252E-01 -0.1821845E-07  0.0000000E+00 -0.1728014E-04
  0.5606061E+00  0.0000000E+00  0.2525252E-01 -0.2089456E-07  0.0000000E+00 -0.1728824E-04
  0.5707071E+00  0.0000000E+00  0.2525252E-01 -0.2344322E-07  0.0000000E+00 -0.1729743E-04
  0.5808081E+00  0.0000000E+00  0.2525252E-01 -0.2585042E-07  0.0000000E+00 -0.1730765E-04
  0.5909091E+00  0.0000000E+00  0.2525252E-01 -0.2810364E-07  0.0000000E+00 -0.1731882E-04
  0.6010101E+00  0.0000000E+00  0.2525252E-01 -0.3019199E-07  0.0000000E+00 -0.1733090E-04
  0.6111111E+00  0.0000000E+00  0.2525252E-01 -0.3210624E-07  0.0000000E+00 -0.1734380E-04
  0.6212121E+00  0.0000000E+00  0.2525252E-01 -0.3383890E-07  0.0000000E+00 -0.1735745E-04
  0.6313131E+00  0.0000000E+00  0.2525252E-01 -0.3538418E-07  0.0000000E+00 -0.1737178E-04
  0.6414142E+00  0.0000000E+00  0.2525252E-01 -0.3673800E-07  0.0000000E+00 -0.1738671E-04
  0.6515151E+00  0.0000000E+00  0.2525252E-01 -0.3789796E-07  0.0000000E+00 -0.1740215E-04
  0.6616161E+00  0.0000000E+00  0.2525252E-01 -0.3886325E-07  0.0000000E+00 -0.1741803E-04
  0.6717172E+00  0.0000000E+00  0.2525252E-01 -0.3963461E-07  0.0000000E+00 -0.1743426E-04
  0.6818182E+00  0.0000000E+00  0.2525252E-01 -0.4021418E-07  0.0000000E+00 -0.1745076E-04
  0.6919192E+00  0.0000000E+00  0.2525252E-01 -0.4060541E-07  0.0000000E+00 -0.1746747E-04
  0.7020202E+00  0.0000000E+00  0.2525252E-01 -0.4081292E-07  0.0000000E+00 -0.1748429E-04
  0.7121212E+00  0.0000000E+00  0.2525252E-01 -0.4084239E-07  0.0000000E+00 -0.1750115E-04
  0.7222222E+00  0.0000000E+00  0.2525252E-01 -0.4070039E-07  0.0000000E+00 -0.1751798E-04
  0.7323232E+00  0.0000000E+00  0.2525252E-01 -0.4039424E-07  0.0000000E+00 -0.1753472E-04
  0.7424242E+00  0.0000000E+00  0.2525252E-01 -0.3993188E-07  0.0000000E+00 -0.1755129E-04
  0.7525253E+00  0.0000000E+00  0.2525252E-01 -0.3932171E-07  0.0000000E+00 -0.1756764E-04
  0.7626263E+00  0.0000000E+00  0.2525252E-01 -0.3857248E-07  0.0000000E+00 -0.1758370E-04
  0.7727273E+00  0.0000000E+00  0.2525252E-01 -0.3769313E-07  0.0000000E+00 -0.1759942E-04
  0.7828283E+00  0.0000000E+00  0.2525252E-01 -0.3669272E-07  0.0000000E+00 -0.1761474E-04
  0.7929293E+00  0.0000000E+00  0.2525252E-01 -0.3558025E-07  0.0000000E+00 -0.1762963E-04
  0.8030303E+00  0.0000000E+00  0.2525252E-01 -0.3436465E-07  0.0000000E+00 -0.1764403E-04
  0.8131313E+00  0.0000000E+00  0.2525252E-01 -0.3305461E-07  0.0000000E+00 -0.1765791E-04
  0.8232324E+00  0.0000000E+00  0.2525252E-01 -0.3165857E-07  0.0000000E+00 -0.1767123E-04
  0.8333333E+00  0.0000000E+00  0.2525252E-01 -0.3018464E-07  0.0000000E+00 -0.1768395E-04
  0.8434343E+00  0.0000000E+00  0.2525252E-01 -0.2864054E-07  0.0000000E+00 -0.1769605E-04
  0.8535354E+00  0.0000000E+00  0.2525252E-01 -0.2703358E-07  0.0000000E+00 -0.1770750E-04
  0.8636364E+00  0.0000000E+00  0.2525252E-01 -0.2537063E-07  0.0000000E+00 -0.1771827E-04
  0.8737374E+00  0.0000000E+00  0.2525252E-01 -0.2365808E-07  0.0000000E+00 -0.1772835E-04
  0.8838384E+00  0.0000000E+00  0.2525252E-01 -0.2190188E-07  0.0000000E+00 -0.1773771E-04
  0.8939394E+00  0.0000000E+00  0.2525252E-01 -0.2010751E-07  0.0000000E+00 -0.1774634E-04
  0.9040404E+00  0.0000000E+00  0.2525252E-01 -0.1828000E-07  0.0000000E+00 -0.1775422E-04
  0.9141414E+00  0.0000000E+00  0.2525252E-01 -0.1642395E-07  0.0000000E+00 -0.1776135E-04
  0.9242424E+00  0.0000000E+00  0.2525252E-01 -0.1454355E-07  0.0000000E+00 -0.1776771E-04
  0.9343435E+00  0.0000000E+00  0.2525252E-01 -0.1264260E-07  0.0000000E+00 -0.1777329E-04
  0.9444444E+00  0.0000000E+00  0.2525252E-01 -0.1072459E-07  0.0000000E+00 -0.1777809E-04
  0.9545454E+00  0.0000000E+00  0.2525252E-01 -0.8792672E-08  0.0000000E+00 -0.1778209E-04
  0.9646465E+00  0.0000000E+00  0.2525252E-01 -0.6849739E-08  0.0000000E+00 -0.1778530E-04
  0.9747475E+00  0.0000000E+00  0.2525252E-01 -0.4898474E-08  0.0000000E+00 -0.1778771E-04
  0.9848485E+00  0.0000000E+00  0.2525252E-01 -0.2941381E-08  0.0000000E+00 -0.1778932E-04
  0.9974747E+00  0.0000000E+00  0.2525252E-01 -0.9808425E-09  0.0000000E+00 -0.1779013E-04
  0.5050505E-02  0.0000000E+00  0.3535353E-01  0.1445413E-08  0.0000000E+00 -0.1763538E-04
  0.1515152E-01  0.0000000E+00  0.3535353E-01  0.4333882E-08  0.0000000E+00 -0.1763451E-04
  0.2525252E-01  0.0000000E+00  0.3535353E-01  0.7215230E-08  0.0000000E+00 -0.1763278E-04
  0.3535353E-01  0.0000000E+00  0.3535353E-01  0.1008459E-07  0.0000000E+00 -0.1763018E-04
  0.4545455E-01  0.0000000E+00  0.3535353E-01  0.1293691E-07  0.0000000E+00 -0.1762673E-04
  0.5555556E-01  0.0000000E+00  0.3535353E-01  0.1576692E-07  0.0000000E+00 -0.1762242E-04
  0.6565657E-01  0.0000000E+00  0.3535353E-01  0.1856901E-07  0.0000000E+00 -0.1761726E-04
  0.7575758E-01  0.0000000E+00  0.3535353E-01  0.2133723E-07  0.0000000E+00 -0.1761127E-04
  0.8585858E-01  0.0000000E+00  0.3535353E-01  0.2406518E-07  0.0000000E+00 -0.1760445E-04
  0.9595960E-01  0.0000000E+00  0.3535353E-01  0.2674599E-07  0.0000000E+00 -0.1759681E-04
  0.1060606E+00  0.0000000E+00  0.3535353E-01  0.2937227E-07  0.0000000E+00 -0.1758837E-04
  0.1161616E+00  0.0000000E+00  0.3535353E-01  0.3193604E-07  0.0000000E+00 -0.1757915E-04
  0.1262626E+00  0.0000000E+00  0.3535353E-01  0.3442876E-07  0.0000000E+00 -0.1756917E-04
  0.1363636E+00  0.0000000E+00  0.3535353E-01  0.3684127E-07  0.0000000E+00 -0.1755844E-04
  0.1464646E+00  0.0000000E+00  0.3535353E-01  0.3916378E-07  0.0000000E+00 -0.1754699E-04
  0.1565657E+00  0.0000000E+00  0.3535353E-01  0.4138591E-07  0.0000000E+00 -0.1753485E-04
  0.1666667E+00  0.0000000E+00  0.3535353E-01  0.4349666E-07  0.0000000E+00 -0.1752205E-04
  0.1767677E+00  0.0000000E+00  0.3535353E-01  0.4548451E-07  0.0000000E+00 -0.1750863E-04
  0.1868687E+00  0.0000000E+00  0.3535353E-01  0.4733743E-07  0.0000000E+00 -0.1749462E-04
  0.1969697E+00  0.0000000E+00  0.3535353E-01  0.4904294E-07  0.0000000E+00 -0.1748006E-04
  0.2070707E+00  0.0000000E+00  0.3535353E-01  0.5058826E-07  0.0000000E+00 -0.1746500E-04
  0.2171717E+00  0.0000000E+00  0.3535353E-01  0.5196038E-07  0.0000000E+00 -0.1744949E-04
  0.2272727E+00  0.0000000E+00  0.3535353E-01  0.5314619E-07  0.0000000E+00 -0.1743358E-04
  0.2373737E+00  0.0000000E+00  0.3535353E-01  0.5413264E-07  0.0000000E+00 -0.1741734E-04
  0.2474747E+00  0.0000000E+00  0.3535353E-01  0.5490692E-07  0.0000000E+00 -0.1740081E-04
  0.2575758E+00  0.0000000E+00  0.3535353E-01  0.5545664E-07  0.0000000E+00 -0.1738407E-04
  0.2676768E+00  0.0000000E+00  0.3535353E-01  0.5577002E-07  0.0000000E+00 -0.1736719E-04
  0.2777778E+00  0.0000000E+00  0.3535353E-01  0.5583611E-07  0.0000000E+00 -0.1735024E-04
  0.2878788E+00  0.0000000E+00  0.3535353E-01  0.5564502E-07  0.0000000E+00 -0.1733330E-04
  0.2979798E+00  0.0000000E+00  0.3535353E-01  0.5518813E-07  0.0000000E+00 -0.1731645E-04