title = "dataset water"
variables = "x", "y", "z", "vx", "vy", "vz"
zone t = "velocities, solution time =  1.700E+01 days        " i =   99, j =   99, k =    1,  f=point
  0.5050505E-02  0.0000000E+00  0.5050505E-02  0.4173460E-10  0.0000000E+00 -0.2339962E-04
  0.1515152E-01  0.0000000E+00  0.5050505E-02  0.1251024E-09  0.0000000E+00 -0.2339945E-04
  0.2525252E-01  0.0000000E+00  0.5050505E-02  0.2081512E-09  0.0000000E+00 -0.2339912E-04
  0.3535353E-01  0.0000000E+00  0.5050505E-02  0.2906652E-09  0.0000000E+00 -0.2339862E-04
  0.4545455E-01  0.0000000E+00  0.5050505E-02  0.3724274E-09  0.0000000E+00 -0.2339795E-04
  0.5555556E-01  0.0000000E+00  0.5050505E-02  0.4532164E-09  0.0000000E+00 -0.2339712E-04
  0.6565657E-01  0.0000000E+00  0.5050505E-02  0.5328061E-09  0.0000000E+00 -0.2339613E-04
  0.7575758E-01  0.0000000E+00  0.5050505E-02  0.6109649E-09  0.0000000E+00 -0.2339499E-04
  0.8585858E-01  0.0000000E+00  0.5050505E-02  0.6874549E-09  0.0000000E+00 -0.2339369E-04
  0.9595960E-01  0.0000000E+00  0.5050505E-02  0.7620316E-09  0.0000000E+00 -0.2339223E-04
  0.1060606E+00  0.0000000E+00  0.5050505E-02  0.8344435E-09  0.0000000E+00 -0.2339063E-04
  0.1161616E+00  0.0000000E+00  0.5050505E-02  0.9044316E-09  0.0000000E+00 -0.2338889E-04
  0.1262626E+00  0.0000000E+00  0.5050505E-02  0.9717304E-09  0.0000000E+00 -0.2338701E-04
  0.1363636E+00  0.0000000E+00  0.5050505E-02  0.1036067E-08  0.0000000E+00 -0.2338499E-04
  0.1464646E+00  0.0000000E+00  0.5050505E-02  0.1097164E-08  0.0000000E+00 -0.2338285E-04
  0.1565657E+00  0.0000000E+00  0.5050505E-02  0.1154738E-08  0.0000000E+00 -0.2338059E-04
  0.1666667E+00  0.0000000E+00  0.5050505E-02  0.1208501E-08  0.0000000E+00 -0.2337822E-04
  0.1767677E+00  0.0000000E+00  0.5050505E-02  0.1258163E-08  0.0000000E+00 -0.2337575E-04
  0.1868687E+00  0.0000000E+00  0.5050505E-02  0.1303436E-08  0.0000000E+00 -0.2337318E-04
  0.1969697E+00  0.0000000E+00  0.5050505E-02  0.1344029E-08  0.0000000E+00 -0.2337053E-04
  0.2070707E+00  0.0000000E+00  0.5050505E-02  0.1379659E-08  0.0000000E+00 -0.2336779E-04
  0.2171717E+00  0.0000000E+00  0.5050505E-02  0.1410048E-08  0.0000000E+00 -0.2336500E-04
  0.2272727E+00  0.0000000E+00  0.5050505E-02  0.1434928E-08  0.0000000E+00 -0.2336214E-04
  0.2373737E+00  0.0000000E+00  0.5050505E-02  0.1454042E-08  0.0000000E+00 -0.2335925E-04
  0.2474747E+00  0.0000000E+00  0.5050505E-02  0.1467151E-08  0.0000000E+00 -0.2335632E-04
  0.2575758E+00  0.0000000E+00  0.5050505E-02  0.1474034E-08  0.0000000E+00 -0.2335337E-04
  0.2676768E+00  0.0000000E+00  0.5050505E-02  0.1474496E-08  0.0000000E+00 -0.2335041E-04
  0.2777778E+00  0.0000000E+00  0.5050505E-02  0.1468364E-08  0.0000000E+00 -0.2334746E-04
  0.2878788E+00  0.0000000E+00  0.5050505E-02  0.1455500E-08  0.0000000E+00 -0.2334453E-04
  0.2979798E+00  0.0000000E+00  0.5050505E-02  0.1435797E-08  0.0000000E+00 -0.2334163E-04
  0.3080808E+00  0.0000000E+00  0.5050505E-02  0.1409186E-08  0.0000000E+00 -0.2333877E-04
  0.3181818E+00  0.0000000E+00  0.5050505E-02  0.1375638E-08  0.0000000E+00 -0.2333598E-04
  0.3282828E+00  0.0000000E+00  0.5050505E-02  0.1335168E-08  0.0000000E+00 -0.2333326E-04
  0.3383838E+00  0.0000000E+00  0.5050505E-02  0.1287838E-08  0.0000000E+00 -0.2333063E-04
  0.3484848E+00  0.0000000E+00  0.5050505E-02  0.1233755E-08  0.0000000E+00 -0.2332810E-04
  0.3585859E+00  0.0000000E+00  0.5050505E-02  0.1173077E-08  0.0000000E+00 -0.2332569E-04
  0.3686869E+00  0.0000000E+00  0.5050505E-02  0.1106014E-08  0.0000000E+00 -0.2332340E-04
  0.3787879E+00  0.0000000E+00  0.5050505E-02  0.1032825E-08  0.0000000E+00 -0.2332126E-04
  0.3888889E+00  0.0000000E+00  0.5050505E-02  0.9538192E-09  0.0000000E+00 -0.2331927E-04
  0.3989899E+00  0.0000000E+00  0.5050505E-02  0.8693572E-09  0.0000000E+00 -0.2331744E-04
  0.4090909E+00  0.0000000E+00  0.5050505E-02  0.7798463E-09  0.0000000E+00 -0.2331578E-04
  0.4191919E+00  0.0000000E+00  0.5050505E-02  0.6857392E-09  0.0000000E+00 -0.2331432E-04
  0.4292929E+00  0.0000000E+00  0.5050505E-02  0.5875312E-09  0.0000000E+00 -0.2331304E-04
  0.4393939E+00  0.0000000E+00  0.5050505E-02  0.4857557E-09  0.0000000E+00 -0.2331196E-04
  0.4494950E+00  0.0000000E+00  0.5050505E-02  0.3809801E-09  0.0000000E+00 -0.2331109E-04
  0.4595959E+00  0.0000000E+00  0.5050505E-02  0.2738008E-09  0.0000000E+00 -0.2331044E-04
  0.4696970E+00  0.0000000E+00  0.5050505E-02  0.1648372E-09  0.0000000E+00 -0.2331000E-04
  0.4797980E+00  0.0000000E+00  0.5050505E-02  0.5472626E-10  0.0000000E+00 -0.2330978E-04
  0.4898990E+00  0.0000000E+00  0.5050505E-02 -0.5588424E-10  0.0000000E+00 -0.2330978E-04
  0.5000000E+00  0.0000000E+00  0.5050505E-02 -0.1663419E-09  0.0000000E+00 -0.2331000E-04
  0.5101010E+00  0.0000000E+00  0.5050505E-02 -0.2759965E-09  0.0000000E+00 -0.2331044E-04
  0.5202020E+00  0.0000000E+00  0.5050505E-02 -0.3842063E-09  0.0000000E+00 -0.2331111E-04
  0.5303030E+00  0.0000000E+00  0.5050505E-02 -0.4903447E-09  0.0000000E+00 -0.2331198E-04
  0.5404040E+00  0.0000000E+00  0.5050505E-02 -0.5938065E-09  0.0000000E+00 -0.2331307E-04
  0.5505050E+00  0.0000000E+00  0.5050505E-02 -0.6940131E-09  0.0000000E+00 -0.2331436E-04
  0.5606061E+00  0.0000000E+00  0.5050505E-02 -0.7904188E-09  0.0000000E+00 -0.2331585E-04
  0.5707071E+00  0.0000000E+00  0.5050505E-02 -0.8825145E-09  0.0000000E+00 -0.2331753E-04
  0.5808081E+00  0.0000000E+00  0.5050505E-02 -0.9698329E-09  0.0000000E+00 -0.2331939E-04
  0.5909091E+00  0.0000000E+00  0.5050505E-02 -0.1051951E-08  0.0000000E+00 -0.2332141E-04
  0.6010101E+00  0.0000000E+00  0.5050505E-02 -0.1128495E-08  0.0000000E+00 -0.2332360E-04
  0.6111111E+00  0.0000000E+00  0.5050505E-02 -0.1199138E-08  0.0000000E+00 -0.2332593E-04
  0.6212121E+00  0.0000000E+00  0.5050505E-02 -0.1263606E-08  0.0000000E+00 -0.2332840E-04
  0.6313131E+00  0.0000000E+00  0.5050505E-02 -0.1321677E-08  0.0000000E+00 -0.2333100E-04
  0.6414142E+00  0.0000000E+00  0.5050505E-02 -0.1373180E-08  0.0000000E+00 -0.2333370E-04
  0.6515151E+00  0.0000000E+00  0.5050505E-02 -0.1417995E-08  0.0000000E+00 -0.2333650E-04
  0.6616161E+00  0.0000000E+00  0.5050505E-02 -0.1456050E-08  0.0000000E+00 -0.2333938E-04
  0.6717172E+00  0.0000000E+00  0.5050505E-02 -0.1487321E-08  0.0000000E+00 -0.2334233E-04
  0.6818182E+00  0.0000000E+00  0.5050505E-02 -0.1511830E-08  0.0000000E+00 -0.2334534E-04
  0.6919192E+00  0.0000000E+00  0.5050505E-02 -0.1529641E-08  0.0000000E+00 -0.2334839E-04
  0.7020202E+00  0.0000000E+00  0.5050505E-02 -0.1540854E-08  0.0000000E+00 -0.2335147E-04
  0.7121212E+00  0.0000000E+00  0.5050505E-02 -0.1545607E-08  0.0000000E+00 -0.2335456E-04
  0.7222222E+00  0.0000000E+00  0.5050505E-02 -0.1544069E-08  0.0000000E+00 -0.2335766E-04
  0.7323232E+00  0.0000000E+00  0.5050505E-02 -0.1536436E-08  0.0000000E+00 -0.2336075E-04
  0.7424242E+00  0.0000000E+00  0.5050505E-02 -0.1522929E-08  0.0000000E+00 -0.2336382E-04
  0.7525253E+00  0.0000000E+00  0.5050505E-02 -0.1503786E-08  0.0000000E+00 -0.2336686E-04
  0.7626263E+00  0.0000000E+00  0.5050505E-02 -0.1479266E-08  0.0000000E+00 -0.2336985E-04
  0.7727273E+00  0.0000000E+00  0.5050505E-02 -0.1449635E-08  0.0000000E+00 -0.2337279E-04
  0.7828283E+00  0.0000000E+00  0.5050505E-02 -0.1415173E-08  0.0000000E+00 -0.2337566E-04
  0.7929293E+00  0.0000000E+00  0.5050505E-02 -0.1376162E-08  0.0000000E+00 -0.2337846E-04
  0.8030303E+00  0.0000000E+00  0.5050505E-02 -0.1332890E-08  0.0000000E+00 -0.2338117E-04
  0.8131313E+00  0.0000000E+00  0.5050505E-02 -0.1285641E-08  0.0000000E+00 -0.2338380E-04
  0.8232324E+00  0.0000000E+00  0.5050505E-02 -0.1234700E-08  0.0000000E+00 -0.2338633E-04
  0.8333333E+00  0.0000000E+00  0.5050505E-02 -0.1180346E-08  0.0000000E+00 -0.2338875E-04
  0.8434343E+00  0.0000000E+00  0.5050505E-02 -0.1122852E-08  0.0000000E+00 -0.2339106E-04
  0.8535354E+00  0.0000000E+00  0.5050505E-02 -0.1062483E-08  0.0000000E+00 -0.2339325E-04
  0.8636364E+00  0.0000000E+00  0.5050505E-02 -0.9994929E-09  0.0000000E+00 -0.2339532E-04
  0.8737374E+00  0.0000000E+00  0.5050505E-02 -0.9341283E-09  0.0000000E+00 -0.2339726E-04
  0.8838384E+00  0.0000000E+00  0.5050505E-02 -0.8666237E-09  0.0000000E+00 -0.2339906E-04
  0.8939394E+00  0.0000000E+00  0.5050505E-02 -0.7972024E-09  0.0000000E+00 -0.2340073E-04
  0.9040404E+00  0.0000000E+00  0.5050505E-02 -0.7260769E-09  0.0000000E+00 -0.2340226E-04
  0.9141414E+00  0.0000000E+00  0.5050505E-02 -0.6534485E-09  0.0000000E+00 -0.2340364E-04
  0.9242424E+00  0.0000000E+00  0.5050505E-02 -0.5795078E-09  0.0000000E+00 -0.2340488E-04
  0.9343435E+00  0.0000000E+00  0.5050505E-02 -0.5044353E-09  0.0000000E+00 -0.2340597E-04
  0.9444444E+00  0.0000000E+00  0.5050505E-02 -0.4284024E-09  0.0000000E+00 -0.2340690E-04
  0.9545454E+00  0.0000000E+00  0.5050505E-02 -0.3515717E-09  0.0000000E+00 -0.2340769E-04
  0.9646465E+00  0.0000000E+00  0.5050505E-02 -0.2740989E-09  0.0000000E+00 -0.2340831E-04
  0.9747475E+00  0.0000000E+00  0.5050505E-02 -0.1961332E-09  0.0000000E+00 -0.2340878E-04
  0.9848485E+00  0.0000000E+00  0.5050505E-02 -0.1178191E-09  0.0000000E+00 -0.2340910E-04
  0.9974747E+00  0.0000000E+00  0.5050505E-02 -0.3929791E-10  0.0000000E+00 -0.2340926E-04
  0.5050505E-02  0.0000000E+00  0.1515152E-01  0.1256401E-09  0.0000000E+00 -0.2334188E-04
  0.1515152E-01  0.0000000E+00  0.1515152E-01  0.3766127E-09  0.0000000E+00 -0.2334172E-04
  0.2525252E-01  0.0000000E+00  0.1515152E-01  0.6266281E-09  0.0000000E+00 -0.2334138E-04
  0.3535353E-01  0.0000000E+00  0.1515152E-01  0.8750384E-09  0.0000000E+00 -0.2334087E-04
  0.4545455E-01  0.0000000E+00  0.1515152E-01  0.1121191E-08  0.0000000E+00 -0.2334020E-04
  0.5555556E-01  0.0000000E+00  0.1515152E-01  0.1364423E-08  0.0000000E+00 -0.2333936E-04
  0.6565657E-01  0.0000000E+00  0.1515152E-01  0.1604053E-08  0.0000000E+00 -0.2333835E-04
  0.7575758E-01  0.0000000E+00  0.1515152E-01  0.1839386E-08  0.0000000E+00 -0.2333719E-04
  0.8585858E-01  0.0000000E+00  0.1515152E-01  0.2069707E-08  0.0000000E+00 -0.2333587E-04
  0.9595960E-01  0.0000000E+00  0.1515152E-01  0.2294282E-08  0.0000000E+00 -0.2333440E-04
  0.1060606E+00  0.0000000E+00  0.1515152E-01  0.2512353E-08  0.0000000E+00 -0.2333278E-04
  0.1161616E+00  0.0000000E+00  0.1515152E-01  0.2723142E-08  0.0000000E+00 -0.2333101E-04
  0.1262626E+00  0.0000000E+00  0.1515152E-01  0.2925849E-08  0.0000000E+00 -0.2332910E-04
  0.1363636E+00  0.0000000E+00  0.1515152E-01  0.3119655E-08  0.0000000E+00 -0.2332706E-04
  0.1464646E+00  0.0000000E+00  0.1515152E-01  0.3303722E-08  0.0000000E+00 -0.2332489E-04
  0.1565657E+00  0.0000000E+00  0.1515152E-01  0.3477196E-08  0.0000000E+00 -0.2332260E-04
  0.1666667E+00  0.0000000E+00  0.1515152E-01  0.3639211E-08  0.0000000E+00 -0.2332020E-04
  0.1767677E+00  0.0000000E+00  0.1515152E-01  0.3788895E-08  0.0000000E+00 -0.2331769E-04
  0.1868687E+00  0.0000000E+00  0.1515152E-01  0.3925372E-08  0.0000000E+00 -0.2331508E-04
  0.1969697E+00  0.0000000E+00  0.1515152E-01  0.4047774E-08  0.0000000E+00 -0.2331239E-04
  0.2070707E+00  0.0000000E+00  0.1515152E-01  0.4155240E-08  0.0000000E+00 -0.2330962E-04
  0.2171717E+00  0.0000000E+00  0.1515152E-01  0.4246933E-08  0.0000000E+00 -0.2330678E-04
  0.2272727E+00  0.0000000E+00  0.1515152E-01  0.4322041E-08  0.0000000E+00 -0.2330388E-04
  0.2373737E+00  0.0000000E+00  0.1515152E-01  0.4379791E-08  0.0000000E+00 -0.2330094E-04
  0.2474747E+00  0.0000000E+00  0.1515152E-01  0.4419460E-08  0.0000000E+00 -0.2329797E-04
  0.2575758E+00  0.0000000E+00  0.1515152E-01  0.4440381E-08  0.0000000E+00 -0.2329497E-04
  0.2676768E+00  0.0000000E+00  0.1515152E-01  0.4441958E-08  0.0000000E+00 -0.2329197E-04
  0.2777778E+00  0.0000000E+00  0.1515152E-01  0.4423672E-08  0.0000000E+00 -0.2328897E-04
  0.2878788E+00  0.0000000E+00  0.1515152E-01  0.4385101E-08  0.0000000E+00 -0.2328599E-04
  0.2979798E+00  0.0000000E+00  0.1515152E-01  0.4325919E-08  0.0000000E+00 -0.2328305E-04
  0.3080808E+00  0.0000000E+00  0.1515152E-01  0.4245917E-08  0.0000000E+00 -0.2328015E-04
  0.3181818E+00  0.0000000E+00  0.1515152E-01  0.4145006E-08  0.0000000E+00 -0.2327731E-04
  0.3282828E+00  0.0000000E+00  0.1515152E-01  0.4023226E-08  0.0000000E+00 -0.2327455E-04
  0.3383838E+00  0.0000000E+00  0.1515152E-01  0.3880759E-08  0.0000000E+00 -0.2327188E-04
  0.3484848E+00  0.0000000E+00  0.1515152E-01  0.3717929E-08  0.0000000E+00 -0.2326931E-04
  0.3585859E+00  0.0000000E+00  0.1515152E-01  0.3535211E-08  0.0000000E+00 -0.2326685E-04
  0.3686869E+00  0.0000000E+00  0.1515152E-01  0.3333232E-08  0.0000000E+00 -0.2326453E-04
  0.3787879E+00  0.0000000E+00  0.1515152E-01  0.3112772E-08  0.0000000E+00 -0.2326235E-04
  0.3888889E+00  0.0000000E+00  0.1515152E-01  0.2874765E-08  0.0000000E+00 -0.2326032E-04
  0.3989899E+00  0.0000000E+00  0.1515152E-01  0.2620295E-08  0.0000000E+00 -0.2325846E-04
  0.4090909E+00  0.0000000E+00  0.1515152E-01  0.2350589E-08  0.0000000E+00 -0.2325678E-04
  0.4191919E+00  0.0000000E+00  0.1515152E-01  0.2067014E-08  0.0000000E+00 -0.2325529E-04
  0.4292929E+00  0.0000000E+00  0.1515152E-01  0.1771061E-08  0.0000000E+00 -0.2325399E-04
  0.4393939E+00  0.0000000E+00  0.1515152E-01  0.1464342E-08  0.0000000E+00 -0.2325289E-04
  0.4494950E+00  0.0000000E+00  0.1515152E-01  0.1148567E-08  0.0000000E+00 -0.2325201E-04
  0.4595959E+00  0.0000000E+00  0.1515152E-01  0.8255368E-09  0.0000000E+00 -0.2325134E-04
  0.4696970E+00  0.0000000E+00  0.1515152E-01  0.4971202E-09  0.0000000E+00 -0.2325089E-04
  0.4797980E+00  0.0000000E+00  0.1515152E-01  0.1652398E-09  0.0000000E+00 -0.2325067E-04
  0.4898990E+00  0.0000000E+00  0.1515152E-01 -0.1681490E-09  0.0000000E+00 -0.2325067E-04
  0.5000000E+00  0.0000000E+00  0.1515152E-01 -0.5010769E-09  0.0000000E+00 -0.2325090E-04
  0.5101010E+00  0.0000000E+00  0.1515152E-01 -0.8315811E-09  0.0000000E+00 -0.2325135E-04
  0.5202020E+00  0.0000000E+00  0.1515152E-01 -0.1157725E-08  0.0000000E+00 -0.2325202E-04
  0.5303030E+00  0.0000000E+00  0.1515152E-01 -0.1477616E-08  0.0000000E+00 -0.2325291E-04
  0.5404040E+00  0.0000000E+00  0.1515152E-01 -0.1789429E-08  0.0000000E+00 -0.2325401E-04
  0.5505050E+00  0.0000000E+00  0.1515152E-01 -0.2091418E-08  0.0000000E+00 -0.2325533E-04
  0.5606061E+00  0.0000000E+00  0.1515152E-01 -0.2381935E-08  0.0000000E+00 -0.2325684E-04
  0.5707071E+00  0.0000000E+00  0.1515152E-01 -0.2659445E-08  0.0000000E+00 -0.2325855E-04
  0.5808081E+00  0.0000000E+00  0.1515152E-01 -0.2922538E-08  0.0000000E+00 -0.2326043E-04
  0.5909091E+00  0.0000000E+00  0.1515152E-01 -0.3169941E-08  0.0000000E+00 -0.2326249E-04
  0.6010101E+00  0.0000000E+00  0.1515152E-01 -0.3400522E-08  0.0000000E+00 -0.2326472E-04
  0.6111111E+00  0.0000000E+00  0.1515152E-01 -0.3613302E-08  0.0000000E+00 -0.2326709E-04
  0.6212121E+00  0.0000000E+00  0.1515152E-01 -0.3807456E-08  0.0000000E+00 -0.2326960E-04
  0.6313131E+00  0.0000000E+00  0.1515152E-01 -0.3982313E-08  0.0000000E+00 -0.2327223E-04
  0.6414142E+00  0.0000000E+00  0.1515152E-01 -0.4137361E-08  0.0000000E+00 -0.2327498E-04
  0.6515151E+00  0.0000000E+00  0.1515152E-01 -0.4272237E-08  0.0000000E+00 -0.2327782E-04
  0.6616161E+00  0.0000000E+00  0.1515152E-01 -0.4386731E-08  0.0000000E+00 -0.2328075E-04
  0.6717172E+00  0.0000000E+00  0.1515152E-01 -0.4480775E-08  0.0000000E+00 -0.2328375E-04
  0.6818182E+00  0.0000000E+00  0.1515152E-01 -0.4554433E-08  0.0000000E+00 -0.2328680E-04
  0.6919192E+00  0.0000000E+00  0.1515152E-01 -0.4607901E-08  0.0000000E+00 -0.2328990E-04
  0.7020202E+00  0.0000000E+00  0.1515152E-01 -0.4641488E-08  0.0000000E+00 -0.2329302E-04
  0.7121212E+00  0.0000000E+00  0.1515152E-01 -0.4655611E-08  0.0000000E+00 -0.2329617E-04
  0.7222222E+00  0.0000000E+00  0.1515152E-01 -0.4650781E-08  0.0000000E+00 -0.2329931E-04
  0.7323232E+00  0.0000000E+00  0.1515152E-01 -0.4627593E-08  0.0000000E+00 -0.2330245E-04
  0.7424242E+00  0.0000000E+00  0.1515152E-01 -0.4586713E-08  0.0000000E+00 -0.2330556E-04
  0.7525253E+00  0.0000000E+00  0.1515152E-01 -0.4528866E-08  0.0000000E+00 -0.2330864E-04
  0.7626263E+00  0.0000000E+00  0.1515152E-01 -0.4454829E-08  0.0000000E+00 -0.2331168E-04
  0.7727273E+00  0.0000000E+00  0.1515152E-01 -0.4365413E-08  0.0000000E+00 -0.2331465E-04
  0.7828283E+00  0.0000000E+00  0.1515152E-01 -0.4261457E-08  0.0000000E+00 -0.2331757E-04
  0.7929293E+00  0.0000000E+00  0.1515152E-01 -0.4143817E-08  0.0000000E+00 -0.2332041E-04
  0.8030303E+00  0.0000000E+00  0.1515152E-01 -0.4013357E-08  0.0000000E+00 -0.2332316E-04
  0.8131313E+00  0.0000000E+00  0.1515152E-01 -0.3870940E-08  0.0000000E+00 -0.2332582E-04
  0.8232324E+00  0.0000000E+00  0.1515152E-01 -0.3717423E-08  0.0000000E+00 -0.2332839E-04
  0.8333333E+00  0.0000000E+00  0.1515152E-01 -0.3553646E-08  0.0000000E+00 -0.2333084E-04
  0.8434343E+00  0.0000000E+00  0.1515152E-01 -0.3380432E-08  0.0000000E+00 -0.2333318E-04
  0.8535354E+00  0.0000000E+00  0.1515152E-01 -0.3198578E-08  0.0000000E+00 -0.2333540E-04
  0.8636364E+00  0.0000000E+00  0.1515152E-01 -0.3008854E-08  0.0000000E+00 -0.2333750E-04
  0.8737374E+00  0.0000000E+00  0.1515152E-01 -0.2811998E-08  0.0000000E+00 -0.2333946E-04
  0.8838384E+00  0.0000000E+00  0.1515152E-01 -0.2608717E-08  0.0000000E+00 -0.2334129E-04
  0.8939394E+00  0.0000000E+00  0.1515152E-01 -0.2399683E-08  0.0000000E+00 -0.2334298E-04
  0.9040404E+00  0.0000000E+00  0.1515152E-01 -0.2185534E-08  0.0000000E+00 -0.2334453E-04
  0.9141414E+00  0.0000000E+00  0.1515152E-01 -0.1966875E-08  0.0000000E+00 -0.2334593E-04
  0.9242424E+00  0.0000000E+00  0.1515152E-01 -0.1744280E-08  0.0000000E+00 -0.2334719E-04
  0.9343435E+00  0.0000000E+00  0.1515152E-01 -0.1518291E-08  0.0000000E+00 -0.2334829E-04
  0.9444444E+00  0.0000000E+00  0.1515152E-01 -0.1289422E-08  0.0000000E+00 -0.2334923E-04
  0.9545454E+00  0.0000000E+00  0.1515152E-01 -0.1058161E-08  0.0000000E+00 -0.2335003E-04
  0.9646465E+00  0.0000000E+00  0.1515152E-01 -0.8249747E-09  0.0000000E+00 -0.2335066E-04
  0.9747475E+00  0.0000000E+00  0.1515152E-01 -0.5903113E-09  0.0000000E+00 -0.2335114E-04
  0.9848485E+00  0.0000000E+00  0.1515152E-01 -0.3546036E-09  0.0000000E+00 -0.2335146E-04
  0.9974747E+00  0.0000000E+00  0.1515152E-01 -0.1182744E-09  0.0000000E+00 -0.2335162E-04
  0.5050505E-02  0.0000000E+00  0.2525252E-01  0.2109771E-09  0.0000000E+00 -0.2322684E-04
  0.1515152E-01  0.0000000E+00  0.2525252E-01  0.6324130E-09  0.0000000E+00 -0.2322666E-04
  0.2525252E-01  0.0000000E+00  0.2525252E-01  0.1052251E-08  0.0000000E+00 -0.2322632E-04
  0.3535353E-01  0.0000000E+00  0.2525252E-01  0.1469409E-08  0.0000000E+00 -0.2322580E-04
  0.4545455E-01  0.0000000E+00  0.2525252E-01  0.1882797E-08  0.0000000E+00 -0.2322510E-04
  0.5555556E-01  0.0000000E+00  0.2525252E-01  0.2291305E-08  0.0000000E+00 -0.2322424E-04
  0.6565657E-01  0.0000000E+00  0.2525252E-01  0.2693798E-08  0.0000000E+00 -0.2322321E-04
  0.7575758E-01  0.0000000E+00  0.2525252E-01  0.3089111E-08  0.0000000E+00 -0.2322202E-04
  0.8585858E-01  0.0000000E+00  0.2525252E-01  0.3476048E-08  0.0000000E+00 -0.2322066E-04
  0.9595960E-01  0.0000000E+00  0.2525252E-01  0.3853378E-08  0.0000000E+00 -0.2321915E-04
  0.1060606E+00  0.0000000E+00  0.2525252E-01  0.4219834E-08  0.0000000E+00 -0.2321748E-04
  0.1161616E+00  0.0000000E+00  0.2525252E-01  0.4574109E-08  0.0000000E+00 -0.2321567E-04
  0.1262626E+00  0.0000000E+00  0.2525252E-01  0.4914863E-08  0.0000000E+00 -0.2321371E-04
  0.1363636E+00  0.0000000E+00  0.2525252E-01  0.5240720E-08  0.0000000E+00 -0.2321161E-04
  0.1464646E+00  0.0000000E+00  0.2525252E-01  0.5550271E-08  0.0000000E+00 -0.2320938E-04
  0.1565657E+00  0.0000000E+00  0.2525252E-01  0.5842081E-08  0.0000000E+00 -0.2320703E-04
  0.1666667E+00  0.0000000E+00  0.2525252E-01  0.6114694E-08  0.0000000E+00 -0.2320456E-04
  0.1767677E+00  0.0000000E+00  0.2525252E-01  0.6366641E-08  0.0000000E+00 -0.2320198E-04
  0.1868687E+00  0.0000000E+00  0.2525252E-01  0.6596449E-08  0.0000000E+00 -0.2319930E-04
  0.1969697E+00  0.0000000E+00  0.2525252E-01  0.6802649E-08  0.0000000E+00 -0.2319652E-04
  0.2070707E+00  0.0000000E+00  0.2525252E-01  0.6983793E-08  0.0000000E+00 -0.2319367E-04
  0.2171717E+00  0.0000000E+00  0.2525252E-01  0.7138464E-08  0.0000000E+00 -0.2319075E-04
  0.2272727E+00  0.0000000E+00  0.2525252E-01  0.7265293E-08  0.0000000E+00 -0.2318777E-04
  0.2373737E+00  0.0000000E+00  0.2525252E-01  0.7362972E-08  0.0000000E+00 -0.2318474E-04
  0.2474747E+00  0.0000000E+00  0.2525252E-01  0.7430274E-08  0.0000000E+00 -0.2318168E-04
  0.2575758E+00  0.0000000E+00  0.2525252E-01  0.7466069E-08  0.0000000E+00 -0.2317859E-04
  0.2676768E+00  0.0000000E+00  0.2525252E-01  0.7469345E-08  0.0000000E+00 -0.2317550E-04
  0.2777778E+00  0.0000000E+00  0.2525252E-01  0.7439221E-08  0.0000000E+00 -0.2317241E-04
  0.2878788E+00  0.0000000E+00  0.2525252E-01  0.7374972E-08  0.0000000E+00 -0.2316934E-04
  0.2979798E+00  0.0000000E+00  0.2525252E-01  0.7276044E-08  0.0000000E+00 -0.2316630E-04
  0.3080808E+00  0.0000000E+00  0.2525252E-01  0.7142072E-08  0.0000000E+00 -0.2316331E-04
  0.3181818E+00  0.0000000E+00  0.2525252E-01  0.6972896E-08  0.0000000E+00 -0.2316039E-04
  0.3282828E+00  0.0000000E+00  0.2525252E-01  0.6768576E-08  0.0000000E+00 -0.2315754E-04
  0.3383838E+00  0.0000000E+00  0.2525252E-01  0.6529408E-08  0.0000000E+00 -0.2315478E-04
  0.3484848E+00  0.0000000E+00  0.2525252E-01  0.6255929E-08  0.0000000E+00 -0.2315212E-04
  0.3585859E+00  0.0000000E+00  0.2525252E-01  0.5948930E-08  0.0000000E+00 -0.2314959E-04
  0.3686869E+00  0.0000000E+00  0.2525252E-01  0.5609462E-08  0.0000000E+00 -0.2314719E-04
  0.3787879E+00  0.0000000E+00  0.2525252E-01  0.5238833E-08  0.0000000E+00 -0.2314494E-04
  0.3888889E+00  0.0000000E+00  0.2525252E-01  0.4838611E-08  0.0000000E+00 -0.2314284E-04
  0.3989899E+00  0.0000000E+00  0.2525252E-01  0.4410620E-08  0.0000000E+00 -0.2314092E-04
  0.4090909E+00  0.0000000E+00  0.2525252E-01  0.3956924E-08  0.0000000E+00 -0.2313918E-04
  0.4191919E+00  0.0000000E+00  0.2525252E-01  0.3479825E-08  0.0000000E+00 -0.2313764E-04
  0.4292929E+00  0.0000000E+00  0.2525252E-01  0.2981840E-08  0.0000000E+00 -0.2313629E-04
  0.4393939E+00  0.0000000E+00  0.2525252E-01  0.2465681E-08  0.0000000E+00 -0.2313516E-04
  0.4494950E+00  0.0000000E+00  0.2525252E-01  0.1934236E-08  0.0000000E+00 -0.2313425E-04
  0.4595959E+00  0.0000000E+00  0.2525252E-01  0.1390542E-08  0.0000000E+00 -0.2313355E-04
  0.4696970E+00  0.0000000E+00  0.2525252E-01  0.8377544E-09  0.0000000E+00 -0.2313309E-04
  0.4797980E+00  0.0000000E+00  0.2525252E-01  0.2791170E-09  0.0000000E+00 -0.2313286E-04
  0.4898990E+00  0.0000000E+00  0.2525252E-01 -0.2820685E-09  0.0000000E+00 -0.2313286E-04
  0.5000000E+00  0.0000000E+00  0.2525252E-01 -0.8424774E-09  0.0000000E+00 -0.2313309E-04
  0.5101010E+00  0.0000000E+00  0.2525252E-01 -0.1398796E-08  0.0000000E+00 -0.2313355E-04
  0.5202020E+00  0.0000000E+00  0.2525252E-01 -0.1947754E-08  0.0000000E+00 -0.2313425E-04
  0.5303030E+00  0.0000000E+00  0.2525252E-01 -0.2486160E-08  0.0000000E+00 -0.2313517E-04
  0.5404040E+00  0.0000000E+00  0.2525252E-01 -0.3010929E-08  0.0000000E+00 -0.2313631E-04
  0.5505050E+00  0.0000000E+00  0.2525252E-01 -0.3519117E-08  0.0000000E+00 -0.2313766E-04
  0.5606061E+00  0.0000000E+00  0.2525252E-01 -0.4007945E-08  0.0000000E+00 -0.2313923E-04
  0.5707071E+00  0.0000000E+00  0.2525252E-01 -0.4474823E-08  0.0000000E+00 -0.2314099E-04
  0.5808081E+00  0.0000000E+00  0.2525252E-01 -0.4917377E-08  0.0000000E+00 -0.2314294E-04
  0.5909091E+00  0.0000000E+00  0.2525252E-01 -0.5333458E-08  0.0000000E+00 -0.2314506E-04
  0.6010101E+00  0.0000000E+00  0.2525252E-01 -0.5721166E-08  0.0000000E+00 -0.2314736E-04
  0.6111111E+00  0.0000000E+00  0.2525252E-01 -0.6078852E-08  0.0000000E+00 -0.2314981E-04
  0.6212121E+00  0.0000000E+00  0.2525252E-01 -0.6405131E-08  0.0000000E+00 -0.2315240E-04
  0.6313131E+00  0.0000000E+00  0.2525252E-01 -0.6698879E-08  0.0000000E+00 -0.2315511E-04
  0.6414142E+00  0.0000000E+00  0.2525252E-01 -0.6959238E-08  0.0000000E+00 -0.2315795E-04
  0.6515151E+00  0.0000000E+00  0.2525252E-01 -0.7185608E-08  0.0000000E+00 -0.2316088E-04
  0.6616161E+00  0.0000000E+00  0.2525252E-01 -0.7377642E-08  0.0000000E+00 -0.2316390E-04
  0.6717172E+00  0.0000000E+00  0.2525252E-01 -0.7535233E-08  0.0000000E+00 -0.2316699E-04
  0.6818182E+00  0.0000000E+00  0.2525252E-01 -0.7658502E-08  0.0000000E+00 -0.2317014E-04
  0.6919192E+00  0.0000000E+00  0.2525252E-01 -0.7747785E-08  0.0000000E+00 -0.2317333E-04
  0.7020202E+00  0.0000000E+00  0.2525252E-01 -0.7803616E-08  0.0000000E+00 -0.2317655E-04
  0.7121212E+00  0.0000000E+00  0.2525252E-01 -0.7826704E-08  0.0000000E+00 -0.2317978E-04
  0.7222222E+00  0.0000000E+00  0.2525252E-01 -0.7817922E-08  0.0000000E+00 -0.2318302E-04
  0.7323232E+00  0.0000000E+00  0.2525252E-01 -0.7778279E-08  0.0000000E+00 -0.2318625E-04
  0.7424242E+00  0.0000000E+00  0.2525252E-01 -0.7708906E-08  0.0000000E+00 -0.2318945E-04
  0.7525253E+00  0.0000000E+00  0.2525252E-01 -0.7611034E-08  0.0000000E+00 -0.2319262E-04
  0.7626263E+00  0.0000000E+00  0.2525252E-01 -0.7485975E-08  0.0000000E+00 -0.2319575E-04
  0.7727273E+00  0.0000000E+00  0.2525252E-01 -0.7335102E-08  0.0000000E+00 -0.2319881E-04
  0.7828283E+00  0.0000000E+00  0.2525252E-01 -0.7159834E-08  0.0000000E+00 -0.2320181E-04
  0.7929293E+00  0.0000000E+00  0.2525252E-01 -0.6961617E-08  0.0000000E+00 -0.2320472E-04
  0.8030303E+00  0.0000000E+00  0.2525252E-01 -0.6741907E-08  0.0000000E+00 -0.2320756E-04
  0.8131313E+00  0.0000000E+00  0.2525252E-01 -0.6502163E-08  0.0000000E+00 -0.2321029E-04
  0.8232324E+00  0.0000000E+00  0.2525252E-01 -0.6243825E-08  0.0000000E+00 -0.2321292E-04
  0.8333333E+00  0.0000000E+00  0.2525252E-01 -0.5968312E-08  0.0000000E+00 -0.2321544E-04
  0.8434343E+00  0.0000000E+00  0.2525252E-01 -0.5677007E-08  0.0000000E+00 -0.2321785E-04
  0.8535354E+00  0.0000000E+00  0.2525252E-01 -0.5371250E-08  0.0000000E+00 -0.2322013E-04
  0.8636364E+00  0.0000000E+00  0.2525252E-01 -0.5052335E-08  0.0000000E+00 -0.2322228E-04
  0.8737374E+00  0.0000000E+00  0.2525252E-01 -0.4721503E-08  0.0000000E+00 -0.2322430E-04
  0.8838384E+00  0.0000000E+00  0.2525252E-01 -0.4379939E-08  0.0000000E+00 -0.2322617E-04
  0.8939394E+00  0.0000000E+00  0.2525252E-01 -0.4028770E-08  0.0000000E+00 -0.2322791E-04
  0.9040404E+00  0.0000000E+00  0.2525252E-01 -0.3669066E-08  0.0000000E+00 -0.2322949E-04
  0.9141414E+00  0.0000000E+00  0.2525252E-01 -0.3301841E-08  0.0000000E+00 -0.2323093E-04
  0.9242424E+00  0.0000000E+00  0.2525252E-01 -0.2928052E-08  0.0000000E+00 -0.2323222E-04
  0.9343435E+00  0.0000000E+00  0.2525252E-01 -0.2548606E-08  0.0000000E+00 -0.2323335E-04
  0.9444444E+00  0.0000000E+00  0.2525252E-01 -0.2164362E-08  0.0000000E+00 -0.2323432E-04
  0.9545454E+00  0.0000000E+00  0.2525252E-01 -0.1776134E-08  0.0000000E+00 -0.2323513E-04
  0.9646465E+00  0.0000000E+00  0.2525252E-01 -0.1384701E-08  0.0000000E+00 -0.2323578E-04
  0.9747475E+00  0.0000000E+00  0.2525252E-01 -0.9908087E-09  0.0000000E+00 -0.2323627E-04
  0.9848485E+00  0.0000000E+00  0.2525252E-01 -0.5951782E-09  0.0000000E+00 -0.2323660E-04
  0.9974747E+00  0.0000000E+00  0.2525252E-01 -0.1985124E-09  0.0000000E+00 -0.2323676E-04
  0.5050505E-02  0.0000000E+00  0.3535353E-01  0.2988735E-09  0.0000000E+00 -0.2305514E-04
  0.1515152E-01  0.0000000E+00  0.3535353E-01  0.8958882E-09  0.0000000E+00 -0.2305496E-04
  0.2525252E-01  0.0000000E+00  0.3535353E-01  0.1490658E-08  0.0000000E+00 -0.2305460E-04
  0.3535353E-01  0.0000000E+00  0.3535353E-01  0.2081664E-08  0.0000000E+00 -0.2305406E-04
  0.4545455E-01  0.0000000E+00  0.3535353E-01  0.2667374E-08  0.0000000E+00 -0.2305334E-04
  0.5555556E-01  0.0000000E+00  0.3535353E-01  0.3246226E-08  0.0000000E+00 -0.2305244E-04
  0.6565657E-01  0.0000000E+00  0.3535353E-01  0.3816623E-08  0.0000000E+00 -0.2305137E-04
  0.7575758E-01  0.0000000E+00  0.3535353E-01  0.4376924E-08  0.0000000E+00 -0.2305013E-04
  0.8585858E-01  0.0000000E+00  0.3535353E-01  0.4925445E-08  0.0000000E+00 -0.2304872E-04
  0.9595960E-01  0.0000000E+00  0.3535353E-01  0.5460447E-08  0.0000000E+00 -0.2304715E-04
  0.1060606E+00  0.0000000E+00  0.3535353E-01  0.5980142E-08  0.0000000E+00 -0.2304542E-04
  0.1161616E+00  0.0000000E+00  0.3535353E-01  0.6482685E-08  0.0000000E+00 -0.2304353E-04
  0.1262626E+00  0.0000000E+00  0.3535353E-01  0.6966178E-08  0.0000000E+00 -0.2304149E-04
  0.1363636E+00  0.0000000E+00  0.3535353E-01  0.7428672E-08  0.0000000E+00 -0.2303931E-04
  0.1464646E+00  0.0000000E+00  0.3535353E-01  0.7868171E-08  0.0000000E+00 -0.2303699E-04
  0.1565657E+00  0.0000000E+00  0.3535353E-01  0.8282638E-08  0.0000000E+00 -0.2303453E-04
  0.1666667E+00  0.0000000E+00  0.3535353E-01  0.8670004E-08  0.0000000E+00 -0.2303196E-04
  0.1767677E+00  0.0000000E+00  0.3535353E-01  0.9028181E-08  0.0000000E+00 -0.2302927E-04
  0.1868687E+00  0.0000000E+00  0.3535353E-01  0.9355071E-08  0.0000000E+00 -0.2302648E-04
  0.1969697E+00  0.0000000E+00  0.3535353E-01  0.9648582E-08  0.0000000E+00 -0.2302359E-04
  0.2070707E+00  0.0000000E+00  0.3535353E-01  0.9906648E-08  0.0000000E+00 -0.2302062E-04
  0.2171717E+00  0.0000000E+00  0.3535353E-01  0.1012724E-07  0.0000000E+00 -0.2301757E-04
  0.2272727E+00  0.0000000E+00  0.3535353E-01  0.1030841E-07  0.0000000E+00 -0.2301446E-04
  0.2373737E+00  0.0000000E+00  0.3535353E-01  0.1044828E-07  0.0000000E+00 -0.2301130E-04
  0.2474747E+00  0.0000000E+00  0.3535353E-01  0.1054508E-07  0.0000000E+00 -0.2300810E-04
  0.2575758E+00  0.0000000E+00  0.3535353E-01  0.1059720E-07  0.0000000E+00 -0.2300488E-04
  0.2676768E+00  0.0000000E+00  0.3535353E-01  0.1060318E-07  0.0000000E+00 -0.2300165E-04
  0.2777778E+00  0.0000000E+00  0.3535353E-01  0.1056174E-07  0.0000000E+00 -0.2299842E-04
  0.2878788E+00  0.0000000E+00  0.3535353E-01  0.1047183E-07  0.0000000E+00 -0.2299521E-04
  0.2979798E+00  0.0000000E+00  0.3535353E-01  0.1033265E-07  0.0000000E+00 -0.2299203E-04