title = "dataset water"
variables = "x", "y", "z", "vx", "vy", "vz"
zone t = "velocities, solution time =  1.000E+01 days        " i =   99, j =   99, k =    1,  f=point
  0.5050505E-02  0.0000000E+00  0.5050505E-02  0.8984844E-13  0.0000000E+00 -0.5554249E-04
  0.1515152E-01  0.0000000E+00  0.5050505E-02  0.2663249E-12  0.0000000E+00 -0.5554249E-04
  0.2525252E-01  0.0000000E+00  0.5050505E-02  0.4426060E-12  0.0000000E+00 -0.5554249E-04
  0.3535353E-01  0.0000000E+00  0.5050505E-02  0.6195068E-12  0.0000000E+00 -0.5554248E-04
  0.4545455E-01  0.0000000E+00  0.5050505E-02  0.7974684E-12  0.0000000E+00 -0.5554248E-04
  0.5555556E-01  0.0000000E+00  0.5050505E-02  0.9827533E-12  0.0000000E+00 -0.5554248E-04
  0.6565657E-01  0.0000000E+00  0.5050505E-02  0.1168769E-11  0.0000000E+00 -0.5554248E-04
  0.7575758E-01  0.0000000E+00  0.5050505E-02  0.1353789E-11  0.0000000E+00 -0.5554248E-04
  0.8585858E-01  0.0000000E+00  0.5050505E-02  0.1539522E-11  0.0000000E+00 -0.5554247E-04
  0.9595960E-01  0.0000000E+00  0.5050505E-02  0.1725666E-11  0.0000000E+00 -0.5554247E-04
  0.1060606E+00  0.0000000E+00  0.5050505E-02  0.1909887E-11  0.0000000E+00 -0.5554247E-04
  0.1161616E+00  0.0000000E+00  0.5050505E-02  0.2090830E-11  0.0000000E+00 -0.5554246E-04
  0.1262626E+00  0.0000000E+00  0.5050505E-02  0.2268578E-11  0.0000000E+00 -0.5554246E-04
  0.1363636E+00  0.0000000E+00  0.5050505E-02  0.2439819E-11  0.0000000E+00 -0.5554245E-04
  0.1464646E+00  0.0000000E+00  0.5050505E-02  0.2603269E-11  0.0000000E+00 -0.5554245E-04
  0.1565657E+00  0.0000000E+00  0.5050505E-02  0.2760139E-11  0.0000000E+00 -0.5554244E-04
  0.1666667E+00  0.0000000E+00  0.5050505E-02  0.2910768E-11  0.0000000E+00 -0.5554244E-04
  0.1767677E+00  0.0000000E+00  0.5050505E-02  0.3053805E-11  0.0000000E+00 -0.5554243E-04
  0.1868687E+00  0.0000000E+00  0.5050505E-02  0.3187607E-11  0.0000000E+00 -0.5554243E-04
  0.1969697E+00  0.0000000E+00  0.5050505E-02  0.3310689E-11  0.0000000E+00 -0.5554242E-04
  0.2070707E+00  0.0000000E+00  0.5050505E-02  0.3421637E-11  0.0000000E+00 -0.5554241E-04
  0.2171717E+00  0.0000000E+00  0.5050505E-02  0.3519006E-11  0.0000000E+00 -0.5554241E-04
  0.2272727E+00  0.0000000E+00  0.5050505E-02  0.3601395E-11  0.0000000E+00 -0.5554240E-04
  0.2373737E+00  0.0000000E+00  0.5050505E-02  0.3667562E-11  0.0000000E+00 -0.5554239E-04
  0.2474747E+00  0.0000000E+00  0.5050505E-02  0.3716377E-11  0.0000000E+00 -0.5554238E-04
  0.2575758E+00  0.0000000E+00  0.5050505E-02  0.3747052E-11  0.0000000E+00 -0.5554238E-04
  0.2676768E+00  0.0000000E+00  0.5050505E-02  0.3759064E-11  0.0000000E+00 -0.5554237E-04
  0.2777778E+00  0.0000000E+00  0.5050505E-02  0.3752016E-11  0.0000000E+00 -0.5554236E-04
  0.2878788E+00  0.0000000E+00  0.5050505E-02  0.3725637E-11  0.0000000E+00 -0.5554235E-04
  0.2979798E+00  0.0000000E+00  0.5050505E-02  0.3679811E-11  0.0000000E+00 -0.5554235E-04
  0.3080808E+00  0.0000000E+00  0.5050505E-02  0.3614611E-11  0.0000000E+00 -0.5554234E-04
  0.3181818E+00  0.0000000E+00  0.5050505E-02  0.3530268E-11  0.0000000E+00 -0.5554233E-04
  0.3282828E+00  0.0000000E+00  0.5050505E-02  0.3427187E-11  0.0000000E+00 -0.5554232E-04
  0.3383838E+00  0.0000000E+00  0.5050505E-02  0.3305912E-11  0.0000000E+00 -0.5554232E-04
  0.3484848E+00  0.0000000E+00  0.5050505E-02  0.3167114E-11  0.0000000E+00 -0.5554231E-04
  0.3585859E+00  0.0000000E+00  0.5050505E-02  0.3011616E-11  0.0000000E+00 -0.5554230E-04
  0.3686869E+00  0.0000000E+00  0.5050505E-02  0.2840360E-11  0.0000000E+00 -0.5554230E-04
  0.3787879E+00  0.0000000E+00  0.5050505E-02  0.2654445E-11  0.0000000E+00 -0.5554229E-04
  0.3888889E+00  0.0000000E+00  0.5050505E-02  0.2455129E-11  0.0000000E+00 -0.5554229E-04
  0.3989899E+00  0.0000000E+00  0.5050505E-02  0.2243797E-11  0.0000000E+00 -0.5554228E-04
  0.4090909E+00  0.0000000E+00  0.5050505E-02  0.2021997E-11  0.0000000E+00 -0.5554228E-04
  0.4191919E+00  0.0000000E+00  0.5050505E-02  0.1791374E-11  0.0000000E+00 -0.5554228E-04
  0.4292929E+00  0.0000000E+00  0.5050505E-02  0.1553611E-11  0.0000000E+00 -0.5554227E-04
  0.4393939E+00  0.0000000E+00  0.5050505E-02  0.1310333E-11  0.0000000E+00 -0.5554227E-04
  0.4494950E+00  0.0000000E+00  0.5050505E-02  0.1063186E-11  0.0000000E+00 -0.5554227E-04
  0.4595959E+00  0.0000000E+00  0.5050505E-02  0.8134634E-12  0.0000000E+00 -0.5554226E-04
  0.4696970E+00  0.0000000E+00  0.5050505E-02  0.5620916E-12  0.0000000E+00 -0.5554226E-04
  0.4797980E+00  0.0000000E+00  0.5050505E-02  0.3097618E-12  0.0000000E+00 -0.5554226E-04
  0.4898990E+00  0.0000000E+00  0.5050505E-02  0.5704546E-13  0.0000000E+00 -0.5554226E-04
  0.5000000E+00  0.0000000E+00  0.5050505E-02 -0.1956856E-12  0.0000000E+00 -0.5554226E-04
  0.5101010E+00  0.0000000E+00  0.5050505E-02 -0.4477801E-12  0.0000000E+00 -0.5554226E-04
  0.5202020E+00  0.0000000E+00  0.5050505E-02 -0.6982108E-12  0.0000000E+00 -0.5554226E-04
  0.5303030E+00  0.0000000E+00  0.5050505E-02 -0.9462887E-12  0.0000000E+00 -0.5554227E-04
  0.5404040E+00  0.0000000E+00  0.5050505E-02 -0.1191180E-11  0.0000000E+00 -0.5554227E-04
  0.5505050E+00  0.0000000E+00  0.5050505E-02 -0.1432117E-11  0.0000000E+00 -0.5554227E-04
  0.5606061E+00  0.0000000E+00  0.5050505E-02 -0.1667358E-11  0.0000000E+00 -0.5554227E-04
  0.5707071E+00  0.0000000E+00  0.5050505E-02 -0.1895348E-11  0.0000000E+00 -0.5554228E-04
  0.5808081E+00  0.0000000E+00  0.5050505E-02 -0.2117291E-11  0.0000000E+00 -0.5554228E-04
  0.5909091E+00  0.0000000E+00  0.5050505E-02 -0.2331226E-11  0.0000000E+00 -0.5554229E-04
  0.6010101E+00  0.0000000E+00  0.5050505E-02 -0.2535963E-11  0.0000000E+00 -0.5554229E-04
  0.6111111E+00  0.0000000E+00  0.5050505E-02 -0.2730851E-11  0.0000000E+00 -0.5554230E-04
  0.6212121E+00  0.0000000E+00  0.5050505E-02 -0.2915022E-11  0.0000000E+00 -0.5554230E-04
  0.6313131E+00  0.0000000E+00  0.5050505E-02 -0.3087232E-11  0.0000000E+00 -0.5554231E-04
  0.6414142E+00  0.0000000E+00  0.5050505E-02 -0.3246012E-11  0.0000000E+00 -0.5554231E-04
  0.6515151E+00  0.0000000E+00  0.5050505E-02 -0.3389946E-11  0.0000000E+00 -0.5554232E-04
  0.6616161E+00  0.0000000E+00  0.5050505E-02 -0.3517882E-11  0.0000000E+00 -0.5554233E-04
  0.6717172E+00  0.0000000E+00  0.5050505E-02 -0.3628950E-11  0.0000000E+00 -0.5554233E-04
  0.6818182E+00  0.0000000E+00  0.5050505E-02 -0.3722490E-11  0.0000000E+00 -0.5554234E-04
  0.6919192E+00  0.0000000E+00  0.5050505E-02 -0.3798049E-11  0.0000000E+00 -0.5554235E-04
  0.7020202E+00  0.0000000E+00  0.5050505E-02 -0.3855380E-11  0.0000000E+00 -0.5554236E-04
  0.7121212E+00  0.0000000E+00  0.5050505E-02 -0.3894248E-11  0.0000000E+00 -0.5554237E-04
  0.7222222E+00  0.0000000E+00  0.5050505E-02 -0.3914688E-11  0.0000000E+00 -0.5554237E-04
  0.7323232E+00  0.0000000E+00  0.5050505E-02 -0.3916898E-11  0.0000000E+00 -0.5554238E-04
  0.7424242E+00  0.0000000E+00  0.5050505E-02 -0.3901164E-11  0.0000000E+00 -0.5554239E-04
  0.7525253E+00  0.0000000E+00  0.5050505E-02 -0.3867833E-11  0.0000000E+00 -0.5554240E-04
  0.7626263E+00  0.0000000E+00  0.5050505E-02 -0.3817374E-11  0.0000000E+00 -0.5554240E-04
  0.7727273E+00  0.0000000E+00  0.5050505E-02 -0.3750377E-11  0.0000000E+00 -0.5554241E-04
  0.7828283E+00  0.0000000E+00  0.5050505E-02 -0.3667537E-11  0.0000000E+00 -0.5554242E-04
  0.7929293E+00  0.0000000E+00  0.5050505E-02 -0.3569653E-11  0.0000000E+00 -0.5554243E-04
  0.8030303E+00  0.0000000E+00  0.5050505E-02 -0.3457608E-11  0.0000000E+00 -0.5554243E-04
  0.8131313E+00  0.0000000E+00  0.5050505E-02 -0.3332358E-11  0.0000000E+00 -0.5554244E-04
  0.8232324E+00  0.0000000E+00  0.5050505E-02 -0.3194951E-11  0.0000000E+00 -0.5554245E-04
  0.8333333E+00  0.0000000E+00  0.5050505E-02 -0.3046497E-11  0.0000000E+00 -0.5554245E-04
  0.8434343E+00  0.0000000E+00  0.5050505E-02 -0.2888181E-11  0.0000000E+00 -0.5554246E-04
  0.8535354E+00  0.0000000E+00  0.5050505E-02 -0.2721246E-11  0.0000000E+00 -0.5554247E-04
  0.8636364E+00  0.0000000E+00  0.5050505E-02 -0.2546990E-11  0.0000000E+00 -0.5554247E-04
  0.8737374E+00  0.0000000E+00  0.5050505E-02 -0.2366709E-11  0.0000000E+00 -0.5554248E-04
  0.8838384E+00  0.0000000E+00  0.5050505E-02 -0.2181681E-11  0.0000000E+00 -0.5554248E-04
  0.8939394E+00  0.0000000E+00  0.5050505E-02 -0.1993144E-11  0.0000000E+00 -0.5554248E-04
  0.9040404E+00  0.0000000E+00  0.5050505E-02 -0.1802216E-11  0.0000000E+00 -0.5554249E-04
  0.9141414E+00  0.0000000E+00  0.5050505E-02 -0.1609890E-11  0.0000000E+00 -0.5554249E-04
  0.9242424E+00  0.0000000E+00  0.5050505E-02 -0.1417164E-11  0.0000000E+00 -0.5554249E-04
  0.9343435E+00  0.0000000E+00  0.5050505E-02 -0.1224724E-11  0.0000000E+00 -0.5554250E-04
  0.9444444E+00  0.0000000E+00  0.5050505E-02 -0.1032946E-11  0.0000000E+00 -0.5554250E-04
  0.9545454E+00  0.0000000E+00  0.5050505E-02 -0.8426574E-12  0.0000000E+00 -0.5554250E-04
  0.9646465E+00  0.0000000E+00  0.5050505E-02 -0.6532173E-12  0.0000000E+00 -0.5554250E-04
  0.9747475E+00  0.0000000E+00  0.5050505E-02 -0.4649851E-12  0.0000000E+00 -0.5554250E-04
  0.9848485E+00  0.0000000E+00  0.5050505E-02 -0.2778873E-12  0.0000000E+00 -0.5554250E-04
  0.9974747E+00  0.0000000E+00  0.5050505E-02 -0.9100805E-13  0.0000000E+00 -0.5554251E-04
  0.5050505E-02  0.0000000E+00  0.1515152E-01  0.2715144E-12  0.0000000E+00 -0.5528495E-04
  0.1515152E-01  0.0000000E+00  0.1515152E-01  0.8042016E-12  0.0000000E+00 -0.5528495E-04
  0.2525252E-01  0.0000000E+00  0.1515152E-01  0.1337505E-11  0.0000000E+00 -0.5528495E-04
  0.3535353E-01  0.0000000E+00  0.1515152E-01  0.1874271E-11  0.0000000E+00 -0.5528495E-04
  0.4545455E-01  0.0000000E+00  0.1515152E-01  0.2412364E-11  0.0000000E+00 -0.5528495E-04
  0.5555556E-01  0.0000000E+00  0.1515152E-01  0.2969523E-11  0.0000000E+00 -0.5528495E-04
  0.6565657E-01  0.0000000E+00  0.1515152E-01  0.3532213E-11  0.0000000E+00 -0.5528494E-04
  0.7575758E-01  0.0000000E+00  0.1515152E-01  0.4093285E-11  0.0000000E+00 -0.5528494E-04
  0.8585858E-01  0.0000000E+00  0.1515152E-01  0.4655190E-11  0.0000000E+00 -0.5528494E-04
  0.9595960E-01  0.0000000E+00  0.1515152E-01  0.5217409E-11  0.0000000E+00 -0.5528494E-04
  0.1060606E+00  0.0000000E+00  0.1515152E-01  0.5772795E-11  0.0000000E+00 -0.5528493E-04
  0.1161616E+00  0.0000000E+00  0.1515152E-01  0.6317584E-11  0.0000000E+00 -0.5528493E-04
  0.1262626E+00  0.0000000E+00  0.1515152E-01  0.6852200E-11  0.0000000E+00 -0.5528492E-04
  0.1363636E+00  0.0000000E+00  0.1515152E-01  0.7369427E-11  0.0000000E+00 -0.5528492E-04
  0.1464646E+00  0.0000000E+00  0.1515152E-01  0.7864455E-11  0.0000000E+00 -0.5528491E-04
  0.1565657E+00  0.0000000E+00  0.1515152E-01  0.8339025E-11  0.0000000E+00 -0.5528491E-04
  0.1666667E+00  0.0000000E+00  0.1515152E-01  0.8793616E-11  0.0000000E+00 -0.5528490E-04
  0.1767677E+00  0.0000000E+00  0.1515152E-01  0.9224930E-11  0.0000000E+00 -0.5528490E-04
  0.1868687E+00  0.0000000E+00  0.1515152E-01  0.9628490E-11  0.0000000E+00 -0.5528489E-04
  0.1969697E+00  0.0000000E+00  0.1515152E-01  0.9999805E-11  0.0000000E+00 -0.5528488E-04
  0.2070707E+00  0.0000000E+00  0.1515152E-01  0.1033446E-10  0.0000000E+00 -0.5528488E-04
  0.2171717E+00  0.0000000E+00  0.1515152E-01  0.1062806E-10  0.0000000E+00 -0.5528487E-04
  0.2272727E+00  0.0000000E+00  0.1515152E-01  0.1087639E-10  0.0000000E+00 -0.5528486E-04
  0.2373737E+00  0.0000000E+00  0.1515152E-01  0.1107581E-10  0.0000000E+00 -0.5528485E-04
  0.2474747E+00  0.0000000E+00  0.1515152E-01  0.1122292E-10  0.0000000E+00 -0.5528485E-04
  0.2575758E+00  0.0000000E+00  0.1515152E-01  0.1131534E-10  0.0000000E+00 -0.5528484E-04
  0.2676768E+00  0.0000000E+00  0.1515152E-01  0.1135150E-10  0.0000000E+00 -0.5528483E-04
  0.2777778E+00  0.0000000E+00  0.1515152E-01  0.1133019E-10  0.0000000E+00 -0.5528482E-04
  0.2878788E+00  0.0000000E+00  0.1515152E-01  0.1125059E-10  0.0000000E+00 -0.5528482E-04
  0.2979798E+00  0.0000000E+00  0.1515152E-01  0.1111235E-10  0.0000000E+00 -0.5528481E-04
  0.3080808E+00  0.0000000E+00  0.1515152E-01  0.1091566E-10  0.0000000E+00 -0.5528480E-04
  0.3181818E+00  0.0000000E+00  0.1515152E-01  0.1066121E-10  0.0000000E+00 -0.5528479E-04
  0.3282828E+00  0.0000000E+00  0.1515152E-01  0.1035020E-10  0.0000000E+00 -0.5528479E-04
  0.3383838E+00  0.0000000E+00  0.1515152E-01  0.9984246E-11  0.0000000E+00 -0.5528478E-04
  0.3484848E+00  0.0000000E+00  0.1515152E-01  0.9565370E-11  0.0000000E+00 -0.5528477E-04
  0.3585859E+00  0.0000000E+00  0.1515152E-01  0.9096005E-11  0.0000000E+00 -0.5528477E-04
  0.3686869E+00  0.0000000E+00  0.1515152E-01  0.8579002E-11  0.0000000E+00 -0.5528476E-04
  0.3787879E+00  0.0000000E+00  0.1515152E-01  0.8017655E-11  0.0000000E+00 -0.5528475E-04
  0.3888889E+00  0.0000000E+00  0.1515152E-01  0.7415750E-11  0.0000000E+00 -0.5528475E-04
  0.3989899E+00  0.0000000E+00  0.1515152E-01  0.6777507E-11  0.0000000E+00 -0.5528474E-04
  0.4090909E+00  0.0000000E+00  0.1515152E-01  0.6107576E-11  0.0000000E+00 -0.5528474E-04
  0.4191919E+00  0.0000000E+00  0.1515152E-01  0.5410960E-11  0.0000000E+00 -0.5528474E-04
  0.4292929E+00  0.0000000E+00  0.1515152E-01  0.4692786E-11  0.0000000E+00 -0.5528473E-04
  0.4393939E+00  0.0000000E+00  0.1515152E-01  0.3957965E-11  0.0000000E+00 -0.5528473E-04
  0.4494950E+00  0.0000000E+00  0.1515152E-01  0.3211393E-11  0.0000000E+00 -0.5528473E-04
  0.4595959E+00  0.0000000E+00  0.1515152E-01  0.2456968E-11  0.0000000E+00 -0.5528472E-04
  0.4696970E+00  0.0000000E+00  0.1515152E-01  0.1697445E-11  0.0000000E+00 -0.5528472E-04
  0.4797980E+00  0.0000000E+00  0.1515152E-01  0.9348317E-12  0.0000000E+00 -0.5528472E-04
  0.4898990E+00  0.0000000E+00  0.1515152E-01  0.1707333E-12  0.0000000E+00 -0.5528472E-04
  0.5000000E+00  0.0000000E+00  0.1515152E-01 -0.5935275E-12  0.0000000E+00 -0.5528472E-04
  0.5101010E+00  0.0000000E+00  0.1515152E-01 -0.1355960E-11  0.0000000E+00 -0.5528472E-04
  0.5202020E+00  0.0000000E+00  0.1515152E-01 -0.2113522E-11  0.0000000E+00 -0.5528472E-04
  0.5303030E+00  0.0000000E+00  0.1515152E-01 -0.2863857E-11  0.0000000E+00 -0.5528473E-04
  0.5404040E+00  0.0000000E+00  0.1515152E-01 -0.3604129E-11  0.0000000E+00 -0.5528473E-04
  0.5505050E+00  0.0000000E+00  0.1515152E-01 -0.4331751E-11  0.0000000E+00 -0.5528473E-04
  0.5606061E+00  0.0000000E+00  0.1515152E-01 -0.5043524E-11  0.0000000E+00 -0.5528473E-04
  0.5707071E+00  0.0000000E+00  0.1515152E-01 -0.5732126E-11  0.0000000E+00 -0.5528474E-04
  0.5808081E+00  0.0000000E+00  0.1515152E-01 -0.6401635E-11  0.0000000E+00 -0.5528474E-04
  0.5909091E+00  0.0000000E+00  0.1515152E-01 -0.7047089E-11  0.0000000E+00 -0.5528475E-04
  0.6010101E+00  0.0000000E+00  0.1515152E-01 -0.7665233E-11  0.0000000E+00 -0.5528475E-04
  0.6111111E+00  0.0000000E+00  0.1515152E-01 -0.8253618E-11  0.0000000E+00 -0.5528476E-04
  0.6212121E+00  0.0000000E+00  0.1515152E-01 -0.8809308E-11  0.0000000E+00 -0.5528476E-04
  0.6313131E+00  0.0000000E+00  0.1515152E-01 -0.9328528E-11  0.0000000E+00 -0.5528477E-04
  0.6414142E+00  0.0000000E+00  0.1515152E-01 -0.9807012E-11  0.0000000E+00 -0.5528478E-04
  0.6515151E+00  0.0000000E+00  0.1515152E-01 -0.1024061E-10  0.0000000E+00 -0.5528478E-04
  0.6616161E+00  0.0000000E+00  0.1515152E-01 -0.1062584E-10  0.0000000E+00 -0.5528479E-04
  0.6717172E+00  0.0000000E+00  0.1515152E-01 -0.1096012E-10  0.0000000E+00 -0.5528480E-04
  0.6818182E+00  0.0000000E+00  0.1515152E-01 -0.1124150E-10  0.0000000E+00 -0.5528480E-04
  0.6919192E+00  0.0000000E+00  0.1515152E-01 -0.1146862E-10  0.0000000E+00 -0.5528481E-04
  0.7020202E+00  0.0000000E+00  0.1515152E-01 -0.1164073E-10  0.0000000E+00 -0.5528482E-04
  0.7121212E+00  0.0000000E+00  0.1515152E-01 -0.1175719E-10  0.0000000E+00 -0.5528483E-04
  0.7222222E+00  0.0000000E+00  0.1515152E-01 -0.1181809E-10  0.0000000E+00 -0.5528484E-04
  0.7323232E+00  0.0000000E+00  0.1515152E-01 -0.1182401E-10  0.0000000E+00 -0.5528484E-04
  0.7424242E+00  0.0000000E+00  0.1515152E-01 -0.1177582E-10  0.0000000E+00 -0.5528485E-04
  0.7525253E+00  0.0000000E+00  0.1515152E-01 -0.1167460E-10  0.0000000E+00 -0.5528486E-04
  0.7626263E+00  0.0000000E+00  0.1515152E-01 -0.1152178E-10  0.0000000E+00 -0.5528487E-04
  0.7727273E+00  0.0000000E+00  0.1515152E-01 -0.1131915E-10  0.0000000E+00 -0.5528488E-04
  0.7828283E+00  0.0000000E+00  0.1515152E-01 -0.1106881E-10  0.0000000E+00 -0.5528488E-04
  0.7929293E+00  0.0000000E+00  0.1515152E-01 -0.1077316E-10  0.0000000E+00 -0.5528489E-04
  0.8030303E+00  0.0000000E+00  0.1515152E-01 -0.1043487E-10  0.0000000E+00 -0.5528490E-04
  0.8131313E+00  0.0000000E+00  0.1515152E-01 -0.1005683E-10  0.0000000E+00 -0.5528490E-04
  0.8232324E+00  0.0000000E+00  0.1515152E-01 -0.9642158E-11  0.0000000E+00 -0.5528491E-04
  0.8333333E+00  0.0000000E+00  0.1515152E-01 -0.9194212E-11  0.0000000E+00 -0.5528492E-04
  0.8434343E+00  0.0000000E+00  0.1515152E-01 -0.8716556E-11  0.0000000E+00 -0.5528492E-04
  0.8535354E+00  0.0000000E+00  0.1515152E-01 -0.8212918E-11  0.0000000E+00 -0.5528493E-04
  0.8636364E+00  0.0000000E+00  0.1515152E-01 -0.7687211E-11  0.0000000E+00 -0.5528494E-04
  0.8737374E+00  0.0000000E+00  0.1515152E-01 -0.7143337E-11  0.0000000E+00 -0.5528494E-04
  0.8838384E+00  0.0000000E+00  0.1515152E-01 -0.6585113E-11  0.0000000E+00 -0.5528494E-04
  0.8939394E+00  0.0000000E+00  0.1515152E-01 -0.6016263E-11  0.0000000E+00 -0.5528495E-04
  0.9040404E+00  0.0000000E+00  0.1515152E-01 -0.5440197E-11  0.0000000E+00 -0.5528495E-04
  0.9141414E+00  0.0000000E+00  0.1515152E-01 -0.4859937E-11  0.0000000E+00 -0.5528496E-04
  0.9242424E+00  0.0000000E+00  0.1515152E-01 -0.4278484E-11  0.0000000E+00 -0.5528496E-04
  0.9343435E+00  0.0000000E+00  0.1515152E-01 -0.3697854E-11  0.0000000E+00 -0.5528496E-04
  0.9444444E+00  0.0000000E+00  0.1515152E-01 -0.3119214E-11  0.0000000E+00 -0.5528496E-04
  0.9545454E+00  0.0000000E+00  0.1515152E-01 -0.2544596E-11  0.0000000E+00 -0.5528497E-04
  0.9646465E+00  0.0000000E+00  0.1515152E-01 -0.1973642E-11  0.0000000E+00 -0.5528497E-04
  0.9747475E+00  0.0000000E+00  0.1515152E-01 -0.1405735E-11  0.0000000E+00 -0.5528497E-04
  0.9848485E+00  0.0000000E+00  0.1515152E-01 -0.8408520E-12  0.0000000E+00 -0.5528497E-04
  0.9974747E+00  0.0000000E+00  0.1515152E-01 -0.2758920E-12  0.0000000E+00 -0.5528497E-04
  0.5050505E-02  0.0000000E+00  0.2525252E-01  0.4590915E-12  0.0000000E+00 -0.5477413E-04
  0.1515152E-01  0.0000000E+00  0.2525252E-01  0.1360008E-11  0.0000000E+00 -0.5477413E-04
  0.2525252E-01  0.0000000E+00  0.2525252E-01  0.2264251E-11  0.0000000E+00 -0.5477413E-04
  0.3535353E-01  0.0000000E+00  0.2525252E-01  0.3175966E-11  0.0000000E+00 -0.5477413E-04
  0.4545455E-01  0.0000000E+00  0.2525252E-01  0.4089024E-11  0.0000000E+00 -0.5477412E-04
  0.5555556E-01  0.0000000E+00  0.2525252E-01  0.5026888E-11  0.0000000E+00 -0.5477412E-04
  0.6565657E-01  0.0000000E+00  0.2525252E-01  0.5979237E-11  0.0000000E+00 -0.5477412E-04
  0.7575758E-01  0.0000000E+00  0.2525252E-01  0.6931501E-11  0.0000000E+00 -0.5477412E-04
  0.8585858E-01  0.0000000E+00  0.2525252E-01  0.7882408E-11  0.0000000E+00 -0.5477411E-04
  0.9595960E-01  0.0000000E+00  0.2525252E-01  0.8832746E-11  0.0000000E+00 -0.5477411E-04
  0.1060606E+00  0.0000000E+00  0.2525252E-01  0.9769376E-11  0.0000000E+00 -0.5477411E-04
  0.1161616E+00  0.0000000E+00  0.2525252E-01  0.1068662E-10  0.0000000E+00 -0.5477410E-04
  0.1262626E+00  0.0000000E+00  0.2525252E-01  0.1158608E-10  0.0000000E+00 -0.5477410E-04
  0.1363636E+00  0.0000000E+00  0.2525252E-01  0.1245920E-10  0.0000000E+00 -0.5477409E-04
  0.1464646E+00  0.0000000E+00  0.2525252E-01  0.1329776E-10  0.0000000E+00 -0.5477409E-04
  0.1565657E+00  0.0000000E+00  0.2525252E-01  0.1410134E-10  0.0000000E+00 -0.5477408E-04
  0.1666667E+00  0.0000000E+00  0.2525252E-01  0.1486905E-10  0.0000000E+00 -0.5477408E-04
  0.1767677E+00  0.0000000E+00  0.2525252E-01  0.1559637E-10  0.0000000E+00 -0.5477407E-04
  0.1868687E+00  0.0000000E+00  0.2525252E-01  0.1627671E-10  0.0000000E+00 -0.5477406E-04
  0.1969697E+00  0.0000000E+00  0.2525252E-01  0.1690267E-10  0.0000000E+00 -0.5477406E-04
  0.2070707E+00  0.0000000E+00  0.2525252E-01  0.1746667E-10  0.0000000E+00 -0.5477405E-04
  0.2171717E+00  0.0000000E+00  0.2525252E-01  0.1796122E-10  0.0000000E+00 -0.5477404E-04
  0.2272727E+00  0.0000000E+00  0.2525252E-01  0.1837931E-10  0.0000000E+00 -0.5477403E-04
  0.2373737E+00  0.0000000E+00  0.2525252E-01  0.1871499E-10  0.0000000E+00 -0.5477402E-04
  0.2474747E+00  0.0000000E+00  0.2525252E-01  0.1896260E-10  0.0000000E+00 -0.5477402E-04
  0.2575758E+00  0.0000000E+00  0.2525252E-01  0.1911814E-10  0.0000000E+00 -0.5477401E-04
  0.2676768E+00  0.0000000E+00  0.2525252E-01  0.1917890E-10  0.0000000E+00 -0.5477400E-04
  0.2777778E+00  0.0000000E+00  0.2525252E-01  0.1914283E-10  0.0000000E+00 -0.5477399E-04
  0.2878788E+00  0.0000000E+00  0.2525252E-01  0.1900854E-10  0.0000000E+00 -0.5477398E-04
  0.2979798E+00  0.0000000E+00  0.2525252E-01  0.1877543E-10  0.0000000E+00 -0.5477398E-04
  0.3080808E+00  0.0000000E+00  0.2525252E-01  0.1844374E-10  0.0000000E+00 -0.5477397E-04
  0.3181818E+00  0.0000000E+00  0.2525252E-01  0.1801462E-10  0.0000000E+00 -0.5477396E-04
  0.3282828E+00  0.0000000E+00  0.2525252E-01  0.1749002E-10  0.0000000E+00 -0.5477395E-04
  0.3383838E+00  0.0000000E+00  0.2525252E-01  0.1687260E-10  0.0000000E+00 -0.5477395E-04
  0.3484848E+00  0.0000000E+00  0.2525252E-01  0.1616572E-10  0.0000000E+00 -0.5477394E-04
  0.3585859E+00  0.0000000E+00  0.2525252E-01  0.1537341E-10  0.0000000E+00 -0.5477393E-04
  0.3686869E+00  0.0000000E+00  0.2525252E-01  0.1450043E-10  0.0000000E+00 -0.5477393E-04
  0.3787879E+00  0.0000000E+00  0.2525252E-01  0.1355231E-10  0.0000000E+00 -0.5477392E-04
  0.3888889E+00  0.0000000E+00  0.2525252E-01  0.1253543E-10  0.0000000E+00 -0.5477392E-04
  0.3989899E+00  0.0000000E+00  0.2525252E-01  0.1145696E-10  0.0000000E+00 -0.5477391E-04
  0.4090909E+00  0.0000000E+00  0.2525252E-01  0.1032474E-10  0.0000000E+00 -0.5477391E-04
  0.4191919E+00  0.0000000E+00  0.2525252E-01  0.9147283E-11  0.0000000E+00 -0.5477390E-04
  0.4292929E+00  0.0000000E+00  0.2525252E-01  0.7933337E-11  0.0000000E+00 -0.5477390E-04
  0.4393939E+00  0.0000000E+00  0.2525252E-01  0.6691198E-11  0.0000000E+00 -0.5477389E-04
  0.4494950E+00  0.0000000E+00  0.2525252E-01  0.5428937E-11  0.0000000E+00 -0.5477389E-04
  0.4595959E+00  0.0000000E+00  0.2525252E-01  0.4153071E-11  0.0000000E+00 -0.5477389E-04
  0.4696970E+00  0.0000000E+00  0.2525252E-01  0.2868107E-11  0.0000000E+00 -0.5477389E-04
  0.4797980E+00  0.0000000E+00  0.2525252E-01  0.1577251E-11  0.0000000E+00 -0.5477389E-04
  0.4898990E+00  0.0000000E+00  0.2525252E-01  0.2829904E-12  0.0000000E+00 -0.5477389E-04
  0.5000000E+00  0.0000000E+00  0.2525252E-01 -0.1011947E-11  0.0000000E+00 -0.5477389E-04
  0.5101010E+00  0.0000000E+00  0.2525252E-01 -0.2303952E-11  0.0000000E+00 -0.5477389E-04
  0.5202020E+00  0.0000000E+00  0.2525252E-01 -0.3587899E-11  0.0000000E+00 -0.5477389E-04
  0.5303030E+00  0.0000000E+00  0.2525252E-01 -0.4859575E-11  0.0000000E+00 -0.5477389E-04
  0.5404040E+00  0.0000000E+00  0.2525252E-01 -0.6113266E-11  0.0000000E+00 -0.5477389E-04
  0.5505050E+00  0.0000000E+00  0.2525252E-01 -0.7343158E-11  0.0000000E+00 -0.5477390E-04
  0.5606061E+00  0.0000000E+00  0.2525252E-01 -0.8547424E-11  0.0000000E+00 -0.5477390E-04
  0.5707071E+00  0.0000000E+00  0.2525252E-01 -0.9712500E-11  0.0000000E+00 -0.5477390E-04
  0.5808081E+00  0.0000000E+00  0.2525252E-01 -0.1084251E-10  0.0000000E+00 -0.5477391E-04
  0.5909091E+00  0.0000000E+00  0.2525252E-01 -0.1193170E-10  0.0000000E+00 -0.5477391E-04
  0.6010101E+00  0.0000000E+00  0.2525252E-01 -0.1297511E-10  0.0000000E+00 -0.5477392E-04
  0.6111111E+00  0.0000000E+00  0.2525252E-01 -0.1396808E-10  0.0000000E+00 -0.5477392E-04
  0.6212121E+00  0.0000000E+00  0.2525252E-01 -0.1490516E-10  0.0000000E+00 -0.5477393E-04
  0.6313131E+00  0.0000000E+00  0.2525252E-01 -0.1577984E-10  0.0000000E+00 -0.5477394E-04
  0.6414142E+00  0.0000000E+00  0.2525252E-01 -0.1658515E-10  0.0000000E+00 -0.5477394E-04
  0.6515151E+00  0.0000000E+00  0.2525252E-01 -0.1731433E-10  0.0000000E+00 -0.5477395E-04
  0.6616161E+00  0.0000000E+00  0.2525252E-01 -0.1796166E-10  0.0000000E+00 -0.5477396E-04
  0.6717172E+00  0.0000000E+00  0.2525252E-01 -0.1852283E-10  0.0000000E+00 -0.5477397E-04
  0.6818182E+00  0.0000000E+00  0.2525252E-01 -0.1899465E-10  0.0000000E+00 -0.5477397E-04
  0.6919192E+00  0.0000000E+00  0.2525252E-01 -0.1937489E-10  0.0000000E+00 -0.5477398E-04
  0.7020202E+00  0.0000000E+00  0.2525252E-01 -0.1966234E-10  0.0000000E+00 -0.5477399E-04
  0.7121212E+00  0.0000000E+00  0.2525252E-01 -0.1985602E-10  0.0000000E+00 -0.5477400E-04
  0.7222222E+00  0.0000000E+00  0.2525252E-01 -0.1995610E-10  0.0000000E+00 -0.5477401E-04
  0.7323232E+00  0.0000000E+00  0.2525252E-01 -0.1996356E-10  0.0000000E+00 -0.5477401E-04
  0.7424242E+00  0.0000000E+00  0.2525252E-01 -0.1987988E-10  0.0000000E+00 -0.5477402E-04
  0.7525253E+00  0.0000000E+00  0.2525252E-01 -0.1970696E-10  0.0000000E+00 -0.5477403E-04
  0.7626263E+00  0.0000000E+00  0.2525252E-01 -0.1944727E-10  0.0000000E+00 -0.5477404E-04
  0.7727273E+00  0.0000000E+00  0.2525252E-01 -0.1910383E-10  0.0000000E+00 -0.5477405E-04
  0.7828283E+00  0.0000000E+00  0.2525252E-01 -0.1868021E-10  0.0000000E+00 -0.5477406E-04
  0.7929293E+00  0.0000000E+00  0.2525252E-01 -0.1818047E-10  0.0000000E+00 -0.5477406E-04
  0.8030303E+00  0.0000000E+00  0.2525252E-01 -0.1760908E-10  0.0000000E+00 -0.5477407E-04
  0.8131313E+00  0.0000000E+00  0.2525252E-01 -0.1697090E-10  0.0000000E+00 -0.5477408E-04
  0.8232324E+00  0.0000000E+00  0.2525252E-01 -0.1627118E-10  0.0000000E+00 -0.5477409E-04
  0.8333333E+00  0.0000000E+00  0.2525252E-01 -0.1551551E-10  0.0000000E+00 -0.5477409E-04
  0.8434343E+00  0.0000000E+00  0.2525252E-01 -0.1470986E-10  0.0000000E+00 -0.5477410E-04
  0.8535354E+00  0.0000000E+00  0.2525252E-01 -0.1386051E-10  0.0000000E+00 -0.5477410E-04
  0.8636364E+00  0.0000000E+00  0.2525252E-01 -0.1297399E-10  0.0000000E+00 -0.5477411E-04
  0.8737374E+00  0.0000000E+00  0.2525252E-01 -0.1205686E-10  0.0000000E+00 -0.5477412E-04
  0.8838384E+00  0.0000000E+00  0.2525252E-01 -0.1111551E-10  0.0000000E+00 -0.5477412E-04
  0.8939394E+00  0.0000000E+00  0.2525252E-01 -0.1015612E-10  0.0000000E+00 -0.5477412E-04
  0.9040404E+00  0.0000000E+00  0.2525252E-01 -0.9184508E-11  0.0000000E+00 -0.5477413E-04
  0.9141414E+00  0.0000000E+00  0.2525252E-01 -0.8205885E-11  0.0000000E+00 -0.5477413E-04
  0.9242424E+00  0.0000000E+00  0.2525252E-01 -0.7225324E-11  0.0000000E+00 -0.5477414E-04
  0.9343435E+00  0.0000000E+00  0.2525252E-01 -0.6245971E-11  0.0000000E+00 -0.5477414E-04
  0.9444444E+00  0.0000000E+00  0.2525252E-01 -0.5270246E-11  0.0000000E+00 -0.5477414E-04
  0.9545454E+00  0.0000000E+00  0.2525252E-01 -0.4299850E-11  0.0000000E+00 -0.5477414E-04
  0.9646465E+00  0.0000000E+00  0.2525252E-01 -0.3336709E-11  0.0000000E+00 -0.5477414E-04
  0.9747475E+00  0.0000000E+00  0.2525252E-01 -0.2379357E-11  0.0000000E+00 -0.5477415E-04
  0.9848485E+00  0.0000000E+00  0.2525252E-01 -0.1427146E-11  0.0000000E+00 -0.5477415E-04
  0.9974747E+00  0.0000000E+00  0.2525252E-01 -0.4710661E-12  0.0000000E+00 -0.5477415E-04
  0.5050505E-02  0.0000000E+00  0.3535353E-01  0.6572819E-12  0.0000000E+00 -0.5401638E-04
  0.1515152E-01  0.0000000E+00  0.3535353E-01  0.1949862E-11  0.0000000E+00 -0.5401638E-04
  0.2525252E-01  0.0000000E+00  0.3535353E-01  0.3247862E-11  0.0000000E+00 -0.5401638E-04
  0.3535353E-01  0.0000000E+00  0.3535353E-01  0.4557740E-11  0.0000000E+00 -0.5401638E-04
  0.4545455E-01  0.0000000E+00  0.3535353E-01  0.5872621E-11  0.0000000E+00 -0.5401638E-04
  0.5555556E-01  0.0000000E+00  0.3535353E-01  0.7211260E-11  0.0000000E+00 -0.5401638E-04
  0.6565657E-01  0.0000000E+00  0.3535353E-01  0.8573718E-11  0.0000000E+00 -0.5401638E-04
  0.7575758E-01  0.0000000E+00  0.3535353E-01  0.9939316E-11  0.0000000E+00 -0.5401637E-04
  0.8585858E-01  0.0000000E+00  0.3535353E-01  0.1129945E-10  0.0000000E+00 -0.5401637E-04
  0.9595960E-01  0.0000000E+00  0.3535353E-01  0.1265846E-10  0.0000000E+00 -0.5401637E-04
  0.1060606E+00  0.0000000E+00  0.3535353E-01  0.1399578E-10  0.0000000E+00 -0.5401636E-04
  0.1161616E+00  0.0000000E+00  0.3535353E-01  0.1530310E-10  0.0000000E+00 -0.5401636E-04
  0.1262626E+00  0.0000000E+00  0.3535353E-01  0.1658674E-10  0.0000000E+00 -0.5401635E-04
  0.1363636E+00  0.0000000E+00  0.3535353E-01  0.1783240E-10  0.0000000E+00 -0.5401635E-04
  0.1464646E+00  0.0000000E+00  0.3535353E-01  0.1903182E-10  0.0000000E+00 -0.5401634E-04
  0.1565657E+00  0.0000000E+00  0.3535353E-01  0.2018188E-10  0.0000000E+00 -0.5401633E-04
  0.1666667E+00  0.0000000E+00  0.3535353E-01  0.2127892E-10  0.0000000E+00 -0.5401633E-04
  0.1767677E+00  0.0000000E+00  0.3535353E-01  0.2231666E-10  0.0000000E+00 -0.5401632E-04
  0.1868687E+00  0.0000000E+00  0.3535353E-01  0.2328647E-10  0.0000000E+00 -0.5401631E-04
  0.1969697E+00  0.0000000E+00  0.3535353E-01  0.2417828E-10  0.0000000E+00 -0.5401631E-04
  0.2070707E+00  0.0000000E+00  0.3535353E-01  0.2498144E-10  0.0000000E+00 -0.5401630E-04
  0.2171717E+00  0.0000000E+00  0.3535353E-01  0.2568535E-10  0.0000000E+00 -0.5401629E-04
  0.2272727E+00  0.0000000E+00  0.3535353E-01  0.2628016E-10  0.0000000E+00 -0.5401628E-04
  0.2373737E+00  0.0000000E+00  0.3535353E-01  0.2675757E-10  0.0000000E+00 -0.5401627E-04
  0.2474747E+00  0.0000000E+00  0.3535353E-01  0.2710970E-10  0.0000000E+00 -0.5401627E-04
  0.2575758E+00  0.0000000E+00  0.3535353E-01  0.2733087E-10  0.0000000E+00 -0.5401626E-04
  0.2676768E+00  0.0000000E+00  0.3535353E-01  0.2741711E-10  0.0000000E+00 -0.5401625E-04
  0.2777778E+00  0.0000000E+00  0.3535353E-01  0.2736549E-10  0.0000000E+00 -0.5401624E-04
  0.2878788E+00  0.0000000E+00  0.3535353E-01  0.2717399E-10  0.0000000E+00 -0.5401623E-04
  0.2979798E+00  0.0000000E+00  0.3535353E-01  0.2684167E-10  0.0000000E+00 -0.5401622E-04