title = "dataset water"
variables = "x", "y", "z", "vx", "vy", "vz"
zone t = "velocities, solution time =  4.400E+01 days        " i =   99, j =   99, k =    1,  f=point
  0.5050505E-02  0.0000000E+00  0.5050505E-02  0.1361631E-06  0.0000000E+00  0.1411819E-03
  0.1515152E-01  0.0000000E+00  0.5050505E-02  0.4090407E-06  0.0000000E+00  0.1417382E-03
  0.2525252E-01  0.0000000E+00  0.5050505E-02  0.6835959E-06  0.0000000E+00  0.1428532E-03
  0.3535353E-01  0.0000000E+00  0.5050505E-02  0.9609890E-06  0.0000000E+00  0.1445316E-03
  0.4545455E-01  0.0000000E+00  0.5050505E-02  0.1242424E-05  0.0000000E+00  0.1467809E-03
  0.5555556E-01  0.0000000E+00  0.5050505E-02  0.1529159E-05  0.0000000E+00  0.1496109E-03
  0.6565657E-01  0.0000000E+00  0.5050505E-02  0.1822526E-05  0.0000000E+00  0.1530344E-03
  0.7575758E-01  0.0000000E+00  0.5050505E-02  0.2123943E-05  0.0000000E+00  0.1570671E-03
  0.8585858E-01  0.0000000E+00  0.5050505E-02  0.2434940E-05  0.0000000E+00  0.1617279E-03
  0.9595960E-01  0.0000000E+00  0.5050505E-02  0.2757177E-05  0.0000000E+00  0.1670391E-03
  0.1060606E+00  0.0000000E+00  0.5050505E-02  0.3092476E-05  0.0000000E+00  0.1730268E-03
  0.1161616E+00  0.0000000E+00  0.5050505E-02  0.3442844E-05  0.0000000E+00  0.1797212E-03
  0.1262626E+00  0.0000000E+00  0.5050505E-02  0.3810514E-05  0.0000000E+00  0.1871572E-03
  0.1363636E+00  0.0000000E+00  0.5050505E-02  0.4197978E-05  0.0000000E+00  0.1953748E-03
  0.1464646E+00  0.0000000E+00  0.5050505E-02  0.4608030E-05  0.0000000E+00  0.2044198E-03
  0.1565657E+00  0.0000000E+00  0.5050505E-02  0.5043810E-05  0.0000000E+00  0.2143445E-03
  0.1666667E+00  0.0000000E+00  0.5050505E-02  0.5508854E-05  0.0000000E+00  0.2252085E-03
  0.1767677E+00  0.0000000E+00  0.5050505E-02  0.6007152E-05  0.0000000E+00  0.2370800E-03
  0.1868687E+00  0.0000000E+00  0.5050505E-02  0.6543202E-05  0.0000000E+00  0.2500365E-03
  0.1969697E+00  0.0000000E+00  0.5050505E-02  0.7122090E-05  0.0000000E+00  0.2641662E-03
  0.2070707E+00  0.0000000E+00  0.5050505E-02  0.7749588E-05  0.0000000E+00  0.2795696E-03
  0.2171717E+00  0.0000000E+00  0.5050505E-02  0.8432308E-05  0.0000000E+00  0.2963615E-03
  0.2272727E+00  0.0000000E+00  0.5050505E-02  0.9177968E-05  0.0000000E+00  0.3146729E-03
  0.2373737E+00  0.0000000E+00  0.5050505E-02  0.9995842E-05  0.0000000E+00  0.3346544E-03
  0.2474747E+00  0.0000000E+00  0.5050505E-02  0.1089757E-04  0.0000000E+00  0.3564806E-03
  0.2575758E+00  0.0000000E+00  0.5050505E-02  0.1189851E-04  0.0000000E+00  0.3803575E-03
  0.2676768E+00  0.0000000E+00  0.5050505E-02  0.1301985E-04  0.0000000E+00  0.4065328E-03
  0.2777778E+00  0.0000000E+00  0.5050505E-02  0.1429181E-04  0.0000000E+00  0.4353130E-03
  0.2878788E+00  0.0000000E+00  0.5050505E-02  0.1575777E-04  0.0000000E+00  0.4670886E-03
  0.2979798E+00  0.0000000E+00  0.5050505E-02  0.1747879E-04  0.0000000E+00  0.5023693E-03
  0.3080808E+00  0.0000000E+00  0.5050505E-02  0.1953514E-04  0.0000000E+00  0.5418274E-03
  0.3181818E+00  0.0000000E+00  0.5050505E-02  0.2201369E-04  0.0000000E+00  0.5863310E-03
  0.3282828E+00  0.0000000E+00  0.5050505E-02  0.2494437E-04  0.0000000E+00  0.6368985E-03
  0.3383838E+00  0.0000000E+00  0.5050505E-02  0.2810287E-04  0.0000000E+00  0.6943704E-03
  0.3484848E+00  0.0000000E+00  0.5050505E-02  0.3072368E-04  0.0000000E+00  0.7585399E-03
  0.3585859E+00  0.0000000E+00  0.5050505E-02  0.3351250E-04  0.0000000E+00  0.8291481E-03
  0.3686869E+00  0.0000000E+00  0.5050505E-02  0.4104572E-04  0.0000000E+00  0.9118136E-03
  0.3787879E+00  0.0000000E+00  0.5050505E-02  0.3446289E-04  0.0000000E+00  0.9962784E-03
  0.3888889E+00  0.0000000E+00  0.5050505E-02  0.5708578E-04  0.0000000E+00  0.1099875E-02
  0.3989899E+00  0.0000000E+00  0.5050505E-02 -0.3801414E-04  0.0000000E+00  0.1121313E-02
  0.4090909E+00  0.0000000E+00  0.5050505E-02 -0.1967804E-04  0.0000000E+00  0.1055591E-02
  0.4191919E+00  0.0000000E+00  0.5050505E-02 -0.2747986E-04  0.0000000E+00  0.1002282E-02
  0.4292929E+00  0.0000000E+00  0.5050505E-02 -0.3005413E-04  0.0000000E+00  0.9377083E-03
  0.4393939E+00  0.0000000E+00  0.5050505E-02 -0.1430660E-04  0.0000000E+00  0.8881683E-03
  0.4494950E+00  0.0000000E+00  0.5050505E-02 -0.5917976E-05  0.0000000E+00  0.8656502E-03
  0.4595959E+00  0.0000000E+00  0.5050505E-02  0.2981641E-06  0.0000000E+00  0.8594000E-03
  0.4696970E+00  0.0000000E+00  0.5050505E-02  0.6296040E-05  0.0000000E+00  0.8667345E-03
  0.4797980E+00  0.0000000E+00  0.5050505E-02  0.1294369E-04  0.0000000E+00  0.8881579E-03
  0.4898990E+00  0.0000000E+00  0.5050505E-02  0.2031296E-04  0.0000000E+00  0.9252866E-03
  0.5000000E+00  0.0000000E+00  0.5050505E-02  0.2622512E-04  0.0000000E+00  0.9774693E-03
  0.5101010E+00  0.0000000E+00  0.5050505E-02  0.2139939E-04  0.0000000E+00  0.1031163E-02
  0.5202020E+00  0.0000000E+00  0.5050505E-02  0.2487309E-04  0.0000000E+00  0.1083692E-02
  0.5303030E+00  0.0000000E+00  0.5050505E-02  0.3360919E-04  0.0000000E+00  0.1150511E-02
  0.5404040E+00  0.0000000E+00  0.5050505E-02  0.5045699E-04  0.0000000E+00  0.1247356E-02
  0.5505050E+00  0.0000000E+00  0.5050505E-02  0.9117742E-04  0.0000000E+00  0.1412548E-02
  0.5606061E+00  0.0000000E+00  0.5050505E-02 -0.2880330E-04  0.0000000E+00  0.1485076E-02
  0.5707071E+00  0.0000000E+00  0.5050505E-02 -0.6297362E-04  0.0000000E+00  0.1376966E-02
  0.5808081E+00  0.0000000E+00  0.5050505E-02 -0.5769430E-04  0.0000000E+00  0.1236629E-02
  0.5909091E+00  0.0000000E+00  0.5050505E-02 -0.5900983E-04  0.0000000E+00  0.1103060E-02
  0.6010101E+00  0.0000000E+00  0.5050505E-02 -0.4520906E-04  0.0000000E+00  0.9853170E-03
  0.6111111E+00  0.0000000E+00  0.5050505E-02 -0.4024242E-04  0.0000000E+00  0.8899030E-03
  0.6212121E+00  0.0000000E+00  0.5050505E-02 -0.3843488E-04  0.0000000E+00  0.8029688E-03
  0.6313131E+00  0.0000000E+00  0.5050505E-02 -0.3407701E-04  0.0000000E+00  0.7235871E-03
  0.6414142E+00  0.0000000E+00  0.5050505E-02 -0.2951391E-04  0.0000000E+00  0.6545412E-03
  0.6515151E+00  0.0000000E+00  0.5050505E-02 -0.2563108E-04  0.0000000E+00  0.5950918E-03
  0.6616161E+00  0.0000000E+00  0.5050505E-02 -0.2247513E-04  0.0000000E+00  0.5435518E-03
  0.6717172E+00  0.0000000E+00  0.5050505E-02 -0.1988966E-04  0.0000000E+00  0.4984096E-03
  0.6818182E+00  0.0000000E+00  0.5050505E-02 -0.1772564E-04  0.0000000E+00  0.4585208E-03
  0.6919192E+00  0.0000000E+00  0.5050505E-02 -0.1587847E-04  0.0000000E+00  0.4230382E-03
  0.7020202E+00  0.0000000E+00  0.5050505E-02 -0.1427932E-04  0.0000000E+00  0.3913164E-03
  0.7121212E+00  0.0000000E+00  0.5050505E-02 -0.1288173E-04  0.0000000E+00  0.3628451E-03
  0.7222222E+00  0.0000000E+00  0.5050505E-02 -0.1165218E-04  0.0000000E+00  0.3372074E-03
  0.7323232E+00  0.0000000E+00  0.5050505E-02 -0.1056492E-04  0.0000000E+00  0.3140558E-03
  0.7424242E+00  0.0000000E+00  0.5050505E-02 -0.9599135E-05  0.0000000E+00  0.2930970E-03
  0.7525253E+00  0.0000000E+00  0.5050505E-02 -0.8737560E-05  0.0000000E+00  0.2740815E-03
  0.7626263E+00  0.0000000E+00  0.5050505E-02 -0.7965677E-05  0.0000000E+00  0.2567963E-03
  0.7727273E+00  0.0000000E+00  0.5050505E-02 -0.7271199E-05  0.0000000E+00  0.2410586E-03
  0.7828283E+00  0.0000000E+00  0.5050505E-02 -0.6643693E-05  0.0000000E+00  0.2267115E-03
  0.7929293E+00  0.0000000E+00  0.5050505E-02 -0.6074286E-05  0.0000000E+00  0.2136193E-03
  0.8030303E+00  0.0000000E+00  0.5050505E-02 -0.5555404E-05  0.0000000E+00  0.2016648E-03
  0.8131313E+00  0.0000000E+00  0.5050505E-02 -0.5080571E-05  0.0000000E+00  0.1907463E-03
  0.8232324E+00  0.0000000E+00  0.5050505E-02 -0.4644221E-05  0.0000000E+00  0.1807753E-03
  0.8333333E+00  0.0000000E+00  0.5050505E-02 -0.4241558E-05  0.0000000E+00  0.1716747E-03
  0.8434343E+00  0.0000000E+00  0.5050505E-02 -0.3868422E-05  0.0000000E+00  0.1633770E-03
  0.8535354E+00  0.0000000E+00  0.5050505E-02 -0.3521195E-05  0.0000000E+00  0.1558233E-03
  0.8636364E+00  0.0000000E+00  0.5050505E-02 -0.3196710E-05  0.0000000E+00  0.1489619E-03
  0.8737374E+00  0.0000000E+00  0.5050505E-02 -0.2892180E-05  0.0000000E+00  0.1427478E-03
  0.8838384E+00  0.0000000E+00  0.5050505E-02 -0.2605141E-05  0.0000000E+00  0.1371412E-03
  0.8939394E+00  0.0000000E+00  0.5050505E-02 -0.2333402E-05  0.0000000E+00  0.1321076E-03
  0.9040404E+00  0.0000000E+00  0.5050505E-02 -0.2074998E-05  0.0000000E+00  0.1276167E-03
  0.9141414E+00  0.0000000E+00  0.5050505E-02 -0.1828163E-05  0.0000000E+00  0.1236425E-03
  0.9242424E+00  0.0000000E+00  0.5050505E-02 -0.1591293E-05  0.0000000E+00  0.1201623E-03
  0.9343435E+00  0.0000000E+00  0.5050505E-02 -0.1362920E-05  0.0000000E+00  0.1171567E-03
  0.9444444E+00  0.0000000E+00  0.5050505E-02 -0.1141696E-05  0.0000000E+00  0.1146094E-03
  0.9545454E+00  0.0000000E+00  0.5050505E-02 -0.9263629E-06  0.0000000E+00  0.1125065E-03
  0.9646465E+00  0.0000000E+00  0.5050505E-02 -0.7157443E-06  0.0000000E+00  0.1108371E-03
  0.9747475E+00  0.0000000E+00  0.5050505E-02 -0.5087242E-06  0.0000000E+00  0.1095925E-03
  0.9848485E+00  0.0000000E+00  0.5050505E-02 -0.3042355E-06  0.0000000E+00  0.1087663E-03
  0.9974747E+00  0.0000000E+00  0.5050505E-02 -0.1012468E-06  0.0000000E+00  0.1083542E-03
  0.5050505E-02  0.0000000E+00  0.1515152E-01  0.4077857E-06  0.0000000E+00  0.1409889E-03
  0.1515152E-01  0.0000000E+00  0.1515152E-01  0.1225016E-05  0.0000000E+00  0.1415440E-03
  0.2525252E-01  0.0000000E+00  0.1515152E-01  0.2047279E-05  0.0000000E+00  0.1426566E-03
  0.3535353E-01  0.0000000E+00  0.1515152E-01  0.2878048E-05  0.0000000E+00  0.1443314E-03
  0.4545455E-01  0.0000000E+00  0.1515152E-01  0.3720919E-05  0.0000000E+00  0.1465757E-03
  0.5555556E-01  0.0000000E+00  0.1515152E-01  0.4579656E-05  0.0000000E+00  0.1493992E-03
  0.6565657E-01  0.0000000E+00  0.1515152E-01  0.5458232E-05  0.0000000E+00  0.1528147E-03
  0.7575758E-01  0.0000000E+00  0.1515152E-01  0.6360888E-05  0.0000000E+00  0.1568376E-03
  0.8585858E-01  0.0000000E+00  0.1515152E-01  0.7292188E-05  0.0000000E+00  0.1614867E-03
  0.9595960E-01  0.0000000E+00  0.1515152E-01  0.8257092E-05  0.0000000E+00  0.1667840E-03
  0.1060606E+00  0.0000000E+00  0.1515152E-01  0.9261036E-05  0.0000000E+00  0.1727554E-03
  0.1161616E+00  0.0000000E+00  0.1515152E-01  0.1031002E-04  0.0000000E+00  0.1794306E-03
  0.1262626E+00  0.0000000E+00  0.1515152E-01  0.1141070E-04  0.0000000E+00  0.1868443E-03
  0.1363636E+00  0.0000000E+00  0.1515152E-01  0.1257052E-04  0.0000000E+00  0.1950359E-03
  0.1464646E+00  0.0000000E+00  0.1515152E-01  0.1379783E-04  0.0000000E+00  0.2040507E-03
  0.1565657E+00  0.0000000E+00  0.1515152E-01  0.1510201E-04  0.0000000E+00  0.2139404E-03
  0.1666667E+00  0.0000000E+00  0.1515152E-01  0.1649361E-04  0.0000000E+00  0.2247641E-03
  0.1767677E+00  0.0000000E+00  0.1515152E-01  0.1798456E-04  0.0000000E+00  0.2365889E-03
  0.1868687E+00  0.0000000E+00  0.1515152E-01  0.1958830E-04  0.0000000E+00  0.2494915E-03
  0.1969697E+00  0.0000000E+00  0.1515152E-01  0.2131997E-04  0.0000000E+00  0.2635591E-03
  0.2070707E+00  0.0000000E+00  0.1515152E-01  0.2319677E-04  0.0000000E+00  0.2788910E-03
  0.2171717E+00  0.0000000E+00  0.1515152E-01  0.2523828E-04  0.0000000E+00  0.2956001E-03
  0.2272727E+00  0.0000000E+00  0.1515152E-01  0.2746720E-04  0.0000000E+00  0.3138151E-03
  0.2373737E+00  0.0000000E+00  0.1515152E-01  0.2991062E-04  0.0000000E+00  0.3336830E-03
  0.2474747E+00  0.0000000E+00  0.1515152E-01  0.3260217E-04  0.0000000E+00  0.3553727E-03
  0.2575758E+00  0.0000000E+00  0.1515152E-01  0.3558589E-04  0.0000000E+00  0.3790808E-03
  0.2676768E+00  0.0000000E+00  0.1515152E-01  0.3892246E-04  0.0000000E+00  0.4050408E-03
  0.2777778E+00  0.0000000E+00  0.1515152E-01  0.4269868E-04  0.0000000E+00  0.4335374E-03
  0.2878788E+00  0.0000000E+00  0.1515152E-01  0.4704072E-04  0.0000000E+00  0.4649310E-03
  0.2979798E+00  0.0000000E+00  0.1515152E-01  0.5213053E-04  0.0000000E+00  0.4996951E-03
  0.3080808E+00  0.0000000E+00  0.1515152E-01  0.5822127E-04  0.0000000E+00  0.5384766E-03
  0.3181818E+00  0.0000000E+00  0.1515152E-01  0.6563254E-04  0.0000000E+00  0.5821940E-03
  0.3282828E+00  0.0000000E+00  0.1515152E-01  0.7463508E-04  0.0000000E+00  0.6321748E-03
  0.3383838E+00  0.0000000E+00  0.1515152E-01  0.8480984E-04  0.0000000E+00  0.6900491E-03
  0.3484848E+00  0.0000000E+00  0.1515152E-01  0.9198851E-04  0.0000000E+00  0.7546684E-03
  0.3585859E+00  0.0000000E+00  0.1515152E-01  0.9615389E-04  0.0000000E+00  0.8204186E-03
  0.3686869E+00  0.0000000E+00  0.1515152E-01  0.1047894E-03  0.0000000E+00  0.8780876E-03
  0.3787879E+00  0.0000000E+00  0.1515152E-01  0.1080315E-03  0.0000000E+00  0.9474567E-03
  0.3888889E+00  0.0000000E+00  0.1515152E-01  0.1360057E-03  0.0000000E+00  0.1016415E-02
  0.3989899E+00  0.0000000E+00  0.1515152E-01 -0.9357714E-04  0.0000000E+00  0.1021239E-02
  0.4090909E+00  0.0000000E+00  0.1515152E-01 -0.7456962E-04  0.0000000E+00  0.9612843E-03
  0.4191919E+00  0.0000000E+00  0.1515152E-01 -0.6794970E-04  0.0000000E+00  0.9067856E-03
  0.4292929E+00  0.0000000E+00  0.1515152E-01 -0.6788970E-04  0.0000000E+00  0.8831761E-03
  0.4393939E+00  0.0000000E+00  0.1515152E-01 -0.3621204E-04  0.0000000E+00  0.8657098E-03
  0.4494950E+00  0.0000000E+00  0.1515152E-01 -0.1574757E-04  0.0000000E+00  0.8527156E-03
  0.4595959E+00  0.0000000E+00  0.1515152E-01  0.1084499E-05  0.0000000E+00  0.8488521E-03
  0.4696970E+00  0.0000000E+00  0.1515152E-01  0.1823839E-04  0.0000000E+00  0.8557530E-03
  0.4797980E+00  0.0000000E+00  0.1515152E-01  0.3806773E-04  0.0000000E+00  0.8758057E-03
  0.4898990E+00  0.0000000E+00  0.1515152E-01  0.6208394E-04  0.0000000E+00  0.9136697E-03
  0.5000000E+00  0.0000000E+00  0.1515152E-01  0.8800762E-04  0.0000000E+00  0.9780302E-03
  0.5101010E+00  0.0000000E+00  0.1515152E-01  0.5656733E-04  0.0000000E+00  0.1034090E-02
  0.5202020E+00  0.0000000E+00  0.1515152E-01  0.6965775E-04  0.0000000E+00  0.1072931E-02
  0.5303030E+00  0.0000000E+00  0.1515152E-01  0.9337604E-04  0.0000000E+00  0.1126243E-02
  0.5404040E+00  0.0000000E+00  0.1515152E-01  0.1303430E-03  0.0000000E+00  0.1190997E-02
  0.5505050E+00  0.0000000E+00  0.1515152E-01  0.2128009E-03  0.0000000E+00  0.1261437E-02
  0.5606061E+00  0.0000000E+00  0.1515152E-01 -0.8616945E-04  0.0000000E+00  0.1263605E-02
  0.5707071E+00  0.0000000E+00  0.1515152E-01 -0.1603690E-03  0.0000000E+00  0.1189590E-02
  0.5808081E+00  0.0000000E+00  0.1515152E-01 -0.1465028E-03  0.0000000E+00  0.1113494E-02
  0.5909091E+00  0.0000000E+00  0.1515152E-01 -0.1476221E-03  0.0000000E+00  0.1043737E-02
  0.6010101E+00  0.0000000E+00  0.1515152E-01 -0.1275895E-03  0.0000000E+00  0.9680423E-03
  0.6111111E+00  0.0000000E+00  0.1515152E-01 -0.1177783E-03  0.0000000E+00  0.8846491E-03
  0.6212121E+00  0.0000000E+00  0.1515152E-01 -0.1176546E-03  0.0000000E+00  0.7982966E-03
  0.6313131E+00  0.0000000E+00  0.1515152E-01 -0.1024646E-03  0.0000000E+00  0.7160922E-03
  0.6414142E+00  0.0000000E+00  0.1515152E-01 -0.8795011E-04  0.0000000E+00  0.6474389E-03
  0.6515151E+00  0.0000000E+00  0.1515152E-01 -0.7624678E-04  0.0000000E+00  0.5893116E-03
  0.6616161E+00  0.0000000E+00  0.1515152E-01 -0.6691665E-04  0.0000000E+00  0.5389860E-03
  0.6717172E+00  0.0000000E+00  0.1515152E-01 -0.5929440E-04  0.0000000E+00  0.4947564E-03
  0.6818182E+00  0.0000000E+00  0.1515152E-01 -0.5289673E-04  0.0000000E+00  0.4555309E-03
  0.6919192E+00  0.0000000E+00  0.1515152E-01 -0.4741690E-04  0.0000000E+00  0.4205426E-03
  0.7020202E+00  0.0000000E+00  0.1515152E-01 -0.4266060E-04  0.0000000E+00  0.3892046E-03
  0.7121212E+00  0.0000000E+00  0.1515152E-01 -0.3849703E-04  0.0000000E+00  0.3610420E-03
  0.7222222E+00  0.0000000E+00  0.1515152E-01 -0.3483064E-04  0.0000000E+00  0.3356586E-03
  0.7323232E+00  0.0000000E+00  0.1515152E-01 -0.3158667E-04  0.0000000E+00  0.3127194E-03
  0.7424242E+00  0.0000000E+00  0.1515152E-01 -0.2870405E-04  0.0000000E+00  0.2919394E-03
  0.7525253E+00  0.0000000E+00  0.1515152E-01 -0.2613170E-04  0.0000000E+00  0.2730752E-03
  0.7626263E+00  0.0000000E+00  0.1515152E-01 -0.2382654E-04  0.0000000E+00  0.2559183E-03
  0.7727273E+00  0.0000000E+00  0.1515152E-01 -0.2175202E-04  0.0000000E+00  0.2402898E-03
  0.7828283E+00  0.0000000E+00  0.1515152E-01 -0.1987712E-04  0.0000000E+00  0.2260357E-03
  0.7929293E+00  0.0000000E+00  0.1515152E-01 -0.1817541E-04  0.0000000E+00  0.2130231E-03
  0.8030303E+00  0.0000000E+00  0.1515152E-01 -0.1662437E-04  0.0000000E+00  0.2011369E-03
  0.8131313E+00  0.0000000E+00  0.1515152E-01 -0.1520471E-04  0.0000000E+00  0.1902771E-03
  0.8232324E+00  0.0000000E+00  0.1515152E-01 -0.1389986E-04  0.0000000E+00  0.1803568E-03
  0.8333333E+00  0.0000000E+00  0.1515152E-01 -0.1269554E-04  0.0000000E+00  0.1712998E-03
  0.8434343E+00  0.0000000E+00  0.1515152E-01 -0.1157937E-04  0.0000000E+00  0.1630399E-03
  0.8535354E+00  0.0000000E+00  0.1515152E-01 -0.1054054E-04  0.0000000E+00  0.1555190E-03
  0.8636364E+00  0.0000000E+00  0.1515152E-01 -0.9569631E-05  0.0000000E+00  0.1486860E-03
  0.8737374E+00  0.0000000E+00  0.1515152E-01 -0.8658326E-05  0.0000000E+00  0.1424964E-03
  0.8838384E+00  0.0000000E+00  0.1515152E-01 -0.7799274E-05  0.0000000E+00  0.1369111E-03
  0.8939394E+00  0.0000000E+00  0.1515152E-01 -0.6985934E-05  0.0000000E+00  0.1318958E-03
  0.9040404E+00  0.0000000E+00  0.1515152E-01 -0.6212449E-05  0.0000000E+00  0.1274208E-03
  0.9141414E+00  0.0000000E+00  0.1515152E-01 -0.5473541E-05  0.0000000E+00  0.1234602E-03
  0.9242424E+00  0.0000000E+00  0.1515152E-01 -0.4764420E-05  0.0000000E+00  0.1199915E-03
  0.9343435E+00  0.0000000E+00  0.1515152E-01 -0.4080707E-05  0.0000000E+00  0.1169956E-03
  0.9444444E+00  0.0000000E+00  0.1515152E-01 -0.3418367E-05  0.0000000E+00  0.1144562E-03
  0.9545454E+00  0.0000000E+00  0.1515152E-01 -0.2773649E-05  0.0000000E+00  0.1123598E-03
  0.9646465E+00  0.0000000E+00  0.1515152E-01 -0.2143033E-05  0.0000000E+00  0.1106955E-03
  0.9747475E+00  0.0000000E+00  0.1515152E-01 -0.1523186E-05  0.0000000E+00  0.1094546E-03
  0.9848485E+00  0.0000000E+00  0.1515152E-01 -0.9109181E-06  0.0000000E+00  0.1086307E-03
  0.9974747E+00  0.0000000E+00  0.1515152E-01 -0.3031443E-06  0.0000000E+00  0.1082198E-03
  0.5050505E-02  0.0000000E+00  0.2525252E-01  0.6777391E-06  0.0000000E+00  0.1406111E-03
  0.1515152E-01  0.0000000E+00  0.2525252E-01  0.2035981E-05  0.0000000E+00  0.1411640E-03
  0.2525252E-01  0.0000000E+00  0.2525252E-01  0.3402595E-05  0.0000000E+00  0.1422720E-03
  0.3535353E-01  0.0000000E+00  0.2525252E-01  0.4783333E-05  0.0000000E+00  0.1439397E-03
  0.4545455E-01  0.0000000E+00  0.2525252E-01  0.6184151E-05  0.0000000E+00  0.1461742E-03
  0.5555556E-01  0.0000000E+00  0.2525252E-01  0.7611274E-05  0.0000000E+00  0.1489851E-03
  0.6565657E-01  0.0000000E+00  0.2525252E-01  0.9071276E-05  0.0000000E+00  0.1523849E-03
  0.7575758E-01  0.0000000E+00  0.2525252E-01  0.1057116E-04  0.0000000E+00  0.1563888E-03
  0.8585858E-01  0.0000000E+00  0.2525252E-01  0.1211848E-04  0.0000000E+00  0.1610150E-03
  0.9595960E-01  0.0000000E+00  0.2525252E-01  0.1372141E-04  0.0000000E+00  0.1662852E-03
  0.1060606E+00  0.0000000E+00  0.2525252E-01  0.1538894E-04  0.0000000E+00  0.1722246E-03
  0.1161616E+00  0.0000000E+00  0.2525252E-01  0.1713096E-04  0.0000000E+00  0.1788625E-03
  0.1262626E+00  0.0000000E+00  0.2525252E-01  0.1895849E-04  0.0000000E+00  0.1862326E-03
  0.1363636E+00  0.0000000E+00  0.2525252E-01  0.2088382E-04  0.0000000E+00  0.1943735E-03
  0.1464646E+00  0.0000000E+00  0.2525252E-01  0.2292073E-04  0.0000000E+00  0.2033294E-03
  0.1565657E+00  0.0000000E+00  0.2525252E-01  0.2508472E-04  0.0000000E+00  0.2131509E-03
  0.1666667E+00  0.0000000E+00  0.2525252E-01  0.2739327E-04  0.0000000E+00  0.2238956E-03
  0.1767677E+00  0.0000000E+00  0.2525252E-01  0.2986608E-04  0.0000000E+00  0.2356292E-03
  0.1868687E+00  0.0000000E+00  0.2525252E-01  0.3252535E-04  0.0000000E+00  0.2484266E-03
  0.1969697E+00  0.0000000E+00  0.2525252E-01  0.3539611E-04  0.0000000E+00  0.2623731E-03
  0.2070707E+00  0.0000000E+00  0.2525252E-01  0.3850657E-04  0.0000000E+00  0.2775655E-03
  0.2171717E+00  0.0000000E+00  0.2525252E-01  0.4188866E-04  0.0000000E+00  0.2941137E-03
  0.2272727E+00  0.0000000E+00  0.2525252E-01  0.4557893E-04  0.0000000E+00  0.3121421E-03
  0.2373737E+00  0.0000000E+00  0.2525252E-01  0.4962015E-04  0.0000000E+00  0.3317914E-03
  0.2474747E+00  0.0000000E+00  0.2525252E-01  0.5406440E-04  0.0000000E+00  0.3532204E-03
  0.2575758E+00  0.0000000E+00  0.2525252E-01  0.5897856E-04  0.0000000E+00  0.3766089E-03
  0.2676768E+00  0.0000000E+00  0.2525252E-01  0.6445403E-04  0.0000000E+00  0.4021633E-03
  0.2777778E+00  0.0000000E+00  0.2525252E-01  0.7062208E-04  0.0000000E+00  0.4301262E-03
  0.2878788E+00  0.0000000E+00  0.2525252E-01  0.7767695E-04  0.0000000E+00  0.4607950E-03
  0.2979798E+00  0.0000000E+00  0.2525252E-01  0.8590808E-04  0.0000000E+00  0.4945546E-03
  0.3080808E+00  0.0000000E+00  0.2525252E-01  0.9574742E-04  0.0000000E+00  0.5319415E-03
  0.3181818E+00  0.0000000E+00  0.2525252E-01  0.1078566E-03  0.0000000E+00  0.5738067E-03
  0.3282828E+00  0.0000000E+00  0.2525252E-01  0.1233419E-03  0.0000000E+00  0.6219025E-03
  0.3383838E+00  0.0000000E+00  0.2525252E-01  0.1444030E-03  0.0000000E+00  0.6814925E-03
  0.3484848E+00  0.0000000E+00  0.2525252E-01  0.1560370E-03  0.0000000E+00  0.7519300E-03
  0.3585859E+00  0.0000000E+00  0.2525252E-01  0.1545790E-03  0.0000000E+00  0.8212553E-03
  0.3686869E+00  0.0000000E+00  0.2525252E-01  0.1421447E-03  0.0000000E+00  0.8705220E-03
  0.3787879E+00  0.0000000E+00  0.2525252E-01  0.1598876E-03  0.0000000E+00  0.9019404E-03
  0.3888889E+00  0.0000000E+00  0.2525252E-01  0.1804210E-03  0.0000000E+00  0.9424809E-03
  0.3989899E+00  0.0000000E+00  0.2525252E-01 -0.1327320E-03  0.0000000E+00  0.9435439E-03
  0.4090909E+00  0.0000000E+00  0.2525252E-01 -0.1195255E-03  0.0000000E+00  0.9074444E-03
  0.4191919E+00  0.0000000E+00  0.2525252E-01 -0.9943534E-04  0.0000000E+00  0.8751321E-03
  0.4292929E+00  0.0000000E+00  0.2525252E-01 -0.7911307E-04  0.0000000E+00  0.8500425E-03
  0.4393939E+00  0.0000000E+00  0.2525252E-01 -0.4789052E-04  0.0000000E+00  0.8411952E-03
  0.4494950E+00  0.0000000E+00  0.2525252E-01 -0.2222625E-04  0.0000000E+00  0.8335126E-03
  0.4595959E+00  0.0000000E+00  0.2525252E-01  0.1570999E-05  0.0000000E+00  0.8305627E-03
  0.4696970E+00  0.0000000E+00  0.2525252E-01  0.2766063E-04  0.0000000E+00  0.8348902E-03
  0.4797980E+00  0.0000000E+00  0.2525252E-01  0.5922949E-04  0.0000000E+00  0.8494485E-03
  0.4898990E+00  0.0000000E+00  0.2525252E-01  0.1018802E-03  0.0000000E+00  0.8804829E-03
  0.5000000E+00  0.0000000E+00  0.2525252E-01  0.1472815E-03  0.0000000E+00  0.9282786E-03
  0.5101010E+00  0.0000000E+00  0.2525252E-01  0.1046474E-03  0.0000000E+00  0.9945932E-03
  0.5202020E+00  0.0000000E+00  0.2525252E-01  0.1044103E-03  0.0000000E+00  0.1051379E-02
  0.5303030E+00  0.0000000E+00  0.2525252E-01  0.1408232E-03  0.0000000E+00  0.1093920E-02
  0.5404040E+00  0.0000000E+00  0.2525252E-01  0.1700651E-03  0.0000000E+00  0.1131716E-02
  0.5505050E+00  0.0000000E+00  0.2525252E-01  0.2322636E-03  0.0000000E+00  0.1133161E-02
  0.5606061E+00  0.0000000E+00  0.2525252E-01 -0.1209317E-03  0.0000000E+00  0.1114019E-02
  0.5707071E+00  0.0000000E+00  0.2525252E-01 -0.1813613E-03  0.0000000E+00  0.1120542E-02
  0.5808081E+00  0.0000000E+00  0.2525252E-01 -0.2008709E-03  0.0000000E+00  0.1107503E-02
  0.5909091E+00  0.0000000E+00  0.2525252E-01 -0.2118454E-03  0.0000000E+00  0.1040305E-02
  0.6010101E+00  0.0000000E+00  0.2525252E-01 -0.2004837E-03  0.0000000E+00  0.9601042E-03
  0.6111111E+00  0.0000000E+00  0.2525252E-01 -0.1863119E-03  0.0000000E+00  0.8846719E-03
  0.6212121E+00  0.0000000E+00  0.2525252E-01 -0.2109597E-03  0.0000000E+00  0.7922552E-03
  0.6313131E+00  0.0000000E+00  0.2525252E-01 -0.1704409E-03  0.0000000E+00  0.6982574E-03
  0.6414142E+00  0.0000000E+00  0.2525252E-01 -0.1439358E-03  0.0000000E+00  0.6324361E-03
  0.6515151E+00  0.0000000E+00  0.2525252E-01 -0.1247763E-03  0.0000000E+00  0.5779060E-03
  0.6616161E+00  0.0000000E+00  0.2525252E-01 -0.1098668E-03  0.0000000E+00  0.5301900E-03
  0.6717172E+00  0.0000000E+00  0.2525252E-01 -0.9764305E-04  0.0000000E+00  0.4877347E-03
  0.6818182E+00  0.0000000E+00  0.2525252E-01 -0.8728656E-04  0.0000000E+00  0.4497559E-03
  0.6919192E+00  0.0000000E+00  0.2525252E-01 -0.7834569E-04  0.0000000E+00  0.4156963E-03
  0.7020202E+00  0.0000000E+00  0.2525252E-01 -0.7054559E-04  0.0000000E+00  0.3850877E-03
  0.7121212E+00  0.0000000E+00  0.2525252E-01 -0.6369730E-04  0.0000000E+00  0.3575185E-03
  0.7222222E+00  0.0000000E+00  0.2525252E-01 -0.5765675E-04  0.0000000E+00  0.3326280E-03
  0.7323232E+00  0.0000000E+00  0.2525252E-01 -0.5230687E-04  0.0000000E+00  0.3101026E-03
  0.7424242E+00  0.0000000E+00  0.2525252E-01 -0.4754963E-04  0.0000000E+00  0.2896718E-03
  0.7525253E+00  0.0000000E+00  0.2525252E-01 -0.4330206E-04  0.0000000E+00  0.2711032E-03
  0.7626263E+00  0.0000000E+00  0.2525252E-01 -0.3949367E-04  0.0000000E+00  0.2541972E-03
  0.7727273E+00  0.0000000E+00  0.2525252E-01 -0.3606460E-04  0.0000000E+00  0.2387823E-03
  0.7828283E+00  0.0000000E+00  0.2525252E-01 -0.3296396E-04  0.0000000E+00  0.2247105E-03
  0.7929293E+00  0.0000000E+00  0.2525252E-01 -0.3014843E-04  0.0000000E+00  0.2118538E-03
  0.8030303E+00  0.0000000E+00  0.2525252E-01 -0.2758104E-04  0.0000000E+00  0.2001014E-03
  0.8131313E+00  0.0000000E+00  0.2525252E-01 -0.2523014E-04  0.0000000E+00  0.1893566E-03
  0.8232324E+00  0.0000000E+00  0.2525252E-01 -0.2306854E-04  0.0000000E+00  0.1795354E-03
  0.8333333E+00  0.0000000E+00  0.2525252E-01 -0.2107276E-04  0.0000000E+00  0.1705642E-03
  0.8434343E+00  0.0000000E+00  0.2525252E-01 -0.1922244E-04  0.0000000E+00  0.1623784E-03
  0.8535354E+00  0.0000000E+00  0.2525252E-01 -0.1749985E-04  0.0000000E+00  0.1549217E-03
  0.8636364E+00  0.0000000E+00  0.2525252E-01 -0.1588944E-04  0.0000000E+00  0.1481444E-03
  0.8737374E+00  0.0000000E+00  0.2525252E-01 -0.1437753E-04  0.0000000E+00  0.1420031E-03
  0.8838384E+00  0.0000000E+00  0.2525252E-01 -0.1295200E-04  0.0000000E+00  0.1364596E-03
  0.8939394E+00  0.0000000E+00  0.2525252E-01 -0.1160206E-04  0.0000000E+00  0.1314804E-03
  0.9040404E+00  0.0000000E+00  0.2525252E-01 -0.1031804E-04  0.0000000E+00  0.1270365E-03
  0.9141414E+00  0.0000000E+00  0.2525252E-01 -0.9091238E-05  0.0000000E+00  0.1231025E-03
  0.9242424E+00  0.0000000E+00  0.2525252E-01 -0.7913733E-05  0.0000000E+00  0.1196565E-03
  0.9343435E+00  0.0000000E+00  0.2525252E-01 -0.6778292E-05  0.0000000E+00  0.1166796E-03
  0.9444444E+00  0.0000000E+00  0.2525252E-01 -0.5678244E-05  0.0000000E+00  0.1141559E-03
  0.9545454E+00  0.0000000E+00  0.2525252E-01 -0.4607385E-05  0.0000000E+00  0.1120723E-03
  0.9646465E+00  0.0000000E+00  0.2525252E-01 -0.3559893E-05  0.0000000E+00  0.1104179E-03
  0.9747475E+00  0.0000000E+00  0.2525252E-01 -0.2530253E-05  0.0000000E+00  0.1091843E-03
  0.9848485E+00  0.0000000E+00  0.2525252E-01 -0.1513181E-05  0.0000000E+00  0.1083652E-03
  0.9974747E+00  0.0000000E+00  0.2525252E-01 -0.5035708E-06  0.0000000E+00  0.1079567E-03
  0.5050505E-02  0.0000000E+00  0.3535353E-01  0.9455134E-06  0.0000000E+00  0.1400575E-03
  0.1515152E-01  0.0000000E+00  0.3535353E-01  0.2840393E-05  0.0000000E+00  0.1406071E-03
  0.2525252E-01  0.0000000E+00  0.3535353E-01  0.4746925E-05  0.0000000E+00  0.1417083E-03
  0.3535353E-01  0.0000000E+00  0.3535353E-01  0.6673097E-05  0.0000000E+00  0.1433656E-03
  0.4545455E-01  0.0000000E+00  0.3535353E-01  0.8627169E-05  0.0000000E+00  0.1455858E-03
  0.5555556E-01  0.0000000E+00  0.3535353E-01  0.1061777E-04  0.0000000E+00  0.1483784E-03
  0.6565657E-01  0.0000000E+00  0.3535353E-01  0.1265399E-04  0.0000000E+00  0.1517554E-03
  0.7575758E-01  0.0000000E+00  0.3535353E-01  0.1474553E-04  0.0000000E+00  0.1557314E-03
  0.8585858E-01  0.0000000E+00  0.3535353E-01  0.1690281E-04  0.0000000E+00  0.1603244E-03
  0.9595960E-01  0.0000000E+00  0.3535353E-01  0.1913716E-04  0.0000000E+00  0.1655551E-03
  0.1060606E+00  0.0000000E+00  0.3535353E-01  0.2146098E-04  0.0000000E+00  0.1714481E-03
  0.1161616E+00  0.0000000E+00  0.3535353E-01  0.2388794E-04  0.0000000E+00  0.1780317E-03
  0.1262626E+00  0.0000000E+00  0.3535353E-01  0.2643325E-04  0.0000000E+00  0.1853383E-03
  0.1363636E+00  0.0000000E+00  0.3535353E-01  0.2911389E-04  0.0000000E+00  0.1934054E-03
  0.1464646E+00  0.0000000E+00  0.3535353E-01  0.3194891E-04  0.0000000E+00  0.2022757E-03
  0.1565657E+00  0.0000000E+00  0.3535353E-01  0.3495978E-04  0.0000000E+00  0.2119978E-03
  0.1666667E+00  0.0000000E+00  0.3535353E-01  0.3817068E-04  0.0000000E+00  0.2226274E-03
  0.1767677E+00  0.0000000E+00  0.3535353E-01  0.4160890E-04  0.0000000E+00  0.2342282E-03
  0.1868687E+00  0.0000000E+00  0.3535353E-01  0.4530520E-04  0.0000000E+00  0.2468723E-03
  0.1969697E+00  0.0000000E+00  0.3535353E-01  0.4929418E-04  0.0000000E+00  0.2606423E-03
  0.2070707E+00  0.0000000E+00  0.3535353E-01  0.5361467E-04  0.0000000E+00  0.2756319E-03
  0.2171717E+00  0.0000000E+00  0.3535353E-01  0.5831018E-04  0.0000000E+00  0.2919470E-03
  0.2272727E+00  0.0000000E+00  0.3535353E-01  0.6342962E-04  0.0000000E+00  0.3097072E-03
  0.2373737E+00  0.0000000E+00  0.3535353E-01  0.6902867E-04  0.0000000E+00  0.3290455E-03
  0.2474747E+00  0.0000000E+00  0.3535353E-01  0.7517260E-04  0.0000000E+00  0.3501085E-03
  0.2575758E+00  0.0000000E+00  0.3535353E-01  0.8194222E-04  0.0000000E+00  0.3730555E-03
  0.2676768E+00  0.0000000E+00  0.3535353E-01  0.8944527E-04  0.0000000E+00  0.3980576E-03
  0.2777778E+00  0.0000000E+00  0.3535353E-01  0.9783647E-04  0.0000000E+00  0.4252994E-03
  0.2878788E+00  0.0000000E+00  0.3535353E-01  0.1073488E-03  0.0000000E+00  0.4549863E-03
  0.2979798E+00  0.0000000E+00  0.3535353E-01  0.1183364E-03  0.0000000E+00  0.4873579E-03