title = "dataset water"
variables = "x", "y", "z", "vx", "vy", "vz"
zone t = "velocities, solution time =  3.800E+01 days        " i =   99, j =   99, k =    1,  f=point
  0.5050505E-02  0.0000000E+00  0.5050505E-02  0.7253202E-07  0.0000000E+00  0.5993252E-04
  0.1515152E-01  0.0000000E+00  0.5050505E-02  0.2178783E-06  0.0000000E+00  0.6022592E-04
  0.2525252E-01  0.0000000E+00  0.5050505E-02  0.3640765E-06  0.0000000E+00  0.6081390E-04
  0.3535353E-01  0.0000000E+00  0.5050505E-02  0.5117021E-06  0.0000000E+00  0.6169880E-04
  0.4545455E-01  0.0000000E+00  0.5050505E-02  0.6613359E-06  0.0000000E+00  0.6288419E-04
  0.5555556E-01  0.0000000E+00  0.5050505E-02  0.8135649E-06  0.0000000E+00  0.6437483E-04
  0.6565657E-01  0.0000000E+00  0.5050505E-02  0.9689833E-06  0.0000000E+00  0.6617673E-04
  0.7575758E-01  0.0000000E+00  0.5050505E-02  0.1128193E-05  0.0000000E+00  0.6829715E-04
  0.8585858E-01  0.0000000E+00  0.5050505E-02  0.1291806E-05  0.0000000E+00  0.7074459E-04
  0.9595960E-01  0.0000000E+00  0.5050505E-02  0.1460443E-05  0.0000000E+00  0.7352889E-04
  0.1060606E+00  0.0000000E+00  0.5050505E-02  0.1634739E-05  0.0000000E+00  0.7666119E-04
  0.1161616E+00  0.0000000E+00  0.5050505E-02  0.1815338E-05  0.0000000E+00  0.8015397E-04
  0.1262626E+00  0.0000000E+00  0.5050505E-02  0.2002902E-05  0.0000000E+00  0.8402112E-04
  0.1363636E+00  0.0000000E+00  0.5050505E-02  0.2198104E-05  0.0000000E+00  0.8827795E-04
  0.1464646E+00  0.0000000E+00  0.5050505E-02  0.2401634E-05  0.0000000E+00  0.9294124E-04
  0.1565657E+00  0.0000000E+00  0.5050505E-02  0.2614195E-05  0.0000000E+00  0.9802926E-04
  0.1666667E+00  0.0000000E+00  0.5050505E-02  0.2836507E-05  0.0000000E+00  0.1035618E-03
  0.1767677E+00  0.0000000E+00  0.5050505E-02  0.3069303E-05  0.0000000E+00  0.1095604E-03
  0.1868687E+00  0.0000000E+00  0.5050505E-02  0.3313331E-05  0.0000000E+00  0.1160481E-03
  0.1969697E+00  0.0000000E+00  0.5050505E-02  0.3569352E-05  0.0000000E+00  0.1230496E-03
  0.2070707E+00  0.0000000E+00  0.5050505E-02  0.3838139E-05  0.0000000E+00  0.1305913E-03
  0.2171717E+00  0.0000000E+00  0.5050505E-02  0.4120486E-05  0.0000000E+00  0.1387017E-03
  0.2272727E+00  0.0000000E+00  0.5050505E-02  0.4417213E-05  0.0000000E+00  0.1474108E-03
  0.2373737E+00  0.0000000E+00  0.5050505E-02  0.4729192E-05  0.0000000E+00  0.1567507E-03
  0.2474747E+00  0.0000000E+00  0.5050505E-02  0.5057392E-05  0.0000000E+00  0.1667557E-03
  0.2575758E+00  0.0000000E+00  0.5050505E-02  0.5402977E-05  0.0000000E+00  0.1774625E-03
  0.2676768E+00  0.0000000E+00  0.5050505E-02  0.5767484E-05  0.0000000E+00  0.1889111E-03
  0.2777778E+00  0.0000000E+00  0.5050505E-02  0.6153151E-05  0.0000000E+00  0.2011456E-03
  0.2878788E+00  0.0000000E+00  0.5050505E-02  0.6563524E-05  0.0000000E+00  0.2142166E-03
  0.2979798E+00  0.0000000E+00  0.5050505E-02  0.7004560E-05  0.0000000E+00  0.2281848E-03
  0.3080808E+00  0.0000000E+00  0.5050505E-02  0.7486641E-05  0.0000000E+00  0.2431287E-03
  0.3181818E+00  0.0000000E+00  0.5050505E-02  0.8028313E-05  0.0000000E+00  0.2591575E-03
  0.3282828E+00  0.0000000E+00  0.5050505E-02  0.8663458E-05  0.0000000E+00  0.2764356E-03
  0.3383838E+00  0.0000000E+00  0.5050505E-02  0.9455764E-05  0.0000000E+00  0.2952309E-03
  0.3484848E+00  0.0000000E+00  0.5050505E-02  0.1053020E-04  0.0000000E+00  0.3160101E-03
  0.3585859E+00  0.0000000E+00  0.5050505E-02  0.1214843E-04  0.0000000E+00  0.3396489E-03
  0.3686869E+00  0.0000000E+00  0.5050505E-02  0.1491083E-04  0.0000000E+00  0.3679362E-03
  0.3787879E+00  0.0000000E+00  0.5050505E-02  0.2036406E-04  0.0000000E+00  0.4049432E-03
  0.3888889E+00  0.0000000E+00  0.5050505E-02  0.3304342E-04  0.0000000E+00  0.4612418E-03
  0.3989899E+00  0.0000000E+00  0.5050505E-02 -0.2624013E-04  0.0000000E+00  0.4683798E-03
  0.4090909E+00  0.0000000E+00  0.5050505E-02 -0.1335013E-04  0.0000000E+00  0.4265403E-03
  0.4191919E+00  0.0000000E+00  0.5050505E-02 -0.7503363E-05  0.0000000E+00  0.4045666E-03
  0.4292929E+00  0.0000000E+00  0.5050505E-02 -0.4193285E-05  0.0000000E+00  0.3922613E-03
  0.4393939E+00  0.0000000E+00  0.5050505E-02 -0.1899659E-05  0.0000000E+00  0.3858567E-03
  0.4494950E+00  0.0000000E+00  0.5050505E-02 -0.3911120E-07  0.0000000E+00  0.3838194E-03
  0.4595959E+00  0.0000000E+00  0.5050505E-02  0.1645356E-05  0.0000000E+00  0.3855072E-03
  0.4696970E+00  0.0000000E+00  0.5050505E-02  0.3288323E-05  0.0000000E+00  0.3906930E-03
  0.4797980E+00  0.0000000E+00  0.5050505E-02  0.4979940E-05  0.0000000E+00  0.3993893E-03
  0.4898990E+00  0.0000000E+00  0.5050505E-02  0.6804408E-05  0.0000000E+00  0.4117968E-03
  0.5000000E+00  0.0000000E+00  0.5050505E-02  0.8873194E-05  0.0000000E+00  0.4283285E-03
  0.5101010E+00  0.0000000E+00  0.5050505E-02  0.1137849E-04  0.0000000E+00  0.4497265E-03
  0.5202020E+00  0.0000000E+00  0.5050505E-02  0.1471513E-04  0.0000000E+00  0.4773695E-03
  0.5303030E+00  0.0000000E+00  0.5050505E-02  0.1981003E-04  0.0000000E+00  0.5140697E-03
  0.5404040E+00  0.0000000E+00  0.5050505E-02  0.2913367E-04  0.0000000E+00  0.5663373E-03
  0.5505050E+00  0.0000000E+00  0.5050505E-02  0.5019696E-04  0.0000000E+00  0.6516313E-03
  0.5606061E+00  0.0000000E+00  0.5050505E-02 -0.5528827E-04  0.0000000E+00  0.6462193E-03
  0.5707071E+00  0.0000000E+00  0.5050505E-02 -0.3435470E-04  0.0000000E+00  0.5500224E-03
  0.5808081E+00  0.0000000E+00  0.5050505E-02 -0.2526091E-04  0.0000000E+00  0.4865673E-03
  0.5909091E+00  0.0000000E+00  0.5050505E-02 -0.2046459E-04  0.0000000E+00  0.4381897E-03
  0.6010101E+00  0.0000000E+00  0.5050505E-02 -0.1746835E-04  0.0000000E+00  0.3982530E-03
  0.6111111E+00  0.0000000E+00  0.5050505E-02 -0.1533151E-04  0.0000000E+00  0.3638652E-03
  0.6212121E+00  0.0000000E+00  0.5050505E-02 -0.1365963E-04  0.0000000E+00  0.3335822E-03
  0.6313131E+00  0.0000000E+00  0.5050505E-02 -0.1227258E-04  0.0000000E+00  0.3065831E-03
  0.6414142E+00  0.0000000E+00  0.5050505E-02 -0.1108157E-04  0.0000000E+00  0.2823398E-03
  0.6515151E+00  0.0000000E+00  0.5050505E-02 -0.1003891E-04  0.0000000E+00  0.2604733E-03
  0.6616161E+00  0.0000000E+00  0.5050505E-02 -0.9116240E-05  0.0000000E+00  0.2406892E-03
  0.6717172E+00  0.0000000E+00  0.5050505E-02 -0.8294667E-05  0.0000000E+00  0.2227458E-03
  0.6818182E+00  0.0000000E+00  0.5050505E-02 -0.7560225E-05  0.0000000E+00  0.2064385E-03
  0.6919192E+00  0.0000000E+00  0.5050505E-02 -0.6901777E-05  0.0000000E+00  0.1915907E-03
  0.7020202E+00  0.0000000E+00  0.5050505E-02 -0.6310001E-05  0.0000000E+00  0.1780488E-03
  0.7121212E+00  0.0000000E+00  0.5050505E-02 -0.5776889E-05  0.0000000E+00  0.1656785E-03
  0.7222222E+00  0.0000000E+00  0.5050505E-02 -0.5295471E-05  0.0000000E+00  0.1543622E-03
  0.7323232E+00  0.0000000E+00  0.5050505E-02 -0.4859647E-05  0.0000000E+00  0.1439965E-03
  0.7424242E+00  0.0000000E+00  0.5050505E-02 -0.4464063E-05  0.0000000E+00  0.1344905E-03
  0.7525253E+00  0.0000000E+00  0.5050505E-02 -0.4104022E-05  0.0000000E+00  0.1257641E-03
  0.7626263E+00  0.0000000E+00  0.5050505E-02 -0.3775398E-05  0.0000000E+00  0.1177470E-03
  0.7727273E+00  0.0000000E+00  0.5050505E-02 -0.3474571E-05  0.0000000E+00  0.1103770E-03
  0.7828283E+00  0.0000000E+00  0.5050505E-02 -0.3198358E-05  0.0000000E+00  0.1035992E-03
  0.7929293E+00  0.0000000E+00  0.5050505E-02 -0.2943962E-05  0.0000000E+00  0.9736510E-04
  0.8030303E+00  0.0000000E+00  0.5050505E-02 -0.2708923E-05  0.0000000E+00  0.9163176E-04
  0.8131313E+00  0.0000000E+00  0.5050505E-02 -0.2491071E-05  0.0000000E+00  0.8636115E-04
  0.8232324E+00  0.0000000E+00  0.5050505E-02 -0.2288492E-05  0.0000000E+00  0.8151955E-04
  0.8333333E+00  0.0000000E+00  0.5050505E-02 -0.2099490E-05  0.0000000E+00  0.7707703E-04
  0.8434343E+00  0.0000000E+00  0.5050505E-02 -0.1922562E-05  0.0000000E+00  0.7300701E-04
  0.8535354E+00  0.0000000E+00  0.5050505E-02 -0.1756368E-05  0.0000000E+00  0.6928590E-04
  0.8636364E+00  0.0000000E+00  0.5050505E-02 -0.1599715E-05  0.0000000E+00  0.6589275E-04
  0.8737374E+00  0.0000000E+00  0.5050505E-02 -0.1451527E-05  0.0000000E+00  0.6280897E-04
  0.8838384E+00  0.0000000E+00  0.5050505E-02 -0.1310840E-05  0.0000000E+00  0.6001810E-04
  0.8939394E+00  0.0000000E+00  0.5050505E-02 -0.1176779E-05  0.0000000E+00  0.5750558E-04
  0.9040404E+00  0.0000000E+00  0.5050505E-02 -0.1048546E-05  0.0000000E+00  0.5525860E-04
  0.9141414E+00  0.0000000E+00  0.5050505E-02 -0.9254126E-06  0.0000000E+00  0.5326592E-04
  0.9242424E+00  0.0000000E+00  0.5050505E-02 -0.8067057E-06  0.0000000E+00  0.5151774E-04
  0.9343435E+00  0.0000000E+00  0.5050505E-02 -0.6918012E-06  0.0000000E+00  0.5000563E-04
  0.9444444E+00  0.0000000E+00  0.5050505E-02 -0.5801155E-06  0.0000000E+00  0.4872236E-04
  0.9545454E+00  0.0000000E+00  0.5050505E-02 -0.4710986E-06  0.0000000E+00  0.4766190E-04
  0.9646465E+00  0.0000000E+00  0.5050505E-02 -0.3642281E-06  0.0000000E+00  0.4681932E-04
  0.9747475E+00  0.0000000E+00  0.5050505E-02 -0.2590036E-06  0.0000000E+00  0.4619072E-04
  0.9848485E+00  0.0000000E+00  0.5050505E-02 -0.1549415E-06  0.0000000E+00  0.4577323E-04
  0.9974747E+00  0.0000000E+00  0.5050505E-02 -0.5157084E-07  0.0000000E+00  0.4556496E-04
  0.5050505E-02  0.0000000E+00  0.1515152E-01  0.2173822E-06  0.0000000E+00  0.5991706E-04
  0.1515152E-01  0.0000000E+00  0.1515152E-01  0.6529961E-06  0.0000000E+00  0.6021045E-04
  0.2525252E-01  0.0000000E+00  0.1515152E-01  0.1091171E-05  0.0000000E+00  0.6079840E-04
  0.3535353E-01  0.0000000E+00  0.1515152E-01  0.1533634E-05  0.0000000E+00  0.6168326E-04
  0.4545455E-01  0.0000000E+00  0.1515152E-01  0.1982129E-05  0.0000000E+00  0.6286859E-04
  0.5555556E-01  0.0000000E+00  0.1515152E-01  0.2438415E-05  0.0000000E+00  0.6435916E-04
  0.6565657E-01  0.0000000E+00  0.1515152E-01  0.2904275E-05  0.0000000E+00  0.6616098E-04
  0.7575758E-01  0.0000000E+00  0.1515152E-01  0.3381517E-05  0.0000000E+00  0.6828132E-04
  0.8585858E-01  0.0000000E+00  0.1515152E-01  0.3871973E-05  0.0000000E+00  0.7072871E-04
  0.9595960E-01  0.0000000E+00  0.1515152E-01  0.4377510E-05  0.0000000E+00  0.7351299E-04
  0.1060606E+00  0.0000000E+00  0.1515152E-01  0.4900030E-05  0.0000000E+00  0.7664530E-04
  0.1161616E+00  0.0000000E+00  0.1515152E-01  0.5441471E-05  0.0000000E+00  0.8013816E-04
  0.1262626E+00  0.0000000E+00  0.1515152E-01  0.6003813E-05  0.0000000E+00  0.8400548E-04
  0.1363636E+00  0.0000000E+00  0.1515152E-01  0.6589081E-05  0.0000000E+00  0.8826260E-04
  0.1464646E+00  0.0000000E+00  0.1515152E-01  0.7199344E-05  0.0000000E+00  0.9292632E-04
  0.1565657E+00  0.0000000E+00  0.1515152E-01  0.7836716E-05  0.0000000E+00  0.9801496E-04
  0.1666667E+00  0.0000000E+00  0.1515152E-01  0.8503357E-05  0.0000000E+00  0.1035484E-03
  0.1767677E+00  0.0000000E+00  0.1515152E-01  0.9201470E-05  0.0000000E+00  0.1095481E-03
  0.1868687E+00  0.0000000E+00  0.1515152E-01  0.9933298E-05  0.0000000E+00  0.1160371E-03
  0.1969697E+00  0.0000000E+00  0.1515152E-01  0.1070112E-04  0.0000000E+00  0.1230404E-03
  0.2070707E+00  0.0000000E+00  0.1515152E-01  0.1150726E-04  0.0000000E+00  0.1305843E-03
  0.2171717E+00  0.0000000E+00  0.1515152E-01  0.1235408E-04  0.0000000E+00  0.1386973E-03
  0.2272727E+00  0.0000000E+00  0.1515152E-01  0.1324400E-04  0.0000000E+00  0.1474094E-03
  0.2373737E+00  0.0000000E+00  0.1515152E-01  0.1417960E-04  0.0000000E+00  0.1567527E-03
  0.2474747E+00  0.0000000E+00  0.1515152E-01  0.1516367E-04  0.0000000E+00  0.1667612E-03
  0.2575758E+00  0.0000000E+00  0.1515152E-01  0.1619951E-04  0.0000000E+00  0.1774710E-03
  0.2676768E+00  0.0000000E+00  0.1515152E-01  0.1729140E-04  0.0000000E+00  0.1889210E-03
  0.2777778E+00  0.0000000E+00  0.1515152E-01  0.1844542E-04  0.0000000E+00  0.2011533E-03
  0.2878788E+00  0.0000000E+00  0.1515152E-01  0.1967113E-04  0.0000000E+00  0.2142145E-03
  0.2979798E+00  0.0000000E+00  0.1515152E-01  0.2098441E-04  0.0000000E+00  0.2281585E-03
  0.3080808E+00  0.0000000E+00  0.1515152E-01  0.2241278E-04  0.0000000E+00  0.2430510E-03
  0.3181818E+00  0.0000000E+00  0.1515152E-01  0.2400496E-04  0.0000000E+00  0.2589772E-03
  0.3282828E+00  0.0000000E+00  0.1515152E-01  0.2584876E-04  0.0000000E+00  0.2760563E-03
  0.3383838E+00  0.0000000E+00  0.1515152E-01  0.2810523E-04  0.0000000E+00  0.2944647E-03
  0.3484848E+00  0.0000000E+00  0.1515152E-01  0.3107757E-04  0.0000000E+00  0.3144709E-03
  0.3585859E+00  0.0000000E+00  0.1515152E-01  0.3535914E-04  0.0000000E+00  0.3364755E-03
  0.3686869E+00  0.0000000E+00  0.1515152E-01  0.4217593E-04  0.0000000E+00  0.3609830E-03
  0.3787879E+00  0.0000000E+00  0.1515152E-01  0.5424016E-04  0.0000000E+00  0.3881322E-03
  0.3888889E+00  0.0000000E+00  0.1515152E-01  0.7801950E-04  0.0000000E+00  0.4149398E-03
  0.3989899E+00  0.0000000E+00  0.1515152E-01 -0.5775490E-04  0.0000000E+00  0.4219082E-03
  0.4090909E+00  0.0000000E+00  0.1515152E-01 -0.3333235E-04  0.0000000E+00  0.4092489E-03
  0.4191919E+00  0.0000000E+00  0.1515152E-01 -0.2006360E-04  0.0000000E+00  0.3968808E-03
  0.4292929E+00  0.0000000E+00  0.1515152E-01 -0.1158078E-04  0.0000000E+00  0.3881616E-03
  0.4393939E+00  0.0000000E+00  0.1515152E-01 -0.5259349E-05  0.0000000E+00  0.3832450E-03
  0.4494950E+00  0.0000000E+00  0.1515152E-01  0.7240600E-07  0.0000000E+00  0.3818609E-03
  0.4595959E+00  0.0000000E+00  0.1515152E-01  0.4992975E-05  0.0000000E+00  0.3838157E-03
  0.4696970E+00  0.0000000E+00  0.1515152E-01  0.9832419E-05  0.0000000E+00  0.3890487E-03
  0.4797980E+00  0.0000000E+00  0.1515152E-01  0.1482408E-04  0.0000000E+00  0.3976223E-03
  0.4898990E+00  0.0000000E+00  0.1515152E-01  0.2018871E-04  0.0000000E+00  0.4097147E-03
  0.5000000E+00  0.0000000E+00  0.1515152E-01  0.2621008E-04  0.0000000E+00  0.4256290E-03
  0.5101010E+00  0.0000000E+00  0.1515152E-01  0.3335052E-04  0.0000000E+00  0.4458219E-03
  0.5202020E+00  0.0000000E+00  0.1515152E-01  0.4248740E-04  0.0000000E+00  0.4709347E-03
  0.5303030E+00  0.0000000E+00  0.1515152E-01  0.5546301E-04  0.0000000E+00  0.5017024E-03
  0.5404040E+00  0.0000000E+00  0.1515152E-01  0.7645794E-04  0.0000000E+00  0.5380520E-03
  0.5505050E+00  0.0000000E+00  0.1515152E-01  0.1156265E-03  0.0000000E+00  0.5739195E-03
  0.5606061E+00  0.0000000E+00  0.1515152E-01 -0.1308349E-03  0.0000000E+00  0.5686193E-03
  0.5707071E+00  0.0000000E+00  0.1515152E-01 -0.9206834E-04  0.0000000E+00  0.5220427E-03
  0.5808081E+00  0.0000000E+00  0.1515152E-01 -0.7178999E-04  0.0000000E+00  0.4746375E-03
  0.5909091E+00  0.0000000E+00  0.1515152E-01 -0.5973399E-04  0.0000000E+00  0.4322648E-03
  0.6010101E+00  0.0000000E+00  0.1515152E-01 -0.5162937E-04  0.0000000E+00  0.3948886E-03
  0.6111111E+00  0.0000000E+00  0.1515152E-01 -0.4559151E-04  0.0000000E+00  0.3617211E-03
  0.6212121E+00  0.0000000E+00  0.1515152E-01 -0.4074627E-04  0.0000000E+00  0.3320815E-03
  0.6313131E+00  0.0000000E+00  0.1515152E-01 -0.3666850E-04  0.0000000E+00  0.3054570E-03
  0.6414142E+00  0.0000000E+00  0.1515152E-01 -0.3313917E-04  0.0000000E+00  0.2814538E-03
  0.6515151E+00  0.0000000E+00  0.1515152E-01 -0.3003607E-04  0.0000000E+00  0.2597552E-03
  0.6616161E+00  0.0000000E+00  0.1515152E-01 -0.2728360E-04  0.0000000E+00  0.2400969E-03
  0.6717172E+00  0.0000000E+00  0.1515152E-01 -0.2482954E-04  0.0000000E+00  0.2222522E-03
  0.6818182E+00  0.0000000E+00  0.1515152E-01 -0.2263414E-04  0.0000000E+00  0.2060246E-03
  0.6919192E+00  0.0000000E+00  0.1515152E-01 -0.2066504E-04  0.0000000E+00  0.1912425E-03
  0.7020202E+00  0.0000000E+00  0.1515152E-01 -0.1889483E-04  0.0000000E+00  0.1777554E-03
  0.7121212E+00  0.0000000E+00  0.1515152E-01 -0.1729978E-04  0.0000000E+00  0.1654311E-03
  0.7222222E+00  0.0000000E+00  0.1515152E-01 -0.1585918E-04  0.0000000E+00  0.1541534E-03
  0.7323232E+00  0.0000000E+00  0.1515152E-01 -0.1455483E-04  0.0000000E+00  0.1438203E-03
  0.7424242E+00  0.0000000E+00  0.1515152E-01 -0.1337079E-04  0.0000000E+00  0.1343418E-03
  0.7525253E+00  0.0000000E+00  0.1515152E-01 -0.1229301E-04  0.0000000E+00  0.1256389E-03
  0.7626263E+00  0.0000000E+00  0.1515152E-01 -0.1130919E-04  0.0000000E+00  0.1176416E-03
  0.7727273E+00  0.0000000E+00  0.1515152E-01 -0.1040850E-04  0.0000000E+00  0.1102884E-03
  0.7828283E+00  0.0000000E+00  0.1515152E-01 -0.9581443E-05  0.0000000E+00  0.1035248E-03
  0.7929293E+00  0.0000000E+00  0.1515152E-01 -0.8819650E-05  0.0000000E+00  0.9730286E-04
  0.8030303E+00  0.0000000E+00  0.1515152E-01 -0.8115769E-05  0.0000000E+00  0.9157983E-04
  0.8131313E+00  0.0000000E+00  0.1515152E-01 -0.7463314E-05  0.0000000E+00  0.8631799E-04
  0.8232324E+00  0.0000000E+00  0.1515152E-01 -0.6856560E-05  0.0000000E+00  0.8148383E-04
  0.8333333E+00  0.0000000E+00  0.1515152E-01 -0.6290439E-05  0.0000000E+00  0.7704764E-04
  0.8434343E+00  0.0000000E+00  0.1515152E-01 -0.5760452E-05  0.0000000E+00  0.7298299E-04
  0.8535354E+00  0.0000000E+00  0.1515152E-01 -0.5262596E-05  0.0000000E+00  0.6926643E-04
  0.8636364E+00  0.0000000E+00  0.1515152E-01 -0.4793294E-05  0.0000000E+00  0.6587714E-04
  0.8737374E+00  0.0000000E+00  0.1515152E-01 -0.4349336E-05  0.0000000E+00  0.6279662E-04
  0.8838384E+00  0.0000000E+00  0.1515152E-01 -0.3927833E-05  0.0000000E+00  0.6000850E-04
  0.8939394E+00  0.0000000E+00  0.1515152E-01 -0.3526164E-05  0.0000000E+00  0.5749830E-04
  0.9040404E+00  0.0000000E+00  0.1515152E-01 -0.3141948E-05  0.0000000E+00  0.5525326E-04
  0.9141414E+00  0.0000000E+00  0.1515152E-01 -0.2773000E-05  0.0000000E+00  0.5326220E-04
  0.9242424E+00  0.0000000E+00  0.1515152E-01 -0.2417307E-05  0.0000000E+00  0.5151537E-04
  0.9343435E+00  0.0000000E+00  0.1515152E-01 -0.2073001E-05  0.0000000E+00  0.5000435E-04
  0.9444444E+00  0.0000000E+00  0.1515152E-01 -0.1738336E-05  0.0000000E+00  0.4872197E-04
  0.9545454E+00  0.0000000E+00  0.1515152E-01 -0.1411665E-05  0.0000000E+00  0.4766221E-04
  0.9646465E+00  0.0000000E+00  0.1515152E-01 -0.1091423E-05  0.0000000E+00  0.4682016E-04
  0.9747475E+00  0.0000000E+00  0.1515152E-01 -0.7761129E-06  0.0000000E+00  0.4619195E-04
  0.9848485E+00  0.0000000E+00  0.1515152E-01 -0.4642865E-06  0.0000000E+00  0.4577471E-04
  0.9974747E+00  0.0000000E+00  0.1515152E-01 -0.1545332E-06  0.0000000E+00  0.4556655E-04
  0.5050505E-02  0.0000000E+00  0.2525252E-01  0.3618069E-06  0.0000000E+00  0.5988874E-04
  0.1515152E-01  0.0000000E+00  0.2525252E-01  0.1086842E-05  0.0000000E+00  0.6018213E-04
  0.2525252E-01  0.0000000E+00  0.2525252E-01  0.1816158E-05  0.0000000E+00  0.6077005E-04
  0.3535353E-01  0.0000000E+00  0.2525252E-01  0.2552637E-05  0.0000000E+00  0.6165486E-04
  0.4545455E-01  0.0000000E+00  0.2525252E-01  0.3299184E-05  0.0000000E+00  0.6284013E-04
  0.5555556E-01  0.0000000E+00  0.2525252E-01  0.4058737E-05  0.0000000E+00  0.6433063E-04
  0.6565657E-01  0.0000000E+00  0.2525252E-01  0.4834266E-05  0.0000000E+00  0.6613240E-04
  0.7575758E-01  0.0000000E+00  0.2525252E-01  0.5628786E-05  0.0000000E+00  0.6825271E-04
  0.8585858E-01  0.0000000E+00  0.2525252E-01  0.6445354E-05  0.0000000E+00  0.7070013E-04
  0.9595960E-01  0.0000000E+00  0.2525252E-01  0.7287083E-05  0.0000000E+00  0.7348452E-04
  0.1060606E+00  0.0000000E+00  0.2525252E-01  0.8157145E-05  0.0000000E+00  0.7661707E-04
  0.1161616E+00  0.0000000E+00  0.2525252E-01  0.9058775E-05  0.0000000E+00  0.8011034E-04
  0.1262626E+00  0.0000000E+00  0.2525252E-01  0.9995278E-05  0.0000000E+00  0.8397828E-04
  0.1363636E+00  0.0000000E+00  0.2525252E-01  0.1097003E-04  0.0000000E+00  0.8823630E-04
  0.1464646E+00  0.0000000E+00  0.2525252E-01  0.1198650E-04  0.0000000E+00  0.9290125E-04
  0.1565657E+00  0.0000000E+00  0.2525252E-01  0.1304820E-04  0.0000000E+00  0.9799153E-04
  0.1666667E+00  0.0000000E+00  0.2525252E-01  0.1415876E-04  0.0000000E+00  0.1035271E-03
  0.1767677E+00  0.0000000E+00  0.2525252E-01  0.1532183E-04  0.0000000E+00  0.1095295E-03
  0.1868687E+00  0.0000000E+00  0.2525252E-01  0.1654119E-04  0.0000000E+00  0.1160221E-03
  0.1969697E+00  0.0000000E+00  0.2525252E-01  0.1782061E-04  0.0000000E+00  0.1230296E-03
  0.2070707E+00  0.0000000E+00  0.2525252E-01  0.1916396E-04  0.0000000E+00  0.1305788E-03
  0.2171717E+00  0.0000000E+00  0.2525252E-01  0.2057514E-04  0.0000000E+00  0.1386981E-03
  0.2272727E+00  0.0000000E+00  0.2525252E-01  0.2205813E-04  0.0000000E+00  0.1474176E-03
  0.2373737E+00  0.0000000E+00  0.2525252E-01  0.2361702E-04  0.0000000E+00  0.1567692E-03
  0.2474747E+00  0.0000000E+00  0.2525252E-01  0.2525618E-04  0.0000000E+00  0.1667866E-03
  0.2575758E+00  0.0000000E+00  0.2525252E-01  0.2698055E-04  0.0000000E+00  0.1775052E-03
  0.2676768E+00  0.0000000E+00  0.2525252E-01  0.2879621E-04  0.0000000E+00  0.1889620E-03
  0.2777778E+00  0.0000000E+00  0.2525252E-01  0.3071149E-04  0.0000000E+00  0.2011957E-03
  0.2878788E+00  0.0000000E+00  0.2525252E-01  0.3273902E-04  0.0000000E+00  0.2142469E-03
  0.2979798E+00  0.0000000E+00  0.2525252E-01  0.3489944E-04  0.0000000E+00  0.2281578E-03
  0.3080808E+00  0.0000000E+00  0.2525252E-01  0.3722806E-04  0.0000000E+00  0.2429734E-03
  0.3181818E+00  0.0000000E+00  0.2525252E-01  0.3978661E-04  0.0000000E+00  0.2587418E-03
  0.3282828E+00  0.0000000E+00  0.2525252E-01  0.4268404E-04  0.0000000E+00  0.2755144E-03
  0.3383838E+00  0.0000000E+00  0.2525252E-01  0.4611307E-04  0.0000000E+00  0.2933424E-03
  0.3484848E+00  0.0000000E+00  0.2525252E-01  0.5041444E-04  0.0000000E+00  0.3122601E-03
  0.3585859E+00  0.0000000E+00  0.2525252E-01  0.5618831E-04  0.0000000E+00  0.3322205E-03
  0.3686869E+00  0.0000000E+00  0.2525252E-01  0.6447843E-04  0.0000000E+00  0.3528955E-03
  0.3787879E+00  0.0000000E+00  0.2525252E-01  0.7702105E-04  0.0000000E+00  0.3731201E-03
  0.3888889E+00  0.0000000E+00  0.2525252E-01  0.9626696E-04  0.0000000E+00  0.3896336E-03
  0.3989899E+00  0.0000000E+00  0.2525252E-01 -0.6303076E-04  0.0000000E+00  0.3962545E-03
  0.4090909E+00  0.0000000E+00  0.2525252E-01 -0.4264656E-04  0.0000000E+00  0.3932493E-03
  0.4191919E+00  0.0000000E+00  0.2525252E-01 -0.2799383E-04  0.0000000E+00  0.3872949E-03
  0.4292929E+00  0.0000000E+00  0.2525252E-01 -0.1683462E-04  0.0000000E+00  0.3820362E-03
  0.4393939E+00  0.0000000E+00  0.2525252E-01 -0.7604700E-05  0.0000000E+00  0.3788989E-03
  0.4494950E+00  0.0000000E+00  0.2525252E-01  0.6413214E-06  0.0000000E+00  0.3783958E-03
  0.4595959E+00  0.0000000E+00  0.2525252E-01  0.8478553E-05  0.0000000E+00  0.3807261E-03
  0.4696970E+00  0.0000000E+00  0.2525252E-01  0.1628868E-04  0.0000000E+00  0.3860070E-03
  0.4797980E+00  0.0000000E+00  0.2525252E-01  0.2436738E-04  0.0000000E+00  0.3943587E-03
  0.4898990E+00  0.0000000E+00  0.2525252E-01  0.3299938E-04  0.0000000E+00  0.4059279E-03
  0.5000000E+00  0.0000000E+00  0.2525252E-01  0.4253132E-04  0.0000000E+00  0.4208806E-03
  0.5101010E+00  0.0000000E+00  0.2525252E-01  0.5347350E-04  0.0000000E+00  0.4393587E-03
  0.5202020E+00  0.0000000E+00  0.2525252E-01  0.6667299E-04  0.0000000E+00  0.4613535E-03
  0.5303030E+00  0.0000000E+00  0.2525252E-01  0.8361276E-04  0.0000000E+00  0.4863684E-03
  0.5404040E+00  0.0000000E+00  0.2525252E-01  0.1068276E-03  0.0000000E+00  0.5126012E-03
  0.5505050E+00  0.0000000E+00  0.2525252E-01  0.1398849E-03  0.0000000E+00  0.5354877E-03
  0.5606061E+00  0.0000000E+00  0.2525252E-01 -0.1649400E-03  0.0000000E+00  0.5304214E-03
  0.5707071E+00  0.0000000E+00  0.2525252E-01 -0.1326197E-03  0.0000000E+00  0.4972352E-03
  0.5808081E+00  0.0000000E+00  0.2525252E-01 -0.1107129E-03  0.0000000E+00  0.4602176E-03
  0.5909091E+00  0.0000000E+00  0.2525252E-01 -0.9540054E-04  0.0000000E+00  0.4237225E-03
  0.6010101E+00  0.0000000E+00  0.2525252E-01 -0.8396505E-04  0.0000000E+00  0.3894941E-03
  0.6111111E+00  0.0000000E+00  0.2525252E-01 -0.7485397E-04  0.0000000E+00  0.3580424E-03
  0.6212121E+00  0.0000000E+00  0.2525252E-01 -0.6723743E-04  0.0000000E+00  0.3293904E-03
  0.6313131E+00  0.0000000E+00  0.2525252E-01 -0.6067345E-04  0.0000000E+00  0.3033795E-03
  0.6414142E+00  0.0000000E+00  0.2525252E-01 -0.5491629E-04  0.0000000E+00  0.2797907E-03
  0.6515151E+00  0.0000000E+00  0.2525252E-01 -0.4981733E-04  0.0000000E+00  0.2583935E-03
  0.6616161E+00  0.0000000E+00  0.2525252E-01 -0.4527648E-04  0.0000000E+00  0.2389670E-03
  0.6717172E+00  0.0000000E+00  0.2525252E-01 -0.4121895E-04  0.0000000E+00  0.2213076E-03
  0.6818182E+00  0.0000000E+00  0.2525252E-01 -0.3758448E-04  0.0000000E+00  0.2052315E-03
  0.6919192E+00  0.0000000E+00  0.2525252E-01 -0.3432210E-04  0.0000000E+00  0.1905750E-03
  0.7020202E+00  0.0000000E+00  0.2525252E-01 -0.3138770E-04  0.0000000E+00  0.1771928E-03
  0.7121212E+00  0.0000000E+00  0.2525252E-01 -0.2874264E-04  0.0000000E+00  0.1649566E-03
  0.7222222E+00  0.0000000E+00  0.2525252E-01 -0.2635295E-04  0.0000000E+00  0.1537533E-03
  0.7323232E+00  0.0000000E+00  0.2525252E-01 -0.2418870E-04  0.0000000E+00  0.1434830E-03
  0.7424242E+00  0.0000000E+00  0.2525252E-01 -0.2222359E-04  0.0000000E+00  0.1340576E-03
  0.7525253E+00  0.0000000E+00  0.2525252E-01 -0.2043446E-04  0.0000000E+00  0.1253996E-03
  0.7626263E+00  0.0000000E+00  0.2525252E-01 -0.1880095E-04  0.0000000E+00  0.1174405E-03
  0.7727273E+00  0.0000000E+00  0.2525252E-01 -0.1730520E-04  0.0000000E+00  0.1101197E-03
  0.7828283E+00  0.0000000E+00  0.2525252E-01 -0.1593147E-04  0.0000000E+00  0.1033837E-03
  0.7929293E+00  0.0000000E+00  0.2525252E-01 -0.1466594E-04  0.0000000E+00  0.9718506E-04
  0.8030303E+00  0.0000000E+00  0.2525252E-01 -0.1349643E-04  0.0000000E+00  0.9148189E-04
  0.8131313E+00  0.0000000E+00  0.2525252E-01 -0.1241220E-04  0.0000000E+00  0.8623691E-04
  0.8232324E+00  0.0000000E+00  0.2525252E-01 -0.1140378E-04  0.0000000E+00  0.8141709E-04
  0.8333333E+00  0.0000000E+00  0.2525252E-01 -0.1046277E-04  0.0000000E+00  0.7699306E-04
  0.8434343E+00  0.0000000E+00  0.2525252E-01 -0.9581709E-05  0.0000000E+00  0.7293874E-04
  0.8535354E+00  0.0000000E+00  0.2525252E-01 -0.8753970E-05  0.0000000E+00  0.6923094E-04
  0.8636364E+00  0.0000000E+00  0.2525252E-01 -0.7973623E-05  0.0000000E+00  0.6584905E-04
  0.8737374E+00  0.0000000E+00  0.2525252E-01 -0.7235347E-05  0.0000000E+00  0.6277480E-04
  0.8838384E+00  0.0000000E+00  0.2525252E-01 -0.6534348E-05  0.0000000E+00  0.5999196E-04
  0.8939394E+00  0.0000000E+00  0.2525252E-01 -0.5866283E-05  0.0000000E+00  0.5748620E-04
  0.9040404E+00  0.0000000E+00  0.2525252E-01 -0.5227199E-05  0.0000000E+00  0.5524488E-04
  0.9141414E+00  0.0000000E+00  0.2525252E-01 -0.4613473E-05  0.0000000E+00  0.5325692E-04
  0.9242424E+00  0.0000000E+00  0.2525252E-01 -0.4021764E-05  0.0000000E+00  0.5151266E-04
  0.9343435E+00  0.0000000E+00  0.2525252E-01 -0.3448972E-05  0.0000000E+00  0.5000374E-04
  0.9444444E+00  0.0000000E+00  0.2525252E-01 -0.2892197E-05  0.0000000E+00  0.4872305E-04
  0.9545454E+00  0.0000000E+00  0.2525252E-01 -0.2348705E-05  0.0000000E+00  0.4766464E-04
  0.9646465E+00  0.0000000E+00  0.2525252E-01 -0.1815899E-05  0.0000000E+00  0.4682361E-04
  0.9747475E+00  0.0000000E+00  0.2525252E-01 -0.1291292E-05  0.0000000E+00  0.4619613E-04
  0.9848485E+00  0.0000000E+00  0.2525252E-01 -0.7724770E-06  0.0000000E+00  0.4577936E-04
  0.9974747E+00  0.0000000E+00  0.2525252E-01 -0.2571110E-06  0.0000000E+00  0.4557143E-04
  0.5050505E-02  0.0000000E+00  0.3535353E-01  0.5058124E-06  0.0000000E+00  0.5984976E-04
  0.1515152E-01  0.0000000E+00  0.3535353E-01  0.1519435E-05  0.0000000E+00  0.6014314E-04
  0.2525252E-01  0.0000000E+00  0.3535353E-01  0.2539069E-05  0.0000000E+00  0.6073105E-04
  0.3535353E-01  0.0000000E+00  0.3535353E-01  0.3568754E-05  0.0000000E+00  0.6161584E-04
  0.4545455E-01  0.0000000E+00  0.3535353E-01  0.4612568E-05  0.0000000E+00  0.6280109E-04
  0.5555556E-01  0.0000000E+00  0.3535353E-01  0.5674625E-05  0.0000000E+00  0.6429158E-04
  0.6565657E-01  0.0000000E+00  0.3535353E-01  0.6759092E-05  0.0000000E+00  0.6609339E-04
  0.7575758E-01  0.0000000E+00  0.3535353E-01  0.7870190E-05  0.0000000E+00  0.6821381E-04
  0.8585858E-01  0.0000000E+00  0.3535353E-01  0.9012210E-05  0.0000000E+00  0.7066146E-04
  0.9595960E-01  0.0000000E+00  0.3535353E-01  0.1018952E-04  0.0000000E+00  0.7344623E-04
  0.1060606E+00  0.0000000E+00  0.3535353E-01  0.1140655E-04  0.0000000E+00  0.7657940E-04
  0.1161616E+00  0.0000000E+00  0.3535353E-01  0.1266786E-04  0.0000000E+00  0.8007357E-04
  0.1262626E+00  0.0000000E+00  0.3535353E-01  0.1397809E-04  0.0000000E+00  0.8394279E-04
  0.1363636E+00  0.0000000E+00  0.3535353E-01  0.1534197E-04  0.0000000E+00  0.8820253E-04
  0.1464646E+00  0.0000000E+00  0.3535353E-01  0.1676436E-04  0.0000000E+00  0.9286978E-04
  0.1565657E+00  0.0000000E+00  0.3535353E-01  0.1825023E-04  0.0000000E+00  0.9796306E-04
  0.1666667E+00  0.0000000E+00  0.3535353E-01  0.1980464E-04  0.0000000E+00  0.1035025E-03
  0.1767677E+00  0.0000000E+00  0.3535353E-01  0.2143277E-04  0.0000000E+00  0.1095097E-03
  0.1868687E+00  0.0000000E+00  0.3535353E-01  0.2313988E-04  0.0000000E+00  0.1160083E-03
  0.1969697E+00  0.0000000E+00  0.3535353E-01  0.2493131E-04  0.0000000E+00  0.1230232E-03
  0.2070707E+00  0.0000000E+00  0.3535353E-01  0.2681243E-04  0.0000000E+00  0.1305815E-03
  0.2171717E+00  0.0000000E+00  0.3535353E-01  0.2878868E-04  0.0000000E+00  0.1387116E-03
  0.2272727E+00  0.0000000E+00  0.3535353E-01  0.3086547E-04  0.0000000E+00  0.1474439E-03
  0.2373737E+00  0.0000000E+00  0.3535353E-01  0.3304830E-04  0.0000000E+00  0.1568104E-03
  0.2474747E+00  0.0000000E+00  0.3535353E-01  0.3534275E-04  0.0000000E+00  0.1668445E-03
  0.2575758E+00  0.0000000E+00  0.3535353E-01  0.3775476E-04  0.0000000E+00  0.1775810E-03
  0.2676768E+00  0.0000000E+00  0.3535353E-01  0.4029104E-04  0.0000000E+00  0.1890552E-03
  0.2777778E+00  0.0000000E+00  0.3535353E-01  0.4296006E-04  0.0000000E+00  0.2013024E-03
  0.2878788E+00  0.0000000E+00  0.3535353E-01  0.4577379E-04  0.0000000E+00  0.2143567E-03
  0.2979798E+00  0.0000000E+00  0.3535353E-01  0.4875107E-04  0.0000000E+00  0.2282484E-03