title = "dataset water"
variables = "x", "y", "z", "vx", "vy", "vz"
zone t = "velocities, solution time =  3.600E+01 days        " i =   99, j =   99, k =    1,  f=point
  0.5050505E-02  0.0000000E+00  0.5050505E-02  0.5093621E-07  0.0000000E+00  0.3908908E-04
  0.1515152E-01  0.0000000E+00  0.5050505E-02  0.1530088E-06  0.0000000E+00  0.3929460E-04
  0.2525252E-01  0.0000000E+00  0.5050505E-02  0.2556842E-06  0.0000000E+00  0.3970647E-04
  0.3535353E-01  0.0000000E+00  0.5050505E-02  0.3593670E-06  0.0000000E+00  0.4032632E-04
  0.4545455E-01  0.0000000E+00  0.5050505E-02  0.4644633E-06  0.0000000E+00  0.4115665E-04
  0.5555556E-01  0.0000000E+00  0.5050505E-02  0.5713801E-06  0.0000000E+00  0.4220077E-04
  0.6565657E-01  0.0000000E+00  0.5050505E-02  0.6805257E-06  0.0000000E+00  0.4346284E-04
  0.7575758E-01  0.0000000E+00  0.5050505E-02  0.7923093E-06  0.0000000E+00  0.4494786E-04
  0.8585858E-01  0.0000000E+00  0.5050505E-02  0.9071412E-06  0.0000000E+00  0.4666169E-04
  0.9595960E-01  0.0000000E+00  0.5050505E-02  0.1025433E-05  0.0000000E+00  0.4861102E-04
  0.1060606E+00  0.0000000E+00  0.5050505E-02  0.1147597E-05  0.0000000E+00  0.5080341E-04
  0.1161616E+00  0.0000000E+00  0.5050505E-02  0.1274050E-05  0.0000000E+00  0.5324729E-04
  0.1262626E+00  0.0000000E+00  0.5050505E-02  0.1405209E-05  0.0000000E+00  0.5595196E-04
  0.1363636E+00  0.0000000E+00  0.5050505E-02  0.1541497E-05  0.0000000E+00  0.5892760E-04
  0.1464646E+00  0.0000000E+00  0.5050505E-02  0.1683344E-05  0.0000000E+00  0.6218528E-04
  0.1565657E+00  0.0000000E+00  0.5050505E-02  0.1831191E-05  0.0000000E+00  0.6573703E-04
  0.1666667E+00  0.0000000E+00  0.5050505E-02  0.1985496E-05  0.0000000E+00  0.6959580E-04
  0.1767677E+00  0.0000000E+00  0.5050505E-02  0.2146742E-05  0.0000000E+00  0.7377557E-04
  0.1868687E+00  0.0000000E+00  0.5050505E-02  0.2315451E-05  0.0000000E+00  0.7829140E-04
  0.1969697E+00  0.0000000E+00  0.5050505E-02  0.2492208E-05  0.0000000E+00  0.8315953E-04
  0.2070707E+00  0.0000000E+00  0.5050505E-02  0.2677682E-05  0.0000000E+00  0.8839757E-04
  0.2171717E+00  0.0000000E+00  0.5050505E-02  0.2872679E-05  0.0000000E+00  0.9402469E-04
  0.2272727E+00  0.0000000E+00  0.5050505E-02  0.3078203E-05  0.0000000E+00  0.1000620E-03
  0.2373737E+00  0.0000000E+00  0.5050505E-02  0.3295553E-05  0.0000000E+00  0.1065331E-03
  0.2474747E+00  0.0000000E+00  0.5050505E-02  0.3526472E-05  0.0000000E+00  0.1134648E-03
  0.2575758E+00  0.0000000E+00  0.5050505E-02  0.3773358E-05  0.0000000E+00  0.1208883E-03
  0.2676768E+00  0.0000000E+00  0.5050505E-02  0.4039604E-05  0.0000000E+00  0.1288408E-03
  0.2777778E+00  0.0000000E+00  0.5050505E-02  0.4330109E-05  0.0000000E+00  0.1373683E-03
  0.2878788E+00  0.0000000E+00  0.5050505E-02  0.4652093E-05  0.0000000E+00  0.1465293E-03
  0.2979798E+00  0.0000000E+00  0.5050505E-02  0.5016413E-05  0.0000000E+00  0.1564013E-03
  0.3080808E+00  0.0000000E+00  0.5050505E-02  0.5439787E-05  0.0000000E+00  0.1670905E-03
  0.3181818E+00  0.0000000E+00  0.5050505E-02  0.5948673E-05  0.0000000E+00  0.1787479E-03
  0.3282828E+00  0.0000000E+00  0.5050505E-02  0.6586497E-05  0.0000000E+00  0.1915974E-03
  0.3383838E+00  0.0000000E+00  0.5050505E-02  0.7428059E-05  0.0000000E+00  0.2059860E-03
  0.3484848E+00  0.0000000E+00  0.5050505E-02  0.8610947E-05  0.0000000E+00  0.2224823E-03
  0.3585859E+00  0.0000000E+00  0.5050505E-02  0.1041135E-04  0.0000000E+00  0.2420867E-03
  0.3686869E+00  0.0000000E+00  0.5050505E-02  0.1344833E-04  0.0000000E+00  0.2667367E-03
  0.3787879E+00  0.0000000E+00  0.5050505E-02  0.1929977E-04  0.0000000E+00  0.3006753E-03
  0.3888889E+00  0.0000000E+00  0.5050505E-02  0.3256989E-04  0.0000000E+00  0.3546693E-03
  0.3989899E+00  0.0000000E+00  0.5050505E-02 -0.2825003E-04  0.0000000E+00  0.3591423E-03
  0.4090909E+00  0.0000000E+00  0.5050505E-02 -0.1486851E-04  0.0000000E+00  0.3141863E-03
  0.4191919E+00  0.0000000E+00  0.5050505E-02 -0.8811989E-05  0.0000000E+00  0.2895774E-03
  0.4292929E+00  0.0000000E+00  0.5050505E-02 -0.5493800E-05  0.0000000E+00  0.2747392E-03
  0.4393939E+00  0.0000000E+00  0.5050505E-02 -0.3351923E-05  0.0000000E+00  0.2655750E-03
  0.4494950E+00  0.0000000E+00  0.5050505E-02 -0.1776938E-05  0.0000000E+00  0.2602651E-03
  0.4595959E+00  0.0000000E+00  0.5050505E-02 -0.4936890E-06  0.0000000E+00  0.2579151E-03
  0.4696970E+00  0.0000000E+00  0.5050505E-02  0.6446376E-06  0.0000000E+00  0.2580713E-03
  0.4797980E+00  0.0000000E+00  0.5050505E-02  0.1735475E-05  0.0000000E+00  0.2605347E-03
  0.4898990E+00  0.0000000E+00  0.5050505E-02  0.2865835E-05  0.0000000E+00  0.2652985E-03
  0.5000000E+00  0.0000000E+00  0.5050505E-02  0.4142820E-05  0.0000000E+00  0.2725590E-03
  0.5101010E+00  0.0000000E+00  0.5050505E-02  0.5737973E-05  0.0000000E+00  0.2828040E-03
  0.5202020E+00  0.0000000E+00  0.5050505E-02  0.7981816E-05  0.0000000E+00  0.2970476E-03
  0.5303030E+00  0.0000000E+00  0.5050505E-02  0.1160977E-04  0.0000000E+00  0.3174238E-03
  0.5404040E+00  0.0000000E+00  0.5050505E-02  0.1849588E-04  0.0000000E+00  0.3488169E-03
  0.5505050E+00  0.0000000E+00  0.5050505E-02  0.3411335E-04  0.0000000E+00  0.4039043E-03
  0.5606061E+00  0.0000000E+00  0.5050505E-02 -0.3812502E-04  0.0000000E+00  0.3997370E-03
  0.5707071E+00  0.0000000E+00  0.5050505E-02 -0.2254905E-04  0.0000000E+00  0.3362985E-03
  0.5808081E+00  0.0000000E+00  0.5050505E-02 -0.1574111E-04  0.0000000E+00  0.2964711E-03
  0.5909091E+00  0.0000000E+00  0.5050505E-02 -0.1223097E-04  0.0000000E+00  0.2674827E-03
  0.6010101E+00  0.0000000E+00  0.5050505E-02 -0.1014933E-04  0.0000000E+00  0.2443558E-03
  0.6111111E+00  0.0000000E+00  0.5050505E-02 -0.8767754E-05  0.0000000E+00  0.2248546E-03
  0.6212121E+00  0.0000000E+00  0.5050505E-02 -0.7766263E-05  0.0000000E+00  0.2078456E-03
  0.6313131E+00  0.0000000E+00  0.5050505E-02 -0.6989471E-05  0.0000000E+00  0.1926941E-03
  0.6414142E+00  0.0000000E+00  0.5050505E-02 -0.6355614E-05  0.0000000E+00  0.1790139E-03
  0.6515151E+00  0.0000000E+00  0.5050505E-02 -0.5818788E-05  0.0000000E+00  0.1665528E-03
  0.6616161E+00  0.0000000E+00  0.5050505E-02 -0.5351784E-05  0.0000000E+00  0.1551350E-03
  0.6717172E+00  0.0000000E+00  0.5050505E-02 -0.4937675E-05  0.0000000E+00  0.1446314E-03
  0.6818182E+00  0.0000000E+00  0.5050505E-02 -0.4565443E-05  0.0000000E+00  0.1349419E-03
  0.6919192E+00  0.0000000E+00  0.5050505E-02 -0.4227595E-05  0.0000000E+00  0.1259862E-03
  0.7020202E+00  0.0000000E+00  0.5050505E-02 -0.3918810E-05  0.0000000E+00  0.1176975E-03
  0.7121212E+00  0.0000000E+00  0.5050505E-02 -0.3635141E-05  0.0000000E+00  0.1100188E-03
  0.7222222E+00  0.0000000E+00  0.5050505E-02 -0.3373541E-05  0.0000000E+00  0.1029006E-03
  0.7323232E+00  0.0000000E+00  0.5050505E-02 -0.3131568E-05  0.0000000E+00  0.9629916E-04
  0.7424242E+00  0.0000000E+00  0.5050505E-02 -0.2907201E-05  0.0000000E+00  0.9017554E-04
  0.7525253E+00  0.0000000E+00  0.5050505E-02 -0.2698720E-05  0.0000000E+00  0.8449479E-04
  0.7626263E+00  0.0000000E+00  0.5050505E-02 -0.2504628E-05  0.0000000E+00  0.7922538E-04
  0.7727273E+00  0.0000000E+00  0.5050505E-02 -0.2323602E-05  0.0000000E+00  0.7433878E-04
  0.7828283E+00  0.0000000E+00  0.5050505E-02 -0.2154459E-05  0.0000000E+00  0.6980908E-04
  0.7929293E+00  0.0000000E+00  0.5050505E-02 -0.1996128E-05  0.0000000E+00  0.6561279E-04
  0.8030303E+00  0.0000000E+00  0.5050505E-02 -0.1847639E-05  0.0000000E+00  0.6172855E-04
  0.8131313E+00  0.0000000E+00  0.5050505E-02 -0.1708101E-05  0.0000000E+00  0.5813694E-04
  0.8232324E+00  0.0000000E+00  0.5050505E-02 -0.1576703E-05  0.0000000E+00  0.5482035E-04
  0.8333333E+00  0.0000000E+00  0.5050505E-02 -0.1452695E-05  0.0000000E+00  0.5176277E-04
  0.8434343E+00  0.0000000E+00  0.5050505E-02 -0.1335390E-05  0.0000000E+00  0.4894973E-04
  0.8535354E+00  0.0000000E+00  0.5050505E-02 -0.1224153E-05  0.0000000E+00  0.4636809E-04
  0.8636364E+00  0.0000000E+00  0.5050505E-02 -0.1118395E-05  0.0000000E+00  0.4400600E-04
  0.8737374E+00  0.0000000E+00  0.5050505E-02 -0.1017574E-05  0.0000000E+00  0.4185278E-04
  0.8838384E+00  0.0000000E+00  0.5050505E-02 -0.9211843E-06  0.0000000E+00  0.3989883E-04
  0.8939394E+00  0.0000000E+00  0.5050505E-02 -0.8287551E-06  0.0000000E+00  0.3813556E-04
  0.9040404E+00  0.0000000E+00  0.5050505E-02 -0.7398470E-06  0.0000000E+00  0.3655531E-04
  0.9141414E+00  0.0000000E+00  0.5050505E-02 -0.6540477E-06  0.0000000E+00  0.3515131E-04
  0.9242424E+00  0.0000000E+00  0.5050505E-02 -0.5709689E-06  0.0000000E+00  0.3391760E-04
  0.9343435E+00  0.0000000E+00  0.5050505E-02 -0.4902433E-06  0.0000000E+00  0.3284900E-04
  0.9444444E+00  0.0000000E+00  0.5050505E-02 -0.4115214E-06  0.0000000E+00  0.3194105E-04
  0.9545454E+00  0.0000000E+00  0.5050505E-02 -0.3344693E-06  0.0000000E+00  0.3119002E-04
  0.9646465E+00  0.0000000E+00  0.5050505E-02 -0.2587656E-06  0.0000000E+00  0.3059282E-04
  0.9747475E+00  0.0000000E+00  0.5050505E-02 -0.1840994E-06  0.0000000E+00  0.3014701E-04
  0.9848485E+00  0.0000000E+00  0.5050505E-02 -0.1101679E-06  0.0000000E+00  0.2985081E-04
  0.9974747E+00  0.0000000E+00  0.5050505E-02 -0.3667424E-07  0.0000000E+00  0.2970300E-04
  0.5050505E-02  0.0000000E+00  0.1515152E-01  0.1526978E-06  0.0000000E+00  0.3910345E-04
  0.1515152E-01  0.0000000E+00  0.1515152E-01  0.4586958E-06  0.0000000E+00  0.3930912E-04
  0.2525252E-01  0.0000000E+00  0.1515152E-01  0.7665058E-06  0.0000000E+00  0.3972129E-04
  0.3535353E-01  0.0000000E+00  0.1515152E-01  0.1077343E-05  0.0000000E+00  0.4034159E-04
  0.4545455E-01  0.0000000E+00  0.1515152E-01  0.1392426E-05  0.0000000E+00  0.4117253E-04
  0.5555556E-01  0.0000000E+00  0.1515152E-01  0.1712977E-05  0.0000000E+00  0.4221743E-04
  0.6565657E-01  0.0000000E+00  0.1515152E-01  0.2040222E-05  0.0000000E+00  0.4348046E-04
  0.7575758E-01  0.0000000E+00  0.1515152E-01  0.2375388E-05  0.0000000E+00  0.4496665E-04
  0.8585858E-01  0.0000000E+00  0.1515152E-01  0.2719707E-05  0.0000000E+00  0.4668185E-04
  0.9595960E-01  0.0000000E+00  0.1515152E-01  0.3074415E-05  0.0000000E+00  0.4863281E-04
  0.1060606E+00  0.0000000E+00  0.1515152E-01  0.3440751E-05  0.0000000E+00  0.5082710E-04
  0.1161616E+00  0.0000000E+00  0.1515152E-01  0.3819961E-05  0.0000000E+00  0.5327316E-04
  0.1262626E+00  0.0000000E+00  0.1515152E-01  0.4213299E-05  0.0000000E+00  0.5598034E-04
  0.1363636E+00  0.0000000E+00  0.1515152E-01  0.4622033E-05  0.0000000E+00  0.5895883E-04
  0.1464646E+00  0.0000000E+00  0.1515152E-01  0.5047450E-05  0.0000000E+00  0.6221975E-04
  0.1565657E+00  0.0000000E+00  0.1515152E-01  0.5490867E-05  0.0000000E+00  0.6577512E-04
  0.1666667E+00  0.0000000E+00  0.1515152E-01  0.5953651E-05  0.0000000E+00  0.6963792E-04
  0.1767677E+00  0.0000000E+00  0.1515152E-01  0.6437240E-05  0.0000000E+00  0.7382209E-04
  0.1868687E+00  0.0000000E+00  0.1515152E-01  0.6943184E-05  0.0000000E+00  0.7834267E-04
  0.1969697E+00  0.0000000E+00  0.1515152E-01  0.7473201E-05  0.0000000E+00  0.8321580E-04
  0.2070707E+00  0.0000000E+00  0.1515152E-01  0.8029264E-05  0.0000000E+00  0.8845892E-04
  0.2171717E+00  0.0000000E+00  0.1515152E-01  0.8613724E-05  0.0000000E+00  0.9409095E-04
  0.2272727E+00  0.0000000E+00  0.1515152E-01  0.9229495E-05  0.0000000E+00  0.1001326E-03
  0.2373737E+00  0.0000000E+00  0.1515152E-01  0.9880335E-05  0.0000000E+00  0.1066067E-03
  0.2474747E+00  0.0000000E+00  0.1515152E-01  0.1057125E-04  0.0000000E+00  0.1135391E-03
  0.2575758E+00  0.0000000E+00  0.1515152E-01  0.1130911E-04  0.0000000E+00  0.1209593E-03
  0.2676768E+00  0.0000000E+00  0.1515152E-01  0.1210359E-04  0.0000000E+00  0.1289022E-03
  0.2777778E+00  0.0000000E+00  0.1515152E-01  0.1296858E-04  0.0000000E+00  0.1374100E-03
  0.2878788E+00  0.0000000E+00  0.1515152E-01  0.1392444E-04  0.0000000E+00  0.1465352E-03
  0.2979798E+00  0.0000000E+00  0.1515152E-01  0.1500159E-04  0.0000000E+00  0.1563459E-03
  0.3080808E+00  0.0000000E+00  0.1515152E-01  0.1624640E-04  0.0000000E+00  0.1669325E-03
  0.3181818E+00  0.0000000E+00  0.1515152E-01  0.1773125E-04  0.0000000E+00  0.1784196E-03
  0.3282828E+00  0.0000000E+00  0.1515152E-01  0.1957247E-04  0.0000000E+00  0.1909825E-03
  0.3383838E+00  0.0000000E+00  0.1515152E-01  0.2196419E-04  0.0000000E+00  0.2048741E-03
  0.3484848E+00  0.0000000E+00  0.1515152E-01  0.2524620E-04  0.0000000E+00  0.2204614E-03
  0.3585859E+00  0.0000000E+00  0.1515152E-01  0.3005077E-04  0.0000000E+00  0.2382637E-03
  0.3686869E+00  0.0000000E+00  0.1515152E-01  0.3764465E-04  0.0000000E+00  0.2589171E-03
  0.3787879E+00  0.0000000E+00  0.1515152E-01  0.5078431E-04  0.0000000E+00  0.2826807E-03
  0.3888889E+00  0.0000000E+00  0.1515152E-01  0.7598923E-04  0.0000000E+00  0.3066266E-03
  0.3989899E+00  0.0000000E+00  0.1515152E-01 -0.6310449E-04  0.0000000E+00  0.3110060E-03
  0.4090909E+00  0.0000000E+00  0.1515152E-01 -0.3755954E-04  0.0000000E+00  0.2959288E-03
  0.4191919E+00  0.0000000E+00  0.1515152E-01 -0.2379121E-04  0.0000000E+00  0.2813613E-03
  0.4292929E+00  0.0000000E+00  0.1515152E-01 -0.1534087E-04  0.0000000E+00  0.2704204E-03
  0.4393939E+00  0.0000000E+00  0.1515152E-01 -0.9504978E-05  0.0000000E+00  0.2629850E-03
  0.4494950E+00  0.0000000E+00  0.1515152E-01 -0.5048337E-05  0.0000000E+00  0.2585219E-03
  0.4595959E+00  0.0000000E+00  0.1515152E-01 -0.1343512E-05  0.0000000E+00  0.2565989E-03
  0.4696970E+00  0.0000000E+00  0.1515152E-01  0.1973967E-05  0.0000000E+00  0.2569395E-03
  0.4797980E+00  0.0000000E+00  0.1515152E-01  0.5159357E-05  0.0000000E+00  0.2594039E-03
  0.4898990E+00  0.0000000E+00  0.1515152E-01  0.8444050E-05  0.0000000E+00  0.2639751E-03
  0.5000000E+00  0.0000000E+00  0.1515152E-01  0.1210655E-04  0.0000000E+00  0.2707639E-03
  0.5101010E+00  0.0000000E+00  0.1515152E-01  0.1657080E-04  0.0000000E+00  0.2800343E-03
  0.5202020E+00  0.0000000E+00  0.1515152E-01  0.2259324E-04  0.0000000E+00  0.2922363E-03
  0.5303030E+00  0.0000000E+00  0.1515152E-01  0.3168046E-04  0.0000000E+00  0.3079613E-03
  0.5404040E+00  0.0000000E+00  0.1515152E-01  0.4711433E-04  0.0000000E+00  0.3273597E-03
  0.5505050E+00  0.0000000E+00  0.1515152E-01  0.7665705E-04  0.0000000E+00  0.3467977E-03
  0.5606061E+00  0.0000000E+00  0.1515152E-01 -0.8868947E-04  0.0000000E+00  0.3426535E-03
  0.5707071E+00  0.0000000E+00  0.1515152E-01 -0.5926391E-04  0.0000000E+00  0.3149058E-03
  0.5808081E+00  0.0000000E+00  0.1515152E-01 -0.4405837E-04  0.0000000E+00  0.2871124E-03
  0.5909091E+00  0.0000000E+00  0.1515152E-01 -0.3531798E-04  0.0000000E+00  0.2628215E-03
  0.6010101E+00  0.0000000E+00  0.1515152E-01 -0.2977375E-04  0.0000000E+00  0.2417937E-03
  0.6111111E+00  0.0000000E+00  0.1515152E-01 -0.2593858E-04  0.0000000E+00  0.2233412E-03
  0.6212121E+00  0.0000000E+00  0.1515152E-01 -0.2308543E-04  0.0000000E+00  0.2069035E-03
  0.6313131E+00  0.0000000E+00  0.1515152E-01 -0.2083528E-04  0.0000000E+00  0.1920845E-03
  0.6414142E+00  0.0000000E+00  0.1515152E-01 -0.1897905E-04  0.0000000E+00  0.1786082E-03
  0.6515151E+00  0.0000000E+00  0.1515152E-01 -0.1739557E-04  0.0000000E+00  0.1662773E-03
  0.6616161E+00  0.0000000E+00  0.1515152E-01 -0.1601137E-04  0.0000000E+00  0.1549457E-03
  0.6717172E+00  0.0000000E+00  0.1515152E-01 -0.1477991E-04  0.0000000E+00  0.1445008E-03
  0.6818182E+00  0.0000000E+00  0.1515152E-01 -0.1367050E-04  0.0000000E+00  0.1348524E-03
  0.6919192E+00  0.0000000E+00  0.1515152E-01 -0.1266201E-04  0.0000000E+00  0.1259260E-03
  0.7020202E+00  0.0000000E+00  0.1515152E-01 -0.1173927E-04  0.0000000E+00  0.1176586E-03
  0.7121212E+00  0.0000000E+00  0.1515152E-01 -0.1089093E-04  0.0000000E+00  0.1099958E-03
  0.7222222E+00  0.0000000E+00  0.1515152E-01 -0.1010816E-04  0.0000000E+00  0.1028894E-03
  0.7323232E+00  0.0000000E+00  0.1515152E-01 -0.9383830E-05  0.0000000E+00  0.9629695E-04
  0.7424242E+00  0.0000000E+00  0.1515152E-01 -0.8712006E-05  0.0000000E+00  0.9018019E-04
  0.7525253E+00  0.0000000E+00  0.1515152E-01 -0.8087614E-05  0.0000000E+00  0.8450472E-04
  0.7626263E+00  0.0000000E+00  0.1515152E-01 -0.7506222E-05  0.0000000E+00  0.7923936E-04
  0.7727273E+00  0.0000000E+00  0.1515152E-01 -0.6963903E-05  0.0000000E+00  0.7435584E-04
  0.7828283E+00  0.0000000E+00  0.1515152E-01 -0.6457133E-05  0.0000000E+00  0.6982849E-04
  0.7929293E+00  0.0000000E+00  0.1515152E-01 -0.5982724E-05  0.0000000E+00  0.6563395E-04
  0.8030303E+00  0.0000000E+00  0.1515152E-01 -0.5537773E-05  0.0000000E+00  0.6175098E-04
  0.8131313E+00  0.0000000E+00  0.1515152E-01 -0.5119627E-05  0.0000000E+00  0.5816027E-04
  0.8232324E+00  0.0000000E+00  0.1515152E-01 -0.4725852E-05  0.0000000E+00  0.5484427E-04
  0.8333333E+00  0.0000000E+00  0.1515152E-01 -0.4354213E-05  0.0000000E+00  0.5178705E-04
  0.8434343E+00  0.0000000E+00  0.1515152E-01 -0.4002650E-05  0.0000000E+00  0.4897417E-04
  0.8535354E+00  0.0000000E+00  0.1515152E-01 -0.3669261E-05  0.0000000E+00  0.4639254E-04
  0.8636364E+00  0.0000000E+00  0.1515152E-01 -0.3352289E-05  0.0000000E+00  0.4403035E-04
  0.8737374E+00  0.0000000E+00  0.1515152E-01 -0.3050106E-05  0.0000000E+00  0.4187695E-04
  0.8838384E+00  0.0000000E+00  0.1515152E-01 -0.2761198E-05  0.0000000E+00  0.3992276E-04
  0.8939394E+00  0.0000000E+00  0.1515152E-01 -0.2484156E-05  0.0000000E+00  0.3815921E-04
  0.9040404E+00  0.0000000E+00  0.1515152E-01 -0.2217665E-05  0.0000000E+00  0.3657866E-04
  0.9141414E+00  0.0000000E+00  0.1515152E-01 -0.1960489E-05  0.0000000E+00  0.3517435E-04
  0.9242424E+00  0.0000000E+00  0.1515152E-01 -0.1711465E-05  0.0000000E+00  0.3394034E-04
  0.9343435E+00  0.0000000E+00  0.1515152E-01 -0.1469493E-05  0.0000000E+00  0.3287145E-04
  0.9444444E+00  0.0000000E+00  0.1515152E-01 -0.1233526E-05  0.0000000E+00  0.3196325E-04
  0.9545454E+00  0.0000000E+00  0.1515152E-01 -0.1002563E-05  0.0000000E+00  0.3121199E-04
  0.9646465E+00  0.0000000E+00  0.1515152E-01 -0.7756423E-06  0.0000000E+00  0.3061460E-04
  0.9747475E+00  0.0000000E+00  0.1515152E-01 -0.5518317E-06  0.0000000E+00  0.3016865E-04
  0.9848485E+00  0.0000000E+00  0.1515152E-01 -0.3302239E-06  0.0000000E+00  0.2987234E-04
  0.9974747E+00  0.0000000E+00  0.1515152E-01 -0.1099294E-06  0.0000000E+00  0.2972448E-04
  0.5050505E-02  0.0000000E+00  0.2525252E-01  0.2542771E-06  0.0000000E+00  0.3913352E-04
  0.1515152E-01  0.0000000E+00  0.2525252E-01  0.7638393E-06  0.0000000E+00  0.3933949E-04
  0.2525252E-01  0.0000000E+00  0.2525252E-01  0.1276432E-05  0.0000000E+00  0.3975227E-04
  0.3535353E-01  0.0000000E+00  0.2525252E-01  0.1794083E-05  0.0000000E+00  0.4037349E-04
  0.4545455E-01  0.0000000E+00  0.2525252E-01  0.2318829E-05  0.0000000E+00  0.4120568E-04
  0.5555556E-01  0.0000000E+00  0.2525252E-01  0.2852711E-05  0.0000000E+00  0.4225217E-04
  0.6565657E-01  0.0000000E+00  0.2525252E-01  0.3397772E-05  0.0000000E+00  0.4351718E-04
  0.7575758E-01  0.0000000E+00  0.2525252E-01  0.3956065E-05  0.0000000E+00  0.4500575E-04
  0.8585858E-01  0.0000000E+00  0.2525252E-01  0.4529644E-05  0.0000000E+00  0.4672380E-04
  0.9595960E-01  0.0000000E+00  0.2525252E-01  0.5120573E-05  0.0000000E+00  0.4867809E-04
  0.1060606E+00  0.0000000E+00  0.2525252E-01  0.5730918E-05  0.0000000E+00  0.5087627E-04
  0.1161616E+00  0.0000000E+00  0.2525252E-01  0.6362758E-05  0.0000000E+00  0.5332685E-04
  0.1262626E+00  0.0000000E+00  0.2525252E-01  0.7018184E-05  0.0000000E+00  0.5603920E-04
  0.1363636E+00  0.0000000E+00  0.2525252E-01  0.7699304E-05  0.0000000E+00  0.5902360E-04
  0.1464646E+00  0.0000000E+00  0.2525252E-01  0.8408257E-05  0.0000000E+00  0.6229121E-04
  0.1565657E+00  0.0000000E+00  0.2525252E-01  0.9147226E-05  0.0000000E+00  0.6585410E-04
  0.1666667E+00  0.0000000E+00  0.2525252E-01  0.9918465E-05  0.0000000E+00  0.6972527E-04
  0.1767677E+00  0.0000000E+00  0.2525252E-01  0.1072433E-04  0.0000000E+00  0.7391867E-04
  0.1868687E+00  0.0000000E+00  0.2525252E-01  0.1156736E-04  0.0000000E+00  0.7844925E-04
  0.1969697E+00  0.0000000E+00  0.2525252E-01  0.1245031E-04  0.0000000E+00  0.8333302E-04
  0.2070707E+00  0.0000000E+00  0.2525252E-01  0.1337634E-04  0.0000000E+00  0.8858713E-04
  0.2171717E+00  0.0000000E+00  0.2525252E-01  0.1434917E-04  0.0000000E+00  0.9423001E-04
  0.2272727E+00  0.0000000E+00  0.2525252E-01  0.1537336E-04  0.0000000E+00  0.1002816E-03
  0.2373737E+00  0.0000000E+00  0.2525252E-01  0.1645471E-04  0.0000000E+00  0.1067636E-03
  0.2474747E+00  0.0000000E+00  0.2525252E-01  0.1760089E-04  0.0000000E+00  0.1136998E-03
  0.2575758E+00  0.0000000E+00  0.2525252E-01  0.1882232E-04  0.0000000E+00  0.1211170E-03
  0.2676768E+00  0.0000000E+00  0.2525252E-01  0.2013353E-04  0.0000000E+00  0.1290456E-03
  0.2777778E+00  0.0000000E+00  0.2525252E-01  0.2155522E-04  0.0000000E+00  0.1375210E-03
  0.2878788E+00  0.0000000E+00  0.2525252E-01  0.2311738E-04  0.0000000E+00  0.1465853E-03
  0.2979798E+00  0.0000000E+00  0.2525252E-01  0.2486423E-04  0.0000000E+00  0.1562901E-03
  0.3080808E+00  0.0000000E+00  0.2525252E-01  0.2686197E-04  0.0000000E+00  0.1666995E-03
  0.3181818E+00  0.0000000E+00  0.2525252E-01  0.2921150E-04  0.0000000E+00  0.1778947E-03
  0.3282828E+00  0.0000000E+00  0.2525252E-01  0.3206937E-04  0.0000000E+00  0.1899775E-03
  0.3383838E+00  0.0000000E+00  0.2525252E-01  0.3568341E-04  0.0000000E+00  0.2030715E-03
  0.3484848E+00  0.0000000E+00  0.2525252E-01  0.4045422E-04  0.0000000E+00  0.2173068E-03
  0.3585859E+00  0.0000000E+00  0.2525252E-01  0.4704125E-04  0.0000000E+00  0.2327570E-03
  0.3686869E+00  0.0000000E+00  0.2525252E-01  0.5653799E-04  0.0000000E+00  0.2492356E-03
  0.3787879E+00  0.0000000E+00  0.2525252E-01  0.7070391E-04  0.0000000E+00  0.2657346E-03
  0.3888889E+00  0.0000000E+00  0.2525252E-01  0.9194317E-04  0.0000000E+00  0.2791668E-03
  0.3989899E+00  0.0000000E+00  0.2525252E-01 -0.7075760E-04  0.0000000E+00  0.2833543E-03
  0.4090909E+00  0.0000000E+00  0.2525252E-01 -0.4891342E-04  0.0000000E+00  0.2784409E-03
  0.4191919E+00  0.0000000E+00  0.2525252E-01 -0.3364004E-04  0.0000000E+00  0.2708660E-03
  0.4292929E+00  0.0000000E+00  0.2525252E-01 -0.2266284E-04  0.0000000E+00  0.2639093E-03
  0.4393939E+00  0.0000000E+00  0.2525252E-01 -0.1432705E-04  0.0000000E+00  0.2586962E-03
  0.4494950E+00  0.0000000E+00  0.2525252E-01 -0.7598257E-05  0.0000000E+00  0.2554822E-03
  0.4595959E+00  0.0000000E+00  0.2525252E-01 -0.1828639E-05  0.0000000E+00  0.2542427E-03
  0.4696970E+00  0.0000000E+00  0.2525252E-01  0.3416053E-05  0.0000000E+00  0.2548950E-03
  0.4797980E+00  0.0000000E+00  0.2525252E-01  0.8467331E-05  0.0000000E+00  0.2573713E-03
  0.4898990E+00  0.0000000E+00  0.2525252E-01  0.1363210E-04  0.0000000E+00  0.2616398E-03
  0.5000000E+00  0.0000000E+00  0.2525252E-01  0.1926547E-04  0.0000000E+00  0.2677019E-03
  0.5101010E+00  0.0000000E+00  0.2525252E-01  0.2586423E-04  0.0000000E+00  0.2755658E-03
  0.5202020E+00  0.0000000E+00  0.2525252E-01  0.3421146E-04  0.0000000E+00  0.2851624E-03
  0.5303030E+00  0.0000000E+00  0.2525252E-01  0.4560680E-04  0.0000000E+00  0.2961024E-03
  0.5404040E+00  0.0000000E+00  0.2525252E-01  0.6216606E-04  0.0000000E+00  0.3070239E-03
  0.5505050E+00  0.0000000E+00  0.2525252E-01  0.8679683E-04  0.0000000E+00  0.3141241E-03
  0.5606061E+00  0.0000000E+00  0.2525252E-01 -0.1068104E-03  0.0000000E+00  0.3100176E-03
  0.5707071E+00  0.0000000E+00  0.2525252E-01 -0.8236397E-04  0.0000000E+00  0.2946819E-03
  0.5808081E+00  0.0000000E+00  0.2525252E-01 -0.6617300E-04  0.0000000E+00  0.2754424E-03
  0.5909091E+00  0.0000000E+00  0.2525252E-01 -0.5533973E-04  0.0000000E+00  0.2560251E-03
  0.6010101E+00  0.0000000E+00  0.2525252E-01 -0.4776671E-04  0.0000000E+00  0.2377107E-03
  0.6111111E+00  0.0000000E+00  0.2525252E-01 -0.4218269E-04  0.0000000E+00  0.2208022E-03
  0.6212121E+00  0.0000000E+00  0.2525252E-01 -0.3784752E-04  0.0000000E+00  0.2052742E-03
  0.6313131E+00  0.0000000E+00  0.2525252E-01 -0.3432901E-04  0.0000000E+00  0.1910113E-03
  0.6414142E+00  0.0000000E+00  0.2525252E-01 -0.3136973E-04  0.0000000E+00  0.1778868E-03
  0.6515151E+00  0.0000000E+00  0.2525252E-01 -0.2881202E-04  0.0000000E+00  0.1657856E-03
  0.6616161E+00  0.0000000E+00  0.2525252E-01 -0.2655621E-04  0.0000000E+00  0.1546082E-03
  0.6717172E+00  0.0000000E+00  0.2525252E-01 -0.2453710E-04  0.0000000E+00  0.1442694E-03
  0.6818182E+00  0.0000000E+00  0.2525252E-01 -0.2271045E-04  0.0000000E+00  0.1346957E-03
  0.6919192E+00  0.0000000E+00  0.2525252E-01 -0.2104510E-04  0.0000000E+00  0.1258229E-03
  0.7020202E+00  0.0000000E+00  0.2525252E-01 -0.1951821E-04  0.0000000E+00  0.1175948E-03
  0.7121212E+00  0.0000000E+00  0.2525252E-01 -0.1811237E-04  0.0000000E+00  0.1099609E-03
  0.7222222E+00  0.0000000E+00  0.2525252E-01 -0.1681382E-04  0.0000000E+00  0.1028764E-03
  0.7323232E+00  0.0000000E+00  0.2525252E-01 -0.1561130E-04  0.0000000E+00  0.9630041E-04
  0.7424242E+00  0.0000000E+00  0.2525252E-01 -0.1449532E-04  0.0000000E+00  0.9019624E-04
  0.7525253E+00  0.0000000E+00  0.2525252E-01 -0.1345768E-04  0.0000000E+00  0.8453037E-04
  0.7626263E+00  0.0000000E+00  0.2525252E-01 -0.1249120E-04  0.0000000E+00  0.7927233E-04
  0.7727273E+00  0.0000000E+00  0.2525252E-01 -0.1158945E-04  0.0000000E+00  0.7439437E-04
  0.7828283E+00  0.0000000E+00  0.2525252E-01 -0.1074664E-04  0.0000000E+00  0.6987117E-04
  0.7929293E+00  0.0000000E+00  0.2525252E-01 -0.9957531E-05  0.0000000E+00  0.6567968E-04
  0.8030303E+00  0.0000000E+00  0.2525252E-01 -0.9217325E-05  0.0000000E+00  0.6179888E-04
  0.8131313E+00  0.0000000E+00  0.2525252E-01 -0.8521635E-05  0.0000000E+00  0.5820963E-04
  0.8232324E+00  0.0000000E+00  0.2525252E-01 -0.7866434E-05  0.0000000E+00  0.5489454E-04
  0.8333333E+00  0.0000000E+00  0.2525252E-01 -0.7248014E-05  0.0000000E+00  0.5183779E-04
  0.8434343E+00  0.0000000E+00  0.2525252E-01 -0.6662959E-05  0.0000000E+00  0.4902502E-04
  0.8535354E+00  0.0000000E+00  0.2525252E-01 -0.6108114E-05  0.0000000E+00  0.4644324E-04
  0.8636364E+00  0.0000000E+00  0.2525252E-01 -0.5580561E-05  0.0000000E+00  0.4408069E-04
  0.8737374E+00  0.0000000E+00  0.2525252E-01 -0.5077596E-05  0.0000000E+00  0.4192679E-04
  0.8838384E+00  0.0000000E+00  0.2525252E-01 -0.4596705E-05  0.0000000E+00  0.3997200E-04
  0.8939394E+00  0.0000000E+00  0.2525252E-01 -0.4135548E-05  0.0000000E+00  0.3820779E-04
  0.9040404E+00  0.0000000E+00  0.2525252E-01 -0.3691937E-05  0.0000000E+00  0.3662656E-04
  0.9141414E+00  0.0000000E+00  0.2525252E-01 -0.3263820E-05  0.0000000E+00  0.3522157E-04
  0.9242424E+00  0.0000000E+00  0.2525252E-01 -0.2849263E-05  0.0000000E+00  0.3398690E-04
  0.9343435E+00  0.0000000E+00  0.2525252E-01 -0.2446436E-05  0.0000000E+00  0.3291739E-04
  0.9444444E+00  0.0000000E+00  0.2525252E-01 -0.2053601E-05  0.0000000E+00  0.3200863E-04
  0.9545454E+00  0.0000000E+00  0.2525252E-01 -0.1669092E-05  0.0000000E+00  0.3125688E-04
  0.9646465E+00  0.0000000E+00  0.2525252E-01 -0.1291309E-05  0.0000000E+00  0.3065908E-04
  0.9747475E+00  0.0000000E+00  0.2525252E-01 -0.9187033E-06  0.0000000E+00  0.3021282E-04
  0.9848485E+00  0.0000000E+00  0.2525252E-01 -0.5497645E-06  0.0000000E+00  0.2991630E-04
  0.9974747E+00  0.0000000E+00  0.2525252E-01 -0.1830128E-06  0.0000000E+00  0.2976833E-04
  0.5050505E-02  0.0000000E+00  0.3535353E-01  0.3557527E-06  0.0000000E+00  0.3918023E-04
  0.1515152E-01  0.0000000E+00  0.3535353E-01  0.1068676E-05  0.0000000E+00  0.3938667E-04
  0.2525252E-01  0.0000000E+00  0.3535353E-01  0.1785860E-05  0.0000000E+00  0.3980037E-04
  0.3535353E-01  0.0000000E+00  0.3535353E-01  0.2510154E-05  0.0000000E+00  0.4042299E-04
  0.4545455E-01  0.0000000E+00  0.3535353E-01  0.3244418E-05  0.0000000E+00  0.4125708E-04
  0.5555556E-01  0.0000000E+00  0.3535353E-01  0.3991517E-05  0.0000000E+00  0.4230600E-04
  0.6565657E-01  0.0000000E+00  0.3535353E-01  0.4754323E-05  0.0000000E+00  0.4357402E-04
  0.7575758E-01  0.0000000E+00  0.3535353E-01  0.5535716E-05  0.0000000E+00  0.4506623E-04
  0.8585858E-01  0.0000000E+00  0.3535353E-01  0.6338583E-05  0.0000000E+00  0.4678862E-04
  0.9595960E-01  0.0000000E+00  0.3535353E-01  0.7165817E-05  0.0000000E+00  0.4874802E-04
  0.1060606E+00  0.0000000E+00  0.3535353E-01  0.8020323E-05  0.0000000E+00  0.5095217E-04
  0.1161616E+00  0.0000000E+00  0.3535353E-01  0.8905013E-05  0.0000000E+00  0.5340966E-04
  0.1262626E+00  0.0000000E+00  0.3535353E-01  0.9822817E-05  0.0000000E+00  0.5612997E-04
  0.1363636E+00  0.0000000E+00  0.3535353E-01  0.1077668E-04  0.0000000E+00  0.5912348E-04
  0.1464646E+00  0.0000000E+00  0.3535353E-01  0.1176960E-04  0.0000000E+00  0.6240143E-04
  0.1565657E+00  0.0000000E+00  0.3535353E-01  0.1280459E-04  0.0000000E+00  0.6597599E-04
  0.1666667E+00  0.0000000E+00  0.3535353E-01  0.1388477E-04  0.0000000E+00  0.6986022E-04
  0.1767677E+00  0.0000000E+00  0.3535353E-01  0.1501338E-04  0.0000000E+00  0.7406809E-04
  0.1868687E+00  0.0000000E+00  0.3535353E-01  0.1619384E-04  0.0000000E+00  0.7861449E-04
  0.1969697E+00  0.0000000E+00  0.3535353E-01  0.1742986E-04  0.0000000E+00  0.8351529E-04
  0.2070707E+00  0.0000000E+00  0.3535353E-01  0.1872561E-04  0.0000000E+00  0.8878730E-04
  0.2171717E+00  0.0000000E+00  0.3535353E-01  0.2008588E-04  0.0000000E+00  0.9444839E-04
  0.2272727E+00  0.0000000E+00  0.3535353E-01  0.2151650E-04  0.0000000E+00  0.1005175E-03
  0.2373737E+00  0.0000000E+00  0.3535353E-01  0.2302471E-04  0.0000000E+00  0.1070149E-03
  0.2474747E+00  0.0000000E+00  0.3535353E-01  0.2461995E-04  0.0000000E+00  0.1139619E-03
  0.2575758E+00  0.0000000E+00  0.3535353E-01  0.2631486E-04  0.0000000E+00  0.1213817E-03
  0.2676768E+00  0.0000000E+00  0.3535353E-01  0.2812682E-04  0.0000000E+00  0.1292991E-03
  0.2777778E+00  0.0000000E+00  0.3535353E-01  0.3008022E-04  0.0000000E+00  0.1377411E-03
  0.2878788E+00  0.0000000E+00  0.3535353E-01  0.3220987E-04  0.0000000E+00  0.1467370E-03
  0.2979798E+00  0.0000000E+00  0.3535353E-01  0.3456613E-04  0.0000000E+00  0.1563187E-03