title = "dataset water"
variables = "x", "y", "z", "vx", "vy", "vz"
zone t = "velocities, solution time =  8.000E+00 days        " i =   99, j =   99, k =    1,  f=point
  0.5050505E-02  0.0000000E+00  0.5050505E-02 -0.7051056E-13  0.0000000E+00 -0.8108548E-04
  0.1515152E-01  0.0000000E+00  0.5050505E-02 -0.2181463E-12  0.0000000E+00 -0.8108548E-04
  0.2525252E-01  0.0000000E+00  0.5050505E-02 -0.3558928E-12  0.0000000E+00 -0.8108548E-04
  0.3535353E-01  0.0000000E+00  0.5050505E-02 -0.4755464E-12  0.0000000E+00 -0.8108548E-04
  0.4545455E-01  0.0000000E+00  0.5050505E-02 -0.5598657E-12  0.0000000E+00 -0.8108548E-04
  0.5555556E-01  0.0000000E+00  0.5050505E-02 -0.5919169E-12  0.0000000E+00 -0.8108548E-04
  0.6565657E-01  0.0000000E+00  0.5050505E-02 -0.6102942E-12  0.0000000E+00 -0.8108548E-04
  0.7575758E-01  0.0000000E+00  0.5050505E-02 -0.6122751E-12  0.0000000E+00 -0.8108548E-04
  0.8585858E-01  0.0000000E+00  0.5050505E-02 -0.5957226E-12  0.0000000E+00 -0.8108548E-04
  0.9595960E-01  0.0000000E+00  0.5050505E-02 -0.5730318E-12  0.0000000E+00 -0.8108548E-04
  0.1060606E+00  0.0000000E+00  0.5050505E-02 -0.5560306E-12  0.0000000E+00 -0.8108549E-04
  0.1161616E+00  0.0000000E+00  0.5050505E-02 -0.5467439E-12  0.0000000E+00 -0.8108549E-04
  0.1262626E+00  0.0000000E+00  0.5050505E-02 -0.5390335E-12  0.0000000E+00 -0.8108549E-04
  0.1363636E+00  0.0000000E+00  0.5050505E-02 -0.5239035E-12  0.0000000E+00 -0.8108549E-04
  0.1464646E+00  0.0000000E+00  0.5050505E-02 -0.4932662E-12  0.0000000E+00 -0.8108549E-04
  0.1565657E+00  0.0000000E+00  0.5050505E-02 -0.4414512E-12  0.0000000E+00 -0.8108549E-04
  0.1666667E+00  0.0000000E+00  0.5050505E-02 -0.3657505E-12  0.0000000E+00 -0.8108549E-04
  0.1767677E+00  0.0000000E+00  0.5050505E-02 -0.2669628E-12  0.0000000E+00 -0.8108549E-04
  0.1868687E+00  0.0000000E+00  0.5050505E-02 -0.1498989E-12  0.0000000E+00 -0.8108549E-04
  0.1969697E+00  0.0000000E+00  0.5050505E-02 -0.2230941E-13  0.0000000E+00 -0.8108549E-04
  0.2070707E+00  0.0000000E+00  0.5050505E-02  0.1044583E-12  0.0000000E+00 -0.8108549E-04
  0.2171717E+00  0.0000000E+00  0.5050505E-02  0.2201082E-12  0.0000000E+00 -0.8108549E-04
  0.2272727E+00  0.0000000E+00  0.5050505E-02  0.3189253E-12  0.0000000E+00 -0.8108549E-04
  0.2373737E+00  0.0000000E+00  0.5050505E-02  0.3894549E-12  0.0000000E+00 -0.8108549E-04
  0.2474747E+00  0.0000000E+00  0.5050505E-02  0.4260324E-12  0.0000000E+00 -0.8108549E-04
  0.2575758E+00  0.0000000E+00  0.5050505E-02  0.4393587E-12  0.0000000E+00 -0.8108549E-04
  0.2676768E+00  0.0000000E+00  0.5050505E-02  0.4385094E-12  0.0000000E+00 -0.8108549E-04
  0.2777778E+00  0.0000000E+00  0.5050505E-02  0.4192324E-12  0.0000000E+00 -0.8108549E-04
  0.2878788E+00  0.0000000E+00  0.5050505E-02  0.3879924E-12  0.0000000E+00 -0.8108549E-04
  0.2979798E+00  0.0000000E+00  0.5050505E-02  0.3573109E-12  0.0000000E+00 -0.8108549E-04
  0.3080808E+00  0.0000000E+00  0.5050505E-02  0.3341081E-12  0.0000000E+00 -0.8108549E-04
  0.3181818E+00  0.0000000E+00  0.5050505E-02  0.3162660E-12  0.0000000E+00 -0.8108549E-04
  0.3282828E+00  0.0000000E+00  0.5050505E-02  0.2972102E-12  0.0000000E+00 -0.8108548E-04
  0.3383838E+00  0.0000000E+00  0.5050505E-02  0.2708485E-12  0.0000000E+00 -0.8108548E-04
  0.3484848E+00  0.0000000E+00  0.5050505E-02  0.2340371E-12  0.0000000E+00 -0.8108548E-04
  0.3585859E+00  0.0000000E+00  0.5050505E-02  0.1867188E-12  0.0000000E+00 -0.8108548E-04
  0.3686869E+00  0.0000000E+00  0.5050505E-02  0.1284114E-12  0.0000000E+00 -0.8108548E-04
  0.3787879E+00  0.0000000E+00  0.5050505E-02  0.6307198E-13  0.0000000E+00 -0.8108548E-04
  0.3888889E+00  0.0000000E+00  0.5050505E-02 -0.2762599E-14  0.0000000E+00 -0.8108548E-04
  0.3989899E+00  0.0000000E+00  0.5050505E-02 -0.7603997E-13  0.0000000E+00 -0.8108548E-04
  0.4090909E+00  0.0000000E+00  0.5050505E-02 -0.1465252E-12  0.0000000E+00 -0.8108548E-04
  0.4191919E+00  0.0000000E+00  0.5050505E-02 -0.1834442E-12  0.0000000E+00 -0.8108548E-04
  0.4292929E+00  0.0000000E+00  0.5050505E-02 -0.2256818E-12  0.0000000E+00 -0.8108548E-04
  0.4393939E+00  0.0000000E+00  0.5050505E-02 -0.2444173E-12  0.0000000E+00 -0.8108548E-04
  0.4494950E+00  0.0000000E+00  0.5050505E-02 -0.2196382E-12  0.0000000E+00 -0.8108548E-04
  0.4595959E+00  0.0000000E+00  0.5050505E-02 -0.1659330E-12  0.0000000E+00 -0.8108548E-04
  0.4696970E+00  0.0000000E+00  0.5050505E-02 -0.8427087E-13  0.0000000E+00 -0.8108549E-04
  0.4797980E+00  0.0000000E+00  0.5050505E-02  0.2097342E-13  0.0000000E+00 -0.8108549E-04
  0.4898990E+00  0.0000000E+00  0.5050505E-02  0.1383154E-12  0.0000000E+00 -0.8108549E-04
  0.5000000E+00  0.0000000E+00  0.5050505E-02  0.2551411E-12  0.0000000E+00 -0.8108548E-04
  0.5101010E+00  0.0000000E+00  0.5050505E-02  0.3603327E-12  0.0000000E+00 -0.8108548E-04
  0.5202020E+00  0.0000000E+00  0.5050505E-02  0.4417209E-12  0.0000000E+00 -0.8108548E-04
  0.5303030E+00  0.0000000E+00  0.5050505E-02  0.5022473E-12  0.0000000E+00 -0.8108548E-04
  0.5404040E+00  0.0000000E+00  0.5050505E-02  0.5382580E-12  0.0000000E+00 -0.8108548E-04
  0.5505050E+00  0.0000000E+00  0.5050505E-02  0.5325895E-12  0.0000000E+00 -0.8108548E-04
  0.5606061E+00  0.0000000E+00  0.5050505E-02  0.5242406E-12  0.0000000E+00 -0.8108548E-04
  0.5707071E+00  0.0000000E+00  0.5050505E-02  0.5092328E-12  0.0000000E+00 -0.8108548E-04
  0.5808081E+00  0.0000000E+00  0.5050505E-02  0.4823992E-12  0.0000000E+00 -0.8108548E-04
  0.5909091E+00  0.0000000E+00  0.5050505E-02  0.4516039E-12  0.0000000E+00 -0.8108548E-04
  0.6010101E+00  0.0000000E+00  0.5050505E-02  0.4235438E-12  0.0000000E+00 -0.8108548E-04
  0.6111111E+00  0.0000000E+00  0.5050505E-02  0.3948557E-12  0.0000000E+00 -0.8108547E-04
  0.6212121E+00  0.0000000E+00  0.5050505E-02  0.3547591E-12  0.0000000E+00 -0.8108547E-04
  0.6313131E+00  0.0000000E+00  0.5050505E-02  0.2919863E-12  0.0000000E+00 -0.8108547E-04
  0.6414142E+00  0.0000000E+00  0.5050505E-02  0.2002031E-12  0.0000000E+00 -0.8108547E-04
  0.6515151E+00  0.0000000E+00  0.5050505E-02  0.8040829E-13  0.0000000E+00 -0.8108547E-04
  0.6616161E+00  0.0000000E+00  0.5050505E-02 -0.5982260E-13  0.0000000E+00 -0.8108547E-04
  0.6717172E+00  0.0000000E+00  0.5050505E-02 -0.2057030E-12  0.0000000E+00 -0.8108547E-04
  0.6818182E+00  0.0000000E+00  0.5050505E-02 -0.3459065E-12  0.0000000E+00 -0.8108547E-04
  0.6919192E+00  0.0000000E+00  0.5050505E-02 -0.4638196E-12  0.0000000E+00 -0.8108547E-04
  0.7020202E+00  0.0000000E+00  0.5050505E-02 -0.5576321E-12  0.0000000E+00 -0.8108547E-04
  0.7121212E+00  0.0000000E+00  0.5050505E-02 -0.6046742E-12  0.0000000E+00 -0.8108548E-04
  0.7222222E+00  0.0000000E+00  0.5050505E-02 -0.6315479E-12  0.0000000E+00 -0.8108548E-04
  0.7323232E+00  0.0000000E+00  0.5050505E-02 -0.6419029E-12  0.0000000E+00 -0.8108548E-04
  0.7424242E+00  0.0000000E+00  0.5050505E-02 -0.6316132E-12  0.0000000E+00 -0.8108548E-04
  0.7525253E+00  0.0000000E+00  0.5050505E-02 -0.6103575E-12  0.0000000E+00 -0.8108548E-04
  0.7626263E+00  0.0000000E+00  0.5050505E-02 -0.5921867E-12  0.0000000E+00 -0.8108548E-04
  0.7727273E+00  0.0000000E+00  0.5050505E-02 -0.5831318E-12  0.0000000E+00 -0.8108548E-04
  0.7828283E+00  0.0000000E+00  0.5050505E-02 -0.5797265E-12  0.0000000E+00 -0.8108548E-04
  0.7929293E+00  0.0000000E+00  0.5050505E-02 -0.5739337E-12  0.0000000E+00 -0.8108549E-04
  0.8030303E+00  0.0000000E+00  0.5050505E-02 -0.5575625E-12  0.0000000E+00 -0.8108549E-04
  0.8131313E+00  0.0000000E+00  0.5050505E-02 -0.5239351E-12  0.0000000E+00 -0.8108549E-04
  0.8232324E+00  0.0000000E+00  0.5050505E-02 -0.4685904E-12  0.0000000E+00 -0.8108549E-04
  0.8333333E+00  0.0000000E+00  0.5050505E-02 -0.3901271E-12  0.0000000E+00 -0.8108549E-04
  0.8434343E+00  0.0000000E+00  0.5050505E-02 -0.2909327E-12  0.0000000E+00 -0.8108549E-04
  0.8535354E+00  0.0000000E+00  0.5050505E-02 -0.1767937E-12  0.0000000E+00 -0.8108549E-04
  0.8636364E+00  0.0000000E+00  0.5050505E-02 -0.5608224E-13  0.0000000E+00 -0.8108549E-04
  0.8737374E+00  0.0000000E+00  0.5050505E-02  0.6006494E-13  0.0000000E+00 -0.8108549E-04
  0.8838384E+00  0.0000000E+00  0.5050505E-02  0.1570320E-12  0.0000000E+00 -0.8108549E-04
  0.8939394E+00  0.0000000E+00  0.5050505E-02  0.2422342E-12  0.0000000E+00 -0.8108549E-04
  0.9040404E+00  0.0000000E+00  0.5050505E-02  0.3007904E-12  0.0000000E+00 -0.8108549E-04
  0.9141414E+00  0.0000000E+00  0.5050505E-02  0.3144559E-12  0.0000000E+00 -0.8108549E-04
  0.9242424E+00  0.0000000E+00  0.5050505E-02  0.3174018E-12  0.0000000E+00 -0.8108549E-04
  0.9343435E+00  0.0000000E+00  0.5050505E-02  0.3076453E-12  0.0000000E+00 -0.8108549E-04
  0.9444444E+00  0.0000000E+00  0.5050505E-02  0.2808074E-12  0.0000000E+00 -0.8108549E-04
  0.9545454E+00  0.0000000E+00  0.5050505E-02  0.2431930E-12  0.0000000E+00 -0.8108549E-04
  0.9646465E+00  0.0000000E+00  0.5050505E-02  0.2011598E-12  0.0000000E+00 -0.8108549E-04
  0.9747475E+00  0.0000000E+00  0.5050505E-02  0.1549121E-12  0.0000000E+00 -0.8108549E-04
  0.9848485E+00  0.0000000E+00  0.5050505E-02  0.9767506E-13  0.0000000E+00 -0.8108549E-04
  0.9974747E+00  0.0000000E+00  0.5050505E-02  0.2052668E-13  0.0000000E+00 -0.8108549E-04
  0.5050505E-02  0.0000000E+00  0.1515152E-01 -0.2133051E-12  0.0000000E+00 -0.8057931E-04
  0.1515152E-01  0.0000000E+00  0.1515152E-01 -0.6631005E-12  0.0000000E+00 -0.8057931E-04
  0.2525252E-01  0.0000000E+00  0.1515152E-01 -0.1075607E-11  0.0000000E+00 -0.8057931E-04
  0.3535353E-01  0.0000000E+00  0.1515152E-01 -0.1424212E-11  0.0000000E+00 -0.8057931E-04
  0.4545455E-01  0.0000000E+00  0.1515152E-01 -0.1675255E-11  0.0000000E+00 -0.8057931E-04
  0.5555556E-01  0.0000000E+00  0.1515152E-01 -0.1777951E-11  0.0000000E+00 -0.8057931E-04
  0.6565657E-01  0.0000000E+00  0.1515152E-01 -0.1827174E-11  0.0000000E+00 -0.8057931E-04
  0.7575758E-01  0.0000000E+00  0.1515152E-01 -0.1825919E-11  0.0000000E+00 -0.8057931E-04
  0.8585858E-01  0.0000000E+00  0.1515152E-01 -0.1776304E-11  0.0000000E+00 -0.8057931E-04
  0.9595960E-01  0.0000000E+00  0.1515152E-01 -0.1712751E-11  0.0000000E+00 -0.8057931E-04
  0.1060606E+00  0.0000000E+00  0.1515152E-01 -0.1665960E-11  0.0000000E+00 -0.8057932E-04
  0.1161616E+00  0.0000000E+00  0.1515152E-01 -0.1640304E-11  0.0000000E+00 -0.8057932E-04
  0.1262626E+00  0.0000000E+00  0.1515152E-01 -0.1618009E-11  0.0000000E+00 -0.8057932E-04
  0.1363636E+00  0.0000000E+00  0.1515152E-01 -0.1573010E-11  0.0000000E+00 -0.8057932E-04
  0.1464646E+00  0.0000000E+00  0.1515152E-01 -0.1481305E-11  0.0000000E+00 -0.8057932E-04
  0.1565657E+00  0.0000000E+00  0.1515152E-01 -0.1325671E-11  0.0000000E+00 -0.8057932E-04
  0.1666667E+00  0.0000000E+00  0.1515152E-01 -0.1097592E-11  0.0000000E+00 -0.8057932E-04
  0.1767677E+00  0.0000000E+00  0.1515152E-01 -0.7989907E-12  0.0000000E+00 -0.8057932E-04
  0.1868687E+00  0.0000000E+00  0.1515152E-01 -0.4442571E-12  0.0000000E+00 -0.8057932E-04
  0.1969697E+00  0.0000000E+00  0.1515152E-01 -0.5885620E-13  0.0000000E+00 -0.8057932E-04
  0.2070707E+00  0.0000000E+00  0.1515152E-01  0.3209829E-12  0.0000000E+00 -0.8057932E-04
  0.2171717E+00  0.0000000E+00  0.1515152E-01  0.6678567E-12  0.0000000E+00 -0.8057932E-04
  0.2272727E+00  0.0000000E+00  0.1515152E-01  0.9620788E-12  0.0000000E+00 -0.8057932E-04
  0.2373737E+00  0.0000000E+00  0.1515152E-01  0.1177344E-11  0.0000000E+00 -0.8057932E-04
  0.2474747E+00  0.0000000E+00  0.1515152E-01  0.1281741E-11  0.0000000E+00 -0.8057932E-04
  0.2575758E+00  0.0000000E+00  0.1515152E-01  0.1317455E-11  0.0000000E+00 -0.8057932E-04
  0.2676768E+00  0.0000000E+00  0.1515152E-01  0.1312624E-11  0.0000000E+00 -0.8057932E-04
  0.2777778E+00  0.0000000E+00  0.1515152E-01  0.1256999E-11  0.0000000E+00 -0.8057932E-04
  0.2878788E+00  0.0000000E+00  0.1515152E-01  0.1168432E-11  0.0000000E+00 -0.8057932E-04
  0.2979798E+00  0.0000000E+00  0.1515152E-01  0.1080218E-11  0.0000000E+00 -0.8057932E-04
  0.3080808E+00  0.0000000E+00  0.1515152E-01  0.1011090E-11  0.0000000E+00 -0.8057931E-04
  0.3181818E+00  0.0000000E+00  0.1515152E-01  0.9556258E-12  0.0000000E+00 -0.8057931E-04
  0.3282828E+00  0.0000000E+00  0.1515152E-01  0.8959792E-12  0.0000000E+00 -0.8057931E-04
  0.3383838E+00  0.0000000E+00  0.1515152E-01  0.8150764E-12  0.0000000E+00 -0.8057931E-04
  0.3484848E+00  0.0000000E+00  0.1515152E-01  0.7032427E-12  0.0000000E+00 -0.8057931E-04
  0.3585859E+00  0.0000000E+00  0.1515152E-01  0.5617685E-12  0.0000000E+00 -0.8057931E-04
  0.3686869E+00  0.0000000E+00  0.1515152E-01  0.3862885E-12  0.0000000E+00 -0.8057931E-04
  0.3787879E+00  0.0000000E+00  0.1515152E-01  0.1906325E-12  0.0000000E+00 -0.8057931E-04
  0.3888889E+00  0.0000000E+00  0.1515152E-01 -0.3437309E-14  0.0000000E+00 -0.8057931E-04
  0.3989899E+00  0.0000000E+00  0.1515152E-01 -0.2131886E-12  0.0000000E+00 -0.8057931E-04
  0.4090909E+00  0.0000000E+00  0.1515152E-01 -0.4428651E-12  0.0000000E+00 -0.8057931E-04
  0.4191919E+00  0.0000000E+00  0.1515152E-01 -0.5630895E-12  0.0000000E+00 -0.8057931E-04
  0.4292929E+00  0.0000000E+00  0.1515152E-01 -0.6689281E-12  0.0000000E+00 -0.8057931E-04
  0.4393939E+00  0.0000000E+00  0.1515152E-01 -0.7300027E-12  0.0000000E+00 -0.8057931E-04
  0.4494950E+00  0.0000000E+00  0.1515152E-01 -0.6715008E-12  0.0000000E+00 -0.8057931E-04
  0.4595959E+00  0.0000000E+00  0.1515152E-01 -0.5148450E-12  0.0000000E+00 -0.8057931E-04
  0.4696970E+00  0.0000000E+00  0.1515152E-01 -0.2665953E-12  0.0000000E+00 -0.8057931E-04
  0.4797980E+00  0.0000000E+00  0.1515152E-01  0.5421455E-13  0.0000000E+00 -0.8057931E-04
  0.4898990E+00  0.0000000E+00  0.1515152E-01  0.4090226E-12  0.0000000E+00 -0.8057931E-04
  0.5000000E+00  0.0000000E+00  0.1515152E-01  0.7608723E-12  0.0000000E+00 -0.8057931E-04
  0.5101010E+00  0.0000000E+00  0.1515152E-01  0.1080136E-11  0.0000000E+00 -0.8057931E-04
  0.5202020E+00  0.0000000E+00  0.1515152E-01  0.1326026E-11  0.0000000E+00 -0.8057931E-04
  0.5303030E+00  0.0000000E+00  0.1515152E-01  0.1500769E-11  0.0000000E+00 -0.8057931E-04
  0.5404040E+00  0.0000000E+00  0.1515152E-01  0.1608844E-11  0.0000000E+00 -0.8057931E-04
  0.5505050E+00  0.0000000E+00  0.1515152E-01  0.1599242E-11  0.0000000E+00 -0.8057931E-04
  0.5606061E+00  0.0000000E+00  0.1515152E-01  0.1568660E-11  0.0000000E+00 -0.8057931E-04
  0.5707071E+00  0.0000000E+00  0.1515152E-01  0.1518274E-11  0.0000000E+00 -0.8057931E-04
  0.5808081E+00  0.0000000E+00  0.1515152E-01  0.1441045E-11  0.0000000E+00 -0.8057931E-04
  0.5909091E+00  0.0000000E+00  0.1515152E-01  0.1356530E-11  0.0000000E+00 -0.8057931E-04
  0.6010101E+00  0.0000000E+00  0.1515152E-01  0.1278637E-11  0.0000000E+00 -0.8057930E-04
  0.6111111E+00  0.0000000E+00  0.1515152E-01  0.1194635E-11  0.0000000E+00 -0.8057930E-04
  0.6212121E+00  0.0000000E+00  0.1515152E-01  0.1072653E-11  0.0000000E+00 -0.8057930E-04
  0.6313131E+00  0.0000000E+00  0.1515152E-01  0.8805816E-12  0.0000000E+00 -0.8057930E-04
  0.6414142E+00  0.0000000E+00  0.1515152E-01  0.6009214E-12  0.0000000E+00 -0.8057930E-04
  0.6515151E+00  0.0000000E+00  0.1515152E-01  0.2370810E-12  0.0000000E+00 -0.8057930E-04
  0.6616161E+00  0.0000000E+00  0.1515152E-01 -0.1875847E-12  0.0000000E+00 -0.8057930E-04
  0.6717172E+00  0.0000000E+00  0.1515152E-01 -0.6263316E-12  0.0000000E+00 -0.8057930E-04
  0.6818182E+00  0.0000000E+00  0.1515152E-01 -0.1043733E-11  0.0000000E+00 -0.8057930E-04
  0.6919192E+00  0.0000000E+00  0.1515152E-01 -0.1394658E-11  0.0000000E+00 -0.8057930E-04
  0.7020202E+00  0.0000000E+00  0.1515152E-01 -0.1678803E-11  0.0000000E+00 -0.8057930E-04
  0.7121212E+00  0.0000000E+00  0.1515152E-01 -0.1820009E-11  0.0000000E+00 -0.8057931E-04
  0.7222222E+00  0.0000000E+00  0.1515152E-01 -0.1891976E-11  0.0000000E+00 -0.8057931E-04
  0.7323232E+00  0.0000000E+00  0.1515152E-01 -0.1916523E-11  0.0000000E+00 -0.8057931E-04
  0.7424242E+00  0.0000000E+00  0.1515152E-01 -0.1887100E-11  0.0000000E+00 -0.8057931E-04
  0.7525253E+00  0.0000000E+00  0.1515152E-01 -0.1828801E-11  0.0000000E+00 -0.8057931E-04
  0.7626263E+00  0.0000000E+00  0.1515152E-01 -0.1778579E-11  0.0000000E+00 -0.8057931E-04
  0.7727273E+00  0.0000000E+00  0.1515152E-01 -0.1753274E-11  0.0000000E+00 -0.8057931E-04
  0.7828283E+00  0.0000000E+00  0.1515152E-01 -0.1743728E-11  0.0000000E+00 -0.8057931E-04
  0.7929293E+00  0.0000000E+00  0.1515152E-01 -0.1726758E-11  0.0000000E+00 -0.8057931E-04
  0.8030303E+00  0.0000000E+00  0.1515152E-01 -0.1677863E-11  0.0000000E+00 -0.8057932E-04
  0.8131313E+00  0.0000000E+00  0.1515152E-01 -0.1576898E-11  0.0000000E+00 -0.8057932E-04
  0.8232324E+00  0.0000000E+00  0.1515152E-01 -0.1410284E-11  0.0000000E+00 -0.8057932E-04
  0.8333333E+00  0.0000000E+00  0.1515152E-01 -0.1173510E-11  0.0000000E+00 -0.8057932E-04
  0.8434343E+00  0.0000000E+00  0.1515152E-01 -0.8735766E-12  0.0000000E+00 -0.8057932E-04
  0.8535354E+00  0.0000000E+00  0.1515152E-01 -0.5287398E-12  0.0000000E+00 -0.8057932E-04
  0.8636364E+00  0.0000000E+00  0.1515152E-01 -0.1649164E-12  0.0000000E+00 -0.8057932E-04
  0.8737374E+00  0.0000000E+00  0.1515152E-01  0.1858856E-12  0.0000000E+00 -0.8057932E-04
  0.8838384E+00  0.0000000E+00  0.1515152E-01  0.4779414E-12  0.0000000E+00 -0.8057932E-04
  0.8939394E+00  0.0000000E+00  0.1515152E-01  0.7227232E-12  0.0000000E+00 -0.8057932E-04
  0.9040404E+00  0.0000000E+00  0.1515152E-01  0.8984158E-12  0.0000000E+00 -0.8057932E-04
  0.9141414E+00  0.0000000E+00  0.1515152E-01  0.9504846E-12  0.0000000E+00 -0.8057932E-04
  0.9242424E+00  0.0000000E+00  0.1515152E-01  0.9570629E-12  0.0000000E+00 -0.8057932E-04
  0.9343435E+00  0.0000000E+00  0.1515152E-01  0.9225840E-12  0.0000000E+00 -0.8057932E-04
  0.9444444E+00  0.0000000E+00  0.1515152E-01  0.8430975E-12  0.0000000E+00 -0.8057932E-04
  0.9545454E+00  0.0000000E+00  0.1515152E-01  0.7350608E-12  0.0000000E+00 -0.8057932E-04
  0.9646465E+00  0.0000000E+00  0.1515152E-01  0.6117929E-12  0.0000000E+00 -0.8057932E-04
  0.9747475E+00  0.0000000E+00  0.1515152E-01  0.4736977E-12  0.0000000E+00 -0.8057932E-04
  0.9848485E+00  0.0000000E+00  0.1515152E-01  0.3035953E-12  0.0000000E+00 -0.8057932E-04
  0.9974747E+00  0.0000000E+00  0.1515152E-01  0.8267001E-13  0.0000000E+00 -0.8057931E-04
  0.5050505E-02  0.0000000E+00  0.2525252E-01 -0.3607573E-12  0.0000000E+00 -0.7957909E-04
  0.1515152E-01  0.0000000E+00  0.2525252E-01 -0.1118942E-11  0.0000000E+00 -0.7957909E-04
  0.2525252E-01  0.0000000E+00  0.2525252E-01 -0.1811952E-11  0.0000000E+00 -0.7957909E-04
  0.3535353E-01  0.0000000E+00  0.2525252E-01 -0.2377933E-11  0.0000000E+00 -0.7957909E-04
  0.4545455E-01  0.0000000E+00  0.2525252E-01 -0.2786747E-11  0.0000000E+00 -0.7957909E-04
  0.5555556E-01  0.0000000E+00  0.2525252E-01 -0.2963374E-11  0.0000000E+00 -0.7957909E-04
  0.6565657E-01  0.0000000E+00  0.2525252E-01 -0.3033794E-11  0.0000000E+00 -0.7957910E-04
  0.7575758E-01  0.0000000E+00  0.2525252E-01 -0.3019232E-11  0.0000000E+00 -0.7957910E-04
  0.8585858E-01  0.0000000E+00  0.2525252E-01 -0.2936459E-11  0.0000000E+00 -0.7957910E-04
  0.9595960E-01  0.0000000E+00  0.2525252E-01 -0.2838182E-11  0.0000000E+00 -0.7957910E-04
  0.1060606E+00  0.0000000E+00  0.2525252E-01 -0.2767752E-11  0.0000000E+00 -0.7957910E-04
  0.1161616E+00  0.0000000E+00  0.2525252E-01 -0.2729731E-11  0.0000000E+00 -0.7957910E-04
  0.1262626E+00  0.0000000E+00  0.2525252E-01 -0.2695547E-11  0.0000000E+00 -0.7957910E-04
  0.1363636E+00  0.0000000E+00  0.2525252E-01 -0.2622830E-11  0.0000000E+00 -0.7957910E-04
  0.1464646E+00  0.0000000E+00  0.2525252E-01 -0.2471284E-11  0.0000000E+00 -0.7957910E-04
  0.1565657E+00  0.0000000E+00  0.2525252E-01 -0.2211366E-11  0.0000000E+00 -0.7957911E-04
  0.1666667E+00  0.0000000E+00  0.2525252E-01 -0.1828649E-11  0.0000000E+00 -0.7957911E-04
  0.1767677E+00  0.0000000E+00  0.2525252E-01 -0.1326208E-11  0.0000000E+00 -0.7957911E-04
  0.1868687E+00  0.0000000E+00  0.2525252E-01 -0.7265438E-12  0.0000000E+00 -0.7957911E-04
  0.1969697E+00  0.0000000E+00  0.2525252E-01 -0.7475677E-13  0.0000000E+00 -0.7957911E-04
  0.2070707E+00  0.0000000E+00  0.2525252E-01  0.5593849E-12  0.0000000E+00 -0.7957911E-04
  0.2171717E+00  0.0000000E+00  0.2525252E-01  0.1134050E-11  0.0000000E+00 -0.7957911E-04
  0.2272727E+00  0.0000000E+00  0.2525252E-01  0.1615755E-11  0.0000000E+00 -0.7957911E-04
  0.2373737E+00  0.0000000E+00  0.2525252E-01  0.1990101E-11  0.0000000E+00 -0.7957911E-04
  0.2474747E+00  0.0000000E+00  0.2525252E-01  0.2161623E-11  0.0000000E+00 -0.7957911E-04
  0.2575758E+00  0.0000000E+00  0.2525252E-01  0.2206964E-11  0.0000000E+00 -0.7957910E-04
  0.2676768E+00  0.0000000E+00  0.2525252E-01  0.2189508E-11  0.0000000E+00 -0.7957910E-04
  0.2777778E+00  0.0000000E+00  0.2525252E-01  0.2100249E-11  0.0000000E+00 -0.7957910E-04
  0.2878788E+00  0.0000000E+00  0.2525252E-01  0.1963055E-11  0.0000000E+00 -0.7957910E-04
  0.2979798E+00  0.0000000E+00  0.2525252E-01  0.1822895E-11  0.0000000E+00 -0.7957910E-04
  0.3080808E+00  0.0000000E+00  0.2525252E-01  0.1706494E-11  0.0000000E+00 -0.7957910E-04
  0.3181818E+00  0.0000000E+00  0.2525252E-01  0.1607455E-11  0.0000000E+00 -0.7957910E-04
  0.3282828E+00  0.0000000E+00  0.2525252E-01  0.1501226E-11  0.0000000E+00 -0.7957910E-04
  0.3383838E+00  0.0000000E+00  0.2525252E-01  0.1363050E-11  0.0000000E+00 -0.7957910E-04
  0.3484848E+00  0.0000000E+00  0.2525252E-01  0.1174090E-11  0.0000000E+00 -0.7957910E-04
  0.3585859E+00  0.0000000E+00  0.2525252E-01  0.9437886E-12  0.0000000E+00 -0.7957910E-04
  0.3686869E+00  0.0000000E+00  0.2525252E-01  0.6524658E-12  0.0000000E+00 -0.7957910E-04
  0.3787879E+00  0.0000000E+00  0.2525252E-01  0.3244971E-12  0.0000000E+00 -0.7957910E-04
  0.3888889E+00  0.0000000E+00  0.2525252E-01  0.1266867E-14  0.0000000E+00 -0.7957910E-04
  0.3989899E+00  0.0000000E+00  0.2525252E-01 -0.3130140E-12  0.0000000E+00 -0.7957910E-04
  0.4090909E+00  0.0000000E+00  0.2525252E-01 -0.7182537E-12  0.0000000E+00 -0.7957910E-04
  0.4191919E+00  0.0000000E+00  0.2525252E-01 -0.9771341E-12  0.0000000E+00 -0.7957910E-04
  0.4292929E+00  0.0000000E+00  0.2525252E-01 -0.1125449E-11  0.0000000E+00 -0.7957910E-04
  0.4393939E+00  0.0000000E+00  0.2525252E-01 -0.1217923E-11  0.0000000E+00 -0.7957910E-04
  0.4494950E+00  0.0000000E+00  0.2525252E-01 -0.1146411E-11  0.0000000E+00 -0.7957910E-04
  0.4595959E+00  0.0000000E+00  0.2525252E-01 -0.9025520E-12  0.0000000E+00 -0.7957910E-04
  0.4696970E+00  0.0000000E+00  0.2525252E-01 -0.4891983E-12  0.0000000E+00 -0.7957910E-04
  0.4797980E+00  0.0000000E+00  0.2525252E-01  0.5820396E-13  0.0000000E+00 -0.7957910E-04
  0.4898990E+00  0.0000000E+00  0.2525252E-01  0.6637943E-12  0.0000000E+00 -0.7957910E-04
  0.5000000E+00  0.0000000E+00  0.2525252E-01  0.1253482E-11  0.0000000E+00 -0.7957910E-04
  0.5101010E+00  0.0000000E+00  0.2525252E-01  0.1795417E-11  0.0000000E+00 -0.7957910E-04
  0.5202020E+00  0.0000000E+00  0.2525252E-01  0.2211267E-11  0.0000000E+00 -0.7957910E-04
  0.5303030E+00  0.0000000E+00  0.2525252E-01  0.2495770E-11  0.0000000E+00 -0.7957910E-04
  0.5404040E+00  0.0000000E+00  0.2525252E-01  0.2671262E-11  0.0000000E+00 -0.7957910E-04
  0.5505050E+00  0.0000000E+00  0.2525252E-01  0.2664404E-11  0.0000000E+00 -0.7957909E-04
  0.5606061E+00  0.0000000E+00  0.2525252E-01  0.2603980E-11  0.0000000E+00 -0.7957909E-04
  0.5707071E+00  0.0000000E+00  0.2525252E-01  0.2512540E-11  0.0000000E+00 -0.7957909E-04
  0.5808081E+00  0.0000000E+00  0.2525252E-01  0.2392139E-11  0.0000000E+00 -0.7957909E-04
  0.5909091E+00  0.0000000E+00  0.2525252E-01  0.2267591E-11  0.0000000E+00 -0.7957909E-04
  0.6010101E+00  0.0000000E+00  0.2525252E-01  0.2150332E-11  0.0000000E+00 -0.7957909E-04
  0.6111111E+00  0.0000000E+00  0.2525252E-01  0.2013932E-11  0.0000000E+00 -0.7957909E-04
  0.6212121E+00  0.0000000E+00  0.2525252E-01  0.1806063E-11  0.0000000E+00 -0.7957909E-04
  0.6313131E+00  0.0000000E+00  0.2525252E-01  0.1476712E-11  0.0000000E+00 -0.7957909E-04
  0.6414142E+00  0.0000000E+00  0.2525252E-01  0.1000461E-11  0.0000000E+00 -0.7957909E-04
  0.6515151E+00  0.0000000E+00  0.2525252E-01  0.3836471E-12  0.0000000E+00 -0.7957909E-04
  0.6616161E+00  0.0000000E+00  0.2525252E-01 -0.3324158E-12  0.0000000E+00 -0.7957909E-04
  0.6717172E+00  0.0000000E+00  0.2525252E-01 -0.1071450E-11  0.0000000E+00 -0.7957909E-04
  0.6818182E+00  0.0000000E+00  0.2525252E-01 -0.1760240E-11  0.0000000E+00 -0.7957909E-04
  0.6919192E+00  0.0000000E+00  0.2525252E-01 -0.2334832E-11  0.0000000E+00 -0.7957909E-04
  0.7020202E+00  0.0000000E+00  0.2525252E-01 -0.2809909E-11  0.0000000E+00 -0.7957909E-04
  0.7121212E+00  0.0000000E+00  0.2525252E-01 -0.3052436E-11  0.0000000E+00 -0.7957909E-04
  0.7222222E+00  0.0000000E+00  0.2525252E-01 -0.3156119E-11  0.0000000E+00 -0.7957909E-04
  0.7323232E+00  0.0000000E+00  0.2525252E-01 -0.3180514E-11  0.0000000E+00 -0.7957909E-04
  0.7424242E+00  0.0000000E+00  0.2525252E-01 -0.3131176E-11  0.0000000E+00 -0.7957909E-04
  0.7525253E+00  0.0000000E+00  0.2525252E-01 -0.3043765E-11  0.0000000E+00 -0.7957910E-04
  0.7626263E+00  0.0000000E+00  0.2525252E-01 -0.2968816E-11  0.0000000E+00 -0.7957910E-04
  0.7727273E+00  0.0000000E+00  0.2525252E-01 -0.2930920E-11  0.0000000E+00 -0.7957910E-04
  0.7828283E+00  0.0000000E+00  0.2525252E-01 -0.2917374E-11  0.0000000E+00 -0.7957910E-04
  0.7929293E+00  0.0000000E+00  0.2525252E-01 -0.2891608E-11  0.0000000E+00 -0.7957910E-04
  0.8030303E+00  0.0000000E+00  0.2525252E-01 -0.2812106E-11  0.0000000E+00 -0.7957910E-04
  0.8131313E+00  0.0000000E+00  0.2525252E-01 -0.2644027E-11  0.0000000E+00 -0.7957910E-04
  0.8232324E+00  0.0000000E+00  0.2525252E-01 -0.2364348E-11  0.0000000E+00 -0.7957910E-04
  0.8333333E+00  0.0000000E+00  0.2525252E-01 -0.1965515E-11  0.0000000E+00 -0.7957910E-04
  0.8434343E+00  0.0000000E+00  0.2525252E-01 -0.1458500E-11  0.0000000E+00 -0.7957911E-04
  0.8535354E+00  0.0000000E+00  0.2525252E-01 -0.8774406E-12  0.0000000E+00 -0.7957911E-04
  0.8636364E+00  0.0000000E+00  0.2525252E-01 -0.2662407E-12  0.0000000E+00 -0.7957911E-04
  0.8737374E+00  0.0000000E+00  0.2525252E-01  0.3216038E-12  0.0000000E+00 -0.7957911E-04
  0.8838384E+00  0.0000000E+00  0.2525252E-01  0.8142174E-12  0.0000000E+00 -0.7957911E-04
  0.8939394E+00  0.0000000E+00  0.2525252E-01  0.1207698E-11  0.0000000E+00 -0.7957911E-04
  0.9040404E+00  0.0000000E+00  0.2525252E-01  0.1494927E-11  0.0000000E+00 -0.7957910E-04
  0.9141414E+00  0.0000000E+00  0.2525252E-01  0.1599510E-11  0.0000000E+00 -0.7957910E-04
  0.9242424E+00  0.0000000E+00  0.2525252E-01  0.1609544E-11  0.0000000E+00 -0.7957910E-04
  0.9343435E+00  0.0000000E+00  0.2525252E-01  0.1545689E-11  0.0000000E+00 -0.7957910E-04
  0.9444444E+00  0.0000000E+00  0.2525252E-01  0.1416330E-11  0.0000000E+00 -0.7957910E-04
  0.9545454E+00  0.0000000E+00  0.2525252E-01  0.1245345E-11  0.0000000E+00 -0.7957910E-04
  0.9646465E+00  0.0000000E+00  0.2525252E-01  0.1042808E-11  0.0000000E+00 -0.7957910E-04
  0.9747475E+00  0.0000000E+00  0.2525252E-01  0.8096714E-12  0.0000000E+00 -0.7957910E-04
  0.9848485E+00  0.0000000E+00  0.2525252E-01  0.5265752E-12  0.0000000E+00 -0.7957910E-04
  0.9974747E+00  0.0000000E+00  0.2525252E-01  0.1781552E-12  0.0000000E+00 -0.7957910E-04
  0.5050505E-02  0.0000000E+00  0.3535353E-01 -0.5153934E-12  0.0000000E+00 -0.7810263E-04
  0.1515152E-01  0.0000000E+00  0.3535353E-01 -0.1583929E-11  0.0000000E+00 -0.7810263E-04
  0.2525252E-01  0.0000000E+00  0.3535353E-01 -0.2562569E-11  0.0000000E+00 -0.7810263E-04
  0.3535353E-01  0.0000000E+00  0.3535353E-01 -0.3344628E-11  0.0000000E+00 -0.7810263E-04
  0.4545455E-01  0.0000000E+00  0.3535353E-01 -0.3899387E-11  0.0000000E+00 -0.7810263E-04
  0.5555556E-01  0.0000000E+00  0.3535353E-01 -0.4142066E-11  0.0000000E+00 -0.7810263E-04
  0.6565657E-01  0.0000000E+00  0.3535353E-01 -0.4226146E-11  0.0000000E+00 -0.7810264E-04
  0.7575758E-01  0.0000000E+00  0.3535353E-01 -0.4192747E-11  0.0000000E+00 -0.7810264E-04
  0.8585858E-01  0.0000000E+00  0.3535353E-01 -0.4075341E-11  0.0000000E+00 -0.7810264E-04
  0.9595960E-01  0.0000000E+00  0.3535353E-01 -0.3943740E-11  0.0000000E+00 -0.7810264E-04
  0.1060606E+00  0.0000000E+00  0.3535353E-01 -0.3852287E-11  0.0000000E+00 -0.7810264E-04
  0.1161616E+00  0.0000000E+00  0.3535353E-01 -0.3805358E-11  0.0000000E+00 -0.7810264E-04
  0.1262626E+00  0.0000000E+00  0.3535353E-01 -0.3763740E-11  0.0000000E+00 -0.7810264E-04
  0.1363636E+00  0.0000000E+00  0.3535353E-01 -0.3667996E-11  0.0000000E+00 -0.7810264E-04
  0.1464646E+00  0.0000000E+00  0.3535353E-01 -0.3459511E-11  0.0000000E+00 -0.7810264E-04
  0.1565657E+00  0.0000000E+00  0.3535353E-01 -0.3094475E-11  0.0000000E+00 -0.7810265E-04
  0.1666667E+00  0.0000000E+00  0.3535353E-01 -0.2552891E-11  0.0000000E+00 -0.7810265E-04
  0.1767677E+00  0.0000000E+00  0.3535353E-01 -0.1843085E-11  0.0000000E+00 -0.7810265E-04
  0.1868687E+00  0.0000000E+00  0.3535353E-01 -0.9983665E-12  0.0000000E+00 -0.7810265E-04
  0.1969697E+00  0.0000000E+00  0.3535353E-01 -0.7017719E-13  0.0000000E+00 -0.7810265E-04
  0.2070707E+00  0.0000000E+00  0.3535353E-01  0.8370278E-12  0.0000000E+00 -0.7810265E-04
  0.2171717E+00  0.0000000E+00  0.3535353E-01  0.1634808E-11  0.0000000E+00 -0.7810265E-04
  0.2272727E+00  0.0000000E+00  0.3535353E-01  0.2289378E-11  0.0000000E+00 -0.7810265E-04
  0.2373737E+00  0.0000000E+00  0.3535353E-01  0.2827062E-11  0.0000000E+00 -0.7810265E-04
  0.2474747E+00  0.0000000E+00  0.3535353E-01  0.3088141E-11  0.0000000E+00 -0.7810264E-04
  0.2575758E+00  0.0000000E+00  0.3535353E-01  0.3136767E-11  0.0000000E+00 -0.7810264E-04
  0.2676768E+00  0.0000000E+00  0.3535353E-01  0.3091565E-11  0.0000000E+00 -0.7810264E-04
  0.2777778E+00  0.0000000E+00  0.3535353E-01  0.2962835E-11  0.0000000E+00 -0.7810264E-04
  0.2878788E+00  0.0000000E+00  0.3535353E-01  0.2778499E-11  0.0000000E+00 -0.7810264E-04
  0.2979798E+00  0.0000000E+00  0.3535353E-01  0.2586799E-11  0.0000000E+00 -0.7810264E-04