title = "dataset water"
variables = "x", "y", "z", "vx", "vy", "vz"
zone t = "velocities, solution time =  1.500E+01 days        " i =   99, j =   99, k =    1,  f=point
  0.5050505E-02  0.0000000E+00  0.5050505E-02  0.1197710E-10  0.0000000E+00 -0.2862707E-04
  0.1515152E-01  0.0000000E+00  0.5050505E-02  0.3590417E-10  0.0000000E+00 -0.2862703E-04
  0.2525252E-01  0.0000000E+00  0.5050505E-02  0.5973187E-10  0.0000000E+00 -0.2862693E-04
  0.3535353E-01  0.0000000E+00  0.5050505E-02  0.8339197E-10  0.0000000E+00 -0.2862679E-04
  0.4545455E-01  0.0000000E+00  0.5050505E-02  0.1068173E-09  0.0000000E+00 -0.2862660E-04
  0.5555556E-01  0.0000000E+00  0.5050505E-02  0.1299396E-09  0.0000000E+00 -0.2862636E-04
  0.6565657E-01  0.0000000E+00  0.5050505E-02  0.1526890E-09  0.0000000E+00 -0.2862607E-04
  0.7575758E-01  0.0000000E+00  0.5050505E-02  0.1749949E-09  0.0000000E+00 -0.2862574E-04
  0.8585858E-01  0.0000000E+00  0.5050505E-02  0.1967851E-09  0.0000000E+00 -0.2862537E-04
  0.9595960E-01  0.0000000E+00  0.5050505E-02  0.2179858E-09  0.0000000E+00 -0.2862496E-04
  0.1060606E+00  0.0000000E+00  0.5050505E-02  0.2385220E-09  0.0000000E+00 -0.2862450E-04
  0.1161616E+00  0.0000000E+00  0.5050505E-02  0.2583172E-09  0.0000000E+00 -0.2862400E-04
  0.1262626E+00  0.0000000E+00  0.5050505E-02  0.2772935E-09  0.0000000E+00 -0.2862346E-04
  0.1363636E+00  0.0000000E+00  0.5050505E-02  0.2953719E-09  0.0000000E+00 -0.2862289E-04
  0.1464646E+00  0.0000000E+00  0.5050505E-02  0.3124727E-09  0.0000000E+00 -0.2862228E-04
  0.1565657E+00  0.0000000E+00  0.5050505E-02  0.3285153E-09  0.0000000E+00 -0.2862163E-04
  0.1666667E+00  0.0000000E+00  0.5050505E-02  0.3434191E-09  0.0000000E+00 -0.2862096E-04
  0.1767677E+00  0.0000000E+00  0.5050505E-02  0.3571038E-09  0.0000000E+00 -0.2862026E-04
  0.1868687E+00  0.0000000E+00  0.5050505E-02  0.3694899E-09  0.0000000E+00 -0.2861953E-04
  0.1969697E+00  0.0000000E+00  0.5050505E-02  0.3804995E-09  0.0000000E+00 -0.2861877E-04
  0.2070707E+00  0.0000000E+00  0.5050505E-02  0.3900566E-09  0.0000000E+00 -0.2861800E-04
  0.2171717E+00  0.0000000E+00  0.5050505E-02  0.3980882E-09  0.0000000E+00 -0.2861721E-04
  0.2272727E+00  0.0000000E+00  0.5050505E-02  0.4045251E-09  0.0000000E+00 -0.2861640E-04
  0.2373737E+00  0.0000000E+00  0.5050505E-02  0.4093025E-09  0.0000000E+00 -0.2861559E-04
  0.2474747E+00  0.0000000E+00  0.5050505E-02  0.4123609E-09  0.0000000E+00 -0.2861476E-04
  0.2575758E+00  0.0000000E+00  0.5050505E-02  0.4136472E-09  0.0000000E+00 -0.2861393E-04
  0.2676768E+00  0.0000000E+00  0.5050505E-02  0.4131156E-09  0.0000000E+00 -0.2861311E-04
  0.2777778E+00  0.0000000E+00  0.5050505E-02  0.4107280E-09  0.0000000E+00 -0.2861228E-04
  0.2878788E+00  0.0000000E+00  0.5050505E-02  0.4064556E-09  0.0000000E+00 -0.2861146E-04
  0.2979798E+00  0.0000000E+00  0.5050505E-02  0.4002791E-09  0.0000000E+00 -0.2861065E-04
  0.3080808E+00  0.0000000E+00  0.5050505E-02  0.3921899E-09  0.0000000E+00 -0.2860985E-04
  0.3181818E+00  0.0000000E+00  0.5050505E-02  0.3821906E-09  0.0000000E+00 -0.2860908E-04
  0.3282828E+00  0.0000000E+00  0.5050505E-02  0.3702953E-09  0.0000000E+00 -0.2860832E-04
  0.3383838E+00  0.0000000E+00  0.5050505E-02  0.3565308E-09  0.0000000E+00 -0.2860759E-04
  0.3484848E+00  0.0000000E+00  0.5050505E-02  0.3409364E-09  0.0000000E+00 -0.2860689E-04
  0.3585859E+00  0.0000000E+00  0.5050505E-02  0.3235644E-09  0.0000000E+00 -0.2860623E-04
  0.3686869E+00  0.0000000E+00  0.5050505E-02  0.3044799E-09  0.0000000E+00 -0.2860560E-04
  0.3787879E+00  0.0000000E+00  0.5050505E-02  0.2837612E-09  0.0000000E+00 -0.2860500E-04
  0.3888889E+00  0.0000000E+00  0.5050505E-02  0.2614991E-09  0.0000000E+00 -0.2860446E-04
  0.3989899E+00  0.0000000E+00  0.5050505E-02  0.2377967E-09  0.0000000E+00 -0.2860396E-04
  0.4090909E+00  0.0000000E+00  0.5050505E-02  0.2127692E-09  0.0000000E+00 -0.2860350E-04
  0.4191919E+00  0.0000000E+00  0.5050505E-02  0.1865422E-09  0.0000000E+00 -0.2860310E-04
  0.4292929E+00  0.0000000E+00  0.5050505E-02  0.1592520E-09  0.0000000E+00 -0.2860276E-04
  0.4393939E+00  0.0000000E+00  0.5050505E-02  0.1310436E-09  0.0000000E+00 -0.2860247E-04
  0.4494950E+00  0.0000000E+00  0.5050505E-02  0.1020701E-09  0.0000000E+00 -0.2860223E-04
  0.4595959E+00  0.0000000E+00  0.5050505E-02  0.7249102E-10  0.0000000E+00 -0.2860206E-04
  0.4696970E+00  0.0000000E+00  0.5050505E-02  0.4247131E-10  0.0000000E+00 -0.2860194E-04
  0.4797980E+00  0.0000000E+00  0.5050505E-02  0.1217949E-10  0.0000000E+00 -0.2860189E-04
  0.4898990E+00  0.0000000E+00  0.5050505E-02 -0.1821373E-10  0.0000000E+00 -0.2860189E-04
  0.5000000E+00  0.0000000E+00  0.5050505E-02 -0.4853701E-10  0.0000000E+00 -0.2860196E-04
  0.5101010E+00  0.0000000E+00  0.5050505E-02 -0.7861996E-10  0.0000000E+00 -0.2860209E-04
  0.5202020E+00  0.0000000E+00  0.5050505E-02 -0.1082948E-09  0.0000000E+00 -0.2860227E-04
  0.5303030E+00  0.0000000E+00  0.5050505E-02 -0.1373979E-09  0.0000000E+00 -0.2860252E-04
  0.5404040E+00  0.0000000E+00  0.5050505E-02 -0.1657711E-09  0.0000000E+00 -0.2860282E-04
  0.5505050E+00  0.0000000E+00  0.5050505E-02 -0.1932632E-09  0.0000000E+00 -0.2860319E-04
  0.5606061E+00  0.0000000E+00  0.5050505E-02 -0.2197312E-09  0.0000000E+00 -0.2860360E-04
  0.5707071E+00  0.0000000E+00  0.5050505E-02 -0.2450415E-09  0.0000000E+00 -0.2860407E-04
  0.5808081E+00  0.0000000E+00  0.5050505E-02 -0.2690708E-09  0.0000000E+00 -0.2860458E-04
  0.5909091E+00  0.0000000E+00  0.5050505E-02 -0.2917069E-09  0.0000000E+00 -0.2860514E-04
  0.6010101E+00  0.0000000E+00  0.5050505E-02 -0.3128499E-09  0.0000000E+00 -0.2860575E-04
  0.6111111E+00  0.0000000E+00  0.5050505E-02 -0.3324118E-09  0.0000000E+00 -0.2860640E-04
  0.6212121E+00  0.0000000E+00  0.5050505E-02 -0.3503176E-09  0.0000000E+00 -0.2860708E-04
  0.6313131E+00  0.0000000E+00  0.5050505E-02 -0.3665055E-09  0.0000000E+00 -0.2860780E-04
  0.6414142E+00  0.0000000E+00  0.5050505E-02 -0.3809263E-09  0.0000000E+00 -0.2860855E-04
  0.6515151E+00  0.0000000E+00  0.5050505E-02 -0.3935437E-09  0.0000000E+00 -0.2860933E-04
  0.6616161E+00  0.0000000E+00  0.5050505E-02 -0.4043342E-09  0.0000000E+00 -0.2861013E-04
  0.6717172E+00  0.0000000E+00  0.5050505E-02 -0.4132862E-09  0.0000000E+00 -0.2861095E-04
  0.6818182E+00  0.0000000E+00  0.5050505E-02 -0.4203997E-09  0.0000000E+00 -0.2861179E-04
  0.6919192E+00  0.0000000E+00  0.5050505E-02 -0.4256859E-09  0.0000000E+00 -0.2861264E-04
  0.7020202E+00  0.0000000E+00  0.5050505E-02 -0.4291658E-09  0.0000000E+00 -0.2861350E-04
  0.7121212E+00  0.0000000E+00  0.5050505E-02 -0.4308703E-09  0.0000000E+00 -0.2861436E-04
  0.7222222E+00  0.0000000E+00  0.5050505E-02 -0.4308384E-09  0.0000000E+00 -0.2861522E-04
  0.7323232E+00  0.0000000E+00  0.5050505E-02 -0.4291169E-09  0.0000000E+00 -0.2861609E-04
  0.7424242E+00  0.0000000E+00  0.5050505E-02 -0.4257596E-09  0.0000000E+00 -0.2861694E-04
  0.7525253E+00  0.0000000E+00  0.5050505E-02 -0.4208255E-09  0.0000000E+00 -0.2861779E-04
  0.7626263E+00  0.0000000E+00  0.5050505E-02 -0.4143790E-09  0.0000000E+00 -0.2861863E-04
  0.7727273E+00  0.0000000E+00  0.5050505E-02 -0.4064880E-09  0.0000000E+00 -0.2861946E-04
  0.7828283E+00  0.0000000E+00  0.5050505E-02 -0.3972239E-09  0.0000000E+00 -0.2862026E-04
  0.7929293E+00  0.0000000E+00  0.5050505E-02 -0.3866599E-09  0.0000000E+00 -0.2862105E-04
  0.8030303E+00  0.0000000E+00  0.5050505E-02 -0.3748710E-09  0.0000000E+00 -0.2862181E-04
  0.8131313E+00  0.0000000E+00  0.5050505E-02 -0.3619327E-09  0.0000000E+00 -0.2862255E-04
  0.8232324E+00  0.0000000E+00  0.5050505E-02 -0.3479208E-09  0.0000000E+00 -0.2862326E-04
  0.8333333E+00  0.0000000E+00  0.5050505E-02 -0.3329103E-09  0.0000000E+00 -0.2862395E-04
  0.8434343E+00  0.0000000E+00  0.5050505E-02 -0.3169753E-09  0.0000000E+00 -0.2862460E-04
  0.8535354E+00  0.0000000E+00  0.5050505E-02 -0.3001887E-09  0.0000000E+00 -0.2862522E-04
  0.8636364E+00  0.0000000E+00  0.5050505E-02 -0.2826212E-09  0.0000000E+00 -0.2862580E-04
  0.8737374E+00  0.0000000E+00  0.5050505E-02 -0.2643415E-09  0.0000000E+00 -0.2862635E-04
  0.8838384E+00  0.0000000E+00  0.5050505E-02 -0.2454160E-09  0.0000000E+00 -0.2862686E-04
  0.8939394E+00  0.0000000E+00  0.5050505E-02 -0.2259088E-09  0.0000000E+00 -0.2862734E-04
  0.9040404E+00  0.0000000E+00  0.5050505E-02 -0.2058812E-09  0.0000000E+00 -0.2862777E-04
  0.9141414E+00  0.0000000E+00  0.5050505E-02 -0.1853921E-09  0.0000000E+00 -0.2862816E-04
  0.9242424E+00  0.0000000E+00  0.5050505E-02 -0.1644978E-09  0.0000000E+00 -0.2862851E-04
  0.9343435E+00  0.0000000E+00  0.5050505E-02 -0.1432524E-09  0.0000000E+00 -0.2862882E-04
  0.9444444E+00  0.0000000E+00  0.5050505E-02 -0.1217075E-09  0.0000000E+00 -0.2862909E-04
  0.9545454E+00  0.0000000E+00  0.5050505E-02 -0.9991294E-10  0.0000000E+00 -0.2862931E-04
  0.9646465E+00  0.0000000E+00  0.5050505E-02 -0.7791668E-10  0.0000000E+00 -0.2862949E-04
  0.9747475E+00  0.0000000E+00  0.5050505E-02 -0.5576520E-10  0.0000000E+00 -0.2862962E-04
  0.9848485E+00  0.0000000E+00  0.5050505E-02 -0.3350387E-10  0.0000000E+00 -0.2862971E-04
  0.9974747E+00  0.0000000E+00  0.5050505E-02 -0.1117740E-10  0.0000000E+00 -0.2862976E-04
  0.5050505E-02  0.0000000E+00  0.1515152E-01  0.3607986E-10  0.0000000E+00 -0.2854607E-04
  0.1515152E-01  0.0000000E+00  0.1515152E-01  0.1081541E-09  0.0000000E+00 -0.2854603E-04
  0.2525252E-01  0.0000000E+00  0.1515152E-01  0.1799303E-09  0.0000000E+00 -0.2854593E-04
  0.3535353E-01  0.0000000E+00  0.1515152E-01  0.2512030E-09  0.0000000E+00 -0.2854578E-04
  0.4545455E-01  0.0000000E+00  0.1515152E-01  0.3217703E-09  0.0000000E+00 -0.2854559E-04
  0.5555556E-01  0.0000000E+00  0.1515152E-01  0.3914264E-09  0.0000000E+00 -0.2854535E-04
  0.6565657E-01  0.0000000E+00  0.1515152E-01  0.4599622E-09  0.0000000E+00 -0.2854506E-04
  0.7575758E-01  0.0000000E+00  0.1515152E-01  0.5271645E-09  0.0000000E+00 -0.2854473E-04
  0.8585858E-01  0.0000000E+00  0.1515152E-01  0.5928161E-09  0.0000000E+00 -0.2854435E-04
  0.9595960E-01  0.0000000E+00  0.1515152E-01  0.6566956E-09  0.0000000E+00 -0.2854392E-04
  0.1060606E+00  0.0000000E+00  0.1515152E-01  0.7185767E-09  0.0000000E+00 -0.2854346E-04
  0.1161616E+00  0.0000000E+00  0.1515152E-01  0.7782292E-09  0.0000000E+00 -0.2854295E-04
  0.1262626E+00  0.0000000E+00  0.1515152E-01  0.8354186E-09  0.0000000E+00 -0.2854241E-04
  0.1363636E+00  0.0000000E+00  0.1515152E-01  0.8899069E-09  0.0000000E+00 -0.2854182E-04
  0.1464646E+00  0.0000000E+00  0.1515152E-01  0.9414536E-09  0.0000000E+00 -0.2854120E-04
  0.1565657E+00  0.0000000E+00  0.1515152E-01  0.9898160E-09  0.0000000E+00 -0.2854055E-04
  0.1666667E+00  0.0000000E+00  0.1515152E-01  0.1034751E-08  0.0000000E+00 -0.2853987E-04
  0.1767677E+00  0.0000000E+00  0.1515152E-01  0.1076017E-08  0.0000000E+00 -0.2853915E-04
  0.1868687E+00  0.0000000E+00  0.1515152E-01  0.1113373E-08  0.0000000E+00 -0.2853841E-04
  0.1969697E+00  0.0000000E+00  0.1515152E-01  0.1146584E-08  0.0000000E+00 -0.2853765E-04
  0.2070707E+00  0.0000000E+00  0.1515152E-01  0.1175421E-08  0.0000000E+00 -0.2853686E-04
  0.2171717E+00  0.0000000E+00  0.1515152E-01  0.1199664E-08  0.0000000E+00 -0.2853606E-04
  0.2272727E+00  0.0000000E+00  0.1515152E-01  0.1219103E-08  0.0000000E+00 -0.2853524E-04
  0.2373737E+00  0.0000000E+00  0.1515152E-01  0.1233542E-08  0.0000000E+00 -0.2853441E-04
  0.2474747E+00  0.0000000E+00  0.1515152E-01  0.1242802E-08  0.0000000E+00 -0.2853357E-04
  0.2575758E+00  0.0000000E+00  0.1515152E-01  0.1246721E-08  0.0000000E+00 -0.2853273E-04
  0.2676768E+00  0.0000000E+00  0.1515152E-01  0.1245160E-08  0.0000000E+00 -0.2853188E-04
  0.2777778E+00  0.0000000E+00  0.1515152E-01  0.1238006E-08  0.0000000E+00 -0.2853104E-04
  0.2878788E+00  0.0000000E+00  0.1515152E-01  0.1225168E-08  0.0000000E+00 -0.2853021E-04
  0.2979798E+00  0.0000000E+00  0.1515152E-01  0.1206590E-08  0.0000000E+00 -0.2852938E-04
  0.3080808E+00  0.0000000E+00  0.1515152E-01  0.1182244E-08  0.0000000E+00 -0.2852857E-04
  0.3181818E+00  0.0000000E+00  0.1515152E-01  0.1152137E-08  0.0000000E+00 -0.2852778E-04
  0.3282828E+00  0.0000000E+00  0.1515152E-01  0.1116311E-08  0.0000000E+00 -0.2852702E-04
  0.3383838E+00  0.0000000E+00  0.1515152E-01  0.1074847E-08  0.0000000E+00 -0.2852627E-04
  0.3484848E+00  0.0000000E+00  0.1515152E-01  0.1027863E-08  0.0000000E+00 -0.2852556E-04
  0.3585859E+00  0.0000000E+00  0.1515152E-01  0.9755147E-09  0.0000000E+00 -0.2852488E-04
  0.3686869E+00  0.0000000E+00  0.1515152E-01  0.9179999E-09  0.0000000E+00 -0.2852424E-04
  0.3787879E+00  0.0000000E+00  0.1515152E-01  0.8555536E-09  0.0000000E+00 -0.2852364E-04
  0.3888889E+00  0.0000000E+00  0.1515152E-01  0.7884497E-09  0.0000000E+00 -0.2852308E-04
  0.3989899E+00  0.0000000E+00  0.1515152E-01  0.7169994E-09  0.0000000E+00 -0.2852257E-04
  0.4090909E+00  0.0000000E+00  0.1515152E-01  0.6415492E-09  0.0000000E+00 -0.2852211E-04
  0.4191919E+00  0.0000000E+00  0.1515152E-01  0.5624791E-09  0.0000000E+00 -0.2852170E-04
  0.4292929E+00  0.0000000E+00  0.1515152E-01  0.4801995E-09  0.0000000E+00 -0.2852135E-04
  0.4393939E+00  0.0000000E+00  0.1515152E-01  0.3951484E-09  0.0000000E+00 -0.2852105E-04
  0.4494950E+00  0.0000000E+00  0.1515152E-01  0.3077878E-09  0.0000000E+00 -0.2852082E-04
  0.4595959E+00  0.0000000E+00  0.1515152E-01  0.2185996E-09  0.0000000E+00 -0.2852064E-04
  0.4696970E+00  0.0000000E+00  0.1515152E-01  0.1280812E-09  0.0000000E+00 -0.2852052E-04
  0.4797980E+00  0.0000000E+00  0.1515152E-01  0.3674173E-10  0.0000000E+00 -0.2852046E-04
  0.4898990E+00  0.0000000E+00  0.1515152E-01 -0.5490355E-10  0.0000000E+00 -0.2852047E-04
  0.5000000E+00  0.0000000E+00  0.1515152E-01 -0.1463372E-09  0.0000000E+00 -0.2852054E-04
  0.5101010E+00  0.0000000E+00  0.1515152E-01 -0.2370451E-09  0.0000000E+00 -0.2852067E-04
  0.5202020E+00  0.0000000E+00  0.1515152E-01 -0.3265205E-09  0.0000000E+00 -0.2852086E-04
  0.5303030E+00  0.0000000E+00  0.1515152E-01 -0.4142693E-09  0.0000000E+00 -0.2852111E-04
  0.5404040E+00  0.0000000E+00  0.1515152E-01 -0.4998143E-09  0.0000000E+00 -0.2852142E-04
  0.5505050E+00  0.0000000E+00  0.1515152E-01 -0.5826990E-09  0.0000000E+00 -0.2852179E-04
  0.5606061E+00  0.0000000E+00  0.1515152E-01 -0.6624919E-09  0.0000000E+00 -0.2852221E-04
  0.5707071E+00  0.0000000E+00  0.1515152E-01 -0.7387898E-09  0.0000000E+00 -0.2852268E-04
  0.5808081E+00  0.0000000E+00  0.1515152E-01 -0.8112209E-09  0.0000000E+00 -0.2852321E-04
  0.5909091E+00  0.0000000E+00  0.1515152E-01 -0.8794470E-09  0.0000000E+00 -0.2852378E-04
  0.6010101E+00  0.0000000E+00  0.1515152E-01 -0.9431661E-09  0.0000000E+00 -0.2852440E-04
  0.6111111E+00  0.0000000E+00  0.1515152E-01 -0.1002114E-08  0.0000000E+00 -0.2852506E-04
  0.6212121E+00  0.0000000E+00  0.1515152E-01 -0.1056064E-08  0.0000000E+00 -0.2852575E-04
  0.6313131E+00  0.0000000E+00  0.1515152E-01 -0.1104831E-08  0.0000000E+00 -0.2852649E-04
  0.6414142E+00  0.0000000E+00  0.1515152E-01 -0.1148266E-08  0.0000000E+00 -0.2852725E-04
  0.6515151E+00  0.0000000E+00  0.1515152E-01 -0.1186261E-08  0.0000000E+00 -0.2852804E-04
  0.6616161E+00  0.0000000E+00  0.1515152E-01 -0.1218746E-08  0.0000000E+00 -0.2852885E-04
  0.6717172E+00  0.0000000E+00  0.1515152E-01 -0.1245685E-08  0.0000000E+00 -0.2852969E-04
  0.6818182E+00  0.0000000E+00  0.1515152E-01 -0.1267080E-08  0.0000000E+00 -0.2853054E-04
  0.6919192E+00  0.0000000E+00  0.1515152E-01 -0.1282965E-08  0.0000000E+00 -0.2853140E-04
  0.7020202E+00  0.0000000E+00  0.1515152E-01 -0.1293404E-08  0.0000000E+00 -0.2853228E-04
  0.7121212E+00  0.0000000E+00  0.1515152E-01 -0.1298492E-08  0.0000000E+00 -0.2853315E-04
  0.7222222E+00  0.0000000E+00  0.1515152E-01 -0.1298346E-08  0.0000000E+00 -0.2853403E-04
  0.7323232E+00  0.0000000E+00  0.1515152E-01 -0.1293108E-08  0.0000000E+00 -0.2853491E-04
  0.7424242E+00  0.0000000E+00  0.1515152E-01 -0.1282941E-08  0.0000000E+00 -0.2853578E-04
  0.7525253E+00  0.0000000E+00  0.1515152E-01 -0.1268024E-08  0.0000000E+00 -0.2853664E-04
  0.7626263E+00  0.0000000E+00  0.1515152E-01 -0.1248552E-08  0.0000000E+00 -0.2853750E-04
  0.7727273E+00  0.0000000E+00  0.1515152E-01 -0.1224730E-08  0.0000000E+00 -0.2853833E-04
  0.7828283E+00  0.0000000E+00  0.1515152E-01 -0.1196772E-08  0.0000000E+00 -0.2853915E-04
  0.7929293E+00  0.0000000E+00  0.1515152E-01 -0.1164902E-08  0.0000000E+00 -0.2853995E-04
  0.8030303E+00  0.0000000E+00  0.1515152E-01 -0.1129344E-08  0.0000000E+00 -0.2854073E-04
  0.8131313E+00  0.0000000E+00  0.1515152E-01 -0.1090328E-08  0.0000000E+00 -0.2854148E-04
  0.8232324E+00  0.0000000E+00  0.1515152E-01 -0.1048081E-08  0.0000000E+00 -0.2854220E-04
  0.8333333E+00  0.0000000E+00  0.1515152E-01 -0.1002830E-08  0.0000000E+00 -0.2854289E-04
  0.8434343E+00  0.0000000E+00  0.1515152E-01 -0.9547992E-09  0.0000000E+00 -0.2854356E-04
  0.8535354E+00  0.0000000E+00  0.1515152E-01 -0.9042068E-09  0.0000000E+00 -0.2854419E-04
  0.8636364E+00  0.0000000E+00  0.1515152E-01 -0.8512667E-09  0.0000000E+00 -0.2854478E-04
  0.8737374E+00  0.0000000E+00  0.1515152E-01 -0.7961859E-09  0.0000000E+00 -0.2854534E-04
  0.8838384E+00  0.0000000E+00  0.1515152E-01 -0.7391645E-09  0.0000000E+00 -0.2854586E-04
  0.8939394E+00  0.0000000E+00  0.1515152E-01 -0.6803950E-09  0.0000000E+00 -0.2854634E-04
  0.9040404E+00  0.0000000E+00  0.1515152E-01 -0.6200621E-09  0.0000000E+00 -0.2854677E-04
  0.9141414E+00  0.0000000E+00  0.1515152E-01 -0.5583430E-09  0.0000000E+00 -0.2854717E-04
  0.9242424E+00  0.0000000E+00  0.1515152E-01 -0.4954071E-09  0.0000000E+00 -0.2854753E-04
  0.9343435E+00  0.0000000E+00  0.1515152E-01 -0.4314168E-09  0.0000000E+00 -0.2854784E-04
  0.9444444E+00  0.0000000E+00  0.1515152E-01 -0.3665276E-09  0.0000000E+00 -0.2854811E-04
  0.9545454E+00  0.0000000E+00  0.1515152E-01 -0.3008889E-09  0.0000000E+00 -0.2854834E-04
  0.9646465E+00  0.0000000E+00  0.1515152E-01 -0.2346447E-09  0.0000000E+00 -0.2854852E-04
  0.9747475E+00  0.0000000E+00  0.1515152E-01 -0.1679346E-09  0.0000000E+00 -0.2854866E-04
  0.9848485E+00  0.0000000E+00  0.1515152E-01 -0.1008946E-09  0.0000000E+00 -0.2854875E-04
  0.9974747E+00  0.0000000E+00  0.1515152E-01 -0.3365835E-10  0.0000000E+00 -0.2854879E-04
  0.5050505E-02  0.0000000E+00  0.2525252E-01  0.6066208E-10  0.0000000E+00 -0.2838479E-04
  0.1515152E-01  0.0000000E+00  0.2525252E-01  0.1818368E-09  0.0000000E+00 -0.2838474E-04
  0.2525252E-01  0.0000000E+00  0.2525252E-01  0.3025132E-09  0.0000000E+00 -0.2838464E-04
  0.3535353E-01  0.0000000E+00  0.2525252E-01  0.4223474E-09  0.0000000E+00 -0.2838449E-04
  0.4545455E-01  0.0000000E+00  0.2525252E-01  0.5410013E-09  0.0000000E+00 -0.2838429E-04
  0.5555556E-01  0.0000000E+00  0.2525252E-01  0.6581299E-09  0.0000000E+00 -0.2838404E-04
  0.6565657E-01  0.0000000E+00  0.2525252E-01  0.7733830E-09  0.0000000E+00 -0.2838375E-04
  0.7575758E-01  0.0000000E+00  0.2525252E-01  0.8864032E-09  0.0000000E+00 -0.2838340E-04
  0.8585858E-01  0.0000000E+00  0.2525252E-01  0.9968266E-09  0.0000000E+00 -0.2838301E-04
  0.9595960E-01  0.0000000E+00  0.2525252E-01  0.1104281E-08  0.0000000E+00 -0.2838258E-04
  0.1060606E+00  0.0000000E+00  0.2525252E-01  0.1208388E-08  0.0000000E+00 -0.2838210E-04
  0.1161616E+00  0.0000000E+00  0.2525252E-01  0.1308759E-08  0.0000000E+00 -0.2838157E-04
  0.1262626E+00  0.0000000E+00  0.2525252E-01  0.1405001E-08  0.0000000E+00 -0.2838101E-04
  0.1363636E+00  0.0000000E+00  0.2525252E-01  0.1496714E-08  0.0000000E+00 -0.2838041E-04
  0.1464646E+00  0.0000000E+00  0.2525252E-01  0.1583493E-08  0.0000000E+00 -0.2837977E-04
  0.1565657E+00  0.0000000E+00  0.2525252E-01  0.1664930E-08  0.0000000E+00 -0.2837910E-04
  0.1666667E+00  0.0000000E+00  0.2525252E-01  0.1740614E-08  0.0000000E+00 -0.2837839E-04
  0.1767677E+00  0.0000000E+00  0.2525252E-01  0.1810138E-08  0.0000000E+00 -0.2837765E-04
  0.1868687E+00  0.0000000E+00  0.2525252E-01  0.1873096E-08  0.0000000E+00 -0.2837689E-04
  0.1969697E+00  0.0000000E+00  0.2525252E-01  0.1929092E-08  0.0000000E+00 -0.2837610E-04
  0.2070707E+00  0.0000000E+00  0.2525252E-01  0.1977739E-08  0.0000000E+00 -0.2837529E-04
  0.2171717E+00  0.0000000E+00  0.2525252E-01  0.2018662E-08  0.0000000E+00 -0.2837446E-04
  0.2272727E+00  0.0000000E+00  0.2525252E-01  0.2051509E-08  0.0000000E+00 -0.2837361E-04
  0.2373737E+00  0.0000000E+00  0.2525252E-01  0.2075947E-08  0.0000000E+00 -0.2837276E-04
  0.2474747E+00  0.0000000E+00  0.2525252E-01  0.2091671E-08  0.0000000E+00 -0.2837189E-04
  0.2575758E+00  0.0000000E+00  0.2525252E-01  0.2098409E-08  0.0000000E+00 -0.2837102E-04
  0.2676768E+00  0.0000000E+00  0.2525252E-01  0.2095924E-08  0.0000000E+00 -0.2837015E-04
  0.2777778E+00  0.0000000E+00  0.2525252E-01  0.2084020E-08  0.0000000E+00 -0.2836928E-04
  0.2878788E+00  0.0000000E+00  0.2525252E-01  0.2062546E-08  0.0000000E+00 -0.2836841E-04
  0.2979798E+00  0.0000000E+00  0.2525252E-01  0.2031402E-08  0.0000000E+00 -0.2836756E-04
  0.3080808E+00  0.0000000E+00  0.2525252E-01  0.1990539E-08  0.0000000E+00 -0.2836673E-04
  0.3181818E+00  0.0000000E+00  0.2525252E-01  0.1939968E-08  0.0000000E+00 -0.2836591E-04
  0.3282828E+00  0.0000000E+00  0.2525252E-01  0.1879757E-08  0.0000000E+00 -0.2836511E-04
  0.3383838E+00  0.0000000E+00  0.2525252E-01  0.1810040E-08  0.0000000E+00 -0.2836435E-04
  0.3484848E+00  0.0000000E+00  0.2525252E-01  0.1731014E-08  0.0000000E+00 -0.2836361E-04
  0.3585859E+00  0.0000000E+00  0.2525252E-01  0.1642943E-08  0.0000000E+00 -0.2836291E-04
  0.3686869E+00  0.0000000E+00  0.2525252E-01  0.1546155E-08  0.0000000E+00 -0.2836224E-04
  0.3787879E+00  0.0000000E+00  0.2525252E-01  0.1441047E-08  0.0000000E+00 -0.2836162E-04
  0.3888889E+00  0.0000000E+00  0.2525252E-01  0.1328079E-08  0.0000000E+00 -0.2836104E-04
  0.3989899E+00  0.0000000E+00  0.2525252E-01  0.1207777E-08  0.0000000E+00 -0.2836051E-04
  0.4090909E+00  0.0000000E+00  0.2525252E-01  0.1080724E-08  0.0000000E+00 -0.2836004E-04
  0.4191919E+00  0.0000000E+00  0.2525252E-01  0.9475604E-09  0.0000000E+00 -0.2835961E-04
  0.4292929E+00  0.0000000E+00  0.2525252E-01  0.8089792E-09  0.0000000E+00 -0.2835925E-04
  0.4393939E+00  0.0000000E+00  0.2525252E-01  0.6657194E-09  0.0000000E+00 -0.2835894E-04
  0.4494950E+00  0.0000000E+00  0.2525252E-01  0.5185607E-09  0.0000000E+00 -0.2835869E-04
  0.4595959E+00  0.0000000E+00  0.2525252E-01  0.3683166E-09  0.0000000E+00 -0.2835851E-04
  0.4696970E+00  0.0000000E+00  0.2525252E-01  0.2158275E-09  0.0000000E+00 -0.2835839E-04
  0.4797980E+00  0.0000000E+00  0.2525252E-01  0.6195260E-10  0.0000000E+00 -0.2835833E-04
  0.4898990E+00  0.0000000E+00  0.2525252E-01 -0.9243738E-10  0.0000000E+00 -0.2835834E-04
  0.5000000E+00  0.0000000E+00  0.2525252E-01 -0.2464688E-09  0.0000000E+00 -0.2835841E-04
  0.5101010E+00  0.0000000E+00  0.2525252E-01 -0.3992731E-09  0.0000000E+00 -0.2835854E-04
  0.5202020E+00  0.0000000E+00  0.2525252E-01 -0.5499948E-09  0.0000000E+00 -0.2835874E-04
  0.5303030E+00  0.0000000E+00  0.2525252E-01 -0.6977996E-09  0.0000000E+00 -0.2835900E-04
  0.5404040E+00  0.0000000E+00  0.2525252E-01 -0.8418814E-09  0.0000000E+00 -0.2835932E-04
  0.5505050E+00  0.0000000E+00  0.2525252E-01 -0.9814701E-09  0.0000000E+00 -0.2835970E-04
  0.5606061E+00  0.0000000E+00  0.2525252E-01 -0.1115837E-08  0.0000000E+00 -0.2836014E-04
  0.5707071E+00  0.0000000E+00  0.2525252E-01 -0.1244303E-08  0.0000000E+00 -0.2836063E-04
  0.5808081E+00  0.0000000E+00  0.2525252E-01 -0.1366240E-08  0.0000000E+00 -0.2836117E-04
  0.5909091E+00  0.0000000E+00  0.2525252E-01 -0.1481079E-08  0.0000000E+00 -0.2836176E-04
  0.6010101E+00  0.0000000E+00  0.2525252E-01 -0.1588311E-08  0.0000000E+00 -0.2836240E-04
  0.6111111E+00  0.0000000E+00  0.2525252E-01 -0.1687491E-08  0.0000000E+00 -0.2836309E-04
  0.6212121E+00  0.0000000E+00  0.2525252E-01 -0.1778239E-08  0.0000000E+00 -0.2836381E-04
  0.6313131E+00  0.0000000E+00  0.2525252E-01 -0.1860243E-08  0.0000000E+00 -0.2836456E-04
  0.6414142E+00  0.0000000E+00  0.2525252E-01 -0.1933255E-08  0.0000000E+00 -0.2836535E-04
  0.6515151E+00  0.0000000E+00  0.2525252E-01 -0.1997093E-08  0.0000000E+00 -0.2836617E-04
  0.6616161E+00  0.0000000E+00  0.2525252E-01 -0.2051641E-08  0.0000000E+00 -0.2836701E-04
  0.6717172E+00  0.0000000E+00  0.2525252E-01 -0.2096843E-08  0.0000000E+00 -0.2836788E-04
  0.6818182E+00  0.0000000E+00  0.2525252E-01 -0.2132703E-08  0.0000000E+00 -0.2836875E-04
  0.6919192E+00  0.0000000E+00  0.2525252E-01 -0.2159281E-08  0.0000000E+00 -0.2836965E-04
  0.7020202E+00  0.0000000E+00  0.2525252E-01 -0.2176688E-08  0.0000000E+00 -0.2837055E-04
  0.7121212E+00  0.0000000E+00  0.2525252E-01 -0.2185083E-08  0.0000000E+00 -0.2837145E-04
  0.7222222E+00  0.0000000E+00  0.2525252E-01 -0.2184670E-08  0.0000000E+00 -0.2837236E-04
  0.7323232E+00  0.0000000E+00  0.2525252E-01 -0.2175689E-08  0.0000000E+00 -0.2837327E-04
  0.7424242E+00  0.0000000E+00  0.2525252E-01 -0.2158417E-08  0.0000000E+00 -0.2837417E-04
  0.7525253E+00  0.0000000E+00  0.2525252E-01 -0.2133157E-08  0.0000000E+00 -0.2837506E-04
  0.7626263E+00  0.0000000E+00  0.2525252E-01 -0.2100238E-08  0.0000000E+00 -0.2837594E-04
  0.7727273E+00  0.0000000E+00  0.2525252E-01 -0.2060009E-08  0.0000000E+00 -0.2837680E-04
  0.7828283E+00  0.0000000E+00  0.2525252E-01 -0.2012835E-08  0.0000000E+00 -0.2837764E-04
  0.7929293E+00  0.0000000E+00  0.2525252E-01 -0.1959088E-08  0.0000000E+00 -0.2837847E-04
  0.8030303E+00  0.0000000E+00  0.2525252E-01 -0.1899153E-08  0.0000000E+00 -0.2837927E-04
  0.8131313E+00  0.0000000E+00  0.2525252E-01 -0.1833413E-08  0.0000000E+00 -0.2838004E-04
  0.8232324E+00  0.0000000E+00  0.2525252E-01 -0.1762254E-08  0.0000000E+00 -0.2838079E-04
  0.8333333E+00  0.0000000E+00  0.2525252E-01 -0.1686058E-08  0.0000000E+00 -0.2838150E-04
  0.8434343E+00  0.0000000E+00  0.2525252E-01 -0.1605202E-08  0.0000000E+00 -0.2838218E-04
  0.8535354E+00  0.0000000E+00  0.2525252E-01 -0.1520055E-08  0.0000000E+00 -0.2838283E-04
  0.8636364E+00  0.0000000E+00  0.2525252E-01 -0.1430976E-08  0.0000000E+00 -0.2838344E-04
  0.8737374E+00  0.0000000E+00  0.2525252E-01 -0.1338313E-08  0.0000000E+00 -0.2838402E-04
  0.8838384E+00  0.0000000E+00  0.2525252E-01 -0.1242403E-08  0.0000000E+00 -0.2838455E-04
  0.8939394E+00  0.0000000E+00  0.2525252E-01 -0.1143568E-08  0.0000000E+00 -0.2838504E-04
  0.9040404E+00  0.0000000E+00  0.2525252E-01 -0.1042119E-08  0.0000000E+00 -0.2838550E-04
  0.9141414E+00  0.0000000E+00  0.2525252E-01 -0.9383521E-09  0.0000000E+00 -0.2838591E-04
  0.9242424E+00  0.0000000E+00  0.2525252E-01 -0.8325525E-09  0.0000000E+00 -0.2838627E-04
  0.9343435E+00  0.0000000E+00  0.2525252E-01 -0.7249914E-09  0.0000000E+00 -0.2838660E-04
  0.9444444E+00  0.0000000E+00  0.2525252E-01 -0.6159290E-09  0.0000000E+00 -0.2838687E-04
  0.9545454E+00  0.0000000E+00  0.2525252E-01 -0.5056152E-09  0.0000000E+00 -0.2838711E-04
  0.9646465E+00  0.0000000E+00  0.2525252E-01 -0.3942908E-09  0.0000000E+00 -0.2838729E-04
  0.9747475E+00  0.0000000E+00  0.2525252E-01 -0.2821886E-09  0.0000000E+00 -0.2838743E-04
  0.9848485E+00  0.0000000E+00  0.2525252E-01 -0.1695355E-09  0.0000000E+00 -0.2838753E-04
  0.9974747E+00  0.0000000E+00  0.2525252E-01 -0.5655402E-10  0.0000000E+00 -0.2838757E-04
  0.5050505E-02  0.0000000E+00  0.3535353E-01  0.8609272E-10  0.0000000E+00 -0.2814434E-04
  0.1515152E-01  0.0000000E+00  0.3535353E-01  0.2580623E-09  0.0000000E+00 -0.2814428E-04
  0.2525252E-01  0.0000000E+00  0.3535353E-01  0.4293294E-09  0.0000000E+00 -0.2814418E-04
  0.3535353E-01  0.0000000E+00  0.3535353E-01  0.5994100E-09  0.0000000E+00 -0.2814402E-04
  0.4545455E-01  0.0000000E+00  0.3535353E-01  0.7678270E-09  0.0000000E+00 -0.2814381E-04
  0.5555556E-01  0.0000000E+00  0.3535353E-01  0.9340937E-09  0.0000000E+00 -0.2814355E-04
  0.6565657E-01  0.0000000E+00  0.3535353E-01  0.1097716E-08  0.0000000E+00 -0.2814324E-04
  0.7575758E-01  0.0000000E+00  0.3535353E-01  0.1258188E-08  0.0000000E+00 -0.2814289E-04
  0.8585858E-01  0.0000000E+00  0.3535353E-01  0.1414996E-08  0.0000000E+00 -0.2814248E-04
  0.9595960E-01  0.0000000E+00  0.3535353E-01  0.1567614E-08  0.0000000E+00 -0.2814202E-04
  0.1060606E+00  0.0000000E+00  0.3535353E-01  0.1715505E-08  0.0000000E+00 -0.2814152E-04
  0.1161616E+00  0.0000000E+00  0.3535353E-01  0.1858121E-08  0.0000000E+00 -0.2814098E-04
  0.1262626E+00  0.0000000E+00  0.3535353E-01  0.1994902E-08  0.0000000E+00 -0.2814039E-04
  0.1363636E+00  0.0000000E+00  0.3535353E-01  0.2125280E-08  0.0000000E+00 -0.2813976E-04
  0.1464646E+00  0.0000000E+00  0.3535353E-01  0.2248681E-08  0.0000000E+00 -0.2813909E-04
  0.1565657E+00  0.0000000E+00  0.3535353E-01  0.2364522E-08  0.0000000E+00 -0.2813838E-04
  0.1666667E+00  0.0000000E+00  0.3535353E-01  0.2472222E-08  0.0000000E+00 -0.2813765E-04
  0.1767677E+00  0.0000000E+00  0.3535353E-01  0.2571199E-08  0.0000000E+00 -0.2813687E-04
  0.1868687E+00  0.0000000E+00  0.3535353E-01  0.2660874E-08  0.0000000E+00 -0.2813607E-04
  0.1969697E+00  0.0000000E+00  0.3535353E-01  0.2740680E-08  0.0000000E+00 -0.2813525E-04
  0.2070707E+00  0.0000000E+00  0.3535353E-01  0.2810065E-08  0.0000000E+00 -0.2813440E-04
  0.2171717E+00  0.0000000E+00  0.3535353E-01  0.2868494E-08  0.0000000E+00 -0.2813353E-04
  0.2272727E+00  0.0000000E+00  0.3535353E-01  0.2915460E-08  0.0000000E+00 -0.2813264E-04
  0.2373737E+00  0.0000000E+00  0.3535353E-01  0.2950487E-08  0.0000000E+00 -0.2813174E-04
  0.2474747E+00  0.0000000E+00  0.3535353E-01  0.2973136E-08  0.0000000E+00 -0.2813083E-04
  0.2575758E+00  0.0000000E+00  0.3535353E-01  0.2983016E-08  0.0000000E+00 -0.2812992E-04
  0.2676768E+00  0.0000000E+00  0.3535353E-01  0.2979783E-08  0.0000000E+00 -0.2812901E-04
  0.2777778E+00  0.0000000E+00  0.3535353E-01  0.2963155E-08  0.0000000E+00 -0.2812809E-04
  0.2878788E+00  0.0000000E+00  0.3535353E-01  0.2932912E-08  0.0000000E+00 -0.2812719E-04
  0.2979798E+00  0.0000000E+00  0.3535353E-01  0.2888904E-08  0.0000000E+00 -0.2812629E-04