title = "dataset water"
variables = "x", "y", "z", "vx", "vy", "vz"
zone t = "velocities, solution time =  2.300E+01 days        " i =   99, j =   99, k =    1,  f=point
  0.5050505E-02  0.0000000E+00  0.5050505E-02  0.8617365E-09  0.0000000E+00 -0.1353837E-04
  0.1515152E-01  0.0000000E+00  0.5050505E-02  0.2584666E-08  0.0000000E+00 -0.1353492E-04
  0.2525252E-01  0.0000000E+00  0.5050505E-02  0.4305916E-08  0.0000000E+00 -0.1352802E-04
  0.3535353E-01  0.0000000E+00  0.5050505E-02  0.6024244E-08  0.0000000E+00 -0.1351767E-04
  0.4545455E-01  0.0000000E+00  0.5050505E-02  0.7738221E-08  0.0000000E+00 -0.1350388E-04
  0.5555556E-01  0.0000000E+00  0.5050505E-02  0.9446156E-08  0.0000000E+00 -0.1348667E-04
  0.6565657E-01  0.0000000E+00  0.5050505E-02  0.1114603E-07  0.0000000E+00 -0.1346604E-04
  0.7575758E-01  0.0000000E+00  0.5050505E-02  0.1283542E-07  0.0000000E+00 -0.1344202E-04
  0.8585858E-01  0.0000000E+00  0.5050505E-02  0.1451143E-07  0.0000000E+00 -0.1341463E-04
  0.9595960E-01  0.0000000E+00  0.5050505E-02  0.1617064E-07  0.0000000E+00 -0.1338390E-04
  0.1060606E+00  0.0000000E+00  0.5050505E-02  0.1780903E-07  0.0000000E+00 -0.1334986E-04
  0.1161616E+00  0.0000000E+00  0.5050505E-02  0.1942196E-07  0.0000000E+00 -0.1331257E-04
  0.1262626E+00  0.0000000E+00  0.5050505E-02  0.2100407E-07  0.0000000E+00 -0.1327208E-04
  0.1363636E+00  0.0000000E+00  0.5050505E-02  0.2254933E-07  0.0000000E+00 -0.1322846E-04
  0.1464646E+00  0.0000000E+00  0.5050505E-02  0.2405094E-07  0.0000000E+00 -0.1318178E-04
  0.1565657E+00  0.0000000E+00  0.5050505E-02  0.2550140E-07  0.0000000E+00 -0.1313215E-04
  0.1666667E+00  0.0000000E+00  0.5050505E-02  0.2689248E-07  0.0000000E+00 -0.1307967E-04
  0.1767677E+00  0.0000000E+00  0.5050505E-02  0.2821527E-07  0.0000000E+00 -0.1302447E-04
  0.1868687E+00  0.0000000E+00  0.5050505E-02  0.2946027E-07  0.0000000E+00 -0.1296671E-04
  0.1969697E+00  0.0000000E+00  0.5050505E-02  0.3061743E-07  0.0000000E+00 -0.1290653E-04
  0.2070707E+00  0.0000000E+00  0.5050505E-02  0.3167631E-07  0.0000000E+00 -0.1284414E-04
  0.2171717E+00  0.0000000E+00  0.5050505E-02  0.3262619E-07  0.0000000E+00 -0.1277974E-04
  0.2272727E+00  0.0000000E+00  0.5050505E-02  0.3345625E-07  0.0000000E+00 -0.1271355E-04
  0.2373737E+00  0.0000000E+00  0.5050505E-02  0.3415575E-07  0.0000000E+00 -0.1264584E-04
  0.2474747E+00  0.0000000E+00  0.5050505E-02  0.3471428E-07  0.0000000E+00 -0.1257686E-04
  0.2575758E+00  0.0000000E+00  0.5050505E-02  0.3512191E-07  0.0000000E+00 -0.1250692E-04
  0.2676768E+00  0.0000000E+00  0.5050505E-02  0.3536951E-07  0.0000000E+00 -0.1243632E-04
  0.2777778E+00  0.0000000E+00  0.5050505E-02  0.3544889E-07  0.0000000E+00 -0.1236539E-04
  0.2878788E+00  0.0000000E+00  0.5050505E-02  0.3535308E-07  0.0000000E+00 -0.1229448E-04
  0.2979798E+00  0.0000000E+00  0.5050505E-02  0.3507652E-07  0.0000000E+00 -0.1222395E-04
  0.3080808E+00  0.0000000E+00  0.5050505E-02  0.3461518E-07  0.0000000E+00 -0.1215415E-04
  0.3181818E+00  0.0000000E+00  0.5050505E-02  0.3396672E-07  0.0000000E+00 -0.1208547E-04
  0.3282828E+00  0.0000000E+00  0.5050505E-02  0.3313056E-07  0.0000000E+00 -0.1201827E-04
  0.3383838E+00  0.0000000E+00  0.5050505E-02  0.3210792E-07  0.0000000E+00 -0.1195294E-04
  0.3484848E+00  0.0000000E+00  0.5050505E-02  0.3090173E-07  0.0000000E+00 -0.1188984E-04
  0.3585859E+00  0.0000000E+00  0.5050505E-02  0.2951664E-07  0.0000000E+00 -0.1182933E-04
  0.3686869E+00  0.0000000E+00  0.5050505E-02  0.2795882E-07  0.0000000E+00 -0.1177177E-04
  0.3787879E+00  0.0000000E+00  0.5050505E-02  0.2623589E-07  0.0000000E+00 -0.1171750E-04
  0.3888889E+00  0.0000000E+00  0.5050505E-02  0.2435667E-07  0.0000000E+00 -0.1166683E-04
  0.3989899E+00  0.0000000E+00  0.5050505E-02  0.2233107E-07  0.0000000E+00 -0.1162008E-04
  0.4090909E+00  0.0000000E+00  0.5050505E-02  0.2016991E-07  0.0000000E+00 -0.1157752E-04
  0.4191919E+00  0.0000000E+00  0.5050505E-02  0.1788476E-07  0.0000000E+00 -0.1153941E-04
  0.4292929E+00  0.0000000E+00  0.5050505E-02  0.1548787E-07  0.0000000E+00 -0.1150599E-04
  0.4393939E+00  0.0000000E+00  0.5050505E-02  0.1299209E-07  0.0000000E+00 -0.1147747E-04
  0.4494950E+00  0.0000000E+00  0.5050505E-02  0.1041082E-07  0.0000000E+00 -0.1145403E-04
  0.4595959E+00  0.0000000E+00  0.5050505E-02  0.7758061E-08  0.0000000E+00 -0.1143584E-04
  0.4696970E+00  0.0000000E+00  0.5050505E-02  0.5048403E-08  0.0000000E+00 -0.1142302E-04
  0.4797980E+00  0.0000000E+00  0.5050505E-02  0.2297086E-08  0.0000000E+00 -0.1141566E-04
  0.4898990E+00  0.0000000E+00  0.5050505E-02 -0.4799675E-09  0.0000000E+00 -0.1141384E-04
  0.5000000E+00  0.0000000E+00  0.5050505E-02 -0.3266144E-08  0.0000000E+00 -0.1141759E-04
  0.5101010E+00  0.0000000E+00  0.5050505E-02 -0.6044167E-08  0.0000000E+00 -0.1142691E-04
  0.5202020E+00  0.0000000E+00  0.5050505E-02 -0.8796178E-08  0.0000000E+00 -0.1144178E-04
  0.5303030E+00  0.0000000E+00  0.5050505E-02 -0.1150387E-07  0.0000000E+00 -0.1146210E-04
  0.5404040E+00  0.0000000E+00  0.5050505E-02 -0.1414869E-07  0.0000000E+00 -0.1148779E-04
  0.5505050E+00  0.0000000E+00  0.5050505E-02 -0.1671210E-07  0.0000000E+00 -0.1151870E-04
  0.5606061E+00  0.0000000E+00  0.5050505E-02 -0.1917587E-07  0.0000000E+00 -0.1155464E-04
  0.5707071E+00  0.0000000E+00  0.5050505E-02 -0.2152242E-07  0.0000000E+00 -0.1159539E-04
  0.5808081E+00  0.0000000E+00  0.5050505E-02 -0.2373518E-07  0.0000000E+00 -0.1164071E-04
  0.5909091E+00  0.0000000E+00  0.5050505E-02 -0.2579895E-07  0.0000000E+00 -0.1169032E-04
  0.6010101E+00  0.0000000E+00  0.5050505E-02 -0.2770019E-07  0.0000000E+00 -0.1174390E-04
  0.6111111E+00  0.0000000E+00  0.5050505E-02 -0.2942733E-07  0.0000000E+00 -0.1180110E-04
  0.6212121E+00  0.0000000E+00  0.5050505E-02 -0.3097100E-07  0.0000000E+00 -0.1186159E-04
  0.6313131E+00  0.0000000E+00  0.5050505E-02 -0.3232411E-07  0.0000000E+00 -0.1192498E-04
  0.6414142E+00  0.0000000E+00  0.5050505E-02 -0.3348204E-07  0.0000000E+00 -0.1199088E-04
  0.6515151E+00  0.0000000E+00  0.5050505E-02 -0.3444252E-07  0.0000000E+00 -0.1205890E-04
  0.6616161E+00  0.0000000E+00  0.5050505E-02 -0.3520565E-07  0.0000000E+00 -0.1212866E-04
  0.6717172E+00  0.0000000E+00  0.5050505E-02 -0.3577371E-07  0.0000000E+00 -0.1219974E-04
  0.6818182E+00  0.0000000E+00  0.5050505E-02 -0.3615098E-07  0.0000000E+00 -0.1227177E-04
  0.6919192E+00  0.0000000E+00  0.5050505E-02 -0.3634354E-07  0.0000000E+00 -0.1234438E-04
  0.7020202E+00  0.0000000E+00  0.5050505E-02 -0.3635897E-07  0.0000000E+00 -0.1241719E-04
  0.7121212E+00  0.0000000E+00  0.5050505E-02 -0.3620611E-07  0.0000000E+00 -0.1248987E-04
  0.7222222E+00  0.0000000E+00  0.5050505E-02 -0.3589475E-07  0.0000000E+00 -0.1256208E-04
  0.7323232E+00  0.0000000E+00  0.5050505E-02 -0.3543542E-07  0.0000000E+00 -0.1263352E-04
  0.7424242E+00  0.0000000E+00  0.5050505E-02 -0.3483907E-07  0.0000000E+00 -0.1270390E-04
  0.7525253E+00  0.0000000E+00  0.5050505E-02 -0.3411689E-07  0.0000000E+00 -0.1277296E-04
  0.7626263E+00  0.0000000E+00  0.5050505E-02 -0.3328007E-07  0.0000000E+00 -0.1284047E-04
  0.7727273E+00  0.0000000E+00  0.5050505E-02 -0.3233963E-07  0.0000000E+00 -0.1290619E-04
  0.7828283E+00  0.0000000E+00  0.5050505E-02 -0.3130629E-07  0.0000000E+00 -0.1296994E-04
  0.7929293E+00  0.0000000E+00  0.5050505E-02 -0.3019030E-07  0.0000000E+00 -0.1303153E-04
  0.8030303E+00  0.0000000E+00  0.5050505E-02 -0.2900139E-07  0.0000000E+00 -0.1309082E-04
  0.8131313E+00  0.0000000E+00  0.5050505E-02 -0.2774869E-07  0.0000000E+00 -0.1314766E-04
  0.8232324E+00  0.0000000E+00  0.5050505E-02 -0.2644063E-07  0.0000000E+00 -0.1320194E-04
  0.8333333E+00  0.0000000E+00  0.5050505E-02 -0.2508499E-07  0.0000000E+00 -0.1325354E-04
  0.8434343E+00  0.0000000E+00  0.5050505E-02 -0.2368884E-07  0.0000000E+00 -0.1330240E-04
  0.8535354E+00  0.0000000E+00  0.5050505E-02 -0.2225852E-07  0.0000000E+00 -0.1334842E-04
  0.8636364E+00  0.0000000E+00  0.5050505E-02 -0.2079971E-07  0.0000000E+00 -0.1339155E-04
  0.8737374E+00  0.0000000E+00  0.5050505E-02 -0.1931742E-07  0.0000000E+00 -0.1343173E-04
  0.8838384E+00  0.0000000E+00  0.5050505E-02 -0.1781602E-07  0.0000000E+00 -0.1346893E-04
  0.8939394E+00  0.0000000E+00  0.5050505E-02 -0.1629928E-07  0.0000000E+00 -0.1350310E-04
  0.9040404E+00  0.0000000E+00  0.5050505E-02 -0.1477043E-07  0.0000000E+00 -0.1353422E-04
  0.9141414E+00  0.0000000E+00  0.5050505E-02 -0.1323217E-07  0.0000000E+00 -0.1356227E-04
  0.9242424E+00  0.0000000E+00  0.5050505E-02 -0.1168674E-07  0.0000000E+00 -0.1358723E-04
  0.9343435E+00  0.0000000E+00  0.5050505E-02 -0.1013596E-07  0.0000000E+00 -0.1360909E-04
  0.9444444E+00  0.0000000E+00  0.5050505E-02 -0.8581288E-08  0.0000000E+00 -0.1362784E-04
  0.9545454E+00  0.0000000E+00  0.5050505E-02 -0.7023862E-08  0.0000000E+00 -0.1364347E-04
  0.9646465E+00  0.0000000E+00  0.5050505E-02 -0.5464547E-08  0.0000000E+00 -0.1365598E-04
  0.9747475E+00  0.0000000E+00  0.5050505E-02 -0.3903990E-08  0.0000000E+00 -0.1366536E-04
  0.9848485E+00  0.0000000E+00  0.5050505E-02 -0.2342667E-08  0.0000000E+00 -0.1367162E-04
  0.9974747E+00  0.0000000E+00  0.5050505E-02 -0.7809335E-09  0.0000000E+00 -0.1367475E-04
  0.5050505E-02  0.0000000E+00  0.1515152E-01  0.2591156E-08  0.0000000E+00 -0.1350789E-04
  0.1515152E-01  0.0000000E+00  0.1515152E-01  0.7771874E-08  0.0000000E+00 -0.1350441E-04
  0.2525252E-01  0.0000000E+00  0.1515152E-01  0.1294767E-07  0.0000000E+00 -0.1349744E-04
  0.3535353E-01  0.0000000E+00  0.1515152E-01  0.1811490E-07  0.0000000E+00 -0.1348699E-04
  0.4545455E-01  0.0000000E+00  0.1515152E-01  0.2326934E-07  0.0000000E+00 -0.1347307E-04
  0.5555556E-01  0.0000000E+00  0.1515152E-01  0.2840600E-07  0.0000000E+00 -0.1345568E-04
  0.6565657E-01  0.0000000E+00  0.1515152E-01  0.3351888E-07  0.0000000E+00 -0.1343485E-04
  0.7575758E-01  0.0000000E+00  0.1515152E-01  0.3860077E-07  0.0000000E+00 -0.1341058E-04
  0.8585858E-01  0.0000000E+00  0.1515152E-01  0.4364304E-07  0.0000000E+00 -0.1338291E-04
  0.9595960E-01  0.0000000E+00  0.1515152E-01  0.4863546E-07  0.0000000E+00 -0.1335185E-04
  0.1060606E+00  0.0000000E+00  0.1515152E-01  0.5356601E-07  0.0000000E+00 -0.1331745E-04
  0.1161616E+00  0.0000000E+00  0.1515152E-01  0.5842075E-07  0.0000000E+00 -0.1327976E-04
  0.1262626E+00  0.0000000E+00  0.1515152E-01  0.6318366E-07  0.0000000E+00 -0.1323882E-04
  0.1363636E+00  0.0000000E+00  0.1515152E-01  0.6783655E-07  0.0000000E+00 -0.1319471E-04
  0.1464646E+00  0.0000000E+00  0.1515152E-01  0.7235905E-07  0.0000000E+00 -0.1314751E-04
  0.1565657E+00  0.0000000E+00  0.1515152E-01  0.7672853E-07  0.0000000E+00 -0.1309730E-04
  0.1666667E+00  0.0000000E+00  0.1515152E-01  0.8092021E-07  0.0000000E+00 -0.1304420E-04
  0.1767677E+00  0.0000000E+00  0.1515152E-01  0.8490726E-07  0.0000000E+00 -0.1298834E-04
  0.1868687E+00  0.0000000E+00  0.1515152E-01  0.8866097E-07  0.0000000E+00 -0.1292986E-04
  0.1969697E+00  0.0000000E+00  0.1515152E-01  0.9215104E-07  0.0000000E+00 -0.1286894E-04
  0.2070707E+00  0.0000000E+00  0.1515152E-01  0.9534589E-07  0.0000000E+00 -0.1280575E-04
  0.2171717E+00  0.0000000E+00  0.1515152E-01  0.9821311E-07  0.0000000E+00 -0.1274050E-04
  0.2272727E+00  0.0000000E+00  0.1515152E-01  0.1007200E-06  0.0000000E+00 -0.1267344E-04
  0.2373737E+00  0.0000000E+00  0.1515152E-01  0.1028340E-06  0.0000000E+00 -0.1260481E-04
  0.2474747E+00  0.0000000E+00  0.1515152E-01  0.1045236E-06  0.0000000E+00 -0.1253488E-04
  0.2575758E+00  0.0000000E+00  0.1515152E-01  0.1057587E-06  0.0000000E+00 -0.1246396E-04
  0.2676768E+00  0.0000000E+00  0.1515152E-01  0.1065116E-06  0.0000000E+00 -0.1239236E-04
  0.2777778E+00  0.0000000E+00  0.1515152E-01  0.1067574E-06  0.0000000E+00 -0.1232041E-04
  0.2878788E+00  0.0000000E+00  0.1515152E-01  0.1064751E-06  0.0000000E+00 -0.1224847E-04
  0.2979798E+00  0.0000000E+00  0.1515152E-01  0.1056477E-06  0.0000000E+00 -0.1217690E-04
  0.3080808E+00  0.0000000E+00  0.1515152E-01  0.1042629E-06  0.0000000E+00 -0.1210606E-04
  0.3181818E+00  0.0000000E+00  0.1515152E-01  0.1023138E-06  0.0000000E+00 -0.1203635E-04
  0.3282828E+00  0.0000000E+00  0.1515152E-01  0.9979844E-07  0.0000000E+00 -0.1196814E-04
  0.3383838E+00  0.0000000E+00  0.1515152E-01  0.9672063E-07  0.0000000E+00 -0.1190181E-04
  0.3484848E+00  0.0000000E+00  0.1515152E-01  0.9308929E-07  0.0000000E+00 -0.1183774E-04
  0.3585859E+00  0.0000000E+00  0.1515152E-01  0.8891850E-07  0.0000000E+00 -0.1177631E-04
  0.3686869E+00  0.0000000E+00  0.1515152E-01  0.8422701E-07  0.0000000E+00 -0.1171786E-04
  0.3787879E+00  0.0000000E+00  0.1515152E-01  0.7903786E-07  0.0000000E+00 -0.1166275E-04
  0.3888889E+00  0.0000000E+00  0.1515152E-01  0.7337780E-07  0.0000000E+00 -0.1161130E-04
  0.3989899E+00  0.0000000E+00  0.1515152E-01  0.6727678E-07  0.0000000E+00 -0.1156382E-04
  0.4090909E+00  0.0000000E+00  0.1515152E-01  0.6076744E-07  0.0000000E+00 -0.1152059E-04
  0.4191919E+00  0.0000000E+00  0.1515152E-01  0.5388471E-07  0.0000000E+00 -0.1148188E-04
  0.4292929E+00  0.0000000E+00  0.1515152E-01  0.4666545E-07  0.0000000E+00 -0.1144793E-04
  0.4393939E+00  0.0000000E+00  0.1515152E-01  0.3914828E-07  0.0000000E+00 -0.1141895E-04
  0.4494950E+00  0.0000000E+00  0.1515152E-01  0.3137352E-07  0.0000000E+00 -0.1139514E-04
  0.4595959E+00  0.0000000E+00  0.1515152E-01  0.2338317E-07  0.0000000E+00 -0.1137664E-04
  0.4696970E+00  0.0000000E+00  0.1515152E-01  0.1522103E-07  0.0000000E+00 -0.1136359E-04
  0.4797980E+00  0.0000000E+00  0.1515152E-01  0.6932889E-08  0.0000000E+00 -0.1135610E-04
  0.4898990E+00  0.0000000E+00  0.1515152E-01 -0.1433429E-08  0.0000000E+00 -0.1135422E-04
  0.5000000E+00  0.0000000E+00  0.1515152E-01 -0.9827957E-08  0.0000000E+00 -0.1135801E-04
  0.5101010E+00  0.0000000E+00  0.1515152E-01 -0.1819868E-07  0.0000000E+00 -0.1136746E-04
  0.5202020E+00  0.0000000E+00  0.1515152E-01 -0.2649177E-07  0.0000000E+00 -0.1138253E-04
  0.5303030E+00  0.0000000E+00  0.1515152E-01 -0.3465197E-07  0.0000000E+00 -0.1140316E-04
  0.5404040E+00  0.0000000E+00  0.1515152E-01 -0.4262323E-07  0.0000000E+00 -0.1142924E-04
  0.5505050E+00  0.0000000E+00  0.1515152E-01 -0.5034946E-07  0.0000000E+00 -0.1146063E-04
  0.5606061E+00  0.0000000E+00  0.1515152E-01 -0.5777549E-07  0.0000000E+00 -0.1149713E-04
  0.5707071E+00  0.0000000E+00  0.1515152E-01 -0.6484807E-07  0.0000000E+00 -0.1153854E-04
  0.5808081E+00  0.0000000E+00  0.1515152E-01 -0.7151700E-07  0.0000000E+00 -0.1158458E-04
  0.5909091E+00  0.0000000E+00  0.1515152E-01 -0.7773620E-07  0.0000000E+00 -0.1163498E-04
  0.6010101E+00  0.0000000E+00  0.1515152E-01 -0.8346466E-07  0.0000000E+00 -0.1168942E-04
  0.6111111E+00  0.0000000E+00  0.1515152E-01 -0.8866735E-07  0.0000000E+00 -0.1174754E-04
  0.6212121E+00  0.0000000E+00  0.1515152E-01 -0.9331586E-07  0.0000000E+00 -0.1180899E-04
  0.6313131E+00  0.0000000E+00  0.1515152E-01 -0.9738887E-07  0.0000000E+00 -0.1187339E-04
  0.6414142E+00  0.0000000E+00  0.1515152E-01 -0.1008724E-06  0.0000000E+00 -0.1194032E-04
  0.6515151E+00  0.0000000E+00  0.1515152E-01 -0.1037597E-06  0.0000000E+00 -0.1200940E-04
  0.6616161E+00  0.0000000E+00  0.1515152E-01 -0.1060513E-06  0.0000000E+00 -0.1208023E-04
  0.6717172E+00  0.0000000E+00  0.1515152E-01 -0.1077542E-06  0.0000000E+00 -0.1215239E-04
  0.6818182E+00  0.0000000E+00  0.1515152E-01 -0.1088815E-06  0.0000000E+00 -0.1222549E-04
  0.6919192E+00  0.0000000E+00  0.1515152E-01 -0.1094518E-06  0.0000000E+00 -0.1229915E-04
  0.7020202E+00  0.0000000E+00  0.1515152E-01 -0.1094881E-06  0.0000000E+00 -0.1237301E-04
  0.7121212E+00  0.0000000E+00  0.1515152E-01 -0.1090174E-06  0.0000000E+00 -0.1244671E-04
  0.7222222E+00  0.0000000E+00  0.1515152E-01 -0.1080694E-06  0.0000000E+00 -0.1251992E-04
  0.7323232E+00  0.0000000E+00  0.1515152E-01 -0.1066760E-06  0.0000000E+00 -0.1259232E-04
  0.7424242E+00  0.0000000E+00  0.1515152E-01 -0.1048705E-06  0.0000000E+00 -0.1266363E-04
  0.7525253E+00  0.0000000E+00  0.1515152E-01 -0.1026866E-06  0.0000000E+00 -0.1273358E-04
  0.7626263E+00  0.0000000E+00  0.1515152E-01 -0.1001583E-06  0.0000000E+00 -0.1280194E-04
  0.7727273E+00  0.0000000E+00  0.1515152E-01 -0.9731888E-07  0.0000000E+00 -0.1286847E-04
  0.7828283E+00  0.0000000E+00  0.1515152E-01 -0.9420065E-07  0.0000000E+00 -0.1293298E-04
  0.7929293E+00  0.0000000E+00  0.1515152E-01 -0.9083462E-07  0.0000000E+00 -0.1299530E-04
  0.8030303E+00  0.0000000E+00  0.1515152E-01 -0.8725009E-07  0.0000000E+00 -0.1305527E-04
  0.8131313E+00  0.0000000E+00  0.1515152E-01 -0.8347454E-07  0.0000000E+00 -0.1311275E-04
  0.8232324E+00  0.0000000E+00  0.1515152E-01 -0.7953343E-07  0.0000000E+00 -0.1316763E-04
  0.8333333E+00  0.0000000E+00  0.1515152E-01 -0.7545011E-07  0.0000000E+00 -0.1321979E-04
  0.8434343E+00  0.0000000E+00  0.1515152E-01 -0.7124582E-07  0.0000000E+00 -0.1326916E-04
  0.8535354E+00  0.0000000E+00  0.1515152E-01 -0.6693966E-07  0.0000000E+00 -0.1331566E-04
  0.8636364E+00  0.0000000E+00  0.1515152E-01 -0.6254866E-07  0.0000000E+00 -0.1335923E-04
  0.8737374E+00  0.0000000E+00  0.1515152E-01 -0.5808784E-07  0.0000000E+00 -0.1339982E-04
  0.8838384E+00  0.0000000E+00  0.1515152E-01 -0.5357031E-07  0.0000000E+00 -0.1343738E-04
  0.8939394E+00  0.0000000E+00  0.1515152E-01 -0.4900735E-07  0.0000000E+00 -0.1347188E-04
  0.9040404E+00  0.0000000E+00  0.1515152E-01 -0.4440859E-07  0.0000000E+00 -0.1350330E-04
  0.9141414E+00  0.0000000E+00  0.1515152E-01 -0.3978212E-07  0.0000000E+00 -0.1353161E-04
  0.9242424E+00  0.0000000E+00  0.1515152E-01 -0.3513461E-07  0.0000000E+00 -0.1355681E-04
  0.9343435E+00  0.0000000E+00  0.1515152E-01 -0.3047148E-07  0.0000000E+00 -0.1357887E-04
  0.9444444E+00  0.0000000E+00  0.1515152E-01 -0.2579704E-07  0.0000000E+00 -0.1359779E-04
  0.9545454E+00  0.0000000E+00  0.1515152E-01 -0.2111466E-07  0.0000000E+00 -0.1361356E-04
  0.9646465E+00  0.0000000E+00  0.1515152E-01 -0.1642687E-07  0.0000000E+00 -0.1362618E-04
  0.9747475E+00  0.0000000E+00  0.1515152E-01 -0.1173555E-07  0.0000000E+00 -0.1363565E-04
  0.9848485E+00  0.0000000E+00  0.1515152E-01 -0.7042093E-08  0.0000000E+00 -0.1364196E-04
  0.9974747E+00  0.0000000E+00  0.1515152E-01 -0.2347487E-08  0.0000000E+00 -0.1364512E-04
  0.5050505E-02  0.0000000E+00  0.2525252E-01  0.4340928E-08  0.0000000E+00 -0.1344707E-04
  0.1515152E-01  0.0000000E+00  0.2525252E-01  0.1302026E-07  0.0000000E+00 -0.1344351E-04
  0.2525252E-01  0.0000000E+00  0.2525252E-01  0.2169178E-07  0.0000000E+00 -0.1343641E-04
  0.3535353E-01  0.0000000E+00  0.2525252E-01  0.3034966E-07  0.0000000E+00 -0.1342575E-04
  0.4545455E-01  0.0000000E+00  0.2525252E-01  0.3898711E-07  0.0000000E+00 -0.1341155E-04
  0.5555556E-01  0.0000000E+00  0.2525252E-01  0.4759605E-07  0.0000000E+00 -0.1339382E-04
  0.6565657E-01  0.0000000E+00  0.2525252E-01  0.5616670E-07  0.0000000E+00 -0.1337257E-04
  0.7575758E-01  0.0000000E+00  0.2525252E-01  0.6468721E-07  0.0000000E+00 -0.1334781E-04
  0.8585858E-01  0.0000000E+00  0.2525252E-01  0.7314339E-07  0.0000000E+00 -0.1331957E-04
  0.9595960E-01  0.0000000E+00  0.2525252E-01  0.8151831E-07  0.0000000E+00 -0.1328787E-04
  0.1060606E+00  0.0000000E+00  0.2525252E-01  0.8979202E-07  0.0000000E+00 -0.1325275E-04
  0.1161616E+00  0.0000000E+00  0.2525252E-01  0.9794131E-07  0.0000000E+00 -0.1321425E-04
  0.1262626E+00  0.0000000E+00  0.2525252E-01  0.1059395E-06  0.0000000E+00 -0.1317242E-04
  0.1363636E+00  0.0000000E+00  0.2525252E-01  0.1137561E-06  0.0000000E+00 -0.1312733E-04
  0.1464646E+00  0.0000000E+00  0.2525252E-01  0.1213570E-06  0.0000000E+00 -0.1307906E-04
  0.1565657E+00  0.0000000E+00  0.2525252E-01  0.1287042E-06  0.0000000E+00 -0.1302770E-04
  0.1666667E+00  0.0000000E+00  0.2525252E-01  0.1357562E-06  0.0000000E+00 -0.1297336E-04
  0.1767677E+00  0.0000000E+00  0.2525252E-01  0.1424677E-06  0.0000000E+00 -0.1291616E-04
  0.1868687E+00  0.0000000E+00  0.2525252E-01  0.1487902E-06  0.0000000E+00 -0.1285626E-04
  0.1969697E+00  0.0000000E+00  0.2525252E-01  0.1546727E-06  0.0000000E+00 -0.1279381E-04
  0.2070707E+00  0.0000000E+00  0.2525252E-01  0.1600616E-06  0.0000000E+00 -0.1272902E-04
  0.2171717E+00  0.0000000E+00  0.2525252E-01  0.1649022E-06  0.0000000E+00 -0.1266209E-04
  0.2272727E+00  0.0000000E+00  0.2525252E-01  0.1691388E-06  0.0000000E+00 -0.1259326E-04
  0.2373737E+00  0.0000000E+00  0.2525252E-01  0.1727163E-06  0.0000000E+00 -0.1252279E-04
  0.2474747E+00  0.0000000E+00  0.2525252E-01  0.1755810E-06  0.0000000E+00 -0.1245095E-04
  0.2575758E+00  0.0000000E+00  0.2525252E-01  0.1776818E-06  0.0000000E+00 -0.1237806E-04
  0.2676768E+00  0.0000000E+00  0.2525252E-01  0.1789713E-06  0.0000000E+00 -0.1230445E-04
  0.2777778E+00  0.0000000E+00  0.2525252E-01  0.1794073E-06  0.0000000E+00 -0.1223045E-04
  0.2878788E+00  0.0000000E+00  0.2525252E-01  0.1789537E-06  0.0000000E+00 -0.1215642E-04
  0.2979798E+00  0.0000000E+00  0.2525252E-01  0.1775815E-06  0.0000000E+00 -0.1208275E-04
  0.3080808E+00  0.0000000E+00  0.2525252E-01  0.1752699E-06  0.0000000E+00 -0.1200983E-04
  0.3181818E+00  0.0000000E+00  0.2525252E-01  0.1720068E-06  0.0000000E+00 -0.1193803E-04
  0.3282828E+00  0.0000000E+00  0.2525252E-01  0.1677892E-06  0.0000000E+00 -0.1186777E-04
  0.3383838E+00  0.0000000E+00  0.2525252E-01  0.1626235E-06  0.0000000E+00 -0.1179944E-04
  0.3484848E+00  0.0000000E+00  0.2525252E-01  0.1565249E-06  0.0000000E+00 -0.1173343E-04
  0.3585859E+00  0.0000000E+00  0.2525252E-01  0.1495175E-06  0.0000000E+00 -0.1167012E-04
  0.3686869E+00  0.0000000E+00  0.2525252E-01  0.1416333E-06  0.0000000E+00 -0.1160989E-04
  0.3787879E+00  0.0000000E+00  0.2525252E-01  0.1329115E-06  0.0000000E+00 -0.1155309E-04
  0.3888889E+00  0.0000000E+00  0.2525252E-01  0.1233975E-06  0.0000000E+00 -0.1150006E-04
  0.3989899E+00  0.0000000E+00  0.2525252E-01  0.1131421E-06  0.0000000E+00 -0.1145111E-04
  0.4090909E+00  0.0000000E+00  0.2525252E-01  0.1022004E-06  0.0000000E+00 -0.1140654E-04
  0.4191919E+00  0.0000000E+00  0.2525252E-01  0.9063118E-07  0.0000000E+00 -0.1136663E-04
  0.4292929E+00  0.0000000E+00  0.2525252E-01  0.7849647E-07  0.0000000E+00 -0.1133161E-04
  0.4393939E+00  0.0000000E+00  0.2525252E-01  0.6586096E-07  0.0000000E+00 -0.1130171E-04
  0.4494950E+00  0.0000000E+00  0.2525252E-01  0.5279205E-07  0.0000000E+00 -0.1127713E-04
  0.4595959E+00  0.0000000E+00  0.2525252E-01  0.3935988E-07  0.0000000E+00 -0.1125802E-04
  0.4696970E+00  0.0000000E+00  0.2525252E-01  0.2563762E-07  0.0000000E+00 -0.1124452E-04
  0.4797980E+00  0.0000000E+00  0.2525252E-01  0.1170171E-07  0.0000000E+00 -0.1123675E-04
  0.4898990E+00  0.0000000E+00  0.2525252E-01 -0.2367836E-08  0.0000000E+00 -0.1123476E-04
  0.5000000E+00  0.0000000E+00  0.2525252E-01 -0.1648731E-07  0.0000000E+00 -0.1123862E-04
  0.5101010E+00  0.0000000E+00  0.2525252E-01 -0.3056937E-07  0.0000000E+00 -0.1124831E-04
  0.5202020E+00  0.0000000E+00  0.2525252E-01 -0.4452336E-07  0.0000000E+00 -0.1126381E-04
  0.5303030E+00  0.0000000E+00  0.2525252E-01 -0.5825605E-07  0.0000000E+00 -0.1128505E-04
  0.5404040E+00  0.0000000E+00  0.2525252E-01 -0.7167261E-07  0.0000000E+00 -0.1131192E-04
  0.5505050E+00  0.0000000E+00  0.2525252E-01 -0.8467796E-07  0.0000000E+00 -0.1134427E-04
  0.5606061E+00  0.0000000E+00  0.2525252E-01 -0.9717841E-07  0.0000000E+00 -0.1138192E-04
  0.5707071E+00  0.0000000E+00  0.2525252E-01 -0.1090835E-06  0.0000000E+00 -0.1142462E-04
  0.5808081E+00  0.0000000E+00  0.2525252E-01 -0.1203077E-06  0.0000000E+00 -0.1147213E-04
  0.5909091E+00  0.0000000E+00  0.2525252E-01 -0.1307727E-06  0.0000000E+00 -0.1152414E-04
  0.6010101E+00  0.0000000E+00  0.2525252E-01 -0.1404087E-06  0.0000000E+00 -0.1158031E-04
  0.6111111E+00  0.0000000E+00  0.2525252E-01 -0.1491561E-06  0.0000000E+00 -0.1164028E-04
  0.6212121E+00  0.0000000E+00  0.2525252E-01 -0.1569668E-06  0.0000000E+00 -0.1170368E-04
  0.6313131E+00  0.0000000E+00  0.2525252E-01 -0.1638048E-06  0.0000000E+00 -0.1177010E-04
  0.6414142E+00  0.0000000E+00  0.2525252E-01 -0.1696465E-06  0.0000000E+00 -0.1183912E-04
  0.6515151E+00  0.0000000E+00  0.2525252E-01 -0.1744811E-06  0.0000000E+00 -0.1191033E-04
  0.6616161E+00  0.0000000E+00  0.2525252E-01 -0.1783097E-06  0.0000000E+00 -0.1198331E-04
  0.6717172E+00  0.0000000E+00  0.2525252E-01 -0.1811448E-06  0.0000000E+00 -0.1205764E-04
  0.6818182E+00  0.0000000E+00  0.2525252E-01 -0.1830094E-06  0.0000000E+00 -0.1213290E-04
  0.6919192E+00  0.0000000E+00  0.2525252E-01 -0.1839352E-06  0.0000000E+00 -0.1220870E-04
  0.7020202E+00  0.0000000E+00  0.2525252E-01 -0.1839622E-06  0.0000000E+00 -0.1228466E-04
  0.7121212E+00  0.0000000E+00  0.2525252E-01 -0.1831364E-06  0.0000000E+00 -0.1236042E-04
  0.7222222E+00  0.0000000E+00  0.2525252E-01 -0.1815085E-06  0.0000000E+00 -0.1243563E-04
  0.7323232E+00  0.0000000E+00  0.2525252E-01 -0.1791331E-06  0.0000000E+00 -0.1250997E-04
  0.7424242E+00  0.0000000E+00  0.2525252E-01 -0.1760666E-06  0.0000000E+00 -0.1258314E-04
  0.7525253E+00  0.0000000E+00  0.2525252E-01 -0.1723666E-06  0.0000000E+00 -0.1265489E-04
  0.7626263E+00  0.0000000E+00  0.2525252E-01 -0.1680904E-06  0.0000000E+00 -0.1272495E-04
  0.7727273E+00  0.0000000E+00  0.2525252E-01 -0.1632945E-06  0.0000000E+00 -0.1279311E-04
  0.7828283E+00  0.0000000E+00  0.2525252E-01 -0.1580335E-06  0.0000000E+00 -0.1285916E-04
  0.7929293E+00  0.0000000E+00  0.2525252E-01 -0.1523596E-06  0.0000000E+00 -0.1292294E-04
  0.8030303E+00  0.0000000E+00  0.2525252E-01 -0.1463223E-06  0.0000000E+00 -0.1298428E-04
  0.8131313E+00  0.0000000E+00  0.2525252E-01 -0.1399678E-06  0.0000000E+00 -0.1304304E-04
  0.8232324E+00  0.0000000E+00  0.2525252E-01 -0.1333387E-06  0.0000000E+00 -0.1309912E-04
  0.8333333E+00  0.0000000E+00  0.2525252E-01 -0.1264744E-06  0.0000000E+00 -0.1315240E-04
  0.8434343E+00  0.0000000E+00  0.2525252E-01 -0.1194103E-06  0.0000000E+00 -0.1320281E-04
  0.8535354E+00  0.0000000E+00  0.2525252E-01 -0.1121784E-06  0.0000000E+00 -0.1325026E-04
  0.8636364E+00  0.0000000E+00  0.2525252E-01 -0.1048072E-06  0.0000000E+00 -0.1329471E-04
  0.8737374E+00  0.0000000E+00  0.2525252E-01 -0.9732159E-07  0.0000000E+00 -0.1333610E-04
  0.8838384E+00  0.0000000E+00  0.2525252E-01 -0.8974346E-07  0.0000000E+00 -0.1337440E-04
  0.8939394E+00  0.0000000E+00  0.2525252E-01 -0.8209155E-07  0.0000000E+00 -0.1340957E-04
  0.9040404E+00  0.0000000E+00  0.2525252E-01 -0.7438180E-07  0.0000000E+00 -0.1344158E-04
  0.9141414E+00  0.0000000E+00  0.2525252E-01 -0.6662754E-07  0.0000000E+00 -0.1347042E-04
  0.9242424E+00  0.0000000E+00  0.2525252E-01 -0.5883977E-07  0.0000000E+00 -0.1349608E-04
  0.9343435E+00  0.0000000E+00  0.2525252E-01 -0.5102737E-07  0.0000000E+00 -0.1351855E-04
  0.9444444E+00  0.0000000E+00  0.2525252E-01 -0.4319735E-07  0.0000000E+00 -0.1353781E-04
  0.9545454E+00  0.0000000E+00  0.2525252E-01 -0.3535514E-07  0.0000000E+00 -0.1355387E-04
  0.9646465E+00  0.0000000E+00  0.2525252E-01 -0.2750479E-07  0.0000000E+00 -0.1356672E-04
  0.9747475E+00  0.0000000E+00  0.2525252E-01 -0.1964925E-07  0.0000000E+00 -0.1357635E-04
  0.9848485E+00  0.0000000E+00  0.2525252E-01 -0.1179062E-07  0.0000000E+00 -0.1358278E-04
  0.9974747E+00  0.0000000E+00  0.2525252E-01 -0.3930377E-08  0.0000000E+00 -0.1358599E-04
  0.5050505E-02  0.0000000E+00  0.3535353E-01  0.6128007E-08  0.0000000E+00 -0.1335608E-04
  0.1515152E-01  0.0000000E+00  0.3535353E-01  0.1838075E-07  0.0000000E+00 -0.1335242E-04
  0.2525252E-01  0.0000000E+00  0.3535353E-01  0.3062339E-07  0.0000000E+00 -0.1334511E-04
  0.3535353E-01  0.0000000E+00  0.3535353E-01  0.4284828E-07  0.0000000E+00 -0.1333415E-04
  0.4545455E-01  0.0000000E+00  0.3535353E-01  0.5504645E-07  0.0000000E+00 -0.1331954E-04
  0.5555556E-01  0.0000000E+00  0.3535353E-01  0.6720706E-07  0.0000000E+00 -0.1330129E-04
  0.6565657E-01  0.0000000E+00  0.3535353E-01  0.7931685E-07  0.0000000E+00 -0.1327941E-04
  0.7575758E-01  0.0000000E+00  0.3535353E-01  0.9135968E-07  0.0000000E+00 -0.1325391E-04
  0.8585858E-01  0.0000000E+00  0.3535353E-01  0.1033160E-06  0.0000000E+00 -0.1322481E-04
  0.9595960E-01  0.0000000E+00  0.3535353E-01  0.1151623E-06  0.0000000E+00 -0.1319214E-04
  0.1060606E+00  0.0000000E+00  0.3535353E-01  0.1268710E-06  0.0000000E+00 -0.1315593E-04
  0.1161616E+00  0.0000000E+00  0.3535353E-01  0.1384095E-06  0.0000000E+00 -0.1311621E-04
  0.1262626E+00  0.0000000E+00  0.3535353E-01  0.1497403E-06  0.0000000E+00 -0.1307304E-04
  0.1363636E+00  0.0000000E+00  0.3535353E-01  0.1608208E-06  0.0000000E+00 -0.1302648E-04
  0.1464646E+00  0.0000000E+00  0.3535353E-01  0.1716027E-06  0.0000000E+00 -0.1297660E-04
  0.1565657E+00  0.0000000E+00  0.3535353E-01  0.1820322E-06  0.0000000E+00 -0.1292350E-04
  0.1666667E+00  0.0000000E+00  0.3535353E-01  0.1920503E-06  0.0000000E+00 -0.1286727E-04
  0.1767677E+00  0.0000000E+00  0.3535353E-01  0.2015928E-06  0.0000000E+00 -0.1280806E-04
  0.1868687E+00  0.0000000E+00  0.3535353E-01  0.2105905E-06  0.0000000E+00 -0.1274600E-04
  0.1969697E+00  0.0000000E+00  0.3535353E-01  0.2189703E-06  0.0000000E+00 -0.1268127E-04
  0.2070707E+00  0.0000000E+00  0.3535353E-01  0.2266558E-06  0.0000000E+00 -0.1261405E-04
  0.2171717E+00  0.0000000E+00  0.3535353E-01  0.2335682E-06  0.0000000E+00 -0.1254457E-04
  0.2272727E+00  0.0000000E+00  0.3535353E-01  0.2396276E-06  0.0000000E+00 -0.1247306E-04
  0.2373737E+00  0.0000000E+00  0.3535353E-01  0.2447546E-06  0.0000000E+00 -0.1239979E-04
  0.2474747E+00  0.0000000E+00  0.3535353E-01  0.2488716E-06  0.0000000E+00 -0.1232507E-04
  0.2575758E+00  0.0000000E+00  0.3535353E-01  0.2519047E-06  0.0000000E+00 -0.1224919E-04
  0.2676768E+00  0.0000000E+00  0.3535353E-01  0.2537854E-06  0.0000000E+00 -0.1217251E-04
  0.2777778E+00  0.0000000E+00  0.3535353E-01  0.2544524E-06  0.0000000E+00 -0.1209539E-04
  0.2878788E+00  0.0000000E+00  0.3535353E-01  0.2538532E-06  0.0000000E+00 -0.1201821E-04
  0.2979798E+00  0.0000000E+00  0.3535353E-01  0.2519459E-06  0.0000000E+00 -0.1194136E-04