title = "dataset water"
variables = "time", "inflow", "outflow", "change in storage", "physical evaporation" "root water uptake-plant1" "root water uptake-plant2" 
zone t = "mass balance -  variably saturated flow", f=point
  1.0000E-10  8.4896E-02  0.0000E+00  8.4895E-02  0.0000E+00  0.0000E+00  0.0000E+00
  6.0000E-10  8.4896E-02  0.0000E+00  8.4895E-02  0.0000E+00  0.0000E+00  0.0000E+00
  3.1000E-09  8.4896E-02  0.0000E+00  8.4896E-02  0.0000E+00  0.0000E+00  0.0000E+00
  1.5600E-08  8.4896E-02  0.0000E+00  8.4896E-02  0.0000E+00  0.0000E+00  0.0000E+00
  7.8100E-08  8.4894E-02  0.0000E+00  8.4894E-02  0.0000E+00  0.0000E+00  0.0000E+00
  3.9060E-07  8.4886E-02  0.0000E+00  8.4886E-02  0.0000E+00  0.0000E+00  0.0000E+00
  1.9531E-06  8.4846E-02  0.0000E+00  8.4846E-02  0.0000E+00  0.0000E+00  0.0000E+00
  9.7656E-06  8.4649E-02  0.0000E+00  8.4649E-02  0.0000E+00  0.0000E+00  0.0000E+00
  4.8828E-05  8.3681E-02  0.0000E+00  8.3681E-02  0.0000E+00  0.0000E+00  0.0000E+00
  2.4414E-04  7.9232E-02  0.0000E+00  7.9232E-02  0.0000E+00  0.0000E+00  0.0000E+00
  1.2207E-03  6.3666E-02  0.0000E+00  6.3666E-02  0.0000E+00  0.0000E+00  0.0000E+00
  6.1035E-03  3.6883E-02  0.0000E+00  3.6883E-02  0.0000E+00  0.0000E+00  0.0000E+00
  2.3462E-02  1.9126E-02  0.0000E+00  1.9126E-02  0.0000E+00  0.0000E+00  0.0000E+00
  8.7359E-02  9.7635E-03  0.0000E+00  9.7635E-03  0.0000E+00  0.0000E+00  0.0000E+00
  3.0004E-01  5.1593E-03  0.0000E+00  5.1593E-03  0.0000E+00  0.0000E+00  0.0000E+00
  1.0000E+00  2.7774E-03  0.0000E+00  2.7774E-03  0.0000E+00  0.0000E+00  0.0000E+00
  2.0000E+00  0.0000E+00  1.8205E-03 -2.0400E-03  0.0000E+00  0.0000E+00  0.0000E+00
  3.0000E+00  0.0000E+00  5.6410E-04 -5.6410E-04  0.0000E+00  0.0000E+00  0.0000E+00
  4.0000E+00  0.0000E+00  2.9631E-04 -2.9631E-04  0.0000E+00  0.0000E+00  0.0000E+00
  5.0000E+00  0.0000E+00  1.8987E-04 -1.8987E-04  0.0000E+00  0.0000E+00  0.0000E+00
  6.0000E+00  0.0000E+00  1.3500E-04 -1.3500E-04  0.0000E+00  0.0000E+00  0.0000E+00
  7.0000E+00  0.0000E+00  1.0236E-04 -1.0236E-04  0.0000E+00  0.0000E+00  0.0000E+00
  8.0000E+00  0.0000E+00  8.1085E-05 -9.2587E-05  0.0000E+00  5.5526E-06  5.9486E-06
  9.0000E+00  0.0000E+00  6.6305E-05 -8.3163E-05  0.0000E+00  8.3230E-06  8.5349E-06
  1.0000E+01  0.0000E+00  5.5542E-05 -7.7502E-05  0.0000E+00  1.1250E-05  1.0710E-05
  1.1000E+01  0.0000E+00  4.7415E-05 -7.7327E-05  0.0000E+00  1.4821E-05  1.5092E-05
  1.2000E+01  0.0000E+00  4.1098E-05 -8.3031E-05  0.0000E+00  2.2203E-05  1.9730E-05
  1.3000E+01  0.0000E+00  3.6071E-05 -8.6125E-05  0.0000E+00  2.5909E-05  2.4145E-05
  1.4000E+01  0.0000E+00  3.1989E-05 -1.0238E-04  0.0000E+00  3.5590E-05  3.4804E-05
  1.5000E+01  0.0000E+00  2.8616E-05 -1.1876E-04  0.0000E+00  4.3423E-05  4.6723E-05
  1.6000E+01  0.0000E+00  2.5781E-05 -1.2894E-04  0.0000E+00  5.1896E-05  5.1266E-05
  1.7000E+01  0.0000E+00  2.3359E-05 -1.6177E-04  0.0000E+00  6.8410E-05  6.9998E-05
  1.8000E+01  0.0000E+00  2.1251E-05 -2.6343E-04  0.0000E+00  1.3221E-04  1.0998E-04
  1.9000E+01  0.0000E+00  1.9374E-05 -3.1028E-04  0.0000E+00  1.5685E-04  1.3406E-04
  2.0000E+01  0.0000E+00  1.7652E-05 -3.1311E-04  0.0000E+00  1.4592E-04  1.4954E-04
  2.1000E+01  0.0000E+00  1.6012E-05 -4.1344E-04  0.0000E+00  2.0372E-04  1.9371E-04
  2.2000E+01  0.0000E+00  1.4361E-05 -5.8142E-04  0.0000E+00  2.7004E-04  2.9702E-04
  2.3000E+01  0.0000E+00  1.2585E-05 -6.8412E-04  0.0000E+00  3.0399E-04  3.6755E-04
  2.4000E+01  0.0000E+00  1.0576E-05 -6.1519E-04  0.0000E+00  3.5267E-04  2.5194E-04
  2.5000E+01  0.0000E+00  8.1604E-06 -8.9266E-04  0.0000E+00  4.7560E-04  4.0890E-04
  2.6000E+01  0.0000E+00  5.2212E-06 -8.0808E-04  0.0000E+00  5.0808E-04  2.9477E-04
  2.7000E+01  1.3813E-06  2.8256E-06 -1.1219E-03  0.0000E+00  5.7909E-04  5.4138E-04
  2.8000E+01  4.9508E-06  1.3803E-06 -1.2017E-03  0.0000E+00  5.9430E-04  6.1095E-04
  2.9000E+01  1.1220E-05  4.0946E-07 -1.7221E-03  0.0000E+00  9.0094E-04  8.3195E-04
  3.0000E+01  2.0915E-05  1.3431E-08 -1.5047E-03  0.0000E+00  4.7991E-04  1.0457E-03
  3.1000E+01  3.1570E-05  0.0000E+00 -1.4478E-03  0.0000E+00  7.8159E-04  6.9779E-04
  3.2000E+01  4.7076E-05  0.0000E+00 -1.7243E-03  0.0000E+00  9.1734E-04  8.5403E-04
  3.3000E+01  6.6443E-05  0.0000E+00 -2.0027E-03  0.0000E+00  1.1812E-03  8.8791E-04
  3.3500E+01  7.8829E-05  0.0000E+00 -2.1892E-03  0.0000E+00  1.2170E-03  1.0520E-03
  3.4000E+01  8.8975E-05  0.0000E+00 -2.0577E-03  0.0000E+00  1.1549E-03  9.9285E-04
  3.4500E+01  1.0398E-04  0.0000E+00 -2.1886E-03  0.0000E+00  1.1154E-03  1.1788E-03
  3.5000E+01  1.1608E-04  0.0000E+00 -2.0549E-03  0.0000E+00  1.0677E-03  1.1050E-03
  3.5500E+01  1.2818E-04  0.0000E+00 -2.1089E-03  0.0000E+00  1.2434E-03  9.9573E-04
  3.6000E+01  1.4042E-04  0.0000E+00 -1.9828E-03  0.0000E+00  1.1840E-03  9.4133E-04
  3.6250E+01  1.4798E-04  0.0000E+00 -2.3868E-03  0.0000E+00  1.3373E-03  1.1997E-03
  3.6625E+01  1.6011E-04  0.0000E+00 -2.2622E-03  0.0000E+00  1.2869E-03  1.1376E-03
  3.7000E+01  1.7224E-04  0.0000E+00 -2.1465E-03  0.0000E+00  1.2392E-03  1.0819E-03
  3.7250E+01  1.8290E-04  0.0000E+00 -2.3941E-03  0.0000E+00  1.2553E-03  1.3243E-03
  3.7438E+01  1.9046E-04  0.0000E+00 -2.3169E-03  0.0000E+00  1.2298E-03  1.2801E-03
  3.7578E+01  1.9597E-04  0.0000E+00 -2.2618E-03  0.0000E+00  1.2112E-03  1.2492E-03
  3.7789E+01  2.0392E-04  0.0000E+00 -2.1850E-03  0.0000E+00  1.1845E-03  1.2070E-03
  3.8000E+01  2.1158E-04  0.0000E+00 -2.1129E-03  0.0000E+00  1.1589E-03  1.1683E-03
  3.8500E+01  2.2887E-04  0.0000E+00 -1.7824E-03  0.0000E+00  1.1478E-03  8.6573E-04
  3.9000E+01  2.4441E-04  0.0000E+00 -1.6878E-03  0.0000E+00  1.1003E-03  8.3418E-04
  3.9250E+01  2.5653E-04  0.0000E+00 -1.9185E-03  0.0000E+00  1.1834E-03  9.9444E-04
  3.9625E+01  2.7171E-04  0.0000E+00 -1.8285E-03  0.0000E+00  1.1476E-03  9.5543E-04
  4.0000E+01  2.8505E-04  0.0000E+00 -1.7457E-03  0.0000E+00  1.1135E-03  9.2013E-04
  4.0500E+01  3.0948E-04  0.0000E+00 -1.9079E-03  0.0000E+00  1.3052E-03  9.1606E-04
  4.1000E+01  3.2787E-04  0.0000E+00 -1.7859E-03  0.0000E+00  1.2413E-03  8.7637E-04
  4.1250E+01  3.5322E-04  0.0000E+00 -2.3548E-03  0.0000E+00  1.5141E-03  1.2027E-03
  4.2000E+01  3.9500E-04  0.0000E+00 -2.0863E-03  0.0000E+00  1.3944E-03  1.0957E-03
  4.2250E+01  4.1043E-04  0.0000E+00 -2.1744E-03  0.0000E+00  1.4498E-03  1.1448E-03
  4.2625E+01  4.2884E-04  0.0000E+00 -2.0372E-03  0.0000E+00  1.3850E-03  1.0909E-03
  4.2812E+01  4.3722E-04  0.0000E+00 -1.9720E-03  0.0000E+00  1.3538E-03  1.0653E-03
  4.3000E+01  4.4498E-04  0.0000E+00 -1.9102E-03  0.0000E+00  1.3238E-03  1.0413E-03
  4.3250E+01  4.5914E-04  0.0000E+00 -1.8809E-03  0.0000E+00  1.3416E-03  1.0101E-03
  4.4000E+01  4.8731E-04  0.0000E+00 -1.6996E-03  0.0000E+00  1.2541E-03  9.4451E-04
  4.4250E+01  5.0605E-04  0.0000E+00 -1.9313E-03  0.0000E+00  1.3235E-03  1.1278E-03
  4.4438E+01  5.1666E-04  0.0000E+00 -1.8673E-03  0.0000E+00  1.2971E-03  1.1009E-03
  4.4578E+01  5.2364E-04  0.0000E+00 -1.8221E-03  0.0000E+00  1.2778E-03  1.0820E-03
  4.5000E+01  5.4050E-04  0.0000E+00 -1.7035E-03  0.0000E+00  1.2251E-03  1.0331E-03
  4.5250E+01  5.5585E-04  0.0000E+00 -1.8611E-03  0.0000E+00  1.4239E-03  1.0078E-03
  4.5438E+01  5.6458E-04  0.0000E+00 -1.7993E-03  0.0000E+00  1.3893E-03  9.8945E-04
  4.5719E+01  5.7557E-04  0.0000E+00 -1.7149E-03  0.0000E+00  1.3417E-03  9.6355E-04
  4.6000E+01  5.8529E-04  0.0000E+00 -1.6366E-03  0.0000E+00  1.2975E-03  9.3928E-04
  4.6250E+01  6.0855E-04  0.0000E+00 -1.9393E-03  0.0000E+00  1.4517E-03  1.1145E-03
  4.6438E+01  6.2062E-04  0.0000E+00 -1.8685E-03  0.0000E+00  1.4191E-03  1.0884E-03
  4.6578E+01  6.2838E-04  0.0000E+00 -1.8188E-03  0.0000E+00  1.3954E-03  1.0701E-03
  4.7000E+01  6.4645E-04  0.0000E+00 -1.6895E-03  0.0000E+00  1.3313E-03  1.0232E-03
  4.7250E+01  6.5839E-04  0.0000E+00 -1.6728E-03  0.0000E+00  1.2966E-03  1.0534E-03
  4.7438E+01  6.6610E-04  0.0000E+00 -1.6185E-03  0.0000E+00  1.2699E-03  1.0335E-03
  4.8000E+01  6.8400E-04  0.0000E+00 -1.4800E-03  0.0000E+00  1.1998E-03  9.8317E-04
  4.8250E+01  7.0489E-04  0.0000E+00 -1.7902E-03  0.0000E+00  1.4229E-03  1.0955E-03
  4.8438E+01  7.1662E-04  0.0000E+00 -1.7263E-03  0.0000E+00  1.3920E-03  1.0743E-03
  4.8719E+01  7.3030E-04  0.0000E+00 -1.6408E-03  0.0000E+00  1.3491E-03  1.0455E-03
  4.8859E+01  7.3644E-04  0.0000E+00 -1.6000E-03  0.0000E+00  1.3283E-03  1.0317E-03
  4.9000E+01  7.4203E-04  0.0000E+00 -1.5611E-03  0.0000E+00  1.3082E-03  1.0184E-03
  4.9125E+01  7.5043E-04  0.0000E+00 -1.6003E-03  0.0000E+00  1.2674E-03  1.1082E-03
  4.9562E+01  7.6885E-04  0.0000E+00 -1.4845E-03  0.0000E+00  1.2144E-03  1.0638E-03
  5.0000E+01  7.8293E-04  0.0000E+00 -1.3839E-03  0.0000E+00  1.1663E-03  1.0254E-03
  5.0500E+01  8.2112E-04  0.0000E+00 -1.7125E-03  0.0000E+00  1.5717E-03  9.8999E-04
  5.0750E+01  8.3426E-04  0.0000E+00 -1.6290E-03  0.0000E+00  1.5210E-03  9.7035E-04
  5.1000E+01  8.4483E-04  0.0000E+00 -1.5537E-03  0.0000E+00  1.4747E-03  9.5194E-04
  5.1250E+01  8.6417E-04  0.0000E+00 -1.5924E-03  0.0000E+00  1.3976E-03  1.0887E-03
  5.1438E+01  8.7461E-04  0.0000E+00 -1.5360E-03  0.0000E+00  1.3707E-03  1.0698E-03
  5.1719E+01  8.8648E-04  0.0000E+00 -1.4610E-03  0.0000E+00  1.3328E-03  1.0445E-03
  5.2000E+01  8.9621E-04  0.0000E+00 -1.3929E-03  0.0000E+00  1.2974E-03  1.0216E-03
  5.2250E+01  9.0981E-04  0.0000E+00 -1.3403E-03  0.0000E+00  1.2330E-03  1.0466E-03
  5.2625E+01  9.2108E-04  0.0000E+00 -1.2659E-03  0.0000E+00  1.1949E-03  1.0217E-03
  5.3000E+01  9.2998E-04  0.0000E+00 -1.1991E-03  0.0000E+00  1.1597E-03  9.9900E-04
  5.3500E+01  9.4281E-04  0.0000E+00 -1.2840E-03  0.0000E+00  1.4122E-03  8.4319E-04
  5.4000E+01  9.5437E-04  0.0000E+00 -1.1943E-03  0.0000E+00  1.3524E-03  8.2492E-04
  5.4250E+01  9.9718E-04  0.0000E+00 -1.5283E-03  0.0000E+00  1.3989E-03  1.1641E-03
  5.4438E+01  1.0150E-03  0.0000E+00 -1.4615E-03  0.0000E+00  1.3711E-03  1.1430E-03
  5.4719E+01  1.0321E-03  0.0000E+00 -1.3794E-03  0.0000E+00  1.3332E-03  1.1159E-03
  5.5000E+01  1.0447E-03  0.0000E+00 -1.3078E-03  0.0000E+00  1.2984E-03  1.0919E-03
  5.5500E+01  1.0775E-03  0.0000E+00 -1.3938E-03  0.0000E+00  1.4505E-03  1.0630E-03
  5.6000E+01  1.0975E-03  0.0000E+00 -1.2793E-03  0.0000E+00  1.3879E-03  1.0311E-03
  5.6250E+01  1.1124E-03  0.0000E+00 -1.2665E-03  0.0000E+00  1.3469E-03  1.0755E-03
  5.6438E+01  1.1202E-03  0.0000E+00 -1.2248E-03  0.0000E+00  1.3259E-03  1.0627E-03
  5.6719E+01  1.1290E-03  0.0000E+00 -1.1692E-03  0.0000E+00  1.2965E-03  1.0452E-03
  5.7000E+01  1.1363E-03  0.0000E+00 -1.1185E-03  0.0000E+00  1.2691E-03  1.0292E-03
  5.7250E+01  1.1662E-03  0.0000E+00 -1.3893E-03  0.0000E+00  1.5425E-03  1.0588E-03
  5.7438E+01  1.1798E-03  0.0000E+00 -1.3364E-03  0.0000E+00  1.5151E-03  1.0469E-03
  5.7719E+01  1.1935E-03  0.0000E+00 -1.2687E-03  0.0000E+00  1.4776E-03  1.0304E-03
  5.8000E+01  1.2038E-03  0.0000E+00 -1.2083E-03  0.0000E+00  1.4429E-03  1.0151E-03
  5.8250E+01  1.2270E-03  0.0000E+00 -1.3273E-03  0.0000E+00  1.5583E-03  1.0444E-03
  5.8625E+01  1.2454E-03  0.0000E+00 -1.2343E-03  0.0000E+00  1.5060E-03  1.0221E-03
  5.9000E+01  1.2581E-03  0.0000E+00 -1.1549E-03  0.0000E+00  1.4593E-03  1.0022E-03
  5.9250E+01  1.2993E-03  0.0000E+00 -1.3261E-03  0.0000E+00  1.4104E-03  1.2697E-03
  5.9625E+01  1.3252E-03  0.0000E+00 -1.2234E-03  0.0000E+00  1.3676E-03  1.2357E-03
  6.0000E+01  1.3415E-03  0.0000E+00 -1.1393E-03  0.0000E+00  1.3287E-03  1.2069E-03
