title = "dataset water"
variables = "x", "y", "z", "vx", "vy", "vz"
zone t = "velocities, solution time =  5.700E+01 days        " i =   99, j =   99, k =    1,  f=point
  0.5050505E-02  0.0000000E+00  0.5050505E-02  0.2737500E-06  0.0000000E+00  0.3396156E-03
  0.1515152E-01  0.0000000E+00  0.5050505E-02  0.8232172E-06  0.0000000E+00  0.3407622E-03
  0.2525252E-01  0.0000000E+00  0.5050505E-02  0.1378734E-05  0.0000000E+00  0.3430641E-03
  0.3535353E-01  0.0000000E+00  0.5050505E-02  0.1944672E-05  0.0000000E+00  0.3465393E-03
  0.4545455E-01  0.0000000E+00  0.5050505E-02  0.2525841E-05  0.0000000E+00  0.3512161E-03
  0.5555556E-01  0.0000000E+00  0.5050505E-02  0.3127659E-05  0.0000000E+00  0.3571337E-03
  0.6565657E-01  0.0000000E+00  0.5050505E-02  0.3756372E-05  0.0000000E+00  0.3643445E-03
  0.7575758E-01  0.0000000E+00  0.5050505E-02  0.4419340E-05  0.0000000E+00  0.3729157E-03
  0.8585858E-01  0.0000000E+00  0.5050505E-02  0.5125425E-05  0.0000000E+00  0.3829327E-03
  0.9595960E-01  0.0000000E+00  0.5050505E-02  0.5885567E-05  0.0000000E+00  0.3945024E-03
  0.1060606E+00  0.0000000E+00  0.5050505E-02  0.6713670E-05  0.0000000E+00  0.4077595E-03
  0.1161616E+00  0.0000000E+00  0.5050505E-02  0.7628025E-05  0.0000000E+00  0.4228742E-03
  0.1262626E+00  0.0000000E+00  0.5050505E-02  0.8653662E-05  0.0000000E+00  0.4400649E-03
  0.1363636E+00  0.0000000E+00  0.5050505E-02  0.9826224E-05  0.0000000E+00  0.4596170E-03
  0.1464646E+00  0.0000000E+00  0.5050505E-02  0.1119830E-04  0.0000000E+00  0.4819141E-03
  0.1565657E+00  0.0000000E+00  0.5050505E-02  0.1284918E-04  0.0000000E+00  0.5074859E-03
  0.1666667E+00  0.0000000E+00  0.5050505E-02  0.1489692E-04  0.0000000E+00  0.5370822E-03
  0.1767677E+00  0.0000000E+00  0.5050505E-02  0.1749771E-04  0.0000000E+00  0.5717610E-03
  0.1868687E+00  0.0000000E+00  0.5050505E-02  0.2074161E-04  0.0000000E+00  0.6128685E-03
  0.1969697E+00  0.0000000E+00  0.5050505E-02  0.2396830E-04  0.0000000E+00  0.6611688E-03
  0.2070707E+00  0.0000000E+00  0.5050505E-02  0.2207987E-04  0.0000000E+00  0.7111866E-03
  0.2171717E+00  0.0000000E+00  0.5050505E-02  0.2087465E-04  0.0000000E+00  0.7581249E-03
  0.2272727E+00  0.0000000E+00  0.5050505E-02  0.2171047E-04  0.0000000E+00  0.8049262E-03
  0.2373737E+00  0.0000000E+00  0.5050505E-02  0.2360922E-04  0.0000000E+00  0.8550135E-03
  0.2474747E+00  0.0000000E+00  0.5050505E-02  0.2627368E-04  0.0000000E+00  0.9104747E-03
  0.2575758E+00  0.0000000E+00  0.5050505E-02  0.2936911E-04  0.0000000E+00  0.9727484E-03
  0.2676768E+00  0.0000000E+00  0.5050505E-02  0.3388825E-04  0.0000000E+00  0.1044072E-02
  0.2777778E+00  0.0000000E+00  0.5050505E-02  0.4215530E-04  0.0000000E+00  0.1130553E-02
  0.2878788E+00  0.0000000E+00  0.5050505E-02  0.5928581E-04  0.0000000E+00  0.1247147E-02
  0.2979798E+00  0.0000000E+00  0.5050505E-02  0.2610807E-04  0.0000000E+00  0.1346240E-02
  0.3080808E+00  0.0000000E+00  0.5050505E-02  0.3792542E-04  0.0000000E+00  0.1421690E-02
  0.3181818E+00  0.0000000E+00  0.5050505E-02  0.4214937E-04  0.0000000E+00  0.1516832E-02
  0.3282828E+00  0.0000000E+00  0.5050505E-02  0.3053449E-04  0.0000000E+00  0.1604043E-02
  0.3383838E+00  0.0000000E+00  0.5050505E-02  0.2900060E-04  0.0000000E+00  0.1676256E-02
  0.3484848E+00  0.0000000E+00  0.5050505E-02  0.2875503E-04  0.0000000E+00  0.1746900E-02
  0.3585859E+00  0.0000000E+00  0.5050505E-02  0.4252120E-04  0.0000000E+00  0.1834860E-02
  0.3686869E+00  0.0000000E+00  0.5050505E-02  0.4640164E-04  0.0000000E+00  0.1945646E-02
  0.3787879E+00  0.0000000E+00  0.5050505E-02  0.6679362E-04  0.0000000E+00  0.2088591E-02
  0.3888889E+00  0.0000000E+00  0.5050505E-02  0.1306718E-03  0.0000000E+00  0.2342505E-02
  0.3989899E+00  0.0000000E+00  0.5050505E-02 -0.9857729E-04  0.0000000E+00  0.2382879E-02
  0.4090909E+00  0.0000000E+00  0.5050505E-02 -0.3793617E-04  0.0000000E+00  0.2205143E-02
  0.4191919E+00  0.0000000E+00  0.5050505E-02 -0.2164525E-04  0.0000000E+00  0.2128359E-02
  0.4292929E+00  0.0000000E+00  0.5050505E-02 -0.9336383E-05  0.0000000E+00  0.2088623E-02
  0.4393939E+00  0.0000000E+00  0.5050505E-02 -0.1073278E-04  0.0000000E+00  0.2062974E-02
  0.4494950E+00  0.0000000E+00  0.5050505E-02 -0.1459645E-04  0.0000000E+00  0.2030727E-02
  0.4595959E+00  0.0000000E+00  0.5050505E-02 -0.5133283E-04  0.0000000E+00  0.1947886E-02
  0.4696970E+00  0.0000000E+00  0.5050505E-02 -0.1470354E-04  0.0000000E+00  0.1865255E-02
  0.4797980E+00  0.0000000E+00  0.5050505E-02  0.6757637E-05  0.0000000E+00  0.1855344E-02
  0.4898990E+00  0.0000000E+00  0.5050505E-02  0.2876723E-04  0.0000000E+00  0.1899721E-02
  0.5000000E+00  0.0000000E+00  0.5050505E-02  0.6695580E-04  0.0000000E+00  0.2020026E-02
  0.5101010E+00  0.0000000E+00  0.5050505E-02  0.2750141E-04  0.0000000E+00  0.2139698E-02
  0.5202020E+00  0.0000000E+00  0.5050505E-02  0.8803685E-04  0.0000000E+00  0.2288968E-02
  0.5303030E+00  0.0000000E+00  0.5050505E-02  0.8594296E-04  0.0000000E+00  0.2517041E-02
  0.5404040E+00  0.0000000E+00  0.5050505E-02  0.1022086E-03  0.0000000E+00  0.2770357E-02
  0.5505050E+00  0.0000000E+00  0.5050505E-02  0.9696545E-04  0.0000000E+00  0.3045715E-02
  0.5606061E+00  0.0000000E+00  0.5050505E-02 -0.1144814E-03  0.0000000E+00  0.3021953E-02
  0.5707071E+00  0.0000000E+00  0.5050505E-02 -0.7406711E-04  0.0000000E+00  0.2760840E-02
  0.5808081E+00  0.0000000E+00  0.5050505E-02 -0.1758430E-04  0.0000000E+00  0.2635754E-02
  0.5909091E+00  0.0000000E+00  0.5050505E-02 -0.4819326E-04  0.0000000E+00  0.2547293E-02
  0.6010101E+00  0.0000000E+00  0.5050505E-02 -0.4050805E-04  0.0000000E+00  0.2429106E-02
  0.6111111E+00  0.0000000E+00  0.5050505E-02 -0.6671161E-04  0.0000000E+00  0.2288866E-02
  0.6212121E+00  0.0000000E+00  0.5050505E-02 -0.5807061E-04  0.0000000E+00  0.2128103E-02
  0.6313131E+00  0.0000000E+00  0.5050505E-02 -0.1000804E-03  0.0000000E+00  0.1929718E-02
  0.6414142E+00  0.0000000E+00  0.5050505E-02 -0.6499371E-04  0.0000000E+00  0.1726249E-02
  0.6515151E+00  0.0000000E+00  0.5050505E-02 -0.5004736E-04  0.0000000E+00  0.1586844E-02
  0.6616161E+00  0.0000000E+00  0.5050505E-02 -0.4165089E-04  0.0000000E+00  0.1477162E-02
  0.6717172E+00  0.0000000E+00  0.5050505E-02 -0.5150090E-04  0.0000000E+00  0.1367287E-02
  0.6818182E+00  0.0000000E+00  0.5050505E-02 -0.4189963E-04  0.0000000E+00  0.1258362E-02
  0.6919192E+00  0.0000000E+00  0.5050505E-02 -0.3311354E-04  0.0000000E+00  0.1171764E-02
  0.7020202E+00  0.0000000E+00  0.5050505E-02 -0.4713680E-04  0.0000000E+00  0.1080256E-02
  0.7121212E+00  0.0000000E+00  0.5050505E-02 -0.3748710E-04  0.0000000E+00  0.9846791E-03
  0.7222222E+00  0.0000000E+00  0.5050505E-02 -0.3276363E-04  0.0000000E+00  0.9060895E-03
  0.7323232E+00  0.0000000E+00  0.5050505E-02 -0.2988370E-04  0.0000000E+00  0.8365871E-03
  0.7424242E+00  0.0000000E+00  0.5050505E-02 -0.2775203E-04  0.0000000E+00  0.7731269E-03
  0.7525253E+00  0.0000000E+00  0.5050505E-02 -0.2595761E-04  0.0000000E+00  0.7144021E-03
  0.7626263E+00  0.0000000E+00  0.5050505E-02 -0.2403877E-04  0.0000000E+00  0.6600894E-03
  0.7727273E+00  0.0000000E+00  0.5050505E-02 -0.2186061E-04  0.0000000E+00  0.6105209E-03
  0.7828283E+00  0.0000000E+00  0.5050505E-02 -0.1959232E-04  0.0000000E+00  0.5659919E-03
  0.7929293E+00  0.0000000E+00  0.5050505E-02 -0.1741716E-04  0.0000000E+00  0.5264243E-03
  0.8030303E+00  0.0000000E+00  0.5050505E-02 -0.1543690E-04  0.0000000E+00  0.4914469E-03
  0.8131313E+00  0.0000000E+00  0.5050505E-02 -0.1368267E-04  0.0000000E+00  0.4605606E-03
  0.8232324E+00  0.0000000E+00  0.5050505E-02 -0.1214598E-04  0.0000000E+00  0.4332550E-03
  0.8333333E+00  0.0000000E+00  0.5050505E-02 -0.1080176E-04  0.0000000E+00  0.4090659E-03
  0.8434343E+00  0.0000000E+00  0.5050505E-02 -0.9621003E-05  0.0000000E+00  0.3875943E-03
  0.8535354E+00  0.0000000E+00  0.5050505E-02 -0.8576473E-05  0.0000000E+00  0.3685063E-03
  0.8636364E+00  0.0000000E+00  0.5050505E-02 -0.7644677E-05  0.0000000E+00  0.3515263E-03
  0.8737374E+00  0.0000000E+00  0.5050505E-02 -0.6806114E-05  0.0000000E+00  0.3364272E-03
  0.8838384E+00  0.0000000E+00  0.5050505E-02 -0.6044851E-05  0.0000000E+00  0.3230214E-03
  0.8939394E+00  0.0000000E+00  0.5050505E-02 -0.5347904E-05  0.0000000E+00  0.3111539E-03
  0.9040404E+00  0.0000000E+00  0.5050505E-02 -0.4704634E-05  0.0000000E+00  0.3006958E-03
  0.9141414E+00  0.0000000E+00  0.5050505E-02 -0.4106228E-05  0.0000000E+00  0.2915396E-03
  0.9242424E+00  0.0000000E+00  0.5050505E-02 -0.3545281E-05  0.0000000E+00  0.2835958E-03
  0.9343435E+00  0.0000000E+00  0.5050505E-02 -0.3015472E-05  0.0000000E+00  0.2767901E-03
  0.9444444E+00  0.0000000E+00  0.5050505E-02 -0.2511308E-05  0.0000000E+00  0.2710610E-03
  0.9545454E+00  0.0000000E+00  0.5050505E-02 -0.2027927E-05  0.0000000E+00  0.2663582E-03
  0.9646465E+00  0.0000000E+00  0.5050505E-02 -0.1560953E-05  0.0000000E+00  0.2626417E-03
  0.9747475E+00  0.0000000E+00  0.5050505E-02 -0.1106371E-05  0.0000000E+00  0.2598805E-03
  0.9848485E+00  0.0000000E+00  0.5050505E-02 -0.6604338E-06  0.0000000E+00  0.2580519E-03
  0.9974747E+00  0.0000000E+00  0.5050505E-02 -0.2195874E-06  0.0000000E+00  0.2571412E-03
  0.5050505E-02  0.0000000E+00  0.1515152E-01  0.8184223E-06  0.0000000E+00  0.3389062E-03
  0.1515152E-01  0.0000000E+00  0.1515152E-01  0.2461129E-05  0.0000000E+00  0.3400458E-03
  0.2525252E-01  0.0000000E+00  0.1515152E-01  0.4121817E-05  0.0000000E+00  0.3423335E-03
  0.3535353E-01  0.0000000E+00  0.1515152E-01  0.5813440E-05  0.0000000E+00  0.3457864E-03
  0.4545455E-01  0.0000000E+00  0.1515152E-01  0.7550228E-05  0.0000000E+00  0.3504317E-03
  0.5555556E-01  0.0000000E+00  0.1515152E-01  0.9348203E-05  0.0000000E+00  0.3563073E-03
  0.6565657E-01  0.0000000E+00  0.1515152E-01  0.1122581E-04  0.0000000E+00  0.3634635E-03
  0.7575758E-01  0.0000000E+00  0.1515152E-01  0.1320474E-04  0.0000000E+00  0.3719651E-03
  0.8585858E-01  0.0000000E+00  0.1515152E-01  0.1531101E-04  0.0000000E+00  0.3818937E-03
  0.9595960E-01  0.0000000E+00  0.1515152E-01  0.1757658E-04  0.0000000E+00  0.3933512E-03
  0.1060606E+00  0.0000000E+00  0.1515152E-01  0.2004177E-04  0.0000000E+00  0.4064648E-03
  0.1161616E+00  0.0000000E+00  0.1515152E-01  0.2275926E-04  0.0000000E+00  0.4213938E-03
  0.1262626E+00  0.0000000E+00  0.1515152E-01  0.2580046E-04  0.0000000E+00  0.4383390E-03
  0.1363636E+00  0.0000000E+00  0.1515152E-01  0.2926639E-04  0.0000000E+00  0.4575582E-03
  0.1464646E+00  0.0000000E+00  0.1515152E-01  0.3330582E-04  0.0000000E+00  0.4793912E-03
  0.1565657E+00  0.0000000E+00  0.1515152E-01  0.3814565E-04  0.0000000E+00  0.5043022E-03
  0.1666667E+00  0.0000000E+00  0.1515152E-01  0.4414154E-04  0.0000000E+00  0.5329640E-03
  0.1767677E+00  0.0000000E+00  0.1515152E-01  0.5186078E-04  0.0000000E+00  0.5664623E-03
  0.1868687E+00  0.0000000E+00  0.1515152E-01  0.6221077E-04  0.0000000E+00  0.6069600E-03
  0.1969697E+00  0.0000000E+00  0.1515152E-01  0.7660741E-04  0.0000000E+00  0.6604091E-03
  0.2070707E+00  0.0000000E+00  0.1515152E-01  0.6551778E-04  0.0000000E+00  0.7148744E-03
  0.2171717E+00  0.0000000E+00  0.1515152E-01  0.6064861E-04  0.0000000E+00  0.7591024E-03
  0.2272727E+00  0.0000000E+00  0.1515152E-01  0.6404271E-04  0.0000000E+00  0.8028119E-03
  0.2373737E+00  0.0000000E+00  0.1515152E-01  0.6999281E-04  0.0000000E+00  0.8510808E-03
  0.2474747E+00  0.0000000E+00  0.1515152E-01  0.7826330E-04  0.0000000E+00  0.9053534E-03
  0.2575758E+00  0.0000000E+00  0.1515152E-01  0.8662982E-04  0.0000000E+00  0.9657782E-03
  0.2676768E+00  0.0000000E+00  0.1515152E-01  0.9810162E-04  0.0000000E+00  0.1031933E-02
  0.2777778E+00  0.0000000E+00  0.1515152E-01  0.1184206E-03  0.0000000E+00  0.1105804E-02
  0.2878788E+00  0.0000000E+00  0.1515152E-01  0.1481768E-03  0.0000000E+00  0.1179636E-02
  0.2979798E+00  0.0000000E+00  0.1515152E-01  0.1116704E-03  0.0000000E+00  0.1284040E-02
  0.3080808E+00  0.0000000E+00  0.1515152E-01  0.9821911E-04  0.0000000E+00  0.1380980E-02
  0.3181818E+00  0.0000000E+00  0.1515152E-01  0.1179985E-03  0.0000000E+00  0.1449018E-02
  0.3282828E+00  0.0000000E+00  0.1515152E-01  0.1243180E-03  0.0000000E+00  0.1567285E-02
  0.3383838E+00  0.0000000E+00  0.1515152E-01  0.8495402E-04  0.0000000E+00  0.1678647E-02
  0.3484848E+00  0.0000000E+00  0.1515152E-01  0.7399581E-04  0.0000000E+00  0.1733980E-02
  0.3585859E+00  0.0000000E+00  0.1515152E-01  0.1016105E-03  0.0000000E+00  0.1777074E-02
  0.3686869E+00  0.0000000E+00  0.1515152E-01  0.1247040E-03  0.0000000E+00  0.1840341E-02
  0.3787879E+00  0.0000000E+00  0.1515152E-01  0.1967654E-03  0.0000000E+00  0.1964023E-02
  0.3888889E+00  0.0000000E+00  0.1515152E-01  0.3483335E-03  0.0000000E+00  0.2161497E-02
  0.3989899E+00  0.0000000E+00  0.1515152E-01 -0.2688600E-03  0.0000000E+00  0.2180305E-02
  0.4090909E+00  0.0000000E+00  0.1515152E-01 -0.1183160E-03  0.0000000E+00  0.2027405E-02
  0.4191919E+00  0.0000000E+00  0.1515152E-01 -0.4150171E-04  0.0000000E+00  0.1972644E-02
  0.4292929E+00  0.0000000E+00  0.1515152E-01 -0.5074934E-04  0.0000000E+00  0.1932421E-02
  0.4393939E+00  0.0000000E+00  0.1515152E-01 -0.2995035E-04  0.0000000E+00  0.1879247E-02
  0.4494950E+00  0.0000000E+00  0.1515152E-01 -0.4208605E-04  0.0000000E+00  0.1851024E-02
  0.4595959E+00  0.0000000E+00  0.1515152E-01 -0.1108195E-03  0.0000000E+00  0.1822509E-02
  0.4696970E+00  0.0000000E+00  0.1515152E-01 -0.3159768E-04  0.0000000E+00  0.1807785E-02
  0.4797980E+00  0.0000000E+00  0.1515152E-01  0.1954740E-04  0.0000000E+00  0.1812508E-02
  0.4898990E+00  0.0000000E+00  0.1515152E-01  0.7248929E-04  0.0000000E+00  0.1840176E-02
  0.5000000E+00  0.0000000E+00  0.1515152E-01  0.1596345E-03  0.0000000E+00  0.1894273E-02
  0.5101010E+00  0.0000000E+00  0.1515152E-01  0.1029317E-03  0.0000000E+00  0.1991623E-02
  0.5202020E+00  0.0000000E+00  0.1515152E-01  0.2300995E-03  0.0000000E+00  0.2127533E-02
  0.5303030E+00  0.0000000E+00  0.1515152E-01  0.2259900E-03  0.0000000E+00  0.2275522E-02
  0.5404040E+00  0.0000000E+00  0.1515152E-01  0.2216770E-03  0.0000000E+00  0.2378309E-02
  0.5505050E+00  0.0000000E+00  0.1515152E-01  0.2355566E-03  0.0000000E+00  0.2467759E-02
  0.5606061E+00  0.0000000E+00  0.1515152E-01 -0.2806778E-03  0.0000000E+00  0.2454020E-02
  0.5707071E+00  0.0000000E+00  0.1515152E-01 -0.1950292E-03  0.0000000E+00  0.2312242E-02
  0.5808081E+00  0.0000000E+00  0.1515152E-01 -0.4701988E-04  0.0000000E+00  0.2229073E-02
  0.5909091E+00  0.0000000E+00  0.1515152E-01 -0.1187486E-03  0.0000000E+00  0.2180479E-02
  0.6010101E+00  0.0000000E+00  0.1515152E-01 -0.1138528E-03  0.0000000E+00  0.2103994E-02
  0.6111111E+00  0.0000000E+00  0.1515152E-01 -0.1131838E-03  0.0000000E+00  0.2083657E-02
  0.6212121E+00  0.0000000E+00  0.1515152E-01 -0.2103378E-03  0.0000000E+00  0.1986482E-02
  0.6313131E+00  0.0000000E+00  0.1515152E-01 -0.2506119E-03  0.0000000E+00  0.1800502E-02
  0.6414142E+00  0.0000000E+00  0.1515152E-01 -0.1772512E-03  0.0000000E+00  0.1677061E-02
  0.6515151E+00  0.0000000E+00  0.1515152E-01 -0.1437020E-03  0.0000000E+00  0.1564342E-02
  0.6616161E+00  0.0000000E+00  0.1515152E-01 -0.1087725E-03  0.0000000E+00  0.1479453E-02
  0.6717172E+00  0.0000000E+00  0.1515152E-01 -0.1705282E-03  0.0000000E+00  0.1368368E-02
  0.6818182E+00  0.0000000E+00  0.1515152E-01 -0.1245601E-03  0.0000000E+00  0.1240799E-02
  0.6919192E+00  0.0000000E+00  0.1515152E-01 -0.1062898E-03  0.0000000E+00  0.1146726E-02
  0.7020202E+00  0.0000000E+00  0.1515152E-01 -0.1347078E-03  0.0000000E+00  0.1054341E-02
  0.7121212E+00  0.0000000E+00  0.1515152E-01 -0.1078999E-03  0.0000000E+00  0.9710914E-03
  0.7222222E+00  0.0000000E+00  0.1515152E-01 -0.9649353E-04  0.0000000E+00  0.8992513E-03
  0.7323232E+00  0.0000000E+00  0.1515152E-01 -0.8886624E-04  0.0000000E+00  0.8323171E-03
  0.7424242E+00  0.0000000E+00  0.1515152E-01 -0.8287035E-04  0.0000000E+00  0.7699159E-03
  0.7525253E+00  0.0000000E+00  0.1515152E-01 -0.7793490E-04  0.0000000E+00  0.7113753E-03
  0.7626263E+00  0.0000000E+00  0.1515152E-01 -0.7232259E-04  0.0000000E+00  0.6566488E-03
  0.7727273E+00  0.0000000E+00  0.1515152E-01 -0.6564240E-04  0.0000000E+00  0.6067001E-03
  0.7828283E+00  0.0000000E+00  0.1515152E-01 -0.5867151E-04  0.0000000E+00  0.5621434E-03
  0.7929293E+00  0.0000000E+00  0.1515152E-01 -0.5205234E-04  0.0000000E+00  0.5228337E-03
  0.8030303E+00  0.0000000E+00  0.1515152E-01 -0.4608274E-04  0.0000000E+00  0.4882481E-03
  0.8131313E+00  0.0000000E+00  0.1515152E-01 -0.4082830E-04  0.0000000E+00  0.4577774E-03
  0.8232324E+00  0.0000000E+00  0.1515152E-01 -0.3624223E-04  0.0000000E+00  0.4308554E-03
  0.8333333E+00  0.0000000E+00  0.1515152E-01 -0.3223746E-04  0.0000000E+00  0.4069974E-03
  0.8434343E+00  0.0000000E+00  0.1515152E-01 -0.2872156E-04  0.0000000E+00  0.3858022E-03
  0.8535354E+00  0.0000000E+00  0.1515152E-01 -0.2561089E-04  0.0000000E+00  0.3669417E-03
  0.8636364E+00  0.0000000E+00  0.1515152E-01 -0.2283467E-04  0.0000000E+00  0.3501479E-03
  0.8737374E+00  0.0000000E+00  0.1515152E-01 -0.2033479E-04  0.0000000E+00  0.3352012E-03
  0.8838384E+00  0.0000000E+00  0.1515152E-01 -0.1806402E-04  0.0000000E+00  0.3219206E-03
  0.8939394E+00  0.0000000E+00  0.1515152E-01 -0.1598397E-04  0.0000000E+00  0.3101563E-03
  0.9040404E+00  0.0000000E+00  0.1515152E-01 -0.1406322E-04  0.0000000E+00  0.2997834E-03
  0.9141414E+00  0.0000000E+00  0.1515152E-01 -0.1227574E-04  0.0000000E+00  0.2906978E-03
  0.9242424E+00  0.0000000E+00  0.1515152E-01 -0.1059962E-04  0.0000000E+00  0.2828124E-03
  0.9343435E+00  0.0000000E+00  0.1515152E-01 -0.9016149E-05  0.0000000E+00  0.2760546E-03
  0.9444444E+00  0.0000000E+00  0.1515152E-01 -0.7509040E-05  0.0000000E+00  0.2703644E-03
  0.9545454E+00  0.0000000E+00  0.1515152E-01 -0.6063863E-05  0.0000000E+00  0.2656927E-03
  0.9646465E+00  0.0000000E+00  0.1515152E-01 -0.4667606E-05  0.0000000E+00  0.2620001E-03
  0.9747475E+00  0.0000000E+00  0.1515152E-01 -0.3308325E-05  0.0000000E+00  0.2592563E-03
  0.9848485E+00  0.0000000E+00  0.1515152E-01 -0.1974860E-05  0.0000000E+00  0.2574390E-03
  0.9974747E+00  0.0000000E+00  0.1515152E-01 -0.6566175E-06  0.0000000E+00  0.2565339E-03
  0.5050505E-02  0.0000000E+00  0.2525252E-01  0.1355914E-05  0.0000000E+00  0.3375147E-03
  0.1515152E-01  0.0000000E+00  0.2525252E-01  0.4077335E-05  0.0000000E+00  0.3386409E-03
  0.2525252E-01  0.0000000E+00  0.2525252E-01  0.6828102E-05  0.0000000E+00  0.3409007E-03
  0.3535353E-01  0.0000000E+00  0.2525252E-01  0.9629283E-05  0.0000000E+00  0.3443101E-03
  0.4545455E-01  0.0000000E+00  0.2525252E-01  0.1250399E-04  0.0000000E+00  0.3488941E-03
  0.5555556E-01  0.0000000E+00  0.2525252E-01  0.1547819E-04  0.0000000E+00  0.3546880E-03
  0.6565657E-01  0.0000000E+00  0.2525252E-01  0.1858174E-04  0.0000000E+00  0.3617383E-03
  0.7575758E-01  0.0000000E+00  0.2525252E-01  0.2184956E-04  0.0000000E+00  0.3701047E-03
  0.8585858E-01  0.0000000E+00  0.2525252E-01  0.2532327E-04  0.0000000E+00  0.3798621E-03
  0.9595960E-01  0.0000000E+00  0.2525252E-01  0.2905350E-04  0.0000000E+00  0.3911033E-03
  0.1060606E+00  0.0000000E+00  0.2525252E-01  0.3310328E-04  0.0000000E+00  0.4039421E-03
  0.1161616E+00  0.0000000E+00  0.2525252E-01  0.3755354E-04  0.0000000E+00  0.4185174E-03
  0.1262626E+00  0.0000000E+00  0.2525252E-01  0.4251197E-04  0.0000000E+00  0.4349992E-03
  0.1363636E+00  0.0000000E+00  0.2525252E-01  0.4812808E-04  0.0000000E+00  0.4535953E-03
  0.1464646E+00  0.0000000E+00  0.2525252E-01  0.5461866E-04  0.0000000E+00  0.4745632E-03
  0.1565657E+00  0.0000000E+00  0.2525252E-01  0.6231177E-04  0.0000000E+00  0.4982255E-03
  0.1666667E+00  0.0000000E+00  0.2525252E-01  0.7172531E-04  0.0000000E+00  0.5249911E-03
  0.1767677E+00  0.0000000E+00  0.2525252E-01  0.8372232E-04  0.0000000E+00  0.5553661E-03
  0.1868687E+00  0.0000000E+00  0.2525252E-01  0.9987952E-04  0.0000000E+00  0.5898482E-03
  0.1969697E+00  0.0000000E+00  0.2525252E-01  0.1235831E-03  0.0000000E+00  0.6280591E-03
  0.2070707E+00  0.0000000E+00  0.2525252E-01  0.1323720E-03  0.0000000E+00  0.6973951E-03
  0.2171717E+00  0.0000000E+00  0.2525252E-01  0.9265485E-04  0.0000000E+00  0.7614791E-03
  0.2272727E+00  0.0000000E+00  0.2525252E-01  0.1038186E-03  0.0000000E+00  0.7975017E-03
  0.2373737E+00  0.0000000E+00  0.2525252E-01  0.1140079E-03  0.0000000E+00  0.8427481E-03
  0.2474747E+00  0.0000000E+00  0.2525252E-01  0.1298430E-03  0.0000000E+00  0.8958224E-03
  0.2575758E+00  0.0000000E+00  0.2525252E-01  0.1407140E-03  0.0000000E+00  0.9549176E-03
  0.2676768E+00  0.0000000E+00  0.2525252E-01  0.1540006E-03  0.0000000E+00  0.1014304E-02
  0.2777778E+00  0.0000000E+00  0.2525252E-01  0.1858782E-03  0.0000000E+00  0.1082510E-02
  0.2878788E+00  0.0000000E+00  0.2525252E-01  0.1970711E-03  0.0000000E+00  0.1144320E-02
  0.2979798E+00  0.0000000E+00  0.2525252E-01  0.2023786E-03  0.0000000E+00  0.1204706E-02
  0.3080808E+00  0.0000000E+00  0.2525252E-01  0.1774043E-03  0.0000000E+00  0.1310161E-02
  0.3181818E+00  0.0000000E+00  0.2525252E-01  0.1826293E-03  0.0000000E+00  0.1416896E-02
  0.3282828E+00  0.0000000E+00  0.2525252E-01  0.2135940E-03  0.0000000E+00  0.1488815E-02
  0.3383838E+00  0.0000000E+00  0.2525252E-01  0.1768696E-03  0.0000000E+00  0.1604456E-02
  0.3484848E+00  0.0000000E+00  0.2525252E-01  0.1058997E-03  0.0000000E+00  0.1707812E-02
  0.3585859E+00  0.0000000E+00  0.2525252E-01  0.1295809E-03  0.0000000E+00  0.1745315E-02
  0.3686869E+00  0.0000000E+00  0.2525252E-01  0.1617802E-03  0.0000000E+00  0.1770754E-02
  0.3787879E+00  0.0000000E+00  0.2525252E-01  0.2625728E-03  0.0000000E+00  0.1786884E-02
  0.3888889E+00  0.0000000E+00  0.2525252E-01  0.4103385E-03  0.0000000E+00  0.1768524E-02
  0.3989899E+00  0.0000000E+00  0.2525252E-01 -0.3113169E-03  0.0000000E+00  0.1775388E-02
  0.4090909E+00  0.0000000E+00  0.2525252E-01 -0.1664109E-03  0.0000000E+00  0.1797710E-02
  0.4191919E+00  0.0000000E+00  0.2525252E-01 -0.7158932E-04  0.0000000E+00  0.1744999E-02
  0.4292929E+00  0.0000000E+00  0.2525252E-01 -0.7509625E-04  0.0000000E+00  0.1711147E-02
  0.4393939E+00  0.0000000E+00  0.2525252E-01 -0.2352081E-04  0.0000000E+00  0.1739133E-02
  0.4494950E+00  0.0000000E+00  0.2525252E-01 -0.7436476E-04  0.0000000E+00  0.1732044E-02
  0.4595959E+00  0.0000000E+00  0.2525252E-01 -0.1094078E-03  0.0000000E+00  0.1716464E-02
  0.4696970E+00  0.0000000E+00  0.2525252E-01 -0.2597694E-04  0.0000000E+00  0.1736875E-02
  0.4797980E+00  0.0000000E+00  0.2525252E-01  0.3032094E-04  0.0000000E+00  0.1753290E-02
  0.4898990E+00  0.0000000E+00  0.2525252E-01  0.8776960E-04  0.0000000E+00  0.1761728E-02
  0.5000000E+00  0.0000000E+00  0.2525252E-01  0.1977495E-03  0.0000000E+00  0.1782246E-02
  0.5101010E+00  0.0000000E+00  0.2525252E-01  0.1954313E-03  0.0000000E+00  0.1861986E-02
  0.5202020E+00  0.0000000E+00  0.2525252E-01  0.2917449E-03  0.0000000E+00  0.1937967E-02
  0.5303030E+00  0.0000000E+00  0.2525252E-01  0.2763953E-03  0.0000000E+00  0.1953397E-02
  0.5404040E+00  0.0000000E+00  0.2525252E-01  0.2376975E-03  0.0000000E+00  0.1957197E-02
  0.5505050E+00  0.0000000E+00  0.2525252E-01  0.2927776E-03  0.0000000E+00  0.1987766E-02
  0.5606061E+00  0.0000000E+00  0.2525252E-01 -0.3284103E-03  0.0000000E+00  0.2013130E-02
  0.5707071E+00  0.0000000E+00  0.2525252E-01 -0.2183926E-03  0.0000000E+00  0.2038059E-02
  0.5808081E+00  0.0000000E+00  0.2525252E-01 -0.6317637E-04  0.0000000E+00  0.2057240E-02
  0.5909091E+00  0.0000000E+00  0.2525252E-01 -0.1854033E-03  0.0000000E+00  0.1986459E-02
  0.6010101E+00  0.0000000E+00  0.2525252E-01 -0.1603225E-03  0.0000000E+00  0.1902171E-02
  0.6111111E+00  0.0000000E+00  0.2525252E-01 -0.1721724E-03  0.0000000E+00  0.1776037E-02
  0.6212121E+00  0.0000000E+00  0.2525252E-01 -0.3448984E-03  0.0000000E+00  0.1618059E-02
  0.6313131E+00  0.0000000E+00  0.2525252E-01 -0.3077785E-03  0.0000000E+00  0.1553914E-02
  0.6414142E+00  0.0000000E+00  0.2525252E-01 -0.2555453E-03  0.0000000E+00  0.1502970E-02
  0.6515151E+00  0.0000000E+00  0.2525252E-01 -0.2670337E-03  0.0000000E+00  0.1367560E-02
  0.6616161E+00  0.0000000E+00  0.2525252E-01 -0.2068028E-03  0.0000000E+00  0.1186901E-02
  0.6717172E+00  0.0000000E+00  0.2525252E-01 -0.2393047E-03  0.0000000E+00  0.1099288E-02
  0.6818182E+00  0.0000000E+00  0.2525252E-01 -0.1830940E-03  0.0000000E+00  0.1075578E-02
  0.6919192E+00  0.0000000E+00  0.2525252E-01 -0.1657147E-03  0.0000000E+00  0.1031828E-02
  0.7020202E+00  0.0000000E+00  0.2525252E-01 -0.1894224E-03  0.0000000E+00  0.9924109E-03
  0.7121212E+00  0.0000000E+00  0.2525252E-01 -0.1642355E-03  0.0000000E+00  0.9489095E-03
  0.7222222E+00  0.0000000E+00  0.2525252E-01 -0.1565687E-03  0.0000000E+00  0.8894307E-03
  0.7323232E+00  0.0000000E+00  0.2525252E-01 -0.1461862E-03  0.0000000E+00  0.8252593E-03
  0.7424242E+00  0.0000000E+00  0.2525252E-01 -0.1368946E-03  0.0000000E+00  0.7644036E-03
  0.7525253E+00  0.0000000E+00  0.2525252E-01 -0.1304710E-03  0.0000000E+00  0.7059690E-03
  0.7626263E+00  0.0000000E+00  0.2525252E-01 -0.1215739E-03  0.0000000E+00  0.6498145E-03
  0.7727273E+00  0.0000000E+00  0.2525252E-01 -0.1096897E-03  0.0000000E+00  0.5987892E-03
  0.7828283E+00  0.0000000E+00  0.2525252E-01 -0.9741958E-04  0.0000000E+00  0.5542240E-03
  0.7929293E+00  0.0000000E+00  0.2525252E-01 -0.8607409E-04  0.0000000E+00  0.5155630E-03
  0.8030303E+00  0.0000000E+00  0.2525252E-01 -0.7604927E-04  0.0000000E+00  0.4818591E-03
  0.8131313E+00  0.0000000E+00  0.2525252E-01 -0.6733527E-04  0.0000000E+00  0.4522693E-03
  0.8232324E+00  0.0000000E+00  0.2525252E-01 -0.5977970E-04  0.0000000E+00  0.4261313E-03
  0.8333333E+00  0.0000000E+00  0.2525252E-01 -0.5320034E-04  0.0000000E+00  0.4029354E-03
  0.8434343E+00  0.0000000E+00  0.2525252E-01 -0.4742768E-04  0.0000000E+00  0.3822861E-03
  0.8535354E+00  0.0000000E+00  0.2525252E-01 -0.4231756E-04  0.0000000E+00  0.3638716E-03
  0.8636364E+00  0.0000000E+00  0.2525252E-01 -0.3775194E-04  0.0000000E+00  0.3474415E-03
  0.8737374E+00  0.0000000E+00  0.2525252E-01 -0.3363563E-04  0.0000000E+00  0.3327921E-03
  0.8838384E+00  0.0000000E+00  0.2525252E-01 -0.2989200E-04  0.0000000E+00  0.3197558E-03
  0.8939394E+00  0.0000000E+00  0.2525252E-01 -0.2645901E-04  0.0000000E+00  0.3081929E-03
  0.9040404E+00  0.0000000E+00  0.2525252E-01 -0.2328593E-04  0.0000000E+00  0.2979867E-03
  0.9141414E+00  0.0000000E+00  0.2525252E-01 -0.2033066E-04  0.0000000E+00  0.2890393E-03
  0.9242424E+00  0.0000000E+00  0.2525252E-01 -0.1755775E-04  0.0000000E+00  0.2812682E-03
  0.9343435E+00  0.0000000E+00  0.2525252E-01 -0.1493678E-04  0.0000000E+00  0.2746044E-03
  0.9444444E+00  0.0000000E+00  0.2525252E-01 -0.1244123E-04  0.0000000E+00  0.2689907E-03
  0.9545454E+00  0.0000000E+00  0.2525252E-01 -0.1004753E-04  0.0000000E+00  0.2643800E-03
  0.9646465E+00  0.0000000E+00  0.2525252E-01 -0.7734372E-05  0.0000000E+00  0.2607345E-03
  0.9747475E+00  0.0000000E+00  0.2525252E-01 -0.5482156E-05  0.0000000E+00  0.2580250E-03
  0.9848485E+00  0.0000000E+00  0.2525252E-01 -0.3272542E-05  0.0000000E+00  0.2562301E-03
  0.9974747E+00  0.0000000E+00  0.2525252E-01 -0.1088083E-05  0.0000000E+00  0.2553360E-03
  0.5050505E-02  0.0000000E+00  0.3535353E-01  0.1883327E-05  0.0000000E+00  0.3354751E-03
  0.1515152E-01  0.0000000E+00  0.3535353E-01  0.5662980E-05  0.0000000E+00  0.3365817E-03
  0.2525252E-01  0.0000000E+00  0.3535353E-01  0.9482347E-05  0.0000000E+00  0.3388014E-03
  0.3535353E-01  0.0000000E+00  0.3535353E-01  0.1336987E-04  0.0000000E+00  0.3421481E-03
  0.4545455E-01  0.0000000E+00  0.3535353E-01  0.1735670E-04  0.0000000E+00  0.3466440E-03
  0.5555556E-01  0.0000000E+00  0.3535353E-01  0.2147782E-04  0.0000000E+00  0.3523203E-03
  0.6565657E-01  0.0000000E+00  0.3535353E-01  0.2577327E-04  0.0000000E+00  0.3592183E-03
  0.7575758E-01  0.0000000E+00  0.3535353E-01  0.3028964E-04  0.0000000E+00  0.3673911E-03
  0.8585858E-01  0.0000000E+00  0.3535353E-01  0.3508199E-04  0.0000000E+00  0.3769043E-03
  0.9595960E-01  0.0000000E+00  0.3535353E-01  0.4021636E-04  0.0000000E+00  0.3878386E-03
  0.1060606E+00  0.0000000E+00  0.3535353E-01  0.4577338E-04  0.0000000E+00  0.4002908E-03
  0.1161616E+00  0.0000000E+00  0.3535353E-01  0.5185386E-04  0.0000000E+00  0.4143751E-03
  0.1262626E+00  0.0000000E+00  0.3535353E-01  0.5858779E-04  0.0000000E+00  0.4302237E-03
  0.1363636E+00  0.0000000E+00  0.3535353E-01  0.6614943E-04  0.0000000E+00  0.4479851E-03
  0.1464646E+00  0.0000000E+00  0.3535353E-01  0.7478293E-04  0.0000000E+00  0.4678202E-03
  0.1565657E+00  0.0000000E+00  0.3535353E-01  0.8484497E-04  0.0000000E+00  0.4898917E-03
  0.1666667E+00  0.0000000E+00  0.3535353E-01  0.9687282E-04  0.0000000E+00  0.5143369E-03
  0.1767677E+00  0.0000000E+00  0.3535353E-01  0.1116862E-03  0.0000000E+00  0.5411827E-03
  0.1868687E+00  0.0000000E+00  0.3535353E-01  0.1305226E-03  0.0000000E+00  0.5700686E-03
  0.1969697E+00  0.0000000E+00  0.3535353E-01  0.1551311E-03  0.0000000E+00  0.5994024E-03
  0.2070707E+00  0.0000000E+00  0.3535353E-01  0.1871972E-03  0.0000000E+00  0.6242357E-03
  0.2171717E+00  0.0000000E+00  0.3535353E-01  0.1638135E-03  0.0000000E+00  0.6977637E-03
  0.2272727E+00  0.0000000E+00  0.3535353E-01  0.1442967E-03  0.0000000E+00  0.7847999E-03
  0.2373737E+00  0.0000000E+00  0.3535353E-01  0.1526832E-03  0.0000000E+00  0.8284686E-03
  0.2474747E+00  0.0000000E+00  0.3535353E-01  0.1856252E-03  0.0000000E+00  0.8821225E-03
  0.2575758E+00  0.0000000E+00  0.3535353E-01  0.1922372E-03  0.0000000E+00  0.9451483E-03
  0.2676768E+00  0.0000000E+00  0.3535353E-01  0.1929782E-03  0.0000000E+00  0.9903364E-03
  0.2777778E+00  0.0000000E+00  0.3535353E-01  0.2304517E-03  0.0000000E+00  0.1020149E-02
  0.2878788E+00  0.0000000E+00  0.3535353E-01  0.2420509E-03  0.0000000E+00  0.1064433E-02
  0.2979798E+00  0.0000000E+00  0.3535353E-01  0.2491140E-03  0.0000000E+00  0.1114166E-02