title = "dataset water"
variables = "x", "y", "z", "vx", "vy", "vz"
zone t = "velocities, solution time =  2.900E+01 days        " i =   99, j =   99, k =    1,  f=point
  0.5050505E-02  0.0000000E+00  0.5050505E-02  0.9304395E-08  0.0000000E+00 -0.1325714E-05
  0.1515152E-01  0.0000000E+00  0.5050505E-02  0.2793634E-07  0.0000000E+00 -0.1288468E-05
  0.2525252E-01  0.0000000E+00  0.5050505E-02  0.4663759E-07  0.0000000E+00 -0.1213883E-05
  0.3535353E-01  0.0000000E+00  0.5050505E-02  0.6545354E-07  0.0000000E+00 -0.1101777E-05
  0.4545455E-01  0.0000000E+00  0.5050505E-02  0.8442832E-07  0.0000000E+00 -0.9518775E-06
  0.5555556E-01  0.0000000E+00  0.5050505E-02  0.1036041E-06  0.0000000E+00 -0.7638277E-06
  0.6565657E-01  0.0000000E+00  0.5050505E-02  0.1230203E-06  0.0000000E+00 -0.5371886E-06
  0.7575758E-01  0.0000000E+00  0.5050505E-02  0.1427126E-06  0.0000000E+00 -0.2714473E-06
  0.8585858E-01  0.0000000E+00  0.5050505E-02  0.1627131E-06  0.0000000E+00  0.3426640E-07
  0.9595960E-01  0.0000000E+00  0.5050505E-02  0.1830046E-06  0.0000000E+00  0.3808088E-06
  0.1060606E+00  0.0000000E+00  0.5050505E-02  0.2036580E-06  0.0000000E+00  0.7686193E-06
  0.1161616E+00  0.0000000E+00  0.5050505E-02  0.2246807E-06  0.0000000E+00  0.1198250E-05
  0.1262626E+00  0.0000000E+00  0.5050505E-02  0.2460711E-06  0.0000000E+00  0.1670446E-05
  0.1363636E+00  0.0000000E+00  0.5050505E-02  0.2678160E-06  0.0000000E+00  0.2185940E-05
  0.1464646E+00  0.0000000E+00  0.5050505E-02  0.2898876E-06  0.0000000E+00  0.2745423E-05
  0.1565657E+00  0.0000000E+00  0.5050505E-02  0.3122400E-06  0.0000000E+00  0.3349513E-05
  0.1666667E+00  0.0000000E+00  0.5050505E-02  0.3348053E-06  0.0000000E+00  0.3998716E-05
  0.1767677E+00  0.0000000E+00  0.5050505E-02  0.3574888E-06  0.0000000E+00  0.4693373E-05
  0.1868687E+00  0.0000000E+00  0.5050505E-02  0.3801647E-06  0.0000000E+00  0.5433607E-05
  0.1969697E+00  0.0000000E+00  0.5050505E-02  0.4026708E-06  0.0000000E+00  0.6219252E-05
  0.2070707E+00  0.0000000E+00  0.5050505E-02  0.4248006E-06  0.0000000E+00  0.7049774E-05
  0.2171717E+00  0.0000000E+00  0.5050505E-02  0.4462970E-06  0.0000000E+00  0.7924171E-05
  0.2272727E+00  0.0000000E+00  0.5050505E-02  0.4668453E-06  0.0000000E+00  0.8840871E-05
  0.2373737E+00  0.0000000E+00  0.5050505E-02  0.4860671E-06  0.0000000E+00  0.9797602E-05
  0.2474747E+00  0.0000000E+00  0.5050505E-02  0.5035155E-06  0.0000000E+00  0.1079127E-04
  0.2575758E+00  0.0000000E+00  0.5050505E-02  0.5186730E-06  0.0000000E+00  0.1181780E-04
  0.2676768E+00  0.0000000E+00  0.5050505E-02  0.5309551E-06  0.0000000E+00  0.1287202E-04
  0.2777778E+00  0.0000000E+00  0.5050505E-02  0.5397206E-06  0.0000000E+00  0.1394751E-04
  0.2878788E+00  0.0000000E+00  0.5050505E-02  0.5442934E-06  0.0000000E+00  0.1503655E-04
  0.2979798E+00  0.0000000E+00  0.5050505E-02  0.5439985E-06  0.0000000E+00  0.1613003E-04
  0.3080808E+00  0.0000000E+00  0.5050505E-02  0.5382158E-06  0.0000000E+00  0.1721755E-04
  0.3181818E+00  0.0000000E+00  0.5050505E-02  0.5264526E-06  0.0000000E+00  0.1828758E-04
  0.3282828E+00  0.0000000E+00  0.5050505E-02  0.5084337E-06  0.0000000E+00  0.1932782E-04
  0.3383838E+00  0.0000000E+00  0.5050505E-02  0.4841999E-06  0.0000000E+00  0.2032571E-04
  0.3484848E+00  0.0000000E+00  0.5050505E-02  0.4541991E-06  0.0000000E+00  0.2126919E-04
  0.3585859E+00  0.0000000E+00  0.5050505E-02  0.4193455E-06  0.0000000E+00  0.2214757E-04
  0.3686869E+00  0.0000000E+00  0.5050505E-02  0.3810177E-06  0.0000000E+00  0.2295245E-04
  0.3787879E+00  0.0000000E+00  0.5050505E-02  0.3409704E-06  0.0000000E+00  0.2367858E-04
  0.3888889E+00  0.0000000E+00  0.5050505E-02  0.3011544E-06  0.0000000E+00  0.2432445E-04
  0.3989899E+00  0.0000000E+00  0.5050505E-02  0.2634644E-06  0.0000000E+00  0.2489240E-04
  0.4090909E+00  0.0000000E+00  0.5050505E-02  0.2294685E-06  0.0000000E+00  0.2538828E-04
  0.4191919E+00  0.0000000E+00  0.5050505E-02  0.2001771E-06  0.0000000E+00  0.2582052E-04
  0.4292929E+00  0.0000000E+00  0.5050505E-02  0.1758995E-06  0.0000000E+00  0.2619889E-04
  0.4393939E+00  0.0000000E+00  0.5050505E-02  0.1562029E-06  0.0000000E+00  0.2653303E-04
  0.4494950E+00  0.0000000E+00  0.5050505E-02  0.1399600E-06  0.0000000E+00  0.2683103E-04
  0.4595959E+00  0.0000000E+00  0.5050505E-02  0.1254630E-06  0.0000000E+00  0.2709810E-04
  0.4696970E+00  0.0000000E+00  0.5050505E-02  0.1105773E-06  0.0000000E+00  0.2733562E-04
  0.4797980E+00  0.0000000E+00  0.5050505E-02  0.9292531E-07  0.0000000E+00  0.2754040E-04
  0.4898990E+00  0.0000000E+00  0.5050505E-02  0.7010024E-07  0.0000000E+00  0.2770445E-04
  0.5000000E+00  0.0000000E+00  0.5050505E-02  0.3991489E-07  0.0000000E+00  0.2781516E-04
  0.5101010E+00  0.0000000E+00  0.5050505E-02  0.6888292E-09  0.0000000E+00  0.2785602E-04
  0.5202020E+00  0.0000000E+00  0.5050505E-02 -0.4844333E-07  0.0000000E+00  0.2780797E-04
  0.5303030E+00  0.0000000E+00  0.5050505E-02 -0.1072500E-06  0.0000000E+00  0.2765129E-04
  0.5404040E+00  0.0000000E+00  0.5050505E-02 -0.1742306E-06  0.0000000E+00  0.2736804E-04
  0.5505050E+00  0.0000000E+00  0.5050505E-02 -0.2466486E-06  0.0000000E+00  0.2694454E-04
  0.5606061E+00  0.0000000E+00  0.5050505E-02 -0.3208354E-06  0.0000000E+00  0.2637356E-04
  0.5707071E+00  0.0000000E+00  0.5050505E-02 -0.3927383E-06  0.0000000E+00  0.2565566E-04
  0.5808081E+00  0.0000000E+00  0.5050505E-02 -0.4585682E-06  0.0000000E+00  0.2479927E-04
  0.5909091E+00  0.0000000E+00  0.5050505E-02 -0.5153429E-06  0.0000000E+00  0.2381967E-04
  0.6010101E+00  0.0000000E+00  0.5050505E-02 -0.5611858E-06  0.0000000E+00  0.2273699E-04
  0.6111111E+00  0.0000000E+00  0.5050505E-02 -0.5953549E-06  0.0000000E+00  0.2157400E-04
  0.6212121E+00  0.0000000E+00  0.5050505E-02 -0.6180726E-06  0.0000000E+00  0.2035400E-04
  0.6313131E+00  0.0000000E+00  0.5050505E-02 -0.6302576E-06  0.0000000E+00  0.1909909E-04
  0.6414142E+00  0.0000000E+00  0.5050505E-02 -0.6332444E-06  0.0000000E+00  0.1782913E-04
  0.6515151E+00  0.0000000E+00  0.5050505E-02 -0.6285447E-06  0.0000000E+00  0.1656109E-04
  0.6616161E+00  0.0000000E+00  0.5050505E-02 -0.6176723E-06  0.0000000E+00  0.1530889E-04
  0.6717172E+00  0.0000000E+00  0.5050505E-02 -0.6020303E-06  0.0000000E+00  0.1408351E-04
  0.6818182E+00  0.0000000E+00  0.5050505E-02 -0.5828509E-06  0.0000000E+00  0.1289329E-04
  0.6919192E+00  0.0000000E+00  0.5050505E-02 -0.5611729E-06  0.0000000E+00  0.1174427E-04
  0.7020202E+00  0.0000000E+00  0.5050505E-02 -0.5378440E-06  0.0000000E+00  0.1064060E-04
  0.7121212E+00  0.0000000E+00  0.5050505E-02 -0.5135368E-06  0.0000000E+00  0.9584913E-05
  0.7222222E+00  0.0000000E+00  0.5050505E-02 -0.4887714E-06  0.0000000E+00  0.8578620E-05
  0.7323232E+00  0.0000000E+00  0.5050505E-02 -0.4639405E-06  0.0000000E+00  0.7622232E-05
  0.7424242E+00  0.0000000E+00  0.5050505E-02 -0.4393326E-06  0.0000000E+00  0.6715574E-05
  0.7525253E+00  0.0000000E+00  0.5050505E-02 -0.4151528E-06  0.0000000E+00  0.5857977E-05
  0.7626263E+00  0.0000000E+00  0.5050505E-02 -0.3915413E-06  0.0000000E+00  0.5048425E-05
  0.7727273E+00  0.0000000E+00  0.5050505E-02 -0.3685876E-06  0.0000000E+00  0.4285675E-05
  0.7828283E+00  0.0000000E+00  0.5050505E-02 -0.3463442E-06  0.0000000E+00  0.3568341E-05
  0.7929293E+00  0.0000000E+00  0.5050505E-02 -0.3248358E-06  0.0000000E+00  0.2894961E-05
  0.8030303E+00  0.0000000E+00  0.5050505E-02 -0.3040661E-06  0.0000000E+00  0.2264047E-05
  0.8131313E+00  0.0000000E+00  0.5050505E-02 -0.2840242E-06  0.0000000E+00  0.1674117E-05
  0.8232324E+00  0.0000000E+00  0.5050505E-02 -0.2646887E-06  0.0000000E+00  0.1123725E-05
  0.8333333E+00  0.0000000E+00  0.5050505E-02 -0.2460319E-06  0.0000000E+00  0.6114742E-06
  0.8434343E+00  0.0000000E+00  0.5050505E-02 -0.2280235E-06  0.0000000E+00  0.1361603E-06
  0.8535354E+00  0.0000000E+00  0.5050505E-02 -0.2105728E-06  0.0000000E+00 -0.3029673E-06
  0.8636364E+00  0.0000000E+00  0.5050505E-02 -0.1936748E-06  0.0000000E+00 -0.7072295E-06
  0.8737374E+00  0.0000000E+00  0.5050505E-02 -0.1772952E-06  0.0000000E+00 -0.1078231E-05
  0.8838384E+00  0.0000000E+00  0.5050505E-02 -0.1613941E-06  0.0000000E+00 -0.1416965E-05
  0.8939394E+00  0.0000000E+00  0.5050505E-02 -0.1459303E-06  0.0000000E+00 -0.1724343E-05
  0.9040404E+00  0.0000000E+00  0.5050505E-02 -0.1308626E-06  0.0000000E+00 -0.2001194E-05
  0.9141414E+00  0.0000000E+00  0.5050505E-02 -0.1161507E-06  0.0000000E+00 -0.2248268E-05
  0.9242424E+00  0.0000000E+00  0.5050505E-02 -0.1017545E-06  0.0000000E+00 -0.2466233E-05
  0.9343435E+00  0.0000000E+00  0.5050505E-02 -0.8763498E-07  0.0000000E+00 -0.2655680E-05
  0.9444444E+00  0.0000000E+00  0.5050505E-02 -0.7375370E-07  0.0000000E+00 -0.2817121E-05
  0.9545454E+00  0.0000000E+00  0.5050505E-02 -0.6007282E-07  0.0000000E+00 -0.2950994E-05
  0.9646465E+00  0.0000000E+00  0.5050505E-02 -0.4655510E-07  0.0000000E+00 -0.3057660E-05
  0.9747475E+00  0.0000000E+00  0.5050505E-02 -0.3316374E-07  0.0000000E+00 -0.3137409E-05
  0.9848485E+00  0.0000000E+00  0.5050505E-02 -0.1986235E-07  0.0000000E+00 -0.3190455E-05
  0.9974747E+00  0.0000000E+00  0.5050505E-02 -0.6614812E-08  0.0000000E+00 -0.3216943E-05
  0.5050505E-02  0.0000000E+00  0.1515152E-01  0.2792566E-07  0.0000000E+00 -0.1293033E-05
  0.1515152E-01  0.0000000E+00  0.1515152E-01  0.8384697E-07  0.0000000E+00 -0.1255628E-05
  0.2525252E-01  0.0000000E+00  0.1515152E-01  0.1399777E-06  0.0000000E+00 -0.1180724E-05
  0.3535353E-01  0.0000000E+00  0.1515152E-01  0.1964551E-06  0.0000000E+00 -0.1068134E-05
  0.4545455E-01  0.0000000E+00  0.1515152E-01  0.2534126E-06  0.0000000E+00 -0.9175804E-06
  0.5555556E-01  0.0000000E+00  0.1515152E-01  0.3109780E-06  0.0000000E+00 -0.7286954E-06
  0.6565657E-01  0.0000000E+00  0.1515152E-01  0.3692709E-06  0.0000000E+00 -0.5010286E-06
  0.7575758E-01  0.0000000E+00  0.1515152E-01  0.4283989E-06  0.0000000E+00 -0.2340529E-06
  0.8585858E-01  0.0000000E+00  0.1515152E-01  0.4884462E-06  0.0000000E+00  0.7316269E-07
  0.9595960E-01  0.0000000E+00  0.1515152E-01  0.5493942E-06  0.0000000E+00  0.4214438E-06
  0.1060606E+00  0.0000000E+00  0.1515152E-01  0.6114413E-06  0.0000000E+00  0.8112148E-06
  0.1161616E+00  0.0000000E+00  0.1515152E-01  0.6746104E-06  0.0000000E+00  0.1243112E-05
  0.1262626E+00  0.0000000E+00  0.1515152E-01  0.7388999E-06  0.0000000E+00  0.1717915E-05
  0.1363636E+00  0.0000000E+00  0.1515152E-01  0.8042742E-06  0.0000000E+00  0.2236395E-05
  0.1464646E+00  0.0000000E+00  0.1515152E-01  0.8706536E-06  0.0000000E+00  0.2799291E-05
  0.1565657E+00  0.0000000E+00  0.1515152E-01  0.9379049E-06  0.0000000E+00  0.3407279E-05
  0.1666667E+00  0.0000000E+00  0.1515152E-01  0.1005829E-05  0.0000000E+00  0.4060927E-05
  0.1767677E+00  0.0000000E+00  0.1515152E-01  0.1074148E-05  0.0000000E+00  0.4760654E-05
  0.1868687E+00  0.0000000E+00  0.1515152E-01  0.1142490E-05  0.0000000E+00  0.5506667E-05
  0.1969697E+00  0.0000000E+00  0.1515152E-01  0.1210375E-05  0.0000000E+00  0.6298901E-05
  0.2070707E+00  0.0000000E+00  0.1515152E-01  0.1277189E-05  0.0000000E+00  0.7136928E-05
  0.2171717E+00  0.0000000E+00  0.1515152E-01  0.1342168E-05  0.0000000E+00  0.8019869E-05
  0.2272727E+00  0.0000000E+00  0.1515152E-01  0.1404372E-05  0.0000000E+00  0.8946282E-05
  0.2373737E+00  0.0000000E+00  0.1515152E-01  0.1462668E-05  0.0000000E+00  0.9914030E-05
  0.2474747E+00  0.0000000E+00  0.1515152E-01  0.1515714E-05  0.0000000E+00  0.1092015E-04
  0.2575758E+00  0.0000000E+00  0.1515152E-01  0.1561951E-05  0.0000000E+00  0.1196070E-04
  0.2676768E+00  0.0000000E+00  0.1515152E-01  0.1599607E-05  0.0000000E+00  0.1303059E-04
  0.2777778E+00  0.0000000E+00  0.1515152E-01  0.1626731E-05  0.0000000E+00  0.1412347E-04
  0.2878788E+00  0.0000000E+00  0.1515152E-01  0.1641250E-05  0.0000000E+00  0.1523156E-04
  0.2979798E+00  0.0000000E+00  0.1515152E-01  0.1641076E-05  0.0000000E+00  0.1634563E-04
  0.3080808E+00  0.0000000E+00  0.1515152E-01  0.1624267E-05  0.0000000E+00  0.1745499E-04
  0.3181818E+00  0.0000000E+00  0.1515152E-01  0.1589245E-05  0.0000000E+00  0.1854762E-04
  0.3282828E+00  0.0000000E+00  0.1515152E-01  0.1535081E-05  0.0000000E+00  0.1961055E-04
  0.3383838E+00  0.0000000E+00  0.1515152E-01  0.1461801E-05  0.0000000E+00  0.2063034E-04
  0.3484848E+00  0.0000000E+00  0.1515152E-01  0.1370692E-05  0.0000000E+00  0.2159388E-04
  0.3585859E+00  0.0000000E+00  0.1515152E-01  0.1264508E-05  0.0000000E+00  0.2248940E-04
  0.3686869E+00  0.0000000E+00  0.1515152E-01  0.1147486E-05  0.0000000E+00  0.2330754E-04
  0.3787879E+00  0.0000000E+00  0.1515152E-01  0.1025093E-05  0.0000000E+00  0.2404241E-04
  0.3888889E+00  0.0000000E+00  0.1515152E-01  0.9034572E-06  0.0000000E+00  0.2469232E-04
  0.3989899E+00  0.0000000E+00  0.1515152E-01  0.7885588E-06  0.0000000E+00  0.2526007E-04
  0.4090909E+00  0.0000000E+00  0.1515152E-01  0.6853529E-06  0.0000000E+00  0.2575247E-04
  0.4191919E+00  0.0000000E+00  0.1515152E-01  0.5970281E-06  0.0000000E+00  0.2617937E-04
  0.4292929E+00  0.0000000E+00  0.1515152E-01  0.5245587E-06  0.0000000E+00  0.2655215E-04
  0.4393939E+00  0.0000000E+00  0.1515152E-01  0.4665916E-06  0.0000000E+00  0.2688208E-04
  0.4494950E+00  0.0000000E+00  0.1515152E-01  0.4196179E-06  0.0000000E+00  0.2717865E-04
  0.4595959E+00  0.0000000E+00  0.1515152E-01  0.3783359E-06  0.0000000E+00  0.2744820E-04
  0.4696970E+00  0.0000000E+00  0.1515152E-01  0.3361282E-06  0.0000000E+00  0.2769280E-04
  0.4797980E+00  0.0000000E+00  0.1515152E-01  0.2856157E-06  0.0000000E+00  0.2790948E-04
  0.4898990E+00  0.0000000E+00  0.1515152E-01  0.2192938E-06  0.0000000E+00  0.2808995E-04
  0.5000000E+00  0.0000000E+00  0.1515152E-01  0.1302817E-06  0.0000000E+00  0.2822064E-04
  0.5101010E+00  0.0000000E+00  0.1515152E-01  0.1320418E-07  0.0000000E+00  0.2828344E-04
  0.5202020E+00  0.0000000E+00  0.1515152E-01 -0.1348315E-06  0.0000000E+00  0.2825702E-04
  0.5303030E+00  0.0000000E+00  0.1515152E-01 -0.3133036E-06  0.0000000E+00  0.2811894E-04
  0.5404040E+00  0.0000000E+00  0.1515152E-01 -0.5176591E-06  0.0000000E+00  0.2784843E-04
  0.5505050E+00  0.0000000E+00  0.1515152E-01 -0.7393483E-06  0.0000000E+00  0.2742935E-04
  0.5606061E+00  0.0000000E+00  0.1515152E-01 -0.9667668E-06  0.0000000E+00  0.2685303E-04
  0.5707071E+00  0.0000000E+00  0.1515152E-01 -0.1187052E-05  0.0000000E+00  0.2611988E-04
  0.5808081E+00  0.0000000E+00  0.1515152E-01 -0.1388240E-05  0.0000000E+00  0.2523955E-04
  0.5909091E+00  0.0000000E+00  0.1515152E-01 -0.1561043E-05  0.0000000E+00  0.2422945E-04
  0.6010101E+00  0.0000000E+00  0.1515152E-01 -0.1699776E-05  0.0000000E+00  0.2311231E-04
  0.6111111E+00  0.0000000E+00  0.1515152E-01 -0.1802375E-05  0.0000000E+00  0.2191335E-04
  0.6212121E+00  0.0000000E+00  0.1515152E-01 -0.1869781E-05  0.0000000E+00  0.2065789E-04
  0.6313131E+00  0.0000000E+00  0.1515152E-01 -0.1905046E-05  0.0000000E+00  0.1936949E-04
  0.6414142E+00  0.0000000E+00  0.1515152E-01 -0.1912434E-05  0.0000000E+00  0.1806889E-04
  0.6515151E+00  0.0000000E+00  0.1515152E-01 -0.1896679E-05  0.0000000E+00  0.1677346E-04
  0.6616161E+00  0.0000000E+00  0.1515152E-01 -0.1862456E-05  0.0000000E+00  0.1549720E-04
  0.6717172E+00  0.0000000E+00  0.1515152E-01 -0.1814056E-05  0.0000000E+00  0.1425094E-04
  0.6818182E+00  0.0000000E+00  0.1515152E-01 -0.1755212E-05  0.0000000E+00  0.1304272E-04
  0.6919192E+00  0.0000000E+00  0.1515152E-01 -0.1689054E-05  0.0000000E+00  0.1187826E-04
  0.7020202E+00  0.0000000E+00  0.1515152E-01 -0.1618116E-05  0.0000000E+00  0.1076136E-04
  0.7121212E+00  0.0000000E+00  0.1515152E-01 -0.1544400E-05  0.0000000E+00  0.9694317E-05
  0.7222222E+00  0.0000000E+00  0.1515152E-01 -0.1469449E-05  0.0000000E+00  0.8678260E-05
  0.7323232E+00  0.0000000E+00  0.1515152E-01 -0.1394418E-05  0.0000000E+00  0.7713441E-05
  0.7424242E+00  0.0000000E+00  0.1515152E-01 -0.1320154E-05  0.0000000E+00  0.6799469E-05
  0.7525253E+00  0.0000000E+00  0.1515152E-01 -0.1247255E-05  0.0000000E+00  0.5935494E-05
  0.7626263E+00  0.0000000E+00  0.1515152E-01 -0.1176127E-05  0.0000000E+00  0.5120351E-05
  0.7727273E+00  0.0000000E+00  0.1515152E-01 -0.1107027E-05  0.0000000E+00  0.4352673E-05
  0.7828283E+00  0.0000000E+00  0.1515152E-01 -0.1040100E-05  0.0000000E+00  0.3630973E-05
  0.7929293E+00  0.0000000E+00  0.1515152E-01 -0.9754120E-06  0.0000000E+00  0.2953709E-05
  0.8030303E+00  0.0000000E+00  0.1515152E-01 -0.9129682E-06  0.0000000E+00  0.2319326E-05
  0.8131313E+00  0.0000000E+00  0.1515152E-01 -0.8527296E-06  0.0000000E+00  0.1726290E-05
  0.8232324E+00  0.0000000E+00  0.1515152E-01 -0.7946273E-06  0.0000000E+00  0.1173111E-05
  0.8333333E+00  0.0000000E+00  0.1515152E-01 -0.7385735E-06  0.0000000E+00  0.6583584E-06
  0.8434343E+00  0.0000000E+00  0.1515152E-01 -0.6844712E-06  0.0000000E+00  0.1807434E-06
  0.8535354E+00  0.0000000E+00  0.1515152E-01 -0.6320940E-06  0.0000000E+00 -0.2604786E-06
  0.8636364E+00  0.0000000E+00  0.1515152E-01 -0.5813433E-06  0.0000000E+00 -0.6665891E-06
  0.8737374E+00  0.0000000E+00  0.1515152E-01 -0.5321596E-06  0.0000000E+00 -0.1039244E-05
  0.8838384E+00  0.0000000E+00  0.1515152E-01 -0.4844183E-06  0.0000000E+00 -0.1379458E-05
  0.8939394E+00  0.0000000E+00  0.1515152E-01 -0.4379939E-06  0.0000000E+00 -0.1688156E-05
  0.9040404E+00  0.0000000E+00  0.1515152E-01 -0.3927620E-06  0.0000000E+00 -0.1966179E-05
  0.9141414E+00  0.0000000E+00  0.1515152E-01 -0.3486002E-06  0.0000000E+00 -0.2214286E-05
  0.9242424E+00  0.0000000E+00  0.1515152E-01 -0.3053886E-06  0.0000000E+00 -0.2433152E-05
  0.9343435E+00  0.0000000E+00  0.1515152E-01 -0.2630093E-06  0.0000000E+00 -0.2623374E-05
  0.9444444E+00  0.0000000E+00  0.1515152E-01 -0.2213464E-06  0.0000000E+00 -0.2785471E-05
  0.9545454E+00  0.0000000E+00  0.1515152E-01 -0.1802863E-06  0.0000000E+00 -0.2919883E-05
  0.9646465E+00  0.0000000E+00  0.1515152E-01 -0.1397168E-06  0.0000000E+00 -0.3026978E-05
  0.9747475E+00  0.0000000E+00  0.1515152E-01 -0.9952736E-07  0.0000000E+00 -0.3107045E-05
  0.9848485E+00  0.0000000E+00  0.1515152E-01 -0.5960847E-07  0.0000000E+00 -0.3160303E-05
  0.9974747E+00  0.0000000E+00  0.1515152E-01 -0.1985152E-07  0.0000000E+00 -0.3186896E-05
  0.5050505E-02  0.0000000E+00  0.2525252E-01  0.4661106E-07  0.0000000E+00 -0.1227708E-05
  0.1515152E-01  0.0000000E+00  0.2525252E-01  0.1399516E-06  0.0000000E+00 -0.1189988E-05
  0.2525252E-01  0.0000000E+00  0.2525252E-01  0.2336461E-06  0.0000000E+00 -0.1114449E-05
  0.3535353E-01  0.0000000E+00  0.2525252E-01  0.3279271E-06  0.0000000E+00 -0.1000896E-05
  0.4545455E-01  0.0000000E+00  0.2525252E-01  0.4230205E-06  0.0000000E+00 -0.8490380E-06
  0.5555556E-01  0.0000000E+00  0.2525252E-01  0.5191436E-06  0.0000000E+00 -0.6584899E-06
  0.6565657E-01  0.0000000E+00  0.2525252E-01  0.6165020E-06  0.0000000E+00 -0.4287758E-06
  0.7575758E-01  0.0000000E+00  0.2525252E-01  0.7152875E-06  0.0000000E+00 -0.1593268E-06
  0.8585858E-01  0.0000000E+00  0.2525252E-01  0.8155414E-06  0.0000000E+00  0.1508769E-06
  0.9595960E-01  0.0000000E+00  0.2525252E-01  0.9174396E-06  0.0000000E+00  0.5026022E-06
  0.1060606E+00  0.0000000E+00  0.2525252E-01  0.1021199E-05  0.0000000E+00  0.8962764E-06
  0.1161616E+00  0.0000000E+00  0.2525252E-01  0.1126874E-05  0.0000000E+00  0.1332687E-05
  0.1262626E+00  0.0000000E+00  0.2525252E-01  0.1234476E-05  0.0000000E+00  0.1812678E-05
  0.1363636E+00  0.0000000E+00  0.2525252E-01  0.1343956E-05  0.0000000E+00  0.2337101E-05
  0.1464646E+00  0.0000000E+00  0.2525252E-01  0.1455195E-05  0.0000000E+00  0.2906790E-05
  0.1565657E+00  0.0000000E+00  0.2525252E-01  0.1567985E-05  0.0000000E+00  0.3522532E-05
  0.1666667E+00  0.0000000E+00  0.2525252E-01  0.1682012E-05  0.0000000E+00  0.4185026E-05
  0.1767677E+00  0.0000000E+00  0.2525252E-01  0.1796830E-05  0.0000000E+00  0.4894840E-05
  0.1868687E+00  0.0000000E+00  0.2525252E-01  0.1911840E-05  0.0000000E+00  0.5652356E-05
  0.1969697E+00  0.0000000E+00  0.2525252E-01  0.2026262E-05  0.0000000E+00  0.6457704E-05
  0.2070707E+00  0.0000000E+00  0.2525252E-01  0.2139096E-05  0.0000000E+00  0.7310679E-05
  0.2171717E+00  0.0000000E+00  0.2525252E-01  0.2249086E-05  0.0000000E+00  0.8210646E-05
  0.2272727E+00  0.0000000E+00  0.2525252E-01  0.2354681E-05  0.0000000E+00  0.9156428E-05
  0.2373737E+00  0.0000000E+00  0.2525252E-01  0.2454005E-05  0.0000000E+00  0.1014617E-04
  0.2474747E+00  0.0000000E+00  0.2525252E-01  0.2544814E-05  0.0000000E+00  0.1117719E-04
  0.2575758E+00  0.0000000E+00  0.2525252E-01  0.2624487E-05  0.0000000E+00  0.1224580E-04
  0.2676768E+00  0.0000000E+00  0.2525252E-01  0.2690020E-05  0.0000000E+00  0.1334715E-04
  0.2777778E+00  0.0000000E+00  0.2525252E-01  0.2738066E-05  0.0000000E+00  0.1447499E-04
  0.2878788E+00  0.0000000E+00  0.2525252E-01  0.2765022E-05  0.0000000E+00  0.1562154E-04
  0.2979798E+00  0.0000000E+00  0.2525252E-01  0.2767197E-05  0.0000000E+00  0.1677732E-04
  0.3080808E+00  0.0000000E+00  0.2525252E-01  0.2741073E-05  0.0000000E+00  0.1793108E-04
  0.3181818E+00  0.0000000E+00  0.2525252E-01  0.2683681E-05  0.0000000E+00  0.1906990E-04
  0.3282828E+00  0.0000000E+00  0.2525252E-01  0.2593097E-05  0.0000000E+00  0.2017939E-04
  0.3383838E+00  0.0000000E+00  0.2525252E-01  0.2469024E-05  0.0000000E+00  0.2124429E-04
  0.3484848E+00  0.0000000E+00  0.2525252E-01  0.2313386E-05  0.0000000E+00  0.2224931E-04
  0.3585859E+00  0.0000000E+00  0.2525252E-01  0.2130781E-05  0.0000000E+00  0.2318032E-04
  0.3686869E+00  0.0000000E+00  0.2525252E-01  0.1928618E-05  0.0000000E+00  0.2402582E-04
  0.3787879E+00  0.0000000E+00  0.2525252E-01  0.1716711E-05  0.0000000E+00  0.2477844E-04
  0.3888889E+00  0.0000000E+00  0.2525252E-01  0.1506255E-05  0.0000000E+00  0.2543609E-04
  0.3989899E+00  0.0000000E+00  0.2525252E-01  0.1308279E-05  0.0000000E+00  0.2600243E-04
  0.4090909E+00  0.0000000E+00  0.2525252E-01  0.1131937E-05  0.0000000E+00  0.2648642E-04
  0.4191919E+00  0.0000000E+00  0.2525252E-01  0.9830907E-06  0.0000000E+00  0.2690096E-04
  0.4292929E+00  0.0000000E+00  0.2525252E-01  0.8635076E-06  0.0000000E+00  0.2726090E-04
  0.4393939E+00  0.0000000E+00  0.2525252E-01  0.7707257E-06  0.0000000E+00  0.2758092E-04
  0.4494950E+00  0.0000000E+00  0.2525252E-01  0.6984411E-06  0.0000000E+00  0.2787353E-04
  0.4595959E+00  0.0000000E+00  0.2525252E-01  0.6372040E-06  0.0000000E+00  0.2814737E-04
  0.4696970E+00  0.0000000E+00  0.2525252E-01  0.5752628E-06  0.0000000E+00  0.2840600E-04
  0.4797980E+00  0.0000000E+00  0.2525252E-01  0.4994889E-06  0.0000000E+00  0.2864701E-04
  0.4898990E+00  0.0000000E+00  0.2525252E-01  0.3964152E-06  0.0000000E+00  0.2886151E-04
  0.5000000E+00  0.0000000E+00  0.2525252E-01  0.2534773E-06  0.0000000E+00  0.2903408E-04
  0.5101010E+00  0.0000000E+00  0.2525252E-01  0.6054146E-07  0.0000000E+00  0.2914334E-04
  0.5202020E+00  0.0000000E+00  0.2525252E-01 -0.1882947E-06  0.0000000E+00  0.2916325E-04
  0.5303030E+00  0.0000000E+00  0.2525252E-01 -0.4928400E-06  0.0000000E+00  0.2906552E-04
  0.5404040E+00  0.0000000E+00  0.2525252E-01 -0.8453946E-06  0.0000000E+00  0.2882311E-04
  0.5505050E+00  0.0000000E+00  0.2525252E-01 -0.1230530E-05  0.0000000E+00  0.2841446E-04
  0.5606061E+00  0.0000000E+00  0.2525252E-01 -0.1626740E-05  0.0000000E+00  0.2782752E-04
  0.5707071E+00  0.0000000E+00  0.2525252E-01 -0.2010004E-05  0.0000000E+00  0.2706247E-04
  0.5808081E+00  0.0000000E+00  0.2525252E-01 -0.2358218E-05  0.0000000E+00  0.2613174E-04
  0.5909091E+00  0.0000000E+00  0.2525252E-01 -0.2654730E-05  0.0000000E+00  0.2505765E-04
  0.6010101E+00  0.0000000E+00  0.2525252E-01 -0.2889943E-05  0.0000000E+00  0.2386861E-04
  0.6111111E+00  0.0000000E+00  0.2525252E-01 -0.3061060E-05  0.0000000E+00  0.2259516E-04
  0.6212121E+00  0.0000000E+00  0.2525252E-01 -0.3170661E-05  0.0000000E+00  0.2126684E-04
  0.6313131E+00  0.0000000E+00  0.2525252E-01 -0.3224885E-05  0.0000000E+00  0.1991013E-04
  0.6414142E+00  0.0000000E+00  0.2525252E-01 -0.3231739E-05  0.0000000E+00  0.1854742E-04
  0.6515151E+00  0.0000000E+00  0.2525252E-01 -0.3199786E-05  0.0000000E+00  0.1719680E-04
  0.6616161E+00  0.0000000E+00  0.2525252E-01 -0.3137263E-05  0.0000000E+00  0.1587227E-04
  0.6717172E+00  0.0000000E+00  0.2525252E-01 -0.3051577E-05  0.0000000E+00  0.1458426E-04
  0.6818182E+00  0.0000000E+00  0.2525252E-01 -0.2949074E-05  0.0000000E+00  0.1334018E-04
  0.6919192E+00  0.0000000E+00  0.2525252E-01 -0.2834992E-05  0.0000000E+00  0.1214501E-04
  0.7020202E+00  0.0000000E+00  0.2525252E-01 -0.2713532E-05  0.0000000E+00  0.1100182E-04
  0.7121212E+00  0.0000000E+00  0.2525252E-01 -0.2587973E-05  0.0000000E+00  0.9912251E-05
  0.7222222E+00  0.0000000E+00  0.2525252E-01 -0.2460814E-05  0.0000000E+00  0.8876824E-05
  0.7323232E+00  0.0000000E+00  0.2525252E-01 -0.2333916E-05  0.0000000E+00  0.7895282E-05
  0.7424242E+00  0.0000000E+00  0.2525252E-01 -0.2208621E-05  0.0000000E+00  0.6966799E-05
  0.7525253E+00  0.0000000E+00  0.2525252E-01 -0.2085870E-05  0.0000000E+00  0.6090163E-05
  0.7626263E+00  0.0000000E+00  0.2525252E-01 -0.1966290E-05  0.0000000E+00  0.5263913E-05
  0.7727273E+00  0.0000000E+00  0.2525252E-01 -0.1850268E-05  0.0000000E+00  0.4486439E-05
  0.7828283E+00  0.0000000E+00  0.2525252E-01 -0.1738012E-05  0.0000000E+00  0.3756056E-05
  0.7929293E+00  0.0000000E+00  0.2525252E-01 -0.1629604E-05  0.0000000E+00  0.3071061E-05
  0.8030303E+00  0.0000000E+00  0.2525252E-01 -0.1525028E-05  0.0000000E+00  0.2429770E-05
  0.8131313E+00  0.0000000E+00  0.2525252E-01 -0.1424203E-05  0.0000000E+00  0.1830542E-05
  0.8232324E+00  0.0000000E+00  0.2525252E-01 -0.1326997E-05  0.0000000E+00  0.1271802E-05
  0.8333333E+00  0.0000000E+00  0.2525252E-01 -0.1233249E-05  0.0000000E+00  0.7520515E-06
  0.8434343E+00  0.0000000E+00  0.2525252E-01 -0.1142780E-05  0.0000000E+00  0.2698814E-06
  0.8535354E+00  0.0000000E+00  0.2525252E-01 -0.1055326E-05  0.0000000E+00 -0.1755195E-06
  0.8636364E+00  0.0000000E+00  0.2525252E-01 -0.9705151E-06  0.0000000E+00 -0.5853560E-06
  0.8737374E+00  0.0000000E+00  0.2525252E-01 -0.8883508E-06  0.0000000E+00 -0.9613070E-06
  0.8838384E+00  0.0000000E+00  0.2525252E-01 -0.8086122E-06  0.0000000E+00 -0.1304475E-05
  0.8939394E+00  0.0000000E+00  0.2525252E-01 -0.7310851E-06  0.0000000E+00 -0.1615811E-05
  0.9040404E+00  0.0000000E+00  0.2525252E-01 -0.6555594E-06  0.0000000E+00 -0.1896176E-05
  0.9141414E+00  0.0000000E+00  0.2525252E-01 -0.5818289E-06  0.0000000E+00 -0.2146347E-05
  0.9242424E+00  0.0000000E+00  0.2525252E-01 -0.5096916E-06  0.0000000E+00 -0.2367014E-05
  0.9343435E+00  0.0000000E+00  0.2525252E-01 -0.4389495E-06  0.0000000E+00 -0.2558787E-05
  0.9444444E+00  0.0000000E+00  0.2525252E-01 -0.3694082E-06  0.0000000E+00 -0.2722194E-05
  0.9545454E+00  0.0000000E+00  0.2525252E-01 -0.3008770E-06  0.0000000E+00 -0.2857686E-05
  0.9646465E+00  0.0000000E+00  0.2525252E-01 -0.2331679E-06  0.0000000E+00 -0.2965636E-05
  0.9747475E+00  0.0000000E+00  0.2525252E-01 -0.1660956E-06  0.0000000E+00 -0.3046341E-05
  0.9848485E+00  0.0000000E+00  0.2525252E-01 -0.9947648E-07  0.0000000E+00 -0.3100021E-05
  0.9974747E+00  0.0000000E+00  0.2525252E-01 -0.3312872E-07  0.0000000E+00 -0.3126825E-05
  0.5050505E-02  0.0000000E+00  0.3535353E-01  0.6543814E-07  0.0000000E+00 -0.1129913E-05
  0.1515152E-01  0.0000000E+00  0.3535353E-01  0.1964837E-06  0.0000000E+00 -0.1091723E-05
  0.2525252E-01  0.0000000E+00  0.3535353E-01  0.3280357E-06  0.0000000E+00 -0.1015239E-05
  0.3535353E-01  0.0000000E+00  0.3535353E-01  0.4604266E-06  0.0000000E+00 -0.9002525E-06
  0.4545455E-01  0.0000000E+00  0.3535353E-01  0.5939806E-06  0.0000000E+00 -0.7464541E-06
  0.5555556E-01  0.0000000E+00  0.3535353E-01  0.7290100E-06  0.0000000E+00 -0.5534332E-06
  0.6565657E-01  0.0000000E+00  0.3535353E-01  0.8658106E-06  0.0000000E+00 -0.3206851E-06
  0.7575758E-01  0.0000000E+00  0.3535353E-01  0.1004654E-05  0.0000000E+00 -0.4748376E-07
  0.8585858E-01  0.0000000E+00  0.3535353E-01  0.1145538E-05  0.0000000E+00  0.2671558E-06
  0.9595960E-01  0.0000000E+00  0.3535353E-01  0.1288924E-05  0.0000000E+00  0.6239253E-06
  0.1060606E+00  0.0000000E+00  0.3535353E-01  0.1434990E-05  0.0000000E+00  0.1023422E-05
  0.1161616E+00  0.0000000E+00  0.3535353E-01  0.1583840E-05  0.0000000E+00  0.1466550E-05
  0.1262626E+00  0.0000000E+00  0.3535353E-01  0.1735511E-05  0.0000000E+00  0.1954255E-05
  0.1363636E+00  0.0000000E+00  0.3535353E-01  0.1889962E-05  0.0000000E+00  0.2487511E-05
  0.1464646E+00  0.0000000E+00  0.3535353E-01  0.2047052E-05  0.0000000E+00  0.3067295E-05
  0.1565657E+00  0.0000000E+00  0.3535353E-01  0.2206521E-05  0.0000000E+00  0.3694559E-05
  0.1666667E+00  0.0000000E+00  0.3535353E-01  0.2367961E-05  0.0000000E+00  0.4370196E-05
  0.1767677E+00  0.0000000E+00  0.3535353E-01  0.2530788E-05  0.0000000E+00  0.5095002E-05
  0.1868687E+00  0.0000000E+00  0.3535353E-01  0.2694207E-05  0.0000000E+00  0.5869616E-05
  0.1969697E+00  0.0000000E+00  0.3535353E-01  0.2857171E-05  0.0000000E+00  0.6694467E-05
  0.2070707E+00  0.0000000E+00  0.3535353E-01  0.3018322E-05  0.0000000E+00  0.7569687E-05
  0.2171717E+00  0.0000000E+00  0.3535353E-01  0.3175947E-05  0.0000000E+00  0.8495015E-05
  0.2272727E+00  0.0000000E+00  0.3535353E-01  0.3327914E-05  0.0000000E+00  0.9469688E-05
  0.2373737E+00  0.0000000E+00  0.3535353E-01  0.3471617E-05  0.0000000E+00  0.1049229E-04
  0.2474747E+00  0.0000000E+00  0.3535353E-01  0.3603916E-05  0.0000000E+00  0.1156060E-04
  0.2575758E+00  0.0000000E+00  0.3535353E-01  0.3721099E-05  0.0000000E+00  0.1267136E-04
  0.2676768E+00  0.0000000E+00  0.3535353E-01  0.3818857E-05  0.0000000E+00  0.1382012E-04
  0.2777778E+00  0.0000000E+00  0.3535353E-01  0.3892318E-05  0.0000000E+00  0.1500088E-04
  0.2878788E+00  0.0000000E+00  0.3535353E-01  0.3936136E-05  0.0000000E+00  0.1620594E-04
  0.2979798E+00  0.0000000E+00  0.3535353E-01  0.3944698E-05  0.0000000E+00  0.1742554E-04