title = "dataset water"
variables = "time", "absolute mass balance error", "relative mass balance error", "absolute cumulative mass balance error", "relative cumulative mass balance error" 
zone t = "mass balance error -  variably saturated flow", f=point
  1.0000E-10  5.4229E-17  2.9882E-14  5.4229E-17  2.9882E-14
  6.0000E-10  2.7813E-16  1.5326E-13  3.3236E-16  1.8314E-13
  3.1000E-09 -9.9029E-19 -5.4569E-16  3.3137E-16  1.8260E-13
  1.5600E-08  1.8730E-18  1.0321E-15  3.3324E-16  1.8363E-13
  7.8100E-08  1.7445E-18  9.6127E-16  3.3498E-16  1.8459E-13
  3.9060E-07 -1.3890E-17 -7.6540E-15  3.2109E-16  1.7693E-13
  1.9531E-06 -2.0549E-15 -1.1323E-12 -1.7338E-15 -9.5541E-13
  9.7656E-06 -1.4584E-18 -8.0361E-16 -1.7353E-15 -9.5621E-13
  4.8828E-05 -2.0760E-16 -1.1440E-13 -1.9429E-15 -1.0706E-12
  2.4414E-04 -3.9844E-19 -2.1954E-16 -1.9433E-15 -1.0707E-12
  1.2207E-03 -3.4856E-16 -1.9198E-13 -2.2918E-15 -1.2623E-12
  6.1035E-03 -2.3507E-16 -1.2935E-13 -2.5269E-15 -1.3904E-12
  2.3462E-02  6.4272E-15  3.5301E-12  3.9003E-15  2.1422E-12
  8.7359E-02 -1.4858E-13 -8.1330E-11 -1.4468E-13 -7.9195E-11
  3.0004E-01 -2.2569E-11 -1.2280E-08 -2.2714E-11 -1.2359E-08
  1.0000E+00 -1.4945E-10 -8.0463E-08 -1.7216E-10 -9.2693E-08
  2.0000E+00  2.1955E-04  1.1952E-01  2.1955E-04  1.1952E-01
  3.0000E+00 -4.5864E-10 -2.5044E-07  2.1955E-04  1.1989E-01
  4.0000E+00 -3.1115E-10 -1.7018E-07  2.1955E-04  1.2008E-01
  5.0000E+00 -2.7502E-10 -1.5058E-07  2.1955E-04  1.2021E-01
  6.0000E+00 -4.9788E-10 -2.7280E-07  2.1955E-04  1.2030E-01
  7.0000E+00 -5.3822E-10 -2.9506E-07  2.1955E-04  1.2036E-01
  8.0000E+00 -6.0952E-11 -3.3433E-08  2.1955E-04  1.2042E-01
  9.0000E+00 -1.7394E-10 -9.5449E-08  2.1955E-04  1.2048E-01
  1.0000E+01 -9.6329E-11 -5.2883E-08  2.1955E-04  1.2053E-01
  1.1000E+01 -1.2000E-10 -6.5908E-08  2.1955E-04  1.2058E-01
  1.2000E+01 -7.2369E-11 -3.9765E-08  2.1955E-04  1.2064E-01
  1.3000E+01 -9.5184E-11 -5.2326E-08  2.1955E-04  1.2069E-01
  1.4000E+01  4.3837E-11  2.4112E-08  2.1955E-04  1.2076E-01
  1.5000E+01  9.6564E-11  5.3149E-08  2.1955E-04  1.2084E-01
  1.6000E+01  6.0512E-11  3.3330E-08  2.1955E-04  1.2093E-01
  1.7000E+01  1.3354E-10  7.3619E-08  2.1955E-04  1.2103E-01
  1.8000E+01  1.9244E-11  1.0625E-08  2.1955E-04  1.2121E-01
  1.9000E+01  2.8301E-11  1.5652E-08  2.1955E-04  1.2142E-01
  2.0000E+01  5.3452E-11  2.9612E-08  2.1955E-04  1.2163E-01
  2.1000E+01  1.2429E-11  6.9013E-09  2.1955E-04  1.2191E-01
  2.2000E+01  6.5252E-11  3.6349E-08  2.1955E-04  1.2230E-01
  2.3000E+01  8.3212E-11  4.6531E-08  2.1955E-04  1.2277E-01
  2.4000E+01 -1.4254E-10 -7.9981E-08  2.1955E-04  1.2319E-01
  2.5000E+01  6.8996E-11  3.8910E-08  2.1955E-04  1.2382E-01
  2.6000E+01 -2.0638E-10 -1.1692E-07  2.1955E-04  1.2438E-01
  2.7000E+01 -3.0740E-12 -1.7527E-09  2.1955E-04  1.2518E-01
  2.8000E+01 -6.2213E-11 -3.5716E-08  2.1955E-04  1.2604E-01
  2.9000E+01 -4.5944E-12 -2.6640E-09  2.1955E-04  1.2730E-01
  3.0000E+01 -8.2192E-11 -4.8076E-08  2.1955E-04  1.2842E-01
  3.1000E+01 -1.8104E-11 -1.0680E-08  2.1955E-04  1.2952E-01
  3.2000E+01 -1.8626E-10 -1.1101E-07  2.1955E-04  1.3085E-01
  3.3000E+01  4.8597E-13  2.9313E-10  2.1955E-04  1.3243E-01
  3.3500E+01 -5.2476E-07 -3.1863E-04  2.1902E-04  1.3299E-01
  3.4000E+01 -5.3503E-07 -3.2691E-04  2.1849E-04  1.3350E-01
  3.4500E+01 -8.2944E-07 -5.1021E-04  2.1766E-04  1.3389E-01
  3.5000E+01 -8.4411E-07 -5.2253E-04  2.1682E-04  1.3422E-01
  3.5500E+01 -1.0617E-06 -6.6155E-04  2.1575E-04  1.3444E-01
  3.6000E+01 -1.0767E-06 -6.7508E-04  2.1468E-04  1.3460E-01
  3.6250E+01 -5.5665E-07 -3.5032E-04  2.1412E-04  1.3475E-01
  3.6625E+01 -8.4500E-07 -5.3464E-04  2.1328E-04  1.3494E-01
  3.7000E+01 -8.5403E-07 -5.4311E-04  2.1242E-04  1.3509E-01
  3.7250E+01 -6.4645E-07 -4.1268E-04  2.1178E-04  1.3519E-01
  3.7438E+01 -4.8776E-07 -3.1224E-04  2.1129E-04  1.3526E-01
  3.7578E+01 -3.6737E-07 -2.3565E-04  2.1092E-04  1.3530E-01
  3.7789E+01 -5.5426E-07 -3.5658E-04  2.1037E-04  1.3534E-01
  3.8000E+01 -5.5723E-07 -3.5953E-04  2.0981E-04  1.3537E-01
  3.8500E+01 -1.0901E-06 -7.0741E-04  2.0872E-04  1.3545E-01
  3.9000E+01 -1.0986E-06 -7.1683E-04  2.0762E-04  1.3547E-01
  3.9250E+01 -7.0581E-07 -4.6200E-04  2.0691E-04  1.3544E-01
  3.9625E+01 -1.0658E-06 -7.0076E-04  2.0585E-04  1.3535E-01
  4.0000E+01 -1.0722E-06 -7.0804E-04  2.0478E-04  1.3522E-01
  4.0500E+01 -1.9404E-06 -1.2894E-03  2.0284E-04  1.3479E-01
  4.1000E+01 -1.9552E-06 -1.3071E-03  2.0088E-04  1.3429E-01
  4.1250E+01 -2.1770E-06 -1.4611E-03  1.9870E-04  1.3336E-01
  4.2000E+01 -6.6250E-06 -4.4935E-03  1.9208E-04  1.3028E-01
  4.2250E+01 -2.4431E-06 -1.6632E-03  1.8964E-04  1.2910E-01
  4.2625E+01 -3.6890E-06 -2.5245E-03  1.8595E-04  1.2725E-01
  4.2812E+01 -1.8502E-06 -1.2694E-03  1.8410E-04  1.2630E-01
  4.3000E+01 -1.8556E-06 -1.2762E-03  1.8224E-04  1.2534E-01
  4.3250E+01 -2.9040E-06 -2.0037E-03  1.7934E-04  1.2374E-01
  4.4000E+01 -8.7911E-06 -6.1197E-03  1.7055E-04  1.1872E-01
  4.4250E+01 -3.5021E-06 -2.4461E-03  1.6704E-04  1.1667E-01
  4.4438E+01 -2.6338E-06 -1.8441E-03  1.6441E-04  1.1512E-01
  4.4578E+01 -1.9792E-06 -1.3883E-03  1.6243E-04  1.1394E-01
  4.5000E+01 -5.9680E-06 -4.2074E-03  1.5646E-04  1.1031E-01
  4.5250E+01 -3.6890E-06 -2.6093E-03  1.5277E-04  1.0806E-01
  4.5438E+01 -2.7734E-06 -1.9663E-03  1.5000E-04  1.0635E-01
  4.5719E+01 -4.1738E-06 -2.9694E-03  1.4583E-04  1.0375E-01
  4.6000E+01 -4.1865E-06 -2.9882E-03  1.4164E-04  1.0110E-01
  4.6250E+01 -4.5746E-06 -3.2766E-03  1.3707E-04  9.8174E-02
  4.6438E+01 -3.4393E-06 -2.4696E-03  1.3363E-04  9.5951E-02
  4.6578E+01 -2.5839E-06 -1.8588E-03  1.3104E-04  9.4269E-02
  4.7000E+01 -7.7867E-06 -5.6304E-03  1.2326E-04  8.9124E-02
  4.7250E+01 -4.6921E-06 -3.4031E-03  1.1856E-04  8.5992E-02
  4.7438E+01 -3.5255E-06 -2.5626E-03  1.1504E-04  8.3619E-02
  4.8000E+01 -1.0626E-05 -7.7708E-03  1.0441E-04  7.6357E-02
  4.8250E+01 -5.8492E-06 -4.2916E-03  9.8563E-05  7.2316E-02
  4.8438E+01 -4.3954E-06 -3.2326E-03  9.4168E-05  6.9256E-02
  4.8719E+01 -6.6104E-06 -4.8782E-03  8.7557E-05  6.4613E-02
  4.8859E+01 -3.3093E-06 -2.4462E-03  8.4248E-05  6.2275E-02
  4.9000E+01 -3.3133E-06 -2.4531E-03  8.0935E-05  5.9923E-02
  4.9125E+01 -3.0979E-06 -2.2970E-03  7.7837E-05  5.7715E-02
  4.9562E+01 -1.0880E-05 -8.1061E-03  6.6957E-05  4.9888E-02
  5.0000E+01 -1.0912E-05 -8.1671E-03  5.6045E-05  4.1947E-02
  5.0500E+01 -1.4019E-05 -1.0560E-02  4.2026E-05  3.1657E-02
  5.0750E+01 -7.0245E-06 -5.3076E-03  3.5002E-05  2.6447E-02
  5.1000E+01 -7.0383E-06 -5.3338E-03  2.7964E-05  2.1191E-02
  5.1250E+01 -7.4381E-06 -5.6538E-03  2.0525E-05  1.5602E-02
  5.1438E+01 -5.5865E-06 -4.2556E-03  1.4939E-05  1.1380E-02
  5.1719E+01 -8.3957E-06 -6.4157E-03  6.5432E-06  5.0001E-03
  5.2000E+01 -8.4104E-06 -6.4462E-03 -1.8671E-06 -1.4311E-03
  5.2250E+01 -7.3835E-06 -5.6737E-03 -9.2506E-06 -7.1085E-03
  5.2625E+01 -1.1096E-05 -8.5582E-03 -2.0347E-05 -1.5693E-02
  5.3000E+01 -1.1116E-05 -8.6029E-03 -3.1463E-05 -2.4350E-02
  5.3500E+01 -1.4296E-05 -1.1120E-02 -4.5759E-05 -3.5591E-02
  5.4000E+01 -1.4329E-05 -1.1197E-02 -6.0088E-05 -4.6955E-02
  5.4250E+01 -9.3926E-06 -7.3616E-03 -6.9481E-05 -5.4457E-02
  5.4438E+01 -7.0535E-06 -5.5402E-03 -7.6534E-05 -6.0114E-02
  5.4719E+01 -1.0598E-05 -8.3497E-03 -8.7132E-05 -6.8648E-02
  5.5000E+01 -1.0614E-05 -8.3864E-03 -9.7746E-05 -7.7234E-02
  5.5500E+01 -2.1079E-05 -1.6748E-02 -1.1883E-04 -9.4409E-02
  5.6000E+01 -2.1129E-05 -1.6873E-02 -1.3995E-04 -1.1176E-01
  5.6250E+01 -1.0873E-05 -8.7050E-03 -1.5083E-04 -1.2075E-01
  5.6438E+01 -8.1616E-06 -6.5462E-03 -1.5899E-04 -1.2752E-01
  5.6719E+01 -1.2256E-05 -9.8566E-03 -1.7125E-04 -1.3772E-01
  5.7000E+01 -1.2269E-05 -9.8919E-03 -1.8352E-04 -1.4796E-01
  5.7250E+01 -1.1430E-05 -9.2415E-03 -1.9495E-04 -1.5761E-01
  5.7438E+01 -8.5808E-06 -6.9517E-03 -2.0353E-04 -1.6489E-01
  5.7719E+01 -1.2887E-05 -1.0471E-02 -2.1641E-04 -1.7583E-01
  5.8000E+01 -1.2902E-05 -1.0512E-02 -2.2932E-04 -1.8683E-01
  5.8250E+01 -1.2086E-05 -9.8736E-03 -2.4140E-04 -1.9721E-01
  5.8625E+01 -1.8158E-05 -1.4891E-02 -2.5956E-04 -2.1285E-01
  5.9000E+01 -1.8184E-05 -1.4965E-02 -2.7774E-04 -2.2858E-01
  5.9250E+01 -1.3662E-05 -1.1275E-02 -2.9141E-04 -2.4048E-01
  5.9625E+01 -2.0527E-05 -1.7004E-02 -3.1193E-04 -2.5839E-01
  6.0000E+01 -2.0556E-05 -1.7088E-02 -3.3249E-04 -2.7640E-01
