title = "dataset water"
variables = "x", "y", "z", "vx", "vy", "vz"
zone t = "velocities, solution time =  5.800E+01 days        " i =   99, j =   99, k =    1,  f=point
  0.5050505E-02  0.0000000E+00  0.5050505E-02  0.2923333E-06  0.0000000E+00  0.3565481E-03
  0.1515152E-01  0.0000000E+00  0.5050505E-02  0.8795969E-06  0.0000000E+00  0.3577756E-03
  0.2525252E-01  0.0000000E+00  0.5050505E-02  0.1474852E-05  0.0000000E+00  0.3602420E-03
  0.3535353E-01  0.0000000E+00  0.5050505E-02  0.2083926E-05  0.0000000E+00  0.3639710E-03
  0.4545455E-01  0.0000000E+00  0.5050505E-02  0.2713315E-05  0.0000000E+00  0.3690001E-03
  0.5555556E-01  0.0000000E+00  0.5050505E-02  0.3370483E-05  0.0000000E+00  0.3753819E-03
  0.6565657E-01  0.0000000E+00  0.5050505E-02  0.4064245E-05  0.0000000E+00  0.3831867E-03
  0.7575758E-01  0.0000000E+00  0.5050505E-02  0.4805319E-05  0.0000000E+00  0.3925066E-03
  0.8585858E-01  0.0000000E+00  0.5050505E-02  0.5607196E-05  0.0000000E+00  0.4034601E-03
  0.9595960E-01  0.0000000E+00  0.5050505E-02  0.6487633E-05  0.0000000E+00  0.4162002E-03
  0.1060606E+00  0.0000000E+00  0.5050505E-02  0.7471399E-05  0.0000000E+00  0.4309267E-03
  0.1161616E+00  0.0000000E+00  0.5050505E-02  0.8595602E-05  0.0000000E+00  0.4479072E-03
  0.1262626E+00  0.0000000E+00  0.5050505E-02  0.9920582E-05  0.0000000E+00  0.4675164E-03
  0.1363636E+00  0.0000000E+00  0.5050505E-02  0.1155373E-04  0.0000000E+00  0.4903125E-03
  0.1464646E+00  0.0000000E+00  0.5050505E-02  0.1370656E-04  0.0000000E+00  0.5172019E-03
  0.1565657E+00  0.0000000E+00  0.5050505E-02  0.1684845E-04  0.0000000E+00  0.5498343E-03
  0.1666667E+00  0.0000000E+00  0.5050505E-02  0.2217533E-04  0.0000000E+00  0.5916795E-03
  0.1767677E+00  0.0000000E+00  0.5050505E-02  0.3321413E-04  0.0000000E+00  0.6513880E-03
  0.1868687E+00  0.0000000E+00  0.5050505E-02  0.2906312E-04  0.0000000E+00  0.7189445E-03
  0.1969697E+00  0.0000000E+00  0.5050505E-02  0.1651068E-04  0.0000000E+00  0.7687434E-03
  0.2070707E+00  0.0000000E+00  0.5050505E-02  0.1866785E-04  0.0000000E+00  0.8074566E-03
  0.2171717E+00  0.0000000E+00  0.5050505E-02  0.2115973E-04  0.0000000E+00  0.8514887E-03
  0.2272727E+00  0.0000000E+00  0.5050505E-02  0.2301011E-04  0.0000000E+00  0.9005750E-03
  0.2373737E+00  0.0000000E+00  0.5050505E-02  0.2426314E-04  0.0000000E+00  0.9534140E-03
  0.2474747E+00  0.0000000E+00  0.5050505E-02  0.2615961E-04  0.0000000E+00  0.1010128E-02
  0.2575758E+00  0.0000000E+00  0.5050505E-02  0.2972436E-04  0.0000000E+00  0.1073412E-02
  0.2676768E+00  0.0000000E+00  0.5050505E-02  0.3595261E-04  0.0000000E+00  0.1148353E-02
  0.2777778E+00  0.0000000E+00  0.5050505E-02  0.4616988E-04  0.0000000E+00  0.1242905E-02
  0.2878788E+00  0.0000000E+00  0.5050505E-02  0.5873851E-04  0.0000000E+00  0.1365052E-02
  0.2979798E+00  0.0000000E+00  0.5050505E-02  0.2768910E-04  0.0000000E+00  0.1466753E-02
  0.3080808E+00  0.0000000E+00  0.5050505E-02  0.4313654E-04  0.0000000E+00  0.1551392E-02
  0.3181818E+00  0.0000000E+00  0.5050505E-02  0.4996133E-04  0.0000000E+00  0.1663696E-02
  0.3282828E+00  0.0000000E+00  0.5050505E-02  0.3302836E-04  0.0000000E+00  0.1764918E-02
  0.3383838E+00  0.0000000E+00  0.5050505E-02  0.2588461E-04  0.0000000E+00  0.1837673E-02
  0.3484848E+00  0.0000000E+00  0.5050505E-02  0.2020241E-04  0.0000000E+00  0.1895068E-02
  0.3585859E+00  0.0000000E+00  0.5050505E-02  0.4084760E-04  0.0000000E+00  0.1971705E-02
  0.3686869E+00  0.0000000E+00  0.5050505E-02  0.3986609E-04  0.0000000E+00  0.2073804E-02
  0.3787879E+00  0.0000000E+00  0.5050505E-02  0.7090843E-04  0.0000000E+00  0.2215794E-02
  0.3888889E+00  0.0000000E+00  0.5050505E-02  0.1535225E-03  0.0000000E+00  0.2508740E-02
  0.3989899E+00  0.0000000E+00  0.5050505E-02 -0.1125551E-03  0.0000000E+00  0.2560830E-02
  0.4090909E+00  0.0000000E+00  0.5050505E-02 -0.4239127E-04  0.0000000E+00  0.2355591E-02
  0.4191919E+00  0.0000000E+00  0.5050505E-02 -0.2378093E-04  0.0000000E+00  0.2268946E-02
  0.4292929E+00  0.0000000E+00  0.5050505E-02 -0.1037336E-04  0.0000000E+00  0.2224464E-02
  0.4393939E+00  0.0000000E+00  0.5050505E-02 -0.1273090E-04  0.0000000E+00  0.2194498E-02
  0.4494950E+00  0.0000000E+00  0.5050505E-02 -0.1966624E-04  0.0000000E+00  0.2152694E-02
  0.4595959E+00  0.0000000E+00  0.5050505E-02 -0.5699064E-04  0.0000000E+00  0.2055187E-02
  0.4696970E+00  0.0000000E+00  0.5050505E-02 -0.1859033E-04  0.0000000E+00  0.1959576E-02
  0.4797980E+00  0.0000000E+00  0.5050505E-02  0.3815658E-05  0.0000000E+00  0.1940961E-02
  0.4898990E+00  0.0000000E+00  0.5050505E-02  0.2443134E-04  0.0000000E+00  0.1976584E-02
  0.5000000E+00  0.0000000E+00  0.5050505E-02  0.6333433E-04  0.0000000E+00  0.2087845E-02
  0.5101010E+00  0.0000000E+00  0.5050505E-02  0.1703243E-04  0.0000000E+00  0.2190320E-02
  0.5202020E+00  0.0000000E+00  0.5050505E-02  0.7778459E-04  0.0000000E+00  0.2313457E-02
  0.5303030E+00  0.0000000E+00  0.5050505E-02  0.7935731E-04  0.0000000E+00  0.2520074E-02
  0.5404040E+00  0.0000000E+00  0.5050505E-02  0.9502502E-04  0.0000000E+00  0.2754919E-02
  0.5505050E+00  0.0000000E+00  0.5050505E-02  0.9661813E-04  0.0000000E+00  0.3019552E-02
  0.5606061E+00  0.0000000E+00  0.5050505E-02 -0.1110337E-03  0.0000000E+00  0.3000029E-02
  0.5707071E+00  0.0000000E+00  0.5050505E-02 -0.6477594E-04  0.0000000E+00  0.2756629E-02
  0.5808081E+00  0.0000000E+00  0.5050505E-02 -0.4909742E-05  0.0000000E+00  0.2661347E-02
  0.5909091E+00  0.0000000E+00  0.5050505E-02 -0.3537308E-04  0.0000000E+00  0.2606852E-02
  0.6010101E+00  0.0000000E+00  0.5050505E-02 -0.5436597E-04  0.0000000E+00  0.2486778E-02
  0.6111111E+00  0.0000000E+00  0.5050505E-02 -0.6382716E-04  0.0000000E+00  0.2331199E-02
  0.6212121E+00  0.0000000E+00  0.5050505E-02 -0.4811007E-04  0.0000000E+00  0.2185985E-02
  0.6313131E+00  0.0000000E+00  0.5050505E-02 -0.7564852E-04  0.0000000E+00  0.2028783E-02
  0.6414142E+00  0.0000000E+00  0.5050505E-02 -0.4417077E-04  0.0000000E+00  0.1878553E-02
  0.6515151E+00  0.0000000E+00  0.5050505E-02 -0.6861130E-04  0.0000000E+00  0.1739878E-02
  0.6616161E+00  0.0000000E+00  0.5050505E-02 -0.4957478E-04  0.0000000E+00  0.1596473E-02
  0.6717172E+00  0.0000000E+00  0.5050505E-02 -0.3433005E-04  0.0000000E+00  0.1495863E-02
  0.6818182E+00  0.0000000E+00  0.5050505E-02 -0.6267031E-04  0.0000000E+00  0.1381460E-02
  0.6919192E+00  0.0000000E+00  0.5050505E-02 -0.3327634E-04  0.0000000E+00  0.1269333E-02
  0.7020202E+00  0.0000000E+00  0.5050505E-02 -0.2961046E-04  0.0000000E+00  0.1196545E-02
  0.7121212E+00  0.0000000E+00  0.5050505E-02 -0.4086487E-04  0.0000000E+00  0.1115829E-02
  0.7222222E+00  0.0000000E+00  0.5050505E-02 -0.4358214E-04  0.0000000E+00  0.1020126E-02
  0.7323232E+00  0.0000000E+00  0.5050505E-02 -0.3516616E-04  0.0000000E+00  0.9317446E-03
  0.7424242E+00  0.0000000E+00  0.5050505E-02 -0.3150759E-04  0.0000000E+00  0.8575877E-03
  0.7525253E+00  0.0000000E+00  0.5050505E-02 -0.2863105E-04  0.0000000E+00  0.7912263E-03
  0.7626263E+00  0.0000000E+00  0.5050505E-02 -0.2694257E-04  0.0000000E+00  0.7303485E-03
  0.7727273E+00  0.0000000E+00  0.5050505E-02 -0.2609495E-04  0.0000000E+00  0.6726495E-03
  0.7828283E+00  0.0000000E+00  0.5050505E-02 -0.2369627E-04  0.0000000E+00  0.6188240E-03
  0.7929293E+00  0.0000000E+00  0.5050505E-02 -0.2084098E-04  0.0000000E+00  0.5709517E-03
  0.8030303E+00  0.0000000E+00  0.5050505E-02 -0.1814791E-04  0.0000000E+00  0.5292525E-03
  0.8131313E+00  0.0000000E+00  0.5050505E-02 -0.1580196E-04  0.0000000E+00  0.4931005E-03
  0.8232324E+00  0.0000000E+00  0.5050505E-02 -0.1380884E-04  0.0000000E+00  0.4616885E-03
  0.8333333E+00  0.0000000E+00  0.5050505E-02 -0.1212004E-04  0.0000000E+00  0.4342734E-03
  0.8434343E+00  0.0000000E+00  0.5050505E-02 -0.1067921E-04  0.0000000E+00  0.4102373E-03
  0.8535354E+00  0.0000000E+00  0.5050505E-02 -0.9436534E-05  0.0000000E+00  0.3890845E-03
  0.8636364E+00  0.0000000E+00  0.5050505E-02 -0.8351583E-05  0.0000000E+00  0.3704216E-03
  0.8737374E+00  0.0000000E+00  0.5050505E-02 -0.7392624E-05  0.0000000E+00  0.3539361E-03
  0.8838384E+00  0.0000000E+00  0.5050505E-02 -0.6534979E-05  0.0000000E+00  0.3393784E-03
  0.8939394E+00  0.0000000E+00  0.5050505E-02 -0.5759418E-05  0.0000000E+00  0.3265478E-03
  0.9040404E+00  0.0000000E+00  0.5050505E-02 -0.5050813E-05  0.0000000E+00  0.3152815E-03
  0.9141414E+00  0.0000000E+00  0.5050505E-02 -0.4397099E-05  0.0000000E+00  0.3054467E-03
  0.9242424E+00  0.0000000E+00  0.5050505E-02 -0.3788480E-05  0.0000000E+00  0.2969347E-03
  0.9343435E+00  0.0000000E+00  0.5050505E-02 -0.3216847E-05  0.0000000E+00  0.2896565E-03
  0.9444444E+00  0.0000000E+00  0.5050505E-02 -0.2675344E-05  0.0000000E+00  0.2835393E-03
  0.9545454E+00  0.0000000E+00  0.5050505E-02 -0.2158049E-05  0.0000000E+00  0.2785244E-03
  0.9646465E+00  0.0000000E+00  0.5050505E-02 -0.1659733E-05  0.0000000E+00  0.2745651E-03
  0.9747475E+00  0.0000000E+00  0.5050505E-02 -0.1175676E-05  0.0000000E+00  0.2716257E-03
  0.9848485E+00  0.0000000E+00  0.5050505E-02 -0.7015301E-06  0.0000000E+00  0.2696801E-03
  0.9974747E+00  0.0000000E+00  0.5050505E-02 -0.2332068E-06  0.0000000E+00  0.2687115E-03
  0.5050505E-02  0.0000000E+00  0.1515152E-01  0.8736965E-06  0.0000000E+00  0.3557898E-03
  0.1515152E-01  0.0000000E+00  0.1515152E-01  0.2628815E-05  0.0000000E+00  0.3570089E-03
  0.2525252E-01  0.0000000E+00  0.1515152E-01  0.4407655E-05  0.0000000E+00  0.3594578E-03
  0.3535353E-01  0.0000000E+00  0.1515152E-01  0.6227456E-05  0.0000000E+00  0.3631595E-03
  0.4545455E-01  0.0000000E+00  0.1515152E-01  0.8107422E-05  0.0000000E+00  0.3681497E-03
  0.5555556E-01  0.0000000E+00  0.1515152E-01  0.1006957E-04  0.0000000E+00  0.3744789E-03
  0.6565657E-01  0.0000000E+00  0.1515152E-01  0.1213982E-04  0.0000000E+00  0.3822146E-03
  0.7575758E-01  0.0000000E+00  0.1515152E-01  0.1434951E-04  0.0000000E+00  0.3914444E-03
  0.8585858E-01  0.0000000E+00  0.1515152E-01  0.1673768E-04  0.0000000E+00  0.4022801E-03
  0.9595960E-01  0.0000000E+00  0.1515152E-01  0.1935501E-04  0.0000000E+00  0.4148639E-03
  0.1060606E+00  0.0000000E+00  0.1515152E-01  0.2227080E-04  0.0000000E+00  0.4293764E-03
  0.1161616E+00  0.0000000E+00  0.1515152E-01  0.2558613E-04  0.0000000E+00  0.4460503E-03
  0.1262626E+00  0.0000000E+00  0.1515152E-01  0.2945976E-04  0.0000000E+00  0.4651905E-03
  0.1363636E+00  0.0000000E+00  0.1515152E-01  0.3416064E-04  0.0000000E+00  0.4872041E-03
  0.1464646E+00  0.0000000E+00  0.1515152E-01  0.4018059E-04  0.0000000E+00  0.5126361E-03
  0.1565657E+00  0.0000000E+00  0.1515152E-01  0.4849378E-04  0.0000000E+00  0.5421520E-03
  0.1666667E+00  0.0000000E+00  0.1515152E-01  0.6120842E-04  0.0000000E+00  0.5761640E-03
  0.1767677E+00  0.0000000E+00  0.1515152E-01  0.8334553E-04  0.0000000E+00  0.6126073E-03
  0.1868687E+00  0.0000000E+00  0.1515152E-01  0.9519981E-04  0.0000000E+00  0.6710525E-03
  0.1969697E+00  0.0000000E+00  0.1515152E-01  0.6605679E-04  0.0000000E+00  0.7474323E-03
  0.2070707E+00  0.0000000E+00  0.1515152E-01  0.5561006E-04  0.0000000E+00  0.8039532E-03
  0.2171717E+00  0.0000000E+00  0.1515152E-01  0.6394499E-04  0.0000000E+00  0.8483646E-03
  0.2272727E+00  0.0000000E+00  0.1515152E-01  0.6941834E-04  0.0000000E+00  0.8987577E-03
  0.2373737E+00  0.0000000E+00  0.1515152E-01  0.7202705E-04  0.0000000E+00  0.9516111E-03
  0.2474747E+00  0.0000000E+00  0.1515152E-01  0.7677130E-04  0.0000000E+00  0.1006064E-02
  0.2575758E+00  0.0000000E+00  0.1515152E-01  0.8655384E-04  0.0000000E+00  0.1065057E-02
  0.2676768E+00  0.0000000E+00  0.1515152E-01  0.1040466E-03  0.0000000E+00  0.1133378E-02
  0.2777778E+00  0.0000000E+00  0.1515152E-01  0.1361016E-03  0.0000000E+00  0.1221616E-02
  0.2878788E+00  0.0000000E+00  0.1515152E-01  0.1393194E-03  0.0000000E+00  0.1298877E-02
  0.2979798E+00  0.0000000E+00  0.1515152E-01  0.1162072E-03  0.0000000E+00  0.1397713E-02
  0.3080808E+00  0.0000000E+00  0.1515152E-01  0.1142514E-03  0.0000000E+00  0.1504770E-02
  0.3181818E+00  0.0000000E+00  0.1515152E-01  0.1473616E-03  0.0000000E+00  0.1597780E-02
  0.3282828E+00  0.0000000E+00  0.1515152E-01  0.1318823E-03  0.0000000E+00  0.1738857E-02
  0.3383838E+00  0.0000000E+00  0.1515152E-01  0.7532051E-04  0.0000000E+00  0.1852020E-02
  0.3484848E+00  0.0000000E+00  0.1515152E-01  0.3913930E-04  0.0000000E+00  0.1881594E-02
  0.3585859E+00  0.0000000E+00  0.1515152E-01  0.8720511E-04  0.0000000E+00  0.1888650E-02
  0.3686869E+00  0.0000000E+00  0.1515152E-01  0.1112829E-03  0.0000000E+00  0.1938472E-02
  0.3787879E+00  0.0000000E+00  0.1515152E-01  0.2033529E-03  0.0000000E+00  0.2061684E-02
  0.3888889E+00  0.0000000E+00  0.1515152E-01  0.3854790E-03  0.0000000E+00  0.2249401E-02
  0.3989899E+00  0.0000000E+00  0.1515152E-01 -0.2726871E-03  0.0000000E+00  0.2288556E-02
  0.4090909E+00  0.0000000E+00  0.1515152E-01 -0.1266470E-03  0.0000000E+00  0.2164434E-02
  0.4191919E+00  0.0000000E+00  0.1515152E-01 -0.4674498E-04  0.0000000E+00  0.2107604E-02
  0.4292929E+00  0.0000000E+00  0.1515152E-01 -0.5251168E-04  0.0000000E+00  0.2065466E-02
  0.4393939E+00  0.0000000E+00  0.1515152E-01 -0.3423788E-04  0.0000000E+00  0.2011093E-02
  0.4494950E+00  0.0000000E+00  0.1515152E-01 -0.5956764E-04  0.0000000E+00  0.1972131E-02
  0.4595959E+00  0.0000000E+00  0.1515152E-01 -0.1275308E-03  0.0000000E+00  0.1926251E-02
  0.4696970E+00  0.0000000E+00  0.1515152E-01 -0.4256162E-04  0.0000000E+00  0.1899898E-02
  0.4797980E+00  0.0000000E+00  0.1515152E-01  0.1260496E-04  0.0000000E+00  0.1898994E-02
  0.4898990E+00  0.0000000E+00  0.1515152E-01  0.5800081E-04  0.0000000E+00  0.1918037E-02
  0.5000000E+00  0.0000000E+00  0.1515152E-01  0.1419330E-03  0.0000000E+00  0.1951843E-02
  0.5101010E+00  0.0000000E+00  0.1515152E-01  0.7880099E-04  0.0000000E+00  0.2032372E-02
  0.5202020E+00  0.0000000E+00  0.1515152E-01  0.2036170E-03  0.0000000E+00  0.2157038E-02
  0.5303030E+00  0.0000000E+00  0.1515152E-01  0.2058897E-03  0.0000000E+00  0.2288552E-02
  0.5404040E+00  0.0000000E+00  0.1515152E-01  0.2054175E-03  0.0000000E+00  0.2379512E-02
  0.5505050E+00  0.0000000E+00  0.1515152E-01  0.2334602E-03  0.0000000E+00  0.2464186E-02
  0.5606061E+00  0.0000000E+00  0.1515152E-01 -0.2696735E-03  0.0000000E+00  0.2454074E-02
  0.5707071E+00  0.0000000E+00  0.1515152E-01 -0.1684318E-03  0.0000000E+00  0.2328679E-02
  0.5808081E+00  0.0000000E+00  0.1515152E-01 -0.2056746E-05  0.0000000E+00  0.2283722E-02
  0.5909091E+00  0.0000000E+00  0.1515152E-01 -0.1189634E-03  0.0000000E+00  0.2227929E-02
  0.6010101E+00  0.0000000E+00  0.1515152E-01 -0.1319198E-03  0.0000000E+00  0.2128998E-02
  0.6111111E+00  0.0000000E+00  0.1515152E-01 -0.1072663E-03  0.0000000E+00  0.2121252E-02
  0.6212121E+00  0.0000000E+00  0.1515152E-01 -0.1789552E-03  0.0000000E+00  0.2037875E-02
  0.6313131E+00  0.0000000E+00  0.1515152E-01 -0.1971490E-03  0.0000000E+00  0.1870220E-02
  0.6414142E+00  0.0000000E+00  0.1515152E-01 -0.1090877E-03  0.0000000E+00  0.1783678E-02
  0.6515151E+00  0.0000000E+00  0.1515152E-01 -0.1924649E-03  0.0000000E+00  0.1687702E-02
  0.6616161E+00  0.0000000E+00  0.1515152E-01 -0.1446260E-03  0.0000000E+00  0.1562960E-02
  0.6717172E+00  0.0000000E+00  0.1515152E-01 -0.1467705E-03  0.0000000E+00  0.1414060E-02
  0.6818182E+00  0.0000000E+00  0.1515152E-01 -0.1552161E-03  0.0000000E+00  0.1285540E-02
  0.6919192E+00  0.0000000E+00  0.1515152E-01 -0.1018561E-03  0.0000000E+00  0.1208768E-02
  0.7020202E+00  0.0000000E+00  0.1515152E-01 -0.1005563E-03  0.0000000E+00  0.1119853E-02
  0.7121212E+00  0.0000000E+00  0.1515152E-01 -0.1050296E-03  0.0000000E+00  0.1045466E-02
  0.7222222E+00  0.0000000E+00  0.1515152E-01 -0.1151937E-03  0.0000000E+00  0.9869116E-03
  0.7323232E+00  0.0000000E+00  0.1515152E-01 -0.1010797E-03  0.0000000E+00  0.9206043E-03
  0.7424242E+00  0.0000000E+00  0.1515152E-01 -0.9370309E-04  0.0000000E+00  0.8519772E-03
  0.7525253E+00  0.0000000E+00  0.1515152E-01 -0.8472326E-04  0.0000000E+00  0.7875655E-03
  0.7626263E+00  0.0000000E+00  0.1515152E-01 -0.7999397E-04  0.0000000E+00  0.7286863E-03
  0.7727273E+00  0.0000000E+00  0.1515152E-01 -0.7969757E-04  0.0000000E+00  0.6702387E-03
  0.7828283E+00  0.0000000E+00  0.1515152E-01 -0.7150688E-04  0.0000000E+00  0.6143610E-03
  0.7929293E+00  0.0000000E+00  0.1515152E-01 -0.6236742E-04  0.0000000E+00  0.5661466E-03
  0.8030303E+00  0.0000000E+00  0.1515152E-01 -0.5411365E-04  0.0000000E+00  0.5249079E-03
  0.8131313E+00  0.0000000E+00  0.1515152E-01 -0.4706850E-04  0.0000000E+00  0.4894078E-03
  0.8232324E+00  0.0000000E+00  0.1515152E-01 -0.4113341E-04  0.0000000E+00  0.4586069E-03
  0.8333333E+00  0.0000000E+00  0.1515152E-01 -0.3611925E-04  0.0000000E+00  0.4317010E-03
  0.8434343E+00  0.0000000E+00  0.1515152E-01 -0.3184330E-04  0.0000000E+00  0.4080714E-03
  0.8535354E+00  0.0000000E+00  0.1515152E-01 -0.2815316E-04  0.0000000E+00  0.3872385E-03
  0.8636364E+00  0.0000000E+00  0.1515152E-01 -0.2492818E-04  0.0000000E+00  0.3688270E-03
  0.8737374E+00  0.0000000E+00  0.1515152E-01 -0.2207463E-04  0.0000000E+00  0.3525400E-03
  0.8838384E+00  0.0000000E+00  0.1515152E-01 -0.1951998E-04  0.0000000E+00  0.3381403E-03
  0.8939394E+00  0.0000000E+00  0.1515152E-01 -0.1720779E-04  0.0000000E+00  0.3254366E-03
  0.9040404E+00  0.0000000E+00  0.1515152E-01 -0.1509366E-04  0.0000000E+00  0.3142728E-03
  0.9141414E+00  0.0000000E+00  0.1515152E-01 -0.1314214E-04  0.0000000E+00  0.3045214E-03
  0.9242424E+00  0.0000000E+00  0.1515152E-01 -0.1132440E-04  0.0000000E+00  0.2960774E-03
  0.9343435E+00  0.0000000E+00  0.1515152E-01 -0.9616514E-05  0.0000000E+00  0.2888543E-03
  0.9444444E+00  0.0000000E+00  0.1515152E-01 -0.7998221E-05  0.0000000E+00  0.2827816E-03
  0.9545454E+00  0.0000000E+00  0.1515152E-01 -0.6451979E-05  0.0000000E+00  0.2778019E-03
  0.9646465E+00  0.0000000E+00  0.1515152E-01 -0.4962272E-05  0.0000000E+00  0.2738697E-03
  0.9747475E+00  0.0000000E+00  0.1515152E-01 -0.3515080E-05  0.0000000E+00  0.2709498E-03
  0.9848485E+00  0.0000000E+00  0.1515152E-01 -0.2097466E-05  0.0000000E+00  0.2690169E-03
  0.9974747E+00  0.0000000E+00  0.1515152E-01 -0.6972495E-06  0.0000000E+00  0.2680545E-03
  0.5050505E-02  0.0000000E+00  0.2525252E-01  0.1446617E-05  0.0000000E+00  0.3543047E-03
  0.1515152E-01  0.0000000E+00  0.2525252E-01  0.4352459E-05  0.0000000E+00  0.3555074E-03
  0.2525252E-01  0.0000000E+00  0.2525252E-01  0.7296926E-05  0.0000000E+00  0.3579226E-03
  0.3535353E-01  0.0000000E+00  0.2525252E-01  0.1030800E-04  0.0000000E+00  0.3615711E-03
  0.4545455E-01  0.0000000E+00  0.2525252E-01  0.1341680E-04  0.0000000E+00  0.3664859E-03
  0.5555556E-01  0.0000000E+00  0.2525252E-01  0.1665889E-04  0.0000000E+00  0.3727136E-03
  0.6565657E-01  0.0000000E+00  0.2525252E-01  0.2007589E-04  0.0000000E+00  0.3803161E-03
  0.7575758E-01  0.0000000E+00  0.2525252E-01  0.2371757E-04  0.0000000E+00  0.3893731E-03
  0.8585858E-01  0.0000000E+00  0.2525252E-01  0.2764494E-04  0.0000000E+00  0.3999849E-03
  0.9595960E-01  0.0000000E+00  0.2525252E-01  0.3193500E-04  0.0000000E+00  0.4122753E-03
  0.1060606E+00  0.0000000E+00  0.2525252E-01  0.3668920E-04  0.0000000E+00  0.4263951E-03
  0.1161616E+00  0.0000000E+00  0.2525252E-01  0.4204843E-04  0.0000000E+00  0.4425238E-03
  0.1262626E+00  0.0000000E+00  0.2525252E-01  0.4822075E-04  0.0000000E+00  0.4608694E-03
  0.1363636E+00  0.0000000E+00  0.2525252E-01  0.5553185E-04  0.0000000E+00  0.4816584E-03
  0.1464646E+00  0.0000000E+00  0.2525252E-01  0.6451307E-04  0.0000000E+00  0.5050931E-03
  0.1565657E+00  0.0000000E+00  0.2525252E-01  0.7604077E-04  0.0000000E+00  0.5312077E-03
  0.1666667E+00  0.0000000E+00  0.2525252E-01  0.9149712E-04  0.0000000E+00  0.5594255E-03
  0.1767677E+00  0.0000000E+00  0.2525252E-01  0.1126568E-03  0.0000000E+00  0.5873979E-03
  0.1868687E+00  0.0000000E+00  0.2525252E-01  0.1396215E-03  0.0000000E+00  0.6090197E-03
  0.1969697E+00  0.0000000E+00  0.2525252E-01  0.1290266E-03  0.0000000E+00  0.6496304E-03
  0.2070707E+00  0.0000000E+00  0.2525252E-01  0.1346597E-03  0.0000000E+00  0.7485520E-03
  0.2171717E+00  0.0000000E+00  0.2525252E-01  0.1091341E-03  0.0000000E+00  0.8414384E-03
  0.2272727E+00  0.0000000E+00  0.2525252E-01  0.1181281E-03  0.0000000E+00  0.8964694E-03
  0.2373737E+00  0.0000000E+00  0.2525252E-01  0.1175214E-03  0.0000000E+00  0.9502340E-03
  0.2474747E+00  0.0000000E+00  0.2525252E-01  0.1224766E-03  0.0000000E+00  0.9999417E-03
  0.2575758E+00  0.0000000E+00  0.2525252E-01  0.1360742E-03  0.0000000E+00  0.1050615E-02
  0.2676768E+00  0.0000000E+00  0.2525252E-01  0.1588161E-03  0.0000000E+00  0.1103394E-02
  0.2777778E+00  0.0000000E+00  0.2525252E-01  0.2085382E-03  0.0000000E+00  0.1164018E-02
  0.2878788E+00  0.0000000E+00  0.2525252E-01  0.1853684E-03  0.0000000E+00  0.1227256E-02
  0.2979798E+00  0.0000000E+00  0.2525252E-01  0.2119684E-03  0.0000000E+00  0.1298881E-02
  0.3080808E+00  0.0000000E+00  0.2525252E-01  0.2031172E-03  0.0000000E+00  0.1415606E-02
  0.3181818E+00  0.0000000E+00  0.2525252E-01  0.2171869E-03  0.0000000E+00  0.1519221E-02
  0.3282828E+00  0.0000000E+00  0.2525252E-01  0.2219020E-03  0.0000000E+00  0.1580515E-02
  0.3383838E+00  0.0000000E+00  0.2525252E-01  0.1698479E-03  0.0000000E+00  0.1704398E-02
  0.3484848E+00  0.0000000E+00  0.2525252E-01  0.4968582E-04  0.0000000E+00  0.1812565E-02
  0.3585859E+00  0.0000000E+00  0.2525252E-01  0.9942785E-04  0.0000000E+00  0.1839366E-02
  0.3686869E+00  0.0000000E+00  0.2525252E-01  0.1452949E-03  0.0000000E+00  0.1855513E-02
  0.3787879E+00  0.0000000E+00  0.2525252E-01  0.2639945E-03  0.0000000E+00  0.1864340E-02
  0.3888889E+00  0.0000000E+00  0.2525252E-01  0.4327044E-03  0.0000000E+00  0.1834792E-02
  0.3989899E+00  0.0000000E+00  0.2525252E-01 -0.2945542E-03  0.0000000E+00  0.1830203E-02
  0.4090909E+00  0.0000000E+00  0.2525252E-01 -0.1609616E-03  0.0000000E+00  0.1865274E-02
  0.4191919E+00  0.0000000E+00  0.2525252E-01 -0.5436629E-04  0.0000000E+00  0.1859894E-02
  0.4292929E+00  0.0000000E+00  0.2525252E-01 -0.7520952E-04  0.0000000E+00  0.1858180E-02
  0.4393939E+00  0.0000000E+00  0.2525252E-01 -0.2267380E-04  0.0000000E+00  0.1895771E-02
  0.4494950E+00  0.0000000E+00  0.2525252E-01 -0.1204805E-03  0.0000000E+00  0.1867116E-02
  0.4595959E+00  0.0000000E+00  0.2525252E-01 -0.1373104E-03  0.0000000E+00  0.1814149E-02
  0.4696970E+00  0.0000000E+00  0.2525252E-01 -0.4262301E-04  0.0000000E+00  0.1823063E-02
  0.4797980E+00  0.0000000E+00  0.2525252E-01  0.2810848E-04  0.0000000E+00  0.1843787E-02
  0.4898990E+00  0.0000000E+00  0.2525252E-01  0.6037137E-04  0.0000000E+00  0.1850385E-02
  0.5000000E+00  0.0000000E+00  0.2525252E-01  0.1616205E-03  0.0000000E+00  0.1850991E-02
  0.5101010E+00  0.0000000E+00  0.2525252E-01  0.1614371E-03  0.0000000E+00  0.1912279E-02
  0.5202020E+00  0.0000000E+00  0.2525252E-01  0.2556232E-03  0.0000000E+00  0.1975140E-02
  0.5303030E+00  0.0000000E+00  0.2525252E-01  0.2451211E-03  0.0000000E+00  0.1979625E-02
  0.5404040E+00  0.0000000E+00  0.2525252E-01  0.2189112E-03  0.0000000E+00  0.1976323E-02
  0.5505050E+00  0.0000000E+00  0.2525252E-01  0.2870600E-03  0.0000000E+00  0.2002860E-02
  0.5606061E+00  0.0000000E+00  0.2525252E-01 -0.3145766E-03  0.0000000E+00  0.2023774E-02
  0.5707071E+00  0.0000000E+00  0.2525252E-01 -0.1890692E-03  0.0000000E+00  0.2040750E-02
  0.5808081E+00  0.0000000E+00  0.2525252E-01 -0.1458256E-04  0.0000000E+00  0.2032260E-02
  0.5909091E+00  0.0000000E+00  0.2525252E-01 -0.1886492E-03  0.0000000E+00  0.1970722E-02
  0.6010101E+00  0.0000000E+00  0.2525252E-01 -0.1616741E-03  0.0000000E+00  0.1926075E-02
  0.6111111E+00  0.0000000E+00  0.2525252E-01 -0.1558737E-03  0.0000000E+00  0.1821347E-02
  0.6212121E+00  0.0000000E+00  0.2525252E-01 -0.2940666E-03  0.0000000E+00  0.1684582E-02
  0.6313131E+00  0.0000000E+00  0.2525252E-01 -0.2606933E-03  0.0000000E+00  0.1615798E-02
  0.6414142E+00  0.0000000E+00  0.2525252E-01 -0.2012396E-03  0.0000000E+00  0.1501906E-02
  0.6515151E+00  0.0000000E+00  0.2525252E-01 -0.3105867E-03  0.0000000E+00  0.1337305E-02
  0.6616161E+00  0.0000000E+00  0.2525252E-01 -0.2452459E-03  0.0000000E+00  0.1196823E-02
  0.6717172E+00  0.0000000E+00  0.2525252E-01 -0.2330838E-03  0.0000000E+00  0.1121270E-02
  0.6818182E+00  0.0000000E+00  0.2525252E-01 -0.1918220E-03  0.0000000E+00  0.1102014E-02
  0.6919192E+00  0.0000000E+00  0.2525252E-01 -0.1496977E-03  0.0000000E+00  0.1078247E-02
  0.7020202E+00  0.0000000E+00  0.2525252E-01 -0.1423992E-03  0.0000000E+00  0.1061871E-02
  0.7121212E+00  0.0000000E+00  0.2525252E-01 -0.1640657E-03  0.0000000E+00  0.1019579E-02
  0.7222222E+00  0.0000000E+00  0.2525252E-01 -0.1573592E-03  0.0000000E+00  0.9621275E-03
  0.7323232E+00  0.0000000E+00  0.2525252E-01 -0.1606350E-03  0.0000000E+00  0.9131433E-03
  0.7424242E+00  0.0000000E+00  0.2525252E-01 -0.1571749E-03  0.0000000E+00  0.8440836E-03
  0.7525253E+00  0.0000000E+00  0.2525252E-01 -0.1367864E-03  0.0000000E+00  0.7803000E-03
  0.7626263E+00  0.0000000E+00  0.2525252E-01 -0.1288562E-03  0.0000000E+00  0.7280071E-03
  0.7727273E+00  0.0000000E+00  0.2525252E-01 -0.1406581E-03  0.0000000E+00  0.6667234E-03
  0.7828283E+00  0.0000000E+00  0.2525252E-01 -0.1202509E-03  0.0000000E+00  0.6039140E-03
  0.7929293E+00  0.0000000E+00  0.2525252E-01 -0.1031049E-03  0.0000000E+00  0.5558292E-03
  0.8030303E+00  0.0000000E+00  0.2525252E-01 -0.8897495E-04  0.0000000E+00  0.5160727E-03
  0.8131313E+00  0.0000000E+00  0.2525252E-01 -0.7731289E-04  0.0000000E+00  0.4820908E-03
  0.8232324E+00  0.0000000E+00  0.2525252E-01 -0.6760630E-04  0.0000000E+00  0.4525679E-03
  0.8333333E+00  0.0000000E+00  0.2525252E-01 -0.5943345E-04  0.0000000E+00  0.4266795E-03
  0.8434343E+00  0.0000000E+00  0.2525252E-01 -0.5246191E-04  0.0000000E+00  0.4038458E-03
  0.8535354E+00  0.0000000E+00  0.2525252E-01 -0.4643487E-04  0.0000000E+00  0.3836336E-03
  0.8636364E+00  0.0000000E+00  0.2525252E-01 -0.4115567E-04  0.0000000E+00  0.3657084E-03
  0.8737374E+00  0.0000000E+00  0.2525252E-01 -0.3647386E-04  0.0000000E+00  0.3498053E-03
  0.8838384E+00  0.0000000E+00  0.2525252E-01 -0.3227377E-04  0.0000000E+00  0.3357116E-03
  0.8939394E+00  0.0000000E+00  0.2525252E-01 -0.2846553E-04  0.0000000E+00  0.3232537E-03
  0.9040404E+00  0.0000000E+00  0.2525252E-01 -0.2497838E-04  0.0000000E+00  0.3122893E-03
  0.9141414E+00  0.0000000E+00  0.2525252E-01 -0.2175564E-04  0.0000000E+00  0.3027002E-03
  0.9242424E+00  0.0000000E+00  0.2525252E-01 -0.1875102E-04  0.0000000E+00  0.2943887E-03
  0.9343435E+00  0.0000000E+00  0.2525252E-01 -0.1592597E-04  0.0000000E+00  0.2872735E-03
  0.9444444E+00  0.0000000E+00  0.2525252E-01 -0.1324767E-04  0.0000000E+00  0.2812879E-03
  0.9545454E+00  0.0000000E+00  0.2525252E-01 -0.1068760E-04  0.0000000E+00  0.2763772E-03
  0.9646465E+00  0.0000000E+00  0.2525252E-01 -0.8220452E-05  0.0000000E+00  0.2724980E-03
  0.9747475E+00  0.0000000E+00  0.2525252E-01 -0.5823274E-05  0.0000000E+00  0.2696166E-03
  0.9848485E+00  0.0000000E+00  0.2525252E-01 -0.3474843E-05  0.0000000E+00  0.2677088E-03
  0.9974747E+00  0.0000000E+00  0.2525252E-01 -0.1155128E-05  0.0000000E+00  0.2667587E-03
  0.5050505E-02  0.0000000E+00  0.3535353E-01  0.2007633E-05  0.0000000E+00  0.3521321E-03
  0.1515152E-01  0.0000000E+00  0.3535353E-01  0.6039931E-05  0.0000000E+00  0.3533113E-03
  0.2525252E-01  0.0000000E+00  0.3535353E-01  0.1012435E-04  0.0000000E+00  0.3556780E-03
  0.3535353E-01  0.0000000E+00  0.3535353E-01  0.1429857E-04  0.0000000E+00  0.3592504E-03
  0.4545455E-01  0.0000000E+00  0.3535353E-01  0.1860444E-04  0.0000000E+00  0.3640575E-03
  0.5555556E-01  0.0000000E+00  0.3535353E-01  0.2308965E-04  0.0000000E+00  0.3701404E-03
  0.6565657E-01  0.0000000E+00  0.3535353E-01  0.2780963E-04  0.0000000E+00  0.3775535E-03
  0.7575758E-01  0.0000000E+00  0.3535353E-01  0.3282984E-04  0.0000000E+00  0.3863667E-03
  0.8585858E-01  0.0000000E+00  0.3535353E-01  0.3822873E-04  0.0000000E+00  0.3966663E-03
  0.9595960E-01  0.0000000E+00  0.3535353E-01  0.4410194E-04  0.0000000E+00  0.4085561E-03
  0.1060606E+00  0.0000000E+00  0.3535353E-01  0.5056900E-04  0.0000000E+00  0.4221550E-03
  0.1161616E+00  0.0000000E+00  0.3535353E-01  0.5778477E-04  0.0000000E+00  0.4375914E-03
  0.1262626E+00  0.0000000E+00  0.3535353E-01  0.6595965E-04  0.0000000E+00  0.4549875E-03
  0.1363636E+00  0.0000000E+00  0.3535353E-01  0.7539425E-04  0.0000000E+00  0.4744297E-03
  0.1464646E+00  0.0000000E+00  0.3535353E-01  0.8653079E-04  0.0000000E+00  0.4959143E-03
  0.1565657E+00  0.0000000E+00  0.3535353E-01  0.1000010E-03  0.0000000E+00  0.5192577E-03
  0.1666667E+00  0.0000000E+00  0.3535353E-01  0.1165722E-03  0.0000000E+00  0.5439750E-03
  0.1767677E+00  0.0000000E+00  0.3535353E-01  0.1366999E-03  0.0000000E+00  0.5692823E-03
  0.1868687E+00  0.0000000E+00  0.3535353E-01  0.1590740E-03  0.0000000E+00  0.5952157E-03
  0.1969697E+00  0.0000000E+00  0.3535353E-01  0.1776328E-03  0.0000000E+00  0.6288091E-03
  0.2070707E+00  0.0000000E+00  0.3535353E-01  0.2147340E-03  0.0000000E+00  0.6703110E-03
  0.2171717E+00  0.0000000E+00  0.3535353E-01  0.2102340E-03  0.0000000E+00  0.7763312E-03
  0.2272727E+00  0.0000000E+00  0.3535353E-01  0.1752424E-03  0.0000000E+00  0.8972627E-03
  0.2373737E+00  0.0000000E+00  0.3535353E-01  0.1577070E-03  0.0000000E+00  0.9545207E-03
  0.2474747E+00  0.0000000E+00  0.3535353E-01  0.1601245E-03  0.0000000E+00  0.9950857E-03
  0.2575758E+00  0.0000000E+00  0.3535353E-01  0.1770689E-03  0.0000000E+00  0.1036558E-02
  0.2676768E+00  0.0000000E+00  0.3535353E-01  0.1895369E-03  0.0000000E+00  0.1068976E-02
  0.2777778E+00  0.0000000E+00  0.3535353E-01  0.2405914E-03  0.0000000E+00  0.1084477E-02
  0.2878788E+00  0.0000000E+00  0.3535353E-01  0.2413777E-03  0.0000000E+00  0.1127790E-02
  0.2979798E+00  0.0000000E+00  0.3535353E-01  0.2674141E-03  0.0000000E+00  0.1191592E-02