title = "dataset water"
variables = "x", "y", "z", "vx", "vy", "vz"
zone t = "velocities, solution time =  5.600E+01 days        " i =   99, j =   99, k =    1,  f=point
  0.5050505E-02  0.0000000E+00  0.5050505E-02  0.2605663E-06  0.0000000E+00  0.3232530E-03
  0.1515152E-01  0.0000000E+00  0.5050505E-02  0.7835607E-06  0.0000000E+00  0.3243422E-03
  0.2525252E-01  0.0000000E+00  0.5050505E-02  0.1312282E-05  0.0000000E+00  0.3265288E-03
  0.3535353E-01  0.0000000E+00  0.5050505E-02  0.1850885E-05  0.0000000E+00  0.3298299E-03
  0.4545455E-01  0.0000000E+00  0.5050505E-02  0.2403961E-05  0.0000000E+00  0.3342720E-03
  0.5555556E-01  0.0000000E+00  0.5050505E-02  0.2976725E-05  0.0000000E+00  0.3398926E-03
  0.6565657E-01  0.0000000E+00  0.5050505E-02  0.3575243E-05  0.0000000E+00  0.3467413E-03
  0.7575758E-01  0.0000000E+00  0.5050505E-02  0.4206724E-05  0.0000000E+00  0.3548824E-03
  0.8585858E-01  0.0000000E+00  0.5050505E-02  0.4879932E-05  0.0000000E+00  0.3643978E-03
  0.9595960E-01  0.0000000E+00  0.5050505E-02  0.5605784E-05  0.0000000E+00  0.3753910E-03
  0.1060606E+00  0.0000000E+00  0.5050505E-02  0.6398265E-05  0.0000000E+00  0.3879927E-03
  0.1161616E+00  0.0000000E+00  0.5050505E-02  0.7275901E-05  0.0000000E+00  0.4023696E-03
  0.1262626E+00  0.0000000E+00  0.5050505E-02  0.8264175E-05  0.0000000E+00  0.4187367E-03
  0.1363636E+00  0.0000000E+00  0.5050505E-02  0.9399510E-05  0.0000000E+00  0.4373774E-03
  0.1464646E+00  0.0000000E+00  0.5050505E-02  0.1073578E-04  0.0000000E+00  0.4586743E-03
  0.1565657E+00  0.0000000E+00  0.5050505E-02  0.1235430E-04  0.0000000E+00  0.4831595E-03
  0.1666667E+00  0.0000000E+00  0.5050505E-02  0.1437626E-04  0.0000000E+00  0.5115894E-03
  0.1767677E+00  0.0000000E+00  0.5050505E-02  0.1696212E-04  0.0000000E+00  0.5450350E-03
  0.1868687E+00  0.0000000E+00  0.5050505E-02  0.2020607E-04  0.0000000E+00  0.5848633E-03
  0.1969697E+00  0.0000000E+00  0.5050505E-02  0.2344399E-04  0.0000000E+00  0.6318611E-03
  0.2070707E+00  0.0000000E+00  0.5050505E-02  0.2153665E-04  0.0000000E+00  0.6805487E-03
  0.2171717E+00  0.0000000E+00  0.5050505E-02  0.2034464E-04  0.0000000E+00  0.7261476E-03
  0.2272727E+00  0.0000000E+00  0.5050505E-02  0.2123340E-04  0.0000000E+00  0.7716690E-03
  0.2373737E+00  0.0000000E+00  0.5050505E-02  0.2322055E-04  0.0000000E+00  0.8206062E-03
  0.2474747E+00  0.0000000E+00  0.5050505E-02  0.2600555E-04  0.0000000E+00  0.8751150E-03
  0.2575758E+00  0.0000000E+00  0.5050505E-02  0.2924204E-04  0.0000000E+00  0.9366891E-03
  0.2676768E+00  0.0000000E+00  0.5050505E-02  0.3392025E-04  0.0000000E+00  0.1007604E-02
  0.2777778E+00  0.0000000E+00  0.5050505E-02  0.4237783E-04  0.0000000E+00  0.1094004E-02
  0.2878788E+00  0.0000000E+00  0.5050505E-02  0.5977752E-04  0.0000000E+00  0.1210919E-02
  0.2979798E+00  0.0000000E+00  0.5050505E-02  0.2626745E-04  0.0000000E+00  0.1310345E-02
  0.3080808E+00  0.0000000E+00  0.5050505E-02  0.3826224E-04  0.0000000E+00  0.1386063E-02
  0.3181818E+00  0.0000000E+00  0.5050505E-02  0.4253588E-04  0.0000000E+00  0.1481670E-02
  0.3282828E+00  0.0000000E+00  0.5050505E-02  0.3075663E-04  0.0000000E+00  0.1569254E-02
  0.3383838E+00  0.0000000E+00  0.5050505E-02  0.2917946E-04  0.0000000E+00  0.1641663E-02
  0.3484848E+00  0.0000000E+00  0.5050505E-02  0.2885605E-04  0.0000000E+00  0.1712368E-02
  0.3585859E+00  0.0000000E+00  0.5050505E-02  0.4258346E-04  0.0000000E+00  0.1800181E-02
  0.3686869E+00  0.0000000E+00  0.5050505E-02  0.4613670E-04  0.0000000E+00  0.1910277E-02
  0.3787879E+00  0.0000000E+00  0.5050505E-02  0.6603650E-04  0.0000000E+00  0.2051360E-02
  0.3888889E+00  0.0000000E+00  0.5050505E-02  0.1290818E-03  0.0000000E+00  0.2301193E-02
  0.3989899E+00  0.0000000E+00  0.5050505E-02 -0.9949021E-04  0.0000000E+00  0.2338251E-02
  0.4090909E+00  0.0000000E+00  0.5050505E-02 -0.4009140E-04  0.0000000E+00  0.2157486E-02
  0.4191919E+00  0.0000000E+00  0.5050505E-02 -0.2059702E-04  0.0000000E+00  0.2079696E-02
  0.4292929E+00  0.0000000E+00  0.5050505E-02 -0.8388905E-05  0.0000000E+00  0.2042713E-02
  0.4393939E+00  0.0000000E+00  0.5050505E-02 -0.1025322E-04  0.0000000E+00  0.2019007E-02
  0.4494950E+00  0.0000000E+00  0.5050505E-02 -0.1414525E-04  0.0000000E+00  0.1988095E-02
  0.4595959E+00  0.0000000E+00  0.5050505E-02 -0.5172731E-04  0.0000000E+00  0.1905729E-02
  0.4696970E+00  0.0000000E+00  0.5050505E-02 -0.1520302E-04  0.0000000E+00  0.1822386E-02
  0.4797980E+00  0.0000000E+00  0.5050505E-02  0.5943658E-05  0.0000000E+00  0.1810894E-02
  0.4898990E+00  0.0000000E+00  0.5050505E-02  0.2725940E-04  0.0000000E+00  0.1852159E-02
  0.5000000E+00  0.0000000E+00  0.5050505E-02  0.6378893E-04  0.0000000E+00  0.1965962E-02
  0.5101010E+00  0.0000000E+00  0.5050505E-02  0.2678800E-04  0.0000000E+00  0.2080050E-02
  0.5202020E+00  0.0000000E+00  0.5050505E-02  0.8458585E-04  0.0000000E+00  0.2222964E-02
  0.5303030E+00  0.0000000E+00  0.5050505E-02  0.8298860E-04  0.0000000E+00  0.2441029E-02
  0.5404040E+00  0.0000000E+00  0.5050505E-02  0.9650617E-04  0.0000000E+00  0.2680613E-02
  0.5505050E+00  0.0000000E+00  0.5050505E-02  0.9059771E-04  0.0000000E+00  0.2936725E-02
  0.5606061E+00  0.0000000E+00  0.5050505E-02 -0.1108880E-03  0.0000000E+00  0.2909460E-02
  0.5707071E+00  0.0000000E+00  0.5050505E-02 -0.7458071E-04  0.0000000E+00  0.2655625E-02
  0.5808081E+00  0.0000000E+00  0.5050505E-02 -0.2544870E-04  0.0000000E+00  0.2520799E-02
  0.5909091E+00  0.0000000E+00  0.5050505E-02 -0.4052879E-04  0.0000000E+00  0.2433017E-02
  0.6010101E+00  0.0000000E+00  0.5050505E-02 -0.3754247E-04  0.0000000E+00  0.2330167E-02
  0.6111111E+00  0.0000000E+00  0.5050505E-02 -0.6416442E-04  0.0000000E+00  0.2198487E-02
  0.6212121E+00  0.0000000E+00  0.5050505E-02 -0.5649077E-04  0.0000000E+00  0.2044509E-02
  0.6313131E+00  0.0000000E+00  0.5050505E-02 -0.9648236E-04  0.0000000E+00  0.1854219E-02
  0.6414142E+00  0.0000000E+00  0.5050505E-02 -0.6319923E-04  0.0000000E+00  0.1658928E-02
  0.6515151E+00  0.0000000E+00  0.5050505E-02 -0.4898038E-04  0.0000000E+00  0.1523976E-02
  0.6616161E+00  0.0000000E+00  0.5050505E-02 -0.4102114E-04  0.0000000E+00  0.1417072E-02
  0.6717172E+00  0.0000000E+00  0.5050505E-02 -0.5029528E-04  0.0000000E+00  0.1310070E-02
  0.6818182E+00  0.0000000E+00  0.5050505E-02 -0.4116741E-04  0.0000000E+00  0.1204080E-02
  0.6919192E+00  0.0000000E+00  0.5050505E-02 -0.3274835E-04  0.0000000E+00  0.1119274E-02
  0.7020202E+00  0.0000000E+00  0.5050505E-02 -0.4586989E-04  0.0000000E+00  0.1030145E-02
  0.7121212E+00  0.0000000E+00  0.5050505E-02 -0.3654183E-04  0.0000000E+00  0.9375838E-03
  0.7222222E+00  0.0000000E+00  0.5050505E-02 -0.3185036E-04  0.0000000E+00  0.8614759E-03
  0.7323232E+00  0.0000000E+00  0.5050505E-02 -0.2891859E-04  0.0000000E+00  0.7943936E-03
  0.7424242E+00  0.0000000E+00  0.5050505E-02 -0.2672389E-04  0.0000000E+00  0.7334162E-03
  0.7525253E+00  0.0000000E+00  0.5050505E-02 -0.2487919E-04  0.0000000E+00  0.6772436E-03
  0.7626263E+00  0.0000000E+00  0.5050505E-02 -0.2294796E-04  0.0000000E+00  0.6255015E-03
  0.7727273E+00  0.0000000E+00  0.5050505E-02 -0.2079993E-04  0.0000000E+00  0.5784374E-03
  0.7828283E+00  0.0000000E+00  0.5050505E-02 -0.1859060E-04  0.0000000E+00  0.5362744E-03
  0.7929293E+00  0.0000000E+00  0.5050505E-02 -0.1648862E-04  0.0000000E+00  0.4988943E-03
  0.8030303E+00  0.0000000E+00  0.5050505E-02 -0.1458598E-04  0.0000000E+00  0.4659128E-03
  0.8131313E+00  0.0000000E+00  0.5050505E-02 -0.1290842E-04  0.0000000E+00  0.4368335E-03
  0.8232324E+00  0.0000000E+00  0.5050505E-02 -0.1144483E-04  0.0000000E+00  0.4111562E-03
  0.8333333E+00  0.0000000E+00  0.5050505E-02 -0.1016908E-04  0.0000000E+00  0.3884298E-03
  0.8434343E+00  0.0000000E+00  0.5050505E-02 -0.9051908E-05  0.0000000E+00  0.3682688E-03
  0.8535354E+00  0.0000000E+00  0.5050505E-02 -0.8066186E-05  0.0000000E+00  0.3503524E-03
  0.8636364E+00  0.0000000E+00  0.5050505E-02 -0.7188687E-05  0.0000000E+00  0.3344169E-03
  0.8737374E+00  0.0000000E+00  0.5050505E-02 -0.6400245E-05  0.0000000E+00  0.3202461E-03
  0.8838384E+00  0.0000000E+00  0.5050505E-02 -0.5685270E-05  0.0000000E+00  0.3076622E-03
  0.8939394E+00  0.0000000E+00  0.5050505E-02 -0.5031118E-05  0.0000000E+00  0.2965191E-03
  0.9040404E+00  0.0000000E+00  0.5050505E-02 -0.4427475E-05  0.0000000E+00  0.2866955E-03
  0.9141414E+00  0.0000000E+00  0.5050505E-02 -0.3865846E-05  0.0000000E+00  0.2780912E-03
  0.9242424E+00  0.0000000E+00  0.5050505E-02 -0.3339135E-05  0.0000000E+00  0.2706227E-03
  0.9343435E+00  0.0000000E+00  0.5050505E-02 -0.2841322E-05  0.0000000E+00  0.2642213E-03
  0.9444444E+00  0.0000000E+00  0.5050505E-02 -0.2367217E-05  0.0000000E+00  0.2588301E-03
  0.9545454E+00  0.0000000E+00  0.5050505E-02 -0.1912258E-05  0.0000000E+00  0.2544028E-03
  0.9646465E+00  0.0000000E+00  0.5050505E-02 -0.1472369E-05  0.0000000E+00  0.2509029E-03
  0.9747475E+00  0.0000000E+00  0.5050505E-02 -0.1043833E-05  0.0000000E+00  0.2483017E-03
  0.9848485E+00  0.0000000E+00  0.5050505E-02 -0.6232040E-06  0.0000000E+00  0.2465788E-03
  0.9974747E+00  0.0000000E+00  0.5050505E-02 -0.2072259E-06  0.0000000E+00  0.2457206E-03
  0.5050505E-02  0.0000000E+00  0.1515152E-01  0.7791638E-06  0.0000000E+00  0.3225920E-03
  0.1515152E-01  0.0000000E+00  0.1515152E-01  0.2343042E-05  0.0000000E+00  0.3236752E-03
  0.2525252E-01  0.0000000E+00  0.1515152E-01  0.3923952E-05  0.0000000E+00  0.3258493E-03
  0.3535353E-01  0.0000000E+00  0.1515152E-01  0.5534208E-05  0.0000000E+00  0.3291307E-03
  0.4545455E-01  0.0000000E+00  0.1515152E-01  0.7187410E-05  0.0000000E+00  0.3335451E-03
  0.5555556E-01  0.0000000E+00  0.1515152E-01  0.8898989E-05  0.0000000E+00  0.3391286E-03
  0.6565657E-01  0.0000000E+00  0.1515152E-01  0.1068686E-04  0.0000000E+00  0.3459291E-03
  0.7575758E-01  0.0000000E+00  0.1515152E-01  0.1257228E-04  0.0000000E+00  0.3540085E-03
  0.8585858E-01  0.0000000E+00  0.1515152E-01  0.1458100E-04  0.0000000E+00  0.3634452E-03
  0.9595960E-01  0.0000000E+00  0.1515152E-01  0.1674492E-04  0.0000000E+00  0.3743380E-03
  0.1060606E+00  0.0000000E+00  0.1515152E-01  0.1910464E-04  0.0000000E+00  0.3868105E-03
  0.1161616E+00  0.0000000E+00  0.1515152E-01  0.2171353E-04  0.0000000E+00  0.4010186E-03
  0.1262626E+00  0.0000000E+00  0.1515152E-01  0.2464437E-04  0.0000000E+00  0.4171604E-03
  0.1363636E+00  0.0000000E+00  0.1515152E-01  0.2800047E-04  0.0000000E+00  0.4354917E-03
  0.1464646E+00  0.0000000E+00  0.1515152E-01  0.3193433E-04  0.0000000E+00  0.4563518E-03
  0.1565657E+00  0.0000000E+00  0.1515152E-01  0.3667879E-04  0.0000000E+00  0.4802070E-03
  0.1666667E+00  0.0000000E+00  0.1515152E-01  0.4259890E-04  0.0000000E+00  0.5077364E-03
  0.1767677E+00  0.0000000E+00  0.1515152E-01  0.5027633E-04  0.0000000E+00  0.5400399E-03
  0.1868687E+00  0.0000000E+00  0.1515152E-01  0.6063921E-04  0.0000000E+00  0.5793095E-03
  0.1969697E+00  0.0000000E+00  0.1515152E-01  0.7512927E-04  0.0000000E+00  0.6315613E-03
  0.2070707E+00  0.0000000E+00  0.1515152E-01  0.6390082E-04  0.0000000E+00  0.6847763E-03
  0.2171717E+00  0.0000000E+00  0.1515152E-01  0.5905188E-04  0.0000000E+00  0.7276576E-03
  0.2272727E+00  0.0000000E+00  0.1515152E-01  0.6261067E-04  0.0000000E+00  0.7700628E-03
  0.2373737E+00  0.0000000E+00  0.1515152E-01  0.6883299E-04  0.0000000E+00  0.8171614E-03
  0.2474747E+00  0.0000000E+00  0.1515152E-01  0.7748067E-04  0.0000000E+00  0.8704762E-03
  0.2575758E+00  0.0000000E+00  0.1515152E-01  0.8627091E-04  0.0000000E+00  0.9302074E-03
  0.2676768E+00  0.0000000E+00  0.1515152E-01  0.9820226E-04  0.0000000E+00  0.9959438E-03
  0.2777778E+00  0.0000000E+00  0.1515152E-01  0.1190404E-03  0.0000000E+00  0.1069659E-02
  0.2878788E+00  0.0000000E+00  0.1515152E-01  0.1493785E-03  0.0000000E+00  0.1143527E-02
  0.2979798E+00  0.0000000E+00  0.1515152E-01  0.1126369E-03  0.0000000E+00  0.1248366E-02
  0.3080808E+00  0.0000000E+00  0.1515152E-01  0.9909785E-04  0.0000000E+00  0.1345781E-02
  0.3181818E+00  0.0000000E+00  0.1515152E-01  0.1191517E-03  0.0000000E+00  0.1414130E-02
  0.3282828E+00  0.0000000E+00  0.1515152E-01  0.1255177E-03  0.0000000E+00  0.1533129E-02
  0.3383838E+00  0.0000000E+00  0.1515152E-01  0.8554485E-04  0.0000000E+00  0.1645102E-02
  0.3484848E+00  0.0000000E+00  0.1515152E-01  0.7423890E-04  0.0000000E+00  0.1700465E-02
  0.3585859E+00  0.0000000E+00  0.1515152E-01  0.1016336E-03  0.0000000E+00  0.1743220E-02
  0.3686869E+00  0.0000000E+00  0.1515152E-01  0.1240482E-03  0.0000000E+00  0.1805814E-02
  0.3787879E+00  0.0000000E+00  0.1515152E-01  0.1952003E-03  0.0000000E+00  0.1928539E-02
  0.3888889E+00  0.0000000E+00  0.1515152E-01  0.3450517E-03  0.0000000E+00  0.2124599E-02
  0.3989899E+00  0.0000000E+00  0.1515152E-01 -0.2730113E-03  0.0000000E+00  0.2140271E-02
  0.4090909E+00  0.0000000E+00  0.1515152E-01 -0.1287969E-03  0.0000000E+00  0.1977643E-02
  0.4191919E+00  0.0000000E+00  0.1515152E-01 -0.3554433E-04  0.0000000E+00  0.1920488E-02
  0.4292929E+00  0.0000000E+00  0.1515152E-01 -0.4817513E-04  0.0000000E+00  0.1886512E-02
  0.4393939E+00  0.0000000E+00  0.1515152E-01 -0.2889490E-04  0.0000000E+00  0.1834741E-02
  0.4494950E+00  0.0000000E+00  0.1515152E-01 -0.4038843E-04  0.0000000E+00  0.1807885E-02
  0.4595959E+00  0.0000000E+00  0.1515152E-01 -0.1114644E-03  0.0000000E+00  0.1780812E-02
  0.4696970E+00  0.0000000E+00  0.1515152E-01 -0.3291035E-04  0.0000000E+00  0.1766007E-02
  0.4797980E+00  0.0000000E+00  0.1515152E-01  0.1740221E-04  0.0000000E+00  0.1769624E-02
  0.4898990E+00  0.0000000E+00  0.1515152E-01  0.6870022E-04  0.0000000E+00  0.1795396E-02
  0.5000000E+00  0.0000000E+00  0.1515152E-01  0.1522407E-03  0.0000000E+00  0.1846643E-02
  0.5101010E+00  0.0000000E+00  0.1515152E-01  0.9959586E-04  0.0000000E+00  0.1939328E-02
  0.5202020E+00  0.0000000E+00  0.1515152E-01  0.2215365E-03  0.0000000E+00  0.2069353E-02
  0.5303030E+00  0.0000000E+00  0.1515152E-01  0.2175529E-03  0.0000000E+00  0.2210197E-02
  0.5404040E+00  0.0000000E+00  0.1515152E-01  0.2092487E-03  0.0000000E+00  0.2306668E-02
  0.5505050E+00  0.0000000E+00  0.1515152E-01  0.2206026E-03  0.0000000E+00  0.2389872E-02
  0.5606061E+00  0.0000000E+00  0.1515152E-01 -0.2722715E-03  0.0000000E+00  0.2374914E-02
  0.5707071E+00  0.0000000E+00  0.1515152E-01 -0.1960083E-03  0.0000000E+00  0.2237127E-02
  0.5808081E+00  0.0000000E+00  0.1515152E-01 -0.6589407E-04  0.0000000E+00  0.2150806E-02
  0.5909091E+00  0.0000000E+00  0.1515152E-01 -0.1018265E-03  0.0000000E+00  0.2100815E-02
  0.6010101E+00  0.0000000E+00  0.1515152E-01 -0.1072242E-03  0.0000000E+00  0.2028697E-02
  0.6111111E+00  0.0000000E+00  0.1515152E-01 -0.1104566E-03  0.0000000E+00  0.2006796E-02
  0.6212121E+00  0.0000000E+00  0.1515152E-01 -0.2042480E-03  0.0000000E+00  0.1911548E-02
  0.6313131E+00  0.0000000E+00  0.1515152E-01 -0.2425081E-03  0.0000000E+00  0.1732497E-02
  0.6414142E+00  0.0000000E+00  0.1515152E-01 -0.1727683E-03  0.0000000E+00  0.1612622E-02
  0.6515151E+00  0.0000000E+00  0.1515152E-01 -0.1408105E-03  0.0000000E+00  0.1503024E-02
  0.6616161E+00  0.0000000E+00  0.1515152E-01 -0.1077001E-03  0.0000000E+00  0.1419644E-02
  0.6717172E+00  0.0000000E+00  0.1515152E-01 -0.1662119E-03  0.0000000E+00  0.1311494E-02
  0.6818182E+00  0.0000000E+00  0.1515152E-01 -0.1225044E-03  0.0000000E+00  0.1187824E-02
  0.6919192E+00  0.0000000E+00  0.1515152E-01 -0.1048969E-03  0.0000000E+00  0.1095895E-02
  0.7020202E+00  0.0000000E+00  0.1515152E-01 -0.1313307E-03  0.0000000E+00  0.1005862E-02
  0.7121212E+00  0.0000000E+00  0.1515152E-01 -0.1053402E-03  0.0000000E+00  0.9248592E-03
  0.7222222E+00  0.0000000E+00  0.1515152E-01 -0.9385767E-04  0.0000000E+00  0.8551106E-03
  0.7323232E+00  0.0000000E+00  0.1515152E-01 -0.8601145E-04  0.0000000E+00  0.7904778E-03
  0.7424242E+00  0.0000000E+00  0.1515152E-01 -0.7980506E-04  0.0000000E+00  0.7305300E-03
  0.7525253E+00  0.0000000E+00  0.1515152E-01 -0.7469738E-04  0.0000000E+00  0.6745522E-03
  0.7626263E+00  0.0000000E+00  0.1515152E-01 -0.6904363E-04  0.0000000E+00  0.6224282E-03
  0.7727273E+00  0.0000000E+00  0.1515152E-01 -0.6246441E-04  0.0000000E+00  0.5750025E-03
  0.7828283E+00  0.0000000E+00  0.1515152E-01 -0.5568074E-04  0.0000000E+00  0.5328023E-03
  0.7929293E+00  0.0000000E+00  0.1515152E-01 -0.4928664E-04  0.0000000E+00  0.4956503E-03
  0.8030303E+00  0.0000000E+00  0.1515152E-01 -0.4355131E-04  0.0000000E+00  0.4630217E-03
  0.8131313E+00  0.0000000E+00  0.1515152E-01 -0.3852586E-04  0.0000000E+00  0.4343180E-03
  0.8232324E+00  0.0000000E+00  0.1515152E-01 -0.3415701E-04  0.0000000E+00  0.4089870E-03
  0.8333333E+00  0.0000000E+00  0.1515152E-01 -0.3035528E-04  0.0000000E+00  0.3865589E-03
  0.8434343E+00  0.0000000E+00  0.1515152E-01 -0.2702781E-04  0.0000000E+00  0.3666464E-03
  0.8535354E+00  0.0000000E+00  0.1515152E-01 -0.2409146E-04  0.0000000E+00  0.3489341E-03
  0.8636364E+00  0.0000000E+00  0.1515152E-01 -0.2147633E-04  0.0000000E+00  0.3331654E-03
  0.8737374E+00  0.0000000E+00  0.1515152E-01 -0.1912527E-04  0.0000000E+00  0.3191310E-03
  0.8838384E+00  0.0000000E+00  0.1515152E-01 -0.1699207E-04  0.0000000E+00  0.3066591E-03
  0.8939394E+00  0.0000000E+00  0.1515152E-01 -0.1503933E-04  0.0000000E+00  0.2956082E-03
  0.9040404E+00  0.0000000E+00  0.1515152E-01 -0.1323656E-04  0.0000000E+00  0.2858609E-03
  0.9141414E+00  0.0000000E+00  0.1515152E-01 -0.1155864E-04  0.0000000E+00  0.2773197E-03
  0.9242424E+00  0.0000000E+00  0.1515152E-01 -0.9984561E-05  0.0000000E+00  0.2699035E-03
  0.9343435E+00  0.0000000E+00  0.1515152E-01 -0.8496503E-05  0.0000000E+00  0.2635450E-03
  0.9444444E+00  0.0000000E+00  0.1515152E-01 -0.7079057E-05  0.0000000E+00  0.2581887E-03
  0.9545454E+00  0.0000000E+00  0.1515152E-01 -0.5718679E-05  0.0000000E+00  0.2537893E-03
  0.9646465E+00  0.0000000E+00  0.1515152E-01 -0.4403243E-05  0.0000000E+00  0.2503108E-03
  0.9747475E+00  0.0000000E+00  0.1515152E-01 -0.3121691E-05  0.0000000E+00  0.2477253E-03
  0.9848485E+00  0.0000000E+00  0.1515152E-01 -0.1863755E-05  0.0000000E+00  0.2460126E-03
  0.9974747E+00  0.0000000E+00  0.1515152E-01 -0.6197273E-06  0.0000000E+00  0.2451594E-03
  0.5050505E-02  0.0000000E+00  0.2525252E-01  0.1291355E-05  0.0000000E+00  0.3212954E-03
  0.1515152E-01  0.0000000E+00  0.2525252E-01  0.3883159E-05  0.0000000E+00  0.3223667E-03
  0.2525252E-01  0.0000000E+00  0.2525252E-01  0.6502794E-05  0.0000000E+00  0.3245164E-03
  0.3535353E-01  0.0000000E+00  0.2525252E-01  0.9170311E-05  0.0000000E+00  0.3277596E-03
  0.4545455E-01  0.0000000E+00  0.2525252E-01  0.1190783E-04  0.0000000E+00  0.3321202E-03
  0.5555556E-01  0.0000000E+00  0.2525252E-01  0.1474039E-04  0.0000000E+00  0.3376317E-03
  0.6565657E-01  0.0000000E+00  0.2525252E-01  0.1769701E-04  0.0000000E+00  0.3443387E-03
  0.7575758E-01  0.0000000E+00  0.2525252E-01  0.2081196E-04  0.0000000E+00  0.3522985E-03
  0.8585858E-01  0.0000000E+00  0.2525252E-01  0.2412647E-04  0.0000000E+00  0.3615833E-03
  0.9595960E-01  0.0000000E+00  0.2525252E-01  0.2769115E-04  0.0000000E+00  0.3722832E-03
  0.1060606E+00  0.0000000E+00  0.2525252E-01  0.3156953E-04  0.0000000E+00  0.3845090E-03
  0.1161616E+00  0.0000000E+00  0.2525252E-01  0.3584374E-04  0.0000000E+00  0.3983972E-03
  0.1262626E+00  0.0000000E+00  0.2525252E-01  0.4062371E-04  0.0000000E+00  0.4141156E-03
  0.1363636E+00  0.0000000E+00  0.2525252E-01  0.4606260E-04  0.0000000E+00  0.4318709E-03
  0.1464646E+00  0.0000000E+00  0.2525252E-01  0.5238299E-04  0.0000000E+00  0.4519202E-03
  0.1565657E+00  0.0000000E+00  0.2525252E-01  0.5992202E-04  0.0000000E+00  0.4745878E-03
  0.1666667E+00  0.0000000E+00  0.2525252E-01  0.6921182E-04  0.0000000E+00  0.5002870E-03
  0.1767677E+00  0.0000000E+00  0.2525252E-01  0.8113792E-04  0.0000000E+00  0.5295316E-03
  0.1868687E+00  0.0000000E+00  0.2525252E-01  0.9731295E-04  0.0000000E+00  0.5628313E-03
  0.1969697E+00  0.0000000E+00  0.2525252E-01  0.1211822E-03  0.0000000E+00  0.5998257E-03
  0.2070707E+00  0.0000000E+00  0.2525252E-01  0.1300579E-03  0.0000000E+00  0.6681606E-03
  0.2171717E+00  0.0000000E+00  0.2525252E-01  0.8992995E-04  0.0000000E+00  0.7311342E-03
  0.2272727E+00  0.0000000E+00  0.2525252E-01  0.1014197E-03  0.0000000E+00  0.7657848E-03
  0.2373737E+00  0.0000000E+00  0.2525252E-01  0.1120762E-03  0.0000000E+00  0.8098208E-03
  0.2474747E+00  0.0000000E+00  0.2525252E-01  0.1286162E-03  0.0000000E+00  0.8619457E-03
  0.2575758E+00  0.0000000E+00  0.2525252E-01  0.1401905E-03  0.0000000E+00  0.9204036E-03
  0.2676768E+00  0.0000000E+00  0.2525252E-01  0.1541923E-03  0.0000000E+00  0.9794101E-03
  0.2777778E+00  0.0000000E+00  0.2525252E-01  0.1869320E-03  0.0000000E+00  0.1047523E-02
  0.2878788E+00  0.0000000E+00  0.2525252E-01  0.1986432E-03  0.0000000E+00  0.1109364E-02
  0.2979798E+00  0.0000000E+00  0.2525252E-01  0.2043789E-03  0.0000000E+00  0.1169919E-02
  0.3080808E+00  0.0000000E+00  0.2525252E-01  0.1792904E-03  0.0000000E+00  0.1276041E-02
  0.3181818E+00  0.0000000E+00  0.2525252E-01  0.1846194E-03  0.0000000E+00  0.1383531E-02
  0.3282828E+00  0.0000000E+00  0.2525252E-01  0.2159694E-03  0.0000000E+00  0.1455950E-02
  0.3383838E+00  0.0000000E+00  0.2525252E-01  0.1786232E-03  0.0000000E+00  0.1572428E-02
  0.3484848E+00  0.0000000E+00  0.2525252E-01  0.1063675E-03  0.0000000E+00  0.1676445E-02
  0.3585859E+00  0.0000000E+00  0.2525252E-01  0.1295287E-03  0.0000000E+00  0.1713878E-02
  0.3686869E+00  0.0000000E+00  0.2525252E-01  0.1608378E-03  0.0000000E+00  0.1738825E-02
  0.3787879E+00  0.0000000E+00  0.2525252E-01  0.2607348E-03  0.0000000E+00  0.1754100E-02
  0.3888889E+00  0.0000000E+00  0.2525252E-01  0.4067187E-03  0.0000000E+00  0.1734820E-02
  0.3989899E+00  0.0000000E+00  0.2525252E-01 -0.3165848E-03  0.0000000E+00  0.1742682E-02
  0.4090909E+00  0.0000000E+00  0.2525252E-01 -0.1779668E-03  0.0000000E+00  0.1772980E-02
  0.4191919E+00  0.0000000E+00  0.2525252E-01 -0.6644727E-04  0.0000000E+00  0.1721074E-02
  0.4292929E+00  0.0000000E+00  0.2525252E-01 -0.7346482E-04  0.0000000E+00  0.1679407E-02
  0.4393939E+00  0.0000000E+00  0.2525252E-01 -0.2346666E-04  0.0000000E+00  0.1703781E-02
  0.4494950E+00  0.0000000E+00  0.2525252E-01 -0.7303405E-04  0.0000000E+00  0.1693910E-02
  0.4595959E+00  0.0000000E+00  0.2525252E-01 -0.1096429E-03  0.0000000E+00  0.1677426E-02
  0.4696970E+00  0.0000000E+00  0.2525252E-01 -0.2794440E-04  0.0000000E+00  0.1697647E-02
  0.4797980E+00  0.0000000E+00  0.2525252E-01  0.2742153E-04  0.0000000E+00  0.1713119E-02
  0.4898990E+00  0.0000000E+00  0.2525252E-01  0.8307550E-04  0.0000000E+00  0.1720826E-02
  0.5000000E+00  0.0000000E+00  0.2525252E-01  0.1887722E-03  0.0000000E+00  0.1739986E-02
  0.5101010E+00  0.0000000E+00  0.2525252E-01  0.1880954E-03  0.0000000E+00  0.1815253E-02
  0.5202020E+00  0.0000000E+00  0.2525252E-01  0.2817154E-03  0.0000000E+00  0.1887494E-02
  0.5303030E+00  0.0000000E+00  0.2525252E-01  0.2654651E-03  0.0000000E+00  0.1902158E-02
  0.5404040E+00  0.0000000E+00  0.2525252E-01  0.2254746E-03  0.0000000E+00  0.1906567E-02
  0.5505050E+00  0.0000000E+00  0.2525252E-01  0.2754309E-03  0.0000000E+00  0.1937016E-02
  0.5606061E+00  0.0000000E+00  0.2525252E-01 -0.3192968E-03  0.0000000E+00  0.1961184E-02
  0.5707071E+00  0.0000000E+00  0.2525252E-01 -0.2198961E-03  0.0000000E+00  0.1985318E-02
  0.5808081E+00  0.0000000E+00  0.2525252E-01 -0.7984433E-04  0.0000000E+00  0.2010889E-02
  0.5909091E+00  0.0000000E+00  0.2525252E-01 -0.1731349E-03  0.0000000E+00  0.1940013E-02
  0.6010101E+00  0.0000000E+00  0.2525252E-01 -0.1558562E-03  0.0000000E+00  0.1845245E-02
  0.6111111E+00  0.0000000E+00  0.2525252E-01 -0.1706741E-03  0.0000000E+00  0.1718756E-02
  0.6212121E+00  0.0000000E+00  0.2525252E-01 -0.3362408E-03  0.0000000E+00  0.1564011E-02
  0.6313131E+00  0.0000000E+00  0.2525252E-01 -0.2998769E-03  0.0000000E+00  0.1499298E-02
  0.6414142E+00  0.0000000E+00  0.2525252E-01 -0.2499567E-03  0.0000000E+00  0.1448220E-02
  0.6515151E+00  0.0000000E+00  0.2525252E-01 -0.2609001E-03  0.0000000E+00  0.1317403E-02
  0.6616161E+00  0.0000000E+00  0.2525252E-01 -0.2037919E-03  0.0000000E+00  0.1143638E-02
  0.6717172E+00  0.0000000E+00  0.2525252E-01 -0.2344985E-03  0.0000000E+00  0.1057657E-02
  0.6818182E+00  0.0000000E+00  0.2525252E-01 -0.1809801E-03  0.0000000E+00  0.1032074E-02
  0.6919192E+00  0.0000000E+00  0.2525252E-01 -0.1640497E-03  0.0000000E+00  0.9877015E-03
  0.7020202E+00  0.0000000E+00  0.2525252E-01 -0.1857289E-03  0.0000000E+00  0.9476389E-03
  0.7121212E+00  0.0000000E+00  0.2525252E-01 -0.1608654E-03  0.0000000E+00  0.9040973E-03
  0.7222222E+00  0.0000000E+00  0.2525252E-01 -0.1524030E-03  0.0000000E+00  0.8460217E-03
  0.7323232E+00  0.0000000E+00  0.2525252E-01 -0.1415057E-03  0.0000000E+00  0.7840686E-03
  0.7424242E+00  0.0000000E+00  0.2525252E-01 -0.1318330E-03  0.0000000E+00  0.7256497E-03
  0.7525253E+00  0.0000000E+00  0.2525252E-01 -0.1250416E-03  0.0000000E+00  0.6698138E-03
  0.7626263E+00  0.0000000E+00  0.2525252E-01 -0.1160666E-03  0.0000000E+00  0.6163527E-03
  0.7727273E+00  0.0000000E+00  0.2525252E-01 -0.1044013E-03  0.0000000E+00  0.5678960E-03
  0.7828283E+00  0.0000000E+00  0.2525252E-01 -0.9248309E-04  0.0000000E+00  0.5256583E-03
  0.7929293E+00  0.0000000E+00  0.2525252E-01 -0.8153117E-04  0.0000000E+00  0.4890831E-03
  0.8030303E+00  0.0000000E+00  0.2525252E-01 -0.7190040E-04  0.0000000E+00  0.4572499E-03
  0.8131313E+00  0.0000000E+00  0.2525252E-01 -0.6356390E-04  0.0000000E+00  0.4293421E-03
  0.8232324E+00  0.0000000E+00  0.2525252E-01 -0.5636301E-04  0.0000000E+00  0.4047186E-03
  0.8333333E+00  0.0000000E+00  0.2525252E-01 -0.5011394E-04  0.0000000E+00  0.3828866E-03
  0.8434343E+00  0.0000000E+00  0.2525252E-01 -0.4464763E-04  0.0000000E+00  0.3634645E-03
  0.8535354E+00  0.0000000E+00  0.2525252E-01 -0.3982121E-04  0.0000000E+00  0.3461518E-03
  0.8636364E+00  0.0000000E+00  0.2525252E-01 -0.3551820E-04  0.0000000E+00  0.3307086E-03
  0.8737374E+00  0.0000000E+00  0.2525252E-01 -0.3164500E-04  0.0000000E+00  0.3169400E-03
  0.8838384E+00  0.0000000E+00  0.2525252E-01 -0.2812655E-04  0.0000000E+00  0.3046864E-03
  0.8939394E+00  0.0000000E+00  0.2525252E-01 -0.2490231E-04  0.0000000E+00  0.2938155E-03
  0.9040404E+00  0.0000000E+00  0.2525252E-01 -0.2192298E-04  0.0000000E+00  0.2842173E-03
  0.9141414E+00  0.0000000E+00  0.2525252E-01 -0.1914790E-04  0.0000000E+00  0.2757997E-03
  0.9242424E+00  0.0000000E+00  0.2525252E-01 -0.1654299E-04  0.0000000E+00  0.2684859E-03
  0.9343435E+00  0.0000000E+00  0.2525252E-01 -0.1407925E-04  0.0000000E+00  0.2622116E-03
  0.9444444E+00  0.0000000E+00  0.2525252E-01 -0.1173154E-04  0.0000000E+00  0.2569239E-03
  0.9545454E+00  0.0000000E+00  0.2525252E-01 -0.9477735E-05  0.0000000E+00  0.2525793E-03
  0.9646465E+00  0.0000000E+00  0.2525252E-01 -0.7297954E-05  0.0000000E+00  0.2491430E-03
  0.9747475E+00  0.0000000E+00  0.2525252E-01 -0.5174045E-05  0.0000000E+00  0.2465883E-03
  0.9848485E+00  0.0000000E+00  0.2525252E-01 -0.3089118E-05  0.0000000E+00  0.2448956E-03
  0.9974747E+00  0.0000000E+00  0.2525252E-01 -0.1027181E-05  0.0000000E+00  0.2440524E-03
  0.5050505E-02  0.0000000E+00  0.3535353E-01  0.1794605E-05  0.0000000E+00  0.3193938E-03
  0.1515152E-01  0.0000000E+00  0.3535353E-01  0.5396163E-05  0.0000000E+00  0.3204480E-03
  0.2525252E-01  0.0000000E+00  0.3535353E-01  0.9035463E-05  0.0000000E+00  0.3225625E-03
  0.3535353E-01  0.0000000E+00  0.3535353E-01  0.1273963E-04  0.0000000E+00  0.3257507E-03
  0.4545455E-01  0.0000000E+00  0.3535353E-01  0.1653854E-04  0.0000000E+00  0.3300339E-03
  0.5555556E-01  0.0000000E+00  0.3535353E-01  0.2046597E-04  0.0000000E+00  0.3354421E-03
  0.6565657E-01  0.0000000E+00  0.3535353E-01  0.2456092E-04  0.0000000E+00  0.3420151E-03
  0.7575758E-01  0.0000000E+00  0.3535353E-01  0.2886918E-04  0.0000000E+00  0.3498040E-03
  0.8585858E-01  0.0000000E+00  0.3535353E-01  0.3344540E-04  0.0000000E+00  0.3588727E-03
  0.9595960E-01  0.0000000E+00  0.3535353E-01  0.3835570E-04  0.0000000E+00  0.3692997E-03
  0.1060606E+00  0.0000000E+00  0.3535353E-01  0.4368153E-04  0.0000000E+00  0.3811802E-03
  0.1161616E+00  0.0000000E+00  0.3535353E-01  0.4952546E-04  0.0000000E+00  0.3946268E-03
  0.1262626E+00  0.0000000E+00  0.3535353E-01  0.5602054E-04  0.0000000E+00  0.4097707E-03
  0.1363636E+00  0.0000000E+00  0.3535353E-01  0.6334584E-04  0.0000000E+00  0.4267601E-03
  0.1464646E+00  0.0000000E+00  0.3535353E-01  0.7175278E-04  0.0000000E+00  0.4457566E-03
  0.1565657E+00  0.0000000E+00  0.3535353E-01  0.8160887E-04  0.0000000E+00  0.4669245E-03
  0.1666667E+00  0.0000000E+00  0.3535353E-01  0.9346760E-04  0.0000000E+00  0.4904034E-03
  0.1767677E+00  0.0000000E+00  0.3535353E-01  0.1081729E-03  0.0000000E+00  0.5162219E-03
  0.1868687E+00  0.0000000E+00  0.3535353E-01  0.1269978E-03  0.0000000E+00  0.5440187E-03
  0.1969697E+00  0.0000000E+00  0.3535353E-01  0.1517407E-03  0.0000000E+00  0.5721914E-03
  0.2070707E+00  0.0000000E+00  0.3535353E-01  0.1841493E-03  0.0000000E+00  0.5957568E-03
  0.2171717E+00  0.0000000E+00  0.3535353E-01  0.1605627E-03  0.0000000E+00  0.6683969E-03
  0.2272727E+00  0.0000000E+00  0.3535353E-01  0.1409588E-03  0.0000000E+00  0.7545818E-03
  0.2373737E+00  0.0000000E+00  0.3535353E-01  0.1499048E-03  0.0000000E+00  0.7969853E-03
  0.2474747E+00  0.0000000E+00  0.3535353E-01  0.1841588E-03  0.0000000E+00  0.8497389E-03
  0.2575758E+00  0.0000000E+00  0.3535353E-01  0.1916934E-03  0.0000000E+00  0.9123321E-03
  0.2676768E+00  0.0000000E+00  0.3535353E-01  0.1931846E-03  0.0000000E+00  0.9571630E-03
  0.2777778E+00  0.0000000E+00  0.3535353E-01  0.2317945E-03  0.0000000E+00  0.9866718E-03
  0.2878788E+00  0.0000000E+00  0.3535353E-01  0.2441072E-03  0.0000000E+00  0.1030951E-02
  0.2979798E+00  0.0000000E+00  0.3535353E-01  0.2517478E-03  0.0000000E+00  0.1080871E-02