title = "dataset water"
variables = "x", "y", "z", "vx", "vy", "vz"
zone t = "velocities, solution time =  1.200E+01 days        " i =   99, j =   99, k =    1,  f=point
  0.5050505E-02  0.0000000E+00  0.5050505E-02  0.1032140E-11  0.0000000E+00 -0.4109942E-04
  0.1515152E-01  0.0000000E+00  0.5050505E-02  0.3129726E-11  0.0000000E+00 -0.4109942E-04
  0.2525252E-01  0.0000000E+00  0.5050505E-02  0.5221009E-11  0.0000000E+00 -0.4109941E-04
  0.3535353E-01  0.0000000E+00  0.5050505E-02  0.7293486E-11  0.0000000E+00 -0.4109940E-04
  0.4545455E-01  0.0000000E+00  0.5050505E-02  0.9343744E-11  0.0000000E+00 -0.4109938E-04
  0.5555556E-01  0.0000000E+00  0.5050505E-02  0.1136607E-10  0.0000000E+00 -0.4109936E-04
  0.6565657E-01  0.0000000E+00  0.5050505E-02  0.1335614E-10  0.0000000E+00 -0.4109933E-04
  0.7575758E-01  0.0000000E+00  0.5050505E-02  0.1530630E-10  0.0000000E+00 -0.4109931E-04
  0.8585858E-01  0.0000000E+00  0.5050505E-02  0.1721024E-10  0.0000000E+00 -0.4109927E-04
  0.9595960E-01  0.0000000E+00  0.5050505E-02  0.1906209E-10  0.0000000E+00 -0.4109924E-04
  0.1060606E+00  0.0000000E+00  0.5050505E-02  0.2085529E-10  0.0000000E+00 -0.4109920E-04
  0.1161616E+00  0.0000000E+00  0.5050505E-02  0.2258292E-10  0.0000000E+00 -0.4109915E-04
  0.1262626E+00  0.0000000E+00  0.5050505E-02  0.2423805E-10  0.0000000E+00 -0.4109911E-04
  0.1363636E+00  0.0000000E+00  0.5050505E-02  0.2581380E-10  0.0000000E+00 -0.4109906E-04
  0.1464646E+00  0.0000000E+00  0.5050505E-02  0.2730324E-10  0.0000000E+00 -0.4109900E-04
  0.1565657E+00  0.0000000E+00  0.5050505E-02  0.2869933E-10  0.0000000E+00 -0.4109895E-04
  0.1666667E+00  0.0000000E+00  0.5050505E-02  0.2999501E-10  0.0000000E+00 -0.4109889E-04
  0.1767677E+00  0.0000000E+00  0.5050505E-02  0.3118328E-10  0.0000000E+00 -0.4109883E-04
  0.1868687E+00  0.0000000E+00  0.5050505E-02  0.3225730E-10  0.0000000E+00 -0.4109876E-04
  0.1969697E+00  0.0000000E+00  0.5050505E-02  0.3321044E-10  0.0000000E+00 -0.4109870E-04
  0.2070707E+00  0.0000000E+00  0.5050505E-02  0.3403633E-10  0.0000000E+00 -0.4109863E-04
  0.2171717E+00  0.0000000E+00  0.5050505E-02  0.3472892E-10  0.0000000E+00 -0.4109856E-04
  0.2272727E+00  0.0000000E+00  0.5050505E-02  0.3528251E-10  0.0000000E+00 -0.4109849E-04
  0.2373737E+00  0.0000000E+00  0.5050505E-02  0.3569184E-10  0.0000000E+00 -0.4109842E-04
  0.2474747E+00  0.0000000E+00  0.5050505E-02  0.3595211E-10  0.0000000E+00 -0.4109835E-04
  0.2575758E+00  0.0000000E+00  0.5050505E-02  0.3605912E-10  0.0000000E+00 -0.4109827E-04
  0.2676768E+00  0.0000000E+00  0.5050505E-02  0.3600927E-10  0.0000000E+00 -0.4109820E-04
  0.2777778E+00  0.0000000E+00  0.5050505E-02  0.3579969E-10  0.0000000E+00 -0.4109813E-04
  0.2878788E+00  0.0000000E+00  0.5050505E-02  0.3542827E-10  0.0000000E+00 -0.4109806E-04
  0.2979798E+00  0.0000000E+00  0.5050505E-02  0.3489374E-10  0.0000000E+00 -0.4109799E-04
  0.3080808E+00  0.0000000E+00  0.5050505E-02  0.3419575E-10  0.0000000E+00 -0.4109792E-04
  0.3181818E+00  0.0000000E+00  0.5050505E-02  0.3333485E-10  0.0000000E+00 -0.4109785E-04
  0.3282828E+00  0.0000000E+00  0.5050505E-02  0.3231264E-10  0.0000000E+00 -0.4109778E-04
  0.3383838E+00  0.0000000E+00  0.5050505E-02  0.3113170E-10  0.0000000E+00 -0.4109772E-04
  0.3484848E+00  0.0000000E+00  0.5050505E-02  0.2979567E-10  0.0000000E+00 -0.4109766E-04
  0.3585859E+00  0.0000000E+00  0.5050505E-02  0.2830925E-10  0.0000000E+00 -0.4109760E-04
  0.3686869E+00  0.0000000E+00  0.5050505E-02  0.2667820E-10  0.0000000E+00 -0.4109754E-04
  0.3787879E+00  0.0000000E+00  0.5050505E-02  0.2490927E-10  0.0000000E+00 -0.4109749E-04
  0.3888889E+00  0.0000000E+00  0.5050505E-02  0.2301024E-10  0.0000000E+00 -0.4109744E-04
  0.3989899E+00  0.0000000E+00  0.5050505E-02  0.2098984E-10  0.0000000E+00 -0.4109740E-04
  0.4090909E+00  0.0000000E+00  0.5050505E-02  0.1885769E-10  0.0000000E+00 -0.4109736E-04
  0.4191919E+00  0.0000000E+00  0.5050505E-02  0.1662424E-10  0.0000000E+00 -0.4109732E-04
  0.4292929E+00  0.0000000E+00  0.5050505E-02  0.1430074E-10  0.0000000E+00 -0.4109729E-04
  0.4393939E+00  0.0000000E+00  0.5050505E-02  0.1189908E-10  0.0000000E+00 -0.4109727E-04
  0.4494950E+00  0.0000000E+00  0.5050505E-02  0.9431813E-11  0.0000000E+00 -0.4109725E-04
  0.4595959E+00  0.0000000E+00  0.5050505E-02  0.6911983E-11  0.0000000E+00 -0.4109723E-04
  0.4696970E+00  0.0000000E+00  0.5050505E-02  0.4353053E-11  0.0000000E+00 -0.4109722E-04
  0.4797980E+00  0.0000000E+00  0.5050505E-02  0.1768788E-11  0.0000000E+00 -0.4109721E-04
  0.4898990E+00  0.0000000E+00  0.5050505E-02 -0.8267587E-12  0.0000000E+00 -0.4109721E-04
  0.5000000E+00  0.0000000E+00  0.5050505E-02 -0.3419781E-11  0.0000000E+00 -0.4109722E-04
  0.5101010E+00  0.0000000E+00  0.5050505E-02 -0.5995972E-11  0.0000000E+00 -0.4109722E-04
  0.5202020E+00  0.0000000E+00  0.5050505E-02 -0.8541852E-11  0.0000000E+00 -0.4109724E-04
  0.5303030E+00  0.0000000E+00  0.5050505E-02 -0.1104348E-10  0.0000000E+00 -0.4109726E-04
  0.5404040E+00  0.0000000E+00  0.5050505E-02 -0.1348750E-10  0.0000000E+00 -0.4109728E-04
  0.5505050E+00  0.0000000E+00  0.5050505E-02 -0.1586260E-10  0.0000000E+00 -0.4109731E-04
  0.5606061E+00  0.0000000E+00  0.5050505E-02 -0.1815563E-10  0.0000000E+00 -0.4109735E-04
  0.5707071E+00  0.0000000E+00  0.5050505E-02 -0.2035536E-10  0.0000000E+00 -0.4109739E-04
  0.5808081E+00  0.0000000E+00  0.5050505E-02 -0.2245171E-10  0.0000000E+00 -0.4109743E-04
  0.5909091E+00  0.0000000E+00  0.5050505E-02 -0.2443501E-10  0.0000000E+00 -0.4109748E-04
  0.6010101E+00  0.0000000E+00  0.5050505E-02 -0.2629627E-10  0.0000000E+00 -0.4109753E-04
  0.6111111E+00  0.0000000E+00  0.5050505E-02 -0.2802756E-10  0.0000000E+00 -0.4109758E-04
  0.6212121E+00  0.0000000E+00  0.5050505E-02 -0.2962202E-10  0.0000000E+00 -0.4109764E-04
  0.6313131E+00  0.0000000E+00  0.5050505E-02 -0.3107376E-10  0.0000000E+00 -0.4109770E-04
  0.6414142E+00  0.0000000E+00  0.5050505E-02 -0.3237786E-10  0.0000000E+00 -0.4109776E-04
  0.6515151E+00  0.0000000E+00  0.5050505E-02 -0.3353039E-10  0.0000000E+00 -0.4109783E-04
  0.6616161E+00  0.0000000E+00  0.5050505E-02 -0.3452841E-10  0.0000000E+00 -0.4109790E-04
  0.6717172E+00  0.0000000E+00  0.5050505E-02 -0.3537006E-10  0.0000000E+00 -0.4109797E-04
  0.6818182E+00  0.0000000E+00  0.5050505E-02 -0.3605445E-10  0.0000000E+00 -0.4109804E-04
  0.6919192E+00  0.0000000E+00  0.5050505E-02 -0.3658168E-10  0.0000000E+00 -0.4109811E-04
  0.7020202E+00  0.0000000E+00  0.5050505E-02 -0.3695273E-10  0.0000000E+00 -0.4109819E-04
  0.7121212E+00  0.0000000E+00  0.5050505E-02 -0.3716944E-10  0.0000000E+00 -0.4109826E-04
  0.7222222E+00  0.0000000E+00  0.5050505E-02 -0.3723436E-10  0.0000000E+00 -0.4109834E-04
  0.7323232E+00  0.0000000E+00  0.5050505E-02 -0.3715081E-10  0.0000000E+00 -0.4109841E-04
  0.7424242E+00  0.0000000E+00  0.5050505E-02 -0.3692266E-10  0.0000000E+00 -0.4109849E-04
  0.7525253E+00  0.0000000E+00  0.5050505E-02 -0.3655439E-10  0.0000000E+00 -0.4109856E-04
  0.7626263E+00  0.0000000E+00  0.5050505E-02 -0.3605094E-10  0.0000000E+00 -0.4109863E-04
  0.7727273E+00  0.0000000E+00  0.5050505E-02 -0.3541769E-10  0.0000000E+00 -0.4109871E-04
  0.7828283E+00  0.0000000E+00  0.5050505E-02 -0.3466034E-10  0.0000000E+00 -0.4109878E-04
  0.7929293E+00  0.0000000E+00  0.5050505E-02 -0.3378489E-10  0.0000000E+00 -0.4109884E-04
  0.8030303E+00  0.0000000E+00  0.5050505E-02 -0.3279754E-10  0.0000000E+00 -0.4109891E-04
  0.8131313E+00  0.0000000E+00  0.5050505E-02 -0.3170464E-10  0.0000000E+00 -0.4109898E-04
  0.8232324E+00  0.0000000E+00  0.5050505E-02 -0.3051266E-10  0.0000000E+00 -0.4109904E-04
  0.8333333E+00  0.0000000E+00  0.5050505E-02 -0.2922807E-10  0.0000000E+00 -0.4109910E-04
  0.8434343E+00  0.0000000E+00  0.5050505E-02 -0.2785738E-10  0.0000000E+00 -0.4109916E-04
  0.8535354E+00  0.0000000E+00  0.5050505E-02 -0.2640702E-10  0.0000000E+00 -0.4109921E-04
  0.8636364E+00  0.0000000E+00  0.5050505E-02 -0.2488337E-10  0.0000000E+00 -0.4109926E-04
  0.8737374E+00  0.0000000E+00  0.5050505E-02 -0.2329267E-10  0.0000000E+00 -0.4109931E-04
  0.8838384E+00  0.0000000E+00  0.5050505E-02 -0.2164102E-10  0.0000000E+00 -0.4109936E-04
  0.8939394E+00  0.0000000E+00  0.5050505E-02 -0.1993433E-10  0.0000000E+00 -0.4109940E-04
  0.9040404E+00  0.0000000E+00  0.5050505E-02 -0.1817831E-10  0.0000000E+00 -0.4109944E-04
  0.9141414E+00  0.0000000E+00  0.5050505E-02 -0.1637847E-10  0.0000000E+00 -0.4109947E-04
  0.9242424E+00  0.0000000E+00  0.5050505E-02 -0.1454009E-10  0.0000000E+00 -0.4109950E-04
  0.9343435E+00  0.0000000E+00  0.5050505E-02 -0.1266826E-10  0.0000000E+00 -0.4109953E-04
  0.9444444E+00  0.0000000E+00  0.5050505E-02 -0.1076787E-10  0.0000000E+00 -0.4109955E-04
  0.9545454E+00  0.0000000E+00  0.5050505E-02 -0.8843657E-11  0.0000000E+00 -0.4109957E-04
  0.9646465E+00  0.0000000E+00  0.5050505E-02 -0.6900310E-11  0.0000000E+00 -0.4109959E-04
  0.9747475E+00  0.0000000E+00  0.5050505E-02 -0.4942563E-11  0.0000000E+00 -0.4109960E-04
  0.9848485E+00  0.0000000E+00  0.5050505E-02 -0.2975566E-11  0.0000000E+00 -0.4109961E-04
  0.9974747E+00  0.0000000E+00  0.5050505E-02 -0.1005838E-11  0.0000000E+00 -0.4109961E-04
  0.5050505E-02  0.0000000E+00  0.1515152E-01  0.3121693E-11  0.0000000E+00 -0.4094782E-04
  0.1515152E-01  0.0000000E+00  0.1515152E-01  0.9442057E-11  0.0000000E+00 -0.4094782E-04
  0.2525252E-01  0.0000000E+00  0.1515152E-01  0.1574624E-10  0.0000000E+00 -0.4094781E-04
  0.3535353E-01  0.0000000E+00  0.1515152E-01  0.2199515E-10  0.0000000E+00 -0.4094780E-04
  0.4545455E-01  0.0000000E+00  0.1515152E-01  0.2817831E-10  0.0000000E+00 -0.4094778E-04
  0.5555556E-01  0.0000000E+00  0.1515152E-01  0.3427731E-10  0.0000000E+00 -0.4094776E-04
  0.6565657E-01  0.0000000E+00  0.1515152E-01  0.4027863E-10  0.0000000E+00 -0.4094773E-04
  0.7575758E-01  0.0000000E+00  0.1515152E-01  0.4616026E-10  0.0000000E+00 -0.4094771E-04
  0.8585858E-01  0.0000000E+00  0.1515152E-01  0.5190300E-10  0.0000000E+00 -0.4094767E-04
  0.9595960E-01  0.0000000E+00  0.1515152E-01  0.5748872E-10  0.0000000E+00 -0.4094764E-04
  0.1060606E+00  0.0000000E+00  0.1515152E-01  0.6289769E-10  0.0000000E+00 -0.4094759E-04
  0.1161616E+00  0.0000000E+00  0.1515152E-01  0.6810916E-10  0.0000000E+00 -0.4094755E-04
  0.1262626E+00  0.0000000E+00  0.1515152E-01  0.7310234E-10  0.0000000E+00 -0.4094750E-04
  0.1363636E+00  0.0000000E+00  0.1515152E-01  0.7785641E-10  0.0000000E+00 -0.4094745E-04
  0.1464646E+00  0.0000000E+00  0.1515152E-01  0.8235042E-10  0.0000000E+00 -0.4094740E-04
  0.1565657E+00  0.0000000E+00  0.1515152E-01  0.8656312E-10  0.0000000E+00 -0.4094734E-04
  0.1666667E+00  0.0000000E+00  0.1515152E-01  0.9047320E-10  0.0000000E+00 -0.4094728E-04
  0.1767677E+00  0.0000000E+00  0.1515152E-01  0.9405954E-10  0.0000000E+00 -0.4094722E-04
  0.1868687E+00  0.0000000E+00  0.1515152E-01  0.9730150E-10  0.0000000E+00 -0.4094715E-04
  0.1969697E+00  0.0000000E+00  0.1515152E-01  0.1001790E-09  0.0000000E+00 -0.4094708E-04
  0.2070707E+00  0.0000000E+00  0.1515152E-01  0.1026729E-09  0.0000000E+00 -0.4094702E-04
  0.2171717E+00  0.0000000E+00  0.1515152E-01  0.1047649E-09  0.0000000E+00 -0.4094694E-04
  0.2272727E+00  0.0000000E+00  0.1515152E-01  0.1064376E-09  0.0000000E+00 -0.4094687E-04
  0.2373737E+00  0.0000000E+00  0.1515152E-01  0.1076753E-09  0.0000000E+00 -0.4094680E-04
  0.2474747E+00  0.0000000E+00  0.1515152E-01  0.1084633E-09  0.0000000E+00 -0.4094673E-04
  0.2575758E+00  0.0000000E+00  0.1515152E-01  0.1087889E-09  0.0000000E+00 -0.4094665E-04
  0.2676768E+00  0.0000000E+00  0.1515152E-01  0.1086413E-09  0.0000000E+00 -0.4094658E-04
  0.2777778E+00  0.0000000E+00  0.1515152E-01  0.1080117E-09  0.0000000E+00 -0.4094651E-04
  0.2878788E+00  0.0000000E+00  0.1515152E-01  0.1068937E-09  0.0000000E+00 -0.4094643E-04
  0.2979798E+00  0.0000000E+00  0.1515152E-01  0.1052834E-09  0.0000000E+00 -0.4094636E-04
  0.3080808E+00  0.0000000E+00  0.1515152E-01  0.1031797E-09  0.0000000E+00 -0.4094629E-04
  0.3181818E+00  0.0000000E+00  0.1515152E-01  0.1005844E-09  0.0000000E+00 -0.4094622E-04
  0.3282828E+00  0.0000000E+00  0.1515152E-01  0.9750198E-10  0.0000000E+00 -0.4094615E-04
  0.3383838E+00  0.0000000E+00  0.1515152E-01  0.9394041E-10  0.0000000E+00 -0.4094609E-04
  0.3484848E+00  0.0000000E+00  0.1515152E-01  0.8991062E-10  0.0000000E+00 -0.4094603E-04
  0.3585859E+00  0.0000000E+00  0.1515152E-01  0.8542674E-10  0.0000000E+00 -0.4094597E-04
  0.3686869E+00  0.0000000E+00  0.1515152E-01  0.8050610E-10  0.0000000E+00 -0.4094591E-04
  0.3787879E+00  0.0000000E+00  0.1515152E-01  0.7516914E-10  0.0000000E+00 -0.4094586E-04
  0.3888889E+00  0.0000000E+00  0.1515152E-01  0.6943931E-10  0.0000000E+00 -0.4094581E-04
  0.3989899E+00  0.0000000E+00  0.1515152E-01  0.6334291E-10  0.0000000E+00 -0.4094576E-04
  0.4090909E+00  0.0000000E+00  0.1515152E-01  0.5690901E-10  0.0000000E+00 -0.4094572E-04
  0.4191919E+00  0.0000000E+00  0.1515152E-01  0.5016916E-10  0.0000000E+00 -0.4094568E-04
  0.4292929E+00  0.0000000E+00  0.1515152E-01  0.4315730E-10  0.0000000E+00 -0.4094565E-04
  0.4393939E+00  0.0000000E+00  0.1515152E-01  0.3590941E-10  0.0000000E+00 -0.4094563E-04
  0.4494950E+00  0.0000000E+00  0.1515152E-01  0.2846333E-10  0.0000000E+00 -0.4094560E-04
  0.4595959E+00  0.0000000E+00  0.1515152E-01  0.2085849E-10  0.0000000E+00 -0.4094559E-04
  0.4696970E+00  0.0000000E+00  0.1515152E-01  0.1313559E-10  0.0000000E+00 -0.4094558E-04
  0.4797980E+00  0.0000000E+00  0.1515152E-01  0.5336076E-11  0.0000000E+00 -0.4094557E-04
  0.4898990E+00  0.0000000E+00  0.1515152E-01 -0.2497420E-11  0.0000000E+00 -0.4094557E-04
  0.5000000E+00  0.0000000E+00  0.1515152E-01 -0.1032298E-10  0.0000000E+00 -0.4094557E-04
  0.5101010E+00  0.0000000E+00  0.1515152E-01 -0.1809778E-10  0.0000000E+00 -0.4094558E-04
  0.5202020E+00  0.0000000E+00  0.1515152E-01 -0.2578093E-10  0.0000000E+00 -0.4094560E-04
  0.5303030E+00  0.0000000E+00  0.1515152E-01 -0.3333079E-10  0.0000000E+00 -0.4094562E-04
  0.5404040E+00  0.0000000E+00  0.1515152E-01 -0.4070633E-10  0.0000000E+00 -0.4094564E-04
  0.5505050E+00  0.0000000E+00  0.1515152E-01 -0.4787314E-10  0.0000000E+00 -0.4094567E-04
  0.5606061E+00  0.0000000E+00  0.1515152E-01 -0.5479237E-10  0.0000000E+00 -0.4094571E-04
  0.5707071E+00  0.0000000E+00  0.1515152E-01 -0.6142991E-10  0.0000000E+00 -0.4094575E-04
  0.5808081E+00  0.0000000E+00  0.1515152E-01 -0.6775499E-10  0.0000000E+00 -0.4094579E-04
  0.5909091E+00  0.0000000E+00  0.1515152E-01 -0.7373846E-10  0.0000000E+00 -0.4094584E-04
  0.6010101E+00  0.0000000E+00  0.1515152E-01 -0.7935335E-10  0.0000000E+00 -0.4094589E-04
  0.6111111E+00  0.0000000E+00  0.1515152E-01 -0.8457575E-10  0.0000000E+00 -0.4094595E-04
  0.6212121E+00  0.0000000E+00  0.1515152E-01 -0.8938492E-10  0.0000000E+00 -0.4094601E-04
  0.6313131E+00  0.0000000E+00  0.1515152E-01 -0.9376310E-10  0.0000000E+00 -0.4094607E-04
  0.6414142E+00  0.0000000E+00  0.1515152E-01 -0.9769545E-10  0.0000000E+00 -0.4094613E-04
  0.6515151E+00  0.0000000E+00  0.1515152E-01 -0.1011701E-09  0.0000000E+00 -0.4094620E-04
  0.6616161E+00  0.0000000E+00  0.1515152E-01 -0.1041783E-09  0.0000000E+00 -0.4094627E-04
  0.6717172E+00  0.0000000E+00  0.1515152E-01 -0.1067145E-09  0.0000000E+00 -0.4094634E-04
  0.6818182E+00  0.0000000E+00  0.1515152E-01 -0.1087760E-09  0.0000000E+00 -0.4094642E-04
  0.6919192E+00  0.0000000E+00  0.1515152E-01 -0.1103632E-09  0.0000000E+00 -0.4094649E-04
  0.7020202E+00  0.0000000E+00  0.1515152E-01 -0.1114791E-09  0.0000000E+00 -0.4094657E-04
  0.7121212E+00  0.0000000E+00  0.1515152E-01 -0.1121292E-09  0.0000000E+00 -0.4094664E-04
  0.7222222E+00  0.0000000E+00  0.1515152E-01 -0.1123215E-09  0.0000000E+00 -0.4094672E-04
  0.7323232E+00  0.0000000E+00  0.1515152E-01 -0.1120657E-09  0.0000000E+00 -0.4094679E-04
  0.7424242E+00  0.0000000E+00  0.1515152E-01 -0.1113739E-09  0.0000000E+00 -0.4094687E-04
  0.7525253E+00  0.0000000E+00  0.1515152E-01 -0.1102594E-09  0.0000000E+00 -0.4094695E-04
  0.7626263E+00  0.0000000E+00  0.1515152E-01 -0.1087373E-09  0.0000000E+00 -0.4094702E-04
  0.7727273E+00  0.0000000E+00  0.1515152E-01 -0.1068238E-09  0.0000000E+00 -0.4094709E-04
  0.7828283E+00  0.0000000E+00  0.1515152E-01 -0.1045362E-09  0.0000000E+00 -0.4094716E-04
  0.7929293E+00  0.0000000E+00  0.1515152E-01 -0.1018926E-09  0.0000000E+00 -0.4094723E-04
  0.8030303E+00  0.0000000E+00  0.1515152E-01 -0.9891179E-10  0.0000000E+00 -0.4094730E-04
  0.8131313E+00  0.0000000E+00  0.1515152E-01 -0.9561291E-10  0.0000000E+00 -0.4094737E-04
  0.8232324E+00  0.0000000E+00  0.1515152E-01 -0.9201548E-10  0.0000000E+00 -0.4094743E-04
  0.8333333E+00  0.0000000E+00  0.1515152E-01 -0.8813909E-10  0.0000000E+00 -0.4094749E-04
  0.8434343E+00  0.0000000E+00  0.1515152E-01 -0.8400337E-10  0.0000000E+00 -0.4094755E-04
  0.8535354E+00  0.0000000E+00  0.1515152E-01 -0.7962776E-10  0.0000000E+00 -0.4094761E-04
  0.8636364E+00  0.0000000E+00  0.1515152E-01 -0.7503146E-10  0.0000000E+00 -0.4094766E-04
  0.8737374E+00  0.0000000E+00  0.1515152E-01 -0.7023332E-10  0.0000000E+00 -0.4094771E-04
  0.8838384E+00  0.0000000E+00  0.1515152E-01 -0.6525172E-10  0.0000000E+00 -0.4094776E-04
  0.8939394E+00  0.0000000E+00  0.1515152E-01 -0.6010449E-10  0.0000000E+00 -0.4094780E-04
  0.9040404E+00  0.0000000E+00  0.1515152E-01 -0.5480885E-10  0.0000000E+00 -0.4094784E-04
  0.9141414E+00  0.0000000E+00  0.1515152E-01 -0.4938136E-10  0.0000000E+00 -0.4094787E-04
  0.9242424E+00  0.0000000E+00  0.1515152E-01 -0.4383795E-10  0.0000000E+00 -0.4094790E-04
  0.9343435E+00  0.0000000E+00  0.1515152E-01 -0.3819388E-10  0.0000000E+00 -0.4094793E-04
  0.9444444E+00  0.0000000E+00  0.1515152E-01 -0.3246386E-10  0.0000000E+00 -0.4094796E-04
  0.9545454E+00  0.0000000E+00  0.1515152E-01 -0.2666214E-10  0.0000000E+00 -0.4094798E-04
  0.9646465E+00  0.0000000E+00  0.1515152E-01 -0.2080270E-10  0.0000000E+00 -0.4094799E-04
  0.9747475E+00  0.0000000E+00  0.1515152E-01 -0.1489948E-10  0.0000000E+00 -0.4094800E-04
  0.9848485E+00  0.0000000E+00  0.1515152E-01 -0.8967031E-11  0.0000000E+00 -0.4094801E-04
  0.9974747E+00  0.0000000E+00  0.1515152E-01 -0.3021697E-11  0.0000000E+00 -0.4094802E-04
  0.5050505E-02  0.0000000E+00  0.2525252E-01  0.5275645E-11  0.0000000E+00 -0.4064650E-04
  0.1515152E-01  0.0000000E+00  0.2525252E-01  0.1591808E-10  0.0000000E+00 -0.4064650E-04
  0.2525252E-01  0.0000000E+00  0.2525252E-01  0.2653594E-10  0.0000000E+00 -0.4064649E-04
  0.3535353E-01  0.0000000E+00  0.2525252E-01  0.3706344E-10  0.0000000E+00 -0.4064648E-04
  0.4545455E-01  0.0000000E+00  0.2525252E-01  0.4748232E-10  0.0000000E+00 -0.4064646E-04
  0.5555556E-01  0.0000000E+00  0.2525252E-01  0.5776028E-10  0.0000000E+00 -0.4064644E-04
  0.6565657E-01  0.0000000E+00  0.2525252E-01  0.6787326E-10  0.0000000E+00 -0.4064641E-04
  0.7575758E-01  0.0000000E+00  0.2525252E-01  0.7778590E-10  0.0000000E+00 -0.4064638E-04
  0.8585858E-01  0.0000000E+00  0.2525252E-01  0.8746569E-10  0.0000000E+00 -0.4064635E-04
  0.9595960E-01  0.0000000E+00  0.2525252E-01  0.9688143E-10  0.0000000E+00 -0.4064631E-04
  0.1060606E+00  0.0000000E+00  0.2525252E-01  0.1059999E-09  0.0000000E+00 -0.4064626E-04
  0.1161616E+00  0.0000000E+00  0.2525252E-01  0.1147866E-09  0.0000000E+00 -0.4064622E-04
  0.1262626E+00  0.0000000E+00  0.2525252E-01  0.1232063E-09  0.0000000E+00 -0.4064617E-04
  0.1363636E+00  0.0000000E+00  0.2525252E-01  0.1312241E-09  0.0000000E+00 -0.4064612E-04
  0.1464646E+00  0.0000000E+00  0.2525252E-01  0.1388044E-09  0.0000000E+00 -0.4064606E-04
  0.1565657E+00  0.0000000E+00  0.2525252E-01  0.1459114E-09  0.0000000E+00 -0.4064600E-04
  0.1666667E+00  0.0000000E+00  0.2525252E-01  0.1525091E-09  0.0000000E+00 -0.4064594E-04
  0.1767677E+00  0.0000000E+00  0.2525252E-01  0.1585620E-09  0.0000000E+00 -0.4064587E-04
  0.1868687E+00  0.0000000E+00  0.2525252E-01  0.1640350E-09  0.0000000E+00 -0.4064580E-04
  0.1969697E+00  0.0000000E+00  0.2525252E-01  0.1688945E-09  0.0000000E+00 -0.4064573E-04
  0.2070707E+00  0.0000000E+00  0.2525252E-01  0.1731078E-09  0.0000000E+00 -0.4064566E-04
  0.2171717E+00  0.0000000E+00  0.2525252E-01  0.1766439E-09  0.0000000E+00 -0.4064559E-04
  0.2272727E+00  0.0000000E+00  0.2525252E-01  0.1794736E-09  0.0000000E+00 -0.4064552E-04
  0.2373737E+00  0.0000000E+00  0.2525252E-01  0.1815699E-09  0.0000000E+00 -0.4064544E-04
  0.2474747E+00  0.0000000E+00  0.2525252E-01  0.1829081E-09  0.0000000E+00 -0.4064536E-04
  0.2575758E+00  0.0000000E+00  0.2525252E-01  0.1834667E-09  0.0000000E+00 -0.4064529E-04
  0.2676768E+00  0.0000000E+00  0.2525252E-01  0.1832270E-09  0.0000000E+00 -0.4064521E-04
  0.2777778E+00  0.0000000E+00  0.2525252E-01  0.1821742E-09  0.0000000E+00 -0.4064513E-04
  0.2878788E+00  0.0000000E+00  0.2525252E-01  0.1802973E-09  0.0000000E+00 -0.4064506E-04
  0.2979798E+00  0.0000000E+00  0.2525252E-01  0.1775897E-09  0.0000000E+00 -0.4064498E-04
  0.3080808E+00  0.0000000E+00  0.2525252E-01  0.1740493E-09  0.0000000E+00 -0.4064491E-04
  0.3181818E+00  0.0000000E+00  0.2525252E-01  0.1696787E-09  0.0000000E+00 -0.4064484E-04
  0.3282828E+00  0.0000000E+00  0.2525252E-01  0.1644859E-09  0.0000000E+00 -0.4064477E-04
  0.3383838E+00  0.0000000E+00  0.2525252E-01  0.1584838E-09  0.0000000E+00 -0.4064470E-04
  0.3484848E+00  0.0000000E+00  0.2525252E-01  0.1516910E-09  0.0000000E+00 -0.4064463E-04
  0.3585859E+00  0.0000000E+00  0.2525252E-01  0.1441311E-09  0.0000000E+00 -0.4064457E-04
  0.3686869E+00  0.0000000E+00  0.2525252E-01  0.1358334E-09  0.0000000E+00 -0.4064451E-04
  0.3787879E+00  0.0000000E+00  0.2525252E-01  0.1268323E-09  0.0000000E+00 -0.4064446E-04
  0.3888889E+00  0.0000000E+00  0.2525252E-01  0.1171674E-09  0.0000000E+00 -0.4064441E-04
  0.3989899E+00  0.0000000E+00  0.2525252E-01  0.1068830E-09  0.0000000E+00 -0.4064436E-04
  0.4090909E+00  0.0000000E+00  0.2525252E-01  0.9602822E-10  0.0000000E+00 -0.4064432E-04
  0.4191919E+00  0.0000000E+00  0.2525252E-01  0.8465637E-10  0.0000000E+00 -0.4064428E-04
  0.4292929E+00  0.0000000E+00  0.2525252E-01  0.7282472E-10  0.0000000E+00 -0.4064425E-04
  0.4393939E+00  0.0000000E+00  0.2525252E-01  0.6059411E-10  0.0000000E+00 -0.4064422E-04
  0.4494950E+00  0.0000000E+00  0.2525252E-01  0.4802854E-10  0.0000000E+00 -0.4064420E-04
  0.4595959E+00  0.0000000E+00  0.2525252E-01  0.3519461E-10  0.0000000E+00 -0.4064418E-04
  0.4696970E+00  0.0000000E+00  0.2525252E-01  0.2216109E-10  0.0000000E+00 -0.4064417E-04
  0.4797980E+00  0.0000000E+00  0.2525252E-01  0.8998284E-11  0.0000000E+00 -0.4064416E-04
  0.4898990E+00  0.0000000E+00  0.2525252E-01 -0.4221818E-11  0.0000000E+00 -0.4064416E-04
  0.5000000E+00  0.0000000E+00  0.2525252E-01 -0.1742809E-10  0.0000000E+00 -0.4064416E-04
  0.5101010E+00  0.0000000E+00  0.2525252E-01 -0.3054867E-10  0.0000000E+00 -0.4064417E-04
  0.5202020E+00  0.0000000E+00  0.2525252E-01 -0.4351387E-10  0.0000000E+00 -0.4064419E-04
  0.5303030E+00  0.0000000E+00  0.2525252E-01 -0.5625408E-10  0.0000000E+00 -0.4064421E-04
  0.5404040E+00  0.0000000E+00  0.2525252E-01 -0.6869930E-10  0.0000000E+00 -0.4064424E-04
  0.5505050E+00  0.0000000E+00  0.2525252E-01 -0.8079061E-10  0.0000000E+00 -0.4064427E-04
  0.5606061E+00  0.0000000E+00  0.2525252E-01 -0.9246370E-10  0.0000000E+00 -0.4064430E-04
  0.5707071E+00  0.0000000E+00  0.2525252E-01 -0.1036607E-09  0.0000000E+00 -0.4064435E-04
  0.5808081E+00  0.0000000E+00  0.2525252E-01 -0.1143292E-09  0.0000000E+00 -0.4064439E-04
  0.5909091E+00  0.0000000E+00  0.2525252E-01 -0.1244199E-09  0.0000000E+00 -0.4064444E-04
  0.6010101E+00  0.0000000E+00  0.2525252E-01 -0.1338877E-09  0.0000000E+00 -0.4064450E-04
  0.6111111E+00  0.0000000E+00  0.2525252E-01 -0.1426922E-09  0.0000000E+00 -0.4064455E-04
  0.6212121E+00  0.0000000E+00  0.2525252E-01 -0.1507983E-09  0.0000000E+00 -0.4064462E-04
  0.6313131E+00  0.0000000E+00  0.2525252E-01 -0.1581763E-09  0.0000000E+00 -0.4064468E-04
  0.6414142E+00  0.0000000E+00  0.2525252E-01 -0.1648010E-09  0.0000000E+00 -0.4064475E-04
  0.6515151E+00  0.0000000E+00  0.2525252E-01 -0.1706526E-09  0.0000000E+00 -0.4064482E-04
  0.6616161E+00  0.0000000E+00  0.2525252E-01 -0.1757165E-09  0.0000000E+00 -0.4064489E-04
  0.6717172E+00  0.0000000E+00  0.2525252E-01 -0.1799834E-09  0.0000000E+00 -0.4064496E-04
  0.6818182E+00  0.0000000E+00  0.2525252E-01 -0.1834490E-09  0.0000000E+00 -0.4064504E-04
  0.6919192E+00  0.0000000E+00  0.2525252E-01 -0.1861142E-09  0.0000000E+00 -0.4064512E-04
  0.7020202E+00  0.0000000E+00  0.2525252E-01 -0.1879841E-09  0.0000000E+00 -0.4064520E-04
  0.7121212E+00  0.0000000E+00  0.2525252E-01 -0.1890683E-09  0.0000000E+00 -0.4064528E-04
  0.7222222E+00  0.0000000E+00  0.2525252E-01 -0.1893802E-09  0.0000000E+00 -0.4064535E-04
  0.7323232E+00  0.0000000E+00  0.2525252E-01 -0.1889368E-09  0.0000000E+00 -0.4064543E-04
  0.7424242E+00  0.0000000E+00  0.2525252E-01 -0.1877581E-09  0.0000000E+00 -0.4064551E-04
  0.7525253E+00  0.0000000E+00  0.2525252E-01 -0.1858671E-09  0.0000000E+00 -0.4064559E-04
  0.7626263E+00  0.0000000E+00  0.2525252E-01 -0.1832894E-09  0.0000000E+00 -0.4064567E-04
  0.7727273E+00  0.0000000E+00  0.2525252E-01 -0.1800524E-09  0.0000000E+00 -0.4064574E-04
  0.7828283E+00  0.0000000E+00  0.2525252E-01 -0.1761854E-09  0.0000000E+00 -0.4064582E-04
  0.7929293E+00  0.0000000E+00  0.2525252E-01 -0.1717190E-09  0.0000000E+00 -0.4064589E-04
  0.8030303E+00  0.0000000E+00  0.2525252E-01 -0.1666852E-09  0.0000000E+00 -0.4064596E-04
  0.8131313E+00  0.0000000E+00  0.2525252E-01 -0.1611162E-09  0.0000000E+00 -0.4064603E-04
  0.8232324E+00  0.0000000E+00  0.2525252E-01 -0.1550451E-09  0.0000000E+00 -0.4064610E-04
  0.8333333E+00  0.0000000E+00  0.2525252E-01 -0.1485050E-09  0.0000000E+00 -0.4064616E-04
  0.8434343E+00  0.0000000E+00  0.2525252E-01 -0.1415290E-09  0.0000000E+00 -0.4064622E-04
  0.8535354E+00  0.0000000E+00  0.2525252E-01 -0.1341499E-09  0.0000000E+00 -0.4064628E-04
  0.8636364E+00  0.0000000E+00  0.2525252E-01 -0.1264002E-09  0.0000000E+00 -0.4064633E-04
  0.8737374E+00  0.0000000E+00  0.2525252E-01 -0.1183115E-09  0.0000000E+00 -0.4064638E-04
  0.8838384E+00  0.0000000E+00  0.2525252E-01 -0.1099149E-09  0.0000000E+00 -0.4064643E-04
  0.8939394E+00  0.0000000E+00  0.2525252E-01 -0.1012404E-09  0.0000000E+00 -0.4064647E-04
  0.9040404E+00  0.0000000E+00  0.2525252E-01 -0.9231690E-10  0.0000000E+00 -0.4064652E-04
  0.9141414E+00  0.0000000E+00  0.2525252E-01 -0.8317231E-10  0.0000000E+00 -0.4064655E-04
  0.9242424E+00  0.0000000E+00  0.2525252E-01 -0.7383330E-10  0.0000000E+00 -0.4064658E-04
  0.9343435E+00  0.0000000E+00  0.2525252E-01 -0.6432550E-10  0.0000000E+00 -0.4064661E-04
  0.9444444E+00  0.0000000E+00  0.2525252E-01 -0.5467356E-10  0.0000000E+00 -0.4064664E-04
  0.9545454E+00  0.0000000E+00  0.2525252E-01 -0.4490128E-10  0.0000000E+00 -0.4064666E-04
  0.9646465E+00  0.0000000E+00  0.2525252E-01 -0.3503187E-10  0.0000000E+00 -0.4064668E-04
  0.9747475E+00  0.0000000E+00  0.2525252E-01 -0.2508818E-10  0.0000000E+00 -0.4064669E-04
  0.9848485E+00  0.0000000E+00  0.2525252E-01 -0.1509305E-10  0.0000000E+00 -0.4064670E-04
  0.9974747E+00  0.0000000E+00  0.2525252E-01 -0.5069735E-11  0.0000000E+00 -0.4064670E-04
  0.5050505E-02  0.0000000E+00  0.3535353E-01  0.7525843E-11  0.0000000E+00 -0.4019832E-04
  0.1515152E-01  0.0000000E+00  0.3535353E-01  0.2267448E-10  0.0000000E+00 -0.4019832E-04
  0.2525252E-01  0.0000000E+00  0.3535353E-01  0.3778797E-10  0.0000000E+00 -0.4019831E-04
  0.3535353E-01  0.0000000E+00  0.3535353E-01  0.5277592E-10  0.0000000E+00 -0.4019829E-04
  0.4545455E-01  0.0000000E+00  0.3535353E-01  0.6761120E-10  0.0000000E+00 -0.4019827E-04
  0.5555556E-01  0.0000000E+00  0.3535353E-01  0.8224777E-10  0.0000000E+00 -0.4019825E-04
  0.6565657E-01  0.0000000E+00  0.3535353E-01  0.9664994E-10  0.0000000E+00 -0.4019822E-04
  0.7575758E-01  0.0000000E+00  0.3535353E-01  0.1107687E-09  0.0000000E+00 -0.4019819E-04
  0.8585858E-01  0.0000000E+00  0.3535353E-01  0.1245578E-09  0.0000000E+00 -0.4019815E-04
  0.9595960E-01  0.0000000E+00  0.3535353E-01  0.1379724E-09  0.0000000E+00 -0.4019811E-04
  0.1060606E+00  0.0000000E+00  0.3535353E-01  0.1509654E-09  0.0000000E+00 -0.4019807E-04
  0.1161616E+00  0.0000000E+00  0.3535353E-01  0.1634877E-09  0.0000000E+00 -0.4019802E-04
  0.1262626E+00  0.0000000E+00  0.3535353E-01  0.1754895E-09  0.0000000E+00 -0.4019797E-04
  0.1363636E+00  0.0000000E+00  0.3535353E-01  0.1869207E-09  0.0000000E+00 -0.4019791E-04
  0.1464646E+00  0.0000000E+00  0.3535353E-01  0.1977307E-09  0.0000000E+00 -0.4019785E-04
  0.1565657E+00  0.0000000E+00  0.3535353E-01  0.2078683E-09  0.0000000E+00 -0.4019779E-04
  0.1666667E+00  0.0000000E+00  0.3535353E-01  0.2172822E-09  0.0000000E+00 -0.4019772E-04
  0.1767677E+00  0.0000000E+00  0.3535353E-01  0.2259217E-09  0.0000000E+00 -0.4019766E-04
  0.1868687E+00  0.0000000E+00  0.3535353E-01  0.2337367E-09  0.0000000E+00 -0.4019758E-04
  0.1969697E+00  0.0000000E+00  0.3535353E-01  0.2406788E-09  0.0000000E+00 -0.4019751E-04
  0.2070707E+00  0.0000000E+00  0.3535353E-01  0.2467015E-09  0.0000000E+00 -0.4019744E-04
  0.2171717E+00  0.0000000E+00  0.3535353E-01  0.2517602E-09  0.0000000E+00 -0.4019736E-04
  0.2272727E+00  0.0000000E+00  0.3535353E-01  0.2558130E-09  0.0000000E+00 -0.4019728E-04
  0.2373737E+00  0.0000000E+00  0.3535353E-01  0.2588209E-09  0.0000000E+00 -0.4019720E-04
  0.2474747E+00  0.0000000E+00  0.3535353E-01  0.2607486E-09  0.0000000E+00 -0.4019712E-04
  0.2575758E+00  0.0000000E+00  0.3535353E-01  0.2615649E-09  0.0000000E+00 -0.4019704E-04
  0.2676768E+00  0.0000000E+00  0.3535353E-01  0.2612429E-09  0.0000000E+00 -0.4019696E-04
  0.2777778E+00  0.0000000E+00  0.3535353E-01  0.2597611E-09  0.0000000E+00 -0.4019688E-04
  0.2878788E+00  0.0000000E+00  0.3535353E-01  0.2571036E-09  0.0000000E+00 -0.4019680E-04
  0.2979798E+00  0.0000000E+00  0.3535353E-01  0.2532605E-09  0.0000000E+00 -0.4019672E-04