title = "dataset water"
variables = "x", "y", "z", "vx", "vy", "vz"
zone t = "velocities, solution time =  2.600E+01 days        " i =   99, j =   99, k =    1,  f=point
  0.5050505E-02  0.0000000E+00  0.5050505E-02  0.3260358E-08  0.0000000E+00 -0.8716729E-05
  0.1515152E-01  0.0000000E+00  0.5050505E-02  0.9783893E-08  0.0000000E+00 -0.8703671E-05
  0.2525252E-01  0.0000000E+00  0.5050505E-02  0.1631567E-07  0.0000000E+00 -0.8677544E-05
  0.3535353E-01  0.0000000E+00  0.5050505E-02  0.2286055E-07  0.0000000E+00 -0.8638326E-05
  0.4545455E-01  0.0000000E+00  0.5050505E-02  0.2942245E-07  0.0000000E+00 -0.8585988E-05
  0.5555556E-01  0.0000000E+00  0.5050505E-02  0.3600389E-07  0.0000000E+00 -0.8520493E-05
  0.6565657E-01  0.0000000E+00  0.5050505E-02  0.4260562E-07  0.0000000E+00 -0.8441802E-05
  0.7575758E-01  0.0000000E+00  0.5050505E-02  0.4922614E-07  0.0000000E+00 -0.8349876E-05
  0.8585858E-01  0.0000000E+00  0.5050505E-02  0.5586120E-07  0.0000000E+00 -0.8244683E-05
  0.9595960E-01  0.0000000E+00  0.5050505E-02  0.6250337E-07  0.0000000E+00 -0.8126200E-05
  0.1060606E+00  0.0000000E+00  0.5050505E-02  0.6914144E-07  0.0000000E+00 -0.7994426E-05
  0.1161616E+00  0.0000000E+00  0.5050505E-02  0.7575993E-07  0.0000000E+00 -0.7849385E-05
  0.1262626E+00  0.0000000E+00  0.5050505E-02  0.8233848E-07  0.0000000E+00 -0.7691138E-05
  0.1363636E+00  0.0000000E+00  0.5050505E-02  0.8885135E-07  0.0000000E+00 -0.7519790E-05
  0.1464646E+00  0.0000000E+00  0.5050505E-02  0.9526681E-07  0.0000000E+00 -0.7335506E-05
  0.1565657E+00  0.0000000E+00  0.5050505E-02  0.1015467E-06  0.0000000E+00 -0.7138520E-05
  0.1666667E+00  0.0000000E+00  0.5050505E-02  0.1076462E-06  0.0000000E+00 -0.6929149E-05
  0.1767677E+00  0.0000000E+00  0.5050505E-02  0.1135130E-06  0.0000000E+00 -0.6707808E-05
  0.1868687E+00  0.0000000E+00  0.5050505E-02  0.1190880E-06  0.0000000E+00 -0.6475022E-05
  0.1969697E+00  0.0000000E+00  0.5050505E-02  0.1243048E-06  0.0000000E+00 -0.6231443E-05
  0.2070707E+00  0.0000000E+00  0.5050505E-02  0.1290908E-06  0.0000000E+00 -0.5977862E-05
  0.2171717E+00  0.0000000E+00  0.5050505E-02  0.1333676E-06  0.0000000E+00 -0.5715219E-05
  0.2272727E+00  0.0000000E+00  0.5050505E-02  0.1370526E-06  0.0000000E+00 -0.5444618E-05
  0.2373737E+00  0.0000000E+00  0.5050505E-02  0.1400611E-06  0.0000000E+00 -0.5167329E-05
  0.2474747E+00  0.0000000E+00  0.5050505E-02  0.1423086E-06  0.0000000E+00 -0.4884790E-05
  0.2575758E+00  0.0000000E+00  0.5050505E-02  0.1437143E-06  0.0000000E+00 -0.4598606E-05
  0.2676768E+00  0.0000000E+00  0.5050505E-02  0.1442044E-06  0.0000000E+00 -0.4310534E-05
  0.2777778E+00  0.0000000E+00  0.5050505E-02  0.1437161E-06  0.0000000E+00 -0.4022472E-05
  0.2878788E+00  0.0000000E+00  0.5050505E-02  0.1422024E-06  0.0000000E+00 -0.3736422E-05
  0.2979798E+00  0.0000000E+00  0.5050505E-02  0.1396355E-06  0.0000000E+00 -0.3454465E-05
  0.3080808E+00  0.0000000E+00  0.5050505E-02  0.1360110E-06  0.0000000E+00 -0.3178710E-05
  0.3181818E+00  0.0000000E+00  0.5050505E-02  0.1313496E-06  0.0000000E+00 -0.2911254E-05
  0.3282828E+00  0.0000000E+00  0.5050505E-02  0.1256987E-06  0.0000000E+00 -0.2654122E-05
  0.3383838E+00  0.0000000E+00  0.5050505E-02  0.1191315E-06  0.0000000E+00 -0.2409219E-05
  0.3484848E+00  0.0000000E+00  0.5050505E-02  0.1117441E-06  0.0000000E+00 -0.2178282E-05
  0.3585859E+00  0.0000000E+00  0.5050505E-02  0.1036506E-06  0.0000000E+00 -0.1962835E-05
  0.3686869E+00  0.0000000E+00  0.5050505E-02  0.9497684E-07  0.0000000E+00 -0.1764165E-05
  0.3787879E+00  0.0000000E+00  0.5050505E-02  0.8585268E-07  0.0000000E+00 -0.1583300E-05
  0.3888889E+00  0.0000000E+00  0.5050505E-02  0.7640458E-07  0.0000000E+00 -0.1421014E-05
  0.3989899E+00  0.0000000E+00  0.5050505E-02  0.6674814E-07  0.0000000E+00 -0.1277839E-05
  0.4090909E+00  0.0000000E+00  0.5050505E-02  0.5698143E-07  0.0000000E+00 -0.1154092E-05
  0.4191919E+00  0.0000000E+00  0.5050505E-02  0.4718162E-07  0.0000000E+00 -0.1049915E-05
  0.4292929E+00  0.0000000E+00  0.5050505E-02  0.3740410E-07  0.0000000E+00 -0.9653195E-06
  0.4393939E+00  0.0000000E+00  0.5050505E-02  0.2768248E-07  0.0000000E+00 -0.9002257E-06
  0.4494950E+00  0.0000000E+00  0.5050505E-02  0.1803101E-07  0.0000000E+00 -0.8545074E-06
  0.4595959E+00  0.0000000E+00  0.5050505E-02  0.8448864E-08  0.0000000E+00 -0.8280248E-06
  0.4696970E+00  0.0000000E+00  0.5050505E-02 -0.1074219E-08  0.0000000E+00 -0.8206494E-06
  0.4797980E+00  0.0000000E+00  0.5050505E-02 -0.1055184E-07  0.0000000E+00 -0.8322767E-06
  0.4898990E+00  0.0000000E+00  0.5050505E-02 -0.1999491E-07  0.0000000E+00 -0.8628266E-06
  0.5000000E+00  0.0000000E+00  0.5050505E-02 -0.2940620E-07  0.0000000E+00 -0.9122329E-06
  0.5101010E+00  0.0000000E+00  0.5050505E-02 -0.3877605E-07  0.0000000E+00 -0.9804228E-06
  0.5202020E+00  0.0000000E+00  0.5050505E-02 -0.4807945E-07  0.0000000E+00 -0.1067289E-05
  0.5303030E+00  0.0000000E+00  0.5050505E-02 -0.5727505E-07  0.0000000E+00 -0.1172657E-05
  0.5404040E+00  0.0000000E+00  0.5050505E-02 -0.6630619E-07  0.0000000E+00 -0.1296256E-05
  0.5505050E+00  0.0000000E+00  0.5050505E-02 -0.7510319E-07  0.0000000E+00 -0.1437688E-05
  0.5606061E+00  0.0000000E+00  0.5050505E-02 -0.8358526E-07  0.0000000E+00 -0.1596405E-05
  0.5707071E+00  0.0000000E+00  0.5050505E-02 -0.9166537E-07  0.0000000E+00 -0.1771690E-05
  0.5808081E+00  0.0000000E+00  0.5050505E-02 -0.9925580E-07  0.0000000E+00 -0.1962653E-05
  0.5909091E+00  0.0000000E+00  0.5050505E-02 -0.1062727E-06  0.0000000E+00 -0.2168231E-05
  0.6010101E+00  0.0000000E+00  0.5050505E-02 -0.1126403E-06  0.0000000E+00 -0.2387202E-05
  0.6111111E+00  0.0000000E+00  0.5050505E-02 -0.1182950E-06  0.0000000E+00 -0.2618205E-05
  0.6212121E+00  0.0000000E+00  0.5050505E-02 -0.1231875E-06  0.0000000E+00 -0.2859765E-05
  0.6313131E+00  0.0000000E+00  0.5050505E-02 -0.1272847E-06  0.0000000E+00 -0.3110326E-05
  0.6414142E+00  0.0000000E+00  0.5050505E-02 -0.1305696E-06  0.0000000E+00 -0.3368278E-05
  0.6515151E+00  0.0000000E+00  0.5050505E-02 -0.1330412E-06  0.0000000E+00 -0.3631998E-05
  0.6616161E+00  0.0000000E+00  0.5050505E-02 -0.1347130E-06  0.0000000E+00 -0.3899872E-05
  0.6717172E+00  0.0000000E+00  0.5050505E-02 -0.1356110E-06  0.0000000E+00 -0.4170325E-05
  0.6818182E+00  0.0000000E+00  0.5050505E-02 -0.1357715E-06  0.0000000E+00 -0.4441847E-05
  0.6919192E+00  0.0000000E+00  0.5050505E-02 -0.1352390E-06  0.0000000E+00 -0.4713005E-05
  0.7020202E+00  0.0000000E+00  0.5050505E-02 -0.1340639E-06  0.0000000E+00 -0.4982464E-05
  0.7121212E+00  0.0000000E+00  0.5050505E-02 -0.1322999E-06  0.0000000E+00 -0.5248990E-05
  0.7222222E+00  0.0000000E+00  0.5050505E-02 -0.1300030E-06  0.0000000E+00 -0.5511462E-05
  0.7323232E+00  0.0000000E+00  0.5050505E-02 -0.1272290E-06  0.0000000E+00 -0.5768868E-05
  0.7424242E+00  0.0000000E+00  0.5050505E-02 -0.1240329E-06  0.0000000E+00 -0.6020308E-05
  0.7525253E+00  0.0000000E+00  0.5050505E-02 -0.1204674E-06  0.0000000E+00 -0.6264989E-05
  0.7626263E+00  0.0000000E+00  0.5050505E-02 -0.1165825E-06  0.0000000E+00 -0.6502221E-05
  0.7727273E+00  0.0000000E+00  0.5050505E-02 -0.1124247E-06  0.0000000E+00 -0.6731411E-05
  0.7828283E+00  0.0000000E+00  0.5050505E-02 -0.1080369E-06  0.0000000E+00 -0.6952055E-05
  0.7929293E+00  0.0000000E+00  0.5050505E-02 -0.1034580E-06  0.0000000E+00 -0.7163730E-05
  0.8030303E+00  0.0000000E+00  0.5050505E-02 -0.9872315E-07  0.0000000E+00 -0.7366089E-05
  0.8131313E+00  0.0000000E+00  0.5050505E-02 -0.9386335E-07  0.0000000E+00 -0.7558850E-05
  0.8232324E+00  0.0000000E+00  0.5050505E-02 -0.8890603E-07  0.0000000E+00 -0.7741789E-05
  0.8333333E+00  0.0000000E+00  0.5050505E-02 -0.8387502E-07  0.0000000E+00 -0.7914734E-05
  0.8434343E+00  0.0000000E+00  0.5050505E-02 -0.7879076E-07  0.0000000E+00 -0.8077558E-05
  0.8535354E+00  0.0000000E+00  0.5050505E-02 -0.7367059E-07  0.0000000E+00 -0.8230170E-05
  0.8636364E+00  0.0000000E+00  0.5050505E-02 -0.6852895E-07  0.0000000E+00 -0.8372513E-05
  0.8737374E+00  0.0000000E+00  0.5050505E-02 -0.6337764E-07  0.0000000E+00 -0.8504555E-05
  0.8838384E+00  0.0000000E+00  0.5050505E-02 -0.5822609E-07  0.0000000E+00 -0.8626286E-05
  0.8939394E+00  0.0000000E+00  0.5050505E-02 -0.5308155E-07  0.0000000E+00 -0.8737711E-05
  0.9040404E+00  0.0000000E+00  0.5050505E-02 -0.4794936E-07  0.0000000E+00 -0.8838851E-05
  0.9141414E+00  0.0000000E+00  0.5050505E-02 -0.4283312E-07  0.0000000E+00 -0.8929732E-05
  0.9242424E+00  0.0000000E+00  0.5050505E-02 -0.3773497E-07  0.0000000E+00 -0.9010388E-05
  0.9343435E+00  0.0000000E+00  0.5050505E-02 -0.3265568E-07  0.0000000E+00 -0.9080856E-05
  0.9444444E+00  0.0000000E+00  0.5050505E-02 -0.2759493E-07  0.0000000E+00 -0.9141174E-05
  0.9545454E+00  0.0000000E+00  0.5050505E-02 -0.2255144E-07  0.0000000E+00 -0.9191377E-05
  0.9646465E+00  0.0000000E+00  0.5050505E-02 -0.1752310E-07  0.0000000E+00 -0.9231497E-05
  0.9747475E+00  0.0000000E+00  0.5050505E-02 -0.1250721E-07  0.0000000E+00 -0.9261561E-05
  0.9848485E+00  0.0000000E+00  0.5050505E-02 -0.7500541E-08  0.0000000E+00 -0.9281591E-05
  0.9974747E+00  0.0000000E+00  0.5050505E-02 -0.2499544E-08  0.0000000E+00 -0.9291603E-05
  0.5050505E-02  0.0000000E+00  0.1515152E-01  0.9795810E-08  0.0000000E+00 -0.8686609E-05
  0.1515152E-01  0.0000000E+00  0.1515152E-01  0.2939612E-07  0.0000000E+00 -0.8673453E-05
  0.2525252E-01  0.0000000E+00  0.1515152E-01  0.4902187E-07  0.0000000E+00 -0.8647131E-05
  0.3535353E-01  0.0000000E+00  0.1515152E-01  0.6868813E-07  0.0000000E+00 -0.8607618E-05
  0.4545455E-01  0.0000000E+00  0.1515152E-01  0.8840710E-07  0.0000000E+00 -0.8554881E-05
  0.5555556E-01  0.0000000E+00  0.1515152E-01  0.1081869E-06  0.0000000E+00 -0.8488881E-05
  0.6565657E-01  0.0000000E+00  0.1515152E-01  0.1280302E-06  0.0000000E+00 -0.8409573E-05
  0.7575758E-01  0.0000000E+00  0.1515152E-01  0.1479331E-06  0.0000000E+00 -0.8316913E-05
  0.8585858E-01  0.0000000E+00  0.1515152E-01  0.1678833E-06  0.0000000E+00 -0.8210860E-05
  0.9595960E-01  0.0000000E+00  0.1515152E-01  0.1878591E-06  0.0000000E+00 -0.8091385E-05
  0.1060606E+00  0.0000000E+00  0.1515152E-01  0.2078274E-06  0.0000000E+00 -0.7958477E-05
  0.1161616E+00  0.0000000E+00  0.1515152E-01  0.2277422E-06  0.0000000E+00 -0.7812151E-05
  0.1262626E+00  0.0000000E+00  0.1515152E-01  0.2475429E-06  0.0000000E+00 -0.7652456E-05
  0.1363636E+00  0.0000000E+00  0.1515152E-01  0.2671526E-06  0.0000000E+00 -0.7479487E-05
  0.1464646E+00  0.0000000E+00  0.1515152E-01  0.2864766E-06  0.0000000E+00 -0.7293396E-05
  0.1565657E+00  0.0000000E+00  0.1515152E-01  0.3054005E-06  0.0000000E+00 -0.7094405E-05
  0.1666667E+00  0.0000000E+00  0.1515152E-01  0.3237894E-06  0.0000000E+00 -0.6882818E-05
  0.1767677E+00  0.0000000E+00  0.1515152E-01  0.3414868E-06  0.0000000E+00 -0.6659040E-05
  0.1868687E+00  0.0000000E+00  0.1515152E-01  0.3583141E-06  0.0000000E+00 -0.6423585E-05
  0.1969697E+00  0.0000000E+00  0.1515152E-01  0.3740717E-06  0.0000000E+00 -0.6177097E-05
  0.2070707E+00  0.0000000E+00  0.1515152E-01  0.3885395E-06  0.0000000E+00 -0.5920361E-05
  0.2171717E+00  0.0000000E+00  0.1515152E-01  0.4014806E-06  0.0000000E+00 -0.5654318E-05
  0.2272727E+00  0.0000000E+00  0.1515152E-01  0.4126446E-06  0.0000000E+00 -0.5380074E-05
  0.2373737E+00  0.0000000E+00  0.1515152E-01  0.4217740E-06  0.0000000E+00 -0.5098910E-05
  0.2474747E+00  0.0000000E+00  0.1515152E-01  0.4286114E-06  0.0000000E+00 -0.4812282E-05
  0.2575758E+00  0.0000000E+00  0.1515152E-01  0.4329096E-06  0.0000000E+00 -0.4521824E-05
  0.2676768E+00  0.0000000E+00  0.1515152E-01  0.4344423E-06  0.0000000E+00 -0.4229330E-05
  0.2777778E+00  0.0000000E+00  0.1515152E-01  0.4330169E-06  0.0000000E+00 -0.3936742E-05
  0.2878788E+00  0.0000000E+00  0.1515152E-01  0.4284872E-06  0.0000000E+00 -0.3646123E-05
  0.2979798E+00  0.0000000E+00  0.1515152E-01  0.4207665E-06  0.0000000E+00 -0.3359617E-05
  0.3080808E+00  0.0000000E+00  0.1515152E-01  0.4098384E-06  0.0000000E+00 -0.3079406E-05
  0.3181818E+00  0.0000000E+00  0.1515152E-01  0.3957648E-06  0.0000000E+00 -0.2807661E-05
  0.3282828E+00  0.0000000E+00  0.1515152E-01  0.3786893E-06  0.0000000E+00 -0.2546482E-05
  0.3383838E+00  0.0000000E+00  0.1515152E-01  0.3588351E-06  0.0000000E+00 -0.2297843E-05
  0.3484848E+00  0.0000000E+00  0.1515152E-01  0.3364962E-06  0.0000000E+00 -0.2063538E-05
  0.3585859E+00  0.0000000E+00  0.1515152E-01  0.3120233E-06  0.0000000E+00 -0.1845137E-05
  0.3686869E+00  0.0000000E+00  0.1515152E-01  0.2858030E-06  0.0000000E+00 -0.1643952E-05
  0.3787879E+00  0.0000000E+00  0.1515152E-01  0.2582335E-06  0.0000000E+00 -0.1461020E-05
  0.3888889E+00  0.0000000E+00  0.1515152E-01  0.2297033E-06  0.0000000E+00 -0.1297102E-05
  0.3989899E+00  0.0000000E+00  0.1515152E-01  0.2005674E-06  0.0000000E+00 -0.1152702E-05
  0.4090909E+00  0.0000000E+00  0.1515152E-01  0.1711242E-06  0.0000000E+00 -0.1028096E-05
  0.4191919E+00  0.0000000E+00  0.1515152E-01  0.1416069E-06  0.0000000E+00 -0.9233775E-06
  0.4292929E+00  0.0000000E+00  0.1515152E-01  0.1121822E-06  0.0000000E+00 -0.8385059E-06
  0.4393939E+00  0.0000000E+00  0.1515152E-01  0.8294850E-07  0.0000000E+00 -0.7733533E-06
  0.4494950E+00  0.0000000E+00  0.1515152E-01  0.5394409E-07  0.0000000E+00 -0.7277508E-06
  0.4595959E+00  0.0000000E+00  0.1515152E-01  0.2516055E-07  0.0000000E+00 -0.7015267E-06
  0.4696970E+00  0.0000000E+00  0.1515152E-01 -0.3439642E-08  0.0000000E+00 -0.6945331E-06
  0.4797980E+00  0.0000000E+00  0.1515152E-01 -0.3190397E-07  0.0000000E+00 -0.7066594E-06
  0.4898990E+00  0.0000000E+00  0.1515152E-01 -0.6027121E-07  0.0000000E+00 -0.7378325E-06
  0.5000000E+00  0.0000000E+00  0.1515152E-01 -0.8855461E-07  0.0000000E+00 -0.7880041E-06
  0.5101010E+00  0.0000000E+00  0.1515152E-01 -0.1167284E-06  0.0000000E+00 -0.8571272E-06
  0.5202020E+00  0.0000000E+00  0.1515152E-01 -0.1447188E-06  0.0000000E+00 -0.9451245E-06
  0.5303030E+00  0.0000000E+00  0.1515152E-01 -0.1724009E-06  0.0000000E+00 -0.1051853E-05
  0.5404040E+00  0.0000000E+00  0.1515152E-01 -0.1996020E-06  0.0000000E+00 -0.1177067E-05
  0.5505050E+00  0.0000000E+00  0.1515152E-01 -0.2261112E-06  0.0000000E+00 -0.1320391E-05
  0.5606061E+00  0.0000000E+00  0.1515152E-01 -0.2516805E-06  0.0000000E+00 -0.1481291E-05
  0.5707071E+00  0.0000000E+00  0.1515152E-01 -0.2760429E-06  0.0000000E+00 -0.1659051E-05
  0.5808081E+00  0.0000000E+00  0.1515152E-01 -0.2989301E-06  0.0000000E+00 -0.1852773E-05
  0.5909091E+00  0.0000000E+00  0.1515152E-01 -0.3200856E-06  0.0000000E+00 -0.2061372E-05
  0.6010101E+00  0.0000000E+00  0.1515152E-01 -0.3392779E-06  0.0000000E+00 -0.2283597E-05
  0.6111111E+00  0.0000000E+00  0.1515152E-01 -0.3563131E-06  0.0000000E+00 -0.2518048E-05
  0.6212121E+00  0.0000000E+00  0.1515152E-01 -0.3710417E-06  0.0000000E+00 -0.2763210E-05
  0.6313131E+00  0.0000000E+00  0.1515152E-01 -0.3833634E-06  0.0000000E+00 -0.3017478E-05
  0.6414142E+00  0.0000000E+00  0.1515152E-01 -0.3932282E-06  0.0000000E+00 -0.3279200E-05
  0.6515151E+00  0.0000000E+00  0.1515152E-01 -0.4006343E-06  0.0000000E+00 -0.3546707E-05
  0.6616161E+00  0.0000000E+00  0.1515152E-01 -0.4056241E-06  0.0000000E+00 -0.3818346E-05
  0.6717172E+00  0.0000000E+00  0.1515152E-01 -0.4082781E-06  0.0000000E+00 -0.4092506E-05
  0.6818182E+00  0.0000000E+00  0.1515152E-01 -0.4087080E-06  0.0000000E+00 -0.4367647E-05
  0.6919192E+00  0.0000000E+00  0.1515152E-01 -0.4070499E-06  0.0000000E+00 -0.4642310E-05
  0.7020202E+00  0.0000000E+00  0.1515152E-01 -0.4034570E-06  0.0000000E+00 -0.4915142E-05
  0.7121212E+00  0.0000000E+00  0.1515152E-01 -0.3980934E-06  0.0000000E+00 -0.5184894E-05
  0.7222222E+00  0.0000000E+00  0.1515152E-01 -0.3911283E-06  0.0000000E+00 -0.5450433E-05
  0.7323232E+00  0.0000000E+00  0.1515152E-01 -0.3827313E-06  0.0000000E+00 -0.5710743E-05
  0.7424242E+00  0.0000000E+00  0.1515152E-01 -0.3730685E-06  0.0000000E+00 -0.5964921E-05
  0.7525253E+00  0.0000000E+00  0.1515152E-01 -0.3622992E-06  0.0000000E+00 -0.6212174E-05
  0.7626263E+00  0.0000000E+00  0.1515152E-01 -0.3505741E-06  0.0000000E+00 -0.6451813E-05
  0.7727273E+00  0.0000000E+00  0.1515152E-01 -0.3380335E-06  0.0000000E+00 -0.6683249E-05
  0.7828283E+00  0.0000000E+00  0.1515152E-01 -0.3248062E-06  0.0000000E+00 -0.6905984E-05
  0.7929293E+00  0.0000000E+00  0.1515152E-01 -0.3110093E-06  0.0000000E+00 -0.7119601E-05
  0.8030303E+00  0.0000000E+00  0.1515152E-01 -0.2967480E-06  0.0000000E+00 -0.7323757E-05
  0.8131313E+00  0.0000000E+00  0.1515152E-01 -0.2821157E-06  0.0000000E+00 -0.7518178E-05
  0.8232324E+00  0.0000000E+00  0.1515152E-01 -0.2671945E-06  0.0000000E+00 -0.7702648E-05
  0.8333333E+00  0.0000000E+00  0.1515152E-01 -0.2520558E-06  0.0000000E+00 -0.7877000E-05
  0.8434343E+00  0.0000000E+00  0.1515152E-01 -0.2367607E-06  0.0000000E+00 -0.8041114E-05
  0.8535354E+00  0.0000000E+00  0.1515152E-01 -0.2213609E-06  0.0000000E+00 -0.8194905E-05
  0.8636364E+00  0.0000000E+00  0.1515152E-01 -0.2058997E-06  0.0000000E+00 -0.8338322E-05
  0.8737374E+00  0.0000000E+00  0.1515152E-01 -0.1904123E-06  0.0000000E+00 -0.8471339E-05
  0.8838384E+00  0.0000000E+00  0.1515152E-01 -0.1749265E-06  0.0000000E+00 -0.8593950E-05
  0.8939394E+00  0.0000000E+00  0.1515152E-01 -0.1594641E-06  0.0000000E+00 -0.8706166E-05
  0.9040404E+00  0.0000000E+00  0.1515152E-01 -0.1440407E-06  0.0000000E+00 -0.8808011E-05
  0.9141414E+00  0.0000000E+00  0.1515152E-01 -0.1286670E-06  0.0000000E+00 -0.8899515E-05
  0.9242424E+00  0.0000000E+00  0.1515152E-01 -0.1133492E-06  0.0000000E+00 -0.8980718E-05
  0.9343435E+00  0.0000000E+00  0.1515152E-01 -0.9808932E-07  0.0000000E+00 -0.9051657E-05
  0.9444444E+00  0.0000000E+00  0.1515152E-01 -0.8288628E-07  0.0000000E+00 -0.9112374E-05
  0.9545454E+00  0.0000000E+00  0.1515152E-01 -0.6773599E-07  0.0000000E+00 -0.9162906E-05
  0.9646465E+00  0.0000000E+00  0.1515152E-01 -0.5263200E-07  0.0000000E+00 -0.9203286E-05
  0.9747475E+00  0.0000000E+00  0.1515152E-01 -0.3756595E-07  0.0000000E+00 -0.9233545E-05
  0.9848485E+00  0.0000000E+00  0.1515152E-01 -0.2252804E-07  0.0000000E+00 -0.9253705E-05
  0.9974747E+00  0.0000000E+00  0.1515152E-01 -0.7507408E-08  0.0000000E+00 -0.9263780E-05
  0.5050505E-02  0.0000000E+00  0.2525252E-01  0.1638482E-07  0.0000000E+00 -0.8626459E-05
  0.1515152E-01  0.0000000E+00  0.2525252E-01  0.4916972E-07  0.0000000E+00 -0.8613109E-05
  0.2525252E-01  0.0000000E+00  0.2525252E-01  0.8199942E-07  0.0000000E+00 -0.8586397E-05
  0.3535353E-01  0.0000000E+00  0.2525252E-01  0.1149006E-06  0.0000000E+00 -0.8546294E-05
  0.4545455E-01  0.0000000E+00  0.2525252E-01  0.1478953E-06  0.0000000E+00 -0.8492763E-05
  0.5555556E-01  0.0000000E+00  0.2525252E-01  0.1809987E-06  0.0000000E+00 -0.8425754E-05
  0.6565657E-01  0.0000000E+00  0.2525252E-01  0.2142169E-06  0.0000000E+00 -0.8345215E-05
  0.7575758E-01  0.0000000E+00  0.2525252E-01  0.2475450E-06  0.0000000E+00 -0.8251087E-05
  0.8585858E-01  0.0000000E+00  0.2525252E-01  0.2809645E-06  0.0000000E+00 -0.8143318E-05
  0.9595960E-01  0.0000000E+00  0.2525252E-01  0.3144408E-06  0.0000000E+00 -0.8021862E-05
  0.1060606E+00  0.0000000E+00  0.2525252E-01  0.3479205E-06  0.0000000E+00 -0.7886690E-05
  0.1161616E+00  0.0000000E+00  0.2525252E-01  0.3813286E-06  0.0000000E+00 -0.7737795E-05
  0.1262626E+00  0.0000000E+00  0.2525252E-01  0.4145656E-06  0.0000000E+00 -0.7575207E-05
  0.1363636E+00  0.0000000E+00  0.2525252E-01  0.4475047E-06  0.0000000E+00 -0.7398996E-05
  0.1464646E+00  0.0000000E+00  0.2525252E-01  0.4799888E-06  0.0000000E+00 -0.7209291E-05
  0.1565657E+00  0.0000000E+00  0.2525252E-01  0.5118279E-06  0.0000000E+00 -0.7006288E-05
  0.1666667E+00  0.0000000E+00  0.2525252E-01  0.5427969E-06  0.0000000E+00 -0.6790266E-05
  0.1767677E+00  0.0000000E+00  0.2525252E-01  0.5726336E-06  0.0000000E+00 -0.6561607E-05
  0.1868687E+00  0.0000000E+00  0.2525252E-01  0.6010386E-06  0.0000000E+00 -0.6320802E-05
  0.1969697E+00  0.0000000E+00  0.2525252E-01  0.6276751E-06  0.0000000E+00 -0.6068480E-05
  0.2070707E+00  0.0000000E+00  0.2525252E-01  0.6521715E-06  0.0000000E+00 -0.5805412E-05
  0.2171717E+00  0.0000000E+00  0.2525252E-01  0.6741255E-06  0.0000000E+00 -0.5532537E-05
  0.2272727E+00  0.0000000E+00  0.2525252E-01  0.6931105E-06  0.0000000E+00 -0.5250967E-05
  0.2373737E+00  0.0000000E+00  0.2525252E-01  0.7086859E-06  0.0000000E+00 -0.4962004E-05
  0.2474747E+00  0.0000000E+00  0.2525252E-01  0.7204092E-06  0.0000000E+00 -0.4667140E-05
  0.2575758E+00  0.0000000E+00  0.2525252E-01  0.7278530E-06  0.0000000E+00 -0.4368061E-05
  0.2676768E+00  0.0000000E+00  0.2525252E-01  0.7306234E-06  0.0000000E+00 -0.4066637E-05
  0.2777778E+00  0.0000000E+00  0.2525252E-01  0.7283824E-06  0.0000000E+00 -0.3764905E-05
  0.2878788E+00  0.0000000E+00  0.2525252E-01  0.7208707E-06  0.0000000E+00 -0.3465043E-05
  0.2979798E+00  0.0000000E+00  0.2525252E-01  0.7079305E-06  0.0000000E+00 -0.3169329E-05
  0.3080808E+00  0.0000000E+00  0.2525252E-01  0.6895255E-06  0.0000000E+00 -0.2880093E-05
  0.3181818E+00  0.0000000E+00  0.2525252E-01  0.6657560E-06  0.0000000E+00 -0.2599661E-05
  0.3282828E+00  0.0000000E+00  0.2525252E-01  0.6368658E-06  0.0000000E+00 -0.2330287E-05
  0.3383838E+00  0.0000000E+00  0.2525252E-01  0.6032399E-06  0.0000000E+00 -0.2074087E-05
  0.3484848E+00  0.0000000E+00  0.2525252E-01  0.5653886E-06  0.0000000E+00 -0.1832979E-05
  0.3585859E+00  0.0000000E+00  0.2525252E-01  0.5239242E-06  0.0000000E+00 -0.1608624E-05
  0.3686869E+00  0.0000000E+00  0.2525252E-01  0.4795236E-06  0.0000000E+00 -0.1402388E-05
  0.3787879E+00  0.0000000E+00  0.2525252E-01  0.4328799E-06  0.0000000E+00 -0.1215323E-05
  0.3888889E+00  0.0000000E+00  0.2525252E-01  0.3846730E-06  0.0000000E+00 -0.1048167E-05
  0.3989899E+00  0.0000000E+00  0.2525252E-01  0.3355234E-06  0.0000000E+00 -0.9013612E-06
  0.4090909E+00  0.0000000E+00  0.2525252E-01  0.2859431E-06  0.0000000E+00 -0.7750897E-06
  0.4191919E+00  0.0000000E+00  0.2525252E-01  0.2363251E-06  0.0000000E+00 -0.6693454E-06
  0.4292929E+00  0.0000000E+00  0.2525252E-01  0.1869497E-06  0.0000000E+00 -0.5839811E-06
  0.4393939E+00  0.0000000E+00  0.2525252E-01  0.1379734E-06  0.0000000E+00 -0.5187651E-06
  0.4494950E+00  0.0000000E+00  0.2525252E-01  0.8944390E-07  0.0000000E+00 -0.4734389E-06
  0.4595959E+00  0.0000000E+00  0.2525252E-01  0.4132652E-07  0.0000000E+00 -0.4477638E-06
  0.4696970E+00  0.0000000E+00  0.2525252E-01 -0.6464410E-08  0.0000000E+00 -0.4415522E-06
  0.4797980E+00  0.0000000E+00  0.2525252E-01 -0.5403109E-07  0.0000000E+00 -0.4546822E-06
  0.4898990E+00  0.0000000E+00  0.2525252E-01 -0.1014590E-06  0.0000000E+00 -0.4870961E-06
  0.5000000E+00  0.0000000E+00  0.2525252E-01 -0.1487870E-06  0.0000000E+00 -0.5387841E-06
  0.5101010E+00  0.0000000E+00  0.2525252E-01 -0.1959834E-06  0.0000000E+00 -0.6097551E-06
  0.5202020E+00  0.0000000E+00  0.2525252E-01 -0.2429296E-06  0.0000000E+00 -0.6999970E-06
  0.5303030E+00  0.0000000E+00  0.2525252E-01 -0.2894133E-06  0.0000000E+00 -0.8094316E-06
  0.5404040E+00  0.0000000E+00  0.2525252E-01 -0.3351362E-06  0.0000000E+00 -0.9378689E-06
  0.5505050E+00  0.0000000E+00  0.2525252E-01 -0.3797434E-06  0.0000000E+00 -0.1084979E-05
  0.5606061E+00  0.0000000E+00  0.2525252E-01 -0.4228005E-06  0.0000000E+00 -0.1250260E-05
  0.5707071E+00  0.0000000E+00  0.2525252E-01 -0.4638406E-06  0.0000000E+00 -0.1433000E-05
  0.5808081E+00  0.0000000E+00  0.2525252E-01 -0.5023998E-06  0.0000000E+00 -0.1632279E-05
  0.5909091E+00  0.0000000E+00  0.2525252E-01 -0.5380334E-06  0.0000000E+00 -0.1846972E-05
  0.6010101E+00  0.0000000E+00  0.2525252E-01 -0.5703404E-06  0.0000000E+00 -0.2075765E-05
  0.6111111E+00  0.0000000E+00  0.2525252E-01 -0.5989878E-06  0.0000000E+00 -0.2317181E-05
  0.6212121E+00  0.0000000E+00  0.2525252E-01 -0.6237202E-06  0.0000000E+00 -0.2569614E-05
  0.6313131E+00  0.0000000E+00  0.2525252E-01 -0.6443685E-06  0.0000000E+00 -0.2831368E-05
  0.6414142E+00  0.0000000E+00  0.2525252E-01 -0.6608512E-06  0.0000000E+00 -0.3100698E-05
  0.6515151E+00  0.0000000E+00  0.2525252E-01 -0.6731703E-06  0.0000000E+00 -0.3375845E-05
  0.6616161E+00  0.0000000E+00  0.2525252E-01 -0.6814034E-06  0.0000000E+00 -0.3655073E-05
  0.6717172E+00  0.0000000E+00  0.2525252E-01 -0.6856931E-06  0.0000000E+00 -0.3936702E-05
  0.6818182E+00  0.0000000E+00  0.2525252E-01 -0.6862348E-06  0.0000000E+00 -0.4219127E-05
  0.6919192E+00  0.0000000E+00  0.2525252E-01 -0.6832641E-06  0.0000000E+00 -0.4500842E-05
  0.7020202E+00  0.0000000E+00  0.2525252E-01 -0.6770450E-06  0.0000000E+00 -0.4780453E-05
  0.7121212E+00  0.0000000E+00  0.2525252E-01 -0.6678587E-06  0.0000000E+00 -0.5056684E-05
  0.7222222E+00  0.0000000E+00  0.2525252E-01 -0.6559940E-06  0.0000000E+00 -0.5328383E-05
  0.7323232E+00  0.0000000E+00  0.2525252E-01 -0.6417391E-06  0.0000000E+00 -0.5594520E-05
  0.7424242E+00  0.0000000E+00  0.2525252E-01 -0.6253755E-06  0.0000000E+00 -0.5854189E-05
  0.7525253E+00  0.0000000E+00  0.2525252E-01 -0.6071726E-06  0.0000000E+00 -0.6106596E-05
  0.7626263E+00  0.0000000E+00  0.2525252E-01 -0.5873841E-06  0.0000000E+00 -0.6351058E-05
  0.7727273E+00  0.0000000E+00  0.2525252E-01 -0.5662458E-06  0.0000000E+00 -0.6586995E-05
  0.7828283E+00  0.0000000E+00  0.2525252E-01 -0.5439740E-06  0.0000000E+00 -0.6813917E-05
  0.7929293E+00  0.0000000E+00  0.2525252E-01 -0.5207646E-06  0.0000000E+00 -0.7031419E-05
  0.8030303E+00  0.0000000E+00  0.2525252E-01 -0.4967932E-06  0.0000000E+00 -0.7239173E-05
  0.8131313E+00  0.0000000E+00  0.2525252E-01 -0.4722156E-06  0.0000000E+00 -0.7436918E-05
  0.8232324E+00  0.0000000E+00  0.2525252E-01 -0.4471686E-06  0.0000000E+00 -0.7624449E-05
  0.8333333E+00  0.0000000E+00  0.2525252E-01 -0.4217705E-06  0.0000000E+00 -0.7801615E-05
  0.8434343E+00  0.0000000E+00  0.2525252E-01 -0.3961228E-06  0.0000000E+00 -0.7968309E-05
  0.8535354E+00  0.0000000E+00  0.2525252E-01 -0.3703111E-06  0.0000000E+00 -0.8124458E-05
  0.8636364E+00  0.0000000E+00  0.2525252E-01 -0.3444068E-06  0.0000000E+00 -0.8270023E-05
  0.8737374E+00  0.0000000E+00  0.2525252E-01 -0.3184676E-06  0.0000000E+00 -0.8404988E-05
  0.8838384E+00  0.0000000E+00  0.2525252E-01 -0.2925397E-06  0.0000000E+00 -0.8529359E-05
  0.8939394E+00  0.0000000E+00  0.2525252E-01 -0.2666581E-06  0.0000000E+00 -0.8643156E-05
  0.9040404E+00  0.0000000E+00  0.2525252E-01 -0.2408483E-06  0.0000000E+00 -0.8746410E-05
  0.9141414E+00  0.0000000E+00  0.2525252E-01 -0.2151275E-06  0.0000000E+00 -0.8839162E-05
  0.9242424E+00  0.0000000E+00  0.2525252E-01 -0.1895052E-06  0.0000000E+00 -0.8921456E-05
  0.9343435E+00  0.0000000E+00  0.2525252E-01 -0.1639841E-06  0.0000000E+00 -0.8993337E-05
  0.9444444E+00  0.0000000E+00  0.2525252E-01 -0.1385618E-06  0.0000000E+00 -0.9054851E-05
  0.9545454E+00  0.0000000E+00  0.2525252E-01 -0.1132308E-06  0.0000000E+00 -0.9106041E-05
  0.9646465E+00  0.0000000E+00  0.2525252E-01 -0.8797965E-07  0.0000000E+00 -0.9146943E-05
  0.9747475E+00  0.0000000E+00  0.2525252E-01 -0.6279389E-07  0.0000000E+00 -0.9177591E-05
  0.9848485E+00  0.0000000E+00  0.2525252E-01 -0.3765651E-07  0.0000000E+00 -0.9198008E-05
  0.9974747E+00  0.0000000E+00  0.2525252E-01 -0.1254884E-07  0.0000000E+00 -0.9208212E-05
  0.5050505E-02  0.0000000E+00  0.3535353E-01  0.2307530E-07  0.0000000E+00 -0.8536453E-05
  0.1515152E-01  0.0000000E+00  0.3535353E-01  0.6924894E-07  0.0000000E+00 -0.8522814E-05
  0.2525252E-01  0.0000000E+00  0.3535353E-01  0.1154903E-06  0.0000000E+00 -0.8495518E-05
  0.3535353E-01  0.0000000E+00  0.3535353E-01  0.1618403E-06  0.0000000E+00 -0.8454534E-05
  0.4545455E-01  0.0000000E+00  0.3535353E-01  0.2083330E-06  0.0000000E+00 -0.8399814E-05
  0.5555556E-01  0.0000000E+00  0.3535353E-01  0.2549931E-06  0.0000000E+00 -0.8331297E-05
  0.6565657E-01  0.0000000E+00  0.3535353E-01  0.3018330E-06  0.0000000E+00 -0.8248915E-05
  0.7575758E-01  0.0000000E+00  0.3535353E-01  0.3488494E-06  0.0000000E+00 -0.8152593E-05
  0.8585858E-01  0.0000000E+00  0.3535353E-01  0.3960200E-06  0.0000000E+00 -0.8042256E-05
  0.9595960E-01  0.0000000E+00  0.3535353E-01  0.4433001E-06  0.0000000E+00 -0.7917835E-05
  0.1060606E+00  0.0000000E+00  0.3535353E-01  0.4906185E-06  0.0000000E+00 -0.7779272E-05
  0.1161616E+00  0.0000000E+00  0.3535353E-01  0.5378738E-06  0.0000000E+00 -0.7626532E-05
  0.1262626E+00  0.0000000E+00  0.3535353E-01  0.5849299E-06  0.0000000E+00 -0.7459608E-05
  0.1363636E+00  0.0000000E+00  0.3535353E-01  0.6316120E-06  0.0000000E+00 -0.7278538E-05
  0.1464646E+00  0.0000000E+00  0.3535353E-01  0.6777021E-06  0.0000000E+00 -0.7083411E-05
  0.1565657E+00  0.0000000E+00  0.3535353E-01  0.7229352E-06  0.0000000E+00 -0.6874384E-05
  0.1666667E+00  0.0000000E+00  0.3535353E-01  0.7669956E-06  0.0000000E+00 -0.6651700E-05
  0.1767677E+00  0.0000000E+00  0.3535353E-01  0.8095143E-06  0.0000000E+00 -0.6415699E-05
  0.1868687E+00  0.0000000E+00  0.3535353E-01  0.8500672E-06  0.0000000E+00 -0.6166842E-05
  0.1969697E+00  0.0000000E+00  0.3535353E-01  0.8881754E-06  0.0000000E+00 -0.5905725E-05
  0.2070707E+00  0.0000000E+00  0.3535353E-01  0.9233074E-06  0.0000000E+00 -0.5633102E-05
  0.2171717E+00  0.0000000E+00  0.3535353E-01  0.9548846E-06  0.0000000E+00 -0.5349901E-05
  0.2272727E+00  0.0000000E+00  0.3535353E-01  0.9822902E-06  0.0000000E+00 -0.5057242E-05
  0.2373737E+00  0.0000000E+00  0.3535353E-01  0.1004883E-05  0.0000000E+00 -0.4756454E-05
  0.2474747E+00  0.0000000E+00  0.3535353E-01  0.1022013E-05  0.0000000E+00 -0.4449079E-05
  0.2575758E+00  0.0000000E+00  0.3535353E-01  0.1033049E-05  0.0000000E+00 -0.4136884E-05
  0.2676768E+00  0.0000000E+00  0.3535353E-01  0.1037404E-05  0.0000000E+00 -0.3821849E-05
  0.2777778E+00  0.0000000E+00  0.3535353E-01  0.1034566E-05  0.0000000E+00 -0.3506157E-05
  0.2878788E+00  0.0000000E+00  0.3535353E-01  0.1024137E-05  0.0000000E+00 -0.3192162E-05
  0.2979798E+00  0.0000000E+00  0.3535353E-01  0.1005866E-05  0.0000000E+00 -0.2882351E-05