title = "dataset water"
variables = "x", "y", "z", "vx", "vy", "vz"
zone t = "velocities, solution time =  3.500E+01 days        " i =   99, j =   99, k =    1,  f=point
  0.5050505E-02  0.0000000E+00  0.5050505E-02  0.4136497E-07  0.0000000E+00  0.3032967E-04
  0.1515152E-01  0.0000000E+00  0.5050505E-02  0.1242634E-06  0.0000000E+00  0.3049640E-04
  0.2525252E-01  0.0000000E+00  0.5050505E-02  0.2076689E-06  0.0000000E+00  0.3083055E-04
  0.3535353E-01  0.0000000E+00  0.5050505E-02  0.2919217E-06  0.0000000E+00  0.3133349E-04
  0.4545455E-01  0.0000000E+00  0.5050505E-02  0.3773637E-06  0.0000000E+00  0.3200732E-04
  0.5555556E-01  0.0000000E+00  0.5050505E-02  0.4643381E-06  0.0000000E+00  0.3285479E-04
  0.6565657E-01  0.0000000E+00  0.5050505E-02  0.5531900E-06  0.0000000E+00  0.3387941E-04
  0.7575758E-01  0.0000000E+00  0.5050505E-02  0.6442662E-06  0.0000000E+00  0.3508536E-04
  0.8585858E-01  0.0000000E+00  0.5050505E-02  0.7379153E-06  0.0000000E+00  0.3647755E-04
  0.9595960E-01  0.0000000E+00  0.5050505E-02  0.8344882E-06  0.0000000E+00  0.3806161E-04
  0.1060606E+00  0.0000000E+00  0.5050505E-02  0.9343381E-06  0.0000000E+00  0.3984390E-04
  0.1161616E+00  0.0000000E+00  0.5050505E-02  0.1037821E-05  0.0000000E+00  0.4183150E-04
  0.1262626E+00  0.0000000E+00  0.5050505E-02  0.1145296E-05  0.0000000E+00  0.4403224E-04
  0.1363636E+00  0.0000000E+00  0.5050505E-02  0.1257127E-05  0.0000000E+00  0.4645471E-04
  0.1464646E+00  0.0000000E+00  0.5050505E-02  0.1373684E-05  0.0000000E+00  0.4910827E-04
  0.1565657E+00  0.0000000E+00  0.5050505E-02  0.1495348E-05  0.0000000E+00  0.5200304E-04
  0.1666667E+00  0.0000000E+00  0.5050505E-02  0.1622513E-05  0.0000000E+00  0.5514999E-04
  0.1767677E+00  0.0000000E+00  0.5050505E-02  0.1755597E-05  0.0000000E+00  0.5856093E-04
  0.1868687E+00  0.0000000E+00  0.5050505E-02  0.1895051E-05  0.0000000E+00  0.6224859E-04
  0.1969697E+00  0.0000000E+00  0.5050505E-02  0.2041381E-05  0.0000000E+00  0.6622673E-04
  0.2070707E+00  0.0000000E+00  0.5050505E-02  0.2195168E-05  0.0000000E+00  0.7051025E-04
  0.2171717E+00  0.0000000E+00  0.5050505E-02  0.2357116E-05  0.0000000E+00  0.7511542E-04
  0.2272727E+00  0.0000000E+00  0.5050505E-02  0.2528102E-05  0.0000000E+00  0.8006017E-04
  0.2373737E+00  0.0000000E+00  0.5050505E-02  0.2709269E-05  0.0000000E+00  0.8536456E-04
  0.2474747E+00  0.0000000E+00  0.5050505E-02  0.2902152E-05  0.0000000E+00  0.9105149E-04
  0.2575758E+00  0.0000000E+00  0.5050505E-02  0.3108869E-05  0.0000000E+00  0.9714762E-04
  0.2676768E+00  0.0000000E+00  0.5050505E-02  0.3332415E-05  0.0000000E+00  0.1036850E-03
  0.2777778E+00  0.0000000E+00  0.5050505E-02  0.3577110E-05  0.0000000E+00  0.1107032E-03
  0.2878788E+00  0.0000000E+00  0.5050505E-02  0.3849304E-05  0.0000000E+00  0.1182528E-03
  0.2979798E+00  0.0000000E+00  0.5050505E-02  0.4158527E-05  0.0000000E+00  0.1264011E-03
  0.3080808E+00  0.0000000E+00  0.5050505E-02  0.4519406E-05  0.0000000E+00  0.1352400E-03
  0.3181818E+00  0.0000000E+00  0.5050505E-02  0.4955044E-05  0.0000000E+00  0.1449006E-03
  0.3282828E+00  0.0000000E+00  0.5050505E-02  0.5503288E-05  0.0000000E+00  0.1555771E-03
  0.3383838E+00  0.0000000E+00  0.5050505E-02  0.6229254E-05  0.0000000E+00  0.1675700E-03
  0.3484848E+00  0.0000000E+00  0.5050505E-02  0.7252577E-05  0.0000000E+00  0.1813715E-03
  0.3585859E+00  0.0000000E+00  0.5050505E-02  0.8813002E-05  0.0000000E+00  0.1978460E-03
  0.3686869E+00  0.0000000E+00  0.5050505E-02  0.1144647E-04  0.0000000E+00  0.2186639E-03
  0.3787879E+00  0.0000000E+00  0.5050505E-02  0.1651376E-04  0.0000000E+00  0.2474710E-03
  0.3888889E+00  0.0000000E+00  0.5050505E-02  0.2796763E-04  0.0000000E+00  0.2934727E-03
  0.3989899E+00  0.0000000E+00  0.5050505E-02 -0.2439783E-04  0.0000000E+00  0.2971476E-03
  0.4090909E+00  0.0000000E+00  0.5050505E-02 -0.1284343E-04  0.0000000E+00  0.2585829E-03
  0.4191919E+00  0.0000000E+00  0.5050505E-02 -0.7588629E-05  0.0000000E+00  0.2374842E-03
  0.4292929E+00  0.0000000E+00  0.5050505E-02 -0.4694054E-05  0.0000000E+00  0.2248216E-03
  0.4393939E+00  0.0000000E+00  0.5050505E-02 -0.2809929E-05  0.0000000E+00  0.2170931E-03
  0.4494950E+00  0.0000000E+00  0.5050505E-02 -0.1404910E-05  0.0000000E+00  0.2127546E-03
  0.4595959E+00  0.0000000E+00  0.5050505E-02 -0.2350222E-06  0.0000000E+00  0.2110670E-03
  0.4696970E+00  0.0000000E+00  0.5050505E-02  0.8344336E-06  0.0000000E+00  0.2116838E-03
  0.4797980E+00  0.0000000E+00  0.5050505E-02  0.1898349E-05  0.0000000E+00  0.2144964E-03
  0.4898990E+00  0.0000000E+00  0.5050505E-02  0.3047408E-05  0.0000000E+00  0.2195883E-03
  0.5000000E+00  0.0000000E+00  0.5050505E-02  0.4398224E-05  0.0000000E+00  0.2272588E-03
  0.5101010E+00  0.0000000E+00  0.5050505E-02  0.6139623E-05  0.0000000E+00  0.2381253E-03
  0.5202020E+00  0.0000000E+00  0.5050505E-02  0.8633377E-05  0.0000000E+00  0.2533798E-03
  0.5303030E+00  0.0000000E+00  0.5050505E-02  0.1267829E-04  0.0000000E+00  0.2754284E-03
  0.5404040E+00  0.0000000E+00  0.5050505E-02  0.2030078E-04  0.0000000E+00  0.3096447E-03
  0.5505050E+00  0.0000000E+00  0.5050505E-02  0.3740818E-04  0.0000000E+00  0.3697905E-03
  0.5606061E+00  0.0000000E+00  0.5050505E-02 -0.4069613E-04  0.0000000E+00  0.3663925E-03
  0.5707071E+00  0.0000000E+00  0.5050505E-02 -0.2362480E-04  0.0000000E+00  0.2994361E-03
  0.5808081E+00  0.0000000E+00  0.5050505E-02 -0.1606982E-04  0.0000000E+00  0.2583369E-03
  0.5909091E+00  0.0000000E+00  0.5050505E-02 -0.1212622E-04  0.0000000E+00  0.2292508E-03
  0.6010101E+00  0.0000000E+00  0.5050505E-02 -0.9771693E-05  0.0000000E+00  0.2067253E-03
  0.6111111E+00  0.0000000E+00  0.5050505E-02 -0.8213586E-05  0.0000000E+00  0.1882667E-03
  0.6212121E+00  0.0000000E+00  0.5050505E-02 -0.7099396E-05  0.0000000E+00  0.1725811E-03
  0.6313131E+00  0.0000000E+00  0.5050505E-02 -0.6254490E-05  0.0000000E+00  0.1589251E-03
  0.6414142E+00  0.0000000E+00  0.5050505E-02 -0.5584443E-05  0.0000000E+00  0.1468363E-03
  0.6515151E+00  0.0000000E+00  0.5050505E-02 -0.5034492E-05  0.0000000E+00  0.1360076E-03
  0.6616161E+00  0.0000000E+00  0.5050505E-02 -0.4571015E-05  0.0000000E+00  0.1262241E-03
  0.6717172E+00  0.0000000E+00  0.5050505E-02 -0.4172356E-05  0.0000000E+00  0.1173284E-03
  0.6818182E+00  0.0000000E+00  0.5050505E-02 -0.3823969E-05  0.0000000E+00  0.1092008E-03
  0.6919192E+00  0.0000000E+00  0.5050505E-02 -0.3515705E-05  0.0000000E+00  0.1017474E-03
  0.7020202E+00  0.0000000E+00  0.5050505E-02 -0.3240240E-05  0.0000000E+00  0.9489258E-04
  0.7121212E+00  0.0000000E+00  0.5050505E-02 -0.2992116E-05  0.0000000E+00  0.8857387E-04
  0.7222222E+00  0.0000000E+00  0.5050505E-02 -0.2767147E-05  0.0000000E+00  0.8273898E-04
  0.7323232E+00  0.0000000E+00  0.5050505E-02 -0.2562043E-05  0.0000000E+00  0.7734337E-04
  0.7424242E+00  0.0000000E+00  0.5050505E-02 -0.2374153E-05  0.0000000E+00  0.7234870E-04
  0.7525253E+00  0.0000000E+00  0.5050505E-02 -0.2201304E-05  0.0000000E+00  0.6772167E-04
  0.7626263E+00  0.0000000E+00  0.5050505E-02 -0.2041683E-05  0.0000000E+00  0.6343310E-04
  0.7727273E+00  0.0000000E+00  0.5050505E-02 -0.1893754E-05  0.0000000E+00  0.5945733E-04
  0.7828283E+00  0.0000000E+00  0.5050505E-02 -0.1756205E-05  0.0000000E+00  0.5577161E-04
  0.7929293E+00  0.0000000E+00  0.5050505E-02 -0.1627899E-05  0.0000000E+00  0.5235579E-04
  0.8030303E+00  0.0000000E+00  0.5050505E-02 -0.1507848E-05  0.0000000E+00  0.4919188E-04
  0.8131313E+00  0.0000000E+00  0.5050505E-02 -0.1395183E-05  0.0000000E+00  0.4626382E-04
  0.8232324E+00  0.0000000E+00  0.5050505E-02 -0.1289135E-05  0.0000000E+00  0.4355726E-04
  0.8333333E+00  0.0000000E+00  0.5050505E-02 -0.1189025E-05  0.0000000E+00  0.4105932E-04
  0.8434343E+00  0.0000000E+00  0.5050505E-02 -0.1094242E-05  0.0000000E+00  0.3875849E-04
  0.8535354E+00  0.0000000E+00  0.5050505E-02 -0.1004240E-05  0.0000000E+00  0.3664441E-04
  0.8636364E+00  0.0000000E+00  0.5050505E-02 -0.9185246E-06  0.0000000E+00  0.3470781E-04
  0.8737374E+00  0.0000000E+00  0.5050505E-02 -0.8366489E-06  0.0000000E+00  0.3294039E-04
  0.8838384E+00  0.0000000E+00  0.5050505E-02 -0.7582039E-06  0.0000000E+00  0.3133472E-04
  0.8939394E+00  0.0000000E+00  0.5050505E-02 -0.6828142E-06  0.0000000E+00  0.2988419E-04
  0.9040404E+00  0.0000000E+00  0.5050505E-02 -0.6101335E-06  0.0000000E+00  0.2858292E-04
  0.9141414E+00  0.0000000E+00  0.5050505E-02 -0.5398399E-06  0.0000000E+00  0.2742571E-04
  0.9242424E+00  0.0000000E+00  0.5050505E-02 -0.4716326E-06  0.0000000E+00  0.2640799E-04
  0.9343435E+00  0.0000000E+00  0.5050505E-02 -0.4052283E-06  0.0000000E+00  0.2552581E-04
  0.9444444E+00  0.0000000E+00  0.5050505E-02 -0.3403586E-06  0.0000000E+00  0.2477577E-04
  0.9545454E+00  0.0000000E+00  0.5050505E-02 -0.2767674E-06  0.0000000E+00  0.2415501E-04
  0.9646465E+00  0.0000000E+00  0.5050505E-02 -0.2142088E-06  0.0000000E+00  0.2366117E-04
  0.9747475E+00  0.0000000E+00  0.5050505E-02 -0.1524447E-06  0.0000000E+00  0.2329239E-04
  0.9848485E+00  0.0000000E+00  0.5050505E-02 -0.9124328E-07  0.0000000E+00  0.2304730E-04
  0.9974747E+00  0.0000000E+00  0.5050505E-02 -0.3037733E-07  0.0000000E+00  0.2292499E-04
  0.5050505E-02  0.0000000E+00  0.1515152E-01  0.1240207E-06  0.0000000E+00  0.3035289E-04
  0.1515152E-01  0.0000000E+00  0.1515152E-01  0.3725688E-06  0.0000000E+00  0.3051981E-04
  0.2525252E-01  0.0000000E+00  0.1515152E-01  0.6226409E-06  0.0000000E+00  0.3085433E-04
  0.3535353E-01  0.0000000E+00  0.1515152E-01  0.8752589E-06  0.0000000E+00  0.3135783E-04
  0.4545455E-01  0.0000000E+00  0.1515152E-01  0.1131449E-05  0.0000000E+00  0.3203241E-04
  0.5555556E-01  0.0000000E+00  0.1515152E-01  0.1392241E-05  0.0000000E+00  0.3288085E-04
  0.6565657E-01  0.0000000E+00  0.1515152E-01  0.1658672E-05  0.0000000E+00  0.3390665E-04
  0.7575758E-01  0.0000000E+00  0.1515152E-01  0.1931782E-05  0.0000000E+00  0.3511401E-04
  0.8585858E-01  0.0000000E+00  0.1515152E-01  0.2212618E-05  0.0000000E+00  0.3650788E-04
  0.9595960E-01  0.0000000E+00  0.1515152E-01  0.2502233E-05  0.0000000E+00  0.3809389E-04
  0.1060606E+00  0.0000000E+00  0.1515152E-01  0.2801686E-05  0.0000000E+00  0.3987842E-04
  0.1161616E+00  0.0000000E+00  0.1515152E-01  0.3112044E-05  0.0000000E+00  0.4186859E-04
  0.1262626E+00  0.0000000E+00  0.1515152E-01  0.3434386E-05  0.0000000E+00  0.4407224E-04
  0.1363636E+00  0.0000000E+00  0.1515152E-01  0.3769800E-05  0.0000000E+00  0.4649800E-04
  0.1464646E+00  0.0000000E+00  0.1515152E-01  0.4119393E-05  0.0000000E+00  0.4915522E-04
  0.1565657E+00  0.0000000E+00  0.1515152E-01  0.4484302E-05  0.0000000E+00  0.5205405E-04
  0.1666667E+00  0.0000000E+00  0.1515152E-01  0.4865703E-05  0.0000000E+00  0.5520545E-04
  0.1767677E+00  0.0000000E+00  0.1515152E-01  0.5264833E-05  0.0000000E+00  0.5862119E-04
  0.1868687E+00  0.0000000E+00  0.1515152E-01  0.5683032E-05  0.0000000E+00  0.6231398E-04
  0.1969697E+00  0.0000000E+00  0.1515152E-01  0.6121782E-05  0.0000000E+00  0.6629744E-04
  0.2070707E+00  0.0000000E+00  0.1515152E-01  0.6582793E-05  0.0000000E+00  0.7058631E-04
  0.2171717E+00  0.0000000E+00  0.1515152E-01  0.7068112E-05  0.0000000E+00  0.7519658E-04
  0.2272727E+00  0.0000000E+00  0.1515152E-01  0.7580290E-05  0.0000000E+00  0.8014579E-04
  0.2373737E+00  0.0000000E+00  0.1515152E-01  0.8122630E-05  0.0000000E+00  0.8545336E-04
  0.2474747E+00  0.0000000E+00  0.1515152E-01  0.8699550E-05  0.0000000E+00  0.9114122E-04
  0.2575758E+00  0.0000000E+00  0.1515152E-01  0.9317129E-05  0.0000000E+00  0.9723465E-04
  0.2676768E+00  0.0000000E+00  0.1515152E-01  0.9983928E-05  0.0000000E+00  0.1037636E-03
  0.2777778E+00  0.0000000E+00  0.1515152E-01  0.1071224E-04  0.0000000E+00  0.1107643E-03
  0.2878788E+00  0.0000000E+00  0.1515152E-01  0.1152006E-04  0.0000000E+00  0.1182826E-03
  0.2979798E+00  0.0000000E+00  0.1515152E-01  0.1243415E-04  0.0000000E+00  0.1263775E-03
  0.3080808E+00  0.0000000E+00  0.1515152E-01  0.1349524E-04  0.0000000E+00  0.1351282E-03
  0.3181818E+00  0.0000000E+00  0.1515152E-01  0.1476668E-04  0.0000000E+00  0.1446434E-03
  0.3282828E+00  0.0000000E+00  0.1515152E-01  0.1635008E-04  0.0000000E+00  0.1550763E-03
  0.3383838E+00  0.0000000E+00  0.1515152E-01  0.1841460E-04  0.0000000E+00  0.1666477E-03
  0.3484848E+00  0.0000000E+00  0.1515152E-01  0.2125590E-04  0.0000000E+00  0.1796774E-03
  0.3585859E+00  0.0000000E+00  0.1515152E-01  0.2542298E-04  0.0000000E+00  0.1946166E-03
  0.3686869E+00  0.0000000E+00  0.1515152E-01  0.3201269E-04  0.0000000E+00  0.2120175E-03
  0.3787879E+00  0.0000000E+00  0.1515152E-01  0.4340239E-04  0.0000000E+00  0.2321092E-03
  0.3888889E+00  0.0000000E+00  0.1515152E-01  0.6518707E-04  0.0000000E+00  0.2523980E-03
  0.3989899E+00  0.0000000E+00  0.1515152E-01 -0.5454428E-04  0.0000000E+00  0.2559940E-03
  0.4090909E+00  0.0000000E+00  0.1515152E-01 -0.3245293E-04  0.0000000E+00  0.2429979E-03
  0.4191919E+00  0.0000000E+00  0.1515152E-01 -0.2049017E-04  0.0000000E+00  0.2304980E-03
  0.4292929E+00  0.0000000E+00  0.1515152E-01 -0.1310799E-04  0.0000000E+00  0.2211614E-03
  0.4393939E+00  0.0000000E+00  0.1515152E-01 -0.7966684E-05  0.0000000E+00  0.2148943E-03
  0.4494950E+00  0.0000000E+00  0.1515152E-01 -0.3985736E-05  0.0000000E+00  0.2112560E-03
  0.4595959E+00  0.0000000E+00  0.1515152E-01 -0.6055292E-06  0.0000000E+00  0.2099013E-03
  0.4696970E+00  0.0000000E+00  0.1515152E-01  0.2511170E-05  0.0000000E+00  0.2106306E-03
  0.4797980E+00  0.0000000E+00  0.1515152E-01  0.5615132E-05  0.0000000E+00  0.2133775E-03
  0.4898990E+00  0.0000000E+00  0.1515152E-01  0.8949222E-05  0.0000000E+00  0.2182026E-03
  0.5000000E+00  0.0000000E+00  0.1515152E-01  0.1281862E-04  0.0000000E+00  0.2253061E-03
  0.5101010E+00  0.0000000E+00  0.1515152E-01  0.1769284E-04  0.0000000E+00  0.2350594E-03
  0.5202020E+00  0.0000000E+00  0.1515152E-01  0.2440368E-04  0.0000000E+00  0.2480442E-03
  0.5303030E+00  0.0000000E+00  0.1515152E-01  0.3459040E-04  0.0000000E+00  0.2650023E-03
  0.5404040E+00  0.0000000E+00  0.1515152E-01  0.5179784E-04  0.0000000E+00  0.2862008E-03
  0.5505050E+00  0.0000000E+00  0.1515152E-01  0.8438232E-04  0.0000000E+00  0.3078156E-03
  0.5606061E+00  0.0000000E+00  0.1515152E-01 -0.9424670E-04  0.0000000E+00  0.3044372E-03
  0.5707071E+00  0.0000000E+00  0.1515152E-01 -0.6176372E-04  0.0000000E+00  0.2760465E-03
  0.5808081E+00  0.0000000E+00  0.1515152E-01 -0.4475300E-04  0.0000000E+00  0.2479971E-03
  0.5909091E+00  0.0000000E+00  0.1515152E-01 -0.3486409E-04  0.0000000E+00  0.2240398E-03
  0.6010101E+00  0.0000000E+00  0.1515152E-01 -0.2856333E-04  0.0000000E+00  0.2038315E-03
  0.6111111E+00  0.0000000E+00  0.1515152E-01 -0.2422865E-04  0.0000000E+00  0.1865482E-03
  0.6212121E+00  0.0000000E+00  0.1515152E-01 -0.2105428E-04  0.0000000E+00  0.1715136E-03
  0.6313131E+00  0.0000000E+00  0.1515152E-01 -0.1861024E-04  0.0000000E+00  0.1582428E-03
  0.6414142E+00  0.0000000E+00  0.1515152E-01 -0.1665233E-04  0.0000000E+00  0.1463931E-03
  0.6515151E+00  0.0000000E+00  0.1515152E-01 -0.1503416E-04  0.0000000E+00  0.1357184E-03
  0.6616161E+00  0.0000000E+00  0.1515152E-01 -0.1366377E-04  0.0000000E+00  0.1260369E-03
  0.6717172E+00  0.0000000E+00  0.1515152E-01 -0.1248092E-04  0.0000000E+00  0.1172103E-03
  0.6818182E+00  0.0000000E+00  0.1515152E-01 -0.1144461E-04  0.0000000E+00  0.1091303E-03
  0.6919192E+00  0.0000000E+00  0.1515152E-01 -0.1052596E-04  0.0000000E+00  0.1017103E-03
  0.7020202E+00  0.0000000E+00  0.1515152E-01 -0.9703932E-05  0.0000000E+00  0.9487891E-04
  0.7121212E+00  0.0000000E+00  0.1515152E-01 -0.8962734E-05  0.0000000E+00  0.8857688E-04
  0.7222222E+00  0.0000000E+00  0.1515152E-01 -0.8290192E-05  0.0000000E+00  0.8275383E-04
  0.7323232E+00  0.0000000E+00  0.1515152E-01 -0.7676676E-05  0.0000000E+00  0.7736662E-04
  0.7424242E+00  0.0000000E+00  0.1515152E-01 -0.7114403E-05  0.0000000E+00  0.7237784E-04
  0.7525253E+00  0.0000000E+00  0.1515152E-01 -0.6596962E-05  0.0000000E+00  0.6775486E-04
  0.7626263E+00  0.0000000E+00  0.1515152E-01 -0.6118990E-05  0.0000000E+00  0.6346899E-04
  0.7727273E+00  0.0000000E+00  0.1515152E-01 -0.5675936E-05  0.0000000E+00  0.5949489E-04
  0.7828283E+00  0.0000000E+00  0.1515152E-01 -0.5263899E-05  0.0000000E+00  0.5581011E-04
  0.7929293E+00  0.0000000E+00  0.1515152E-01 -0.4879499E-05  0.0000000E+00  0.5239465E-04
  0.8030303E+00  0.0000000E+00  0.1515152E-01 -0.4519788E-05  0.0000000E+00  0.4923069E-04
  0.8131313E+00  0.0000000E+00  0.1515152E-01 -0.4182174E-05  0.0000000E+00  0.4630227E-04
  0.8232324E+00  0.0000000E+00  0.1515152E-01 -0.3864369E-05  0.0000000E+00  0.4359513E-04
  0.8333333E+00  0.0000000E+00  0.1515152E-01 -0.3564334E-05  0.0000000E+00  0.4109647E-04
  0.8434343E+00  0.0000000E+00  0.1515152E-01 -0.3280251E-05  0.0000000E+00  0.3879480E-04
  0.8535354E+00  0.0000000E+00  0.1515152E-01 -0.3010484E-05  0.0000000E+00  0.3667982E-04
  0.8636364E+00  0.0000000E+00  0.1515152E-01 -0.2753557E-05  0.0000000E+00  0.3474230E-04
  0.8737374E+00  0.0000000E+00  0.1515152E-01 -0.2508130E-05  0.0000000E+00  0.3297396E-04
  0.8838384E+00  0.0000000E+00  0.1515152E-01 -0.2272980E-05  0.0000000E+00  0.3136739E-04
  0.8939394E+00  0.0000000E+00  0.1515152E-01 -0.2046984E-05  0.0000000E+00  0.2991600E-04
  0.9040404E+00  0.0000000E+00  0.1515152E-01 -0.1829104E-05  0.0000000E+00  0.2861390E-04
  0.9141414E+00  0.0000000E+00  0.1515152E-01 -0.1618377E-05  0.0000000E+00  0.2745593E-04
  0.9242424E+00  0.0000000E+00  0.1515152E-01 -0.1413902E-05  0.0000000E+00  0.2643753E-04
  0.9343435E+00  0.0000000E+00  0.1515152E-01 -0.1214831E-05  0.0000000E+00  0.2555473E-04
  0.9444444E+00  0.0000000E+00  0.1515152E-01 -0.1020359E-05  0.0000000E+00  0.2480416E-04
  0.9545454E+00  0.0000000E+00  0.1515152E-01 -0.8297188E-06  0.0000000E+00  0.2418294E-04
  0.9646465E+00  0.0000000E+00  0.1515152E-01 -0.6421742E-06  0.0000000E+00  0.2368873E-04
  0.9747475E+00  0.0000000E+00  0.1515152E-01 -0.4570116E-06  0.0000000E+00  0.2331968E-04
  0.9848485E+00  0.0000000E+00  0.1515152E-01 -0.2735364E-06  0.0000000E+00  0.2307440E-04
  0.9974747E+00  0.0000000E+00  0.1515152E-01 -0.9106747E-07  0.0000000E+00  0.2295198E-04
  0.5050505E-02  0.0000000E+00  0.2525252E-01  0.2065753E-06  0.0000000E+00  0.3040025E-04
  0.1515152E-01  0.0000000E+00  0.2525252E-01  0.6205736E-06  0.0000000E+00  0.3056754E-04
  0.2525252E-01  0.0000000E+00  0.2525252E-01  0.1037120E-05  0.0000000E+00  0.3090280E-04
  0.3535353E-01  0.0000000E+00  0.2525252E-01  0.1457921E-05  0.0000000E+00  0.3140744E-04
  0.4545455E-01  0.0000000E+00  0.2525252E-01  0.1884691E-05  0.0000000E+00  0.3208355E-04
  0.5555556E-01  0.0000000E+00  0.2525252E-01  0.2319151E-05  0.0000000E+00  0.3293393E-04
  0.6565657E-01  0.0000000E+00  0.2525252E-01  0.2763029E-05  0.0000000E+00  0.3396213E-04
  0.7575758E-01  0.0000000E+00  0.2525252E-01  0.3218064E-05  0.0000000E+00  0.3517238E-04
  0.8585858E-01  0.0000000E+00  0.2525252E-01  0.3686003E-05  0.0000000E+00  0.3656964E-04
  0.9595960E-01  0.0000000E+00  0.2525252E-01  0.4168602E-05  0.0000000E+00  0.3815961E-04
  0.1060606E+00  0.0000000E+00  0.2525252E-01  0.4667629E-05  0.0000000E+00  0.3994871E-04
  0.1161616E+00  0.0000000E+00  0.2525252E-01  0.5184862E-05  0.0000000E+00  0.4194412E-04
  0.1262626E+00  0.0000000E+00  0.2525252E-01  0.5722095E-05  0.0000000E+00  0.4415372E-04
  0.1363636E+00  0.0000000E+00  0.2525252E-01  0.6281137E-05  0.0000000E+00  0.4658619E-04
  0.1464646E+00  0.0000000E+00  0.2525252E-01  0.6863826E-05  0.0000000E+00  0.4925092E-04
  0.1565657E+00  0.0000000E+00  0.2525252E-01  0.7472036E-05  0.0000000E+00  0.5215808E-04
  0.1666667E+00  0.0000000E+00  0.2525252E-01  0.8107701E-05  0.0000000E+00  0.5531864E-04
  0.1767677E+00  0.0000000E+00  0.2525252E-01  0.8772846E-05  0.0000000E+00  0.5874434E-04
  0.1868687E+00  0.0000000E+00  0.2525252E-01  0.9469640E-05  0.0000000E+00  0.6244777E-04
  0.1969697E+00  0.0000000E+00  0.2525252E-01  0.1020047E-04  0.0000000E+00  0.6644240E-04
  0.2070707E+00  0.0000000E+00  0.2525252E-01  0.1096805E-04  0.0000000E+00  0.7074263E-04
  0.2171717E+00  0.0000000E+00  0.2525252E-01  0.1177561E-04  0.0000000E+00  0.7536399E-04
  0.2272727E+00  0.0000000E+00  0.2525252E-01  0.1262712E-04  0.0000000E+00  0.8032321E-04
  0.2373737E+00  0.0000000E+00  0.2525252E-01  0.1352771E-04  0.0000000E+00  0.8563859E-04
  0.2474747E+00  0.0000000E+00  0.2525252E-01  0.1448413E-04  0.0000000E+00  0.9133030E-04
  0.2575758E+00  0.0000000E+00  0.2525252E-01  0.1550566E-04  0.0000000E+00  0.9742105E-04
  0.2676768E+00  0.0000000E+00  0.2525252E-01  0.1660524E-04  0.0000000E+00  0.1039368E-03
  0.2777778E+00  0.0000000E+00  0.2525252E-01  0.1780133E-04  0.0000000E+00  0.1109082E-03
  0.2878788E+00  0.0000000E+00  0.2525252E-01  0.1912061E-04  0.0000000E+00  0.1183720E-03
  0.2979798E+00  0.0000000E+00  0.2525252E-01  0.2060234E-04  0.0000000E+00  0.1263735E-03
  0.3080808E+00  0.0000000E+00  0.2525252E-01  0.2230510E-04  0.0000000E+00  0.1349697E-03
  0.3181818E+00  0.0000000E+00  0.2525252E-01  0.2431780E-04  0.0000000E+00  0.1442331E-03
  0.3282828E+00  0.0000000E+00  0.2525252E-01  0.2677786E-04  0.0000000E+00  0.1542555E-03
  0.3383838E+00  0.0000000E+00  0.2525252E-01  0.2990208E-04  0.0000000E+00  0.1651483E-03
  0.3484848E+00  0.0000000E+00  0.2525252E-01  0.3403976E-04  0.0000000E+00  0.1770301E-03
  0.3585859E+00  0.0000000E+00  0.2525252E-01  0.3976433E-04  0.0000000E+00  0.1899721E-03
  0.3686869E+00  0.0000000E+00  0.2525252E-01  0.4802367E-04  0.0000000E+00  0.2038226E-03
  0.3787879E+00  0.0000000E+00  0.2525252E-01  0.6033695E-04  0.0000000E+00  0.2177273E-03
  0.3888889E+00  0.0000000E+00  0.2525252E-01  0.7876746E-04  0.0000000E+00  0.2290595E-03
  0.3989899E+00  0.0000000E+00  0.2525252E-01 -0.6127933E-04  0.0000000E+00  0.2324936E-03
  0.4090909E+00  0.0000000E+00  0.2525252E-01 -0.4230655E-04  0.0000000E+00  0.2281574E-03
  0.4191919E+00  0.0000000E+00  0.2525252E-01 -0.2899127E-04  0.0000000E+00  0.2216090E-03
  0.4292929E+00  0.0000000E+00  0.2525252E-01 -0.1937238E-04  0.0000000E+00  0.2156498E-03
  0.4393939E+00  0.0000000E+00  0.2525252E-01 -0.1200789E-04  0.0000000E+00  0.2112485E-03
  0.4494950E+00  0.0000000E+00  0.2525252E-01 -0.5983622E-05  0.0000000E+00  0.2086358E-03
  0.4595959E+00  0.0000000E+00  0.2525252E-01 -0.7133818E-06  0.0000000E+00  0.2078092E-03
  0.4696970E+00  0.0000000E+00  0.2525252E-01  0.4211975E-05  0.0000000E+00  0.2087253E-03
  0.4797980E+00  0.0000000E+00  0.2525252E-01  0.9124014E-05  0.0000000E+00  0.2113651E-03
  0.4898990E+00  0.0000000E+00  0.2525252E-01  0.1434994E-04  0.0000000E+00  0.2157542E-03
  0.5000000E+00  0.0000000E+00  0.2525252E-01  0.2028506E-04  0.0000000E+00  0.2219624E-03
  0.5101010E+00  0.0000000E+00  0.2525252E-01  0.2748887E-04  0.0000000E+00  0.2300783E-03
  0.5202020E+00  0.0000000E+00  0.2525252E-01  0.3683516E-04  0.0000000E+00  0.2401226E-03
  0.5303030E+00  0.0000000E+00  0.2525252E-01  0.4975008E-04  0.0000000E+00  0.2517881E-03
  0.5404040E+00  0.0000000E+00  0.2525252E-01  0.6851731E-04  0.0000000E+00  0.2637334E-03
  0.5505050E+00  0.0000000E+00  0.2525252E-01  0.9622390E-04  0.0000000E+00  0.2719929E-03
  0.5606061E+00  0.0000000E+00  0.2525252E-01 -0.1126361E-03  0.0000000E+00  0.2686461E-03
  0.5707071E+00  0.0000000E+00  0.2525252E-01 -0.8508852E-04  0.0000000E+00  0.2536721E-03
  0.5808081E+00  0.0000000E+00  0.2525252E-01 -0.6663755E-04  0.0000000E+00  0.2349391E-03
  0.5909091E+00  0.0000000E+00  0.2525252E-01 -0.5420406E-04  0.0000000E+00  0.2163475E-03
  0.6010101E+00  0.0000000E+00  0.2525252E-01 -0.4552050E-04  0.0000000E+00  0.1991698E-03
  0.6111111E+00  0.0000000E+00  0.2525252E-01 -0.3918603E-04  0.0000000E+00  0.1836399E-03
  0.6212121E+00  0.0000000E+00  0.2525252E-01 -0.3436514E-04  0.0000000E+00  0.1696560E-03
  0.6313131E+00  0.0000000E+00  0.2525252E-01 -0.3055569E-04  0.0000000E+00  0.1570371E-03
  0.6414142E+00  0.0000000E+00  0.2525252E-01 -0.2744862E-04  0.0000000E+00  0.1456045E-03
  0.6515151E+00  0.0000000E+00  0.2525252E-01 -0.2484799E-04  0.0000000E+00  0.1352038E-03
  0.6616161E+00  0.0000000E+00  0.2525252E-01 -0.2262556E-04  0.0000000E+00  0.1257061E-03
  0.6717172E+00  0.0000000E+00  0.2525252E-01 -0.2069467E-04  0.0000000E+00  0.1170051E-03
  0.6818182E+00  0.0000000E+00  0.2525252E-01 -0.1899490E-04  0.0000000E+00  0.1090123E-03
  0.6919192E+00  0.0000000E+00  0.2525252E-01 -0.1748280E-04  0.0000000E+00  0.1016532E-03
  0.7020202E+00  0.0000000E+00  0.2525252E-01 -0.1612619E-04  0.0000000E+00  0.9486493E-04
  0.7121212E+00  0.0000000E+00  0.2525252E-01 -0.1490058E-04  0.0000000E+00  0.8859344E-04
  0.7222222E+00  0.0000000E+00  0.2525252E-01 -0.1378686E-04  0.0000000E+00  0.8279204E-04
  0.7323232E+00  0.0000000E+00  0.2525252E-01 -0.1276973E-04  0.0000000E+00  0.7742007E-04
  0.7424242E+00  0.0000000E+00  0.2525252E-01 -0.1183675E-04  0.0000000E+00  0.7244189E-04
  0.7525253E+00  0.0000000E+00  0.2525252E-01 -0.1097758E-04  0.0000000E+00  0.6782609E-04
  0.7626263E+00  0.0000000E+00  0.2525252E-01 -0.1018352E-04  0.0000000E+00  0.6354487E-04
  0.7727273E+00  0.0000000E+00  0.2525252E-01 -0.9447163E-05  0.0000000E+00  0.5957355E-04
  0.7828283E+00  0.0000000E+00  0.2525252E-01 -0.8762123E-05  0.0000000E+00  0.5589014E-04
  0.7929293E+00  0.0000000E+00  0.2525252E-01 -0.8122856E-05  0.0000000E+00  0.5247502E-04
  0.8030303E+00  0.0000000E+00  0.2525252E-01 -0.7524510E-05  0.0000000E+00  0.4931062E-04
  0.8131313E+00  0.0000000E+00  0.2525252E-01 -0.6962816E-05  0.0000000E+00  0.4638122E-04
  0.8232324E+00  0.0000000E+00  0.2525252E-01 -0.6433992E-05  0.0000000E+00  0.4367269E-04
  0.8333333E+00  0.0000000E+00  0.2525252E-01 -0.5934670E-05  0.0000000E+00  0.4117236E-04
  0.8434343E+00  0.0000000E+00  0.2525252E-01 -0.5461841E-05  0.0000000E+00  0.3886886E-04
  0.8535354E+00  0.0000000E+00  0.2525252E-01 -0.5012796E-05  0.0000000E+00  0.3675196E-04
  0.8636364E+00  0.0000000E+00  0.2525252E-01 -0.4585089E-05  0.0000000E+00  0.3481247E-04
  0.8737374E+00  0.0000000E+00  0.2525252E-01 -0.4176496E-05  0.0000000E+00  0.3304218E-04
  0.8838384E+00  0.0000000E+00  0.2525252E-01 -0.3784988E-05  0.0000000E+00  0.3143372E-04
  0.8939394E+00  0.0000000E+00  0.2525252E-01 -0.3408702E-05  0.0000000E+00  0.2998052E-04
  0.9040404E+00  0.0000000E+00  0.2525252E-01 -0.3045914E-05  0.0000000E+00  0.2867673E-04
  0.9141414E+00  0.0000000E+00  0.2525252E-01 -0.2695024E-05  0.0000000E+00  0.2751719E-04
  0.9242424E+00  0.0000000E+00  0.2525252E-01 -0.2354534E-05  0.0000000E+00  0.2649736E-04
  0.9343435E+00  0.0000000E+00  0.2525252E-01 -0.2023035E-05  0.0000000E+00  0.2561329E-04
  0.9444444E+00  0.0000000E+00  0.2525252E-01 -0.1699190E-05  0.0000000E+00  0.2486161E-04
  0.9545454E+00  0.0000000E+00  0.2525252E-01 -0.1381722E-05  0.0000000E+00  0.2423946E-04
  0.9646465E+00  0.0000000E+00  0.2525252E-01 -0.1069407E-05  0.0000000E+00  0.2374450E-04
  0.9747475E+00  0.0000000E+00  0.2525252E-01 -0.7610569E-06  0.0000000E+00  0.2337488E-04
  0.9848485E+00  0.0000000E+00  0.2525252E-01 -0.4555171E-06  0.0000000E+00  0.2312922E-04
  0.9974747E+00  0.0000000E+00  0.2525252E-01 -0.1516535E-06  0.0000000E+00  0.2300661E-04
  0.5050505E-02  0.0000000E+00  0.3535353E-01  0.2891231E-06  0.0000000E+00  0.3047232E-04
  0.1515152E-01  0.0000000E+00  0.3535353E-01  0.8685619E-06  0.0000000E+00  0.3064017E-04
  0.2525252E-01  0.0000000E+00  0.3535353E-01  0.1451584E-05  0.0000000E+00  0.3097656E-04
  0.3535353E-01  0.0000000E+00  0.3535353E-01  0.2040587E-05  0.0000000E+00  0.3148290E-04
  0.4545455E-01  0.0000000E+00  0.3535353E-01  0.2637979E-05  0.0000000E+00  0.3216132E-04
  0.5555556E-01  0.0000000E+00  0.3535353E-01  0.3246178E-05  0.0000000E+00  0.3301466E-04
  0.6565657E-01  0.0000000E+00  0.3535353E-01  0.3867613E-05  0.0000000E+00  0.3404648E-04
  0.7575758E-01  0.0000000E+00  0.3535353E-01  0.4504723E-05  0.0000000E+00  0.3526109E-04
  0.8585858E-01  0.0000000E+00  0.3535353E-01  0.5159962E-05  0.0000000E+00  0.3666351E-04
  0.9595960E-01  0.0000000E+00  0.3535353E-01  0.5835795E-05  0.0000000E+00  0.3825950E-04
  0.1060606E+00  0.0000000E+00  0.3535353E-01  0.6534701E-05  0.0000000E+00  0.4005556E-04
  0.1161616E+00  0.0000000E+00  0.3535353E-01  0.7259172E-05  0.0000000E+00  0.4205894E-04
  0.1262626E+00  0.0000000E+00  0.3535353E-01  0.8011714E-05  0.0000000E+00  0.4427762E-04
  0.1363636E+00  0.0000000E+00  0.3535353E-01  0.8794855E-05  0.0000000E+00  0.4672034E-04
  0.1464646E+00  0.0000000E+00  0.3535353E-01  0.9611147E-05  0.0000000E+00  0.4939658E-04
  0.1565657E+00  0.0000000E+00  0.3535353E-01  0.1046318E-04  0.0000000E+00  0.5231657E-04
  0.1666667E+00  0.0000000E+00  0.3535353E-01  0.1135362E-04  0.0000000E+00  0.5549129E-04
  0.1767677E+00  0.0000000E+00  0.3535353E-01  0.1228522E-04  0.0000000E+00  0.5893246E-04
  0.1868687E+00  0.0000000E+00  0.3535353E-01  0.1326090E-04  0.0000000E+00  0.6265257E-04
  0.1969697E+00  0.0000000E+00  0.3535353E-01  0.1428383E-04  0.0000000E+00  0.6666486E-04
  0.2070707E+00  0.0000000E+00  0.3535353E-01  0.1535755E-04  0.0000000E+00  0.7098337E-04
  0.2171717E+00  0.0000000E+00  0.3535353E-01  0.1648622E-04  0.0000000E+00  0.7562297E-04
  0.2272727E+00  0.0000000E+00  0.3535353E-01  0.1767489E-04  0.0000000E+00  0.8059942E-04
  0.2373737E+00  0.0000000E+00  0.3535353E-01  0.1892991E-04  0.0000000E+00  0.8592947E-04
  0.2474747E+00  0.0000000E+00  0.3535353E-01  0.2025967E-04  0.0000000E+00  0.9163105E-04
  0.2575758E+00  0.0000000E+00  0.3535353E-01  0.2167544E-04  0.0000000E+00  0.9772346E-04
  0.2676768E+00  0.0000000E+00  0.3535353E-01  0.2319287E-04  0.0000000E+00  0.1042277E-03
  0.2777778E+00  0.0000000E+00  0.3535353E-01  0.2483394E-04  0.0000000E+00  0.1111670E-03
  0.2878788E+00  0.0000000E+00  0.3535353E-01  0.2663009E-04  0.0000000E+00  0.1185668E-03
  0.2979798E+00  0.0000000E+00  0.3535353E-01  0.2862668E-04  0.0000000E+00  0.1264560E-03