title = "dataset water"
variables = "x", "y", "z", "vx", "vy", "vz"
zone t = "velocities, solution time =  2.400E+01 days        " i =   99, j =   99, k =    1,  f=point
  0.5050505E-02  0.0000000E+00  0.5050505E-02  0.1368495E-08  0.0000000E+00 -0.1208377E-04
  0.1515152E-01  0.0000000E+00  0.5050505E-02  0.4105172E-08  0.0000000E+00 -0.1207829E-04
  0.2525252E-01  0.0000000E+00  0.5050505E-02  0.6840826E-08  0.0000000E+00 -0.1206733E-04
  0.3535353E-01  0.0000000E+00  0.5050505E-02  0.9574543E-08  0.0000000E+00 -0.1205089E-04
  0.4545455E-01  0.0000000E+00  0.5050505E-02  0.1230507E-07  0.0000000E+00 -0.1202898E-04
  0.5555556E-01  0.0000000E+00  0.5050505E-02  0.1503066E-07  0.0000000E+00 -0.1200160E-04
  0.6565657E-01  0.0000000E+00  0.5050505E-02  0.1774895E-07  0.0000000E+00 -0.1196877E-04
  0.7575758E-01  0.0000000E+00  0.5050505E-02  0.2045682E-07  0.0000000E+00 -0.1193051E-04
  0.8585858E-01  0.0000000E+00  0.5050505E-02  0.2315026E-07  0.0000000E+00 -0.1188684E-04
  0.9595960E-01  0.0000000E+00  0.5050505E-02  0.2582422E-07  0.0000000E+00 -0.1183780E-04
  0.1060606E+00  0.0000000E+00  0.5050505E-02  0.2847253E-07  0.0000000E+00 -0.1178342E-04
  0.1161616E+00  0.0000000E+00  0.5050505E-02  0.3108774E-07  0.0000000E+00 -0.1172377E-04
  0.1262626E+00  0.0000000E+00  0.5050505E-02  0.3366104E-07  0.0000000E+00 -0.1165893E-04
  0.1363636E+00  0.0000000E+00  0.5050505E-02  0.3618220E-07  0.0000000E+00 -0.1158899E-04
  0.1464646E+00  0.0000000E+00  0.5050505E-02  0.3863948E-07  0.0000000E+00 -0.1151406E-04
  0.1565657E+00  0.0000000E+00  0.5050505E-02  0.4101963E-07  0.0000000E+00 -0.1143429E-04
  0.1666667E+00  0.0000000E+00  0.5050505E-02  0.4330787E-07  0.0000000E+00 -0.1134985E-04
  0.1767677E+00  0.0000000E+00  0.5050505E-02  0.4548800E-07  0.0000000E+00 -0.1126093E-04
  0.1868687E+00  0.0000000E+00  0.5050505E-02  0.4754247E-07  0.0000000E+00 -0.1116777E-04
  0.1969697E+00  0.0000000E+00  0.5050505E-02  0.4945255E-07  0.0000000E+00 -0.1107064E-04
  0.2070707E+00  0.0000000E+00  0.5050505E-02  0.5119860E-07  0.0000000E+00 -0.1096986E-04
  0.2171717E+00  0.0000000E+00  0.5050505E-02  0.5276034E-07  0.0000000E+00 -0.1086576E-04
  0.2272727E+00  0.0000000E+00  0.5050505E-02  0.5411723E-07  0.0000000E+00 -0.1075874E-04
  0.2373737E+00  0.0000000E+00  0.5050505E-02  0.5524891E-07  0.0000000E+00 -0.1064923E-04
  0.2474747E+00  0.0000000E+00  0.5050505E-02  0.5613569E-07  0.0000000E+00 -0.1053770E-04
  0.2575758E+00  0.0000000E+00  0.5050505E-02  0.5675910E-07  0.0000000E+00 -0.1042466E-04
  0.2676768E+00  0.0000000E+00  0.5050505E-02  0.5710242E-07  0.0000000E+00 -0.1031066E-04
  0.2777778E+00  0.0000000E+00  0.5050505E-02  0.5715124E-07  0.0000000E+00 -0.1019626E-04
  0.2878788E+00  0.0000000E+00  0.5050505E-02  0.5689399E-07  0.0000000E+00 -0.1008208E-04
  0.2979798E+00  0.0000000E+00  0.5050505E-02  0.5632239E-07  0.0000000E+00 -0.9968721E-05
  0.3080808E+00  0.0000000E+00  0.5050505E-02  0.5543179E-07  0.0000000E+00 -0.9856831E-05
  0.3181818E+00  0.0000000E+00  0.5050505E-02  0.5422141E-07  0.0000000E+00 -0.9747047E-05
  0.3282828E+00  0.0000000E+00  0.5050505E-02  0.5269441E-07  0.0000000E+00 -0.9640004E-05
  0.3383838E+00  0.0000000E+00  0.5050505E-02  0.5085777E-07  0.0000000E+00 -0.9536331E-05
  0.3484848E+00  0.0000000E+00  0.5050505E-02  0.4872209E-07  0.0000000E+00 -0.9436636E-05
  0.3585859E+00  0.0000000E+00  0.5050505E-02  0.4630113E-07  0.0000000E+00 -0.9341504E-05
  0.3686869E+00  0.0000000E+00  0.5050505E-02  0.4361133E-07  0.0000000E+00 -0.9251489E-05
  0.3787879E+00  0.0000000E+00  0.5050505E-02  0.4067115E-07  0.0000000E+00 -0.9167112E-05
  0.3888889E+00  0.0000000E+00  0.5050505E-02  0.3750049E-07  0.0000000E+00 -0.9088853E-05
  0.3989899E+00  0.0000000E+00  0.5050505E-02  0.3412007E-07  0.0000000E+00 -0.9017153E-05
  0.4090909E+00  0.0000000E+00  0.5050505E-02  0.3055086E-07  0.0000000E+00 -0.8952411E-05
  0.4191919E+00  0.0000000E+00  0.5050505E-02  0.2681377E-07  0.0000000E+00 -0.8894984E-05
  0.4292929E+00  0.0000000E+00  0.5050505E-02  0.2292927E-07  0.0000000E+00 -0.8845187E-05
  0.4393939E+00  0.0000000E+00  0.5050505E-02  0.1891743E-07  0.0000000E+00 -0.8803295E-05
  0.4494950E+00  0.0000000E+00  0.5050505E-02  0.1479789E-07  0.0000000E+00 -0.8769543E-05
  0.4595959E+00  0.0000000E+00  0.5050505E-02  0.1059013E-07  0.0000000E+00 -0.8744128E-05
  0.4696970E+00  0.0000000E+00  0.5050505E-02  0.6313795E-08  0.0000000E+00 -0.8727206E-05
  0.4797980E+00  0.0000000E+00  0.5050505E-02  0.1989015E-08  0.0000000E+00 -0.8718894E-05
  0.4898990E+00  0.0000000E+00  0.5050505E-02 -0.2363163E-08  0.0000000E+00 -0.8719269E-05
  0.5000000E+00  0.0000000E+00  0.5050505E-02 -0.6720477E-08  0.0000000E+00 -0.8728362E-05
  0.5101010E+00  0.0000000E+00  0.5050505E-02 -0.1105922E-07  0.0000000E+00 -0.8746161E-05
  0.5202020E+00  0.0000000E+00  0.5050505E-02 -0.1535416E-07  0.0000000E+00 -0.8772603E-05
  0.5303030E+00  0.0000000E+00  0.5050505E-02 -0.1957861E-07  0.0000000E+00 -0.8807573E-05
  0.5404040E+00  0.0000000E+00  0.5050505E-02 -0.2370466E-07  0.0000000E+00 -0.8850903E-05
  0.5505050E+00  0.0000000E+00  0.5050505E-02 -0.2770361E-07  0.0000000E+00 -0.8902367E-05
  0.5606061E+00  0.0000000E+00  0.5050505E-02 -0.3154655E-07  0.0000000E+00 -0.8961682E-05
  0.5707071E+00  0.0000000E+00  0.5050505E-02 -0.3520494E-07  0.0000000E+00 -0.9028507E-05
  0.5808081E+00  0.0000000E+00  0.5050505E-02 -0.3865142E-07  0.0000000E+00 -0.9102445E-05
  0.5909091E+00  0.0000000E+00  0.5050505E-02 -0.4186052E-07  0.0000000E+00 -0.9183047E-05
  0.6010101E+00  0.0000000E+00  0.5050505E-02 -0.4480932E-07  0.0000000E+00 -0.9269815E-05
  0.6111111E+00  0.0000000E+00  0.5050505E-02 -0.4747810E-07  0.0000000E+00 -0.9362207E-05
  0.6212121E+00  0.0000000E+00  0.5050505E-02 -0.4985081E-07  0.0000000E+00 -0.9459648E-05
  0.6313131E+00  0.0000000E+00  0.5050505E-02 -0.5191542E-07  0.0000000E+00 -0.9561532E-05
  0.6414142E+00  0.0000000E+00  0.5050505E-02 -0.5366409E-07  0.0000000E+00 -0.9667236E-05
  0.6515151E+00  0.0000000E+00  0.5050505E-02 -0.5509325E-07  0.0000000E+00 -0.9776122E-05
  0.6616161E+00  0.0000000E+00  0.5050505E-02 -0.5620339E-07  0.0000000E+00 -0.9887552E-05
  0.6717172E+00  0.0000000E+00  0.5050505E-02 -0.5699891E-07  0.0000000E+00 -0.1000089E-04
  0.6818182E+00  0.0000000E+00  0.5050505E-02 -0.5748769E-07  0.0000000E+00 -0.1011552E-04
  0.6919192E+00  0.0000000E+00  0.5050505E-02 -0.5768070E-07  0.0000000E+00 -0.1023083E-04
  0.7020202E+00  0.0000000E+00  0.5050505E-02 -0.5759149E-07  0.0000000E+00 -0.1034625E-04
  0.7121212E+00  0.0000000E+00  0.5050505E-02 -0.5723569E-07  0.0000000E+00 -0.1046122E-04
  0.7222222E+00  0.0000000E+00  0.5050505E-02 -0.5663053E-07  0.0000000E+00 -0.1057523E-04
  0.7323232E+00  0.0000000E+00  0.5050505E-02 -0.5579432E-07  0.0000000E+00 -0.1068780E-04
  0.7424242E+00  0.0000000E+00  0.5050505E-02 -0.5474600E-07  0.0000000E+00 -0.1079849E-04
  0.7525253E+00  0.0000000E+00  0.5050505E-02 -0.5350472E-07  0.0000000E+00 -0.1090688E-04
  0.7626263E+00  0.0000000E+00  0.5050505E-02 -0.5208952E-07  0.0000000E+00 -0.1101262E-04
  0.7727273E+00  0.0000000E+00  0.5050505E-02 -0.5051896E-07  0.0000000E+00 -0.1111537E-04
  0.7828283E+00  0.0000000E+00  0.5050505E-02 -0.4881092E-07  0.0000000E+00 -0.1121483E-04
  0.7929293E+00  0.0000000E+00  0.5050505E-02 -0.4698239E-07  0.0000000E+00 -0.1131076E-04
  0.8030303E+00  0.0000000E+00  0.5050505E-02 -0.4504929E-07  0.0000000E+00 -0.1140292E-04
  0.8131313E+00  0.0000000E+00  0.5050505E-02 -0.4302641E-07  0.0000000E+00 -0.1149111E-04
  0.8232324E+00  0.0000000E+00  0.5050505E-02 -0.4092730E-07  0.0000000E+00 -0.1157519E-04
  0.8333333E+00  0.0000000E+00  0.5050505E-02 -0.3876427E-07  0.0000000E+00 -0.1165499E-04
  0.8434343E+00  0.0000000E+00  0.5050505E-02 -0.3654835E-07  0.0000000E+00 -0.1173041E-04
  0.8535354E+00  0.0000000E+00  0.5050505E-02 -0.3428936E-07  0.0000000E+00 -0.1180135E-04
  0.8636364E+00  0.0000000E+00  0.5050505E-02 -0.3199589E-07  0.0000000E+00 -0.1186773E-04
  0.8737374E+00  0.0000000E+00  0.5050505E-02 -0.2967539E-07  0.0000000E+00 -0.1192949E-04
  0.8838384E+00  0.0000000E+00  0.5050505E-02 -0.2733425E-07  0.0000000E+00 -0.1198659E-04
  0.8939394E+00  0.0000000E+00  0.5050505E-02 -0.2497782E-07  0.0000000E+00 -0.1203898E-04
  0.9040404E+00  0.0000000E+00  0.5050505E-02 -0.2261051E-07  0.0000000E+00 -0.1208663E-04
  0.9141414E+00  0.0000000E+00  0.5050505E-02 -0.2023590E-07  0.0000000E+00 -0.1212954E-04
  0.9242424E+00  0.0000000E+00  0.5050505E-02 -0.1785679E-07  0.0000000E+00 -0.1216769E-04
  0.9343435E+00  0.0000000E+00  0.5050505E-02 -0.1547530E-07  0.0000000E+00 -0.1220108E-04
  0.9444444E+00  0.0000000E+00  0.5050505E-02 -0.1309294E-07  0.0000000E+00 -0.1222969E-04
  0.9545454E+00  0.0000000E+00  0.5050505E-02 -0.1071071E-07  0.0000000E+00 -0.1225353E-04
  0.9646465E+00  0.0000000E+00  0.5050505E-02 -0.8329172E-08  0.0000000E+00 -0.1227259E-04
  0.9747475E+00  0.0000000E+00  0.5050505E-02 -0.5948533E-08  0.0000000E+00 -0.1228689E-04
  0.9848485E+00  0.0000000E+00  0.5050505E-02 -0.3568732E-08  0.0000000E+00 -0.1229643E-04
  0.9974747E+00  0.0000000E+00  0.5050505E-02 -0.1189510E-08  0.0000000E+00 -0.1230119E-04
  0.5050505E-02  0.0000000E+00  0.1515152E-01  0.4114065E-08  0.0000000E+00 -0.1205413E-04
  0.1515152E-01  0.0000000E+00  0.1515152E-01  0.1234133E-07  0.0000000E+00 -0.1204859E-04
  0.2525252E-01  0.0000000E+00  0.1515152E-01  0.2056576E-07  0.0000000E+00 -0.1203753E-04
  0.3535353E-01  0.0000000E+00  0.1515152E-01  0.2878475E-07  0.0000000E+00 -0.1202094E-04
  0.4545455E-01  0.0000000E+00  0.1515152E-01  0.3699469E-07  0.0000000E+00 -0.1199882E-04
  0.5555556E-01  0.0000000E+00  0.1515152E-01  0.4519049E-07  0.0000000E+00 -0.1197119E-04
  0.6565657E-01  0.0000000E+00  0.1515152E-01  0.5336520E-07  0.0000000E+00 -0.1193805E-04
  0.7575758E-01  0.0000000E+00  0.1515152E-01  0.6150958E-07  0.0000000E+00 -0.1189942E-04
  0.8585858E-01  0.0000000E+00  0.1515152E-01  0.6961170E-07  0.0000000E+00 -0.1185532E-04
  0.9595960E-01  0.0000000E+00  0.1515152E-01  0.7765654E-07  0.0000000E+00 -0.1180579E-04
  0.1060606E+00  0.0000000E+00  0.1515152E-01  0.8562563E-07  0.0000000E+00 -0.1175086E-04
  0.1161616E+00  0.0000000E+00  0.1515152E-01  0.9349669E-07  0.0000000E+00 -0.1169060E-04
  0.1262626E+00  0.0000000E+00  0.1515152E-01  0.1012433E-06  0.0000000E+00 -0.1162508E-04
  0.1363636E+00  0.0000000E+00  0.1515152E-01  0.1088348E-06  0.0000000E+00 -0.1155438E-04
  0.1464646E+00  0.0000000E+00  0.1515152E-01  0.1162359E-06  0.0000000E+00 -0.1147863E-04
  0.1565657E+00  0.0000000E+00  0.1515152E-01  0.1234067E-06  0.0000000E+00 -0.1139796E-04
  0.1666667E+00  0.0000000E+00  0.1515152E-01  0.1303027E-06  0.0000000E+00 -0.1131254E-04
  0.1767677E+00  0.0000000E+00  0.1515152E-01  0.1368751E-06  0.0000000E+00 -0.1122258E-04
  0.1868687E+00  0.0000000E+00  0.1515152E-01  0.1430708E-06  0.0000000E+00 -0.1112829E-04
  0.1969697E+00  0.0000000E+00  0.1515152E-01  0.1488334E-06  0.0000000E+00 -0.1102997E-04
  0.2070707E+00  0.0000000E+00  0.1515152E-01  0.1541034E-06  0.0000000E+00 -0.1092790E-04
  0.2171717E+00  0.0000000E+00  0.1515152E-01  0.1588194E-06  0.0000000E+00 -0.1082246E-04
  0.2272727E+00  0.0000000E+00  0.1515152E-01  0.1629192E-06  0.0000000E+00 -0.1071402E-04
  0.2373737E+00  0.0000000E+00  0.1515152E-01  0.1663411E-06  0.0000000E+00 -0.1060303E-04
  0.2474747E+00  0.0000000E+00  0.1515152E-01  0.1690254E-06  0.0000000E+00 -0.1048997E-04
  0.2575758E+00  0.0000000E+00  0.1515152E-01  0.1709157E-06  0.0000000E+00 -0.1037534E-04
  0.2676768E+00  0.0000000E+00  0.1515152E-01  0.1719614E-06  0.0000000E+00 -0.1025971E-04
  0.2777778E+00  0.0000000E+00  0.1515152E-01  0.1721186E-06  0.0000000E+00 -0.1014366E-04
  0.2878788E+00  0.0000000E+00  0.1515152E-01  0.1713520E-06  0.0000000E+00 -0.1002781E-04
  0.2979798E+00  0.0000000E+00  0.1515152E-01  0.1696364E-06  0.0000000E+00 -0.9912788E-05
  0.3080808E+00  0.0000000E+00  0.1515152E-01  0.1669576E-06  0.0000000E+00 -0.9799243E-05
  0.3181818E+00  0.0000000E+00  0.1515152E-01  0.1633132E-06  0.0000000E+00 -0.9687828E-05
  0.3282828E+00  0.0000000E+00  0.1515152E-01  0.1587129E-06  0.0000000E+00 -0.9579196E-05
  0.3383838E+00  0.0000000E+00  0.1515152E-01  0.1531781E-06  0.0000000E+00 -0.9473987E-05
  0.3484848E+00  0.0000000E+00  0.1515152E-01  0.1467410E-06  0.0000000E+00 -0.9372823E-05
  0.3585859E+00  0.0000000E+00  0.1515152E-01  0.1394437E-06  0.0000000E+00 -0.9276299E-05
  0.3686869E+00  0.0000000E+00  0.1515152E-01  0.1313362E-06  0.0000000E+00 -0.9184981E-05
  0.3787879E+00  0.0000000E+00  0.1515152E-01  0.1224749E-06  0.0000000E+00 -0.9099394E-05
  0.3888889E+00  0.0000000E+00  0.1515152E-01  0.1129202E-06  0.0000000E+00 -0.9020028E-05
  0.3989899E+00  0.0000000E+00  0.1515152E-01  0.1027350E-06  0.0000000E+00 -0.8947326E-05
  0.4090909E+00  0.0000000E+00  0.1515152E-01  0.9198278E-07  0.0000000E+00 -0.8881691E-05
  0.4191919E+00  0.0000000E+00  0.1515152E-01  0.8072671E-07  0.0000000E+00 -0.8823481E-05
  0.4292929E+00  0.0000000E+00  0.1515152E-01  0.6902849E-07  0.0000000E+00 -0.8773013E-05
  0.4393939E+00  0.0000000E+00  0.1515152E-01  0.5694828E-07  0.0000000E+00 -0.8730563E-05
  0.4494950E+00  0.0000000E+00  0.1515152E-01  0.4454494E-07  0.0000000E+00 -0.8696366E-05
  0.4595959E+00  0.0000000E+00  0.1515152E-01  0.3187667E-07  0.0000000E+00 -0.8670619E-05
  0.4696970E+00  0.0000000E+00  0.1515152E-01  0.1900206E-07  0.0000000E+00 -0.8653481E-05
  0.4797980E+00  0.0000000E+00  0.1515152E-01  0.5981209E-08  0.0000000E+00 -0.8645070E-05
  0.4898990E+00  0.0000000E+00  0.1515152E-01 -0.7123011E-08  0.0000000E+00 -0.8645465E-05
  0.5000000E+00  0.0000000E+00  0.1515152E-01 -0.2024397E-07  0.0000000E+00 -0.8654701E-05
  0.5101010E+00  0.0000000E+00  0.1515152E-01 -0.3331056E-07  0.0000000E+00 -0.8672767E-05
  0.5202020E+00  0.0000000E+00  0.1515152E-01 -0.4624690E-07  0.0000000E+00 -0.8699603E-05
  0.5303030E+00  0.0000000E+00  0.1515152E-01 -0.5897254E-07  0.0000000E+00 -0.8735097E-05
  0.5404040E+00  0.0000000E+00  0.1515152E-01 -0.7140323E-07  0.0000000E+00 -0.8779079E-05
  0.5505050E+00  0.0000000E+00  0.1515152E-01 -0.8345214E-07  0.0000000E+00 -0.8831323E-05
  0.5606061E+00  0.0000000E+00  0.1515152E-01 -0.9503164E-07  0.0000000E+00 -0.8891544E-05
  0.5707071E+00  0.0000000E+00  0.1515152E-01 -0.1060553E-06  0.0000000E+00 -0.8959396E-05
  0.5808081E+00  0.0000000E+00  0.1515152E-01 -0.1164401E-06  0.0000000E+00 -0.9034475E-05
  0.5909091E+00  0.0000000E+00  0.1515152E-01 -0.1261087E-06  0.0000000E+00 -0.9116324E-05
  0.6010101E+00  0.0000000E+00  0.1515152E-01 -0.1349916E-06  0.0000000E+00 -0.9204435E-05
  0.6111111E+00  0.0000000E+00  0.1515152E-01 -0.1430290E-06  0.0000000E+00 -0.9298254E-05
  0.6212121E+00  0.0000000E+00  0.1515152E-01 -0.1501723E-06  0.0000000E+00 -0.9397192E-05
  0.6313131E+00  0.0000000E+00  0.1515152E-01 -0.1563852E-06  0.0000000E+00 -0.9500632E-05
  0.6414142E+00  0.0000000E+00  0.1515152E-01 -0.1616440E-06  0.0000000E+00 -0.9607933E-05
  0.6515151E+00  0.0000000E+00  0.1515152E-01 -0.1659381E-06  0.0000000E+00 -0.9718446E-05
  0.6616161E+00  0.0000000E+00  0.1515152E-01 -0.1692694E-06  0.0000000E+00 -0.9831517E-05
  0.6717172E+00  0.0000000E+00  0.1515152E-01 -0.1716512E-06  0.0000000E+00 -0.9946500E-05
  0.6818182E+00  0.0000000E+00  0.1515152E-01 -0.1731079E-06  0.0000000E+00 -0.1006276E-04
  0.6919192E+00  0.0000000E+00  0.1515152E-01 -0.1736728E-06  0.0000000E+00 -0.1017968E-04
  0.7020202E+00  0.0000000E+00  0.1515152E-01 -0.1733872E-06  0.0000000E+00 -0.1029668E-04
  0.7121212E+00  0.0000000E+00  0.1515152E-01 -0.1722987E-06  0.0000000E+00 -0.1041319E-04
  0.7222222E+00  0.0000000E+00  0.1515152E-01 -0.1704596E-06  0.0000000E+00 -0.1052869E-04
  0.7323232E+00  0.0000000E+00  0.1515152E-01 -0.1679253E-06  0.0000000E+00 -0.1064270E-04
  0.7424242E+00  0.0000000E+00  0.1515152E-01 -0.1647533E-06  0.0000000E+00 -0.1075476E-04
  0.7525253E+00  0.0000000E+00  0.1515152E-01 -0.1610015E-06  0.0000000E+00 -0.1086447E-04
  0.7626263E+00  0.0000000E+00  0.1515152E-01 -0.1567274E-06  0.0000000E+00 -0.1097146E-04
  0.7727273E+00  0.0000000E+00  0.1515152E-01 -0.1519871E-06  0.0000000E+00 -0.1107540E-04
  0.7828283E+00  0.0000000E+00  0.1515152E-01 -0.1468347E-06  0.0000000E+00 -0.1117599E-04
  0.7929293E+00  0.0000000E+00  0.1515152E-01 -0.1413212E-06  0.0000000E+00 -0.1127297E-04
  0.8030303E+00  0.0000000E+00  0.1515152E-01 -0.1354947E-06  0.0000000E+00 -0.1136611E-04
  0.8131313E+00  0.0000000E+00  0.1515152E-01 -0.1293998E-06  0.0000000E+00 -0.1145524E-04
  0.8232324E+00  0.0000000E+00  0.1515152E-01 -0.1230771E-06  0.0000000E+00 -0.1154017E-04
  0.8333333E+00  0.0000000E+00  0.1515152E-01 -0.1165637E-06  0.0000000E+00 -0.1162077E-04
  0.8434343E+00  0.0000000E+00  0.1515152E-01 -0.1098928E-06  0.0000000E+00 -0.1169693E-04
  0.8535354E+00  0.0000000E+00  0.1515152E-01 -0.1030937E-06  0.0000000E+00 -0.1176855E-04
  0.8636364E+00  0.0000000E+00  0.1515152E-01 -0.9619230E-07  0.0000000E+00 -0.1183555E-04
  0.8737374E+00  0.0000000E+00  0.1515152E-01 -0.8921092E-07  0.0000000E+00 -0.1189788E-04
  0.8838384E+00  0.0000000E+00  0.1515152E-01 -0.8216863E-07  0.0000000E+00 -0.1195549E-04
  0.8939394E+00  0.0000000E+00  0.1515152E-01 -0.7508144E-07  0.0000000E+00 -0.1200835E-04
  0.9040404E+00  0.0000000E+00  0.1515152E-01 -0.6796256E-07  0.0000000E+00 -0.1205642E-04
  0.9141414E+00  0.0000000E+00  0.1515152E-01 -0.6082261E-07  0.0000000E+00 -0.1209971E-04
  0.9242424E+00  0.0000000E+00  0.1515152E-01 -0.5366994E-07  0.0000000E+00 -0.1213818E-04
  0.9343435E+00  0.0000000E+00  0.1515152E-01 -0.4651079E-07  0.0000000E+00 -0.1217184E-04
  0.9444444E+00  0.0000000E+00  0.1515152E-01 -0.3934963E-07  0.0000000E+00 -0.1220069E-04
  0.9545454E+00  0.0000000E+00  0.1515152E-01 -0.3218937E-07  0.0000000E+00 -0.1222473E-04
  0.9646465E+00  0.0000000E+00  0.1515152E-01 -0.2503160E-07  0.0000000E+00 -0.1224396E-04
  0.9747475E+00  0.0000000E+00  0.1515152E-01 -0.1787685E-07  0.0000000E+00 -0.1225837E-04
  0.9848485E+00  0.0000000E+00  0.1515152E-01 -0.1072485E-07  0.0000000E+00 -0.1226798E-04
  0.9974747E+00  0.0000000E+00  0.1515152E-01 -0.3574732E-08  0.0000000E+00 -0.1227279E-04
  0.5050505E-02  0.0000000E+00  0.2525252E-01  0.6889348E-08  0.0000000E+00 -0.1199494E-04
  0.1515152E-01  0.0000000E+00  0.2525252E-01  0.2066685E-07  0.0000000E+00 -0.1198930E-04
  0.2525252E-01  0.0000000E+00  0.2525252E-01  0.3444038E-07  0.0000000E+00 -0.1197804E-04
  0.3535353E-01  0.0000000E+00  0.2525252E-01  0.4820611E-07  0.0000000E+00 -0.1196114E-04
  0.4545455E-01  0.0000000E+00  0.2525252E-01  0.6195850E-07  0.0000000E+00 -0.1193862E-04
  0.5555556E-01  0.0000000E+00  0.2525252E-01  0.7568955E-07  0.0000000E+00 -0.1191047E-04
  0.6565657E-01  0.0000000E+00  0.2525252E-01  0.8938811E-07  0.0000000E+00 -0.1187670E-04
  0.7575758E-01  0.0000000E+00  0.2525252E-01  0.1030392E-06  0.0000000E+00 -0.1183733E-04
  0.8585858E-01  0.0000000E+00  0.2525252E-01  0.1166233E-06  0.0000000E+00 -0.1179238E-04
  0.9595960E-01  0.0000000E+00  0.2525252E-01  0.1301157E-06  0.0000000E+00 -0.1174187E-04
  0.1060606E+00  0.0000000E+00  0.2525252E-01  0.1434859E-06  0.0000000E+00 -0.1168584E-04
  0.1161616E+00  0.0000000E+00  0.2525252E-01  0.1566969E-06  0.0000000E+00 -0.1162435E-04
  0.1262626E+00  0.0000000E+00  0.2525252E-01  0.1697048E-06  0.0000000E+00 -0.1155746E-04
  0.1363636E+00  0.0000000E+00  0.2525252E-01  0.1824583E-06  0.0000000E+00 -0.1148525E-04
  0.1464646E+00  0.0000000E+00  0.2525252E-01  0.1948984E-06  0.0000000E+00 -0.1140785E-04
  0.1565657E+00  0.0000000E+00  0.2525252E-01  0.2069581E-06  0.0000000E+00 -0.1132538E-04
  0.1666667E+00  0.0000000E+00  0.2525252E-01  0.2185628E-06  0.0000000E+00 -0.1123802E-04
  0.1767677E+00  0.0000000E+00  0.2525252E-01  0.2296302E-06  0.0000000E+00 -0.1114594E-04
  0.1868687E+00  0.0000000E+00  0.2525252E-01  0.2400709E-06  0.0000000E+00 -0.1104940E-04
  0.1969697E+00  0.0000000E+00  0.2525252E-01  0.2497892E-06  0.0000000E+00 -0.1094866E-04
  0.2070707E+00  0.0000000E+00  0.2525252E-01  0.2586845E-06  0.0000000E+00 -0.1084403E-04
  0.2171717E+00  0.0000000E+00  0.2525252E-01  0.2666527E-06  0.0000000E+00 -0.1073587E-04
  0.2272727E+00  0.0000000E+00  0.2525252E-01  0.2735879E-06  0.0000000E+00 -0.1062459E-04
  0.2373737E+00  0.0000000E+00  0.2525252E-01  0.2793848E-06  0.0000000E+00 -0.1051062E-04
  0.2474747E+00  0.0000000E+00  0.2525252E-01  0.2839415E-06  0.0000000E+00 -0.1039446E-04
  0.2575758E+00  0.0000000E+00  0.2525252E-01  0.2871620E-06  0.0000000E+00 -0.1027664E-04
  0.2676768E+00  0.0000000E+00  0.2525252E-01  0.2889590E-06  0.0000000E+00 -0.1015774E-04
  0.2777778E+00  0.0000000E+00  0.2525252E-01  0.2892574E-06  0.0000000E+00 -0.1003837E-04
  0.2878788E+00  0.0000000E+00  0.2525252E-01  0.2879965E-06  0.0000000E+00 -0.9919155E-05
  0.2979798E+00  0.0000000E+00  0.2525252E-01  0.2851330E-06  0.0000000E+00 -0.9800768E-05
  0.3080808E+00  0.0000000E+00  0.2525252E-01  0.2806423E-06  0.0000000E+00 -0.9683883E-05
  0.3181818E+00  0.0000000E+00  0.2525252E-01  0.2745204E-06  0.0000000E+00 -0.9569182E-05
  0.3282828E+00  0.0000000E+00  0.2525252E-01  0.2667840E-06  0.0000000E+00 -0.9457345E-05
  0.3383838E+00  0.0000000E+00  0.2525252E-01  0.2574699E-06  0.0000000E+00 -0.9349042E-05
  0.3484848E+00  0.0000000E+00  0.2525252E-01  0.2466341E-06  0.0000000E+00 -0.9244918E-05
  0.3585859E+00  0.0000000E+00  0.2525252E-01  0.2343489E-06  0.0000000E+00 -0.9145593E-05
  0.3686869E+00  0.0000000E+00  0.2525252E-01  0.2207006E-06  0.0000000E+00 -0.9051650E-05
  0.3787879E+00  0.0000000E+00  0.2525252E-01  0.2057859E-06  0.0000000E+00 -0.8963632E-05
  0.3888889E+00  0.0000000E+00  0.2525252E-01  0.1897085E-06  0.0000000E+00 -0.8882040E-05
  0.3989899E+00  0.0000000E+00  0.2525252E-01  0.1725758E-06  0.0000000E+00 -0.8807327E-05
  0.4090909E+00  0.0000000E+00  0.2525252E-01  0.1544958E-06  0.0000000E+00 -0.8739899E-05
  0.4191919E+00  0.0000000E+00  0.2525252E-01  0.1355750E-06  0.0000000E+00 -0.8680120E-05
  0.4292929E+00  0.0000000E+00  0.2525252E-01  0.1159171E-06  0.0000000E+00 -0.8628307E-05
  0.4393939E+00  0.0000000E+00  0.2525252E-01  0.9562265E-07  0.0000000E+00 -0.8584737E-05
  0.4494950E+00  0.0000000E+00  0.2525252E-01  0.7478931E-07  0.0000000E+00 -0.8549647E-05
  0.4595959E+00  0.0000000E+00  0.2525252E-01  0.5351330E-07  0.0000000E+00 -0.8523236E-05
  0.4696970E+00  0.0000000E+00  0.2525252E-01  0.3189121E-07  0.0000000E+00 -0.8505664E-05
  0.4797980E+00  0.0000000E+00  0.2525252E-01  0.1002217E-07  0.0000000E+00 -0.8497054E-05
  0.4898990E+00  0.0000000E+00  0.2525252E-01 -0.1198994E-07  0.0000000E+00 -0.8497489E-05
  0.5000000E+00  0.0000000E+00  0.2525252E-01 -0.3403458E-07  0.0000000E+00 -0.8507010E-05
  0.5101010E+00  0.0000000E+00  0.2525252E-01 -0.5599319E-07  0.0000000E+00 -0.8525611E-05
  0.5202020E+00  0.0000000E+00  0.2525252E-01 -0.7773865E-07  0.0000000E+00 -0.8553238E-05
  0.5303030E+00  0.0000000E+00  0.2525252E-01 -0.9913555E-07  0.0000000E+00 -0.8589782E-05
  0.5404040E+00  0.0000000E+00  0.2525252E-01 -0.1200415E-06  0.0000000E+00 -0.8635074E-05
  0.5505050E+00  0.0000000E+00  0.2525252E-01 -0.1403093E-06  0.0000000E+00 -0.8688888E-05
  0.5606061E+00  0.0000000E+00  0.2525252E-01 -0.1597898E-06  0.0000000E+00 -0.8750932E-05
  0.5707071E+00  0.0000000E+00  0.2525252E-01 -0.1783360E-06  0.0000000E+00 -0.8820852E-05
  0.5808081E+00  0.0000000E+00  0.2525252E-01 -0.1958062E-06  0.0000000E+00 -0.8898231E-05
  0.5909091E+00  0.0000000E+00  0.2525252E-01 -0.2120685E-06  0.0000000E+00 -0.8982594E-05
  0.6010101E+00  0.0000000E+00  0.2525252E-01 -0.2270044E-06  0.0000000E+00 -0.9073411E-05
  0.6111111E+00  0.0000000E+00  0.2525252E-01 -0.2405121E-06  0.0000000E+00 -0.9170107E-05
  0.6212121E+00  0.0000000E+00  0.2525252E-01 -0.2525089E-06  0.0000000E+00 -0.9272066E-05
  0.6313131E+00  0.0000000E+00  0.2525252E-01 -0.2629334E-06  0.0000000E+00 -0.9378640E-05
  0.6414142E+00  0.0000000E+00  0.2525252E-01 -0.2717458E-06  0.0000000E+00 -0.9489162E-05
  0.6515151E+00  0.0000000E+00  0.2525252E-01 -0.2789288E-06  0.0000000E+00 -0.9602953E-05
  0.6616161E+00  0.0000000E+00  0.2525252E-01 -0.2844863E-06  0.0000000E+00 -0.9719332E-05
  0.6717172E+00  0.0000000E+00  0.2525252E-01 -0.2884421E-06  0.0000000E+00 -0.9837624E-05
  0.6818182E+00  0.0000000E+00  0.2525252E-01 -0.2908383E-06  0.0000000E+00 -0.9957170E-05
  0.6919192E+00  0.0000000E+00  0.2525252E-01 -0.2917326E-06  0.0000000E+00 -0.1007733E-04
  0.7020202E+00  0.0000000E+00  0.2525252E-01 -0.2911958E-06  0.0000000E+00 -0.1019751E-04
  0.7121212E+00  0.0000000E+00  0.2525252E-01 -0.2893095E-06  0.0000000E+00 -0.1031711E-04
  0.7222222E+00  0.0000000E+00  0.2525252E-01 -0.2861628E-06  0.0000000E+00 -0.1043561E-04
  0.7323232E+00  0.0000000E+00  0.2525252E-01 -0.2818504E-06  0.0000000E+00 -0.1055251E-04
  0.7424242E+00  0.0000000E+00  0.2525252E-01 -0.2764697E-06  0.0000000E+00 -0.1066734E-04
  0.7525253E+00  0.0000000E+00  0.2525252E-01 -0.2701192E-06  0.0000000E+00 -0.1077970E-04
  0.7626263E+00  0.0000000E+00  0.2525252E-01 -0.2628961E-06  0.0000000E+00 -0.1088921E-04
  0.7727273E+00  0.0000000E+00  0.2525252E-01 -0.2548954E-06  0.0000000E+00 -0.1099552E-04
  0.7828283E+00  0.0000000E+00  0.2525252E-01 -0.2462080E-06  0.0000000E+00 -0.1109836E-04
  0.7929293E+00  0.0000000E+00  0.2525252E-01 -0.2369203E-06  0.0000000E+00 -0.1119746E-04
  0.8030303E+00  0.0000000E+00  0.2525252E-01 -0.2271130E-06  0.0000000E+00 -0.1129259E-04
  0.8131313E+00  0.0000000E+00  0.2525252E-01 -0.2168608E-06  0.0000000E+00 -0.1138356E-04
  0.8232324E+00  0.0000000E+00  0.2525252E-01 -0.2062322E-06  0.0000000E+00 -0.1147022E-04
  0.8333333E+00  0.0000000E+00  0.2525252E-01 -0.1952891E-06  0.0000000E+00 -0.1155242E-04
  0.8434343E+00  0.0000000E+00  0.2525252E-01 -0.1840869E-06  0.0000000E+00 -0.1163006E-04
  0.8535354E+00  0.0000000E+00  0.2525252E-01 -0.1726748E-06  0.0000000E+00 -0.1170304E-04
  0.8636364E+00  0.0000000E+00  0.2525252E-01 -0.1610958E-06  0.0000000E+00 -0.1177129E-04
  0.8737374E+00  0.0000000E+00  0.2525252E-01 -0.1493870E-06  0.0000000E+00 -0.1183476E-04
  0.8838384E+00  0.0000000E+00  0.2525252E-01 -0.1375802E-06  0.0000000E+00 -0.1189340E-04
  0.8939394E+00  0.0000000E+00  0.2525252E-01 -0.1257017E-06  0.0000000E+00 -0.1194719E-04
  0.9040404E+00  0.0000000E+00  0.2525252E-01 -0.1137734E-06  0.0000000E+00 -0.1199611E-04
  0.9141414E+00  0.0000000E+00  0.2525252E-01 -0.1018129E-06  0.0000000E+00 -0.1204013E-04
  0.9242424E+00  0.0000000E+00  0.2525252E-01 -0.8983364E-07  0.0000000E+00 -0.1207926E-04
  0.9343435E+00  0.0000000E+00  0.2525252E-01 -0.7784589E-07  0.0000000E+00 -0.1211348E-04
  0.9444444E+00  0.0000000E+00  0.2525252E-01 -0.6585678E-07  0.0000000E+00 -0.1214281E-04
  0.9545454E+00  0.0000000E+00  0.2525252E-01 -0.5387085E-07  0.0000000E+00 -0.1216724E-04
  0.9646465E+00  0.0000000E+00  0.2525252E-01 -0.4189047E-07  0.0000000E+00 -0.1218678E-04
  0.9747475E+00  0.0000000E+00  0.2525252E-01 -0.2991622E-07  0.0000000E+00 -0.1220143E-04
  0.9848485E+00  0.0000000E+00  0.2525252E-01 -0.1794732E-07  0.0000000E+00 -0.1221120E-04
  0.9974747E+00  0.0000000E+00  0.2525252E-01 -0.5982022E-08  0.0000000E+00 -0.1221608E-04
  0.5050505E-02  0.0000000E+00  0.3535353E-01  0.9719443E-08  0.0000000E+00 -0.1190638E-04
  0.1515152E-01  0.0000000E+00  0.3535353E-01  0.2915719E-07  0.0000000E+00 -0.1190059E-04
  0.2525252E-01  0.0000000E+00  0.3535353E-01  0.4859097E-07  0.0000000E+00 -0.1188903E-04
  0.3535353E-01  0.0000000E+00  0.3535353E-01  0.6801650E-07  0.0000000E+00 -0.1187167E-04
  0.4545455E-01  0.0000000E+00  0.3535353E-01  0.8742703E-07  0.0000000E+00 -0.1184853E-04
  0.5555556E-01  0.0000000E+00  0.3535353E-01  0.1068124E-06  0.0000000E+00 -0.1181961E-04
  0.6565657E-01  0.0000000E+00  0.3535353E-01  0.1261578E-06  0.0000000E+00 -0.1178490E-04
  0.7575758E-01  0.0000000E+00  0.3535353E-01  0.1454433E-06  0.0000000E+00 -0.1174442E-04
  0.8585858E-01  0.0000000E+00  0.3535353E-01  0.1646424E-06  0.0000000E+00 -0.1169818E-04
  0.9595960E-01  0.0000000E+00  0.3535353E-01  0.1837210E-06  0.0000000E+00 -0.1164621E-04
  0.1060606E+00  0.0000000E+00  0.3535353E-01  0.2026370E-06  0.0000000E+00 -0.1158852E-04
  0.1161616E+00  0.0000000E+00  0.3535353E-01  0.2213389E-06  0.0000000E+00 -0.1152517E-04
  0.1262626E+00  0.0000000E+00  0.3535353E-01  0.2397653E-06  0.0000000E+00 -0.1145622E-04
  0.1363636E+00  0.0000000E+00  0.3535353E-01  0.2578444E-06  0.0000000E+00 -0.1138175E-04
  0.1464646E+00  0.0000000E+00  0.3535353E-01  0.2754929E-06  0.0000000E+00 -0.1130186E-04
  0.1565657E+00  0.0000000E+00  0.3535353E-01  0.2926163E-06  0.0000000E+00 -0.1121668E-04
  0.1666667E+00  0.0000000E+00  0.3535353E-01  0.3091086E-06  0.0000000E+00 -0.1112637E-04
  0.1767677E+00  0.0000000E+00  0.3535353E-01  0.3248529E-06  0.0000000E+00 -0.1103112E-04
  0.1868687E+00  0.0000000E+00  0.3535353E-01  0.3397215E-06  0.0000000E+00 -0.1093116E-04
  0.1969697E+00  0.0000000E+00  0.3535353E-01  0.3535777E-06  0.0000000E+00 -0.1082677E-04
  0.2070707E+00  0.0000000E+00  0.3535353E-01  0.3662771E-06  0.0000000E+00 -0.1071826E-04
  0.2171717E+00  0.0000000E+00  0.3535353E-01  0.3776696E-06  0.0000000E+00 -0.1060600E-04
  0.2272727E+00  0.0000000E+00  0.3535353E-01  0.3876026E-06  0.0000000E+00 -0.1049040E-04
  0.2373737E+00  0.0000000E+00  0.3535353E-01  0.3959236E-06  0.0000000E+00 -0.1037192E-04
  0.2474747E+00  0.0000000E+00  0.3535353E-01  0.4024845E-06  0.0000000E+00 -0.1025106E-04
  0.2575758E+00  0.0000000E+00  0.3535353E-01  0.4071455E-06  0.0000000E+00 -0.1012840E-04
  0.2676768E+00  0.0000000E+00  0.3535353E-01  0.4097794E-06  0.0000000E+00 -0.1000453E-04
  0.2777778E+00  0.0000000E+00  0.3535353E-01  0.4102760E-06  0.0000000E+00 -0.9880096E-05
  0.2878788E+00  0.0000000E+00  0.3535353E-01  0.4085463E-06  0.0000000E+00 -0.9755775E-05
  0.2979798E+00  0.0000000E+00  0.3535353E-01  0.4045266E-06  0.0000000E+00 -0.9632272E-05