title = "dataset water"
variables = "x", "y", "z", "vx", "vy", "vz"
zone t = "velocities, solution time =  1.400E+01 days        " i =   99, j =   99, k =    1,  f=point
  0.5050505E-02  0.0000000E+00  0.5050505E-02  0.5801303E-11  0.0000000E+00 -0.3199483E-04
  0.1515152E-01  0.0000000E+00  0.5050505E-02  0.1739995E-10  0.0000000E+00 -0.3199481E-04
  0.2525252E-01  0.0000000E+00  0.5050505E-02  0.2895005E-10  0.0000000E+00 -0.3199476E-04
  0.3535353E-01  0.0000000E+00  0.5050505E-02  0.4041561E-10  0.0000000E+00 -0.3199469E-04
  0.4545455E-01  0.0000000E+00  0.5050505E-02  0.5176400E-10  0.0000000E+00 -0.3199460E-04
  0.5555556E-01  0.0000000E+00  0.5050505E-02  0.6296149E-10  0.0000000E+00 -0.3199448E-04
  0.6565657E-01  0.0000000E+00  0.5050505E-02  0.7397365E-10  0.0000000E+00 -0.3199435E-04
  0.7575758E-01  0.0000000E+00  0.5050505E-02  0.8476529E-10  0.0000000E+00 -0.3199419E-04
  0.8585858E-01  0.0000000E+00  0.5050505E-02  0.9530103E-10  0.0000000E+00 -0.3199401E-04
  0.9595960E-01  0.0000000E+00  0.5050505E-02  0.1055446E-09  0.0000000E+00 -0.3199380E-04
  0.1060606E+00  0.0000000E+00  0.5050505E-02  0.1154592E-09  0.0000000E+00 -0.3199358E-04
  0.1161616E+00  0.0000000E+00  0.5050505E-02  0.1250075E-09  0.0000000E+00 -0.3199334E-04
  0.1262626E+00  0.0000000E+00  0.5050505E-02  0.1341517E-09  0.0000000E+00 -0.3199308E-04
  0.1363636E+00  0.0000000E+00  0.5050505E-02  0.1428534E-09  0.0000000E+00 -0.3199280E-04
  0.1464646E+00  0.0000000E+00  0.5050505E-02  0.1510741E-09  0.0000000E+00 -0.3199251E-04
  0.1565657E+00  0.0000000E+00  0.5050505E-02  0.1587752E-09  0.0000000E+00 -0.3199220E-04
  0.1666667E+00  0.0000000E+00  0.5050505E-02  0.1659181E-09  0.0000000E+00 -0.3199187E-04
  0.1767677E+00  0.0000000E+00  0.5050505E-02  0.1724645E-09  0.0000000E+00 -0.3199153E-04
  0.1868687E+00  0.0000000E+00  0.5050505E-02  0.1783767E-09  0.0000000E+00 -0.3199118E-04
  0.1969697E+00  0.0000000E+00  0.5050505E-02  0.1836180E-09  0.0000000E+00 -0.3199082E-04
  0.2070707E+00  0.0000000E+00  0.5050505E-02  0.1881527E-09  0.0000000E+00 -0.3199044E-04
  0.2171717E+00  0.0000000E+00  0.5050505E-02  0.1919469E-09  0.0000000E+00 -0.3199006E-04
  0.2272727E+00  0.0000000E+00  0.5050505E-02  0.1949684E-09  0.0000000E+00 -0.3198967E-04
  0.2373737E+00  0.0000000E+00  0.5050505E-02  0.1971874E-09  0.0000000E+00 -0.3198928E-04
  0.2474747E+00  0.0000000E+00  0.5050505E-02  0.1985769E-09  0.0000000E+00 -0.3198888E-04
  0.2575758E+00  0.0000000E+00  0.5050505E-02  0.1991129E-09  0.0000000E+00 -0.3198848E-04
  0.2676768E+00  0.0000000E+00  0.5050505E-02  0.1987750E-09  0.0000000E+00 -0.3198808E-04
  0.2777778E+00  0.0000000E+00  0.5050505E-02  0.1975467E-09  0.0000000E+00 -0.3198769E-04
  0.2878788E+00  0.0000000E+00  0.5050505E-02  0.1954159E-09  0.0000000E+00 -0.3198729E-04
  0.2979798E+00  0.0000000E+00  0.5050505E-02  0.1923751E-09  0.0000000E+00 -0.3198690E-04
  0.3080808E+00  0.0000000E+00  0.5050505E-02  0.1884218E-09  0.0000000E+00 -0.3198652E-04
  0.3181818E+00  0.0000000E+00  0.5050505E-02  0.1835588E-09  0.0000000E+00 -0.3198615E-04
  0.3282828E+00  0.0000000E+00  0.5050505E-02  0.1777946E-09  0.0000000E+00 -0.3198578E-04
  0.3383838E+00  0.0000000E+00  0.5050505E-02  0.1711431E-09  0.0000000E+00 -0.3198543E-04
  0.3484848E+00  0.0000000E+00  0.5050505E-02  0.1636246E-09  0.0000000E+00 -0.3198510E-04
  0.3585859E+00  0.0000000E+00  0.5050505E-02  0.1552649E-09  0.0000000E+00 -0.3198478E-04
  0.3686869E+00  0.0000000E+00  0.5050505E-02  0.1460962E-09  0.0000000E+00 -0.3198447E-04
  0.3787879E+00  0.0000000E+00  0.5050505E-02  0.1361563E-09  0.0000000E+00 -0.3198419E-04
  0.3888889E+00  0.0000000E+00  0.5050505E-02  0.1254891E-09  0.0000000E+00 -0.3198393E-04
  0.3989899E+00  0.0000000E+00  0.5050505E-02  0.1141438E-09  0.0000000E+00 -0.3198369E-04
  0.4090909E+00  0.0000000E+00  0.5050505E-02  0.1021754E-09  0.0000000E+00 -0.3198347E-04
  0.4191919E+00  0.0000000E+00  0.5050505E-02  0.8964329E-10  0.0000000E+00 -0.3198328E-04
  0.4292929E+00  0.0000000E+00  0.5050505E-02  0.7661191E-10  0.0000000E+00 -0.3198311E-04
  0.4393939E+00  0.0000000E+00  0.5050505E-02  0.6314955E-10  0.0000000E+00 -0.3198297E-04
  0.4494950E+00  0.0000000E+00  0.5050505E-02  0.4932813E-10  0.0000000E+00 -0.3198286E-04
  0.4595959E+00  0.0000000E+00  0.5050505E-02  0.3522247E-10  0.0000000E+00 -0.3198277E-04
  0.4696970E+00  0.0000000E+00  0.5050505E-02  0.2090975E-10  0.0000000E+00 -0.3198272E-04
  0.4797980E+00  0.0000000E+00  0.5050505E-02  0.6468793E-11  0.0000000E+00 -0.3198269E-04
  0.4898990E+00  0.0000000E+00  0.5050505E-02 -0.8020702E-11  0.0000000E+00 -0.3198269E-04
  0.5000000E+00  0.0000000E+00  0.5050505E-02 -0.2247863E-10  0.0000000E+00 -0.3198272E-04
  0.5101010E+00  0.0000000E+00  0.5050505E-02 -0.3682548E-10  0.0000000E+00 -0.3198278E-04
  0.5202020E+00  0.0000000E+00  0.5050505E-02 -0.5098287E-10  0.0000000E+00 -0.3198287E-04
  0.5303030E+00  0.0000000E+00  0.5050505E-02 -0.6487423E-10  0.0000000E+00 -0.3198298E-04
  0.5404040E+00  0.0000000E+00  0.5050505E-02 -0.7842559E-10  0.0000000E+00 -0.3198313E-04
  0.5505050E+00  0.0000000E+00  0.5050505E-02 -0.9156610E-10  0.0000000E+00 -0.3198330E-04
  0.5606061E+00  0.0000000E+00  0.5050505E-02 -0.1042284E-09  0.0000000E+00 -0.3198350E-04
  0.5707071E+00  0.0000000E+00  0.5050505E-02 -0.1163498E-09  0.0000000E+00 -0.3198372E-04
  0.5808081E+00  0.0000000E+00  0.5050505E-02 -0.1278719E-09  0.0000000E+00 -0.3198396E-04
  0.5909091E+00  0.0000000E+00  0.5050505E-02 -0.1387414E-09  0.0000000E+00 -0.3198423E-04
  0.6010101E+00  0.0000000E+00  0.5050505E-02 -0.1489106E-09  0.0000000E+00 -0.3198452E-04
  0.6111111E+00  0.0000000E+00  0.5050505E-02 -0.1583373E-09  0.0000000E+00 -0.3198483E-04
  0.6212121E+00  0.0000000E+00  0.5050505E-02 -0.1669851E-09  0.0000000E+00 -0.3198515E-04
  0.6313131E+00  0.0000000E+00  0.5050505E-02 -0.1748236E-09  0.0000000E+00 -0.3198550E-04
  0.6414142E+00  0.0000000E+00  0.5050505E-02 -0.1818283E-09  0.0000000E+00 -0.3198586E-04
  0.6515151E+00  0.0000000E+00  0.5050505E-02 -0.1879807E-09  0.0000000E+00 -0.3198623E-04
  0.6616161E+00  0.0000000E+00  0.5050505E-02 -0.1932678E-09  0.0000000E+00 -0.3198661E-04
  0.6717172E+00  0.0000000E+00  0.5050505E-02 -0.1976827E-09  0.0000000E+00 -0.3198700E-04
  0.6818182E+00  0.0000000E+00  0.5050505E-02 -0.2012234E-09  0.0000000E+00 -0.3198740E-04
  0.6919192E+00  0.0000000E+00  0.5050505E-02 -0.2038935E-09  0.0000000E+00 -0.3198781E-04
  0.7020202E+00  0.0000000E+00  0.5050505E-02 -0.2057010E-09  0.0000000E+00 -0.3198822E-04
  0.7121212E+00  0.0000000E+00  0.5050505E-02 -0.2066588E-09  0.0000000E+00 -0.3198863E-04
  0.7222222E+00  0.0000000E+00  0.5050505E-02 -0.2067836E-09  0.0000000E+00 -0.3198905E-04
  0.7323232E+00  0.0000000E+00  0.5050505E-02 -0.2060959E-09  0.0000000E+00 -0.3198946E-04
  0.7424242E+00  0.0000000E+00  0.5050505E-02 -0.2046195E-09  0.0000000E+00 -0.3198988E-04
  0.7525253E+00  0.0000000E+00  0.5050505E-02 -0.2023810E-09  0.0000000E+00 -0.3199028E-04
  0.7626263E+00  0.0000000E+00  0.5050505E-02 -0.1994095E-09  0.0000000E+00 -0.3199069E-04
  0.7727273E+00  0.0000000E+00  0.5050505E-02 -0.1957361E-09  0.0000000E+00 -0.3199108E-04
  0.7828283E+00  0.0000000E+00  0.5050505E-02 -0.1913937E-09  0.0000000E+00 -0.3199147E-04
  0.7929293E+00  0.0000000E+00  0.5050505E-02 -0.1864162E-09  0.0000000E+00 -0.3199185E-04
  0.8030303E+00  0.0000000E+00  0.5050505E-02 -0.1808385E-09  0.0000000E+00 -0.3199222E-04
  0.8131313E+00  0.0000000E+00  0.5050505E-02 -0.1746961E-09  0.0000000E+00 -0.3199258E-04
  0.8232324E+00  0.0000000E+00  0.5050505E-02 -0.1680247E-09  0.0000000E+00 -0.3199292E-04
  0.8333333E+00  0.0000000E+00  0.5050505E-02 -0.1608598E-09  0.0000000E+00 -0.3199325E-04
  0.8434343E+00  0.0000000E+00  0.5050505E-02 -0.1532369E-09  0.0000000E+00 -0.3199357E-04
  0.8535354E+00  0.0000000E+00  0.5050505E-02 -0.1451908E-09  0.0000000E+00 -0.3199387E-04
  0.8636364E+00  0.0000000E+00  0.5050505E-02 -0.1367555E-09  0.0000000E+00 -0.3199415E-04
  0.8737374E+00  0.0000000E+00  0.5050505E-02 -0.1279644E-09  0.0000000E+00 -0.3199442E-04
  0.8838384E+00  0.0000000E+00  0.5050505E-02 -0.1188497E-09  0.0000000E+00 -0.3199466E-04
  0.8939394E+00  0.0000000E+00  0.5050505E-02 -0.1094427E-09  0.0000000E+00 -0.3199489E-04
  0.9040404E+00  0.0000000E+00  0.5050505E-02 -0.9977370E-10  0.0000000E+00 -0.3199510E-04
  0.9141414E+00  0.0000000E+00  0.5050505E-02 -0.8987170E-10  0.0000000E+00 -0.3199529E-04
  0.9242424E+00  0.0000000E+00  0.5050505E-02 -0.7976471E-10  0.0000000E+00 -0.3199546E-04
  0.9343435E+00  0.0000000E+00  0.5050505E-02 -0.6947967E-10  0.0000000E+00 -0.3199561E-04
  0.9444444E+00  0.0000000E+00  0.5050505E-02 -0.5904254E-10  0.0000000E+00 -0.3199574E-04
  0.9545454E+00  0.0000000E+00  0.5050505E-02 -0.4847839E-10  0.0000000E+00 -0.3199585E-04
  0.9646465E+00  0.0000000E+00  0.5050505E-02 -0.3781150E-10  0.0000000E+00 -0.3199594E-04
  0.9747475E+00  0.0000000E+00  0.5050505E-02 -0.2706554E-10  0.0000000E+00 -0.3199600E-04
  0.9848485E+00  0.0000000E+00  0.5050505E-02 -0.1626379E-10  0.0000000E+00 -0.3199605E-04
  0.9974747E+00  0.0000000E+00  0.5050505E-02 -0.5429579E-11  0.0000000E+00 -0.3199607E-04
  0.5050505E-02  0.0000000E+00  0.1515152E-01  0.1748392E-10  0.0000000E+00 -0.3189676E-04
  0.1515152E-01  0.0000000E+00  0.1515152E-01  0.5243184E-10  0.0000000E+00 -0.3189674E-04
  0.2525252E-01  0.0000000E+00  0.1515152E-01  0.8723473E-10  0.0000000E+00 -0.3189669E-04
  0.3535353E-01  0.0000000E+00  0.1515152E-01  0.1217839E-09  0.0000000E+00 -0.3189662E-04
  0.4545455E-01  0.0000000E+00  0.1515152E-01  0.1559810E-09  0.0000000E+00 -0.3189653E-04
  0.5555556E-01  0.0000000E+00  0.1515152E-01  0.1897243E-09  0.0000000E+00 -0.3189641E-04
  0.6565657E-01  0.0000000E+00  0.1515152E-01  0.2229102E-09  0.0000000E+00 -0.3189627E-04
  0.7575758E-01  0.0000000E+00  0.1515152E-01  0.2554329E-09  0.0000000E+00 -0.3189611E-04
  0.8585858E-01  0.0000000E+00  0.1515152E-01  0.2871859E-09  0.0000000E+00 -0.3189592E-04
  0.9595960E-01  0.0000000E+00  0.1515152E-01  0.3180600E-09  0.0000000E+00 -0.3189572E-04
  0.1060606E+00  0.0000000E+00  0.1515152E-01  0.3479444E-09  0.0000000E+00 -0.3189549E-04
  0.1161616E+00  0.0000000E+00  0.1515152E-01  0.3767265E-09  0.0000000E+00 -0.3189525E-04
  0.1262626E+00  0.0000000E+00  0.1515152E-01  0.4042924E-09  0.0000000E+00 -0.3189498E-04
  0.1363636E+00  0.0000000E+00  0.1515152E-01  0.4305267E-09  0.0000000E+00 -0.3189470E-04
  0.1464646E+00  0.0000000E+00  0.1515152E-01  0.4553131E-09  0.0000000E+00 -0.3189440E-04
  0.1565657E+00  0.0000000E+00  0.1515152E-01  0.4785352E-09  0.0000000E+00 -0.3189409E-04
  0.1666667E+00  0.0000000E+00  0.1515152E-01  0.5000765E-09  0.0000000E+00 -0.3189375E-04
  0.1767677E+00  0.0000000E+00  0.1515152E-01  0.5198216E-09  0.0000000E+00 -0.3189341E-04
  0.1868687E+00  0.0000000E+00  0.1515152E-01  0.5376568E-09  0.0000000E+00 -0.3189305E-04
  0.1969697E+00  0.0000000E+00  0.1515152E-01  0.5534710E-09  0.0000000E+00 -0.3189268E-04
  0.2070707E+00  0.0000000E+00  0.1515152E-01  0.5671566E-09  0.0000000E+00 -0.3189230E-04
  0.2171717E+00  0.0000000E+00  0.1515152E-01  0.5786109E-09  0.0000000E+00 -0.3189191E-04
  0.2272727E+00  0.0000000E+00  0.1515152E-01  0.5877367E-09  0.0000000E+00 -0.3189152E-04
  0.2373737E+00  0.0000000E+00  0.1515152E-01  0.5944441E-09  0.0000000E+00 -0.3189112E-04
  0.2474747E+00  0.0000000E+00  0.1515152E-01  0.5986511E-09  0.0000000E+00 -0.3189071E-04
  0.2575758E+00  0.0000000E+00  0.1515152E-01  0.6002852E-09  0.0000000E+00 -0.3189031E-04
  0.2676768E+00  0.0000000E+00  0.1515152E-01  0.5992845E-09  0.0000000E+00 -0.3188990E-04
  0.2777778E+00  0.0000000E+00  0.1515152E-01  0.5955992E-09  0.0000000E+00 -0.3188949E-04
  0.2878788E+00  0.0000000E+00  0.1515152E-01  0.5891921E-09  0.0000000E+00 -0.3188909E-04
  0.2979798E+00  0.0000000E+00  0.1515152E-01  0.5800404E-09  0.0000000E+00 -0.3188870E-04
  0.3080808E+00  0.0000000E+00  0.1515152E-01  0.5681363E-09  0.0000000E+00 -0.3188831E-04
  0.3181818E+00  0.0000000E+00  0.1515152E-01  0.5534881E-09  0.0000000E+00 -0.3188793E-04
  0.3282828E+00  0.0000000E+00  0.1515152E-01  0.5361208E-09  0.0000000E+00 -0.3188756E-04
  0.3383838E+00  0.0000000E+00  0.1515152E-01  0.5160768E-09  0.0000000E+00 -0.3188720E-04
  0.3484848E+00  0.0000000E+00  0.1515152E-01  0.4934163E-09  0.0000000E+00 -0.3188686E-04
  0.3585859E+00  0.0000000E+00  0.1515152E-01  0.4682177E-09  0.0000000E+00 -0.3188653E-04
  0.3686869E+00  0.0000000E+00  0.1515152E-01  0.4405773E-09  0.0000000E+00 -0.3188623E-04
  0.3787879E+00  0.0000000E+00  0.1515152E-01  0.4106097E-09  0.0000000E+00 -0.3188594E-04
  0.3888889E+00  0.0000000E+00  0.1515152E-01  0.3784467E-09  0.0000000E+00 -0.3188567E-04
  0.3989899E+00  0.0000000E+00  0.1515152E-01  0.3442372E-09  0.0000000E+00 -0.3188542E-04
  0.4090909E+00  0.0000000E+00  0.1515152E-01  0.3081464E-09  0.0000000E+00 -0.3188520E-04
  0.4191919E+00  0.0000000E+00  0.1515152E-01  0.2703544E-09  0.0000000E+00 -0.3188501E-04
  0.4292929E+00  0.0000000E+00  0.1515152E-01  0.2310551E-09  0.0000000E+00 -0.3188484E-04
  0.4393939E+00  0.0000000E+00  0.1515152E-01  0.1904548E-09  0.0000000E+00 -0.3188469E-04
  0.4494950E+00  0.0000000E+00  0.1515152E-01  0.1487706E-09  0.0000000E+00 -0.3188458E-04
  0.4595959E+00  0.0000000E+00  0.1515152E-01  0.1062285E-09  0.0000000E+00 -0.3188449E-04
  0.4696970E+00  0.0000000E+00  0.1515152E-01  0.6306132E-10  0.0000000E+00 -0.3188443E-04
  0.4797980E+00  0.0000000E+00  0.1515152E-01  0.1950717E-10  0.0000000E+00 -0.3188441E-04
  0.4898990E+00  0.0000000E+00  0.1515152E-01 -0.2419320E-10  0.0000000E+00 -0.3188441E-04
  0.5000000E+00  0.0000000E+00  0.1515152E-01 -0.6779800E-10  0.0000000E+00 -0.3188444E-04
  0.5101010E+00  0.0000000E+00  0.1515152E-01 -0.1110672E-09  0.0000000E+00 -0.3188450E-04
  0.5202020E+00  0.0000000E+00  0.1515152E-01 -0.1537641E-09  0.0000000E+00 -0.3188459E-04
  0.5303030E+00  0.0000000E+00  0.1515152E-01 -0.1956575E-09  0.0000000E+00 -0.3188471E-04
  0.5404040E+00  0.0000000E+00  0.1515152E-01 -0.2365241E-09  0.0000000E+00 -0.3188485E-04
  0.5505050E+00  0.0000000E+00  0.1515152E-01 -0.2761500E-09  0.0000000E+00 -0.3188503E-04
  0.5606061E+00  0.0000000E+00  0.1515152E-01 -0.3143321E-09  0.0000000E+00 -0.3188523E-04
  0.5707071E+00  0.0000000E+00  0.1515152E-01 -0.3508808E-09  0.0000000E+00 -0.3188545E-04
  0.5808081E+00  0.0000000E+00  0.1515152E-01 -0.3856200E-09  0.0000000E+00 -0.3188570E-04
  0.5909091E+00  0.0000000E+00  0.1515152E-01 -0.4183894E-09  0.0000000E+00 -0.3188598E-04
  0.6010101E+00  0.0000000E+00  0.1515152E-01 -0.4490446E-09  0.0000000E+00 -0.3188627E-04
  0.6111111E+00  0.0000000E+00  0.1515152E-01 -0.4774586E-09  0.0000000E+00 -0.3188659E-04
  0.6212121E+00  0.0000000E+00  0.1515152E-01 -0.5035219E-09  0.0000000E+00 -0.3188692E-04
  0.6313131E+00  0.0000000E+00  0.1515152E-01 -0.5271427E-09  0.0000000E+00 -0.3188727E-04
  0.6414142E+00  0.0000000E+00  0.1515152E-01 -0.5482474E-09  0.0000000E+00 -0.3188763E-04
  0.6515151E+00  0.0000000E+00  0.1515152E-01 -0.5667802E-09  0.0000000E+00 -0.3188801E-04
  0.6616161E+00  0.0000000E+00  0.1515152E-01 -0.5827027E-09  0.0000000E+00 -0.3188840E-04
  0.6717172E+00  0.0000000E+00  0.1515152E-01 -0.5959936E-09  0.0000000E+00 -0.3188880E-04
  0.6818182E+00  0.0000000E+00  0.1515152E-01 -0.6066480E-09  0.0000000E+00 -0.3188921E-04
  0.6919192E+00  0.0000000E+00  0.1515152E-01 -0.6146764E-09  0.0000000E+00 -0.3188962E-04
  0.7020202E+00  0.0000000E+00  0.1515152E-01 -0.6201039E-09  0.0000000E+00 -0.3189004E-04
  0.7121212E+00  0.0000000E+00  0.1515152E-01 -0.6229690E-09  0.0000000E+00 -0.3189046E-04
  0.7222222E+00  0.0000000E+00  0.1515152E-01 -0.6233229E-09  0.0000000E+00 -0.3189088E-04
  0.7323232E+00  0.0000000E+00  0.1515152E-01 -0.6212274E-09  0.0000000E+00 -0.3189130E-04
  0.7424242E+00  0.0000000E+00  0.1515152E-01 -0.6167548E-09  0.0000000E+00 -0.3189172E-04
  0.7525253E+00  0.0000000E+00  0.1515152E-01 -0.6099856E-09  0.0000000E+00 -0.3189214E-04
  0.7626263E+00  0.0000000E+00  0.1515152E-01 -0.6010078E-09  0.0000000E+00 -0.3189255E-04
  0.7727273E+00  0.0000000E+00  0.1515152E-01 -0.5899156E-09  0.0000000E+00 -0.3189295E-04
  0.7828283E+00  0.0000000E+00  0.1515152E-01 -0.5768080E-09  0.0000000E+00 -0.3189335E-04
  0.7929293E+00  0.0000000E+00  0.1515152E-01 -0.5617878E-09  0.0000000E+00 -0.3189373E-04
  0.8030303E+00  0.0000000E+00  0.1515152E-01 -0.5449604E-09  0.0000000E+00 -0.3189411E-04
  0.8131313E+00  0.0000000E+00  0.1515152E-01 -0.5264329E-09  0.0000000E+00 -0.3189447E-04
  0.8232324E+00  0.0000000E+00  0.1515152E-01 -0.5063129E-09  0.0000000E+00 -0.3189482E-04
  0.8333333E+00  0.0000000E+00  0.1515152E-01 -0.4847079E-09  0.0000000E+00 -0.3189516E-04
  0.8434343E+00  0.0000000E+00  0.1515152E-01 -0.4617247E-09  0.0000000E+00 -0.3189548E-04
  0.8535354E+00  0.0000000E+00  0.1515152E-01 -0.4374680E-09  0.0000000E+00 -0.3189578E-04
  0.8636364E+00  0.0000000E+00  0.1515152E-01 -0.4120409E-09  0.0000000E+00 -0.3189607E-04
  0.8737374E+00  0.0000000E+00  0.1515152E-01 -0.3855435E-09  0.0000000E+00 -0.3189634E-04
  0.8838384E+00  0.0000000E+00  0.1515152E-01 -0.3580733E-09  0.0000000E+00 -0.3189659E-04
  0.8939394E+00  0.0000000E+00  0.1515152E-01 -0.3297244E-09  0.0000000E+00 -0.3189682E-04
  0.9040404E+00  0.0000000E+00  0.1515152E-01 -0.3005878E-09  0.0000000E+00 -0.3189704E-04
  0.9141414E+00  0.0000000E+00  0.1515152E-01 -0.2707510E-09  0.0000000E+00 -0.3189723E-04
  0.9242424E+00  0.0000000E+00  0.1515152E-01 -0.2402982E-09  0.0000000E+00 -0.3189740E-04
  0.9343435E+00  0.0000000E+00  0.1515152E-01 -0.2093105E-09  0.0000000E+00 -0.3189755E-04
  0.9444444E+00  0.0000000E+00  0.1515152E-01 -0.1778659E-09  0.0000000E+00 -0.3189768E-04
  0.9545454E+00  0.0000000E+00  0.1515152E-01 -0.1460397E-09  0.0000000E+00 -0.3189779E-04
  0.9646465E+00  0.0000000E+00  0.1515152E-01 -0.1139048E-09  0.0000000E+00 -0.3189788E-04
  0.9747475E+00  0.0000000E+00  0.1515152E-01 -0.8153237E-10  0.0000000E+00 -0.3189795E-04
  0.9848485E+00  0.0000000E+00  0.1515152E-01 -0.4899187E-10  0.0000000E+00 -0.3189799E-04
  0.9974747E+00  0.0000000E+00  0.1515152E-01 -0.1635236E-10  0.0000000E+00 -0.3189801E-04
  0.5050505E-02  0.0000000E+00  0.2525252E-01  0.2941922E-10  0.0000000E+00 -0.3170159E-04
  0.1515152E-01  0.0000000E+00  0.2525252E-01  0.8821109E-10  0.0000000E+00 -0.3170156E-04
  0.2525252E-01  0.0000000E+00  0.2525252E-01  0.1467607E-09  0.0000000E+00 -0.3170151E-04
  0.3535353E-01  0.0000000E+00  0.2525252E-01  0.2048864E-09  0.0000000E+00 -0.3170144E-04
  0.4545455E-01  0.0000000E+00  0.2525252E-01  0.2624225E-09  0.0000000E+00 -0.3170134E-04
  0.5555556E-01  0.0000000E+00  0.2525252E-01  0.3191981E-09  0.0000000E+00 -0.3170122E-04
  0.6565657E-01  0.0000000E+00  0.2525252E-01  0.3750398E-09  0.0000000E+00 -0.3170108E-04
  0.7575758E-01  0.0000000E+00  0.2525252E-01  0.4297701E-09  0.0000000E+00 -0.3170091E-04
  0.8585858E-01  0.0000000E+00  0.2525252E-01  0.4832098E-09  0.0000000E+00 -0.3170072E-04
  0.9595960E-01  0.0000000E+00  0.2525252E-01  0.5351758E-09  0.0000000E+00 -0.3170051E-04
  0.1060606E+00  0.0000000E+00  0.2525252E-01  0.5854819E-09  0.0000000E+00 -0.3170028E-04
  0.1161616E+00  0.0000000E+00  0.2525252E-01  0.6339390E-09  0.0000000E+00 -0.3170002E-04
  0.1262626E+00  0.0000000E+00  0.2525252E-01  0.6803553E-09  0.0000000E+00 -0.3169975E-04
  0.1363636E+00  0.0000000E+00  0.2525252E-01  0.7245366E-09  0.0000000E+00 -0.3169946E-04
  0.1464646E+00  0.0000000E+00  0.2525252E-01  0.7662873E-09  0.0000000E+00 -0.3169915E-04
  0.1565657E+00  0.0000000E+00  0.2525252E-01  0.8054110E-09  0.0000000E+00 -0.3169882E-04
  0.1666667E+00  0.0000000E+00  0.2525252E-01  0.8417113E-09  0.0000000E+00 -0.3169848E-04
  0.1767677E+00  0.0000000E+00  0.2525252E-01  0.8749937E-09  0.0000000E+00 -0.3169812E-04
  0.1868687E+00  0.0000000E+00  0.2525252E-01  0.9050662E-09  0.0000000E+00 -0.3169775E-04
  0.1969697E+00  0.0000000E+00  0.2525252E-01  0.9317410E-09  0.0000000E+00 -0.3169737E-04
  0.2070707E+00  0.0000000E+00  0.2525252E-01  0.9548364E-09  0.0000000E+00 -0.3169698E-04
  0.2171717E+00  0.0000000E+00  0.2525252E-01  0.9741785E-09  0.0000000E+00 -0.3169657E-04
  0.2272727E+00  0.0000000E+00  0.2525252E-01  0.9896031E-09  0.0000000E+00 -0.3169617E-04
  0.2373737E+00  0.0000000E+00  0.2525252E-01  0.1000957E-08  0.0000000E+00 -0.3169575E-04
  0.2474747E+00  0.0000000E+00  0.2525252E-01  0.1008103E-08  0.0000000E+00 -0.3169533E-04
  0.2575758E+00  0.0000000E+00  0.2525252E-01  0.1010916E-08  0.0000000E+00 -0.3169491E-04
  0.2676768E+00  0.0000000E+00  0.2525252E-01  0.1009291E-08  0.0000000E+00 -0.3169449E-04
  0.2777778E+00  0.0000000E+00  0.2525252E-01  0.1003144E-08  0.0000000E+00 -0.3169407E-04
  0.2878788E+00  0.0000000E+00  0.2525252E-01  0.9924103E-09  0.0000000E+00 -0.3169366E-04
  0.2979798E+00  0.0000000E+00  0.2525252E-01  0.9770512E-09  0.0000000E+00 -0.3169325E-04
  0.3080808E+00  0.0000000E+00  0.2525252E-01  0.9570523E-09  0.0000000E+00 -0.3169284E-04
  0.3181818E+00  0.0000000E+00  0.2525252E-01  0.9324265E-09  0.0000000E+00 -0.3169245E-04
  0.3282828E+00  0.0000000E+00  0.2525252E-01  0.9032153E-09  0.0000000E+00 -0.3169207E-04
  0.3383838E+00  0.0000000E+00  0.2525252E-01  0.8694894E-09  0.0000000E+00 -0.3169170E-04
  0.3484848E+00  0.0000000E+00  0.2525252E-01  0.8313495E-09  0.0000000E+00 -0.3169134E-04
  0.3585859E+00  0.0000000E+00  0.2525252E-01  0.7889272E-09  0.0000000E+00 -0.3169100E-04
  0.3686869E+00  0.0000000E+00  0.2525252E-01  0.7423845E-09  0.0000000E+00 -0.3169068E-04
  0.3787879E+00  0.0000000E+00  0.2525252E-01  0.6919140E-09  0.0000000E+00 -0.3169039E-04
  0.3888889E+00  0.0000000E+00  0.2525252E-01  0.6377380E-09  0.0000000E+00 -0.3169011E-04
  0.3989899E+00  0.0000000E+00  0.2525252E-01  0.5801075E-09  0.0000000E+00 -0.3168985E-04
  0.4090909E+00  0.0000000E+00  0.2525252E-01  0.5193009E-09  0.0000000E+00 -0.3168962E-04
  0.4191919E+00  0.0000000E+00  0.2525252E-01  0.4556220E-09  0.0000000E+00 -0.3168942E-04
  0.4292929E+00  0.0000000E+00  0.2525252E-01  0.3893983E-09  0.0000000E+00 -0.3168924E-04
  0.4393939E+00  0.0000000E+00  0.2525252E-01  0.3209780E-09  0.0000000E+00 -0.3168910E-04
  0.4494950E+00  0.0000000E+00  0.2525252E-01  0.2507276E-09  0.0000000E+00 -0.3168898E-04
  0.4595959E+00  0.0000000E+00  0.2525252E-01  0.1790288E-09  0.0000000E+00 -0.3168889E-04
  0.4696970E+00  0.0000000E+00  0.2525252E-01  0.1062750E-09  0.0000000E+00 -0.3168883E-04
  0.4797980E+00  0.0000000E+00  0.2525252E-01  0.3286824E-10  0.0000000E+00 -0.3168880E-04
  0.4898990E+00  0.0000000E+00  0.2525252E-01 -0.4078454E-10  0.0000000E+00 -0.3168880E-04
  0.5000000E+00  0.0000000E+00  0.2525252E-01 -0.1142750E-09  0.0000000E+00 -0.3168883E-04
  0.5101010E+00  0.0000000E+00  0.2525252E-01 -0.1871979E-09  0.0000000E+00 -0.3168890E-04
  0.5202020E+00  0.0000000E+00  0.2525252E-01 -0.2591532E-09  0.0000000E+00 -0.3168899E-04
  0.5303030E+00  0.0000000E+00  0.2525252E-01 -0.3297505E-09  0.0000000E+00 -0.3168911E-04
  0.5404040E+00  0.0000000E+00  0.2525252E-01 -0.3986124E-09  0.0000000E+00 -0.3168926E-04
  0.5505050E+00  0.0000000E+00  0.2525252E-01 -0.4653782E-09  0.0000000E+00 -0.3168944E-04
  0.5606061E+00  0.0000000E+00  0.2525252E-01 -0.5297049E-09  0.0000000E+00 -0.3168965E-04
  0.5707071E+00  0.0000000E+00  0.2525252E-01 -0.5912724E-09  0.0000000E+00 -0.3168989E-04
  0.5808081E+00  0.0000000E+00  0.2525252E-01 -0.6497841E-09  0.0000000E+00 -0.3169014E-04
  0.5909091E+00  0.0000000E+00  0.2525252E-01 -0.7049692E-09  0.0000000E+00 -0.3169043E-04
  0.6010101E+00  0.0000000E+00  0.2525252E-01 -0.7565849E-09  0.0000000E+00 -0.3169073E-04
  0.6111111E+00  0.0000000E+00  0.2525252E-01 -0.8044171E-09  0.0000000E+00 -0.3169106E-04
  0.6212121E+00  0.0000000E+00  0.2525252E-01 -0.8482817E-09  0.0000000E+00 -0.3169140E-04
  0.6313131E+00  0.0000000E+00  0.2525252E-01 -0.8880245E-09  0.0000000E+00 -0.3169176E-04
  0.6414142E+00  0.0000000E+00  0.2525252E-01 -0.9235221E-09  0.0000000E+00 -0.3169214E-04
  0.6515151E+00  0.0000000E+00  0.2525252E-01 -0.9546811E-09  0.0000000E+00 -0.3169253E-04
  0.6616161E+00  0.0000000E+00  0.2525252E-01 -0.9814377E-09  0.0000000E+00 -0.3169294E-04
  0.6717172E+00  0.0000000E+00  0.2525252E-01 -0.1003757E-08  0.0000000E+00 -0.3169335E-04
  0.6818182E+00  0.0000000E+00  0.2525252E-01 -0.1021632E-08  0.0000000E+00 -0.3169377E-04
  0.6919192E+00  0.0000000E+00  0.2525252E-01 -0.1035081E-08  0.0000000E+00 -0.3169420E-04
  0.7020202E+00  0.0000000E+00  0.2525252E-01 -0.1044147E-08  0.0000000E+00 -0.3169463E-04
  0.7121212E+00  0.0000000E+00  0.2525252E-01 -0.1048897E-08  0.0000000E+00 -0.3169507E-04
  0.7222222E+00  0.0000000E+00  0.2525252E-01 -0.1049417E-08  0.0000000E+00 -0.3169551E-04
  0.7323232E+00  0.0000000E+00  0.2525252E-01 -0.1045814E-08  0.0000000E+00 -0.3169594E-04
  0.7424242E+00  0.0000000E+00  0.2525252E-01 -0.1038210E-08  0.0000000E+00 -0.3169638E-04
  0.7525253E+00  0.0000000E+00  0.2525252E-01 -0.1026741E-08  0.0000000E+00 -0.3169681E-04
  0.7626263E+00  0.0000000E+00  0.2525252E-01 -0.1011557E-08  0.0000000E+00 -0.3169723E-04
  0.7727273E+00  0.0000000E+00  0.2525252E-01 -0.9928178E-09  0.0000000E+00 -0.3169765E-04
  0.7828283E+00  0.0000000E+00  0.2525252E-01 -0.9706901E-09  0.0000000E+00 -0.3169805E-04
  0.7929293E+00  0.0000000E+00  0.2525252E-01 -0.9453482E-09  0.0000000E+00 -0.3169845E-04
  0.8030303E+00  0.0000000E+00  0.2525252E-01 -0.9169702E-09  0.0000000E+00 -0.3169884E-04
  0.8131313E+00  0.0000000E+00  0.2525252E-01 -0.8857370E-09  0.0000000E+00 -0.3169921E-04
  0.8232324E+00  0.0000000E+00  0.2525252E-01 -0.8518303E-09  0.0000000E+00 -0.3169957E-04
  0.8333333E+00  0.0000000E+00  0.2525252E-01 -0.8154315E-09  0.0000000E+00 -0.3169992E-04
  0.8434343E+00  0.0000000E+00  0.2525252E-01 -0.7767203E-09  0.0000000E+00 -0.3170025E-04
  0.8535354E+00  0.0000000E+00  0.2525252E-01 -0.7358737E-09  0.0000000E+00 -0.3170057E-04
  0.8636364E+00  0.0000000E+00  0.2525252E-01 -0.6930648E-09  0.0000000E+00 -0.3170086E-04
  0.8737374E+00  0.0000000E+00  0.2525252E-01 -0.6484624E-09  0.0000000E+00 -0.3170114E-04
  0.8838384E+00  0.0000000E+00  0.2525252E-01 -0.6022302E-09  0.0000000E+00 -0.3170140E-04
  0.8939394E+00  0.0000000E+00  0.2525252E-01 -0.5545267E-09  0.0000000E+00 -0.3170164E-04
  0.9040404E+00  0.0000000E+00  0.2525252E-01 -0.5055043E-09  0.0000000E+00 -0.3170186E-04
  0.9141414E+00  0.0000000E+00  0.2525252E-01 -0.4553102E-09  0.0000000E+00 -0.3170206E-04
  0.9242424E+00  0.0000000E+00  0.2525252E-01 -0.4040854E-09  0.0000000E+00 -0.3170224E-04
  0.9343435E+00  0.0000000E+00  0.2525252E-01 -0.3519659E-09  0.0000000E+00 -0.3170239E-04
  0.9444444E+00  0.0000000E+00  0.2525252E-01 -0.2990824E-09  0.0000000E+00 -0.3170253E-04
  0.9545454E+00  0.0000000E+00  0.2525252E-01 -0.2455610E-09  0.0000000E+00 -0.3170264E-04
  0.9646465E+00  0.0000000E+00  0.2525252E-01 -0.1915235E-09  0.0000000E+00 -0.3170273E-04
  0.9747475E+00  0.0000000E+00  0.2525252E-01 -0.1370886E-09  0.0000000E+00 -0.3170280E-04
  0.9848485E+00  0.0000000E+00  0.2525252E-01 -0.8237218E-10  0.0000000E+00 -0.3170285E-04
  0.9974747E+00  0.0000000E+00  0.2525252E-01 -0.2748815E-10  0.0000000E+00 -0.3170287E-04
  0.5050505E-02  0.0000000E+00  0.3535353E-01  0.4179572E-10  0.0000000E+00 -0.3141078E-04
  0.1515152E-01  0.0000000E+00  0.3535353E-01  0.1253104E-09  0.0000000E+00 -0.3141076E-04
  0.2525252E-01  0.0000000E+00  0.3535353E-01  0.2084827E-09  0.0000000E+00 -0.3141071E-04
  0.3535353E-01  0.0000000E+00  0.3535353E-01  0.2910574E-09  0.0000000E+00 -0.3141063E-04
  0.4545455E-01  0.0000000E+00  0.3535353E-01  0.3728002E-09  0.0000000E+00 -0.3141053E-04
  0.5555556E-01  0.0000000E+00  0.3535353E-01  0.4534692E-09  0.0000000E+00 -0.3141040E-04
  0.6565657E-01  0.0000000E+00  0.3535353E-01  0.5328193E-09  0.0000000E+00 -0.3141025E-04
  0.7575758E-01  0.0000000E+00  0.3535353E-01  0.6105994E-09  0.0000000E+00 -0.3141008E-04
  0.8585858E-01  0.0000000E+00  0.3535353E-01  0.6865558E-09  0.0000000E+00 -0.3140988E-04
  0.9595960E-01  0.0000000E+00  0.3535353E-01  0.7604291E-09  0.0000000E+00 -0.3140966E-04
  0.1060606E+00  0.0000000E+00  0.3535353E-01  0.8319555E-09  0.0000000E+00 -0.3140941E-04
  0.1161616E+00  0.0000000E+00  0.3535353E-01  0.9008664E-09  0.0000000E+00 -0.3140915E-04
  0.1262626E+00  0.0000000E+00  0.3535353E-01  0.9668896E-09  0.0000000E+00 -0.3140886E-04
  0.1363636E+00  0.0000000E+00  0.3535353E-01  0.1029749E-08  0.0000000E+00 -0.3140856E-04
  0.1464646E+00  0.0000000E+00  0.3535353E-01  0.1089167E-08  0.0000000E+00 -0.3140823E-04
  0.1565657E+00  0.0000000E+00  0.3535353E-01  0.1144863E-08  0.0000000E+00 -0.3140789E-04
  0.1666667E+00  0.0000000E+00  0.3535353E-01  0.1196557E-08  0.0000000E+00 -0.3140753E-04
  0.1767677E+00  0.0000000E+00  0.3535353E-01  0.1243973E-08  0.0000000E+00 -0.3140715E-04
  0.1868687E+00  0.0000000E+00  0.3535353E-01  0.1286835E-08  0.0000000E+00 -0.3140676E-04
  0.1969697E+00  0.0000000E+00  0.3535353E-01  0.1324876E-08  0.0000000E+00 -0.3140636E-04
  0.2070707E+00  0.0000000E+00  0.3535353E-01  0.1357836E-08  0.0000000E+00 -0.3140595E-04
  0.2171717E+00  0.0000000E+00  0.3535353E-01  0.1385466E-08  0.0000000E+00 -0.3140553E-04
  0.2272727E+00  0.0000000E+00  0.3535353E-01  0.1407530E-08  0.0000000E+00 -0.3140510E-04
  0.2373737E+00  0.0000000E+00  0.3535353E-01  0.1423808E-08  0.0000000E+00 -0.3140467E-04
  0.2474747E+00  0.0000000E+00  0.3535353E-01  0.1434102E-08  0.0000000E+00 -0.3140423E-04
  0.2575758E+00  0.0000000E+00  0.3535353E-01  0.1438234E-08  0.0000000E+00 -0.3140378E-04
  0.2676768E+00  0.0000000E+00  0.3535353E-01  0.1436051E-08  0.0000000E+00 -0.3140334E-04
  0.2777778E+00  0.0000000E+00  0.3535353E-01  0.1427431E-08  0.0000000E+00 -0.3140290E-04
  0.2878788E+00  0.0000000E+00  0.3535353E-01  0.1412280E-08  0.0000000E+00 -0.3140246E-04
  0.2979798E+00  0.0000000E+00  0.3535353E-01  0.1390541E-08  0.0000000E+00 -0.3140203E-04