title = "dataset water"
variables = "x", "y", "z", "vx", "vy", "vz"
zone t = "velocities, solution time =  2.500E+01 days        " i =   99, j =   99, k =    1,  f=point
  0.5050505E-02  0.0000000E+00  0.5050505E-02  0.2142682E-08  0.0000000E+00 -0.1050339E-04
  0.1515152E-01  0.0000000E+00  0.5050505E-02  0.6428743E-08  0.0000000E+00 -0.1049480E-04
  0.2525252E-01  0.0000000E+00  0.5050505E-02  0.1071678E-07  0.0000000E+00 -0.1047764E-04
  0.3535353E-01  0.0000000E+00  0.5050505E-02  0.1500772E-07  0.0000000E+00 -0.1045188E-04
  0.4545455E-01  0.0000000E+00  0.5050505E-02  0.1930187E-07  0.0000000E+00 -0.1041752E-04
  0.5555556E-01  0.0000000E+00  0.5050505E-02  0.2359870E-07  0.0000000E+00 -0.1037457E-04
  0.6565657E-01  0.0000000E+00  0.5050505E-02  0.2789656E-07  0.0000000E+00 -0.1032301E-04
  0.7575758E-01  0.0000000E+00  0.5050505E-02  0.3219242E-07  0.0000000E+00 -0.1026284E-04
  0.8585858E-01  0.0000000E+00  0.5050505E-02  0.3648165E-07  0.0000000E+00 -0.1019408E-04
  0.9595960E-01  0.0000000E+00  0.5050505E-02  0.4075767E-07  0.0000000E+00 -0.1011675E-04
  0.1060606E+00  0.0000000E+00  0.5050505E-02  0.4501174E-07  0.0000000E+00 -0.1003087E-04
  0.1161616E+00  0.0000000E+00  0.5050505E-02  0.4923270E-07  0.0000000E+00 -0.9936515E-05
  0.1262626E+00  0.0000000E+00  0.5050505E-02  0.5340664E-07  0.0000000E+00 -0.9833751E-05
  0.1363636E+00  0.0000000E+00  0.5050505E-02  0.5751676E-07  0.0000000E+00 -0.9722696E-05
  0.1464646E+00  0.0000000E+00  0.5050505E-02  0.6154312E-07  0.0000000E+00 -0.9603496E-05
  0.1565657E+00  0.0000000E+00  0.5050505E-02  0.6546246E-07  0.0000000E+00 -0.9476342E-05
  0.1666667E+00  0.0000000E+00  0.5050505E-02  0.6924820E-07  0.0000000E+00 -0.9341477E-05
  0.1767677E+00  0.0000000E+00  0.5050505E-02  0.7287038E-07  0.0000000E+00 -0.9199198E-05
  0.1868687E+00  0.0000000E+00  0.5050505E-02  0.7629581E-07  0.0000000E+00 -0.9049866E-05
  0.1969697E+00  0.0000000E+00  0.5050505E-02  0.7948830E-07  0.0000000E+00 -0.8893912E-05
  0.2070707E+00  0.0000000E+00  0.5050505E-02  0.8240913E-07  0.0000000E+00 -0.8731841E-05
  0.2171717E+00  0.0000000E+00  0.5050505E-02  0.8501766E-07  0.0000000E+00 -0.8564238E-05
  0.2272727E+00  0.0000000E+00  0.5050505E-02  0.8727209E-07  0.0000000E+00 -0.8391771E-05
  0.2373737E+00  0.0000000E+00  0.5050505E-02  0.8913056E-07  0.0000000E+00 -0.8215191E-05
  0.2474747E+00  0.0000000E+00  0.5050505E-02  0.9055230E-07  0.0000000E+00 -0.8035331E-05
  0.2575758E+00  0.0000000E+00  0.5050505E-02  0.9149909E-07  0.0000000E+00 -0.7853104E-05
  0.2676768E+00  0.0000000E+00  0.5050505E-02  0.9193676E-07  0.0000000E+00 -0.7669495E-05
  0.2777778E+00  0.0000000E+00  0.5050505E-02  0.9183673E-07  0.0000000E+00 -0.7485553E-05
  0.2878788E+00  0.0000000E+00  0.5050505E-02  0.9117761E-07  0.0000000E+00 -0.7302374E-05
  0.2979798E+00  0.0000000E+00  0.5050505E-02  0.8994646E-07  0.0000000E+00 -0.7121092E-05
  0.3080808E+00  0.0000000E+00  0.5050505E-02  0.8813995E-07  0.0000000E+00 -0.6942854E-05
  0.3181818E+00  0.0000000E+00  0.5050505E-02  0.8576493E-07  0.0000000E+00 -0.6768804E-05
  0.3282828E+00  0.0000000E+00  0.5050505E-02  0.8283857E-07  0.0000000E+00 -0.6600064E-05
  0.3383838E+00  0.0000000E+00  0.5050505E-02  0.7938786E-07  0.0000000E+00 -0.6437710E-05
  0.3484848E+00  0.0000000E+00  0.5050505E-02  0.7544849E-07  0.0000000E+00 -0.6282754E-05
  0.3585859E+00  0.0000000E+00  0.5050505E-02  0.7106318E-07  0.0000000E+00 -0.6136132E-05
  0.3686869E+00  0.0000000E+00  0.5050505E-02  0.6627948E-07  0.0000000E+00 -0.5998688E-05
  0.3787879E+00  0.0000000E+00  0.5050505E-02  0.6114739E-07  0.0000000E+00 -0.5871169E-05
  0.3888889E+00  0.0000000E+00  0.5050505E-02  0.5571684E-07  0.0000000E+00 -0.5754222E-05
  0.3989899E+00  0.0000000E+00  0.5050505E-02  0.5003539E-07  0.0000000E+00 -0.5648397E-05
  0.4090909E+00  0.0000000E+00  0.5050505E-02  0.4414630E-07  0.0000000E+00 -0.5554151E-05
  0.4191919E+00  0.0000000E+00  0.5050505E-02  0.3808717E-07  0.0000000E+00 -0.5471862E-05
  0.4292929E+00  0.0000000E+00  0.5050505E-02  0.3188937E-07  0.0000000E+00 -0.5401839E-05
  0.4393939E+00  0.0000000E+00  0.5050505E-02  0.2557809E-07  0.0000000E+00 -0.5344334E-05
  0.4494950E+00  0.0000000E+00  0.5050505E-02  0.1917317E-07  0.0000000E+00 -0.5299553E-05
  0.4595959E+00  0.0000000E+00  0.5050505E-02  0.1269051E-07  0.0000000E+00 -0.5267669E-05
  0.4696970E+00  0.0000000E+00  0.5050505E-02  0.6143885E-08  0.0000000E+00 -0.5248822E-05
  0.4797980E+00  0.0000000E+00  0.5050505E-02 -0.4529364E-09  0.0000000E+00 -0.5243128E-05
  0.4898990E+00  0.0000000E+00  0.5050505E-02 -0.7084140E-08  0.0000000E+00 -0.5250670E-05
  0.5000000E+00  0.0000000E+00  0.5050505E-02 -0.1372998E-07  0.0000000E+00 -0.5271497E-05
  0.5101010E+00  0.0000000E+00  0.5050505E-02 -0.2036528E-07  0.0000000E+00 -0.5305615E-05
  0.5202020E+00  0.0000000E+00  0.5050505E-02 -0.2695854E-07  0.0000000E+00 -0.5352969E-05
  0.5303030E+00  0.0000000E+00  0.5050505E-02 -0.3347158E-07  0.0000000E+00 -0.5413439E-05
  0.5404040E+00  0.0000000E+00  0.5050505E-02 -0.3986001E-07  0.0000000E+00 -0.5486820E-05
  0.5505050E+00  0.0000000E+00  0.5050505E-02 -0.4607429E-07  0.0000000E+00 -0.5572812E-05
  0.5606061E+00  0.0000000E+00  0.5050505E-02 -0.5206129E-07  0.0000000E+00 -0.5671015E-05
  0.5707071E+00  0.0000000E+00  0.5050505E-02 -0.5776643E-07  0.0000000E+00 -0.5780919E-05
  0.5808081E+00  0.0000000E+00  0.5050505E-02 -0.6313588E-07  0.0000000E+00 -0.5901907E-05
  0.5909091E+00  0.0000000E+00  0.5050505E-02 -0.6811883E-07  0.0000000E+00 -0.6033257E-05
  0.6010101E+00  0.0000000E+00  0.5050505E-02 -0.7266967E-07  0.0000000E+00 -0.6174150E-05
  0.6111111E+00  0.0000000E+00  0.5050505E-02 -0.7674967E-07  0.0000000E+00 -0.6323682E-05
  0.6212121E+00  0.0000000E+00  0.5050505E-02 -0.8032836E-07  0.0000000E+00 -0.6480882E-05
  0.6313131E+00  0.0000000E+00  0.5050505E-02 -0.8338432E-07  0.0000000E+00 -0.6644725E-05
  0.6414142E+00  0.0000000E+00  0.5050505E-02 -0.8590544E-07  0.0000000E+00 -0.6814153E-05
  0.6515151E+00  0.0000000E+00  0.5050505E-02 -0.8788879E-07  0.0000000E+00 -0.6988093E-05
  0.6616161E+00  0.0000000E+00  0.5050505E-02 -0.8933996E-07  0.0000000E+00 -0.7165474E-05
  0.6717172E+00  0.0000000E+00  0.5050505E-02 -0.9027222E-07  0.0000000E+00 -0.7345244E-05
  0.6818182E+00  0.0000000E+00  0.5050505E-02 -0.9070539E-07  0.0000000E+00 -0.7526385E-05
  0.6919192E+00  0.0000000E+00  0.5050505E-02 -0.9066464E-07  0.0000000E+00 -0.7707922E-05
  0.7020202E+00  0.0000000E+00  0.5050505E-02 -0.9017922E-07  0.0000000E+00 -0.7888937E-05
  0.7121212E+00  0.0000000E+00  0.5050505E-02 -0.8928133E-07  0.0000000E+00 -0.8068571E-05
  0.7222222E+00  0.0000000E+00  0.5050505E-02 -0.8800493E-07  0.0000000E+00 -0.8246033E-05
  0.7323232E+00  0.0000000E+00  0.5050505E-02 -0.8638480E-07  0.0000000E+00 -0.8420600E-05
  0.7424242E+00  0.0000000E+00  0.5050505E-02 -0.8445573E-07  0.0000000E+00 -0.8591617E-05
  0.7525253E+00  0.0000000E+00  0.5050505E-02 -0.8225174E-07  0.0000000E+00 -0.8758500E-05
  0.7626263E+00  0.0000000E+00  0.5050505E-02 -0.7980564E-07  0.0000000E+00 -0.8920732E-05
  0.7727273E+00  0.0000000E+00  0.5050505E-02 -0.7714849E-07  0.0000000E+00 -0.9077857E-05
  0.7828283E+00  0.0000000E+00  0.5050505E-02 -0.7430939E-07  0.0000000E+00 -0.9229484E-05
  0.7929293E+00  0.0000000E+00  0.5050505E-02 -0.7131526E-07  0.0000000E+00 -0.9375274E-05
  0.8030303E+00  0.0000000E+00  0.5050505E-02 -0.6819067E-07  0.0000000E+00 -0.9514940E-05
  0.8131313E+00  0.0000000E+00  0.5050505E-02 -0.6495788E-07  0.0000000E+00 -0.9648244E-05
  0.8232324E+00  0.0000000E+00  0.5050505E-02 -0.6163680E-07  0.0000000E+00 -0.9774989E-05
  0.8333333E+00  0.0000000E+00  0.5050505E-02 -0.5824506E-07  0.0000000E+00 -0.9895014E-05
  0.8434343E+00  0.0000000E+00  0.5050505E-02 -0.5479808E-07  0.0000000E+00 -0.1000819E-04
  0.8535354E+00  0.0000000E+00  0.5050505E-02 -0.5130922E-07  0.0000000E+00 -0.1011443E-04
  0.8636364E+00  0.0000000E+00  0.5050505E-02 -0.4778987E-07  0.0000000E+00 -0.1021365E-04
  0.8737374E+00  0.0000000E+00  0.5050505E-02 -0.4424962E-07  0.0000000E+00 -0.1030581E-04
  0.8838384E+00  0.0000000E+00  0.5050505E-02 -0.4069635E-07  0.0000000E+00 -0.1039086E-04
  0.8939394E+00  0.0000000E+00  0.5050505E-02 -0.3713644E-07  0.0000000E+00 -0.1046879E-04
  0.9040404E+00  0.0000000E+00  0.5050505E-02 -0.3357488E-07  0.0000000E+00 -0.1053960E-04
  0.9141414E+00  0.0000000E+00  0.5050505E-02 -0.3001540E-07  0.0000000E+00 -0.1060327E-04
  0.9242424E+00  0.0000000E+00  0.5050505E-02 -0.2646063E-07  0.0000000E+00 -0.1065982E-04
  0.9343435E+00  0.0000000E+00  0.5050505E-02 -0.2291222E-07  0.0000000E+00 -0.1070926E-04
  0.9444444E+00  0.0000000E+00  0.5050505E-02 -0.1937098E-07  0.0000000E+00 -0.1075160E-04
  0.9545454E+00  0.0000000E+00  0.5050505E-02 -0.1583700E-07  0.0000000E+00 -0.1078685E-04
  0.9646465E+00  0.0000000E+00  0.5050505E-02 -0.1230977E-07  0.0000000E+00 -0.1081503E-04
  0.9747475E+00  0.0000000E+00  0.5050505E-02 -0.8788278E-08  0.0000000E+00 -0.1083616E-04
  0.9848485E+00  0.0000000E+00  0.5050505E-02 -0.5271149E-08  0.0000000E+00 -0.1085024E-04
  0.9974747E+00  0.0000000E+00  0.5050505E-02 -0.1756742E-08  0.0000000E+00 -0.1085728E-04
  0.5050505E-02  0.0000000E+00  0.1515152E-01  0.6439823E-08  0.0000000E+00 -0.1047379E-04
  0.1515152E-01  0.0000000E+00  0.1515152E-01  0.1932171E-07  0.0000000E+00 -0.1046513E-04
  0.2525252E-01  0.0000000E+00  0.1515152E-01  0.3220996E-07  0.0000000E+00 -0.1044782E-04
  0.3535353E-01  0.0000000E+00  0.1515152E-01  0.4510764E-07  0.0000000E+00 -0.1042184E-04
  0.4545455E-01  0.0000000E+00  0.1515152E-01  0.5801596E-07  0.0000000E+00 -0.1038720E-04
  0.5555556E-01  0.0000000E+00  0.1515152E-01  0.7093360E-07  0.0000000E+00 -0.1034387E-04
  0.6565657E-01  0.0000000E+00  0.1515152E-01  0.8385591E-07  0.0000000E+00 -0.1029185E-04
  0.7575758E-01  0.0000000E+00  0.1515152E-01  0.9677411E-07  0.0000000E+00 -0.1023115E-04
  0.8585858E-01  0.0000000E+00  0.1515152E-01  0.1096745E-06  0.0000000E+00 -0.1016176E-04
  0.9595960E-01  0.0000000E+00  0.1515152E-01  0.1225377E-06  0.0000000E+00 -0.1008371E-04
  0.1060606E+00  0.0000000E+00  0.1515152E-01  0.1353376E-06  0.0000000E+00 -0.9997019E-05
  0.1161616E+00  0.0000000E+00  0.1515152E-01  0.1480410E-06  0.0000000E+00 -0.9901740E-05
  0.1262626E+00  0.0000000E+00  0.1515152E-01  0.1606063E-06  0.0000000E+00 -0.9797950E-05
  0.1363636E+00  0.0000000E+00  0.1515152E-01  0.1729831E-06  0.0000000E+00 -0.9685752E-05
  0.1464646E+00  0.0000000E+00  0.1515152E-01  0.1851117E-06  0.0000000E+00 -0.9565291E-05
  0.1565657E+00  0.0000000E+00  0.1515152E-01  0.1969223E-06  0.0000000E+00 -0.9436752E-05
  0.1666667E+00  0.0000000E+00  0.1515152E-01  0.2083348E-06  0.0000000E+00 -0.9300371E-05
  0.1767677E+00  0.0000000E+00  0.1515152E-01  0.2192590E-06  0.0000000E+00 -0.9156441E-05
  0.1868687E+00  0.0000000E+00  0.1515152E-01  0.2295947E-06  0.0000000E+00 -0.9005322E-05
  0.1969697E+00  0.0000000E+00  0.1515152E-01  0.2392328E-06  0.0000000E+00 -0.8847440E-05
  0.2070707E+00  0.0000000E+00  0.1515152E-01  0.2480560E-06  0.0000000E+00 -0.8683304E-05
  0.2171717E+00  0.0000000E+00  0.1515152E-01  0.2559412E-06  0.0000000E+00 -0.8513499E-05
  0.2272727E+00  0.0000000E+00  0.1515152E-01  0.2627617E-06  0.0000000E+00 -0.8338699E-05
  0.2373737E+00  0.0000000E+00  0.1515152E-01  0.2683901E-06  0.0000000E+00 -0.8159664E-05
  0.2474747E+00  0.0000000E+00  0.1515152E-01  0.2727024E-06  0.0000000E+00 -0.7977239E-05
  0.2575758E+00  0.0000000E+00  0.1515152E-01  0.2755821E-06  0.0000000E+00 -0.7792355E-05
  0.2676768E+00  0.0000000E+00  0.1515152E-01  0.2769248E-06  0.0000000E+00 -0.7606016E-05
  0.2777778E+00  0.0000000E+00  0.1515152E-01  0.2766429E-06  0.0000000E+00 -0.7419295E-05
  0.2878788E+00  0.0000000E+00  0.1515152E-01  0.2746707E-06  0.0000000E+00 -0.7233316E-05
  0.2979798E+00  0.0000000E+00  0.1515152E-01  0.2709682E-06  0.0000000E+00 -0.7049243E-05
  0.3080808E+00  0.0000000E+00  0.1515152E-01  0.2655249E-06  0.0000000E+00 -0.6868256E-05
  0.3181818E+00  0.0000000E+00  0.1515152E-01  0.2583614E-06  0.0000000E+00 -0.6691532E-05
  0.3282828E+00  0.0000000E+00  0.1515152E-01  0.2495300E-06  0.0000000E+00 -0.6520223E-05
  0.3383838E+00  0.0000000E+00  0.1515152E-01  0.2391131E-06  0.0000000E+00 -0.6355435E-05
  0.3484848E+00  0.0000000E+00  0.1515152E-01  0.2272200E-06  0.0000000E+00 -0.6198208E-05
  0.3585859E+00  0.0000000E+00  0.1515152E-01  0.2139817E-06  0.0000000E+00 -0.6049495E-05
  0.3686869E+00  0.0000000E+00  0.1515152E-01  0.1995437E-06  0.0000000E+00 -0.5910157E-05
  0.3787879E+00  0.0000000E+00  0.1515152E-01  0.1840593E-06  0.0000000E+00 -0.5780947E-05
  0.3888889E+00  0.0000000E+00  0.1515152E-01  0.1676811E-06  0.0000000E+00 -0.5662514E-05
  0.3989899E+00  0.0000000E+00  0.1515152E-01  0.1505542E-06  0.0000000E+00 -0.5555404E-05
  0.4090909E+00  0.0000000E+00  0.1515152E-01  0.1328102E-06  0.0000000E+00 -0.5460066E-05
  0.4191919E+00  0.0000000E+00  0.1515152E-01  0.1145628E-06  0.0000000E+00 -0.5376866E-05
  0.4292929E+00  0.0000000E+00  0.1515152E-01  0.9590611E-07  0.0000000E+00 -0.5306101E-05
  0.4393939E+00  0.0000000E+00  0.1515152E-01  0.7691503E-07  0.0000000E+00 -0.5248011E-05
  0.4494950E+00  0.0000000E+00  0.1515152E-01  0.5764760E-07  0.0000000E+00 -0.5202792E-05
  0.4595959E+00  0.0000000E+00  0.1515152E-01  0.3814953E-07  0.0000000E+00 -0.5170609E-05
  0.4696970E+00  0.0000000E+00  0.1515152E-01  0.1845995E-07  0.0000000E+00 -0.5151601E-05
  0.4797980E+00  0.0000000E+00  0.1515152E-01 -0.1382170E-08  0.0000000E+00 -0.5145885E-05
  0.4898990E+00  0.0000000E+00  0.1515152E-01 -0.2133144E-07  0.0000000E+00 -0.5153552E-05
  0.5000000E+00  0.0000000E+00  0.1515152E-01 -0.4133022E-07  0.0000000E+00 -0.5174659E-05
  0.5101010E+00  0.0000000E+00  0.1515152E-01 -0.6130401E-07  0.0000000E+00 -0.5209224E-05
  0.5202020E+00  0.0000000E+00  0.1515152E-01 -0.8115846E-07  0.0000000E+00 -0.5257207E-05
  0.5303030E+00  0.0000000E+00  0.1515152E-01 -0.1007785E-06  0.0000000E+00 -0.5318498E-05
  0.5404040E+00  0.0000000E+00  0.1515152E-01 -0.1200297E-06  0.0000000E+00 -0.5392905E-05
  0.5505050E+00  0.0000000E+00  0.1515152E-01 -0.1387612E-06  0.0000000E+00 -0.5480134E-05
  0.5606061E+00  0.0000000E+00  0.1515152E-01 -0.1568114E-06  0.0000000E+00 -0.5579787E-05
  0.5707071E+00  0.0000000E+00  0.1515152E-01 -0.1740137E-06  0.0000000E+00 -0.5691351E-05
  0.5808081E+00  0.0000000E+00  0.1515152E-01 -0.1902039E-06  0.0000000E+00 -0.5814200E-05
  0.5909091E+00  0.0000000E+00  0.1515152E-01 -0.2052269E-06  0.0000000E+00 -0.5947597E-05
  0.6010101E+00  0.0000000E+00  0.1515152E-01 -0.2189438E-06  0.0000000E+00 -0.6090702E-05
  0.6111111E+00  0.0000000E+00  0.1515152E-01 -0.2312366E-06  0.0000000E+00 -0.6242590E-05
  0.6212121E+00  0.0000000E+00  0.1515152E-01 -0.2420130E-06  0.0000000E+00 -0.6402260E-05
  0.6313131E+00  0.0000000E+00  0.1515152E-01 -0.2512081E-06  0.0000000E+00 -0.6568660E-05
  0.6414142E+00  0.0000000E+00  0.1515152E-01 -0.2587858E-06  0.0000000E+00 -0.6740702E-05
  0.6515151E+00  0.0000000E+00  0.1515152E-01 -0.2647379E-06  0.0000000E+00 -0.6917285E-05
  0.6616161E+00  0.0000000E+00  0.1515152E-01 -0.2690822E-06  0.0000000E+00 -0.7097313E-05
  0.6717172E+00  0.0000000E+00  0.1515152E-01 -0.2718597E-06  0.0000000E+00 -0.7279708E-05
  0.6818182E+00  0.0000000E+00  0.1515152E-01 -0.2731315E-06  0.0000000E+00 -0.7463431E-05
  0.6919192E+00  0.0000000E+00  0.1515152E-01 -0.2729743E-06  0.0000000E+00 -0.7647489E-05
  0.7020202E+00  0.0000000E+00  0.1515152E-01 -0.2714777E-06  0.0000000E+00 -0.7830948E-05
  0.7121212E+00  0.0000000E+00  0.1515152E-01 -0.2687395E-06  0.0000000E+00 -0.8012937E-05
  0.7222222E+00  0.0000000E+00  0.1515152E-01 -0.2648629E-06  0.0000000E+00 -0.8192655E-05
  0.7323232E+00  0.0000000E+00  0.1515152E-01 -0.2599534E-06  0.0000000E+00 -0.8369374E-05
  0.7424242E+00  0.0000000E+00  0.1515152E-01 -0.2541163E-06  0.0000000E+00 -0.8542434E-05
  0.7525253E+00  0.0000000E+00  0.1515152E-01 -0.2474546E-06  0.0000000E+00 -0.8711248E-05
  0.7626263E+00  0.0000000E+00  0.1515152E-01 -0.2400673E-06  0.0000000E+00 -0.8875299E-05
  0.7727273E+00  0.0000000E+00  0.1515152E-01 -0.2320481E-06  0.0000000E+00 -0.9034133E-05
  0.7828283E+00  0.0000000E+00  0.1515152E-01 -0.2234847E-06  0.0000000E+00 -0.9187358E-05
  0.7929293E+00  0.0000000E+00  0.1515152E-01 -0.2144581E-06  0.0000000E+00 -0.9334639E-05
  0.8030303E+00  0.0000000E+00  0.1515152E-01 -0.2050423E-06  0.0000000E+00 -0.9475692E-05
  0.8131313E+00  0.0000000E+00  0.1515152E-01 -0.1953040E-06  0.0000000E+00 -0.9610283E-05
  0.8232324E+00  0.0000000E+00  0.1515152E-01 -0.1853032E-06  0.0000000E+00 -0.9738218E-05
  0.8333333E+00  0.0000000E+00  0.1515152E-01 -0.1750926E-06  0.0000000E+00 -0.9859342E-05
  0.8434343E+00  0.0000000E+00  0.1515152E-01 -0.1647185E-06  0.0000000E+00 -0.9973533E-05
  0.8535354E+00  0.0000000E+00  0.1515152E-01 -0.1542208E-06  0.0000000E+00 -0.1008070E-04
  0.8636364E+00  0.0000000E+00  0.1515152E-01 -0.1436337E-06  0.0000000E+00 -0.1018076E-04
  0.8737374E+00  0.0000000E+00  0.1515152E-01 -0.1329858E-06  0.0000000E+00 -0.1027369E-04
  0.8838384E+00  0.0000000E+00  0.1515152E-01 -0.1223006E-06  0.0000000E+00 -0.1035944E-04
  0.8939394E+00  0.0000000E+00  0.1515152E-01 -0.1115971E-06  0.0000000E+00 -0.1043799E-04
  0.9040404E+00  0.0000000E+00  0.1515152E-01 -0.1008901E-06  0.0000000E+00 -0.1050935E-04
  0.9141414E+00  0.0000000E+00  0.1515152E-01 -0.9019071E-07  0.0000000E+00 -0.1057352E-04
  0.9242424E+00  0.0000000E+00  0.1515152E-01 -0.7950662E-07  0.0000000E+00 -0.1063051E-04
  0.9343435E+00  0.0000000E+00  0.1515152E-01 -0.6884267E-07  0.0000000E+00 -0.1068032E-04
  0.9444444E+00  0.0000000E+00  0.1515152E-01 -0.5820113E-07  0.0000000E+00 -0.1072297E-04
  0.9545454E+00  0.0000000E+00  0.1515152E-01 -0.4758214E-07  0.0000000E+00 -0.1075849E-04
  0.9646465E+00  0.0000000E+00  0.1515152E-01 -0.3698399E-07  0.0000000E+00 -0.1078688E-04
  0.9747475E+00  0.0000000E+00  0.1515152E-01 -0.2640354E-07  0.0000000E+00 -0.1080816E-04
  0.9848485E+00  0.0000000E+00  0.1515152E-01 -0.1583654E-07  0.0000000E+00 -0.1082234E-04
  0.9974747E+00  0.0000000E+00  0.1515152E-01 -0.5277899E-08  0.0000000E+00 -0.1082943E-04
  0.5050505E-02  0.0000000E+00  0.2525252E-01  0.1077848E-07  0.0000000E+00 -0.1041469E-04
  0.1515152E-01  0.0000000E+00  0.2525252E-01  0.3233966E-07  0.0000000E+00 -0.1040589E-04
  0.2525252E-01  0.0000000E+00  0.2525252E-01  0.5391291E-07  0.0000000E+00 -0.1038829E-04
  0.3535353E-01  0.0000000E+00  0.2525252E-01  0.7550426E-07  0.0000000E+00 -0.1036187E-04
  0.4545455E-01  0.0000000E+00  0.2525252E-01  0.9711674E-07  0.0000000E+00 -0.1032663E-04
  0.5555556E-01  0.0000000E+00  0.2525252E-01  0.1187491E-06  0.0000000E+00 -0.1028256E-04
  0.6565657E-01  0.0000000E+00  0.2525252E-01  0.1403945E-06  0.0000000E+00 -0.1022964E-04
  0.7575758E-01  0.0000000E+00  0.2525252E-01  0.1620392E-06  0.0000000E+00 -0.1016786E-04
  0.8585858E-01  0.0000000E+00  0.2525252E-01  0.1836614E-06  0.0000000E+00 -0.1009722E-04
  0.9595960E-01  0.0000000E+00  0.2525252E-01  0.2052294E-06  0.0000000E+00 -0.1001773E-04
  0.1060606E+00  0.0000000E+00  0.2525252E-01  0.2267007E-06  0.0000000E+00 -0.9929406E-05
  0.1161616E+00  0.0000000E+00  0.2525252E-01  0.2480204E-06  0.0000000E+00 -0.9832288E-05
  0.1262626E+00  0.0000000E+00  0.2525252E-01  0.2691198E-06  0.0000000E+00 -0.9726441E-05
  0.1363636E+00  0.0000000E+00  0.2525252E-01  0.2899152E-06  0.0000000E+00 -0.9611958E-05
  0.1464646E+00  0.0000000E+00  0.2525252E-01  0.3103070E-06  0.0000000E+00 -0.9488971E-05
  0.1565657E+00  0.0000000E+00  0.2525252E-01  0.3301784E-06  0.0000000E+00 -0.9357654E-05
  0.1666667E+00  0.0000000E+00  0.2525252E-01  0.3493952E-06  0.0000000E+00 -0.9218233E-05
  0.1767677E+00  0.0000000E+00  0.2525252E-01  0.3678059E-06  0.0000000E+00 -0.9070993E-05
  0.1868687E+00  0.0000000E+00  0.2525252E-01  0.3852416E-06  0.0000000E+00 -0.8916285E-05
  0.1969697E+00  0.0000000E+00  0.2525252E-01  0.4015177E-06  0.0000000E+00 -0.8754535E-05
  0.2070707E+00  0.0000000E+00  0.2525252E-01  0.4164356E-06  0.0000000E+00 -0.8586247E-05
  0.2171717E+00  0.0000000E+00  0.2525252E-01  0.4297859E-06  0.0000000E+00 -0.8412014E-05
  0.2272727E+00  0.0000000E+00  0.2525252E-01  0.4413525E-06  0.0000000E+00 -0.8232521E-05
  0.2373737E+00  0.0000000E+00  0.2525252E-01  0.4509177E-06  0.0000000E+00 -0.8048543E-05
  0.2474747E+00  0.0000000E+00  0.2525252E-01  0.4582685E-06  0.0000000E+00 -0.7860952E-05
  0.2575758E+00  0.0000000E+00  0.2525252E-01  0.4632042E-06  0.0000000E+00 -0.7670710E-05
  0.2676768E+00  0.0000000E+00  0.2525252E-01  0.4655441E-06  0.0000000E+00 -0.7478863E-05
  0.2777778E+00  0.0000000E+00  0.2525252E-01  0.4651363E-06  0.0000000E+00 -0.7286532E-05
  0.2878788E+00  0.0000000E+00  0.2525252E-01  0.4618656E-06  0.0000000E+00 -0.7094899E-05
  0.2979798E+00  0.0000000E+00  0.2525252E-01  0.4556618E-06  0.0000000E+00 -0.6905188E-05
  0.3080808E+00  0.0000000E+00  0.2525252E-01  0.4465049E-06  0.0000000E+00 -0.6718647E-05
  0.3181818E+00  0.0000000E+00  0.2525252E-01  0.4344293E-06  0.0000000E+00 -0.6536519E-05
  0.3282828E+00  0.0000000E+00  0.2525252E-01  0.4195251E-06  0.0000000E+00 -0.6360023E-05
  0.3383838E+00  0.0000000E+00  0.2525252E-01  0.4019347E-06  0.0000000E+00 -0.6190325E-05
  0.3484848E+00  0.0000000E+00  0.2525252E-01  0.3818481E-06  0.0000000E+00 -0.6028516E-05
  0.3585859E+00  0.0000000E+00  0.2525252E-01  0.3594927E-06  0.0000000E+00 -0.5875594E-05
  0.3686869E+00  0.0000000E+00  0.2525252E-01  0.3351220E-06  0.0000000E+00 -0.5732445E-05
  0.3787879E+00  0.0000000E+00  0.2525252E-01  0.3090020E-06  0.0000000E+00 -0.5599841E-05
  0.3888889E+00  0.0000000E+00  0.2525252E-01  0.2813974E-06  0.0000000E+00 -0.5478433E-05
  0.3989899E+00  0.0000000E+00  0.2525252E-01  0.2525585E-06  0.0000000E+00 -0.5368756E-05
  0.4090909E+00  0.0000000E+00  0.2525252E-01  0.2227106E-06  0.0000000E+00 -0.5271241E-05
  0.4191919E+00  0.0000000E+00  0.2525252E-01  0.1920465E-06  0.0000000E+00 -0.5186230E-05
  0.4292929E+00  0.0000000E+00  0.2525252E-01  0.1607236E-06  0.0000000E+00 -0.5113992E-05
  0.4393939E+00  0.0000000E+00  0.2525252E-01  0.1288638E-06  0.0000000E+00 -0.5054741E-05
  0.4494950E+00  0.0000000E+00  0.2525252E-01  0.9655899E-07  0.0000000E+00 -0.5008652E-05
  0.4595959E+00  0.0000000E+00  0.2525252E-01  0.6387855E-07  0.0000000E+00 -0.4975875E-05
  0.4696970E+00  0.0000000E+00  0.2525252E-01  0.3087993E-07  0.0000000E+00 -0.4956545E-05
  0.4797980E+00  0.0000000E+00  0.2525252E-01 -0.2379772E-08  0.0000000E+00 -0.4950782E-05
  0.4898990E+00  0.0000000E+00  0.2525252E-01 -0.3583201E-07  0.0000000E+00 -0.4958690E-05
  0.5000000E+00  0.0000000E+00  0.2525252E-01 -0.6938624E-07  0.0000000E+00 -0.4980348E-05
  0.5101010E+00  0.0000000E+00  0.2525252E-01 -0.1029216E-06  0.0000000E+00 -0.5015798E-05
  0.5202020E+00  0.0000000E+00  0.2525252E-01 -0.1362816E-06  0.0000000E+00 -0.5065031E-05
  0.5303030E+00  0.0000000E+00  0.2525252E-01 -0.1692724E-06  0.0000000E+00 -0.5127963E-05
  0.5404040E+00  0.0000000E+00  0.2525252E-01 -0.2016650E-06  0.0000000E+00 -0.5204422E-05
  0.5505050E+00  0.0000000E+00  0.2525252E-01 -0.2332013E-06  0.0000000E+00 -0.5294134E-05
  0.5606061E+00  0.0000000E+00  0.2525252E-01 -0.2636032E-06  0.0000000E+00 -0.5396702E-05
  0.5707071E+00  0.0000000E+00  0.2525252E-01 -0.2925834E-06  0.0000000E+00 -0.5511610E-05
  0.5808081E+00  0.0000000E+00  0.2525252E-01 -0.3198586E-06  0.0000000E+00 -0.5638211E-05
  0.5909091E+00  0.0000000E+00  0.2525252E-01 -0.3451615E-06  0.0000000E+00 -0.5775738E-05
  0.6010101E+00  0.0000000E+00  0.2525252E-01 -0.3682527E-06  0.0000000E+00 -0.5923311E-05
  0.6111111E+00  0.0000000E+00  0.2525252E-01 -0.3889302E-06  0.0000000E+00 -0.6079955E-05
  0.6212121E+00  0.0000000E+00  0.2525252E-01 -0.4070361E-06  0.0000000E+00 -0.6244614E-05
  0.6313131E+00  0.0000000E+00  0.2525252E-01 -0.4224610E-06  0.0000000E+00 -0.6416177E-05
  0.6414142E+00  0.0000000E+00  0.2525252E-01 -0.4351450E-06  0.0000000E+00 -0.6593498E-05
  0.6515151E+00  0.0000000E+00  0.2525252E-01 -0.4450766E-06  0.0000000E+00 -0.6775417E-05
  0.6616161E+00  0.0000000E+00  0.2525252E-01 -0.4522890E-06  0.0000000E+00 -0.6960784E-05
  0.6717172E+00  0.0000000E+00  0.2525252E-01 -0.4568550E-06  0.0000000E+00 -0.7148471E-05
  0.6818182E+00  0.0000000E+00  0.2525252E-01 -0.4588812E-06  0.0000000E+00 -0.7337396E-05
  0.6919192E+00  0.0000000E+00  0.2525252E-01 -0.4585011E-06  0.0000000E+00 -0.7526530E-05
  0.7020202E+00  0.0000000E+00  0.2525252E-01 -0.4558687E-06  0.0000000E+00 -0.7714907E-05
  0.7121212E+00  0.0000000E+00  0.2525252E-01 -0.4511521E-06  0.0000000E+00 -0.7901632E-05
  0.7222222E+00  0.0000000E+00  0.2525252E-01 -0.4445278E-06  0.0000000E+00 -0.8085887E-05
  0.7323232E+00  0.0000000E+00  0.2525252E-01 -0.4361755E-06  0.0000000E+00 -0.8266928E-05
  0.7424242E+00  0.0000000E+00  0.2525252E-01 -0.4262741E-06  0.0000000E+00 -0.8444090E-05
  0.7525253E+00  0.0000000E+00  0.2525252E-01 -0.4149980E-06  0.0000000E+00 -0.8616782E-05
  0.7626263E+00  0.0000000E+00  0.2525252E-01 -0.4025144E-06  0.0000000E+00 -0.8784482E-05
  0.7727273E+00  0.0000000E+00  0.2525252E-01 -0.3889814E-06  0.0000000E+00 -0.8946741E-05
  0.7828283E+00  0.0000000E+00  0.2525252E-01 -0.3745466E-06  0.0000000E+00 -0.9103170E-05
  0.7929293E+00  0.0000000E+00  0.2525252E-01 -0.3593458E-06  0.0000000E+00 -0.9253438E-05
  0.8030303E+00  0.0000000E+00  0.2525252E-01 -0.3435031E-06  0.0000000E+00 -0.9397271E-05
  0.8131313E+00  0.0000000E+00  0.2525252E-01 -0.3271302E-06  0.0000000E+00 -0.9534440E-05
  0.8232324E+00  0.0000000E+00  0.2525252E-01 -0.3103269E-06  0.0000000E+00 -0.9664759E-05
  0.8333333E+00  0.0000000E+00  0.2525252E-01 -0.2931813E-06  0.0000000E+00 -0.9788082E-05
  0.8434343E+00  0.0000000E+00  0.2525252E-01 -0.2757704E-06  0.0000000E+00 -0.9904294E-05
  0.8535354E+00  0.0000000E+00  0.2525252E-01 -0.2581606E-06  0.0000000E+00 -0.1001331E-04
  0.8636364E+00  0.0000000E+00  0.2525252E-01 -0.2404084E-06  0.0000000E+00 -0.1011507E-04
  0.8737374E+00  0.0000000E+00  0.2525252E-01 -0.2225610E-06  0.0000000E+00 -0.1020953E-04
  0.8838384E+00  0.0000000E+00  0.2525252E-01 -0.2046574E-06  0.0000000E+00 -0.1029667E-04
  0.8939394E+00  0.0000000E+00  0.2525252E-01 -0.1867286E-06  0.0000000E+00 -0.1037648E-04
  0.9040404E+00  0.0000000E+00  0.2525252E-01 -0.1687990E-06  0.0000000E+00 -0.1044896E-04
  0.9141414E+00  0.0000000E+00  0.2525252E-01 -0.1508865E-06  0.0000000E+00 -0.1051412E-04
  0.9242424E+00  0.0000000E+00  0.2525252E-01 -0.1330034E-06  0.0000000E+00 -0.1057197E-04
  0.9343435E+00  0.0000000E+00  0.2525252E-01 -0.1151575E-06  0.0000000E+00 -0.1062253E-04
  0.9444444E+00  0.0000000E+00  0.2525252E-01 -0.9735195E-07  0.0000000E+00 -0.1066582E-04
  0.9545454E+00  0.0000000E+00  0.2525252E-01 -0.7958651E-07  0.0000000E+00 -0.1070186E-04
  0.9646465E+00  0.0000000E+00  0.2525252E-01 -0.6185790E-07  0.0000000E+00 -0.1073067E-04
  0.9747475E+00  0.0000000E+00  0.2525252E-01 -0.4416041E-07  0.0000000E+00 -0.1075226E-04
  0.9848485E+00  0.0000000E+00  0.2525252E-01 -0.2648646E-07  0.0000000E+00 -0.1076664E-04
  0.9974747E+00  0.0000000E+00  0.2525252E-01 -0.8827166E-08  0.0000000E+00 -0.1077383E-04
  0.5050505E-02  0.0000000E+00  0.3535353E-01  0.1519448E-07  0.0000000E+00 -0.1032626E-04
  0.1515152E-01  0.0000000E+00  0.3535353E-01  0.4559037E-07  0.0000000E+00 -0.1031724E-04
  0.2525252E-01  0.0000000E+00  0.3535353E-01  0.7600621E-07  0.0000000E+00 -0.1029920E-04
  0.3535353E-01  0.0000000E+00  0.3535353E-01  0.1064525E-06  0.0000000E+00 -0.1027213E-04
  0.4545455E-01  0.0000000E+00  0.3535353E-01  0.1369355E-06  0.0000000E+00 -0.1023601E-04
  0.5555556E-01  0.0000000E+00  0.3535353E-01  0.1674555E-06  0.0000000E+00 -0.1019082E-04
  0.6565657E-01  0.0000000E+00  0.3535353E-01  0.1980048E-06  0.0000000E+00 -0.1013654E-04
  0.7575758E-01  0.0000000E+00  0.3535353E-01  0.2285664E-06  0.0000000E+00 -0.1007315E-04
  0.8585858E-01  0.0000000E+00  0.3535353E-01  0.2591113E-06  0.0000000E+00 -0.1000063E-04
  0.9595960E-01  0.0000000E+00  0.3535353E-01  0.2895972E-06  0.0000000E+00 -0.9918981E-05
  0.1060606E+00  0.0000000E+00  0.3535353E-01  0.3199661E-06  0.0000000E+00 -0.9828204E-05
  0.1161616E+00  0.0000000E+00  0.3535353E-01  0.3501424E-06  0.0000000E+00 -0.9728324E-05
  0.1262626E+00  0.0000000E+00  0.3535353E-01  0.3800309E-06  0.0000000E+00 -0.9619386E-05
  0.1363636E+00  0.0000000E+00  0.3535353E-01  0.4095152E-06  0.0000000E+00 -0.9501467E-05
  0.1464646E+00  0.0000000E+00  0.3535353E-01  0.4384557E-06  0.0000000E+00 -0.9374681E-05
  0.1565657E+00  0.0000000E+00  0.3535353E-01  0.4666881E-06  0.0000000E+00 -0.9239183E-05
  0.1666667E+00  0.0000000E+00  0.3535353E-01  0.4940232E-06  0.0000000E+00 -0.9095183E-05
  0.1767677E+00  0.0000000E+00  0.3535353E-01  0.5202456E-06  0.0000000E+00 -0.8942952E-05
  0.1868687E+00  0.0000000E+00  0.3535353E-01  0.5451153E-06  0.0000000E+00 -0.8782829E-05
  0.1969697E+00  0.0000000E+00  0.3535353E-01  0.5683679E-06  0.0000000E+00 -0.8615233E-05
  0.2070707E+00  0.0000000E+00  0.3535353E-01  0.5897186E-06  0.0000000E+00 -0.8440668E-05
  0.2171717E+00  0.0000000E+00  0.3535353E-01  0.6088652E-06  0.0000000E+00 -0.8259733E-05
  0.2272727E+00  0.0000000E+00  0.3535353E-01  0.6254946E-06  0.0000000E+00 -0.8073125E-05
  0.2373737E+00  0.0000000E+00  0.3535353E-01  0.6392898E-06  0.0000000E+00 -0.7881648E-05
  0.2474747E+00  0.0000000E+00  0.3535353E-01  0.6499394E-06  0.0000000E+00 -0.7686208E-05
  0.2575758E+00  0.0000000E+00  0.3535353E-01  0.6571478E-06  0.0000000E+00 -0.7487817E-05
  0.2676768E+00  0.0000000E+00  0.3535353E-01  0.6606477E-06  0.0000000E+00 -0.7287584E-05
  0.2777778E+00  0.0000000E+00  0.3535353E-01  0.6602126E-06  0.0000000E+00 -0.7086705E-05
  0.2878788E+00  0.0000000E+00  0.3535353E-01  0.6556696E-06  0.0000000E+00 -0.6886448E-05
  0.2979798E+00  0.0000000E+00  0.3535353E-01  0.6469110E-06  0.0000000E+00 -0.6688136E-05