title = "dataset water"
variables = "x", "y", "z", "vx", "vy", "vz"
zone t = "velocities, solution time =  5.200E+01 days        " i =   99, j =   99, k =    1,  f=point
  0.5050505E-02  0.0000000E+00  0.5050505E-02  0.2159660E-06  0.0000000E+00  0.2605494E-03
  0.1515152E-01  0.0000000E+00  0.5050505E-02  0.6490965E-06  0.0000000E+00  0.2614450E-03
  0.2525252E-01  0.0000000E+00  0.5050505E-02  0.1085899E-05  0.0000000E+00  0.2632414E-03
  0.3535353E-01  0.0000000E+00  0.5050505E-02  0.1528984E-05  0.0000000E+00  0.2659495E-03
  0.4545455E-01  0.0000000E+00  0.5050505E-02  0.1981156E-05  0.0000000E+00  0.2695859E-03
  0.5555556E-01  0.0000000E+00  0.5050505E-02  0.2445482E-05  0.0000000E+00  0.2741738E-03
  0.6565657E-01  0.0000000E+00  0.5050505E-02  0.2925375E-05  0.0000000E+00  0.2797434E-03
  0.7575758E-01  0.0000000E+00  0.5050505E-02  0.3424690E-05  0.0000000E+00  0.2863329E-03
  0.8585858E-01  0.0000000E+00  0.5050505E-02  0.3947833E-05  0.0000000E+00  0.2939895E-03
  0.9595960E-01  0.0000000E+00  0.5050505E-02  0.4499899E-05  0.0000000E+00  0.3027709E-03
  0.1060606E+00  0.0000000E+00  0.5050505E-02  0.5086824E-05  0.0000000E+00  0.3127469E-03
  0.1161616E+00  0.0000000E+00  0.5050505E-02  0.5715576E-05  0.0000000E+00  0.3240016E-03
  0.1262626E+00  0.0000000E+00  0.5050505E-02  0.6394365E-05  0.0000000E+00  0.3366358E-03
  0.1363636E+00  0.0000000E+00  0.5050505E-02  0.7132862E-05  0.0000000E+00  0.3507702E-03
  0.1464646E+00  0.0000000E+00  0.5050505E-02  0.7942385E-05  0.0000000E+00  0.3665491E-03
  0.1565657E+00  0.0000000E+00  0.5050505E-02  0.8835931E-05  0.0000000E+00  0.3841441E-03
  0.1666667E+00  0.0000000E+00  0.5050505E-02  0.9827827E-05  0.0000000E+00  0.4037581E-03
  0.1767677E+00  0.0000000E+00  0.5050505E-02  0.1093254E-04  0.0000000E+00  0.4256272E-03
  0.1868687E+00  0.0000000E+00  0.5050505E-02  0.1216192E-04  0.0000000E+00  0.4500194E-03
  0.1969697E+00  0.0000000E+00  0.5050505E-02  0.1351987E-04  0.0000000E+00  0.4772242E-03
  0.2070707E+00  0.0000000E+00  0.5050505E-02  0.1499406E-04  0.0000000E+00  0.5075283E-03
  0.2171717E+00  0.0000000E+00  0.5050505E-02  0.1654733E-04  0.0000000E+00  0.5411722E-03
  0.2272727E+00  0.0000000E+00  0.5050505E-02  0.1812185E-04  0.0000000E+00  0.5783020E-03
  0.2373737E+00  0.0000000E+00  0.5050505E-02  0.1969005E-04  0.0000000E+00  0.6189780E-03
  0.2474747E+00  0.0000000E+00  0.5050505E-02  0.2139800E-04  0.0000000E+00  0.6633942E-03
  0.2575758E+00  0.0000000E+00  0.5050505E-02  0.2371221E-04  0.0000000E+00  0.7124192E-03
  0.2676768E+00  0.0000000E+00  0.5050505E-02  0.2694128E-04  0.0000000E+00  0.7677940E-03
  0.2777778E+00  0.0000000E+00  0.5050505E-02  0.3117933E-04  0.0000000E+00  0.8317554E-03
  0.2878788E+00  0.0000000E+00  0.5050505E-02  0.3611707E-04  0.0000000E+00  0.9063818E-03
  0.2979798E+00  0.0000000E+00  0.5050505E-02  0.4085864E-04  0.0000000E+00  0.9924979E-03
  0.3080808E+00  0.0000000E+00  0.5050505E-02  0.4795393E-04  0.0000000E+00  0.1092884E-02
  0.3181818E+00  0.0000000E+00  0.5050505E-02  0.4455164E-04  0.0000000E+00  0.1198615E-02
  0.3282828E+00  0.0000000E+00  0.5050505E-02  0.2829359E-04  0.0000000E+00  0.1282818E-02
  0.3383838E+00  0.0000000E+00  0.5050505E-02  0.3046233E-04  0.0000000E+00  0.1351505E-02
  0.3484848E+00  0.0000000E+00  0.5050505E-02  0.3334406E-04  0.0000000E+00  0.1426697E-02
  0.3585859E+00  0.0000000E+00  0.5050505E-02  0.4594388E-04  0.0000000E+00  0.1521002E-02
  0.3686869E+00  0.0000000E+00  0.5050505E-02  0.4489006E-04  0.0000000E+00  0.1630136E-02
  0.3787879E+00  0.0000000E+00  0.5050505E-02  0.5643031E-04  0.0000000E+00  0.1753503E-02
  0.3888889E+00  0.0000000E+00  0.5050505E-02  0.1047604E-03  0.0000000E+00  0.1952892E-02
  0.3989899E+00  0.0000000E+00  0.5050505E-02 -0.8067804E-04  0.0000000E+00  0.1982174E-02
  0.4090909E+00  0.0000000E+00  0.5050505E-02 -0.3737772E-04  0.0000000E+00  0.1834847E-02
  0.4191919E+00  0.0000000E+00  0.5050505E-02 -0.2833284E-04  0.0000000E+00  0.1753711E-02
  0.4292929E+00  0.0000000E+00  0.5050505E-02 -0.1198439E-04  0.0000000E+00  0.1704205E-02
  0.4393939E+00  0.0000000E+00  0.5050505E-02 -0.1552756E-04  0.0000000E+00  0.1670584E-02
  0.4494950E+00  0.0000000E+00  0.5050505E-02 -0.2859619E-04  0.0000000E+00  0.1617042E-02
  0.4595959E+00  0.0000000E+00  0.5050505E-02 -0.1565528E-04  0.0000000E+00  0.1563576E-02
  0.4696970E+00  0.0000000E+00  0.5050505E-02  0.1071234E-05  0.0000000E+00  0.1546005E-02
  0.4797980E+00  0.0000000E+00  0.5050505E-02  0.1350544E-04  0.0000000E+00  0.1563572E-02
  0.4898990E+00  0.0000000E+00  0.5050505E-02  0.3000546E-04  0.0000000E+00  0.1616147E-02
  0.5000000E+00  0.0000000E+00  0.5050505E-02  0.6122526E-04  0.0000000E+00  0.1727129E-02
  0.5101010E+00  0.0000000E+00  0.5050505E-02  0.1055785E-04  0.0000000E+00  0.1814915E-02
  0.5202020E+00  0.0000000E+00  0.5050505E-02  0.4316193E-04  0.0000000E+00  0.1881733E-02
  0.5303030E+00  0.0000000E+00  0.5050505E-02  0.6924136E-04  0.0000000E+00  0.2022684E-02
  0.5404040E+00  0.0000000E+00  0.5050505E-02  0.1243359E-03  0.0000000E+00  0.2269683E-02
  0.5505050E+00  0.0000000E+00  0.5050505E-02  0.9991110E-04  0.0000000E+00  0.2562506E-02
  0.5606061E+00  0.0000000E+00  0.5050505E-02 -0.9189752E-04  0.0000000E+00  0.2572895E-02
  0.5707071E+00  0.0000000E+00  0.5050505E-02 -0.8355321E-04  0.0000000E+00  0.2341374E-02
  0.5808081E+00  0.0000000E+00  0.5050505E-02 -0.6600043E-04  0.0000000E+00  0.2148156E-02
  0.5909091E+00  0.0000000E+00  0.5050505E-02 -0.2669555E-04  0.0000000E+00  0.2029925E-02
  0.6010101E+00  0.0000000E+00  0.5050505E-02 -0.7936135E-04  0.0000000E+00  0.1897615E-02
  0.6111111E+00  0.0000000E+00  0.5050505E-02 -0.4655844E-04  0.0000000E+00  0.1742162E-02
  0.6212121E+00  0.0000000E+00  0.5050505E-02 -0.6384988E-04  0.0000000E+00  0.1608344E-02
  0.6313131E+00  0.0000000E+00  0.5050505E-02 -0.6774745E-04  0.0000000E+00  0.1451526E-02
  0.6414142E+00  0.0000000E+00  0.5050505E-02 -0.5224856E-04  0.0000000E+00  0.1310682E-02
  0.6515151E+00  0.0000000E+00  0.5050505E-02 -0.4661752E-04  0.0000000E+00  0.1196240E-02
  0.6616161E+00  0.0000000E+00  0.5050505E-02 -0.4272558E-04  0.0000000E+00  0.1094061E-02
  0.6717172E+00  0.0000000E+00  0.5050505E-02 -0.4499623E-04  0.0000000E+00  0.9949364E-03
  0.6818182E+00  0.0000000E+00  0.5050505E-02 -0.3783275E-04  0.0000000E+00  0.9023038E-03
  0.6919192E+00  0.0000000E+00  0.5050505E-02 -0.3230792E-04  0.0000000E+00  0.8245867E-03
  0.7020202E+00  0.0000000E+00  0.5050505E-02 -0.2860212E-04  0.0000000E+00  0.7576383E-03
  0.7121212E+00  0.0000000E+00  0.5050505E-02 -0.2589235E-04  0.0000000E+00  0.6981672E-03
  0.7222222E+00  0.0000000E+00  0.5050505E-02 -0.2361569E-04  0.0000000E+00  0.6444839E-03
  0.7323232E+00  0.0000000E+00  0.5050505E-02 -0.2150776E-04  0.0000000E+00  0.5958390E-03
  0.7424242E+00  0.0000000E+00  0.5050505E-02 -0.1949923E-04  0.0000000E+00  0.5518641E-03
  0.7525253E+00  0.0000000E+00  0.5050505E-02 -0.1760413E-04  0.0000000E+00  0.5122641E-03
  0.7626263E+00  0.0000000E+00  0.5050505E-02 -0.1585145E-04  0.0000000E+00  0.4767098E-03
  0.7727273E+00  0.0000000E+00  0.5050505E-02 -0.1425857E-04  0.0000000E+00  0.4448335E-03
  0.7828283E+00  0.0000000E+00  0.5050505E-02 -0.1282747E-04  0.0000000E+00  0.4162573E-03
  0.7929293E+00  0.0000000E+00  0.5050505E-02 -0.1154918E-04  0.0000000E+00  0.3906192E-03
  0.8030303E+00  0.0000000E+00  0.5050505E-02 -0.1040894E-04  0.0000000E+00  0.3675890E-03
  0.8131313E+00  0.0000000E+00  0.5050505E-02 -0.9390180E-05  0.0000000E+00  0.3468752E-03
  0.8232324E+00  0.0000000E+00  0.5050505E-02 -0.8476668E-05  0.0000000E+00  0.3282251E-03
  0.8333333E+00  0.0000000E+00  0.5050505E-02 -0.7653658E-05  0.0000000E+00  0.3114219E-03
  0.8434343E+00  0.0000000E+00  0.5050505E-02 -0.6908223E-05  0.0000000E+00  0.2962805E-03
  0.8535354E+00  0.0000000E+00  0.5050505E-02 -0.6229261E-05  0.0000000E+00  0.2826427E-03
  0.8636364E+00  0.0000000E+00  0.5050505E-02 -0.5607310E-05  0.0000000E+00  0.2703736E-03
  0.8737374E+00  0.0000000E+00  0.5050505E-02 -0.5034322E-05  0.0000000E+00  0.2593579E-03
  0.8838384E+00  0.0000000E+00  0.5050505E-02 -0.4503425E-05  0.0000000E+00  0.2494967E-03
  0.8939394E+00  0.0000000E+00  0.5050505E-02 -0.4008719E-05  0.0000000E+00  0.2407053E-03
  0.9040404E+00  0.0000000E+00  0.5050505E-02 -0.3545097E-05  0.0000000E+00  0.2329111E-03
  0.9141414E+00  0.0000000E+00  0.5050505E-02 -0.3108094E-05  0.0000000E+00  0.2260518E-03
  0.9242424E+00  0.0000000E+00  0.5050505E-02 -0.2693770E-05  0.0000000E+00  0.2200746E-03
  0.9343435E+00  0.0000000E+00  0.5050505E-02 -0.2298611E-05  0.0000000E+00  0.2149346E-03
  0.9444444E+00  0.0000000E+00  0.5050505E-02 -0.1919443E-05  0.0000000E+00  0.2105941E-03
  0.9545454E+00  0.0000000E+00  0.5050505E-02 -0.1553371E-05  0.0000000E+00  0.2070220E-03
  0.9646465E+00  0.0000000E+00  0.5050505E-02 -0.1197721E-05  0.0000000E+00  0.2041932E-03
  0.9747475E+00  0.0000000E+00  0.5050505E-02 -0.8499914E-06  0.0000000E+00  0.2020882E-03
  0.9848485E+00  0.0000000E+00  0.5050505E-02 -0.5078117E-06  0.0000000E+00  0.2006927E-03
  0.9974747E+00  0.0000000E+00  0.5050505E-02 -0.1689109E-06  0.0000000E+00  0.1999972E-03
  0.5050505E-02  0.0000000E+00  0.1515152E-01  0.6462297E-06  0.0000000E+00  0.2600531E-03
  0.1515152E-01  0.0000000E+00  0.1515152E-01  0.1942277E-05  0.0000000E+00  0.2609450E-03
  0.2525252E-01  0.0000000E+00  0.1515152E-01  0.3249288E-05  0.0000000E+00  0.2627340E-03
  0.3535353E-01  0.0000000E+00  0.1515152E-01  0.4575031E-05  0.0000000E+00  0.2654305E-03
  0.4545455E-01  0.0000000E+00  0.1515152E-01  0.5927841E-05  0.0000000E+00  0.2690508E-03
  0.5555556E-01  0.0000000E+00  0.1515152E-01  0.7316837E-05  0.0000000E+00  0.2736174E-03
  0.6565657E-01  0.0000000E+00  0.1515152E-01  0.8752158E-05  0.0000000E+00  0.2791599E-03
  0.7575758E-01  0.0000000E+00  0.1515152E-01  0.1024525E-04  0.0000000E+00  0.2857154E-03
  0.8585858E-01  0.0000000E+00  0.1515152E-01  0.1180921E-04  0.0000000E+00  0.2933301E-03
  0.9595960E-01  0.0000000E+00  0.1515152E-01  0.1345915E-04  0.0000000E+00  0.3020602E-03
  0.1060606E+00  0.0000000E+00  0.1515152E-01  0.1521270E-04  0.0000000E+00  0.3119735E-03
  0.1161616E+00  0.0000000E+00  0.1515152E-01  0.1709057E-04  0.0000000E+00  0.3231521E-03
  0.1262626E+00  0.0000000E+00  0.1515152E-01  0.1911715E-04  0.0000000E+00  0.3356941E-03
  0.1363636E+00  0.0000000E+00  0.1515152E-01  0.2132127E-04  0.0000000E+00  0.3497172E-03
  0.1464646E+00  0.0000000E+00  0.1515152E-01  0.2373686E-04  0.0000000E+00  0.3653624E-03
  0.1565657E+00  0.0000000E+00  0.1515152E-01  0.2640322E-04  0.0000000E+00  0.3827984E-03
  0.1666667E+00  0.0000000E+00  0.1515152E-01  0.2936443E-04  0.0000000E+00  0.4022265E-03
  0.1767677E+00  0.0000000E+00  0.1515152E-01  0.3266647E-04  0.0000000E+00  0.4238854E-03
  0.1868687E+00  0.0000000E+00  0.1515152E-01  0.3634980E-04  0.0000000E+00  0.4480533E-03
  0.1969697E+00  0.0000000E+00  0.1515152E-01  0.4043375E-04  0.0000000E+00  0.4750438E-03
  0.2070707E+00  0.0000000E+00  0.1515152E-01  0.4488890E-04  0.0000000E+00  0.5051843E-03
  0.2171717E+00  0.0000000E+00  0.1515152E-01  0.4959907E-04  0.0000000E+00  0.5387602E-03
  0.2272727E+00  0.0000000E+00  0.1515152E-01  0.5434207E-04  0.0000000E+00  0.5759073E-03
  0.2373737E+00  0.0000000E+00  0.1515152E-01  0.5890161E-04  0.0000000E+00  0.6164811E-03
  0.2474747E+00  0.0000000E+00  0.1515152E-01  0.6358337E-04  0.0000000E+00  0.6601806E-03
  0.2575758E+00  0.0000000E+00  0.1515152E-01  0.7023427E-04  0.0000000E+00  0.7077112E-03
  0.2676768E+00  0.0000000E+00  0.1515152E-01  0.7983007E-04  0.0000000E+00  0.7611855E-03
  0.2777778E+00  0.0000000E+00  0.1515152E-01  0.9282003E-04  0.0000000E+00  0.8234579E-03
  0.2878788E+00  0.0000000E+00  0.1515152E-01  0.1084254E-03  0.0000000E+00  0.8975965E-03
  0.2979798E+00  0.0000000E+00  0.1515152E-01  0.1203221E-03  0.0000000E+00  0.9815662E-03
  0.3080808E+00  0.0000000E+00  0.1515152E-01  0.1307397E-03  0.0000000E+00  0.1064962E-02
  0.3181818E+00  0.0000000E+00  0.1515152E-01  0.1228225E-03  0.0000000E+00  0.1143851E-02
  0.3282828E+00  0.0000000E+00  0.1515152E-01  0.1119426E-03  0.0000000E+00  0.1247620E-02
  0.3383838E+00  0.0000000E+00  0.1515152E-01  0.9018949E-04  0.0000000E+00  0.1347357E-02
  0.3484848E+00  0.0000000E+00  0.1515152E-01  0.9118335E-04  0.0000000E+00  0.1412110E-02
  0.3585859E+00  0.0000000E+00  0.1515152E-01  0.1146702E-03  0.0000000E+00  0.1469891E-02
  0.3686869E+00  0.0000000E+00  0.1515152E-01  0.1234500E-03  0.0000000E+00  0.1539471E-02
  0.3787879E+00  0.0000000E+00  0.1515152E-01  0.1716885E-03  0.0000000E+00  0.1653928E-02
  0.3888889E+00  0.0000000E+00  0.1515152E-01  0.2794384E-03  0.0000000E+00  0.1815099E-02
  0.3989899E+00  0.0000000E+00  0.1515152E-01 -0.2231034E-03  0.0000000E+00  0.1824771E-02
  0.4090909E+00  0.0000000E+00  0.1515152E-01 -0.1255304E-03  0.0000000E+00  0.1682664E-02
  0.4191919E+00  0.0000000E+00  0.1515152E-01 -0.6984184E-04  0.0000000E+00  0.1602334E-02
  0.4292929E+00  0.0000000E+00  0.1515152E-01 -0.5495555E-04  0.0000000E+00  0.1547337E-02
  0.4393939E+00  0.0000000E+00  0.1515152E-01 -0.3857977E-04  0.0000000E+00  0.1499676E-02
  0.4494950E+00  0.0000000E+00  0.1515152E-01 -0.5001934E-04  0.0000000E+00  0.1498457E-02
  0.4595959E+00  0.0000000E+00  0.1515152E-01 -0.2876432E-04  0.0000000E+00  0.1509533E-02
  0.4696970E+00  0.0000000E+00  0.1515152E-01  0.6688984E-05  0.0000000E+00  0.1517970E-02
  0.4797980E+00  0.0000000E+00  0.1515152E-01  0.3679681E-04  0.0000000E+00  0.1535802E-02
  0.4898990E+00  0.0000000E+00  0.1515152E-01  0.7721694E-04  0.0000000E+00  0.1569638E-02
  0.5000000E+00  0.0000000E+00  0.1515152E-01  0.1476585E-03  0.0000000E+00  0.1623160E-02
  0.5101010E+00  0.0000000E+00  0.1515152E-01  0.6449499E-04  0.0000000E+00  0.1709625E-02
  0.5202020E+00  0.0000000E+00  0.1515152E-01  0.1334022E-03  0.0000000E+00  0.1824450E-02
  0.5303030E+00  0.0000000E+00  0.1515152E-01  0.1828818E-03  0.0000000E+00  0.1942980E-02
  0.5404040E+00  0.0000000E+00  0.1515152E-01  0.2808759E-03  0.0000000E+00  0.2045717E-02
  0.5505050E+00  0.0000000E+00  0.1515152E-01  0.2316216E-03  0.0000000E+00  0.2134971E-02
  0.5606061E+00  0.0000000E+00  0.1515152E-01 -0.2350973E-03  0.0000000E+00  0.2110102E-02
  0.5707071E+00  0.0000000E+00  0.1515152E-01 -0.2188217E-03  0.0000000E+00  0.1972220E-02
  0.5808081E+00  0.0000000E+00  0.1515152E-01 -0.1497957E-03  0.0000000E+00  0.1879679E-02
  0.5909091E+00  0.0000000E+00  0.1515152E-01 -0.7852266E-04  0.0000000E+00  0.1822728E-02
  0.6010101E+00  0.0000000E+00  0.1515152E-01 -0.1795380E-03  0.0000000E+00  0.1762547E-02
  0.6111111E+00  0.0000000E+00  0.1515152E-01 -0.1287916E-03  0.0000000E+00  0.1690004E-02
  0.6212121E+00  0.0000000E+00  0.1515152E-01 -0.2022283E-03  0.0000000E+00  0.1554654E-02
  0.6313131E+00  0.0000000E+00  0.1515152E-01 -0.1868192E-03  0.0000000E+00  0.1403058E-02
  0.6414142E+00  0.0000000E+00  0.1515152E-01 -0.1477774E-03  0.0000000E+00  0.1290798E-02
  0.6515151E+00  0.0000000E+00  0.1515152E-01 -0.1379762E-03  0.0000000E+00  0.1187905E-02
  0.6616161E+00  0.0000000E+00  0.1515152E-01 -0.1224365E-03  0.0000000E+00  0.1093571E-02
  0.6717172E+00  0.0000000E+00  0.1515152E-01 -0.1433620E-03  0.0000000E+00  0.9911181E-03
  0.6818182E+00  0.0000000E+00  0.1515152E-01 -0.1119591E-03  0.0000000E+00  0.8906337E-03
  0.6919192E+00  0.0000000E+00  0.1515152E-01 -0.9521107E-04  0.0000000E+00  0.8163200E-03
  0.7020202E+00  0.0000000E+00  0.1515152E-01 -0.8484755E-04  0.0000000E+00  0.7521337E-03
  0.7121212E+00  0.0000000E+00  0.1515152E-01 -0.7724484E-04  0.0000000E+00  0.6940401E-03
  0.7222222E+00  0.0000000E+00  0.1515152E-01 -0.7066894E-04  0.0000000E+00  0.6409088E-03
  0.7323232E+00  0.0000000E+00  0.1515152E-01 -0.6441656E-04  0.0000000E+00  0.5924841E-03
  0.7424242E+00  0.0000000E+00  0.1515152E-01 -0.5838170E-04  0.0000000E+00  0.5486765E-03
  0.7525253E+00  0.0000000E+00  0.1515152E-01 -0.5267077E-04  0.0000000E+00  0.5092894E-03
  0.7626263E+00  0.0000000E+00  0.1515152E-01 -0.4739672E-04  0.0000000E+00  0.4739971E-03
  0.7727273E+00  0.0000000E+00  0.1515152E-01 -0.4261592E-04  0.0000000E+00  0.4424051E-03
  0.7828283E+00  0.0000000E+00  0.1515152E-01 -0.3833075E-04  0.0000000E+00  0.4141090E-03
  0.7929293E+00  0.0000000E+00  0.1515152E-01 -0.3450945E-04  0.0000000E+00  0.3887299E-03
  0.8030303E+00  0.0000000E+00  0.1515152E-01 -0.3110424E-04  0.0000000E+00  0.3659300E-03
  0.8131313E+00  0.0000000E+00  0.1515152E-01 -0.2806321E-04  0.0000000E+00  0.3454162E-03
  0.8232324E+00  0.0000000E+00  0.1515152E-01 -0.2533667E-04  0.0000000E+00  0.3269375E-03
  0.8333333E+00  0.0000000E+00  0.1515152E-01 -0.2288000E-04  0.0000000E+00  0.3102802E-03
  0.8434343E+00  0.0000000E+00  0.1515152E-01 -0.2065440E-04  0.0000000E+00  0.2952625E-03
  0.8535354E+00  0.0000000E+00  0.1515152E-01 -0.1862671E-04  0.0000000E+00  0.2817298E-03
  0.8636364E+00  0.0000000E+00  0.1515152E-01 -0.1676876E-04  0.0000000E+00  0.2695502E-03
  0.8737374E+00  0.0000000E+00  0.1515152E-01 -0.1505662E-04  0.0000000E+00  0.2586106E-03
  0.8838384E+00  0.0000000E+00  0.1515152E-01 -0.1346987E-04  0.0000000E+00  0.2488142E-03
  0.8939394E+00  0.0000000E+00  0.1515152E-01 -0.1199097E-04  0.0000000E+00  0.2400781E-03
  0.9040404E+00  0.0000000E+00  0.1515152E-01 -0.1060474E-04  0.0000000E+00  0.2323309E-03
  0.9141414E+00  0.0000000E+00  0.1515152E-01 -0.9297888E-05  0.0000000E+00  0.2255116E-03
  0.9242424E+00  0.0000000E+00  0.1515152E-01 -0.8058703E-05  0.0000000E+00  0.2195681E-03
  0.9343435E+00  0.0000000E+00  0.1515152E-01 -0.6876711E-05  0.0000000E+00  0.2144562E-03
  0.9444444E+00  0.0000000E+00  0.1515152E-01 -0.5742461E-05  0.0000000E+00  0.2101389E-03
  0.9545454E+00  0.0000000E+00  0.1515152E-01 -0.4647323E-05  0.0000000E+00  0.2065855E-03
  0.9646465E+00  0.0000000E+00  0.1515152E-01 -0.3583320E-05  0.0000000E+00  0.2037712E-03
  0.9747475E+00  0.0000000E+00  0.1515152E-01 -0.2542988E-05  0.0000000E+00  0.2016768E-03
  0.9848485E+00  0.0000000E+00  0.1515152E-01 -0.1519256E-05  0.0000000E+00  0.2002882E-03
  0.9974747E+00  0.0000000E+00  0.1515152E-01 -0.5053399E-06  0.0000000E+00  0.1995962E-03
  0.5050505E-02  0.0000000E+00  0.2525252E-01  0.1072352E-05  0.0000000E+00  0.2590787E-03
  0.1515152E-01  0.0000000E+00  0.2525252E-01  0.3222979E-05  0.0000000E+00  0.2599636E-03
  0.2525252E-01  0.0000000E+00  0.2525252E-01  0.5391656E-05  0.0000000E+00  0.2617380E-03
  0.3535353E-01  0.0000000E+00  0.2525252E-01  0.7591123E-05  0.0000000E+00  0.2644119E-03
  0.4545455E-01  0.0000000E+00  0.2525252E-01  0.9835038E-05  0.0000000E+00  0.2680007E-03
  0.5555556E-01  0.0000000E+00  0.2525252E-01  0.1213832E-04  0.0000000E+00  0.2725259E-03
  0.6565657E-01  0.0000000E+00  0.2525252E-01  0.1451757E-04  0.0000000E+00  0.2780155E-03
  0.7575758E-01  0.0000000E+00  0.2525252E-01  0.1699151E-04  0.0000000E+00  0.2845049E-03
  0.8585858E-01  0.0000000E+00  0.2525252E-01  0.1958151E-04  0.0000000E+00  0.2920377E-03
  0.9595960E-01  0.0000000E+00  0.2525252E-01  0.2231228E-04  0.0000000E+00  0.3006675E-03
  0.1060606E+00  0.0000000E+00  0.2525252E-01  0.2521261E-04  0.0000000E+00  0.3104586E-03
  0.1161616E+00  0.0000000E+00  0.2525252E-01  0.2831629E-04  0.0000000E+00  0.3214886E-03
  0.1262626E+00  0.0000000E+00  0.2525252E-01  0.3166327E-04  0.0000000E+00  0.3338504E-03
  0.1363636E+00  0.0000000E+00  0.2525252E-01  0.3530090E-04  0.0000000E+00  0.3476556E-03
  0.1464646E+00  0.0000000E+00  0.2525252E-01  0.3928539E-04  0.0000000E+00  0.3630380E-03
  0.1565657E+00  0.0000000E+00  0.2525252E-01  0.4368298E-04  0.0000000E+00  0.3801593E-03
  0.1666667E+00  0.0000000E+00  0.2525252E-01  0.4857022E-04  0.0000000E+00  0.3992156E-03
  0.1767677E+00  0.0000000E+00  0.2525252E-01  0.5403159E-04  0.0000000E+00  0.4204467E-03
  0.1868687E+00  0.0000000E+00  0.2525252E-01  0.6015072E-04  0.0000000E+00  0.4441469E-03
  0.1969697E+00  0.0000000E+00  0.2525252E-01  0.6698806E-04  0.0000000E+00  0.4706747E-03
  0.2070707E+00  0.0000000E+00  0.2525252E-01  0.7453166E-04  0.0000000E+00  0.5004515E-03
  0.2171717E+00  0.0000000E+00  0.2525252E-01  0.8260212E-04  0.0000000E+00  0.5339089E-03
  0.2272727E+00  0.0000000E+00  0.2525252E-01  0.9070448E-04  0.0000000E+00  0.5712911E-03
  0.2373737E+00  0.0000000E+00  0.2525252E-01  0.9795056E-04  0.0000000E+00  0.6121278E-03
  0.2474747E+00  0.0000000E+00  0.2525252E-01  0.1038710E-03  0.0000000E+00  0.6545468E-03
  0.2575758E+00  0.0000000E+00  0.2525252E-01  0.1139519E-03  0.0000000E+00  0.6987446E-03
  0.2676768E+00  0.0000000E+00  0.2525252E-01  0.1295074E-03  0.0000000E+00  0.7478580E-03
  0.2777778E+00  0.0000000E+00  0.2525252E-01  0.1519753E-03  0.0000000E+00  0.8058773E-03
  0.2878788E+00  0.0000000E+00  0.2525252E-01  0.1839821E-03  0.0000000E+00  0.8816539E-03
  0.2979798E+00  0.0000000E+00  0.2525252E-01  0.2008485E-03  0.0000000E+00  0.9730022E-03
  0.3080808E+00  0.0000000E+00  0.2525252E-01  0.2070348E-03  0.0000000E+00  0.1068091E-02
  0.3181818E+00  0.0000000E+00  0.2525252E-01  0.1811601E-03  0.0000000E+00  0.1144936E-02
  0.3282828E+00  0.0000000E+00  0.2525252E-01  0.1842869E-03  0.0000000E+00  0.1194810E-02
  0.3383838E+00  0.0000000E+00  0.2525252E-01  0.1712919E-03  0.0000000E+00  0.1277439E-02
  0.3484848E+00  0.0000000E+00  0.2525252E-01  0.1492354E-03  0.0000000E+00  0.1380680E-02
  0.3585859E+00  0.0000000E+00  0.2525252E-01  0.1603674E-03  0.0000000E+00  0.1451108E-02
  0.3686869E+00  0.0000000E+00  0.2525252E-01  0.1678406E-03  0.0000000E+00  0.1494891E-02
  0.3787879E+00  0.0000000E+00  0.2525252E-01  0.2377671E-03  0.0000000E+00  0.1520671E-02
  0.3888889E+00  0.0000000E+00  0.2525252E-01  0.3416212E-03  0.0000000E+00  0.1525739E-02
  0.3989899E+00  0.0000000E+00  0.2525252E-01 -0.2733873E-03  0.0000000E+00  0.1530816E-02
  0.4090909E+00  0.0000000E+00  0.2525252E-01 -0.1804257E-03  0.0000000E+00  0.1534952E-02
  0.4191919E+00  0.0000000E+00  0.2525252E-01 -0.1078171E-03  0.0000000E+00  0.1496277E-02
  0.4292929E+00  0.0000000E+00  0.2525252E-01 -0.8242922E-04  0.0000000E+00  0.1468056E-02
  0.4393939E+00  0.0000000E+00  0.2525252E-01 -0.3862732E-04  0.0000000E+00  0.1480391E-02
  0.4494950E+00  0.0000000E+00  0.2525252E-01 -0.4121340E-04  0.0000000E+00  0.1490833E-02
  0.4595959E+00  0.0000000E+00  0.2525252E-01 -0.3202620E-04  0.0000000E+00  0.1484868E-02
  0.4696970E+00  0.0000000E+00  0.2525252E-01  0.1647297E-04  0.0000000E+00  0.1484011E-02
  0.4797980E+00  0.0000000E+00  0.2525252E-01  0.5100929E-04  0.0000000E+00  0.1496733E-02
  0.4898990E+00  0.0000000E+00  0.2525252E-01  0.9873534E-04  0.0000000E+00  0.1509127E-02
  0.5000000E+00  0.0000000E+00  0.2525252E-01  0.1903366E-03  0.0000000E+00  0.1538810E-02
  0.5101010E+00  0.0000000E+00  0.2525252E-01  0.1594159E-03  0.0000000E+00  0.1628347E-02
  0.5202020E+00  0.0000000E+00  0.2525252E-01  0.2105442E-03  0.0000000E+00  0.1735251E-02
  0.5303030E+00  0.0000000E+00  0.2525252E-01  0.2289795E-03  0.0000000E+00  0.1781434E-02
  0.5404040E+00  0.0000000E+00  0.2525252E-01  0.2909713E-03  0.0000000E+00  0.1763231E-02
  0.5505050E+00  0.0000000E+00  0.2525252E-01  0.2701130E-03  0.0000000E+00  0.1752148E-02
  0.5606061E+00  0.0000000E+00  0.2525252E-01 -0.2874954E-03  0.0000000E+00  0.1759043E-02
  0.5707071E+00  0.0000000E+00  0.2525252E-01 -0.2474733E-03  0.0000000E+00  0.1778942E-02
  0.5808081E+00  0.0000000E+00  0.2525252E-01 -0.1692759E-03  0.0000000E+00  0.1799720E-02
  0.5909091E+00  0.0000000E+00  0.2525252E-01 -0.1549283E-03  0.0000000E+00  0.1727381E-02
  0.6010101E+00  0.0000000E+00  0.2525252E-01 -0.2063742E-03  0.0000000E+00  0.1649872E-02
  0.6111111E+00  0.0000000E+00  0.2525252E-01 -0.2275280E-03  0.0000000E+00  0.1560608E-02
  0.6212121E+00  0.0000000E+00  0.2525252E-01 -0.3473108E-03  0.0000000E+00  0.1396679E-02
  0.6313131E+00  0.0000000E+00  0.2525252E-01 -0.2940826E-03  0.0000000E+00  0.1246115E-02
  0.6414142E+00  0.0000000E+00  0.2525252E-01 -0.2179943E-03  0.0000000E+00  0.1148284E-02
  0.6515151E+00  0.0000000E+00  0.2525252E-01 -0.2349256E-03  0.0000000E+00  0.1056668E-02
  0.6616161E+00  0.0000000E+00  0.2525252E-01 -0.1965367E-03  0.0000000E+00  0.9549458E-03
  0.6717172E+00  0.0000000E+00  0.2525252E-01 -0.2088242E-03  0.0000000E+00  0.8988611E-03
  0.6818182E+00  0.0000000E+00  0.2525252E-01 -0.1727799E-03  0.0000000E+00  0.8573075E-03
  0.6919192E+00  0.0000000E+00  0.2525252E-01 -0.1522355E-03  0.0000000E+00  0.8004540E-03
  0.7020202E+00  0.0000000E+00  0.2525252E-01 -0.1385175E-03  0.0000000E+00  0.7424808E-03
  0.7121212E+00  0.0000000E+00  0.2525252E-01 -0.1276328E-03  0.0000000E+00  0.6866327E-03
  0.7222222E+00  0.0000000E+00  0.2525252E-01 -0.1174263E-03  0.0000000E+00  0.6341413E-03
  0.7323232E+00  0.0000000E+00  0.2525252E-01 -0.1071385E-03  0.0000000E+00  0.5858861E-03
  0.7424242E+00  0.0000000E+00  0.2525252E-01 -0.9698049E-04  0.0000000E+00  0.5423096E-03
  0.7525253E+00  0.0000000E+00  0.2525252E-01 -0.8734555E-04  0.0000000E+00  0.5033361E-03
  0.7626263E+00  0.0000000E+00  0.2525252E-01 -0.7849267E-04  0.0000000E+00  0.4685867E-03
  0.7727273E+00  0.0000000E+00  0.2525252E-01 -0.7051696E-04  0.0000000E+00  0.4375834E-03
  0.7828283E+00  0.0000000E+00  0.2525252E-01 -0.6340337E-04  0.0000000E+00  0.4098598E-03
  0.7929293E+00  0.0000000E+00  0.2525252E-01 -0.5708062E-04  0.0000000E+00  0.3850033E-03
  0.8030303E+00  0.0000000E+00  0.2525252E-01 -0.5145671E-04  0.0000000E+00  0.3626633E-03
  0.8131313E+00  0.0000000E+00  0.2525252E-01 -0.4643822E-04  0.0000000E+00  0.3425459E-03
  0.8232324E+00  0.0000000E+00  0.2525252E-01 -0.4193923E-04  0.0000000E+00  0.3244051E-03
  0.8333333E+00  0.0000000E+00  0.2525252E-01 -0.3788434E-04  0.0000000E+00  0.3080345E-03
  0.8434343E+00  0.0000000E+00  0.2525252E-01 -0.3420903E-04  0.0000000E+00  0.2932600E-03
  0.8535354E+00  0.0000000E+00  0.2525252E-01 -0.3085861E-04  0.0000000E+00  0.2799336E-03
  0.8636364E+00  0.0000000E+00  0.2525252E-01 -0.2778686E-04  0.0000000E+00  0.2679293E-03
  0.8737374E+00  0.0000000E+00  0.2525252E-01 -0.2495461E-04  0.0000000E+00  0.2571390E-03
  0.8838384E+00  0.0000000E+00  0.2525252E-01 -0.2232846E-04  0.0000000E+00  0.2474701E-03
  0.8939394E+00  0.0000000E+00  0.2525252E-01 -0.1987973E-04  0.0000000E+00  0.2388426E-03
  0.9040404E+00  0.0000000E+00  0.2525252E-01 -0.1758355E-04  0.0000000E+00  0.2311879E-03
  0.9141414E+00  0.0000000E+00  0.2525252E-01 -0.1541816E-04  0.0000000E+00  0.2244472E-03
  0.9242424E+00  0.0000000E+00  0.2525252E-01 -0.1336433E-04  0.0000000E+00  0.2185700E-03
  0.9343435E+00  0.0000000E+00  0.2525252E-01 -0.1140485E-04  0.0000000E+00  0.2135135E-03
  0.9444444E+00  0.0000000E+00  0.2525252E-01 -0.9524168E-05  0.0000000E+00  0.2092419E-03
  0.9545454E+00  0.0000000E+00  0.2525252E-01 -0.7708086E-05  0.0000000E+00  0.2057253E-03
  0.9646465E+00  0.0000000E+00  0.2525252E-01 -0.5943455E-05  0.0000000E+00  0.2029396E-03
  0.9747475E+00  0.0000000E+00  0.2525252E-01 -0.4217966E-05  0.0000000E+00  0.2008662E-03
  0.9848485E+00  0.0000000E+00  0.2525252E-01 -0.2519947E-05  0.0000000E+00  0.1994913E-03
  0.9974747E+00  0.0000000E+00  0.2525252E-01 -0.8381920E-06  0.0000000E+00  0.1988060E-03
  0.5050505E-02  0.0000000E+00  0.3535353E-01  0.1492791E-05  0.0000000E+00  0.2576477E-03
  0.1515152E-01  0.0000000E+00  0.3535353E-01  0.4486504E-05  0.0000000E+00  0.2585223E-03
  0.2525252E-01  0.0000000E+00  0.3535353E-01  0.7504963E-05  0.0000000E+00  0.2602757E-03
  0.3535353E-01  0.0000000E+00  0.3535353E-01  0.1056558E-04  0.0000000E+00  0.2629169E-03
  0.4545455E-01  0.0000000E+00  0.3535353E-01  0.1368701E-04  0.0000000E+00  0.2664602E-03
  0.5555556E-01  0.0000000E+00  0.3535353E-01  0.1688960E-04  0.0000000E+00  0.2709254E-03
  0.6565657E-01  0.0000000E+00  0.3535353E-01  0.2019596E-04  0.0000000E+00  0.2763384E-03
  0.7575758E-01  0.0000000E+00  0.3535353E-01  0.2363158E-04  0.0000000E+00  0.2827320E-03
  0.8585858E-01  0.0000000E+00  0.3535353E-01  0.2722555E-04  0.0000000E+00  0.2901465E-03
  0.9595960E-01  0.0000000E+00  0.3535353E-01  0.3101143E-04  0.0000000E+00  0.2986313E-03
  0.1060606E+00  0.0000000E+00  0.3535353E-01  0.3502828E-04  0.0000000E+00  0.3082454E-03
  0.1161616E+00  0.0000000E+00  0.3535353E-01  0.3932198E-04  0.0000000E+00  0.3190603E-03
  0.1262626E+00  0.0000000E+00  0.3535353E-01  0.4394679E-04  0.0000000E+00  0.3311608E-03
  0.1363636E+00  0.0000000E+00  0.3535353E-01  0.4896732E-04  0.0000000E+00  0.3446490E-03
  0.1464646E+00  0.0000000E+00  0.3535353E-01  0.5446095E-04  0.0000000E+00  0.3596474E-03
  0.1565657E+00  0.0000000E+00  0.3535353E-01  0.6052066E-04  0.0000000E+00  0.3763045E-03
  0.1666667E+00  0.0000000E+00  0.3535353E-01  0.6725785E-04  0.0000000E+00  0.3948036E-03
  0.1767677E+00  0.0000000E+00  0.3535353E-01  0.7480387E-04  0.0000000E+00  0.4153761E-03
  0.1868687E+00  0.0000000E+00  0.3535353E-01  0.8330677E-04  0.0000000E+00  0.4383241E-03
  0.1969697E+00  0.0000000E+00  0.3535353E-01  0.9291425E-04  0.0000000E+00  0.4640557E-03
  0.2070707E+00  0.0000000E+00  0.3535353E-01  0.1037206E-03  0.0000000E+00  0.4931365E-03
  0.2171717E+00  0.0000000E+00  0.3535353E-01  0.1156190E-03  0.0000000E+00  0.5263328E-03
  0.2272727E+00  0.0000000E+00  0.3535353E-01  0.1279065E-03  0.0000000E+00  0.5644858E-03
  0.2373737E+00  0.0000000E+00  0.3535353E-01  0.1382501E-03  0.0000000E+00  0.6074212E-03
  0.2474747E+00  0.0000000E+00  0.3535353E-01  0.1402697E-03  0.0000000E+00  0.6484579E-03
  0.2575758E+00  0.0000000E+00  0.3535353E-01  0.1525809E-03  0.0000000E+00  0.6865139E-03
  0.2676768E+00  0.0000000E+00  0.3535353E-01  0.1728110E-03  0.0000000E+00  0.7277486E-03
  0.2777778E+00  0.0000000E+00  0.3535353E-01  0.2024283E-03  0.0000000E+00  0.7737033E-03
  0.2878788E+00  0.0000000E+00  0.3535353E-01  0.2471302E-03  0.0000000E+00  0.8246427E-03
  0.2979798E+00  0.0000000E+00  0.3535353E-01  0.2672090E-03  0.0000000E+00  0.8790425E-03