title = "dataset water"
variables = "x", "y", "z", "vx", "vy", "vz"
zone t = "velocities, solution time =  3.900E+01 days        " i =   99, j =   99, k =    1,  f=point
  0.5050505E-02  0.0000000E+00  0.5050505E-02  0.8386278E-07  0.0000000E+00  0.7211738E-04
  0.1515152E-01  0.0000000E+00  0.5050505E-02  0.2518968E-06  0.0000000E+00  0.7245711E-04
  0.2525252E-01  0.0000000E+00  0.5050505E-02  0.4208630E-06  0.0000000E+00  0.7313784E-04
  0.3535353E-01  0.0000000E+00  0.5050505E-02  0.5913919E-06  0.0000000E+00  0.7416218E-04
  0.4545455E-01  0.0000000E+00  0.5050505E-02  0.7641197E-06  0.0000000E+00  0.7553405E-04
  0.5555556E-01  0.0000000E+00  0.5050505E-02  0.9396893E-06  0.0000000E+00  0.7725871E-04
  0.6565657E-01  0.0000000E+00  0.5050505E-02  0.1118750E-05  0.0000000E+00  0.7934278E-04
  0.7575758E-01  0.0000000E+00  0.5050505E-02  0.1301959E-05  0.0000000E+00  0.8179425E-04
  0.8585858E-01  0.0000000E+00  0.5050505E-02  0.1489981E-05  0.0000000E+00  0.8462252E-04
  0.9595960E-01  0.0000000E+00  0.5050505E-02  0.1683494E-05  0.0000000E+00  0.8783841E-04
  0.1060606E+00  0.0000000E+00  0.5050505E-02  0.1883182E-05  0.0000000E+00  0.9145416E-04
  0.1161616E+00  0.0000000E+00  0.5050505E-02  0.2089746E-05  0.0000000E+00  0.9548354E-04
  0.1262626E+00  0.0000000E+00  0.5050505E-02  0.2303897E-05  0.0000000E+00  0.9994181E-04
  0.1363636E+00  0.0000000E+00  0.5050505E-02  0.2526360E-05  0.0000000E+00  0.1048458E-03
  0.1464646E+00  0.0000000E+00  0.5050505E-02  0.2757876E-05  0.0000000E+00  0.1102139E-03
  0.1565657E+00  0.0000000E+00  0.5050505E-02  0.2999200E-05  0.0000000E+00  0.1160661E-03
  0.1666667E+00  0.0000000E+00  0.5050505E-02  0.3251103E-05  0.0000000E+00  0.1224243E-03
  0.1767677E+00  0.0000000E+00  0.5050505E-02  0.3514370E-05  0.0000000E+00  0.1293119E-03
  0.1868687E+00  0.0000000E+00  0.5050505E-02  0.3789802E-05  0.0000000E+00  0.1367542E-03
  0.1969697E+00  0.0000000E+00  0.5050505E-02  0.4078215E-05  0.0000000E+00  0.1447782E-03
  0.2070707E+00  0.0000000E+00  0.5050505E-02  0.4380441E-05  0.0000000E+00  0.1534130E-03
  0.2171717E+00  0.0000000E+00  0.5050505E-02  0.4697334E-05  0.0000000E+00  0.1626896E-03
  0.2272727E+00  0.0000000E+00  0.5050505E-02  0.5029781E-05  0.0000000E+00  0.1726411E-03
  0.2373737E+00  0.0000000E+00  0.5050505E-02  0.5378723E-05  0.0000000E+00  0.1833025E-03
  0.2474747E+00  0.0000000E+00  0.5050505E-02  0.5745206E-05  0.0000000E+00  0.1947115E-03
  0.2575758E+00  0.0000000E+00  0.5050505E-02  0.6130473E-05  0.0000000E+00  0.2069084E-03
  0.2676768E+00  0.0000000E+00  0.5050505E-02  0.6536134E-05  0.0000000E+00  0.2199370E-03
  0.2777778E+00  0.0000000E+00  0.5050505E-02  0.6964483E-05  0.0000000E+00  0.2338454E-03
  0.2878788E+00  0.0000000E+00  0.5050505E-02  0.7419076E-05  0.0000000E+00  0.2486885E-03
  0.2979798E+00  0.0000000E+00  0.5050505E-02  0.7905764E-05  0.0000000E+00  0.2645315E-03
  0.3080808E+00  0.0000000E+00  0.5050505E-02  0.8434591E-05  0.0000000E+00  0.2814568E-03
  0.3181818E+00  0.0000000E+00  0.5050505E-02  0.9023287E-05  0.0000000E+00  0.2995768E-03
  0.3282828E+00  0.0000000E+00  0.5050505E-02  0.9703980E-05  0.0000000E+00  0.3190572E-03
  0.3383838E+00  0.0000000E+00  0.5050505E-02  0.1053686E-04  0.0000000E+00  0.3401618E-03
  0.3484848E+00  0.0000000E+00  0.5050505E-02  0.1164040E-04  0.0000000E+00  0.3633449E-03
  0.3585859E+00  0.0000000E+00  0.5050505E-02  0.1326522E-04  0.0000000E+00  0.3894539E-03
  0.3686869E+00  0.0000000E+00  0.5050505E-02  0.1599609E-04  0.0000000E+00  0.4202276E-03
  0.3787879E+00  0.0000000E+00  0.5050505E-02  0.2136818E-04  0.0000000E+00  0.4596745E-03
  0.3888889E+00  0.0000000E+00  0.5050505E-02  0.3395278E-04  0.0000000E+00  0.5183758E-03
  0.3989899E+00  0.0000000E+00  0.5050505E-02 -0.2598393E-04  0.0000000E+00  0.5267934E-03
  0.4090909E+00  0.0000000E+00  0.5050505E-02 -0.1317607E-04  0.0000000E+00  0.4851163E-03
  0.4191919E+00  0.0000000E+00  0.5050505E-02 -0.7389509E-05  0.0000000E+00  0.4632923E-03
  0.4292929E+00  0.0000000E+00  0.5050505E-02 -0.4086683E-05  0.0000000E+00  0.4511331E-03
  0.4393939E+00  0.0000000E+00  0.5050505E-02 -0.1763255E-05  0.0000000E+00  0.4449399E-03
  0.4494950E+00  0.0000000E+00  0.5050505E-02  0.1459088E-06  0.0000000E+00  0.4432283E-03
  0.4595959E+00  0.0000000E+00  0.5050505E-02  0.1886016E-05  0.0000000E+00  0.4453788E-03
  0.4696970E+00  0.0000000E+00  0.5050505E-02  0.3586122E-05  0.0000000E+00  0.4511722E-03
  0.4797980E+00  0.0000000E+00  0.5050505E-02  0.5334556E-05  0.0000000E+00  0.4606233E-03
  0.4898990E+00  0.0000000E+00  0.5050505E-02  0.7214006E-05  0.0000000E+00  0.4739332E-03
  0.5000000E+00  0.0000000E+00  0.5050505E-02  0.9328599E-05  0.0000000E+00  0.4915079E-03
  0.5101010E+00  0.0000000E+00  0.5050505E-02  0.1184316E-04  0.0000000E+00  0.5140487E-03
  0.5202020E+00  0.0000000E+00  0.5050505E-02  0.1506793E-04  0.0000000E+00  0.5427786E-03
  0.5303030E+00  0.0000000E+00  0.5050505E-02  0.1967957E-04  0.0000000E+00  0.5800054E-03
  0.5404040E+00  0.0000000E+00  0.5050505E-02  0.2736339E-04  0.0000000E+00  0.6306380E-03
  0.5505050E+00  0.0000000E+00  0.5050505E-02  0.4276211E-04  0.0000000E+00  0.7066001E-03
  0.5606061E+00  0.0000000E+00  0.5050505E-02 -0.4310861E-04  0.0000000E+00  0.7062279E-03
  0.5707071E+00  0.0000000E+00  0.5050505E-02 -0.3296979E-04  0.0000000E+00  0.6239007E-03
  0.5808081E+00  0.0000000E+00  0.5050505E-02 -0.2690793E-04  0.0000000E+00  0.5596150E-03
  0.5909091E+00  0.0000000E+00  0.5050505E-02 -0.2262780E-04  0.0000000E+00  0.5067737E-03
  0.6010101E+00  0.0000000E+00  0.5050505E-02 -0.1951181E-04  0.0000000E+00  0.4620657E-03
  0.6111111E+00  0.0000000E+00  0.5050505E-02 -0.1716513E-04  0.0000000E+00  0.4233360E-03
  0.6212121E+00  0.0000000E+00  0.5050505E-02 -0.1531801E-04  0.0000000E+00  0.3891766E-03
  0.6313131E+00  0.0000000E+00  0.5050505E-02 -0.1380075E-04  0.0000000E+00  0.3586683E-03
  0.6414142E+00  0.0000000E+00  0.5050505E-02 -0.1251162E-04  0.0000000E+00  0.3311920E-03
  0.6515151E+00  0.0000000E+00  0.5050505E-02 -0.1138992E-04  0.0000000E+00  0.3063084E-03
  0.6616161E+00  0.0000000E+00  0.5050505E-02 -0.1039839E-04  0.0000000E+00  0.2836870E-03
  0.6717172E+00  0.0000000E+00  0.5050505E-02 -0.9512833E-05  0.0000000E+00  0.2630662E-03
  0.6818182E+00  0.0000000E+00  0.5050505E-02 -0.8716449E-05  0.0000000E+00  0.2442305E-03
  0.6919192E+00  0.0000000E+00  0.5050505E-02 -0.7996761E-05  0.0000000E+00  0.2269974E-03
  0.7020202E+00  0.0000000E+00  0.5050505E-02 -0.7344003E-05  0.0000000E+00  0.2112097E-03
  0.7121212E+00  0.0000000E+00  0.5050505E-02 -0.6750217E-05  0.0000000E+00  0.1967305E-03
  0.7222222E+00  0.0000000E+00  0.5050505E-02 -0.6208736E-05  0.0000000E+00  0.1834391E-03
  0.7323232E+00  0.0000000E+00  0.5050505E-02 -0.5713865E-05  0.0000000E+00  0.1712288E-03
  0.7424242E+00  0.0000000E+00  0.5050505E-02 -0.5260669E-05  0.0000000E+00  0.1600048E-03
  0.7525253E+00  0.0000000E+00  0.5050505E-02 -0.4844829E-05  0.0000000E+00  0.1496826E-03
  0.7626263E+00  0.0000000E+00  0.5050505E-02 -0.4462528E-05  0.0000000E+00  0.1401866E-03
  0.7727273E+00  0.0000000E+00  0.5050505E-02 -0.4110379E-05  0.0000000E+00  0.1314493E-03
  0.7828283E+00  0.0000000E+00  0.5050505E-02 -0.3785352E-05  0.0000000E+00  0.1234101E-03
  0.7929293E+00  0.0000000E+00  0.5050505E-02 -0.3484735E-05  0.0000000E+00  0.1160145E-03
  0.8030303E+00  0.0000000E+00  0.5050505E-02 -0.3206085E-05  0.0000000E+00  0.1092139E-03
  0.8131313E+00  0.0000000E+00  0.5050505E-02 -0.2947202E-05  0.0000000E+00  0.1029644E-03
  0.8232324E+00  0.0000000E+00  0.5050505E-02 -0.2706094E-05  0.0000000E+00  0.9722673E-04
  0.8333333E+00  0.0000000E+00  0.5050505E-02 -0.2480962E-05  0.0000000E+00  0.9196564E-04
  0.8434343E+00  0.0000000E+00  0.5050505E-02 -0.2270171E-05  0.0000000E+00  0.8714953E-04
  0.8535354E+00  0.0000000E+00  0.5050505E-02 -0.2072237E-05  0.0000000E+00  0.8275010E-04
  0.8636364E+00  0.0000000E+00  0.5050505E-02 -0.1885810E-05  0.0000000E+00  0.7874204E-04
  0.8737374E+00  0.0000000E+00  0.5050505E-02 -0.1709657E-05  0.0000000E+00  0.7510277E-04
  0.8838384E+00  0.0000000E+00  0.5050505E-02 -0.1542650E-05  0.0000000E+00  0.7181215E-04
  0.8939394E+00  0.0000000E+00  0.5050505E-02 -0.1383756E-05  0.0000000E+00  0.6885235E-04
  0.9040404E+00  0.0000000E+00  0.5050505E-02 -0.1232021E-05  0.0000000E+00  0.6620758E-04
  0.9141414E+00  0.0000000E+00  0.5050505E-02 -0.1086565E-05  0.0000000E+00  0.6386397E-04
  0.9242424E+00  0.0000000E+00  0.5050505E-02 -0.9465700E-06  0.0000000E+00  0.6180941E-04
  0.9343435E+00  0.0000000E+00  0.5050505E-02 -0.8112733E-06  0.0000000E+00  0.6003342E-04
  0.9444444E+00  0.0000000E+00  0.5050505E-02 -0.6799573E-06  0.0000000E+00  0.5852708E-04
  0.9545454E+00  0.0000000E+00  0.5050505E-02 -0.5519440E-06  0.0000000E+00  0.5728288E-04
  0.9646465E+00  0.0000000E+00  0.5050505E-02 -0.4265881E-06  0.0000000E+00  0.5629470E-04
  0.9747475E+00  0.0000000E+00  0.5050505E-02 -0.3032702E-06  0.0000000E+00  0.5555772E-04
  0.9848485E+00  0.0000000E+00  0.5050505E-02 -0.1813918E-06  0.0000000E+00  0.5506835E-04
  0.9974747E+00  0.0000000E+00  0.5050505E-02 -0.6036947E-07  0.0000000E+00  0.5482425E-04
  0.5050505E-02  0.0000000E+00  0.1515152E-01  0.2513059E-06  0.0000000E+00  0.7207996E-04
  0.1515152E-01  0.0000000E+00  0.1515152E-01  0.7548465E-06  0.0000000E+00  0.7241954E-04
  0.2525252E-01  0.0000000E+00  0.1515152E-01  0.1261190E-05  0.0000000E+00  0.7309996E-04
  0.3535353E-01  0.0000000E+00  0.1515152E-01  0.1772226E-05  0.0000000E+00  0.7412383E-04
  0.4545455E-01  0.0000000E+00  0.1515152E-01  0.2289866E-05  0.0000000E+00  0.7549505E-04
  0.5555556E-01  0.0000000E+00  0.1515152E-01  0.2816035E-05  0.0000000E+00  0.7721888E-04
  0.6565657E-01  0.0000000E+00  0.1515152E-01  0.3352680E-05  0.0000000E+00  0.7930195E-04
  0.7575758E-01  0.0000000E+00  0.1515152E-01  0.3901772E-05  0.0000000E+00  0.8175223E-04
  0.8585858E-01  0.0000000E+00  0.1515152E-01  0.4465308E-05  0.0000000E+00  0.8457912E-04
  0.9595960E-01  0.0000000E+00  0.1515152E-01  0.5045313E-05  0.0000000E+00  0.8779344E-04
  0.1060606E+00  0.0000000E+00  0.1515152E-01  0.5643846E-05  0.0000000E+00  0.9140744E-04
  0.1161616E+00  0.0000000E+00  0.1515152E-01  0.6263004E-05  0.0000000E+00  0.9543487E-04
  0.1262626E+00  0.0000000E+00  0.1515152E-01  0.6904921E-05  0.0000000E+00  0.9989099E-04
  0.1363636E+00  0.0000000E+00  0.1515152E-01  0.7571774E-05  0.0000000E+00  0.1047926E-03
  0.1464646E+00  0.0000000E+00  0.1515152E-01  0.8265784E-05  0.0000000E+00  0.1101582E-03
  0.1565657E+00  0.0000000E+00  0.1515152E-01  0.8989217E-05  0.0000000E+00  0.1160077E-03
  0.1666667E+00  0.0000000E+00  0.1515152E-01  0.9744387E-05  0.0000000E+00  0.1223629E-03
  0.1767677E+00  0.0000000E+00  0.1515152E-01  0.1053365E-04  0.0000000E+00  0.1292474E-03
  0.1868687E+00  0.0000000E+00  0.1515152E-01  0.1135941E-04  0.0000000E+00  0.1366864E-03
  0.1969697E+00  0.0000000E+00  0.1515152E-01  0.1222410E-04  0.0000000E+00  0.1447069E-03
  0.2070707E+00  0.0000000E+00  0.1515152E-01  0.1313024E-04  0.0000000E+00  0.1533381E-03
  0.2171717E+00  0.0000000E+00  0.1515152E-01  0.1408035E-04  0.0000000E+00  0.1626109E-03
  0.2272727E+00  0.0000000E+00  0.1515152E-01  0.1507708E-04  0.0000000E+00  0.1725583E-03
  0.2373737E+00  0.0000000E+00  0.1515152E-01  0.1612321E-04  0.0000000E+00  0.1832154E-03
  0.2474747E+00  0.0000000E+00  0.1515152E-01  0.1722177E-04  0.0000000E+00  0.1946195E-03
  0.2575758E+00  0.0000000E+00  0.1515152E-01  0.1837633E-04  0.0000000E+00  0.2068105E-03
  0.2676768E+00  0.0000000E+00  0.1515152E-01  0.1959138E-04  0.0000000E+00  0.2198309E-03
  0.2777778E+00  0.0000000E+00  0.1515152E-01  0.2087325E-04  0.0000000E+00  0.2337273E-03
  0.2878788E+00  0.0000000E+00  0.1515152E-01  0.2223158E-04  0.0000000E+00  0.2485508E-03
  0.2979798E+00  0.0000000E+00  0.1515152E-01  0.2368209E-04  0.0000000E+00  0.2643601E-03
  0.3080808E+00  0.0000000E+00  0.1515152E-01  0.2525152E-04  0.0000000E+00  0.2812259E-03
  0.3181818E+00  0.0000000E+00  0.1515152E-01  0.2698662E-04  0.0000000E+00  0.2992382E-03
  0.3282828E+00  0.0000000E+00  0.1515152E-01  0.2897072E-04  0.0000000E+00  0.3185201E-03
  0.3383838E+00  0.0000000E+00  0.1515152E-01  0.3135568E-04  0.0000000E+00  0.3392489E-03
  0.3484848E+00  0.0000000E+00  0.1515152E-01  0.3442691E-04  0.0000000E+00  0.3616880E-03
  0.3585859E+00  0.0000000E+00  0.1515152E-01  0.3874564E-04  0.0000000E+00  0.3862178E-03
  0.3686869E+00  0.0000000E+00  0.1515152E-01  0.4548632E-04  0.0000000E+00  0.4132923E-03
  0.3787879E+00  0.0000000E+00  0.1515152E-01  0.5729835E-04  0.0000000E+00  0.4429339E-03
  0.3888889E+00  0.0000000E+00  0.1515152E-01  0.8064477E-04  0.0000000E+00  0.4718977E-03
  0.3989899E+00  0.0000000E+00  0.1515152E-01 -0.5691030E-04  0.0000000E+00  0.4801176E-03
  0.4090909E+00  0.0000000E+00  0.1515152E-01 -0.3288057E-04  0.0000000E+00  0.4678146E-03
  0.4191919E+00  0.0000000E+00  0.1515152E-01 -0.1979770E-04  0.0000000E+00  0.4554986E-03
  0.4292929E+00  0.0000000E+00  0.1515152E-01 -0.1131616E-04  0.0000000E+00  0.4468059E-03
  0.4393939E+00  0.0000000E+00  0.1515152E-01 -0.4888315E-05  0.0000000E+00  0.4420099E-03
  0.4494950E+00  0.0000000E+00  0.1515152E-01  0.5982619E-06  0.0000000E+00  0.4408853E-03
  0.4595959E+00  0.0000000E+00  0.1515152E-01  0.5688467E-05  0.0000000E+00  0.4432491E-03
  0.4696970E+00  0.0000000E+00  0.1515152E-01  0.1069861E-04  0.0000000E+00  0.4490391E-03
  0.4797980E+00  0.0000000E+00  0.1515152E-01  0.1586021E-04  0.0000000E+00  0.4583167E-03
  0.4898990E+00  0.0000000E+00  0.1515152E-01  0.2139569E-04  0.0000000E+00  0.4712674E-03
  0.5000000E+00  0.0000000E+00  0.1515152E-01  0.2758072E-04  0.0000000E+00  0.4882150E-03
  0.5101010E+00  0.0000000E+00  0.1515152E-01  0.3483119E-04  0.0000000E+00  0.5096550E-03
  0.5202020E+00  0.0000000E+00  0.1515152E-01  0.4387361E-04  0.0000000E+00  0.5362988E-03
  0.5303030E+00  0.0000000E+00  0.1515152E-01  0.5614767E-04  0.0000000E+00  0.5690789E-03
  0.5404040E+00  0.0000000E+00  0.1515152E-01  0.7492985E-04  0.0000000E+00  0.6089389E-03
  0.5505050E+00  0.0000000E+00  0.1515152E-01  0.1091381E-03  0.0000000E+00  0.6563382E-03
  0.5606061E+00  0.0000000E+00  0.1515152E-01 -0.1052491E-03  0.0000000E+00  0.6612359E-03
  0.5707071E+00  0.0000000E+00  0.1515152E-01 -0.9517952E-04  0.0000000E+00  0.6090992E-03
  0.5808081E+00  0.0000000E+00  0.1515152E-01 -0.7909373E-04  0.0000000E+00  0.5506395E-03
  0.5909091E+00  0.0000000E+00  0.1515152E-01 -0.6681196E-04  0.0000000E+00  0.5006988E-03
  0.6010101E+00  0.0000000E+00  0.1515152E-01 -0.5782557E-04  0.0000000E+00  0.4578732E-03
  0.6111111E+00  0.0000000E+00  0.1515152E-01 -0.5103556E-04  0.0000000E+00  0.4203591E-03
  0.6212121E+00  0.0000000E+00  0.1515152E-01 -0.4565267E-04  0.0000000E+00  0.3869756E-03
  0.6313131E+00  0.0000000E+00  0.1515152E-01 -0.4119643E-04  0.0000000E+00  0.3569720E-03
  0.6414142E+00  0.0000000E+00  0.1515152E-01 -0.3738613E-04  0.0000000E+00  0.3298385E-03
  0.6515151E+00  0.0000000E+00  0.1515152E-01 -0.3405612E-04  0.0000000E+00  0.3052005E-03
  0.6616161E+00  0.0000000E+00  0.1515152E-01 -0.3110425E-04  0.0000000E+00  0.2827643E-03
  0.6717172E+00  0.0000000E+00  0.1515152E-01 -0.2846328E-04  0.0000000E+00  0.2622887E-03
  0.6818182E+00  0.0000000E+00  0.1515152E-01 -0.2608566E-04  0.0000000E+00  0.2435703E-03
  0.6919192E+00  0.0000000E+00  0.1515152E-01 -0.2393552E-04  0.0000000E+00  0.2264339E-03
  0.7020202E+00  0.0000000E+00  0.1515152E-01 -0.2198440E-04  0.0000000E+00  0.2107270E-03
  0.7121212E+00  0.0000000E+00  0.1515152E-01 -0.2020894E-04  0.0000000E+00  0.1963157E-03
  0.7222222E+00  0.0000000E+00  0.1515152E-01 -0.1858943E-04  0.0000000E+00  0.1830819E-03
  0.7323232E+00  0.0000000E+00  0.1515152E-01 -0.1710902E-04  0.0000000E+00  0.1709207E-03
  0.7424242E+00  0.0000000E+00  0.1515152E-01 -0.1575304E-04  0.0000000E+00  0.1597387E-03
  0.7525253E+00  0.0000000E+00  0.1515152E-01 -0.1450864E-04  0.0000000E+00  0.1494526E-03
  0.7626263E+00  0.0000000E+00  0.1515152E-01 -0.1336447E-04  0.0000000E+00  0.1399876E-03
  0.7727273E+00  0.0000000E+00  0.1515152E-01 -0.1231041E-04  0.0000000E+00  0.1312770E-03
  0.7828283E+00  0.0000000E+00  0.1515152E-01 -0.1133745E-04  0.0000000E+00  0.1232608E-03
  0.7929293E+00  0.0000000E+00  0.1515152E-01 -0.1043747E-04  0.0000000E+00  0.1158851E-03
  0.8030303E+00  0.0000000E+00  0.1515152E-01 -0.9603192E-05  0.0000000E+00  0.1091017E-03
  0.8131313E+00  0.0000000E+00  0.1515152E-01 -0.8828038E-05  0.0000000E+00  0.1028670E-03
  0.8232324E+00  0.0000000E+00  0.1515152E-01 -0.8106060E-05  0.0000000E+00  0.9714220E-04
  0.8333333E+00  0.0000000E+00  0.1515152E-01 -0.7431876E-05  0.0000000E+00  0.9189220E-04
  0.8434343E+00  0.0000000E+00  0.1515152E-01 -0.6800602E-05  0.0000000E+00  0.8708568E-04
  0.8535354E+00  0.0000000E+00  0.1515152E-01 -0.6207801E-05  0.0000000E+00  0.8269453E-04
  0.8636364E+00  0.0000000E+00  0.1515152E-01 -0.5649431E-05  0.0000000E+00  0.7869361E-04
  0.8737374E+00  0.0000000E+00  0.1515152E-01 -0.5121807E-05  0.0000000E+00  0.7506047E-04
  0.8838384E+00  0.0000000E+00  0.1515152E-01 -0.4621557E-05  0.0000000E+00  0.7177513E-04
  0.8939394E+00  0.0000000E+00  0.1515152E-01 -0.4145585E-05  0.0000000E+00  0.6881984E-04
  0.9040404E+00  0.0000000E+00  0.1515152E-01 -0.3691043E-05  0.0000000E+00  0.6617892E-04
  0.9141414E+00  0.0000000E+00  0.1515152E-01 -0.3255298E-05  0.0000000E+00  0.6383857E-04
  0.9242424E+00  0.0000000E+00  0.1515152E-01 -0.2835901E-05  0.0000000E+00  0.6178675E-04
  0.9343435E+00  0.0000000E+00  0.1515152E-01 -0.2430568E-05  0.0000000E+00  0.6001304E-04
  0.9444444E+00  0.0000000E+00  0.1515152E-01 -0.2037154E-05  0.0000000E+00  0.5850857E-04
  0.9545454E+00  0.0000000E+00  0.1515152E-01 -0.1653629E-05  0.0000000E+00  0.5726587E-04
  0.9646465E+00  0.0000000E+00  0.1515152E-01 -0.1278062E-05  0.0000000E+00  0.5627884E-04
  0.9747475E+00  0.0000000E+00  0.1515152E-01 -0.9085996E-06  0.0000000E+00  0.5554270E-04
  0.9848485E+00  0.0000000E+00  0.1515152E-01 -0.5434501E-06  0.0000000E+00  0.5505388E-04
  0.9974747E+00  0.0000000E+00  0.1515152E-01 -0.1808666E-06  0.0000000E+00  0.5481004E-04
  0.5050505E-02  0.0000000E+00  0.2525252E-01  0.4181536E-06  0.0000000E+00  0.7200848E-04
  0.1515152E-01  0.0000000E+00  0.2525252E-01  0.1256015E-05  0.0000000E+00  0.7234778E-04
  0.2525252E-01  0.0000000E+00  0.2525252E-01  0.2098559E-05  0.0000000E+00  0.7302762E-04
  0.3535353E-01  0.0000000E+00  0.2525252E-01  0.2948938E-05  0.0000000E+00  0.7405058E-04
  0.4545455E-01  0.0000000E+00  0.2525252E-01  0.3810333E-05  0.0000000E+00  0.7542058E-04
  0.5555556E-01  0.0000000E+00  0.2525252E-01  0.4685954E-05  0.0000000E+00  0.7714285E-04
  0.6565657E-01  0.0000000E+00  0.2525252E-01  0.5579044E-05  0.0000000E+00  0.7922403E-04
  0.7575758E-01  0.0000000E+00  0.2525252E-01  0.6492884E-05  0.0000000E+00  0.8167208E-04
  0.8585858E-01  0.0000000E+00  0.2525252E-01  0.7430801E-05  0.0000000E+00  0.8449641E-04
  0.9595960E-01  0.0000000E+00  0.2525252E-01  0.8396169E-05  0.0000000E+00  0.8770781E-04
  0.1060606E+00  0.0000000E+00  0.2525252E-01  0.9392419E-05  0.0000000E+00  0.9131855E-04
  0.1161616E+00  0.0000000E+00  0.2525252E-01  0.1042304E-04  0.0000000E+00  0.9534237E-04
  0.1262626E+00  0.0000000E+00  0.2525252E-01  0.1149160E-04  0.0000000E+00  0.9979452E-04
  0.1363636E+00  0.0000000E+00  0.2525252E-01  0.1260171E-04  0.0000000E+00  0.1046918E-03
  0.1464646E+00  0.0000000E+00  0.2525252E-01  0.1375709E-04  0.0000000E+00  0.1100527E-03
  0.1565657E+00  0.0000000E+00  0.2525252E-01  0.1496152E-04  0.0000000E+00  0.1158973E-03
  0.1666667E+00  0.0000000E+00  0.2525252E-01  0.1621885E-04  0.0000000E+00  0.1222472E-03
  0.1767677E+00  0.0000000E+00  0.2525252E-01  0.1753301E-04  0.0000000E+00  0.1291261E-03
  0.1868687E+00  0.0000000E+00  0.2525252E-01  0.1890801E-04  0.0000000E+00  0.1365592E-03
  0.1969697E+00  0.0000000E+00  0.2525252E-01  0.2034793E-04  0.0000000E+00  0.1445736E-03
  0.2070707E+00  0.0000000E+00  0.2525252E-01  0.2185691E-04  0.0000000E+00  0.1531985E-03
  0.2171717E+00  0.0000000E+00  0.2525252E-01  0.2343918E-04  0.0000000E+00  0.1624648E-03
  0.2272727E+00  0.0000000E+00  0.2525252E-01  0.2509905E-04  0.0000000E+00  0.1724055E-03
  0.2373737E+00  0.0000000E+00  0.2525252E-01  0.2684100E-04  0.0000000E+00  0.1830555E-03
  0.2474747E+00  0.0000000E+00  0.2525252E-01  0.2866985E-04  0.0000000E+00  0.1944518E-03
  0.2575758E+00  0.0000000E+00  0.2525252E-01  0.3059100E-04  0.0000000E+00  0.2066335E-03
  0.2676768E+00  0.0000000E+00  0.2525252E-01  0.3261103E-04  0.0000000E+00  0.2196417E-03
  0.2777778E+00  0.0000000E+00  0.2525252E-01  0.3473876E-04  0.0000000E+00  0.2335195E-03
  0.2878788E+00  0.0000000E+00  0.2525252E-01  0.3698724E-04  0.0000000E+00  0.2483126E-03
  0.2979798E+00  0.0000000E+00  0.2525252E-01  0.3937723E-04  0.0000000E+00  0.2640690E-03
  0.3080808E+00  0.0000000E+00  0.2525252E-01  0.4194350E-04  0.0000000E+00  0.2808402E-03
  0.3181818E+00  0.0000000E+00  0.2525252E-01  0.4474585E-04  0.0000000E+00  0.2986817E-03
  0.3282828E+00  0.0000000E+00  0.2525252E-01  0.4788830E-04  0.0000000E+00  0.3176533E-03
  0.3383838E+00  0.0000000E+00  0.2525252E-01  0.5155253E-04  0.0000000E+00  0.3378164E-03
  0.3484848E+00  0.0000000E+00  0.2525252E-01  0.5605603E-04  0.0000000E+00  0.3592144E-03
  0.3585859E+00  0.0000000E+00  0.2525252E-01  0.6195210E-04  0.0000000E+00  0.3818041E-03
  0.3686869E+00  0.0000000E+00  0.2525252E-01  0.7019376E-04  0.0000000E+00  0.4052348E-03
  0.3787879E+00  0.0000000E+00  0.2525252E-01  0.8235145E-04  0.0000000E+00  0.4282262E-03
  0.3888889E+00  0.0000000E+00  0.2525252E-01  0.1006157E-03  0.0000000E+00  0.4471301E-03
  0.3989899E+00  0.0000000E+00  0.2525252E-01 -0.6169108E-04  0.0000000E+00  0.4549435E-03
  0.4090909E+00  0.0000000E+00  0.2525252E-01 -0.4220884E-04  0.0000000E+00  0.4519511E-03
  0.4191919E+00  0.0000000E+00  0.2525252E-01 -0.2781573E-04  0.0000000E+00  0.4456834E-03
  0.4292929E+00  0.0000000E+00  0.2525252E-01 -0.1657227E-04  0.0000000E+00  0.4401879E-03
  0.4393939E+00  0.0000000E+00  0.2525252E-01 -0.7105629E-05  0.0000000E+00  0.4369988E-03
  0.4494950E+00  0.0000000E+00  0.2525252E-01  0.1427124E-05  0.0000000E+00  0.4366351E-03
  0.4595959E+00  0.0000000E+00  0.2525252E-01  0.9554104E-05  0.0000000E+00  0.4392746E-03
  0.4696970E+00  0.0000000E+00  0.2525252E-01  0.1764368E-04  0.0000000E+00  0.4450117E-03
  0.4797980E+00  0.0000000E+00  0.2525252E-01  0.2599878E-04  0.0000000E+00  0.4539557E-03
  0.4898990E+00  0.0000000E+00  0.2525252E-01  0.3492292E-04  0.0000000E+00  0.4662641E-03
  0.5000000E+00  0.0000000E+00  0.2525252E-01  0.4478225E-04  0.0000000E+00  0.4821499E-03
  0.5101010E+00  0.0000000E+00  0.2525252E-01  0.5608577E-04  0.0000000E+00  0.5018646E-03
  0.5202020E+00  0.0000000E+00  0.2525252E-01  0.6960438E-04  0.0000000E+00  0.5256083E-03
  0.5303030E+00  0.0000000E+00  0.2525252E-01  0.8650487E-04  0.0000000E+00  0.5531399E-03
  0.5404040E+00  0.0000000E+00  0.2525252E-01  0.1081497E-03  0.0000000E+00  0.5818931E-03
  0.5505050E+00  0.0000000E+00  0.2525252E-01  0.1333875E-03  0.0000000E+00  0.5969925E-03
  0.5606061E+00  0.0000000E+00  0.2525252E-01 -0.1242802E-03  0.0000000E+00  0.5976880E-03
  0.5707071E+00  0.0000000E+00  0.2525252E-01 -0.1415407E-03  0.0000000E+00  0.5789361E-03
  0.5808081E+00  0.0000000E+00  0.2525252E-01 -0.1278390E-03  0.0000000E+00  0.5354248E-03
  0.5909091E+00  0.0000000E+00  0.2525252E-01 -0.1079784E-03  0.0000000E+00  0.4895334E-03
  0.6010101E+00  0.0000000E+00  0.2525252E-01 -0.9413245E-04  0.0000000E+00  0.4501551E-03
  0.6111111E+00  0.0000000E+00  0.2525252E-01 -0.8363314E-04  0.0000000E+00  0.4148630E-03
  0.6212121E+00  0.0000000E+00  0.2525252E-01 -0.7516352E-04  0.0000000E+00  0.3828714E-03
  0.6313131E+00  0.0000000E+00  0.2525252E-01 -0.6803116E-04  0.0000000E+00  0.3537711E-03
  0.6414142E+00  0.0000000E+00  0.2525252E-01 -0.6185471E-04  0.0000000E+00  0.3272585E-03
  0.6515151E+00  0.0000000E+00  0.2525252E-01 -0.5641155E-04  0.0000000E+00  0.3030734E-03
  0.6616161E+00  0.0000000E+00  0.2525252E-01 -0.5156148E-04  0.0000000E+00  0.2809844E-03
  0.6717172E+00  0.0000000E+00  0.2525252E-01 -0.4720854E-04  0.0000000E+00  0.2607849E-03
  0.6818182E+00  0.0000000E+00  0.2525252E-01 -0.4328196E-04  0.0000000E+00  0.2422915E-03
  0.6919192E+00  0.0000000E+00  0.2525252E-01 -0.3972648E-04  0.0000000E+00  0.2253415E-03
  0.7020202E+00  0.0000000E+00  0.2525252E-01 -0.3649722E-04  0.0000000E+00  0.2097907E-03
  0.7121212E+00  0.0000000E+00  0.2525252E-01 -0.3355671E-04  0.0000000E+00  0.1955113E-03
  0.7222222E+00  0.0000000E+00  0.2525252E-01 -0.3087310E-04  0.0000000E+00  0.1823893E-03
  0.7323232E+00  0.0000000E+00  0.2525252E-01 -0.2841891E-04  0.0000000E+00  0.1703234E-03
  0.7424242E+00  0.0000000E+00  0.2525252E-01 -0.2617019E-04  0.0000000E+00  0.1592230E-03
  0.7525253E+00  0.0000000E+00  0.2525252E-01 -0.2410587E-04  0.0000000E+00  0.1490068E-03
  0.7626263E+00  0.0000000E+00  0.2525252E-01 -0.2220732E-04  0.0000000E+00  0.1396021E-03
  0.7727273E+00  0.0000000E+00  0.2525252E-01 -0.2045789E-04  0.0000000E+00  0.1309434E-03
  0.7828283E+00  0.0000000E+00  0.2525252E-01 -0.1884271E-04  0.0000000E+00  0.1229719E-03
  0.7929293E+00  0.0000000E+00  0.2525252E-01 -0.1734842E-04  0.0000000E+00  0.1156349E-03
  0.8030303E+00  0.0000000E+00  0.2525252E-01 -0.1596298E-04  0.0000000E+00  0.1088849E-03
  0.8131313E+00  0.0000000E+00  0.2525252E-01 -0.1467551E-04  0.0000000E+00  0.1026791E-03
  0.8232324E+00  0.0000000E+00  0.2525252E-01 -0.1347620E-04  0.0000000E+00  0.9697928E-04
  0.8333333E+00  0.0000000E+00  0.2525252E-01 -0.1235612E-04  0.0000000E+00  0.9175087E-04
  0.8434343E+00  0.0000000E+00  0.2525252E-01 -0.1130719E-04  0.0000000E+00  0.8696299E-04
  0.8535354E+00  0.0000000E+00  0.2525252E-01 -0.1032207E-04  0.0000000E+00  0.8258792E-04
  0.8636364E+00  0.0000000E+00  0.2525252E-01 -0.9394061E-05  0.0000000E+00  0.7860087E-04
  0.8737374E+00  0.0000000E+00  0.2525252E-01 -0.8517057E-05  0.0000000E+00  0.7497966E-04
  0.8838384E+00  0.0000000E+00  0.2525252E-01 -0.7685469E-05  0.0000000E+00  0.7170457E-04
  0.8939394E+00  0.0000000E+00  0.2525252E-01 -0.6894167E-05  0.0000000E+00  0.6875805E-04
  0.9040404E+00  0.0000000E+00  0.2525252E-01 -0.6138429E-05  0.0000000E+00  0.6612460E-04
  0.9141414E+00  0.0000000E+00  0.2525252E-01 -0.5413886E-05  0.0000000E+00  0.6379059E-04
  0.9242424E+00  0.0000000E+00  0.2525252E-01 -0.4716481E-05  0.0000000E+00  0.6174409E-04
  0.9343435E+00  0.0000000E+00  0.2525252E-01 -0.4042424E-05  0.0000000E+00  0.5997482E-04
  0.9444444E+00  0.0000000E+00  0.2525252E-01 -0.3388156E-05  0.0000000E+00  0.5847398E-04
  0.9545454E+00  0.0000000E+00  0.2525252E-01 -0.2750310E-05  0.0000000E+00  0.5723419E-04
  0.9646465E+00  0.0000000E+00  0.2525252E-01 -0.2125681E-05  0.0000000E+00  0.5624941E-04
  0.9747475E+00  0.0000000E+00  0.2525252E-01 -0.1511193E-05  0.0000000E+00  0.5551490E-04
  0.9848485E+00  0.0000000E+00  0.2525252E-01 -0.9038731E-06  0.0000000E+00  0.5502714E-04
  0.9974747E+00  0.0000000E+00  0.2525252E-01 -0.3008194E-06  0.0000000E+00  0.5478383E-04
  0.5050505E-02  0.0000000E+00  0.3535353E-01  0.5843475E-06  0.0000000E+00  0.7190595E-04
  0.1515152E-01  0.0000000E+00  0.3535353E-01  0.1755225E-05  0.0000000E+00  0.7224483E-04
  0.2525252E-01  0.0000000E+00  0.3535353E-01  0.2932671E-05  0.0000000E+00  0.7292382E-04
  0.3535353E-01  0.0000000E+00  0.3535353E-01  0.4121102E-05  0.0000000E+00  0.7394550E-04
  0.4545455E-01  0.0000000E+00  0.3535353E-01  0.5324973E-05  0.0000000E+00  0.7531376E-04
  0.5555556E-01  0.0000000E+00  0.3535353E-01  0.6548773E-05  0.0000000E+00  0.7703383E-04
  0.6565657E-01  0.0000000E+00  0.3535353E-01  0.7797043E-05  0.0000000E+00  0.7911233E-04
  0.7575758E-01  0.0000000E+00  0.3535353E-01  0.9074374E-05  0.0000000E+00  0.8155725E-04
  0.8585858E-01  0.0000000E+00  0.3535353E-01  0.1038542E-04  0.0000000E+00  0.8437796E-04
  0.9595960E-01  0.0000000E+00  0.3535353E-01  0.1173491E-04  0.0000000E+00  0.8758528E-04
  0.1060606E+00  0.0000000E+00  0.3535353E-01  0.1312764E-04  0.0000000E+00  0.9119147E-04
  0.1161616E+00  0.0000000E+00  0.3535353E-01  0.1456849E-04  0.0000000E+00  0.9521027E-04
  0.1262626E+00  0.0000000E+00  0.3535353E-01  0.1606246E-04  0.0000000E+00  0.9965694E-04
  0.1363636E+00  0.0000000E+00  0.3535353E-01  0.1761463E-04  0.0000000E+00  0.1045483E-03
  0.1464646E+00  0.0000000E+00  0.3535353E-01  0.1923018E-04  0.0000000E+00  0.1099028E-03
  0.1565657E+00  0.0000000E+00  0.3535353E-01  0.2091443E-04  0.0000000E+00  0.1157405E-03
  0.1666667E+00  0.0000000E+00  0.3535353E-01  0.2267277E-04  0.0000000E+00  0.1220833E-03
  0.1767677E+00  0.0000000E+00  0.3535353E-01  0.2451073E-04  0.0000000E+00  0.1289546E-03
  0.1868687E+00  0.0000000E+00  0.3535353E-01  0.2643393E-04  0.0000000E+00  0.1363798E-03
  0.1969697E+00  0.0000000E+00  0.3535353E-01  0.2844810E-04  0.0000000E+00  0.1443862E-03
  0.2070707E+00  0.0000000E+00  0.3535353E-01  0.3055901E-04  0.0000000E+00  0.1530029E-03
  0.2171717E+00  0.0000000E+00  0.3535353E-01  0.3277256E-04  0.0000000E+00  0.1622609E-03
  0.2272727E+00  0.0000000E+00  0.3535353E-01  0.3509468E-04  0.0000000E+00  0.1721934E-03
  0.2373737E+00  0.0000000E+00  0.3535353E-01  0.3753144E-04  0.0000000E+00  0.1828352E-03
  0.2474747E+00  0.0000000E+00  0.3535353E-01  0.4008911E-04  0.0000000E+00  0.1942230E-03
  0.2575758E+00  0.0000000E+00  0.3535353E-01  0.4277438E-04  0.0000000E+00  0.2063954E-03
  0.2676768E+00  0.0000000E+00  0.3535353E-01  0.4559485E-04  0.0000000E+00  0.2193918E-03
  0.2777778E+00  0.0000000E+00  0.3535353E-01  0.4855993E-04  0.0000000E+00  0.2332525E-03
  0.2878788E+00  0.0000000E+00  0.3535353E-01  0.5168259E-04  0.0000000E+00  0.2480170E-03
  0.2979798E+00  0.0000000E+00  0.3535353E-01  0.5498253E-04  0.0000000E+00  0.2637226E-03