title = "dataset water"
variables = "x", "y", "z", "h_w", "p_w", "s_w", "theta_w", "transp", "evap", "transp2", "transp_tot"
zone t = "Flow variables, solution time =  5.100E+01 days        " i =  100, j =  100, k =    1,  f=point
  0.0000000E+00  0.0000000E+00  0.0000000E+00 -0.1000000E+02 -0.1000000E+02  0.4298033E+00  0.1839558E+00  0.0000000E+00  0.0000000E+00  0.0000000E+00  0.0000000E+00
  0.1010101E-01  0.0000000E+00  0.0000000E+00 -0.1000000E+02 -0.1000000E+02  0.4298033E+00  0.1839558E+00  0.0000000E+00  0.0000000E+00  0.0000000E+00  0.0000000E+00
  0.2020202E-01  0.0000000E+00  0.0000000E+00 -0.1000000E+02 -0.1000000E+02  0.4298033E+00  0.1839558E+00  0.0000000E+00  0.0000000E+00  0.0000000E+00  0.0000000E+00
  0.3030303E-01  0.0000000E+00  0.0000000E+00 -0.1000000E+02 -0.1000000E+02  0.4298033E+00  0.1839558E+00  0.0000000E+00  0.0000000E+00  0.0000000E+00  0.0000000E+00
  0.4040404E-01  0.0000000E+00  0.0000000E+00 -0.1000000E+02 -0.1000000E+02  0.4298033E+00  0.1839558E+00  0.0000000E+00  0.0000000E+00  0.0000000E+00  0.0000000E+00
  0.5050505E-01  0.0000000E+00  0.0000000E+00 -0.1000000E+02 -0.1000000E+02  0.4298033E+00  0.1839558E+00  0.0000000E+00  0.0000000E+00  0.0000000E+00  0.0000000E+00
  0.6060606E-01  0.0000000E+00  0.0000000E+00 -0.1000000E+02 -0.1000000E+02  0.4298033E+00  0.1839558E+00  0.0000000E+00  0.0000000E+00  0.0000000E+00  0.0000000E+00
  0.7070707E-01  0.0000000E+00  0.0000000E+00 -0.1000000E+02 -0.1000000E+02  0.4298033E+00  0.1839558E+00  0.0000000E+00  0.0000000E+00  0.0000000E+00  0.0000000E+00
  0.8080808E-01  0.0000000E+00  0.0000000E+00 -0.1000000E+02 -0.1000000E+02  0.4298033E+00  0.1839558E+00  0.0000000E+00  0.0000000E+00  0.0000000E+00  0.0000000E+00
  0.9090909E-01  0.0000000E+00  0.0000000E+00 -0.1000000E+02 -0.1000000E+02  0.4298033E+00  0.1839558E+00  0.0000000E+00  0.0000000E+00  0.0000000E+00  0.0000000E+00
  0.1010101E+00  0.0000000E+00  0.0000000E+00 -0.1000000E+02 -0.1000000E+02  0.4298033E+00  0.1839558E+00  0.0000000E+00  0.0000000E+00  0.0000000E+00  0.0000000E+00
  0.1111111E+00  0.0000000E+00  0.0000000E+00 -0.1000000E+02 -0.1000000E+02  0.4298033E+00  0.1839558E+00  0.0000000E+00  0.0000000E+00  0.0000000E+00  0.0000000E+00
  0.1212121E+00  0.0000000E+00  0.0000000E+00 -0.1000000E+02 -0.1000000E+02  0.4298033E+00  0.1839558E+00  0.0000000E+00  0.0000000E+00  0.0000000E+00  0.0000000E+00
  0.1313131E+00  0.0000000E+00  0.0000000E+00 -0.1000000E+02 -0.1000000E+02  0.4298033E+00  0.1839558E+00  0.0000000E+00  0.0000000E+00  0.0000000E+00  0.0000000E+00
  0.1414141E+00  0.0000000E+00  0.0000000E+00 -0.1000000E+02 -0.1000000E+02  0.4298033E+00  0.1839558E+00  0.0000000E+00  0.0000000E+00  0.0000000E+00  0.0000000E+00
  0.1515152E+00  0.0000000E+00  0.0000000E+00 -0.1000000E+02 -0.1000000E+02  0.4298033E+00  0.1839558E+00  0.0000000E+00  0.0000000E+00  0.0000000E+00  0.0000000E+00
  0.1616162E+00  0.0000000E+00  0.0000000E+00 -0.1000000E+02 -0.1000000E+02  0.4298033E+00  0.1839558E+00  0.0000000E+00  0.0000000E+00  0.0000000E+00  0.0000000E+00
  0.1717172E+00  0.0000000E+00  0.0000000E+00 -0.1000000E+02 -0.1000000E+02  0.4298033E+00  0.1839558E+00  0.0000000E+00  0.0000000E+00  0.0000000E+00  0.0000000E+00
  0.1818182E+00  0.0000000E+00  0.0000000E+00 -0.1000000E+02 -0.1000000E+02  0.4298033E+00  0.1839558E+00  0.0000000E+00  0.0000000E+00  0.0000000E+00  0.0000000E+00
  0.1919192E+00  0.0000000E+00  0.0000000E+00 -0.1000000E+02 -0.1000000E+02  0.4298033E+00  0.1839558E+00  0.0000000E+00  0.0000000E+00  0.0000000E+00  0.0000000E+00
  0.2020202E+00  0.0000000E+00  0.0000000E+00 -0.1000000E+02 -0.1000000E+02  0.4298033E+00  0.1839558E+00  0.0000000E+00  0.0000000E+00  0.0000000E+00  0.0000000E+00
  0.2121212E+00  0.0000000E+00  0.0000000E+00 -0.1000000E+02 -0.1000000E+02  0.4298033E+00  0.1839558E+00  0.0000000E+00  0.0000000E+00  0.0000000E+00  0.0000000E+00
  0.2222222E+00  0.0000000E+00  0.0000000E+00 -0.1000000E+02 -0.1000000E+02  0.4298033E+00  0.1839558E+00  0.0000000E+00  0.0000000E+00  0.0000000E+00  0.0000000E+00
  0.2323232E+00  0.0000000E+00  0.0000000E+00 -0.1000000E+02 -0.1000000E+02  0.4298033E+00  0.1839558E+00  0.0000000E+00  0.0000000E+00  0.0000000E+00  0.0000000E+00
  0.2424242E+00  0.0000000E+00  0.0000000E+00 -0.1000000E+02 -0.1000000E+02  0.4298033E+00  0.1839558E+00  0.0000000E+00  0.0000000E+00  0.0000000E+00  0.0000000E+00
  0.2525253E+00  0.0000000E+00  0.0000000E+00 -0.1000000E+02 -0.1000000E+02  0.4298033E+00  0.1839558E+00  0.0000000E+00  0.0000000E+00  0.0000000E+00  0.0000000E+00
  0.2626263E+00  0.0000000E+00  0.0000000E+00 -0.1000000E+02 -0.1000000E+02  0.4298033E+00  0.1839558E+00  0.0000000E+00  0.0000000E+00  0.0000000E+00  0.0000000E+00
  0.2727273E+00  0.0000000E+00  0.0000000E+00 -0.1000000E+02 -0.1000000E+02  0.4298033E+00  0.1839558E+00  0.0000000E+00  0.0000000E+00  0.0000000E+00  0.0000000E+00
  0.2828283E+00  0.0000000E+00  0.0000000E+00 -0.1000000E+02 -0.1000000E+02  0.4298033E+00  0.1839558E+00  0.0000000E+00  0.0000000E+00  0.0000000E+00  0.0000000E+00
  0.2929293E+00  0.0000000E+00  0.0000000E+00 -0.1000000E+02 -0.1000000E+02  0.4298033E+00  0.1839558E+00  0.0000000E+00  0.0000000E+00  0.0000000E+00  0.0000000E+00
  0.3030303E+00  0.0000000E+00  0.0000000E+00 -0.1000000E+02 -0.1000000E+02  0.4298033E+00  0.1839558E+00  0.3364620E-11  0.0000000E+00  0.0000000E+00  0.3364620E-11
  0.3131313E+00  0.0000000E+00  0.0000000E+00 -0.1000000E+02 -0.1000000E+02  0.4298033E+00  0.1839558E+00  0.6729232E-11  0.0000000E+00  0.0000000E+00  0.6729232E-11
  0.3232323E+00  0.0000000E+00  0.0000000E+00 -0.1000000E+02 -0.1000000E+02  0.4298033E+00  0.1839558E+00  0.0000000E+00  0.0000000E+00  0.0000000E+00  0.0000000E+00
  0.3333333E+00  0.0000000E+00  0.0000000E+00 -0.1000000E+02 -0.1000000E+02  0.4298033E+00  0.1839558E+00  0.0000000E+00  0.0000000E+00  0.0000000E+00  0.0000000E+00
  0.3434343E+00  0.0000000E+00  0.0000000E+00 -0.1000000E+02 -0.1000000E+02  0.4298033E+00  0.1839558E+00  0.0000000E+00  0.0000000E+00  0.0000000E+00  0.0000000E+00
  0.3535354E+00  0.0000000E+00  0.0000000E+00 -0.1000000E+02 -0.1000000E+02  0.4298033E+00  0.1839558E+00  0.8227413E-11  0.0000000E+00  0.0000000E+00  0.8227413E-11
  0.3636364E+00  0.0000000E+00  0.0000000E+00 -0.1000000E+02 -0.1000000E+02  0.4298033E+00  0.1839558E+00  0.2742471E-11  0.0000000E+00  0.0000000E+00  0.2742471E-11
  0.3737374E+00  0.0000000E+00  0.0000000E+00 -0.1000000E+02 -0.1000000E+02  0.4298033E+00  0.1839558E+00  0.0000000E+00  0.0000000E+00  0.0000000E+00  0.0000000E+00
  0.3838384E+00  0.0000000E+00  0.0000000E+00 -0.1000000E+02 -0.1000000E+02  0.4298033E+00  0.1839558E+00  0.0000000E+00  0.0000000E+00  0.0000000E+00  0.0000000E+00
  0.3939394E+00  0.0000000E+00  0.0000000E+00 -0.1000000E+02 -0.1000000E+02  0.4298033E+00  0.1839558E+00  0.3901023E-10  0.0000000E+00  0.0000000E+00  0.3901023E-10
  0.4040404E+00  0.0000000E+00  0.0000000E+00 -0.1000000E+02 -0.1000000E+02  0.4298033E+00  0.1839558E+00  0.2369138E-10  0.0000000E+00  0.0000000E+00  0.2369138E-10
  0.4141414E+00  0.0000000E+00  0.0000000E+00 -0.1000000E+02 -0.1000000E+02  0.4298033E+00  0.1839558E+00  0.6885326E-11  0.0000000E+00  0.0000000E+00  0.6885326E-11
  0.4242424E+00  0.0000000E+00  0.0000000E+00 -0.1000000E+02 -0.1000000E+02  0.4298033E+00  0.1839558E+00  0.1032799E-10  0.0000000E+00  0.0000000E+00  0.1032799E-10
  0.4343434E+00  0.0000000E+00  0.0000000E+00 -0.1000000E+02 -0.1000000E+02  0.4298033E+00  0.1839558E+00  0.6885324E-11  0.0000000E+00  0.0000000E+00  0.6885324E-11
  0.4444444E+00  0.0000000E+00  0.0000000E+00 -0.1000000E+02 -0.1000000E+02  0.4298033E+00  0.1839558E+00  0.6373336E-11  0.0000000E+00  0.0000000E+00  0.6373336E-11
  0.4545455E+00  0.0000000E+00  0.0000000E+00 -0.1000000E+02 -0.1000000E+02  0.4298033E+00  0.1839558E+00  0.1565892E-10  0.0000000E+00  0.0000000E+00  0.1565892E-10
  0.4646465E+00  0.0000000E+00  0.0000000E+00 -0.1000000E+02 -0.1000000E+02  0.4298033E+00  0.1839558E+00  0.6866891E-11  0.0000000E+00  0.0000000E+00  0.6866891E-11
  0.4747475E+00  0.0000000E+00  0.0000000E+00 -0.1000000E+02 -0.1000000E+02  0.4298033E+00  0.1839558E+00  0.6866892E-11  0.0000000E+00  0.0000000E+00  0.6866892E-11
  0.4848485E+00  0.0000000E+00  0.0000000E+00 -0.1000000E+02 -0.1000000E+02  0.4298033E+00  0.1839558E+00  0.6866889E-11  0.0000000E+00  0.0000000E+00  0.6866889E-11
  0.4949495E+00  0.0000000E+00  0.0000000E+00 -0.1000000E+02 -0.1000000E+02  0.4298033E+00  0.1839558E+00  0.0000000E+00  0.0000000E+00  0.8542923E-11  0.8542923E-11
  0.5050505E+00  0.0000000E+00  0.0000000E+00 -0.1000000E+02 -0.1000000E+02  0.4298033E+00  0.1839558E+00  0.0000000E+00  0.0000000E+00  0.0000000E+00  0.0000000E+00
  0.5151515E+00  0.0000000E+00  0.0000000E+00 -0.1000000E+02 -0.1000000E+02  0.4298033E+00  0.1839558E+00  0.0000000E+00  0.0000000E+00  0.0000000E+00  0.0000000E+00
  0.5252525E+00  0.0000000E+00  0.0000000E+00 -0.1000000E+02 -0.1000000E+02  0.4298033E+00  0.1839558E+00  0.0000000E+00  0.0000000E+00  0.0000000E+00  0.0000000E+00
  0.5353535E+00  0.0000000E+00  0.0000000E+00 -0.1000000E+02 -0.1000000E+02  0.4298033E+00  0.1839558E+00  0.0000000E+00  0.0000000E+00  0.0000000E+00  0.0000000E+00
  0.5454545E+00  0.0000000E+00  0.0000000E+00 -0.1000000E+02 -0.1000000E+02  0.4298033E+00  0.1839558E+00  0.0000000E+00  0.0000000E+00  0.0000000E+00  0.0000000E+00
  0.5555556E+00  0.0000000E+00  0.0000000E+00 -0.1000000E+02 -0.1000000E+02  0.4298033E+00  0.1839558E+00  0.0000000E+00  0.0000000E+00  0.5910206E-10  0.5910206E-10
  0.5656566E+00  0.0000000E+00  0.0000000E+00 -0.1000000E+02 -0.1000000E+02  0.4298033E+00  0.1839558E+00  0.0000000E+00  0.0000000E+00  0.2527849E-10  0.2527849E-10
  0.5757576E+00  0.0000000E+00  0.0000000E+00 -0.1000000E+02 -0.1000000E+02  0.4298033E+00  0.1839558E+00  0.0000000E+00  0.0000000E+00  0.2544900E-10  0.2544900E-10
  0.5858586E+00  0.0000000E+00  0.0000000E+00 -0.1000000E+02 -0.1000000E+02  0.4298033E+00  0.1839558E+00  0.0000000E+00  0.0000000E+00  0.1952322E-10  0.1952322E-10
  0.5959596E+00  0.0000000E+00  0.0000000E+00 -0.1000000E+02 -0.1000000E+02  0.4298033E+00  0.1839558E+00  0.0000000E+00  0.0000000E+00  0.1947741E-10  0.1947741E-10
  0.6060606E+00  0.0000000E+00  0.0000000E+00 -0.1000000E+02 -0.1000000E+02  0.4298033E+00  0.1839558E+00  0.0000000E+00  0.0000000E+00  0.6778645E-11  0.6778645E-11
  0.6161616E+00  0.0000000E+00  0.0000000E+00 -0.1000000E+02 -0.1000000E+02  0.4298033E+00  0.1839558E+00  0.0000000E+00  0.0000000E+00  0.3389329E-11  0.3389329E-11
  0.6262626E+00  0.0000000E+00  0.0000000E+00 -0.1000000E+02 -0.1000000E+02  0.4298033E+00  0.1839558E+00  0.0000000E+00  0.0000000E+00  0.7811032E-11  0.7811032E-11
  0.6363636E+00  0.0000000E+00  0.0000000E+00 -0.1000000E+02 -0.1000000E+02  0.4298033E+00  0.1839558E+00  0.0000000E+00  0.0000000E+00  0.0000000E+00  0.0000000E+00
  0.6464646E+00  0.0000000E+00  0.0000000E+00 -0.1000000E+02 -0.1000000E+02  0.4298033E+00  0.1839558E+00  0.0000000E+00  0.0000000E+00  0.0000000E+00  0.0000000E+00
  0.6565657E+00  0.0000000E+00  0.0000000E+00 -0.1000000E+02 -0.1000000E+02  0.4298033E+00  0.1839558E+00  0.0000000E+00  0.0000000E+00  0.0000000E+00  0.0000000E+00
  0.6666667E+00  0.0000000E+00  0.0000000E+00 -0.1000000E+02 -0.1000000E+02  0.4298033E+00  0.1839558E+00  0.0000000E+00  0.0000000E+00  0.0000000E+00  0.0000000E+00
  0.6767677E+00  0.0000000E+00  0.0000000E+00 -0.1000000E+02 -0.1000000E+02  0.4298033E+00  0.1839558E+00  0.0000000E+00  0.0000000E+00  0.0000000E+00  0.0000000E+00
  0.6868687E+00  0.0000000E+00  0.0000000E+00 -0.1000000E+02 -0.1000000E+02  0.4298033E+00  0.1839558E+00  0.0000000E+00  0.0000000E+00  0.0000000E+00  0.0000000E+00
  0.6969697E+00  0.0000000E+00  0.0000000E+00 -0.1000000E+02 -0.1000000E+02  0.4298033E+00  0.1839558E+00  0.0000000E+00  0.0000000E+00  0.0000000E+00  0.0000000E+00
  0.7070707E+00  0.0000000E+00  0.0000000E+00 -0.1000000E+02 -0.1000000E+02  0.4298033E+00  0.1839558E+00  0.0000000E+00  0.0000000E+00  0.0000000E+00  0.0000000E+00
  0.7171717E+00  0.0000000E+00  0.0000000E+00 -0.1000000E+02 -0.1000000E+02  0.4298033E+00  0.1839558E+00  0.0000000E+00  0.0000000E+00  0.0000000E+00  0.0000000E+00
  0.7272727E+00  0.0000000E+00  0.0000000E+00 -0.1000000E+02 -0.1000000E+02  0.4298033E+00  0.1839558E+00  0.0000000E+00  0.0000000E+00  0.0000000E+00  0.0000000E+00
  0.7373737E+00  0.0000000E+00  0.0000000E+00 -0.1000000E+02 -0.1000000E+02  0.4298033E+00  0.1839558E+00  0.0000000E+00  0.0000000E+00  0.0000000E+00  0.0000000E+00
  0.7474747E+00  0.0000000E+00  0.0000000E+00 -0.1000000E+02 -0.1000000E+02  0.4298033E+00  0.1839558E+00  0.0000000E+00  0.0000000E+00  0.0000000E+00  0.0000000E+00
  0.7575758E+00  0.0000000E+00  0.0000000E+00 -0.1000000E+02 -0.1000000E+02  0.4298033E+00  0.1839558E+00  0.0000000E+00  0.0000000E+00  0.0000000E+00  0.0000000E+00
  0.7676768E+00  0.0000000E+00  0.0000000E+00 -0.1000000E+02 -0.1000000E+02  0.4298033E+00  0.1839558E+00  0.0000000E+00  0.0000000E+00  0.0000000E+00  0.0000000E+00
  0.7777778E+00  0.0000000E+00  0.0000000E+00 -0.1000000E+02 -0.1000000E+02  0.4298033E+00  0.1839558E+00  0.0000000E+00  0.0000000E+00  0.0000000E+00  0.0000000E+00
  0.7878788E+00  0.0000000E+00  0.0000000E+00 -0.1000000E+02 -0.1000000E+02  0.4298033E+00  0.1839558E+00  0.0000000E+00  0.0000000E+00  0.0000000E+00  0.0000000E+00
  0.7979798E+00  0.0000000E+00  0.0000000E+00 -0.1000000E+02 -0.1000000E+02  0.4298033E+00  0.1839558E+00  0.0000000E+00  0.0000000E+00  0.0000000E+00  0.0000000E+00
  0.8080808E+00  0.0000000E+00  0.0000000E+00 -0.1000000E+02 -0.1000000E+02  0.4298033E+00  0.1839558E+00  0.0000000E+00  0.0000000E+00  0.0000000E+00  0.0000000E+00
  0.8181818E+00  0.0000000E+00  0.0000000E+00 -0.1000000E+02 -0.1000000E+02  0.4298033E+00  0.1839558E+00  0.0000000E+00  0.0000000E+00  0.0000000E+00  0.0000000E+00
  0.8282828E+00  0.0000000E+00  0.0000000E+00 -0.1000000E+02 -0.1000000E+02  0.4298033E+00  0.1839558E+00  0.0000000E+00  0.0000000E+00  0.0000000E+00  0.0000000E+00
  0.8383838E+00  0.0000000E+00  0.0000000E+00 -0.1000000E+02 -0.1000000E+02  0.4298033E+00  0.1839558E+00  0.0000000E+00  0.0000000E+00  0.0000000E+00  0.0000000E+00
  0.8484848E+00  0.0000000E+00  0.0000000E+00 -0.1000000E+02 -0.1000000E+02  0.4298033E+00  0.1839558E+00  0.0000000E+00  0.0000000E+00  0.0000000E+00  0.0000000E+00
  0.8585859E+00  0.0000000E+00  0.0000000E+00 -0.1000000E+02 -0.1000000E+02  0.4298033E+00  0.1839558E+00  0.0000000E+00  0.0000000E+00  0.0000000E+00  0.0000000E+00
  0.8686869E+00  0.0000000E+00  0.0000000E+00 -0.1000000E+02 -0.1000000E+02  0.4298033E+00  0.1839558E+00  0.0000000E+00  0.0000000E+00  0.0000000E+00  0.0000000E+00
  0.8787879E+00  0.0000000E+00  0.0000000E+00 -0.1000000E+02 -0.1000000E+02  0.4298033E+00  0.1839558E+00  0.0000000E+00  0.0000000E+00  0.0000000E+00  0.0000000E+00
  0.8888889E+00  0.0000000E+00  0.0000000E+00 -0.1000000E+02 -0.1000000E+02  0.4298033E+00  0.1839558E+00  0.0000000E+00  0.0000000E+00  0.0000000E+00  0.0000000E+00
  0.8989899E+00  0.0000000E+00  0.0000000E+00 -0.1000000E+02 -0.1000000E+02  0.4298033E+00  0.1839558E+00  0.0000000E+00  0.0000000E+00  0.0000000E+00  0.0000000E+00
  0.9090909E+00  0.0000000E+00  0.0000000E+00 -0.1000000E+02 -0.1000000E+02  0.4298033E+00  0.1839558E+00  0.0000000E+00  0.0000000E+00  0.0000000E+00  0.0000000E+00
  0.9191919E+00  0.0000000E+00  0.0000000E+00 -0.1000000E+02 -0.1000000E+02  0.4298033E+00  0.1839558E+00  0.0000000E+00  0.0000000E+00  0.0000000E+00  0.0000000E+00
  0.9292929E+00  0.0000000E+00  0.0000000E+00 -0.1000000E+02 -0.1000000E+02  0.4298033E+00  0.1839558E+00  0.0000000E+00  0.0000000E+00  0.0000000E+00  0.0000000E+00
  0.9393939E+00  0.0000000E+00  0.0000000E+00 -0.1000000E+02 -0.1000000E+02  0.4298033E+00  0.1839558E+00  0.0000000E+00  0.0000000E+00  0.0000000E+00  0.0000000E+00
  0.9494949E+00  0.0000000E+00  0.0000000E+00 -0.1000000E+02 -0.1000000E+02  0.4298033E+00  0.1839558E+00  0.0000000E+00  0.0000000E+00  0.0000000E+00  0.0000000E+00
  0.9595960E+00  0.0000000E+00  0.0000000E+00 -0.1000000E+02 -0.1000000E+02  0.4298033E+00  0.1839558E+00  0.0000000E+00  0.0000000E+00  0.0000000E+00  0.0000000E+00
  0.9696970E+00  0.0000000E+00  0.0000000E+00 -0.1000000E+02 -0.1000000E+02  0.4298033E+00  0.1839558E+00  0.0000000E+00  0.0000000E+00  0.0000000E+00  0.0000000E+00
  0.9797980E+00  0.0000000E+00  0.0000000E+00 -0.1000000E+02 -0.1000000E+02  0.4298033E+00  0.1839558E+00  0.0000000E+00  0.0000000E+00  0.0000000E+00  0.0000000E+00
  0.9898990E+00  0.0000000E+00  0.0000000E+00 -0.1000000E+02 -0.1000000E+02  0.4298033E+00  0.1839558E+00  0.0000000E+00  0.0000000E+00  0.0000000E+00  0.0000000E+00
  0.1000000E+01  0.0000000E+00  0.0000000E+00 -0.1000000E+02 -0.1000000E+02  0.4298033E+00  0.1839558E+00  0.0000000E+00  0.0000000E+00  0.0000000E+00  0.0000000E+00
  0.0000000E+00  0.0000000E+00  0.1010101E-01 -0.1010400E+02 -0.1011410E+02  0.4283119E+00  0.1833175E+00  0.0000000E+00  0.0000000E+00  0.0000000E+00  0.0000000E+00
  0.1010101E-01  0.0000000E+00  0.1010101E-01 -0.1010418E+02 -0.1011428E+02  0.4283095E+00  0.1833165E+00  0.0000000E+00  0.0000000E+00  0.0000000E+00  0.0000000E+00
  0.2020202E-01  0.0000000E+00  0.1010101E-01 -0.1010471E+02 -0.1011481E+02  0.4283026E+00  0.1833135E+00  0.0000000E+00  0.0000000E+00  0.0000000E+00  0.0000000E+00
  0.3030303E-01  0.0000000E+00  0.1010101E-01 -0.1010561E+02 -0.1011571E+02  0.4282910E+00  0.1833085E+00  0.0000000E+00  0.0000000E+00  0.0000000E+00  0.0000000E+00
  0.4040404E-01  0.0000000E+00  0.1010101E-01 -0.1010687E+02 -0.1011697E+02  0.4282746E+00  0.1833015E+00  0.0000000E+00  0.0000000E+00  0.0000000E+00  0.0000000E+00
  0.5050505E-01  0.0000000E+00  0.1010101E-01 -0.1010851E+02 -0.1011861E+02  0.4282534E+00  0.1832924E+00  0.0000000E+00  0.0000000E+00  0.0000000E+00  0.0000000E+00
  0.6060606E-01  0.0000000E+00  0.1010101E-01 -0.1011053E+02 -0.1012063E+02  0.4282272E+00  0.1832812E+00  0.0000000E+00  0.0000000E+00  0.0000000E+00  0.0000000E+00
  0.7070707E-01  0.0000000E+00  0.1010101E-01 -0.1011294E+02 -0.1012304E+02  0.4281959E+00  0.1832679E+00  0.0000000E+00  0.0000000E+00  0.0000000E+00  0.0000000E+00
  0.8080808E-01  0.0000000E+00  0.1010101E-01 -0.1011577E+02 -0.1012587E+02  0.4281593E+00  0.1832522E+00  0.0000000E+00  0.0000000E+00  0.0000000E+00  0.0000000E+00
  0.9090909E-01  0.0000000E+00  0.1010101E-01 -0.1011902E+02 -0.1012912E+02  0.4281171E+00  0.1832341E+00  0.0000000E+00  0.0000000E+00  0.0000000E+00  0.0000000E+00
  0.1010101E+00  0.0000000E+00  0.1010101E-01 -0.1012273E+02 -0.1013283E+02  0.4280691E+00  0.1832136E+00  0.0000000E+00  0.0000000E+00  0.0000000E+00  0.0000000E+00
  0.1111111E+00  0.0000000E+00  0.1010101E-01 -0.1012693E+02 -0.1013703E+02  0.4280149E+00  0.1831904E+00  0.0000000E+00  0.0000000E+00  0.0000000E+00  0.0000000E+00
  0.1212121E+00  0.0000000E+00  0.1010101E-01 -0.1013164E+02 -0.1014174E+02  0.4279540E+00  0.1831643E+00  0.0000000E+00  0.0000000E+00  0.0000000E+00  0.0000000E+00
  0.1313131E+00  0.0000000E+00  0.1010101E-01 -0.1013691E+02 -0.1014701E+02  0.4278859E+00  0.1831352E+00  0.0000000E+00  0.0000000E+00  0.0000000E+00  0.0000000E+00
  0.1414141E+00  0.0000000E+00  0.1010101E-01 -0.1014278E+02 -0.1015288E+02  0.4278100E+00  0.1831027E+00  0.0000000E+00  0.0000000E+00  0.0000000E+00  0.0000000E+00
  0.1515152E+00  0.0000000E+00  0.1010101E-01 -0.1014932E+02 -0.1015942E+02  0.4277256E+00  0.1830666E+00  0.0000000E+00  0.0000000E+00  0.0000000E+00  0.0000000E+00
  0.1616162E+00  0.0000000E+00  0.1010101E-01 -0.1015660E+02 -0.1016670E+02  0.4276318E+00  0.1830264E+00  0.0000000E+00  0.0000000E+00  0.0000000E+00  0.0000000E+00
  0.1717172E+00  0.0000000E+00  0.1010101E-01 -0.1016470E+02 -0.1017480E+02  0.4275275E+00  0.1829818E+00  0.0000000E+00  0.0000000E+00  0.0000000E+00  0.0000000E+00
  0.1818182E+00  0.0000000E+00  0.1010101E-01 -0.1017370E+02 -0.1018381E+02  0.4274117E+00  0.1829322E+00  0.0000000E+00  0.0000000E+00  0.0000000E+00  0.0000000E+00
  0.1919192E+00  0.0000000E+00  0.1010101E-01 -0.1018373E+02 -0.1019383E+02  0.4272828E+00  0.1828771E+00  0.0000000E+00  0.0000000E+00  0.0000000E+00  0.0000000E+00
  0.2020202E+00  0.0000000E+00  0.1010101E-01 -0.1019489E+02 -0.1020500E+02  0.4271396E+00  0.1828158E+00  0.0000000E+00  0.0000000E+00  0.0000000E+00  0.0000000E+00
  0.2121212E+00  0.0000000E+00  0.1010101E-01 -0.1020731E+02 -0.1021741E+02  0.4269806E+00  0.1827477E+00  0.0000000E+00  0.0000000E+00  0.0000000E+00  0.0000000E+00
  0.2222222E+00  0.0000000E+00  0.1010101E-01 -0.1022107E+02 -0.1023117E+02  0.4268046E+00  0.1826724E+00  0.0000000E+00  0.0000000E+00  0.0000000E+00  0.0000000E+00
  0.2323232E+00  0.0000000E+00  0.1010101E-01 -0.1023628E+02 -0.1024638E+02  0.4266105E+00  0.1825893E+00  0.0000000E+00  0.0000000E+00  0.0000000E+00  0.0000000E+00
  0.2424242E+00  0.0000000E+00  0.1010101E-01 -0.1025302E+02 -0.1026312E+02  0.4263973E+00  0.1824980E+00  0.0000000E+00  0.0000000E+00  0.0000000E+00  0.0000000E+00
  0.2525253E+00  0.0000000E+00  0.1010101E-01 -0.1027149E+02 -0.1028159E+02  0.4261625E+00  0.1823976E+00  0.0000000E+00  0.0000000E+00  0.0000000E+00  0.0000000E+00
  0.2626263E+00  0.0000000E+00  0.1010101E-01 -0.1029217E+02 -0.1030227E+02  0.4259004E+00  0.1822854E+00  0.0000000E+00  0.0000000E+00  0.0000000E+00  0.0000000E+00
  0.2727273E+00  0.0000000E+00  0.1010101E-01 -0.1031582E+02 -0.1032592E+02  0.4256014E+00  0.1821574E+00  0.0000000E+00  0.0000000E+00  0.0000000E+00  0.0000000E+00
  0.2828283E+00  0.0000000E+00  0.1010101E-01 -0.1034352E+02 -0.1035362E+02  0.4252524E+00  0.1820080E+00  0.0000000E+00  0.0000000E+00  0.0000000E+00  0.0000000E+00
  0.2929293E+00  0.0000000E+00  0.1010101E-01 -0.1037660E+02 -0.1038670E+02  0.4248373E+00  0.1818304E+00  0.0000000E+00  0.0000000E+00  0.0000000E+00  0.0000000E+00
  0.3030303E+00  0.0000000E+00  0.1010101E-01 -0.1041654E+02 -0.1042664E+02  0.4243383E+00  0.1816168E+00  0.0000000E+00  0.0000000E+00  0.0000000E+00  0.0000000E+00
  0.3131313E+00  0.0000000E+00  0.1010101E-01 -0.1046582E+02 -0.1047592E+02  0.4237263E+00  0.1813549E+00  0.6600843E-11  0.0000000E+00  0.0000000E+00  0.6600843E-11
  0.3232323E+00  0.0000000E+00  0.1010101E-01 -0.1051184E+02 -0.1052195E+02  0.4231581E+00  0.1811116E+00  0.1317756E-10  0.0000000E+00  0.0000000E+00  0.1317756E-10
  0.3333333E+00  0.0000000E+00  0.1010101E-01 -0.1053991E+02 -0.1055001E+02  0.4228131E+00  0.1809640E+00  0.0000000E+00  0.0000000E+00  0.0000000E+00  0.0000000E+00
  0.3434343E+00  0.0000000E+00  0.1010101E-01 -0.1057039E+02 -0.1058049E+02  0.4224400E+00  0.1808043E+00  0.0000000E+00  0.0000000E+00  0.0000000E+00  0.0000000E+00
  0.3535354E+00  0.0000000E+00  0.1010101E-01 -0.1060467E+02 -0.1061478E+02  0.4220220E+00  0.1806254E+00  0.0000000E+00  0.0000000E+00  0.0000000E+00  0.0000000E+00
  0.3636364E+00  0.0000000E+00  0.1010101E-01 -0.1065330E+02 -0.1066340E+02  0.4214322E+00  0.1803730E+00  0.1061923E-10  0.0000000E+00  0.0000000E+00  0.1061923E-10
  0.3737374E+00  0.0000000E+00  0.1010101E-01 -0.1070038E+02 -0.1071048E+02  0.4208644E+00  0.1801300E+00  0.1066141E-10  0.0000000E+00  0.0000000E+00  0.1066141E-10
  0.3838384E+00  0.0000000E+00  0.1010101E-01 -0.1075933E+02 -0.1076943E+02  0.4201583E+00  0.1798277E+00  0.0000000E+00  0.0000000E+00  0.0000000E+00  0.0000000E+00
  0.3939394E+00  0.0000000E+00  0.1010101E-01 -0.1087185E+02 -0.1088195E+02  0.4188245E+00  0.1792569E+00  0.6624438E-10  0.0000000E+00  0.0000000E+00  0.6624438E-10
  0.4040404E+00  0.0000000E+00  0.1010101E-01 -0.1078385E+02 -0.1079395E+02  0.4198661E+00  0.1797027E+00  0.6472649E-11  0.0000000E+00  0.0000000E+00  0.6472649E-11
  0.4141414E+00  0.0000000E+00  0.1010101E-01 -0.1074316E+02 -0.1075326E+02  0.4203515E+00  0.1799104E+00  0.1998790E-10  0.0000000E+00  0.0000000E+00  0.1998790E-10
  0.4242424E+00  0.0000000E+00  0.1010101E-01 -0.1071083E+02 -0.1072093E+02  0.4207389E+00  0.1800763E+00  0.1334213E-10  0.0000000E+00  0.0000000E+00  0.1334213E-10
  0.4343434E+00  0.0000000E+00  0.1010101E-01 -0.1069604E+02 -0.1070614E+02  0.4209166E+00  0.1801523E+00  0.2474482E-10  0.0000000E+00  0.0000000E+00  0.2474482E-10
  0.4444444E+00  0.0000000E+00  0.1010101E-01 -0.1067647E+02 -0.1068657E+02  0.4211523E+00  0.1802532E+00  0.2476384E-10  0.0000000E+00  0.0000000E+00  0.2476384E-10
  0.4545455E+00  0.0000000E+00  0.1010101E-01 -0.1064329E+02 -0.1065339E+02  0.4215532E+00  0.1804248E+00  0.6688760E-11  0.0000000E+00  0.0000000E+00  0.6688760E-11
  0.4646465E+00  0.0000000E+00  0.1010101E-01 -0.1062508E+02 -0.1063518E+02  0.4217740E+00  0.1805193E+00  0.0000000E+00  0.0000000E+00  0.0000000E+00  0.0000000E+00
  0.4747475E+00  0.0000000E+00  0.1010101E-01 -0.1062462E+02 -0.1063472E+02  0.4217796E+00  0.1805217E+00  0.0000000E+00  0.0000000E+00  0.0000000E+00  0.0000000E+00
  0.4848485E+00  0.0000000E+00  0.1010101E-01 -0.1063613E+02 -0.1064623E+02  0.4216400E+00  0.1804619E+00  0.0000000E+00  0.0000000E+00  0.0000000E+00  0.0000000E+00
  0.4949495E+00  0.0000000E+00  0.1010101E-01 -0.1066246E+02 -0.1067257E+02  0.4213214E+00  0.1803255E+00  0.0000000E+00  0.0000000E+00  0.0000000E+00  0.0000000E+00
  0.5050505E+00  0.0000000E+00  0.1010101E-01 -0.1071624E+02 -0.1072635E+02  0.4206739E+00  0.1800484E+00  0.0000000E+00  0.0000000E+00  0.2489255E-10  0.2489255E-10
  0.5151515E+00  0.0000000E+00  0.1010101E-01 -0.1072512E+02 -0.1073522E+02  0.4205674E+00  0.1800029E+00  0.0000000E+00  0.0000000E+00  0.0000000E+00  0.0000000E+00
  0.5252525E+00  0.0000000E+00  0.1010101E-01 -0.1076287E+02 -0.1077297E+02  0.4201160E+00  0.1798097E+00  0.0000000E+00  0.0000000E+00  0.0000000E+00  0.0000000E+00
  0.5353535E+00  0.0000000E+00  0.1010101E-01 -0.1082644E+02 -0.1083654E+02  0.4193606E+00  0.1794863E+00  0.0000000E+00  0.0000000E+00  0.0000000E+00  0.0000000E+00
  0.5454545E+00  0.0000000E+00  0.1010101E-01 -0.1094191E+02 -0.1095201E+02  0.4180033E+00  0.1789054E+00  0.0000000E+00  0.0000000E+00  0.3895707E-10  0.3895707E-10
  0.5555556E+00  0.0000000E+00  0.1010101E-01 -0.1103668E+02 -0.1104678E+02  0.4169036E+00  0.1784347E+00  0.0000000E+00  0.0000000E+00  0.8972037E-10  0.8972037E-10
  0.5656566E+00  0.0000000E+00  0.1010101E-01 -0.1094891E+02 -0.1095901E+02  0.4179216E+00  0.1788705E+00  0.0000000E+00  0.0000000E+00  0.3946099E-10  0.3946099E-10
  0.5757576E+00  0.0000000E+00  0.1010101E-01 -0.1086932E+02 -0.1087942E+02  0.4188543E+00  0.1792696E+00  0.0000000E+00  0.0000000E+00  0.2948257E-10  0.2948257E-10
  0.5858586E+00  0.0000000E+00  0.1010101E-01 -0.1080627E+02 -0.1081637E+02  0.4195996E+00  0.1795886E+00  0.0000000E+00  0.0000000E+00  0.1312170E-10  0.1312170E-10
  0.5959596E+00  0.0000000E+00  0.1010101E-01 -0.1077874E+02 -0.1078884E+02  0.4199268E+00  0.1797287E+00  0.0000000E+00  0.0000000E+00  0.3125061E-10  0.3125061E-10
  0.6060606E+00  0.0000000E+00  0.1010101E-01 -0.1070437E+02 -0.1071447E+02  0.4208165E+00  0.1801095E+00  0.0000000E+00  0.0000000E+00  0.0000000E+00  0.0000000E+00
  0.6161616E+00  0.0000000E+00  0.1010101E-01 -0.1065932E+02 -0.1066942E+02  0.4213594E+00  0.1803418E+00  0.0000000E+00  0.0000000E+00  0.7603538E-11  0.7603538E-11
  0.6262626E+00  0.0000000E+00  0.1010101E-01 -0.1060013E+02 -0.1061023E+02  0.4220773E+00  0.1806491E+00  0.0000000E+00  0.0000000E+00  0.7621301E-11  0.7621301E-11
  0.6363636E+00  0.0000000E+00  0.1010101E-01 -0.1053961E+02 -0.1054971E+02  0.4228168E+00  0.1809656E+00  0.0000000E+00  0.0000000E+00  0.0000000E+00  0.0000000E+00
  0.6464646E+00  0.0000000E+00  0.1010101E-01 -0.1049304E+02 -0.1050315E+02  0.4233898E+00  0.1812108E+00  0.0000000E+00  0.0000000E+00  0.0000000E+00  0.0000000E+00
  0.6565657E+00  0.0000000E+00  0.1010101E-01 -0.1045166E+02 -0.1046176E+02  0.4239018E+00  0.1814300E+00  0.0000000E+00  0.0000000E+00  0.0000000E+00  0.0000000E+00
  0.6666667E+00  0.0000000E+00  0.1010101E-01 -0.1041389E+02 -0.1042399E+02  0.4243714E+00  0.1816310E+00  0.0000000E+00  0.0000000E+00  0.0000000E+00  0.0000000E+00
  0.6767677E+00  0.0000000E+00  0.1010101E-01 -0.1037477E+02 -0.1038487E+02  0.4248602E+00  0.1818402E+00  0.0000000E+00  0.0000000E+00  0.0000000E+00  0.0000000E+00
  0.6868687E+00  0.0000000E+00  0.1010101E-01 -0.1034187E+02 -0.1035197E+02  0.4252732E+00  0.1820169E+00  0.0000000E+00  0.0000000E+00  0.0000000E+00  0.0000000E+00
  0.6969697E+00  0.0000000E+00  0.1010101E-01 -0.1031378E+02 -0.1032388E+02  0.4256271E+00  0.1821684E+00  0.0000000E+00  0.0000000E+00  0.0000000E+00  0.0000000E+00
  0.7070707E+00  0.0000000E+00  0.1010101E-01 -0.1028900E+02 -0.1029910E+02  0.4259406E+00  0.1823026E+00  0.0000000E+00  0.0000000E+00  0.0000000E+00  0.0000000E+00
  0.7171717E+00  0.0000000E+00  0.1010101E-01 -0.1026667E+02 -0.1027677E+02  0.4262237E+00  0.1824237E+00  0.0000000E+00  0.0000000E+00  0.0000000E+00  0.0000000E+00
  0.7272727E+00  0.0000000E+00  0.1010101E-01 -0.1024643E+02 -0.1025653E+02  0.4264811E+00  0.1825339E+00  0.0000000E+00  0.0000000E+00  0.0000000E+00  0.0000000E+00
  0.7373737E+00  0.0000000E+00  0.1010101E-01 -0.1022810E+02 -0.1023820E+02  0.4267148E+00  0.1826340E+00  0.0000000E+00  0.0000000E+00  0.0000000E+00  0.0000000E+00
  0.7474747E+00  0.0000000E+00  0.1010101E-01 -0.1021156E+02 -0.1022166E+02  0.4269262E+00  0.1827244E+00  0.0000000E+00  0.0000000E+00  0.0000000E+00  0.0000000E+00
  0.7575758E+00  0.0000000E+00  0.1010101E-01 -0.1019670E+02 -0.1020680E+02  0.4271165E+00  0.1828059E+00  0.0000000E+00  0.0000000E+00  0.0000000E+00  0.0000000E+00
  0.7676768E+00  0.0000000E+00  0.1010101E-01 -0.1018336E+02 -0.1019346E+02  0.4272876E+00  0.1828791E+00  0.0000000E+00  0.0000000E+00  0.0000000E+00  0.0000000E+00
  0.7777778E+00  0.0000000E+00  0.1010101E-01 -0.1017141E+02 -0.1018151E+02  0.4274412E+00  0.1829448E+00  0.0000000E+00  0.0000000E+00  0.0000000E+00  0.0000000E+00
  0.7878788E+00  0.0000000E+00  0.1010101E-01 -0.1016068E+02 -0.1017078E+02  0.4275792E+00  0.1830039E+00  0.0000000E+00  0.0000000E+00  0.0000000E+00  0.0000000E+00