title = "dataset water"
variables = "x", "y", "z", "h_w", "p_w", "s_w", "theta_w", "transp", "evap", "transp2", "transp_tot"
zone t = "Flow variables, solution time =  6.000E+01 days        " i =  100, j =  100, k =    1,  f=point
  0.0000000E+00  0.0000000E+00  0.0000000E+00 -0.1000000E+02 -0.1000000E+02  0.4298033E+00  0.1839558E+00  0.0000000E+00  0.0000000E+00  0.0000000E+00  0.0000000E+00
  0.1010101E-01  0.0000000E+00  0.0000000E+00 -0.1000000E+02 -0.1000000E+02  0.4298033E+00  0.1839558E+00  0.0000000E+00  0.0000000E+00  0.0000000E+00  0.0000000E+00
  0.2020202E-01  0.0000000E+00  0.0000000E+00 -0.1000000E+02 -0.1000000E+02  0.4298033E+00  0.1839558E+00  0.0000000E+00  0.0000000E+00  0.0000000E+00  0.0000000E+00
  0.3030303E-01  0.0000000E+00  0.0000000E+00 -0.1000000E+02 -0.1000000E+02  0.4298033E+00  0.1839558E+00  0.0000000E+00  0.0000000E+00  0.0000000E+00  0.0000000E+00
  0.4040404E-01  0.0000000E+00  0.0000000E+00 -0.1000000E+02 -0.1000000E+02  0.4298033E+00  0.1839558E+00  0.0000000E+00  0.0000000E+00  0.0000000E+00  0.0000000E+00
  0.5050505E-01  0.0000000E+00  0.0000000E+00 -0.1000000E+02 -0.1000000E+02  0.4298033E+00  0.1839558E+00  0.0000000E+00  0.0000000E+00  0.0000000E+00  0.0000000E+00
  0.6060606E-01  0.0000000E+00  0.0000000E+00 -0.1000000E+02 -0.1000000E+02  0.4298033E+00  0.1839558E+00  0.0000000E+00  0.0000000E+00  0.0000000E+00  0.0000000E+00
  0.7070707E-01  0.0000000E+00  0.0000000E+00 -0.1000000E+02 -0.1000000E+02  0.4298033E+00  0.1839558E+00  0.0000000E+00  0.0000000E+00  0.0000000E+00  0.0000000E+00
  0.8080808E-01  0.0000000E+00  0.0000000E+00 -0.1000000E+02 -0.1000000E+02  0.4298033E+00  0.1839558E+00  0.0000000E+00  0.0000000E+00  0.0000000E+00  0.0000000E+00
  0.9090909E-01  0.0000000E+00  0.0000000E+00 -0.1000000E+02 -0.1000000E+02  0.4298033E+00  0.1839558E+00  0.0000000E+00  0.0000000E+00  0.0000000E+00  0.0000000E+00
  0.1010101E+00  0.0000000E+00  0.0000000E+00 -0.1000000E+02 -0.1000000E+02  0.4298033E+00  0.1839558E+00  0.0000000E+00  0.0000000E+00  0.0000000E+00  0.0000000E+00
  0.1111111E+00  0.0000000E+00  0.0000000E+00 -0.1000000E+02 -0.1000000E+02  0.4298033E+00  0.1839558E+00  0.0000000E+00  0.0000000E+00  0.0000000E+00  0.0000000E+00
  0.1212121E+00  0.0000000E+00  0.0000000E+00 -0.1000000E+02 -0.1000000E+02  0.4298033E+00  0.1839558E+00  0.0000000E+00  0.0000000E+00  0.0000000E+00  0.0000000E+00
  0.1313131E+00  0.0000000E+00  0.0000000E+00 -0.1000000E+02 -0.1000000E+02  0.4298033E+00  0.1839558E+00  0.0000000E+00  0.0000000E+00  0.0000000E+00  0.0000000E+00
  0.1414141E+00  0.0000000E+00  0.0000000E+00 -0.1000000E+02 -0.1000000E+02  0.4298033E+00  0.1839558E+00  0.0000000E+00  0.0000000E+00  0.0000000E+00  0.0000000E+00
  0.1515152E+00  0.0000000E+00  0.0000000E+00 -0.1000000E+02 -0.1000000E+02  0.4298033E+00  0.1839558E+00  0.0000000E+00  0.0000000E+00  0.0000000E+00  0.0000000E+00
  0.1616162E+00  0.0000000E+00  0.0000000E+00 -0.1000000E+02 -0.1000000E+02  0.4298033E+00  0.1839558E+00  0.0000000E+00  0.0000000E+00  0.0000000E+00  0.0000000E+00
  0.1717172E+00  0.0000000E+00  0.0000000E+00 -0.1000000E+02 -0.1000000E+02  0.4298033E+00  0.1839558E+00  0.0000000E+00  0.0000000E+00  0.0000000E+00  0.0000000E+00
  0.1818182E+00  0.0000000E+00  0.0000000E+00 -0.1000000E+02 -0.1000000E+02  0.4298033E+00  0.1839558E+00  0.0000000E+00  0.0000000E+00  0.0000000E+00  0.0000000E+00
  0.1919192E+00  0.0000000E+00  0.0000000E+00 -0.1000000E+02 -0.1000000E+02  0.4298033E+00  0.1839558E+00  0.0000000E+00  0.0000000E+00  0.0000000E+00  0.0000000E+00
  0.2020202E+00  0.0000000E+00  0.0000000E+00 -0.1000000E+02 -0.1000000E+02  0.4298033E+00  0.1839558E+00  0.0000000E+00  0.0000000E+00  0.0000000E+00  0.0000000E+00
  0.2121212E+00  0.0000000E+00  0.0000000E+00 -0.1000000E+02 -0.1000000E+02  0.4298033E+00  0.1839558E+00  0.0000000E+00  0.0000000E+00  0.0000000E+00  0.0000000E+00
  0.2222222E+00  0.0000000E+00  0.0000000E+00 -0.1000000E+02 -0.1000000E+02  0.4298033E+00  0.1839558E+00  0.0000000E+00  0.0000000E+00  0.0000000E+00  0.0000000E+00
  0.2323232E+00  0.0000000E+00  0.0000000E+00 -0.1000000E+02 -0.1000000E+02  0.4298033E+00  0.1839558E+00  0.0000000E+00  0.0000000E+00  0.0000000E+00  0.0000000E+00
  0.2424242E+00  0.0000000E+00  0.0000000E+00 -0.1000000E+02 -0.1000000E+02  0.4298033E+00  0.1839558E+00  0.0000000E+00  0.0000000E+00  0.0000000E+00  0.0000000E+00
  0.2525253E+00  0.0000000E+00  0.0000000E+00 -0.1000000E+02 -0.1000000E+02  0.4298033E+00  0.1839558E+00  0.0000000E+00  0.0000000E+00  0.0000000E+00  0.0000000E+00
  0.2626263E+00  0.0000000E+00  0.0000000E+00 -0.1000000E+02 -0.1000000E+02  0.4298033E+00  0.1839558E+00  0.0000000E+00  0.0000000E+00  0.0000000E+00  0.0000000E+00
  0.2727273E+00  0.0000000E+00  0.0000000E+00 -0.1000000E+02 -0.1000000E+02  0.4298033E+00  0.1839558E+00  0.0000000E+00  0.0000000E+00  0.0000000E+00  0.0000000E+00
  0.2828283E+00  0.0000000E+00  0.0000000E+00 -0.1000000E+02 -0.1000000E+02  0.4298033E+00  0.1839558E+00  0.1064624E-10  0.0000000E+00  0.0000000E+00  0.1064624E-10
  0.2929293E+00  0.0000000E+00  0.0000000E+00 -0.1000000E+02 -0.1000000E+02  0.4298033E+00  0.1839558E+00  0.0000000E+00  0.0000000E+00  0.0000000E+00  0.0000000E+00
  0.3030303E+00  0.0000000E+00  0.0000000E+00 -0.1000000E+02 -0.1000000E+02  0.4298033E+00  0.1839558E+00  0.3207637E-11  0.0000000E+00  0.0000000E+00  0.3207637E-11
  0.3131313E+00  0.0000000E+00  0.0000000E+00 -0.1000000E+02 -0.1000000E+02  0.4298033E+00  0.1839558E+00  0.6415266E-11  0.0000000E+00  0.0000000E+00  0.6415266E-11
  0.3232323E+00  0.0000000E+00  0.0000000E+00 -0.1000000E+02 -0.1000000E+02  0.4298033E+00  0.1839558E+00  0.0000000E+00  0.0000000E+00  0.0000000E+00  0.0000000E+00
  0.3333333E+00  0.0000000E+00  0.0000000E+00 -0.1000000E+02 -0.1000000E+02  0.4298033E+00  0.1839558E+00  0.0000000E+00  0.0000000E+00  0.0000000E+00  0.0000000E+00
  0.3434343E+00  0.0000000E+00  0.0000000E+00 -0.1000000E+02 -0.1000000E+02  0.4298033E+00  0.1839558E+00  0.0000000E+00  0.0000000E+00  0.0000000E+00  0.0000000E+00
  0.3535354E+00  0.0000000E+00  0.0000000E+00 -0.1000000E+02 -0.1000000E+02  0.4298033E+00  0.1839558E+00  0.7843546E-11  0.0000000E+00  0.0000000E+00  0.7843546E-11
  0.3636364E+00  0.0000000E+00  0.0000000E+00 -0.1000000E+02 -0.1000000E+02  0.4298033E+00  0.1839558E+00  0.8395768E-11  0.0000000E+00  0.0000000E+00  0.8395768E-11
  0.3737374E+00  0.0000000E+00  0.0000000E+00 -0.1000000E+02 -0.1000000E+02  0.4298033E+00  0.1839558E+00  0.2890618E-11  0.0000000E+00  0.0000000E+00  0.2890618E-11
  0.3838384E+00  0.0000000E+00  0.0000000E+00 -0.1000000E+02 -0.1000000E+02  0.4298033E+00  0.1839558E+00  0.0000000E+00  0.0000000E+00  0.0000000E+00  0.0000000E+00
  0.3939394E+00  0.0000000E+00  0.0000000E+00 -0.1000000E+02 -0.1000000E+02  0.4298033E+00  0.1839558E+00  0.4912319E-10  0.0000000E+00  0.0000000E+00  0.4912319E-10
  0.4040404E+00  0.0000000E+00  0.0000000E+00 -0.1000000E+02 -0.1000000E+02  0.4298033E+00  0.1839558E+00  0.2258601E-10  0.0000000E+00  0.0000000E+00  0.2258601E-10
  0.4141414E+00  0.0000000E+00  0.0000000E+00 -0.1000000E+02 -0.1000000E+02  0.4298033E+00  0.1839558E+00  0.6564077E-11  0.0000000E+00  0.0000000E+00  0.6564077E-11
  0.4242424E+00  0.0000000E+00  0.0000000E+00 -0.1000000E+02 -0.1000000E+02  0.4298033E+00  0.1839558E+00  0.9846114E-11  0.0000000E+00  0.0000000E+00  0.9846114E-11
  0.4343434E+00  0.0000000E+00  0.0000000E+00 -0.1000000E+02 -0.1000000E+02  0.4298033E+00  0.1839558E+00  0.6564076E-11  0.0000000E+00  0.0000000E+00  0.6564076E-11
  0.4444444E+00  0.0000000E+00  0.0000000E+00 -0.1000000E+02 -0.1000000E+02  0.4298033E+00  0.1839558E+00  0.6075975E-11  0.0000000E+00  0.0000000E+00  0.6075975E-11
  0.4545455E+00  0.0000000E+00  0.0000000E+00 -0.1000000E+02 -0.1000000E+02  0.4298033E+00  0.1839558E+00  0.2778303E-10  0.0000000E+00  0.0000000E+00  0.2778303E-10
  0.4646465E+00  0.0000000E+00  0.0000000E+00 -0.1000000E+02 -0.1000000E+02  0.4298033E+00  0.1839558E+00  0.6546502E-11  0.0000000E+00  0.0000000E+00  0.6546502E-11
  0.4747475E+00  0.0000000E+00  0.0000000E+00 -0.1000000E+02 -0.1000000E+02  0.4298033E+00  0.1839558E+00  0.6546503E-11  0.0000000E+00  0.0000000E+00  0.6546503E-11
  0.4848485E+00  0.0000000E+00  0.0000000E+00 -0.1000000E+02 -0.1000000E+02  0.4298033E+00  0.1839558E+00  0.6546500E-11  0.0000000E+00  0.0000000E+00  0.6546500E-11
  0.4949495E+00  0.0000000E+00  0.0000000E+00 -0.1000000E+02 -0.1000000E+02  0.4298033E+00  0.1839558E+00  0.6546498E-11  0.0000000E+00  0.1137566E-10  0.1792216E-10
  0.5050505E+00  0.0000000E+00  0.0000000E+00 -0.1000000E+02 -0.1000000E+02  0.4298033E+00  0.1839558E+00  0.6546501E-11  0.0000000E+00  0.8106433E-11  0.1465293E-10
  0.5151515E+00  0.0000000E+00  0.0000000E+00 -0.1000000E+02 -0.1000000E+02  0.4298033E+00  0.1839558E+00  0.6546500E-11  0.0000000E+00  0.0000000E+00  0.6546500E-11
  0.5252525E+00  0.0000000E+00  0.0000000E+00 -0.1000000E+02 -0.1000000E+02  0.4298033E+00  0.1839558E+00  0.6546495E-11  0.0000000E+00  0.1392805E-10  0.2047455E-10
  0.5353535E+00  0.0000000E+00  0.0000000E+00 -0.1000000E+02 -0.1000000E+02  0.4298033E+00  0.1839558E+00  0.3273251E-11  0.0000000E+00  0.2113687E-10  0.2441012E-10
  0.5454545E+00  0.0000000E+00  0.0000000E+00 -0.1000000E+02 -0.1000000E+02  0.4298033E+00  0.1839558E+00  0.7425924E-11  0.0000000E+00  0.4039653E-11  0.1146558E-10
  0.5555556E+00  0.0000000E+00  0.0000000E+00 -0.1000000E+02 -0.1000000E+02  0.4298033E+00  0.1839558E+00  0.3712972E-11  0.0000000E+00  0.9525496E-10  0.9896793E-10
  0.5656566E+00  0.0000000E+00  0.0000000E+00 -0.1000000E+02 -0.1000000E+02  0.4298033E+00  0.1839558E+00  0.0000000E+00  0.0000000E+00  0.3366056E-10  0.3366056E-10
  0.5757576E+00  0.0000000E+00  0.0000000E+00 -0.1000000E+02 -0.1000000E+02  0.4298033E+00  0.1839558E+00  0.0000000E+00  0.0000000E+00  0.3388761E-10  0.3388761E-10
  0.5858586E+00  0.0000000E+00  0.0000000E+00 -0.1000000E+02 -0.1000000E+02  0.4298033E+00  0.1839558E+00  0.0000000E+00  0.0000000E+00  0.3700660E-10  0.3700660E-10
  0.5959596E+00  0.0000000E+00  0.0000000E+00 -0.1000000E+02 -0.1000000E+02  0.4298033E+00  0.1839558E+00  0.0000000E+00  0.0000000E+00  0.4796874E-10  0.4796874E-10
  0.6060606E+00  0.0000000E+00  0.0000000E+00 -0.1000000E+02 -0.1000000E+02  0.4298033E+00  0.1839558E+00  0.0000000E+00  0.0000000E+00  0.2951809E-10  0.2951809E-10
  0.6161616E+00  0.0000000E+00  0.0000000E+00 -0.1000000E+02 -0.1000000E+02  0.4298033E+00  0.1839558E+00  0.0000000E+00  0.0000000E+00  0.4513194E-11  0.4513194E-11
  0.6262626E+00  0.0000000E+00  0.0000000E+00 -0.1000000E+02 -0.1000000E+02  0.4298033E+00  0.1839558E+00  0.0000000E+00  0.0000000E+00  0.1912754E-10  0.1912754E-10
  0.6363636E+00  0.0000000E+00  0.0000000E+00 -0.1000000E+02 -0.1000000E+02  0.4298033E+00  0.1839558E+00  0.0000000E+00  0.0000000E+00  0.2194489E-10  0.2194489E-10
  0.6464646E+00  0.0000000E+00  0.0000000E+00 -0.1000000E+02 -0.1000000E+02  0.4298033E+00  0.1839558E+00  0.0000000E+00  0.0000000E+00  0.8160764E-11  0.8160764E-11
  0.6565657E+00  0.0000000E+00  0.0000000E+00 -0.1000000E+02 -0.1000000E+02  0.4298033E+00  0.1839558E+00  0.0000000E+00  0.0000000E+00  0.7410172E-11  0.7410172E-11
  0.6666667E+00  0.0000000E+00  0.0000000E+00 -0.1000000E+02 -0.1000000E+02  0.4298033E+00  0.1839558E+00  0.0000000E+00  0.0000000E+00  0.0000000E+00  0.0000000E+00
  0.6767677E+00  0.0000000E+00  0.0000000E+00 -0.1000000E+02 -0.1000000E+02  0.4298033E+00  0.1839558E+00  0.0000000E+00  0.0000000E+00  0.0000000E+00  0.0000000E+00
  0.6868687E+00  0.0000000E+00  0.0000000E+00 -0.1000000E+02 -0.1000000E+02  0.4298033E+00  0.1839558E+00  0.0000000E+00  0.0000000E+00  0.9227816E-11  0.9227816E-11
  0.6969697E+00  0.0000000E+00  0.0000000E+00 -0.1000000E+02 -0.1000000E+02  0.4298033E+00  0.1839558E+00  0.0000000E+00  0.0000000E+00  0.0000000E+00  0.0000000E+00
  0.7070707E+00  0.0000000E+00  0.0000000E+00 -0.1000000E+02 -0.1000000E+02  0.4298033E+00  0.1839558E+00  0.0000000E+00  0.0000000E+00  0.0000000E+00  0.0000000E+00
  0.7171717E+00  0.0000000E+00  0.0000000E+00 -0.1000000E+02 -0.1000000E+02  0.4298033E+00  0.1839558E+00  0.0000000E+00  0.0000000E+00  0.0000000E+00  0.0000000E+00
  0.7272727E+00  0.0000000E+00  0.0000000E+00 -0.1000000E+02 -0.1000000E+02  0.4298033E+00  0.1839558E+00  0.0000000E+00  0.0000000E+00  0.0000000E+00  0.0000000E+00
  0.7373737E+00  0.0000000E+00  0.0000000E+00 -0.1000000E+02 -0.1000000E+02  0.4298033E+00  0.1839558E+00  0.0000000E+00  0.0000000E+00  0.0000000E+00  0.0000000E+00
  0.7474747E+00  0.0000000E+00  0.0000000E+00 -0.1000000E+02 -0.1000000E+02  0.4298033E+00  0.1839558E+00  0.0000000E+00  0.0000000E+00  0.0000000E+00  0.0000000E+00
  0.7575758E+00  0.0000000E+00  0.0000000E+00 -0.1000000E+02 -0.1000000E+02  0.4298033E+00  0.1839558E+00  0.0000000E+00  0.0000000E+00  0.0000000E+00  0.0000000E+00
  0.7676768E+00  0.0000000E+00  0.0000000E+00 -0.1000000E+02 -0.1000000E+02  0.4298033E+00  0.1839558E+00  0.0000000E+00  0.0000000E+00  0.0000000E+00  0.0000000E+00
  0.7777778E+00  0.0000000E+00  0.0000000E+00 -0.1000000E+02 -0.1000000E+02  0.4298033E+00  0.1839558E+00  0.0000000E+00  0.0000000E+00  0.0000000E+00  0.0000000E+00
  0.7878788E+00  0.0000000E+00  0.0000000E+00 -0.1000000E+02 -0.1000000E+02  0.4298033E+00  0.1839558E+00  0.0000000E+00  0.0000000E+00  0.0000000E+00  0.0000000E+00
  0.7979798E+00  0.0000000E+00  0.0000000E+00 -0.1000000E+02 -0.1000000E+02  0.4298033E+00  0.1839558E+00  0.0000000E+00  0.0000000E+00  0.0000000E+00  0.0000000E+00
  0.8080808E+00  0.0000000E+00  0.0000000E+00 -0.1000000E+02 -0.1000000E+02  0.4298033E+00  0.1839558E+00  0.0000000E+00  0.0000000E+00  0.0000000E+00  0.0000000E+00
  0.8181818E+00  0.0000000E+00  0.0000000E+00 -0.1000000E+02 -0.1000000E+02  0.4298033E+00  0.1839558E+00  0.0000000E+00  0.0000000E+00  0.0000000E+00  0.0000000E+00
  0.8282828E+00  0.0000000E+00  0.0000000E+00 -0.1000000E+02 -0.1000000E+02  0.4298033E+00  0.1839558E+00  0.0000000E+00  0.0000000E+00  0.0000000E+00  0.0000000E+00
  0.8383838E+00  0.0000000E+00  0.0000000E+00 -0.1000000E+02 -0.1000000E+02  0.4298033E+00  0.1839558E+00  0.0000000E+00  0.0000000E+00  0.0000000E+00  0.0000000E+00
  0.8484848E+00  0.0000000E+00  0.0000000E+00 -0.1000000E+02 -0.1000000E+02  0.4298033E+00  0.1839558E+00  0.0000000E+00  0.0000000E+00  0.0000000E+00  0.0000000E+00
  0.8585859E+00  0.0000000E+00  0.0000000E+00 -0.1000000E+02 -0.1000000E+02  0.4298033E+00  0.1839558E+00  0.0000000E+00  0.0000000E+00  0.0000000E+00  0.0000000E+00
  0.8686869E+00  0.0000000E+00  0.0000000E+00 -0.1000000E+02 -0.1000000E+02  0.4298033E+00  0.1839558E+00  0.0000000E+00  0.0000000E+00  0.0000000E+00  0.0000000E+00
  0.8787879E+00  0.0000000E+00  0.0000000E+00 -0.1000000E+02 -0.1000000E+02  0.4298033E+00  0.1839558E+00  0.0000000E+00  0.0000000E+00  0.0000000E+00  0.0000000E+00
  0.8888889E+00  0.0000000E+00  0.0000000E+00 -0.1000000E+02 -0.1000000E+02  0.4298033E+00  0.1839558E+00  0.0000000E+00  0.0000000E+00  0.0000000E+00  0.0000000E+00
  0.8989899E+00  0.0000000E+00  0.0000000E+00 -0.1000000E+02 -0.1000000E+02  0.4298033E+00  0.1839558E+00  0.0000000E+00  0.0000000E+00  0.0000000E+00  0.0000000E+00
  0.9090909E+00  0.0000000E+00  0.0000000E+00 -0.1000000E+02 -0.1000000E+02  0.4298033E+00  0.1839558E+00  0.0000000E+00  0.0000000E+00  0.0000000E+00  0.0000000E+00
  0.9191919E+00  0.0000000E+00  0.0000000E+00 -0.1000000E+02 -0.1000000E+02  0.4298033E+00  0.1839558E+00  0.0000000E+00  0.0000000E+00  0.0000000E+00  0.0000000E+00
  0.9292929E+00  0.0000000E+00  0.0000000E+00 -0.1000000E+02 -0.1000000E+02  0.4298033E+00  0.1839558E+00  0.0000000E+00  0.0000000E+00  0.0000000E+00  0.0000000E+00
  0.9393939E+00  0.0000000E+00  0.0000000E+00 -0.1000000E+02 -0.1000000E+02  0.4298033E+00  0.1839558E+00  0.0000000E+00  0.0000000E+00  0.0000000E+00  0.0000000E+00
  0.9494949E+00  0.0000000E+00  0.0000000E+00 -0.1000000E+02 -0.1000000E+02  0.4298033E+00  0.1839558E+00  0.0000000E+00  0.0000000E+00  0.0000000E+00  0.0000000E+00
  0.9595960E+00  0.0000000E+00  0.0000000E+00 -0.1000000E+02 -0.1000000E+02  0.4298033E+00  0.1839558E+00  0.0000000E+00  0.0000000E+00  0.0000000E+00  0.0000000E+00
  0.9696970E+00  0.0000000E+00  0.0000000E+00 -0.1000000E+02 -0.1000000E+02  0.4298033E+00  0.1839558E+00  0.0000000E+00  0.0000000E+00  0.0000000E+00  0.0000000E+00
  0.9797980E+00  0.0000000E+00  0.0000000E+00 -0.1000000E+02 -0.1000000E+02  0.4298033E+00  0.1839558E+00  0.0000000E+00  0.0000000E+00  0.0000000E+00  0.0000000E+00
  0.9898990E+00  0.0000000E+00  0.0000000E+00 -0.1000000E+02 -0.1000000E+02  0.4298033E+00  0.1839558E+00  0.0000000E+00  0.0000000E+00  0.0000000E+00  0.0000000E+00
  0.1000000E+01  0.0000000E+00  0.0000000E+00 -0.1000000E+02 -0.1000000E+02  0.4298033E+00  0.1839558E+00  0.0000000E+00  0.0000000E+00  0.0000000E+00  0.0000000E+00
  0.0000000E+00  0.0000000E+00  0.1010101E-01 -0.1016678E+02 -0.1017688E+02  0.4275008E+00  0.1829703E+00  0.0000000E+00  0.0000000E+00  0.0000000E+00  0.0000000E+00
  0.1010101E-01  0.0000000E+00  0.1010101E-01 -0.1016707E+02 -0.1017717E+02  0.4274971E+00  0.1829687E+00  0.0000000E+00  0.0000000E+00  0.0000000E+00  0.0000000E+00
  0.2020202E-01  0.0000000E+00  0.1010101E-01 -0.1016794E+02 -0.1017804E+02  0.4274858E+00  0.1829639E+00  0.0000000E+00  0.0000000E+00  0.0000000E+00  0.0000000E+00
  0.3030303E-01  0.0000000E+00  0.1010101E-01 -0.1016941E+02 -0.1017951E+02  0.4274670E+00  0.1829559E+00  0.0000000E+00  0.0000000E+00  0.0000000E+00  0.0000000E+00
  0.4040404E-01  0.0000000E+00  0.1010101E-01 -0.1017148E+02 -0.1018158E+02  0.4274403E+00  0.1829444E+00  0.0000000E+00  0.0000000E+00  0.0000000E+00  0.0000000E+00
  0.5050505E-01  0.0000000E+00  0.1010101E-01 -0.1017418E+02 -0.1018428E+02  0.4274056E+00  0.1829296E+00  0.0000000E+00  0.0000000E+00  0.0000000E+00  0.0000000E+00
  0.6060606E-01  0.0000000E+00  0.1010101E-01 -0.1017754E+02 -0.1018764E+02  0.4273624E+00  0.1829111E+00  0.0000000E+00  0.0000000E+00  0.0000000E+00  0.0000000E+00
  0.7070707E-01  0.0000000E+00  0.1010101E-01 -0.1018159E+02 -0.1019169E+02  0.4273103E+00  0.1828888E+00  0.0000000E+00  0.0000000E+00  0.0000000E+00  0.0000000E+00
  0.8080808E-01  0.0000000E+00  0.1010101E-01 -0.1018639E+02 -0.1019649E+02  0.4272487E+00  0.1828625E+00  0.0000000E+00  0.0000000E+00  0.0000000E+00  0.0000000E+00
  0.9090909E-01  0.0000000E+00  0.1010101E-01 -0.1019200E+02 -0.1020210E+02  0.4271767E+00  0.1828316E+00  0.0000000E+00  0.0000000E+00  0.0000000E+00  0.0000000E+00
  0.1010101E+00  0.0000000E+00  0.1010101E-01 -0.1019851E+02 -0.1020861E+02  0.4270933E+00  0.1827960E+00  0.0000000E+00  0.0000000E+00  0.0000000E+00  0.0000000E+00
  0.1111111E+00  0.0000000E+00  0.1010101E-01 -0.1020602E+02 -0.1021612E+02  0.4269972E+00  0.1827548E+00  0.0000000E+00  0.0000000E+00  0.0000000E+00  0.0000000E+00
  0.1212121E+00  0.0000000E+00  0.1010101E-01 -0.1021468E+02 -0.1022478E+02  0.4268863E+00  0.1827073E+00  0.0000000E+00  0.0000000E+00  0.0000000E+00  0.0000000E+00
  0.1313131E+00  0.0000000E+00  0.1010101E-01 -0.1022472E+02 -0.1023482E+02  0.4267580E+00  0.1826524E+00  0.0000000E+00  0.0000000E+00  0.0000000E+00  0.0000000E+00
  0.1414141E+00  0.0000000E+00  0.1010101E-01 -0.1023648E+02 -0.1024658E+02  0.4266079E+00  0.1825882E+00  0.0000000E+00  0.0000000E+00  0.0000000E+00  0.0000000E+00
  0.1515152E+00  0.0000000E+00  0.1010101E-01 -0.1025058E+02 -0.1026068E+02  0.4264283E+00  0.1825113E+00  0.0000000E+00  0.0000000E+00  0.0000000E+00  0.0000000E+00
  0.1616162E+00  0.0000000E+00  0.1010101E-01 -0.1026829E+02 -0.1027839E+02  0.4262032E+00  0.1824150E+00  0.0000000E+00  0.0000000E+00  0.0000000E+00  0.0000000E+00
  0.1717172E+00  0.0000000E+00  0.1010101E-01 -0.1029264E+02 -0.1030274E+02  0.4258944E+00  0.1822828E+00  0.0000000E+00  0.0000000E+00  0.0000000E+00  0.0000000E+00
  0.1818182E+00  0.0000000E+00  0.1010101E-01 -0.1033252E+02 -0.1034262E+02  0.4253909E+00  0.1820673E+00  0.1579035E-10  0.0000000E+00  0.0000000E+00  0.1579035E-10
  0.1919192E+00  0.0000000E+00  0.1010101E-01 -0.1035535E+02 -0.1036545E+02  0.4251038E+00  0.1819444E+00  0.7887874E-11  0.0000000E+00  0.0000000E+00  0.7887874E-11
  0.2020202E+00  0.0000000E+00  0.1010101E-01 -0.1037131E+02 -0.1038141E+02  0.4249035E+00  0.1818587E+00  0.0000000E+00  0.0000000E+00  0.0000000E+00  0.0000000E+00
  0.2121212E+00  0.0000000E+00  0.1010101E-01 -0.1039113E+02 -0.1040123E+02  0.4246555E+00  0.1817526E+00  0.0000000E+00  0.0000000E+00  0.0000000E+00  0.0000000E+00
  0.2222222E+00  0.0000000E+00  0.1010101E-01 -0.1041369E+02 -0.1042380E+02  0.4243738E+00  0.1816320E+00  0.0000000E+00  0.0000000E+00  0.0000000E+00  0.0000000E+00
  0.2323232E+00  0.0000000E+00  0.1010101E-01 -0.1043677E+02 -0.1044687E+02  0.4240866E+00  0.1815091E+00  0.0000000E+00  0.0000000E+00  0.0000000E+00  0.0000000E+00
  0.2424242E+00  0.0000000E+00  0.1010101E-01 -0.1046060E+02 -0.1047070E+02  0.4237910E+00  0.1813825E+00  0.0000000E+00  0.0000000E+00  0.0000000E+00  0.0000000E+00
  0.2525253E+00  0.0000000E+00  0.1010101E-01 -0.1048619E+02 -0.1049629E+02  0.4234744E+00  0.1812470E+00  0.0000000E+00  0.0000000E+00  0.0000000E+00  0.0000000E+00
  0.2626263E+00  0.0000000E+00  0.1010101E-01 -0.1051579E+02 -0.1052589E+02  0.4231095E+00  0.1810909E+00  0.0000000E+00  0.0000000E+00  0.0000000E+00  0.0000000E+00
  0.2727273E+00  0.0000000E+00  0.1010101E-01 -0.1055317E+02 -0.1056327E+02  0.4226506E+00  0.1808945E+00  0.0000000E+00  0.0000000E+00  0.0000000E+00  0.0000000E+00
  0.2828283E+00  0.0000000E+00  0.1010101E-01 -0.1060553E+02 -0.1061563E+02  0.4220115E+00  0.1806209E+00  0.5953969E-11  0.0000000E+00  0.0000000E+00  0.5953969E-11
  0.2929293E+00  0.0000000E+00  0.1010101E-01 -0.1066148E+02 -0.1067158E+02  0.4213332E+00  0.1803306E+00  0.2072528E-10  0.0000000E+00  0.0000000E+00  0.2072528E-10
  0.3030303E+00  0.0000000E+00  0.1010101E-01 -0.1069079E+02 -0.1070089E+02  0.4209798E+00  0.1801793E+00  0.0000000E+00  0.0000000E+00  0.0000000E+00  0.0000000E+00
  0.3131313E+00  0.0000000E+00  0.1010101E-01 -0.1073956E+02 -0.1074966E+02  0.4203945E+00  0.1799288E+00  0.6225305E-11  0.0000000E+00  0.0000000E+00  0.6225305E-11
  0.3232323E+00  0.0000000E+00  0.1010101E-01 -0.1080066E+02 -0.1081076E+02  0.4196662E+00  0.1796171E+00  0.1915154E-10  0.0000000E+00  0.0000000E+00  0.1915154E-10
  0.3333333E+00  0.0000000E+00  0.1010101E-01 -0.1083168E+02 -0.1084178E+02  0.4192985E+00  0.1794598E+00  0.0000000E+00  0.0000000E+00  0.0000000E+00  0.0000000E+00
  0.3434343E+00  0.0000000E+00  0.1010101E-01 -0.1085565E+02 -0.1086576E+02  0.4190154E+00  0.1793386E+00  0.0000000E+00  0.0000000E+00  0.0000000E+00  0.0000000E+00
  0.3535354E+00  0.0000000E+00  0.1010101E-01 -0.1087580E+02 -0.1088590E+02  0.4187780E+00  0.1792370E+00  0.0000000E+00  0.0000000E+00  0.0000000E+00  0.0000000E+00
  0.3636364E+00  0.0000000E+00  0.1010101E-01 -0.1092443E+02 -0.1093453E+02  0.4182075E+00  0.1789928E+00  0.2115730E-10  0.0000000E+00  0.0000000E+00  0.2115730E-10
  0.3737374E+00  0.0000000E+00  0.1010101E-01 -0.1096493E+02 -0.1097503E+02  0.4177351E+00  0.1787906E+00  0.1006010E-10  0.0000000E+00  0.0000000E+00  0.1006010E-10
  0.3838384E+00  0.0000000E+00  0.1010101E-01 -0.1105199E+02 -0.1106209E+02  0.4167270E+00  0.1783592E+00  0.0000000E+00  0.0000000E+00  0.0000000E+00  0.0000000E+00
  0.3939394E+00  0.0000000E+00  0.1010101E-01 -0.1125931E+02 -0.1126941E+02  0.4143687E+00  0.1773498E+00  0.1161755E-09  0.0000000E+00  0.1683401E-10  0.1330095E-09
  0.4040404E+00  0.0000000E+00  0.1010101E-01 -0.1110415E+02 -0.1111425E+02  0.4161282E+00  0.1781029E+00  0.6094927E-11  0.0000000E+00  0.0000000E+00  0.6094927E-11
  0.4141414E+00  0.0000000E+00  0.1010101E-01 -0.1104826E+02 -0.1105836E+02  0.4167700E+00  0.1783776E+00  0.1883181E-10  0.0000000E+00  0.0000000E+00  0.1883181E-10
  0.4242424E+00  0.0000000E+00  0.1010101E-01 -0.1102216E+02 -0.1103226E+02  0.4170712E+00  0.1785065E+00  0.1256711E-10  0.0000000E+00  0.0000000E+00  0.1256711E-10
  0.4343434E+00  0.0000000E+00  0.1010101E-01 -0.1101027E+02 -0.1102037E+02  0.4172087E+00  0.1785653E+00  0.2330456E-10  0.0000000E+00  0.0000000E+00  0.2330456E-10
  0.4444444E+00  0.0000000E+00  0.1010101E-01 -0.1099466E+02 -0.1100476E+02  0.4173896E+00  0.1786427E+00  0.2331856E-10  0.0000000E+00  0.0000000E+00  0.2331856E-10
  0.4545455E+00  0.0000000E+00  0.1010101E-01 -0.1096866E+02 -0.1097876E+02  0.4176917E+00  0.1787720E+00  0.3102404E-10  0.0000000E+00  0.0000000E+00  0.3102404E-10
  0.4646465E+00  0.0000000E+00  0.1010101E-01 -0.1090329E+02 -0.1091339E+02  0.4184551E+00  0.1790988E+00  0.0000000E+00  0.0000000E+00  0.0000000E+00  0.0000000E+00
  0.4747475E+00  0.0000000E+00  0.1010101E-01 -0.1088414E+02 -0.1089424E+02  0.4186800E+00  0.1791950E+00  0.0000000E+00  0.0000000E+00  0.0000000E+00  0.0000000E+00
  0.4848485E+00  0.0000000E+00  0.1010101E-01 -0.1089414E+02 -0.1090424E+02  0.4185625E+00  0.1791448E+00  0.0000000E+00  0.0000000E+00  0.0000000E+00  0.0000000E+00
  0.4949495E+00  0.0000000E+00  0.1010101E-01 -0.1093341E+02 -0.1094351E+02  0.4181026E+00  0.1789479E+00  0.0000000E+00  0.0000000E+00  0.0000000E+00  0.0000000E+00
  0.5050505E+00  0.0000000E+00  0.1010101E-01 -0.1102196E+02 -0.1103206E+02  0.4170735E+00  0.1785075E+00  0.0000000E+00  0.0000000E+00  0.4831814E-10  0.4831814E-10
  0.5151515E+00  0.0000000E+00  0.1010101E-01 -0.1103060E+02 -0.1104070E+02  0.4169737E+00  0.1784647E+00  0.0000000E+00  0.0000000E+00  0.0000000E+00  0.0000000E+00
  0.5252525E+00  0.0000000E+00  0.1010101E-01 -0.1112726E+02 -0.1113736E+02  0.4158640E+00  0.1779898E+00  0.0000000E+00  0.0000000E+00  0.2662992E-10  0.2662992E-10
  0.5353535E+00  0.0000000E+00  0.1010101E-01 -0.1123026E+02 -0.1124036E+02  0.4146956E+00  0.1774897E+00  0.1414276E-10  0.0000000E+00  0.1717479E-10  0.3131755E-10
  0.5454545E+00  0.0000000E+00  0.1010101E-01 -0.1136592E+02 -0.1137602E+02  0.4131783E+00  0.1768403E+00  0.7035318E-11  0.0000000E+00  0.5869911E-10  0.6573443E-10
  0.5555556E+00  0.0000000E+00  0.1010101E-01 -0.1151365E+02 -0.1152375E+02  0.4115532E+00  0.1761448E+00  0.0000000E+00  0.0000000E+00  0.1484347E-09  0.1484347E-09
  0.5656566E+00  0.0000000E+00  0.1010101E-01 -0.1135498E+02 -0.1136509E+02  0.4132998E+00  0.1768923E+00  0.0000000E+00  0.0000000E+00  0.5174033E-10  0.5174033E-10
  0.5757576E+00  0.0000000E+00  0.1010101E-01 -0.1127087E+02 -0.1128098E+02  0.4142388E+00  0.1772942E+00  0.0000000E+00  0.0000000E+00  0.3866043E-10  0.3866043E-10
  0.5858586E+00  0.0000000E+00  0.1010101E-01 -0.1127516E+02 -0.1128526E+02  0.4141908E+00  0.1772737E+00  0.0000000E+00  0.0000000E+00  0.5914474E-10  0.5914474E-10
  0.5959596E+00  0.0000000E+00  0.1010101E-01 -0.1122724E+02 -0.1123734E+02  0.4147297E+00  0.1775043E+00  0.0000000E+00  0.0000000E+00  0.6115404E-10  0.6115404E-10
  0.6060606E+00  0.0000000E+00  0.1010101E-01 -0.1115628E+02 -0.1116638E+02  0.4155335E+00  0.1778483E+00  0.0000000E+00  0.0000000E+00  0.4736526E-10  0.4736526E-10
  0.6161616E+00  0.0000000E+00  0.1010101E-01 -0.1107755E+02 -0.1108765E+02  0.4164332E+00  0.1782334E+00  0.0000000E+00  0.0000000E+00  0.9962053E-11  0.9962053E-11
  0.6262626E+00  0.0000000E+00  0.1010101E-01 -0.1102466E+02 -0.1103476E+02  0.4170424E+00  0.1784941E+00  0.0000000E+00  0.0000000E+00  0.3510768E-10  0.3510768E-10
  0.6363636E+00  0.0000000E+00  0.1010101E-01 -0.1094229E+02 -0.1095239E+02  0.4179989E+00  0.1789035E+00  0.0000000E+00  0.0000000E+00  0.8484343E-11  0.8484343E-11
  0.6464646E+00  0.0000000E+00  0.1010101E-01 -0.1091521E+02 -0.1092531E+02  0.4183155E+00  0.1790390E+00  0.0000000E+00  0.0000000E+00  0.3208909E-10  0.3208909E-10
  0.6565657E+00  0.0000000E+00  0.1010101E-01 -0.1082673E+02 -0.1083683E+02  0.4193571E+00  0.1794849E+00  0.0000000E+00  0.0000000E+00  0.0000000E+00  0.0000000E+00
  0.6666667E+00  0.0000000E+00  0.1010101E-01 -0.1076424E+02 -0.1077434E+02  0.4200997E+00  0.1798027E+00  0.0000000E+00  0.0000000E+00  0.0000000E+00  0.0000000E+00
  0.6767677E+00  0.0000000E+00  0.1010101E-01 -0.1071878E+02 -0.1072888E+02  0.4206434E+00  0.1800354E+00  0.0000000E+00  0.0000000E+00  0.2688559E-10  0.2688559E-10
  0.6868687E+00  0.0000000E+00  0.1010101E-01 -0.1065160E+02 -0.1066171E+02  0.4214526E+00  0.1803817E+00  0.0000000E+00  0.0000000E+00  0.8985484E-11  0.8985484E-11
  0.6969697E+00  0.0000000E+00  0.1010101E-01 -0.1061044E+02 -0.1062054E+02  0.4219519E+00  0.1805954E+00  0.0000000E+00  0.0000000E+00  0.7974243E-11  0.7974243E-11
  0.7070707E+00  0.0000000E+00  0.1010101E-01 -0.1058736E+02 -0.1059746E+02  0.4222328E+00  0.1807157E+00  0.0000000E+00  0.0000000E+00  0.1596304E-10  0.1596304E-10
  0.7171717E+00  0.0000000E+00  0.1010101E-01 -0.1056743E+02 -0.1057753E+02  0.4224762E+00  0.1808198E+00  0.0000000E+00  0.0000000E+00  0.2396341E-10  0.2396341E-10
  0.7272727E+00  0.0000000E+00  0.1010101E-01 -0.1051071E+02 -0.1052081E+02  0.4231721E+00  0.1811176E+00  0.0000000E+00  0.0000000E+00  0.8005754E-11  0.8005754E-11
  0.7373737E+00  0.0000000E+00  0.1010101E-01 -0.1046161E+02 -0.1047171E+02  0.4237784E+00  0.1813772E+00  0.0000000E+00  0.0000000E+00  0.0000000E+00  0.0000000E+00
  0.7474747E+00  0.0000000E+00  0.1010101E-01 -0.1042446E+02 -0.1043456E+02  0.4242398E+00  0.1815746E+00  0.0000000E+00  0.0000000E+00  0.0000000E+00  0.0000000E+00
  0.7575758E+00  0.0000000E+00  0.1010101E-01 -0.1038880E+02 -0.1039890E+02  0.4246846E+00  0.1817650E+00  0.0000000E+00  0.0000000E+00  0.0000000E+00  0.0000000E+00
  0.7676768E+00  0.0000000E+00  0.1010101E-01 -0.1035810E+02 -0.1036820E+02  0.4250693E+00  0.1819297E+00  0.0000000E+00  0.0000000E+00  0.0000000E+00  0.0000000E+00
  0.7777778E+00  0.0000000E+00  0.1010101E-01 -0.1033038E+02 -0.1034048E+02  0.4254179E+00  0.1820789E+00  0.0000000E+00  0.0000000E+00  0.0000000E+00  0.0000000E+00
  0.7878788E+00  0.0000000E+00  0.1010101E-01 -0.1030302E+02 -0.1031312E+02  0.4257631E+00  0.1822266E+00  0.0000000E+00  0.0000000E+00  0.0000000E+00  0.0000000E+00