title = "dataset water"
variables = "x", "y", "z", "vx", "vy", "vz"
zone t = "velocities, solution time =  4.100E+01 days        " i =   99, j =   99, k =    1,  f=point
  0.5050505E-02  0.0000000E+00  0.5050505E-02  0.1044038E-06  0.0000000E+00  0.9845752E-04
  0.1515152E-01  0.0000000E+00  0.5050505E-02  0.3135722E-06  0.0000000E+00  0.9888180E-04
  0.2525252E-01  0.0000000E+00  0.5050505E-02  0.5238356E-06  0.0000000E+00  0.9973187E-04
  0.3535353E-01  0.0000000E+00  0.5050505E-02  0.7359425E-06  0.0000000E+00  0.1010108E-03
  0.4545455E-01  0.0000000E+00  0.5050505E-02  0.9506584E-06  0.0000000E+00  0.1027234E-03
  0.5555556E-01  0.0000000E+00  0.5050505E-02  0.1168769E-05  0.0000000E+00  0.1048759E-03
  0.6565657E-01  0.0000000E+00  0.5050505E-02  0.1391086E-05  0.0000000E+00  0.1074764E-03
  0.7575758E-01  0.0000000E+00  0.5050505E-02  0.1618451E-05  0.0000000E+00  0.1105347E-03
  0.8585858E-01  0.0000000E+00  0.5050505E-02  0.1851746E-05  0.0000000E+00  0.1140624E-03
  0.9595960E-01  0.0000000E+00  0.5050505E-02  0.2091899E-05  0.0000000E+00  0.1180731E-03
  0.1060606E+00  0.0000000E+00  0.5050505E-02  0.2339893E-05  0.0000000E+00  0.1225825E-03
  0.1161616E+00  0.0000000E+00  0.5050505E-02  0.2596780E-05  0.0000000E+00  0.1276084E-03
  0.1262626E+00  0.0000000E+00  0.5050505E-02  0.2863691E-05  0.0000000E+00  0.1331709E-03
  0.1363636E+00  0.0000000E+00  0.5050505E-02  0.3141852E-05  0.0000000E+00  0.1392929E-03
  0.1464646E+00  0.0000000E+00  0.5050505E-02  0.3432599E-05  0.0000000E+00  0.1459998E-03
  0.1565657E+00  0.0000000E+00  0.5050505E-02  0.3737394E-05  0.0000000E+00  0.1533202E-03
  0.1666667E+00  0.0000000E+00  0.5050505E-02  0.4057850E-05  0.0000000E+00  0.1612861E-03
  0.1767677E+00  0.0000000E+00  0.5050505E-02  0.4395750E-05  0.0000000E+00  0.1699331E-03
  0.1868687E+00  0.0000000E+00  0.5050505E-02  0.4753069E-05  0.0000000E+00  0.1793012E-03
  0.1969697E+00  0.0000000E+00  0.5050505E-02  0.5132005E-05  0.0000000E+00  0.1894346E-03
  0.2070707E+00  0.0000000E+00  0.5050505E-02  0.5535010E-05  0.0000000E+00  0.2003832E-03
  0.2171717E+00  0.0000000E+00  0.5050505E-02  0.5964820E-05  0.0000000E+00  0.2122023E-03
  0.2272727E+00  0.0000000E+00  0.5050505E-02  0.6424509E-05  0.0000000E+00  0.2249539E-03
  0.2373737E+00  0.0000000E+00  0.5050505E-02  0.6917547E-05  0.0000000E+00  0.2387074E-03
  0.2474747E+00  0.0000000E+00  0.5050505E-02  0.7447900E-05  0.0000000E+00  0.2535406E-03
  0.2575758E+00  0.0000000E+00  0.5050505E-02  0.8020184E-05  0.0000000E+00  0.2695411E-03
  0.2676768E+00  0.0000000E+00  0.5050505E-02  0.8639919E-05  0.0000000E+00  0.2868082E-03
  0.2777778E+00  0.0000000E+00  0.5050505E-02  0.9313961E-05  0.0000000E+00  0.3054553E-03
  0.2878788E+00  0.0000000E+00  0.5050505E-02  0.1005120E-04  0.0000000E+00  0.3256135E-03
  0.2979798E+00  0.0000000E+00  0.5050505E-02  0.1086372E-04  0.0000000E+00  0.3474383E-03
  0.3080808E+00  0.0000000E+00  0.5050505E-02  0.1176868E-04  0.0000000E+00  0.3711177E-03
  0.3181818E+00  0.0000000E+00  0.5050505E-02  0.1279134E-04  0.0000000E+00  0.3968877E-03
  0.3282828E+00  0.0000000E+00  0.5050505E-02  0.1397041E-04  0.0000000E+00  0.4250555E-03
  0.3383838E+00  0.0000000E+00  0.5050505E-02  0.1536809E-04  0.0000000E+00  0.4560408E-03
  0.3484848E+00  0.0000000E+00  0.5050505E-02  0.1709357E-04  0.0000000E+00  0.4904533E-03
  0.3585859E+00  0.0000000E+00  0.5050505E-02  0.1936963E-04  0.0000000E+00  0.5292691E-03
  0.3686869E+00  0.0000000E+00  0.5050505E-02  0.2275321E-04  0.0000000E+00  0.5743219E-03
  0.3787879E+00  0.0000000E+00  0.5050505E-02  0.2891929E-04  0.0000000E+00  0.6298960E-03
  0.3888889E+00  0.0000000E+00  0.5050505E-02  0.4350288E-04  0.0000000E+00  0.7083372E-03
  0.3989899E+00  0.0000000E+00  0.5050505E-02 -0.3488358E-04  0.0000000E+00  0.7176166E-03
  0.4090909E+00  0.0000000E+00  0.5050505E-02 -0.1928824E-04  0.0000000E+00  0.6587424E-03
  0.4191919E+00  0.0000000E+00  0.5050505E-02 -0.1206913E-04  0.0000000E+00  0.6248129E-03
  0.4292929E+00  0.0000000E+00  0.5050505E-02 -0.7712247E-05  0.0000000E+00  0.6034665E-03
  0.4393939E+00  0.0000000E+00  0.5050505E-02 -0.4428116E-05  0.0000000E+00  0.5903869E-03
  0.4494950E+00  0.0000000E+00  0.5050505E-02 -0.1562095E-05  0.0000000E+00  0.5839386E-03
  0.4595959E+00  0.0000000E+00  0.5050505E-02  0.1168105E-05  0.0000000E+00  0.5835146E-03
  0.4696970E+00  0.0000000E+00  0.5050505E-02  0.3921197E-05  0.0000000E+00  0.5889928E-03
  0.4797980E+00  0.0000000E+00  0.5050505E-02  0.6826967E-05  0.0000000E+00  0.6005703E-03
  0.4898990E+00  0.0000000E+00  0.5050505E-02  0.1002543E-04  0.0000000E+00  0.6187488E-03
  0.5000000E+00  0.0000000E+00  0.5050505E-02  0.1368344E-04  0.0000000E+00  0.6443797E-03
  0.5101010E+00  0.0000000E+00  0.5050505E-02  0.1798361E-04  0.0000000E+00  0.6787203E-03
  0.5202020E+00  0.0000000E+00  0.5050505E-02  0.2306264E-04  0.0000000E+00  0.7234168E-03
  0.5303030E+00  0.0000000E+00  0.5050505E-02  0.2911813E-04  0.0000000E+00  0.7805445E-03
  0.5404040E+00  0.0000000E+00  0.5050505E-02  0.3963812E-04  0.0000000E+00  0.8563496E-03
  0.5505050E+00  0.0000000E+00  0.5050505E-02  0.6823494E-04  0.0000000E+00  0.9764505E-03
  0.5606061E+00  0.0000000E+00  0.5050505E-02 -0.2628927E-04  0.0000000E+00  0.1023004E-02
  0.5707071E+00  0.0000000E+00  0.5050505E-02 -0.6453573E-04  0.0000000E+00  0.9216023E-03
  0.5808081E+00  0.0000000E+00  0.5050505E-02 -0.5057954E-04  0.0000000E+00  0.7944473E-03
  0.5909091E+00  0.0000000E+00  0.5050505E-02 -0.3726667E-04  0.0000000E+00  0.6985202E-03
  0.6010101E+00  0.0000000E+00  0.5050505E-02 -0.3009314E-04  0.0000000E+00  0.6256239E-03
  0.6111111E+00  0.0000000E+00  0.5050505E-02 -0.2536714E-04  0.0000000E+00  0.5660394E-03
  0.6212121E+00  0.0000000E+00  0.5050505E-02 -0.2191595E-04  0.0000000E+00  0.5155502E-03
  0.6313131E+00  0.0000000E+00  0.5050505E-02 -0.1923698E-04  0.0000000E+00  0.4718388E-03
  0.6414142E+00  0.0000000E+00  0.5050505E-02 -0.1707046E-04  0.0000000E+00  0.4334528E-03
  0.6515151E+00  0.0000000E+00  0.5050505E-02 -0.1526735E-04  0.0000000E+00  0.3994044E-03
  0.6616161E+00  0.0000000E+00  0.5050505E-02 -0.1373592E-04  0.0000000E+00  0.3689793E-03
  0.6717172E+00  0.0000000E+00  0.5050505E-02 -0.1241611E-04  0.0000000E+00  0.3416359E-03
  0.6818182E+00  0.0000000E+00  0.5050505E-02 -0.1126620E-04  0.0000000E+00  0.3169487E-03
  0.6919192E+00  0.0000000E+00  0.5050505E-02 -0.1025569E-04  0.0000000E+00  0.2945745E-03
  0.7020202E+00  0.0000000E+00  0.5050505E-02 -0.9361299E-05  0.0000000E+00  0.2742309E-03
  0.7121212E+00  0.0000000E+00  0.5050505E-02 -0.8564723E-05  0.0000000E+00  0.2556828E-03
  0.7222222E+00  0.0000000E+00  0.5050505E-02 -0.7851255E-05  0.0000000E+00  0.2387320E-03
  0.7323232E+00  0.0000000E+00  0.5050505E-02 -0.7208911E-05  0.0000000E+00  0.2232106E-03
  0.7424242E+00  0.0000000E+00  0.5050505E-02 -0.6627825E-05  0.0000000E+00  0.2089747E-03
  0.7525253E+00  0.0000000E+00  0.5050505E-02 -0.6099799E-05  0.0000000E+00  0.1959008E-03
  0.7626263E+00  0.0000000E+00  0.5050505E-02 -0.5617976E-05  0.0000000E+00  0.1838818E-03
  0.7727273E+00  0.0000000E+00  0.5050505E-02 -0.5176577E-05  0.0000000E+00  0.1728246E-03
  0.7828283E+00  0.0000000E+00  0.5050505E-02 -0.4770700E-05  0.0000000E+00  0.1626480E-03
  0.7929293E+00  0.0000000E+00  0.5050505E-02 -0.4396155E-05  0.0000000E+00  0.1532805E-03
  0.8030303E+00  0.0000000E+00  0.5050505E-02 -0.4049339E-05  0.0000000E+00  0.1446592E-03
  0.8131313E+00  0.0000000E+00  0.5050505E-02 -0.3727131E-05  0.0000000E+00  0.1367285E-03
  0.8232324E+00  0.0000000E+00  0.5050505E-02 -0.3426811E-05  0.0000000E+00  0.1294392E-03
  0.8333333E+00  0.0000000E+00  0.5050505E-02 -0.3145993E-05  0.0000000E+00  0.1227475E-03
  0.8434343E+00  0.0000000E+00  0.5050505E-02 -0.2882570E-05  0.0000000E+00  0.1166145E-03
  0.8535354E+00  0.0000000E+00  0.5050505E-02 -0.2634670E-05  0.0000000E+00  0.1110055E-03
  0.8636364E+00  0.0000000E+00  0.5050505E-02 -0.2400620E-05  0.0000000E+00  0.1058896E-03
  0.8737374E+00  0.0000000E+00  0.5050505E-02 -0.2178915E-05  0.0000000E+00  0.1012395E-03
  0.8838384E+00  0.0000000E+00  0.5050505E-02 -0.1968193E-05  0.0000000E+00  0.9703056E-04
  0.8939394E+00  0.0000000E+00  0.5050505E-02 -0.1767212E-05  0.0000000E+00  0.9324125E-04
  0.9040404E+00  0.0000000E+00  0.5050505E-02 -0.1574837E-05  0.0000000E+00  0.8985238E-04
  0.9141414E+00  0.0000000E+00  0.5050505E-02 -0.1390016E-05  0.0000000E+00  0.8684710E-04
  0.9242424E+00  0.0000000E+00  0.5050505E-02 -0.1211777E-05  0.0000000E+00  0.8421067E-04
  0.9343435E+00  0.0000000E+00  0.5050505E-02 -0.1039207E-05  0.0000000E+00  0.8193037E-04
  0.9444444E+00  0.0000000E+00  0.5050505E-02 -0.8714484E-06  0.0000000E+00  0.7999528E-04
  0.9545454E+00  0.0000000E+00  0.5050505E-02 -0.7076875E-06  0.0000000E+00  0.7839626E-04
  0.9646465E+00  0.0000000E+00  0.5050505E-02 -0.5471467E-06  0.0000000E+00  0.7712582E-04
  0.9747475E+00  0.0000000E+00  0.5050505E-02 -0.3890777E-06  0.0000000E+00  0.7617807E-04
  0.9848485E+00  0.0000000E+00  0.5050505E-02 -0.2327549E-06  0.0000000E+00  0.7554863E-04
  0.9974747E+00  0.0000000E+00  0.5050505E-02 -0.7747050E-07  0.0000000E+00  0.7523462E-04
  0.5050505E-02  0.0000000E+00  0.1515152E-01  0.3127811E-06  0.0000000E+00  0.9836499E-04
  0.1515152E-01  0.0000000E+00  0.1515152E-01  0.9394304E-06  0.0000000E+00  0.9878878E-04
  0.2525252E-01  0.0000000E+00  0.1515152E-01  0.1569370E-05  0.0000000E+00  0.9963786E-04
  0.3535353E-01  0.0000000E+00  0.1515152E-01  0.2204844E-05  0.0000000E+00  0.1009153E-03
  0.4545455E-01  0.0000000E+00  0.1515152E-01  0.2848146E-05  0.0000000E+00  0.1026258E-03
  0.5555556E-01  0.0000000E+00  0.1515152E-01  0.3501627E-05  0.0000000E+00  0.1047756E-03
  0.6565657E-01  0.0000000E+00  0.1515152E-01  0.4167718E-05  0.0000000E+00  0.1073728E-03
  0.7575758E-01  0.0000000E+00  0.1515152E-01  0.4848939E-05  0.0000000E+00  0.1104271E-03
  0.8585858E-01  0.0000000E+00  0.1515152E-01  0.5547928E-05  0.0000000E+00  0.1139501E-03
  0.9595960E-01  0.0000000E+00  0.1515152E-01  0.6267461E-05  0.0000000E+00  0.1179554E-03
  0.1060606E+00  0.0000000E+00  0.1515152E-01  0.7010482E-05  0.0000000E+00  0.1224585E-03
  0.1161616E+00  0.0000000E+00  0.1515152E-01  0.7780138E-05  0.0000000E+00  0.1274771E-03
  0.1262626E+00  0.0000000E+00  0.1515152E-01  0.8579814E-05  0.0000000E+00  0.1330313E-03
  0.1363636E+00  0.0000000E+00  0.1515152E-01  0.9413174E-05  0.0000000E+00  0.1391438E-03
  0.1464646E+00  0.0000000E+00  0.1515152E-01  0.1028421E-04  0.0000000E+00  0.1458399E-03
  0.1565657E+00  0.0000000E+00  0.1515152E-01  0.1119731E-04  0.0000000E+00  0.1531481E-03
  0.1666667E+00  0.0000000E+00  0.1515152E-01  0.1215730E-04  0.0000000E+00  0.1611000E-03
  0.1767677E+00  0.0000000E+00  0.1515152E-01  0.1316949E-04  0.0000000E+00  0.1697313E-03
  0.1868687E+00  0.0000000E+00  0.1515152E-01  0.1423982E-04  0.0000000E+00  0.1790814E-03
  0.1969697E+00  0.0000000E+00  0.1515152E-01  0.1537485E-04  0.0000000E+00  0.1891946E-03
  0.2070707E+00  0.0000000E+00  0.1515152E-01  0.1658191E-04  0.0000000E+00  0.2001201E-03
  0.2171717E+00  0.0000000E+00  0.1515152E-01  0.1786918E-04  0.0000000E+00  0.2119132E-03
  0.2272727E+00  0.0000000E+00  0.1515152E-01  0.1924583E-04  0.0000000E+00  0.2246352E-03
  0.2373737E+00  0.0000000E+00  0.1515152E-01  0.2072219E-04  0.0000000E+00  0.2383551E-03
  0.2474747E+00  0.0000000E+00  0.1515152E-01  0.2231002E-04  0.0000000E+00  0.2531499E-03
  0.2575758E+00  0.0000000E+00  0.1515152E-01  0.2402292E-04  0.0000000E+00  0.2691060E-03
  0.2676768E+00  0.0000000E+00  0.1515152E-01  0.2587704E-04  0.0000000E+00  0.2863209E-03
  0.2777778E+00  0.0000000E+00  0.1515152E-01  0.2789227E-04  0.0000000E+00  0.3049049E-03
  0.2878788E+00  0.0000000E+00  0.1515152E-01  0.3009416E-04  0.0000000E+00  0.3249846E-03
  0.2979798E+00  0.0000000E+00  0.1515152E-01  0.3251716E-04  0.0000000E+00  0.3467075E-03
  0.3080808E+00  0.0000000E+00  0.1515152E-01  0.3520977E-04  0.0000000E+00  0.3702488E-03
  0.3181818E+00  0.0000000E+00  0.1515152E-01  0.3824281E-04  0.0000000E+00  0.3958232E-03
  0.3282828E+00  0.0000000E+00  0.1515152E-01  0.4172279E-04  0.0000000E+00  0.4237011E-03
  0.3383838E+00  0.0000000E+00  0.1515152E-01  0.4581439E-04  0.0000000E+00  0.4542315E-03
  0.3484848E+00  0.0000000E+00  0.1515152E-01  0.5078291E-04  0.0000000E+00  0.4878628E-03
  0.3585859E+00  0.0000000E+00  0.1515152E-01  0.5709174E-04  0.0000000E+00  0.5251219E-03
  0.3686869E+00  0.0000000E+00  0.1515152E-01  0.6568683E-04  0.0000000E+00  0.5663878E-03
  0.3787879E+00  0.0000000E+00  0.1515152E-01  0.7898057E-04  0.0000000E+00  0.6108626E-03
  0.3888889E+00  0.0000000E+00  0.1515152E-01  0.1044763E-03  0.0000000E+00  0.6526734E-03
  0.3989899E+00  0.0000000E+00  0.1515152E-01 -0.7952018E-04  0.0000000E+00  0.6609600E-03
  0.4090909E+00  0.0000000E+00  0.1515152E-01 -0.5009841E-04  0.0000000E+00  0.6377026E-03
  0.4191919E+00  0.0000000E+00  0.1515152E-01 -0.3353073E-04  0.0000000E+00  0.6149544E-03
  0.4292929E+00  0.0000000E+00  0.1515152E-01 -0.2212452E-04  0.0000000E+00  0.5974881E-03
  0.4393939E+00  0.0000000E+00  0.1515152E-01 -0.1288915E-04  0.0000000E+00  0.5858514E-03
  0.4494950E+00  0.0000000E+00  0.1515152E-01 -0.4564442E-05  0.0000000E+00  0.5799191E-03
  0.4595959E+00  0.0000000E+00  0.1515152E-01  0.3465839E-05  0.0000000E+00  0.5795823E-03
  0.4696970E+00  0.0000000E+00  0.1515152E-01  0.1159436E-04  0.0000000E+00  0.5848724E-03
  0.4797980E+00  0.0000000E+00  0.1515152E-01  0.2017443E-04  0.0000000E+00  0.5960061E-03
  0.4898990E+00  0.0000000E+00  0.1515152E-01  0.2961038E-04  0.0000000E+00  0.6134482E-03
  0.5000000E+00  0.0000000E+00  0.1515152E-01  0.4041345E-04  0.0000000E+00  0.6380069E-03
  0.5101010E+00  0.0000000E+00  0.1515152E-01  0.5318928E-04  0.0000000E+00  0.6709683E-03
  0.5202020E+00  0.0000000E+00  0.1515152E-01  0.6825031E-04  0.0000000E+00  0.7139602E-03
  0.5303030E+00  0.0000000E+00  0.1515152E-01  0.8324031E-04  0.0000000E+00  0.7657016E-03
  0.5404040E+00  0.0000000E+00  0.1515152E-01  0.1025198E-03  0.0000000E+00  0.8190228E-03
  0.5505050E+00  0.0000000E+00  0.1515152E-01  0.1613538E-03  0.0000000E+00  0.8725980E-03
  0.5606061E+00  0.0000000E+00  0.1515152E-01 -0.7629629E-04  0.0000000E+00  0.8738177E-03
  0.5707071E+00  0.0000000E+00  0.1515152E-01 -0.1592039E-03  0.0000000E+00  0.8140165E-03
  0.5808081E+00  0.0000000E+00  0.1515152E-01 -0.1316338E-03  0.0000000E+00  0.7474475E-03
  0.5909091E+00  0.0000000E+00  0.1515152E-01 -0.1062469E-03  0.0000000E+00  0.6797302E-03
  0.6010101E+00  0.0000000E+00  0.1515152E-01 -0.8807767E-04  0.0000000E+00  0.6153023E-03
  0.6111111E+00  0.0000000E+00  0.1515152E-01 -0.7496338E-04  0.0000000E+00  0.5593239E-03
  0.6212121E+00  0.0000000E+00  0.1515152E-01 -0.6506511E-04  0.0000000E+00  0.5107712E-03
  0.6313131E+00  0.0000000E+00  0.1515152E-01 -0.5726276E-04  0.0000000E+00  0.4682414E-03
  0.6414142E+00  0.0000000E+00  0.1515152E-01 -0.5089683E-04  0.0000000E+00  0.4306364E-03
  0.6515151E+00  0.0000000E+00  0.1515152E-01 -0.4556888E-04  0.0000000E+00  0.3971365E-03
  0.6616161E+00  0.0000000E+00  0.1515152E-01 -0.4102712E-04  0.0000000E+00  0.3671160E-03
  0.6717172E+00  0.0000000E+00  0.1515152E-01 -0.3710359E-04  0.0000000E+00  0.3400829E-03
  0.6818182E+00  0.0000000E+00  0.1515152E-01 -0.3367977E-04  0.0000000E+00  0.3156408E-03
  0.6919192E+00  0.0000000E+00  0.1515152E-01 -0.3066778E-04  0.0000000E+00  0.2934641E-03
  0.7020202E+00  0.0000000E+00  0.1515152E-01 -0.2799985E-04  0.0000000E+00  0.2732822E-03
  0.7121212E+00  0.0000000E+00  0.1515152E-01 -0.2562230E-04  0.0000000E+00  0.2548677E-03
  0.7222222E+00  0.0000000E+00  0.1515152E-01 -0.2349180E-04  0.0000000E+00  0.2380284E-03
  0.7323232E+00  0.0000000E+00  0.1515152E-01 -0.2157291E-04  0.0000000E+00  0.2226006E-03
  0.7424242E+00  0.0000000E+00  0.1515152E-01 -0.1983643E-04  0.0000000E+00  0.2084439E-03
  0.7525253E+00  0.0000000E+00  0.1515152E-01 -0.1825804E-04  0.0000000E+00  0.1954372E-03
  0.7626263E+00  0.0000000E+00  0.1515152E-01 -0.1681738E-04  0.0000000E+00  0.1834756E-03
  0.7727273E+00  0.0000000E+00  0.1515152E-01 -0.1549730E-04  0.0000000E+00  0.1724677E-03
  0.7828283E+00  0.0000000E+00  0.1515152E-01 -0.1428321E-04  0.0000000E+00  0.1623334E-03
  0.7929293E+00  0.0000000E+00  0.1515152E-01 -0.1316265E-04  0.0000000E+00  0.1530025E-03
  0.8030303E+00  0.0000000E+00  0.1515152E-01 -0.1212488E-04  0.0000000E+00  0.1444130E-03
  0.8131313E+00  0.0000000E+00  0.1515152E-01 -0.1116062E-04  0.0000000E+00  0.1365098E-03
  0.8232324E+00  0.0000000E+00  0.1515152E-01 -0.1026176E-04  0.0000000E+00  0.1292445E-03
  0.8333333E+00  0.0000000E+00  0.1515152E-01 -0.9421182E-05  0.0000000E+00  0.1225736E-03
  0.8434343E+00  0.0000000E+00  0.1515152E-01 -0.8632595E-05  0.0000000E+00  0.1164588E-03
  0.8535354E+00  0.0000000E+00  0.1515152E-01 -0.7890416E-05  0.0000000E+00  0.1108657E-03
  0.8636364E+00  0.0000000E+00  0.1515152E-01 -0.7189649E-05  0.0000000E+00  0.1057637E-03
  0.8737374E+00  0.0000000E+00  0.1515152E-01 -0.6525800E-05  0.0000000E+00  0.1011256E-03
  0.8838384E+00  0.0000000E+00  0.1515152E-01 -0.5894798E-05  0.0000000E+00  0.9692715E-04
  0.8939394E+00  0.0000000E+00  0.1515152E-01 -0.5292936E-05  0.0000000E+00  0.9314694E-04
  0.9040404E+00  0.0000000E+00  0.1515152E-01 -0.4716816E-05  0.0000000E+00  0.8976591E-04
  0.9141414E+00  0.0000000E+00  0.1515152E-01 -0.4163300E-05  0.0000000E+00  0.8676737E-04
  0.9242424E+00  0.0000000E+00  0.1515152E-01 -0.3629475E-05  0.0000000E+00  0.8413668E-04
  0.9343435E+00  0.0000000E+00  0.1515152E-01 -0.3112616E-05  0.0000000E+00  0.8186119E-04
  0.9444444E+00  0.0000000E+00  0.1515152E-01 -0.2610157E-05  0.0000000E+00  0.7993010E-04
  0.9545454E+00  0.0000000E+00  0.1515152E-01 -0.2119665E-05  0.0000000E+00  0.7833431E-04
  0.9646465E+00  0.0000000E+00  0.1515152E-01 -0.1638813E-05  0.0000000E+00  0.7706639E-04
  0.9747475E+00  0.0000000E+00  0.1515152E-01 -0.1165362E-05  0.0000000E+00  0.7612048E-04
  0.9848485E+00  0.0000000E+00  0.1515152E-01 -0.6971438E-06  0.0000000E+00  0.7549225E-04
  0.9974747E+00  0.0000000E+00  0.1515152E-01 -0.2320377E-06  0.0000000E+00  0.7517883E-04
  0.5050505E-02  0.0000000E+00  0.2525252E-01  0.5201888E-06  0.0000000E+00  0.9818511E-04
  0.1515152E-01  0.0000000E+00  0.2525252E-01  0.1562384E-05  0.0000000E+00  0.9860794E-04
  0.2525252E-01  0.0000000E+00  0.2525252E-01  0.2610070E-05  0.0000000E+00  0.9945508E-04
  0.3535353E-01  0.0000000E+00  0.2525252E-01  0.3666979E-05  0.0000000E+00  0.1007295E-03
  0.4545455E-01  0.0000000E+00  0.2525252E-01  0.4736924E-05  0.0000000E+00  0.1024360E-03
  0.5555556E-01  0.0000000E+00  0.2525252E-01  0.5823812E-05  0.0000000E+00  0.1045806E-03
  0.6565657E-01  0.0000000E+00  0.2525252E-01  0.6931677E-05  0.0000000E+00  0.1071714E-03
  0.7575758E-01  0.0000000E+00  0.2525252E-01  0.8064705E-05  0.0000000E+00  0.1102180E-03
  0.8585858E-01  0.0000000E+00  0.2525252E-01  0.9227273E-05  0.0000000E+00  0.1137320E-03
  0.9595960E-01  0.0000000E+00  0.2525252E-01  0.1042399E-04  0.0000000E+00  0.1177267E-03
  0.1060606E+00  0.0000000E+00  0.2525252E-01  0.1165973E-04  0.0000000E+00  0.1222175E-03
  0.1161616E+00  0.0000000E+00  0.2525252E-01  0.1293972E-04  0.0000000E+00  0.1272221E-03
  0.1262626E+00  0.0000000E+00  0.2525252E-01  0.1426957E-04  0.0000000E+00  0.1327602E-03
  0.1363636E+00  0.0000000E+00  0.2525252E-01  0.1565536E-04  0.0000000E+00  0.1388544E-03
  0.1464646E+00  0.0000000E+00  0.2525252E-01  0.1710371E-04  0.0000000E+00  0.1455296E-03
  0.1565657E+00  0.0000000E+00  0.2525252E-01  0.1862188E-04  0.0000000E+00  0.1528140E-03
  0.1666667E+00  0.0000000E+00  0.2525252E-01  0.2021788E-04  0.0000000E+00  0.1607391E-03
  0.1767677E+00  0.0000000E+00  0.2525252E-01  0.2190054E-04  0.0000000E+00  0.1693398E-03
  0.1868687E+00  0.0000000E+00  0.2525252E-01  0.2367967E-04  0.0000000E+00  0.1786553E-03
  0.1969697E+00  0.0000000E+00  0.2525252E-01  0.2556619E-04  0.0000000E+00  0.1887292E-03
  0.2070707E+00  0.0000000E+00  0.2525252E-01  0.2757223E-04  0.0000000E+00  0.1996104E-03
  0.2171717E+00  0.0000000E+00  0.2525252E-01  0.2971134E-04  0.0000000E+00  0.2113532E-03
  0.2272727E+00  0.0000000E+00  0.2525252E-01  0.3199866E-04  0.0000000E+00  0.2240184E-03
  0.2373737E+00  0.0000000E+00  0.2525252E-01  0.3445116E-04  0.0000000E+00  0.2376738E-03
  0.2474747E+00  0.0000000E+00  0.2525252E-01  0.3708804E-04  0.0000000E+00  0.2523951E-03
  0.2575758E+00  0.0000000E+00  0.2525252E-01  0.3993124E-04  0.0000000E+00  0.2682667E-03
  0.2676768E+00  0.0000000E+00  0.2525252E-01  0.4300644E-04  0.0000000E+00  0.2853829E-03
  0.2777778E+00  0.0000000E+00  0.2525252E-01  0.4634470E-04  0.0000000E+00  0.3038491E-03
  0.2878788E+00  0.0000000E+00  0.2525252E-01  0.4998515E-04  0.0000000E+00  0.3237834E-03
  0.2979798E+00  0.0000000E+00  0.2525252E-01  0.5397964E-04  0.0000000E+00  0.3453194E-03
  0.3080808E+00  0.0000000E+00  0.2525252E-01  0.5840010E-04  0.0000000E+00  0.3686103E-03
  0.3181818E+00  0.0000000E+00  0.2525252E-01  0.6335021E-04  0.0000000E+00  0.3938347E-03
  0.3282828E+00  0.0000000E+00  0.2525252E-01  0.6898301E-04  0.0000000E+00  0.4212066E-03
  0.3383838E+00  0.0000000E+00  0.2525252E-01  0.7552587E-04  0.0000000E+00  0.4509862E-03
  0.3484848E+00  0.0000000E+00  0.2525252E-01  0.8330919E-04  0.0000000E+00  0.4834824E-03
  0.3585859E+00  0.0000000E+00  0.2525252E-01  0.9277243E-04  0.0000000E+00  0.5189863E-03
  0.3686869E+00  0.0000000E+00  0.2525252E-01  0.1043382E-03  0.0000000E+00  0.5573739E-03
  0.3787879E+00  0.0000000E+00  0.2525252E-01  0.1178103E-03  0.0000000E+00  0.5963577E-03
  0.3888889E+00  0.0000000E+00  0.2525252E-01  0.1305740E-03  0.0000000E+00  0.6250233E-03
  0.3989899E+00  0.0000000E+00  0.2525252E-01 -0.9289015E-04  0.0000000E+00  0.6304356E-03
  0.4090909E+00  0.0000000E+00  0.2525252E-01 -0.6900715E-04  0.0000000E+00  0.6181870E-03
  0.4191919E+00  0.0000000E+00  0.2525252E-01 -0.5019888E-04  0.0000000E+00  0.6020996E-03
  0.4292929E+00  0.0000000E+00  0.2525252E-01 -0.3452234E-04  0.0000000E+00  0.5879168E-03
  0.4393939E+00  0.0000000E+00  0.2525252E-01 -0.2051642E-04  0.0000000E+00  0.5777706E-03
  0.4494950E+00  0.0000000E+00  0.2525252E-01 -0.7319435E-05  0.0000000E+00  0.5724103E-03
  0.4595959E+00  0.0000000E+00  0.2525252E-01  0.5629031E-05  0.0000000E+00  0.5721030E-03
  0.4696970E+00  0.0000000E+00  0.2525252E-01  0.1879332E-04  0.0000000E+00  0.5769934E-03
  0.4797980E+00  0.0000000E+00  0.2525252E-01  0.3266724E-04  0.0000000E+00  0.5872693E-03
  0.4898990E+00  0.0000000E+00  0.2525252E-01  0.4786759E-04  0.0000000E+00  0.6032745E-03
  0.5000000E+00  0.0000000E+00  0.2525252E-01  0.6526317E-04  0.0000000E+00  0.6256585E-03
  0.5101010E+00  0.0000000E+00  0.2525252E-01  0.8624432E-04  0.0000000E+00  0.6558734E-03
  0.5202020E+00  0.0000000E+00  0.2525252E-01  0.1134886E-03  0.0000000E+00  0.6985182E-03
  0.5303030E+00  0.0000000E+00  0.2525252E-01  0.1334153E-03  0.0000000E+00  0.7516014E-03
  0.5404040E+00  0.0000000E+00  0.2525252E-01  0.1293944E-03  0.0000000E+00  0.7837346E-03
  0.5505050E+00  0.0000000E+00  0.2525252E-01  0.1796421E-03  0.0000000E+00  0.7814752E-03
  0.5606061E+00  0.0000000E+00  0.2525252E-01 -0.1089545E-03  0.0000000E+00  0.7647051E-03
  0.5707071E+00  0.0000000E+00  0.2525252E-01 -0.1875571E-03  0.0000000E+00  0.7559630E-03
  0.5808081E+00  0.0000000E+00  0.2525252E-01 -0.1913068E-03  0.0000000E+00  0.7254672E-03
  0.5909091E+00  0.0000000E+00  0.2525252E-01 -0.1688723E-03  0.0000000E+00  0.6601444E-03
  0.6010101E+00  0.0000000E+00  0.2525252E-01 -0.1415852E-03  0.0000000E+00  0.5991581E-03
  0.6111111E+00  0.0000000E+00  0.2525252E-01 -0.1217328E-03  0.0000000E+00  0.5474859E-03
  0.6212121E+00  0.0000000E+00  0.2525252E-01 -0.1063974E-03  0.0000000E+00  0.5019673E-03
  0.6313131E+00  0.0000000E+00  0.2525252E-01 -0.9406431E-04  0.0000000E+00  0.4614703E-03
  0.6414142E+00  0.0000000E+00  0.2525252E-01 -0.8385364E-04  0.0000000E+00  0.4252666E-03
  0.6515151E+00  0.0000000E+00  0.2525252E-01 -0.7522169E-04  0.0000000E+00  0.3927759E-03
  0.6616161E+00  0.0000000E+00  0.2525252E-01 -0.6781426E-04  0.0000000E+00  0.3635136E-03
  0.6717172E+00  0.0000000E+00  0.2525252E-01 -0.6138715E-04  0.0000000E+00  0.3370699E-03
  0.6818182E+00  0.0000000E+00  0.2525252E-01 -0.5576241E-04  0.0000000E+00  0.3130974E-03
  0.6919192E+00  0.0000000E+00  0.2525252E-01 -0.5080440E-04  0.0000000E+00  0.2913017E-03
  0.7020202E+00  0.0000000E+00  0.2525252E-01 -0.4640641E-04  0.0000000E+00  0.2714326E-03
  0.7121212E+00  0.0000000E+00  0.2525252E-01 -0.4248267E-04  0.0000000E+00  0.2532776E-03
  0.7222222E+00  0.0000000E+00  0.2525252E-01 -0.3896337E-04  0.0000000E+00  0.2366551E-03
  0.7323232E+00  0.0000000E+00  0.2525252E-01 -0.3579115E-04  0.0000000E+00  0.2214096E-03
  0.7424242E+00  0.0000000E+00  0.2525252E-01 -0.3291849E-04  0.0000000E+00  0.2074071E-03
  0.7525253E+00  0.0000000E+00  0.2525252E-01 -0.3030581E-04  0.0000000E+00  0.1945315E-03
  0.7626263E+00  0.0000000E+00  0.2525252E-01 -0.2791987E-04  0.0000000E+00  0.1826819E-03
  0.7727273E+00  0.0000000E+00  0.2525252E-01 -0.2573261E-04  0.0000000E+00  0.1717702E-03
  0.7828283E+00  0.0000000E+00  0.2525252E-01 -0.2372015E-04  0.0000000E+00  0.1617187E-03
  0.7929293E+00  0.0000000E+00  0.2525252E-01 -0.2186207E-04  0.0000000E+00  0.1524594E-03
  0.8030303E+00  0.0000000E+00  0.2525252E-01 -0.2014075E-04  0.0000000E+00  0.1439318E-03
  0.8131313E+00  0.0000000E+00  0.2525252E-01 -0.1854090E-04  0.0000000E+00  0.1360826E-03
  0.8232324E+00  0.0000000E+00  0.2525252E-01 -0.1704918E-04  0.0000000E+00  0.1288641E-03
  0.8333333E+00  0.0000000E+00  0.2525252E-01 -0.1565387E-04  0.0000000E+00  0.1222341E-03
  0.8434343E+00  0.0000000E+00  0.2525252E-01 -0.1434461E-04  0.0000000E+00  0.1161549E-03
  0.8535354E+00  0.0000000E+00  0.2525252E-01 -0.1311218E-04  0.0000000E+00  0.1105929E-03
  0.8636364E+00  0.0000000E+00  0.2525252E-01 -0.1194833E-04  0.0000000E+00  0.1055180E-03
  0.8737374E+00  0.0000000E+00  0.2525252E-01 -0.1084563E-04  0.0000000E+00  0.1009035E-03
  0.8838384E+00  0.0000000E+00  0.2525252E-01 -0.9797351E-05  0.0000000E+00  0.9672565E-04
  0.8939394E+00  0.0000000E+00  0.2525252E-01 -0.8797367E-05  0.0000000E+00  0.9296324E-04
  0.9040404E+00  0.0000000E+00  0.2525252E-01 -0.7840052E-05  0.0000000E+00  0.8959760E-04
  0.9141414E+00  0.0000000E+00  0.2525252E-01 -0.6920214E-05  0.0000000E+00  0.8661225E-04
  0.9242424E+00  0.0000000E+00  0.2525252E-01 -0.6033028E-05  0.0000000E+00  0.8399281E-04
  0.9343435E+00  0.0000000E+00  0.2525252E-01 -0.5173982E-05  0.0000000E+00  0.8172679E-04
  0.9444444E+00  0.0000000E+00  0.2525252E-01 -0.4338823E-05  0.0000000E+00  0.7980353E-04
  0.9545454E+00  0.0000000E+00  0.2525252E-01 -0.3523519E-05  0.0000000E+00  0.7821408E-04
  0.9646465E+00  0.0000000E+00  0.2525252E-01 -0.2724215E-05  0.0000000E+00  0.7695110E-04
  0.9747475E+00  0.0000000E+00  0.2525252E-01 -0.1937199E-05  0.0000000E+00  0.7600882E-04
  0.9848485E+00  0.0000000E+00  0.2525252E-01 -0.1158872E-05  0.0000000E+00  0.7538296E-04
  0.9974747E+00  0.0000000E+00  0.2525252E-01 -0.3857190E-06  0.0000000E+00  0.7507071E-04
  0.5050505E-02  0.0000000E+00  0.3535353E-01  0.7264139E-06  0.0000000E+00  0.9792288E-04
  0.1515152E-01  0.0000000E+00  0.3535353E-01  0.2181788E-05  0.0000000E+00  0.9834431E-04
  0.2525252E-01  0.0000000E+00  0.3535353E-01  0.3644845E-05  0.0000000E+00  0.9918861E-04
  0.3535353E-01  0.0000000E+00  0.3535353E-01  0.5120798E-05  0.0000000E+00  0.1004587E-03
  0.4545455E-01  0.0000000E+00  0.3535353E-01  0.6614963E-05  0.0000000E+00  0.1021592E-03
  0.5555556E-01  0.0000000E+00  0.3535353E-01  0.8132788E-05  0.0000000E+00  0.1042963E-03
  0.6565657E-01  0.0000000E+00  0.3535353E-01  0.9679893E-05  0.0000000E+00  0.1068778E-03
  0.7575758E-01  0.0000000E+00  0.3535353E-01  0.1126211E-04  0.0000000E+00  0.1099133E-03
  0.8585858E-01  0.0000000E+00  0.3535353E-01  0.1288552E-04  0.0000000E+00  0.1134141E-03
  0.9595960E-01  0.0000000E+00  0.3535353E-01  0.1455655E-04  0.0000000E+00  0.1173935E-03
  0.1060606E+00  0.0000000E+00  0.3535353E-01  0.1628197E-04  0.0000000E+00  0.1218666E-03
  0.1161616E+00  0.0000000E+00  0.3535353E-01  0.1806905E-04  0.0000000E+00  0.1268508E-03
  0.1262626E+00  0.0000000E+00  0.3535353E-01  0.1992559E-04  0.0000000E+00  0.1323657E-03
  0.1363636E+00  0.0000000E+00  0.3535353E-01  0.2186003E-04  0.0000000E+00  0.1384333E-03
  0.1464646E+00  0.0000000E+00  0.3535353E-01  0.2388157E-04  0.0000000E+00  0.1450784E-03
  0.1565657E+00  0.0000000E+00  0.3535353E-01  0.2600032E-04  0.0000000E+00  0.1523285E-03
  0.1666667E+00  0.0000000E+00  0.3535353E-01  0.2822739E-04  0.0000000E+00  0.1602146E-03
  0.1767677E+00  0.0000000E+00  0.3535353E-01  0.3057508E-04  0.0000000E+00  0.1687712E-03
  0.1868687E+00  0.0000000E+00  0.3535353E-01  0.3305704E-04  0.0000000E+00  0.1780366E-03
  0.1969697E+00  0.0000000E+00  0.3535353E-01  0.3568844E-04  0.0000000E+00  0.1880539E-03
  0.2070707E+00  0.0000000E+00  0.3535353E-01  0.3848618E-04  0.0000000E+00  0.1988710E-03
  0.2171717E+00  0.0000000E+00  0.3535353E-01  0.4146906E-04  0.0000000E+00  0.2105414E-03
  0.2272727E+00  0.0000000E+00  0.3535353E-01  0.4465804E-04  0.0000000E+00  0.2231247E-03
  0.2373737E+00  0.0000000E+00  0.3535353E-01  0.4807651E-04  0.0000000E+00  0.2366877E-03
  0.2474747E+00  0.0000000E+00  0.3535353E-01  0.5175062E-04  0.0000000E+00  0.2513042E-03
  0.2575758E+00  0.0000000E+00  0.3535353E-01  0.5570984E-04  0.0000000E+00  0.2670566E-03
  0.2676768E+00  0.0000000E+00  0.3535353E-01  0.5998790E-04  0.0000000E+00  0.2840353E-03
  0.2777778E+00  0.0000000E+00  0.3535353E-01  0.6462440E-04  0.0000000E+00  0.3023399E-03
  0.2878788E+00  0.0000000E+00  0.3535353E-01  0.6966773E-04  0.0000000E+00  0.3220786E-03
  0.2979798E+00  0.0000000E+00  0.3535353E-01  0.7518003E-04  0.0000000E+00  0.3433686E-03