title = "dataset water"
variables = "x", "y", "z", "vx", "vy", "vz"
zone t = "velocities, solution time =  6.000E+01 days        " i =   99, j =   99, k =    1,  f=point
  0.5050505E-02  0.0000000E+00  0.5050505E-02  0.1506085E-06  0.0000000E+00  0.1492738E-03
  0.1515152E-01  0.0000000E+00  0.5050505E-02  0.4530033E-06  0.0000000E+00  0.1498903E-03
  0.2525252E-01  0.0000000E+00  0.5050505E-02  0.7589650E-06  0.0000000E+00  0.1511283E-03
  0.3535353E-01  0.0000000E+00  0.5050505E-02  0.1070938E-05  0.0000000E+00  0.1529977E-03
  0.4545455E-01  0.0000000E+00  0.5050505E-02  0.1391442E-05  0.0000000E+00  0.1555139E-03
  0.5555556E-01  0.0000000E+00  0.5050505E-02  0.1723087E-05  0.0000000E+00  0.1586975E-03
  0.6565657E-01  0.0000000E+00  0.5050505E-02  0.2068602E-05  0.0000000E+00  0.1625747E-03
  0.7575758E-01  0.0000000E+00  0.5050505E-02  0.2430864E-05  0.0000000E+00  0.1671779E-03
  0.8585858E-01  0.0000000E+00  0.5050505E-02  0.2812998E-05  0.0000000E+00  0.1725456E-03
  0.9595960E-01  0.0000000E+00  0.5050505E-02  0.3218621E-05  0.0000000E+00  0.1787237E-03
  0.1060606E+00  0.0000000E+00  0.5050505E-02  0.3652552E-05  0.0000000E+00  0.1857671E-03
  0.1161616E+00  0.0000000E+00  0.5050505E-02  0.4122660E-05  0.0000000E+00  0.1937440E-03
  0.1262626E+00  0.0000000E+00  0.5050505E-02  0.4644718E-05  0.0000000E+00  0.2027475E-03
  0.1363636E+00  0.0000000E+00  0.5050505E-02  0.5254919E-05  0.0000000E+00  0.2129250E-03
  0.1464646E+00  0.0000000E+00  0.5050505E-02  0.6042624E-05  0.0000000E+00  0.2245542E-03
  0.1565657E+00  0.0000000E+00  0.5050505E-02  0.7238313E-05  0.0000000E+00  0.2382445E-03
  0.1666667E+00  0.0000000E+00  0.5050505E-02  0.9461066E-05  0.0000000E+00  0.2554882E-03
  0.1767677E+00  0.0000000E+00  0.5050505E-02  0.1446175E-04  0.0000000E+00  0.2802456E-03
  0.1868687E+00  0.0000000E+00  0.5050505E-02 -0.6296352E-05  0.0000000E+00  0.2886905E-03
  0.1969697E+00  0.0000000E+00  0.5050505E-02 -0.2913517E-05  0.0000000E+00  0.2791330E-03
  0.2070707E+00  0.0000000E+00  0.5050505E-02 -0.1774564E-05  0.0000000E+00  0.2742713E-03
  0.2171717E+00  0.0000000E+00  0.5050505E-02 -0.1222561E-05  0.0000000E+00  0.2711644E-03
  0.2272727E+00  0.0000000E+00  0.5050505E-02 -0.8418326E-06  0.0000000E+00  0.2690250E-03
  0.2373737E+00  0.0000000E+00  0.5050505E-02 -0.5151714E-06  0.0000000E+00  0.2676189E-03
  0.2474747E+00  0.0000000E+00  0.5050505E-02 -0.2184083E-06  0.0000000E+00  0.2668588E-03
  0.2575758E+00  0.0000000E+00  0.5050505E-02  0.3021010E-07  0.0000000E+00  0.2666639E-03
  0.2676768E+00  0.0000000E+00  0.5050505E-02  0.1870153E-06  0.0000000E+00  0.2668889E-03
  0.2777778E+00  0.0000000E+00  0.5050505E-02  0.2061755E-06  0.0000000E+00  0.2672963E-03
  0.2878788E+00  0.0000000E+00  0.5050505E-02  0.1026660E-06  0.0000000E+00  0.2676163E-03
  0.2979798E+00  0.0000000E+00  0.5050505E-02  0.3250782E-07  0.0000000E+00  0.2677563E-03
  0.3080808E+00  0.0000000E+00  0.5050505E-02  0.6707256E-07  0.0000000E+00  0.2678595E-03
  0.3181818E+00  0.0000000E+00  0.5050505E-02  0.2101436E-06  0.0000000E+00  0.2681468E-03
  0.3282828E+00  0.0000000E+00  0.5050505E-02  0.4478732E-06  0.0000000E+00  0.2688286E-03
  0.3383838E+00  0.0000000E+00  0.5050505E-02  0.7768541E-06  0.0000000E+00  0.2700978E-03
  0.3484848E+00  0.0000000E+00  0.5050505E-02  0.1216598E-05  0.0000000E+00  0.2721640E-03
  0.3585859E+00  0.0000000E+00  0.5050505E-02  0.1820390E-05  0.0000000E+00  0.2753126E-03
  0.3686869E+00  0.0000000E+00  0.5050505E-02  0.2708861E-05  0.0000000E+00  0.2800102E-03
  0.3787879E+00  0.0000000E+00  0.5050505E-02  0.4233213E-05  0.0000000E+00  0.2872146E-03
  0.3888889E+00  0.0000000E+00  0.5050505E-02  0.7835081E-05  0.0000000E+00  0.2997509E-03
  0.3989899E+00  0.0000000E+00  0.5050505E-02 -0.1324725E-04  0.0000000E+00  0.2941454E-03
  0.4090909E+00  0.0000000E+00  0.5050505E-02 -0.8184989E-05  0.0000000E+00  0.2719214E-03
  0.4191919E+00  0.0000000E+00  0.5050505E-02 -0.5837921E-05  0.0000000E+00  0.2574077E-03
  0.4292929E+00  0.0000000E+00  0.5050505E-02 -0.4588837E-05  0.0000000E+00  0.2466307E-03
  0.4393939E+00  0.0000000E+00  0.5050505E-02 -0.3824607E-05  0.0000000E+00  0.2379440E-03
  0.4494950E+00  0.0000000E+00  0.5050505E-02 -0.3291613E-05  0.0000000E+00  0.2306033E-03
  0.4595959E+00  0.0000000E+00  0.5050505E-02 -0.2881532E-05  0.0000000E+00  0.2242403E-03
  0.4696970E+00  0.0000000E+00  0.5050505E-02 -0.2548263E-05  0.0000000E+00  0.2186474E-03
  0.4797980E+00  0.0000000E+00  0.5050505E-02 -0.2272809E-05  0.0000000E+00  0.2136846E-03
  0.4898990E+00  0.0000000E+00  0.5050505E-02 -0.2047867E-05  0.0000000E+00  0.2092392E-03
  0.5000000E+00  0.0000000E+00  0.5050505E-02 -0.1870863E-05  0.0000000E+00  0.2052094E-03
  0.5101010E+00  0.0000000E+00  0.5050505E-02 -0.1740600E-05  0.0000000E+00  0.2014972E-03
  0.5202020E+00  0.0000000E+00  0.5050505E-02 -0.1655421E-05  0.0000000E+00  0.1980080E-03
  0.5303030E+00  0.0000000E+00  0.5050505E-02 -0.1612091E-05  0.0000000E+00  0.1946522E-03
  0.5404040E+00  0.0000000E+00  0.5050505E-02 -0.1605225E-05  0.0000000E+00  0.1913493E-03
  0.5505050E+00  0.0000000E+00  0.5050505E-02 -0.1627380E-05  0.0000000E+00  0.1880320E-03
  0.5606061E+00  0.0000000E+00  0.5050505E-02 -0.1669852E-05  0.0000000E+00  0.1846498E-03
  0.5707071E+00  0.0000000E+00  0.5050505E-02 -0.1723876E-05  0.0000000E+00  0.1811701E-03
  0.5808081E+00  0.0000000E+00  0.5050505E-02 -0.1781694E-05  0.0000000E+00  0.1775773E-03
  0.5909091E+00  0.0000000E+00  0.5050505E-02 -0.1837122E-05  0.0000000E+00  0.1738701E-03
  0.6010101E+00  0.0000000E+00  0.5050505E-02 -0.1885630E-05  0.0000000E+00  0.1700581E-03
  0.6111111E+00  0.0000000E+00  0.5050505E-02 -0.1924147E-05  0.0000000E+00  0.1661590E-03
  0.6212121E+00  0.0000000E+00  0.5050505E-02 -0.1950781E-05  0.0000000E+00  0.1621950E-03
  0.6313131E+00  0.0000000E+00  0.5050505E-02 -0.1964572E-05  0.0000000E+00  0.1581916E-03
  0.6414142E+00  0.0000000E+00  0.5050505E-02 -0.1965320E-05  0.0000000E+00  0.1541754E-03
  0.6515151E+00  0.0000000E+00  0.5050505E-02 -0.1953432E-05  0.0000000E+00  0.1501724E-03
  0.6616161E+00  0.0000000E+00  0.5050505E-02 -0.1929790E-05  0.0000000E+00  0.1462077E-03
  0.6717172E+00  0.0000000E+00  0.5050505E-02 -0.1895611E-05  0.0000000E+00  0.1423039E-03
  0.6818182E+00  0.0000000E+00  0.5050505E-02 -0.1852317E-05  0.0000000E+00  0.1384809E-03
  0.6919192E+00  0.0000000E+00  0.5050505E-02 -0.1801411E-05  0.0000000E+00  0.1347557E-03
  0.7020202E+00  0.0000000E+00  0.5050505E-02 -0.1744388E-05  0.0000000E+00  0.1311421E-03
  0.7121212E+00  0.0000000E+00  0.5050505E-02 -0.1682669E-05  0.0000000E+00  0.1276510E-03
  0.7222222E+00  0.0000000E+00  0.5050505E-02 -0.1617560E-05  0.0000000E+00  0.1242905E-03
  0.7323232E+00  0.0000000E+00  0.5050505E-02 -0.1550228E-05  0.0000000E+00  0.1210661E-03
  0.7424242E+00  0.0000000E+00  0.5050505E-02 -0.1481698E-05  0.0000000E+00  0.1179811E-03
  0.7525253E+00  0.0000000E+00  0.5050505E-02 -0.1412843E-05  0.0000000E+00  0.1150370E-03
  0.7626263E+00  0.0000000E+00  0.5050505E-02 -0.1344395E-05  0.0000000E+00  0.1122335E-03
  0.7727273E+00  0.0000000E+00  0.5050505E-02 -0.1276938E-05  0.0000000E+00  0.1095691E-03
  0.7828283E+00  0.0000000E+00  0.5050505E-02 -0.1210915E-05  0.0000000E+00  0.1070411E-03
  0.7929293E+00  0.0000000E+00  0.5050505E-02 -0.1146629E-05  0.0000000E+00  0.1046462E-03
  0.8030303E+00  0.0000000E+00  0.5050505E-02 -0.1084243E-05  0.0000000E+00  0.1023807E-03
  0.8131313E+00  0.0000000E+00  0.5050505E-02 -0.1023788E-05  0.0000000E+00  0.1002404E-03
  0.8232324E+00  0.0000000E+00  0.5050505E-02 -0.9651756E-06  0.0000000E+00  0.9822153E-04
  0.8333333E+00  0.0000000E+00  0.5050505E-02 -0.9082138E-06  0.0000000E+00  0.9632041E-04
  0.8434343E+00  0.0000000E+00  0.5050505E-02 -0.8526341E-06  0.0000000E+00  0.9453389E-04
  0.8535354E+00  0.0000000E+00  0.5050505E-02 -0.7981200E-06  0.0000000E+00  0.9285940E-04
  0.8636364E+00  0.0000000E+00  0.5050505E-02 -0.7443382E-06  0.0000000E+00  0.9129507E-04
  0.8737374E+00  0.0000000E+00  0.5050505E-02 -0.6909675E-06  0.0000000E+00  0.8983967E-04
  0.8838384E+00  0.0000000E+00  0.5050505E-02 -0.6377215E-06  0.0000000E+00  0.8849261E-04
  0.8939394E+00  0.0000000E+00  0.5050505E-02 -0.5843636E-06  0.0000000E+00  0.8725380E-04
  0.9040404E+00  0.0000000E+00  0.5050505E-02 -0.5307152E-06  0.0000000E+00  0.8612363E-04
  0.9141414E+00  0.0000000E+00  0.5050505E-02 -0.4766549E-06  0.0000000E+00  0.8510274E-04
  0.9242424E+00  0.0000000E+00  0.5050505E-02 -0.4221147E-06  0.0000000E+00  0.8419202E-04
  0.9343435E+00  0.0000000E+00  0.5050505E-02 -0.3670717E-06  0.0000000E+00  0.8339241E-04
  0.9444444E+00  0.0000000E+00  0.5050505E-02 -0.3115393E-06  0.0000000E+00  0.8270490E-04
  0.9545454E+00  0.0000000E+00  0.5050505E-02 -0.2555584E-06  0.0000000E+00  0.8213040E-04
  0.9646465E+00  0.0000000E+00  0.5050505E-02 -0.1991901E-06  0.0000000E+00  0.8166975E-04
  0.9747475E+00  0.0000000E+00  0.5050505E-02 -0.1425090E-06  0.0000000E+00  0.8132363E-04
  0.9848485E+00  0.0000000E+00  0.5050505E-02 -0.8559872E-07  0.0000000E+00  0.8109257E-04
  0.9974747E+00  0.0000000E+00  0.5050505E-02 -0.2854862E-07  0.0000000E+00  0.8097695E-04
  0.5050505E-02  0.0000000E+00  0.1515152E-01  0.4507131E-06  0.0000000E+00  0.1490877E-03
  0.1515152E-01  0.0000000E+00  0.1515152E-01  0.1355676E-05  0.0000000E+00  0.1497016E-03
  0.2525252E-01  0.0000000E+00  0.1515152E-01  0.2271335E-05  0.0000000E+00  0.1509342E-03
  0.3535353E-01  0.0000000E+00  0.1515152E-01  0.3205011E-05  0.0000000E+00  0.1527956E-03
  0.4545455E-01  0.0000000E+00  0.1515152E-01  0.4164247E-05  0.0000000E+00  0.1553008E-03
  0.5555556E-01  0.0000000E+00  0.1515152E-01  0.5156861E-05  0.0000000E+00  0.1584704E-03
  0.6565657E-01  0.0000000E+00  0.1515152E-01  0.6191001E-05  0.0000000E+00  0.1623305E-03
  0.7575758E-01  0.0000000E+00  0.1515152E-01  0.7275216E-05  0.0000000E+00  0.1669131E-03
  0.8585858E-01  0.0000000E+00  0.1515152E-01  0.8418620E-05  0.0000000E+00  0.1722562E-03
  0.9595960E-01  0.0000000E+00  0.1515152E-01  0.9631370E-05  0.0000000E+00  0.1784040E-03
  0.1060606E+00  0.0000000E+00  0.1515152E-01  0.1092606E-04  0.0000000E+00  0.1854072E-03
  0.1161616E+00  0.0000000E+00  0.1515152E-01  0.1232152E-04  0.0000000E+00  0.1933231E-03
  0.1262626E+00  0.0000000E+00  0.1515152E-01  0.1385276E-04  0.0000000E+00  0.2022160E-03
  0.1363636E+00  0.0000000E+00  0.1515152E-01  0.1559639E-04  0.0000000E+00  0.2121591E-03
  0.1464646E+00  0.0000000E+00  0.1515152E-01  0.1773494E-04  0.0000000E+00  0.2232345E-03
  0.1565657E+00  0.0000000E+00  0.1515152E-01  0.2072006E-04  0.0000000E+00  0.2355202E-03
  0.1666667E+00  0.0000000E+00  0.1515152E-01  0.2569107E-04  0.0000000E+00  0.2489843E-03
  0.1767677E+00  0.0000000E+00  0.1515152E-01  0.3557003E-04  0.0000000E+00  0.2628983E-03
  0.1868687E+00  0.0000000E+00  0.1515152E-01 -0.9500281E-05  0.0000000E+00  0.2729863E-03
  0.1969697E+00  0.0000000E+00  0.1515152E-01 -0.6553577E-05  0.0000000E+00  0.2754072E-03
  0.2070707E+00  0.0000000E+00  0.1515152E-01 -0.4741236E-05  0.0000000E+00  0.2734018E-03
  0.2171717E+00  0.0000000E+00  0.1515152E-01 -0.3490197E-05  0.0000000E+00  0.2710719E-03
  0.2272727E+00  0.0000000E+00  0.1515152E-01 -0.2463325E-05  0.0000000E+00  0.2691730E-03
  0.2373737E+00  0.0000000E+00  0.1515152E-01 -0.1507533E-05  0.0000000E+00  0.2678654E-03
  0.2474747E+00  0.0000000E+00  0.1515152E-01 -0.5996746E-06  0.0000000E+00  0.2671994E-03
  0.2575758E+00  0.0000000E+00  0.1515152E-01  0.1883704E-06  0.0000000E+00  0.2671626E-03
  0.2676768E+00  0.0000000E+00  0.1515152E-01  0.7021907E-06  0.0000000E+00  0.2676362E-03
  0.2777778E+00  0.0000000E+00  0.1515152E-01  0.7425189E-06  0.0000000E+00  0.2683201E-03
  0.2878788E+00  0.0000000E+00  0.1515152E-01  0.2770211E-06  0.0000000E+00  0.2687378E-03
  0.2979798E+00  0.0000000E+00  0.1515152E-01 -0.5886687E-08  0.0000000E+00  0.2687391E-03
  0.3080808E+00  0.0000000E+00  0.1515152E-01  0.9228748E-07  0.0000000E+00  0.2686225E-03
  0.3181818E+00  0.0000000E+00  0.1515152E-01  0.5342337E-06  0.0000000E+00  0.2686982E-03
  0.3282828E+00  0.0000000E+00  0.1515152E-01  0.1250509E-05  0.0000000E+00  0.2691864E-03
  0.3383838E+00  0.0000000E+00  0.1515152E-01  0.2218135E-05  0.0000000E+00  0.2702473E-03
  0.3484848E+00  0.0000000E+00  0.1515152E-01  0.3484661E-05  0.0000000E+00  0.2720334E-03
  0.3585859E+00  0.0000000E+00  0.1515152E-01  0.5177223E-05  0.0000000E+00  0.2747275E-03
  0.3686869E+00  0.0000000E+00  0.1515152E-01  0.7500116E-05  0.0000000E+00  0.2784963E-03
  0.3787879E+00  0.0000000E+00  0.1515152E-01  0.1067799E-04  0.0000000E+00  0.2829743E-03
  0.3888889E+00  0.0000000E+00  0.1515152E-01  0.1466215E-04  0.0000000E+00  0.2842638E-03
  0.3989899E+00  0.0000000E+00  0.1515152E-01 -0.3231041E-04  0.0000000E+00  0.2771876E-03
  0.4090909E+00  0.0000000E+00  0.1515152E-01 -0.2192144E-04  0.0000000E+00  0.2653650E-03
  0.4191919E+00  0.0000000E+00  0.1515152E-01 -0.1644721E-04  0.0000000E+00  0.2546512E-03
  0.4292929E+00  0.0000000E+00  0.1515152E-01 -0.1329688E-04  0.0000000E+00  0.2454361E-03
  0.4393939E+00  0.0000000E+00  0.1515152E-01 -0.1125222E-04  0.0000000E+00  0.2374403E-03
  0.4494950E+00  0.0000000E+00  0.1515152E-01 -0.9759418E-05  0.0000000E+00  0.2304270E-03
  0.4595959E+00  0.0000000E+00  0.1515152E-01 -0.8574192E-05  0.0000000E+00  0.2242374E-03
  0.4696970E+00  0.0000000E+00  0.1515152E-01 -0.7592572E-05  0.0000000E+00  0.2187545E-03
  0.4797980E+00  0.0000000E+00  0.1515152E-01 -0.6772770E-05  0.0000000E+00  0.2138775E-03
  0.4898990E+00  0.0000000E+00  0.1515152E-01 -0.6099808E-05  0.0000000E+00  0.2095107E-03
  0.5000000E+00  0.0000000E+00  0.1515152E-01 -0.5569333E-05  0.0000000E+00  0.2055581E-03
  0.5101010E+00  0.0000000E+00  0.1515152E-01 -0.5179602E-05  0.0000000E+00  0.2019223E-03
  0.5202020E+00  0.0000000E+00  0.1515152E-01 -0.4926766E-05  0.0000000E+00  0.1985062E-03
  0.5303030E+00  0.0000000E+00  0.1515152E-01 -0.4801686E-05  0.0000000E+00  0.1952160E-03
  0.5404040E+00  0.0000000E+00  0.1515152E-01 -0.4788122E-05  0.0000000E+00  0.1919667E-03
  0.5505050E+00  0.0000000E+00  0.1515152E-01 -0.4862975E-05  0.0000000E+00  0.1886871E-03
  0.5606061E+00  0.0000000E+00  0.1515152E-01 -0.4998935E-05  0.0000000E+00  0.1853251E-03
  0.5707071E+00  0.0000000E+00  0.1515152E-01 -0.5168660E-05  0.0000000E+00  0.1818487E-03
  0.5808081E+00  0.0000000E+00  0.1515152E-01 -0.5348300E-05  0.0000000E+00  0.1782449E-03
  0.5909091E+00  0.0000000E+00  0.1515152E-01 -0.5519194E-05  0.0000000E+00  0.1745154E-03
  0.6010101E+00  0.0000000E+00  0.1515152E-01 -0.5667923E-05  0.0000000E+00  0.1706730E-03
  0.6111111E+00  0.0000000E+00  0.1515152E-01 -0.5785523E-05  0.0000000E+00  0.1667378E-03
  0.6212121E+00  0.0000000E+00  0.1515152E-01 -0.5866531E-05  0.0000000E+00  0.1627346E-03
  0.6313131E+00  0.0000000E+00  0.1515152E-01 -0.5908237E-05  0.0000000E+00  0.1586906E-03
  0.6414142E+00  0.0000000E+00  0.1515152E-01 -0.5910165E-05  0.0000000E+00  0.1546337E-03
  0.6515151E+00  0.0000000E+00  0.1515152E-01 -0.5873666E-05  0.0000000E+00  0.1505914E-03
  0.6616161E+00  0.0000000E+00  0.1515152E-01 -0.5801521E-05  0.0000000E+00  0.1465897E-03
  0.6717172E+00  0.0000000E+00  0.1515152E-01 -0.5697522E-05  0.0000000E+00  0.1426518E-03
  0.6818182E+00  0.0000000E+00  0.1515152E-01 -0.5566052E-05  0.0000000E+00  0.1387981E-03
  0.6919192E+00  0.0000000E+00  0.1515152E-01 -0.5411725E-05  0.0000000E+00  0.1350457E-03
  0.7020202E+00  0.0000000E+00  0.1515152E-01 -0.5239101E-05  0.0000000E+00  0.1314086E-03
  0.7121212E+00  0.0000000E+00  0.1515152E-01 -0.5052491E-05  0.0000000E+00  0.1278973E-03
  0.7222222E+00  0.0000000E+00  0.1515152E-01 -0.4855840E-05  0.0000000E+00  0.1245198E-03
  0.7323232E+00  0.0000000E+00  0.1515152E-01 -0.4652670E-05  0.0000000E+00  0.1212813E-03
  0.7424242E+00  0.0000000E+00  0.1515152E-01 -0.4446056E-05  0.0000000E+00  0.1181849E-03
  0.7525253E+00  0.0000000E+00  0.1515152E-01 -0.4238627E-05  0.0000000E+00  0.1152316E-03
  0.7626263E+00  0.0000000E+00  0.1515152E-01 -0.4032575E-05  0.0000000E+00  0.1124209E-03
  0.7727273E+00  0.0000000E+00  0.1515152E-01 -0.3829656E-05  0.0000000E+00  0.1097509E-03
  0.7828283E+00  0.0000000E+00  0.1515152E-01 -0.3631201E-05  0.0000000E+00  0.1072186E-03
  0.7929293E+00  0.0000000E+00  0.1515152E-01 -0.3438112E-05  0.0000000E+00  0.1048205E-03
  0.8030303E+00  0.0000000E+00  0.1515152E-01 -0.3250874E-05  0.0000000E+00  0.1025522E-03
  0.8131313E+00  0.0000000E+00  0.1515152E-01 -0.3069567E-05  0.0000000E+00  0.1004097E-03
  0.8232324E+00  0.0000000E+00  0.1515152E-01 -0.2893904E-05  0.0000000E+00  0.9838861E-04
  0.8333333E+00  0.0000000E+00  0.1515152E-01 -0.2723284E-05  0.0000000E+00  0.9648515E-04
  0.8434343E+00  0.0000000E+00  0.1515152E-01 -0.2556867E-05  0.0000000E+00  0.9469600E-04
  0.8535354E+00  0.0000000E+00  0.1515152E-01 -0.2393671E-05  0.0000000E+00  0.9301852E-04
  0.8636364E+00  0.0000000E+00  0.1515152E-01 -0.2232662E-05  0.0000000E+00  0.9145079E-04
  0.8737374E+00  0.0000000E+00  0.1515152E-01 -0.2072853E-05  0.0000000E+00  0.8999164E-04
  0.8838384E+00  0.0000000E+00  0.1515152E-01 -0.1913365E-05  0.0000000E+00  0.8864056E-04
  0.8939394E+00  0.0000000E+00  0.1515152E-01 -0.1753481E-05  0.0000000E+00  0.8739759E-04
  0.9040404E+00  0.0000000E+00  0.1515152E-01 -0.1592663E-05  0.0000000E+00  0.8626323E-04
  0.9141414E+00  0.0000000E+00  0.1515152E-01 -0.1430552E-05  0.0000000E+00  0.8523827E-04
  0.9242424E+00  0.0000000E+00  0.1515152E-01 -0.1266952E-05  0.0000000E+00  0.8432369E-04
  0.9343435E+00  0.0000000E+00  0.1515152E-01 -0.1101802E-05  0.0000000E+00  0.8352054E-04
  0.9444444E+00  0.0000000E+00  0.1515152E-01 -0.9351530E-06  0.0000000E+00  0.8282988E-04
  0.9545454E+00  0.0000000E+00  0.1515152E-01 -0.7671358E-06  0.0000000E+00  0.8225268E-04
  0.9646465E+00  0.0000000E+00  0.1515152E-01 -0.5979407E-06  0.0000000E+00  0.8178983E-04
  0.9747475E+00  0.0000000E+00  0.1515152E-01 -0.4277970E-06  0.0000000E+00  0.8144203E-04
  0.9848485E+00  0.0000000E+00  0.1515152E-01 -0.2569600E-06  0.0000000E+00  0.8120985E-04
  0.9974747E+00  0.0000000E+00  0.1515152E-01 -0.8570072E-07  0.0000000E+00  0.8109366E-04
  0.5050505E-02  0.0000000E+00  0.2525252E-01  0.7479782E-06  0.0000000E+00  0.1487263E-03
  0.1515152E-01  0.0000000E+00  0.2525252E-01  0.2249823E-05  0.0000000E+00  0.1493349E-03
  0.2525252E-01  0.0000000E+00  0.2525252E-01  0.3769456E-05  0.0000000E+00  0.1505571E-03
  0.3535353E-01  0.0000000E+00  0.2525252E-01  0.5319039E-05  0.0000000E+00  0.1524025E-03
  0.4545455E-01  0.0000000E+00  0.2525252E-01  0.6911107E-05  0.0000000E+00  0.1548860E-03
  0.5555556E-01  0.0000000E+00  0.2525252E-01  0.8558656E-05  0.0000000E+00  0.1580281E-03
  0.6565657E-01  0.0000000E+00  0.2525252E-01  0.1027521E-04  0.0000000E+00  0.1618546E-03
  0.7575758E-01  0.0000000E+00  0.2525252E-01  0.1207483E-04  0.0000000E+00  0.1663972E-03
  0.8585858E-01  0.0000000E+00  0.2525252E-01  0.1397214E-04  0.0000000E+00  0.1716933E-03
  0.9595960E-01  0.0000000E+00  0.2525252E-01  0.1598244E-04  0.0000000E+00  0.1777856E-03
  0.1060606E+00  0.0000000E+00  0.2525252E-01  0.1812230E-04  0.0000000E+00  0.1847204E-03
  0.1161616E+00  0.0000000E+00  0.2525252E-01  0.2041162E-04  0.0000000E+00  0.1925434E-03
  0.1262626E+00  0.0000000E+00  0.2525252E-01  0.2287956E-04  0.0000000E+00  0.2012892E-03
  0.1363636E+00  0.0000000E+00  0.2525252E-01  0.2558011E-04  0.0000000E+00  0.2109559E-03
  0.1464646E+00  0.0000000E+00  0.2525252E-01  0.2862996E-04  0.0000000E+00  0.2214428E-03
  0.1565657E+00  0.0000000E+00  0.2525252E-01  0.3229558E-04  0.0000000E+00  0.2323970E-03
  0.1666667E+00  0.0000000E+00  0.2525252E-01  0.3717684E-04  0.0000000E+00  0.2428312E-03
  0.1767677E+00  0.0000000E+00  0.2525252E-01  0.4453085E-04  0.0000000E+00  0.2501877E-03
  0.1868687E+00  0.0000000E+00  0.2525252E-01  0.6149266E-05  0.0000000E+00  0.2656418E-03
  0.1969697E+00  0.0000000E+00  0.2525252E-01 -0.9046672E-05  0.0000000E+00  0.2768009E-03
  0.2070707E+00  0.0000000E+00  0.2525252E-01 -0.7126416E-05  0.0000000E+00  0.2737078E-03
  0.2171717E+00  0.0000000E+00  0.2525252E-01 -0.5510917E-05  0.0000000E+00  0.2714404E-03
  0.2272727E+00  0.0000000E+00  0.2525252E-01 -0.3990504E-05  0.0000000E+00  0.2696397E-03
  0.2373737E+00  0.0000000E+00  0.2525252E-01 -0.2428784E-05  0.0000000E+00  0.2683949E-03
  0.2474747E+00  0.0000000E+00  0.2525252E-01 -0.8386969E-06  0.0000000E+00  0.2678506E-03
  0.2575758E+00  0.0000000E+00  0.2525252E-01  0.6398649E-06  0.0000000E+00  0.2681065E-03
  0.2676768E+00  0.0000000E+00  0.2525252E-01  0.1701991E-05  0.0000000E+00  0.2691415E-03
  0.2777778E+00  0.0000000E+00  0.2525252E-01  0.1786308E-05  0.0000000E+00  0.2705826E-03
  0.2878788E+00  0.0000000E+00  0.2525252E-01  0.2786196E-06  0.0000000E+00  0.2712528E-03
  0.2979798E+00  0.0000000E+00  0.2525252E-01 -0.4204725E-06  0.0000000E+00  0.2708237E-03
  0.3080808E+00  0.0000000E+00  0.2525252E-01 -0.2278323E-06  0.0000000E+00  0.2701780E-03
  0.3181818E+00  0.0000000E+00  0.2525252E-01  0.5794299E-06  0.0000000E+00  0.2698190E-03
  0.3282828E+00  0.0000000E+00  0.2525252E-01  0.1797460E-05  0.0000000E+00  0.2699508E-03
  0.3383838E+00  0.0000000E+00  0.2525252E-01  0.3358172E-05  0.0000000E+00  0.2706512E-03
  0.3484848E+00  0.0000000E+00  0.2525252E-01  0.5326907E-05  0.0000000E+00  0.2719776E-03
  0.3585859E+00  0.0000000E+00  0.2525252E-01  0.7906132E-05  0.0000000E+00  0.2740540E-03
  0.3686869E+00  0.0000000E+00  0.2525252E-01  0.1143835E-04  0.0000000E+00  0.2772437E-03
  0.3787879E+00  0.0000000E+00  0.2525252E-01  0.1630580E-04  0.0000000E+00  0.2827511E-03
  0.3888889E+00  0.0000000E+00  0.2525252E-01  0.5530885E-05  0.0000000E+00  0.2779047E-03
  0.3989899E+00  0.0000000E+00  0.2525252E-01 -0.4158212E-04  0.0000000E+00  0.2658644E-03
  0.4090909E+00  0.0000000E+00  0.2525252E-01 -0.3089557E-04  0.0000000E+00  0.2586589E-03
  0.4191919E+00  0.0000000E+00  0.2525252E-01 -0.2481152E-04  0.0000000E+00  0.2513384E-03
  0.4292929E+00  0.0000000E+00  0.2525252E-01 -0.2094847E-04  0.0000000E+00  0.2439235E-03
  0.4393939E+00  0.0000000E+00  0.2525252E-01 -0.1816529E-04  0.0000000E+00  0.2368147E-03
  0.4494950E+00  0.0000000E+00  0.2525252E-01 -0.1595143E-04  0.0000000E+00  0.2302496E-03
  0.4595959E+00  0.0000000E+00  0.2525252E-01 -0.1409140E-04  0.0000000E+00  0.2243162E-03
  0.4696970E+00  0.0000000E+00  0.2525252E-01 -0.1250003E-04  0.0000000E+00  0.2190127E-03
  0.4797980E+00  0.0000000E+00  0.2525252E-01 -0.1114783E-04  0.0000000E+00  0.2142900E-03
  0.4898990E+00  0.0000000E+00  0.2525252E-01 -0.1002837E-04  0.0000000E+00  0.2100735E-03
  0.5000000E+00  0.0000000E+00  0.2525252E-01 -0.9143604E-05  0.0000000E+00  0.2062738E-03
  0.5101010E+00  0.0000000E+00  0.2525252E-01 -0.8496021E-05  0.0000000E+00  0.2027926E-03
  0.5202020E+00  0.0000000E+00  0.2525252E-01 -0.8082767E-05  0.0000000E+00  0.1995263E-03
  0.5303030E+00  0.0000000E+00  0.2525252E-01 -0.7890573E-05  0.0000000E+00  0.1963716E-03
  0.5404040E+00  0.0000000E+00  0.2525252E-01 -0.7892120E-05  0.0000000E+00  0.1932327E-03
  0.5505050E+00  0.0000000E+00  0.2525252E-01 -0.8046018E-05  0.0000000E+00  0.1900298E-03
  0.5606061E+00  0.0000000E+00  0.2525252E-01 -0.8302228E-05  0.0000000E+00  0.1867071E-03
  0.5707071E+00  0.0000000E+00  0.2525252E-01 -0.8611311E-05  0.0000000E+00  0.1832348E-03
  0.5808081E+00  0.0000000E+00  0.2525252E-01 -0.8931577E-05  0.0000000E+00  0.1796054E-03
  0.5909091E+00  0.0000000E+00  0.2525252E-01 -0.9231734E-05  0.0000000E+00  0.1758277E-03
  0.6010101E+00  0.0000000E+00  0.2525252E-01 -0.9490166E-05  0.0000000E+00  0.1719212E-03
  0.6111111E+00  0.0000000E+00  0.2525252E-01 -0.9692861E-05  0.0000000E+00  0.1679113E-03
  0.6212121E+00  0.0000000E+00  0.2525252E-01 -0.9831455E-05  0.0000000E+00  0.1638272E-03
  0.6313131E+00  0.0000000E+00  0.2525252E-01 -0.9901946E-05  0.0000000E+00  0.1596996E-03
  0.6414142E+00  0.0000000E+00  0.2525252E-01 -0.9903946E-05  0.0000000E+00  0.1555595E-03
  0.6515151E+00  0.0000000E+00  0.2525252E-01 -0.9840128E-05  0.0000000E+00  0.1514370E-03
  0.6616161E+00  0.0000000E+00  0.2525252E-01 -0.9715593E-05  0.0000000E+00  0.1473598E-03
  0.6717172E+00  0.0000000E+00  0.2525252E-01 -0.9537131E-05  0.0000000E+00  0.1433528E-03
  0.6818182E+00  0.0000000E+00  0.2525252E-01 -0.9312475E-05  0.0000000E+00  0.1394370E-03
  0.6919192E+00  0.0000000E+00  0.2525252E-01 -0.9049661E-05  0.0000000E+00  0.1356298E-03
  0.7020202E+00  0.0000000E+00  0.2525252E-01 -0.8756538E-05  0.0000000E+00  0.1319452E-03
  0.7121212E+00  0.0000000E+00  0.2525252E-01 -0.8440455E-05  0.0000000E+00  0.1283934E-03
  0.7222222E+00  0.0000000E+00  0.2525252E-01 -0.8108083E-05  0.0000000E+00  0.1249818E-03
  0.7323232E+00  0.0000000E+00  0.2525252E-01 -0.7765340E-05  0.0000000E+00  0.1217151E-03
  0.7424242E+00  0.0000000E+00  0.2525252E-01 -0.7417374E-05  0.0000000E+00  0.1185958E-03
  0.7525253E+00  0.0000000E+00  0.2525252E-01 -0.7068577E-05  0.0000000E+00  0.1156242E-03
  0.7626263E+00  0.0000000E+00  0.2525252E-01 -0.6722606E-05  0.0000000E+00  0.1127991E-03
  0.7727273E+00  0.0000000E+00  0.2525252E-01 -0.6382394E-05  0.0000000E+00  0.1101181E-03
  0.7828283E+00  0.0000000E+00  0.2525252E-01 -0.6050161E-05  0.0000000E+00  0.1075774E-03
  0.7929293E+00  0.0000000E+00  0.2525252E-01 -0.5727406E-05  0.0000000E+00  0.1051728E-03
  0.8030303E+00  0.0000000E+00  0.2525252E-01 -0.5414917E-05  0.0000000E+00  0.1028995E-03
  0.8131313E+00  0.0000000E+00  0.2525252E-01 -0.5112787E-05  0.0000000E+00  0.1007525E-03
  0.8232324E+00  0.0000000E+00  0.2525252E-01 -0.4820467E-05  0.0000000E+00  0.9872706E-04
  0.8333333E+00  0.0000000E+00  0.2525252E-01 -0.4536861E-05  0.0000000E+00  0.9681895E-04
  0.8434343E+00  0.0000000E+00  0.2525252E-01 -0.4260457E-05  0.0000000E+00  0.9502451E-04
  0.8535354E+00  0.0000000E+00  0.2525252E-01 -0.3989497E-05  0.0000000E+00  0.9334092E-04
  0.8636364E+00  0.0000000E+00  0.2525252E-01 -0.3722150E-05  0.0000000E+00  0.9176624E-04
  0.8737374E+00  0.0000000E+00  0.2525252E-01 -0.3456678E-05  0.0000000E+00  0.9029939E-04
  0.8838384E+00  0.0000000E+00  0.2525252E-01 -0.3191560E-05  0.0000000E+00  0.8894006E-04
  0.8939394E+00  0.0000000E+00  0.2525252E-01 -0.2925570E-05  0.0000000E+00  0.8768854E-04
  0.9040404E+00  0.0000000E+00  0.2525252E-01 -0.2657808E-05  0.0000000E+00  0.8654560E-04
  0.9141414E+00  0.0000000E+00  0.2525252E-01 -0.2387692E-05  0.0000000E+00  0.8551228E-04
  0.9242424E+00  0.0000000E+00  0.2525252E-01 -0.2114923E-05  0.0000000E+00  0.8458981E-04
  0.9343435E+00  0.0000000E+00  0.2525252E-01 -0.1839434E-05  0.0000000E+00  0.8377942E-04
  0.9444444E+00  0.0000000E+00  0.2525252E-01 -0.1561340E-05  0.0000000E+00  0.8308234E-04
  0.9545454E+00  0.0000000E+00  0.2525252E-01 -0.1280889E-05  0.0000000E+00  0.8249966E-04
  0.9646465E+00  0.0000000E+00  0.2525252E-01 -0.9984213E-06  0.0000000E+00  0.8203232E-04
  0.9747475E+00  0.0000000E+00  0.2525252E-01 -0.7143386E-06  0.0000000E+00  0.8168112E-04
  0.9848485E+00  0.0000000E+00  0.2525252E-01 -0.4290797E-06  0.0000000E+00  0.8144666E-04
  0.9974747E+00  0.0000000E+00  0.2525252E-01 -0.1431065E-06  0.0000000E+00  0.8132932E-04
  0.5050505E-02  0.0000000E+00  0.3535353E-01  0.1041195E-05  0.0000000E+00  0.1482016E-03
  0.1515152E-01  0.0000000E+00  0.3535353E-01  0.3131793E-05  0.0000000E+00  0.1488026E-03
  0.2525252E-01  0.0000000E+00  0.3535353E-01  0.5247178E-05  0.0000000E+00  0.1500092E-03
  0.3535353E-01  0.0000000E+00  0.3535353E-01  0.7404297E-05  0.0000000E+00  0.1518309E-03
  0.4545455E-01  0.0000000E+00  0.3535353E-01  0.9620635E-05  0.0000000E+00  0.1542825E-03
  0.5555556E-01  0.0000000E+00  0.3535353E-01  0.1191436E-04  0.0000000E+00  0.1573840E-03
  0.6565657E-01  0.0000000E+00  0.3535353E-01  0.1430440E-04  0.0000000E+00  0.1611610E-03
  0.7575758E-01  0.0000000E+00  0.3535353E-01  0.1681036E-04  0.0000000E+00  0.1656452E-03
  0.8585858E-01  0.0000000E+00  0.3535353E-01  0.1945227E-04  0.0000000E+00  0.1708739E-03
  0.9595960E-01  0.0000000E+00  0.3535353E-01  0.2224994E-04  0.0000000E+00  0.1768903E-03
  0.1060606E+00  0.0000000E+00  0.3535353E-01  0.2522177E-04  0.0000000E+00  0.1837409E-03
  0.1161616E+00  0.0000000E+00  0.3535353E-01  0.2838268E-04  0.0000000E+00  0.1914702E-03
  0.1262626E+00  0.0000000E+00  0.3535353E-01  0.3174036E-04  0.0000000E+00  0.2001080E-03
  0.1363636E+00  0.0000000E+00  0.3535353E-01  0.3528847E-04  0.0000000E+00  0.2096376E-03
  0.1464646E+00  0.0000000E+00  0.3535353E-01  0.3899204E-04  0.0000000E+00  0.2199238E-03
  0.1565657E+00  0.0000000E+00  0.3535353E-01  0.4275257E-04  0.0000000E+00  0.2305531E-03
  0.1666667E+00  0.0000000E+00  0.3535353E-01  0.4631507E-04  0.0000000E+00  0.2404901E-03
  0.1767677E+00  0.0000000E+00  0.3535353E-01  0.4899514E-04  0.0000000E+00  0.2473888E-03
  0.1868687E+00  0.0000000E+00  0.3535353E-01  0.3197075E-04  0.0000000E+00  0.2634152E-03
  0.1969697E+00  0.0000000E+00  0.3535353E-01 -0.1182769E-04  0.0000000E+00  0.2760846E-03
  0.2070707E+00  0.0000000E+00  0.3535353E-01 -0.9162815E-05  0.0000000E+00  0.2741243E-03
  0.2171717E+00  0.0000000E+00  0.3535353E-01 -0.7399025E-05  0.0000000E+00  0.2722770E-03
  0.2272727E+00  0.0000000E+00  0.3535353E-01 -0.5522493E-05  0.0000000E+00  0.2704968E-03
  0.2373737E+00  0.0000000E+00  0.3535353E-01 -0.3340610E-05  0.0000000E+00  0.2691841E-03
  0.2474747E+00  0.0000000E+00  0.3535353E-01 -0.9262345E-06  0.0000000E+00  0.2686804E-03
  0.2575758E+00  0.0000000E+00  0.3535353E-01  0.1545640E-05  0.0000000E+00  0.2692733E-03
  0.2676768E+00  0.0000000E+00  0.3535353E-01  0.3701012E-05  0.0000000E+00  0.2712621E-03
  0.2777778E+00  0.0000000E+00  0.3535353E-01  0.4407261E-05  0.0000000E+00  0.2746302E-03
  0.2878788E+00  0.0000000E+00  0.3535353E-01 -0.4966051E-06  0.0000000E+00  0.2758831E-03
  0.2979798E+00  0.0000000E+00  0.3535353E-01 -0.1716249E-05  0.0000000E+00  0.2741597E-03