title = "dataset water"
variables = "x", "y", "z", "vx", "vy", "vz"
zone t = "velocities, solution time =  5.600E+01 days        " i =   99, j =   99, k =    1,  f=point
  0.5050505E-02  0.0000000E+00  0.5050505E-02  0.7595230E-07  0.0000000E+00  0.8621971E-04
  0.1515152E-01  0.0000000E+00  0.5050505E-02  0.2283597E-06  0.0000000E+00  0.8652815E-04
  0.2525252E-01  0.0000000E+00  0.5050505E-02  0.3823002E-06  0.0000000E+00  0.8714711E-04
  0.3535353E-01  0.0000000E+00  0.5050505E-02  0.5388715E-06  0.0000000E+00  0.8808088E-04
  0.4545455E-01  0.0000000E+00  0.5050505E-02  0.6992918E-06  0.0000000E+00  0.8933611E-04
  0.5555556E-01  0.0000000E+00  0.5050505E-02  0.8649784E-06  0.0000000E+00  0.9092219E-04
  0.6565657E-01  0.0000000E+00  0.5050505E-02  0.1037670E-05  0.0000000E+00  0.9285174E-04
  0.7575758E-01  0.0000000E+00  0.5050505E-02  0.1219629E-05  0.0000000E+00  0.9514150E-04
  0.8585858E-01  0.0000000E+00  0.5050505E-02  0.1413995E-05  0.0000000E+00  0.9781375E-04
  0.9595960E-01  0.0000000E+00  0.5050505E-02  0.1625431E-05  0.0000000E+00  0.1008988E-03
  0.1060606E+00  0.0000000E+00  0.5050505E-02  0.1861358E-05  0.0000000E+00  0.1044392E-03
  0.1161616E+00  0.0000000E+00  0.5050505E-02  0.2134450E-05  0.0000000E+00  0.1084982E-03
  0.1262626E+00  0.0000000E+00  0.5050505E-02  0.2467950E-05  0.0000000E+00  0.1131757E-03
  0.1363636E+00  0.0000000E+00  0.5050505E-02  0.2907718E-05  0.0000000E+00  0.1186423E-03
  0.1464646E+00  0.0000000E+00  0.5050505E-02  0.3551382E-05  0.0000000E+00  0.1252151E-03
  0.1565657E+00  0.0000000E+00  0.5050505E-02  0.4624146E-05  0.0000000E+00  0.1335414E-03
  0.1666667E+00  0.0000000E+00  0.5050505E-02  0.6691634E-05  0.0000000E+00  0.1450781E-03
  0.1767677E+00  0.0000000E+00  0.5050505E-02  0.1130807E-04  0.0000000E+00  0.1634569E-03
  0.1868687E+00  0.0000000E+00  0.5050505E-02 -0.6753775E-05  0.0000000E+00  0.1681022E-03
  0.1969697E+00  0.0000000E+00  0.5050505E-02 -0.3460658E-05  0.0000000E+00  0.1576574E-03
  0.2070707E+00  0.0000000E+00  0.5050505E-02 -0.2190547E-05  0.0000000E+00  0.1518833E-03
  0.2171717E+00  0.0000000E+00  0.5050505E-02 -0.1514127E-05  0.0000000E+00  0.1480998E-03
  0.2272727E+00  0.0000000E+00  0.5050505E-02 -0.1081503E-05  0.0000000E+00  0.1454499E-03
  0.2373737E+00  0.0000000E+00  0.5050505E-02 -0.7818525E-06  0.0000000E+00  0.1435480E-03
  0.2474747E+00  0.0000000E+00  0.5050505E-02 -0.5658263E-06  0.0000000E+00  0.1421727E-03
  0.2575758E+00  0.0000000E+00  0.5050505E-02 -0.4055440E-06  0.0000000E+00  0.1411816E-03
  0.2676768E+00  0.0000000E+00  0.5050505E-02 -0.2835602E-06  0.0000000E+00  0.1404785E-03
  0.2777778E+00  0.0000000E+00  0.5050505E-02 -0.1884714E-06  0.0000000E+00  0.1399969E-03
  0.2878788E+00  0.0000000E+00  0.5050505E-02 -0.1125554E-06  0.0000000E+00  0.1396898E-03
  0.2979798E+00  0.0000000E+00  0.5050505E-02 -0.5044205E-07  0.0000000E+00  0.1395235E-03
  0.3080808E+00  0.0000000E+00  0.5050505E-02  0.1417626E-08  0.0000000E+00  0.1394735E-03
  0.3181818E+00  0.0000000E+00  0.5050505E-02  0.4449752E-07  0.0000000E+00  0.1395204E-03
  0.3282828E+00  0.0000000E+00  0.5050505E-02  0.7701763E-07  0.0000000E+00  0.1396443E-03
  0.3383838E+00  0.0000000E+00  0.5050505E-02  0.9155446E-07  0.0000000E+00  0.1398163E-03
  0.3484848E+00  0.0000000E+00  0.5050505E-02  0.7125588E-07  0.0000000E+00  0.1399824E-03
  0.3585859E+00  0.0000000E+00  0.5050505E-02 -0.1425919E-07  0.0000000E+00  0.1400405E-03
  0.3686869E+00  0.0000000E+00  0.5050505E-02 -0.2074947E-06  0.0000000E+00  0.1398143E-03
  0.3787879E+00  0.0000000E+00  0.5050505E-02 -0.5392335E-06  0.0000000E+00  0.1390526E-03
  0.3888889E+00  0.0000000E+00  0.5050505E-02 -0.9574046E-06  0.0000000E+00  0.1375262E-03
  0.3989899E+00  0.0000000E+00  0.5050505E-02 -0.1257504E-05  0.0000000E+00  0.1352679E-03
  0.4090909E+00  0.0000000E+00  0.5050505E-02 -0.1393990E-05  0.0000000E+00  0.1325653E-03
  0.4191919E+00  0.0000000E+00  0.5050505E-02 -0.1407108E-05  0.0000000E+00  0.1297111E-03
  0.4292929E+00  0.0000000E+00  0.5050505E-02 -0.1348739E-05  0.0000000E+00  0.1269040E-03
  0.4393939E+00  0.0000000E+00  0.5050505E-02 -0.1257174E-05  0.0000000E+00  0.1242505E-03
  0.4494950E+00  0.0000000E+00  0.5050505E-02 -0.1155621E-05  0.0000000E+00  0.1217944E-03
  0.4595959E+00  0.0000000E+00  0.5050505E-02 -0.1056840E-05  0.0000000E+00  0.1195428E-03
  0.4696970E+00  0.0000000E+00  0.5050505E-02 -0.9675555E-06  0.0000000E+00  0.1174831E-03
  0.4797980E+00  0.0000000E+00  0.5050505E-02 -0.8913676E-06  0.0000000E+00  0.1155922E-03
  0.4898990E+00  0.0000000E+00  0.5050505E-02 -0.8303475E-06  0.0000000E+00  0.1138413E-03
  0.5000000E+00  0.0000000E+00  0.5050505E-02 -0.7857558E-06  0.0000000E+00  0.1121981E-03
  0.5101010E+00  0.0000000E+00  0.5050505E-02 -0.7582121E-06  0.0000000E+00  0.1106286E-03
  0.5202020E+00  0.0000000E+00  0.5050505E-02 -0.7475485E-06  0.0000000E+00  0.1090981E-03
  0.5303030E+00  0.0000000E+00  0.5050505E-02 -0.7525488E-06  0.0000000E+00  0.1075737E-03
  0.5404040E+00  0.0000000E+00  0.5050505E-02 -0.7707809E-06  0.0000000E+00  0.1060260E-03
  0.5505050E+00  0.0000000E+00  0.5050505E-02 -0.7987275E-06  0.0000000E+00  0.1044317E-03
  0.5606061E+00  0.0000000E+00  0.5050505E-02 -0.8323000E-06  0.0000000E+00  0.1027753E-03
  0.5707071E+00  0.0000000E+00  0.5050505E-02 -0.8675664E-06  0.0000000E+00  0.1010492E-03
  0.5808081E+00  0.0000000E+00  0.5050505E-02 -0.9013312E-06  0.0000000E+00  0.9925353E-04
  0.5909091E+00  0.0000000E+00  0.5050505E-02 -0.9313767E-06  0.0000000E+00  0.9739346E-04
  0.6010101E+00  0.0000000E+00  0.5050505E-02 -0.9564067E-06  0.0000000E+00  0.9547794E-04
  0.6111111E+00  0.0000000E+00  0.5050505E-02 -0.9758362E-06  0.0000000E+00  0.9351778E-04
  0.6212121E+00  0.0000000E+00  0.5050505E-02 -0.9895555E-06  0.0000000E+00  0.9152447E-04
  0.6313131E+00  0.0000000E+00  0.5050505E-02 -0.9977345E-06  0.0000000E+00  0.8950945E-04
  0.6414142E+00  0.0000000E+00  0.5050505E-02 -0.1000688E-05  0.0000000E+00  0.8748363E-04
  0.6515151E+00  0.0000000E+00  0.5050505E-02 -0.9987964E-06  0.0000000E+00  0.8545725E-04
  0.6616161E+00  0.0000000E+00  0.5050505E-02 -0.9924586E-06  0.0000000E+00  0.8343970E-04
  0.6717172E+00  0.0000000E+00  0.5050505E-02 -0.9820758E-06  0.0000000E+00  0.8143958E-04
  0.6818182E+00  0.0000000E+00  0.5050505E-02 -0.9680409E-06  0.0000000E+00  0.7946467E-04
  0.6919192E+00  0.0000000E+00  0.5050505E-02 -0.9507364E-06  0.0000000E+00  0.7752195E-04
  0.7020202E+00  0.0000000E+00  0.5050505E-02 -0.9305330E-06  0.0000000E+00  0.7561766E-04
  0.7121212E+00  0.0000000E+00  0.5050505E-02 -0.9077882E-06  0.0000000E+00  0.7375726E-04
  0.7222222E+00  0.0000000E+00  0.5050505E-02 -0.8828445E-06  0.0000000E+00  0.7194552E-04
  0.7323232E+00  0.0000000E+00  0.5050505E-02 -0.8560271E-06  0.0000000E+00  0.7018654E-04
  0.7424242E+00  0.0000000E+00  0.5050505E-02 -0.8276412E-06  0.0000000E+00  0.6848374E-04
  0.7525253E+00  0.0000000E+00  0.5050505E-02 -0.7979694E-06  0.0000000E+00  0.6684000E-04
  0.7626263E+00  0.0000000E+00  0.5050505E-02 -0.7672694E-06  0.0000000E+00  0.6525761E-04
  0.7727273E+00  0.0000000E+00  0.5050505E-02 -0.7357717E-06  0.0000000E+00  0.6373837E-04
  0.7828283E+00  0.0000000E+00  0.5050505E-02 -0.7036789E-06  0.0000000E+00  0.6228368E-04
  0.7929293E+00  0.0000000E+00  0.5050505E-02 -0.6711642E-06  0.0000000E+00  0.6089451E-04
  0.8030303E+00  0.0000000E+00  0.5050505E-02 -0.6383723E-06  0.0000000E+00  0.5957154E-04
  0.8131313E+00  0.0000000E+00  0.5050505E-02 -0.6054197E-06  0.0000000E+00  0.5831518E-04
  0.8232324E+00  0.0000000E+00  0.5050505E-02 -0.5723965E-06  0.0000000E+00  0.5712564E-04
  0.8333333E+00  0.0000000E+00  0.5050505E-02 -0.5393686E-06  0.0000000E+00  0.5600296E-04
  0.8434343E+00  0.0000000E+00  0.5050505E-02 -0.5063803E-06  0.0000000E+00  0.5494708E-04
  0.8535354E+00  0.0000000E+00  0.5050505E-02 -0.4734578E-06  0.0000000E+00  0.5395787E-04
  0.8636364E+00  0.0000000E+00  0.5050505E-02 -0.4406124E-06  0.0000000E+00  0.5303516E-04
  0.8737374E+00  0.0000000E+00  0.5050505E-02 -0.4078439E-06  0.0000000E+00  0.5217877E-04
  0.8838384E+00  0.0000000E+00  0.5050505E-02 -0.3751441E-06  0.0000000E+00  0.5138854E-04
  0.8939394E+00  0.0000000E+00  0.5050505E-02 -0.3424997E-06  0.0000000E+00  0.5066433E-04
  0.9040404E+00  0.0000000E+00  0.5050505E-02 -0.3098948E-06  0.0000000E+00  0.5000601E-04
  0.9141414E+00  0.0000000E+00  0.5050505E-02 -0.2773132E-06  0.0000000E+00  0.4941351E-04
  0.9242424E+00  0.0000000E+00  0.5050505E-02 -0.2447402E-06  0.0000000E+00  0.4888679E-04
  0.9343435E+00  0.0000000E+00  0.5050505E-02 -0.2121633E-06  0.0000000E+00  0.4842583E-04
  0.9444444E+00  0.0000000E+00  0.5050505E-02 -0.1795734E-06  0.0000000E+00  0.4803063E-04
  0.9545454E+00  0.0000000E+00  0.5050505E-02 -0.1469647E-06  0.0000000E+00  0.4770122E-04
  0.9646465E+00  0.0000000E+00  0.5050505E-02 -0.1143349E-06  0.0000000E+00  0.4743764E-04
  0.9747475E+00  0.0000000E+00  0.5050505E-02 -0.8168487E-07  0.0000000E+00  0.4723990E-04
  0.9848485E+00  0.0000000E+00  0.5050505E-02 -0.4901826E-07  0.0000000E+00  0.4710806E-04
  0.9974747E+00  0.0000000E+00  0.5050505E-02 -0.1634071E-07  0.0000000E+00  0.4704213E-04
  0.5050505E-02  0.0000000E+00  0.1515152E-01  0.2274934E-06  0.0000000E+00  0.8622386E-04
  0.1515152E-01  0.0000000E+00  0.1515152E-01  0.6839738E-06  0.0000000E+00  0.8653172E-04
  0.2525252E-01  0.0000000E+00  0.1515152E-01  0.1145002E-05  0.0000000E+00  0.8714945E-04
  0.3535353E-01  0.0000000E+00  0.1515152E-01  0.1613820E-05  0.0000000E+00  0.8808116E-04
  0.4545455E-01  0.0000000E+00  0.1515152E-01  0.2094008E-05  0.0000000E+00  0.8933322E-04
  0.5555556E-01  0.0000000E+00  0.1515152E-01  0.2589700E-05  0.0000000E+00  0.9091454E-04
  0.6565657E-01  0.0000000E+00  0.1515152E-01  0.3105912E-05  0.0000000E+00  0.9283696E-04
  0.7575758E-01  0.0000000E+00  0.1515152E-01  0.3649090E-05  0.0000000E+00  0.9511585E-04
  0.8585858E-01  0.0000000E+00  0.1515152E-01  0.4228020E-05  0.0000000E+00  0.9777120E-04
  0.9595960E-01  0.0000000E+00  0.1515152E-01  0.4855484E-05  0.0000000E+00  0.1008291E-03
  0.1060606E+00  0.0000000E+00  0.1515152E-01  0.5551317E-05  0.0000000E+00  0.1043243E-03
  0.1161616E+00  0.0000000E+00  0.1515152E-01  0.6348377E-05  0.0000000E+00  0.1083046E-03
  0.1262626E+00  0.0000000E+00  0.1515152E-01  0.7304730E-05  0.0000000E+00  0.1128371E-03
  0.1363636E+00  0.0000000E+00  0.1515152E-01  0.8529794E-05  0.0000000E+00  0.1180194E-03
  0.1464646E+00  0.0000000E+00  0.1515152E-01  0.1024343E-04  0.0000000E+00  0.1239924E-03
  0.1565657E+00  0.0000000E+00  0.1515152E-01  0.1291684E-04  0.0000000E+00  0.1309446E-03
  0.1666667E+00  0.0000000E+00  0.1515152E-01  0.1762677E-04  0.0000000E+00  0.1390320E-03
  0.1767677E+00  0.0000000E+00  0.1515152E-01  0.2698968E-04  0.0000000E+00  0.1478587E-03
  0.1868687E+00  0.0000000E+00  0.1515152E-01 -0.1202035E-04  0.0000000E+00  0.1538425E-03
  0.1969697E+00  0.0000000E+00  0.1515152E-01 -0.8441888E-05  0.0000000E+00  0.1537767E-03
  0.2070707E+00  0.0000000E+00  0.1515152E-01 -0.6001539E-05  0.0000000E+00  0.1505523E-03
  0.2171717E+00  0.0000000E+00  0.1515152E-01 -0.4306010E-05  0.0000000E+00  0.1475821E-03
  0.2272727E+00  0.0000000E+00  0.1515152E-01 -0.3113984E-05  0.0000000E+00  0.1452992E-03
  0.2373737E+00  0.0000000E+00  0.1515152E-01 -0.2262634E-05  0.0000000E+00  0.1436095E-03
  0.2474747E+00  0.0000000E+00  0.1515152E-01 -0.1641705E-05  0.0000000E+00  0.1423716E-03
  0.2575758E+00  0.0000000E+00  0.1515152E-01 -0.1177879E-05  0.0000000E+00  0.1414738E-03
  0.2676768E+00  0.0000000E+00  0.1515152E-01 -0.8229524E-06  0.0000000E+00  0.1408364E-03
  0.2777778E+00  0.0000000E+00  0.1515152E-01 -0.5449629E-06  0.0000000E+00  0.1404024E-03
  0.2878788E+00  0.0000000E+00  0.1515152E-01 -0.3220125E-06  0.0000000E+00  0.1401312E-03
  0.2979798E+00  0.0000000E+00  0.1515152E-01 -0.1384829E-06  0.0000000E+00  0.1399935E-03
  0.3080808E+00  0.0000000E+00  0.1515152E-01  0.1654991E-07  0.0000000E+00  0.1399689E-03
  0.3181818E+00  0.0000000E+00  0.1515152E-01  0.1486785E-06  0.0000000E+00  0.1400440E-03
  0.3282828E+00  0.0000000E+00  0.1515152E-01  0.2548696E-06  0.0000000E+00  0.1402081E-03
  0.3383838E+00  0.0000000E+00  0.1515152E-01  0.3164120E-06  0.0000000E+00  0.1404476E-03
  0.3484848E+00  0.0000000E+00  0.1515152E-01  0.2864030E-06  0.0000000E+00  0.1407309E-03
  0.3585859E+00  0.0000000E+00  0.1515152E-01  0.7163243E-07  0.0000000E+00  0.1409802E-03
  0.3686869E+00  0.0000000E+00  0.1515152E-01 -0.4797675E-06  0.0000000E+00  0.1410156E-03
  0.3787879E+00  0.0000000E+00  0.1515152E-01 -0.1530735E-05  0.0000000E+00  0.1404858E-03
  0.3888889E+00  0.0000000E+00  0.1515152E-01 -0.2992621E-05  0.0000000E+00  0.1389205E-03
  0.3989899E+00  0.0000000E+00  0.1515152E-01 -0.3942598E-05  0.0000000E+00  0.1363592E-03
  0.4090909E+00  0.0000000E+00  0.1515152E-01 -0.4314687E-05  0.0000000E+00  0.1333400E-03
  0.4191919E+00  0.0000000E+00  0.1515152E-01 -0.4303092E-05  0.0000000E+00  0.1302592E-03
  0.4292929E+00  0.0000000E+00  0.1515152E-01 -0.4089249E-05  0.0000000E+00  0.1273170E-03
  0.4393939E+00  0.0000000E+00  0.1515152E-01 -0.3790225E-05  0.0000000E+00  0.1245931E-03
  0.4494950E+00  0.0000000E+00  0.1515152E-01 -0.3471490E-05  0.0000000E+00  0.1221062E-03
  0.4595959E+00  0.0000000E+00  0.1515152E-01 -0.3167157E-05  0.0000000E+00  0.1198469E-03
  0.4696970E+00  0.0000000E+00  0.1515152E-01 -0.2894605E-05  0.0000000E+00  0.1177929E-03
  0.4797980E+00  0.0000000E+00  0.1515152E-01 -0.2663059E-05  0.0000000E+00  0.1159160E-03
  0.4898990E+00  0.0000000E+00  0.1515152E-01 -0.2478012E-05  0.0000000E+00  0.1141844E-03
  0.5000000E+00  0.0000000E+00  0.1515152E-01 -0.2343060E-05  0.0000000E+00  0.1125641E-03
  0.5101010E+00  0.0000000E+00  0.1515152E-01 -0.2260189E-05  0.0000000E+00  0.1110191E-03
  0.5202020E+00  0.0000000E+00  0.1515152E-01 -0.2229135E-05  0.0000000E+00  0.1095126E-03
  0.5303030E+00  0.0000000E+00  0.1515152E-01 -0.2246397E-05  0.0000000E+00  0.1080089E-03
  0.5404040E+00  0.0000000E+00  0.1515152E-01 -0.2304523E-05  0.0000000E+00  0.1064760E-03
  0.5505050E+00  0.0000000E+00  0.1515152E-01 -0.2392424E-05  0.0000000E+00  0.1048888E-03
  0.5606061E+00  0.0000000E+00  0.1515152E-01 -0.2497083E-05  0.0000000E+00  0.1032312E-03
  0.5707071E+00  0.0000000E+00  0.1515152E-01 -0.2606100E-05  0.0000000E+00  0.1014965E-03
  0.5808081E+00  0.0000000E+00  0.1515152E-01 -0.2709631E-05  0.0000000E+00  0.9968647E-04
  0.5909091E+00  0.0000000E+00  0.1515152E-01 -0.2801069E-05  0.0000000E+00  0.9780832E-04
  0.6010101E+00  0.0000000E+00  0.1515152E-01 -0.2876728E-05  0.0000000E+00  0.9587269E-04
  0.6111111E+00  0.0000000E+00  0.1515152E-01 -0.2935089E-05  0.0000000E+00  0.9389167E-04
  0.6212121E+00  0.0000000E+00  0.1515152E-01 -0.2976023E-05  0.0000000E+00  0.9187759E-04
  0.6313131E+00  0.0000000E+00  0.1515152E-01 -0.3000175E-05  0.0000000E+00  0.8984238E-04
  0.6414142E+00  0.0000000E+00  0.1515152E-01 -0.3008577E-05  0.0000000E+00  0.8779723E-04
  0.6515151E+00  0.0000000E+00  0.1515152E-01 -0.3002413E-05  0.0000000E+00  0.8575248E-04
  0.6616161E+00  0.0000000E+00  0.1515152E-01 -0.2982905E-05  0.0000000E+00  0.8371760E-04
  0.6717172E+00  0.0000000E+00  0.1515152E-01 -0.2951268E-05  0.0000000E+00  0.8170121E-04
  0.6818182E+00  0.0000000E+00  0.1515152E-01 -0.2908683E-05  0.0000000E+00  0.7971109E-04
  0.6919192E+00  0.0000000E+00  0.1515152E-01 -0.2856302E-05  0.0000000E+00  0.7775422E-04
  0.7020202E+00  0.0000000E+00  0.1515152E-01 -0.2795238E-05  0.0000000E+00  0.7583681E-04
  0.7121212E+00  0.0000000E+00  0.1515152E-01 -0.2726568E-05  0.0000000E+00  0.7396433E-04
  0.7222222E+00  0.0000000E+00  0.1515152E-01 -0.2651321E-05  0.0000000E+00  0.7214150E-04
  0.7323232E+00  0.0000000E+00  0.1515152E-01 -0.2570477E-05  0.0000000E+00  0.7037238E-04
  0.7424242E+00  0.0000000E+00  0.1515152E-01 -0.2484955E-05  0.0000000E+00  0.6866038E-04
  0.7525253E+00  0.0000000E+00  0.1515152E-01 -0.2395605E-05  0.0000000E+00  0.6700829E-04
  0.7626263E+00  0.0000000E+00  0.1515152E-01 -0.2303203E-05  0.0000000E+00  0.6541836E-04
  0.7727273E+00  0.0000000E+00  0.1515152E-01 -0.2208442E-05  0.0000000E+00  0.6389233E-04
  0.7828283E+00  0.0000000E+00  0.1515152E-01 -0.2111930E-05  0.0000000E+00  0.6243153E-04
  0.7929293E+00  0.0000000E+00  0.1515152E-01 -0.2014187E-05  0.0000000E+00  0.6103686E-04
  0.8030303E+00  0.0000000E+00  0.1515152E-01 -0.1915646E-05  0.0000000E+00  0.5970894E-04
  0.8131313E+00  0.0000000E+00  0.1515152E-01 -0.1816654E-05  0.0000000E+00  0.5844812E-04
  0.8232324E+00  0.0000000E+00  0.1515152E-01 -0.1717480E-05  0.0000000E+00  0.5725453E-04
  0.8333333E+00  0.0000000E+00  0.1515152E-01 -0.1618318E-05  0.0000000E+00  0.5612817E-04
  0.8434343E+00  0.0000000E+00  0.1515152E-01 -0.1519298E-05  0.0000000E+00  0.5506893E-04
  0.8535354E+00  0.0000000E+00  0.1515152E-01 -0.1420493E-05  0.0000000E+00  0.5407663E-04
  0.8636364E+00  0.0000000E+00  0.1515152E-01 -0.1321934E-05  0.0000000E+00  0.5315108E-04
  0.8737374E+00  0.0000000E+00  0.1515152E-01 -0.1223616E-05  0.0000000E+00  0.5229208E-04
  0.8838384E+00  0.0000000E+00  0.1515152E-01 -0.1125512E-05  0.0000000E+00  0.5149942E-04
  0.8939394E+00  0.0000000E+00  0.1515152E-01 -0.1027579E-05  0.0000000E+00  0.5077297E-04
  0.9040404E+00  0.0000000E+00  0.1515152E-01 -0.9297652E-06  0.0000000E+00  0.5011260E-04
  0.9141414E+00  0.0000000E+00  0.1515152E-01 -0.8320218E-06  0.0000000E+00  0.4951824E-04
  0.9242424E+00  0.0000000E+00  0.1515152E-01 -0.7343023E-06  0.0000000E+00  0.4898983E-04
  0.9343435E+00  0.0000000E+00  0.1515152E-01 -0.6365689E-06  0.0000000E+00  0.4852738E-04
  0.9444444E+00  0.0000000E+00  0.1515152E-01 -0.5387934E-06  0.0000000E+00  0.4813088E-04
  0.9545454E+00  0.0000000E+00  0.1515152E-01 -0.4409586E-06  0.0000000E+00  0.4780038E-04
  0.9646465E+00  0.0000000E+00  0.1515152E-01 -0.3430578E-06  0.0000000E+00  0.4753590E-04
  0.9747475E+00  0.0000000E+00  0.1515152E-01 -0.2450942E-06  0.0000000E+00  0.4733750E-04
  0.9848485E+00  0.0000000E+00  0.1515152E-01 -0.1470792E-06  0.0000000E+00  0.4720520E-04
  0.9974747E+00  0.0000000E+00  0.1515152E-01 -0.4903034E-07  0.0000000E+00  0.4713905E-04
  0.5050505E-02  0.0000000E+00  0.2525252E-01  0.3781943E-06  0.0000000E+00  0.8623634E-04
  0.1515152E-01  0.0000000E+00  0.2525252E-01  0.1137023E-05  0.0000000E+00  0.8654314E-04
  0.2525252E-01  0.0000000E+00  0.2525252E-01  0.1903266E-05  0.0000000E+00  0.8715860E-04
  0.3535353E-01  0.0000000E+00  0.2525252E-01  0.2682173E-05  0.0000000E+00  0.8808655E-04
  0.4545455E-01  0.0000000E+00  0.2525252E-01  0.3479483E-05  0.0000000E+00  0.8933285E-04
  0.5555556E-01  0.0000000E+00  0.2525252E-01  0.4301730E-05  0.0000000E+00  0.9090557E-04
  0.6565657E-01  0.0000000E+00  0.2525252E-01  0.5156689E-05  0.0000000E+00  0.9281518E-04
  0.7575758E-01  0.0000000E+00  0.2525252E-01  0.6054086E-05  0.0000000E+00  0.9507484E-04
  0.8585858E-01  0.0000000E+00  0.2525252E-01  0.7006755E-05  0.0000000E+00  0.9770074E-04
  0.9595960E-01  0.0000000E+00  0.2525252E-01  0.8032610E-05  0.0000000E+00  0.1007124E-03
  0.1060606E+00  0.0000000E+00  0.2525252E-01  0.9158093E-05  0.0000000E+00  0.1041328E-03
  0.1161616E+00  0.0000000E+00  0.2525252E-01  0.1042442E-04  0.0000000E+00  0.1079877E-03
  0.1262626E+00  0.0000000E+00  0.2525252E-01  0.1189914E-04  0.0000000E+00  0.1123015E-03
  0.1363636E+00  0.0000000E+00  0.2525252E-01  0.1369809E-04  0.0000000E+00  0.1170857E-03
  0.1464646E+00  0.0000000E+00  0.2525252E-01  0.1602730E-04  0.0000000E+00  0.1223017E-03
  0.1565657E+00  0.0000000E+00  0.2525252E-01  0.1926243E-04  0.0000000E+00  0.1277540E-03
  0.1666667E+00  0.0000000E+00  0.2525252E-01  0.2409162E-04  0.0000000E+00  0.1327910E-03
  0.1767677E+00  0.0000000E+00  0.2525252E-01  0.3173023E-04  0.0000000E+00  0.1355014E-03
  0.1868687E+00  0.0000000E+00  0.2525252E-01 -0.6655073E-06  0.0000000E+00  0.1459781E-03
  0.1969697E+00  0.0000000E+00  0.2525252E-01 -0.1237078E-04  0.0000000E+00  0.1535618E-03
  0.2070707E+00  0.0000000E+00  0.2525252E-01 -0.9103619E-05  0.0000000E+00  0.1495645E-03
  0.2171717E+00  0.0000000E+00  0.2525252E-01 -0.6610428E-05  0.0000000E+00  0.1469843E-03
  0.2272727E+00  0.0000000E+00  0.2525252E-01 -0.4813303E-05  0.0000000E+00  0.1451580E-03
  0.2373737E+00  0.0000000E+00  0.2525252E-01 -0.3516527E-05  0.0000000E+00  0.1438171E-03
  0.2474747E+00  0.0000000E+00  0.2525252E-01 -0.2561852E-05  0.0000000E+00  0.1428243E-03
  0.2575758E+00  0.0000000E+00  0.2525252E-01 -0.1841173E-05  0.0000000E+00  0.1420975E-03
  0.2676768E+00  0.0000000E+00  0.2525252E-01 -0.1283848E-05  0.0000000E+00  0.1415816E-03
  0.2777778E+00  0.0000000E+00  0.2525252E-01 -0.8432623E-06  0.0000000E+00  0.1412367E-03
  0.2878788E+00  0.0000000E+00  0.2525252E-01 -0.4869528E-06  0.0000000E+00  0.1410325E-03
  0.2979798E+00  0.0000000E+00  0.2525252E-01 -0.1905093E-06  0.0000000E+00  0.1409474E-03
  0.3080808E+00  0.0000000E+00  0.2525252E-01  0.6510240E-07  0.0000000E+00  0.1409681E-03
  0.3181818E+00  0.0000000E+00  0.2525252E-01  0.2929066E-06  0.0000000E+00  0.1410903E-03
  0.3282828E+00  0.0000000E+00  0.2525252E-01  0.4954760E-06  0.0000000E+00  0.1413201E-03
  0.3383838E+00  0.0000000E+00  0.2525252E-01  0.6546934E-06  0.0000000E+00  0.1416732E-03
  0.3484848E+00  0.0000000E+00  0.2525252E-01  0.7102988E-06  0.0000000E+00  0.1421696E-03
  0.3585859E+00  0.0000000E+00  0.2525252E-01  0.5161351E-06  0.0000000E+00  0.1428079E-03
  0.3686869E+00  0.0000000E+00  0.2525252E-01 -0.2393218E-06  0.0000000E+00  0.1434706E-03
  0.3787879E+00  0.0000000E+00  0.2525252E-01 -0.2112498E-05  0.0000000E+00  0.1436462E-03
  0.3888889E+00  0.0000000E+00  0.2525252E-01 -0.5548692E-05  0.0000000E+00  0.1419968E-03
  0.3989899E+00  0.0000000E+00  0.2525252E-01 -0.7230364E-05  0.0000000E+00  0.1385780E-03
  0.4090909E+00  0.0000000E+00  0.2525252E-01 -0.7653520E-05  0.0000000E+00  0.1348182E-03
  0.4191919E+00  0.0000000E+00  0.2525252E-01 -0.7438036E-05  0.0000000E+00  0.1312776E-03
  0.4292929E+00  0.0000000E+00  0.2525252E-01 -0.6949419E-05  0.0000000E+00  0.1280890E-03
  0.4393939E+00  0.0000000E+00  0.2525252E-01 -0.6373322E-05  0.0000000E+00  0.1252475E-03
  0.4494950E+00  0.0000000E+00  0.2525252E-01 -0.5798756E-05  0.0000000E+00  0.1227147E-03
  0.4595959E+00  0.0000000E+00  0.2525252E-01 -0.5267282E-05  0.0000000E+00  0.1204490E-03
  0.4696970E+00  0.0000000E+00  0.2525252E-01 -0.4798609E-05  0.0000000E+00  0.1184113E-03
  0.4797980E+00  0.0000000E+00  0.2525252E-01 -0.4403234E-05  0.0000000E+00  0.1165650E-03
  0.4898990E+00  0.0000000E+00  0.2525252E-01 -0.4088198E-05  0.0000000E+00  0.1148740E-03
  0.5000000E+00  0.0000000E+00  0.2525252E-01 -0.3859099E-05  0.0000000E+00  0.1133013E-03
  0.5101010E+00  0.0000000E+00  0.2525252E-01 -0.3719861E-05  0.0000000E+00  0.1118076E-03
  0.5202020E+00  0.0000000E+00  0.2525252E-01 -0.3671061E-05  0.0000000E+00  0.1103515E-03
  0.5303030E+00  0.0000000E+00  0.2525252E-01 -0.3707547E-05  0.0000000E+00  0.1088917E-03
  0.5404040E+00  0.0000000E+00  0.2525252E-01 -0.3816464E-05  0.0000000E+00  0.1073904E-03
  0.5505050E+00  0.0000000E+00  0.2525252E-01 -0.3977350E-05  0.0000000E+00  0.1058178E-03
  0.5606061E+00  0.0000000E+00  0.2525252E-01 -0.4165629E-05  0.0000000E+00  0.1041567E-03
  0.5707071E+00  0.0000000E+00  0.2525252E-01 -0.4358419E-05  0.0000000E+00  0.1024029E-03
  0.5808081E+00  0.0000000E+00  0.2525252E-01 -0.4538480E-05  0.0000000E+00  0.1005619E-03
  0.5909091E+00  0.0000000E+00  0.2525252E-01 -0.4695086E-05  0.0000000E+00  0.9864559E-04
  0.6010101E+00  0.0000000E+00  0.2525252E-01 -0.4822904E-05  0.0000000E+00  0.9666818E-04
  0.6111111E+00  0.0000000E+00  0.2525252E-01 -0.4920261E-05  0.0000000E+00  0.9464432E-04
  0.6212121E+00  0.0000000E+00  0.2525252E-01 -0.4987618E-05  0.0000000E+00  0.9258793E-04
  0.6313131E+00  0.0000000E+00  0.2525252E-01 -0.5026514E-05  0.0000000E+00  0.9051182E-04
  0.6414142E+00  0.0000000E+00  0.2525252E-01 -0.5038933E-05  0.0000000E+00  0.8842761E-04
  0.6515151E+00  0.0000000E+00  0.2525252E-01 -0.5026992E-05  0.0000000E+00  0.8634585E-04
  0.6616161E+00  0.0000000E+00  0.2525252E-01 -0.4992795E-05  0.0000000E+00  0.8427608E-04
  0.6717172E+00  0.0000000E+00  0.2525252E-01 -0.4938392E-05  0.0000000E+00  0.8222694E-04
  0.6818182E+00  0.0000000E+00  0.2525252E-01 -0.4865769E-05  0.0000000E+00  0.8020621E-04
  0.6919192E+00  0.0000000E+00  0.2525252E-01 -0.4776850E-05  0.0000000E+00  0.7822087E-04
  0.7020202E+00  0.0000000E+00  0.2525252E-01 -0.4673501E-05  0.0000000E+00  0.7627710E-04
  0.7121212E+00  0.0000000E+00  0.2525252E-01 -0.4557526E-05  0.0000000E+00  0.7438031E-04
  0.7222222E+00  0.0000000E+00  0.2525252E-01 -0.4430654E-05  0.0000000E+00  0.7253520E-04
  0.7323232E+00  0.0000000E+00  0.2525252E-01 -0.4294528E-05  0.0000000E+00  0.7074574E-04
  0.7424242E+00  0.0000000E+00  0.2525252E-01 -0.4150692E-05  0.0000000E+00  0.6901524E-04
  0.7525253E+00  0.0000000E+00  0.2525252E-01 -0.4000575E-05  0.0000000E+00  0.6734641E-04
  0.7626263E+00  0.0000000E+00  0.2525252E-01 -0.3845476E-05  0.0000000E+00  0.6574137E-04
  0.7727273E+00  0.0000000E+00  0.2525252E-01 -0.3686558E-05  0.0000000E+00  0.6420175E-04
  0.7828283E+00  0.0000000E+00  0.2525252E-01 -0.3524836E-05  0.0000000E+00  0.6272870E-04
  0.7929293E+00  0.0000000E+00  0.2525252E-01 -0.3361179E-05  0.0000000E+00  0.6132304E-04
  0.8030303E+00  0.0000000E+00  0.2525252E-01 -0.3196303E-05  0.0000000E+00  0.5998522E-04
  0.8131313E+00  0.0000000E+00  0.2525252E-01 -0.3030783E-05  0.0000000E+00  0.5871546E-04
  0.8232324E+00  0.0000000E+00  0.2525252E-01 -0.2865056E-05  0.0000000E+00  0.5751378E-04
  0.8333333E+00  0.0000000E+00  0.2525252E-01 -0.2699437E-05  0.0000000E+00  0.5638005E-04
  0.8434343E+00  0.0000000E+00  0.2525252E-01 -0.2534128E-05  0.0000000E+00  0.5531408E-04
  0.8535354E+00  0.0000000E+00  0.2525252E-01 -0.2369240E-05  0.0000000E+00  0.5431560E-04
  0.8636364E+00  0.0000000E+00  0.2525252E-01 -0.2204811E-05  0.0000000E+00  0.5338435E-04
  0.8737374E+00  0.0000000E+00  0.2525252E-01 -0.2040820E-05  0.0000000E+00  0.5252008E-04
  0.8838384E+00  0.0000000E+00  0.2525252E-01 -0.1877208E-05  0.0000000E+00  0.5172255E-04
  0.8939394E+00  0.0000000E+00  0.2525252E-01 -0.1713894E-05  0.0000000E+00  0.5099160E-04
  0.9040404E+00  0.0000000E+00  0.2525252E-01 -0.1550785E-05  0.0000000E+00  0.5032710E-04
  0.9141414E+00  0.0000000E+00  0.2525252E-01 -0.1387792E-05  0.0000000E+00  0.4972897E-04
  0.9242424E+00  0.0000000E+00  0.2525252E-01 -0.1224832E-05  0.0000000E+00  0.4919717E-04
  0.9343435E+00  0.0000000E+00  0.2525252E-01 -0.1061840E-05  0.0000000E+00  0.4873169E-04
  0.9444444E+00  0.0000000E+00  0.2525252E-01 -0.8987668E-06  0.0000000E+00  0.4833257E-04
  0.9545454E+00  0.0000000E+00  0.2525252E-01 -0.7355844E-06  0.0000000E+00  0.4799985E-04
  0.9646465E+00  0.0000000E+00  0.2525252E-01 -0.5722823E-06  0.0000000E+00  0.4773359E-04
  0.9747475E+00  0.0000000E+00  0.2525252E-01 -0.4088674E-06  0.0000000E+00  0.4753383E-04
  0.9848485E+00  0.0000000E+00  0.2525252E-01 -0.2453606E-06  0.0000000E+00  0.4740062E-04
  0.9974747E+00  0.0000000E+00  0.2525252E-01 -0.8179383E-07  0.0000000E+00  0.4733401E-04
  0.5050505E-02  0.0000000E+00  0.3535353E-01  0.5278626E-06  0.0000000E+00  0.8626129E-04
  0.1515152E-01  0.0000000E+00  0.3535353E-01  0.1586907E-05  0.0000000E+00  0.8656669E-04
  0.2525252E-01  0.0000000E+00  0.3535353E-01  0.2656018E-05  0.0000000E+00  0.8717917E-04
  0.3535353E-01  0.0000000E+00  0.3535353E-01  0.3742261E-05  0.0000000E+00  0.8810220E-04
  0.4545455E-01  0.0000000E+00  0.3535353E-01  0.4853259E-05  0.0000000E+00  0.8934104E-04
  0.5555556E-01  0.0000000E+00  0.3535353E-01  0.5997520E-05  0.0000000E+00  0.9090275E-04
  0.6565657E-01  0.0000000E+00  0.3535353E-01  0.7184902E-05  0.0000000E+00  0.9279626E-04
  0.7575758E-01  0.0000000E+00  0.3535353E-01  0.8427293E-05  0.0000000E+00  0.9503222E-04
  0.8585858E-01  0.0000000E+00  0.3535353E-01  0.9739662E-05  0.0000000E+00  0.9762279E-04
  0.9595960E-01  0.0000000E+00  0.3535353E-01  0.1114169E-04  0.0000000E+00  0.1005809E-03
  0.1060606E+00  0.0000000E+00  0.3535353E-01  0.1266035E-04  0.0000000E+00  0.1039186E-03
  0.1161616E+00  0.0000000E+00  0.3535353E-01  0.1433396E-04  0.0000000E+00  0.1076432E-03
  0.1262626E+00  0.0000000E+00  0.3535353E-01  0.1621831E-04  0.0000000E+00  0.1117486E-03
  0.1363636E+00  0.0000000E+00  0.3535353E-01  0.1839503E-04  0.0000000E+00  0.1161957E-03
  0.1464646E+00  0.0000000E+00  0.3535353E-01  0.2097940E-04  0.0000000E+00  0.1208695E-03
  0.1565657E+00  0.0000000E+00  0.3535353E-01  0.2411285E-04  0.0000000E+00  0.1254821E-03
  0.1666667E+00  0.0000000E+00  0.3535353E-01  0.2788397E-04  0.0000000E+00  0.1293571E-03
  0.1767677E+00  0.0000000E+00  0.3535353E-01  0.3198417E-04  0.0000000E+00  0.1309244E-03
  0.1868687E+00  0.0000000E+00  0.3535353E-01  0.1960677E-04  0.0000000E+00  0.1414681E-03
  0.1969697E+00  0.0000000E+00  0.3535353E-01 -0.1642258E-04  0.0000000E+00  0.1503807E-03
  0.2070707E+00  0.0000000E+00  0.3535353E-01 -0.1145757E-04  0.0000000E+00  0.1477760E-03
  0.2171717E+00  0.0000000E+00  0.3535353E-01 -0.8236928E-05  0.0000000E+00  0.1462463E-03
  0.2272727E+00  0.0000000E+00  0.3535353E-01 -0.6023679E-05  0.0000000E+00  0.1451427E-03
  0.2373737E+00  0.0000000E+00  0.3535353E-01 -0.4435271E-05  0.0000000E+00  0.1442852E-03
  0.2474747E+00  0.0000000E+00  0.3535353E-01 -0.3251866E-05  0.0000000E+00  0.1436175E-03
  0.2575758E+00  0.0000000E+00  0.3535353E-01 -0.2342395E-05  0.0000000E+00  0.1431150E-03
  0.2676768E+00  0.0000000E+00  0.3535353E-01 -0.1626704E-05  0.0000000E+00  0.1427599E-03
  0.2777778E+00  0.0000000E+00  0.3535353E-01 -0.1053072E-05  0.0000000E+00  0.1425343E-03
  0.2878788E+00  0.0000000E+00  0.3535353E-01 -0.5843295E-06  0.0000000E+00  0.1424208E-03
  0.2979798E+00  0.0000000E+00  0.3535353E-01 -0.1897190E-06  0.0000000E+00  0.1424053E-03