title = "dataset water"
variables = "x", "y", "z", "vx", "vy", "vz"
zone t = "velocities, solution time =  3.200E+01 days        " i =   99, j =   99, k =    1,  f=point
  0.5050505E-02  0.0000000E+00  0.5050505E-02  0.9255178E-10  0.0000000E+00 -0.8590077E-05
  0.1515152E-01  0.0000000E+00  0.5050505E-02  0.2772618E-09  0.0000000E+00 -0.8589707E-05
  0.2525252E-01  0.0000000E+00  0.5050505E-02  0.4607873E-09  0.0000000E+00 -0.8588968E-05
  0.3535353E-01  0.0000000E+00  0.5050505E-02  0.6423404E-09  0.0000000E+00 -0.8587864E-05
  0.4545455E-01  0.0000000E+00  0.5050505E-02  0.8211369E-09  0.0000000E+00 -0.8586399E-05
  0.5555556E-01  0.0000000E+00  0.5050505E-02  0.9963978E-09  0.0000000E+00 -0.8584580E-05
  0.6565657E-01  0.0000000E+00  0.5050505E-02  0.1167351E-08  0.0000000E+00 -0.8582414E-05
  0.7575758E-01  0.0000000E+00  0.5050505E-02  0.1333232E-08  0.0000000E+00 -0.8579910E-05
  0.8585858E-01  0.0000000E+00  0.5050505E-02  0.1493288E-08  0.0000000E+00 -0.8577081E-05
  0.9595960E-01  0.0000000E+00  0.5050505E-02  0.1646779E-08  0.0000000E+00 -0.8573937E-05
  0.1060606E+00  0.0000000E+00  0.5050505E-02  0.1792982E-08  0.0000000E+00 -0.8570494E-05
  0.1161616E+00  0.0000000E+00  0.5050505E-02  0.1931193E-08  0.0000000E+00 -0.8566766E-05
  0.1262626E+00  0.0000000E+00  0.5050505E-02  0.2060729E-08  0.0000000E+00 -0.8562770E-05
  0.1363636E+00  0.0000000E+00  0.5050505E-02  0.2180935E-08  0.0000000E+00 -0.8558524E-05
  0.1464646E+00  0.0000000E+00  0.5050505E-02  0.2291186E-08  0.0000000E+00 -0.8554047E-05
  0.1565657E+00  0.0000000E+00  0.5050505E-02  0.2390890E-08  0.0000000E+00 -0.8549360E-05
  0.1666667E+00  0.0000000E+00  0.5050505E-02  0.2479496E-08  0.0000000E+00 -0.8544484E-05
  0.1767677E+00  0.0000000E+00  0.5050505E-02  0.2556496E-08  0.0000000E+00 -0.8539443E-05
  0.1868687E+00  0.0000000E+00  0.5050505E-02  0.2621427E-08  0.0000000E+00 -0.8534260E-05
  0.1969697E+00  0.0000000E+00  0.5050505E-02  0.2673883E-08  0.0000000E+00 -0.8528959E-05
  0.2070707E+00  0.0000000E+00  0.5050505E-02  0.2713511E-08  0.0000000E+00 -0.8523566E-05
  0.2171717E+00  0.0000000E+00  0.5050505E-02  0.2740022E-08  0.0000000E+00 -0.8518107E-05
  0.2272727E+00  0.0000000E+00  0.5050505E-02  0.2753189E-08  0.0000000E+00 -0.8512608E-05
  0.2373737E+00  0.0000000E+00  0.5050505E-02  0.2752855E-08  0.0000000E+00 -0.8507096E-05
  0.2474747E+00  0.0000000E+00  0.5050505E-02  0.2738935E-08  0.0000000E+00 -0.8501598E-05
  0.2575758E+00  0.0000000E+00  0.5050505E-02  0.2711417E-08  0.0000000E+00 -0.8496142E-05
  0.2676768E+00  0.0000000E+00  0.5050505E-02  0.2670362E-08  0.0000000E+00 -0.8490755E-05
  0.2777778E+00  0.0000000E+00  0.5050505E-02  0.2615910E-08  0.0000000E+00 -0.8485463E-05
  0.2878788E+00  0.0000000E+00  0.5050505E-02  0.2548277E-08  0.0000000E+00 -0.8480294E-05
  0.2979798E+00  0.0000000E+00  0.5050505E-02  0.2467753E-08  0.0000000E+00 -0.8475272E-05
  0.3080808E+00  0.0000000E+00  0.5050505E-02  0.2374703E-08  0.0000000E+00 -0.8470425E-05
  0.3181818E+00  0.0000000E+00  0.5050505E-02  0.2269563E-08  0.0000000E+00 -0.8465776E-05
  0.3282828E+00  0.0000000E+00  0.5050505E-02  0.2152840E-08  0.0000000E+00 -0.8461349E-05
  0.3383838E+00  0.0000000E+00  0.5050505E-02  0.2025102E-08  0.0000000E+00 -0.8457167E-05
  0.3484848E+00  0.0000000E+00  0.5050505E-02  0.1886979E-08  0.0000000E+00 -0.8453250E-05
  0.3585859E+00  0.0000000E+00  0.5050505E-02  0.1739157E-08  0.0000000E+00 -0.8449621E-05
  0.3686869E+00  0.0000000E+00  0.5050505E-02  0.1582370E-08  0.0000000E+00 -0.8446296E-05
  0.3787879E+00  0.0000000E+00  0.5050505E-02  0.1417396E-08  0.0000000E+00 -0.8443293E-05
  0.3888889E+00  0.0000000E+00  0.5050505E-02  0.1245052E-08  0.0000000E+00 -0.8440627E-05
  0.3989899E+00  0.0000000E+00  0.5050505E-02  0.1066186E-08  0.0000000E+00 -0.8438314E-05
  0.4090909E+00  0.0000000E+00  0.5050505E-02  0.8816680E-09  0.0000000E+00 -0.8436364E-05
  0.4191919E+00  0.0000000E+00  0.5050505E-02  0.6923910E-09  0.0000000E+00 -0.8434788E-05
  0.4292929E+00  0.0000000E+00  0.5050505E-02  0.4992588E-09  0.0000000E+00 -0.8433595E-05
  0.4393939E+00  0.0000000E+00  0.5050505E-02  0.3031822E-09  0.0000000E+00 -0.8432792E-05
  0.4494950E+00  0.0000000E+00  0.5050505E-02  0.1050740E-09  0.0000000E+00 -0.8432383E-05
  0.4595959E+00  0.0000000E+00  0.5050505E-02 -0.9415716E-10  0.0000000E+00 -0.8432373E-05
  0.4696970E+00  0.0000000E+00  0.5050505E-02 -0.2936108E-09  0.0000000E+00 -0.8432761E-05
  0.4797980E+00  0.0000000E+00  0.5050505E-02 -0.4923995E-09  0.0000000E+00 -0.8433547E-05
  0.4898990E+00  0.0000000E+00  0.5050505E-02 -0.6896529E-09  0.0000000E+00 -0.8434731E-05
  0.5000000E+00  0.0000000E+00  0.5050505E-02 -0.8845212E-09  0.0000000E+00 -0.8436307E-05
  0.5101010E+00  0.0000000E+00  0.5050505E-02 -0.1076179E-08  0.0000000E+00 -0.8438269E-05
  0.5202020E+00  0.0000000E+00  0.5050505E-02 -0.1263827E-08  0.0000000E+00 -0.8440612E-05
  0.5303030E+00  0.0000000E+00  0.5050505E-02 -0.1446696E-08  0.0000000E+00 -0.8443325E-05
  0.5404040E+00  0.0000000E+00  0.5050505E-02 -0.1624050E-08  0.0000000E+00 -0.8446399E-05
  0.5505050E+00  0.0000000E+00  0.5050505E-02 -0.1795188E-08  0.0000000E+00 -0.8449822E-05
  0.5606061E+00  0.0000000E+00  0.5050505E-02 -0.1959442E-08  0.0000000E+00 -0.8453580E-05
  0.5707071E+00  0.0000000E+00  0.5050505E-02 -0.2116187E-08  0.0000000E+00 -0.8457660E-05
  0.5808081E+00  0.0000000E+00  0.5050505E-02 -0.2264836E-08  0.0000000E+00 -0.8462046E-05
  0.5909091E+00  0.0000000E+00  0.5050505E-02 -0.2404846E-08  0.0000000E+00 -0.8466720E-05
  0.6010101E+00  0.0000000E+00  0.5050505E-02 -0.2535715E-08  0.0000000E+00 -0.8471666E-05
  0.6111111E+00  0.0000000E+00  0.5050505E-02 -0.2656988E-08  0.0000000E+00 -0.8476864E-05
  0.6212121E+00  0.0000000E+00  0.5050505E-02 -0.2768256E-08  0.0000000E+00 -0.8482295E-05
  0.6313131E+00  0.0000000E+00  0.5050505E-02 -0.2869158E-08  0.0000000E+00 -0.8487938E-05
  0.6414142E+00  0.0000000E+00  0.5050505E-02 -0.2959380E-08  0.0000000E+00 -0.8493773E-05
  0.6515151E+00  0.0000000E+00  0.5050505E-02 -0.3038660E-08  0.0000000E+00 -0.8499777E-05
  0.6616161E+00  0.0000000E+00  0.5050505E-02 -0.3106783E-08  0.0000000E+00 -0.8505929E-05
  0.6717172E+00  0.0000000E+00  0.5050505E-02 -0.3163584E-08  0.0000000E+00 -0.8512206E-05
  0.6818182E+00  0.0000000E+00  0.5050505E-02 -0.3208951E-08  0.0000000E+00 -0.8518585E-05
  0.6919192E+00  0.0000000E+00  0.5050505E-02 -0.3242817E-08  0.0000000E+00 -0.8525044E-05
  0.7020202E+00  0.0000000E+00  0.5050505E-02 -0.3265167E-08  0.0000000E+00 -0.8531558E-05
  0.7121212E+00  0.0000000E+00  0.5050505E-02 -0.3276032E-08  0.0000000E+00 -0.8538106E-05
  0.7222222E+00  0.0000000E+00  0.5050505E-02 -0.3275490E-08  0.0000000E+00 -0.8544665E-05
  0.7323232E+00  0.0000000E+00  0.5050505E-02 -0.3263664E-08  0.0000000E+00 -0.8551211E-05
  0.7424242E+00  0.0000000E+00  0.5050505E-02 -0.3240718E-08  0.0000000E+00 -0.8557722E-05
  0.7525253E+00  0.0000000E+00  0.5050505E-02 -0.3206858E-08  0.0000000E+00 -0.8564176E-05
  0.7626263E+00  0.0000000E+00  0.5050505E-02 -0.3162327E-08  0.0000000E+00 -0.8570552E-05
  0.7727273E+00  0.0000000E+00  0.5050505E-02 -0.3107403E-08  0.0000000E+00 -0.8576829E-05
  0.7828283E+00  0.0000000E+00  0.5050505E-02 -0.3042396E-08  0.0000000E+00 -0.8582985E-05
  0.7929293E+00  0.0000000E+00  0.5050505E-02 -0.2967645E-08  0.0000000E+00 -0.8589001E-05
  0.8030303E+00  0.0000000E+00  0.5050505E-02 -0.2883515E-08  0.0000000E+00 -0.8594859E-05
  0.8131313E+00  0.0000000E+00  0.5050505E-02 -0.2790396E-08  0.0000000E+00 -0.8600538E-05
  0.8232324E+00  0.0000000E+00  0.5050505E-02 -0.2688695E-08  0.0000000E+00 -0.8606023E-05
  0.8333333E+00  0.0000000E+00  0.5050505E-02 -0.2578838E-08  0.0000000E+00 -0.8611296E-05
  0.8434343E+00  0.0000000E+00  0.5050505E-02 -0.2461263E-08  0.0000000E+00 -0.8616342E-05
  0.8535354E+00  0.0000000E+00  0.5050505E-02 -0.2336422E-08  0.0000000E+00 -0.8621145E-05
  0.8636364E+00  0.0000000E+00  0.5050505E-02 -0.2204775E-08  0.0000000E+00 -0.8625691E-05
  0.8737374E+00  0.0000000E+00  0.5050505E-02 -0.2066788E-08  0.0000000E+00 -0.8629967E-05
  0.8838384E+00  0.0000000E+00  0.5050505E-02 -0.1922932E-08  0.0000000E+00 -0.8633961E-05
  0.8939394E+00  0.0000000E+00  0.5050505E-02 -0.1773681E-08  0.0000000E+00 -0.8637661E-05
  0.9040404E+00  0.0000000E+00  0.5050505E-02 -0.1619512E-08  0.0000000E+00 -0.8641058E-05
  0.9141414E+00  0.0000000E+00  0.5050505E-02 -0.1460900E-08  0.0000000E+00 -0.8644142E-05
  0.9242424E+00  0.0000000E+00  0.5050505E-02 -0.1298320E-08  0.0000000E+00 -0.8646904E-05
  0.9343435E+00  0.0000000E+00  0.5050505E-02 -0.1132247E-08  0.0000000E+00 -0.8649337E-05
  0.9444444E+00  0.0000000E+00  0.5050505E-02 -0.9631513E-09  0.0000000E+00 -0.8651435E-05
  0.9545454E+00  0.0000000E+00  0.5050505E-02 -0.7915036E-09  0.0000000E+00 -0.8653191E-05
  0.9646465E+00  0.0000000E+00  0.5050505E-02 -0.6177713E-09  0.0000000E+00 -0.8654602E-05
  0.9747475E+00  0.0000000E+00  0.5050505E-02 -0.4424201E-09  0.0000000E+00 -0.8655663E-05
  0.9848485E+00  0.0000000E+00  0.5050505E-02 -0.2659139E-09  0.0000000E+00 -0.8656372E-05
  0.9974747E+00  0.0000000E+00  0.5050505E-02 -0.8871530E-10  0.0000000E+00 -0.8656727E-05
  0.5050505E-02  0.0000000E+00  0.1515152E-01  0.2785030E-09  0.0000000E+00 -0.8578319E-05
  0.1515152E-01  0.0000000E+00  0.1515152E-01  0.8343248E-09  0.0000000E+00 -0.8577945E-05
  0.2525252E-01  0.0000000E+00  0.1515152E-01  0.1386585E-08  0.0000000E+00 -0.8577197E-05
  0.3535353E-01  0.0000000E+00  0.1515152E-01  0.1932914E-08  0.0000000E+00 -0.8576079E-05
  0.4545455E-01  0.0000000E+00  0.1515152E-01  0.2470955E-08  0.0000000E+00 -0.8574596E-05
  0.5555556E-01  0.0000000E+00  0.1515152E-01  0.2998365E-08  0.0000000E+00 -0.8572755E-05
  0.6565657E-01  0.0000000E+00  0.1515152E-01  0.3512820E-08  0.0000000E+00 -0.8570563E-05
  0.7575758E-01  0.0000000E+00  0.1515152E-01  0.4012022E-08  0.0000000E+00 -0.8568029E-05
  0.8585858E-01  0.0000000E+00  0.1515152E-01  0.4493706E-08  0.0000000E+00 -0.8565165E-05
  0.9595960E-01  0.0000000E+00  0.1515152E-01  0.4955648E-08  0.0000000E+00 -0.8561983E-05
  0.1060606E+00  0.0000000E+00  0.1515152E-01  0.5395668E-08  0.0000000E+00 -0.8558498E-05
  0.1161616E+00  0.0000000E+00  0.1515152E-01  0.5811646E-08  0.0000000E+00 -0.8554724E-05
  0.1262626E+00  0.0000000E+00  0.1515152E-01  0.6201531E-08  0.0000000E+00 -0.8550679E-05
  0.1363636E+00  0.0000000E+00  0.1515152E-01  0.6563348E-08  0.0000000E+00 -0.8546381E-05
  0.1464646E+00  0.0000000E+00  0.1515152E-01  0.6895213E-08  0.0000000E+00 -0.8541849E-05
  0.1565657E+00  0.0000000E+00  0.1515152E-01  0.7195347E-08  0.0000000E+00 -0.8537104E-05
  0.1666667E+00  0.0000000E+00  0.1515152E-01  0.7462086E-08  0.0000000E+00 -0.8532168E-05
  0.1767677E+00  0.0000000E+00  0.1515152E-01  0.7693898E-08  0.0000000E+00 -0.8527064E-05
  0.1868687E+00  0.0000000E+00  0.1515152E-01  0.7889392E-08  0.0000000E+00 -0.8521816E-05
  0.1969697E+00  0.0000000E+00  0.1515152E-01  0.8047338E-08  0.0000000E+00 -0.8516448E-05
  0.2070707E+00  0.0000000E+00  0.1515152E-01  0.8166676E-08  0.0000000E+00 -0.8510988E-05
  0.2171717E+00  0.0000000E+00  0.1515152E-01  0.8246529E-08  0.0000000E+00 -0.8505460E-05
  0.2272727E+00  0.0000000E+00  0.1515152E-01  0.8286216E-08  0.0000000E+00 -0.8499892E-05
  0.2373737E+00  0.0000000E+00  0.1515152E-01  0.8285263E-08  0.0000000E+00 -0.8494311E-05
  0.2474747E+00  0.0000000E+00  0.1515152E-01  0.8243408E-08  0.0000000E+00 -0.8488744E-05
  0.2575758E+00  0.0000000E+00  0.1515152E-01  0.8160615E-08  0.0000000E+00 -0.8483219E-05
  0.2676768E+00  0.0000000E+00  0.1515152E-01  0.8037070E-08  0.0000000E+00 -0.8477763E-05
  0.2777778E+00  0.0000000E+00  0.1515152E-01  0.7873193E-08  0.0000000E+00 -0.8472405E-05
  0.2878788E+00  0.0000000E+00  0.1515152E-01  0.7669632E-08  0.0000000E+00 -0.8467170E-05
  0.2979798E+00  0.0000000E+00  0.1515152E-01  0.7427263E-08  0.0000000E+00 -0.8462085E-05
  0.3080808E+00  0.0000000E+00  0.1515152E-01  0.7147185E-08  0.0000000E+00 -0.8457176E-05
  0.3181818E+00  0.0000000E+00  0.1515152E-01  0.6830714E-08  0.0000000E+00 -0.8452469E-05
  0.3282828E+00  0.0000000E+00  0.1515152E-01  0.6479371E-08  0.0000000E+00 -0.8447986E-05
  0.3383838E+00  0.0000000E+00  0.1515152E-01  0.6094875E-08  0.0000000E+00 -0.8443751E-05
  0.3484848E+00  0.0000000E+00  0.1515152E-01  0.5679124E-08  0.0000000E+00 -0.8439786E-05
  0.3585859E+00  0.0000000E+00  0.1515152E-01  0.5234182E-08  0.0000000E+00 -0.8436110E-05
  0.3686869E+00  0.0000000E+00  0.1515152E-01  0.4762264E-08  0.0000000E+00 -0.8432744E-05
  0.3787879E+00  0.0000000E+00  0.1515152E-01  0.4265715E-08  0.0000000E+00 -0.8429703E-05
  0.3888889E+00  0.0000000E+00  0.1515152E-01  0.3746994E-08  0.0000000E+00 -0.8427005E-05
  0.3989899E+00  0.0000000E+00  0.1515152E-01  0.3208653E-08  0.0000000E+00 -0.8424663E-05
  0.4090909E+00  0.0000000E+00  0.1515152E-01  0.2653321E-08  0.0000000E+00 -0.8422689E-05
  0.4191919E+00  0.0000000E+00  0.1515152E-01  0.2083681E-08  0.0000000E+00 -0.8421094E-05
  0.4292929E+00  0.0000000E+00  0.1515152E-01  0.1502456E-08  0.0000000E+00 -0.8419886E-05
  0.4393939E+00  0.0000000E+00  0.1515152E-01  0.9123898E-09  0.0000000E+00 -0.8419073E-05
  0.4494950E+00  0.0000000E+00  0.1515152E-01  0.3162284E-09  0.0000000E+00 -0.8418659E-05
  0.4595959E+00  0.0000000E+00  0.1515152E-01 -0.2832922E-09  0.0000000E+00 -0.8418648E-05
  0.4696970E+00  0.0000000E+00  0.1515152E-01 -0.8834628E-09  0.0000000E+00 -0.8419041E-05
  0.4797980E+00  0.0000000E+00  0.1515152E-01 -0.1481613E-08  0.0000000E+00 -0.8419837E-05
  0.4898990E+00  0.0000000E+00  0.1515152E-01 -0.2075125E-08  0.0000000E+00 -0.8421034E-05
  0.5000000E+00  0.0000000E+00  0.1515152E-01 -0.2661441E-08  0.0000000E+00 -0.8422629E-05
  0.5101010E+00  0.0000000E+00  0.1515152E-01 -0.3238079E-08  0.0000000E+00 -0.8424615E-05
  0.5202020E+00  0.0000000E+00  0.1515152E-01 -0.3802637E-08  0.0000000E+00 -0.8426985E-05
  0.5303030E+00  0.0000000E+00  0.1515152E-01 -0.4352801E-08  0.0000000E+00 -0.8429730E-05
  0.5404040E+00  0.0000000E+00  0.1515152E-01 -0.4886358E-08  0.0000000E+00 -0.8432840E-05
  0.5505050E+00  0.0000000E+00  0.1515152E-01 -0.5401195E-08  0.0000000E+00 -0.8436302E-05
  0.5606061E+00  0.0000000E+00  0.1515152E-01 -0.5895313E-08  0.0000000E+00 -0.8440104E-05
  0.5707071E+00  0.0000000E+00  0.1515152E-01 -0.6366827E-08  0.0000000E+00 -0.8444231E-05
  0.5808081E+00  0.0000000E+00  0.1515152E-01 -0.6813973E-08  0.0000000E+00 -0.8448667E-05
  0.5909091E+00  0.0000000E+00  0.1515152E-01 -0.7235116E-08  0.0000000E+00 -0.8453396E-05
  0.6010101E+00  0.0000000E+00  0.1515152E-01 -0.7628750E-08  0.0000000E+00 -0.8458398E-05
  0.6111111E+00  0.0000000E+00  0.1515152E-01 -0.7993507E-08  0.0000000E+00 -0.8463655E-05
  0.6212121E+00  0.0000000E+00  0.1515152E-01 -0.8328157E-08  0.0000000E+00 -0.8469148E-05
  0.6313131E+00  0.0000000E+00  0.1515152E-01 -0.8631613E-08  0.0000000E+00 -0.8474855E-05
  0.6414142E+00  0.0000000E+00  0.1515152E-01 -0.8902934E-08  0.0000000E+00 -0.8480756E-05
  0.6515151E+00  0.0000000E+00  0.1515152E-01 -0.9141329E-08  0.0000000E+00 -0.8486828E-05
  0.6616161E+00  0.0000000E+00  0.1515152E-01 -0.9346153E-08  0.0000000E+00 -0.8493049E-05
  0.6717172E+00  0.0000000E+00  0.1515152E-01 -0.9516913E-08  0.0000000E+00 -0.8499396E-05
  0.6818182E+00  0.0000000E+00  0.1515152E-01 -0.9653267E-08  0.0000000E+00 -0.8505846E-05
  0.6919192E+00  0.0000000E+00  0.1515152E-01 -0.9755021E-08  0.0000000E+00 -0.8512377E-05
  0.7020202E+00  0.0000000E+00  0.1515152E-01 -0.9822128E-08  0.0000000E+00 -0.8518964E-05
  0.7121212E+00  0.0000000E+00  0.1515152E-01 -0.9854682E-08  0.0000000E+00 -0.8525584E-05
  0.7222222E+00  0.0000000E+00  0.1515152E-01 -0.9852920E-08  0.0000000E+00 -0.8532215E-05
  0.7323232E+00  0.0000000E+00  0.1515152E-01 -0.9817212E-08  0.0000000E+00 -0.8538832E-05
  0.7424242E+00  0.0000000E+00  0.1515152E-01 -0.9748056E-08  0.0000000E+00 -0.8545415E-05
  0.7525253E+00  0.0000000E+00  0.1515152E-01 -0.9646070E-08  0.0000000E+00 -0.8551939E-05
  0.7626263E+00  0.0000000E+00  0.1515152E-01 -0.9511987E-08  0.0000000E+00 -0.8558384E-05
  0.7727273E+00  0.0000000E+00  0.1515152E-01 -0.9346647E-08  0.0000000E+00 -0.8564728E-05
  0.7828283E+00  0.0000000E+00  0.1515152E-01 -0.9150982E-08  0.0000000E+00 -0.8570951E-05
  0.7929293E+00  0.0000000E+00  0.1515152E-01 -0.8926016E-08  0.0000000E+00 -0.8577032E-05
  0.8030303E+00  0.0000000E+00  0.1515152E-01 -0.8672850E-08  0.0000000E+00 -0.8582951E-05
  0.8131313E+00  0.0000000E+00  0.1515152E-01 -0.8392653E-08  0.0000000E+00 -0.8588692E-05
  0.8232324E+00  0.0000000E+00  0.1515152E-01 -0.8086654E-08  0.0000000E+00 -0.8594235E-05
  0.8333333E+00  0.0000000E+00  0.1515152E-01 -0.7756135E-08  0.0000000E+00 -0.8599563E-05
  0.8434343E+00  0.0000000E+00  0.1515152E-01 -0.7402417E-08  0.0000000E+00 -0.8604662E-05
  0.8535354E+00  0.0000000E+00  0.1515152E-01 -0.7026859E-08  0.0000000E+00 -0.8609515E-05
  0.8636364E+00  0.0000000E+00  0.1515152E-01 -0.6630842E-08  0.0000000E+00 -0.8614108E-05
  0.8737374E+00  0.0000000E+00  0.1515152E-01 -0.6215772E-08  0.0000000E+00 -0.8618428E-05
  0.8838384E+00  0.0000000E+00  0.1515152E-01 -0.5783066E-08  0.0000000E+00 -0.8622464E-05
  0.8939394E+00  0.0000000E+00  0.1515152E-01 -0.5334151E-08  0.0000000E+00 -0.8626202E-05
  0.9040404E+00  0.0000000E+00  0.1515152E-01 -0.4870456E-08  0.0000000E+00 -0.8629634E-05
  0.9141414E+00  0.0000000E+00  0.1515152E-01 -0.4393412E-08  0.0000000E+00 -0.8632749E-05
  0.9242424E+00  0.0000000E+00  0.1515152E-01 -0.3904449E-08  0.0000000E+00 -0.8635540E-05
  0.9343435E+00  0.0000000E+00  0.1515152E-01 -0.3404990E-08  0.0000000E+00 -0.8637998E-05
  0.9444444E+00  0.0000000E+00  0.1515152E-01 -0.2896453E-08  0.0000000E+00 -0.8640117E-05
  0.9545454E+00  0.0000000E+00  0.1515152E-01 -0.2380250E-08  0.0000000E+00 -0.8641891E-05
  0.9646465E+00  0.0000000E+00  0.1515152E-01 -0.1857785E-08  0.0000000E+00 -0.8643316E-05
  0.9747475E+00  0.0000000E+00  0.1515152E-01 -0.1330458E-08  0.0000000E+00 -0.8644388E-05
  0.9848485E+00  0.0000000E+00  0.1515152E-01 -0.7996619E-09  0.0000000E+00 -0.8645105E-05
  0.9974747E+00  0.0000000E+00  0.1515152E-01 -0.2667859E-09  0.0000000E+00 -0.8645463E-05
  0.5050505E-02  0.0000000E+00  0.2525252E-01  0.4672747E-09  0.0000000E+00 -0.8554829E-05
  0.1515152E-01  0.0000000E+00  0.2525252E-01  0.1399839E-08  0.0000000E+00 -0.8554446E-05
  0.2525252E-01  0.0000000E+00  0.2525252E-01  0.2326437E-08  0.0000000E+00 -0.8553680E-05
  0.3535353E-01  0.0000000E+00  0.2525252E-01  0.3243100E-08  0.0000000E+00 -0.8552536E-05
  0.4545455E-01  0.0000000E+00  0.2525252E-01  0.4145878E-08  0.0000000E+00 -0.8551017E-05
  0.5555556E-01  0.0000000E+00  0.2525252E-01  0.5030844E-08  0.0000000E+00 -0.8549132E-05
  0.6565657E-01  0.0000000E+00  0.2525252E-01  0.5894104E-08  0.0000000E+00 -0.8546886E-05
  0.7575758E-01  0.0000000E+00  0.2525252E-01  0.6731806E-08  0.0000000E+00 -0.8544292E-05
  0.8585858E-01  0.0000000E+00  0.2525252E-01  0.7540152E-08  0.0000000E+00 -0.8541359E-05
  0.9595960E-01  0.0000000E+00  0.2525252E-01  0.8315407E-08  0.0000000E+00 -0.8538100E-05
  0.1060606E+00  0.0000000E+00  0.2525252E-01  0.9053919E-08  0.0000000E+00 -0.8534530E-05
  0.1161616E+00  0.0000000E+00  0.2525252E-01  0.9752126E-08  0.0000000E+00 -0.8530664E-05
  0.1262626E+00  0.0000000E+00  0.2525252E-01  0.1040658E-07  0.0000000E+00 -0.8526520E-05
  0.1363636E+00  0.0000000E+00  0.2525252E-01  0.1101397E-07  0.0000000E+00 -0.8522117E-05
  0.1464646E+00  0.0000000E+00  0.2525252E-01  0.1157113E-07  0.0000000E+00 -0.8517474E-05
  0.1565657E+00  0.0000000E+00  0.2525252E-01  0.1207506E-07  0.0000000E+00 -0.8512612E-05
  0.1666667E+00  0.0000000E+00  0.2525252E-01  0.1252296E-07  0.0000000E+00 -0.8507554E-05
  0.1767677E+00  0.0000000E+00  0.2525252E-01  0.1291226E-07  0.0000000E+00 -0.8502324E-05
  0.1868687E+00  0.0000000E+00  0.2525252E-01  0.1324061E-07  0.0000000E+00 -0.8496946E-05
  0.1969697E+00  0.0000000E+00  0.2525252E-01  0.1350595E-07  0.0000000E+00 -0.8491446E-05
  0.2070707E+00  0.0000000E+00  0.2525252E-01  0.1370648E-07  0.0000000E+00 -0.8485849E-05
  0.2171717E+00  0.0000000E+00  0.2525252E-01  0.1384072E-07  0.0000000E+00 -0.8480184E-05
  0.2272727E+00  0.0000000E+00  0.2525252E-01  0.1390753E-07  0.0000000E+00 -0.8474476E-05
  0.2373737E+00  0.0000000E+00  0.2525252E-01  0.1390610E-07  0.0000000E+00 -0.8468756E-05
  0.2474747E+00  0.0000000E+00  0.2525252E-01  0.1383598E-07  0.0000000E+00 -0.8463049E-05
  0.2575758E+00  0.0000000E+00  0.2525252E-01  0.1369712E-07  0.0000000E+00 -0.8457386E-05
  0.2676768E+00  0.0000000E+00  0.2525252E-01  0.1348982E-07  0.0000000E+00 -0.8451793E-05
  0.2777778E+00  0.0000000E+00  0.2525252E-01  0.1321479E-07  0.0000000E+00 -0.8446300E-05
  0.2878788E+00  0.0000000E+00  0.2525252E-01  0.1287311E-07  0.0000000E+00 -0.8440934E-05
  0.2979798E+00  0.0000000E+00  0.2525252E-01  0.1246626E-07  0.0000000E+00 -0.8435721E-05
  0.3080808E+00  0.0000000E+00  0.2525252E-01  0.1199609E-07  0.0000000E+00 -0.8430690E-05
  0.3181818E+00  0.0000000E+00  0.2525252E-01  0.1146480E-07  0.0000000E+00 -0.8425864E-05
  0.3282828E+00  0.0000000E+00  0.2525252E-01  0.1087497E-07  0.0000000E+00 -0.8421269E-05
  0.3383838E+00  0.0000000E+00  0.2525252E-01  0.1022948E-07  0.0000000E+00 -0.8416928E-05
  0.3484848E+00  0.0000000E+00  0.2525252E-01  0.9531528E-08  0.0000000E+00 -0.8412864E-05
  0.3585859E+00  0.0000000E+00  0.2525252E-01  0.8784590E-08  0.0000000E+00 -0.8409097E-05
  0.3686869E+00  0.0000000E+00  0.2525252E-01  0.7992391E-08  0.0000000E+00 -0.8405647E-05
  0.3787879E+00  0.0000000E+00  0.2525252E-01  0.7158877E-08  0.0000000E+00 -0.8402531E-05
  0.3888889E+00  0.0000000E+00  0.2525252E-01  0.6288185E-08  0.0000000E+00 -0.8399766E-05
  0.3989899E+00  0.0000000E+00  0.2525252E-01  0.5384606E-08  0.0000000E+00 -0.8397366E-05
  0.4090909E+00  0.0000000E+00  0.2525252E-01  0.4452560E-08  0.0000000E+00 -0.8395344E-05
  0.4191919E+00  0.0000000E+00  0.2525252E-01  0.3496557E-08  0.0000000E+00 -0.8393710E-05
  0.4292929E+00  0.0000000E+00  0.2525252E-01  0.2521172E-08  0.0000000E+00 -0.8392473E-05
  0.4393939E+00  0.0000000E+00  0.2525252E-01  0.1531013E-08  0.0000000E+00 -0.8391640E-05
  0.4494950E+00  0.0000000E+00  0.2525252E-01  0.5306907E-09  0.0000000E+00 -0.8391216E-05
  0.4595959E+00  0.0000000E+00  0.2525252E-01 -0.4752019E-09  0.0000000E+00 -0.8391205E-05
  0.4696970E+00  0.0000000E+00  0.2525252E-01 -0.1482119E-08  0.0000000E+00 -0.8391607E-05
  0.4797980E+00  0.0000000E+00  0.2525252E-01 -0.2485581E-08  0.0000000E+00 -0.8392422E-05
  0.4898990E+00  0.0000000E+00  0.2525252E-01 -0.3481197E-08  0.0000000E+00 -0.8393647E-05
  0.5000000E+00  0.0000000E+00  0.2525252E-01 -0.4464681E-08  0.0000000E+00 -0.8395279E-05
  0.5101010E+00  0.0000000E+00  0.2525252E-01 -0.5431871E-08  0.0000000E+00 -0.8397312E-05
  0.5202020E+00  0.0000000E+00  0.2525252E-01 -0.6378741E-08  0.0000000E+00 -0.8399737E-05
  0.5303030E+00  0.0000000E+00  0.2525252E-01 -0.7301416E-08  0.0000000E+00 -0.8402546E-05
  0.5404040E+00  0.0000000E+00  0.2525252E-01 -0.8196185E-08  0.0000000E+00 -0.8405728E-05
  0.5505050E+00  0.0000000E+00  0.2525252E-01 -0.9059513E-08  0.0000000E+00 -0.8409271E-05
  0.5606061E+00  0.0000000E+00  0.2525252E-01 -0.9888047E-08  0.0000000E+00 -0.8413160E-05
  0.5707071E+00  0.0000000E+00  0.2525252E-01 -0.1067863E-07  0.0000000E+00 -0.8417382E-05
  0.5808081E+00  0.0000000E+00  0.2525252E-01 -0.1142831E-07  0.0000000E+00 -0.8421920E-05
  0.5909091E+00  0.0000000E+00  0.2525252E-01 -0.1213435E-07  0.0000000E+00 -0.8426756E-05
  0.6010101E+00  0.0000000E+00  0.2525252E-01 -0.1279423E-07  0.0000000E+00 -0.8431872E-05
  0.6111111E+00  0.0000000E+00  0.2525252E-01 -0.1340564E-07  0.0000000E+00 -0.8437249E-05
  0.6212121E+00  0.0000000E+00  0.2525252E-01 -0.1396654E-07  0.0000000E+00 -0.8442866E-05
  0.6313131E+00  0.0000000E+00  0.2525252E-01 -0.1447510E-07  0.0000000E+00 -0.8448702E-05
  0.6414142E+00  0.0000000E+00  0.2525252E-01 -0.1492975E-07  0.0000000E+00 -0.8454735E-05
  0.6515151E+00  0.0000000E+00  0.2525252E-01 -0.1532916E-07  0.0000000E+00 -0.8460943E-05
  0.6616161E+00  0.0000000E+00  0.2525252E-01 -0.1567226E-07  0.0000000E+00 -0.8467303E-05
  0.6717172E+00  0.0000000E+00  0.2525252E-01 -0.1595821E-07  0.0000000E+00 -0.8473791E-05
  0.6818182E+00  0.0000000E+00  0.2525252E-01 -0.1618645E-07  0.0000000E+00 -0.8480384E-05
  0.6919192E+00  0.0000000E+00  0.2525252E-01 -0.1635666E-07  0.0000000E+00 -0.8487059E-05
  0.7020202E+00  0.0000000E+00  0.2525252E-01 -0.1646875E-07  0.0000000E+00 -0.8493791E-05
  0.7121212E+00  0.0000000E+00  0.2525252E-01 -0.1652291E-07  0.0000000E+00 -0.8500557E-05
  0.7222222E+00  0.0000000E+00  0.2525252E-01 -0.1651951E-07  0.0000000E+00 -0.8507332E-05
  0.7323232E+00  0.0000000E+00  0.2525252E-01 -0.1645919E-07  0.0000000E+00 -0.8514094E-05
  0.7424242E+00  0.0000000E+00  0.2525252E-01 -0.1634280E-07  0.0000000E+00 -0.8520820E-05
  0.7525253E+00  0.0000000E+00  0.2525252E-01 -0.1617136E-07  0.0000000E+00 -0.8527485E-05
  0.7626263E+00  0.0000000E+00  0.2525252E-01 -0.1594612E-07  0.0000000E+00 -0.8534069E-05
  0.7727273E+00  0.0000000E+00  0.2525252E-01 -0.1566849E-07  0.0000000E+00 -0.8540549E-05
  0.7828283E+00  0.0000000E+00  0.2525252E-01 -0.1534005E-07  0.0000000E+00 -0.8546905E-05
  0.7929293E+00  0.0000000E+00  0.2525252E-01 -0.1496250E-07  0.0000000E+00 -0.8553115E-05
  0.8030303E+00  0.0000000E+00  0.2525252E-01 -0.1453770E-07  0.0000000E+00 -0.8559160E-05
  0.8131313E+00  0.0000000E+00  0.2525252E-01 -0.1406763E-07  0.0000000E+00 -0.8565022E-05
  0.8232324E+00  0.0000000E+00  0.2525252E-01 -0.1355434E-07  0.0000000E+00 -0.8570681E-05
  0.8333333E+00  0.0000000E+00  0.2525252E-01 -0.1299999E-07  0.0000000E+00 -0.8576122E-05
  0.8434343E+00  0.0000000E+00  0.2525252E-01 -0.1240679E-07  0.0000000E+00 -0.8581326E-05
  0.8535354E+00  0.0000000E+00  0.2525252E-01 -0.1177703E-07  0.0000000E+00 -0.8586280E-05
  0.8636364E+00  0.0000000E+00  0.2525252E-01 -0.1111303E-07  0.0000000E+00 -0.8590969E-05
  0.8737374E+00  0.0000000E+00  0.2525252E-01 -0.1041714E-07  0.0000000E+00 -0.8595378E-05
  0.8838384E+00  0.0000000E+00  0.2525252E-01 -0.9691739E-08  0.0000000E+00 -0.8599497E-05
  0.8939394E+00  0.0000000E+00  0.2525252E-01 -0.8939219E-08  0.0000000E+00 -0.8603312E-05
  0.9040404E+00  0.0000000E+00  0.2525252E-01 -0.8161976E-08  0.0000000E+00 -0.8606814E-05
  0.9141414E+00  0.0000000E+00  0.2525252E-01 -0.7362407E-08  0.0000000E+00 -0.8609993E-05
  0.9242424E+00  0.0000000E+00  0.2525252E-01 -0.6542903E-08  0.0000000E+00 -0.8612840E-05
  0.9343435E+00  0.0000000E+00  0.2525252E-01 -0.5705848E-08  0.0000000E+00 -0.8615348E-05
  0.9444444E+00  0.0000000E+00  0.2525252E-01 -0.4853616E-08  0.0000000E+00 -0.8617510E-05
  0.9545454E+00  0.0000000E+00  0.2525252E-01 -0.3988566E-08  0.0000000E+00 -0.8619320E-05
  0.9646465E+00  0.0000000E+00  0.2525252E-01 -0.3113050E-08  0.0000000E+00 -0.8620774E-05
  0.9747475E+00  0.0000000E+00  0.2525252E-01 -0.2229405E-08  0.0000000E+00 -0.8621867E-05
  0.9848485E+00  0.0000000E+00  0.2525252E-01 -0.1339961E-08  0.0000000E+00 -0.8622598E-05
  0.9974747E+00  0.0000000E+00  0.2525252E-01 -0.4470409E-09  0.0000000E+00 -0.8622964E-05
  0.5050505E-02  0.0000000E+00  0.3535353E-01  0.6611378E-09  0.0000000E+00 -0.8519650E-05
  0.1515152E-01  0.0000000E+00  0.3535353E-01  0.1980610E-08  0.0000000E+00 -0.8519253E-05
  0.2525252E-01  0.0000000E+00  0.3535353E-01  0.3291661E-08  0.0000000E+00 -0.8518460E-05
  0.3535353E-01  0.0000000E+00  0.3535353E-01  0.4588689E-08  0.0000000E+00 -0.8517275E-05
  0.4545455E-01  0.0000000E+00  0.3535353E-01  0.5866115E-08  0.0000000E+00 -0.8515703E-05
  0.5555556E-01  0.0000000E+00  0.3535353E-01  0.7118395E-08  0.0000000E+00 -0.8513750E-05
  0.6565657E-01  0.0000000E+00  0.3535353E-01  0.8340027E-08  0.0000000E+00 -0.8511425E-05
  0.7575758E-01  0.0000000E+00  0.3535353E-01  0.9525569E-08  0.0000000E+00 -0.8508738E-05
  0.8585858E-01  0.0000000E+00  0.3535353E-01  0.1066965E-07  0.0000000E+00 -0.8505700E-05
  0.9595960E-01  0.0000000E+00  0.3535353E-01  0.1176698E-07  0.0000000E+00 -0.8502324E-05
  0.1060606E+00  0.0000000E+00  0.3535353E-01  0.1281240E-07  0.0000000E+00 -0.8498626E-05
  0.1161616E+00  0.0000000E+00  0.3535353E-01  0.1380087E-07  0.0000000E+00 -0.8494622E-05
  0.1262626E+00  0.0000000E+00  0.3535353E-01  0.1472750E-07  0.0000000E+00 -0.8490329E-05
  0.1363636E+00  0.0000000E+00  0.3535353E-01  0.1558758E-07  0.0000000E+00 -0.8485766E-05
  0.1464646E+00  0.0000000E+00  0.3535353E-01  0.1637664E-07  0.0000000E+00 -0.8480955E-05
  0.1565657E+00  0.0000000E+00  0.3535353E-01  0.1709041E-07  0.0000000E+00 -0.8475916E-05
  0.1666667E+00  0.0000000E+00  0.3535353E-01  0.1772492E-07  0.0000000E+00 -0.8470674E-05
  0.1767677E+00  0.0000000E+00  0.3535353E-01  0.1827651E-07  0.0000000E+00 -0.8465253E-05
  0.1868687E+00  0.0000000E+00  0.3535353E-01  0.1874185E-07  0.0000000E+00 -0.8459678E-05
  0.1969697E+00  0.0000000E+00  0.3535353E-01  0.1911797E-07  0.0000000E+00 -0.8453976E-05
  0.2070707E+00  0.0000000E+00  0.3535353E-01  0.1940234E-07  0.0000000E+00 -0.8448174E-05
  0.2171717E+00  0.0000000E+00  0.3535353E-01  0.1959285E-07  0.0000000E+00 -0.8442299E-05
  0.2272727E+00  0.0000000E+00  0.3535353E-01  0.1968784E-07  0.0000000E+00 -0.8436381E-05
  0.2373737E+00  0.0000000E+00  0.3535353E-01  0.1968617E-07  0.0000000E+00 -0.8430449E-05
  0.2474747E+00  0.0000000E+00  0.3535353E-01  0.1958720E-07  0.0000000E+00 -0.8424531E-05
  0.2575758E+00  0.0000000E+00  0.3535353E-01  0.1939083E-07  0.0000000E+00 -0.8418658E-05
  0.2676768E+00  0.0000000E+00  0.3535353E-01  0.1909749E-07  0.0000000E+00 -0.8412858E-05
  0.2777778E+00  0.0000000E+00  0.3535353E-01  0.1870818E-07  0.0000000E+00 -0.8407161E-05
  0.2878788E+00  0.0000000E+00  0.3535353E-01  0.1822444E-07  0.0000000E+00 -0.8401595E-05
  0.2979798E+00  0.0000000E+00  0.3535353E-01  0.1764836E-07  0.0000000E+00 -0.8396190E-05