title = "dataset water"
variables = "x", "y", "z", "vx", "vy", "vz"
zone t = "velocities, solution time =  4.300E+01 days        " i =   99, j =   99, k =    1,  f=point
  0.5050505E-02  0.0000000E+00  0.5050505E-02  0.2490730E-08  0.0000000E+00  0.1662055E-05
  0.1515152E-01  0.0000000E+00  0.5050505E-02  0.7457558E-08  0.0000000E+00  0.1672034E-05
  0.2525252E-01  0.0000000E+00  0.5050505E-02  0.1238046E-07  0.0000000E+00  0.1691934E-05
  0.3535353E-01  0.0000000E+00  0.5050505E-02  0.1723008E-07  0.0000000E+00  0.1721638E-05
  0.4545455E-01  0.0000000E+00  0.5050505E-02  0.2197689E-07  0.0000000E+00  0.1760967E-05
  0.5555556E-01  0.0000000E+00  0.5050505E-02  0.2659125E-07  0.0000000E+00  0.1809688E-05
  0.6565657E-01  0.0000000E+00  0.5050505E-02  0.3104336E-07  0.0000000E+00  0.1867504E-05
  0.7575758E-01  0.0000000E+00  0.5050505E-02  0.3530351E-07  0.0000000E+00  0.1934060E-05
  0.8585858E-01  0.0000000E+00  0.5050505E-02  0.3934215E-07  0.0000000E+00  0.2008941E-05
  0.9595960E-01  0.0000000E+00  0.5050505E-02  0.4312990E-07  0.0000000E+00  0.2091674E-05
  0.1060606E+00  0.0000000E+00  0.5050505E-02  0.4663789E-07  0.0000000E+00  0.2181727E-05
  0.1161616E+00  0.0000000E+00  0.5050505E-02  0.4983818E-07  0.0000000E+00  0.2278511E-05
  0.1262626E+00  0.0000000E+00  0.5050505E-02  0.5270415E-07  0.0000000E+00  0.2381382E-05
  0.1363636E+00  0.0000000E+00  0.5050505E-02  0.5521101E-07  0.0000000E+00  0.2489643E-05
  0.1464646E+00  0.0000000E+00  0.5050505E-02  0.5733628E-07  0.0000000E+00  0.2602554E-05
  0.1565657E+00  0.0000000E+00  0.5050505E-02  0.5906043E-07  0.0000000E+00  0.2719328E-05
  0.1666667E+00  0.0000000E+00  0.5050505E-02  0.6036739E-07  0.0000000E+00  0.2839144E-05
  0.1767677E+00  0.0000000E+00  0.5050505E-02  0.6124513E-07  0.0000000E+00  0.2961154E-05
  0.1868687E+00  0.0000000E+00  0.5050505E-02  0.6168614E-07  0.0000000E+00  0.3084489E-05
  0.1969697E+00  0.0000000E+00  0.5050505E-02  0.6168783E-07  0.0000000E+00  0.3208270E-05
  0.2070707E+00  0.0000000E+00  0.5050505E-02  0.6125280E-07  0.0000000E+00  0.3331619E-05
  0.2171717E+00  0.0000000E+00  0.5050505E-02  0.6038893E-07  0.0000000E+00  0.3453665E-05
  0.2272727E+00  0.0000000E+00  0.5050505E-02  0.5910936E-07  0.0000000E+00  0.3573563E-05
  0.2373737E+00  0.0000000E+00  0.5050505E-02  0.5743224E-07  0.0000000E+00  0.3690496E-05
  0.2474747E+00  0.0000000E+00  0.5050505E-02  0.5538030E-07  0.0000000E+00  0.3803690E-05
  0.2575758E+00  0.0000000E+00  0.5050505E-02  0.5298031E-07  0.0000000E+00  0.3912417E-05
  0.2676768E+00  0.0000000E+00  0.5050505E-02  0.5026237E-07  0.0000000E+00  0.4016011E-05
  0.2777778E+00  0.0000000E+00  0.5050505E-02  0.4725913E-07  0.0000000E+00  0.4113866E-05
  0.2878788E+00  0.0000000E+00  0.5050505E-02  0.4400494E-07  0.0000000E+00  0.4205442E-05
  0.2979798E+00  0.0000000E+00  0.5050505E-02  0.4053507E-07  0.0000000E+00  0.4290273E-05
  0.3080808E+00  0.0000000E+00  0.5050505E-02  0.3688482E-07  0.0000000E+00  0.4367960E-05
  0.3181818E+00  0.0000000E+00  0.5050505E-02  0.3308885E-07  0.0000000E+00  0.4438175E-05
  0.3282828E+00  0.0000000E+00  0.5050505E-02  0.2918050E-07  0.0000000E+00  0.4500660E-05
  0.3383838E+00  0.0000000E+00  0.5050505E-02  0.2519122E-07  0.0000000E+00  0.4555221E-05
  0.3484848E+00  0.0000000E+00  0.5050505E-02  0.2115018E-07  0.0000000E+00  0.4601724E-05
  0.3585859E+00  0.0000000E+00  0.5050505E-02  0.1708390E-07  0.0000000E+00  0.4640091E-05
  0.3686869E+00  0.0000000E+00  0.5050505E-02  0.1301607E-07  0.0000000E+00  0.4670296E-05
  0.3787879E+00  0.0000000E+00  0.5050505E-02  0.8967397E-08  0.0000000E+00  0.4692356E-05
  0.3888889E+00  0.0000000E+00  0.5050505E-02  0.4955620E-08  0.0000000E+00  0.4706328E-05
  0.3989899E+00  0.0000000E+00  0.5050505E-02  0.9955255E-09  0.0000000E+00  0.4712300E-05
  0.4090909E+00  0.0000000E+00  0.5050505E-02 -0.2900923E-08  0.0000000E+00  0.4710388E-05
  0.4191919E+00  0.0000000E+00  0.5050505E-02 -0.6724421E-08  0.0000000E+00  0.4700729E-05
  0.4292929E+00  0.0000000E+00  0.5050505E-02 -0.1046811E-07  0.0000000E+00  0.4683476E-05
  0.4393939E+00  0.0000000E+00  0.5050505E-02 -0.1412731E-07  0.0000000E+00  0.4658795E-05
  0.4494950E+00  0.0000000E+00  0.5050505E-02 -0.1769925E-07  0.0000000E+00  0.4626857E-05
  0.4595959E+00  0.0000000E+00  0.5050505E-02 -0.2118273E-07  0.0000000E+00  0.4587840E-05
  0.4696970E+00  0.0000000E+00  0.5050505E-02 -0.2457780E-07  0.0000000E+00  0.4541920E-05
  0.4797980E+00  0.0000000E+00  0.5050505E-02 -0.2788540E-07  0.0000000E+00  0.4489275E-05
  0.4898990E+00  0.0000000E+00  0.5050505E-02 -0.3110701E-07  0.0000000E+00  0.4430078E-05
  0.5000000E+00  0.0000000E+00  0.5050505E-02 -0.3424425E-07  0.0000000E+00  0.4364501E-05
  0.5101010E+00  0.0000000E+00  0.5050505E-02 -0.3729856E-07  0.0000000E+00  0.4292711E-05
  0.5202020E+00  0.0000000E+00  0.5050505E-02 -0.4027083E-07  0.0000000E+00  0.4214875E-05
  0.5303030E+00  0.0000000E+00  0.5050505E-02 -0.4316111E-07  0.0000000E+00  0.4131157E-05
  0.5404040E+00  0.0000000E+00  0.5050505E-02 -0.4596827E-07  0.0000000E+00  0.4041723E-05
  0.5505050E+00  0.0000000E+00  0.5050505E-02 -0.4868984E-07  0.0000000E+00  0.3946743E-05
  0.5606061E+00  0.0000000E+00  0.5050505E-02 -0.5132179E-07  0.0000000E+00  0.3846392E-05
  0.5707071E+00  0.0000000E+00  0.5050505E-02 -0.5385844E-07  0.0000000E+00  0.3740856E-05
  0.5808081E+00  0.0000000E+00  0.5050505E-02 -0.5629250E-07  0.0000000E+00  0.3630335E-05
  0.5909091E+00  0.0000000E+00  0.5050505E-02 -0.5861508E-07  0.0000000E+00  0.3515042E-05
  0.6010101E+00  0.0000000E+00  0.5050505E-02 -0.6081589E-07  0.0000000E+00  0.3395212E-05
  0.6111111E+00  0.0000000E+00  0.5050505E-02 -0.6288346E-07  0.0000000E+00  0.3271102E-05
  0.6212121E+00  0.0000000E+00  0.5050505E-02 -0.6480544E-07  0.0000000E+00  0.3142991E-05
  0.6313131E+00  0.0000000E+00  0.5050505E-02 -0.6656901E-07  0.0000000E+00  0.3011184E-05
  0.6414142E+00  0.0000000E+00  0.5050505E-02 -0.6816119E-07  0.0000000E+00  0.2876013E-05
  0.6515151E+00  0.0000000E+00  0.5050505E-02 -0.6956932E-07  0.0000000E+00  0.2737834E-05
  0.6616161E+00  0.0000000E+00  0.5050505E-02 -0.7078141E-07  0.0000000E+00  0.2597028E-05
  0.6717172E+00  0.0000000E+00  0.5050505E-02 -0.7178646E-07  0.0000000E+00  0.2454001E-05
  0.6818182E+00  0.0000000E+00  0.5050505E-02 -0.7257486E-07  0.0000000E+00  0.2309177E-05
  0.6919192E+00  0.0000000E+00  0.5050505E-02 -0.7313855E-07  0.0000000E+00  0.2162999E-05
  0.7020202E+00  0.0000000E+00  0.5050505E-02 -0.7347119E-07  0.0000000E+00  0.2015925E-05
  0.7121212E+00  0.0000000E+00  0.5050505E-02 -0.7356828E-07  0.0000000E+00  0.1868423E-05
  0.7222222E+00  0.0000000E+00  0.5050505E-02 -0.7342712E-07  0.0000000E+00  0.1720967E-05
  0.7323232E+00  0.0000000E+00  0.5050505E-02 -0.7304653E-07  0.0000000E+00  0.1574037E-05
  0.7424242E+00  0.0000000E+00  0.5050505E-02 -0.7242764E-07  0.0000000E+00  0.1428112E-05
  0.7525253E+00  0.0000000E+00  0.5050505E-02 -0.7157328E-07  0.0000000E+00  0.1283668E-05
  0.7626263E+00  0.0000000E+00  0.5050505E-02 -0.7048779E-07  0.0000000E+00  0.1141172E-05
  0.7727273E+00  0.0000000E+00  0.5050505E-02 -0.6917688E-07  0.0000000E+00  0.1001083E-05
  0.7828283E+00  0.0000000E+00  0.5050505E-02 -0.6764743E-07  0.0000000E+00  0.8638441E-06
  0.7929293E+00  0.0000000E+00  0.5050505E-02 -0.6590734E-07  0.0000000E+00  0.7298873E-06
  0.8030303E+00  0.0000000E+00  0.5050505E-02 -0.6396540E-07  0.0000000E+00  0.5996257E-06
  0.8131313E+00  0.0000000E+00  0.5050505E-02 -0.6183109E-07  0.0000000E+00  0.4734545E-06
  0.8232324E+00  0.0000000E+00  0.5050505E-02 -0.5951464E-07  0.0000000E+00  0.3517491E-06
  0.8333333E+00  0.0000000E+00  0.5050505E-02 -0.5702702E-07  0.0000000E+00  0.2348637E-06
  0.8434343E+00  0.0000000E+00  0.5050505E-02 -0.5438046E-07  0.0000000E+00  0.1231292E-06
  0.8535354E+00  0.0000000E+00  0.5050505E-02 -0.5159006E-07  0.0000000E+00  0.1689963E-07
  0.8636364E+00  0.0000000E+00  0.5050505E-02 -0.4863885E-07  0.0000000E+00 -0.8342920E-07
  0.8737374E+00  0.0000000E+00  0.5050505E-02 -0.4555151E-07  0.0000000E+00 -0.1776205E-06
  0.8838384E+00  0.0000000E+00  0.5050505E-02 -0.4234260E-07  0.0000000E+00 -0.2655165E-06
  0.8939394E+00  0.0000000E+00  0.5050505E-02 -0.3902322E-07  0.0000000E+00 -0.3468850E-06
  0.9040404E+00  0.0000000E+00  0.5050505E-02 -0.3560374E-07  0.0000000E+00 -0.4215151E-06
  0.9141414E+00  0.0000000E+00  0.5050505E-02 -0.3209428E-07  0.0000000E+00 -0.4892166E-06
  0.9242424E+00  0.0000000E+00  0.5050505E-02 -0.2850476E-07  0.0000000E+00 -0.5498193E-06
  0.9343435E+00  0.0000000E+00  0.5050505E-02 -0.2484496E-07  0.0000000E+00 -0.6031726E-06
  0.9444444E+00  0.0000000E+00  0.5050505E-02 -0.2112453E-07  0.0000000E+00 -0.6491455E-06
  0.9545454E+00  0.0000000E+00  0.5050505E-02 -0.1735301E-07  0.0000000E+00 -0.6876261E-06
  0.9646465E+00  0.0000000E+00  0.5050505E-02 -0.1353982E-07  0.0000000E+00 -0.7185215E-06
  0.9747475E+00  0.0000000E+00  0.5050505E-02 -0.9694320E-08  0.0000000E+00 -0.7417577E-06
  0.9848485E+00  0.0000000E+00  0.5050505E-02 -0.5825792E-08  0.0000000E+00 -0.7572792E-06
  0.9974747E+00  0.0000000E+00  0.5050505E-02 -0.1943464E-08  0.0000000E+00 -0.7650492E-06
  0.5050505E-02  0.0000000E+00  0.1515152E-01  0.7492862E-08  0.0000000E+00  0.1696030E-05
  0.1515152E-01  0.0000000E+00  0.1515152E-01  0.2243468E-07  0.0000000E+00  0.1706122E-05
  0.2525252E-01  0.0000000E+00  0.1515152E-01  0.3724469E-07  0.0000000E+00  0.1726245E-05
  0.3535353E-01  0.0000000E+00  0.1515152E-01  0.5183473E-07  0.0000000E+00  0.1756284E-05
  0.4545455E-01  0.0000000E+00  0.1515152E-01  0.6611622E-07  0.0000000E+00  0.1796059E-05
  0.5555556E-01  0.0000000E+00  0.1515152E-01  0.8000001E-07  0.0000000E+00  0.1845334E-05
  0.6565657E-01  0.0000000E+00  0.1515152E-01  0.9339669E-07  0.0000000E+00  0.1903812E-05
  0.7575758E-01  0.0000000E+00  0.1515152E-01  0.1062169E-06  0.0000000E+00  0.1971136E-05
  0.8585858E-01  0.0000000E+00  0.1515152E-01  0.1183716E-06  0.0000000E+00  0.2046888E-05
  0.9595960E-01  0.0000000E+00  0.1515152E-01  0.1297721E-06  0.0000000E+00  0.2130591E-05
  0.1060606E+00  0.0000000E+00  0.1515152E-01  0.1403315E-06  0.0000000E+00  0.2221708E-05
  0.1161616E+00  0.0000000E+00  0.1515152E-01  0.1499655E-06  0.0000000E+00  0.2319644E-05
  0.1262626E+00  0.0000000E+00  0.1515152E-01  0.1585935E-06  0.0000000E+00  0.2423748E-05
  0.1363636E+00  0.0000000E+00  0.1515152E-01  0.1661406E-06  0.0000000E+00  0.2533315E-05
  0.1464646E+00  0.0000000E+00  0.1515152E-01  0.1725388E-06  0.0000000E+00  0.2647594E-05
  0.1565657E+00  0.0000000E+00  0.1515152E-01  0.1777287E-06  0.0000000E+00  0.2765787E-05
  0.1666667E+00  0.0000000E+00  0.1515152E-01  0.1816616E-06  0.0000000E+00  0.2887061E-05
  0.1767677E+00  0.0000000E+00  0.1515152E-01  0.1843009E-06  0.0000000E+00  0.3010553E-05
  0.1868687E+00  0.0000000E+00  0.1515152E-01  0.1856237E-06  0.0000000E+00  0.3135380E-05
  0.1969697E+00  0.0000000E+00  0.1515152E-01  0.1856220E-06  0.0000000E+00  0.3260647E-05
  0.2070707E+00  0.0000000E+00  0.1515152E-01  0.1843034E-06  0.0000000E+00  0.3385459E-05
  0.2171717E+00  0.0000000E+00  0.1515152E-01  0.1816918E-06  0.0000000E+00  0.3508933E-05
  0.2272727E+00  0.0000000E+00  0.1515152E-01  0.1778270E-06  0.0000000E+00  0.3630206E-05
  0.2373737E+00  0.0000000E+00  0.1515152E-01  0.1727640E-06  0.0000000E+00  0.3748448E-05
  0.2474747E+00  0.0000000E+00  0.1515152E-01  0.1665716E-06  0.0000000E+00  0.3862870E-05
  0.2575758E+00  0.0000000E+00  0.1515152E-01  0.1593310E-06  0.0000000E+00  0.3972737E-05
  0.2676768E+00  0.0000000E+00  0.1515152E-01  0.1511335E-06  0.0000000E+00  0.4077370E-05
  0.2777778E+00  0.0000000E+00  0.1515152E-01  0.1420781E-06  0.0000000E+00  0.4176158E-05
  0.2878788E+00  0.0000000E+00  0.1515152E-01  0.1322689E-06  0.0000000E+00  0.4268557E-05
  0.2979798E+00  0.0000000E+00  0.1515152E-01  0.1218125E-06  0.0000000E+00  0.4354097E-05
  0.3080808E+00  0.0000000E+00  0.1515152E-01  0.1108158E-06  0.0000000E+00  0.4432379E-05
  0.3181818E+00  0.0000000E+00  0.1515152E-01  0.9938361E-07  0.0000000E+00  0.4503078E-05
  0.3282828E+00  0.0000000E+00  0.1515152E-01  0.8761657E-07  0.0000000E+00  0.4565937E-05
  0.3383838E+00  0.0000000E+00  0.1515152E-01  0.7560962E-07  0.0000000E+00  0.4620768E-05
  0.3484848E+00  0.0000000E+00  0.1515152E-01  0.6345062E-07  0.0000000E+00  0.4667442E-05
  0.3585859E+00  0.0000000E+00  0.1515152E-01  0.5121944E-07  0.0000000E+00  0.4705889E-05
  0.3686869E+00  0.0000000E+00  0.1515152E-01  0.3898727E-07  0.0000000E+00  0.4736088E-05
  0.3787879E+00  0.0000000E+00  0.1515152E-01  0.2681634E-07  0.0000000E+00  0.4758065E-05
  0.3888889E+00  0.0000000E+00  0.1515152E-01  0.1475977E-07  0.0000000E+00  0.4771884E-05
  0.3989899E+00  0.0000000E+00  0.1515152E-01  0.2861810E-08  0.0000000E+00  0.4777641E-05
  0.4090909E+00  0.0000000E+00  0.1515152E-01 -0.8841862E-08  0.0000000E+00  0.4775458E-05
  0.4191919E+00  0.0000000E+00  0.1515152E-01 -0.2032360E-07  0.0000000E+00  0.4765481E-05
  0.4292929E+00  0.0000000E+00  0.1515152E-01 -0.3156313E-07  0.0000000E+00  0.4747868E-05
  0.4393939E+00  0.0000000E+00  0.1515152E-01 -0.4254678E-07  0.0000000E+00  0.4722790E-05
  0.4494950E+00  0.0000000E+00  0.1515152E-01 -0.5326662E-07  0.0000000E+00  0.4690424E-05
  0.4595959E+00  0.0000000E+00  0.1515152E-01 -0.6371947E-07  0.0000000E+00  0.4650952E-05
  0.4696970E+00  0.0000000E+00  0.1515152E-01 -0.7390590E-07  0.0000000E+00  0.4604554E-05
  0.4797980E+00  0.0000000E+00  0.1515152E-01 -0.8382918E-07  0.0000000E+00  0.4551409E-05
  0.4898990E+00  0.0000000E+00  0.1515152E-01 -0.9349415E-07  0.0000000E+00  0.4491693E-05
  0.5000000E+00  0.0000000E+00  0.1515152E-01 -0.1029061E-06  0.0000000E+00  0.4425577E-05
  0.5101010E+00  0.0000000E+00  0.1515152E-01 -0.1120699E-06  0.0000000E+00  0.4353230E-05
  0.5202020E+00  0.0000000E+00  0.1515152E-01 -0.1209884E-06  0.0000000E+00  0.4274817E-05
  0.5303030E+00  0.0000000E+00  0.1515152E-01 -0.1296622E-06  0.0000000E+00  0.4190500E-05
  0.5404040E+00  0.0000000E+00  0.1515152E-01 -0.1380882E-06  0.0000000E+00  0.4100443E-05
  0.5505050E+00  0.0000000E+00  0.1515152E-01 -0.1462591E-06  0.0000000E+00  0.4004812E-05
  0.5606061E+00  0.0000000E+00  0.1515152E-01 -0.1541629E-06  0.0000000E+00  0.3903782E-05
  0.5707071E+00  0.0000000E+00  0.1515152E-01 -0.1617827E-06  0.0000000E+00  0.3797534E-05
  0.5808081E+00  0.0000000E+00  0.1515152E-01 -0.1690964E-06  0.0000000E+00  0.3686264E-05
  0.5909091E+00  0.0000000E+00  0.1515152E-01 -0.1760773E-06  0.0000000E+00  0.3570184E-05
  0.6010101E+00  0.0000000E+00  0.1515152E-01 -0.1826940E-06  0.0000000E+00  0.3449528E-05
  0.6111111E+00  0.0000000E+00  0.1515152E-01 -0.1889120E-06  0.0000000E+00  0.3324548E-05
  0.6212121E+00  0.0000000E+00  0.1515152E-01 -0.1946936E-06  0.0000000E+00  0.3195525E-05
  0.6313131E+00  0.0000000E+00  0.1515152E-01 -0.2000001E-06  0.0000000E+00  0.3062764E-05
  0.6414142E+00  0.0000000E+00  0.1515152E-01 -0.2047919E-06  0.0000000E+00  0.2926598E-05
  0.6515151E+00  0.0000000E+00  0.1515152E-01 -0.2090308E-06  0.0000000E+00  0.2787386E-05
  0.6616161E+00  0.0000000E+00  0.1515152E-01 -0.2126801E-06  0.0000000E+00  0.2645512E-05
  0.6717172E+00  0.0000000E+00  0.1515152E-01 -0.2157067E-06  0.0000000E+00  0.2501386E-05
  0.6818182E+00  0.0000000E+00  0.1515152E-01 -0.2180814E-06  0.0000000E+00  0.2355436E-05
  0.6919192E+00  0.0000000E+00  0.1515152E-01 -0.2197796E-06  0.0000000E+00  0.2208112E-05
  0.7020202E+00  0.0000000E+00  0.1515152E-01 -0.2207825E-06  0.0000000E+00  0.2059877E-05
  0.7121212E+00  0.0000000E+00  0.1515152E-01 -0.2210763E-06  0.0000000E+00  0.1911205E-05
  0.7222222E+00  0.0000000E+00  0.1515152E-01 -0.2206530E-06  0.0000000E+00  0.1762578E-05
  0.7323232E+00  0.0000000E+00  0.1515152E-01 -0.2195094E-06  0.0000000E+00  0.1614479E-05
  0.7424242E+00  0.0000000E+00  0.1515152E-01 -0.2176487E-06  0.0000000E+00  0.1467394E-05
  0.7525253E+00  0.0000000E+00  0.1515152E-01 -0.2150796E-06  0.0000000E+00  0.1321805E-05
  0.7626263E+00  0.0000000E+00  0.1515152E-01 -0.2118153E-06  0.0000000E+00  0.1178182E-05
  0.7727273E+00  0.0000000E+00  0.1515152E-01 -0.2078731E-06  0.0000000E+00  0.1036991E-05
  0.7828283E+00  0.0000000E+00  0.1515152E-01 -0.2032738E-06  0.0000000E+00  0.8986793E-06
  0.7929293E+00  0.0000000E+00  0.1515152E-01 -0.1980413E-06  0.0000000E+00  0.7636821E-06
  0.8030303E+00  0.0000000E+00  0.1515152E-01 -0.1922022E-06  0.0000000E+00  0.6324163E-06
  0.8131313E+00  0.0000000E+00  0.1515152E-01 -0.1857850E-06  0.0000000E+00  0.5052804E-06
  0.8232324E+00  0.0000000E+00  0.1515152E-01 -0.1788202E-06  0.0000000E+00  0.3826530E-06
  0.8333333E+00  0.0000000E+00  0.1515152E-01 -0.1713405E-06  0.0000000E+00  0.2648919E-06
  0.8434343E+00  0.0000000E+00  0.1515152E-01 -0.1633809E-06  0.0000000E+00  0.1523333E-06
  0.8535354E+00  0.0000000E+00  0.1515152E-01 -0.1549810E-06  0.0000000E+00  0.4530340E-07
  0.8636364E+00  0.0000000E+00  0.1515152E-01 -0.1461392E-06  0.0000000E+00 -0.5579106E-07
  0.8737374E+00  0.0000000E+00  0.1515152E-01 -0.1368568E-06  0.0000000E+00 -0.1506800E-06
  0.8838384E+00  0.0000000E+00  0.1515152E-01 -0.1272130E-06  0.0000000E+00 -0.2392179E-06
  0.8939394E+00  0.0000000E+00  0.1515152E-01 -0.1172384E-06  0.0000000E+00 -0.3211759E-06
  0.9040404E+00  0.0000000E+00  0.1515152E-01 -0.1069635E-06  0.0000000E+00 -0.3963432E-06
  0.9141414E+00  0.0000000E+00  0.1515152E-01 -0.9641888E-07  0.0000000E+00 -0.4645293E-06
  0.9242424E+00  0.0000000E+00  0.1515152E-01 -0.8563412E-07  0.0000000E+00 -0.5255635E-06
  0.9343435E+00  0.0000000E+00  0.1515152E-01 -0.7463858E-07  0.0000000E+00 -0.5792951E-06
  0.9444444E+00  0.0000000E+00  0.1515152E-01 -0.6346121E-07  0.0000000E+00 -0.6255926E-06
  0.9545454E+00  0.0000000E+00  0.1515152E-01 -0.5213060E-07  0.0000000E+00 -0.6643441E-06
  0.9646465E+00  0.0000000E+00  0.1515152E-01 -0.4067507E-07  0.0000000E+00 -0.6954564E-06
  0.9747475E+00  0.0000000E+00  0.1515152E-01 -0.2912265E-07  0.0000000E+00 -0.7188554E-06
  0.9848485E+00  0.0000000E+00  0.1515152E-01 -0.1750118E-07  0.0000000E+00 -0.7344855E-06
  0.9974747E+00  0.0000000E+00  0.1515152E-01 -0.5838321E-08  0.0000000E+00 -0.7423098E-06
  0.5050505E-02  0.0000000E+00  0.2525252E-01  0.1256438E-07  0.0000000E+00  0.1764028E-05
  0.1515152E-01  0.0000000E+00  0.2525252E-01  0.3761990E-07  0.0000000E+00  0.1774344E-05
  0.2525252E-01  0.0000000E+00  0.2525252E-01  0.6245549E-07  0.0000000E+00  0.1794917E-05
  0.3535353E-01  0.0000000E+00  0.2525252E-01  0.8692396E-07  0.0000000E+00  0.1825627E-05
  0.4545455E-01  0.0000000E+00  0.2525252E-01  0.1108773E-06  0.0000000E+00  0.1866296E-05
  0.5555556E-01  0.0000000E+00  0.2525252E-01  0.1341667E-06  0.0000000E+00  0.1916685E-05
  0.6565657E-01  0.0000000E+00  0.2525252E-01  0.1566425E-06  0.0000000E+00  0.1976493E-05
  0.7575758E-01  0.0000000E+00  0.2525252E-01  0.1781549E-06  0.0000000E+00  0.2045360E-05
  0.8585858E-01  0.0000000E+00  0.2525252E-01  0.1985540E-06  0.0000000E+00  0.2122862E-05
  0.9595960E-01  0.0000000E+00  0.2525252E-01  0.2176908E-06  0.0000000E+00  0.2208514E-05
  0.1060606E+00  0.0000000E+00  0.2525252E-01  0.2354188E-06  0.0000000E+00  0.2301771E-05
  0.1161616E+00  0.0000000E+00  0.2525252E-01  0.2515956E-06  0.0000000E+00  0.2402023E-05
  0.1262626E+00  0.0000000E+00  0.2525252E-01  0.2660851E-06  0.0000000E+00  0.2508608E-05
  0.1363636E+00  0.0000000E+00  0.2525252E-01  0.2787601E-06  0.0000000E+00  0.2620803E-05
  0.1464646E+00  0.0000000E+00  0.2525252E-01  0.2895050E-06  0.0000000E+00  0.2737835E-05
  0.1565657E+00  0.0000000E+00  0.2525252E-01  0.2982188E-06  0.0000000E+00  0.2858886E-05
  0.1666667E+00  0.0000000E+00  0.2525252E-01  0.3048181E-06  0.0000000E+00  0.2983096E-05
  0.1767677E+00  0.0000000E+00  0.2525252E-01  0.3092402E-06  0.0000000E+00  0.3109574E-05
  0.1868687E+00  0.0000000E+00  0.2525252E-01  0.3114454E-06  0.0000000E+00  0.3237407E-05
  0.1969697E+00  0.0000000E+00  0.2525252E-01  0.3114197E-06  0.0000000E+00  0.3365668E-05
  0.2070707E+00  0.0000000E+00  0.2525252E-01  0.3091757E-06  0.0000000E+00  0.3493432E-05
  0.2171717E+00  0.0000000E+00  0.2525252E-01  0.3047536E-06  0.0000000E+00  0.3619782E-05
  0.2272727E+00  0.0000000E+00  0.2525252E-01  0.2982208E-06  0.0000000E+00  0.3743824E-05
  0.2373737E+00  0.0000000E+00  0.2525252E-01  0.2896709E-06  0.0000000E+00  0.3864700E-05
  0.2474747E+00  0.0000000E+00  0.2525252E-01  0.2792213E-06  0.0000000E+00  0.3981596E-05
  0.2575758E+00  0.0000000E+00  0.2525252E-01  0.2670102E-06  0.0000000E+00  0.4093753E-05
  0.2676768E+00  0.0000000E+00  0.2525252E-01  0.2531931E-06  0.0000000E+00  0.4200476E-05
  0.2777778E+00  0.0000000E+00  0.2525252E-01  0.2379385E-06  0.0000000E+00  0.4301137E-05
  0.2878788E+00  0.0000000E+00  0.2525252E-01  0.2214233E-06  0.0000000E+00  0.4395186E-05
  0.2979798E+00  0.0000000E+00  0.2525252E-01  0.2038288E-06  0.0000000E+00  0.4482145E-05
  0.3080808E+00  0.0000000E+00  0.2525252E-01  0.1853364E-06  0.0000000E+00  0.4561618E-05
  0.3181818E+00  0.0000000E+00  0.2525252E-01  0.1661232E-06  0.0000000E+00  0.4633280E-05
  0.3282828E+00  0.0000000E+00  0.2525252E-01  0.1463594E-06  0.0000000E+00  0.4696883E-05
  0.3383838E+00  0.0000000E+00  0.2525252E-01  0.1262052E-06  0.0000000E+00  0.4752247E-05
  0.3484848E+00  0.0000000E+00  0.2525252E-01  0.1058085E-06  0.0000000E+00  0.4799256E-05
  0.3585859E+00  0.0000000E+00  0.2525252E-01  0.8530323E-07  0.0000000E+00  0.4837852E-05
  0.3686869E+00  0.0000000E+00  0.2525252E-01  0.6480877E-07  0.0000000E+00  0.4868031E-05
  0.3787879E+00  0.0000000E+00  0.2525252E-01  0.4442899E-07  0.0000000E+00  0.4889832E-05
  0.3888889E+00  0.0000000E+00  0.2525252E-01  0.2425232E-07  0.0000000E+00  0.4903335E-05
  0.3989899E+00  0.0000000E+00  0.2525252E-01  0.4352088E-08  0.0000000E+00  0.4908651E-05
  0.4090909E+00  0.0000000E+00  0.2525252E-01 -0.1521290E-07  0.0000000E+00  0.4905918E-05
  0.4191919E+00  0.0000000E+00  0.2525252E-01 -0.3439742E-07  0.0000000E+00  0.4895294E-05
  0.4292929E+00  0.0000000E+00  0.2525252E-01 -0.5316873E-07  0.0000000E+00  0.4876951E-05
  0.4393939E+00  0.0000000E+00  0.2525252E-01 -0.7150524E-07  0.0000000E+00  0.4851072E-05
  0.4494950E+00  0.0000000E+00  0.2525252E-01 -0.8939499E-07  0.0000000E+00  0.4817843E-05
  0.4595959E+00  0.0000000E+00  0.2525252E-01 -0.1068341E-06  0.0000000E+00  0.4777455E-05
  0.4696970E+00  0.0000000E+00  0.2525252E-01 -0.1238249E-06  0.0000000E+00  0.4730095E-05
  0.4797980E+00  0.0000000E+00  0.2525252E-01 -0.1403743E-06  0.0000000E+00  0.4675946E-05
  0.4898990E+00  0.0000000E+00  0.2525252E-01 -0.1564920E-06  0.0000000E+00  0.4615187E-05
  0.5000000E+00  0.0000000E+00  0.2525252E-01 -0.1721883E-06  0.0000000E+00  0.4547993E-05
  0.5101010E+00  0.0000000E+00  0.2525252E-01 -0.1874723E-06  0.0000000E+00  0.4474530E-05
  0.5202020E+00  0.0000000E+00  0.2525252E-01 -0.2023506E-06  0.0000000E+00  0.4394960E-05
  0.5303030E+00  0.0000000E+00  0.2525252E-01 -0.2168249E-06  0.0000000E+00  0.4309445E-05
  0.5404040E+00  0.0000000E+00  0.2525252E-01 -0.2308911E-06  0.0000000E+00  0.4218141E-05
  0.5505050E+00  0.0000000E+00  0.2525252E-01 -0.2445376E-06  0.0000000E+00  0.4121212E-05
  0.5606061E+00  0.0000000E+00  0.2525252E-01 -0.2577450E-06  0.0000000E+00  0.4018822E-05
  0.5707071E+00  0.0000000E+00  0.2525252E-01 -0.2704848E-06  0.0000000E+00  0.3911150E-05
  0.5808081E+00  0.0000000E+00  0.2525252E-01 -0.2827201E-06  0.0000000E+00  0.3798383E-05
  0.5909091E+00  0.0000000E+00  0.2525252E-01 -0.2944054E-06  0.0000000E+00  0.3680729E-05
  0.6010101E+00  0.0000000E+00  0.2525252E-01 -0.3054879E-06  0.0000000E+00  0.3558416E-05
  0.6111111E+00  0.0000000E+00  0.2525252E-01 -0.3159084E-06  0.0000000E+00  0.3431695E-05
  0.6212121E+00  0.0000000E+00  0.2525252E-01 -0.3256030E-06  0.0000000E+00  0.3300844E-05
  0.6313131E+00  0.0000000E+00  0.2525252E-01 -0.3345052E-06  0.0000000E+00  0.3166170E-05
  0.6414142E+00  0.0000000E+00  0.2525252E-01 -0.3425478E-06  0.0000000E+00  0.3028008E-05
  0.6515151E+00  0.0000000E+00  0.2525252E-01 -0.3496651E-06  0.0000000E+00  0.2886722E-05
  0.6616161E+00  0.0000000E+00  0.2525252E-01 -0.3557949E-06  0.0000000E+00  0.2742703E-05
  0.6717172E+00  0.0000000E+00  0.2525252E-01 -0.3608806E-06  0.0000000E+00  0.2596368E-05
  0.6818182E+00  0.0000000E+00  0.2525252E-01 -0.3648724E-06  0.0000000E+00  0.2448157E-05
  0.6919192E+00  0.0000000E+00  0.2525252E-01 -0.3677288E-06  0.0000000E+00  0.2298531E-05
  0.7020202E+00  0.0000000E+00  0.2525252E-01 -0.3694176E-06  0.0000000E+00  0.2147963E-05
  0.7121212E+00  0.0000000E+00  0.2525252E-01 -0.3699160E-06  0.0000000E+00  0.1996941E-05
  0.7222222E+00  0.0000000E+00  0.2525252E-01 -0.3692106E-06  0.0000000E+00  0.1845958E-05
  0.7323232E+00  0.0000000E+00  0.2525252E-01 -0.3672972E-06  0.0000000E+00  0.1695512E-05
  0.7424242E+00  0.0000000E+00  0.2525252E-01 -0.3641808E-06  0.0000000E+00  0.1546097E-05
  0.7525253E+00  0.0000000E+00  0.2525252E-01 -0.3598762E-06  0.0000000E+00  0.1398206E-05
  0.7626263E+00  0.0000000E+00  0.2525252E-01 -0.3544061E-06  0.0000000E+00  0.1252322E-05
  0.7727273E+00  0.0000000E+00  0.2525252E-01 -0.3478000E-06  0.0000000E+00  0.1108918E-05
  0.7828283E+00  0.0000000E+00  0.2525252E-01 -0.3400934E-06  0.0000000E+00  0.9684526E-06
  0.7929293E+00  0.0000000E+00  0.2525252E-01 -0.3313268E-06  0.0000000E+00  0.8313671E-06
  0.8030303E+00  0.0000000E+00  0.2525252E-01 -0.3215448E-06  0.0000000E+00  0.6980859E-06
  0.8131313E+00  0.0000000E+00  0.2525252E-01 -0.3107955E-06  0.0000000E+00  0.5690140E-06
  0.8232324E+00  0.0000000E+00  0.2525252E-01 -0.2991299E-06  0.0000000E+00  0.4445357E-06
  0.8333333E+00  0.0000000E+00  0.2525252E-01 -0.2866017E-06  0.0000000E+00  0.3250145E-06
  0.8434343E+00  0.0000000E+00  0.2525252E-01 -0.2732672E-06  0.0000000E+00  0.2107925E-06
  0.8535354E+00  0.0000000E+00  0.2525252E-01 -0.2591860E-06  0.0000000E+00  0.1021906E-06
  0.8636364E+00  0.0000000E+00  0.2525252E-01 -0.2444104E-06  0.0000000E+00 -0.4299095E-09
  0.8737374E+00  0.0000000E+00  0.2525252E-01 -0.2288991E-06  0.0000000E+00 -0.9674635E-07
  0.8838384E+00  0.0000000E+00  0.2525252E-01 -0.2127622E-06  0.0000000E+00 -0.1865673E-06
  0.8939394E+00  0.0000000E+00  0.2525252E-01 -0.1960736E-06  0.0000000E+00 -0.2697063E-06
  0.9040404E+00  0.0000000E+00  0.2525252E-01 -0.1788843E-06  0.0000000E+00 -0.3459502E-06
  0.9141414E+00  0.0000000E+00  0.2525252E-01 -0.1612455E-06  0.0000000E+00 -0.4151074E-06
  0.9242424E+00  0.0000000E+00  0.2525252E-01 -0.1432064E-06  0.0000000E+00 -0.4770065E-06
  0.9343435E+00  0.0000000E+00  0.2525252E-01 -0.1248160E-06  0.0000000E+00 -0.5314962E-06
  0.9444444E+00  0.0000000E+00  0.2525252E-01 -0.1061226E-06  0.0000000E+00 -0.5784444E-06
  0.9545454E+00  0.0000000E+00  0.2525252E-01 -0.8717375E-07  0.0000000E+00 -0.6177387E-06
  0.9646465E+00  0.0000000E+00  0.2525252E-01 -0.6801679E-07  0.0000000E+00 -0.6492857E-06
  0.9747475E+00  0.0000000E+00  0.2525252E-01 -0.4869843E-07  0.0000000E+00 -0.6730108E-06
  0.9848485E+00  0.0000000E+00  0.2525252E-01 -0.2926502E-07  0.0000000E+00 -0.6888585E-06
  0.9974747E+00  0.0000000E+00  0.2525252E-01 -0.9762663E-08  0.0000000E+00 -0.6967916E-06
  0.5050505E-02  0.0000000E+00  0.3535353E-01  0.1776168E-07  0.0000000E+00  0.1866099E-05
  0.1515152E-01  0.0000000E+00  0.3535353E-01  0.5318230E-07  0.0000000E+00  0.1876754E-05
  0.2525252E-01  0.0000000E+00  0.3535353E-01  0.8829443E-07  0.0000000E+00  0.1898004E-05
  0.3535353E-01  0.0000000E+00  0.3535353E-01  0.1228914E-06  0.0000000E+00  0.1929728E-05
  0.4545455E-01  0.0000000E+00  0.3535353E-01  0.1567653E-06  0.0000000E+00  0.1971747E-05
  0.5555556E-01  0.0000000E+00  0.3535353E-01  0.1897067E-06  0.0000000E+00  0.2023818E-05
  0.6565657E-01  0.0000000E+00  0.3535353E-01  0.2215048E-06  0.0000000E+00  0.2085637E-05
  0.7575758E-01  0.0000000E+00  0.3535353E-01  0.2519476E-06  0.0000000E+00  0.2156836E-05
  0.8585858E-01  0.0000000E+00  0.3535353E-01  0.2808226E-06  0.0000000E+00  0.2236985E-05
  0.9595960E-01  0.0000000E+00  0.3535353E-01  0.3079185E-06  0.0000000E+00  0.2325585E-05
  0.1060606E+00  0.0000000E+00  0.3535353E-01  0.3330264E-06  0.0000000E+00  0.2422079E-05
  0.1161616E+00  0.0000000E+00  0.3535353E-01  0.3559430E-06  0.0000000E+00  0.2525841E-05
  0.1262626E+00  0.0000000E+00  0.3535353E-01  0.3764734E-06  0.0000000E+00  0.2636184E-05
  0.1363636E+00  0.0000000E+00  0.3535353E-01  0.3944347E-06  0.0000000E+00  0.2752362E-05
  0.1464646E+00  0.0000000E+00  0.3535353E-01  0.4096602E-06  0.0000000E+00  0.2873571E-05
  0.1565657E+00  0.0000000E+00  0.3535353E-01  0.4220036E-06  0.0000000E+00  0.2998959E-05
  0.1666667E+00  0.0000000E+00  0.3535353E-01  0.4313436E-06  0.0000000E+00  0.3127626E-05
  0.1767677E+00  0.0000000E+00  0.3535353E-01  0.4375884E-06  0.0000000E+00  0.3258639E-05
  0.1868687E+00  0.0000000E+00  0.3535353E-01  0.4406798E-06  0.0000000E+00  0.3391039E-05
  0.1969697E+00  0.0000000E+00  0.3535353E-01  0.4405958E-06  0.0000000E+00  0.3523850E-05
  0.2070707E+00  0.0000000E+00  0.3535353E-01  0.4373538E-06  0.0000000E+00  0.3656098E-05
  0.2171717E+00  0.0000000E+00  0.3535353E-01  0.4310111E-06  0.0000000E+00  0.3786815E-05
  0.2272727E+00  0.0000000E+00  0.3535353E-01  0.4216648E-06  0.0000000E+00  0.3915063E-05
  0.2373737E+00  0.0000000E+00  0.3535353E-01  0.4094501E-06  0.0000000E+00  0.4039937E-05
  0.2474747E+00  0.0000000E+00  0.3535353E-01  0.3945368E-06  0.0000000E+00  0.4160584E-05
  0.2575758E+00  0.0000000E+00  0.3535353E-01  0.3771250E-06  0.0000000E+00  0.4276211E-05
  0.2676768E+00  0.0000000E+00  0.3535353E-01  0.3574398E-06  0.0000000E+00  0.4386093E-05
  0.2777778E+00  0.0000000E+00  0.3535353E-01  0.3357246E-06  0.0000000E+00  0.4489584E-05
  0.2878788E+00  0.0000000E+00  0.3535353E-01  0.3122351E-06  0.0000000E+00  0.4586118E-05
  0.2979798E+00  0.0000000E+00  0.3535353E-01  0.2872325E-06  0.0000000E+00  0.4675212E-05