title = "dataset water"
variables = "x", "y", "z", "vx", "vy", "vz"
zone t = "velocities, solution time =  1.000E+01 days        " i =   99, j =   99, k =    1,  f=point
  0.5050505E-02  0.0000000E+00  0.5050505E-02  0.1055977E-12  0.0000000E+00 -0.5554259E-04
  0.1515152E-01  0.0000000E+00  0.5050505E-02 -0.4944500E-13  0.0000000E+00 -0.5554259E-04
  0.2525252E-01  0.0000000E+00  0.5050505E-02 -0.2177727E-12  0.0000000E+00 -0.5554259E-04
  0.3535353E-01  0.0000000E+00  0.5050505E-02 -0.3364243E-12  0.0000000E+00 -0.5554259E-04
  0.4545455E-01  0.0000000E+00  0.5050505E-02 -0.4142566E-12  0.0000000E+00 -0.5554259E-04
  0.5555556E-01  0.0000000E+00  0.5050505E-02 -0.4705500E-12  0.0000000E+00 -0.5554259E-04
  0.6565657E-01  0.0000000E+00  0.5050505E-02 -0.5091447E-12  0.0000000E+00 -0.5554259E-04
  0.7575758E-01  0.0000000E+00  0.5050505E-02 -0.5385697E-12  0.0000000E+00 -0.5554259E-04
  0.8585858E-01  0.0000000E+00  0.5050505E-02 -0.5547999E-12  0.0000000E+00 -0.5554259E-04
  0.9595960E-01  0.0000000E+00  0.5050505E-02 -0.5626798E-12  0.0000000E+00 -0.5554259E-04
  0.1060606E+00  0.0000000E+00  0.5050505E-02 -0.5614803E-12  0.0000000E+00 -0.5554259E-04
  0.1161616E+00  0.0000000E+00  0.5050505E-02 -0.5500481E-12  0.0000000E+00 -0.5554260E-04
  0.1262626E+00  0.0000000E+00  0.5050505E-02 -0.5297802E-12  0.0000000E+00 -0.5554260E-04
  0.1363636E+00  0.0000000E+00  0.5050505E-02 -0.4975318E-12  0.0000000E+00 -0.5554260E-04
  0.1464646E+00  0.0000000E+00  0.5050505E-02 -0.4529500E-12  0.0000000E+00 -0.5554260E-04
  0.1565657E+00  0.0000000E+00  0.5050505E-02 -0.3962386E-12  0.0000000E+00 -0.5554260E-04
  0.1666667E+00  0.0000000E+00  0.5050505E-02 -0.3277042E-12  0.0000000E+00 -0.5554260E-04
  0.1767677E+00  0.0000000E+00  0.5050505E-02 -0.2487649E-12  0.0000000E+00 -0.5554260E-04
  0.1868687E+00  0.0000000E+00  0.5050505E-02 -0.1643363E-12  0.0000000E+00 -0.5554260E-04
  0.1969697E+00  0.0000000E+00  0.5050505E-02 -0.8702505E-13  0.0000000E+00 -0.5554260E-04
  0.2070707E+00  0.0000000E+00  0.5050505E-02  0.1463162E-13  0.0000000E+00 -0.5554260E-04
  0.2171717E+00  0.0000000E+00  0.5050505E-02  0.8747671E-13  0.0000000E+00 -0.5554260E-04
  0.2272727E+00  0.0000000E+00  0.5050505E-02  0.2240014E-12  0.0000000E+00 -0.5554260E-04
  0.2373737E+00  0.0000000E+00  0.5050505E-02  0.3257358E-12  0.0000000E+00 -0.5554260E-04
  0.2474747E+00  0.0000000E+00  0.5050505E-02  0.3806721E-12  0.0000000E+00 -0.5554260E-04
  0.2575758E+00  0.0000000E+00  0.5050505E-02  0.4179286E-12  0.0000000E+00 -0.5554260E-04
  0.2676768E+00  0.0000000E+00  0.5050505E-02  0.4476709E-12  0.0000000E+00 -0.5554260E-04
  0.2777778E+00  0.0000000E+00  0.5050505E-02  0.4600379E-12  0.0000000E+00 -0.5554260E-04
  0.2878788E+00  0.0000000E+00  0.5050505E-02  0.4469692E-12  0.0000000E+00 -0.5554260E-04
  0.2979798E+00  0.0000000E+00  0.5050505E-02  0.4217058E-12  0.0000000E+00 -0.5554260E-04
  0.3080808E+00  0.0000000E+00  0.5050505E-02  0.3989527E-12  0.0000000E+00 -0.5554259E-04
  0.3181818E+00  0.0000000E+00  0.5050505E-02  0.3660867E-12  0.0000000E+00 -0.5554259E-04
  0.3282828E+00  0.0000000E+00  0.5050505E-02  0.3139213E-12  0.0000000E+00 -0.5554259E-04
  0.3383838E+00  0.0000000E+00  0.5050505E-02  0.2509916E-12  0.0000000E+00 -0.5554259E-04
  0.3484848E+00  0.0000000E+00  0.5050505E-02  0.1836505E-12  0.0000000E+00 -0.5554259E-04
  0.3585859E+00  0.0000000E+00  0.5050505E-02  0.1231052E-12  0.0000000E+00 -0.5554259E-04
  0.3686869E+00  0.0000000E+00  0.5050505E-02  0.2075736E-13  0.0000000E+00 -0.5554259E-04
  0.3787879E+00  0.0000000E+00  0.5050505E-02 -0.7406142E-13  0.0000000E+00 -0.5554259E-04
  0.3888889E+00  0.0000000E+00  0.5050505E-02 -0.1795981E-12  0.0000000E+00 -0.5554259E-04
  0.3989899E+00  0.0000000E+00  0.5050505E-02 -0.2517458E-12  0.0000000E+00 -0.5554259E-04
  0.4090909E+00  0.0000000E+00  0.5050505E-02 -0.2853386E-12  0.0000000E+00 -0.5554259E-04
  0.4191919E+00  0.0000000E+00  0.5050505E-02 -0.2863512E-12  0.0000000E+00 -0.5554259E-04
  0.4292929E+00  0.0000000E+00  0.5050505E-02 -0.3075812E-12  0.0000000E+00 -0.5554259E-04
  0.4393939E+00  0.0000000E+00  0.5050505E-02 -0.3424366E-12  0.0000000E+00 -0.5554259E-04
  0.4494950E+00  0.0000000E+00  0.5050505E-02 -0.2956407E-12  0.0000000E+00 -0.5554260E-04
  0.4595959E+00  0.0000000E+00  0.5050505E-02 -0.1898056E-12  0.0000000E+00 -0.5554260E-04
  0.4696970E+00  0.0000000E+00  0.5050505E-02 -0.1275818E-12  0.0000000E+00 -0.5554260E-04
  0.4797980E+00  0.0000000E+00  0.5050505E-02 -0.1063896E-12  0.0000000E+00 -0.5554260E-04
  0.4898990E+00  0.0000000E+00  0.5050505E-02 -0.4357555E-13  0.0000000E+00 -0.5554260E-04
  0.5000000E+00  0.0000000E+00  0.5050505E-02  0.9247016E-13  0.0000000E+00 -0.5554260E-04
  0.5101010E+00  0.0000000E+00  0.5050505E-02  0.1724746E-12  0.0000000E+00 -0.5554260E-04
  0.5202020E+00  0.0000000E+00  0.5050505E-02  0.2684634E-12  0.0000000E+00 -0.5554260E-04
  0.5303030E+00  0.0000000E+00  0.5050505E-02  0.3457558E-12  0.0000000E+00 -0.5554260E-04
  0.5404040E+00  0.0000000E+00  0.5050505E-02  0.4197521E-12  0.0000000E+00 -0.5554259E-04
  0.5505050E+00  0.0000000E+00  0.5050505E-02  0.4611618E-12  0.0000000E+00 -0.5554259E-04
  0.5606061E+00  0.0000000E+00  0.5050505E-02  0.4679640E-12  0.0000000E+00 -0.5554259E-04
  0.5707071E+00  0.0000000E+00  0.5050505E-02  0.4725331E-12  0.0000000E+00 -0.5554259E-04
  0.5808081E+00  0.0000000E+00  0.5050505E-02  0.4778668E-12  0.0000000E+00 -0.5554259E-04
  0.5909091E+00  0.0000000E+00  0.5050505E-02  0.4553574E-12  0.0000000E+00 -0.5554259E-04
  0.6010101E+00  0.0000000E+00  0.5050505E-02  0.4245817E-12  0.0000000E+00 -0.5554259E-04
  0.6111111E+00  0.0000000E+00  0.5050505E-02  0.3916442E-12  0.0000000E+00 -0.5554259E-04
  0.6212121E+00  0.0000000E+00  0.5050505E-02  0.3354979E-12  0.0000000E+00 -0.5554259E-04
  0.6313131E+00  0.0000000E+00  0.5050505E-02  0.2685958E-12  0.0000000E+00 -0.5554259E-04
  0.6414142E+00  0.0000000E+00  0.5050505E-02  0.2063615E-12  0.0000000E+00 -0.5554259E-04
  0.6515151E+00  0.0000000E+00  0.5050505E-02  0.1434970E-12  0.0000000E+00 -0.5554259E-04
  0.6616161E+00  0.0000000E+00  0.5050505E-02  0.7844355E-13  0.0000000E+00 -0.5554259E-04
  0.6717172E+00  0.0000000E+00  0.5050505E-02 -0.4519101E-13  0.0000000E+00 -0.5554259E-04
  0.6818182E+00  0.0000000E+00  0.5050505E-02 -0.1968977E-12  0.0000000E+00 -0.5554259E-04
  0.6919192E+00  0.0000000E+00  0.5050505E-02 -0.2902292E-12  0.0000000E+00 -0.5554259E-04
  0.7020202E+00  0.0000000E+00  0.5050505E-02 -0.3710087E-12  0.0000000E+00 -0.5554259E-04
  0.7121212E+00  0.0000000E+00  0.5050505E-02 -0.4297411E-12  0.0000000E+00 -0.5554259E-04
  0.7222222E+00  0.0000000E+00  0.5050505E-02 -0.4583594E-12  0.0000000E+00 -0.5554259E-04
  0.7323232E+00  0.0000000E+00  0.5050505E-02 -0.4798100E-12  0.0000000E+00 -0.5554259E-04
  0.7424242E+00  0.0000000E+00  0.5050505E-02 -0.5075040E-12  0.0000000E+00 -0.5554259E-04
  0.7525253E+00  0.0000000E+00  0.5050505E-02 -0.5325258E-12  0.0000000E+00 -0.5554259E-04
  0.7626263E+00  0.0000000E+00  0.5050505E-02 -0.5245094E-12  0.0000000E+00 -0.5554259E-04
  0.7727273E+00  0.0000000E+00  0.5050505E-02 -0.4993889E-12  0.0000000E+00 -0.5554259E-04
  0.7828283E+00  0.0000000E+00  0.5050505E-02 -0.4813687E-12  0.0000000E+00 -0.5554259E-04
  0.7929293E+00  0.0000000E+00  0.5050505E-02 -0.4572607E-12  0.0000000E+00 -0.5554260E-04
  0.8030303E+00  0.0000000E+00  0.5050505E-02 -0.4083136E-12  0.0000000E+00 -0.5554260E-04
  0.8131313E+00  0.0000000E+00  0.5050505E-02 -0.3401468E-12  0.0000000E+00 -0.5554260E-04
  0.8232324E+00  0.0000000E+00  0.5050505E-02 -0.2671505E-12  0.0000000E+00 -0.5554260E-04
  0.8333333E+00  0.0000000E+00  0.5050505E-02 -0.1949251E-12  0.0000000E+00 -0.5554260E-04
  0.8434343E+00  0.0000000E+00  0.5050505E-02 -0.1223069E-12  0.0000000E+00 -0.5554260E-04
  0.8535354E+00  0.0000000E+00  0.5050505E-02 -0.5844455E-13  0.0000000E+00 -0.5554260E-04
  0.8636364E+00  0.0000000E+00  0.5050505E-02  0.3627759E-13  0.0000000E+00 -0.5554260E-04
  0.8737374E+00  0.0000000E+00  0.5050505E-02  0.1747412E-12  0.0000000E+00 -0.5554260E-04
  0.8838384E+00  0.0000000E+00  0.5050505E-02  0.2785533E-12  0.0000000E+00 -0.5554260E-04
  0.8939394E+00  0.0000000E+00  0.5050505E-02  0.3437748E-12  0.0000000E+00 -0.5554260E-04
  0.9040404E+00  0.0000000E+00  0.5050505E-02  0.3760253E-12  0.0000000E+00 -0.5554260E-04
  0.9141414E+00  0.0000000E+00  0.5050505E-02  0.4036415E-12  0.0000000E+00 -0.5554260E-04
  0.9242424E+00  0.0000000E+00  0.5050505E-02  0.4210818E-12  0.0000000E+00 -0.5554260E-04
  0.9343435E+00  0.0000000E+00  0.5050505E-02  0.3978645E-12  0.0000000E+00 -0.5554259E-04
  0.9444444E+00  0.0000000E+00  0.5050505E-02  0.3672022E-12  0.0000000E+00 -0.5554259E-04
  0.9545454E+00  0.0000000E+00  0.5050505E-02  0.3562132E-12  0.0000000E+00 -0.5554259E-04
  0.9646465E+00  0.0000000E+00  0.5050505E-02  0.3236750E-12  0.0000000E+00 -0.5554259E-04
  0.9747475E+00  0.0000000E+00  0.5050505E-02  0.2566636E-12  0.0000000E+00 -0.5554259E-04
  0.9848485E+00  0.0000000E+00  0.5050505E-02  0.1962927E-12  0.0000000E+00 -0.5554259E-04
  0.9974747E+00  0.0000000E+00  0.5050505E-02  0.1753631E-12  0.0000000E+00 -0.5554259E-04
  0.5050505E-02  0.0000000E+00  0.1515152E-01  0.1073627E-12  0.0000000E+00 -0.5528505E-04
  0.1515152E-01  0.0000000E+00  0.1515152E-01 -0.1156476E-12  0.0000000E+00 -0.5528505E-04
  0.2525252E-01  0.0000000E+00  0.1515152E-01 -0.6201991E-12  0.0000000E+00 -0.5528505E-04
  0.3535353E-01  0.0000000E+00  0.1515152E-01 -0.9934463E-12  0.0000000E+00 -0.5528505E-04
  0.4545455E-01  0.0000000E+00  0.1515152E-01 -0.1238033E-11  0.0000000E+00 -0.5528506E-04
  0.5555556E-01  0.0000000E+00  0.1515152E-01 -0.1411336E-11  0.0000000E+00 -0.5528506E-04
  0.6565657E-01  0.0000000E+00  0.1515152E-01 -0.1526865E-11  0.0000000E+00 -0.5528506E-04
  0.7575758E-01  0.0000000E+00  0.1515152E-01 -0.1614078E-11  0.0000000E+00 -0.5528506E-04
  0.8585858E-01  0.0000000E+00  0.1515152E-01 -0.1663351E-11  0.0000000E+00 -0.5528506E-04
  0.9595960E-01  0.0000000E+00  0.1515152E-01 -0.1686066E-11  0.0000000E+00 -0.5528506E-04
  0.1060606E+00  0.0000000E+00  0.1515152E-01 -0.1682429E-11  0.0000000E+00 -0.5528506E-04
  0.1161616E+00  0.0000000E+00  0.1515152E-01 -0.1648121E-11  0.0000000E+00 -0.5528506E-04
  0.1262626E+00  0.0000000E+00  0.1515152E-01 -0.1587398E-11  0.0000000E+00 -0.5528506E-04
  0.1363636E+00  0.0000000E+00  0.1515152E-01 -0.1491617E-11  0.0000000E+00 -0.5528506E-04
  0.1464646E+00  0.0000000E+00  0.1515152E-01 -0.1356919E-11  0.0000000E+00 -0.5528507E-04
  0.1565657E+00  0.0000000E+00  0.1515152E-01 -0.1183296E-11  0.0000000E+00 -0.5528507E-04
  0.1666667E+00  0.0000000E+00  0.1515152E-01 -0.9739609E-12  0.0000000E+00 -0.5528507E-04
  0.1767677E+00  0.0000000E+00  0.1515152E-01 -0.7342682E-12  0.0000000E+00 -0.5528507E-04
  0.1868687E+00  0.0000000E+00  0.1515152E-01 -0.4719083E-12  0.0000000E+00 -0.5528507E-04
  0.1969697E+00  0.0000000E+00  0.1515152E-01 -0.1803021E-12  0.0000000E+00 -0.5528507E-04
  0.2070707E+00  0.0000000E+00  0.1515152E-01  0.8001392E-13  0.0000000E+00 -0.5528507E-04
  0.2171717E+00  0.0000000E+00  0.1515152E-01  0.1891087E-12  0.0000000E+00 -0.5528507E-04
  0.2272727E+00  0.0000000E+00  0.1515152E-01  0.6164597E-12  0.0000000E+00 -0.5528507E-04
  0.2373737E+00  0.0000000E+00  0.1515152E-01  0.9597174E-12  0.0000000E+00 -0.5528507E-04
  0.2474747E+00  0.0000000E+00  0.1515152E-01  0.1149562E-11  0.0000000E+00 -0.5528507E-04
  0.2575758E+00  0.0000000E+00  0.1515152E-01  0.1252306E-11  0.0000000E+00 -0.5528507E-04
  0.2676768E+00  0.0000000E+00  0.1515152E-01  0.1327611E-11  0.0000000E+00 -0.5528507E-04
  0.2777778E+00  0.0000000E+00  0.1515152E-01  0.1376478E-11  0.0000000E+00 -0.5528506E-04
  0.2878788E+00  0.0000000E+00  0.1515152E-01  0.1358994E-11  0.0000000E+00 -0.5528506E-04
  0.2979798E+00  0.0000000E+00  0.1515152E-01  0.1277504E-11  0.0000000E+00 -0.5528506E-04
  0.3080808E+00  0.0000000E+00  0.1515152E-01  0.1186796E-11  0.0000000E+00 -0.5528506E-04
  0.3181818E+00  0.0000000E+00  0.1515152E-01  0.1082563E-11  0.0000000E+00 -0.5528506E-04
  0.3282828E+00  0.0000000E+00  0.1515152E-01  0.9363848E-12  0.0000000E+00 -0.5528506E-04
  0.3383838E+00  0.0000000E+00  0.1515152E-01  0.7563132E-12  0.0000000E+00 -0.5528506E-04
  0.3484848E+00  0.0000000E+00  0.1515152E-01  0.5444899E-12  0.0000000E+00 -0.5528506E-04
  0.3585859E+00  0.0000000E+00  0.1515152E-01  0.2742025E-12  0.0000000E+00 -0.5528506E-04
  0.3686869E+00  0.0000000E+00  0.1515152E-01  0.5380240E-14  0.0000000E+00 -0.5528506E-04
  0.3787879E+00  0.0000000E+00  0.1515152E-01 -0.1500086E-12  0.0000000E+00 -0.5528506E-04
  0.3888889E+00  0.0000000E+00  0.1515152E-01 -0.4700723E-12  0.0000000E+00 -0.5528506E-04
  0.3989899E+00  0.0000000E+00  0.1515152E-01 -0.7150713E-12  0.0000000E+00 -0.5528506E-04
  0.4090909E+00  0.0000000E+00  0.1515152E-01 -0.8987830E-12  0.0000000E+00 -0.5528506E-04
  0.4191919E+00  0.0000000E+00  0.1515152E-01 -0.9015817E-12  0.0000000E+00 -0.5528506E-04
  0.4292929E+00  0.0000000E+00  0.1515152E-01 -0.8715476E-12  0.0000000E+00 -0.5528506E-04
  0.4393939E+00  0.0000000E+00  0.1515152E-01 -0.9601702E-12  0.0000000E+00 -0.5528506E-04
  0.4494950E+00  0.0000000E+00  0.1515152E-01 -0.9291794E-12  0.0000000E+00 -0.5528506E-04
  0.4595959E+00  0.0000000E+00  0.1515152E-01 -0.6474648E-12  0.0000000E+00 -0.5528506E-04
  0.4696970E+00  0.0000000E+00  0.1515152E-01 -0.3544703E-12  0.0000000E+00 -0.5528506E-04
  0.4797980E+00  0.0000000E+00  0.1515152E-01 -0.2231014E-12  0.0000000E+00 -0.5528506E-04
  0.4898990E+00  0.0000000E+00  0.1515152E-01 -0.4737133E-13  0.0000000E+00 -0.5528506E-04
  0.5000000E+00  0.0000000E+00  0.1515152E-01  0.2562960E-12  0.0000000E+00 -0.5528506E-04
  0.5101010E+00  0.0000000E+00  0.1515152E-01  0.4324875E-12  0.0000000E+00 -0.5528506E-04
  0.5202020E+00  0.0000000E+00  0.1515152E-01  0.7909103E-12  0.0000000E+00 -0.5528506E-04
  0.5303030E+00  0.0000000E+00  0.1515152E-01  0.1027383E-11  0.0000000E+00 -0.5528506E-04
  0.5404040E+00  0.0000000E+00  0.1515152E-01  0.1232123E-11  0.0000000E+00 -0.5528506E-04
  0.5505050E+00  0.0000000E+00  0.1515152E-01  0.1376824E-11  0.0000000E+00 -0.5528506E-04
  0.5606061E+00  0.0000000E+00  0.1515152E-01  0.1415791E-11  0.0000000E+00 -0.5528506E-04
  0.5707071E+00  0.0000000E+00  0.1515152E-01  0.1415346E-11  0.0000000E+00 -0.5528506E-04
  0.5808081E+00  0.0000000E+00  0.1515152E-01  0.1427851E-11  0.0000000E+00 -0.5528506E-04
  0.5909091E+00  0.0000000E+00  0.1515152E-01  0.1370172E-11  0.0000000E+00 -0.5528506E-04
  0.6010101E+00  0.0000000E+00  0.1515152E-01  0.1268607E-11  0.0000000E+00 -0.5528506E-04
  0.6111111E+00  0.0000000E+00  0.1515152E-01  0.1166363E-11  0.0000000E+00 -0.5528506E-04
  0.6212121E+00  0.0000000E+00  0.1515152E-01  0.1006431E-11  0.0000000E+00 -0.5528505E-04
  0.6313131E+00  0.0000000E+00  0.1515152E-01  0.7979531E-12  0.0000000E+00 -0.5528505E-04
  0.6414142E+00  0.0000000E+00  0.1515152E-01  0.5966267E-12  0.0000000E+00 -0.5528505E-04
  0.6515151E+00  0.0000000E+00  0.1515152E-01  0.4050009E-12  0.0000000E+00 -0.5528505E-04
  0.6616161E+00  0.0000000E+00  0.1515152E-01  0.1587580E-12  0.0000000E+00 -0.5528505E-04
  0.6717172E+00  0.0000000E+00  0.1515152E-01 -0.1265219E-12  0.0000000E+00 -0.5528505E-04
  0.6818182E+00  0.0000000E+00  0.1515152E-01 -0.5288344E-12  0.0000000E+00 -0.5528505E-04
  0.6919192E+00  0.0000000E+00  0.1515152E-01 -0.8239663E-12  0.0000000E+00 -0.5528505E-04
  0.7020202E+00  0.0000000E+00  0.1515152E-01 -0.1075995E-11  0.0000000E+00 -0.5528505E-04
  0.7121212E+00  0.0000000E+00  0.1515152E-01 -0.1284449E-11  0.0000000E+00 -0.5528505E-04
  0.7222222E+00  0.0000000E+00  0.1515152E-01 -0.1400860E-11  0.0000000E+00 -0.5528506E-04
  0.7323232E+00  0.0000000E+00  0.1515152E-01 -0.1454781E-11  0.0000000E+00 -0.5528506E-04
  0.7424242E+00  0.0000000E+00  0.1515152E-01 -0.1503093E-11  0.0000000E+00 -0.5528506E-04
  0.7525253E+00  0.0000000E+00  0.1515152E-01 -0.1577544E-11  0.0000000E+00 -0.5528506E-04
  0.7626263E+00  0.0000000E+00  0.1515152E-01 -0.1586518E-11  0.0000000E+00 -0.5528506E-04
  0.7727273E+00  0.0000000E+00  0.1515152E-01 -0.1516926E-11  0.0000000E+00 -0.5528506E-04
  0.7828283E+00  0.0000000E+00  0.1515152E-01 -0.1438386E-11  0.0000000E+00 -0.5528506E-04
  0.7929293E+00  0.0000000E+00  0.1515152E-01 -0.1357274E-11  0.0000000E+00 -0.5528506E-04
  0.8030303E+00  0.0000000E+00  0.1515152E-01 -0.1223052E-11  0.0000000E+00 -0.5528506E-04
  0.8131313E+00  0.0000000E+00  0.1515152E-01 -0.1022400E-11  0.0000000E+00 -0.5528506E-04
  0.8232324E+00  0.0000000E+00  0.1515152E-01 -0.7888550E-12  0.0000000E+00 -0.5528507E-04
  0.8333333E+00  0.0000000E+00  0.1515152E-01 -0.5589277E-12  0.0000000E+00 -0.5528507E-04
  0.8434343E+00  0.0000000E+00  0.1515152E-01 -0.3382846E-12  0.0000000E+00 -0.5528507E-04
  0.8535354E+00  0.0000000E+00  0.1515152E-01 -0.1049892E-12  0.0000000E+00 -0.5528507E-04
  0.8636364E+00  0.0000000E+00  0.1515152E-01  0.8395469E-13  0.0000000E+00 -0.5528507E-04
  0.8737374E+00  0.0000000E+00  0.1515152E-01  0.4686126E-12  0.0000000E+00 -0.5528507E-04
  0.8838384E+00  0.0000000E+00  0.1515152E-01  0.7978623E-12  0.0000000E+00 -0.5528507E-04
  0.8939394E+00  0.0000000E+00  0.1515152E-01  0.1022376E-11  0.0000000E+00 -0.5528506E-04
  0.9040404E+00  0.0000000E+00  0.1515152E-01  0.1128032E-11  0.0000000E+00 -0.5528506E-04
  0.9141414E+00  0.0000000E+00  0.1515152E-01  0.1196428E-11  0.0000000E+00 -0.5528506E-04
  0.9242424E+00  0.0000000E+00  0.1515152E-01  0.1266056E-11  0.0000000E+00 -0.5528506E-04
  0.9343435E+00  0.0000000E+00  0.1515152E-01  0.1224828E-11  0.0000000E+00 -0.5528506E-04
  0.9444444E+00  0.0000000E+00  0.1515152E-01  0.1101340E-11  0.0000000E+00 -0.5528506E-04
  0.9545454E+00  0.0000000E+00  0.1515152E-01  0.1026440E-11  0.0000000E+00 -0.5528506E-04
  0.9646465E+00  0.0000000E+00  0.1515152E-01  0.9519017E-12  0.0000000E+00 -0.5528506E-04
  0.9747475E+00  0.0000000E+00  0.1515152E-01  0.7872651E-12  0.0000000E+00 -0.5528506E-04
  0.9848485E+00  0.0000000E+00  0.1515152E-01  0.5776061E-12  0.0000000E+00 -0.5528506E-04
  0.9974747E+00  0.0000000E+00  0.1515152E-01  0.3394736E-12  0.0000000E+00 -0.5528506E-04
  0.5050505E-02  0.0000000E+00  0.2525252E-01 -0.2738552E-13  0.0000000E+00 -0.5477423E-04
  0.1515152E-01  0.0000000E+00  0.2525252E-01 -0.9542725E-13  0.0000000E+00 -0.5477423E-04
  0.2525252E-01  0.0000000E+00  0.2525252E-01 -0.9467430E-12  0.0000000E+00 -0.5477423E-04
  0.3535353E-01  0.0000000E+00  0.2525252E-01 -0.1615451E-11  0.0000000E+00 -0.5477423E-04
  0.4545455E-01  0.0000000E+00  0.2525252E-01 -0.2050670E-11  0.0000000E+00 -0.5477424E-04
  0.5555556E-01  0.0000000E+00  0.2525252E-01 -0.2351015E-11  0.0000000E+00 -0.5477424E-04
  0.6565657E-01  0.0000000E+00  0.2525252E-01 -0.2544513E-11  0.0000000E+00 -0.5477424E-04
  0.7575758E-01  0.0000000E+00  0.2525252E-01 -0.2686096E-11  0.0000000E+00 -0.5477424E-04
  0.8585858E-01  0.0000000E+00  0.2525252E-01 -0.2768276E-11  0.0000000E+00 -0.5477424E-04
  0.9595960E-01  0.0000000E+00  0.2525252E-01 -0.2804447E-11  0.0000000E+00 -0.5477424E-04
  0.1060606E+00  0.0000000E+00  0.2525252E-01 -0.2798295E-11  0.0000000E+00 -0.5477424E-04
  0.1161616E+00  0.0000000E+00  0.2525252E-01 -0.2741104E-11  0.0000000E+00 -0.5477424E-04
  0.1262626E+00  0.0000000E+00  0.2525252E-01 -0.2639171E-11  0.0000000E+00 -0.5477424E-04
  0.1363636E+00  0.0000000E+00  0.2525252E-01 -0.2481026E-11  0.0000000E+00 -0.5477424E-04
  0.1464646E+00  0.0000000E+00  0.2525252E-01 -0.2254297E-11  0.0000000E+00 -0.5477425E-04
  0.1565657E+00  0.0000000E+00  0.2525252E-01 -0.1952677E-11  0.0000000E+00 -0.5477425E-04
  0.1666667E+00  0.0000000E+00  0.2525252E-01 -0.1583031E-11  0.0000000E+00 -0.5477425E-04
  0.1767677E+00  0.0000000E+00  0.2525252E-01 -0.1161256E-11  0.0000000E+00 -0.5477425E-04
  0.1868687E+00  0.0000000E+00  0.2525252E-01 -0.7028105E-12  0.0000000E+00 -0.5477425E-04
  0.1969697E+00  0.0000000E+00  0.2525252E-01 -0.1635902E-12  0.0000000E+00 -0.5477425E-04
  0.2070707E+00  0.0000000E+00  0.2525252E-01  0.1883980E-12  0.0000000E+00 -0.5477425E-04
  0.2171717E+00  0.0000000E+00  0.2525252E-01  0.1511934E-12  0.0000000E+00 -0.5477425E-04
  0.2272727E+00  0.0000000E+00  0.2525252E-01  0.8924161E-12  0.0000000E+00 -0.5477425E-04
  0.2373737E+00  0.0000000E+00  0.2525252E-01  0.1534523E-11  0.0000000E+00 -0.5477425E-04
  0.2474747E+00  0.0000000E+00  0.2525252E-01  0.1926509E-11  0.0000000E+00 -0.5477425E-04
  0.2575758E+00  0.0000000E+00  0.2525252E-01  0.2110601E-11  0.0000000E+00 -0.5477425E-04
  0.2676768E+00  0.0000000E+00  0.2525252E-01  0.2196581E-11  0.0000000E+00 -0.5477425E-04
  0.2777778E+00  0.0000000E+00  0.2525252E-01  0.2265515E-11  0.0000000E+00 -0.5477424E-04
  0.2878788E+00  0.0000000E+00  0.2525252E-01  0.2280225E-11  0.0000000E+00 -0.5477424E-04
  0.2979798E+00  0.0000000E+00  0.2525252E-01  0.2166955E-11  0.0000000E+00 -0.5477424E-04
  0.3080808E+00  0.0000000E+00  0.2525252E-01  0.1981863E-11  0.0000000E+00 -0.5477424E-04
  0.3181818E+00  0.0000000E+00  0.2525252E-01  0.1769797E-11  0.0000000E+00 -0.5477424E-04
  0.3282828E+00  0.0000000E+00  0.2525252E-01  0.1513052E-11  0.0000000E+00 -0.5477424E-04
  0.3383838E+00  0.0000000E+00  0.2525252E-01  0.1216223E-11  0.0000000E+00 -0.5477424E-04
  0.3484848E+00  0.0000000E+00  0.2525252E-01  0.8658857E-12  0.0000000E+00 -0.5477424E-04
  0.3585859E+00  0.0000000E+00  0.2525252E-01  0.3272643E-12  0.0000000E+00 -0.5477424E-04
  0.3686869E+00  0.0000000E+00  0.2525252E-01 -0.7955406E-13  0.0000000E+00 -0.5477424E-04
  0.3787879E+00  0.0000000E+00  0.2525252E-01 -0.1410470E-12  0.0000000E+00 -0.5477424E-04
  0.3888889E+00  0.0000000E+00  0.2525252E-01 -0.6922806E-12  0.0000000E+00 -0.5477424E-04
  0.3989899E+00  0.0000000E+00  0.2525252E-01 -0.1021722E-11  0.0000000E+00 -0.5477424E-04
  0.4090909E+00  0.0000000E+00  0.2525252E-01 -0.1503347E-11  0.0000000E+00 -0.5477424E-04
  0.4191919E+00  0.0000000E+00  0.2525252E-01 -0.1654668E-11  0.0000000E+00 -0.5477424E-04
  0.4292929E+00  0.0000000E+00  0.2525252E-01 -0.1465972E-11  0.0000000E+00 -0.5477424E-04
  0.4393939E+00  0.0000000E+00  0.2525252E-01 -0.1422462E-11  0.0000000E+00 -0.5477424E-04
  0.4494950E+00  0.0000000E+00  0.2525252E-01 -0.1489740E-11  0.0000000E+00 -0.5477424E-04
  0.4595959E+00  0.0000000E+00  0.2525252E-01 -0.1218105E-11  0.0000000E+00 -0.5477424E-04
  0.4696970E+00  0.0000000E+00  0.2525252E-01 -0.6239029E-12  0.0000000E+00 -0.5477424E-04
  0.4797980E+00  0.0000000E+00  0.2525252E-01 -0.1763654E-12  0.0000000E+00 -0.5477424E-04
  0.4898990E+00  0.0000000E+00  0.2525252E-01  0.1446430E-12  0.0000000E+00 -0.5477424E-04
  0.5000000E+00  0.0000000E+00  0.2525252E-01  0.4097027E-12  0.0000000E+00 -0.5477424E-04
  0.5101010E+00  0.0000000E+00  0.2525252E-01  0.4867616E-12  0.0000000E+00 -0.5477424E-04
  0.5202020E+00  0.0000000E+00  0.2525252E-01  0.1238240E-11  0.0000000E+00 -0.5477424E-04
  0.5303030E+00  0.0000000E+00  0.2525252E-01  0.1704580E-11  0.0000000E+00 -0.5477424E-04
  0.5404040E+00  0.0000000E+00  0.2525252E-01  0.2010007E-11  0.0000000E+00 -0.5477424E-04
  0.5505050E+00  0.0000000E+00  0.2525252E-01  0.2262159E-11  0.0000000E+00 -0.5477424E-04
  0.5606061E+00  0.0000000E+00  0.2525252E-01  0.2375400E-11  0.0000000E+00 -0.5477424E-04
  0.5707071E+00  0.0000000E+00  0.2525252E-01  0.2362232E-11  0.0000000E+00 -0.5477424E-04
  0.5808081E+00  0.0000000E+00  0.2525252E-01  0.2366868E-11  0.0000000E+00 -0.5477424E-04
  0.5909091E+00  0.0000000E+00  0.2525252E-01  0.2292811E-11  0.0000000E+00 -0.5477424E-04
  0.6010101E+00  0.0000000E+00  0.2525252E-01  0.2107562E-11  0.0000000E+00 -0.5477424E-04
  0.6111111E+00  0.0000000E+00  0.2525252E-01  0.1912941E-11  0.0000000E+00 -0.5477424E-04
  0.6212121E+00  0.0000000E+00  0.2525252E-01  0.1656665E-11  0.0000000E+00 -0.5477423E-04
  0.6313131E+00  0.0000000E+00  0.2525252E-01  0.1296176E-11  0.0000000E+00 -0.5477423E-04
  0.6414142E+00  0.0000000E+00  0.2525252E-01  0.9110318E-12  0.0000000E+00 -0.5477423E-04
  0.6515151E+00  0.0000000E+00  0.2525252E-01  0.5666301E-12  0.0000000E+00 -0.5477423E-04
  0.6616161E+00  0.0000000E+00  0.2525252E-01  0.1285636E-12  0.0000000E+00 -0.5477423E-04
  0.6717172E+00  0.0000000E+00  0.2525252E-01 -0.7347600E-13  0.0000000E+00 -0.5477423E-04
  0.6818182E+00  0.0000000E+00  0.2525252E-01 -0.7451964E-12  0.0000000E+00 -0.5477423E-04
  0.6919192E+00  0.0000000E+00  0.2525252E-01 -0.1303880E-11  0.0000000E+00 -0.5477423E-04
  0.7020202E+00  0.0000000E+00  0.2525252E-01 -0.1723323E-11  0.0000000E+00 -0.5477423E-04
  0.7121212E+00  0.0000000E+00  0.2525252E-01 -0.2093802E-11  0.0000000E+00 -0.5477424E-04
  0.7222222E+00  0.0000000E+00  0.2525252E-01 -0.2361207E-11  0.0000000E+00 -0.5477424E-04
  0.7323232E+00  0.0000000E+00  0.2525252E-01 -0.2484192E-11  0.0000000E+00 -0.5477424E-04
  0.7424242E+00  0.0000000E+00  0.2525252E-01 -0.2505508E-11  0.0000000E+00 -0.5477424E-04
  0.7525253E+00  0.0000000E+00  0.2525252E-01 -0.2579854E-11  0.0000000E+00 -0.5477424E-04
  0.7626263E+00  0.0000000E+00  0.2525252E-01 -0.2638865E-11  0.0000000E+00 -0.5477424E-04
  0.7727273E+00  0.0000000E+00  0.2525252E-01 -0.2567285E-11  0.0000000E+00 -0.5477424E-04
  0.7828283E+00  0.0000000E+00  0.2525252E-01 -0.2407863E-11  0.0000000E+00 -0.5477424E-04
  0.7929293E+00  0.0000000E+00  0.2525252E-01 -0.2233448E-11  0.0000000E+00 -0.5477424E-04
  0.8030303E+00  0.0000000E+00  0.2525252E-01 -0.2012871E-11  0.0000000E+00 -0.5477424E-04
  0.8131313E+00  0.0000000E+00  0.2525252E-01 -0.1688439E-11  0.0000000E+00 -0.5477424E-04
  0.8232324E+00  0.0000000E+00  0.2525252E-01 -0.1271629E-11  0.0000000E+00 -0.5477425E-04
  0.8333333E+00  0.0000000E+00  0.2525252E-01 -0.8416340E-12  0.0000000E+00 -0.5477425E-04
  0.8434343E+00  0.0000000E+00  0.2525252E-01 -0.4564571E-12  0.0000000E+00 -0.5477425E-04
  0.8535354E+00  0.0000000E+00  0.2525252E-01 -0.5508539E-13  0.0000000E+00 -0.5477425E-04
  0.8636364E+00  0.0000000E+00  0.2525252E-01 -0.1999021E-13  0.0000000E+00 -0.5477425E-04
  0.8737374E+00  0.0000000E+00  0.2525252E-01  0.6661950E-12  0.0000000E+00 -0.5477425E-04
  0.8838384E+00  0.0000000E+00  0.2525252E-01  0.1254706E-11  0.0000000E+00 -0.5477425E-04
  0.8939394E+00  0.0000000E+00  0.2525252E-01  0.1683887E-11  0.0000000E+00 -0.5477424E-04
  0.9040404E+00  0.0000000E+00  0.2525252E-01  0.1896152E-11  0.0000000E+00 -0.5477424E-04
  0.9141414E+00  0.0000000E+00  0.2525252E-01  0.1967070E-11  0.0000000E+00 -0.5477424E-04
  0.9242424E+00  0.0000000E+00  0.2525252E-01  0.2078757E-11  0.0000000E+00 -0.5477424E-04
  0.9343435E+00  0.0000000E+00  0.2525252E-01  0.2096414E-11  0.0000000E+00 -0.5477424E-04
  0.9444444E+00  0.0000000E+00  0.2525252E-01  0.1887667E-11  0.0000000E+00 -0.5477424E-04
  0.9545454E+00  0.0000000E+00  0.2525252E-01  0.1644262E-11  0.0000000E+00 -0.5477424E-04
  0.9646465E+00  0.0000000E+00  0.2525252E-01  0.1477466E-11  0.0000000E+00 -0.5477424E-04
  0.9747475E+00  0.0000000E+00  0.2525252E-01  0.1252759E-11  0.0000000E+00 -0.5477424E-04
  0.9848485E+00  0.0000000E+00  0.2525252E-01  0.9074903E-12  0.0000000E+00 -0.5477424E-04
  0.9974747E+00  0.0000000E+00  0.2525252E-01  0.3193840E-12  0.0000000E+00 -0.5477424E-04
  0.5050505E-02  0.0000000E+00  0.3535353E-01 -0.7117838E-13  0.0000000E+00 -0.5401650E-04
  0.1515152E-01  0.0000000E+00  0.3535353E-01  0.3843752E-13  0.0000000E+00 -0.5401650E-04
  0.2525252E-01  0.0000000E+00  0.3535353E-01 -0.1187850E-11  0.0000000E+00 -0.5401650E-04
  0.3535353E-01  0.0000000E+00  0.3535353E-01 -0.2199074E-11  0.0000000E+00 -0.5401650E-04
  0.4545455E-01  0.0000000E+00  0.3535353E-01 -0.2850179E-11  0.0000000E+00 -0.5401650E-04
  0.5555556E-01  0.0000000E+00  0.3535353E-01 -0.3288136E-11  0.0000000E+00 -0.5401650E-04
  0.6565657E-01  0.0000000E+00  0.3535353E-01 -0.3562846E-11  0.0000000E+00 -0.5401650E-04
  0.7575758E-01  0.0000000E+00  0.3535353E-01 -0.3754450E-11  0.0000000E+00 -0.5401650E-04
  0.8585858E-01  0.0000000E+00  0.3535353E-01 -0.3866607E-11  0.0000000E+00 -0.5401650E-04
  0.9595960E-01  0.0000000E+00  0.3535353E-01 -0.3914881E-11  0.0000000E+00 -0.5401650E-04
  0.1060606E+00  0.0000000E+00  0.3535353E-01 -0.3906453E-11  0.0000000E+00 -0.5401650E-04
  0.1161616E+00  0.0000000E+00  0.3535353E-01 -0.3827329E-11  0.0000000E+00 -0.5401651E-04
  0.1262626E+00  0.0000000E+00  0.3535353E-01 -0.3682428E-11  0.0000000E+00 -0.5401651E-04
  0.1363636E+00  0.0000000E+00  0.3535353E-01 -0.3460880E-11  0.0000000E+00 -0.5401651E-04
  0.1464646E+00  0.0000000E+00  0.3535353E-01 -0.3140933E-11  0.0000000E+00 -0.5401651E-04
  0.1565657E+00  0.0000000E+00  0.3535353E-01 -0.2698350E-11  0.0000000E+00 -0.5401651E-04
  0.1666667E+00  0.0000000E+00  0.3535353E-01 -0.2132861E-11  0.0000000E+00 -0.5401651E-04
  0.1767677E+00  0.0000000E+00  0.3535353E-01 -0.1478479E-11  0.0000000E+00 -0.5401651E-04
  0.1868687E+00  0.0000000E+00  0.3535353E-01 -0.7953717E-12  0.0000000E+00 -0.5401651E-04
  0.1969697E+00  0.0000000E+00  0.3535353E-01 -0.1126660E-12  0.0000000E+00 -0.5401651E-04
  0.2070707E+00  0.0000000E+00  0.3535353E-01  0.2788016E-12  0.0000000E+00 -0.5401651E-04
  0.2171717E+00  0.0000000E+00  0.3535353E-01 -0.1135595E-13  0.0000000E+00 -0.5401651E-04
  0.2272727E+00  0.0000000E+00  0.3535353E-01  0.1073237E-11  0.0000000E+00 -0.5401651E-04
  0.2373737E+00  0.0000000E+00  0.3535353E-01  0.2025380E-11  0.0000000E+00 -0.5401651E-04
  0.2474747E+00  0.0000000E+00  0.3535353E-01  0.2668807E-11  0.0000000E+00 -0.5401651E-04
  0.2575758E+00  0.0000000E+00  0.3535353E-01  0.3007919E-11  0.0000000E+00 -0.5401651E-04
  0.2676768E+00  0.0000000E+00  0.3535353E-01  0.3113585E-11  0.0000000E+00 -0.5401651E-04
  0.2777778E+00  0.0000000E+00  0.3535353E-01  0.3140073E-11  0.0000000E+00 -0.5401651E-04
  0.2878788E+00  0.0000000E+00  0.3535353E-01  0.3163308E-11  0.0000000E+00 -0.5401651E-04
  0.2979798E+00  0.0000000E+00  0.3535353E-01  0.3062114E-11  0.0000000E+00 -0.5401651E-04