title = "dataset water"
variables = "x", "y", "z", "h_w", "p_w", "s_w", "theta_w", "transp", "evap", "transp2", "transp_tot"
zone t = "Flow variables, solution time =  6.000E+01 days        " i =  100, j =  100, k =    1,  f=point
  0.0000000E+00  0.0000000E+00  0.0000000E+00 -0.1000000E+02 -0.1000000E+02  0.4298033E+00  0.1839558E+00  0.0000000E+00  0.0000000E+00  0.0000000E+00  0.0000000E+00
  0.1010101E-01  0.0000000E+00  0.0000000E+00 -0.1000000E+02 -0.1000000E+02  0.4298033E+00  0.1839558E+00  0.0000000E+00  0.0000000E+00  0.0000000E+00  0.0000000E+00
  0.2020202E-01  0.0000000E+00  0.0000000E+00 -0.1000000E+02 -0.1000000E+02  0.4298033E+00  0.1839558E+00  0.0000000E+00  0.0000000E+00  0.0000000E+00  0.0000000E+00
  0.3030303E-01  0.0000000E+00  0.0000000E+00 -0.1000000E+02 -0.1000000E+02  0.4298033E+00  0.1839558E+00  0.0000000E+00  0.0000000E+00  0.0000000E+00  0.0000000E+00
  0.4040404E-01  0.0000000E+00  0.0000000E+00 -0.1000000E+02 -0.1000000E+02  0.4298033E+00  0.1839558E+00  0.0000000E+00  0.0000000E+00  0.0000000E+00  0.0000000E+00
  0.5050505E-01  0.0000000E+00  0.0000000E+00 -0.1000000E+02 -0.1000000E+02  0.4298033E+00  0.1839558E+00  0.0000000E+00  0.0000000E+00  0.0000000E+00  0.0000000E+00
  0.6060606E-01  0.0000000E+00  0.0000000E+00 -0.1000000E+02 -0.1000000E+02  0.4298033E+00  0.1839558E+00  0.0000000E+00  0.0000000E+00  0.0000000E+00  0.0000000E+00
  0.7070707E-01  0.0000000E+00  0.0000000E+00 -0.1000000E+02 -0.1000000E+02  0.4298033E+00  0.1839558E+00  0.0000000E+00  0.0000000E+00  0.0000000E+00  0.0000000E+00
  0.8080808E-01  0.0000000E+00  0.0000000E+00 -0.1000000E+02 -0.1000000E+02  0.4298033E+00  0.1839558E+00  0.0000000E+00  0.0000000E+00  0.0000000E+00  0.0000000E+00
  0.9090909E-01  0.0000000E+00  0.0000000E+00 -0.1000000E+02 -0.1000000E+02  0.4298033E+00  0.1839558E+00  0.0000000E+00  0.0000000E+00  0.0000000E+00  0.0000000E+00
  0.1010101E+00  0.0000000E+00  0.0000000E+00 -0.1000000E+02 -0.1000000E+02  0.4298033E+00  0.1839558E+00  0.0000000E+00  0.0000000E+00  0.0000000E+00  0.0000000E+00
  0.1111111E+00  0.0000000E+00  0.0000000E+00 -0.1000000E+02 -0.1000000E+02  0.4298033E+00  0.1839558E+00  0.0000000E+00  0.0000000E+00  0.0000000E+00  0.0000000E+00
  0.1212121E+00  0.0000000E+00  0.0000000E+00 -0.1000000E+02 -0.1000000E+02  0.4298033E+00  0.1839558E+00  0.0000000E+00  0.0000000E+00  0.0000000E+00  0.0000000E+00
  0.1313131E+00  0.0000000E+00  0.0000000E+00 -0.1000000E+02 -0.1000000E+02  0.4298033E+00  0.1839558E+00  0.0000000E+00  0.0000000E+00  0.0000000E+00  0.0000000E+00
  0.1414141E+00  0.0000000E+00  0.0000000E+00 -0.1000000E+02 -0.1000000E+02  0.4298033E+00  0.1839558E+00  0.0000000E+00  0.0000000E+00  0.0000000E+00  0.0000000E+00
  0.1515152E+00  0.0000000E+00  0.0000000E+00 -0.1000000E+02 -0.1000000E+02  0.4298033E+00  0.1839558E+00  0.0000000E+00  0.0000000E+00  0.0000000E+00  0.0000000E+00
  0.1616162E+00  0.0000000E+00  0.0000000E+00 -0.1000000E+02 -0.1000000E+02  0.4298033E+00  0.1839558E+00  0.0000000E+00  0.0000000E+00  0.0000000E+00  0.0000000E+00
  0.1717172E+00  0.0000000E+00  0.0000000E+00 -0.1000000E+02 -0.1000000E+02  0.4298033E+00  0.1839558E+00  0.0000000E+00  0.0000000E+00  0.0000000E+00  0.0000000E+00
  0.1818182E+00  0.0000000E+00  0.0000000E+00 -0.1000000E+02 -0.1000000E+02  0.4298033E+00  0.1839558E+00  0.3978060E-11  0.0000000E+00  0.0000000E+00  0.3978060E-11
  0.1919192E+00  0.0000000E+00  0.0000000E+00 -0.1000000E+02 -0.1000000E+02  0.4298033E+00  0.1839558E+00  0.0000000E+00  0.0000000E+00  0.0000000E+00  0.0000000E+00
  0.2020202E+00  0.0000000E+00  0.0000000E+00 -0.1000000E+02 -0.1000000E+02  0.4298033E+00  0.1839558E+00  0.0000000E+00  0.0000000E+00  0.0000000E+00  0.0000000E+00
  0.2121212E+00  0.0000000E+00  0.0000000E+00 -0.1000000E+02 -0.1000000E+02  0.4298033E+00  0.1839558E+00  0.0000000E+00  0.0000000E+00  0.0000000E+00  0.0000000E+00
  0.2222222E+00  0.0000000E+00  0.0000000E+00 -0.1000000E+02 -0.1000000E+02  0.4298033E+00  0.1839558E+00  0.0000000E+00  0.0000000E+00  0.0000000E+00  0.0000000E+00
  0.2323232E+00  0.0000000E+00  0.0000000E+00 -0.1000000E+02 -0.1000000E+02  0.4298033E+00  0.1839558E+00  0.0000000E+00  0.0000000E+00  0.0000000E+00  0.0000000E+00
  0.2424242E+00  0.0000000E+00  0.0000000E+00 -0.1000000E+02 -0.1000000E+02  0.4298033E+00  0.1839558E+00  0.0000000E+00  0.0000000E+00  0.0000000E+00  0.0000000E+00
  0.2525253E+00  0.0000000E+00  0.0000000E+00 -0.1000000E+02 -0.1000000E+02  0.4298033E+00  0.1839558E+00  0.0000000E+00  0.0000000E+00  0.0000000E+00  0.0000000E+00
  0.2626263E+00  0.0000000E+00  0.0000000E+00 -0.1000000E+02 -0.1000000E+02  0.4298033E+00  0.1839558E+00  0.0000000E+00  0.0000000E+00  0.0000000E+00  0.0000000E+00
  0.2727273E+00  0.0000000E+00  0.0000000E+00 -0.1000000E+02 -0.1000000E+02  0.4298033E+00  0.1839558E+00  0.0000000E+00  0.0000000E+00  0.0000000E+00  0.0000000E+00
  0.2828283E+00  0.0000000E+00  0.0000000E+00 -0.1000000E+02 -0.1000000E+02  0.4298033E+00  0.1839558E+00  0.0000000E+00  0.0000000E+00  0.0000000E+00  0.0000000E+00
  0.2929293E+00  0.0000000E+00  0.0000000E+00 -0.1000000E+02 -0.1000000E+02  0.4298033E+00  0.1839558E+00  0.0000000E+00  0.0000000E+00  0.0000000E+00  0.0000000E+00
  0.3030303E+00  0.0000000E+00  0.0000000E+00 -0.1000000E+02 -0.1000000E+02  0.4298033E+00  0.1839558E+00  0.0000000E+00  0.0000000E+00  0.0000000E+00  0.0000000E+00
  0.3131313E+00  0.0000000E+00  0.0000000E+00 -0.1000000E+02 -0.1000000E+02  0.4298033E+00  0.1839558E+00  0.0000000E+00  0.0000000E+00  0.0000000E+00  0.0000000E+00
  0.3232323E+00  0.0000000E+00  0.0000000E+00 -0.1000000E+02 -0.1000000E+02  0.4298033E+00  0.1839558E+00  0.0000000E+00  0.0000000E+00  0.0000000E+00  0.0000000E+00
  0.3333333E+00  0.0000000E+00  0.0000000E+00 -0.1000000E+02 -0.1000000E+02  0.4298033E+00  0.1839558E+00  0.0000000E+00  0.0000000E+00  0.0000000E+00  0.0000000E+00
  0.3434343E+00  0.0000000E+00  0.0000000E+00 -0.1000000E+02 -0.1000000E+02  0.4298033E+00  0.1839558E+00  0.0000000E+00  0.0000000E+00  0.0000000E+00  0.0000000E+00
  0.3535354E+00  0.0000000E+00  0.0000000E+00 -0.1000000E+02 -0.1000000E+02  0.4298033E+00  0.1839558E+00  0.0000000E+00  0.0000000E+00  0.0000000E+00  0.0000000E+00
  0.3636364E+00  0.0000000E+00  0.0000000E+00 -0.1000000E+02 -0.1000000E+02  0.4298033E+00  0.1839558E+00  0.0000000E+00  0.0000000E+00  0.0000000E+00  0.0000000E+00
  0.3737374E+00  0.0000000E+00  0.0000000E+00 -0.1000000E+02 -0.1000000E+02  0.4298033E+00  0.1839558E+00  0.0000000E+00  0.0000000E+00  0.0000000E+00  0.0000000E+00
  0.3838384E+00  0.0000000E+00  0.0000000E+00 -0.1000000E+02 -0.1000000E+02  0.4298033E+00  0.1839558E+00  0.0000000E+00  0.0000000E+00  0.0000000E+00  0.0000000E+00
  0.3939394E+00  0.0000000E+00  0.0000000E+00 -0.1000000E+02 -0.1000000E+02  0.4298033E+00  0.1839558E+00  0.0000000E+00  0.0000000E+00  0.0000000E+00  0.0000000E+00
  0.4040404E+00  0.0000000E+00  0.0000000E+00 -0.1000000E+02 -0.1000000E+02  0.4298033E+00  0.1839558E+00  0.0000000E+00  0.0000000E+00  0.0000000E+00  0.0000000E+00
  0.4141414E+00  0.0000000E+00  0.0000000E+00 -0.1000000E+02 -0.1000000E+02  0.4298033E+00  0.1839558E+00  0.0000000E+00  0.0000000E+00  0.0000000E+00  0.0000000E+00
  0.4242424E+00  0.0000000E+00  0.0000000E+00 -0.1000000E+02 -0.1000000E+02  0.4298033E+00  0.1839558E+00  0.0000000E+00  0.0000000E+00  0.0000000E+00  0.0000000E+00
  0.4343434E+00  0.0000000E+00  0.0000000E+00 -0.1000000E+02 -0.1000000E+02  0.4298033E+00  0.1839558E+00  0.0000000E+00  0.0000000E+00  0.0000000E+00  0.0000000E+00
  0.4444444E+00  0.0000000E+00  0.0000000E+00 -0.1000000E+02 -0.1000000E+02  0.4298033E+00  0.1839558E+00  0.0000000E+00  0.0000000E+00  0.0000000E+00  0.0000000E+00
  0.4545455E+00  0.0000000E+00  0.0000000E+00 -0.1000000E+02 -0.1000000E+02  0.4298033E+00  0.1839558E+00  0.0000000E+00  0.0000000E+00  0.0000000E+00  0.0000000E+00
  0.4646465E+00  0.0000000E+00  0.0000000E+00 -0.1000000E+02 -0.1000000E+02  0.4298033E+00  0.1839558E+00  0.0000000E+00  0.0000000E+00  0.0000000E+00  0.0000000E+00
  0.4747475E+00  0.0000000E+00  0.0000000E+00 -0.1000000E+02 -0.1000000E+02  0.4298033E+00  0.1839558E+00  0.0000000E+00  0.0000000E+00  0.0000000E+00  0.0000000E+00
  0.4848485E+00  0.0000000E+00  0.0000000E+00 -0.1000000E+02 -0.1000000E+02  0.4298033E+00  0.1839558E+00  0.0000000E+00  0.0000000E+00  0.0000000E+00  0.0000000E+00
  0.4949495E+00  0.0000000E+00  0.0000000E+00 -0.1000000E+02 -0.1000000E+02  0.4298033E+00  0.1839558E+00  0.0000000E+00  0.0000000E+00  0.0000000E+00  0.0000000E+00
  0.5050505E+00  0.0000000E+00  0.0000000E+00 -0.1000000E+02 -0.1000000E+02  0.4298033E+00  0.1839558E+00  0.0000000E+00  0.0000000E+00  0.0000000E+00  0.0000000E+00
  0.5151515E+00  0.0000000E+00  0.0000000E+00 -0.1000000E+02 -0.1000000E+02  0.4298033E+00  0.1839558E+00  0.0000000E+00  0.0000000E+00  0.0000000E+00  0.0000000E+00
  0.5252525E+00  0.0000000E+00  0.0000000E+00 -0.1000000E+02 -0.1000000E+02  0.4298033E+00  0.1839558E+00  0.0000000E+00  0.0000000E+00  0.0000000E+00  0.0000000E+00
  0.5353535E+00  0.0000000E+00  0.0000000E+00 -0.1000000E+02 -0.1000000E+02  0.4298033E+00  0.1839558E+00  0.0000000E+00  0.0000000E+00  0.0000000E+00  0.0000000E+00
  0.5454545E+00  0.0000000E+00  0.0000000E+00 -0.1000000E+02 -0.1000000E+02  0.4298033E+00  0.1839558E+00  0.0000000E+00  0.0000000E+00  0.0000000E+00  0.0000000E+00
  0.5555556E+00  0.0000000E+00  0.0000000E+00 -0.1000000E+02 -0.1000000E+02  0.4298033E+00  0.1839558E+00  0.0000000E+00  0.0000000E+00  0.0000000E+00  0.0000000E+00
  0.5656566E+00  0.0000000E+00  0.0000000E+00 -0.1000000E+02 -0.1000000E+02  0.4298033E+00  0.1839558E+00  0.0000000E+00  0.0000000E+00  0.0000000E+00  0.0000000E+00
  0.5757576E+00  0.0000000E+00  0.0000000E+00 -0.1000000E+02 -0.1000000E+02  0.4298033E+00  0.1839558E+00  0.0000000E+00  0.0000000E+00  0.0000000E+00  0.0000000E+00
  0.5858586E+00  0.0000000E+00  0.0000000E+00 -0.1000000E+02 -0.1000000E+02  0.4298033E+00  0.1839558E+00  0.0000000E+00  0.0000000E+00  0.0000000E+00  0.0000000E+00
  0.5959596E+00  0.0000000E+00  0.0000000E+00 -0.1000000E+02 -0.1000000E+02  0.4298033E+00  0.1839558E+00  0.0000000E+00  0.0000000E+00  0.0000000E+00  0.0000000E+00
  0.6060606E+00  0.0000000E+00  0.0000000E+00 -0.1000000E+02 -0.1000000E+02  0.4298033E+00  0.1839558E+00  0.0000000E+00  0.0000000E+00  0.0000000E+00  0.0000000E+00
  0.6161616E+00  0.0000000E+00  0.0000000E+00 -0.1000000E+02 -0.1000000E+02  0.4298033E+00  0.1839558E+00  0.0000000E+00  0.0000000E+00  0.0000000E+00  0.0000000E+00
  0.6262626E+00  0.0000000E+00  0.0000000E+00 -0.1000000E+02 -0.1000000E+02  0.4298033E+00  0.1839558E+00  0.0000000E+00  0.0000000E+00  0.0000000E+00  0.0000000E+00
  0.6363636E+00  0.0000000E+00  0.0000000E+00 -0.1000000E+02 -0.1000000E+02  0.4298033E+00  0.1839558E+00  0.0000000E+00  0.0000000E+00  0.0000000E+00  0.0000000E+00
  0.6464646E+00  0.0000000E+00  0.0000000E+00 -0.1000000E+02 -0.1000000E+02  0.4298033E+00  0.1839558E+00  0.0000000E+00  0.0000000E+00  0.0000000E+00  0.0000000E+00
  0.6565657E+00  0.0000000E+00  0.0000000E+00 -0.1000000E+02 -0.1000000E+02  0.4298033E+00  0.1839558E+00  0.0000000E+00  0.0000000E+00  0.0000000E+00  0.0000000E+00
  0.6666667E+00  0.0000000E+00  0.0000000E+00 -0.1000000E+02 -0.1000000E+02  0.4298033E+00  0.1839558E+00  0.0000000E+00  0.0000000E+00  0.0000000E+00  0.0000000E+00
  0.6767677E+00  0.0000000E+00  0.0000000E+00 -0.1000000E+02 -0.1000000E+02  0.4298033E+00  0.1839558E+00  0.0000000E+00  0.0000000E+00  0.0000000E+00  0.0000000E+00
  0.6868687E+00  0.0000000E+00  0.0000000E+00 -0.1000000E+02 -0.1000000E+02  0.4298033E+00  0.1839558E+00  0.0000000E+00  0.0000000E+00  0.0000000E+00  0.0000000E+00
  0.6969697E+00  0.0000000E+00  0.0000000E+00 -0.1000000E+02 -0.1000000E+02  0.4298033E+00  0.1839558E+00  0.0000000E+00  0.0000000E+00  0.0000000E+00  0.0000000E+00
  0.7070707E+00  0.0000000E+00  0.0000000E+00 -0.1000000E+02 -0.1000000E+02  0.4298033E+00  0.1839558E+00  0.0000000E+00  0.0000000E+00  0.0000000E+00  0.0000000E+00
  0.7171717E+00  0.0000000E+00  0.0000000E+00 -0.1000000E+02 -0.1000000E+02  0.4298033E+00  0.1839558E+00  0.0000000E+00  0.0000000E+00  0.0000000E+00  0.0000000E+00
  0.7272727E+00  0.0000000E+00  0.0000000E+00 -0.1000000E+02 -0.1000000E+02  0.4298033E+00  0.1839558E+00  0.0000000E+00  0.0000000E+00  0.0000000E+00  0.0000000E+00
  0.7373737E+00  0.0000000E+00  0.0000000E+00 -0.1000000E+02 -0.1000000E+02  0.4298033E+00  0.1839558E+00  0.0000000E+00  0.0000000E+00  0.0000000E+00  0.0000000E+00
  0.7474747E+00  0.0000000E+00  0.0000000E+00 -0.1000000E+02 -0.1000000E+02  0.4298033E+00  0.1839558E+00  0.0000000E+00  0.0000000E+00  0.0000000E+00  0.0000000E+00
  0.7575758E+00  0.0000000E+00  0.0000000E+00 -0.1000000E+02 -0.1000000E+02  0.4298033E+00  0.1839558E+00  0.0000000E+00  0.0000000E+00  0.0000000E+00  0.0000000E+00
  0.7676768E+00  0.0000000E+00  0.0000000E+00 -0.1000000E+02 -0.1000000E+02  0.4298033E+00  0.1839558E+00  0.0000000E+00  0.0000000E+00  0.0000000E+00  0.0000000E+00
  0.7777778E+00  0.0000000E+00  0.0000000E+00 -0.1000000E+02 -0.1000000E+02  0.4298033E+00  0.1839558E+00  0.0000000E+00  0.0000000E+00  0.0000000E+00  0.0000000E+00
  0.7878788E+00  0.0000000E+00  0.0000000E+00 -0.1000000E+02 -0.1000000E+02  0.4298033E+00  0.1839558E+00  0.0000000E+00  0.0000000E+00  0.0000000E+00  0.0000000E+00
  0.7979798E+00  0.0000000E+00  0.0000000E+00 -0.1000000E+02 -0.1000000E+02  0.4298033E+00  0.1839558E+00  0.0000000E+00  0.0000000E+00  0.0000000E+00  0.0000000E+00
  0.8080808E+00  0.0000000E+00  0.0000000E+00 -0.1000000E+02 -0.1000000E+02  0.4298033E+00  0.1839558E+00  0.0000000E+00  0.0000000E+00  0.0000000E+00  0.0000000E+00
  0.8181818E+00  0.0000000E+00  0.0000000E+00 -0.1000000E+02 -0.1000000E+02  0.4298033E+00  0.1839558E+00  0.0000000E+00  0.0000000E+00  0.0000000E+00  0.0000000E+00
  0.8282828E+00  0.0000000E+00  0.0000000E+00 -0.1000000E+02 -0.1000000E+02  0.4298033E+00  0.1839558E+00  0.0000000E+00  0.0000000E+00  0.0000000E+00  0.0000000E+00
  0.8383838E+00  0.0000000E+00  0.0000000E+00 -0.1000000E+02 -0.1000000E+02  0.4298033E+00  0.1839558E+00  0.0000000E+00  0.0000000E+00  0.0000000E+00  0.0000000E+00
  0.8484848E+00  0.0000000E+00  0.0000000E+00 -0.1000000E+02 -0.1000000E+02  0.4298033E+00  0.1839558E+00  0.0000000E+00  0.0000000E+00  0.0000000E+00  0.0000000E+00
  0.8585859E+00  0.0000000E+00  0.0000000E+00 -0.1000000E+02 -0.1000000E+02  0.4298033E+00  0.1839558E+00  0.0000000E+00  0.0000000E+00  0.0000000E+00  0.0000000E+00
  0.8686869E+00  0.0000000E+00  0.0000000E+00 -0.1000000E+02 -0.1000000E+02  0.4298033E+00  0.1839558E+00  0.0000000E+00  0.0000000E+00  0.0000000E+00  0.0000000E+00
  0.8787879E+00  0.0000000E+00  0.0000000E+00 -0.1000000E+02 -0.1000000E+02  0.4298033E+00  0.1839558E+00  0.0000000E+00  0.0000000E+00  0.0000000E+00  0.0000000E+00
  0.8888889E+00  0.0000000E+00  0.0000000E+00 -0.1000000E+02 -0.1000000E+02  0.4298033E+00  0.1839558E+00  0.0000000E+00  0.0000000E+00  0.0000000E+00  0.0000000E+00
  0.8989899E+00  0.0000000E+00  0.0000000E+00 -0.1000000E+02 -0.1000000E+02  0.4298033E+00  0.1839558E+00  0.0000000E+00  0.0000000E+00  0.0000000E+00  0.0000000E+00
  0.9090909E+00  0.0000000E+00  0.0000000E+00 -0.1000000E+02 -0.1000000E+02  0.4298033E+00  0.1839558E+00  0.0000000E+00  0.0000000E+00  0.0000000E+00  0.0000000E+00
  0.9191919E+00  0.0000000E+00  0.0000000E+00 -0.1000000E+02 -0.1000000E+02  0.4298033E+00  0.1839558E+00  0.0000000E+00  0.0000000E+00  0.0000000E+00  0.0000000E+00
  0.9292929E+00  0.0000000E+00  0.0000000E+00 -0.1000000E+02 -0.1000000E+02  0.4298033E+00  0.1839558E+00  0.0000000E+00  0.0000000E+00  0.0000000E+00  0.0000000E+00
  0.9393939E+00  0.0000000E+00  0.0000000E+00 -0.1000000E+02 -0.1000000E+02  0.4298033E+00  0.1839558E+00  0.0000000E+00  0.0000000E+00  0.0000000E+00  0.0000000E+00
  0.9494949E+00  0.0000000E+00  0.0000000E+00 -0.1000000E+02 -0.1000000E+02  0.4298033E+00  0.1839558E+00  0.0000000E+00  0.0000000E+00  0.0000000E+00  0.0000000E+00
  0.9595960E+00  0.0000000E+00  0.0000000E+00 -0.1000000E+02 -0.1000000E+02  0.4298033E+00  0.1839558E+00  0.0000000E+00  0.0000000E+00  0.0000000E+00  0.0000000E+00
  0.9696970E+00  0.0000000E+00  0.0000000E+00 -0.1000000E+02 -0.1000000E+02  0.4298033E+00  0.1839558E+00  0.0000000E+00  0.0000000E+00  0.0000000E+00  0.0000000E+00
  0.9797980E+00  0.0000000E+00  0.0000000E+00 -0.1000000E+02 -0.1000000E+02  0.4298033E+00  0.1839558E+00  0.0000000E+00  0.0000000E+00  0.0000000E+00  0.0000000E+00
  0.9898990E+00  0.0000000E+00  0.0000000E+00 -0.1000000E+02 -0.1000000E+02  0.4298033E+00  0.1839558E+00  0.0000000E+00  0.0000000E+00  0.0000000E+00  0.0000000E+00
  0.1000000E+01  0.0000000E+00  0.0000000E+00 -0.1000000E+02 -0.1000000E+02  0.4298033E+00  0.1839558E+00  0.0000000E+00  0.0000000E+00  0.0000000E+00  0.0000000E+00
  0.0000000E+00  0.0000000E+00  0.1010101E-01 -0.1006329E+02 -0.1007339E+02  0.4288414E+00  0.1835441E+00  0.0000000E+00  0.0000000E+00  0.0000000E+00  0.0000000E+00
  0.1010101E-01  0.0000000E+00  0.1010101E-01 -0.1006342E+02 -0.1007352E+02  0.4288397E+00  0.1835434E+00  0.0000000E+00  0.0000000E+00  0.0000000E+00  0.0000000E+00
  0.2020202E-01  0.0000000E+00  0.1010101E-01 -0.1006381E+02 -0.1007392E+02  0.4288346E+00  0.1835412E+00  0.0000000E+00  0.0000000E+00  0.0000000E+00  0.0000000E+00
  0.3030303E-01  0.0000000E+00  0.1010101E-01 -0.1006447E+02 -0.1007457E+02  0.4288260E+00  0.1835375E+00  0.0000000E+00  0.0000000E+00  0.0000000E+00  0.0000000E+00
  0.4040404E-01  0.0000000E+00  0.1010101E-01 -0.1006540E+02 -0.1007550E+02  0.4288139E+00  0.1835323E+00  0.0000000E+00  0.0000000E+00  0.0000000E+00  0.0000000E+00
  0.5050505E-01  0.0000000E+00  0.1010101E-01 -0.1006661E+02 -0.1007671E+02  0.4287981E+00  0.1835256E+00  0.0000000E+00  0.0000000E+00  0.0000000E+00  0.0000000E+00
  0.6060606E-01  0.0000000E+00  0.1010101E-01 -0.1006810E+02 -0.1007821E+02  0.4287786E+00  0.1835173E+00  0.0000000E+00  0.0000000E+00  0.0000000E+00  0.0000000E+00
  0.7070707E-01  0.0000000E+00  0.1010101E-01 -0.1006990E+02 -0.1008000E+02  0.4287552E+00  0.1835072E+00  0.0000000E+00  0.0000000E+00  0.0000000E+00  0.0000000E+00
  0.8080808E-01  0.0000000E+00  0.1010101E-01 -0.1007201E+02 -0.1008211E+02  0.4287277E+00  0.1834955E+00  0.0000000E+00  0.0000000E+00  0.0000000E+00  0.0000000E+00
  0.9090909E-01  0.0000000E+00  0.1010101E-01 -0.1007446E+02 -0.1008456E+02  0.4286959E+00  0.1834818E+00  0.0000000E+00  0.0000000E+00  0.0000000E+00  0.0000000E+00
  0.1010101E+00  0.0000000E+00  0.1010101E-01 -0.1007726E+02 -0.1008736E+02  0.4286594E+00  0.1834662E+00  0.0000000E+00  0.0000000E+00  0.0000000E+00  0.0000000E+00
  0.1111111E+00  0.0000000E+00  0.1010101E-01 -0.1008044E+02 -0.1009054E+02  0.4286180E+00  0.1834485E+00  0.0000000E+00  0.0000000E+00  0.0000000E+00  0.0000000E+00
  0.1212121E+00  0.0000000E+00  0.1010101E-01 -0.1008403E+02 -0.1009413E+02  0.4285713E+00  0.1834285E+00  0.0000000E+00  0.0000000E+00  0.0000000E+00  0.0000000E+00
  0.1313131E+00  0.0000000E+00  0.1010101E-01 -0.1008808E+02 -0.1009818E+02  0.4285186E+00  0.1834060E+00  0.0000000E+00  0.0000000E+00  0.0000000E+00  0.0000000E+00
  0.1414141E+00  0.0000000E+00  0.1010101E-01 -0.1009267E+02 -0.1010277E+02  0.4284590E+00  0.1833804E+00  0.0000000E+00  0.0000000E+00  0.0000000E+00  0.0000000E+00
  0.1515152E+00  0.0000000E+00  0.1010101E-01 -0.1009795E+02 -0.1010805E+02  0.4283904E+00  0.1833511E+00  0.0000000E+00  0.0000000E+00  0.0000000E+00  0.0000000E+00
  0.1616162E+00  0.0000000E+00  0.1010101E-01 -0.1010429E+02 -0.1011439E+02  0.4283081E+00  0.1833159E+00  0.0000000E+00  0.0000000E+00  0.0000000E+00  0.0000000E+00
  0.1717172E+00  0.0000000E+00  0.1010101E-01 -0.1011259E+02 -0.1012269E+02  0.4282005E+00  0.1832698E+00  0.0000000E+00  0.0000000E+00  0.0000000E+00  0.0000000E+00
  0.1818182E+00  0.0000000E+00  0.1010101E-01 -0.1012530E+02 -0.1013540E+02  0.4280359E+00  0.1831993E+00  0.7912101E-11  0.0000000E+00  0.0000000E+00  0.7912101E-11
  0.1919192E+00  0.0000000E+00  0.1010101E-01 -0.1011976E+02 -0.1012986E+02  0.4281077E+00  0.1832301E+00  0.0000000E+00  0.0000000E+00  0.0000000E+00  0.0000000E+00
  0.2020202E+00  0.0000000E+00  0.1010101E-01 -0.1011719E+02 -0.1012729E+02  0.4281409E+00  0.1832443E+00  0.0000000E+00  0.0000000E+00  0.0000000E+00  0.0000000E+00
  0.2121212E+00  0.0000000E+00  0.1010101E-01 -0.1011563E+02 -0.1012573E+02  0.4281611E+00  0.1832530E+00  0.0000000E+00  0.0000000E+00  0.0000000E+00  0.0000000E+00
  0.2222222E+00  0.0000000E+00  0.1010101E-01 -0.1011455E+02 -0.1012465E+02  0.4281750E+00  0.1832589E+00  0.0000000E+00  0.0000000E+00  0.0000000E+00  0.0000000E+00
  0.2323232E+00  0.0000000E+00  0.1010101E-01 -0.1011381E+02 -0.1012391E+02  0.4281846E+00  0.1832630E+00  0.0000000E+00  0.0000000E+00  0.0000000E+00  0.0000000E+00
  0.2424242E+00  0.0000000E+00  0.1010101E-01 -0.1011336E+02 -0.1012346E+02  0.4281905E+00  0.1832655E+00  0.0000000E+00  0.0000000E+00  0.0000000E+00  0.0000000E+00
  0.2525253E+00  0.0000000E+00  0.1010101E-01 -0.1011317E+02 -0.1012327E+02  0.4281930E+00  0.1832666E+00  0.0000000E+00  0.0000000E+00  0.0000000E+00  0.0000000E+00
  0.2626263E+00  0.0000000E+00  0.1010101E-01 -0.1011319E+02 -0.1012330E+02  0.4281926E+00  0.1832665E+00  0.0000000E+00  0.0000000E+00  0.0000000E+00  0.0000000E+00
  0.2727273E+00  0.0000000E+00  0.1010101E-01 -0.1011336E+02 -0.1012346E+02  0.4281905E+00  0.1832655E+00  0.0000000E+00  0.0000000E+00  0.0000000E+00  0.0000000E+00
  0.2828283E+00  0.0000000E+00  0.1010101E-01 -0.1011354E+02 -0.1012364E+02  0.4281882E+00  0.1832645E+00  0.0000000E+00  0.0000000E+00  0.0000000E+00  0.0000000E+00
  0.2929293E+00  0.0000000E+00  0.1010101E-01 -0.1011363E+02 -0.1012373E+02  0.4281870E+00  0.1832640E+00  0.0000000E+00  0.0000000E+00  0.0000000E+00  0.0000000E+00
  0.3030303E+00  0.0000000E+00  0.1010101E-01 -0.1011366E+02 -0.1012376E+02  0.4281866E+00  0.1832639E+00  0.0000000E+00  0.0000000E+00  0.0000000E+00  0.0000000E+00
  0.3131313E+00  0.0000000E+00  0.1010101E-01 -0.1011372E+02 -0.1012382E+02  0.4281859E+00  0.1832635E+00  0.0000000E+00  0.0000000E+00  0.0000000E+00  0.0000000E+00
  0.3232323E+00  0.0000000E+00  0.1010101E-01 -0.1011390E+02 -0.1012400E+02  0.4281835E+00  0.1832625E+00  0.0000000E+00  0.0000000E+00  0.0000000E+00  0.0000000E+00
  0.3333333E+00  0.0000000E+00  0.1010101E-01 -0.1011430E+02 -0.1012440E+02  0.4281784E+00  0.1832603E+00  0.0000000E+00  0.0000000E+00  0.0000000E+00  0.0000000E+00
  0.3434343E+00  0.0000000E+00  0.1010101E-01 -0.1011498E+02 -0.1012508E+02  0.4281695E+00  0.1832565E+00  0.0000000E+00  0.0000000E+00  0.0000000E+00  0.0000000E+00
  0.3535354E+00  0.0000000E+00  0.1010101E-01 -0.1011605E+02 -0.1012615E+02  0.4281556E+00  0.1832506E+00  0.0000000E+00  0.0000000E+00  0.0000000E+00  0.0000000E+00
  0.3636364E+00  0.0000000E+00  0.1010101E-01 -0.1011765E+02 -0.1012775E+02  0.4281349E+00  0.1832417E+00  0.0000000E+00  0.0000000E+00  0.0000000E+00  0.0000000E+00
  0.3737374E+00  0.0000000E+00  0.1010101E-01 -0.1012004E+02 -0.1013014E+02  0.4281040E+00  0.1832285E+00  0.0000000E+00  0.0000000E+00  0.0000000E+00  0.0000000E+00
  0.3838384E+00  0.0000000E+00  0.1010101E-01 -0.1012377E+02 -0.1013387E+02  0.4280557E+00  0.1832078E+00  0.0000000E+00  0.0000000E+00  0.0000000E+00  0.0000000E+00
  0.3939394E+00  0.0000000E+00  0.1010101E-01 -0.1013068E+02 -0.1014078E+02  0.4279663E+00  0.1831696E+00  0.7910386E-11  0.0000000E+00  0.0000000E+00  0.7910386E-11
  0.4040404E+00  0.0000000E+00  0.1010101E-01 -0.1011901E+02 -0.1012911E+02  0.4281173E+00  0.1832342E+00  0.0000000E+00  0.0000000E+00  0.0000000E+00  0.0000000E+00
  0.4141414E+00  0.0000000E+00  0.1010101E-01 -0.1011181E+02 -0.1012192E+02  0.4282105E+00  0.1832741E+00  0.0000000E+00  0.0000000E+00  0.0000000E+00  0.0000000E+00
  0.4242424E+00  0.0000000E+00  0.1010101E-01 -0.1010669E+02 -0.1011679E+02  0.4282770E+00  0.1833025E+00  0.0000000E+00  0.0000000E+00  0.0000000E+00  0.0000000E+00
  0.4343434E+00  0.0000000E+00  0.1010101E-01 -0.1010267E+02 -0.1011277E+02  0.4283291E+00  0.1833249E+00  0.0000000E+00  0.0000000E+00  0.0000000E+00  0.0000000E+00
  0.4444444E+00  0.0000000E+00  0.1010101E-01 -0.1009932E+02 -0.1010942E+02  0.4283726E+00  0.1833435E+00  0.0000000E+00  0.0000000E+00  0.0000000E+00  0.0000000E+00
  0.4545455E+00  0.0000000E+00  0.1010101E-01 -0.1009644E+02 -0.1010654E+02  0.4284100E+00  0.1833595E+00  0.0000000E+00  0.0000000E+00  0.0000000E+00  0.0000000E+00
  0.4646465E+00  0.0000000E+00  0.1010101E-01 -0.1009391E+02 -0.1010402E+02  0.4284428E+00  0.1833735E+00  0.0000000E+00  0.0000000E+00  0.0000000E+00  0.0000000E+00
  0.4747475E+00  0.0000000E+00  0.1010101E-01 -0.1009169E+02 -0.1010179E+02  0.4284717E+00  0.1833859E+00  0.0000000E+00  0.0000000E+00  0.0000000E+00  0.0000000E+00
  0.4848485E+00  0.0000000E+00  0.1010101E-01 -0.1008970E+02 -0.1009980E+02  0.4284975E+00  0.1833969E+00  0.0000000E+00  0.0000000E+00  0.0000000E+00  0.0000000E+00
  0.4949495E+00  0.0000000E+00  0.1010101E-01 -0.1008791E+02 -0.1009801E+02  0.4285208E+00  0.1834069E+00  0.0000000E+00  0.0000000E+00  0.0000000E+00  0.0000000E+00
  0.5050505E+00  0.0000000E+00  0.1010101E-01 -0.1008628E+02 -0.1009638E+02  0.4285420E+00  0.1834160E+00  0.0000000E+00  0.0000000E+00  0.0000000E+00  0.0000000E+00
  0.5151515E+00  0.0000000E+00  0.1010101E-01 -0.1008476E+02 -0.1009486E+02  0.4285617E+00  0.1834244E+00  0.0000000E+00  0.0000000E+00  0.0000000E+00  0.0000000E+00
  0.5252525E+00  0.0000000E+00  0.1010101E-01 -0.1008332E+02 -0.1009342E+02  0.4285805E+00  0.1834325E+00  0.0000000E+00  0.0000000E+00  0.0000000E+00  0.0000000E+00
  0.5353535E+00  0.0000000E+00  0.1010101E-01 -0.1008191E+02 -0.1009202E+02  0.4285988E+00  0.1834403E+00  0.0000000E+00  0.0000000E+00  0.0000000E+00  0.0000000E+00
  0.5454545E+00  0.0000000E+00  0.1010101E-01 -0.1008052E+02 -0.1009062E+02  0.4286170E+00  0.1834481E+00  0.0000000E+00  0.0000000E+00  0.0000000E+00  0.0000000E+00
  0.5555556E+00  0.0000000E+00  0.1010101E-01 -0.1007910E+02 -0.1008920E+02  0.4286354E+00  0.1834560E+00  0.0000000E+00  0.0000000E+00  0.0000000E+00  0.0000000E+00
  0.5656566E+00  0.0000000E+00  0.1010101E-01 -0.1007764E+02 -0.1008775E+02  0.4286544E+00  0.1834641E+00  0.0000000E+00  0.0000000E+00  0.0000000E+00  0.0000000E+00
  0.5757576E+00  0.0000000E+00  0.1010101E-01 -0.1007614E+02 -0.1008625E+02  0.4286739E+00  0.1834724E+00  0.0000000E+00  0.0000000E+00  0.0000000E+00  0.0000000E+00
  0.5858586E+00  0.0000000E+00  0.1010101E-01 -0.1007459E+02 -0.1008470E+02  0.4286941E+00  0.1834811E+00  0.0000000E+00  0.0000000E+00  0.0000000E+00  0.0000000E+00
  0.5959596E+00  0.0000000E+00  0.1010101E-01 -0.1007300E+02 -0.1008310E+02  0.4287149E+00  0.1834900E+00  0.0000000E+00  0.0000000E+00  0.0000000E+00  0.0000000E+00
  0.6060606E+00  0.0000000E+00  0.1010101E-01 -0.1007136E+02 -0.1008146E+02  0.4287362E+00  0.1834991E+00  0.0000000E+00  0.0000000E+00  0.0000000E+00  0.0000000E+00
  0.6161616E+00  0.0000000E+00  0.1010101E-01 -0.1006969E+02 -0.1007979E+02  0.4287580E+00  0.1835084E+00  0.0000000E+00  0.0000000E+00  0.0000000E+00  0.0000000E+00
  0.6262626E+00  0.0000000E+00  0.1010101E-01 -0.1006799E+02 -0.1007810E+02  0.4287801E+00  0.1835179E+00  0.0000000E+00  0.0000000E+00  0.0000000E+00  0.0000000E+00
  0.6363636E+00  0.0000000E+00  0.1010101E-01 -0.1006629E+02 -0.1007639E+02  0.4288023E+00  0.1835274E+00  0.0000000E+00  0.0000000E+00  0.0000000E+00  0.0000000E+00
  0.6464646E+00  0.0000000E+00  0.1010101E-01 -0.1006458E+02 -0.1007469E+02  0.4288245E+00  0.1835369E+00  0.0000000E+00  0.0000000E+00  0.0000000E+00  0.0000000E+00
  0.6565657E+00  0.0000000E+00  0.1010101E-01 -0.1006289E+02 -0.1007299E+02  0.4288466E+00  0.1835463E+00  0.0000000E+00  0.0000000E+00  0.0000000E+00  0.0000000E+00
  0.6666667E+00  0.0000000E+00  0.1010101E-01 -0.1006122E+02 -0.1007132E+02  0.4288684E+00  0.1835557E+00  0.0000000E+00  0.0000000E+00  0.0000000E+00  0.0000000E+00
  0.6767677E+00  0.0000000E+00  0.1010101E-01 -0.1005958E+02 -0.1006968E+02  0.4288898E+00  0.1835648E+00  0.0000000E+00  0.0000000E+00  0.0000000E+00  0.0000000E+00
  0.6868687E+00  0.0000000E+00  0.1010101E-01 -0.1005797E+02 -0.1006808E+02  0.4289108E+00  0.1835738E+00  0.0000000E+00  0.0000000E+00  0.0000000E+00  0.0000000E+00
  0.6969697E+00  0.0000000E+00  0.1010101E-01 -0.1005642E+02 -0.1006652E+02  0.4289311E+00  0.1835825E+00  0.0000000E+00  0.0000000E+00  0.0000000E+00  0.0000000E+00
  0.7070707E+00  0.0000000E+00  0.1010101E-01 -0.1005491E+02 -0.1006501E+02  0.4289508E+00  0.1835909E+00  0.0000000E+00  0.0000000E+00  0.0000000E+00  0.0000000E+00
  0.7171717E+00  0.0000000E+00  0.1010101E-01 -0.1005345E+02 -0.1006355E+02  0.4289698E+00  0.1835991E+00  0.0000000E+00  0.0000000E+00  0.0000000E+00  0.0000000E+00
  0.7272727E+00  0.0000000E+00  0.1010101E-01 -0.1005205E+02 -0.1006215E+02  0.4289881E+00  0.1836069E+00  0.0000000E+00  0.0000000E+00  0.0000000E+00  0.0000000E+00
  0.7373737E+00  0.0000000E+00  0.1010101E-01 -0.1005071E+02 -0.1006082E+02  0.4290055E+00  0.1836144E+00  0.0000000E+00  0.0000000E+00  0.0000000E+00  0.0000000E+00
  0.7474747E+00  0.0000000E+00  0.1010101E-01 -0.1004944E+02 -0.1005954E+02  0.4290223E+00  0.1836215E+00  0.0000000E+00  0.0000000E+00  0.0000000E+00  0.0000000E+00
  0.7575758E+00  0.0000000E+00  0.1010101E-01 -0.1004822E+02 -0.1005832E+02  0.4290382E+00  0.1836283E+00  0.0000000E+00  0.0000000E+00  0.0000000E+00  0.0000000E+00
  0.7676768E+00  0.0000000E+00  0.1010101E-01 -0.1004706E+02 -0.1005716E+02  0.4290534E+00  0.1836348E+00  0.0000000E+00  0.0000000E+00  0.0000000E+00  0.0000000E+00
  0.7777778E+00  0.0000000E+00  0.1010101E-01 -0.1004595E+02 -0.1005605E+02  0.4290678E+00  0.1836410E+00  0.0000000E+00  0.0000000E+00  0.0000000E+00  0.0000000E+00
  0.7878788E+00  0.0000000E+00  0.1010101E-01 -0.1004491E+02 -0.1005501E+02  0.4290814E+00  0.1836468E+00  0.0000000E+00  0.0000000E+00  0.0000000E+00  0.0000000E+00