title = "dataset water"
variables = "x", "y", "z", "vx", "vy", "vz"
zone t = "velocities, solution time =  2.200E+01 days        " i =   99, j =   99, k =    1,  f=point
  0.5050505E-02  0.0000000E+00  0.5050505E-02  0.2004824E-11  0.0000000E+00 -0.1563419E-04
  0.1515152E-01  0.0000000E+00  0.5050505E-02  0.6161196E-11  0.0000000E+00 -0.1563419E-04
  0.2525252E-01  0.0000000E+00  0.5050505E-02  0.1030307E-10  0.0000000E+00 -0.1563417E-04
  0.3535353E-01  0.0000000E+00  0.5050505E-02  0.1439075E-10  0.0000000E+00 -0.1563415E-04
  0.4545455E-01  0.0000000E+00  0.5050505E-02  0.1840722E-10  0.0000000E+00 -0.1563411E-04
  0.5555556E-01  0.0000000E+00  0.5050505E-02  0.2236094E-10  0.0000000E+00 -0.1563407E-04
  0.6565657E-01  0.0000000E+00  0.5050505E-02  0.2621778E-10  0.0000000E+00 -0.1563402E-04
  0.7575758E-01  0.0000000E+00  0.5050505E-02  0.2997228E-10  0.0000000E+00 -0.1563397E-04
  0.8585858E-01  0.0000000E+00  0.5050505E-02  0.3360912E-10  0.0000000E+00 -0.1563390E-04
  0.9595960E-01  0.0000000E+00  0.5050505E-02  0.3710800E-10  0.0000000E+00 -0.1563383E-04
  0.1060606E+00  0.0000000E+00  0.5050505E-02  0.4045863E-10  0.0000000E+00 -0.1563375E-04
  0.1161616E+00  0.0000000E+00  0.5050505E-02  0.4364512E-10  0.0000000E+00 -0.1563367E-04
  0.1262626E+00  0.0000000E+00  0.5050505E-02  0.4665283E-10  0.0000000E+00 -0.1563358E-04
  0.1363636E+00  0.0000000E+00  0.5050505E-02  0.4946878E-10  0.0000000E+00 -0.1563348E-04
  0.1464646E+00  0.0000000E+00  0.5050505E-02  0.5207988E-10  0.0000000E+00 -0.1563338E-04
  0.1565657E+00  0.0000000E+00  0.5050505E-02  0.5447348E-10  0.0000000E+00 -0.1563327E-04
  0.1666667E+00  0.0000000E+00  0.5050505E-02  0.5663778E-10  0.0000000E+00 -0.1563316E-04
  0.1767677E+00  0.0000000E+00  0.5050505E-02  0.5856177E-10  0.0000000E+00 -0.1563305E-04
  0.1868687E+00  0.0000000E+00  0.5050505E-02  0.6023517E-10  0.0000000E+00 -0.1563293E-04
  0.1969697E+00  0.0000000E+00  0.5050505E-02  0.6164859E-10  0.0000000E+00 -0.1563281E-04
  0.2070707E+00  0.0000000E+00  0.5050505E-02  0.6279360E-10  0.0000000E+00 -0.1563268E-04
  0.2171717E+00  0.0000000E+00  0.5050505E-02  0.6366281E-10  0.0000000E+00 -0.1563256E-04
  0.2272727E+00  0.0000000E+00  0.5050505E-02  0.6424992E-10  0.0000000E+00 -0.1563243E-04
  0.2373737E+00  0.0000000E+00  0.5050505E-02  0.6454979E-10  0.0000000E+00 -0.1563230E-04
  0.2474747E+00  0.0000000E+00  0.5050505E-02  0.6455848E-10  0.0000000E+00 -0.1563217E-04
  0.2575758E+00  0.0000000E+00  0.5050505E-02  0.6427337E-10  0.0000000E+00 -0.1563204E-04
  0.2676768E+00  0.0000000E+00  0.5050505E-02  0.6369316E-10  0.0000000E+00 -0.1563191E-04
  0.2777778E+00  0.0000000E+00  0.5050505E-02  0.6281793E-10  0.0000000E+00 -0.1563178E-04
  0.2878788E+00  0.0000000E+00  0.5050505E-02  0.6164919E-10  0.0000000E+00 -0.1563166E-04
  0.2979798E+00  0.0000000E+00  0.5050505E-02  0.6018991E-10  0.0000000E+00 -0.1563154E-04
  0.3080808E+00  0.0000000E+00  0.5050505E-02  0.5844451E-10  0.0000000E+00 -0.1563142E-04
  0.3181818E+00  0.0000000E+00  0.5050505E-02  0.5641893E-10  0.0000000E+00 -0.1563130E-04
  0.3282828E+00  0.0000000E+00  0.5050505E-02  0.5412056E-10  0.0000000E+00 -0.1563119E-04
  0.3383838E+00  0.0000000E+00  0.5050505E-02  0.5155829E-10  0.0000000E+00 -0.1563109E-04
  0.3484848E+00  0.0000000E+00  0.5050505E-02  0.4874244E-10  0.0000000E+00 -0.1563099E-04
  0.3585859E+00  0.0000000E+00  0.5050505E-02  0.4568475E-10  0.0000000E+00 -0.1563089E-04
  0.3686869E+00  0.0000000E+00  0.5050505E-02  0.4239834E-10  0.0000000E+00 -0.1563080E-04
  0.3787879E+00  0.0000000E+00  0.5050505E-02  0.3889764E-10  0.0000000E+00 -0.1563072E-04
  0.3888889E+00  0.0000000E+00  0.5050505E-02  0.3519828E-10  0.0000000E+00 -0.1563065E-04
  0.3989899E+00  0.0000000E+00  0.5050505E-02  0.3131710E-10  0.0000000E+00 -0.1563058E-04
  0.4090909E+00  0.0000000E+00  0.5050505E-02  0.2727198E-10  0.0000000E+00 -0.1563052E-04
  0.4191919E+00  0.0000000E+00  0.5050505E-02  0.2308179E-10  0.0000000E+00 -0.1563047E-04
  0.4292929E+00  0.0000000E+00  0.5050505E-02  0.1876629E-10  0.0000000E+00 -0.1563043E-04
  0.4393939E+00  0.0000000E+00  0.5050505E-02  0.1434585E-10  0.0000000E+00 -0.1563040E-04
  0.4494950E+00  0.0000000E+00  0.5050505E-02  0.9841122E-11  0.0000000E+00 -0.1563037E-04
  0.4595959E+00  0.0000000E+00  0.5050505E-02  0.5273157E-11  0.0000000E+00 -0.1563036E-04
  0.4696970E+00  0.0000000E+00  0.5050505E-02  0.6631574E-12  0.0000000E+00 -0.1563035E-04
  0.4797980E+00  0.0000000E+00  0.5050505E-02 -0.3974159E-11  0.0000000E+00 -0.1563036E-04
  0.4898990E+00  0.0000000E+00  0.5050505E-02 -0.8616319E-11  0.0000000E+00 -0.1563037E-04
  0.5000000E+00  0.0000000E+00  0.5050505E-02 -0.1321431E-10  0.0000000E+00 -0.1563039E-04
  0.5101010E+00  0.0000000E+00  0.5050505E-02 -0.1777481E-10  0.0000000E+00 -0.1563042E-04
  0.5202020E+00  0.0000000E+00  0.5050505E-02 -0.2225972E-10  0.0000000E+00 -0.1563046E-04
  0.5303030E+00  0.0000000E+00  0.5050505E-02 -0.2667052E-10  0.0000000E+00 -0.1563051E-04
  0.5404040E+00  0.0000000E+00  0.5050505E-02 -0.3096770E-10  0.0000000E+00 -0.1563057E-04
  0.5505050E+00  0.0000000E+00  0.5050505E-02 -0.3514073E-10  0.0000000E+00 -0.1563063E-04
  0.5606061E+00  0.0000000E+00  0.5050505E-02 -0.3917176E-10  0.0000000E+00 -0.1563071E-04
  0.5707071E+00  0.0000000E+00  0.5050505E-02 -0.4303809E-10  0.0000000E+00 -0.1563079E-04
  0.5808081E+00  0.0000000E+00  0.5050505E-02 -0.4672772E-10  0.0000000E+00 -0.1563088E-04
  0.5909091E+00  0.0000000E+00  0.5050505E-02 -0.5022408E-10  0.0000000E+00 -0.1563098E-04
  0.6010101E+00  0.0000000E+00  0.5050505E-02 -0.5351263E-10  0.0000000E+00 -0.1563108E-04
  0.6111111E+00  0.0000000E+00  0.5050505E-02 -0.5658115E-10  0.0000000E+00 -0.1563119E-04
  0.6212121E+00  0.0000000E+00  0.5050505E-02 -0.5941817E-10  0.0000000E+00 -0.1563131E-04
  0.6313131E+00  0.0000000E+00  0.5050505E-02 -0.6201338E-10  0.0000000E+00 -0.1563143E-04
  0.6414142E+00  0.0000000E+00  0.5050505E-02 -0.6435800E-10  0.0000000E+00 -0.1563156E-04
  0.6515151E+00  0.0000000E+00  0.5050505E-02 -0.6644469E-10  0.0000000E+00 -0.1563169E-04
  0.6616161E+00  0.0000000E+00  0.5050505E-02 -0.6826737E-10  0.0000000E+00 -0.1563182E-04
  0.6717172E+00  0.0000000E+00  0.5050505E-02 -0.6982135E-10  0.0000000E+00 -0.1563196E-04
  0.6818182E+00  0.0000000E+00  0.5050505E-02 -0.7110328E-10  0.0000000E+00 -0.1563210E-04
  0.6919192E+00  0.0000000E+00  0.5050505E-02 -0.7211115E-10  0.0000000E+00 -0.1563225E-04
  0.7020202E+00  0.0000000E+00  0.5050505E-02 -0.7284417E-10  0.0000000E+00 -0.1563239E-04
  0.7121212E+00  0.0000000E+00  0.5050505E-02 -0.7330280E-10  0.0000000E+00 -0.1563254E-04
  0.7222222E+00  0.0000000E+00  0.5050505E-02 -0.7348866E-10  0.0000000E+00 -0.1563268E-04
  0.7323232E+00  0.0000000E+00  0.5050505E-02 -0.7340447E-10  0.0000000E+00 -0.1563283E-04
  0.7424242E+00  0.0000000E+00  0.5050505E-02 -0.7305398E-10  0.0000000E+00 -0.1563298E-04
  0.7525253E+00  0.0000000E+00  0.5050505E-02 -0.7244195E-10  0.0000000E+00 -0.1563312E-04
  0.7626263E+00  0.0000000E+00  0.5050505E-02 -0.7157399E-10  0.0000000E+00 -0.1563327E-04
  0.7727273E+00  0.0000000E+00  0.5050505E-02 -0.7045658E-10  0.0000000E+00 -0.1563341E-04
  0.7828283E+00  0.0000000E+00  0.5050505E-02 -0.6909694E-10  0.0000000E+00 -0.1563355E-04
  0.7929293E+00  0.0000000E+00  0.5050505E-02 -0.6750297E-10  0.0000000E+00 -0.1563369E-04
  0.8030303E+00  0.0000000E+00  0.5050505E-02 -0.6568319E-10  0.0000000E+00 -0.1563382E-04
  0.8131313E+00  0.0000000E+00  0.5050505E-02 -0.6364666E-10  0.0000000E+00 -0.1563395E-04
  0.8232324E+00  0.0000000E+00  0.5050505E-02 -0.6140294E-10  0.0000000E+00 -0.1563408E-04
  0.8333333E+00  0.0000000E+00  0.5050505E-02 -0.5896201E-10  0.0000000E+00 -0.1563420E-04
  0.8434343E+00  0.0000000E+00  0.5050505E-02 -0.5633418E-10  0.0000000E+00 -0.1563431E-04
  0.8535354E+00  0.0000000E+00  0.5050505E-02 -0.5353010E-10  0.0000000E+00 -0.1563442E-04
  0.8636364E+00  0.0000000E+00  0.5050505E-02 -0.5056064E-10  0.0000000E+00 -0.1563453E-04
  0.8737374E+00  0.0000000E+00  0.5050505E-02 -0.4743690E-10  0.0000000E+00 -0.1563462E-04
  0.8838384E+00  0.0000000E+00  0.5050505E-02 -0.4417012E-10  0.0000000E+00 -0.1563472E-04
  0.8939394E+00  0.0000000E+00  0.5050505E-02 -0.4077166E-10  0.0000000E+00 -0.1563480E-04
  0.9040404E+00  0.0000000E+00  0.5050505E-02 -0.3725298E-10  0.0000000E+00 -0.1563488E-04
  0.9141414E+00  0.0000000E+00  0.5050505E-02 -0.3362560E-10  0.0000000E+00 -0.1563495E-04
  0.9242424E+00  0.0000000E+00  0.5050505E-02 -0.2990107E-10  0.0000000E+00 -0.1563501E-04
  0.9343435E+00  0.0000000E+00  0.5050505E-02 -0.2609101E-10  0.0000000E+00 -0.1563507E-04
  0.9444444E+00  0.0000000E+00  0.5050505E-02 -0.2220709E-10  0.0000000E+00 -0.1563512E-04
  0.9545454E+00  0.0000000E+00  0.5050505E-02 -0.1826113E-10  0.0000000E+00 -0.1563516E-04
  0.9646465E+00  0.0000000E+00  0.5050505E-02 -0.1426524E-10  0.0000000E+00 -0.1563519E-04
  0.9747475E+00  0.0000000E+00  0.5050505E-02 -0.1023210E-10  0.0000000E+00 -0.1563522E-04
  0.9848485E+00  0.0000000E+00  0.5050505E-02 -0.6176341E-11  0.0000000E+00 -0.1563523E-04
  0.9974747E+00  0.0000000E+00  0.5050505E-02 -0.2119296E-11  0.0000000E+00 -0.1563524E-04
  0.5050505E-02  0.0000000E+00  0.1515152E-01  0.6073451E-11  0.0000000E+00 -0.1560575E-04
  0.1515152E-01  0.0000000E+00  0.1515152E-01  0.1855868E-10  0.0000000E+00 -0.1560574E-04
  0.2525252E-01  0.0000000E+00  0.1515152E-01  0.3100771E-10  0.0000000E+00 -0.1560572E-04
  0.3535353E-01  0.0000000E+00  0.1515152E-01  0.4330780E-10  0.0000000E+00 -0.1560570E-04
  0.4545455E-01  0.0000000E+00  0.1515152E-01  0.5539481E-10  0.0000000E+00 -0.1560566E-04
  0.5555556E-01  0.0000000E+00  0.1515152E-01  0.6728959E-10  0.0000000E+00 -0.1560562E-04
  0.6565657E-01  0.0000000E+00  0.1515152E-01  0.7889931E-10  0.0000000E+00 -0.1560557E-04
  0.7575758E-01  0.0000000E+00  0.1515152E-01  0.9019685E-10  0.0000000E+00 -0.1560551E-04
  0.8585858E-01  0.0000000E+00  0.1515152E-01  0.1011409E-09  0.0000000E+00 -0.1560545E-04
  0.9595960E-01  0.0000000E+00  0.1515152E-01  0.1116720E-09  0.0000000E+00 -0.1560538E-04
  0.1060606E+00  0.0000000E+00  0.1515152E-01  0.1217556E-09  0.0000000E+00 -0.1560530E-04
  0.1161616E+00  0.0000000E+00  0.1515152E-01  0.1313457E-09  0.0000000E+00 -0.1560521E-04
  0.1262626E+00  0.0000000E+00  0.1515152E-01  0.1403984E-09  0.0000000E+00 -0.1560512E-04
  0.1363636E+00  0.0000000E+00  0.1515152E-01  0.1488741E-09  0.0000000E+00 -0.1560503E-04
  0.1464646E+00  0.0000000E+00  0.1515152E-01  0.1567335E-09  0.0000000E+00 -0.1560492E-04
  0.1565657E+00  0.0000000E+00  0.1515152E-01  0.1639385E-09  0.0000000E+00 -0.1560481E-04
  0.1666667E+00  0.0000000E+00  0.1515152E-01  0.1704537E-09  0.0000000E+00 -0.1560470E-04
  0.1767677E+00  0.0000000E+00  0.1515152E-01  0.1762458E-09  0.0000000E+00 -0.1560458E-04
  0.1868687E+00  0.0000000E+00  0.1515152E-01  0.1812838E-09  0.0000000E+00 -0.1560446E-04
  0.1969697E+00  0.0000000E+00  0.1515152E-01  0.1855396E-09  0.0000000E+00 -0.1560434E-04
  0.2070707E+00  0.0000000E+00  0.1515152E-01  0.1889876E-09  0.0000000E+00 -0.1560421E-04
  0.2171717E+00  0.0000000E+00  0.1515152E-01  0.1916057E-09  0.0000000E+00 -0.1560409E-04
  0.2272727E+00  0.0000000E+00  0.1515152E-01  0.1933748E-09  0.0000000E+00 -0.1560396E-04
  0.2373737E+00  0.0000000E+00  0.1515152E-01  0.1942794E-09  0.0000000E+00 -0.1560383E-04
  0.2474747E+00  0.0000000E+00  0.1515152E-01  0.1943075E-09  0.0000000E+00 -0.1560369E-04
  0.2575758E+00  0.0000000E+00  0.1515152E-01  0.1934514E-09  0.0000000E+00 -0.1560356E-04
  0.2676768E+00  0.0000000E+00  0.1515152E-01  0.1917070E-09  0.0000000E+00 -0.1560343E-04
  0.2777778E+00  0.0000000E+00  0.1515152E-01  0.1890745E-09  0.0000000E+00 -0.1560331E-04
  0.2878788E+00  0.0000000E+00  0.1515152E-01  0.1855585E-09  0.0000000E+00 -0.1560318E-04
  0.2979798E+00  0.0000000E+00  0.1515152E-01  0.1811678E-09  0.0000000E+00 -0.1560306E-04
  0.3080808E+00  0.0000000E+00  0.1515152E-01  0.1759158E-09  0.0000000E+00 -0.1560293E-04
  0.3181818E+00  0.0000000E+00  0.1515152E-01  0.1698202E-09  0.0000000E+00 -0.1560282E-04
  0.3282828E+00  0.0000000E+00  0.1515152E-01  0.1629034E-09  0.0000000E+00 -0.1560271E-04
  0.3383838E+00  0.0000000E+00  0.1515152E-01  0.1551920E-09  0.0000000E+00 -0.1560260E-04
  0.3484848E+00  0.0000000E+00  0.1515152E-01  0.1467172E-09  0.0000000E+00 -0.1560250E-04
  0.3585859E+00  0.0000000E+00  0.1515152E-01  0.1375142E-09  0.0000000E+00 -0.1560240E-04
  0.3686869E+00  0.0000000E+00  0.1515152E-01  0.1276226E-09  0.0000000E+00 -0.1560231E-04
  0.3787879E+00  0.0000000E+00  0.1515152E-01  0.1170858E-09  0.0000000E+00 -0.1560223E-04
  0.3888889E+00  0.0000000E+00  0.1515152E-01  0.1059509E-09  0.0000000E+00 -0.1560215E-04
  0.3989899E+00  0.0000000E+00  0.1515152E-01  0.9426846E-10  0.0000000E+00 -0.1560209E-04
  0.4090909E+00  0.0000000E+00  0.1515152E-01  0.8209246E-10  0.0000000E+00 -0.1560203E-04
  0.4191919E+00  0.0000000E+00  0.1515152E-01  0.6947971E-10  0.0000000E+00 -0.1560198E-04
  0.4292929E+00  0.0000000E+00  0.1515152E-01  0.5648980E-10  0.0000000E+00 -0.1560193E-04
  0.4393939E+00  0.0000000E+00  0.1515152E-01  0.4318434E-10  0.0000000E+00 -0.1560190E-04
  0.4494950E+00  0.0000000E+00  0.1515152E-01  0.2962526E-10  0.0000000E+00 -0.1560188E-04
  0.4595959E+00  0.0000000E+00  0.1515152E-01  0.1587443E-10  0.0000000E+00 -0.1560186E-04
  0.4696970E+00  0.0000000E+00  0.1515152E-01  0.1992696E-11  0.0000000E+00 -0.1560185E-04
  0.4797980E+00  0.0000000E+00  0.1515152E-01 -0.1196059E-10  0.0000000E+00 -0.1560186E-04
  0.4898990E+00  0.0000000E+00  0.1515152E-01 -0.2592901E-10  0.0000000E+00 -0.1560187E-04
  0.5000000E+00  0.0000000E+00  0.1515152E-01 -0.3976796E-10  0.0000000E+00 -0.1560189E-04
  0.5101010E+00  0.0000000E+00  0.1515152E-01 -0.5349805E-10  0.0000000E+00 -0.1560192E-04
  0.5202020E+00  0.0000000E+00  0.1515152E-01 -0.6699868E-10  0.0000000E+00 -0.1560196E-04
  0.5303030E+00  0.0000000E+00  0.1515152E-01 -0.8027076E-10  0.0000000E+00 -0.1560201E-04
  0.5404040E+00  0.0000000E+00  0.1515152E-01 -0.9320676E-10  0.0000000E+00 -0.1560207E-04
  0.5505050E+00  0.0000000E+00  0.1515152E-01 -0.1057648E-09  0.0000000E+00 -0.1560214E-04
  0.5606061E+00  0.0000000E+00  0.1515152E-01 -0.1178953E-09  0.0000000E+00 -0.1560222E-04
  0.5707071E+00  0.0000000E+00  0.1515152E-01 -0.1295315E-09  0.0000000E+00 -0.1560230E-04
  0.5808081E+00  0.0000000E+00  0.1515152E-01 -0.1406341E-09  0.0000000E+00 -0.1560239E-04
  0.5909091E+00  0.0000000E+00  0.1515152E-01 -0.1511548E-09  0.0000000E+00 -0.1560249E-04
  0.6010101E+00  0.0000000E+00  0.1515152E-01 -0.1610501E-09  0.0000000E+00 -0.1560259E-04
  0.6111111E+00  0.0000000E+00  0.1515152E-01 -0.1702826E-09  0.0000000E+00 -0.1560270E-04
  0.6212121E+00  0.0000000E+00  0.1515152E-01 -0.1788179E-09  0.0000000E+00 -0.1560282E-04
  0.6313131E+00  0.0000000E+00  0.1515152E-01 -0.1866252E-09  0.0000000E+00 -0.1560295E-04
  0.6414142E+00  0.0000000E+00  0.1515152E-01 -0.1936781E-09  0.0000000E+00 -0.1560307E-04
  0.6515151E+00  0.0000000E+00  0.1515152E-01 -0.1999544E-09  0.0000000E+00 -0.1560321E-04
  0.6616161E+00  0.0000000E+00  0.1515152E-01 -0.2054360E-09  0.0000000E+00 -0.1560334E-04
  0.6717172E+00  0.0000000E+00  0.1515152E-01 -0.2101087E-09  0.0000000E+00 -0.1560348E-04
  0.6818182E+00  0.0000000E+00  0.1515152E-01 -0.2139625E-09  0.0000000E+00 -0.1560363E-04
  0.6919192E+00  0.0000000E+00  0.1515152E-01 -0.2169914E-09  0.0000000E+00 -0.1560377E-04
  0.7020202E+00  0.0000000E+00  0.1515152E-01 -0.2191932E-09  0.0000000E+00 -0.1560392E-04
  0.7121212E+00  0.0000000E+00  0.1515152E-01 -0.2205692E-09  0.0000000E+00 -0.1560407E-04
  0.7222222E+00  0.0000000E+00  0.1515152E-01 -0.2211244E-09  0.0000000E+00 -0.1560422E-04
  0.7323232E+00  0.0000000E+00  0.1515152E-01 -0.2208671E-09  0.0000000E+00 -0.1560436E-04
  0.7424242E+00  0.0000000E+00  0.1515152E-01 -0.2198085E-09  0.0000000E+00 -0.1560451E-04
  0.7525253E+00  0.0000000E+00  0.1515152E-01 -0.2179630E-09  0.0000000E+00 -0.1560466E-04
  0.7626263E+00  0.0000000E+00  0.1515152E-01 -0.2153476E-09  0.0000000E+00 -0.1560481E-04
  0.7727273E+00  0.0000000E+00  0.1515152E-01 -0.2119819E-09  0.0000000E+00 -0.1560495E-04
  0.7828283E+00  0.0000000E+00  0.1515152E-01 -0.2078875E-09  0.0000000E+00 -0.1560509E-04
  0.7929293E+00  0.0000000E+00  0.1515152E-01 -0.2030883E-09  0.0000000E+00 -0.1560523E-04
  0.8030303E+00  0.0000000E+00  0.1515152E-01 -0.1976101E-09  0.0000000E+00 -0.1560536E-04
  0.8131313E+00  0.0000000E+00  0.1515152E-01 -0.1914800E-09  0.0000000E+00 -0.1560550E-04
  0.8232324E+00  0.0000000E+00  0.1515152E-01 -0.1847269E-09  0.0000000E+00 -0.1560562E-04
  0.8333333E+00  0.0000000E+00  0.1515152E-01 -0.1773808E-09  0.0000000E+00 -0.1560574E-04
  0.8434343E+00  0.0000000E+00  0.1515152E-01 -0.1694727E-09  0.0000000E+00 -0.1560586E-04
  0.8535354E+00  0.0000000E+00  0.1515152E-01 -0.1610348E-09  0.0000000E+00 -0.1560597E-04
  0.8636364E+00  0.0000000E+00  0.1515152E-01 -0.1520997E-09  0.0000000E+00 -0.1560608E-04
  0.8737374E+00  0.0000000E+00  0.1515152E-01 -0.1427009E-09  0.0000000E+00 -0.1560618E-04
  0.8838384E+00  0.0000000E+00  0.1515152E-01 -0.1328721E-09  0.0000000E+00 -0.1560627E-04
  0.8939394E+00  0.0000000E+00  0.1515152E-01 -0.1226475E-09  0.0000000E+00 -0.1560636E-04
  0.9040404E+00  0.0000000E+00  0.1515152E-01 -0.1120615E-09  0.0000000E+00 -0.1560644E-04
  0.9141414E+00  0.0000000E+00  0.1515152E-01 -0.1011489E-09  0.0000000E+00 -0.1560651E-04
  0.9242424E+00  0.0000000E+00  0.1515152E-01 -0.8994420E-10  0.0000000E+00 -0.1560657E-04
  0.9343435E+00  0.0000000E+00  0.1515152E-01 -0.7848242E-10  0.0000000E+00 -0.1560663E-04
  0.9444444E+00  0.0000000E+00  0.1515152E-01 -0.6679851E-10  0.0000000E+00 -0.1560668E-04
  0.9545454E+00  0.0000000E+00  0.1515152E-01 -0.5492784E-10  0.0000000E+00 -0.1560672E-04
  0.9646465E+00  0.0000000E+00  0.1515152E-01 -0.4290657E-10  0.0000000E+00 -0.1560675E-04
  0.9747475E+00  0.0000000E+00  0.1515152E-01 -0.3077156E-10  0.0000000E+00 -0.1560678E-04
  0.9848485E+00  0.0000000E+00  0.1515152E-01 -0.1856168E-10  0.0000000E+00 -0.1560679E-04
  0.9974747E+00  0.0000000E+00  0.1515152E-01 -0.6325377E-11  0.0000000E+00 -0.1560680E-04
  0.5050505E-02  0.0000000E+00  0.2525252E-01  0.1025727E-10  0.0000000E+00 -0.1554899E-04
  0.1515152E-01  0.0000000E+00  0.2525252E-01  0.3117865E-10  0.0000000E+00 -0.1554898E-04
  0.2525252E-01  0.0000000E+00  0.2525252E-01  0.5204009E-10  0.0000000E+00 -0.1554897E-04
  0.3535353E-01  0.0000000E+00  0.2525252E-01  0.7267320E-10  0.0000000E+00 -0.1554894E-04
  0.4545455E-01  0.0000000E+00  0.2525252E-01  0.9295691E-10  0.0000000E+00 -0.1554891E-04
  0.5555556E-01  0.0000000E+00  0.2525252E-01  0.1129085E-09  0.0000000E+00 -0.1554886E-04
  0.6565657E-01  0.0000000E+00  0.2525252E-01  0.1323944E-09  0.0000000E+00 -0.1554881E-04
  0.7575758E-01  0.0000000E+00  0.2525252E-01  0.1513516E-09  0.0000000E+00 -0.1554876E-04
  0.8585858E-01  0.0000000E+00  0.2525252E-01  0.1697153E-09  0.0000000E+00 -0.1554869E-04
  0.9595960E-01  0.0000000E+00  0.2525252E-01  0.1873904E-09  0.0000000E+00 -0.1554862E-04
  0.1060606E+00  0.0000000E+00  0.2525252E-01  0.2043133E-09  0.0000000E+00 -0.1554854E-04
  0.1161616E+00  0.0000000E+00  0.2525252E-01  0.2204088E-09  0.0000000E+00 -0.1554845E-04
  0.1262626E+00  0.0000000E+00  0.2525252E-01  0.2356041E-09  0.0000000E+00 -0.1554835E-04
  0.1363636E+00  0.0000000E+00  0.2525252E-01  0.2498315E-09  0.0000000E+00 -0.1554825E-04
  0.1464646E+00  0.0000000E+00  0.2525252E-01  0.2630252E-09  0.0000000E+00 -0.1554815E-04
  0.1565657E+00  0.0000000E+00  0.2525252E-01  0.2751216E-09  0.0000000E+00 -0.1554804E-04
  0.1666667E+00  0.0000000E+00  0.2525252E-01  0.2860610E-09  0.0000000E+00 -0.1554792E-04
  0.1767677E+00  0.0000000E+00  0.2525252E-01  0.2957874E-09  0.0000000E+00 -0.1554780E-04
  0.1868687E+00  0.0000000E+00  0.2525252E-01  0.3042488E-09  0.0000000E+00 -0.1554768E-04
  0.1969697E+00  0.0000000E+00  0.2525252E-01  0.3113978E-09  0.0000000E+00 -0.1554755E-04
  0.2070707E+00  0.0000000E+00  0.2525252E-01  0.3171915E-09  0.0000000E+00 -0.1554742E-04
  0.2171717E+00  0.0000000E+00  0.2525252E-01  0.3215924E-09  0.0000000E+00 -0.1554729E-04
  0.2272727E+00  0.0000000E+00  0.2525252E-01  0.3245685E-09  0.0000000E+00 -0.1554716E-04
  0.2373737E+00  0.0000000E+00  0.2525252E-01  0.3260936E-09  0.0000000E+00 -0.1554702E-04
  0.2474747E+00  0.0000000E+00  0.2525252E-01  0.3261477E-09  0.0000000E+00 -0.1554689E-04
  0.2575758E+00  0.0000000E+00  0.2525252E-01  0.3247173E-09  0.0000000E+00 -0.1554676E-04
  0.2676768E+00  0.0000000E+00  0.2525252E-01  0.3217956E-09  0.0000000E+00 -0.1554662E-04
  0.2777778E+00  0.0000000E+00  0.2525252E-01  0.3173829E-09  0.0000000E+00 -0.1554649E-04
  0.2878788E+00  0.0000000E+00  0.2525252E-01  0.3114867E-09  0.0000000E+00 -0.1554636E-04
  0.2979798E+00  0.0000000E+00  0.2525252E-01  0.3041218E-09  0.0000000E+00 -0.1554624E-04
  0.3080808E+00  0.0000000E+00  0.2525252E-01  0.2953104E-09  0.0000000E+00 -0.1554611E-04
  0.3181818E+00  0.0000000E+00  0.2525252E-01  0.2850824E-09  0.0000000E+00 -0.1554599E-04
  0.3282828E+00  0.0000000E+00  0.2525252E-01  0.2734750E-09  0.0000000E+00 -0.1554588E-04
  0.3383838E+00  0.0000000E+00  0.2525252E-01  0.2605332E-09  0.0000000E+00 -0.1554577E-04
  0.3484848E+00  0.0000000E+00  0.2525252E-01  0.2463091E-09  0.0000000E+00 -0.1554566E-04
  0.3585859E+00  0.0000000E+00  0.2525252E-01  0.2308619E-09  0.0000000E+00 -0.1554556E-04
  0.3686869E+00  0.0000000E+00  0.2525252E-01  0.2142581E-09  0.0000000E+00 -0.1554547E-04
  0.3787879E+00  0.0000000E+00  0.2525252E-01  0.1965704E-09  0.0000000E+00 -0.1554539E-04
  0.3888889E+00  0.0000000E+00  0.2525252E-01  0.1778780E-09  0.0000000E+00 -0.1554531E-04
  0.3989899E+00  0.0000000E+00  0.2525252E-01  0.1582661E-09  0.0000000E+00 -0.1554524E-04
  0.4090909E+00  0.0000000E+00  0.2525252E-01  0.1378251E-09  0.0000000E+00 -0.1554518E-04
  0.4191919E+00  0.0000000E+00  0.2525252E-01  0.1166505E-09  0.0000000E+00 -0.1554513E-04
  0.4292929E+00  0.0000000E+00  0.2525252E-01  0.9484237E-10  0.0000000E+00 -0.1554508E-04
  0.4393939E+00  0.0000000E+00  0.2525252E-01  0.7250514E-10  0.0000000E+00 -0.1554505E-04
  0.4494950E+00  0.0000000E+00  0.2525252E-01  0.4974318E-10  0.0000000E+00 -0.1554503E-04
  0.4595959E+00  0.0000000E+00  0.2525252E-01  0.2665650E-10  0.0000000E+00 -0.1554501E-04
  0.4696970E+00  0.0000000E+00  0.2525252E-01  0.3342278E-11  0.0000000E+00 -0.1554500E-04
  0.4797980E+00  0.0000000E+00  0.2525252E-01 -0.2007077E-10  0.0000000E+00 -0.1554501E-04
  0.4898990E+00  0.0000000E+00  0.2525252E-01 -0.4351251E-10  0.0000000E+00 -0.1554502E-04
  0.5000000E+00  0.0000000E+00  0.2525252E-01 -0.6674305E-10  0.0000000E+00 -0.1554504E-04
  0.5101010E+00  0.0000000E+00  0.2525252E-01 -0.8979440E-10  0.0000000E+00 -0.1554507E-04
  0.5202020E+00  0.0000000E+00  0.2525252E-01 -0.1124624E-09  0.0000000E+00 -0.1554512E-04
  0.5303030E+00  0.0000000E+00  0.2525252E-01 -0.1347325E-09  0.0000000E+00 -0.1554517E-04
  0.5404040E+00  0.0000000E+00  0.2525252E-01 -0.1564483E-09  0.0000000E+00 -0.1554523E-04
  0.5505050E+00  0.0000000E+00  0.2525252E-01 -0.1775236E-09  0.0000000E+00 -0.1554530E-04
  0.5606061E+00  0.0000000E+00  0.2525252E-01 -0.1978785E-09  0.0000000E+00 -0.1554537E-04
  0.5707071E+00  0.0000000E+00  0.2525252E-01 -0.2174061E-09  0.0000000E+00 -0.1554546E-04
  0.5808081E+00  0.0000000E+00  0.2525252E-01 -0.2360347E-09  0.0000000E+00 -0.1554555E-04
  0.5909091E+00  0.0000000E+00  0.2525252E-01 -0.2536854E-09  0.0000000E+00 -0.1554565E-04
  0.6010101E+00  0.0000000E+00  0.2525252E-01 -0.2702856E-09  0.0000000E+00 -0.1554576E-04
  0.6111111E+00  0.0000000E+00  0.2525252E-01 -0.2857721E-09  0.0000000E+00 -0.1554588E-04
  0.6212121E+00  0.0000000E+00  0.2525252E-01 -0.3000872E-09  0.0000000E+00 -0.1554600E-04
  0.6313131E+00  0.0000000E+00  0.2525252E-01 -0.3131794E-09  0.0000000E+00 -0.1554612E-04
  0.6414142E+00  0.0000000E+00  0.2525252E-01 -0.3250045E-09  0.0000000E+00 -0.1554625E-04
  0.6515151E+00  0.0000000E+00  0.2525252E-01 -0.3355253E-09  0.0000000E+00 -0.1554639E-04
  0.6616161E+00  0.0000000E+00  0.2525252E-01 -0.3447116E-09  0.0000000E+00 -0.1554653E-04
  0.6717172E+00  0.0000000E+00  0.2525252E-01 -0.3525399E-09  0.0000000E+00 -0.1554667E-04
  0.6818182E+00  0.0000000E+00  0.2525252E-01 -0.3589935E-09  0.0000000E+00 -0.1554682E-04
  0.6919192E+00  0.0000000E+00  0.2525252E-01 -0.3640625E-09  0.0000000E+00 -0.1554697E-04
  0.7020202E+00  0.0000000E+00  0.2525252E-01 -0.3677432E-09  0.0000000E+00 -0.1554712E-04
  0.7121212E+00  0.0000000E+00  0.2525252E-01 -0.3700383E-09  0.0000000E+00 -0.1554727E-04
  0.7222222E+00  0.0000000E+00  0.2525252E-01 -0.3709561E-09  0.0000000E+00 -0.1554742E-04
  0.7323232E+00  0.0000000E+00  0.2525252E-01 -0.3705108E-09  0.0000000E+00 -0.1554757E-04
  0.7424242E+00  0.0000000E+00  0.2525252E-01 -0.3687216E-09  0.0000000E+00 -0.1554773E-04
  0.7525253E+00  0.0000000E+00  0.2525252E-01 -0.3656126E-09  0.0000000E+00 -0.1554788E-04
  0.7626263E+00  0.0000000E+00  0.2525252E-01 -0.3612126E-09  0.0000000E+00 -0.1554803E-04
  0.7727273E+00  0.0000000E+00  0.2525252E-01 -0.3555544E-09  0.0000000E+00 -0.1554817E-04
  0.7828283E+00  0.0000000E+00  0.2525252E-01 -0.3486748E-09  0.0000000E+00 -0.1554832E-04
  0.7929293E+00  0.0000000E+00  0.2525252E-01 -0.3406139E-09  0.0000000E+00 -0.1554846E-04
  0.8030303E+00  0.0000000E+00  0.2525252E-01 -0.3314148E-09  0.0000000E+00 -0.1554860E-04
  0.8131313E+00  0.0000000E+00  0.2525252E-01 -0.3211235E-09  0.0000000E+00 -0.1554873E-04
  0.8232324E+00  0.0000000E+00  0.2525252E-01 -0.3097883E-09  0.0000000E+00 -0.1554886E-04
  0.8333333E+00  0.0000000E+00  0.2525252E-01 -0.2974598E-09  0.0000000E+00 -0.1554899E-04
  0.8434343E+00  0.0000000E+00  0.2525252E-01 -0.2841900E-09  0.0000000E+00 -0.1554911E-04
  0.8535354E+00  0.0000000E+00  0.2525252E-01 -0.2700328E-09  0.0000000E+00 -0.1554922E-04
  0.8636364E+00  0.0000000E+00  0.2525252E-01 -0.2550431E-09  0.0000000E+00 -0.1554933E-04
  0.8737374E+00  0.0000000E+00  0.2525252E-01 -0.2392769E-09  0.0000000E+00 -0.1554943E-04
  0.8838384E+00  0.0000000E+00  0.2525252E-01 -0.2227909E-09  0.0000000E+00 -0.1554952E-04
  0.8939394E+00  0.0000000E+00  0.2525252E-01 -0.2056423E-09  0.0000000E+00 -0.1554961E-04
  0.9040404E+00  0.0000000E+00  0.2525252E-01 -0.1878889E-09  0.0000000E+00 -0.1554969E-04
  0.9141414E+00  0.0000000E+00  0.2525252E-01 -0.1695886E-09  0.0000000E+00 -0.1554977E-04
  0.9242424E+00  0.0000000E+00  0.2525252E-01 -0.1507994E-09  0.0000000E+00 -0.1554983E-04
  0.9343435E+00  0.0000000E+00  0.2525252E-01 -0.1315798E-09  0.0000000E+00 -0.1554989E-04
  0.9444444E+00  0.0000000E+00  0.2525252E-01 -0.1119880E-09  0.0000000E+00 -0.1554994E-04
  0.9545454E+00  0.0000000E+00  0.2525252E-01 -0.9208264E-10  0.0000000E+00 -0.1554998E-04
  0.9646465E+00  0.0000000E+00  0.2525252E-01 -0.7192350E-10  0.0000000E+00 -0.1555002E-04
  0.9747475E+00  0.0000000E+00  0.2525252E-01 -0.5157114E-10  0.0000000E+00 -0.1555004E-04
  0.9848485E+00  0.0000000E+00  0.2525252E-01 -0.3108269E-10  0.0000000E+00 -0.1555006E-04
  0.9974747E+00  0.0000000E+00  0.2525252E-01 -0.1051645E-10  0.0000000E+00 -0.1555007E-04
  0.5050505E-02  0.0000000E+00  0.3535353E-01  0.1457062E-10  0.0000000E+00 -0.1546417E-04
  0.1515152E-01  0.0000000E+00  0.3535353E-01  0.4416014E-10  0.0000000E+00 -0.1546416E-04
  0.2525252E-01  0.0000000E+00  0.3535353E-01  0.7365743E-10  0.0000000E+00 -0.1546415E-04
  0.3535353E-01  0.0000000E+00  0.3535353E-01  0.1028432E-09  0.0000000E+00 -0.1546412E-04
  0.4545455E-01  0.0000000E+00  0.3535353E-01  0.1315509E-09  0.0000000E+00 -0.1546408E-04
  0.5555556E-01  0.0000000E+00  0.3535353E-01  0.1597760E-09  0.0000000E+00 -0.1546404E-04
  0.6565657E-01  0.0000000E+00  0.3535353E-01  0.1873534E-09  0.0000000E+00 -0.1546399E-04
  0.7575758E-01  0.0000000E+00  0.3535353E-01  0.2141828E-09  0.0000000E+00 -0.1546393E-04
  0.8585858E-01  0.0000000E+00  0.3535353E-01  0.2401707E-09  0.0000000E+00 -0.1546386E-04
  0.9595960E-01  0.0000000E+00  0.3535353E-01  0.2651891E-09  0.0000000E+00 -0.1546378E-04
  0.1060606E+00  0.0000000E+00  0.3535353E-01  0.2891433E-09  0.0000000E+00 -0.1546370E-04
  0.1161616E+00  0.0000000E+00  0.3535353E-01  0.3119281E-09  0.0000000E+00 -0.1546361E-04
  0.1262626E+00  0.0000000E+00  0.3535353E-01  0.3334408E-09  0.0000000E+00 -0.1546351E-04
  0.1363636E+00  0.0000000E+00  0.3535353E-01  0.3535854E-09  0.0000000E+00 -0.1546341E-04
  0.1464646E+00  0.0000000E+00  0.3535353E-01  0.3722683E-09  0.0000000E+00 -0.1546330E-04
  0.1565657E+00  0.0000000E+00  0.3535353E-01  0.3893996E-09  0.0000000E+00 -0.1546318E-04
  0.1666667E+00  0.0000000E+00  0.3535353E-01  0.4048948E-09  0.0000000E+00 -0.1546306E-04
  0.1767677E+00  0.0000000E+00  0.3535353E-01  0.4186743E-09  0.0000000E+00 -0.1546294E-04
  0.1868687E+00  0.0000000E+00  0.3535353E-01  0.4306644E-09  0.0000000E+00 -0.1546281E-04
  0.1969697E+00  0.0000000E+00  0.3535353E-01  0.4407975E-09  0.0000000E+00 -0.1546268E-04
  0.2070707E+00  0.0000000E+00  0.3535353E-01  0.4490130E-09  0.0000000E+00 -0.1546255E-04
  0.2171717E+00  0.0000000E+00  0.3535353E-01  0.4552573E-09  0.0000000E+00 -0.1546241E-04
  0.2272727E+00  0.0000000E+00  0.3535353E-01  0.4594850E-09  0.0000000E+00 -0.1546227E-04
  0.2373737E+00  0.0000000E+00  0.3535353E-01  0.4616586E-09  0.0000000E+00 -0.1546213E-04
  0.2474747E+00  0.0000000E+00  0.3535353E-01  0.4617496E-09  0.0000000E+00 -0.1546199E-04
  0.2575758E+00  0.0000000E+00  0.3535353E-01  0.4597385E-09  0.0000000E+00 -0.1546185E-04
  0.2676768E+00  0.0000000E+00  0.3535353E-01  0.4556155E-09  0.0000000E+00 -0.1546172E-04
  0.2777778E+00  0.0000000E+00  0.3535353E-01  0.4493808E-09  0.0000000E+00 -0.1546158E-04
  0.2878788E+00  0.0000000E+00  0.3535353E-01  0.4410447E-09  0.0000000E+00 -0.1546145E-04
  0.2979798E+00  0.0000000E+00  0.3535353E-01  0.4306280E-09  0.0000000E+00 -0.1546131E-04