title = "dataset water"
variables = "x", "y", "z", "vx", "vy", "vz"
zone t = "velocities, solution time =  4.000E+01 days        " i =   99, j =   99, k =    1,  f=point
  0.5050505E-02  0.0000000E+00  0.5050505E-02  0.1167387E-08  0.0000000E+00 -0.2962941E-05
  0.1515152E-01  0.0000000E+00  0.5050505E-02  0.3495930E-08  0.0000000E+00 -0.2958276E-05
  0.2525252E-01  0.0000000E+00  0.5050505E-02  0.5805775E-08  0.0000000E+00 -0.2948971E-05
  0.3535353E-01  0.0000000E+00  0.5050505E-02  0.8084474E-08  0.0000000E+00 -0.2935076E-05
  0.4545455E-01  0.0000000E+00  0.5050505E-02  0.1031961E-07  0.0000000E+00 -0.2916665E-05
  0.5555556E-01  0.0000000E+00  0.5050505E-02  0.1249883E-07  0.0000000E+00 -0.2893839E-05
  0.6565657E-01  0.0000000E+00  0.5050505E-02  0.1460983E-07  0.0000000E+00 -0.2866720E-05
  0.7575758E-01  0.0000000E+00  0.5050505E-02  0.1664047E-07  0.0000000E+00 -0.2835459E-05
  0.8585858E-01  0.0000000E+00  0.5050505E-02  0.1857876E-07  0.0000000E+00 -0.2800228E-05
  0.9595960E-01  0.0000000E+00  0.5050505E-02  0.2041293E-07  0.0000000E+00 -0.2761223E-05
  0.1060606E+00  0.0000000E+00  0.5050505E-02  0.2213155E-07  0.0000000E+00 -0.2718664E-05
  0.1161616E+00  0.0000000E+00  0.5050505E-02  0.2372359E-07  0.0000000E+00 -0.2672794E-05
  0.1262626E+00  0.0000000E+00  0.5050505E-02  0.2517853E-07  0.0000000E+00 -0.2623876E-05
  0.1363636E+00  0.0000000E+00  0.5050505E-02  0.2648650E-07  0.0000000E+00 -0.2572195E-05
  0.1464646E+00  0.0000000E+00  0.5050505E-02  0.2763840E-07  0.0000000E+00 -0.2518053E-05
  0.1565657E+00  0.0000000E+00  0.5050505E-02  0.2862599E-07  0.0000000E+00 -0.2461772E-05
  0.1666667E+00  0.0000000E+00  0.5050505E-02  0.2944213E-07  0.0000000E+00 -0.2403687E-05
  0.1767677E+00  0.0000000E+00  0.5050505E-02  0.3008082E-07  0.0000000E+00 -0.2344147E-05
  0.1868687E+00  0.0000000E+00  0.5050505E-02  0.3053739E-07  0.0000000E+00 -0.2283511E-05
  0.1969697E+00  0.0000000E+00  0.5050505E-02  0.3080858E-07  0.0000000E+00 -0.2222149E-05
  0.2070707E+00  0.0000000E+00  0.5050505E-02  0.3089267E-07  0.0000000E+00 -0.2160431E-05
  0.2171717E+00  0.0000000E+00  0.5050505E-02  0.3078950E-07  0.0000000E+00 -0.2098733E-05
  0.2272727E+00  0.0000000E+00  0.5050505E-02  0.3050057E-07  0.0000000E+00 -0.2037427E-05
  0.2373737E+00  0.0000000E+00  0.5050505E-02  0.3002899E-07  0.0000000E+00 -0.1976883E-05
  0.2474747E+00  0.0000000E+00  0.5050505E-02  0.2937948E-07  0.0000000E+00 -0.1917461E-05
  0.2575758E+00  0.0000000E+00  0.5050505E-02  0.2855829E-07  0.0000000E+00 -0.1859510E-05
  0.2676768E+00  0.0000000E+00  0.5050505E-02  0.2757308E-07  0.0000000E+00 -0.1803366E-05
  0.2777778E+00  0.0000000E+00  0.5050505E-02  0.2643281E-07  0.0000000E+00 -0.1749348E-05
  0.2878788E+00  0.0000000E+00  0.5050505E-02  0.2514754E-07  0.0000000E+00 -0.1697757E-05
  0.2979798E+00  0.0000000E+00  0.5050505E-02  0.2372826E-07  0.0000000E+00 -0.1648872E-05
  0.3080808E+00  0.0000000E+00  0.5050505E-02  0.2218668E-07  0.0000000E+00 -0.1602948E-05
  0.3181818E+00  0.0000000E+00  0.5050505E-02  0.2053504E-07  0.0000000E+00 -0.1560218E-05
  0.3282828E+00  0.0000000E+00  0.5050505E-02  0.1878588E-07  0.0000000E+00 -0.1520889E-05
  0.3383838E+00  0.0000000E+00  0.5050505E-02  0.1695185E-07  0.0000000E+00 -0.1485145E-05
  0.3484848E+00  0.0000000E+00  0.5050505E-02  0.1504552E-07  0.0000000E+00 -0.1453142E-05
  0.3585859E+00  0.0000000E+00  0.5050505E-02  0.1307919E-07  0.0000000E+00 -0.1425013E-05
  0.3686869E+00  0.0000000E+00  0.5050505E-02  0.1106476E-07  0.0000000E+00 -0.1400864E-05
  0.3787879E+00  0.0000000E+00  0.5050505E-02  0.9013610E-08  0.0000000E+00 -0.1380783E-05
  0.3888889E+00  0.0000000E+00  0.5050505E-02  0.6936483E-08  0.0000000E+00 -0.1364830E-05
  0.3989899E+00  0.0000000E+00  0.5050505E-02  0.4843442E-08  0.0000000E+00 -0.1353048E-05
  0.4090909E+00  0.0000000E+00  0.5050505E-02  0.2743808E-08  0.0000000E+00 -0.1345459E-05
  0.4191919E+00  0.0000000E+00  0.5050505E-02  0.6461432E-09  0.0000000E+00 -0.1342069E-05
  0.4292929E+00  0.0000000E+00  0.5050505E-02 -0.1441759E-08  0.0000000E+00 -0.1342865E-05
  0.4393939E+00  0.0000000E+00  0.5050505E-02 -0.3512850E-08  0.0000000E+00 -0.1347820E-05
  0.4494950E+00  0.0000000E+00  0.5050505E-02 -0.5560794E-08  0.0000000E+00 -0.1356895E-05
  0.4595959E+00  0.0000000E+00  0.5050505E-02 -0.7579917E-08  0.0000000E+00 -0.1370038E-05
  0.4696970E+00  0.0000000E+00  0.5050505E-02 -0.9565139E-08  0.0000000E+00 -0.1387186E-05
  0.4797980E+00  0.0000000E+00  0.5050505E-02 -0.1151190E-07  0.0000000E+00 -0.1408267E-05
  0.4898990E+00  0.0000000E+00  0.5050505E-02 -0.1341608E-07  0.0000000E+00 -0.1433199E-05
  0.5000000E+00  0.0000000E+00  0.5050505E-02 -0.1527387E-07  0.0000000E+00 -0.1461894E-05
  0.5101010E+00  0.0000000E+00  0.5050505E-02 -0.1708175E-07  0.0000000E+00 -0.1494255E-05
  0.5202020E+00  0.0000000E+00  0.5050505E-02 -0.1883633E-07  0.0000000E+00 -0.1530180E-05
  0.5303030E+00  0.0000000E+00  0.5050505E-02 -0.2053431E-07  0.0000000E+00 -0.1569558E-05
  0.5404040E+00  0.0000000E+00  0.5050505E-02 -0.2217240E-07  0.0000000E+00 -0.1612273E-05
  0.5505050E+00  0.0000000E+00  0.5050505E-02 -0.2374727E-07  0.0000000E+00 -0.1658202E-05
  0.5606061E+00  0.0000000E+00  0.5050505E-02 -0.2525546E-07  0.0000000E+00 -0.1707215E-05
  0.5707071E+00  0.0000000E+00  0.5050505E-02 -0.2669338E-07  0.0000000E+00 -0.1759174E-05
  0.5808081E+00  0.0000000E+00  0.5050505E-02 -0.2805731E-07  0.0000000E+00 -0.1813937E-05
  0.5909091E+00  0.0000000E+00  0.5050505E-02 -0.2934332E-07  0.0000000E+00 -0.1871350E-05
  0.6010101E+00  0.0000000E+00  0.5050505E-02 -0.3054738E-07  0.0000000E+00 -0.1931255E-05
  0.6111111E+00  0.0000000E+00  0.5050505E-02 -0.3166534E-07  0.0000000E+00 -0.1993482E-05
  0.6212121E+00  0.0000000E+00  0.5050505E-02 -0.3269299E-07  0.0000000E+00 -0.2057856E-05
  0.6313131E+00  0.0000000E+00  0.5050505E-02 -0.3362615E-07  0.0000000E+00 -0.2124192E-05
  0.6414142E+00  0.0000000E+00  0.5050505E-02 -0.3446074E-07  0.0000000E+00 -0.2192297E-05
  0.6515151E+00  0.0000000E+00  0.5050505E-02 -0.3519284E-07  0.0000000E+00 -0.2261969E-05
  0.6616161E+00  0.0000000E+00  0.5050505E-02 -0.3581878E-07  0.0000000E+00 -0.2333001E-05
  0.6717172E+00  0.0000000E+00  0.5050505E-02 -0.3633525E-07  0.0000000E+00 -0.2405175E-05
  0.6818182E+00  0.0000000E+00  0.5050505E-02 -0.3673934E-07  0.0000000E+00 -0.2478271E-05
  0.6919192E+00  0.0000000E+00  0.5050505E-02 -0.3702864E-07  0.0000000E+00 -0.2552062E-05
  0.7020202E+00  0.0000000E+00  0.5050505E-02 -0.3720127E-07  0.0000000E+00 -0.2626315E-05
  0.7121212E+00  0.0000000E+00  0.5050505E-02 -0.3725596E-07  0.0000000E+00 -0.2700796E-05
  0.7222222E+00  0.0000000E+00  0.5050505E-02 -0.3719202E-07  0.0000000E+00 -0.2775269E-05
  0.7323232E+00  0.0000000E+00  0.5050505E-02 -0.3700940E-07  0.0000000E+00 -0.2849496E-05
  0.7424242E+00  0.0000000E+00  0.5050505E-02 -0.3670869E-07  0.0000000E+00 -0.2923240E-05
  0.7525253E+00  0.0000000E+00  0.5050505E-02 -0.3629106E-07  0.0000000E+00 -0.2996266E-05
  0.7626263E+00  0.0000000E+00  0.5050505E-02 -0.3575829E-07  0.0000000E+00 -0.3068341E-05
  0.7727273E+00  0.0000000E+00  0.5050505E-02 -0.3511270E-07  0.0000000E+00 -0.3139239E-05
  0.7828283E+00  0.0000000E+00  0.5050505E-02 -0.3435711E-07  0.0000000E+00 -0.3208736E-05
  0.7929293E+00  0.0000000E+00  0.5050505E-02 -0.3349482E-07  0.0000000E+00 -0.3276614E-05
  0.8030303E+00  0.0000000E+00  0.5050505E-02 -0.3252952E-07  0.0000000E+00 -0.3342665E-05
  0.8131313E+00  0.0000000E+00  0.5050505E-02 -0.3146525E-07  0.0000000E+00 -0.3406686E-05
  0.8232324E+00  0.0000000E+00  0.5050505E-02 -0.3030636E-07  0.0000000E+00 -0.3468484E-05
  0.8333333E+00  0.0000000E+00  0.5050505E-02 -0.2905745E-07  0.0000000E+00 -0.3527873E-05
  0.8434343E+00  0.0000000E+00  0.5050505E-02 -0.2772334E-07  0.0000000E+00 -0.3584678E-05
  0.8535354E+00  0.0000000E+00  0.5050505E-02 -0.2630899E-07  0.0000000E+00 -0.3638734E-05
  0.8636364E+00  0.0000000E+00  0.5050505E-02 -0.2481949E-07  0.0000000E+00 -0.3689886E-05
  0.8737374E+00  0.0000000E+00  0.5050505E-02 -0.2326001E-07  0.0000000E+00 -0.3737987E-05
  0.8838384E+00  0.0000000E+00  0.5050505E-02 -0.2163579E-07  0.0000000E+00 -0.3782903E-05
  0.8939394E+00  0.0000000E+00  0.5050505E-02 -0.1995209E-07  0.0000000E+00 -0.3824511E-05
  0.9040404E+00  0.0000000E+00  0.5050505E-02 -0.1821419E-07  0.0000000E+00 -0.3862695E-05
  0.9141414E+00  0.0000000E+00  0.5050505E-02 -0.1642737E-07  0.0000000E+00 -0.3897353E-05
  0.9242424E+00  0.0000000E+00  0.5050505E-02 -0.1459688E-07  0.0000000E+00 -0.3928392E-05
  0.9343435E+00  0.0000000E+00  0.5050505E-02 -0.1272796E-07  0.0000000E+00 -0.3955730E-05
  0.9444444E+00  0.0000000E+00  0.5050505E-02 -0.1082581E-07  0.0000000E+00 -0.3979295E-05
  0.9545454E+00  0.0000000E+00  0.5050505E-02 -0.8895606E-08  0.0000000E+00 -0.3999026E-05
  0.9646465E+00  0.0000000E+00  0.5050505E-02 -0.6942502E-08  0.0000000E+00 -0.4014872E-05
  0.9747475E+00  0.0000000E+00  0.5050505E-02 -0.4971614E-08  0.0000000E+00 -0.4026792E-05
  0.9848485E+00  0.0000000E+00  0.5050505E-02 -0.2988039E-08  0.0000000E+00 -0.4034756E-05
  0.9974747E+00  0.0000000E+00  0.5050505E-02 -0.9968582E-09  0.0000000E+00 -0.4038742E-05
  0.5050505E-02  0.0000000E+00  0.1515152E-01  0.3511568E-08  0.0000000E+00 -0.2941471E-05
  0.1515152E-01  0.0000000E+00  0.1515152E-01  0.1051598E-07  0.0000000E+00 -0.2936755E-05
  0.2525252E-01  0.0000000E+00  0.1515152E-01  0.1746423E-07  0.0000000E+00 -0.2927348E-05
  0.3535353E-01  0.0000000E+00  0.1515152E-01  0.2431891E-07  0.0000000E+00 -0.2913299E-05
  0.4545455E-01  0.0000000E+00  0.1515152E-01  0.3104272E-07  0.0000000E+00 -0.2894686E-05
  0.5555556E-01  0.0000000E+00  0.1515152E-01  0.3759849E-07  0.0000000E+00 -0.2871607E-05
  0.6565657E-01  0.0000000E+00  0.1515152E-01  0.4394931E-07  0.0000000E+00 -0.2844188E-05
  0.7575758E-01  0.0000000E+00  0.1515152E-01  0.5005859E-07  0.0000000E+00 -0.2812579E-05
  0.8585858E-01  0.0000000E+00  0.1515152E-01  0.5589026E-07  0.0000000E+00 -0.2776954E-05
  0.9595960E-01  0.0000000E+00  0.1515152E-01  0.6140893E-07  0.0000000E+00 -0.2737512E-05
  0.1060606E+00  0.0000000E+00  0.1515152E-01  0.6658016E-07  0.0000000E+00 -0.2694474E-05
  0.1161616E+00  0.0000000E+00  0.1515152E-01  0.7137071E-07  0.0000000E+00 -0.2648085E-05
  0.1262626E+00  0.0000000E+00  0.1515152E-01  0.7574888E-07  0.0000000E+00 -0.2598612E-05
  0.1363636E+00  0.0000000E+00  0.1515152E-01  0.7968488E-07  0.0000000E+00 -0.2546342E-05
  0.1464646E+00  0.0000000E+00  0.1515152E-01  0.8315120E-07  0.0000000E+00 -0.2491582E-05
  0.1565657E+00  0.0000000E+00  0.1515152E-01  0.8612304E-07  0.0000000E+00 -0.2434656E-05
  0.1666667E+00  0.0000000E+00  0.1515152E-01  0.8857875E-07  0.0000000E+00 -0.2375905E-05
  0.1767677E+00  0.0000000E+00  0.1515152E-01  0.9050022E-07  0.0000000E+00 -0.2315682E-05
  0.1868687E+00  0.0000000E+00  0.1515152E-01  0.9187329E-07  0.0000000E+00 -0.2254352E-05
  0.1969697E+00  0.0000000E+00  0.1515152E-01  0.9268810E-07  0.0000000E+00 -0.2192288E-05
  0.2070707E+00  0.0000000E+00  0.1515152E-01  0.9293941E-07  0.0000000E+00 -0.2129867E-05
  0.2171717E+00  0.0000000E+00  0.1515152E-01  0.9262675E-07  0.0000000E+00 -0.2067471E-05
  0.2272727E+00  0.0000000E+00  0.1515152E-01  0.9175459E-07  0.0000000E+00 -0.2005476E-05
  0.2373737E+00  0.0000000E+00  0.1515152E-01  0.9033237E-07  0.0000000E+00 -0.1944258E-05
  0.2474747E+00  0.0000000E+00  0.1515152E-01  0.8837433E-07  0.0000000E+00 -0.1884182E-05
  0.2575758E+00  0.0000000E+00  0.1515152E-01  0.8589937E-07  0.0000000E+00 -0.1825603E-05
  0.2676768E+00  0.0000000E+00  0.1515152E-01  0.8293068E-07  0.0000000E+00 -0.1768860E-05
  0.2777778E+00  0.0000000E+00  0.1515152E-01  0.7949532E-07  0.0000000E+00 -0.1714277E-05
  0.2878788E+00  0.0000000E+00  0.1515152E-01  0.7562374E-07  0.0000000E+00 -0.1662159E-05
  0.2979798E+00  0.0000000E+00  0.1515152E-01  0.7134917E-07  0.0000000E+00 -0.1612786E-05
  0.3080808E+00  0.0000000E+00  0.1515152E-01  0.6670701E-07  0.0000000E+00 -0.1566417E-05
  0.3181818E+00  0.0000000E+00  0.1515152E-01  0.6173423E-07  0.0000000E+00 -0.1523287E-05
  0.3282828E+00  0.0000000E+00  0.1515152E-01  0.5646871E-07  0.0000000E+00 -0.1483605E-05
  0.3383838E+00  0.0000000E+00  0.1515152E-01  0.5094865E-07  0.0000000E+00 -0.1447552E-05
  0.3484848E+00  0.0000000E+00  0.1515152E-01  0.4521196E-07  0.0000000E+00 -0.1415288E-05
  0.3585859E+00  0.0000000E+00  0.1515152E-01  0.3929575E-07  0.0000000E+00 -0.1386943E-05
  0.3686869E+00  0.0000000E+00  0.1515152E-01  0.3323587E-07  0.0000000E+00 -0.1362625E-05
  0.3787879E+00  0.0000000E+00  0.1515152E-01  0.2706656E-07  0.0000000E+00 -0.1342418E-05
  0.3888889E+00  0.0000000E+00  0.1515152E-01  0.2082016E-07  0.0000000E+00 -0.1326382E-05
  0.3989899E+00  0.0000000E+00  0.1515152E-01  0.1452691E-07  0.0000000E+00 -0.1314559E-05
  0.4090909E+00  0.0000000E+00  0.1515152E-01  0.8214828E-08  0.0000000E+00 -0.1306968E-05
  0.4191919E+00  0.0000000E+00  0.1515152E-01  0.1909591E-08  0.0000000E+00 -0.1303613E-05
  0.4292929E+00  0.0000000E+00  0.1515152E-01 -0.4365430E-08  0.0000000E+00 -0.1304480E-05
  0.4393939E+00  0.0000000E+00  0.1515152E-01 -0.1058913E-07  0.0000000E+00 -0.1309541E-05
  0.4494950E+00  0.0000000E+00  0.1515152E-01 -0.1674256E-07  0.0000000E+00 -0.1318753E-05
  0.4595959E+00  0.0000000E+00  0.1515152E-01 -0.2280877E-07  0.0000000E+00 -0.1332064E-05
  0.4696970E+00  0.0000000E+00  0.1515152E-01 -0.2877261E-07  0.0000000E+00 -0.1349408E-05
  0.4797980E+00  0.0000000E+00  0.1515152E-01 -0.3462050E-07  0.0000000E+00 -0.1370711E-05
  0.4898990E+00  0.0000000E+00  0.1515152E-01 -0.4034017E-07  0.0000000E+00 -0.1395893E-05
  0.5000000E+00  0.0000000E+00  0.1515152E-01 -0.4592034E-07  0.0000000E+00 -0.1424862E-05
  0.5101010E+00  0.0000000E+00  0.1515152E-01 -0.5135050E-07  0.0000000E+00 -0.1457521E-05
  0.5202020E+00  0.0000000E+00  0.1515152E-01 -0.5662059E-07  0.0000000E+00 -0.1493767E-05
  0.5303030E+00  0.0000000E+00  0.1515152E-01 -0.6172080E-07  0.0000000E+00 -0.1533489E-05
  0.5404040E+00  0.0000000E+00  0.1515152E-01 -0.6664131E-07  0.0000000E+00 -0.1576569E-05
  0.5505050E+00  0.0000000E+00  0.1515152E-01 -0.7137217E-07  0.0000000E+00 -0.1622886E-05
  0.5606061E+00  0.0000000E+00  0.1515152E-01 -0.7590307E-07  0.0000000E+00 -0.1672308E-05
  0.5707071E+00  0.0000000E+00  0.1515152E-01 -0.8022329E-07  0.0000000E+00 -0.1724698E-05
  0.5808081E+00  0.0000000E+00  0.1515152E-01 -0.8432157E-07  0.0000000E+00 -0.1779912E-05
  0.5909091E+00  0.0000000E+00  0.1515152E-01 -0.8818618E-07  0.0000000E+00 -0.1837798E-05
  0.6010101E+00  0.0000000E+00  0.1515152E-01 -0.9180492E-07  0.0000000E+00 -0.1898195E-05
  0.6111111E+00  0.0000000E+00  0.1515152E-01 -0.9516528E-07  0.0000000E+00 -0.1960935E-05
  0.6212121E+00  0.0000000E+00  0.1515152E-01 -0.9825459E-07  0.0000000E+00 -0.2025841E-05
  0.6313131E+00  0.0000000E+00  0.1515152E-01 -0.1010602E-06  0.0000000E+00 -0.2092726E-05
  0.6414142E+00  0.0000000E+00  0.1515152E-01 -0.1035697E-06  0.0000000E+00 -0.2161398E-05
  0.6515151E+00  0.0000000E+00  0.1515152E-01 -0.1057713E-06  0.0000000E+00 -0.2231652E-05
  0.6616161E+00  0.0000000E+00  0.1515152E-01 -0.1076539E-06  0.0000000E+00 -0.2303280E-05
  0.6717172E+00  0.0000000E+00  0.1515152E-01 -0.1092074E-06  0.0000000E+00 -0.2376063E-05
  0.6818182E+00  0.0000000E+00  0.1515152E-01 -0.1104231E-06  0.0000000E+00 -0.2449778E-05
  0.6919192E+00  0.0000000E+00  0.1515152E-01 -0.1112936E-06  0.0000000E+00 -0.2524195E-05
  0.7020202E+00  0.0000000E+00  0.1515152E-01 -0.1118132E-06  0.0000000E+00 -0.2599081E-05
  0.7121212E+00  0.0000000E+00  0.1515152E-01 -0.1119781E-06  0.0000000E+00 -0.2674197E-05
  0.7222222E+00  0.0000000E+00  0.1515152E-01 -0.1117862E-06  0.0000000E+00 -0.2749306E-05
  0.7323232E+00  0.0000000E+00  0.1515152E-01 -0.1112373E-06  0.0000000E+00 -0.2824168E-05
  0.7424242E+00  0.0000000E+00  0.1515152E-01 -0.1103333E-06  0.0000000E+00 -0.2898542E-05
  0.7525253E+00  0.0000000E+00  0.1515152E-01 -0.1090776E-06  0.0000000E+00 -0.2972191E-05
  0.7626263E+00  0.0000000E+00  0.1515152E-01 -0.1074756E-06  0.0000000E+00 -0.3044881E-05
  0.7727273E+00  0.0000000E+00  0.1515152E-01 -0.1055344E-06  0.0000000E+00 -0.3116381E-05
  0.7828283E+00  0.0000000E+00  0.1515152E-01 -0.1032625E-06  0.0000000E+00 -0.3186467E-05
  0.7929293E+00  0.0000000E+00  0.1515152E-01 -0.1006698E-06  0.0000000E+00 -0.3254919E-05
  0.8030303E+00  0.0000000E+00  0.1515152E-01 -0.9776738E-07  0.0000000E+00 -0.3321526E-05
  0.8131313E+00  0.0000000E+00  0.1515152E-01 -0.9456755E-07  0.0000000E+00 -0.3386083E-05
  0.8232324E+00  0.0000000E+00  0.1515152E-01 -0.9108338E-07  0.0000000E+00 -0.3448396E-05
  0.8333333E+00  0.0000000E+00  0.1515152E-01 -0.8732875E-07  0.0000000E+00 -0.3508278E-05
  0.8434343E+00  0.0000000E+00  0.1515152E-01 -0.8331812E-07  0.0000000E+00 -0.3565553E-05
  0.8535354E+00  0.0000000E+00  0.1515152E-01 -0.7906646E-07  0.0000000E+00 -0.3620054E-05
  0.8636364E+00  0.0000000E+00  0.1515152E-01 -0.7458907E-07  0.0000000E+00 -0.3671624E-05
  0.8737374E+00  0.0000000E+00  0.1515152E-01 -0.6990154E-07  0.0000000E+00 -0.3720117E-05
  0.8838384E+00  0.0000000E+00  0.1515152E-01 -0.6501960E-07  0.0000000E+00 -0.3765398E-05
  0.8939394E+00  0.0000000E+00  0.1515152E-01 -0.5995908E-07  0.0000000E+00 -0.3807341E-05
  0.9040404E+00  0.0000000E+00  0.1515152E-01 -0.5473585E-07  0.0000000E+00 -0.3845832E-05
  0.9141414E+00  0.0000000E+00  0.1515152E-01 -0.4936574E-07  0.0000000E+00 -0.3880768E-05
  0.9242424E+00  0.0000000E+00  0.1515152E-01 -0.4386456E-07  0.0000000E+00 -0.3912054E-05
  0.9343435E+00  0.0000000E+00  0.1515152E-01 -0.3824802E-07  0.0000000E+00 -0.3939610E-05
  0.9444444E+00  0.0000000E+00  0.1515152E-01 -0.3253176E-07  0.0000000E+00 -0.3963362E-05
  0.9545454E+00  0.0000000E+00  0.1515152E-01 -0.2673131E-07  0.0000000E+00 -0.3983249E-05
  0.9646465E+00  0.0000000E+00  0.1515152E-01 -0.2086213E-07  0.0000000E+00 -0.3999221E-05
  0.9747475E+00  0.0000000E+00  0.1515152E-01 -0.1493958E-07  0.0000000E+00 -0.4011235E-05
  0.9848485E+00  0.0000000E+00  0.1515152E-01 -0.8978963E-08  0.0000000E+00 -0.4019261E-05
  0.9974747E+00  0.0000000E+00  0.1515152E-01 -0.2995524E-08  0.0000000E+00 -0.4023279E-05
  0.5050505E-02  0.0000000E+00  0.2525252E-01  0.5887440E-08  0.0000000E+00 -0.2898503E-05
  0.1515152E-01  0.0000000E+00  0.2525252E-01  0.1763102E-07  0.0000000E+00 -0.2893684E-05
  0.2525252E-01  0.0000000E+00  0.2525252E-01  0.2928068E-07  0.0000000E+00 -0.2884072E-05
  0.3535353E-01  0.0000000E+00  0.2525252E-01  0.4077388E-07  0.0000000E+00 -0.2869717E-05
  0.4545455E-01  0.0000000E+00  0.2525252E-01  0.5204820E-07  0.0000000E+00 -0.2850696E-05
  0.5555556E-01  0.0000000E+00  0.2525252E-01  0.6304146E-07  0.0000000E+00 -0.2827110E-05
  0.6565657E-01  0.0000000E+00  0.2525252E-01  0.7369179E-07  0.0000000E+00 -0.2799088E-05
  0.7575758E-01  0.0000000E+00  0.2525252E-01  0.8393789E-07  0.0000000E+00 -0.2766780E-05
  0.8585858E-01  0.0000000E+00  0.2525252E-01  0.9371925E-07  0.0000000E+00 -0.2730365E-05
  0.9595960E-01  0.0000000E+00  0.2525252E-01  0.1029765E-06  0.0000000E+00 -0.2690043E-05
  0.1060606E+00  0.0000000E+00  0.2525252E-01  0.1116516E-06  0.0000000E+00 -0.2646042E-05
  0.1161616E+00  0.0000000E+00  0.2525252E-01  0.1196888E-06  0.0000000E+00 -0.2598611E-05
  0.1262626E+00  0.0000000E+00  0.2525252E-01  0.1270347E-06  0.0000000E+00 -0.2548022E-05
  0.1363636E+00  0.0000000E+00  0.2525252E-01  0.1336390E-06  0.0000000E+00 -0.2494568E-05
  0.1464646E+00  0.0000000E+00  0.2525252E-01  0.1394552E-06  0.0000000E+00 -0.2438564E-05
  0.1565657E+00  0.0000000E+00  0.2525252E-01  0.1444415E-06  0.0000000E+00 -0.2380342E-05
  0.1666667E+00  0.0000000E+00  0.2525252E-01  0.1485612E-06  0.0000000E+00 -0.2320252E-05
  0.1767677E+00  0.0000000E+00  0.2525252E-01  0.1517836E-06  0.0000000E+00 -0.2258655E-05
  0.1868687E+00  0.0000000E+00  0.2525252E-01  0.1540847E-06  0.0000000E+00 -0.2195927E-05
  0.1969697E+00  0.0000000E+00  0.2525252E-01  0.1554477E-06  0.0000000E+00 -0.2132452E-05
  0.2070707E+00  0.0000000E+00  0.2525252E-01  0.1558636E-06  0.0000000E+00 -0.2068617E-05
  0.2171717E+00  0.0000000E+00  0.2525252E-01  0.1553316E-06  0.0000000E+00 -0.2004815E-05
  0.2272727E+00  0.0000000E+00  0.2525252E-01  0.1538592E-06  0.0000000E+00 -0.1941435E-05
  0.2373737E+00  0.0000000E+00  0.2525252E-01  0.1514624E-06  0.0000000E+00 -0.1878861E-05
  0.2474747E+00  0.0000000E+00  0.2525252E-01  0.1481652E-06  0.0000000E+00 -0.1817470E-05
  0.2575758E+00  0.0000000E+00  0.2525252E-01  0.1439996E-06  0.0000000E+00 -0.1757627E-05
  0.2676768E+00  0.0000000E+00  0.2525252E-01  0.1390050E-06  0.0000000E+00 -0.1699681E-05
  0.2777778E+00  0.0000000E+00  0.2525252E-01  0.1332273E-06  0.0000000E+00 -0.1643963E-05
  0.2878788E+00  0.0000000E+00  0.2525252E-01  0.1267181E-06  0.0000000E+00 -0.1590785E-05
  0.2979798E+00  0.0000000E+00  0.2525252E-01  0.1195335E-06  0.0000000E+00 -0.1540433E-05
  0.3080808E+00  0.0000000E+00  0.2525252E-01  0.1117337E-06  0.0000000E+00 -0.1493172E-05
  0.3181818E+00  0.0000000E+00  0.2525252E-01  0.1033810E-06  0.0000000E+00 -0.1449240E-05
  0.3282828E+00  0.0000000E+00  0.2525252E-01  0.9453960E-07  0.0000000E+00 -0.1408848E-05
  0.3383838E+00  0.0000000E+00  0.2525252E-01  0.8527394E-07  0.0000000E+00 -0.1372179E-05
  0.3484848E+00  0.0000000E+00  0.2525252E-01  0.7564800E-07  0.0000000E+00 -0.1339392E-05
  0.3585859E+00  0.0000000E+00  0.2525252E-01  0.6572428E-07  0.0000000E+00 -0.1310617E-05
  0.3686869E+00  0.0000000E+00  0.2525252E-01  0.5556310E-07  0.0000000E+00 -0.1285961E-05
  0.3787879E+00  0.0000000E+00  0.2525252E-01  0.4522193E-07  0.0000000E+00 -0.1265504E-05
  0.3888889E+00  0.0000000E+00  0.2525252E-01  0.3475502E-07  0.0000000E+00 -0.1249305E-05
  0.3989899E+00  0.0000000E+00  0.2525252E-01  0.2421303E-07  0.0000000E+00 -0.1237401E-05
  0.4090909E+00  0.0000000E+00  0.2525252E-01  0.1364277E-07  0.0000000E+00 -0.1229809E-05
  0.4191919E+00  0.0000000E+00  0.2525252E-01  0.3087106E-08  0.0000000E+00 -0.1226528E-05
  0.4292929E+00  0.0000000E+00  0.2525252E-01 -0.7415054E-08  0.0000000E+00 -0.1227541E-05
  0.4393939E+00  0.0000000E+00  0.2525252E-01 -0.1782865E-07  0.0000000E+00 -0.1232814E-05
  0.4494950E+00  0.0000000E+00  0.2525252E-01 -0.2812227E-07  0.0000000E+00 -0.1242303E-05
  0.4595959E+00  0.0000000E+00  0.2525252E-01 -0.3826791E-07  0.0000000E+00 -0.1255951E-05
  0.4696970E+00  0.0000000E+00  0.2525252E-01 -0.4824059E-07  0.0000000E+00 -0.1273690E-05
  0.4797980E+00  0.0000000E+00  0.2525252E-01 -0.5801799E-07  0.0000000E+00 -0.1295443E-05
  0.4898990E+00  0.0000000E+00  0.2525252E-01 -0.6758002E-07  0.0000000E+00 -0.1321125E-05
  0.5000000E+00  0.0000000E+00  0.2525252E-01 -0.7690823E-07  0.0000000E+00 -0.1350644E-05
  0.5101010E+00  0.0000000E+00  0.2525252E-01 -0.8598542E-07  0.0000000E+00 -0.1383901E-05
  0.5202020E+00  0.0000000E+00  0.2525252E-01 -0.9479511E-07  0.0000000E+00 -0.1420791E-05
  0.5303030E+00  0.0000000E+00  0.2525252E-01 -0.1033212E-06  0.0000000E+00 -0.1461202E-05
  0.5404040E+00  0.0000000E+00  0.2525252E-01 -0.1115476E-06  0.0000000E+00 -0.1505016E-05
  0.5505050E+00  0.0000000E+00  0.2525252E-01 -0.1194578E-06  0.0000000E+00 -0.1552110E-05
  0.5606061E+00  0.0000000E+00  0.2525252E-01 -0.1270348E-06  0.0000000E+00 -0.1602352E-05
  0.5707071E+00  0.0000000E+00  0.2525252E-01 -0.1342608E-06  0.0000000E+00 -0.1655605E-05
  0.5808081E+00  0.0000000E+00  0.2525252E-01 -0.1411170E-06  0.0000000E+00 -0.1711725E-05
  0.5909091E+00  0.0000000E+00  0.2525252E-01 -0.1475837E-06  0.0000000E+00 -0.1770557E-05
  0.6010101E+00  0.0000000E+00  0.2525252E-01 -0.1536404E-06  0.0000000E+00 -0.1831942E-05
  0.6111111E+00  0.0000000E+00  0.2525252E-01 -0.1592660E-06  0.0000000E+00 -0.1895710E-05
  0.6212121E+00  0.0000000E+00  0.2525252E-01 -0.1644392E-06  0.0000000E+00 -0.1961681E-05
  0.6313131E+00  0.0000000E+00  0.2525252E-01 -0.1691384E-06  0.0000000E+00 -0.2029670E-05
  0.6414142E+00  0.0000000E+00  0.2525252E-01 -0.1733427E-06  0.0000000E+00 -0.2099478E-05
  0.6515151E+00  0.0000000E+00  0.2525252E-01 -0.1770321E-06  0.0000000E+00 -0.2170901E-05
  0.6616161E+00  0.0000000E+00  0.2525252E-01 -0.1801875E-06  0.0000000E+00 -0.2243725E-05
  0.6717172E+00  0.0000000E+00  0.2525252E-01 -0.1827921E-06  0.0000000E+00 -0.2317730E-05
  0.6818182E+00  0.0000000E+00  0.2525252E-01 -0.1848307E-06  0.0000000E+00 -0.2392687E-05
  0.6919192E+00  0.0000000E+00  0.2525252E-01 -0.1862910E-06  0.0000000E+00 -0.2468362E-05
  0.7020202E+00  0.0000000E+00  0.2525252E-01 -0.1871634E-06  0.0000000E+00 -0.2544518E-05
  0.7121212E+00  0.0000000E+00  0.2525252E-01 -0.1874411E-06  0.0000000E+00 -0.2620911E-05
  0.7222222E+00  0.0000000E+00  0.2525252E-01 -0.1871208E-06  0.0000000E+00 -0.2697297E-05
  0.7323232E+00  0.0000000E+00  0.2525252E-01 -0.1862021E-06  0.0000000E+00 -0.2773432E-05
  0.7424242E+00  0.0000000E+00  0.2525252E-01 -0.1846880E-06  0.0000000E+00 -0.2849072E-05
  0.7525253E+00  0.0000000E+00  0.2525252E-01 -0.1825846E-06  0.0000000E+00 -0.2923973E-05
  0.7626263E+00  0.0000000E+00  0.2525252E-01 -0.1799009E-06  0.0000000E+00 -0.2997896E-05
  0.7727273E+00  0.0000000E+00  0.2525252E-01 -0.1766488E-06  0.0000000E+00 -0.3070606E-05
  0.7828283E+00  0.0000000E+00  0.2525252E-01 -0.1728427E-06  0.0000000E+00 -0.3141875E-05
  0.7929293E+00  0.0000000E+00  0.2525252E-01 -0.1684994E-06  0.0000000E+00 -0.3211478E-05
  0.8030303E+00  0.0000000E+00  0.2525252E-01 -0.1636377E-06  0.0000000E+00 -0.3279200E-05
  0.8131313E+00  0.0000000E+00  0.2525252E-01 -0.1582781E-06  0.0000000E+00 -0.3344834E-05
  0.8232324E+00  0.0000000E+00  0.2525252E-01 -0.1524427E-06  0.0000000E+00 -0.3408181E-05
  0.8333333E+00  0.0000000E+00  0.2525252E-01 -0.1461548E-06  0.0000000E+00 -0.3469053E-05
  0.8434343E+00  0.0000000E+00  0.2525252E-01 -0.1394388E-06  0.0000000E+00 -0.3527269E-05
  0.8535354E+00  0.0000000E+00  0.2525252E-01 -0.1323198E-06  0.0000000E+00 -0.3582662E-05
  0.8636364E+00  0.0000000E+00  0.2525252E-01 -0.1248235E-06  0.0000000E+00 -0.3635072E-05
  0.8737374E+00  0.0000000E+00  0.2525252E-01 -0.1169761E-06  0.0000000E+00 -0.3684351E-05
  0.8838384E+00  0.0000000E+00  0.2525252E-01 -0.1088038E-06  0.0000000E+00 -0.3730362E-05
  0.8939394E+00  0.0000000E+00  0.2525252E-01 -0.1003332E-06  0.0000000E+00 -0.3772979E-05
  0.9040404E+00  0.0000000E+00  0.2525252E-01 -0.9159088E-07  0.0000000E+00 -0.3812086E-05
  0.9141414E+00  0.0000000E+00  0.2525252E-01 -0.8260331E-07  0.0000000E+00 -0.3847578E-05
  0.9242424E+00  0.0000000E+00  0.2525252E-01 -0.7339690E-07  0.0000000E+00 -0.3879362E-05
  0.9343435E+00  0.0000000E+00  0.2525252E-01 -0.6399794E-07  0.0000000E+00 -0.3907354E-05
  0.9444444E+00  0.0000000E+00  0.2525252E-01 -0.5443253E-07  0.0000000E+00 -0.3931481E-05
  0.9545454E+00  0.0000000E+00  0.2525252E-01 -0.4472663E-07  0.0000000E+00 -0.3951682E-05
  0.9646465E+00  0.0000000E+00  0.2525252E-01 -0.3490603E-07  0.0000000E+00 -0.3967904E-05
  0.9747475E+00  0.0000000E+00  0.2525252E-01 -0.2499638E-07  0.0000000E+00 -0.3980106E-05
  0.9848485E+00  0.0000000E+00  0.2525252E-01 -0.1502321E-07  0.0000000E+00 -0.3988259E-05
  0.9974747E+00  0.0000000E+00  0.2525252E-01 -0.5011968E-08  0.0000000E+00 -0.3992340E-05
  0.5050505E-02  0.0000000E+00  0.3535353E-01  0.8320940E-08  0.0000000E+00 -0.2833990E-05
  0.1515152E-01  0.0000000E+00  0.3535353E-01  0.2491876E-07  0.0000000E+00 -0.2829016E-05
  0.2525252E-01  0.0000000E+00  0.3535353E-01  0.4138440E-07  0.0000000E+00 -0.2819094E-05
  0.3535353E-01  0.0000000E+00  0.3535353E-01  0.5762978E-07  0.0000000E+00 -0.2804275E-05
  0.4545455E-01  0.0000000E+00  0.3535353E-01  0.7356699E-07  0.0000000E+00 -0.2784639E-05
  0.5555556E-01  0.0000000E+00  0.3535353E-01  0.8910834E-07  0.0000000E+00 -0.2760288E-05
  0.6565657E-01  0.0000000E+00  0.3535353E-01  0.1041666E-06  0.0000000E+00 -0.2731353E-05
  0.7575758E-01  0.0000000E+00  0.3535353E-01  0.1186550E-06  0.0000000E+00 -0.2697989E-05
  0.8585858E-01  0.0000000E+00  0.3535353E-01  0.1324882E-06  0.0000000E+00 -0.2660379E-05
  0.9595960E-01  0.0000000E+00  0.3535353E-01  0.1455819E-06  0.0000000E+00 -0.2618728E-05
  0.1060606E+00  0.0000000E+00  0.3535353E-01  0.1578540E-06  0.0000000E+00 -0.2573270E-05
  0.1161616E+00  0.0000000E+00  0.3535353E-01  0.1692251E-06  0.0000000E+00 -0.2524262E-05
  0.1262626E+00  0.0000000E+00  0.3535353E-01  0.1796192E-06  0.0000000E+00 -0.2471983E-05
  0.1363636E+00  0.0000000E+00  0.3535353E-01  0.1889647E-06  0.0000000E+00 -0.2416738E-05
  0.1464646E+00  0.0000000E+00  0.3535353E-01  0.1971952E-06  0.0000000E+00 -0.2358851E-05
  0.1565657E+00  0.0000000E+00  0.3535353E-01  0.2042509E-06  0.0000000E+00 -0.2298666E-05
  0.1666667E+00  0.0000000E+00  0.3535353E-01  0.2100791E-06  0.0000000E+00 -0.2236547E-05
  0.1767677E+00  0.0000000E+00  0.3535353E-01  0.2146357E-06  0.0000000E+00 -0.2172869E-05
  0.1868687E+00  0.0000000E+00  0.3535353E-01  0.2178861E-06  0.0000000E+00 -0.2108023E-05
  0.1969697E+00  0.0000000E+00  0.3535353E-01  0.2198061E-06  0.0000000E+00 -0.2042409E-05
  0.2070707E+00  0.0000000E+00  0.3535353E-01  0.2203827E-06  0.0000000E+00 -0.1976431E-05
  0.2171717E+00  0.0000000E+00  0.3535353E-01  0.2196143E-06  0.0000000E+00 -0.1910499E-05
  0.2272727E+00  0.0000000E+00  0.3535353E-01  0.2175118E-06  0.0000000E+00 -0.1845018E-05
  0.2373737E+00  0.0000000E+00  0.3535353E-01  0.2140978E-06  0.0000000E+00 -0.1780390E-05
  0.2474747E+00  0.0000000E+00  0.3535353E-01  0.2094070E-06  0.0000000E+00 -0.1717008E-05
  0.2575758E+00  0.0000000E+00  0.3535353E-01  0.2034854E-06  0.0000000E+00 -0.1655251E-05
  0.2676768E+00  0.0000000E+00  0.3535353E-01  0.1963893E-06  0.0000000E+00 -0.1595484E-05
  0.2777778E+00  0.0000000E+00  0.3535353E-01  0.1881848E-06  0.0000000E+00 -0.1538048E-05
  0.2878788E+00  0.0000000E+00  0.3535353E-01  0.1789460E-06  0.0000000E+00 -0.1483268E-05
  0.2979798E+00  0.0000000E+00  0.3535353E-01  0.1687536E-06  0.0000000E+00 -0.1431439E-05