title = "dataset water"
variables = "x", "y", "z", "vx", "vy", "vz"
zone t = "velocities, solution time =  4.800E+01 days        " i =   99, j =   99, k =    1,  f=point
  0.5050505E-02  0.0000000E+00  0.5050505E-02  0.9371492E-08  0.0000000E+00  0.1739021E-04
  0.1515152E-01  0.0000000E+00  0.5050505E-02  0.2806088E-07  0.0000000E+00  0.1742783E-04
  0.2525252E-01  0.0000000E+00  0.5050505E-02  0.4658794E-07  0.0000000E+00  0.1750286E-04
  0.3535353E-01  0.0000000E+00  0.5050505E-02  0.6483938E-07  0.0000000E+00  0.1761485E-04
  0.4545455E-01  0.0000000E+00  0.5050505E-02  0.8269442E-07  0.0000000E+00  0.1776313E-04
  0.5555556E-01  0.0000000E+00  0.5050505E-02  0.1000219E-06  0.0000000E+00  0.1794678E-04
  0.6565657E-01  0.0000000E+00  0.5050505E-02  0.1166777E-06  0.0000000E+00  0.1816459E-04
  0.7575758E-01  0.0000000E+00  0.5050505E-02  0.1325031E-06  0.0000000E+00  0.1841506E-04
  0.8585858E-01  0.0000000E+00  0.5050505E-02  0.1473232E-06  0.0000000E+00  0.1869633E-04
  0.9595960E-01  0.0000000E+00  0.5050505E-02  0.1609473E-06  0.0000000E+00  0.1900621E-04
  0.1060606E+00  0.0000000E+00  0.5050505E-02  0.1731708E-06  0.0000000E+00  0.1934209E-04
  0.1161616E+00  0.0000000E+00  0.5050505E-02  0.1837789E-06  0.0000000E+00  0.1970093E-04
  0.1262626E+00  0.0000000E+00  0.5050505E-02  0.1925539E-06  0.0000000E+00  0.2007927E-04
  0.1363636E+00  0.0000000E+00  0.5050505E-02  0.1992852E-06  0.0000000E+00  0.2047322E-04
  0.1464646E+00  0.0000000E+00  0.5050505E-02  0.2037831E-06  0.0000000E+00  0.2087848E-04
  0.1565657E+00  0.0000000E+00  0.5050505E-02  0.2058951E-06  0.0000000E+00  0.2129041E-04
  0.1666667E+00  0.0000000E+00  0.5050505E-02  0.2055242E-06  0.0000000E+00  0.2170411E-04
  0.1767677E+00  0.0000000E+00  0.5050505E-02  0.2026453E-06  0.0000000E+00  0.2211456E-04
  0.1868687E+00  0.0000000E+00  0.5050505E-02  0.1973189E-06  0.0000000E+00  0.2251678E-04
  0.1969697E+00  0.0000000E+00  0.5050505E-02  0.1896956E-06  0.0000000E+00  0.2290600E-04
  0.2070707E+00  0.0000000E+00  0.5050505E-02  0.1800106E-06  0.0000000E+00  0.2327782E-04
  0.2171717E+00  0.0000000E+00  0.5050505E-02  0.1685669E-06  0.0000000E+00  0.2362842E-04
  0.2272727E+00  0.0000000E+00  0.5050505E-02  0.1557091E-06  0.0000000E+00  0.2395458E-04
  0.2373737E+00  0.0000000E+00  0.5050505E-02  0.1417936E-06  0.0000000E+00  0.2425383E-04
  0.2474747E+00  0.0000000E+00  0.5050505E-02  0.1271601E-06  0.0000000E+00  0.2452437E-04
  0.2575758E+00  0.0000000E+00  0.5050505E-02  0.1121120E-06  0.0000000E+00  0.2476506E-04
  0.2676768E+00  0.0000000E+00  0.5050505E-02  0.9690492E-07  0.0000000E+00  0.2497532E-04
  0.2777778E+00  0.0000000E+00  0.5050505E-02  0.8174555E-07  0.0000000E+00  0.2515505E-04
  0.2878788E+00  0.0000000E+00  0.5050505E-02  0.6679703E-07  0.0000000E+00  0.2530448E-04
  0.2979798E+00  0.0000000E+00  0.5050505E-02  0.5218743E-07  0.0000000E+00  0.2542418E-04
  0.3080808E+00  0.0000000E+00  0.5050505E-02  0.3801881E-07  0.0000000E+00  0.2551493E-04
  0.3181818E+00  0.0000000E+00  0.5050505E-02  0.2437451E-07  0.0000000E+00  0.2557771E-04
  0.3282828E+00  0.0000000E+00  0.5050505E-02  0.1132390E-07  0.0000000E+00  0.2561362E-04
  0.3383838E+00  0.0000000E+00  0.5050505E-02 -0.1075504E-08  0.0000000E+00  0.2562393E-04
  0.3484848E+00  0.0000000E+00  0.5050505E-02 -0.1277790E-07  0.0000000E+00  0.2560999E-04
  0.3585859E+00  0.0000000E+00  0.5050505E-02 -0.2375030E-07  0.0000000E+00  0.2557324E-04
  0.3686869E+00  0.0000000E+00  0.5050505E-02 -0.3397393E-07  0.0000000E+00  0.2551517E-04
  0.3787879E+00  0.0000000E+00  0.5050505E-02 -0.4344533E-07  0.0000000E+00  0.2543728E-04
  0.3888889E+00  0.0000000E+00  0.5050505E-02 -0.5217685E-07  0.0000000E+00  0.2534108E-04
  0.3989899E+00  0.0000000E+00  0.5050505E-02 -0.6019634E-07  0.0000000E+00  0.2522803E-04
  0.4090909E+00  0.0000000E+00  0.5050505E-02 -0.6754620E-07  0.0000000E+00  0.2509952E-04
  0.4191919E+00  0.0000000E+00  0.5050505E-02 -0.7428181E-07  0.0000000E+00  0.2495685E-04
  0.4292929E+00  0.0000000E+00  0.5050505E-02 -0.8046962E-07  0.0000000E+00  0.2480117E-04
  0.4393939E+00  0.0000000E+00  0.5050505E-02 -0.8618491E-07  0.0000000E+00  0.2463353E-04
  0.4494950E+00  0.0000000E+00  0.5050505E-02 -0.9150952E-07  0.0000000E+00  0.2445478E-04
  0.4595959E+00  0.0000000E+00  0.5050505E-02 -0.9652931E-07  0.0000000E+00  0.2426563E-04
  0.4696970E+00  0.0000000E+00  0.5050505E-02 -0.1013316E-06  0.0000000E+00  0.2406660E-04
  0.4797980E+00  0.0000000E+00  0.5050505E-02 -0.1060026E-06  0.0000000E+00  0.2385806E-04
  0.4898990E+00  0.0000000E+00  0.5050505E-02 -0.1106242E-06  0.0000000E+00  0.2364017E-04
  0.5000000E+00  0.0000000E+00  0.5050505E-02 -0.1152715E-06  0.0000000E+00  0.2341296E-04
  0.5101010E+00  0.0000000E+00  0.5050505E-02 -0.1200091E-06  0.0000000E+00  0.2317632E-04
  0.5202020E+00  0.0000000E+00  0.5050505E-02 -0.1248887E-06  0.0000000E+00  0.2293002E-04
  0.5303030E+00  0.0000000E+00  0.5050505E-02 -0.1299459E-06  0.0000000E+00  0.2267373E-04
  0.5404040E+00  0.0000000E+00  0.5050505E-02 -0.1351981E-06  0.0000000E+00  0.2240708E-04
  0.5505050E+00  0.0000000E+00  0.5050505E-02 -0.1406429E-06  0.0000000E+00  0.2212969E-04
  0.5606061E+00  0.0000000E+00  0.5050505E-02 -0.1462574E-06  0.0000000E+00  0.2184118E-04
  0.5707071E+00  0.0000000E+00  0.5050505E-02 -0.1519992E-06  0.0000000E+00  0.2154126E-04
  0.5808081E+00  0.0000000E+00  0.5050505E-02 -0.1578077E-06  0.0000000E+00  0.2122974E-04
  0.5909091E+00  0.0000000E+00  0.5050505E-02 -0.1636072E-06  0.0000000E+00  0.2090656E-04
  0.6010101E+00  0.0000000E+00  0.5050505E-02 -0.1693111E-06  0.0000000E+00  0.2057183E-04
  0.6111111E+00  0.0000000E+00  0.5050505E-02 -0.1748257E-06  0.0000000E+00  0.2022583E-04
  0.6212121E+00  0.0000000E+00  0.5050505E-02 -0.1800555E-06  0.0000000E+00  0.1986905E-04
  0.6313131E+00  0.0000000E+00  0.5050505E-02 -0.1849074E-06  0.0000000E+00  0.1950214E-04
  0.6414142E+00  0.0000000E+00  0.5050505E-02 -0.1892943E-06  0.0000000E+00  0.1912597E-04
  0.6515151E+00  0.0000000E+00  0.5050505E-02 -0.1931389E-06  0.0000000E+00  0.1874154E-04
  0.6616161E+00  0.0000000E+00  0.5050505E-02 -0.1963755E-06  0.0000000E+00  0.1835001E-04
  0.6717172E+00  0.0000000E+00  0.5050505E-02 -0.1989515E-06  0.0000000E+00  0.1795265E-04
  0.6818182E+00  0.0000000E+00  0.5050505E-02 -0.2008280E-06  0.0000000E+00  0.1755084E-04
  0.6919192E+00  0.0000000E+00  0.5050505E-02 -0.2019795E-06  0.0000000E+00  0.1714601E-04
  0.7020202E+00  0.0000000E+00  0.5050505E-02 -0.2023931E-06  0.0000000E+00  0.1673962E-04
  0.7121212E+00  0.0000000E+00  0.5050505E-02 -0.2020674E-06  0.0000000E+00  0.1633317E-04
  0.7222222E+00  0.0000000E+00  0.5050505E-02 -0.2010108E-06  0.0000000E+00  0.1592813E-04
  0.7323232E+00  0.0000000E+00  0.5050505E-02 -0.1992401E-06  0.0000000E+00  0.1552594E-04
  0.7424242E+00  0.0000000E+00  0.5050505E-02 -0.1967789E-06  0.0000000E+00  0.1512803E-04
  0.7525253E+00  0.0000000E+00  0.5050505E-02 -0.1936560E-06  0.0000000E+00  0.1473575E-04
  0.7626263E+00  0.0000000E+00  0.5050505E-02 -0.1899041E-06  0.0000000E+00  0.1435039E-04
  0.7727273E+00  0.0000000E+00  0.5050505E-02 -0.1855583E-06  0.0000000E+00  0.1397319E-04
  0.7828283E+00  0.0000000E+00  0.5050505E-02 -0.1806552E-06  0.0000000E+00  0.1360529E-04
  0.7929293E+00  0.0000000E+00  0.5050505E-02 -0.1752320E-06  0.0000000E+00  0.1324778E-04
  0.8030303E+00  0.0000000E+00  0.5050505E-02 -0.1693258E-06  0.0000000E+00  0.1290167E-04
  0.8131313E+00  0.0000000E+00  0.5050505E-02 -0.1629730E-06  0.0000000E+00  0.1256789E-04
  0.8232324E+00  0.0000000E+00  0.5050505E-02 -0.1562086E-06  0.0000000E+00  0.1224730E-04
  0.8333333E+00  0.0000000E+00  0.5050505E-02 -0.1490665E-06  0.0000000E+00  0.1194068E-04
  0.8434343E+00  0.0000000E+00  0.5050505E-02 -0.1415787E-06  0.0000000E+00  0.1164877E-04
  0.8535354E+00  0.0000000E+00  0.5050505E-02 -0.1337759E-06  0.0000000E+00  0.1137223E-04
  0.8636364E+00  0.0000000E+00  0.5050505E-02 -0.1256865E-06  0.0000000E+00  0.1111165E-04
  0.8737374E+00  0.0000000E+00  0.5050505E-02 -0.1173376E-06  0.0000000E+00  0.1086760E-04
  0.8838384E+00  0.0000000E+00  0.5050505E-02 -0.1087547E-06  0.0000000E+00  0.1064055E-04
  0.8939394E+00  0.0000000E+00  0.5050505E-02 -0.9996144E-07  0.0000000E+00  0.1043095E-04
  0.9040404E+00  0.0000000E+00  0.5050505E-02 -0.9098043E-07  0.0000000E+00  0.1023921E-04
  0.9141414E+00  0.0000000E+00  0.5050505E-02 -0.8183288E-07  0.0000000E+00  0.1006568E-04
  0.9242424E+00  0.0000000E+00  0.5050505E-02 -0.7253895E-07  0.0000000E+00  0.9910671E-05
  0.9343435E+00  0.0000000E+00  0.5050505E-02 -0.6311785E-07  0.0000000E+00  0.9774455E-05
  0.9444444E+00  0.0000000E+00  0.5050505E-02 -0.5358798E-07  0.0000000E+00  0.9657270E-05
  0.9545454E+00  0.0000000E+00  0.5050505E-02 -0.4396712E-07  0.0000000E+00  0.9559315E-05
  0.9646465E+00  0.0000000E+00  0.5050505E-02 -0.3427246E-07  0.0000000E+00  0.9480756E-05
  0.9747475E+00  0.0000000E+00  0.5050505E-02 -0.2452080E-07  0.0000000E+00  0.9421723E-05
  0.9848485E+00  0.0000000E+00  0.5050505E-02 -0.1472864E-07  0.0000000E+00  0.9382313E-05
  0.9974747E+00  0.0000000E+00  0.5050505E-02 -0.4912245E-08  0.0000000E+00  0.9362593E-05
  0.5050505E-02  0.0000000E+00  0.1515152E-01  0.2819785E-07  0.0000000E+00  0.1745609E-04
  0.1515152E-01  0.0000000E+00  0.1515152E-01  0.8443429E-07  0.0000000E+00  0.1749416E-04
  0.2525252E-01  0.0000000E+00  0.1515152E-01  0.1401883E-06  0.0000000E+00  0.1757008E-04
  0.3535353E-01  0.0000000E+00  0.1515152E-01  0.1951228E-06  0.0000000E+00  0.1768343E-04
  0.4545455E-01  0.0000000E+00  0.1515152E-01  0.2488781E-06  0.0000000E+00  0.1783355E-04
  0.5555556E-01  0.0000000E+00  0.1515152E-01  0.3010626E-06  0.0000000E+00  0.1801954E-04
  0.6565657E-01  0.0000000E+00  0.1515152E-01  0.3512458E-06  0.0000000E+00  0.1824020E-04
  0.7575758E-01  0.0000000E+00  0.1515152E-01  0.3989514E-06  0.0000000E+00  0.1849405E-04
  0.8585858E-01  0.0000000E+00  0.1515152E-01  0.4436540E-06  0.0000000E+00  0.1877929E-04
  0.9595960E-01  0.0000000E+00  0.1515152E-01  0.4847786E-06  0.0000000E+00  0.1909370E-04
  0.1060606E+00  0.0000000E+00  0.1515152E-01  0.5217055E-06  0.0000000E+00  0.1943469E-04
  0.1161616E+00  0.0000000E+00  0.1515152E-01  0.5537818E-06  0.0000000E+00  0.1979923E-04
  0.1262626E+00  0.0000000E+00  0.1515152E-01  0.5803423E-06  0.0000000E+00  0.2018381E-04
  0.1363636E+00  0.0000000E+00  0.1515152E-01  0.6007399E-06  0.0000000E+00  0.2058449E-04
  0.1464646E+00  0.0000000E+00  0.1515152E-01  0.6143869E-06  0.0000000E+00  0.2099687E-04
  0.1565657E+00  0.0000000E+00  0.1515152E-01  0.6208068E-06  0.0000000E+00  0.2141617E-04
  0.1666667E+00  0.0000000E+00  0.1515152E-01  0.6196898E-06  0.0000000E+00  0.2183733E-04
  0.1767677E+00  0.0000000E+00  0.1515152E-01  0.6109486E-06  0.0000000E+00  0.2225513E-04
  0.1868687E+00  0.0000000E+00  0.1515152E-01  0.5947600E-06  0.0000000E+00  0.2266435E-04
  0.1969697E+00  0.0000000E+00  0.1515152E-01  0.5715831E-06  0.0000000E+00  0.2306002E-04
  0.2070707E+00  0.0000000E+00  0.1515152E-01  0.5421434E-06  0.0000000E+00  0.2343755E-04
  0.2171717E+00  0.0000000E+00  0.1515152E-01  0.5073795E-06  0.0000000E+00  0.2379297E-04
  0.2272727E+00  0.0000000E+00  0.1515152E-01  0.4683591E-06  0.0000000E+00  0.2412301E-04
  0.2373737E+00  0.0000000E+00  0.1515152E-01  0.4261825E-06  0.0000000E+00  0.2442517E-04
  0.2474747E+00  0.0000000E+00  0.1515152E-01  0.3818931E-06  0.0000000E+00  0.2469771E-04
  0.2575758E+00  0.0000000E+00  0.1515152E-01  0.3364135E-06  0.0000000E+00  0.2493960E-04
  0.2676768E+00  0.0000000E+00  0.1515152E-01  0.2905136E-06  0.0000000E+00  0.2515035E-04
  0.2777778E+00  0.0000000E+00  0.1515152E-01  0.2448091E-06  0.0000000E+00  0.2532996E-04
  0.2878788E+00  0.0000000E+00  0.1515152E-01  0.1997808E-06  0.0000000E+00  0.2547879E-04
  0.2979798E+00  0.0000000E+00  0.1515152E-01  0.1558036E-06  0.0000000E+00  0.2559746E-04
  0.3080808E+00  0.0000000E+00  0.1515152E-01  0.1131759E-06  0.0000000E+00  0.2568683E-04
  0.3181818E+00  0.0000000E+00  0.1515152E-01  0.7214232E-07  0.0000000E+00  0.2574791E-04
  0.3282828E+00  0.0000000E+00  0.1515152E-01  0.3290834E-07  0.0000000E+00  0.2578187E-04
  0.3383838E+00  0.0000000E+00  0.1515152E-01 -0.4354107E-08  0.0000000E+00  0.2579001E-04
  0.3484848E+00  0.0000000E+00  0.1515152E-01 -0.3950702E-07  0.0000000E+00  0.2577372E-04
  0.3585859E+00  0.0000000E+00  0.1515152E-01 -0.7245042E-07  0.0000000E+00  0.2573447E-04
  0.3686869E+00  0.0000000E+00  0.1515152E-01 -0.1031272E-06  0.0000000E+00  0.2567381E-04
  0.3787879E+00  0.0000000E+00  0.1515152E-01 -0.1315269E-06  0.0000000E+00  0.2559328E-04
  0.3888889E+00  0.0000000E+00  0.1515152E-01 -0.1576873E-06  0.0000000E+00  0.2549444E-04
  0.3989899E+00  0.0000000E+00  0.1515152E-01 -0.1816932E-06  0.0000000E+00  0.2537879E-04
  0.4090909E+00  0.0000000E+00  0.1515152E-01 -0.2036741E-06  0.0000000E+00  0.2524775E-04
  0.4191919E+00  0.0000000E+00  0.1515152E-01 -0.2237985E-06  0.0000000E+00  0.2510266E-04
  0.4292929E+00  0.0000000E+00  0.1515152E-01 -0.2422686E-06  0.0000000E+00  0.2494471E-04
  0.4393939E+00  0.0000000E+00  0.1515152E-01 -0.2593134E-06  0.0000000E+00  0.2477494E-04
  0.4494950E+00  0.0000000E+00  0.1515152E-01 -0.2751813E-06  0.0000000E+00  0.2459426E-04
  0.4595959E+00  0.0000000E+00  0.1515152E-01 -0.2901333E-06  0.0000000E+00  0.2440335E-04
  0.4696970E+00  0.0000000E+00  0.1515152E-01 -0.3044347E-06  0.0000000E+00  0.2420276E-04
  0.4797980E+00  0.0000000E+00  0.1515152E-01 -0.3183473E-06  0.0000000E+00  0.2399282E-04
  0.4898990E+00  0.0000000E+00  0.1515152E-01 -0.3321207E-06  0.0000000E+00  0.2377371E-04
  0.5000000E+00  0.0000000E+00  0.1515152E-01 -0.3459833E-06  0.0000000E+00  0.2354543E-04
  0.5101010E+00  0.0000000E+00  0.1515152E-01 -0.3601327E-06  0.0000000E+00  0.2330783E-04
  0.5202020E+00  0.0000000E+00  0.1515152E-01 -0.3747269E-06  0.0000000E+00  0.2306064E-04
  0.5303030E+00  0.0000000E+00  0.1515152E-01 -0.3898750E-06  0.0000000E+00  0.2280351E-04
  0.5404040E+00  0.0000000E+00  0.1515152E-01 -0.4056308E-06  0.0000000E+00  0.2253602E-04
  0.5505050E+00  0.0000000E+00  0.1515152E-01 -0.4219876E-06  0.0000000E+00  0.2225772E-04
  0.5606061E+00  0.0000000E+00  0.1515152E-01 -0.4388760E-06  0.0000000E+00  0.2196821E-04
  0.5707071E+00  0.0000000E+00  0.1515152E-01 -0.4561662E-06  0.0000000E+00  0.2166716E-04
  0.5808081E+00  0.0000000E+00  0.1515152E-01 -0.4736731E-06  0.0000000E+00  0.2135432E-04
  0.5909091E+00  0.0000000E+00  0.1515152E-01 -0.4911656E-06  0.0000000E+00  0.2102961E-04
  0.6010101E+00  0.0000000E+00  0.1515152E-01 -0.5083783E-06  0.0000000E+00  0.2069312E-04
  0.6111111E+00  0.0000000E+00  0.1515152E-01 -0.5250255E-06  0.0000000E+00  0.2034512E-04
  0.6212121E+00  0.0000000E+00  0.1515152E-01 -0.5408155E-06  0.0000000E+00  0.1998611E-04
  0.6313131E+00  0.0000000E+00  0.1515152E-01 -0.5554644E-06  0.0000000E+00  0.1961675E-04
  0.6414142E+00  0.0000000E+00  0.1515152E-01 -0.5687079E-06  0.0000000E+00  0.1923792E-04
  0.6515151E+00  0.0000000E+00  0.1515152E-01 -0.5803111E-06  0.0000000E+00  0.1885065E-04
  0.6616161E+00  0.0000000E+00  0.1515152E-01 -0.5900757E-06  0.0000000E+00  0.1845614E-04
  0.6717172E+00  0.0000000E+00  0.1515152E-01 -0.5978432E-06  0.0000000E+00  0.1805570E-04
  0.6818182E+00  0.0000000E+00  0.1515152E-01 -0.6034971E-06  0.0000000E+00  0.1765072E-04
  0.6919192E+00  0.0000000E+00  0.1515152E-01 -0.6069618E-06  0.0000000E+00  0.1724268E-04
  0.7020202E+00  0.0000000E+00  0.1515152E-01 -0.6081999E-06  0.0000000E+00  0.1683308E-04
  0.7121212E+00  0.0000000E+00  0.1515152E-01 -0.6072085E-06  0.0000000E+00  0.1642342E-04
  0.7222222E+00  0.0000000E+00  0.1515152E-01 -0.6040150E-06  0.0000000E+00  0.1601521E-04
  0.7323232E+00  0.0000000E+00  0.1515152E-01 -0.5986714E-06  0.0000000E+00  0.1560993E-04
  0.7424242E+00  0.0000000E+00  0.1515152E-01 -0.5912502E-06  0.0000000E+00  0.1520901E-04
  0.7525253E+00  0.0000000E+00  0.1515152E-01 -0.5818395E-06  0.0000000E+00  0.1481380E-04
  0.7626263E+00  0.0000000E+00  0.1515152E-01 -0.5705385E-06  0.0000000E+00  0.1442564E-04
  0.7727273E+00  0.0000000E+00  0.1515152E-01 -0.5574538E-06  0.0000000E+00  0.1404574E-04
  0.7828283E+00  0.0000000E+00  0.1515152E-01 -0.5426964E-06  0.0000000E+00  0.1367527E-04
  0.7929293E+00  0.0000000E+00  0.1515152E-01 -0.5263787E-06  0.0000000E+00  0.1331532E-04
  0.8030303E+00  0.0000000E+00  0.1515152E-01 -0.5086126E-06  0.0000000E+00  0.1296689E-04
  0.8131313E+00  0.0000000E+00  0.1515152E-01 -0.4895076E-06  0.0000000E+00  0.1263092E-04
  0.8232324E+00  0.0000000E+00  0.1515152E-01 -0.4691695E-06  0.0000000E+00  0.1230826E-04
  0.8333333E+00  0.0000000E+00  0.1515152E-01 -0.4476999E-06  0.0000000E+00  0.1199972E-04
  0.8434343E+00  0.0000000E+00  0.1515152E-01 -0.4251954E-06  0.0000000E+00  0.1170600E-04
  0.8535354E+00  0.0000000E+00  0.1515152E-01 -0.4017473E-06  0.0000000E+00  0.1142778E-04
  0.8636364E+00  0.0000000E+00  0.1515152E-01 -0.3774417E-06  0.0000000E+00  0.1116565E-04
  0.8737374E+00  0.0000000E+00  0.1515152E-01 -0.3523594E-06  0.0000000E+00  0.1092016E-04
  0.8838384E+00  0.0000000E+00  0.1515152E-01 -0.3265765E-06  0.0000000E+00  0.1069179E-04
  0.8939394E+00  0.0000000E+00  0.1515152E-01 -0.3001645E-06  0.0000000E+00  0.1048100E-04
  0.9040404E+00  0.0000000E+00  0.1515152E-01 -0.2731906E-06  0.0000000E+00  0.1028817E-04
  0.9141414E+00  0.0000000E+00  0.1515152E-01 -0.2457184E-06  0.0000000E+00  0.1011367E-04
  0.9242424E+00  0.0000000E+00  0.1515152E-01 -0.2178081E-06  0.0000000E+00  0.9957794E-05
  0.9343435E+00  0.0000000E+00  0.1515152E-01 -0.1895174E-06  0.0000000E+00  0.9820827E-05
  0.9444444E+00  0.0000000E+00  0.1515152E-01 -0.1609012E-06  0.0000000E+00  0.9703000E-05
  0.9545454E+00  0.0000000E+00  0.1515152E-01 -0.1320127E-06  0.0000000E+00  0.9604512E-05
  0.9646465E+00  0.0000000E+00  0.1515152E-01 -0.1029034E-06  0.0000000E+00  0.9525526E-05
  0.9747475E+00  0.0000000E+00  0.1515152E-01 -0.7362355E-07  0.0000000E+00  0.9466174E-05
  0.9848485E+00  0.0000000E+00  0.1515152E-01 -0.4422247E-07  0.0000000E+00  0.9426552E-05
  0.9974747E+00  0.0000000E+00  0.1515152E-01 -0.1474889E-07  0.0000000E+00  0.9406725E-05
  0.5050505E-02  0.0000000E+00  0.2525252E-01  0.4730076E-07  0.0000000E+00  0.1758792E-04
  0.1515152E-01  0.0000000E+00  0.2525252E-01  0.1416418E-06  0.0000000E+00  0.1762687E-04
  0.2525252E-01  0.0000000E+00  0.2525252E-01  0.2351935E-06  0.0000000E+00  0.1770459E-04
  0.3535353E-01  0.0000000E+00  0.2525252E-01  0.3274036E-06  0.0000000E+00  0.1782065E-04
  0.4545455E-01  0.0000000E+00  0.2525252E-01  0.4176805E-06  0.0000000E+00  0.1797444E-04
  0.5555556E-01  0.0000000E+00  0.2525252E-01  0.5053789E-06  0.0000000E+00  0.1816508E-04
  0.6565657E-01  0.0000000E+00  0.2525252E-01  0.5897857E-06  0.0000000E+00  0.1839144E-04
  0.7575758E-01  0.0000000E+00  0.2525252E-01  0.6701087E-06  0.0000000E+00  0.1865209E-04
  0.8585858E-01  0.0000000E+00  0.2525252E-01  0.7454686E-06  0.0000000E+00  0.1894524E-04
  0.9595960E-01  0.0000000E+00  0.2525252E-01  0.8148971E-06  0.0000000E+00  0.1926875E-04
  0.1060606E+00  0.0000000E+00  0.2525252E-01  0.8773426E-06  0.0000000E+00  0.1962003E-04
  0.1161616E+00  0.0000000E+00  0.2525252E-01  0.9316883E-06  0.0000000E+00  0.1999603E-04
  0.1262626E+00  0.0000000E+00  0.2525252E-01  0.9767841E-06  0.0000000E+00  0.2039321E-04
  0.1363636E+00  0.0000000E+00  0.2525252E-01  0.1011498E-05  0.0000000E+00  0.2080750E-04
  0.1464646E+00  0.0000000E+00  0.2525252E-01  0.1034789E-05  0.0000000E+00  0.2123431E-04
  0.1565657E+00  0.0000000E+00  0.2525252E-01  0.1045792E-05  0.0000000E+00  0.2166860E-04
  0.1666667E+00  0.0000000E+00  0.2525252E-01  0.1043929E-05  0.0000000E+00  0.2210496E-04
  0.1767677E+00  0.0000000E+00  0.2525252E-01  0.1029006E-05  0.0000000E+00  0.2253773E-04
  0.1868687E+00  0.0000000E+00  0.2525252E-01  0.1001302E-05  0.0000000E+00  0.2296124E-04
  0.1969697E+00  0.0000000E+00  0.2525252E-01  0.9616048E-06  0.0000000E+00  0.2337005E-04
  0.2070707E+00  0.0000000E+00  0.2525252E-01  0.9111946E-06  0.0000000E+00  0.2375918E-04
  0.2171717E+00  0.0000000E+00  0.2525252E-01  0.8517402E-06  0.0000000E+00  0.2412435E-04
  0.2272727E+00  0.0000000E+00  0.2525252E-01  0.7851423E-06  0.0000000E+00  0.2446215E-04
  0.2373737E+00  0.0000000E+00  0.2525252E-01  0.7133465E-06  0.0000000E+00  0.2477009E-04
  0.2474747E+00  0.0000000E+00  0.2525252E-01  0.6381746E-06  0.0000000E+00  0.2504656E-04
  0.2575758E+00  0.0000000E+00  0.2525252E-01  0.5612083E-06  0.0000000E+00  0.2529070E-04
  0.2676768E+00  0.0000000E+00  0.2525252E-01  0.4837385E-06  0.0000000E+00  0.2550230E-04
  0.2777778E+00  0.0000000E+00  0.2525252E-01  0.4067731E-06  0.0000000E+00  0.2568158E-04
  0.2878788E+00  0.0000000E+00  0.2525252E-01  0.3310820E-06  0.0000000E+00  0.2582908E-04
  0.2979798E+00  0.0000000E+00  0.2525252E-01  0.2572571E-06  0.0000000E+00  0.2594561E-04
  0.3080808E+00  0.0000000E+00  0.2525252E-01  0.1857686E-06  0.0000000E+00  0.2603214E-04
  0.3181818E+00  0.0000000E+00  0.2525252E-01  0.1170066E-06  0.0000000E+00  0.2608977E-04
  0.3282828E+00  0.0000000E+00  0.2525252E-01  0.5130529E-07  0.0000000E+00  0.2611976E-04
  0.3383838E+00  0.0000000E+00  0.2525252E-01 -0.1104987E-07  0.0000000E+00  0.2612348E-04
  0.3484848E+00  0.0000000E+00  0.2525252E-01 -0.6982571E-07  0.0000000E+00  0.2610240E-04
  0.3585859E+00  0.0000000E+00  0.2525252E-01 -0.1248515E-06  0.0000000E+00  0.2605810E-04
  0.3686869E+00  0.0000000E+00  0.2525252E-01 -0.1760289E-06  0.0000000E+00  0.2599218E-04
  0.3787879E+00  0.0000000E+00  0.2525252E-01 -0.2233400E-06  0.0000000E+00  0.2590631E-04
  0.3888889E+00  0.0000000E+00  0.2525252E-01 -0.2668499E-06  0.0000000E+00  0.2580211E-04
  0.3989899E+00  0.0000000E+00  0.2525252E-01 -0.3067053E-06  0.0000000E+00  0.2568118E-04
  0.4090909E+00  0.0000000E+00  0.2525252E-01 -0.3431291E-06  0.0000000E+00  0.2554503E-04
  0.4191919E+00  0.0000000E+00  0.2525252E-01 -0.3764110E-06  0.0000000E+00  0.2539505E-04
  0.4292929E+00  0.0000000E+00  0.2525252E-01 -0.4068976E-06  0.0000000E+00  0.2523250E-04
  0.4393939E+00  0.0000000E+00  0.2525252E-01 -0.4349808E-06  0.0000000E+00  0.2505848E-04
  0.4494950E+00  0.0000000E+00  0.2525252E-01 -0.4610856E-06  0.0000000E+00  0.2487388E-04
  0.4595959E+00  0.0000000E+00  0.2525252E-01 -0.4856578E-06  0.0000000E+00  0.2467945E-04
  0.4696970E+00  0.0000000E+00  0.2525252E-01 -0.5091511E-06  0.0000000E+00  0.2447571E-04
  0.4797980E+00  0.0000000E+00  0.2525252E-01 -0.5320136E-06  0.0000000E+00  0.2426300E-04
  0.4898990E+00  0.0000000E+00  0.2525252E-01 -0.5546735E-06  0.0000000E+00  0.2404145E-04
  0.5000000E+00  0.0000000E+00  0.2525252E-01 -0.5775234E-06  0.0000000E+00  0.2381103E-04
  0.5101010E+00  0.0000000E+00  0.2525252E-01 -0.6009046E-06  0.0000000E+00  0.2357153E-04
  0.5202020E+00  0.0000000E+00  0.2525252E-01 -0.6250906E-06  0.0000000E+00  0.2332262E-04
  0.5303030E+00  0.0000000E+00  0.2525252E-01 -0.6502721E-06  0.0000000E+00  0.2306385E-04
  0.5404040E+00  0.0000000E+00  0.2525252E-01 -0.6765440E-06  0.0000000E+00  0.2279470E-04
  0.5505050E+00  0.0000000E+00  0.2525252E-01 -0.7038967E-06  0.0000000E+00  0.2251465E-04
  0.5606061E+00  0.0000000E+00  0.2525252E-01 -0.7322119E-06  0.0000000E+00  0.2222318E-04
  0.5707071E+00  0.0000000E+00  0.2525252E-01 -0.7612654E-06  0.0000000E+00  0.2191987E-04
  0.5808081E+00  0.0000000E+00  0.2525252E-01 -0.7907369E-06  0.0000000E+00  0.2160440E-04
  0.5909091E+00  0.0000000E+00  0.2525252E-01 -0.8202261E-06  0.0000000E+00  0.2127664E-04
  0.6010101E+00  0.0000000E+00  0.2525252E-01 -0.8492732E-06  0.0000000E+00  0.2093662E-04
  0.6111111E+00  0.0000000E+00  0.2525252E-01 -0.8773841E-06  0.0000000E+00  0.2058462E-04
  0.6212121E+00  0.0000000E+00  0.2525252E-01 -0.9040556E-06  0.0000000E+00  0.2022111E-04
  0.6313131E+00  0.0000000E+00  0.2525252E-01 -0.9287992E-06  0.0000000E+00  0.1984681E-04
  0.6414142E+00  0.0000000E+00  0.2525252E-01 -0.9511625E-06  0.0000000E+00  0.1946261E-04
  0.6515151E+00  0.0000000E+00  0.2525252E-01 -0.9707455E-06  0.0000000E+00  0.1906963E-04
  0.6616161E+00  0.0000000E+00  0.2525252E-01 -0.9872120E-06  0.0000000E+00  0.1866911E-04
  0.6717172E+00  0.0000000E+00  0.2525252E-01 -0.1000296E-05  0.0000000E+00  0.1826243E-04
  0.6818182E+00  0.0000000E+00  0.2525252E-01 -0.1009805E-05  0.0000000E+00  0.1785107E-04
  0.6919192E+00  0.0000000E+00  0.2525252E-01 -0.1015615E-05  0.0000000E+00  0.1743656E-04
  0.7020202E+00  0.0000000E+00  0.2525252E-01 -0.1017669E-05  0.0000000E+00  0.1702047E-04
  0.7121212E+00  0.0000000E+00  0.2525252E-01 -0.1015966E-05  0.0000000E+00  0.1660436E-04
  0.7222222E+00  0.0000000E+00  0.2525252E-01 -0.1010559E-05  0.0000000E+00  0.1618979E-04
  0.7323232E+00  0.0000000E+00  0.2525252E-01 -0.1001541E-05  0.0000000E+00  0.1577828E-04
  0.7424242E+00  0.0000000E+00  0.2525252E-01 -0.9890384E-06  0.0000000E+00  0.1537130E-04
  0.7525253E+00  0.0000000E+00  0.2525252E-01 -0.9732027E-06  0.0000000E+00  0.1497023E-04
  0.7626263E+00  0.0000000E+00  0.2525252E-01 -0.9542045E-06  0.0000000E+00  0.1457642E-04
  0.7727273E+00  0.0000000E+00  0.2525252E-01 -0.9322256E-06  0.0000000E+00  0.1419111E-04
  0.7828283E+00  0.0000000E+00  0.2525252E-01 -0.9074545E-06  0.0000000E+00  0.1381548E-04
  0.7929293E+00  0.0000000E+00  0.2525252E-01 -0.8800815E-06  0.0000000E+00  0.1345062E-04
  0.8030303E+00  0.0000000E+00  0.2525252E-01 -0.8502952E-06  0.0000000E+00  0.1309754E-04
  0.8131313E+00  0.0000000E+00  0.2525252E-01 -0.8182799E-06  0.0000000E+00  0.1275718E-04
  0.8232324E+00  0.0000000E+00  0.2525252E-01 -0.7842135E-06  0.0000000E+00  0.1243040E-04
  0.8333333E+00  0.0000000E+00  0.2525252E-01 -0.7482660E-06  0.0000000E+00  0.1211799E-04
  0.8434343E+00  0.0000000E+00  0.2525252E-01 -0.7105990E-06  0.0000000E+00  0.1182066E-04
  0.8535354E+00  0.0000000E+00  0.2525252E-01 -0.6713648E-06  0.0000000E+00  0.1153907E-04
  0.8636364E+00  0.0000000E+00  0.2525252E-01 -0.6307069E-06  0.0000000E+00  0.1127383E-04
  0.8737374E+00  0.0000000E+00  0.2525252E-01 -0.5887601E-06  0.0000000E+00  0.1102546E-04
  0.8838384E+00  0.0000000E+00  0.2525252E-01 -0.5456508E-06  0.0000000E+00  0.1079445E-04
  0.8939394E+00  0.0000000E+00  0.2525252E-01 -0.5014976E-06  0.0000000E+00  0.1058126E-04
  0.9040404E+00  0.0000000E+00  0.2525252E-01 -0.4564123E-06  0.0000000E+00  0.1038626E-04
  0.9141414E+00  0.0000000E+00  0.2525252E-01 -0.4105003E-06  0.0000000E+00  0.1020981E-04
  0.9242424E+00  0.0000000E+00  0.2525252E-01 -0.3638618E-06  0.0000000E+00  0.1005221E-04
  0.9343435E+00  0.0000000E+00  0.2525252E-01 -0.3165919E-06  0.0000000E+00  0.9913739E-05
  0.9444444E+00  0.0000000E+00  0.2525252E-01 -0.2687820E-06  0.0000000E+00  0.9794626E-05
  0.9545454E+00  0.0000000E+00  0.2525252E-01 -0.2205204E-06  0.0000000E+00  0.9695069E-05
  0.9646465E+00  0.0000000E+00  0.2525252E-01 -0.1718923E-06  0.0000000E+00  0.9615230E-05
  0.9747475E+00  0.0000000E+00  0.2525252E-01 -0.1229812E-06  0.0000000E+00  0.9555238E-05
  0.9848485E+00  0.0000000E+00  0.2525252E-01 -0.7386892E-07  0.0000000E+00  0.9515190E-05
  0.9974747E+00  0.0000000E+00  0.2525252E-01 -0.2463635E-07  0.0000000E+00  0.9495150E-05
  0.5050505E-02  0.0000000E+00  0.3535353E-01  0.6689819E-07  0.0000000E+00  0.1778548E-04
  0.1515152E-01  0.0000000E+00  0.3535353E-01  0.2003403E-06  0.0000000E+00  0.1782576E-04
  0.2525252E-01  0.0000000E+00  0.3535353E-01  0.3327081E-06  0.0000000E+00  0.1790615E-04
  0.3535353E-01  0.0000000E+00  0.3535353E-01  0.4632479E-06  0.0000000E+00  0.1802627E-04
  0.4545455E-01  0.0000000E+00  0.3535353E-01  0.5911494E-06  0.0000000E+00  0.1818554E-04
  0.5555556E-01  0.0000000E+00  0.3535353E-01  0.7155242E-06  0.0000000E+00  0.1838316E-04
  0.6565657E-01  0.0000000E+00  0.3535353E-01  0.8353843E-06  0.0000000E+00  0.1861806E-04
  0.7575758E-01  0.0000000E+00  0.3535353E-01  0.9496244E-06  0.0000000E+00  0.1888889E-04
  0.8585858E-01  0.0000000E+00  0.3535353E-01  0.1057008E-05  0.0000000E+00  0.1919396E-04
  0.9595960E-01  0.0000000E+00  0.3535353E-01  0.1156158E-05  0.0000000E+00  0.1953117E-04
  0.1060606E+00  0.0000000E+00  0.3535353E-01  0.1245566E-05  0.0000000E+00  0.1989800E-04
  0.1161616E+00  0.0000000E+00  0.3535353E-01  0.1323607E-05  0.0000000E+00  0.2029140E-04
  0.1262626E+00  0.0000000E+00  0.3535353E-01  0.1388584E-05  0.0000000E+00  0.2070775E-04
  0.1363636E+00  0.0000000E+00  0.3535353E-01  0.1438796E-05  0.0000000E+00  0.2114283E-04
  0.1464646E+00  0.0000000E+00  0.3535353E-01  0.1472645E-05  0.0000000E+00  0.2159179E-04
  0.1565657E+00  0.0000000E+00  0.3535353E-01  0.1488768E-05  0.0000000E+00  0.2204918E-04
  0.1666667E+00  0.0000000E+00  0.3535353E-01  0.1486204E-05  0.0000000E+00  0.2250902E-04
  0.1767677E+00  0.0000000E+00  0.3535353E-01  0.1464567E-05  0.0000000E+00  0.2296499E-04
  0.1868687E+00  0.0000000E+00  0.3535353E-01  0.1424201E-05  0.0000000E+00  0.2341066E-04
  0.1969697E+00  0.0000000E+00  0.3535353E-01  0.1366261E-05  0.0000000E+00  0.2383982E-04
  0.2070707E+00  0.0000000E+00  0.3535353E-01  0.1292694E-05  0.0000000E+00  0.2424680E-04
  0.2171717E+00  0.0000000E+00  0.3535353E-01  0.1206081E-05  0.0000000E+00  0.2462686E-04
  0.2272727E+00  0.0000000E+00  0.3535353E-01  0.1109367E-05  0.0000000E+00  0.2497635E-04
  0.2373737E+00  0.0000000E+00  0.3535353E-01  0.1005535E-05  0.0000000E+00  0.2529281E-04
  0.2474747E+00  0.0000000E+00  0.3535353E-01  0.8973226E-06  0.0000000E+00  0.2557489E-04
  0.2575758E+00  0.0000000E+00  0.3535353E-01  0.7870347E-06  0.0000000E+00  0.2582211E-04
  0.2676768E+00  0.0000000E+00  0.3535353E-01  0.6764855E-06  0.0000000E+00  0.2603465E-04
  0.2777778E+00  0.0000000E+00  0.3535353E-01  0.5670345E-06  0.0000000E+00  0.2621311E-04
  0.2878788E+00  0.0000000E+00  0.3535353E-01  0.4596818E-06  0.0000000E+00  0.2635837E-04
  0.2979798E+00  0.0000000E+00  0.3535353E-01  0.3551784E-06  0.0000000E+00  0.2647146E-04