title = "dataset water"
variables = "x", "y", "z", "vx", "vy", "vz"
zone t = "velocities, solution time =  3.000E+01 days        " i =   99, j =   99, k =    1,  f=point
  0.5050505E-02  0.0000000E+00  0.5050505E-02  0.4245491E-10  0.0000000E+00 -0.9608875E-05
  0.1515152E-01  0.0000000E+00  0.5050505E-02  0.1271870E-09  0.0000000E+00 -0.9608705E-05
  0.2525252E-01  0.0000000E+00  0.5050505E-02  0.2113832E-09  0.0000000E+00 -0.9608366E-05
  0.3535353E-01  0.0000000E+00  0.5050505E-02  0.2946870E-09  0.0000000E+00 -0.9607859E-05
  0.4545455E-01  0.0000000E+00  0.5050505E-02  0.3767443E-09  0.0000000E+00 -0.9607187E-05
  0.5555556E-01  0.0000000E+00  0.5050505E-02  0.4572036E-09  0.0000000E+00 -0.9606352E-05
  0.6565657E-01  0.0000000E+00  0.5050505E-02  0.5357168E-09  0.0000000E+00 -0.9605358E-05
  0.7575758E-01  0.0000000E+00  0.5050505E-02  0.6119402E-09  0.0000000E+00 -0.9604209E-05
  0.8585858E-01  0.0000000E+00  0.5050505E-02  0.6855358E-09  0.0000000E+00 -0.9602910E-05
  0.9595960E-01  0.0000000E+00  0.5050505E-02  0.7561720E-09  0.0000000E+00 -0.9601467E-05
  0.1060606E+00  0.0000000E+00  0.5050505E-02  0.8235248E-09  0.0000000E+00 -0.9599885E-05
  0.1161616E+00  0.0000000E+00  0.5050505E-02  0.8872795E-09  0.0000000E+00 -0.9598172E-05
  0.1262626E+00  0.0000000E+00  0.5050505E-02  0.9471317E-09  0.0000000E+00 -0.9596336E-05
  0.1363636E+00  0.0000000E+00  0.5050505E-02  0.1002789E-08  0.0000000E+00 -0.9594383E-05
  0.1464646E+00  0.0000000E+00  0.5050505E-02  0.1053972E-08  0.0000000E+00 -0.9592324E-05
  0.1565657E+00  0.0000000E+00  0.5050505E-02  0.1100417E-08  0.0000000E+00 -0.9590167E-05
  0.1666667E+00  0.0000000E+00  0.5050505E-02  0.1141876E-08  0.0000000E+00 -0.9587922E-05
  0.1767677E+00  0.0000000E+00  0.5050505E-02  0.1178121E-08  0.0000000E+00 -0.9585600E-05
  0.1868687E+00  0.0000000E+00  0.5050505E-02  0.1208944E-08  0.0000000E+00 -0.9583210E-05
  0.1969697E+00  0.0000000E+00  0.5050505E-02  0.1234158E-08  0.0000000E+00 -0.9580764E-05
  0.2070707E+00  0.0000000E+00  0.5050505E-02  0.1253599E-08  0.0000000E+00 -0.9578273E-05
  0.2171717E+00  0.0000000E+00  0.5050505E-02  0.1267131E-08  0.0000000E+00 -0.9575749E-05
  0.2272727E+00  0.0000000E+00  0.5050505E-02  0.1274642E-08  0.0000000E+00 -0.9573205E-05
  0.2373737E+00  0.0000000E+00  0.5050505E-02  0.1276051E-08  0.0000000E+00 -0.9570651E-05
  0.2474747E+00  0.0000000E+00  0.5050505E-02  0.1271304E-08  0.0000000E+00 -0.9568101E-05
  0.2575758E+00  0.0000000E+00  0.5050505E-02  0.1260379E-08  0.0000000E+00 -0.9565566E-05
  0.2676768E+00  0.0000000E+00  0.5050505E-02  0.1243284E-08  0.0000000E+00 -0.9563059E-05
  0.2777778E+00  0.0000000E+00  0.5050505E-02  0.1220062E-08  0.0000000E+00 -0.9560593E-05
  0.2878788E+00  0.0000000E+00  0.5050505E-02  0.1190786E-08  0.0000000E+00 -0.9558179E-05
  0.2979798E+00  0.0000000E+00  0.5050505E-02  0.1155560E-08  0.0000000E+00 -0.9555830E-05
  0.3080808E+00  0.0000000E+00  0.5050505E-02  0.1114525E-08  0.0000000E+00 -0.9553558E-05
  0.3181818E+00  0.0000000E+00  0.5050505E-02  0.1067848E-08  0.0000000E+00 -0.9551373E-05
  0.3282828E+00  0.0000000E+00  0.5050505E-02  0.1015732E-08  0.0000000E+00 -0.9549287E-05
  0.3383838E+00  0.0000000E+00  0.5050505E-02  0.9584066E-09  0.0000000E+00 -0.9547310E-05
  0.3484848E+00  0.0000000E+00  0.5050505E-02  0.8961307E-09  0.0000000E+00 -0.9545454E-05
  0.3585859E+00  0.0000000E+00  0.5050505E-02  0.8291905E-09  0.0000000E+00 -0.9543726E-05
  0.3686869E+00  0.0000000E+00  0.5050505E-02  0.7578971E-09  0.0000000E+00 -0.9542137E-05
  0.3787879E+00  0.0000000E+00  0.5050505E-02  0.6825845E-09  0.0000000E+00 -0.9540695E-05
  0.3888889E+00  0.0000000E+00  0.5050505E-02  0.6036076E-09  0.0000000E+00 -0.9539407E-05
  0.3989899E+00  0.0000000E+00  0.5050505E-02  0.5213398E-09  0.0000000E+00 -0.9538281E-05
  0.4090909E+00  0.0000000E+00  0.5050505E-02  0.4361705E-09  0.0000000E+00 -0.9537322E-05
  0.4191919E+00  0.0000000E+00  0.5050505E-02  0.3485028E-09  0.0000000E+00 -0.9536537E-05
  0.4292929E+00  0.0000000E+00  0.5050505E-02  0.2587504E-09  0.0000000E+00 -0.9535929E-05
  0.4393939E+00  0.0000000E+00  0.5050505E-02  0.1673358E-09  0.0000000E+00 -0.9535502E-05
  0.4494950E+00  0.0000000E+00  0.5050505E-02  0.7468670E-10  0.0000000E+00 -0.9535260E-05
  0.4595959E+00  0.0000000E+00  0.5050505E-02 -0.1876553E-10  0.0000000E+00 -0.9535204E-05
  0.4696970E+00  0.0000000E+00  0.5050505E-02 -0.1125890E-09  0.0000000E+00 -0.9535336E-05
  0.4797980E+00  0.0000000E+00  0.5050505E-02 -0.2063537E-09  0.0000000E+00 -0.9535655E-05
  0.4898990E+00  0.0000000E+00  0.5050505E-02 -0.2996334E-09  0.0000000E+00 -0.9536161E-05
  0.5000000E+00  0.0000000E+00  0.5050505E-02 -0.3920086E-09  0.0000000E+00 -0.9536854E-05
  0.5101010E+00  0.0000000E+00  0.5050505E-02 -0.4830680E-09  0.0000000E+00 -0.9537730E-05
  0.5202020E+00  0.0000000E+00  0.5050505E-02 -0.5724111E-09  0.0000000E+00 -0.9538787E-05
  0.5303030E+00  0.0000000E+00  0.5050505E-02 -0.6596499E-09  0.0000000E+00 -0.9540020E-05
  0.5404040E+00  0.0000000E+00  0.5050505E-02 -0.7444106E-09  0.0000000E+00 -0.9541426E-05
  0.5505050E+00  0.0000000E+00  0.5050505E-02 -0.8263356E-09  0.0000000E+00 -0.9542999E-05
  0.5606061E+00  0.0000000E+00  0.5050505E-02 -0.9050850E-09  0.0000000E+00 -0.9544732E-05
  0.5707071E+00  0.0000000E+00  0.5050505E-02 -0.9803379E-09  0.0000000E+00 -0.9546620E-05
  0.5808081E+00  0.0000000E+00  0.5050505E-02 -0.1051794E-08  0.0000000E+00 -0.9548654E-05
  0.5909091E+00  0.0000000E+00  0.5050505E-02 -0.1119175E-08  0.0000000E+00 -0.9550828E-05
  0.6010101E+00  0.0000000E+00  0.5050505E-02 -0.1182224E-08  0.0000000E+00 -0.9553132E-05
  0.6111111E+00  0.0000000E+00  0.5050505E-02 -0.1240709E-08  0.0000000E+00 -0.9555557E-05
  0.6212121E+00  0.0000000E+00  0.5050505E-02 -0.1294423E-08  0.0000000E+00 -0.9558096E-05
  0.6313131E+00  0.0000000E+00  0.5050505E-02 -0.1343183E-08  0.0000000E+00 -0.9560736E-05
  0.6414142E+00  0.0000000E+00  0.5050505E-02 -0.1386832E-08  0.0000000E+00 -0.9563470E-05
  0.6515151E+00  0.0000000E+00  0.5050505E-02 -0.1425238E-08  0.0000000E+00 -0.9566285E-05
  0.6616161E+00  0.0000000E+00  0.5050505E-02 -0.1458296E-08  0.0000000E+00 -0.9569172E-05
  0.6717172E+00  0.0000000E+00  0.5050505E-02 -0.1485927E-08  0.0000000E+00 -0.9572119E-05
  0.6818182E+00  0.0000000E+00  0.5050505E-02 -0.1508075E-08  0.0000000E+00 -0.9575117E-05
  0.6919192E+00  0.0000000E+00  0.5050505E-02 -0.1524713E-08  0.0000000E+00 -0.9578153E-05
  0.7020202E+00  0.0000000E+00  0.5050505E-02 -0.1535836E-08  0.0000000E+00 -0.9581218E-05
  0.7121212E+00  0.0000000E+00  0.5050505E-02 -0.1541464E-08  0.0000000E+00 -0.9584298E-05
  0.7222222E+00  0.0000000E+00  0.5050505E-02 -0.1541637E-08  0.0000000E+00 -0.9587385E-05
  0.7323232E+00  0.0000000E+00  0.5050505E-02 -0.1536422E-08  0.0000000E+00 -0.9590467E-05
  0.7424242E+00  0.0000000E+00  0.5050505E-02 -0.1525902E-08  0.0000000E+00 -0.9593533E-05
  0.7525253E+00  0.0000000E+00  0.5050505E-02 -0.1510181E-08  0.0000000E+00 -0.9596572E-05
  0.7626263E+00  0.0000000E+00  0.5050505E-02 -0.1489380E-08  0.0000000E+00 -0.9599576E-05
  0.7727273E+00  0.0000000E+00  0.5050505E-02 -0.1463638E-08  0.0000000E+00 -0.9602532E-05
  0.7828283E+00  0.0000000E+00  0.5050505E-02 -0.1433109E-08  0.0000000E+00 -0.9605432E-05
  0.7929293E+00  0.0000000E+00  0.5050505E-02 -0.1397957E-08  0.0000000E+00 -0.9608267E-05
  0.8030303E+00  0.0000000E+00  0.5050505E-02 -0.1358362E-08  0.0000000E+00 -0.9611026E-05
  0.8131313E+00  0.0000000E+00  0.5050505E-02 -0.1314511E-08  0.0000000E+00 -0.9613702E-05
  0.8232324E+00  0.0000000E+00  0.5050505E-02 -0.1266602E-08  0.0000000E+00 -0.9616286E-05
  0.8333333E+00  0.0000000E+00  0.5050505E-02 -0.1214840E-08  0.0000000E+00 -0.9618771E-05
  0.8434343E+00  0.0000000E+00  0.5050505E-02 -0.1159436E-08  0.0000000E+00 -0.9621148E-05
  0.8535354E+00  0.0000000E+00  0.5050505E-02 -0.1100605E-08  0.0000000E+00 -0.9623410E-05
  0.8636364E+00  0.0000000E+00  0.5050505E-02 -0.1038566E-08  0.0000000E+00 -0.9625552E-05
  0.8737374E+00  0.0000000E+00  0.5050505E-02 -0.9735412E-09  0.0000000E+00 -0.9627567E-05
  0.8838384E+00  0.0000000E+00  0.5050505E-02 -0.9057546E-09  0.0000000E+00 -0.9629448E-05
  0.8939394E+00  0.0000000E+00  0.5050505E-02 -0.8354305E-09  0.0000000E+00 -0.9631191E-05
  0.9040404E+00  0.0000000E+00  0.5050505E-02 -0.7627940E-09  0.0000000E+00 -0.9632792E-05
  0.9141414E+00  0.0000000E+00  0.5050505E-02 -0.6880696E-09  0.0000000E+00 -0.9634244E-05
  0.9242424E+00  0.0000000E+00  0.5050505E-02 -0.6114814E-09  0.0000000E+00 -0.9635545E-05
  0.9343435E+00  0.0000000E+00  0.5050505E-02 -0.5332526E-09  0.0000000E+00 -0.9636691E-05
  0.9444444E+00  0.0000000E+00  0.5050505E-02 -0.4536052E-09  0.0000000E+00 -0.9637679E-05
  0.9545454E+00  0.0000000E+00  0.5050505E-02 -0.3727599E-09  0.0000000E+00 -0.9638507E-05
  0.9646465E+00  0.0000000E+00  0.5050505E-02 -0.2909365E-09  0.0000000E+00 -0.9639171E-05
  0.9747475E+00  0.0000000E+00  0.5050505E-02 -0.2083535E-09  0.0000000E+00 -0.9639671E-05
  0.9848485E+00  0.0000000E+00  0.5050505E-02 -0.1252287E-09  0.0000000E+00 -0.9640005E-05
  0.9974747E+00  0.0000000E+00  0.5050505E-02 -0.4177919E-10  0.0000000E+00 -0.9640172E-05
  0.5050505E-02  0.0000000E+00  0.1515152E-01  0.1277440E-09  0.0000000E+00 -0.9595900E-05
  0.1515152E-01  0.0000000E+00  0.1515152E-01  0.3826971E-09  0.0000000E+00 -0.9595728E-05
  0.2525252E-01  0.0000000E+00  0.1515152E-01  0.6360388E-09  0.0000000E+00 -0.9595385E-05
  0.3535353E-01  0.0000000E+00  0.1515152E-01  0.8866975E-09  0.0000000E+00 -0.9594872E-05
  0.4545455E-01  0.0000000E+00  0.1515152E-01  0.1133608E-08  0.0000000E+00 -0.9594192E-05
  0.5555556E-01  0.0000000E+00  0.1515152E-01  0.1375714E-08  0.0000000E+00 -0.9593347E-05
  0.6565657E-01  0.0000000E+00  0.1515152E-01  0.1611968E-08  0.0000000E+00 -0.9592341E-05
  0.7575758E-01  0.0000000E+00  0.1515152E-01  0.1841336E-08  0.0000000E+00 -0.9591179E-05
  0.8585858E-01  0.0000000E+00  0.1515152E-01  0.2062802E-08  0.0000000E+00 -0.9589864E-05
  0.9595960E-01  0.0000000E+00  0.1515152E-01  0.2275368E-08  0.0000000E+00 -0.9588404E-05
  0.1060606E+00  0.0000000E+00  0.1515152E-01  0.2478060E-08  0.0000000E+00 -0.9586803E-05
  0.1161616E+00  0.0000000E+00  0.1515152E-01  0.2669930E-08  0.0000000E+00 -0.9585070E-05
  0.1262626E+00  0.0000000E+00  0.1515152E-01  0.2850062E-08  0.0000000E+00 -0.9583211E-05
  0.1363636E+00  0.0000000E+00  0.1515152E-01  0.3017576E-08  0.0000000E+00 -0.9581235E-05
  0.1464646E+00  0.0000000E+00  0.1515152E-01  0.3171631E-08  0.0000000E+00 -0.9579151E-05
  0.1565657E+00  0.0000000E+00  0.1515152E-01  0.3311432E-08  0.0000000E+00 -0.9576968E-05
  0.1666667E+00  0.0000000E+00  0.1515152E-01  0.3436235E-08  0.0000000E+00 -0.9574696E-05
  0.1767677E+00  0.0000000E+00  0.1515152E-01  0.3545350E-08  0.0000000E+00 -0.9572345E-05
  0.1868687E+00  0.0000000E+00  0.1515152E-01  0.3638150E-08  0.0000000E+00 -0.9569925E-05
  0.1969697E+00  0.0000000E+00  0.1515152E-01  0.3714071E-08  0.0000000E+00 -0.9567449E-05
  0.2070707E+00  0.0000000E+00  0.1515152E-01  0.3772623E-08  0.0000000E+00 -0.9564928E-05
  0.2171717E+00  0.0000000E+00  0.1515152E-01  0.3813391E-08  0.0000000E+00 -0.9562373E-05
  0.2272727E+00  0.0000000E+00  0.1515152E-01  0.3836041E-08  0.0000000E+00 -0.9559797E-05
  0.2373737E+00  0.0000000E+00  0.1515152E-01  0.3840324E-08  0.0000000E+00 -0.9557211E-05
  0.2474747E+00  0.0000000E+00  0.1515152E-01  0.3826080E-08  0.0000000E+00 -0.9554629E-05
  0.2575758E+00  0.0000000E+00  0.1515152E-01  0.3793241E-08  0.0000000E+00 -0.9552063E-05
  0.2676768E+00  0.0000000E+00  0.1515152E-01  0.3741833E-08  0.0000000E+00 -0.9549525E-05
  0.2777778E+00  0.0000000E+00  0.1515152E-01  0.3671979E-08  0.0000000E+00 -0.9547028E-05
  0.2878788E+00  0.0000000E+00  0.1515152E-01  0.3583901E-08  0.0000000E+00 -0.9544584E-05
  0.2979798E+00  0.0000000E+00  0.1515152E-01  0.3477917E-08  0.0000000E+00 -0.9542205E-05
  0.3080808E+00  0.0000000E+00  0.1515152E-01  0.3354442E-08  0.0000000E+00 -0.9539903E-05
  0.3181818E+00  0.0000000E+00  0.1515152E-01  0.3213988E-08  0.0000000E+00 -0.9537691E-05
  0.3282828E+00  0.0000000E+00  0.1515152E-01  0.3057158E-08  0.0000000E+00 -0.9535578E-05
  0.3383838E+00  0.0000000E+00  0.1515152E-01  0.2884648E-08  0.0000000E+00 -0.9533577E-05
  0.3484848E+00  0.0000000E+00  0.1515152E-01  0.2697237E-08  0.0000000E+00 -0.9531696E-05
  0.3585859E+00  0.0000000E+00  0.1515152E-01  0.2495786E-08  0.0000000E+00 -0.9529947E-05
  0.3686869E+00  0.0000000E+00  0.1515152E-01  0.2281233E-08  0.0000000E+00 -0.9528337E-05
  0.3787879E+00  0.0000000E+00  0.1515152E-01  0.2054583E-08  0.0000000E+00 -0.9526877E-05
  0.3888889E+00  0.0000000E+00  0.1515152E-01  0.1816905E-08  0.0000000E+00 -0.9525572E-05
  0.3989899E+00  0.0000000E+00  0.1515152E-01  0.1569323E-08  0.0000000E+00 -0.9524431E-05
  0.4090909E+00  0.0000000E+00  0.1515152E-01  0.1313011E-08  0.0000000E+00 -0.9523460E-05
  0.4191919E+00  0.0000000E+00  0.1515152E-01  0.1049182E-08  0.0000000E+00 -0.9522664E-05
  0.4292929E+00  0.0000000E+00  0.1515152E-01  0.7790813E-09  0.0000000E+00 -0.9522048E-05
  0.4393939E+00  0.0000000E+00  0.1515152E-01  0.5039810E-09  0.0000000E+00 -0.9521615E-05
  0.4494950E+00  0.0000000E+00  0.1515152E-01  0.2251694E-09  0.0000000E+00 -0.9521369E-05
  0.4595959E+00  0.0000000E+00  0.1515152E-01 -0.5605545E-10  0.0000000E+00 -0.9521312E-05
  0.4696970E+00  0.0000000E+00  0.1515152E-01 -0.3383935E-09  0.0000000E+00 -0.9521444E-05
  0.4797980E+00  0.0000000E+00  0.1515152E-01 -0.6205500E-09  0.0000000E+00 -0.9521766E-05
  0.4898990E+00  0.0000000E+00  0.1515152E-01 -0.9012427E-09  0.0000000E+00 -0.9522278E-05
  0.5000000E+00  0.0000000E+00  0.1515152E-01 -0.1179208E-08  0.0000000E+00 -0.9522978E-05
  0.5101010E+00  0.0000000E+00  0.1515152E-01 -0.1453210E-08  0.0000000E+00 -0.9523864E-05
  0.5202020E+00  0.0000000E+00  0.1515152E-01 -0.1722042E-08  0.0000000E+00 -0.9524933E-05
  0.5303030E+00  0.0000000E+00  0.1515152E-01 -0.1984537E-08  0.0000000E+00 -0.9526180E-05
  0.5404040E+00  0.0000000E+00  0.1515152E-01 -0.2239569E-08  0.0000000E+00 -0.9527602E-05
  0.5505050E+00  0.0000000E+00  0.1515152E-01 -0.2486064E-08  0.0000000E+00 -0.9529192E-05
  0.5606061E+00  0.0000000E+00  0.1515152E-01 -0.2722998E-08  0.0000000E+00 -0.9530946E-05
  0.5707071E+00  0.0000000E+00  0.1515152E-01 -0.2949407E-08  0.0000000E+00 -0.9532855E-05
  0.5808081E+00  0.0000000E+00  0.1515152E-01 -0.3164385E-08  0.0000000E+00 -0.9534913E-05
  0.5909091E+00  0.0000000E+00  0.1515152E-01 -0.3367096E-08  0.0000000E+00 -0.9537111E-05
  0.6010101E+00  0.0000000E+00  0.1515152E-01 -0.3556769E-08  0.0000000E+00 -0.9539442E-05
  0.6111111E+00  0.0000000E+00  0.1515152E-01 -0.3732706E-08  0.0000000E+00 -0.9541895E-05
  0.6212121E+00  0.0000000E+00  0.1515152E-01 -0.3894282E-08  0.0000000E+00 -0.9544462E-05
  0.6313131E+00  0.0000000E+00  0.1515152E-01 -0.4040947E-08  0.0000000E+00 -0.9547133E-05
  0.6414142E+00  0.0000000E+00  0.1515152E-01 -0.4172229E-08  0.0000000E+00 -0.9549898E-05
  0.6515151E+00  0.0000000E+00  0.1515152E-01 -0.4287733E-08  0.0000000E+00 -0.9552745E-05
  0.6616161E+00  0.0000000E+00  0.1515152E-01 -0.4387142E-08  0.0000000E+00 -0.9555665E-05
  0.6717172E+00  0.0000000E+00  0.1515152E-01 -0.4470218E-08  0.0000000E+00 -0.9558645E-05
  0.6818182E+00  0.0000000E+00  0.1515152E-01 -0.4536798E-08  0.0000000E+00 -0.9561677E-05
  0.6919192E+00  0.0000000E+00  0.1515152E-01 -0.4586795E-08  0.0000000E+00 -0.9564747E-05
  0.7020202E+00  0.0000000E+00  0.1515152E-01 -0.4620198E-08  0.0000000E+00 -0.9567846E-05
  0.7121212E+00  0.0000000E+00  0.1515152E-01 -0.4637066E-08  0.0000000E+00 -0.9570961E-05
  0.7222222E+00  0.0000000E+00  0.1515152E-01 -0.4637526E-08  0.0000000E+00 -0.9574082E-05
  0.7323232E+00  0.0000000E+00  0.1515152E-01 -0.4621773E-08  0.0000000E+00 -0.9577198E-05
  0.7424242E+00  0.0000000E+00  0.1515152E-01 -0.4590060E-08  0.0000000E+00 -0.9580297E-05
  0.7525253E+00  0.0000000E+00  0.1515152E-01 -0.4542703E-08  0.0000000E+00 -0.9583371E-05
  0.7626263E+00  0.0000000E+00  0.1515152E-01 -0.4480067E-08  0.0000000E+00 -0.9586406E-05
  0.7727273E+00  0.0000000E+00  0.1515152E-01 -0.4402570E-08  0.0000000E+00 -0.9589395E-05
  0.7828283E+00  0.0000000E+00  0.1515152E-01 -0.4310672E-08  0.0000000E+00 -0.9592327E-05
  0.7929293E+00  0.0000000E+00  0.1515152E-01 -0.4204874E-08  0.0000000E+00 -0.9595192E-05
  0.8030303E+00  0.0000000E+00  0.1515152E-01 -0.4085715E-08  0.0000000E+00 -0.9597981E-05
  0.8131313E+00  0.0000000E+00  0.1515152E-01 -0.3953760E-08  0.0000000E+00 -0.9600686E-05
  0.8232324E+00  0.0000000E+00  0.1515152E-01 -0.3809606E-08  0.0000000E+00 -0.9603298E-05
  0.8333333E+00  0.0000000E+00  0.1515152E-01 -0.3653867E-08  0.0000000E+00 -0.9605808E-05
  0.8434343E+00  0.0000000E+00  0.1515152E-01 -0.3487178E-08  0.0000000E+00 -0.9608211E-05
  0.8535354E+00  0.0000000E+00  0.1515152E-01 -0.3310189E-08  0.0000000E+00 -0.9610497E-05
  0.8636364E+00  0.0000000E+00  0.1515152E-01 -0.3123559E-08  0.0000000E+00 -0.9612661E-05
  0.8737374E+00  0.0000000E+00  0.1515152E-01 -0.2927957E-08  0.0000000E+00 -0.9614697E-05
  0.8838384E+00  0.0000000E+00  0.1515152E-01 -0.2724054E-08  0.0000000E+00 -0.9616598E-05
  0.8939394E+00  0.0000000E+00  0.1515152E-01 -0.2512526E-08  0.0000000E+00 -0.9618359E-05
  0.9040404E+00  0.0000000E+00  0.1515152E-01 -0.2294051E-08  0.0000000E+00 -0.9619976E-05
  0.9141414E+00  0.0000000E+00  0.1515152E-01 -0.2069303E-08  0.0000000E+00 -0.9621444E-05
  0.9242424E+00  0.0000000E+00  0.1515152E-01 -0.1838956E-08  0.0000000E+00 -0.9622758E-05
  0.9343435E+00  0.0000000E+00  0.1515152E-01 -0.1603680E-08  0.0000000E+00 -0.9623916E-05
  0.9444444E+00  0.0000000E+00  0.1515152E-01 -0.1364143E-08  0.0000000E+00 -0.9624914E-05
  0.9545454E+00  0.0000000E+00  0.1515152E-01 -0.1121008E-08  0.0000000E+00 -0.9625750E-05
  0.9646465E+00  0.0000000E+00  0.1515152E-01 -0.8749347E-09  0.0000000E+00 -0.9626421E-05
  0.9747475E+00  0.0000000E+00  0.1515152E-01 -0.6265804E-09  0.0000000E+00 -0.9626926E-05
  0.9848485E+00  0.0000000E+00  0.1515152E-01 -0.3765988E-09  0.0000000E+00 -0.9627264E-05
  0.9974747E+00  0.0000000E+00  0.1515152E-01 -0.1256417E-09  0.0000000E+00 -0.9627432E-05
  0.5050505E-02  0.0000000E+00  0.2525252E-01  0.2142982E-09  0.0000000E+00 -0.9569989E-05
  0.1515152E-01  0.0000000E+00  0.2525252E-01  0.6419973E-09  0.0000000E+00 -0.9569814E-05
  0.2525252E-01  0.0000000E+00  0.2525252E-01  0.1066997E-08  0.0000000E+00 -0.9569462E-05
  0.3535353E-01  0.0000000E+00  0.2525252E-01  0.1487503E-08  0.0000000E+00 -0.9568938E-05
  0.4545455E-01  0.0000000E+00  0.2525252E-01  0.1901731E-08  0.0000000E+00 -0.9568241E-05
  0.5555556E-01  0.0000000E+00  0.2525252E-01  0.2307908E-08  0.0000000E+00 -0.9567377E-05
  0.6565657E-01  0.0000000E+00  0.2525252E-01  0.2704282E-08  0.0000000E+00 -0.9566347E-05
  0.7575758E-01  0.0000000E+00  0.2525252E-01  0.3089120E-08  0.0000000E+00 -0.9565157E-05
  0.8585858E-01  0.0000000E+00  0.2525252E-01  0.3460716E-08  0.0000000E+00 -0.9563811E-05
  0.9595960E-01  0.0000000E+00  0.2525252E-01  0.3817398E-08  0.0000000E+00 -0.9562316E-05
  0.1060606E+00  0.0000000E+00  0.2525252E-01  0.4157531E-08  0.0000000E+00 -0.9560677E-05
  0.1161616E+00  0.0000000E+00  0.2525252E-01  0.4479527E-08  0.0000000E+00 -0.9558902E-05
  0.1262626E+00  0.0000000E+00  0.2525252E-01  0.4781847E-08  0.0000000E+00 -0.9556999E-05
  0.1363636E+00  0.0000000E+00  0.2525252E-01  0.5063012E-08  0.0000000E+00 -0.9554976E-05
  0.1464646E+00  0.0000000E+00  0.2525252E-01  0.5321613E-08  0.0000000E+00 -0.9552842E-05
  0.1565657E+00  0.0000000E+00  0.2525252E-01  0.5556312E-08  0.0000000E+00 -0.9550606E-05
  0.1666667E+00  0.0000000E+00  0.2525252E-01  0.5765858E-08  0.0000000E+00 -0.9548279E-05
  0.1767677E+00  0.0000000E+00  0.2525252E-01  0.5949093E-08  0.0000000E+00 -0.9545871E-05
  0.1868687E+00  0.0000000E+00  0.2525252E-01  0.6104958E-08  0.0000000E+00 -0.9543393E-05
  0.1969697E+00  0.0000000E+00  0.2525252E-01  0.6232508E-08  0.0000000E+00 -0.9540856E-05
  0.2070707E+00  0.0000000E+00  0.2525252E-01  0.6330916E-08  0.0000000E+00 -0.9538273E-05
  0.2171717E+00  0.0000000E+00  0.2525252E-01  0.6399482E-08  0.0000000E+00 -0.9535655E-05
  0.2272727E+00  0.0000000E+00  0.2525252E-01  0.6437642E-08  0.0000000E+00 -0.9533016E-05
  0.2373737E+00  0.0000000E+00  0.2525252E-01  0.6444976E-08  0.0000000E+00 -0.9530366E-05
  0.2474747E+00  0.0000000E+00  0.2525252E-01  0.6421213E-08  0.0000000E+00 -0.9527720E-05
  0.2575758E+00  0.0000000E+00  0.2525252E-01  0.6366236E-08  0.0000000E+00 -0.9525090E-05
  0.2676768E+00  0.0000000E+00  0.2525252E-01  0.6280087E-08  0.0000000E+00 -0.9522489E-05
  0.2777778E+00  0.0000000E+00  0.2525252E-01  0.6162972E-08  0.0000000E+00 -0.9519930E-05
  0.2878788E+00  0.0000000E+00  0.2525252E-01  0.6015259E-08  0.0000000E+00 -0.9517424E-05
  0.2979798E+00  0.0000000E+00  0.2525252E-01  0.5837483E-08  0.0000000E+00 -0.9514986E-05
  0.3080808E+00  0.0000000E+00  0.2525252E-01  0.5630341E-08  0.0000000E+00 -0.9512627E-05
  0.3181818E+00  0.0000000E+00  0.2525252E-01  0.5394691E-08  0.0000000E+00 -0.9510358E-05
  0.3282828E+00  0.0000000E+00  0.2525252E-01  0.5131548E-08  0.0000000E+00 -0.9508193E-05
  0.3383838E+00  0.0000000E+00  0.2525252E-01  0.4842079E-08  0.0000000E+00 -0.9506140E-05
  0.3484848E+00  0.0000000E+00  0.2525252E-01  0.4527593E-08  0.0000000E+00 -0.9504212E-05
  0.3585859E+00  0.0000000E+00  0.2525252E-01  0.4189539E-08  0.0000000E+00 -0.9502418E-05
  0.3686869E+00  0.0000000E+00  0.2525252E-01  0.3829490E-08  0.0000000E+00 -0.9500768E-05
  0.3787879E+00  0.0000000E+00  0.2525252E-01  0.3449138E-08  0.0000000E+00 -0.9499270E-05
  0.3888889E+00  0.0000000E+00  0.2525252E-01  0.3050278E-08  0.0000000E+00 -0.9497932E-05
  0.3989899E+00  0.0000000E+00  0.2525252E-01  0.2634799E-08  0.0000000E+00 -0.9496761E-05
  0.4090909E+00  0.0000000E+00  0.2525252E-01  0.2204673E-08  0.0000000E+00 -0.9495765E-05
  0.4191919E+00  0.0000000E+00  0.2525252E-01  0.1761938E-08  0.0000000E+00 -0.9494948E-05
  0.4292929E+00  0.0000000E+00  0.2525252E-01  0.1308687E-08  0.0000000E+00 -0.9494315E-05
  0.4393939E+00  0.0000000E+00  0.2525252E-01  0.8470554E-09  0.0000000E+00 -0.9493870E-05
  0.4494950E+00  0.0000000E+00  0.2525252E-01  0.3792077E-09  0.0000000E+00 -0.9493616E-05
  0.4595959E+00  0.0000000E+00  0.2525252E-01 -0.9267686E-10  0.0000000E+00 -0.9493556E-05
  0.4696970E+00  0.0000000E+00  0.2525252E-01 -0.5664154E-09  0.0000000E+00 -0.9493690E-05
  0.4797980E+00  0.0000000E+00  0.2525252E-01 -0.1039835E-08  0.0000000E+00 -0.9494018E-05
  0.4898990E+00  0.0000000E+00  0.2525252E-01 -0.1510782E-08  0.0000000E+00 -0.9494541E-05
  0.5000000E+00  0.0000000E+00  0.2525252E-01 -0.1977138E-08  0.0000000E+00 -0.9495256E-05
  0.5101010E+00  0.0000000E+00  0.2525252E-01 -0.2436826E-08  0.0000000E+00 -0.9496161E-05
  0.5202020E+00  0.0000000E+00  0.2525252E-01 -0.2887823E-08  0.0000000E+00 -0.9497254E-05
  0.5303030E+00  0.0000000E+00  0.2525252E-01 -0.3328171E-08  0.0000000E+00 -0.9498529E-05
  0.5404040E+00  0.0000000E+00  0.2525252E-01 -0.3755983E-08  0.0000000E+00 -0.9499983E-05
  0.5505050E+00  0.0000000E+00  0.2525252E-01 -0.4169454E-08  0.0000000E+00 -0.9501610E-05
  0.5606061E+00  0.0000000E+00  0.2525252E-01 -0.4566868E-08  0.0000000E+00 -0.9503403E-05
  0.5707071E+00  0.0000000E+00  0.2525252E-01 -0.4946607E-08  0.0000000E+00 -0.9505356E-05
  0.5808081E+00  0.0000000E+00  0.2525252E-01 -0.5307154E-08  0.0000000E+00 -0.9507461E-05
  0.5909091E+00  0.0000000E+00  0.2525252E-01 -0.5647105E-08  0.0000000E+00 -0.9509710E-05
  0.6010101E+00  0.0000000E+00  0.2525252E-01 -0.5965168E-08  0.0000000E+00 -0.9512093E-05
  0.6111111E+00  0.0000000E+00  0.2525252E-01 -0.6260172E-08  0.0000000E+00 -0.9514602E-05
  0.6212121E+00  0.0000000E+00  0.2525252E-01 -0.6531070E-08  0.0000000E+00 -0.9517228E-05
  0.6313131E+00  0.0000000E+00  0.2525252E-01 -0.6776941E-08  0.0000000E+00 -0.9519959E-05
  0.6414142E+00  0.0000000E+00  0.2525252E-01 -0.6996993E-08  0.0000000E+00 -0.9522786E-05
  0.6515151E+00  0.0000000E+00  0.2525252E-01 -0.7190567E-08  0.0000000E+00 -0.9525698E-05
  0.6616161E+00  0.0000000E+00  0.2525252E-01 -0.7357131E-08  0.0000000E+00 -0.9528683E-05
  0.6717172E+00  0.0000000E+00  0.2525252E-01 -0.7496287E-08  0.0000000E+00 -0.9531731E-05
  0.6818182E+00  0.0000000E+00  0.2525252E-01 -0.7607765E-08  0.0000000E+00 -0.9534830E-05
  0.6919192E+00  0.0000000E+00  0.2525252E-01 -0.7691422E-08  0.0000000E+00 -0.9537969E-05
  0.7020202E+00  0.0000000E+00  0.2525252E-01 -0.7747240E-08  0.0000000E+00 -0.9541136E-05
  0.7121212E+00  0.0000000E+00  0.2525252E-01 -0.7775321E-08  0.0000000E+00 -0.9544321E-05
  0.7222222E+00  0.0000000E+00  0.2525252E-01 -0.7775882E-08  0.0000000E+00 -0.9547511E-05
  0.7323232E+00  0.0000000E+00  0.2525252E-01 -0.7749250E-08  0.0000000E+00 -0.9550695E-05
  0.7424242E+00  0.0000000E+00  0.2525252E-01 -0.7695858E-08  0.0000000E+00 -0.9553863E-05
  0.7525253E+00  0.0000000E+00  0.2525252E-01 -0.7616233E-08  0.0000000E+00 -0.9557003E-05
  0.7626263E+00  0.0000000E+00  0.2525252E-01 -0.7510995E-08  0.0000000E+00 -0.9560105E-05
  0.7727273E+00  0.0000000E+00  0.2525252E-01 -0.7380846E-08  0.0000000E+00 -0.9563158E-05
  0.7828283E+00  0.0000000E+00  0.2525252E-01 -0.7226561E-08  0.0000000E+00 -0.9566153E-05
  0.7929293E+00  0.0000000E+00  0.2525252E-01 -0.7048985E-08  0.0000000E+00 -0.9569080E-05
  0.8030303E+00  0.0000000E+00  0.2525252E-01 -0.6849021E-08  0.0000000E+00 -0.9571929E-05
  0.8131313E+00  0.0000000E+00  0.2525252E-01 -0.6627623E-08  0.0000000E+00 -0.9574691E-05
  0.8232324E+00  0.0000000E+00  0.2525252E-01 -0.6385790E-08  0.0000000E+00 -0.9577358E-05
  0.8333333E+00  0.0000000E+00  0.2525252E-01 -0.6124558E-08  0.0000000E+00 -0.9579922E-05
  0.8434343E+00  0.0000000E+00  0.2525252E-01 -0.5844992E-08  0.0000000E+00 -0.9582375E-05
  0.8535354E+00  0.0000000E+00  0.2525252E-01 -0.5548182E-08  0.0000000E+00 -0.9584709E-05
  0.8636364E+00  0.0000000E+00  0.2525252E-01 -0.5235236E-08  0.0000000E+00 -0.9586918E-05
  0.8737374E+00  0.0000000E+00  0.2525252E-01 -0.4907274E-08  0.0000000E+00 -0.9588996E-05
  0.8838384E+00  0.0000000E+00  0.2525252E-01 -0.4565423E-08  0.0000000E+00 -0.9590937E-05
  0.8939394E+00  0.0000000E+00  0.2525252E-01 -0.4210816E-08  0.0000000E+00 -0.9592735E-05
  0.9040404E+00  0.0000000E+00  0.2525252E-01 -0.3844588E-08  0.0000000E+00 -0.9594385E-05
  0.9141414E+00  0.0000000E+00  0.2525252E-01 -0.3467868E-08  0.0000000E+00 -0.9595882E-05
  0.9242424E+00  0.0000000E+00  0.2525252E-01 -0.3081785E-08  0.0000000E+00 -0.9597224E-05
  0.9343435E+00  0.0000000E+00  0.2525252E-01 -0.2687461E-08  0.0000000E+00 -0.9598405E-05
  0.9444444E+00  0.0000000E+00  0.2525252E-01 -0.2286012E-08  0.0000000E+00 -0.9599424E-05
  0.9545454E+00  0.0000000E+00  0.2525252E-01 -0.1878549E-08  0.0000000E+00 -0.9600276E-05
  0.9646465E+00  0.0000000E+00  0.2525252E-01 -0.1466174E-08  0.0000000E+00 -0.9600961E-05
  0.9747475E+00  0.0000000E+00  0.2525252E-01 -0.1049987E-08  0.0000000E+00 -0.9601477E-05
  0.9848485E+00  0.0000000E+00  0.2525252E-01 -0.6310794E-09  0.0000000E+00 -0.9601821E-05
  0.9974747E+00  0.0000000E+00  0.2525252E-01 -0.2105414E-09  0.0000000E+00 -0.9601993E-05
  0.5050505E-02  0.0000000E+00  0.3535353E-01  0.3031396E-09  0.0000000E+00 -0.9531208E-05
  0.1515152E-01  0.0000000E+00  0.3535353E-01  0.9081513E-09  0.0000000E+00 -0.9531026E-05
  0.2525252E-01  0.0000000E+00  0.3535353E-01  0.1509353E-08  0.0000000E+00 -0.9530662E-05
  0.3535353E-01  0.0000000E+00  0.3535353E-01  0.2104212E-08  0.0000000E+00 -0.9530119E-05
  0.4545455E-01  0.0000000E+00  0.3535353E-01  0.2690209E-08  0.0000000E+00 -0.9529399E-05
  0.5555556E-01  0.0000000E+00  0.3535353E-01  0.3264842E-08  0.0000000E+00 -0.9528504E-05
  0.6565657E-01  0.0000000E+00  0.3535353E-01  0.3825635E-08  0.0000000E+00 -0.9527438E-05
  0.7575758E-01  0.0000000E+00  0.3535353E-01  0.4370139E-08  0.0000000E+00 -0.9526206E-05
  0.8585858E-01  0.0000000E+00  0.3535353E-01  0.4895945E-08  0.0000000E+00 -0.9524814E-05
  0.9595960E-01  0.0000000E+00  0.3535353E-01  0.5400688E-08  0.0000000E+00 -0.9523266E-05
  0.1060606E+00  0.0000000E+00  0.3535353E-01  0.5882058E-08  0.0000000E+00 -0.9521569E-05
  0.1161616E+00  0.0000000E+00  0.3535353E-01  0.6337803E-08  0.0000000E+00 -0.9519732E-05
  0.1262626E+00  0.0000000E+00  0.3535353E-01  0.6765749E-08  0.0000000E+00 -0.9517762E-05
  0.1363636E+00  0.0000000E+00  0.3535353E-01  0.7163800E-08  0.0000000E+00 -0.9515667E-05
  0.1464646E+00  0.0000000E+00  0.3535353E-01  0.7529958E-08  0.0000000E+00 -0.9513456E-05
  0.1565657E+00  0.0000000E+00  0.3535353E-01  0.7862327E-08  0.0000000E+00 -0.9511141E-05
  0.1666667E+00  0.0000000E+00  0.3535353E-01  0.8159132E-08  0.0000000E+00 -0.9508730E-05
  0.1767677E+00  0.0000000E+00  0.3535353E-01  0.8418727E-08  0.0000000E+00 -0.9506236E-05
  0.1868687E+00  0.0000000E+00  0.3535353E-01  0.8639611E-08  0.0000000E+00 -0.9503669E-05
  0.1969697E+00  0.0000000E+00  0.3535353E-01  0.8820439E-08  0.0000000E+00 -0.9501041E-05
  0.2070707E+00  0.0000000E+00  0.3535353E-01  0.8960031E-08  0.0000000E+00 -0.9498364E-05
  0.2171717E+00  0.0000000E+00  0.3535353E-01  0.9057394E-08  0.0000000E+00 -0.9495651E-05
  0.2272727E+00  0.0000000E+00  0.3535353E-01  0.9111722E-08  0.0000000E+00 -0.9492916E-05
  0.2373737E+00  0.0000000E+00  0.3535353E-01  0.9122413E-08  0.0000000E+00 -0.9490170E-05
  0.2474747E+00  0.0000000E+00  0.3535353E-01  0.9089079E-08  0.0000000E+00 -0.9487427E-05
  0.2575758E+00  0.0000000E+00  0.3535353E-01  0.9011548E-08  0.0000000E+00 -0.9484700E-05
  0.2676768E+00  0.0000000E+00  0.3535353E-01  0.8889876E-08  0.0000000E+00 -0.9482003E-05
  0.2777778E+00  0.0000000E+00  0.3535353E-01  0.8724351E-08  0.0000000E+00 -0.9479349E-05
  0.2878788E+00  0.0000000E+00  0.3535353E-01  0.8515493E-08  0.0000000E+00 -0.9476751E-05
  0.2979798E+00  0.0000000E+00  0.3535353E-01  0.8264055E-08  0.0000000E+00 -0.9474223E-05