title = "dataset water"
variables = "x", "y", "z", "vx", "vy", "vz"
zone t = "velocities, solution time =  2.900E+01 days        " i =   99, j =   99, k =    1,  f=point
  0.5050505E-02  0.0000000E+00  0.5050505E-02  0.2904586E-10  0.0000000E+00 -0.1015297E-04
  0.1515152E-01  0.0000000E+00  0.5050505E-02  0.8701547E-10  0.0000000E+00 -0.1015286E-04
  0.2525252E-01  0.0000000E+00  0.5050505E-02  0.1446169E-09  0.0000000E+00 -0.1015262E-04
  0.3535353E-01  0.0000000E+00  0.5050505E-02  0.2016054E-09  0.0000000E+00 -0.1015228E-04
  0.4545455E-01  0.0000000E+00  0.5050505E-02  0.2577380E-09  0.0000000E+00 -0.1015182E-04
  0.5555556E-01  0.0000000E+00  0.5050505E-02  0.3127735E-09  0.0000000E+00 -0.1015125E-04
  0.6565657E-01  0.0000000E+00  0.5050505E-02  0.3664735E-09  0.0000000E+00 -0.1015057E-04
  0.7575758E-01  0.0000000E+00  0.5050505E-02  0.4186029E-09  0.0000000E+00 -0.1014978E-04
  0.8585858E-01  0.0000000E+00  0.5050505E-02  0.4689306E-09  0.0000000E+00 -0.1014889E-04
  0.9595960E-01  0.0000000E+00  0.5050505E-02  0.5172305E-09  0.0000000E+00 -0.1014790E-04
  0.1060606E+00  0.0000000E+00  0.5050505E-02  0.5632818E-09  0.0000000E+00 -0.1014682E-04
  0.1161616E+00  0.0000000E+00  0.5050505E-02  0.6068704E-09  0.0000000E+00 -0.1014565E-04
  0.1262626E+00  0.0000000E+00  0.5050505E-02  0.6477896E-09  0.0000000E+00 -0.1014439E-04
  0.1363636E+00  0.0000000E+00  0.5050505E-02  0.6858410E-09  0.0000000E+00 -0.1014306E-04
  0.1464646E+00  0.0000000E+00  0.5050505E-02  0.7208358E-09  0.0000000E+00 -0.1014165E-04
  0.1565657E+00  0.0000000E+00  0.5050505E-02  0.7525954E-09  0.0000000E+00 -0.1014018E-04
  0.1666667E+00  0.0000000E+00  0.5050505E-02  0.7809529E-09  0.0000000E+00 -0.1013864E-04
  0.1767677E+00  0.0000000E+00  0.5050505E-02  0.8057539E-09  0.0000000E+00 -0.1013705E-04
  0.1868687E+00  0.0000000E+00  0.5050505E-02  0.8268579E-09  0.0000000E+00 -0.1013542E-04
  0.1969697E+00  0.0000000E+00  0.5050505E-02  0.8441390E-09  0.0000000E+00 -0.1013374E-04
  0.2070707E+00  0.0000000E+00  0.5050505E-02  0.8574875E-09  0.0000000E+00 -0.1013204E-04
  0.2171717E+00  0.0000000E+00  0.5050505E-02  0.8668104E-09  0.0000000E+00 -0.1013031E-04
  0.2272727E+00  0.0000000E+00  0.5050505E-02  0.8720328E-09  0.0000000E+00 -0.1012857E-04
  0.2373737E+00  0.0000000E+00  0.5050505E-02  0.8730984E-09  0.0000000E+00 -0.1012683E-04
  0.2474747E+00  0.0000000E+00  0.5050505E-02  0.8699708E-09  0.0000000E+00 -0.1012508E-04
  0.2575758E+00  0.0000000E+00  0.5050505E-02  0.8626336E-09  0.0000000E+00 -0.1012335E-04
  0.2676768E+00  0.0000000E+00  0.5050505E-02  0.8510913E-09  0.0000000E+00 -0.1012163E-04
  0.2777778E+00  0.0000000E+00  0.5050505E-02  0.8353700E-09  0.0000000E+00 -0.1011994E-04
  0.2878788E+00  0.0000000E+00  0.5050505E-02  0.8155170E-09  0.0000000E+00 -0.1011829E-04
  0.2979798E+00  0.0000000E+00  0.5050505E-02  0.7916013E-09  0.0000000E+00 -0.1011668E-04
  0.3080808E+00  0.0000000E+00  0.5050505E-02  0.7637137E-09  0.0000000E+00 -0.1011512E-04
  0.3181818E+00  0.0000000E+00  0.5050505E-02  0.7319659E-09  0.0000000E+00 -0.1011362E-04
  0.3282828E+00  0.0000000E+00  0.5050505E-02  0.6964908E-09  0.0000000E+00 -0.1011219E-04
  0.3383838E+00  0.0000000E+00  0.5050505E-02  0.6574416E-09  0.0000000E+00 -0.1011084E-04
  0.3484848E+00  0.0000000E+00  0.5050505E-02  0.6149908E-09  0.0000000E+00 -0.1010956E-04
  0.3585859E+00  0.0000000E+00  0.5050505E-02  0.5693296E-09  0.0000000E+00 -0.1010838E-04
  0.3686869E+00  0.0000000E+00  0.5050505E-02  0.5206665E-09  0.0000000E+00 -0.1010729E-04
  0.3787879E+00  0.0000000E+00  0.5050505E-02  0.4692263E-09  0.0000000E+00 -0.1010630E-04
  0.3888889E+00  0.0000000E+00  0.5050505E-02  0.4152485E-09  0.0000000E+00 -0.1010541E-04
  0.3989899E+00  0.0000000E+00  0.5050505E-02  0.3589861E-09  0.0000000E+00 -0.1010464E-04
  0.4090909E+00  0.0000000E+00  0.5050505E-02  0.3007038E-09  0.0000000E+00 -0.1010397E-04
  0.4191919E+00  0.0000000E+00  0.5050505E-02  0.2406762E-09  0.0000000E+00 -0.1010343E-04
  0.4292929E+00  0.0000000E+00  0.5050505E-02  0.1791863E-09  0.0000000E+00 -0.1010301E-04
  0.4393939E+00  0.0000000E+00  0.5050505E-02  0.1165240E-09  0.0000000E+00 -0.1010272E-04
  0.4494950E+00  0.0000000E+00  0.5050505E-02  0.5298347E-10  0.0000000E+00 -0.1010255E-04
  0.4595959E+00  0.0000000E+00  0.5050505E-02 -0.1113766E-10  0.0000000E+00 -0.1010250E-04
  0.4696970E+00  0.0000000E+00  0.5050505E-02 -0.7554077E-10  0.0000000E+00 -0.1010259E-04
  0.4797980E+00  0.0000000E+00  0.5050505E-02 -0.1399277E-09  0.0000000E+00 -0.1010281E-04
  0.4898990E+00  0.0000000E+00  0.5050505E-02 -0.2040026E-09  0.0000000E+00 -0.1010315E-04
  0.5000000E+00  0.0000000E+00  0.5050505E-02 -0.2674736E-09  0.0000000E+00 -0.1010362E-04
  0.5101010E+00  0.0000000E+00  0.5050505E-02 -0.3300544E-09  0.0000000E+00 -0.1010422E-04
  0.5202020E+00  0.0000000E+00  0.5050505E-02 -0.3914657E-09  0.0000000E+00 -0.1010494E-04
  0.5303030E+00  0.0000000E+00  0.5050505E-02 -0.4514371E-09  0.0000000E+00 -0.1010579E-04
  0.5404040E+00  0.0000000E+00  0.5050505E-02 -0.5097078E-09  0.0000000E+00 -0.1010675E-04
  0.5505050E+00  0.0000000E+00  0.5050505E-02 -0.5660286E-09  0.0000000E+00 -0.1010783E-04
  0.5606061E+00  0.0000000E+00  0.5050505E-02 -0.6201628E-09  0.0000000E+00 -0.1010902E-04
  0.5707071E+00  0.0000000E+00  0.5050505E-02 -0.6718871E-09  0.0000000E+00 -0.1011031E-04
  0.5808081E+00  0.0000000E+00  0.5050505E-02 -0.7209930E-09  0.0000000E+00 -0.1011170E-04
  0.5909091E+00  0.0000000E+00  0.5050505E-02 -0.7672874E-09  0.0000000E+00 -0.1011319E-04
  0.6010101E+00  0.0000000E+00  0.5050505E-02 -0.8105935E-09  0.0000000E+00 -0.1011477E-04
  0.6111111E+00  0.0000000E+00  0.5050505E-02 -0.8507513E-09  0.0000000E+00 -0.1011644E-04
  0.6212121E+00  0.0000000E+00  0.5050505E-02 -0.8876182E-09  0.0000000E+00 -0.1011818E-04
  0.6313131E+00  0.0000000E+00  0.5050505E-02 -0.9210696E-09  0.0000000E+00 -0.1011999E-04
  0.6414142E+00  0.0000000E+00  0.5050505E-02 -0.9509985E-09  0.0000000E+00 -0.1012186E-04
  0.6515151E+00  0.0000000E+00  0.5050505E-02 -0.9773165E-09  0.0000000E+00 -0.1012379E-04
  0.6616161E+00  0.0000000E+00  0.5050505E-02 -0.9999531E-09  0.0000000E+00 -0.1012577E-04
  0.6717172E+00  0.0000000E+00  0.5050505E-02 -0.1018856E-08  0.0000000E+00 -0.1012779E-04
  0.6818182E+00  0.0000000E+00  0.5050505E-02 -0.1033990E-08  0.0000000E+00 -0.1012985E-04
  0.6919192E+00  0.0000000E+00  0.5050505E-02 -0.1045339E-08  0.0000000E+00 -0.1013193E-04
  0.7020202E+00  0.0000000E+00  0.5050505E-02 -0.1052901E-08  0.0000000E+00 -0.1013403E-04
  0.7121212E+00  0.0000000E+00  0.5050505E-02 -0.1056693E-08  0.0000000E+00 -0.1013614E-04
  0.7222222E+00  0.0000000E+00  0.5050505E-02 -0.1056745E-08  0.0000000E+00 -0.1013826E-04
  0.7323232E+00  0.0000000E+00  0.5050505E-02 -0.1053104E-08  0.0000000E+00 -0.1014037E-04
  0.7424242E+00  0.0000000E+00  0.5050505E-02 -0.1045830E-08  0.0000000E+00 -0.1014248E-04
  0.7525253E+00  0.0000000E+00  0.5050505E-02 -0.1034996E-08  0.0000000E+00 -0.1014456E-04
  0.7626263E+00  0.0000000E+00  0.5050505E-02 -0.1020685E-08  0.0000000E+00 -0.1014662E-04
  0.7727273E+00  0.0000000E+00  0.5050505E-02 -0.1002995E-08  0.0000000E+00 -0.1014864E-04
  0.7828283E+00  0.0000000E+00  0.5050505E-02 -0.9820296E-09  0.0000000E+00 -0.1015063E-04
  0.7929293E+00  0.0000000E+00  0.5050505E-02 -0.9579043E-09  0.0000000E+00 -0.1015257E-04
  0.8030303E+00  0.0000000E+00  0.5050505E-02 -0.9307412E-09  0.0000000E+00 -0.1015446E-04
  0.8131313E+00  0.0000000E+00  0.5050505E-02 -0.9006691E-09  0.0000000E+00 -0.1015630E-04
  0.8232324E+00  0.0000000E+00  0.5050505E-02 -0.8678231E-09  0.0000000E+00 -0.1015807E-04
  0.8333333E+00  0.0000000E+00  0.5050505E-02 -0.8323427E-09  0.0000000E+00 -0.1015977E-04
  0.8434343E+00  0.0000000E+00  0.5050505E-02 -0.7943719E-09  0.0000000E+00 -0.1016140E-04
  0.8535354E+00  0.0000000E+00  0.5050505E-02 -0.7540576E-09  0.0000000E+00 -0.1016295E-04
  0.8636364E+00  0.0000000E+00  0.5050505E-02 -0.7115492E-09  0.0000000E+00 -0.1016442E-04
  0.8737374E+00  0.0000000E+00  0.5050505E-02 -0.6669980E-09  0.0000000E+00 -0.1016580E-04
  0.8838384E+00  0.0000000E+00  0.5050505E-02 -0.6205564E-09  0.0000000E+00 -0.1016709E-04
  0.8939394E+00  0.0000000E+00  0.5050505E-02 -0.5723777E-09  0.0000000E+00 -0.1016828E-04
  0.9040404E+00  0.0000000E+00  0.5050505E-02 -0.5226152E-09  0.0000000E+00 -0.1016938E-04
  0.9141414E+00  0.0000000E+00  0.5050505E-02 -0.4714223E-09  0.0000000E+00 -0.1017037E-04
  0.9242424E+00  0.0000000E+00  0.5050505E-02 -0.4189521E-09  0.0000000E+00 -0.1017126E-04
  0.9343435E+00  0.0000000E+00  0.5050505E-02 -0.3653571E-09  0.0000000E+00 -0.1017205E-04
  0.9444444E+00  0.0000000E+00  0.5050505E-02 -0.3107892E-09  0.0000000E+00 -0.1017273E-04
  0.9545454E+00  0.0000000E+00  0.5050505E-02 -0.2553996E-09  0.0000000E+00 -0.1017329E-04
  0.9646465E+00  0.0000000E+00  0.5050505E-02 -0.1993388E-09  0.0000000E+00 -0.1017375E-04
  0.9747475E+00  0.0000000E+00  0.5050505E-02 -0.1427567E-09  0.0000000E+00 -0.1017409E-04
  0.9848485E+00  0.0000000E+00  0.5050505E-02 -0.8580277E-10  0.0000000E+00 -0.1017432E-04
  0.9974747E+00  0.0000000E+00  0.5050505E-02 -0.2862586E-10  0.0000000E+00 -0.1017443E-04
  0.5050505E-02  0.0000000E+00  0.1515152E-01  0.8739103E-10  0.0000000E+00 -0.1013902E-04
  0.1515152E-01  0.0000000E+00  0.1515152E-01  0.2618055E-09  0.0000000E+00 -0.1013891E-04
  0.2525252E-01  0.0000000E+00  0.1515152E-01  0.4351130E-09  0.0000000E+00 -0.1013867E-04
  0.3535353E-01  0.0000000E+00  0.1515152E-01  0.6065776E-09  0.0000000E+00 -0.1013832E-04
  0.4545455E-01  0.0000000E+00  0.1515152E-01  0.7754684E-09  0.0000000E+00 -0.1013786E-04
  0.5555556E-01  0.0000000E+00  0.1515152E-01  0.9410606E-09  0.0000000E+00 -0.1013728E-04
  0.6565657E-01  0.0000000E+00  0.1515152E-01  0.1102637E-08  0.0000000E+00 -0.1013659E-04
  0.7575758E-01  0.0000000E+00  0.1515152E-01  0.1259490E-08  0.0000000E+00 -0.1013579E-04
  0.8585858E-01  0.0000000E+00  0.1515152E-01  0.1410926E-08  0.0000000E+00 -0.1013490E-04
  0.9595960E-01  0.0000000E+00  0.1515152E-01  0.1556263E-08  0.0000000E+00 -0.1013390E-04
  0.1060606E+00  0.0000000E+00  0.1515152E-01  0.1694838E-08  0.0000000E+00 -0.1013280E-04
  0.1161616E+00  0.0000000E+00  0.1515152E-01  0.1826006E-08  0.0000000E+00 -0.1013162E-04
  0.1262626E+00  0.0000000E+00  0.1515152E-01  0.1949145E-08  0.0000000E+00 -0.1013035E-04
  0.1363636E+00  0.0000000E+00  0.1515152E-01  0.2063659E-08  0.0000000E+00 -0.1012899E-04
  0.1464646E+00  0.0000000E+00  0.1515152E-01  0.2168979E-08  0.0000000E+00 -0.1012757E-04
  0.1565657E+00  0.0000000E+00  0.1515152E-01  0.2264567E-08  0.0000000E+00 -0.1012608E-04
  0.1666667E+00  0.0000000E+00  0.1515152E-01  0.2349920E-08  0.0000000E+00 -0.1012452E-04
  0.1767677E+00  0.0000000E+00  0.1515152E-01  0.2424575E-08  0.0000000E+00 -0.1012292E-04
  0.1868687E+00  0.0000000E+00  0.1515152E-01  0.2488106E-08  0.0000000E+00 -0.1012126E-04
  0.1969697E+00  0.0000000E+00  0.1515152E-01  0.2540136E-08  0.0000000E+00 -0.1011957E-04
  0.2070707E+00  0.0000000E+00  0.1515152E-01  0.2580333E-08  0.0000000E+00 -0.1011784E-04
  0.2171717E+00  0.0000000E+00  0.1515152E-01  0.2608417E-08  0.0000000E+00 -0.1011610E-04
  0.2272727E+00  0.0000000E+00  0.1515152E-01  0.2624162E-08  0.0000000E+00 -0.1011433E-04
  0.2373737E+00  0.0000000E+00  0.1515152E-01  0.2627399E-08  0.0000000E+00 -0.1011257E-04
  0.2474747E+00  0.0000000E+00  0.1515152E-01  0.2618016E-08  0.0000000E+00 -0.1011080E-04
  0.2575758E+00  0.0000000E+00  0.1515152E-01  0.2595965E-08  0.0000000E+00 -0.1010904E-04
  0.2676768E+00  0.0000000E+00  0.1515152E-01  0.2561258E-08  0.0000000E+00 -0.1010731E-04
  0.2777778E+00  0.0000000E+00  0.1515152E-01  0.2513974E-08  0.0000000E+00 -0.1010560E-04
  0.2878788E+00  0.0000000E+00  0.1515152E-01  0.2454254E-08  0.0000000E+00 -0.1010392E-04
  0.2979798E+00  0.0000000E+00  0.1515152E-01  0.2382306E-08  0.0000000E+00 -0.1010229E-04
  0.3080808E+00  0.0000000E+00  0.1515152E-01  0.2298403E-08  0.0000000E+00 -0.1010072E-04
  0.3181818E+00  0.0000000E+00  0.1515152E-01  0.2202882E-08  0.0000000E+00 -0.1009920E-04
  0.3282828E+00  0.0000000E+00  0.1515152E-01  0.2096141E-08  0.0000000E+00 -0.1009775E-04
  0.3383838E+00  0.0000000E+00  0.1515152E-01  0.1978643E-08  0.0000000E+00 -0.1009638E-04
  0.3484848E+00  0.0000000E+00  0.1515152E-01  0.1850907E-08  0.0000000E+00 -0.1009509E-04
  0.3585859E+00  0.0000000E+00  0.1515152E-01  0.1713507E-08  0.0000000E+00 -0.1009389E-04
  0.3686869E+00  0.0000000E+00  0.1515152E-01  0.1567072E-08  0.0000000E+00 -0.1009278E-04
  0.3787879E+00  0.0000000E+00  0.1515152E-01  0.1412279E-08  0.0000000E+00 -0.1009178E-04
  0.3888889E+00  0.0000000E+00  0.1515152E-01  0.1249848E-08  0.0000000E+00 -0.1009088E-04
  0.3989899E+00  0.0000000E+00  0.1515152E-01  0.1080542E-08  0.0000000E+00 -0.1009010E-04
  0.4090909E+00  0.0000000E+00  0.1515152E-01  0.9051571E-09  0.0000000E+00 -0.1008943E-04
  0.4191919E+00  0.0000000E+00  0.1515152E-01  0.7245203E-09  0.0000000E+00 -0.1008888E-04
  0.4292929E+00  0.0000000E+00  0.1515152E-01  0.5394839E-09  0.0000000E+00 -0.1008845E-04
  0.4393939E+00  0.0000000E+00  0.1515152E-01  0.3509200E-09  0.0000000E+00 -0.1008815E-04
  0.4494950E+00  0.0000000E+00  0.1515152E-01  0.1597151E-09  0.0000000E+00 -0.1008798E-04
  0.4595959E+00  0.0000000E+00  0.1515152E-01 -0.3323554E-10  0.0000000E+00 -0.1008794E-04
  0.4696970E+00  0.0000000E+00  0.1515152E-01 -0.2270327E-09  0.0000000E+00 -0.1008803E-04
  0.4797980E+00  0.0000000E+00  0.1515152E-01 -0.4207789E-09  0.0000000E+00 -0.1008824E-04
  0.4898990E+00  0.0000000E+00  0.1515152E-01 -0.6135836E-09  0.0000000E+00 -0.1008859E-04
  0.5000000E+00  0.0000000E+00  0.1515152E-01 -0.8045684E-09  0.0000000E+00 -0.1008907E-04
  0.5101010E+00  0.0000000E+00  0.1515152E-01 -0.9928713E-09  0.0000000E+00 -0.1008967E-04
  0.5202020E+00  0.0000000E+00  0.1515152E-01 -0.1177652E-08  0.0000000E+00 -0.1009040E-04
  0.5303030E+00  0.0000000E+00  0.1515152E-01 -0.1358097E-08  0.0000000E+00 -0.1009126E-04
  0.5404040E+00  0.0000000E+00  0.1515152E-01 -0.1533420E-08  0.0000000E+00 -0.1009223E-04
  0.5505050E+00  0.0000000E+00  0.1515152E-01 -0.1702873E-08  0.0000000E+00 -0.1009332E-04
  0.5606061E+00  0.0000000E+00  0.1515152E-01 -0.1865743E-08  0.0000000E+00 -0.1009452E-04
  0.5707071E+00  0.0000000E+00  0.1515152E-01 -0.2021358E-08  0.0000000E+00 -0.1009583E-04
  0.5808081E+00  0.0000000E+00  0.1515152E-01 -0.2169091E-08  0.0000000E+00 -0.1009724E-04
  0.5909091E+00  0.0000000E+00  0.1515152E-01 -0.2308360E-08  0.0000000E+00 -0.1009875E-04
  0.6010101E+00  0.0000000E+00  0.1515152E-01 -0.2438634E-08  0.0000000E+00 -0.1010035E-04
  0.6111111E+00  0.0000000E+00  0.1515152E-01 -0.2559432E-08  0.0000000E+00 -0.1010203E-04
  0.6212121E+00  0.0000000E+00  0.1515152E-01 -0.2670325E-08  0.0000000E+00 -0.1010379E-04
  0.6313131E+00  0.0000000E+00  0.1515152E-01 -0.2770937E-08  0.0000000E+00 -0.1010562E-04
  0.6414142E+00  0.0000000E+00  0.1515152E-01 -0.2860949E-08  0.0000000E+00 -0.1010752E-04
  0.6515151E+00  0.0000000E+00  0.1515152E-01 -0.2940093E-08  0.0000000E+00 -0.1010947E-04
  0.6616161E+00  0.0000000E+00  0.1515152E-01 -0.3008159E-08  0.0000000E+00 -0.1011147E-04
  0.6717172E+00  0.0000000E+00  0.1515152E-01 -0.3064988E-08  0.0000000E+00 -0.1011351E-04
  0.6818182E+00  0.0000000E+00  0.1515152E-01 -0.3110477E-08  0.0000000E+00 -0.1011559E-04
  0.6919192E+00  0.0000000E+00  0.1515152E-01 -0.3144575E-08  0.0000000E+00 -0.1011770E-04
  0.7020202E+00  0.0000000E+00  0.1515152E-01 -0.3167281E-08  0.0000000E+00 -0.1011982E-04
  0.7121212E+00  0.0000000E+00  0.1515152E-01 -0.3178642E-08  0.0000000E+00 -0.1012196E-04
  0.7222222E+00  0.0000000E+00  0.1515152E-01 -0.3178754E-08  0.0000000E+00 -0.1012410E-04
  0.7323232E+00  0.0000000E+00  0.1515152E-01 -0.3167755E-08  0.0000000E+00 -0.1012623E-04
  0.7424242E+00  0.0000000E+00  0.1515152E-01 -0.3145826E-08  0.0000000E+00 -0.1012836E-04
  0.7525253E+00  0.0000000E+00  0.1515152E-01 -0.3113188E-08  0.0000000E+00 -0.1013046E-04
  0.7626263E+00  0.0000000E+00  0.1515152E-01 -0.3070096E-08  0.0000000E+00 -0.1013254E-04
  0.7727273E+00  0.0000000E+00  0.1515152E-01 -0.3016837E-08  0.0000000E+00 -0.1013459E-04
  0.7828283E+00  0.0000000E+00  0.1515152E-01 -0.2953732E-08  0.0000000E+00 -0.1013660E-04
  0.7929293E+00  0.0000000E+00  0.1515152E-01 -0.2881123E-08  0.0000000E+00 -0.1013856E-04
  0.8030303E+00  0.0000000E+00  0.1515152E-01 -0.2799380E-08  0.0000000E+00 -0.1014047E-04
  0.8131313E+00  0.0000000E+00  0.1515152E-01 -0.2708891E-08  0.0000000E+00 -0.1014233E-04
  0.8232324E+00  0.0000000E+00  0.1515152E-01 -0.2610063E-08  0.0000000E+00 -0.1014412E-04
  0.8333333E+00  0.0000000E+00  0.1515152E-01 -0.2503316E-08  0.0000000E+00 -0.1014584E-04
  0.8434343E+00  0.0000000E+00  0.1515152E-01 -0.2389082E-08  0.0000000E+00 -0.1014748E-04
  0.8535354E+00  0.0000000E+00  0.1515152E-01 -0.2267806E-08  0.0000000E+00 -0.1014905E-04
  0.8636364E+00  0.0000000E+00  0.1515152E-01 -0.2139935E-08  0.0000000E+00 -0.1015053E-04
  0.8737374E+00  0.0000000E+00  0.1515152E-01 -0.2005925E-08  0.0000000E+00 -0.1015193E-04
  0.8838384E+00  0.0000000E+00  0.1515152E-01 -0.1866235E-08  0.0000000E+00 -0.1015323E-04
  0.8939394E+00  0.0000000E+00  0.1515152E-01 -0.1721325E-08  0.0000000E+00 -0.1015443E-04
  0.9040404E+00  0.0000000E+00  0.1515152E-01 -0.1571657E-08  0.0000000E+00 -0.1015554E-04
  0.9141414E+00  0.0000000E+00  0.1515152E-01 -0.1417692E-08  0.0000000E+00 -0.1015655E-04
  0.9242424E+00  0.0000000E+00  0.1515152E-01 -0.1259889E-08  0.0000000E+00 -0.1015745E-04
  0.9343435E+00  0.0000000E+00  0.1515152E-01 -0.1098708E-08  0.0000000E+00 -0.1015824E-04
  0.9444444E+00  0.0000000E+00  0.1515152E-01 -0.9346043E-09  0.0000000E+00 -0.1015893E-04
  0.9545454E+00  0.0000000E+00  0.1515152E-01 -0.7680327E-09  0.0000000E+00 -0.1015950E-04
  0.9646465E+00  0.0000000E+00  0.1515152E-01 -0.5994451E-09  0.0000000E+00 -0.1015996E-04
  0.9747475E+00  0.0000000E+00  0.1515152E-01 -0.4292920E-09  0.0000000E+00 -0.1016030E-04
  0.9848485E+00  0.0000000E+00  0.1515152E-01 -0.2580218E-09  0.0000000E+00 -0.1016053E-04
  0.9974747E+00  0.0000000E+00  0.1515152E-01 -0.8608205E-10  0.0000000E+00 -0.1016065E-04
  0.5050505E-02  0.0000000E+00  0.2525252E-01  0.1465834E-09  0.0000000E+00 -0.1011117E-04
  0.1515152E-01  0.0000000E+00  0.2525252E-01  0.4391337E-09  0.0000000E+00 -0.1011105E-04
  0.2525252E-01  0.0000000E+00  0.2525252E-01  0.7298295E-09  0.0000000E+00 -0.1011081E-04
  0.3535353E-01  0.0000000E+00  0.2525252E-01  0.1017438E-08  0.0000000E+00 -0.1011045E-04
  0.4545455E-01  0.0000000E+00  0.2525252E-01  0.1300736E-08  0.0000000E+00 -0.1010998E-04
  0.5555556E-01  0.0000000E+00  0.2525252E-01  0.1578506E-08  0.0000000E+00 -0.1010939E-04
  0.6565657E-01  0.0000000E+00  0.2525252E-01  0.1849549E-08  0.0000000E+00 -0.1010868E-04
  0.7575758E-01  0.0000000E+00  0.2525252E-01  0.2112679E-08  0.0000000E+00 -0.1010787E-04
  0.8585858E-01  0.0000000E+00  0.2525252E-01  0.2366730E-08  0.0000000E+00 -0.1010695E-04
  0.9595960E-01  0.0000000E+00  0.2525252E-01  0.2610562E-08  0.0000000E+00 -0.1010593E-04
  0.1060606E+00  0.0000000E+00  0.2525252E-01  0.2843062E-08  0.0000000E+00 -0.1010481E-04
  0.1161616E+00  0.0000000E+00  0.2525252E-01  0.3063149E-08  0.0000000E+00 -0.1010359E-04
  0.1262626E+00  0.0000000E+00  0.2525252E-01  0.3269778E-08  0.0000000E+00 -0.1010229E-04
  0.1363636E+00  0.0000000E+00  0.2525252E-01  0.3461948E-08  0.0000000E+00 -0.1010091E-04
  0.1464646E+00  0.0000000E+00  0.2525252E-01  0.3638705E-08  0.0000000E+00 -0.1009945E-04
  0.1565657E+00  0.0000000E+00  0.2525252E-01  0.3799145E-08  0.0000000E+00 -0.1009792E-04
  0.1666667E+00  0.0000000E+00  0.2525252E-01  0.3942424E-08  0.0000000E+00 -0.1009633E-04
  0.1767677E+00  0.0000000E+00  0.2525252E-01  0.4067761E-08  0.0000000E+00 -0.1009469E-04
  0.1868687E+00  0.0000000E+00  0.2525252E-01  0.4174444E-08  0.0000000E+00 -0.1009299E-04
  0.1969697E+00  0.0000000E+00  0.2525252E-01  0.4261835E-08  0.0000000E+00 -0.1009126E-04
  0.2070707E+00  0.0000000E+00  0.2525252E-01  0.4329376E-08  0.0000000E+00 -0.1008949E-04
  0.2171717E+00  0.0000000E+00  0.2525252E-01  0.4376597E-08  0.0000000E+00 -0.1008770E-04
  0.2272727E+00  0.0000000E+00  0.2525252E-01  0.4403116E-08  0.0000000E+00 -0.1008590E-04
  0.2373737E+00  0.0000000E+00  0.2525252E-01  0.4408646E-08  0.0000000E+00 -0.1008409E-04
  0.2474747E+00  0.0000000E+00  0.2525252E-01  0.4393000E-08  0.0000000E+00 -0.1008228E-04
  0.2575758E+00  0.0000000E+00  0.2525252E-01  0.4356094E-08  0.0000000E+00 -0.1008048E-04
  0.2676768E+00  0.0000000E+00  0.2525252E-01  0.4297949E-08  0.0000000E+00 -0.1007870E-04
  0.2777778E+00  0.0000000E+00  0.2525252E-01  0.4218693E-08  0.0000000E+00 -0.1007695E-04
  0.2878788E+00  0.0000000E+00  0.2525252E-01  0.4118565E-08  0.0000000E+00 -0.1007523E-04
  0.2979798E+00  0.0000000E+00  0.2525252E-01  0.3997912E-08  0.0000000E+00 -0.1007357E-04
  0.3080808E+00  0.0000000E+00  0.2525252E-01  0.3857190E-08  0.0000000E+00 -0.1007195E-04
  0.3181818E+00  0.0000000E+00  0.2525252E-01  0.3696965E-08  0.0000000E+00 -0.1007040E-04
  0.3282828E+00  0.0000000E+00  0.2525252E-01  0.3517907E-08  0.0000000E+00 -0.1006891E-04
  0.3383838E+00  0.0000000E+00  0.2525252E-01  0.3320790E-08  0.0000000E+00 -0.1006751E-04
  0.3484848E+00  0.0000000E+00  0.2525252E-01  0.3106487E-08  0.0000000E+00 -0.1006618E-04
  0.3585859E+00  0.0000000E+00  0.2525252E-01  0.2875962E-08  0.0000000E+00 -0.1006495E-04
  0.3686869E+00  0.0000000E+00  0.2525252E-01  0.2630272E-08  0.0000000E+00 -0.1006382E-04
  0.3787879E+00  0.0000000E+00  0.2525252E-01  0.2370552E-08  0.0000000E+00 -0.1006279E-04
  0.3888889E+00  0.0000000E+00  0.2525252E-01  0.2098014E-08  0.0000000E+00 -0.1006187E-04
  0.3989899E+00  0.0000000E+00  0.2525252E-01  0.1813937E-08  0.0000000E+00 -0.1006107E-04
  0.4090909E+00  0.0000000E+00  0.2525252E-01  0.1519660E-08  0.0000000E+00 -0.1006038E-04
  0.4191919E+00  0.0000000E+00  0.2525252E-01  0.1216570E-08  0.0000000E+00 -0.1005982E-04
  0.4292929E+00  0.0000000E+00  0.2525252E-01  0.9061012E-09  0.0000000E+00 -0.1005938E-04
  0.4393939E+00  0.0000000E+00  0.2525252E-01  0.5897163E-09  0.0000000E+00 -0.1005907E-04
  0.4494950E+00  0.0000000E+00  0.2525252E-01  0.2689043E-09  0.0000000E+00 -0.1005889E-04
  0.4595959E+00  0.0000000E+00  0.2525252E-01 -0.5483098E-10  0.0000000E+00 -0.1005885E-04
  0.4696970E+00  0.0000000E+00  0.2525252E-01 -0.3799800E-09  0.0000000E+00 -0.1005894E-04
  0.4797980E+00  0.0000000E+00  0.2525252E-01 -0.7050360E-09  0.0000000E+00 -0.1005916E-04
  0.4898990E+00  0.0000000E+00  0.2525252E-01 -0.1028504E-08  0.0000000E+00 -0.1005951E-04
  0.5000000E+00  0.0000000E+00  0.2525252E-01 -0.1348909E-08  0.0000000E+00 -0.1006000E-04
  0.5101010E+00  0.0000000E+00  0.2525252E-01 -0.1664805E-08  0.0000000E+00 -0.1006062E-04
  0.5202020E+00  0.0000000E+00  0.2525252E-01 -0.1974780E-08  0.0000000E+00 -0.1006137E-04
  0.5303030E+00  0.0000000E+00  0.2525252E-01 -0.2277470E-08  0.0000000E+00 -0.1006224E-04
  0.5404040E+00  0.0000000E+00  0.2525252E-01 -0.2571557E-08  0.0000000E+00 -0.1006323E-04
  0.5505050E+00  0.0000000E+00  0.2525252E-01 -0.2855784E-08  0.0000000E+00 -0.1006435E-04
  0.5606061E+00  0.0000000E+00  0.2525252E-01 -0.3128953E-08  0.0000000E+00 -0.1006558E-04
  0.5707071E+00  0.0000000E+00  0.2525252E-01 -0.3389940E-08  0.0000000E+00 -0.1006691E-04
  0.5808081E+00  0.0000000E+00  0.2525252E-01 -0.3637692E-08  0.0000000E+00 -0.1006836E-04
  0.5909091E+00  0.0000000E+00  0.2525252E-01 -0.3871233E-08  0.0000000E+00 -0.1006990E-04
  0.6010101E+00  0.0000000E+00  0.2525252E-01 -0.4089673E-08  0.0000000E+00 -0.1007153E-04
  0.6111111E+00  0.0000000E+00  0.2525252E-01 -0.4292205E-08  0.0000000E+00 -0.1007325E-04
  0.6212121E+00  0.0000000E+00  0.2525252E-01 -0.4478110E-08  0.0000000E+00 -0.1007505E-04
  0.6313131E+00  0.0000000E+00  0.2525252E-01 -0.4646760E-08  0.0000000E+00 -0.1007692E-04
  0.6414142E+00  0.0000000E+00  0.2525252E-01 -0.4797617E-08  0.0000000E+00 -0.1007886E-04
  0.6515151E+00  0.0000000E+00  0.2525252E-01 -0.4930236E-08  0.0000000E+00 -0.1008086E-04
  0.6616161E+00  0.0000000E+00  0.2525252E-01 -0.5044264E-08  0.0000000E+00 -0.1008291E-04
  0.6717172E+00  0.0000000E+00  0.2525252E-01 -0.5139439E-08  0.0000000E+00 -0.1008499E-04
  0.6818182E+00  0.0000000E+00  0.2525252E-01 -0.5215587E-08  0.0000000E+00 -0.1008712E-04
  0.6919192E+00  0.0000000E+00  0.2525252E-01 -0.5272624E-08  0.0000000E+00 -0.1008927E-04
  0.7020202E+00  0.0000000E+00  0.2525252E-01 -0.5310551E-08  0.0000000E+00 -0.1009144E-04
  0.7121212E+00  0.0000000E+00  0.2525252E-01 -0.5329451E-08  0.0000000E+00 -0.1009362E-04
  0.7222222E+00  0.0000000E+00  0.2525252E-01 -0.5329483E-08  0.0000000E+00 -0.1009581E-04
  0.7323232E+00  0.0000000E+00  0.2525252E-01 -0.5310885E-08  0.0000000E+00 -0.1009799E-04
  0.7424242E+00  0.0000000E+00  0.2525252E-01 -0.5273961E-08  0.0000000E+00 -0.1010016E-04
  0.7525253E+00  0.0000000E+00  0.2525252E-01 -0.5219082E-08  0.0000000E+00 -0.1010231E-04
  0.7626263E+00  0.0000000E+00  0.2525252E-01 -0.5146680E-08  0.0000000E+00 -0.1010444E-04
  0.7727273E+00  0.0000000E+00  0.2525252E-01 -0.5057240E-08  0.0000000E+00 -0.1010653E-04
  0.7828283E+00  0.0000000E+00  0.2525252E-01 -0.4951298E-08  0.0000000E+00 -0.1010858E-04
  0.7929293E+00  0.0000000E+00  0.2525252E-01 -0.4829435E-08  0.0000000E+00 -0.1011059E-04
  0.8030303E+00  0.0000000E+00  0.2525252E-01 -0.4692269E-08  0.0000000E+00 -0.1011254E-04
  0.8131313E+00  0.0000000E+00  0.2525252E-01 -0.4540455E-08  0.0000000E+00 -0.1011443E-04
  0.8232324E+00  0.0000000E+00  0.2525252E-01 -0.4374674E-08  0.0000000E+00 -0.1011626E-04
  0.8333333E+00  0.0000000E+00  0.2525252E-01 -0.4195634E-08  0.0000000E+00 -0.1011801E-04
  0.8434343E+00  0.0000000E+00  0.2525252E-01 -0.4004062E-08  0.0000000E+00 -0.1011969E-04
  0.8535354E+00  0.0000000E+00  0.2525252E-01 -0.3800700E-08  0.0000000E+00 -0.1012129E-04
  0.8636364E+00  0.0000000E+00  0.2525252E-01 -0.3586302E-08  0.0000000E+00 -0.1012281E-04
  0.8737374E+00  0.0000000E+00  0.2525252E-01 -0.3361632E-08  0.0000000E+00 -0.1012423E-04
  0.8838384E+00  0.0000000E+00  0.2525252E-01 -0.3127458E-08  0.0000000E+00 -0.1012556E-04
  0.8939394E+00  0.0000000E+00  0.2525252E-01 -0.2884553E-08  0.0000000E+00 -0.1012679E-04
  0.9040404E+00  0.0000000E+00  0.2525252E-01 -0.2633689E-08  0.0000000E+00 -0.1012792E-04
  0.9141414E+00  0.0000000E+00  0.2525252E-01 -0.2375638E-08  0.0000000E+00 -0.1012894E-04
  0.9242424E+00  0.0000000E+00  0.2525252E-01 -0.2111172E-08  0.0000000E+00 -0.1012986E-04
  0.9343435E+00  0.0000000E+00  0.2525252E-01 -0.1841056E-08  0.0000000E+00 -0.1013067E-04
  0.9444444E+00  0.0000000E+00  0.2525252E-01 -0.1566054E-08  0.0000000E+00 -0.1013137E-04
  0.9545454E+00  0.0000000E+00  0.2525252E-01 -0.1286927E-08  0.0000000E+00 -0.1013195E-04
  0.9646465E+00  0.0000000E+00  0.2525252E-01 -0.1004430E-08  0.0000000E+00 -0.1013242E-04
  0.9747475E+00  0.0000000E+00  0.2525252E-01 -0.7193170E-09  0.0000000E+00 -0.1013278E-04
  0.9848485E+00  0.0000000E+00  0.2525252E-01 -0.4323366E-09  0.0000000E+00 -0.1013301E-04
  0.9974747E+00  0.0000000E+00  0.2525252E-01 -0.1442370E-09  0.0000000E+00 -0.1013313E-04
  0.5050505E-02  0.0000000E+00  0.3535353E-01  0.2073095E-09  0.0000000E+00 -0.1006950E-04
  0.1515152E-01  0.0000000E+00  0.3535353E-01  0.6210578E-09  0.0000000E+00 -0.1006937E-04
  0.2525252E-01  0.0000000E+00  0.3535353E-01  0.1032188E-08  0.0000000E+00 -0.1006912E-04
  0.3535353E-01  0.0000000E+00  0.3535353E-01  0.1438962E-08  0.0000000E+00 -0.1006875E-04
  0.4545455E-01  0.0000000E+00  0.3535353E-01  0.1839648E-08  0.0000000E+00 -0.1006826E-04
  0.5555556E-01  0.0000000E+00  0.3535353E-01  0.2232534E-08  0.0000000E+00 -0.1006765E-04
  0.6565657E-01  0.0000000E+00  0.3535353E-01  0.2615920E-08  0.0000000E+00 -0.1006692E-04
  0.7575758E-01  0.0000000E+00  0.3535353E-01  0.2988133E-08  0.0000000E+00 -0.1006608E-04
  0.8585858E-01  0.0000000E+00  0.3535353E-01  0.3347528E-08  0.0000000E+00 -0.1006513E-04
  0.9595960E-01  0.0000000E+00  0.3535353E-01  0.3692490E-08  0.0000000E+00 -0.1006407E-04
  0.1060606E+00  0.0000000E+00  0.3535353E-01  0.4021447E-08  0.0000000E+00 -0.1006291E-04
  0.1161616E+00  0.0000000E+00  0.3535353E-01  0.4332869E-08  0.0000000E+00 -0.1006166E-04
  0.1262626E+00  0.0000000E+00  0.3535353E-01  0.4625279E-08  0.0000000E+00 -0.1006031E-04
  0.1363636E+00  0.0000000E+00  0.3535353E-01  0.4897259E-08  0.0000000E+00 -0.1005888E-04
  0.1464646E+00  0.0000000E+00  0.3535353E-01  0.5147457E-08  0.0000000E+00 -0.1005737E-04
  0.1565657E+00  0.0000000E+00  0.3535353E-01  0.5374594E-08  0.0000000E+00 -0.1005579E-04
  0.1666667E+00  0.0000000E+00  0.3535353E-01  0.5577471E-08  0.0000000E+00 -0.1005414E-04
  0.1767677E+00  0.0000000E+00  0.3535353E-01  0.5754982E-08  0.0000000E+00 -0.1005244E-04
  0.1868687E+00  0.0000000E+00  0.3535353E-01  0.5906114E-08  0.0000000E+00 -0.1005068E-04
  0.1969697E+00  0.0000000E+00  0.3535353E-01  0.6029964E-08  0.0000000E+00 -0.1004889E-04
  0.2070707E+00  0.0000000E+00  0.3535353E-01  0.6125737E-08  0.0000000E+00 -0.1004706E-04
  0.2171717E+00  0.0000000E+00  0.3535353E-01  0.6192764E-08  0.0000000E+00 -0.1004521E-04
  0.2272727E+00  0.0000000E+00  0.3535353E-01  0.6230500E-08  0.0000000E+00 -0.1004334E-04
  0.2373737E+00  0.0000000E+00  0.3535353E-01  0.6238537E-08  0.0000000E+00 -0.1004146E-04
  0.2474747E+00  0.0000000E+00  0.3535353E-01  0.6216605E-08  0.0000000E+00 -0.1003959E-04
  0.2575758E+00  0.0000000E+00  0.3535353E-01  0.6164582E-08  0.0000000E+00 -0.1003772E-04
  0.2676768E+00  0.0000000E+00  0.3535353E-01  0.6082495E-08  0.0000000E+00 -0.1003588E-04
  0.2777778E+00  0.0000000E+00  0.3535353E-01  0.5970523E-08  0.0000000E+00 -0.1003407E-04
  0.2878788E+00  0.0000000E+00  0.3535353E-01  0.5829001E-08  0.0000000E+00 -0.1003229E-04
  0.2979798E+00  0.0000000E+00  0.3535353E-01  0.5658418E-08  0.0000000E+00 -0.1003056E-04