title = "dataset water"
variables = "x", "y", "z", "vx", "vy", "vz"
zone t = "velocities, solution time =  5.200E+01 days        " i =   99, j =   99, k =    1,  f=point
  0.5050505E-02  0.0000000E+00  0.5050505E-02  0.2920090E-07  0.0000000E+00  0.4296588E-04
  0.1515152E-01  0.0000000E+00  0.5050505E-02  0.8763113E-07  0.0000000E+00  0.4308367E-04
  0.2525252E-01  0.0000000E+00  0.5050505E-02  0.1461429E-06  0.0000000E+00  0.4331936E-04
  0.3535353E-01  0.0000000E+00  0.5050505E-02  0.2047761E-06  0.0000000E+00  0.4367318E-04
  0.4545455E-01  0.0000000E+00  0.5050505E-02  0.2635444E-06  0.0000000E+00  0.4414539E-04
  0.5555556E-01  0.0000000E+00  0.5050505E-02  0.3224176E-06  0.0000000E+00  0.4473625E-04
  0.6565657E-01  0.0000000E+00  0.5050505E-02  0.3812939E-06  0.0000000E+00  0.4544589E-04
  0.7575758E-01  0.0000000E+00  0.5050505E-02  0.4399581E-06  0.0000000E+00  0.4627414E-04
  0.8585858E-01  0.0000000E+00  0.5050505E-02  0.4980168E-06  0.0000000E+00  0.4722019E-04
  0.9595960E-01  0.0000000E+00  0.5050505E-02  0.5548001E-06  0.0000000E+00  0.4828221E-04
  0.1060606E+00  0.0000000E+00  0.5050505E-02  0.6092162E-06  0.0000000E+00  0.4945654E-04
  0.1161616E+00  0.0000000E+00  0.5050505E-02  0.6595470E-06  0.0000000E+00  0.5073674E-04
  0.1262626E+00  0.0000000E+00  0.5050505E-02  0.7031834E-06  0.0000000E+00  0.5211197E-04
  0.1363636E+00  0.0000000E+00  0.5050505E-02  0.7363361E-06  0.0000000E+00  0.5356493E-04
  0.1464646E+00  0.0000000E+00  0.5050505E-02  0.7538422E-06  0.0000000E+00  0.5506928E-04
  0.1565657E+00  0.0000000E+00  0.5050505E-02  0.7493468E-06  0.0000000E+00  0.5658705E-04
  0.1666667E+00  0.0000000E+00  0.5050505E-02  0.7163645E-06  0.0000000E+00  0.5806726E-04
  0.1767677E+00  0.0000000E+00  0.5050505E-02  0.6508347E-06  0.0000000E+00  0.5944822E-04
  0.1868687E+00  0.0000000E+00  0.5050505E-02  0.5552210E-06  0.0000000E+00  0.6066662E-04
  0.1969697E+00  0.0000000E+00  0.5050505E-02  0.4419723E-06  0.0000000E+00  0.6167416E-04
  0.2070707E+00  0.0000000E+00  0.5050505E-02  0.3305641E-06  0.0000000E+00  0.6245482E-04
  0.2171717E+00  0.0000000E+00  0.5050505E-02  0.2348377E-06  0.0000000E+00  0.6302621E-04
  0.2272727E+00  0.0000000E+00  0.5050505E-02  0.1595306E-06  0.0000000E+00  0.6342479E-04
  0.2373737E+00  0.0000000E+00  0.5050505E-02  0.1030872E-06  0.0000000E+00  0.6369023E-04
  0.2474747E+00  0.0000000E+00  0.5050505E-02  0.6126664E-07  0.0000000E+00  0.6385635E-04
  0.2575758E+00  0.0000000E+00  0.5050505E-02  0.2946082E-07  0.0000000E+00  0.6394806E-04
  0.2676768E+00  0.0000000E+00  0.5050505E-02  0.3727797E-08  0.0000000E+00  0.6398160E-04
  0.2777778E+00  0.0000000E+00  0.5050505E-02 -0.1893240E-07  0.0000000E+00  0.6396623E-04
  0.2878788E+00  0.0000000E+00  0.5050505E-02 -0.4063041E-07  0.0000000E+00  0.6390603E-04
  0.2979798E+00  0.0000000E+00  0.5050505E-02 -0.6273318E-07  0.0000000E+00  0.6380155E-04
  0.3080808E+00  0.0000000E+00  0.5050505E-02 -0.8600309E-07  0.0000000E+00  0.6365122E-04
  0.3181818E+00  0.0000000E+00  0.5050505E-02 -0.1107027E-06  0.0000000E+00  0.6345240E-04
  0.3282828E+00  0.0000000E+00  0.5050505E-02 -0.1366698E-06  0.0000000E+00  0.6320238E-04
  0.3383838E+00  0.0000000E+00  0.5050505E-02 -0.1633826E-06  0.0000000E+00  0.6289913E-04
  0.3484848E+00  0.0000000E+00  0.5050505E-02 -0.1900361E-06  0.0000000E+00  0.6254195E-04
  0.3585859E+00  0.0000000E+00  0.5050505E-02 -0.2156498E-06  0.0000000E+00  0.6213198E-04
  0.3686869E+00  0.0000000E+00  0.5050505E-02 -0.2392072E-06  0.0000000E+00  0.6167234E-04
  0.3787879E+00  0.0000000E+00  0.5050505E-02 -0.2598122E-06  0.0000000E+00  0.6116811E-04
  0.3888889E+00  0.0000000E+00  0.5050505E-02 -0.2768235E-06  0.0000000E+00  0.6062590E-04
  0.3989899E+00  0.0000000E+00  0.5050505E-02 -0.2899320E-06  0.0000000E+00  0.6005330E-04
  0.4090909E+00  0.0000000E+00  0.5050505E-02 -0.2991691E-06  0.0000000E+00  0.5945816E-04
  0.4191919E+00  0.0000000E+00  0.5050505E-02 -0.3048582E-06  0.0000000E+00  0.5884799E-04
  0.4292929E+00  0.0000000E+00  0.5050505E-02 -0.3075355E-06  0.0000000E+00  0.5822942E-04
  0.4393939E+00  0.0000000E+00  0.5050505E-02 -0.3078660E-06  0.0000000E+00  0.5760786E-04
  0.4494950E+00  0.0000000E+00  0.5050505E-02 -0.3065711E-06  0.0000000E+00  0.5698731E-04
  0.4595959E+00  0.0000000E+00  0.5050505E-02 -0.3043735E-06  0.0000000E+00  0.5637034E-04
  0.4696970E+00  0.0000000E+00  0.5050505E-02 -0.3019593E-06  0.0000000E+00  0.5575808E-04
  0.4797980E+00  0.0000000E+00  0.5050505E-02 -0.2999514E-06  0.0000000E+00  0.5515032E-04
  0.4898990E+00  0.0000000E+00  0.5050505E-02 -0.2988910E-06  0.0000000E+00  0.5454571E-04
  0.5000000E+00  0.0000000E+00  0.5050505E-02 -0.2992209E-06  0.0000000E+00  0.5394188E-04
  0.5101010E+00  0.0000000E+00  0.5050505E-02 -0.3012711E-06  0.0000000E+00  0.5333569E-04
  0.5202020E+00  0.0000000E+00  0.5050505E-02 -0.3052440E-06  0.0000000E+00  0.5272347E-04
  0.5303030E+00  0.0000000E+00  0.5050505E-02 -0.3112047E-06  0.0000000E+00  0.5210127E-04
  0.5404040E+00  0.0000000E+00  0.5050505E-02 -0.3190779E-06  0.0000000E+00  0.5146515E-04
  0.5505050E+00  0.0000000E+00  0.5050505E-02 -0.3286546E-06  0.0000000E+00  0.5081147E-04
  0.5606061E+00  0.0000000E+00  0.5050505E-02 -0.3396120E-06  0.0000000E+00  0.5013713E-04
  0.5707071E+00  0.0000000E+00  0.5050505E-02 -0.3515429E-06  0.0000000E+00  0.4943975E-04
  0.5808081E+00  0.0000000E+00  0.5050505E-02 -0.3639928E-06  0.0000000E+00  0.4871784E-04
  0.5909091E+00  0.0000000E+00  0.5050505E-02 -0.3764979E-06  0.0000000E+00  0.4797081E-04
  0.6010101E+00  0.0000000E+00  0.5050505E-02 -0.3886177E-06  0.0000000E+00  0.4719902E-04
  0.6111111E+00  0.0000000E+00  0.5050505E-02 -0.3999604E-06  0.0000000E+00  0.4640364E-04
  0.6212121E+00  0.0000000E+00  0.5050505E-02 -0.4101975E-06  0.0000000E+00  0.4558657E-04
  0.6313131E+00  0.0000000E+00  0.5050505E-02 -0.4190702E-06  0.0000000E+00  0.4475031E-04
  0.6414142E+00  0.0000000E+00  0.5050505E-02 -0.4263884E-06  0.0000000E+00  0.4389782E-04
  0.6515151E+00  0.0000000E+00  0.5050505E-02 -0.4320254E-06  0.0000000E+00  0.4303235E-04
  0.6616161E+00  0.0000000E+00  0.5050505E-02 -0.4359099E-06  0.0000000E+00  0.4215738E-04
  0.6717172E+00  0.0000000E+00  0.5050505E-02 -0.4380172E-06  0.0000000E+00  0.4127646E-04
  0.6818182E+00  0.0000000E+00  0.5050505E-02 -0.4383608E-06  0.0000000E+00  0.4039317E-04
  0.6919192E+00  0.0000000E+00  0.5050505E-02 -0.4369844E-06  0.0000000E+00  0.3951101E-04
  0.7020202E+00  0.0000000E+00  0.5050505E-02 -0.4339550E-06  0.0000000E+00  0.3863339E-04
  0.7121212E+00  0.0000000E+00  0.5050505E-02 -0.4293568E-06  0.0000000E+00  0.3776354E-04
  0.7222222E+00  0.0000000E+00  0.5050505E-02 -0.4232862E-06  0.0000000E+00  0.3690454E-04
  0.7323232E+00  0.0000000E+00  0.5050505E-02 -0.4158474E-06  0.0000000E+00  0.3605923E-04
  0.7424242E+00  0.0000000E+00  0.5050505E-02 -0.4071487E-06  0.0000000E+00  0.3523027E-04
  0.7525253E+00  0.0000000E+00  0.5050505E-02 -0.3972992E-06  0.0000000E+00  0.3442006E-04
  0.7626263E+00  0.0000000E+00  0.5050505E-02 -0.3864069E-06  0.0000000E+00  0.3363082E-04
  0.7727273E+00  0.0000000E+00  0.5050505E-02 -0.3745761E-06  0.0000000E+00  0.3286454E-04
  0.7828283E+00  0.0000000E+00  0.5050505E-02 -0.3619062E-06  0.0000000E+00  0.3212300E-04
  0.7929293E+00  0.0000000E+00  0.5050505E-02 -0.3484901E-06  0.0000000E+00  0.3140778E-04
  0.8030303E+00  0.0000000E+00  0.5050505E-02 -0.3344143E-06  0.0000000E+00  0.3072030E-04
  0.8131313E+00  0.0000000E+00  0.5050505E-02 -0.3197573E-06  0.0000000E+00  0.3006180E-04
  0.8232324E+00  0.0000000E+00  0.5050505E-02 -0.3045904E-06  0.0000000E+00  0.2943337E-04
  0.8333333E+00  0.0000000E+00  0.5050505E-02 -0.2889774E-06  0.0000000E+00  0.2883596E-04
  0.8434343E+00  0.0000000E+00  0.5050505E-02 -0.2729747E-06  0.0000000E+00  0.2827041E-04
  0.8535354E+00  0.0000000E+00  0.5050505E-02 -0.2566320E-06  0.0000000E+00  0.2773745E-04
  0.8636364E+00  0.0000000E+00  0.5050505E-02 -0.2399929E-06  0.0000000E+00  0.2723771E-04
  0.8737374E+00  0.0000000E+00  0.5050505E-02 -0.2230953E-06  0.0000000E+00  0.2677175E-04
  0.8838384E+00  0.0000000E+00  0.5050505E-02 -0.2059721E-06  0.0000000E+00  0.2634004E-04
  0.8939394E+00  0.0000000E+00  0.5050505E-02 -0.1886520E-06  0.0000000E+00  0.2594300E-04
  0.9040404E+00  0.0000000E+00  0.5050505E-02 -0.1711603E-06  0.0000000E+00  0.2558101E-04
  0.9141414E+00  0.0000000E+00  0.5050505E-02 -0.1535193E-06  0.0000000E+00  0.2525437E-04
  0.9242424E+00  0.0000000E+00  0.5050505E-02 -0.1357488E-06  0.0000000E+00  0.2496337E-04
  0.9343435E+00  0.0000000E+00  0.5050505E-02 -0.1178669E-06  0.0000000E+00  0.2470824E-04
  0.9444444E+00  0.0000000E+00  0.5050505E-02 -0.9989027E-07  0.0000000E+00  0.2448919E-04
  0.9545454E+00  0.0000000E+00  0.5050505E-02 -0.8183467E-07  0.0000000E+00  0.2430639E-04
  0.9646465E+00  0.0000000E+00  0.5050505E-02 -0.6371506E-07  0.0000000E+00  0.2415999E-04
  0.9747475E+00  0.0000000E+00  0.5050505E-02 -0.4554599E-07  0.0000000E+00  0.2405008E-04
  0.9848485E+00  0.0000000E+00  0.5050505E-02 -0.2734168E-07  0.0000000E+00  0.2397677E-04
  0.9974747E+00  0.0000000E+00  0.5050505E-02 -0.9116255E-08  0.0000000E+00  0.2394010E-04
  0.5050505E-02  0.0000000E+00  0.1515152E-01  0.8766523E-07  0.0000000E+00  0.4303825E-04
  0.1515152E-01  0.0000000E+00  0.1515152E-01  0.2630876E-06  0.0000000E+00  0.4315665E-04
  0.2525252E-01  0.0000000E+00  0.1515152E-01  0.4387751E-06  0.0000000E+00  0.4339357E-04
  0.3535353E-01  0.0000000E+00  0.1515152E-01  0.6148638E-06  0.0000000E+00  0.4374930E-04
  0.4545455E-01  0.0000000E+00  0.1515152E-01  0.7914171E-06  0.0000000E+00  0.4422420E-04
  0.5555556E-01  0.0000000E+00  0.1515152E-01  0.9683756E-06  0.0000000E+00  0.4481867E-04
  0.6565657E-01  0.0000000E+00  0.1515152E-01  0.1145480E-05  0.0000000E+00  0.4553309E-04
  0.7575758E-01  0.0000000E+00  0.1515152E-01  0.1322154E-05  0.0000000E+00  0.4636759E-04
  0.8585858E-01  0.0000000E+00  0.1515152E-01  0.1497317E-05  0.0000000E+00  0.4732192E-04
  0.9595960E-01  0.0000000E+00  0.1515152E-01  0.1669105E-05  0.0000000E+00  0.4839497E-04
  0.1060606E+00  0.0000000E+00  0.1515152E-01  0.1834442E-05  0.0000000E+00  0.4958420E-04
  0.1161616E+00  0.0000000E+00  0.1515152E-01  0.1988421E-05  0.0000000E+00  0.5088469E-04
  0.1262626E+00  0.0000000E+00  0.1515152E-01  0.2123476E-05  0.0000000E+00  0.5228767E-04
  0.1363636E+00  0.0000000E+00  0.1515152E-01  0.2228380E-05  0.0000000E+00  0.5377828E-04
  0.1464646E+00  0.0000000E+00  0.1515152E-01  0.2287387E-05  0.0000000E+00  0.5533248E-04
  0.1565657E+00  0.0000000E+00  0.1515152E-01  0.2280276E-05  0.0000000E+00  0.5691314E-04
  0.1666667E+00  0.0000000E+00  0.1515152E-01  0.2184946E-05  0.0000000E+00  0.5846625E-04
  0.1767677E+00  0.0000000E+00  0.1515152E-01  0.1985081E-05  0.0000000E+00  0.5992023E-04
  0.1868687E+00  0.0000000E+00  0.1515152E-01  0.1684687E-05  0.0000000E+00  0.6119424E-04
  0.1969697E+00  0.0000000E+00  0.1515152E-01  0.1324271E-05  0.0000000E+00  0.6222226E-04
  0.2070707E+00  0.0000000E+00  0.1515152E-01  0.9751357E-06  0.0000000E+00  0.6298680E-04
  0.2171717E+00  0.0000000E+00  0.1515152E-01  0.6824485E-06  0.0000000E+00  0.6352086E-04
  0.2272727E+00  0.0000000E+00  0.1515152E-01  0.4576654E-06  0.0000000E+00  0.6387717E-04
  0.2373737E+00  0.0000000E+00  0.1515152E-01  0.2924646E-06  0.0000000E+00  0.6410526E-04
  0.2474747E+00  0.0000000E+00  0.1515152E-01  0.1717128E-06  0.0000000E+00  0.6424268E-04
  0.2575758E+00  0.0000000E+00  0.1515152E-01  0.8045939E-07  0.0000000E+00  0.6431444E-04
  0.2676768E+00  0.0000000E+00  0.1515152E-01  0.6529456E-08  0.0000000E+00  0.6433537E-04
  0.2777778E+00  0.0000000E+00  0.1515152E-01 -0.5907411E-07  0.0000000E+00  0.6431295E-04
  0.2878788E+00  0.0000000E+00  0.1515152E-01 -0.1225678E-06  0.0000000E+00  0.6424958E-04
  0.2979798E+00  0.0000000E+00  0.1515152E-01 -0.1879298E-06  0.0000000E+00  0.6414438E-04
  0.3080808E+00  0.0000000E+00  0.1515152E-01 -0.2573498E-06  0.0000000E+00  0.6399453E-04
  0.3181818E+00  0.0000000E+00  0.1515152E-01 -0.3315411E-06  0.0000000E+00  0.6379636E-04
  0.3282828E+00  0.0000000E+00  0.1515152E-01 -0.4099491E-06  0.0000000E+00  0.6354623E-04
  0.3383838E+00  0.0000000E+00  0.1515152E-01 -0.4909237E-06  0.0000000E+00  0.6324136E-04
  0.3484848E+00  0.0000000E+00  0.1515152E-01 -0.5719323E-06  0.0000000E+00  0.6288050E-04
  0.3585859E+00  0.0000000E+00  0.1515152E-01 -0.6498785E-06  0.0000000E+00  0.6246452E-04
  0.3686869E+00  0.0000000E+00  0.1515152E-01 -0.7215429E-06  0.0000000E+00  0.6199660E-04
  0.3787879E+00  0.0000000E+00  0.1515152E-01 -0.7840886E-06  0.0000000E+00  0.6148223E-04
  0.3888889E+00  0.0000000E+00  0.1515152E-01 -0.8355017E-06  0.0000000E+00  0.6092865E-04
  0.3989899E+00  0.0000000E+00  0.1515152E-01 -0.8748393E-06  0.0000000E+00  0.6034420E-04
  0.4090909E+00  0.0000000E+00  0.1515152E-01 -0.9022412E-06  0.0000000E+00  0.5973745E-04
  0.4191919E+00  0.0000000E+00  0.1515152E-01 -0.9187570E-06  0.0000000E+00  0.5911650E-04
  0.4292929E+00  0.0000000E+00  0.1515152E-01 -0.9260831E-06  0.0000000E+00  0.5848840E-04
  0.4393939E+00  0.0000000E+00  0.1515152E-01 -0.9262931E-06  0.0000000E+00  0.5785879E-04
  0.4494950E+00  0.0000000E+00  0.1515152E-01 -0.9216125E-06  0.0000000E+00  0.5723181E-04
  0.4595959E+00  0.0000000E+00  0.1515152E-01 -0.9142544E-06  0.0000000E+00  0.5660999E-04
  0.4696970E+00  0.0000000E+00  0.1515152E-01 -0.9063086E-06  0.0000000E+00  0.5599437E-04
  0.4797980E+00  0.0000000E+00  0.1515152E-01 -0.8996687E-06  0.0000000E+00  0.5538460E-04
  0.4898990E+00  0.0000000E+00  0.1515152E-01 -0.8959784E-06  0.0000000E+00  0.5477912E-04
  0.5000000E+00  0.0000000E+00  0.1515152E-01 -0.8965851E-06  0.0000000E+00  0.5417533E-04
  0.5101010E+00  0.0000000E+00  0.1515152E-01 -0.9024941E-06  0.0000000E+00  0.5356981E-04
  0.5202020E+00  0.0000000E+00  0.1515152E-01 -0.9143241E-06  0.0000000E+00  0.5295856E-04
  0.5303030E+00  0.0000000E+00  0.1515152E-01 -0.9322734E-06  0.0000000E+00  0.5233734E-04
  0.5404040E+00  0.0000000E+00  0.1515152E-01 -0.9561069E-06  0.0000000E+00  0.5170187E-04
  0.5505050E+00  0.0000000E+00  0.1515152E-01 -0.9851764E-06  0.0000000E+00  0.5104824E-04
  0.5606061E+00  0.0000000E+00  0.1515152E-01 -0.1018480E-05  0.0000000E+00  0.5037311E-04
  0.5707071E+00  0.0000000E+00  0.1515152E-01 -0.1054756E-05  0.0000000E+00  0.4967395E-04
  0.5808081E+00  0.0000000E+00  0.1515152E-01 -0.1092600E-05  0.0000000E+00  0.4894920E-04
  0.5909091E+00  0.0000000E+00  0.1515152E-01 -0.1130583E-05  0.0000000E+00  0.4819831E-04
  0.6010101E+00  0.0000000E+00  0.1515152E-01 -0.1167358E-05  0.0000000E+00  0.4742168E-04
  0.6111111E+00  0.0000000E+00  0.1515152E-01 -0.1201732E-05  0.0000000E+00  0.4662064E-04
  0.6212121E+00  0.0000000E+00  0.1515152E-01 -0.1232713E-05  0.0000000E+00  0.4579723E-04
  0.6313131E+00  0.0000000E+00  0.1515152E-01 -0.1259524E-05  0.0000000E+00  0.4495412E-04
  0.6414142E+00  0.0000000E+00  0.1515152E-01 -0.1281602E-05  0.0000000E+00  0.4409440E-04
  0.6515151E+00  0.0000000E+00  0.1515152E-01 -0.1298574E-05  0.0000000E+00  0.4322150E-04
  0.6616161E+00  0.0000000E+00  0.1515152E-01 -0.1310236E-05  0.0000000E+00  0.4233899E-04
  0.6717172E+00  0.0000000E+00  0.1515152E-01 -0.1316523E-05  0.0000000E+00  0.4145056E-04
  0.6818182E+00  0.0000000E+00  0.1515152E-01 -0.1317485E-05  0.0000000E+00  0.4055984E-04
  0.6919192E+00  0.0000000E+00  0.1515152E-01 -0.1313261E-05  0.0000000E+00  0.3967044E-04
  0.7020202E+00  0.0000000E+00  0.1515152E-01 -0.1304058E-05  0.0000000E+00  0.3878579E-04
  0.7121212E+00  0.0000000E+00  0.1515152E-01 -0.1290134E-05  0.0000000E+00  0.3790919E-04
  0.7222222E+00  0.0000000E+00  0.1515152E-01 -0.1271785E-05  0.0000000E+00  0.3704374E-04
  0.7323232E+00  0.0000000E+00  0.1515152E-01 -0.1249326E-05  0.0000000E+00  0.3619230E-04
  0.7424242E+00  0.0000000E+00  0.1515152E-01 -0.1223087E-05  0.0000000E+00  0.3535753E-04
  0.7525253E+00  0.0000000E+00  0.1515152E-01 -0.1193397E-05  0.0000000E+00  0.3454187E-04
  0.7626263E+00  0.0000000E+00  0.1515152E-01 -0.1160582E-05  0.0000000E+00  0.3374751E-04
  0.7727273E+00  0.0000000E+00  0.1515152E-01 -0.1124958E-05  0.0000000E+00  0.3297644E-04
  0.7828283E+00  0.0000000E+00  0.1515152E-01 -0.1086824E-05  0.0000000E+00  0.3223044E-04
  0.7929293E+00  0.0000000E+00  0.1515152E-01 -0.1046459E-05  0.0000000E+00  0.3151109E-04
  0.8030303E+00  0.0000000E+00  0.1515152E-01 -0.1004125E-05  0.0000000E+00  0.3081977E-04
  0.8131313E+00  0.0000000E+00  0.1515152E-01 -0.9600553E-06  0.0000000E+00  0.3015772E-04
  0.8232324E+00  0.0000000E+00  0.1515152E-01 -0.9144655E-06  0.0000000E+00  0.2952601E-04
  0.8333333E+00  0.0000000E+00  0.1515152E-01 -0.8675459E-06  0.0000000E+00  0.2892558E-04
  0.8434343E+00  0.0000000E+00  0.1515152E-01 -0.8194657E-06  0.0000000E+00  0.2835725E-04
  0.8535354E+00  0.0000000E+00  0.1515152E-01 -0.7703733E-06  0.0000000E+00  0.2782174E-04
  0.8636364E+00  0.0000000E+00  0.1515152E-01 -0.7203987E-06  0.0000000E+00  0.2731967E-04
  0.8737374E+00  0.0000000E+00  0.1515152E-01 -0.6696547E-06  0.0000000E+00  0.2685158E-04
  0.8838384E+00  0.0000000E+00  0.1515152E-01 -0.6182397E-06  0.0000000E+00  0.2641793E-04
  0.8939394E+00  0.0000000E+00  0.1515152E-01 -0.5662390E-06  0.0000000E+00  0.2601914E-04
  0.9040404E+00  0.0000000E+00  0.1515152E-01 -0.5137274E-06  0.0000000E+00  0.2565557E-04
  0.9141414E+00  0.0000000E+00  0.1515152E-01 -0.4607712E-06  0.0000000E+00  0.2532753E-04
  0.9242424E+00  0.0000000E+00  0.1515152E-01 -0.4074293E-06  0.0000000E+00  0.2503529E-04
  0.9343435E+00  0.0000000E+00  0.1515152E-01 -0.3537554E-06  0.0000000E+00  0.2477909E-04
  0.9444444E+00  0.0000000E+00  0.1515152E-01 -0.2997993E-06  0.0000000E+00  0.2455912E-04
  0.9545454E+00  0.0000000E+00  0.1515152E-01 -0.2456074E-06  0.0000000E+00  0.2437556E-04
  0.9646465E+00  0.0000000E+00  0.1515152E-01 -0.1912246E-06  0.0000000E+00  0.2422854E-04
  0.9747475E+00  0.0000000E+00  0.1515152E-01 -0.1366942E-06  0.0000000E+00  0.2411818E-04
  0.9848485E+00  0.0000000E+00  0.1515152E-01 -0.8205856E-07  0.0000000E+00  0.2404456E-04
  0.9974747E+00  0.0000000E+00  0.1515152E-01 -0.2735989E-07  0.0000000E+00  0.2400774E-04
  0.5050505E-02  0.0000000E+00  0.2525252E-01  0.1463970E-06  0.0000000E+00  0.4318367E-04
  0.1515152E-01  0.0000000E+00  0.2525252E-01  0.4393648E-06  0.0000000E+00  0.4330325E-04
  0.2525252E-01  0.0000000E+00  0.2525252E-01  0.7328387E-06  0.0000000E+00  0.4354259E-04
  0.3535353E-01  0.0000000E+00  0.2525252E-01  0.1027098E-05  0.0000000E+00  0.4390206E-04
  0.4545455E-01  0.0000000E+00  0.2525252E-01  0.1322318E-05  0.0000000E+00  0.4438220E-04
  0.5555556E-01  0.0000000E+00  0.2525252E-01  0.1618500E-05  0.0000000E+00  0.4498370E-04
  0.6565657E-01  0.0000000E+00  0.2525252E-01  0.1915360E-05  0.0000000E+00  0.4570734E-04
  0.7575758E-01  0.0000000E+00  0.2525252E-01  0.2212153E-05  0.0000000E+00  0.4655391E-04
  0.8585858E-01  0.0000000E+00  0.2525252E-01  0.2507406E-05  0.0000000E+00  0.4752408E-04
  0.9595960E-01  0.0000000E+00  0.2525252E-01  0.2798486E-05  0.0000000E+00  0.4861817E-04
  0.1060606E+00  0.0000000E+00  0.2525252E-01  0.3080932E-05  0.0000000E+00  0.4983578E-04
  0.1161616E+00  0.0000000E+00  0.2525252E-01  0.3347441E-05  0.0000000E+00  0.5117504E-04
  0.1262626E+00  0.0000000E+00  0.2525252E-01  0.3586388E-05  0.0000000E+00  0.5263141E-04
  0.1363636E+00  0.0000000E+00  0.2525252E-01  0.3779814E-05  0.0000000E+00  0.5419549E-04
  0.1464646E+00  0.0000000E+00  0.2525252E-01  0.3901095E-05  0.0000000E+00  0.5584921E-04
  0.1565657E+00  0.0000000E+00  0.2525252E-01  0.3913224E-05  0.0000000E+00  0.5755954E-04
  0.1666667E+00  0.0000000E+00  0.2525252E-01  0.3770475E-05  0.0000000E+00  0.5926936E-04
  0.1767677E+00  0.0000000E+00  0.2525252E-01  0.3429557E-05  0.0000000E+00  0.6088780E-04
  0.1868687E+00  0.0000000E+00  0.2525252E-01  0.2880081E-05  0.0000000E+00  0.6229130E-04
  0.1969697E+00  0.0000000E+00  0.2525252E-01  0.2197049E-05  0.0000000E+00  0.6336177E-04
  0.2070707E+00  0.0000000E+00  0.2525252E-01  0.1561292E-05  0.0000000E+00  0.6407832E-04
  0.2171717E+00  0.0000000E+00  0.2525252E-01  0.1057523E-05  0.0000000E+00  0.6452065E-04
  0.2272727E+00  0.0000000E+00  0.2525252E-01  0.6901476E-06  0.0000000E+00  0.6478180E-04
  0.2373737E+00  0.0000000E+00  0.2525252E-01  0.4309109E-06  0.0000000E+00  0.6493086E-04
  0.2474747E+00  0.0000000E+00  0.2525252E-01  0.2464558E-06  0.0000000E+00  0.6501031E-04
  0.2575758E+00  0.0000000E+00  0.2525252E-01  0.1085810E-06  0.0000000E+00  0.6504328E-04
  0.2676768E+00  0.0000000E+00  0.2525252E-01 -0.3760520E-08  0.0000000E+00  0.6504063E-04
  0.2777778E+00  0.0000000E+00  0.2525252E-01 -0.1053216E-06  0.0000000E+00  0.6500574E-04
  0.2878788E+00  0.0000000E+00  0.2525252E-01 -0.2059745E-06  0.0000000E+00  0.6493751E-04
  0.2979798E+00  0.0000000E+00  0.2525252E-01 -0.3119074E-06  0.0000000E+00  0.6483215E-04
  0.3080808E+00  0.0000000E+00  0.2525252E-01 -0.4264466E-06  0.0000000E+00  0.6468442E-04
  0.3181818E+00  0.0000000E+00  0.2525252E-01 -0.5505503E-06  0.0000000E+00  0.6448854E-04
  0.3282828E+00  0.0000000E+00  0.2525252E-01 -0.6830874E-06  0.0000000E+00  0.6423902E-04
  0.3383838E+00  0.0000000E+00  0.2525252E-01 -0.8210412E-06  0.0000000E+00  0.6393150E-04
  0.3484848E+00  0.0000000E+00  0.2525252E-01 -0.9597963E-06  0.0000000E+00  0.6356357E-04
  0.3585859E+00  0.0000000E+00  0.2525252E-01 -0.1093654E-05  0.0000000E+00  0.6313547E-04
  0.3686869E+00  0.0000000E+00  0.2525252E-01 -0.1216636E-05  0.0000000E+00  0.6265056E-04
  0.3787879E+00  0.0000000E+00  0.2525252E-01 -0.1323477E-05  0.0000000E+00  0.6211517E-04
  0.3888889E+00  0.0000000E+00  0.2525252E-01 -0.1410504E-05  0.0000000E+00  0.6153799E-04
  0.3989899E+00  0.0000000E+00  0.2525252E-01 -0.1476104E-05  0.0000000E+00  0.6092899E-04
  0.4090909E+00  0.0000000E+00  0.2525252E-01 -0.1520689E-05  0.0000000E+00  0.6029829E-04
  0.4191919E+00  0.0000000E+00  0.2525252E-01 -0.1546301E-05  0.0000000E+00  0.5965522E-04
  0.4292929E+00  0.0000000E+00  0.2525252E-01 -0.1556082E-05  0.0000000E+00  0.5900767E-04
  0.4393939E+00  0.0000000E+00  0.2525252E-01 -0.1553758E-05  0.0000000E+00  0.5836178E-04
  0.4494950E+00  0.0000000E+00  0.2525252E-01 -0.1543247E-05  0.0000000E+00  0.5772183E-04
  0.4595959E+00  0.0000000E+00  0.2525252E-01 -0.1528385E-05  0.0000000E+00  0.5709031E-04
  0.4696970E+00  0.0000000E+00  0.2525252E-01 -0.1512760E-05  0.0000000E+00  0.5646807E-04
  0.4797980E+00  0.0000000E+00  0.2525252E-01 -0.1499606E-05  0.0000000E+00  0.5585444E-04
  0.4898990E+00  0.0000000E+00  0.2525252E-01 -0.1491733E-05  0.0000000E+00  0.5524744E-04
  0.5000000E+00  0.0000000E+00  0.2525252E-01 -0.1491448E-05  0.0000000E+00  0.5464398E-04
  0.5101010E+00  0.0000000E+00  0.2525252E-01 -0.1500484E-05  0.0000000E+00  0.5404006E-04
  0.5202020E+00  0.0000000E+00  0.2525252E-01 -0.1519914E-05  0.0000000E+00  0.5343108E-04
  0.5303030E+00  0.0000000E+00  0.2525252E-01 -0.1550079E-05  0.0000000E+00  0.5281210E-04
  0.5404040E+00  0.0000000E+00  0.2525252E-01 -0.1590562E-05  0.0000000E+00  0.5217819E-04
  0.5505050E+00  0.0000000E+00  0.2525252E-01 -0.1640205E-05  0.0000000E+00  0.5152484E-04
  0.5606061E+00  0.0000000E+00  0.2525252E-01 -0.1697224E-05  0.0000000E+00  0.5084824E-04
  0.5707071E+00  0.0000000E+00  0.2525252E-01 -0.1759373E-05  0.0000000E+00  0.5014554E-04
  0.5808081E+00  0.0000000E+00  0.2525252E-01 -0.1824168E-05  0.0000000E+00  0.4941506E-04
  0.5909091E+00  0.0000000E+00  0.2525252E-01 -0.1889100E-05  0.0000000E+00  0.4865628E-04
  0.6010101E+00  0.0000000E+00  0.2525252E-01 -0.1951829E-05  0.0000000E+00  0.4786979E-04
  0.6111111E+00  0.0000000E+00  0.2525252E-01 -0.2010312E-05  0.0000000E+00  0.4705719E-04
  0.6212121E+00  0.0000000E+00  0.2525252E-01 -0.2062872E-05  0.0000000E+00  0.4622086E-04
  0.6313131E+00  0.0000000E+00  0.2525252E-01 -0.2108220E-05  0.0000000E+00  0.4536380E-04
  0.6414142E+00  0.0000000E+00  0.2525252E-01 -0.2145436E-05  0.0000000E+00  0.4448942E-04
  0.6515151E+00  0.0000000E+00  0.2525252E-01 -0.2173930E-05  0.0000000E+00  0.4360144E-04
  0.6616161E+00  0.0000000E+00  0.2525252E-01 -0.2193394E-05  0.0000000E+00  0.4270370E-04
  0.6717172E+00  0.0000000E+00  0.2525252E-01 -0.2203753E-05  0.0000000E+00  0.4180006E-04
  0.6818182E+00  0.0000000E+00  0.2525252E-01 -0.2205118E-05  0.0000000E+00  0.4089437E-04
  0.6919192E+00  0.0000000E+00  0.2525252E-01 -0.2197746E-05  0.0000000E+00  0.3999035E-04
  0.7020202E+00  0.0000000E+00  0.2525252E-01 -0.2182008E-05  0.0000000E+00  0.3909156E-04
  0.7121212E+00  0.0000000E+00  0.2525252E-01 -0.2158354E-05  0.0000000E+00  0.3820137E-04
  0.7222222E+00  0.0000000E+00  0.2525252E-01 -0.2127290E-05  0.0000000E+00  0.3732293E-04
  0.7323232E+00  0.0000000E+00  0.2525252E-01 -0.2089359E-05  0.0000000E+00  0.3645916E-04
  0.7424242E+00  0.0000000E+00  0.2525252E-01 -0.2045119E-05  0.0000000E+00  0.3561274E-04
  0.7525253E+00  0.0000000E+00  0.2525252E-01 -0.1995132E-05  0.0000000E+00  0.3478612E-04
  0.7626263E+00  0.0000000E+00  0.2525252E-01 -0.1939950E-05  0.0000000E+00  0.3398149E-04
  0.7727273E+00  0.0000000E+00  0.2525252E-01 -0.1880102E-05  0.0000000E+00  0.3320083E-04
  0.7828283E+00  0.0000000E+00  0.2525252E-01 -0.1816092E-05  0.0000000E+00  0.3244589E-04
  0.7929293E+00  0.0000000E+00  0.2525252E-01 -0.1748393E-05  0.0000000E+00  0.3171824E-04
  0.8030303E+00  0.0000000E+00  0.2525252E-01 -0.1677436E-05  0.0000000E+00  0.3101923E-04
  0.8131313E+00  0.0000000E+00  0.2525252E-01 -0.1603618E-05  0.0000000E+00  0.3035006E-04
  0.8232324E+00  0.0000000E+00  0.2525252E-01 -0.1527294E-05  0.0000000E+00  0.2971179E-04
  0.8333333E+00  0.0000000E+00  0.2525252E-01 -0.1448783E-05  0.0000000E+00  0.2910531E-04
  0.8434343E+00  0.0000000E+00  0.2525252E-01 -0.1368363E-05  0.0000000E+00  0.2853142E-04
  0.8535354E+00  0.0000000E+00  0.2525252E-01 -0.1286282E-05  0.0000000E+00  0.2799081E-04
  0.8636364E+00  0.0000000E+00  0.2525252E-01 -0.1202753E-05  0.0000000E+00  0.2748407E-04
  0.8737374E+00  0.0000000E+00  0.2525252E-01 -0.1117963E-05  0.0000000E+00  0.2701171E-04
  0.8838384E+00  0.0000000E+00  0.2525252E-01 -0.1032071E-05  0.0000000E+00  0.2657419E-04
  0.8939394E+00  0.0000000E+00  0.2525252E-01 -0.9452192E-06  0.0000000E+00  0.2617189E-04
  0.9040404E+00  0.0000000E+00  0.2525252E-01 -0.8575287E-06  0.0000000E+00  0.2580517E-04
  0.9141414E+00  0.0000000E+00  0.2525252E-01 -0.7691077E-06  0.0000000E+00  0.2547432E-04
  0.9242424E+00  0.0000000E+00  0.2525252E-01 -0.6800526E-06  0.0000000E+00  0.2517960E-04
  0.9343435E+00  0.0000000E+00  0.2525252E-01 -0.5904512E-06  0.0000000E+00  0.2492124E-04
  0.9444444E+00  0.0000000E+00  0.2525252E-01 -0.5003847E-06  0.0000000E+00  0.2469943E-04
  0.9545454E+00  0.0000000E+00  0.2525252E-01 -0.4099294E-06  0.0000000E+00  0.2451433E-04
  0.9646465E+00  0.0000000E+00  0.2525252E-01 -0.3191589E-06  0.0000000E+00  0.2436610E-04
  0.9747475E+00  0.0000000E+00  0.2525252E-01 -0.2281444E-06  0.0000000E+00  0.2425482E-04
  0.9848485E+00  0.0000000E+00  0.2525252E-01 -0.1369561E-06  0.0000000E+00  0.2418060E-04
  0.9974747E+00  0.0000000E+00  0.2525252E-01 -0.4566366E-07  0.0000000E+00  0.2414347E-04
  0.5050505E-02  0.0000000E+00  0.3535353E-01  0.2056691E-06  0.0000000E+00  0.4340217E-04
  0.1515152E-01  0.0000000E+00  0.3535353E-01  0.6172901E-06  0.0000000E+00  0.4352346E-04
  0.2525252E-01  0.0000000E+00  0.3535353E-01  0.1029743E-05  0.0000000E+00  0.4376628E-04
  0.3535353E-01  0.0000000E+00  0.3535353E-01  0.1443520E-05  0.0000000E+00  0.4413115E-04
  0.4545455E-01  0.0000000E+00  0.3535353E-01  0.1859004E-05  0.0000000E+00  0.4461883E-04
  0.5555556E-01  0.0000000E+00  0.3535353E-01  0.2276386E-05  0.0000000E+00  0.4523037E-04
  0.6565657E-01  0.0000000E+00  0.3535353E-01  0.2695552E-05  0.0000000E+00  0.4596707E-04
  0.7575758E-01  0.0000000E+00  0.3535353E-01  0.3115889E-05  0.0000000E+00  0.4683057E-04
  0.8585858E-01  0.0000000E+00  0.3535353E-01  0.3535974E-05  0.0000000E+00  0.4782279E-04
  0.9595960E-01  0.0000000E+00  0.3535353E-01  0.3953082E-05  0.0000000E+00  0.4894595E-04
  0.1060606E+00  0.0000000E+00  0.3535353E-01  0.4362363E-05  0.0000000E+00  0.5020255E-04
  0.1161616E+00  0.0000000E+00  0.3535353E-01  0.4755536E-05  0.0000000E+00  0.5159511E-04
  0.1262626E+00  0.0000000E+00  0.3535353E-01  0.5118785E-05  0.0000000E+00  0.5312562E-04
  0.1363636E+00  0.0000000E+00  0.3535353E-01  0.5429493E-05  0.0000000E+00  0.5479392E-04
  0.1464646E+00  0.0000000E+00  0.3535353E-01  0.5651422E-05  0.0000000E+00  0.5659404E-04
  0.1565657E+00  0.0000000E+00  0.3535353E-01  0.5728471E-05  0.0000000E+00  0.5850578E-04
  0.1666667E+00  0.0000000E+00  0.3535353E-01  0.5579334E-05  0.0000000E+00  0.6047760E-04
  0.1767677E+00  0.0000000E+00  0.3535353E-01  0.5102686E-05  0.0000000E+00  0.6239680E-04
  0.1868687E+00  0.0000000E+00  0.3535353E-01  0.4221555E-05  0.0000000E+00  0.6405713E-04
  0.1969697E+00  0.0000000E+00  0.3535353E-01  0.3026801E-05  0.0000000E+00  0.6519547E-04
  0.2070707E+00  0.0000000E+00  0.3535353E-01  0.2012266E-05  0.0000000E+00  0.6578433E-04
  0.2171717E+00  0.0000000E+00  0.3535353E-01  0.1287935E-05  0.0000000E+00  0.6603844E-04
  0.2272727E+00  0.0000000E+00  0.3535353E-01  0.8037064E-06  0.0000000E+00  0.6613013E-04
  0.2373737E+00  0.0000000E+00  0.3535353E-01  0.4832391E-06  0.0000000E+00  0.6615206E-04
  0.2474747E+00  0.0000000E+00  0.3535353E-01  0.2639388E-06  0.0000000E+00  0.6614517E-04
  0.2575758E+00  0.0000000E+00  0.3535353E-01  0.1017349E-06  0.0000000E+00  0.6612398E-04
  0.2676768E+00  0.0000000E+00  0.3535353E-01 -0.3285391E-07  0.0000000E+00  0.6609060E-04
  0.2777778E+00  0.0000000E+00  0.3535353E-01 -0.1591792E-06  0.0000000E+00  0.6604130E-04
  0.2878788E+00  0.0000000E+00  0.3535353E-01 -0.2897141E-06  0.0000000E+00  0.6596950E-04
  0.2979798E+00  0.0000000E+00  0.3535353E-01 -0.4321068E-06  0.0000000E+00  0.6586715E-04