title = "dataset water"
variables = "x", "y", "z", "vx", "vy", "vz"
zone t = "velocities, solution time =  4.900E+01 days        " i =   99, j =   99, k =    1,  f=point
  0.5050505E-02  0.0000000E+00  0.5050505E-02  0.1230415E-07  0.0000000E+00  0.2240037E-04
  0.1515152E-01  0.0000000E+00  0.5050505E-02  0.3684753E-07  0.0000000E+00  0.2244980E-04
  0.2525252E-01  0.0000000E+00  0.5050505E-02  0.6119358E-07  0.0000000E+00  0.2254839E-04
  0.3535353E-01  0.0000000E+00  0.5050505E-02  0.8520246E-07  0.0000000E+00  0.2269562E-04
  0.4545455E-01  0.0000000E+00  0.5050505E-02  0.1087219E-06  0.0000000E+00  0.2289066E-04
  0.5555556E-01  0.0000000E+00  0.5050505E-02  0.1315821E-06  0.0000000E+00  0.2313234E-04
  0.6565657E-01  0.0000000E+00  0.5050505E-02  0.1535915E-06  0.0000000E+00  0.2341916E-04
  0.7575758E-01  0.0000000E+00  0.5050505E-02  0.1745320E-06  0.0000000E+00  0.2374918E-04
  0.8585858E-01  0.0000000E+00  0.5050505E-02  0.1941568E-06  0.0000000E+00  0.2412003E-04
  0.9595960E-01  0.0000000E+00  0.5050505E-02  0.2121885E-06  0.0000000E+00  0.2452876E-04
  0.1060606E+00  0.0000000E+00  0.5050505E-02  0.2283203E-06  0.0000000E+00  0.2497189E-04
  0.1161616E+00  0.0000000E+00  0.5050505E-02  0.2422212E-06  0.0000000E+00  0.2544525E-04
  0.1262626E+00  0.0000000E+00  0.5050505E-02  0.2535457E-06  0.0000000E+00  0.2594402E-04
  0.1363636E+00  0.0000000E+00  0.5050505E-02  0.2619504E-06  0.0000000E+00  0.2646266E-04
  0.1464646E+00  0.0000000E+00  0.5050505E-02  0.2671164E-06  0.0000000E+00  0.2699500E-04
  0.1565657E+00  0.0000000E+00  0.5050505E-02  0.2687803E-06  0.0000000E+00  0.2753424E-04
  0.1666667E+00  0.0000000E+00  0.5050505E-02  0.2667686E-06  0.0000000E+00  0.2807316E-04
  0.1767677E+00  0.0000000E+00  0.5050505E-02  0.2610329E-06  0.0000000E+00  0.2860433E-04
  0.1868687E+00  0.0000000E+00  0.5050505E-02  0.2516789E-06  0.0000000E+00  0.2912034E-04
  0.1969697E+00  0.0000000E+00  0.5050505E-02  0.2389803E-06  0.0000000E+00  0.2961419E-04
  0.2070707E+00  0.0000000E+00  0.5050505E-02  0.2233688E-06  0.0000000E+00  0.3007957E-04
  0.2171717E+00  0.0000000E+00  0.5050505E-02  0.2054000E-06  0.0000000E+00  0.3051118E-04
  0.2272727E+00  0.0000000E+00  0.5050505E-02  0.1856964E-06  0.0000000E+00  0.3090488E-04
  0.2373737E+00  0.0000000E+00  0.5050505E-02  0.1648822E-06  0.0000000E+00  0.3125782E-04
  0.2474747E+00  0.0000000E+00  0.5050505E-02  0.1435246E-06  0.0000000E+00  0.3156831E-04
  0.2575758E+00  0.0000000E+00  0.5050505E-02  0.1220953E-06  0.0000000E+00  0.3183574E-04
  0.2676768E+00  0.0000000E+00  0.5050505E-02  0.1009549E-06  0.0000000E+00  0.3206031E-04
  0.2777778E+00  0.0000000E+00  0.5050505E-02  0.8035961E-07  0.0000000E+00  0.3224287E-04
  0.2878788E+00  0.0000000E+00  0.5050505E-02  0.6048082E-07  0.0000000E+00  0.3238468E-04
  0.2979798E+00  0.0000000E+00  0.5050505E-02  0.4142959E-07  0.0000000E+00  0.3248730E-04
  0.3080808E+00  0.0000000E+00  0.5050505E-02  0.2327986E-07  0.0000000E+00  0.3255245E-04
  0.3181818E+00  0.0000000E+00  0.5050505E-02  0.6085717E-08  0.0000000E+00  0.3258202E-04
  0.3282828E+00  0.0000000E+00  0.5050505E-02 -0.1010822E-07  0.0000000E+00  0.3257797E-04
  0.3383838E+00  0.0000000E+00  0.5050505E-02 -0.2526303E-07  0.0000000E+00  0.3254235E-04
  0.3484848E+00  0.0000000E+00  0.5050505E-02 -0.3934638E-07  0.0000000E+00  0.3247730E-04
  0.3585859E+00  0.0000000E+00  0.5050505E-02 -0.5233601E-07  0.0000000E+00  0.3238498E-04
  0.3686869E+00  0.0000000E+00  0.5050505E-02 -0.6422402E-07  0.0000000E+00  0.3226762E-04
  0.3787879E+00  0.0000000E+00  0.5050505E-02 -0.7502057E-07  0.0000000E+00  0.3212742E-04
  0.3888889E+00  0.0000000E+00  0.5050505E-02 -0.8475622E-07  0.0000000E+00  0.3196655E-04
  0.3989899E+00  0.0000000E+00  0.5050505E-02 -0.9348263E-07  0.0000000E+00  0.3178709E-04
  0.4090909E+00  0.0000000E+00  0.5050505E-02 -0.1012717E-06  0.0000000E+00  0.3159101E-04
  0.4191919E+00  0.0000000E+00  0.5050505E-02 -0.1082135E-06  0.0000000E+00  0.3138011E-04
  0.4292929E+00  0.0000000E+00  0.5050505E-02 -0.1144133E-06  0.0000000E+00  0.3115598E-04
  0.4393939E+00  0.0000000E+00  0.5050505E-02 -0.1199885E-06  0.0000000E+00  0.3092000E-04
  0.4494950E+00  0.0000000E+00  0.5050505E-02 -0.1250643E-06  0.0000000E+00  0.3067331E-04
  0.4595959E+00  0.0000000E+00  0.5050505E-02 -0.1297704E-06  0.0000000E+00  0.3041677E-04
  0.4696970E+00  0.0000000E+00  0.5050505E-02 -0.1342371E-06  0.0000000E+00  0.3015102E-04
  0.4797980E+00  0.0000000E+00  0.5050505E-02 -0.1385908E-06  0.0000000E+00  0.2987639E-04
  0.4898990E+00  0.0000000E+00  0.5050505E-02 -0.1429504E-06  0.0000000E+00  0.2959300E-04
  0.5000000E+00  0.0000000E+00  0.5050505E-02 -0.1474227E-06  0.0000000E+00  0.2930073E-04
  0.5101010E+00  0.0000000E+00  0.5050505E-02 -0.1520984E-06  0.0000000E+00  0.2899927E-04
  0.5202020E+00  0.0000000E+00  0.5050505E-02 -0.1570481E-06  0.0000000E+00  0.2868813E-04
  0.5303030E+00  0.0000000E+00  0.5050505E-02 -0.1623184E-06  0.0000000E+00  0.2836672E-04
  0.5404040E+00  0.0000000E+00  0.5050505E-02 -0.1679296E-06  0.0000000E+00  0.2803436E-04
  0.5505050E+00  0.0000000E+00  0.5050505E-02 -0.1738737E-06  0.0000000E+00  0.2769040E-04
  0.5606061E+00  0.0000000E+00  0.5050505E-02 -0.1801141E-06  0.0000000E+00  0.2733419E-04
  0.5707071E+00  0.0000000E+00  0.5050505E-02 -0.1865877E-06  0.0000000E+00  0.2696520E-04
  0.5808081E+00  0.0000000E+00  0.5050505E-02 -0.1932072E-06  0.0000000E+00  0.2658305E-04
  0.5909091E+00  0.0000000E+00  0.5050505E-02 -0.1998663E-06  0.0000000E+00  0.2618757E-04
  0.6010101E+00  0.0000000E+00  0.5050505E-02 -0.2064453E-06  0.0000000E+00  0.2577878E-04
  0.6111111E+00  0.0000000E+00  0.5050505E-02 -0.2128173E-06  0.0000000E+00  0.2535699E-04
  0.6212121E+00  0.0000000E+00  0.5050505E-02 -0.2188549E-06  0.0000000E+00  0.2492273E-04
  0.6313131E+00  0.0000000E+00  0.5050505E-02 -0.2244359E-06  0.0000000E+00  0.2447681E-04
  0.6414142E+00  0.0000000E+00  0.5050505E-02 -0.2294484E-06  0.0000000E+00  0.2402026E-04
  0.6515151E+00  0.0000000E+00  0.5050505E-02 -0.2337950E-06  0.0000000E+00  0.2355432E-04
  0.6616161E+00  0.0000000E+00  0.5050505E-02 -0.2373945E-06  0.0000000E+00  0.2308042E-04
  0.6717172E+00  0.0000000E+00  0.5050505E-02 -0.2401843E-06  0.0000000E+00  0.2260012E-04
  0.6818182E+00  0.0000000E+00  0.5050505E-02 -0.2421195E-06  0.0000000E+00  0.2211510E-04
  0.6919192E+00  0.0000000E+00  0.5050505E-02 -0.2431732E-06  0.0000000E+00  0.2162710E-04
  0.7020202E+00  0.0000000E+00  0.5050505E-02 -0.2433344E-06  0.0000000E+00  0.2113790E-04
  0.7121212E+00  0.0000000E+00  0.5050505E-02 -0.2426061E-06  0.0000000E+00  0.2064931E-04
  0.7222222E+00  0.0000000E+00  0.5050505E-02 -0.2410039E-06  0.0000000E+00  0.2016309E-04
  0.7323232E+00  0.0000000E+00  0.5050505E-02 -0.2385531E-06  0.0000000E+00  0.1968097E-04
  0.7424242E+00  0.0000000E+00  0.5050505E-02 -0.2352868E-06  0.0000000E+00  0.1920463E-04
  0.7525253E+00  0.0000000E+00  0.5050505E-02 -0.2312440E-06  0.0000000E+00  0.1873566E-04
  0.7626263E+00  0.0000000E+00  0.5050505E-02 -0.2264679E-06  0.0000000E+00  0.1827558E-04
  0.7727273E+00  0.0000000E+00  0.5050505E-02 -0.2210040E-06  0.0000000E+00  0.1782582E-04
  0.7828283E+00  0.0000000E+00  0.5050505E-02 -0.2148990E-06  0.0000000E+00  0.1738772E-04
  0.7929293E+00  0.0000000E+00  0.5050505E-02 -0.2081997E-06  0.0000000E+00  0.1696250E-04
  0.8030303E+00  0.0000000E+00  0.5050505E-02 -0.2009521E-06  0.0000000E+00  0.1655132E-04
  0.8131313E+00  0.0000000E+00  0.5050505E-02 -0.1932010E-06  0.0000000E+00  0.1615523E-04
  0.8232324E+00  0.0000000E+00  0.5050505E-02 -0.1849889E-06  0.0000000E+00  0.1577520E-04
  0.8333333E+00  0.0000000E+00  0.5050505E-02 -0.1763566E-06  0.0000000E+00  0.1541212E-04
  0.8434343E+00  0.0000000E+00  0.5050505E-02 -0.1673421E-06  0.0000000E+00  0.1506678E-04
  0.8535354E+00  0.0000000E+00  0.5050505E-02 -0.1579812E-06  0.0000000E+00  0.1473992E-04
  0.8636364E+00  0.0000000E+00  0.5050505E-02 -0.1483073E-06  0.0000000E+00  0.1443219E-04
  0.8737374E+00  0.0000000E+00  0.5050505E-02 -0.1383514E-06  0.0000000E+00  0.1414420E-04
  0.8838384E+00  0.0000000E+00  0.5050505E-02 -0.1281423E-06  0.0000000E+00  0.1387647E-04
  0.8939394E+00  0.0000000E+00  0.5050505E-02 -0.1177068E-06  0.0000000E+00  0.1362949E-04
  0.9040404E+00  0.0000000E+00  0.5050505E-02 -0.1070700E-06  0.0000000E+00  0.1340369E-04
  0.9141414E+00  0.0000000E+00  0.5050505E-02 -0.9625527E-07  0.0000000E+00  0.1319944E-04
  0.9242424E+00  0.0000000E+00  0.5050505E-02 -0.8528457E-07  0.0000000E+00  0.1301708E-04
  0.9343435E+00  0.0000000E+00  0.5050505E-02 -0.7417874E-07  0.0000000E+00  0.1285690E-04
  0.9444444E+00  0.0000000E+00  0.5050505E-02 -0.6295758E-07  0.0000000E+00  0.1271914E-04
  0.9545454E+00  0.0000000E+00  0.5050505E-02 -0.5164009E-07  0.0000000E+00  0.1260403E-04
  0.9646465E+00  0.0000000E+00  0.5050505E-02 -0.4024457E-07  0.0000000E+00  0.1251174E-04
  0.9747475E+00  0.0000000E+00  0.5050505E-02 -0.2878885E-07  0.0000000E+00  0.1244240E-04
  0.9848485E+00  0.0000000E+00  0.5050505E-02 -0.1729037E-07  0.0000000E+00  0.1239612E-04
  0.9974747E+00  0.0000000E+00  0.5050505E-02 -0.5766308E-08  0.0000000E+00  0.1237296E-04
  0.5050505E-02  0.0000000E+00  0.1515152E-01  0.3701196E-07  0.0000000E+00  0.2247199E-04
  0.1515152E-01  0.0000000E+00  0.1515152E-01  0.1108436E-06  0.0000000E+00  0.2252197E-04
  0.2525252E-01  0.0000000E+00  0.1515152E-01  0.1840906E-06  0.0000000E+00  0.2262167E-04
  0.3535353E-01  0.0000000E+00  0.1515152E-01  0.2563384E-06  0.0000000E+00  0.2277057E-04
  0.4545455E-01  0.0000000E+00  0.1515152E-01  0.3271345E-06  0.0000000E+00  0.2296788E-04
  0.5555556E-01  0.0000000E+00  0.1515152E-01  0.3959739E-06  0.0000000E+00  0.2321247E-04
  0.6565657E-01  0.0000000E+00  0.1515152E-01  0.4622847E-06  0.0000000E+00  0.2350287E-04
  0.7575758E-01  0.0000000E+00  0.1515152E-01  0.5254157E-06  0.0000000E+00  0.2383719E-04
  0.8585858E-01  0.0000000E+00  0.1515152E-01  0.5846261E-06  0.0000000E+00  0.2421310E-04
  0.9595960E-01  0.0000000E+00  0.1515152E-01  0.6390811E-06  0.0000000E+00  0.2462771E-04
  0.1060606E+00  0.0000000E+00  0.1515152E-01  0.6878542E-06  0.0000000E+00  0.2507755E-04
  0.1161616E+00  0.0000000E+00  0.1515152E-01  0.7299402E-06  0.0000000E+00  0.2555848E-04
  0.1262626E+00  0.0000000E+00  0.1515152E-01  0.7642848E-06  0.0000000E+00  0.2606564E-04
  0.1363636E+00  0.0000000E+00  0.1515152E-01  0.7898317E-06  0.0000000E+00  0.2659344E-04
  0.1464646E+00  0.0000000E+00  0.1515152E-01  0.8055928E-06  0.0000000E+00  0.2713558E-04
  0.1565657E+00  0.0000000E+00  0.1515152E-01  0.8107409E-06  0.0000000E+00  0.2768506E-04
  0.1666667E+00  0.0000000E+00  0.1515152E-01  0.8047191E-06  0.0000000E+00  0.2823440E-04
  0.1767677E+00  0.0000000E+00  0.1515152E-01  0.7873534E-06  0.0000000E+00  0.2877581E-04
  0.1868687E+00  0.0000000E+00  0.1515152E-01  0.7589485E-06  0.0000000E+00  0.2930153E-04
  0.1969697E+00  0.0000000E+00  0.1515152E-01  0.7203360E-06  0.0000000E+00  0.2980415E-04
  0.2070707E+00  0.0000000E+00  0.1515152E-01  0.6728504E-06  0.0000000E+00  0.3027705E-04
  0.2171717E+00  0.0000000E+00  0.1515152E-01  0.6182189E-06  0.0000000E+00  0.3071470E-04
  0.2272727E+00  0.0000000E+00  0.1515152E-01  0.5583788E-06  0.0000000E+00  0.3111288E-04
  0.2373737E+00  0.0000000E+00  0.1515152E-01  0.4952655E-06  0.0000000E+00  0.3146875E-04
  0.2474747E+00  0.0000000E+00  0.1515152E-01  0.4306234E-06  0.0000000E+00  0.3178082E-04
  0.2575758E+00  0.0000000E+00  0.1515152E-01  0.3658848E-06  0.0000000E+00  0.3204867E-04
  0.2676768E+00  0.0000000E+00  0.1515152E-01  0.3021271E-06  0.0000000E+00  0.3227276E-04
  0.2777778E+00  0.0000000E+00  0.1515152E-01  0.2400998E-06  0.0000000E+00  0.3245412E-04
  0.2878788E+00  0.0000000E+00  0.1515152E-01  0.1802921E-06  0.0000000E+00  0.3259420E-04
  0.2979798E+00  0.0000000E+00  0.1515152E-01  0.1230134E-06  0.0000000E+00  0.3269467E-04
  0.3080808E+00  0.0000000E+00  0.1515152E-01  0.6846757E-07  0.0000000E+00  0.3275736E-04
  0.3181818E+00  0.0000000E+00  0.1515152E-01  0.1680570E-07  0.0000000E+00  0.3278417E-04
  0.3282828E+00  0.0000000E+00  0.1515152E-01 -0.3184303E-07  0.0000000E+00  0.3277712E-04
  0.3383838E+00  0.0000000E+00  0.1515152E-01 -0.7736164E-07  0.0000000E+00  0.3273828E-04
  0.3484848E+00  0.0000000E+00  0.1515152E-01 -0.1196501E-06  0.0000000E+00  0.3266983E-04
  0.3585859E+00  0.0000000E+00  0.1515152E-01 -0.1586377E-06  0.0000000E+00  0.3257398E-04
  0.3686869E+00  0.0000000E+00  0.1515152E-01 -0.1942972E-06  0.0000000E+00  0.3245300E-04
  0.3787879E+00  0.0000000E+00  0.1515152E-01 -0.2266573E-06  0.0000000E+00  0.3230914E-04
  0.3888889E+00  0.0000000E+00  0.1515152E-01 -0.2558090E-06  0.0000000E+00  0.3214464E-04
  0.3989899E+00  0.0000000E+00  0.1515152E-01 -0.2819088E-06  0.0000000E+00  0.3196164E-04
  0.4090909E+00  0.0000000E+00  0.1515152E-01 -0.3051748E-06  0.0000000E+00  0.3176215E-04
  0.4191919E+00  0.0000000E+00  0.1515152E-01 -0.3258806E-06  0.0000000E+00  0.3154802E-04
  0.4292929E+00  0.0000000E+00  0.1515152E-01 -0.3443463E-06  0.0000000E+00  0.3132087E-04
  0.4393939E+00  0.0000000E+00  0.1515152E-01 -0.3609279E-06  0.0000000E+00  0.3108212E-04
  0.4494950E+00  0.0000000E+00  0.1515152E-01 -0.3760060E-06  0.0000000E+00  0.3083293E-04
  0.4595959E+00  0.0000000E+00  0.1515152E-01 -0.3899742E-06  0.0000000E+00  0.3057416E-04
  0.4696970E+00  0.0000000E+00  0.1515152E-01 -0.4032277E-06  0.0000000E+00  0.3030645E-04
  0.4797980E+00  0.0000000E+00  0.1515152E-01 -0.4161508E-06  0.0000000E+00  0.3003012E-04
  0.4898990E+00  0.0000000E+00  0.1515152E-01 -0.4291046E-06  0.0000000E+00  0.2974528E-04
  0.5000000E+00  0.0000000E+00  0.1515152E-01 -0.4424145E-06  0.0000000E+00  0.2945176E-04
  0.5101010E+00  0.0000000E+00  0.1515152E-01 -0.4563569E-06  0.0000000E+00  0.2914921E-04
  0.5202020E+00  0.0000000E+00  0.1515152E-01 -0.4711471E-06  0.0000000E+00  0.2883711E-04
  0.5303030E+00  0.0000000E+00  0.1515152E-01 -0.4869282E-06  0.0000000E+00  0.2851479E-04
  0.5404040E+00  0.0000000E+00  0.1515152E-01 -0.5037625E-06  0.0000000E+00  0.2818153E-04
  0.5505050E+00  0.0000000E+00  0.1515152E-01 -0.5216260E-06  0.0000000E+00  0.2783659E-04
  0.5606061E+00  0.0000000E+00  0.1515152E-01 -0.5404078E-06  0.0000000E+00  0.2747928E-04
  0.5707071E+00  0.0000000E+00  0.1515152E-01 -0.5599145E-06  0.0000000E+00  0.2710901E-04
  0.5808081E+00  0.0000000E+00  0.1515152E-01 -0.5798796E-06  0.0000000E+00  0.2672535E-04
  0.5909091E+00  0.0000000E+00  0.1515152E-01 -0.5999780E-06  0.0000000E+00  0.2632808E-04
  0.6010101E+00  0.0000000E+00  0.1515152E-01 -0.6198436E-06  0.0000000E+00  0.2591723E-04
  0.6111111E+00  0.0000000E+00  0.1515152E-01 -0.6390891E-06  0.0000000E+00  0.2549307E-04
  0.6212121E+00  0.0000000E+00  0.1515152E-01 -0.6573259E-06  0.0000000E+00  0.2505616E-04
  0.6313131E+00  0.0000000E+00  0.1515152E-01 -0.6741821E-06  0.0000000E+00  0.2460731E-04
  0.6414142E+00  0.0000000E+00  0.1515152E-01 -0.6893181E-06  0.0000000E+00  0.2414759E-04
  0.6515151E+00  0.0000000E+00  0.1515152E-01 -0.7024382E-06  0.0000000E+00  0.2367828E-04
  0.6616161E+00  0.0000000E+00  0.1515152E-01 -0.7132982E-06  0.0000000E+00  0.2320084E-04
  0.6717172E+00  0.0000000E+00  0.1515152E-01 -0.7217093E-06  0.0000000E+00  0.2271687E-04
  0.6818182E+00  0.0000000E+00  0.1515152E-01 -0.7275384E-06  0.0000000E+00  0.2222811E-04
  0.6919192E+00  0.0000000E+00  0.1515152E-01 -0.7307054E-06  0.0000000E+00  0.2173634E-04
  0.7020202E+00  0.0000000E+00  0.1515152E-01 -0.7311792E-06  0.0000000E+00  0.2124337E-04
  0.7121212E+00  0.0000000E+00  0.1515152E-01 -0.7289718E-06  0.0000000E+00  0.2075103E-04
  0.7222222E+00  0.0000000E+00  0.1515152E-01 -0.7241315E-06  0.0000000E+00  0.2026113E-04
  0.7323232E+00  0.0000000E+00  0.1515152E-01 -0.7167366E-06  0.0000000E+00  0.1977543E-04
  0.7424242E+00  0.0000000E+00  0.1515152E-01 -0.7068889E-06  0.0000000E+00  0.1929560E-04
  0.7525253E+00  0.0000000E+00  0.1515152E-01 -0.6947071E-06  0.0000000E+00  0.1882328E-04
  0.7626263E+00  0.0000000E+00  0.1515152E-01 -0.6803224E-06  0.0000000E+00  0.1835998E-04
  0.7727273E+00  0.0000000E+00  0.1515152E-01 -0.6638726E-06  0.0000000E+00  0.1790715E-04
  0.7828283E+00  0.0000000E+00  0.1515152E-01 -0.6454993E-06  0.0000000E+00  0.1746611E-04
  0.7929293E+00  0.0000000E+00  0.1515152E-01 -0.6253437E-06  0.0000000E+00  0.1703812E-04
  0.8030303E+00  0.0000000E+00  0.1515152E-01 -0.6035448E-06  0.0000000E+00  0.1662432E-04
  0.8131313E+00  0.0000000E+00  0.1515152E-01 -0.5802370E-06  0.0000000E+00  0.1622577E-04
  0.8232324E+00  0.0000000E+00  0.1515152E-01 -0.5555488E-06  0.0000000E+00  0.1584343E-04
  0.8333333E+00  0.0000000E+00  0.1515152E-01 -0.5296023E-06  0.0000000E+00  0.1547818E-04
  0.8434343E+00  0.0000000E+00  0.1515152E-01 -0.5025120E-06  0.0000000E+00  0.1513083E-04
  0.8535354E+00  0.0000000E+00  0.1515152E-01 -0.4743852E-06  0.0000000E+00  0.1480209E-04
  0.8636364E+00  0.0000000E+00  0.1515152E-01 -0.4453219E-06  0.0000000E+00  0.1449264E-04
  0.8737374E+00  0.0000000E+00  0.1515152E-01 -0.4154150E-06  0.0000000E+00  0.1420305E-04
  0.8838384E+00  0.0000000E+00  0.1515152E-01 -0.3847509E-06  0.0000000E+00  0.1393386E-04
  0.8939394E+00  0.0000000E+00  0.1515152E-01 -0.3534098E-06  0.0000000E+00  0.1368556E-04
  0.9040404E+00  0.0000000E+00  0.1515152E-01 -0.3214665E-06  0.0000000E+00  0.1345855E-04
  0.9141414E+00  0.0000000E+00  0.1515152E-01 -0.2889911E-06  0.0000000E+00  0.1325323E-04
  0.9242424E+00  0.0000000E+00  0.1515152E-01 -0.2560493E-06  0.0000000E+00  0.1306992E-04
  0.9343435E+00  0.0000000E+00  0.1515152E-01 -0.2227033E-06  0.0000000E+00  0.1290891E-04
  0.9444444E+00  0.0000000E+00  0.1515152E-01 -0.1890124E-06  0.0000000E+00  0.1277045E-04
  0.9545454E+00  0.0000000E+00  0.1515152E-01 -0.1550334E-06  0.0000000E+00  0.1265475E-04
  0.9646465E+00  0.0000000E+00  0.1515152E-01 -0.1208210E-06  0.0000000E+00  0.1256199E-04
  0.9747475E+00  0.0000000E+00  0.1515152E-01 -0.8642852E-07  0.0000000E+00  0.1249230E-04
  0.9848485E+00  0.0000000E+00  0.1515152E-01 -0.5190812E-07  0.0000000E+00  0.1244578E-04
  0.9974747E+00  0.0000000E+00  0.1515152E-01 -0.1731122E-07  0.0000000E+00  0.1242250E-04
  0.5050505E-02  0.0000000E+00  0.2525252E-01  0.6205234E-07  0.0000000E+00  0.2261532E-04
  0.1515152E-01  0.0000000E+00  0.2525252E-01  0.1858446E-06  0.0000000E+00  0.2266639E-04
  0.2525252E-01  0.0000000E+00  0.2525252E-01  0.3086866E-06  0.0000000E+00  0.2276828E-04
  0.3535353E-01  0.0000000E+00  0.2525252E-01  0.4299028E-06  0.0000000E+00  0.2292052E-04
  0.4545455E-01  0.0000000E+00  0.2525252E-01  0.5487543E-06  0.0000000E+00  0.2312235E-04
  0.5555556E-01  0.0000000E+00  0.2525252E-01  0.6644128E-06  0.0000000E+00  0.2337273E-04
  0.6565657E-01  0.0000000E+00  0.2525252E-01  0.7759365E-06  0.0000000E+00  0.2367027E-04
  0.7575758E-01  0.0000000E+00  0.2525252E-01  0.8822473E-06  0.0000000E+00  0.2401318E-04
  0.8585858E-01  0.0000000E+00  0.2525252E-01  0.9821119E-06  0.0000000E+00  0.2439921E-04
  0.9595960E-01  0.0000000E+00  0.2525252E-01  0.1074131E-05  0.0000000E+00  0.2482557E-04
  0.1060606E+00  0.0000000E+00  0.2525252E-01  0.1156738E-05  0.0000000E+00  0.2528886E-04
  0.1161616E+00  0.0000000E+00  0.2525252E-01  0.1228220E-05  0.0000000E+00  0.2578498E-04
  0.1262626E+00  0.0000000E+00  0.2525252E-01  0.1286757E-05  0.0000000E+00  0.2630906E-04
  0.1363636E+00  0.0000000E+00  0.2525252E-01  0.1330503E-05  0.0000000E+00  0.2685537E-04
  0.1464646E+00  0.0000000E+00  0.2525252E-01  0.1357702E-05  0.0000000E+00  0.2741736E-04
  0.1565657E+00  0.0000000E+00  0.2525252E-01  0.1366846E-05  0.0000000E+00  0.2798767E-04
  0.1666667E+00  0.0000000E+00  0.2525252E-01  0.1356877E-05  0.0000000E+00  0.2855824E-04
  0.1767677E+00  0.0000000E+00  0.2525252E-01  0.1327401E-05  0.0000000E+00  0.2912059E-04
  0.1868687E+00  0.0000000E+00  0.2525252E-01  0.1278875E-05  0.0000000E+00  0.2966615E-04
  0.1969697E+00  0.0000000E+00  0.2525252E-01  0.1212722E-05  0.0000000E+00  0.3018671E-04
  0.2070707E+00  0.0000000E+00  0.2525252E-01  0.1131299E-05  0.0000000E+00  0.3067493E-04
  0.2171717E+00  0.0000000E+00  0.2525252E-01  0.1037702E-05  0.0000000E+00  0.3112478E-04
  0.2272727E+00  0.0000000E+00  0.2525252E-01  0.9354136E-06  0.0000000E+00  0.3153187E-04
  0.2373737E+00  0.0000000E+00  0.2525252E-01  0.8278824E-06  0.0000000E+00  0.3189349E-04
  0.2474747E+00  0.0000000E+00  0.2525252E-01  0.7181654E-06  0.0000000E+00  0.3220849E-04
  0.2575758E+00  0.0000000E+00  0.2525252E-01  0.6087060E-06  0.0000000E+00  0.3247694E-04
  0.2676768E+00  0.0000000E+00  0.2525252E-01  0.5012780E-06  0.0000000E+00  0.3269982E-04
  0.2777778E+00  0.0000000E+00  0.2525252E-01  0.3970586E-06  0.0000000E+00  0.3287860E-04
  0.2878788E+00  0.0000000E+00  0.2525252E-01  0.2967730E-06  0.0000000E+00  0.3301508E-04
  0.2979798E+00  0.0000000E+00  0.2525252E-01  0.2008546E-06  0.0000000E+00  0.3311117E-04
  0.3080808E+00  0.0000000E+00  0.2525252E-01  0.1095808E-06  0.0000000E+00  0.3316883E-04
  0.3181818E+00  0.0000000E+00  0.2525252E-01  0.2316701E-07  0.0000000E+00  0.3319008E-04
  0.3282828E+00  0.0000000E+00  0.2525252E-01 -0.5818516E-07  0.0000000E+00  0.3317696E-04
  0.3383838E+00  0.0000000E+00  0.2525252E-01 -0.1342778E-06  0.0000000E+00  0.3313164E-04
  0.3484848E+00  0.0000000E+00  0.2525252E-01 -0.2049320E-06  0.0000000E+00  0.3305633E-04
  0.3585859E+00  0.0000000E+00  0.2525252E-01 -0.2700151E-06  0.0000000E+00  0.3295334E-04
  0.3686869E+00  0.0000000E+00  0.2525252E-01 -0.3294697E-06  0.0000000E+00  0.3282503E-04
  0.3787879E+00  0.0000000E+00  0.2525252E-01 -0.3833361E-06  0.0000000E+00  0.3267379E-04
  0.3888889E+00  0.0000000E+00  0.2525252E-01 -0.4317654E-06  0.0000000E+00  0.3250195E-04
  0.3989899E+00  0.0000000E+00  0.2525252E-01 -0.4750226E-06  0.0000000E+00  0.3231178E-04
  0.4090909E+00  0.0000000E+00  0.2525252E-01 -0.5134804E-06  0.0000000E+00  0.3210539E-04
  0.4191919E+00  0.0000000E+00  0.2525252E-01 -0.5476072E-06  0.0000000E+00  0.3188473E-04
  0.4292929E+00  0.0000000E+00  0.2525252E-01 -0.5779503E-06  0.0000000E+00  0.3165151E-04
  0.4393939E+00  0.0000000E+00  0.2525252E-01 -0.6051178E-06  0.0000000E+00  0.3140718E-04
  0.4494950E+00  0.0000000E+00  0.2525252E-01 -0.6297596E-06  0.0000000E+00  0.3115294E-04
  0.4595959E+00  0.0000000E+00  0.2525252E-01 -0.6525474E-06  0.0000000E+00  0.3088970E-04
  0.4696970E+00  0.0000000E+00  0.2525252E-01 -0.6741557E-06  0.0000000E+00  0.3061806E-04
  0.4797980E+00  0.0000000E+00  0.2525252E-01 -0.6952412E-06  0.0000000E+00  0.3033834E-04
  0.4898990E+00  0.0000000E+00  0.2525252E-01 -0.7164221E-06  0.0000000E+00  0.3005060E-04
  0.5000000E+00  0.0000000E+00  0.2525252E-01 -0.7382565E-06  0.0000000E+00  0.2975460E-04
  0.5101010E+00  0.0000000E+00  0.2525252E-01 -0.7612202E-06  0.0000000E+00  0.2944993E-04
  0.5202020E+00  0.0000000E+00  0.2525252E-01 -0.7856856E-06  0.0000000E+00  0.2913593E-04
  0.5303030E+00  0.0000000E+00  0.2525252E-01 -0.8119012E-06  0.0000000E+00  0.2881185E-04
  0.5404040E+00  0.0000000E+00  0.2525252E-01 -0.8399767E-06  0.0000000E+00  0.2847682E-04
  0.5505050E+00  0.0000000E+00  0.2525252E-01 -0.8698725E-06  0.0000000E+00  0.2812999E-04
  0.5606061E+00  0.0000000E+00  0.2525252E-01 -0.9013982E-06  0.0000000E+00  0.2777052E-04
  0.5707071E+00  0.0000000E+00  0.2525252E-01 -0.9342196E-06  0.0000000E+00  0.2739771E-04
  0.5808081E+00  0.0000000E+00  0.2525252E-01 -0.9678753E-06  0.0000000E+00  0.2701104E-04
  0.5909091E+00  0.0000000E+00  0.2525252E-01 -0.1001802E-05  0.0000000E+00  0.2661022E-04
  0.6010101E+00  0.0000000E+00  0.2525252E-01 -0.1035366E-05  0.0000000E+00  0.2619521E-04
  0.6111111E+00  0.0000000E+00  0.2525252E-01 -0.1067898E-05  0.0000000E+00  0.2576629E-04
  0.6212121E+00  0.0000000E+00  0.2525252E-01 -0.1098729E-05  0.0000000E+00  0.2532403E-04
  0.6313131E+00  0.0000000E+00  0.2525252E-01 -0.1127220E-05  0.0000000E+00  0.2486928E-04
  0.6414142E+00  0.0000000E+00  0.2525252E-01 -0.1152791E-05  0.0000000E+00  0.2440317E-04
  0.6515151E+00  0.0000000E+00  0.2525252E-01 -0.1174940E-05  0.0000000E+00  0.2392704E-04
  0.6616161E+00  0.0000000E+00  0.2525252E-01 -0.1193255E-05  0.0000000E+00  0.2344246E-04
  0.6717172E+00  0.0000000E+00  0.2525252E-01 -0.1207420E-05  0.0000000E+00  0.2295111E-04
  0.6818182E+00  0.0000000E+00  0.2525252E-01 -0.1217217E-05  0.0000000E+00  0.2245481E-04
  0.6919192E+00  0.0000000E+00  0.2525252E-01 -0.1222515E-05  0.0000000E+00  0.2195542E-04
  0.7020202E+00  0.0000000E+00  0.2525252E-01 -0.1223271E-05  0.0000000E+00  0.2145485E-04
  0.7121212E+00  0.0000000E+00  0.2525252E-01 -0.1219512E-05  0.0000000E+00  0.2095498E-04
  0.7222222E+00  0.0000000E+00  0.2525252E-01 -0.1211325E-05  0.0000000E+00  0.2045768E-04
  0.7323232E+00  0.0000000E+00  0.2525252E-01 -0.1198850E-05  0.0000000E+00  0.1996476E-04
  0.7424242E+00  0.0000000E+00  0.2525252E-01 -0.1182262E-05  0.0000000E+00  0.1947795E-04
  0.7525253E+00  0.0000000E+00  0.2525252E-01 -0.1161768E-05  0.0000000E+00  0.1899888E-04
  0.7626263E+00  0.0000000E+00  0.2525252E-01 -0.1137589E-05  0.0000000E+00  0.1852912E-04
  0.7727273E+00  0.0000000E+00  0.2525252E-01 -0.1109963E-05  0.0000000E+00  0.1807011E-04
  0.7828283E+00  0.0000000E+00  0.2525252E-01 -0.1079128E-05  0.0000000E+00  0.1762321E-04
  0.7929293E+00  0.0000000E+00  0.2525252E-01 -0.1045323E-05  0.0000000E+00  0.1718966E-04
  0.8030303E+00  0.0000000E+00  0.2525252E-01 -0.1008783E-05  0.0000000E+00  0.1677061E-04
  0.8131313E+00  0.0000000E+00  0.2525252E-01 -0.9697326E-06  0.0000000E+00  0.1636711E-04
  0.8232324E+00  0.0000000E+00  0.2525252E-01 -0.9283885E-06  0.0000000E+00  0.1598014E-04
  0.8333333E+00  0.0000000E+00  0.2525252E-01 -0.8849543E-06  0.0000000E+00  0.1561056E-04
  0.8434343E+00  0.0000000E+00  0.2525252E-01 -0.8396218E-06  0.0000000E+00  0.1525917E-04
  0.8535354E+00  0.0000000E+00  0.2525252E-01 -0.7925697E-06  0.0000000E+00  0.1492669E-04
  0.8636364E+00  0.0000000E+00  0.2525252E-01 -0.7439645E-06  0.0000000E+00  0.1461376E-04
  0.8737374E+00  0.0000000E+00  0.2525252E-01 -0.6939608E-06  0.0000000E+00  0.1432098E-04
  0.8838384E+00  0.0000000E+00  0.2525252E-01 -0.6427019E-06  0.0000000E+00  0.1404888E-04
  0.8939394E+00  0.0000000E+00  0.2525252E-01 -0.5903210E-06  0.0000000E+00  0.1379791E-04
  0.9040404E+00  0.0000000E+00  0.2525252E-01 -0.5369423E-06  0.0000000E+00  0.1356850E-04
  0.9141414E+00  0.0000000E+00  0.2525252E-01 -0.4826816E-06  0.0000000E+00  0.1336103E-04
  0.9242424E+00  0.0000000E+00  0.2525252E-01 -0.4276480E-06  0.0000000E+00  0.1317582E-04
  0.9343435E+00  0.0000000E+00  0.2525252E-01 -0.3719446E-06  0.0000000E+00  0.1301315E-04
  0.9444444E+00  0.0000000E+00  0.2525252E-01 -0.3156694E-06  0.0000000E+00  0.1287327E-04
  0.9545454E+00  0.0000000E+00  0.2525252E-01 -0.2589164E-06  0.0000000E+00  0.1275640E-04
  0.9646465E+00  0.0000000E+00  0.2525252E-01 -0.2017765E-06  0.0000000E+00  0.1266270E-04
  0.9747475E+00  0.0000000E+00  0.2525252E-01 -0.1443380E-06  0.0000000E+00  0.1259230E-04
  0.9848485E+00  0.0000000E+00  0.2525252E-01 -0.8668736E-07  0.0000000E+00  0.1254531E-04
  0.9974747E+00  0.0000000E+00  0.2525252E-01 -0.2890989E-07  0.0000000E+00  0.1252180E-04
  0.5050505E-02  0.0000000E+00  0.3535353E-01  0.8768890E-07  0.0000000E+00  0.2283006E-04
  0.1515152E-01  0.0000000E+00  0.3535353E-01  0.2626459E-06  0.0000000E+00  0.2288274E-04
  0.2525252E-01  0.0000000E+00  0.3535353E-01  0.4363225E-06  0.0000000E+00  0.2298790E-04
  0.3535353E-01  0.0000000E+00  0.3535353E-01  0.6078056E-06  0.0000000E+00  0.2314509E-04
  0.4545455E-01  0.0000000E+00  0.3535353E-01  0.7760920E-06  0.0000000E+00  0.2335366E-04
  0.5555556E-01  0.0000000E+00  0.3535353E-01  0.9400513E-06  0.0000000E+00  0.2361266E-04
  0.6565657E-01  0.0000000E+00  0.3535353E-01  0.1098390E-05  0.0000000E+00  0.2392084E-04
  0.7575758E-01  0.0000000E+00  0.3535353E-01  0.1249615E-05  0.0000000E+00  0.2427656E-04
  0.8585858E-01  0.0000000E+00  0.3535353E-01  0.1392005E-05  0.0000000E+00  0.2467773E-04
  0.9595960E-01  0.0000000E+00  0.3535353E-01  0.1523587E-05  0.0000000E+00  0.2512171E-04
  0.1060606E+00  0.0000000E+00  0.3535353E-01  0.1642126E-05  0.0000000E+00  0.2560525E-04
  0.1161616E+00  0.0000000E+00  0.3535353E-01  0.1745144E-05  0.0000000E+00  0.2612433E-04
  0.1262626E+00  0.0000000E+00  0.3535353E-01  0.1829967E-05  0.0000000E+00  0.2667405E-04
  0.1363636E+00  0.0000000E+00  0.3535353E-01  0.1893827E-05  0.0000000E+00  0.2724858E-04
  0.1464646E+00  0.0000000E+00  0.3535353E-01  0.1934020E-05  0.0000000E+00  0.2784101E-04
  0.1565657E+00  0.0000000E+00  0.3535353E-01  0.1948153E-05  0.0000000E+00  0.2844341E-04
  0.1666667E+00  0.0000000E+00  0.3535353E-01  0.1934443E-05  0.0000000E+00  0.2904688E-04
  0.1767677E+00  0.0000000E+00  0.3535353E-01  0.1892080E-05  0.0000000E+00  0.2964181E-04
  0.1868687E+00  0.0000000E+00  0.3535353E-01  0.1821570E-05  0.0000000E+00  0.3021831E-04
  0.1969697E+00  0.0000000E+00  0.3535353E-01  0.1724964E-05  0.0000000E+00  0.3076678E-04
  0.2070707E+00  0.0000000E+00  0.3535353E-01  0.1605870E-05  0.0000000E+00  0.3127867E-04
  0.2171717E+00  0.0000000E+00  0.3535353E-01  0.1469131E-05  0.0000000E+00  0.3174714E-04
  0.2272727E+00  0.0000000E+00  0.3535353E-01  0.1320221E-05  0.0000000E+00  0.3216750E-04
  0.2373737E+00  0.0000000E+00  0.3535353E-01  0.1164494E-05  0.0000000E+00  0.3253731E-04
  0.2474747E+00  0.0000000E+00  0.3535353E-01  0.1006566E-05  0.0000000E+00  0.3285609E-04
  0.2575758E+00  0.0000000E+00  0.3535353E-01  0.8499648E-06  0.0000000E+00  0.3312480E-04
  0.2676768E+00  0.0000000E+00  0.3535353E-01  0.6970963E-06  0.0000000E+00  0.3334526E-04
  0.2777778E+00  0.0000000E+00  0.3535353E-01  0.5494251E-06  0.0000000E+00  0.3351970E-04
  0.2878788E+00  0.0000000E+00  0.3535353E-01  0.4077522E-06  0.0000000E+00  0.3365042E-04
  0.2979798E+00  0.0000000E+00  0.3535353E-01  0.2724947E-06  0.0000000E+00  0.3373969E-04