title = "dataset water"
variables = "x", "y", "z", "h_w", "p_w", "s_w", "theta_w", "transp", "evap", "transp2", "transp_tot"
zone t = "Flow variables, solution time =  4.900E+01 days        " i =  100, j =  100, k =    1,  f=point
  0.0000000E+00  0.0000000E+00  0.0000000E+00 -0.1000000E+02 -0.1000000E+02  0.4298033E+00  0.1839558E+00  0.0000000E+00  0.0000000E+00  0.0000000E+00  0.0000000E+00
  0.1010101E-01  0.0000000E+00  0.0000000E+00 -0.1000000E+02 -0.1000000E+02  0.4298033E+00  0.1839558E+00  0.0000000E+00  0.0000000E+00  0.0000000E+00  0.0000000E+00
  0.2020202E-01  0.0000000E+00  0.0000000E+00 -0.1000000E+02 -0.1000000E+02  0.4298033E+00  0.1839558E+00  0.0000000E+00  0.0000000E+00  0.0000000E+00  0.0000000E+00
  0.3030303E-01  0.0000000E+00  0.0000000E+00 -0.1000000E+02 -0.1000000E+02  0.4298033E+00  0.1839558E+00  0.0000000E+00  0.0000000E+00  0.0000000E+00  0.0000000E+00
  0.4040404E-01  0.0000000E+00  0.0000000E+00 -0.1000000E+02 -0.1000000E+02  0.4298033E+00  0.1839558E+00  0.0000000E+00  0.0000000E+00  0.0000000E+00  0.0000000E+00
  0.5050505E-01  0.0000000E+00  0.0000000E+00 -0.1000000E+02 -0.1000000E+02  0.4298033E+00  0.1839558E+00  0.0000000E+00  0.0000000E+00  0.0000000E+00  0.0000000E+00
  0.6060606E-01  0.0000000E+00  0.0000000E+00 -0.1000000E+02 -0.1000000E+02  0.4298033E+00  0.1839558E+00  0.0000000E+00  0.0000000E+00  0.0000000E+00  0.0000000E+00
  0.7070707E-01  0.0000000E+00  0.0000000E+00 -0.1000000E+02 -0.1000000E+02  0.4298033E+00  0.1839558E+00  0.0000000E+00  0.0000000E+00  0.0000000E+00  0.0000000E+00
  0.8080808E-01  0.0000000E+00  0.0000000E+00 -0.1000000E+02 -0.1000000E+02  0.4298033E+00  0.1839558E+00  0.0000000E+00  0.0000000E+00  0.0000000E+00  0.0000000E+00
  0.9090909E-01  0.0000000E+00  0.0000000E+00 -0.1000000E+02 -0.1000000E+02  0.4298033E+00  0.1839558E+00  0.0000000E+00  0.0000000E+00  0.0000000E+00  0.0000000E+00
  0.1010101E+00  0.0000000E+00  0.0000000E+00 -0.1000000E+02 -0.1000000E+02  0.4298033E+00  0.1839558E+00  0.0000000E+00  0.0000000E+00  0.0000000E+00  0.0000000E+00
  0.1111111E+00  0.0000000E+00  0.0000000E+00 -0.1000000E+02 -0.1000000E+02  0.4298033E+00  0.1839558E+00  0.0000000E+00  0.0000000E+00  0.0000000E+00  0.0000000E+00
  0.1212121E+00  0.0000000E+00  0.0000000E+00 -0.1000000E+02 -0.1000000E+02  0.4298033E+00  0.1839558E+00  0.0000000E+00  0.0000000E+00  0.0000000E+00  0.0000000E+00
  0.1313131E+00  0.0000000E+00  0.0000000E+00 -0.1000000E+02 -0.1000000E+02  0.4298033E+00  0.1839558E+00  0.0000000E+00  0.0000000E+00  0.0000000E+00  0.0000000E+00
  0.1414141E+00  0.0000000E+00  0.0000000E+00 -0.1000000E+02 -0.1000000E+02  0.4298033E+00  0.1839558E+00  0.0000000E+00  0.0000000E+00  0.0000000E+00  0.0000000E+00
  0.1515152E+00  0.0000000E+00  0.0000000E+00 -0.1000000E+02 -0.1000000E+02  0.4298033E+00  0.1839558E+00  0.0000000E+00  0.0000000E+00  0.0000000E+00  0.0000000E+00
  0.1616162E+00  0.0000000E+00  0.0000000E+00 -0.1000000E+02 -0.1000000E+02  0.4298033E+00  0.1839558E+00  0.0000000E+00  0.0000000E+00  0.0000000E+00  0.0000000E+00
  0.1717172E+00  0.0000000E+00  0.0000000E+00 -0.1000000E+02 -0.1000000E+02  0.4298033E+00  0.1839558E+00  0.0000000E+00  0.0000000E+00  0.0000000E+00  0.0000000E+00
  0.1818182E+00  0.0000000E+00  0.0000000E+00 -0.1000000E+02 -0.1000000E+02  0.4298033E+00  0.1839558E+00  0.0000000E+00  0.0000000E+00  0.0000000E+00  0.0000000E+00
  0.1919192E+00  0.0000000E+00  0.0000000E+00 -0.1000000E+02 -0.1000000E+02  0.4298033E+00  0.1839558E+00  0.0000000E+00  0.0000000E+00  0.0000000E+00  0.0000000E+00
  0.2020202E+00  0.0000000E+00  0.0000000E+00 -0.1000000E+02 -0.1000000E+02  0.4298033E+00  0.1839558E+00  0.0000000E+00  0.0000000E+00  0.0000000E+00  0.0000000E+00
  0.2121212E+00  0.0000000E+00  0.0000000E+00 -0.1000000E+02 -0.1000000E+02  0.4298033E+00  0.1839558E+00  0.0000000E+00  0.0000000E+00  0.0000000E+00  0.0000000E+00
  0.2222222E+00  0.0000000E+00  0.0000000E+00 -0.1000000E+02 -0.1000000E+02  0.4298033E+00  0.1839558E+00  0.0000000E+00  0.0000000E+00  0.0000000E+00  0.0000000E+00
  0.2323232E+00  0.0000000E+00  0.0000000E+00 -0.1000000E+02 -0.1000000E+02  0.4298033E+00  0.1839558E+00  0.0000000E+00  0.0000000E+00  0.0000000E+00  0.0000000E+00
  0.2424242E+00  0.0000000E+00  0.0000000E+00 -0.1000000E+02 -0.1000000E+02  0.4298033E+00  0.1839558E+00  0.0000000E+00  0.0000000E+00  0.0000000E+00  0.0000000E+00
  0.2525253E+00  0.0000000E+00  0.0000000E+00 -0.1000000E+02 -0.1000000E+02  0.4298033E+00  0.1839558E+00  0.0000000E+00  0.0000000E+00  0.0000000E+00  0.0000000E+00
  0.2626263E+00  0.0000000E+00  0.0000000E+00 -0.1000000E+02 -0.1000000E+02  0.4298033E+00  0.1839558E+00  0.0000000E+00  0.0000000E+00  0.0000000E+00  0.0000000E+00
  0.2727273E+00  0.0000000E+00  0.0000000E+00 -0.1000000E+02 -0.1000000E+02  0.4298033E+00  0.1839558E+00  0.0000000E+00  0.0000000E+00  0.0000000E+00  0.0000000E+00
  0.2828283E+00  0.0000000E+00  0.0000000E+00 -0.1000000E+02 -0.1000000E+02  0.4298033E+00  0.1839558E+00  0.0000000E+00  0.0000000E+00  0.0000000E+00  0.0000000E+00
  0.2929293E+00  0.0000000E+00  0.0000000E+00 -0.1000000E+02 -0.1000000E+02  0.4298033E+00  0.1839558E+00  0.0000000E+00  0.0000000E+00  0.0000000E+00  0.0000000E+00
  0.3030303E+00  0.0000000E+00  0.0000000E+00 -0.1000000E+02 -0.1000000E+02  0.4298033E+00  0.1839558E+00  0.0000000E+00  0.0000000E+00  0.0000000E+00  0.0000000E+00
  0.3131313E+00  0.0000000E+00  0.0000000E+00 -0.1000000E+02 -0.1000000E+02  0.4298033E+00  0.1839558E+00  0.0000000E+00  0.0000000E+00  0.0000000E+00  0.0000000E+00
  0.3232323E+00  0.0000000E+00  0.0000000E+00 -0.1000000E+02 -0.1000000E+02  0.4298033E+00  0.1839558E+00  0.0000000E+00  0.0000000E+00  0.0000000E+00  0.0000000E+00
  0.3333333E+00  0.0000000E+00  0.0000000E+00 -0.1000000E+02 -0.1000000E+02  0.4298033E+00  0.1839558E+00  0.0000000E+00  0.0000000E+00  0.0000000E+00  0.0000000E+00
  0.3434343E+00  0.0000000E+00  0.0000000E+00 -0.1000000E+02 -0.1000000E+02  0.4298033E+00  0.1839558E+00  0.0000000E+00  0.0000000E+00  0.0000000E+00  0.0000000E+00
  0.3535354E+00  0.0000000E+00  0.0000000E+00 -0.1000000E+02 -0.1000000E+02  0.4298033E+00  0.1839558E+00  0.0000000E+00  0.0000000E+00  0.0000000E+00  0.0000000E+00
  0.3636364E+00  0.0000000E+00  0.0000000E+00 -0.1000000E+02 -0.1000000E+02  0.4298033E+00  0.1839558E+00  0.0000000E+00  0.0000000E+00  0.0000000E+00  0.0000000E+00
  0.3737374E+00  0.0000000E+00  0.0000000E+00 -0.1000000E+02 -0.1000000E+02  0.4298033E+00  0.1839558E+00  0.0000000E+00  0.0000000E+00  0.0000000E+00  0.0000000E+00
  0.3838384E+00  0.0000000E+00  0.0000000E+00 -0.1000000E+02 -0.1000000E+02  0.4298033E+00  0.1839558E+00  0.0000000E+00  0.0000000E+00  0.0000000E+00  0.0000000E+00
  0.3939394E+00  0.0000000E+00  0.0000000E+00 -0.1000000E+02 -0.1000000E+02  0.4298033E+00  0.1839558E+00  0.0000000E+00  0.0000000E+00  0.0000000E+00  0.0000000E+00
  0.4040404E+00  0.0000000E+00  0.0000000E+00 -0.1000000E+02 -0.1000000E+02  0.4298033E+00  0.1839558E+00  0.0000000E+00  0.0000000E+00  0.0000000E+00  0.0000000E+00
  0.4141414E+00  0.0000000E+00  0.0000000E+00 -0.1000000E+02 -0.1000000E+02  0.4298033E+00  0.1839558E+00  0.0000000E+00  0.0000000E+00  0.0000000E+00  0.0000000E+00
  0.4242424E+00  0.0000000E+00  0.0000000E+00 -0.1000000E+02 -0.1000000E+02  0.4298033E+00  0.1839558E+00  0.0000000E+00  0.0000000E+00  0.0000000E+00  0.0000000E+00
  0.4343434E+00  0.0000000E+00  0.0000000E+00 -0.1000000E+02 -0.1000000E+02  0.4298033E+00  0.1839558E+00  0.0000000E+00  0.0000000E+00  0.0000000E+00  0.0000000E+00
  0.4444444E+00  0.0000000E+00  0.0000000E+00 -0.1000000E+02 -0.1000000E+02  0.4298033E+00  0.1839558E+00  0.0000000E+00  0.0000000E+00  0.0000000E+00  0.0000000E+00
  0.4545455E+00  0.0000000E+00  0.0000000E+00 -0.1000000E+02 -0.1000000E+02  0.4298033E+00  0.1839558E+00  0.0000000E+00  0.0000000E+00  0.0000000E+00  0.0000000E+00
  0.4646465E+00  0.0000000E+00  0.0000000E+00 -0.1000000E+02 -0.1000000E+02  0.4298033E+00  0.1839558E+00  0.0000000E+00  0.0000000E+00  0.0000000E+00  0.0000000E+00
  0.4747475E+00  0.0000000E+00  0.0000000E+00 -0.1000000E+02 -0.1000000E+02  0.4298033E+00  0.1839558E+00  0.0000000E+00  0.0000000E+00  0.0000000E+00  0.0000000E+00
  0.4848485E+00  0.0000000E+00  0.0000000E+00 -0.1000000E+02 -0.1000000E+02  0.4298033E+00  0.1839558E+00  0.0000000E+00  0.0000000E+00  0.0000000E+00  0.0000000E+00
  0.4949495E+00  0.0000000E+00  0.0000000E+00 -0.1000000E+02 -0.1000000E+02  0.4298033E+00  0.1839558E+00  0.0000000E+00  0.0000000E+00  0.0000000E+00  0.0000000E+00
  0.5050505E+00  0.0000000E+00  0.0000000E+00 -0.1000000E+02 -0.1000000E+02  0.4298033E+00  0.1839558E+00  0.0000000E+00  0.0000000E+00  0.0000000E+00  0.0000000E+00
  0.5151515E+00  0.0000000E+00  0.0000000E+00 -0.1000000E+02 -0.1000000E+02  0.4298033E+00  0.1839558E+00  0.0000000E+00  0.0000000E+00  0.0000000E+00  0.0000000E+00
  0.5252525E+00  0.0000000E+00  0.0000000E+00 -0.1000000E+02 -0.1000000E+02  0.4298033E+00  0.1839558E+00  0.0000000E+00  0.0000000E+00  0.0000000E+00  0.0000000E+00
  0.5353535E+00  0.0000000E+00  0.0000000E+00 -0.1000000E+02 -0.1000000E+02  0.4298033E+00  0.1839558E+00  0.0000000E+00  0.0000000E+00  0.0000000E+00  0.0000000E+00
  0.5454545E+00  0.0000000E+00  0.0000000E+00 -0.1000000E+02 -0.1000000E+02  0.4298033E+00  0.1839558E+00  0.0000000E+00  0.0000000E+00  0.0000000E+00  0.0000000E+00
  0.5555556E+00  0.0000000E+00  0.0000000E+00 -0.1000000E+02 -0.1000000E+02  0.4298033E+00  0.1839558E+00  0.0000000E+00  0.0000000E+00  0.0000000E+00  0.0000000E+00
  0.5656566E+00  0.0000000E+00  0.0000000E+00 -0.1000000E+02 -0.1000000E+02  0.4298033E+00  0.1839558E+00  0.0000000E+00  0.0000000E+00  0.0000000E+00  0.0000000E+00
  0.5757576E+00  0.0000000E+00  0.0000000E+00 -0.1000000E+02 -0.1000000E+02  0.4298033E+00  0.1839558E+00  0.0000000E+00  0.0000000E+00  0.0000000E+00  0.0000000E+00
  0.5858586E+00  0.0000000E+00  0.0000000E+00 -0.1000000E+02 -0.1000000E+02  0.4298033E+00  0.1839558E+00  0.0000000E+00  0.0000000E+00  0.0000000E+00  0.0000000E+00
  0.5959596E+00  0.0000000E+00  0.0000000E+00 -0.1000000E+02 -0.1000000E+02  0.4298033E+00  0.1839558E+00  0.0000000E+00  0.0000000E+00  0.0000000E+00  0.0000000E+00
  0.6060606E+00  0.0000000E+00  0.0000000E+00 -0.1000000E+02 -0.1000000E+02  0.4298033E+00  0.1839558E+00  0.0000000E+00  0.0000000E+00  0.0000000E+00  0.0000000E+00
  0.6161616E+00  0.0000000E+00  0.0000000E+00 -0.1000000E+02 -0.1000000E+02  0.4298033E+00  0.1839558E+00  0.0000000E+00  0.0000000E+00  0.0000000E+00  0.0000000E+00
  0.6262626E+00  0.0000000E+00  0.0000000E+00 -0.1000000E+02 -0.1000000E+02  0.4298033E+00  0.1839558E+00  0.0000000E+00  0.0000000E+00  0.0000000E+00  0.0000000E+00
  0.6363636E+00  0.0000000E+00  0.0000000E+00 -0.1000000E+02 -0.1000000E+02  0.4298033E+00  0.1839558E+00  0.0000000E+00  0.0000000E+00  0.0000000E+00  0.0000000E+00
  0.6464646E+00  0.0000000E+00  0.0000000E+00 -0.1000000E+02 -0.1000000E+02  0.4298033E+00  0.1839558E+00  0.0000000E+00  0.0000000E+00  0.0000000E+00  0.0000000E+00
  0.6565657E+00  0.0000000E+00  0.0000000E+00 -0.1000000E+02 -0.1000000E+02  0.4298033E+00  0.1839558E+00  0.0000000E+00  0.0000000E+00  0.0000000E+00  0.0000000E+00
  0.6666667E+00  0.0000000E+00  0.0000000E+00 -0.1000000E+02 -0.1000000E+02  0.4298033E+00  0.1839558E+00  0.0000000E+00  0.0000000E+00  0.0000000E+00  0.0000000E+00
  0.6767677E+00  0.0000000E+00  0.0000000E+00 -0.1000000E+02 -0.1000000E+02  0.4298033E+00  0.1839558E+00  0.0000000E+00  0.0000000E+00  0.0000000E+00  0.0000000E+00
  0.6868687E+00  0.0000000E+00  0.0000000E+00 -0.1000000E+02 -0.1000000E+02  0.4298033E+00  0.1839558E+00  0.0000000E+00  0.0000000E+00  0.0000000E+00  0.0000000E+00
  0.6969697E+00  0.0000000E+00  0.0000000E+00 -0.1000000E+02 -0.1000000E+02  0.4298033E+00  0.1839558E+00  0.0000000E+00  0.0000000E+00  0.0000000E+00  0.0000000E+00
  0.7070707E+00  0.0000000E+00  0.0000000E+00 -0.1000000E+02 -0.1000000E+02  0.4298033E+00  0.1839558E+00  0.0000000E+00  0.0000000E+00  0.0000000E+00  0.0000000E+00
  0.7171717E+00  0.0000000E+00  0.0000000E+00 -0.1000000E+02 -0.1000000E+02  0.4298033E+00  0.1839558E+00  0.0000000E+00  0.0000000E+00  0.0000000E+00  0.0000000E+00
  0.7272727E+00  0.0000000E+00  0.0000000E+00 -0.1000000E+02 -0.1000000E+02  0.4298033E+00  0.1839558E+00  0.0000000E+00  0.0000000E+00  0.0000000E+00  0.0000000E+00
  0.7373737E+00  0.0000000E+00  0.0000000E+00 -0.1000000E+02 -0.1000000E+02  0.4298033E+00  0.1839558E+00  0.0000000E+00  0.0000000E+00  0.0000000E+00  0.0000000E+00
  0.7474747E+00  0.0000000E+00  0.0000000E+00 -0.1000000E+02 -0.1000000E+02  0.4298033E+00  0.1839558E+00  0.0000000E+00  0.0000000E+00  0.0000000E+00  0.0000000E+00
  0.7575758E+00  0.0000000E+00  0.0000000E+00 -0.1000000E+02 -0.1000000E+02  0.4298033E+00  0.1839558E+00  0.0000000E+00  0.0000000E+00  0.0000000E+00  0.0000000E+00
  0.7676768E+00  0.0000000E+00  0.0000000E+00 -0.1000000E+02 -0.1000000E+02  0.4298033E+00  0.1839558E+00  0.0000000E+00  0.0000000E+00  0.0000000E+00  0.0000000E+00
  0.7777778E+00  0.0000000E+00  0.0000000E+00 -0.1000000E+02 -0.1000000E+02  0.4298033E+00  0.1839558E+00  0.0000000E+00  0.0000000E+00  0.0000000E+00  0.0000000E+00
  0.7878788E+00  0.0000000E+00  0.0000000E+00 -0.1000000E+02 -0.1000000E+02  0.4298033E+00  0.1839558E+00  0.0000000E+00  0.0000000E+00  0.0000000E+00  0.0000000E+00
  0.7979798E+00  0.0000000E+00  0.0000000E+00 -0.1000000E+02 -0.1000000E+02  0.4298033E+00  0.1839558E+00  0.0000000E+00  0.0000000E+00  0.0000000E+00  0.0000000E+00
  0.8080808E+00  0.0000000E+00  0.0000000E+00 -0.1000000E+02 -0.1000000E+02  0.4298033E+00  0.1839558E+00  0.0000000E+00  0.0000000E+00  0.0000000E+00  0.0000000E+00
  0.8181818E+00  0.0000000E+00  0.0000000E+00 -0.1000000E+02 -0.1000000E+02  0.4298033E+00  0.1839558E+00  0.0000000E+00  0.0000000E+00  0.0000000E+00  0.0000000E+00
  0.8282828E+00  0.0000000E+00  0.0000000E+00 -0.1000000E+02 -0.1000000E+02  0.4298033E+00  0.1839558E+00  0.0000000E+00  0.0000000E+00  0.0000000E+00  0.0000000E+00
  0.8383838E+00  0.0000000E+00  0.0000000E+00 -0.1000000E+02 -0.1000000E+02  0.4298033E+00  0.1839558E+00  0.0000000E+00  0.0000000E+00  0.0000000E+00  0.0000000E+00
  0.8484848E+00  0.0000000E+00  0.0000000E+00 -0.1000000E+02 -0.1000000E+02  0.4298033E+00  0.1839558E+00  0.0000000E+00  0.0000000E+00  0.0000000E+00  0.0000000E+00
  0.8585859E+00  0.0000000E+00  0.0000000E+00 -0.1000000E+02 -0.1000000E+02  0.4298033E+00  0.1839558E+00  0.0000000E+00  0.0000000E+00  0.0000000E+00  0.0000000E+00
  0.8686869E+00  0.0000000E+00  0.0000000E+00 -0.1000000E+02 -0.1000000E+02  0.4298033E+00  0.1839558E+00  0.0000000E+00  0.0000000E+00  0.0000000E+00  0.0000000E+00
  0.8787879E+00  0.0000000E+00  0.0000000E+00 -0.1000000E+02 -0.1000000E+02  0.4298033E+00  0.1839558E+00  0.0000000E+00  0.0000000E+00  0.0000000E+00  0.0000000E+00
  0.8888889E+00  0.0000000E+00  0.0000000E+00 -0.1000000E+02 -0.1000000E+02  0.4298033E+00  0.1839558E+00  0.0000000E+00  0.0000000E+00  0.0000000E+00  0.0000000E+00
  0.8989899E+00  0.0000000E+00  0.0000000E+00 -0.1000000E+02 -0.1000000E+02  0.4298033E+00  0.1839558E+00  0.0000000E+00  0.0000000E+00  0.0000000E+00  0.0000000E+00
  0.9090909E+00  0.0000000E+00  0.0000000E+00 -0.1000000E+02 -0.1000000E+02  0.4298033E+00  0.1839558E+00  0.0000000E+00  0.0000000E+00  0.0000000E+00  0.0000000E+00
  0.9191919E+00  0.0000000E+00  0.0000000E+00 -0.1000000E+02 -0.1000000E+02  0.4298033E+00  0.1839558E+00  0.0000000E+00  0.0000000E+00  0.0000000E+00  0.0000000E+00
  0.9292929E+00  0.0000000E+00  0.0000000E+00 -0.1000000E+02 -0.1000000E+02  0.4298033E+00  0.1839558E+00  0.0000000E+00  0.0000000E+00  0.0000000E+00  0.0000000E+00
  0.9393939E+00  0.0000000E+00  0.0000000E+00 -0.1000000E+02 -0.1000000E+02  0.4298033E+00  0.1839558E+00  0.0000000E+00  0.0000000E+00  0.0000000E+00  0.0000000E+00
  0.9494949E+00  0.0000000E+00  0.0000000E+00 -0.1000000E+02 -0.1000000E+02  0.4298033E+00  0.1839558E+00  0.0000000E+00  0.0000000E+00  0.0000000E+00  0.0000000E+00
  0.9595960E+00  0.0000000E+00  0.0000000E+00 -0.1000000E+02 -0.1000000E+02  0.4298033E+00  0.1839558E+00  0.0000000E+00  0.0000000E+00  0.0000000E+00  0.0000000E+00
  0.9696970E+00  0.0000000E+00  0.0000000E+00 -0.1000000E+02 -0.1000000E+02  0.4298033E+00  0.1839558E+00  0.0000000E+00  0.0000000E+00  0.0000000E+00  0.0000000E+00
  0.9797980E+00  0.0000000E+00  0.0000000E+00 -0.1000000E+02 -0.1000000E+02  0.4298033E+00  0.1839558E+00  0.0000000E+00  0.0000000E+00  0.0000000E+00  0.0000000E+00
  0.9898990E+00  0.0000000E+00  0.0000000E+00 -0.1000000E+02 -0.1000000E+02  0.4298033E+00  0.1839558E+00  0.0000000E+00  0.0000000E+00  0.0000000E+00  0.0000000E+00
  0.1000000E+01  0.0000000E+00  0.0000000E+00 -0.1000000E+02 -0.1000000E+02  0.4298033E+00  0.1839558E+00  0.0000000E+00  0.0000000E+00  0.0000000E+00  0.0000000E+00
  0.0000000E+00  0.0000000E+00  0.1010101E-01 -0.1000950E+02 -0.1001960E+02  0.4295454E+00  0.1838454E+00  0.0000000E+00  0.0000000E+00  0.0000000E+00  0.0000000E+00
  0.1010101E-01  0.0000000E+00  0.1010101E-01 -0.1000951E+02 -0.1001961E+02  0.4295453E+00  0.1838454E+00  0.0000000E+00  0.0000000E+00  0.0000000E+00  0.0000000E+00
  0.2020202E-01  0.0000000E+00  0.1010101E-01 -0.1000954E+02 -0.1001965E+02  0.4295449E+00  0.1838452E+00  0.0000000E+00  0.0000000E+00  0.0000000E+00  0.0000000E+00
  0.3030303E-01  0.0000000E+00  0.1010101E-01 -0.1000960E+02 -0.1001970E+02  0.4295442E+00  0.1838449E+00  0.0000000E+00  0.0000000E+00  0.0000000E+00  0.0000000E+00
  0.4040404E-01  0.0000000E+00  0.1010101E-01 -0.1000967E+02 -0.1001977E+02  0.4295432E+00  0.1838445E+00  0.0000000E+00  0.0000000E+00  0.0000000E+00  0.0000000E+00
  0.5050505E-01  0.0000000E+00  0.1010101E-01 -0.1000976E+02 -0.1001986E+02  0.4295420E+00  0.1838440E+00  0.0000000E+00  0.0000000E+00  0.0000000E+00  0.0000000E+00
  0.6060606E-01  0.0000000E+00  0.1010101E-01 -0.1000987E+02 -0.1001998E+02  0.4295405E+00  0.1838433E+00  0.0000000E+00  0.0000000E+00  0.0000000E+00  0.0000000E+00
  0.7070707E-01  0.0000000E+00  0.1010101E-01 -0.1001001E+02 -0.1002011E+02  0.4295388E+00  0.1838426E+00  0.0000000E+00  0.0000000E+00  0.0000000E+00  0.0000000E+00
  0.8080808E-01  0.0000000E+00  0.1010101E-01 -0.1001015E+02 -0.1002026E+02  0.4295369E+00  0.1838418E+00  0.0000000E+00  0.0000000E+00  0.0000000E+00  0.0000000E+00
  0.9090909E-01  0.0000000E+00  0.1010101E-01 -0.1001032E+02 -0.1002042E+02  0.4295347E+00  0.1838408E+00  0.0000000E+00  0.0000000E+00  0.0000000E+00  0.0000000E+00
  0.1010101E+00  0.0000000E+00  0.1010101E-01 -0.1001050E+02 -0.1002060E+02  0.4295323E+00  0.1838398E+00  0.0000000E+00  0.0000000E+00  0.0000000E+00  0.0000000E+00
  0.1111111E+00  0.0000000E+00  0.1010101E-01 -0.1001070E+02 -0.1002080E+02  0.4295297E+00  0.1838387E+00  0.0000000E+00  0.0000000E+00  0.0000000E+00  0.0000000E+00
  0.1212121E+00  0.0000000E+00  0.1010101E-01 -0.1001090E+02 -0.1002100E+02  0.4295270E+00  0.1838376E+00  0.0000000E+00  0.0000000E+00  0.0000000E+00  0.0000000E+00
  0.1313131E+00  0.0000000E+00  0.1010101E-01 -0.1001112E+02 -0.1002122E+02  0.4295242E+00  0.1838363E+00  0.0000000E+00  0.0000000E+00  0.0000000E+00  0.0000000E+00
  0.1414141E+00  0.0000000E+00  0.1010101E-01 -0.1001134E+02 -0.1002144E+02  0.4295212E+00  0.1838351E+00  0.0000000E+00  0.0000000E+00  0.0000000E+00  0.0000000E+00
  0.1515152E+00  0.0000000E+00  0.1010101E-01 -0.1001157E+02 -0.1002167E+02  0.4295182E+00  0.1838338E+00  0.0000000E+00  0.0000000E+00  0.0000000E+00  0.0000000E+00
  0.1616162E+00  0.0000000E+00  0.1010101E-01 -0.1001180E+02 -0.1002190E+02  0.4295152E+00  0.1838325E+00  0.0000000E+00  0.0000000E+00  0.0000000E+00  0.0000000E+00
  0.1717172E+00  0.0000000E+00  0.1010101E-01 -0.1001203E+02 -0.1002213E+02  0.4295122E+00  0.1838312E+00  0.0000000E+00  0.0000000E+00  0.0000000E+00  0.0000000E+00
  0.1818182E+00  0.0000000E+00  0.1010101E-01 -0.1001225E+02 -0.1002235E+02  0.4295093E+00  0.1838300E+00  0.0000000E+00  0.0000000E+00  0.0000000E+00  0.0000000E+00
  0.1919192E+00  0.0000000E+00  0.1010101E-01 -0.1001247E+02 -0.1002257E+02  0.4295065E+00  0.1838288E+00  0.0000000E+00  0.0000000E+00  0.0000000E+00  0.0000000E+00
  0.2020202E+00  0.0000000E+00  0.1010101E-01 -0.1001267E+02 -0.1002277E+02  0.4295038E+00  0.1838276E+00  0.0000000E+00  0.0000000E+00  0.0000000E+00  0.0000000E+00
  0.2121212E+00  0.0000000E+00  0.1010101E-01 -0.1001286E+02 -0.1002296E+02  0.4295013E+00  0.1838266E+00  0.0000000E+00  0.0000000E+00  0.0000000E+00  0.0000000E+00
  0.2222222E+00  0.0000000E+00  0.1010101E-01 -0.1001304E+02 -0.1002314E+02  0.4294990E+00  0.1838256E+00  0.0000000E+00  0.0000000E+00  0.0000000E+00  0.0000000E+00
  0.2323232E+00  0.0000000E+00  0.1010101E-01 -0.1001320E+02 -0.1002330E+02  0.4294969E+00  0.1838247E+00  0.0000000E+00  0.0000000E+00  0.0000000E+00  0.0000000E+00
  0.2424242E+00  0.0000000E+00  0.1010101E-01 -0.1001334E+02 -0.1002344E+02  0.4294951E+00  0.1838239E+00  0.0000000E+00  0.0000000E+00  0.0000000E+00  0.0000000E+00
  0.2525253E+00  0.0000000E+00  0.1010101E-01 -0.1001346E+02 -0.1002356E+02  0.4294935E+00  0.1838232E+00  0.0000000E+00  0.0000000E+00  0.0000000E+00  0.0000000E+00
  0.2626263E+00  0.0000000E+00  0.1010101E-01 -0.1001356E+02 -0.1002367E+02  0.4294921E+00  0.1838226E+00  0.0000000E+00  0.0000000E+00  0.0000000E+00  0.0000000E+00
  0.2727273E+00  0.0000000E+00  0.1010101E-01 -0.1001365E+02 -0.1002375E+02  0.4294909E+00  0.1838221E+00  0.0000000E+00  0.0000000E+00  0.0000000E+00  0.0000000E+00
  0.2828283E+00  0.0000000E+00  0.1010101E-01 -0.1001372E+02 -0.1002382E+02  0.4294900E+00  0.1838217E+00  0.0000000E+00  0.0000000E+00  0.0000000E+00  0.0000000E+00
  0.2929293E+00  0.0000000E+00  0.1010101E-01 -0.1001377E+02 -0.1002387E+02  0.4294894E+00  0.1838214E+00  0.0000000E+00  0.0000000E+00  0.0000000E+00  0.0000000E+00
  0.3030303E+00  0.0000000E+00  0.1010101E-01 -0.1001381E+02 -0.1002391E+02  0.4294889E+00  0.1838213E+00  0.0000000E+00  0.0000000E+00  0.0000000E+00  0.0000000E+00
  0.3131313E+00  0.0000000E+00  0.1010101E-01 -0.1001383E+02 -0.1002393E+02  0.4294886E+00  0.1838211E+00  0.0000000E+00  0.0000000E+00  0.0000000E+00  0.0000000E+00
  0.3232323E+00  0.0000000E+00  0.1010101E-01 -0.1001383E+02 -0.1002393E+02  0.4294886E+00  0.1838211E+00  0.0000000E+00  0.0000000E+00  0.0000000E+00  0.0000000E+00
  0.3333333E+00  0.0000000E+00  0.1010101E-01 -0.1001382E+02 -0.1002392E+02  0.4294887E+00  0.1838212E+00  0.0000000E+00  0.0000000E+00  0.0000000E+00  0.0000000E+00
  0.3434343E+00  0.0000000E+00  0.1010101E-01 -0.1001380E+02 -0.1002390E+02  0.4294890E+00  0.1838213E+00  0.0000000E+00  0.0000000E+00  0.0000000E+00  0.0000000E+00
  0.3535354E+00  0.0000000E+00  0.1010101E-01 -0.1001377E+02 -0.1002387E+02  0.4294894E+00  0.1838215E+00  0.0000000E+00  0.0000000E+00  0.0000000E+00  0.0000000E+00
  0.3636364E+00  0.0000000E+00  0.1010101E-01 -0.1001372E+02 -0.1002382E+02  0.4294900E+00  0.1838217E+00  0.0000000E+00  0.0000000E+00  0.0000000E+00  0.0000000E+00
  0.3737374E+00  0.0000000E+00  0.1010101E-01 -0.1001367E+02 -0.1002377E+02  0.4294907E+00  0.1838220E+00  0.0000000E+00  0.0000000E+00  0.0000000E+00  0.0000000E+00
  0.3838384E+00  0.0000000E+00  0.1010101E-01 -0.1001360E+02 -0.1002370E+02  0.4294916E+00  0.1838224E+00  0.0000000E+00  0.0000000E+00  0.0000000E+00  0.0000000E+00
  0.3939394E+00  0.0000000E+00  0.1010101E-01 -0.1001353E+02 -0.1002363E+02  0.4294925E+00  0.1838228E+00  0.0000000E+00  0.0000000E+00  0.0000000E+00  0.0000000E+00
  0.4040404E+00  0.0000000E+00  0.1010101E-01 -0.1001345E+02 -0.1002355E+02  0.4294936E+00  0.1838232E+00  0.0000000E+00  0.0000000E+00  0.0000000E+00  0.0000000E+00
  0.4141414E+00  0.0000000E+00  0.1010101E-01 -0.1001336E+02 -0.1002347E+02  0.4294947E+00  0.1838237E+00  0.0000000E+00  0.0000000E+00  0.0000000E+00  0.0000000E+00
  0.4242424E+00  0.0000000E+00  0.1010101E-01 -0.1001327E+02 -0.1002337E+02  0.4294959E+00  0.1838242E+00  0.0000000E+00  0.0000000E+00  0.0000000E+00  0.0000000E+00
  0.4343434E+00  0.0000000E+00  0.1010101E-01 -0.1001317E+02 -0.1002328E+02  0.4294972E+00  0.1838248E+00  0.0000000E+00  0.0000000E+00  0.0000000E+00  0.0000000E+00
  0.4444444E+00  0.0000000E+00  0.1010101E-01 -0.1001307E+02 -0.1002317E+02  0.4294985E+00  0.1838254E+00  0.0000000E+00  0.0000000E+00  0.0000000E+00  0.0000000E+00
  0.4545455E+00  0.0000000E+00  0.1010101E-01 -0.1001297E+02 -0.1002307E+02  0.4294999E+00  0.1838260E+00  0.0000000E+00  0.0000000E+00  0.0000000E+00  0.0000000E+00
  0.4646465E+00  0.0000000E+00  0.1010101E-01 -0.1001285E+02 -0.1002296E+02  0.4295014E+00  0.1838266E+00  0.0000000E+00  0.0000000E+00  0.0000000E+00  0.0000000E+00
  0.4747475E+00  0.0000000E+00  0.1010101E-01 -0.1001274E+02 -0.1002284E+02  0.4295029E+00  0.1838272E+00  0.0000000E+00  0.0000000E+00  0.0000000E+00  0.0000000E+00
  0.4848485E+00  0.0000000E+00  0.1010101E-01 -0.1001262E+02 -0.1002272E+02  0.4295045E+00  0.1838279E+00  0.0000000E+00  0.0000000E+00  0.0000000E+00  0.0000000E+00
  0.4949495E+00  0.0000000E+00  0.1010101E-01 -0.1001250E+02 -0.1002260E+02  0.4295061E+00  0.1838286E+00  0.0000000E+00  0.0000000E+00  0.0000000E+00  0.0000000E+00
  0.5050505E+00  0.0000000E+00  0.1010101E-01 -0.1001237E+02 -0.1002247E+02  0.4295077E+00  0.1838293E+00  0.0000000E+00  0.0000000E+00  0.0000000E+00  0.0000000E+00
  0.5151515E+00  0.0000000E+00  0.1010101E-01 -0.1001224E+02 -0.1002234E+02  0.4295094E+00  0.1838300E+00  0.0000000E+00  0.0000000E+00  0.0000000E+00  0.0000000E+00
  0.5252525E+00  0.0000000E+00  0.1010101E-01 -0.1001211E+02 -0.1002221E+02  0.4295112E+00  0.1838308E+00  0.0000000E+00  0.0000000E+00  0.0000000E+00  0.0000000E+00
  0.5353535E+00  0.0000000E+00  0.1010101E-01 -0.1001197E+02 -0.1002207E+02  0.4295130E+00  0.1838316E+00  0.0000000E+00  0.0000000E+00  0.0000000E+00  0.0000000E+00
  0.5454545E+00  0.0000000E+00  0.1010101E-01 -0.1001183E+02 -0.1002193E+02  0.4295149E+00  0.1838324E+00  0.0000000E+00  0.0000000E+00  0.0000000E+00  0.0000000E+00
  0.5555556E+00  0.0000000E+00  0.1010101E-01 -0.1001168E+02 -0.1002178E+02  0.4295168E+00  0.1838332E+00  0.0000000E+00  0.0000000E+00  0.0000000E+00  0.0000000E+00
  0.5656566E+00  0.0000000E+00  0.1010101E-01 -0.1001152E+02 -0.1002163E+02  0.4295189E+00  0.1838341E+00  0.0000000E+00  0.0000000E+00  0.0000000E+00  0.0000000E+00
  0.5757576E+00  0.0000000E+00  0.1010101E-01 -0.1001137E+02 -0.1002147E+02  0.4295210E+00  0.1838350E+00  0.0000000E+00  0.0000000E+00  0.0000000E+00  0.0000000E+00
  0.5858586E+00  0.0000000E+00  0.1010101E-01 -0.1001120E+02 -0.1002130E+02  0.4295231E+00  0.1838359E+00  0.0000000E+00  0.0000000E+00  0.0000000E+00  0.0000000E+00
  0.5959596E+00  0.0000000E+00  0.1010101E-01 -0.1001103E+02 -0.1002113E+02  0.4295254E+00  0.1838369E+00  0.0000000E+00  0.0000000E+00  0.0000000E+00  0.0000000E+00
  0.6060606E+00  0.0000000E+00  0.1010101E-01 -0.1001085E+02 -0.1002095E+02  0.4295277E+00  0.1838378E+00  0.0000000E+00  0.0000000E+00  0.0000000E+00  0.0000000E+00
  0.6161616E+00  0.0000000E+00  0.1010101E-01 -0.1001067E+02 -0.1002077E+02  0.4295301E+00  0.1838389E+00  0.0000000E+00  0.0000000E+00  0.0000000E+00  0.0000000E+00
  0.6262626E+00  0.0000000E+00  0.1010101E-01 -0.1001048E+02 -0.1002059E+02  0.4295325E+00  0.1838399E+00  0.0000000E+00  0.0000000E+00  0.0000000E+00  0.0000000E+00
  0.6363636E+00  0.0000000E+00  0.1010101E-01 -0.1001029E+02 -0.1002039E+02  0.4295350E+00  0.1838410E+00  0.0000000E+00  0.0000000E+00  0.0000000E+00  0.0000000E+00
  0.6464646E+00  0.0000000E+00  0.1010101E-01 -0.1001010E+02 -0.1002020E+02  0.4295376E+00  0.1838421E+00  0.0000000E+00  0.0000000E+00  0.0000000E+00  0.0000000E+00
  0.6565657E+00  0.0000000E+00  0.1010101E-01 -0.1000990E+02 -0.1002000E+02  0.4295402E+00  0.1838432E+00  0.0000000E+00  0.0000000E+00  0.0000000E+00  0.0000000E+00
  0.6666667E+00  0.0000000E+00  0.1010101E-01 -0.1000969E+02 -0.1001980E+02  0.4295429E+00  0.1838444E+00  0.0000000E+00  0.0000000E+00  0.0000000E+00  0.0000000E+00
  0.6767677E+00  0.0000000E+00  0.1010101E-01 -0.1000949E+02 -0.1001959E+02  0.4295456E+00  0.1838455E+00  0.0000000E+00  0.0000000E+00  0.0000000E+00  0.0000000E+00
  0.6868687E+00  0.0000000E+00  0.1010101E-01 -0.1000928E+02 -0.1001938E+02  0.4295483E+00  0.1838467E+00  0.0000000E+00  0.0000000E+00  0.0000000E+00  0.0000000E+00
  0.6969697E+00  0.0000000E+00  0.1010101E-01 -0.1000908E+02 -0.1001918E+02  0.4295510E+00  0.1838478E+00  0.0000000E+00  0.0000000E+00  0.0000000E+00  0.0000000E+00
  0.7070707E+00  0.0000000E+00  0.1010101E-01 -0.1000887E+02 -0.1001897E+02  0.4295538E+00  0.1838490E+00  0.0000000E+00  0.0000000E+00  0.0000000E+00  0.0000000E+00
  0.7171717E+00  0.0000000E+00  0.1010101E-01 -0.1000866E+02 -0.1001876E+02  0.4295565E+00  0.1838502E+00  0.0000000E+00  0.0000000E+00  0.0000000E+00  0.0000000E+00
  0.7272727E+00  0.0000000E+00  0.1010101E-01 -0.1000846E+02 -0.1001856E+02  0.4295592E+00  0.1838513E+00  0.0000000E+00  0.0000000E+00  0.0000000E+00  0.0000000E+00
  0.7373737E+00  0.0000000E+00  0.1010101E-01 -0.1000825E+02 -0.1001835E+02  0.4295619E+00  0.1838525E+00  0.0000000E+00  0.0000000E+00  0.0000000E+00  0.0000000E+00
  0.7474747E+00  0.0000000E+00  0.1010101E-01 -0.1000805E+02 -0.1001815E+02  0.4295645E+00  0.1838536E+00  0.0000000E+00  0.0000000E+00  0.0000000E+00  0.0000000E+00
  0.7575758E+00  0.0000000E+00  0.1010101E-01 -0.1000785E+02 -0.1001795E+02  0.4295671E+00  0.1838547E+00  0.0000000E+00  0.0000000E+00  0.0000000E+00  0.0000000E+00
  0.7676768E+00  0.0000000E+00  0.1010101E-01 -0.1000766E+02 -0.1001776E+02  0.4295696E+00  0.1838558E+00  0.0000000E+00  0.0000000E+00  0.0000000E+00  0.0000000E+00
  0.7777778E+00  0.0000000E+00  0.1010101E-01 -0.1000747E+02 -0.1001757E+02  0.4295721E+00  0.1838569E+00  0.0000000E+00  0.0000000E+00  0.0000000E+00  0.0000000E+00
  0.7878788E+00  0.0000000E+00  0.1010101E-01 -0.1000729E+02 -0.1001739E+02  0.4295745E+00  0.1838579E+00  0.0000000E+00  0.0000000E+00  0.0000000E+00  0.0000000E+00