title = "dataset water"
variables = "x", "y", "z", "vx", "vy", "vz"
zone t = "velocities, solution time =  5.400E+01 days        " i =   99, j =   99, k =    1,  f=point
  0.5050505E-02  0.0000000E+00  0.5050505E-02  0.4867706E-07  0.0000000E+00  0.6197533E-04
  0.1515152E-01  0.0000000E+00  0.5050505E-02  0.1463141E-06  0.0000000E+00  0.6217238E-04
  0.2525252E-01  0.0000000E+00  0.5050505E-02  0.2448149E-06  0.0000000E+00  0.6256765E-04
  0.3535353E-01  0.0000000E+00  0.5050505E-02  0.3448029E-06  0.0000000E+00  0.6316353E-04
  0.4545455E-01  0.0000000E+00  0.5050505E-02  0.4469762E-06  0.0000000E+00  0.6396379E-04
  0.5555556E-01  0.0000000E+00  0.5050505E-02  0.5521488E-06  0.0000000E+00  0.6497371E-04
  0.6565657E-01  0.0000000E+00  0.5050505E-02  0.6613073E-06  0.0000000E+00  0.6620042E-04
  0.7575758E-01  0.0000000E+00  0.5050505E-02  0.7756884E-06  0.0000000E+00  0.6765334E-04
  0.8585858E-01  0.0000000E+00  0.5050505E-02  0.8968879E-06  0.0000000E+00  0.6934475E-04
  0.9595960E-01  0.0000000E+00  0.5050505E-02  0.1027009E-05  0.0000000E+00  0.7129072E-04
  0.1060606E+00  0.0000000E+00  0.5050505E-02  0.1168853E-05  0.0000000E+00  0.7351230E-04
  0.1161616E+00  0.0000000E+00  0.5050505E-02  0.1326108E-05  0.0000000E+00  0.7603717E-04
  0.1262626E+00  0.0000000E+00  0.5050505E-02  0.1503342E-05  0.0000000E+00  0.7890142E-04
  0.1363636E+00  0.0000000E+00  0.5050505E-02  0.1705079E-05  0.0000000E+00  0.8215045E-04
  0.1464646E+00  0.0000000E+00  0.5050505E-02  0.1931560E-05  0.0000000E+00  0.8583457E-04
  0.1565657E+00  0.0000000E+00  0.5050505E-02  0.2163979E-05  0.0000000E+00  0.8998546E-04
  0.1666667E+00  0.0000000E+00  0.5050505E-02  0.2320254E-05  0.0000000E+00  0.9453258E-04
  0.1767677E+00  0.0000000E+00  0.5050505E-02  0.2149646E-05  0.0000000E+00  0.9906759E-04
  0.1868687E+00  0.0000000E+00  0.5050505E-02  0.1146706E-05  0.0000000E+00  0.1024136E-03
  0.1969697E+00  0.0000000E+00  0.5050505E-02 -0.1607526E-06  0.0000000E+00  0.1034147E-03
  0.2070707E+00  0.0000000E+00  0.5050505E-02 -0.6553060E-06  0.0000000E+00  0.1025860E-03
  0.2171717E+00  0.0000000E+00  0.5050505E-02 -0.7164121E-06  0.0000000E+00  0.1011931E-03
  0.2272727E+00  0.0000000E+00  0.5050505E-02 -0.6240778E-06  0.0000000E+00  0.9983220E-04
  0.2373737E+00  0.0000000E+00  0.5050505E-02 -0.5003013E-06  0.0000000E+00  0.9869084E-04
  0.2474747E+00  0.0000000E+00  0.5050505E-02 -0.3878594E-06  0.0000000E+00  0.9778937E-04
  0.2575758E+00  0.0000000E+00  0.5050505E-02 -0.2979283E-06  0.0000000E+00  0.9709337E-04
  0.2676768E+00  0.0000000E+00  0.5050505E-02 -0.2307981E-06  0.0000000E+00  0.9655680E-04
  0.2777778E+00  0.0000000E+00  0.5050505E-02 -0.1838262E-06  0.0000000E+00  0.9613605E-04
  0.2878788E+00  0.0000000E+00  0.5050505E-02 -0.1542115E-06  0.0000000E+00  0.9579303E-04
  0.2979798E+00  0.0000000E+00  0.5050505E-02 -0.1398220E-06  0.0000000E+00  0.9549467E-04
  0.3080808E+00  0.0000000E+00  0.5050505E-02 -0.1393282E-06  0.0000000E+00  0.9521143E-04
  0.3181818E+00  0.0000000E+00  0.5050505E-02 -0.1520799E-06  0.0000000E+00  0.9491576E-04
  0.3282828E+00  0.0000000E+00  0.5050505E-02 -0.1778335E-06  0.0000000E+00  0.9458104E-04
  0.3383838E+00  0.0000000E+00  0.5050505E-02 -0.2163089E-06  0.0000000E+00  0.9418117E-04
  0.3484848E+00  0.0000000E+00  0.5050505E-02 -0.2665374E-06  0.0000000E+00  0.9369133E-04
  0.3585859E+00  0.0000000E+00  0.5050505E-02 -0.3260663E-06  0.0000000E+00  0.9309020E-04
  0.3686869E+00  0.0000000E+00  0.5050505E-02 -0.3903329E-06  0.0000000E+00  0.9236355E-04
  0.3787879E+00  0.0000000E+00  0.5050505E-02 -0.4528261E-06  0.0000000E+00  0.9150842E-04
  0.3888889E+00  0.0000000E+00  0.5050505E-02 -0.5065900E-06  0.0000000E+00  0.9053550E-04
  0.3989899E+00  0.0000000E+00  0.5050505E-02 -0.5465526E-06  0.0000000E+00  0.8946767E-04
  0.4090909E+00  0.0000000E+00  0.5050505E-02 -0.5707184E-06  0.0000000E+00  0.8833497E-04
  0.4191919E+00  0.0000000E+00  0.5050505E-02 -0.5798851E-06  0.0000000E+00  0.8716864E-04
  0.4292929E+00  0.0000000E+00  0.5050505E-02 -0.5766311E-06  0.0000000E+00  0.8599649E-04
  0.4393939E+00  0.0000000E+00  0.5050505E-02 -0.5642927E-06  0.0000000E+00  0.8484030E-04
  0.4494950E+00  0.0000000E+00  0.5050505E-02 -0.5462563E-06  0.0000000E+00  0.8371504E-04
  0.4595959E+00  0.0000000E+00  0.5050505E-02 -0.5255881E-06  0.0000000E+00  0.8262915E-04
  0.4696970E+00  0.0000000E+00  0.5050505E-02 -0.5049019E-06  0.0000000E+00  0.8158529E-04
  0.4797980E+00  0.0000000E+00  0.5050505E-02 -0.4863494E-06  0.0000000E+00  0.8058130E-04
  0.4898990E+00  0.0000000E+00  0.5050505E-02 -0.4716478E-06  0.0000000E+00  0.7961110E-04
  0.5000000E+00  0.0000000E+00  0.5050505E-02 -0.4620935E-06  0.0000000E+00  0.7866558E-04
  0.5101010E+00  0.0000000E+00  0.5050505E-02 -0.4585429E-06  0.0000000E+00  0.7773344E-04
  0.5202020E+00  0.0000000E+00  0.5050505E-02 -0.4613678E-06  0.0000000E+00  0.7680214E-04
  0.5303030E+00  0.0000000E+00  0.5050505E-02 -0.4704113E-06  0.0000000E+00  0.7585893E-04
  0.5404040E+00  0.0000000E+00  0.5050505E-02 -0.4849858E-06  0.0000000E+00  0.7489192E-04
  0.5505050E+00  0.0000000E+00  0.5050505E-02 -0.5039464E-06  0.0000000E+00  0.7389110E-04
  0.5606061E+00  0.0000000E+00  0.5050505E-02 -0.5258484E-06  0.0000000E+00  0.7284906E-04
  0.5707071E+00  0.0000000E+00  0.5050505E-02 -0.5491550E-06  0.0000000E+00  0.7176141E-04
  0.5808081E+00  0.0000000E+00  0.5050505E-02 -0.5724321E-06  0.0000000E+00  0.7062679E-04
  0.5909091E+00  0.0000000E+00  0.5050505E-02 -0.5944825E-06  0.0000000E+00  0.6944649E-04
  0.6010101E+00  0.0000000E+00  0.5050505E-02 -0.6144046E-06  0.0000000E+00  0.6822392E-04
  0.6111111E+00  0.0000000E+00  0.5050505E-02 -0.6315871E-06  0.0000000E+00  0.6696401E-04
  0.6212121E+00  0.0000000E+00  0.5050505E-02 -0.6456676E-06  0.0000000E+00  0.6567269E-04
  0.6313131E+00  0.0000000E+00  0.5050505E-02 -0.6564768E-06  0.0000000E+00  0.6435643E-04
  0.6414142E+00  0.0000000E+00  0.5050505E-02 -0.6639849E-06  0.0000000E+00  0.6302186E-04
  0.6515151E+00  0.0000000E+00  0.5050505E-02 -0.6682573E-06  0.0000000E+00  0.6167561E-04
  0.6616161E+00  0.0000000E+00  0.5050505E-02 -0.6694217E-06  0.0000000E+00  0.6032409E-04
  0.6717172E+00  0.0000000E+00  0.5050505E-02 -0.6676450E-06  0.0000000E+00  0.5897341E-04
  0.6818182E+00  0.0000000E+00  0.5050505E-02 -0.6631179E-06  0.0000000E+00  0.5762931E-04
  0.6919192E+00  0.0000000E+00  0.5050505E-02 -0.6560449E-06  0.0000000E+00  0.5629715E-04
  0.7020202E+00  0.0000000E+00  0.5050505E-02 -0.6466378E-06  0.0000000E+00  0.5498185E-04
  0.7121212E+00  0.0000000E+00  0.5050505E-02 -0.6351101E-06  0.0000000E+00  0.5368788E-04
  0.7222222E+00  0.0000000E+00  0.5050505E-02 -0.6216740E-06  0.0000000E+00  0.5241932E-04
  0.7323232E+00  0.0000000E+00  0.5050505E-02 -0.6065368E-06  0.0000000E+00  0.5117978E-04
  0.7424242E+00  0.0000000E+00  0.5050505E-02 -0.5898983E-06  0.0000000E+00  0.4997249E-04
  0.7525253E+00  0.0000000E+00  0.5050505E-02 -0.5719487E-06  0.0000000E+00  0.4880027E-04
  0.7626263E+00  0.0000000E+00  0.5050505E-02 -0.5528660E-06  0.0000000E+00  0.4766557E-04
  0.7727273E+00  0.0000000E+00  0.5050505E-02 -0.5328151E-06  0.0000000E+00  0.4657050E-04
  0.7828283E+00  0.0000000E+00  0.5050505E-02 -0.5119461E-06  0.0000000E+00  0.4551683E-04
  0.7929293E+00  0.0000000E+00  0.5050505E-02 -0.4903936E-06  0.0000000E+00  0.4450607E-04
  0.8030303E+00  0.0000000E+00  0.5050505E-02 -0.4682767E-06  0.0000000E+00  0.4353946E-04
  0.8131313E+00  0.0000000E+00  0.5050505E-02 -0.4456987E-06  0.0000000E+00  0.4261803E-04
  0.8232324E+00  0.0000000E+00  0.5050505E-02 -0.4227478E-06  0.0000000E+00  0.4174258E-04
  0.8333333E+00  0.0000000E+00  0.5050505E-02 -0.3994979E-06  0.0000000E+00  0.4091379E-04
  0.8434343E+00  0.0000000E+00  0.5050505E-02 -0.3760096E-06  0.0000000E+00  0.4013219E-04
  0.8535354E+00  0.0000000E+00  0.5050505E-02 -0.3523318E-06  0.0000000E+00  0.3939819E-04
  0.8636364E+00  0.0000000E+00  0.5050505E-02 -0.3285028E-06  0.0000000E+00  0.3871212E-04
  0.8737374E+00  0.0000000E+00  0.5050505E-02 -0.3045522E-06  0.0000000E+00  0.3807425E-04
  0.8838384E+00  0.0000000E+00  0.5050505E-02 -0.2805021E-06  0.0000000E+00  0.3748479E-04
  0.8939394E+00  0.0000000E+00  0.5050505E-02 -0.2563690E-06  0.0000000E+00  0.3694391E-04
  0.9040404E+00  0.0000000E+00  0.5050505E-02 -0.2321651E-06  0.0000000E+00  0.3645176E-04
  0.9141414E+00  0.0000000E+00  0.5050505E-02 -0.2078992E-06  0.0000000E+00  0.3600846E-04
  0.9242424E+00  0.0000000E+00  0.5050505E-02 -0.1835784E-06  0.0000000E+00  0.3561412E-04
  0.9343435E+00  0.0000000E+00  0.5050505E-02 -0.1592084E-06  0.0000000E+00  0.3526885E-04
  0.9444444E+00  0.0000000E+00  0.5050505E-02 -0.1347946E-06  0.0000000E+00  0.3497272E-04
  0.9545454E+00  0.0000000E+00  0.5050505E-02 -0.1103423E-06  0.0000000E+00  0.3472582E-04
  0.9646465E+00  0.0000000E+00  0.5050505E-02 -0.8585747E-07  0.0000000E+00  0.3452821E-04
  0.9747475E+00  0.0000000E+00  0.5050505E-02 -0.6134630E-07  0.0000000E+00  0.3437996E-04
  0.9848485E+00  0.0000000E+00  0.5050505E-02 -0.3681575E-07  0.0000000E+00  0.3428110E-04
  0.9974747E+00  0.0000000E+00  0.5050505E-02 -0.1227327E-07  0.0000000E+00  0.3423166E-04
  0.5050505E-02  0.0000000E+00  0.1515152E-01  0.1458867E-06  0.0000000E+00  0.6202484E-04
  0.1515152E-01  0.0000000E+00  0.1515152E-01  0.4385014E-06  0.0000000E+00  0.6222188E-04
  0.2525252E-01  0.0000000E+00  0.1515152E-01  0.7336825E-06  0.0000000E+00  0.6261708E-04
  0.3535353E-01  0.0000000E+00  0.1515152E-01  0.1033278E-05  0.0000000E+00  0.6321278E-04
  0.4545455E-01  0.0000000E+00  0.1515152E-01  0.1339353E-05  0.0000000E+00  0.6401259E-04
  0.5555556E-01  0.0000000E+00  0.1515152E-01  0.1654310E-05  0.0000000E+00  0.6502162E-04
  0.6565657E-01  0.0000000E+00  0.1515152E-01  0.1981052E-05  0.0000000E+00  0.6624674E-04
  0.7575758E-01  0.0000000E+00  0.1515152E-01  0.2323211E-05  0.0000000E+00  0.6769691E-04
  0.8585858E-01  0.0000000E+00  0.1515152E-01  0.2685471E-05  0.0000000E+00  0.6938385E-04
  0.9595960E-01  0.0000000E+00  0.1515152E-01  0.3074015E-05  0.0000000E+00  0.7132279E-04
  0.1060606E+00  0.0000000E+00  0.1515152E-01  0.3497151E-05  0.0000000E+00  0.7353377E-04
  0.1161616E+00  0.0000000E+00  0.1515152E-01  0.3966082E-05  0.0000000E+00  0.7604347E-04
  0.1262626E+00  0.0000000E+00  0.1515152E-01  0.4495619E-05  0.0000000E+00  0.7888829E-04
  0.1363636E+00  0.0000000E+00  0.1515152E-01  0.5103744E-05  0.0000000E+00  0.8211951E-04
  0.1464646E+00  0.0000000E+00  0.1515152E-01  0.5805967E-05  0.0000000E+00  0.8581279E-04
  0.1565657E+00  0.0000000E+00  0.1515152E-01  0.6589354E-05  0.0000000E+00  0.9008417E-04
  0.1666667E+00  0.0000000E+00  0.1515152E-01  0.7309950E-05  0.0000000E+00  0.9509525E-04
  0.1767677E+00  0.0000000E+00  0.1515152E-01  0.7294605E-05  0.0000000E+00  0.1008538E-03
  0.1868687E+00  0.0000000E+00  0.1515152E-01  0.3747115E-05  0.0000000E+00  0.1053788E-03
  0.1969697E+00  0.0000000E+00  0.1515152E-01 -0.1297909E-05  0.0000000E+00  0.1058661E-03
  0.2070707E+00  0.0000000E+00  0.1515152E-01 -0.2414364E-05  0.0000000E+00  0.1037508E-03
  0.2171717E+00  0.0000000E+00  0.1515152E-01 -0.2319992E-05  0.0000000E+00  0.1017251E-03
  0.2272727E+00  0.0000000E+00  0.1515152E-01 -0.1918582E-05  0.0000000E+00  0.1001398E-03
  0.2373737E+00  0.0000000E+00  0.1515152E-01 -0.1501015E-05  0.0000000E+00  0.9894793E-04
  0.2474747E+00  0.0000000E+00  0.1515152E-01 -0.1149381E-05  0.0000000E+00  0.9805809E-04
  0.2575758E+00  0.0000000E+00  0.1515152E-01 -0.8768124E-06  0.0000000E+00  0.9739164E-04
  0.2676768E+00  0.0000000E+00  0.1515152E-01 -0.6761819E-06  0.0000000E+00  0.9688713E-04
  0.2777778E+00  0.0000000E+00  0.1515152E-01 -0.5366586E-06  0.0000000E+00  0.9649660E-04
  0.2878788E+00  0.0000000E+00  0.1515152E-01 -0.4488928E-06  0.0000000E+00  0.9618153E-04
  0.2979798E+00  0.0000000E+00  0.1515152E-01 -0.4062697E-06  0.0000000E+00  0.9590960E-04
  0.3080808E+00  0.0000000E+00  0.1515152E-01 -0.4048734E-06  0.0000000E+00  0.9565219E-04
  0.3181818E+00  0.0000000E+00  0.1515152E-01 -0.4430038E-06  0.0000000E+00  0.9538235E-04
  0.3282828E+00  0.0000000E+00  0.1515152E-01 -0.5203716E-06  0.0000000E+00  0.9507336E-04
  0.3383838E+00  0.0000000E+00  0.1515152E-01 -0.6367944E-06  0.0000000E+00  0.9469791E-04
  0.3484848E+00  0.0000000E+00  0.1515152E-01 -0.7901617E-06  0.0000000E+00  0.9422849E-04
  0.3585859E+00  0.0000000E+00  0.1515152E-01 -0.9737195E-06  0.0000000E+00  0.9363967E-04
  0.3686869E+00  0.0000000E+00  0.1515152E-01 -0.1173566E-05  0.0000000E+00  0.9291278E-04
  0.3787879E+00  0.0000000E+00  0.1515152E-01 -0.1368586E-05  0.0000000E+00  0.9204225E-04
  0.3888889E+00  0.0000000E+00  0.1515152E-01 -0.1535495E-05  0.0000000E+00  0.9104024E-04
  0.3989899E+00  0.0000000E+00  0.1515152E-01 -0.1657807E-05  0.0000000E+00  0.8993492E-04
  0.4090909E+00  0.0000000E+00  0.1515152E-01 -0.1729770E-05  0.0000000E+00  0.8876265E-04
  0.4191919E+00  0.0000000E+00  0.1515152E-01 -0.1754783E-05  0.0000000E+00  0.8755973E-04
  0.4292929E+00  0.0000000E+00  0.1515152E-01 -0.1741625E-05  0.0000000E+00  0.8635695E-04
  0.4393939E+00  0.0000000E+00  0.1515152E-01 -0.1701052E-05  0.0000000E+00  0.8517723E-04
  0.4494950E+00  0.0000000E+00  0.1515152E-01 -0.1643635E-05  0.0000000E+00  0.8403550E-04
  0.4595959E+00  0.0000000E+00  0.1515152E-01 -0.1578742E-05  0.0000000E+00  0.8293952E-04
  0.4696970E+00  0.0000000E+00  0.1515152E-01 -0.1514255E-05  0.0000000E+00  0.8189108E-04
  0.4797980E+00  0.0000000E+00  0.1515152E-01 -0.1456628E-05  0.0000000E+00  0.8088707E-04
  0.4898990E+00  0.0000000E+00  0.1515152E-01 -0.1411014E-05  0.0000000E+00  0.7992049E-04
  0.5000000E+00  0.0000000E+00  0.1515152E-01 -0.1381334E-05  0.0000000E+00  0.7898120E-04
  0.5101010E+00  0.0000000E+00  0.1515152E-01 -0.1370208E-05  0.0000000E+00  0.7805684E-04
  0.5202020E+00  0.0000000E+00  0.1515152E-01 -0.1378795E-05  0.0000000E+00  0.7713368E-04
  0.5303030E+00  0.0000000E+00  0.1515152E-01 -0.1406624E-05  0.0000000E+00  0.7619777E-04
  0.5404040E+00  0.0000000E+00  0.1515152E-01 -0.1451547E-05  0.0000000E+00  0.7523608E-04
  0.5505050E+00  0.0000000E+00  0.1515152E-01 -0.1509959E-05  0.0000000E+00  0.7423771E-04
  0.5606061E+00  0.0000000E+00  0.1515152E-01 -0.1577304E-05  0.0000000E+00  0.7319480E-04
  0.5707071E+00  0.0000000E+00  0.1515152E-01 -0.1648761E-05  0.0000000E+00  0.7210295E-04
  0.5808081E+00  0.0000000E+00  0.1515152E-01 -0.1719880E-05  0.0000000E+00  0.7096114E-04
  0.5909091E+00  0.0000000E+00  0.1515152E-01 -0.1787006E-05  0.0000000E+00  0.6977124E-04
  0.6010101E+00  0.0000000E+00  0.1515152E-01 -0.1847431E-05  0.0000000E+00  0.6853731E-04
  0.6111111E+00  0.0000000E+00  0.1515152E-01 -0.1899365E-05  0.0000000E+00  0.6726490E-04
  0.6212121E+00  0.0000000E+00  0.1515152E-01 -0.1941776E-05  0.0000000E+00  0.6596044E-04
  0.6313131E+00  0.0000000E+00  0.1515152E-01 -0.1974213E-05  0.0000000E+00  0.6463078E-04
  0.6414142E+00  0.0000000E+00  0.1515152E-01 -0.1996636E-05  0.0000000E+00  0.6328288E-04
  0.6515151E+00  0.0000000E+00  0.1515152E-01 -0.2009277E-05  0.0000000E+00  0.6192355E-04
  0.6616161E+00  0.0000000E+00  0.1515152E-01 -0.2012545E-05  0.0000000E+00  0.6055935E-04
  0.6717172E+00  0.0000000E+00  0.1515152E-01 -0.2006959E-05  0.0000000E+00  0.5919648E-04
  0.6818182E+00  0.0000000E+00  0.1515152E-01 -0.1993103E-05  0.0000000E+00  0.5784076E-04
  0.6919192E+00  0.0000000E+00  0.1515152E-01 -0.1971601E-05  0.0000000E+00  0.5649757E-04
  0.7020202E+00  0.0000000E+00  0.1515152E-01 -0.1943092E-05  0.0000000E+00  0.5517187E-04
  0.7121212E+00  0.0000000E+00  0.1515152E-01 -0.1908224E-05  0.0000000E+00  0.5386814E-04
  0.7222222E+00  0.0000000E+00  0.1515152E-01 -0.1867636E-05  0.0000000E+00  0.5259046E-04
  0.7323232E+00  0.0000000E+00  0.1515152E-01 -0.1821953E-05  0.0000000E+00  0.5134244E-04
  0.7424242E+00  0.0000000E+00  0.1515152E-01 -0.1771779E-05  0.0000000E+00  0.5012729E-04
  0.7525253E+00  0.0000000E+00  0.1515152E-01 -0.1717686E-05  0.0000000E+00  0.4894782E-04
  0.7626263E+00  0.0000000E+00  0.1515152E-01 -0.1660211E-05  0.0000000E+00  0.4780644E-04
  0.7727273E+00  0.0000000E+00  0.1515152E-01 -0.1599849E-05  0.0000000E+00  0.4670524E-04
  0.7828283E+00  0.0000000E+00  0.1515152E-01 -0.1537051E-05  0.0000000E+00  0.4564597E-04
  0.7929293E+00  0.0000000E+00  0.1515152E-01 -0.1472223E-05  0.0000000E+00  0.4463008E-04
  0.8030303E+00  0.0000000E+00  0.1515152E-01 -0.1405721E-05  0.0000000E+00  0.4365880E-04
  0.8131313E+00  0.0000000E+00  0.1515152E-01 -0.1337854E-05  0.0000000E+00  0.4273309E-04
  0.8232324E+00  0.0000000E+00  0.1515152E-01 -0.1268886E-05  0.0000000E+00  0.4185375E-04
  0.8333333E+00  0.0000000E+00  0.1515152E-01 -0.1199039E-05  0.0000000E+00  0.4102141E-04
  0.8434343E+00  0.0000000E+00  0.1515152E-01 -0.1128491E-05  0.0000000E+00  0.4023657E-04
  0.8535354E+00  0.0000000E+00  0.1515152E-01 -0.1057388E-05  0.0000000E+00  0.3949962E-04
  0.8636364E+00  0.0000000E+00  0.1515152E-01 -0.9858437E-06  0.0000000E+00  0.3881086E-04
  0.8737374E+00  0.0000000E+00  0.1515152E-01 -0.9139440E-06  0.0000000E+00  0.3817055E-04
  0.8838384E+00  0.0000000E+00  0.1515152E-01 -0.8417542E-06  0.0000000E+00  0.3757886E-04
  0.8939394E+00  0.0000000E+00  0.1515152E-01 -0.7693220E-06  0.0000000E+00  0.3703596E-04
  0.9040404E+00  0.0000000E+00  0.1515152E-01 -0.6966821E-06  0.0000000E+00  0.3654199E-04
  0.9141414E+00  0.0000000E+00  0.1515152E-01 -0.6238602E-06  0.0000000E+00  0.3609706E-04
  0.9242424E+00  0.0000000E+00  0.1515152E-01 -0.5508758E-06  0.0000000E+00  0.3570128E-04
  0.9343435E+00  0.0000000E+00  0.1515152E-01 -0.4777457E-06  0.0000000E+00  0.3535475E-04
  0.9444444E+00  0.0000000E+00  0.1515152E-01 -0.4044851E-06  0.0000000E+00  0.3505754E-04
  0.9545454E+00  0.0000000E+00  0.1515152E-01 -0.3311097E-06  0.0000000E+00  0.3480974E-04
  0.9646465E+00  0.0000000E+00  0.1515152E-01 -0.2576367E-06  0.0000000E+00  0.3461141E-04
  0.9747475E+00  0.0000000E+00  0.1515152E-01 -0.1840848E-06  0.0000000E+00  0.3446261E-04
  0.9848485E+00  0.0000000E+00  0.1515152E-01 -0.1104748E-06  0.0000000E+00  0.3436338E-04
  0.9974747E+00  0.0000000E+00  0.1515152E-01 -0.3682898E-07  0.0000000E+00  0.3431376E-04
  0.5050505E-02  0.0000000E+00  0.2525252E-01  0.2428160E-06  0.0000000E+00  0.6212600E-04
  0.1515152E-01  0.0000000E+00  0.2525252E-01  0.7298250E-06  0.0000000E+00  0.6232304E-04
  0.2525252E-01  0.0000000E+00  0.2525252E-01  0.1221030E-05  0.0000000E+00  0.6271819E-04
  0.3535353E-01  0.0000000E+00  0.2525252E-01  0.1719441E-05  0.0000000E+00  0.6331364E-04
  0.4545455E-01  0.0000000E+00  0.2525252E-01  0.2228406E-05  0.0000000E+00  0.6411276E-04
  0.5555556E-01  0.0000000E+00  0.2525252E-01  0.2751802E-05  0.0000000E+00  0.6512031E-04
  0.6565657E-01  0.0000000E+00  0.2525252E-01  0.3294287E-05  0.0000000E+00  0.6634261E-04
  0.7575758E-01  0.0000000E+00  0.2525252E-01  0.3861659E-05  0.0000000E+00  0.6778784E-04
  0.8585858E-01  0.0000000E+00  0.2525252E-01  0.4461368E-05  0.0000000E+00  0.6946654E-04
  0.9595960E-01  0.0000000E+00  0.2525252E-01  0.5103251E-05  0.0000000E+00  0.7139228E-04
  0.1060606E+00  0.0000000E+00  0.2525252E-01  0.5800621E-05  0.0000000E+00  0.7358270E-04
  0.1161616E+00  0.0000000E+00  0.2525252E-01  0.6571903E-05  0.0000000E+00  0.7606127E-04
  0.1262626E+00  0.0000000E+00  0.2525252E-01  0.7443149E-05  0.0000000E+00  0.7886062E-04
  0.1363636E+00  0.0000000E+00  0.2525252E-01  0.8452194E-05  0.0000000E+00  0.8203018E-04
  0.1464646E+00  0.0000000E+00  0.2525252E-01  0.9656393E-05  0.0000000E+00  0.8565776E-04
  0.1565657E+00  0.0000000E+00  0.2525252E-01  0.1115047E-04  0.0000000E+00  0.8994257E-04
  0.1666667E+00  0.0000000E+00  0.2525252E-01  0.1311898E-04  0.0000000E+00  0.9548053E-04
  0.1767677E+00  0.0000000E+00  0.2525252E-01  0.1602211E-04  0.0000000E+00  0.1045040E-03
  0.1868687E+00  0.0000000E+00  0.2525252E-01  0.7851768E-05  0.0000000E+00  0.1130331E-03
  0.1969697E+00  0.0000000E+00  0.2525252E-01 -0.6365506E-05  0.0000000E+00  0.1115740E-03
  0.2070707E+00  0.0000000E+00  0.2525252E-01 -0.5441628E-05  0.0000000E+00  0.1054549E-03
  0.2171717E+00  0.0000000E+00  0.2525252E-01 -0.4289915E-05  0.0000000E+00  0.1023924E-03
  0.2272727E+00  0.0000000E+00  0.2525252E-01 -0.3277360E-05  0.0000000E+00  0.1005858E-03
  0.2373737E+00  0.0000000E+00  0.2525252E-01 -0.2471694E-05  0.0000000E+00  0.9940285E-04
  0.2474747E+00  0.0000000E+00  0.2525252E-01 -0.1857582E-05  0.0000000E+00  0.9858069E-04
  0.2575758E+00  0.0000000E+00  0.2525252E-01 -0.1401740E-05  0.0000000E+00  0.9798951E-04
  0.2676768E+00  0.0000000E+00  0.2525252E-01 -0.1072654E-05  0.0000000E+00  0.9755421E-04
  0.2777778E+00  0.0000000E+00  0.2525252E-01 -0.8456320E-06  0.0000000E+00  0.9722516E-04
  0.2878788E+00  0.0000000E+00  0.2525252E-01 -0.7031285E-06  0.0000000E+00  0.9696570E-04
  0.2979798E+00  0.0000000E+00  0.2525252E-01 -0.6338167E-06  0.0000000E+00  0.9674613E-04
  0.3080808E+00  0.0000000E+00  0.2525252E-01 -0.6315255E-06  0.0000000E+00  0.9654018E-04
  0.3181818E+00  0.0000000E+00  0.2525252E-01 -0.6942498E-06  0.0000000E+00  0.9632252E-04
  0.3282828E+00  0.0000000E+00  0.2525252E-01 -0.8229619E-06  0.0000000E+00  0.9606663E-04
  0.3383838E+00  0.0000000E+00  0.2525252E-01 -0.1019644E-05  0.0000000E+00  0.9574312E-04
  0.3484848E+00  0.0000000E+00  0.2525252E-01 -0.1283771E-05  0.0000000E+00  0.9531900E-04
  0.3585859E+00  0.0000000E+00  0.2525252E-01 -0.1606728E-05  0.0000000E+00  0.9475956E-04
  0.3686869E+00  0.0000000E+00  0.2525252E-01 -0.1965161E-05  0.0000000E+00  0.9403490E-04
  0.3787879E+00  0.0000000E+00  0.2525252E-01 -0.2318033E-05  0.0000000E+00  0.9313194E-04
  0.3888889E+00  0.0000000E+00  0.2525252E-01 -0.2616458E-05  0.0000000E+00  0.9206618E-04
  0.3989899E+00  0.0000000E+00  0.2525252E-01 -0.2828325E-05  0.0000000E+00  0.9087905E-04
  0.4090909E+00  0.0000000E+00  0.2525252E-01 -0.2945564E-05  0.0000000E+00  0.8962197E-04
  0.4191919E+00  0.0000000E+00  0.2525252E-01 -0.2977921E-05  0.0000000E+00  0.8834231E-04
  0.4292929E+00  0.0000000E+00  0.2525252E-01 -0.2943873E-05  0.0000000E+00  0.8707659E-04
  0.4393939E+00  0.0000000E+00  0.2525252E-01 -0.2863894E-05  0.0000000E+00  0.8584943E-04
  0.4494950E+00  0.0000000E+00  0.2525252E-01 -0.2756901E-05  0.0000000E+00  0.8467506E-04
  0.4595959E+00  0.0000000E+00  0.2525252E-01 -0.2638977E-05  0.0000000E+00  0.8355956E-04
  0.4696970E+00  0.0000000E+00  0.2525252E-01 -0.2523319E-05  0.0000000E+00  0.8250273E-04
  0.4797980E+00  0.0000000E+00  0.2525252E-01 -0.2420622E-05  0.0000000E+00  0.8149955E-04
  0.4898990E+00  0.0000000E+00  0.2525252E-01 -0.2339477E-05  0.0000000E+00  0.8054111E-04
  0.5000000E+00  0.0000000E+00  0.2525252E-01 -0.2286528E-05  0.0000000E+00  0.7961536E-04
  0.5101010E+00  0.0000000E+00  0.2525252E-01 -0.2266343E-05  0.0000000E+00  0.7870774E-04
  0.5202020E+00  0.0000000E+00  0.2525252E-01 -0.2281044E-05  0.0000000E+00  0.7780212E-04
  0.5303030E+00  0.0000000E+00  0.2525252E-01 -0.2329870E-05  0.0000000E+00  0.7688192E-04
  0.5404040E+00  0.0000000E+00  0.2525252E-01 -0.2408968E-05  0.0000000E+00  0.7593167E-04
  0.5505050E+00  0.0000000E+00  0.2525252E-01 -0.2511715E-05  0.0000000E+00  0.7493860E-04
  0.5606061E+00  0.0000000E+00  0.2525252E-01 -0.2629706E-05  0.0000000E+00  0.7389386E-04
  0.5707071E+00  0.0000000E+00  0.2525252E-01 -0.2754148E-05  0.0000000E+00  0.7279312E-04
  0.5808081E+00  0.0000000E+00  0.2525252E-01 -0.2877115E-05  0.0000000E+00  0.7163619E-04
  0.5909091E+00  0.0000000E+00  0.2525252E-01 -0.2992300E-05  0.0000000E+00  0.7042627E-04
  0.6010101E+00  0.0000000E+00  0.2525252E-01 -0.3095221E-05  0.0000000E+00  0.6916882E-04
  0.6111111E+00  0.0000000E+00  0.2525252E-01 -0.3183048E-05  0.0000000E+00  0.6787069E-04
  0.6212121E+00  0.0000000E+00  0.2525252E-01 -0.3254274E-05  0.0000000E+00  0.6653935E-04
  0.6313131E+00  0.0000000E+00  0.2525252E-01 -0.3308345E-05  0.0000000E+00  0.6518244E-04
  0.6414142E+00  0.0000000E+00  0.2525252E-01 -0.3345354E-05  0.0000000E+00  0.6380749E-04
  0.6515151E+00  0.0000000E+00  0.2525252E-01 -0.3365811E-05  0.0000000E+00  0.6242169E-04
  0.6616161E+00  0.0000000E+00  0.2525252E-01 -0.3370485E-05  0.0000000E+00  0.6103188E-04
  0.6717172E+00  0.0000000E+00  0.2525252E-01 -0.3360298E-05  0.0000000E+00  0.5964444E-04
  0.6818182E+00  0.0000000E+00  0.2525252E-01 -0.3336265E-05  0.0000000E+00  0.5826529E-04
  0.6919192E+00  0.0000000E+00  0.2525252E-01 -0.3299451E-05  0.0000000E+00  0.5689991E-04
  0.7020202E+00  0.0000000E+00  0.2525252E-01 -0.3250945E-05  0.0000000E+00  0.5555328E-04
  0.7121212E+00  0.0000000E+00  0.2525252E-01 -0.3191839E-05  0.0000000E+00  0.5422992E-04
  0.7222222E+00  0.0000000E+00  0.2525252E-01 -0.3123216E-05  0.0000000E+00  0.5293392E-04
  0.7323232E+00  0.0000000E+00  0.2525252E-01 -0.3046129E-05  0.0000000E+00  0.5166886E-04
  0.7424242E+00  0.0000000E+00  0.2525252E-01 -0.2961593E-05  0.0000000E+00  0.5043794E-04
  0.7525253E+00  0.0000000E+00  0.2525252E-01 -0.2870571E-05  0.0000000E+00  0.4924391E-04
  0.7626263E+00  0.0000000E+00  0.2525252E-01 -0.2773964E-05  0.0000000E+00  0.4808915E-04
  0.7727273E+00  0.0000000E+00  0.2525252E-01 -0.2672605E-05  0.0000000E+00  0.4697566E-04
  0.7828283E+00  0.0000000E+00  0.2525252E-01 -0.2567248E-05  0.0000000E+00  0.4590515E-04
  0.7929293E+00  0.0000000E+00  0.2525252E-01 -0.2458569E-05  0.0000000E+00  0.4487900E-04
  0.8030303E+00  0.0000000E+00  0.2525252E-01 -0.2347165E-05  0.0000000E+00  0.4389834E-04
  0.8131313E+00  0.0000000E+00  0.2525252E-01 -0.2233548E-05  0.0000000E+00  0.4296408E-04
  0.8232324E+00  0.0000000E+00  0.2525252E-01 -0.2118156E-05  0.0000000E+00  0.4207695E-04
  0.8333333E+00  0.0000000E+00  0.2525252E-01 -0.2001352E-05  0.0000000E+00  0.4123751E-04
  0.8434343E+00  0.0000000E+00  0.2525252E-01 -0.1883432E-05  0.0000000E+00  0.4044619E-04
  0.8535354E+00  0.0000000E+00  0.2525252E-01 -0.1764631E-05  0.0000000E+00  0.3970333E-04
  0.8636364E+00  0.0000000E+00  0.2525252E-01 -0.1645132E-05  0.0000000E+00  0.3900919E-04
  0.8737374E+00  0.0000000E+00  0.2525252E-01 -0.1525074E-05  0.0000000E+00  0.3836396E-04
  0.8838384E+00  0.0000000E+00  0.2525252E-01 -0.1404559E-05  0.0000000E+00  0.3776781E-04
  0.8939394E+00  0.0000000E+00  0.2525252E-01 -0.1283661E-05  0.0000000E+00  0.3722087E-04
  0.9040404E+00  0.0000000E+00  0.2525252E-01 -0.1162433E-05  0.0000000E+00  0.3672325E-04
  0.9141414E+00  0.0000000E+00  0.2525252E-01 -0.1040913E-05  0.0000000E+00  0.3627505E-04
  0.9242424E+00  0.0000000E+00  0.2525252E-01 -0.9191310E-06  0.0000000E+00  0.3587638E-04
  0.9343435E+00  0.0000000E+00  0.2525252E-01 -0.7971104E-06  0.0000000E+00  0.3552731E-04
  0.9444444E+00  0.0000000E+00  0.2525252E-01 -0.6748751E-06  0.0000000E+00  0.3522793E-04
  0.9545454E+00  0.0000000E+00  0.2525252E-01 -0.5524498E-06  0.0000000E+00  0.3497832E-04
  0.9646465E+00  0.0000000E+00  0.2525252E-01 -0.4298619E-06  0.0000000E+00  0.3477854E-04
  0.9747475E+00  0.0000000E+00  0.2525252E-01 -0.3071423E-06  0.0000000E+00  0.3462865E-04
  0.9848485E+00  0.0000000E+00  0.2525252E-01 -0.1843254E-06  0.0000000E+00  0.3452869E-04
  0.9974747E+00  0.0000000E+00  0.2525252E-01 -0.6144857E-07  0.0000000E+00  0.3447871E-04
  0.5050505E-02  0.0000000E+00  0.3535353E-01  0.3394955E-06  0.0000000E+00  0.6228059E-04
  0.1515152E-01  0.0000000E+00  0.3535353E-01  0.1020363E-05  0.0000000E+00  0.6247773E-04
  0.2525252E-01  0.0000000E+00  0.3535353E-01  0.1706943E-05  0.0000000E+00  0.6287296E-04
  0.3535353E-01  0.0000000E+00  0.3535353E-01  0.2403312E-05  0.0000000E+00  0.6346829E-04
  0.4545455E-01  0.0000000E+00  0.3535353E-01  0.3113975E-05  0.0000000E+00  0.6426679E-04
  0.5555556E-01  0.0000000E+00  0.3535353E-01  0.3844104E-05  0.0000000E+00  0.6527272E-04
  0.6565657E-01  0.0000000E+00  0.3535353E-01  0.4599863E-05  0.0000000E+00  0.6649165E-04
  0.7575758E-01  0.0000000E+00  0.3535353E-01  0.5388853E-05  0.0000000E+00  0.6793068E-04
  0.8585858E-01  0.0000000E+00  0.3535353E-01  0.6220754E-05  0.0000000E+00  0.6959872E-04
  0.9595960E-01  0.0000000E+00  0.3535353E-01  0.7108267E-05  0.0000000E+00  0.7150689E-04
  0.1060606E+00  0.0000000E+00  0.3535353E-01  0.8068527E-05  0.0000000E+00  0.7366914E-04
  0.1161616E+00  0.0000000E+00  0.3535353E-01  0.9125315E-05  0.0000000E+00  0.7610296E-04
  0.1262626E+00  0.0000000E+00  0.3535353E-01  0.1031280E-04  0.0000000E+00  0.7883057E-04
  0.1363636E+00  0.0000000E+00  0.3535353E-01  0.1168248E-04  0.0000000E+00  0.8187963E-04
  0.1464646E+00  0.0000000E+00  0.3535353E-01  0.1331823E-04  0.0000000E+00  0.8528055E-04
  0.1565657E+00  0.0000000E+00  0.3535353E-01  0.1537424E-04  0.0000000E+00  0.8903998E-04
  0.1666667E+00  0.0000000E+00  0.3535353E-01  0.1818622E-04  0.0000000E+00  0.9298247E-04
  0.1767677E+00  0.0000000E+00  0.3535353E-01  0.2263813E-04  0.0000000E+00  0.9588416E-04
  0.1868687E+00  0.0000000E+00  0.3535353E-01  0.1801550E-04  0.0000000E+00  0.1044428E-03
  0.1969697E+00  0.0000000E+00  0.3535353E-01 -0.1327904E-04  0.0000000E+00  0.1091948E-03
  0.2070707E+00  0.0000000E+00  0.3535353E-01 -0.8851696E-05  0.0000000E+00  0.1047947E-03
  0.2171717E+00  0.0000000E+00  0.3535353E-01 -0.6238759E-05  0.0000000E+00  0.1023878E-03
  0.2272727E+00  0.0000000E+00  0.3535353E-01 -0.4514912E-05  0.0000000E+00  0.1009373E-03
  0.2373737E+00  0.0000000E+00  0.3535353E-01 -0.3311699E-05  0.0000000E+00  0.9999429E-04
  0.2474747E+00  0.0000000E+00  0.3535353E-01 -0.2450253E-05  0.0000000E+00  0.9934932E-04
  0.2575758E+00  0.0000000E+00  0.3535353E-01 -0.1829498E-05  0.0000000E+00  0.9889502E-04
  0.2676768E+00  0.0000000E+00  0.3535353E-01 -0.1387069E-05  0.0000000E+00  0.9856962E-04
  0.2777778E+00  0.0000000E+00  0.3535353E-01 -0.1083025E-05  0.0000000E+00  0.9833286E-04
  0.2878788E+00  0.0000000E+00  0.3535353E-01 -0.8918409E-06  0.0000000E+00  0.9815520E-04
  0.2979798E+00  0.0000000E+00  0.3535353E-01 -0.7980907E-06  0.0000000E+00  0.9801251E-04