title = "dataset water"
variables = "x", "y", "z", "vx", "vy", "vz"
zone t = "velocities, solution time =  5.800E+01 days        " i =   99, j =   99, k =    1,  f=point
  0.5050505E-02  0.0000000E+00  0.5050505E-02  0.1090467E-06  0.0000000E+00  0.1154229E-03
  0.1515152E-01  0.0000000E+00  0.5050505E-02  0.3278890E-06  0.0000000E+00  0.1158673E-03
  0.2525252E-01  0.0000000E+00  0.5050505E-02  0.5490050E-06  0.0000000E+00  0.1167594E-03
  0.3535353E-01  0.0000000E+00  0.5050505E-02  0.7739812E-06  0.0000000E+00  0.1181053E-03
  0.4545455E-01  0.0000000E+00  0.5050505E-02  0.1004505E-05  0.0000000E+00  0.1199149E-03
  0.5555556E-01  0.0000000E+00  0.5050505E-02  0.1242424E-05  0.0000000E+00  0.1222017E-03
  0.6565657E-01  0.0000000E+00  0.5050505E-02  0.1489830E-05  0.0000000E+00  0.1249832E-03
  0.7575758E-01  0.0000000E+00  0.5050505E-02  0.1749208E-05  0.0000000E+00  0.1282817E-03
  0.8585858E-01  0.0000000E+00  0.5050505E-02  0.2023702E-05  0.0000000E+00  0.1321255E-03
  0.9595960E-01  0.0000000E+00  0.5050505E-02  0.2317634E-05  0.0000000E+00  0.1365504E-03
  0.1060606E+00  0.0000000E+00  0.5050505E-02  0.2637573E-05  0.0000000E+00  0.1416037E-03
  0.1161616E+00  0.0000000E+00  0.5050505E-02  0.2994655E-05  0.0000000E+00  0.1473511E-03
  0.1262626E+00  0.0000000E+00  0.5050505E-02  0.3409825E-05  0.0000000E+00  0.1538910E-03
  0.1363636E+00  0.0000000E+00  0.5050505E-02  0.3926271E-05  0.0000000E+00  0.1613883E-03
  0.1464646E+00  0.0000000E+00  0.5050505E-02  0.4640340E-05  0.0000000E+00  0.1701513E-03
  0.1565657E+00  0.0000000E+00  0.5050505E-02  0.5782889E-05  0.0000000E+00  0.1808250E-03
  0.1666667E+00  0.0000000E+00  0.5050505E-02  0.7947548E-05  0.0000000E+00  0.1949043E-03
  0.1767677E+00  0.0000000E+00  0.5050505E-02  0.1277959E-04  0.0000000E+00  0.2161971E-03
  0.1868687E+00  0.0000000E+00  0.5050505E-02 -0.6662308E-05  0.0000000E+00  0.2224757E-03
  0.1969697E+00  0.0000000E+00  0.5050505E-02 -0.3301781E-05  0.0000000E+00  0.2122190E-03
  0.2070707E+00  0.0000000E+00  0.5050505E-02 -0.2078822E-05  0.0000000E+00  0.2066846E-03
  0.2171717E+00  0.0000000E+00  0.5050505E-02 -0.1458470E-05  0.0000000E+00  0.2030479E-03
  0.2272727E+00  0.0000000E+00  0.5050505E-02 -0.1061116E-05  0.0000000E+00  0.2004584E-03
  0.2373737E+00  0.0000000E+00  0.5050505E-02 -0.7717275E-06  0.0000000E+00  0.1985751E-03
  0.2474747E+00  0.0000000E+00  0.5050505E-02 -0.5464999E-06  0.0000000E+00  0.1972208E-03
  0.2575758E+00  0.0000000E+00  0.5050505E-02 -0.3658625E-06  0.0000000E+00  0.1962836E-03
  0.2676768E+00  0.0000000E+00  0.5050505E-02 -0.2197438E-06  0.0000000E+00  0.1956821E-03
  0.2777778E+00  0.0000000E+00  0.5050505E-02 -0.1008249E-06  0.0000000E+00  0.1953528E-03
  0.2878788E+00  0.0000000E+00  0.5050505E-02 -0.4545799E-09  0.0000000E+00  0.1952488E-03
  0.2979798E+00  0.0000000E+00  0.5050505E-02  0.9353066E-07  0.0000000E+00  0.1953444E-03
  0.3080808E+00  0.0000000E+00  0.5050505E-02  0.1967137E-06  0.0000000E+00  0.1956425E-03
  0.3181818E+00  0.0000000E+00  0.5050505E-02  0.3264549E-06  0.0000000E+00  0.1961799E-03
  0.3282828E+00  0.0000000E+00  0.5050505E-02  0.5016170E-06  0.0000000E+00  0.1970305E-03
  0.3383838E+00  0.0000000E+00  0.5050505E-02  0.7441354E-06  0.0000000E+00  0.1983103E-03
  0.3484848E+00  0.0000000E+00  0.5050505E-02  0.1080826E-05  0.0000000E+00  0.2001855E-03
  0.3585859E+00  0.0000000E+00  0.5050505E-02  0.1542341E-05  0.0000000E+00  0.2028814E-03
  0.3686869E+00  0.0000000E+00  0.5050505E-02  0.2155560E-05  0.0000000E+00  0.2066831E-03
  0.3787879E+00  0.0000000E+00  0.5050505E-02  0.2942651E-05  0.0000000E+00  0.2119270E-03
  0.3888889E+00  0.0000000E+00  0.5050505E-02  0.4097352E-05  0.0000000E+00  0.2191728E-03
  0.3989899E+00  0.0000000E+00  0.5050505E-02 -0.8393186E-05  0.0000000E+00  0.2147593E-03
  0.4090909E+00  0.0000000E+00  0.5050505E-02 -0.5871491E-05  0.0000000E+00  0.2000976E-03
  0.4191919E+00  0.0000000E+00  0.5050505E-02 -0.4292490E-05  0.0000000E+00  0.1896644E-03
  0.4292929E+00  0.0000000E+00  0.5050505E-02 -0.3314886E-05  0.0000000E+00  0.1818632E-03
  0.4393939E+00  0.0000000E+00  0.5050505E-02 -0.2684539E-05  0.0000000E+00  0.1757156E-03
  0.4494950E+00  0.0000000E+00  0.5050505E-02 -0.2253569E-05  0.0000000E+00  0.1706587E-03
  0.4595959E+00  0.0000000E+00  0.5050505E-02 -0.1941696E-05  0.0000000E+00  0.1663648E-03
  0.4696970E+00  0.0000000E+00  0.5050505E-02 -0.1706182E-05  0.0000000E+00  0.1626328E-03
  0.4797980E+00  0.0000000E+00  0.5050505E-02 -0.1524446E-05  0.0000000E+00  0.1593291E-03
  0.4898990E+00  0.0000000E+00  0.5050505E-02 -0.1384663E-05  0.0000000E+00  0.1563552E-03
  0.5000000E+00  0.0000000E+00  0.5050505E-02 -0.1280647E-05  0.0000000E+00  0.1536315E-03
  0.5101010E+00  0.0000000E+00  0.5050505E-02 -0.1208880E-05  0.0000000E+00  0.1510882E-03
  0.5202020E+00  0.0000000E+00  0.5050505E-02 -0.1166659E-05  0.0000000E+00  0.1486621E-03
  0.5303030E+00  0.0000000E+00  0.5050505E-02 -0.1150883E-05  0.0000000E+00  0.1462959E-03
  0.5404040E+00  0.0000000E+00  0.5050505E-02 -0.1157384E-05  0.0000000E+00  0.1439398E-03
  0.5505050E+00  0.0000000E+00  0.5050505E-02 -0.1180841E-05  0.0000000E+00  0.1415539E-03
  0.5606061E+00  0.0000000E+00  0.5050505E-02 -0.1215284E-05  0.0000000E+00  0.1391096E-03
  0.5707071E+00  0.0000000E+00  0.5050505E-02 -0.1254935E-05  0.0000000E+00  0.1365905E-03
  0.5808081E+00  0.0000000E+00  0.5050505E-02 -0.1294915E-05  0.0000000E+00  0.1339910E-03
  0.5909091E+00  0.0000000E+00  0.5050505E-02 -0.1331576E-05  0.0000000E+00  0.1313143E-03
  0.6010101E+00  0.0000000E+00  0.5050505E-02 -0.1362489E-05  0.0000000E+00  0.1285696E-03
  0.6111111E+00  0.0000000E+00  0.5050505E-02 -0.1386236E-05  0.0000000E+00  0.1257701E-03
  0.6212121E+00  0.0000000E+00  0.5050505E-02 -0.1402149E-05  0.0000000E+00  0.1229313E-03
  0.6313131E+00  0.0000000E+00  0.5050505E-02 -0.1410082E-05  0.0000000E+00  0.1200692E-03
  0.6414142E+00  0.0000000E+00  0.5050505E-02 -0.1410238E-05  0.0000000E+00  0.1171998E-03
  0.6515151E+00  0.0000000E+00  0.5050505E-02 -0.1403046E-05  0.0000000E+00  0.1143386E-03
  0.6616161E+00  0.0000000E+00  0.5050505E-02 -0.1389075E-05  0.0000000E+00  0.1114999E-03
  0.6717172E+00  0.0000000E+00  0.5050505E-02 -0.1368982E-05  0.0000000E+00  0.1086968E-03
  0.6818182E+00  0.0000000E+00  0.5050505E-02 -0.1343463E-05  0.0000000E+00  0.1059410E-03
  0.6919192E+00  0.0000000E+00  0.5050505E-02 -0.1313230E-05  0.0000000E+00  0.1032427E-03
  0.7020202E+00  0.0000000E+00  0.5050505E-02 -0.1278982E-05  0.0000000E+00  0.1006107E-03
  0.7121212E+00  0.0000000E+00  0.5050505E-02 -0.1241394E-05  0.0000000E+00  0.9805252E-04
  0.7222222E+00  0.0000000E+00  0.5050505E-02 -0.1201098E-05  0.0000000E+00  0.9557410E-04
  0.7323232E+00  0.0000000E+00  0.5050505E-02 -0.1158683E-05  0.0000000E+00  0.9318031E-04
  0.7424242E+00  0.0000000E+00  0.5050505E-02 -0.1114682E-05  0.0000000E+00  0.9087483E-04
  0.7525253E+00  0.0000000E+00  0.5050505E-02 -0.1069570E-05  0.0000000E+00  0.8866032E-04
  0.7626263E+00  0.0000000E+00  0.5050505E-02 -0.1023762E-05  0.0000000E+00  0.8653853E-04
  0.7727273E+00  0.0000000E+00  0.5050505E-02 -0.9776095E-06  0.0000000E+00  0.8451046E-04
  0.7828283E+00  0.0000000E+00  0.5050505E-02 -0.9314019E-06  0.0000000E+00  0.8257644E-04
  0.7929293E+00  0.0000000E+00  0.5050505E-02 -0.8853659E-06  0.0000000E+00  0.8073629E-04
  0.8030303E+00  0.0000000E+00  0.5050505E-02 -0.8396676E-06  0.0000000E+00  0.7898942E-04
  0.8131313E+00  0.0000000E+00  0.5050505E-02 -0.7944159E-06  0.0000000E+00  0.7733499E-04
  0.8232324E+00  0.0000000E+00  0.5050505E-02 -0.7496676E-06  0.0000000E+00  0.7577197E-04
  0.8333333E+00  0.0000000E+00  0.5050505E-02 -0.7054343E-06  0.0000000E+00  0.7429930E-04
  0.8434343E+00  0.0000000E+00  0.5050505E-02 -0.6616902E-06  0.0000000E+00  0.7291589E-04
  0.8535354E+00  0.0000000E+00  0.5050505E-02 -0.6183811E-06  0.0000000E+00  0.7162079E-04
  0.8636364E+00  0.0000000E+00  0.5050505E-02 -0.5754341E-06  0.0000000E+00  0.7041313E-04
  0.8737374E+00  0.0000000E+00  0.5050505E-02 -0.5327663E-06  0.0000000E+00  0.6929223E-04
  0.8838384E+00  0.0000000E+00  0.5050505E-02 -0.4902928E-06  0.0000000E+00  0.6825758E-04
  0.8939394E+00  0.0000000E+00  0.5050505E-02 -0.4479336E-06  0.0000000E+00  0.6730883E-04
  0.9040404E+00  0.0000000E+00  0.5050505E-02 -0.4056178E-06  0.0000000E+00  0.6644580E-04
  0.9141414E+00  0.0000000E+00  0.5050505E-02 -0.3632873E-06  0.0000000E+00  0.6566842E-04
  0.9242424E+00  0.0000000E+00  0.5050505E-02 -0.3208980E-06  0.0000000E+00  0.6497676E-04
  0.9343435E+00  0.0000000E+00  0.5050505E-02 -0.2784198E-06  0.0000000E+00  0.6437094E-04
  0.9444444E+00  0.0000000E+00  0.5050505E-02 -0.2358363E-06  0.0000000E+00  0.6385114E-04
  0.9545454E+00  0.0000000E+00  0.5050505E-02 -0.1931432E-06  0.0000000E+00  0.6341756E-04
  0.9646465E+00  0.0000000E+00  0.5050505E-02 -0.1503463E-06  0.0000000E+00  0.6307039E-04
  0.9747475E+00  0.0000000E+00  0.5050505E-02 -0.1074600E-06  0.0000000E+00  0.6280984E-04
  0.9848485E+00  0.0000000E+00  0.5050505E-02 -0.6450491E-07  0.0000000E+00  0.6263605E-04
  0.9974747E+00  0.0000000E+00  0.5050505E-02 -0.2150659E-07  0.0000000E+00  0.6254912E-04
  0.5050505E-02  0.0000000E+00  0.1515152E-01  0.3265230E-06  0.0000000E+00  0.1153524E-03
  0.1515152E-01  0.0000000E+00  0.1515152E-01  0.9818092E-06  0.0000000E+00  0.1157956E-03
  0.2525252E-01  0.0000000E+00  0.1515152E-01  0.1643889E-05  0.0000000E+00  0.1166852E-03
  0.3535353E-01  0.0000000E+00  0.1515152E-01  0.2317489E-05  0.0000000E+00  0.1180273E-03
  0.4545455E-01  0.0000000E+00  0.1515152E-01  0.3007624E-05  0.0000000E+00  0.1198316E-03
  0.5555556E-01  0.0000000E+00  0.1515152E-01  0.3719755E-05  0.0000000E+00  0.1221112E-03
  0.6565657E-01  0.0000000E+00  0.1515152E-01  0.4460023E-05  0.0000000E+00  0.1248831E-03
  0.7575758E-01  0.0000000E+00  0.1515152E-01  0.5235625E-05  0.0000000E+00  0.1281687E-03
  0.8585858E-01  0.0000000E+00  0.1515152E-01  0.6055486E-05  0.0000000E+00  0.1319945E-03
  0.9595960E-01  0.0000000E+00  0.1515152E-01  0.6931515E-05  0.0000000E+00  0.1363932E-03
  0.1060606E+00  0.0000000E+00  0.1515152E-01  0.7881131E-05  0.0000000E+00  0.1414053E-03
  0.1161616E+00  0.0000000E+00  0.1515152E-01  0.8932561E-05  0.0000000E+00  0.1470821E-03
  0.1262626E+00  0.0000000E+00  0.1515152E-01  0.1013642E-04  0.0000000E+00  0.1534902E-03
  0.1363636E+00  0.0000000E+00  0.1515152E-01  0.1159195E-04  0.0000000E+00  0.1607186E-03
  0.1464646E+00  0.0000000E+00  0.1515152E-01  0.1350870E-04  0.0000000E+00  0.1688876E-03
  0.1565657E+00  0.0000000E+00  0.1515152E-01  0.1635673E-04  0.0000000E+00  0.1781443E-03
  0.1666667E+00  0.0000000E+00  0.1515152E-01  0.2124706E-04  0.0000000E+00  0.1885688E-03
  0.1767677E+00  0.0000000E+00  0.1515152E-01  0.3093140E-04  0.0000000E+00  0.1996146E-03
  0.1868687E+00  0.0000000E+00  0.1515152E-01 -0.1113205E-04  0.0000000E+00  0.2073881E-03
  0.1969697E+00  0.0000000E+00  0.1515152E-01 -0.7814372E-05  0.0000000E+00  0.2083649E-03
  0.2070707E+00  0.0000000E+00  0.1515152E-01 -0.5642534E-05  0.0000000E+00  0.2055764E-03
  0.2171717E+00  0.0000000E+00  0.1515152E-01 -0.4153859E-05  0.0000000E+00  0.2027671E-03
  0.2272727E+00  0.0000000E+00  0.1515152E-01 -0.3075706E-05  0.0000000E+00  0.2005078E-03
  0.2373737E+00  0.0000000E+00  0.1515152E-01 -0.2251239E-05  0.0000000E+00  0.1987947E-03
  0.2474747E+00  0.0000000E+00  0.1515152E-01 -0.1595034E-05  0.0000000E+00  0.1975473E-03
  0.2575758E+00  0.0000000E+00  0.1515152E-01 -0.1062992E-05  0.0000000E+00  0.1966881E-03
  0.2676768E+00  0.0000000E+00  0.1515152E-01 -0.6316783E-06  0.0000000E+00  0.1961484E-03
  0.2777778E+00  0.0000000E+00  0.1515152E-01 -0.2832356E-06  0.0000000E+00  0.1958661E-03
  0.2878788E+00  0.0000000E+00  0.1515152E-01  0.6158310E-08  0.0000000E+00  0.1957892E-03
  0.2979798E+00  0.0000000E+00  0.1515152E-01  0.2731975E-06  0.0000000E+00  0.1958853E-03
  0.3080808E+00  0.0000000E+00  0.1515152E-01  0.5664490E-06  0.0000000E+00  0.1961525E-03
  0.3181818E+00  0.0000000E+00  0.1515152E-01  0.9385652E-06  0.0000000E+00  0.1966254E-03
  0.3282828E+00  0.0000000E+00  0.1515152E-01  0.1445033E-05  0.0000000E+00  0.1973756E-03
  0.3383838E+00  0.0000000E+00  0.1515152E-01  0.2150566E-05  0.0000000E+00  0.1985141E-03
  0.3484848E+00  0.0000000E+00  0.1515152E-01  0.3137734E-05  0.0000000E+00  0.2002036E-03
  0.3585859E+00  0.0000000E+00  0.1515152E-01  0.4507660E-05  0.0000000E+00  0.2026776E-03
  0.3686869E+00  0.0000000E+00  0.1515152E-01  0.6344372E-05  0.0000000E+00  0.2062423E-03
  0.3787879E+00  0.0000000E+00  0.1515152E-01  0.8545646E-05  0.0000000E+00  0.2110848E-03
  0.3888889E+00  0.0000000E+00  0.1515152E-01  0.1017263E-04  0.0000000E+00  0.2158781E-03
  0.3989899E+00  0.0000000E+00  0.1515152E-01 -0.2442257E-04  0.0000000E+00  0.2100631E-03
  0.4090909E+00  0.0000000E+00  0.1515152E-01 -0.1678194E-04  0.0000000E+00  0.1970141E-03
  0.4191919E+00  0.0000000E+00  0.1515152E-01 -0.1234037E-04  0.0000000E+00  0.1879655E-03
  0.4292929E+00  0.0000000E+00  0.1515152E-01 -0.9635395E-05  0.0000000E+00  0.1810137E-03
  0.4393939E+00  0.0000000E+00  0.1515152E-01 -0.7877744E-05  0.0000000E+00  0.1753474E-03
  0.4494950E+00  0.0000000E+00  0.1515152E-01 -0.6657051E-05  0.0000000E+00  0.1705631E-03
  0.4595959E+00  0.0000000E+00  0.1515152E-01 -0.5759527E-05  0.0000000E+00  0.1664304E-03
  0.4696970E+00  0.0000000E+00  0.1515152E-01 -0.5072765E-05  0.0000000E+00  0.1628018E-03
  0.4797980E+00  0.0000000E+00  0.1515152E-01 -0.4537586E-05  0.0000000E+00  0.1595718E-03
  0.4898990E+00  0.0000000E+00  0.1515152E-01 -0.4123213E-05  0.0000000E+00  0.1566573E-03
  0.5000000E+00  0.0000000E+00  0.1515152E-01 -0.3813806E-05  0.0000000E+00  0.1539857E-03
  0.5101010E+00  0.0000000E+00  0.1515152E-01 -0.3600539E-05  0.0000000E+00  0.1514903E-03
  0.5202020E+00  0.0000000E+00  0.1515152E-01 -0.3476436E-05  0.0000000E+00  0.1491076E-03
  0.5303030E+00  0.0000000E+00  0.1515152E-01 -0.3432825E-05  0.0000000E+00  0.1467786E-03
  0.5404040E+00  0.0000000E+00  0.1515152E-01 -0.3457262E-05  0.0000000E+00  0.1444510E-03
  0.5505050E+00  0.0000000E+00  0.1515152E-01 -0.3533278E-05  0.0000000E+00  0.1420826E-03
  0.5606061E+00  0.0000000E+00  0.1515152E-01 -0.3642143E-05  0.0000000E+00  0.1396443E-03
  0.5707071E+00  0.0000000E+00  0.1515152E-01 -0.3765811E-05  0.0000000E+00  0.1371206E-03
  0.5808081E+00  0.0000000E+00  0.1515152E-01 -0.3889302E-05  0.0000000E+00  0.1345079E-03
  0.5909091E+00  0.0000000E+00  0.1515152E-01 -0.4001677E-05  0.0000000E+00  0.1318117E-03
  0.6010101E+00  0.0000000E+00  0.1515152E-01 -0.4095838E-05  0.0000000E+00  0.1290436E-03
  0.6111111E+00  0.0000000E+00  0.1515152E-01 -0.4167769E-05  0.0000000E+00  0.1262184E-03
  0.6212121E+00  0.0000000E+00  0.1515152E-01 -0.4215680E-05  0.0000000E+00  0.1233530E-03
  0.6313131E+00  0.0000000E+00  0.1515152E-01 -0.4239295E-05  0.0000000E+00  0.1204642E-03
  0.6414142E+00  0.0000000E+00  0.1515152E-01 -0.4239339E-05  0.0000000E+00  0.1175689E-03
  0.6515151E+00  0.0000000E+00  0.1515152E-01 -0.4217176E-05  0.0000000E+00  0.1146828E-03
  0.6616161E+00  0.0000000E+00  0.1515152E-01 -0.4174576E-05  0.0000000E+00  0.1118206E-03
  0.6717172E+00  0.0000000E+00  0.1515152E-01 -0.4113546E-05  0.0000000E+00  0.1089955E-03
  0.6818182E+00  0.0000000E+00  0.1515152E-01 -0.4036214E-05  0.0000000E+00  0.1062195E-03
  0.6919192E+00  0.0000000E+00  0.1515152E-01 -0.3944736E-05  0.0000000E+00  0.1035027E-03
  0.7020202E+00  0.0000000E+00  0.1515152E-01 -0.3841232E-05  0.0000000E+00  0.1008540E-03
  0.7121212E+00  0.0000000E+00  0.1515152E-01 -0.3727739E-05  0.0000000E+00  0.9828082E-04
  0.7222222E+00  0.0000000E+00  0.1515152E-01 -0.3606172E-05  0.0000000E+00  0.9578905E-04
  0.7323232E+00  0.0000000E+00  0.1515152E-01 -0.3478302E-05  0.0000000E+00  0.9338346E-04
  0.7424242E+00  0.0000000E+00  0.1515152E-01 -0.3345734E-05  0.0000000E+00  0.9106762E-04
  0.7525253E+00  0.0000000E+00  0.1515152E-01 -0.3209900E-05  0.0000000E+00  0.8884407E-04
  0.7626263E+00  0.0000000E+00  0.1515152E-01 -0.3072047E-05  0.0000000E+00  0.8671443E-04
  0.7727273E+00  0.0000000E+00  0.1515152E-01 -0.2933231E-05  0.0000000E+00  0.8467955E-04
  0.7828283E+00  0.0000000E+00  0.1515152E-01 -0.2794322E-05  0.0000000E+00  0.8273963E-04
  0.7929293E+00  0.0000000E+00  0.1515152E-01 -0.2655996E-05  0.0000000E+00  0.8089433E-04
  0.8030303E+00  0.0000000E+00  0.1515152E-01 -0.2518750E-05  0.0000000E+00  0.7914294E-04
  0.8131313E+00  0.0000000E+00  0.1515152E-01 -0.2382903E-05  0.0000000E+00  0.7748447E-04
  0.8232324E+00  0.0000000E+00  0.1515152E-01 -0.2248620E-05  0.0000000E+00  0.7591780E-04
  0.8333333E+00  0.0000000E+00  0.1515152E-01 -0.2115926E-05  0.0000000E+00  0.7444175E-04
  0.8434343E+00  0.0000000E+00  0.1515152E-01 -0.1984733E-05  0.0000000E+00  0.7305516E-04
  0.8535354E+00  0.0000000E+00  0.1515152E-01 -0.1854868E-05  0.0000000E+00  0.7175701E-04
  0.8636364E+00  0.0000000E+00  0.1515152E-01 -0.1726102E-05  0.0000000E+00  0.7054640E-04
  0.8737374E+00  0.0000000E+00  0.1515152E-01 -0.1598179E-05  0.0000000E+00  0.6942263E-04
  0.8838384E+00  0.0000000E+00  0.1515152E-01 -0.1470835E-05  0.0000000E+00  0.6838519E-04
  0.8939394E+00  0.0000000E+00  0.1515152E-01 -0.1343824E-05  0.0000000E+00  0.6743374E-04
  0.9040404E+00  0.0000000E+00  0.1515152E-01 -0.1216931E-05  0.0000000E+00  0.6656813E-04
  0.9141414E+00  0.0000000E+00  0.1515152E-01 -0.1089980E-05  0.0000000E+00  0.6578832E-04
  0.9242424E+00  0.0000000E+00  0.1515152E-01 -0.9628365E-06  0.0000000E+00  0.6509440E-04
  0.9343435E+00  0.0000000E+00  0.1515152E-01 -0.8354125E-06  0.0000000E+00  0.6448652E-04
  0.9444444E+00  0.0000000E+00  0.1515152E-01 -0.7076599E-06  0.0000000E+00  0.6396490E-04
  0.9545454E+00  0.0000000E+00  0.1515152E-01 -0.5795674E-06  0.0000000E+00  0.6352976E-04
  0.9646465E+00  0.0000000E+00  0.1515152E-01 -0.4511547E-06  0.0000000E+00  0.6318132E-04
  0.9747475E+00  0.0000000E+00  0.1515152E-01 -0.3224670E-06  0.0000000E+00  0.6291980E-04
  0.9848485E+00  0.0000000E+00  0.1515152E-01 -0.1935687E-06  0.0000000E+00  0.6274535E-04
  0.9974747E+00  0.0000000E+00  0.1515152E-01 -0.6453799E-07  0.0000000E+00  0.6265809E-04
  0.5050505E-02  0.0000000E+00  0.2525252E-01  0.5425013E-06  0.0000000E+00  0.1152180E-03
  0.1515152E-01  0.0000000E+00  0.2525252E-01  0.1631212E-05  0.0000000E+00  0.1156590E-03
  0.2525252E-01  0.0000000E+00  0.2525252E-01  0.2731149E-05  0.0000000E+00  0.1165439E-03
  0.3535353E-01  0.0000000E+00  0.2525252E-01  0.3850092E-05  0.0000000E+00  0.1178787E-03
  0.4545455E-01  0.0000000E+00  0.2525252E-01  0.4996257E-05  0.0000000E+00  0.1196728E-03
  0.5555556E-01  0.0000000E+00  0.2525252E-01  0.6178517E-05  0.0000000E+00  0.1219386E-03
  0.6565657E-01  0.0000000E+00  0.2525252E-01  0.7406713E-05  0.0000000E+00  0.1246925E-03
  0.7575758E-01  0.0000000E+00  0.2525252E-01  0.8692126E-05  0.0000000E+00  0.1279543E-03
  0.8585858E-01  0.0000000E+00  0.2525252E-01  0.1004824E-04  0.0000000E+00  0.1317479E-03
  0.9595960E-01  0.0000000E+00  0.2525252E-01  0.1149205E-04  0.0000000E+00  0.1361013E-03
  0.1060606E+00  0.0000000E+00  0.2525252E-01  0.1304662E-04  0.0000000E+00  0.1410458E-03
  0.1161616E+00  0.0000000E+00  0.2525252E-01  0.1474580E-04  0.0000000E+00  0.1466140E-03
  0.1262626E+00  0.0000000E+00  0.2525252E-01  0.1664404E-04  0.0000000E+00  0.1528336E-03
  0.1363636E+00  0.0000000E+00  0.2525252E-01  0.1883611E-04  0.0000000E+00  0.1597099E-03
  0.1464646E+00  0.0000000E+00  0.2525252E-01  0.2149767E-04  0.0000000E+00  0.1671791E-03
  0.1565657E+00  0.0000000E+00  0.2525252E-01  0.2496674E-04  0.0000000E+00  0.1749827E-03
  0.1666667E+00  0.0000000E+00  0.2525252E-01  0.2989822E-04  0.0000000E+00  0.1823313E-03
  0.1767677E+00  0.0000000E+00  0.2525252E-01  0.3751172E-04  0.0000000E+00  0.1870347E-03
  0.1868687E+00  0.0000000E+00  0.2525252E-01  0.2193721E-05  0.0000000E+00  0.1997537E-03
  0.1969697E+00  0.0000000E+00  0.2525252E-01 -0.1118844E-04  0.0000000E+00  0.2089441E-03
  0.2070707E+00  0.0000000E+00  0.2525252E-01 -0.8526572E-05  0.0000000E+00  0.2052559E-03
  0.2171717E+00  0.0000000E+00  0.2525252E-01 -0.6442175E-05  0.0000000E+00  0.2027168E-03
  0.2272727E+00  0.0000000E+00  0.2525252E-01 -0.4840338E-05  0.0000000E+00  0.2007873E-03
  0.2373737E+00  0.0000000E+00  0.2525252E-01 -0.3565897E-05  0.0000000E+00  0.1993186E-03
  0.2474747E+00  0.0000000E+00  0.2525252E-01 -0.2521887E-05  0.0000000E+00  0.1982502E-03
  0.2575758E+00  0.0000000E+00  0.2525252E-01 -0.1660598E-05  0.0000000E+00  0.1975342E-03
  0.2676768E+00  0.0000000E+00  0.2525252E-01 -0.9605697E-06  0.0000000E+00  0.1971164E-03
  0.2777778E+00  0.0000000E+00  0.2525252E-01 -0.4050121E-06  0.0000000E+00  0.1969327E-03
  0.2878788E+00  0.0000000E+00  0.2525252E-01  0.3833439E-07  0.0000000E+00  0.1969166E-03
  0.2979798E+00  0.0000000E+00  0.2525252E-01  0.4320674E-06  0.0000000E+00  0.1970178E-03
  0.3080808E+00  0.0000000E+00  0.2525252E-01  0.8660545E-06  0.0000000E+00  0.1972245E-03
  0.3181818E+00  0.0000000E+00  0.2525252E-01  0.1430408E-05  0.0000000E+00  0.1975696E-03
  0.3282828E+00  0.0000000E+00  0.2525252E-01  0.2212263E-05  0.0000000E+00  0.1981210E-03
  0.3383838E+00  0.0000000E+00  0.2525252E-01  0.3312621E-05  0.0000000E+00  0.1989766E-03
  0.3484848E+00  0.0000000E+00  0.2525252E-01  0.4872339E-05  0.0000000E+00  0.2002809E-03
  0.3585859E+00  0.0000000E+00  0.2525252E-01  0.7103095E-05  0.0000000E+00  0.2022816E-03
  0.3686869E+00  0.0000000E+00  0.2525252E-01  0.1031867E-04  0.0000000E+00  0.2055044E-03
  0.3787879E+00  0.0000000E+00  0.2525252E-01  0.1493236E-04  0.0000000E+00  0.2113614E-03
  0.3888889E+00  0.0000000E+00  0.2525252E-01  0.5413805E-05  0.0000000E+00  0.2082971E-03
  0.3989899E+00  0.0000000E+00  0.2525252E-01 -0.3556671E-04  0.0000000E+00  0.1977442E-03
  0.4090909E+00  0.0000000E+00  0.2525252E-01 -0.2482073E-04  0.0000000E+00  0.1909983E-03
  0.4191919E+00  0.0000000E+00  0.2525252E-01 -0.1883938E-04  0.0000000E+00  0.1850581E-03
  0.4292929E+00  0.0000000E+00  0.2525252E-01 -0.1512180E-04  0.0000000E+00  0.1796642E-03
  0.4393939E+00  0.0000000E+00  0.2525252E-01 -0.1260686E-04  0.0000000E+00  0.1748161E-03
  0.4494950E+00  0.0000000E+00  0.2525252E-01 -0.1078755E-04  0.0000000E+00  0.1704874E-03
  0.4595959E+00  0.0000000E+00  0.2525252E-01 -0.9403389E-05  0.0000000E+00  0.1666275E-03
  0.4696970E+00  0.0000000E+00  0.2525252E-01 -0.8316192E-05  0.0000000E+00  0.1631785E-03
  0.4797980E+00  0.0000000E+00  0.2525252E-01 -0.7452816E-05  0.0000000E+00  0.1600820E-03
  0.4898990E+00  0.0000000E+00  0.2525252E-01 -0.6775826E-05  0.0000000E+00  0.1572788E-03
  0.5000000E+00  0.0000000E+00  0.2525252E-01 -0.6267022E-05  0.0000000E+00  0.1547087E-03
  0.5101010E+00  0.0000000E+00  0.2525252E-01 -0.5917064E-05  0.0000000E+00  0.1523088E-03
  0.5202020E+00  0.0000000E+00  0.2525252E-01 -0.5718022E-05  0.0000000E+00  0.1500147E-03
  0.5303030E+00  0.0000000E+00  0.2525252E-01 -0.5657602E-05  0.0000000E+00  0.1477625E-03
  0.5404040E+00  0.0000000E+00  0.2525252E-01 -0.5715275E-05  0.0000000E+00  0.1454935E-03
  0.5505050E+00  0.0000000E+00  0.2525252E-01 -0.5861656E-05  0.0000000E+00  0.1431607E-03
  0.5606061E+00  0.0000000E+00  0.2525252E-01 -0.6062320E-05  0.0000000E+00  0.1407333E-03
  0.5707071E+00  0.0000000E+00  0.2525252E-01 -0.6284579E-05  0.0000000E+00  0.1381981E-03
  0.5808081E+00  0.0000000E+00  0.2525252E-01 -0.6502346E-05  0.0000000E+00  0.1355564E-03
  0.5909091E+00  0.0000000E+00  0.2525252E-01 -0.6697522E-05  0.0000000E+00  0.1328188E-03
  0.6010101E+00  0.0000000E+00  0.2525252E-01 -0.6859037E-05  0.0000000E+00  0.1300017E-03
  0.6111111E+00  0.0000000E+00  0.2525252E-01 -0.6981068E-05  0.0000000E+00  0.1271235E-03
  0.6212121E+00  0.0000000E+00  0.2525252E-01 -0.7061363E-05  0.0000000E+00  0.1242035E-03
  0.6313131E+00  0.0000000E+00  0.2525252E-01 -0.7100004E-05  0.0000000E+00  0.1212605E-03
  0.6414142E+00  0.0000000E+00  0.2525252E-01 -0.7098567E-05  0.0000000E+00  0.1183123E-03
  0.6515151E+00  0.0000000E+00  0.2525252E-01 -0.7059586E-05  0.0000000E+00  0.1153758E-03
  0.6616161E+00  0.0000000E+00  0.2525252E-01 -0.6986194E-05  0.0000000E+00  0.1124660E-03
  0.6717172E+00  0.0000000E+00  0.2525252E-01 -0.6881878E-05  0.0000000E+00  0.1095967E-03
  0.6818182E+00  0.0000000E+00  0.2525252E-01 -0.6750292E-05  0.0000000E+00  0.1067798E-03
  0.6919192E+00  0.0000000E+00  0.2525252E-01 -0.6595116E-05  0.0000000E+00  0.1040258E-03
  0.7020202E+00  0.0000000E+00  0.2525252E-01 -0.6419954E-05  0.0000000E+00  0.1013435E-03
  0.7121212E+00  0.0000000E+00  0.2525252E-01 -0.6228253E-05  0.0000000E+00  0.9874010E-04
  0.7222222E+00  0.0000000E+00  0.2525252E-01 -0.6023245E-05  0.0000000E+00  0.9622149E-04
  0.7323232E+00  0.0000000E+00  0.2525252E-01 -0.5807913E-05  0.0000000E+00  0.9379220E-04
  0.7424242E+00  0.0000000E+00  0.2525252E-01 -0.5584955E-05  0.0000000E+00  0.9145558E-04
  0.7525253E+00  0.0000000E+00  0.2525252E-01 -0.5356774E-05  0.0000000E+00  0.8921392E-04
  0.7626263E+00  0.0000000E+00  0.2525252E-01 -0.5125458E-05  0.0000000E+00  0.8706857E-04
  0.7727273E+00  0.0000000E+00  0.2525252E-01 -0.4892778E-05  0.0000000E+00  0.8502009E-04
  0.7828283E+00  0.0000000E+00  0.2525252E-01 -0.4660179E-05  0.0000000E+00  0.8306838E-04
  0.7929293E+00  0.0000000E+00  0.2525252E-01 -0.4428788E-05  0.0000000E+00  0.8121281E-04
  0.8030303E+00  0.0000000E+00  0.2525252E-01 -0.4199418E-05  0.0000000E+00  0.7945240E-04
  0.8131313E+00  0.0000000E+00  0.2525252E-01 -0.3972586E-05  0.0000000E+00  0.7778590E-04
  0.8232324E+00  0.0000000E+00  0.2525252E-01 -0.3748538E-05  0.0000000E+00  0.7621193E-04
  0.8333333E+00  0.0000000E+00  0.2525252E-01 -0.3527287E-05  0.0000000E+00  0.7472911E-04
  0.8434343E+00  0.0000000E+00  0.2525252E-01 -0.3308652E-05  0.0000000E+00  0.7333614E-04
  0.8535354E+00  0.0000000E+00  0.2525252E-01 -0.3092309E-05  0.0000000E+00  0.7203185E-04
  0.8636364E+00  0.0000000E+00  0.2525252E-01 -0.2877842E-05  0.0000000E+00  0.7081530E-04
  0.8737374E+00  0.0000000E+00  0.2525252E-01 -0.2664789E-05  0.0000000E+00  0.6968573E-04
  0.8838384E+00  0.0000000E+00  0.2525252E-01 -0.2452689E-05  0.0000000E+00  0.6864263E-04
  0.8939394E+00  0.0000000E+00  0.2525252E-01 -0.2241113E-05  0.0000000E+00  0.6768571E-04
  0.9040404E+00  0.0000000E+00  0.2525252E-01 -0.2029688E-05  0.0000000E+00  0.6681485E-04
  0.9141414E+00  0.0000000E+00  0.2525252E-01 -0.1818114E-05  0.0000000E+00  0.6603009E-04
  0.9242424E+00  0.0000000E+00  0.2525252E-01 -0.1606169E-05  0.0000000E+00  0.6533156E-04
  0.9343435E+00  0.0000000E+00  0.2525252E-01 -0.1393706E-05  0.0000000E+00  0.6471951E-04
  0.9444444E+00  0.0000000E+00  0.2525252E-01 -0.1180652E-05  0.0000000E+00  0.6419419E-04
  0.9545454E+00  0.0000000E+00  0.2525252E-01 -0.9669924E-06  0.0000000E+00  0.6375588E-04
  0.9646465E+00  0.0000000E+00  0.2525252E-01 -0.7527690E-06  0.0000000E+00  0.6340486E-04
  0.9747475E+00  0.0000000E+00  0.2525252E-01 -0.5380640E-06  0.0000000E+00  0.6314137E-04
  0.9848485E+00  0.0000000E+00  0.2525252E-01 -0.3229919E-06  0.0000000E+00  0.6296559E-04
  0.9974747E+00  0.0000000E+00  0.2525252E-01 -0.1076901E-06  0.0000000E+00  0.6287766E-04
  0.5050505E-02  0.0000000E+00  0.3535353E-01  0.7564794E-06  0.0000000E+00  0.1150267E-03
  0.1515152E-01  0.0000000E+00  0.3535353E-01  0.2274571E-05  0.0000000E+00  0.1154644E-03
  0.2525252E-01  0.0000000E+00  0.3535353E-01  0.3808188E-05  0.0000000E+00  0.1163426E-03
  0.3535353E-01  0.0000000E+00  0.3535353E-01  0.5368043E-05  0.0000000E+00  0.1176670E-03
  0.4545455E-01  0.0000000E+00  0.3535353E-01  0.6965385E-05  0.0000000E+00  0.1194466E-03
  0.5555556E-01  0.0000000E+00  0.3535353E-01  0.8612252E-05  0.0000000E+00  0.1216933E-03
  0.6565657E-01  0.0000000E+00  0.3535353E-01  0.1032178E-04  0.0000000E+00  0.1244223E-03
  0.7575758E-01  0.0000000E+00  0.3535353E-01  0.1210865E-04  0.0000000E+00  0.1276522E-03
  0.8585858E-01  0.0000000E+00  0.3535353E-01  0.1398961E-04  0.0000000E+00  0.1314045E-03
  0.9595960E-01  0.0000000E+00  0.3535353E-01  0.1598436E-04  0.0000000E+00  0.1357032E-03
  0.1060606E+00  0.0000000E+00  0.3535353E-01  0.1811679E-04  0.0000000E+00  0.1405728E-03
  0.1161616E+00  0.0000000E+00  0.3535353E-01  0.2041680E-04  0.0000000E+00  0.1460339E-03
  0.1262626E+00  0.0000000E+00  0.3535353E-01  0.2292303E-04  0.0000000E+00  0.1520924E-03
  0.1363636E+00  0.0000000E+00  0.3535353E-01  0.2568571E-04  0.0000000E+00  0.1587156E-03
  0.1464646E+00  0.0000000E+00  0.3535353E-01  0.2876637E-04  0.0000000E+00  0.1657786E-03
  0.1565657E+00  0.0000000E+00  0.3535353E-01  0.3221935E-04  0.0000000E+00  0.1729455E-03
  0.1666667E+00  0.0000000E+00  0.3535353E-01  0.3600099E-04  0.0000000E+00  0.1794085E-03
  0.1767677E+00  0.0000000E+00  0.3535353E-01  0.3962204E-04  0.0000000E+00  0.1833023E-03
  0.1868687E+00  0.0000000E+00  0.3535353E-01  0.2511824E-04  0.0000000E+00  0.1963914E-03
  0.1969697E+00  0.0000000E+00  0.3535353E-01 -0.1475534E-04  0.0000000E+00  0.2070367E-03
  0.2070707E+00  0.0000000E+00  0.3535353E-01 -0.1083518E-04  0.0000000E+00  0.2046225E-03
  0.2171717E+00  0.0000000E+00  0.3535353E-01 -0.8258449E-05  0.0000000E+00  0.2028738E-03
  0.2272727E+00  0.0000000E+00  0.3535353E-01 -0.6289350E-05  0.0000000E+00  0.2014109E-03
  0.2373737E+00  0.0000000E+00  0.3535353E-01 -0.4660392E-05  0.0000000E+00  0.2002382E-03
  0.2474747E+00  0.0000000E+00  0.3535353E-01 -0.3273425E-05  0.0000000E+00  0.1993896E-03
  0.2575758E+00  0.0000000E+00  0.3535353E-01 -0.2101054E-05  0.0000000E+00  0.1988670E-03
  0.2676768E+00  0.0000000E+00  0.3535353E-01 -0.1145973E-05  0.0000000E+00  0.1986331E-03
  0.2777778E+00  0.0000000E+00  0.3535353E-01 -0.4127420E-06  0.0000000E+00  0.1986140E-03
  0.2878788E+00  0.0000000E+00  0.3535353E-01  0.1248502E-06  0.0000000E+00  0.1987099E-03
  0.2979798E+00  0.0000000E+00  0.3535353E-01  0.5590867E-06  0.0000000E+00  0.1988298E-03