title = "dataset water"
variables = "x", "y", "z", "vx", "vy", "vz"
zone t = "velocities, solution time =  4.500E+01 days        " i =   99, j =   99, k =    1,  f=point
  0.5050505E-02  0.0000000E+00  0.5050505E-02  0.4176506E-08  0.0000000E+00  0.6423791E-05
  0.1515152E-01  0.0000000E+00  0.5050505E-02  0.1250314E-07  0.0000000E+00  0.6440532E-05
  0.2525252E-01  0.0000000E+00  0.5050505E-02  0.2075050E-07  0.0000000E+00  0.6473909E-05
  0.3535353E-01  0.0000000E+00  0.5050505E-02  0.2886517E-07  0.0000000E+00  0.6523709E-05
  0.4545455E-01  0.0000000E+00  0.5050505E-02  0.3679302E-07  0.0000000E+00  0.6589612E-05
  0.5555556E-01  0.0000000E+00  0.5050505E-02  0.4447894E-07  0.0000000E+00  0.6671187E-05
  0.6565657E-01  0.0000000E+00  0.5050505E-02  0.5186682E-07  0.0000000E+00  0.6767893E-05
  0.7575758E-01  0.0000000E+00  0.5050505E-02  0.5889960E-07  0.0000000E+00  0.6879075E-05
  0.8585858E-01  0.0000000E+00  0.5050505E-02  0.6551959E-07  0.0000000E+00  0.7003963E-05
  0.9595960E-01  0.0000000E+00  0.5050505E-02  0.7166892E-07  0.0000000E+00  0.7141670E-05
  0.1060606E+00  0.0000000E+00  0.5050505E-02  0.7729032E-07  0.0000000E+00  0.7291195E-05
  0.1161616E+00  0.0000000E+00  0.5050505E-02  0.8232804E-07  0.0000000E+00  0.7451423E-05
  0.1262626E+00  0.0000000E+00  0.5050505E-02  0.8672912E-07  0.0000000E+00  0.7621129E-05
  0.1363636E+00  0.0000000E+00  0.5050505E-02  0.9044481E-07  0.0000000E+00  0.7798986E-05
  0.1464646E+00  0.0000000E+00  0.5050505E-02  0.9343214E-07  0.0000000E+00  0.7983576E-05
  0.1565657E+00  0.0000000E+00  0.5050505E-02  0.9565556E-07  0.0000000E+00  0.8173402E-05
  0.1666667E+00  0.0000000E+00  0.5050505E-02  0.9708863E-07  0.0000000E+00  0.8366902E-05
  0.1767677E+00  0.0000000E+00  0.5050505E-02  0.9771542E-07  0.0000000E+00  0.8562476E-05
  0.1868687E+00  0.0000000E+00  0.5050505E-02  0.9753175E-07  0.0000000E+00  0.8758499E-05
  0.1969697E+00  0.0000000E+00  0.5050505E-02  0.9654591E-07  0.0000000E+00  0.8953352E-05
  0.2070707E+00  0.0000000E+00  0.5050505E-02  0.9477894E-07  0.0000000E+00  0.9145446E-05
  0.2171717E+00  0.0000000E+00  0.5050505E-02  0.9226430E-07  0.0000000E+00  0.9333246E-05
  0.2272727E+00  0.0000000E+00  0.5050505E-02  0.8904698E-07  0.0000000E+00  0.9515294E-05
  0.2373737E+00  0.0000000E+00  0.5050505E-02  0.8518209E-07  0.0000000E+00  0.9690236E-05
  0.2474747E+00  0.0000000E+00  0.5050505E-02  0.8073300E-07  0.0000000E+00  0.9856833E-05
  0.2575758E+00  0.0000000E+00  0.5050505E-02  0.7576927E-07  0.0000000E+00  0.1001398E-04
  0.2676768E+00  0.0000000E+00  0.5050505E-02  0.7036437E-07  0.0000000E+00  0.1016072E-04
  0.2777778E+00  0.0000000E+00  0.5050505E-02  0.6459350E-07  0.0000000E+00  0.1029624E-04
  0.2878788E+00  0.0000000E+00  0.5050505E-02  0.5853153E-07  0.0000000E+00  0.1041988E-04
  0.2979798E+00  0.0000000E+00  0.5050505E-02  0.5225119E-07  0.0000000E+00  0.1053113E-04
  0.3080808E+00  0.0000000E+00  0.5050505E-02  0.4582153E-07  0.0000000E+00  0.1062962E-04
  0.3181818E+00  0.0000000E+00  0.5050505E-02  0.3930676E-07  0.0000000E+00  0.1071511E-04
  0.3282828E+00  0.0000000E+00  0.5050505E-02  0.3276533E-07  0.0000000E+00  0.1078748E-04
  0.3383838E+00  0.0000000E+00  0.5050505E-02  0.2624929E-07  0.0000000E+00  0.1084675E-04
  0.3484848E+00  0.0000000E+00  0.5050505E-02  0.1980397E-07  0.0000000E+00  0.1089300E-04
  0.3585859E+00  0.0000000E+00  0.5050505E-02  0.1346775E-07  0.0000000E+00  0.1092641E-04
  0.3686869E+00  0.0000000E+00  0.5050505E-02  0.7272107E-08  0.0000000E+00  0.1094724E-04
  0.3787879E+00  0.0000000E+00  0.5050505E-02  0.1241728E-08  0.0000000E+00  0.1095579E-04
  0.3888889E+00  0.0000000E+00  0.5050505E-02 -0.4605211E-08  0.0000000E+00  0.1095241E-04
  0.3989899E+00  0.0000000E+00  0.5050505E-02 -0.1025671E-07  0.0000000E+00  0.1093749E-04
  0.4090909E+00  0.0000000E+00  0.5050505E-02 -0.1570651E-07  0.0000000E+00  0.1091141E-04
  0.4191919E+00  0.0000000E+00  0.5050505E-02 -0.2095360E-07  0.0000000E+00  0.1087460E-04
  0.4292929E+00  0.0000000E+00  0.5050505E-02 -0.2600164E-07  0.0000000E+00  0.1082744E-04
  0.4393939E+00  0.0000000E+00  0.5050505E-02 -0.3085832E-07  0.0000000E+00  0.1077034E-04
  0.4494950E+00  0.0000000E+00  0.5050505E-02 -0.3553473E-07  0.0000000E+00  0.1070367E-04
  0.4595959E+00  0.0000000E+00  0.5050505E-02 -0.4004458E-07  0.0000000E+00  0.1062777E-04
  0.4696970E+00  0.0000000E+00  0.5050505E-02 -0.4440349E-07  0.0000000E+00  0.1054296E-04
  0.4797980E+00  0.0000000E+00  0.5050505E-02 -0.4862811E-07  0.0000000E+00  0.1044954E-04
  0.4898990E+00  0.0000000E+00  0.5050505E-02 -0.5273533E-07  0.0000000E+00  0.1034775E-04
  0.5000000E+00  0.0000000E+00  0.5050505E-02 -0.5674142E-07  0.0000000E+00  0.1023782E-04
  0.5101010E+00  0.0000000E+00  0.5050505E-02 -0.6066108E-07  0.0000000E+00  0.1011993E-04
  0.5202020E+00  0.0000000E+00  0.5050505E-02 -0.6450669E-07  0.0000000E+00  0.9994239E-05
  0.5303030E+00  0.0000000E+00  0.5050505E-02 -0.6828744E-07  0.0000000E+00  0.9860896E-05
  0.5404040E+00  0.0000000E+00  0.5050505E-02 -0.7200864E-07  0.0000000E+00  0.9720023E-05
  0.5505050E+00  0.0000000E+00  0.5050505E-02 -0.7567118E-07  0.0000000E+00  0.9571738E-05
  0.5606061E+00  0.0000000E+00  0.5050505E-02 -0.7927106E-07  0.0000000E+00  0.9416164E-05
  0.5707071E+00  0.0000000E+00  0.5050505E-02 -0.8279927E-07  0.0000000E+00  0.9253436E-05
  0.5808081E+00  0.0000000E+00  0.5050505E-02 -0.8624183E-07  0.0000000E+00  0.9083713E-05
  0.5909091E+00  0.0000000E+00  0.5050505E-02 -0.8958006E-07  0.0000000E+00  0.8907185E-05
  0.6010101E+00  0.0000000E+00  0.5050505E-02 -0.9279123E-07  0.0000000E+00  0.8724085E-05
  0.6111111E+00  0.0000000E+00  0.5050505E-02 -0.9584927E-07  0.0000000E+00  0.8534696E-05
  0.6212121E+00  0.0000000E+00  0.5050505E-02 -0.9872580E-07  0.0000000E+00  0.8339353E-05
  0.6313131E+00  0.0000000E+00  0.5050505E-02 -0.1013912E-06  0.0000000E+00  0.8138452E-05
  0.6414142E+00  0.0000000E+00  0.5050505E-02 -0.1038158E-06  0.0000000E+00  0.7932446E-05
  0.6515151E+00  0.0000000E+00  0.5050505E-02 -0.1059709E-06  0.0000000E+00  0.7721847E-05
  0.6616161E+00  0.0000000E+00  0.5050505E-02 -0.1078298E-06  0.0000000E+00  0.7507225E-05
  0.6717172E+00  0.0000000E+00  0.5050505E-02 -0.1093688E-06  0.0000000E+00  0.7289197E-05
  0.6818182E+00  0.0000000E+00  0.5050505E-02 -0.1105678E-06  0.0000000E+00  0.7068427E-05
  0.6919192E+00  0.0000000E+00  0.5050505E-02 -0.1114104E-06  0.0000000E+00  0.6845614E-05
  0.7020202E+00  0.0000000E+00  0.5050505E-02 -0.1118849E-06  0.0000000E+00  0.6621485E-05
  0.7121212E+00  0.0000000E+00  0.5050505E-02 -0.1119836E-06  0.0000000E+00  0.6396787E-05
  0.7222222E+00  0.0000000E+00  0.5050505E-02 -0.1117031E-06  0.0000000E+00  0.6172277E-05
  0.7323232E+00  0.0000000E+00  0.5050505E-02 -0.1110439E-06  0.0000000E+00  0.5948717E-05
  0.7424242E+00  0.0000000E+00  0.5050505E-02 -0.1100101E-06  0.0000000E+00  0.5726862E-05
  0.7525253E+00  0.0000000E+00  0.5050505E-02 -0.1086088E-06  0.0000000E+00  0.5507456E-05
  0.7626263E+00  0.0000000E+00  0.5050505E-02 -0.1068499E-06  0.0000000E+00  0.5291228E-05
  0.7727273E+00  0.0000000E+00  0.5050505E-02 -0.1047454E-06  0.0000000E+00  0.5078883E-05
  0.7828283E+00  0.0000000E+00  0.5050505E-02 -0.1023090E-06  0.0000000E+00  0.4871100E-05
  0.7929293E+00  0.0000000E+00  0.5050505E-02 -0.9955585E-07  0.0000000E+00  0.4668529E-05
  0.8030303E+00  0.0000000E+00  0.5050505E-02 -0.9650198E-07  0.0000000E+00  0.4471791E-05
  0.8131313E+00  0.0000000E+00  0.5050505E-02 -0.9316405E-07  0.0000000E+00  0.4281471E-05
  0.8232324E+00  0.0000000E+00  0.5050505E-02 -0.8955903E-07  0.0000000E+00  0.4098123E-05
  0.8333333E+00  0.0000000E+00  0.5050505E-02 -0.8570405E-07  0.0000000E+00  0.3922263E-05
  0.8434343E+00  0.0000000E+00  0.5050505E-02 -0.8161613E-07  0.0000000E+00  0.3754377E-05
  0.8535354E+00  0.0000000E+00  0.5050505E-02 -0.7731210E-07  0.0000000E+00  0.3594914E-05
  0.8636364E+00  0.0000000E+00  0.5050505E-02 -0.7280846E-07  0.0000000E+00  0.3444292E-05
  0.8737374E+00  0.0000000E+00  0.5050505E-02 -0.6812136E-07  0.0000000E+00  0.3302893E-05
  0.8838384E+00  0.0000000E+00  0.5050505E-02 -0.6326652E-07  0.0000000E+00  0.3171070E-05
  0.8939394E+00  0.0000000E+00  0.5050505E-02 -0.5825922E-07  0.0000000E+00  0.3049144E-05
  0.9040404E+00  0.0000000E+00  0.5050505E-02 -0.5311433E-07  0.0000000E+00  0.2937405E-05
  0.9141414E+00  0.0000000E+00  0.5050505E-02 -0.4784630E-07  0.0000000E+00  0.2836114E-05
  0.9242424E+00  0.0000000E+00  0.5050505E-02 -0.4246917E-07  0.0000000E+00  0.2745505E-05
  0.9343435E+00  0.0000000E+00  0.5050505E-02 -0.3699663E-07  0.0000000E+00  0.2665781E-05
  0.9444444E+00  0.0000000E+00  0.5050505E-02 -0.3144205E-07  0.0000000E+00  0.2597120E-05
  0.9545454E+00  0.0000000E+00  0.5050505E-02 -0.2581852E-07  0.0000000E+00  0.2539675E-05
  0.9646465E+00  0.0000000E+00  0.5050505E-02 -0.2013890E-07  0.0000000E+00  0.2493569E-05
  0.9747475E+00  0.0000000E+00  0.5050505E-02 -0.1441584E-07  0.0000000E+00  0.2458903E-05
  0.9848485E+00  0.0000000E+00  0.5050505E-02 -0.8661847E-08  0.0000000E+00  0.2435751E-05
  0.9974747E+00  0.0000000E+00  0.5050505E-02 -0.2889339E-08  0.0000000E+00  0.2424162E-05
  0.5050505E-02  0.0000000E+00  0.1515152E-01  0.1256629E-07  0.0000000E+00  0.6469505E-05
  0.1515152E-01  0.0000000E+00  0.1515152E-01  0.3761983E-07  0.0000000E+00  0.6486443E-05
  0.2525252E-01  0.0000000E+00  0.1515152E-01  0.6243576E-07  0.0000000E+00  0.6520213E-05
  0.3535353E-01  0.0000000E+00  0.1515152E-01  0.8685401E-07  0.0000000E+00  0.6570602E-05
  0.4545455E-01  0.0000000E+00  0.1515152E-01  0.1107121E-06  0.0000000E+00  0.6637290E-05
  0.5555556E-01  0.0000000E+00  0.1515152E-01  0.1338447E-06  0.0000000E+00  0.6719846E-05
  0.6565657E-01  0.0000000E+00  0.1515152E-01  0.1560830E-06  0.0000000E+00  0.6817726E-05
  0.7575758E-01  0.0000000E+00  0.1515152E-01  0.1772555E-06  0.0000000E+00  0.6930274E-05
  0.8585858E-01  0.0000000E+00  0.1515152E-01  0.1971884E-06  0.0000000E+00  0.7056714E-05
  0.9595960E-01  0.0000000E+00  0.1515152E-01  0.2157070E-06  0.0000000E+00  0.7196155E-05
  0.1060606E+00  0.0000000E+00  0.1515152E-01  0.2326384E-06  0.0000000E+00  0.7347586E-05
  0.1161616E+00  0.0000000E+00  0.1515152E-01  0.2478139E-06  0.0000000E+00  0.7509881E-05
  0.1262626E+00  0.0000000E+00  0.1515152E-01  0.2610730E-06  0.0000000E+00  0.7681799E-05
  0.1363636E+00  0.0000000E+00  0.1515152E-01  0.2722677E-06  0.0000000E+00  0.7861997E-05
  0.1464646E+00  0.0000000E+00  0.1515152E-01  0.2812671E-06  0.0000000E+00  0.8049032E-05
  0.1565657E+00  0.0000000E+00  0.1515152E-01  0.2879631E-06  0.0000000E+00  0.8241381E-05
  0.1666667E+00  0.0000000E+00  0.1515152E-01  0.2922748E-06  0.0000000E+00  0.8437454E-05
  0.1767677E+00  0.0000000E+00  0.1515152E-01  0.2941531E-06  0.0000000E+00  0.8635617E-05
  0.1868687E+00  0.0000000E+00  0.1515152E-01  0.2935849E-06  0.0000000E+00  0.8834211E-05
  0.1969697E+00  0.0000000E+00  0.1515152E-01  0.2905949E-06  0.0000000E+00  0.9031582E-05
  0.2070707E+00  0.0000000E+00  0.1515152E-01  0.2852468E-06  0.0000000E+00  0.9226106E-05
  0.2171717E+00  0.0000000E+00  0.1515152E-01  0.2776422E-06  0.0000000E+00  0.9416216E-05
  0.2272727E+00  0.0000000E+00  0.1515152E-01  0.2679177E-06  0.0000000E+00  0.9600424E-05
  0.2373737E+00  0.0000000E+00  0.1515152E-01  0.2562408E-06  0.0000000E+00  0.9777349E-05
  0.2474747E+00  0.0000000E+00  0.1515152E-01  0.2428042E-06  0.0000000E+00  0.9945734E-05
  0.2575758E+00  0.0000000E+00  0.1515152E-01  0.2278191E-06  0.0000000E+00  0.1010446E-04
  0.2676768E+00  0.0000000E+00  0.1515152E-01  0.2115086E-06  0.0000000E+00  0.1025256E-04
  0.2777778E+00  0.0000000E+00  0.1515152E-01  0.1941006E-06  0.0000000E+00  0.1038921E-04
  0.2878788E+00  0.0000000E+00  0.1515152E-01  0.1758220E-06  0.0000000E+00  0.1051376E-04
  0.2979798E+00  0.0000000E+00  0.1515152E-01  0.1568926E-06  0.0000000E+00  0.1062570E-04
  0.3080808E+00  0.0000000E+00  0.1515152E-01  0.1375211E-06  0.0000000E+00  0.1072467E-04
  0.3181818E+00  0.0000000E+00  0.1515152E-01  0.1179012E-06  0.0000000E+00  0.1081044E-04
  0.3282828E+00  0.0000000E+00  0.1515152E-01  0.9820905E-07  0.0000000E+00  0.1088292E-04
  0.3383838E+00  0.0000000E+00  0.1515152E-01  0.7860128E-07  0.0000000E+00  0.1094212E-04
  0.3484848E+00  0.0000000E+00  0.1515152E-01  0.5921410E-07  0.0000000E+00  0.1098816E-04
  0.3585859E+00  0.0000000E+00  0.1515152E-01  0.4016270E-07  0.0000000E+00  0.1102123E-04
  0.3686869E+00  0.0000000E+00  0.1515152E-01  0.2154138E-07  0.0000000E+00  0.1104160E-04
  0.3787879E+00  0.0000000E+00  0.1515152E-01  0.3423901E-08  0.0000000E+00  0.1104960E-04
  0.3888889E+00  0.0000000E+00  0.1515152E-01 -0.1413561E-07  0.0000000E+00  0.1104559E-04
  0.3989899E+00  0.0000000E+00  0.1515152E-01 -0.3110168E-07  0.0000000E+00  0.1102997E-04
  0.4090909E+00  0.0000000E+00  0.1515152E-01 -0.4745616E-07  0.0000000E+00  0.1100315E-04
  0.4191919E+00  0.0000000E+00  0.1515152E-01 -0.6319669E-07  0.0000000E+00  0.1096555E-04
  0.4292929E+00  0.0000000E+00  0.1515152E-01 -0.7833498E-07  0.0000000E+00  0.1091759E-04
  0.4393939E+00  0.0000000E+00  0.1515152E-01 -0.9289498E-07  0.0000000E+00  0.1085966E-04
  0.4494950E+00  0.0000000E+00  0.1515152E-01 -0.1069108E-06  0.0000000E+00  0.1079217E-04
  0.4595959E+00  0.0000000E+00  0.1515152E-01 -0.1204245E-06  0.0000000E+00  0.1071545E-04
  0.4696970E+00  0.0000000E+00  0.1515152E-01 -0.1334839E-06  0.0000000E+00  0.1062983E-04
  0.4797980E+00  0.0000000E+00  0.1515152E-01 -0.1461400E-06  0.0000000E+00  0.1053561E-04
  0.4898990E+00  0.0000000E+00  0.1515152E-01 -0.1584446E-06  0.0000000E+00  0.1043302E-04
  0.5000000E+00  0.0000000E+00  0.1515152E-01 -0.1704473E-06  0.0000000E+00  0.1032231E-04
  0.5101010E+00  0.0000000E+00  0.1515152E-01 -0.1821933E-06  0.0000000E+00  0.1020364E-04
  0.5202020E+00  0.0000000E+00  0.1515152E-01 -0.1937207E-06  0.0000000E+00  0.1007718E-04
  0.5303030E+00  0.0000000E+00  0.1515152E-01 -0.2050579E-06  0.0000000E+00  0.9943048E-05
  0.5404040E+00  0.0000000E+00  0.1515152E-01 -0.2162213E-06  0.0000000E+00  0.9801374E-05
  0.5505050E+00  0.0000000E+00  0.1515152E-01 -0.2272142E-06  0.0000000E+00  0.9652261E-05
  0.5606061E+00  0.0000000E+00  0.1515152E-01 -0.2380247E-06  0.0000000E+00  0.9495823E-05
  0.5707071E+00  0.0000000E+00  0.1515152E-01 -0.2486257E-06  0.0000000E+00  0.9332183E-05
  0.5808081E+00  0.0000000E+00  0.1515152E-01 -0.2589749E-06  0.0000000E+00  0.9161489E-05
  0.5909091E+00  0.0000000E+00  0.1515152E-01 -0.2690157E-06  0.0000000E+00  0.8983923E-05
  0.6010101E+00  0.0000000E+00  0.1515152E-01 -0.2786788E-06  0.0000000E+00  0.8799711E-05
  0.6111111E+00  0.0000000E+00  0.1515152E-01 -0.2878852E-06  0.0000000E+00  0.8609129E-05
  0.6212121E+00  0.0000000E+00  0.1515152E-01 -0.2965483E-06  0.0000000E+00  0.8412510E-05
  0.6313131E+00  0.0000000E+00  0.1515152E-01 -0.3045781E-06  0.0000000E+00  0.8210249E-05
  0.6414142E+00  0.0000000E+00  0.1515152E-01 -0.3118843E-06  0.0000000E+00  0.8002803E-05
  0.6515151E+00  0.0000000E+00  0.1515152E-01 -0.3183795E-06  0.0000000E+00  0.7790689E-05
  0.6616161E+00  0.0000000E+00  0.1515152E-01 -0.3239830E-06  0.0000000E+00  0.7574483E-05
  0.6717172E+00  0.0000000E+00  0.1515152E-01 -0.3286226E-06  0.0000000E+00  0.7354813E-05
  0.6818182E+00  0.0000000E+00  0.1515152E-01 -0.3322373E-06  0.0000000E+00  0.7132351E-05
  0.6919192E+00  0.0000000E+00  0.1515152E-01 -0.3347782E-06  0.0000000E+00  0.6907810E-05
  0.7020202E+00  0.0000000E+00  0.1515152E-01 -0.3362096E-06  0.0000000E+00  0.6681928E-05
  0.7121212E+00  0.0000000E+00  0.1515152E-01 -0.3365087E-06  0.0000000E+00  0.6455464E-05
  0.7222222E+00  0.0000000E+00  0.1515152E-01 -0.3356657E-06  0.0000000E+00  0.6229188E-05
  0.7323232E+00  0.0000000E+00  0.1515152E-01 -0.3336822E-06  0.0000000E+00  0.6003872E-05
  0.7424242E+00  0.0000000E+00  0.1515152E-01 -0.3305710E-06  0.0000000E+00  0.5780282E-05
  0.7525253E+00  0.0000000E+00  0.1515152E-01 -0.3263540E-06  0.0000000E+00  0.5559172E-05
  0.7626263E+00  0.0000000E+00  0.1515152E-01 -0.3210614E-06  0.0000000E+00  0.5341277E-05
  0.7727273E+00  0.0000000E+00  0.1515152E-01 -0.3147295E-06  0.0000000E+00  0.5127310E-05
  0.7828283E+00  0.0000000E+00  0.1515152E-01 -0.3074003E-06  0.0000000E+00  0.4917957E-05
  0.7929293E+00  0.0000000E+00  0.1515152E-01 -0.2991194E-06  0.0000000E+00  0.4713874E-05
  0.8030303E+00  0.0000000E+00  0.1515152E-01 -0.2899353E-06  0.0000000E+00  0.4515684E-05
  0.8131313E+00  0.0000000E+00  0.1515152E-01 -0.2798982E-06  0.0000000E+00  0.4323976E-05
  0.8232324E+00  0.0000000E+00  0.1515152E-01 -0.2690596E-06  0.0000000E+00  0.4139306E-05
  0.8333333E+00  0.0000000E+00  0.1515152E-01 -0.2574708E-06  0.0000000E+00  0.3962195E-05
  0.8434343E+00  0.0000000E+00  0.1515152E-01 -0.2451832E-06  0.0000000E+00  0.3793128E-05
  0.8535354E+00  0.0000000E+00  0.1515152E-01 -0.2322474E-06  0.0000000E+00  0.3632556E-05
  0.8636364E+00  0.0000000E+00  0.1515152E-01 -0.2187130E-06  0.0000000E+00  0.3480898E-05
  0.8737374E+00  0.0000000E+00  0.1515152E-01 -0.2046285E-06  0.0000000E+00  0.3338536E-05
  0.8838384E+00  0.0000000E+00  0.1515152E-01 -0.1900411E-06  0.0000000E+00  0.3205824E-05
  0.8939394E+00  0.0000000E+00  0.1515152E-01 -0.1749967E-06  0.0000000E+00  0.3083083E-05
  0.9040404E+00  0.0000000E+00  0.1515152E-01 -0.1595399E-06  0.0000000E+00  0.2970603E-05
  0.9141414E+00  0.0000000E+00  0.1515152E-01 -0.1437140E-06  0.0000000E+00  0.2868645E-05
  0.9242424E+00  0.0000000E+00  0.1515152E-01 -0.1275612E-06  0.0000000E+00  0.2777443E-05
  0.9343435E+00  0.0000000E+00  0.1515152E-01 -0.1111224E-06  0.0000000E+00  0.2697201E-05
  0.9444444E+00  0.0000000E+00  0.1515152E-01 -0.9443784E-07  0.0000000E+00  0.2628096E-05
  0.9545454E+00  0.0000000E+00  0.1515152E-01 -0.7754662E-07  0.0000000E+00  0.2570280E-05
  0.9646465E+00  0.0000000E+00  0.1515152E-01 -0.6048731E-07  0.0000000E+00  0.2523878E-05
  0.9747475E+00  0.0000000E+00  0.1515152E-01 -0.4329783E-07  0.0000000E+00  0.2488990E-05
  0.9848485E+00  0.0000000E+00  0.1515152E-01 -0.2601569E-07  0.0000000E+00  0.2465690E-05
  0.9974747E+00  0.0000000E+00  0.1515152E-01 -0.8678057E-08  0.0000000E+00  0.2454028E-05
  0.5050505E-02  0.0000000E+00  0.2525252E-01  0.2107866E-07  0.0000000E+00  0.6560994E-05
  0.1515152E-01  0.0000000E+00  0.2525252E-01  0.6310449E-07  0.0000000E+00  0.6578326E-05
  0.2525252E-01  0.0000000E+00  0.2525252E-01  0.1047350E-06  0.0000000E+00  0.6612883E-05
  0.3535353E-01  0.0000000E+00  0.2525252E-01  0.1457034E-06  0.0000000E+00  0.6664454E-05
  0.4545455E-01  0.0000000E+00  0.2525252E-01  0.1857391E-06  0.0000000E+00  0.6732717E-05
  0.5555556E-01  0.0000000E+00  0.2525252E-01  0.2245657E-06  0.0000000E+00  0.6817239E-05
  0.6565657E-01  0.0000000E+00  0.2525252E-01  0.2619009E-06  0.0000000E+00  0.6917477E-05
  0.7575758E-01  0.0000000E+00  0.2525252E-01  0.2974571E-06  0.0000000E+00  0.7032767E-05
  0.8585858E-01  0.0000000E+00  0.2525252E-01  0.3309419E-06  0.0000000E+00  0.7162326E-05
  0.9595960E-01  0.0000000E+00  0.2525252E-01  0.3620611E-06  0.0000000E+00  0.7305252E-05
  0.1060606E+00  0.0000000E+00  0.2525252E-01  0.3905221E-06  0.0000000E+00  0.7460517E-05
  0.1161616E+00  0.0000000E+00  0.2525252E-01  0.4160388E-06  0.0000000E+00  0.7626971E-05
  0.1262626E+00  0.0000000E+00  0.2525252E-01  0.4383381E-06  0.0000000E+00  0.7803345E-05
  0.1363636E+00  0.0000000E+00  0.2525252E-01  0.4571671E-06  0.0000000E+00  0.7988257E-05
  0.1464646E+00  0.0000000E+00  0.2525252E-01  0.4723018E-06  0.0000000E+00  0.8180221E-05
  0.1565657E+00  0.0000000E+00  0.2525252E-01  0.4835555E-06  0.0000000E+00  0.8377659E-05
  0.1666667E+00  0.0000000E+00  0.2525252E-01  0.4907882E-06  0.0000000E+00  0.8578922E-05
  0.1767677E+00  0.0000000E+00  0.2525252E-01  0.4939144E-06  0.0000000E+00  0.8782310E-05
  0.1868687E+00  0.0000000E+00  0.2525252E-01  0.4929094E-06  0.0000000E+00  0.8986093E-05
  0.1969697E+00  0.0000000E+00  0.2525252E-01  0.4878143E-06  0.0000000E+00  0.9188547E-05
  0.2070707E+00  0.0000000E+00  0.2525252E-01  0.4787370E-06  0.0000000E+00  0.9387975E-05
  0.2171717E+00  0.0000000E+00  0.2525252E-01  0.4658507E-06  0.0000000E+00  0.9582743E-05
  0.2272727E+00  0.0000000E+00  0.2525252E-01  0.4493894E-06  0.0000000E+00  0.9771305E-05
  0.2373737E+00  0.0000000E+00  0.2525252E-01  0.4296398E-06  0.0000000E+00  0.9952226E-05
  0.2474747E+00  0.0000000E+00  0.2525252E-01  0.4069317E-06  0.0000000E+00  0.1012421E-04
  0.2575758E+00  0.0000000E+00  0.2525252E-01  0.3816263E-06  0.0000000E+00  0.1028610E-04
  0.2676768E+00  0.0000000E+00  0.2525252E-01  0.3541042E-06  0.0000000E+00  0.1043692E-04
  0.2777778E+00  0.0000000E+00  0.2525252E-01  0.3247537E-06  0.0000000E+00  0.1057583E-04
  0.2878788E+00  0.0000000E+00  0.2525252E-01  0.2939603E-06  0.0000000E+00  0.1070220E-04
  0.2979798E+00  0.0000000E+00  0.2525252E-01  0.2620967E-06  0.0000000E+00  0.1081551E-04
  0.3080808E+00  0.0000000E+00  0.2525252E-01  0.2295157E-06  0.0000000E+00  0.1091543E-04
  0.3181818E+00  0.0000000E+00  0.2525252E-01  0.1965440E-06  0.0000000E+00  0.1100176E-04
  0.3282828E+00  0.0000000E+00  0.2525252E-01  0.1634777E-06  0.0000000E+00  0.1107443E-04
  0.3383838E+00  0.0000000E+00  0.2525252E-01  0.1305798E-06  0.0000000E+00  0.1113349E-04
  0.3484848E+00  0.0000000E+00  0.2525252E-01  0.9807809E-07  0.0000000E+00  0.1117908E-04
  0.3585859E+00  0.0000000E+00  0.2525252E-01  0.6616485E-07  0.0000000E+00  0.1121145E-04
  0.3686869E+00  0.0000000E+00  0.2525252E-01  0.3499677E-07  0.0000000E+00  0.1123088E-04
  0.3787879E+00  0.0000000E+00  0.2525252E-01  0.4695924E-08  0.0000000E+00  0.1123775E-04
  0.3888889E+00  0.0000000E+00  0.2525252E-01 -0.2464884E-07  0.0000000E+00  0.1123245E-04
  0.3989899E+00  0.0000000E+00  0.2525252E-01 -0.5298012E-07  0.0000000E+00  0.1121541E-04
  0.4090909E+00  0.0000000E+00  0.2525252E-01 -0.8026966E-07  0.0000000E+00  0.1118707E-04
  0.4191919E+00  0.0000000E+00  0.2525252E-01 -0.1065158E-06  0.0000000E+00  0.1114789E-04
  0.4292929E+00  0.0000000E+00  0.2525252E-01 -0.1317408E-06  0.0000000E+00  0.1109830E-04
  0.4393939E+00  0.0000000E+00  0.2525252E-01 -0.1559871E-06  0.0000000E+00  0.1103873E-04
  0.4494950E+00  0.0000000E+00  0.2525252E-01 -0.1793146E-06  0.0000000E+00  0.1096957E-04
  0.4595959E+00  0.0000000E+00  0.2525252E-01 -0.2017966E-06  0.0000000E+00  0.1089120E-04
  0.4696970E+00  0.0000000E+00  0.2525252E-01 -0.2235161E-06  0.0000000E+00  0.1080395E-04
  0.4797980E+00  0.0000000E+00  0.2525252E-01 -0.2445616E-06  0.0000000E+00  0.1070812E-04
  0.4898990E+00  0.0000000E+00  0.2525252E-01 -0.2650228E-06  0.0000000E+00  0.1060395E-04
  0.5000000E+00  0.0000000E+00  0.2525252E-01 -0.2849860E-06  0.0000000E+00  0.1049167E-04
  0.5101010E+00  0.0000000E+00  0.2525252E-01 -0.3045299E-06  0.0000000E+00  0.1037144E-04
  0.5202020E+00  0.0000000E+00  0.2525252E-01 -0.3237211E-06  0.0000000E+00  0.1024343E-04
  0.5303030E+00  0.0000000E+00  0.2525252E-01 -0.3426094E-06  0.0000000E+00  0.1010774E-04
  0.5404040E+00  0.0000000E+00  0.2525252E-01 -0.3612250E-06  0.0000000E+00  0.9964467E-05
  0.5505050E+00  0.0000000E+00  0.2525252E-01 -0.3795743E-06  0.0000000E+00  0.9813707E-05
  0.5606061E+00  0.0000000E+00  0.2525252E-01 -0.3976385E-06  0.0000000E+00  0.9655546E-05
  0.5707071E+00  0.0000000E+00  0.2525252E-01 -0.4153721E-06  0.0000000E+00  0.9490086E-05
  0.5808081E+00  0.0000000E+00  0.2525252E-01 -0.4327032E-06  0.0000000E+00  0.9317456E-05
  0.5909091E+00  0.0000000E+00  0.2525252E-01 -0.4495353E-06  0.0000000E+00  0.9137817E-05
  0.6010101E+00  0.0000000E+00  0.2525252E-01 -0.4657500E-06  0.0000000E+00  0.8951379E-05
  0.6111111E+00  0.0000000E+00  0.2525252E-01 -0.4812115E-06  0.0000000E+00  0.8758408E-05
  0.6212121E+00  0.0000000E+00  0.2525252E-01 -0.4957716E-06  0.0000000E+00  0.8559232E-05
  0.6313131E+00  0.0000000E+00  0.2525252E-01 -0.5092755E-06  0.0000000E+00  0.8354244E-05
  0.6414142E+00  0.0000000E+00  0.2525252E-01 -0.5215685E-06  0.0000000E+00  0.8143906E-05
  0.6515151E+00  0.0000000E+00  0.2525252E-01 -0.5325012E-06  0.0000000E+00  0.7928747E-05
  0.6616161E+00  0.0000000E+00  0.2525252E-01 -0.5419354E-06  0.0000000E+00  0.7709356E-05
  0.6717172E+00  0.0000000E+00  0.2525252E-01 -0.5497483E-06  0.0000000E+00  0.7486381E-05
  0.6818182E+00  0.0000000E+00  0.2525252E-01 -0.5558363E-06  0.0000000E+00  0.7260517E-05
  0.6919192E+00  0.0000000E+00  0.2525252E-01 -0.5601170E-06  0.0000000E+00  0.7032500E-05
  0.7020202E+00  0.0000000E+00  0.2525252E-01 -0.5625303E-06  0.0000000E+00  0.6803092E-05
  0.7121212E+00  0.0000000E+00  0.2525252E-01 -0.5630390E-06  0.0000000E+00  0.6573078E-05
  0.7222222E+00  0.0000000E+00  0.2525252E-01 -0.5616271E-06  0.0000000E+00  0.6343251E-05
  0.7323232E+00  0.0000000E+00  0.2525252E-01 -0.5582991E-06  0.0000000E+00  0.6114405E-05
  0.7424242E+00  0.0000000E+00  0.2525252E-01 -0.5530777E-06  0.0000000E+00  0.5887328E-05
  0.7525253E+00  0.0000000E+00  0.2525252E-01 -0.5460012E-06  0.0000000E+00  0.5662792E-05
  0.7626263E+00  0.0000000E+00  0.2525252E-01 -0.5371213E-06  0.0000000E+00  0.5441550E-05
  0.7727273E+00  0.0000000E+00  0.2525252E-01 -0.5265009E-06  0.0000000E+00  0.5224327E-05
  0.7828283E+00  0.0000000E+00  0.2525252E-01 -0.5142110E-06  0.0000000E+00  0.5011824E-05
  0.7929293E+00  0.0000000E+00  0.2525252E-01 -0.5003295E-06  0.0000000E+00  0.4804704E-05
  0.8030303E+00  0.0000000E+00  0.2525252E-01 -0.4849383E-06  0.0000000E+00  0.4603600E-05
  0.8131313E+00  0.0000000E+00  0.2525252E-01 -0.4681226E-06  0.0000000E+00  0.4409108E-05
  0.8232324E+00  0.0000000E+00  0.2525252E-01 -0.4499687E-06  0.0000000E+00  0.4221790E-05
  0.8333333E+00  0.0000000E+00  0.2525252E-01 -0.4305632E-06  0.0000000E+00  0.4042169E-05
  0.8434343E+00  0.0000000E+00  0.2525252E-01 -0.4099924E-06  0.0000000E+00  0.3870734E-05
  0.8535354E+00  0.0000000E+00  0.2525252E-01 -0.3883410E-06  0.0000000E+00  0.3707939E-05
  0.8636364E+00  0.0000000E+00  0.2525252E-01 -0.3656922E-06  0.0000000E+00  0.3554203E-05
  0.8737374E+00  0.0000000E+00  0.2525252E-01 -0.3421271E-06  0.0000000E+00  0.3409912E-05
  0.8838384E+00  0.0000000E+00  0.2525252E-01 -0.3177245E-06  0.0000000E+00  0.3275419E-05
  0.8939394E+00  0.0000000E+00  0.2525252E-01 -0.2925610E-06  0.0000000E+00  0.3151044E-05
  0.9040404E+00  0.0000000E+00  0.2525252E-01 -0.2667109E-06  0.0000000E+00  0.3037079E-05
  0.9141414E+00  0.0000000E+00  0.2525252E-01 -0.2402466E-06  0.0000000E+00  0.2933786E-05
  0.9242424E+00  0.0000000E+00  0.2525252E-01 -0.2132381E-06  0.0000000E+00  0.2841397E-05
  0.9343435E+00  0.0000000E+00  0.2525252E-01 -0.1857538E-06  0.0000000E+00  0.2760116E-05
  0.9444444E+00  0.0000000E+00  0.2525252E-01 -0.1578604E-06  0.0000000E+00  0.2690121E-05
  0.9545454E+00  0.0000000E+00  0.2525252E-01 -0.1296232E-06  0.0000000E+00  0.2631564E-05
  0.9646465E+00  0.0000000E+00  0.2525252E-01 -0.1011063E-06  0.0000000E+00  0.2584569E-05
  0.9747475E+00  0.0000000E+00  0.2525252E-01 -0.7237287E-07  0.0000000E+00  0.2549236E-05
  0.9848485E+00  0.0000000E+00  0.2525252E-01 -0.4348526E-07  0.0000000E+00  0.2525639E-05
  0.9974747E+00  0.0000000E+00  0.2525252E-01 -0.1450533E-07  0.0000000E+00  0.2513829E-05
  0.5050505E-02  0.0000000E+00  0.3535353E-01  0.2981208E-07  0.0000000E+00  0.6698271E-05
  0.1515152E-01  0.0000000E+00  0.3535353E-01  0.8925259E-07  0.0000000E+00  0.6716196E-05
  0.2525252E-01  0.0000000E+00  0.3535353E-01  0.1481407E-06  0.0000000E+00  0.6751940E-05
  0.3535353E-01  0.0000000E+00  0.3535353E-01  0.2061036E-06  0.0000000E+00  0.6805291E-05
  0.4545455E-01  0.0000000E+00  0.3535353E-01  0.2627616E-06  0.0000000E+00  0.6875928E-05
  0.5555556E-01  0.0000000E+00  0.3535353E-01  0.3177267E-06  0.0000000E+00  0.6963418E-05
  0.6565657E-01  0.0000000E+00  0.3535353E-01  0.3706015E-06  0.0000000E+00  0.7067213E-05
  0.7575758E-01  0.0000000E+00  0.3535353E-01  0.4209789E-06  0.0000000E+00  0.7186644E-05
  0.8585858E-01  0.0000000E+00  0.3535353E-01  0.4684445E-06  0.0000000E+00  0.7320919E-05
  0.9595960E-01  0.0000000E+00  0.3535353E-01  0.5125790E-06  0.0000000E+00  0.7469116E-05
  0.1060606E+00  0.0000000E+00  0.3535353E-01  0.5529635E-06  0.0000000E+00  0.7630185E-05
  0.1161616E+00  0.0000000E+00  0.3535353E-01  0.5891867E-06  0.0000000E+00  0.7802943E-05
  0.1262626E+00  0.0000000E+00  0.3535353E-01  0.6208539E-06  0.0000000E+00  0.7986077E-05
  0.1363636E+00  0.0000000E+00  0.3535353E-01  0.6475976E-06  0.0000000E+00  0.8178149E-05
  0.1464646E+00  0.0000000E+00  0.3535353E-01  0.6690904E-06  0.0000000E+00  0.8377604E-05
  0.1565657E+00  0.0000000E+00  0.3535353E-01  0.6850579E-06  0.0000000E+00  0.8582784E-05
  0.1666667E+00  0.0000000E+00  0.3535353E-01  0.6952921E-06  0.0000000E+00  0.8791948E-05
  0.1767677E+00  0.0000000E+00  0.3535353E-01  0.6996642E-06  0.0000000E+00  0.9003293E-05
  0.1868687E+00  0.0000000E+00  0.3535353E-01  0.6981345E-06  0.0000000E+00  0.9214982E-05
  0.1969697E+00  0.0000000E+00  0.3535353E-01  0.6907593E-06  0.0000000E+00  0.9425178E-05
  0.2070707E+00  0.0000000E+00  0.3535353E-01  0.6776936E-06  0.0000000E+00  0.9632075E-05
  0.2171717E+00  0.0000000E+00  0.3535353E-01  0.6591891E-06  0.0000000E+00  0.9833933E-05
  0.2272727E+00  0.0000000E+00  0.3535353E-01  0.6355865E-06  0.0000000E+00  0.1002911E-04
  0.2373737E+00  0.0000000E+00  0.3535353E-01  0.6073042E-06  0.0000000E+00  0.1021610E-04
  0.2474747E+00  0.0000000E+00  0.3535353E-01  0.5748230E-06  0.0000000E+00  0.1039353E-04
  0.2575758E+00  0.0000000E+00  0.3535353E-01  0.5386687E-06  0.0000000E+00  0.1056021E-04
  0.2676768E+00  0.0000000E+00  0.3535353E-01  0.4993938E-06  0.0000000E+00  0.1071512E-04
  0.2777778E+00  0.0000000E+00  0.3535353E-01  0.4575604E-06  0.0000000E+00  0.1085744E-04
  0.2878788E+00  0.0000000E+00  0.3535353E-01  0.4137240E-06  0.0000000E+00  0.1098651E-04
  0.2979798E+00  0.0000000E+00  0.3535353E-01  0.3684201E-06  0.0000000E+00  0.1110186E-04