title = "dataset water"
variables = "x", "y", "z", "vx", "vy", "vz"
zone t = "velocities, solution time =  1.900E+01 days        " i =   99, j =   99, k =    1,  f=point
  0.5050505E-02  0.0000000E+00  0.5050505E-02  0.5093245E-12  0.0000000E+00 -0.1967541E-04
  0.1515152E-01  0.0000000E+00  0.5050505E-02  0.1661813E-11  0.0000000E+00 -0.1967540E-04
  0.2525252E-01  0.0000000E+00  0.5050505E-02  0.2810077E-11  0.0000000E+00 -0.1967540E-04
  0.3535353E-01  0.0000000E+00  0.5050505E-02  0.3928864E-11  0.0000000E+00 -0.1967539E-04
  0.4545455E-01  0.0000000E+00  0.5050505E-02  0.5033838E-11  0.0000000E+00 -0.1967538E-04
  0.5555556E-01  0.0000000E+00  0.5050505E-02  0.6124680E-11  0.0000000E+00 -0.1967537E-04
  0.6565657E-01  0.0000000E+00  0.5050505E-02  0.7180400E-11  0.0000000E+00 -0.1967536E-04
  0.7575758E-01  0.0000000E+00  0.5050505E-02  0.8221544E-11  0.0000000E+00 -0.1967534E-04
  0.8585858E-01  0.0000000E+00  0.5050505E-02  0.9229884E-11  0.0000000E+00 -0.1967533E-04
  0.9595960E-01  0.0000000E+00  0.5050505E-02  0.1019720E-10  0.0000000E+00 -0.1967531E-04
  0.1060606E+00  0.0000000E+00  0.5050505E-02  0.1112922E-10  0.0000000E+00 -0.1967529E-04
  0.1161616E+00  0.0000000E+00  0.5050505E-02  0.1201694E-10  0.0000000E+00 -0.1967526E-04
  0.1262626E+00  0.0000000E+00  0.5050505E-02  0.1285397E-10  0.0000000E+00 -0.1967524E-04
  0.1363636E+00  0.0000000E+00  0.5050505E-02  0.1363820E-10  0.0000000E+00 -0.1967521E-04
  0.1464646E+00  0.0000000E+00  0.5050505E-02  0.1436601E-10  0.0000000E+00 -0.1967518E-04
  0.1565657E+00  0.0000000E+00  0.5050505E-02  0.1503306E-10  0.0000000E+00 -0.1967515E-04
  0.1666667E+00  0.0000000E+00  0.5050505E-02  0.1563600E-10  0.0000000E+00 -0.1967512E-04
  0.1767677E+00  0.0000000E+00  0.5050505E-02  0.1617234E-10  0.0000000E+00 -0.1967509E-04
  0.1868687E+00  0.0000000E+00  0.5050505E-02  0.1663976E-10  0.0000000E+00 -0.1967506E-04
  0.1969697E+00  0.0000000E+00  0.5050505E-02  0.1703621E-10  0.0000000E+00 -0.1967502E-04
  0.2070707E+00  0.0000000E+00  0.5050505E-02  0.1735997E-10  0.0000000E+00 -0.1967499E-04
  0.2171717E+00  0.0000000E+00  0.5050505E-02  0.1760968E-10  0.0000000E+00 -0.1967495E-04
  0.2272727E+00  0.0000000E+00  0.5050505E-02  0.1778414E-10  0.0000000E+00 -0.1967492E-04
  0.2373737E+00  0.0000000E+00  0.5050505E-02  0.1788232E-10  0.0000000E+00 -0.1967488E-04
  0.2474747E+00  0.0000000E+00  0.5050505E-02  0.1790331E-10  0.0000000E+00 -0.1967485E-04
  0.2575758E+00  0.0000000E+00  0.5050505E-02  0.1784634E-10  0.0000000E+00 -0.1967481E-04
  0.2676768E+00  0.0000000E+00  0.5050505E-02  0.1771077E-10  0.0000000E+00 -0.1967478E-04
  0.2777778E+00  0.0000000E+00  0.5050505E-02  0.1749609E-10  0.0000000E+00 -0.1967474E-04
  0.2878788E+00  0.0000000E+00  0.5050505E-02  0.1720196E-10  0.0000000E+00 -0.1967471E-04
  0.2979798E+00  0.0000000E+00  0.5050505E-02  0.1682836E-10  0.0000000E+00 -0.1967467E-04
  0.3080808E+00  0.0000000E+00  0.5050505E-02  0.1637557E-10  0.0000000E+00 -0.1967464E-04
  0.3181818E+00  0.0000000E+00  0.5050505E-02  0.1584438E-10  0.0000000E+00 -0.1967461E-04
  0.3282828E+00  0.0000000E+00  0.5050505E-02  0.1523608E-10  0.0000000E+00 -0.1967458E-04
  0.3383838E+00  0.0000000E+00  0.5050505E-02  0.1455252E-10  0.0000000E+00 -0.1967455E-04
  0.3484848E+00  0.0000000E+00  0.5050505E-02  0.1379619E-10  0.0000000E+00 -0.1967452E-04
  0.3585859E+00  0.0000000E+00  0.5050505E-02  0.1297013E-10  0.0000000E+00 -0.1967449E-04
  0.3686869E+00  0.0000000E+00  0.5050505E-02  0.1207803E-10  0.0000000E+00 -0.1967446E-04
  0.3787879E+00  0.0000000E+00  0.5050505E-02  0.1112411E-10  0.0000000E+00 -0.1967444E-04
  0.3888889E+00  0.0000000E+00  0.5050505E-02  0.1011310E-10  0.0000000E+00 -0.1967442E-04
  0.3989899E+00  0.0000000E+00  0.5050505E-02  0.9050150E-11  0.0000000E+00 -0.1967440E-04
  0.4090909E+00  0.0000000E+00  0.5050505E-02  0.7940775E-11  0.0000000E+00 -0.1967438E-04
  0.4191919E+00  0.0000000E+00  0.5050505E-02  0.6790813E-11  0.0000000E+00 -0.1967437E-04
  0.4292929E+00  0.0000000E+00  0.5050505E-02  0.5606309E-11  0.0000000E+00 -0.1967436E-04
  0.4393939E+00  0.0000000E+00  0.5050505E-02  0.4393276E-11  0.0000000E+00 -0.1967435E-04
  0.4494950E+00  0.0000000E+00  0.5050505E-02  0.3157367E-11  0.0000000E+00 -0.1967434E-04
  0.4595959E+00  0.0000000E+00  0.5050505E-02  0.1903766E-11  0.0000000E+00 -0.1967433E-04
  0.4696970E+00  0.0000000E+00  0.5050505E-02  0.6371884E-12  0.0000000E+00 -0.1967433E-04
  0.4797980E+00  0.0000000E+00  0.5050505E-02 -0.6762652E-12  0.0000000E+00 -0.1967433E-04
  0.4898990E+00  0.0000000E+00  0.5050505E-02 -0.1981108E-11  0.0000000E+00 -0.1967433E-04
  0.5000000E+00  0.0000000E+00  0.5050505E-02 -0.3248651E-11  0.0000000E+00 -0.1967434E-04
  0.5101010E+00  0.0000000E+00  0.5050505E-02 -0.4506285E-11  0.0000000E+00 -0.1967435E-04
  0.5202020E+00  0.0000000E+00  0.5050505E-02 -0.5755456E-11  0.0000000E+00 -0.1967436E-04
  0.5303030E+00  0.0000000E+00  0.5050505E-02 -0.6993875E-11  0.0000000E+00 -0.1967437E-04
  0.5404040E+00  0.0000000E+00  0.5050505E-02 -0.8195388E-11  0.0000000E+00 -0.1967439E-04
  0.5505050E+00  0.0000000E+00  0.5050505E-02 -0.9376934E-11  0.0000000E+00 -0.1967440E-04
  0.5606061E+00  0.0000000E+00  0.5050505E-02 -0.1052073E-10  0.0000000E+00 -0.1967442E-04
  0.5707071E+00  0.0000000E+00  0.5050505E-02 -0.1161702E-10  0.0000000E+00 -0.1967445E-04
  0.5808081E+00  0.0000000E+00  0.5050505E-02 -0.1266979E-10  0.0000000E+00 -0.1967447E-04
  0.5909091E+00  0.0000000E+00  0.5050505E-02 -0.1366993E-10  0.0000000E+00 -0.1967450E-04
  0.6010101E+00  0.0000000E+00  0.5050505E-02 -0.1461090E-10  0.0000000E+00 -0.1967452E-04
  0.6111111E+00  0.0000000E+00  0.5050505E-02 -0.1549007E-10  0.0000000E+00 -0.1967455E-04
  0.6212121E+00  0.0000000E+00  0.5050505E-02 -0.1630379E-10  0.0000000E+00 -0.1967459E-04
  0.6313131E+00  0.0000000E+00  0.5050505E-02 -0.1704802E-10  0.0000000E+00 -0.1967462E-04
  0.6414142E+00  0.0000000E+00  0.5050505E-02 -0.1771985E-10  0.0000000E+00 -0.1967465E-04
  0.6515151E+00  0.0000000E+00  0.5050505E-02 -0.1831733E-10  0.0000000E+00 -0.1967469E-04
  0.6616161E+00  0.0000000E+00  0.5050505E-02 -0.1883894E-10  0.0000000E+00 -0.1967473E-04
  0.6717172E+00  0.0000000E+00  0.5050505E-02 -0.1928364E-10  0.0000000E+00 -0.1967477E-04
  0.6818182E+00  0.0000000E+00  0.5050505E-02 -0.1965095E-10  0.0000000E+00 -0.1967481E-04
  0.6919192E+00  0.0000000E+00  0.5050505E-02 -0.1994092E-10  0.0000000E+00 -0.1967485E-04
  0.7020202E+00  0.0000000E+00  0.5050505E-02 -0.2015397E-10  0.0000000E+00 -0.1967489E-04
  0.7121212E+00  0.0000000E+00  0.5050505E-02 -0.2029082E-10  0.0000000E+00 -0.1967493E-04
  0.7222222E+00  0.0000000E+00  0.5050505E-02 -0.2035248E-10  0.0000000E+00 -0.1967497E-04
  0.7323232E+00  0.0000000E+00  0.5050505E-02 -0.2034010E-10  0.0000000E+00 -0.1967501E-04
  0.7424242E+00  0.0000000E+00  0.5050505E-02 -0.2025501E-10  0.0000000E+00 -0.1967505E-04
  0.7525253E+00  0.0000000E+00  0.5050505E-02 -0.2009858E-10  0.0000000E+00 -0.1967509E-04
  0.7626263E+00  0.0000000E+00  0.5050505E-02 -0.1987221E-10  0.0000000E+00 -0.1967513E-04
  0.7727273E+00  0.0000000E+00  0.5050505E-02 -0.1957734E-10  0.0000000E+00 -0.1967517E-04
  0.7828283E+00  0.0000000E+00  0.5050505E-02 -0.1921549E-10  0.0000000E+00 -0.1967521E-04
  0.7929293E+00  0.0000000E+00  0.5050505E-02 -0.1878824E-10  0.0000000E+00 -0.1967525E-04
  0.8030303E+00  0.0000000E+00  0.5050505E-02 -0.1829730E-10  0.0000000E+00 -0.1967528E-04
  0.8131313E+00  0.0000000E+00  0.5050505E-02 -0.1774455E-10  0.0000000E+00 -0.1967532E-04
  0.8232324E+00  0.0000000E+00  0.5050505E-02 -0.1713203E-10  0.0000000E+00 -0.1967535E-04
  0.8333333E+00  0.0000000E+00  0.5050505E-02 -0.1646201E-10  0.0000000E+00 -0.1967539E-04
  0.8434343E+00  0.0000000E+00  0.5050505E-02 -0.1573702E-10  0.0000000E+00 -0.1967542E-04
  0.8535354E+00  0.0000000E+00  0.5050505E-02 -0.1495986E-10  0.0000000E+00 -0.1967545E-04
  0.8636364E+00  0.0000000E+00  0.5050505E-02 -0.1413358E-10  0.0000000E+00 -0.1967548E-04
  0.8737374E+00  0.0000000E+00  0.5050505E-02 -0.1326153E-10  0.0000000E+00 -0.1967551E-04
  0.8838384E+00  0.0000000E+00  0.5050505E-02 -0.1234727E-10  0.0000000E+00 -0.1967553E-04
  0.8939394E+00  0.0000000E+00  0.5050505E-02 -0.1139457E-10  0.0000000E+00 -0.1967556E-04
  0.9040404E+00  0.0000000E+00  0.5050505E-02 -0.1040730E-10  0.0000000E+00 -0.1967558E-04
  0.9141414E+00  0.0000000E+00  0.5050505E-02 -0.9389431E-11  0.0000000E+00 -0.1967560E-04
  0.9242424E+00  0.0000000E+00  0.5050505E-02 -0.8344957E-11  0.0000000E+00 -0.1967562E-04
  0.9343435E+00  0.0000000E+00  0.5050505E-02 -0.7277842E-11  0.0000000E+00 -0.1967563E-04
  0.9444444E+00  0.0000000E+00  0.5050505E-02 -0.6191997E-11  0.0000000E+00 -0.1967564E-04
  0.9545454E+00  0.0000000E+00  0.5050505E-02 -0.5091403E-11  0.0000000E+00 -0.1967566E-04
  0.9646465E+00  0.0000000E+00  0.5050505E-02 -0.3980139E-11  0.0000000E+00 -0.1967567E-04
  0.9747475E+00  0.0000000E+00  0.5050505E-02 -0.2862640E-11  0.0000000E+00 -0.1967567E-04
  0.9848485E+00  0.0000000E+00  0.5050505E-02 -0.1744920E-11  0.0000000E+00 -0.1967568E-04
  0.9974747E+00  0.0000000E+00  0.5050505E-02 -0.6382657E-12  0.0000000E+00 -0.1967568E-04
  0.5050505E-02  0.0000000E+00  0.1515152E-01  0.1568288E-11  0.0000000E+00 -0.1963314E-04
  0.1515152E-01  0.0000000E+00  0.1515152E-01  0.5005540E-11  0.0000000E+00 -0.1963314E-04
  0.2525252E-01  0.0000000E+00  0.1515152E-01  0.8458306E-11  0.0000000E+00 -0.1963314E-04
  0.3535353E-01  0.0000000E+00  0.1515152E-01  0.1182971E-10  0.0000000E+00 -0.1963313E-04
  0.4545455E-01  0.0000000E+00  0.1515152E-01  0.1514925E-10  0.0000000E+00 -0.1963312E-04
  0.5555556E-01  0.0000000E+00  0.1515152E-01  0.1843473E-10  0.0000000E+00 -0.1963311E-04
  0.6565657E-01  0.0000000E+00  0.1515152E-01  0.2161860E-10  0.0000000E+00 -0.1963310E-04
  0.7575758E-01  0.0000000E+00  0.1515152E-01  0.2474643E-10  0.0000000E+00 -0.1963308E-04
  0.8585858E-01  0.0000000E+00  0.1515152E-01  0.2778182E-10  0.0000000E+00 -0.1963306E-04
  0.9595960E-01  0.0000000E+00  0.1515152E-01  0.3069682E-10  0.0000000E+00 -0.1963304E-04
  0.1060606E+00  0.0000000E+00  0.1515152E-01  0.3350089E-10  0.0000000E+00 -0.1963302E-04
  0.1161616E+00  0.0000000E+00  0.1515152E-01  0.3617233E-10  0.0000000E+00 -0.1963300E-04
  0.1262626E+00  0.0000000E+00  0.1515152E-01  0.3869290E-10  0.0000000E+00 -0.1963297E-04
  0.1363636E+00  0.0000000E+00  0.1515152E-01  0.4105408E-10  0.0000000E+00 -0.1963295E-04
  0.1464646E+00  0.0000000E+00  0.1515152E-01  0.4324496E-10  0.0000000E+00 -0.1963292E-04
  0.1565657E+00  0.0000000E+00  0.1515152E-01  0.4525316E-10  0.0000000E+00 -0.1963289E-04
  0.1666667E+00  0.0000000E+00  0.1515152E-01  0.4706874E-10  0.0000000E+00 -0.1963286E-04
  0.1767677E+00  0.0000000E+00  0.1515152E-01  0.4868389E-10  0.0000000E+00 -0.1963282E-04
  0.1868687E+00  0.0000000E+00  0.1515152E-01  0.5009162E-10  0.0000000E+00 -0.1963279E-04
  0.1969697E+00  0.0000000E+00  0.1515152E-01  0.5128579E-10  0.0000000E+00 -0.1963276E-04
  0.2070707E+00  0.0000000E+00  0.1515152E-01  0.5226128E-10  0.0000000E+00 -0.1963272E-04
  0.2171717E+00  0.0000000E+00  0.1515152E-01  0.5301390E-10  0.0000000E+00 -0.1963269E-04
  0.2272727E+00  0.0000000E+00  0.1515152E-01  0.5354003E-10  0.0000000E+00 -0.1963265E-04
  0.2373737E+00  0.0000000E+00  0.1515152E-01  0.5383653E-10  0.0000000E+00 -0.1963261E-04
  0.2474747E+00  0.0000000E+00  0.1515152E-01  0.5390066E-10  0.0000000E+00 -0.1963258E-04
  0.2575758E+00  0.0000000E+00  0.1515152E-01  0.5373010E-10  0.0000000E+00 -0.1963254E-04
  0.2676768E+00  0.0000000E+00  0.1515152E-01  0.5332284E-10  0.0000000E+00 -0.1963251E-04
  0.2777778E+00  0.0000000E+00  0.1515152E-01  0.5267732E-10  0.0000000E+00 -0.1963247E-04
  0.2878788E+00  0.0000000E+00  0.1515152E-01  0.5179255E-10  0.0000000E+00 -0.1963243E-04
  0.2979798E+00  0.0000000E+00  0.1515152E-01  0.5066838E-10  0.0000000E+00 -0.1963240E-04
  0.3080808E+00  0.0000000E+00  0.1515152E-01  0.4930575E-10  0.0000000E+00 -0.1963237E-04
  0.3181818E+00  0.0000000E+00  0.1515152E-01  0.4770700E-10  0.0000000E+00 -0.1963233E-04
  0.3282828E+00  0.0000000E+00  0.1515152E-01  0.4587600E-10  0.0000000E+00 -0.1963230E-04
  0.3383838E+00  0.0000000E+00  0.1515152E-01  0.4381839E-10  0.0000000E+00 -0.1963227E-04
  0.3484848E+00  0.0000000E+00  0.1515152E-01  0.4154158E-10  0.0000000E+00 -0.1963224E-04
  0.3585859E+00  0.0000000E+00  0.1515152E-01  0.3905483E-10  0.0000000E+00 -0.1963222E-04
  0.3686869E+00  0.0000000E+00  0.1515152E-01  0.3636919E-10  0.0000000E+00 -0.1963219E-04
  0.3787879E+00  0.0000000E+00  0.1515152E-01  0.3349737E-10  0.0000000E+00 -0.1963217E-04
  0.3888889E+00  0.0000000E+00  0.1515152E-01  0.3045361E-10  0.0000000E+00 -0.1963214E-04
  0.3989899E+00  0.0000000E+00  0.1515152E-01  0.2725341E-10  0.0000000E+00 -0.1963213E-04
  0.4090909E+00  0.0000000E+00  0.1515152E-01  0.2391336E-10  0.0000000E+00 -0.1963211E-04
  0.4191919E+00  0.0000000E+00  0.1515152E-01  0.2045099E-10  0.0000000E+00 -0.1963209E-04
  0.4292929E+00  0.0000000E+00  0.1515152E-01  0.1688468E-10  0.0000000E+00 -0.1963208E-04
  0.4393939E+00  0.0000000E+00  0.1515152E-01  0.1323289E-10  0.0000000E+00 -0.1963207E-04
  0.4494950E+00  0.0000000E+00  0.1515152E-01  0.9512297E-11  0.0000000E+00 -0.1963206E-04
  0.4595959E+00  0.0000000E+00  0.1515152E-01  0.5736230E-11  0.0000000E+00 -0.1963206E-04
  0.4696970E+00  0.0000000E+00  0.1515152E-01  0.1907926E-11  0.0000000E+00 -0.1963205E-04
  0.4797980E+00  0.0000000E+00  0.1515152E-01 -0.2031409E-11  0.0000000E+00 -0.1963205E-04
  0.4898990E+00  0.0000000E+00  0.1515152E-01 -0.5942819E-11  0.0000000E+00 -0.1963206E-04
  0.5000000E+00  0.0000000E+00  0.1515152E-01 -0.9766836E-11  0.0000000E+00 -0.1963206E-04
  0.5101010E+00  0.0000000E+00  0.1515152E-01 -0.1356280E-10  0.0000000E+00 -0.1963207E-04
  0.5202020E+00  0.0000000E+00  0.1515152E-01 -0.1731960E-10  0.0000000E+00 -0.1963208E-04
  0.5303030E+00  0.0000000E+00  0.1515152E-01 -0.2104904E-10  0.0000000E+00 -0.1963209E-04
  0.5404040E+00  0.0000000E+00  0.1515152E-01 -0.2467233E-10  0.0000000E+00 -0.1963211E-04
  0.5505050E+00  0.0000000E+00  0.1515152E-01 -0.2822426E-10  0.0000000E+00 -0.1963213E-04
  0.5606061E+00  0.0000000E+00  0.1515152E-01 -0.3166769E-10  0.0000000E+00 -0.1963215E-04
  0.5707071E+00  0.0000000E+00  0.1515152E-01 -0.3497088E-10  0.0000000E+00 -0.1963217E-04
  0.5808081E+00  0.0000000E+00  0.1515152E-01 -0.3813877E-10  0.0000000E+00 -0.1963219E-04
  0.5909091E+00  0.0000000E+00  0.1515152E-01 -0.4114860E-10  0.0000000E+00 -0.1963222E-04
  0.6010101E+00  0.0000000E+00  0.1515152E-01 -0.4398159E-10  0.0000000E+00 -0.1963225E-04
  0.6111111E+00  0.0000000E+00  0.1515152E-01 -0.4662805E-10  0.0000000E+00 -0.1963228E-04
  0.6212121E+00  0.0000000E+00  0.1515152E-01 -0.4907687E-10  0.0000000E+00 -0.1963231E-04
  0.6313131E+00  0.0000000E+00  0.1515152E-01 -0.5131657E-10  0.0000000E+00 -0.1963235E-04
  0.6414142E+00  0.0000000E+00  0.1515152E-01 -0.5333846E-10  0.0000000E+00 -0.1963238E-04
  0.6515151E+00  0.0000000E+00  0.1515152E-01 -0.5513645E-10  0.0000000E+00 -0.1963242E-04
  0.6616161E+00  0.0000000E+00  0.1515152E-01 -0.5670597E-10  0.0000000E+00 -0.1963246E-04
  0.6717172E+00  0.0000000E+00  0.1515152E-01 -0.5804396E-10  0.0000000E+00 -0.1963250E-04
  0.6818182E+00  0.0000000E+00  0.1515152E-01 -0.5914902E-10  0.0000000E+00 -0.1963253E-04
  0.6919192E+00  0.0000000E+00  0.1515152E-01 -0.6002124E-10  0.0000000E+00 -0.1963258E-04
  0.7020202E+00  0.0000000E+00  0.1515152E-01 -0.6066189E-10  0.0000000E+00 -0.1963262E-04
  0.7121212E+00  0.0000000E+00  0.1515152E-01 -0.6107318E-10  0.0000000E+00 -0.1963266E-04
  0.7222222E+00  0.0000000E+00  0.1515152E-01 -0.6125810E-10  0.0000000E+00 -0.1963270E-04
  0.7323232E+00  0.0000000E+00  0.1515152E-01 -0.6122020E-10  0.0000000E+00 -0.1963274E-04
  0.7424242E+00  0.0000000E+00  0.1515152E-01 -0.6096341E-10  0.0000000E+00 -0.1963278E-04
  0.7525253E+00  0.0000000E+00  0.1515152E-01 -0.6049185E-10  0.0000000E+00 -0.1963282E-04
  0.7626263E+00  0.0000000E+00  0.1515152E-01 -0.5980975E-10  0.0000000E+00 -0.1963286E-04
  0.7727273E+00  0.0000000E+00  0.1515152E-01 -0.5892148E-10  0.0000000E+00 -0.1963290E-04
  0.7828283E+00  0.0000000E+00  0.1515152E-01 -0.5783156E-10  0.0000000E+00 -0.1963294E-04
  0.7929293E+00  0.0000000E+00  0.1515152E-01 -0.5654484E-10  0.0000000E+00 -0.1963298E-04
  0.8030303E+00  0.0000000E+00  0.1515152E-01 -0.5506647E-10  0.0000000E+00 -0.1963302E-04
  0.8131313E+00  0.0000000E+00  0.1515152E-01 -0.5340210E-10  0.0000000E+00 -0.1963305E-04
  0.8232324E+00  0.0000000E+00  0.1515152E-01 -0.5155789E-10  0.0000000E+00 -0.1963309E-04
  0.8333333E+00  0.0000000E+00  0.1515152E-01 -0.4954072E-10  0.0000000E+00 -0.1963312E-04
  0.8434343E+00  0.0000000E+00  0.1515152E-01 -0.4735818E-10  0.0000000E+00 -0.1963316E-04
  0.8535354E+00  0.0000000E+00  0.1515152E-01 -0.4501871E-10  0.0000000E+00 -0.1963319E-04
  0.8636364E+00  0.0000000E+00  0.1515152E-01 -0.4253156E-10  0.0000000E+00 -0.1963322E-04
  0.8737374E+00  0.0000000E+00  0.1515152E-01 -0.3990677E-10  0.0000000E+00 -0.1963324E-04
  0.8838384E+00  0.0000000E+00  0.1515152E-01 -0.3715509E-10  0.0000000E+00 -0.1963327E-04
  0.8939394E+00  0.0000000E+00  0.1515152E-01 -0.3428780E-10  0.0000000E+00 -0.1963330E-04
  0.9040404E+00  0.0000000E+00  0.1515152E-01 -0.3131659E-10  0.0000000E+00 -0.1963332E-04
  0.9141414E+00  0.0000000E+00  0.1515152E-01 -0.2825335E-10  0.0000000E+00 -0.1963334E-04
  0.9242424E+00  0.0000000E+00  0.1515152E-01 -0.2511004E-10  0.0000000E+00 -0.1963336E-04
  0.9343435E+00  0.0000000E+00  0.1515152E-01 -0.2189852E-10  0.0000000E+00 -0.1963337E-04
  0.9444444E+00  0.0000000E+00  0.1515152E-01 -0.1863047E-10  0.0000000E+00 -0.1963338E-04
  0.9545454E+00  0.0000000E+00  0.1515152E-01 -0.1531764E-10  0.0000000E+00 -0.1963340E-04
  0.9646465E+00  0.0000000E+00  0.1515152E-01 -0.1197204E-10  0.0000000E+00 -0.1963341E-04
  0.9747475E+00  0.0000000E+00  0.1515152E-01 -0.8605911E-11  0.0000000E+00 -0.1963341E-04
  0.9848485E+00  0.0000000E+00  0.1515152E-01 -0.5232808E-11  0.0000000E+00 -0.1963342E-04
  0.9974747E+00  0.0000000E+00  0.1515152E-01 -0.1869727E-11  0.0000000E+00 -0.1963342E-04
  0.5050505E-02  0.0000000E+00  0.2525252E-01  0.2696299E-11  0.0000000E+00 -0.1954889E-04
  0.1515152E-01  0.0000000E+00  0.2525252E-01  0.8418050E-11  0.0000000E+00 -0.1954888E-04
  0.2525252E-01  0.0000000E+00  0.2525252E-01  0.1419809E-10  0.0000000E+00 -0.1954888E-04
  0.3535353E-01  0.0000000E+00  0.2525252E-01  0.1986757E-10  0.0000000E+00 -0.1954887E-04
  0.4545455E-01  0.0000000E+00  0.2525252E-01  0.2543347E-10  0.0000000E+00 -0.1954886E-04
  0.5555556E-01  0.0000000E+00  0.2525252E-01  0.3094562E-10  0.0000000E+00 -0.1954885E-04
  0.6565657E-01  0.0000000E+00  0.2525252E-01  0.3630208E-10  0.0000000E+00 -0.1954884E-04
  0.7575758E-01  0.0000000E+00  0.2525252E-01  0.4154591E-10  0.0000000E+00 -0.1954882E-04
  0.8585858E-01  0.0000000E+00  0.2525252E-01  0.4664027E-10  0.0000000E+00 -0.1954880E-04
  0.9595960E-01  0.0000000E+00  0.2525252E-01  0.5153920E-10  0.0000000E+00 -0.1954878E-04
  0.1060606E+00  0.0000000E+00  0.2525252E-01  0.5624556E-10  0.0000000E+00 -0.1954876E-04
  0.1161616E+00  0.0000000E+00  0.2525252E-01  0.6072969E-10  0.0000000E+00 -0.1954874E-04
  0.1262626E+00  0.0000000E+00  0.2525252E-01  0.6496318E-10  0.0000000E+00 -0.1954871E-04
  0.1363636E+00  0.0000000E+00  0.2525252E-01  0.6892881E-10  0.0000000E+00 -0.1954868E-04
  0.1464646E+00  0.0000000E+00  0.2525252E-01  0.7260794E-10  0.0000000E+00 -0.1954865E-04
  0.1565657E+00  0.0000000E+00  0.2525252E-01  0.7598088E-10  0.0000000E+00 -0.1954862E-04
  0.1666667E+00  0.0000000E+00  0.2525252E-01  0.7903110E-10  0.0000000E+00 -0.1954859E-04
  0.1767677E+00  0.0000000E+00  0.2525252E-01  0.8174510E-10  0.0000000E+00 -0.1954856E-04
  0.1868687E+00  0.0000000E+00  0.2525252E-01  0.8411108E-10  0.0000000E+00 -0.1954852E-04
  0.1969697E+00  0.0000000E+00  0.2525252E-01  0.8611879E-10  0.0000000E+00 -0.1954849E-04
  0.2070707E+00  0.0000000E+00  0.2525252E-01  0.8775962E-10  0.0000000E+00 -0.1954845E-04
  0.2171717E+00  0.0000000E+00  0.2525252E-01  0.8902639E-10  0.0000000E+00 -0.1954842E-04
  0.2272727E+00  0.0000000E+00  0.2525252E-01  0.8991293E-10  0.0000000E+00 -0.1954838E-04
  0.2373737E+00  0.0000000E+00  0.2525252E-01  0.9041391E-10  0.0000000E+00 -0.1954834E-04
  0.2474747E+00  0.0000000E+00  0.2525252E-01  0.9052467E-10  0.0000000E+00 -0.1954830E-04
  0.2575758E+00  0.0000000E+00  0.2525252E-01  0.9024121E-10  0.0000000E+00 -0.1954827E-04
  0.2676768E+00  0.0000000E+00  0.2525252E-01  0.8956007E-10  0.0000000E+00 -0.1954823E-04
  0.2777778E+00  0.0000000E+00  0.2525252E-01  0.8847855E-10  0.0000000E+00 -0.1954819E-04
  0.2878788E+00  0.0000000E+00  0.2525252E-01  0.8699496E-10  0.0000000E+00 -0.1954816E-04
  0.2979798E+00  0.0000000E+00  0.2525252E-01  0.8510903E-10  0.0000000E+00 -0.1954812E-04
  0.3080808E+00  0.0000000E+00  0.2525252E-01  0.8282237E-10  0.0000000E+00 -0.1954809E-04
  0.3181818E+00  0.0000000E+00  0.2525252E-01  0.8013892E-10  0.0000000E+00 -0.1954805E-04
  0.3282828E+00  0.0000000E+00  0.2525252E-01  0.7706521E-10  0.0000000E+00 -0.1954802E-04
  0.3383838E+00  0.0000000E+00  0.2525252E-01  0.7361071E-10  0.0000000E+00 -0.1954799E-04
  0.3484848E+00  0.0000000E+00  0.2525252E-01  0.6978790E-10  0.0000000E+00 -0.1954796E-04
  0.3585859E+00  0.0000000E+00  0.2525252E-01  0.6561235E-10  0.0000000E+00 -0.1954793E-04
  0.3686869E+00  0.0000000E+00  0.2525252E-01  0.6110260E-10  0.0000000E+00 -0.1954791E-04
  0.3787879E+00  0.0000000E+00  0.2525252E-01  0.5627999E-10  0.0000000E+00 -0.1954788E-04
  0.3888889E+00  0.0000000E+00  0.2525252E-01  0.5116836E-10  0.0000000E+00 -0.1954786E-04
  0.3989899E+00  0.0000000E+00  0.2525252E-01  0.4579374E-10  0.0000000E+00 -0.1954784E-04
  0.4090909E+00  0.0000000E+00  0.2525252E-01  0.4018389E-10  0.0000000E+00 -0.1954782E-04
  0.4191919E+00  0.0000000E+00  0.2525252E-01  0.3436808E-10  0.0000000E+00 -0.1954781E-04
  0.4292929E+00  0.0000000E+00  0.2525252E-01  0.2837722E-10  0.0000000E+00 -0.1954779E-04
  0.4393939E+00  0.0000000E+00  0.2525252E-01  0.2224318E-10  0.0000000E+00 -0.1954778E-04
  0.4494950E+00  0.0000000E+00  0.2525252E-01  0.1599394E-10  0.0000000E+00 -0.1954778E-04
  0.4595959E+00  0.0000000E+00  0.2525252E-01  0.9648354E-11  0.0000000E+00 -0.1954777E-04
  0.4696970E+00  0.0000000E+00  0.2525252E-01  0.3195989E-11  0.0000000E+00 -0.1954777E-04
  0.4797980E+00  0.0000000E+00  0.2525252E-01 -0.3391219E-11  0.0000000E+00 -0.1954777E-04
  0.4898990E+00  0.0000000E+00  0.2525252E-01 -0.9931122E-11  0.0000000E+00 -0.1954777E-04
  0.5000000E+00  0.0000000E+00  0.2525252E-01 -0.1636310E-10  0.0000000E+00 -0.1954778E-04
  0.5101010E+00  0.0000000E+00  0.2525252E-01 -0.2275896E-10  0.0000000E+00 -0.1954778E-04
  0.5202020E+00  0.0000000E+00  0.2525252E-01 -0.2906832E-10  0.0000000E+00 -0.1954779E-04
  0.5303030E+00  0.0000000E+00  0.2525252E-01 -0.3532894E-10  0.0000000E+00 -0.1954781E-04
  0.5404040E+00  0.0000000E+00  0.2525252E-01 -0.4142528E-10  0.0000000E+00 -0.1954782E-04
  0.5505050E+00  0.0000000E+00  0.2525252E-01 -0.4738439E-10  0.0000000E+00 -0.1954784E-04
  0.5606061E+00  0.0000000E+00  0.2525252E-01 -0.5316527E-10  0.0000000E+00 -0.1954786E-04
  0.5707071E+00  0.0000000E+00  0.2525252E-01 -0.5871637E-10  0.0000000E+00 -0.1954789E-04
  0.5808081E+00  0.0000000E+00  0.2525252E-01 -0.6403405E-10  0.0000000E+00 -0.1954791E-04
  0.5909091E+00  0.0000000E+00  0.2525252E-01 -0.6908606E-10  0.0000000E+00 -0.1954794E-04
  0.6010101E+00  0.0000000E+00  0.2525252E-01 -0.7384285E-10  0.0000000E+00 -0.1954797E-04
  0.6111111E+00  0.0000000E+00  0.2525252E-01 -0.7828562E-10  0.0000000E+00 -0.1954800E-04
  0.6212121E+00  0.0000000E+00  0.2525252E-01 -0.8239554E-10  0.0000000E+00 -0.1954803E-04
  0.6313131E+00  0.0000000E+00  0.2525252E-01 -0.8615424E-10  0.0000000E+00 -0.1954807E-04
  0.6414142E+00  0.0000000E+00  0.2525252E-01 -0.8954733E-10  0.0000000E+00 -0.1954810E-04
  0.6515151E+00  0.0000000E+00  0.2525252E-01 -0.9256431E-10  0.0000000E+00 -0.1954814E-04
  0.6616161E+00  0.0000000E+00  0.2525252E-01 -0.9519751E-10  0.0000000E+00 -0.1954818E-04
  0.6717172E+00  0.0000000E+00  0.2525252E-01 -0.9744191E-10  0.0000000E+00 -0.1954822E-04
  0.6818182E+00  0.0000000E+00  0.2525252E-01 -0.9929520E-10  0.0000000E+00 -0.1954826E-04
  0.6919192E+00  0.0000000E+00  0.2525252E-01 -0.1007575E-09  0.0000000E+00 -0.1954830E-04
  0.7020202E+00  0.0000000E+00  0.2525252E-01 -0.1018309E-09  0.0000000E+00 -0.1954834E-04
  0.7121212E+00  0.0000000E+00  0.2525252E-01 -0.1025192E-09  0.0000000E+00 -0.1954838E-04
  0.7222222E+00  0.0000000E+00  0.2525252E-01 -0.1028274E-09  0.0000000E+00 -0.1954843E-04
  0.7323232E+00  0.0000000E+00  0.2525252E-01 -0.1027615E-09  0.0000000E+00 -0.1954847E-04
  0.7424242E+00  0.0000000E+00  0.2525252E-01 -0.1023280E-09  0.0000000E+00 -0.1954851E-04
  0.7525253E+00  0.0000000E+00  0.2525252E-01 -0.1015339E-09  0.0000000E+00 -0.1954855E-04
  0.7626263E+00  0.0000000E+00  0.2525252E-01 -0.1003863E-09  0.0000000E+00 -0.1954860E-04
  0.7727273E+00  0.0000000E+00  0.2525252E-01 -0.9889257E-10  0.0000000E+00 -0.1954864E-04
  0.7828283E+00  0.0000000E+00  0.2525252E-01 -0.9706039E-10  0.0000000E+00 -0.1954868E-04
  0.7929293E+00  0.0000000E+00  0.2525252E-01 -0.9489793E-10  0.0000000E+00 -0.1954872E-04
  0.8030303E+00  0.0000000E+00  0.2525252E-01 -0.9241392E-10  0.0000000E+00 -0.1954875E-04
  0.8131313E+00  0.0000000E+00  0.2525252E-01 -0.8961786E-10  0.0000000E+00 -0.1954879E-04
  0.8232324E+00  0.0000000E+00  0.2525252E-01 -0.8652021E-10  0.0000000E+00 -0.1954883E-04
  0.8333333E+00  0.0000000E+00  0.2525252E-01 -0.8313252E-10  0.0000000E+00 -0.1954886E-04
  0.8434343E+00  0.0000000E+00  0.2525252E-01 -0.7946762E-10  0.0000000E+00 -0.1954890E-04
  0.8535354E+00  0.0000000E+00  0.2525252E-01 -0.7553972E-10  0.0000000E+00 -0.1954893E-04
  0.8636364E+00  0.0000000E+00  0.2525252E-01 -0.7136437E-10  0.0000000E+00 -0.1954896E-04
  0.8737374E+00  0.0000000E+00  0.2525252E-01 -0.6695843E-10  0.0000000E+00 -0.1954899E-04
  0.8838384E+00  0.0000000E+00  0.2525252E-01 -0.6233994E-10  0.0000000E+00 -0.1954901E-04
  0.8939394E+00  0.0000000E+00  0.2525252E-01 -0.5752781E-10  0.0000000E+00 -0.1954904E-04
  0.9040404E+00  0.0000000E+00  0.2525252E-01 -0.5254158E-10  0.0000000E+00 -0.1954906E-04
  0.9141414E+00  0.0000000E+00  0.2525252E-01 -0.4740108E-10  0.0000000E+00 -0.1954908E-04
  0.9242424E+00  0.0000000E+00  0.2525252E-01 -0.4212620E-10  0.0000000E+00 -0.1954910E-04
  0.9343435E+00  0.0000000E+00  0.2525252E-01 -0.3673663E-10  0.0000000E+00 -0.1954912E-04
  0.9444444E+00  0.0000000E+00  0.2525252E-01 -0.3125160E-10  0.0000000E+00 -0.1954913E-04
  0.9545454E+00  0.0000000E+00  0.2525252E-01 -0.2569009E-10  0.0000000E+00 -0.1954914E-04
  0.9646465E+00  0.0000000E+00  0.2525252E-01 -0.2007151E-10  0.0000000E+00 -0.1954915E-04
  0.9747475E+00  0.0000000E+00  0.2525252E-01 -0.1441475E-10  0.0000000E+00 -0.1954916E-04
  0.9848485E+00  0.0000000E+00  0.2525252E-01 -0.8735551E-11  0.0000000E+00 -0.1954916E-04
  0.9974747E+00  0.0000000E+00  0.2525252E-01 -0.3041447E-11  0.0000000E+00 -0.1954917E-04
  0.5050505E-02  0.0000000E+00  0.3535353E-01  0.3870245E-11  0.0000000E+00 -0.1942306E-04
  0.1515152E-01  0.0000000E+00  0.3535353E-01  0.1194327E-10  0.0000000E+00 -0.1942305E-04
  0.2525252E-01  0.0000000E+00  0.3535353E-01  0.2010442E-10  0.0000000E+00 -0.1942305E-04
  0.3535353E-01  0.0000000E+00  0.3535353E-01  0.2814084E-10  0.0000000E+00 -0.1942304E-04
  0.4545455E-01  0.0000000E+00  0.3535353E-01  0.3602591E-10  0.0000000E+00 -0.1942303E-04
  0.5555556E-01  0.0000000E+00  0.3535353E-01  0.4382215E-10  0.0000000E+00 -0.1942302E-04
  0.6565657E-01  0.0000000E+00  0.3535353E-01  0.5141656E-10  0.0000000E+00 -0.1942301E-04
  0.7575758E-01  0.0000000E+00  0.3535353E-01  0.5884017E-10  0.0000000E+00 -0.1942299E-04
  0.8585858E-01  0.0000000E+00  0.3535353E-01  0.6605158E-10  0.0000000E+00 -0.1942297E-04
  0.9595960E-01  0.0000000E+00  0.3535353E-01  0.7299317E-10  0.0000000E+00 -0.1942295E-04
  0.1060606E+00  0.0000000E+00  0.3535353E-01  0.7965857E-10  0.0000000E+00 -0.1942293E-04
  0.1161616E+00  0.0000000E+00  0.3535353E-01  0.8600913E-10  0.0000000E+00 -0.1942290E-04
  0.1262626E+00  0.0000000E+00  0.3535353E-01  0.9200690E-10  0.0000000E+00 -0.1942287E-04
  0.1363636E+00  0.0000000E+00  0.3535353E-01  0.9762575E-10  0.0000000E+00 -0.1942284E-04
  0.1464646E+00  0.0000000E+00  0.3535353E-01  0.1028389E-09  0.0000000E+00 -0.1942281E-04
  0.1565657E+00  0.0000000E+00  0.3535353E-01  0.1076192E-09  0.0000000E+00 -0.1942278E-04
  0.1666667E+00  0.0000000E+00  0.3535353E-01  0.1119434E-09  0.0000000E+00 -0.1942275E-04
  0.1767677E+00  0.0000000E+00  0.3535353E-01  0.1157921E-09  0.0000000E+00 -0.1942272E-04
  0.1868687E+00  0.0000000E+00  0.3535353E-01  0.1191485E-09  0.0000000E+00 -0.1942268E-04
  0.1969697E+00  0.0000000E+00  0.3535353E-01  0.1219980E-09  0.0000000E+00 -0.1942264E-04
  0.2070707E+00  0.0000000E+00  0.3535353E-01  0.1243283E-09  0.0000000E+00 -0.1942261E-04
  0.2171717E+00  0.0000000E+00  0.3535353E-01  0.1261291E-09  0.0000000E+00 -0.1942257E-04
  0.2272727E+00  0.0000000E+00  0.3535353E-01  0.1273913E-09  0.0000000E+00 -0.1942253E-04
  0.2373737E+00  0.0000000E+00  0.3535353E-01  0.1281075E-09  0.0000000E+00 -0.1942249E-04
  0.2474747E+00  0.0000000E+00  0.3535353E-01  0.1282706E-09  0.0000000E+00 -0.1942245E-04
  0.2575758E+00  0.0000000E+00  0.3535353E-01  0.1278751E-09  0.0000000E+00 -0.1942241E-04
  0.2676768E+00  0.0000000E+00  0.3535353E-01  0.1269156E-09  0.0000000E+00 -0.1942237E-04
  0.2777778E+00  0.0000000E+00  0.3535353E-01  0.1253885E-09  0.0000000E+00 -0.1942234E-04
  0.2878788E+00  0.0000000E+00  0.3535353E-01  0.1232911E-09  0.0000000E+00 -0.1942230E-04
  0.2979798E+00  0.0000000E+00  0.3535353E-01  0.1206232E-09  0.0000000E+00 -0.1942226E-04