title = "dataset water"
variables = "x", "y", "z", "vx", "vy", "vz"
zone t = "velocities, solution time =  1.600E+01 days        " i =   99, j =   99, k =    1,  f=point
  0.5050505E-02  0.0000000E+00  0.5050505E-02  0.1156045E-12  0.0000000E+00 -0.2583565E-04
  0.1515152E-01  0.0000000E+00  0.5050505E-02  0.3858694E-12  0.0000000E+00 -0.2583565E-04
  0.2525252E-01  0.0000000E+00  0.5050505E-02  0.6220726E-12  0.0000000E+00 -0.2583565E-04
  0.3535353E-01  0.0000000E+00  0.5050505E-02  0.8669267E-12  0.0000000E+00 -0.2583564E-04
  0.4545455E-01  0.0000000E+00  0.5050505E-02  0.1122881E-11  0.0000000E+00 -0.2583564E-04
  0.5555556E-01  0.0000000E+00  0.5050505E-02  0.1322360E-11  0.0000000E+00 -0.2583564E-04
  0.6565657E-01  0.0000000E+00  0.5050505E-02  0.1501581E-11  0.0000000E+00 -0.2583564E-04
  0.7575758E-01  0.0000000E+00  0.5050505E-02  0.1813665E-11  0.0000000E+00 -0.2583563E-04
  0.8585858E-01  0.0000000E+00  0.5050505E-02  0.2008330E-11  0.0000000E+00 -0.2583563E-04
  0.9595960E-01  0.0000000E+00  0.5050505E-02  0.2146230E-11  0.0000000E+00 -0.2583563E-04
  0.1060606E+00  0.0000000E+00  0.5050505E-02  0.2374469E-11  0.0000000E+00 -0.2583562E-04
  0.1161616E+00  0.0000000E+00  0.5050505E-02  0.2590377E-11  0.0000000E+00 -0.2583562E-04
  0.1262626E+00  0.0000000E+00  0.5050505E-02  0.2749885E-11  0.0000000E+00 -0.2583561E-04
  0.1363636E+00  0.0000000E+00  0.5050505E-02  0.2900960E-11  0.0000000E+00 -0.2583560E-04
  0.1464646E+00  0.0000000E+00  0.5050505E-02  0.3060812E-11  0.0000000E+00 -0.2583560E-04
  0.1565657E+00  0.0000000E+00  0.5050505E-02  0.3210884E-11  0.0000000E+00 -0.2583559E-04
  0.1666667E+00  0.0000000E+00  0.5050505E-02  0.3340169E-11  0.0000000E+00 -0.2583559E-04
  0.1767677E+00  0.0000000E+00  0.5050505E-02  0.3452471E-11  0.0000000E+00 -0.2583558E-04
  0.1868687E+00  0.0000000E+00  0.5050505E-02  0.3552473E-11  0.0000000E+00 -0.2583557E-04
  0.1969697E+00  0.0000000E+00  0.5050505E-02  0.3639567E-11  0.0000000E+00 -0.2583557E-04
  0.2070707E+00  0.0000000E+00  0.5050505E-02  0.3710941E-11  0.0000000E+00 -0.2583556E-04
  0.2171717E+00  0.0000000E+00  0.5050505E-02  0.3765034E-11  0.0000000E+00 -0.2583555E-04
  0.2272727E+00  0.0000000E+00  0.5050505E-02  0.3801838E-11  0.0000000E+00 -0.2583554E-04
  0.2373737E+00  0.0000000E+00  0.5050505E-02  0.3821687E-11  0.0000000E+00 -0.2583553E-04
  0.2474747E+00  0.0000000E+00  0.5050505E-02  0.3824578E-11  0.0000000E+00 -0.2583553E-04
  0.2575758E+00  0.0000000E+00  0.5050505E-02  0.3810240E-11  0.0000000E+00 -0.2583552E-04
  0.2676768E+00  0.0000000E+00  0.5050505E-02  0.3778476E-11  0.0000000E+00 -0.2583551E-04
  0.2777778E+00  0.0000000E+00  0.5050505E-02  0.3729325E-11  0.0000000E+00 -0.2583550E-04
  0.2878788E+00  0.0000000E+00  0.5050505E-02  0.3662999E-11  0.0000000E+00 -0.2583550E-04
  0.2979798E+00  0.0000000E+00  0.5050505E-02  0.3579788E-11  0.0000000E+00 -0.2583549E-04
  0.3080808E+00  0.0000000E+00  0.5050505E-02  0.3479970E-11  0.0000000E+00 -0.2583548E-04
  0.3181818E+00  0.0000000E+00  0.5050505E-02  0.3363836E-11  0.0000000E+00 -0.2583548E-04
  0.3282828E+00  0.0000000E+00  0.5050505E-02  0.3231709E-11  0.0000000E+00 -0.2583547E-04
  0.3383838E+00  0.0000000E+00  0.5050505E-02  0.3083947E-11  0.0000000E+00 -0.2583546E-04
  0.3484848E+00  0.0000000E+00  0.5050505E-02  0.2921000E-11  0.0000000E+00 -0.2583546E-04
  0.3585859E+00  0.0000000E+00  0.5050505E-02  0.2743371E-11  0.0000000E+00 -0.2583545E-04
  0.3686869E+00  0.0000000E+00  0.5050505E-02  0.2551648E-11  0.0000000E+00 -0.2583545E-04
  0.3787879E+00  0.0000000E+00  0.5050505E-02  0.2346511E-11  0.0000000E+00 -0.2583544E-04
  0.3888889E+00  0.0000000E+00  0.5050505E-02  0.2128725E-11  0.0000000E+00 -0.2583544E-04
  0.3989899E+00  0.0000000E+00  0.5050505E-02  0.1899155E-11  0.0000000E+00 -0.2583543E-04
  0.4090909E+00  0.0000000E+00  0.5050505E-02  0.1658942E-11  0.0000000E+00 -0.2583543E-04
  0.4191919E+00  0.0000000E+00  0.5050505E-02  0.1409675E-11  0.0000000E+00 -0.2583543E-04
  0.4292929E+00  0.0000000E+00  0.5050505E-02  0.1152982E-11  0.0000000E+00 -0.2583542E-04
  0.4393939E+00  0.0000000E+00  0.5050505E-02  0.8894385E-12  0.0000000E+00 -0.2583542E-04
  0.4494950E+00  0.0000000E+00  0.5050505E-02  0.6203959E-12  0.0000000E+00 -0.2583542E-04
  0.4595959E+00  0.0000000E+00  0.5050505E-02  0.3527265E-12  0.0000000E+00 -0.2583542E-04
  0.4696970E+00  0.0000000E+00  0.5050505E-02  0.8920779E-13  0.0000000E+00 -0.2583542E-04
  0.4797980E+00  0.0000000E+00  0.5050505E-02 -0.2563832E-12  0.0000000E+00 -0.2583542E-04
  0.4898990E+00  0.0000000E+00  0.5050505E-02 -0.5485257E-12  0.0000000E+00 -0.2583542E-04
  0.5000000E+00  0.0000000E+00  0.5050505E-02 -0.8028052E-12  0.0000000E+00 -0.2583542E-04
  0.5101010E+00  0.0000000E+00  0.5050505E-02 -0.1084515E-11  0.0000000E+00 -0.2583542E-04
  0.5202020E+00  0.0000000E+00  0.5050505E-02 -0.1376645E-11  0.0000000E+00 -0.2583542E-04
  0.5303030E+00  0.0000000E+00  0.5050505E-02 -0.1560394E-11  0.0000000E+00 -0.2583543E-04
  0.5404040E+00  0.0000000E+00  0.5050505E-02 -0.1908857E-11  0.0000000E+00 -0.2583543E-04
  0.5505050E+00  0.0000000E+00  0.5050505E-02 -0.2160018E-11  0.0000000E+00 -0.2583544E-04
  0.5606061E+00  0.0000000E+00  0.5050505E-02 -0.2327491E-11  0.0000000E+00 -0.2583544E-04
  0.5707071E+00  0.0000000E+00  0.5050505E-02 -0.2576219E-11  0.0000000E+00 -0.2583544E-04
  0.5808081E+00  0.0000000E+00  0.5050505E-02 -0.2862674E-11  0.0000000E+00 -0.2583545E-04
  0.5909091E+00  0.0000000E+00  0.5050505E-02 -0.3060625E-11  0.0000000E+00 -0.2583546E-04
  0.6010101E+00  0.0000000E+00  0.5050505E-02 -0.3215579E-11  0.0000000E+00 -0.2583546E-04
  0.6111111E+00  0.0000000E+00  0.5050505E-02 -0.3396303E-11  0.0000000E+00 -0.2583547E-04
  0.6212121E+00  0.0000000E+00  0.5050505E-02 -0.3587954E-11  0.0000000E+00 -0.2583548E-04
  0.6313131E+00  0.0000000E+00  0.5050505E-02 -0.3753057E-11  0.0000000E+00 -0.2583548E-04
  0.6414142E+00  0.0000000E+00  0.5050505E-02 -0.3885298E-11  0.0000000E+00 -0.2583549E-04
  0.6515151E+00  0.0000000E+00  0.5050505E-02 -0.3997869E-11  0.0000000E+00 -0.2583550E-04
  0.6616161E+00  0.0000000E+00  0.5050505E-02 -0.4098861E-11  0.0000000E+00 -0.2583551E-04
  0.6717172E+00  0.0000000E+00  0.5050505E-02 -0.4186608E-11  0.0000000E+00 -0.2583552E-04
  0.6818182E+00  0.0000000E+00  0.5050505E-02 -0.4257001E-11  0.0000000E+00 -0.2583552E-04
  0.6919192E+00  0.0000000E+00  0.5050505E-02 -0.4308597E-11  0.0000000E+00 -0.2583553E-04
  0.7020202E+00  0.0000000E+00  0.5050505E-02 -0.4342393E-11  0.0000000E+00 -0.2583554E-04
  0.7121212E+00  0.0000000E+00  0.5050505E-02 -0.4359845E-11  0.0000000E+00 -0.2583555E-04
  0.7222222E+00  0.0000000E+00  0.5050505E-02 -0.4361832E-11  0.0000000E+00 -0.2583556E-04
  0.7323232E+00  0.0000000E+00  0.5050505E-02 -0.4348777E-11  0.0000000E+00 -0.2583557E-04
  0.7424242E+00  0.0000000E+00  0.5050505E-02 -0.4321030E-11  0.0000000E+00 -0.2583558E-04
  0.7525253E+00  0.0000000E+00  0.5050505E-02 -0.4279071E-11  0.0000000E+00 -0.2583558E-04
  0.7626263E+00  0.0000000E+00  0.5050505E-02 -0.4223391E-11  0.0000000E+00 -0.2583559E-04
  0.7727273E+00  0.0000000E+00  0.5050505E-02 -0.4154435E-11  0.0000000E+00 -0.2583560E-04
  0.7828283E+00  0.0000000E+00  0.5050505E-02 -0.4072471E-11  0.0000000E+00 -0.2583561E-04
  0.7929293E+00  0.0000000E+00  0.5050505E-02 -0.3977696E-11  0.0000000E+00 -0.2583562E-04
  0.8030303E+00  0.0000000E+00  0.5050505E-02 -0.3870265E-11  0.0000000E+00 -0.2583563E-04
  0.8131313E+00  0.0000000E+00  0.5050505E-02 -0.3750357E-11  0.0000000E+00 -0.2583563E-04
  0.8232324E+00  0.0000000E+00  0.5050505E-02 -0.3618248E-11  0.0000000E+00 -0.2583564E-04
  0.8333333E+00  0.0000000E+00  0.5050505E-02 -0.3474292E-11  0.0000000E+00 -0.2583565E-04
  0.8434343E+00  0.0000000E+00  0.5050505E-02 -0.3318972E-11  0.0000000E+00 -0.2583565E-04
  0.8535354E+00  0.0000000E+00  0.5050505E-02 -0.3152873E-11  0.0000000E+00 -0.2583566E-04
  0.8636364E+00  0.0000000E+00  0.5050505E-02 -0.2976692E-11  0.0000000E+00 -0.2583567E-04
  0.8737374E+00  0.0000000E+00  0.5050505E-02 -0.2791221E-11  0.0000000E+00 -0.2583567E-04
  0.8838384E+00  0.0000000E+00  0.5050505E-02 -0.2597289E-11  0.0000000E+00 -0.2583568E-04
  0.8939394E+00  0.0000000E+00  0.5050505E-02 -0.2395731E-11  0.0000000E+00 -0.2583568E-04
  0.9040404E+00  0.0000000E+00  0.5050505E-02 -0.2187369E-11  0.0000000E+00 -0.2583569E-04
  0.9141414E+00  0.0000000E+00  0.5050505E-02 -0.1972997E-11  0.0000000E+00 -0.2583569E-04
  0.9242424E+00  0.0000000E+00  0.5050505E-02 -0.1753422E-11  0.0000000E+00 -0.2583570E-04
  0.9343435E+00  0.0000000E+00  0.5050505E-02 -0.1529305E-11  0.0000000E+00 -0.2583570E-04
  0.9444444E+00  0.0000000E+00  0.5050505E-02 -0.1301051E-11  0.0000000E+00 -0.2583570E-04
  0.9545454E+00  0.0000000E+00  0.5050505E-02 -0.1069225E-11  0.0000000E+00 -0.2583570E-04
  0.9646465E+00  0.0000000E+00  0.5050505E-02 -0.8349832E-12  0.0000000E+00 -0.2583571E-04
  0.9747475E+00  0.0000000E+00  0.5050505E-02 -0.5993389E-12  0.0000000E+00 -0.2583571E-04
  0.9848485E+00  0.0000000E+00  0.5050505E-02 -0.3634330E-12  0.0000000E+00 -0.2583571E-04
  0.9974747E+00  0.0000000E+00  0.5050505E-02 -0.1357594E-12  0.0000000E+00 -0.2583571E-04
  0.5050505E-02  0.0000000E+00  0.1515152E-01  0.3942021E-12  0.0000000E+00 -0.2576803E-04
  0.1515152E-01  0.0000000E+00  0.1515152E-01  0.1099378E-11  0.0000000E+00 -0.2576803E-04
  0.2525252E-01  0.0000000E+00  0.1515152E-01  0.1887402E-11  0.0000000E+00 -0.2576803E-04
  0.3535353E-01  0.0000000E+00  0.1515152E-01  0.2589932E-11  0.0000000E+00 -0.2576803E-04
  0.4545455E-01  0.0000000E+00  0.1515152E-01  0.3316222E-11  0.0000000E+00 -0.2576803E-04
  0.5555556E-01  0.0000000E+00  0.1515152E-01  0.4027479E-11  0.0000000E+00 -0.2576802E-04
  0.6565657E-01  0.0000000E+00  0.1515152E-01  0.4573707E-11  0.0000000E+00 -0.2576802E-04
  0.7575758E-01  0.0000000E+00  0.1515152E-01  0.5399000E-11  0.0000000E+00 -0.2576802E-04
  0.8585858E-01  0.0000000E+00  0.1515152E-01  0.6032173E-11  0.0000000E+00 -0.2576801E-04
  0.9595960E-01  0.0000000E+00  0.1515152E-01  0.6510457E-11  0.0000000E+00 -0.2576801E-04
  0.1060606E+00  0.0000000E+00  0.1515152E-01  0.7158257E-11  0.0000000E+00 -0.2576801E-04
  0.1161616E+00  0.0000000E+00  0.1515152E-01  0.7781080E-11  0.0000000E+00 -0.2576800E-04
  0.1262626E+00  0.0000000E+00  0.1515152E-01  0.8279219E-11  0.0000000E+00 -0.2576800E-04
  0.1363636E+00  0.0000000E+00  0.1515152E-01  0.8748526E-11  0.0000000E+00 -0.2576799E-04
  0.1464646E+00  0.0000000E+00  0.1515152E-01  0.9225519E-11  0.0000000E+00 -0.2576798E-04
  0.1565657E+00  0.0000000E+00  0.1515152E-01  0.9670740E-11  0.0000000E+00 -0.2576798E-04
  0.1666667E+00  0.0000000E+00  0.1515152E-01  0.1006017E-10  0.0000000E+00 -0.2576797E-04
  0.1767677E+00  0.0000000E+00  0.1515152E-01  0.1040149E-10  0.0000000E+00 -0.2576796E-04
  0.1868687E+00  0.0000000E+00  0.1515152E-01  0.1070417E-10  0.0000000E+00 -0.2576796E-04
  0.1969697E+00  0.0000000E+00  0.1515152E-01  0.1096609E-10  0.0000000E+00 -0.2576795E-04
  0.2070707E+00  0.0000000E+00  0.1515152E-01  0.1118041E-10  0.0000000E+00 -0.2576794E-04
  0.2171717E+00  0.0000000E+00  0.1515152E-01  0.1134334E-10  0.0000000E+00 -0.2576793E-04
  0.2272727E+00  0.0000000E+00  0.1515152E-01  0.1145466E-10  0.0000000E+00 -0.2576793E-04
  0.2373737E+00  0.0000000E+00  0.1515152E-01  0.1151490E-10  0.0000000E+00 -0.2576792E-04
  0.2474747E+00  0.0000000E+00  0.1515152E-01  0.1152386E-10  0.0000000E+00 -0.2576791E-04
  0.2575758E+00  0.0000000E+00  0.1515152E-01  0.1148081E-10  0.0000000E+00 -0.2576790E-04
  0.2676768E+00  0.0000000E+00  0.1515152E-01  0.1138529E-10  0.0000000E+00 -0.2576790E-04
  0.2777778E+00  0.0000000E+00  0.1515152E-01  0.1123744E-10  0.0000000E+00 -0.2576789E-04
  0.2878788E+00  0.0000000E+00  0.1515152E-01  0.1103789E-10  0.0000000E+00 -0.2576788E-04
  0.2979798E+00  0.0000000E+00  0.1515152E-01  0.1078743E-10  0.0000000E+00 -0.2576787E-04
  0.3080808E+00  0.0000000E+00  0.1515152E-01  0.1048689E-10  0.0000000E+00 -0.2576787E-04
  0.3181818E+00  0.0000000E+00  0.1515152E-01  0.1013714E-10  0.0000000E+00 -0.2576786E-04
  0.3282828E+00  0.0000000E+00  0.1515152E-01  0.9739138E-11  0.0000000E+00 -0.2576785E-04
  0.3383838E+00  0.0000000E+00  0.1515152E-01  0.9294007E-11  0.0000000E+00 -0.2576785E-04
  0.3484848E+00  0.0000000E+00  0.1515152E-01  0.8803075E-11  0.0000000E+00 -0.2576784E-04
  0.3585859E+00  0.0000000E+00  0.1515152E-01  0.8267864E-11  0.0000000E+00 -0.2576783E-04
  0.3686869E+00  0.0000000E+00  0.1515152E-01  0.7690126E-11  0.0000000E+00 -0.2576783E-04
  0.3787879E+00  0.0000000E+00  0.1515152E-01  0.7071915E-11  0.0000000E+00 -0.2576782E-04
  0.3888889E+00  0.0000000E+00  0.1515152E-01  0.6415583E-11  0.0000000E+00 -0.2576782E-04
  0.3989899E+00  0.0000000E+00  0.1515152E-01  0.5723702E-11  0.0000000E+00 -0.2576781E-04
  0.4090909E+00  0.0000000E+00  0.1515152E-01  0.4999316E-11  0.0000000E+00 -0.2576781E-04
  0.4191919E+00  0.0000000E+00  0.1515152E-01  0.4247140E-11  0.0000000E+00 -0.2576781E-04
  0.4292929E+00  0.0000000E+00  0.1515152E-01  0.3473923E-11  0.0000000E+00 -0.2576780E-04
  0.4393939E+00  0.0000000E+00  0.1515152E-01  0.2682726E-11  0.0000000E+00 -0.2576780E-04
  0.4494950E+00  0.0000000E+00  0.1515152E-01  0.1869751E-11  0.0000000E+00 -0.2576780E-04
  0.4595959E+00  0.0000000E+00  0.1515152E-01  0.1048019E-11  0.0000000E+00 -0.2576780E-04
  0.4696970E+00  0.0000000E+00  0.1515152E-01  0.2464115E-12  0.0000000E+00 -0.2576780E-04
  0.4797980E+00  0.0000000E+00  0.1515152E-01 -0.7442870E-12  0.0000000E+00 -0.2576780E-04
  0.4898990E+00  0.0000000E+00  0.1515152E-01 -0.1634478E-11  0.0000000E+00 -0.2576780E-04
  0.5000000E+00  0.0000000E+00  0.1515152E-01 -0.2444121E-11  0.0000000E+00 -0.2576780E-04
  0.5101010E+00  0.0000000E+00  0.1515152E-01 -0.3242575E-11  0.0000000E+00 -0.2576780E-04
  0.5202020E+00  0.0000000E+00  0.1515152E-01 -0.4139124E-11  0.0000000E+00 -0.2576781E-04
  0.5303030E+00  0.0000000E+00  0.1515152E-01 -0.4733203E-11  0.0000000E+00 -0.2576781E-04
  0.5404040E+00  0.0000000E+00  0.1515152E-01 -0.5687568E-11  0.0000000E+00 -0.2576781E-04
  0.5505050E+00  0.0000000E+00  0.1515152E-01 -0.6505984E-11  0.0000000E+00 -0.2576782E-04
  0.5606061E+00  0.0000000E+00  0.1515152E-01 -0.7083221E-11  0.0000000E+00 -0.2576782E-04
  0.5707071E+00  0.0000000E+00  0.1515152E-01 -0.7755109E-11  0.0000000E+00 -0.2576783E-04
  0.5808081E+00  0.0000000E+00  0.1515152E-01 -0.8561991E-11  0.0000000E+00 -0.2576783E-04
  0.5909091E+00  0.0000000E+00  0.1515152E-01 -0.9211088E-11  0.0000000E+00 -0.2576784E-04
  0.6010101E+00  0.0000000E+00  0.1515152E-01 -0.9726819E-11  0.0000000E+00 -0.2576784E-04
  0.6111111E+00  0.0000000E+00  0.1515152E-01 -0.1025625E-10  0.0000000E+00 -0.2576785E-04
  0.6212121E+00  0.0000000E+00  0.1515152E-01 -0.1079954E-10  0.0000000E+00 -0.2576786E-04
  0.6313131E+00  0.0000000E+00  0.1515152E-01 -0.1128702E-10  0.0000000E+00 -0.2576787E-04
  0.6414142E+00  0.0000000E+00  0.1515152E-01 -0.1169617E-10  0.0000000E+00 -0.2576787E-04
  0.6515151E+00  0.0000000E+00  0.1515152E-01 -0.1204628E-10  0.0000000E+00 -0.2576788E-04
  0.6616161E+00  0.0000000E+00  0.1515152E-01 -0.1235278E-10  0.0000000E+00 -0.2576789E-04
  0.6717172E+00  0.0000000E+00  0.1515152E-01 -0.1261400E-10  0.0000000E+00 -0.2576790E-04
  0.6818182E+00  0.0000000E+00  0.1515152E-01 -0.1282299E-10  0.0000000E+00 -0.2576791E-04
  0.6919192E+00  0.0000000E+00  0.1515152E-01 -0.1297739E-10  0.0000000E+00 -0.2576792E-04
  0.7020202E+00  0.0000000E+00  0.1515152E-01 -0.1307949E-10  0.0000000E+00 -0.2576792E-04
  0.7121212E+00  0.0000000E+00  0.1515152E-01 -0.1313251E-10  0.0000000E+00 -0.2576793E-04
  0.7222222E+00  0.0000000E+00  0.1515152E-01 -0.1313863E-10  0.0000000E+00 -0.2576794E-04
  0.7323232E+00  0.0000000E+00  0.1515152E-01 -0.1309919E-10  0.0000000E+00 -0.2576795E-04
  0.7424242E+00  0.0000000E+00  0.1515152E-01 -0.1301549E-10  0.0000000E+00 -0.2576796E-04
  0.7525253E+00  0.0000000E+00  0.1515152E-01 -0.1288904E-10  0.0000000E+00 -0.2576797E-04
  0.7626263E+00  0.0000000E+00  0.1515152E-01 -0.1272130E-10  0.0000000E+00 -0.2576798E-04
  0.7727273E+00  0.0000000E+00  0.1515152E-01 -0.1251352E-10  0.0000000E+00 -0.2576799E-04
  0.7828283E+00  0.0000000E+00  0.1515152E-01 -0.1226652E-10  0.0000000E+00 -0.2576799E-04
  0.7929293E+00  0.0000000E+00  0.1515152E-01 -0.1198084E-10  0.0000000E+00 -0.2576800E-04
  0.8030303E+00  0.0000000E+00  0.1515152E-01 -0.1165700E-10  0.0000000E+00 -0.2576801E-04
  0.8131313E+00  0.0000000E+00  0.1515152E-01 -0.1129556E-10  0.0000000E+00 -0.2576802E-04
  0.8232324E+00  0.0000000E+00  0.1515152E-01 -0.1089735E-10  0.0000000E+00 -0.2576803E-04
  0.8333333E+00  0.0000000E+00  0.1515152E-01 -0.1046347E-10  0.0000000E+00 -0.2576803E-04
  0.8434343E+00  0.0000000E+00  0.1515152E-01 -0.9995380E-11  0.0000000E+00 -0.2576804E-04
  0.8535354E+00  0.0000000E+00  0.1515152E-01 -0.9494860E-11  0.0000000E+00 -0.2576805E-04
  0.8636364E+00  0.0000000E+00  0.1515152E-01 -0.8964037E-11  0.0000000E+00 -0.2576805E-04
  0.8737374E+00  0.0000000E+00  0.1515152E-01 -0.8405284E-11  0.0000000E+00 -0.2576806E-04
  0.8838384E+00  0.0000000E+00  0.1515152E-01 -0.7821147E-11  0.0000000E+00 -0.2576806E-04
  0.8939394E+00  0.0000000E+00  0.1515152E-01 -0.7214144E-11  0.0000000E+00 -0.2576807E-04
  0.9040404E+00  0.0000000E+00  0.1515152E-01 -0.6586669E-11  0.0000000E+00 -0.2576807E-04
  0.9141414E+00  0.0000000E+00  0.1515152E-01 -0.5940976E-11  0.0000000E+00 -0.2576808E-04
  0.9242424E+00  0.0000000E+00  0.1515152E-01 -0.5279417E-11  0.0000000E+00 -0.2576808E-04
  0.9343435E+00  0.0000000E+00  0.1515152E-01 -0.4604240E-11  0.0000000E+00 -0.2576809E-04
  0.9444444E+00  0.0000000E+00  0.1515152E-01 -0.3916873E-11  0.0000000E+00 -0.2576809E-04
  0.9545454E+00  0.0000000E+00  0.1515152E-01 -0.3218665E-11  0.0000000E+00 -0.2576809E-04
  0.9646465E+00  0.0000000E+00  0.1515152E-01 -0.2512990E-11  0.0000000E+00 -0.2576809E-04
  0.9747475E+00  0.0000000E+00  0.1515152E-01 -0.1800517E-11  0.0000000E+00 -0.2576809E-04
  0.9848485E+00  0.0000000E+00  0.1515152E-01 -0.1075862E-11  0.0000000E+00 -0.2576809E-04
  0.9974747E+00  0.0000000E+00  0.1515152E-01 -0.3871730E-12  0.0000000E+00 -0.2576810E-04
  0.5050505E-02  0.0000000E+00  0.2525252E-01  0.6976446E-12  0.0000000E+00 -0.2563335E-04
  0.1515152E-01  0.0000000E+00  0.2525252E-01  0.1798899E-11  0.0000000E+00 -0.2563335E-04
  0.2525252E-01  0.0000000E+00  0.2525252E-01  0.3129592E-11  0.0000000E+00 -0.2563335E-04
  0.3535353E-01  0.0000000E+00  0.2525252E-01  0.4369665E-11  0.0000000E+00 -0.2563334E-04
  0.4545455E-01  0.0000000E+00  0.2525252E-01  0.5507898E-11  0.0000000E+00 -0.2563334E-04
  0.5555556E-01  0.0000000E+00  0.2525252E-01  0.6779919E-11  0.0000000E+00 -0.2563334E-04
  0.6565657E-01  0.0000000E+00  0.2525252E-01  0.7763824E-11  0.0000000E+00 -0.2563334E-04
  0.7575758E-01  0.0000000E+00  0.2525252E-01  0.9009519E-11  0.0000000E+00 -0.2563333E-04
  0.8585858E-01  0.0000000E+00  0.2525252E-01  0.1011107E-10  0.0000000E+00 -0.2563333E-04
  0.9595960E-01  0.0000000E+00  0.2525252E-01  0.1100430E-10  0.0000000E+00 -0.2563332E-04
  0.1060606E+00  0.0000000E+00  0.2525252E-01  0.1204487E-10  0.0000000E+00 -0.2563332E-04
  0.1161616E+00  0.0000000E+00  0.2525252E-01  0.1305357E-10  0.0000000E+00 -0.2563331E-04
  0.1262626E+00  0.0000000E+00  0.2525252E-01  0.1391576E-10  0.0000000E+00 -0.2563331E-04
  0.1363636E+00  0.0000000E+00  0.2525252E-01  0.1472515E-10  0.0000000E+00 -0.2563330E-04
  0.1464646E+00  0.0000000E+00  0.2525252E-01  0.1552042E-10  0.0000000E+00 -0.2563330E-04
  0.1565657E+00  0.0000000E+00  0.2525252E-01  0.1625931E-10  0.0000000E+00 -0.2563329E-04
  0.1666667E+00  0.0000000E+00  0.2525252E-01  0.1691478E-10  0.0000000E+00 -0.2563328E-04
  0.1767677E+00  0.0000000E+00  0.2525252E-01  0.1749375E-10  0.0000000E+00 -0.2563328E-04
  0.1868687E+00  0.0000000E+00  0.2525252E-01  0.1800508E-10  0.0000000E+00 -0.2563327E-04
  0.1969697E+00  0.0000000E+00  0.2525252E-01  0.1844491E-10  0.0000000E+00 -0.2563326E-04
  0.2070707E+00  0.0000000E+00  0.2525252E-01  0.1880450E-10  0.0000000E+00 -0.2563325E-04
  0.2171717E+00  0.0000000E+00  0.2525252E-01  0.1907888E-10  0.0000000E+00 -0.2563325E-04
  0.2272727E+00  0.0000000E+00  0.2525252E-01  0.1926720E-10  0.0000000E+00 -0.2563324E-04
  0.2373737E+00  0.0000000E+00  0.2525252E-01  0.1936960E-10  0.0000000E+00 -0.2563323E-04
  0.2474747E+00  0.0000000E+00  0.2525252E-01  0.1938546E-10  0.0000000E+00 -0.2563322E-04
  0.2575758E+00  0.0000000E+00  0.2525252E-01  0.1931368E-10  0.0000000E+00 -0.2563321E-04
  0.2676768E+00  0.0000000E+00  0.2525252E-01  0.1915371E-10  0.0000000E+00 -0.2563321E-04
  0.2777778E+00  0.0000000E+00  0.2525252E-01  0.1890583E-10  0.0000000E+00 -0.2563320E-04
  0.2878788E+00  0.0000000E+00  0.2525252E-01  0.1857102E-10  0.0000000E+00 -0.2563319E-04
  0.2979798E+00  0.0000000E+00  0.2525252E-01  0.1815050E-10  0.0000000E+00 -0.2563318E-04
  0.3080808E+00  0.0000000E+00  0.2525252E-01  0.1764560E-10  0.0000000E+00 -0.2563317E-04
  0.3181818E+00  0.0000000E+00  0.2525252E-01  0.1705777E-10  0.0000000E+00 -0.2563317E-04
  0.3282828E+00  0.0000000E+00  0.2525252E-01  0.1638862E-10  0.0000000E+00 -0.2563316E-04
  0.3383838E+00  0.0000000E+00  0.2525252E-01  0.1564008E-10  0.0000000E+00 -0.2563315E-04
  0.3484848E+00  0.0000000E+00  0.2525252E-01  0.1481439E-10  0.0000000E+00 -0.2563315E-04
  0.3585859E+00  0.0000000E+00  0.2525252E-01  0.1391410E-10  0.0000000E+00 -0.2563314E-04
  0.3686869E+00  0.0000000E+00  0.2525252E-01  0.1294210E-10  0.0000000E+00 -0.2563314E-04
  0.3787879E+00  0.0000000E+00  0.2525252E-01  0.1190181E-10  0.0000000E+00 -0.2563313E-04
  0.3888889E+00  0.0000000E+00  0.2525252E-01  0.1079733E-10  0.0000000E+00 -0.2563313E-04
  0.3989899E+00  0.0000000E+00  0.2525252E-01  0.9633193E-11  0.0000000E+00 -0.2563312E-04
  0.4090909E+00  0.0000000E+00  0.2525252E-01  0.8413574E-11  0.0000000E+00 -0.2563312E-04
  0.4191919E+00  0.0000000E+00  0.2525252E-01  0.7144200E-11  0.0000000E+00 -0.2563311E-04
  0.4292929E+00  0.0000000E+00  0.2525252E-01  0.5839426E-11  0.0000000E+00 -0.2563311E-04
  0.4393939E+00  0.0000000E+00  0.2525252E-01  0.4515278E-11  0.0000000E+00 -0.2563311E-04
  0.4494950E+00  0.0000000E+00  0.2525252E-01  0.3153039E-11  0.0000000E+00 -0.2563311E-04
  0.4595959E+00  0.0000000E+00  0.2525252E-01  0.1741537E-11  0.0000000E+00 -0.2563311E-04
  0.4696970E+00  0.0000000E+00  0.2525252E-01  0.3493617E-12  0.0000000E+00 -0.2563311E-04
  0.4797980E+00  0.0000000E+00  0.2525252E-01 -0.1223962E-11  0.0000000E+00 -0.2563311E-04
  0.4898990E+00  0.0000000E+00  0.2525252E-01 -0.2671128E-11  0.0000000E+00 -0.2563311E-04
  0.5000000E+00  0.0000000E+00  0.2525252E-01 -0.4109529E-11  0.0000000E+00 -0.2563311E-04
  0.5101010E+00  0.0000000E+00  0.2525252E-01 -0.5433621E-11  0.0000000E+00 -0.2563311E-04
  0.5202020E+00  0.0000000E+00  0.2525252E-01 -0.6940388E-11  0.0000000E+00 -0.2563311E-04
  0.5303030E+00  0.0000000E+00  0.2525252E-01 -0.8037990E-11  0.0000000E+00 -0.2563312E-04
  0.5404040E+00  0.0000000E+00  0.2525252E-01 -0.9463308E-11  0.0000000E+00 -0.2563312E-04
  0.5505050E+00  0.0000000E+00  0.2525252E-01 -0.1089036E-10  0.0000000E+00 -0.2563312E-04
  0.5606061E+00  0.0000000E+00  0.2525252E-01 -0.1202736E-10  0.0000000E+00 -0.2563313E-04
  0.5707071E+00  0.0000000E+00  0.2525252E-01 -0.1307782E-10  0.0000000E+00 -0.2563313E-04
  0.5808081E+00  0.0000000E+00  0.2525252E-01 -0.1430894E-10  0.0000000E+00 -0.2563314E-04
  0.5909091E+00  0.0000000E+00  0.2525252E-01 -0.1544600E-10  0.0000000E+00 -0.2563315E-04
  0.6010101E+00  0.0000000E+00  0.2525252E-01 -0.1639915E-10  0.0000000E+00 -0.2563315E-04
  0.6111111E+00  0.0000000E+00  0.2525252E-01 -0.1728993E-10  0.0000000E+00 -0.2563316E-04
  0.6212121E+00  0.0000000E+00  0.2525252E-01 -0.1815798E-10  0.0000000E+00 -0.2563317E-04
  0.6313131E+00  0.0000000E+00  0.2525252E-01 -0.1895548E-10  0.0000000E+00 -0.2563318E-04
  0.6414142E+00  0.0000000E+00  0.2525252E-01 -0.1965254E-10  0.0000000E+00 -0.2563318E-04
  0.6515151E+00  0.0000000E+00  0.2525252E-01 -0.2025580E-10  0.0000000E+00 -0.2563319E-04
  0.6616161E+00  0.0000000E+00  0.2525252E-01 -0.2077571E-10  0.0000000E+00 -0.2563320E-04
  0.6717172E+00  0.0000000E+00  0.2525252E-01 -0.2121165E-10  0.0000000E+00 -0.2563321E-04
  0.6818182E+00  0.0000000E+00  0.2525252E-01 -0.2155902E-10  0.0000000E+00 -0.2563322E-04
  0.6919192E+00  0.0000000E+00  0.2525252E-01 -0.2181701E-10  0.0000000E+00 -0.2563323E-04
  0.7020202E+00  0.0000000E+00  0.2525252E-01 -0.2198878E-10  0.0000000E+00 -0.2563324E-04
  0.7121212E+00  0.0000000E+00  0.2525252E-01 -0.2207824E-10  0.0000000E+00 -0.2563324E-04
  0.7222222E+00  0.0000000E+00  0.2525252E-01 -0.2208845E-10  0.0000000E+00 -0.2563325E-04
  0.7323232E+00  0.0000000E+00  0.2525252E-01 -0.2202179E-10  0.0000000E+00 -0.2563326E-04
  0.7424242E+00  0.0000000E+00  0.2525252E-01 -0.2188074E-10  0.0000000E+00 -0.2563327E-04
  0.7525253E+00  0.0000000E+00  0.2525252E-01 -0.2166787E-10  0.0000000E+00 -0.2563328E-04
  0.7626263E+00  0.0000000E+00  0.2525252E-01 -0.2138561E-10  0.0000000E+00 -0.2563329E-04
  0.7727273E+00  0.0000000E+00  0.2525252E-01 -0.2103590E-10  0.0000000E+00 -0.2563330E-04
  0.7828283E+00  0.0000000E+00  0.2525252E-01 -0.2062007E-10  0.0000000E+00 -0.2563331E-04
  0.7929293E+00  0.0000000E+00  0.2525252E-01 -0.2013908E-10  0.0000000E+00 -0.2563332E-04
  0.8030303E+00  0.0000000E+00  0.2525252E-01 -0.1959382E-10  0.0000000E+00 -0.2563332E-04
  0.8131313E+00  0.0000000E+00  0.2525252E-01 -0.1898532E-10  0.0000000E+00 -0.2563333E-04
  0.8232324E+00  0.0000000E+00  0.2525252E-01 -0.1831501E-10  0.0000000E+00 -0.2563334E-04
  0.8333333E+00  0.0000000E+00  0.2525252E-01 -0.1758481E-10  0.0000000E+00 -0.2563335E-04
  0.8434343E+00  0.0000000E+00  0.2525252E-01 -0.1679720E-10  0.0000000E+00 -0.2563335E-04
  0.8535354E+00  0.0000000E+00  0.2525252E-01 -0.1595522E-10  0.0000000E+00 -0.2563336E-04
  0.8636364E+00  0.0000000E+00  0.2525252E-01 -0.1506246E-10  0.0000000E+00 -0.2563337E-04
  0.8737374E+00  0.0000000E+00  0.2525252E-01 -0.1412291E-10  0.0000000E+00 -0.2563337E-04
  0.8838384E+00  0.0000000E+00  0.2525252E-01 -0.1314090E-10  0.0000000E+00 -0.2563338E-04
  0.8939394E+00  0.0000000E+00  0.2525252E-01 -0.1212077E-10  0.0000000E+00 -0.2563338E-04
  0.9040404E+00  0.0000000E+00  0.2525252E-01 -0.1106657E-10  0.0000000E+00 -0.2563339E-04
  0.9141414E+00  0.0000000E+00  0.2525252E-01 -0.9981755E-11  0.0000000E+00 -0.2563339E-04
  0.9242424E+00  0.0000000E+00  0.2525252E-01 -0.8869625E-11  0.0000000E+00 -0.2563340E-04
  0.9343435E+00  0.0000000E+00  0.2525252E-01 -0.7733850E-11  0.0000000E+00 -0.2563340E-04
  0.9444444E+00  0.0000000E+00  0.2525252E-01 -0.6577612E-11  0.0000000E+00 -0.2563340E-04
  0.9545454E+00  0.0000000E+00  0.2525252E-01 -0.5403525E-11  0.0000000E+00 -0.2563341E-04
  0.9646465E+00  0.0000000E+00  0.2525252E-01 -0.4217117E-11  0.0000000E+00 -0.2563341E-04
  0.9747475E+00  0.0000000E+00  0.2525252E-01 -0.3014560E-11  0.0000000E+00 -0.2563341E-04
  0.9848485E+00  0.0000000E+00  0.2525252E-01 -0.1793920E-11  0.0000000E+00 -0.2563341E-04
  0.9974747E+00  0.0000000E+00  0.2525252E-01 -0.6124705E-12  0.0000000E+00 -0.2563341E-04
  0.5050505E-02  0.0000000E+00  0.3535353E-01  0.9355556E-12  0.0000000E+00 -0.2543244E-04
  0.1515152E-01  0.0000000E+00  0.3535353E-01  0.2584071E-11  0.0000000E+00 -0.2543244E-04
  0.2525252E-01  0.0000000E+00  0.3535353E-01  0.4344274E-11  0.0000000E+00 -0.2543244E-04
  0.3535353E-01  0.0000000E+00  0.3535353E-01  0.6217034E-11  0.0000000E+00 -0.2543244E-04
  0.4545455E-01  0.0000000E+00  0.3535353E-01  0.7817863E-11  0.0000000E+00 -0.2543244E-04
  0.5555556E-01  0.0000000E+00  0.3535353E-01  0.9577327E-11  0.0000000E+00 -0.2543244E-04
  0.6565657E-01  0.0000000E+00  0.3535353E-01  0.1106200E-10  0.0000000E+00 -0.2543243E-04
  0.7575758E-01  0.0000000E+00  0.3535353E-01  0.1276937E-10  0.0000000E+00 -0.2543243E-04
  0.8585858E-01  0.0000000E+00  0.3535353E-01  0.1432465E-10  0.0000000E+00 -0.2543243E-04
  0.9595960E-01  0.0000000E+00  0.3535353E-01  0.1564919E-10  0.0000000E+00 -0.2543242E-04
  0.1060606E+00  0.0000000E+00  0.3535353E-01  0.1710419E-10  0.0000000E+00 -0.2543242E-04
  0.1161616E+00  0.0000000E+00  0.3535353E-01  0.1851234E-10  0.0000000E+00 -0.2543241E-04
  0.1262626E+00  0.0000000E+00  0.3535353E-01  0.1975180E-10  0.0000000E+00 -0.2543240E-04
  0.1363636E+00  0.0000000E+00  0.3535353E-01  0.2091408E-10  0.0000000E+00 -0.2543240E-04
  0.1464646E+00  0.0000000E+00  0.3535353E-01  0.2203854E-10  0.0000000E+00 -0.2543239E-04
  0.1565657E+00  0.0000000E+00  0.3535353E-01  0.2308163E-10  0.0000000E+00 -0.2543238E-04
  0.1666667E+00  0.0000000E+00  0.3535353E-01  0.2401387E-10  0.0000000E+00 -0.2543238E-04
  0.1767677E+00  0.0000000E+00  0.3535353E-01  0.2484031E-10  0.0000000E+00 -0.2543237E-04
  0.1868687E+00  0.0000000E+00  0.3535353E-01  0.2556843E-10  0.0000000E+00 -0.2543236E-04
  0.1969697E+00  0.0000000E+00  0.3535353E-01  0.2619290E-10  0.0000000E+00 -0.2543235E-04
  0.2070707E+00  0.0000000E+00  0.3535353E-01  0.2670363E-10  0.0000000E+00 -0.2543235E-04
  0.2171717E+00  0.0000000E+00  0.3535353E-01  0.2709446E-10  0.0000000E+00 -0.2543234E-04
  0.2272727E+00  0.0000000E+00  0.3535353E-01  0.2736372E-10  0.0000000E+00 -0.2543233E-04
  0.2373737E+00  0.0000000E+00  0.3535353E-01  0.2751095E-10  0.0000000E+00 -0.2543232E-04
  0.2474747E+00  0.0000000E+00  0.3535353E-01  0.2753504E-10  0.0000000E+00 -0.2543231E-04
  0.2575758E+00  0.0000000E+00  0.3535353E-01  0.2743462E-10  0.0000000E+00 -0.2543230E-04
  0.2676768E+00  0.0000000E+00  0.3535353E-01  0.2720904E-10  0.0000000E+00 -0.2543230E-04
  0.2777778E+00  0.0000000E+00  0.3535353E-01  0.2685871E-10  0.0000000E+00 -0.2543229E-04
  0.2878788E+00  0.0000000E+00  0.3535353E-01  0.2638485E-10  0.0000000E+00 -0.2543228E-04
  0.2979798E+00  0.0000000E+00  0.3535353E-01  0.2578909E-10  0.0000000E+00 -0.2543227E-04