title = "dataset water"
variables = "x", "y", "z", "vx", "vy", "vz"
zone t = "velocities, solution time =  3.500E+01 days        " i =   99, j =   99, k =    1,  f=point
  0.5050505E-02  0.0000000E+00  0.5050505E-02  0.2731979E-09  0.0000000E+00 -0.7024663E-05
  0.1515152E-01  0.0000000E+00  0.5050505E-02  0.8183401E-09  0.0000000E+00 -0.7023571E-05
  0.2525252E-01  0.0000000E+00  0.5050505E-02  0.1359714E-08  0.0000000E+00 -0.7021391E-05
  0.3535353E-01  0.0000000E+00  0.5050505E-02  0.1894813E-08  0.0000000E+00 -0.7018134E-05
  0.4545455E-01  0.0000000E+00  0.5050505E-02  0.2421144E-08  0.0000000E+00 -0.7013814E-05
  0.5555556E-01  0.0000000E+00  0.5050505E-02  0.2936231E-08  0.0000000E+00 -0.7008452E-05
  0.6565657E-01  0.0000000E+00  0.5050505E-02  0.3437619E-08  0.0000000E+00 -0.7002073E-05
  0.7575758E-01  0.0000000E+00  0.5050505E-02  0.3922886E-08  0.0000000E+00 -0.6994706E-05
  0.8585858E-01  0.0000000E+00  0.5050505E-02  0.4389646E-08  0.0000000E+00 -0.6986386E-05
  0.9595960E-01  0.0000000E+00  0.5050505E-02  0.4835561E-08  0.0000000E+00 -0.6977153E-05
  0.1060606E+00  0.0000000E+00  0.5050505E-02  0.5258353E-08  0.0000000E+00 -0.6967050E-05
  0.1161616E+00  0.0000000E+00  0.5050505E-02  0.5655812E-08  0.0000000E+00 -0.6956127E-05
  0.1262626E+00  0.0000000E+00  0.5050505E-02  0.6025813E-08  0.0000000E+00 -0.6944435E-05
  0.1363636E+00  0.0000000E+00  0.5050505E-02  0.6366330E-08  0.0000000E+00 -0.6932033E-05
  0.1464646E+00  0.0000000E+00  0.5050505E-02  0.6675450E-08  0.0000000E+00 -0.6918980E-05
  0.1565657E+00  0.0000000E+00  0.5050505E-02  0.6951388E-08  0.0000000E+00 -0.6905341E-05
  0.1666667E+00  0.0000000E+00  0.5050505E-02  0.7192508E-08  0.0000000E+00 -0.6891186E-05
  0.1767677E+00  0.0000000E+00  0.5050505E-02  0.7397338E-08  0.0000000E+00 -0.6876583E-05
  0.1868687E+00  0.0000000E+00  0.5050505E-02  0.7564584E-08  0.0000000E+00 -0.6861609E-05
  0.1969697E+00  0.0000000E+00  0.5050505E-02  0.7693151E-08  0.0000000E+00 -0.6846338E-05
  0.2070707E+00  0.0000000E+00  0.5050505E-02  0.7782157E-08  0.0000000E+00 -0.6830850E-05
  0.2171717E+00  0.0000000E+00  0.5050505E-02  0.7830943E-08  0.0000000E+00 -0.6815224E-05
  0.2272727E+00  0.0000000E+00  0.5050505E-02  0.7839090E-08  0.0000000E+00 -0.6799541E-05
  0.2373737E+00  0.0000000E+00  0.5050505E-02  0.7806425E-08  0.0000000E+00 -0.6783882E-05
  0.2474747E+00  0.0000000E+00  0.5050505E-02  0.7733027E-08  0.0000000E+00 -0.6768330E-05
  0.2575758E+00  0.0000000E+00  0.5050505E-02  0.7619233E-08  0.0000000E+00 -0.6752965E-05
  0.2676768E+00  0.0000000E+00  0.5050505E-02  0.7465637E-08  0.0000000E+00 -0.6737867E-05
  0.2777778E+00  0.0000000E+00  0.5050505E-02  0.7273084E-08  0.0000000E+00 -0.6723117E-05
  0.2878788E+00  0.0000000E+00  0.5050505E-02  0.7042666E-08  0.0000000E+00 -0.6708789E-05
  0.2979798E+00  0.0000000E+00  0.5050505E-02  0.6775712E-08  0.0000000E+00 -0.6694959E-05
  0.3080808E+00  0.0000000E+00  0.5050505E-02  0.6473769E-08  0.0000000E+00 -0.6681699E-05
  0.3181818E+00  0.0000000E+00  0.5050505E-02  0.6138591E-08  0.0000000E+00 -0.6669076E-05
  0.3282828E+00  0.0000000E+00  0.5050505E-02  0.5772118E-08  0.0000000E+00 -0.6657156E-05
  0.3383838E+00  0.0000000E+00  0.5050505E-02  0.5376450E-08  0.0000000E+00 -0.6645998E-05
  0.3484848E+00  0.0000000E+00  0.5050505E-02  0.4953832E-08  0.0000000E+00 -0.6635659E-05
  0.3585859E+00  0.0000000E+00  0.5050505E-02  0.4506624E-08  0.0000000E+00 -0.6626191E-05
  0.3686869E+00  0.0000000E+00  0.5050505E-02  0.4037277E-08  0.0000000E+00 -0.6617640E-05
  0.3787879E+00  0.0000000E+00  0.5050505E-02  0.3548311E-08  0.0000000E+00 -0.6610049E-05
  0.3888889E+00  0.0000000E+00  0.5050505E-02  0.3042291E-08  0.0000000E+00 -0.6603453E-05
  0.3989899E+00  0.0000000E+00  0.5050505E-02  0.2521805E-08  0.0000000E+00 -0.6597884E-05
  0.4090909E+00  0.0000000E+00  0.5050505E-02  0.1989442E-08  0.0000000E+00 -0.6593369E-05
  0.4191919E+00  0.0000000E+00  0.5050505E-02  0.1447773E-08  0.0000000E+00 -0.6589929E-05
  0.4292929E+00  0.0000000E+00  0.5050505E-02  0.8993378E-09  0.0000000E+00 -0.6587580E-05
  0.4393939E+00  0.0000000E+00  0.5050505E-02  0.3466273E-09  0.0000000E+00 -0.6586333E-05
  0.4494950E+00  0.0000000E+00  0.5050505E-02 -0.2079263E-09  0.0000000E+00 -0.6586195E-05
  0.4595959E+00  0.0000000E+00  0.5050505E-02 -0.7619595E-09  0.0000000E+00 -0.6587165E-05
  0.4696970E+00  0.0000000E+00  0.5050505E-02 -0.1313185E-08  0.0000000E+00 -0.6589242E-05
  0.4797980E+00  0.0000000E+00  0.5050505E-02 -0.1859395E-08  0.0000000E+00 -0.6592417E-05
  0.4898990E+00  0.0000000E+00  0.5050505E-02 -0.2398470E-08  0.0000000E+00 -0.6596678E-05
  0.5000000E+00  0.0000000E+00  0.5050505E-02 -0.2928374E-08  0.0000000E+00 -0.6602010E-05
  0.5101010E+00  0.0000000E+00  0.5050505E-02 -0.3447157E-08  0.0000000E+00 -0.6608390E-05
  0.5202020E+00  0.0000000E+00  0.5050505E-02 -0.3952960E-08  0.0000000E+00 -0.6615796E-05
  0.5303030E+00  0.0000000E+00  0.5050505E-02 -0.4444007E-08  0.0000000E+00 -0.6624200E-05
  0.5404040E+00  0.0000000E+00  0.5050505E-02 -0.4918609E-08  0.0000000E+00 -0.6633570E-05
  0.5505050E+00  0.0000000E+00  0.5050505E-02 -0.5375161E-08  0.0000000E+00 -0.6643873E-05
  0.5606061E+00  0.0000000E+00  0.5050505E-02 -0.5812142E-08  0.0000000E+00 -0.6655069E-05
  0.5707071E+00  0.0000000E+00  0.5050505E-02 -0.6228114E-08  0.0000000E+00 -0.6667119E-05
  0.5808081E+00  0.0000000E+00  0.5050505E-02 -0.6621723E-08  0.0000000E+00 -0.6679979E-05
  0.5909091E+00  0.0000000E+00  0.5050505E-02 -0.6991702E-08  0.0000000E+00 -0.6693604E-05
  0.6010101E+00  0.0000000E+00  0.5050505E-02 -0.7336869E-08  0.0000000E+00 -0.6707944E-05
  0.6111111E+00  0.0000000E+00  0.5050505E-02 -0.7656135E-08  0.0000000E+00 -0.6722950E-05
  0.6212121E+00  0.0000000E+00  0.5050505E-02 -0.7948499E-08  0.0000000E+00 -0.6738567E-05
  0.6313131E+00  0.0000000E+00  0.5050505E-02 -0.8213062E-08  0.0000000E+00 -0.6754742E-05
  0.6414142E+00  0.0000000E+00  0.5050505E-02 -0.8449022E-08  0.0000000E+00 -0.6771418E-05
  0.6515151E+00  0.0000000E+00  0.5050505E-02 -0.8655684E-08  0.0000000E+00 -0.6788537E-05
  0.6616161E+00  0.0000000E+00  0.5050505E-02 -0.8832462E-08  0.0000000E+00 -0.6806040E-05
  0.6717172E+00  0.0000000E+00  0.5050505E-02 -0.8978882E-08  0.0000000E+00 -0.6823866E-05
  0.6818182E+00  0.0000000E+00  0.5050505E-02 -0.9094587E-08  0.0000000E+00 -0.6841955E-05
  0.6919192E+00  0.0000000E+00  0.5050505E-02 -0.9179339E-08  0.0000000E+00 -0.6860244E-05
  0.7020202E+00  0.0000000E+00  0.5050505E-02 -0.9233021E-08  0.0000000E+00 -0.6878672E-05
  0.7121212E+00  0.0000000E+00  0.5050505E-02 -0.9255635E-08  0.0000000E+00 -0.6897176E-05
  0.7222222E+00  0.0000000E+00  0.5050505E-02 -0.9247309E-08  0.0000000E+00 -0.6915695E-05
  0.7323232E+00  0.0000000E+00  0.5050505E-02 -0.9208285E-08  0.0000000E+00 -0.6934166E-05
  0.7424242E+00  0.0000000E+00  0.5050505E-02 -0.9138925E-08  0.0000000E+00 -0.6952529E-05
  0.7525253E+00  0.0000000E+00  0.5050505E-02 -0.9039704E-08  0.0000000E+00 -0.6970723E-05
  0.7626263E+00  0.0000000E+00  0.5050505E-02 -0.8911204E-08  0.0000000E+00 -0.6988689E-05
  0.7727273E+00  0.0000000E+00  0.5050505E-02 -0.8754108E-08  0.0000000E+00 -0.7006370E-05
  0.7828283E+00  0.0000000E+00  0.5050505E-02 -0.8569196E-08  0.0000000E+00 -0.7023708E-05
  0.7929293E+00  0.0000000E+00  0.5050505E-02 -0.8357337E-08  0.0000000E+00 -0.7040649E-05
  0.8030303E+00  0.0000000E+00  0.5050505E-02 -0.8119477E-08  0.0000000E+00 -0.7057140E-05
  0.8131313E+00  0.0000000E+00  0.5050505E-02 -0.7856636E-08  0.0000000E+00 -0.7073130E-05
  0.8232324E+00  0.0000000E+00  0.5050505E-02 -0.7569897E-08  0.0000000E+00 -0.7088570E-05
  0.8333333E+00  0.0000000E+00  0.5050505E-02 -0.7260397E-08  0.0000000E+00 -0.7103413E-05
  0.8434343E+00  0.0000000E+00  0.5050505E-02 -0.6929323E-08  0.0000000E+00 -0.7117615E-05
  0.8535354E+00  0.0000000E+00  0.5050505E-02 -0.6577898E-08  0.0000000E+00 -0.7131134E-05
  0.8636364E+00  0.0000000E+00  0.5050505E-02 -0.6207380E-08  0.0000000E+00 -0.7143931E-05
  0.8737374E+00  0.0000000E+00  0.5050505E-02 -0.5819049E-08  0.0000000E+00 -0.7155968E-05
  0.8838384E+00  0.0000000E+00  0.5050505E-02 -0.5414207E-08  0.0000000E+00 -0.7167211E-05
  0.8939394E+00  0.0000000E+00  0.5050505E-02 -0.4994168E-08  0.0000000E+00 -0.7177628E-05
  0.9040404E+00  0.0000000E+00  0.5050505E-02 -0.4560256E-08  0.0000000E+00 -0.7187191E-05
  0.9141414E+00  0.0000000E+00  0.5050505E-02 -0.4113800E-08  0.0000000E+00 -0.7195873E-05
  0.9242424E+00  0.0000000E+00  0.5050505E-02 -0.3656130E-08  0.0000000E+00 -0.7203650E-05
  0.9343435E+00  0.0000000E+00  0.5050505E-02 -0.3188578E-08  0.0000000E+00 -0.7210500E-05
  0.9444444E+00  0.0000000E+00  0.5050505E-02 -0.2712470E-08  0.0000000E+00 -0.7216407E-05
  0.9545454E+00  0.0000000E+00  0.5050505E-02 -0.2229134E-08  0.0000000E+00 -0.7221353E-05
  0.9646465E+00  0.0000000E+00  0.5050505E-02 -0.1739889E-08  0.0000000E+00 -0.7225325E-05
  0.9747475E+00  0.0000000E+00  0.5050505E-02 -0.1246054E-08  0.0000000E+00 -0.7228314E-05
  0.9848485E+00  0.0000000E+00  0.5050505E-02 -0.7489424E-09  0.0000000E+00 -0.7230311E-05
  0.9974747E+00  0.0000000E+00  0.5050505E-02 -0.2498666E-09  0.0000000E+00 -0.7231310E-05
  0.5050505E-02  0.0000000E+00  0.1515152E-01  0.8219680E-09  0.0000000E+00 -0.7012490E-05
  0.1515152E-01  0.0000000E+00  0.1515152E-01  0.2462134E-08  0.0000000E+00 -0.7011385E-05
  0.2525252E-01  0.0000000E+00  0.1515152E-01  0.4090970E-08  0.0000000E+00 -0.7009180E-05
  0.3535353E-01  0.0000000E+00  0.1515152E-01  0.5700942E-08  0.0000000E+00 -0.7005884E-05
  0.4545455E-01  0.0000000E+00  0.1515152E-01  0.7284555E-08  0.0000000E+00 -0.7001515E-05
  0.5555556E-01  0.0000000E+00  0.1515152E-01  0.8834359E-08  0.0000000E+00 -0.6996090E-05
  0.6565657E-01  0.0000000E+00  0.1515152E-01  0.1034298E-07  0.0000000E+00 -0.6989636E-05
  0.7575758E-01  0.0000000E+00  0.1515152E-01  0.1180312E-07  0.0000000E+00 -0.6982184E-05
  0.8585858E-01  0.0000000E+00  0.1515152E-01  0.1320760E-07  0.0000000E+00 -0.6973766E-05
  0.9595960E-01  0.0000000E+00  0.1515152E-01  0.1454940E-07  0.0000000E+00 -0.6964425E-05
  0.1060606E+00  0.0000000E+00  0.1515152E-01  0.1582166E-07  0.0000000E+00 -0.6954204E-05
  0.1161616E+00  0.0000000E+00  0.1515152E-01  0.1701771E-07  0.0000000E+00 -0.6943152E-05
  0.1262626E+00  0.0000000E+00  0.1515152E-01  0.1813118E-07  0.0000000E+00 -0.6931322E-05
  0.1363636E+00  0.0000000E+00  0.1515152E-01  0.1915594E-07  0.0000000E+00 -0.6918772E-05
  0.1464646E+00  0.0000000E+00  0.1515152E-01  0.2008624E-07  0.0000000E+00 -0.6905565E-05
  0.1565657E+00  0.0000000E+00  0.1515152E-01  0.2091670E-07  0.0000000E+00 -0.6891764E-05
  0.1666667E+00  0.0000000E+00  0.1515152E-01  0.2164238E-07  0.0000000E+00 -0.6877439E-05
  0.1767677E+00  0.0000000E+00  0.1515152E-01  0.2225885E-07  0.0000000E+00 -0.6862663E-05
  0.1868687E+00  0.0000000E+00  0.1515152E-01  0.2276221E-07  0.0000000E+00 -0.6847510E-05
  0.1969697E+00  0.0000000E+00  0.1515152E-01  0.2314916E-07  0.0000000E+00 -0.6832056E-05
  0.2070707E+00  0.0000000E+00  0.1515152E-01  0.2341701E-07  0.0000000E+00 -0.6816383E-05
  0.2171717E+00  0.0000000E+00  0.1515152E-01  0.2356380E-07  0.0000000E+00 -0.6800569E-05
  0.2272727E+00  0.0000000E+00  0.1515152E-01  0.2358825E-07  0.0000000E+00 -0.6784699E-05
  0.2373737E+00  0.0000000E+00  0.1515152E-01  0.2348984E-07  0.0000000E+00 -0.6768853E-05
  0.2474747E+00  0.0000000E+00  0.1515152E-01  0.2326881E-07  0.0000000E+00 -0.6753115E-05
  0.2575758E+00  0.0000000E+00  0.1515152E-01  0.2292616E-07  0.0000000E+00 -0.6737567E-05
  0.2676768E+00  0.0000000E+00  0.1515152E-01  0.2246369E-07  0.0000000E+00 -0.6722290E-05
  0.2777778E+00  0.0000000E+00  0.1515152E-01  0.2188395E-07  0.0000000E+00 -0.6707365E-05
  0.2878788E+00  0.0000000E+00  0.1515152E-01  0.2119024E-07  0.0000000E+00 -0.6692869E-05
  0.2979798E+00  0.0000000E+00  0.1515152E-01  0.2038655E-07  0.0000000E+00 -0.6678877E-05
  0.3080808E+00  0.0000000E+00  0.1515152E-01  0.1947757E-07  0.0000000E+00 -0.6665462E-05
  0.3181818E+00  0.0000000E+00  0.1515152E-01  0.1846857E-07  0.0000000E+00 -0.6652694E-05
  0.3282828E+00  0.0000000E+00  0.1515152E-01  0.1736542E-07  0.0000000E+00 -0.6640637E-05
  0.3383838E+00  0.0000000E+00  0.1515152E-01  0.1617444E-07  0.0000000E+00 -0.6629352E-05
  0.3484848E+00  0.0000000E+00  0.1515152E-01  0.1490241E-07  0.0000000E+00 -0.6618898E-05
  0.3585859E+00  0.0000000E+00  0.1515152E-01  0.1355644E-07  0.0000000E+00 -0.6609324E-05
  0.3686869E+00  0.0000000E+00  0.1515152E-01  0.1214392E-07  0.0000000E+00 -0.6600680E-05
  0.3787879E+00  0.0000000E+00  0.1515152E-01  0.1067244E-07  0.0000000E+00 -0.6593007E-05
  0.3888889E+00  0.0000000E+00  0.1515152E-01  0.9149747E-08  0.0000000E+00 -0.6586341E-05
  0.3989899E+00  0.0000000E+00  0.1515152E-01  0.7583619E-08  0.0000000E+00 -0.6580715E-05
  0.4090909E+00  0.0000000E+00  0.1515152E-01  0.5981855E-08  0.0000000E+00 -0.6576155E-05
  0.4191919E+00  0.0000000E+00  0.1515152E-01  0.4352199E-08  0.0000000E+00 -0.6572683E-05
  0.4292929E+00  0.0000000E+00  0.1515152E-01  0.2702290E-08  0.0000000E+00 -0.6570314E-05
  0.4393939E+00  0.0000000E+00  0.1515152E-01  0.1039624E-08  0.0000000E+00 -0.6569059E-05
  0.4494950E+00  0.0000000E+00  0.1515152E-01 -0.6284867E-09  0.0000000E+00 -0.6568925E-05
  0.4595959E+00  0.0000000E+00  0.1515152E-01 -0.2294935E-08  0.0000000E+00 -0.6569912E-05
  0.4696970E+00  0.0000000E+00  0.1515152E-01 -0.3952848E-08  0.0000000E+00 -0.6572017E-05
  0.4797980E+00  0.0000000E+00  0.1515152E-01 -0.5595595E-08  0.0000000E+00 -0.6575233E-05
  0.4898990E+00  0.0000000E+00  0.1515152E-01 -0.7216804E-08  0.0000000E+00 -0.6579545E-05
  0.5000000E+00  0.0000000E+00  0.1515152E-01 -0.8810362E-08  0.0000000E+00 -0.6584938E-05
  0.5101010E+00  0.0000000E+00  0.1515152E-01 -0.1037042E-07  0.0000000E+00 -0.6591392E-05
  0.5202020E+00  0.0000000E+00  0.1515152E-01 -0.1189139E-07  0.0000000E+00 -0.6598881E-05
  0.5303030E+00  0.0000000E+00  0.1515152E-01 -0.1336795E-07  0.0000000E+00 -0.6607378E-05
  0.5404040E+00  0.0000000E+00  0.1515152E-01 -0.1479501E-07  0.0000000E+00 -0.6616850E-05
  0.5505050E+00  0.0000000E+00  0.1515152E-01 -0.1616777E-07  0.0000000E+00 -0.6627264E-05
  0.5606061E+00  0.0000000E+00  0.1515152E-01 -0.1748166E-07  0.0000000E+00 -0.6638581E-05
  0.5707071E+00  0.0000000E+00  0.1515152E-01 -0.1873236E-07  0.0000000E+00 -0.6650759E-05
  0.5808081E+00  0.0000000E+00  0.1515152E-01 -0.1991581E-07  0.0000000E+00 -0.6663756E-05
  0.5909091E+00  0.0000000E+00  0.1515152E-01 -0.2102819E-07  0.0000000E+00 -0.6677524E-05
  0.6010101E+00  0.0000000E+00  0.1515152E-01 -0.2206596E-07  0.0000000E+00 -0.6692014E-05
  0.6111111E+00  0.0000000E+00  0.1515152E-01 -0.2302584E-07  0.0000000E+00 -0.6707176E-05
  0.6212121E+00  0.0000000E+00  0.1515152E-01 -0.2390482E-07  0.0000000E+00 -0.6722956E-05
  0.6313131E+00  0.0000000E+00  0.1515152E-01 -0.2470020E-07  0.0000000E+00 -0.6739298E-05
  0.6414142E+00  0.0000000E+00  0.1515152E-01 -0.2540957E-07  0.0000000E+00 -0.6756146E-05
  0.6515151E+00  0.0000000E+00  0.1515152E-01 -0.2603083E-07  0.0000000E+00 -0.6773441E-05
  0.6616161E+00  0.0000000E+00  0.1515152E-01 -0.2656222E-07  0.0000000E+00 -0.6791124E-05
  0.6717172E+00  0.0000000E+00  0.1515152E-01 -0.2700231E-07  0.0000000E+00 -0.6809132E-05
  0.6818182E+00  0.0000000E+00  0.1515152E-01 -0.2735003E-07  0.0000000E+00 -0.6827405E-05
  0.6919192E+00  0.0000000E+00  0.1515152E-01 -0.2760467E-07  0.0000000E+00 -0.6845881E-05
  0.7020202E+00  0.0000000E+00  0.1515152E-01 -0.2776586E-07  0.0000000E+00 -0.6864496E-05
  0.7121212E+00  0.0000000E+00  0.1515152E-01 -0.2783361E-07  0.0000000E+00 -0.6883188E-05
  0.7222222E+00  0.0000000E+00  0.1515152E-01 -0.2780831E-07  0.0000000E+00 -0.6901893E-05
  0.7323232E+00  0.0000000E+00  0.1515152E-01 -0.2769069E-07  0.0000000E+00 -0.6920551E-05
  0.7424242E+00  0.0000000E+00  0.1515152E-01 -0.2748184E-07  0.0000000E+00 -0.6939098E-05
  0.7525253E+00  0.0000000E+00  0.1515152E-01 -0.2718319E-07  0.0000000E+00 -0.6957474E-05
  0.7626263E+00  0.0000000E+00  0.1515152E-01 -0.2679649E-07  0.0000000E+00 -0.6975620E-05
  0.7727273E+00  0.0000000E+00  0.1515152E-01 -0.2632381E-07  0.0000000E+00 -0.6993476E-05
  0.7828283E+00  0.0000000E+00  0.1515152E-01 -0.2576749E-07  0.0000000E+00 -0.7010986E-05
  0.7929293E+00  0.0000000E+00  0.1515152E-01 -0.2513014E-07  0.0000000E+00 -0.7028095E-05
  0.8030303E+00  0.0000000E+00  0.1515152E-01 -0.2441462E-07  0.0000000E+00 -0.7044748E-05
  0.8131313E+00  0.0000000E+00  0.1515152E-01 -0.2362400E-07  0.0000000E+00 -0.7060895E-05
  0.8232324E+00  0.0000000E+00  0.1515152E-01 -0.2276154E-07  0.0000000E+00 -0.7076486E-05
  0.8333333E+00  0.0000000E+00  0.1515152E-01 -0.2183066E-07  0.0000000E+00 -0.7091473E-05
  0.8434343E+00  0.0000000E+00  0.1515152E-01 -0.2083494E-07  0.0000000E+00 -0.7105813E-05
  0.8535354E+00  0.0000000E+00  0.1515152E-01 -0.1977806E-07  0.0000000E+00 -0.7119463E-05
  0.8636364E+00  0.0000000E+00  0.1515152E-01 -0.1866380E-07  0.0000000E+00 -0.7132383E-05
  0.8737374E+00  0.0000000E+00  0.1515152E-01 -0.1749602E-07  0.0000000E+00 -0.7144536E-05
  0.8838384E+00  0.0000000E+00  0.1515152E-01 -0.1627862E-07  0.0000000E+00 -0.7155886E-05
  0.8939394E+00  0.0000000E+00  0.1515152E-01 -0.1501557E-07  0.0000000E+00 -0.7166403E-05
  0.9040404E+00  0.0000000E+00  0.1515152E-01 -0.1371084E-07  0.0000000E+00 -0.7176057E-05
  0.9141414E+00  0.0000000E+00  0.1515152E-01 -0.1236843E-07  0.0000000E+00 -0.7184821E-05
  0.9242424E+00  0.0000000E+00  0.1515152E-01 -0.1099233E-07  0.0000000E+00 -0.7192672E-05
  0.9343435E+00  0.0000000E+00  0.1515152E-01 -0.9586544E-08  0.0000000E+00 -0.7199587E-05
  0.9444444E+00  0.0000000E+00  0.1515152E-01 -0.8155068E-08  0.0000000E+00 -0.7205549E-05
  0.9545454E+00  0.0000000E+00  0.1515152E-01 -0.6701879E-08  0.0000000E+00 -0.7210542E-05
  0.9646465E+00  0.0000000E+00  0.1515152E-01 -0.5230946E-08  0.0000000E+00 -0.7214551E-05
  0.9747475E+00  0.0000000E+00  0.1515152E-01 -0.3746228E-08  0.0000000E+00 -0.7217568E-05
  0.9848485E+00  0.0000000E+00  0.1515152E-01 -0.2251671E-08  0.0000000E+00 -0.7219584E-05
  0.9974747E+00  0.0000000E+00  0.1515152E-01 -0.7512143E-09  0.0000000E+00 -0.7220593E-05
  0.5050505E-02  0.0000000E+00  0.2525252E-01  0.1378678E-08  0.0000000E+00 -0.6988151E-05
  0.1515152E-01  0.0000000E+00  0.2525252E-01  0.4129715E-08  0.0000000E+00 -0.6987020E-05
  0.2525252E-01  0.0000000E+00  0.2525252E-01  0.6861781E-08  0.0000000E+00 -0.6984764E-05
  0.3535353E-01  0.0000000E+00  0.2525252E-01  0.9562255E-08  0.0000000E+00 -0.6981393E-05
  0.4545455E-01  0.0000000E+00  0.2525252E-01  0.1221858E-07  0.0000000E+00 -0.6976922E-05
  0.5555556E-01  0.0000000E+00  0.2525252E-01  0.1481828E-07  0.0000000E+00 -0.6971372E-05
  0.6565657E-01  0.0000000E+00  0.2525252E-01  0.1734899E-07  0.0000000E+00 -0.6964769E-05
  0.7575758E-01  0.0000000E+00  0.2525252E-01  0.1979848E-07  0.0000000E+00 -0.6957143E-05
  0.8585858E-01  0.0000000E+00  0.2525252E-01  0.2215472E-07  0.0000000E+00 -0.6948531E-05
  0.9595960E-01  0.0000000E+00  0.2525252E-01  0.2440591E-07  0.0000000E+00 -0.6938972E-05
  0.1060606E+00  0.0000000E+00  0.2525252E-01  0.2654054E-07  0.0000000E+00 -0.6928512E-05
  0.1161616E+00  0.0000000E+00  0.2525252E-01  0.2854744E-07  0.0000000E+00 -0.6917201E-05
  0.1262626E+00  0.0000000E+00  0.2525252E-01  0.3041585E-07  0.0000000E+00 -0.6905093E-05
  0.1363636E+00  0.0000000E+00  0.2525252E-01  0.3213553E-07  0.0000000E+00 -0.6892249E-05
  0.1464646E+00  0.0000000E+00  0.2525252E-01  0.3369676E-07  0.0000000E+00 -0.6878730E-05
  0.1565657E+00  0.0000000E+00  0.2525252E-01  0.3509052E-07  0.0000000E+00 -0.6864603E-05
  0.1666667E+00  0.0000000E+00  0.2525252E-01  0.3630848E-07  0.0000000E+00 -0.6849940E-05
  0.1767677E+00  0.0000000E+00  0.2525252E-01  0.3734317E-07  0.0000000E+00 -0.6834813E-05
  0.1868687E+00  0.0000000E+00  0.2525252E-01  0.3818802E-07  0.0000000E+00 -0.6819300E-05
  0.1969697E+00  0.0000000E+00  0.2525252E-01  0.3883745E-07  0.0000000E+00 -0.6803479E-05
  0.2070707E+00  0.0000000E+00  0.2525252E-01  0.3928695E-07  0.0000000E+00 -0.6787433E-05
  0.2171717E+00  0.0000000E+00  0.2525252E-01  0.3953319E-07  0.0000000E+00 -0.6771243E-05
  0.2272727E+00  0.0000000E+00  0.2525252E-01  0.3957400E-07  0.0000000E+00 -0.6754995E-05
  0.2373737E+00  0.0000000E+00  0.2525252E-01  0.3940849E-07  0.0000000E+00 -0.6738773E-05
  0.2474747E+00  0.0000000E+00  0.2525252E-01  0.3903707E-07  0.0000000E+00 -0.6722662E-05
  0.2575758E+00  0.0000000E+00  0.2525252E-01  0.3846143E-07  0.0000000E+00 -0.6706746E-05
  0.2676768E+00  0.0000000E+00  0.2525252E-01  0.3768458E-07  0.0000000E+00 -0.6691109E-05
  0.2777778E+00  0.0000000E+00  0.2525252E-01  0.3671082E-07  0.0000000E+00 -0.6675833E-05
  0.2878788E+00  0.0000000E+00  0.2525252E-01  0.3554572E-07  0.0000000E+00 -0.6660998E-05
  0.2979798E+00  0.0000000E+00  0.2525252E-01  0.3419601E-07  0.0000000E+00 -0.6646680E-05
  0.3080808E+00  0.0000000E+00  0.2525252E-01  0.3266958E-07  0.0000000E+00 -0.6632955E-05
  0.3181818E+00  0.0000000E+00  0.2525252E-01  0.3097535E-07  0.0000000E+00 -0.6619894E-05
  0.3282828E+00  0.0000000E+00  0.2525252E-01  0.2912318E-07  0.0000000E+00 -0.6607562E-05
  0.3383838E+00  0.0000000E+00  0.2525252E-01  0.2712376E-07  0.0000000E+00 -0.6596023E-05
  0.3484848E+00  0.0000000E+00  0.2525252E-01  0.2498849E-07  0.0000000E+00 -0.6585335E-05
  0.3585859E+00  0.0000000E+00  0.2525252E-01  0.2272935E-07  0.0000000E+00 -0.6575551E-05
  0.3686869E+00  0.0000000E+00  0.2525252E-01  0.2035880E-07  0.0000000E+00 -0.6566719E-05
  0.3787879E+00  0.0000000E+00  0.2525252E-01  0.1788961E-07  0.0000000E+00 -0.6558881E-05
  0.3888889E+00  0.0000000E+00  0.2525252E-01  0.1533479E-07  0.0000000E+00 -0.6552076E-05
  0.3989899E+00  0.0000000E+00  0.2525252E-01  0.1270744E-07  0.0000000E+00 -0.6546336E-05
  0.4090909E+00  0.0000000E+00  0.2525252E-01  0.1002065E-07  0.0000000E+00 -0.6541686E-05
  0.4191919E+00  0.0000000E+00  0.2525252E-01  0.7287431E-08  0.0000000E+00 -0.6538149E-05
  0.4292929E+00  0.0000000E+00  0.2525252E-01  0.4520599E-08  0.0000000E+00 -0.6535740E-05
  0.4393939E+00  0.0000000E+00  0.2525252E-01  0.1732720E-08  0.0000000E+00 -0.6534470E-05
  0.4494950E+00  0.0000000E+00  0.2525252E-01 -0.1063948E-08  0.0000000E+00 -0.6534345E-05
  0.4595959E+00  0.0000000E+00  0.2525252E-01 -0.3857508E-08  0.0000000E+00 -0.6535366E-05
  0.4696970E+00  0.0000000E+00  0.2525252E-01 -0.6636455E-08  0.0000000E+00 -0.6537529E-05
  0.4797980E+00  0.0000000E+00  0.2525252E-01 -0.9389702E-08  0.0000000E+00 -0.6540824E-05
  0.4898990E+00  0.0000000E+00  0.2525252E-01 -0.1210659E-07  0.0000000E+00 -0.6545240E-05
  0.5000000E+00  0.0000000E+00  0.2525252E-01 -0.1477692E-07  0.0000000E+00 -0.6550758E-05
  0.5101010E+00  0.0000000E+00  0.2525252E-01 -0.1739090E-07  0.0000000E+00 -0.6557358E-05
  0.5202020E+00  0.0000000E+00  0.2525252E-01 -0.1993922E-07  0.0000000E+00 -0.6565014E-05
  0.5303030E+00  0.0000000E+00  0.2525252E-01 -0.2241297E-07  0.0000000E+00 -0.6573698E-05
  0.5404040E+00  0.0000000E+00  0.2525252E-01 -0.2480368E-07  0.0000000E+00 -0.6583376E-05
  0.5505050E+00  0.0000000E+00  0.2525252E-01 -0.2710332E-07  0.0000000E+00 -0.6594014E-05
  0.5606061E+00  0.0000000E+00  0.2525252E-01 -0.2930425E-07  0.0000000E+00 -0.6605572E-05
  0.5707071E+00  0.0000000E+00  0.2525252E-01 -0.3139926E-07  0.0000000E+00 -0.6618008E-05
  0.5808081E+00  0.0000000E+00  0.2525252E-01 -0.3338155E-07  0.0000000E+00 -0.6631278E-05
  0.5909091E+00  0.0000000E+00  0.2525252E-01 -0.3524476E-07  0.0000000E+00 -0.6645334E-05
  0.6010101E+00  0.0000000E+00  0.2525252E-01 -0.3698295E-07  0.0000000E+00 -0.6660126E-05
  0.6111111E+00  0.0000000E+00  0.2525252E-01 -0.3859063E-07  0.0000000E+00 -0.6675602E-05
  0.6212121E+00  0.0000000E+00  0.2525252E-01 -0.4006277E-07  0.0000000E+00 -0.6691708E-05
  0.6313131E+00  0.0000000E+00  0.2525252E-01 -0.4139483E-07  0.0000000E+00 -0.6708387E-05
  0.6414142E+00  0.0000000E+00  0.2525252E-01 -0.4258277E-07  0.0000000E+00 -0.6725580E-05
  0.6515151E+00  0.0000000E+00  0.2525252E-01 -0.4362307E-07  0.0000000E+00 -0.6743229E-05
  0.6616161E+00  0.0000000E+00  0.2525252E-01 -0.4451277E-07  0.0000000E+00 -0.6761272E-05
  0.6717172E+00  0.0000000E+00  0.2525252E-01 -0.4524947E-07  0.0000000E+00 -0.6779647E-05
  0.6818182E+00  0.0000000E+00  0.2525252E-01 -0.4583137E-07  0.0000000E+00 -0.6798291E-05
  0.6919192E+00  0.0000000E+00  0.2525252E-01 -0.4625726E-07  0.0000000E+00 -0.6817141E-05
  0.7020202E+00  0.0000000E+00  0.2525252E-01 -0.4652655E-07  0.0000000E+00 -0.6836132E-05
  0.7121212E+00  0.0000000E+00  0.2525252E-01 -0.4663925E-07  0.0000000E+00 -0.6855200E-05
  0.7222222E+00  0.0000000E+00  0.2525252E-01 -0.4659599E-07  0.0000000E+00 -0.6874281E-05
  0.7323232E+00  0.0000000E+00  0.2525252E-01 -0.4639802E-07  0.0000000E+00 -0.6893312E-05
  0.7424242E+00  0.0000000E+00  0.2525252E-01 -0.4604715E-07  0.0000000E+00 -0.6912229E-05
  0.7525253E+00  0.0000000E+00  0.2525252E-01 -0.4554581E-07  0.0000000E+00 -0.6930971E-05
  0.7626263E+00  0.0000000E+00  0.2525252E-01 -0.4489693E-07  0.0000000E+00 -0.6949477E-05
  0.7727273E+00  0.0000000E+00  0.2525252E-01 -0.4410399E-07  0.0000000E+00 -0.6967687E-05
  0.7828283E+00  0.0000000E+00  0.2525252E-01 -0.4317093E-07  0.0000000E+00 -0.6985542E-05
  0.7929293E+00  0.0000000E+00  0.2525252E-01 -0.4210214E-07  0.0000000E+00 -0.7002986E-05
  0.8030303E+00  0.0000000E+00  0.2525252E-01 -0.4090243E-07  0.0000000E+00 -0.7019966E-05
  0.8131313E+00  0.0000000E+00  0.2525252E-01 -0.3957695E-07  0.0000000E+00 -0.7036428E-05
  0.8232324E+00  0.0000000E+00  0.2525252E-01 -0.3813119E-07  0.0000000E+00 -0.7052321E-05
  0.8333333E+00  0.0000000E+00  0.2525252E-01 -0.3657089E-07  0.0000000E+00 -0.7067599E-05
  0.8434343E+00  0.0000000E+00  0.2525252E-01 -0.3490204E-07  0.0000000E+00 -0.7082216E-05
  0.8535354E+00  0.0000000E+00  0.2525252E-01 -0.3313084E-07  0.0000000E+00 -0.7096128E-05
  0.8636364E+00  0.0000000E+00  0.2525252E-01 -0.3126362E-07  0.0000000E+00 -0.7109296E-05
  0.8737374E+00  0.0000000E+00  0.2525252E-01 -0.2930685E-07  0.0000000E+00 -0.7121680E-05
  0.8838384E+00  0.0000000E+00  0.2525252E-01 -0.2726709E-07  0.0000000E+00 -0.7133247E-05
  0.8939394E+00  0.0000000E+00  0.2525252E-01 -0.2515096E-07  0.0000000E+00 -0.7143963E-05
  0.9040404E+00  0.0000000E+00  0.2525252E-01 -0.2296514E-07  0.0000000E+00 -0.7153800E-05
  0.9141414E+00  0.0000000E+00  0.2525252E-01 -0.2071630E-07  0.0000000E+00 -0.7162729E-05
  0.9242424E+00  0.0000000E+00  0.2525252E-01 -0.1841115E-07  0.0000000E+00 -0.7170728E-05
  0.9343435E+00  0.0000000E+00  0.2525252E-01 -0.1605638E-07  0.0000000E+00 -0.7177773E-05
  0.9444444E+00  0.0000000E+00  0.2525252E-01 -0.1365866E-07  0.0000000E+00 -0.7183847E-05
  0.9545454E+00  0.0000000E+00  0.2525252E-01 -0.1122465E-07  0.0000000E+00 -0.7188933E-05
  0.9646465E+00  0.0000000E+00  0.2525252E-01 -0.8760987E-08  0.0000000E+00 -0.7193017E-05
  0.9747475E+00  0.0000000E+00  0.2525252E-01 -0.6274287E-08  0.0000000E+00 -0.7196090E-05
  0.9848485E+00  0.0000000E+00  0.2525252E-01 -0.3771145E-08  0.0000000E+00 -0.7198143E-05
  0.9974747E+00  0.0000000E+00  0.2525252E-01 -0.1258146E-08  0.0000000E+00 -0.7199171E-05
  0.5050505E-02  0.0000000E+00  0.3535353E-01  0.1949760E-08  0.0000000E+00 -0.6951654E-05
  0.1515152E-01  0.0000000E+00  0.3535353E-01  0.5840365E-08  0.0000000E+00 -0.6950485E-05
  0.2525252E-01  0.0000000E+00  0.3535353E-01  0.9704202E-08  0.0000000E+00 -0.6948152E-05
  0.3535353E-01  0.0000000E+00  0.3535353E-01  0.1352347E-07  0.0000000E+00 -0.6944666E-05
  0.4545455E-01  0.0000000E+00  0.3535353E-01  0.1728043E-07  0.0000000E+00 -0.6940042E-05
  0.5555556E-01  0.0000000E+00  0.3535353E-01  0.2095749E-07  0.0000000E+00 -0.6934303E-05
  0.6565657E-01  0.0000000E+00  0.3535353E-01  0.2453716E-07  0.0000000E+00 -0.6927474E-05
  0.7575758E-01  0.0000000E+00  0.3535353E-01  0.2800218E-07  0.0000000E+00 -0.6919587E-05
  0.8585858E-01  0.0000000E+00  0.3535353E-01  0.3133553E-07  0.0000000E+00 -0.6910678E-05
  0.9595960E-01  0.0000000E+00  0.3535353E-01  0.3452052E-07  0.0000000E+00 -0.6900790E-05
  0.1060606E+00  0.0000000E+00  0.3535353E-01  0.3754085E-07  0.0000000E+00 -0.6889969E-05
  0.1161616E+00  0.0000000E+00  0.3535353E-01  0.4038069E-07  0.0000000E+00 -0.6878266E-05
  0.1262626E+00  0.0000000E+00  0.3535353E-01  0.4302482E-07  0.0000000E+00 -0.6865739E-05
  0.1363636E+00  0.0000000E+00  0.3535353E-01  0.4545865E-07  0.0000000E+00 -0.6852448E-05
  0.1464646E+00  0.0000000E+00  0.3535353E-01  0.4766844E-07  0.0000000E+00 -0.6838458E-05
  0.1565657E+00  0.0000000E+00  0.3535353E-01  0.4964131E-07  0.0000000E+00 -0.6823838E-05
  0.1666667E+00  0.0000000E+00  0.3535353E-01  0.5136546E-07  0.0000000E+00 -0.6808661E-05
  0.1767677E+00  0.0000000E+00  0.3535353E-01  0.5283024E-07  0.0000000E+00 -0.6793004E-05
  0.1868687E+00  0.0000000E+00  0.3535353E-01  0.5402627E-07  0.0000000E+00 -0.6776946E-05
  0.1969697E+00  0.0000000E+00  0.3535353E-01  0.5494561E-07  0.0000000E+00 -0.6760570E-05
  0.2070707E+00  0.0000000E+00  0.3535353E-01  0.5558183E-07  0.0000000E+00 -0.6743959E-05
  0.2171717E+00  0.0000000E+00  0.3535353E-01  0.5593013E-07  0.0000000E+00 -0.6727200E-05
  0.2272727E+00  0.0000000E+00  0.3535353E-01  0.5598743E-07  0.0000000E+00 -0.6710381E-05
  0.2373737E+00  0.0000000E+00  0.3535353E-01  0.5575244E-07  0.0000000E+00 -0.6693589E-05
  0.2474747E+00  0.0000000E+00  0.3535353E-01  0.5522572E-07  0.0000000E+00 -0.6676913E-05
  0.2575758E+00  0.0000000E+00  0.3535353E-01  0.5440966E-07  0.0000000E+00 -0.6660440E-05
  0.2676768E+00  0.0000000E+00  0.3535353E-01  0.5330856E-07  0.0000000E+00 -0.6644257E-05
  0.2777778E+00  0.0000000E+00  0.3535353E-01  0.5192854E-07  0.0000000E+00 -0.6628450E-05
  0.2878788E+00  0.0000000E+00  0.3535353E-01  0.5027752E-07  0.0000000E+00 -0.6613102E-05
  0.2979798E+00  0.0000000E+00  0.3535353E-01  0.4836511E-07  0.0000000E+00 -0.6598292E-05