title = "dataset water"
variables = "x", "y", "z", "vx", "vy", "vz"
zone t = "velocities, solution time =  2.600E+01 days        " i =   99, j =   99, k =    1,  f=point
  0.5050505E-02  0.0000000E+00  0.5050505E-02  0.9803253E-11  0.0000000E+00 -0.1205476E-04
  0.1515152E-01  0.0000000E+00  0.5050505E-02  0.2937027E-10  0.0000000E+00 -0.1205472E-04
  0.2525252E-01  0.0000000E+00  0.5050505E-02  0.4881533E-10  0.0000000E+00 -0.1205464E-04
  0.3535353E-01  0.0000000E+00  0.5050505E-02  0.6805703E-10  0.0000000E+00 -0.1205452E-04
  0.4545455E-01  0.0000000E+00  0.5050505E-02  0.8701484E-10  0.0000000E+00 -0.1205437E-04
  0.5555556E-01  0.0000000E+00  0.5050505E-02  0.1056089E-09  0.0000000E+00 -0.1205417E-04
  0.6565657E-01  0.0000000E+00  0.5050505E-02  0.1237600E-09  0.0000000E+00 -0.1205395E-04
  0.7575758E-01  0.0000000E+00  0.5050505E-02  0.1413905E-09  0.0000000E+00 -0.1205368E-04
  0.8585858E-01  0.0000000E+00  0.5050505E-02  0.1584236E-09  0.0000000E+00 -0.1205338E-04
  0.9595960E-01  0.0000000E+00  0.5050505E-02  0.1747844E-09  0.0000000E+00 -0.1205305E-04
  0.1060606E+00  0.0000000E+00  0.5050505E-02  0.1903999E-09  0.0000000E+00 -0.1205268E-04
  0.1161616E+00  0.0000000E+00  0.5050505E-02  0.2051990E-09  0.0000000E+00 -0.1205228E-04
  0.1262626E+00  0.0000000E+00  0.5050505E-02  0.2191133E-09  0.0000000E+00 -0.1205186E-04
  0.1363636E+00  0.0000000E+00  0.5050505E-02  0.2320770E-09  0.0000000E+00 -0.1205141E-04
  0.1464646E+00  0.0000000E+00  0.5050505E-02  0.2440272E-09  0.0000000E+00 -0.1205093E-04
  0.1565657E+00  0.0000000E+00  0.5050505E-02  0.2549047E-09  0.0000000E+00 -0.1205043E-04
  0.1666667E+00  0.0000000E+00  0.5050505E-02  0.2646537E-09  0.0000000E+00 -0.1204991E-04
  0.1767677E+00  0.0000000E+00  0.5050505E-02  0.2732226E-09  0.0000000E+00 -0.1204937E-04
  0.1868687E+00  0.0000000E+00  0.5050505E-02  0.2805642E-09  0.0000000E+00 -0.1204882E-04
  0.1969697E+00  0.0000000E+00  0.5050505E-02  0.2866360E-09  0.0000000E+00 -0.1204825E-04
  0.2070707E+00  0.0000000E+00  0.5050505E-02  0.2914007E-09  0.0000000E+00 -0.1204767E-04
  0.2171717E+00  0.0000000E+00  0.5050505E-02  0.2948261E-09  0.0000000E+00 -0.1204708E-04
  0.2272727E+00  0.0000000E+00  0.5050505E-02  0.2968860E-09  0.0000000E+00 -0.1204649E-04
  0.2373737E+00  0.0000000E+00  0.5050505E-02  0.2975601E-09  0.0000000E+00 -0.1204589E-04
  0.2474747E+00  0.0000000E+00  0.5050505E-02  0.2968343E-09  0.0000000E+00 -0.1204530E-04
  0.2575758E+00  0.0000000E+00  0.5050505E-02  0.2947012E-09  0.0000000E+00 -0.1204471E-04
  0.2676768E+00  0.0000000E+00  0.5050505E-02  0.2911600E-09  0.0000000E+00 -0.1204412E-04
  0.2777778E+00  0.0000000E+00  0.5050505E-02  0.2862168E-09  0.0000000E+00 -0.1204354E-04
  0.2878788E+00  0.0000000E+00  0.5050505E-02  0.2798846E-09  0.0000000E+00 -0.1204298E-04
  0.2979798E+00  0.0000000E+00  0.5050505E-02  0.2721837E-09  0.0000000E+00 -0.1204242E-04
  0.3080808E+00  0.0000000E+00  0.5050505E-02  0.2631414E-09  0.0000000E+00 -0.1204189E-04
  0.3181818E+00  0.0000000E+00  0.5050505E-02  0.2527920E-09  0.0000000E+00 -0.1204137E-04
  0.3282828E+00  0.0000000E+00  0.5050505E-02  0.2411770E-09  0.0000000E+00 -0.1204087E-04
  0.3383838E+00  0.0000000E+00  0.5050505E-02  0.2283445E-09  0.0000000E+00 -0.1204040E-04
  0.3484848E+00  0.0000000E+00  0.5050505E-02  0.2143496E-09  0.0000000E+00 -0.1203996E-04
  0.3585859E+00  0.0000000E+00  0.5050505E-02  0.1992535E-09  0.0000000E+00 -0.1203955E-04
  0.3686869E+00  0.0000000E+00  0.5050505E-02  0.1831238E-09  0.0000000E+00 -0.1203916E-04
  0.3787879E+00  0.0000000E+00  0.5050505E-02  0.1660336E-09  0.0000000E+00 -0.1203881E-04
  0.3888889E+00  0.0000000E+00  0.5050505E-02  0.1480615E-09  0.0000000E+00 -0.1203850E-04
  0.3989899E+00  0.0000000E+00  0.5050505E-02  0.1292909E-09  0.0000000E+00 -0.1203822E-04
  0.4090909E+00  0.0000000E+00  0.5050505E-02  0.1098098E-09  0.0000000E+00 -0.1203798E-04
  0.4191919E+00  0.0000000E+00  0.5050505E-02  0.8970984E-10  0.0000000E+00 -0.1203778E-04
  0.4292929E+00  0.0000000E+00  0.5050505E-02  0.6908603E-10  0.0000000E+00 -0.1203762E-04
  0.4393939E+00  0.0000000E+00  0.5050505E-02  0.4803610E-10  0.0000000E+00 -0.1203751E-04
  0.4494950E+00  0.0000000E+00  0.5050505E-02  0.2665982E-10  0.0000000E+00 -0.1203743E-04
  0.4595959E+00  0.0000000E+00  0.5050505E-02  0.5058423E-11  0.0000000E+00 -0.1203740E-04
  0.4696970E+00  0.0000000E+00  0.5050505E-02 -0.1666607E-10  0.0000000E+00 -0.1203741E-04
  0.4797980E+00  0.0000000E+00  0.5050505E-02 -0.3841147E-10  0.0000000E+00 -0.1203747E-04
  0.4898990E+00  0.0000000E+00  0.5050505E-02 -0.6007607E-10  0.0000000E+00 -0.1203757E-04
  0.5000000E+00  0.0000000E+00  0.5050505E-02 -0.8155930E-10  0.0000000E+00 -0.1203771E-04
  0.5101010E+00  0.0000000E+00  0.5050505E-02 -0.1027623E-09  0.0000000E+00 -0.1203789E-04
  0.5202020E+00  0.0000000E+00  0.5050505E-02 -0.1235886E-09  0.0000000E+00 -0.1203812E-04
  0.5303030E+00  0.0000000E+00  0.5050505E-02 -0.1439445E-09  0.0000000E+00 -0.1203839E-04
  0.5404040E+00  0.0000000E+00  0.5050505E-02 -0.1637397E-09  0.0000000E+00 -0.1203869E-04
  0.5505050E+00  0.0000000E+00  0.5050505E-02 -0.1828882E-09  0.0000000E+00 -0.1203904E-04
  0.5606061E+00  0.0000000E+00  0.5050505E-02 -0.2013078E-09  0.0000000E+00 -0.1203943E-04
  0.5707071E+00  0.0000000E+00  0.5050505E-02 -0.2189215E-09  0.0000000E+00 -0.1203985E-04
  0.5808081E+00  0.0000000E+00  0.5050505E-02 -0.2356574E-09  0.0000000E+00 -0.1204030E-04
  0.5909091E+00  0.0000000E+00  0.5050505E-02 -0.2514489E-09  0.0000000E+00 -0.1204079E-04
  0.6010101E+00  0.0000000E+00  0.5050505E-02 -0.2662354E-09  0.0000000E+00 -0.1204131E-04
  0.6111111E+00  0.0000000E+00  0.5050505E-02 -0.2799620E-09  0.0000000E+00 -0.1204186E-04
  0.6212121E+00  0.0000000E+00  0.5050505E-02 -0.2925800E-09  0.0000000E+00 -0.1204243E-04
  0.6313131E+00  0.0000000E+00  0.5050505E-02 -0.3040470E-09  0.0000000E+00 -0.1204303E-04
  0.6414142E+00  0.0000000E+00  0.5050505E-02 -0.3143269E-09  0.0000000E+00 -0.1204365E-04
  0.6515151E+00  0.0000000E+00  0.5050505E-02 -0.3233897E-09  0.0000000E+00 -0.1204428E-04
  0.6616161E+00  0.0000000E+00  0.5050505E-02 -0.3312118E-09  0.0000000E+00 -0.1204494E-04
  0.6717172E+00  0.0000000E+00  0.5050505E-02 -0.3377758E-09  0.0000000E+00 -0.1204561E-04
  0.6818182E+00  0.0000000E+00  0.5050505E-02 -0.3430701E-09  0.0000000E+00 -0.1204629E-04
  0.6919192E+00  0.0000000E+00  0.5050505E-02 -0.3470893E-09  0.0000000E+00 -0.1204698E-04
  0.7020202E+00  0.0000000E+00  0.5050505E-02 -0.3498334E-09  0.0000000E+00 -0.1204768E-04
  0.7121212E+00  0.0000000E+00  0.5050505E-02 -0.3513079E-09  0.0000000E+00 -0.1204838E-04
  0.7222222E+00  0.0000000E+00  0.5050505E-02 -0.3515235E-09  0.0000000E+00 -0.1204909E-04
  0.7323232E+00  0.0000000E+00  0.5050505E-02 -0.3504957E-09  0.0000000E+00 -0.1204979E-04
  0.7424242E+00  0.0000000E+00  0.5050505E-02 -0.3482447E-09  0.0000000E+00 -0.1205049E-04
  0.7525253E+00  0.0000000E+00  0.5050505E-02 -0.3447947E-09  0.0000000E+00 -0.1205118E-04
  0.7626263E+00  0.0000000E+00  0.5050505E-02 -0.3401741E-09  0.0000000E+00 -0.1205187E-04
  0.7727273E+00  0.0000000E+00  0.5050505E-02 -0.3344147E-09  0.0000000E+00 -0.1205255E-04
  0.7828283E+00  0.0000000E+00  0.5050505E-02 -0.3275515E-09  0.0000000E+00 -0.1205321E-04
  0.7929293E+00  0.0000000E+00  0.5050505E-02 -0.3196226E-09  0.0000000E+00 -0.1205386E-04
  0.8030303E+00  0.0000000E+00  0.5050505E-02 -0.3106685E-09  0.0000000E+00 -0.1205449E-04
  0.8131313E+00  0.0000000E+00  0.5050505E-02 -0.3007319E-09  0.0000000E+00 -0.1205510E-04
  0.8232324E+00  0.0000000E+00  0.5050505E-02 -0.2898578E-09  0.0000000E+00 -0.1205569E-04
  0.8333333E+00  0.0000000E+00  0.5050505E-02 -0.2780924E-09  0.0000000E+00 -0.1205626E-04
  0.8434343E+00  0.0000000E+00  0.5050505E-02 -0.2654835E-09  0.0000000E+00 -0.1205680E-04
  0.8535354E+00  0.0000000E+00  0.5050505E-02 -0.2520802E-09  0.0000000E+00 -0.1205732E-04
  0.8636364E+00  0.0000000E+00  0.5050505E-02 -0.2379323E-09  0.0000000E+00 -0.1205781E-04
  0.8737374E+00  0.0000000E+00  0.5050505E-02 -0.2230903E-09  0.0000000E+00 -0.1205828E-04
  0.8838384E+00  0.0000000E+00  0.5050505E-02 -0.2076052E-09  0.0000000E+00 -0.1205871E-04
  0.8939394E+00  0.0000000E+00  0.5050505E-02 -0.1915286E-09  0.0000000E+00 -0.1205911E-04
  0.9040404E+00  0.0000000E+00  0.5050505E-02 -0.1749120E-09  0.0000000E+00 -0.1205947E-04
  0.9141414E+00  0.0000000E+00  0.5050505E-02 -0.1578072E-09  0.0000000E+00 -0.1205981E-04
  0.9242424E+00  0.0000000E+00  0.5050505E-02 -0.1402659E-09  0.0000000E+00 -0.1206011E-04
  0.9343435E+00  0.0000000E+00  0.5050505E-02 -0.1223400E-09  0.0000000E+00 -0.1206037E-04
  0.9444444E+00  0.0000000E+00  0.5050505E-02 -0.1040810E-09  0.0000000E+00 -0.1206060E-04
  0.9545454E+00  0.0000000E+00  0.5050505E-02 -0.8554058E-10  0.0000000E+00 -0.1206079E-04
  0.9646465E+00  0.0000000E+00  0.5050505E-02 -0.6677001E-10  0.0000000E+00 -0.1206094E-04
  0.9747475E+00  0.0000000E+00  0.5050505E-02 -0.4782064E-10  0.0000000E+00 -0.1206105E-04
  0.9848485E+00  0.0000000E+00  0.5050505E-02 -0.2874364E-10  0.0000000E+00 -0.1206113E-04
  0.9974747E+00  0.0000000E+00  0.5050505E-02 -0.9590176E-11  0.0000000E+00 -0.1206117E-04
  0.5050505E-02  0.0000000E+00  0.1515152E-01  0.2949522E-10  0.0000000E+00 -0.1203649E-04
  0.1515152E-01  0.0000000E+00  0.1515152E-01  0.8836613E-10  0.0000000E+00 -0.1203645E-04
  0.2525252E-01  0.0000000E+00  0.1515152E-01  0.1468704E-09  0.0000000E+00 -0.1203637E-04
  0.3535353E-01  0.0000000E+00  0.1515152E-01  0.2047631E-09  0.0000000E+00 -0.1203625E-04
  0.4545455E-01  0.0000000E+00  0.1515152E-01  0.2618022E-09  0.0000000E+00 -0.1203610E-04
  0.5555556E-01  0.0000000E+00  0.1515152E-01  0.3177473E-09  0.0000000E+00 -0.1203590E-04
  0.6565657E-01  0.0000000E+00  0.1515152E-01  0.3723606E-09  0.0000000E+00 -0.1203567E-04
  0.7575758E-01  0.0000000E+00  0.1515152E-01  0.4254078E-09  0.0000000E+00 -0.1203540E-04
  0.8585858E-01  0.0000000E+00  0.1515152E-01  0.4766587E-09  0.0000000E+00 -0.1203510E-04
  0.9595960E-01  0.0000000E+00  0.1515152E-01  0.5258877E-09  0.0000000E+00 -0.1203476E-04
  0.1060606E+00  0.0000000E+00  0.1515152E-01  0.5728750E-09  0.0000000E+00 -0.1203439E-04
  0.1161616E+00  0.0000000E+00  0.1515152E-01  0.6174070E-09  0.0000000E+00 -0.1203399E-04
  0.1262626E+00  0.0000000E+00  0.1515152E-01  0.6592776E-09  0.0000000E+00 -0.1203356E-04
  0.1363636E+00  0.0000000E+00  0.1515152E-01  0.6982886E-09  0.0000000E+00 -0.1203310E-04
  0.1464646E+00  0.0000000E+00  0.1515152E-01  0.7342513E-09  0.0000000E+00 -0.1203262E-04
  0.1565657E+00  0.0000000E+00  0.1515152E-01  0.7669869E-09  0.0000000E+00 -0.1203211E-04
  0.1666667E+00  0.0000000E+00  0.1515152E-01  0.7963278E-09  0.0000000E+00 -0.1203159E-04
  0.1767677E+00  0.0000000E+00  0.1515152E-01  0.8221185E-09  0.0000000E+00 -0.1203104E-04
  0.1868687E+00  0.0000000E+00  0.1515152E-01  0.8442169E-09  0.0000000E+00 -0.1203048E-04
  0.1969697E+00  0.0000000E+00  0.1515152E-01  0.8624950E-09  0.0000000E+00 -0.1202990E-04
  0.2070707E+00  0.0000000E+00  0.1515152E-01  0.8768399E-09  0.0000000E+00 -0.1202932E-04
  0.2171717E+00  0.0000000E+00  0.1515152E-01  0.8871553E-09  0.0000000E+00 -0.1202872E-04
  0.2272727E+00  0.0000000E+00  0.1515152E-01  0.8933618E-09  0.0000000E+00 -0.1202812E-04
  0.2373737E+00  0.0000000E+00  0.1515152E-01  0.8953982E-09  0.0000000E+00 -0.1202752E-04
  0.2474747E+00  0.0000000E+00  0.1515152E-01  0.8932222E-09  0.0000000E+00 -0.1202692E-04
  0.2575758E+00  0.0000000E+00  0.1515152E-01  0.8868109E-09  0.0000000E+00 -0.1202632E-04
  0.2676768E+00  0.0000000E+00  0.1515152E-01  0.8761620E-09  0.0000000E+00 -0.1202573E-04
  0.2777778E+00  0.0000000E+00  0.1515152E-01  0.8612936E-09  0.0000000E+00 -0.1202514E-04
  0.2878788E+00  0.0000000E+00  0.1515152E-01  0.8422451E-09  0.0000000E+00 -0.1202457E-04
  0.2979798E+00  0.0000000E+00  0.1515152E-01  0.8190771E-09  0.0000000E+00 -0.1202401E-04
  0.3080808E+00  0.0000000E+00  0.1515152E-01  0.7918716E-09  0.0000000E+00 -0.1202346E-04
  0.3181818E+00  0.0000000E+00  0.1515152E-01  0.7607322E-09  0.0000000E+00 -0.1202294E-04
  0.3282828E+00  0.0000000E+00  0.1515152E-01  0.7257833E-09  0.0000000E+00 -0.1202244E-04
  0.3383838E+00  0.0000000E+00  0.1515152E-01  0.6871701E-09  0.0000000E+00 -0.1202197E-04
  0.3484848E+00  0.0000000E+00  0.1515152E-01  0.6450579E-09  0.0000000E+00 -0.1202152E-04
  0.3585859E+00  0.0000000E+00  0.1515152E-01  0.5996313E-09  0.0000000E+00 -0.1202110E-04
  0.3686869E+00  0.0000000E+00  0.1515152E-01  0.5510934E-09  0.0000000E+00 -0.1202071E-04
  0.3787879E+00  0.0000000E+00  0.1515152E-01  0.4996646E-09  0.0000000E+00 -0.1202036E-04
  0.3888889E+00  0.0000000E+00  0.1515152E-01  0.4455814E-09  0.0000000E+00 -0.1202004E-04
  0.3989899E+00  0.0000000E+00  0.1515152E-01  0.3890952E-09  0.0000000E+00 -0.1201976E-04
  0.4090909E+00  0.0000000E+00  0.1515152E-01  0.3304704E-09  0.0000000E+00 -0.1201951E-04
  0.4191919E+00  0.0000000E+00  0.1515152E-01  0.2699833E-09  0.0000000E+00 -0.1201931E-04
  0.4292929E+00  0.0000000E+00  0.1515152E-01  0.2079198E-09  0.0000000E+00 -0.1201915E-04
  0.4393939E+00  0.0000000E+00  0.1515152E-01  0.1445742E-09  0.0000000E+00 -0.1201903E-04
  0.4494950E+00  0.0000000E+00  0.1515152E-01  0.8024689E-10  0.0000000E+00 -0.1201896E-04
  0.4595959E+00  0.0000000E+00  0.1515152E-01  0.1524268E-10  0.0000000E+00 -0.1201892E-04
  0.4696970E+00  0.0000000E+00  0.1515152E-01 -0.5013126E-10  0.0000000E+00 -0.1201894E-04
  0.4797980E+00  0.0000000E+00  0.1515152E-01 -0.1155673E-09  0.0000000E+00 -0.1201899E-04
  0.4898990E+00  0.0000000E+00  0.1515152E-01 -0.1807592E-09  0.0000000E+00 -0.1201909E-04
  0.5000000E+00  0.0000000E+00  0.1515152E-01 -0.2454042E-09  0.0000000E+00 -0.1201923E-04
  0.5101010E+00  0.0000000E+00  0.1515152E-01 -0.3092047E-09  0.0000000E+00 -0.1201942E-04
  0.5202020E+00  0.0000000E+00  0.1515152E-01 -0.3718702E-09  0.0000000E+00 -0.1201965E-04
  0.5303030E+00  0.0000000E+00  0.1515152E-01 -0.4331188E-09  0.0000000E+00 -0.1201992E-04
  0.5404040E+00  0.0000000E+00  0.1515152E-01 -0.4926790E-09  0.0000000E+00 -0.1202023E-04
  0.5505050E+00  0.0000000E+00  0.1515152E-01 -0.5502911E-09  0.0000000E+00 -0.1202058E-04
  0.5606061E+00  0.0000000E+00  0.1515152E-01 -0.6057086E-09  0.0000000E+00 -0.1202097E-04
  0.5707071E+00  0.0000000E+00  0.1515152E-01 -0.6586995E-09  0.0000000E+00 -0.1202140E-04
  0.5808081E+00  0.0000000E+00  0.1515152E-01 -0.7090473E-09  0.0000000E+00 -0.1202186E-04
  0.5909091E+00  0.0000000E+00  0.1515152E-01 -0.7565520E-09  0.0000000E+00 -0.1202235E-04
  0.6010101E+00  0.0000000E+00  0.1515152E-01 -0.8010308E-09  0.0000000E+00 -0.1202288E-04
  0.6111111E+00  0.0000000E+00  0.1515152E-01 -0.8423191E-09  0.0000000E+00 -0.1202343E-04
  0.6212121E+00  0.0000000E+00  0.1515152E-01 -0.8802705E-09  0.0000000E+00 -0.1202401E-04
  0.6313131E+00  0.0000000E+00  0.1515152E-01 -0.9147573E-09  0.0000000E+00 -0.1202462E-04
  0.6414142E+00  0.0000000E+00  0.1515152E-01 -0.9456710E-09  0.0000000E+00 -0.1202524E-04
  0.6515151E+00  0.0000000E+00  0.1515152E-01 -0.9729217E-09  0.0000000E+00 -0.1202589E-04
  0.6616161E+00  0.0000000E+00  0.1515152E-01 -0.9964386E-09  0.0000000E+00 -0.1202655E-04
  0.6717172E+00  0.0000000E+00  0.1515152E-01 -0.1016169E-08  0.0000000E+00 -0.1202723E-04
  0.6818182E+00  0.0000000E+00  0.1515152E-01 -0.1032080E-08  0.0000000E+00 -0.1202792E-04
  0.6919192E+00  0.0000000E+00  0.1515152E-01 -0.1044153E-08  0.0000000E+00 -0.1202862E-04
  0.7020202E+00  0.0000000E+00  0.1515152E-01 -0.1052390E-08  0.0000000E+00 -0.1202932E-04
  0.7121212E+00  0.0000000E+00  0.1515152E-01 -0.1056808E-08  0.0000000E+00 -0.1203003E-04
  0.7222222E+00  0.0000000E+00  0.1515152E-01 -0.1057438E-08  0.0000000E+00 -0.1203074E-04
  0.7323232E+00  0.0000000E+00  0.1515152E-01 -0.1054328E-08  0.0000000E+00 -0.1203146E-04
  0.7424242E+00  0.0000000E+00  0.1515152E-01 -0.1047538E-08  0.0000000E+00 -0.1203216E-04
  0.7525253E+00  0.0000000E+00  0.1515152E-01 -0.1037143E-08  0.0000000E+00 -0.1203286E-04
  0.7626263E+00  0.0000000E+00  0.1515152E-01 -0.1023226E-08  0.0000000E+00 -0.1203356E-04
  0.7727273E+00  0.0000000E+00  0.1515152E-01 -0.1005885E-08  0.0000000E+00 -0.1203424E-04
  0.7828283E+00  0.0000000E+00  0.1515152E-01 -0.9852252E-09  0.0000000E+00 -0.1203491E-04
  0.7929293E+00  0.0000000E+00  0.1515152E-01 -0.9613604E-09  0.0000000E+00 -0.1203557E-04
  0.8030303E+00  0.0000000E+00  0.1515152E-01 -0.9344132E-09  0.0000000E+00 -0.1203620E-04
  0.8131313E+00  0.0000000E+00  0.1515152E-01 -0.9045124E-09  0.0000000E+00 -0.1203682E-04
  0.8232324E+00  0.0000000E+00  0.1515152E-01 -0.8717929E-09  0.0000000E+00 -0.1203742E-04
  0.8333333E+00  0.0000000E+00  0.1515152E-01 -0.8363944E-09  0.0000000E+00 -0.1203800E-04
  0.8434343E+00  0.0000000E+00  0.1515152E-01 -0.7984607E-09  0.0000000E+00 -0.1203855E-04
  0.8535354E+00  0.0000000E+00  0.1515152E-01 -0.7581391E-09  0.0000000E+00 -0.1203907E-04
  0.8636364E+00  0.0000000E+00  0.1515152E-01 -0.7155796E-09  0.0000000E+00 -0.1203957E-04
  0.8737374E+00  0.0000000E+00  0.1515152E-01 -0.6709342E-09  0.0000000E+00 -0.1204003E-04
  0.8838384E+00  0.0000000E+00  0.1515152E-01 -0.6243566E-09  0.0000000E+00 -0.1204047E-04
  0.8939394E+00  0.0000000E+00  0.1515152E-01 -0.5760012E-09  0.0000000E+00 -0.1204087E-04
  0.9040404E+00  0.0000000E+00  0.1515152E-01 -0.5260235E-09  0.0000000E+00 -0.1204124E-04
  0.9141414E+00  0.0000000E+00  0.1515152E-01 -0.4745789E-09  0.0000000E+00 -0.1204158E-04
  0.9242424E+00  0.0000000E+00  0.1515152E-01 -0.4218232E-09  0.0000000E+00 -0.1204188E-04
  0.9343435E+00  0.0000000E+00  0.1515152E-01 -0.3679118E-09  0.0000000E+00 -0.1204215E-04
  0.9444444E+00  0.0000000E+00  0.1515152E-01 -0.3129999E-09  0.0000000E+00 -0.1204238E-04
  0.9545454E+00  0.0000000E+00  0.1515152E-01 -0.2572424E-09  0.0000000E+00 -0.1204257E-04
  0.9646465E+00  0.0000000E+00  0.1515152E-01 -0.2007937E-09  0.0000000E+00 -0.1204272E-04
  0.9747475E+00  0.0000000E+00  0.1515152E-01 -0.1438078E-09  0.0000000E+00 -0.1204284E-04
  0.9848485E+00  0.0000000E+00  0.1515152E-01 -0.8643854E-10  0.0000000E+00 -0.1204291E-04
  0.9974747E+00  0.0000000E+00  0.1515152E-01 -0.2883944E-10  0.0000000E+00 -0.1204295E-04
  0.5050505E-02  0.0000000E+00  0.2525252E-01  0.4947242E-10  0.0000000E+00 -0.1200003E-04
  0.1515152E-01  0.0000000E+00  0.2525252E-01  0.1482157E-09  0.0000000E+00 -0.1199999E-04
  0.2525252E-01  0.0000000E+00  0.2525252E-01  0.2463446E-09  0.0000000E+00 -0.1199991E-04
  0.3535353E-01  0.0000000E+00  0.2525252E-01  0.3434491E-09  0.0000000E+00 -0.1199978E-04
  0.4545455E-01  0.0000000E+00  0.2525252E-01  0.4391232E-09  0.0000000E+00 -0.1199962E-04
  0.5555556E-01  0.0000000E+00  0.2525252E-01  0.5329640E-09  0.0000000E+00 -0.1199942E-04
  0.6565657E-01  0.0000000E+00  0.2525252E-01  0.6245734E-09  0.0000000E+00 -0.1199919E-04
  0.7575758E-01  0.0000000E+00  0.2525252E-01  0.7135582E-09  0.0000000E+00 -0.1199891E-04
  0.8585858E-01  0.0000000E+00  0.2525252E-01  0.7995326E-09  0.0000000E+00 -0.1199860E-04
  0.9595960E-01  0.0000000E+00  0.2525252E-01  0.8821185E-09  0.0000000E+00 -0.1199826E-04
  0.1060606E+00  0.0000000E+00  0.2525252E-01  0.9609470E-09  0.0000000E+00 -0.1199788E-04
  0.1161616E+00  0.0000000E+00  0.2525252E-01  0.1035660E-08  0.0000000E+00 -0.1199747E-04
  0.1262626E+00  0.0000000E+00  0.2525252E-01  0.1105912E-08  0.0000000E+00 -0.1199703E-04
  0.1363636E+00  0.0000000E+00  0.2525252E-01  0.1171370E-08  0.0000000E+00 -0.1199656E-04
  0.1464646E+00  0.0000000E+00  0.2525252E-01  0.1231717E-08  0.0000000E+00 -0.1199607E-04
  0.1565657E+00  0.0000000E+00  0.2525252E-01  0.1286653E-08  0.0000000E+00 -0.1199555E-04
  0.1666667E+00  0.0000000E+00  0.2525252E-01  0.1335897E-08  0.0000000E+00 -0.1199501E-04
  0.1767677E+00  0.0000000E+00  0.2525252E-01  0.1379188E-08  0.0000000E+00 -0.1199445E-04
  0.1868687E+00  0.0000000E+00  0.2525252E-01  0.1416286E-08  0.0000000E+00 -0.1199388E-04
  0.1969697E+00  0.0000000E+00  0.2525252E-01  0.1446976E-08  0.0000000E+00 -0.1199329E-04
  0.2070707E+00  0.0000000E+00  0.2525252E-01  0.1471069E-08  0.0000000E+00 -0.1199269E-04
  0.2171717E+00  0.0000000E+00  0.2525252E-01  0.1488402E-08  0.0000000E+00 -0.1199208E-04
  0.2272727E+00  0.0000000E+00  0.2525252E-01  0.1498842E-08  0.0000000E+00 -0.1199147E-04
  0.2373737E+00  0.0000000E+00  0.2525252E-01  0.1502286E-08  0.0000000E+00 -0.1199085E-04
  0.2474747E+00  0.0000000E+00  0.2525252E-01  0.1498661E-08  0.0000000E+00 -0.1199023E-04
  0.2575758E+00  0.0000000E+00  0.2525252E-01  0.1487930E-08  0.0000000E+00 -0.1198962E-04
  0.2676768E+00  0.0000000E+00  0.2525252E-01  0.1470087E-08  0.0000000E+00 -0.1198901E-04
  0.2777778E+00  0.0000000E+00  0.2525252E-01  0.1445163E-08  0.0000000E+00 -0.1198841E-04
  0.2878788E+00  0.0000000E+00  0.2525252E-01  0.1413223E-08  0.0000000E+00 -0.1198782E-04
  0.2979798E+00  0.0000000E+00  0.2525252E-01  0.1374368E-08  0.0000000E+00 -0.1198725E-04
  0.3080808E+00  0.0000000E+00  0.2525252E-01  0.1328737E-08  0.0000000E+00 -0.1198669E-04
  0.3181818E+00  0.0000000E+00  0.2525252E-01  0.1276503E-08  0.0000000E+00 -0.1198616E-04
  0.3282828E+00  0.0000000E+00  0.2525252E-01  0.1217874E-08  0.0000000E+00 -0.1198565E-04
  0.3383838E+00  0.0000000E+00  0.2525252E-01  0.1153093E-08  0.0000000E+00 -0.1198516E-04
  0.3484848E+00  0.0000000E+00  0.2525252E-01  0.1082439E-08  0.0000000E+00 -0.1198470E-04
  0.3585859E+00  0.0000000E+00  0.2525252E-01  0.1006222E-08  0.0000000E+00 -0.1198427E-04
  0.3686869E+00  0.0000000E+00  0.2525252E-01  0.9247810E-09  0.0000000E+00 -0.1198387E-04
  0.3787879E+00  0.0000000E+00  0.2525252E-01  0.8384877E-09  0.0000000E+00 -0.1198351E-04
  0.3888889E+00  0.0000000E+00  0.2525252E-01  0.7477389E-09  0.0000000E+00 -0.1198318E-04
  0.3989899E+00  0.0000000E+00  0.2525252E-01  0.6529565E-09  0.0000000E+00 -0.1198289E-04
  0.4090909E+00  0.0000000E+00  0.2525252E-01  0.5545851E-09  0.0000000E+00 -0.1198265E-04
  0.4191919E+00  0.0000000E+00  0.2525252E-01  0.4530883E-09  0.0000000E+00 -0.1198244E-04
  0.4292929E+00  0.0000000E+00  0.2525252E-01  0.3489467E-09  0.0000000E+00 -0.1198227E-04
  0.4393939E+00  0.0000000E+00  0.2525252E-01  0.2426544E-09  0.0000000E+00 -0.1198215E-04
  0.4494950E+00  0.0000000E+00  0.2525252E-01  0.1347162E-09  0.0000000E+00 -0.1198207E-04
  0.4595959E+00  0.0000000E+00  0.2525252E-01  0.2564399E-10  0.0000000E+00 -0.1198204E-04
  0.4696970E+00  0.0000000E+00  0.2525252E-01 -0.8404631E-10  0.0000000E+00 -0.1198205E-04
  0.4797980E+00  0.0000000E+00  0.2525252E-01 -0.1938380E-09  0.0000000E+00 -0.1198211E-04
  0.4898990E+00  0.0000000E+00  0.2525252E-01 -0.3032168E-09  0.0000000E+00 -0.1198221E-04
  0.5000000E+00  0.0000000E+00  0.2525252E-01 -0.4116742E-09  0.0000000E+00 -0.1198236E-04
  0.5101010E+00  0.0000000E+00  0.2525252E-01 -0.5187106E-09  0.0000000E+00 -0.1198255E-04
  0.5202020E+00  0.0000000E+00  0.2525252E-01 -0.6238380E-09  0.0000000E+00 -0.1198279E-04
  0.5303030E+00  0.0000000E+00  0.2525252E-01 -0.7265834E-09  0.0000000E+00 -0.1198306E-04
  0.5404040E+00  0.0000000E+00  0.2525252E-01 -0.8264909E-09  0.0000000E+00 -0.1198338E-04
  0.5505050E+00  0.0000000E+00  0.2525252E-01 -0.9231248E-09  0.0000000E+00 -0.1198374E-04
  0.5606061E+00  0.0000000E+00  0.2525252E-01 -0.1016071E-08  0.0000000E+00 -0.1198414E-04
  0.5707071E+00  0.0000000E+00  0.2525252E-01 -0.1104941E-08  0.0000000E+00 -0.1198458E-04
  0.5808081E+00  0.0000000E+00  0.2525252E-01 -0.1189372E-08  0.0000000E+00 -0.1198505E-04
  0.5909091E+00  0.0000000E+00  0.2525252E-01 -0.1269027E-08  0.0000000E+00 -0.1198555E-04
  0.6010101E+00  0.0000000E+00  0.2525252E-01 -0.1343601E-08  0.0000000E+00 -0.1198609E-04
  0.6111111E+00  0.0000000E+00  0.2525252E-01 -0.1412817E-08  0.0000000E+00 -0.1198665E-04
  0.6212121E+00  0.0000000E+00  0.2525252E-01 -0.1476431E-08  0.0000000E+00 -0.1198725E-04
  0.6313131E+00  0.0000000E+00  0.2525252E-01 -0.1534229E-08  0.0000000E+00 -0.1198787E-04
  0.6414142E+00  0.0000000E+00  0.2525252E-01 -0.1586029E-08  0.0000000E+00 -0.1198851E-04
  0.6515151E+00  0.0000000E+00  0.2525252E-01 -0.1631682E-08  0.0000000E+00 -0.1198917E-04
  0.6616161E+00  0.0000000E+00  0.2525252E-01 -0.1671068E-08  0.0000000E+00 -0.1198985E-04
  0.6717172E+00  0.0000000E+00  0.2525252E-01 -0.1704102E-08  0.0000000E+00 -0.1199054E-04
  0.6818182E+00  0.0000000E+00  0.2525252E-01 -0.1730725E-08  0.0000000E+00 -0.1199124E-04
  0.6919192E+00  0.0000000E+00  0.2525252E-01 -0.1750912E-08  0.0000000E+00 -0.1199196E-04
  0.7020202E+00  0.0000000E+00  0.2525252E-01 -0.1764664E-08  0.0000000E+00 -0.1199268E-04
  0.7121212E+00  0.0000000E+00  0.2525252E-01 -0.1772010E-08  0.0000000E+00 -0.1199341E-04
  0.7222222E+00  0.0000000E+00  0.2525252E-01 -0.1773006E-08  0.0000000E+00 -0.1199413E-04
  0.7323232E+00  0.0000000E+00  0.2525252E-01 -0.1767730E-08  0.0000000E+00 -0.1199486E-04
  0.7424242E+00  0.0000000E+00  0.2525252E-01 -0.1756285E-08  0.0000000E+00 -0.1199558E-04
  0.7525253E+00  0.0000000E+00  0.2525252E-01 -0.1738796E-08  0.0000000E+00 -0.1199630E-04
  0.7626263E+00  0.0000000E+00  0.2525252E-01 -0.1715406E-08  0.0000000E+00 -0.1199701E-04
  0.7727273E+00  0.0000000E+00  0.2525252E-01 -0.1686278E-08  0.0000000E+00 -0.1199771E-04
  0.7828283E+00  0.0000000E+00  0.2525252E-01 -0.1651588E-08  0.0000000E+00 -0.1199839E-04
  0.7929293E+00  0.0000000E+00  0.2525252E-01 -0.1611529E-08  0.0000000E+00 -0.1199906E-04
  0.8030303E+00  0.0000000E+00  0.2525252E-01 -0.1566307E-08  0.0000000E+00 -0.1199971E-04
  0.8131313E+00  0.0000000E+00  0.2525252E-01 -0.1516139E-08  0.0000000E+00 -0.1200034E-04
  0.8232324E+00  0.0000000E+00  0.2525252E-01 -0.1461250E-08  0.0000000E+00 -0.1200095E-04
  0.8333333E+00  0.0000000E+00  0.2525252E-01 -0.1401876E-08  0.0000000E+00 -0.1200154E-04
  0.8434343E+00  0.0000000E+00  0.2525252E-01 -0.1338258E-08  0.0000000E+00 -0.1200210E-04
  0.8535354E+00  0.0000000E+00  0.2525252E-01 -0.1270643E-08  0.0000000E+00 -0.1200264E-04
  0.8636364E+00  0.0000000E+00  0.2525252E-01 -0.1199283E-08  0.0000000E+00 -0.1200314E-04
  0.8737374E+00  0.0000000E+00  0.2525252E-01 -0.1124432E-08  0.0000000E+00 -0.1200362E-04
  0.8838384E+00  0.0000000E+00  0.2525252E-01 -0.1046347E-08  0.0000000E+00 -0.1200406E-04
  0.8939394E+00  0.0000000E+00  0.2525252E-01 -0.9652893E-09  0.0000000E+00 -0.1200447E-04
  0.9040404E+00  0.0000000E+00  0.2525252E-01 -0.8815172E-09  0.0000000E+00 -0.1200485E-04
  0.9141414E+00  0.0000000E+00  0.2525252E-01 -0.7952917E-09  0.0000000E+00 -0.1200520E-04
  0.9242424E+00  0.0000000E+00  0.2525252E-01 -0.7068733E-09  0.0000000E+00 -0.1200550E-04
  0.9343435E+00  0.0000000E+00  0.2525252E-01 -0.6165222E-09  0.0000000E+00 -0.1200578E-04
  0.9444444E+00  0.0000000E+00  0.2525252E-01 -0.5244981E-09  0.0000000E+00 -0.1200601E-04
  0.9545454E+00  0.0000000E+00  0.2525252E-01 -0.4310601E-09  0.0000000E+00 -0.1200620E-04
  0.9646465E+00  0.0000000E+00  0.2525252E-01 -0.3364663E-09  0.0000000E+00 -0.1200636E-04
  0.9747475E+00  0.0000000E+00  0.2525252E-01 -0.2409745E-09  0.0000000E+00 -0.1200648E-04
  0.9848485E+00  0.0000000E+00  0.2525252E-01 -0.1448417E-09  0.0000000E+00 -0.1200656E-04
  0.9974747E+00  0.0000000E+00  0.2525252E-01 -0.4832448E-10  0.0000000E+00 -0.1200660E-04
  0.5050505E-02  0.0000000E+00  0.3535353E-01  0.6996554E-10  0.0000000E+00 -0.1194549E-04
  0.1515152E-01  0.0000000E+00  0.3535353E-01  0.2096109E-09  0.0000000E+00 -0.1194545E-04
  0.2525252E-01  0.0000000E+00  0.3535353E-01  0.3483887E-09  0.0000000E+00 -0.1194537E-04
  0.3535353E-01  0.0000000E+00  0.3535353E-01  0.4857201E-09  0.0000000E+00 -0.1194524E-04
  0.4545455E-01  0.0000000E+00  0.3535353E-01  0.6210316E-09  0.0000000E+00 -0.1194508E-04
  0.5555556E-01  0.0000000E+00  0.3535353E-01  0.7537543E-09  0.0000000E+00 -0.1194487E-04
  0.6565657E-01  0.0000000E+00  0.3535353E-01  0.8833256E-09  0.0000000E+00 -0.1194462E-04
  0.7575758E-01  0.0000000E+00  0.3535353E-01  0.1009190E-08  0.0000000E+00 -0.1194434E-04
  0.8585858E-01  0.0000000E+00  0.3535353E-01  0.1130803E-08  0.0000000E+00 -0.1194402E-04
  0.9595960E-01  0.0000000E+00  0.3535353E-01  0.1247629E-08  0.0000000E+00 -0.1194366E-04
  0.1060606E+00  0.0000000E+00  0.3535353E-01  0.1359147E-08  0.0000000E+00 -0.1194327E-04
  0.1161616E+00  0.0000000E+00  0.3535353E-01  0.1464851E-08  0.0000000E+00 -0.1194284E-04
  0.1262626E+00  0.0000000E+00  0.3535353E-01  0.1564251E-08  0.0000000E+00 -0.1194239E-04
  0.1363636E+00  0.0000000E+00  0.3535353E-01  0.1656877E-08  0.0000000E+00 -0.1194190E-04
  0.1464646E+00  0.0000000E+00  0.3535353E-01  0.1742279E-08  0.0000000E+00 -0.1194139E-04
  0.1565657E+00  0.0000000E+00  0.3535353E-01  0.1820034E-08  0.0000000E+00 -0.1194086E-04
  0.1666667E+00  0.0000000E+00  0.3535353E-01  0.1889742E-08  0.0000000E+00 -0.1194030E-04
  0.1767677E+00  0.0000000E+00  0.3535353E-01  0.1951032E-08  0.0000000E+00 -0.1193972E-04
  0.1868687E+00  0.0000000E+00  0.3535353E-01  0.2003567E-08  0.0000000E+00 -0.1193913E-04
  0.1969697E+00  0.0000000E+00  0.3535353E-01  0.2047039E-08  0.0000000E+00 -0.1193852E-04
  0.2070707E+00  0.0000000E+00  0.3535353E-01  0.2081181E-08  0.0000000E+00 -0.1193790E-04
  0.2171717E+00  0.0000000E+00  0.3535353E-01  0.2105761E-08  0.0000000E+00 -0.1193727E-04
  0.2272727E+00  0.0000000E+00  0.3535353E-01  0.2120589E-08  0.0000000E+00 -0.1193663E-04
  0.2373737E+00  0.0000000E+00  0.3535353E-01  0.2125518E-08  0.0000000E+00 -0.1193600E-04
  0.2474747E+00  0.0000000E+00  0.3535353E-01  0.2120446E-08  0.0000000E+00 -0.1193536E-04
  0.2575758E+00  0.0000000E+00  0.3535353E-01  0.2105316E-08  0.0000000E+00 -0.1193472E-04
  0.2676768E+00  0.0000000E+00  0.3535353E-01  0.2080121E-08  0.0000000E+00 -0.1193409E-04
  0.2777778E+00  0.0000000E+00  0.3535353E-01  0.2044903E-08  0.0000000E+00 -0.1193347E-04
  0.2878788E+00  0.0000000E+00  0.3535353E-01  0.1999753E-08  0.0000000E+00 -0.1193286E-04
  0.2979798E+00  0.0000000E+00  0.3535353E-01  0.1944816E-08  0.0000000E+00 -0.1193227E-04