title = "dataset water"
variables = "x", "y", "z", "vx", "vy", "vz"
zone t = "velocities, solution time =  1.300E+01 days        " i =   99, j =   99, k =    1,  f=point
  0.5050505E-02  0.0000000E+00  0.5050505E-02  0.1546695E-12  0.0000000E+00 -0.3607706E-04
  0.1515152E-01  0.0000000E+00  0.5050505E-02  0.1542147E-12  0.0000000E+00 -0.3607706E-04
  0.2525252E-01  0.0000000E+00  0.5050505E-02  0.8354765E-13  0.0000000E+00 -0.3607706E-04
  0.3535353E-01  0.0000000E+00  0.5050505E-02  0.3922014E-13  0.0000000E+00 -0.3607706E-04
  0.4545455E-01  0.0000000E+00  0.5050505E-02  0.4678794E-13  0.0000000E+00 -0.3607706E-04
  0.5555556E-01  0.0000000E+00  0.5050505E-02  0.4425207E-13  0.0000000E+00 -0.3607706E-04
  0.6565657E-01  0.0000000E+00  0.5050505E-02  0.8776642E-13  0.0000000E+00 -0.3607706E-04
  0.7575758E-01  0.0000000E+00  0.5050505E-02  0.9859524E-13  0.0000000E+00 -0.3607706E-04
  0.8585858E-01  0.0000000E+00  0.5050505E-02  0.9291362E-13  0.0000000E+00 -0.3607706E-04
  0.9595960E-01  0.0000000E+00  0.5050505E-02  0.1226693E-12  0.0000000E+00 -0.3607706E-04
  0.1060606E+00  0.0000000E+00  0.5050505E-02  0.1588317E-12  0.0000000E+00 -0.3607706E-04
  0.1161616E+00  0.0000000E+00  0.5050505E-02  0.1677680E-12  0.0000000E+00 -0.3607706E-04
  0.1262626E+00  0.0000000E+00  0.5050505E-02  0.2223941E-12  0.0000000E+00 -0.3607706E-04
  0.1363636E+00  0.0000000E+00  0.5050505E-02  0.2361738E-12  0.0000000E+00 -0.3607706E-04
  0.1464646E+00  0.0000000E+00  0.5050505E-02  0.2357232E-12  0.0000000E+00 -0.3607705E-04
  0.1565657E+00  0.0000000E+00  0.5050505E-02  0.2607571E-12  0.0000000E+00 -0.3607705E-04
  0.1666667E+00  0.0000000E+00  0.5050505E-02  0.3473918E-12  0.0000000E+00 -0.3607705E-04
  0.1767677E+00  0.0000000E+00  0.5050505E-02  0.3841075E-12  0.0000000E+00 -0.3607705E-04
  0.1868687E+00  0.0000000E+00  0.5050505E-02  0.3947393E-12  0.0000000E+00 -0.3607705E-04
  0.1969697E+00  0.0000000E+00  0.5050505E-02  0.3918388E-12  0.0000000E+00 -0.3607705E-04
  0.2070707E+00  0.0000000E+00  0.5050505E-02  0.4269491E-12  0.0000000E+00 -0.3607705E-04
  0.2171717E+00  0.0000000E+00  0.5050505E-02  0.4453332E-12  0.0000000E+00 -0.3607705E-04
  0.2272727E+00  0.0000000E+00  0.5050505E-02  0.4529324E-12  0.0000000E+00 -0.3607705E-04
  0.2373737E+00  0.0000000E+00  0.5050505E-02  0.4574781E-12  0.0000000E+00 -0.3607705E-04
  0.2474747E+00  0.0000000E+00  0.5050505E-02  0.4655007E-12  0.0000000E+00 -0.3607705E-04
  0.2575758E+00  0.0000000E+00  0.5050505E-02  0.4732152E-12  0.0000000E+00 -0.3607705E-04
  0.2676768E+00  0.0000000E+00  0.5050505E-02  0.4764176E-12  0.0000000E+00 -0.3607704E-04
  0.2777778E+00  0.0000000E+00  0.5050505E-02  0.4756002E-12  0.0000000E+00 -0.3607704E-04
  0.2878788E+00  0.0000000E+00  0.5050505E-02  0.4711635E-12  0.0000000E+00 -0.3607704E-04
  0.2979798E+00  0.0000000E+00  0.5050505E-02  0.4629125E-12  0.0000000E+00 -0.3607704E-04
  0.3080808E+00  0.0000000E+00  0.5050505E-02  0.4512852E-12  0.0000000E+00 -0.3607704E-04
  0.3181818E+00  0.0000000E+00  0.5050505E-02  0.4366316E-12  0.0000000E+00 -0.3607704E-04
  0.3282828E+00  0.0000000E+00  0.5050505E-02  0.4188343E-12  0.0000000E+00 -0.3607704E-04
  0.3383838E+00  0.0000000E+00  0.5050505E-02  0.3979165E-12  0.0000000E+00 -0.3607704E-04
  0.3484848E+00  0.0000000E+00  0.5050505E-02  0.3753682E-12  0.0000000E+00 -0.3607704E-04
  0.3585859E+00  0.0000000E+00  0.5050505E-02  0.3542995E-12  0.0000000E+00 -0.3607704E-04
  0.3686869E+00  0.0000000E+00  0.5050505E-02  0.3355130E-12  0.0000000E+00 -0.3607704E-04
  0.3787879E+00  0.0000000E+00  0.5050505E-02  0.3137988E-12  0.0000000E+00 -0.3607704E-04
  0.3888889E+00  0.0000000E+00  0.5050505E-02  0.2887377E-12  0.0000000E+00 -0.3607704E-04
  0.3989899E+00  0.0000000E+00  0.5050505E-02  0.1918547E-12  0.0000000E+00 -0.3607703E-04
  0.4090909E+00  0.0000000E+00  0.5050505E-02  0.1553590E-12  0.0000000E+00 -0.3607703E-04
  0.4191919E+00  0.0000000E+00  0.5050505E-02  0.2094738E-12  0.0000000E+00 -0.3607703E-04
  0.4292929E+00  0.0000000E+00  0.5050505E-02  0.1336322E-12  0.0000000E+00 -0.3607703E-04
  0.4393939E+00  0.0000000E+00  0.5050505E-02  0.7327631E-13  0.0000000E+00 -0.3607703E-04
  0.4494950E+00  0.0000000E+00  0.5050505E-02  0.2005856E-13  0.0000000E+00 -0.3607703E-04
  0.4595959E+00  0.0000000E+00  0.5050505E-02  0.8258360E-13  0.0000000E+00 -0.3607703E-04
  0.4696970E+00  0.0000000E+00  0.5050505E-02  0.5872542E-13  0.0000000E+00 -0.3607703E-04
  0.4797980E+00  0.0000000E+00  0.5050505E-02 -0.5478119E-13  0.0000000E+00 -0.3607703E-04
  0.4898990E+00  0.0000000E+00  0.5050505E-02 -0.9382947E-13  0.0000000E+00 -0.3607703E-04
  0.5000000E+00  0.0000000E+00  0.5050505E-02 -0.1022104E-12  0.0000000E+00 -0.3607703E-04
  0.5101010E+00  0.0000000E+00  0.5050505E-02 -0.1137497E-12  0.0000000E+00 -0.3607703E-04
  0.5202020E+00  0.0000000E+00  0.5050505E-02 -0.1304257E-12  0.0000000E+00 -0.3607703E-04
  0.5303030E+00  0.0000000E+00  0.5050505E-02 -0.1944345E-12  0.0000000E+00 -0.3607703E-04
  0.5404040E+00  0.0000000E+00  0.5050505E-02 -0.1893838E-12  0.0000000E+00 -0.3607703E-04
  0.5505050E+00  0.0000000E+00  0.5050505E-02 -0.1791103E-12  0.0000000E+00 -0.3607703E-04
  0.5606061E+00  0.0000000E+00  0.5050505E-02 -0.2009943E-12  0.0000000E+00 -0.3607704E-04
  0.5707071E+00  0.0000000E+00  0.5050505E-02 -0.2222726E-12  0.0000000E+00 -0.3607704E-04
  0.5808081E+00  0.0000000E+00  0.5050505E-02 -0.2834563E-12  0.0000000E+00 -0.3607704E-04
  0.5909091E+00  0.0000000E+00  0.5050505E-02 -0.3467673E-12  0.0000000E+00 -0.3607704E-04
  0.6010101E+00  0.0000000E+00  0.5050505E-02 -0.3317365E-12  0.0000000E+00 -0.3607704E-04
  0.6111111E+00  0.0000000E+00  0.5050505E-02 -0.3260255E-12  0.0000000E+00 -0.3607704E-04
  0.6212121E+00  0.0000000E+00  0.5050505E-02 -0.4221938E-12  0.0000000E+00 -0.3607704E-04
  0.6313131E+00  0.0000000E+00  0.5050505E-02 -0.4898975E-12  0.0000000E+00 -0.3607704E-04
  0.6414142E+00  0.0000000E+00  0.5050505E-02 -0.4617556E-12  0.0000000E+00 -0.3607704E-04
  0.6515151E+00  0.0000000E+00  0.5050505E-02 -0.4334691E-12  0.0000000E+00 -0.3607704E-04
  0.6616161E+00  0.0000000E+00  0.5050505E-02 -0.4422755E-12  0.0000000E+00 -0.3607704E-04
  0.6717172E+00  0.0000000E+00  0.5050505E-02 -0.5079546E-12  0.0000000E+00 -0.3607704E-04
  0.6818182E+00  0.0000000E+00  0.5050505E-02 -0.5349502E-12  0.0000000E+00 -0.3607704E-04
  0.6919192E+00  0.0000000E+00  0.5050505E-02 -0.5201457E-12  0.0000000E+00 -0.3607705E-04
  0.7020202E+00  0.0000000E+00  0.5050505E-02 -0.5144913E-12  0.0000000E+00 -0.3607705E-04
  0.7121212E+00  0.0000000E+00  0.5050505E-02 -0.5278916E-12  0.0000000E+00 -0.3607705E-04
  0.7222222E+00  0.0000000E+00  0.5050505E-02 -0.5411327E-12  0.0000000E+00 -0.3607705E-04
  0.7323232E+00  0.0000000E+00  0.5050505E-02 -0.5433060E-12  0.0000000E+00 -0.3607705E-04
  0.7424242E+00  0.0000000E+00  0.5050505E-02 -0.5380351E-12  0.0000000E+00 -0.3607705E-04
  0.7525253E+00  0.0000000E+00  0.5050505E-02 -0.5308215E-12  0.0000000E+00 -0.3607705E-04
  0.7626263E+00  0.0000000E+00  0.5050505E-02 -0.5229959E-12  0.0000000E+00 -0.3607705E-04
  0.7727273E+00  0.0000000E+00  0.5050505E-02 -0.5135021E-12  0.0000000E+00 -0.3607705E-04
  0.7828283E+00  0.0000000E+00  0.5050505E-02 -0.5014033E-12  0.0000000E+00 -0.3607706E-04
  0.7929293E+00  0.0000000E+00  0.5050505E-02 -0.4865925E-12  0.0000000E+00 -0.3607706E-04
  0.8030303E+00  0.0000000E+00  0.5050505E-02 -0.4694135E-12  0.0000000E+00 -0.3607706E-04
  0.8131313E+00  0.0000000E+00  0.5050505E-02 -0.4502247E-12  0.0000000E+00 -0.3607706E-04
  0.8232324E+00  0.0000000E+00  0.5050505E-02 -0.4292943E-12  0.0000000E+00 -0.3607706E-04
  0.8333333E+00  0.0000000E+00  0.5050505E-02 -0.4072049E-12  0.0000000E+00 -0.3607706E-04
  0.8434343E+00  0.0000000E+00  0.5050505E-02 -0.3849626E-12  0.0000000E+00 -0.3607706E-04
  0.8535354E+00  0.0000000E+00  0.5050505E-02 -0.3625798E-12  0.0000000E+00 -0.3607706E-04
  0.8636364E+00  0.0000000E+00  0.5050505E-02 -0.3381767E-12  0.0000000E+00 -0.3607706E-04
  0.8737374E+00  0.0000000E+00  0.5050505E-02 -0.3125393E-12  0.0000000E+00 -0.3607706E-04
  0.8838384E+00  0.0000000E+00  0.5050505E-02 -0.2890772E-12  0.0000000E+00 -0.3607706E-04
  0.8939394E+00  0.0000000E+00  0.5050505E-02 -0.2644415E-12  0.0000000E+00 -0.3607706E-04
  0.9040404E+00  0.0000000E+00  0.5050505E-02 -0.1873152E-12  0.0000000E+00 -0.3607706E-04
  0.9141414E+00  0.0000000E+00  0.5050505E-02 -0.1692602E-12  0.0000000E+00 -0.3607706E-04
  0.9242424E+00  0.0000000E+00  0.5050505E-02 -0.1442578E-12  0.0000000E+00 -0.3607706E-04
  0.9343435E+00  0.0000000E+00  0.5050505E-02 -0.1206427E-12  0.0000000E+00 -0.3607707E-04
  0.9444444E+00  0.0000000E+00  0.5050505E-02 -0.9366391E-13  0.0000000E+00 -0.3607707E-04
  0.9545454E+00  0.0000000E+00  0.5050505E-02 -0.4605442E-13  0.0000000E+00 -0.3607707E-04
  0.9646465E+00  0.0000000E+00  0.5050505E-02 -0.1960169E-13  0.0000000E+00 -0.3607707E-04
  0.9747475E+00  0.0000000E+00  0.5050505E-02  0.9332439E-14  0.0000000E+00 -0.3607707E-04
  0.9848485E+00  0.0000000E+00  0.5050505E-02  0.5236477E-13  0.0000000E+00 -0.3607707E-04
  0.9974747E+00  0.0000000E+00  0.5050505E-02  0.1436626E-12  0.0000000E+00 -0.3607707E-04
  0.5050505E-02  0.0000000E+00  0.1515152E-01  0.3258698E-12  0.0000000E+00 -0.3595635E-04
  0.1515152E-01  0.0000000E+00  0.1515152E-01  0.3622522E-12  0.0000000E+00 -0.3595635E-04
  0.2525252E-01  0.0000000E+00  0.1515152E-01  0.1963533E-12  0.0000000E+00 -0.3595635E-04
  0.3535353E-01  0.0000000E+00  0.1515152E-01  0.1364942E-12  0.0000000E+00 -0.3595635E-04
  0.4545455E-01  0.0000000E+00  0.1515152E-01  0.1941514E-12  0.0000000E+00 -0.3595635E-04
  0.5555556E-01  0.0000000E+00  0.1515152E-01  0.1569464E-12  0.0000000E+00 -0.3595635E-04
  0.6565657E-01  0.0000000E+00  0.1515152E-01  0.2376317E-12  0.0000000E+00 -0.3595635E-04
  0.7575758E-01  0.0000000E+00  0.1515152E-01  0.2909563E-12  0.0000000E+00 -0.3595635E-04
  0.8585858E-01  0.0000000E+00  0.1515152E-01  0.3047269E-12  0.0000000E+00 -0.3595635E-04
  0.9595960E-01  0.0000000E+00  0.1515152E-01  0.3870088E-12  0.0000000E+00 -0.3595635E-04
  0.1060606E+00  0.0000000E+00  0.1515152E-01  0.4871152E-12  0.0000000E+00 -0.3595635E-04
  0.1161616E+00  0.0000000E+00  0.1515152E-01  0.4960054E-12  0.0000000E+00 -0.3595635E-04
  0.1262626E+00  0.0000000E+00  0.1515152E-01  0.6509489E-12  0.0000000E+00 -0.3595635E-04
  0.1363636E+00  0.0000000E+00  0.1515152E-01  0.7421221E-12  0.0000000E+00 -0.3595635E-04
  0.1464646E+00  0.0000000E+00  0.1515152E-01  0.7568106E-12  0.0000000E+00 -0.3595635E-04
  0.1565657E+00  0.0000000E+00  0.1515152E-01  0.8133464E-12  0.0000000E+00 -0.3595635E-04
  0.1666667E+00  0.0000000E+00  0.1515152E-01  0.1007943E-11  0.0000000E+00 -0.3595635E-04
  0.1767677E+00  0.0000000E+00  0.1515152E-01  0.1135004E-11  0.0000000E+00 -0.3595634E-04
  0.1868687E+00  0.0000000E+00  0.1515152E-01  0.1195618E-11  0.0000000E+00 -0.3595634E-04
  0.1969697E+00  0.0000000E+00  0.1515152E-01  0.1201709E-11  0.0000000E+00 -0.3595634E-04
  0.2070707E+00  0.0000000E+00  0.1515152E-01  0.1276851E-11  0.0000000E+00 -0.3595634E-04
  0.2171717E+00  0.0000000E+00  0.1515152E-01  0.1319798E-11  0.0000000E+00 -0.3595634E-04
  0.2272727E+00  0.0000000E+00  0.1515152E-01  0.1359537E-11  0.0000000E+00 -0.3595634E-04
  0.2373737E+00  0.0000000E+00  0.1515152E-01  0.1386994E-11  0.0000000E+00 -0.3595634E-04
  0.2474747E+00  0.0000000E+00  0.1515152E-01  0.1408710E-11  0.0000000E+00 -0.3595634E-04
  0.2575758E+00  0.0000000E+00  0.1515152E-01  0.1427034E-11  0.0000000E+00 -0.3595634E-04
  0.2676768E+00  0.0000000E+00  0.1515152E-01  0.1435647E-11  0.0000000E+00 -0.3595634E-04
  0.2777778E+00  0.0000000E+00  0.1515152E-01  0.1433329E-11  0.0000000E+00 -0.3595634E-04
  0.2878788E+00  0.0000000E+00  0.1515152E-01  0.1419851E-11  0.0000000E+00 -0.3595633E-04
  0.2979798E+00  0.0000000E+00  0.1515152E-01  0.1394592E-11  0.0000000E+00 -0.3595633E-04
  0.3080808E+00  0.0000000E+00  0.1515152E-01  0.1358952E-11  0.0000000E+00 -0.3595633E-04
  0.3181818E+00  0.0000000E+00  0.1515152E-01  0.1314774E-11  0.0000000E+00 -0.3595633E-04
  0.3282828E+00  0.0000000E+00  0.1515152E-01  0.1262337E-11  0.0000000E+00 -0.3595633E-04
  0.3383838E+00  0.0000000E+00  0.1515152E-01  0.1200321E-11  0.0000000E+00 -0.3595633E-04
  0.3484848E+00  0.0000000E+00  0.1515152E-01  0.1129562E-11  0.0000000E+00 -0.3595633E-04
  0.3585859E+00  0.0000000E+00  0.1515152E-01  0.1059875E-11  0.0000000E+00 -0.3595633E-04
  0.3686869E+00  0.0000000E+00  0.1515152E-01  0.1003981E-11  0.0000000E+00 -0.3595633E-04
  0.3787879E+00  0.0000000E+00  0.1515152E-01  0.9486594E-12  0.0000000E+00 -0.3595633E-04
  0.3888889E+00  0.0000000E+00  0.1515152E-01  0.8447880E-12  0.0000000E+00 -0.3595633E-04
  0.3989899E+00  0.0000000E+00  0.1515152E-01  0.5771623E-12  0.0000000E+00 -0.3595633E-04
  0.4090909E+00  0.0000000E+00  0.1515152E-01  0.4980702E-12  0.0000000E+00 -0.3595633E-04
  0.4191919E+00  0.0000000E+00  0.1515152E-01  0.5903339E-12  0.0000000E+00 -0.3595633E-04
  0.4292929E+00  0.0000000E+00  0.1515152E-01  0.4872638E-12  0.0000000E+00 -0.3595633E-04
  0.4393939E+00  0.0000000E+00  0.1515152E-01  0.2472827E-12  0.0000000E+00 -0.3595632E-04
  0.4494950E+00  0.0000000E+00  0.1515152E-01  0.4721578E-13  0.0000000E+00 -0.3595632E-04
  0.4595959E+00  0.0000000E+00  0.1515152E-01  0.1233792E-12  0.0000000E+00 -0.3595632E-04
  0.4696970E+00  0.0000000E+00  0.1515152E-01  0.2075707E-12  0.0000000E+00 -0.3595632E-04
  0.4797980E+00  0.0000000E+00  0.1515152E-01 -0.2724617E-13  0.0000000E+00 -0.3595632E-04
  0.4898990E+00  0.0000000E+00  0.1515152E-01 -0.3107703E-12  0.0000000E+00 -0.3595632E-04
  0.5000000E+00  0.0000000E+00  0.1515152E-01 -0.3941941E-12  0.0000000E+00 -0.3595632E-04
  0.5101010E+00  0.0000000E+00  0.1515152E-01 -0.3364120E-12  0.0000000E+00 -0.3595633E-04
  0.5202020E+00  0.0000000E+00  0.1515152E-01 -0.3105818E-12  0.0000000E+00 -0.3595633E-04
  0.5303030E+00  0.0000000E+00  0.1515152E-01 -0.5381091E-12  0.0000000E+00 -0.3595633E-04
  0.5404040E+00  0.0000000E+00  0.1515152E-01 -0.6414164E-12  0.0000000E+00 -0.3595633E-04
  0.5505050E+00  0.0000000E+00  0.1515152E-01 -0.6357143E-12  0.0000000E+00 -0.3595633E-04
  0.5606061E+00  0.0000000E+00  0.1515152E-01 -0.6378605E-12  0.0000000E+00 -0.3595633E-04
  0.5707071E+00  0.0000000E+00  0.1515152E-01 -0.6227550E-12  0.0000000E+00 -0.3595633E-04
  0.5808081E+00  0.0000000E+00  0.1515152E-01 -0.8178400E-12  0.0000000E+00 -0.3595633E-04
  0.5909091E+00  0.0000000E+00  0.1515152E-01 -0.1030586E-11  0.0000000E+00 -0.3595633E-04
  0.6010101E+00  0.0000000E+00  0.1515152E-01 -0.1084681E-11  0.0000000E+00 -0.3595633E-04
  0.6111111E+00  0.0000000E+00  0.1515152E-01 -0.1069353E-11  0.0000000E+00 -0.3595633E-04
  0.6212121E+00  0.0000000E+00  0.1515152E-01 -0.1152341E-11  0.0000000E+00 -0.3595633E-04
  0.6313131E+00  0.0000000E+00  0.1515152E-01 -0.1379986E-11  0.0000000E+00 -0.3595633E-04
  0.6414142E+00  0.0000000E+00  0.1515152E-01 -0.1443918E-11  0.0000000E+00 -0.3595633E-04
  0.6515151E+00  0.0000000E+00  0.1515152E-01 -0.1395012E-11  0.0000000E+00 -0.3595633E-04
  0.6616161E+00  0.0000000E+00  0.1515152E-01 -0.1337192E-11  0.0000000E+00 -0.3595633E-04
  0.6717172E+00  0.0000000E+00  0.1515152E-01 -0.1466072E-11  0.0000000E+00 -0.3595634E-04
  0.6818182E+00  0.0000000E+00  0.1515152E-01 -0.1587678E-11  0.0000000E+00 -0.3595634E-04
  0.6919192E+00  0.0000000E+00  0.1515152E-01 -0.1595216E-11  0.0000000E+00 -0.3595634E-04
  0.7020202E+00  0.0000000E+00  0.1515152E-01 -0.1574406E-11  0.0000000E+00 -0.3595634E-04
  0.7121212E+00  0.0000000E+00  0.1515152E-01 -0.1587418E-11  0.0000000E+00 -0.3595634E-04
  0.7222222E+00  0.0000000E+00  0.1515152E-01 -0.1616356E-11  0.0000000E+00 -0.3595634E-04
  0.7323232E+00  0.0000000E+00  0.1515152E-01 -0.1629421E-11  0.0000000E+00 -0.3595634E-04
  0.7424242E+00  0.0000000E+00  0.1515152E-01 -0.1621944E-11  0.0000000E+00 -0.3595634E-04
  0.7525253E+00  0.0000000E+00  0.1515152E-01 -0.1603111E-11  0.0000000E+00 -0.3595634E-04
  0.7626263E+00  0.0000000E+00  0.1515152E-01 -0.1578501E-11  0.0000000E+00 -0.3595635E-04
  0.7727273E+00  0.0000000E+00  0.1515152E-01 -0.1548148E-11  0.0000000E+00 -0.3595635E-04
  0.7828283E+00  0.0000000E+00  0.1515152E-01 -0.1510590E-11  0.0000000E+00 -0.3595635E-04
  0.7929293E+00  0.0000000E+00  0.1515152E-01 -0.1465436E-11  0.0000000E+00 -0.3595635E-04
  0.8030303E+00  0.0000000E+00  0.1515152E-01 -0.1413508E-11  0.0000000E+00 -0.3595635E-04
  0.8131313E+00  0.0000000E+00  0.1515152E-01 -0.1355875E-11  0.0000000E+00 -0.3595635E-04
  0.8232324E+00  0.0000000E+00  0.1515152E-01 -0.1292992E-11  0.0000000E+00 -0.3595635E-04
  0.8333333E+00  0.0000000E+00  0.1515152E-01 -0.1225576E-11  0.0000000E+00 -0.3595635E-04
  0.8434343E+00  0.0000000E+00  0.1515152E-01 -0.1156831E-11  0.0000000E+00 -0.3595635E-04
  0.8535354E+00  0.0000000E+00  0.1515152E-01 -0.1089658E-11  0.0000000E+00 -0.3595635E-04
  0.8636364E+00  0.0000000E+00  0.1515152E-01 -0.1019502E-11  0.0000000E+00 -0.3595635E-04
  0.8737374E+00  0.0000000E+00  0.1515152E-01 -0.9413845E-12  0.0000000E+00 -0.3595635E-04
  0.8838384E+00  0.0000000E+00  0.1515152E-01 -0.8612657E-12  0.0000000E+00 -0.3595636E-04
  0.8939394E+00  0.0000000E+00  0.1515152E-01 -0.7271720E-12  0.0000000E+00 -0.3595636E-04
  0.9040404E+00  0.0000000E+00  0.1515152E-01 -0.6030333E-12  0.0000000E+00 -0.3595636E-04
  0.9141414E+00  0.0000000E+00  0.1515152E-01 -0.5508465E-12  0.0000000E+00 -0.3595636E-04
  0.9242424E+00  0.0000000E+00  0.1515152E-01 -0.4515736E-12  0.0000000E+00 -0.3595636E-04
  0.9343435E+00  0.0000000E+00  0.1515152E-01 -0.3656999E-12  0.0000000E+00 -0.3595636E-04
  0.9444444E+00  0.0000000E+00  0.1515152E-01 -0.2975792E-12  0.0000000E+00 -0.3595636E-04
  0.9545454E+00  0.0000000E+00  0.1515152E-01 -0.1653099E-12  0.0000000E+00 -0.3595636E-04
  0.9646465E+00  0.0000000E+00  0.1515152E-01 -0.4838552E-13  0.0000000E+00 -0.3595636E-04
  0.9747475E+00  0.0000000E+00  0.1515152E-01  0.4127087E-13  0.0000000E+00 -0.3595636E-04
  0.9848485E+00  0.0000000E+00  0.1515152E-01  0.1211782E-12  0.0000000E+00 -0.3595636E-04
  0.9974747E+00  0.0000000E+00  0.1515152E-01  0.2457157E-12  0.0000000E+00 -0.3595636E-04
  0.5050505E-02  0.0000000E+00  0.2525252E-01  0.3616427E-12  0.0000000E+00 -0.3571626E-04
  0.1515152E-01  0.0000000E+00  0.2525252E-01  0.3830351E-12  0.0000000E+00 -0.3571626E-04
  0.2525252E-01  0.0000000E+00  0.2525252E-01  0.2436235E-12  0.0000000E+00 -0.3571626E-04
  0.3535353E-01  0.0000000E+00  0.2525252E-01  0.2503909E-12  0.0000000E+00 -0.3571626E-04
  0.4545455E-01  0.0000000E+00  0.2525252E-01  0.4087617E-12  0.0000000E+00 -0.3571626E-04
  0.5555556E-01  0.0000000E+00  0.2525252E-01  0.3335807E-12  0.0000000E+00 -0.3571626E-04
  0.6565657E-01  0.0000000E+00  0.2525252E-01  0.3832999E-12  0.0000000E+00 -0.3571626E-04
  0.7575758E-01  0.0000000E+00  0.2525252E-01  0.4753752E-12  0.0000000E+00 -0.3571626E-04
  0.8585858E-01  0.0000000E+00  0.2525252E-01  0.5365901E-12  0.0000000E+00 -0.3571626E-04
  0.9595960E-01  0.0000000E+00  0.2525252E-01  0.6780602E-12  0.0000000E+00 -0.3571625E-04
  0.1060606E+00  0.0000000E+00  0.2525252E-01  0.8577767E-12  0.0000000E+00 -0.3571625E-04
  0.1161616E+00  0.0000000E+00  0.2525252E-01  0.8676031E-12  0.0000000E+00 -0.3571625E-04
  0.1262626E+00  0.0000000E+00  0.2525252E-01  0.1071159E-11  0.0000000E+00 -0.3571625E-04
  0.1363636E+00  0.0000000E+00  0.2525252E-01  0.1284920E-11  0.0000000E+00 -0.3571625E-04
  0.1464646E+00  0.0000000E+00  0.2525252E-01  0.1379216E-11  0.0000000E+00 -0.3571625E-04
  0.1565657E+00  0.0000000E+00  0.2525252E-01  0.1456809E-11  0.0000000E+00 -0.3571625E-04
  0.1666667E+00  0.0000000E+00  0.2525252E-01  0.1610304E-11  0.0000000E+00 -0.3571625E-04
  0.1767677E+00  0.0000000E+00  0.2525252E-01  0.1842784E-11  0.0000000E+00 -0.3571625E-04
  0.1868687E+00  0.0000000E+00  0.2525252E-01  0.2003412E-11  0.0000000E+00 -0.3571625E-04
  0.1969697E+00  0.0000000E+00  0.2525252E-01  0.2057103E-11  0.0000000E+00 -0.3571625E-04
  0.2070707E+00  0.0000000E+00  0.2525252E-01  0.2149135E-11  0.0000000E+00 -0.3571625E-04
  0.2171717E+00  0.0000000E+00  0.2525252E-01  0.2201683E-11  0.0000000E+00 -0.3571625E-04
  0.2272727E+00  0.0000000E+00  0.2525252E-01  0.2274717E-11  0.0000000E+00 -0.3571625E-04
  0.2373737E+00  0.0000000E+00  0.2525252E-01  0.2337577E-11  0.0000000E+00 -0.3571625E-04
  0.2474747E+00  0.0000000E+00  0.2525252E-01  0.2377197E-11  0.0000000E+00 -0.3571624E-04
  0.2575758E+00  0.0000000E+00  0.2525252E-01  0.2404086E-11  0.0000000E+00 -0.3571624E-04
  0.2676768E+00  0.0000000E+00  0.2525252E-01  0.2416978E-11  0.0000000E+00 -0.3571624E-04
  0.2777778E+00  0.0000000E+00  0.2525252E-01  0.2413062E-11  0.0000000E+00 -0.3571624E-04
  0.2878788E+00  0.0000000E+00  0.2525252E-01  0.2390793E-11  0.0000000E+00 -0.3571624E-04
  0.2979798E+00  0.0000000E+00  0.2525252E-01  0.2348304E-11  0.0000000E+00 -0.3571624E-04
  0.3080808E+00  0.0000000E+00  0.2525252E-01  0.2286430E-11  0.0000000E+00 -0.3571624E-04
  0.3181818E+00  0.0000000E+00  0.2525252E-01  0.2209211E-11  0.0000000E+00 -0.3571624E-04
  0.3282828E+00  0.0000000E+00  0.2525252E-01  0.2121034E-11  0.0000000E+00 -0.3571624E-04
  0.3383838E+00  0.0000000E+00  0.2525252E-01  0.2021423E-11  0.0000000E+00 -0.3571624E-04
  0.3484848E+00  0.0000000E+00  0.2525252E-01  0.1902616E-11  0.0000000E+00 -0.3571623E-04
  0.3585859E+00  0.0000000E+00  0.2525252E-01  0.1767460E-11  0.0000000E+00 -0.3571623E-04
  0.3686869E+00  0.0000000E+00  0.2525252E-01  0.1650829E-11  0.0000000E+00 -0.3571623E-04
  0.3787879E+00  0.0000000E+00  0.2525252E-01  0.1568542E-11  0.0000000E+00 -0.3571623E-04
  0.3888889E+00  0.0000000E+00  0.2525252E-01  0.1396057E-11  0.0000000E+00 -0.3571623E-04
  0.3989899E+00  0.0000000E+00  0.2525252E-01  0.1080636E-11  0.0000000E+00 -0.3571623E-04
  0.4090909E+00  0.0000000E+00  0.2525252E-01  0.8626133E-12  0.0000000E+00 -0.3571623E-04
  0.4191919E+00  0.0000000E+00  0.2525252E-01  0.8389813E-12  0.0000000E+00 -0.3571623E-04
  0.4292929E+00  0.0000000E+00  0.2525252E-01  0.8661056E-12  0.0000000E+00 -0.3571623E-04
  0.4393939E+00  0.0000000E+00  0.2525252E-01  0.6515197E-12  0.0000000E+00 -0.3571623E-04
  0.4494950E+00  0.0000000E+00  0.2525252E-01  0.1436528E-12  0.0000000E+00 -0.3571623E-04
  0.4595959E+00  0.0000000E+00  0.2525252E-01 -0.2537418E-13  0.0000000E+00 -0.3571623E-04
  0.4696970E+00  0.0000000E+00  0.2525252E-01  0.1765125E-12  0.0000000E+00 -0.3571623E-04
  0.4797980E+00  0.0000000E+00  0.2525252E-01  0.1568017E-12  0.0000000E+00 -0.3571623E-04
  0.4898990E+00  0.0000000E+00  0.2525252E-01 -0.3151499E-12  0.0000000E+00 -0.3571623E-04
  0.5000000E+00  0.0000000E+00  0.2525252E-01 -0.7623357E-12  0.0000000E+00 -0.3571623E-04
  0.5101010E+00  0.0000000E+00  0.2525252E-01 -0.6621438E-12  0.0000000E+00 -0.3571623E-04
  0.5202020E+00  0.0000000E+00  0.2525252E-01 -0.5393620E-12  0.0000000E+00 -0.3571623E-04
  0.5303030E+00  0.0000000E+00  0.2525252E-01 -0.7390120E-12  0.0000000E+00 -0.3571623E-04
  0.5404040E+00  0.0000000E+00  0.2525252E-01 -0.1074222E-11  0.0000000E+00 -0.3571623E-04
  0.5505050E+00  0.0000000E+00  0.2525252E-01 -0.1239035E-11  0.0000000E+00 -0.3571623E-04
  0.5606061E+00  0.0000000E+00  0.2525252E-01 -0.1265869E-11  0.0000000E+00 -0.3571623E-04
  0.5707071E+00  0.0000000E+00  0.2525252E-01 -0.1121099E-11  0.0000000E+00 -0.3571623E-04
  0.5808081E+00  0.0000000E+00  0.2525252E-01 -0.1230826E-11  0.0000000E+00 -0.3571623E-04
  0.5909091E+00  0.0000000E+00  0.2525252E-01 -0.1614865E-11  0.0000000E+00 -0.3571623E-04
  0.6010101E+00  0.0000000E+00  0.2525252E-01 -0.1961265E-11  0.0000000E+00 -0.3571623E-04
  0.6111111E+00  0.0000000E+00  0.2525252E-01 -0.2002991E-11  0.0000000E+00 -0.3571624E-04
  0.6212121E+00  0.0000000E+00  0.2525252E-01 -0.1854212E-11  0.0000000E+00 -0.3571624E-04
  0.6313131E+00  0.0000000E+00  0.2525252E-01 -0.2085091E-11  0.0000000E+00 -0.3571624E-04
  0.6414142E+00  0.0000000E+00  0.2525252E-01 -0.2387892E-11  0.0000000E+00 -0.3571624E-04
  0.6515151E+00  0.0000000E+00  0.2525252E-01 -0.2501626E-11  0.0000000E+00 -0.3571624E-04
  0.6616161E+00  0.0000000E+00  0.2525252E-01 -0.2361898E-11  0.0000000E+00 -0.3571624E-04
  0.6717172E+00  0.0000000E+00  0.2525252E-01 -0.2392673E-11  0.0000000E+00 -0.3571624E-04
  0.6818182E+00  0.0000000E+00  0.2525252E-01 -0.2576994E-11  0.0000000E+00 -0.3571624E-04
  0.6919192E+00  0.0000000E+00  0.2525252E-01 -0.2688041E-11  0.0000000E+00 -0.3571624E-04
  0.7020202E+00  0.0000000E+00  0.2525252E-01 -0.2698547E-11  0.0000000E+00 -0.3571624E-04
  0.7121212E+00  0.0000000E+00  0.2525252E-01 -0.2693600E-11  0.0000000E+00 -0.3571625E-04
  0.7222222E+00  0.0000000E+00  0.2525252E-01 -0.2710014E-11  0.0000000E+00 -0.3571625E-04
  0.7323232E+00  0.0000000E+00  0.2525252E-01 -0.2726702E-11  0.0000000E+00 -0.3571625E-04
  0.7424242E+00  0.0000000E+00  0.2525252E-01 -0.2723328E-11  0.0000000E+00 -0.3571625E-04
  0.7525253E+00  0.0000000E+00  0.2525252E-01 -0.2698819E-11  0.0000000E+00 -0.3571625E-04
  0.7626263E+00  0.0000000E+00  0.2525252E-01 -0.2658740E-11  0.0000000E+00 -0.3571625E-04
  0.7727273E+00  0.0000000E+00  0.2525252E-01 -0.2606254E-11  0.0000000E+00 -0.3571625E-04
  0.7828283E+00  0.0000000E+00  0.2525252E-01 -0.2541548E-11  0.0000000E+00 -0.3571625E-04
  0.7929293E+00  0.0000000E+00  0.2525252E-01 -0.2464332E-11  0.0000000E+00 -0.3571625E-04
  0.8030303E+00  0.0000000E+00  0.2525252E-01 -0.2375729E-11  0.0000000E+00 -0.3571626E-04
  0.8131313E+00  0.0000000E+00  0.2525252E-01 -0.2278195E-11  0.0000000E+00 -0.3571626E-04
  0.8232324E+00  0.0000000E+00  0.2525252E-01 -0.2173150E-11  0.0000000E+00 -0.3571626E-04
  0.8333333E+00  0.0000000E+00  0.2525252E-01 -0.2059320E-11  0.0000000E+00 -0.3571626E-04
  0.8434343E+00  0.0000000E+00  0.2525252E-01 -0.1938566E-11  0.0000000E+00 -0.3571626E-04
  0.8535354E+00  0.0000000E+00  0.2525252E-01 -0.1820631E-11  0.0000000E+00 -0.3571626E-04
  0.8636364E+00  0.0000000E+00  0.2525252E-01 -0.1707333E-11  0.0000000E+00 -0.3571626E-04
  0.8737374E+00  0.0000000E+00  0.2525252E-01 -0.1577316E-11  0.0000000E+00 -0.3571626E-04
  0.8838384E+00  0.0000000E+00  0.2525252E-01 -0.1393974E-11  0.0000000E+00 -0.3571626E-04
  0.8939394E+00  0.0000000E+00  0.2525252E-01 -0.1157086E-11  0.0000000E+00 -0.3571626E-04
  0.9040404E+00  0.0000000E+00  0.2525252E-01 -0.1058064E-11  0.0000000E+00 -0.3571626E-04
  0.9141414E+00  0.0000000E+00  0.2525252E-01 -0.1008856E-11  0.0000000E+00 -0.3571626E-04
  0.9242424E+00  0.0000000E+00  0.2525252E-01 -0.8329752E-12  0.0000000E+00 -0.3571626E-04
  0.9343435E+00  0.0000000E+00  0.2525252E-01 -0.6274512E-12  0.0000000E+00 -0.3571626E-04
  0.9444444E+00  0.0000000E+00  0.2525252E-01 -0.5163644E-12  0.0000000E+00 -0.3571626E-04
  0.9545454E+00  0.0000000E+00  0.2525252E-01 -0.3617913E-12  0.0000000E+00 -0.3571626E-04
  0.9646465E+00  0.0000000E+00  0.2525252E-01 -0.1312093E-12  0.0000000E+00 -0.3571626E-04
  0.9747475E+00  0.0000000E+00  0.2525252E-01  0.7901253E-13  0.0000000E+00 -0.3571626E-04
  0.9848485E+00  0.0000000E+00  0.2525252E-01  0.2170581E-12  0.0000000E+00 -0.3571626E-04
  0.9974747E+00  0.0000000E+00  0.2525252E-01  0.1472586E-12  0.0000000E+00 -0.3571626E-04
  0.5050505E-02  0.0000000E+00  0.3535353E-01  0.3964359E-12  0.0000000E+00 -0.3535881E-04
  0.1515152E-01  0.0000000E+00  0.3535353E-01  0.2712852E-12  0.0000000E+00 -0.3535881E-04
  0.2525252E-01  0.0000000E+00  0.3535353E-01  0.2705134E-12  0.0000000E+00 -0.3535881E-04
  0.3535353E-01  0.0000000E+00  0.3535353E-01  0.3429263E-12  0.0000000E+00 -0.3535881E-04
  0.4545455E-01  0.0000000E+00  0.3535353E-01  0.6467927E-12  0.0000000E+00 -0.3535881E-04
  0.5555556E-01  0.0000000E+00  0.3535353E-01  0.5940475E-12  0.0000000E+00 -0.3535881E-04
  0.6565657E-01  0.0000000E+00  0.3535353E-01  0.6006960E-12  0.0000000E+00 -0.3535881E-04
  0.7575758E-01  0.0000000E+00  0.3535353E-01  0.6792085E-12  0.0000000E+00 -0.3535881E-04
  0.8585858E-01  0.0000000E+00  0.3535353E-01  0.7564712E-12  0.0000000E+00 -0.3535881E-04
  0.9595960E-01  0.0000000E+00  0.3535353E-01  0.9766976E-12  0.0000000E+00 -0.3535881E-04
  0.1060606E+00  0.0000000E+00  0.3535353E-01  0.1275723E-11  0.0000000E+00 -0.3535881E-04
  0.1161616E+00  0.0000000E+00  0.3535353E-01  0.1354474E-11  0.0000000E+00 -0.3535881E-04
  0.1262626E+00  0.0000000E+00  0.3535353E-01  0.1558985E-11  0.0000000E+00 -0.3535881E-04
  0.1363636E+00  0.0000000E+00  0.3535353E-01  0.1852989E-11  0.0000000E+00 -0.3535881E-04
  0.1464646E+00  0.0000000E+00  0.3535353E-01  0.2083220E-11  0.0000000E+00 -0.3535880E-04
  0.1565657E+00  0.0000000E+00  0.3535353E-01  0.2164203E-11  0.0000000E+00 -0.3535880E-04
  0.1666667E+00  0.0000000E+00  0.3535353E-01  0.2220125E-11  0.0000000E+00 -0.3535880E-04
  0.1767677E+00  0.0000000E+00  0.3535353E-01  0.2535189E-11  0.0000000E+00 -0.3535880E-04
  0.1868687E+00  0.0000000E+00  0.3535353E-01  0.2806442E-11  0.0000000E+00 -0.3535880E-04
  0.1969697E+00  0.0000000E+00  0.3535353E-01  0.2948325E-11  0.0000000E+00 -0.3535880E-04
  0.2070707E+00  0.0000000E+00  0.3535353E-01  0.3070242E-11  0.0000000E+00 -0.3535880E-04
  0.2171717E+00  0.0000000E+00  0.3535353E-01  0.3138067E-11  0.0000000E+00 -0.3535880E-04
  0.2272727E+00  0.0000000E+00  0.3535353E-01  0.3225297E-11  0.0000000E+00 -0.3535880E-04
  0.2373737E+00  0.0000000E+00  0.3535353E-01  0.3316162E-11  0.0000000E+00 -0.3535880E-04
  0.2474747E+00  0.0000000E+00  0.3535353E-01  0.3381188E-11  0.0000000E+00 -0.3535880E-04
  0.2575758E+00  0.0000000E+00  0.3535353E-01  0.3421860E-11  0.0000000E+00 -0.3535880E-04
  0.2676768E+00  0.0000000E+00  0.3535353E-01  0.3438941E-11  0.0000000E+00 -0.3535879E-04
  0.2777778E+00  0.0000000E+00  0.3535353E-01  0.3431638E-11  0.0000000E+00 -0.3535879E-04
  0.2878788E+00  0.0000000E+00  0.3535353E-01  0.3399977E-11  0.0000000E+00 -0.3535879E-04
  0.2979798E+00  0.0000000E+00  0.3535353E-01  0.3341589E-11  0.0000000E+00 -0.3535879E-04