title = "dataset water"
variables = "time", "water mass", "water filled volume", "gas filled volume" 
zone t = "system mass -  variably saturated flow", f=point
  0.0000E+00  1.8147E-01  1.8147E-01  2.4653E-01
  1.0000E-10  1.8147E-01  1.8147E-01  2.4653E-01
  6.0000E-10  1.8147E-01  1.8147E-01  2.4653E-01
  3.1000E-09  1.8147E-01  1.8147E-01  2.4653E-01
  1.5600E-08  1.8147E-01  1.8147E-01  2.4653E-01
  7.8100E-08  1.8147E-01  1.8147E-01  2.4653E-01
  3.9060E-07  1.8147E-01  1.8147E-01  2.4653E-01
  1.9531E-06  1.8148E-01  1.8148E-01  2.4652E-01
  9.7656E-06  1.8148E-01  1.8148E-01  2.4652E-01
  4.8828E-05  1.8148E-01  1.8148E-01  2.4652E-01
  2.4414E-04  1.8149E-01  1.8149E-01  2.4651E-01
  1.2207E-03  1.8156E-01  1.8156E-01  2.4644E-01
  6.1035E-03  1.8174E-01  1.8174E-01  2.4626E-01
  2.3462E-02  1.8207E-01  1.8207E-01  2.4593E-01
  8.7359E-02  1.8269E-01  1.8269E-01  2.4531E-01
  3.0004E-01  1.8379E-01  1.8379E-01  2.4421E-01
  1.0000E+00  1.8573E-01  1.8573E-01  2.4227E-01
  2.0000E+00  1.8369E-01  1.8369E-01  2.4431E-01
  3.0000E+00  1.8313E-01  1.8313E-01  2.4487E-01
  4.0000E+00  1.8283E-01  1.8283E-01  2.4517E-01
  5.0000E+00  1.8264E-01  1.8264E-01  2.4536E-01
  6.0000E+00  1.8251E-01  1.8251E-01  2.4549E-01
  7.0000E+00  1.8241E-01  1.8241E-01  2.4559E-01
  8.0000E+00  1.8233E-01  1.8233E-01  2.4567E-01
  9.0000E+00  1.8226E-01  1.8226E-01  2.4574E-01
  1.0000E+01  1.8220E-01  1.8220E-01  2.4580E-01
  1.1000E+01  1.8216E-01  1.8216E-01  2.4584E-01
  1.2000E+01  1.8211E-01  1.8211E-01  2.4589E-01
  1.3000E+01  1.8208E-01  1.8208E-01  2.4592E-01
  1.4000E+01  1.8204E-01  1.8204E-01  2.4596E-01
  1.5000E+01  1.8201E-01  1.8201E-01  2.4599E-01
  1.6000E+01  1.8199E-01  1.8199E-01  2.4601E-01
  1.7000E+01  1.8196E-01  1.8196E-01  2.4604E-01
  1.8000E+01  1.8193E-01  1.8193E-01  2.4607E-01
  1.9000E+01  1.8191E-01  1.8191E-01  2.4609E-01
  2.0000E+01  1.8188E-01  1.8188E-01  2.4612E-01
  2.1000E+01  1.8185E-01  1.8185E-01  2.4615E-01
  2.2000E+01  1.8182E-01  1.8182E-01  2.4618E-01
  2.3000E+01  1.8179E-01  1.8179E-01  2.4621E-01
  2.4000E+01  1.8175E-01  1.8175E-01  2.4625E-01
  2.5000E+01  1.8170E-01  1.8170E-01  2.4630E-01
  2.6000E+01  1.8164E-01  1.8164E-01  2.4636E-01
  2.7000E+01  1.8156E-01  1.8156E-01  2.4644E-01
  2.8000E+01  1.8141E-01  1.8141E-01  2.4659E-01
  2.9000E+01  1.8124E-01  1.8124E-01  2.4676E-01
  3.0000E+01  1.8104E-01  1.8104E-01  2.4696E-01
  3.1000E+01  1.8083E-01  1.8083E-01  2.4717E-01
  3.2000E+01  1.8057E-01  1.8057E-01  2.4743E-01
  3.3000E+01  1.8024E-01  1.8024E-01  2.4776E-01
  3.4000E+01  1.7987E-01  1.7987E-01  2.4813E-01
  3.5000E+01  1.7946E-01  1.7946E-01  2.4854E-01
  3.6000E+01  1.7900E-01  1.7900E-01  2.4900E-01
  3.7000E+01  1.7844E-01  1.7844E-01  2.4956E-01
  3.8000E+01  1.7782E-01  1.7782E-01  2.5018E-01
  3.9000E+01  1.7712E-01  1.7712E-01  2.5088E-01
  4.0000E+01  1.7641E-01  1.7641E-01  2.5159E-01
  4.1000E+01  1.7565E-01  1.7565E-01  2.5235E-01
  4.2000E+01  1.7473E-01  1.7473E-01  2.5327E-01
  4.3000E+01  1.7366E-01  1.7366E-01  2.5434E-01
  4.4000E+01  1.7261E-01  1.7261E-01  2.5539E-01
  4.5000E+01  1.7151E-01  1.7151E-01  2.5649E-01
  4.6000E+01  1.7036E-01  1.7036E-01  2.5764E-01
  4.7000E+01  1.6918E-01  1.6918E-01  2.5882E-01
  4.8000E+01  1.6781E-01  1.6781E-01  2.6019E-01
  4.9000E+01  1.6656E-01  1.6656E-01  2.6144E-01
  5.0000E+01  1.6512E-01  1.6512E-01  2.6288E-01
  5.1000E+01  1.6363E-01  1.6363E-01  2.6437E-01
  5.2000E+01  1.6215E-01  1.6215E-01  2.6585E-01
  5.3000E+01  1.6054E-01  1.6054E-01  2.6746E-01
  5.4000E+01  1.5878E-01  1.5878E-01  2.6922E-01
  5.5000E+01  1.5708E-01  1.5708E-01  2.7092E-01
  5.6000E+01  1.5528E-01  1.5528E-01  2.7272E-01
  5.7000E+01  1.5355E-01  1.5355E-01  2.7445E-01
  5.8000E+01  1.5176E-01  1.5176E-01  2.7624E-01
  5.9000E+01  1.4986E-01  1.4986E-01  2.7814E-01
  6.0000E+01  1.4810E-01  1.4810E-01  2.7990E-01
