title = "dataset water"
variables = "x", "y", "z", "vx", "vy", "vz"
zone t = "velocities, solution time =  2.300E+01 days        " i =   99, j =   99, k =    1,  f=point
  0.5050505E-02  0.0000000E+00  0.5050505E-02  0.3056582E-11  0.0000000E+00 -0.1458724E-04
  0.1515152E-01  0.0000000E+00  0.5050505E-02  0.9295971E-11  0.0000000E+00 -0.1458722E-04
  0.2525252E-01  0.0000000E+00  0.5050505E-02  0.1551188E-10  0.0000000E+00 -0.1458720E-04
  0.3535353E-01  0.0000000E+00  0.5050505E-02  0.2164853E-10  0.0000000E+00 -0.1458716E-04
  0.4545455E-01  0.0000000E+00  0.5050505E-02  0.2769083E-10  0.0000000E+00 -0.1458711E-04
  0.5555556E-01  0.0000000E+00  0.5050505E-02  0.3362820E-10  0.0000000E+00 -0.1458705E-04
  0.6565657E-01  0.0000000E+00  0.5050505E-02  0.3942308E-10  0.0000000E+00 -0.1458698E-04
  0.7575758E-01  0.0000000E+00  0.5050505E-02  0.4506197E-10  0.0000000E+00 -0.1458689E-04
  0.8585858E-01  0.0000000E+00  0.5050505E-02  0.5051857E-10  0.0000000E+00 -0.1458680E-04
  0.9595960E-01  0.0000000E+00  0.5050505E-02  0.5576761E-10  0.0000000E+00 -0.1458669E-04
  0.1060606E+00  0.0000000E+00  0.5050505E-02  0.6078962E-10  0.0000000E+00 -0.1458657E-04
  0.1161616E+00  0.0000000E+00  0.5050505E-02  0.6556131E-10  0.0000000E+00 -0.1458645E-04
  0.1262626E+00  0.0000000E+00  0.5050505E-02  0.7006113E-10  0.0000000E+00 -0.1458631E-04
  0.1363636E+00  0.0000000E+00  0.5050505E-02  0.7426894E-10  0.0000000E+00 -0.1458617E-04
  0.1464646E+00  0.0000000E+00  0.5050505E-02  0.7816492E-10  0.0000000E+00 -0.1458601E-04
  0.1565657E+00  0.0000000E+00  0.5050505E-02  0.8173016E-10  0.0000000E+00 -0.1458585E-04
  0.1666667E+00  0.0000000E+00  0.5050505E-02  0.8494690E-10  0.0000000E+00 -0.1458569E-04
  0.1767677E+00  0.0000000E+00  0.5050505E-02  0.8779858E-10  0.0000000E+00 -0.1458551E-04
  0.1868687E+00  0.0000000E+00  0.5050505E-02  0.9026982E-10  0.0000000E+00 -0.1458534E-04
  0.1969697E+00  0.0000000E+00  0.5050505E-02  0.9234663E-10  0.0000000E+00 -0.1458515E-04
  0.2070707E+00  0.0000000E+00  0.5050505E-02  0.9401650E-10  0.0000000E+00 -0.1458497E-04
  0.2171717E+00  0.0000000E+00  0.5050505E-02  0.9526852E-10  0.0000000E+00 -0.1458478E-04
  0.2272727E+00  0.0000000E+00  0.5050505E-02  0.9609346E-10  0.0000000E+00 -0.1458458E-04
  0.2373737E+00  0.0000000E+00  0.5050505E-02  0.9648387E-10  0.0000000E+00 -0.1458439E-04
  0.2474747E+00  0.0000000E+00  0.5050505E-02  0.9643422E-10  0.0000000E+00 -0.1458420E-04
  0.2575758E+00  0.0000000E+00  0.5050505E-02  0.9594091E-10  0.0000000E+00 -0.1458401E-04
  0.2676768E+00  0.0000000E+00  0.5050505E-02  0.9500244E-10  0.0000000E+00 -0.1458381E-04
  0.2777778E+00  0.0000000E+00  0.5050505E-02  0.9361939E-10  0.0000000E+00 -0.1458363E-04
  0.2878788E+00  0.0000000E+00  0.5050505E-02  0.9179452E-10  0.0000000E+00 -0.1458344E-04
  0.2979798E+00  0.0000000E+00  0.5050505E-02  0.8953282E-10  0.0000000E+00 -0.1458326E-04
  0.3080808E+00  0.0000000E+00  0.5050505E-02  0.8684149E-10  0.0000000E+00 -0.1458308E-04
  0.3181818E+00  0.0000000E+00  0.5050505E-02  0.8373001E-10  0.0000000E+00 -0.1458291E-04
  0.3282828E+00  0.0000000E+00  0.5050505E-02  0.8021008E-10  0.0000000E+00 -0.1458275E-04
  0.3383838E+00  0.0000000E+00  0.5050505E-02  0.7629562E-10  0.0000000E+00 -0.1458259E-04
  0.3484848E+00  0.0000000E+00  0.5050505E-02  0.7200272E-10  0.0000000E+00 -0.1458244E-04
  0.3585859E+00  0.0000000E+00  0.5050505E-02  0.6734957E-10  0.0000000E+00 -0.1458230E-04
  0.3686869E+00  0.0000000E+00  0.5050505E-02  0.6235643E-10  0.0000000E+00 -0.1458217E-04
  0.3787879E+00  0.0000000E+00  0.5050505E-02  0.5704544E-10  0.0000000E+00 -0.1458205E-04
  0.3888889E+00  0.0000000E+00  0.5050505E-02  0.5144059E-10  0.0000000E+00 -0.1458194E-04
  0.3989899E+00  0.0000000E+00  0.5050505E-02  0.4556756E-10  0.0000000E+00 -0.1458185E-04
  0.4090909E+00  0.0000000E+00  0.5050505E-02  0.3945355E-10  0.0000000E+00 -0.1458176E-04
  0.4191919E+00  0.0000000E+00  0.5050505E-02  0.3312718E-10  0.0000000E+00 -0.1458169E-04
  0.4292929E+00  0.0000000E+00  0.5050505E-02  0.2661827E-10  0.0000000E+00 -0.1458163E-04
  0.4393939E+00  0.0000000E+00  0.5050505E-02  0.1995761E-10  0.0000000E+00 -0.1458158E-04
  0.4494950E+00  0.0000000E+00  0.5050505E-02  0.1317671E-10  0.0000000E+00 -0.1458155E-04
  0.4595959E+00  0.0000000E+00  0.5050505E-02  0.6307793E-11  0.0000000E+00 -0.1458153E-04
  0.4696970E+00  0.0000000E+00  0.5050505E-02 -0.6169505E-12  0.0000000E+00 -0.1458152E-04
  0.4797980E+00  0.0000000E+00  0.5050505E-02 -0.7566235E-11  0.0000000E+00 -0.1458153E-04
  0.4898990E+00  0.0000000E+00  0.5050505E-02 -0.1450696E-10  0.0000000E+00 -0.1458155E-04
  0.5000000E+00  0.0000000E+00  0.5050505E-02 -0.2140080E-10  0.0000000E+00 -0.1458159E-04
  0.5101010E+00  0.0000000E+00  0.5050505E-02 -0.2822099E-10  0.0000000E+00 -0.1458164E-04
  0.5202020E+00  0.0000000E+00  0.5050505E-02 -0.3493070E-10  0.0000000E+00 -0.1458170E-04
  0.5303030E+00  0.0000000E+00  0.5050505E-02 -0.4151171E-10  0.0000000E+00 -0.1458178E-04
  0.5404040E+00  0.0000000E+00  0.5050505E-02 -0.4791967E-10  0.0000000E+00 -0.1458187E-04
  0.5505050E+00  0.0000000E+00  0.5050505E-02 -0.5413567E-10  0.0000000E+00 -0.1458197E-04
  0.5606061E+00  0.0000000E+00  0.5050505E-02 -0.6013009E-10  0.0000000E+00 -0.1458208E-04
  0.5707071E+00  0.0000000E+00  0.5050505E-02 -0.6587489E-10  0.0000000E+00 -0.1458221E-04
  0.5808081E+00  0.0000000E+00  0.5050505E-02 -0.7134900E-10  0.0000000E+00 -0.1458235E-04
  0.5909091E+00  0.0000000E+00  0.5050505E-02 -0.7652891E-10  0.0000000E+00 -0.1458250E-04
  0.6010101E+00  0.0000000E+00  0.5050505E-02 -0.8139392E-10  0.0000000E+00 -0.1458265E-04
  0.6111111E+00  0.0000000E+00  0.5050505E-02 -0.8592587E-10  0.0000000E+00 -0.1458282E-04
  0.6212121E+00  0.0000000E+00  0.5050505E-02 -0.9010809E-10  0.0000000E+00 -0.1458300E-04
  0.6313131E+00  0.0000000E+00  0.5050505E-02 -0.9392587E-10  0.0000000E+00 -0.1458318E-04
  0.6414142E+00  0.0000000E+00  0.5050505E-02 -0.9736666E-10  0.0000000E+00 -0.1458337E-04
  0.6515151E+00  0.0000000E+00  0.5050505E-02 -0.1004200E-09  0.0000000E+00 -0.1458357E-04
  0.6616161E+00  0.0000000E+00  0.5050505E-02 -0.1030773E-09  0.0000000E+00 -0.1458378E-04
  0.6717172E+00  0.0000000E+00  0.5050505E-02 -0.1053322E-09  0.0000000E+00 -0.1458399E-04
  0.6818182E+00  0.0000000E+00  0.5050505E-02 -0.1071801E-09  0.0000000E+00 -0.1458420E-04
  0.6919192E+00  0.0000000E+00  0.5050505E-02 -0.1086185E-09  0.0000000E+00 -0.1458441E-04
  0.7020202E+00  0.0000000E+00  0.5050505E-02 -0.1096466E-09  0.0000000E+00 -0.1458463E-04
  0.7121212E+00  0.0000000E+00  0.5050505E-02 -0.1102657E-09  0.0000000E+00 -0.1458485E-04
  0.7222222E+00  0.0000000E+00  0.5050505E-02 -0.1104784E-09  0.0000000E+00 -0.1458507E-04
  0.7323232E+00  0.0000000E+00  0.5050505E-02 -0.1102893E-09  0.0000000E+00 -0.1458530E-04
  0.7424242E+00  0.0000000E+00  0.5050505E-02 -0.1097043E-09  0.0000000E+00 -0.1458552E-04
  0.7525253E+00  0.0000000E+00  0.5050505E-02 -0.1087308E-09  0.0000000E+00 -0.1458574E-04
  0.7626263E+00  0.0000000E+00  0.5050505E-02 -0.1073775E-09  0.0000000E+00 -0.1458595E-04
  0.7727273E+00  0.0000000E+00  0.5050505E-02 -0.1056544E-09  0.0000000E+00 -0.1458617E-04
  0.7828283E+00  0.0000000E+00  0.5050505E-02 -0.1035723E-09  0.0000000E+00 -0.1458637E-04
  0.7929293E+00  0.0000000E+00  0.5050505E-02 -0.1011434E-09  0.0000000E+00 -0.1458658E-04
  0.8030303E+00  0.0000000E+00  0.5050505E-02 -0.9838060E-10  0.0000000E+00 -0.1458678E-04
  0.8131313E+00  0.0000000E+00  0.5050505E-02 -0.9529747E-10  0.0000000E+00 -0.1458697E-04
  0.8232324E+00  0.0000000E+00  0.5050505E-02 -0.9190841E-10  0.0000000E+00 -0.1458716E-04
  0.8333333E+00  0.0000000E+00  0.5050505E-02 -0.8822833E-10  0.0000000E+00 -0.1458734E-04
  0.8434343E+00  0.0000000E+00  0.5050505E-02 -0.8427267E-10  0.0000000E+00 -0.1458751E-04
  0.8535354E+00  0.0000000E+00  0.5050505E-02 -0.8005725E-10  0.0000000E+00 -0.1458768E-04
  0.8636364E+00  0.0000000E+00  0.5050505E-02 -0.7559823E-10  0.0000000E+00 -0.1458783E-04
  0.8737374E+00  0.0000000E+00  0.5050505E-02 -0.7091203E-10  0.0000000E+00 -0.1458798E-04
  0.8838384E+00  0.0000000E+00  0.5050505E-02 -0.6601527E-10  0.0000000E+00 -0.1458812E-04
  0.8939394E+00  0.0000000E+00  0.5050505E-02 -0.6092470E-10  0.0000000E+00 -0.1458825E-04
  0.9040404E+00  0.0000000E+00  0.5050505E-02 -0.5565721E-10  0.0000000E+00 -0.1458836E-04
  0.9141414E+00  0.0000000E+00  0.5050505E-02 -0.5022972E-10  0.0000000E+00 -0.1458847E-04
  0.9242424E+00  0.0000000E+00  0.5050505E-02 -0.4465922E-10  0.0000000E+00 -0.1458856E-04
  0.9343435E+00  0.0000000E+00  0.5050505E-02 -0.3896271E-10  0.0000000E+00 -0.1458865E-04
  0.9444444E+00  0.0000000E+00  0.5050505E-02 -0.3315727E-10  0.0000000E+00 -0.1458872E-04
  0.9545454E+00  0.0000000E+00  0.5050505E-02 -0.2726007E-10  0.0000000E+00 -0.1458878E-04
  0.9646465E+00  0.0000000E+00  0.5050505E-02 -0.2128853E-10  0.0000000E+00 -0.1458883E-04
  0.9747475E+00  0.0000000E+00  0.5050505E-02 -0.1526060E-10  0.0000000E+00 -0.1458887E-04
  0.9848485E+00  0.0000000E+00  0.5050505E-02 -0.9196200E-11  0.0000000E+00 -0.1458889E-04
  0.9974747E+00  0.0000000E+00  0.5050505E-02 -0.3120883E-11  0.0000000E+00 -0.1458890E-04
  0.5050505E-02  0.0000000E+00  0.1515152E-01  0.9234477E-11  0.0000000E+00 -0.1456198E-04
  0.1515152E-01  0.0000000E+00  0.1515152E-01  0.2798953E-10  0.0000000E+00 -0.1456197E-04
  0.2525252E-01  0.0000000E+00  0.1515152E-01  0.4668160E-10  0.0000000E+00 -0.1456194E-04
  0.3535353E-01  0.0000000E+00  0.1515152E-01  0.6514751E-10  0.0000000E+00 -0.1456190E-04
  0.4545455E-01  0.0000000E+00  0.1515152E-01  0.8332825E-10  0.0000000E+00 -0.1456185E-04
  0.5555556E-01  0.0000000E+00  0.1515152E-01  0.1011932E-09  0.0000000E+00 -0.1456179E-04
  0.6565657E-01  0.0000000E+00  0.1515152E-01  0.1186337E-09  0.0000000E+00 -0.1456172E-04
  0.7575758E-01  0.0000000E+00  0.1515152E-01  0.1356014E-09  0.0000000E+00 -0.1456163E-04
  0.8585858E-01  0.0000000E+00  0.1515152E-01  0.1520219E-09  0.0000000E+00 -0.1456154E-04
  0.9595960E-01  0.0000000E+00  0.1515152E-01  0.1678192E-09  0.0000000E+00 -0.1456143E-04
  0.1060606E+00  0.0000000E+00  0.1515152E-01  0.1829325E-09  0.0000000E+00 -0.1456131E-04
  0.1161616E+00  0.0000000E+00  0.1515152E-01  0.1972931E-09  0.0000000E+00 -0.1456118E-04
  0.1262626E+00  0.0000000E+00  0.1515152E-01  0.2108362E-09  0.0000000E+00 -0.1456104E-04
  0.1363636E+00  0.0000000E+00  0.1515152E-01  0.2235007E-09  0.0000000E+00 -0.1456090E-04
  0.1464646E+00  0.0000000E+00  0.1515152E-01  0.2352270E-09  0.0000000E+00 -0.1456074E-04
  0.1565657E+00  0.0000000E+00  0.1515152E-01  0.2459583E-09  0.0000000E+00 -0.1456058E-04
  0.1666667E+00  0.0000000E+00  0.1515152E-01  0.2556412E-09  0.0000000E+00 -0.1456041E-04
  0.1767677E+00  0.0000000E+00  0.1515152E-01  0.2642256E-09  0.0000000E+00 -0.1456024E-04
  0.1868687E+00  0.0000000E+00  0.1515152E-01  0.2716653E-09  0.0000000E+00 -0.1456006E-04
  0.1969697E+00  0.0000000E+00  0.1515152E-01  0.2779182E-09  0.0000000E+00 -0.1455987E-04
  0.2070707E+00  0.0000000E+00  0.1515152E-01  0.2829465E-09  0.0000000E+00 -0.1455968E-04
  0.2171717E+00  0.0000000E+00  0.1515152E-01  0.2867174E-09  0.0000000E+00 -0.1455949E-04
  0.2272727E+00  0.0000000E+00  0.1515152E-01  0.2892029E-09  0.0000000E+00 -0.1455930E-04
  0.2373737E+00  0.0000000E+00  0.1515152E-01  0.2903807E-09  0.0000000E+00 -0.1455910E-04
  0.2474747E+00  0.0000000E+00  0.1515152E-01  0.2902341E-09  0.0000000E+00 -0.1455890E-04
  0.2575758E+00  0.0000000E+00  0.1515152E-01  0.2887521E-09  0.0000000E+00 -0.1455871E-04
  0.2676768E+00  0.0000000E+00  0.1515152E-01  0.2859301E-09  0.0000000E+00 -0.1455852E-04
  0.2777778E+00  0.0000000E+00  0.1515152E-01  0.2817700E-09  0.0000000E+00 -0.1455832E-04
  0.2878788E+00  0.0000000E+00  0.1515152E-01  0.2762799E-09  0.0000000E+00 -0.1455814E-04
  0.2979798E+00  0.0000000E+00  0.1515152E-01  0.2694748E-09  0.0000000E+00 -0.1455795E-04
  0.3080808E+00  0.0000000E+00  0.1515152E-01  0.2613764E-09  0.0000000E+00 -0.1455777E-04
  0.3181818E+00  0.0000000E+00  0.1515152E-01  0.2520131E-09  0.0000000E+00 -0.1455760E-04
  0.3282828E+00  0.0000000E+00  0.1515152E-01  0.2414202E-09  0.0000000E+00 -0.1455743E-04
  0.3383838E+00  0.0000000E+00  0.1515152E-01  0.2296395E-09  0.0000000E+00 -0.1455728E-04
  0.3484848E+00  0.0000000E+00  0.1515152E-01  0.2167195E-09  0.0000000E+00 -0.1455713E-04
  0.3585859E+00  0.0000000E+00  0.1515152E-01  0.2027149E-09  0.0000000E+00 -0.1455698E-04
  0.3686869E+00  0.0000000E+00  0.1515152E-01  0.1876867E-09  0.0000000E+00 -0.1455685E-04
  0.3787879E+00  0.0000000E+00  0.1515152E-01  0.1717015E-09  0.0000000E+00 -0.1455673E-04
  0.3888889E+00  0.0000000E+00  0.1515152E-01  0.1548317E-09  0.0000000E+00 -0.1455662E-04
  0.3989899E+00  0.0000000E+00  0.1515152E-01  0.1371545E-09  0.0000000E+00 -0.1455652E-04
  0.4090909E+00  0.0000000E+00  0.1515152E-01  0.1187518E-09  0.0000000E+00 -0.1455644E-04
  0.4191919E+00  0.0000000E+00  0.1515152E-01  0.9970983E-10  0.0000000E+00 -0.1455636E-04
  0.4292929E+00  0.0000000E+00  0.1515152E-01  0.8011842E-10  0.0000000E+00 -0.1455630E-04
  0.4393939E+00  0.0000000E+00  0.1515152E-01  0.6007040E-10  0.0000000E+00 -0.1455625E-04
  0.4494950E+00  0.0000000E+00  0.1515152E-01  0.3966047E-10  0.0000000E+00 -0.1455622E-04
  0.4595959E+00  0.0000000E+00  0.1515152E-01  0.1898531E-10  0.0000000E+00 -0.1455620E-04
  0.4696970E+00  0.0000000E+00  0.1515152E-01 -0.1858486E-11  0.0000000E+00 -0.1455620E-04
  0.4797980E+00  0.0000000E+00  0.1515152E-01 -0.2277417E-10  0.0000000E+00 -0.1455620E-04
  0.4898990E+00  0.0000000E+00  0.1515152E-01 -0.4366302E-10  0.0000000E+00 -0.1455623E-04
  0.5000000E+00  0.0000000E+00  0.1515152E-01 -0.6441019E-10  0.0000000E+00 -0.1455626E-04
  0.5101010E+00  0.0000000E+00  0.1515152E-01 -0.8494015E-10  0.0000000E+00 -0.1455631E-04
  0.5202020E+00  0.0000000E+00  0.1515152E-01 -0.1051336E-09  0.0000000E+00 -0.1455638E-04
  0.5303030E+00  0.0000000E+00  0.1515152E-01 -0.1249377E-09  0.0000000E+00 -0.1455645E-04
  0.5404040E+00  0.0000000E+00  0.1515152E-01 -0.1442247E-09  0.0000000E+00 -0.1455655E-04
  0.5505050E+00  0.0000000E+00  0.1515152E-01 -0.1629297E-09  0.0000000E+00 -0.1455665E-04
  0.5606061E+00  0.0000000E+00  0.1515152E-01 -0.1809683E-09  0.0000000E+00 -0.1455676E-04
  0.5707071E+00  0.0000000E+00  0.1515152E-01 -0.1982560E-09  0.0000000E+00 -0.1455689E-04
  0.5808081E+00  0.0000000E+00  0.1515152E-01 -0.2147274E-09  0.0000000E+00 -0.1455703E-04
  0.5909091E+00  0.0000000E+00  0.1515152E-01 -0.2303130E-09  0.0000000E+00 -0.1455718E-04
  0.6010101E+00  0.0000000E+00  0.1515152E-01 -0.2449506E-09  0.0000000E+00 -0.1455734E-04
  0.6111111E+00  0.0000000E+00  0.1515152E-01 -0.2585852E-09  0.0000000E+00 -0.1455751E-04
  0.6212121E+00  0.0000000E+00  0.1515152E-01 -0.2711667E-09  0.0000000E+00 -0.1455769E-04
  0.6313131E+00  0.0000000E+00  0.1515152E-01 -0.2826509E-09  0.0000000E+00 -0.1455788E-04
  0.6414142E+00  0.0000000E+00  0.1515152E-01 -0.2930002E-09  0.0000000E+00 -0.1455807E-04
  0.6515151E+00  0.0000000E+00  0.1515152E-01 -0.3021830E-09  0.0000000E+00 -0.1455827E-04
  0.6616161E+00  0.0000000E+00  0.1515152E-01 -0.3101739E-09  0.0000000E+00 -0.1455848E-04
  0.6717172E+00  0.0000000E+00  0.1515152E-01 -0.3169532E-09  0.0000000E+00 -0.1455869E-04
  0.6818182E+00  0.0000000E+00  0.1515152E-01 -0.3225077E-09  0.0000000E+00 -0.1455890E-04
  0.6919192E+00  0.0000000E+00  0.1515152E-01 -0.3268297E-09  0.0000000E+00 -0.1455912E-04
  0.7020202E+00  0.0000000E+00  0.1515152E-01 -0.3299172E-09  0.0000000E+00 -0.1455934E-04
  0.7121212E+00  0.0000000E+00  0.1515152E-01 -0.3317736E-09  0.0000000E+00 -0.1455957E-04
  0.7222222E+00  0.0000000E+00  0.1515152E-01 -0.3324074E-09  0.0000000E+00 -0.1455979E-04
  0.7323232E+00  0.0000000E+00  0.1515152E-01 -0.3318321E-09  0.0000000E+00 -0.1456001E-04
  0.7424242E+00  0.0000000E+00  0.1515152E-01 -0.3300657E-09  0.0000000E+00 -0.1456024E-04
  0.7525253E+00  0.0000000E+00  0.1515152E-01 -0.3271306E-09  0.0000000E+00 -0.1456046E-04
  0.7626263E+00  0.0000000E+00  0.1515152E-01 -0.3230531E-09  0.0000000E+00 -0.1456068E-04
  0.7727273E+00  0.0000000E+00  0.1515152E-01 -0.3178629E-09  0.0000000E+00 -0.1456089E-04
  0.7828283E+00  0.0000000E+00  0.1515152E-01 -0.3115935E-09  0.0000000E+00 -0.1456111E-04
  0.7929293E+00  0.0000000E+00  0.1515152E-01 -0.3042809E-09  0.0000000E+00 -0.1456131E-04
  0.8030303E+00  0.0000000E+00  0.1515152E-01 -0.2959640E-09  0.0000000E+00 -0.1456152E-04
  0.8131313E+00  0.0000000E+00  0.1515152E-01 -0.2866841E-09  0.0000000E+00 -0.1456171E-04
  0.8232324E+00  0.0000000E+00  0.1515152E-01 -0.2764842E-09  0.0000000E+00 -0.1456190E-04
  0.8333333E+00  0.0000000E+00  0.1515152E-01 -0.2654095E-09  0.0000000E+00 -0.1456208E-04
  0.8434343E+00  0.0000000E+00  0.1515152E-01 -0.2535062E-09  0.0000000E+00 -0.1456226E-04
  0.8535354E+00  0.0000000E+00  0.1515152E-01 -0.2408220E-09  0.0000000E+00 -0.1456242E-04
  0.8636364E+00  0.0000000E+00  0.1515152E-01 -0.2274057E-09  0.0000000E+00 -0.1456258E-04
  0.8737374E+00  0.0000000E+00  0.1515152E-01 -0.2133064E-09  0.0000000E+00 -0.1456273E-04
  0.8838384E+00  0.0000000E+00  0.1515152E-01 -0.1985743E-09  0.0000000E+00 -0.1456287E-04
  0.8939394E+00  0.0000000E+00  0.1515152E-01 -0.1832598E-09  0.0000000E+00 -0.1456300E-04
  0.9040404E+00  0.0000000E+00  0.1515152E-01 -0.1674135E-09  0.0000000E+00 -0.1456312E-04
  0.9141414E+00  0.0000000E+00  0.1515152E-01 -0.1510864E-09  0.0000000E+00 -0.1456322E-04
  0.9242424E+00  0.0000000E+00  0.1515152E-01 -0.1343296E-09  0.0000000E+00 -0.1456332E-04
  0.9343435E+00  0.0000000E+00  0.1515152E-01 -0.1171940E-09  0.0000000E+00 -0.1456340E-04
  0.9444444E+00  0.0000000E+00  0.1515152E-01 -0.9973103E-10  0.0000000E+00 -0.1456348E-04
  0.9545454E+00  0.0000000E+00  0.1515152E-01 -0.8199204E-10  0.0000000E+00 -0.1456354E-04
  0.9646465E+00  0.0000000E+00  0.1515152E-01 -0.6402907E-10  0.0000000E+00 -0.1456359E-04
  0.9747475E+00  0.0000000E+00  0.1515152E-01 -0.4589488E-10  0.0000000E+00 -0.1456362E-04
  0.9848485E+00  0.0000000E+00  0.1515152E-01 -0.2764502E-10  0.0000000E+00 -0.1456365E-04
  0.9974747E+00  0.0000000E+00  0.1515152E-01 -0.9343828E-11  0.0000000E+00 -0.1456366E-04
  0.5050505E-02  0.0000000E+00  0.2525252E-01  0.1555540E-10  0.0000000E+00 -0.1451159E-04
  0.1515152E-01  0.0000000E+00  0.2525252E-01  0.4699797E-10  0.0000000E+00 -0.1451158E-04
  0.2525252E-01  0.0000000E+00  0.2525252E-01  0.7833461E-10  0.0000000E+00 -0.1451155E-04
  0.3535353E-01  0.0000000E+00  0.2525252E-01  0.1093138E-09  0.0000000E+00 -0.1451151E-04
  0.4545455E-01  0.0000000E+00  0.2525252E-01  0.1398165E-09  0.0000000E+00 -0.1451146E-04
  0.5555556E-01  0.0000000E+00  0.2525252E-01  0.1697862E-09  0.0000000E+00 -0.1451140E-04
  0.6565657E-01  0.0000000E+00  0.2525252E-01  0.1990537E-09  0.0000000E+00 -0.1451132E-04
  0.7575758E-01  0.0000000E+00  0.2525252E-01  0.2275231E-09  0.0000000E+00 -0.1451123E-04
  0.8585858E-01  0.0000000E+00  0.2525252E-01  0.2550762E-09  0.0000000E+00 -0.1451114E-04
  0.9595960E-01  0.0000000E+00  0.2525252E-01  0.2815868E-09  0.0000000E+00 -0.1451102E-04
  0.1060606E+00  0.0000000E+00  0.2525252E-01  0.3069490E-09  0.0000000E+00 -0.1451090E-04
  0.1161616E+00  0.0000000E+00  0.2525252E-01  0.3310498E-09  0.0000000E+00 -0.1451077E-04
  0.1262626E+00  0.0000000E+00  0.2525252E-01  0.3537801E-09  0.0000000E+00 -0.1451063E-04
  0.1363636E+00  0.0000000E+00  0.2525252E-01  0.3750371E-09  0.0000000E+00 -0.1451048E-04
  0.1464646E+00  0.0000000E+00  0.2525252E-01  0.3947208E-09  0.0000000E+00 -0.1451032E-04
  0.1565657E+00  0.0000000E+00  0.2525252E-01  0.4127358E-09  0.0000000E+00 -0.1451016E-04
  0.1666667E+00  0.0000000E+00  0.2525252E-01  0.4289924E-09  0.0000000E+00 -0.1450998E-04
  0.1767677E+00  0.0000000E+00  0.2525252E-01  0.4434065E-09  0.0000000E+00 -0.1450980E-04
  0.1868687E+00  0.0000000E+00  0.2525252E-01  0.4559002E-09  0.0000000E+00 -0.1450962E-04
  0.1969697E+00  0.0000000E+00  0.2525252E-01  0.4664028E-09  0.0000000E+00 -0.1450943E-04
  0.2070707E+00  0.0000000E+00  0.2525252E-01  0.4748508E-09  0.0000000E+00 -0.1450924E-04
  0.2171717E+00  0.0000000E+00  0.2525252E-01  0.4811887E-09  0.0000000E+00 -0.1450904E-04
  0.2272727E+00  0.0000000E+00  0.2525252E-01  0.4853697E-09  0.0000000E+00 -0.1450884E-04
  0.2373737E+00  0.0000000E+00  0.2525252E-01  0.4873559E-09  0.0000000E+00 -0.1450864E-04
  0.2474747E+00  0.0000000E+00  0.2525252E-01  0.4871191E-09  0.0000000E+00 -0.1450844E-04
  0.2575758E+00  0.0000000E+00  0.2525252E-01  0.4846408E-09  0.0000000E+00 -0.1450824E-04
  0.2676768E+00  0.0000000E+00  0.2525252E-01  0.4799131E-09  0.0000000E+00 -0.1450804E-04
  0.2777778E+00  0.0000000E+00  0.2525252E-01  0.4729388E-09  0.0000000E+00 -0.1450785E-04
  0.2878788E+00  0.0000000E+00  0.2525252E-01  0.4637315E-09  0.0000000E+00 -0.1450765E-04
  0.2979798E+00  0.0000000E+00  0.2525252E-01  0.4523163E-09  0.0000000E+00 -0.1450746E-04
  0.3080808E+00  0.0000000E+00  0.2525252E-01  0.4387294E-09  0.0000000E+00 -0.1450728E-04
  0.3181818E+00  0.0000000E+00  0.2525252E-01  0.4230185E-09  0.0000000E+00 -0.1450710E-04
  0.3282828E+00  0.0000000E+00  0.2525252E-01  0.4052426E-09  0.0000000E+00 -0.1450693E-04
  0.3383838E+00  0.0000000E+00  0.2525252E-01  0.3854720E-09  0.0000000E+00 -0.1450677E-04
  0.3484848E+00  0.0000000E+00  0.2525252E-01  0.3637879E-09  0.0000000E+00 -0.1450662E-04
  0.3585859E+00  0.0000000E+00  0.2525252E-01  0.3402824E-09  0.0000000E+00 -0.1450647E-04
  0.3686869E+00  0.0000000E+00  0.2525252E-01  0.3150577E-09  0.0000000E+00 -0.1450634E-04
  0.3787879E+00  0.0000000E+00  0.2525252E-01  0.2882259E-09  0.0000000E+00 -0.1450621E-04
  0.3888889E+00  0.0000000E+00  0.2525252E-01  0.2599082E-09  0.0000000E+00 -0.1450610E-04
  0.3989899E+00  0.0000000E+00  0.2525252E-01  0.2302346E-09  0.0000000E+00 -0.1450600E-04
  0.4090909E+00  0.0000000E+00  0.2525252E-01  0.1993428E-09  0.0000000E+00 -0.1450591E-04
  0.4191919E+00  0.0000000E+00  0.2525252E-01  0.1673774E-09  0.0000000E+00 -0.1450583E-04
  0.4292929E+00  0.0000000E+00  0.2525252E-01  0.1344896E-09  0.0000000E+00 -0.1450577E-04
  0.4393939E+00  0.0000000E+00  0.2525252E-01  0.1008357E-09  0.0000000E+00 -0.1450572E-04
  0.4494950E+00  0.0000000E+00  0.2525252E-01  0.6657461E-10  0.0000000E+00 -0.1450569E-04
  0.4595959E+00  0.0000000E+00  0.2525252E-01  0.3186718E-10  0.0000000E+00 -0.1450567E-04
  0.4696970E+00  0.0000000E+00  0.2525252E-01 -0.3123234E-11  0.0000000E+00 -0.1450566E-04
  0.4797980E+00  0.0000000E+00  0.2525252E-01 -0.3822953E-10  0.0000000E+00 -0.1450567E-04
  0.4898990E+00  0.0000000E+00  0.2525252E-01 -0.7329148E-10  0.0000000E+00 -0.1450569E-04
  0.5000000E+00  0.0000000E+00  0.2525252E-01 -0.1081117E-09  0.0000000E+00 -0.1450573E-04
  0.5101010E+00  0.0000000E+00  0.2525252E-01 -0.1425738E-09  0.0000000E+00 -0.1450578E-04
  0.5202020E+00  0.0000000E+00  0.2525252E-01 -0.1764674E-09  0.0000000E+00 -0.1450585E-04
  0.5303030E+00  0.0000000E+00  0.2525252E-01 -0.2096992E-09  0.0000000E+00 -0.1450593E-04
  0.5404040E+00  0.0000000E+00  0.2525252E-01 -0.2420697E-09  0.0000000E+00 -0.1450602E-04
  0.5505050E+00  0.0000000E+00  0.2525252E-01 -0.2734565E-09  0.0000000E+00 -0.1450613E-04
  0.5606061E+00  0.0000000E+00  0.2525252E-01 -0.3037232E-09  0.0000000E+00 -0.1450625E-04
  0.5707071E+00  0.0000000E+00  0.2525252E-01 -0.3327298E-09  0.0000000E+00 -0.1450638E-04
  0.5808081E+00  0.0000000E+00  0.2525252E-01 -0.3603629E-09  0.0000000E+00 -0.1450652E-04
  0.5909091E+00  0.0000000E+00  0.2525252E-01 -0.3865076E-09  0.0000000E+00 -0.1450667E-04
  0.6010101E+00  0.0000000E+00  0.2525252E-01 -0.4110597E-09  0.0000000E+00 -0.1450684E-04
  0.6111111E+00  0.0000000E+00  0.2525252E-01 -0.4339265E-09  0.0000000E+00 -0.1450701E-04
  0.6212121E+00  0.0000000E+00  0.2525252E-01 -0.4550242E-09  0.0000000E+00 -0.1450719E-04
  0.6313131E+00  0.0000000E+00  0.2525252E-01 -0.4742791E-09  0.0000000E+00 -0.1450738E-04
  0.6414142E+00  0.0000000E+00  0.2525252E-01 -0.4916279E-09  0.0000000E+00 -0.1450758E-04
  0.6515151E+00  0.0000000E+00  0.2525252E-01 -0.5070178E-09  0.0000000E+00 -0.1450779E-04
  0.6616161E+00  0.0000000E+00  0.2525252E-01 -0.5204064E-09  0.0000000E+00 -0.1450800E-04
  0.6717172E+00  0.0000000E+00  0.2525252E-01 -0.5317613E-09  0.0000000E+00 -0.1450822E-04
  0.6818182E+00  0.0000000E+00  0.2525252E-01 -0.5410601E-09  0.0000000E+00 -0.1450844E-04
  0.6919192E+00  0.0000000E+00  0.2525252E-01 -0.5482904E-09  0.0000000E+00 -0.1450866E-04
  0.7020202E+00  0.0000000E+00  0.2525252E-01 -0.5534490E-09  0.0000000E+00 -0.1450889E-04
  0.7121212E+00  0.0000000E+00  0.2525252E-01 -0.5565420E-09  0.0000000E+00 -0.1450912E-04
  0.7222222E+00  0.0000000E+00  0.2525252E-01 -0.5575840E-09  0.0000000E+00 -0.1450934E-04
  0.7323232E+00  0.0000000E+00  0.2525252E-01 -0.5565978E-09  0.0000000E+00 -0.1450957E-04
  0.7424242E+00  0.0000000E+00  0.2525252E-01 -0.5536141E-09  0.0000000E+00 -0.1450980E-04
  0.7525253E+00  0.0000000E+00  0.2525252E-01 -0.5486704E-09  0.0000000E+00 -0.1451003E-04
  0.7626263E+00  0.0000000E+00  0.2525252E-01 -0.5418113E-09  0.0000000E+00 -0.1451025E-04
  0.7727273E+00  0.0000000E+00  0.2525252E-01 -0.5330871E-09  0.0000000E+00 -0.1451047E-04
  0.7828283E+00  0.0000000E+00  0.2525252E-01 -0.5225538E-09  0.0000000E+00 -0.1451069E-04
  0.7929293E+00  0.0000000E+00  0.2525252E-01 -0.5102724E-09  0.0000000E+00 -0.1451090E-04
  0.8030303E+00  0.0000000E+00  0.2525252E-01 -0.4963081E-09  0.0000000E+00 -0.1451111E-04
  0.8131313E+00  0.0000000E+00  0.2525252E-01 -0.4807302E-09  0.0000000E+00 -0.1451131E-04
  0.8232324E+00  0.0000000E+00  0.2525252E-01 -0.4636115E-09  0.0000000E+00 -0.1451150E-04
  0.8333333E+00  0.0000000E+00  0.2525252E-01 -0.4450273E-09  0.0000000E+00 -0.1451169E-04
  0.8434343E+00  0.0000000E+00  0.2525252E-01 -0.4250556E-09  0.0000000E+00 -0.1451187E-04
  0.8535354E+00  0.0000000E+00  0.2525252E-01 -0.4037764E-09  0.0000000E+00 -0.1451204E-04
  0.8636364E+00  0.0000000E+00  0.2525252E-01 -0.3812713E-09  0.0000000E+00 -0.1451220E-04
  0.8737374E+00  0.0000000E+00  0.2525252E-01 -0.3576231E-09  0.0000000E+00 -0.1451235E-04
  0.8838384E+00  0.0000000E+00  0.2525252E-01 -0.3329156E-09  0.0000000E+00 -0.1451249E-04
  0.8939394E+00  0.0000000E+00  0.2525252E-01 -0.3072334E-09  0.0000000E+00 -0.1451262E-04
  0.9040404E+00  0.0000000E+00  0.2525252E-01 -0.2806613E-09  0.0000000E+00 -0.1451274E-04
  0.9141414E+00  0.0000000E+00  0.2525252E-01 -0.2532846E-09  0.0000000E+00 -0.1451285E-04
  0.9242424E+00  0.0000000E+00  0.2525252E-01 -0.2251887E-09  0.0000000E+00 -0.1451295E-04
  0.9343435E+00  0.0000000E+00  0.2525252E-01 -0.1964591E-09  0.0000000E+00 -0.1451304E-04
  0.9444444E+00  0.0000000E+00  0.2525252E-01 -0.1671814E-09  0.0000000E+00 -0.1451311E-04
  0.9545454E+00  0.0000000E+00  0.2525252E-01 -0.1374411E-09  0.0000000E+00 -0.1451318E-04
  0.9646465E+00  0.0000000E+00  0.2525252E-01 -0.1073247E-09  0.0000000E+00 -0.1451323E-04
  0.9747475E+00  0.0000000E+00  0.2525252E-01 -0.7691883E-10  0.0000000E+00 -0.1451326E-04
  0.9848485E+00  0.0000000E+00  0.2525252E-01 -0.4630912E-10  0.0000000E+00 -0.1451329E-04
  0.9974747E+00  0.0000000E+00  0.2525252E-01 -0.1558650E-10  0.0000000E+00 -0.1451330E-04
  0.5050505E-02  0.0000000E+00  0.3535353E-01  0.2206231E-10  0.0000000E+00 -0.1443626E-04
  0.1515152E-01  0.0000000E+00  0.3535353E-01  0.6653982E-10  0.0000000E+00 -0.1443625E-04
  0.2525252E-01  0.0000000E+00  0.3535353E-01  0.1108534E-09  0.0000000E+00 -0.1443622E-04
  0.3535353E-01  0.0000000E+00  0.3535353E-01  0.1546782E-09  0.0000000E+00 -0.1443618E-04
  0.4545455E-01  0.0000000E+00  0.3535353E-01  0.1978378E-09  0.0000000E+00 -0.1443613E-04
  0.5555556E-01  0.0000000E+00  0.3535353E-01  0.2402367E-09  0.0000000E+00 -0.1443607E-04
  0.6565657E-01  0.0000000E+00  0.3535353E-01  0.2816528E-09  0.0000000E+00 -0.1443599E-04
  0.7575758E-01  0.0000000E+00  0.3535353E-01  0.3219388E-09  0.0000000E+00 -0.1443590E-04
  0.8585858E-01  0.0000000E+00  0.3535353E-01  0.3609295E-09  0.0000000E+00 -0.1443579E-04
  0.9595960E-01  0.0000000E+00  0.3535353E-01  0.3984493E-09  0.0000000E+00 -0.1443568E-04
  0.1060606E+00  0.0000000E+00  0.3535353E-01  0.4343455E-09  0.0000000E+00 -0.1443555E-04
  0.1161616E+00  0.0000000E+00  0.3535353E-01  0.4684588E-09  0.0000000E+00 -0.1443542E-04
  0.1262626E+00  0.0000000E+00  0.3535353E-01  0.5006356E-09  0.0000000E+00 -0.1443527E-04
  0.1363636E+00  0.0000000E+00  0.3535353E-01  0.5307295E-09  0.0000000E+00 -0.1443512E-04
  0.1464646E+00  0.0000000E+00  0.3535353E-01  0.5585991E-09  0.0000000E+00 -0.1443495E-04
  0.1565657E+00  0.0000000E+00  0.3535353E-01  0.5841094E-09  0.0000000E+00 -0.1443478E-04
  0.1666667E+00  0.0000000E+00  0.3535353E-01  0.6071329E-09  0.0000000E+00 -0.1443460E-04
  0.1767677E+00  0.0000000E+00  0.3535353E-01  0.6275504E-09  0.0000000E+00 -0.1443441E-04
  0.1868687E+00  0.0000000E+00  0.3535353E-01  0.6452516E-09  0.0000000E+00 -0.1443422E-04
  0.1969697E+00  0.0000000E+00  0.3535353E-01  0.6601358E-09  0.0000000E+00 -0.1443403E-04
  0.2070707E+00  0.0000000E+00  0.3535353E-01  0.6721129E-09  0.0000000E+00 -0.1443383E-04
  0.2171717E+00  0.0000000E+00  0.3535353E-01  0.6811040E-09  0.0000000E+00 -0.1443362E-04
  0.2272727E+00  0.0000000E+00  0.3535353E-01  0.6870424E-09  0.0000000E+00 -0.1443342E-04
  0.2373737E+00  0.0000000E+00  0.3535353E-01  0.6898740E-09  0.0000000E+00 -0.1443321E-04
  0.2474747E+00  0.0000000E+00  0.3535353E-01  0.6895585E-09  0.0000000E+00 -0.1443300E-04
  0.2575758E+00  0.0000000E+00  0.3535353E-01  0.6860694E-09  0.0000000E+00 -0.1443279E-04
  0.2676768E+00  0.0000000E+00  0.3535353E-01  0.6793951E-09  0.0000000E+00 -0.1443259E-04
  0.2777778E+00  0.0000000E+00  0.3535353E-01  0.6695391E-09  0.0000000E+00 -0.1443238E-04
  0.2878788E+00  0.0000000E+00  0.3535353E-01  0.6565206E-09  0.0000000E+00 -0.1443218E-04
  0.2979798E+00  0.0000000E+00  0.3535353E-01  0.6403746E-09  0.0000000E+00 -0.1443199E-04