title = "dataset water"
variables = "x", "y", "z", "vx", "vy", "vz"
zone t = "velocities, solution time =  3.100E+01 days        " i =   99, j =   99, k =    1,  f=point
  0.5050505E-02  0.0000000E+00  0.5050505E-02  0.6268134E-10  0.0000000E+00 -0.9091997E-05
  0.1515152E-01  0.0000000E+00  0.5050505E-02  0.1877818E-09  0.0000000E+00 -0.9091746E-05
  0.2525252E-01  0.0000000E+00  0.5050505E-02  0.3120896E-09  0.0000000E+00 -0.9091246E-05
  0.3535353E-01  0.0000000E+00  0.5050505E-02  0.4350774E-09  0.0000000E+00 -0.9090498E-05
  0.4545455E-01  0.0000000E+00  0.5050505E-02  0.5562211E-09  0.0000000E+00 -0.9089505E-05
  0.5555556E-01  0.0000000E+00  0.5050505E-02  0.6749998E-09  0.0000000E+00 -0.9088273E-05
  0.6565657E-01  0.0000000E+00  0.5050505E-02  0.7908973E-09  0.0000000E+00 -0.9086805E-05
  0.7575758E-01  0.0000000E+00  0.5050505E-02  0.9034035E-09  0.0000000E+00 -0.9085109E-05
  0.8585858E-01  0.0000000E+00  0.5050505E-02  0.1012016E-08  0.0000000E+00 -0.9083191E-05
  0.9595960E-01  0.0000000E+00  0.5050505E-02  0.1116241E-08  0.0000000E+00 -0.9081061E-05
  0.1060606E+00  0.0000000E+00  0.5050505E-02  0.1215597E-08  0.0000000E+00 -0.9078726E-05
  0.1161616E+00  0.0000000E+00  0.5050505E-02  0.1309613E-08  0.0000000E+00 -0.9076198E-05
  0.1262626E+00  0.0000000E+00  0.5050505E-02  0.1397835E-08  0.0000000E+00 -0.9073488E-05
  0.1363636E+00  0.0000000E+00  0.5050505E-02  0.1479825E-08  0.0000000E+00 -0.9070607E-05
  0.1464646E+00  0.0000000E+00  0.5050505E-02  0.1555167E-08  0.0000000E+00 -0.9067569E-05
  0.1565657E+00  0.0000000E+00  0.5050505E-02  0.1623465E-08  0.0000000E+00 -0.9064386E-05
  0.1666667E+00  0.0000000E+00  0.5050505E-02  0.1684349E-08  0.0000000E+00 -0.9061075E-05
  0.1767677E+00  0.0000000E+00  0.5050505E-02  0.1737477E-08  0.0000000E+00 -0.9057649E-05
  0.1868687E+00  0.0000000E+00  0.5050505E-02  0.1782537E-08  0.0000000E+00 -0.9054125E-05
  0.1969697E+00  0.0000000E+00  0.5050505E-02  0.1819251E-08  0.0000000E+00 -0.9050520E-05
  0.2070707E+00  0.0000000E+00  0.5050505E-02  0.1847379E-08  0.0000000E+00 -0.9046849E-05
  0.2171717E+00  0.0000000E+00  0.5050505E-02  0.1866716E-08  0.0000000E+00 -0.9043131E-05
  0.2272727E+00  0.0000000E+00  0.5050505E-02  0.1877102E-08  0.0000000E+00 -0.9039383E-05
  0.2373737E+00  0.0000000E+00  0.5050505E-02  0.1878419E-08  0.0000000E+00 -0.9035623E-05
  0.2474747E+00  0.0000000E+00  0.5050505E-02  0.1870594E-08  0.0000000E+00 -0.9031870E-05
  0.2575758E+00  0.0000000E+00  0.5050505E-02  0.1853602E-08  0.0000000E+00 -0.9028142E-05
  0.2676768E+00  0.0000000E+00  0.5050505E-02  0.1827467E-08  0.0000000E+00 -0.9024456E-05
  0.2777778E+00  0.0000000E+00  0.5050505E-02  0.1792260E-08  0.0000000E+00 -0.9020833E-05
  0.2878788E+00  0.0000000E+00  0.5050505E-02  0.1748105E-08  0.0000000E+00 -0.9017288E-05
  0.2979798E+00  0.0000000E+00  0.5050505E-02  0.1695172E-08  0.0000000E+00 -0.9013841E-05
  0.3080808E+00  0.0000000E+00  0.5050505E-02  0.1633682E-08  0.0000000E+00 -0.9010509E-05
  0.3181818E+00  0.0000000E+00  0.5050505E-02  0.1563903E-08  0.0000000E+00 -0.9007308E-05
  0.3282828E+00  0.0000000E+00  0.5050505E-02  0.1486151E-08  0.0000000E+00 -0.9004254E-05
  0.3383838E+00  0.0000000E+00  0.5050505E-02  0.1400783E-08  0.0000000E+00 -0.9001364E-05
  0.3484848E+00  0.0000000E+00  0.5050505E-02  0.1308200E-08  0.0000000E+00 -0.8998652E-05
  0.3585859E+00  0.0000000E+00  0.5050505E-02  0.1208842E-08  0.0000000E+00 -0.8996132E-05
  0.3686869E+00  0.0000000E+00  0.5050505E-02  0.1103186E-08  0.0000000E+00 -0.8993818E-05
  0.3787879E+00  0.0000000E+00  0.5050505E-02  0.9917376E-09  0.0000000E+00 -0.8991720E-05
  0.3888889E+00  0.0000000E+00  0.5050505E-02  0.8750353E-09  0.0000000E+00 -0.8989852E-05
  0.3989899E+00  0.0000000E+00  0.5050505E-02  0.7536404E-09  0.0000000E+00 -0.8988221E-05
  0.4090909E+00  0.0000000E+00  0.5050505E-02  0.6281358E-09  0.0000000E+00 -0.8986838E-05
  0.4191919E+00  0.0000000E+00  0.5050505E-02  0.4991215E-09  0.0000000E+00 -0.8985709E-05
  0.4292929E+00  0.0000000E+00  0.5050505E-02  0.3672103E-09  0.0000000E+00 -0.8984842E-05
  0.4393939E+00  0.0000000E+00  0.5050505E-02  0.2330246E-09  0.0000000E+00 -0.8984241E-05
  0.4494950E+00  0.0000000E+00  0.5050505E-02  0.9719178E-10  0.0000000E+00 -0.8983911E-05
  0.4595959E+00  0.0000000E+00  0.5050505E-02 -0.3965887E-10  0.0000000E+00 -0.8983853E-05
  0.4696970E+00  0.0000000E+00  0.5050505E-02 -0.1769001E-09  0.0000000E+00 -0.8984070E-05
  0.4797980E+00  0.0000000E+00  0.5050505E-02 -0.3139097E-09  0.0000000E+00 -0.8984561E-05
  0.4898990E+00  0.0000000E+00  0.5050505E-02 -0.4500741E-09  0.0000000E+00 -0.8985326E-05
  0.5000000E+00  0.0000000E+00  0.5050505E-02 -0.5847911E-09  0.0000000E+00 -0.8986362E-05
  0.5101010E+00  0.0000000E+00  0.5050505E-02 -0.7174727E-09  0.0000000E+00 -0.8987666E-05
  0.5202020E+00  0.0000000E+00  0.5050505E-02 -0.8475478E-09  0.0000000E+00 -0.8989232E-05
  0.5303030E+00  0.0000000E+00  0.5050505E-02 -0.9744643E-09  0.0000000E+00 -0.8991056E-05
  0.5404040E+00  0.0000000E+00  0.5050505E-02 -0.1097692E-08  0.0000000E+00 -0.8993131E-05
  0.5505050E+00  0.0000000E+00  0.5050505E-02 -0.1216724E-08  0.0000000E+00 -0.8995448E-05
  0.5606061E+00  0.0000000E+00  0.5050505E-02 -0.1331080E-08  0.0000000E+00 -0.8997998E-05
  0.5707071E+00  0.0000000E+00  0.5050505E-02 -0.1440305E-08  0.0000000E+00 -0.9000773E-05
  0.5808081E+00  0.0000000E+00  0.5050505E-02 -0.1543976E-08  0.0000000E+00 -0.9003761E-05
  0.5909091E+00  0.0000000E+00  0.5050505E-02 -0.1641697E-08  0.0000000E+00 -0.9006950E-05
  0.6010101E+00  0.0000000E+00  0.5050505E-02 -0.1733107E-08  0.0000000E+00 -0.9010328E-05
  0.6111111E+00  0.0000000E+00  0.5050505E-02 -0.1817876E-08  0.0000000E+00 -0.9013883E-05
  0.6212121E+00  0.0000000E+00  0.5050505E-02 -0.1895710E-08  0.0000000E+00 -0.9017601E-05
  0.6313131E+00  0.0000000E+00  0.5050505E-02 -0.1966349E-08  0.0000000E+00 -0.9021467E-05
  0.6414142E+00  0.0000000E+00  0.5050505E-02 -0.2029567E-08  0.0000000E+00 -0.9025468E-05
  0.6515151E+00  0.0000000E+00  0.5050505E-02 -0.2085177E-08  0.0000000E+00 -0.9029587E-05
  0.6616161E+00  0.0000000E+00  0.5050505E-02 -0.2133027E-08  0.0000000E+00 -0.9033810E-05
  0.6717172E+00  0.0000000E+00  0.5050505E-02 -0.2173001E-08  0.0000000E+00 -0.9038120E-05
  0.6818182E+00  0.0000000E+00  0.5050505E-02 -0.2205018E-08  0.0000000E+00 -0.9042503E-05
  0.6919192E+00  0.0000000E+00  0.5050505E-02 -0.2229036E-08  0.0000000E+00 -0.9046942E-05
  0.7020202E+00  0.0000000E+00  0.5050505E-02 -0.2245045E-08  0.0000000E+00 -0.9051421E-05
  0.7121212E+00  0.0000000E+00  0.5050505E-02 -0.2253070E-08  0.0000000E+00 -0.9055925E-05
  0.7222222E+00  0.0000000E+00  0.5050505E-02 -0.2253169E-08  0.0000000E+00 -0.9060436E-05
  0.7323232E+00  0.0000000E+00  0.5050505E-02 -0.2245430E-08  0.0000000E+00 -0.9064939E-05
  0.7424242E+00  0.0000000E+00  0.5050505E-02 -0.2229973E-08  0.0000000E+00 -0.9069420E-05
  0.7525253E+00  0.0000000E+00  0.5050505E-02 -0.2206945E-08  0.0000000E+00 -0.9073862E-05
  0.7626263E+00  0.0000000E+00  0.5050505E-02 -0.2176518E-08  0.0000000E+00 -0.9078250E-05
  0.7727273E+00  0.0000000E+00  0.5050505E-02 -0.2138890E-08  0.0000000E+00 -0.9082570E-05
  0.7828283E+00  0.0000000E+00  0.5050505E-02 -0.2094280E-08  0.0000000E+00 -0.9086808E-05
  0.7929293E+00  0.0000000E+00  0.5050505E-02 -0.2042928E-08  0.0000000E+00 -0.9090950E-05
  0.8030303E+00  0.0000000E+00  0.5050505E-02 -0.1985090E-08  0.0000000E+00 -0.9094982E-05
  0.8131313E+00  0.0000000E+00  0.5050505E-02 -0.1921038E-08  0.0000000E+00 -0.9098893E-05
  0.8232324E+00  0.0000000E+00  0.5050505E-02 -0.1851058E-08  0.0000000E+00 -0.9102669E-05
  0.8333333E+00  0.0000000E+00  0.5050505E-02 -0.1775447E-08  0.0000000E+00 -0.9106300E-05
  0.8434343E+00  0.0000000E+00  0.5050505E-02 -0.1694511E-08  0.0000000E+00 -0.9109774E-05
  0.8535354E+00  0.0000000E+00  0.5050505E-02 -0.1608563E-08  0.0000000E+00 -0.9113080E-05
  0.8636364E+00  0.0000000E+00  0.5050505E-02 -0.1517923E-08  0.0000000E+00 -0.9116210E-05
  0.8737374E+00  0.0000000E+00  0.5050505E-02 -0.1422915E-08  0.0000000E+00 -0.9119154E-05
  0.8838384E+00  0.0000000E+00  0.5050505E-02 -0.1323865E-08  0.0000000E+00 -0.9121904E-05
  0.8939394E+00  0.0000000E+00  0.5050505E-02 -0.1221100E-08  0.0000000E+00 -0.9124452E-05
  0.9040404E+00  0.0000000E+00  0.5050505E-02 -0.1114950E-08  0.0000000E+00 -0.9126791E-05
  0.9141414E+00  0.0000000E+00  0.5050505E-02 -0.1005744E-08  0.0000000E+00 -0.9128914E-05
  0.9242424E+00  0.0000000E+00  0.5050505E-02 -0.8938078E-09  0.0000000E+00 -0.9130816E-05
  0.9343435E+00  0.0000000E+00  0.5050505E-02 -0.7794695E-09  0.0000000E+00 -0.9132491E-05
  0.9444444E+00  0.0000000E+00  0.5050505E-02 -0.6630536E-09  0.0000000E+00 -0.9133935E-05
  0.9545454E+00  0.0000000E+00  0.5050505E-02 -0.5448834E-09  0.0000000E+00 -0.9135144E-05
  0.9646465E+00  0.0000000E+00  0.5050505E-02 -0.4252806E-09  0.0000000E+00 -0.9136115E-05
  0.9747475E+00  0.0000000E+00  0.5050505E-02 -0.3045654E-09  0.0000000E+00 -0.9136846E-05
  0.9848485E+00  0.0000000E+00  0.5050505E-02 -0.1830566E-09  0.0000000E+00 -0.9137334E-05
  0.9974747E+00  0.0000000E+00  0.5050505E-02 -0.6107211E-10  0.0000000E+00 -0.9137579E-05
  0.5050505E-02  0.0000000E+00  0.1515152E-01  0.1886151E-09  0.0000000E+00 -0.9079759E-05
  0.1515152E-01  0.0000000E+00  0.1515152E-01  0.5650552E-09  0.0000000E+00 -0.9079505E-05
  0.2525252E-01  0.0000000E+00  0.1515152E-01  0.9391124E-09  0.0000000E+00 -0.9078999E-05
  0.3535353E-01  0.0000000E+00  0.1515152E-01  0.1309201E-08  0.0000000E+00 -0.9078242E-05
  0.4545455E-01  0.0000000E+00  0.1515152E-01  0.1673744E-08  0.0000000E+00 -0.9077238E-05
  0.5555556E-01  0.0000000E+00  0.1515152E-01  0.2031176E-08  0.0000000E+00 -0.9075990E-05
  0.6565657E-01  0.0000000E+00  0.1515152E-01  0.2379944E-08  0.0000000E+00 -0.9074505E-05
  0.7575758E-01  0.0000000E+00  0.1515152E-01  0.2718514E-08  0.0000000E+00 -0.9072788E-05
  0.8585858E-01  0.0000000E+00  0.1515152E-01  0.3045375E-08  0.0000000E+00 -0.9070847E-05
  0.9595960E-01  0.0000000E+00  0.1515152E-01  0.3359041E-08  0.0000000E+00 -0.9068691E-05
  0.1060606E+00  0.0000000E+00  0.1515152E-01  0.3658061E-08  0.0000000E+00 -0.9066328E-05
  0.1161616E+00  0.0000000E+00  0.1515152E-01  0.3941021E-08  0.0000000E+00 -0.9063769E-05
  0.1262626E+00  0.0000000E+00  0.1515152E-01  0.4206553E-08  0.0000000E+00 -0.9061026E-05
  0.1363636E+00  0.0000000E+00  0.1515152E-01  0.4453340E-08  0.0000000E+00 -0.9058109E-05
  0.1464646E+00  0.0000000E+00  0.1515152E-01  0.4680125E-08  0.0000000E+00 -0.9055034E-05
  0.1565657E+00  0.0000000E+00  0.1515152E-01  0.4885717E-08  0.0000000E+00 -0.9051812E-05
  0.1666667E+00  0.0000000E+00  0.1515152E-01  0.5069003E-08  0.0000000E+00 -0.9048460E-05
  0.1767677E+00  0.0000000E+00  0.1515152E-01  0.5228950E-08  0.0000000E+00 -0.9044992E-05
  0.1868687E+00  0.0000000E+00  0.1515152E-01  0.5364621E-08  0.0000000E+00 -0.9041424E-05
  0.1969697E+00  0.0000000E+00  0.1515152E-01  0.5475177E-08  0.0000000E+00 -0.9037773E-05
  0.2070707E+00  0.0000000E+00  0.1515152E-01  0.5559890E-08  0.0000000E+00 -0.9034057E-05
  0.2171717E+00  0.0000000E+00  0.1515152E-01  0.5618147E-08  0.0000000E+00 -0.9030292E-05
  0.2272727E+00  0.0000000E+00  0.1515152E-01  0.5649462E-08  0.0000000E+00 -0.9026497E-05
  0.2373737E+00  0.0000000E+00  0.1515152E-01  0.5653478E-08  0.0000000E+00 -0.9022690E-05
  0.2474747E+00  0.0000000E+00  0.1515152E-01  0.5629977E-08  0.0000000E+00 -0.9018889E-05
  0.2575758E+00  0.0000000E+00  0.1515152E-01  0.5578881E-08  0.0000000E+00 -0.9015114E-05
  0.2676768E+00  0.0000000E+00  0.1515152E-01  0.5500260E-08  0.0000000E+00 -0.9011382E-05
  0.2777778E+00  0.0000000E+00  0.1515152E-01  0.5394332E-08  0.0000000E+00 -0.9007712E-05
  0.2878788E+00  0.0000000E+00  0.1515152E-01  0.5261464E-08  0.0000000E+00 -0.9004123E-05
  0.2979798E+00  0.0000000E+00  0.1515152E-01  0.5102171E-08  0.0000000E+00 -0.9000632E-05
  0.3080808E+00  0.0000000E+00  0.1515152E-01  0.4917118E-08  0.0000000E+00 -0.8997257E-05
  0.3181818E+00  0.0000000E+00  0.1515152E-01  0.4707112E-08  0.0000000E+00 -0.8994015E-05
  0.3282828E+00  0.0000000E+00  0.1515152E-01  0.4473102E-08  0.0000000E+00 -0.8990923E-05
  0.3383838E+00  0.0000000E+00  0.1515152E-01  0.4216169E-08  0.0000000E+00 -0.8987995E-05
  0.3484848E+00  0.0000000E+00  0.1515152E-01  0.3937518E-08  0.0000000E+00 -0.8985249E-05
  0.3585859E+00  0.0000000E+00  0.1515152E-01  0.3638476E-08  0.0000000E+00 -0.8982697E-05
  0.3686869E+00  0.0000000E+00  0.1515152E-01  0.3320476E-08  0.0000000E+00 -0.8980353E-05
  0.3787879E+00  0.0000000E+00  0.1515152E-01  0.2985047E-08  0.0000000E+00 -0.8978228E-05
  0.3888889E+00  0.0000000E+00  0.1515152E-01  0.2633806E-08  0.0000000E+00 -0.8976336E-05
  0.3989899E+00  0.0000000E+00  0.1515152E-01  0.2268447E-08  0.0000000E+00 -0.8974684E-05
  0.4090909E+00  0.0000000E+00  0.1515152E-01  0.1890725E-08  0.0000000E+00 -0.8973283E-05
  0.4191919E+00  0.0000000E+00  0.1515152E-01  0.1502445E-08  0.0000000E+00 -0.8972140E-05
  0.4292929E+00  0.0000000E+00  0.1515152E-01  0.1105456E-08  0.0000000E+00 -0.8971261E-05
  0.4393939E+00  0.0000000E+00  0.1515152E-01  0.7016283E-09  0.0000000E+00 -0.8970652E-05
  0.4494950E+00  0.0000000E+00  0.1515152E-01  0.2928531E-09  0.0000000E+00 -0.8970317E-05
  0.4595959E+00  0.0000000E+00  0.1515152E-01 -0.1189760E-09  0.0000000E+00 -0.8970258E-05
  0.4696970E+00  0.0000000E+00  0.1515152E-01 -0.5319708E-09  0.0000000E+00 -0.8970476E-05
  0.4797980E+00  0.0000000E+00  0.1515152E-01 -0.9442590E-09  0.0000000E+00 -0.8970973E-05
  0.4898990E+00  0.0000000E+00  0.1515152E-01 -0.1353994E-08  0.0000000E+00 -0.8971746E-05
  0.5000000E+00  0.0000000E+00  0.1515152E-01 -0.1759364E-08  0.0000000E+00 -0.8972794E-05
  0.5101010E+00  0.0000000E+00  0.1515152E-01 -0.2158599E-08  0.0000000E+00 -0.8974113E-05
  0.5202020E+00  0.0000000E+00  0.1515152E-01 -0.2549981E-08  0.0000000E+00 -0.8975698E-05
  0.5303030E+00  0.0000000E+00  0.1515152E-01 -0.2931850E-08  0.0000000E+00 -0.8977543E-05
  0.5404040E+00  0.0000000E+00  0.1515152E-01 -0.3302610E-08  0.0000000E+00 -0.8979641E-05
  0.5505050E+00  0.0000000E+00  0.1515152E-01 -0.3660738E-08  0.0000000E+00 -0.8981985E-05
  0.5606061E+00  0.0000000E+00  0.1515152E-01 -0.4004786E-08  0.0000000E+00 -0.8984565E-05
  0.5707071E+00  0.0000000E+00  0.1515152E-01 -0.4333389E-08  0.0000000E+00 -0.8987372E-05
  0.5808081E+00  0.0000000E+00  0.1515152E-01 -0.4645271E-08  0.0000000E+00 -0.8990394E-05
  0.5909091E+00  0.0000000E+00  0.1515152E-01 -0.4939246E-08  0.0000000E+00 -0.8993620E-05
  0.6010101E+00  0.0000000E+00  0.1515152E-01 -0.5214224E-08  0.0000000E+00 -0.8997037E-05
  0.6111111E+00  0.0000000E+00  0.1515152E-01 -0.5469215E-08  0.0000000E+00 -0.9000633E-05
  0.6212121E+00  0.0000000E+00  0.1515152E-01 -0.5703333E-08  0.0000000E+00 -0.9004393E-05
  0.6313131E+00  0.0000000E+00  0.1515152E-01 -0.5915796E-08  0.0000000E+00 -0.9008304E-05
  0.6414142E+00  0.0000000E+00  0.1515152E-01 -0.6105929E-08  0.0000000E+00 -0.9012350E-05
  0.6515151E+00  0.0000000E+00  0.1515152E-01 -0.6273165E-08  0.0000000E+00 -0.9016516E-05
  0.6616161E+00  0.0000000E+00  0.1515152E-01 -0.6417048E-08  0.0000000E+00 -0.9020787E-05
  0.6717172E+00  0.0000000E+00  0.1515152E-01 -0.6537230E-08  0.0000000E+00 -0.9025147E-05
  0.6818182E+00  0.0000000E+00  0.1515152E-01 -0.6633472E-08  0.0000000E+00 -0.9029579E-05
  0.6919192E+00  0.0000000E+00  0.1515152E-01 -0.6705644E-08  0.0000000E+00 -0.9034068E-05
  0.7020202E+00  0.0000000E+00  0.1515152E-01 -0.6753717E-08  0.0000000E+00 -0.9038597E-05
  0.7121212E+00  0.0000000E+00  0.1515152E-01 -0.6777769E-08  0.0000000E+00 -0.9043150E-05
  0.7222222E+00  0.0000000E+00  0.1515152E-01 -0.6777974E-08  0.0000000E+00 -0.9047712E-05
  0.7323232E+00  0.0000000E+00  0.1515152E-01 -0.6754601E-08  0.0000000E+00 -0.9052265E-05
  0.7424242E+00  0.0000000E+00  0.1515152E-01 -0.6708008E-08  0.0000000E+00 -0.9056795E-05
  0.7525253E+00  0.0000000E+00  0.1515152E-01 -0.6638640E-08  0.0000000E+00 -0.9061286E-05
  0.7626263E+00  0.0000000E+00  0.1515152E-01 -0.6547018E-08  0.0000000E+00 -0.9065722E-05
  0.7727273E+00  0.0000000E+00  0.1515152E-01 -0.6433738E-08  0.0000000E+00 -0.9070090E-05
  0.7828283E+00  0.0000000E+00  0.1515152E-01 -0.6299459E-08  0.0000000E+00 -0.9074374E-05
  0.7929293E+00  0.0000000E+00  0.1515152E-01 -0.6144904E-08  0.0000000E+00 -0.9078560E-05
  0.8030303E+00  0.0000000E+00  0.1515152E-01 -0.5970844E-08  0.0000000E+00 -0.9082636E-05
  0.8131313E+00  0.0000000E+00  0.1515152E-01 -0.5778102E-08  0.0000000E+00 -0.9086589E-05
  0.8232324E+00  0.0000000E+00  0.1515152E-01 -0.5567536E-08  0.0000000E+00 -0.9090405E-05
  0.8333333E+00  0.0000000E+00  0.1515152E-01 -0.5340040E-08  0.0000000E+00 -0.9094075E-05
  0.8434343E+00  0.0000000E+00  0.1515152E-01 -0.5096537E-08  0.0000000E+00 -0.9097585E-05
  0.8535354E+00  0.0000000E+00  0.1515152E-01 -0.4837970E-08  0.0000000E+00 -0.9100927E-05
  0.8636364E+00  0.0000000E+00  0.1515152E-01 -0.4565300E-08  0.0000000E+00 -0.9104090E-05
  0.8737374E+00  0.0000000E+00  0.1515152E-01 -0.4279501E-08  0.0000000E+00 -0.9107065E-05
  0.8838384E+00  0.0000000E+00  0.1515152E-01 -0.3981555E-08  0.0000000E+00 -0.9109844E-05
  0.8939394E+00  0.0000000E+00  0.1515152E-01 -0.3672448E-08  0.0000000E+00 -0.9112418E-05
  0.9040404E+00  0.0000000E+00  0.1515152E-01 -0.3353170E-08  0.0000000E+00 -0.9114781E-05
  0.9141414E+00  0.0000000E+00  0.1515152E-01 -0.3024707E-08  0.0000000E+00 -0.9116926E-05
  0.9242424E+00  0.0000000E+00  0.1515152E-01 -0.2688045E-08  0.0000000E+00 -0.9118847E-05
  0.9343435E+00  0.0000000E+00  0.1515152E-01 -0.2344165E-08  0.0000000E+00 -0.9120540E-05
  0.9444444E+00  0.0000000E+00  0.1515152E-01 -0.1994045E-08  0.0000000E+00 -0.9121999E-05
  0.9545454E+00  0.0000000E+00  0.1515152E-01 -0.1638655E-08  0.0000000E+00 -0.9123220E-05
  0.9646465E+00  0.0000000E+00  0.1515152E-01 -0.1278962E-08  0.0000000E+00 -0.9124202E-05
  0.9747475E+00  0.0000000E+00  0.1515152E-01 -0.9159275E-09  0.0000000E+00 -0.9124940E-05
  0.9848485E+00  0.0000000E+00  0.1515152E-01 -0.5505095E-09  0.0000000E+00 -0.9125433E-05
  0.9974747E+00  0.0000000E+00  0.1515152E-01 -0.1836628E-09  0.0000000E+00 -0.9125680E-05
  0.5050505E-02  0.0000000E+00  0.2525252E-01  0.3164494E-09  0.0000000E+00 -0.9055316E-05
  0.1515152E-01  0.0000000E+00  0.2525252E-01  0.9480229E-09  0.0000000E+00 -0.9055057E-05
  0.2525252E-01  0.0000000E+00  0.2525252E-01  0.1575605E-08  0.0000000E+00 -0.9054538E-05
  0.3535353E-01  0.0000000E+00  0.2525252E-01  0.2196538E-08  0.0000000E+00 -0.9053763E-05
  0.4545455E-01  0.0000000E+00  0.2525252E-01  0.2808183E-08  0.0000000E+00 -0.9052735E-05
  0.5555556E-01  0.0000000E+00  0.2525252E-01  0.3407913E-08  0.0000000E+00 -0.9051457E-05
  0.6565657E-01  0.0000000E+00  0.2525252E-01  0.3993129E-08  0.0000000E+00 -0.9049936E-05
  0.7575758E-01  0.0000000E+00  0.2525252E-01  0.4561256E-08  0.0000000E+00 -0.9048179E-05
  0.8585858E-01  0.0000000E+00  0.2525252E-01  0.5109762E-08  0.0000000E+00 -0.9046191E-05
  0.9595960E-01  0.0000000E+00  0.2525252E-01  0.5636155E-08  0.0000000E+00 -0.9043983E-05
  0.1060606E+00  0.0000000E+00  0.2525252E-01  0.6138000E-08  0.0000000E+00 -0.9041563E-05
  0.1161616E+00  0.0000000E+00  0.2525252E-01  0.6612925E-08  0.0000000E+00 -0.9038942E-05
  0.1262626E+00  0.0000000E+00  0.2525252E-01  0.7058631E-08  0.0000000E+00 -0.9036132E-05
  0.1363636E+00  0.0000000E+00  0.2525252E-01  0.7472908E-08  0.0000000E+00 -0.9033144E-05
  0.1464646E+00  0.0000000E+00  0.2525252E-01  0.7853644E-08  0.0000000E+00 -0.9029994E-05
  0.1565657E+00  0.0000000E+00  0.2525252E-01  0.8198836E-08  0.0000000E+00 -0.9026693E-05
  0.1666667E+00  0.0000000E+00  0.2525252E-01  0.8506612E-08  0.0000000E+00 -0.9023258E-05
  0.1767677E+00  0.0000000E+00  0.2525252E-01  0.8775236E-08  0.0000000E+00 -0.9019705E-05
  0.1868687E+00  0.0000000E+00  0.2525252E-01  0.9003128E-08  0.0000000E+00 -0.9016049E-05
  0.1969697E+00  0.0000000E+00  0.2525252E-01  0.9188876E-08  0.0000000E+00 -0.9012308E-05
  0.2070707E+00  0.0000000E+00  0.2525252E-01  0.9331254E-08  0.0000000E+00 -0.9008499E-05
  0.2171717E+00  0.0000000E+00  0.2525252E-01  0.9429228E-08  0.0000000E+00 -0.9004640E-05
  0.2272727E+00  0.0000000E+00  0.2525252E-01  0.9481976E-08  0.0000000E+00 -0.9000751E-05
  0.2373737E+00  0.0000000E+00  0.2525252E-01  0.9488896E-08  0.0000000E+00 -0.8996848E-05
  0.2474747E+00  0.0000000E+00  0.2525252E-01  0.9449617E-08  0.0000000E+00 -0.8992952E-05
  0.2575758E+00  0.0000000E+00  0.2525252E-01  0.9364006E-08  0.0000000E+00 -0.8989082E-05
  0.2676768E+00  0.0000000E+00  0.2525252E-01  0.9232177E-08  0.0000000E+00 -0.8985256E-05
  0.2777778E+00  0.0000000E+00  0.2525252E-01  0.9054494E-08  0.0000000E+00 -0.8981494E-05
  0.2878788E+00  0.0000000E+00  0.2525252E-01  0.8831571E-08  0.0000000E+00 -0.8977814E-05
  0.2979798E+00  0.0000000E+00  0.2525252E-01  0.8564276E-08  0.0000000E+00 -0.8974235E-05
  0.3080808E+00  0.0000000E+00  0.2525252E-01  0.8253722E-08  0.0000000E+00 -0.8970775E-05
  0.3181818E+00  0.0000000E+00  0.2525252E-01  0.7901270E-08  0.0000000E+00 -0.8967451E-05
  0.3282828E+00  0.0000000E+00  0.2525252E-01  0.7508510E-08  0.0000000E+00 -0.8964280E-05
  0.3383838E+00  0.0000000E+00  0.2525252E-01  0.7077262E-08  0.0000000E+00 -0.8961278E-05
  0.3484848E+00  0.0000000E+00  0.2525252E-01  0.6609556E-08  0.0000000E+00 -0.8958462E-05
  0.3585859E+00  0.0000000E+00  0.2525252E-01  0.6107618E-08  0.0000000E+00 -0.8955845E-05
  0.3686869E+00  0.0000000E+00  0.2525252E-01  0.5573860E-08  0.0000000E+00 -0.8953441E-05
  0.3787879E+00  0.0000000E+00  0.2525252E-01  0.5010855E-08  0.0000000E+00 -0.8951263E-05
  0.3888889E+00  0.0000000E+00  0.2525252E-01  0.4421322E-08  0.0000000E+00 -0.8949322E-05
  0.3989899E+00  0.0000000E+00  0.2525252E-01  0.3808106E-08  0.0000000E+00 -0.8947629E-05
  0.4090909E+00  0.0000000E+00  0.2525252E-01  0.3174158E-08  0.0000000E+00 -0.8946191E-05
  0.4191919E+00  0.0000000E+00  0.2525252E-01  0.2522515E-08  0.0000000E+00 -0.8945019E-05
  0.4292929E+00  0.0000000E+00  0.2525252E-01  0.1856277E-08  0.0000000E+00 -0.8944117E-05
  0.4393939E+00  0.0000000E+00  0.2525252E-01  0.1178592E-08  0.0000000E+00 -0.8943492E-05
  0.4494950E+00  0.0000000E+00  0.2525252E-01  0.4926331E-09  0.0000000E+00 -0.8943147E-05
  0.4595959E+00  0.0000000E+00  0.2525252E-01 -0.1984196E-09  0.0000000E+00 -0.8943085E-05
  0.4696970E+00  0.0000000E+00  0.2525252E-01 -0.8913961E-09  0.0000000E+00 -0.8943307E-05
  0.4797980E+00  0.0000000E+00  0.2525252E-01 -0.1583154E-08  0.0000000E+00 -0.8943814E-05
  0.4898990E+00  0.0000000E+00  0.2525252E-01 -0.2270595E-08  0.0000000E+00 -0.8944605E-05
  0.5000000E+00  0.0000000E+00  0.2525252E-01 -0.2950679E-08  0.0000000E+00 -0.8945676E-05
  0.5101010E+00  0.0000000E+00  0.2525252E-01 -0.3620437E-08  0.0000000E+00 -0.8947025E-05
  0.5202020E+00  0.0000000E+00  0.2525252E-01 -0.4276989E-08  0.0000000E+00 -0.8948646E-05
  0.5303030E+00  0.0000000E+00  0.2525252E-01 -0.4917550E-08  0.0000000E+00 -0.8950534E-05
  0.5404040E+00  0.0000000E+00  0.2525252E-01 -0.5539444E-08  0.0000000E+00 -0.8952681E-05
  0.5505050E+00  0.0000000E+00  0.2525252E-01 -0.6140118E-08  0.0000000E+00 -0.8955079E-05
  0.5606061E+00  0.0000000E+00  0.2525252E-01 -0.6717143E-08  0.0000000E+00 -0.8957718E-05
  0.5707071E+00  0.0000000E+00  0.2525252E-01 -0.7268234E-08  0.0000000E+00 -0.8960590E-05
  0.5808081E+00  0.0000000E+00  0.2525252E-01 -0.7791250E-08  0.0000000E+00 -0.8963681E-05
  0.5909091E+00  0.0000000E+00  0.2525252E-01 -0.8284202E-08  0.0000000E+00 -0.8966981E-05
  0.6010101E+00  0.0000000E+00  0.2525252E-01 -0.8745266E-08  0.0000000E+00 -0.8970477E-05
  0.6111111E+00  0.0000000E+00  0.2525252E-01 -0.9172783E-08  0.0000000E+00 -0.8974155E-05
  0.6212121E+00  0.0000000E+00  0.2525252E-01 -0.9565266E-08  0.0000000E+00 -0.8978001E-05
  0.6313131E+00  0.0000000E+00  0.2525252E-01 -0.9921406E-08  0.0000000E+00 -0.8982000E-05
  0.6414142E+00  0.0000000E+00  0.2525252E-01 -0.1024007E-07  0.0000000E+00 -0.8986138E-05
  0.6515151E+00  0.0000000E+00  0.2525252E-01 -0.1052032E-07  0.0000000E+00 -0.8990399E-05
  0.6616161E+00  0.0000000E+00  0.2525252E-01 -0.1076138E-07  0.0000000E+00 -0.8994766E-05
  0.6717172E+00  0.0000000E+00  0.2525252E-01 -0.1096267E-07  0.0000000E+00 -0.8999223E-05
  0.6818182E+00  0.0000000E+00  0.2525252E-01 -0.1112380E-07  0.0000000E+00 -0.9003755E-05
  0.6919192E+00  0.0000000E+00  0.2525252E-01 -0.1124455E-07  0.0000000E+00 -0.9008344E-05
  0.7020202E+00  0.0000000E+00  0.2525252E-01 -0.1132487E-07  0.0000000E+00 -0.9012974E-05
  0.7121212E+00  0.0000000E+00  0.2525252E-01 -0.1136490E-07  0.0000000E+00 -0.9017629E-05
  0.7222222E+00  0.0000000E+00  0.2525252E-01 -0.1136494E-07  0.0000000E+00 -0.9022291E-05
  0.7323232E+00  0.0000000E+00  0.2525252E-01 -0.1132543E-07  0.0000000E+00 -0.9026945E-05
  0.7424242E+00  0.0000000E+00  0.2525252E-01 -0.1124699E-07  0.0000000E+00 -0.9031574E-05
  0.7525253E+00  0.0000000E+00  0.2525252E-01 -0.1113036E-07  0.0000000E+00 -0.9036163E-05
  0.7626263E+00  0.0000000E+00  0.2525252E-01 -0.1097643E-07  0.0000000E+00 -0.9040696E-05
  0.7727273E+00  0.0000000E+00  0.2525252E-01 -0.1078619E-07  0.0000000E+00 -0.9045158E-05
  0.7828283E+00  0.0000000E+00  0.2525252E-01 -0.1056076E-07  0.0000000E+00 -0.9049535E-05
  0.7929293E+00  0.0000000E+00  0.2525252E-01 -0.1030135E-07  0.0000000E+00 -0.9053811E-05
  0.8030303E+00  0.0000000E+00  0.2525252E-01 -0.1000926E-07  0.0000000E+00 -0.9057975E-05
  0.8131313E+00  0.0000000E+00  0.2525252E-01 -0.9685872E-08  0.0000000E+00 -0.9062011E-05
  0.8232324E+00  0.0000000E+00  0.2525252E-01 -0.9332629E-08  0.0000000E+00 -0.9065909E-05
  0.8333333E+00  0.0000000E+00  0.2525252E-01 -0.8951035E-08  0.0000000E+00 -0.9069656E-05
  0.8434343E+00  0.0000000E+00  0.2525252E-01 -0.8542637E-08  0.0000000E+00 -0.9073241E-05
  0.8535354E+00  0.0000000E+00  0.2525252E-01 -0.8109019E-08  0.0000000E+00 -0.9076653E-05
  0.8636364E+00  0.0000000E+00  0.2525252E-01 -0.7651796E-08  0.0000000E+00 -0.9079882E-05
  0.8737374E+00  0.0000000E+00  0.2525252E-01 -0.7172599E-08  0.0000000E+00 -0.9082919E-05
  0.8838384E+00  0.0000000E+00  0.2525252E-01 -0.6673075E-08  0.0000000E+00 -0.9085755E-05
  0.8939394E+00  0.0000000E+00  0.2525252E-01 -0.6154879E-08  0.0000000E+00 -0.9088383E-05
  0.9040404E+00  0.0000000E+00  0.2525252E-01 -0.5619667E-08  0.0000000E+00 -0.9090794E-05
  0.9141414E+00  0.0000000E+00  0.2525252E-01 -0.5069092E-08  0.0000000E+00 -0.9092984E-05
  0.9242424E+00  0.0000000E+00  0.2525252E-01 -0.4504807E-08  0.0000000E+00 -0.9094944E-05
  0.9343435E+00  0.0000000E+00  0.2525252E-01 -0.3928452E-08  0.0000000E+00 -0.9096672E-05
  0.9444444E+00  0.0000000E+00  0.2525252E-01 -0.3341662E-08  0.0000000E+00 -0.9098160E-05
  0.9545454E+00  0.0000000E+00  0.2525252E-01 -0.2746062E-08  0.0000000E+00 -0.9099407E-05
  0.9646465E+00  0.0000000E+00  0.2525252E-01 -0.2143268E-08  0.0000000E+00 -0.9100408E-05
  0.9747475E+00  0.0000000E+00  0.2525252E-01 -0.1534890E-08  0.0000000E+00 -0.9101161E-05
  0.9848485E+00  0.0000000E+00  0.2525252E-01 -0.9225266E-09  0.0000000E+00 -0.9101665E-05
  0.9974747E+00  0.0000000E+00  0.2525252E-01 -0.3077752E-09  0.0000000E+00 -0.9101917E-05
  0.5050505E-02  0.0000000E+00  0.3535353E-01  0.4477158E-09  0.0000000E+00 -0.9018722E-05
  0.1515152E-01  0.0000000E+00  0.3535353E-01  0.1341275E-08  0.0000000E+00 -0.9018453E-05
  0.2525252E-01  0.0000000E+00  0.3535353E-01  0.2229200E-08  0.0000000E+00 -0.9017916E-05
  0.3535353E-01  0.0000000E+00  0.3535353E-01  0.3107741E-08  0.0000000E+00 -0.9017114E-05
  0.4545455E-01  0.0000000E+00  0.3535353E-01  0.3973170E-08  0.0000000E+00 -0.9016049E-05
  0.5555556E-01  0.0000000E+00  0.3535353E-01  0.4821780E-08  0.0000000E+00 -0.9014726E-05
  0.6565657E-01  0.0000000E+00  0.3535353E-01  0.5649895E-08  0.0000000E+00 -0.9013152E-05
  0.7575758E-01  0.0000000E+00  0.3535353E-01  0.6453883E-08  0.0000000E+00 -0.9011331E-05
  0.8585858E-01  0.0000000E+00  0.3535353E-01  0.7230160E-08  0.0000000E+00 -0.9009273E-05
  0.9595960E-01  0.0000000E+00  0.3535353E-01  0.7975204E-08  0.0000000E+00 -0.9006986E-05
  0.1060606E+00  0.0000000E+00  0.3535353E-01  0.8685570E-08  0.0000000E+00 -0.9004480E-05
  0.1161616E+00  0.0000000E+00  0.3535353E-01  0.9357899E-08  0.0000000E+00 -0.9001765E-05
  0.1262626E+00  0.0000000E+00  0.3535353E-01  0.9988937E-08  0.0000000E+00 -0.8998854E-05
  0.1363636E+00  0.0000000E+00  0.3535353E-01  0.1057555E-07  0.0000000E+00 -0.8995759E-05
  0.1464646E+00  0.0000000E+00  0.3535353E-01  0.1111474E-07  0.0000000E+00 -0.8992494E-05
  0.1565657E+00  0.0000000E+00  0.3535353E-01  0.1160368E-07  0.0000000E+00 -0.8989075E-05
  0.1666667E+00  0.0000000E+00  0.3535353E-01  0.1203969E-07  0.0000000E+00 -0.8985515E-05
  0.1767677E+00  0.0000000E+00  0.3535353E-01  0.1242032E-07  0.0000000E+00 -0.8981832E-05
  0.1868687E+00  0.0000000E+00  0.3535353E-01  0.1274332E-07  0.0000000E+00 -0.8978043E-05
  0.1969697E+00  0.0000000E+00  0.3535353E-01  0.1300668E-07  0.0000000E+00 -0.8974165E-05
  0.2070707E+00  0.0000000E+00  0.3535353E-01  0.1320865E-07  0.0000000E+00 -0.8970216E-05
  0.2171717E+00  0.0000000E+00  0.3535353E-01  0.1334776E-07  0.0000000E+00 -0.8966216E-05
  0.2272727E+00  0.0000000E+00  0.3535353E-01  0.1342284E-07  0.0000000E+00 -0.8962182E-05
  0.2373737E+00  0.0000000E+00  0.3535353E-01  0.1343301E-07  0.0000000E+00 -0.8958136E-05
  0.2474747E+00  0.0000000E+00  0.3535353E-01  0.1337776E-07  0.0000000E+00 -0.8954096E-05
  0.2575758E+00  0.0000000E+00  0.3535353E-01  0.1325688E-07  0.0000000E+00 -0.8950081E-05
  0.2676768E+00  0.0000000E+00  0.3535353E-01  0.1307053E-07  0.0000000E+00 -0.8946113E-05
  0.2777778E+00  0.0000000E+00  0.3535353E-01  0.1281922E-07  0.0000000E+00 -0.8942211E-05
  0.2878788E+00  0.0000000E+00  0.3535353E-01  0.1250381E-07  0.0000000E+00 -0.8938394E-05
  0.2979798E+00  0.0000000E+00  0.3535353E-01  0.1212555E-07  0.0000000E+00 -0.8934681E-05