title = "dataset water"
variables = "x", "y", "z", "vx", "vy", "vz"
zone t = "velocities, solution time =  1.700E+01 days        " i =   99, j =   99, k =    1,  f=point
  0.5050505E-02  0.0000000E+00  0.5050505E-02  0.1265986E-13  0.0000000E+00 -0.2345980E-04
  0.1515152E-01  0.0000000E+00  0.5050505E-02  0.5813637E-12  0.0000000E+00 -0.2345980E-04
  0.2525252E-01  0.0000000E+00  0.5050505E-02  0.9710341E-12  0.0000000E+00 -0.2345979E-04
  0.3535353E-01  0.0000000E+00  0.5050505E-02  0.1418592E-11  0.0000000E+00 -0.2345979E-04
  0.4545455E-01  0.0000000E+00  0.5050505E-02  0.1894946E-11  0.0000000E+00 -0.2345979E-04
  0.5555556E-01  0.0000000E+00  0.5050505E-02  0.2278726E-11  0.0000000E+00 -0.2345978E-04
  0.6565657E-01  0.0000000E+00  0.5050505E-02  0.2554881E-11  0.0000000E+00 -0.2345978E-04
  0.7575758E-01  0.0000000E+00  0.5050505E-02  0.3056569E-11  0.0000000E+00 -0.2345977E-04
  0.8585858E-01  0.0000000E+00  0.5050505E-02  0.3502129E-11  0.0000000E+00 -0.2345977E-04
  0.9595960E-01  0.0000000E+00  0.5050505E-02  0.3777953E-11  0.0000000E+00 -0.2345976E-04
  0.1060606E+00  0.0000000E+00  0.5050505E-02  0.4125008E-11  0.0000000E+00 -0.2345975E-04
  0.1161616E+00  0.0000000E+00  0.5050505E-02  0.4521536E-11  0.0000000E+00 -0.2345974E-04
  0.1262626E+00  0.0000000E+00  0.5050505E-02  0.4857903E-11  0.0000000E+00 -0.2345973E-04
  0.1363636E+00  0.0000000E+00  0.5050505E-02  0.5140051E-11  0.0000000E+00 -0.2345972E-04
  0.1464646E+00  0.0000000E+00  0.5050505E-02  0.5410633E-11  0.0000000E+00 -0.2345971E-04
  0.1565657E+00  0.0000000E+00  0.5050505E-02  0.5672597E-11  0.0000000E+00 -0.2345970E-04
  0.1666667E+00  0.0000000E+00  0.5050505E-02  0.5907393E-11  0.0000000E+00 -0.2345969E-04
  0.1767677E+00  0.0000000E+00  0.5050505E-02  0.6106494E-11  0.0000000E+00 -0.2345968E-04
  0.1868687E+00  0.0000000E+00  0.5050505E-02  0.6273646E-11  0.0000000E+00 -0.2345967E-04
  0.1969697E+00  0.0000000E+00  0.5050505E-02  0.6413760E-11  0.0000000E+00 -0.2345965E-04
  0.2070707E+00  0.0000000E+00  0.5050505E-02  0.6527619E-11  0.0000000E+00 -0.2345964E-04
  0.2171717E+00  0.0000000E+00  0.5050505E-02  0.6613698E-11  0.0000000E+00 -0.2345963E-04
  0.2272727E+00  0.0000000E+00  0.5050505E-02  0.6671134E-11  0.0000000E+00 -0.2345961E-04
  0.2373737E+00  0.0000000E+00  0.5050505E-02  0.6700486E-11  0.0000000E+00 -0.2345960E-04
  0.2474747E+00  0.0000000E+00  0.5050505E-02  0.6702827E-11  0.0000000E+00 -0.2345959E-04
  0.2575758E+00  0.0000000E+00  0.5050505E-02  0.6678740E-11  0.0000000E+00 -0.2345957E-04
  0.2676768E+00  0.0000000E+00  0.5050505E-02  0.6628050E-11  0.0000000E+00 -0.2345956E-04
  0.2777778E+00  0.0000000E+00  0.5050505E-02  0.6550026E-11  0.0000000E+00 -0.2345955E-04
  0.2878788E+00  0.0000000E+00  0.5050505E-02  0.6443714E-11  0.0000000E+00 -0.2345953E-04
  0.2979798E+00  0.0000000E+00  0.5050505E-02  0.6308153E-11  0.0000000E+00 -0.2345952E-04
  0.3080808E+00  0.0000000E+00  0.5050505E-02  0.6142494E-11  0.0000000E+00 -0.2345951E-04
  0.3181818E+00  0.0000000E+00  0.5050505E-02  0.5946029E-11  0.0000000E+00 -0.2345950E-04
  0.3282828E+00  0.0000000E+00  0.5050505E-02  0.5718353E-11  0.0000000E+00 -0.2345948E-04
  0.3383838E+00  0.0000000E+00  0.5050505E-02  0.5459470E-11  0.0000000E+00 -0.2345947E-04
  0.3484848E+00  0.0000000E+00  0.5050505E-02  0.5169932E-11  0.0000000E+00 -0.2345946E-04
  0.3585859E+00  0.0000000E+00  0.5050505E-02  0.4850939E-11  0.0000000E+00 -0.2345945E-04
  0.3686869E+00  0.0000000E+00  0.5050505E-02  0.4504341E-11  0.0000000E+00 -0.2345944E-04
  0.3787879E+00  0.0000000E+00  0.5050505E-02  0.4132579E-11  0.0000000E+00 -0.2345943E-04
  0.3888889E+00  0.0000000E+00  0.5050505E-02  0.3738575E-11  0.0000000E+00 -0.2345943E-04
  0.3989899E+00  0.0000000E+00  0.5050505E-02  0.3325527E-11  0.0000000E+00 -0.2345942E-04
  0.4090909E+00  0.0000000E+00  0.5050505E-02  0.2896814E-11  0.0000000E+00 -0.2345941E-04
  0.4191919E+00  0.0000000E+00  0.5050505E-02  0.2456021E-11  0.0000000E+00 -0.2345941E-04
  0.4292929E+00  0.0000000E+00  0.5050505E-02  0.2006972E-11  0.0000000E+00 -0.2345940E-04
  0.4393939E+00  0.0000000E+00  0.5050505E-02  0.1552795E-11  0.0000000E+00 -0.2345940E-04
  0.4494950E+00  0.0000000E+00  0.5050505E-02  0.1095191E-11  0.0000000E+00 -0.2345940E-04
  0.4595959E+00  0.0000000E+00  0.5050505E-02  0.6372260E-12  0.0000000E+00 -0.2345940E-04
  0.4696970E+00  0.0000000E+00  0.5050505E-02  0.1859743E-12  0.0000000E+00 -0.2345939E-04
  0.4797980E+00  0.0000000E+00  0.5050505E-02 -0.3689647E-12  0.0000000E+00 -0.2345939E-04
  0.4898990E+00  0.0000000E+00  0.5050505E-02 -0.8463669E-12  0.0000000E+00 -0.2345940E-04
  0.5000000E+00  0.0000000E+00  0.5050505E-02 -0.1279660E-11  0.0000000E+00 -0.2345940E-04
  0.5101010E+00  0.0000000E+00  0.5050505E-02 -0.1747000E-11  0.0000000E+00 -0.2345940E-04
  0.5202020E+00  0.0000000E+00  0.5050505E-02 -0.2252203E-11  0.0000000E+00 -0.2345941E-04
  0.5303030E+00  0.0000000E+00  0.5050505E-02 -0.2708665E-11  0.0000000E+00 -0.2345941E-04
  0.5404040E+00  0.0000000E+00  0.5050505E-02 -0.3056753E-11  0.0000000E+00 -0.2345942E-04
  0.5505050E+00  0.0000000E+00  0.5050505E-02 -0.3593181E-11  0.0000000E+00 -0.2345942E-04
  0.5606061E+00  0.0000000E+00  0.5050505E-02 -0.4087001E-11  0.0000000E+00 -0.2345943E-04
  0.5707071E+00  0.0000000E+00  0.5050505E-02 -0.4429424E-11  0.0000000E+00 -0.2345944E-04
  0.5808081E+00  0.0000000E+00  0.5050505E-02 -0.4826055E-11  0.0000000E+00 -0.2345945E-04
  0.5909091E+00  0.0000000E+00  0.5050505E-02 -0.5257132E-11  0.0000000E+00 -0.2345946E-04
  0.6010101E+00  0.0000000E+00  0.5050505E-02 -0.5631422E-11  0.0000000E+00 -0.2345947E-04
  0.6111111E+00  0.0000000E+00  0.5050505E-02 -0.5953167E-11  0.0000000E+00 -0.2345948E-04
  0.6212121E+00  0.0000000E+00  0.5050505E-02 -0.6256545E-11  0.0000000E+00 -0.2345949E-04
  0.6313131E+00  0.0000000E+00  0.5050505E-02 -0.6543466E-11  0.0000000E+00 -0.2345951E-04
  0.6414142E+00  0.0000000E+00  0.5050505E-02 -0.6798356E-11  0.0000000E+00 -0.2345952E-04
  0.6515151E+00  0.0000000E+00  0.5050505E-02 -0.7013971E-11  0.0000000E+00 -0.2345953E-04
  0.6616161E+00  0.0000000E+00  0.5050505E-02 -0.7193360E-11  0.0000000E+00 -0.2345955E-04
  0.6717172E+00  0.0000000E+00  0.5050505E-02 -0.7340834E-11  0.0000000E+00 -0.2345956E-04
  0.6818182E+00  0.0000000E+00  0.5050505E-02 -0.7457602E-11  0.0000000E+00 -0.2345958E-04
  0.6919192E+00  0.0000000E+00  0.5050505E-02 -0.7543289E-11  0.0000000E+00 -0.2345959E-04
  0.7020202E+00  0.0000000E+00  0.5050505E-02 -0.7598429E-11  0.0000000E+00 -0.2345961E-04
  0.7121212E+00  0.0000000E+00  0.5050505E-02 -0.7624996E-11  0.0000000E+00 -0.2345962E-04
  0.7222222E+00  0.0000000E+00  0.5050505E-02 -0.7625618E-11  0.0000000E+00 -0.2345964E-04
  0.7323232E+00  0.0000000E+00  0.5050505E-02 -0.7602589E-11  0.0000000E+00 -0.2345965E-04
  0.7424242E+00  0.0000000E+00  0.5050505E-02 -0.7557512E-11  0.0000000E+00 -0.2345967E-04
  0.7525253E+00  0.0000000E+00  0.5050505E-02 -0.7491302E-11  0.0000000E+00 -0.2345968E-04
  0.7626263E+00  0.0000000E+00  0.5050505E-02 -0.7404380E-11  0.0000000E+00 -0.2345970E-04
  0.7727273E+00  0.0000000E+00  0.5050505E-02 -0.7296742E-11  0.0000000E+00 -0.2345971E-04
  0.7828283E+00  0.0000000E+00  0.5050505E-02 -0.7167999E-11  0.0000000E+00 -0.2345973E-04
  0.7929293E+00  0.0000000E+00  0.5050505E-02 -0.7017430E-11  0.0000000E+00 -0.2345974E-04
  0.8030303E+00  0.0000000E+00  0.5050505E-02 -0.6844143E-11  0.0000000E+00 -0.2345976E-04
  0.8131313E+00  0.0000000E+00  0.5050505E-02 -0.6647250E-11  0.0000000E+00 -0.2345977E-04
  0.8232324E+00  0.0000000E+00  0.5050505E-02 -0.6426110E-11  0.0000000E+00 -0.2345978E-04
  0.8333333E+00  0.0000000E+00  0.5050505E-02 -0.6180500E-11  0.0000000E+00 -0.2345979E-04
  0.8434343E+00  0.0000000E+00  0.5050505E-02 -0.5910714E-11  0.0000000E+00 -0.2345981E-04
  0.8535354E+00  0.0000000E+00  0.5050505E-02 -0.5617597E-11  0.0000000E+00 -0.2345982E-04
  0.8636364E+00  0.0000000E+00  0.5050505E-02 -0.5302513E-11  0.0000000E+00 -0.2345983E-04
  0.8737374E+00  0.0000000E+00  0.5050505E-02 -0.4967263E-11  0.0000000E+00 -0.2345984E-04
  0.8838384E+00  0.0000000E+00  0.5050505E-02 -0.4613993E-11  0.0000000E+00 -0.2345985E-04
  0.8939394E+00  0.0000000E+00  0.5050505E-02 -0.4245093E-11  0.0000000E+00 -0.2345986E-04
  0.9040404E+00  0.0000000E+00  0.5050505E-02 -0.3863125E-11  0.0000000E+00 -0.2345987E-04
  0.9141414E+00  0.0000000E+00  0.5050505E-02 -0.3470789E-11  0.0000000E+00 -0.2345987E-04
  0.9242424E+00  0.0000000E+00  0.5050505E-02 -0.3070859E-11  0.0000000E+00 -0.2345988E-04
  0.9343435E+00  0.0000000E+00  0.5050505E-02 -0.2666020E-11  0.0000000E+00 -0.2345989E-04
  0.9444444E+00  0.0000000E+00  0.5050505E-02 -0.2258753E-11  0.0000000E+00 -0.2345989E-04
  0.9545454E+00  0.0000000E+00  0.5050505E-02 -0.1851947E-11  0.0000000E+00 -0.2345990E-04
  0.9646465E+00  0.0000000E+00  0.5050505E-02 -0.1449598E-11  0.0000000E+00 -0.2345990E-04
  0.9747475E+00  0.0000000E+00  0.5050505E-02 -0.1056265E-11  0.0000000E+00 -0.2345990E-04
  0.9848485E+00  0.0000000E+00  0.5050505E-02 -0.6823224E-12  0.0000000E+00 -0.2345990E-04
  0.9974747E+00  0.0000000E+00  0.5050505E-02 -0.3771968E-12  0.0000000E+00 -0.2345990E-04
  0.5050505E-02  0.0000000E+00  0.1515152E-01  0.2979511E-12  0.0000000E+00 -0.2340256E-04
  0.1515152E-01  0.0000000E+00  0.1515152E-01  0.1669128E-11  0.0000000E+00 -0.2340256E-04
  0.2525252E-01  0.0000000E+00  0.1515152E-01  0.3007467E-11  0.0000000E+00 -0.2340256E-04
  0.3535353E-01  0.0000000E+00  0.1515152E-01  0.4288847E-11  0.0000000E+00 -0.2340255E-04
  0.4545455E-01  0.0000000E+00  0.1515152E-01  0.5585305E-11  0.0000000E+00 -0.2340255E-04
  0.5555556E-01  0.0000000E+00  0.1515152E-01  0.6866259E-11  0.0000000E+00 -0.2340255E-04
  0.6565657E-01  0.0000000E+00  0.1515152E-01  0.7816481E-11  0.0000000E+00 -0.2340254E-04
  0.7575758E-01  0.0000000E+00  0.1515152E-01  0.9169649E-11  0.0000000E+00 -0.2340254E-04
  0.8585858E-01  0.0000000E+00  0.1515152E-01  0.1047322E-10  0.0000000E+00 -0.2340253E-04
  0.9595960E-01  0.0000000E+00  0.1515152E-01  0.1140984E-10  0.0000000E+00 -0.2340252E-04
  0.1060606E+00  0.0000000E+00  0.1515152E-01  0.1246398E-10  0.0000000E+00 -0.2340251E-04
  0.1161616E+00  0.0000000E+00  0.1515152E-01  0.1360768E-10  0.0000000E+00 -0.2340251E-04
  0.1262626E+00  0.0000000E+00  0.1515152E-01  0.1461035E-10  0.0000000E+00 -0.2340250E-04
  0.1363636E+00  0.0000000E+00  0.1515152E-01  0.1547972E-10  0.0000000E+00 -0.2340249E-04
  0.1464646E+00  0.0000000E+00  0.1515152E-01  0.1630407E-10  0.0000000E+00 -0.2340247E-04
  0.1565657E+00  0.0000000E+00  0.1515152E-01  0.1708743E-10  0.0000000E+00 -0.2340246E-04
  0.1666667E+00  0.0000000E+00  0.1515152E-01  0.1778804E-10  0.0000000E+00 -0.2340245E-04
  0.1767677E+00  0.0000000E+00  0.1515152E-01  0.1838710E-10  0.0000000E+00 -0.2340244E-04
  0.1868687E+00  0.0000000E+00  0.1515152E-01  0.1889308E-10  0.0000000E+00 -0.2340243E-04
  0.1969697E+00  0.0000000E+00  0.1515152E-01  0.1931683E-10  0.0000000E+00 -0.2340241E-04
  0.2070707E+00  0.0000000E+00  0.1515152E-01  0.1965982E-10  0.0000000E+00 -0.2340240E-04
  0.2171717E+00  0.0000000E+00  0.1515152E-01  0.1991866E-10  0.0000000E+00 -0.2340239E-04
  0.2272727E+00  0.0000000E+00  0.1515152E-01  0.2009181E-10  0.0000000E+00 -0.2340237E-04
  0.2373737E+00  0.0000000E+00  0.1515152E-01  0.2018109E-10  0.0000000E+00 -0.2340236E-04
  0.2474747E+00  0.0000000E+00  0.1515152E-01  0.2018929E-10  0.0000000E+00 -0.2340235E-04
  0.2575758E+00  0.0000000E+00  0.1515152E-01  0.2011779E-10  0.0000000E+00 -0.2340233E-04
  0.2676768E+00  0.0000000E+00  0.1515152E-01  0.1996592E-10  0.0000000E+00 -0.2340232E-04
  0.2777778E+00  0.0000000E+00  0.1515152E-01  0.1973149E-10  0.0000000E+00 -0.2340231E-04
  0.2878788E+00  0.0000000E+00  0.1515152E-01  0.1941170E-10  0.0000000E+00 -0.2340229E-04
  0.2979798E+00  0.0000000E+00  0.1515152E-01  0.1900370E-10  0.0000000E+00 -0.2340228E-04
  0.3080808E+00  0.0000000E+00  0.1515152E-01  0.1850487E-10  0.0000000E+00 -0.2340227E-04
  0.3181818E+00  0.0000000E+00  0.1515152E-01  0.1791309E-10  0.0000000E+00 -0.2340226E-04
  0.3282828E+00  0.0000000E+00  0.1515152E-01  0.1722713E-10  0.0000000E+00 -0.2340224E-04
  0.3383838E+00  0.0000000E+00  0.1515152E-01  0.1644705E-10  0.0000000E+00 -0.2340223E-04
  0.3484848E+00  0.0000000E+00  0.1515152E-01  0.1557460E-10  0.0000000E+00 -0.2340222E-04
  0.3585859E+00  0.0000000E+00  0.1515152E-01  0.1461347E-10  0.0000000E+00 -0.2340221E-04
  0.3686869E+00  0.0000000E+00  0.1515152E-01  0.1356924E-10  0.0000000E+00 -0.2340220E-04
  0.3787879E+00  0.0000000E+00  0.1515152E-01  0.1244928E-10  0.0000000E+00 -0.2340219E-04
  0.3888889E+00  0.0000000E+00  0.1515152E-01  0.1126243E-10  0.0000000E+00 -0.2340218E-04
  0.3989899E+00  0.0000000E+00  0.1515152E-01  0.1001849E-10  0.0000000E+00 -0.2340218E-04
  0.4090909E+00  0.0000000E+00  0.1515152E-01  0.8727381E-11  0.0000000E+00 -0.2340217E-04
  0.4191919E+00  0.0000000E+00  0.1515152E-01  0.7399309E-11  0.0000000E+00 -0.2340217E-04
  0.4292929E+00  0.0000000E+00  0.1515152E-01  0.6046190E-11  0.0000000E+00 -0.2340216E-04
  0.4393939E+00  0.0000000E+00  0.1515152E-01  0.4679302E-11  0.0000000E+00 -0.2340216E-04
  0.4494950E+00  0.0000000E+00  0.1515152E-01  0.3301134E-11  0.0000000E+00 -0.2340215E-04
  0.4595959E+00  0.0000000E+00  0.1515152E-01  0.1914594E-11  0.0000000E+00 -0.2340215E-04
  0.4696970E+00  0.0000000E+00  0.1515152E-01  0.5350368E-12  0.0000000E+00 -0.2340215E-04
  0.4797980E+00  0.0000000E+00  0.1515152E-01 -0.1086501E-11  0.0000000E+00 -0.2340215E-04
  0.4898990E+00  0.0000000E+00  0.1515152E-01 -0.2509327E-11  0.0000000E+00 -0.2340215E-04
  0.5000000E+00  0.0000000E+00  0.1515152E-01 -0.3884406E-11  0.0000000E+00 -0.2340216E-04
  0.5101010E+00  0.0000000E+00  0.1515152E-01 -0.5283595E-11  0.0000000E+00 -0.2340216E-04
  0.5202020E+00  0.0000000E+00  0.1515152E-01 -0.6688505E-11  0.0000000E+00 -0.2340216E-04
  0.5303030E+00  0.0000000E+00  0.1515152E-01 -0.8151741E-11  0.0000000E+00 -0.2340217E-04
  0.5404040E+00  0.0000000E+00  0.1515152E-01 -0.9308141E-11  0.0000000E+00 -0.2340217E-04
  0.5505050E+00  0.0000000E+00  0.1515152E-01 -0.1079314E-10  0.0000000E+00 -0.2340218E-04
  0.5606061E+00  0.0000000E+00  0.1515152E-01 -0.1224452E-10  0.0000000E+00 -0.2340219E-04
  0.5707071E+00  0.0000000E+00  0.1515152E-01 -0.1336503E-10  0.0000000E+00 -0.2340220E-04
  0.5808081E+00  0.0000000E+00  0.1515152E-01 -0.1456822E-10  0.0000000E+00 -0.2340221E-04
  0.5909091E+00  0.0000000E+00  0.1515152E-01 -0.1582518E-10  0.0000000E+00 -0.2340222E-04
  0.6010101E+00  0.0000000E+00  0.1515152E-01 -0.1694349E-10  0.0000000E+00 -0.2340223E-04
  0.6111111E+00  0.0000000E+00  0.1515152E-01 -0.1792812E-10  0.0000000E+00 -0.2340224E-04
  0.6212121E+00  0.0000000E+00  0.1515152E-01 -0.1884926E-10  0.0000000E+00 -0.2340225E-04
  0.6313131E+00  0.0000000E+00  0.1515152E-01 -0.1970848E-10  0.0000000E+00 -0.2340226E-04
  0.6414142E+00  0.0000000E+00  0.1515152E-01 -0.2047033E-10  0.0000000E+00 -0.2340228E-04
  0.6515151E+00  0.0000000E+00  0.1515152E-01 -0.2111869E-10  0.0000000E+00 -0.2340229E-04
  0.6616161E+00  0.0000000E+00  0.1515152E-01 -0.2166047E-10  0.0000000E+00 -0.2340231E-04
  0.6717172E+00  0.0000000E+00  0.1515152E-01 -0.2210541E-10  0.0000000E+00 -0.2340232E-04
  0.6818182E+00  0.0000000E+00  0.1515152E-01 -0.2245643E-10  0.0000000E+00 -0.2340234E-04
  0.6919192E+00  0.0000000E+00  0.1515152E-01 -0.2271348E-10  0.0000000E+00 -0.2340235E-04
  0.7020202E+00  0.0000000E+00  0.1515152E-01 -0.2287903E-10  0.0000000E+00 -0.2340237E-04
  0.7121212E+00  0.0000000E+00  0.1515152E-01 -0.2295922E-10  0.0000000E+00 -0.2340238E-04
  0.7222222E+00  0.0000000E+00  0.1515152E-01 -0.2296160E-10  0.0000000E+00 -0.2340240E-04
  0.7323232E+00  0.0000000E+00  0.1515152E-01 -0.2289278E-10  0.0000000E+00 -0.2340241E-04
  0.7424242E+00  0.0000000E+00  0.1515152E-01 -0.2275742E-10  0.0000000E+00 -0.2340243E-04
  0.7525253E+00  0.0000000E+00  0.1515152E-01 -0.2255833E-10  0.0000000E+00 -0.2340244E-04
  0.7626263E+00  0.0000000E+00  0.1515152E-01 -0.2229677E-10  0.0000000E+00 -0.2340246E-04
  0.7727273E+00  0.0000000E+00  0.1515152E-01 -0.2197272E-10  0.0000000E+00 -0.2340247E-04
  0.7828283E+00  0.0000000E+00  0.1515152E-01 -0.2158495E-10  0.0000000E+00 -0.2340249E-04
  0.7929293E+00  0.0000000E+00  0.1515152E-01 -0.2113125E-10  0.0000000E+00 -0.2340250E-04
  0.8030303E+00  0.0000000E+00  0.1515152E-01 -0.2060891E-10  0.0000000E+00 -0.2340252E-04
  0.8131313E+00  0.0000000E+00  0.1515152E-01 -0.2001532E-10  0.0000000E+00 -0.2340253E-04
  0.8232324E+00  0.0000000E+00  0.1515152E-01 -0.1934862E-10  0.0000000E+00 -0.2340254E-04
  0.8333333E+00  0.0000000E+00  0.1515152E-01 -0.1860823E-10  0.0000000E+00 -0.2340256E-04
  0.8434343E+00  0.0000000E+00  0.1515152E-01 -0.1779510E-10  0.0000000E+00 -0.2340257E-04
  0.8535354E+00  0.0000000E+00  0.1515152E-01 -0.1691185E-10  0.0000000E+00 -0.2340258E-04
  0.8636364E+00  0.0000000E+00  0.1515152E-01 -0.1596259E-10  0.0000000E+00 -0.2340259E-04
  0.8737374E+00  0.0000000E+00  0.1515152E-01 -0.1495279E-10  0.0000000E+00 -0.2340260E-04
  0.8838384E+00  0.0000000E+00  0.1515152E-01 -0.1388889E-10  0.0000000E+00 -0.2340261E-04
  0.8939394E+00  0.0000000E+00  0.1515152E-01 -0.1277809E-10  0.0000000E+00 -0.2340262E-04
  0.9040404E+00  0.0000000E+00  0.1515152E-01 -0.1162800E-10  0.0000000E+00 -0.2340263E-04
  0.9141414E+00  0.0000000E+00  0.1515152E-01 -0.1044659E-10  0.0000000E+00 -0.2340264E-04
  0.9242424E+00  0.0000000E+00  0.1515152E-01 -0.9242118E-11  0.0000000E+00 -0.2340264E-04
  0.9343435E+00  0.0000000E+00  0.1515152E-01 -0.8022780E-11  0.0000000E+00 -0.2340265E-04
  0.9444444E+00  0.0000000E+00  0.1515152E-01 -0.6796004E-11  0.0000000E+00 -0.2340266E-04
  0.9545454E+00  0.0000000E+00  0.1515152E-01 -0.5569766E-11  0.0000000E+00 -0.2340266E-04
  0.9646465E+00  0.0000000E+00  0.1515152E-01 -0.4354447E-11  0.0000000E+00 -0.2340266E-04
  0.9747475E+00  0.0000000E+00  0.1515152E-01 -0.3157625E-11  0.0000000E+00 -0.2340267E-04
  0.9848485E+00  0.0000000E+00  0.1515152E-01 -0.1994540E-11  0.0000000E+00 -0.2340267E-04
  0.9974747E+00  0.0000000E+00  0.1515152E-01 -0.9617819E-12  0.0000000E+00 -0.2340267E-04
  0.5050505E-02  0.0000000E+00  0.2525252E-01  0.8493124E-12  0.0000000E+00 -0.2328851E-04
  0.1515152E-01  0.0000000E+00  0.2525252E-01  0.2787766E-11  0.0000000E+00 -0.2328851E-04
  0.2525252E-01  0.0000000E+00  0.2525252E-01  0.5097703E-11  0.0000000E+00 -0.2328851E-04
  0.3535353E-01  0.0000000E+00  0.2525252E-01  0.7275863E-11  0.0000000E+00 -0.2328850E-04
  0.4545455E-01  0.0000000E+00  0.2525252E-01  0.9297968E-11  0.0000000E+00 -0.2328850E-04
  0.5555556E-01  0.0000000E+00  0.2525252E-01  0.1150093E-10  0.0000000E+00 -0.2328849E-04
  0.6565657E-01  0.0000000E+00  0.2525252E-01  0.1328181E-10  0.0000000E+00 -0.2328849E-04
  0.7575758E-01  0.0000000E+00  0.2525252E-01  0.1538576E-10  0.0000000E+00 -0.2328848E-04
  0.8585858E-01  0.0000000E+00  0.2525252E-01  0.1750555E-10  0.0000000E+00 -0.2328848E-04
  0.9595960E-01  0.0000000E+00  0.2525252E-01  0.1921722E-10  0.0000000E+00 -0.2328847E-04
  0.1060606E+00  0.0000000E+00  0.2525252E-01  0.2100301E-10  0.0000000E+00 -0.2328846E-04
  0.1161616E+00  0.0000000E+00  0.2525252E-01  0.2285430E-10  0.0000000E+00 -0.2328845E-04
  0.1262626E+00  0.0000000E+00  0.2525252E-01  0.2452535E-10  0.0000000E+00 -0.2328844E-04
  0.1363636E+00  0.0000000E+00  0.2525252E-01  0.2601525E-10  0.0000000E+00 -0.2328843E-04
  0.1464646E+00  0.0000000E+00  0.2525252E-01  0.2741337E-10  0.0000000E+00 -0.2328842E-04
  0.1565657E+00  0.0000000E+00  0.2525252E-01  0.2872031E-10  0.0000000E+00 -0.2328841E-04
  0.1666667E+00  0.0000000E+00  0.2525252E-01  0.2988794E-10  0.0000000E+00 -0.2328840E-04
  0.1767677E+00  0.0000000E+00  0.2525252E-01  0.3089470E-10  0.0000000E+00 -0.2328838E-04
  0.1868687E+00  0.0000000E+00  0.2525252E-01  0.3174991E-10  0.0000000E+00 -0.2328837E-04
  0.1969697E+00  0.0000000E+00  0.2525252E-01  0.3246538E-10  0.0000000E+00 -0.2328836E-04
  0.2070707E+00  0.0000000E+00  0.2525252E-01  0.3304249E-10  0.0000000E+00 -0.2328834E-04
  0.2171717E+00  0.0000000E+00  0.2525252E-01  0.3347769E-10  0.0000000E+00 -0.2328833E-04
  0.2272727E+00  0.0000000E+00  0.2525252E-01  0.3377011E-10  0.0000000E+00 -0.2328832E-04
  0.2373737E+00  0.0000000E+00  0.2525252E-01  0.3392282E-10  0.0000000E+00 -0.2328830E-04
  0.2474747E+00  0.0000000E+00  0.2525252E-01  0.3393965E-10  0.0000000E+00 -0.2328829E-04
  0.2575758E+00  0.0000000E+00  0.2525252E-01  0.3382220E-10  0.0000000E+00 -0.2328827E-04
  0.2676768E+00  0.0000000E+00  0.2525252E-01  0.3356906E-10  0.0000000E+00 -0.2328826E-04
  0.2777778E+00  0.0000000E+00  0.2525252E-01  0.3317661E-10  0.0000000E+00 -0.2328825E-04
  0.2878788E+00  0.0000000E+00  0.2525252E-01  0.3264026E-10  0.0000000E+00 -0.2328823E-04
  0.2979798E+00  0.0000000E+00  0.2525252E-01  0.3195522E-10  0.0000000E+00 -0.2328822E-04
  0.3080808E+00  0.0000000E+00  0.2525252E-01  0.3111708E-10  0.0000000E+00 -0.2328821E-04
  0.3181818E+00  0.0000000E+00  0.2525252E-01  0.3012226E-10  0.0000000E+00 -0.2328819E-04
  0.3282828E+00  0.0000000E+00  0.2525252E-01  0.2896877E-10  0.0000000E+00 -0.2328818E-04
  0.3383838E+00  0.0000000E+00  0.2525252E-01  0.2765684E-10  0.0000000E+00 -0.2328817E-04
  0.3484848E+00  0.0000000E+00  0.2525252E-01  0.2618964E-10  0.0000000E+00 -0.2328816E-04
  0.3585859E+00  0.0000000E+00  0.2525252E-01  0.2457353E-10  0.0000000E+00 -0.2328815E-04
  0.3686869E+00  0.0000000E+00  0.2525252E-01  0.2281794E-10  0.0000000E+00 -0.2328814E-04
  0.3787879E+00  0.0000000E+00  0.2525252E-01  0.2093515E-10  0.0000000E+00 -0.2328813E-04
  0.3888889E+00  0.0000000E+00  0.2525252E-01  0.1893999E-10  0.0000000E+00 -0.2328812E-04
  0.3989899E+00  0.0000000E+00  0.2525252E-01  0.1684920E-10  0.0000000E+00 -0.2328811E-04
  0.4090909E+00  0.0000000E+00  0.2525252E-01  0.1467950E-10  0.0000000E+00 -0.2328811E-04
  0.4191919E+00  0.0000000E+00  0.2525252E-01  0.1244645E-10  0.0000000E+00 -0.2328810E-04
  0.4292929E+00  0.0000000E+00  0.2525252E-01  0.1016902E-10  0.0000000E+00 -0.2328810E-04
  0.4393939E+00  0.0000000E+00  0.2525252E-01  0.7870045E-11  0.0000000E+00 -0.2328809E-04
  0.4494950E+00  0.0000000E+00  0.2525252E-01  0.5550000E-11  0.0000000E+00 -0.2328809E-04
  0.4595959E+00  0.0000000E+00  0.2525252E-01  0.3217663E-11  0.0000000E+00 -0.2328809E-04
  0.4696970E+00  0.0000000E+00  0.2525252E-01  0.8690949E-12  0.0000000E+00 -0.2328809E-04
  0.4797980E+00  0.0000000E+00  0.2525252E-01 -0.1809528E-11  0.0000000E+00 -0.2328809E-04
  0.4898990E+00  0.0000000E+00  0.2525252E-01 -0.4154787E-11  0.0000000E+00 -0.2328809E-04
  0.5000000E+00  0.0000000E+00  0.2525252E-01 -0.6485251E-11  0.0000000E+00 -0.2328809E-04
  0.5101010E+00  0.0000000E+00  0.2525252E-01 -0.8914441E-11  0.0000000E+00 -0.2328809E-04
  0.5202020E+00  0.0000000E+00  0.2525252E-01 -0.1116922E-10  0.0000000E+00 -0.2328810E-04
  0.5303030E+00  0.0000000E+00  0.2525252E-01 -0.1365432E-10  0.0000000E+00 -0.2328810E-04
  0.5404040E+00  0.0000000E+00  0.2525252E-01 -0.1576189E-10  0.0000000E+00 -0.2328811E-04
  0.5505050E+00  0.0000000E+00  0.2525252E-01 -0.1811906E-10  0.0000000E+00 -0.2328812E-04
  0.5606061E+00  0.0000000E+00  0.2525252E-01 -0.2049464E-10  0.0000000E+00 -0.2328813E-04
  0.5707071E+00  0.0000000E+00  0.2525252E-01 -0.2249417E-10  0.0000000E+00 -0.2328813E-04
  0.5808081E+00  0.0000000E+00  0.2525252E-01 -0.2452905E-10  0.0000000E+00 -0.2328814E-04
  0.5909091E+00  0.0000000E+00  0.2525252E-01 -0.2658327E-10  0.0000000E+00 -0.2328815E-04
  0.6010101E+00  0.0000000E+00  0.2525252E-01 -0.2845056E-10  0.0000000E+00 -0.2328817E-04
  0.6111111E+00  0.0000000E+00  0.2525252E-01 -0.3012807E-10  0.0000000E+00 -0.2328818E-04
  0.6212121E+00  0.0000000E+00  0.2525252E-01 -0.3168556E-10  0.0000000E+00 -0.2328819E-04
  0.6313131E+00  0.0000000E+00  0.2525252E-01 -0.3312042E-10  0.0000000E+00 -0.2328820E-04
  0.6414142E+00  0.0000000E+00  0.2525252E-01 -0.3439122E-10  0.0000000E+00 -0.2328822E-04
  0.6515151E+00  0.0000000E+00  0.2525252E-01 -0.3547917E-10  0.0000000E+00 -0.2328823E-04
  0.6616161E+00  0.0000000E+00  0.2525252E-01 -0.3639187E-10  0.0000000E+00 -0.2328825E-04
  0.6717172E+00  0.0000000E+00  0.2525252E-01 -0.3714041E-10  0.0000000E+00 -0.2328826E-04
  0.6818182E+00  0.0000000E+00  0.2525252E-01 -0.3772890E-10  0.0000000E+00 -0.2328828E-04
  0.6919192E+00  0.0000000E+00  0.2525252E-01 -0.3815907E-10  0.0000000E+00 -0.2328829E-04
  0.7020202E+00  0.0000000E+00  0.2525252E-01 -0.3843664E-10  0.0000000E+00 -0.2328831E-04
  0.7121212E+00  0.0000000E+00  0.2525252E-01 -0.3857200E-10  0.0000000E+00 -0.2328833E-04
  0.7222222E+00  0.0000000E+00  0.2525252E-01 -0.3857717E-10  0.0000000E+00 -0.2328834E-04
  0.7323232E+00  0.0000000E+00  0.2525252E-01 -0.3846261E-10  0.0000000E+00 -0.2328836E-04
  0.7424242E+00  0.0000000E+00  0.2525252E-01 -0.3823591E-10  0.0000000E+00 -0.2328837E-04
  0.7525253E+00  0.0000000E+00  0.2525252E-01 -0.3790177E-10  0.0000000E+00 -0.2328839E-04
  0.7626263E+00  0.0000000E+00  0.2525252E-01 -0.3746236E-10  0.0000000E+00 -0.2328840E-04
  0.7727273E+00  0.0000000E+00  0.2525252E-01 -0.3691754E-10  0.0000000E+00 -0.2328842E-04
  0.7828283E+00  0.0000000E+00  0.2525252E-01 -0.3626516E-10  0.0000000E+00 -0.2328843E-04
  0.7929293E+00  0.0000000E+00  0.2525252E-01 -0.3550147E-10  0.0000000E+00 -0.2328845E-04
  0.8030303E+00  0.0000000E+00  0.2525252E-01 -0.3462194E-10  0.0000000E+00 -0.2328846E-04
  0.8131313E+00  0.0000000E+00  0.2525252E-01 -0.3362236E-10  0.0000000E+00 -0.2328848E-04
  0.8232324E+00  0.0000000E+00  0.2525252E-01 -0.3249985E-10  0.0000000E+00 -0.2328849E-04
  0.8333333E+00  0.0000000E+00  0.2525252E-01 -0.3125365E-10  0.0000000E+00 -0.2328851E-04
  0.8434343E+00  0.0000000E+00  0.2525252E-01 -0.2988555E-10  0.0000000E+00 -0.2328852E-04
  0.8535354E+00  0.0000000E+00  0.2525252E-01 -0.2840007E-10  0.0000000E+00 -0.2328853E-04
  0.8636364E+00  0.0000000E+00  0.2525252E-01 -0.2680419E-10  0.0000000E+00 -0.2328854E-04
  0.8737374E+00  0.0000000E+00  0.2525252E-01 -0.2510706E-10  0.0000000E+00 -0.2328855E-04
  0.8838384E+00  0.0000000E+00  0.2525252E-01 -0.2331953E-10  0.0000000E+00 -0.2328856E-04
  0.8939394E+00  0.0000000E+00  0.2525252E-01 -0.2145368E-10  0.0000000E+00 -0.2328857E-04
  0.9040404E+00  0.0000000E+00  0.2525252E-01 -0.1952223E-10  0.0000000E+00 -0.2328858E-04
  0.9141414E+00  0.0000000E+00  0.2525252E-01 -0.1753812E-10  0.0000000E+00 -0.2328859E-04
  0.9242424E+00  0.0000000E+00  0.2525252E-01 -0.1551435E-10  0.0000000E+00 -0.2328859E-04
  0.9343435E+00  0.0000000E+00  0.2525252E-01 -0.1346425E-10  0.0000000E+00 -0.2328860E-04
  0.9444444E+00  0.0000000E+00  0.2525252E-01 -0.1140086E-10  0.0000000E+00 -0.2328861E-04
  0.9545454E+00  0.0000000E+00  0.2525252E-01 -0.9336542E-11  0.0000000E+00 -0.2328861E-04
  0.9646465E+00  0.0000000E+00  0.2525252E-01 -0.7282594E-11  0.0000000E+00 -0.2328861E-04
  0.9747475E+00  0.0000000E+00  0.2525252E-01 -0.5237314E-11  0.0000000E+00 -0.2328862E-04
  0.9848485E+00  0.0000000E+00  0.2525252E-01 -0.3241737E-11  0.0000000E+00 -0.2328862E-04
  0.9974747E+00  0.0000000E+00  0.2525252E-01 -0.1335705E-11  0.0000000E+00 -0.2328862E-04
  0.5050505E-02  0.0000000E+00  0.3535353E-01  0.1295973E-11  0.0000000E+00 -0.2311831E-04
  0.1515152E-01  0.0000000E+00  0.3535353E-01  0.4121664E-11  0.0000000E+00 -0.2311831E-04
  0.2525252E-01  0.0000000E+00  0.3535353E-01  0.7196138E-11  0.0000000E+00 -0.2311830E-04
  0.3535353E-01  0.0000000E+00  0.3535353E-01  0.1036694E-10  0.0000000E+00 -0.2311830E-04
  0.4545455E-01  0.0000000E+00  0.3535353E-01  0.1323262E-10  0.0000000E+00 -0.2311830E-04
  0.5555556E-01  0.0000000E+00  0.3535353E-01  0.1626057E-10  0.0000000E+00 -0.2311829E-04
  0.6565657E-01  0.0000000E+00  0.3535353E-01  0.1890146E-10  0.0000000E+00 -0.2311829E-04
  0.7575758E-01  0.0000000E+00  0.3535353E-01  0.2183765E-10  0.0000000E+00 -0.2311828E-04
  0.8585858E-01  0.0000000E+00  0.3535353E-01  0.2478022E-10  0.0000000E+00 -0.2311827E-04
  0.9595960E-01  0.0000000E+00  0.3535353E-01  0.2728055E-10  0.0000000E+00 -0.2311827E-04
  0.1060606E+00  0.0000000E+00  0.3535353E-01  0.2982364E-10  0.0000000E+00 -0.2311826E-04
  0.1161616E+00  0.0000000E+00  0.3535353E-01  0.3240470E-10  0.0000000E+00 -0.2311825E-04
  0.1262626E+00  0.0000000E+00  0.3535353E-01  0.3476636E-10  0.0000000E+00 -0.2311824E-04
  0.1363636E+00  0.0000000E+00  0.3535353E-01  0.3689865E-10  0.0000000E+00 -0.2311823E-04
  0.1464646E+00  0.0000000E+00  0.3535353E-01  0.3888839E-10  0.0000000E+00 -0.2311822E-04
  0.1565657E+00  0.0000000E+00  0.3535353E-01  0.4073383E-10  0.0000000E+00 -0.2311820E-04
  0.1666667E+00  0.0000000E+00  0.3535353E-01  0.4238341E-10  0.0000000E+00 -0.2311819E-04
  0.1767677E+00  0.0000000E+00  0.3535353E-01  0.4381319E-10  0.0000000E+00 -0.2311818E-04
  0.1868687E+00  0.0000000E+00  0.3535353E-01  0.4503166E-10  0.0000000E+00 -0.2311816E-04
  0.1969697E+00  0.0000000E+00  0.3535353E-01  0.4605057E-10  0.0000000E+00 -0.2311815E-04
  0.2070707E+00  0.0000000E+00  0.3535353E-01  0.4687147E-10  0.0000000E+00 -0.2311814E-04
  0.2171717E+00  0.0000000E+00  0.3535353E-01  0.4749129E-10  0.0000000E+00 -0.2311812E-04
  0.2272727E+00  0.0000000E+00  0.3535353E-01  0.4791004E-10  0.0000000E+00 -0.2311811E-04
  0.2373737E+00  0.0000000E+00  0.3535353E-01  0.4813175E-10  0.0000000E+00 -0.2311809E-04
  0.2474747E+00  0.0000000E+00  0.3535353E-01  0.4816084E-10  0.0000000E+00 -0.2311808E-04
  0.2575758E+00  0.0000000E+00  0.3535353E-01  0.4799878E-10  0.0000000E+00 -0.2311806E-04
  0.2676768E+00  0.0000000E+00  0.3535353E-01  0.4764329E-10  0.0000000E+00 -0.2311805E-04
  0.2777778E+00  0.0000000E+00  0.3535353E-01  0.4708930E-10  0.0000000E+00 -0.2311804E-04
  0.2878788E+00  0.0000000E+00  0.3535353E-01  0.4633038E-10  0.0000000E+00 -0.2311802E-04
  0.2979798E+00  0.0000000E+00  0.3535353E-01  0.4535979E-10  0.0000000E+00 -0.2311801E-04