title = "dataset water"
variables = "x", "y", "z", "vx", "vy", "vz"
zone t = "velocities, solution time =  4.600E+01 days        " i =   99, j =   99, k =    1,  f=point
  0.5050505E-02  0.0000000E+00  0.5050505E-02  0.5438231E-08  0.0000000E+00  0.9495866E-05
  0.1515152E-01  0.0000000E+00  0.5050505E-02  0.1627995E-07  0.0000000E+00  0.9517673E-05
  0.2525252E-01  0.0000000E+00  0.5050505E-02  0.2701708E-07  0.0000000E+00  0.9561147E-05
  0.3535353E-01  0.0000000E+00  0.5050505E-02  0.3757865E-07  0.0000000E+00  0.9626008E-05
  0.4545455E-01  0.0000000E+00  0.5050505E-02  0.4789188E-07  0.0000000E+00  0.9711829E-05
  0.5555556E-01  0.0000000E+00  0.5050505E-02  0.5788165E-07  0.0000000E+00  0.9818038E-05
  0.6565657E-01  0.0000000E+00  0.5050505E-02  0.6747019E-07  0.0000000E+00  0.9943907E-05
  0.7575758E-01  0.0000000E+00  0.5050505E-02  0.7657698E-07  0.0000000E+00  0.1008855E-04
  0.8585858E-01  0.0000000E+00  0.5050505E-02  0.8511914E-07  0.0000000E+00  0.1025092E-04
  0.9595960E-01  0.0000000E+00  0.5050505E-02  0.9301206E-07  0.0000000E+00  0.1042980E-04
  0.1060606E+00  0.0000000E+00  0.5050505E-02  0.1001707E-06  0.0000000E+00  0.1062379E-04
  0.1161616E+00  0.0000000E+00  0.5050505E-02  0.1065115E-06  0.0000000E+00  0.1083135E-04
  0.1262626E+00  0.0000000E+00  0.5050505E-02  0.1119542E-06  0.0000000E+00  0.1105074E-04
  0.1363636E+00  0.0000000E+00  0.5050505E-02  0.1164253E-06  0.0000000E+00  0.1128010E-04
  0.1464646E+00  0.0000000E+00  0.5050505E-02  0.1198610E-06  0.0000000E+00  0.1151740E-04
  0.1565657E+00  0.0000000E+00  0.5050505E-02  0.1222104E-06  0.0000000E+00  0.1176052E-04
  0.1666667E+00  0.0000000E+00  0.5050505E-02  0.1234389E-06  0.0000000E+00  0.1200724E-04
  0.1767677E+00  0.0000000E+00  0.5050505E-02  0.1235314E-06  0.0000000E+00  0.1225530E-04
  0.1868687E+00  0.0000000E+00  0.5050505E-02  0.1224937E-06  0.0000000E+00  0.1250241E-04
  0.1969697E+00  0.0000000E+00  0.5050505E-02  0.1203539E-06  0.0000000E+00  0.1274634E-04
  0.2070707E+00  0.0000000E+00  0.5050505E-02  0.1171617E-06  0.0000000E+00  0.1298493E-04
  0.2171717E+00  0.0000000E+00  0.5050505E-02  0.1129868E-06  0.0000000E+00  0.1321611E-04
  0.2272727E+00  0.0000000E+00  0.5050505E-02  0.1079157E-06  0.0000000E+00  0.1343802E-04
  0.2373737E+00  0.0000000E+00  0.5050505E-02  0.1020478E-06  0.0000000E+00  0.1364894E-04
  0.2474747E+00  0.0000000E+00  0.5050505E-02  0.9549140E-07  0.0000000E+00  0.1384739E-04
  0.2575758E+00  0.0000000E+00  0.5050505E-02  0.8835886E-07  0.0000000E+00  0.1403209E-04
  0.2676768E+00  0.0000000E+00  0.5050505E-02  0.8076308E-07  0.0000000E+00  0.1420200E-04
  0.2777778E+00  0.0000000E+00  0.5050505E-02  0.7281406E-07  0.0000000E+00  0.1435629E-04
  0.2878788E+00  0.0000000E+00  0.5050505E-02  0.6461644E-07  0.0000000E+00  0.1449437E-04
  0.2979798E+00  0.0000000E+00  0.5050505E-02  0.5626763E-07  0.0000000E+00  0.1461582E-04
  0.3080808E+00  0.0000000E+00  0.5050505E-02  0.4785661E-07  0.0000000E+00  0.1472043E-04
  0.3181818E+00  0.0000000E+00  0.5050505E-02  0.3946322E-07  0.0000000E+00  0.1480817E-04
  0.3282828E+00  0.0000000E+00  0.5050505E-02  0.3115773E-07  0.0000000E+00  0.1487912E-04
  0.3383838E+00  0.0000000E+00  0.5050505E-02  0.2300067E-07  0.0000000E+00  0.1493354E-04
  0.3484848E+00  0.0000000E+00  0.5050505E-02  0.1504281E-07  0.0000000E+00  0.1497176E-04
  0.3585859E+00  0.0000000E+00  0.5050505E-02  0.7325241E-08  0.0000000E+00  0.1499424E-04
  0.3686869E+00  0.0000000E+00  0.5050505E-02 -0.1203985E-09  0.0000000E+00  0.1500148E-04
  0.3787879E+00  0.0000000E+00  0.5050505E-02 -0.7271633E-08  0.0000000E+00  0.1499405E-04
  0.3888889E+00  0.0000000E+00  0.5050505E-02 -0.1411476E-07  0.0000000E+00  0.1497256E-04
  0.3989899E+00  0.0000000E+00  0.5050505E-02 -0.2064436E-07  0.0000000E+00  0.1493764E-04
  0.4090909E+00  0.0000000E+00  0.5050505E-02 -0.2686266E-07  0.0000000E+00  0.1488990E-04
  0.4191919E+00  0.0000000E+00  0.5050505E-02 -0.3277889E-07  0.0000000E+00  0.1482998E-04
  0.4292929E+00  0.0000000E+00  0.5050505E-02 -0.3840841E-07  0.0000000E+00  0.1475845E-04
  0.4393939E+00  0.0000000E+00  0.5050505E-02 -0.4377194E-07  0.0000000E+00  0.1467589E-04
  0.4494950E+00  0.0000000E+00  0.5050505E-02 -0.4889455E-07  0.0000000E+00  0.1458278E-04
  0.4595959E+00  0.0000000E+00  0.5050505E-02 -0.5380464E-07  0.0000000E+00  0.1447960E-04
  0.4696970E+00  0.0000000E+00  0.5050505E-02 -0.5853284E-07  0.0000000E+00  0.1436674E-04
  0.4797980E+00  0.0000000E+00  0.5050505E-02 -0.6311083E-07  0.0000000E+00  0.1424453E-04
  0.4898990E+00  0.0000000E+00  0.5050505E-02 -0.6757003E-07  0.0000000E+00  0.1411324E-04
  0.5000000E+00  0.0000000E+00  0.5050505E-02 -0.7194031E-07  0.0000000E+00  0.1397308E-04
  0.5101010E+00  0.0000000E+00  0.5050505E-02 -0.7624857E-07  0.0000000E+00  0.1382421E-04
  0.5202020E+00  0.0000000E+00  0.5050505E-02 -0.8051743E-07  0.0000000E+00  0.1366672E-04
  0.5303030E+00  0.0000000E+00  0.5050505E-02 -0.8476391E-07  0.0000000E+00  0.1350068E-04
  0.5404040E+00  0.0000000E+00  0.5050505E-02 -0.8899824E-07  0.0000000E+00  0.1332613E-04
  0.5505050E+00  0.0000000E+00  0.5050505E-02 -0.9322299E-07  0.0000000E+00  0.1314308E-04
  0.5606061E+00  0.0000000E+00  0.5050505E-02 -0.9743239E-07  0.0000000E+00  0.1295156E-04
  0.5707071E+00  0.0000000E+00  0.5050505E-02 -0.1016122E-06  0.0000000E+00  0.1275162E-04
  0.5808081E+00  0.0000000E+00  0.5050505E-02 -0.1057398E-06  0.0000000E+00  0.1254335E-04
  0.5909091E+00  0.0000000E+00  0.5050505E-02 -0.1097850E-06  0.0000000E+00  0.1232687E-04
  0.6010101E+00  0.0000000E+00  0.5050505E-02 -0.1137112E-06  0.0000000E+00  0.1210239E-04
  0.6111111E+00  0.0000000E+00  0.5050505E-02 -0.1174769E-06  0.0000000E+00  0.1187019E-04
  0.6212121E+00  0.0000000E+00  0.5050505E-02 -0.1210375E-06  0.0000000E+00  0.1163063E-04
  0.6313131E+00  0.0000000E+00  0.5050505E-02 -0.1243471E-06  0.0000000E+00  0.1138419E-04
  0.6414142E+00  0.0000000E+00  0.5050505E-02 -0.1273608E-06  0.0000000E+00  0.1113140E-04
  0.6515151E+00  0.0000000E+00  0.5050505E-02 -0.1300362E-06  0.0000000E+00  0.1087291E-04
  0.6616161E+00  0.0000000E+00  0.5050505E-02 -0.1323349E-06  0.0000000E+00  0.1060943E-04
  0.6717172E+00  0.0000000E+00  0.5050505E-02 -0.1342239E-06  0.0000000E+00  0.1034175E-04
  0.6818182E+00  0.0000000E+00  0.5050505E-02 -0.1356762E-06  0.0000000E+00  0.1007073E-04
  0.6919192E+00  0.0000000E+00  0.5050505E-02 -0.1366716E-06  0.0000000E+00  0.9797260E-05
  0.7020202E+00  0.0000000E+00  0.5050505E-02 -0.1371963E-06  0.0000000E+00  0.9522271E-05
  0.7121212E+00  0.0000000E+00  0.5050505E-02 -0.1372428E-06  0.0000000E+00  0.9246719E-05
  0.7222222E+00  0.0000000E+00  0.5050505E-02 -0.1368097E-06  0.0000000E+00  0.8971564E-05
  0.7323232E+00  0.0000000E+00  0.5050505E-02 -0.1359011E-06  0.0000000E+00  0.8697765E-05
  0.7424242E+00  0.0000000E+00  0.5050505E-02 -0.1345255E-06  0.0000000E+00  0.8426269E-05
  0.7525253E+00  0.0000000E+00  0.5050505E-02 -0.1326954E-06  0.0000000E+00  0.8157999E-05
  0.7626263E+00  0.0000000E+00  0.5050505E-02 -0.1304265E-06  0.0000000E+00  0.7893854E-05
  0.7727273E+00  0.0000000E+00  0.5050505E-02 -0.1277368E-06  0.0000000E+00  0.7634694E-05
  0.7828283E+00  0.0000000E+00  0.5050505E-02 -0.1246461E-06  0.0000000E+00  0.7381345E-05
  0.7929293E+00  0.0000000E+00  0.5050505E-02 -0.1211758E-06  0.0000000E+00  0.7134590E-05
  0.8030303E+00  0.0000000E+00  0.5050505E-02 -0.1173475E-06  0.0000000E+00  0.6895168E-05
  0.8131313E+00  0.0000000E+00  0.5050505E-02 -0.1131834E-06  0.0000000E+00  0.6663775E-05
  0.8232324E+00  0.0000000E+00  0.5050505E-02 -0.1087058E-06  0.0000000E+00  0.6441062E-05
  0.8333333E+00  0.0000000E+00  0.5050505E-02 -0.1039365E-06  0.0000000E+00  0.6227636E-05
  0.8434343E+00  0.0000000E+00  0.5050505E-02 -0.9889697E-07  0.0000000E+00  0.6024060E-05
  0.8535354E+00  0.0000000E+00  0.5050505E-02 -0.9360812E-07  0.0000000E+00  0.5830855E-05
  0.8636364E+00  0.0000000E+00  0.5050505E-02 -0.8809013E-07  0.0000000E+00  0.5648500E-05
  0.8737374E+00  0.0000000E+00  0.5050505E-02 -0.8236247E-07  0.0000000E+00  0.5477434E-05
  0.8838384E+00  0.0000000E+00  0.5050505E-02 -0.7644390E-07  0.0000000E+00  0.5318060E-05
  0.8939394E+00  0.0000000E+00  0.5050505E-02 -0.7035245E-07  0.0000000E+00  0.5170742E-05
  0.9040404E+00  0.0000000E+00  0.5050505E-02 -0.6410548E-07  0.0000000E+00  0.5035808E-05
  0.9141414E+00  0.0000000E+00  0.5050505E-02 -0.5771969E-07  0.0000000E+00  0.4913554E-05
  0.9242424E+00  0.0000000E+00  0.5050505E-02 -0.5121121E-07  0.0000000E+00  0.4804240E-05
  0.9343435E+00  0.0000000E+00  0.5050505E-02 -0.4459565E-07  0.0000000E+00  0.4708098E-05
  0.9444444E+00  0.0000000E+00  0.5050505E-02 -0.3788817E-07  0.0000000E+00  0.4625327E-05
  0.9545454E+00  0.0000000E+00  0.5050505E-02 -0.3110355E-07  0.0000000E+00  0.4556095E-05
  0.9646465E+00  0.0000000E+00  0.5050505E-02 -0.2425622E-07  0.0000000E+00  0.4500543E-05
  0.9747475E+00  0.0000000E+00  0.5050505E-02 -0.1736037E-07  0.0000000E+00  0.4458782E-05
  0.9848485E+00  0.0000000E+00  0.5050505E-02 -0.1043000E-07  0.0000000E+00  0.4430895E-05
  0.9974747E+00  0.0000000E+00  0.5050505E-02 -0.3478961E-08  0.0000000E+00  0.4416938E-05
  0.5050505E-02  0.0000000E+00  0.1515152E-01  0.1636391E-07  0.0000000E+00  0.9548253E-05
  0.1515152E-01  0.0000000E+00  0.1515152E-01  0.4898782E-07  0.0000000E+00  0.9570322E-05
  0.2525252E-01  0.0000000E+00  0.1515152E-01  0.8129883E-07  0.0000000E+00  0.9614319E-05
  0.3535353E-01  0.0000000E+00  0.1515152E-01  0.1130845E-06  0.0000000E+00  0.9679967E-05
  0.4545455E-01  0.0000000E+00  0.1515152E-01  0.1441267E-06  0.0000000E+00  0.9766840E-05
  0.5555556E-01  0.0000000E+00  0.1515152E-01  0.1742002E-06  0.0000000E+00  0.9874367E-05
  0.6565657E-01  0.0000000E+00  0.1515152E-01  0.2030715E-06  0.0000000E+00  0.1000182E-04
  0.7575758E-01  0.0000000E+00  0.1515152E-01  0.2304982E-06  0.0000000E+00  0.1014832E-04
  0.8585858E-01  0.0000000E+00  0.1515152E-01  0.2562307E-06  0.0000000E+00  0.1031281E-04
  0.9595960E-01  0.0000000E+00  0.1515152E-01  0.2800136E-06  0.0000000E+00  0.1049406E-04
  0.1060606E+00  0.0000000E+00  0.1515152E-01  0.3015895E-06  0.0000000E+00  0.1069068E-04
  0.1161616E+00  0.0000000E+00  0.1515152E-01  0.3207046E-06  0.0000000E+00  0.1090109E-04
  0.1262626E+00  0.0000000E+00  0.1515152E-01  0.3371156E-06  0.0000000E+00  0.1112355E-04
  0.1363636E+00  0.0000000E+00  0.1515152E-01  0.3505980E-06  0.0000000E+00  0.1135616E-04
  0.1464646E+00  0.0000000E+00  0.1515152E-01  0.3609566E-06  0.0000000E+00  0.1159685E-04
  0.1565657E+00  0.0000000E+00  0.1515152E-01  0.3680353E-06  0.0000000E+00  0.1184346E-04
  0.1666667E+00  0.0000000E+00  0.1515152E-01  0.3717277E-06  0.0000000E+00  0.1209373E-04
  0.1767677E+00  0.0000000E+00  0.1515152E-01  0.3719859E-06  0.0000000E+00  0.1234531E-04
  0.1868687E+00  0.0000000E+00  0.1515152E-01  0.3688271E-06  0.0000000E+00  0.1259589E-04
  0.1969697E+00  0.0000000E+00  0.1515152E-01  0.3623363E-06  0.0000000E+00  0.1284316E-04
  0.2070707E+00  0.0000000E+00  0.1515152E-01  0.3526651E-06  0.0000000E+00  0.1308489E-04
  0.2171717E+00  0.0000000E+00  0.1515152E-01  0.3400260E-06  0.0000000E+00  0.1331901E-04
  0.2272727E+00  0.0000000E+00  0.1515152E-01  0.3246834E-06  0.0000000E+00  0.1354356E-04
  0.2373737E+00  0.0000000E+00  0.1515152E-01  0.3069407E-06  0.0000000E+00  0.1375684E-04
  0.2474747E+00  0.0000000E+00  0.1515152E-01  0.2871274E-06  0.0000000E+00  0.1395732E-04
  0.2575758E+00  0.0000000E+00  0.1515152E-01  0.2655856E-06  0.0000000E+00  0.1414372E-04
  0.2676768E+00  0.0000000E+00  0.1515152E-01  0.2426577E-06  0.0000000E+00  0.1431500E-04
  0.2777778E+00  0.0000000E+00  0.1515152E-01  0.2186769E-06  0.0000000E+00  0.1447035E-04
  0.2878788E+00  0.0000000E+00  0.1515152E-01  0.1939592E-06  0.0000000E+00  0.1460917E-04
  0.2979798E+00  0.0000000E+00  0.1515152E-01  0.1687984E-06  0.0000000E+00  0.1473108E-04
  0.3080808E+00  0.0000000E+00  0.1515152E-01  0.1434624E-06  0.0000000E+00  0.1483589E-04
  0.3181818E+00  0.0000000E+00  0.1515152E-01  0.1181913E-06  0.0000000E+00  0.1492357E-04
  0.3282828E+00  0.0000000E+00  0.1515152E-01  0.9319611E-07  0.0000000E+00  0.1499426E-04
  0.3383838E+00  0.0000000E+00  0.1515152E-01  0.6865853E-07  0.0000000E+00  0.1504821E-04
  0.3484848E+00  0.0000000E+00  0.1515152E-01  0.4473070E-07  0.0000000E+00  0.1508580E-04
  0.3585859E+00  0.0000000E+00  0.1515152E-01  0.2153567E-07  0.0000000E+00  0.1510750E-04
  0.3686869E+00  0.0000000E+00  0.1515152E-01 -0.8320513E-09  0.0000000E+00  0.1511384E-04
  0.3787879E+00  0.0000000E+00  0.1515152E-01 -0.2230558E-07  0.0000000E+00  0.1510543E-04
  0.3888889E+00  0.0000000E+00  0.1515152E-01 -0.4284447E-07  0.0000000E+00  0.1508288E-04
  0.3989899E+00  0.0000000E+00  0.1515152E-01 -0.6243322E-07  0.0000000E+00  0.1504685E-04
  0.4090909E+00  0.0000000E+00  0.1515152E-01 -0.8107946E-07  0.0000000E+00  0.1499798E-04
  0.4191919E+00  0.0000000E+00  0.1515152E-01 -0.9881179E-07  0.0000000E+00  0.1493691E-04
  0.4292929E+00  0.0000000E+00  0.1515152E-01 -0.1156775E-06  0.0000000E+00  0.1486425E-04
  0.4393939E+00  0.0000000E+00  0.1515152E-01 -0.1317398E-06  0.0000000E+00  0.1478056E-04
  0.4494950E+00  0.0000000E+00  0.1515152E-01 -0.1470753E-06  0.0000000E+00  0.1468636E-04
  0.4595959E+00  0.0000000E+00  0.1515152E-01 -0.1617706E-06  0.0000000E+00  0.1458213E-04
  0.4696970E+00  0.0000000E+00  0.1515152E-01 -0.1759190E-06  0.0000000E+00  0.1446826E-04
  0.4797980E+00  0.0000000E+00  0.1515152E-01 -0.1896170E-06  0.0000000E+00  0.1434508E-04
  0.4898990E+00  0.0000000E+00  0.1515152E-01 -0.2029605E-06  0.0000000E+00  0.1421288E-04
  0.5000000E+00  0.0000000E+00  0.1515152E-01 -0.2160407E-06  0.0000000E+00  0.1407184E-04
  0.5101010E+00  0.0000000E+00  0.1515152E-01 -0.2289400E-06  0.0000000E+00  0.1392212E-04
  0.5202020E+00  0.0000000E+00  0.1515152E-01 -0.2417276E-06  0.0000000E+00  0.1376380E-04
  0.5303030E+00  0.0000000E+00  0.1515152E-01 -0.2544559E-06  0.0000000E+00  0.1359694E-04
  0.5404040E+00  0.0000000E+00  0.1515152E-01 -0.2671565E-06  0.0000000E+00  0.1342155E-04
  0.5505050E+00  0.0000000E+00  0.1515152E-01 -0.2798380E-06  0.0000000E+00  0.1323764E-04
  0.5606061E+00  0.0000000E+00  0.1515152E-01 -0.2924830E-06  0.0000000E+00  0.1304522E-04
  0.5707071E+00  0.0000000E+00  0.1515152E-01 -0.3050486E-06  0.0000000E+00  0.1284430E-04
  0.5808081E+00  0.0000000E+00  0.1515152E-01 -0.3174662E-06  0.0000000E+00  0.1263496E-04
  0.5909091E+00  0.0000000E+00  0.1515152E-01 -0.3296438E-06  0.0000000E+00  0.1241732E-04
  0.6010101E+00  0.0000000E+00  0.1515152E-01 -0.3414699E-06  0.0000000E+00  0.1219156E-04
  0.6111111E+00  0.0000000E+00  0.1515152E-01 -0.3528178E-06  0.0000000E+00  0.1195796E-04
  0.6212121E+00  0.0000000E+00  0.1515152E-01 -0.3635515E-06  0.0000000E+00  0.1171689E-04
  0.6313131E+00  0.0000000E+00  0.1515152E-01 -0.3735313E-06  0.0000000E+00  0.1146880E-04
  0.6414142E+00  0.0000000E+00  0.1515152E-01 -0.3826203E-06  0.0000000E+00  0.1121425E-04
  0.6515151E+00  0.0000000E+00  0.1515152E-01 -0.3906895E-06  0.0000000E+00  0.1095389E-04
  0.6616161E+00  0.0000000E+00  0.1515152E-01 -0.3976225E-06  0.0000000E+00  0.1068844E-04
  0.6717172E+00  0.0000000E+00  0.1515152E-01 -0.4033194E-06  0.0000000E+00  0.1041873E-04
  0.6818182E+00  0.0000000E+00  0.1515152E-01 -0.4076989E-06  0.0000000E+00  0.1014560E-04
  0.6919192E+00  0.0000000E+00  0.1515152E-01 -0.4106997E-06  0.0000000E+00  0.9869978E-05
  0.7020202E+00  0.0000000E+00  0.1515152E-01 -0.4122807E-06  0.0000000E+00  0.9592815E-05
  0.7121212E+00  0.0000000E+00  0.1515152E-01 -0.4124203E-06  0.0000000E+00  0.9315080E-05
  0.7222222E+00  0.0000000E+00  0.1515152E-01 -0.4111149E-06  0.0000000E+00  0.9037749E-05
  0.7323232E+00  0.0000000E+00  0.1515152E-01 -0.4083772E-06  0.0000000E+00  0.8761796E-05
  0.7424242E+00  0.0000000E+00  0.1515152E-01 -0.4042337E-06  0.0000000E+00  0.8488182E-05
  0.7525253E+00  0.0000000E+00  0.1515152E-01 -0.3987227E-06  0.0000000E+00  0.8217841E-05
  0.7626263E+00  0.0000000E+00  0.1515152E-01 -0.3918920E-06  0.0000000E+00  0.7951681E-05
  0.7727273E+00  0.0000000E+00  0.1515152E-01 -0.3837966E-06  0.0000000E+00  0.7690571E-05
  0.7828283E+00  0.0000000E+00  0.1515152E-01 -0.3744968E-06  0.0000000E+00  0.7435343E-05
  0.7929293E+00  0.0000000E+00  0.1515152E-01 -0.3640565E-06  0.0000000E+00  0.7186785E-05
  0.8030303E+00  0.0000000E+00  0.1515152E-01 -0.3525418E-06  0.0000000E+00  0.6945640E-05
  0.8131313E+00  0.0000000E+00  0.1515152E-01 -0.3400195E-06  0.0000000E+00  0.6712608E-05
  0.8232324E+00  0.0000000E+00  0.1515152E-01 -0.3265565E-06  0.0000000E+00  0.6488340E-05
  0.8333333E+00  0.0000000E+00  0.1515152E-01 -0.3122189E-06  0.0000000E+00  0.6273447E-05
  0.8434343E+00  0.0000000E+00  0.1515152E-01 -0.2970710E-06  0.0000000E+00  0.6068491E-05
  0.8535354E+00  0.0000000E+00  0.1515152E-01 -0.2811757E-06  0.0000000E+00  0.5873993E-05
  0.8636364E+00  0.0000000E+00  0.1515152E-01 -0.2645937E-06  0.0000000E+00  0.5690434E-05
  0.8737374E+00  0.0000000E+00  0.1515152E-01 -0.2473834E-06  0.0000000E+00  0.5518253E-05
  0.8838384E+00  0.0000000E+00  0.1515152E-01 -0.2296010E-06  0.0000000E+00  0.5357851E-05
  0.8939394E+00  0.0000000E+00  0.1515152E-01 -0.2113007E-06  0.0000000E+00  0.5209592E-05
  0.9040404E+00  0.0000000E+00  0.1515152E-01 -0.1925345E-06  0.0000000E+00  0.5073805E-05
  0.9141414E+00  0.0000000E+00  0.1515152E-01 -0.1733525E-06  0.0000000E+00  0.4950783E-05
  0.9242424E+00  0.0000000E+00  0.1515152E-01 -0.1538030E-06  0.0000000E+00  0.4840789E-05
  0.9343435E+00  0.0000000E+00  0.1515152E-01 -0.1339327E-06  0.0000000E+00  0.4744052E-05
  0.9444444E+00  0.0000000E+00  0.1515152E-01 -0.1137871E-06  0.0000000E+00  0.4660771E-05
  0.9545454E+00  0.0000000E+00  0.1515152E-01 -0.9341044E-07  0.0000000E+00  0.4591115E-05
  0.9646465E+00  0.0000000E+00  0.1515152E-01 -0.7284595E-07  0.0000000E+00  0.4535224E-05
  0.9747475E+00  0.0000000E+00  0.1515152E-01 -0.5213615E-07  0.0000000E+00  0.4493209E-05
  0.9848485E+00  0.0000000E+00  0.1515152E-01 -0.3132295E-07  0.0000000E+00  0.4465153E-05
  0.9974747E+00  0.0000000E+00  0.1515152E-01 -0.1044785E-07  0.0000000E+00  0.4451111E-05
  0.5050505E-02  0.0000000E+00  0.2525252E-01  0.2745313E-07  0.0000000E+00  0.9653088E-05
  0.1515152E-01  0.0000000E+00  0.2525252E-01  0.8218712E-07  0.0000000E+00  0.9675680E-05
  0.2525252E-01  0.0000000E+00  0.2525252E-01  0.1364022E-06  0.0000000E+00  0.9720726E-05
  0.3535353E-01  0.0000000E+00  0.2525252E-01  0.1897458E-06  0.0000000E+00  0.9787951E-05
  0.4545455E-01  0.0000000E+00  0.2525252E-01  0.2418552E-06  0.0000000E+00  0.9876932E-05
  0.5555556E-01  0.0000000E+00  0.2525252E-01  0.2923550E-06  0.0000000E+00  0.9987103E-05
  0.6565657E-01  0.0000000E+00  0.2525252E-01  0.3408549E-06  0.0000000E+00  0.1011774E-04
  0.7575758E-01  0.0000000E+00  0.2525252E-01  0.3869489E-06  0.0000000E+00  0.1026796E-04
  0.8585858E-01  0.0000000E+00  0.2525252E-01  0.4302169E-06  0.0000000E+00  0.1043670E-04
  0.9595960E-01  0.0000000E+00  0.2525252E-01  0.4702275E-06  0.0000000E+00  0.1062272E-04
  0.1060606E+00  0.0000000E+00  0.2525252E-01  0.5065443E-06  0.0000000E+00  0.1082462E-04
  0.1161616E+00  0.0000000E+00  0.2525252E-01  0.5387347E-06  0.0000000E+00  0.1104079E-04
  0.1262626E+00  0.0000000E+00  0.2525252E-01  0.5663820E-06  0.0000000E+00  0.1126943E-04
  0.1363636E+00  0.0000000E+00  0.2525252E-01  0.5890998E-06  0.0000000E+00  0.1150859E-04
  0.1464646E+00  0.0000000E+00  0.2525252E-01  0.6065495E-06  0.0000000E+00  0.1175614E-04
  0.1565657E+00  0.0000000E+00  0.2525252E-01  0.6184590E-06  0.0000000E+00  0.1200981E-04
  0.1666667E+00  0.0000000E+00  0.2525252E-01  0.6246406E-06  0.0000000E+00  0.1226723E-04
  0.1767677E+00  0.0000000E+00  0.2525252E-01  0.6250078E-06  0.0000000E+00  0.1252595E-04
  0.1868687E+00  0.0000000E+00  0.2525252E-01  0.6195865E-06  0.0000000E+00  0.1278354E-04
  0.1969697E+00  0.0000000E+00  0.2525252E-01  0.6085214E-06  0.0000000E+00  0.1303755E-04
  0.2070707E+00  0.0000000E+00  0.2525252E-01  0.5920733E-06  0.0000000E+00  0.1328566E-04
  0.2171717E+00  0.0000000E+00  0.2525252E-01  0.5706095E-06  0.0000000E+00  0.1352568E-04
  0.2272727E+00  0.0000000E+00  0.2525252E-01  0.5445866E-06  0.0000000E+00  0.1375558E-04
  0.2373737E+00  0.0000000E+00  0.2525252E-01  0.5145283E-06  0.0000000E+00  0.1397359E-04
  0.2474747E+00  0.0000000E+00  0.2525252E-01  0.4810016E-06  0.0000000E+00  0.1417815E-04
  0.2575758E+00  0.0000000E+00  0.2525252E-01  0.4445923E-06  0.0000000E+00  0.1436796E-04
  0.2676768E+00  0.0000000E+00  0.2525252E-01  0.4058849E-06  0.0000000E+00  0.1454198E-04
  0.2777778E+00  0.0000000E+00  0.2525252E-01  0.3654449E-06  0.0000000E+00  0.1469942E-04
  0.2878788E+00  0.0000000E+00  0.2525252E-01  0.3238067E-06  0.0000000E+00  0.1483972E-04
  0.2979798E+00  0.0000000E+00  0.2525252E-01  0.2814652E-06  0.0000000E+00  0.1496252E-04
  0.3080808E+00  0.0000000E+00  0.2525252E-01  0.2388701E-06  0.0000000E+00  0.1506768E-04
  0.3181818E+00  0.0000000E+00  0.2525252E-01  0.1964235E-06  0.0000000E+00  0.1515523E-04
  0.3282828E+00  0.0000000E+00  0.2525252E-01  0.1544781E-06  0.0000000E+00  0.1522534E-04
  0.3383838E+00  0.0000000E+00  0.2525252E-01  0.1133370E-06  0.0000000E+00  0.1527833E-04
  0.3484848E+00  0.0000000E+00  0.2525252E-01  0.7325340E-07  0.0000000E+00  0.1531462E-04
  0.3585859E+00  0.0000000E+00  0.2525252E-01  0.3443175E-07  0.0000000E+00  0.1533473E-04
  0.3686869E+00  0.0000000E+00  0.2525252E-01 -0.2971711E-08  0.0000000E+00  0.1533925E-04
  0.3787879E+00  0.0000000E+00  0.2525252E-01 -0.3884719E-07  0.0000000E+00  0.1532883E-04
  0.3888889E+00  0.0000000E+00  0.2525252E-01 -0.7312946E-07  0.0000000E+00  0.1530414E-04
  0.3989899E+00  0.0000000E+00  0.2525252E-01 -0.1057953E-06  0.0000000E+00  0.1526586E-04
  0.4090909E+00  0.0000000E+00  0.2525252E-01 -0.1368603E-06  0.0000000E+00  0.1521470E-04
  0.4191919E+00  0.0000000E+00  0.2525252E-01 -0.1663757E-06  0.0000000E+00  0.1515131E-04
  0.4292929E+00  0.0000000E+00  0.2525252E-01 -0.1944238E-06  0.0000000E+00  0.1507634E-04
  0.4393939E+00  0.0000000E+00  0.2525252E-01 -0.2211142E-06  0.0000000E+00  0.1499039E-04
  0.4494950E+00  0.0000000E+00  0.2525252E-01 -0.2465789E-06  0.0000000E+00  0.1489400E-04
  0.4595959E+00  0.0000000E+00  0.2525252E-01 -0.2709667E-06  0.0000000E+00  0.1478765E-04
  0.4696970E+00  0.0000000E+00  0.2525252E-01 -0.2944384E-06  0.0000000E+00  0.1467176E-04
  0.4797980E+00  0.0000000E+00  0.2525252E-01 -0.3171599E-06  0.0000000E+00  0.1454665E-04
  0.4898990E+00  0.0000000E+00  0.2525252E-01 -0.3392966E-06  0.0000000E+00  0.1441261E-04
  0.5000000E+00  0.0000000E+00  0.2525252E-01 -0.3610058E-06  0.0000000E+00  0.1426982E-04
  0.5101010E+00  0.0000000E+00  0.2525252E-01 -0.3824303E-06  0.0000000E+00  0.1411841E-04
  0.5202020E+00  0.0000000E+00  0.2525252E-01 -0.4036906E-06  0.0000000E+00  0.1395844E-04
  0.5303030E+00  0.0000000E+00  0.2525252E-01 -0.4248784E-06  0.0000000E+00  0.1378995E-04
  0.5404040E+00  0.0000000E+00  0.2525252E-01 -0.4460500E-06  0.0000000E+00  0.1361291E-04
  0.5505050E+00  0.0000000E+00  0.2525252E-01 -0.4672217E-06  0.0000000E+00  0.1342729E-04
  0.5606061E+00  0.0000000E+00  0.2525252E-01 -0.4883656E-06  0.0000000E+00  0.1323306E-04
  0.5707071E+00  0.0000000E+00  0.2525252E-01 -0.5094088E-06  0.0000000E+00  0.1303020E-04
  0.5808081E+00  0.0000000E+00  0.2525252E-01 -0.5302341E-06  0.0000000E+00  0.1281874E-04
  0.5909091E+00  0.0000000E+00  0.2525252E-01 -0.5506836E-06  0.0000000E+00  0.1259877E-04
  0.6010101E+00  0.0000000E+00  0.2525252E-01 -0.5705655E-06  0.0000000E+00  0.1237046E-04
  0.6111111E+00  0.0000000E+00  0.2525252E-01 -0.5896613E-06  0.0000000E+00  0.1213407E-04
  0.6212121E+00  0.0000000E+00  0.2525252E-01 -0.6077366E-06  0.0000000E+00  0.1188994E-04
  0.6313131E+00  0.0000000E+00  0.2525252E-01 -0.6245513E-06  0.0000000E+00  0.1163855E-04
  0.6414142E+00  0.0000000E+00  0.2525252E-01 -0.6398699E-06  0.0000000E+00  0.1138045E-04
  0.6515151E+00  0.0000000E+00  0.2525252E-01 -0.6534715E-06  0.0000000E+00  0.1111633E-04
  0.6616161E+00  0.0000000E+00  0.2525252E-01 -0.6651575E-06  0.0000000E+00  0.1084693E-04
  0.6717172E+00  0.0000000E+00  0.2525252E-01 -0.6747581E-06  0.0000000E+00  0.1057310E-04
  0.6818182E+00  0.0000000E+00  0.2525252E-01 -0.6821360E-06  0.0000000E+00  0.1029573E-04
  0.6919192E+00  0.0000000E+00  0.2525252E-01 -0.6871886E-06  0.0000000E+00  0.1001579E-04
  0.7020202E+00  0.0000000E+00  0.2525252E-01 -0.6898483E-06  0.0000000E+00  0.9734247E-05
  0.7121212E+00  0.0000000E+00  0.2525252E-01 -0.6900805E-06  0.0000000E+00  0.9452117E-05
  0.7222222E+00  0.0000000E+00  0.2525252E-01 -0.6878816E-06  0.0000000E+00  0.9170409E-05
  0.7323232E+00  0.0000000E+00  0.2525252E-01 -0.6832753E-06  0.0000000E+00  0.8890126E-05
  0.7424242E+00  0.0000000E+00  0.2525252E-01 -0.6763088E-06  0.0000000E+00  0.8612253E-05
  0.7525253E+00  0.0000000E+00  0.2525252E-01 -0.6670487E-06  0.0000000E+00  0.8337751E-05
  0.7626263E+00  0.0000000E+00  0.2525252E-01 -0.6555774E-06  0.0000000E+00  0.8067544E-05
  0.7727273E+00  0.0000000E+00  0.2525252E-01 -0.6419891E-06  0.0000000E+00  0.7802518E-05
  0.7828283E+00  0.0000000E+00  0.2525252E-01 -0.6263866E-06  0.0000000E+00  0.7543519E-05
  0.7929293E+00  0.0000000E+00  0.2525252E-01 -0.6088783E-06  0.0000000E+00  0.7291343E-05
  0.8030303E+00  0.0000000E+00  0.2525252E-01 -0.5895761E-06  0.0000000E+00  0.7046742E-05
  0.8131313E+00  0.0000000E+00  0.2525252E-01 -0.5685929E-06  0.0000000E+00  0.6810422E-05
  0.8232324E+00  0.0000000E+00  0.2525252E-01 -0.5460411E-06  0.0000000E+00  0.6583038E-05
  0.8333333E+00  0.0000000E+00  0.2525252E-01 -0.5220317E-06  0.0000000E+00  0.6365203E-05
  0.8434343E+00  0.0000000E+00  0.2525252E-01 -0.4966728E-06  0.0000000E+00  0.6157481E-05
  0.8535354E+00  0.0000000E+00  0.2525252E-01 -0.4700694E-06  0.0000000E+00  0.5960394E-05
  0.8636364E+00  0.0000000E+00  0.2525252E-01 -0.4423231E-06  0.0000000E+00  0.5774423E-05
  0.8737374E+00  0.0000000E+00  0.2525252E-01 -0.4135314E-06  0.0000000E+00  0.5600006E-05
  0.8838384E+00  0.0000000E+00  0.2525252E-01 -0.3837882E-06  0.0000000E+00  0.5437544E-05
  0.8939394E+00  0.0000000E+00  0.2525252E-01 -0.3531836E-06  0.0000000E+00  0.5287401E-05
  0.9040404E+00  0.0000000E+00  0.2525252E-01 -0.3218043E-06  0.0000000E+00  0.5149903E-05
  0.9141414E+00  0.0000000E+00  0.2525252E-01 -0.2897335E-06  0.0000000E+00  0.5025345E-05
  0.9242424E+00  0.0000000E+00  0.2525252E-01 -0.2570518E-06  0.0000000E+00  0.4913988E-05
  0.9343435E+00  0.0000000E+00  0.2525252E-01 -0.2238368E-06  0.0000000E+00  0.4816059E-05
  0.9444444E+00  0.0000000E+00  0.2525252E-01 -0.1901642E-06  0.0000000E+00  0.4731758E-05
  0.9545454E+00  0.0000000E+00  0.2525252E-01 -0.1561074E-06  0.0000000E+00  0.4661253E-05
  0.9646465E+00  0.0000000E+00  0.2525252E-01 -0.1217383E-06  0.0000000E+00  0.4604683E-05
  0.9747475E+00  0.0000000E+00  0.2525252E-01 -0.8712770E-07  0.0000000E+00  0.4562158E-05
  0.9848485E+00  0.0000000E+00  0.2525252E-01 -0.5234520E-07  0.0000000E+00  0.4533763E-05
  0.9974747E+00  0.0000000E+00  0.2525252E-01 -0.1745982E-07  0.0000000E+00  0.4519552E-05
  0.5050505E-02  0.0000000E+00  0.3535353E-01  0.3883622E-07  0.0000000E+00  0.9810334E-05
  0.1515152E-01  0.0000000E+00  0.3535353E-01  0.1162694E-06  0.0000000E+00  0.9833714E-05
  0.2525252E-01  0.0000000E+00  0.3535353E-01  0.1929815E-06  0.0000000E+00  0.9880337E-05
  0.3535353E-01  0.0000000E+00  0.3535353E-01  0.2684817E-06  0.0000000E+00  0.9949934E-05
  0.4545455E-01  0.0000000E+00  0.3535353E-01  0.3422641E-06  0.0000000E+00  0.1004209E-04
  0.5555556E-01  0.0000000E+00  0.3535353E-01  0.4138030E-06  0.0000000E+00  0.1015624E-04
  0.6565657E-01  0.0000000E+00  0.3535353E-01  0.4825500E-06  0.0000000E+00  0.1029168E-04
  0.7575758E-01  0.0000000E+00  0.3535353E-01  0.5479317E-06  0.0000000E+00  0.1044751E-04
  0.8585858E-01  0.0000000E+00  0.3535353E-01  0.6093514E-06  0.0000000E+00  0.1062267E-04
  0.9595960E-01  0.0000000E+00  0.3535353E-01  0.6661933E-06  0.0000000E+00  0.1081593E-04
  0.1060606E+00  0.0000000E+00  0.3535353E-01  0.7178300E-06  0.0000000E+00  0.1102583E-04
  0.1161616E+00  0.0000000E+00  0.3535353E-01  0.7636353E-06  0.0000000E+00  0.1125072E-04
  0.1262626E+00  0.0000000E+00  0.3535353E-01  0.8030010E-06  0.0000000E+00  0.1148877E-04
  0.1363636E+00  0.0000000E+00  0.3535353E-01  0.8353589E-06  0.0000000E+00  0.1173790E-04
  0.1464646E+00  0.0000000E+00  0.3535353E-01  0.8602067E-06  0.0000000E+00  0.1199589E-04
  0.1565657E+00  0.0000000E+00  0.3535353E-01  0.8771357E-06  0.0000000E+00  0.1226033E-04
  0.1666667E+00  0.0000000E+00  0.3535353E-01  0.8858601E-06  0.0000000E+00  0.1252868E-04
  0.1767677E+00  0.0000000E+00  0.3535353E-01  0.8862427E-06  0.0000000E+00  0.1279833E-04
  0.1868687E+00  0.0000000E+00  0.3535353E-01  0.8783143E-06  0.0000000E+00  0.1306662E-04
  0.1969697E+00  0.0000000E+00  0.3535353E-01  0.8622833E-06  0.0000000E+00  0.1333095E-04
  0.2070707E+00  0.0000000E+00  0.3535353E-01  0.8385332E-06  0.0000000E+00  0.1358879E-04
  0.2171717E+00  0.0000000E+00  0.3535353E-01  0.8076073E-06  0.0000000E+00  0.1383780E-04
  0.2272727E+00  0.0000000E+00  0.3535353E-01  0.7701814E-06  0.0000000E+00  0.1407583E-04
  0.2373737E+00  0.0000000E+00  0.3535353E-01  0.7270286E-06  0.0000000E+00  0.1430100E-04
  0.2474747E+00  0.0000000E+00  0.3535353E-01  0.6789820E-06  0.0000000E+00  0.1451171E-04
  0.2575758E+00  0.0000000E+00  0.3535353E-01  0.6268972E-06  0.0000000E+00  0.1470664E-04
  0.2676768E+00  0.0000000E+00  0.3535353E-01  0.5716214E-06  0.0000000E+00  0.1488476E-04
  0.2777778E+00  0.0000000E+00  0.3535353E-01  0.5139689E-06  0.0000000E+00  0.1504530E-04
  0.2878788E+00  0.0000000E+00  0.3535353E-01  0.4547037E-06  0.0000000E+00  0.1518775E-04
  0.2979798E+00  0.0000000E+00  0.3535353E-01  0.3945292E-06  0.0000000E+00  0.1531182E-04