title = "dataset feddes"
variables = "x", "y", "z", "vx", "vy", "vz"
zone t = "velocities, solution time =  6.000E+01 days        " i =   99, j =   99, k =    1,  f=point
 -0.5050505E-02  0.0000000E+00 -0.5050505E-02  0.2693845E-08  0.0000000E+00  0.2897254E-04
 -0.5050505E-02  0.0000000E+00 -0.5050505E-02  0.8071222E-08  0.0000000E+00  0.2898337E-04
 -0.5050505E-02  0.0000000E+00 -0.5050505E-02  0.1341737E-07  0.0000000E+00  0.2900501E-04
 -0.5050505E-02  0.0000000E+00 -0.5050505E-02  0.1871155E-07  0.0000000E+00  0.2903735E-04
 -0.5050505E-02  0.0000000E+00 -0.5050505E-02  0.2393318E-07  0.0000000E+00  0.2908027E-04
 -0.5050505E-02  0.0000000E+00 -0.5050505E-02  0.2906190E-07  0.0000000E+00  0.2913362E-04
 -0.5050504E-02  0.0000000E+00 -0.5050505E-02  0.3407761E-07  0.0000000E+00  0.2919718E-04
 -0.5050501E-02  0.0000000E+00 -0.5050505E-02  0.3896051E-07  0.0000000E+00  0.2927070E-04
 -0.5050495E-02  0.0000000E+00 -0.5050505E-02  0.4369121E-07  0.0000000E+00  0.2935390E-04
 -0.5050482E-02  0.0000000E+00 -0.5050505E-02  0.4825075E-07  0.0000000E+00  0.2944645E-04
 -0.5050449E-02  0.0000000E+00 -0.5050505E-02  0.5262070E-07  0.0000000E+00  0.2954799E-04
 -0.5050376E-02  0.0000000E+00 -0.5050505E-02  0.5678316E-07  0.0000000E+00  0.2965812E-04
 -0.5050299E-02  0.0000000E+00 -0.5050505E-02  0.6072092E-07  0.0000000E+00  0.2977641E-04
 -0.5050178E-02  0.0000000E+00 -0.5050505E-02  0.6441741E-07  0.0000000E+00  0.2990238E-04
 -0.5050018E-02  0.0000000E+00 -0.5050505E-02  0.6785687E-07  0.0000000E+00  0.3003553E-04
 -0.5049710E-02  0.0000000E+00 -0.5050505E-02  0.7102435E-07  0.0000000E+00  0.3017534E-04
 -0.5049253E-02  0.0000000E+00 -0.5050505E-02  0.7390578E-07  0.0000000E+00  0.3032123E-04
 -0.5048636E-02  0.0000000E+00 -0.5050505E-02  0.7648808E-07  0.0000000E+00  0.3047263E-04
 -0.5047442E-02  0.0000000E+00 -0.5050505E-02  0.7875916E-07  0.0000000E+00  0.3062891E-04
 -0.5045727E-02  0.0000000E+00 -0.5050505E-02  0.8070805E-07  0.0000000E+00  0.3078944E-04
 -0.5043261E-02  0.0000000E+00 -0.5050505E-02  0.8232492E-07  0.0000000E+00  0.3095356E-04
 -0.5038714E-02  0.0000000E+00 -0.5050505E-02  0.8360113E-07  0.0000000E+00  0.3112060E-04
 -0.5032318E-02  0.0000000E+00 -0.5050505E-02  0.8452933E-07  0.0000000E+00  0.3128985E-04
 -0.5022454E-02  0.0000000E+00 -0.5050505E-02  0.8510350E-07  0.0000000E+00  0.3146062E-04
 -0.5012589E-02  0.0000000E+00 -0.5050505E-02  0.8531899E-07  0.0000000E+00  0.3163219E-04
 -0.5002725E-02  0.0000000E+00 -0.5050505E-02  0.8517256E-07  0.0000000E+00  0.3180382E-04
 -0.4992860E-02  0.0000000E+00 -0.5050505E-02  0.8466247E-07  0.0000000E+00  0.3197480E-04
 -0.4976523E-02  0.0000000E+00 -0.5050505E-02  0.8378846E-07  0.0000000E+00  0.3214438E-04
 -0.4956794E-02  0.0000000E+00 -0.5050505E-02  0.8255183E-07  0.0000000E+00  0.3231184E-04
 -0.4937066E-02  0.0000000E+00 -0.5050505E-02  0.8095542E-07  0.0000000E+00  0.3247645E-04
 -0.4906239E-02  0.0000000E+00 -0.5050505E-02  0.7900369E-07  0.0000000E+00  0.3263748E-04
 -0.4866782E-02  0.0000000E+00 -0.5050505E-02  0.7670265E-07  0.0000000E+00  0.3279424E-04
 -0.4827325E-02  0.0000000E+00 -0.5050505E-02  0.7405993E-07  0.0000000E+00  0.3294602E-04
 -0.4769372E-02  0.0000000E+00 -0.5050505E-02  0.7108474E-07  0.0000000E+00  0.3309214E-04
 -0.4690458E-02  0.0000000E+00 -0.5050505E-02  0.6778787E-07  0.0000000E+00  0.3323195E-04
 -0.4611543E-02  0.0000000E+00 -0.5050505E-02  0.6418164E-07  0.0000000E+00  0.3336482E-04
 -0.4503035E-02  0.0000000E+00 -0.5050505E-02  0.6027989E-07  0.0000000E+00  0.3349012E-04
 -0.4345206E-02  0.0000000E+00 -0.5050505E-02  0.5609790E-07  0.0000000E+00  0.3360729E-04
 -0.4187378E-02  0.0000000E+00 -0.5050505E-02  0.5165238E-07  0.0000000E+00  0.3371577E-04
 -0.3985156E-02  0.0000000E+00 -0.5050505E-02  0.4696137E-07  0.0000000E+00  0.3381505E-04
 -0.3669499E-02  0.0000000E+00 -0.5050505E-02  0.4204417E-07  0.0000000E+00  0.3390466E-04
 -0.3353842E-02  0.0000000E+00 -0.5050505E-02  0.3692126E-07  0.0000000E+00  0.3398416E-04
 -0.2978990E-02  0.0000000E+00 -0.5050505E-02  0.3161419E-07  0.0000000E+00  0.3405316E-04
 -0.2347676E-02  0.0000000E+00 -0.5050505E-02  0.2614550E-07  0.0000000E+00  0.3411131E-04
 -0.1716362E-02  0.0000000E+00 -0.5050505E-02  0.2053860E-07  0.0000000E+00  0.3415831E-04
 -0.1025842E-02  0.0000000E+00 -0.5050505E-02  0.1481763E-07  0.0000000E+00  0.3419391E-04
  0.2367855E-03  0.0000000E+00 -0.5050505E-02  0.9007367E-08  0.0000000E+00  0.3421789E-04
  0.1499413E-02  0.0000000E+00 -0.5050505E-02  0.3133085E-08  0.0000000E+00  0.3423012E-04
  0.2762042E-02  0.0000000E+00 -0.5050505E-02 -0.2779590E-08  0.0000000E+00  0.3423047E-04
 -0.5050505E-02  0.0000000E+00 -0.5050505E-02 -0.8704799E-08  0.0000000E+00  0.3421891E-04
 -0.5050505E-02  0.0000000E+00 -0.5050505E-02 -0.1461661E-07  0.0000000E+00  0.3419543E-04
 -0.5050505E-02  0.0000000E+00 -0.5050505E-02 -0.2048914E-07  0.0000000E+00  0.3416009E-04
 -0.5050505E-02  0.0000000E+00 -0.5050505E-02 -0.2629670E-07  0.0000000E+00  0.3411298E-04
 -0.5050505E-02  0.0000000E+00 -0.5050505E-02 -0.3201394E-07  0.0000000E+00  0.3405428E-04
 -0.5050505E-02  0.0000000E+00 -0.5050505E-02 -0.3761597E-07  0.0000000E+00  0.3398417E-04
 -0.5050505E-02  0.0000000E+00 -0.5050505E-02 -0.4307850E-07  0.0000000E+00  0.3390293E-04
 -0.5050504E-02  0.0000000E+00 -0.5050505E-02 -0.4837795E-07  0.0000000E+00  0.3381086E-04
 -0.5050501E-02  0.0000000E+00 -0.5050505E-02 -0.5349157E-07  0.0000000E+00  0.3370830E-04
 -0.5050495E-02  0.0000000E+00 -0.5050505E-02 -0.5839757E-07  0.0000000E+00  0.3359565E-04
 -0.5050482E-02  0.0000000E+00 -0.5050505E-02 -0.6307521E-07  0.0000000E+00  0.3347335E-04
 -0.5050449E-02  0.0000000E+00 -0.5050505E-02 -0.6750487E-07  0.0000000E+00  0.3334189E-04
 -0.5050376E-02  0.0000000E+00 -0.5050505E-02 -0.7166818E-07  0.0000000E+00  0.3320178E-04
 -0.5050299E-02  0.0000000E+00 -0.5050505E-02 -0.7554806E-07  0.0000000E+00  0.3305357E-04
 -0.5050178E-02  0.0000000E+00 -0.5050505E-02 -0.7912880E-07  0.0000000E+00  0.3289785E-04
 -0.5050018E-02  0.0000000E+00 -0.5050505E-02 -0.8239610E-07  0.0000000E+00  0.3273523E-04
 -0.5049710E-02  0.0000000E+00 -0.5050505E-02 -0.8533714E-07  0.0000000E+00  0.3256637E-04
 -0.5049253E-02  0.0000000E+00 -0.5050505E-02 -0.8794056E-07  0.0000000E+00  0.3239192E-04
 -0.5048636E-02  0.0000000E+00 -0.5050505E-02 -0.9019653E-07  0.0000000E+00  0.3221259E-04
 -0.5047442E-02  0.0000000E+00 -0.5050505E-02 -0.9209676E-07  0.0000000E+00  0.3202907E-04
 -0.5045727E-02  0.0000000E+00 -0.5050505E-02 -0.9363443E-07  0.0000000E+00  0.3184209E-04
 -0.5043261E-02  0.0000000E+00 -0.5050505E-02 -0.9480425E-07  0.0000000E+00  0.3165239E-04
 -0.5038714E-02  0.0000000E+00 -0.5050505E-02 -0.9560238E-07  0.0000000E+00  0.3146071E-04
 -0.5032318E-02  0.0000000E+00 -0.5050505E-02 -0.9602643E-07  0.0000000E+00  0.3126779E-04
 -0.5022454E-02  0.0000000E+00 -0.5050505E-02 -0.9607533E-07  0.0000000E+00  0.3107441E-04
 -0.5012589E-02  0.0000000E+00 -0.5050505E-02 -0.9574934E-07  0.0000000E+00  0.3088130E-04
 -0.5002725E-02  0.0000000E+00 -0.5050505E-02 -0.9504986E-07  0.0000000E+00  0.3068923E-04
 -0.4992860E-02  0.0000000E+00 -0.5050505E-02 -0.9397935E-07  0.0000000E+00  0.3049894E-04
 -0.4976523E-02  0.0000000E+00 -0.5050505E-02 -0.9254115E-07  0.0000000E+00  0.3031117E-04
 -0.4956794E-02  0.0000000E+00 -0.5050505E-02 -0.9073925E-07  0.0000000E+00  0.3012667E-04
 -0.4937066E-02  0.0000000E+00 -0.5050505E-02 -0.8857797E-07  0.0000000E+00  0.2994616E-04
 -0.4906239E-02  0.0000000E+00 -0.5050505E-02 -0.8606153E-07  0.0000000E+00  0.2977036E-04
 -0.4866782E-02  0.0000000E+00 -0.5050505E-02 -0.8319349E-07  0.0000000E+00  0.2959998E-04
 -0.4827325E-02  0.0000000E+00 -0.5050505E-02 -0.7997582E-07  0.0000000E+00  0.2943573E-04
 -0.4769372E-02  0.0000000E+00 -0.5050505E-02 -0.7640758E-07  0.0000000E+00  0.2927831E-04
 -0.4690458E-02  0.0000000E+00 -0.5050505E-02 -0.7248282E-07  0.0000000E+00  0.2912844E-04
 -0.4611543E-02  0.0000000E+00 -0.5050505E-02 -0.6818726E-07  0.0000000E+00  0.2898683E-04
 -0.4503035E-02  0.0000000E+00 -0.5050505E-02 -0.6349260E-07  0.0000000E+00  0.2885428E-04
 -0.4345206E-02  0.0000000E+00 -0.5050505E-02 -0.5834681E-07  0.0000000E+00  0.2873164E-04
 -0.4187378E-02  0.0000000E+00 -0.5050505E-02 -0.5265627E-07  0.0000000E+00  0.2861990E-04
 -0.3985156E-02  0.0000000E+00 -0.5050505E-02 -0.4625187E-07  0.0000000E+00  0.2852034E-04
 -0.3669499E-02  0.0000000E+00 -0.5050505E-02 -0.3882037E-07  0.0000000E+00  0.2843471E-04
 -0.3353842E-02  0.0000000E+00 -0.5050505E-02 -0.2975651E-07  0.0000000E+00  0.2836568E-04
 -0.2978990E-02  0.0000000E+00 -0.5050505E-02 -0.1781948E-07  0.0000000E+00  0.2831779E-04
 -0.2347676E-02  0.0000000E+00 -0.5050505E-02 -0.2658109E-09  0.0000000E+00  0.2829958E-04
 -0.1716362E-02  0.0000000E+00 -0.5050505E-02  0.2954630E-07  0.0000000E+00  0.2832906E-04
 -0.1025842E-02  0.0000000E+00 -0.5050505E-02  0.8942222E-07  0.0000000E+00  0.2844881E-04
  0.2367855E-03  0.0000000E+00 -0.5050505E-02  0.2324577E-06  0.0000000E+00  0.2877282E-04
  0.1499413E-02  0.0000000E+00 -0.5050505E-02  0.6341244E-06  0.0000000E+00  0.2964513E-04
  0.5287294E-02  0.0000000E+00 -0.5050505E-02  0.1046723E-04  0.0000000E+00  0.2368485E-04
 -0.5050505E-02  0.0000000E+00 -0.5050505E-02  0.8080083E-08  0.0000000E+00  0.2900367E-04
 -0.5050505E-02  0.0000000E+00 -0.5050505E-02  0.2420926E-07  0.0000000E+00  0.2901456E-04
 -0.5050505E-02  0.0000000E+00 -0.5050505E-02  0.4024481E-07  0.0000000E+00  0.2903630E-04
 -0.5050505E-02  0.0000000E+00 -0.5050505E-02  0.5612453E-07  0.0000000E+00  0.2906881E-04
 -0.5050505E-02  0.0000000E+00 -0.5050505E-02  0.7178675E-07  0.0000000E+00  0.2911195E-04
 -0.5050505E-02  0.0000000E+00 -0.5050505E-02  0.8717039E-07  0.0000000E+00  0.2916557E-04
 -0.5050504E-02  0.0000000E+00 -0.5050505E-02  0.1022151E-06  0.0000000E+00  0.2922945E-04
 -0.5050501E-02  0.0000000E+00 -0.5050505E-02  0.1168617E-06  0.0000000E+00  0.2930335E-04
 -0.5050495E-02  0.0000000E+00 -0.5050505E-02  0.1310519E-06  0.0000000E+00  0.2938697E-04
 -0.5050482E-02  0.0000000E+00 -0.5050505E-02  0.1447288E-06  0.0000000E+00  0.2948000E-04
 -0.5050449E-02  0.0000000E+00 -0.5050505E-02  0.1578372E-06  0.0000000E+00  0.2958206E-04
 -0.5050376E-02  0.0000000E+00 -0.5050505E-02  0.1703235E-06  0.0000000E+00  0.2969275E-04
 -0.5050299E-02  0.0000000E+00 -0.5050505E-02  0.1821359E-06  0.0000000E+00  0.2981165E-04
 -0.5050178E-02  0.0000000E+00 -0.5050505E-02  0.1932249E-06  0.0000000E+00  0.2993827E-04
 -0.5050018E-02  0.0000000E+00 -0.5050505E-02  0.2035430E-06  0.0000000E+00  0.3007212E-04
 -0.5049710E-02  0.0000000E+00 -0.5050505E-02  0.2130455E-06  0.0000000E+00  0.3021265E-04
 -0.5049253E-02  0.0000000E+00 -0.5050505E-02  0.2216902E-06  0.0000000E+00  0.3035931E-04
 -0.5048636E-02  0.0000000E+00 -0.5050505E-02  0.2294377E-06  0.0000000E+00  0.3051150E-04
 -0.5047442E-02  0.0000000E+00 -0.5050505E-02  0.2362519E-06  0.0000000E+00  0.3066860E-04
 -0.5045727E-02  0.0000000E+00 -0.5050505E-02  0.2420998E-06  0.0000000E+00  0.3082998E-04
 -0.5043261E-02  0.0000000E+00 -0.5050505E-02  0.2469518E-06  0.0000000E+00  0.3099498E-04
 -0.5038714E-02  0.0000000E+00 -0.5050505E-02  0.2507822E-06  0.0000000E+00  0.3116290E-04
 -0.5032318E-02  0.0000000E+00 -0.5050505E-02  0.2535687E-06  0.0000000E+00  0.3133307E-04
 -0.5022454E-02  0.0000000E+00 -0.5050505E-02  0.2552933E-06  0.0000000E+00  0.3150476E-04
 -0.5012589E-02  0.0000000E+00 -0.5050505E-02  0.2559419E-06  0.0000000E+00  0.3167725E-04
 -0.5002725E-02  0.0000000E+00 -0.5050505E-02  0.2555050E-06  0.0000000E+00  0.3184982E-04
 -0.4992860E-02  0.0000000E+00 -0.5050505E-02  0.2539772E-06  0.0000000E+00  0.3202173E-04
 -0.4976523E-02  0.0000000E+00 -0.5050505E-02  0.2513576E-06  0.0000000E+00  0.3219224E-04
 -0.4956794E-02  0.0000000E+00 -0.5050505E-02  0.2476503E-06  0.0000000E+00  0.3236063E-04
 -0.4937066E-02  0.0000000E+00 -0.5050505E-02  0.2428636E-06  0.0000000E+00  0.3252615E-04
 -0.4906239E-02  0.0000000E+00 -0.5050505E-02  0.2370109E-06  0.0000000E+00  0.3268809E-04
 -0.4866782E-02  0.0000000E+00 -0.5050505E-02  0.2301102E-06  0.0000000E+00  0.3284572E-04
 -0.4827325E-02  0.0000000E+00 -0.5050505E-02  0.2221845E-06  0.0000000E+00  0.3299836E-04
 -0.4769372E-02  0.0000000E+00 -0.5050505E-02  0.2132612E-06  0.0000000E+00  0.3314531E-04
 -0.4690458E-02  0.0000000E+00 -0.5050505E-02  0.2033727E-06  0.0000000E+00  0.3328592E-04
 -0.4611543E-02  0.0000000E+00 -0.5050505E-02  0.1925560E-06  0.0000000E+00  0.3341955E-04
 -0.4503035E-02  0.0000000E+00 -0.5050505E-02  0.1808526E-06  0.0000000E+00  0.3354558E-04
 -0.4345206E-02  0.0000000E+00 -0.5050505E-02  0.1683083E-06  0.0000000E+00  0.3366343E-04
 -0.4187378E-02  0.0000000E+00 -0.5050505E-02  0.1549732E-06  0.0000000E+00  0.3377255E-04
 -0.3985156E-02  0.0000000E+00 -0.5050505E-02  0.1409015E-06  0.0000000E+00  0.3387242E-04
 -0.3669499E-02  0.0000000E+00 -0.5050505E-02  0.1261510E-06  0.0000000E+00  0.3396257E-04
 -0.3353842E-02  0.0000000E+00 -0.5050505E-02  0.1107832E-06  0.0000000E+00  0.3404255E-04
 -0.2978990E-02  0.0000000E+00 -0.5050505E-02  0.9486284E-07  0.0000000E+00  0.3411198E-04
 -0.2347676E-02  0.0000000E+00 -0.5050505E-02  0.7845743E-07  0.0000000E+00  0.3417050E-04
 -0.1716362E-02  0.0000000E+00 -0.5050505E-02  0.6163724E-07  0.0000000E+00  0.3421781E-04
 -0.1025842E-02  0.0000000E+00 -0.5050505E-02  0.4447473E-07  0.0000000E+00  0.3425365E-04
  0.2367855E-03  0.0000000E+00 -0.5050505E-02  0.2704426E-07  0.0000000E+00  0.3427781E-04
  0.1499413E-02  0.0000000E+00 -0.5050505E-02  0.9421652E-08  0.0000000E+00  0.3429015E-04
  0.2762042E-02  0.0000000E+00 -0.5050505E-02 -0.8316183E-08  0.0000000E+00  0.3429055E-04
 -0.5050505E-02  0.0000000E+00 -0.5050505E-02 -0.2609165E-07  0.0000000E+00  0.3427897E-04
 -0.5050505E-02  0.0000000E+00 -0.5050505E-02 -0.4382692E-07  0.0000000E+00  0.3425541E-04
 -0.5050505E-02  0.0000000E+00 -0.5050505E-02 -0.6144434E-07  0.0000000E+00  0.3421991E-04
 -0.5050505E-02  0.0000000E+00 -0.5050505E-02 -0.7886680E-07  0.0000000E+00  0.3417259E-04
 -0.5050505E-02  0.0000000E+00 -0.5050505E-02 -0.9601825E-07  0.0000000E+00  0.3411360E-04
 -0.5050505E-02  0.0000000E+00 -0.5050505E-02 -0.1128240E-06  0.0000000E+00  0.3404315E-04
 -0.5050505E-02  0.0000000E+00 -0.5050505E-02 -0.1292111E-06  0.0000000E+00  0.3396150E-04
 -0.5050504E-02  0.0000000E+00 -0.5050505E-02 -0.1451089E-06  0.0000000E+00  0.3386896E-04
 -0.5050501E-02  0.0000000E+00 -0.5050505E-02 -0.1604490E-06  0.0000000E+00  0.3376588E-04
 -0.5050495E-02  0.0000000E+00 -0.5050505E-02 -0.1751662E-06  0.0000000E+00  0.3365265E-04
 -0.5050482E-02  0.0000000E+00 -0.5050505E-02 -0.1891981E-06  0.0000000E+00  0.3352973E-04
 -0.5050449E-02  0.0000000E+00 -0.5050505E-02 -0.2024860E-06  0.0000000E+00  0.3339758E-04
 -0.5050376E-02  0.0000000E+00 -0.5050505E-02 -0.2149747E-06  0.0000000E+00  0.3325674E-04
 -0.5050299E-02  0.0000000E+00 -0.5050505E-02 -0.2266130E-06  0.0000000E+00  0.3310776E-04
 -0.5050178E-02  0.0000000E+00 -0.5050505E-02 -0.2373537E-06  0.0000000E+00  0.3295123E-04
 -0.5050018E-02  0.0000000E+00 -0.5050505E-02 -0.2471541E-06  0.0000000E+00  0.3278777E-04
 -0.5049710E-02  0.0000000E+00 -0.5050505E-02 -0.2559756E-06  0.0000000E+00  0.3261804E-04
 -0.5049253E-02  0.0000000E+00 -0.5050505E-02 -0.2637842E-06  0.0000000E+00  0.3244269E-04
 -0.5048636E-02  0.0000000E+00 -0.5050505E-02 -0.2705505E-06  0.0000000E+00  0.3226242E-04
 -0.5047442E-02  0.0000000E+00 -0.5050505E-02 -0.2762496E-06  0.0000000E+00  0.3207796E-04
 -0.5045727E-02  0.0000000E+00 -0.5050505E-02 -0.2808611E-06  0.0000000E+00  0.3189002E-04
 -0.5043261E-02  0.0000000E+00 -0.5050505E-02 -0.2843692E-06  0.0000000E+00  0.3169934E-04
 -0.5038714E-02  0.0000000E+00 -0.5050505E-02 -0.2867624E-06  0.0000000E+00  0.3150667E-04
 -0.5032318E-02  0.0000000E+00 -0.5050505E-02 -0.2880337E-06  0.0000000E+00  0.3131277E-04
 -0.5022454E-02  0.0000000E+00 -0.5050505E-02 -0.2881799E-06  0.0000000E+00  0.3111839E-04
 -0.5012589E-02  0.0000000E+00 -0.5050505E-02 -0.2872019E-06  0.0000000E+00  0.3092429E-04
 -0.5002725E-02  0.0000000E+00 -0.5050505E-02 -0.2851040E-06  0.0000000E+00  0.3073124E-04
 -0.4992860E-02  0.0000000E+00 -0.5050505E-02 -0.2818938E-06  0.0000000E+00  0.3053997E-04
 -0.4976523E-02  0.0000000E+00 -0.5050505E-02 -0.2775814E-06  0.0000000E+00  0.3035124E-04
 -0.4956794E-02  0.0000000E+00 -0.5050505E-02 -0.2721792E-06  0.0000000E+00  0.3016579E-04
 -0.4937066E-02  0.0000000E+00 -0.5050505E-02 -0.2657005E-06  0.0000000E+00  0.2998434E-04
 -0.4906239E-02  0.0000000E+00 -0.5050505E-02 -0.2581586E-06  0.0000000E+00  0.2980762E-04
 -0.4866782E-02  0.0000000E+00 -0.5050505E-02 -0.2495649E-06  0.0000000E+00  0.2963632E-04
 -0.4827325E-02  0.0000000E+00 -0.5050505E-02 -0.2399268E-06  0.0000000E+00  0.2947117E-04
 -0.4769372E-02  0.0000000E+00 -0.5050505E-02 -0.2292434E-06  0.0000000E+00  0.2931285E-04
 -0.4690458E-02  0.0000000E+00 -0.5050505E-02 -0.2175004E-06  0.0000000E+00  0.2916206E-04
 -0.4611543E-02  0.0000000E+00 -0.5050505E-02 -0.2046604E-06  0.0000000E+00  0.2901951E-04
 -0.4503035E-02  0.0000000E+00 -0.5050505E-02 -0.1906485E-06  0.0000000E+00  0.2888595E-04
 -0.4345206E-02  0.0000000E+00 -0.5050505E-02 -0.1753263E-06  0.0000000E+00  0.2876215E-04
 -0.4187378E-02  0.0000000E+00 -0.5050505E-02 -0.1584473E-06  0.0000000E+00  0.2864902E-04
 -0.3985156E-02  0.0000000E+00 -0.5050505E-02 -0.1395728E-06  0.0000000E+00  0.2854760E-04
 -0.3669499E-02  0.0000000E+00 -0.5050505E-02 -0.1179115E-06  0.0000000E+00  0.2845920E-04
 -0.3353842E-02  0.0000000E+00 -0.5050505E-02 -0.9199140E-07  0.0000000E+00  0.2838558E-04
 -0.2978990E-02  0.0000000E+00 -0.5050505E-02 -0.5895657E-07  0.0000000E+00  0.2832915E-04
 -0.2347676E-02  0.0000000E+00 -0.5050505E-02 -0.1296804E-07  0.0000000E+00  0.2829306E-04
 -0.1716362E-02  0.0000000E+00 -0.5050505E-02  0.5865430E-07  0.0000000E+00  0.2828027E-04
 -0.1025842E-02  0.0000000E+00 -0.5050505E-02  0.1852837E-06  0.0000000E+00  0.2828698E-04
  0.2367855E-03  0.0000000E+00 -0.5050505E-02  0.4394716E-06  0.0000000E+00  0.2826967E-04
  0.1499413E-02  0.0000000E+00 -0.5050505E-02  0.1011098E-05  0.0000000E+00  0.2799012E-04
  0.5287294E-02  0.0000000E+00 -0.5050505E-02  0.2419898E-05  0.0000000E+00  0.2629582E-04
 -0.5050505E-02  0.0000000E+00 -0.5050505E-02  0.1347711E-07  0.0000000E+00  0.2906605E-04
 -0.5050505E-02  0.0000000E+00 -0.5050505E-02  0.4037955E-07  0.0000000E+00  0.2907705E-04
 -0.5050505E-02  0.0000000E+00 -0.5050505E-02  0.6712597E-07  0.0000000E+00  0.2909901E-04
 -0.5050505E-02  0.0000000E+00 -0.5050505E-02  0.9361266E-07  0.0000000E+00  0.2913184E-04
 -0.5050505E-02  0.0000000E+00 -0.5050505E-02  0.1197368E-06  0.0000000E+00  0.2917542E-04
 -0.5050505E-02  0.0000000E+00 -0.5050505E-02  0.1453967E-06  0.0000000E+00  0.2922958E-04
 -0.5050504E-02  0.0000000E+00 -0.5050505E-02  0.1704917E-06  0.0000000E+00  0.2929411E-04
 -0.5050501E-02  0.0000000E+00 -0.5050505E-02  0.1949229E-06  0.0000000E+00  0.2936875E-04
 -0.5050495E-02  0.0000000E+00 -0.5050505E-02  0.2185934E-06  0.0000000E+00  0.2945323E-04
 -0.5050482E-02  0.0000000E+00 -0.5050505E-02  0.2414084E-06  0.0000000E+00  0.2954720E-04
 -0.5050449E-02  0.0000000E+00 -0.5050505E-02  0.2632757E-06  0.0000000E+00  0.2965030E-04
 -0.5050376E-02  0.0000000E+00 -0.5050505E-02  0.2841058E-06  0.0000000E+00  0.2976213E-04
 -0.5050299E-02  0.0000000E+00 -0.5050505E-02  0.3038125E-06  0.0000000E+00  0.2988224E-04
 -0.5050178E-02  0.0000000E+00 -0.5050505E-02  0.3223131E-06  0.0000000E+00  0.3001017E-04
 -0.5050018E-02  0.0000000E+00 -0.5050505E-02  0.3395286E-06  0.0000000E+00  0.3014539E-04
 -0.5049710E-02  0.0000000E+00 -0.5050505E-02  0.3553842E-06  0.0000000E+00  0.3028738E-04
 -0.5049253E-02  0.0000000E+00 -0.5050505E-02  0.3698094E-06  0.0000000E+00  0.3043557E-04
 -0.5048636E-02  0.0000000E+00 -0.5050505E-02  0.3827388E-06  0.0000000E+00  0.3058935E-04
 -0.5047442E-02  0.0000000E+00 -0.5050505E-02  0.3941117E-06  0.0000000E+00  0.3074810E-04
 -0.5045727E-02  0.0000000E+00 -0.5050505E-02  0.4038732E-06  0.0000000E+00  0.3091118E-04
 -0.5043261E-02  0.0000000E+00 -0.5050505E-02  0.4119740E-06  0.0000000E+00  0.3107792E-04
 -0.5038714E-02  0.0000000E+00 -0.5050505E-02  0.4183707E-06  0.0000000E+00  0.3124763E-04
 -0.5032318E-02  0.0000000E+00 -0.5050505E-02  0.4230264E-06  0.0000000E+00  0.3141961E-04
 -0.5022454E-02  0.0000000E+00 -0.5050505E-02  0.4259109E-06  0.0000000E+00  0.3159314E-04
 -0.5012589E-02  0.0000000E+00 -0.5050505E-02  0.4270007E-06  0.0000000E+00  0.3176749E-04
 -0.5002725E-02  0.0000000E+00 -0.5050505E-02  0.4262795E-06  0.0000000E+00  0.3194193E-04
 -0.4992860E-02  0.0000000E+00 -0.5050505E-02  0.4237384E-06  0.0000000E+00  0.3211571E-04
 -0.4976523E-02  0.0000000E+00 -0.5050505E-02  0.4193760E-06  0.0000000E+00  0.3228809E-04
 -0.4956794E-02  0.0000000E+00 -0.5050505E-02  0.4131985E-06  0.0000000E+00  0.3245833E-04
 -0.4937066E-02  0.0000000E+00 -0.5050505E-02  0.4052202E-06  0.0000000E+00  0.3262568E-04
 -0.4906239E-02  0.0000000E+00 -0.5050505E-02  0.3954631E-06  0.0000000E+00  0.3278942E-04
 -0.4866782E-02  0.0000000E+00 -0.5050505E-02  0.3839572E-06  0.0000000E+00  0.3294882E-04
 -0.4827325E-02  0.0000000E+00 -0.5050505E-02  0.3707406E-06  0.0000000E+00  0.3310317E-04
 -0.4769372E-02  0.0000000E+00 -0.5050505E-02  0.3558592E-06  0.0000000E+00  0.3325179E-04
 -0.4690458E-02  0.0000000E+00 -0.5050505E-02  0.3393670E-06  0.0000000E+00  0.3339400E-04
 -0.4611543E-02  0.0000000E+00 -0.5050505E-02  0.3213255E-06  0.0000000E+00  0.3352916E-04
 -0.4503035E-02  0.0000000E+00 -0.5050505E-02  0.3018039E-06  0.0000000E+00  0.3365664E-04
 -0.4345206E-02  0.0000000E+00 -0.5050505E-02  0.2808787E-06  0.0000000E+00  0.3377587E-04
 -0.4187378E-02  0.0000000E+00 -0.5050505E-02  0.2586335E-06  0.0000000E+00  0.3388626E-04
 -0.3985156E-02  0.0000000E+00 -0.5050505E-02  0.2351586E-06  0.0000000E+00  0.3398732E-04
 -0.3669499E-02  0.0000000E+00 -0.5050505E-02  0.2105506E-06  0.0000000E+00  0.3407854E-04
 -0.3353842E-02  0.0000000E+00 -0.5050505E-02  0.1849119E-06  0.0000000E+00  0.3415950E-04
 -0.2978990E-02  0.0000000E+00 -0.5050505E-02  0.1583507E-06  0.0000000E+00  0.3422978E-04
 -0.2347676E-02  0.0000000E+00 -0.5050505E-02  0.1309796E-06  0.0000000E+00  0.3428903E-04
 -0.1716362E-02  0.0000000E+00 -0.5050505E-02  0.1029161E-06  0.0000000E+00  0.3433695E-04
 -0.1025842E-02  0.0000000E+00 -0.5050505E-02  0.7428098E-07  0.0000000E+00  0.3437328E-04
  0.2367855E-03  0.0000000E+00 -0.5050505E-02  0.4519843E-07  0.0000000E+00  0.3439781E-04
  0.1499413E-02  0.0000000E+00 -0.5050505E-02  0.1579504E-07  0.0000000E+00  0.3441037E-04
  0.2762042E-02  0.0000000E+00 -0.5050505E-02 -0.1380078E-07  0.0000000E+00  0.3441087E-04
 -0.5050505E-02  0.0000000E+00 -0.5050505E-02 -0.4345949E-07  0.0000000E+00  0.3439925E-04
 -0.5050505E-02  0.0000000E+00 -0.5050505E-02 -0.7305114E-07  0.0000000E+00  0.3437551E-04
 -0.5050505E-02  0.0000000E+00 -0.5050505E-02 -0.1024461E-06  0.0000000E+00  0.3433971E-04
 -0.5050505E-02  0.0000000E+00 -0.5050505E-02 -0.1315156E-06  0.0000000E+00  0.3429195E-04
 -0.5050505E-02  0.0000000E+00 -0.5050505E-02 -0.1601326E-06  0.0000000E+00  0.3423240E-04
 -0.5050505E-02  0.0000000E+00 -0.5050505E-02 -0.1881726E-06  0.0000000E+00  0.3416126E-04
 -0.5050505E-02  0.0000000E+00 -0.5050505E-02 -0.2155137E-06  0.0000000E+00  0.3407880E-04
 -0.5050504E-02  0.0000000E+00 -0.5050505E-02 -0.2420379E-06  0.0000000E+00  0.3398532E-04
 -0.5050501E-02  0.0000000E+00 -0.5050505E-02 -0.2676313E-06  0.0000000E+00  0.3388119E-04
 -0.5050495E-02  0.0000000E+00 -0.5050505E-02 -0.2921848E-06  0.0000000E+00  0.3376680E-04
 -0.5050482E-02  0.0000000E+00 -0.5050505E-02 -0.3155944E-06  0.0000000E+00  0.3364261E-04
 -0.5050449E-02  0.0000000E+00 -0.5050505E-02 -0.3377621E-06  0.0000000E+00  0.3350911E-04
 -0.5050376E-02  0.0000000E+00 -0.5050505E-02 -0.3585959E-06  0.0000000E+00  0.3336681E-04
 -0.5050299E-02  0.0000000E+00 -0.5050505E-02 -0.3780104E-06  0.0000000E+00  0.3321629E-04
 -0.5050178E-02  0.0000000E+00 -0.5050505E-02 -0.3959269E-06  0.0000000E+00  0.3305815E-04
 -0.5050018E-02  0.0000000E+00 -0.5050505E-02 -0.4122740E-06  0.0000000E+00  0.3289300E-04
 -0.5049710E-02  0.0000000E+00 -0.5050505E-02 -0.4269877E-06  0.0000000E+00  0.3272151E-04
 -0.5049253E-02  0.0000000E+00 -0.5050505E-02 -0.4400112E-06  0.0000000E+00  0.3254435E-04
 -0.5048636E-02  0.0000000E+00 -0.5050505E-02 -0.4512956E-06  0.0000000E+00  0.3236223E-04
 -0.5047442E-02  0.0000000E+00 -0.5050505E-02 -0.4607994E-06  0.0000000E+00  0.3217586E-04
 -0.5045727E-02  0.0000000E+00 -0.5050505E-02 -0.4684889E-06  0.0000000E+00  0.3198599E-04
 -0.5043261E-02  0.0000000E+00 -0.5050505E-02 -0.4743378E-06  0.0000000E+00  0.3179336E-04
 -0.5038714E-02  0.0000000E+00 -0.5050505E-02 -0.4783272E-06  0.0000000E+00  0.3159872E-04
 -0.5032318E-02  0.0000000E+00 -0.5050505E-02 -0.4804453E-06  0.0000000E+00  0.3140284E-04
 -0.5022454E-02  0.0000000E+00 -0.5050505E-02 -0.4806875E-06  0.0000000E+00  0.3120648E-04
 -0.5012589E-02  0.0000000E+00 -0.5050505E-02 -0.4790553E-06  0.0000000E+00  0.3101040E-04
 -0.5002725E-02  0.0000000E+00 -0.5050505E-02 -0.4755565E-06  0.0000000E+00  0.3081538E-04
 -0.4992860E-02  0.0000000E+00 -0.5050505E-02 -0.4702042E-06  0.0000000E+00  0.3062216E-04
 -0.4976523E-02  0.0000000E+00 -0.5050505E-02 -0.4630160E-06  0.0000000E+00  0.3043150E-04
 -0.4956794E-02  0.0000000E+00 -0.5050505E-02 -0.4540134E-06  0.0000000E+00  0.3024414E-04
 -0.4937066E-02  0.0000000E+00 -0.5050505E-02 -0.4432200E-06  0.0000000E+00  0.3006082E-04
 -0.4906239E-02  0.0000000E+00 -0.5050505E-02 -0.4306596E-06  0.0000000E+00  0.2988225E-04
 -0.4866782E-02  0.0000000E+00 -0.5050505E-02 -0.4163543E-06  0.0000000E+00  0.2970914E-04
 -0.4827325E-02  0.0000000E+00 -0.5050505E-02 -0.4003201E-06  0.0000000E+00  0.2954218E-04
 -0.4769372E-02  0.0000000E+00 -0.5050505E-02 -0.3825622E-06  0.0000000E+00  0.2938207E-04
 -0.4690458E-02  0.0000000E+00 -0.5050505E-02 -0.3630666E-06  0.0000000E+00  0.2922948E-04
 -0.4611543E-02  0.0000000E+00 -0.5050505E-02 -0.3417882E-06  0.0000000E+00  0.2908508E-04
 -0.4503035E-02  0.0000000E+00 -0.5050505E-02 -0.3186306E-06  0.0000000E+00  0.2894956E-04
 -0.4345206E-02  0.0000000E+00 -0.5050505E-02 -0.2934145E-06  0.0000000E+00  0.2882359E-04
 -0.4187378E-02  0.0000000E+00 -0.5050505E-02 -0.2658234E-06  0.0000000E+00  0.2870789E-04
 -0.3985156E-02  0.0000000E+00 -0.5050505E-02 -0.2353105E-06  0.0000000E+00  0.2860318E-04
 -0.3669499E-02  0.0000000E+00 -0.5050505E-02 -0.2009330E-06  0.0000000E+00  0.2851018E-04
 -0.3353842E-02  0.0000000E+00 -0.5050505E-02 -0.1610535E-06  0.0000000E+00  0.2842953E-04
 -0.2978990E-02  0.0000000E+00 -0.5050505E-02 -0.1127951E-06  0.0000000E+00  0.2836140E-04
 -0.2347676E-02  0.0000000E+00 -0.5050505E-02 -0.5106463E-07  0.0000000E+00  0.2830455E-04
 -0.1716362E-02  0.0000000E+00 -0.5050505E-02  0.3305324E-07  0.0000000E+00  0.2825348E-04
 -0.1025842E-02  0.0000000E+00 -0.5050505E-02  0.1541660E-06  0.0000000E+00  0.2819105E-04
  0.2367855E-03  0.0000000E+00 -0.5050505E-02  0.3306123E-06  0.0000000E+00  0.2807100E-04
  0.1499413E-02  0.0000000E+00 -0.5050505E-02  0.5557453E-06  0.0000000E+00  0.2779083E-04
  0.5287294E-02  0.0000000E+00 -0.5050505E-02  0.6322425E-06  0.0000000E+00  0.2724698E-04
 -0.5050505E-02  0.0000000E+00 -0.5050505E-02  0.1891229E-07  0.0000000E+00  0.2915975E-04
 -0.5050505E-02  0.0000000E+00 -0.5050505E-02  0.5666422E-07  0.0000000E+00  0.2917092E-04
 -0.5050505E-02  0.0000000E+00 -0.5050505E-02  0.9419743E-07  0.0000000E+00  0.2919320E-04
 -0.5050505E-02  0.0000000E+00 -0.5050505E-02  0.1313666E-06  0.0000000E+00  0.2922653E-04
 -0.5050505E-02  0.0000000E+00 -0.5050505E-02  0.1680275E-06  0.0000000E+00  0.2927076E-04
 -0.5050505E-02  0.0000000E+00 -0.5050505E-02  0.2040376E-06  0.0000000E+00  0.2932574E-04
 -0.5050504E-02  0.0000000E+00 -0.5050505E-02  0.2392558E-06  0.0000000E+00  0.2939124E-04
 -0.5050501E-02  0.0000000E+00 -0.5050505E-02  0.2735435E-06  0.0000000E+00  0.2946701E-04
 -0.5050495E-02  0.0000000E+00 -0.5050505E-02  0.3067646E-06  0.0000000E+00  0.2955276E-04
 -0.5050482E-02  0.0000000E+00 -0.5050505E-02  0.3387863E-06  0.0000000E+00  0.2964815E-04
 -0.5050449E-02  0.0000000E+00 -0.5050505E-02  0.3694792E-06  0.0000000E+00  0.2975282E-04
 -0.5050376E-02  0.0000000E+00 -0.5050505E-02  0.3987179E-06  0.0000000E+00  0.2986635E-04
 -0.5050299E-02  0.0000000E+00 -0.5050505E-02  0.4263814E-06  0.0000000E+00  0.2998830E-04
 -0.5050178E-02  0.0000000E+00 -0.5050505E-02  0.4523534E-06  0.0000000E+00  0.3011818E-04
 -0.5050018E-02  0.0000000E+00 -0.5050505E-02  0.4765233E-06  0.0000000E+00  0.3025549E-04
 -0.5049710E-02  0.0000000E+00 -0.5050505E-02  0.4987858E-06  0.0000000E+00  0.3039966E-04
 -0.5049253E-02  0.0000000E+00 -0.5050505E-02  0.5190422E-06  0.0000000E+00  0.3055014E-04
 -0.5048636E-02  0.0000000E+00 -0.5050505E-02  0.5372004E-06  0.0000000E+00  0.3070631E-04
 -0.5047442E-02  0.0000000E+00 -0.5050505E-02  0.5531752E-06  0.0000000E+00  0.3086754E-04
 -0.5045727E-02  0.0000000E+00 -0.5050505E-02  0.5668894E-06  0.0000000E+00  0.3103318E-04
 -0.5043261E-02  0.0000000E+00 -0.5050505E-02  0.5782736E-06  0.0000000E+00  0.3120254E-04
 -0.5038714E-02  0.0000000E+00 -0.5050505E-02  0.5872668E-06  0.0000000E+00  0.3137493E-04
 -0.5032318E-02  0.0000000E+00 -0.5050505E-02  0.5938171E-06  0.0000000E+00  0.3154964E-04
 -0.5022454E-02  0.0000000E+00 -0.5050505E-02  0.5978816E-06  0.0000000E+00  0.3172594E-04
 -0.5012589E-02  0.0000000E+00 -0.5050505E-02  0.5994274E-06  0.0000000E+00  0.3190309E-04
 -0.5002725E-02  0.0000000E+00 -0.5050505E-02  0.5984314E-06  0.0000000E+00  0.3208034E-04
 -0.4992860E-02  0.0000000E+00 -0.5050505E-02  0.5948807E-06  0.0000000E+00  0.3225693E-04
 -0.4976523E-02  0.0000000E+00 -0.5050505E-02  0.5887733E-06  0.0000000E+00  0.3243212E-04
 -0.4956794E-02  0.0000000E+00 -0.5050505E-02  0.5801177E-06  0.0000000E+00  0.3260514E-04
 -0.4937066E-02  0.0000000E+00 -0.5050505E-02  0.5689336E-06  0.0000000E+00  0.3277525E-04