title = "dataset feddes"
variables = "x", "y", "z", "vx", "vy", "vz"
zone t = "velocities, solution time =  2.900E+01 days        " i =   99, j =   99, k =    1,  f=point
 -0.5050505E-02  0.0000000E+00 -0.5050505E-02  0.6277032E-12  0.0000000E+00  0.1220870E-07
 -0.5050505E-02  0.0000000E+00 -0.5050505E-02  0.2247512E-11  0.0000000E+00  0.1221159E-07
 -0.5050505E-02  0.0000000E+00 -0.5050505E-02  0.4145549E-11  0.0000000E+00  0.1221802E-07
 -0.5050505E-02  0.0000000E+00 -0.5050505E-02  0.5973400E-11  0.0000000E+00  0.1222819E-07
 -0.5050505E-02  0.0000000E+00 -0.5050505E-02  0.7721144E-11  0.0000000E+00  0.1224196E-07
 -0.5050505E-02  0.0000000E+00 -0.5050505E-02  0.9407375E-11  0.0000000E+00  0.1225919E-07
 -0.5050504E-02  0.0000000E+00 -0.5050505E-02  0.1104161E-10  0.0000000E+00  0.1227976E-07
 -0.5050501E-02  0.0000000E+00 -0.5050505E-02  0.1262538E-10  0.0000000E+00  0.1230356E-07
 -0.5050495E-02  0.0000000E+00 -0.5050505E-02  0.1415633E-10  0.0000000E+00  0.1233049E-07
 -0.5050482E-02  0.0000000E+00 -0.5050505E-02  0.1562958E-10  0.0000000E+00  0.1236044E-07
 -0.5050449E-02  0.0000000E+00 -0.5050505E-02  0.1703951E-10  0.0000000E+00  0.1239330E-07
 -0.5050376E-02  0.0000000E+00 -0.5050505E-02  0.1838146E-10  0.0000000E+00  0.1242892E-07
 -0.5050299E-02  0.0000000E+00 -0.5050505E-02  0.1964976E-10  0.0000000E+00  0.1246717E-07
 -0.5050178E-02  0.0000000E+00 -0.5050505E-02  0.2083887E-10  0.0000000E+00  0.1250788E-07
 -0.5050018E-02  0.0000000E+00 -0.5050505E-02  0.2194443E-10  0.0000000E+00  0.1255091E-07
 -0.5049710E-02  0.0000000E+00 -0.5050505E-02  0.2296178E-10  0.0000000E+00  0.1259607E-07
 -0.5049253E-02  0.0000000E+00 -0.5050505E-02  0.2388642E-10  0.0000000E+00  0.1264318E-07
 -0.5048636E-02  0.0000000E+00 -0.5050505E-02  0.2471455E-10  0.0000000E+00  0.1269206E-07
 -0.5047442E-02  0.0000000E+00 -0.5050505E-02  0.2544264E-10  0.0000000E+00  0.1274250E-07
 -0.5045727E-02  0.0000000E+00 -0.5050505E-02  0.2606746E-10  0.0000000E+00  0.1279430E-07
 -0.5043261E-02  0.0000000E+00 -0.5050505E-02  0.2658622E-10  0.0000000E+00  0.1284725E-07
 -0.5038714E-02  0.0000000E+00 -0.5050505E-02  0.2699648E-10  0.0000000E+00  0.1290114E-07
 -0.5032318E-02  0.0000000E+00 -0.5050505E-02  0.2729635E-10  0.0000000E+00  0.1295574E-07
 -0.5022454E-02  0.0000000E+00 -0.5050505E-02  0.2748425E-10  0.0000000E+00  0.1301083E-07
 -0.5012589E-02  0.0000000E+00 -0.5050505E-02  0.2755911E-10  0.0000000E+00  0.1306619E-07
 -0.5002725E-02  0.0000000E+00 -0.5050505E-02  0.2752027E-10  0.0000000E+00  0.1312158E-07
 -0.4992860E-02  0.0000000E+00 -0.5050505E-02  0.2736758E-10  0.0000000E+00  0.1317678E-07
 -0.4976523E-02  0.0000000E+00 -0.5050505E-02  0.2710130E-10  0.0000000E+00  0.1323155E-07
 -0.4956794E-02  0.0000000E+00 -0.5050505E-02  0.2672223E-10  0.0000000E+00  0.1328568E-07
 -0.4937066E-02  0.0000000E+00 -0.5050505E-02  0.2623154E-10  0.0000000E+00  0.1333894E-07
 -0.4906239E-02  0.0000000E+00 -0.5050505E-02  0.2563097E-10  0.0000000E+00  0.1339109E-07
 -0.4866782E-02  0.0000000E+00 -0.5050505E-02  0.2492268E-10  0.0000000E+00  0.1344193E-07
 -0.4827325E-02  0.0000000E+00 -0.5050505E-02  0.2410925E-10  0.0000000E+00  0.1349124E-07
 -0.4769372E-02  0.0000000E+00 -0.5050505E-02  0.2319382E-10  0.0000000E+00  0.1353881E-07
 -0.4690458E-02  0.0000000E+00 -0.5050505E-02  0.2217986E-10  0.0000000E+00  0.1358444E-07
 -0.4611543E-02  0.0000000E+00 -0.5050505E-02  0.2107130E-10  0.0000000E+00  0.1362794E-07
 -0.4503035E-02  0.0000000E+00 -0.5050505E-02  0.1987249E-10  0.0000000E+00  0.1366911E-07
 -0.4345206E-02  0.0000000E+00 -0.5050505E-02  0.1858808E-10  0.0000000E+00  0.1370779E-07
 -0.4187378E-02  0.0000000E+00 -0.5050505E-02  0.1722305E-10  0.0000000E+00  0.1374381E-07
 -0.3985156E-02  0.0000000E+00 -0.5050505E-02  0.1578259E-10  0.0000000E+00  0.1377700E-07
 -0.3669499E-02  0.0000000E+00 -0.5050505E-02  0.1427197E-10  0.0000000E+00  0.1380722E-07
 -0.3353842E-02  0.0000000E+00 -0.5050505E-02  0.1269630E-10  0.0000000E+00  0.1383434E-07
 -0.2978990E-02  0.0000000E+00 -0.5050505E-02  0.1106053E-10  0.0000000E+00  0.1385824E-07
 -0.2347676E-02  0.0000000E+00 -0.5050505E-02  0.9369091E-11  0.0000000E+00  0.1387878E-07
 -0.1716362E-02  0.0000000E+00 -0.5050505E-02  0.7626401E-11  0.0000000E+00  0.1389587E-07
 -0.1025842E-02  0.0000000E+00 -0.5050505E-02  0.5837981E-11  0.0000000E+00  0.1390941E-07
  0.2367855E-03  0.0000000E+00 -0.5050505E-02  0.4012972E-11  0.0000000E+00  0.1391932E-07
  0.1499413E-02  0.0000000E+00 -0.5050505E-02  0.2167682E-11  0.0000000E+00  0.1392554E-07
  0.2762042E-02  0.0000000E+00 -0.5050505E-02  0.3229839E-12  0.0000000E+00  0.1392804E-07
 -0.5050505E-02  0.0000000E+00 -0.5050505E-02 -0.1286447E-11  0.0000000E+00  0.1392707E-07
 -0.5050505E-02  0.0000000E+00 -0.5050505E-02 -0.2923853E-11  0.0000000E+00  0.1392284E-07
 -0.5050505E-02  0.0000000E+00 -0.5050505E-02 -0.4848688E-11  0.0000000E+00  0.1391502E-07
 -0.5050505E-02  0.0000000E+00 -0.5050505E-02 -0.6737323E-11  0.0000000E+00  0.1390337E-07
 -0.5050505E-02  0.0000000E+00 -0.5050505E-02 -0.8556596E-11  0.0000000E+00  0.1388799E-07
 -0.5050505E-02  0.0000000E+00 -0.5050505E-02 -0.1031650E-10  0.0000000E+00  0.1386901E-07
 -0.5050505E-02  0.0000000E+00 -0.5050505E-02 -0.1202397E-10  0.0000000E+00  0.1384654E-07
 -0.5050504E-02  0.0000000E+00 -0.5050505E-02 -0.1367940E-10  0.0000000E+00  0.1382069E-07
 -0.5050501E-02  0.0000000E+00 -0.5050505E-02 -0.1527933E-10  0.0000000E+00  0.1379157E-07
 -0.5050495E-02  0.0000000E+00 -0.5050505E-02 -0.1681854E-10  0.0000000E+00  0.1375929E-07
 -0.5050482E-02  0.0000000E+00 -0.5050505E-02 -0.1829118E-10  0.0000000E+00  0.1372398E-07
 -0.5050449E-02  0.0000000E+00 -0.5050505E-02 -0.1969143E-10  0.0000000E+00  0.1368578E-07
 -0.5050376E-02  0.0000000E+00 -0.5050505E-02 -0.2101361E-10  0.0000000E+00  0.1364485E-07
 -0.5050299E-02  0.0000000E+00 -0.5050505E-02 -0.2225232E-10  0.0000000E+00  0.1360134E-07
 -0.5050178E-02  0.0000000E+00 -0.5050505E-02 -0.2340252E-10  0.0000000E+00  0.1355542E-07
 -0.5050018E-02  0.0000000E+00 -0.5050505E-02 -0.2445950E-10  0.0000000E+00  0.1350729E-07
 -0.5049710E-02  0.0000000E+00 -0.5050505E-02 -0.2541899E-10  0.0000000E+00  0.1345713E-07
 -0.5049253E-02  0.0000000E+00 -0.5050505E-02 -0.2627714E-10  0.0000000E+00  0.1340514E-07
 -0.5048636E-02  0.0000000E+00 -0.5050505E-02 -0.2703040E-10  0.0000000E+00  0.1335153E-07
 -0.5047442E-02  0.0000000E+00 -0.5050505E-02 -0.2767580E-10  0.0000000E+00  0.1329652E-07
 -0.5045727E-02  0.0000000E+00 -0.5050505E-02 -0.2821066E-10  0.0000000E+00  0.1324031E-07
 -0.5043261E-02  0.0000000E+00 -0.5050505E-02 -0.2863281E-10  0.0000000E+00  0.1318315E-07
 -0.5038714E-02  0.0000000E+00 -0.5050505E-02 -0.2894044E-10  0.0000000E+00  0.1312525E-07
 -0.5032318E-02  0.0000000E+00 -0.5050505E-02 -0.2913223E-10  0.0000000E+00  0.1306685E-07
 -0.5022454E-02  0.0000000E+00 -0.5050505E-02 -0.2920717E-10  0.0000000E+00  0.1300818E-07
 -0.5012589E-02  0.0000000E+00 -0.5050505E-02 -0.2916465E-10  0.0000000E+00  0.1294948E-07
 -0.5002725E-02  0.0000000E+00 -0.5050505E-02 -0.2900446E-10  0.0000000E+00  0.1289098E-07
 -0.4992860E-02  0.0000000E+00 -0.5050505E-02 -0.2872660E-10  0.0000000E+00  0.1283292E-07
 -0.4976523E-02  0.0000000E+00 -0.5050505E-02 -0.2833135E-10  0.0000000E+00  0.1277554E-07
 -0.4956794E-02  0.0000000E+00 -0.5050505E-02 -0.2781916E-10  0.0000000E+00  0.1271907E-07
 -0.4937066E-02  0.0000000E+00 -0.5050505E-02 -0.2719048E-10  0.0000000E+00  0.1266375E-07
 -0.4906239E-02  0.0000000E+00 -0.5050505E-02 -0.2644562E-10  0.0000000E+00  0.1260981E-07
 -0.4866782E-02  0.0000000E+00 -0.5050505E-02 -0.2558454E-10  0.0000000E+00  0.1255748E-07
 -0.4827325E-02  0.0000000E+00 -0.5050505E-02 -0.2460637E-10  0.0000000E+00  0.1250701E-07
 -0.4769372E-02  0.0000000E+00 -0.5050505E-02 -0.2350893E-10  0.0000000E+00  0.1245862E-07
 -0.4690458E-02  0.0000000E+00 -0.5050505E-02 -0.2228771E-10  0.0000000E+00  0.1241257E-07
 -0.4611543E-02  0.0000000E+00 -0.5050505E-02 -0.2093442E-10  0.0000000E+00  0.1236910E-07
 -0.4503035E-02  0.0000000E+00 -0.5050505E-02 -0.1943421E-10  0.0000000E+00  0.1232850E-07
 -0.4345206E-02  0.0000000E+00 -0.5050505E-02 -0.1776152E-10  0.0000000E+00  0.1229110E-07
 -0.4187378E-02  0.0000000E+00 -0.5050505E-02 -0.1587181E-10  0.0000000E+00  0.1225727E-07
 -0.3985156E-02  0.0000000E+00 -0.5050505E-02 -0.1368739E-10  0.0000000E+00  0.1222755E-07
 -0.3669499E-02  0.0000000E+00 -0.5050505E-02 -0.1106850E-10  0.0000000E+00  0.1220265E-07
 -0.3353842E-02  0.0000000E+00 -0.5050505E-02 -0.7751682E-11  0.0000000E+00  0.1218372E-07
 -0.2978990E-02  0.0000000E+00 -0.5050505E-02 -0.3198071E-11  0.0000000E+00  0.1217271E-07
 -0.2347676E-02  0.0000000E+00 -0.5050505E-02  0.3588491E-11  0.0000000E+00  0.1217310E-07
 -0.1716362E-02  0.0000000E+00 -0.5050505E-02  0.1567952E-10  0.0000000E+00  0.1219248E-07
 -0.1025842E-02  0.0000000E+00 -0.5050505E-02  0.4072473E-10  0.0000000E+00  0.1224920E-07
  0.2367855E-03  0.0000000E+00 -0.5050505E-02  0.1016502E-09  0.0000000E+00  0.1239238E-07
  0.1499413E-02  0.0000000E+00 -0.5050505E-02  0.2740152E-09  0.0000000E+00  0.1277018E-07
  0.5287294E-02  0.0000000E+00 -0.5050505E-02  0.4509893E-08  0.0000000E+00  0.1020365E-07
 -0.5050505E-02  0.0000000E+00 -0.5050505E-02  0.1957434E-11  0.0000000E+00  0.1222209E-07
 -0.5050505E-02  0.0000000E+00 -0.5050505E-02  0.6832199E-11  0.0000000E+00  0.1222516E-07
 -0.5050505E-02  0.0000000E+00 -0.5050505E-02  0.1246850E-10  0.0000000E+00  0.1223175E-07
 -0.5050505E-02  0.0000000E+00 -0.5050505E-02  0.1792174E-10  0.0000000E+00  0.1224201E-07
 -0.5050505E-02  0.0000000E+00 -0.5050505E-02  0.2315629E-10  0.0000000E+00  0.1225586E-07
 -0.5050505E-02  0.0000000E+00 -0.5050505E-02  0.2821301E-10  0.0000000E+00  0.1227316E-07
 -0.5050504E-02  0.0000000E+00 -0.5050505E-02  0.3311526E-10  0.0000000E+00  0.1229382E-07
 -0.5050501E-02  0.0000000E+00 -0.5050505E-02  0.3786598E-10  0.0000000E+00  0.1231774E-07
 -0.5050495E-02  0.0000000E+00 -0.5050505E-02  0.4245753E-10  0.0000000E+00  0.1234480E-07
 -0.5050482E-02  0.0000000E+00 -0.5050505E-02  0.4687628E-10  0.0000000E+00  0.1237490E-07
 -0.5050449E-02  0.0000000E+00 -0.5050505E-02  0.5110535E-10  0.0000000E+00  0.1240791E-07
 -0.5050376E-02  0.0000000E+00 -0.5050505E-02  0.5512996E-10  0.0000000E+00  0.1244370E-07
 -0.5050299E-02  0.0000000E+00 -0.5050505E-02  0.5893384E-10  0.0000000E+00  0.1248214E-07
 -0.5050178E-02  0.0000000E+00 -0.5050505E-02  0.6250060E-10  0.0000000E+00  0.1252305E-07
 -0.5050018E-02  0.0000000E+00 -0.5050505E-02  0.6581652E-10  0.0000000E+00  0.1256628E-07
 -0.5049710E-02  0.0000000E+00 -0.5050505E-02  0.6886785E-10  0.0000000E+00  0.1261166E-07
 -0.5049253E-02  0.0000000E+00 -0.5050505E-02  0.7164133E-10  0.0000000E+00  0.1265901E-07
 -0.5048636E-02  0.0000000E+00 -0.5050505E-02  0.7412532E-10  0.0000000E+00  0.1270812E-07
 -0.5047442E-02  0.0000000E+00 -0.5050505E-02  0.7630926E-10  0.0000000E+00  0.1275881E-07
 -0.5045727E-02  0.0000000E+00 -0.5050505E-02  0.7818354E-10  0.0000000E+00  0.1281086E-07
 -0.5043261E-02  0.0000000E+00 -0.5050505E-02  0.7973965E-10  0.0000000E+00  0.1286407E-07
 -0.5038714E-02  0.0000000E+00 -0.5050505E-02  0.8097048E-10  0.0000000E+00  0.1291822E-07
 -0.5032318E-02  0.0000000E+00 -0.5050505E-02  0.8187018E-10  0.0000000E+00  0.1297309E-07
 -0.5022454E-02  0.0000000E+00 -0.5050505E-02  0.8243404E-10  0.0000000E+00  0.1302845E-07
 -0.5012589E-02  0.0000000E+00 -0.5050505E-02  0.8265888E-10  0.0000000E+00  0.1308408E-07
 -0.5002725E-02  0.0000000E+00 -0.5050505E-02  0.8254271E-10  0.0000000E+00  0.1313974E-07
 -0.4992860E-02  0.0000000E+00 -0.5050505E-02  0.8208506E-10  0.0000000E+00  0.1319522E-07
 -0.4976523E-02  0.0000000E+00 -0.5050505E-02  0.8128674E-10  0.0000000E+00  0.1325027E-07
 -0.4956794E-02  0.0000000E+00 -0.5050505E-02  0.8015007E-10  0.0000000E+00  0.1330466E-07
 -0.4937066E-02  0.0000000E+00 -0.5050505E-02  0.7867866E-10  0.0000000E+00  0.1335818E-07
 -0.4906239E-02  0.0000000E+00 -0.5050505E-02  0.7687765E-10  0.0000000E+00  0.1341060E-07
 -0.4866782E-02  0.0000000E+00 -0.5050505E-02  0.7475351E-10  0.0000000E+00  0.1346170E-07
 -0.4827325E-02  0.0000000E+00 -0.5050505E-02  0.7231408E-10  0.0000000E+00  0.1351125E-07
 -0.4769372E-02  0.0000000E+00 -0.5050505E-02  0.6956862E-10  0.0000000E+00  0.1355906E-07
 -0.4690458E-02  0.0000000E+00 -0.5050505E-02  0.6652766E-10  0.0000000E+00  0.1360493E-07
 -0.4611543E-02  0.0000000E+00 -0.5050505E-02  0.6320297E-10  0.0000000E+00  0.1364864E-07
 -0.4503035E-02  0.0000000E+00 -0.5050505E-02  0.5960754E-10  0.0000000E+00  0.1369003E-07
 -0.4345206E-02  0.0000000E+00 -0.5050505E-02  0.5575540E-10  0.0000000E+00  0.1372890E-07
 -0.4187378E-02  0.0000000E+00 -0.5050505E-02  0.5166155E-10  0.0000000E+00  0.1376510E-07
 -0.3985156E-02  0.0000000E+00 -0.5050505E-02  0.4734155E-10  0.0000000E+00  0.1379847E-07
 -0.3669499E-02  0.0000000E+00 -0.5050505E-02  0.4281121E-10  0.0000000E+00  0.1382885E-07
 -0.3353842E-02  0.0000000E+00 -0.5050505E-02  0.3808595E-10  0.0000000E+00  0.1385612E-07
 -0.2978990E-02  0.0000000E+00 -0.5050505E-02  0.3318027E-10  0.0000000E+00  0.1388014E-07
 -0.2347676E-02  0.0000000E+00 -0.5050505E-02  0.2810693E-10  0.0000000E+00  0.1390080E-07
 -0.1716362E-02  0.0000000E+00 -0.5050505E-02  0.2287795E-10  0.0000000E+00  0.1391798E-07
 -0.1025842E-02  0.0000000E+00 -0.5050505E-02  0.1750800E-10  0.0000000E+00  0.1393159E-07
  0.2367855E-03  0.0000000E+00 -0.5050505E-02  0.1202536E-10  0.0000000E+00  0.1394154E-07
  0.1499413E-02  0.0000000E+00 -0.5050505E-02  0.6492858E-11  0.0000000E+00  0.1394776E-07
  0.2762042E-02  0.0000000E+00 -0.5050505E-02  0.1031842E-11  0.0000000E+00  0.1395033E-07
 -0.5050505E-02  0.0000000E+00 -0.5050505E-02 -0.3842558E-11  0.0000000E+00  0.1394944E-07
 -0.5050505E-02  0.0000000E+00 -0.5050505E-02 -0.8818267E-11  0.0000000E+00  0.1394515E-07
 -0.5050505E-02  0.0000000E+00 -0.5050505E-02 -0.1455328E-10  0.0000000E+00  0.1393724E-07
 -0.5050505E-02  0.0000000E+00 -0.5050505E-02 -0.2020122E-10  0.0000000E+00  0.1392552E-07
 -0.5050505E-02  0.0000000E+00 -0.5050505E-02 -0.2565561E-10  0.0000000E+00  0.1391008E-07
 -0.5050505E-02  0.0000000E+00 -0.5050505E-02 -0.3093579E-10  0.0000000E+00  0.1389102E-07
 -0.5050505E-02  0.0000000E+00 -0.5050505E-02 -0.3605882E-10  0.0000000E+00  0.1386846E-07
 -0.5050504E-02  0.0000000E+00 -0.5050505E-02 -0.4102513E-10  0.0000000E+00  0.1384249E-07
 -0.5050501E-02  0.0000000E+00 -0.5050505E-02 -0.4582445E-10  0.0000000E+00  0.1381323E-07
 -0.5050495E-02  0.0000000E+00 -0.5050505E-02 -0.5044127E-10  0.0000000E+00  0.1378080E-07
 -0.5050482E-02  0.0000000E+00 -0.5050505E-02 -0.5485835E-10  0.0000000E+00  0.1374532E-07
 -0.5050449E-02  0.0000000E+00 -0.5050505E-02 -0.5905819E-10  0.0000000E+00  0.1370694E-07
 -0.5050376E-02  0.0000000E+00 -0.5050505E-02 -0.6302383E-10  0.0000000E+00  0.1366581E-07
 -0.5050299E-02  0.0000000E+00 -0.5050505E-02 -0.6673910E-10  0.0000000E+00  0.1362209E-07
 -0.5050178E-02  0.0000000E+00 -0.5050505E-02 -0.7018885E-10  0.0000000E+00  0.1357596E-07
 -0.5050018E-02  0.0000000E+00 -0.5050505E-02 -0.7335905E-10  0.0000000E+00  0.1352759E-07
 -0.5049710E-02  0.0000000E+00 -0.5050505E-02 -0.7623683E-10  0.0000000E+00  0.1347719E-07
 -0.5049253E-02  0.0000000E+00 -0.5050505E-02 -0.7881057E-10  0.0000000E+00  0.1342495E-07
 -0.5048636E-02  0.0000000E+00 -0.5050505E-02 -0.8106984E-10  0.0000000E+00  0.1337108E-07
 -0.5047442E-02  0.0000000E+00 -0.5050505E-02 -0.8300553E-10  0.0000000E+00  0.1331580E-07
 -0.5045727E-02  0.0000000E+00 -0.5050505E-02 -0.8460976E-10  0.0000000E+00  0.1325933E-07
 -0.5043261E-02  0.0000000E+00 -0.5050505E-02 -0.8587594E-10  0.0000000E+00  0.1320189E-07
 -0.5038714E-02  0.0000000E+00 -0.5050505E-02 -0.8679875E-10  0.0000000E+00  0.1314371E-07
 -0.5032318E-02  0.0000000E+00 -0.5050505E-02 -0.8737413E-10  0.0000000E+00  0.1308502E-07
 -0.5022454E-02  0.0000000E+00 -0.5050505E-02 -0.8759917E-10  0.0000000E+00  0.1302607E-07
 -0.5012589E-02  0.0000000E+00 -0.5050505E-02 -0.8747207E-10  0.0000000E+00  0.1296708E-07
 -0.5002725E-02  0.0000000E+00 -0.5050505E-02 -0.8699218E-10  0.0000000E+00  0.1290830E-07
 -0.4992860E-02  0.0000000E+00 -0.5050505E-02 -0.8615963E-10  0.0000000E+00  0.1284996E-07
 -0.4976523E-02  0.0000000E+00 -0.5050505E-02 -0.8497531E-10  0.0000000E+00  0.1279229E-07
 -0.4956794E-02  0.0000000E+00 -0.5050505E-02 -0.8344071E-10  0.0000000E+00  0.1273555E-07
 -0.4937066E-02  0.0000000E+00 -0.5050505E-02 -0.8155728E-10  0.0000000E+00  0.1267994E-07
 -0.4906239E-02  0.0000000E+00 -0.5050505E-02 -0.7932630E-10  0.0000000E+00  0.1262573E-07
 -0.4866782E-02  0.0000000E+00 -0.5050505E-02 -0.7674794E-10  0.0000000E+00  0.1257313E-07
 -0.4827325E-02  0.0000000E+00 -0.5050505E-02 -0.7382024E-10  0.0000000E+00  0.1252237E-07
 -0.4769372E-02  0.0000000E+00 -0.5050505E-02 -0.7053749E-10  0.0000000E+00  0.1247370E-07
 -0.4690458E-02  0.0000000E+00 -0.5050505E-02 -0.6688781E-10  0.0000000E+00  0.1242735E-07
 -0.4611543E-02  0.0000000E+00 -0.5050505E-02 -0.6284869E-10  0.0000000E+00  0.1238357E-07
 -0.4503035E-02  0.0000000E+00 -0.5050505E-02 -0.5838021E-10  0.0000000E+00  0.1234262E-07
 -0.4345206E-02  0.0000000E+00 -0.5050505E-02 -0.5341316E-10  0.0000000E+00  0.1230480E-07
 -0.4187378E-02  0.0000000E+00 -0.5050505E-02 -0.4782845E-10  0.0000000E+00  0.1227044E-07
 -0.3985156E-02  0.0000000E+00 -0.5050505E-02 -0.4142134E-10  0.0000000E+00  0.1223997E-07
 -0.3669499E-02  0.0000000E+00 -0.5050505E-02 -0.3383643E-10  0.0000000E+00  0.1221394E-07
 -0.3353842E-02  0.0000000E+00 -0.5050505E-02 -0.2444285E-10  0.0000000E+00  0.1219308E-07
 -0.2978990E-02  0.0000000E+00 -0.5050505E-02 -0.1205466E-10  0.0000000E+00  0.1217834E-07
 -0.2347676E-02  0.0000000E+00 -0.5050505E-02  0.5489410E-11  0.0000000E+00  0.1217095E-07
 -0.1716362E-02  0.0000000E+00 -0.5050505E-02  0.3422623E-10  0.0000000E+00  0.1217225E-07
 -0.1025842E-02  0.0000000E+00 -0.5050505E-02  0.8647238E-10  0.0000000E+00  0.1218050E-07
  0.2367855E-03  0.0000000E+00 -0.5050505E-02  0.1937561E-09  0.0000000E+00  0.1217676E-07
  0.1499413E-02  0.0000000E+00 -0.5050505E-02  0.4378738E-09  0.0000000E+00  0.1205850E-07
  0.5287294E-02  0.0000000E+00 -0.5050505E-02  0.1042533E-08  0.0000000E+00  0.1132991E-07
 -0.5050505E-02  0.0000000E+00 -0.5050505E-02  0.3409925E-11  0.0000000E+00  0.1224965E-07
 -0.5050505E-02  0.0000000E+00 -0.5050505E-02  0.1157587E-10  0.0000000E+00  0.1225286E-07
 -0.5050505E-02  0.0000000E+00 -0.5050505E-02  0.2086857E-10  0.0000000E+00  0.1225960E-07
 -0.5050505E-02  0.0000000E+00 -0.5050505E-02  0.2990588E-10  0.0000000E+00  0.1227001E-07
 -0.5050505E-02  0.0000000E+00 -0.5050505E-02  0.3861853E-10  0.0000000E+00  0.1228400E-07
 -0.5050505E-02  0.0000000E+00 -0.5050505E-02  0.4704840E-10  0.0000000E+00  0.1230147E-07
 -0.5050504E-02  0.0000000E+00 -0.5050505E-02  0.5522414E-10  0.0000000E+00  0.1232233E-07
 -0.5050501E-02  0.0000000E+00 -0.5050505E-02  0.6314775E-10  0.0000000E+00  0.1234648E-07
 -0.5050495E-02  0.0000000E+00 -0.5050505E-02  0.7080500E-10  0.0000000E+00  0.1237380E-07
 -0.5050482E-02  0.0000000E+00 -0.5050505E-02  0.7817407E-10  0.0000000E+00  0.1240419E-07
 -0.5050449E-02  0.0000000E+00 -0.5050505E-02  0.8522741E-10  0.0000000E+00  0.1243752E-07
 -0.5050376E-02  0.0000000E+00 -0.5050505E-02  0.9193913E-10  0.0000000E+00  0.1247365E-07
 -0.5050299E-02  0.0000000E+00 -0.5050505E-02  0.9828287E-10  0.0000000E+00  0.1251245E-07
 -0.5050178E-02  0.0000000E+00 -0.5050505E-02  0.1042317E-09  0.0000000E+00  0.1255376E-07
 -0.5050018E-02  0.0000000E+00 -0.5050505E-02  0.1097621E-09  0.0000000E+00  0.1259741E-07
 -0.5049710E-02  0.0000000E+00 -0.5050505E-02  0.1148513E-09  0.0000000E+00  0.1264323E-07
 -0.5049253E-02  0.0000000E+00 -0.5050505E-02  0.1194773E-09  0.0000000E+00  0.1269103E-07
 -0.5048636E-02  0.0000000E+00 -0.5050505E-02  0.1236206E-09  0.0000000E+00  0.1274062E-07
 -0.5047442E-02  0.0000000E+00 -0.5050505E-02  0.1272636E-09  0.0000000E+00  0.1279180E-07
 -0.5045727E-02  0.0000000E+00 -0.5050505E-02  0.1303902E-09  0.0000000E+00  0.1284436E-07
 -0.5043261E-02  0.0000000E+00 -0.5050505E-02  0.1329863E-09  0.0000000E+00  0.1289809E-07
 -0.5038714E-02  0.0000000E+00 -0.5050505E-02  0.1350401E-09  0.0000000E+00  0.1295277E-07
 -0.5032318E-02  0.0000000E+00 -0.5050505E-02  0.1365415E-09  0.0000000E+00  0.1300817E-07
 -0.5022454E-02  0.0000000E+00 -0.5050505E-02  0.1374829E-09  0.0000000E+00  0.1306408E-07
 -0.5012589E-02  0.0000000E+00 -0.5050505E-02  0.1378589E-09  0.0000000E+00  0.1312025E-07
 -0.5002725E-02  0.0000000E+00 -0.5050505E-02  0.1376663E-09  0.0000000E+00  0.1317647E-07
 -0.4992860E-02  0.0000000E+00 -0.5050505E-02  0.1369041E-09  0.0000000E+00  0.1323249E-07
 -0.4976523E-02  0.0000000E+00 -0.5050505E-02  0.1355737E-09  0.0000000E+00  0.1328808E-07
 -0.4956794E-02  0.0000000E+00 -0.5050505E-02  0.1336790E-09  0.0000000E+00  0.1334302E-07
 -0.4937066E-02  0.0000000E+00 -0.5050505E-02  0.1312260E-09  0.0000000E+00  0.1339707E-07
 -0.4906239E-02  0.0000000E+00 -0.5050505E-02  0.1282233E-09  0.0000000E+00  0.1345001E-07
 -0.4866782E-02  0.0000000E+00 -0.5050505E-02  0.1246816E-09  0.0000000E+00  0.1350162E-07
 -0.4827325E-02  0.0000000E+00 -0.5050505E-02  0.1206140E-09  0.0000000E+00  0.1355167E-07
 -0.4769372E-02  0.0000000E+00 -0.5050505E-02  0.1160359E-09  0.0000000E+00  0.1359996E-07
 -0.4690458E-02  0.0000000E+00 -0.5050505E-02  0.1109649E-09  0.0000000E+00  0.1364629E-07
 -0.4611543E-02  0.0000000E+00 -0.5050505E-02  0.1054207E-09  0.0000000E+00  0.1369045E-07
 -0.4503035E-02  0.0000000E+00 -0.5050505E-02  0.9942488E-10  0.0000000E+00  0.1373225E-07
 -0.4345206E-02  0.0000000E+00 -0.5050505E-02  0.9300098E-10  0.0000000E+00  0.1377153E-07
 -0.4187378E-02  0.0000000E+00 -0.5050505E-02  0.8617401E-10  0.0000000E+00  0.1380810E-07
 -0.3985156E-02  0.0000000E+00 -0.5050505E-02  0.7897005E-10  0.0000000E+00  0.1384181E-07
 -0.3669499E-02  0.0000000E+00 -0.5050505E-02  0.7141558E-10  0.0000000E+00  0.1387250E-07
 -0.3353842E-02  0.0000000E+00 -0.5050505E-02  0.6353646E-10  0.0000000E+00  0.1390005E-07
 -0.2978990E-02  0.0000000E+00 -0.5050505E-02  0.5535645E-10  0.0000000E+00  0.1392433E-07
 -0.2347676E-02  0.0000000E+00 -0.5050505E-02  0.4689594E-10  0.0000000E+00  0.1394522E-07
 -0.1716362E-02  0.0000000E+00 -0.5050505E-02  0.3817222E-10  0.0000000E+00  0.1396259E-07
 -0.1025842E-02  0.0000000E+00 -0.5050505E-02  0.2920546E-10  0.0000000E+00  0.1397636E-07
  0.2367855E-03  0.0000000E+00 -0.5050505E-02  0.2004133E-10  0.0000000E+00  0.1398640E-07
  0.1499413E-02  0.0000000E+00 -0.5050505E-02  0.1080762E-10  0.0000000E+00  0.1399268E-07
  0.2762042E-02  0.0000000E+00 -0.5050505E-02  0.1829154E-11  0.0000000E+00  0.1399529E-07
 -0.5050505E-02  0.0000000E+00 -0.5050505E-02 -0.6369114E-11  0.0000000E+00  0.1399443E-07
 -0.5050505E-02  0.0000000E+00 -0.5050505E-02 -0.1478592E-10  0.0000000E+00  0.1399011E-07
 -0.5050505E-02  0.0000000E+00 -0.5050505E-02 -0.2428885E-10  0.0000000E+00  0.1398210E-07
 -0.5050505E-02  0.0000000E+00 -0.5050505E-02 -0.3367718E-10  0.0000000E+00  0.1397027E-07
 -0.5050505E-02  0.0000000E+00 -0.5050505E-02 -0.4276830E-10  0.0000000E+00  0.1395469E-07
 -0.5050505E-02  0.0000000E+00 -0.5050505E-02 -0.5157717E-10  0.0000000E+00  0.1393547E-07
 -0.5050505E-02  0.0000000E+00 -0.5050505E-02 -0.6012479E-10  0.0000000E+00  0.1391269E-07
 -0.5050504E-02  0.0000000E+00 -0.5050505E-02 -0.6841000E-10  0.0000000E+00  0.1388649E-07
 -0.5050501E-02  0.0000000E+00 -0.5050505E-02 -0.7641562E-10  0.0000000E+00  0.1385695E-07
 -0.5050495E-02  0.0000000E+00 -0.5050505E-02 -0.8411622E-10  0.0000000E+00  0.1382421E-07
 -0.5050482E-02  0.0000000E+00 -0.5050505E-02 -0.9148334E-10  0.0000000E+00  0.1378840E-07
 -0.5050449E-02  0.0000000E+00 -0.5050505E-02 -0.9848796E-10  0.0000000E+00  0.1374965E-07
 -0.5050376E-02  0.0000000E+00 -0.5050505E-02 -0.1051018E-09  0.0000000E+00  0.1370813E-07
 -0.5050299E-02  0.0000000E+00 -0.5050505E-02 -0.1112980E-09  0.0000000E+00  0.1366399E-07
 -0.5050178E-02  0.0000000E+00 -0.5050505E-02 -0.1170513E-09  0.0000000E+00  0.1361741E-07
 -0.5050018E-02  0.0000000E+00 -0.5050505E-02 -0.1223384E-09  0.0000000E+00  0.1356858E-07
 -0.5049710E-02  0.0000000E+00 -0.5050505E-02 -0.1271377E-09  0.0000000E+00  0.1351770E-07
 -0.5049253E-02  0.0000000E+00 -0.5050505E-02 -0.1314300E-09  0.0000000E+00  0.1346496E-07
 -0.5048636E-02  0.0000000E+00 -0.5050505E-02 -0.1351978E-09  0.0000000E+00  0.1341057E-07
 -0.5047442E-02  0.0000000E+00 -0.5050505E-02 -0.1384260E-09  0.0000000E+00  0.1335476E-07
 -0.5045727E-02  0.0000000E+00 -0.5050505E-02 -0.1411015E-09  0.0000000E+00  0.1329774E-07
 -0.5043261E-02  0.0000000E+00 -0.5050505E-02 -0.1432133E-09  0.0000000E+00  0.1323975E-07
 -0.5038714E-02  0.0000000E+00 -0.5050505E-02 -0.1447527E-09  0.0000000E+00  0.1318101E-07
 -0.5032318E-02  0.0000000E+00 -0.5050505E-02 -0.1457128E-09  0.0000000E+00  0.1312176E-07
 -0.5022454E-02  0.0000000E+00 -0.5050505E-02 -0.1460890E-09  0.0000000E+00  0.1306224E-07
 -0.5012589E-02  0.0000000E+00 -0.5050505E-02 -0.1458784E-09  0.0000000E+00  0.1300268E-07
 -0.5002725E-02  0.0000000E+00 -0.5050505E-02 -0.1450799E-09  0.0000000E+00  0.1294333E-07
 -0.4992860E-02  0.0000000E+00 -0.5050505E-02 -0.1436941E-09  0.0000000E+00  0.1288442E-07
 -0.4976523E-02  0.0000000E+00 -0.5050505E-02 -0.1417227E-09  0.0000000E+00  0.1282619E-07
 -0.4956794E-02  0.0000000E+00 -0.5050505E-02 -0.1391684E-09  0.0000000E+00  0.1276888E-07
 -0.4937066E-02  0.0000000E+00 -0.5050505E-02 -0.1360343E-09  0.0000000E+00  0.1271272E-07
 -0.4906239E-02  0.0000000E+00 -0.5050505E-02 -0.1323234E-09  0.0000000E+00  0.1265795E-07
 -0.4866782E-02  0.0000000E+00 -0.5050505E-02 -0.1280369E-09  0.0000000E+00  0.1260480E-07
 -0.4827325E-02  0.0000000E+00 -0.5050505E-02 -0.1231735E-09  0.0000000E+00  0.1255349E-07
 -0.4769372E-02  0.0000000E+00 -0.5050505E-02 -0.1177264E-09  0.0000000E+00  0.1250426E-07
 -0.4690458E-02  0.0000000E+00 -0.5050505E-02 -0.1116805E-09  0.0000000E+00  0.1245733E-07
 -0.4611543E-02  0.0000000E+00 -0.5050505E-02 -0.1050057E-09  0.0000000E+00  0.1241294E-07
 -0.4503035E-02  0.0000000E+00 -0.5050505E-02 -0.9764865E-10  0.0000000E+00  0.1237132E-07
 -0.4345206E-02  0.0000000E+00 -0.5050505E-02 -0.8951678E-10  0.0000000E+00  0.1233272E-07
 -0.4187378E-02  0.0000000E+00 -0.5050505E-02 -0.8045300E-10  0.0000000E+00  0.1229739E-07
 -0.3985156E-02  0.0000000E+00 -0.5050505E-02 -0.7019391E-10  0.0000000E+00  0.1226561E-07
 -0.3669499E-02  0.0000000E+00 -0.5050505E-02 -0.5830617E-10  0.0000000E+00  0.1223767E-07
 -0.3353842E-02  0.0000000E+00 -0.5050505E-02 -0.4409983E-10  0.0000000E+00  0.1221383E-07
 -0.2978990E-02  0.0000000E+00 -0.5050505E-02 -0.2653806E-10  0.0000000E+00  0.1219403E-07
 -0.2347676E-02  0.0000000E+00 -0.5050505E-02 -0.3378705E-11  0.0000000E+00  0.1217790E-07
 -0.1716362E-02  0.0000000E+00 -0.5050505E-02  0.2921804E-10  0.0000000E+00  0.1216287E-07
 -0.1025842E-02  0.0000000E+00 -0.5050505E-02  0.7772571E-10  0.0000000E+00  0.1214147E-07
  0.2367855E-03  0.0000000E+00 -0.5050505E-02  0.1498502E-09  0.0000000E+00  0.1209384E-07
  0.1499413E-02  0.0000000E+00 -0.5050505E-02  0.2431279E-09  0.0000000E+00  0.1197566E-07
  0.5287294E-02  0.0000000E+00 -0.5050505E-02  0.2727904E-09  0.0000000E+00  0.1174268E-07
 -0.5050505E-02  0.0000000E+00 -0.5050505E-02  0.4932921E-11  0.0000000E+00  0.1229159E-07
 -0.5050505E-02  0.0000000E+00 -0.5050505E-02  0.1643625E-10  0.0000000E+00  0.1229489E-07
 -0.5050505E-02  0.0000000E+00 -0.5050505E-02  0.2936796E-10  0.0000000E+00  0.1230176E-07
 -0.5050505E-02  0.0000000E+00 -0.5050505E-02  0.4198632E-10  0.0000000E+00  0.1231234E-07
 -0.5050505E-02  0.0000000E+00 -0.5050505E-02  0.5418762E-10  0.0000000E+00  0.1232654E-07
 -0.5050505E-02  0.0000000E+00 -0.5050505E-02  0.6600839E-10  0.0000000E+00  0.1234427E-07
 -0.5050504E-02  0.0000000E+00 -0.5050505E-02  0.7747714E-10  0.0000000E+00  0.1236544E-07
 -0.5050501E-02  0.0000000E+00 -0.5050505E-02  0.8859373E-10  0.0000000E+00  0.1238993E-07
 -0.5050495E-02  0.0000000E+00 -0.5050505E-02  0.9933670E-10  0.0000000E+00  0.1241764E-07
 -0.5050482E-02  0.0000000E+00 -0.5050505E-02  0.1096751E-09  0.0000000E+00  0.1244846E-07
 -0.5050449E-02  0.0000000E+00 -0.5050505E-02  0.1195710E-09  0.0000000E+00  0.1248227E-07
 -0.5050376E-02  0.0000000E+00 -0.5050505E-02  0.1289878E-09  0.0000000E+00  0.1251892E-07
 -0.5050299E-02  0.0000000E+00 -0.5050505E-02  0.1378883E-09  0.0000000E+00  0.1255828E-07
 -0.5050178E-02  0.0000000E+00 -0.5050505E-02  0.1462353E-09  0.0000000E+00  0.1260018E-07
 -0.5050018E-02  0.0000000E+00 -0.5050505E-02  0.1539954E-09  0.0000000E+00  0.1264446E-07
 -0.5049710E-02  0.0000000E+00 -0.5050505E-02  0.1611366E-09  0.0000000E+00  0.1269094E-07
 -0.5049253E-02  0.0000000E+00 -0.5050505E-02  0.1676282E-09  0.0000000E+00  0.1273942E-07
 -0.5048636E-02  0.0000000E+00 -0.5050505E-02  0.1734430E-09  0.0000000E+00  0.1278973E-07
 -0.5047442E-02  0.0000000E+00 -0.5050505E-02  0.1785559E-09  0.0000000E+00  0.1284165E-07
 -0.5045727E-02  0.0000000E+00 -0.5050505E-02  0.1829443E-09  0.0000000E+00  0.1289497E-07
 -0.5043261E-02  0.0000000E+00 -0.5050505E-02  0.1865887E-09  0.0000000E+00  0.1294948E-07
 -0.5038714E-02  0.0000000E+00 -0.5050505E-02  0.1894722E-09  0.0000000E+00  0.1300495E-07
 -0.5032318E-02  0.0000000E+00 -0.5050505E-02  0.1915808E-09  0.0000000E+00  0.1306117E-07
 -0.5022454E-02  0.0000000E+00 -0.5050505E-02  0.1929039E-09  0.0000000E+00  0.1311789E-07
 -0.5012589E-02  0.0000000E+00 -0.5050505E-02  0.1934337E-09  0.0000000E+00  0.1317489E-07
 -0.5002725E-02  0.0000000E+00 -0.5050505E-02  0.1931657E-09  0.0000000E+00  0.1323192E-07
 -0.4992860E-02  0.0000000E+00 -0.5050505E-02  0.1920985E-09  0.0000000E+00  0.1328877E-07
 -0.4976523E-02  0.0000000E+00 -0.5050505E-02  0.1902341E-09  0.0000000E+00  0.1334518E-07
 -0.4956794E-02  0.0000000E+00 -0.5050505E-02  0.1875778E-09  0.0000000E+00  0.1340093E-07
 -0.4937066E-02  0.0000000E+00 -0.5050505E-02  0.1841381E-09  0.0000000E+00  0.1345579E-07