title = "dataset feddes"
variables = "x", "y", "z", "h_w", "p_w", "s_w", "theta_w", "transp", "evap"
zone t = "Flow variables, solution time =  5.400E+01 days        " i =  100, j =  100, k =    1,  f=point
  0.0000000E+00  0.0000000E+00  0.0000000E+00 -0.5000000E+01 -0.5000000E+01  0.5313722E+00  0.2274273E+00  0.0000000E+00  0.0000000E+00
  0.1010101E-01  0.0000000E+00  0.0000000E+00 -0.5000000E+01 -0.5000000E+01  0.5313722E+00  0.2274273E+00  0.0000000E+00  0.0000000E+00
  0.2020202E-01  0.0000000E+00  0.0000000E+00 -0.5000000E+01 -0.5000000E+01  0.5313722E+00  0.2274273E+00  0.0000000E+00  0.0000000E+00
  0.3030303E-01  0.0000000E+00  0.0000000E+00 -0.5000000E+01 -0.5000000E+01  0.5313722E+00  0.2274273E+00  0.0000000E+00  0.0000000E+00
  0.4040404E-01  0.0000000E+00  0.0000000E+00 -0.5000000E+01 -0.5000000E+01  0.5313722E+00  0.2274273E+00  0.0000000E+00  0.0000000E+00
  0.5050505E-01  0.0000000E+00  0.0000000E+00 -0.5000000E+01 -0.5000000E+01  0.5313722E+00  0.2274273E+00  0.0000000E+00  0.0000000E+00
  0.6060606E-01  0.0000000E+00  0.0000000E+00 -0.5000000E+01 -0.5000000E+01  0.5313722E+00  0.2274273E+00  0.0000000E+00  0.0000000E+00
  0.7070707E-01  0.0000000E+00  0.0000000E+00 -0.5000000E+01 -0.5000000E+01  0.5313722E+00  0.2274273E+00  0.0000000E+00  0.0000000E+00
  0.8080808E-01  0.0000000E+00  0.0000000E+00 -0.5000000E+01 -0.5000000E+01  0.5313722E+00  0.2274273E+00  0.0000000E+00  0.0000000E+00
  0.9090909E-01  0.0000000E+00  0.0000000E+00 -0.5000000E+01 -0.5000000E+01  0.5313722E+00  0.2274273E+00  0.0000000E+00  0.0000000E+00
  0.1010101E+00  0.0000000E+00  0.0000000E+00 -0.5000000E+01 -0.5000000E+01  0.5313722E+00  0.2274273E+00  0.0000000E+00  0.0000000E+00
  0.1111111E+00  0.0000000E+00  0.0000000E+00 -0.5000000E+01 -0.5000000E+01  0.5313722E+00  0.2274273E+00  0.0000000E+00  0.0000000E+00
  0.1212121E+00  0.0000000E+00  0.0000000E+00 -0.5000000E+01 -0.5000000E+01  0.5313722E+00  0.2274273E+00  0.0000000E+00  0.0000000E+00
  0.1313131E+00  0.0000000E+00  0.0000000E+00 -0.5000000E+01 -0.5000000E+01  0.5313722E+00  0.2274273E+00  0.0000000E+00  0.0000000E+00
  0.1414142E+00  0.0000000E+00  0.0000000E+00 -0.5000000E+01 -0.5000000E+01  0.5313722E+00  0.2274273E+00  0.0000000E+00  0.0000000E+00
  0.1515152E+00  0.0000000E+00  0.0000000E+00 -0.5000000E+01 -0.5000000E+01  0.5313722E+00  0.2274273E+00  0.0000000E+00  0.0000000E+00
  0.1616162E+00  0.0000000E+00  0.0000000E+00 -0.5000000E+01 -0.5000000E+01  0.5313722E+00  0.2274273E+00  0.0000000E+00  0.0000000E+00
  0.1717172E+00  0.0000000E+00  0.0000000E+00 -0.5000000E+01 -0.5000000E+01  0.5313722E+00  0.2274273E+00  0.0000000E+00  0.0000000E+00
  0.1818182E+00  0.0000000E+00  0.0000000E+00 -0.5000000E+01 -0.5000000E+01  0.5313722E+00  0.2274273E+00  0.0000000E+00  0.0000000E+00
  0.1919192E+00  0.0000000E+00  0.0000000E+00 -0.5000000E+01 -0.5000000E+01  0.5313722E+00  0.2274273E+00  0.0000000E+00  0.0000000E+00
  0.2020202E+00  0.0000000E+00  0.0000000E+00 -0.5000000E+01 -0.5000000E+01  0.5313722E+00  0.2274273E+00  0.0000000E+00  0.0000000E+00
  0.2121212E+00  0.0000000E+00  0.0000000E+00 -0.5000000E+01 -0.5000000E+01  0.5313722E+00  0.2274273E+00  0.0000000E+00  0.0000000E+00
  0.2222222E+00  0.0000000E+00  0.0000000E+00 -0.5000000E+01 -0.5000000E+01  0.5313722E+00  0.2274273E+00  0.0000000E+00  0.0000000E+00
  0.2323232E+00  0.0000000E+00  0.0000000E+00 -0.5000000E+01 -0.5000000E+01  0.5313722E+00  0.2274273E+00  0.0000000E+00  0.0000000E+00
  0.2424242E+00  0.0000000E+00  0.0000000E+00 -0.5000000E+01 -0.5000000E+01  0.5313722E+00  0.2274273E+00  0.0000000E+00  0.0000000E+00
  0.2525252E+00  0.0000000E+00  0.0000000E+00 -0.5000000E+01 -0.5000000E+01  0.5313722E+00  0.2274273E+00  0.0000000E+00  0.0000000E+00
  0.2626262E+00  0.0000000E+00  0.0000000E+00 -0.5000000E+01 -0.5000000E+01  0.5313722E+00  0.2274273E+00  0.0000000E+00  0.0000000E+00
  0.2727273E+00  0.0000000E+00  0.0000000E+00 -0.5000000E+01 -0.5000000E+01  0.5313722E+00  0.2274273E+00  0.0000000E+00  0.0000000E+00
  0.2828283E+00  0.0000000E+00  0.0000000E+00 -0.5000000E+01 -0.5000000E+01  0.5313722E+00  0.2274273E+00  0.0000000E+00  0.0000000E+00
  0.2929293E+00  0.0000000E+00  0.0000000E+00 -0.5000000E+01 -0.5000000E+01  0.5313722E+00  0.2274273E+00  0.0000000E+00  0.0000000E+00
  0.3030303E+00  0.0000000E+00  0.0000000E+00 -0.5000000E+01 -0.5000000E+01  0.5313722E+00  0.2274273E+00  0.0000000E+00  0.0000000E+00
  0.3131313E+00  0.0000000E+00  0.0000000E+00 -0.5000000E+01 -0.5000000E+01  0.5313722E+00  0.2274273E+00  0.0000000E+00  0.0000000E+00
  0.3232324E+00  0.0000000E+00  0.0000000E+00 -0.5000000E+01 -0.5000000E+01  0.5313722E+00  0.2274273E+00  0.0000000E+00  0.0000000E+00
  0.3333334E+00  0.0000000E+00  0.0000000E+00 -0.5000000E+01 -0.5000000E+01  0.5313722E+00  0.2274273E+00  0.0000000E+00  0.0000000E+00
  0.3434344E+00  0.0000000E+00  0.0000000E+00 -0.5000000E+01 -0.5000000E+01  0.5313722E+00  0.2274273E+00  0.0000000E+00  0.0000000E+00
  0.3535354E+00  0.0000000E+00  0.0000000E+00 -0.5000000E+01 -0.5000000E+01  0.5313722E+00  0.2274273E+00  0.0000000E+00  0.0000000E+00
  0.3636364E+00  0.0000000E+00  0.0000000E+00 -0.5000000E+01 -0.5000000E+01  0.5313722E+00  0.2274273E+00  0.0000000E+00  0.0000000E+00
  0.3737375E+00  0.0000000E+00  0.0000000E+00 -0.5000000E+01 -0.5000000E+01  0.5313722E+00  0.2274273E+00  0.0000000E+00  0.0000000E+00
  0.3838385E+00  0.0000000E+00  0.0000000E+00 -0.5000000E+01 -0.5000000E+01  0.5313722E+00  0.2274273E+00  0.0000000E+00  0.0000000E+00
  0.3939395E+00  0.0000000E+00  0.0000000E+00 -0.5000000E+01 -0.5000000E+01  0.5313722E+00  0.2274273E+00  0.0000000E+00  0.0000000E+00
  0.4040405E+00  0.0000000E+00  0.0000000E+00 -0.5000000E+01 -0.5000000E+01  0.5313722E+00  0.2274273E+00  0.0000000E+00  0.0000000E+00
  0.4141415E+00  0.0000000E+00  0.0000000E+00 -0.5000000E+01 -0.5000000E+01  0.5313722E+00  0.2274273E+00  0.0000000E+00  0.0000000E+00
  0.4242426E+00  0.0000000E+00  0.0000000E+00 -0.5000000E+01 -0.5000000E+01  0.5313722E+00  0.2274273E+00  0.0000000E+00  0.0000000E+00
  0.4343436E+00  0.0000000E+00  0.0000000E+00 -0.5000000E+01 -0.5000000E+01  0.5313722E+00  0.2274273E+00  0.0000000E+00  0.0000000E+00
  0.4444446E+00  0.0000000E+00  0.0000000E+00 -0.5000000E+01 -0.5000000E+01  0.5313722E+00  0.2274273E+00  0.0000000E+00  0.0000000E+00
  0.4545456E+00  0.0000000E+00  0.0000000E+00 -0.5000000E+01 -0.5000000E+01  0.5313722E+00  0.2274273E+00  0.0000000E+00  0.0000000E+00
  0.4646466E+00  0.0000000E+00  0.0000000E+00 -0.5000000E+01 -0.5000000E+01  0.5313722E+00  0.2274273E+00  0.0000000E+00  0.0000000E+00
  0.4747477E+00  0.0000000E+00  0.0000000E+00 -0.5000000E+01 -0.5000000E+01  0.5313722E+00  0.2274273E+00  0.0000000E+00  0.0000000E+00
  0.4848487E+00  0.0000000E+00  0.0000000E+00 -0.5000000E+01 -0.5000000E+01  0.5313722E+00  0.2274273E+00  0.0000000E+00  0.0000000E+00
  0.4949497E+00  0.0000000E+00  0.0000000E+00 -0.5000000E+01 -0.5000000E+01  0.5313722E+00  0.2274273E+00  0.0000000E+00  0.0000000E+00
  0.5050507E+00  0.0000000E+00  0.0000000E+00 -0.5000000E+01 -0.5000000E+01  0.5313722E+00  0.2274273E+00  0.0000000E+00  0.0000000E+00
  0.5151517E+00  0.0000000E+00  0.0000000E+00 -0.5000000E+01 -0.5000000E+01  0.5313722E+00  0.2274273E+00  0.0000000E+00  0.0000000E+00
  0.5252528E+00  0.0000000E+00  0.0000000E+00 -0.5000000E+01 -0.5000000E+01  0.5313722E+00  0.2274273E+00  0.0000000E+00  0.0000000E+00
  0.5353538E+00  0.0000000E+00  0.0000000E+00 -0.5000000E+01 -0.5000000E+01  0.5313722E+00  0.2274273E+00  0.0000000E+00  0.0000000E+00
  0.5454548E+00  0.0000000E+00  0.0000000E+00 -0.5000000E+01 -0.5000000E+01  0.5313722E+00  0.2274273E+00  0.0000000E+00  0.0000000E+00
  0.5555558E+00  0.0000000E+00  0.0000000E+00 -0.5000000E+01 -0.5000000E+01  0.5313722E+00  0.2274273E+00  0.0000000E+00  0.0000000E+00
  0.5656568E+00  0.0000000E+00  0.0000000E+00 -0.5000000E+01 -0.5000000E+01  0.5313722E+00  0.2274273E+00  0.0000000E+00  0.0000000E+00
  0.5757579E+00  0.0000000E+00  0.0000000E+00 -0.5000000E+01 -0.5000000E+01  0.5313722E+00  0.2274273E+00  0.0000000E+00  0.0000000E+00
  0.5858589E+00  0.0000000E+00  0.0000000E+00 -0.5000000E+01 -0.5000000E+01  0.5313722E+00  0.2274273E+00  0.0000000E+00  0.0000000E+00
  0.5959599E+00  0.0000000E+00  0.0000000E+00 -0.5000000E+01 -0.5000000E+01  0.5313722E+00  0.2274273E+00  0.0000000E+00  0.0000000E+00
  0.6060609E+00  0.0000000E+00  0.0000000E+00 -0.5000000E+01 -0.5000000E+01  0.5313722E+00  0.2274273E+00  0.0000000E+00  0.0000000E+00
  0.6161619E+00  0.0000000E+00  0.0000000E+00 -0.5000000E+01 -0.5000000E+01  0.5313722E+00  0.2274273E+00  0.0000000E+00  0.0000000E+00
  0.6262630E+00  0.0000000E+00  0.0000000E+00 -0.5000000E+01 -0.5000000E+01  0.5313722E+00  0.2274273E+00  0.0000000E+00  0.0000000E+00
  0.6363640E+00  0.0000000E+00  0.0000000E+00 -0.5000000E+01 -0.5000000E+01  0.5313722E+00  0.2274273E+00  0.0000000E+00  0.0000000E+00
  0.6464650E+00  0.0000000E+00  0.0000000E+00 -0.5000000E+01 -0.5000000E+01  0.5313722E+00  0.2274273E+00  0.0000000E+00  0.0000000E+00
  0.6565660E+00  0.0000000E+00  0.0000000E+00 -0.5000000E+01 -0.5000000E+01  0.5313722E+00  0.2274273E+00  0.0000000E+00  0.0000000E+00
  0.6666670E+00  0.0000000E+00  0.0000000E+00 -0.5000000E+01 -0.5000000E+01  0.5313722E+00  0.2274273E+00  0.0000000E+00  0.0000000E+00
  0.6767681E+00  0.0000000E+00  0.0000000E+00 -0.5000000E+01 -0.5000000E+01  0.5313722E+00  0.2274273E+00  0.0000000E+00  0.0000000E+00
  0.6868691E+00  0.0000000E+00  0.0000000E+00 -0.5000000E+01 -0.5000000E+01  0.5313722E+00  0.2274273E+00  0.0000000E+00  0.0000000E+00
  0.6969701E+00  0.0000000E+00  0.0000000E+00 -0.5000000E+01 -0.5000000E+01  0.5313722E+00  0.2274273E+00  0.0000000E+00  0.0000000E+00
  0.7070711E+00  0.0000000E+00  0.0000000E+00 -0.5000000E+01 -0.5000000E+01  0.5313722E+00  0.2274273E+00  0.0000000E+00  0.0000000E+00
  0.7171721E+00  0.0000000E+00  0.0000000E+00 -0.5000000E+01 -0.5000000E+01  0.5313722E+00  0.2274273E+00  0.0000000E+00  0.0000000E+00
  0.7272732E+00  0.0000000E+00  0.0000000E+00 -0.5000000E+01 -0.5000000E+01  0.5313722E+00  0.2274273E+00  0.0000000E+00  0.0000000E+00
  0.7373742E+00  0.0000000E+00  0.0000000E+00 -0.5000000E+01 -0.5000000E+01  0.5313722E+00  0.2274273E+00  0.0000000E+00  0.0000000E+00
  0.7474752E+00  0.0000000E+00  0.0000000E+00 -0.5000000E+01 -0.5000000E+01  0.5313722E+00  0.2274273E+00  0.0000000E+00  0.0000000E+00
  0.7575762E+00  0.0000000E+00  0.0000000E+00 -0.5000000E+01 -0.5000000E+01  0.5313722E+00  0.2274273E+00  0.0000000E+00  0.0000000E+00
  0.7676772E+00  0.0000000E+00  0.0000000E+00 -0.5000000E+01 -0.5000000E+01  0.5313722E+00  0.2274273E+00  0.0000000E+00  0.0000000E+00
  0.7777783E+00  0.0000000E+00  0.0000000E+00 -0.5000000E+01 -0.5000000E+01  0.5313722E+00  0.2274273E+00  0.0000000E+00  0.0000000E+00
  0.7878793E+00  0.0000000E+00  0.0000000E+00 -0.5000000E+01 -0.5000000E+01  0.5313722E+00  0.2274273E+00  0.0000000E+00  0.0000000E+00
  0.7979803E+00  0.0000000E+00  0.0000000E+00 -0.5000000E+01 -0.5000000E+01  0.5313722E+00  0.2274273E+00  0.0000000E+00  0.0000000E+00
  0.8080813E+00  0.0000000E+00  0.0000000E+00 -0.5000000E+01 -0.5000000E+01  0.5313722E+00  0.2274273E+00  0.0000000E+00  0.0000000E+00
  0.8181823E+00  0.0000000E+00  0.0000000E+00 -0.5000000E+01 -0.5000000E+01  0.5313722E+00  0.2274273E+00  0.0000000E+00  0.0000000E+00
  0.8282834E+00  0.0000000E+00  0.0000000E+00 -0.5000000E+01 -0.5000000E+01  0.5313722E+00  0.2274273E+00  0.0000000E+00  0.0000000E+00
  0.8383844E+00  0.0000000E+00  0.0000000E+00 -0.5000000E+01 -0.5000000E+01  0.5313722E+00  0.2274273E+00  0.0000000E+00  0.0000000E+00
  0.8484854E+00  0.0000000E+00  0.0000000E+00 -0.5000000E+01 -0.5000000E+01  0.5313722E+00  0.2274273E+00  0.0000000E+00  0.0000000E+00
  0.8585864E+00  0.0000000E+00  0.0000000E+00 -0.5000000E+01 -0.5000000E+01  0.5313722E+00  0.2274273E+00  0.0000000E+00  0.0000000E+00
  0.8686875E+00  0.0000000E+00  0.0000000E+00 -0.5000000E+01 -0.5000000E+01  0.5313722E+00  0.2274273E+00  0.0000000E+00  0.0000000E+00
  0.8787885E+00  0.0000000E+00  0.0000000E+00 -0.5000000E+01 -0.5000000E+01  0.5313722E+00  0.2274273E+00  0.0000000E+00  0.0000000E+00
  0.8888895E+00  0.0000000E+00  0.0000000E+00 -0.5000000E+01 -0.5000000E+01  0.5313722E+00  0.2274273E+00  0.0000000E+00  0.0000000E+00
  0.8989905E+00  0.0000000E+00  0.0000000E+00 -0.5000000E+01 -0.5000000E+01  0.5313722E+00  0.2274273E+00  0.0000000E+00  0.0000000E+00
  0.9090915E+00  0.0000000E+00  0.0000000E+00 -0.5000000E+01 -0.5000000E+01  0.5313722E+00  0.2274273E+00  0.0000000E+00  0.0000000E+00
  0.9191926E+00  0.0000000E+00  0.0000000E+00 -0.5000000E+01 -0.5000000E+01  0.5313722E+00  0.2274273E+00  0.0000000E+00  0.0000000E+00
  0.9292936E+00  0.0000000E+00  0.0000000E+00 -0.5000000E+01 -0.5000000E+01  0.5313722E+00  0.2274273E+00  0.0000000E+00  0.0000000E+00
  0.9393946E+00  0.0000000E+00  0.0000000E+00 -0.5000000E+01 -0.5000000E+01  0.5313722E+00  0.2274273E+00  0.0000000E+00  0.0000000E+00
  0.9494956E+00  0.0000000E+00  0.0000000E+00 -0.5000000E+01 -0.5000000E+01  0.5313722E+00  0.2274273E+00  0.0000000E+00  0.0000000E+00
  0.9595966E+00  0.0000000E+00  0.0000000E+00 -0.5000000E+01 -0.5000000E+01  0.5313722E+00  0.2274273E+00  0.0000000E+00  0.0000000E+00
  0.9696977E+00  0.0000000E+00  0.0000000E+00 -0.5000000E+01 -0.5000000E+01  0.5313722E+00  0.2274273E+00  0.0000000E+00  0.0000000E+00
  0.9797987E+00  0.0000000E+00  0.0000000E+00 -0.5000000E+01 -0.5000000E+01  0.5313722E+00  0.2274273E+00  0.0000000E+00  0.0000000E+00
  0.9898997E+00  0.0000000E+00  0.0000000E+00 -0.5000000E+01 -0.5000000E+01  0.5313722E+00  0.2274273E+00  0.0000000E+00  0.0000000E+00
  0.1000001E+01  0.0000000E+00  0.5826218E-18 -0.5000261E+01 -0.5000261E+01  0.5313638E+00  0.2274237E+00  0.0000000E+00  0.0000000E+00
  0.0000000E+00  0.0000000E+00  0.5826219E-18 -0.5000443E+01 -0.5010544E+01  0.5310332E+00  0.2272822E+00  0.0000000E+00  0.0000000E+00
  0.1010101E-01  0.0000000E+00  0.5826219E-18 -0.5000443E+01 -0.5010544E+01  0.5310332E+00  0.2272822E+00  0.0000000E+00  0.0000000E+00
  0.2020202E-01  0.0000000E+00  0.5826219E-18 -0.5000443E+01 -0.5010544E+01  0.5310332E+00  0.2272822E+00  0.0000000E+00  0.0000000E+00
  0.3030303E-01  0.0000000E+00  0.5826219E-18 -0.5000444E+01 -0.5010545E+01  0.5310332E+00  0.2272822E+00  0.0000000E+00  0.0000000E+00
  0.4040404E-01  0.0000000E+00  0.5826219E-18 -0.5000444E+01 -0.5010546E+01  0.5310331E+00  0.2272822E+00  0.0000000E+00  0.0000000E+00
  0.5050505E-01  0.0000000E+00  0.5826219E-18 -0.5000445E+01 -0.5010546E+01  0.5310331E+00  0.2272822E+00  0.0000000E+00  0.0000000E+00
  0.6060606E-01  0.0000000E+00  0.5826219E-18 -0.5000447E+01 -0.5010548E+01  0.5310331E+00  0.2272822E+00  0.0000000E+00  0.0000000E+00
  0.7070707E-01  0.0000000E+00  0.5826219E-18 -0.5000448E+01 -0.5010549E+01  0.5310330E+00  0.2272821E+00  0.0000000E+00  0.0000000E+00
  0.8080808E-01  0.0000000E+00  0.5826219E-18 -0.5000449E+01 -0.5010550E+01  0.5310330E+00  0.2272821E+00  0.0000000E+00  0.0000000E+00
  0.9090909E-01  0.0000000E+00  0.5826219E-18 -0.5000451E+01 -0.5010552E+01  0.5310329E+00  0.2272821E+00  0.0000000E+00  0.0000000E+00
  0.1010101E+00  0.0000000E+00  0.5826219E-18 -0.5000453E+01 -0.5010554E+01  0.5310329E+00  0.2272821E+00  0.0000000E+00  0.0000000E+00
  0.1111111E+00  0.0000000E+00  0.5826219E-18 -0.5000455E+01 -0.5010556E+01  0.5310328E+00  0.2272820E+00  0.0000000E+00  0.0000000E+00
  0.1212121E+00  0.0000000E+00  0.5826219E-18 -0.5000457E+01 -0.5010558E+01  0.5310327E+00  0.2272820E+00  0.0000000E+00  0.0000000E+00
  0.1313131E+00  0.0000000E+00  0.5826219E-18 -0.5000460E+01 -0.5010561E+01  0.5310327E+00  0.2272820E+00  0.0000000E+00  0.0000000E+00
  0.1414142E+00  0.0000000E+00  0.5826219E-18 -0.5000462E+01 -0.5010563E+01  0.5310326E+00  0.2272819E+00  0.0000000E+00  0.0000000E+00
  0.1515152E+00  0.0000000E+00  0.5826219E-18 -0.5000465E+01 -0.5010566E+01  0.5310325E+00  0.2272819E+00  0.0000000E+00  0.0000000E+00
  0.1616162E+00  0.0000000E+00  0.5826219E-18 -0.5000467E+01 -0.5010568E+01  0.5310324E+00  0.2272819E+00  0.0000000E+00  0.0000000E+00
  0.1717172E+00  0.0000000E+00  0.5826219E-18 -0.5000470E+01 -0.5010571E+01  0.5310323E+00  0.2272818E+00  0.0000000E+00  0.0000000E+00
  0.1818182E+00  0.0000000E+00  0.5826219E-18 -0.5000473E+01 -0.5010574E+01  0.5310322E+00  0.2272818E+00  0.0000000E+00  0.0000000E+00
  0.1919192E+00  0.0000000E+00  0.5826219E-18 -0.5000476E+01 -0.5010577E+01  0.5310321E+00  0.2272817E+00  0.0000000E+00  0.0000000E+00
  0.2020202E+00  0.0000000E+00  0.5826219E-18 -0.5000480E+01 -0.5010581E+01  0.5310320E+00  0.2272817E+00  0.0000000E+00  0.0000000E+00
  0.2121212E+00  0.0000000E+00  0.5826219E-18 -0.5000483E+01 -0.5010584E+01  0.5310319E+00  0.2272817E+00  0.0000000E+00  0.0000000E+00
  0.2222222E+00  0.0000000E+00  0.5826219E-18 -0.5000486E+01 -0.5010587E+01  0.5310318E+00  0.2272816E+00  0.0000000E+00  0.0000000E+00
  0.2323232E+00  0.0000000E+00  0.5826219E-18 -0.5000489E+01 -0.5010590E+01  0.5310317E+00  0.2272816E+00  0.0000000E+00  0.0000000E+00
  0.2424242E+00  0.0000000E+00  0.5826219E-18 -0.5000493E+01 -0.5010594E+01  0.5310316E+00  0.2272815E+00  0.0000000E+00  0.0000000E+00
  0.2525252E+00  0.0000000E+00  0.5826219E-18 -0.5000496E+01 -0.5010597E+01  0.5310315E+00  0.2272815E+00  0.0000000E+00  0.0000000E+00
  0.2626262E+00  0.0000000E+00  0.5826219E-18 -0.5000499E+01 -0.5010600E+01  0.5310314E+00  0.2272814E+00  0.0000000E+00  0.0000000E+00
  0.2727273E+00  0.0000000E+00  0.5826219E-18 -0.5000503E+01 -0.5010604E+01  0.5310313E+00  0.2272814E+00  0.0000000E+00  0.0000000E+00
  0.2828283E+00  0.0000000E+00  0.5826219E-18 -0.5000506E+01 -0.5010607E+01  0.5310312E+00  0.2272813E+00  0.0000000E+00  0.0000000E+00
  0.2929293E+00  0.0000000E+00  0.5826219E-18 -0.5000509E+01 -0.5010610E+01  0.5310311E+00  0.2272813E+00  0.0000000E+00  0.0000000E+00
  0.3030303E+00  0.0000000E+00  0.5826219E-18 -0.5000512E+01 -0.5010613E+01  0.5310310E+00  0.2272813E+00  0.0000000E+00  0.0000000E+00
  0.3131313E+00  0.0000000E+00  0.5826219E-18 -0.5000515E+01 -0.5010616E+01  0.5310309E+00  0.2272812E+00  0.0000000E+00  0.0000000E+00
  0.3232324E+00  0.0000000E+00  0.5826219E-18 -0.5000518E+01 -0.5010619E+01  0.5310308E+00  0.2272812E+00  0.0000000E+00  0.0000000E+00
  0.3333334E+00  0.0000000E+00  0.5826219E-18 -0.5000521E+01 -0.5010622E+01  0.5310307E+00  0.2272811E+00  0.0000000E+00  0.0000000E+00
  0.3434344E+00  0.0000000E+00  0.5826219E-18 -0.5000524E+01 -0.5010625E+01  0.5310306E+00  0.2272811E+00  0.0000000E+00  0.0000000E+00
  0.3535354E+00  0.0000000E+00  0.5826219E-18 -0.5000527E+01 -0.5010628E+01  0.5310305E+00  0.2272811E+00  0.0000000E+00  0.0000000E+00
  0.3636364E+00  0.0000000E+00  0.5826219E-18 -0.5000529E+01 -0.5010630E+01  0.5310304E+00  0.2272810E+00  0.0000000E+00  0.0000000E+00
  0.3737375E+00  0.0000000E+00  0.5826219E-18 -0.5000532E+01 -0.5010633E+01  0.5310304E+00  0.2272810E+00  0.0000000E+00  0.0000000E+00
  0.3838385E+00  0.0000000E+00  0.5826219E-18 -0.5000534E+01 -0.5010635E+01  0.5310303E+00  0.2272810E+00  0.0000000E+00  0.0000000E+00
  0.3939395E+00  0.0000000E+00  0.5826219E-18 -0.5000536E+01 -0.5010637E+01  0.5310302E+00  0.2272809E+00  0.0000000E+00  0.0000000E+00
  0.4040405E+00  0.0000000E+00  0.5826219E-18 -0.5000538E+01 -0.5010639E+01  0.5310302E+00  0.2272809E+00  0.0000000E+00  0.0000000E+00
  0.4141415E+00  0.0000000E+00  0.5826219E-18 -0.5000539E+01 -0.5010640E+01  0.5310301E+00  0.2272809E+00  0.0000000E+00  0.0000000E+00
  0.4242426E+00  0.0000000E+00  0.5826219E-18 -0.5000541E+01 -0.5010642E+01  0.5310301E+00  0.2272809E+00  0.0000000E+00  0.0000000E+00
  0.4343436E+00  0.0000000E+00  0.5826219E-18 -0.5000542E+01 -0.5010643E+01  0.5310300E+00  0.2272808E+00  0.0000000E+00  0.0000000E+00
  0.4444446E+00  0.0000000E+00  0.5826219E-18 -0.5000543E+01 -0.5010644E+01  0.5310300E+00  0.2272808E+00  0.0000000E+00  0.0000000E+00
  0.4545456E+00  0.0000000E+00  0.5826219E-18 -0.5000544E+01 -0.5010645E+01  0.5310299E+00  0.2272808E+00  0.0000000E+00  0.0000000E+00
  0.4646466E+00  0.0000000E+00  0.5826219E-18 -0.5000545E+01 -0.5010646E+01  0.5310299E+00  0.2272808E+00  0.0000000E+00  0.0000000E+00
  0.4747477E+00  0.0000000E+00  0.5826219E-18 -0.5000545E+01 -0.5010646E+01  0.5310299E+00  0.2272808E+00  0.0000000E+00  0.0000000E+00
  0.4848487E+00  0.0000000E+00  0.5826219E-18 -0.5000545E+01 -0.5010646E+01  0.5310299E+00  0.2272808E+00  0.0000000E+00  0.0000000E+00
  0.4949497E+00  0.0000000E+00  0.5826219E-18 -0.5000545E+01 -0.5010646E+01  0.5310299E+00  0.2272808E+00  0.0000000E+00  0.0000000E+00
  0.5050507E+00  0.0000000E+00  0.5826219E-18 -0.5000545E+01 -0.5010646E+01  0.5310299E+00  0.2272808E+00  0.0000000E+00  0.0000000E+00
  0.5151517E+00  0.0000000E+00  0.5826219E-18 -0.5000544E+01 -0.5010645E+01  0.5310299E+00  0.2272808E+00  0.0000000E+00  0.0000000E+00
  0.5252528E+00  0.0000000E+00  0.5826219E-18 -0.5000544E+01 -0.5010645E+01  0.5310300E+00  0.2272808E+00  0.0000000E+00  0.0000000E+00
  0.5353538E+00  0.0000000E+00  0.5826219E-18 -0.5000543E+01 -0.5010644E+01  0.5310300E+00  0.2272808E+00  0.0000000E+00  0.0000000E+00
  0.5454548E+00  0.0000000E+00  0.5826219E-18 -0.5000542E+01 -0.5010643E+01  0.5310300E+00  0.2272809E+00  0.0000000E+00  0.0000000E+00
  0.5555558E+00  0.0000000E+00  0.5826219E-18 -0.5000540E+01 -0.5010641E+01  0.5310301E+00  0.2272809E+00  0.0000000E+00  0.0000000E+00
  0.5656568E+00  0.0000000E+00  0.5826219E-18 -0.5000539E+01 -0.5010640E+01  0.5310301E+00  0.2272809E+00  0.0000000E+00  0.0000000E+00
  0.5757579E+00  0.0000000E+00  0.5826219E-18 -0.5000537E+01 -0.5010638E+01  0.5310302E+00  0.2272809E+00  0.0000000E+00  0.0000000E+00
  0.5858589E+00  0.0000000E+00  0.5826219E-18 -0.5000535E+01 -0.5010636E+01  0.5310302E+00  0.2272809E+00  0.0000000E+00  0.0000000E+00
  0.5959599E+00  0.0000000E+00  0.5826219E-18 -0.5000533E+01 -0.5010634E+01  0.5310303E+00  0.2272810E+00  0.0000000E+00  0.0000000E+00
  0.6060609E+00  0.0000000E+00  0.5826219E-18 -0.5000530E+01 -0.5010631E+01  0.5310304E+00  0.2272810E+00  0.0000000E+00  0.0000000E+00
  0.6161619E+00  0.0000000E+00  0.5826219E-18 -0.5000528E+01 -0.5010629E+01  0.5310305E+00  0.2272810E+00  0.0000000E+00  0.0000000E+00
  0.6262630E+00  0.0000000E+00  0.5826219E-18 -0.5000525E+01 -0.5010626E+01  0.5310306E+00  0.2272811E+00  0.0000000E+00  0.0000000E+00
  0.6363640E+00  0.0000000E+00  0.5826219E-18 -0.5000522E+01 -0.5010623E+01  0.5310306E+00  0.2272811E+00  0.0000000E+00  0.0000000E+00
  0.6464650E+00  0.0000000E+00  0.5826219E-18 -0.5000519E+01 -0.5010620E+01  0.5310307E+00  0.2272812E+00  0.0000000E+00  0.0000000E+00
  0.6565660E+00  0.0000000E+00  0.5826219E-18 -0.5000516E+01 -0.5010617E+01  0.5310308E+00  0.2272812E+00  0.0000000E+00  0.0000000E+00
  0.6666670E+00  0.0000000E+00  0.5826219E-18 -0.5000513E+01 -0.5010614E+01  0.5310309E+00  0.2272812E+00  0.0000000E+00  0.0000000E+00
  0.6767681E+00  0.0000000E+00  0.5826219E-18 -0.5000510E+01 -0.5010611E+01  0.5310310E+00  0.2272813E+00  0.0000000E+00  0.0000000E+00
  0.6868691E+00  0.0000000E+00  0.5826219E-18 -0.5000506E+01 -0.5010607E+01  0.5310312E+00  0.2272813E+00  0.0000000E+00  0.0000000E+00
  0.6969701E+00  0.0000000E+00  0.5826219E-18 -0.5000503E+01 -0.5010604E+01  0.5310313E+00  0.2272814E+00  0.0000000E+00  0.0000000E+00
  0.7070711E+00  0.0000000E+00  0.5826219E-18 -0.5000499E+01 -0.5010600E+01  0.5310314E+00  0.2272814E+00  0.0000000E+00  0.0000000E+00
  0.7171721E+00  0.0000000E+00  0.5826219E-18 -0.5000496E+01 -0.5010597E+01  0.5310315E+00  0.2272815E+00  0.0000000E+00  0.0000000E+00
  0.7272732E+00  0.0000000E+00  0.5826219E-18 -0.5000492E+01 -0.5010593E+01  0.5310316E+00  0.2272815E+00  0.0000000E+00  0.0000000E+00
  0.7373742E+00  0.0000000E+00  0.5826219E-18 -0.5000489E+01 -0.5010590E+01  0.5310317E+00  0.2272816E+00  0.0000000E+00  0.0000000E+00
  0.7474752E+00  0.0000000E+00  0.5826219E-18 -0.5000485E+01 -0.5010586E+01  0.5310318E+00  0.2272816E+00  0.0000000E+00  0.0000000E+00
  0.7575762E+00  0.0000000E+00  0.5826219E-18 -0.5000481E+01 -0.5010582E+01  0.5310320E+00  0.2272817E+00  0.0000000E+00  0.0000000E+00
  0.7676772E+00  0.0000000E+00  0.5826219E-18 -0.5000478E+01 -0.5010579E+01  0.5310321E+00  0.2272817E+00  0.0000000E+00  0.0000000E+00
  0.7777783E+00  0.0000000E+00  0.5826219E-18 -0.5000474E+01 -0.5010575E+01  0.5310322E+00  0.2272818E+00  0.0000000E+00  0.0000000E+00
  0.7878793E+00  0.0000000E+00  0.5826219E-18 -0.5000471E+01 -0.5010572E+01  0.5310323E+00  0.2272818E+00  0.0000000E+00  0.0000000E+00
  0.7979803E+00  0.0000000E+00  0.5826219E-18 -0.5000467E+01 -0.5010568E+01  0.5310324E+00  0.2272819E+00  0.0000000E+00  0.0000000E+00
  0.8080813E+00  0.0000000E+00  0.5826219E-18 -0.5000464E+01 -0.5010565E+01  0.5310325E+00  0.2272819E+00  0.0000000E+00  0.0000000E+00
  0.8181823E+00  0.0000000E+00  0.5826219E-18 -0.5000461E+01 -0.5010562E+01  0.5310326E+00  0.2272820E+00  0.0000000E+00  0.0000000E+00
  0.8282834E+00  0.0000000E+00  0.5826219E-18 -0.5000457E+01 -0.5010558E+01  0.5310327E+00  0.2272820E+00  0.0000000E+00  0.0000000E+00
  0.8383844E+00  0.0000000E+00  0.5826219E-18 -0.5000454E+01 -0.5010555E+01  0.5310328E+00  0.2272821E+00  0.0000000E+00  0.0000000E+00
  0.8484854E+00  0.0000000E+00  0.5826219E-18 -0.5000451E+01 -0.5010552E+01  0.5310329E+00  0.2272821E+00  0.0000000E+00  0.0000000E+00
  0.8585864E+00  0.0000000E+00  0.5826219E-18 -0.5000449E+01 -0.5010550E+01  0.5310330E+00  0.2272821E+00  0.0000000E+00  0.0000000E+00
  0.8686875E+00  0.0000000E+00  0.5826219E-18 -0.5000446E+01 -0.5010547E+01  0.5310331E+00  0.2272822E+00  0.0000000E+00  0.0000000E+00
  0.8787885E+00  0.0000000E+00  0.5826219E-18 -0.5000444E+01 -0.5010545E+01  0.5310332E+00  0.2272822E+00  0.0000000E+00  0.0000000E+00
  0.8888895E+00  0.0000000E+00  0.5826219E-18 -0.5000441E+01 -0.5010542E+01  0.5310332E+00  0.2272822E+00  0.0000000E+00  0.0000000E+00
  0.8989905E+00  0.0000000E+00  0.5826219E-18 -0.5000439E+01 -0.5010540E+01  0.5310333E+00  0.2272823E+00  0.0000000E+00  0.0000000E+00
  0.9090915E+00  0.0000000E+00  0.5826219E-18 -0.5000438E+01 -0.5010539E+01  0.5310334E+00  0.2272823E+00  0.0000000E+00  0.0000000E+00
  0.9191926E+00  0.0000000E+00  0.5826219E-18 -0.5000436E+01 -0.5010537E+01  0.5310334E+00  0.2272823E+00  0.0000000E+00  0.0000000E+00
  0.9292936E+00  0.0000000E+00  0.5826219E-18 -0.5000435E+01 -0.5010536E+01  0.5310335E+00  0.2272823E+00  0.0000000E+00  0.0000000E+00
  0.9393946E+00  0.0000000E+00  0.5826219E-18 -0.5000434E+01 -0.5010535E+01  0.5310335E+00  0.2272823E+00  0.0000000E+00  0.0000000E+00
  0.9494956E+00  0.0000000E+00  0.5826219E-18 -0.5000434E+01 -0.5010535E+01  0.5310335E+00  0.2272823E+00  0.0000000E+00  0.0000000E+00
  0.9595966E+00  0.0000000E+00  0.5826219E-18 -0.5000434E+01 -0.5010535E+01  0.5310335E+00  0.2272823E+00  0.0000000E+00  0.0000000E+00
  0.9696977E+00  0.0000000E+00  0.5826219E-18 -0.5000437E+01 -0.5010538E+01  0.5310334E+00  0.2272823E+00  0.0000000E+00  0.0000000E+00
  0.9797987E+00  0.0000000E+00  0.5826219E-18 -0.5000444E+01 -0.5010545E+01  0.5310332E+00  0.2272822E+00  0.0000000E+00  0.0000000E+00
  0.9898997E+00  0.0000000E+00  0.5826219E-18 -0.5000464E+01 -0.5010565E+01  0.5310325E+00  0.2272819E+00  0.0000000E+00  0.0000000E+00
  0.1000001E+01  0.0000000E+00  0.1491512E-15 -0.5000523E+01 -0.5010624E+01  0.5310306E+00  0.2272811E+00  0.0000000E+00  0.0000000E+00
  0.0000000E+00  0.0000000E+00  0.1491512E-15 -0.5000889E+01 -0.5021091E+01  0.5306950E+00  0.2271374E+00  0.0000000E+00  0.0000000E+00
  0.1010101E-01  0.0000000E+00  0.1491512E-15 -0.5000889E+01 -0.5021091E+01  0.5306949E+00  0.2271374E+00  0.0000000E+00  0.0000000E+00
  0.2020202E-01  0.0000000E+00  0.1491512E-15 -0.5000890E+01 -0.5021092E+01  0.5306949E+00  0.2271374E+00  0.0000000E+00  0.0000000E+00
  0.3030303E-01  0.0000000E+00  0.1491512E-15 -0.5000891E+01 -0.5021093E+01  0.5306949E+00  0.2271374E+00  0.0000000E+00  0.0000000E+00
  0.4040404E-01  0.0000000E+00  0.1491512E-15 -0.5000892E+01 -0.5021094E+01  0.5306948E+00  0.2271374E+00  0.0000000E+00  0.0000000E+00
  0.5050505E-01  0.0000000E+00  0.1491512E-15 -0.5000894E+01 -0.5021096E+01  0.5306948E+00  0.2271374E+00  0.0000000E+00  0.0000000E+00
  0.6060606E-01  0.0000000E+00  0.1491512E-15 -0.5000896E+01 -0.5021098E+01  0.5306947E+00  0.2271373E+00  0.0000000E+00  0.0000000E+00
  0.7070707E-01  0.0000000E+00  0.1491512E-15 -0.5000899E+01 -0.5021101E+01  0.5306946E+00  0.2271373E+00  0.0000000E+00  0.0000000E+00
  0.8080808E-01  0.0000000E+00  0.1491512E-15 -0.5000902E+01 -0.5021104E+01  0.5306945E+00  0.2271373E+00  0.0000000E+00  0.0000000E+00
  0.9090909E-01  0.0000000E+00  0.1491512E-15 -0.5000906E+01 -0.5021108E+01  0.5306944E+00  0.2271372E+00  0.0000000E+00  0.0000000E+00
  0.1010101E+00  0.0000000E+00  0.1491512E-15 -0.5000909E+01 -0.5021111E+01  0.5306943E+00  0.2271372E+00  0.0000000E+00  0.0000000E+00
  0.1111111E+00  0.0000000E+00  0.1491512E-15 -0.5000913E+01 -0.5021115E+01  0.5306942E+00  0.2271371E+00  0.0000000E+00  0.0000000E+00
  0.1212121E+00  0.0000000E+00  0.1491512E-15 -0.5000918E+01 -0.5021120E+01  0.5306940E+00  0.2271370E+00  0.0000000E+00  0.0000000E+00
  0.1313131E+00  0.0000000E+00  0.1491512E-15 -0.5000923E+01 -0.5021125E+01  0.5306939E+00  0.2271370E+00  0.0000000E+00  0.0000000E+00
  0.1414142E+00  0.0000000E+00  0.1491512E-15 -0.5000928E+01 -0.5021130E+01  0.5306937E+00  0.2271369E+00  0.0000000E+00  0.0000000E+00
  0.1515152E+00  0.0000000E+00  0.1491512E-15 -0.5000933E+01 -0.5021135E+01  0.5306935E+00  0.2271368E+00  0.0000000E+00  0.0000000E+00
  0.1616162E+00  0.0000000E+00  0.1491512E-15 -0.5000939E+01 -0.5021141E+01  0.5306934E+00  0.2271368E+00  0.0000000E+00  0.0000000E+00
  0.1717172E+00  0.0000000E+00  0.1491512E-15 -0.5000944E+01 -0.5021146E+01  0.5306932E+00  0.2271367E+00  0.0000000E+00  0.0000000E+00
  0.1818182E+00  0.0000000E+00  0.1491512E-15 -0.5000950E+01 -0.5021152E+01  0.5306930E+00  0.2271366E+00  0.0000000E+00  0.0000000E+00