title = "dataset feddes"
variables = "x", "y", "z", "vx", "vy", "vz"
zone t = "velocities, solution time =  3.100E+01 days        " i =   99, j =   99, k =    1,  f=point
 -0.5050505E-02  0.0000000E+00 -0.5050505E-02  0.8970175E-12  0.0000000E+00  0.1693545E-07
 -0.5050505E-02  0.0000000E+00 -0.5050505E-02  0.3051113E-11  0.0000000E+00  0.1693942E-07
 -0.5050505E-02  0.0000000E+00 -0.5050505E-02  0.5301046E-11  0.0000000E+00  0.1694782E-07
 -0.5050505E-02  0.0000000E+00 -0.5050505E-02  0.7475529E-11  0.0000000E+00  0.1696066E-07
 -0.5050505E-02  0.0000000E+00 -0.5050505E-02  0.9592645E-11  0.0000000E+00  0.1697783E-07
 -0.5050505E-02  0.0000000E+00 -0.5050505E-02  0.1165788E-10  0.0000000E+00  0.1699920E-07
 -0.5050504E-02  0.0000000E+00 -0.5050505E-02  0.1367053E-10  0.0000000E+00  0.1702467E-07
 -0.5050501E-02  0.0000000E+00 -0.5050505E-02  0.1562609E-10  0.0000000E+00  0.1705413E-07
 -0.5050495E-02  0.0000000E+00 -0.5050505E-02  0.1751837E-10  0.0000000E+00  0.1708747E-07
 -0.5050482E-02  0.0000000E+00 -0.5050505E-02  0.1934056E-10  0.0000000E+00  0.1712453E-07
 -0.5050449E-02  0.0000000E+00 -0.5050505E-02  0.2108556E-10  0.0000000E+00  0.1716519E-07
 -0.5050376E-02  0.0000000E+00 -0.5050505E-02  0.2274657E-10  0.0000000E+00  0.1720927E-07
 -0.5050299E-02  0.0000000E+00 -0.5050505E-02  0.2431681E-10  0.0000000E+00  0.1725660E-07
 -0.5050178E-02  0.0000000E+00 -0.5050505E-02  0.2578988E-10  0.0000000E+00  0.1730699E-07
 -0.5050018E-02  0.0000000E+00 -0.5050505E-02  0.2715972E-10  0.0000000E+00  0.1736024E-07
 -0.5049710E-02  0.0000000E+00 -0.5050505E-02  0.2842058E-10  0.0000000E+00  0.1741613E-07
 -0.5049253E-02  0.0000000E+00 -0.5050505E-02  0.2956715E-10  0.0000000E+00  0.1747445E-07
 -0.5048636E-02  0.0000000E+00 -0.5050505E-02  0.3059452E-10  0.0000000E+00  0.1753495E-07
 -0.5047442E-02  0.0000000E+00 -0.5050505E-02  0.3149822E-10  0.0000000E+00  0.1759740E-07
 -0.5045727E-02  0.0000000E+00 -0.5050505E-02  0.3227422E-10  0.0000000E+00  0.1766153E-07
 -0.5043261E-02  0.0000000E+00 -0.5050505E-02  0.3291902E-10  0.0000000E+00  0.1772709E-07
 -0.5038714E-02  0.0000000E+00 -0.5050505E-02  0.3342956E-10  0.0000000E+00  0.1779382E-07
 -0.5032318E-02  0.0000000E+00 -0.5050505E-02  0.3380335E-10  0.0000000E+00  0.1786143E-07
 -0.5022454E-02  0.0000000E+00 -0.5050505E-02  0.3403844E-10  0.0000000E+00  0.1792966E-07
 -0.5012589E-02  0.0000000E+00 -0.5050505E-02  0.3413342E-10  0.0000000E+00  0.1799821E-07
 -0.5002725E-02  0.0000000E+00 -0.5050505E-02  0.3408741E-10  0.0000000E+00  0.1806682E-07
 -0.4992860E-02  0.0000000E+00 -0.5050505E-02  0.3390013E-10  0.0000000E+00  0.1813519E-07
 -0.4976523E-02  0.0000000E+00 -0.5050505E-02  0.3357188E-10  0.0000000E+00  0.1820305E-07
 -0.4956794E-02  0.0000000E+00 -0.5050505E-02  0.3310351E-10  0.0000000E+00  0.1827010E-07
 -0.4937066E-02  0.0000000E+00 -0.5050505E-02  0.3249652E-10  0.0000000E+00  0.1833607E-07
 -0.4906239E-02  0.0000000E+00 -0.5050505E-02  0.3175294E-10  0.0000000E+00  0.1840068E-07
 -0.4866782E-02  0.0000000E+00 -0.5050505E-02  0.3087543E-10  0.0000000E+00  0.1846367E-07
 -0.4827325E-02  0.0000000E+00 -0.5050505E-02  0.2986717E-10  0.0000000E+00  0.1852475E-07
 -0.4769372E-02  0.0000000E+00 -0.5050505E-02  0.2873196E-10  0.0000000E+00  0.1858368E-07
 -0.4690458E-02  0.0000000E+00 -0.5050505E-02  0.2747411E-10  0.0000000E+00  0.1864021E-07
 -0.4611543E-02  0.0000000E+00 -0.5050505E-02  0.2609852E-10  0.0000000E+00  0.1869409E-07
 -0.4503035E-02  0.0000000E+00 -0.5050505E-02  0.2461054E-10  0.0000000E+00  0.1874508E-07
 -0.4345206E-02  0.0000000E+00 -0.5050505E-02  0.2301609E-10  0.0000000E+00  0.1879298E-07
 -0.4187378E-02  0.0000000E+00 -0.5050505E-02  0.2132149E-10  0.0000000E+00  0.1883757E-07
 -0.3985156E-02  0.0000000E+00 -0.5050505E-02  0.1953347E-10  0.0000000E+00  0.1887865E-07
 -0.3669499E-02  0.0000000E+00 -0.5050505E-02  0.1765906E-10  0.0000000E+00  0.1891606E-07
 -0.3353842E-02  0.0000000E+00 -0.5050505E-02  0.1570554E-10  0.0000000E+00  0.1894961E-07
 -0.2978990E-02  0.0000000E+00 -0.5050505E-02  0.1368033E-10  0.0000000E+00  0.1897916E-07
 -0.2347676E-02  0.0000000E+00 -0.5050505E-02  0.1159086E-10  0.0000000E+00  0.1900458E-07
 -0.1716362E-02  0.0000000E+00 -0.5050505E-02  0.9444585E-11  0.0000000E+00  0.1902573E-07
 -0.1025842E-02  0.0000000E+00 -0.5050505E-02  0.7249371E-11  0.0000000E+00  0.1904252E-07
  0.2367855E-03  0.0000000E+00 -0.5050505E-02  0.5014224E-11  0.0000000E+00  0.1905485E-07
  0.1499413E-02  0.0000000E+00 -0.5050505E-02  0.2750465E-11  0.0000000E+00  0.1906266E-07
  0.2762042E-02  0.0000000E+00 -0.5050505E-02  0.4712759E-12  0.0000000E+00  0.1906590E-07
 -0.5050505E-02  0.0000000E+00 -0.5050505E-02 -0.1754214E-11  0.0000000E+00  0.1906461E-07
 -0.5050505E-02  0.0000000E+00 -0.5050505E-02 -0.3974088E-11  0.0000000E+00  0.1905885E-07
 -0.5050505E-02  0.0000000E+00 -0.5050505E-02 -0.6274459E-11  0.0000000E+00  0.1904854E-07
 -0.5050505E-02  0.0000000E+00 -0.5050505E-02 -0.8540594E-11  0.0000000E+00  0.1903364E-07
 -0.5050505E-02  0.0000000E+00 -0.5050505E-02 -0.1075739E-10  0.0000000E+00  0.1901424E-07
 -0.5050505E-02  0.0000000E+00 -0.5050505E-02 -0.1292328E-10  0.0000000E+00  0.1899042E-07
 -0.5050505E-02  0.0000000E+00 -0.5050505E-02 -0.1503483E-10  0.0000000E+00  0.1896231E-07
 -0.5050504E-02  0.0000000E+00 -0.5050505E-02 -0.1708611E-10  0.0000000E+00  0.1893000E-07
 -0.5050501E-02  0.0000000E+00 -0.5050505E-02 -0.1906984E-10  0.0000000E+00  0.1889364E-07
 -0.5050495E-02  0.0000000E+00 -0.5050505E-02 -0.2097830E-10  0.0000000E+00  0.1885337E-07
 -0.5050482E-02  0.0000000E+00 -0.5050505E-02 -0.2280375E-10  0.0000000E+00  0.1880934E-07
 -0.5050449E-02  0.0000000E+00 -0.5050505E-02 -0.2453872E-10  0.0000000E+00  0.1876173E-07
 -0.5050376E-02  0.0000000E+00 -0.5050505E-02 -0.2617608E-10  0.0000000E+00  0.1871072E-07
 -0.5050299E-02  0.0000000E+00 -0.5050505E-02 -0.2770911E-10  0.0000000E+00  0.1865653E-07
 -0.5050178E-02  0.0000000E+00 -0.5050505E-02 -0.2913155E-10  0.0000000E+00  0.1859937E-07
 -0.5050018E-02  0.0000000E+00 -0.5050505E-02 -0.3043759E-10  0.0000000E+00  0.1853947E-07
 -0.5049710E-02  0.0000000E+00 -0.5050505E-02 -0.3162195E-10  0.0000000E+00  0.1847705E-07
 -0.5049253E-02  0.0000000E+00 -0.5050505E-02 -0.3267982E-10  0.0000000E+00  0.1841239E-07
 -0.5048636E-02  0.0000000E+00 -0.5050505E-02 -0.3360694E-10  0.0000000E+00  0.1834573E-07
 -0.5047442E-02  0.0000000E+00 -0.5050505E-02 -0.3439959E-10  0.0000000E+00  0.1827734E-07
 -0.5045727E-02  0.0000000E+00 -0.5050505E-02 -0.3505454E-10  0.0000000E+00  0.1820749E-07
 -0.5043261E-02  0.0000000E+00 -0.5050505E-02 -0.3556914E-10  0.0000000E+00  0.1813646E-07
 -0.5038714E-02  0.0000000E+00 -0.5050505E-02 -0.3594121E-10  0.0000000E+00  0.1806455E-07
 -0.5032318E-02  0.0000000E+00 -0.5050505E-02 -0.3616910E-10  0.0000000E+00  0.1799203E-07
 -0.5022454E-02  0.0000000E+00 -0.5050505E-02 -0.3625166E-10  0.0000000E+00  0.1791920E-07
 -0.5012589E-02  0.0000000E+00 -0.5050505E-02 -0.3618818E-10  0.0000000E+00  0.1784635E-07
 -0.5002725E-02  0.0000000E+00 -0.5050505E-02 -0.3597832E-10  0.0000000E+00  0.1777377E-07
 -0.4992860E-02  0.0000000E+00 -0.5050505E-02 -0.3562215E-10  0.0000000E+00  0.1770177E-07
 -0.4976523E-02  0.0000000E+00 -0.5050505E-02 -0.3511994E-10  0.0000000E+00  0.1763063E-07
 -0.4956794E-02  0.0000000E+00 -0.5050505E-02 -0.3447213E-10  0.0000000E+00  0.1756064E-07
 -0.4937066E-02  0.0000000E+00 -0.5050505E-02 -0.3367913E-10  0.0000000E+00  0.1749210E-07
 -0.4906239E-02  0.0000000E+00 -0.5050505E-02 -0.3274109E-10  0.0000000E+00  0.1742531E-07
 -0.4866782E-02  0.0000000E+00 -0.5050505E-02 -0.3165754E-10  0.0000000E+00  0.1736054E-07
 -0.4827325E-02  0.0000000E+00 -0.5050505E-02 -0.3042692E-10  0.0000000E+00  0.1729811E-07
 -0.4769372E-02  0.0000000E+00 -0.5050505E-02 -0.2904573E-10  0.0000000E+00  0.1723830E-07
 -0.4690458E-02  0.0000000E+00 -0.5050505E-02 -0.2750732E-10  0.0000000E+00  0.1718143E-07
 -0.4611543E-02  0.0000000E+00 -0.5050505E-02 -0.2579985E-10  0.0000000E+00  0.1712782E-07
 -0.4503035E-02  0.0000000E+00 -0.5050505E-02 -0.2390287E-10  0.0000000E+00  0.1707783E-07
 -0.4345206E-02  0.0000000E+00 -0.5050505E-02 -0.2178134E-10  0.0000000E+00  0.1703189E-07
 -0.4187378E-02  0.0000000E+00 -0.5050505E-02 -0.1937499E-10  0.0000000E+00  0.1699050E-07
 -0.3985156E-02  0.0000000E+00 -0.5050505E-02 -0.1657795E-10  0.0000000E+00  0.1695434E-07
 -0.3669499E-02  0.0000000E+00 -0.5050505E-02 -0.1319806E-10  0.0000000E+00  0.1692440E-07
 -0.3353842E-02  0.0000000E+00 -0.5050505E-02 -0.8868962E-11  0.0000000E+00  0.1690221E-07
 -0.2978990E-02  0.0000000E+00 -0.5050505E-02 -0.2843506E-11  0.0000000E+00  0.1689043E-07
 -0.2347676E-02  0.0000000E+00 -0.5050505E-02  0.6476563E-11  0.0000000E+00  0.1689408E-07
 -0.1716362E-02  0.0000000E+00 -0.5050505E-02  0.2311561E-10  0.0000000E+00  0.1692384E-07
 -0.1025842E-02  0.0000000E+00 -0.5050505E-02  0.5773913E-10  0.0000000E+00  0.1700515E-07
  0.2367855E-03  0.0000000E+00 -0.5050505E-02  0.1421591E-09  0.0000000E+00  0.1720618E-07
  0.1499413E-02  0.0000000E+00 -0.5050505E-02  0.3812916E-09  0.0000000E+00  0.1773260E-07
  0.5287294E-02  0.0000000E+00 -0.5050505E-02  0.6263736E-08  0.0000000E+00  0.1416949E-07
 -0.5050505E-02  0.0000000E+00 -0.5050505E-02  0.2780028E-11  0.0000000E+00  0.1695203E-07
 -0.5050505E-02  0.0000000E+00 -0.5050505E-02  0.9208064E-11  0.0000000E+00  0.1695617E-07
 -0.5050505E-02  0.0000000E+00 -0.5050505E-02  0.1592052E-10  0.0000000E+00  0.1696469E-07
 -0.5050505E-02  0.0000000E+00 -0.5050505E-02  0.2242735E-10  0.0000000E+00  0.1697763E-07
 -0.5050505E-02  0.0000000E+00 -0.5050505E-02  0.2877279E-10  0.0000000E+00  0.1699488E-07
 -0.5050505E-02  0.0000000E+00 -0.5050505E-02  0.3496613E-10  0.0000000E+00  0.1701636E-07
 -0.5050504E-02  0.0000000E+00 -0.5050505E-02  0.4100260E-10  0.0000000E+00  0.1704196E-07
 -0.5050501E-02  0.0000000E+00 -0.5050505E-02  0.4686798E-10  0.0000000E+00  0.1707157E-07
 -0.5050495E-02  0.0000000E+00 -0.5050505E-02  0.5254360E-10  0.0000000E+00  0.1710506E-07
 -0.5050482E-02  0.0000000E+00 -0.5050505E-02  0.5800902E-10  0.0000000E+00  0.1714232E-07
 -0.5050449E-02  0.0000000E+00 -0.5050505E-02  0.6324303E-10  0.0000000E+00  0.1718317E-07
 -0.5050376E-02  0.0000000E+00 -0.5050505E-02  0.6822509E-10  0.0000000E+00  0.1722747E-07
 -0.5050299E-02  0.0000000E+00 -0.5050505E-02  0.7293500E-10  0.0000000E+00  0.1727504E-07
 -0.5050178E-02  0.0000000E+00 -0.5050505E-02  0.7735351E-10  0.0000000E+00  0.1732568E-07
 -0.5050018E-02  0.0000000E+00 -0.5050505E-02  0.8146243E-10  0.0000000E+00  0.1737919E-07
 -0.5049710E-02  0.0000000E+00 -0.5050505E-02  0.8524454E-10  0.0000000E+00  0.1743537E-07
 -0.5049253E-02  0.0000000E+00 -0.5050505E-02  0.8868389E-10  0.0000000E+00  0.1749398E-07
 -0.5048636E-02  0.0000000E+00 -0.5050505E-02  0.9176577E-10  0.0000000E+00  0.1755478E-07
 -0.5047442E-02  0.0000000E+00 -0.5050505E-02  0.9447674E-10  0.0000000E+00  0.1761754E-07
 -0.5045727E-02  0.0000000E+00 -0.5050505E-02  0.9680474E-10  0.0000000E+00  0.1768200E-07
 -0.5043261E-02  0.0000000E+00 -0.5050505E-02  0.9873919E-10  0.0000000E+00  0.1774789E-07
 -0.5038714E-02  0.0000000E+00 -0.5050505E-02  0.1002710E-09  0.0000000E+00  0.1781495E-07
 -0.5032318E-02  0.0000000E+00 -0.5050505E-02  0.1013927E-09  0.0000000E+00  0.1788291E-07
 -0.5022454E-02  0.0000000E+00 -0.5050505E-02  0.1020983E-09  0.0000000E+00  0.1795148E-07
 -0.5012589E-02  0.0000000E+00 -0.5050505E-02  0.1023837E-09  0.0000000E+00  0.1802039E-07
 -0.5002725E-02  0.0000000E+00 -0.5050505E-02  0.1022462E-09  0.0000000E+00  0.1808935E-07
 -0.4992860E-02  0.0000000E+00 -0.5050505E-02  0.1016850E-09  0.0000000E+00  0.1815808E-07
 -0.4976523E-02  0.0000000E+00 -0.5050505E-02  0.1007009E-09  0.0000000E+00  0.1822628E-07
 -0.4956794E-02  0.0000000E+00 -0.5050505E-02  0.9929655E-10  0.0000000E+00  0.1829368E-07
 -0.4937066E-02  0.0000000E+00 -0.5050505E-02  0.9747638E-10  0.0000000E+00  0.1836000E-07
 -0.4906239E-02  0.0000000E+00 -0.5050505E-02  0.9524649E-10  0.0000000E+00  0.1842495E-07
 -0.4866782E-02  0.0000000E+00 -0.5050505E-02  0.9261482E-10  0.0000000E+00  0.1848826E-07
 -0.4827325E-02  0.0000000E+00 -0.5050505E-02  0.8959097E-10  0.0000000E+00  0.1854966E-07
 -0.4769372E-02  0.0000000E+00 -0.5050505E-02  0.8618626E-10  0.0000000E+00  0.1860891E-07
 -0.4690458E-02  0.0000000E+00 -0.5050505E-02  0.8241366E-10  0.0000000E+00  0.1866573E-07
 -0.4611543E-02  0.0000000E+00 -0.5050505E-02  0.7828783E-10  0.0000000E+00  0.1871989E-07
 -0.4503035E-02  0.0000000E+00 -0.5050505E-02  0.7382490E-10  0.0000000E+00  0.1877116E-07
 -0.4345206E-02  0.0000000E+00 -0.5050505E-02  0.6904257E-10  0.0000000E+00  0.1881931E-07
 -0.4187378E-02  0.0000000E+00 -0.5050505E-02  0.6395982E-10  0.0000000E+00  0.1886414E-07
 -0.3985156E-02  0.0000000E+00 -0.5050505E-02  0.5859681E-10  0.0000000E+00  0.1890545E-07
 -0.3669499E-02  0.0000000E+00 -0.5050505E-02  0.5297473E-10  0.0000000E+00  0.1894305E-07
 -0.3353842E-02  0.0000000E+00 -0.5050505E-02  0.4711542E-10  0.0000000E+00  0.1897679E-07
 -0.2978990E-02  0.0000000E+00 -0.5050505E-02  0.4104101E-10  0.0000000E+00  0.1900651E-07
 -0.2347676E-02  0.0000000E+00 -0.5050505E-02  0.3477363E-10  0.0000000E+00  0.1903207E-07
 -0.1716362E-02  0.0000000E+00 -0.5050505E-02  0.2833522E-10  0.0000000E+00  0.1905334E-07
 -0.1025842E-02  0.0000000E+00 -0.5050505E-02  0.2174871E-10  0.0000000E+00  0.1907023E-07
  0.2367855E-03  0.0000000E+00 -0.5050505E-02  0.1504122E-10  0.0000000E+00  0.1908263E-07
  0.1499413E-02  0.0000000E+00 -0.5050505E-02  0.8251030E-11  0.0000000E+00  0.1909048E-07
  0.2762042E-02  0.0000000E+00 -0.5050505E-02  0.1436169E-11  0.0000000E+00  0.1909376E-07
 -0.5050505E-02  0.0000000E+00 -0.5050505E-02 -0.5255445E-11  0.0000000E+00  0.1909249E-07
 -0.5050505E-02  0.0000000E+00 -0.5050505E-02 -0.1193367E-10  0.0000000E+00  0.1908669E-07
 -0.5050505E-02  0.0000000E+00 -0.5050505E-02 -0.1881988E-10  0.0000000E+00  0.1907632E-07
 -0.5050505E-02  0.0000000E+00 -0.5050505E-02 -0.2561173E-10  0.0000000E+00  0.1906135E-07
 -0.5050505E-02  0.0000000E+00 -0.5050505E-02 -0.3226070E-10  0.0000000E+00  0.1904186E-07
 -0.5050505E-02  0.0000000E+00 -0.5050505E-02 -0.3875822E-10  0.0000000E+00  0.1901793E-07
 -0.5050505E-02  0.0000000E+00 -0.5050505E-02 -0.4509270E-10  0.0000000E+00  0.1898968E-07
 -0.5050504E-02  0.0000000E+00 -0.5050505E-02 -0.5124610E-10  0.0000000E+00  0.1895722E-07
 -0.5050501E-02  0.0000000E+00 -0.5050505E-02 -0.5719665E-10  0.0000000E+00  0.1892068E-07
 -0.5050495E-02  0.0000000E+00 -0.5050505E-02 -0.6292126E-10  0.0000000E+00  0.1888021E-07
 -0.5050482E-02  0.0000000E+00 -0.5050505E-02 -0.6839679E-10  0.0000000E+00  0.1883596E-07
 -0.5050449E-02  0.0000000E+00 -0.5050505E-02 -0.7360089E-10  0.0000000E+00  0.1878811E-07
 -0.5050376E-02  0.0000000E+00 -0.5050505E-02 -0.7851215E-10  0.0000000E+00  0.1873686E-07
 -0.5050299E-02  0.0000000E+00 -0.5050505E-02 -0.8311044E-10  0.0000000E+00  0.1868240E-07
 -0.5050178E-02  0.0000000E+00 -0.5050505E-02 -0.8737698E-10  0.0000000E+00  0.1862495E-07
 -0.5050018E-02  0.0000000E+00 -0.5050505E-02 -0.9129438E-10  0.0000000E+00  0.1856474E-07
 -0.5049710E-02  0.0000000E+00 -0.5050505E-02 -0.9484674E-10  0.0000000E+00  0.1850202E-07
 -0.5049253E-02  0.0000000E+00 -0.5050505E-02 -0.9801973E-10  0.0000000E+00  0.1843703E-07
 -0.5048636E-02  0.0000000E+00 -0.5050505E-02 -0.1008005E-09  0.0000000E+00  0.1837003E-07
 -0.5047442E-02  0.0000000E+00 -0.5050505E-02 -0.1031780E-09  0.0000000E+00  0.1830130E-07
 -0.5045727E-02  0.0000000E+00 -0.5050505E-02 -0.1051425E-09  0.0000000E+00  0.1823110E-07
 -0.5043261E-02  0.0000000E+00 -0.5050505E-02 -0.1066860E-09  0.0000000E+00  0.1815972E-07
 -0.5038714E-02  0.0000000E+00 -0.5050505E-02 -0.1078021E-09  0.0000000E+00  0.1808745E-07
 -0.5032318E-02  0.0000000E+00 -0.5050505E-02 -0.1084858E-09  0.0000000E+00  0.1801457E-07
 -0.5022454E-02  0.0000000E+00 -0.5050505E-02 -0.1087338E-09  0.0000000E+00  0.1794137E-07
 -0.5012589E-02  0.0000000E+00 -0.5050505E-02 -0.1085439E-09  0.0000000E+00  0.1786815E-07
 -0.5002725E-02  0.0000000E+00 -0.5050505E-02 -0.1079152E-09  0.0000000E+00  0.1779521E-07
 -0.4992860E-02  0.0000000E+00 -0.5050505E-02 -0.1068480E-09  0.0000000E+00  0.1772284E-07
 -0.4976523E-02  0.0000000E+00 -0.5050505E-02 -0.1053432E-09  0.0000000E+00  0.1765133E-07
 -0.4956794E-02  0.0000000E+00 -0.5050505E-02 -0.1034023E-09  0.0000000E+00  0.1758099E-07
 -0.4937066E-02  0.0000000E+00 -0.5050505E-02 -0.1010267E-09  0.0000000E+00  0.1751209E-07
 -0.4906239E-02  0.0000000E+00 -0.5050505E-02 -0.9821731E-10  0.0000000E+00  0.1744494E-07
 -0.4866782E-02  0.0000000E+00 -0.5050505E-02 -0.9497315E-10  0.0000000E+00  0.1737981E-07
 -0.4827325E-02  0.0000000E+00 -0.5050505E-02 -0.9129037E-10  0.0000000E+00  0.1731702E-07
 -0.4769372E-02  0.0000000E+00 -0.5050505E-02 -0.8715968E-10  0.0000000E+00  0.1725684E-07
 -0.4690458E-02  0.0000000E+00 -0.5050505E-02 -0.8256322E-10  0.0000000E+00  0.1719959E-07
 -0.4611543E-02  0.0000000E+00 -0.5050505E-02 -0.7746885E-10  0.0000000E+00  0.1714556E-07
 -0.4503035E-02  0.0000000E+00 -0.5050505E-02 -0.7182113E-10  0.0000000E+00  0.1709512E-07
 -0.4345206E-02  0.0000000E+00 -0.5050505E-02 -0.6552576E-10  0.0000000E+00  0.1704862E-07
 -0.4187378E-02  0.0000000E+00 -0.5050505E-02 -0.5842215E-10  0.0000000E+00  0.1700652E-07
 -0.3985156E-02  0.0000000E+00 -0.5050505E-02 -0.5023355E-10  0.0000000E+00  0.1696936E-07
 -0.3669499E-02  0.0000000E+00 -0.5050505E-02 -0.4047221E-10  0.0000000E+00  0.1693786E-07
 -0.3353842E-02  0.0000000E+00 -0.5050505E-02 -0.2824872E-10  0.0000000E+00  0.1691301E-07
 -0.2978990E-02  0.0000000E+00 -0.5050505E-02 -0.1185931E-10  0.0000000E+00  0.1689616E-07
 -0.2347676E-02  0.0000000E+00 -0.5050505E-02  0.1211867E-10  0.0000000E+00  0.1688914E-07
 -0.1716362E-02  0.0000000E+00 -0.5050505E-02  0.5140922E-10  0.0000000E+00  0.1689367E-07
 -0.1025842E-02  0.0000000E+00 -0.5050505E-02  0.1235064E-09  0.0000000E+00  0.1690741E-07
  0.2367855E-03  0.0000000E+00 -0.5050505E-02  0.2720027E-09  0.0000000E+00  0.1690423E-07
  0.1499413E-02  0.0000000E+00 -0.5050505E-02  0.6103004E-09  0.0000000E+00  0.1674166E-07
  0.5287294E-02  0.0000000E+00 -0.5050505E-02  0.1449108E-08  0.0000000E+00  0.1573080E-07
 -0.5050505E-02  0.0000000E+00 -0.5050505E-02  0.4794529E-11  0.0000000E+00  0.1698574E-07
 -0.5050505E-02  0.0000000E+00 -0.5050505E-02  0.1547435E-10  0.0000000E+00  0.1699000E-07
 -0.5050505E-02  0.0000000E+00 -0.5050505E-02  0.2659906E-10  0.0000000E+00  0.1699866E-07
 -0.5050505E-02  0.0000000E+00 -0.5050505E-02  0.3742031E-10  0.0000000E+00  0.1701176E-07
 -0.5050505E-02  0.0000000E+00 -0.5050505E-02  0.4799263E-10  0.0000000E+00  0.1702920E-07
 -0.5050505E-02  0.0000000E+00 -0.5050505E-02  0.5831879E-10  0.0000000E+00  0.1705089E-07
 -0.5050504E-02  0.0000000E+00 -0.5050505E-02  0.6838554E-10  0.0000000E+00  0.1707674E-07
 -0.5050501E-02  0.0000000E+00 -0.5050505E-02  0.7816768E-10  0.0000000E+00  0.1710664E-07
 -0.5050495E-02  0.0000000E+00 -0.5050505E-02  0.8763355E-10  0.0000000E+00  0.1714047E-07
 -0.5050482E-02  0.0000000E+00 -0.5050505E-02  0.9674904E-10  0.0000000E+00  0.1717809E-07
 -0.5050449E-02  0.0000000E+00 -0.5050505E-02  0.1054788E-09  0.0000000E+00  0.1721935E-07
 -0.5050376E-02  0.0000000E+00 -0.5050505E-02  0.1137885E-09  0.0000000E+00  0.1726409E-07
 -0.5050299E-02  0.0000000E+00 -0.5050505E-02  0.1216445E-09  0.0000000E+00  0.1731213E-07
 -0.5050178E-02  0.0000000E+00 -0.5050505E-02  0.1290146E-09  0.0000000E+00  0.1736327E-07
 -0.5050018E-02  0.0000000E+00 -0.5050505E-02  0.1358686E-09  0.0000000E+00  0.1741732E-07
 -0.5049710E-02  0.0000000E+00 -0.5050505E-02  0.1421776E-09  0.0000000E+00  0.1747405E-07
 -0.5049253E-02  0.0000000E+00 -0.5050505E-02  0.1479152E-09  0.0000000E+00  0.1753325E-07
 -0.5048636E-02  0.0000000E+00 -0.5050505E-02  0.1530567E-09  0.0000000E+00  0.1759466E-07
 -0.5047442E-02  0.0000000E+00 -0.5050505E-02  0.1575796E-09  0.0000000E+00  0.1765805E-07
 -0.5045727E-02  0.0000000E+00 -0.5050505E-02  0.1614639E-09  0.0000000E+00  0.1772316E-07
 -0.5043261E-02  0.0000000E+00 -0.5050505E-02  0.1646919E-09  0.0000000E+00  0.1778972E-07
 -0.5038714E-02  0.0000000E+00 -0.5050505E-02  0.1672484E-09  0.0000000E+00  0.1785746E-07
 -0.5032318E-02  0.0000000E+00 -0.5050505E-02  0.1691210E-09  0.0000000E+00  0.1792610E-07
 -0.5022454E-02  0.0000000E+00 -0.5050505E-02  0.1702996E-09  0.0000000E+00  0.1799537E-07
 -0.5012589E-02  0.0000000E+00 -0.5050505E-02  0.1707774E-09  0.0000000E+00  0.1806499E-07
 -0.5002725E-02  0.0000000E+00 -0.5050505E-02  0.1705498E-09  0.0000000E+00  0.1813465E-07
 -0.4992860E-02  0.0000000E+00 -0.5050505E-02  0.1696154E-09  0.0000000E+00  0.1820408E-07
 -0.4976523E-02  0.0000000E+00 -0.5050505E-02  0.1679756E-09  0.0000000E+00  0.1827299E-07
 -0.4956794E-02  0.0000000E+00 -0.5050505E-02  0.1656349E-09  0.0000000E+00  0.1834108E-07
 -0.4937066E-02  0.0000000E+00 -0.5050505E-02  0.1626004E-09  0.0000000E+00  0.1840808E-07
 -0.4906239E-02  0.0000000E+00 -0.5050505E-02  0.1588825E-09  0.0000000E+00  0.1847371E-07
 -0.4866782E-02  0.0000000E+00 -0.5050505E-02  0.1544944E-09  0.0000000E+00  0.1853768E-07
 -0.4827325E-02  0.0000000E+00 -0.5050505E-02  0.1494519E-09  0.0000000E+00  0.1859973E-07
 -0.4769372E-02  0.0000000E+00 -0.5050505E-02  0.1437741E-09  0.0000000E+00  0.1865959E-07
 -0.4690458E-02  0.0000000E+00 -0.5050505E-02  0.1374824E-09  0.0000000E+00  0.1871701E-07
 -0.4611543E-02  0.0000000E+00 -0.5050505E-02  0.1306014E-09  0.0000000E+00  0.1877175E-07
 -0.4503035E-02  0.0000000E+00 -0.5050505E-02  0.1231581E-09  0.0000000E+00  0.1882356E-07
 -0.4345206E-02  0.0000000E+00 -0.5050505E-02  0.1151818E-09  0.0000000E+00  0.1887222E-07
 -0.4187378E-02  0.0000000E+00 -0.5050505E-02  0.1067044E-09  0.0000000E+00  0.1891753E-07
 -0.3985156E-02  0.0000000E+00 -0.5050505E-02  0.9775935E-10  0.0000000E+00  0.1895928E-07
 -0.3669499E-02  0.0000000E+00 -0.5050505E-02  0.8838223E-10  0.0000000E+00  0.1899730E-07
 -0.3353842E-02  0.0000000E+00 -0.5050505E-02  0.7860946E-10  0.0000000E+00  0.1903140E-07
 -0.2978990E-02  0.0000000E+00 -0.5050505E-02  0.6847790E-10  0.0000000E+00  0.1906145E-07
 -0.2347676E-02  0.0000000E+00 -0.5050505E-02  0.5802411E-10  0.0000000E+00  0.1908729E-07
 -0.1716362E-02  0.0000000E+00 -0.5050505E-02  0.4728385E-10  0.0000000E+00  0.1910881E-07
 -0.1025842E-02  0.0000000E+00 -0.5050505E-02  0.3629373E-10  0.0000000E+00  0.1912589E-07
  0.2367855E-03  0.0000000E+00 -0.5050505E-02  0.2509812E-10  0.0000000E+00  0.1913844E-07
  0.1499413E-02  0.0000000E+00 -0.5050505E-02  0.1376793E-10  0.0000000E+00  0.1914638E-07
  0.2762042E-02  0.0000000E+00 -0.5050505E-02  0.2439521E-11  0.0000000E+00  0.1914971E-07
 -0.5050505E-02  0.0000000E+00 -0.5050505E-02 -0.8745881E-11  0.0000000E+00  0.1914846E-07
 -0.5050505E-02  0.0000000E+00 -0.5050505E-02 -0.1992156E-10  0.0000000E+00  0.1914261E-07
 -0.5050505E-02  0.0000000E+00 -0.5050505E-02 -0.3138547E-10  0.0000000E+00  0.1913214E-07
 -0.5050505E-02  0.0000000E+00 -0.5050505E-02 -0.4270420E-10  0.0000000E+00  0.1911704E-07
 -0.5050505E-02  0.0000000E+00 -0.5050505E-02 -0.5379382E-10  0.0000000E+00  0.1909736E-07
 -0.5050505E-02  0.0000000E+00 -0.5050505E-02 -0.6463351E-10  0.0000000E+00  0.1907321E-07
 -0.5050505E-02  0.0000000E+00 -0.5050505E-02 -0.7520135E-10  0.0000000E+00  0.1904469E-07
 -0.5050504E-02  0.0000000E+00 -0.5050505E-02 -0.8546660E-10  0.0000000E+00  0.1901191E-07
 -0.5050501E-02  0.0000000E+00 -0.5050505E-02 -0.9539300E-10  0.0000000E+00  0.1897501E-07
 -0.5050495E-02  0.0000000E+00 -0.5050505E-02 -0.1049422E-09  0.0000000E+00  0.1893414E-07
 -0.5050482E-02  0.0000000E+00 -0.5050505E-02 -0.1140757E-09  0.0000000E+00  0.1888945E-07
 -0.5050449E-02  0.0000000E+00 -0.5050505E-02 -0.1227562E-09  0.0000000E+00  0.1884113E-07
 -0.5050376E-02  0.0000000E+00 -0.5050505E-02 -0.1309482E-09  0.0000000E+00  0.1878936E-07
 -0.5050299E-02  0.0000000E+00 -0.5050505E-02 -0.1386180E-09  0.0000000E+00  0.1873436E-07
 -0.5050178E-02  0.0000000E+00 -0.5050505E-02 -0.1457343E-09  0.0000000E+00  0.1867633E-07
 -0.5050018E-02  0.0000000E+00 -0.5050505E-02 -0.1522682E-09  0.0000000E+00  0.1861553E-07
 -0.5049710E-02  0.0000000E+00 -0.5050505E-02 -0.1581932E-09  0.0000000E+00  0.1855218E-07
 -0.5049253E-02  0.0000000E+00 -0.5050505E-02 -0.1634853E-09  0.0000000E+00  0.1848654E-07
 -0.5048636E-02  0.0000000E+00 -0.5050505E-02 -0.1681233E-09  0.0000000E+00  0.1841888E-07
 -0.5047442E-02  0.0000000E+00 -0.5050505E-02 -0.1720886E-09  0.0000000E+00  0.1834946E-07
 -0.5045727E-02  0.0000000E+00 -0.5050505E-02 -0.1753651E-09  0.0000000E+00  0.1827856E-07
 -0.5043261E-02  0.0000000E+00 -0.5050505E-02 -0.1779396E-09  0.0000000E+00  0.1820647E-07
 -0.5038714E-02  0.0000000E+00 -0.5050505E-02 -0.1798015E-09  0.0000000E+00  0.1813347E-07
 -0.5032318E-02  0.0000000E+00 -0.5050505E-02 -0.1809425E-09  0.0000000E+00  0.1805986E-07
 -0.5022454E-02  0.0000000E+00 -0.5050505E-02 -0.1813572E-09  0.0000000E+00  0.1798593E-07
 -0.5012589E-02  0.0000000E+00 -0.5050505E-02 -0.1810420E-09  0.0000000E+00  0.1791198E-07
 -0.5002725E-02  0.0000000E+00 -0.5050505E-02 -0.1799959E-09  0.0000000E+00  0.1783830E-07
 -0.4992860E-02  0.0000000E+00 -0.5050505E-02 -0.1782193E-09  0.0000000E+00  0.1776520E-07
 -0.4976523E-02  0.0000000E+00 -0.5050505E-02 -0.1757144E-09  0.0000000E+00  0.1769297E-07
 -0.4956794E-02  0.0000000E+00 -0.5050505E-02 -0.1724840E-09  0.0000000E+00  0.1762190E-07
 -0.4937066E-02  0.0000000E+00 -0.5050505E-02 -0.1685314E-09  0.0000000E+00  0.1755228E-07
 -0.4906239E-02  0.0000000E+00 -0.5050505E-02 -0.1638589E-09  0.0000000E+00  0.1748441E-07
 -0.4866782E-02  0.0000000E+00 -0.5050505E-02 -0.1584667E-09  0.0000000E+00  0.1741858E-07
 -0.4827325E-02  0.0000000E+00 -0.5050505E-02 -0.1523506E-09  0.0000000E+00  0.1735507E-07
 -0.4769372E-02  0.0000000E+00 -0.5050505E-02 -0.1454992E-09  0.0000000E+00  0.1729417E-07
 -0.4690458E-02  0.0000000E+00 -0.5050505E-02 -0.1378886E-09  0.0000000E+00  0.1723616E-07
 -0.4611543E-02  0.0000000E+00 -0.5050505E-02 -0.1294757E-09  0.0000000E+00  0.1718134E-07
 -0.4503035E-02  0.0000000E+00 -0.5050505E-02 -0.1201853E-09  0.0000000E+00  0.1713000E-07
 -0.4345206E-02  0.0000000E+00 -0.5050505E-02 -0.1098912E-09  0.0000000E+00  0.1708247E-07
 -0.4187378E-02  0.0000000E+00 -0.5050505E-02 -0.9838245E-10  0.0000000E+00  0.1703907E-07
 -0.3985156E-02  0.0000000E+00 -0.5050505E-02 -0.8530746E-10  0.0000000E+00  0.1700016E-07
 -0.3669499E-02  0.0000000E+00 -0.5050505E-02 -0.7007741E-10  0.0000000E+00  0.1696611E-07
 -0.3353842E-02  0.0000000E+00 -0.5050505E-02 -0.5170166E-10  0.0000000E+00  0.1693721E-07
 -0.2978990E-02  0.0000000E+00 -0.5050505E-02 -0.2850915E-10  0.0000000E+00  0.1691350E-07
 -0.2347676E-02  0.0000000E+00 -0.5050505E-02  0.2598196E-11  0.0000000E+00  0.1689421E-07
 -0.1716362E-02  0.0000000E+00 -0.5050505E-02  0.4694195E-10  0.0000000E+00  0.1687596E-07
 -0.1025842E-02  0.0000000E+00 -0.5050505E-02  0.1132756E-09  0.0000000E+00  0.1684843E-07
  0.2367855E-03  0.0000000E+00 -0.5050505E-02  0.2127423E-09  0.0000000E+00  0.1678397E-07
  0.1499413E-02  0.0000000E+00 -0.5050505E-02  0.3411475E-09  0.0000000E+00  0.1662125E-07
  0.5287294E-02  0.0000000E+00 -0.5050505E-02  0.3805973E-09  0.0000000E+00  0.1629852E-07
 -0.5050505E-02  0.0000000E+00 -0.5050505E-02  0.6872289E-11  0.0000000E+00  0.1703666E-07
 -0.5050505E-02  0.0000000E+00 -0.5050505E-02  0.2184296E-10  0.0000000E+00  0.1704101E-07
 -0.5050505E-02  0.0000000E+00 -0.5050505E-02  0.3738067E-10  0.0000000E+00  0.1704983E-07
 -0.5050505E-02  0.0000000E+00 -0.5050505E-02  0.5253014E-10  0.0000000E+00  0.1706314E-07
 -0.5050505E-02  0.0000000E+00 -0.5050505E-02  0.6735038E-10  0.0000000E+00  0.1708084E-07
 -0.5050505E-02  0.0000000E+00 -0.5050505E-02  0.8183399E-10  0.0000000E+00  0.1710286E-07
 -0.5050504E-02  0.0000000E+00 -0.5050505E-02  0.9595685E-10  0.0000000E+00  0.1712909E-07
 -0.5050501E-02  0.0000000E+00 -0.5050505E-02  0.1096818E-09  0.0000000E+00  0.1715944E-07
 -0.5050495E-02  0.0000000E+00 -0.5050505E-02  0.1229636E-09  0.0000000E+00  0.1719376E-07
 -0.5050482E-02  0.0000000E+00 -0.5050505E-02  0.1357543E-09  0.0000000E+00  0.1723194E-07
 -0.5050449E-02  0.0000000E+00 -0.5050505E-02  0.1480042E-09  0.0000000E+00  0.1727381E-07
 -0.5050376E-02  0.0000000E+00 -0.5050505E-02  0.1596650E-09  0.0000000E+00  0.1731920E-07
 -0.5050299E-02  0.0000000E+00 -0.5050505E-02  0.1706896E-09  0.0000000E+00  0.1736795E-07
 -0.5050178E-02  0.0000000E+00 -0.5050505E-02  0.1810328E-09  0.0000000E+00  0.1741985E-07
 -0.5050018E-02  0.0000000E+00 -0.5050505E-02  0.1906521E-09  0.0000000E+00  0.1747470E-07
 -0.5049710E-02  0.0000000E+00 -0.5050505E-02  0.1995071E-09  0.0000000E+00  0.1753227E-07
 -0.5049253E-02  0.0000000E+00 -0.5050505E-02  0.2075606E-09  0.0000000E+00  0.1759235E-07
 -0.5048636E-02  0.0000000E+00 -0.5050505E-02  0.2147779E-09  0.0000000E+00  0.1765468E-07
 -0.5047442E-02  0.0000000E+00 -0.5050505E-02  0.2211275E-09  0.0000000E+00  0.1771902E-07
 -0.5045727E-02  0.0000000E+00 -0.5050505E-02  0.2265811E-09  0.0000000E+00  0.1778510E-07
 -0.5043261E-02  0.0000000E+00 -0.5050505E-02  0.2311140E-09  0.0000000E+00  0.1785266E-07
 -0.5038714E-02  0.0000000E+00 -0.5050505E-02  0.2347049E-09  0.0000000E+00  0.1792142E-07
 -0.5032318E-02  0.0000000E+00 -0.5050505E-02  0.2373360E-09  0.0000000E+00  0.1799110E-07
 -0.5022454E-02  0.0000000E+00 -0.5050505E-02  0.2389936E-09  0.0000000E+00  0.1806142E-07
 -0.5012589E-02  0.0000000E+00 -0.5050505E-02  0.2396676E-09  0.0000000E+00  0.1813209E-07
 -0.5002725E-02  0.0000000E+00 -0.5050505E-02  0.2393518E-09  0.0000000E+00  0.1820282E-07
 -0.4992860E-02  0.0000000E+00 -0.5050505E-02  0.2380442E-09  0.0000000E+00  0.1827331E-07
 -0.4976523E-02  0.0000000E+00 -0.5050505E-02  0.2357466E-09  0.0000000E+00  0.1834327E-07
 -0.4956794E-02  0.0000000E+00 -0.5050505E-02  0.2324652E-09  0.0000000E+00  0.1841242E-07
 -0.4937066E-02  0.0000000E+00 -0.5050505E-02  0.2282101E-09  0.0000000E+00  0.1848045E-07