title = "dataset feddes"
variables = "x", "y", "z", "vx", "vy", "vz"
zone t = "velocities, solution time =  1.100E+01 days        " i =   99, j =   99, k =    1,  f=point
 -0.5050505E-02  0.0000000E+00 -0.5050505E-02 -0.3201574E-14  0.0000000E+00 -0.1109747E-09
 -0.5050505E-02  0.0000000E+00 -0.5050505E-02 -0.8472549E-15  0.0000000E+00 -0.1109787E-09
 -0.5050505E-02  0.0000000E+00 -0.5050505E-02  0.1199653E-14  0.0000000E+00 -0.1109784E-09
 -0.5050505E-02  0.0000000E+00 -0.5050505E-02  0.2309332E-14  0.0000000E+00 -0.1109748E-09
 -0.5050505E-02  0.0000000E+00 -0.5050505E-02  0.3411513E-14  0.0000000E+00 -0.1109691E-09
 -0.5050505E-02  0.0000000E+00 -0.5050505E-02  0.4296257E-14  0.0000000E+00 -0.1109614E-09
 -0.5050504E-02  0.0000000E+00 -0.5050505E-02  0.5173504E-14  0.0000000E+00 -0.1109519E-09
 -0.5050501E-02  0.0000000E+00 -0.5050505E-02  0.6065746E-14  0.0000000E+00 -0.1109407E-09
 -0.5050495E-02  0.0000000E+00 -0.5050505E-02  0.6942992E-14  0.0000000E+00 -0.1109277E-09
 -0.5050482E-02  0.0000000E+00 -0.5050505E-02  0.7812740E-14  0.0000000E+00 -0.1109129E-09
 -0.5050449E-02  0.0000000E+00 -0.5050505E-02  0.8652497E-14  0.0000000E+00 -0.1108965E-09
 -0.5050376E-02  0.0000000E+00 -0.5050505E-02  0.9462263E-14  0.0000000E+00 -0.1108784E-09
 -0.5050299E-02  0.0000000E+00 -0.5050505E-02  0.1024204E-13  0.0000000E+00 -0.1108587E-09
 -0.5050178E-02  0.0000000E+00 -0.5050505E-02  0.1098432E-13  0.0000000E+00 -0.1108374E-09
 -0.5050018E-02  0.0000000E+00 -0.5050505E-02  0.1169662E-13  0.0000000E+00 -0.1108148E-09
 -0.5049710E-02  0.0000000E+00 -0.5050505E-02  0.1236392E-13  0.0000000E+00 -0.1107907E-09
 -0.5049253E-02  0.0000000E+00 -0.5050505E-02  0.1298624E-13  0.0000000E+00 -0.1107653E-09
 -0.5048636E-02  0.0000000E+00 -0.5050505E-02  0.1356358E-13  0.0000000E+00 -0.1107388E-09
 -0.5047442E-02  0.0000000E+00 -0.5050505E-02  0.1408843E-13  0.0000000E+00 -0.1107111E-09
 -0.5045727E-02  0.0000000E+00 -0.5050505E-02  0.1456829E-13  0.0000000E+00 -0.1106825E-09
 -0.5043261E-02  0.0000000E+00 -0.5050505E-02  0.1498816E-13  0.0000000E+00 -0.1106529E-09
 -0.5038714E-02  0.0000000E+00 -0.5050505E-02  0.1535556E-13  0.0000000E+00 -0.1106226E-09
 -0.5032318E-02  0.0000000E+00 -0.5050505E-02  0.1564797E-13  0.0000000E+00 -0.1105916E-09
 -0.5022454E-02  0.0000000E+00 -0.5050505E-02  0.1589540E-13  0.0000000E+00 -0.1105600E-09
 -0.5012589E-02  0.0000000E+00 -0.5050505E-02  0.1604536E-13  0.0000000E+00 -0.1105281E-09
 -0.5002725E-02  0.0000000E+00 -0.5050505E-02  0.1615033E-13  0.0000000E+00 -0.1104959E-09
 -0.4992860E-02  0.0000000E+00 -0.5050505E-02  0.1615783E-13  0.0000000E+00 -0.1104636E-09
 -0.4976523E-02  0.0000000E+00 -0.5050505E-02  0.1613533E-13  0.0000000E+00 -0.1104313E-09
 -0.4956794E-02  0.0000000E+00 -0.5050505E-02  0.1604536E-13  0.0000000E+00 -0.1103991E-09
 -0.4937066E-02  0.0000000E+00 -0.5050505E-02  0.1586541E-13  0.0000000E+00 -0.1103672E-09
 -0.4906239E-02  0.0000000E+00 -0.5050505E-02  0.1558049E-13  0.0000000E+00 -0.1103358E-09
 -0.4866782E-02  0.0000000E+00 -0.5050505E-02  0.1521310E-13  0.0000000E+00 -0.1103050E-09
 -0.4827325E-02  0.0000000E+00 -0.5050505E-02  0.1488320E-13  0.0000000E+00 -0.1102749E-09
 -0.4769372E-02  0.0000000E+00 -0.5050505E-02  0.1444832E-13  0.0000000E+00 -0.1102455E-09
 -0.4690458E-02  0.0000000E+00 -0.5050505E-02  0.1384100E-13  0.0000000E+00 -0.1102173E-09
 -0.4611543E-02  0.0000000E+00 -0.5050505E-02  0.1328616E-13  0.0000000E+00 -0.1101901E-09
 -0.4503035E-02  0.0000000E+00 -0.5050505E-02  0.1259636E-13  0.0000000E+00 -0.1101642E-09
 -0.4345206E-02  0.0000000E+00 -0.5050505E-02  0.1149418E-13  0.0000000E+00 -0.1101402E-09
 -0.4187378E-02  0.0000000E+00 -0.5050505E-02  0.9859648E-14  0.0000000E+00 -0.1101188E-09
 -0.3985156E-02  0.0000000E+00 -0.5050505E-02  0.9312307E-14  0.0000000E+00 -0.1100996E-09
 -0.3669499E-02  0.0000000E+00 -0.5050505E-02  0.8525034E-14  0.0000000E+00 -0.1100818E-09
 -0.3353842E-02  0.0000000E+00 -0.5050505E-02  0.7542818E-14  0.0000000E+00 -0.1100657E-09
 -0.2978990E-02  0.0000000E+00 -0.5050505E-02  0.6403148E-14  0.0000000E+00 -0.1100518E-09
 -0.2347676E-02  0.0000000E+00 -0.5050505E-02  0.5113521E-14  0.0000000E+00 -0.1100403E-09
 -0.1716362E-02  0.0000000E+00 -0.5050505E-02  0.3816396E-14  0.0000000E+00 -0.1100313E-09
 -0.1025842E-02  0.0000000E+00 -0.5050505E-02  0.2594250E-14  0.0000000E+00 -0.1100249E-09
  0.2367855E-03  0.0000000E+00 -0.5050505E-02  0.2721713E-14  0.0000000E+00 -0.1100196E-09
  0.1499413E-02  0.0000000E+00 -0.5050505E-02  0.2279341E-14  0.0000000E+00 -0.1100146E-09
  0.2762042E-02  0.0000000E+00 -0.5050505E-02  0.6223200E-15  0.0000000E+00 -0.1100117E-09
 -0.5050505E-02  0.0000000E+00 -0.5050505E-02 -0.2256847E-14  0.0000000E+00 -0.1100133E-09
 -0.5050505E-02  0.0000000E+00 -0.5050505E-02 -0.4468707E-14  0.0000000E+00 -0.1100201E-09
 -0.5050505E-02  0.0000000E+00 -0.5050505E-02 -0.5293469E-14  0.0000000E+00 -0.1100298E-09
 -0.5050505E-02  0.0000000E+00 -0.5050505E-02 -0.4866093E-14  0.0000000E+00 -0.1100400E-09
 -0.5050505E-02  0.0000000E+00 -0.5050505E-02 -0.5158508E-14  0.0000000E+00 -0.1100500E-09
 -0.5050505E-02  0.0000000E+00 -0.5050505E-02 -0.6838022E-14  0.0000000E+00 -0.1100620E-09
 -0.5050505E-02  0.0000000E+00 -0.5050505E-02 -0.9567233E-14  0.0000000E+00 -0.1100784E-09
 -0.5050504E-02  0.0000000E+00 -0.5050505E-02 -0.1096933E-13  0.0000000E+00 -0.1100989E-09
 -0.5050501E-02  0.0000000E+00 -0.5050505E-02 -0.1017456E-13  0.0000000E+00 -0.1101201E-09
 -0.5050495E-02  0.0000000E+00 -0.5050505E-02 -0.1096183E-13  0.0000000E+00 -0.1101412E-09
 -0.5050482E-02  0.0000000E+00 -0.5050505E-02 -0.1213149E-13  0.0000000E+00 -0.1101643E-09
 -0.5050449E-02  0.0000000E+00 -0.5050505E-02 -0.1317369E-13  0.0000000E+00 -0.1101896E-09
 -0.5050376E-02  0.0000000E+00 -0.5050505E-02 -0.1402844E-13  0.0000000E+00 -0.1102168E-09
 -0.5050299E-02  0.0000000E+00 -0.5050505E-02 -0.1473324E-13  0.0000000E+00 -0.1102456E-09
 -0.5050178E-02  0.0000000E+00 -0.5050505E-02 -0.1536306E-13  0.0000000E+00 -0.1102757E-09
 -0.5050018E-02  0.0000000E+00 -0.5050505E-02 -0.1591040E-13  0.0000000E+00 -0.1103070E-09
 -0.5049710E-02  0.0000000E+00 -0.5050505E-02 -0.1638276E-13  0.0000000E+00 -0.1103392E-09
 -0.5049253E-02  0.0000000E+00 -0.5050505E-02 -0.1678764E-13  0.0000000E+00 -0.1103724E-09
 -0.5048636E-02  0.0000000E+00 -0.5050505E-02 -0.1713254E-13  0.0000000E+00 -0.1104063E-09
 -0.5047442E-02  0.0000000E+00 -0.5050505E-02 -0.1740996E-13  0.0000000E+00 -0.1104409E-09
 -0.5045727E-02  0.0000000E+00 -0.5050505E-02 -0.1764240E-13  0.0000000E+00 -0.1104759E-09
 -0.5043261E-02  0.0000000E+00 -0.5050505E-02 -0.1779985E-13  0.0000000E+00 -0.1105114E-09
 -0.5038714E-02  0.0000000E+00 -0.5050505E-02 -0.1791982E-13  0.0000000E+00 -0.1105471E-09
 -0.5032318E-02  0.0000000E+00 -0.5050505E-02 -0.1797230E-13  0.0000000E+00 -0.1105830E-09
 -0.5022454E-02  0.0000000E+00 -0.5050505E-02 -0.1800229E-13  0.0000000E+00 -0.1106190E-09
 -0.5012589E-02  0.0000000E+00 -0.5050505E-02 -0.1797980E-13  0.0000000E+00 -0.1106549E-09
 -0.5002725E-02  0.0000000E+00 -0.5050505E-02 -0.1794231E-13  0.0000000E+00 -0.1106909E-09
 -0.4992860E-02  0.0000000E+00 -0.5050505E-02 -0.1788233E-13  0.0000000E+00 -0.1107267E-09
 -0.4976523E-02  0.0000000E+00 -0.5050505E-02 -0.1781485E-13  0.0000000E+00 -0.1107624E-09
 -0.4956794E-02  0.0000000E+00 -0.5050505E-02 -0.1777736E-13  0.0000000E+00 -0.1107980E-09
 -0.4937066E-02  0.0000000E+00 -0.5050505E-02 -0.1773987E-13  0.0000000E+00 -0.1108335E-09
 -0.4906239E-02  0.0000000E+00 -0.5050505E-02 -0.1777736E-13  0.0000000E+00 -0.1108690E-09
 -0.4866782E-02  0.0000000E+00 -0.5050505E-02 -0.1790482E-13  0.0000000E+00 -0.1109047E-09
 -0.4827325E-02  0.0000000E+00 -0.5050505E-02 -0.1813725E-13  0.0000000E+00 -0.1109407E-09
 -0.4769372E-02  0.0000000E+00 -0.5050505E-02 -0.1857213E-13  0.0000000E+00 -0.1109774E-09
 -0.4690458E-02  0.0000000E+00 -0.5050505E-02 -0.1926193E-13  0.0000000E+00 -0.1110153E-09
 -0.4611543E-02  0.0000000E+00 -0.5050505E-02 -0.2037161E-13  0.0000000E+00 -0.1110549E-09
 -0.4503035E-02  0.0000000E+00 -0.5050505E-02 -0.2202113E-13  0.0000000E+00 -0.1110973E-09
 -0.4345206E-02  0.0000000E+00 -0.5050505E-02 -0.2453290E-13  0.0000000E+00 -0.1111439E-09
 -0.4187378E-02  0.0000000E+00 -0.5050505E-02 -0.2833430E-13  0.0000000E+00 -0.1111967E-09
 -0.3985156E-02  0.0000000E+00 -0.5050505E-02 -0.3416762E-13  0.0000000E+00 -0.1112592E-09
 -0.3669499E-02  0.0000000E+00 -0.5050505E-02 -0.4342744E-13  0.0000000E+00 -0.1113368E-09
 -0.3353842E-02  0.0000000E+00 -0.5050505E-02 -0.5854307E-13  0.0000000E+00 -0.1114388E-09
 -0.2978990E-02  0.0000000E+00 -0.5050505E-02 -0.8463552E-13  0.0000000E+00 -0.1115820E-09
 -0.2347676E-02  0.0000000E+00 -0.5050505E-02 -0.1327491E-12  0.0000000E+00 -0.1117994E-09
 -0.1716362E-02  0.0000000E+00 -0.5050505E-02 -0.2295686E-12  0.0000000E+00 -0.1121617E-09
 -0.1025842E-02  0.0000000E+00 -0.5050505E-02 -0.4463234E-12  0.0000000E+00 -0.1128376E-09
  0.2367855E-03  0.0000000E+00 -0.5050505E-02 -0.9946698E-12  0.0000000E+00 -0.1142786E-09
  0.1499413E-02  0.0000000E+00 -0.5050505E-02 -0.2571861E-11  0.0000000E+00 -0.1178451E-09
  0.5287294E-02  0.0000000E+00 -0.5050505E-02 -0.4175327E-10  0.0000000E+00 -0.9424518E-10
 -0.5050505E-02  0.0000000E+00 -0.5050505E-02 -0.7324578E-14  0.0000000E+00 -0.1108160E-09
 -0.5050505E-02  0.0000000E+00 -0.5050505E-02 -0.1905965E-14  0.0000000E+00 -0.1108172E-09
 -0.5050505E-02  0.0000000E+00 -0.5050505E-02  0.3764415E-14  0.0000000E+00 -0.1108160E-09
 -0.5050505E-02  0.0000000E+00 -0.5050505E-02  0.7036248E-14  0.0000000E+00 -0.1108122E-09
 -0.5050505E-02  0.0000000E+00 -0.5050505E-02  0.1050934E-13  0.0000000E+00 -0.1108061E-09
 -0.5050505E-02  0.0000000E+00 -0.5050505E-02  0.1313127E-13  0.0000000E+00 -0.1107978E-09
 -0.5050504E-02  0.0000000E+00 -0.5050505E-02  0.1570841E-13  0.0000000E+00 -0.1107879E-09
 -0.5050501E-02  0.0000000E+00 -0.5050505E-02  0.1835274E-13  0.0000000E+00 -0.1107762E-09
 -0.5050495E-02  0.0000000E+00 -0.5050505E-02  0.2101190E-13  0.0000000E+00 -0.1107628E-09
 -0.5050482E-02  0.0000000E+00 -0.5050505E-02  0.2361138E-13  0.0000000E+00 -0.1107476E-09
 -0.5050449E-02  0.0000000E+00 -0.5050505E-02  0.2613612E-13  0.0000000E+00 -0.1107307E-09
 -0.5050376E-02  0.0000000E+00 -0.5050505E-02  0.2858614E-13  0.0000000E+00 -0.1107121E-09
 -0.5050299E-02  0.0000000E+00 -0.5050505E-02  0.3094653E-13  0.0000000E+00 -0.1106919E-09
 -0.5050178E-02  0.0000000E+00 -0.5050505E-02  0.3317995E-13  0.0000000E+00 -0.1106701E-09
 -0.5050018E-02  0.0000000E+00 -0.5050505E-02  0.3533865E-13  0.0000000E+00 -0.1106468E-09
 -0.5049710E-02  0.0000000E+00 -0.5050505E-02  0.3735544E-13  0.0000000E+00 -0.1106221E-09
 -0.5049253E-02  0.0000000E+00 -0.5050505E-02  0.3923032E-13  0.0000000E+00 -0.1105961E-09
 -0.5048636E-02  0.0000000E+00 -0.5050505E-02  0.4097820E-13  0.0000000E+00 -0.1105688E-09
 -0.5047442E-02  0.0000000E+00 -0.5050505E-02  0.4256921E-13  0.0000000E+00 -0.1105404E-09
 -0.5045727E-02  0.0000000E+00 -0.5050505E-02  0.4401831E-13  0.0000000E+00 -0.1105110E-09
 -0.5043261E-02  0.0000000E+00 -0.5050505E-02  0.4528069E-13  0.0000000E+00 -0.1104806E-09
 -0.5038714E-02  0.0000000E+00 -0.5050505E-02  0.4639365E-13  0.0000000E+00 -0.1104495E-09
 -0.5032318E-02  0.0000000E+00 -0.5050505E-02  0.4730489E-13  0.0000000E+00 -0.1104176E-09
 -0.5022454E-02  0.0000000E+00 -0.5050505E-02  0.4800712E-13  0.0000000E+00 -0.1103852E-09
 -0.5012589E-02  0.0000000E+00 -0.5050505E-02  0.4850004E-13  0.0000000E+00 -0.1103524E-09
 -0.5002725E-02  0.0000000E+00 -0.5050505E-02  0.4879885E-13  0.0000000E+00 -0.1103193E-09
 -0.4992860E-02  0.0000000E+00 -0.5050505E-02  0.4884363E-13  0.0000000E+00 -0.1102861E-09
 -0.4976523E-02  0.0000000E+00 -0.5050505E-02  0.4870185E-13  0.0000000E+00 -0.1102529E-09
 -0.4956794E-02  0.0000000E+00 -0.5050505E-02  0.4850004E-13  0.0000000E+00 -0.1102199E-09
 -0.4937066E-02  0.0000000E+00 -0.5050505E-02  0.4798458E-13  0.0000000E+00 -0.1101871E-09
 -0.4906239E-02  0.0000000E+00 -0.5050505E-02  0.4710321E-13  0.0000000E+00 -0.1101547E-09
 -0.4866782E-02  0.0000000E+00 -0.5050505E-02  0.4592314E-13  0.0000000E+00 -0.1101231E-09
 -0.4827325E-02  0.0000000E+00 -0.5050505E-02  0.4498187E-13  0.0000000E+00 -0.1100922E-09
 -0.4769372E-02  0.0000000E+00 -0.5050505E-02  0.4368213E-13  0.0000000E+00 -0.1100620E-09
 -0.4690458E-02  0.0000000E+00 -0.5050505E-02  0.4185207E-13  0.0000000E+00 -0.1100329E-09
 -0.4611543E-02  0.0000000E+00 -0.5050505E-02  0.4008196E-13  0.0000000E+00 -0.1100051E-09
 -0.4503035E-02  0.0000000E+00 -0.5050505E-02  0.3806504E-13  0.0000000E+00 -0.1099786E-09
 -0.4345206E-02  0.0000000E+00 -0.5050505E-02  0.3351087E-13  0.0000000E+00 -0.1099550E-09
 -0.4187378E-02  0.0000000E+00 -0.5050505E-02  0.3050449E-13  0.0000000E+00 -0.1099336E-09
 -0.3985156E-02  0.0000000E+00 -0.5050505E-02  0.2846601E-13  0.0000000E+00 -0.1099129E-09
 -0.3669499E-02  0.0000000E+00 -0.5050505E-02  0.2590428E-13  0.0000000E+00 -0.1098941E-09
 -0.3353842E-02  0.0000000E+00 -0.5050505E-02  0.2285683E-13  0.0000000E+00 -0.1098774E-09
 -0.2978990E-02  0.0000000E+00 -0.5050505E-02  0.1938353E-13  0.0000000E+00 -0.1098629E-09
 -0.2347676E-02  0.0000000E+00 -0.5050505E-02  0.1546204E-13  0.0000000E+00 -0.1098511E-09
 -0.1716362E-02  0.0000000E+00 -0.5050505E-02  0.1148831E-13  0.0000000E+00 -0.1098419E-09
 -0.1025842E-02  0.0000000E+00 -0.5050505E-02  0.8133837E-14  0.0000000E+00 -0.1098351E-09
  0.2367855E-03  0.0000000E+00 -0.5050505E-02  0.8306035E-14  0.0000000E+00 -0.1098293E-09
  0.1499413E-02  0.0000000E+00 -0.5050505E-02  0.6700573E-14  0.0000000E+00 -0.1098242E-09
  0.2762042E-02  0.0000000E+00 -0.5050505E-02  0.1561739E-14  0.0000000E+00 -0.1098217E-09
 -0.5050505E-02  0.0000000E+00 -0.5050505E-02 -0.6864472E-14  0.0000000E+00 -0.1098238E-09
 -0.5050505E-02  0.0000000E+00 -0.5050505E-02 -0.1319934E-13  0.0000000E+00 -0.1098304E-09
 -0.5050505E-02  0.0000000E+00 -0.5050505E-02 -0.1556743E-13  0.0000000E+00 -0.1098397E-09
 -0.5050505E-02  0.0000000E+00 -0.5050505E-02 -0.1458833E-13  0.0000000E+00 -0.1098496E-09
 -0.5050505E-02  0.0000000E+00 -0.5050505E-02 -0.1579034E-13  0.0000000E+00 -0.1098600E-09
 -0.5050505E-02  0.0000000E+00 -0.5050505E-02 -0.2109333E-13  0.0000000E+00 -0.1098730E-09
 -0.5050505E-02  0.0000000E+00 -0.5050505E-02 -0.2929502E-13  0.0000000E+00 -0.1098906E-09
 -0.5050504E-02  0.0000000E+00 -0.5050505E-02 -0.3248649E-13  0.0000000E+00 -0.1099115E-09
 -0.5050501E-02  0.0000000E+00 -0.5050505E-02 -0.3027513E-13  0.0000000E+00 -0.1099321E-09
 -0.5050495E-02  0.0000000E+00 -0.5050505E-02 -0.3329912E-13  0.0000000E+00 -0.1099535E-09
 -0.5050482E-02  0.0000000E+00 -0.5050505E-02 -0.3677259E-13  0.0000000E+00 -0.1099775E-09
 -0.5050449E-02  0.0000000E+00 -0.5050505E-02 -0.3980546E-13  0.0000000E+00 -0.1100036E-09
 -0.5050376E-02  0.0000000E+00 -0.5050505E-02 -0.4234520E-13  0.0000000E+00 -0.1100315E-09
 -0.5050299E-02  0.0000000E+00 -0.5050505E-02 -0.4448150E-13  0.0000000E+00 -0.1100610E-09
 -0.5050178E-02  0.0000000E+00 -0.5050505E-02 -0.4637878E-13  0.0000000E+00 -0.1100918E-09
 -0.5050018E-02  0.0000000E+00 -0.5050505E-02 -0.4802211E-13  0.0000000E+00 -0.1101238E-09
 -0.5049710E-02  0.0000000E+00 -0.5050505E-02 -0.4945626E-13  0.0000000E+00 -0.1101569E-09
 -0.5049253E-02  0.0000000E+00 -0.5050505E-02 -0.5068873E-13  0.0000000E+00 -0.1101909E-09
 -0.5048636E-02  0.0000000E+00 -0.5050505E-02 -0.5171210E-13  0.0000000E+00 -0.1102256E-09
 -0.5047442E-02  0.0000000E+00 -0.5050505E-02 -0.5257106E-13  0.0000000E+00 -0.1102610E-09
 -0.5045727E-02  0.0000000E+00 -0.5050505E-02 -0.5322847E-13  0.0000000E+00 -0.1102969E-09
 -0.5043261E-02  0.0000000E+00 -0.5050505E-02 -0.5372143E-13  0.0000000E+00 -0.1103332E-09
 -0.5038714E-02  0.0000000E+00 -0.5050505E-02 -0.5405761E-13  0.0000000E+00 -0.1103697E-09
 -0.5032318E-02  0.0000000E+00 -0.5050505E-02 -0.5422939E-13  0.0000000E+00 -0.1104064E-09
 -0.5022454E-02  0.0000000E+00 -0.5050505E-02 -0.5428920E-13  0.0000000E+00 -0.1104432E-09
 -0.5012589E-02  0.0000000E+00 -0.5050505E-02 -0.5423689E-13  0.0000000E+00 -0.1104800E-09
 -0.5002725E-02  0.0000000E+00 -0.5050505E-02 -0.5409502E-13  0.0000000E+00 -0.1105167E-09
 -0.4992860E-02  0.0000000E+00 -0.5050505E-02 -0.5389338E-13  0.0000000E+00 -0.1105532E-09
 -0.4976523E-02  0.0000000E+00 -0.5050505E-02 -0.5368424E-13  0.0000000E+00 -0.1105896E-09
 -0.4956794E-02  0.0000000E+00 -0.5050505E-02 -0.5352000E-13  0.0000000E+00 -0.1106258E-09
 -0.4937066E-02  0.0000000E+00 -0.5050505E-02 -0.5340050E-13  0.0000000E+00 -0.1106619E-09
 -0.4906239E-02  0.0000000E+00 -0.5050505E-02 -0.5346035E-13  0.0000000E+00 -0.1106979E-09
 -0.4866782E-02  0.0000000E+00 -0.5050505E-02 -0.5376675E-13  0.0000000E+00 -0.1107340E-09
 -0.4827325E-02  0.0000000E+00 -0.5050505E-02 -0.5440925E-13  0.0000000E+00 -0.1107703E-09
 -0.4769372E-02  0.0000000E+00 -0.5050505E-02 -0.5561206E-13  0.0000000E+00 -0.1108071E-09
 -0.4690458E-02  0.0000000E+00 -0.5050505E-02 -0.5756933E-13  0.0000000E+00 -0.1108448E-09
 -0.4611543E-02  0.0000000E+00 -0.5050505E-02 -0.6065477E-13  0.0000000E+00 -0.1108840E-09
 -0.4503035E-02  0.0000000E+00 -0.5050505E-02 -0.6531640E-13  0.0000000E+00 -0.1109254E-09
 -0.4345206E-02  0.0000000E+00 -0.5050505E-02 -0.7236124E-13  0.0000000E+00 -0.1109702E-09
 -0.4187378E-02  0.0000000E+00 -0.5050505E-02 -0.8294733E-13  0.0000000E+00 -0.1110201E-09
 -0.3985156E-02  0.0000000E+00 -0.5050505E-02 -0.9909934E-13  0.0000000E+00 -0.1110775E-09
 -0.3669499E-02  0.0000000E+00 -0.5050505E-02 -0.1242249E-12  0.0000000E+00 -0.1111461E-09
 -0.3353842E-02  0.0000000E+00 -0.5050505E-02 -0.1644290E-12  0.0000000E+00 -0.1112314E-09
 -0.2978990E-02  0.0000000E+00 -0.5050505E-02 -0.2313936E-12  0.0000000E+00 -0.1113416E-09
 -0.2347676E-02  0.0000000E+00 -0.5050505E-02 -0.3487036E-12  0.0000000E+00 -0.1114882E-09
 -0.1716362E-02  0.0000000E+00 -0.5050505E-02 -0.5672374E-12  0.0000000E+00 -0.1116815E-09
 -0.1025842E-02  0.0000000E+00 -0.5050505E-02 -0.1004234E-11  0.0000000E+00 -0.1119050E-09
  0.2367855E-03  0.0000000E+00 -0.5050505E-02 -0.1948262E-11  0.0000000E+00 -0.1119836E-09
  0.1499413E-02  0.0000000E+00 -0.5050505E-02 -0.4151919E-11  0.0000000E+00 -0.1109708E-09
  0.5287294E-02  0.0000000E+00 -0.5050505E-02 -0.9667258E-11  0.0000000E+00 -0.1043142E-09
 -0.5050505E-02  0.0000000E+00 -0.5050505E-02 -0.8371163E-14  0.0000000E+00 -0.1104908E-09
 -0.5050505E-02  0.0000000E+00 -0.5050505E-02 -0.1777857E-14  0.0000000E+00 -0.1104906E-09
 -0.5050505E-02  0.0000000E+00 -0.5050505E-02  0.6568263E-14  0.0000000E+00 -0.1104889E-09
 -0.5050505E-02  0.0000000E+00 -0.5050505E-02  0.1188132E-13  0.0000000E+00 -0.1104849E-09
 -0.5050505E-02  0.0000000E+00 -0.5050505E-02  0.1838918E-13  0.0000000E+00 -0.1104783E-09
 -0.5050505E-02  0.0000000E+00 -0.5050505E-02  0.2268416E-13  0.0000000E+00 -0.1104690E-09
 -0.5050504E-02  0.0000000E+00 -0.5050505E-02  0.2686030E-13  0.0000000E+00 -0.1104580E-09
 -0.5050501E-02  0.0000000E+00 -0.5050505E-02  0.3120725E-13  0.0000000E+00 -0.1104455E-09
 -0.5050495E-02  0.0000000E+00 -0.5050505E-02  0.3564333E-13  0.0000000E+00 -0.1104312E-09
 -0.5050482E-02  0.0000000E+00 -0.5050505E-02  0.3999757E-13  0.0000000E+00 -0.1104151E-09
 -0.5050449E-02  0.0000000E+00 -0.5050505E-02  0.4426260E-13  0.0000000E+00 -0.1103973E-09
 -0.5050376E-02  0.0000000E+00 -0.5050505E-02  0.4840133E-13  0.0000000E+00 -0.1103776E-09
 -0.5050299E-02  0.0000000E+00 -0.5050505E-02  0.5237663E-13  0.0000000E+00 -0.1103563E-09
 -0.5050178E-02  0.0000000E+00 -0.5050505E-02  0.5618832E-13  0.0000000E+00 -0.1103332E-09
 -0.5050018E-02  0.0000000E+00 -0.5050505E-02  0.5980699E-13  0.0000000E+00 -0.1103087E-09
 -0.5049710E-02  0.0000000E+00 -0.5050505E-02  0.6323236E-13  0.0000000E+00 -0.1102826E-09
 -0.5049253E-02  0.0000000E+00 -0.5050505E-02  0.6641253E-13  0.0000000E+00 -0.1102552E-09
 -0.5048636E-02  0.0000000E+00 -0.5050505E-02  0.6936241E-13  0.0000000E+00 -0.1102264E-09
 -0.5047442E-02  0.0000000E+00 -0.5050505E-02  0.7207446E-13  0.0000000E+00 -0.1101964E-09
 -0.5045727E-02  0.0000000E+00 -0.5050505E-02  0.7451907E-13  0.0000000E+00 -0.1101654E-09
 -0.5043261E-02  0.0000000E+00 -0.5050505E-02  0.7667382E-13  0.0000000E+00 -0.1101333E-09
 -0.5038714E-02  0.0000000E+00 -0.5050505E-02  0.7855372E-13  0.0000000E+00 -0.1101004E-09
 -0.5032318E-02  0.0000000E+00 -0.5050505E-02  0.8009186E-13  0.0000000E+00 -0.1100668E-09
 -0.5022454E-02  0.0000000E+00 -0.5050505E-02  0.8131770E-13  0.0000000E+00 -0.1100326E-09
 -0.5012589E-02  0.0000000E+00 -0.5050505E-02  0.8213516E-13  0.0000000E+00 -0.1099979E-09
 -0.5002725E-02  0.0000000E+00 -0.5050505E-02  0.8264039E-13  0.0000000E+00 -0.1099630E-09
 -0.4992860E-02  0.0000000E+00 -0.5050505E-02  0.8271473E-13  0.0000000E+00 -0.1099279E-09
 -0.4976523E-02  0.0000000E+00 -0.5050505E-02  0.8232854E-13  0.0000000E+00 -0.1098930E-09
 -0.4956794E-02  0.0000000E+00 -0.5050505E-02  0.8212033E-13  0.0000000E+00 -0.1098583E-09
 -0.4937066E-02  0.0000000E+00 -0.5050505E-02  0.8136964E-13  0.0000000E+00 -0.1098236E-09
 -0.4906239E-02  0.0000000E+00 -0.5050505E-02  0.7985386E-13  0.0000000E+00 -0.1097893E-09
 -0.4866782E-02  0.0000000E+00 -0.5050505E-02  0.7757324E-13  0.0000000E+00 -0.1097559E-09
 -0.4827325E-02  0.0000000E+00 -0.5050505E-02  0.7611669E-13  0.0000000E+00 -0.1097235E-09
 -0.4769372E-02  0.0000000E+00 -0.5050505E-02  0.7396181E-13  0.0000000E+00 -0.1096918E-09
 -0.4690458E-02  0.0000000E+00 -0.5050505E-02  0.7075957E-13  0.0000000E+00 -0.1096612E-09
 -0.4611543E-02  0.0000000E+00 -0.5050505E-02  0.6776496E-13  0.0000000E+00 -0.1096320E-09
 -0.4503035E-02  0.0000000E+00 -0.5050505E-02  0.6235279E-13  0.0000000E+00 -0.1096061E-09
 -0.4345206E-02  0.0000000E+00 -0.5050505E-02  0.5664697E-13  0.0000000E+00 -0.1095818E-09
 -0.4187378E-02  0.0000000E+00 -0.5050505E-02  0.5288785E-13  0.0000000E+00 -0.1095574E-09
 -0.3985156E-02  0.0000000E+00 -0.5050505E-02  0.4882409E-13  0.0000000E+00 -0.1095350E-09
 -0.3669499E-02  0.0000000E+00 -0.5050505E-02  0.4416563E-13  0.0000000E+00 -0.1095149E-09
 -0.3353842E-02  0.0000000E+00 -0.5050505E-02  0.3892726E-13  0.0000000E+00 -0.1094970E-09
 -0.2978990E-02  0.0000000E+00 -0.5050505E-02  0.3301271E-13  0.0000000E+00 -0.1094815E-09
 -0.2347676E-02  0.0000000E+00 -0.5050505E-02  0.2628838E-13  0.0000000E+00 -0.1094687E-09
 -0.1716362E-02  0.0000000E+00 -0.5050505E-02  0.1931173E-13  0.0000000E+00 -0.1094591E-09
 -0.1025842E-02  0.0000000E+00 -0.5050505E-02  0.1425091E-13  0.0000000E+00 -0.1094519E-09
  0.2367855E-03  0.0000000E+00 -0.5050505E-02  0.1423633E-13  0.0000000E+00 -0.1094456E-09
  0.1499413E-02  0.0000000E+00 -0.5050505E-02  0.1101959E-13  0.0000000E+00 -0.1094403E-09
  0.2762042E-02  0.0000000E+00 -0.5050505E-02  0.2103399E-14  0.0000000E+00 -0.1094378E-09
 -0.5050505E-02  0.0000000E+00 -0.5050505E-02 -0.1164341E-13  0.0000000E+00 -0.1094401E-09
 -0.5050505E-02  0.0000000E+00 -0.5050505E-02 -0.2178649E-13  0.0000000E+00 -0.1094469E-09
 -0.5050505E-02  0.0000000E+00 -0.5050505E-02 -0.2555399E-13  0.0000000E+00 -0.1094563E-09
 -0.5050505E-02  0.0000000E+00 -0.5050505E-02 -0.2440174E-13  0.0000000E+00 -0.1094664E-09
 -0.5050505E-02  0.0000000E+00 -0.5050505E-02 -0.2702394E-13  0.0000000E+00 -0.1094772E-09
 -0.5050505E-02  0.0000000E+00 -0.5050505E-02 -0.3669715E-13  0.0000000E+00 -0.1094913E-09
 -0.5050505E-02  0.0000000E+00 -0.5050505E-02 -0.5070302E-13  0.0000000E+00 -0.1095109E-09
 -0.5050504E-02  0.0000000E+00 -0.5050505E-02 -0.5244791E-13  0.0000000E+00 -0.1095318E-09
 -0.5050501E-02  0.0000000E+00 -0.5050505E-02 -0.5135012E-13  0.0000000E+00 -0.1095526E-09
 -0.5050495E-02  0.0000000E+00 -0.5050505E-02 -0.5661170E-13  0.0000000E+00 -0.1095760E-09
 -0.5050482E-02  0.0000000E+00 -0.5050505E-02 -0.6233332E-13  0.0000000E+00 -0.1096012E-09
 -0.5050449E-02  0.0000000E+00 -0.5050505E-02 -0.6732662E-13  0.0000000E+00 -0.1096286E-09
 -0.5050376E-02  0.0000000E+00 -0.5050505E-02 -0.7156198E-13  0.0000000E+00 -0.1096579E-09
 -0.5050299E-02  0.0000000E+00 -0.5050505E-02 -0.7519540E-13  0.0000000E+00 -0.1096889E-09
 -0.5050178E-02  0.0000000E+00 -0.5050505E-02 -0.7838307E-13  0.0000000E+00 -0.1097213E-09
 -0.5050018E-02  0.0000000E+00 -0.5050505E-02 -0.8116201E-13  0.0000000E+00 -0.1097549E-09
 -0.5049710E-02  0.0000000E+00 -0.5050505E-02 -0.8358433E-13  0.0000000E+00 -0.1097896E-09
 -0.5049253E-02  0.0000000E+00 -0.5050505E-02 -0.8566486E-13  0.0000000E+00 -0.1098253E-09
 -0.5048636E-02  0.0000000E+00 -0.5050505E-02 -0.8738869E-13  0.0000000E+00 -0.1098618E-09
 -0.5047442E-02  0.0000000E+00 -0.5050505E-02 -0.8881542E-13  0.0000000E+00 -0.1098989E-09
 -0.5045727E-02  0.0000000E+00 -0.5050505E-02 -0.8990765E-13  0.0000000E+00 -0.1099365E-09
 -0.5043261E-02  0.0000000E+00 -0.5050505E-02 -0.9073247E-13  0.0000000E+00 -0.1099746E-09
 -0.5038714E-02  0.0000000E+00 -0.5050505E-02 -0.9126748E-13  0.0000000E+00 -0.1100128E-09
 -0.5032318E-02  0.0000000E+00 -0.5050505E-02 -0.9154247E-13  0.0000000E+00 -0.1100513E-09
 -0.5022454E-02  0.0000000E+00 -0.5050505E-02 -0.9159453E-13  0.0000000E+00 -0.1100897E-09
 -0.5012589E-02  0.0000000E+00 -0.5050505E-02 -0.9148315E-13  0.0000000E+00 -0.1101281E-09
 -0.5002725E-02  0.0000000E+00 -0.5050505E-02 -0.9119343E-13  0.0000000E+00 -0.1101664E-09
 -0.4992860E-02  0.0000000E+00 -0.5050505E-02 -0.9079970E-13  0.0000000E+00 -0.1102045E-09
 -0.4976523E-02  0.0000000E+00 -0.5050505E-02 -0.9038372E-13  0.0000000E+00 -0.1102423E-09
 -0.4956794E-02  0.0000000E+00 -0.5050505E-02 -0.8999008E-13  0.0000000E+00 -0.1102798E-09
 -0.4937066E-02  0.0000000E+00 -0.5050505E-02 -0.8970789E-13  0.0000000E+00 -0.1103171E-09
 -0.4906239E-02  0.0000000E+00 -0.5050505E-02 -0.8965612E-13  0.0000000E+00 -0.1103542E-09
 -0.4866782E-02  0.0000000E+00 -0.5050505E-02 -0.8996109E-13  0.0000000E+00 -0.1103911E-09
 -0.4827325E-02  0.0000000E+00 -0.5050505E-02 -0.9082340E-13  0.0000000E+00 -0.1104280E-09
 -0.4769372E-02  0.0000000E+00 -0.5050505E-02 -0.9251808E-13  0.0000000E+00 -0.1104652E-09
 -0.4690458E-02  0.0000000E+00 -0.5050505E-02 -0.9534988E-13  0.0000000E+00 -0.1105028E-09
 -0.4611543E-02  0.0000000E+00 -0.5050505E-02 -0.9982412E-13  0.0000000E+00 -0.1105412E-09
 -0.4503035E-02  0.0000000E+00 -0.5050505E-02 -0.1066766E-12  0.0000000E+00 -0.1105810E-09
 -0.4345206E-02  0.0000000E+00 -0.5050505E-02 -0.1169258E-12  0.0000000E+00 -0.1106229E-09
 -0.4187378E-02  0.0000000E+00 -0.5050505E-02 -0.1322290E-12  0.0000000E+00 -0.1106677E-09
 -0.3985156E-02  0.0000000E+00 -0.5050505E-02 -0.1551662E-12  0.0000000E+00 -0.1107167E-09
 -0.3669499E-02  0.0000000E+00 -0.5050505E-02 -0.1898039E-12  0.0000000E+00 -0.1107710E-09
 -0.3353842E-02  0.0000000E+00 -0.5050505E-02 -0.2431615E-12  0.0000000E+00 -0.1108317E-09
 -0.2978990E-02  0.0000000E+00 -0.5050505E-02 -0.3269823E-12  0.0000000E+00 -0.1108980E-09
 -0.2347676E-02  0.0000000E+00 -0.5050505E-02 -0.4619992E-12  0.0000000E+00 -0.1109635E-09
 -0.1716362E-02  0.0000000E+00 -0.5050505E-02 -0.6838604E-12  0.0000000E+00 -0.1110053E-09
 -0.1025842E-02  0.0000000E+00 -0.5050505E-02 -0.1050571E-11  0.0000000E+00 -0.1109536E-09
  0.2367855E-03  0.0000000E+00 -0.5050505E-02 -0.1634135E-11  0.0000000E+00 -0.1106237E-09
  0.1499413E-02  0.0000000E+00 -0.5050505E-02 -0.2405668E-11  0.0000000E+00 -0.1096105E-09
  0.5287294E-02  0.0000000E+00 -0.5050505E-02 -0.2579033E-11  0.0000000E+00 -0.1075102E-09
 -0.5050505E-02  0.0000000E+00 -0.5050505E-02 -0.8347207E-14  0.0000000E+00 -0.1099994E-09
 -0.5050505E-02  0.0000000E+00 -0.5050505E-02 -0.8592227E-15  0.0000000E+00 -0.1099987E-09
 -0.5050505E-02  0.0000000E+00 -0.5050505E-02  0.8943001E-14  0.0000000E+00 -0.1099971E-09
 -0.5050505E-02  0.0000000E+00 -0.5050505E-02  0.1672376E-13  0.0000000E+00 -0.1099937E-09
 -0.5050505E-02  0.0000000E+00 -0.5050505E-02  0.2747375E-13  0.0000000E+00 -0.1099863E-09
 -0.5050505E-02  0.0000000E+00 -0.5050505E-02  0.3345970E-13  0.0000000E+00 -0.1099755E-09
 -0.5050504E-02  0.0000000E+00 -0.5050505E-02  0.3909870E-13  0.0000000E+00 -0.1099632E-09
 -0.5050501E-02  0.0000000E+00 -0.5050505E-02  0.4510697E-13  0.0000000E+00 -0.1099492E-09
 -0.5050495E-02  0.0000000E+00 -0.5050505E-02  0.5130727E-13  0.0000000E+00 -0.1099336E-09
 -0.5050482E-02  0.0000000E+00 -0.5050505E-02  0.5748527E-13  0.0000000E+00 -0.1099161E-09
 -0.5050449E-02  0.0000000E+00 -0.5050505E-02  0.6356719E-13  0.0000000E+00 -0.1098967E-09
 -0.5050376E-02  0.0000000E+00 -0.5050505E-02  0.6948646E-13  0.0000000E+00 -0.1098755E-09
 -0.5050299E-02  0.0000000E+00 -0.5050505E-02  0.7518398E-13  0.0000000E+00 -0.1098523E-09
 -0.5050178E-02  0.0000000E+00 -0.5050505E-02  0.8064516E-13  0.0000000E+00 -0.1098275E-09
 -0.5050018E-02  0.0000000E+00 -0.5050505E-02  0.8583274E-13  0.0000000E+00 -0.1098009E-09
 -0.5049710E-02  0.0000000E+00 -0.5050505E-02  0.9073226E-13  0.0000000E+00 -0.1097727E-09
 -0.5049253E-02  0.0000000E+00 -0.5050505E-02  0.9531393E-13  0.0000000E+00 -0.1097431E-09
 -0.5048636E-02  0.0000000E+00 -0.5050505E-02  0.9956301E-13  0.0000000E+00 -0.1097120E-09
 -0.5047442E-02  0.0000000E+00 -0.5050505E-02  0.1034575E-12  0.0000000E+00 -0.1096796E-09
 -0.5045727E-02  0.0000000E+00 -0.5050505E-02  0.1069750E-12  0.0000000E+00 -0.1096460E-09
 -0.5043261E-02  0.0000000E+00 -0.5050505E-02  0.1100861E-12  0.0000000E+00 -0.1096113E-09
 -0.5038714E-02  0.0000000E+00 -0.5050505E-02  0.1127760E-12  0.0000000E+00 -0.1095757E-09
 -0.5032318E-02  0.0000000E+00 -0.5050505E-02  0.1149634E-12  0.0000000E+00 -0.1095393E-09
 -0.5022454E-02  0.0000000E+00 -0.5050505E-02  0.1168108E-12  0.0000000E+00 -0.1095023E-09
 -0.5012589E-02  0.0000000E+00 -0.5050505E-02  0.1179119E-12  0.0000000E+00 -0.1094648E-09
 -0.5002725E-02  0.0000000E+00 -0.5050505E-02  0.1186583E-12  0.0000000E+00 -0.1094270E-09
 -0.4992860E-02  0.0000000E+00 -0.5050505E-02  0.1187691E-12  0.0000000E+00 -0.1093890E-09
 -0.4976523E-02  0.0000000E+00 -0.5050505E-02  0.1178682E-12  0.0000000E+00 -0.1093514E-09
 -0.4956794E-02  0.0000000E+00 -0.5050505E-02  0.1177939E-12  0.0000000E+00 -0.1093141E-09
 -0.4937066E-02  0.0000000E+00 -0.5050505E-02  0.1169806E-12  0.0000000E+00 -0.1092766E-09