title = "dataset feddes"
variables = "x", "y", "z", "vx", "vy", "vz"
zone t = "velocities, solution time =  3.400E+01 days        " i =   99, j =   99, k =    1,  f=point
 -0.5050505E-02  0.0000000E+00 -0.5050505E-02  0.1657559E-11  0.0000000E+00  0.2737839E-07
 -0.5050505E-02  0.0000000E+00 -0.5050505E-02  0.5479148E-11  0.0000000E+00  0.2738557E-07
 -0.5050505E-02  0.0000000E+00 -0.5050505E-02  0.9334762E-11  0.0000000E+00  0.2740047E-07
 -0.5050505E-02  0.0000000E+00 -0.5050505E-02  0.1307631E-10  0.0000000E+00  0.2742300E-07
 -0.5050505E-02  0.0000000E+00 -0.5050505E-02  0.1674173E-10  0.0000000E+00  0.2745299E-07
 -0.5050505E-02  0.0000000E+00 -0.5050505E-02  0.2033066E-10  0.0000000E+00  0.2749027E-07
 -0.5050504E-02  0.0000000E+00 -0.5050505E-02  0.2383503E-10  0.0000000E+00  0.2753469E-07
 -0.5050501E-02  0.0000000E+00 -0.5050505E-02  0.2724376E-10  0.0000000E+00  0.2758606E-07
 -0.5050495E-02  0.0000000E+00 -0.5050505E-02  0.3054461E-10  0.0000000E+00  0.2764417E-07
 -0.5050482E-02  0.0000000E+00 -0.5050505E-02  0.3372503E-10  0.0000000E+00  0.2770881E-07
 -0.5050449E-02  0.0000000E+00 -0.5050505E-02  0.3677256E-10  0.0000000E+00  0.2777970E-07
 -0.5050376E-02  0.0000000E+00 -0.5050505E-02  0.3967506E-10  0.0000000E+00  0.2785658E-07
 -0.5050299E-02  0.0000000E+00 -0.5050505E-02  0.4242079E-10  0.0000000E+00  0.2793914E-07
 -0.5050178E-02  0.0000000E+00 -0.5050505E-02  0.4499853E-10  0.0000000E+00  0.2802706E-07
 -0.5050018E-02  0.0000000E+00 -0.5050505E-02  0.4739760E-10  0.0000000E+00  0.2811998E-07
 -0.5049710E-02  0.0000000E+00 -0.5050505E-02  0.4960794E-10  0.0000000E+00  0.2821753E-07
 -0.5049253E-02  0.0000000E+00 -0.5050505E-02  0.5162014E-10  0.0000000E+00  0.2831933E-07
 -0.5048636E-02  0.0000000E+00 -0.5050505E-02  0.5342551E-10  0.0000000E+00  0.2842497E-07
 -0.5047442E-02  0.0000000E+00 -0.5050505E-02  0.5501610E-10  0.0000000E+00  0.2853403E-07
 -0.5045727E-02  0.0000000E+00 -0.5050505E-02  0.5638471E-10  0.0000000E+00  0.2864606E-07
 -0.5043261E-02  0.0000000E+00 -0.5050505E-02  0.5752504E-10  0.0000000E+00  0.2876062E-07
 -0.5038714E-02  0.0000000E+00 -0.5050505E-02  0.5843157E-10  0.0000000E+00  0.2887723E-07
 -0.5032318E-02  0.0000000E+00 -0.5050505E-02  0.5909973E-10  0.0000000E+00  0.2899543E-07
 -0.5022454E-02  0.0000000E+00 -0.5050505E-02  0.5952586E-10  0.0000000E+00  0.2911472E-07
 -0.5012589E-02  0.0000000E+00 -0.5050505E-02  0.5970724E-10  0.0000000E+00  0.2923463E-07
 -0.5002725E-02  0.0000000E+00 -0.5050505E-02  0.5964215E-10  0.0000000E+00  0.2935466E-07
 -0.4992860E-02  0.0000000E+00 -0.5050505E-02  0.5932985E-10  0.0000000E+00  0.2947430E-07
 -0.4976523E-02  0.0000000E+00 -0.5050505E-02  0.5877063E-10  0.0000000E+00  0.2959307E-07
 -0.4956794E-02  0.0000000E+00 -0.5050505E-02  0.5796578E-10  0.0000000E+00  0.2971047E-07
 -0.4937066E-02  0.0000000E+00 -0.5050505E-02  0.5691768E-10  0.0000000E+00  0.2982600E-07
 -0.4906239E-02  0.0000000E+00 -0.5050505E-02  0.5562969E-10  0.0000000E+00  0.2993919E-07
 -0.4866782E-02  0.0000000E+00 -0.5050505E-02  0.5410625E-10  0.0000000E+00  0.3004954E-07
 -0.4827325E-02  0.0000000E+00 -0.5050505E-02  0.5235282E-10  0.0000000E+00  0.3015661E-07
 -0.4769372E-02  0.0000000E+00 -0.5050505E-02  0.5037586E-10  0.0000000E+00  0.3025992E-07
 -0.4690458E-02  0.0000000E+00 -0.5050505E-02  0.4818285E-10  0.0000000E+00  0.3035903E-07
 -0.4611543E-02  0.0000000E+00 -0.5050505E-02  0.4578226E-10  0.0000000E+00  0.3045353E-07
 -0.4503035E-02  0.0000000E+00 -0.5050505E-02  0.4318345E-10  0.0000000E+00  0.3054300E-07
 -0.4345206E-02  0.0000000E+00 -0.5050505E-02  0.4039675E-10  0.0000000E+00  0.3062705E-07
 -0.4187378E-02  0.0000000E+00 -0.5050505E-02  0.3743328E-10  0.0000000E+00  0.3070532E-07
 -0.3985156E-02  0.0000000E+00 -0.5050505E-02  0.3430503E-10  0.0000000E+00  0.3077747E-07
 -0.3669499E-02  0.0000000E+00 -0.5050505E-02  0.3102459E-10  0.0000000E+00  0.3084317E-07
 -0.3353842E-02  0.0000000E+00 -0.5050505E-02  0.2760522E-10  0.0000000E+00  0.3090213E-07
 -0.2978990E-02  0.0000000E+00 -0.5050505E-02  0.2406064E-10  0.0000000E+00  0.3095409E-07
 -0.2347676E-02  0.0000000E+00 -0.5050505E-02  0.2040486E-10  0.0000000E+00  0.3099881E-07
 -0.1716362E-02  0.0000000E+00 -0.5050505E-02  0.1665205E-10  0.0000000E+00  0.3103607E-07
 -0.1025842E-02  0.0000000E+00 -0.5050505E-02  0.1281650E-10  0.0000000E+00  0.3106571E-07
  0.2367855E-03  0.0000000E+00 -0.5050505E-02  0.8912828E-11  0.0000000E+00  0.3108756E-07
  0.1499413E-02  0.0000000E+00 -0.5050505E-02  0.4956444E-11  0.0000000E+00  0.3110151E-07
  0.2762042E-02  0.0000000E+00 -0.5050505E-02  0.9639277E-12  0.0000000E+00  0.3110746E-07
 -0.5050505E-02  0.0000000E+00 -0.5050505E-02 -0.3037098E-11  0.0000000E+00  0.3110538E-07
 -0.5050505E-02  0.0000000E+00 -0.5050505E-02 -0.7027313E-11  0.0000000E+00  0.3109525E-07
 -0.5050505E-02  0.0000000E+00 -0.5050505E-02 -0.1101700E-10  0.0000000E+00  0.3107711E-07
 -0.5050505E-02  0.0000000E+00 -0.5050505E-02 -0.1495007E-10  0.0000000E+00  0.3105099E-07
 -0.5050505E-02  0.0000000E+00 -0.5050505E-02 -0.1881369E-10  0.0000000E+00  0.3101704E-07
 -0.5050505E-02  0.0000000E+00 -0.5050505E-02 -0.2259830E-10  0.0000000E+00  0.3097539E-07
 -0.5050505E-02  0.0000000E+00 -0.5050505E-02 -0.2629191E-10  0.0000000E+00  0.3092623E-07
 -0.5050504E-02  0.0000000E+00 -0.5050505E-02 -0.2988091E-10  0.0000000E+00  0.3086974E-07
 -0.5050501E-02  0.0000000E+00 -0.5050505E-02 -0.3335099E-10  0.0000000E+00  0.3080615E-07
 -0.5050495E-02  0.0000000E+00 -0.5050505E-02 -0.3668797E-10  0.0000000E+00  0.3073571E-07
 -0.5050482E-02  0.0000000E+00 -0.5050505E-02 -0.3987803E-10  0.0000000E+00  0.3065871E-07
 -0.5050449E-02  0.0000000E+00 -0.5050505E-02 -0.4290800E-10  0.0000000E+00  0.3057546E-07
 -0.5050376E-02  0.0000000E+00 -0.5050505E-02 -0.4576539E-10  0.0000000E+00  0.3048628E-07
 -0.5050299E-02  0.0000000E+00 -0.5050505E-02 -0.4843847E-10  0.0000000E+00  0.3039154E-07
 -0.5050178E-02  0.0000000E+00 -0.5050505E-02 -0.5091639E-10  0.0000000E+00  0.3029163E-07
 -0.5050018E-02  0.0000000E+00 -0.5050505E-02 -0.5318913E-10  0.0000000E+00  0.3018693E-07
 -0.5049710E-02  0.0000000E+00 -0.5050505E-02 -0.5524756E-10  0.0000000E+00  0.3007788E-07
 -0.5049253E-02  0.0000000E+00 -0.5050505E-02 -0.5708351E-10  0.0000000E+00  0.2996491E-07
 -0.5048636E-02  0.0000000E+00 -0.5050505E-02 -0.5868973E-10  0.0000000E+00  0.2984848E-07
 -0.5047442E-02  0.0000000E+00 -0.5050505E-02 -0.6005993E-10  0.0000000E+00  0.2972906E-07
 -0.5045727E-02  0.0000000E+00 -0.5050505E-02 -0.6118877E-10  0.0000000E+00  0.2960713E-07
 -0.5043261E-02  0.0000000E+00 -0.5050505E-02 -0.6207190E-10  0.0000000E+00  0.2948317E-07
 -0.5038714E-02  0.0000000E+00 -0.5050505E-02 -0.6270583E-10  0.0000000E+00  0.2935768E-07
 -0.5032318E-02  0.0000000E+00 -0.5050505E-02 -0.6308803E-10  0.0000000E+00  0.2923118E-07
 -0.5022454E-02  0.0000000E+00 -0.5050505E-02 -0.6321680E-10  0.0000000E+00  0.2910416E-07
 -0.5012589E-02  0.0000000E+00 -0.5050505E-02 -0.6309130E-10  0.0000000E+00  0.2897713E-07
 -0.5002725E-02  0.0000000E+00 -0.5050505E-02 -0.6271134E-10  0.0000000E+00  0.2885062E-07
 -0.4992860E-02  0.0000000E+00 -0.5050505E-02 -0.6207742E-10  0.0000000E+00  0.2872512E-07
 -0.4976523E-02  0.0000000E+00 -0.5050505E-02 -0.6119049E-10  0.0000000E+00  0.2860116E-07
 -0.4956794E-02  0.0000000E+00 -0.5050505E-02 -0.6005176E-10  0.0000000E+00  0.2847923E-07
 -0.4937066E-02  0.0000000E+00 -0.5050505E-02 -0.5866251E-10  0.0000000E+00  0.2835984E-07
 -0.4906239E-02  0.0000000E+00 -0.5050505E-02 -0.5702359E-10  0.0000000E+00  0.2824350E-07
 -0.4866782E-02  0.0000000E+00 -0.5050505E-02 -0.5513493E-10  0.0000000E+00  0.2813071E-07
 -0.4827325E-02  0.0000000E+00 -0.5050505E-02 -0.5299471E-10  0.0000000E+00  0.2802197E-07
 -0.4769372E-02  0.0000000E+00 -0.5050505E-02 -0.5059804E-10  0.0000000E+00  0.2791779E-07
 -0.4690458E-02  0.0000000E+00 -0.5050505E-02 -0.4793502E-10  0.0000000E+00  0.2781870E-07
 -0.4611543E-02  0.0000000E+00 -0.5050505E-02 -0.4498745E-10  0.0000000E+00  0.2772525E-07
 -0.4503035E-02  0.0000000E+00 -0.5050505E-02 -0.4172335E-10  0.0000000E+00  0.2763805E-07
 -0.4345206E-02  0.0000000E+00 -0.5050505E-02 -0.3808758E-10  0.0000000E+00  0.2755778E-07
 -0.4187378E-02  0.0000000E+00 -0.5050505E-02 -0.3398438E-10  0.0000000E+00  0.2748530E-07
 -0.3985156E-02  0.0000000E+00 -0.5050505E-02 -0.2924460E-10  0.0000000E+00  0.2742172E-07
 -0.3669499E-02  0.0000000E+00 -0.5050505E-02 -0.2355931E-10  0.0000000E+00  0.2736861E-07
 -0.3353842E-02  0.0000000E+00 -0.5050505E-02 -0.1633667E-10  0.0000000E+00  0.2732849E-07
 -0.2978990E-02  0.0000000E+00 -0.5050505E-02 -0.6369424E-11  0.0000000E+00  0.2730566E-07
 -0.2347676E-02  0.0000000E+00 -0.5050505E-02  0.8996715E-11  0.0000000E+00  0.2730830E-07
 -0.1716362E-02  0.0000000E+00 -0.5050505E-02  0.3619394E-10  0.0000000E+00  0.2735375E-07
 -0.1025842E-02  0.0000000E+00 -0.5050505E-02  0.9245334E-10  0.0000000E+00  0.2748312E-07
  0.2367855E-03  0.0000000E+00 -0.5050505E-02  0.2291330E-09  0.0000000E+00  0.2780653E-07
  0.1499413E-02  0.0000000E+00 -0.5050505E-02  0.6158359E-09  0.0000000E+00  0.2865628E-07
  0.5287294E-02  0.0000000E+00 -0.5050505E-02  0.1012199E-07  0.0000000E+00  0.2289803E-07
 -0.5050505E-02  0.0000000E+00 -0.5050505E-02  0.5104921E-11  0.0000000E+00  0.2740617E-07
 -0.5050505E-02  0.0000000E+00 -0.5050505E-02  0.1649816E-10  0.0000000E+00  0.2741358E-07
 -0.5050505E-02  0.0000000E+00 -0.5050505E-02  0.2802494E-10  0.0000000E+00  0.2742864E-07
 -0.5050505E-02  0.0000000E+00 -0.5050505E-02  0.3923545E-10  0.0000000E+00  0.2745133E-07
 -0.5050505E-02  0.0000000E+00 -0.5050505E-02  0.5022673E-10  0.0000000E+00  0.2748149E-07
 -0.5050505E-02  0.0000000E+00 -0.5050505E-02  0.6099179E-10  0.0000000E+00  0.2751899E-07
 -0.5050504E-02  0.0000000E+00 -0.5050505E-02  0.7150417E-10  0.0000000E+00  0.2756365E-07
 -0.5050501E-02  0.0000000E+00 -0.5050505E-02  0.8172998E-10  0.0000000E+00  0.2761531E-07
 -0.5050495E-02  0.0000000E+00 -0.5050505E-02  0.9163236E-10  0.0000000E+00  0.2767374E-07
 -0.5050482E-02  0.0000000E+00 -0.5050505E-02  0.1011736E-09  0.0000000E+00  0.2773874E-07
 -0.5050449E-02  0.0000000E+00 -0.5050505E-02  0.1103163E-09  0.0000000E+00  0.2781003E-07
 -0.5050376E-02  0.0000000E+00 -0.5050505E-02  0.1190240E-09  0.0000000E+00  0.2788734E-07
 -0.5050299E-02  0.0000000E+00 -0.5050505E-02  0.1272616E-09  0.0000000E+00  0.2797036E-07
 -0.5050178E-02  0.0000000E+00 -0.5050505E-02  0.1349952E-09  0.0000000E+00  0.2805877E-07
 -0.5050018E-02  0.0000000E+00 -0.5050505E-02  0.1421930E-09  0.0000000E+00  0.2815221E-07
 -0.5049710E-02  0.0000000E+00 -0.5050505E-02  0.1488247E-09  0.0000000E+00  0.2825031E-07
 -0.5049253E-02  0.0000000E+00 -0.5050505E-02  0.1548620E-09  0.0000000E+00  0.2835268E-07
 -0.5048636E-02  0.0000000E+00 -0.5050505E-02  0.1602790E-09  0.0000000E+00  0.2845892E-07
 -0.5047442E-02  0.0000000E+00 -0.5050505E-02  0.1650516E-09  0.0000000E+00  0.2856859E-07
 -0.5045727E-02  0.0000000E+00 -0.5050505E-02  0.1691585E-09  0.0000000E+00  0.2868126E-07
 -0.5043261E-02  0.0000000E+00 -0.5050505E-02  0.1725805E-09  0.0000000E+00  0.2879647E-07
 -0.5038714E-02  0.0000000E+00 -0.5050505E-02  0.1753011E-09  0.0000000E+00  0.2891375E-07
 -0.5032318E-02  0.0000000E+00 -0.5050505E-02  0.1773067E-09  0.0000000E+00  0.2903262E-07
 -0.5022454E-02  0.0000000E+00 -0.5050505E-02  0.1785862E-09  0.0000000E+00  0.2915260E-07
 -0.5012589E-02  0.0000000E+00 -0.5050505E-02  0.1791314E-09  0.0000000E+00  0.2927320E-07
 -0.5002725E-02  0.0000000E+00 -0.5050505E-02  0.1789372E-09  0.0000000E+00  0.2939392E-07
 -0.4992860E-02  0.0000000E+00 -0.5050505E-02  0.1780013E-09  0.0000000E+00  0.2951426E-07
 -0.4976523E-02  0.0000000E+00 -0.5050505E-02  0.1763247E-09  0.0000000E+00  0.2963372E-07
 -0.4956794E-02  0.0000000E+00 -0.5050505E-02  0.1739110E-09  0.0000000E+00  0.2975180E-07
 -0.4937066E-02  0.0000000E+00 -0.5050505E-02  0.1707676E-09  0.0000000E+00  0.2986801E-07
 -0.4906239E-02  0.0000000E+00 -0.5050505E-02  0.1669044E-09  0.0000000E+00  0.2998186E-07
 -0.4866782E-02  0.0000000E+00 -0.5050505E-02  0.1623347E-09  0.0000000E+00  0.3009287E-07
 -0.4827325E-02  0.0000000E+00 -0.5050505E-02  0.1570750E-09  0.0000000E+00  0.3020056E-07
 -0.4769372E-02  0.0000000E+00 -0.5050505E-02  0.1511445E-09  0.0000000E+00  0.3030449E-07
 -0.4690458E-02  0.0000000E+00 -0.5050505E-02  0.1445658E-09  0.0000000E+00  0.3040419E-07
 -0.4611543E-02  0.0000000E+00 -0.5050505E-02  0.1373641E-09  0.0000000E+00  0.3049926E-07
 -0.4503035E-02  0.0000000E+00 -0.5050505E-02  0.1295678E-09  0.0000000E+00  0.3058926E-07
 -0.4345206E-02  0.0000000E+00 -0.5050505E-02  0.1212076E-09  0.0000000E+00  0.3067382E-07
 -0.4187378E-02  0.0000000E+00 -0.5050505E-02  0.1123170E-09  0.0000000E+00  0.3075257E-07
 -0.3985156E-02  0.0000000E+00 -0.5050505E-02  0.1029319E-09  0.0000000E+00  0.3082515E-07
 -0.3669499E-02  0.0000000E+00 -0.5050505E-02  0.9309022E-10  0.0000000E+00  0.3089125E-07
 -0.3353842E-02  0.0000000E+00 -0.5050505E-02  0.8283175E-10  0.0000000E+00  0.3095058E-07
 -0.2978990E-02  0.0000000E+00 -0.5050505E-02  0.7219759E-10  0.0000000E+00  0.3100286E-07
 -0.2347676E-02  0.0000000E+00 -0.5050505E-02  0.6122973E-10  0.0000000E+00  0.3104786E-07
 -0.1716362E-02  0.0000000E+00 -0.5050505E-02  0.4997054E-10  0.0000000E+00  0.3108536E-07
 -0.1025842E-02  0.0000000E+00 -0.5050505E-02  0.3846252E-10  0.0000000E+00  0.3111519E-07
  0.2367855E-03  0.0000000E+00 -0.5050505E-02  0.2674925E-10  0.0000000E+00  0.3113719E-07
  0.1499413E-02  0.0000000E+00 -0.5050505E-02  0.1487777E-10  0.0000000E+00  0.3115124E-07
  0.2762042E-02  0.0000000E+00 -0.5050505E-02  0.2902593E-11  0.0000000E+00  0.3115724E-07
 -0.5050505E-02  0.0000000E+00 -0.5050505E-02 -0.9108549E-11  0.0000000E+00  0.3115516E-07
 -0.5050505E-02  0.0000000E+00 -0.5050505E-02 -0.2108327E-10  0.0000000E+00  0.3114498E-07
 -0.5050505E-02  0.0000000E+00 -0.5050505E-02 -0.3304562E-10  0.0000000E+00  0.3112674E-07
 -0.5050505E-02  0.0000000E+00 -0.5050505E-02 -0.4484364E-10  0.0000000E+00  0.3110049E-07
 -0.5050505E-02  0.0000000E+00 -0.5050505E-02 -0.5643590E-10  0.0000000E+00  0.3106636E-07
 -0.5050505E-02  0.0000000E+00 -0.5050505E-02 -0.6779149E-10  0.0000000E+00  0.3102448E-07
 -0.5050505E-02  0.0000000E+00 -0.5050505E-02 -0.7887388E-10  0.0000000E+00  0.3097505E-07
 -0.5050504E-02  0.0000000E+00 -0.5050505E-02 -0.8964207E-10  0.0000000E+00  0.3091824E-07
 -0.5050501E-02  0.0000000E+00 -0.5050505E-02 -0.1000533E-09  0.0000000E+00  0.3085430E-07
 -0.5050495E-02  0.0000000E+00 -0.5050505E-02 -0.1100650E-09  0.0000000E+00  0.3078346E-07
 -0.5050482E-02  0.0000000E+00 -0.5050505E-02 -0.1196359E-09  0.0000000E+00  0.3070603E-07
 -0.5050449E-02  0.0000000E+00 -0.5050505E-02 -0.1287263E-09  0.0000000E+00  0.3062230E-07
 -0.5050376E-02  0.0000000E+00 -0.5050505E-02 -0.1372988E-09  0.0000000E+00  0.3053262E-07
 -0.5050299E-02  0.0000000E+00 -0.5050505E-02 -0.1453184E-09  0.0000000E+00  0.3043735E-07
 -0.5050178E-02  0.0000000E+00 -0.5050505E-02 -0.1527524E-09  0.0000000E+00  0.3033687E-07
 -0.5050018E-02  0.0000000E+00 -0.5050505E-02 -0.1595707E-09  0.0000000E+00  0.3023158E-07
 -0.5049710E-02  0.0000000E+00 -0.5050505E-02 -0.1657460E-09  0.0000000E+00  0.3012191E-07
 -0.5049253E-02  0.0000000E+00 -0.5050505E-02 -0.1712538E-09  0.0000000E+00  0.3000830E-07
 -0.5048636E-02  0.0000000E+00 -0.5050505E-02 -0.1760724E-09  0.0000000E+00  0.2989121E-07
 -0.5047442E-02  0.0000000E+00 -0.5050505E-02 -0.1801828E-09  0.0000000E+00  0.2977111E-07
 -0.5045727E-02  0.0000000E+00 -0.5050505E-02 -0.1835693E-09  0.0000000E+00  0.2964849E-07
 -0.5043261E-02  0.0000000E+00 -0.5050505E-02 -0.1862185E-09  0.0000000E+00  0.2952383E-07
 -0.5038714E-02  0.0000000E+00 -0.5050505E-02 -0.1881203E-09  0.0000000E+00  0.2939764E-07
 -0.5032318E-02  0.0000000E+00 -0.5050505E-02 -0.1892670E-09  0.0000000E+00  0.2927041E-07
 -0.5022454E-02  0.0000000E+00 -0.5050505E-02 -0.1896537E-09  0.0000000E+00  0.2914268E-07
 -0.5012589E-02  0.0000000E+00 -0.5050505E-02 -0.1892778E-09  0.0000000E+00  0.2901493E-07
 -0.5002725E-02  0.0000000E+00 -0.5050505E-02 -0.1881389E-09  0.0000000E+00  0.2888770E-07
 -0.4992860E-02  0.0000000E+00 -0.5050505E-02 -0.1862387E-09  0.0000000E+00  0.2876149E-07
 -0.4976523E-02  0.0000000E+00 -0.5050505E-02 -0.1835801E-09  0.0000000E+00  0.2863681E-07
 -0.4956794E-02  0.0000000E+00 -0.5050505E-02 -0.1801672E-09  0.0000000E+00  0.2851418E-07
 -0.4937066E-02  0.0000000E+00 -0.5050505E-02 -0.1760040E-09  0.0000000E+00  0.2839410E-07
 -0.4906239E-02  0.0000000E+00 -0.5050505E-02 -0.1710938E-09  0.0000000E+00  0.2827706E-07
 -0.4866782E-02  0.0000000E+00 -0.5050505E-02 -0.1654371E-09  0.0000000E+00  0.2816358E-07
 -0.4827325E-02  0.0000000E+00 -0.5050505E-02 -0.1590297E-09  0.0000000E+00  0.2805415E-07
 -0.4769372E-02  0.0000000E+00 -0.5050505E-02 -0.1518591E-09  0.0000000E+00  0.2794928E-07
 -0.4690458E-02  0.0000000E+00 -0.5050505E-02 -0.1438987E-09  0.0000000E+00  0.2784947E-07
 -0.4611543E-02  0.0000000E+00 -0.5050505E-02 -0.1350995E-09  0.0000000E+00  0.2775527E-07
 -0.4503035E-02  0.0000000E+00 -0.5050505E-02 -0.1253751E-09  0.0000000E+00  0.2766723E-07
 -0.4345206E-02  0.0000000E+00 -0.5050505E-02 -0.1145773E-09  0.0000000E+00  0.2758600E-07
 -0.4187378E-02  0.0000000E+00 -0.5050505E-02 -0.1024520E-09  0.0000000E+00  0.2751229E-07
 -0.3985156E-02  0.0000000E+00 -0.5050505E-02 -0.8855837E-10  0.0000000E+00  0.2744702E-07
 -0.3669499E-02  0.0000000E+00 -0.5050505E-02 -0.7211293E-10  0.0000000E+00  0.2739134E-07
 -0.3353842E-02  0.0000000E+00 -0.5050505E-02 -0.5167418E-10  0.0000000E+00  0.2734687E-07
 -0.2978990E-02  0.0000000E+00 -0.5050505E-02 -0.2446456E-10  0.0000000E+00  0.2731585E-07
 -0.2347676E-02  0.0000000E+00 -0.5050505E-02  0.1517648E-10  0.0000000E+00  0.2730124E-07
 -0.1716362E-02  0.0000000E+00 -0.5050505E-02  0.7953321E-10  0.0000000E+00  0.2730584E-07
 -0.1025842E-02  0.0000000E+00 -0.5050505E-02  0.1970002E-09  0.0000000E+00  0.2732592E-07
  0.2367855E-03  0.0000000E+00 -0.5050505E-02  0.4377697E-09  0.0000000E+00  0.2731928E-07
  0.1499413E-02  0.0000000E+00 -0.5050505E-02  0.9852851E-09  0.0000000E+00  0.2705567E-07
  0.5287294E-02  0.0000000E+00 -0.5050505E-02  0.2341579E-08  0.0000000E+00  0.2542178E-07
 -0.5050505E-02  0.0000000E+00 -0.5050505E-02  0.8743727E-11  0.0000000E+00  0.2746236E-07
 -0.5050505E-02  0.0000000E+00 -0.5050505E-02  0.2765602E-10  0.0000000E+00  0.2746995E-07
 -0.5050505E-02  0.0000000E+00 -0.5050505E-02  0.4680818E-10  0.0000000E+00  0.2748525E-07
 -0.5050505E-02  0.0000000E+00 -0.5050505E-02  0.6548314E-10  0.0000000E+00  0.2750822E-07
 -0.5050505E-02  0.0000000E+00 -0.5050505E-02  0.8381058E-10  0.0000000E+00  0.2753873E-07
 -0.5050505E-02  0.0000000E+00 -0.5050505E-02  0.1017675E-09  0.0000000E+00  0.2757665E-07
 -0.5050504E-02  0.0000000E+00 -0.5050505E-02  0.1193056E-09  0.0000000E+00  0.2762181E-07
 -0.5050501E-02  0.0000000E+00 -0.5050505E-02  0.1363665E-09  0.0000000E+00  0.2767404E-07
 -0.5050495E-02  0.0000000E+00 -0.5050505E-02  0.1528886E-09  0.0000000E+00  0.2773312E-07
 -0.5050482E-02  0.0000000E+00 -0.5050505E-02  0.1688085E-09  0.0000000E+00  0.2779884E-07
 -0.5050449E-02  0.0000000E+00 -0.5050505E-02  0.1840639E-09  0.0000000E+00  0.2787092E-07
 -0.5050376E-02  0.0000000E+00 -0.5050505E-02  0.1985939E-09  0.0000000E+00  0.2794909E-07
 -0.5050299E-02  0.0000000E+00 -0.5050505E-02  0.2123398E-09  0.0000000E+00  0.2803303E-07
 -0.5050178E-02  0.0000000E+00 -0.5050505E-02  0.2252453E-09  0.0000000E+00  0.2812243E-07
 -0.5050018E-02  0.0000000E+00 -0.5050505E-02  0.2372571E-09  0.0000000E+00  0.2821691E-07
 -0.5049710E-02  0.0000000E+00 -0.5050505E-02  0.2483246E-09  0.0000000E+00  0.2831611E-07
 -0.5049253E-02  0.0000000E+00 -0.5050505E-02  0.2584007E-09  0.0000000E+00  0.2841964E-07
 -0.5048636E-02  0.0000000E+00 -0.5050505E-02  0.2674420E-09  0.0000000E+00  0.2852707E-07
 -0.5047442E-02  0.0000000E+00 -0.5050505E-02  0.2754084E-09  0.0000000E+00  0.2863798E-07
 -0.5045727E-02  0.0000000E+00 -0.5050505E-02  0.2822641E-09  0.0000000E+00  0.2875192E-07
 -0.5043261E-02  0.0000000E+00 -0.5050505E-02  0.2879773E-09  0.0000000E+00  0.2886844E-07
 -0.5038714E-02  0.0000000E+00 -0.5050505E-02  0.2925204E-09  0.0000000E+00  0.2898705E-07
 -0.5032318E-02  0.0000000E+00 -0.5050505E-02  0.2958704E-09  0.0000000E+00  0.2910728E-07
 -0.5022454E-02  0.0000000E+00 -0.5050505E-02  0.2980089E-09  0.0000000E+00  0.2922864E-07
 -0.5012589E-02  0.0000000E+00 -0.5050505E-02  0.2989223E-09  0.0000000E+00  0.2935062E-07
 -0.5002725E-02  0.0000000E+00 -0.5050505E-02  0.2986018E-09  0.0000000E+00  0.2947273E-07
 -0.4992860E-02  0.0000000E+00 -0.5050505E-02  0.2970437E-09  0.0000000E+00  0.2959446E-07
 -0.4976523E-02  0.0000000E+00 -0.5050505E-02  0.2942494E-09  0.0000000E+00  0.2971531E-07
 -0.4956794E-02  0.0000000E+00 -0.5050505E-02  0.2902252E-09  0.0000000E+00  0.2983476E-07
 -0.4937066E-02  0.0000000E+00 -0.5050505E-02  0.2849830E-09  0.0000000E+00  0.2995233E-07
 -0.4906239E-02  0.0000000E+00 -0.5050505E-02  0.2785395E-09  0.0000000E+00  0.3006751E-07
 -0.4866782E-02  0.0000000E+00 -0.5050505E-02  0.2709170E-09  0.0000000E+00  0.3017982E-07
 -0.4827325E-02  0.0000000E+00 -0.5050505E-02  0.2621426E-09  0.0000000E+00  0.3028878E-07
 -0.4769372E-02  0.0000000E+00 -0.5050505E-02  0.2522487E-09  0.0000000E+00  0.3039394E-07
 -0.4690458E-02  0.0000000E+00 -0.5050505E-02  0.2412727E-09  0.0000000E+00  0.3049483E-07
 -0.4611543E-02  0.0000000E+00 -0.5050505E-02  0.2292569E-09  0.0000000E+00  0.3059102E-07
 -0.4503035E-02  0.0000000E+00 -0.5050505E-02  0.2162484E-09  0.0000000E+00  0.3068210E-07
 -0.4345206E-02  0.0000000E+00 -0.5050505E-02  0.2022986E-09  0.0000000E+00  0.3076768E-07
 -0.4187378E-02  0.0000000E+00 -0.5050505E-02  0.1874634E-09  0.0000000E+00  0.3084737E-07
 -0.3985156E-02  0.0000000E+00 -0.5050505E-02  0.1718028E-09  0.0000000E+00  0.3092083E-07
 -0.3669499E-02  0.0000000E+00 -0.5050505E-02  0.1553800E-09  0.0000000E+00  0.3098774E-07
 -0.3353842E-02  0.0000000E+00 -0.5050505E-02  0.1382616E-09  0.0000000E+00  0.3104779E-07
 -0.2978990E-02  0.0000000E+00 -0.5050505E-02  0.1205162E-09  0.0000000E+00  0.3110072E-07
 -0.2347676E-02  0.0000000E+00 -0.5050505E-02  0.1022137E-09  0.0000000E+00  0.3114628E-07
 -0.1716362E-02  0.0000000E+00 -0.5050505E-02  0.8342451E-10  0.0000000E+00  0.3118426E-07
 -0.1025842E-02  0.0000000E+00 -0.5050505E-02  0.6421872E-10  0.0000000E+00  0.3121447E-07
  0.2367855E-03  0.0000000E+00 -0.5050505E-02  0.4466791E-10  0.0000000E+00  0.3123676E-07
  0.1499413E-02  0.0000000E+00 -0.5050505E-02  0.2485172E-10  0.0000000E+00  0.3125100E-07
  0.2762042E-02  0.0000000E+00 -0.5050505E-02  0.4873504E-11  0.0000000E+00  0.3125711E-07
 -0.5050505E-02  0.0000000E+00 -0.5050505E-02 -0.1518120E-10  0.0000000E+00  0.3125503E-07
 -0.5050505E-02  0.0000000E+00 -0.5050505E-02 -0.3517095E-10  0.0000000E+00  0.3124476E-07
 -0.5050505E-02  0.0000000E+00 -0.5050505E-02 -0.5512095E-10  0.0000000E+00  0.3122633E-07
 -0.5050505E-02  0.0000000E+00 -0.5050505E-02 -0.7480569E-10  0.0000000E+00  0.3119981E-07
 -0.5050505E-02  0.0000000E+00 -0.5050505E-02 -0.9415187E-10  0.0000000E+00  0.3116531E-07
 -0.5050505E-02  0.0000000E+00 -0.5050505E-02 -0.1131041E-09  0.0000000E+00  0.3112299E-07
 -0.5050505E-02  0.0000000E+00 -0.5050505E-02 -0.1316000E-09  0.0000000E+00  0.3107300E-07
 -0.5050504E-02  0.0000000E+00 -0.5050505E-02 -0.1495709E-09  0.0000000E+00  0.3101557E-07
 -0.5050501E-02  0.0000000E+00 -0.5050505E-02 -0.1669457E-09  0.0000000E+00  0.3095091E-07
 -0.5050495E-02  0.0000000E+00 -0.5050505E-02 -0.1836533E-09  0.0000000E+00  0.3087928E-07
 -0.5050482E-02  0.0000000E+00 -0.5050505E-02 -0.1996249E-09  0.0000000E+00  0.3080097E-07
 -0.5050449E-02  0.0000000E+00 -0.5050505E-02 -0.2147945E-09  0.0000000E+00  0.3071630E-07
 -0.5050376E-02  0.0000000E+00 -0.5050505E-02 -0.2290996E-09  0.0000000E+00  0.3062561E-07
 -0.5050299E-02  0.0000000E+00 -0.5050505E-02 -0.2424816E-09  0.0000000E+00  0.3052926E-07
 -0.5050178E-02  0.0000000E+00 -0.5050505E-02 -0.2548862E-09  0.0000000E+00  0.3042764E-07
 -0.5050018E-02  0.0000000E+00 -0.5050505E-02 -0.2662632E-09  0.0000000E+00  0.3032116E-07
 -0.5049710E-02  0.0000000E+00 -0.5050505E-02 -0.2765670E-09  0.0000000E+00  0.3021025E-07
 -0.5049253E-02  0.0000000E+00 -0.5050505E-02 -0.2857568E-09  0.0000000E+00  0.3009536E-07
 -0.5048636E-02  0.0000000E+00 -0.5050505E-02 -0.2937965E-09  0.0000000E+00  0.2997695E-07
 -0.5047442E-02  0.0000000E+00 -0.5050505E-02 -0.3006546E-09  0.0000000E+00  0.2985549E-07
 -0.5045727E-02  0.0000000E+00 -0.5050505E-02 -0.3063045E-09  0.0000000E+00  0.2973149E-07
 -0.5043261E-02  0.0000000E+00 -0.5050505E-02 -0.3107246E-09  0.0000000E+00  0.2960542E-07
 -0.5038714E-02  0.0000000E+00 -0.5050505E-02 -0.3138977E-09  0.0000000E+00  0.2947781E-07
 -0.5032318E-02  0.0000000E+00 -0.5050505E-02 -0.3158114E-09  0.0000000E+00  0.2934915E-07
 -0.5022454E-02  0.0000000E+00 -0.5050505E-02 -0.3164575E-09  0.0000000E+00  0.2921997E-07
 -0.5012589E-02  0.0000000E+00 -0.5050505E-02 -0.3158321E-09  0.0000000E+00  0.2909079E-07
 -0.5002725E-02  0.0000000E+00 -0.5050505E-02 -0.3139350E-09  0.0000000E+00  0.2896212E-07
 -0.4992860E-02  0.0000000E+00 -0.5050505E-02 -0.3107692E-09  0.0000000E+00  0.2883447E-07
 -0.4976523E-02  0.0000000E+00 -0.5050505E-02 -0.3063404E-09  0.0000000E+00  0.2870838E-07
 -0.4956794E-02  0.0000000E+00 -0.5050505E-02 -0.3006561E-09  0.0000000E+00  0.2858433E-07
 -0.4937066E-02  0.0000000E+00 -0.5050505E-02 -0.2937244E-09  0.0000000E+00  0.2846285E-07
 -0.4906239E-02  0.0000000E+00 -0.5050505E-02 -0.2855523E-09  0.0000000E+00  0.2834444E-07
 -0.4866782E-02  0.0000000E+00 -0.5050505E-02 -0.2761434E-09  0.0000000E+00  0.2822958E-07
 -0.4827325E-02  0.0000000E+00 -0.5050505E-02 -0.2654947E-09  0.0000000E+00  0.2811879E-07
 -0.4769372E-02  0.0000000E+00 -0.5050505E-02 -0.2535913E-09  0.0000000E+00  0.2801253E-07
 -0.4690458E-02  0.0000000E+00 -0.5050505E-02 -0.2403989E-09  0.0000000E+00  0.2791132E-07
 -0.4611543E-02  0.0000000E+00 -0.5050505E-02 -0.2258520E-09  0.0000000E+00  0.2781564E-07
 -0.4503035E-02  0.0000000E+00 -0.5050505E-02 -0.2098347E-09  0.0000000E+00  0.2772600E-07
 -0.4345206E-02  0.0000000E+00 -0.5050505E-02 -0.1921496E-09  0.0000000E+00  0.2764294E-07
 -0.4187378E-02  0.0000000E+00 -0.5050505E-02 -0.1724649E-09  0.0000000E+00  0.2756700E-07
 -0.3985156E-02  0.0000000E+00 -0.5050505E-02 -0.1502236E-09  0.0000000E+00  0.2749877E-07
 -0.3669499E-02  0.0000000E+00 -0.5050505E-02 -0.1244840E-09  0.0000000E+00  0.2743886E-07
 -0.3353842E-02  0.0000000E+00 -0.5050505E-02 -0.9363423E-10  0.0000000E+00  0.2738777E-07
 -0.2978990E-02  0.0000000E+00 -0.5050505E-02 -0.5487957E-10  0.0000000E+00  0.2734558E-07
 -0.2347676E-02  0.0000000E+00 -0.5050505E-02 -0.3247843E-11  0.0000000E+00  0.2731102E-07
 -0.1716362E-02  0.0000000E+00 -0.5050505E-02  0.6989016E-10  0.0000000E+00  0.2727873E-07
 -0.1025842E-02  0.0000000E+00 -0.5050505E-02  0.1786329E-09  0.0000000E+00  0.2723204E-07
  0.2367855E-03  0.0000000E+00 -0.5050505E-02  0.3407514E-09  0.0000000E+00  0.2712622E-07
  0.1499413E-02  0.0000000E+00 -0.5050505E-02  0.5496980E-09  0.0000000E+00  0.2686226E-07
  0.5287294E-02  0.0000000E+00 -0.5050505E-02  0.6147251E-09  0.0000000E+00  0.2634029E-07
 -0.5050505E-02  0.0000000E+00 -0.5050505E-02  0.1247545E-10  0.0000000E+00  0.2754706E-07
 -0.5050505E-02  0.0000000E+00 -0.5050505E-02  0.3897551E-10  0.0000000E+00  0.2755481E-07
 -0.5050505E-02  0.0000000E+00 -0.5050505E-02  0.6578152E-10  0.0000000E+00  0.2757039E-07
 -0.5050505E-02  0.0000000E+00 -0.5050505E-02  0.9196664E-10  0.0000000E+00  0.2759377E-07
 -0.5050505E-02  0.0000000E+00 -0.5050505E-02  0.1176828E-09  0.0000000E+00  0.2762479E-07
 -0.5050505E-02  0.0000000E+00 -0.5050505E-02  0.1428871E-09  0.0000000E+00  0.2766334E-07
 -0.5050504E-02  0.0000000E+00 -0.5050505E-02  0.1675071E-09  0.0000000E+00  0.2770925E-07
 -0.5050501E-02  0.0000000E+00 -0.5050505E-02  0.1914593E-09  0.0000000E+00  0.2776234E-07
 -0.5050495E-02  0.0000000E+00 -0.5050505E-02  0.2146561E-09  0.0000000E+00  0.2782240E-07
 -0.5050482E-02  0.0000000E+00 -0.5050505E-02  0.2370085E-09  0.0000000E+00  0.2788920E-07
 -0.5050449E-02  0.0000000E+00 -0.5050505E-02  0.2584289E-09  0.0000000E+00  0.2796247E-07
 -0.5050376E-02  0.0000000E+00 -0.5050505E-02  0.2788317E-09  0.0000000E+00  0.2804193E-07
 -0.5050299E-02  0.0000000E+00 -0.5050505E-02  0.2981343E-09  0.0000000E+00  0.2812727E-07
 -0.5050178E-02  0.0000000E+00 -0.5050505E-02  0.3162578E-09  0.0000000E+00  0.2821814E-07
 -0.5050018E-02  0.0000000E+00 -0.5050505E-02  0.3331270E-09  0.0000000E+00  0.2831420E-07
 -0.5049710E-02  0.0000000E+00 -0.5050505E-02  0.3486711E-09  0.0000000E+00  0.2841506E-07
 -0.5049253E-02  0.0000000E+00 -0.5050505E-02  0.3628240E-09  0.0000000E+00  0.2852031E-07
 -0.5048636E-02  0.0000000E+00 -0.5050505E-02  0.3755244E-09  0.0000000E+00  0.2862954E-07
 -0.5047442E-02  0.0000000E+00 -0.5050505E-02  0.3867162E-09  0.0000000E+00  0.2874232E-07
 -0.5045727E-02  0.0000000E+00 -0.5050505E-02  0.3963489E-09  0.0000000E+00  0.2885818E-07
 -0.5043261E-02  0.0000000E+00 -0.5050505E-02  0.4043777E-09  0.0000000E+00  0.2897666E-07
 -0.5038714E-02  0.0000000E+00 -0.5050505E-02  0.4107639E-09  0.0000000E+00  0.2909728E-07
 -0.5032318E-02  0.0000000E+00 -0.5050505E-02  0.4154752E-09  0.0000000E+00  0.2921956E-07
 -0.5022454E-02  0.0000000E+00 -0.5050505E-02  0.4184855E-09  0.0000000E+00  0.2934298E-07
 -0.5012589E-02  0.0000000E+00 -0.5050505E-02  0.4197756E-09  0.0000000E+00  0.2946705E-07
 -0.5002725E-02  0.0000000E+00 -0.5050505E-02  0.4193331E-09  0.0000000E+00  0.2959125E-07
 -0.4992860E-02  0.0000000E+00 -0.5050505E-02  0.4171526E-09  0.0000000E+00  0.2971508E-07
 -0.4976523E-02  0.0000000E+00 -0.5050505E-02  0.4132360E-09  0.0000000E+00  0.2983800E-07
 -0.4956794E-02  0.0000000E+00 -0.5050505E-02  0.4075923E-09  0.0000000E+00  0.2995953E-07
 -0.4937066E-02  0.0000000E+00 -0.5050505E-02  0.4002377E-09  0.0000000E+00  0.3007913E-07