title = "dataset feddes"
variables = "x", "y", "z", "vx", "vy", "vz"
zone t = "velocities, solution time =  2.400E+01 days        " i =   99, j =   99, k =    1,  f=point
 -0.5050505E-02  0.0000000E+00 -0.5050505E-02  0.2666753E-12  0.0000000E+00  0.4354675E-08
 -0.5050505E-02  0.0000000E+00 -0.5050505E-02  0.1059271E-11  0.0000000E+00  0.4356008E-08
 -0.5050505E-02  0.0000000E+00 -0.5050505E-02  0.1962819E-11  0.0000000E+00  0.4359047E-08
 -0.5050505E-02  0.0000000E+00 -0.5050505E-02  0.2823278E-11  0.0000000E+00  0.4363860E-08
 -0.5050505E-02  0.0000000E+00 -0.5050505E-02  0.3648054E-11  0.0000000E+00  0.4370368E-08
 -0.5050505E-02  0.0000000E+00 -0.5050505E-02  0.4445494E-11  0.0000000E+00  0.4378508E-08
 -0.5050504E-02  0.0000000E+00 -0.5050505E-02  0.5219442E-11  0.0000000E+00  0.4388227E-08
 -0.5050501E-02  0.0000000E+00 -0.5050505E-02  0.5969780E-11  0.0000000E+00  0.4399480E-08
 -0.5050495E-02  0.0000000E+00 -0.5050505E-02  0.6695270E-11  0.0000000E+00  0.4412217E-08
 -0.5050482E-02  0.0000000E+00 -0.5050505E-02  0.7393730E-11  0.0000000E+00  0.4426386E-08
 -0.5050449E-02  0.0000000E+00 -0.5050505E-02  0.8062394E-11  0.0000000E+00  0.4441929E-08
 -0.5050376E-02  0.0000000E+00 -0.5050505E-02  0.8698953E-11  0.0000000E+00  0.4458785E-08
 -0.5050299E-02  0.0000000E+00 -0.5050505E-02  0.9300796E-11  0.0000000E+00  0.4476887E-08
 -0.5050178E-02  0.0000000E+00 -0.5050505E-02  0.9865435E-11  0.0000000E+00  0.4496162E-08
 -0.5050018E-02  0.0000000E+00 -0.5050505E-02  0.1039063E-10  0.0000000E+00  0.4516532E-08
 -0.5049710E-02  0.0000000E+00 -0.5050505E-02  0.1087419E-10  0.0000000E+00  0.4537918E-08
 -0.5049253E-02  0.0000000E+00 -0.5050505E-02  0.1131406E-10  0.0000000E+00  0.4560232E-08
 -0.5048636E-02  0.0000000E+00 -0.5050505E-02  0.1170836E-10  0.0000000E+00  0.4583384E-08
 -0.5047442E-02  0.0000000E+00 -0.5050505E-02  0.1205543E-10  0.0000000E+00  0.4607283E-08
 -0.5045727E-02  0.0000000E+00 -0.5050505E-02  0.1235369E-10  0.0000000E+00  0.4631830E-08
 -0.5043261E-02  0.0000000E+00 -0.5050505E-02  0.1260181E-10  0.0000000E+00  0.4656927E-08
 -0.5038714E-02  0.0000000E+00 -0.5050505E-02  0.1279862E-10  0.0000000E+00  0.4682471E-08
 -0.5032318E-02  0.0000000E+00 -0.5050505E-02  0.1294316E-10  0.0000000E+00  0.4708358E-08
 -0.5022454E-02  0.0000000E+00 -0.5050505E-02  0.1303471E-10  0.0000000E+00  0.4734483E-08
 -0.5012589E-02  0.0000000E+00 -0.5050505E-02  0.1307267E-10  0.0000000E+00  0.4760739E-08
 -0.5002725E-02  0.0000000E+00 -0.5050505E-02  0.1305674E-10  0.0000000E+00  0.4787016E-08
 -0.4992860E-02  0.0000000E+00 -0.5050505E-02  0.1298679E-10  0.0000000E+00  0.4813207E-08
 -0.4976523E-02  0.0000000E+00 -0.5050505E-02  0.1286295E-10  0.0000000E+00  0.4839203E-08
 -0.4956794E-02  0.0000000E+00 -0.5050505E-02  0.1268555E-10  0.0000000E+00  0.4864896E-08
 -0.4937066E-02  0.0000000E+00 -0.5050505E-02  0.1245510E-10  0.0000000E+00  0.4890179E-08
 -0.4906239E-02  0.0000000E+00 -0.5050505E-02  0.1217243E-10  0.0000000E+00  0.4914946E-08
 -0.4866782E-02  0.0000000E+00 -0.5050505E-02  0.1183853E-10  0.0000000E+00  0.4939093E-08
 -0.4827325E-02  0.0000000E+00 -0.5050505E-02  0.1145461E-10  0.0000000E+00  0.4962518E-08
 -0.4769372E-02  0.0000000E+00 -0.5050505E-02  0.1102211E-10  0.0000000E+00  0.4985122E-08
 -0.4690458E-02  0.0000000E+00 -0.5050505E-02  0.1054268E-10  0.0000000E+00  0.5006809E-08
 -0.4611543E-02  0.0000000E+00 -0.5050505E-02  0.1001819E-10  0.0000000E+00  0.5027486E-08
 -0.4503035E-02  0.0000000E+00 -0.5050505E-02  0.9450655E-11  0.0000000E+00  0.5047065E-08
 -0.4345206E-02  0.0000000E+00 -0.5050505E-02  0.8842341E-11  0.0000000E+00  0.5065462E-08
 -0.4187378E-02  0.0000000E+00 -0.5050505E-02  0.8195556E-11  0.0000000E+00  0.5082596E-08
 -0.3985156E-02  0.0000000E+00 -0.5050505E-02  0.7512856E-11  0.0000000E+00  0.5098393E-08
 -0.3669499E-02  0.0000000E+00 -0.5050505E-02  0.6796715E-11  0.0000000E+00  0.5112784E-08
 -0.3353842E-02  0.0000000E+00 -0.5050505E-02  0.6049722E-11  0.0000000E+00  0.5125703E-08
 -0.2978990E-02  0.0000000E+00 -0.5050505E-02  0.5274289E-11  0.0000000E+00  0.5137091E-08
 -0.2347676E-02  0.0000000E+00 -0.5050505E-02  0.4472711E-11  0.0000000E+00  0.5146893E-08
 -0.1716362E-02  0.0000000E+00 -0.5050505E-02  0.3647274E-11  0.0000000E+00  0.5155059E-08
 -0.1025842E-02  0.0000000E+00 -0.5050505E-02  0.2800702E-11  0.0000000E+00  0.5161544E-08
  0.2367855E-03  0.0000000E+00 -0.5050505E-02  0.1937094E-11  0.0000000E+00  0.5166308E-08
  0.1499413E-02  0.0000000E+00 -0.5050505E-02  0.1063395E-11  0.0000000E+00  0.5169326E-08
  0.2762042E-02  0.0000000E+00 -0.5050505E-02  0.1883755E-12  0.0000000E+00  0.5170585E-08
 -0.5050505E-02  0.0000000E+00 -0.5050505E-02 -0.5920437E-12  0.0000000E+00  0.5170179E-08
 -0.5050505E-02  0.0000000E+00 -0.5050505E-02 -0.1387054E-11  0.0000000E+00  0.5168189E-08
 -0.5050505E-02  0.0000000E+00 -0.5050505E-02 -0.2293346E-11  0.0000000E+00  0.5164487E-08
 -0.5050505E-02  0.0000000E+00 -0.5050505E-02 -0.3183039E-11  0.0000000E+00  0.5158980E-08
 -0.5050505E-02  0.0000000E+00 -0.5050505E-02 -0.4042882E-11  0.0000000E+00  0.5151713E-08
 -0.5050505E-02  0.0000000E+00 -0.5050505E-02 -0.4876431E-11  0.0000000E+00  0.5142743E-08
 -0.5050505E-02  0.0000000E+00 -0.5050505E-02 -0.5685949E-11  0.0000000E+00  0.5132121E-08
 -0.5050504E-02  0.0000000E+00 -0.5050505E-02 -0.6471070E-11  0.0000000E+00  0.5119895E-08
 -0.5050501E-02  0.0000000E+00 -0.5050505E-02 -0.7229865E-11  0.0000000E+00  0.5106117E-08
 -0.5050495E-02  0.0000000E+00 -0.5050505E-02 -0.7959726E-11  0.0000000E+00  0.5090841E-08
 -0.5050482E-02  0.0000000E+00 -0.5050505E-02 -0.8657894E-11  0.0000000E+00  0.5074129E-08
 -0.5050449E-02  0.0000000E+00 -0.5050505E-02 -0.9321557E-11  0.0000000E+00  0.5056048E-08
 -0.5050376E-02  0.0000000E+00 -0.5050505E-02 -0.9948001E-11  0.0000000E+00  0.5036670E-08
 -0.5050299E-02  0.0000000E+00 -0.5050505E-02 -0.1053471E-10  0.0000000E+00  0.5016071E-08
 -0.5050178E-02  0.0000000E+00 -0.5050505E-02 -0.1107927E-10  0.0000000E+00  0.4994335E-08
 -0.5050018E-02  0.0000000E+00 -0.5050505E-02 -0.1157951E-10  0.0000000E+00  0.4971548E-08
 -0.5049710E-02  0.0000000E+00 -0.5050505E-02 -0.1203340E-10  0.0000000E+00  0.4947801E-08
 -0.5049253E-02  0.0000000E+00 -0.5050505E-02 -0.1243913E-10  0.0000000E+00  0.4923190E-08
 -0.5048636E-02  0.0000000E+00 -0.5050505E-02 -0.1279511E-10  0.0000000E+00  0.4897813E-08
 -0.5047442E-02  0.0000000E+00 -0.5050505E-02 -0.1309994E-10  0.0000000E+00  0.4871771E-08
 -0.5045727E-02  0.0000000E+00 -0.5050505E-02 -0.1335241E-10  0.0000000E+00  0.4845169E-08
 -0.5043261E-02  0.0000000E+00 -0.5050505E-02 -0.1355155E-10  0.0000000E+00  0.4818113E-08
 -0.5038714E-02  0.0000000E+00 -0.5050505E-02 -0.1369656E-10  0.0000000E+00  0.4790710E-08
 -0.5032318E-02  0.0000000E+00 -0.5050505E-02 -0.1378690E-10  0.0000000E+00  0.4763071E-08
 -0.5022454E-02  0.0000000E+00 -0.5050505E-02 -0.1382215E-10  0.0000000E+00  0.4735306E-08
 -0.5012589E-02  0.0000000E+00 -0.5050505E-02 -0.1380216E-10  0.0000000E+00  0.4707525E-08
 -0.5002725E-02  0.0000000E+00 -0.5050505E-02 -0.1372690E-10  0.0000000E+00  0.4679840E-08
 -0.4992860E-02  0.0000000E+00 -0.5050505E-02 -0.1359652E-10  0.0000000E+00  0.4652362E-08
 -0.4976523E-02  0.0000000E+00 -0.5050505E-02 -0.1341131E-10  0.0000000E+00  0.4625202E-08
 -0.4956794E-02  0.0000000E+00 -0.5050505E-02 -0.1317163E-10  0.0000000E+00  0.4598468E-08
 -0.4937066E-02  0.0000000E+00 -0.5050505E-02 -0.1287797E-10  0.0000000E+00  0.4572271E-08
 -0.4906239E-02  0.0000000E+00 -0.5050505E-02 -0.1253074E-10  0.0000000E+00  0.4546718E-08
 -0.4866782E-02  0.0000000E+00 -0.5050505E-02 -0.1213033E-10  0.0000000E+00  0.4521918E-08
 -0.4827325E-02  0.0000000E+00 -0.5050505E-02 -0.1167682E-10  0.0000000E+00  0.4497976E-08
 -0.4769372E-02  0.0000000E+00 -0.5050505E-02 -0.1116993E-10  0.0000000E+00  0.4475000E-08
 -0.4690458E-02  0.0000000E+00 -0.5050505E-02 -0.1060860E-10  0.0000000E+00  0.4453098E-08
 -0.4611543E-02  0.0000000E+00 -0.5050505E-02 -0.9990386E-11  0.0000000E+00  0.4432382E-08
 -0.4503035E-02  0.0000000E+00 -0.5050505E-02 -0.9310768E-11  0.0000000E+00  0.4412972E-08
 -0.4345206E-02  0.0000000E+00 -0.5050505E-02 -0.8561300E-11  0.0000000E+00  0.4394999E-08
 -0.4187378E-02  0.0000000E+00 -0.5050505E-02 -0.7727076E-11  0.0000000E+00  0.4378618E-08
 -0.3985156E-02  0.0000000E+00 -0.5050505E-02 -0.6781263E-11  0.0000000E+00  0.4364028E-08
 -0.3669499E-02  0.0000000E+00 -0.5050505E-02 -0.5674920E-11  0.0000000E+00  0.4351501E-08
 -0.3353842E-02  0.0000000E+00 -0.5050505E-02 -0.4314896E-11  0.0000000E+00  0.4341455E-08
 -0.2978990E-02  0.0000000E+00 -0.5050505E-02 -0.2512365E-11  0.0000000E+00  0.4334589E-08
 -0.2347676E-02  0.0000000E+00 -0.5050505E-02  0.1514562E-12  0.0000000E+00  0.4332214E-08
 -0.1716362E-02  0.0000000E+00 -0.5050505E-02  0.4610633E-11  0.0000000E+00  0.4337003E-08
 -0.1025842E-02  0.0000000E+00 -0.5050505E-02  0.1367657E-10  0.0000000E+00  0.4355394E-08
  0.2367855E-03  0.0000000E+00 -0.5050505E-02  0.3552154E-10  0.0000000E+00  0.4404871E-08
  0.1499413E-02  0.0000000E+00 -0.5050505E-02  0.9695278E-10  0.0000000E+00  0.4538095E-08
  0.5287294E-02  0.0000000E+00 -0.5050505E-02  0.1601963E-08  0.0000000E+00  0.3625710E-08
 -0.5050505E-02  0.0000000E+00 -0.5050505E-02  0.8578752E-12  0.0000000E+00  0.4361207E-08
 -0.5050505E-02  0.0000000E+00 -0.5050505E-02  0.3224302E-11  0.0000000E+00  0.4362653E-08
 -0.5050505E-02  0.0000000E+00 -0.5050505E-02  0.5906073E-11  0.0000000E+00  0.4365773E-08
 -0.5050505E-02  0.0000000E+00 -0.5050505E-02  0.8473738E-11  0.0000000E+00  0.4370635E-08
 -0.5050505E-02  0.0000000E+00 -0.5050505E-02  0.1094415E-10  0.0000000E+00  0.4377184E-08
 -0.5050505E-02  0.0000000E+00 -0.5050505E-02  0.1333562E-10  0.0000000E+00  0.4385368E-08
 -0.5050504E-02  0.0000000E+00 -0.5050505E-02  0.1565722E-10  0.0000000E+00  0.4395140E-08
 -0.5050501E-02  0.0000000E+00 -0.5050505E-02  0.1790828E-10  0.0000000E+00  0.4406453E-08
 -0.5050495E-02  0.0000000E+00 -0.5050505E-02  0.2008458E-10  0.0000000E+00  0.4419259E-08
 -0.5050482E-02  0.0000000E+00 -0.5050505E-02  0.2217979E-10  0.0000000E+00  0.4433505E-08
 -0.5050449E-02  0.0000000E+00 -0.5050505E-02  0.2418577E-10  0.0000000E+00  0.4449133E-08
 -0.5050376E-02  0.0000000E+00 -0.5050505E-02  0.2609528E-10  0.0000000E+00  0.4466081E-08
 -0.5050299E-02  0.0000000E+00 -0.5050505E-02  0.2790076E-10  0.0000000E+00  0.4484280E-08
 -0.5050178E-02  0.0000000E+00 -0.5050505E-02  0.2959465E-10  0.0000000E+00  0.4503660E-08
 -0.5050018E-02  0.0000000E+00 -0.5050505E-02  0.3117022E-10  0.0000000E+00  0.4524142E-08
 -0.5049710E-02  0.0000000E+00 -0.5050505E-02  0.3262092E-10  0.0000000E+00  0.4545643E-08
 -0.5049253E-02  0.0000000E+00 -0.5050505E-02  0.3394056E-10  0.0000000E+00  0.4568079E-08
 -0.5048636E-02  0.0000000E+00 -0.5050505E-02  0.3512358E-10  0.0000000E+00  0.4591359E-08
 -0.5047442E-02  0.0000000E+00 -0.5050505E-02  0.3616485E-10  0.0000000E+00  0.4615388E-08
 -0.5045727E-02  0.0000000E+00 -0.5050505E-02  0.3705975E-10  0.0000000E+00  0.4640070E-08
 -0.5043261E-02  0.0000000E+00 -0.5050505E-02  0.3780422E-10  0.0000000E+00  0.4665305E-08
 -0.5038714E-02  0.0000000E+00 -0.5050505E-02  0.3839480E-10  0.0000000E+00  0.4690990E-08
 -0.5032318E-02  0.0000000E+00 -0.5050505E-02  0.3882859E-10  0.0000000E+00  0.4717021E-08
 -0.5022454E-02  0.0000000E+00 -0.5050505E-02  0.3910339E-10  0.0000000E+00  0.4743291E-08
 -0.5012589E-02  0.0000000E+00 -0.5050505E-02  0.3921744E-10  0.0000000E+00  0.4769692E-08
 -0.5002725E-02  0.0000000E+00 -0.5050505E-02  0.3916985E-10  0.0000000E+00  0.4796116E-08
 -0.4992860E-02  0.0000000E+00 -0.5050505E-02  0.3896021E-10  0.0000000E+00  0.4822453E-08
 -0.4976523E-02  0.0000000E+00 -0.5050505E-02  0.3858887E-10  0.0000000E+00  0.4848595E-08
 -0.4956794E-02  0.0000000E+00 -0.5050505E-02  0.3805683E-10  0.0000000E+00  0.4874432E-08
 -0.4937066E-02  0.0000000E+00 -0.5050505E-02  0.3736571E-10  0.0000000E+00  0.4899858E-08
 -0.4906239E-02  0.0000000E+00 -0.5050505E-02  0.3651788E-10  0.0000000E+00  0.4924764E-08
 -0.4866782E-02  0.0000000E+00 -0.5050505E-02  0.3551633E-10  0.0000000E+00  0.4949048E-08
 -0.4827325E-02  0.0000000E+00 -0.5050505E-02  0.3436474E-10  0.0000000E+00  0.4972606E-08
 -0.4769372E-02  0.0000000E+00 -0.5050505E-02  0.3306739E-10  0.0000000E+00  0.4995339E-08
 -0.4690458E-02  0.0000000E+00 -0.5050505E-02  0.3162926E-10  0.0000000E+00  0.5017150E-08
 -0.4611543E-02  0.0000000E+00 -0.5050505E-02  0.3005591E-10  0.0000000E+00  0.5037945E-08
 -0.4503035E-02  0.0000000E+00 -0.5050505E-02  0.2835348E-10  0.0000000E+00  0.5057637E-08
 -0.4345206E-02  0.0000000E+00 -0.5050505E-02  0.2652864E-10  0.0000000E+00  0.5076140E-08
 -0.4187378E-02  0.0000000E+00 -0.5050505E-02  0.2458849E-10  0.0000000E+00  0.5093374E-08
 -0.3985156E-02  0.0000000E+00 -0.5050505E-02  0.2254054E-10  0.0000000E+00  0.5109264E-08
 -0.3669499E-02  0.0000000E+00 -0.5050505E-02  0.2039240E-10  0.0000000E+00  0.5123739E-08
 -0.3353842E-02  0.0000000E+00 -0.5050505E-02  0.1815170E-10  0.0000000E+00  0.5136736E-08
 -0.2978990E-02  0.0000000E+00 -0.5050505E-02  0.1582565E-10  0.0000000E+00  0.5148193E-08
 -0.2347676E-02  0.0000000E+00 -0.5050505E-02  0.1342091E-10  0.0000000E+00  0.5158056E-08
 -0.1716362E-02  0.0000000E+00 -0.5050505E-02  0.1094383E-10  0.0000000E+00  0.5166272E-08
 -0.1025842E-02  0.0000000E+00 -0.5050505E-02  0.8401812E-11  0.0000000E+00  0.5172795E-08
  0.2367855E-03  0.0000000E+00 -0.5050505E-02  0.5807513E-11  0.0000000E+00  0.5177582E-08
  0.1499413E-02  0.0000000E+00 -0.5050505E-02  0.3187196E-11  0.0000000E+00  0.5180610E-08
  0.2762042E-02  0.0000000E+00 -0.5050505E-02  0.5899246E-12  0.0000000E+00  0.5181898E-08
 -0.5050505E-02  0.0000000E+00 -0.5050505E-02 -0.1769888E-11  0.0000000E+00  0.5181521E-08
 -0.5050505E-02  0.0000000E+00 -0.5050505E-02 -0.4179922E-11  0.0000000E+00  0.5179506E-08
 -0.5050505E-02  0.0000000E+00 -0.5050505E-02 -0.6883598E-11  0.0000000E+00  0.5175762E-08
 -0.5050505E-02  0.0000000E+00 -0.5050505E-02 -0.9546107E-11  0.0000000E+00  0.5170223E-08
 -0.5050505E-02  0.0000000E+00 -0.5050505E-02 -0.1212477E-10  0.0000000E+00  0.5162923E-08
 -0.5050505E-02  0.0000000E+00 -0.5050505E-02 -0.1462611E-10  0.0000000E+00  0.5153910E-08
 -0.5050505E-02  0.0000000E+00 -0.5050505E-02 -0.1705537E-10  0.0000000E+00  0.5143233E-08
 -0.5050504E-02  0.0000000E+00 -0.5050505E-02 -0.1941115E-10  0.0000000E+00  0.5130944E-08
 -0.5050501E-02  0.0000000E+00 -0.5050505E-02 -0.2168774E-10  0.0000000E+00  0.5117092E-08
 -0.5050495E-02  0.0000000E+00 -0.5050505E-02 -0.2387745E-10  0.0000000E+00  0.5101734E-08
 -0.5050482E-02  0.0000000E+00 -0.5050505E-02 -0.2597196E-10  0.0000000E+00  0.5084932E-08
 -0.5050449E-02  0.0000000E+00 -0.5050505E-02 -0.2796292E-10  0.0000000E+00  0.5066753E-08
 -0.5050376E-02  0.0000000E+00 -0.5050505E-02 -0.2984222E-10  0.0000000E+00  0.5047269E-08
 -0.5050299E-02  0.0000000E+00 -0.5050505E-02 -0.3160227E-10  0.0000000E+00  0.5026559E-08
 -0.5050178E-02  0.0000000E+00 -0.5050505E-02 -0.3323590E-10  0.0000000E+00  0.5004704E-08
 -0.5050018E-02  0.0000000E+00 -0.5050505E-02 -0.3473653E-10  0.0000000E+00  0.4981793E-08
 -0.5049710E-02  0.0000000E+00 -0.5050505E-02 -0.3609812E-10  0.0000000E+00  0.4957918E-08
 -0.5049253E-02  0.0000000E+00 -0.5050505E-02 -0.3731525E-10  0.0000000E+00  0.4933173E-08
 -0.5048636E-02  0.0000000E+00 -0.5050505E-02 -0.3838313E-10  0.0000000E+00  0.4907658E-08
 -0.5047442E-02  0.0000000E+00 -0.5050505E-02 -0.3929751E-10  0.0000000E+00  0.4881475E-08
 -0.5045727E-02  0.0000000E+00 -0.5050505E-02 -0.4005486E-10  0.0000000E+00  0.4854728E-08
 -0.5043261E-02  0.0000000E+00 -0.5050505E-02 -0.4065222E-10  0.0000000E+00  0.4827525E-08
 -0.5038714E-02  0.0000000E+00 -0.5050505E-02 -0.4108724E-10  0.0000000E+00  0.4799974E-08
 -0.5032318E-02  0.0000000E+00 -0.5050505E-02 -0.4135824E-10  0.0000000E+00  0.4772185E-08
 -0.5022454E-02  0.0000000E+00 -0.5050505E-02 -0.4146406E-10  0.0000000E+00  0.4744268E-08
 -0.5012589E-02  0.0000000E+00 -0.5050505E-02 -0.4140417E-10  0.0000000E+00  0.4716337E-08
 -0.5002725E-02  0.0000000E+00 -0.5050505E-02 -0.4117855E-10  0.0000000E+00  0.4688501E-08
 -0.4992860E-02  0.0000000E+00 -0.5050505E-02 -0.4078766E-10  0.0000000E+00  0.4660873E-08
 -0.4976523E-02  0.0000000E+00 -0.5050505E-02 -0.4023240E-10  0.0000000E+00  0.4633563E-08
 -0.4956794E-02  0.0000000E+00 -0.5050505E-02 -0.3951394E-10  0.0000000E+00  0.4606682E-08
 -0.4937066E-02  0.0000000E+00 -0.5050505E-02 -0.3863370E-10  0.0000000E+00  0.4580340E-08
 -0.4906239E-02  0.0000000E+00 -0.5050505E-02 -0.3759310E-10  0.0000000E+00  0.4554643E-08
 -0.4866782E-02  0.0000000E+00 -0.5050505E-02 -0.3639336E-10  0.0000000E+00  0.4529700E-08
 -0.4827325E-02  0.0000000E+00 -0.5050505E-02 -0.3503503E-10  0.0000000E+00  0.4505617E-08
 -0.4769372E-02  0.0000000E+00 -0.5050505E-02 -0.3351753E-10  0.0000000E+00  0.4482499E-08
 -0.4690458E-02  0.0000000E+00 -0.5050505E-02 -0.3183815E-10  0.0000000E+00  0.4460455E-08
 -0.4611543E-02  0.0000000E+00 -0.5050505E-02 -0.2999059E-10  0.0000000E+00  0.4439591E-08
 -0.4503035E-02  0.0000000E+00 -0.5050505E-02 -0.2796270E-10  0.0000000E+00  0.4420022E-08
 -0.4345206E-02  0.0000000E+00 -0.5050505E-02 -0.2573203E-10  0.0000000E+00  0.4401869E-08
 -0.4187378E-02  0.0000000E+00 -0.5050505E-02 -0.2325891E-10  0.0000000E+00  0.4385270E-08
 -0.3985156E-02  0.0000000E+00 -0.5050505E-02 -0.2047319E-10  0.0000000E+00  0.4370389E-08
 -0.3669499E-02  0.0000000E+00 -0.5050505E-02 -0.1725016E-10  0.0000000E+00  0.4357435E-08
 -0.3353842E-02  0.0000000E+00 -0.5050505E-02 -0.1336309E-10  0.0000000E+00  0.4346685E-08
 -0.2978990E-02  0.0000000E+00 -0.5050505E-02 -0.8382314E-11  0.0000000E+00  0.4338510E-08
 -0.2347676E-02  0.0000000E+00 -0.5050505E-02 -0.1438353E-11  0.0000000E+00  0.4333369E-08
 -0.1716362E-02  0.0000000E+00 -0.5050505E-02  0.9237612E-11  0.0000000E+00  0.4331661E-08
 -0.1025842E-02  0.0000000E+00 -0.5050505E-02  0.2837108E-10  0.0000000E+00  0.4332805E-08
  0.2367855E-03  0.0000000E+00 -0.5050505E-02  0.6709756E-10  0.0000000E+00  0.4330138E-08
  0.1499413E-02  0.0000000E+00 -0.5050505E-02  0.1544392E-09  0.0000000E+00  0.4287230E-08
  0.5287294E-02  0.0000000E+00 -0.5050505E-02  0.3698353E-09  0.0000000E+00  0.4027940E-08
 -0.5050505E-02  0.0000000E+00 -0.5050505E-02  0.1536626E-11  0.0000000E+00  0.4374706E-08
 -0.5050505E-02  0.0000000E+00 -0.5050505E-02  0.5474331E-11  0.0000000E+00  0.4376229E-08
 -0.5050505E-02  0.0000000E+00 -0.5050505E-02  0.9892883E-11  0.0000000E+00  0.4379431E-08
 -0.5050505E-02  0.0000000E+00 -0.5050505E-02  0.1414941E-10  0.0000000E+00  0.4384368E-08
 -0.5050505E-02  0.0000000E+00 -0.5050505E-02  0.1826206E-10  0.0000000E+00  0.4390996E-08
 -0.5050505E-02  0.0000000E+00 -0.5050505E-02  0.2224951E-10  0.0000000E+00  0.4399272E-08
 -0.5050504E-02  0.0000000E+00 -0.5050505E-02  0.2612202E-10  0.0000000E+00  0.4409152E-08
 -0.5050501E-02  0.0000000E+00 -0.5050505E-02  0.2987760E-10  0.0000000E+00  0.4420588E-08
 -0.5050495E-02  0.0000000E+00 -0.5050505E-02  0.3350830E-10  0.0000000E+00  0.4433533E-08
 -0.5050482E-02  0.0000000E+00 -0.5050505E-02  0.3700369E-10  0.0000000E+00  0.4447933E-08
 -0.5050449E-02  0.0000000E+00 -0.5050505E-02  0.4035049E-10  0.0000000E+00  0.4463731E-08
 -0.5050376E-02  0.0000000E+00 -0.5050505E-02  0.4353625E-10  0.0000000E+00  0.4480862E-08
 -0.5050299E-02  0.0000000E+00 -0.5050505E-02  0.4654853E-10  0.0000000E+00  0.4499259E-08
 -0.5050178E-02  0.0000000E+00 -0.5050505E-02  0.4937481E-10  0.0000000E+00  0.4518849E-08
 -0.5050018E-02  0.0000000E+00 -0.5050505E-02  0.5200369E-10  0.0000000E+00  0.4539553E-08
 -0.5049710E-02  0.0000000E+00 -0.5050505E-02  0.5442430E-10  0.0000000E+00  0.4561289E-08
 -0.5049253E-02  0.0000000E+00 -0.5050505E-02  0.5662638E-10  0.0000000E+00  0.4583969E-08
 -0.5048636E-02  0.0000000E+00 -0.5050505E-02  0.5860055E-10  0.0000000E+00  0.4607503E-08
 -0.5047442E-02  0.0000000E+00 -0.5050505E-02  0.6033824E-10  0.0000000E+00  0.4631795E-08
 -0.5045727E-02  0.0000000E+00 -0.5050505E-02  0.6183179E-10  0.0000000E+00  0.4656748E-08
 -0.5043261E-02  0.0000000E+00 -0.5050505E-02  0.6307442E-10  0.0000000E+00  0.4682260E-08
 -0.5038714E-02  0.0000000E+00 -0.5050505E-02  0.6406032E-10  0.0000000E+00  0.4708229E-08
 -0.5032318E-02  0.0000000E+00 -0.5050505E-02  0.6478467E-10  0.0000000E+00  0.4734547E-08
 -0.5022454E-02  0.0000000E+00 -0.5050505E-02  0.6524370E-10  0.0000000E+00  0.4761107E-08
 -0.5012589E-02  0.0000000E+00 -0.5050505E-02  0.6543464E-10  0.0000000E+00  0.4787801E-08
 -0.5002725E-02  0.0000000E+00 -0.5050505E-02  0.6535583E-10  0.0000000E+00  0.4814519E-08
 -0.4992860E-02  0.0000000E+00 -0.5050505E-02  0.6500669E-10  0.0000000E+00  0.4841150E-08
 -0.4976523E-02  0.0000000E+00 -0.5050505E-02  0.6438771E-10  0.0000000E+00  0.4867584E-08
 -0.4956794E-02  0.0000000E+00 -0.5050505E-02  0.6350060E-10  0.0000000E+00  0.4893711E-08
 -0.4937066E-02  0.0000000E+00 -0.5050505E-02  0.6234807E-10  0.0000000E+00  0.4919422E-08
 -0.4906239E-02  0.0000000E+00 -0.5050505E-02  0.6093401E-10  0.0000000E+00  0.4944609E-08
 -0.4866782E-02  0.0000000E+00 -0.5050505E-02  0.5926346E-10  0.0000000E+00  0.4969167E-08
 -0.4827325E-02  0.0000000E+00 -0.5050505E-02  0.5734250E-10  0.0000000E+00  0.4992992E-08
 -0.4769372E-02  0.0000000E+00 -0.5050505E-02  0.5517832E-10  0.0000000E+00  0.5015983E-08
 -0.4690458E-02  0.0000000E+00 -0.5050505E-02  0.5277922E-10  0.0000000E+00  0.5038043E-08
 -0.4611543E-02  0.0000000E+00 -0.5050505E-02  0.5015443E-10  0.0000000E+00  0.5059076E-08
 -0.4503035E-02  0.0000000E+00 -0.5050505E-02  0.4731426E-10  0.0000000E+00  0.5078994E-08
 -0.4345206E-02  0.0000000E+00 -0.5050505E-02  0.4426981E-10  0.0000000E+00  0.5097710E-08
 -0.4187378E-02  0.0000000E+00 -0.5050505E-02  0.4103300E-10  0.0000000E+00  0.5115143E-08
 -0.3985156E-02  0.0000000E+00 -0.5050505E-02  0.3761637E-10  0.0000000E+00  0.5131218E-08
 -0.3669499E-02  0.0000000E+00 -0.5050505E-02  0.3403270E-10  0.0000000E+00  0.5145863E-08
 -0.3353842E-02  0.0000000E+00 -0.5050505E-02  0.3029471E-10  0.0000000E+00  0.5159013E-08
 -0.2978990E-02  0.0000000E+00 -0.5050505E-02  0.2641435E-10  0.0000000E+00  0.5170607E-08
 -0.2347676E-02  0.0000000E+00 -0.5050505E-02  0.2240233E-10  0.0000000E+00  0.5180590E-08
 -0.1716362E-02  0.0000000E+00 -0.5050505E-02  0.1826818E-10  0.0000000E+00  0.5188909E-08
 -0.1025842E-02  0.0000000E+00 -0.5050505E-02  0.1402252E-10  0.0000000E+00  0.5195513E-08
  0.2367855E-03  0.0000000E+00 -0.5050505E-02  0.9685878E-11  0.0000000E+00  0.5200359E-08
  0.1499413E-02  0.0000000E+00 -0.5050505E-02  0.5310934E-11  0.0000000E+00  0.5203418E-08
  0.2762042E-02  0.0000000E+00 -0.5050505E-02  0.1027466E-11  0.0000000E+00  0.5204727E-08
 -0.5050505E-02  0.0000000E+00 -0.5050505E-02 -0.2937093E-11  0.0000000E+00  0.5204364E-08
 -0.5050505E-02  0.0000000E+00 -0.5050505E-02 -0.7004163E-11  0.0000000E+00  0.5202330E-08
 -0.5050505E-02  0.0000000E+00 -0.5050505E-02 -0.1149064E-10  0.0000000E+00  0.5198539E-08
 -0.5050505E-02  0.0000000E+00 -0.5050505E-02 -0.1592082E-10  0.0000000E+00  0.5192942E-08
 -0.5050505E-02  0.0000000E+00 -0.5050505E-02 -0.2022124E-10  0.0000000E+00  0.5185567E-08
 -0.5050505E-02  0.0000000E+00 -0.5050505E-02 -0.2439591E-10  0.0000000E+00  0.5176462E-08
 -0.5050505E-02  0.0000000E+00 -0.5050505E-02 -0.2845060E-10  0.0000000E+00  0.5165675E-08
 -0.5050504E-02  0.0000000E+00 -0.5050505E-02 -0.3238222E-10  0.0000000E+00  0.5153255E-08
 -0.5050501E-02  0.0000000E+00 -0.5050505E-02 -0.3618131E-10  0.0000000E+00  0.5139255E-08
 -0.5050495E-02  0.0000000E+00 -0.5050505E-02 -0.3983518E-10  0.0000000E+00  0.5123732E-08
 -0.5050482E-02  0.0000000E+00 -0.5050505E-02 -0.4333000E-10  0.0000000E+00  0.5106749E-08
 -0.5050449E-02  0.0000000E+00 -0.5050505E-02 -0.4665194E-10  0.0000000E+00  0.5088373E-08
 -0.5050376E-02  0.0000000E+00 -0.5050505E-02 -0.4978751E-10  0.0000000E+00  0.5068679E-08
 -0.5050299E-02  0.0000000E+00 -0.5050505E-02 -0.5272408E-10  0.0000000E+00  0.5047743E-08
 -0.5050178E-02  0.0000000E+00 -0.5050505E-02 -0.5544966E-10  0.0000000E+00  0.5025652E-08
 -0.5050018E-02  0.0000000E+00 -0.5050505E-02 -0.5795327E-10  0.0000000E+00  0.5002492E-08
 -0.5049710E-02  0.0000000E+00 -0.5050505E-02 -0.6022489E-10  0.0000000E+00  0.4978357E-08
 -0.5049253E-02  0.0000000E+00 -0.5050505E-02 -0.6225547E-10  0.0000000E+00  0.4953344E-08
 -0.5048636E-02  0.0000000E+00 -0.5050505E-02 -0.6403701E-10  0.0000000E+00  0.4927552E-08
 -0.5047442E-02  0.0000000E+00 -0.5050505E-02 -0.6556244E-10  0.0000000E+00  0.4901085E-08
 -0.5045727E-02  0.0000000E+00 -0.5050505E-02 -0.6682589E-10  0.0000000E+00  0.4874048E-08
 -0.5043261E-02  0.0000000E+00 -0.5050505E-02 -0.6782243E-10  0.0000000E+00  0.4846550E-08
 -0.5038714E-02  0.0000000E+00 -0.5050505E-02 -0.6854818E-10  0.0000000E+00  0.4818701E-08
 -0.5032318E-02  0.0000000E+00 -0.5050505E-02 -0.6900032E-10  0.0000000E+00  0.4790610E-08
 -0.5022454E-02  0.0000000E+00 -0.5050505E-02 -0.6917702E-10  0.0000000E+00  0.4762392E-08
 -0.5012589E-02  0.0000000E+00 -0.5050505E-02 -0.6907737E-10  0.0000000E+00  0.4734157E-08
 -0.5002725E-02  0.0000000E+00 -0.5050505E-02 -0.6870143E-10  0.0000000E+00  0.4706019E-08
 -0.4992860E-02  0.0000000E+00 -0.5050505E-02 -0.6805004E-10  0.0000000E+00  0.4678090E-08
 -0.4976523E-02  0.0000000E+00 -0.5050505E-02 -0.6712473E-10  0.0000000E+00  0.4650482E-08
 -0.4956794E-02  0.0000000E+00 -0.5050505E-02 -0.6592769E-10  0.0000000E+00  0.4623306E-08
 -0.4937066E-02  0.0000000E+00 -0.5050505E-02 -0.6446141E-10  0.0000000E+00  0.4596671E-08
 -0.4906239E-02  0.0000000E+00 -0.5050505E-02 -0.6272859E-10  0.0000000E+00  0.4570686E-08
 -0.4866782E-02  0.0000000E+00 -0.5050505E-02 -0.6073160E-10  0.0000000E+00  0.4545459E-08
 -0.4827325E-02  0.0000000E+00 -0.5050505E-02 -0.5847206E-10  0.0000000E+00  0.4521094E-08
 -0.4769372E-02  0.0000000E+00 -0.5050505E-02 -0.5594997E-10  0.0000000E+00  0.4497696E-08
 -0.4690458E-02  0.0000000E+00 -0.5050505E-02 -0.5316232E-10  0.0000000E+00  0.4475369E-08
 -0.4611543E-02  0.0000000E+00 -0.5050505E-02 -0.5010147E-10  0.0000000E+00  0.4454214E-08
 -0.4503035E-02  0.0000000E+00 -0.5050505E-02 -0.4675151E-10  0.0000000E+00  0.4434337E-08
 -0.4345206E-02  0.0000000E+00 -0.5050505E-02 -0.4308320E-10  0.0000000E+00  0.4415843E-08
 -0.4187378E-02  0.0000000E+00 -0.5050505E-02 -0.3904496E-10  0.0000000E+00  0.4398842E-08
 -0.3985156E-02  0.0000000E+00 -0.5050505E-02 -0.3454785E-10  0.0000000E+00  0.4383446E-08
 -0.3669499E-02  0.0000000E+00 -0.5050505E-02 -0.2944049E-10  0.0000000E+00  0.4369774E-08
 -0.3353842E-02  0.0000000E+00 -0.5050505E-02 -0.2346842E-10  0.0000000E+00  0.4357930E-08
 -0.2978990E-02  0.0000000E+00 -0.5050505E-02 -0.1620887E-10  0.0000000E+00  0.4347949E-08
 -0.2347676E-02  0.0000000E+00 -0.5050505E-02 -0.6962920E-11  0.0000000E+00  0.4339608E-08
 -0.1716362E-02  0.0000000E+00 -0.5050505E-02  0.5493009E-11  0.0000000E+00  0.4332038E-08
 -0.1025842E-02  0.0000000E+00 -0.5050505E-02  0.2374059E-10  0.0000000E+00  0.4322685E-08
  0.2367855E-03  0.0000000E+00 -0.5050505E-02  0.5040977E-10  0.0000000E+00  0.4304451E-08
  0.1499413E-02  0.0000000E+00 -0.5050505E-02  0.8463058E-10  0.0000000E+00  0.4261626E-08
  0.5287294E-02  0.0000000E+00 -0.5050505E-02  0.9616364E-10  0.0000000E+00  0.4178457E-08
 -0.5050505E-02  0.0000000E+00 -0.5050505E-02  0.2258006E-11  0.0000000E+00  0.4395253E-08
 -0.5050505E-02  0.0000000E+00 -0.5050505E-02  0.7789918E-11  0.0000000E+00  0.4396825E-08
 -0.5050505E-02  0.0000000E+00 -0.5050505E-02  0.1393667E-10  0.0000000E+00  0.4400103E-08
 -0.5050505E-02  0.0000000E+00 -0.5050505E-02  0.1988248E-10  0.0000000E+00  0.4405134E-08
 -0.5050505E-02  0.0000000E+00 -0.5050505E-02  0.2564406E-10  0.0000000E+00  0.4411878E-08
 -0.5050505E-02  0.0000000E+00 -0.5050505E-02  0.3123758E-10  0.0000000E+00  0.4420292E-08
 -0.5050504E-02  0.0000000E+00 -0.5050505E-02  0.3667211E-10  0.0000000E+00  0.4430333E-08
 -0.5050501E-02  0.0000000E+00 -0.5050505E-02  0.4194361E-10  0.0000000E+00  0.4441956E-08
 -0.5050495E-02  0.0000000E+00 -0.5050505E-02  0.4704015E-10  0.0000000E+00  0.4455110E-08
 -0.5050482E-02  0.0000000E+00 -0.5050505E-02  0.5194674E-10  0.0000000E+00  0.4469742E-08
 -0.5050449E-02  0.0000000E+00 -0.5050505E-02  0.5664507E-10  0.0000000E+00  0.4485795E-08
 -0.5050376E-02  0.0000000E+00 -0.5050505E-02  0.6111748E-10  0.0000000E+00  0.4503202E-08
 -0.5050299E-02  0.0000000E+00 -0.5050505E-02  0.6534645E-10  0.0000000E+00  0.4521897E-08
 -0.5050178E-02  0.0000000E+00 -0.5050505E-02  0.6931453E-10  0.0000000E+00  0.4541803E-08
 -0.5050018E-02  0.0000000E+00 -0.5050505E-02  0.7300563E-10  0.0000000E+00  0.4562843E-08
 -0.5049710E-02  0.0000000E+00 -0.5050505E-02  0.7640451E-10  0.0000000E+00  0.4584931E-08
 -0.5049253E-02  0.0000000E+00 -0.5050505E-02  0.7949670E-10  0.0000000E+00  0.4607979E-08
 -0.5048636E-02  0.0000000E+00 -0.5050505E-02  0.8226907E-10  0.0000000E+00  0.4631896E-08
 -0.5047442E-02  0.0000000E+00 -0.5050505E-02  0.8470954E-10  0.0000000E+00  0.4656584E-08
 -0.5045727E-02  0.0000000E+00 -0.5050505E-02  0.8680736E-10  0.0000000E+00  0.4681944E-08
 -0.5043261E-02  0.0000000E+00 -0.5050505E-02  0.8855302E-10  0.0000000E+00  0.4707874E-08
 -0.5038714E-02  0.0000000E+00 -0.5050505E-02  0.8993831E-10  0.0000000E+00  0.4734268E-08
 -0.5032318E-02  0.0000000E+00 -0.5050505E-02  0.9095647E-10  0.0000000E+00  0.4761019E-08
 -0.5022454E-02  0.0000000E+00 -0.5050505E-02  0.9160215E-10  0.0000000E+00  0.4788018E-08
 -0.5012589E-02  0.0000000E+00 -0.5050505E-02  0.9187154E-10  0.0000000E+00  0.4815153E-08
 -0.5002725E-02  0.0000000E+00 -0.5050505E-02  0.9176215E-10  0.0000000E+00  0.4842313E-08
 -0.4992860E-02  0.0000000E+00 -0.5050505E-02  0.9127324E-10  0.0000000E+00  0.4869386E-08
 -0.4976523E-02  0.0000000E+00 -0.5050505E-02  0.9040551E-10  0.0000000E+00  0.4896260E-08
 -0.4956794E-02  0.0000000E+00 -0.5050505E-02  0.8916124E-10  0.0000000E+00  0.4922823E-08
 -0.4937066E-02  0.0000000E+00 -0.5050505E-02  0.8754429E-10  0.0000000E+00  0.4948964E-08