title = "dataset feddes"
variables = "x", "y", "z", "vx", "vy", "vz"
zone t = "velocities, solution time =  3.300E+01 days        " i =   99, j =   99, k =    1,  f=point
 -0.5050505E-02  0.0000000E+00 -0.5050505E-02  0.1260227E-11  0.0000000E+00  0.2318464E-07
 -0.5050505E-02  0.0000000E+00 -0.5050505E-02  0.4302327E-11  0.0000000E+00  0.2319024E-07
 -0.5050505E-02  0.0000000E+00 -0.5050505E-02  0.7480011E-11  0.0000000E+00  0.2320209E-07
 -0.5050505E-02  0.0000000E+00 -0.5050505E-02  0.1054914E-10  0.0000000E+00  0.2322022E-07
 -0.5050505E-02  0.0000000E+00 -0.5050505E-02  0.1353829E-10  0.0000000E+00  0.2324444E-07
 -0.5050505E-02  0.0000000E+00 -0.5050505E-02  0.1645511E-10  0.0000000E+00  0.2327461E-07
 -0.5050504E-02  0.0000000E+00 -0.5050505E-02  0.1929845E-10  0.0000000E+00  0.2331056E-07
 -0.5050501E-02  0.0000000E+00 -0.5050505E-02  0.2206188E-10  0.0000000E+00  0.2335216E-07
 -0.5050495E-02  0.0000000E+00 -0.5050505E-02  0.2473674E-10  0.0000000E+00  0.2339922E-07
 -0.5050482E-02  0.0000000E+00 -0.5050505E-02  0.2731342E-10  0.0000000E+00  0.2345156E-07
 -0.5050449E-02  0.0000000E+00 -0.5050505E-02  0.2978199E-10  0.0000000E+00  0.2350898E-07
 -0.5050376E-02  0.0000000E+00 -0.5050505E-02  0.3213280E-10  0.0000000E+00  0.2357125E-07
 -0.5050299E-02  0.0000000E+00 -0.5050505E-02  0.3435633E-10  0.0000000E+00  0.2363811E-07
 -0.5050178E-02  0.0000000E+00 -0.5050505E-02  0.3644351E-10  0.0000000E+00  0.2370932E-07
 -0.5050018E-02  0.0000000E+00 -0.5050505E-02  0.3838578E-10  0.0000000E+00  0.2378457E-07
 -0.5049710E-02  0.0000000E+00 -0.5050505E-02  0.4017494E-10  0.0000000E+00  0.2386357E-07
 -0.5049253E-02  0.0000000E+00 -0.5050505E-02  0.4180341E-10  0.0000000E+00  0.2394602E-07
 -0.5048636E-02  0.0000000E+00 -0.5050505E-02  0.4326418E-10  0.0000000E+00  0.2403157E-07
 -0.5047442E-02  0.0000000E+00 -0.5050505E-02  0.4455080E-10  0.0000000E+00  0.2411988E-07
 -0.5045727E-02  0.0000000E+00 -0.5050505E-02  0.4565749E-10  0.0000000E+00  0.2421060E-07
 -0.5043261E-02  0.0000000E+00 -0.5050505E-02  0.4657915E-10  0.0000000E+00  0.2430336E-07
 -0.5038714E-02  0.0000000E+00 -0.5050505E-02  0.4731135E-10  0.0000000E+00  0.2439778E-07
 -0.5032318E-02  0.0000000E+00 -0.5050505E-02  0.4785042E-10  0.0000000E+00  0.2449348E-07
 -0.5022454E-02  0.0000000E+00 -0.5050505E-02  0.4819340E-10  0.0000000E+00  0.2459007E-07
 -0.5012589E-02  0.0000000E+00 -0.5050505E-02  0.4833814E-10  0.0000000E+00  0.2468714E-07
 -0.5002725E-02  0.0000000E+00 -0.5050505E-02  0.4828328E-10  0.0000000E+00  0.2478431E-07
 -0.4992860E-02  0.0000000E+00 -0.5050505E-02  0.4802825E-10  0.0000000E+00  0.2488117E-07
 -0.4976523E-02  0.0000000E+00 -0.5050505E-02  0.4757333E-10  0.0000000E+00  0.2497731E-07
 -0.4956794E-02  0.0000000E+00 -0.5050505E-02  0.4691959E-10  0.0000000E+00  0.2507234E-07
 -0.4937066E-02  0.0000000E+00 -0.5050505E-02  0.4606898E-10  0.0000000E+00  0.2516585E-07
 -0.4906239E-02  0.0000000E+00 -0.5050505E-02  0.4502428E-10  0.0000000E+00  0.2525746E-07
 -0.4866782E-02  0.0000000E+00 -0.5050505E-02  0.4378910E-10  0.0000000E+00  0.2534678E-07
 -0.4827325E-02  0.0000000E+00 -0.5050505E-02  0.4236787E-10  0.0000000E+00  0.2543342E-07
 -0.4769372E-02  0.0000000E+00 -0.5050505E-02  0.4076587E-10  0.0000000E+00  0.2551703E-07
 -0.4690458E-02  0.0000000E+00 -0.5050505E-02  0.3898916E-10  0.0000000E+00  0.2559724E-07
 -0.4611543E-02  0.0000000E+00 -0.5050505E-02  0.3704459E-10  0.0000000E+00  0.2567370E-07
 -0.4503035E-02  0.0000000E+00 -0.5050505E-02  0.3493976E-10  0.0000000E+00  0.2574609E-07
 -0.4345206E-02  0.0000000E+00 -0.5050505E-02  0.3268298E-10  0.0000000E+00  0.2581410E-07
 -0.4187378E-02  0.0000000E+00 -0.5050505E-02  0.3028322E-10  0.0000000E+00  0.2587742E-07
 -0.3985156E-02  0.0000000E+00 -0.5050505E-02  0.2775003E-10  0.0000000E+00  0.2593578E-07
 -0.3669499E-02  0.0000000E+00 -0.5050505E-02  0.2509342E-10  0.0000000E+00  0.2598892E-07
 -0.3353842E-02  0.0000000E+00 -0.5050505E-02  0.2232380E-10  0.0000000E+00  0.2603661E-07
 -0.2978990E-02  0.0000000E+00 -0.5050505E-02  0.1945171E-10  0.0000000E+00  0.2607862E-07
 -0.2347676E-02  0.0000000E+00 -0.5050505E-02  0.1648780E-10  0.0000000E+00  0.2611477E-07
 -0.1716362E-02  0.0000000E+00 -0.5050505E-02  0.1344281E-10  0.0000000E+00  0.2614487E-07
 -0.1025842E-02  0.0000000E+00 -0.5050505E-02  0.1032804E-10  0.0000000E+00  0.2616877E-07
  0.2367855E-03  0.0000000E+00 -0.5050505E-02  0.7156599E-11  0.0000000E+00  0.2618635E-07
  0.1499413E-02  0.0000000E+00 -0.5050505E-02  0.3944928E-11  0.0000000E+00  0.2619752E-07
  0.2762042E-02  0.0000000E+00 -0.5050505E-02  0.7121284E-12  0.0000000E+00  0.2620220E-07
 -0.5050505E-02  0.0000000E+00 -0.5050505E-02 -0.2464085E-11  0.0000000E+00  0.2620044E-07
 -0.5050505E-02  0.0000000E+00 -0.5050505E-02 -0.5609393E-11  0.0000000E+00  0.2619232E-07
 -0.5050505E-02  0.0000000E+00 -0.5050505E-02 -0.8872281E-11  0.0000000E+00  0.2617776E-07
 -0.5050505E-02  0.0000000E+00 -0.5050505E-02 -0.1208720E-10  0.0000000E+00  0.2615668E-07
 -0.5050505E-02  0.0000000E+00 -0.5050505E-02 -0.1523180E-10  0.0000000E+00  0.2612921E-07
 -0.5050505E-02  0.0000000E+00 -0.5050505E-02 -0.1830350E-10  0.0000000E+00  0.2609548E-07
 -0.5050505E-02  0.0000000E+00 -0.5050505E-02 -0.2129730E-10  0.0000000E+00  0.2605566E-07
 -0.5050504E-02  0.0000000E+00 -0.5050505E-02 -0.2420472E-10  0.0000000E+00  0.2600990E-07
 -0.5050501E-02  0.0000000E+00 -0.5050505E-02 -0.2701532E-10  0.0000000E+00  0.2595839E-07
 -0.5050495E-02  0.0000000E+00 -0.5050505E-02 -0.2971814E-10  0.0000000E+00  0.2590133E-07
 -0.5050482E-02  0.0000000E+00 -0.5050505E-02 -0.3230217E-10  0.0000000E+00  0.2583896E-07
 -0.5050449E-02  0.0000000E+00 -0.5050505E-02 -0.3475680E-10  0.0000000E+00  0.2577152E-07
 -0.5050376E-02  0.0000000E+00 -0.5050505E-02 -0.3707195E-10  0.0000000E+00  0.2569929E-07
 -0.5050299E-02  0.0000000E+00 -0.5050505E-02 -0.3923814E-10  0.0000000E+00  0.2562254E-07
 -0.5050178E-02  0.0000000E+00 -0.5050505E-02 -0.4124651E-10  0.0000000E+00  0.2554160E-07
 -0.5050018E-02  0.0000000E+00 -0.5050505E-02 -0.4308894E-10  0.0000000E+00  0.2545679E-07
 -0.5049710E-02  0.0000000E+00 -0.5050505E-02 -0.4475801E-10  0.0000000E+00  0.2536845E-07
 -0.5049253E-02  0.0000000E+00 -0.5050505E-02 -0.4624707E-10  0.0000000E+00  0.2527693E-07
 -0.5048636E-02  0.0000000E+00 -0.5050505E-02 -0.4755018E-10  0.0000000E+00  0.2518260E-07
 -0.5047442E-02  0.0000000E+00 -0.5050505E-02 -0.4866222E-10  0.0000000E+00  0.2508584E-07
 -0.5045727E-02  0.0000000E+00 -0.5050505E-02 -0.4957881E-10  0.0000000E+00  0.2498704E-07
 -0.5043261E-02  0.0000000E+00 -0.5050505E-02 -0.5029632E-10  0.0000000E+00  0.2488660E-07
 -0.5038714E-02  0.0000000E+00 -0.5050505E-02 -0.5081192E-10  0.0000000E+00  0.2478492E-07
 -0.5032318E-02  0.0000000E+00 -0.5050505E-02 -0.5112346E-10  0.0000000E+00  0.2468241E-07
 -0.5022454E-02  0.0000000E+00 -0.5050505E-02 -0.5122951E-10  0.0000000E+00  0.2457948E-07
 -0.5012589E-02  0.0000000E+00 -0.5050505E-02 -0.5112927E-10  0.0000000E+00  0.2447654E-07
 -0.5002725E-02  0.0000000E+00 -0.5050505E-02 -0.5082253E-10  0.0000000E+00  0.2437401E-07
 -0.4992860E-02  0.0000000E+00 -0.5050505E-02 -0.5030957E-10  0.0000000E+00  0.2427230E-07
 -0.4976523E-02  0.0000000E+00 -0.5050505E-02 -0.4959104E-10  0.0000000E+00  0.2417184E-07
 -0.4956794E-02  0.0000000E+00 -0.5050505E-02 -0.4866781E-10  0.0000000E+00  0.2407302E-07
 -0.4937066E-02  0.0000000E+00 -0.5050505E-02 -0.4754070E-10  0.0000000E+00  0.2397627E-07
 -0.4906239E-02  0.0000000E+00 -0.5050505E-02 -0.4621023E-10  0.0000000E+00  0.2388199E-07
 -0.4866782E-02  0.0000000E+00 -0.5050505E-02 -0.4467603E-10  0.0000000E+00  0.2379059E-07
 -0.4827325E-02  0.0000000E+00 -0.5050505E-02 -0.4293627E-10  0.0000000E+00  0.2370248E-07
 -0.4769372E-02  0.0000000E+00 -0.5050505E-02 -0.4098644E-10  0.0000000E+00  0.2361808E-07
 -0.4690458E-02  0.0000000E+00 -0.5050505E-02 -0.3881777E-10  0.0000000E+00  0.2353783E-07
 -0.4611543E-02  0.0000000E+00 -0.5050505E-02 -0.3641429E-10  0.0000000E+00  0.2346217E-07
 -0.4503035E-02  0.0000000E+00 -0.5050505E-02 -0.3374831E-10  0.0000000E+00  0.2339161E-07
 -0.4345206E-02  0.0000000E+00 -0.5050505E-02 -0.3077217E-10  0.0000000E+00  0.2332672E-07
 -0.4187378E-02  0.0000000E+00 -0.5050505E-02 -0.2740361E-10  0.0000000E+00  0.2326822E-07
 -0.3985156E-02  0.0000000E+00 -0.5050505E-02 -0.2349809E-10  0.0000000E+00  0.2321703E-07
 -0.3669499E-02  0.0000000E+00 -0.5050505E-02 -0.1879304E-10  0.0000000E+00  0.2317450E-07
 -0.3353842E-02  0.0000000E+00 -0.5050505E-02 -0.1278780E-10  0.0000000E+00  0.2314274E-07
 -0.2978990E-02  0.0000000E+00 -0.5050505E-02 -0.4460779E-11  0.0000000E+00  0.2312539E-07
 -0.2347676E-02  0.0000000E+00 -0.5050505E-02  0.8394041E-11  0.0000000E+00  0.2312935E-07
 -0.1716362E-02  0.0000000E+00 -0.5050505E-02  0.3125295E-10  0.0000000E+00  0.2316922E-07
 -0.1025842E-02  0.0000000E+00 -0.5050505E-02  0.7873003E-10  0.0000000E+00  0.2327982E-07
  0.2367855E-03  0.0000000E+00 -0.5050505E-02  0.1943773E-09  0.0000000E+00  0.2355448E-07
  0.1499413E-02  0.0000000E+00 -0.5050505E-02  0.5218250E-09  0.0000000E+00  0.2427473E-07
  0.5287294E-02  0.0000000E+00 -0.5050505E-02  0.8574504E-08  0.0000000E+00  0.1939694E-07
 -0.5050505E-02  0.0000000E+00 -0.5050505E-02  0.3914446E-11  0.0000000E+00  0.2320727E-07
 -0.5050505E-02  0.0000000E+00 -0.5050505E-02  0.1298886E-10  0.0000000E+00  0.2321311E-07
 -0.5050505E-02  0.0000000E+00 -0.5050505E-02  0.2246955E-10  0.0000000E+00  0.2322514E-07
 -0.5050505E-02  0.0000000E+00 -0.5050505E-02  0.3165456E-10  0.0000000E+00  0.2324341E-07
 -0.5050505E-02  0.0000000E+00 -0.5050505E-02  0.4061483E-10  0.0000000E+00  0.2326777E-07
 -0.5050505E-02  0.0000000E+00 -0.5050505E-02  0.4936316E-10  0.0000000E+00  0.2329810E-07
 -0.5050504E-02  0.0000000E+00 -0.5050505E-02  0.5789235E-10  0.0000000E+00  0.2333426E-07
 -0.5050501E-02  0.0000000E+00 -0.5050505E-02  0.6618217E-10  0.0000000E+00  0.2337608E-07
 -0.5050495E-02  0.0000000E+00 -0.5050505E-02  0.7420633E-10  0.0000000E+00  0.2342340E-07
 -0.5050482E-02  0.0000000E+00 -0.5050505E-02  0.8193608E-10  0.0000000E+00  0.2347603E-07
 -0.5050449E-02  0.0000000E+00 -0.5050505E-02  0.8934159E-10  0.0000000E+00  0.2353376E-07
 -0.5050376E-02  0.0000000E+00 -0.5050505E-02  0.9639386E-10  0.0000000E+00  0.2359636E-07
 -0.5050299E-02  0.0000000E+00 -0.5050505E-02  0.1030645E-09  0.0000000E+00  0.2366360E-07
 -0.5050178E-02  0.0000000E+00 -0.5050505E-02  0.1093261E-09  0.0000000E+00  0.2373519E-07
 -0.5050018E-02  0.0000000E+00 -0.5050505E-02  0.1151531E-09  0.0000000E+00  0.2381085E-07
 -0.5049710E-02  0.0000000E+00 -0.5050505E-02  0.1205209E-09  0.0000000E+00  0.2389029E-07
 -0.5049253E-02  0.0000000E+00 -0.5050505E-02  0.1254067E-09  0.0000000E+00  0.2397319E-07
 -0.5048636E-02  0.0000000E+00 -0.5050505E-02  0.1297895E-09  0.0000000E+00  0.2405921E-07
 -0.5047442E-02  0.0000000E+00 -0.5050505E-02  0.1336499E-09  0.0000000E+00  0.2414802E-07
 -0.5045727E-02  0.0000000E+00 -0.5050505E-02  0.1369706E-09  0.0000000E+00  0.2423924E-07
 -0.5043261E-02  0.0000000E+00 -0.5050505E-02  0.1397362E-09  0.0000000E+00  0.2433251E-07
 -0.5038714E-02  0.0000000E+00 -0.5050505E-02  0.1419336E-09  0.0000000E+00  0.2442746E-07
 -0.5032318E-02  0.0000000E+00 -0.5050505E-02  0.1435515E-09  0.0000000E+00  0.2452370E-07
 -0.5022454E-02  0.0000000E+00 -0.5050505E-02  0.1445813E-09  0.0000000E+00  0.2462083E-07
 -0.5012589E-02  0.0000000E+00 -0.5050505E-02  0.1450164E-09  0.0000000E+00  0.2471846E-07
 -0.5002725E-02  0.0000000E+00 -0.5050505E-02  0.1448526E-09  0.0000000E+00  0.2481618E-07
 -0.4992860E-02  0.0000000E+00 -0.5050505E-02  0.1440884E-09  0.0000000E+00  0.2491358E-07
 -0.4976523E-02  0.0000000E+00 -0.5050505E-02  0.1427244E-09  0.0000000E+00  0.2501027E-07
 -0.4956794E-02  0.0000000E+00 -0.5050505E-02  0.1407640E-09  0.0000000E+00  0.2510584E-07
 -0.4937066E-02  0.0000000E+00 -0.5050505E-02  0.1382129E-09  0.0000000E+00  0.2519989E-07
 -0.4906239E-02  0.0000000E+00 -0.5050505E-02  0.1350795E-09  0.0000000E+00  0.2529203E-07
 -0.4866782E-02  0.0000000E+00 -0.5050505E-02  0.1313746E-09  0.0000000E+00  0.2538186E-07
 -0.4827325E-02  0.0000000E+00 -0.5050505E-02  0.1271115E-09  0.0000000E+00  0.2546901E-07
 -0.4769372E-02  0.0000000E+00 -0.5050505E-02  0.1223061E-09  0.0000000E+00  0.2555310E-07
 -0.4690458E-02  0.0000000E+00 -0.5050505E-02  0.1169764E-09  0.0000000E+00  0.2563377E-07
 -0.4611543E-02  0.0000000E+00 -0.5050505E-02  0.1111431E-09  0.0000000E+00  0.2571068E-07
 -0.4503035E-02  0.0000000E+00 -0.5050505E-02  0.1048289E-09  0.0000000E+00  0.2578350E-07
 -0.4345206E-02  0.0000000E+00 -0.5050505E-02  0.9805882E-10  0.0000000E+00  0.2585191E-07
 -0.4187378E-02  0.0000000E+00 -0.5050505E-02  0.9085976E-10  0.0000000E+00  0.2591560E-07
 -0.3985156E-02  0.0000000E+00 -0.5050505E-02  0.8326037E-10  0.0000000E+00  0.2597431E-07
 -0.3669499E-02  0.0000000E+00 -0.5050505E-02  0.7529079E-10  0.0000000E+00  0.2602777E-07
 -0.3353842E-02  0.0000000E+00 -0.5050505E-02  0.6698215E-10  0.0000000E+00  0.2607575E-07
 -0.2978990E-02  0.0000000E+00 -0.5050505E-02  0.5836606E-10  0.0000000E+00  0.2611802E-07
 -0.2347676E-02  0.0000000E+00 -0.5050505E-02  0.4947416E-10  0.0000000E+00  0.2615439E-07
 -0.1716362E-02  0.0000000E+00 -0.5050505E-02  0.4033805E-10  0.0000000E+00  0.2618468E-07
 -0.1025842E-02  0.0000000E+00 -0.5050505E-02  0.3099077E-10  0.0000000E+00  0.2620873E-07
  0.2367855E-03  0.0000000E+00 -0.5050505E-02  0.2147170E-10  0.0000000E+00  0.2622642E-07
  0.1499413E-02  0.0000000E+00 -0.5050505E-02  0.1183660E-10  0.0000000E+00  0.2623765E-07
  0.2762042E-02  0.0000000E+00 -0.5050505E-02  0.2169634E-11  0.0000000E+00  0.2624240E-07
 -0.5050505E-02  0.0000000E+00 -0.5050505E-02 -0.7382373E-11  0.0000000E+00  0.2624067E-07
 -0.5050505E-02  0.0000000E+00 -0.5050505E-02 -0.1684731E-10  0.0000000E+00  0.2623250E-07
 -0.5050505E-02  0.0000000E+00 -0.5050505E-02 -0.2661662E-10  0.0000000E+00  0.2621783E-07
 -0.5050505E-02  0.0000000E+00 -0.5050505E-02 -0.3625370E-10  0.0000000E+00  0.2619664E-07
 -0.5050505E-02  0.0000000E+00 -0.5050505E-02 -0.4568713E-10  0.0000000E+00  0.2616903E-07
 -0.5050505E-02  0.0000000E+00 -0.5050505E-02 -0.5490367E-10  0.0000000E+00  0.2613513E-07
 -0.5050505E-02  0.0000000E+00 -0.5050505E-02 -0.6388647E-10  0.0000000E+00  0.2609510E-07
 -0.5050504E-02  0.0000000E+00 -0.5050505E-02 -0.7260963E-10  0.0000000E+00  0.2604909E-07
 -0.5050501E-02  0.0000000E+00 -0.5050505E-02 -0.8104205E-10  0.0000000E+00  0.2599730E-07
 -0.5050495E-02  0.0000000E+00 -0.5050505E-02 -0.8915086E-10  0.0000000E+00  0.2593993E-07
 -0.5050482E-02  0.0000000E+00 -0.5050505E-02 -0.9690316E-10  0.0000000E+00  0.2587722E-07
 -0.5050449E-02  0.0000000E+00 -0.5050505E-02 -0.1042672E-09  0.0000000E+00  0.2580941E-07
 -0.5050376E-02  0.0000000E+00 -0.5050505E-02 -0.1112127E-09  0.0000000E+00  0.2573677E-07
 -0.5050299E-02  0.0000000E+00 -0.5050505E-02 -0.1177112E-09  0.0000000E+00  0.2565961E-07
 -0.5050178E-02  0.0000000E+00 -0.5050505E-02 -0.1237363E-09  0.0000000E+00  0.2557822E-07
 -0.5050018E-02  0.0000000E+00 -0.5050505E-02 -0.1292635E-09  0.0000000E+00  0.2549294E-07
 -0.5049710E-02  0.0000000E+00 -0.5050505E-02 -0.1342705E-09  0.0000000E+00  0.2540410E-07
 -0.5049253E-02  0.0000000E+00 -0.5050505E-02 -0.1387375E-09  0.0000000E+00  0.2531208E-07
 -0.5048636E-02  0.0000000E+00 -0.5050505E-02 -0.1426467E-09  0.0000000E+00  0.2521723E-07
 -0.5047442E-02  0.0000000E+00 -0.5050505E-02 -0.1459826E-09  0.0000000E+00  0.2511994E-07
 -0.5045727E-02  0.0000000E+00 -0.5050505E-02 -0.1487322E-09  0.0000000E+00  0.2502059E-07
 -0.5043261E-02  0.0000000E+00 -0.5050505E-02 -0.1508847E-09  0.0000000E+00  0.2491960E-07
 -0.5038714E-02  0.0000000E+00 -0.5050505E-02 -0.1524315E-09  0.0000000E+00  0.2481736E-07
 -0.5032318E-02  0.0000000E+00 -0.5050505E-02 -0.1533663E-09  0.0000000E+00  0.2471428E-07
 -0.5022454E-02  0.0000000E+00 -0.5050505E-02 -0.1536848E-09  0.0000000E+00  0.2461078E-07
 -0.5012589E-02  0.0000000E+00 -0.5050505E-02 -0.1533847E-09  0.0000000E+00  0.2450727E-07
 -0.5002725E-02  0.0000000E+00 -0.5050505E-02 -0.1524655E-09  0.0000000E+00  0.2440417E-07
 -0.4992860E-02  0.0000000E+00 -0.5050505E-02 -0.1509280E-09  0.0000000E+00  0.2430190E-07
 -0.4976523E-02  0.0000000E+00 -0.5050505E-02 -0.1487745E-09  0.0000000E+00  0.2420087E-07
 -0.4956794E-02  0.0000000E+00 -0.5050505E-02 -0.1460078E-09  0.0000000E+00  0.2410149E-07
 -0.4937066E-02  0.0000000E+00 -0.5050505E-02 -0.1426306E-09  0.0000000E+00  0.2400418E-07
 -0.4906239E-02  0.0000000E+00 -0.5050505E-02 -0.1386449E-09  0.0000000E+00  0.2390935E-07
 -0.4866782E-02  0.0000000E+00 -0.5050505E-02 -0.1340505E-09  0.0000000E+00  0.2381740E-07
 -0.4827325E-02  0.0000000E+00 -0.5050505E-02 -0.1288427E-09  0.0000000E+00  0.2372874E-07
 -0.4769372E-02  0.0000000E+00 -0.5050505E-02 -0.1230100E-09  0.0000000E+00  0.2364378E-07
 -0.4690458E-02  0.0000000E+00 -0.5050505E-02 -0.1165287E-09  0.0000000E+00  0.2356295E-07
 -0.4611543E-02  0.0000000E+00 -0.5050505E-02 -0.1093556E-09  0.0000000E+00  0.2348668E-07
 -0.4503035E-02  0.0000000E+00 -0.5050505E-02 -0.1014158E-09  0.0000000E+00  0.2341544E-07
 -0.4345206E-02  0.0000000E+00 -0.5050505E-02 -0.9258088E-10  0.0000000E+00  0.2334975E-07
 -0.4187378E-02  0.0000000E+00 -0.5050505E-02 -0.8263191E-10  0.0000000E+00  0.2329023E-07
 -0.3985156E-02  0.0000000E+00 -0.5050505E-02 -0.7119106E-10  0.0000000E+00  0.2323763E-07
 -0.3669499E-02  0.0000000E+00 -0.5050505E-02 -0.5759202E-10  0.0000000E+00  0.2319294E-07
 -0.3353842E-02  0.0000000E+00 -0.5050505E-02 -0.4061969E-10  0.0000000E+00  0.2315751E-07
 -0.2978990E-02  0.0000000E+00 -0.5050505E-02 -0.1794629E-10  0.0000000E+00  0.2313321E-07
 -0.2347676E-02  0.0000000E+00 -0.5050505E-02  0.1516221E-10  0.0000000E+00  0.2312252E-07
 -0.1716362E-02  0.0000000E+00 -0.5050505E-02  0.6919979E-10  0.0000000E+00  0.2312784E-07
 -0.1025842E-02  0.0000000E+00 -0.5050505E-02  0.1681344E-09  0.0000000E+00  0.2314593E-07
  0.2367855E-03  0.0000000E+00 -0.5050505E-02  0.3716552E-09  0.0000000E+00  0.2314101E-07
  0.1499413E-02  0.0000000E+00 -0.5050505E-02  0.8350517E-09  0.0000000E+00  0.2291808E-07
  0.5287294E-02  0.0000000E+00 -0.5050505E-02  0.1983561E-08  0.0000000E+00  0.2153411E-07
 -0.5050505E-02  0.0000000E+00 -0.5050505E-02  0.6766509E-11  0.0000000E+00  0.2325329E-07
 -0.5050505E-02  0.0000000E+00 -0.5050505E-02  0.2184114E-10  0.0000000E+00  0.2325932E-07
 -0.5050505E-02  0.0000000E+00 -0.5050505E-02  0.3755628E-10  0.0000000E+00  0.2327156E-07
 -0.5050505E-02  0.0000000E+00 -0.5050505E-02  0.5283553E-10  0.0000000E+00  0.2329007E-07
 -0.5050505E-02  0.0000000E+00 -0.5050505E-02  0.6776867E-10  0.0000000E+00  0.2331472E-07
 -0.5050505E-02  0.0000000E+00 -0.5050505E-02  0.8235909E-10  0.0000000E+00  0.2334539E-07
 -0.5050504E-02  0.0000000E+00 -0.5050505E-02  0.9658727E-10  0.0000000E+00  0.2338194E-07
 -0.5050501E-02  0.0000000E+00 -0.5050505E-02  0.1104173E-09  0.0000000E+00  0.2342421E-07
 -0.5050495E-02  0.0000000E+00 -0.5050505E-02  0.1238045E-09  0.0000000E+00  0.2347205E-07
 -0.5050482E-02  0.0000000E+00 -0.5050505E-02  0.1367009E-09  0.0000000E+00  0.2352525E-07
 -0.5050449E-02  0.0000000E+00 -0.5050505E-02  0.1490566E-09  0.0000000E+00  0.2358361E-07
 -0.5050376E-02  0.0000000E+00 -0.5050505E-02  0.1608233E-09  0.0000000E+00  0.2364690E-07
 -0.5050299E-02  0.0000000E+00 -0.5050505E-02  0.1719536E-09  0.0000000E+00  0.2371487E-07
 -0.5050178E-02  0.0000000E+00 -0.5050505E-02  0.1824018E-09  0.0000000E+00  0.2378724E-07
 -0.5050018E-02  0.0000000E+00 -0.5050505E-02  0.1921251E-09  0.0000000E+00  0.2386374E-07
 -0.5049710E-02  0.0000000E+00 -0.5050505E-02  0.2010825E-09  0.0000000E+00  0.2394405E-07
 -0.5049253E-02  0.0000000E+00 -0.5050505E-02  0.2092360E-09  0.0000000E+00  0.2402786E-07
 -0.5048636E-02  0.0000000E+00 -0.5050505E-02  0.2165505E-09  0.0000000E+00  0.2411483E-07
 -0.5047442E-02  0.0000000E+00 -0.5050505E-02  0.2229936E-09  0.0000000E+00  0.2420461E-07
 -0.5045727E-02  0.0000000E+00 -0.5050505E-02  0.2285364E-09  0.0000000E+00  0.2429685E-07
 -0.5043261E-02  0.0000000E+00 -0.5050505E-02  0.2331533E-09  0.0000000E+00  0.2439116E-07
 -0.5038714E-02  0.0000000E+00 -0.5050505E-02  0.2368221E-09  0.0000000E+00  0.2448717E-07
 -0.5032318E-02  0.0000000E+00 -0.5050505E-02  0.2395243E-09  0.0000000E+00  0.2458448E-07
 -0.5022454E-02  0.0000000E+00 -0.5050505E-02  0.2412452E-09  0.0000000E+00  0.2468270E-07
 -0.5012589E-02  0.0000000E+00 -0.5050505E-02  0.2419738E-09  0.0000000E+00  0.2478142E-07
 -0.5002725E-02  0.0000000E+00 -0.5050505E-02  0.2417034E-09  0.0000000E+00  0.2488025E-07
 -0.4992860E-02  0.0000000E+00 -0.5050505E-02  0.2404310E-09  0.0000000E+00  0.2497875E-07
 -0.4976523E-02  0.0000000E+00 -0.5050505E-02  0.2381578E-09  0.0000000E+00  0.2507654E-07
 -0.4956794E-02  0.0000000E+00 -0.5050505E-02  0.2348894E-09  0.0000000E+00  0.2517320E-07
 -0.4937066E-02  0.0000000E+00 -0.5050505E-02  0.2306354E-09  0.0000000E+00  0.2526832E-07
 -0.4906239E-02  0.0000000E+00 -0.5050505E-02  0.2254095E-09  0.0000000E+00  0.2536151E-07
 -0.4866782E-02  0.0000000E+00 -0.5050505E-02  0.2192298E-09  0.0000000E+00  0.2545238E-07
 -0.4827325E-02  0.0000000E+00 -0.5050505E-02  0.2121187E-09  0.0000000E+00  0.2554053E-07
 -0.4769372E-02  0.0000000E+00 -0.5050505E-02  0.2041022E-09  0.0000000E+00  0.2562559E-07
 -0.4690458E-02  0.0000000E+00 -0.5050505E-02  0.1952109E-09  0.0000000E+00  0.2570720E-07
 -0.4611543E-02  0.0000000E+00 -0.5050505E-02  0.1854789E-09  0.0000000E+00  0.2578501E-07
 -0.4503035E-02  0.0000000E+00 -0.5050505E-02  0.1749444E-09  0.0000000E+00  0.2585868E-07
 -0.4345206E-02  0.0000000E+00 -0.5050505E-02  0.1636489E-09  0.0000000E+00  0.2592789E-07
 -0.4187378E-02  0.0000000E+00 -0.5050505E-02  0.1516374E-09  0.0000000E+00  0.2599234E-07
 -0.3985156E-02  0.0000000E+00 -0.5050505E-02  0.1389579E-09  0.0000000E+00  0.2605174E-07
 -0.3669499E-02  0.0000000E+00 -0.5050505E-02  0.1256607E-09  0.0000000E+00  0.2610584E-07
 -0.3353842E-02  0.0000000E+00 -0.5050505E-02  0.1117977E-09  0.0000000E+00  0.2615440E-07
 -0.2978990E-02  0.0000000E+00 -0.5050505E-02  0.9742161E-10  0.0000000E+00  0.2619718E-07
 -0.2347676E-02  0.0000000E+00 -0.5050505E-02  0.8258482E-10  0.0000000E+00  0.2623399E-07
 -0.1716362E-02  0.0000000E+00 -0.5050505E-02  0.6733871E-10  0.0000000E+00  0.2626466E-07
 -0.1025842E-02  0.0000000E+00 -0.5050505E-02  0.5173622E-10  0.0000000E+00  0.2628902E-07
  0.2367855E-03  0.0000000E+00 -0.5050505E-02  0.3584184E-10  0.0000000E+00  0.2630694E-07
  0.1499413E-02  0.0000000E+00 -0.5050505E-02  0.1975888E-10  0.0000000E+00  0.2631832E-07
  0.2762042E-02  0.0000000E+00 -0.5050505E-02  0.3685240E-11  0.0000000E+00  0.2632314E-07
 -0.5050505E-02  0.0000000E+00 -0.5050505E-02 -0.1228708E-10  0.0000000E+00  0.2632143E-07
 -0.5050505E-02  0.0000000E+00 -0.5050505E-02 -0.2813370E-10  0.0000000E+00  0.2631319E-07
 -0.5050505E-02  0.0000000E+00 -0.5050505E-02 -0.4440328E-10  0.0000000E+00  0.2629837E-07
 -0.5050505E-02  0.0000000E+00 -0.5050505E-02 -0.6046934E-10  0.0000000E+00  0.2627696E-07
 -0.5050505E-02  0.0000000E+00 -0.5050505E-02 -0.7620867E-10  0.0000000E+00  0.2624907E-07
 -0.5050505E-02  0.0000000E+00 -0.5050505E-02 -0.9159001E-10  0.0000000E+00  0.2621481E-07
 -0.5050505E-02  0.0000000E+00 -0.5050505E-02 -0.1065814E-09  0.0000000E+00  0.2617435E-07
 -0.5050504E-02  0.0000000E+00 -0.5050505E-02 -0.1211388E-09  0.0000000E+00  0.2612784E-07
 -0.5050501E-02  0.0000000E+00 -0.5050505E-02 -0.1352104E-09  0.0000000E+00  0.2607549E-07
 -0.5050495E-02  0.0000000E+00 -0.5050505E-02 -0.1487414E-09  0.0000000E+00  0.2601750E-07
 -0.5050482E-02  0.0000000E+00 -0.5050505E-02 -0.1616773E-09  0.0000000E+00  0.2595409E-07
 -0.5050449E-02  0.0000000E+00 -0.5050505E-02 -0.1739650E-09  0.0000000E+00  0.2588554E-07
 -0.5050376E-02  0.0000000E+00 -0.5050505E-02 -0.1855541E-09  0.0000000E+00  0.2581210E-07
 -0.5050299E-02  0.0000000E+00 -0.5050505E-02 -0.1963971E-09  0.0000000E+00  0.2573409E-07
 -0.5050178E-02  0.0000000E+00 -0.5050505E-02 -0.2064500E-09  0.0000000E+00  0.2565180E-07
 -0.5050018E-02  0.0000000E+00 -0.5050505E-02 -0.2156719E-09  0.0000000E+00  0.2556558E-07
 -0.5049710E-02  0.0000000E+00 -0.5050505E-02 -0.2240259E-09  0.0000000E+00  0.2547576E-07
 -0.5049253E-02  0.0000000E+00 -0.5050505E-02 -0.2314787E-09  0.0000000E+00  0.2538272E-07
 -0.5048636E-02  0.0000000E+00 -0.5050505E-02 -0.2380007E-09  0.0000000E+00  0.2528683E-07
 -0.5047442E-02  0.0000000E+00 -0.5050505E-02 -0.2435662E-09  0.0000000E+00  0.2518846E-07
 -0.5045727E-02  0.0000000E+00 -0.5050505E-02 -0.2481535E-09  0.0000000E+00  0.2508803E-07
 -0.5043261E-02  0.0000000E+00 -0.5050505E-02 -0.2517448E-09  0.0000000E+00  0.2498592E-07
 -0.5038714E-02  0.0000000E+00 -0.5050505E-02 -0.2543257E-09  0.0000000E+00  0.2488255E-07
 -0.5032318E-02  0.0000000E+00 -0.5050505E-02 -0.2558859E-09  0.0000000E+00  0.2477834E-07
 -0.5022454E-02  0.0000000E+00 -0.5050505E-02 -0.2564184E-09  0.0000000E+00  0.2467369E-07
 -0.5012589E-02  0.0000000E+00 -0.5050505E-02 -0.2559197E-09  0.0000000E+00  0.2456904E-07
 -0.5002725E-02  0.0000000E+00 -0.5050505E-02 -0.2543890E-09  0.0000000E+00  0.2446480E-07
 -0.4992860E-02  0.0000000E+00 -0.5050505E-02 -0.2518283E-09  0.0000000E+00  0.2436139E-07
 -0.4976523E-02  0.0000000E+00 -0.5050505E-02 -0.2482418E-09  0.0000000E+00  0.2425923E-07
 -0.4956794E-02  0.0000000E+00 -0.5050505E-02 -0.2436347E-09  0.0000000E+00  0.2415874E-07
 -0.4937066E-02  0.0000000E+00 -0.5050505E-02 -0.2380129E-09  0.0000000E+00  0.2406032E-07
 -0.4906239E-02  0.0000000E+00 -0.5050505E-02 -0.2313811E-09  0.0000000E+00  0.2396438E-07
 -0.4866782E-02  0.0000000E+00 -0.5050505E-02 -0.2237410E-09  0.0000000E+00  0.2387134E-07
 -0.4827325E-02  0.0000000E+00 -0.5050505E-02 -0.2150884E-09  0.0000000E+00  0.2378158E-07
 -0.4769372E-02  0.0000000E+00 -0.5050505E-02 -0.2054091E-09  0.0000000E+00  0.2369552E-07
 -0.4690458E-02  0.0000000E+00 -0.5050505E-02 -0.1946721E-09  0.0000000E+00  0.2361355E-07
 -0.4611543E-02  0.0000000E+00 -0.5050505E-02 -0.1828194E-09  0.0000000E+00  0.2353609E-07
 -0.4503035E-02  0.0000000E+00 -0.5050505E-02 -0.1697499E-09  0.0000000E+00  0.2346354E-07
 -0.4345206E-02  0.0000000E+00 -0.5050505E-02 -0.1552920E-09  0.0000000E+00  0.2339635E-07
 -0.4187378E-02  0.0000000E+00 -0.5050505E-02 -0.1391583E-09  0.0000000E+00  0.2333497E-07
 -0.3985156E-02  0.0000000E+00 -0.5050505E-02 -0.1208687E-09  0.0000000E+00  0.2327990E-07
 -0.3669499E-02  0.0000000E+00 -0.5050505E-02 -0.9961929E-10  0.0000000E+00  0.2323164E-07
 -0.3353842E-02  0.0000000E+00 -0.5050505E-02 -0.7405711E-10  0.0000000E+00  0.2319062E-07
 -0.2978990E-02  0.0000000E+00 -0.5050505E-02 -0.4190006E-10  0.0000000E+00  0.2315688E-07
 -0.2347676E-02  0.0000000E+00 -0.5050505E-02  0.1124302E-11  0.0000000E+00  0.2312934E-07
 -0.1716362E-02  0.0000000E+00 -0.5050505E-02  0.6229037E-10  0.0000000E+00  0.2310343E-07
 -0.1025842E-02  0.0000000E+00 -0.5050505E-02  0.1534903E-09  0.0000000E+00  0.2306501E-07
  0.2367855E-03  0.0000000E+00 -0.5050505E-02  0.2900249E-09  0.0000000E+00  0.2297616E-07
  0.1499413E-02  0.0000000E+00 -0.5050505E-02  0.4663265E-09  0.0000000E+00  0.2275300E-07
  0.5287294E-02  0.0000000E+00 -0.5050505E-02  0.5207438E-09  0.0000000E+00  0.2231100E-07
 -0.5050505E-02  0.0000000E+00 -0.5050505E-02  0.9715030E-11  0.0000000E+00  0.2332286E-07
 -0.5050505E-02  0.0000000E+00 -0.5050505E-02  0.3085269E-10  0.0000000E+00  0.2332902E-07
 -0.5050505E-02  0.0000000E+00 -0.5050505E-02  0.5280963E-10  0.0000000E+00  0.2334151E-07
 -0.5050505E-02  0.0000000E+00 -0.5050505E-02  0.7420948E-10  0.0000000E+00  0.2336035E-07
 -0.5050505E-02  0.0000000E+00 -0.5050505E-02  0.9515213E-10  0.0000000E+00  0.2338541E-07
 -0.5050505E-02  0.0000000E+00 -0.5050505E-02  0.1156264E-09  0.0000000E+00  0.2341658E-07
 -0.5050504E-02  0.0000000E+00 -0.5050505E-02  0.1355970E-09  0.0000000E+00  0.2345373E-07
 -0.5050501E-02  0.0000000E+00 -0.5050505E-02  0.1550108E-09  0.0000000E+00  0.2349669E-07
 -0.5050495E-02  0.0000000E+00 -0.5050505E-02  0.1738041E-09  0.0000000E+00  0.2354530E-07
 -0.5050482E-02  0.0000000E+00 -0.5050505E-02  0.1919091E-09  0.0000000E+00  0.2359936E-07
 -0.5050449E-02  0.0000000E+00 -0.5050505E-02  0.2092559E-09  0.0000000E+00  0.2365867E-07
 -0.5050376E-02  0.0000000E+00 -0.5050505E-02  0.2257764E-09  0.0000000E+00  0.2372299E-07
 -0.5050299E-02  0.0000000E+00 -0.5050505E-02  0.2414040E-09  0.0000000E+00  0.2379206E-07
 -0.5050178E-02  0.0000000E+00 -0.5050505E-02  0.2560748E-09  0.0000000E+00  0.2386561E-07
 -0.5050018E-02  0.0000000E+00 -0.5050505E-02  0.2697283E-09  0.0000000E+00  0.2394335E-07
 -0.5049710E-02  0.0000000E+00 -0.5050505E-02  0.2823073E-09  0.0000000E+00  0.2402498E-07
 -0.5049253E-02  0.0000000E+00 -0.5050505E-02  0.2937581E-09  0.0000000E+00  0.2411016E-07
 -0.5048636E-02  0.0000000E+00 -0.5050505E-02  0.3040313E-09  0.0000000E+00  0.2419856E-07
 -0.5047442E-02  0.0000000E+00 -0.5050505E-02  0.3130818E-09  0.0000000E+00  0.2428982E-07
 -0.5045727E-02  0.0000000E+00 -0.5050505E-02  0.3208686E-09  0.0000000E+00  0.2438358E-07
 -0.5043261E-02  0.0000000E+00 -0.5050505E-02  0.3273557E-09  0.0000000E+00  0.2447945E-07
 -0.5038714E-02  0.0000000E+00 -0.5050505E-02  0.3325121E-09  0.0000000E+00  0.2457706E-07
 -0.5032318E-02  0.0000000E+00 -0.5050505E-02  0.3363116E-09  0.0000000E+00  0.2467599E-07
 -0.5022454E-02  0.0000000E+00 -0.5050505E-02  0.3387334E-09  0.0000000E+00  0.2477585E-07
 -0.5012589E-02  0.0000000E+00 -0.5050505E-02  0.3397623E-09  0.0000000E+00  0.2487622E-07
 -0.5002725E-02  0.0000000E+00 -0.5050505E-02  0.3393883E-09  0.0000000E+00  0.2497670E-07
 -0.4992860E-02  0.0000000E+00 -0.5050505E-02  0.3376075E-09  0.0000000E+00  0.2507687E-07
 -0.4976523E-02  0.0000000E+00 -0.5050505E-02  0.3344216E-09  0.0000000E+00  0.2517631E-07
 -0.4956794E-02  0.0000000E+00 -0.5050505E-02  0.3298380E-09  0.0000000E+00  0.2527461E-07
 -0.4937066E-02  0.0000000E+00 -0.5050505E-02  0.3238703E-09  0.0000000E+00  0.2537135E-07