title = "dataset feddes"
variables = "x", "y", "z", "vx", "vy", "vz"
zone t = "velocities, solution time =  3.000E+01 days        " i =   99, j =   99, k =    1,  f=point
 -0.5050505E-02  0.0000000E+00 -0.5050505E-02  0.8374024E-12  0.0000000E+00  0.1445871E-07
 -0.5050505E-02  0.0000000E+00 -0.5050505E-02  0.2768221E-11  0.0000000E+00  0.1446234E-07
 -0.5050505E-02  0.0000000E+00 -0.5050505E-02  0.4746852E-11  0.0000000E+00  0.1446990E-07
 -0.5050505E-02  0.0000000E+00 -0.5050505E-02  0.6667413E-11  0.0000000E+00  0.1448137E-07
 -0.5050505E-02  0.0000000E+00 -0.5050505E-02  0.8544450E-11  0.0000000E+00  0.1449667E-07
 -0.5050505E-02  0.0000000E+00 -0.5050505E-02  0.1037933E-10  0.0000000E+00  0.1451570E-07
 -0.5050504E-02  0.0000000E+00 -0.5050505E-02  0.1216915E-10  0.0000000E+00  0.1453838E-07
 -0.5050501E-02  0.0000000E+00 -0.5050505E-02  0.1390883E-10  0.0000000E+00  0.1456461E-07
 -0.5050495E-02  0.0000000E+00 -0.5050505E-02  0.1559237E-10  0.0000000E+00  0.1459427E-07
 -0.5050482E-02  0.0000000E+00 -0.5050505E-02  0.1721339E-10  0.0000000E+00  0.1462727E-07
 -0.5050449E-02  0.0000000E+00 -0.5050505E-02  0.1876557E-10  0.0000000E+00  0.1466345E-07
 -0.5050376E-02  0.0000000E+00 -0.5050505E-02  0.2024269E-10  0.0000000E+00  0.1470268E-07
 -0.5050299E-02  0.0000000E+00 -0.5050505E-02  0.2163878E-10  0.0000000E+00  0.1474480E-07
 -0.5050178E-02  0.0000000E+00 -0.5050505E-02  0.2294812E-10  0.0000000E+00  0.1478963E-07
 -0.5050018E-02  0.0000000E+00 -0.5050505E-02  0.2416530E-10  0.0000000E+00  0.1483701E-07
 -0.5049710E-02  0.0000000E+00 -0.5050505E-02  0.2528527E-10  0.0000000E+00  0.1488675E-07
 -0.5049253E-02  0.0000000E+00 -0.5050505E-02  0.2630327E-10  0.0000000E+00  0.1493863E-07
 -0.5048636E-02  0.0000000E+00 -0.5050505E-02  0.2721498E-10  0.0000000E+00  0.1499245E-07
 -0.5047442E-02  0.0000000E+00 -0.5050505E-02  0.2801647E-10  0.0000000E+00  0.1504799E-07
 -0.5045727E-02  0.0000000E+00 -0.5050505E-02  0.2870418E-10  0.0000000E+00  0.1510503E-07
 -0.5043261E-02  0.0000000E+00 -0.5050505E-02  0.2927504E-10  0.0000000E+00  0.1516334E-07
 -0.5038714E-02  0.0000000E+00 -0.5050505E-02  0.2972640E-10  0.0000000E+00  0.1522268E-07
 -0.5032318E-02  0.0000000E+00 -0.5050505E-02  0.3005609E-10  0.0000000E+00  0.1528280E-07
 -0.5022454E-02  0.0000000E+00 -0.5050505E-02  0.3026240E-10  0.0000000E+00  0.1534346E-07
 -0.5012589E-02  0.0000000E+00 -0.5050505E-02  0.3034414E-10  0.0000000E+00  0.1540441E-07
 -0.5002725E-02  0.0000000E+00 -0.5050505E-02  0.3030058E-10  0.0000000E+00  0.1546539E-07
 -0.4992860E-02  0.0000000E+00 -0.5050505E-02  0.3013154E-10  0.0000000E+00  0.1552617E-07
 -0.4976523E-02  0.0000000E+00 -0.5050505E-02  0.2983733E-10  0.0000000E+00  0.1558648E-07
 -0.4956794E-02  0.0000000E+00 -0.5050505E-02  0.2941878E-10  0.0000000E+00  0.1564607E-07
 -0.4937066E-02  0.0000000E+00 -0.5050505E-02  0.2887722E-10  0.0000000E+00  0.1570470E-07
 -0.4906239E-02  0.0000000E+00 -0.5050505E-02  0.2821455E-10  0.0000000E+00  0.1576211E-07
 -0.4866782E-02  0.0000000E+00 -0.5050505E-02  0.2743313E-10  0.0000000E+00  0.1581807E-07
 -0.4827325E-02  0.0000000E+00 -0.5050505E-02  0.2653585E-10  0.0000000E+00  0.1587235E-07
 -0.4769372E-02  0.0000000E+00 -0.5050505E-02  0.2552609E-10  0.0000000E+00  0.1592470E-07
 -0.4690458E-02  0.0000000E+00 -0.5050505E-02  0.2440774E-10  0.0000000E+00  0.1597492E-07
 -0.4611543E-02  0.0000000E+00 -0.5050505E-02  0.2318513E-10  0.0000000E+00  0.1602278E-07
 -0.4503035E-02  0.0000000E+00 -0.5050505E-02  0.2186309E-10  0.0000000E+00  0.1606809E-07
 -0.4345206E-02  0.0000000E+00 -0.5050505E-02  0.2044683E-10  0.0000000E+00  0.1611064E-07
 -0.4187378E-02  0.0000000E+00 -0.5050505E-02  0.1894199E-10  0.0000000E+00  0.1615025E-07
 -0.3985156E-02  0.0000000E+00 -0.5050505E-02  0.1735461E-10  0.0000000E+00  0.1618675E-07
 -0.3669499E-02  0.0000000E+00 -0.5050505E-02  0.1569096E-10  0.0000000E+00  0.1621998E-07
 -0.3353842E-02  0.0000000E+00 -0.5050505E-02  0.1395766E-10  0.0000000E+00  0.1624980E-07
 -0.2978990E-02  0.0000000E+00 -0.5050505E-02  0.1216145E-10  0.0000000E+00  0.1627607E-07
 -0.2347676E-02  0.0000000E+00 -0.5050505E-02  0.1030921E-10  0.0000000E+00  0.1629866E-07
 -0.1716362E-02  0.0000000E+00 -0.5050505E-02  0.8407951E-11  0.0000000E+00  0.1631749E-07
 -0.1025842E-02  0.0000000E+00 -0.5050505E-02  0.6464859E-11  0.0000000E+00  0.1633244E-07
  0.2367855E-03  0.0000000E+00 -0.5050505E-02  0.4487802E-11  0.0000000E+00  0.1634346E-07
  0.1499413E-02  0.0000000E+00 -0.5050505E-02  0.2485800E-11  0.0000000E+00  0.1635047E-07
  0.2762042E-02  0.0000000E+00 -0.5050505E-02  0.4688017E-12  0.0000000E+00  0.1635344E-07
 -0.5050505E-02  0.0000000E+00 -0.5050505E-02 -0.1533658E-11  0.0000000E+00  0.1635237E-07
 -0.5050505E-02  0.0000000E+00 -0.5050505E-02 -0.3526476E-11  0.0000000E+00  0.1634728E-07
 -0.5050505E-02  0.0000000E+00 -0.5050505E-02 -0.5552553E-11  0.0000000E+00  0.1633815E-07
 -0.5050505E-02  0.0000000E+00 -0.5050505E-02 -0.7551137E-11  0.0000000E+00  0.1632497E-07
 -0.5050505E-02  0.0000000E+00 -0.5050505E-02 -0.9512089E-11  0.0000000E+00  0.1630782E-07
 -0.5050505E-02  0.0000000E+00 -0.5050505E-02 -0.1143172E-10  0.0000000E+00  0.1628675E-07
 -0.5050505E-02  0.0000000E+00 -0.5050505E-02 -0.1330519E-10  0.0000000E+00  0.1626188E-07
 -0.5050504E-02  0.0000000E+00 -0.5050505E-02 -0.1512624E-10  0.0000000E+00  0.1623328E-07
 -0.5050501E-02  0.0000000E+00 -0.5050505E-02 -0.1688803E-10  0.0000000E+00  0.1620109E-07
 -0.5050495E-02  0.0000000E+00 -0.5050505E-02 -0.1858351E-10  0.0000000E+00  0.1616542E-07
 -0.5050482E-02  0.0000000E+00 -0.5050505E-02 -0.2020577E-10  0.0000000E+00  0.1612641E-07
 -0.5050449E-02  0.0000000E+00 -0.5050505E-02 -0.2174816E-10  0.0000000E+00  0.1608422E-07
 -0.5050376E-02  0.0000000E+00 -0.5050505E-02 -0.2320434E-10  0.0000000E+00  0.1603901E-07
 -0.5050299E-02  0.0000000E+00 -0.5050505E-02 -0.2456835E-10  0.0000000E+00  0.1599096E-07
 -0.5050178E-02  0.0000000E+00 -0.5050505E-02 -0.2583461E-10  0.0000000E+00  0.1594028E-07
 -0.5050018E-02  0.0000000E+00 -0.5050505E-02 -0.2699796E-10  0.0000000E+00  0.1588714E-07
 -0.5049710E-02  0.0000000E+00 -0.5050505E-02 -0.2805366E-10  0.0000000E+00  0.1583178E-07
 -0.5049253E-02  0.0000000E+00 -0.5050505E-02 -0.2899744E-10  0.0000000E+00  0.1577441E-07
 -0.5048636E-02  0.0000000E+00 -0.5050505E-02 -0.2982547E-10  0.0000000E+00  0.1571525E-07
 -0.5047442E-02  0.0000000E+00 -0.5050505E-02 -0.3053439E-10  0.0000000E+00  0.1565455E-07
 -0.5045727E-02  0.0000000E+00 -0.5050505E-02 -0.3112132E-10  0.0000000E+00  0.1559255E-07
 -0.5043261E-02  0.0000000E+00 -0.5050505E-02 -0.3158382E-10  0.0000000E+00  0.1552949E-07
 -0.5038714E-02  0.0000000E+00 -0.5050505E-02 -0.3191993E-10  0.0000000E+00  0.1546562E-07
 -0.5032318E-02  0.0000000E+00 -0.5050505E-02 -0.3212813E-10  0.0000000E+00  0.1540121E-07
 -0.5022454E-02  0.0000000E+00 -0.5050505E-02 -0.3220735E-10  0.0000000E+00  0.1533651E-07
 -0.5012589E-02  0.0000000E+00 -0.5050505E-02 -0.3215689E-10  0.0000000E+00  0.1527178E-07
 -0.5002725E-02  0.0000000E+00 -0.5050505E-02 -0.3197644E-10  0.0000000E+00  0.1520729E-07
 -0.4992860E-02  0.0000000E+00 -0.5050505E-02 -0.3166599E-10  0.0000000E+00  0.1514328E-07
 -0.4976523E-02  0.0000000E+00 -0.5050505E-02 -0.3122580E-10  0.0000000E+00  0.1508004E-07
 -0.4956794E-02  0.0000000E+00 -0.5050505E-02 -0.3065624E-10  0.0000000E+00  0.1501780E-07
 -0.4937066E-02  0.0000000E+00 -0.5050505E-02 -0.2995768E-10  0.0000000E+00  0.1495685E-07
 -0.4906239E-02  0.0000000E+00 -0.5050505E-02 -0.2913033E-10  0.0000000E+00  0.1489742E-07
 -0.4866782E-02  0.0000000E+00 -0.5050505E-02 -0.2817386E-10  0.0000000E+00  0.1483980E-07
 -0.4827325E-02  0.0000000E+00 -0.5050505E-02 -0.2708703E-10  0.0000000E+00  0.1478422E-07
 -0.4769372E-02  0.0000000E+00 -0.5050505E-02 -0.2586701E-10  0.0000000E+00  0.1473097E-07
 -0.4690458E-02  0.0000000E+00 -0.5050505E-02 -0.2450828E-10  0.0000000E+00  0.1468031E-07
 -0.4611543E-02  0.0000000E+00 -0.5050505E-02 -0.2300096E-10  0.0000000E+00  0.1463253E-07
 -0.4503035E-02  0.0000000E+00 -0.5050505E-02 -0.2132787E-10  0.0000000E+00  0.1458795E-07
 -0.4345206E-02  0.0000000E+00 -0.5050505E-02 -0.1945956E-10  0.0000000E+00  0.1454693E-07
 -0.4187378E-02  0.0000000E+00 -0.5050505E-02 -0.1734508E-10  0.0000000E+00  0.1450992E-07
 -0.3985156E-02  0.0000000E+00 -0.5050505E-02 -0.1489473E-10  0.0000000E+00  0.1447750E-07
 -0.3669499E-02  0.0000000E+00 -0.5050505E-02 -0.1194517E-10  0.0000000E+00  0.1445050E-07
 -0.3353842E-02  0.0000000E+00 -0.5050505E-02 -0.8184051E-11  0.0000000E+00  0.1443026E-07
 -0.2978990E-02  0.0000000E+00 -0.5050505E-02 -0.2974081E-11  0.0000000E+00  0.1441904E-07
 -0.2347676E-02  0.0000000E+00 -0.5050505E-02  0.5073608E-11  0.0000000E+00  0.1442115E-07
 -0.1716362E-02  0.0000000E+00 -0.5050505E-02  0.1936690E-10  0.0000000E+00  0.1444573E-07
 -0.1025842E-02  0.0000000E+00 -0.5050505E-02  0.4900971E-10  0.0000000E+00  0.1451449E-07
  0.2367855E-03  0.0000000E+00 -0.5050505E-02  0.1211283E-09  0.0000000E+00  0.1468559E-07
  0.1499413E-02  0.0000000E+00 -0.5050505E-02  0.3253022E-09  0.0000000E+00  0.1513455E-07
  0.5287294E-02  0.0000000E+00 -0.5050505E-02  0.5345816E-08  0.0000000E+00  0.1209345E-07
 -0.5050505E-02  0.0000000E+00 -0.5050505E-02  0.2578270E-11  0.0000000E+00  0.1447377E-07
 -0.5050505E-02  0.0000000E+00 -0.5050505E-02  0.8339892E-11  0.0000000E+00  0.1447752E-07
 -0.5050505E-02  0.0000000E+00 -0.5050505E-02  0.1425011E-10  0.0000000E+00  0.1448516E-07
 -0.5050505E-02  0.0000000E+00 -0.5050505E-02  0.2000064E-10  0.0000000E+00  0.1449671E-07
 -0.5050505E-02  0.0000000E+00 -0.5050505E-02  0.2562719E-10  0.0000000E+00  0.1451209E-07
 -0.5050505E-02  0.0000000E+00 -0.5050505E-02  0.3112951E-10  0.0000000E+00  0.1453121E-07
 -0.5050504E-02  0.0000000E+00 -0.5050505E-02  0.3649728E-10  0.0000000E+00  0.1455400E-07
 -0.5050501E-02  0.0000000E+00 -0.5050505E-02  0.4171480E-10  0.0000000E+00  0.1458035E-07
 -0.5050495E-02  0.0000000E+00 -0.5050505E-02  0.4676397E-10  0.0000000E+00  0.1461016E-07
 -0.5050482E-02  0.0000000E+00 -0.5050505E-02  0.5162570E-10  0.0000000E+00  0.1464331E-07
 -0.5050449E-02  0.0000000E+00 -0.5050505E-02  0.5628099E-10  0.0000000E+00  0.1467966E-07
 -0.5050376E-02  0.0000000E+00 -0.5050505E-02  0.6071121E-10  0.0000000E+00  0.1471908E-07
 -0.5050299E-02  0.0000000E+00 -0.5050505E-02  0.6489845E-10  0.0000000E+00  0.1476140E-07
 -0.5050178E-02  0.0000000E+00 -0.5050505E-02  0.6882555E-10  0.0000000E+00  0.1480645E-07
 -0.5050018E-02  0.0000000E+00 -0.5050505E-02  0.7247631E-10  0.0000000E+00  0.1485406E-07
 -0.5049710E-02  0.0000000E+00 -0.5050505E-02  0.7583550E-10  0.0000000E+00  0.1490403E-07
 -0.5049253E-02  0.0000000E+00 -0.5050505E-02  0.7888895E-10  0.0000000E+00  0.1495616E-07
 -0.5048636E-02  0.0000000E+00 -0.5050505E-02  0.8162363E-10  0.0000000E+00  0.1501024E-07
 -0.5047442E-02  0.0000000E+00 -0.5050505E-02  0.8402776E-10  0.0000000E+00  0.1506605E-07
 -0.5045727E-02  0.0000000E+00 -0.5050505E-02  0.8609067E-10  0.0000000E+00  0.1512337E-07
 -0.5043261E-02  0.0000000E+00 -0.5050505E-02  0.8780316E-10  0.0000000E+00  0.1518196E-07
 -0.5038714E-02  0.0000000E+00 -0.5050505E-02  0.8915725E-10  0.0000000E+00  0.1524158E-07
 -0.5032318E-02  0.0000000E+00 -0.5050505E-02  0.9014642E-10  0.0000000E+00  0.1530200E-07
 -0.5022454E-02  0.0000000E+00 -0.5050505E-02  0.9076559E-10  0.0000000E+00  0.1536295E-07
 -0.5012589E-02  0.0000000E+00 -0.5050505E-02  0.9101111E-10  0.0000000E+00  0.1542420E-07
 -0.5002725E-02  0.0000000E+00 -0.5050505E-02  0.9088088E-10  0.0000000E+00  0.1548549E-07
 -0.4992860E-02  0.0000000E+00 -0.5050505E-02  0.9037427E-10  0.0000000E+00  0.1554656E-07
 -0.4976523E-02  0.0000000E+00 -0.5050505E-02  0.8949224E-10  0.0000000E+00  0.1560717E-07
 -0.4956794E-02  0.0000000E+00 -0.5050505E-02  0.8823726E-10  0.0000000E+00  0.1566706E-07
 -0.4937066E-02  0.0000000E+00 -0.5050505E-02  0.8661338E-10  0.0000000E+00  0.1572597E-07
 -0.4906239E-02  0.0000000E+00 -0.5050505E-02  0.8462618E-10  0.0000000E+00  0.1578367E-07
 -0.4866782E-02  0.0000000E+00 -0.5050505E-02  0.8228281E-10  0.0000000E+00  0.1583992E-07
 -0.4827325E-02  0.0000000E+00 -0.5050505E-02  0.7959190E-10  0.0000000E+00  0.1589446E-07
 -0.4769372E-02  0.0000000E+00 -0.5050505E-02  0.7656364E-10  0.0000000E+00  0.1594708E-07
 -0.4690458E-02  0.0000000E+00 -0.5050505E-02  0.7320963E-10  0.0000000E+00  0.1599755E-07
 -0.4611543E-02  0.0000000E+00 -0.5050505E-02  0.6954290E-10  0.0000000E+00  0.1604566E-07
 -0.4503035E-02  0.0000000E+00 -0.5050505E-02  0.6557790E-10  0.0000000E+00  0.1609119E-07
 -0.4345206E-02  0.0000000E+00 -0.5050505E-02  0.6133029E-10  0.0000000E+00  0.1613396E-07
 -0.4187378E-02  0.0000000E+00 -0.5050505E-02  0.5681702E-10  0.0000000E+00  0.1617377E-07
 -0.3985156E-02  0.0000000E+00 -0.5050505E-02  0.5205612E-10  0.0000000E+00  0.1621046E-07
 -0.3669499E-02  0.0000000E+00 -0.5050505E-02  0.4706653E-10  0.0000000E+00  0.1624387E-07
 -0.3353842E-02  0.0000000E+00 -0.5050505E-02  0.4186802E-10  0.0000000E+00  0.1627384E-07
 -0.2978990E-02  0.0000000E+00 -0.5050505E-02  0.3648084E-10  0.0000000E+00  0.1630024E-07
 -0.2347676E-02  0.0000000E+00 -0.5050505E-02  0.3092550E-10  0.0000000E+00  0.1632296E-07
 -0.1716362E-02  0.0000000E+00 -0.5050505E-02  0.2522279E-10  0.0000000E+00  0.1634189E-07
 -0.1025842E-02  0.0000000E+00 -0.5050505E-02  0.1939396E-10  0.0000000E+00  0.1635693E-07
  0.2367855E-03  0.0000000E+00 -0.5050505E-02  0.1346257E-10  0.0000000E+00  0.1636800E-07
  0.1499413E-02  0.0000000E+00 -0.5050505E-02  0.7457630E-11  0.0000000E+00  0.1637506E-07
  0.2762042E-02  0.0000000E+00 -0.5050505E-02  0.1417613E-11  0.0000000E+00  0.1637805E-07
 -0.5050505E-02  0.0000000E+00 -0.5050505E-02 -0.4596681E-11  0.0000000E+00  0.1637699E-07
 -0.5050505E-02  0.0000000E+00 -0.5050505E-02 -0.1058250E-10  0.0000000E+00  0.1637188E-07
 -0.5050505E-02  0.0000000E+00 -0.5050505E-02 -0.1665185E-10  0.0000000E+00  0.1636270E-07
 -0.5050505E-02  0.0000000E+00 -0.5050505E-02 -0.2264344E-10  0.0000000E+00  0.1634946E-07
 -0.5050505E-02  0.0000000E+00 -0.5050505E-02 -0.2852487E-10  0.0000000E+00  0.1633223E-07
 -0.5050505E-02  0.0000000E+00 -0.5050505E-02 -0.3428302E-10  0.0000000E+00  0.1631107E-07
 -0.5050505E-02  0.0000000E+00 -0.5050505E-02 -0.3990261E-10  0.0000000E+00  0.1628608E-07
 -0.5050504E-02  0.0000000E+00 -0.5050505E-02 -0.4536484E-10  0.0000000E+00  0.1625735E-07
 -0.5050501E-02  0.0000000E+00 -0.5050505E-02 -0.5064914E-10  0.0000000E+00  0.1622501E-07
 -0.5050495E-02  0.0000000E+00 -0.5050505E-02 -0.5573448E-10  0.0000000E+00  0.1618917E-07
 -0.5050482E-02  0.0000000E+00 -0.5050505E-02 -0.6060017E-10  0.0000000E+00  0.1614997E-07
 -0.5050449E-02  0.0000000E+00 -0.5050505E-02 -0.6522626E-10  0.0000000E+00  0.1610758E-07
 -0.5050376E-02  0.0000000E+00 -0.5050505E-02 -0.6959377E-10  0.0000000E+00  0.1606216E-07
 -0.5050299E-02  0.0000000E+00 -0.5050505E-02 -0.7368478E-10  0.0000000E+00  0.1601388E-07
 -0.5050178E-02  0.0000000E+00 -0.5050505E-02 -0.7748261E-10  0.0000000E+00  0.1596295E-07
 -0.5050018E-02  0.0000000E+00 -0.5050505E-02 -0.8097174E-10  0.0000000E+00  0.1590957E-07
 -0.5049710E-02  0.0000000E+00 -0.5050505E-02 -0.8413801E-10  0.0000000E+00  0.1585394E-07
 -0.5049253E-02  0.0000000E+00 -0.5050505E-02 -0.8696859E-10  0.0000000E+00  0.1579629E-07
 -0.5048636E-02  0.0000000E+00 -0.5050505E-02 -0.8945203E-10  0.0000000E+00  0.1573685E-07
 -0.5047442E-02  0.0000000E+00 -0.5050505E-02 -0.9157823E-10  0.0000000E+00  0.1567586E-07
 -0.5045727E-02  0.0000000E+00 -0.5050505E-02 -0.9333857E-10  0.0000000E+00  0.1561356E-07
 -0.5043261E-02  0.0000000E+00 -0.5050505E-02 -0.9472576E-10  0.0000000E+00  0.1555019E-07
 -0.5038714E-02  0.0000000E+00 -0.5050505E-02 -0.9573393E-10  0.0000000E+00  0.1548602E-07
 -0.5032318E-02  0.0000000E+00 -0.5050505E-02 -0.9635856E-10  0.0000000E+00  0.1542130E-07
 -0.5022454E-02  0.0000000E+00 -0.5050505E-02 -0.9659646E-10  0.0000000E+00  0.1535629E-07
 -0.5012589E-02  0.0000000E+00 -0.5050505E-02 -0.9644558E-10  0.0000000E+00  0.1529125E-07
 -0.5002725E-02  0.0000000E+00 -0.5050505E-02 -0.9590504E-10  0.0000000E+00  0.1522644E-07
 -0.4992860E-02  0.0000000E+00 -0.5050505E-02 -0.9497490E-10  0.0000000E+00  0.1516213E-07
 -0.4976523E-02  0.0000000E+00 -0.5050505E-02 -0.9365601E-10  0.0000000E+00  0.1509857E-07
 -0.4956794E-02  0.0000000E+00 -0.5050505E-02 -0.9194961E-10  0.0000000E+00  0.1503603E-07
 -0.4937066E-02  0.0000000E+00 -0.5050505E-02 -0.8985707E-10  0.0000000E+00  0.1497477E-07
 -0.4906239E-02  0.0000000E+00 -0.5050505E-02 -0.8737921E-10  0.0000000E+00  0.1491504E-07
 -0.4866782E-02  0.0000000E+00 -0.5050505E-02 -0.8451556E-10  0.0000000E+00  0.1485711E-07
 -0.4827325E-02  0.0000000E+00 -0.5050505E-02 -0.8126305E-10  0.0000000E+00  0.1480122E-07
 -0.4769372E-02  0.0000000E+00 -0.5050505E-02 -0.7761420E-10  0.0000000E+00  0.1474766E-07
 -0.4690458E-02  0.0000000E+00 -0.5050505E-02 -0.7355425E-10  0.0000000E+00  0.1469667E-07
 -0.4611543E-02  0.0000000E+00 -0.5050505E-02 -0.6905644E-10  0.0000000E+00  0.1464854E-07
 -0.4503035E-02  0.0000000E+00 -0.5050505E-02 -0.6407429E-10  0.0000000E+00  0.1460356E-07
 -0.4345206E-02  0.0000000E+00 -0.5050505E-02 -0.5852857E-10  0.0000000E+00  0.1456207E-07
 -0.4187378E-02  0.0000000E+00 -0.5050505E-02 -0.5228385E-10  0.0000000E+00  0.1452445E-07
 -0.3985156E-02  0.0000000E+00 -0.5050505E-02 -0.4510606E-10  0.0000000E+00  0.1449117E-07
 -0.3669499E-02  0.0000000E+00 -0.5050505E-02 -0.3658080E-10  0.0000000E+00  0.1446286E-07
 -0.3353842E-02  0.0000000E+00 -0.5050505E-02 -0.2594861E-10  0.0000000E+00  0.1444035E-07
 -0.2978990E-02  0.0000000E+00 -0.5050505E-02 -0.1174985E-10  0.0000000E+00  0.1442481E-07
 -0.2347676E-02  0.0000000E+00 -0.5050505E-02  0.8985731E-11  0.0000000E+00  0.1441782E-07
 -0.1716362E-02  0.0000000E+00 -0.5050505E-02  0.4278003E-10  0.0000000E+00  0.1442086E-07
 -0.1025842E-02  0.0000000E+00 -0.5050505E-02  0.1046081E-09  0.0000000E+00  0.1443194E-07
  0.2367855E-03  0.0000000E+00 -0.5050505E-02  0.2315570E-09  0.0000000E+00  0.1442877E-07
  0.1499413E-02  0.0000000E+00 -0.5050505E-02  0.5205420E-09  0.0000000E+00  0.1428974E-07
  0.5287294E-02  0.0000000E+00 -0.5050505E-02  0.1236700E-08  0.0000000E+00  0.1342690E-07
 -0.5050505E-02  0.0000000E+00 -0.5050505E-02  0.4415788E-11  0.0000000E+00  0.1450424E-07
 -0.5050505E-02  0.0000000E+00 -0.5050505E-02  0.1398587E-10  0.0000000E+00  0.1450808E-07
 -0.5050505E-02  0.0000000E+00 -0.5050505E-02  0.2379430E-10  0.0000000E+00  0.1451584E-07
 -0.5050505E-02  0.0000000E+00 -0.5050505E-02  0.3336419E-10  0.0000000E+00  0.1452752E-07
 -0.5050505E-02  0.0000000E+00 -0.5050505E-02  0.4273998E-10  0.0000000E+00  0.1454305E-07
 -0.5050505E-02  0.0000000E+00 -0.5050505E-02  0.5191333E-10  0.0000000E+00  0.1456236E-07
 -0.5050504E-02  0.0000000E+00 -0.5050505E-02  0.6086383E-10  0.0000000E+00  0.1458536E-07
 -0.5050501E-02  0.0000000E+00 -0.5050505E-02  0.6956428E-10  0.0000000E+00  0.1461196E-07
 -0.5050495E-02  0.0000000E+00 -0.5050505E-02  0.7798419E-10  0.0000000E+00  0.1464205E-07
 -0.5050482E-02  0.0000000E+00 -0.5050505E-02  0.8609173E-10  0.0000000E+00  0.1467552E-07
 -0.5050449E-02  0.0000000E+00 -0.5050505E-02  0.9385512E-10  0.0000000E+00  0.1471222E-07
 -0.5050376E-02  0.0000000E+00 -0.5050505E-02  0.1012434E-09  0.0000000E+00  0.1475201E-07
 -0.5050299E-02  0.0000000E+00 -0.5050505E-02  0.1082265E-09  0.0000000E+00  0.1479473E-07
 -0.5050178E-02  0.0000000E+00 -0.5050505E-02  0.1147760E-09  0.0000000E+00  0.1484022E-07
 -0.5050018E-02  0.0000000E+00 -0.5050505E-02  0.1208648E-09  0.0000000E+00  0.1488828E-07
 -0.5049710E-02  0.0000000E+00 -0.5050505E-02  0.1264675E-09  0.0000000E+00  0.1493872E-07
 -0.5049253E-02  0.0000000E+00 -0.5050505E-02  0.1315604E-09  0.0000000E+00  0.1499135E-07
 -0.5048636E-02  0.0000000E+00 -0.5050505E-02  0.1361219E-09  0.0000000E+00  0.1504595E-07
 -0.5047442E-02  0.0000000E+00 -0.5050505E-02  0.1401322E-09  0.0000000E+00  0.1510230E-07
 -0.5045727E-02  0.0000000E+00 -0.5050505E-02  0.1435735E-09  0.0000000E+00  0.1516017E-07
 -0.5043261E-02  0.0000000E+00 -0.5050505E-02  0.1464305E-09  0.0000000E+00  0.1521933E-07
 -0.5038714E-02  0.0000000E+00 -0.5050505E-02  0.1486899E-09  0.0000000E+00  0.1527953E-07
 -0.5032318E-02  0.0000000E+00 -0.5050505E-02  0.1503408E-09  0.0000000E+00  0.1534053E-07
 -0.5022454E-02  0.0000000E+00 -0.5050505E-02  0.1513747E-09  0.0000000E+00  0.1540208E-07
 -0.5012589E-02  0.0000000E+00 -0.5050505E-02  0.1517854E-09  0.0000000E+00  0.1546393E-07
 -0.5002725E-02  0.0000000E+00 -0.5050505E-02  0.1515696E-09  0.0000000E+00  0.1552582E-07
 -0.4992860E-02  0.0000000E+00 -0.5050505E-02  0.1507260E-09  0.0000000E+00  0.1558749E-07
 -0.4976523E-02  0.0000000E+00 -0.5050505E-02  0.1492563E-09  0.0000000E+00  0.1564869E-07
 -0.4956794E-02  0.0000000E+00 -0.5050505E-02  0.1471646E-09  0.0000000E+00  0.1570917E-07
 -0.4937066E-02  0.0000000E+00 -0.5050505E-02  0.1444576E-09  0.0000000E+00  0.1576867E-07
 -0.4906239E-02  0.0000000E+00 -0.5050505E-02  0.1411446E-09  0.0000000E+00  0.1582694E-07
 -0.4866782E-02  0.0000000E+00 -0.5050505E-02  0.1372375E-09  0.0000000E+00  0.1588375E-07
 -0.4827325E-02  0.0000000E+00 -0.5050505E-02  0.1327508E-09  0.0000000E+00  0.1593884E-07
 -0.4769372E-02  0.0000000E+00 -0.5050505E-02  0.1277013E-09  0.0000000E+00  0.1599198E-07
 -0.4690458E-02  0.0000000E+00 -0.5050505E-02  0.1221085E-09  0.0000000E+00  0.1604296E-07
 -0.4611543E-02  0.0000000E+00 -0.5050505E-02  0.1159940E-09  0.0000000E+00  0.1609155E-07
 -0.4503035E-02  0.0000000E+00 -0.5050505E-02  0.1093820E-09  0.0000000E+00  0.1613754E-07
 -0.4345206E-02  0.0000000E+00 -0.5050505E-02  0.1022985E-09  0.0000000E+00  0.1618075E-07
 -0.4187378E-02  0.0000000E+00 -0.5050505E-02  0.9477189E-10  0.0000000E+00  0.1622097E-07
 -0.3985156E-02  0.0000000E+00 -0.5050505E-02  0.8683221E-10  0.0000000E+00  0.1625803E-07
 -0.3669499E-02  0.0000000E+00 -0.5050505E-02  0.7851117E-10  0.0000000E+00  0.1629178E-07
 -0.3353842E-02  0.0000000E+00 -0.5050505E-02  0.6984167E-10  0.0000000E+00  0.1632206E-07
 -0.2978990E-02  0.0000000E+00 -0.5050505E-02  0.6085753E-10  0.0000000E+00  0.1634875E-07
 -0.2347676E-02  0.0000000E+00 -0.5050505E-02  0.5159279E-10  0.0000000E+00  0.1637171E-07
 -0.1716362E-02  0.0000000E+00 -0.5050505E-02  0.4208159E-10  0.0000000E+00  0.1639084E-07
 -0.1025842E-02  0.0000000E+00 -0.5050505E-02  0.3235862E-10  0.0000000E+00  0.1640604E-07
  0.2367855E-03  0.0000000E+00 -0.5050505E-02  0.2246252E-10  0.0000000E+00  0.1641724E-07
  0.1499413E-02  0.0000000E+00 -0.5050505E-02  0.1244481E-10  0.0000000E+00  0.1642437E-07
  0.2762042E-02  0.0000000E+00 -0.5050505E-02  0.2388728E-11  0.0000000E+00  0.1642741E-07
 -0.5050505E-02  0.0000000E+00 -0.5050505E-02 -0.7653852E-11  0.0000000E+00  0.1642636E-07
 -0.5050505E-02  0.0000000E+00 -0.5050505E-02 -0.1765311E-10  0.0000000E+00  0.1642121E-07
 -0.5050505E-02  0.0000000E+00 -0.5050505E-02 -0.2776316E-10  0.0000000E+00  0.1641195E-07
 -0.5050505E-02  0.0000000E+00 -0.5050505E-02 -0.3775057E-10  0.0000000E+00  0.1639859E-07
 -0.5050505E-02  0.0000000E+00 -0.5050505E-02 -0.4755921E-10  0.0000000E+00  0.1638121E-07
 -0.5050505E-02  0.0000000E+00 -0.5050505E-02 -0.5716364E-10  0.0000000E+00  0.1635986E-07
 -0.5050505E-02  0.0000000E+00 -0.5050505E-02 -0.6653694E-10  0.0000000E+00  0.1633463E-07
 -0.5050504E-02  0.0000000E+00 -0.5050505E-02 -0.7564748E-10  0.0000000E+00  0.1630564E-07
 -0.5050501E-02  0.0000000E+00 -0.5050505E-02 -0.8446095E-10  0.0000000E+00  0.1627299E-07
 -0.5050495E-02  0.0000000E+00 -0.5050505E-02 -0.9294240E-10  0.0000000E+00  0.1623681E-07
 -0.5050482E-02  0.0000000E+00 -0.5050505E-02 -0.1010573E-09  0.0000000E+00  0.1619724E-07
 -0.5050449E-02  0.0000000E+00 -0.5050505E-02 -0.1087726E-09  0.0000000E+00  0.1615445E-07
 -0.5050376E-02  0.0000000E+00 -0.5050505E-02 -0.1160565E-09  0.0000000E+00  0.1610859E-07
 -0.5050299E-02  0.0000000E+00 -0.5050505E-02 -0.1228792E-09  0.0000000E+00  0.1605986E-07
 -0.5050178E-02  0.0000000E+00 -0.5050505E-02 -0.1292128E-09  0.0000000E+00  0.1600844E-07
 -0.5050018E-02  0.0000000E+00 -0.5050505E-02 -0.1350315E-09  0.0000000E+00  0.1595455E-07
 -0.5049710E-02  0.0000000E+00 -0.5050505E-02 -0.1403118E-09  0.0000000E+00  0.1589839E-07
 -0.5049253E-02  0.0000000E+00 -0.5050505E-02 -0.1450323E-09  0.0000000E+00  0.1584019E-07
 -0.5048636E-02  0.0000000E+00 -0.5050505E-02 -0.1491737E-09  0.0000000E+00  0.1578018E-07
 -0.5047442E-02  0.0000000E+00 -0.5050505E-02 -0.1527195E-09  0.0000000E+00  0.1571861E-07
 -0.5045727E-02  0.0000000E+00 -0.5050505E-02 -0.1556552E-09  0.0000000E+00  0.1565571E-07
 -0.5043261E-02  0.0000000E+00 -0.5050505E-02 -0.1579687E-09  0.0000000E+00  0.1559174E-07
 -0.5038714E-02  0.0000000E+00 -0.5050505E-02 -0.1596504E-09  0.0000000E+00  0.1552696E-07
 -0.5032318E-02  0.0000000E+00 -0.5050505E-02 -0.1606927E-09  0.0000000E+00  0.1546162E-07
 -0.5022454E-02  0.0000000E+00 -0.5050505E-02 -0.1610904E-09  0.0000000E+00  0.1539599E-07
 -0.5012589E-02  0.0000000E+00 -0.5050505E-02 -0.1608402E-09  0.0000000E+00  0.1533032E-07
 -0.5002725E-02  0.0000000E+00 -0.5050505E-02 -0.1599409E-09  0.0000000E+00  0.1526489E-07
 -0.4992860E-02  0.0000000E+00 -0.5050505E-02 -0.1583928E-09  0.0000000E+00  0.1519996E-07
 -0.4976523E-02  0.0000000E+00 -0.5050505E-02 -0.1561976E-09  0.0000000E+00  0.1513578E-07
 -0.4956794E-02  0.0000000E+00 -0.5050505E-02 -0.1533579E-09  0.0000000E+00  0.1507262E-07
 -0.4937066E-02  0.0000000E+00 -0.5050505E-02 -0.1498764E-09  0.0000000E+00  0.1501075E-07
 -0.4906239E-02  0.0000000E+00 -0.5050505E-02 -0.1457556E-09  0.0000000E+00  0.1495041E-07
 -0.4866782E-02  0.0000000E+00 -0.5050505E-02 -0.1409959E-09  0.0000000E+00  0.1489187E-07
 -0.4827325E-02  0.0000000E+00 -0.5050505E-02 -0.1355943E-09  0.0000000E+00  0.1483538E-07
 -0.4769372E-02  0.0000000E+00 -0.5050505E-02 -0.1295417E-09  0.0000000E+00  0.1478119E-07
 -0.4690458E-02  0.0000000E+00 -0.5050505E-02 -0.1228186E-09  0.0000000E+00  0.1472956E-07
 -0.4611543E-02  0.0000000E+00 -0.5050505E-02 -0.1153890E-09  0.0000000E+00  0.1468075E-07
 -0.4503035E-02  0.0000000E+00 -0.5050505E-02 -0.1071903E-09  0.0000000E+00  0.1463502E-07
 -0.4345206E-02  0.0000000E+00 -0.5050505E-02 -0.9811673E-10  0.0000000E+00  0.1459265E-07
 -0.4187378E-02  0.0000000E+00 -0.5050505E-02 -0.8799095E-10  0.0000000E+00  0.1455392E-07
 -0.3985156E-02  0.0000000E+00 -0.5050505E-02 -0.7651664E-10  0.0000000E+00  0.1451915E-07
 -0.3669499E-02  0.0000000E+00 -0.5050505E-02 -0.6319467E-10  0.0000000E+00  0.1448866E-07
 -0.3353842E-02  0.0000000E+00 -0.5050505E-02 -0.4717740E-10  0.0000000E+00  0.1446270E-07
 -0.2978990E-02  0.0000000E+00 -0.5050505E-02 -0.2701343E-10  0.0000000E+00  0.1444132E-07
 -0.2347676E-02  0.0000000E+00 -0.5050505E-02 -0.5971459E-13  0.0000000E+00  0.1442385E-07
 -0.1716362E-02  0.0000000E+00 -0.5050505E-02  0.3823850E-10  0.0000000E+00  0.1440744E-07
 -0.1025842E-02  0.0000000E+00 -0.5050505E-02  0.9534386E-10  0.0000000E+00  0.1438331E-07
  0.2367855E-03  0.0000000E+00 -0.5050505E-02  0.1805972E-09  0.0000000E+00  0.1432782E-07
  0.1499413E-02  0.0000000E+00 -0.5050505E-02  0.2906354E-09  0.0000000E+00  0.1418865E-07
  0.5287294E-02  0.0000000E+00 -0.5050505E-02  0.3247326E-09  0.0000000E+00  0.1391308E-07
 -0.5050505E-02  0.0000000E+00 -0.5050505E-02  0.6299784E-11  0.0000000E+00  0.1455018E-07
 -0.5050505E-02  0.0000000E+00 -0.5050505E-02  0.1970828E-10  0.0000000E+00  0.1455410E-07
 -0.5050505E-02  0.0000000E+00 -0.5050505E-02  0.3341950E-10  0.0000000E+00  0.1456198E-07
 -0.5050505E-02  0.0000000E+00 -0.5050505E-02  0.4682265E-10  0.0000000E+00  0.1457384E-07
 -0.5050505E-02  0.0000000E+00 -0.5050505E-02  0.5996622E-10  0.0000000E+00  0.1458960E-07
 -0.5050505E-02  0.0000000E+00 -0.5050505E-02  0.7283129E-10  0.0000000E+00  0.1460918E-07
 -0.5050504E-02  0.0000000E+00 -0.5050505E-02  0.8538597E-10  0.0000000E+00  0.1463251E-07
 -0.5050501E-02  0.0000000E+00 -0.5050505E-02  0.9759085E-10  0.0000000E+00  0.1465949E-07
 -0.5050495E-02  0.0000000E+00 -0.5050505E-02  0.1094027E-09  0.0000000E+00  0.1469001E-07
 -0.5050482E-02  0.0000000E+00 -0.5050505E-02  0.1207767E-09  0.0000000E+00  0.1472394E-07
 -0.5050449E-02  0.0000000E+00 -0.5050505E-02  0.1316682E-09  0.0000000E+00  0.1476116E-07
 -0.5050376E-02  0.0000000E+00 -0.5050505E-02  0.1420338E-09  0.0000000E+00  0.1480152E-07
 -0.5050299E-02  0.0000000E+00 -0.5050505E-02  0.1518314E-09  0.0000000E+00  0.1484485E-07
 -0.5050178E-02  0.0000000E+00 -0.5050505E-02  0.1610208E-09  0.0000000E+00  0.1489098E-07
 -0.5050018E-02  0.0000000E+00 -0.5050505E-02  0.1695643E-09  0.0000000E+00  0.1493972E-07
 -0.5049710E-02  0.0000000E+00 -0.5050505E-02  0.1774260E-09  0.0000000E+00  0.1499089E-07
 -0.5049253E-02  0.0000000E+00 -0.5050505E-02  0.1845728E-09  0.0000000E+00  0.1504427E-07
 -0.5048636E-02  0.0000000E+00 -0.5050505E-02  0.1909742E-09  0.0000000E+00  0.1509965E-07
 -0.5047442E-02  0.0000000E+00 -0.5050505E-02  0.1966025E-09  0.0000000E+00  0.1515680E-07
 -0.5045727E-02  0.0000000E+00 -0.5050505E-02  0.2014329E-09  0.0000000E+00  0.1521551E-07
 -0.5043261E-02  0.0000000E+00 -0.5050505E-02  0.2054436E-09  0.0000000E+00  0.1527551E-07
 -0.5038714E-02  0.0000000E+00 -0.5050505E-02  0.2086160E-09  0.0000000E+00  0.1533658E-07
 -0.5032318E-02  0.0000000E+00 -0.5050505E-02  0.2109348E-09  0.0000000E+00  0.1539847E-07
 -0.5022454E-02  0.0000000E+00 -0.5050505E-02  0.2123880E-09  0.0000000E+00  0.1546091E-07
 -0.5012589E-02  0.0000000E+00 -0.5050505E-02  0.2129670E-09  0.0000000E+00  0.1552365E-07
 -0.5002725E-02  0.0000000E+00 -0.5050505E-02  0.2126669E-09  0.0000000E+00  0.1558644E-07
 -0.4992860E-02  0.0000000E+00 -0.5050505E-02  0.2114861E-09  0.0000000E+00  0.1564902E-07
 -0.4976523E-02  0.0000000E+00 -0.5050505E-02  0.2094268E-09  0.0000000E+00  0.1571112E-07
 -0.4956794E-02  0.0000000E+00 -0.5050505E-02  0.2064947E-09  0.0000000E+00  0.1577248E-07
 -0.4937066E-02  0.0000000E+00 -0.5050505E-02  0.2026992E-09  0.0000000E+00  0.1583286E-07