title = "dataset feddes"
variables = "x", "y", "z", "vx", "vy", "vz"
zone t = "velocities, solution time =  9.000E+00 days        " i =   99, j =   99, k =    1,  f=point
 -0.5050505E-02  0.0000000E+00 -0.5050505E-02 -0.1340612E-13  0.0000000E+00 -0.1481706E-09
 -0.5050505E-02  0.0000000E+00 -0.5050505E-02 -0.1038450E-13  0.0000000E+00 -0.1481944E-09
 -0.5050505E-02  0.0000000E+00 -0.5050505E-02 -0.5450923E-14  0.0000000E+00 -0.1482102E-09
 -0.5050505E-02  0.0000000E+00 -0.5050505E-02 -0.3913868E-14  0.0000000E+00 -0.1482196E-09
 -0.5050505E-02  0.0000000E+00 -0.5050505E-02 -0.3396518E-14  0.0000000E+00 -0.1482269E-09
 -0.5050505E-02  0.0000000E+00 -0.5050505E-02 -0.3014128E-14  0.0000000E+00 -0.1482333E-09
 -0.5050504E-02  0.0000000E+00 -0.5050505E-02 -0.2654232E-14  0.0000000E+00 -0.1482390E-09
 -0.5050501E-02  0.0000000E+00 -0.5050505E-02 -0.2196865E-14  0.0000000E+00 -0.1482438E-09
 -0.5050495E-02  0.0000000E+00 -0.5050505E-02 -0.1814475E-14  0.0000000E+00 -0.1482478E-09
 -0.5050482E-02  0.0000000E+00 -0.5050505E-02 -0.1776986E-14  0.0000000E+00 -0.1482514E-09
 -0.5050449E-02  0.0000000E+00 -0.5050505E-02 -0.1694510E-14  0.0000000E+00 -0.1482549E-09
 -0.5050376E-02  0.0000000E+00 -0.5050505E-02 -0.1574545E-14  0.0000000E+00 -0.1482582E-09
 -0.5050299E-02  0.0000000E+00 -0.5050505E-02 -0.1432086E-14  0.0000000E+00 -0.1482612E-09
 -0.5050178E-02  0.0000000E+00 -0.5050505E-02 -0.1679514E-14  0.0000000E+00 -0.1482643E-09
 -0.5050018E-02  0.0000000E+00 -0.5050505E-02 -0.1919445E-14  0.0000000E+00 -0.1482679E-09
 -0.5049710E-02  0.0000000E+00 -0.5050505E-02 -0.1731999E-14  0.0000000E+00 -0.1482715E-09
 -0.5049253E-02  0.0000000E+00 -0.5050505E-02 -0.1439584E-14  0.0000000E+00 -0.1482747E-09
 -0.5048636E-02  0.0000000E+00 -0.5050505E-02 -0.8322593E-15  0.0000000E+00 -0.1482770E-09
 -0.5047442E-02  0.0000000E+00 -0.5050505E-02 -0.8997398E-15  0.0000000E+00 -0.1482787E-09
 -0.5045727E-02  0.0000000E+00 -0.5050505E-02 -0.9222333E-15  0.0000000E+00 -0.1482805E-09
 -0.5043261E-02  0.0000000E+00 -0.5050505E-02 -0.8547528E-15  0.0000000E+00 -0.1482823E-09
 -0.5038714E-02  0.0000000E+00 -0.5050505E-02 -0.7422853E-15  0.0000000E+00 -0.1482839E-09
 -0.5032318E-02  0.0000000E+00 -0.5050505E-02 -0.6073243E-15  0.0000000E+00 -0.1482852E-09
 -0.5022454E-02  0.0000000E+00 -0.5050505E-02 -0.8622506E-15  0.0000000E+00 -0.1482867E-09
 -0.5012589E-02  0.0000000E+00 -0.5050505E-02 -0.1109679E-14  0.0000000E+00 -0.1482887E-09
 -0.5002725E-02  0.0000000E+00 -0.5050505E-02 -0.9372289E-15  0.0000000E+00 -0.1482907E-09
 -0.4992860E-02  0.0000000E+00 -0.5050505E-02 -0.7422853E-15  0.0000000E+00 -0.1482924E-09
 -0.4976523E-02  0.0000000E+00 -0.5050505E-02 -0.6073243E-15  0.0000000E+00 -0.1482938E-09
 -0.4956794E-02  0.0000000E+00 -0.5050505E-02 -0.5173504E-15  0.0000000E+00 -0.1482949E-09
 -0.4937066E-02  0.0000000E+00 -0.5050505E-02 -0.4573677E-15  0.0000000E+00 -0.1482959E-09
 -0.4906239E-02  0.0000000E+00 -0.5050505E-02 -0.3973851E-15  0.0000000E+00 -0.1482967E-09
 -0.4866782E-02  0.0000000E+00 -0.5050505E-02 -0.3598959E-15  0.0000000E+00 -0.1482975E-09
 -0.4827325E-02  0.0000000E+00 -0.5050505E-02 -0.3149089E-15  0.0000000E+00 -0.1482982E-09
 -0.4769372E-02  0.0000000E+00 -0.5050505E-02 -0.2699219E-15  0.0000000E+00 -0.1482987E-09
 -0.4690458E-02  0.0000000E+00 -0.5050505E-02 -0.2324328E-15  0.0000000E+00 -0.1482992E-09
 -0.4611543E-02  0.0000000E+00 -0.5050505E-02 -0.2024414E-15  0.0000000E+00 -0.1482997E-09
 -0.4503035E-02  0.0000000E+00 -0.5050505E-02 -0.1574545E-15  0.0000000E+00 -0.1483000E-09
 -0.4345206E-02  0.0000000E+00 -0.5050505E-02 -0.1274631E-15  0.0000000E+00 -0.1483003E-09
 -0.4187378E-02  0.0000000E+00 -0.5050505E-02 -0.9747181E-16  0.0000000E+00 -0.1483005E-09
 -0.3985156E-02  0.0000000E+00 -0.5050505E-02 -0.7497831E-16  0.0000000E+00 -0.1483007E-09
 -0.3669499E-02  0.0000000E+00 -0.5050505E-02 -0.5998265E-16  0.0000000E+00 -0.1483009E-09
 -0.3353842E-02  0.0000000E+00 -0.5050505E-02 -0.5998265E-16  0.0000000E+00 -0.1483010E-09
 -0.2978990E-02  0.0000000E+00 -0.5050505E-02 -0.1499566E-16  0.0000000E+00 -0.1483010E-09
 -0.2347676E-02  0.0000000E+00 -0.5050505E-02 -0.3748916E-16  0.0000000E+00 -0.1483011E-09
 -0.1716362E-02  0.0000000E+00 -0.5050505E-02 -0.5248482E-16  0.0000000E+00 -0.1483012E-09
 -0.1025842E-02  0.0000000E+00 -0.5050505E-02 -0.5998265E-16  0.0000000E+00 -0.1483013E-09
  0.2367855E-03  0.0000000E+00 -0.5050505E-02  0.1724501E-15  0.0000000E+00 -0.1483012E-09
  0.1499413E-02  0.0000000E+00 -0.5050505E-02  0.5998265E-16  0.0000000E+00 -0.1483010E-09
  0.2762042E-02  0.0000000E+00 -0.5050505E-02  0.2999133E-16  0.0000000E+00 -0.1483009E-09
 -0.5050505E-02  0.0000000E+00 -0.5050505E-02 -0.4123807E-15  0.0000000E+00 -0.1483012E-09
 -0.5050505E-02  0.0000000E+00 -0.5050505E-02 -0.4048829E-15  0.0000000E+00 -0.1483021E-09
 -0.5050505E-02  0.0000000E+00 -0.5050505E-02 -0.2399306E-15  0.0000000E+00 -0.1483027E-09
 -0.5050505E-02  0.0000000E+00 -0.5050505E-02  0.2249349E-16  0.0000000E+00 -0.1483029E-09
 -0.5050505E-02  0.0000000E+00 -0.5050505E-02  0.7497831E-17  0.0000000E+00 -0.1483029E-09
 -0.5050505E-02  0.0000000E+00 -0.5050505E-02 -0.1049696E-15  0.0000000E+00 -0.1483030E-09
 -0.5050505E-02  0.0000000E+00 -0.5050505E-02 -0.2474284E-15  0.0000000E+00 -0.1483033E-09
 -0.5050504E-02  0.0000000E+00 -0.5050505E-02 -0.3374024E-15  0.0000000E+00 -0.1483039E-09
 -0.5050501E-02  0.0000000E+00 -0.5050505E-02 -0.3973851E-15  0.0000000E+00 -0.1483047E-09
 -0.5050495E-02  0.0000000E+00 -0.5050505E-02 -0.4423721E-15  0.0000000E+00 -0.1483055E-09
 -0.5050482E-02  0.0000000E+00 -0.5050505E-02 -0.4798612E-15  0.0000000E+00 -0.1483064E-09
 -0.5050449E-02  0.0000000E+00 -0.5050505E-02 -0.5323460E-15  0.0000000E+00 -0.1483074E-09
 -0.5050376E-02  0.0000000E+00 -0.5050505E-02 -0.5848308E-15  0.0000000E+00 -0.1483086E-09
 -0.5050299E-02  0.0000000E+00 -0.5050505E-02 -0.6448135E-15  0.0000000E+00 -0.1483098E-09
 -0.5050178E-02  0.0000000E+00 -0.5050505E-02 -0.7197918E-15  0.0000000E+00 -0.1483112E-09
 -0.5050018E-02  0.0000000E+00 -0.5050505E-02 -0.7947701E-15  0.0000000E+00 -0.1483127E-09
 -0.5049710E-02  0.0000000E+00 -0.5050505E-02 -0.8997398E-15  0.0000000E+00 -0.1483144E-09
 -0.5049253E-02  0.0000000E+00 -0.5050505E-02 -0.9972116E-15  0.0000000E+00 -0.1483163E-09
 -0.5048636E-02  0.0000000E+00 -0.5050505E-02 -0.1117177E-14  0.0000000E+00 -0.1483184E-09
 -0.5047442E-02  0.0000000E+00 -0.5050505E-02 -0.1259636E-14  0.0000000E+00 -0.1483208E-09
 -0.5045727E-02  0.0000000E+00 -0.5050505E-02 -0.1402094E-14  0.0000000E+00 -0.1483234E-09
 -0.5043261E-02  0.0000000E+00 -0.5050505E-02 -0.1582042E-14  0.0000000E+00 -0.1483264E-09
 -0.5038714E-02  0.0000000E+00 -0.5050505E-02 -0.1784484E-14  0.0000000E+00 -0.1483298E-09
 -0.5032318E-02  0.0000000E+00 -0.5050505E-02 -0.2009419E-14  0.0000000E+00 -0.1483336E-09
 -0.5022454E-02  0.0000000E+00 -0.5050505E-02 -0.2264345E-14  0.0000000E+00 -0.1483378E-09
 -0.5012589E-02  0.0000000E+00 -0.5050505E-02 -0.2564258E-14  0.0000000E+00 -0.1483427E-09
 -0.5002725E-02  0.0000000E+00 -0.5050505E-02 -0.2909159E-14  0.0000000E+00 -0.1483481E-09
 -0.4992860E-02  0.0000000E+00 -0.5050505E-02 -0.3306544E-14  0.0000000E+00 -0.1483543E-09
 -0.4976523E-02  0.0000000E+00 -0.5050505E-02 -0.3771409E-14  0.0000000E+00 -0.1483614E-09
 -0.4956794E-02  0.0000000E+00 -0.5050505E-02 -0.4326249E-14  0.0000000E+00 -0.1483695E-09
 -0.4937066E-02  0.0000000E+00 -0.5050505E-02 -0.4971062E-14  0.0000000E+00 -0.1483788E-09
 -0.4906239E-02  0.0000000E+00 -0.5050505E-02 -0.5758334E-14  0.0000000E+00 -0.1483896E-09
 -0.4866782E-02  0.0000000E+00 -0.5050505E-02 -0.6703061E-14  0.0000000E+00 -0.1484020E-09
 -0.4827325E-02  0.0000000E+00 -0.5050505E-02 -0.7880221E-14  0.0000000E+00 -0.1484166E-09
 -0.4769372E-02  0.0000000E+00 -0.5050505E-02 -0.9342298E-14  0.0000000E+00 -0.1484338E-09
 -0.4690458E-02  0.0000000E+00 -0.5050505E-02 -0.1120926E-13  0.0000000E+00 -0.1484544E-09
 -0.4611543E-02  0.0000000E+00 -0.5050505E-02 -0.1363106E-13  0.0000000E+00 -0.1484792E-09
 -0.4503035E-02  0.0000000E+00 -0.5050505E-02 -0.1684763E-13  0.0000000E+00 -0.1485097E-09
 -0.4345206E-02  0.0000000E+00 -0.5050505E-02 -0.2122636E-13  0.0000000E+00 -0.1485478E-09
 -0.4187378E-02  0.0000000E+00 -0.5050505E-02 -0.2735959E-13  0.0000000E+00 -0.1485963E-09
 -0.3985156E-02  0.0000000E+00 -0.5050505E-02 -0.3627451E-13  0.0000000E+00 -0.1486600E-09
 -0.3669499E-02  0.0000000E+00 -0.5050505E-02 -0.4973312E-13  0.0000000E+00 -0.1487460E-09
 -0.3353842E-02  0.0000000E+00 -0.5050505E-02 -0.7109444E-13  0.0000000E+00 -0.1488668E-09
 -0.2978990E-02  0.0000000E+00 -0.5050505E-02 -0.1071290E-12  0.0000000E+00 -0.1490450E-09
 -0.2347676E-02  0.0000000E+00 -0.5050505E-02 -0.1726526E-12  0.0000000E+00 -0.1493248E-09
 -0.1716362E-02  0.0000000E+00 -0.5050505E-02 -0.3033098E-12  0.0000000E+00 -0.1498008E-09
 -0.1025842E-02  0.0000000E+00 -0.5050505E-02 -0.5942781E-12  0.0000000E+00 -0.1506984E-09
  0.2367855E-03  0.0000000E+00 -0.5050505E-02 -0.1328361E-11  0.0000000E+00 -0.1526210E-09
  0.1499413E-02  0.0000000E+00 -0.5050505E-02 -0.3436976E-11  0.0000000E+00 -0.1573863E-09
  0.5287294E-02  0.0000000E+00 -0.5050505E-02 -0.5576556E-10  0.0000000E+00 -0.1258796E-09
 -0.5050505E-02  0.0000000E+00 -0.5050505E-02 -0.3288788E-13  0.0000000E+00 -0.1480114E-09
 -0.5050505E-02  0.0000000E+00 -0.5050505E-02 -0.2772646E-13  0.0000000E+00 -0.1480246E-09
 -0.5050505E-02  0.0000000E+00 -0.5050505E-02 -0.1489730E-13  0.0000000E+00 -0.1480356E-09
 -0.5050505E-02  0.0000000E+00 -0.5050505E-02 -0.1106389E-13  0.0000000E+00 -0.1480429E-09
 -0.5050505E-02  0.0000000E+00 -0.5050505E-02 -0.9845701E-14  0.0000000E+00 -0.1480492E-09
 -0.5050505E-02  0.0000000E+00 -0.5050505E-02 -0.8919045E-14  0.0000000E+00 -0.1480552E-09
 -0.5050504E-02  0.0000000E+00 -0.5050505E-02 -0.7724111E-14  0.0000000E+00 -0.1480605E-09
 -0.5050501E-02  0.0000000E+00 -0.5050505E-02 -0.6439160E-14  0.0000000E+00 -0.1480650E-09
 -0.5050495E-02  0.0000000E+00 -0.5050505E-02 -0.5572150E-14  0.0000000E+00 -0.1480690E-09
 -0.5050482E-02  0.0000000E+00 -0.5050505E-02 -0.5348268E-14  0.0000000E+00 -0.1480728E-09
 -0.5050449E-02  0.0000000E+00 -0.5050505E-02 -0.5064488E-14  0.0000000E+00 -0.1480763E-09
 -0.5050376E-02  0.0000000E+00 -0.5050505E-02 -0.4683573E-14  0.0000000E+00 -0.1480795E-09
 -0.5050299E-02  0.0000000E+00 -0.5050505E-02 -0.4392000E-14  0.0000000E+00 -0.1480826E-09
 -0.5050178E-02  0.0000000E+00 -0.5050505E-02 -0.5034581E-14  0.0000000E+00 -0.1480858E-09
 -0.5050018E-02  0.0000000E+00 -0.5050505E-02 -0.5602562E-14  0.0000000E+00 -0.1480893E-09
 -0.5049710E-02  0.0000000E+00 -0.5050505E-02 -0.5154167E-14  0.0000000E+00 -0.1480927E-09
 -0.5049253E-02  0.0000000E+00 -0.5050505E-02 -0.3989434E-14  0.0000000E+00 -0.1480956E-09
 -0.5048636E-02  0.0000000E+00 -0.5050505E-02 -0.2718552E-14  0.0000000E+00 -0.1480977E-09
 -0.5047442E-02  0.0000000E+00 -0.5050505E-02 -0.2778577E-14  0.0000000E+00 -0.1480998E-09
 -0.5045727E-02  0.0000000E+00 -0.5050505E-02 -0.2763792E-14  0.0000000E+00 -0.1481017E-09
 -0.5043261E-02  0.0000000E+00 -0.5050505E-02 -0.2547197E-14  0.0000000E+00 -0.1481035E-09
 -0.5038714E-02  0.0000000E+00 -0.5050505E-02 -0.2203603E-14  0.0000000E+00 -0.1481050E-09
 -0.5032318E-02  0.0000000E+00 -0.5050505E-02 -0.1926984E-14  0.0000000E+00 -0.1481065E-09
 -0.5022454E-02  0.0000000E+00 -0.5050505E-02 -0.2562151E-14  0.0000000E+00 -0.1481080E-09
 -0.5012589E-02  0.0000000E+00 -0.5050505E-02 -0.3137630E-14  0.0000000E+00 -0.1481098E-09
 -0.5002725E-02  0.0000000E+00 -0.5050505E-02 -0.2763876E-14  0.0000000E+00 -0.1481116E-09
 -0.4992860E-02  0.0000000E+00 -0.5050505E-02 -0.2255793E-14  0.0000000E+00 -0.1481133E-09
 -0.4976523E-02  0.0000000E+00 -0.5050505E-02 -0.1844971E-14  0.0000000E+00 -0.1481147E-09
 -0.4956794E-02  0.0000000E+00 -0.5050505E-02 -0.1583516E-14  0.0000000E+00 -0.1481159E-09
 -0.4937066E-02  0.0000000E+00 -0.5050505E-02 -0.1374419E-14  0.0000000E+00 -0.1481169E-09
 -0.4906239E-02  0.0000000E+00 -0.5050505E-02 -0.1217512E-14  0.0000000E+00 -0.1481178E-09
 -0.4866782E-02  0.0000000E+00 -0.5050505E-02 -0.1075643E-14  0.0000000E+00 -0.1481186E-09
 -0.4827325E-02  0.0000000E+00 -0.5050505E-02 -0.9411880E-15  0.0000000E+00 -0.1481192E-09
 -0.4769372E-02  0.0000000E+00 -0.5050505E-02 -0.8216440E-15  0.0000000E+00 -0.1481198E-09
 -0.4690458E-02  0.0000000E+00 -0.5050505E-02 -0.7095978E-15  0.0000000E+00 -0.1481203E-09
 -0.4611543E-02  0.0000000E+00 -0.5050505E-02 -0.5975937E-15  0.0000000E+00 -0.1481208E-09
 -0.4503035E-02  0.0000000E+00 -0.5050505E-02 -0.4705940E-15  0.0000000E+00 -0.1481211E-09
 -0.4345206E-02  0.0000000E+00 -0.5050505E-02 -0.3809570E-15  0.0000000E+00 -0.1481214E-09
 -0.4187378E-02  0.0000000E+00 -0.5050505E-02 -0.2913201E-15  0.0000000E+00 -0.1481216E-09
 -0.3985156E-02  0.0000000E+00 -0.5050505E-02 -0.2166367E-15  0.0000000E+00 -0.1481218E-09
 -0.3669499E-02  0.0000000E+00 -0.5050505E-02 -0.1792739E-15  0.0000000E+00 -0.1481219E-09
 -0.3353842E-02  0.0000000E+00 -0.5050505E-02 -0.1718182E-15  0.0000000E+00 -0.1481220E-09
 -0.2978990E-02  0.0000000E+00 -0.5050505E-02 -0.5227418E-16  0.0000000E+00 -0.1481221E-09
 -0.2347676E-02  0.0000000E+00 -0.5050505E-02 -0.1269576E-15  0.0000000E+00 -0.1481222E-09
 -0.1716362E-02  0.0000000E+00 -0.5050505E-02 -0.1643204E-15  0.0000000E+00 -0.1481223E-09
 -0.1025842E-02  0.0000000E+00 -0.5050505E-02 -0.5998265E-16  0.0000000E+00 -0.1481223E-09
  0.2367855E-03  0.0000000E+00 -0.5050505E-02  0.3066528E-15  0.0000000E+00 -0.1481223E-09
  0.1499413E-02  0.0000000E+00 -0.5050505E-02  0.1569068E-15  0.0000000E+00 -0.1481223E-09
  0.2762042E-02  0.0000000E+00 -0.5050505E-02  0.2909409E-15  0.0000000E+00 -0.1481220E-09
 -0.5050505E-02  0.0000000E+00 -0.5050505E-02 -0.1068483E-14  0.0000000E+00 -0.1481220E-09
 -0.5050505E-02  0.0000000E+00 -0.5050505E-02 -0.1277200E-14  0.0000000E+00 -0.1481228E-09
 -0.5050505E-02  0.0000000E+00 -0.5050505E-02 -0.8140198E-15  0.0000000E+00 -0.1481236E-09
 -0.5050505E-02  0.0000000E+00 -0.5050505E-02  0.2994920E-16  0.0000000E+00 -0.1481239E-09
 -0.5050505E-02  0.0000000E+00 -0.5050505E-02 -0.7413575E-17  0.0000000E+00 -0.1481239E-09
 -0.5050505E-02  0.0000000E+00 -0.5050505E-02 -0.3137293E-15  0.0000000E+00 -0.1481241E-09
 -0.5050505E-02  0.0000000E+00 -0.5050505E-02 -0.7245935E-15  0.0000000E+00 -0.1481244E-09
 -0.5050504E-02  0.0000000E+00 -0.5050505E-02 -0.1000960E-14  0.0000000E+00 -0.1481250E-09
 -0.5050501E-02  0.0000000E+00 -0.5050505E-02 -0.1172778E-14  0.0000000E+00 -0.1481257E-09
 -0.5050495E-02  0.0000000E+00 -0.5050505E-02 -0.1314689E-14  0.0000000E+00 -0.1481265E-09
 -0.5050482E-02  0.0000000E+00 -0.5050505E-02 -0.1434191E-14  0.0000000E+00 -0.1481274E-09
 -0.5050449E-02  0.0000000E+00 -0.5050505E-02 -0.1583600E-14  0.0000000E+00 -0.1481284E-09
 -0.5050376E-02  0.0000000E+00 -0.5050505E-02 -0.1747921E-14  0.0000000E+00 -0.1481295E-09
 -0.5050299E-02  0.0000000E+00 -0.5050505E-02 -0.1927194E-14  0.0000000E+00 -0.1481307E-09
 -0.5050178E-02  0.0000000E+00 -0.5050505E-02 -0.2143831E-14  0.0000000E+00 -0.1481321E-09
 -0.5050018E-02  0.0000000E+00 -0.5050505E-02 -0.2382835E-14  0.0000000E+00 -0.1481336E-09
 -0.5049710E-02  0.0000000E+00 -0.5050505E-02 -0.2674197E-14  0.0000000E+00 -0.1481353E-09
 -0.5049253E-02  0.0000000E+00 -0.5050505E-02 -0.2980429E-14  0.0000000E+00 -0.1481371E-09
 -0.5048636E-02  0.0000000E+00 -0.5050505E-02 -0.3338976E-14  0.0000000E+00 -0.1481392E-09
 -0.5047442E-02  0.0000000E+00 -0.5050505E-02 -0.3742385E-14  0.0000000E+00 -0.1481416E-09
 -0.5045727E-02  0.0000000E+00 -0.5050505E-02 -0.4197983E-14  0.0000000E+00 -0.1481442E-09
 -0.5043261E-02  0.0000000E+00 -0.5050505E-02 -0.4720894E-14  0.0000000E+00 -0.1481472E-09
 -0.5038714E-02  0.0000000E+00 -0.5050505E-02 -0.5318487E-14  0.0000000E+00 -0.1481505E-09
 -0.5032318E-02  0.0000000E+00 -0.5050505E-02 -0.5983309E-14  0.0000000E+00 -0.1481542E-09
 -0.5022454E-02  0.0000000E+00 -0.5050505E-02 -0.6745223E-14  0.0000000E+00 -0.1481584E-09
 -0.5012589E-02  0.0000000E+00 -0.5050505E-02 -0.7641592E-14  0.0000000E+00 -0.1481632E-09
 -0.5002725E-02  0.0000000E+00 -0.5050505E-02 -0.8657506E-14  0.0000000E+00 -0.1481686E-09
 -0.4992860E-02  0.0000000E+00 -0.5050505E-02 -0.9845196E-14  0.0000000E+00 -0.1481747E-09
 -0.4976523E-02  0.0000000E+00 -0.5050505E-02 -0.1121220E-13  0.0000000E+00 -0.1481816E-09
 -0.4956794E-02  0.0000000E+00 -0.5050505E-02 -0.1284812E-13  0.0000000E+00 -0.1481895E-09
 -0.4937066E-02  0.0000000E+00 -0.5050505E-02 -0.1476040E-13  0.0000000E+00 -0.1481986E-09
 -0.4906239E-02  0.0000000E+00 -0.5050505E-02 -0.1707609E-13  0.0000000E+00 -0.1482090E-09
 -0.4866782E-02  0.0000000E+00 -0.5050505E-02 -0.1985492E-13  0.0000000E+00 -0.1482211E-09
 -0.4827325E-02  0.0000000E+00 -0.5050505E-02 -0.2329862E-13  0.0000000E+00 -0.1482352E-09
 -0.4769372E-02  0.0000000E+00 -0.5050505E-02 -0.2757149E-13  0.0000000E+00 -0.1482517E-09
 -0.4690458E-02  0.0000000E+00 -0.5050505E-02 -0.3300228E-13  0.0000000E+00 -0.1482713E-09
 -0.4611543E-02  0.0000000E+00 -0.5050505E-02 -0.4001679E-13  0.0000000E+00 -0.1482948E-09
 -0.4503035E-02  0.0000000E+00 -0.5050505E-02 -0.4926503E-13  0.0000000E+00 -0.1483233E-09
 -0.4345206E-02  0.0000000E+00 -0.5050505E-02 -0.6177793E-13  0.0000000E+00 -0.1483584E-09
 -0.4187378E-02  0.0000000E+00 -0.5050505E-02 -0.7914690E-13  0.0000000E+00 -0.1484024E-09
 -0.3985156E-02  0.0000000E+00 -0.5050505E-02 -0.1040319E-12  0.0000000E+00 -0.1484587E-09
 -0.3669499E-02  0.0000000E+00 -0.5050505E-02 -0.1409536E-12  0.0000000E+00 -0.1485321E-09
 -0.3353842E-02  0.0000000E+00 -0.5050505E-02 -0.1981322E-12  0.0000000E+00 -0.1486302E-09
 -0.2978990E-02  0.0000000E+00 -0.5050505E-02 -0.2911731E-12  0.0000000E+00 -0.1487641E-09
 -0.2347676E-02  0.0000000E+00 -0.5050505E-02 -0.4516599E-12  0.0000000E+00 -0.1489489E-09
 -0.1716362E-02  0.0000000E+00 -0.5050505E-02 -0.7476175E-12  0.0000000E+00 -0.1491990E-09
 -0.1025842E-02  0.0000000E+00 -0.5050505E-02 -0.1335837E-11  0.0000000E+00 -0.1494923E-09
  0.2367855E-03  0.0000000E+00 -0.5050505E-02 -0.2602034E-11  0.0000000E+00 -0.1495957E-09
  0.1499413E-02  0.0000000E+00 -0.5050505E-02 -0.5551786E-11  0.0000000E+00 -0.1482456E-09
  0.5287294E-02  0.0000000E+00 -0.5050505E-02 -0.1292681E-10  0.0000000E+00 -0.1393615E-09
 -0.5050505E-02  0.0000000E+00 -0.5050505E-02 -0.4178273E-13  0.0000000E+00 -0.1476582E-09
 -0.5050505E-02  0.0000000E+00 -0.5050505E-02 -0.3925001E-13  0.0000000E+00 -0.1476658E-09
 -0.5050505E-02  0.0000000E+00 -0.5050505E-02 -0.2101946E-13  0.0000000E+00 -0.1476726E-09
 -0.5050505E-02  0.0000000E+00 -0.5050505E-02 -0.1712912E-13  0.0000000E+00 -0.1476776E-09
 -0.5050505E-02  0.0000000E+00 -0.5050505E-02 -0.1541999E-13  0.0000000E+00 -0.1476831E-09
 -0.5050505E-02  0.0000000E+00 -0.5050505E-02 -0.1435675E-13  0.0000000E+00 -0.1476882E-09
 -0.5050504E-02  0.0000000E+00 -0.5050505E-02 -0.1223911E-13  0.0000000E+00 -0.1476929E-09
 -0.5050501E-02  0.0000000E+00 -0.5050505E-02 -0.1032169E-13  0.0000000E+00 -0.1476969E-09
 -0.5050495E-02  0.0000000E+00 -0.5050505E-02 -0.9518267E-14  0.0000000E+00 -0.1477008E-09
 -0.5050482E-02  0.0000000E+00 -0.5050505E-02 -0.9005663E-14  0.0000000E+00 -0.1477047E-09
 -0.5050449E-02  0.0000000E+00 -0.5050505E-02 -0.8411423E-14  0.0000000E+00 -0.1477083E-09
 -0.5050376E-02  0.0000000E+00 -0.5050505E-02 -0.7735296E-14  0.0000000E+00 -0.1477115E-09
 -0.5050299E-02  0.0000000E+00 -0.5050505E-02 -0.7497215E-14  0.0000000E+00 -0.1477146E-09
 -0.5050178E-02  0.0000000E+00 -0.5050505E-02 -0.8418754E-14  0.0000000E+00 -0.1477179E-09
 -0.5050018E-02  0.0000000E+00 -0.5050505E-02 -0.8917324E-14  0.0000000E+00 -0.1477212E-09
 -0.5049710E-02  0.0000000E+00 -0.5050505E-02 -0.8174472E-14  0.0000000E+00 -0.1477242E-09
 -0.5049253E-02  0.0000000E+00 -0.5050505E-02 -0.6219726E-14  0.0000000E+00 -0.1477266E-09
 -0.5048636E-02  0.0000000E+00 -0.5050505E-02 -0.4940816E-14  0.0000000E+00 -0.1477290E-09
 -0.5047442E-02  0.0000000E+00 -0.5050505E-02 -0.4814738E-14  0.0000000E+00 -0.1477312E-09
 -0.5045727E-02  0.0000000E+00 -0.5050505E-02 -0.4658837E-14  0.0000000E+00 -0.1477333E-09
 -0.5043261E-02  0.0000000E+00 -0.5050505E-02 -0.4220581E-14  0.0000000E+00 -0.1477351E-09
 -0.5038714E-02  0.0000000E+00 -0.5050505E-02 -0.3633588E-14  0.0000000E+00 -0.1477367E-09
 -0.5032318E-02  0.0000000E+00 -0.5050505E-02 -0.3380721E-14  0.0000000E+00 -0.1477381E-09
 -0.5022454E-02  0.0000000E+00 -0.5050505E-02 -0.4213209E-14  0.0000000E+00 -0.1477397E-09
 -0.5012589E-02  0.0000000E+00 -0.5050505E-02 -0.4711780E-14  0.0000000E+00 -0.1477412E-09
 -0.5002725E-02  0.0000000E+00 -0.5050505E-02 -0.4465992E-14  0.0000000E+00 -0.1477427E-09
 -0.4992860E-02  0.0000000E+00 -0.5050505E-02 -0.3811814E-14  0.0000000E+00 -0.1477443E-09
 -0.4976523E-02  0.0000000E+00 -0.5050505E-02 -0.3143017E-14  0.0000000E+00 -0.1477458E-09
 -0.4956794E-02  0.0000000E+00 -0.5050505E-02 -0.2719463E-14  0.0000000E+00 -0.1477470E-09
 -0.4937066E-02  0.0000000E+00 -0.5050505E-02 -0.2347932E-14  0.0000000E+00 -0.1477481E-09
 -0.4906239E-02  0.0000000E+00 -0.5050505E-02 -0.2080489E-14  0.0000000E+00 -0.1477491E-09
 -0.4866782E-02  0.0000000E+00 -0.5050505E-02 -0.1813003E-14  0.0000000E+00 -0.1477499E-09
 -0.4827325E-02  0.0000000E+00 -0.5050505E-02 -0.1582671E-14  0.0000000E+00 -0.1477507E-09
 -0.4769372E-02  0.0000000E+00 -0.5050505E-02 -0.1382078E-14  0.0000000E+00 -0.1477513E-09
 -0.4690458E-02  0.0000000E+00 -0.5050505E-02 -0.1188898E-14  0.0000000E+00 -0.1477518E-09
 -0.4611543E-02  0.0000000E+00 -0.5050505E-02 -0.9956774E-15  0.0000000E+00 -0.1477522E-09
 -0.4503035E-02  0.0000000E+00 -0.5050505E-02 -0.7876285E-15  0.0000000E+00 -0.1477526E-09
 -0.4345206E-02  0.0000000E+00 -0.5050505E-02 -0.6316023E-15  0.0000000E+00 -0.1477529E-09
 -0.4187378E-02  0.0000000E+00 -0.5050505E-02 -0.4755761E-15  0.0000000E+00 -0.1477531E-09
 -0.3985156E-02  0.0000000E+00 -0.5050505E-02 -0.3492473E-15  0.0000000E+00 -0.1477533E-09
 -0.3669499E-02  0.0000000E+00 -0.5050505E-02 -0.2898107E-15  0.0000000E+00 -0.1477534E-09
 -0.3353842E-02  0.0000000E+00 -0.5050505E-02 -0.2526995E-15  0.0000000E+00 -0.1477535E-09
 -0.2978990E-02  0.0000000E+00 -0.5050505E-02 -0.1040035E-15  0.0000000E+00 -0.1477535E-09
 -0.2347676E-02  0.0000000E+00 -0.5050505E-02 -0.2599879E-15  0.0000000E+00 -0.1477536E-09
 -0.1716362E-02  0.0000000E+00 -0.5050505E-02 -0.3416661E-15  0.0000000E+00 -0.1477538E-09
 -0.1025842E-02  0.0000000E+00 -0.5050505E-02 -0.4448334E-16  0.0000000E+00 -0.1477540E-09
  0.2367855E-03  0.0000000E+00 -0.5050505E-02  0.1045471E-15  0.0000000E+00 -0.1477542E-09
  0.1499413E-02  0.0000000E+00 -0.5050505E-02  0.8605548E-15  0.0000000E+00 -0.1477537E-09
  0.2762042E-02  0.0000000E+00 -0.5050505E-02  0.5056080E-15  0.0000000E+00 -0.1477531E-09
 -0.5050505E-02  0.0000000E+00 -0.5050505E-02 -0.1464216E-14  0.0000000E+00 -0.1477532E-09
 -0.5050505E-02  0.0000000E+00 -0.5050505E-02 -0.2280956E-14  0.0000000E+00 -0.1477539E-09
 -0.5050505E-02  0.0000000E+00 -0.5050505E-02 -0.1211684E-14  0.0000000E+00 -0.1477545E-09
 -0.5050505E-02  0.0000000E+00 -0.5050505E-02 -0.4892749E-15  0.0000000E+00 -0.1477551E-09
 -0.5050505E-02  0.0000000E+00 -0.5050505E-02  0.1407803E-15  0.0000000E+00 -0.1477554E-09
 -0.5050505E-02  0.0000000E+00 -0.5050505E-02 -0.5127292E-15  0.0000000E+00 -0.1477554E-09
 -0.5050505E-02  0.0000000E+00 -0.5050505E-02 -0.1181485E-14  0.0000000E+00 -0.1477557E-09
 -0.5050504E-02  0.0000000E+00 -0.5050505E-02 -0.1634777E-14  0.0000000E+00 -0.1477562E-09
 -0.5050501E-02  0.0000000E+00 -0.5050505E-02 -0.1917132E-14  0.0000000E+00 -0.1477569E-09
 -0.5050495E-02  0.0000000E+00 -0.5050505E-02 -0.2162334E-14  0.0000000E+00 -0.1477577E-09
 -0.5050482E-02  0.0000000E+00 -0.5050505E-02 -0.2370383E-14  0.0000000E+00 -0.1477586E-09
 -0.5050449E-02  0.0000000E+00 -0.5050505E-02 -0.2608171E-14  0.0000000E+00 -0.1477596E-09
 -0.5050376E-02  0.0000000E+00 -0.5050505E-02 -0.2883112E-14  0.0000000E+00 -0.1477606E-09
 -0.5050299E-02  0.0000000E+00 -0.5050505E-02 -0.3187751E-14  0.0000000E+00 -0.1477618E-09
 -0.5050178E-02  0.0000000E+00 -0.5050505E-02 -0.3544412E-14  0.0000000E+00 -0.1477632E-09
 -0.5050018E-02  0.0000000E+00 -0.5050505E-02 -0.3945682E-14  0.0000000E+00 -0.1477647E-09
 -0.5049710E-02  0.0000000E+00 -0.5050505E-02 -0.4406388E-14  0.0000000E+00 -0.1477663E-09
 -0.5049253E-02  0.0000000E+00 -0.5050505E-02 -0.4926532E-14  0.0000000E+00 -0.1477681E-09
 -0.5048636E-02  0.0000000E+00 -0.5050505E-02 -0.5513567E-14  0.0000000E+00 -0.1477702E-09
 -0.5047442E-02  0.0000000E+00 -0.5050505E-02 -0.6174867E-14  0.0000000E+00 -0.1477725E-09
 -0.5045727E-02  0.0000000E+00 -0.5050505E-02 -0.6932840E-14  0.0000000E+00 -0.1477751E-09
 -0.5043261E-02  0.0000000E+00 -0.5050505E-02 -0.7787360E-14  0.0000000E+00 -0.1477780E-09
 -0.5038714E-02  0.0000000E+00 -0.5050505E-02 -0.8753382E-14  0.0000000E+00 -0.1477812E-09
 -0.5032318E-02  0.0000000E+00 -0.5050505E-02 -0.9853105E-14  0.0000000E+00 -0.1477848E-09
 -0.5022454E-02  0.0000000E+00 -0.5050505E-02 -0.1110890E-13  0.0000000E+00 -0.1477889E-09
 -0.5012589E-02  0.0000000E+00 -0.5050505E-02 -0.1256536E-13  0.0000000E+00 -0.1477935E-09
 -0.5002725E-02  0.0000000E+00 -0.5050505E-02 -0.1422242E-13  0.0000000E+00 -0.1477987E-09
 -0.4992860E-02  0.0000000E+00 -0.5050505E-02 -0.1615447E-13  0.0000000E+00 -0.1478046E-09
 -0.4976523E-02  0.0000000E+00 -0.5050505E-02 -0.1838369E-13  0.0000000E+00 -0.1478113E-09
 -0.4956794E-02  0.0000000E+00 -0.5050505E-02 -0.2102169E-13  0.0000000E+00 -0.1478188E-09
 -0.4937066E-02  0.0000000E+00 -0.5050505E-02 -0.2412039E-13  0.0000000E+00 -0.1478275E-09
 -0.4906239E-02  0.0000000E+00 -0.5050505E-02 -0.2783591E-13  0.0000000E+00 -0.1478373E-09
 -0.4866782E-02  0.0000000E+00 -0.5050505E-02 -0.3230194E-13  0.0000000E+00 -0.1478487E-09
 -0.4827325E-02  0.0000000E+00 -0.5050505E-02 -0.3777127E-13  0.0000000E+00 -0.1478617E-09
 -0.4769372E-02  0.0000000E+00 -0.5050505E-02 -0.4454109E-13  0.0000000E+00 -0.1478770E-09
 -0.4690458E-02  0.0000000E+00 -0.5050505E-02 -0.5306481E-13  0.0000000E+00 -0.1478947E-09
 -0.4611543E-02  0.0000000E+00 -0.5050505E-02 -0.6398157E-13  0.0000000E+00 -0.1479157E-09
 -0.4503035E-02  0.0000000E+00 -0.5050505E-02 -0.7820558E-13  0.0000000E+00 -0.1479406E-09
 -0.4345206E-02  0.0000000E+00 -0.5050505E-02 -0.9719369E-13  0.0000000E+00 -0.1479705E-09
 -0.4187378E-02  0.0000000E+00 -0.5050505E-02 -0.1230645E-12  0.0000000E+00 -0.1480066E-09
 -0.3985156E-02  0.0000000E+00 -0.5050505E-02 -0.1592300E-12  0.0000000E+00 -0.1480505E-09
 -0.3669499E-02  0.0000000E+00 -0.5050505E-02 -0.2112218E-12  0.0000000E+00 -0.1481038E-09
 -0.3353842E-02  0.0000000E+00 -0.5050505E-02 -0.2883121E-12  0.0000000E+00 -0.1481681E-09
 -0.2978990E-02  0.0000000E+00 -0.5050505E-02 -0.4063718E-12  0.0000000E+00 -0.1482423E-09
 -0.2347676E-02  0.0000000E+00 -0.5050505E-02 -0.5930449E-12  0.0000000E+00 -0.1483183E-09
 -0.1716362E-02  0.0000000E+00 -0.5050505E-02 -0.8962511E-12  0.0000000E+00 -0.1483650E-09
 -0.1025842E-02  0.0000000E+00 -0.5050505E-02 -0.1393707E-11  0.0000000E+00 -0.1482899E-09
  0.2367855E-03  0.0000000E+00 -0.5050505E-02 -0.2181985E-11  0.0000000E+00 -0.1478464E-09
  0.1499413E-02  0.0000000E+00 -0.5050505E-02 -0.3222653E-11  0.0000000E+00 -0.1464931E-09
  0.5287294E-02  0.0000000E+00 -0.5050505E-02 -0.3465022E-11  0.0000000E+00 -0.1436900E-09
 -0.5050505E-02  0.0000000E+00 -0.5050505E-02 -0.4689527E-13  0.0000000E+00 -0.1471069E-09
 -0.5050505E-02  0.0000000E+00 -0.5050505E-02 -0.4627379E-13  0.0000000E+00 -0.1471119E-09
 -0.5050505E-02  0.0000000E+00 -0.5050505E-02 -0.2513091E-13  0.0000000E+00 -0.1471166E-09
 -0.5050505E-02  0.0000000E+00 -0.5050505E-02 -0.2167171E-13  0.0000000E+00 -0.1471204E-09
 -0.5050505E-02  0.0000000E+00 -0.5050505E-02 -0.2045699E-13  0.0000000E+00 -0.1471247E-09
 -0.5050505E-02  0.0000000E+00 -0.5050505E-02 -0.1844142E-13  0.0000000E+00 -0.1471289E-09
 -0.5050504E-02  0.0000000E+00 -0.5050505E-02 -0.1608982E-13  0.0000000E+00 -0.1471322E-09
 -0.5050501E-02  0.0000000E+00 -0.5050505E-02 -0.1427749E-13  0.0000000E+00 -0.1471362E-09
 -0.5050495E-02  0.0000000E+00 -0.5050505E-02 -0.1347211E-13  0.0000000E+00 -0.1471403E-09
 -0.5050482E-02  0.0000000E+00 -0.5050505E-02 -0.1268881E-13  0.0000000E+00 -0.1471442E-09
 -0.5050449E-02  0.0000000E+00 -0.5050505E-02 -0.1175032E-13  0.0000000E+00 -0.1471477E-09
 -0.5050376E-02  0.0000000E+00 -0.5050505E-02 -0.1078958E-13  0.0000000E+00 -0.1471510E-09
 -0.5050299E-02  0.0000000E+00 -0.5050505E-02 -0.1069325E-13  0.0000000E+00 -0.1471542E-09
 -0.5050178E-02  0.0000000E+00 -0.5050505E-02 -0.1180205E-13  0.0000000E+00 -0.1471575E-09
 -0.5050018E-02  0.0000000E+00 -0.5050505E-02 -0.1171454E-13  0.0000000E+00 -0.1471605E-09
 -0.5049710E-02  0.0000000E+00 -0.5050505E-02 -0.1053963E-13  0.0000000E+00 -0.1471628E-09
 -0.5049253E-02  0.0000000E+00 -0.5050505E-02 -0.8277619E-14  0.0000000E+00 -0.1471649E-09
 -0.5048636E-02  0.0000000E+00 -0.5050505E-02 -0.7411605E-14  0.0000000E+00 -0.1471671E-09
 -0.5047442E-02  0.0000000E+00 -0.5050505E-02 -0.7064438E-14  0.0000000E+00 -0.1471697E-09
 -0.5045727E-02  0.0000000E+00 -0.5050505E-02 -0.6665665E-14  0.0000000E+00 -0.1471719E-09
 -0.5043261E-02  0.0000000E+00 -0.5050505E-02 -0.5956297E-14  0.0000000E+00 -0.1471739E-09
 -0.5038714E-02  0.0000000E+00 -0.5050505E-02 -0.5091736E-14  0.0000000E+00 -0.1471756E-09
 -0.5032318E-02  0.0000000E+00 -0.5050505E-02 -0.4921548E-14  0.0000000E+00 -0.1471771E-09
 -0.5022454E-02  0.0000000E+00 -0.5050505E-02 -0.5808767E-14  0.0000000E+00 -0.1471787E-09
 -0.5012589E-02  0.0000000E+00 -0.5050505E-02 -0.5728625E-14  0.0000000E+00 -0.1471799E-09
 -0.5002725E-02  0.0000000E+00 -0.5050505E-02 -0.5861079E-14  0.0000000E+00 -0.1471809E-09
 -0.4992860E-02  0.0000000E+00 -0.5050505E-02 -0.5372592E-14  0.0000000E+00 -0.1471823E-09
 -0.4976523E-02  0.0000000E+00 -0.5050505E-02 -0.4485706E-14  0.0000000E+00 -0.1471837E-09
 -0.4956794E-02  0.0000000E+00 -0.5050505E-02 -0.3968228E-14  0.0000000E+00 -0.1471851E-09
 -0.4937066E-02  0.0000000E+00 -0.5050505E-02 -0.3406681E-14  0.0000000E+00 -0.1471863E-09