title = "dataset feddes"
variables = "x", "y", "z", "vx", "vy", "vz"
zone t = "velocities, solution time =  4.800E+01 days        " i =   99, j =   99, k =    1,  f=point
 -0.5050505E-02  0.0000000E+00 -0.5050505E-02  0.1661203E-09  0.0000000E+00  0.1175627E-05
 -0.5050505E-02  0.0000000E+00 -0.5050505E-02  0.4976791E-09  0.0000000E+00  0.1176294E-05
 -0.5050505E-02  0.0000000E+00 -0.5050505E-02  0.8273420E-09  0.0000000E+00  0.1177627E-05
 -0.5050505E-02  0.0000000E+00 -0.5050505E-02  0.1153866E-08  0.0000000E+00  0.1179619E-05
 -0.5050505E-02  0.0000000E+00 -0.5050505E-02  0.1475997E-08  0.0000000E+00  0.1182264E-05
 -0.5050505E-02  0.0000000E+00 -0.5050505E-02  0.1792499E-08  0.0000000E+00  0.1185551E-05
 -0.5050504E-02  0.0000000E+00 -0.5050505E-02  0.2102155E-08  0.0000000E+00  0.1189468E-05
 -0.5050501E-02  0.0000000E+00 -0.5050505E-02  0.2403765E-08  0.0000000E+00  0.1194000E-05
 -0.5050495E-02  0.0000000E+00 -0.5050505E-02  0.2696150E-08  0.0000000E+00  0.1199129E-05
 -0.5050482E-02  0.0000000E+00 -0.5050505E-02  0.2978159E-08  0.0000000E+00  0.1204835E-05
 -0.5050449E-02  0.0000000E+00 -0.5050505E-02  0.3248672E-08  0.0000000E+00  0.1211098E-05
 -0.5050376E-02  0.0000000E+00 -0.5050505E-02  0.3506600E-08  0.0000000E+00  0.1217891E-05
 -0.5050299E-02  0.0000000E+00 -0.5050505E-02  0.3750895E-08  0.0000000E+00  0.1225190E-05
 -0.5050178E-02  0.0000000E+00 -0.5050505E-02  0.3980549E-08  0.0000000E+00  0.1232966E-05
 -0.5050018E-02  0.0000000E+00 -0.5050505E-02  0.4194599E-08  0.0000000E+00  0.1241188E-05
 -0.5049710E-02  0.0000000E+00 -0.5050505E-02  0.4392131E-08  0.0000000E+00  0.1249823E-05
 -0.5049253E-02  0.0000000E+00 -0.5050505E-02  0.4572287E-08  0.0000000E+00  0.1258839E-05
 -0.5048636E-02  0.0000000E+00 -0.5050505E-02  0.4734266E-08  0.0000000E+00  0.1268198E-05
 -0.5047442E-02  0.0000000E+00 -0.5050505E-02  0.4877326E-08  0.0000000E+00  0.1277865E-05
 -0.5045727E-02  0.0000000E+00 -0.5050505E-02  0.5000795E-08  0.0000000E+00  0.1287799E-05
 -0.5043261E-02  0.0000000E+00 -0.5050505E-02  0.5104067E-08  0.0000000E+00  0.1297962E-05
 -0.5038714E-02  0.0000000E+00 -0.5050505E-02  0.5186610E-08  0.0000000E+00  0.1308311E-05
 -0.5032318E-02  0.0000000E+00 -0.5050505E-02  0.5247970E-08  0.0000000E+00  0.1318805E-05
 -0.5022454E-02  0.0000000E+00 -0.5050505E-02  0.5287773E-08  0.0000000E+00  0.1329401E-05
 -0.5012589E-02  0.0000000E+00 -0.5050505E-02  0.5305729E-08  0.0000000E+00  0.1340055E-05
 -0.5002725E-02  0.0000000E+00 -0.5050505E-02  0.5301632E-08  0.0000000E+00  0.1350723E-05
 -0.4992860E-02  0.0000000E+00 -0.5050505E-02  0.5275369E-08  0.0000000E+00  0.1361360E-05
 -0.4976523E-02  0.0000000E+00 -0.5050505E-02  0.5226917E-08  0.0000000E+00  0.1371923E-05
 -0.4956794E-02  0.0000000E+00 -0.5050505E-02  0.5156346E-08  0.0000000E+00  0.1382365E-05
 -0.4937066E-02  0.0000000E+00 -0.5050505E-02  0.5063824E-08  0.0000000E+00  0.1392644E-05
 -0.4906239E-02  0.0000000E+00 -0.5050505E-02  0.4949611E-08  0.0000000E+00  0.1402714E-05
 -0.4866782E-02  0.0000000E+00 -0.5050505E-02  0.4814067E-08  0.0000000E+00  0.1412534E-05
 -0.4827325E-02  0.0000000E+00 -0.5050505E-02  0.4657650E-08  0.0000000E+00  0.1422059E-05
 -0.4769372E-02  0.0000000E+00 -0.5050505E-02  0.4480912E-08  0.0000000E+00  0.1431250E-05
 -0.4690458E-02  0.0000000E+00 -0.5050505E-02  0.4284502E-08  0.0000000E+00  0.1440065E-05
 -0.4611543E-02  0.0000000E+00 -0.5050505E-02  0.4069163E-08  0.0000000E+00  0.1448467E-05
 -0.4503035E-02  0.0000000E+00 -0.5050505E-02  0.3835729E-08  0.0000000E+00  0.1456417E-05
 -0.4345206E-02  0.0000000E+00 -0.5050505E-02  0.3585125E-08  0.0000000E+00  0.1463880E-05
 -0.4187378E-02  0.0000000E+00 -0.5050505E-02  0.3318357E-08  0.0000000E+00  0.1470823E-05
 -0.3985156E-02  0.0000000E+00 -0.5050505E-02  0.3036518E-08  0.0000000E+00  0.1477214E-05
 -0.3669499E-02  0.0000000E+00 -0.5050505E-02  0.2740774E-08  0.0000000E+00  0.1483024E-05
 -0.3353842E-02  0.0000000E+00 -0.5050505E-02  0.2432363E-08  0.0000000E+00  0.1488227E-05
 -0.2978990E-02  0.0000000E+00 -0.5050505E-02  0.2112589E-08  0.0000000E+00  0.1492798E-05
 -0.2347676E-02  0.0000000E+00 -0.5050505E-02  0.1782817E-08  0.0000000E+00  0.1496716E-05
 -0.1716362E-02  0.0000000E+00 -0.5050505E-02  0.1444461E-08  0.0000000E+00  0.1499961E-05
 -0.1025842E-02  0.0000000E+00 -0.5050505E-02  0.1098985E-08  0.0000000E+00  0.1502519E-05
  0.2367855E-03  0.0000000E+00 -0.5050505E-02  0.7478875E-09  0.0000000E+00  0.1504377E-05
  0.1499413E-02  0.0000000E+00 -0.5050505E-02  0.3926981E-09  0.0000000E+00  0.1505524E-05
  0.2762042E-02  0.0000000E+00 -0.5050505E-02  0.3496851E-10  0.0000000E+00  0.1505954E-05
 -0.5050505E-02  0.0000000E+00 -0.5050505E-02 -0.3237361E-09  0.0000000E+00  0.1505664E-05
 -0.5050505E-02  0.0000000E+00 -0.5050505E-02 -0.6818446E-09  0.0000000E+00  0.1504652E-05
 -0.5050505E-02  0.0000000E+00 -0.5050505E-02 -0.1037789E-08  0.0000000E+00  0.1502923E-05
 -0.5050505E-02  0.0000000E+00 -0.5050505E-02 -0.1390014E-08  0.0000000E+00  0.1500481E-05
 -0.5050505E-02  0.0000000E+00 -0.5050505E-02 -0.1736982E-08  0.0000000E+00  0.1497336E-05
 -0.5050505E-02  0.0000000E+00 -0.5050505E-02 -0.2077186E-08  0.0000000E+00  0.1493500E-05
 -0.5050505E-02  0.0000000E+00 -0.5050505E-02 -0.2409152E-08  0.0000000E+00  0.1488988E-05
 -0.5050504E-02  0.0000000E+00 -0.5050505E-02 -0.2731451E-08  0.0000000E+00  0.1483818E-05
 -0.5050501E-02  0.0000000E+00 -0.5050505E-02 -0.3042703E-08  0.0000000E+00  0.1478011E-05
 -0.5050495E-02  0.0000000E+00 -0.5050505E-02 -0.3341587E-08  0.0000000E+00  0.1471591E-05
 -0.5050482E-02  0.0000000E+00 -0.5050505E-02 -0.3626844E-08  0.0000000E+00  0.1464582E-05
 -0.5050449E-02  0.0000000E+00 -0.5050505E-02 -0.3897284E-08  0.0000000E+00  0.1457015E-05
 -0.5050376E-02  0.0000000E+00 -0.5050505E-02 -0.4151793E-08  0.0000000E+00  0.1448920E-05
 -0.5050299E-02  0.0000000E+00 -0.5050505E-02 -0.4389335E-08  0.0000000E+00  0.1440330E-05
 -0.5050178E-02  0.0000000E+00 -0.5050505E-02 -0.4608957E-08  0.0000000E+00  0.1431281E-05
 -0.5050018E-02  0.0000000E+00 -0.5050505E-02 -0.4809793E-08  0.0000000E+00  0.1421808E-05
 -0.5049710E-02  0.0000000E+00 -0.5050505E-02 -0.4991065E-08  0.0000000E+00  0.1411951E-05
 -0.5049253E-02  0.0000000E+00 -0.5050505E-02 -0.5152089E-08  0.0000000E+00  0.1401750E-05
 -0.5048636E-02  0.0000000E+00 -0.5050505E-02 -0.5292270E-08  0.0000000E+00  0.1391246E-05
 -0.5047442E-02  0.0000000E+00 -0.5050505E-02 -0.5411108E-08  0.0000000E+00  0.1380482E-05
 -0.5045727E-02  0.0000000E+00 -0.5050505E-02 -0.5508197E-08  0.0000000E+00  0.1369500E-05
 -0.5043261E-02  0.0000000E+00 -0.5050505E-02 -0.5583222E-08  0.0000000E+00  0.1358346E-05
 -0.5038714E-02  0.0000000E+00 -0.5050505E-02 -0.5635961E-08  0.0000000E+00  0.1347062E-05
 -0.5032318E-02  0.0000000E+00 -0.5050505E-02 -0.5666279E-08  0.0000000E+00  0.1335696E-05
 -0.5022454E-02  0.0000000E+00 -0.5050505E-02 -0.5674130E-08  0.0000000E+00  0.1324291E-05
 -0.5012589E-02  0.0000000E+00 -0.5050505E-02 -0.5659546E-08  0.0000000E+00  0.1312892E-05
 -0.5002725E-02  0.0000000E+00 -0.5050505E-02 -0.5622640E-08  0.0000000E+00  0.1301546E-05
 -0.4992860E-02  0.0000000E+00 -0.5050505E-02 -0.5563595E-08  0.0000000E+00  0.1290296E-05
 -0.4976523E-02  0.0000000E+00 -0.5050505E-02 -0.5482655E-08  0.0000000E+00  0.1279186E-05
 -0.4956794E-02  0.0000000E+00 -0.5050505E-02 -0.5380119E-08  0.0000000E+00  0.1268262E-05
 -0.4937066E-02  0.0000000E+00 -0.5050505E-02 -0.5256324E-08  0.0000000E+00  0.1257565E-05
 -0.4906239E-02  0.0000000E+00 -0.5050505E-02 -0.5111626E-08  0.0000000E+00  0.1247137E-05
 -0.4866782E-02  0.0000000E+00 -0.5050505E-02 -0.4946377E-08  0.0000000E+00  0.1237022E-05
 -0.4827325E-02  0.0000000E+00 -0.5050505E-02 -0.4760886E-08  0.0000000E+00  0.1227259E-05
 -0.4769372E-02  0.0000000E+00 -0.5050505E-02 -0.4555365E-08  0.0000000E+00  0.1217890E-05
 -0.4690458E-02  0.0000000E+00 -0.5050505E-02 -0.4329840E-08  0.0000000E+00  0.1208954E-05
 -0.4611543E-02  0.0000000E+00 -0.5050505E-02 -0.4084013E-08  0.0000000E+00  0.1200492E-05
 -0.4503035E-02  0.0000000E+00 -0.5050505E-02 -0.3817037E-08  0.0000000E+00  0.1192546E-05
 -0.4345206E-02  0.0000000E+00 -0.5050505E-02 -0.3527110E-08  0.0000000E+00  0.1185160E-05
 -0.4187378E-02  0.0000000E+00 -0.5050505E-02 -0.3210753E-08  0.0000000E+00  0.1178384E-05
 -0.3985156E-02  0.0000000E+00 -0.5050505E-02 -0.2861426E-08  0.0000000E+00  0.1172277E-05
 -0.3669499E-02  0.0000000E+00 -0.5050505E-02 -0.2466729E-08  0.0000000E+00  0.1166919E-05
 -0.3353842E-02  0.0000000E+00 -0.5050505E-02 -0.2002380E-08  0.0000000E+00  0.1162424E-05
 -0.2978990E-02  0.0000000E+00 -0.5050505E-02 -0.1418212E-08  0.0000000E+00  0.1158984E-05
 -0.2347676E-02  0.0000000E+00 -0.5050505E-02 -0.6028349E-09  0.0000000E+00  0.1156952E-05
 -0.1716362E-02  0.0000000E+00 -0.5050505E-02  0.7139957E-09  0.0000000E+00  0.1157063E-05
 -0.1025842E-02  0.0000000E+00 -0.5050505E-02  0.3257449E-08  0.0000000E+00  0.1161057E-05
  0.2367855E-03  0.0000000E+00 -0.5050505E-02  0.9190682E-08  0.0000000E+00  0.1173576E-05
  0.1499413E-02  0.0000000E+00 -0.5050505E-02  0.2566242E-07  0.0000000E+00  0.1208628E-05
  0.5287294E-02  0.0000000E+00 -0.5050505E-02  0.4264775E-06  0.0000000E+00  0.9655451E-06
 -0.5050505E-02  0.0000000E+00 -0.5050505E-02  0.4984402E-09  0.0000000E+00  0.1177815E-05
 -0.5050505E-02  0.0000000E+00 -0.5050505E-02  0.1493310E-08  0.0000000E+00  0.1178487E-05
 -0.5050505E-02  0.0000000E+00 -0.5050505E-02  0.2482490E-08  0.0000000E+00  0.1179827E-05
 -0.5050505E-02  0.0000000E+00 -0.5050505E-02  0.3462249E-08  0.0000000E+00  0.1181832E-05
 -0.5050505E-02  0.0000000E+00 -0.5050505E-02  0.4428834E-08  0.0000000E+00  0.1184493E-05
 -0.5050505E-02  0.0000000E+00 -0.5050505E-02  0.5378535E-08  0.0000000E+00  0.1187801E-05
 -0.5050504E-02  0.0000000E+00 -0.5050505E-02  0.6307699E-08  0.0000000E+00  0.1191742E-05
 -0.5050501E-02  0.0000000E+00 -0.5050505E-02  0.7212727E-08  0.0000000E+00  0.1196302E-05
 -0.5050495E-02  0.0000000E+00 -0.5050505E-02  0.8090085E-08  0.0000000E+00  0.1201462E-05
 -0.5050482E-02  0.0000000E+00 -0.5050505E-02  0.8936319E-08  0.0000000E+00  0.1207205E-05
 -0.5050449E-02  0.0000000E+00 -0.5050505E-02  0.9748066E-08  0.0000000E+00  0.1213506E-05
 -0.5050376E-02  0.0000000E+00 -0.5050505E-02  0.1052206E-07  0.0000000E+00  0.1220342E-05
 -0.5050299E-02  0.0000000E+00 -0.5050505E-02  0.1125516E-07  0.0000000E+00  0.1227687E-05
 -0.5050178E-02  0.0000000E+00 -0.5050505E-02  0.1194434E-07  0.0000000E+00  0.1235511E-05
 -0.5050018E-02  0.0000000E+00 -0.5050505E-02  0.1258671E-07  0.0000000E+00  0.1243785E-05
 -0.5049710E-02  0.0000000E+00 -0.5050505E-02  0.1317952E-07  0.0000000E+00  0.1252475E-05
 -0.5049253E-02  0.0000000E+00 -0.5050505E-02  0.1372021E-07  0.0000000E+00  0.1261547E-05
 -0.5048636E-02  0.0000000E+00 -0.5050505E-02  0.1420635E-07  0.0000000E+00  0.1270966E-05
 -0.5047442E-02  0.0000000E+00 -0.5050505E-02  0.1463574E-07  0.0000000E+00  0.1280694E-05
 -0.5045727E-02  0.0000000E+00 -0.5050505E-02  0.1500635E-07  0.0000000E+00  0.1290692E-05
 -0.5043261E-02  0.0000000E+00 -0.5050505E-02  0.1531636E-07  0.0000000E+00  0.1300920E-05
 -0.5038714E-02  0.0000000E+00 -0.5050505E-02  0.1556418E-07  0.0000000E+00  0.1311336E-05
 -0.5032318E-02  0.0000000E+00 -0.5050505E-02  0.1574843E-07  0.0000000E+00  0.1321898E-05
 -0.5022454E-02  0.0000000E+00 -0.5050505E-02  0.1586800E-07  0.0000000E+00  0.1332562E-05
 -0.5012589E-02  0.0000000E+00 -0.5050505E-02  0.1592201E-07  0.0000000E+00  0.1343286E-05
 -0.5002725E-02  0.0000000E+00 -0.5050505E-02  0.1590984E-07  0.0000000E+00  0.1354023E-05
 -0.4992860E-02  0.0000000E+00 -0.5050505E-02  0.1583116E-07  0.0000000E+00  0.1364730E-05
 -0.4976523E-02  0.0000000E+00 -0.5050505E-02  0.1568588E-07  0.0000000E+00  0.1375362E-05
 -0.4956794E-02  0.0000000E+00 -0.5050505E-02  0.1547423E-07  0.0000000E+00  0.1385873E-05
 -0.4937066E-02  0.0000000E+00 -0.5050505E-02  0.1519670E-07  0.0000000E+00  0.1396220E-05
 -0.4906239E-02  0.0000000E+00 -0.5050505E-02  0.1485407E-07  0.0000000E+00  0.1406358E-05
 -0.4866782E-02  0.0000000E+00 -0.5050505E-02  0.1444742E-07  0.0000000E+00  0.1416243E-05
 -0.4827325E-02  0.0000000E+00 -0.5050505E-02  0.1397812E-07  0.0000000E+00  0.1425832E-05
 -0.4769372E-02  0.0000000E+00 -0.5050505E-02  0.1344783E-07  0.0000000E+00  0.1435085E-05
 -0.4690458E-02  0.0000000E+00 -0.5050505E-02  0.1285849E-07  0.0000000E+00  0.1443960E-05
 -0.4611543E-02  0.0000000E+00 -0.5050505E-02  0.1221233E-07  0.0000000E+00  0.1452418E-05
 -0.4503035E-02  0.0000000E+00 -0.5050505E-02  0.1151186E-07  0.0000000E+00  0.1460422E-05
 -0.4345206E-02  0.0000000E+00 -0.5050505E-02  0.1075985E-07  0.0000000E+00  0.1467937E-05
 -0.4187378E-02  0.0000000E+00 -0.5050505E-02  0.9959320E-08  0.0000000E+00  0.1474927E-05
 -0.3985156E-02  0.0000000E+00 -0.5050505E-02  0.9113548E-08  0.0000000E+00  0.1481362E-05
 -0.3669499E-02  0.0000000E+00 -0.5050505E-02  0.8226034E-08  0.0000000E+00  0.1487213E-05
 -0.3353842E-02  0.0000000E+00 -0.5050505E-02  0.7300495E-08  0.0000000E+00  0.1492452E-05
 -0.2978990E-02  0.0000000E+00 -0.5050505E-02  0.6340847E-08  0.0000000E+00  0.1497055E-05
 -0.2347676E-02  0.0000000E+00 -0.5050505E-02  0.5351182E-08  0.0000000E+00  0.1501001E-05
 -0.1716362E-02  0.0000000E+00 -0.5050505E-02  0.4335752E-08  0.0000000E+00  0.1504270E-05
 -0.1025842E-02  0.0000000E+00 -0.5050505E-02  0.3298943E-08  0.0000000E+00  0.1506846E-05
  0.2367855E-03  0.0000000E+00 -0.5050505E-02  0.2245259E-08  0.0000000E+00  0.1508718E-05
  0.1499413E-02  0.0000000E+00 -0.5050505E-02  0.1179291E-08  0.0000000E+00  0.1509874E-05
  0.2762042E-02  0.0000000E+00 -0.5050505E-02  0.1056963E-09  0.0000000E+00  0.1510309E-05
 -0.5050505E-02  0.0000000E+00 -0.5050505E-02 -0.9708249E-09  0.0000000E+00  0.1510018E-05
 -0.5050505E-02  0.0000000E+00 -0.5050505E-02 -0.2045557E-08  0.0000000E+00  0.1509001E-05
 -0.5050505E-02  0.0000000E+00 -0.5050505E-02 -0.3113792E-08  0.0000000E+00  0.1507262E-05
 -0.5050505E-02  0.0000000E+00 -0.5050505E-02 -0.4170860E-08  0.0000000E+00  0.1504805E-05
 -0.5050505E-02  0.0000000E+00 -0.5050505E-02 -0.5212149E-08  0.0000000E+00  0.1501640E-05
 -0.5050505E-02  0.0000000E+00 -0.5050505E-02 -0.6233130E-08  0.0000000E+00  0.1497780E-05
 -0.5050505E-02  0.0000000E+00 -0.5050505E-02 -0.7229382E-08  0.0000000E+00  0.1493239E-05
 -0.5050504E-02  0.0000000E+00 -0.5050505E-02 -0.8196612E-08  0.0000000E+00  0.1488036E-05
 -0.5050501E-02  0.0000000E+00 -0.5050505E-02 -0.9130682E-08  0.0000000E+00  0.1482192E-05
 -0.5050495E-02  0.0000000E+00 -0.5050505E-02 -0.1002762E-07  0.0000000E+00  0.1475729E-05
 -0.5050482E-02  0.0000000E+00 -0.5050505E-02 -0.1088366E-07  0.0000000E+00  0.1468676E-05
 -0.5050449E-02  0.0000000E+00 -0.5050505E-02 -0.1169522E-07  0.0000000E+00  0.1461060E-05
 -0.5050376E-02  0.0000000E+00 -0.5050505E-02 -0.1245895E-07  0.0000000E+00  0.1452912E-05
 -0.5050299E-02  0.0000000E+00 -0.5050505E-02 -0.1317176E-07  0.0000000E+00  0.1444267E-05
 -0.5050178E-02  0.0000000E+00 -0.5050505E-02 -0.1383078E-07  0.0000000E+00  0.1435159E-05
 -0.5050018E-02  0.0000000E+00 -0.5050505E-02 -0.1443342E-07  0.0000000E+00  0.1425625E-05
 -0.5049710E-02  0.0000000E+00 -0.5050505E-02 -0.1497733E-07  0.0000000E+00  0.1415705E-05
 -0.5049253E-02  0.0000000E+00 -0.5050505E-02 -0.1546048E-07  0.0000000E+00  0.1405438E-05
 -0.5048636E-02  0.0000000E+00 -0.5050505E-02 -0.1588106E-07  0.0000000E+00  0.1394867E-05
 -0.5047442E-02  0.0000000E+00 -0.5050505E-02 -0.1623760E-07  0.0000000E+00  0.1384034E-05
 -0.5045727E-02  0.0000000E+00 -0.5050505E-02 -0.1652887E-07  0.0000000E+00  0.1372982E-05
 -0.5043261E-02  0.0000000E+00 -0.5050505E-02 -0.1675392E-07  0.0000000E+00  0.1361756E-05
 -0.5038714E-02  0.0000000E+00 -0.5050505E-02 -0.1691210E-07  0.0000000E+00  0.1350401E-05
 -0.5032318E-02  0.0000000E+00 -0.5050505E-02 -0.1700301E-07  0.0000000E+00  0.1338962E-05
 -0.5022454E-02  0.0000000E+00 -0.5050505E-02 -0.1702650E-07  0.0000000E+00  0.1327485E-05
 -0.5012589E-02  0.0000000E+00 -0.5050505E-02 -0.1698268E-07  0.0000000E+00  0.1316014E-05
 -0.5002725E-02  0.0000000E+00 -0.5050505E-02 -0.1687190E-07  0.0000000E+00  0.1304596E-05
 -0.4992860E-02  0.0000000E+00 -0.5050505E-02 -0.1669471E-07  0.0000000E+00  0.1293275E-05
 -0.4976523E-02  0.0000000E+00 -0.5050505E-02 -0.1645186E-07  0.0000000E+00  0.1282095E-05
 -0.4956794E-02  0.0000000E+00 -0.5050505E-02 -0.1614424E-07  0.0000000E+00  0.1271102E-05
 -0.4937066E-02  0.0000000E+00 -0.5050505E-02 -0.1577290E-07  0.0000000E+00  0.1260337E-05
 -0.4906239E-02  0.0000000E+00 -0.5050505E-02 -0.1533892E-07  0.0000000E+00  0.1249843E-05
 -0.4866782E-02  0.0000000E+00 -0.5050505E-02 -0.1484339E-07  0.0000000E+00  0.1239663E-05
 -0.4827325E-02  0.0000000E+00 -0.5050505E-02 -0.1428731E-07  0.0000000E+00  0.1229836E-05
 -0.4769372E-02  0.0000000E+00 -0.5050505E-02 -0.1367138E-07  0.0000000E+00  0.1220405E-05
 -0.4690458E-02  0.0000000E+00 -0.5050505E-02 -0.1299582E-07  0.0000000E+00  0.1211407E-05
 -0.4611543E-02  0.0000000E+00 -0.5050505E-02 -0.1225997E-07  0.0000000E+00  0.1202883E-05
 -0.4503035E-02  0.0000000E+00 -0.5050505E-02 -0.1146169E-07  0.0000000E+00  0.1194874E-05
 -0.4345206E-02  0.0000000E+00 -0.5050505E-02 -0.1059630E-07  0.0000000E+00  0.1187421E-05
 -0.4187378E-02  0.0000000E+00 -0.5050505E-02 -0.9654744E-08  0.0000000E+00  0.1180569E-05
 -0.3985156E-02  0.0000000E+00 -0.5050505E-02 -0.8620207E-08  0.0000000E+00  0.1174369E-05
 -0.3669499E-02  0.0000000E+00 -0.5050505E-02 -0.7461527E-08  0.0000000E+00  0.1168883E-05
 -0.3353842E-02  0.0000000E+00 -0.5050505E-02 -0.6119850E-08  0.0000000E+00  0.1164188E-05
 -0.2978990E-02  0.0000000E+00 -0.5050505E-02 -0.4479973E-08  0.0000000E+00  0.1160389E-05
 -0.2347676E-02  0.0000000E+00 -0.5050505E-02 -0.2305164E-08  0.0000000E+00  0.1157619E-05
 -0.1716362E-02  0.0000000E+00 -0.5050505E-02  0.9200555E-09  0.0000000E+00  0.1156003E-05
 -0.1025842E-02  0.0000000E+00 -0.5050505E-02  0.6391380E-08  0.0000000E+00  0.1155390E-05
  0.2367855E-03  0.0000000E+00 -0.5050505E-02  0.1706388E-07  0.0000000E+00  0.1154011E-05
  0.1499413E-02  0.0000000E+00 -0.5050505E-02  0.4067289E-07  0.0000000E+00  0.1142171E-05
  0.5287294E-02  0.0000000E+00 -0.5050505E-02  0.9839094E-07  0.0000000E+00  0.1072959E-05
 -0.5050505E-02  0.0000000E+00 -0.5050505E-02  0.8319573E-09  0.0000000E+00  0.1182198E-05
 -0.5050505E-02  0.0000000E+00 -0.5050505E-02  0.2492573E-08  0.0000000E+00  0.1182878E-05
 -0.5050505E-02  0.0000000E+00 -0.5050505E-02  0.4143694E-08  0.0000000E+00  0.1184236E-05
 -0.5050505E-02  0.0000000E+00 -0.5050505E-02  0.5779097E-08  0.0000000E+00  0.1186265E-05
 -0.5050505E-02  0.0000000E+00 -0.5050505E-02  0.7392523E-08  0.0000000E+00  0.1188959E-05
 -0.5050505E-02  0.0000000E+00 -0.5050505E-02  0.8977789E-08  0.0000000E+00  0.1192307E-05
 -0.5050504E-02  0.0000000E+00 -0.5050505E-02  0.1052880E-07  0.0000000E+00  0.1196297E-05
 -0.5050501E-02  0.0000000E+00 -0.5050505E-02  0.1203954E-07  0.0000000E+00  0.1200913E-05
 -0.5050495E-02  0.0000000E+00 -0.5050505E-02  0.1350413E-07  0.0000000E+00  0.1206137E-05
 -0.5050482E-02  0.0000000E+00 -0.5050505E-02  0.1491680E-07  0.0000000E+00  0.1211950E-05
 -0.5050449E-02  0.0000000E+00 -0.5050505E-02  0.1627194E-07  0.0000000E+00  0.1218330E-05
 -0.5050376E-02  0.0000000E+00 -0.5050505E-02  0.1756410E-07  0.0000000E+00  0.1225251E-05
 -0.5050299E-02  0.0000000E+00 -0.5050505E-02  0.1878803E-07  0.0000000E+00  0.1232687E-05
 -0.5050178E-02  0.0000000E+00 -0.5050505E-02  0.1993867E-07  0.0000000E+00  0.1240609E-05
 -0.5050018E-02  0.0000000E+00 -0.5050505E-02  0.2101122E-07  0.0000000E+00  0.1248986E-05
 -0.5049710E-02  0.0000000E+00 -0.5050505E-02  0.2200108E-07  0.0000000E+00  0.1257786E-05
 -0.5049253E-02  0.0000000E+00 -0.5050505E-02  0.2290396E-07  0.0000000E+00  0.1266973E-05
 -0.5048636E-02  0.0000000E+00 -0.5050505E-02  0.2371583E-07  0.0000000E+00  0.1276511E-05
 -0.5047442E-02  0.0000000E+00 -0.5050505E-02  0.2443298E-07  0.0000000E+00  0.1286362E-05
 -0.5045727E-02  0.0000000E+00 -0.5050505E-02  0.2505203E-07  0.0000000E+00  0.1296487E-05
 -0.5043261E-02  0.0000000E+00 -0.5050505E-02  0.2556994E-07  0.0000000E+00  0.1306845E-05
 -0.5038714E-02  0.0000000E+00 -0.5050505E-02  0.2598405E-07  0.0000000E+00  0.1317395E-05
 -0.5032318E-02  0.0000000E+00 -0.5050505E-02  0.2629206E-07  0.0000000E+00  0.1328092E-05
 -0.5022454E-02  0.0000000E+00 -0.5050505E-02  0.2649210E-07  0.0000000E+00  0.1338894E-05
 -0.5012589E-02  0.0000000E+00 -0.5050505E-02  0.2658269E-07  0.0000000E+00  0.1349756E-05
 -0.5002725E-02  0.0000000E+00 -0.5050505E-02  0.2656281E-07  0.0000000E+00  0.1360633E-05
 -0.4992860E-02  0.0000000E+00 -0.5050505E-02  0.2643187E-07  0.0000000E+00  0.1371480E-05
 -0.4976523E-02  0.0000000E+00 -0.5050505E-02  0.2618976E-07  0.0000000E+00  0.1382251E-05
 -0.4956794E-02  0.0000000E+00 -0.5050505E-02  0.2583680E-07  0.0000000E+00  0.1392900E-05
 -0.4937066E-02  0.0000000E+00 -0.5050505E-02  0.2537384E-07  0.0000000E+00  0.1403384E-05
 -0.4906239E-02  0.0000000E+00 -0.5050505E-02  0.2480217E-07  0.0000000E+00  0.1413655E-05
 -0.4866782E-02  0.0000000E+00 -0.5050505E-02  0.2412359E-07  0.0000000E+00  0.1423672E-05
 -0.4827325E-02  0.0000000E+00 -0.5050505E-02  0.2334038E-07  0.0000000E+00  0.1433389E-05
 -0.4769372E-02  0.0000000E+00 -0.5050505E-02  0.2245531E-07  0.0000000E+00  0.1442766E-05
 -0.4690458E-02  0.0000000E+00 -0.5050505E-02  0.2147161E-07  0.0000000E+00  0.1451760E-05
 -0.4611543E-02  0.0000000E+00 -0.5050505E-02  0.2039300E-07  0.0000000E+00  0.1460333E-05
 -0.4503035E-02  0.0000000E+00 -0.5050505E-02  0.1922368E-07  0.0000000E+00  0.1468445E-05
 -0.4345206E-02  0.0000000E+00 -0.5050505E-02  0.1796825E-07  0.0000000E+00  0.1476062E-05
 -0.4187378E-02  0.0000000E+00 -0.5050505E-02  0.1663177E-07  0.0000000E+00  0.1483148E-05
 -0.3985156E-02  0.0000000E+00 -0.5050505E-02  0.1521971E-07  0.0000000E+00  0.1489672E-05
 -0.3669499E-02  0.0000000E+00 -0.5050505E-02  0.1373791E-07  0.0000000E+00  0.1495603E-05
 -0.3353842E-02  0.0000000E+00 -0.5050505E-02  0.1219259E-07  0.0000000E+00  0.1500915E-05
 -0.2978990E-02  0.0000000E+00 -0.5050505E-02  0.1059028E-07  0.0000000E+00  0.1505583E-05
 -0.2347676E-02  0.0000000E+00 -0.5050505E-02  0.8937816E-08  0.0000000E+00  0.1509584E-05
 -0.1716362E-02  0.0000000E+00 -0.5050505E-02  0.7242304E-08  0.0000000E+00  0.1512900E-05
 -0.1025842E-02  0.0000000E+00 -0.5050505E-02  0.5511072E-08  0.0000000E+00  0.1515514E-05
  0.2367855E-03  0.0000000E+00 -0.5050505E-02  0.3751643E-08  0.0000000E+00  0.1517413E-05
  0.1499413E-02  0.0000000E+00 -0.5050505E-02  0.1971689E-08  0.0000000E+00  0.1518588E-05
  0.2762042E-02  0.0000000E+00 -0.5050505E-02  0.1789931E-09  0.0000000E+00  0.1519032E-05
 -0.5050505E-02  0.0000000E+00 -0.5050505E-02 -0.1618594E-08  0.0000000E+00  0.1518740E-05
 -0.5050505E-02  0.0000000E+00 -0.5050505E-02 -0.3413191E-08  0.0000000E+00  0.1517712E-05
 -0.5050505E-02  0.0000000E+00 -0.5050505E-02 -0.5196933E-08  0.0000000E+00  0.1515953E-05
 -0.5050505E-02  0.0000000E+00 -0.5050505E-02 -0.6962017E-08  0.0000000E+00  0.1513466E-05
 -0.5050505E-02  0.0000000E+00 -0.5050505E-02 -0.8700736E-08  0.0000000E+00  0.1510262E-05
 -0.5050505E-02  0.0000000E+00 -0.5050505E-02 -0.1040553E-07  0.0000000E+00  0.1506353E-05
 -0.5050505E-02  0.0000000E+00 -0.5050505E-02 -0.1206900E-07  0.0000000E+00  0.1501755E-05
 -0.5050504E-02  0.0000000E+00 -0.5050505E-02 -0.1368398E-07  0.0000000E+00  0.1496485E-05
 -0.5050501E-02  0.0000000E+00 -0.5050505E-02 -0.1524356E-07  0.0000000E+00  0.1490565E-05
 -0.5050495E-02  0.0000000E+00 -0.5050505E-02 -0.1674112E-07  0.0000000E+00  0.1484020E-05
 -0.5050482E-02  0.0000000E+00 -0.5050505E-02 -0.1817033E-07  0.0000000E+00  0.1476876E-05
 -0.5050449E-02  0.0000000E+00 -0.5050505E-02 -0.1952525E-07  0.0000000E+00  0.1469162E-05
 -0.5050376E-02  0.0000000E+00 -0.5050505E-02 -0.2080029E-07  0.0000000E+00  0.1460909E-05
 -0.5050299E-02  0.0000000E+00 -0.5050505E-02 -0.2199025E-07  0.0000000E+00  0.1452152E-05
 -0.5050178E-02  0.0000000E+00 -0.5050505E-02 -0.2309037E-07  0.0000000E+00  0.1442927E-05
 -0.5050018E-02  0.0000000E+00 -0.5050505E-02 -0.2409632E-07  0.0000000E+00  0.1433271E-05
 -0.5049710E-02  0.0000000E+00 -0.5050505E-02 -0.2500420E-07  0.0000000E+00  0.1423224E-05
 -0.5049253E-02  0.0000000E+00 -0.5050505E-02 -0.2581058E-07  0.0000000E+00  0.1412826E-05
 -0.5048636E-02  0.0000000E+00 -0.5050505E-02 -0.2651250E-07  0.0000000E+00  0.1402119E-05
 -0.5047442E-02  0.0000000E+00 -0.5050505E-02 -0.2710747E-07  0.0000000E+00  0.1391148E-05
 -0.5045727E-02  0.0000000E+00 -0.5050505E-02 -0.2759346E-07  0.0000000E+00  0.1379955E-05
 -0.5043261E-02  0.0000000E+00 -0.5050505E-02 -0.2796891E-07  0.0000000E+00  0.1368587E-05
 -0.5038714E-02  0.0000000E+00 -0.5050505E-02 -0.2823271E-07  0.0000000E+00  0.1357088E-05
 -0.5032318E-02  0.0000000E+00 -0.5050505E-02 -0.2838422E-07  0.0000000E+00  0.1345505E-05
 -0.5022454E-02  0.0000000E+00 -0.5050505E-02 -0.2842321E-07  0.0000000E+00  0.1333882E-05
 -0.5012589E-02  0.0000000E+00 -0.5050505E-02 -0.2834988E-07  0.0000000E+00  0.1322268E-05
 -0.5002725E-02  0.0000000E+00 -0.5050505E-02 -0.2816482E-07  0.0000000E+00  0.1310706E-05
 -0.4992860E-02  0.0000000E+00 -0.5050505E-02 -0.2786898E-07  0.0000000E+00  0.1299242E-05
 -0.4976523E-02  0.0000000E+00 -0.5050505E-02 -0.2746363E-07  0.0000000E+00  0.1287923E-05
 -0.4956794E-02  0.0000000E+00 -0.5050505E-02 -0.2695032E-07  0.0000000E+00  0.1276791E-05
 -0.4937066E-02  0.0000000E+00 -0.5050505E-02 -0.2633083E-07  0.0000000E+00  0.1265890E-05
 -0.4906239E-02  0.0000000E+00 -0.5050505E-02 -0.2560705E-07  0.0000000E+00  0.1255263E-05
 -0.4866782E-02  0.0000000E+00 -0.5050505E-02 -0.2478093E-07  0.0000000E+00  0.1244953E-05
 -0.4827325E-02  0.0000000E+00 -0.5050505E-02 -0.2385428E-07  0.0000000E+00  0.1234999E-05
 -0.4769372E-02  0.0000000E+00 -0.5050505E-02 -0.2282854E-07  0.0000000E+00  0.1225443E-05
 -0.4690458E-02  0.0000000E+00 -0.5050505E-02 -0.2170449E-07  0.0000000E+00  0.1216323E-05
 -0.4611543E-02  0.0000000E+00 -0.5050505E-02 -0.2048173E-07  0.0000000E+00  0.1207677E-05
 -0.4503035E-02  0.0000000E+00 -0.5050505E-02 -0.1915785E-07  0.0000000E+00  0.1199544E-05
 -0.4345206E-02  0.0000000E+00 -0.5050505E-02 -0.1772713E-07  0.0000000E+00  0.1191961E-05
 -0.4187378E-02  0.0000000E+00 -0.5050505E-02 -0.1617834E-07  0.0000000E+00  0.1184967E-05
 -0.3985156E-02  0.0000000E+00 -0.5050505E-02 -0.1449092E-07  0.0000000E+00  0.1178599E-05
 -0.3669499E-02  0.0000000E+00 -0.5050505E-02 -0.1262826E-07  0.0000000E+00  0.1172894E-05
 -0.3353842E-02  0.0000000E+00 -0.5050505E-02 -0.1052548E-07  0.0000000E+00  0.1167886E-05
 -0.2978990E-02  0.0000000E+00 -0.5050505E-02 -0.8067243E-08  0.0000000E+00  0.1163587E-05
 -0.2347676E-02  0.0000000E+00 -0.5050505E-02 -0.5047920E-08  0.0000000E+00  0.1159953E-05
 -0.1716362E-02  0.0000000E+00 -0.5050505E-02 -0.1106132E-08  0.0000000E+00  0.1156765E-05
 -0.1025842E-02  0.0000000E+00 -0.5050505E-02  0.4351560E-08  0.0000000E+00  0.1153330E-05
  0.2367855E-03  0.0000000E+00 -0.5050505E-02  0.1207104E-07  0.0000000E+00  0.1147768E-05
  0.1499413E-02  0.0000000E+00 -0.5050505E-02  0.2178186E-07  0.0000000E+00  0.1135915E-05
  0.5287294E-02  0.0000000E+00 -0.5050505E-02  0.2545259E-07  0.0000000E+00  0.1113562E-05
 -0.5050505E-02  0.0000000E+00 -0.5050505E-02  0.1168744E-08  0.0000000E+00  0.1188785E-05
 -0.5050505E-02  0.0000000E+00 -0.5050505E-02  0.3501646E-08  0.0000000E+00  0.1189477E-05
 -0.5050505E-02  0.0000000E+00 -0.5050505E-02  0.5821228E-08  0.0000000E+00  0.1190859E-05
 -0.5050505E-02  0.0000000E+00 -0.5050505E-02  0.8118747E-08  0.0000000E+00  0.1192926E-05
 -0.5050505E-02  0.0000000E+00 -0.5050505E-02  0.1038542E-07  0.0000000E+00  0.1195669E-05
 -0.5050505E-02  0.0000000E+00 -0.5050505E-02  0.1261258E-07  0.0000000E+00  0.1199078E-05
 -0.5050504E-02  0.0000000E+00 -0.5050505E-02  0.1479166E-07  0.0000000E+00  0.1203141E-05
 -0.5050501E-02  0.0000000E+00 -0.5050505E-02  0.1691423E-07  0.0000000E+00  0.1207841E-05
 -0.5050495E-02  0.0000000E+00 -0.5050505E-02  0.1897201E-07  0.0000000E+00  0.1213162E-05
 -0.5050482E-02  0.0000000E+00 -0.5050505E-02  0.2095693E-07  0.0000000E+00  0.1219082E-05
 -0.5050449E-02  0.0000000E+00 -0.5050505E-02  0.2286109E-07  0.0000000E+00  0.1225579E-05
 -0.5050376E-02  0.0000000E+00 -0.5050505E-02  0.2467685E-07  0.0000000E+00  0.1232628E-05
 -0.5050299E-02  0.0000000E+00 -0.5050505E-02  0.2639682E-07  0.0000000E+00  0.1240202E-05
 -0.5050178E-02  0.0000000E+00 -0.5050505E-02  0.2801391E-07  0.0000000E+00  0.1248271E-05
 -0.5050018E-02  0.0000000E+00 -0.5050505E-02  0.2952135E-07  0.0000000E+00  0.1256804E-05
 -0.5049710E-02  0.0000000E+00 -0.5050505E-02  0.3091270E-07  0.0000000E+00  0.1265768E-05
 -0.5049253E-02  0.0000000E+00 -0.5050505E-02  0.3218190E-07  0.0000000E+00  0.1275127E-05
 -0.5048636E-02  0.0000000E+00 -0.5050505E-02  0.3332331E-07  0.0000000E+00  0.1284844E-05
 -0.5047442E-02  0.0000000E+00 -0.5050505E-02  0.3433170E-07  0.0000000E+00  0.1294881E-05
 -0.5045727E-02  0.0000000E+00 -0.5050505E-02  0.3520231E-07  0.0000000E+00  0.1305197E-05
 -0.5043261E-02  0.0000000E+00 -0.5050505E-02  0.3593085E-07  0.0000000E+00  0.1315752E-05
 -0.5038714E-02  0.0000000E+00 -0.5050505E-02  0.3651358E-07  0.0000000E+00  0.1326502E-05
 -0.5032318E-02  0.0000000E+00 -0.5050505E-02  0.3694726E-07  0.0000000E+00  0.1337404E-05
 -0.5022454E-02  0.0000000E+00 -0.5050505E-02  0.3722924E-07  0.0000000E+00  0.1348413E-05
 -0.5012589E-02  0.0000000E+00 -0.5050505E-02  0.3735744E-07  0.0000000E+00  0.1359484E-05
 -0.5002725E-02  0.0000000E+00 -0.5050505E-02  0.3733041E-07  0.0000000E+00  0.1370571E-05
 -0.4992860E-02  0.0000000E+00 -0.5050505E-02  0.3714731E-07  0.0000000E+00  0.1381628E-05
 -0.4976523E-02  0.0000000E+00 -0.5050505E-02  0.3680795E-07  0.0000000E+00  0.1392608E-05
 -0.4956794E-02  0.0000000E+00 -0.5050505E-02  0.3631281E-07  0.0000000E+00  0.1403466E-05
 -0.4937066E-02  0.0000000E+00 -0.5050505E-02  0.3566304E-07  0.0000000E+00  0.1414154E-05