title = "dataset feddes"
variables = "time", "inflow", "outflow", "change in storage", "root water uptake" 
zone t = "mass balance -  variably saturated flow", f=point
  1.0000E-10  0.0000E+00  1.6952E-10  0.0000E+00  0.0000E+00
  6.0000E-10  0.0000E+00  1.6952E-10 -4.7998E-10  0.0000E+00
  3.1000E-09  0.0000E+00  1.6952E-10  1.9296E-10  0.0000E+00
  1.5600E-08  0.0000E+00  1.6952E-10 -9.5219E-11  0.0000E+00
  7.8100E-08  0.0000E+00  1.6952E-10 -1.7962E-10  0.0000E+00
  3.9060E-07  0.0000E+00  1.6952E-10 -1.7423E-10  0.0000E+00
  1.9531E-06  0.0000E+00  1.6952E-10 -1.6763E-10  0.0000E+00
  9.7656E-06  0.0000E+00  1.6952E-10 -1.6954E-10  0.0000E+00
  4.8828E-05  0.0000E+00  1.6953E-10 -1.6961E-10  0.0000E+00
  2.4414E-04  0.0000E+00  1.6955E-10 -1.6955E-10  0.0000E+00
  1.2207E-03  0.0000E+00  1.6972E-10 -1.6967E-10  0.0000E+00
  6.1035E-03  0.0000E+00  1.7019E-10 -1.6632E-10  0.0000E+00
  3.0518E-02  0.0000E+00  1.6909E-10 -1.2201E-10  0.0000E+00
  1.5259E-01  0.0000E+00  1.6778E-10 -5.2110E-11  0.0000E+00
  7.6294E-01  0.0000E+00  1.7039E-10 -2.3982E-11  0.0000E+00
  1.0000E+00  0.0000E+00  1.7016E-10 -6.9831E-11  0.0000E+00
  2.0000E+00  0.0000E+00  1.6163E-10 -2.2528E-11  0.0000E+00
  3.0000E+00  0.0000E+00  1.6091E-10 -1.5840E-11  0.0000E+00
  4.0000E+00  0.0000E+00  1.5830E-10 -1.5698E-11  0.0000E+00
  5.0000E+00  0.0000E+00  1.5923E-10 -2.0812E-11  0.0000E+00
  6.0000E+00  0.0000E+00  1.5864E-10 -1.1875E-11  0.0000E+00
  7.0000E+00  0.0000E+00  1.6072E-10 -3.0707E-11  0.0000E+00
  8.0000E+00  0.0000E+00  1.6015E-10 -9.2476E-12  0.0000E+00
  9.0000E+00  0.0000E+00  1.4829E-10 -5.1840E-09  0.0000E+00
  1.0000E+01  0.0000E+00  1.2801E-10 -1.1022E-08  0.0000E+00
  1.1000E+01  0.0000E+00  1.1054E-10 -1.2291E-08  0.0000E+00
  1.2000E+01  0.0000E+00  9.0702E-11 -1.4226E-08  0.0000E+00
  1.3000E+01  0.0000E+00  5.7745E-11 -2.0100E-08  0.0000E+00
  1.4000E+01  9.6761E-12  6.3683E-12 -2.4727E-08  0.0000E+00
  1.5000E+01  1.0756E-10  0.0000E+00 -3.2156E-08  0.0000E+00
  1.6000E+01  2.5144E-10  0.0000E+00 -2.5257E-08  0.0000E+00
  1.7000E+01  4.6163E-10  0.0000E+00 -2.9461E-08  0.0000E+00
  1.8000E+01  7.6267E-10  0.0000E+00 -5.0378E-08  0.0000E+00
  1.9000E+01  1.1338E-09  0.0000E+00 -5.5804E-08  0.0000E+00
  2.0000E+01  1.6004E-09  0.0000E+00 -7.3111E-08  0.0000E+00
  2.1000E+01  2.1678E-09  0.0000E+00 -6.9872E-08  0.0000E+00
  2.2000E+01  2.8736E-09  0.0000E+00 -8.4924E-08  0.0000E+00
  2.3000E+01  3.7232E-09  0.0000E+00 -1.1309E-07  0.0000E+00
  2.4000E+01  4.7415E-09  0.0000E+00 -1.2527E-07  0.0000E+00
  2.5000E+01  5.9378E-09  0.0000E+00 -1.0920E-07  0.0000E+00
  2.6000E+01  7.3840E-09  0.0000E+00 -1.4764E-07  0.0000E+00
  2.7000E+01  9.0192E-09  0.0000E+00 -7.7605E-08  0.0000E+00
  2.8000E+01  1.0926E-08  0.0000E+00 -1.5014E-07  0.0000E+00
  2.9000E+01  1.3022E-08  0.0000E+00 -1.5049E-07  0.0000E+00
  3.0000E+01  1.5354E-08  0.0000E+00 -3.1618E-07  0.0000E+00
  3.1000E+01  1.7941E-08  0.0000E+00 -3.3604E-07  0.0000E+00
  3.2000E+01  2.0972E-08  0.0000E+00 -4.8389E-07  0.0000E+00
  3.3000E+01  2.4609E-08  0.0000E+00 -4.6362E-07  0.0000E+00
  3.4000E+01  2.9140E-08  0.0000E+00 -7.8738E-07  0.0000E+00
  3.5000E+01  3.4809E-08  0.0000E+00 -9.0574E-07  0.0000E+00
  3.6000E+01  4.1974E-08  0.0000E+00 -1.0413E-06  0.0000E+00
  3.7000E+01  5.1160E-08  0.0000E+00 -1.8161E-06  0.0000E+00
  3.8000E+01  6.3051E-08  0.0000E+00 -2.2055E-06  0.0000E+00
  3.9000E+01  7.8722E-08  0.0000E+00 -3.1123E-06  0.0000E+00
  4.0000E+01  1.0016E-07  0.0000E+00 -5.5020E-06  0.0000E+00
  4.1000E+01  1.3003E-07  0.0000E+00 -7.4697E-06  0.0000E+00
  4.2000E+01  1.7246E-07  0.0000E+00 -1.0427E-05  0.0000E+00
  4.3000E+01  2.3393E-07  0.0000E+00 -1.7568E-05  0.0000E+00
  4.4000E+01  3.2446E-07  0.0000E+00 -2.5372E-05  0.0000E+00
  4.5000E+01  4.5879E-07  0.0000E+00 -3.5970E-05  0.0000E+00
  4.6000E+01  6.5547E-07  0.0000E+00 -4.2673E-05  0.0000E+00
  4.7000E+01  9.3670E-07  0.0000E+00 -5.7877E-05  0.0000E+00
  4.8000E+01  1.3302E-06  0.0000E+00 -7.9040E-05  0.0000E+00
  4.9000E+01  1.8697E-06  0.0000E+00 -9.5537E-05  0.0000E+00
  5.0000E+01  2.5959E-06  0.0000E+00 -1.2476E-04  0.0000E+00
  5.1000E+01  3.5533E-06  0.0000E+00 -1.4000E-04  0.0000E+00
  5.2000E+01  4.7893E-06  0.0000E+00 -1.7504E-04  0.0000E+00
  5.3000E+01  6.3580E-06  0.0000E+00 -2.1906E-04  0.0000E+00
  5.4000E+01  8.3166E-06  0.0000E+00 -2.4080E-04  0.0000E+00
  5.5000E+01  1.0717E-05  0.0000E+00 -2.6786E-04  0.0000E+00
  5.6000E+01  1.3615E-05  0.0000E+00 -3.3638E-04  0.0000E+00
  5.7000E+01  1.7065E-05  0.0000E+00 -3.6671E-04  0.0000E+00
  5.8000E+01  2.1124E-05  0.0000E+00 -4.3709E-04  0.0000E+00
  5.9000E+01  2.5854E-05  0.0000E+00 -4.9876E-04  0.0000E+00
  6.0000E+01  3.1317E-05  0.0000E+00 -5.6600E-04  0.0000E+00
