title = "dataset feddes"
variables = "x", "y", "z", "vx", "vy", "vz"
zone t = "velocities, solution time =  3.800E+01 days        " i =   99, j =   99, k =    1,  f=point
 -0.5050505E-02  0.0000000E+00 -0.5050505E-02  0.4513476E-11  0.0000000E+00  0.5840048E-07
 -0.5050505E-02  0.0000000E+00 -0.5050505E-02  0.1459500E-10  0.0000000E+00  0.5841970E-07
 -0.5050505E-02  0.0000000E+00 -0.5050505E-02  0.2471368E-10  0.0000000E+00  0.5845923E-07
 -0.5050505E-02  0.0000000E+00 -0.5050505E-02  0.3456617E-10  0.0000000E+00  0.5851884E-07
 -0.5050505E-02  0.0000000E+00 -0.5050505E-02  0.4423116E-10  0.0000000E+00  0.5859809E-07
 -0.5050505E-02  0.0000000E+00 -0.5050505E-02  0.5370188E-10  0.0000000E+00  0.5869657E-07
 -0.5050504E-02  0.0000000E+00 -0.5050505E-02  0.6295414E-10  0.0000000E+00  0.5881389E-07
 -0.5050501E-02  0.0000000E+00 -0.5050505E-02  0.7195727E-10  0.0000000E+00  0.5894957E-07
 -0.5050495E-02  0.0000000E+00 -0.5050505E-02  0.8067826E-10  0.0000000E+00  0.5910307E-07
 -0.5050482E-02  0.0000000E+00 -0.5050505E-02  0.8908365E-10  0.0000000E+00  0.5927379E-07
 -0.5050449E-02  0.0000000E+00 -0.5050505E-02  0.9714038E-10  0.0000000E+00  0.5946107E-07
 -0.5050376E-02  0.0000000E+00 -0.5050505E-02  0.1048162E-09  0.0000000E+00  0.5966417E-07
 -0.5050299E-02  0.0000000E+00 -0.5050505E-02  0.1120801E-09  0.0000000E+00  0.5988229E-07
 -0.5050178E-02  0.0000000E+00 -0.5050505E-02  0.1189023E-09  0.0000000E+00  0.6011458E-07
 -0.5050018E-02  0.0000000E+00 -0.5050505E-02  0.1252544E-09  0.0000000E+00  0.6036012E-07
 -0.5049710E-02  0.0000000E+00 -0.5050505E-02  0.1311097E-09  0.0000000E+00  0.6061794E-07
 -0.5049253E-02  0.0000000E+00 -0.5050505E-02  0.1364431E-09  0.0000000E+00  0.6088701E-07
 -0.5048636E-02  0.0000000E+00 -0.5050505E-02  0.1412313E-09  0.0000000E+00  0.6116625E-07
 -0.5047442E-02  0.0000000E+00 -0.5050505E-02  0.1454531E-09  0.0000000E+00  0.6145456E-07
 -0.5045727E-02  0.0000000E+00 -0.5050505E-02  0.1490891E-09  0.0000000E+00  0.6175077E-07
 -0.5043261E-02  0.0000000E+00 -0.5050505E-02  0.1521223E-09  0.0000000E+00  0.6205369E-07
 -0.5038714E-02  0.0000000E+00 -0.5050505E-02  0.1545377E-09  0.0000000E+00  0.6236209E-07
 -0.5032318E-02  0.0000000E+00 -0.5050505E-02  0.1563229E-09  0.0000000E+00  0.6267471E-07
 -0.5022454E-02  0.0000000E+00 -0.5050505E-02  0.1574677E-09  0.0000000E+00  0.6299027E-07
 -0.5012589E-02  0.0000000E+00 -0.5050505E-02  0.1579646E-09  0.0000000E+00  0.6330749E-07
 -0.5002725E-02  0.0000000E+00 -0.5050505E-02  0.1578086E-09  0.0000000E+00  0.6362505E-07
 -0.4992860E-02  0.0000000E+00 -0.5050505E-02  0.1569972E-09  0.0000000E+00  0.6394164E-07
 -0.4976523E-02  0.0000000E+00 -0.5050505E-02  0.1555310E-09  0.0000000E+00  0.6425594E-07
 -0.4956794E-02  0.0000000E+00 -0.5050505E-02  0.1534129E-09  0.0000000E+00  0.6456664E-07
 -0.4937066E-02  0.0000000E+00 -0.5050505E-02  0.1506489E-09  0.0000000E+00  0.6487242E-07
 -0.4906239E-02  0.0000000E+00 -0.5050505E-02  0.1472475E-09  0.0000000E+00  0.6517200E-07
 -0.4866782E-02  0.0000000E+00 -0.5050505E-02  0.1432202E-09  0.0000000E+00  0.6546411E-07
 -0.4827325E-02  0.0000000E+00 -0.5050505E-02  0.1385812E-09  0.0000000E+00  0.6574751E-07
 -0.4769372E-02  0.0000000E+00 -0.5050505E-02  0.1333475E-09  0.0000000E+00  0.6602098E-07
 -0.4690458E-02  0.0000000E+00 -0.5050505E-02  0.1275386E-09  0.0000000E+00  0.6628334E-07
 -0.4611543E-02  0.0000000E+00 -0.5050505E-02  0.1211769E-09  0.0000000E+00  0.6653347E-07
 -0.4503035E-02  0.0000000E+00 -0.5050505E-02  0.1142873E-09  0.0000000E+00  0.6677027E-07
 -0.4345206E-02  0.0000000E+00 -0.5050505E-02  0.1068969E-09  0.0000000E+00  0.6699270E-07
 -0.4187378E-02  0.0000000E+00 -0.5050505E-02  0.9903557E-10  0.0000000E+00  0.6719980E-07
 -0.3985156E-02  0.0000000E+00 -0.5050505E-02  0.9073498E-10  0.0000000E+00  0.6739065E-07
 -0.3669499E-02  0.0000000E+00 -0.5050505E-02  0.8202896E-10  0.0000000E+00  0.6756439E-07
 -0.3353842E-02  0.0000000E+00 -0.5050505E-02  0.7295299E-10  0.0000000E+00  0.6772025E-07
 -0.2978990E-02  0.0000000E+00 -0.5050505E-02  0.6354391E-10  0.0000000E+00  0.6785752E-07
 -0.2347676E-02  0.0000000E+00 -0.5050505E-02  0.5383945E-10  0.0000000E+00  0.6797557E-07
 -0.1716362E-02  0.0000000E+00 -0.5050505E-02  0.4387783E-10  0.0000000E+00  0.6807384E-07
 -0.1025842E-02  0.0000000E+00 -0.5050505E-02  0.3369734E-10  0.0000000E+00  0.6815185E-07
  0.2367855E-03  0.0000000E+00 -0.5050505E-02  0.2333656E-10  0.0000000E+00  0.6820921E-07
  0.1499413E-02  0.0000000E+00 -0.5050505E-02  0.1283513E-10  0.0000000E+00  0.6824559E-07
  0.2762042E-02  0.0000000E+00 -0.5050505E-02  0.2235421E-11  0.0000000E+00  0.6826074E-07
 -0.5050505E-02  0.0000000E+00 -0.5050505E-02 -0.8417646E-11  0.0000000E+00  0.6825452E-07
 -0.5050505E-02  0.0000000E+00 -0.5050505E-02 -0.1903580E-10  0.0000000E+00  0.6822692E-07
 -0.5050505E-02  0.0000000E+00 -0.5050505E-02 -0.2961332E-10  0.0000000E+00  0.6817799E-07
 -0.5050505E-02  0.0000000E+00 -0.5050505E-02 -0.4003921E-10  0.0000000E+00  0.6810794E-07
 -0.5050505E-02  0.0000000E+00 -0.5050505E-02 -0.5028364E-10  0.0000000E+00  0.6801711E-07
 -0.5050505E-02  0.0000000E+00 -0.5050505E-02 -0.6031945E-10  0.0000000E+00  0.6790588E-07
 -0.5050505E-02  0.0000000E+00 -0.5050505E-02 -0.7011311E-10  0.0000000E+00  0.6777471E-07
 -0.5050504E-02  0.0000000E+00 -0.5050505E-02 -0.7962715E-10  0.0000000E+00  0.6762412E-07
 -0.5050501E-02  0.0000000E+00 -0.5050505E-02 -0.8882301E-10  0.0000000E+00  0.6745472E-07
 -0.5050495E-02  0.0000000E+00 -0.5050505E-02 -0.9766262E-10  0.0000000E+00  0.6726717E-07
 -0.5050482E-02  0.0000000E+00 -0.5050505E-02 -0.1061092E-09  0.0000000E+00  0.6706225E-07
 -0.5050449E-02  0.0000000E+00 -0.5050505E-02 -0.1141278E-09  0.0000000E+00  0.6684076E-07
 -0.5050376E-02  0.0000000E+00 -0.5050505E-02 -0.1216852E-09  0.0000000E+00  0.6660362E-07
 -0.5050299E-02  0.0000000E+00 -0.5050505E-02 -0.1287507E-09  0.0000000E+00  0.6635176E-07
 -0.5050178E-02  0.0000000E+00 -0.5050505E-02 -0.1352956E-09  0.0000000E+00  0.6608622E-07
 -0.5050018E-02  0.0000000E+00 -0.5050505E-02 -0.1412935E-09  0.0000000E+00  0.6580806E-07
 -0.5049710E-02  0.0000000E+00 -0.5050505E-02 -0.1467208E-09  0.0000000E+00  0.6551842E-07
 -0.5049253E-02  0.0000000E+00 -0.5050505E-02 -0.1515561E-09  0.0000000E+00  0.6521845E-07
 -0.5048636E-02  0.0000000E+00 -0.5050505E-02 -0.1557807E-09  0.0000000E+00  0.6490938E-07
 -0.5047442E-02  0.0000000E+00 -0.5050505E-02 -0.1593787E-09  0.0000000E+00  0.6459243E-07
 -0.5045727E-02  0.0000000E+00 -0.5050505E-02 -0.1623364E-09  0.0000000E+00  0.6426890E-07
 -0.5043261E-02  0.0000000E+00 -0.5050505E-02 -0.1646429E-09  0.0000000E+00  0.6394006E-07
 -0.5038714E-02  0.0000000E+00 -0.5050505E-02 -0.1662901E-09  0.0000000E+00  0.6360726E-07
 -0.5032318E-02  0.0000000E+00 -0.5050505E-02 -0.1672719E-09  0.0000000E+00  0.6327181E-07
 -0.5022454E-02  0.0000000E+00 -0.5050505E-02 -0.1675849E-09  0.0000000E+00  0.6293505E-07
 -0.5012589E-02  0.0000000E+00 -0.5050505E-02 -0.1672280E-09  0.0000000E+00  0.6259834E-07
 -0.5002725E-02  0.0000000E+00 -0.5050505E-02 -0.1662019E-09  0.0000000E+00  0.6226303E-07
 -0.4992860E-02  0.0000000E+00 -0.5050505E-02 -0.1645093E-09  0.0000000E+00  0.6193044E-07
 -0.4976523E-02  0.0000000E+00 -0.5050505E-02 -0.1621545E-09  0.0000000E+00  0.6160193E-07
 -0.4956794E-02  0.0000000E+00 -0.5050505E-02 -0.1591426E-09  0.0000000E+00  0.6127881E-07
 -0.4937066E-02  0.0000000E+00 -0.5050505E-02 -0.1554793E-09  0.0000000E+00  0.6096241E-07
 -0.4906239E-02  0.0000000E+00 -0.5050505E-02 -0.1511700E-09  0.0000000E+00  0.6065402E-07
 -0.4866782E-02  0.0000000E+00 -0.5050505E-02 -0.1462184E-09  0.0000000E+00  0.6035495E-07
 -0.4827325E-02  0.0000000E+00 -0.5050505E-02 -0.1406249E-09  0.0000000E+00  0.6006648E-07
 -0.4769372E-02  0.0000000E+00 -0.5050505E-02 -0.1343837E-09  0.0000000E+00  0.5978992E-07
 -0.4690458E-02  0.0000000E+00 -0.5050505E-02 -0.1274787E-09  0.0000000E+00  0.5952657E-07
 -0.4611543E-02  0.0000000E+00 -0.5050505E-02 -0.1198764E-09  0.0000000E+00  0.5927781E-07
 -0.4503035E-02  0.0000000E+00 -0.5050505E-02 -0.1115147E-09  0.0000000E+00  0.5904511E-07
 -0.4345206E-02  0.0000000E+00 -0.5050505E-02 -0.1022822E-09  0.0000000E+00  0.5883011E-07
 -0.4187378E-02  0.0000000E+00 -0.5050505E-02 -0.9198191E-10  0.0000000E+00  0.5863474E-07
 -0.3985156E-02  0.0000000E+00 -0.5050505E-02 -0.8026106E-10  0.0000000E+00  0.5846152E-07
 -0.3669499E-02  0.0000000E+00 -0.5050505E-02 -0.6646986E-10  0.0000000E+00  0.5831396E-07
 -0.3353842E-02  0.0000000E+00 -0.5050505E-02 -0.4935736E-10  0.0000000E+00  0.5819748E-07
 -0.2978990E-02  0.0000000E+00 -0.5050505E-02 -0.2636520E-10  0.0000000E+00  0.5812133E-07
 -0.2347676E-02  0.0000000E+00 -0.5050505E-02  0.8158757E-11  0.0000000E+00  0.5810302E-07
 -0.1716362E-02  0.0000000E+00 -0.5050505E-02  0.6786825E-10  0.0000000E+00  0.5817947E-07
 -0.1025842E-02  0.0000000E+00 -0.5050505E-02  0.1893470E-09  0.0000000E+00  0.5843815E-07
  0.2367855E-03  0.0000000E+00 -0.5050505E-02  0.4817343E-09  0.0000000E+00  0.5911303E-07
  0.1499413E-02  0.0000000E+00 -0.5050505E-02  0.1305484E-08  0.0000000E+00  0.6091037E-07
  0.5287294E-02  0.0000000E+00 -0.5050505E-02  0.2150983E-07  0.0000000E+00  0.4866843E-07
 -0.5050505E-02  0.0000000E+00 -0.5050505E-02  0.1382288E-10  0.0000000E+00  0.5847125E-07
 -0.5050505E-02  0.0000000E+00 -0.5050505E-02  0.4391331E-10  0.0000000E+00  0.5849099E-07
 -0.5050505E-02  0.0000000E+00 -0.5050505E-02  0.7418828E-10  0.0000000E+00  0.5853092E-07
 -0.5050505E-02  0.0000000E+00 -0.5050505E-02  0.1037203E-09  0.0000000E+00  0.5859094E-07
 -0.5050505E-02  0.0000000E+00 -0.5050505E-02  0.1327085E-09  0.0000000E+00  0.5867066E-07
 -0.5050505E-02  0.0000000E+00 -0.5050505E-02  0.1611202E-09  0.0000000E+00  0.5876973E-07
 -0.5050504E-02  0.0000000E+00 -0.5050505E-02  0.1888783E-09  0.0000000E+00  0.5888774E-07
 -0.5050501E-02  0.0000000E+00 -0.5050505E-02  0.2158898E-09  0.0000000E+00  0.5902421E-07
 -0.5050495E-02  0.0000000E+00 -0.5050505E-02  0.2420553E-09  0.0000000E+00  0.5917861E-07
 -0.5050482E-02  0.0000000E+00 -0.5050505E-02  0.2672741E-09  0.0000000E+00  0.5935033E-07
 -0.5050449E-02  0.0000000E+00 -0.5050505E-02  0.2914472E-09  0.0000000E+00  0.5953871E-07
 -0.5050376E-02  0.0000000E+00 -0.5050505E-02  0.3144779E-09  0.0000000E+00  0.5974300E-07
 -0.5050299E-02  0.0000000E+00 -0.5050505E-02  0.3362729E-09  0.0000000E+00  0.5996241E-07
 -0.5050178E-02  0.0000000E+00 -0.5050505E-02  0.3567429E-09  0.0000000E+00  0.6019607E-07
 -0.5050018E-02  0.0000000E+00 -0.5050505E-02  0.3758028E-09  0.0000000E+00  0.6044307E-07
 -0.5049710E-02  0.0000000E+00 -0.5050505E-02  0.3933723E-09  0.0000000E+00  0.6070241E-07
 -0.5049253E-02  0.0000000E+00 -0.5050505E-02  0.4093762E-09  0.0000000E+00  0.6097308E-07
 -0.5048636E-02  0.0000000E+00 -0.5050505E-02  0.4237447E-09  0.0000000E+00  0.6125399E-07
 -0.5047442E-02  0.0000000E+00 -0.5050505E-02  0.4364138E-09  0.0000000E+00  0.6154402E-07
 -0.5045727E-02  0.0000000E+00 -0.5050505E-02  0.4473257E-09  0.0000000E+00  0.6184201E-07
 -0.5043261E-02  0.0000000E+00 -0.5050505E-02  0.4564289E-09  0.0000000E+00  0.6214674E-07
 -0.5038714E-02  0.0000000E+00 -0.5050505E-02  0.4636788E-09  0.0000000E+00  0.6245700E-07
 -0.5032318E-02  0.0000000E+00 -0.5050505E-02  0.4690379E-09  0.0000000E+00  0.6277151E-07
 -0.5022454E-02  0.0000000E+00 -0.5050505E-02  0.4724757E-09  0.0000000E+00  0.6308899E-07
 -0.5012589E-02  0.0000000E+00 -0.5050505E-02  0.4739694E-09  0.0000000E+00  0.6340813E-07
 -0.5002725E-02  0.0000000E+00 -0.5050505E-02  0.4735041E-09  0.0000000E+00  0.6372763E-07
 -0.4992860E-02  0.0000000E+00 -0.5050505E-02  0.4710727E-09  0.0000000E+00  0.6404616E-07
 -0.4976523E-02  0.0000000E+00 -0.5050505E-02  0.4666762E-09  0.0000000E+00  0.6436238E-07
 -0.4956794E-02  0.0000000E+00 -0.5050505E-02  0.4603238E-09  0.0000000E+00  0.6467499E-07
 -0.4937066E-02  0.0000000E+00 -0.5050505E-02  0.4520330E-09  0.0000000E+00  0.6498266E-07
 -0.4906239E-02  0.0000000E+00 -0.5050505E-02  0.4418298E-09  0.0000000E+00  0.6528410E-07
 -0.4866782E-02  0.0000000E+00 -0.5050505E-02  0.4297485E-09  0.0000000E+00  0.6557802E-07
 -0.4827325E-02  0.0000000E+00 -0.5050505E-02  0.4158315E-09  0.0000000E+00  0.6586319E-07
 -0.4769372E-02  0.0000000E+00 -0.5050505E-02  0.4001297E-09  0.0000000E+00  0.6613836E-07
 -0.4690458E-02  0.0000000E+00 -0.5050505E-02  0.3827021E-09  0.0000000E+00  0.6640237E-07
 -0.4611543E-02  0.0000000E+00 -0.5050505E-02  0.3636155E-09  0.0000000E+00  0.6665407E-07
 -0.4503035E-02  0.0000000E+00 -0.5050505E-02  0.3429443E-09  0.0000000E+00  0.6689237E-07
 -0.4345206E-02  0.0000000E+00 -0.5050505E-02  0.3207707E-09  0.0000000E+00  0.6711621E-07
 -0.4187378E-02  0.0000000E+00 -0.5050505E-02  0.2971835E-09  0.0000000E+00  0.6732463E-07
 -0.3985156E-02  0.0000000E+00 -0.5050505E-02  0.2722783E-09  0.0000000E+00  0.6751670E-07
 -0.3669499E-02  0.0000000E+00 -0.5050505E-02  0.2461564E-09  0.0000000E+00  0.6769156E-07
 -0.3353842E-02  0.0000000E+00 -0.5050505E-02  0.2189245E-09  0.0000000E+00  0.6784843E-07
 -0.2978990E-02  0.0000000E+00 -0.5050505E-02  0.1906930E-09  0.0000000E+00  0.6798660E-07
 -0.2347676E-02  0.0000000E+00 -0.5050505E-02  0.1615752E-09  0.0000000E+00  0.6810542E-07
 -0.1716362E-02  0.0000000E+00 -0.5050505E-02  0.1316854E-09  0.0000000E+00  0.6820436E-07
 -0.1025842E-02  0.0000000E+00 -0.5050505E-02  0.1011378E-09  0.0000000E+00  0.6828291E-07
  0.2367855E-03  0.0000000E+00 -0.5050505E-02  0.7004717E-10  0.0000000E+00  0.6834067E-07
  0.1499413E-02  0.0000000E+00 -0.5050505E-02  0.3853302E-10  0.0000000E+00  0.6837731E-07
  0.2762042E-02  0.0000000E+00 -0.5050505E-02  0.6727797E-11  0.0000000E+00  0.6839260E-07
 -0.5050505E-02  0.0000000E+00 -0.5050505E-02 -0.2525065E-10  0.0000000E+00  0.6838638E-07
 -0.5050505E-02  0.0000000E+00 -0.5050505E-02 -0.5711113E-10  0.0000000E+00  0.6835861E-07
 -0.5050505E-02  0.0000000E+00 -0.5050505E-02 -0.8883360E-10  0.0000000E+00  0.6830941E-07
 -0.5050505E-02  0.0000000E+00 -0.5050505E-02 -0.1201135E-09  0.0000000E+00  0.6823899E-07
 -0.5050505E-02  0.0000000E+00 -0.5050505E-02 -0.1508541E-09  0.0000000E+00  0.6814764E-07
 -0.5050505E-02  0.0000000E+00 -0.5050505E-02 -0.1809692E-09  0.0000000E+00  0.6803578E-07
 -0.5050505E-02  0.0000000E+00 -0.5050505E-02 -0.2103571E-09  0.0000000E+00  0.6790384E-07
 -0.5050504E-02  0.0000000E+00 -0.5050505E-02 -0.2389052E-09  0.0000000E+00  0.6775236E-07
 -0.5050501E-02  0.0000000E+00 -0.5050505E-02 -0.2664981E-09  0.0000000E+00  0.6758196E-07
 -0.5050495E-02  0.0000000E+00 -0.5050505E-02 -0.2930217E-09  0.0000000E+00  0.6739330E-07
 -0.5050482E-02  0.0000000E+00 -0.5050505E-02 -0.3183658E-09  0.0000000E+00  0.6718715E-07
 -0.5050449E-02  0.0000000E+00 -0.5050505E-02 -0.3424253E-09  0.0000000E+00  0.6696435E-07
 -0.5050376E-02  0.0000000E+00 -0.5050505E-02 -0.3651010E-09  0.0000000E+00  0.6672578E-07
 -0.5050299E-02  0.0000000E+00 -0.5050505E-02 -0.3863003E-09  0.0000000E+00  0.6647242E-07
 -0.5050178E-02  0.0000000E+00 -0.5050505E-02 -0.4059372E-09  0.0000000E+00  0.6620529E-07
 -0.5050018E-02  0.0000000E+00 -0.5050505E-02 -0.4239331E-09  0.0000000E+00  0.6592547E-07
 -0.5049710E-02  0.0000000E+00 -0.5050505E-02 -0.4402164E-09  0.0000000E+00  0.6563409E-07
 -0.5049253E-02  0.0000000E+00 -0.5050505E-02 -0.4547235E-09  0.0000000E+00  0.6533233E-07
 -0.5048636E-02  0.0000000E+00 -0.5050505E-02 -0.4673984E-09  0.0000000E+00  0.6502141E-07
 -0.5047442E-02  0.0000000E+00 -0.5050505E-02 -0.4781927E-09  0.0000000E+00  0.6470258E-07
 -0.5045727E-02  0.0000000E+00 -0.5050505E-02 -0.4870661E-09  0.0000000E+00  0.6437711E-07
 -0.5043261E-02  0.0000000E+00 -0.5050505E-02 -0.4939860E-09  0.0000000E+00  0.6404632E-07
 -0.5038714E-02  0.0000000E+00 -0.5050505E-02 -0.4989275E-09  0.0000000E+00  0.6371153E-07
 -0.5032318E-02  0.0000000E+00 -0.5050505E-02 -0.5018731E-09  0.0000000E+00  0.6337409E-07
 -0.5022454E-02  0.0000000E+00 -0.5050505E-02 -0.5028126E-09  0.0000000E+00  0.6303533E-07
 -0.5012589E-02  0.0000000E+00 -0.5050505E-02 -0.5017425E-09  0.0000000E+00  0.6269661E-07
 -0.5002725E-02  0.0000000E+00 -0.5050505E-02 -0.4986656E-09  0.0000000E+00  0.6235930E-07
 -0.4992860E-02  0.0000000E+00 -0.5050505E-02 -0.4935902E-09  0.0000000E+00  0.6202472E-07
 -0.4976523E-02  0.0000000E+00 -0.5050505E-02 -0.4865293E-09  0.0000000E+00  0.6169424E-07
 -0.4956794E-02  0.0000000E+00 -0.5050505E-02 -0.4774991E-09  0.0000000E+00  0.6136917E-07
 -0.4937066E-02  0.0000000E+00 -0.5050505E-02 -0.4665177E-09  0.0000000E+00  0.6105084E-07
 -0.4906239E-02  0.0000000E+00 -0.5050505E-02 -0.4536021E-09  0.0000000E+00  0.6074055E-07
 -0.4866782E-02  0.0000000E+00 -0.5050505E-02 -0.4387653E-09  0.0000000E+00  0.6043960E-07
 -0.4827325E-02  0.0000000E+00 -0.5050505E-02 -0.4220112E-09  0.0000000E+00  0.6014927E-07
 -0.4769372E-02  0.0000000E+00 -0.5050505E-02 -0.4033266E-09  0.0000000E+00  0.5987084E-07
 -0.4690458E-02  0.0000000E+00 -0.5050505E-02 -0.3826702E-09  0.0000000E+00  0.5960560E-07
 -0.4611543E-02  0.0000000E+00 -0.5050505E-02 -0.3599533E-09  0.0000000E+00  0.5935489E-07
 -0.4503035E-02  0.0000000E+00 -0.5050505E-02 -0.3350096E-09  0.0000000E+00  0.5912009E-07
 -0.4345206E-02  0.0000000E+00 -0.5050505E-02 -0.3075421E-09  0.0000000E+00  0.5890271E-07
 -0.4187378E-02  0.0000000E+00 -0.5050505E-02 -0.2770297E-09  0.0000000E+00  0.5870446E-07
 -0.3985156E-02  0.0000000E+00 -0.5050505E-02 -0.2425557E-09  0.0000000E+00  0.5852740E-07
 -0.3669499E-02  0.0000000E+00 -0.5050505E-02 -0.2024752E-09  0.0000000E+00  0.5837414E-07
 -0.3353842E-02  0.0000000E+00 -0.5050505E-02 -0.1537429E-09  0.0000000E+00  0.5824822E-07
 -0.2978990E-02  0.0000000E+00 -0.5050505E-02 -0.9047100E-10  0.0000000E+00  0.5815450E-07
 -0.2347676E-02  0.0000000E+00 -0.5050505E-02 -0.6239831E-12  0.0000000E+00  0.5809940E-07
 -0.1716362E-02  0.0000000E+00 -0.5050505E-02  0.1418792E-09  0.0000000E+00  0.5808897E-07
 -0.1025842E-02  0.0000000E+00 -0.5050505E-02  0.3973299E-09  0.0000000E+00  0.5811535E-07
  0.2367855E-03  0.0000000E+00 -0.5050505E-02  0.9148320E-09  0.0000000E+00  0.5808897E-07
  0.1499413E-02  0.0000000E+00 -0.5050505E-02  0.2084336E-08  0.0000000E+00  0.5752055E-07
  0.5287294E-02  0.0000000E+00 -0.5050505E-02  0.4972847E-08  0.0000000E+00  0.5404427E-07
 -0.5050505E-02  0.0000000E+00 -0.5050505E-02  0.2354637E-10  0.0000000E+00  0.5861415E-07
 -0.5050505E-02  0.0000000E+00 -0.5050505E-02  0.7354678E-10  0.0000000E+00  0.5863432E-07
 -0.5050505E-02  0.0000000E+00 -0.5050505E-02  0.1239023E-09  0.0000000E+00  0.5867485E-07
 -0.5050505E-02  0.0000000E+00 -0.5050505E-02  0.1731265E-09  0.0000000E+00  0.5873563E-07
 -0.5050505E-02  0.0000000E+00 -0.5050505E-02  0.2214806E-09  0.0000000E+00  0.5881631E-07
 -0.5050505E-02  0.0000000E+00 -0.5050505E-02  0.2688865E-09  0.0000000E+00  0.5891655E-07
 -0.5050504E-02  0.0000000E+00 -0.5050505E-02  0.3152071E-09  0.0000000E+00  0.5903594E-07
 -0.5050501E-02  0.0000000E+00 -0.5050505E-02  0.3602839E-09  0.0000000E+00  0.5917400E-07
 -0.5050495E-02  0.0000000E+00 -0.5050505E-02  0.4039503E-09  0.0000000E+00  0.5933021E-07
 -0.5050482E-02  0.0000000E+00 -0.5050505E-02  0.4460381E-09  0.0000000E+00  0.5950394E-07
 -0.5050449E-02  0.0000000E+00 -0.5050505E-02  0.4863818E-09  0.0000000E+00  0.5969452E-07
 -0.5050376E-02  0.0000000E+00 -0.5050505E-02  0.5248200E-09  0.0000000E+00  0.5990121E-07
 -0.5050299E-02  0.0000000E+00 -0.5050505E-02  0.5611969E-09  0.0000000E+00  0.6012320E-07
 -0.5050178E-02  0.0000000E+00 -0.5050505E-02  0.5953636E-09  0.0000000E+00  0.6035961E-07
 -0.5050018E-02  0.0000000E+00 -0.5050505E-02  0.6271778E-09  0.0000000E+00  0.6060951E-07
 -0.5049710E-02  0.0000000E+00 -0.5050505E-02  0.6565056E-09  0.0000000E+00  0.6087192E-07
 -0.5049253E-02  0.0000000E+00 -0.5050505E-02  0.6832214E-09  0.0000000E+00  0.6114580E-07
 -0.5048636E-02  0.0000000E+00 -0.5050505E-02  0.7072085E-09  0.0000000E+00  0.6143004E-07
 -0.5047442E-02  0.0000000E+00 -0.5050505E-02  0.7283602E-09  0.0000000E+00  0.6172353E-07
 -0.5045727E-02  0.0000000E+00 -0.5050505E-02  0.7465798E-09  0.0000000E+00  0.6202507E-07
 -0.5043261E-02  0.0000000E+00 -0.5050505E-02  0.7617814E-09  0.0000000E+00  0.6233345E-07
 -0.5038714E-02  0.0000000E+00 -0.5050505E-02  0.7738904E-09  0.0000000E+00  0.6264743E-07
 -0.5032318E-02  0.0000000E+00 -0.5050505E-02  0.7828439E-09  0.0000000E+00  0.6296573E-07
 -0.5022454E-02  0.0000000E+00 -0.5050505E-02  0.7885910E-09  0.0000000E+00  0.6328704E-07
 -0.5012589E-02  0.0000000E+00 -0.5050505E-02  0.7910937E-09  0.0000000E+00  0.6361005E-07
 -0.5002725E-02  0.0000000E+00 -0.5050505E-02  0.7903268E-09  0.0000000E+00  0.6393343E-07
 -0.4992860E-02  0.0000000E+00 -0.5050505E-02  0.7862783E-09  0.0000000E+00  0.6425583E-07
 -0.4976523E-02  0.0000000E+00 -0.5050505E-02  0.7789497E-09  0.0000000E+00  0.6457592E-07
 -0.4956794E-02  0.0000000E+00 -0.5050505E-02  0.7683564E-09  0.0000000E+00  0.6489235E-07
 -0.4937066E-02  0.0000000E+00 -0.5050505E-02  0.7545275E-09  0.0000000E+00  0.6520381E-07
 -0.4906239E-02  0.0000000E+00 -0.5050505E-02  0.7375061E-09  0.0000000E+00  0.6550896E-07
 -0.4866782E-02  0.0000000E+00 -0.5050505E-02  0.7173492E-09  0.0000000E+00  0.6580652E-07
 -0.4827325E-02  0.0000000E+00 -0.5050505E-02  0.6941280E-09  0.0000000E+00  0.6609523E-07
 -0.4769372E-02  0.0000000E+00 -0.5050505E-02  0.6679270E-09  0.0000000E+00  0.6637383E-07
 -0.4690458E-02  0.0000000E+00 -0.5050505E-02  0.6388445E-09  0.0000000E+00  0.6664114E-07
 -0.4611543E-02  0.0000000E+00 -0.5050505E-02  0.6069921E-09  0.0000000E+00  0.6689599E-07
 -0.4503035E-02  0.0000000E+00 -0.5050505E-02  0.5724942E-09  0.0000000E+00  0.6713728E-07
 -0.4345206E-02  0.0000000E+00 -0.5050505E-02  0.5354876E-09  0.0000000E+00  0.6736395E-07
 -0.4187378E-02  0.0000000E+00 -0.5050505E-02  0.4961207E-09  0.0000000E+00  0.6757501E-07
 -0.3985156E-02  0.0000000E+00 -0.5050505E-02  0.4545531E-09  0.0000000E+00  0.6776953E-07
 -0.3669499E-02  0.0000000E+00 -0.5050505E-02  0.4109543E-09  0.0000000E+00  0.6794662E-07
 -0.3353842E-02  0.0000000E+00 -0.5050505E-02  0.3655022E-09  0.0000000E+00  0.6810551E-07
 -0.2978990E-02  0.0000000E+00 -0.5050505E-02  0.3183816E-09  0.0000000E+00  0.6824547E-07
 -0.2347676E-02  0.0000000E+00 -0.5050505E-02  0.2697813E-09  0.0000000E+00  0.6836586E-07
 -0.1716362E-02  0.0000000E+00 -0.5050505E-02  0.2198915E-09  0.0000000E+00  0.6846610E-07
 -0.1025842E-02  0.0000000E+00 -0.5050505E-02  0.1689010E-09  0.0000000E+00  0.6854572E-07
  0.2367855E-03  0.0000000E+00 -0.5050505E-02  0.1169986E-09  0.0000000E+00  0.6860428E-07
  0.1499413E-02  0.0000000E+00 -0.5050505E-02  0.6438373E-10  0.0000000E+00  0.6864146E-07
  0.2762042E-02  0.0000000E+00 -0.5050505E-02  0.1129557E-10  0.0000000E+00  0.6865702E-07
 -0.5050505E-02  0.0000000E+00 -0.5050505E-02 -0.4210104E-10  0.0000000E+00  0.6865079E-07
 -0.5050505E-02  0.0000000E+00 -0.5050505E-02 -0.9528285E-10  0.0000000E+00  0.6862276E-07
 -0.5050505E-02  0.0000000E+00 -0.5050505E-02 -0.1482056E-09  0.0000000E+00  0.6857304E-07
 -0.5050505E-02  0.0000000E+00 -0.5050505E-02 -0.2004103E-09  0.0000000E+00  0.6850183E-07
 -0.5050505E-02  0.0000000E+00 -0.5050505E-02 -0.2517244E-09  0.0000000E+00  0.6840945E-07
 -0.5050505E-02  0.0000000E+00 -0.5050505E-02 -0.3019961E-09  0.0000000E+00  0.6829630E-07
 -0.5050505E-02  0.0000000E+00 -0.5050505E-02 -0.3510526E-09  0.0000000E+00  0.6816282E-07
 -0.5050504E-02  0.0000000E+00 -0.5050505E-02 -0.3987059E-09  0.0000000E+00  0.6800957E-07
 -0.5050501E-02  0.0000000E+00 -0.5050505E-02 -0.4447635E-09  0.0000000E+00  0.6783715E-07
 -0.5050495E-02  0.0000000E+00 -0.5050505E-02 -0.4890352E-09  0.0000000E+00  0.6764626E-07
 -0.5050482E-02  0.0000000E+00 -0.5050505E-02 -0.5313372E-09  0.0000000E+00  0.6743766E-07
 -0.5050449E-02  0.0000000E+00 -0.5050505E-02 -0.5714943E-09  0.0000000E+00  0.6721220E-07
 -0.5050376E-02  0.0000000E+00 -0.5050505E-02 -0.6093410E-09  0.0000000E+00  0.6697079E-07
 -0.5050299E-02  0.0000000E+00 -0.5050505E-02 -0.6447226E-09  0.0000000E+00  0.6671441E-07
 -0.5050178E-02  0.0000000E+00 -0.5050505E-02 -0.6774959E-09  0.0000000E+00  0.6644410E-07
 -0.5050018E-02  0.0000000E+00 -0.5050505E-02 -0.7075294E-09  0.0000000E+00  0.6616094E-07
 -0.5049710E-02  0.0000000E+00 -0.5050505E-02 -0.7347042E-09  0.0000000E+00  0.6586609E-07
 -0.5049253E-02  0.0000000E+00 -0.5050505E-02 -0.7589139E-09  0.0000000E+00  0.6556074E-07
 -0.5048636E-02  0.0000000E+00 -0.5050505E-02 -0.7800652E-09  0.0000000E+00  0.6524612E-07
 -0.5047442E-02  0.0000000E+00 -0.5050505E-02 -0.7980778E-09  0.0000000E+00  0.6492350E-07
 -0.5045727E-02  0.0000000E+00 -0.5050505E-02 -0.8128845E-09  0.0000000E+00  0.6459416E-07
 -0.5043261E-02  0.0000000E+00 -0.5050505E-02 -0.8244311E-09  0.0000000E+00  0.6425945E-07
 -0.5038714E-02  0.0000000E+00 -0.5050505E-02 -0.8326764E-09  0.0000000E+00  0.6392069E-07
 -0.5032318E-02  0.0000000E+00 -0.5050505E-02 -0.8375917E-09  0.0000000E+00  0.6357924E-07
 -0.5022454E-02  0.0000000E+00 -0.5050505E-02 -0.8391602E-09  0.0000000E+00  0.6323647E-07
 -0.5012589E-02  0.0000000E+00 -0.5050505E-02 -0.8373769E-09  0.0000000E+00  0.6289373E-07
 -0.5002725E-02  0.0000000E+00 -0.5050505E-02 -0.8322471E-09  0.0000000E+00  0.6255241E-07
 -0.4992860E-02  0.0000000E+00 -0.5050505E-02 -0.8237858E-09  0.0000000E+00  0.6221386E-07
 -0.4976523E-02  0.0000000E+00 -0.5050505E-02 -0.8120159E-09  0.0000000E+00  0.6187943E-07
 -0.4956794E-02  0.0000000E+00 -0.5050505E-02 -0.7969664E-09  0.0000000E+00  0.6155046E-07
 -0.4937066E-02  0.0000000E+00 -0.5050505E-02 -0.7786698E-09  0.0000000E+00  0.6122827E-07
 -0.4906239E-02  0.0000000E+00 -0.5050505E-02 -0.7571585E-09  0.0000000E+00  0.6091418E-07
 -0.4866782E-02  0.0000000E+00 -0.5050505E-02 -0.7324597E-09  0.0000000E+00  0.6060948E-07
 -0.4827325E-02  0.0000000E+00 -0.5050505E-02 -0.7045881E-09  0.0000000E+00  0.6031543E-07
 -0.4769372E-02  0.0000000E+00 -0.5050505E-02 -0.6735349E-09  0.0000000E+00  0.6003329E-07
 -0.4690458E-02  0.0000000E+00 -0.5050505E-02 -0.6392522E-09  0.0000000E+00  0.5976433E-07
 -0.4611543E-02  0.0000000E+00 -0.5050505E-02 -0.6016269E-09  0.0000000E+00  0.5950978E-07
 -0.4503035E-02  0.0000000E+00 -0.5050505E-02 -0.5604409E-09  0.0000000E+00  0.5927091E-07
 -0.4345206E-02  0.0000000E+00 -0.5050505E-02 -0.5153044E-09  0.0000000E+00  0.5904903E-07
 -0.4187378E-02  0.0000000E+00 -0.5050505E-02 -0.4655441E-09  0.0000000E+00  0.5884546E-07
 -0.3985156E-02  0.0000000E+00 -0.5050505E-02 -0.4100102E-09  0.0000000E+00  0.5866162E-07
 -0.3669499E-02  0.0000000E+00 -0.5050505E-02 -0.3467347E-09  0.0000000E+00  0.5849889E-07
 -0.3353842E-02  0.0000000E+00 -0.5050505E-02 -0.2723183E-09  0.0000000E+00  0.5835848E-07
 -0.2978990E-02  0.0000000E+00 -0.5050505E-02 -0.1808254E-09  0.0000000E+00  0.5824071E-07
 -0.2347676E-02  0.0000000E+00 -0.5050505E-02 -0.6175802E-10  0.0000000E+00  0.5814295E-07
 -0.1716362E-02  0.0000000E+00 -0.5050505E-02  0.1032742E-09  0.0000000E+00  0.5805387E-07
 -0.1025842E-02  0.0000000E+00 -0.5050505E-02  0.3441611E-09  0.0000000E+00  0.5793825E-07
  0.2367855E-03  0.0000000E+00 -0.5050505E-02  0.6985330E-09  0.0000000E+00  0.5770105E-07
  0.1499413E-02  0.0000000E+00 -0.5050505E-02  0.1152643E-08  0.0000000E+00  0.5713193E-07
  0.5287294E-02  0.0000000E+00 -0.5050505E-02  0.1301137E-08  0.0000000E+00  0.5601866E-07
 -0.5050505E-02  0.0000000E+00 -0.5050505E-02  0.3348625E-10  0.0000000E+00  0.5882941E-07
 -0.5050505E-02  0.0000000E+00 -0.5050505E-02  0.1035875E-09  0.0000000E+00  0.5885000E-07
 -0.5050505E-02  0.0000000E+00 -0.5050505E-02  0.1741325E-09  0.0000000E+00  0.5889130E-07
 -0.5050505E-02  0.0000000E+00 -0.5050505E-02  0.2431944E-09  0.0000000E+00  0.5895317E-07
 -0.5050505E-02  0.0000000E+00 -0.5050505E-02  0.3110732E-09  0.0000000E+00  0.5903528E-07
 -0.5050505E-02  0.0000000E+00 -0.5050505E-02  0.3776375E-09  0.0000000E+00  0.5913726E-07
 -0.5050504E-02  0.0000000E+00 -0.5050505E-02  0.4426853E-09  0.0000000E+00  0.5925873E-07
 -0.5050501E-02  0.0000000E+00 -0.5050505E-02  0.5059907E-09  0.0000000E+00  0.5939919E-07
 -0.5050495E-02  0.0000000E+00 -0.5050505E-02  0.5673180E-09  0.0000000E+00  0.5955811E-07
 -0.5050482E-02  0.0000000E+00 -0.5050505E-02  0.6264309E-09  0.0000000E+00  0.5973486E-07
 -0.5050449E-02  0.0000000E+00 -0.5050505E-02  0.6830964E-09  0.0000000E+00  0.5992877E-07
 -0.5050376E-02  0.0000000E+00 -0.5050505E-02  0.7370878E-09  0.0000000E+00  0.6013906E-07
 -0.5050299E-02  0.0000000E+00 -0.5050505E-02  0.7881863E-09  0.0000000E+00  0.6036492E-07
 -0.5050178E-02  0.0000000E+00 -0.5050505E-02  0.8361824E-09  0.0000000E+00  0.6060547E-07
 -0.5050018E-02  0.0000000E+00 -0.5050505E-02  0.8808766E-09  0.0000000E+00  0.6085976E-07
 -0.5049710E-02  0.0000000E+00 -0.5050505E-02  0.9220803E-09  0.0000000E+00  0.6112678E-07
 -0.5049253E-02  0.0000000E+00 -0.5050505E-02  0.9596170E-09  0.0000000E+00  0.6140548E-07
 -0.5048636E-02  0.0000000E+00 -0.5050505E-02  0.9933229E-09  0.0000000E+00  0.6169475E-07
 -0.5047442E-02  0.0000000E+00 -0.5050505E-02  0.1023048E-08  0.0000000E+00  0.6199343E-07
 -0.5045727E-02  0.0000000E+00 -0.5050505E-02  0.1048656E-08  0.0000000E+00  0.6230032E-07
 -0.5043261E-02  0.0000000E+00 -0.5050505E-02  0.1070026E-08  0.0000000E+00  0.6261420E-07
 -0.5038714E-02  0.0000000E+00 -0.5050505E-02  0.1087053E-08  0.0000000E+00  0.6293378E-07
 -0.5032318E-02  0.0000000E+00 -0.5050505E-02  0.1099648E-08  0.0000000E+00  0.6325777E-07
 -0.5022454E-02  0.0000000E+00 -0.5050505E-02  0.1107741E-08  0.0000000E+00  0.6358485E-07
 -0.5012589E-02  0.0000000E+00 -0.5050505E-02  0.1111277E-08  0.0000000E+00  0.6391368E-07
 -0.5002725E-02  0.0000000E+00 -0.5050505E-02  0.1110219E-08  0.0000000E+00  0.6424289E-07
 -0.4992860E-02  0.0000000E+00 -0.5050505E-02  0.1104553E-08  0.0000000E+00  0.6457113E-07
 -0.4976523E-02  0.0000000E+00 -0.5050505E-02  0.1094278E-08  0.0000000E+00  0.6489704E-07
 -0.4956794E-02  0.0000000E+00 -0.5050505E-02  0.1079417E-08  0.0000000E+00  0.6521924E-07
 -0.4937066E-02  0.0000000E+00 -0.5050505E-02  0.1060010E-08  0.0000000E+00  0.6553638E-07