title = "dataset feddes"
variables = "x", "y", "z", "vx", "vy", "vz"
zone t = "velocities, solution time =  4.000E+01 days        " i =   99, j =   99, k =    1,  f=point
 -0.5050505E-02  0.0000000E+00 -0.5050505E-02  0.8447586E-11  0.0000000E+00  0.9187729E-07
 -0.5050505E-02  0.0000000E+00 -0.5050505E-02  0.2618543E-10  0.0000000E+00  0.9191212E-07
 -0.5050505E-02  0.0000000E+00 -0.5050505E-02  0.4391972E-10  0.0000000E+00  0.9198262E-07
 -0.5050505E-02  0.0000000E+00 -0.5050505E-02  0.6138494E-10  0.0000000E+00  0.9208853E-07
 -0.5050505E-02  0.0000000E+00 -0.5050505E-02  0.7856532E-10  0.0000000E+00  0.9222927E-07
 -0.5050505E-02  0.0000000E+00 -0.5050505E-02  0.9543931E-10  0.0000000E+00  0.9240426E-07
 -0.5050504E-02  0.0000000E+00 -0.5050505E-02  0.1119447E-09  0.0000000E+00  0.9261282E-07
 -0.5050501E-02  0.0000000E+00 -0.5050505E-02  0.1280024E-09  0.0000000E+00  0.9285412E-07
 -0.5050495E-02  0.0000000E+00 -0.5050505E-02  0.1435587E-09  0.0000000E+00  0.9312722E-07
 -0.5050482E-02  0.0000000E+00 -0.5050505E-02  0.1585573E-09  0.0000000E+00  0.9343105E-07
 -0.5050449E-02  0.0000000E+00 -0.5050505E-02  0.1729361E-09  0.0000000E+00  0.9376442E-07
 -0.5050376E-02  0.0000000E+00 -0.5050505E-02  0.1866360E-09  0.0000000E+00  0.9412603E-07
 -0.5050299E-02  0.0000000E+00 -0.5050505E-02  0.1996023E-09  0.0000000E+00  0.9451446E-07
 -0.5050178E-02  0.0000000E+00 -0.5050505E-02  0.2117833E-09  0.0000000E+00  0.9492817E-07
 -0.5050018E-02  0.0000000E+00 -0.5050505E-02  0.2231287E-09  0.0000000E+00  0.9536555E-07
 -0.5049710E-02  0.0000000E+00 -0.5050505E-02  0.2335905E-09  0.0000000E+00  0.9582485E-07
 -0.5049253E-02  0.0000000E+00 -0.5050505E-02  0.2431237E-09  0.0000000E+00  0.9630427E-07
 -0.5048636E-02  0.0000000E+00 -0.5050505E-02  0.2516864E-09  0.0000000E+00  0.9680188E-07
 -0.5047442E-02  0.0000000E+00 -0.5050505E-02  0.2592402E-09  0.0000000E+00  0.9731570E-07
 -0.5045727E-02  0.0000000E+00 -0.5050505E-02  0.2657500E-09  0.0000000E+00  0.9784367E-07
 -0.5043261E-02  0.0000000E+00 -0.5050505E-02  0.2711848E-09  0.0000000E+00  0.9838364E-07
 -0.5038714E-02  0.0000000E+00 -0.5050505E-02  0.2755173E-09  0.0000000E+00  0.9893344E-07
 -0.5032318E-02  0.0000000E+00 -0.5050505E-02  0.2787245E-09  0.0000000E+00  0.9949082E-07
 -0.5022454E-02  0.0000000E+00 -0.5050505E-02  0.2807878E-09  0.0000000E+00  0.1000535E-06
 -0.5012589E-02  0.0000000E+00 -0.5050505E-02  0.2816933E-09  0.0000000E+00  0.1006192E-06
 -0.5002725E-02  0.0000000E+00 -0.5050505E-02  0.2814317E-09  0.0000000E+00  0.1011855E-06
 -0.4992860E-02  0.0000000E+00 -0.5050505E-02  0.2799984E-09  0.0000000E+00  0.1017501E-06
 -0.4976523E-02  0.0000000E+00 -0.5050505E-02  0.2773936E-09  0.0000000E+00  0.1023106E-06
 -0.4956794E-02  0.0000000E+00 -0.5050505E-02  0.2736226E-09  0.0000000E+00  0.1028648E-06
 -0.4937066E-02  0.0000000E+00 -0.5050505E-02  0.2686956E-09  0.0000000E+00  0.1034102E-06
 -0.4906239E-02  0.0000000E+00 -0.5050505E-02  0.2626278E-09  0.0000000E+00  0.1039445E-06
 -0.4866782E-02  0.0000000E+00 -0.5050505E-02  0.2554394E-09  0.0000000E+00  0.1044655E-06
 -0.4827325E-02  0.0000000E+00 -0.5050505E-02  0.2471557E-09  0.0000000E+00  0.1049709E-06
 -0.4769372E-02  0.0000000E+00 -0.5050505E-02  0.2378068E-09  0.0000000E+00  0.1054587E-06
 -0.4690458E-02  0.0000000E+00 -0.5050505E-02  0.2274279E-09  0.0000000E+00  0.1059265E-06
 -0.4611543E-02  0.0000000E+00 -0.5050505E-02  0.2160587E-09  0.0000000E+00  0.1063725E-06
 -0.4503035E-02  0.0000000E+00 -0.5050505E-02  0.2037434E-09  0.0000000E+00  0.1067947E-06
 -0.4345206E-02  0.0000000E+00 -0.5050505E-02  0.1905307E-09  0.0000000E+00  0.1071912E-06
 -0.4187378E-02  0.0000000E+00 -0.5050505E-02  0.1764734E-09  0.0000000E+00  0.1075603E-06
 -0.3985156E-02  0.0000000E+00 -0.5050505E-02  0.1616283E-09  0.0000000E+00  0.1079003E-06
 -0.3669499E-02  0.0000000E+00 -0.5050505E-02  0.1460560E-09  0.0000000E+00  0.1082097E-06
 -0.3353842E-02  0.0000000E+00 -0.5050505E-02  0.1298207E-09  0.0000000E+00  0.1084872E-06
 -0.2978990E-02  0.0000000E+00 -0.5050505E-02  0.1129899E-09  0.0000000E+00  0.1087314E-06
 -0.2347676E-02  0.0000000E+00 -0.5050505E-02  0.9563417E-10  0.0000000E+00  0.1089412E-06
 -0.1716362E-02  0.0000000E+00 -0.5050505E-02  0.7782690E-10  0.0000000E+00  0.1091156E-06
 -0.1025842E-02  0.0000000E+00 -0.5050505E-02  0.5964389E-10  0.0000000E+00  0.1092539E-06
  0.2367855E-03  0.0000000E+00 -0.5050505E-02  0.4116338E-10  0.0000000E+00  0.1093552E-06
  0.1499413E-02  0.0000000E+00 -0.5050505E-02  0.2246593E-10  0.0000000E+00  0.1094192E-06
  0.2762042E-02  0.0000000E+00 -0.5050505E-02  0.3633601E-11  0.0000000E+00  0.1094455E-06
 -0.5050505E-02  0.0000000E+00 -0.5050505E-02 -0.1523840E-10  0.0000000E+00  0.1094338E-06
 -0.5050505E-02  0.0000000E+00 -0.5050505E-02 -0.3407365E-10  0.0000000E+00  0.1093842E-06
 -0.5050505E-02  0.0000000E+00 -0.5050505E-02 -0.5283227E-10  0.0000000E+00  0.1092968E-06
 -0.5050505E-02  0.0000000E+00 -0.5050505E-02 -0.7141258E-10  0.0000000E+00  0.1091719E-06
 -0.5050505E-02  0.0000000E+00 -0.5050505E-02 -0.8969428E-10  0.0000000E+00  0.1090099E-06
 -0.5050505E-02  0.0000000E+00 -0.5050505E-02 -0.1076357E-09  0.0000000E+00  0.1088114E-06
 -0.5050505E-02  0.0000000E+00 -0.5050505E-02 -0.1251603E-09  0.0000000E+00  0.1085773E-06
 -0.5050504E-02  0.0000000E+00 -0.5050505E-02 -0.1421729E-09  0.0000000E+00  0.1083084E-06
 -0.5050501E-02  0.0000000E+00 -0.5050505E-02 -0.1586119E-09  0.0000000E+00  0.1080060E-06
 -0.5050495E-02  0.0000000E+00 -0.5050505E-02 -0.1744133E-09  0.0000000E+00  0.1076710E-06
 -0.5050482E-02  0.0000000E+00 -0.5050505E-02 -0.1895081E-09  0.0000000E+00  0.1073051E-06
 -0.5050449E-02  0.0000000E+00 -0.5050505E-02 -0.2038319E-09  0.0000000E+00  0.1069095E-06
 -0.5050376E-02  0.0000000E+00 -0.5050505E-02 -0.2173268E-09  0.0000000E+00  0.1064859E-06
 -0.5050299E-02  0.0000000E+00 -0.5050505E-02 -0.2299397E-09  0.0000000E+00  0.1060361E-06
 -0.5050178E-02  0.0000000E+00 -0.5050505E-02 -0.2416202E-09  0.0000000E+00  0.1055619E-06
 -0.5050018E-02  0.0000000E+00 -0.5050505E-02 -0.2523215E-09  0.0000000E+00  0.1050652E-06
 -0.5049710E-02  0.0000000E+00 -0.5050505E-02 -0.2620012E-09  0.0000000E+00  0.1045479E-06
 -0.5049253E-02  0.0000000E+00 -0.5050505E-02 -0.2706219E-09  0.0000000E+00  0.1040123E-06
 -0.5048636E-02  0.0000000E+00 -0.5050505E-02 -0.2781502E-09  0.0000000E+00  0.1034604E-06
 -0.5047442E-02  0.0000000E+00 -0.5050505E-02 -0.2845578E-09  0.0000000E+00  0.1028945E-06
 -0.5045727E-02  0.0000000E+00 -0.5050505E-02 -0.2898208E-09  0.0000000E+00  0.1023169E-06
 -0.5043261E-02  0.0000000E+00 -0.5050505E-02 -0.2939201E-09  0.0000000E+00  0.1017298E-06
 -0.5038714E-02  0.0000000E+00 -0.5050505E-02 -0.2968414E-09  0.0000000E+00  0.1011357E-06
 -0.5032318E-02  0.0000000E+00 -0.5050505E-02 -0.2985748E-09  0.0000000E+00  0.1005369E-06
 -0.5022454E-02  0.0000000E+00 -0.5050505E-02 -0.2991153E-09  0.0000000E+00  0.9993587E-07
 -0.5012589E-02  0.0000000E+00 -0.5050505E-02 -0.2984615E-09  0.0000000E+00  0.9933491E-07
 -0.5002725E-02  0.0000000E+00 -0.5050505E-02 -0.2966163E-09  0.0000000E+00  0.9873646E-07
 -0.4992860E-02  0.0000000E+00 -0.5050505E-02 -0.2935858E-09  0.0000000E+00  0.9814292E-07
 -0.4976523E-02  0.0000000E+00 -0.5050505E-02 -0.2893790E-09  0.0000000E+00  0.9755665E-07
 -0.4956794E-02  0.0000000E+00 -0.5050505E-02 -0.2840068E-09  0.0000000E+00  0.9698002E-07
 -0.4937066E-02  0.0000000E+00 -0.5050505E-02 -0.2774816E-09  0.0000000E+00  0.9641535E-07
 -0.4906239E-02  0.0000000E+00 -0.5050505E-02 -0.2698155E-09  0.0000000E+00  0.9586495E-07
 -0.4866782E-02  0.0000000E+00 -0.5050505E-02 -0.2610183E-09  0.0000000E+00  0.9533111E-07
 -0.4827325E-02  0.0000000E+00 -0.5050505E-02 -0.2510952E-09  0.0000000E+00  0.9481610E-07
 -0.4769372E-02  0.0000000E+00 -0.5050505E-02 -0.2400420E-09  0.0000000E+00  0.9432218E-07
 -0.4690458E-02  0.0000000E+00 -0.5050505E-02 -0.2278386E-09  0.0000000E+00  0.9385165E-07
 -0.4611543E-02  0.0000000E+00 -0.5050505E-02 -0.2144381E-09  0.0000000E+00  0.9340687E-07
 -0.4503035E-02  0.0000000E+00 -0.5050505E-02 -0.1997485E-09  0.0000000E+00  0.9299033E-07
 -0.4345206E-02  0.0000000E+00 -0.5050505E-02 -0.1836014E-09  0.0000000E+00  0.9260481E-07
 -0.4187378E-02  0.0000000E+00 -0.5050505E-02 -0.1656943E-09  0.0000000E+00  0.9225354E-07
 -0.3985156E-02  0.0000000E+00 -0.5050505E-02 -0.1454812E-09  0.0000000E+00  0.9194060E-07
 -0.3669499E-02  0.0000000E+00 -0.5050505E-02 -0.1219514E-09  0.0000000E+00  0.9167165E-07
 -0.3353842E-02  0.0000000E+00 -0.5050505E-02 -0.9315242E-10  0.0000000E+00  0.9145533E-07
 -0.2978990E-02  0.0000000E+00 -0.5050505E-02 -0.5508154E-10  0.0000000E+00  0.9130626E-07
 -0.2347676E-02  0.0000000E+00 -0.5050505E-02  0.1098984E-11  0.0000000E+00  0.9125197E-07
 -0.1716362E-02  0.0000000E+00 -0.5050505E-02  0.9682753E-10  0.0000000E+00  0.9135045E-07
 -0.1025842E-02  0.0000000E+00 -0.5050505E-02  0.2895120E-09  0.0000000E+00  0.9173898E-07
  0.2367855E-03  0.0000000E+00 -0.5050505E-02  0.7504110E-09  0.0000000E+00  0.9278479E-07
  0.1499413E-02  0.0000000E+00 -0.5050505E-02  0.2045195E-08  0.0000000E+00  0.9559623E-07
  0.5287294E-02  0.0000000E+00 -0.5050505E-02  0.3375357E-07  0.0000000E+00  0.7638063E-07
 -0.5050505E-02  0.0000000E+00 -0.5050505E-02  0.2556556E-10  0.0000000E+00  0.9200134E-07
 -0.5050505E-02  0.0000000E+00 -0.5050505E-02  0.7867303E-10  0.0000000E+00  0.9203671E-07
 -0.5050505E-02  0.0000000E+00 -0.5050505E-02  0.1318131E-09  0.0000000E+00  0.9210777E-07
 -0.5050505E-02  0.0000000E+00 -0.5050505E-02  0.1841876E-09  0.0000000E+00  0.9221436E-07
 -0.5050505E-02  0.0000000E+00 -0.5050505E-02  0.2357365E-09  0.0000000E+00  0.9235596E-07
 -0.5050505E-02  0.0000000E+00 -0.5050505E-02  0.2863583E-09  0.0000000E+00  0.9253202E-07
 -0.5050504E-02  0.0000000E+00 -0.5050505E-02  0.3358727E-09  0.0000000E+00  0.9274182E-07
 -0.5050501E-02  0.0000000E+00 -0.5050505E-02  0.3840531E-09  0.0000000E+00  0.9298457E-07
 -0.5050495E-02  0.0000000E+00 -0.5050505E-02  0.4307304E-09  0.0000000E+00  0.9325930E-07
 -0.5050482E-02  0.0000000E+00 -0.5050505E-02  0.4757321E-09  0.0000000E+00  0.9356495E-07
 -0.5050449E-02  0.0000000E+00 -0.5050505E-02  0.5188743E-09  0.0000000E+00  0.9390031E-07
 -0.5050376E-02  0.0000000E+00 -0.5050505E-02  0.5599808E-09  0.0000000E+00  0.9426409E-07
 -0.5050299E-02  0.0000000E+00 -0.5050505E-02  0.5988876E-09  0.0000000E+00  0.9465485E-07
 -0.5050178E-02  0.0000000E+00 -0.5050505E-02  0.6354385E-09  0.0000000E+00  0.9507105E-07
 -0.5050018E-02  0.0000000E+00 -0.5050505E-02  0.6694826E-09  0.0000000E+00  0.9551107E-07
 -0.5049710E-02  0.0000000E+00 -0.5050505E-02  0.7008761E-09  0.0000000E+00  0.9597315E-07
 -0.5049253E-02  0.0000000E+00 -0.5050505E-02  0.7294838E-09  0.0000000E+00  0.9645547E-07
 -0.5048636E-02  0.0000000E+00 -0.5050505E-02  0.7551801E-09  0.0000000E+00  0.9695611E-07
 -0.5047442E-02  0.0000000E+00 -0.5050505E-02  0.7778495E-09  0.0000000E+00  0.9747307E-07
 -0.5045727E-02  0.0000000E+00 -0.5050505E-02  0.7973871E-09  0.0000000E+00  0.9800426E-07
 -0.5043261E-02  0.0000000E+00 -0.5050505E-02  0.8136992E-09  0.0000000E+00  0.9854755E-07
 -0.5038714E-02  0.0000000E+00 -0.5050505E-02  0.8267041E-09  0.0000000E+00  0.9910073E-07
 -0.5032318E-02  0.0000000E+00 -0.5050505E-02  0.8363328E-09  0.0000000E+00  0.9966155E-07
 -0.5022454E-02  0.0000000E+00 -0.5050505E-02  0.8425295E-09  0.0000000E+00  0.1002277E-06
 -0.5012589E-02  0.0000000E+00 -0.5050505E-02  0.8452522E-09  0.0000000E+00  0.1007969E-06
 -0.5002725E-02  0.0000000E+00 -0.5050505E-02  0.8444728E-09  0.0000000E+00  0.1013667E-06
 -0.4992860E-02  0.0000000E+00 -0.5050505E-02  0.8401777E-09  0.0000000E+00  0.1019349E-06
 -0.4976523E-02  0.0000000E+00 -0.5050505E-02  0.8323675E-09  0.0000000E+00  0.1024989E-06
 -0.4956794E-02  0.0000000E+00 -0.5050505E-02  0.8210578E-09  0.0000000E+00  0.1030566E-06
 -0.4937066E-02  0.0000000E+00 -0.5050505E-02  0.8062791E-09  0.0000000E+00  0.1036054E-06
 -0.4906239E-02  0.0000000E+00 -0.5050505E-02  0.7880769E-09  0.0000000E+00  0.1041431E-06
 -0.4866782E-02  0.0000000E+00 -0.5050505E-02  0.7665120E-09  0.0000000E+00  0.1046674E-06
 -0.4827325E-02  0.0000000E+00 -0.5050505E-02  0.7416600E-09  0.0000000E+00  0.1051761E-06
 -0.4769372E-02  0.0000000E+00 -0.5050505E-02  0.7136116E-09  0.0000000E+00  0.1056669E-06
 -0.4690458E-02  0.0000000E+00 -0.5050505E-02  0.6824718E-09  0.0000000E+00  0.1061378E-06
 -0.4611543E-02  0.0000000E+00 -0.5050505E-02  0.6483599E-09  0.0000000E+00  0.1065867E-06
 -0.4503035E-02  0.0000000E+00 -0.5050505E-02  0.6114087E-09  0.0000000E+00  0.1070116E-06
 -0.4345206E-02  0.0000000E+00 -0.5050505E-02  0.5717641E-09  0.0000000E+00  0.1074107E-06
 -0.4187378E-02  0.0000000E+00 -0.5050505E-02  0.5295846E-09  0.0000000E+00  0.1077822E-06
 -0.3985156E-02  0.0000000E+00 -0.5050505E-02  0.4850406E-09  0.0000000E+00  0.1081244E-06
 -0.3669499E-02  0.0000000E+00 -0.5050505E-02  0.4383140E-09  0.0000000E+00  0.1084359E-06
 -0.3353842E-02  0.0000000E+00 -0.5050505E-02  0.3895973E-09  0.0000000E+00  0.1087151E-06
 -0.2978990E-02  0.0000000E+00 -0.5050505E-02  0.3390931E-09  0.0000000E+00  0.1089610E-06
 -0.2347676E-02  0.0000000E+00 -0.5050505E-02  0.2870134E-09  0.0000000E+00  0.1091722E-06
 -0.1716362E-02  0.0000000E+00 -0.5050505E-02  0.2335780E-09  0.0000000E+00  0.1093478E-06
 -0.1025842E-02  0.0000000E+00 -0.5050505E-02  0.1790148E-09  0.0000000E+00  0.1094870E-06
  0.2367855E-03  0.0000000E+00 -0.5050505E-02  0.1235580E-09  0.0000000E+00  0.1095891E-06
  0.1499413E-02  0.0000000E+00 -0.5050505E-02  0.6745031E-10  0.0000000E+00  0.1096536E-06
  0.2762042E-02  0.0000000E+00 -0.5050505E-02  0.1094857E-10  0.0000000E+00  0.1096801E-06
 -0.5050505E-02  0.0000000E+00 -0.5050505E-02 -0.4568690E-10  0.0000000E+00  0.1096684E-06
 -0.5050505E-02  0.0000000E+00 -0.5050505E-02 -0.1022237E-09  0.0000000E+00  0.1096186E-06
 -0.5050505E-02  0.0000000E+00 -0.5050505E-02 -0.1585010E-09  0.0000000E+00  0.1095307E-06
 -0.5050505E-02  0.0000000E+00 -0.5050505E-02 -0.2142489E-09  0.0000000E+00  0.1094050E-06
 -0.5050505E-02  0.0000000E+00 -0.5050505E-02 -0.2691210E-09  0.0000000E+00  0.1092420E-06
 -0.5050505E-02  0.0000000E+00 -0.5050505E-02 -0.3229566E-09  0.0000000E+00  0.1090424E-06
 -0.5050505E-02  0.0000000E+00 -0.5050505E-02 -0.3755359E-09  0.0000000E+00  0.1088069E-06
 -0.5050504E-02  0.0000000E+00 -0.5050505E-02 -0.4265885E-09  0.0000000E+00  0.1085364E-06
 -0.5050501E-02  0.0000000E+00 -0.5050505E-02 -0.4759194E-09  0.0000000E+00  0.1082320E-06
 -0.5050495E-02  0.0000000E+00 -0.5050505E-02 -0.5233335E-09  0.0000000E+00  0.1078951E-06
 -0.5050482E-02  0.0000000E+00 -0.5050505E-02 -0.5686260E-09  0.0000000E+00  0.1075268E-06
 -0.5050449E-02  0.0000000E+00 -0.5050505E-02 -0.6116054E-09  0.0000000E+00  0.1071288E-06
 -0.5050376E-02  0.0000000E+00 -0.5050505E-02 -0.6520984E-09  0.0000000E+00  0.1067027E-06
 -0.5050299E-02  0.0000000E+00 -0.5050505E-02 -0.6899438E-09  0.0000000E+00  0.1062501E-06
 -0.5050178E-02  0.0000000E+00 -0.5050505E-02 -0.7249906E-09  0.0000000E+00  0.1057730E-06
 -0.5050018E-02  0.0000000E+00 -0.5050505E-02 -0.7570988E-09  0.0000000E+00  0.1052732E-06
 -0.5049710E-02  0.0000000E+00 -0.5050505E-02 -0.7861415E-09  0.0000000E+00  0.1047528E-06
 -0.5049253E-02  0.0000000E+00 -0.5050505E-02 -0.8120058E-09  0.0000000E+00  0.1042139E-06
 -0.5048636E-02  0.0000000E+00 -0.5050505E-02 -0.8345924E-09  0.0000000E+00  0.1036586E-06
 -0.5047442E-02  0.0000000E+00 -0.5050505E-02 -0.8538159E-09  0.0000000E+00  0.1030892E-06
 -0.5045727E-02  0.0000000E+00 -0.5050505E-02 -0.8696049E-09  0.0000000E+00  0.1025081E-06
 -0.5043261E-02  0.0000000E+00 -0.5050505E-02 -0.8819023E-09  0.0000000E+00  0.1019175E-06
 -0.5038714E-02  0.0000000E+00 -0.5050505E-02 -0.8906651E-09  0.0000000E+00  0.1013197E-06
 -0.5032318E-02  0.0000000E+00 -0.5050505E-02 -0.8958645E-09  0.0000000E+00  0.1007173E-06
 -0.5022454E-02  0.0000000E+00 -0.5050505E-02 -0.8974847E-09  0.0000000E+00  0.1001126E-06
 -0.5012589E-02  0.0000000E+00 -0.5050505E-02 -0.8955230E-09  0.0000000E+00  0.9950796E-07
 -0.5002725E-02  0.0000000E+00 -0.5050505E-02 -0.8899877E-09  0.0000000E+00  0.9890588E-07
 -0.4992860E-02  0.0000000E+00 -0.5050505E-02 -0.8808979E-09  0.0000000E+00  0.9830872E-07
 -0.4976523E-02  0.0000000E+00 -0.5050505E-02 -0.8682810E-09  0.0000000E+00  0.9771888E-07
 -0.4956794E-02  0.0000000E+00 -0.5050505E-02 -0.8521711E-09  0.0000000E+00  0.9713872E-07
 -0.4937066E-02  0.0000000E+00 -0.5050505E-02 -0.8326063E-09  0.0000000E+00  0.9657057E-07
 -0.4906239E-02  0.0000000E+00 -0.5050505E-02 -0.8096247E-09  0.0000000E+00  0.9601675E-07
 -0.4866782E-02  0.0000000E+00 -0.5050505E-02 -0.7832590E-09  0.0000000E+00  0.9547953E-07
 -0.4827325E-02  0.0000000E+00 -0.5050505E-02 -0.7535287E-09  0.0000000E+00  0.9496117E-07
 -0.4769372E-02  0.0000000E+00 -0.5050505E-02 -0.7204281E-09  0.0000000E+00  0.9446394E-07
 -0.4690458E-02  0.0000000E+00 -0.5050505E-02 -0.6839077E-09  0.0000000E+00  0.9399007E-07
 -0.4611543E-02  0.0000000E+00 -0.5050505E-02 -0.6438449E-09  0.0000000E+00  0.9354187E-07
 -0.4503035E-02  0.0000000E+00 -0.5050505E-02 -0.5999958E-09  0.0000000E+00  0.9312171E-07
 -0.4345206E-02  0.0000000E+00 -0.5050505E-02 -0.5519126E-09  0.0000000E+00  0.9273216E-07
 -0.4187378E-02  0.0000000E+00 -0.5050505E-02 -0.4987980E-09  0.0000000E+00  0.9237607E-07
 -0.3985156E-02  0.0000000E+00 -0.5050505E-02 -0.4392361E-09  0.0000000E+00  0.9205685E-07
 -0.3669499E-02  0.0000000E+00 -0.5050505E-02 -0.3706730E-09  0.0000000E+00  0.9177874E-07
 -0.3353842E-02  0.0000000E+00 -0.5050505E-02 -0.2883613E-09  0.0000000E+00  0.9154740E-07
 -0.2978990E-02  0.0000000E+00 -0.5050505E-02 -0.1830983E-09  0.0000000E+00  0.9137058E-07
 -0.2347676E-02  0.0000000E+00 -0.5050505E-02 -0.3605805E-10  0.0000000E+00  0.9125846E-07
 -0.1716362E-02  0.0000000E+00 -0.5050505E-02  0.1936429E-09  0.0000000E+00  0.9122053E-07
 -0.1025842E-02  0.0000000E+00 -0.5050505E-02  0.6007137E-09  0.0000000E+00  0.9124451E-07
  0.2367855E-03  0.0000000E+00 -0.5050505E-02  0.1419106E-08  0.0000000E+00  0.9119002E-07
  0.1499413E-02  0.0000000E+00 -0.5050505E-02  0.3260808E-08  0.0000000E+00  0.9028936E-07
  0.5287294E-02  0.0000000E+00 -0.5050505E-02  0.7800497E-08  0.0000000E+00  0.8483006E-07
 -0.5050505E-02  0.0000000E+00 -0.5050505E-02  0.4304101E-10  0.0000000E+00  0.9225082E-07
 -0.5050505E-02  0.0000000E+00 -0.5050505E-02  0.1315230E-09  0.0000000E+00  0.9228676E-07
 -0.5050505E-02  0.0000000E+00 -0.5050505E-02  0.2200813E-09  0.0000000E+00  0.9235879E-07
 -0.5050505E-02  0.0000000E+00 -0.5050505E-02  0.3074315E-09  0.0000000E+00  0.9246670E-07
 -0.5050505E-02  0.0000000E+00 -0.5050505E-02  0.3934557E-09  0.0000000E+00  0.9261002E-07
 -0.5050505E-02  0.0000000E+00 -0.5050505E-02  0.4779290E-09  0.0000000E+00  0.9278817E-07
 -0.5050504E-02  0.0000000E+00 -0.5050505E-02  0.5605524E-09  0.0000000E+00  0.9300048E-07
 -0.5050501E-02  0.0000000E+00 -0.5050505E-02  0.6409645E-09  0.0000000E+00  0.9324611E-07
 -0.5050495E-02  0.0000000E+00 -0.5050505E-02  0.7188712E-09  0.0000000E+00  0.9352410E-07
 -0.5050482E-02  0.0000000E+00 -0.5050505E-02  0.7939791E-09  0.0000000E+00  0.9383339E-07
 -0.5050449E-02  0.0000000E+00 -0.5050505E-02  0.8659849E-09  0.0000000E+00  0.9417275E-07
 -0.5050376E-02  0.0000000E+00 -0.5050505E-02  0.9345967E-09  0.0000000E+00  0.9454086E-07
 -0.5050299E-02  0.0000000E+00 -0.5050505E-02  0.9995401E-09  0.0000000E+00  0.9493629E-07
 -0.5050178E-02  0.0000000E+00 -0.5050505E-02  0.1060553E-08  0.0000000E+00  0.9535748E-07
 -0.5050018E-02  0.0000000E+00 -0.5050505E-02  0.1117384E-08  0.0000000E+00  0.9580278E-07
 -0.5049710E-02  0.0000000E+00 -0.5050505E-02  0.1169792E-08  0.0000000E+00  0.9627042E-07
 -0.5049253E-02  0.0000000E+00 -0.5050505E-02  0.1217552E-08  0.0000000E+00  0.9675856E-07
 -0.5048636E-02  0.0000000E+00 -0.5050505E-02  0.1260455E-08  0.0000000E+00  0.9726526E-07
 -0.5047442E-02  0.0000000E+00 -0.5050505E-02  0.1298307E-08  0.0000000E+00  0.9778848E-07
 -0.5045727E-02  0.0000000E+00 -0.5050505E-02  0.1330933E-08  0.0000000E+00  0.9832614E-07
 -0.5043261E-02  0.0000000E+00 -0.5050505E-02  0.1358177E-08  0.0000000E+00  0.9887605E-07
 -0.5038714E-02  0.0000000E+00 -0.5050505E-02  0.1379901E-08  0.0000000E+00  0.9943600E-07
 -0.5032318E-02  0.0000000E+00 -0.5050505E-02  0.1395990E-08  0.0000000E+00  0.1000037E-06
 -0.5022454E-02  0.0000000E+00 -0.5050505E-02  0.1406352E-08  0.0000000E+00  0.1005768E-06
 -0.5012589E-02  0.0000000E+00 -0.5050505E-02  0.1410916E-08  0.0000000E+00  0.1011531E-06
 -0.5002725E-02  0.0000000E+00 -0.5050505E-02  0.1409634E-08  0.0000000E+00  0.1017300E-06
 -0.4992860E-02  0.0000000E+00 -0.5050505E-02  0.1402484E-08  0.0000000E+00  0.1023052E-06
 -0.4976523E-02  0.0000000E+00 -0.5050505E-02  0.1389466E-08  0.0000000E+00  0.1028763E-06
 -0.4956794E-02  0.0000000E+00 -0.5050505E-02  0.1370606E-08  0.0000000E+00  0.1034409E-06
 -0.4937066E-02  0.0000000E+00 -0.5050505E-02  0.1345955E-08  0.0000000E+00  0.1039966E-06
 -0.4906239E-02  0.0000000E+00 -0.5050505E-02  0.1315588E-08  0.0000000E+00  0.1045411E-06
 -0.4866782E-02  0.0000000E+00 -0.5050505E-02  0.1279607E-08  0.0000000E+00  0.1050720E-06
 -0.4827325E-02  0.0000000E+00 -0.5050505E-02  0.1238138E-08  0.0000000E+00  0.1055872E-06
 -0.4769372E-02  0.0000000E+00 -0.5050505E-02  0.1191332E-08  0.0000000E+00  0.1060842E-06
 -0.4690458E-02  0.0000000E+00 -0.5050505E-02  0.1139363E-08  0.0000000E+00  0.1065611E-06
 -0.4611543E-02  0.0000000E+00 -0.5050505E-02  0.1082432E-08  0.0000000E+00  0.1070158E-06
 -0.4503035E-02  0.0000000E+00 -0.5050505E-02  0.1020759E-08  0.0000000E+00  0.1074462E-06
 -0.4345206E-02  0.0000000E+00 -0.5050505E-02  0.9545889E-09  0.0000000E+00  0.1078504E-06
 -0.4187378E-02  0.0000000E+00 -0.5050505E-02  0.8841849E-09  0.0000000E+00  0.1082267E-06
 -0.3985156E-02  0.0000000E+00 -0.5050505E-02  0.8098320E-09  0.0000000E+00  0.1085734E-06
 -0.3669499E-02  0.0000000E+00 -0.5050505E-02  0.7318337E-09  0.0000000E+00  0.1088890E-06
 -0.3353842E-02  0.0000000E+00 -0.5050505E-02  0.6505116E-09  0.0000000E+00  0.1091719E-06
 -0.2978990E-02  0.0000000E+00 -0.5050505E-02  0.5662041E-09  0.0000000E+00  0.1094210E-06
 -0.2347676E-02  0.0000000E+00 -0.5050505E-02  0.4792648E-09  0.0000000E+00  0.1096351E-06
 -0.1716362E-02  0.0000000E+00 -0.5050505E-02  0.3900611E-09  0.0000000E+00  0.1098131E-06
 -0.1025842E-02  0.0000000E+00 -0.5050505E-02  0.2989729E-09  0.0000000E+00  0.1099542E-06
  0.2367855E-03  0.0000000E+00 -0.5050505E-02  0.2063920E-09  0.0000000E+00  0.1100577E-06
  0.1499413E-02  0.0000000E+00 -0.5050505E-02  0.1127220E-09  0.0000000E+00  0.1101232E-06
  0.2762042E-02  0.0000000E+00 -0.5050505E-02  0.1840982E-10  0.0000000E+00  0.1101502E-06
 -0.5050505E-02  0.0000000E+00 -0.5050505E-02 -0.7613822E-10  0.0000000E+00  0.1101385E-06
 -0.5050505E-02  0.0000000E+00 -0.5050505E-02 -0.1705482E-09  0.0000000E+00  0.1100882E-06
 -0.5050505E-02  0.0000000E+00 -0.5050505E-02 -0.2644865E-09  0.0000000E+00  0.1099993E-06
 -0.5050505E-02  0.0000000E+00 -0.5050505E-02 -0.3575361E-09  0.0000000E+00  0.1098722E-06
 -0.5050505E-02  0.0000000E+00 -0.5050505E-02 -0.4491560E-09  0.0000000E+00  0.1097073E-06
 -0.5050505E-02  0.0000000E+00 -0.5050505E-02 -0.5390274E-09  0.0000000E+00  0.1095053E-06
 -0.5050505E-02  0.0000000E+00 -0.5050505E-02 -0.6267909E-09  0.0000000E+00  0.1092669E-06
 -0.5050504E-02  0.0000000E+00 -0.5050505E-02 -0.7120182E-09  0.0000000E+00  0.1089931E-06
 -0.5050501E-02  0.0000000E+00 -0.5050505E-02 -0.7943707E-09  0.0000000E+00  0.1086851E-06
 -0.5050495E-02  0.0000000E+00 -0.5050505E-02 -0.8735167E-09  0.0000000E+00  0.1083440E-06
 -0.5050482E-02  0.0000000E+00 -0.5050505E-02 -0.9491188E-09  0.0000000E+00  0.1079713E-06
 -0.5050449E-02  0.0000000E+00 -0.5050505E-02 -0.1020860E-08  0.0000000E+00  0.1075684E-06
 -0.5050376E-02  0.0000000E+00 -0.5050505E-02 -0.1088450E-08  0.0000000E+00  0.1071370E-06
 -0.5050299E-02  0.0000000E+00 -0.5050505E-02 -0.1151619E-08  0.0000000E+00  0.1066789E-06
 -0.5050178E-02  0.0000000E+00 -0.5050505E-02 -0.1210114E-08  0.0000000E+00  0.1061959E-06
 -0.5050018E-02  0.0000000E+00 -0.5050505E-02 -0.1263703E-08  0.0000000E+00  0.1056900E-06
 -0.5049710E-02  0.0000000E+00 -0.5050505E-02 -0.1312173E-08  0.0000000E+00  0.1051633E-06
 -0.5049253E-02  0.0000000E+00 -0.5050505E-02 -0.1355337E-08  0.0000000E+00  0.1046178E-06
 -0.5048636E-02  0.0000000E+00 -0.5050505E-02 -0.1393028E-08  0.0000000E+00  0.1040557E-06
 -0.5047442E-02  0.0000000E+00 -0.5050505E-02 -0.1425106E-08  0.0000000E+00  0.1034795E-06
 -0.5045727E-02  0.0000000E+00 -0.5050505E-02 -0.1451451E-08  0.0000000E+00  0.1028912E-06
 -0.5043261E-02  0.0000000E+00 -0.5050505E-02 -0.1471967E-08  0.0000000E+00  0.1022934E-06
 -0.5038714E-02  0.0000000E+00 -0.5050505E-02 -0.1486585E-08  0.0000000E+00  0.1016885E-06
 -0.5032318E-02  0.0000000E+00 -0.5050505E-02 -0.1495257E-08  0.0000000E+00  0.1010788E-06
 -0.5022454E-02  0.0000000E+00 -0.5050505E-02 -0.1497957E-08  0.0000000E+00  0.1004667E-06
 -0.5012589E-02  0.0000000E+00 -0.5050505E-02 -0.1494682E-08  0.0000000E+00  0.9985482E-07
 -0.5002725E-02  0.0000000E+00 -0.5050505E-02 -0.1485446E-08  0.0000000E+00  0.9924546E-07
 -0.4992860E-02  0.0000000E+00 -0.5050505E-02 -0.1470284E-08  0.0000000E+00  0.9864108E-07
 -0.4976523E-02  0.0000000E+00 -0.5050505E-02 -0.1449244E-08  0.0000000E+00  0.9804409E-07
 -0.4956794E-02  0.0000000E+00 -0.5050505E-02 -0.1422384E-08  0.0000000E+00  0.9745687E-07
 -0.4937066E-02  0.0000000E+00 -0.5050505E-02 -0.1389773E-08  0.0000000E+00  0.9688176E-07
 -0.4906239E-02  0.0000000E+00 -0.5050505E-02 -0.1351481E-08  0.0000000E+00  0.9632109E-07
 -0.4866782E-02  0.0000000E+00 -0.5050505E-02 -0.1307570E-08  0.0000000E+00  0.9577713E-07
 -0.4827325E-02  0.0000000E+00 -0.5050505E-02 -0.1258087E-08  0.0000000E+00  0.9525213E-07
 -0.4769372E-02  0.0000000E+00 -0.5050505E-02 -0.1203043E-08  0.0000000E+00  0.9474830E-07
 -0.4690458E-02  0.0000000E+00 -0.5050505E-02 -0.1142387E-08  0.0000000E+00  0.9426783E-07
 -0.4611543E-02  0.0000000E+00 -0.5050505E-02 -0.1075971E-08  0.0000000E+00  0.9381290E-07
 -0.4503035E-02  0.0000000E+00 -0.5050505E-02 -0.1003480E-08  0.0000000E+00  0.9338571E-07
 -0.4345206E-02  0.0000000E+00 -0.5050505E-02 -0.9243333E-09  0.0000000E+00  0.9298848E-07
 -0.4187378E-02  0.0000000E+00 -0.5050505E-02 -0.8375072E-09  0.0000000E+00  0.9262348E-07
 -0.3985156E-02  0.0000000E+00 -0.5050505E-02 -0.7412351E-09  0.0000000E+00  0.9229309E-07
 -0.3669499E-02  0.0000000E+00 -0.5050505E-02 -0.6324753E-09  0.0000000E+00  0.9199964E-07
 -0.3353842E-02  0.0000000E+00 -0.5050505E-02 -0.5059477E-09  0.0000000E+00  0.9174516E-07
 -0.2978990E-02  0.0000000E+00 -0.5050505E-02 -0.3523890E-09  0.0000000E+00  0.9153026E-07
 -0.2347676E-02  0.0000000E+00 -0.5050505E-02 -0.1553854E-09  0.0000000E+00  0.9135090E-07
 -0.1716362E-02  0.0000000E+00 -0.5050505E-02  0.1137704E-09  0.0000000E+00  0.9118940E-07
 -0.1025842E-02  0.0000000E+00 -0.5050505E-02  0.5022008E-09  0.0000000E+00  0.9099051E-07
  0.2367855E-03  0.0000000E+00 -0.5050505E-02  0.1068941E-08  0.0000000E+00  0.9060519E-07
  0.1499413E-02  0.0000000E+00 -0.5050505E-02  0.1792470E-08  0.0000000E+00  0.8970349E-07
  0.5287294E-02  0.0000000E+00 -0.5050505E-02  0.2036778E-08  0.0000000E+00  0.8795235E-07
 -0.5050505E-02  0.0000000E+00 -0.5050505E-02  0.6078832E-10  0.0000000E+00  0.9262614E-07
 -0.5050505E-02  0.0000000E+00 -0.5050505E-02  0.1849826E-09  0.0000000E+00  0.9266279E-07
 -0.5050505E-02  0.0000000E+00 -0.5050505E-02  0.3092390E-09  0.0000000E+00  0.9273616E-07
 -0.5050505E-02  0.0000000E+00 -0.5050505E-02  0.4318581E-09  0.0000000E+00  0.9284601E-07
 -0.5050505E-02  0.0000000E+00 -0.5050505E-02  0.5526605E-09  0.0000000E+00  0.9299188E-07
 -0.5050505E-02  0.0000000E+00 -0.5050505E-02  0.6712938E-09  0.0000000E+00  0.9317319E-07
 -0.5050504E-02  0.0000000E+00 -0.5050505E-02  0.7873301E-09  0.0000000E+00  0.9338924E-07
 -0.5050501E-02  0.0000000E+00 -0.5050505E-02  0.9002737E-09  0.0000000E+00  0.9363921E-07
 -0.5050495E-02  0.0000000E+00 -0.5050505E-02  0.1009704E-08  0.0000000E+00  0.9392212E-07
 -0.5050482E-02  0.0000000E+00 -0.5050505E-02  0.1115204E-08  0.0000000E+00  0.9423686E-07
 -0.5050449E-02  0.0000000E+00 -0.5050505E-02  0.1216352E-08  0.0000000E+00  0.9458223E-07
 -0.5050376E-02  0.0000000E+00 -0.5050505E-02  0.1312737E-08  0.0000000E+00  0.9495688E-07
 -0.5050299E-02  0.0000000E+00 -0.5050505E-02  0.1403974E-08  0.0000000E+00  0.9535933E-07
 -0.5050178E-02  0.0000000E+00 -0.5050505E-02  0.1489694E-08  0.0000000E+00  0.9578802E-07
 -0.5050018E-02  0.0000000E+00 -0.5050505E-02  0.1569543E-08  0.0000000E+00  0.9624126E-07
 -0.5049710E-02  0.0000000E+00 -0.5050505E-02  0.1643184E-08  0.0000000E+00  0.9671727E-07
 -0.5049253E-02  0.0000000E+00 -0.5050505E-02  0.1710299E-08  0.0000000E+00  0.9721416E-07
 -0.5048636E-02  0.0000000E+00 -0.5050505E-02  0.1770594E-08  0.0000000E+00  0.9772997E-07
 -0.5047442E-02  0.0000000E+00 -0.5050505E-02  0.1823798E-08  0.0000000E+00  0.9826263E-07
 -0.5045727E-02  0.0000000E+00 -0.5050505E-02  0.1869663E-08  0.0000000E+00  0.9881001E-07
 -0.5043261E-02  0.0000000E+00 -0.5050505E-02  0.1907968E-08  0.0000000E+00  0.9936990E-07
 -0.5038714E-02  0.0000000E+00 -0.5050505E-02  0.1938523E-08  0.0000000E+00  0.9994003E-07
 -0.5032318E-02  0.0000000E+00 -0.5050505E-02  0.1961164E-08  0.0000000E+00  0.1005181E-06
 -0.5022454E-02  0.0000000E+00 -0.5050505E-02  0.1975760E-08  0.0000000E+00  0.1011017E-06
 -0.5012589E-02  0.0000000E+00 -0.5050505E-02  0.1982212E-08  0.0000000E+00  0.1016885E-06
 -0.5002725E-02  0.0000000E+00 -0.5050505E-02  0.1980452E-08  0.0000000E+00  0.1022761E-06
 -0.4992860E-02  0.0000000E+00 -0.5050505E-02  0.1970447E-08  0.0000000E+00  0.1028619E-06
 -0.4976523E-02  0.0000000E+00 -0.5050505E-02  0.1952199E-08  0.0000000E+00  0.1034436E-06
 -0.4956794E-02  0.0000000E+00 -0.5050505E-02  0.1925741E-08  0.0000000E+00  0.1040187E-06
 -0.4937066E-02  0.0000000E+00 -0.5050505E-02  0.1891146E-08  0.0000000E+00  0.1045848E-06