title = "dataset feddes"
variables = "x", "y", "z", "vx", "vy", "vz"
zone t = "velocities, solution time =  4.300E+01 days        " i =   99, j =   99, k =    1,  f=point
 -0.5050505E-02  0.0000000E+00 -0.5050505E-02  0.2506309E-10  0.0000000E+00  0.2103257E-06
 -0.5050505E-02  0.0000000E+00 -0.5050505E-02  0.7523445E-10  0.0000000E+00  0.2104266E-06
 -0.5050505E-02  0.0000000E+00 -0.5050505E-02  0.1251874E-09  0.0000000E+00  0.2106281E-06
 -0.5050505E-02  0.0000000E+00 -0.5050505E-02  0.1746461E-09  0.0000000E+00  0.2109297E-06
 -0.5050505E-02  0.0000000E+00 -0.5050505E-02  0.2234253E-09  0.0000000E+00  0.2113300E-06
 -0.5050505E-02  0.0000000E+00 -0.5050505E-02  0.2713440E-09  0.0000000E+00  0.2118276E-06
 -0.5050504E-02  0.0000000E+00 -0.5050505E-02  0.3182242E-09  0.0000000E+00  0.2124205E-06
 -0.5050501E-02  0.0000000E+00 -0.5050505E-02  0.3638841E-09  0.0000000E+00  0.2131064E-06
 -0.5050495E-02  0.0000000E+00 -0.5050505E-02  0.4081464E-09  0.0000000E+00  0.2138829E-06
 -0.5050482E-02  0.0000000E+00 -0.5050505E-02  0.4508393E-09  0.0000000E+00  0.2147467E-06
 -0.5050449E-02  0.0000000E+00 -0.5050505E-02  0.4917917E-09  0.0000000E+00  0.2156947E-06
 -0.5050376E-02  0.0000000E+00 -0.5050505E-02  0.5308396E-09  0.0000000E+00  0.2167231E-06
 -0.5050299E-02  0.0000000E+00 -0.5050505E-02  0.5678253E-09  0.0000000E+00  0.2178280E-06
 -0.5050178E-02  0.0000000E+00 -0.5050505E-02  0.6025960E-09  0.0000000E+00  0.2190051E-06
 -0.5050018E-02  0.0000000E+00 -0.5050505E-02  0.6350064E-09  0.0000000E+00  0.2202497E-06
 -0.5049710E-02  0.0000000E+00 -0.5050505E-02  0.6649191E-09  0.0000000E+00  0.2215570E-06
 -0.5049253E-02  0.0000000E+00 -0.5050505E-02  0.6922044E-09  0.0000000E+00  0.2229218E-06
 -0.5048636E-02  0.0000000E+00 -0.5050505E-02  0.7167416E-09  0.0000000E+00  0.2243387E-06
 -0.5047442E-02  0.0000000E+00 -0.5050505E-02  0.7384192E-09  0.0000000E+00  0.2258021E-06
 -0.5045727E-02  0.0000000E+00 -0.5050505E-02  0.7571360E-09  0.0000000E+00  0.2273062E-06
 -0.5043261E-02  0.0000000E+00 -0.5050505E-02  0.7728009E-09  0.0000000E+00  0.2288448E-06
 -0.5038714E-02  0.0000000E+00 -0.5050505E-02  0.7853342E-09  0.0000000E+00  0.2304117E-06
 -0.5032318E-02  0.0000000E+00 -0.5050505E-02  0.7946678E-09  0.0000000E+00  0.2320007E-06
 -0.5022454E-02  0.0000000E+00 -0.5050505E-02  0.8007457E-09  0.0000000E+00  0.2336052E-06
 -0.5012589E-02  0.0000000E+00 -0.5050505E-02  0.8035246E-09  0.0000000E+00  0.2352185E-06
 -0.5002725E-02  0.0000000E+00 -0.5050505E-02  0.8029743E-09  0.0000000E+00  0.2368341E-06
 -0.4992860E-02  0.0000000E+00 -0.5050505E-02  0.7990780E-09  0.0000000E+00  0.2384453E-06
 -0.4976523E-02  0.0000000E+00 -0.5050505E-02  0.7918328E-09  0.0000000E+00  0.2400452E-06
 -0.4956794E-02  0.0000000E+00 -0.5050505E-02  0.7812499E-09  0.0000000E+00  0.2416272E-06
 -0.4937066E-02  0.0000000E+00 -0.5050505E-02  0.7673549E-09  0.0000000E+00  0.2431846E-06
 -0.4906239E-02  0.0000000E+00 -0.5050505E-02  0.7501877E-09  0.0000000E+00  0.2447107E-06
 -0.4866782E-02  0.0000000E+00 -0.5050505E-02  0.7298031E-09  0.0000000E+00  0.2461991E-06
 -0.4827325E-02  0.0000000E+00 -0.5050505E-02  0.7062701E-09  0.0000000E+00  0.2476433E-06
 -0.4769372E-02  0.0000000E+00 -0.5050505E-02  0.6796724E-09  0.0000000E+00  0.2490371E-06
 -0.4690458E-02  0.0000000E+00 -0.5050505E-02  0.6501082E-09  0.0000000E+00  0.2503744E-06
 -0.4611543E-02  0.0000000E+00 -0.5050505E-02  0.6176895E-09  0.0000000E+00  0.2516494E-06
 -0.4503035E-02  0.0000000E+00 -0.5050505E-02  0.5825422E-09  0.0000000E+00  0.2528565E-06
 -0.4345206E-02  0.0000000E+00 -0.5050505E-02  0.5448055E-09  0.0000000E+00  0.2539902E-06
 -0.4187378E-02  0.0000000E+00 -0.5050505E-02  0.5046314E-09  0.0000000E+00  0.2550456E-06
 -0.3985156E-02  0.0000000E+00 -0.5050505E-02  0.4621840E-09  0.0000000E+00  0.2560179E-06
 -0.3669499E-02  0.0000000E+00 -0.5050505E-02  0.4176388E-09  0.0000000E+00  0.2569027E-06
 -0.3353842E-02  0.0000000E+00 -0.5050505E-02  0.3711821E-09  0.0000000E+00  0.2576960E-06
 -0.2978990E-02  0.0000000E+00 -0.5050505E-02  0.3230098E-09  0.0000000E+00  0.2583941E-06
 -0.2347676E-02  0.0000000E+00 -0.5050505E-02  0.2733268E-09  0.0000000E+00  0.2589938E-06
 -0.1716362E-02  0.0000000E+00 -0.5050505E-02  0.2223458E-09  0.0000000E+00  0.2594923E-06
 -0.1025842E-02  0.0000000E+00 -0.5050505E-02  0.1702861E-09  0.0000000E+00  0.2598872E-06
  0.2367855E-03  0.0000000E+00 -0.5050505E-02  0.1173734E-09  0.0000000E+00  0.2601765E-06
  0.1499413E-02  0.0000000E+00 -0.5050505E-02  0.6383842E-10  0.0000000E+00  0.2603587E-06
  0.2762042E-02  0.0000000E+00 -0.5050505E-02  0.9915580E-11  0.0000000E+00  0.2604329E-06
 -0.5050505E-02  0.0000000E+00 -0.5050505E-02 -0.4413378E-10  0.0000000E+00  0.2603985E-06
 -0.5050505E-02  0.0000000E+00 -0.5050505E-02 -0.9810722E-10  0.0000000E+00  0.2602554E-06
 -0.5050505E-02  0.0000000E+00 -0.5050505E-02 -0.1517914E-09  0.0000000E+00  0.2600041E-06
 -0.5050505E-02  0.0000000E+00 -0.5050505E-02 -0.2049219E-09  0.0000000E+00  0.2596454E-06
 -0.5050505E-02  0.0000000E+00 -0.5050505E-02 -0.2572647E-09  0.0000000E+00  0.2591805E-06
 -0.5050505E-02  0.0000000E+00 -0.5050505E-02 -0.3085928E-09  0.0000000E+00  0.2586115E-06
 -0.5050505E-02  0.0000000E+00 -0.5050505E-02 -0.3586896E-09  0.0000000E+00  0.2579404E-06
 -0.5050504E-02  0.0000000E+00 -0.5050505E-02 -0.4073379E-09  0.0000000E+00  0.2571700E-06
 -0.5050501E-02  0.0000000E+00 -0.5050505E-02 -0.4543298E-09  0.0000000E+00  0.2563035E-06
 -0.5050495E-02  0.0000000E+00 -0.5050505E-02 -0.4994688E-09  0.0000000E+00  0.2553443E-06
 -0.5050482E-02  0.0000000E+00 -0.5050505E-02 -0.5425628E-09  0.0000000E+00  0.2542963E-06
 -0.5050449E-02  0.0000000E+00 -0.5050505E-02 -0.5834325E-09  0.0000000E+00  0.2531640E-06
 -0.5050376E-02  0.0000000E+00 -0.5050505E-02 -0.6219103E-09  0.0000000E+00  0.2519518E-06
 -0.5050299E-02  0.0000000E+00 -0.5050505E-02 -0.6578387E-09  0.0000000E+00  0.2506648E-06
 -0.5050178E-02  0.0000000E+00 -0.5050505E-02 -0.6910734E-09  0.0000000E+00  0.2493082E-06
 -0.5050018E-02  0.0000000E+00 -0.5050505E-02 -0.7214832E-09  0.0000000E+00  0.2478877E-06
 -0.5049710E-02  0.0000000E+00 -0.5050505E-02 -0.7489498E-09  0.0000000E+00  0.2464089E-06
 -0.5049253E-02  0.0000000E+00 -0.5050505E-02 -0.7733686E-09  0.0000000E+00  0.2448779E-06
 -0.5048636E-02  0.0000000E+00 -0.5050505E-02 -0.7946489E-09  0.0000000E+00  0.2433010E-06
 -0.5047442E-02  0.0000000E+00 -0.5050505E-02 -0.8127138E-09  0.0000000E+00  0.2416846E-06
 -0.5045727E-02  0.0000000E+00 -0.5050505E-02 -0.8275005E-09  0.0000000E+00  0.2400351E-06
 -0.5043261E-02  0.0000000E+00 -0.5050505E-02 -0.8389599E-09  0.0000000E+00  0.2383591E-06
 -0.5038714E-02  0.0000000E+00 -0.5050505E-02 -0.8470565E-09  0.0000000E+00  0.2366636E-06
 -0.5032318E-02  0.0000000E+00 -0.5050505E-02 -0.8517681E-09  0.0000000E+00  0.2349551E-06
 -0.5022454E-02  0.0000000E+00 -0.5050505E-02 -0.8530854E-09  0.0000000E+00  0.2332406E-06
 -0.5012589E-02  0.0000000E+00 -0.5050505E-02 -0.8510110E-09  0.0000000E+00  0.2315268E-06
 -0.5002725E-02  0.0000000E+00 -0.5050505E-02 -0.8455589E-09  0.0000000E+00  0.2298207E-06
 -0.4992860E-02  0.0000000E+00 -0.5050505E-02 -0.8367537E-09  0.0000000E+00  0.2281288E-06
 -0.4976523E-02  0.0000000E+00 -0.5050505E-02 -0.8246284E-09  0.0000000E+00  0.2264580E-06
 -0.4956794E-02  0.0000000E+00 -0.5050505E-02 -0.8092238E-09  0.0000000E+00  0.2248149E-06
 -0.4937066E-02  0.0000000E+00 -0.5050505E-02 -0.7905850E-09  0.0000000E+00  0.2232060E-06
 -0.4906239E-02  0.0000000E+00 -0.5050505E-02 -0.7687591E-09  0.0000000E+00  0.2216378E-06
 -0.4866782E-02  0.0000000E+00 -0.5050505E-02 -0.7437901E-09  0.0000000E+00  0.2201167E-06
 -0.4827325E-02  0.0000000E+00 -0.5050505E-02 -0.7157125E-09  0.0000000E+00  0.2186489E-06
 -0.4769372E-02  0.0000000E+00 -0.5050505E-02 -0.6845413E-09  0.0000000E+00  0.2172407E-06
 -0.4690458E-02  0.0000000E+00 -0.5050505E-02 -0.6502568E-09  0.0000000E+00  0.2158984E-06
 -0.4611543E-02  0.0000000E+00 -0.5050505E-02 -0.6127793E-09  0.0000000E+00  0.2146282E-06
 -0.4503035E-02  0.0000000E+00 -0.5050505E-02 -0.5719282E-09  0.0000000E+00  0.2134368E-06
 -0.4345206E-02  0.0000000E+00 -0.5050505E-02 -0.5273497E-09  0.0000000E+00  0.2123313E-06
 -0.4187378E-02  0.0000000E+00 -0.5050505E-02 -0.4783859E-09  0.0000000E+00  0.2113198E-06
 -0.3985156E-02  0.0000000E+00 -0.5050505E-02 -0.4238255E-09  0.0000000E+00  0.2104125E-06
 -0.3669499E-02  0.0000000E+00 -0.5050505E-02 -0.3613994E-09  0.0000000E+00  0.2096228E-06
 -0.3353842E-02  0.0000000E+00 -0.5050505E-02 -0.2866941E-09  0.0000000E+00  0.2089710E-06
 -0.2978990E-02  0.0000000E+00 -0.5050505E-02 -0.1906275E-09  0.0000000E+00  0.2084910E-06
 -0.2347676E-02  0.0000000E+00 -0.5050505E-02 -0.5307622E-10  0.0000000E+00  0.2082459E-06
 -0.1716362E-02  0.0000000E+00 -0.5050505E-02  0.1746788E-09  0.0000000E+00  0.2083682E-06
 -0.1025842E-02  0.0000000E+00 -0.5050505E-02  0.6234893E-09  0.0000000E+00  0.2091709E-06
  0.2367855E-03  0.0000000E+00 -0.5050505E-02  0.1683399E-08  0.0000000E+00  0.2114909E-06
  0.1499413E-02  0.0000000E+00 -0.5050505E-02  0.4643272E-08  0.0000000E+00  0.2178534E-06
  0.5287294E-02  0.0000000E+00 -0.5050505E-02  0.7689619E-07  0.0000000E+00  0.1740513E-06
 -0.5050505E-02  0.0000000E+00 -0.5050505E-02  0.7523668E-10  0.0000000E+00  0.2106682E-06
 -0.5050505E-02  0.0000000E+00 -0.5050505E-02  0.2257828E-09  0.0000000E+00  0.2107698E-06
 -0.5050505E-02  0.0000000E+00 -0.5050505E-02  0.3756610E-09  0.0000000E+00  0.2109727E-06
 -0.5050505E-02  0.0000000E+00 -0.5050505E-02  0.5240637E-09  0.0000000E+00  0.2112761E-06
 -0.5050505E-02  0.0000000E+00 -0.5050505E-02  0.6704353E-09  0.0000000E+00  0.2116790E-06
 -0.5050505E-02  0.0000000E+00 -0.5050505E-02  0.8142274E-09  0.0000000E+00  0.2121797E-06
 -0.5050504E-02  0.0000000E+00 -0.5050505E-02  0.9549033E-09  0.0000000E+00  0.2127764E-06
 -0.5050501E-02  0.0000000E+00 -0.5050505E-02  0.1091920E-08  0.0000000E+00  0.2134667E-06
 -0.5050495E-02  0.0000000E+00 -0.5050505E-02  0.1224744E-08  0.0000000E+00  0.2142480E-06
 -0.5050482E-02  0.0000000E+00 -0.5050505E-02  0.1352859E-08  0.0000000E+00  0.2151174E-06
 -0.5050449E-02  0.0000000E+00 -0.5050505E-02  0.1475754E-08  0.0000000E+00  0.2160714E-06
 -0.5050376E-02  0.0000000E+00 -0.5050505E-02  0.1592935E-08  0.0000000E+00  0.2171064E-06
 -0.5050299E-02  0.0000000E+00 -0.5050505E-02  0.1703930E-08  0.0000000E+00  0.2182183E-06
 -0.5050178E-02  0.0000000E+00 -0.5050505E-02  0.1808279E-08  0.0000000E+00  0.2194029E-06
 -0.5050018E-02  0.0000000E+00 -0.5050505E-02  0.1905548E-08  0.0000000E+00  0.2206556E-06
 -0.5049710E-02  0.0000000E+00 -0.5050505E-02  0.1995323E-08  0.0000000E+00  0.2219713E-06
 -0.5049253E-02  0.0000000E+00 -0.5050505E-02  0.2077215E-08  0.0000000E+00  0.2233449E-06
 -0.5048636E-02  0.0000000E+00 -0.5050505E-02  0.2150862E-08  0.0000000E+00  0.2247711E-06
 -0.5047442E-02  0.0000000E+00 -0.5050505E-02  0.2215930E-08  0.0000000E+00  0.2262440E-06
 -0.5045727E-02  0.0000000E+00 -0.5050505E-02  0.2272113E-08  0.0000000E+00  0.2277579E-06
 -0.5043261E-02  0.0000000E+00 -0.5050505E-02  0.2319139E-08  0.0000000E+00  0.2293065E-06
 -0.5038714E-02  0.0000000E+00 -0.5050505E-02  0.2356768E-08  0.0000000E+00  0.2308838E-06
 -0.5032318E-02  0.0000000E+00 -0.5050505E-02  0.2384796E-08  0.0000000E+00  0.2324832E-06
 -0.5022454E-02  0.0000000E+00 -0.5050505E-02  0.2403055E-08  0.0000000E+00  0.2340983E-06
 -0.5012589E-02  0.0000000E+00 -0.5050505E-02  0.2411413E-08  0.0000000E+00  0.2357224E-06
 -0.5002725E-02  0.0000000E+00 -0.5050505E-02  0.2409781E-08  0.0000000E+00  0.2373488E-06
 -0.4992860E-02  0.0000000E+00 -0.5050505E-02  0.2398107E-08  0.0000000E+00  0.2389707E-06
 -0.4976523E-02  0.0000000E+00 -0.5050505E-02  0.2376383E-08  0.0000000E+00  0.2405814E-06
 -0.4956794E-02  0.0000000E+00 -0.5050505E-02  0.2344642E-08  0.0000000E+00  0.2421740E-06
 -0.4937066E-02  0.0000000E+00 -0.5050505E-02  0.2302960E-08  0.0000000E+00  0.2437419E-06
 -0.4906239E-02  0.0000000E+00 -0.5050505E-02  0.2251457E-08  0.0000000E+00  0.2452784E-06
 -0.4866782E-02  0.0000000E+00 -0.5050505E-02  0.2190297E-08  0.0000000E+00  0.2467769E-06
 -0.4827325E-02  0.0000000E+00 -0.5050505E-02  0.2119687E-08  0.0000000E+00  0.2482310E-06
 -0.4769372E-02  0.0000000E+00 -0.5050505E-02  0.2039879E-08  0.0000000E+00  0.2496344E-06
 -0.4690458E-02  0.0000000E+00 -0.5050505E-02  0.1951166E-08  0.0000000E+00  0.2509809E-06
 -0.4611543E-02  0.0000000E+00 -0.5050505E-02  0.1853884E-08  0.0000000E+00  0.2522647E-06
 -0.4503035E-02  0.0000000E+00 -0.5050505E-02  0.1748412E-08  0.0000000E+00  0.2534802E-06
 -0.4345206E-02  0.0000000E+00 -0.5050505E-02  0.1635167E-08  0.0000000E+00  0.2546218E-06
 -0.4187378E-02  0.0000000E+00 -0.5050505E-02  0.1514605E-08  0.0000000E+00  0.2556846E-06
 -0.3985156E-02  0.0000000E+00 -0.5050505E-02  0.1387218E-08  0.0000000E+00  0.2566637E-06
 -0.3669499E-02  0.0000000E+00 -0.5050505E-02  0.1253534E-08  0.0000000E+00  0.2575548E-06
 -0.3353842E-02  0.0000000E+00 -0.5050505E-02  0.1114112E-08  0.0000000E+00  0.2583537E-06
 -0.2978990E-02  0.0000000E+00 -0.5050505E-02  0.9695389E-09  0.0000000E+00  0.2590568E-06
 -0.2347676E-02  0.0000000E+00 -0.5050505E-02  0.8204308E-09  0.0000000E+00  0.2596609E-06
 -0.1716362E-02  0.0000000E+00 -0.5050505E-02  0.6674254E-09  0.0000000E+00  0.2601630E-06
 -0.1025842E-02  0.0000000E+00 -0.5050505E-02  0.5111815E-09  0.0000000E+00  0.2605608E-06
  0.2367855E-03  0.0000000E+00 -0.5050505E-02  0.3523763E-09  0.0000000E+00  0.2608523E-06
  0.1499413E-02  0.0000000E+00 -0.5050505E-02  0.1917039E-09  0.0000000E+00  0.2610360E-06
  0.2762042E-02  0.0000000E+00 -0.5050505E-02  0.2987410E-10  0.0000000E+00  0.2611109E-06
 -0.5050505E-02  0.0000000E+00 -0.5050505E-02 -0.1323479E-09  0.0000000E+00  0.2610765E-06
 -0.5050505E-02  0.0000000E+00 -0.5050505E-02 -0.2943439E-09  0.0000000E+00  0.2609326E-06
 -0.5050505E-02  0.0000000E+00 -0.5050505E-02 -0.4554606E-09  0.0000000E+00  0.2606798E-06
 -0.5050505E-02  0.0000000E+00 -0.5050505E-02 -0.6149162E-09  0.0000000E+00  0.2603188E-06
 -0.5050505E-02  0.0000000E+00 -0.5050505E-02 -0.7720098E-09  0.0000000E+00  0.2598510E-06
 -0.5050505E-02  0.0000000E+00 -0.5050505E-02 -0.9260578E-09  0.0000000E+00  0.2592783E-06
 -0.5050505E-02  0.0000000E+00 -0.5050505E-02 -0.1076407E-08  0.0000000E+00  0.2586028E-06
 -0.5050504E-02  0.0000000E+00 -0.5050505E-02 -0.1222410E-08  0.0000000E+00  0.2578274E-06
 -0.5050501E-02  0.0000000E+00 -0.5050505E-02 -0.1363440E-08  0.0000000E+00  0.2569551E-06
 -0.5050495E-02  0.0000000E+00 -0.5050505E-02 -0.1498907E-08  0.0000000E+00  0.2559896E-06
 -0.5050482E-02  0.0000000E+00 -0.5050505E-02 -0.1628235E-08  0.0000000E+00  0.2549347E-06
 -0.5050449E-02  0.0000000E+00 -0.5050505E-02 -0.1750886E-08  0.0000000E+00  0.2537949E-06
 -0.5050376E-02  0.0000000E+00 -0.5050505E-02 -0.1866357E-08  0.0000000E+00  0.2525747E-06
 -0.5050299E-02  0.0000000E+00 -0.5050505E-02 -0.1974175E-08  0.0000000E+00  0.2512792E-06
 -0.5050178E-02  0.0000000E+00 -0.5050505E-02 -0.2073907E-08  0.0000000E+00  0.2499136E-06
 -0.5050018E-02  0.0000000E+00 -0.5050505E-02 -0.2165161E-08  0.0000000E+00  0.2484837E-06
 -0.5049710E-02  0.0000000E+00 -0.5050505E-02 -0.2247580E-08  0.0000000E+00  0.2469952E-06
 -0.5049253E-02  0.0000000E+00 -0.5050505E-02 -0.2320851E-08  0.0000000E+00  0.2454542E-06
 -0.5048636E-02  0.0000000E+00 -0.5050505E-02 -0.2384702E-08  0.0000000E+00  0.2438669E-06
 -0.5047442E-02  0.0000000E+00 -0.5050505E-02 -0.2438904E-08  0.0000000E+00  0.2422398E-06
 -0.5045727E-02  0.0000000E+00 -0.5050505E-02 -0.2483267E-08  0.0000000E+00  0.2405795E-06
 -0.5043261E-02  0.0000000E+00 -0.5050505E-02 -0.2517644E-08  0.0000000E+00  0.2388927E-06
 -0.5038714E-02  0.0000000E+00 -0.5050505E-02 -0.2541931E-08  0.0000000E+00  0.2371861E-06
 -0.5032318E-02  0.0000000E+00 -0.5050505E-02 -0.2556061E-08  0.0000000E+00  0.2354665E-06
 -0.5022454E-02  0.0000000E+00 -0.5050505E-02 -0.2560005E-08  0.0000000E+00  0.2337409E-06
 -0.5012589E-02  0.0000000E+00 -0.5050505E-02 -0.2553774E-08  0.0000000E+00  0.2320160E-06
 -0.5002725E-02  0.0000000E+00 -0.5050505E-02 -0.2537410E-08  0.0000000E+00  0.2302988E-06
 -0.4992860E-02  0.0000000E+00 -0.5050505E-02 -0.2510988E-08  0.0000000E+00  0.2285960E-06
 -0.4976523E-02  0.0000000E+00 -0.5050505E-02 -0.2474609E-08  0.0000000E+00  0.2269143E-06
 -0.4956794E-02  0.0000000E+00 -0.5050505E-02 -0.2428397E-08  0.0000000E+00  0.2252605E-06
 -0.4937066E-02  0.0000000E+00 -0.5050505E-02 -0.2372492E-08  0.0000000E+00  0.2236412E-06
 -0.4906239E-02  0.0000000E+00 -0.5050505E-02 -0.2307037E-08  0.0000000E+00  0.2220627E-06
 -0.4866782E-02  0.0000000E+00 -0.5050505E-02 -0.2232173E-08  0.0000000E+00  0.2205315E-06
 -0.4827325E-02  0.0000000E+00 -0.5050505E-02 -0.2148012E-08  0.0000000E+00  0.2190538E-06
 -0.4769372E-02  0.0000000E+00 -0.5050505E-02 -0.2054615E-08  0.0000000E+00  0.2176358E-06
 -0.4690458E-02  0.0000000E+00 -0.5050505E-02 -0.1951947E-08  0.0000000E+00  0.2162837E-06
 -0.4611543E-02  0.0000000E+00 -0.5050505E-02 -0.1839810E-08  0.0000000E+00  0.2150038E-06
 -0.4503035E-02  0.0000000E+00 -0.5050505E-02 -0.1717736E-08  0.0000000E+00  0.2138022E-06
 -0.4345206E-02  0.0000000E+00 -0.5050505E-02 -0.1584795E-08  0.0000000E+00  0.2126858E-06
 -0.4187378E-02  0.0000000E+00 -0.5050505E-02 -0.1439262E-08  0.0000000E+00  0.2116618E-06
 -0.3985156E-02  0.0000000E+00 -0.5050505E-02 -0.1278010E-08  0.0000000E+00  0.2107387E-06
 -0.3669499E-02  0.0000000E+00 -0.5050505E-02 -0.1095319E-08  0.0000000E+00  0.2099268E-06
 -0.3353842E-02  0.0000000E+00 -0.5050505E-02 -0.8804765E-09  0.0000000E+00  0.2092397E-06
 -0.2978990E-02  0.0000000E+00 -0.5050505E-02 -0.6126057E-09  0.0000000E+00  0.2086955E-06
 -0.2347676E-02  0.0000000E+00 -0.5050505E-02 -0.2489251E-09  0.0000000E+00  0.2083179E-06
 -0.1716362E-02  0.0000000E+00 -0.5050505E-02  0.3035187E-09  0.0000000E+00  0.2081289E-06
 -0.1025842E-02  0.0000000E+00 -0.5050505E-02  0.1260567E-08  0.0000000E+00  0.2081010E-06
  0.2367855E-03  0.0000000E+00 -0.5050505E-02  0.3154984E-08  0.0000000E+00  0.2079147E-06
  0.1499413E-02  0.0000000E+00 -0.5050505E-02  0.7381362E-08  0.0000000E+00  0.2058214E-06
  0.5287294E-02  0.0000000E+00 -0.5050505E-02  0.1775612E-07  0.0000000E+00  0.1933636E-06
 -0.5050505E-02  0.0000000E+00 -0.5050505E-02  0.1256501E-09  0.0000000E+00  0.2113546E-06
 -0.5050505E-02  0.0000000E+00 -0.5050505E-02  0.3769591E-09  0.0000000E+00  0.2114575E-06
 -0.5050505E-02  0.0000000E+00 -0.5050505E-02  0.6271246E-09  0.0000000E+00  0.2116629E-06
 -0.5050505E-02  0.0000000E+00 -0.5050505E-02  0.8748425E-09  0.0000000E+00  0.2119702E-06
 -0.5050505E-02  0.0000000E+00 -0.5050505E-02  0.1119184E-08  0.0000000E+00  0.2123781E-06
 -0.5050505E-02  0.0000000E+00 -0.5050505E-02  0.1359227E-08  0.0000000E+00  0.2128852E-06
 -0.5050504E-02  0.0000000E+00 -0.5050505E-02  0.1594071E-08  0.0000000E+00  0.2134893E-06
 -0.5050501E-02  0.0000000E+00 -0.5050505E-02  0.1822811E-08  0.0000000E+00  0.2141884E-06
 -0.5050495E-02  0.0000000E+00 -0.5050505E-02  0.2044558E-08  0.0000000E+00  0.2149796E-06
 -0.5050482E-02  0.0000000E+00 -0.5050505E-02  0.2258447E-08  0.0000000E+00  0.2158599E-06
 -0.5050449E-02  0.0000000E+00 -0.5050505E-02  0.2463627E-08  0.0000000E+00  0.2168260E-06
 -0.5050376E-02  0.0000000E+00 -0.5050505E-02  0.2659276E-08  0.0000000E+00  0.2178742E-06
 -0.5050299E-02  0.0000000E+00 -0.5050505E-02  0.2844600E-08  0.0000000E+00  0.2190003E-06
 -0.5050178E-02  0.0000000E+00 -0.5050505E-02  0.3018838E-08  0.0000000E+00  0.2202000E-06
 -0.5050018E-02  0.0000000E+00 -0.5050505E-02  0.3181260E-08  0.0000000E+00  0.2214687E-06
 -0.5049710E-02  0.0000000E+00 -0.5050505E-02  0.3331176E-08  0.0000000E+00  0.2228013E-06
 -0.5049253E-02  0.0000000E+00 -0.5050505E-02  0.3467939E-08  0.0000000E+00  0.2241926E-06
 -0.5048636E-02  0.0000000E+00 -0.5050505E-02  0.3590941E-08  0.0000000E+00  0.2256372E-06
 -0.5047442E-02  0.0000000E+00 -0.5050505E-02  0.3699623E-08  0.0000000E+00  0.2271292E-06
 -0.5045727E-02  0.0000000E+00 -0.5050505E-02  0.3793478E-08  0.0000000E+00  0.2286627E-06
 -0.5043261E-02  0.0000000E+00 -0.5050505E-02  0.3872048E-08  0.0000000E+00  0.2302316E-06
 -0.5038714E-02  0.0000000E+00 -0.5050505E-02  0.3934933E-08  0.0000000E+00  0.2318295E-06
 -0.5032318E-02  0.0000000E+00 -0.5050505E-02  0.3981790E-08  0.0000000E+00  0.2334499E-06
 -0.5022454E-02  0.0000000E+00 -0.5050505E-02  0.4012338E-08  0.0000000E+00  0.2350863E-06
 -0.5012589E-02  0.0000000E+00 -0.5050505E-02  0.4026357E-08  0.0000000E+00  0.2367318E-06
 -0.5002725E-02  0.0000000E+00 -0.5050505E-02  0.4023696E-08  0.0000000E+00  0.2383798E-06
 -0.4992860E-02  0.0000000E+00 -0.5050505E-02  0.4004269E-08  0.0000000E+00  0.2400233E-06
 -0.4976523E-02  0.0000000E+00 -0.5050505E-02  0.3968059E-08  0.0000000E+00  0.2416554E-06
 -0.4956794E-02  0.0000000E+00 -0.5050505E-02  0.3915122E-08  0.0000000E+00  0.2432695E-06
 -0.4937066E-02  0.0000000E+00 -0.5050505E-02  0.3845584E-08  0.0000000E+00  0.2448585E-06
 -0.4906239E-02  0.0000000E+00 -0.5050505E-02  0.3759645E-08  0.0000000E+00  0.2464157E-06
 -0.4866782E-02  0.0000000E+00 -0.5050505E-02  0.3657577E-08  0.0000000E+00  0.2479346E-06
 -0.4827325E-02  0.0000000E+00 -0.5050505E-02  0.3539726E-08  0.0000000E+00  0.2494084E-06
 -0.4769372E-02  0.0000000E+00 -0.5050505E-02  0.3406510E-08  0.0000000E+00  0.2508310E-06
 -0.4690458E-02  0.0000000E+00 -0.5050505E-02  0.3258419E-08  0.0000000E+00  0.2521960E-06
 -0.4611543E-02  0.0000000E+00 -0.5050505E-02  0.3096015E-08  0.0000000E+00  0.2534974E-06
 -0.4503035E-02  0.0000000E+00 -0.5050505E-02  0.2919929E-08  0.0000000E+00  0.2547296E-06
 -0.4345206E-02  0.0000000E+00 -0.5050505E-02  0.2730857E-08  0.0000000E+00  0.2558871E-06
 -0.4187378E-02  0.0000000E+00 -0.5050505E-02  0.2529560E-08  0.0000000E+00  0.2569647E-06
 -0.3985156E-02  0.0000000E+00 -0.5050505E-02  0.2316862E-08  0.0000000E+00  0.2579575E-06
 -0.3669499E-02  0.0000000E+00 -0.5050505E-02  0.2093642E-08  0.0000000E+00  0.2588611E-06
 -0.3353842E-02  0.0000000E+00 -0.5050505E-02  0.1860834E-08  0.0000000E+00  0.2596714E-06
 -0.2978990E-02  0.0000000E+00 -0.5050505E-02  0.1619421E-08  0.0000000E+00  0.2603845E-06
 -0.2347676E-02  0.0000000E+00 -0.5050505E-02  0.1370430E-08  0.0000000E+00  0.2609972E-06
 -0.1716362E-02  0.0000000E+00 -0.5050505E-02  0.1114926E-08  0.0000000E+00  0.2615066E-06
 -0.1025842E-02  0.0000000E+00 -0.5050505E-02  0.8540097E-09  0.0000000E+00  0.2619103E-06
  0.2367855E-03  0.0000000E+00 -0.5050505E-02  0.5888126E-09  0.0000000E+00  0.2622062E-06
  0.1499413E-02  0.0000000E+00 -0.5050505E-02  0.3204967E-09  0.0000000E+00  0.2623929E-06
  0.2762042E-02  0.0000000E+00 -0.5050505E-02  0.5025999E-10  0.0000000E+00  0.2624692E-06
 -0.5050505E-02  0.0000000E+00 -0.5050505E-02 -0.2206528E-09  0.0000000E+00  0.2624348E-06
 -0.5050505E-02  0.0000000E+00 -0.5050505E-02 -0.4911925E-09  0.0000000E+00  0.2622894E-06
 -0.5050505E-02  0.0000000E+00 -0.5050505E-02 -0.7602447E-09  0.0000000E+00  0.2620336E-06
 -0.5050505E-02  0.0000000E+00 -0.5050505E-02 -0.1026522E-08  0.0000000E+00  0.2616681E-06
 -0.5050505E-02  0.0000000E+00 -0.5050505E-02 -0.1288856E-08  0.0000000E+00  0.2611943E-06
 -0.5050505E-02  0.0000000E+00 -0.5050505E-02 -0.1546104E-08  0.0000000E+00  0.2606142E-06
 -0.5050505E-02  0.0000000E+00 -0.5050505E-02 -0.1797169E-08  0.0000000E+00  0.2599299E-06
 -0.5050504E-02  0.0000000E+00 -0.5050505E-02 -0.2040973E-08  0.0000000E+00  0.2591444E-06
 -0.5050501E-02  0.0000000E+00 -0.5050505E-02 -0.2276469E-08  0.0000000E+00  0.2582606E-06
 -0.5050495E-02  0.0000000E+00 -0.5050505E-02 -0.2502668E-08  0.0000000E+00  0.2572824E-06
 -0.5050482E-02  0.0000000E+00 -0.5050505E-02 -0.2718612E-08  0.0000000E+00  0.2562136E-06
 -0.5050449E-02  0.0000000E+00 -0.5050505E-02 -0.2923401E-08  0.0000000E+00  0.2550588E-06
 -0.5050376E-02  0.0000000E+00 -0.5050505E-02 -0.3116194E-08  0.0000000E+00  0.2538225E-06
 -0.5050299E-02  0.0000000E+00 -0.5050505E-02 -0.3296203E-08  0.0000000E+00  0.2525099E-06
 -0.5050178E-02  0.0000000E+00 -0.5050505E-02 -0.3462707E-08  0.0000000E+00  0.2511265E-06
 -0.5050018E-02  0.0000000E+00 -0.5050505E-02 -0.3615046E-08  0.0000000E+00  0.2496777E-06
 -0.5049710E-02  0.0000000E+00 -0.5050505E-02 -0.3752630E-08  0.0000000E+00  0.2481697E-06
 -0.5049253E-02  0.0000000E+00 -0.5050505E-02 -0.3874936E-08  0.0000000E+00  0.2466085E-06
 -0.5048636E-02  0.0000000E+00 -0.5050505E-02 -0.3981510E-08  0.0000000E+00  0.2450005E-06
 -0.5047442E-02  0.0000000E+00 -0.5050505E-02 -0.4071970E-08  0.0000000E+00  0.2433522E-06
 -0.5045727E-02  0.0000000E+00 -0.5050505E-02 -0.4146001E-08  0.0000000E+00  0.2416703E-06
 -0.5043261E-02  0.0000000E+00 -0.5050505E-02 -0.4203360E-08  0.0000000E+00  0.2399616E-06
 -0.5038714E-02  0.0000000E+00 -0.5050505E-02 -0.4243872E-08  0.0000000E+00  0.2382328E-06
 -0.5032318E-02  0.0000000E+00 -0.5050505E-02 -0.4267429E-08  0.0000000E+00  0.2364910E-06
 -0.5022454E-02  0.0000000E+00 -0.5050505E-02 -0.4273986E-08  0.0000000E+00  0.2347431E-06
 -0.5012589E-02  0.0000000E+00 -0.5050505E-02 -0.4263562E-08  0.0000000E+00  0.2329960E-06
 -0.5002725E-02  0.0000000E+00 -0.5050505E-02 -0.4236231E-08  0.0000000E+00  0.2312566E-06
 -0.4992860E-02  0.0000000E+00 -0.5050505E-02 -0.4192122E-08  0.0000000E+00  0.2295318E-06
 -0.4976523E-02  0.0000000E+00 -0.5050505E-02 -0.4131409E-08  0.0000000E+00  0.2278285E-06
 -0.4956794E-02  0.0000000E+00 -0.5050505E-02 -0.4054307E-08  0.0000000E+00  0.2261534E-06
 -0.4937066E-02  0.0000000E+00 -0.5050505E-02 -0.3961056E-08  0.0000000E+00  0.2245130E-06
 -0.4906239E-02  0.0000000E+00 -0.5050505E-02 -0.3851914E-08  0.0000000E+00  0.2229139E-06
 -0.4866782E-02  0.0000000E+00 -0.5050505E-02 -0.3727132E-08  0.0000000E+00  0.2213625E-06
 -0.4827325E-02  0.0000000E+00 -0.5050505E-02 -0.3586929E-08  0.0000000E+00  0.2198650E-06
 -0.4769372E-02  0.0000000E+00 -0.5050505E-02 -0.3431453E-08  0.0000000E+00  0.2184276E-06
 -0.4690458E-02  0.0000000E+00 -0.5050505E-02 -0.3260722E-08  0.0000000E+00  0.2170563E-06
 -0.4611543E-02  0.0000000E+00 -0.5050505E-02 -0.3074531E-08  0.0000000E+00  0.2157570E-06
 -0.4503035E-02  0.0000000E+00 -0.5050505E-02 -0.2872309E-08  0.0000000E+00  0.2145357E-06
 -0.4345206E-02  0.0000000E+00 -0.5050505E-02 -0.2652881E-08  0.0000000E+00  0.2133982E-06
 -0.4187378E-02  0.0000000E+00 -0.5050505E-02 -0.2414072E-08  0.0000000E+00  0.2123507E-06
 -0.3985156E-02  0.0000000E+00 -0.5050505E-02 -0.2152016E-08  0.0000000E+00  0.2113992E-06
 -0.3669499E-02  0.0000000E+00 -0.5050505E-02 -0.1859948E-08  0.0000000E+00  0.2105498E-06
 -0.3353842E-02  0.0000000E+00 -0.5050505E-02 -0.1526003E-08  0.0000000E+00  0.2098077E-06
 -0.2978990E-02  0.0000000E+00 -0.5050505E-02 -0.1129221E-08  0.0000000E+00  0.2091747E-06
 -0.2347676E-02  0.0000000E+00 -0.5050505E-02 -0.6324105E-09  0.0000000E+00  0.2086423E-06
 -0.1716362E-02  0.0000000E+00 -0.5050505E-02  0.2974117E-10  0.0000000E+00  0.2081706E-06
 -0.1025842E-02  0.0000000E+00 -0.5050505E-02  0.9643594E-09  0.0000000E+00  0.2076341E-06
  0.2367855E-03  0.0000000E+00 -0.5050505E-02  0.2306029E-08  0.0000000E+00  0.2066937E-06
  0.1499413E-02  0.0000000E+00 -0.5050505E-02  0.4005821E-08  0.0000000E+00  0.2045981E-06
  0.5287294E-02  0.0000000E+00 -0.5050505E-02  0.4615422E-08  0.0000000E+00  0.2005883E-06
 -0.5050505E-02  0.0000000E+00 -0.5050505E-02  0.1765983E-09  0.0000000E+00  0.2123862E-06
 -0.5050505E-02  0.0000000E+00 -0.5050505E-02  0.5297020E-09  0.0000000E+00  0.2124910E-06
 -0.5050505E-02  0.0000000E+00 -0.5050505E-02  0.8811640E-09  0.0000000E+00  0.2127003E-06
 -0.5050505E-02  0.0000000E+00 -0.5050505E-02  0.1229204E-08  0.0000000E+00  0.2130133E-06
 -0.5050505E-02  0.0000000E+00 -0.5050505E-02  0.1572516E-08  0.0000000E+00  0.2134288E-06
 -0.5050505E-02  0.0000000E+00 -0.5050505E-02  0.1909801E-08  0.0000000E+00  0.2139453E-06
 -0.5050504E-02  0.0000000E+00 -0.5050505E-02  0.2239786E-08  0.0000000E+00  0.2145608E-06
 -0.5050501E-02  0.0000000E+00 -0.5050505E-02  0.2561207E-08  0.0000000E+00  0.2152730E-06
 -0.5050495E-02  0.0000000E+00 -0.5050505E-02  0.2872810E-08  0.0000000E+00  0.2160790E-06
 -0.5050482E-02  0.0000000E+00 -0.5050505E-02  0.3173383E-08  0.0000000E+00  0.2169760E-06
 -0.5050449E-02  0.0000000E+00 -0.5050505E-02  0.3461730E-08  0.0000000E+00  0.2179603E-06
 -0.5050376E-02  0.0000000E+00 -0.5050505E-02  0.3736695E-08  0.0000000E+00  0.2190282E-06
 -0.5050299E-02  0.0000000E+00 -0.5050505E-02  0.3997165E-08  0.0000000E+00  0.2201757E-06
 -0.5050178E-02  0.0000000E+00 -0.5050505E-02  0.4242068E-08  0.0000000E+00  0.2213982E-06
 -0.5050018E-02  0.0000000E+00 -0.5050505E-02  0.4470380E-08  0.0000000E+00  0.2226910E-06
 -0.5049710E-02  0.0000000E+00 -0.5050505E-02  0.4681131E-08  0.0000000E+00  0.2240490E-06
 -0.5049253E-02  0.0000000E+00 -0.5050505E-02  0.4873408E-08  0.0000000E+00  0.2254669E-06
 -0.5048636E-02  0.0000000E+00 -0.5050505E-02  0.5046360E-08  0.0000000E+00  0.2269392E-06
 -0.5047442E-02  0.0000000E+00 -0.5050505E-02  0.5199199E-08  0.0000000E+00  0.2284599E-06
 -0.5045727E-02  0.0000000E+00 -0.5050505E-02  0.5331209E-08  0.0000000E+00  0.2300231E-06
 -0.5043261E-02  0.0000000E+00 -0.5050505E-02  0.5441747E-08  0.0000000E+00  0.2316223E-06
 -0.5038714E-02  0.0000000E+00 -0.5050505E-02  0.5530249E-08  0.0000000E+00  0.2332513E-06
 -0.5032318E-02  0.0000000E+00 -0.5050505E-02  0.5596231E-08  0.0000000E+00  0.2349033E-06
 -0.5022454E-02  0.0000000E+00 -0.5050505E-02  0.5639295E-08  0.0000000E+00  0.2365717E-06
 -0.5012589E-02  0.0000000E+00 -0.5050505E-02  0.5659133E-08  0.0000000E+00  0.2382496E-06
 -0.5002725E-02  0.0000000E+00 -0.5050505E-02  0.5655528E-08  0.0000000E+00  0.2399300E-06
 -0.4992860E-02  0.0000000E+00 -0.5050505E-02  0.5628358E-08  0.0000000E+00  0.2416060E-06
 -0.4976523E-02  0.0000000E+00 -0.5050505E-02  0.5577599E-08  0.0000000E+00  0.2432706E-06
 -0.4956794E-02  0.0000000E+00 -0.5050505E-02  0.5503325E-08  0.0000000E+00  0.2449168E-06
 -0.4937066E-02  0.0000000E+00 -0.5050505E-02  0.5405713E-08  0.0000000E+00  0.2465376E-06