title = "dataset feddes"
variables = "x", "y", "z", "vx", "vy", "vz"
zone t = "velocities, solution time =  3.600E+01 days        " i =   99, j =   99, k =    1,  f=point
 -0.5050505E-02  0.0000000E+00 -0.5050505E-02  0.2640320E-11  0.0000000E+00  0.3916370E-07
 -0.5050505E-02  0.0000000E+00 -0.5050505E-02  0.8728687E-11  0.0000000E+00  0.3917513E-07
 -0.5050505E-02  0.0000000E+00 -0.5050505E-02  0.1487793E-10  0.0000000E+00  0.3919887E-07
 -0.5050505E-02  0.0000000E+00 -0.5050505E-02  0.2084475E-10  0.0000000E+00  0.3923479E-07
 -0.5050505E-02  0.0000000E+00 -0.5050505E-02  0.2668909E-10  0.0000000E+00  0.3928260E-07
 -0.5050505E-02  0.0000000E+00 -0.5050505E-02  0.3241103E-10  0.0000000E+00  0.3934203E-07
 -0.5050504E-02  0.0000000E+00 -0.5050505E-02  0.3799814E-10  0.0000000E+00  0.3941284E-07
 -0.5050501E-02  0.0000000E+00 -0.5050505E-02  0.4343298E-10  0.0000000E+00  0.3949473E-07
 -0.5050495E-02  0.0000000E+00 -0.5050505E-02  0.4869622E-10  0.0000000E+00  0.3958738E-07
 -0.5050482E-02  0.0000000E+00 -0.5050505E-02  0.5376788E-10  0.0000000E+00  0.3969043E-07
 -0.5050449E-02  0.0000000E+00 -0.5050505E-02  0.5862818E-10  0.0000000E+00  0.3980346E-07
 -0.5050376E-02  0.0000000E+00 -0.5050505E-02  0.6325773E-10  0.0000000E+00  0.3992604E-07
 -0.5050299E-02  0.0000000E+00 -0.5050505E-02  0.6763787E-10  0.0000000E+00  0.4005767E-07
 -0.5050178E-02  0.0000000E+00 -0.5050505E-02  0.7175064E-10  0.0000000E+00  0.4019785E-07
 -0.5050018E-02  0.0000000E+00 -0.5050505E-02  0.7557904E-10  0.0000000E+00  0.4034601E-07
 -0.5049710E-02  0.0000000E+00 -0.5050505E-02  0.7910696E-10  0.0000000E+00  0.4050158E-07
 -0.5049253E-02  0.0000000E+00 -0.5050505E-02  0.8231938E-10  0.0000000E+00  0.4066392E-07
 -0.5048636E-02  0.0000000E+00 -0.5050505E-02  0.8520236E-10  0.0000000E+00  0.4083239E-07
 -0.5047442E-02  0.0000000E+00 -0.5050505E-02  0.8774316E-10  0.0000000E+00  0.4100631E-07
 -0.5045727E-02  0.0000000E+00 -0.5050505E-02  0.8993025E-10  0.0000000E+00  0.4118499E-07
 -0.5043261E-02  0.0000000E+00 -0.5050505E-02  0.9175347E-10  0.0000000E+00  0.4136770E-07
 -0.5038714E-02  0.0000000E+00 -0.5050505E-02  0.9320397E-10  0.0000000E+00  0.4155371E-07
 -0.5032318E-02  0.0000000E+00 -0.5050505E-02  0.9427433E-10  0.0000000E+00  0.4174225E-07
 -0.5022454E-02  0.0000000E+00 -0.5050505E-02  0.9495864E-10  0.0000000E+00  0.4193255E-07
 -0.5012589E-02  0.0000000E+00 -0.5050505E-02  0.9525246E-10  0.0000000E+00  0.4212384E-07
 -0.5002725E-02  0.0000000E+00 -0.5050505E-02  0.9515295E-10  0.0000000E+00  0.4231532E-07
 -0.4992860E-02  0.0000000E+00 -0.5050505E-02  0.9465884E-10  0.0000000E+00  0.4250621E-07
 -0.4976523E-02  0.0000000E+00 -0.5050505E-02  0.9377050E-10  0.0000000E+00  0.4269571E-07
 -0.4956794E-02  0.0000000E+00 -0.5050505E-02  0.9248992E-10  0.0000000E+00  0.4288302E-07
 -0.4937066E-02  0.0000000E+00 -0.5050505E-02  0.9082077E-10  0.0000000E+00  0.4306737E-07
 -0.4906239E-02  0.0000000E+00 -0.5050505E-02  0.8876840E-10  0.0000000E+00  0.4324798E-07
 -0.4866782E-02  0.0000000E+00 -0.5050505E-02  0.8633977E-10  0.0000000E+00  0.4342408E-07
 -0.4827325E-02  0.0000000E+00 -0.5050505E-02  0.8354358E-10  0.0000000E+00  0.4359492E-07
 -0.4769372E-02  0.0000000E+00 -0.5050505E-02  0.8039007E-10  0.0000000E+00  0.4375978E-07
 -0.4690458E-02  0.0000000E+00 -0.5050505E-02  0.7689118E-10  0.0000000E+00  0.4391796E-07
 -0.4611543E-02  0.0000000E+00 -0.5050505E-02  0.7306034E-10  0.0000000E+00  0.4406876E-07
 -0.4503035E-02  0.0000000E+00 -0.5050505E-02  0.6891255E-10  0.0000000E+00  0.4421153E-07
 -0.4345206E-02  0.0000000E+00 -0.5050505E-02  0.6446426E-10  0.0000000E+00  0.4434567E-07
 -0.4187378E-02  0.0000000E+00 -0.5050505E-02  0.5973325E-10  0.0000000E+00  0.4447057E-07
 -0.3985156E-02  0.0000000E+00 -0.5050505E-02  0.5473863E-10  0.0000000E+00  0.4458569E-07
 -0.3669499E-02  0.0000000E+00 -0.5050505E-02  0.4950058E-10  0.0000000E+00  0.4469052E-07
 -0.3353842E-02  0.0000000E+00 -0.5050505E-02  0.4404026E-10  0.0000000E+00  0.4478459E-07
 -0.2978990E-02  0.0000000E+00 -0.5050505E-02  0.3837956E-10  0.0000000E+00  0.4486747E-07
 -0.2347676E-02  0.0000000E+00 -0.5050505E-02  0.3254080E-10  0.0000000E+00  0.4493879E-07
 -0.1716362E-02  0.0000000E+00 -0.5050505E-02  0.2654659E-10  0.0000000E+00  0.4499822E-07
 -0.1025842E-02  0.0000000E+00 -0.5050505E-02  0.2041968E-10  0.0000000E+00  0.4504545E-07
  0.2367855E-03  0.0000000E+00 -0.5050505E-02  0.1418350E-10  0.0000000E+00  0.4508025E-07
  0.1499413E-02  0.0000000E+00 -0.5050505E-02  0.7862852E-11  0.0000000E+00  0.4510242E-07
  0.2762042E-02  0.0000000E+00 -0.5050505E-02  0.1484793E-11  0.0000000E+00  0.4511182E-07
 -0.5050505E-02  0.0000000E+00 -0.5050505E-02 -0.4902217E-11  0.0000000E+00  0.4510838E-07
 -0.5050505E-02  0.0000000E+00 -0.5050505E-02 -0.1126904E-10  0.0000000E+00  0.4509212E-07
 -0.5050505E-02  0.0000000E+00 -0.5050505E-02 -0.1764353E-10  0.0000000E+00  0.4506304E-07
 -0.5050505E-02  0.0000000E+00 -0.5050505E-02 -0.2392620E-10  0.0000000E+00  0.4502124E-07
 -0.5050505E-02  0.0000000E+00 -0.5050505E-02 -0.3009579E-10  0.0000000E+00  0.4496691E-07
 -0.5050505E-02  0.0000000E+00 -0.5050505E-02 -0.3613758E-10  0.0000000E+00  0.4490030E-07
 -0.5050505E-02  0.0000000E+00 -0.5050505E-02 -0.4203294E-10  0.0000000E+00  0.4482169E-07
 -0.5050504E-02  0.0000000E+00 -0.5050505E-02 -0.4776027E-10  0.0000000E+00  0.4473139E-07
 -0.5050501E-02  0.0000000E+00 -0.5050505E-02 -0.5329687E-10  0.0000000E+00  0.4462976E-07
 -0.5050495E-02  0.0000000E+00 -0.5050505E-02 -0.5862011E-10  0.0000000E+00  0.4451721E-07
 -0.5050482E-02  0.0000000E+00 -0.5050505E-02 -0.6370799E-10  0.0000000E+00  0.4439419E-07
 -0.5050449E-02  0.0000000E+00 -0.5050505E-02 -0.6853949E-10  0.0000000E+00  0.4426119E-07
 -0.5050376E-02  0.0000000E+00 -0.5050505E-02 -0.7309469E-10  0.0000000E+00  0.4411875E-07
 -0.5050299E-02  0.0000000E+00 -0.5050505E-02 -0.7735501E-10  0.0000000E+00  0.4396745E-07
 -0.5050178E-02  0.0000000E+00 -0.5050505E-02 -0.8130309E-10  0.0000000E+00  0.4380790E-07
 -0.5050018E-02  0.0000000E+00 -0.5050505E-02 -0.8492308E-10  0.0000000E+00  0.4364073E-07
 -0.5049710E-02  0.0000000E+00 -0.5050505E-02 -0.8820053E-10  0.0000000E+00  0.4346662E-07
 -0.5049253E-02  0.0000000E+00 -0.5050505E-02 -0.9112251E-10  0.0000000E+00  0.4328629E-07
 -0.5048636E-02  0.0000000E+00 -0.5050505E-02 -0.9367758E-10  0.0000000E+00  0.4310044E-07
 -0.5047442E-02  0.0000000E+00 -0.5050505E-02 -0.9585590E-10  0.0000000E+00  0.4290983E-07
 -0.5045727E-02  0.0000000E+00 -0.5050505E-02 -0.9764911E-10  0.0000000E+00  0.4271523E-07
 -0.5043261E-02  0.0000000E+00 -0.5050505E-02 -0.9905045E-10  0.0000000E+00  0.4251742E-07
 -0.5038714E-02  0.0000000E+00 -0.5050505E-02 -0.1000546E-09  0.0000000E+00  0.4231719E-07
 -0.5032318E-02  0.0000000E+00 -0.5050505E-02 -0.1006578E-09  0.0000000E+00  0.4211534E-07
 -0.5022454E-02  0.0000000E+00 -0.5050505E-02 -0.1008577E-09  0.0000000E+00  0.4191268E-07
 -0.5012589E-02  0.0000000E+00 -0.5050505E-02 -0.1006530E-09  0.0000000E+00  0.4171003E-07
 -0.5002725E-02  0.0000000E+00 -0.5050505E-02 -0.1000441E-09  0.0000000E+00  0.4150820E-07
 -0.4992860E-02  0.0000000E+00 -0.5050505E-02 -0.9903197E-10  0.0000000E+00  0.4130799E-07
 -0.4976523E-02  0.0000000E+00 -0.5050505E-02 -0.9761873E-10  0.0000000E+00  0.4111023E-07
 -0.4956794E-02  0.0000000E+00 -0.5050505E-02 -0.9580692E-10  0.0000000E+00  0.4091571E-07
 -0.4937066E-02  0.0000000E+00 -0.5050505E-02 -0.9359926E-10  0.0000000E+00  0.4072523E-07
 -0.4906239E-02  0.0000000E+00 -0.5050505E-02 -0.9099808E-10  0.0000000E+00  0.4053959E-07
 -0.4866782E-02  0.0000000E+00 -0.5050505E-02 -0.8800449E-10  0.0000000E+00  0.4035957E-07
 -0.4827325E-02  0.0000000E+00 -0.5050505E-02 -0.8461721E-10  0.0000000E+00  0.4018597E-07
 -0.4769372E-02  0.0000000E+00 -0.5050505E-02 -0.8083073E-10  0.0000000E+00  0.4001959E-07
 -0.4690458E-02  0.0000000E+00 -0.5050505E-02 -0.7663243E-10  0.0000000E+00  0.3986123E-07
 -0.4611543E-02  0.0000000E+00 -0.5050505E-02 -0.7199800E-10  0.0000000E+00  0.3971176E-07
 -0.4503035E-02  0.0000000E+00 -0.5050505E-02 -0.6688355E-10  0.0000000E+00  0.3957209E-07
 -0.4345206E-02  0.0000000E+00 -0.5050505E-02 -0.6121208E-10  0.0000000E+00  0.3944327E-07
 -0.4187378E-02  0.0000000E+00 -0.5050505E-02 -0.5484881E-10  0.0000000E+00  0.3932655E-07
 -0.3985156E-02  0.0000000E+00 -0.5050505E-02 -0.4755409E-10  0.0000000E+00  0.3922357E-07
 -0.3669499E-02  0.0000000E+00 -0.5050505E-02 -0.3888870E-10  0.0000000E+00  0.3913664E-07
 -0.3353842E-02  0.0000000E+00 -0.5050505E-02 -0.2800961E-10  0.0000000E+00  0.3906936E-07
 -0.2978990E-02  0.0000000E+00 -0.5050505E-02 -0.1319467E-10  0.0000000E+00  0.3902792E-07
 -0.2347676E-02  0.0000000E+00 -0.5050505E-02  0.9341184E-11  0.0000000E+00  0.3902405E-07
 -0.1716362E-02  0.0000000E+00 -0.5050505E-02  0.4878422E-10  0.0000000E+00  0.3908250E-07
 -0.1025842E-02  0.0000000E+00 -0.5050505E-02  0.1297418E-09  0.0000000E+00  0.3926204E-07
  0.2367855E-03  0.0000000E+00 -0.5050505E-02  0.3255529E-09  0.0000000E+00  0.3971991E-07
  0.1499413E-02  0.0000000E+00 -0.5050505E-02  0.8784612E-09  0.0000000E+00  0.4093074E-07
  0.5287294E-02  0.0000000E+00 -0.5050505E-02  0.1445593E-07  0.0000000E+00  0.3270517E-07
 -0.5050505E-02  0.0000000E+00 -0.5050505E-02  0.8132364E-11  0.0000000E+00  0.3920703E-07
 -0.5050505E-02  0.0000000E+00 -0.5050505E-02  0.2628584E-10  0.0000000E+00  0.3921884E-07
 -0.5050505E-02  0.0000000E+00 -0.5050505E-02  0.4466972E-10  0.0000000E+00  0.3924285E-07
 -0.5050505E-02  0.0000000E+00 -0.5050505E-02  0.6254801E-10  0.0000000E+00  0.3927903E-07
 -0.5050505E-02  0.0000000E+00 -0.5050505E-02  0.8007392E-10  0.0000000E+00  0.3932712E-07
 -0.5050505E-02  0.0000000E+00 -0.5050505E-02  0.9723785E-10  0.0000000E+00  0.3938690E-07
 -0.5050504E-02  0.0000000E+00 -0.5050505E-02  0.1139989E-09  0.0000000E+00  0.3945811E-07
 -0.5050501E-02  0.0000000E+00 -0.5050505E-02  0.1303037E-09  0.0000000E+00  0.3954047E-07
 -0.5050495E-02  0.0000000E+00 -0.5050505E-02  0.1460940E-09  0.0000000E+00  0.3963365E-07
 -0.5050482E-02  0.0000000E+00 -0.5050505E-02  0.1613098E-09  0.0000000E+00  0.3973729E-07
 -0.5050449E-02  0.0000000E+00 -0.5050505E-02  0.1758916E-09  0.0000000E+00  0.3985097E-07
 -0.5050376E-02  0.0000000E+00 -0.5050505E-02  0.1897814E-09  0.0000000E+00  0.3997424E-07
 -0.5050299E-02  0.0000000E+00 -0.5050505E-02  0.2029230E-09  0.0000000E+00  0.4010664E-07
 -0.5050178E-02  0.0000000E+00 -0.5050505E-02  0.2152627E-09  0.0000000E+00  0.4024762E-07
 -0.5050018E-02  0.0000000E+00 -0.5050505E-02  0.2267494E-09  0.0000000E+00  0.4039664E-07
 -0.5049710E-02  0.0000000E+00 -0.5050505E-02  0.2373348E-09  0.0000000E+00  0.4055310E-07
 -0.5049253E-02  0.0000000E+00 -0.5050505E-02  0.2469738E-09  0.0000000E+00  0.4071638E-07
 -0.5048636E-02  0.0000000E+00 -0.5050505E-02  0.2556245E-09  0.0000000E+00  0.4088583E-07
 -0.5047442E-02  0.0000000E+00 -0.5050505E-02  0.2632487E-09  0.0000000E+00  0.4106077E-07
 -0.5045727E-02  0.0000000E+00 -0.5050505E-02  0.2698119E-09  0.0000000E+00  0.4124049E-07
 -0.5043261E-02  0.0000000E+00 -0.5050505E-02  0.2752835E-09  0.0000000E+00  0.4142427E-07
 -0.5038714E-02  0.0000000E+00 -0.5050505E-02  0.2796369E-09  0.0000000E+00  0.4161137E-07
 -0.5032318E-02  0.0000000E+00 -0.5050505E-02  0.2828499E-09  0.0000000E+00  0.4180102E-07
 -0.5022454E-02  0.0000000E+00 -0.5050505E-02  0.2849046E-09  0.0000000E+00  0.4199244E-07
 -0.5012589E-02  0.0000000E+00 -0.5050505E-02  0.2857879E-09  0.0000000E+00  0.4218486E-07
 -0.5002725E-02  0.0000000E+00 -0.5050505E-02  0.2854910E-09  0.0000000E+00  0.4237748E-07
 -0.4992860E-02  0.0000000E+00 -0.5050505E-02  0.2840103E-09  0.0000000E+00  0.4256951E-07
 -0.4976523E-02  0.0000000E+00 -0.5050505E-02  0.2813466E-09  0.0000000E+00  0.4276014E-07
 -0.4956794E-02  0.0000000E+00 -0.5050505E-02  0.2775061E-09  0.0000000E+00  0.4294857E-07
 -0.4937066E-02  0.0000000E+00 -0.5050505E-02  0.2724998E-09  0.0000000E+00  0.4313403E-07
 -0.4906239E-02  0.0000000E+00 -0.5050505E-02  0.2663435E-09  0.0000000E+00  0.4331573E-07
 -0.4866782E-02  0.0000000E+00 -0.5050505E-02  0.2590583E-09  0.0000000E+00  0.4349289E-07
 -0.4827325E-02  0.0000000E+00 -0.5050505E-02  0.2506701E-09  0.0000000E+00  0.4366477E-07
 -0.4769372E-02  0.0000000E+00 -0.5050505E-02  0.2412097E-09  0.0000000E+00  0.4383064E-07
 -0.4690458E-02  0.0000000E+00 -0.5050505E-02  0.2307129E-09  0.0000000E+00  0.4398978E-07
 -0.4611543E-02  0.0000000E+00 -0.5050505E-02  0.2192200E-09  0.0000000E+00  0.4414150E-07
 -0.4503035E-02  0.0000000E+00 -0.5050505E-02  0.2067760E-09  0.0000000E+00  0.4428516E-07
 -0.4345206E-02  0.0000000E+00 -0.5050505E-02  0.1934303E-09  0.0000000E+00  0.4442012E-07
 -0.4187378E-02  0.0000000E+00 -0.5050505E-02  0.1792362E-09  0.0000000E+00  0.4454579E-07
 -0.3985156E-02  0.0000000E+00 -0.5050505E-02  0.1642510E-09  0.0000000E+00  0.4466163E-07
 -0.3669499E-02  0.0000000E+00 -0.5050505E-02  0.1485354E-09  0.0000000E+00  0.4476712E-07
 -0.3353842E-02  0.0000000E+00 -0.5050505E-02  0.1321530E-09  0.0000000E+00  0.4486178E-07
 -0.2978990E-02  0.0000000E+00 -0.5050505E-02  0.1151693E-09  0.0000000E+00  0.4494520E-07
 -0.2347676E-02  0.0000000E+00 -0.5050505E-02  0.9765124E-10  0.0000000E+00  0.4501698E-07
 -0.1716362E-02  0.0000000E+00 -0.5050505E-02  0.7966633E-10  0.0000000E+00  0.4507679E-07
 -0.1025842E-02  0.0000000E+00 -0.5050505E-02  0.6128230E-10  0.0000000E+00  0.4512434E-07
  0.2367855E-03  0.0000000E+00 -0.5050505E-02  0.4256883E-10  0.0000000E+00  0.4515937E-07
  0.1499413E-02  0.0000000E+00 -0.5050505E-02  0.2360230E-10  0.0000000E+00  0.4518170E-07
  0.2762042E-02  0.0000000E+00 -0.5050505E-02  0.4473276E-11  0.0000000E+00  0.4519119E-07
 -0.5050505E-02  0.0000000E+00 -0.5050505E-02 -0.1470308E-10  0.0000000E+00  0.4518775E-07
 -0.5050505E-02  0.0000000E+00 -0.5050505E-02 -0.3381315E-10  0.0000000E+00  0.4517140E-07
 -0.5050505E-02  0.0000000E+00 -0.5050505E-02 -0.5292583E-10  0.0000000E+00  0.4514216E-07
 -0.5050505E-02  0.0000000E+00 -0.5050505E-02 -0.7177244E-10  0.0000000E+00  0.4510013E-07
 -0.5050505E-02  0.0000000E+00 -0.5050505E-02 -0.9028432E-10  0.0000000E+00  0.4504550E-07
 -0.5050505E-02  0.0000000E+00 -0.5050505E-02 -0.1084135E-09  0.0000000E+00  0.4497852E-07
 -0.5050505E-02  0.0000000E+00 -0.5050505E-02 -0.1261030E-09  0.0000000E+00  0.4489946E-07
 -0.5050504E-02  0.0000000E+00 -0.5050505E-02 -0.1432878E-09  0.0000000E+00  0.4480865E-07
 -0.5050501E-02  0.0000000E+00 -0.5050505E-02 -0.1599001E-09  0.0000000E+00  0.4470643E-07
 -0.5050495E-02  0.0000000E+00 -0.5050505E-02 -0.1758719E-09  0.0000000E+00  0.4459323E-07
 -0.5050482E-02  0.0000000E+00 -0.5050505E-02 -0.1911373E-09  0.0000000E+00  0.4446949E-07
 -0.5050449E-02  0.0000000E+00 -0.5050505E-02 -0.2056334E-09  0.0000000E+00  0.4433572E-07
 -0.5050376E-02  0.0000000E+00 -0.5050505E-02 -0.2193004E-09  0.0000000E+00  0.4419245E-07
 -0.5050299E-02  0.0000000E+00 -0.5050505E-02 -0.2320824E-09  0.0000000E+00  0.4404027E-07
 -0.5050178E-02  0.0000000E+00 -0.5050505E-02 -0.2439276E-09  0.0000000E+00  0.4387978E-07
 -0.5050018E-02  0.0000000E+00 -0.5050505E-02 -0.2547883E-09  0.0000000E+00  0.4371164E-07
 -0.5049710E-02  0.0000000E+00 -0.5050505E-02 -0.2646211E-09  0.0000000E+00  0.4353652E-07
 -0.5049253E-02  0.0000000E+00 -0.5050505E-02 -0.2733874E-09  0.0000000E+00  0.4335513E-07
 -0.5048636E-02  0.0000000E+00 -0.5050505E-02 -0.2810528E-09  0.0000000E+00  0.4316820E-07
 -0.5047442E-02  0.0000000E+00 -0.5050505E-02 -0.2875878E-09  0.0000000E+00  0.4297649E-07
 -0.5045727E-02  0.0000000E+00 -0.5050505E-02 -0.2929675E-09  0.0000000E+00  0.4278075E-07
 -0.5043261E-02  0.0000000E+00 -0.5050505E-02 -0.2971715E-09  0.0000000E+00  0.4258179E-07
 -0.5038714E-02  0.0000000E+00 -0.5050505E-02 -0.3001840E-09  0.0000000E+00  0.4238039E-07
 -0.5032318E-02  0.0000000E+00 -0.5050505E-02 -0.3019938E-09  0.0000000E+00  0.4217737E-07
 -0.5022454E-02  0.0000000E+00 -0.5050505E-02 -0.3025936E-09  0.0000000E+00  0.4197354E-07
 -0.5012589E-02  0.0000000E+00 -0.5050505E-02 -0.3019804E-09  0.0000000E+00  0.4176971E-07
 -0.5002725E-02  0.0000000E+00 -0.5050505E-02 -0.3001547E-09  0.0000000E+00  0.4156670E-07
 -0.4992860E-02  0.0000000E+00 -0.5050505E-02 -0.2971203E-09  0.0000000E+00  0.4136533E-07
 -0.4976523E-02  0.0000000E+00 -0.5050505E-02 -0.2928834E-09  0.0000000E+00  0.4116640E-07
 -0.4956794E-02  0.0000000E+00 -0.5050505E-02 -0.2874522E-09  0.0000000E+00  0.4097073E-07
 -0.4937066E-02  0.0000000E+00 -0.5050505E-02 -0.2808353E-09  0.0000000E+00  0.4077911E-07
 -0.4906239E-02  0.0000000E+00 -0.5050505E-02 -0.2730406E-09  0.0000000E+00  0.4059234E-07
 -0.4866782E-02  0.0000000E+00 -0.5050505E-02 -0.2640725E-09  0.0000000E+00  0.4041121E-07
 -0.4827325E-02  0.0000000E+00 -0.5050505E-02 -0.2539291E-09  0.0000000E+00  0.4023650E-07
 -0.4769372E-02  0.0000000E+00 -0.5050505E-02 -0.2425967E-09  0.0000000E+00  0.4006900E-07
 -0.4690458E-02  0.0000000E+00 -0.5050505E-02 -0.2300420E-09  0.0000000E+00  0.3990951E-07
 -0.4611543E-02  0.0000000E+00 -0.5050505E-02 -0.2162001E-09  0.0000000E+00  0.3975885E-07
 -0.4503035E-02  0.0000000E+00 -0.5050505E-02 -0.2009528E-09  0.0000000E+00  0.3961788E-07
 -0.4345206E-02  0.0000000E+00 -0.5050505E-02 -0.1840940E-09  0.0000000E+00  0.3948758E-07
 -0.4187378E-02  0.0000000E+00 -0.5050505E-02 -0.1652664E-09  0.0000000E+00  0.3936902E-07
 -0.3985156E-02  0.0000000E+00 -0.5050505E-02 -0.1438461E-09  0.0000000E+00  0.3926354E-07
 -0.3669499E-02  0.0000000E+00 -0.5050505E-02 -0.1187203E-09  0.0000000E+00  0.3917287E-07
 -0.3353842E-02  0.0000000E+00 -0.5050505E-02 -0.8783705E-10  0.0000000E+00  0.3909932E-07
 -0.2978990E-02  0.0000000E+00 -0.5050505E-02 -0.4723801E-10  0.0000000E+00  0.3904612E-07
 -0.2347676E-02  0.0000000E+00 -0.5050505E-02  0.1115092E-10  0.0000000E+00  0.3901756E-07
 -0.1716362E-02  0.0000000E+00 -0.5050505E-02  0.1048772E-09  0.0000000E+00  0.3901766E-07
 -0.1025842E-02  0.0000000E+00 -0.5050505E-02  0.2744838E-09  0.0000000E+00  0.3904111E-07
  0.2367855E-03  0.0000000E+00 -0.5050505E-02  0.6201808E-09  0.0000000E+00  0.3902766E-07
  0.1499413E-02  0.0000000E+00 -0.5050505E-02  0.1404033E-08  0.0000000E+00  0.3864848E-07
  0.5287294E-02  0.0000000E+00 -0.5050505E-02  0.3343055E-08  0.0000000E+00  0.3631361E-07
 -0.5050505E-02  0.0000000E+00 -0.5050505E-02  0.1393172E-10  0.0000000E+00  0.3929474E-07
 -0.5050505E-02  0.0000000E+00 -0.5050505E-02  0.4407101E-10  0.0000000E+00  0.3930684E-07
 -0.5050505E-02  0.0000000E+00 -0.5050505E-02  0.7461796E-10  0.0000000E+00  0.3933124E-07
 -0.5050505E-02  0.0000000E+00 -0.5050505E-02  0.1044025E-09  0.0000000E+00  0.3936787E-07
 -0.5050505E-02  0.0000000E+00 -0.5050505E-02  0.1336288E-09  0.0000000E+00  0.3941654E-07
 -0.5050505E-02  0.0000000E+00 -0.5050505E-02  0.1622626E-09  0.0000000E+00  0.3947701E-07
 -0.5050504E-02  0.0000000E+00 -0.5050505E-02  0.1902284E-09  0.0000000E+00  0.3954904E-07
 -0.5050501E-02  0.0000000E+00 -0.5050505E-02  0.2174347E-09  0.0000000E+00  0.3963234E-07
 -0.5050495E-02  0.0000000E+00 -0.5050505E-02  0.2437833E-09  0.0000000E+00  0.3972658E-07
 -0.5050482E-02  0.0000000E+00 -0.5050505E-02  0.2691741E-09  0.0000000E+00  0.3983139E-07
 -0.5050449E-02  0.0000000E+00 -0.5050505E-02  0.2935077E-09  0.0000000E+00  0.3994637E-07
 -0.5050376E-02  0.0000000E+00 -0.5050505E-02  0.3166872E-09  0.0000000E+00  0.4007106E-07
 -0.5050299E-02  0.0000000E+00 -0.5050505E-02  0.3386188E-09  0.0000000E+00  0.4020497E-07
 -0.5050178E-02  0.0000000E+00 -0.5050505E-02  0.3592129E-09  0.0000000E+00  0.4034757E-07
 -0.5050018E-02  0.0000000E+00 -0.5050505E-02  0.3783840E-09  0.0000000E+00  0.4049830E-07
 -0.5049710E-02  0.0000000E+00 -0.5050505E-02  0.3960516E-09  0.0000000E+00  0.4065656E-07
 -0.5049253E-02  0.0000000E+00 -0.5050505E-02  0.4121404E-09  0.0000000E+00  0.4082172E-07
 -0.5048636E-02  0.0000000E+00 -0.5050505E-02  0.4265805E-09  0.0000000E+00  0.4099313E-07
 -0.5047442E-02  0.0000000E+00 -0.5050505E-02  0.4393081E-09  0.0000000E+00  0.4117010E-07
 -0.5045727E-02  0.0000000E+00 -0.5050505E-02  0.4502654E-09  0.0000000E+00  0.4135191E-07
 -0.5043261E-02  0.0000000E+00 -0.5050505E-02  0.4594014E-09  0.0000000E+00  0.4153784E-07
 -0.5038714E-02  0.0000000E+00 -0.5050505E-02  0.4666716E-09  0.0000000E+00  0.4172712E-07
 -0.5032318E-02  0.0000000E+00 -0.5050505E-02  0.4720389E-09  0.0000000E+00  0.4191899E-07
 -0.5022454E-02  0.0000000E+00 -0.5050505E-02  0.4754735E-09  0.0000000E+00  0.4211267E-07
 -0.5012589E-02  0.0000000E+00 -0.5050505E-02  0.4769531E-09  0.0000000E+00  0.4230736E-07
 -0.5002725E-02  0.0000000E+00 -0.5050505E-02  0.4764634E-09  0.0000000E+00  0.4250226E-07
 -0.4992860E-02  0.0000000E+00 -0.5050505E-02  0.4739978E-09  0.0000000E+00  0.4269656E-07
 -0.4976523E-02  0.0000000E+00 -0.5050505E-02  0.4695581E-09  0.0000000E+00  0.4288946E-07
 -0.4956794E-02  0.0000000E+00 -0.5050505E-02  0.4631542E-09  0.0000000E+00  0.4308014E-07
 -0.4937066E-02  0.0000000E+00 -0.5050505E-02  0.4548043E-09  0.0000000E+00  0.4326782E-07
 -0.4906239E-02  0.0000000E+00 -0.5050505E-02  0.4445351E-09  0.0000000E+00  0.4345170E-07
 -0.4866782E-02  0.0000000E+00 -0.5050505E-02  0.4323814E-09  0.0000000E+00  0.4363100E-07
 -0.4827325E-02  0.0000000E+00 -0.5050505E-02  0.4183865E-09  0.0000000E+00  0.4380496E-07
 -0.4769372E-02  0.0000000E+00 -0.5050505E-02  0.4026019E-09  0.0000000E+00  0.4397284E-07
 -0.4690458E-02  0.0000000E+00 -0.5050505E-02  0.3850871E-09  0.0000000E+00  0.4413391E-07
 -0.4611543E-02  0.0000000E+00 -0.5050505E-02  0.3659093E-09  0.0000000E+00  0.4428749E-07
 -0.4503035E-02  0.0000000E+00 -0.5050505E-02  0.3451438E-09  0.0000000E+00  0.4443290E-07
 -0.4345206E-02  0.0000000E+00 -0.5050505E-02  0.3228727E-09  0.0000000E+00  0.4456952E-07
 -0.4187378E-02  0.0000000E+00 -0.5050505E-02  0.2991853E-09  0.0000000E+00  0.4469675E-07
 -0.3985156E-02  0.0000000E+00 -0.5050505E-02  0.2741773E-09  0.0000000E+00  0.4481403E-07
 -0.3669499E-02  0.0000000E+00 -0.5050505E-02  0.2479500E-09  0.0000000E+00  0.4492083E-07
 -0.3353842E-02  0.0000000E+00 -0.5050505E-02  0.2206095E-09  0.0000000E+00  0.4501668E-07
 -0.2978990E-02  0.0000000E+00 -0.5050505E-02  0.1922655E-09  0.0000000E+00  0.4510115E-07
 -0.2347676E-02  0.0000000E+00 -0.5050505E-02  0.1630294E-09  0.0000000E+00  0.4517385E-07
 -0.1716362E-02  0.0000000E+00 -0.5050505E-02  0.1330132E-09  0.0000000E+00  0.4523443E-07
 -0.1025842E-02  0.0000000E+00 -0.5050505E-02  0.1023284E-09  0.0000000E+00  0.4528261E-07
  0.2367855E-03  0.0000000E+00 -0.5050505E-02  0.7108958E-10  0.0000000E+00  0.4531812E-07
  0.1499413E-02  0.0000000E+00 -0.5050505E-02  0.3942669E-10  0.0000000E+00  0.4534076E-07
  0.2762042E-02  0.0000000E+00 -0.5050505E-02  0.7514591E-11  0.0000000E+00  0.4535040E-07
 -0.5050505E-02  0.0000000E+00 -0.5050505E-02 -0.2450904E-10  0.0000000E+00  0.4534697E-07
 -0.5050505E-02  0.0000000E+00 -0.5050505E-02 -0.5641725E-10  0.0000000E+00  0.4533046E-07
 -0.5050505E-02  0.0000000E+00 -0.5050505E-02 -0.8829365E-10  0.0000000E+00  0.4530092E-07
 -0.5050505E-02  0.0000000E+00 -0.5050505E-02 -0.1197411E-09  0.0000000E+00  0.4525843E-07
 -0.5050505E-02  0.0000000E+00 -0.5050505E-02 -0.1506384E-09  0.0000000E+00  0.4520321E-07
 -0.5050505E-02  0.0000000E+00 -0.5050505E-02 -0.1808988E-09  0.0000000E+00  0.4513548E-07
 -0.5050505E-02  0.0000000E+00 -0.5050505E-02 -0.2104247E-09  0.0000000E+00  0.4505552E-07
 -0.5050504E-02  0.0000000E+00 -0.5050505E-02 -0.2391074E-09  0.0000000E+00  0.4496366E-07
 -0.5050501E-02  0.0000000E+00 -0.5050505E-02 -0.2668336E-09  0.0000000E+00  0.4486027E-07
 -0.5050495E-02  0.0000000E+00 -0.5050505E-02 -0.2934902E-09  0.0000000E+00  0.4474575E-07
 -0.5050482E-02  0.0000000E+00 -0.5050505E-02 -0.3189675E-09  0.0000000E+00  0.4462059E-07
 -0.5050449E-02  0.0000000E+00 -0.5050505E-02 -0.3431601E-09  0.0000000E+00  0.4448526E-07
 -0.5050376E-02  0.0000000E+00 -0.5050505E-02 -0.3659687E-09  0.0000000E+00  0.4434033E-07
 -0.5050299E-02  0.0000000E+00 -0.5050505E-02 -0.3872998E-09  0.0000000E+00  0.4418638E-07
 -0.5050178E-02  0.0000000E+00 -0.5050505E-02 -0.4070671E-09  0.0000000E+00  0.4402402E-07
 -0.5050018E-02  0.0000000E+00 -0.5050505E-02 -0.4251909E-09  0.0000000E+00  0.4385393E-07
 -0.5049710E-02  0.0000000E+00 -0.5050505E-02 -0.4415992E-09  0.0000000E+00  0.4367677E-07
 -0.5049253E-02  0.0000000E+00 -0.5050505E-02 -0.4562272E-09  0.0000000E+00  0.4349328E-07
 -0.5048636E-02  0.0000000E+00 -0.5050505E-02 -0.4690179E-09  0.0000000E+00  0.4330418E-07
 -0.5047442E-02  0.0000000E+00 -0.5050505E-02 -0.4799220E-09  0.0000000E+00  0.4311024E-07
 -0.5045727E-02  0.0000000E+00 -0.5050505E-02 -0.4888982E-09  0.0000000E+00  0.4291224E-07
 -0.5043261E-02  0.0000000E+00 -0.5050505E-02 -0.4959126E-09  0.0000000E+00  0.4271097E-07
 -0.5038714E-02  0.0000000E+00 -0.5050505E-02 -0.5009392E-09  0.0000000E+00  0.4250724E-07
 -0.5032318E-02  0.0000000E+00 -0.5050505E-02 -0.5039592E-09  0.0000000E+00  0.4230187E-07
 -0.5022454E-02  0.0000000E+00 -0.5050505E-02 -0.5049611E-09  0.0000000E+00  0.4209568E-07
 -0.5012589E-02  0.0000000E+00 -0.5050505E-02 -0.5039401E-09  0.0000000E+00  0.4188948E-07
 -0.5002725E-02  0.0000000E+00 -0.5050505E-02 -0.5008976E-09  0.0000000E+00  0.4168412E-07
 -0.4992860E-02  0.0000000E+00 -0.5050505E-02 -0.4958404E-09  0.0000000E+00  0.4148040E-07
 -0.4976523E-02  0.0000000E+00 -0.5050505E-02 -0.4887800E-09  0.0000000E+00  0.4127915E-07
 -0.4956794E-02  0.0000000E+00 -0.5050505E-02 -0.4797311E-09  0.0000000E+00  0.4108118E-07
 -0.4937066E-02  0.0000000E+00 -0.5050505E-02 -0.4687100E-09  0.0000000E+00  0.4088729E-07
 -0.4906239E-02  0.0000000E+00 -0.5050505E-02 -0.4557322E-09  0.0000000E+00  0.4069828E-07
 -0.4866782E-02  0.0000000E+00 -0.5050505E-02 -0.4408090E-09  0.0000000E+00  0.4051492E-07
 -0.4827325E-02  0.0000000E+00 -0.5050505E-02 -0.4239425E-09  0.0000000E+00  0.4033800E-07
 -0.4769372E-02  0.0000000E+00 -0.5050505E-02 -0.4051189E-09  0.0000000E+00  0.4016828E-07
 -0.4690458E-02  0.0000000E+00 -0.5050505E-02 -0.3842969E-09  0.0000000E+00  0.4000654E-07
 -0.4611543E-02  0.0000000E+00 -0.5050505E-02 -0.3613912E-09  0.0000000E+00  0.3985355E-07
 -0.4503035E-02  0.0000000E+00 -0.5050505E-02 -0.3362452E-09  0.0000000E+00  0.3971009E-07
 -0.4345206E-02  0.0000000E+00 -0.5050505E-02 -0.3085859E-09  0.0000000E+00  0.3957698E-07
 -0.4187378E-02  0.0000000E+00 -0.5050505E-02 -0.2779490E-09  0.0000000E+00  0.3945505E-07
 -0.3985156E-02  0.0000000E+00 -0.5050505E-02 -0.2435486E-09  0.0000000E+00  0.3934519E-07
 -0.3669499E-02  0.0000000E+00 -0.5050505E-02 -0.2040494E-09  0.0000000E+00  0.3924831E-07
 -0.3353842E-02  0.0000000E+00 -0.5050505E-02 -0.1571601E-09  0.0000000E+00  0.3916517E-07
 -0.2978990E-02  0.0000000E+00 -0.5050505E-02 -0.9890822E-10  0.0000000E+00  0.3909593E-07
 -0.2347676E-02  0.0000000E+00 -0.5050505E-02 -0.2219436E-10  0.0000000E+00  0.3903879E-07
 -0.1716362E-02  0.0000000E+00 -0.5050505E-02  0.8529722E-10  0.0000000E+00  0.3898612E-07
 -0.1025842E-02  0.0000000E+00 -0.5050505E-02  0.2437206E-09  0.0000000E+00  0.3891419E-07
  0.2367855E-03  0.0000000E+00 -0.5050505E-02  0.4783433E-09  0.0000000E+00  0.3875911E-07
  0.1499413E-02  0.0000000E+00 -0.5050505E-02  0.7799541E-09  0.0000000E+00  0.3837948E-07
  0.5287294E-02  0.0000000E+00 -0.5050505E-02  0.8761194E-09  0.0000000E+00  0.3763268E-07
 -0.5050505E-02  0.0000000E+00 -0.5050505E-02  0.1988245E-10  0.0000000E+00  0.3942698E-07
 -0.5050505E-02  0.0000000E+00 -0.5050505E-02  0.6212213E-10  0.0000000E+00  0.3943934E-07
 -0.5050505E-02  0.0000000E+00 -0.5050505E-02  0.1048815E-09  0.0000000E+00  0.3946420E-07
 -0.5050505E-02  0.0000000E+00 -0.5050505E-02  0.1466493E-09  0.0000000E+00  0.3950150E-07
 -0.5050505E-02  0.0000000E+00 -0.5050505E-02  0.1876643E-09  0.0000000E+00  0.3955100E-07
 -0.5050505E-02  0.0000000E+00 -0.5050505E-02  0.2278608E-09  0.0000000E+00  0.3961250E-07
 -0.5050504E-02  0.0000000E+00 -0.5050505E-02  0.2671254E-09  0.0000000E+00  0.3968576E-07
 -0.5050501E-02  0.0000000E+00 -0.5050505E-02  0.3053268E-09  0.0000000E+00  0.3977047E-07
 -0.5050495E-02  0.0000000E+00 -0.5050505E-02  0.3423260E-09  0.0000000E+00  0.3986631E-07
 -0.5050482E-02  0.0000000E+00 -0.5050505E-02  0.3779817E-09  0.0000000E+00  0.3997291E-07
 -0.5050449E-02  0.0000000E+00 -0.5050505E-02  0.4121543E-09  0.0000000E+00  0.4008984E-07
 -0.5050376E-02  0.0000000E+00 -0.5050505E-02  0.4447075E-09  0.0000000E+00  0.4021664E-07
 -0.5050299E-02  0.0000000E+00 -0.5050505E-02  0.4755097E-09  0.0000000E+00  0.4035283E-07
 -0.5050178E-02  0.0000000E+00 -0.5050505E-02  0.5044348E-09  0.0000000E+00  0.4049786E-07
 -0.5050018E-02  0.0000000E+00 -0.5050505E-02  0.5313628E-09  0.0000000E+00  0.4065117E-07
 -0.5049710E-02  0.0000000E+00 -0.5050505E-02  0.5561806E-09  0.0000000E+00  0.4081214E-07
 -0.5049253E-02  0.0000000E+00 -0.5050505E-02  0.5787823E-09  0.0000000E+00  0.4098014E-07
 -0.5048636E-02  0.0000000E+00 -0.5050505E-02  0.5990697E-09  0.0000000E+00  0.4115450E-07
 -0.5047442E-02  0.0000000E+00 -0.5050505E-02  0.6169529E-09  0.0000000E+00  0.4133452E-07
 -0.5045727E-02  0.0000000E+00 -0.5050505E-02  0.6323509E-09  0.0000000E+00  0.4151948E-07
 -0.5043261E-02  0.0000000E+00 -0.5050505E-02  0.6451917E-09  0.0000000E+00  0.4170863E-07
 -0.5038714E-02  0.0000000E+00 -0.5050505E-02  0.6554130E-09  0.0000000E+00  0.4190120E-07
 -0.5032318E-02  0.0000000E+00 -0.5050505E-02  0.6629622E-09  0.0000000E+00  0.4209642E-07
 -0.5022454E-02  0.0000000E+00 -0.5050505E-02  0.6677975E-09  0.0000000E+00  0.4229349E-07
 -0.5012589E-02  0.0000000E+00 -0.5050505E-02  0.6698874E-09  0.0000000E+00  0.4249160E-07
 -0.5002725E-02  0.0000000E+00 -0.5050505E-02  0.6692114E-09  0.0000000E+00  0.4268992E-07
 -0.4992860E-02  0.0000000E+00 -0.5050505E-02  0.6657605E-09  0.0000000E+00  0.4288766E-07
 -0.4976523E-02  0.0000000E+00 -0.5050505E-02  0.6595367E-09  0.0000000E+00  0.4308397E-07
 -0.4956794E-02  0.0000000E+00 -0.5050505E-02  0.6505539E-09  0.0000000E+00  0.4327804E-07
 -0.4937066E-02  0.0000000E+00 -0.5050505E-02  0.6388375E-09  0.0000000E+00  0.4346906E-07