title = "dataset feddes"
variables = "x", "y", "z", "vx", "vy", "vz"
zone t = "velocities, solution time =  3.200E+01 days        " i =   99, j =   99, k =    1,  f=point
 -0.5050505E-02  0.0000000E+00 -0.5050505E-02  0.1079492E-11  0.0000000E+00  0.1979692E-07
 -0.5050505E-02  0.0000000E+00 -0.5050505E-02  0.3628558E-11  0.0000000E+00  0.1980166E-07
 -0.5050505E-02  0.0000000E+00 -0.5050505E-02  0.6228609E-11  0.0000000E+00  0.1981157E-07
 -0.5050505E-02  0.0000000E+00 -0.5050505E-02  0.8745270E-11  0.0000000E+00  0.1982663E-07
 -0.5050505E-02  0.0000000E+00 -0.5050505E-02  0.1120552E-10  0.0000000E+00  0.1984669E-07
 -0.5050505E-02  0.0000000E+00 -0.5050505E-02  0.1361145E-10  0.0000000E+00  0.1987165E-07
 -0.5050504E-02  0.0000000E+00 -0.5050505E-02  0.1595906E-10  0.0000000E+00  0.1990139E-07
 -0.5050501E-02  0.0000000E+00 -0.5050505E-02  0.1824155E-10  0.0000000E+00  0.1993578E-07
 -0.5050495E-02  0.0000000E+00 -0.5050505E-02  0.2045108E-10  0.0000000E+00  0.1997470E-07
 -0.5050482E-02  0.0000000E+00 -0.5050505E-02  0.2257931E-10  0.0000000E+00  0.2001797E-07
 -0.5050449E-02  0.0000000E+00 -0.5050505E-02  0.2461799E-10  0.0000000E+00  0.2006543E-07
 -0.5050376E-02  0.0000000E+00 -0.5050505E-02  0.2655899E-10  0.0000000E+00  0.2011690E-07
 -0.5050299E-02  0.0000000E+00 -0.5050505E-02  0.2839445E-10  0.0000000E+00  0.2017216E-07
 -0.5050178E-02  0.0000000E+00 -0.5050505E-02  0.3011689E-10  0.0000000E+00  0.2023101E-07
 -0.5050018E-02  0.0000000E+00 -0.5050505E-02  0.3171919E-10  0.0000000E+00  0.2029319E-07
 -0.5049710E-02  0.0000000E+00 -0.5050505E-02  0.3319465E-10  0.0000000E+00  0.2035848E-07
 -0.5049253E-02  0.0000000E+00 -0.5050505E-02  0.3453700E-10  0.0000000E+00  0.2042659E-07
 -0.5048636E-02  0.0000000E+00 -0.5050505E-02  0.3574048E-10  0.0000000E+00  0.2049727E-07
 -0.5047442E-02  0.0000000E+00 -0.5050505E-02  0.3679980E-10  0.0000000E+00  0.2057022E-07
 -0.5045727E-02  0.0000000E+00 -0.5050505E-02  0.3771026E-10  0.0000000E+00  0.2064515E-07
 -0.5043261E-02  0.0000000E+00 -0.5050505E-02  0.3846765E-10  0.0000000E+00  0.2072176E-07
 -0.5038714E-02  0.0000000E+00 -0.5050505E-02  0.3906840E-10  0.0000000E+00  0.2079973E-07
 -0.5032318E-02  0.0000000E+00 -0.5050505E-02  0.3950950E-10  0.0000000E+00  0.2087876E-07
 -0.5022454E-02  0.0000000E+00 -0.5050505E-02  0.3978861E-10  0.0000000E+00  0.2095850E-07
 -0.5012589E-02  0.0000000E+00 -0.5050505E-02  0.3990399E-10  0.0000000E+00  0.2103865E-07
 -0.5002725E-02  0.0000000E+00 -0.5050505E-02  0.3985455E-10  0.0000000E+00  0.2111886E-07
 -0.4992860E-02  0.0000000E+00 -0.5050505E-02  0.3963992E-10  0.0000000E+00  0.2119880E-07
 -0.4976523E-02  0.0000000E+00 -0.5050505E-02  0.3926036E-10  0.0000000E+00  0.2127815E-07
 -0.4956794E-02  0.0000000E+00 -0.5050505E-02  0.3871682E-10  0.0000000E+00  0.2135657E-07
 -0.4937066E-02  0.0000000E+00 -0.5050505E-02  0.3801093E-10  0.0000000E+00  0.2143373E-07
 -0.4906239E-02  0.0000000E+00 -0.5050505E-02  0.3714508E-10  0.0000000E+00  0.2150931E-07
 -0.4866782E-02  0.0000000E+00 -0.5050505E-02  0.3612225E-10  0.0000000E+00  0.2158299E-07
 -0.4827325E-02  0.0000000E+00 -0.5050505E-02  0.3494614E-10  0.0000000E+00  0.2165446E-07
 -0.4769372E-02  0.0000000E+00 -0.5050505E-02  0.3362115E-10  0.0000000E+00  0.2172342E-07
 -0.4690458E-02  0.0000000E+00 -0.5050505E-02  0.3215230E-10  0.0000000E+00  0.2178956E-07
 -0.4611543E-02  0.0000000E+00 -0.5050505E-02  0.3054527E-10  0.0000000E+00  0.2185262E-07
 -0.4503035E-02  0.0000000E+00 -0.5050505E-02  0.2880636E-10  0.0000000E+00  0.2191230E-07
 -0.4345206E-02  0.0000000E+00 -0.5050505E-02  0.2694245E-10  0.0000000E+00  0.2196837E-07
 -0.4187378E-02  0.0000000E+00 -0.5050505E-02  0.2496095E-10  0.0000000E+00  0.2202057E-07
 -0.3985156E-02  0.0000000E+00 -0.5050505E-02  0.2286984E-10  0.0000000E+00  0.2206867E-07
 -0.3669499E-02  0.0000000E+00 -0.5050505E-02  0.2067747E-10  0.0000000E+00  0.2211246E-07
 -0.3353842E-02  0.0000000E+00 -0.5050505E-02  0.1839259E-10  0.0000000E+00  0.2215175E-07
 -0.2978990E-02  0.0000000E+00 -0.5050505E-02  0.1602419E-10  0.0000000E+00  0.2218636E-07
 -0.2347676E-02  0.0000000E+00 -0.5050505E-02  0.1358144E-10  0.0000000E+00  0.2221614E-07
 -0.1716362E-02  0.0000000E+00 -0.5050505E-02  0.1107358E-10  0.0000000E+00  0.2224093E-07
 -0.1025842E-02  0.0000000E+00 -0.5050505E-02  0.8510085E-11  0.0000000E+00  0.2226063E-07
  0.2367855E-03  0.0000000E+00 -0.5050505E-02  0.5900954E-11  0.0000000E+00  0.2227512E-07
  0.1499413E-02  0.0000000E+00 -0.5050505E-02  0.3257378E-11  0.0000000E+00  0.2228433E-07
  0.2762042E-02  0.0000000E+00 -0.5050505E-02  0.5917434E-12  0.0000000E+00  0.2228820E-07
 -0.5050505E-02  0.0000000E+00 -0.5050505E-02 -0.2063267E-11  0.0000000E+00  0.2228672E-07
 -0.5050505E-02  0.0000000E+00 -0.5050505E-02 -0.4707330E-11  0.0000000E+00  0.2227991E-07
 -0.5050505E-02  0.0000000E+00 -0.5050505E-02 -0.7379135E-11  0.0000000E+00  0.2226776E-07
 -0.5050505E-02  0.0000000E+00 -0.5050505E-02 -0.1001305E-10  0.0000000E+00  0.2225027E-07
 -0.5050505E-02  0.0000000E+00 -0.5050505E-02 -0.1259768E-10  0.0000000E+00  0.2222753E-07
 -0.5050505E-02  0.0000000E+00 -0.5050505E-02 -0.1512785E-10  0.0000000E+00  0.2219965E-07
 -0.5050505E-02  0.0000000E+00 -0.5050505E-02 -0.1759670E-10  0.0000000E+00  0.2216674E-07
 -0.5050504E-02  0.0000000E+00 -0.5050505E-02 -0.1999573E-10  0.0000000E+00  0.2212893E-07
 -0.5050501E-02  0.0000000E+00 -0.5050505E-02 -0.2231570E-10  0.0000000E+00  0.2208638E-07
 -0.5050495E-02  0.0000000E+00 -0.5050505E-02 -0.2454727E-10  0.0000000E+00  0.2203925E-07
 -0.5050482E-02  0.0000000E+00 -0.5050505E-02 -0.2668125E-10  0.0000000E+00  0.2198773E-07
 -0.5050449E-02  0.0000000E+00 -0.5050505E-02 -0.2870888E-10  0.0000000E+00  0.2193203E-07
 -0.5050376E-02  0.0000000E+00 -0.5050505E-02 -0.3062178E-10  0.0000000E+00  0.2187236E-07
 -0.5050299E-02  0.0000000E+00 -0.5050505E-02 -0.3241212E-10  0.0000000E+00  0.2180897E-07
 -0.5050178E-02  0.0000000E+00 -0.5050505E-02 -0.3407256E-10  0.0000000E+00  0.2174211E-07
 -0.5050018E-02  0.0000000E+00 -0.5050505E-02 -0.3559639E-10  0.0000000E+00  0.2167205E-07
 -0.5049710E-02  0.0000000E+00 -0.5050505E-02 -0.3697741E-10  0.0000000E+00  0.2159906E-07
 -0.5049253E-02  0.0000000E+00 -0.5050505E-02 -0.3821011E-10  0.0000000E+00  0.2152345E-07
 -0.5048636E-02  0.0000000E+00 -0.5050505E-02 -0.3928954E-10  0.0000000E+00  0.2144551E-07
 -0.5047442E-02  0.0000000E+00 -0.5050505E-02 -0.4021138E-10  0.0000000E+00  0.2136556E-07
 -0.5045727E-02  0.0000000E+00 -0.5050505E-02 -0.4097197E-10  0.0000000E+00  0.2128392E-07
 -0.5043261E-02  0.0000000E+00 -0.5050505E-02 -0.4156826E-10  0.0000000E+00  0.2120091E-07
 -0.5038714E-02  0.0000000E+00 -0.5050505E-02 -0.4199777E-10  0.0000000E+00  0.2111687E-07
 -0.5032318E-02  0.0000000E+00 -0.5050505E-02 -0.4225869E-10  0.0000000E+00  0.2103214E-07
 -0.5022454E-02  0.0000000E+00 -0.5050505E-02 -0.4234972E-10  0.0000000E+00  0.2094705E-07
 -0.5012589E-02  0.0000000E+00 -0.5050505E-02 -0.4227011E-10  0.0000000E+00  0.2086195E-07
 -0.5002725E-02  0.0000000E+00 -0.5050505E-02 -0.4201961E-10  0.0000000E+00  0.2077718E-07
 -0.4992860E-02  0.0000000E+00 -0.5050505E-02 -0.4159828E-10  0.0000000E+00  0.2069309E-07
 -0.4976523E-02  0.0000000E+00 -0.5050505E-02 -0.4100661E-10  0.0000000E+00  0.2061002E-07
 -0.4956794E-02  0.0000000E+00 -0.5050505E-02 -0.4024511E-10  0.0000000E+00  0.2052831E-07
 -0.4937066E-02  0.0000000E+00 -0.5050505E-02 -0.3931439E-10  0.0000000E+00  0.2044830E-07
 -0.4906239E-02  0.0000000E+00 -0.5050505E-02 -0.3821464E-10  0.0000000E+00  0.2037033E-07
 -0.4866782E-02  0.0000000E+00 -0.5050505E-02 -0.3694538E-10  0.0000000E+00  0.2029474E-07
 -0.4827325E-02  0.0000000E+00 -0.5050505E-02 -0.3550485E-10  0.0000000E+00  0.2022188E-07
 -0.4769372E-02  0.0000000E+00 -0.5050505E-02 -0.3388900E-10  0.0000000E+00  0.2015210E-07
 -0.4690458E-02  0.0000000E+00 -0.5050505E-02 -0.3209013E-10  0.0000000E+00  0.2008574E-07
 -0.4611543E-02  0.0000000E+00 -0.5050505E-02 -0.3009448E-10  0.0000000E+00  0.2002321E-07
 -0.4503035E-02  0.0000000E+00 -0.5050505E-02 -0.2787831E-10  0.0000000E+00  0.1996491E-07
 -0.4345206E-02  0.0000000E+00 -0.5050505E-02 -0.2540095E-10  0.0000000E+00  0.1991133E-07
 -0.4187378E-02  0.0000000E+00 -0.5050505E-02 -0.2259237E-10  0.0000000E+00  0.1986306E-07
 -0.3985156E-02  0.0000000E+00 -0.5050505E-02 -0.1932932E-10  0.0000000E+00  0.1982090E-07
 -0.3669499E-02  0.0000000E+00 -0.5050505E-02 -0.1538751E-10  0.0000000E+00  0.1978599E-07
 -0.3353842E-02  0.0000000E+00 -0.5050505E-02 -0.1033834E-10  0.0000000E+00  0.1976012E-07
 -0.2978990E-02  0.0000000E+00 -0.5050505E-02 -0.3308056E-11  0.0000000E+00  0.1974639E-07
 -0.2347676E-02  0.0000000E+00 -0.5050505E-02  0.7613008E-11  0.0000000E+00  0.1975072E-07
 -0.1716362E-02  0.0000000E+00 -0.5050505E-02  0.2708762E-10  0.0000000E+00  0.1978562E-07
 -0.1025842E-02  0.0000000E+00 -0.5050505E-02  0.6758625E-10  0.0000000E+00  0.1988083E-07
  0.2367855E-03  0.0000000E+00 -0.5050505E-02  0.1662778E-09  0.0000000E+00  0.2011602E-07
  0.1499413E-02  0.0000000E+00 -0.5050505E-02  0.4458591E-09  0.0000000E+00  0.2073162E-07
  0.5287294E-02  0.0000000E+00 -0.5050505E-02  0.7323261E-08  0.0000000E+00  0.1656599E-07
 -0.5050505E-02  0.0000000E+00 -0.5050505E-02  0.3338798E-11  0.0000000E+00  0.1981605E-07
 -0.5050505E-02  0.0000000E+00 -0.5050505E-02  0.1093559E-10  0.0000000E+00  0.1982096E-07
 -0.5050505E-02  0.0000000E+00 -0.5050505E-02  0.1870175E-10  0.0000000E+00  0.1983100E-07
 -0.5050505E-02  0.0000000E+00 -0.5050505E-02  0.2623825E-10  0.0000000E+00  0.1984616E-07
 -0.5050505E-02  0.0000000E+00 -0.5050505E-02  0.3361392E-10  0.0000000E+00  0.1986633E-07
 -0.5050505E-02  0.0000000E+00 -0.5050505E-02  0.4082952E-10  0.0000000E+00  0.1989142E-07
 -0.5050504E-02  0.0000000E+00 -0.5050505E-02  0.4787101E-10  0.0000000E+00  0.1992132E-07
 -0.5050501E-02  0.0000000E+00 -0.5050505E-02  0.5471747E-10  0.0000000E+00  0.1995589E-07
 -0.5050495E-02  0.0000000E+00 -0.5050505E-02  0.6134513E-10  0.0000000E+00  0.1999501E-07
 -0.5050482E-02  0.0000000E+00 -0.5050505E-02  0.6772906E-10  0.0000000E+00  0.2003851E-07
 -0.5050449E-02  0.0000000E+00 -0.5050505E-02  0.7384440E-10  0.0000000E+00  0.2008622E-07
 -0.5050376E-02  0.0000000E+00 -0.5050505E-02  0.7966682E-10  0.0000000E+00  0.2013795E-07
 -0.5050299E-02  0.0000000E+00 -0.5050505E-02  0.8517277E-10  0.0000000E+00  0.2019351E-07
 -0.5050178E-02  0.0000000E+00 -0.5050505E-02  0.9033977E-10  0.0000000E+00  0.2025266E-07
 -0.5050018E-02  0.0000000E+00 -0.5050505E-02  0.9514645E-10  0.0000000E+00  0.2031517E-07
 -0.5049710E-02  0.0000000E+00 -0.5050505E-02  0.9957269E-10  0.0000000E+00  0.2038080E-07
 -0.5049253E-02  0.0000000E+00 -0.5050505E-02  0.1035997E-09  0.0000000E+00  0.2044927E-07
 -0.5048636E-02  0.0000000E+00 -0.5050505E-02  0.1072102E-09  0.0000000E+00  0.2052032E-07
 -0.5047442E-02  0.0000000E+00 -0.5050505E-02  0.1103884E-09  0.0000000E+00  0.2059366E-07
 -0.5045727E-02  0.0000000E+00 -0.5050505E-02  0.1131200E-09  0.0000000E+00  0.2066899E-07
 -0.5043261E-02  0.0000000E+00 -0.5050505E-02  0.1153926E-09  0.0000000E+00  0.2074601E-07
 -0.5038714E-02  0.0000000E+00 -0.5050505E-02  0.1171952E-09  0.0000000E+00  0.2082440E-07
 -0.5032318E-02  0.0000000E+00 -0.5050505E-02  0.1185191E-09  0.0000000E+00  0.2090384E-07
 -0.5022454E-02  0.0000000E+00 -0.5050505E-02  0.1193570E-09  0.0000000E+00  0.2098402E-07
 -0.5012589E-02  0.0000000E+00 -0.5050505E-02  0.1197037E-09  0.0000000E+00  0.2106460E-07
 -0.5002725E-02  0.0000000E+00 -0.5050505E-02  0.1195561E-09  0.0000000E+00  0.2114524E-07
 -0.4992860E-02  0.0000000E+00 -0.5050505E-02  0.1189129E-09  0.0000000E+00  0.2122562E-07
 -0.4976523E-02  0.0000000E+00 -0.5050505E-02  0.1177750E-09  0.0000000E+00  0.2130540E-07
 -0.4956794E-02  0.0000000E+00 -0.5050505E-02  0.1161451E-09  0.0000000E+00  0.2138424E-07
 -0.4937066E-02  0.0000000E+00 -0.5050505E-02  0.1140283E-09  0.0000000E+00  0.2146183E-07
 -0.4906239E-02  0.0000000E+00 -0.5050505E-02  0.1114315E-09  0.0000000E+00  0.2153783E-07
 -0.4866782E-02  0.0000000E+00 -0.5050505E-02  0.1083638E-09  0.0000000E+00  0.2161191E-07
 -0.4827325E-02  0.0000000E+00 -0.5050505E-02  0.1048362E-09  0.0000000E+00  0.2168378E-07
 -0.4769372E-02  0.0000000E+00 -0.5050505E-02  0.1008620E-09  0.0000000E+00  0.2175312E-07
 -0.4690458E-02  0.0000000E+00 -0.5050505E-02  0.9645621E-10  0.0000000E+00  0.2181963E-07
 -0.4611543E-02  0.0000000E+00 -0.5050505E-02  0.9163581E-10  0.0000000E+00  0.2188304E-07
 -0.4503035E-02  0.0000000E+00 -0.5050505E-02  0.8641975E-10  0.0000000E+00  0.2194306E-07
 -0.4345206E-02  0.0000000E+00 -0.5050505E-02  0.8082864E-10  0.0000000E+00  0.2199944E-07
 -0.4187378E-02  0.0000000E+00 -0.5050505E-02  0.7488480E-10  0.0000000E+00  0.2205194E-07
 -0.3985156E-02  0.0000000E+00 -0.5050505E-02  0.6861207E-10  0.0000000E+00  0.2210031E-07
 -0.3669499E-02  0.0000000E+00 -0.5050505E-02  0.6203560E-10  0.0000000E+00  0.2214436E-07
 -0.3353842E-02  0.0000000E+00 -0.5050505E-02  0.5518161E-10  0.0000000E+00  0.2218388E-07
 -0.2978990E-02  0.0000000E+00 -0.5050505E-02  0.4807709E-10  0.0000000E+00  0.2221869E-07
 -0.2347676E-02  0.0000000E+00 -0.5050505E-02  0.4074940E-10  0.0000000E+00  0.2224864E-07
 -0.1716362E-02  0.0000000E+00 -0.5050505E-02  0.3322610E-10  0.0000000E+00  0.2227358E-07
 -0.1025842E-02  0.0000000E+00 -0.5050505E-02  0.2553514E-10  0.0000000E+00  0.2229340E-07
  0.2367855E-03  0.0000000E+00 -0.5050505E-02  0.1770647E-10  0.0000000E+00  0.2230798E-07
  0.1499413E-02  0.0000000E+00 -0.5050505E-02  0.9775562E-11  0.0000000E+00  0.2231725E-07
  0.2762042E-02  0.0000000E+00 -0.5050505E-02  0.1788151E-11  0.0000000E+00  0.2232116E-07
 -0.5050505E-02  0.0000000E+00 -0.5050505E-02 -0.6185303E-11  0.0000000E+00  0.2231969E-07
 -0.5050505E-02  0.0000000E+00 -0.5050505E-02 -0.1412533E-10  0.0000000E+00  0.2231284E-07
 -0.5050505E-02  0.0000000E+00 -0.5050505E-02 -0.2213208E-10  0.0000000E+00  0.2230062E-07
 -0.5050505E-02  0.0000000E+00 -0.5050505E-02 -0.3003054E-10  0.0000000E+00  0.2228305E-07
 -0.5050505E-02  0.0000000E+00 -0.5050505E-02 -0.3778408E-10  0.0000000E+00  0.2226020E-07
 -0.5050505E-02  0.0000000E+00 -0.5050505E-02 -0.4537488E-10  0.0000000E+00  0.2223218E-07
 -0.5050505E-02  0.0000000E+00 -0.5050505E-02 -0.5278161E-10  0.0000000E+00  0.2219910E-07
 -0.5050504E-02  0.0000000E+00 -0.5050505E-02 -0.5997867E-10  0.0000000E+00  0.2216110E-07
 -0.5050501E-02  0.0000000E+00 -0.5050505E-02 -0.6693839E-10  0.0000000E+00  0.2211833E-07
 -0.5050495E-02  0.0000000E+00 -0.5050505E-02 -0.7363279E-10  0.0000000E+00  0.2207095E-07
 -0.5050482E-02  0.0000000E+00 -0.5050505E-02 -0.8003441E-10  0.0000000E+00  0.2201916E-07
 -0.5050449E-02  0.0000000E+00 -0.5050505E-02 -0.8611688E-10  0.0000000E+00  0.2196317E-07
 -0.5050376E-02  0.0000000E+00 -0.5050505E-02 -0.9185515E-10  0.0000000E+00  0.2190319E-07
 -0.5050299E-02  0.0000000E+00 -0.5050505E-02 -0.9722571E-10  0.0000000E+00  0.2183946E-07
 -0.5050178E-02  0.0000000E+00 -0.5050505E-02 -0.1022066E-09  0.0000000E+00  0.2177225E-07
 -0.5050018E-02  0.0000000E+00 -0.5050505E-02 -0.1067776E-09  0.0000000E+00  0.2170181E-07
 -0.5049710E-02  0.0000000E+00 -0.5050505E-02 -0.1109202E-09  0.0000000E+00  0.2162844E-07
 -0.5049253E-02  0.0000000E+00 -0.5050505E-02 -0.1146179E-09  0.0000000E+00  0.2155243E-07
 -0.5048636E-02  0.0000000E+00 -0.5050505E-02 -0.1178558E-09  0.0000000E+00  0.2147408E-07
 -0.5047442E-02  0.0000000E+00 -0.5050505E-02 -0.1206209E-09  0.0000000E+00  0.2139371E-07
 -0.5045727E-02  0.0000000E+00 -0.5050505E-02 -0.1229024E-09  0.0000000E+00  0.2131163E-07
 -0.5043261E-02  0.0000000E+00 -0.5050505E-02 -0.1246911E-09  0.0000000E+00  0.2122819E-07
 -0.5038714E-02  0.0000000E+00 -0.5050505E-02 -0.1259796E-09  0.0000000E+00  0.2114371E-07
 -0.5032318E-02  0.0000000E+00 -0.5050505E-02 -0.1267624E-09  0.0000000E+00  0.2105852E-07
 -0.5022454E-02  0.0000000E+00 -0.5050505E-02 -0.1270359E-09  0.0000000E+00  0.2097299E-07
 -0.5012589E-02  0.0000000E+00 -0.5050505E-02 -0.1267976E-09  0.0000000E+00  0.2088744E-07
 -0.5002725E-02  0.0000000E+00 -0.5050505E-02 -0.1260470E-09  0.0000000E+00  0.2080222E-07
 -0.4992860E-02  0.0000000E+00 -0.5050505E-02 -0.1247844E-09  0.0000000E+00  0.2071768E-07
 -0.4976523E-02  0.0000000E+00 -0.5050505E-02 -0.1230113E-09  0.0000000E+00  0.2063416E-07
 -0.4956794E-02  0.0000000E+00 -0.5050505E-02 -0.1207296E-09  0.0000000E+00  0.2055200E-07
 -0.4937066E-02  0.0000000E+00 -0.5050505E-02 -0.1179411E-09  0.0000000E+00  0.2047155E-07
 -0.4906239E-02  0.0000000E+00 -0.5050505E-02 -0.1146471E-09  0.0000000E+00  0.2039315E-07
 -0.4866782E-02  0.0000000E+00 -0.5050505E-02 -0.1108466E-09  0.0000000E+00  0.2031712E-07
 -0.4827325E-02  0.0000000E+00 -0.5050505E-02 -0.1065352E-09  0.0000000E+00  0.2024382E-07
 -0.4769372E-02  0.0000000E+00 -0.5050505E-02 -0.1017023E-09  0.0000000E+00  0.2017359E-07
 -0.4690458E-02  0.0000000E+00 -0.5050505E-02 -0.9632708E-10  0.0000000E+00  0.2010677E-07
 -0.4611543E-02  0.0000000E+00 -0.5050505E-02 -0.9037233E-10  0.0000000E+00  0.2004374E-07
 -0.4503035E-02  0.0000000E+00 -0.5050505E-02 -0.8377370E-10  0.0000000E+00  0.1998488E-07
 -0.4345206E-02  0.0000000E+00 -0.5050505E-02 -0.7642176E-10  0.0000000E+00  0.1993064E-07
 -0.4187378E-02  0.0000000E+00 -0.5050505E-02 -0.6813025E-10  0.0000000E+00  0.1988153E-07
 -0.3985156E-02  0.0000000E+00 -0.5050505E-02 -0.5857745E-10  0.0000000E+00  0.1983818E-07
 -0.3669499E-02  0.0000000E+00 -0.5050505E-02 -0.4719430E-10  0.0000000E+00  0.1980145E-07
 -0.3353842E-02  0.0000000E+00 -0.5050505E-02 -0.3293754E-10  0.0000000E+00  0.1977246E-07
 -0.2978990E-02  0.0000000E+00 -0.5050505E-02 -0.1380182E-10  0.0000000E+00  0.1975282E-07
 -0.2347676E-02  0.0000000E+00 -0.5050505E-02  0.1429209E-10  0.0000000E+00  0.1974468E-07
 -0.1716362E-02  0.0000000E+00 -0.5050505E-02  0.6025905E-10  0.0000000E+00  0.1975006E-07
 -0.1025842E-02  0.0000000E+00 -0.5050505E-02  0.1446215E-09  0.0000000E+00  0.1976621E-07
  0.2367855E-03  0.0000000E+00 -0.5050505E-02  0.3182179E-09  0.0000000E+00  0.1976262E-07
  0.1499413E-02  0.0000000E+00 -0.5050505E-02  0.7137459E-09  0.0000000E+00  0.1957268E-07
  0.5287294E-02  0.0000000E+00 -0.5050505E-02  0.1694389E-08  0.0000000E+00  0.1839095E-07
 -0.5050505E-02  0.0000000E+00 -0.5050505E-02  0.5743272E-11  0.0000000E+00  0.1985482E-07
 -0.5050505E-02  0.0000000E+00 -0.5050505E-02  0.1834952E-10  0.0000000E+00  0.1985986E-07
 -0.5050505E-02  0.0000000E+00 -0.5050505E-02  0.3123845E-10  0.0000000E+00  0.1987006E-07
 -0.5050505E-02  0.0000000E+00 -0.5050505E-02  0.4378406E-10  0.0000000E+00  0.1988540E-07
 -0.5050505E-02  0.0000000E+00 -0.5050505E-02  0.5607770E-10  0.0000000E+00  0.1990580E-07
 -0.5050505E-02  0.0000000E+00 -0.5050505E-02  0.6811051E-10  0.0000000E+00  0.1993116E-07
 -0.5050504E-02  0.0000000E+00 -0.5050505E-02  0.7985504E-10  0.0000000E+00  0.1996136E-07
 -0.5050501E-02  0.0000000E+00 -0.5050505E-02  0.9127512E-10  0.0000000E+00  0.1999630E-07
 -0.5050495E-02  0.0000000E+00 -0.5050505E-02  0.1023306E-09  0.0000000E+00  0.2003582E-07
 -0.5050482E-02  0.0000000E+00 -0.5050505E-02  0.1129799E-09  0.0000000E+00  0.2007977E-07
 -0.5050449E-02  0.0000000E+00 -0.5050505E-02  0.1231814E-09  0.0000000E+00  0.2012798E-07
 -0.5050376E-02  0.0000000E+00 -0.5050505E-02  0.1328945E-09  0.0000000E+00  0.2018025E-07
 -0.5050299E-02  0.0000000E+00 -0.5050505E-02  0.1420800E-09  0.0000000E+00  0.2023639E-07
 -0.5050178E-02  0.0000000E+00 -0.5050505E-02  0.1507003E-09  0.0000000E+00  0.2029615E-07
 -0.5050018E-02  0.0000000E+00 -0.5050505E-02  0.1587197E-09  0.0000000E+00  0.2035932E-07
 -0.5049710E-02  0.0000000E+00 -0.5050505E-02  0.1661047E-09  0.0000000E+00  0.2042564E-07
 -0.5049253E-02  0.0000000E+00 -0.5050505E-02  0.1728240E-09  0.0000000E+00  0.2049483E-07
 -0.5048636E-02  0.0000000E+00 -0.5050505E-02  0.1788485E-09  0.0000000E+00  0.2056663E-07
 -0.5047442E-02  0.0000000E+00 -0.5050505E-02  0.1841521E-09  0.0000000E+00  0.2064074E-07
 -0.5045727E-02  0.0000000E+00 -0.5050505E-02  0.1887108E-09  0.0000000E+00  0.2071687E-07
 -0.5043261E-02  0.0000000E+00 -0.5050505E-02  0.1925038E-09  0.0000000E+00  0.2079471E-07
 -0.5038714E-02  0.0000000E+00 -0.5050505E-02  0.1955132E-09  0.0000000E+00  0.2087393E-07
 -0.5032318E-02  0.0000000E+00 -0.5050505E-02  0.1977238E-09  0.0000000E+00  0.2095423E-07
 -0.5022454E-02  0.0000000E+00 -0.5050505E-02  0.1991237E-09  0.0000000E+00  0.2103527E-07
 -0.5012589E-02  0.0000000E+00 -0.5050505E-02  0.1997044E-09  0.0000000E+00  0.2111671E-07
 -0.5002725E-02  0.0000000E+00 -0.5050505E-02  0.1994604E-09  0.0000000E+00  0.2119822E-07
 -0.4992860E-02  0.0000000E+00 -0.5050505E-02  0.1983896E-09  0.0000000E+00  0.2127947E-07
 -0.4976523E-02  0.0000000E+00 -0.5050505E-02  0.1964934E-09  0.0000000E+00  0.2136012E-07
 -0.4956794E-02  0.0000000E+00 -0.5050505E-02  0.1937764E-09  0.0000000E+00  0.2143982E-07
 -0.4937066E-02  0.0000000E+00 -0.5050505E-02  0.1902470E-09  0.0000000E+00  0.2151825E-07
 -0.4906239E-02  0.0000000E+00 -0.5050505E-02  0.1859167E-09  0.0000000E+00  0.2159508E-07
 -0.4866782E-02  0.0000000E+00 -0.5050505E-02  0.1808006E-09  0.0000000E+00  0.2166999E-07
 -0.4827325E-02  0.0000000E+00 -0.5050505E-02  0.1749173E-09  0.0000000E+00  0.2174265E-07
 -0.4769372E-02  0.0000000E+00 -0.5050505E-02  0.1682886E-09  0.0000000E+00  0.2181275E-07
 -0.4690458E-02  0.0000000E+00 -0.5050505E-02  0.1609397E-09  0.0000000E+00  0.2188001E-07
 -0.4611543E-02  0.0000000E+00 -0.5050505E-02  0.1528989E-09  0.0000000E+00  0.2194412E-07
 -0.4503035E-02  0.0000000E+00 -0.5050505E-02  0.1441979E-09  0.0000000E+00  0.2200481E-07
 -0.4345206E-02  0.0000000E+00 -0.5050505E-02  0.1348709E-09  0.0000000E+00  0.2206183E-07
 -0.4187378E-02  0.0000000E+00 -0.5050505E-02  0.1249553E-09  0.0000000E+00  0.2211491E-07
 -0.3985156E-02  0.0000000E+00 -0.5050505E-02  0.1144909E-09  0.0000000E+00  0.2216384E-07
 -0.3669499E-02  0.0000000E+00 -0.5050505E-02  0.1035197E-09  0.0000000E+00  0.2220839E-07
 -0.3353842E-02  0.0000000E+00 -0.5050505E-02  0.9208538E-10  0.0000000E+00  0.2224836E-07
 -0.2978990E-02  0.0000000E+00 -0.5050505E-02  0.8023310E-10  0.0000000E+00  0.2228358E-07
 -0.2347676E-02  0.0000000E+00 -0.5050505E-02  0.6800831E-10  0.0000000E+00  0.2231388E-07
 -0.1716362E-02  0.0000000E+00 -0.5050505E-02  0.5545649E-10  0.0000000E+00  0.2233912E-07
 -0.1025842E-02  0.0000000E+00 -0.5050505E-02  0.4262336E-10  0.0000000E+00  0.2235918E-07
  0.2367855E-03  0.0000000E+00 -0.5050505E-02  0.2955806E-10  0.0000000E+00  0.2237394E-07
  0.1499413E-02  0.0000000E+00 -0.5050505E-02  0.1632277E-10  0.0000000E+00  0.2238333E-07
  0.2762042E-02  0.0000000E+00 -0.5050505E-02  0.3013177E-11  0.0000000E+00  0.2238731E-07
 -0.5050505E-02  0.0000000E+00 -0.5050505E-02 -0.1030234E-10  0.0000000E+00  0.2238584E-07
 -0.5050505E-02  0.0000000E+00 -0.5050505E-02 -0.2356472E-10  0.0000000E+00  0.2237894E-07
 -0.5050505E-02  0.0000000E+00 -0.5050505E-02 -0.3690932E-10  0.0000000E+00  0.2236660E-07
 -0.5050505E-02  0.0000000E+00 -0.5050505E-02 -0.5008152E-10  0.0000000E+00  0.2234886E-07
 -0.5050505E-02  0.0000000E+00 -0.5050505E-02 -0.6301733E-10  0.0000000E+00  0.2232579E-07
 -0.5050505E-02  0.0000000E+00 -0.5050505E-02 -0.7568304E-10  0.0000000E+00  0.2229748E-07
 -0.5050505E-02  0.0000000E+00 -0.5050505E-02 -0.8804150E-10  0.0000000E+00  0.2226407E-07
 -0.5050504E-02  0.0000000E+00 -0.5050505E-02 -0.1000497E-09  0.0000000E+00  0.2222568E-07
 -0.5050501E-02  0.0000000E+00 -0.5050505E-02 -0.1116615E-09  0.0000000E+00  0.2218246E-07
 -0.5050495E-02  0.0000000E+00 -0.5050505E-02 -0.1228304E-09  0.0000000E+00  0.2213459E-07
 -0.5050482E-02  0.0000000E+00 -0.5050505E-02 -0.1335106E-09  0.0000000E+00  0.2208226E-07
 -0.5050449E-02  0.0000000E+00 -0.5050505E-02 -0.1436582E-09  0.0000000E+00  0.2202567E-07
 -0.5050376E-02  0.0000000E+00 -0.5050505E-02 -0.1532313E-09  0.0000000E+00  0.2196506E-07
 -0.5050299E-02  0.0000000E+00 -0.5050505E-02 -0.1621909E-09  0.0000000E+00  0.2190066E-07
 -0.5050178E-02  0.0000000E+00 -0.5050505E-02 -0.1705002E-09  0.0000000E+00  0.2183274E-07
 -0.5050018E-02  0.0000000E+00 -0.5050505E-02 -0.1781256E-09  0.0000000E+00  0.2176157E-07
 -0.5049710E-02  0.0000000E+00 -0.5050505E-02 -0.1850362E-09  0.0000000E+00  0.2168742E-07
 -0.5049253E-02  0.0000000E+00 -0.5050505E-02 -0.1912045E-09  0.0000000E+00  0.2161061E-07
 -0.5048636E-02  0.0000000E+00 -0.5050505E-02 -0.1966057E-09  0.0000000E+00  0.2153143E-07
 -0.5047442E-02  0.0000000E+00 -0.5050505E-02 -0.2012183E-09  0.0000000E+00  0.2145021E-07
 -0.5045727E-02  0.0000000E+00 -0.5050505E-02 -0.2050241E-09  0.0000000E+00  0.2136728E-07
 -0.5043261E-02  0.0000000E+00 -0.5050505E-02 -0.2080079E-09  0.0000000E+00  0.2128295E-07
 -0.5038714E-02  0.0000000E+00 -0.5050505E-02 -0.2101576E-09  0.0000000E+00  0.2119758E-07
 -0.5032318E-02  0.0000000E+00 -0.5050505E-02 -0.2114641E-09  0.0000000E+00  0.2111150E-07
 -0.5022454E-02  0.0000000E+00 -0.5050505E-02 -0.2119213E-09  0.0000000E+00  0.2102506E-07
 -0.5012589E-02  0.0000000E+00 -0.5050505E-02 -0.2115257E-09  0.0000000E+00  0.2093861E-07
 -0.5002725E-02  0.0000000E+00 -0.5050505E-02 -0.2102761E-09  0.0000000E+00  0.2085249E-07
 -0.4992860E-02  0.0000000E+00 -0.5050505E-02 -0.2081738E-09  0.0000000E+00  0.2076705E-07
 -0.4976523E-02  0.0000000E+00 -0.5050505E-02 -0.2052216E-09  0.0000000E+00  0.2068263E-07
 -0.4956794E-02  0.0000000E+00 -0.5050505E-02 -0.2014231E-09  0.0000000E+00  0.2059959E-07
 -0.4937066E-02  0.0000000E+00 -0.5050505E-02 -0.1967825E-09  0.0000000E+00  0.2051826E-07
 -0.4906239E-02  0.0000000E+00 -0.5050505E-02 -0.1913029E-09  0.0000000E+00  0.2043898E-07
 -0.4866782E-02  0.0000000E+00 -0.5050505E-02 -0.1849847E-09  0.0000000E+00  0.2036208E-07
 -0.4827325E-02  0.0000000E+00 -0.5050505E-02 -0.1778234E-09  0.0000000E+00  0.2028791E-07
 -0.4769372E-02  0.0000000E+00 -0.5050505E-02 -0.1698058E-09  0.0000000E+00  0.2021679E-07
 -0.4690458E-02  0.0000000E+00 -0.5050505E-02 -0.1609042E-09  0.0000000E+00  0.2014906E-07
 -0.4611543E-02  0.0000000E+00 -0.5050505E-02 -0.1510686E-09  0.0000000E+00  0.2008506E-07
 -0.4503035E-02  0.0000000E+00 -0.5050505E-02 -0.1402118E-09  0.0000000E+00  0.2002514E-07
 -0.4345206E-02  0.0000000E+00 -0.5050505E-02 -0.1281875E-09  0.0000000E+00  0.1996966E-07
 -0.4187378E-02  0.0000000E+00 -0.5050505E-02 -0.1147516E-09  0.0000000E+00  0.1991901E-07
 -0.3985156E-02  0.0000000E+00 -0.5050505E-02 -0.9949640E-10  0.0000000E+00  0.1987361E-07
 -0.3669499E-02  0.0000000E+00 -0.5050505E-02 -0.8173630E-10  0.0000000E+00  0.1983386E-07
 -0.3353842E-02  0.0000000E+00 -0.5050505E-02 -0.6030527E-10  0.0000000E+00  0.1980014E-07
 -0.2978990E-02  0.0000000E+00 -0.5050505E-02 -0.3319878E-10  0.0000000E+00  0.1977248E-07
 -0.2347676E-02  0.0000000E+00 -0.5050505E-02  0.3195113E-11  0.0000000E+00  0.1974996E-07
 -0.1716362E-02  0.0000000E+00 -0.5050505E-02  0.5511380E-10  0.0000000E+00  0.1972867E-07
 -0.1025842E-02  0.0000000E+00 -0.5050505E-02  0.1327502E-09  0.0000000E+00  0.1969656E-07
  0.2367855E-03  0.0000000E+00 -0.5050505E-02  0.2490141E-09  0.0000000E+00  0.1962123E-07
  0.1499413E-02  0.0000000E+00 -0.5050505E-02  0.3991802E-09  0.0000000E+00  0.1943106E-07
  0.5287294E-02  0.0000000E+00 -0.5050505E-02  0.4451917E-09  0.0000000E+00  0.1905380E-07
 -0.5050505E-02  0.0000000E+00 -0.5050505E-02  0.8215825E-11  0.0000000E+00  0.1991330E-07
 -0.5050505E-02  0.0000000E+00 -0.5050505E-02  0.2587555E-10  0.0000000E+00  0.1991845E-07
 -0.5050505E-02  0.0000000E+00 -0.5050505E-02  0.4389717E-10  0.0000000E+00  0.1992883E-07
 -0.5050505E-02  0.0000000E+00 -0.5050505E-02  0.6147533E-10  0.0000000E+00  0.1994443E-07
 -0.5050505E-02  0.0000000E+00 -0.5050505E-02  0.7871643E-10  0.0000000E+00  0.1996515E-07
 -0.5050505E-02  0.0000000E+00 -0.5050505E-02  0.9559878E-10  0.0000000E+00  0.1999090E-07
 -0.5050504E-02  0.0000000E+00 -0.5050505E-02  0.1120796E-09  0.0000000E+00  0.2002158E-07
 -0.5050501E-02  0.0000000E+00 -0.5050505E-02  0.1281067E-09  0.0000000E+00  0.2005705E-07
 -0.5050495E-02  0.0000000E+00 -0.5050505E-02  0.1436229E-09  0.0000000E+00  0.2009719E-07
 -0.5050482E-02  0.0000000E+00 -0.5050505E-02  0.1585697E-09  0.0000000E+00  0.2014182E-07
 -0.5050449E-02  0.0000000E+00 -0.5050505E-02  0.1728886E-09  0.0000000E+00  0.2019078E-07
 -0.5050376E-02  0.0000000E+00 -0.5050505E-02  0.1865226E-09  0.0000000E+00  0.2024386E-07
 -0.5050299E-02  0.0000000E+00 -0.5050505E-02  0.1994165E-09  0.0000000E+00  0.2030087E-07
 -0.5050178E-02  0.0000000E+00 -0.5050505E-02  0.2115176E-09  0.0000000E+00  0.2036157E-07
 -0.5050018E-02  0.0000000E+00 -0.5050505E-02  0.2227758E-09  0.0000000E+00  0.2042572E-07
 -0.5049710E-02  0.0000000E+00 -0.5050505E-02  0.2331440E-09  0.0000000E+00  0.2049307E-07
 -0.5049253E-02  0.0000000E+00 -0.5050505E-02  0.2425781E-09  0.0000000E+00  0.2056335E-07
 -0.5048636E-02  0.0000000E+00 -0.5050505E-02  0.2510376E-09  0.0000000E+00  0.2063627E-07
 -0.5047442E-02  0.0000000E+00 -0.5050505E-02  0.2584854E-09  0.0000000E+00  0.2071155E-07
 -0.5045727E-02  0.0000000E+00 -0.5050505E-02  0.2648881E-09  0.0000000E+00  0.2078888E-07
 -0.5043261E-02  0.0000000E+00 -0.5050505E-02  0.2702163E-09  0.0000000E+00  0.2086795E-07
 -0.5038714E-02  0.0000000E+00 -0.5050505E-02  0.2744446E-09  0.0000000E+00  0.2094844E-07
 -0.5032318E-02  0.0000000E+00 -0.5050505E-02  0.2775520E-09  0.0000000E+00  0.2103001E-07
 -0.5022454E-02  0.0000000E+00 -0.5050505E-02  0.2795217E-09  0.0000000E+00  0.2111234E-07
 -0.5012589E-02  0.0000000E+00 -0.5050505E-02  0.2803414E-09  0.0000000E+00  0.2119509E-07
 -0.5002725E-02  0.0000000E+00 -0.5050505E-02  0.2800035E-09  0.0000000E+00  0.2127791E-07
 -0.4992860E-02  0.0000000E+00 -0.5050505E-02  0.2785051E-09  0.0000000E+00  0.2136047E-07
 -0.4976523E-02  0.0000000E+00 -0.5050505E-02  0.2758479E-09  0.0000000E+00  0.2144242E-07
 -0.4956794E-02  0.0000000E+00 -0.5050505E-02  0.2720384E-09  0.0000000E+00  0.2152341E-07
 -0.4937066E-02  0.0000000E+00 -0.5050505E-02  0.2670883E-09  0.0000000E+00  0.2160312E-07