title = "dataset feddes"
variables = "x", "y", "z", "h_w", "p_w", "s_w", "theta_w", "transp", "evap"
zone t = "Flow variables, solution time =  5.300E+01 days        " i =  100, j =  100, k =    1,  f=point
  0.0000000E+00  0.0000000E+00  0.0000000E+00 -0.5000000E+01 -0.5000000E+01  0.5313722E+00  0.2274273E+00  0.0000000E+00  0.0000000E+00
  0.1010101E-01  0.0000000E+00  0.0000000E+00 -0.5000000E+01 -0.5000000E+01  0.5313722E+00  0.2274273E+00  0.0000000E+00  0.0000000E+00
  0.2020202E-01  0.0000000E+00  0.0000000E+00 -0.5000000E+01 -0.5000000E+01  0.5313722E+00  0.2274273E+00  0.0000000E+00  0.0000000E+00
  0.3030303E-01  0.0000000E+00  0.0000000E+00 -0.5000000E+01 -0.5000000E+01  0.5313722E+00  0.2274273E+00  0.0000000E+00  0.0000000E+00
  0.4040404E-01  0.0000000E+00  0.0000000E+00 -0.5000000E+01 -0.5000000E+01  0.5313722E+00  0.2274273E+00  0.0000000E+00  0.0000000E+00
  0.5050505E-01  0.0000000E+00  0.0000000E+00 -0.5000000E+01 -0.5000000E+01  0.5313722E+00  0.2274273E+00  0.0000000E+00  0.0000000E+00
  0.6060606E-01  0.0000000E+00  0.0000000E+00 -0.5000000E+01 -0.5000000E+01  0.5313722E+00  0.2274273E+00  0.0000000E+00  0.0000000E+00
  0.7070707E-01  0.0000000E+00  0.0000000E+00 -0.5000000E+01 -0.5000000E+01  0.5313722E+00  0.2274273E+00  0.0000000E+00  0.0000000E+00
  0.8080808E-01  0.0000000E+00  0.0000000E+00 -0.5000000E+01 -0.5000000E+01  0.5313722E+00  0.2274273E+00  0.0000000E+00  0.0000000E+00
  0.9090909E-01  0.0000000E+00  0.0000000E+00 -0.5000000E+01 -0.5000000E+01  0.5313722E+00  0.2274273E+00  0.0000000E+00  0.0000000E+00
  0.1010101E+00  0.0000000E+00  0.0000000E+00 -0.5000000E+01 -0.5000000E+01  0.5313722E+00  0.2274273E+00  0.0000000E+00  0.0000000E+00
  0.1111111E+00  0.0000000E+00  0.0000000E+00 -0.5000000E+01 -0.5000000E+01  0.5313722E+00  0.2274273E+00  0.0000000E+00  0.0000000E+00
  0.1212121E+00  0.0000000E+00  0.0000000E+00 -0.5000000E+01 -0.5000000E+01  0.5313722E+00  0.2274273E+00  0.0000000E+00  0.0000000E+00
  0.1313131E+00  0.0000000E+00  0.0000000E+00 -0.5000000E+01 -0.5000000E+01  0.5313722E+00  0.2274273E+00  0.0000000E+00  0.0000000E+00
  0.1414142E+00  0.0000000E+00  0.0000000E+00 -0.5000000E+01 -0.5000000E+01  0.5313722E+00  0.2274273E+00  0.0000000E+00  0.0000000E+00
  0.1515152E+00  0.0000000E+00  0.0000000E+00 -0.5000000E+01 -0.5000000E+01  0.5313722E+00  0.2274273E+00  0.0000000E+00  0.0000000E+00
  0.1616162E+00  0.0000000E+00  0.0000000E+00 -0.5000000E+01 -0.5000000E+01  0.5313722E+00  0.2274273E+00  0.0000000E+00  0.0000000E+00
  0.1717172E+00  0.0000000E+00  0.0000000E+00 -0.5000000E+01 -0.5000000E+01  0.5313722E+00  0.2274273E+00  0.0000000E+00  0.0000000E+00
  0.1818182E+00  0.0000000E+00  0.0000000E+00 -0.5000000E+01 -0.5000000E+01  0.5313722E+00  0.2274273E+00  0.0000000E+00  0.0000000E+00
  0.1919192E+00  0.0000000E+00  0.0000000E+00 -0.5000000E+01 -0.5000000E+01  0.5313722E+00  0.2274273E+00  0.0000000E+00  0.0000000E+00
  0.2020202E+00  0.0000000E+00  0.0000000E+00 -0.5000000E+01 -0.5000000E+01  0.5313722E+00  0.2274273E+00  0.0000000E+00  0.0000000E+00
  0.2121212E+00  0.0000000E+00  0.0000000E+00 -0.5000000E+01 -0.5000000E+01  0.5313722E+00  0.2274273E+00  0.0000000E+00  0.0000000E+00
  0.2222222E+00  0.0000000E+00  0.0000000E+00 -0.5000000E+01 -0.5000000E+01  0.5313722E+00  0.2274273E+00  0.0000000E+00  0.0000000E+00
  0.2323232E+00  0.0000000E+00  0.0000000E+00 -0.5000000E+01 -0.5000000E+01  0.5313722E+00  0.2274273E+00  0.0000000E+00  0.0000000E+00
  0.2424242E+00  0.0000000E+00  0.0000000E+00 -0.5000000E+01 -0.5000000E+01  0.5313722E+00  0.2274273E+00  0.0000000E+00  0.0000000E+00
  0.2525252E+00  0.0000000E+00  0.0000000E+00 -0.5000000E+01 -0.5000000E+01  0.5313722E+00  0.2274273E+00  0.0000000E+00  0.0000000E+00
  0.2626262E+00  0.0000000E+00  0.0000000E+00 -0.5000000E+01 -0.5000000E+01  0.5313722E+00  0.2274273E+00  0.0000000E+00  0.0000000E+00
  0.2727273E+00  0.0000000E+00  0.0000000E+00 -0.5000000E+01 -0.5000000E+01  0.5313722E+00  0.2274273E+00  0.0000000E+00  0.0000000E+00
  0.2828283E+00  0.0000000E+00  0.0000000E+00 -0.5000000E+01 -0.5000000E+01  0.5313722E+00  0.2274273E+00  0.0000000E+00  0.0000000E+00
  0.2929293E+00  0.0000000E+00  0.0000000E+00 -0.5000000E+01 -0.5000000E+01  0.5313722E+00  0.2274273E+00  0.0000000E+00  0.0000000E+00
  0.3030303E+00  0.0000000E+00  0.0000000E+00 -0.5000000E+01 -0.5000000E+01  0.5313722E+00  0.2274273E+00  0.0000000E+00  0.0000000E+00
  0.3131313E+00  0.0000000E+00  0.0000000E+00 -0.5000000E+01 -0.5000000E+01  0.5313722E+00  0.2274273E+00  0.0000000E+00  0.0000000E+00
  0.3232324E+00  0.0000000E+00  0.0000000E+00 -0.5000000E+01 -0.5000000E+01  0.5313722E+00  0.2274273E+00  0.0000000E+00  0.0000000E+00
  0.3333334E+00  0.0000000E+00  0.0000000E+00 -0.5000000E+01 -0.5000000E+01  0.5313722E+00  0.2274273E+00  0.0000000E+00  0.0000000E+00
  0.3434344E+00  0.0000000E+00  0.0000000E+00 -0.5000000E+01 -0.5000000E+01  0.5313722E+00  0.2274273E+00  0.0000000E+00  0.0000000E+00
  0.3535354E+00  0.0000000E+00  0.0000000E+00 -0.5000000E+01 -0.5000000E+01  0.5313722E+00  0.2274273E+00  0.0000000E+00  0.0000000E+00
  0.3636364E+00  0.0000000E+00  0.0000000E+00 -0.5000000E+01 -0.5000000E+01  0.5313722E+00  0.2274273E+00  0.0000000E+00  0.0000000E+00
  0.3737375E+00  0.0000000E+00  0.0000000E+00 -0.5000000E+01 -0.5000000E+01  0.5313722E+00  0.2274273E+00  0.0000000E+00  0.0000000E+00
  0.3838385E+00  0.0000000E+00  0.0000000E+00 -0.5000000E+01 -0.5000000E+01  0.5313722E+00  0.2274273E+00  0.0000000E+00  0.0000000E+00
  0.3939395E+00  0.0000000E+00  0.0000000E+00 -0.5000000E+01 -0.5000000E+01  0.5313722E+00  0.2274273E+00  0.0000000E+00  0.0000000E+00
  0.4040405E+00  0.0000000E+00  0.0000000E+00 -0.5000000E+01 -0.5000000E+01  0.5313722E+00  0.2274273E+00  0.0000000E+00  0.0000000E+00
  0.4141415E+00  0.0000000E+00  0.0000000E+00 -0.5000000E+01 -0.5000000E+01  0.5313722E+00  0.2274273E+00  0.0000000E+00  0.0000000E+00
  0.4242426E+00  0.0000000E+00  0.0000000E+00 -0.5000000E+01 -0.5000000E+01  0.5313722E+00  0.2274273E+00  0.0000000E+00  0.0000000E+00
  0.4343436E+00  0.0000000E+00  0.0000000E+00 -0.5000000E+01 -0.5000000E+01  0.5313722E+00  0.2274273E+00  0.0000000E+00  0.0000000E+00
  0.4444446E+00  0.0000000E+00  0.0000000E+00 -0.5000000E+01 -0.5000000E+01  0.5313722E+00  0.2274273E+00  0.0000000E+00  0.0000000E+00
  0.4545456E+00  0.0000000E+00  0.0000000E+00 -0.5000000E+01 -0.5000000E+01  0.5313722E+00  0.2274273E+00  0.0000000E+00  0.0000000E+00
  0.4646466E+00  0.0000000E+00  0.0000000E+00 -0.5000000E+01 -0.5000000E+01  0.5313722E+00  0.2274273E+00  0.0000000E+00  0.0000000E+00
  0.4747477E+00  0.0000000E+00  0.0000000E+00 -0.5000000E+01 -0.5000000E+01  0.5313722E+00  0.2274273E+00  0.0000000E+00  0.0000000E+00
  0.4848487E+00  0.0000000E+00  0.0000000E+00 -0.5000000E+01 -0.5000000E+01  0.5313722E+00  0.2274273E+00  0.0000000E+00  0.0000000E+00
  0.4949497E+00  0.0000000E+00  0.0000000E+00 -0.5000000E+01 -0.5000000E+01  0.5313722E+00  0.2274273E+00  0.0000000E+00  0.0000000E+00
  0.5050507E+00  0.0000000E+00  0.0000000E+00 -0.5000000E+01 -0.5000000E+01  0.5313722E+00  0.2274273E+00  0.0000000E+00  0.0000000E+00
  0.5151517E+00  0.0000000E+00  0.0000000E+00 -0.5000000E+01 -0.5000000E+01  0.5313722E+00  0.2274273E+00  0.0000000E+00  0.0000000E+00
  0.5252528E+00  0.0000000E+00  0.0000000E+00 -0.5000000E+01 -0.5000000E+01  0.5313722E+00  0.2274273E+00  0.0000000E+00  0.0000000E+00
  0.5353538E+00  0.0000000E+00  0.0000000E+00 -0.5000000E+01 -0.5000000E+01  0.5313722E+00  0.2274273E+00  0.0000000E+00  0.0000000E+00
  0.5454548E+00  0.0000000E+00  0.0000000E+00 -0.5000000E+01 -0.5000000E+01  0.5313722E+00  0.2274273E+00  0.0000000E+00  0.0000000E+00
  0.5555558E+00  0.0000000E+00  0.0000000E+00 -0.5000000E+01 -0.5000000E+01  0.5313722E+00  0.2274273E+00  0.0000000E+00  0.0000000E+00
  0.5656568E+00  0.0000000E+00  0.0000000E+00 -0.5000000E+01 -0.5000000E+01  0.5313722E+00  0.2274273E+00  0.0000000E+00  0.0000000E+00
  0.5757579E+00  0.0000000E+00  0.0000000E+00 -0.5000000E+01 -0.5000000E+01  0.5313722E+00  0.2274273E+00  0.0000000E+00  0.0000000E+00
  0.5858589E+00  0.0000000E+00  0.0000000E+00 -0.5000000E+01 -0.5000000E+01  0.5313722E+00  0.2274273E+00  0.0000000E+00  0.0000000E+00
  0.5959599E+00  0.0000000E+00  0.0000000E+00 -0.5000000E+01 -0.5000000E+01  0.5313722E+00  0.2274273E+00  0.0000000E+00  0.0000000E+00
  0.6060609E+00  0.0000000E+00  0.0000000E+00 -0.5000000E+01 -0.5000000E+01  0.5313722E+00  0.2274273E+00  0.0000000E+00  0.0000000E+00
  0.6161619E+00  0.0000000E+00  0.0000000E+00 -0.5000000E+01 -0.5000000E+01  0.5313722E+00  0.2274273E+00  0.0000000E+00  0.0000000E+00
  0.6262630E+00  0.0000000E+00  0.0000000E+00 -0.5000000E+01 -0.5000000E+01  0.5313722E+00  0.2274273E+00  0.0000000E+00  0.0000000E+00
  0.6363640E+00  0.0000000E+00  0.0000000E+00 -0.5000000E+01 -0.5000000E+01  0.5313722E+00  0.2274273E+00  0.0000000E+00  0.0000000E+00
  0.6464650E+00  0.0000000E+00  0.0000000E+00 -0.5000000E+01 -0.5000000E+01  0.5313722E+00  0.2274273E+00  0.0000000E+00  0.0000000E+00
  0.6565660E+00  0.0000000E+00  0.0000000E+00 -0.5000000E+01 -0.5000000E+01  0.5313722E+00  0.2274273E+00  0.0000000E+00  0.0000000E+00
  0.6666670E+00  0.0000000E+00  0.0000000E+00 -0.5000000E+01 -0.5000000E+01  0.5313722E+00  0.2274273E+00  0.0000000E+00  0.0000000E+00
  0.6767681E+00  0.0000000E+00  0.0000000E+00 -0.5000000E+01 -0.5000000E+01  0.5313722E+00  0.2274273E+00  0.0000000E+00  0.0000000E+00
  0.6868691E+00  0.0000000E+00  0.0000000E+00 -0.5000000E+01 -0.5000000E+01  0.5313722E+00  0.2274273E+00  0.0000000E+00  0.0000000E+00
  0.6969701E+00  0.0000000E+00  0.0000000E+00 -0.5000000E+01 -0.5000000E+01  0.5313722E+00  0.2274273E+00  0.0000000E+00  0.0000000E+00
  0.7070711E+00  0.0000000E+00  0.0000000E+00 -0.5000000E+01 -0.5000000E+01  0.5313722E+00  0.2274273E+00  0.0000000E+00  0.0000000E+00
  0.7171721E+00  0.0000000E+00  0.0000000E+00 -0.5000000E+01 -0.5000000E+01  0.5313722E+00  0.2274273E+00  0.0000000E+00  0.0000000E+00
  0.7272732E+00  0.0000000E+00  0.0000000E+00 -0.5000000E+01 -0.5000000E+01  0.5313722E+00  0.2274273E+00  0.0000000E+00  0.0000000E+00
  0.7373742E+00  0.0000000E+00  0.0000000E+00 -0.5000000E+01 -0.5000000E+01  0.5313722E+00  0.2274273E+00  0.0000000E+00  0.0000000E+00
  0.7474752E+00  0.0000000E+00  0.0000000E+00 -0.5000000E+01 -0.5000000E+01  0.5313722E+00  0.2274273E+00  0.0000000E+00  0.0000000E+00
  0.7575762E+00  0.0000000E+00  0.0000000E+00 -0.5000000E+01 -0.5000000E+01  0.5313722E+00  0.2274273E+00  0.0000000E+00  0.0000000E+00
  0.7676772E+00  0.0000000E+00  0.0000000E+00 -0.5000000E+01 -0.5000000E+01  0.5313722E+00  0.2274273E+00  0.0000000E+00  0.0000000E+00
  0.7777783E+00  0.0000000E+00  0.0000000E+00 -0.5000000E+01 -0.5000000E+01  0.5313722E+00  0.2274273E+00  0.0000000E+00  0.0000000E+00
  0.7878793E+00  0.0000000E+00  0.0000000E+00 -0.5000000E+01 -0.5000000E+01  0.5313722E+00  0.2274273E+00  0.0000000E+00  0.0000000E+00
  0.7979803E+00  0.0000000E+00  0.0000000E+00 -0.5000000E+01 -0.5000000E+01  0.5313722E+00  0.2274273E+00  0.0000000E+00  0.0000000E+00
  0.8080813E+00  0.0000000E+00  0.0000000E+00 -0.5000000E+01 -0.5000000E+01  0.5313722E+00  0.2274273E+00  0.0000000E+00  0.0000000E+00
  0.8181823E+00  0.0000000E+00  0.0000000E+00 -0.5000000E+01 -0.5000000E+01  0.5313722E+00  0.2274273E+00  0.0000000E+00  0.0000000E+00
  0.8282834E+00  0.0000000E+00  0.0000000E+00 -0.5000000E+01 -0.5000000E+01  0.5313722E+00  0.2274273E+00  0.0000000E+00  0.0000000E+00
  0.8383844E+00  0.0000000E+00  0.0000000E+00 -0.5000000E+01 -0.5000000E+01  0.5313722E+00  0.2274273E+00  0.0000000E+00  0.0000000E+00
  0.8484854E+00  0.0000000E+00  0.0000000E+00 -0.5000000E+01 -0.5000000E+01  0.5313722E+00  0.2274273E+00  0.0000000E+00  0.0000000E+00
  0.8585864E+00  0.0000000E+00  0.0000000E+00 -0.5000000E+01 -0.5000000E+01  0.5313722E+00  0.2274273E+00  0.0000000E+00  0.0000000E+00
  0.8686875E+00  0.0000000E+00  0.0000000E+00 -0.5000000E+01 -0.5000000E+01  0.5313722E+00  0.2274273E+00  0.0000000E+00  0.0000000E+00
  0.8787885E+00  0.0000000E+00  0.0000000E+00 -0.5000000E+01 -0.5000000E+01  0.5313722E+00  0.2274273E+00  0.0000000E+00  0.0000000E+00
  0.8888895E+00  0.0000000E+00  0.0000000E+00 -0.5000000E+01 -0.5000000E+01  0.5313722E+00  0.2274273E+00  0.0000000E+00  0.0000000E+00
  0.8989905E+00  0.0000000E+00  0.0000000E+00 -0.5000000E+01 -0.5000000E+01  0.5313722E+00  0.2274273E+00  0.0000000E+00  0.0000000E+00
  0.9090915E+00  0.0000000E+00  0.0000000E+00 -0.5000000E+01 -0.5000000E+01  0.5313722E+00  0.2274273E+00  0.0000000E+00  0.0000000E+00
  0.9191926E+00  0.0000000E+00  0.0000000E+00 -0.5000000E+01 -0.5000000E+01  0.5313722E+00  0.2274273E+00  0.0000000E+00  0.0000000E+00
  0.9292936E+00  0.0000000E+00  0.0000000E+00 -0.5000000E+01 -0.5000000E+01  0.5313722E+00  0.2274273E+00  0.0000000E+00  0.0000000E+00
  0.9393946E+00  0.0000000E+00  0.0000000E+00 -0.5000000E+01 -0.5000000E+01  0.5313722E+00  0.2274273E+00  0.0000000E+00  0.0000000E+00
  0.9494956E+00  0.0000000E+00  0.0000000E+00 -0.5000000E+01 -0.5000000E+01  0.5313722E+00  0.2274273E+00  0.0000000E+00  0.0000000E+00
  0.9595966E+00  0.0000000E+00  0.0000000E+00 -0.5000000E+01 -0.5000000E+01  0.5313722E+00  0.2274273E+00  0.0000000E+00  0.0000000E+00
  0.9696977E+00  0.0000000E+00  0.0000000E+00 -0.5000000E+01 -0.5000000E+01  0.5313722E+00  0.2274273E+00  0.0000000E+00  0.0000000E+00
  0.9797987E+00  0.0000000E+00  0.0000000E+00 -0.5000000E+01 -0.5000000E+01  0.5313722E+00  0.2274273E+00  0.0000000E+00  0.0000000E+00
  0.9898997E+00  0.0000000E+00  0.0000000E+00 -0.5000000E+01 -0.5000000E+01  0.5313722E+00  0.2274273E+00  0.0000000E+00  0.0000000E+00
  0.1000001E+01  0.0000000E+00  0.5826218E-18 -0.5000199E+01 -0.5000199E+01  0.5313658E+00  0.2274246E+00  0.0000000E+00  0.0000000E+00
  0.0000000E+00  0.0000000E+00  0.5826219E-18 -0.5000337E+01 -0.5010438E+01  0.5310366E+00  0.2272837E+00  0.0000000E+00  0.0000000E+00
  0.1010101E-01  0.0000000E+00  0.5826219E-18 -0.5000337E+01 -0.5010438E+01  0.5310366E+00  0.2272837E+00  0.0000000E+00  0.0000000E+00
  0.2020202E-01  0.0000000E+00  0.5826219E-18 -0.5000337E+01 -0.5010438E+01  0.5310366E+00  0.2272837E+00  0.0000000E+00  0.0000000E+00
  0.3030303E-01  0.0000000E+00  0.5826219E-18 -0.5000338E+01 -0.5010439E+01  0.5310366E+00  0.2272837E+00  0.0000000E+00  0.0000000E+00
  0.4040404E-01  0.0000000E+00  0.5826219E-18 -0.5000338E+01 -0.5010439E+01  0.5310366E+00  0.2272836E+00  0.0000000E+00  0.0000000E+00
  0.5050505E-01  0.0000000E+00  0.5826219E-18 -0.5000339E+01 -0.5010440E+01  0.5310365E+00  0.2272836E+00  0.0000000E+00  0.0000000E+00
  0.6060606E-01  0.0000000E+00  0.5826219E-18 -0.5000340E+01 -0.5010441E+01  0.5310365E+00  0.2272836E+00  0.0000000E+00  0.0000000E+00
  0.7070707E-01  0.0000000E+00  0.5826219E-18 -0.5000341E+01 -0.5010442E+01  0.5310365E+00  0.2272836E+00  0.0000000E+00  0.0000000E+00
  0.8080808E-01  0.0000000E+00  0.5826219E-18 -0.5000342E+01 -0.5010443E+01  0.5310364E+00  0.2272836E+00  0.0000000E+00  0.0000000E+00
  0.9090909E-01  0.0000000E+00  0.5826219E-18 -0.5000344E+01 -0.5010445E+01  0.5310364E+00  0.2272836E+00  0.0000000E+00  0.0000000E+00
  0.1010101E+00  0.0000000E+00  0.5826219E-18 -0.5000345E+01 -0.5010446E+01  0.5310363E+00  0.2272836E+00  0.0000000E+00  0.0000000E+00
  0.1111111E+00  0.0000000E+00  0.5826219E-18 -0.5000347E+01 -0.5010448E+01  0.5310363E+00  0.2272835E+00  0.0000000E+00  0.0000000E+00
  0.1212121E+00  0.0000000E+00  0.5826219E-18 -0.5000348E+01 -0.5010449E+01  0.5310362E+00  0.2272835E+00  0.0000000E+00  0.0000000E+00
  0.1313131E+00  0.0000000E+00  0.5826219E-18 -0.5000350E+01 -0.5010451E+01  0.5310362E+00  0.2272835E+00  0.0000000E+00  0.0000000E+00
  0.1414142E+00  0.0000000E+00  0.5826219E-18 -0.5000352E+01 -0.5010453E+01  0.5310361E+00  0.2272835E+00  0.0000000E+00  0.0000000E+00
  0.1515152E+00  0.0000000E+00  0.5826219E-18 -0.5000354E+01 -0.5010455E+01  0.5310360E+00  0.2272834E+00  0.0000000E+00  0.0000000E+00
  0.1616162E+00  0.0000000E+00  0.5826219E-18 -0.5000357E+01 -0.5010458E+01  0.5310360E+00  0.2272834E+00  0.0000000E+00  0.0000000E+00
  0.1717172E+00  0.0000000E+00  0.5826219E-18 -0.5000359E+01 -0.5010460E+01  0.5310359E+00  0.2272834E+00  0.0000000E+00  0.0000000E+00
  0.1818182E+00  0.0000000E+00  0.5826219E-18 -0.5000361E+01 -0.5010462E+01  0.5310358E+00  0.2272833E+00  0.0000000E+00  0.0000000E+00
  0.1919192E+00  0.0000000E+00  0.5826219E-18 -0.5000364E+01 -0.5010465E+01  0.5310357E+00  0.2272833E+00  0.0000000E+00  0.0000000E+00
  0.2020202E+00  0.0000000E+00  0.5826219E-18 -0.5000366E+01 -0.5010467E+01  0.5310357E+00  0.2272833E+00  0.0000000E+00  0.0000000E+00
  0.2121212E+00  0.0000000E+00  0.5826219E-18 -0.5000369E+01 -0.5010470E+01  0.5310356E+00  0.2272832E+00  0.0000000E+00  0.0000000E+00
  0.2222222E+00  0.0000000E+00  0.5826219E-18 -0.5000371E+01 -0.5010472E+01  0.5310355E+00  0.2272832E+00  0.0000000E+00  0.0000000E+00
  0.2323232E+00  0.0000000E+00  0.5826219E-18 -0.5000374E+01 -0.5010475E+01  0.5310354E+00  0.2272832E+00  0.0000000E+00  0.0000000E+00
  0.2424242E+00  0.0000000E+00  0.5826219E-18 -0.5000376E+01 -0.5010477E+01  0.5310353E+00  0.2272831E+00  0.0000000E+00  0.0000000E+00
  0.2525252E+00  0.0000000E+00  0.5826219E-18 -0.5000379E+01 -0.5010480E+01  0.5310352E+00  0.2272831E+00  0.0000000E+00  0.0000000E+00
  0.2626262E+00  0.0000000E+00  0.5826219E-18 -0.5000382E+01 -0.5010483E+01  0.5310352E+00  0.2272831E+00  0.0000000E+00  0.0000000E+00
  0.2727273E+00  0.0000000E+00  0.5826219E-18 -0.5000384E+01 -0.5010485E+01  0.5310351E+00  0.2272830E+00  0.0000000E+00  0.0000000E+00
  0.2828283E+00  0.0000000E+00  0.5826219E-18 -0.5000387E+01 -0.5010488E+01  0.5310350E+00  0.2272830E+00  0.0000000E+00  0.0000000E+00
  0.2929293E+00  0.0000000E+00  0.5826219E-18 -0.5000389E+01 -0.5010490E+01  0.5310349E+00  0.2272829E+00  0.0000000E+00  0.0000000E+00
  0.3030303E+00  0.0000000E+00  0.5826219E-18 -0.5000392E+01 -0.5010493E+01  0.5310348E+00  0.2272829E+00  0.0000000E+00  0.0000000E+00
  0.3131313E+00  0.0000000E+00  0.5826219E-18 -0.5000394E+01 -0.5010495E+01  0.5310348E+00  0.2272829E+00  0.0000000E+00  0.0000000E+00
  0.3232324E+00  0.0000000E+00  0.5826219E-18 -0.5000397E+01 -0.5010498E+01  0.5310347E+00  0.2272828E+00  0.0000000E+00  0.0000000E+00
  0.3333334E+00  0.0000000E+00  0.5826219E-18 -0.5000399E+01 -0.5010500E+01  0.5310346E+00  0.2272828E+00  0.0000000E+00  0.0000000E+00
  0.3434344E+00  0.0000000E+00  0.5826219E-18 -0.5000401E+01 -0.5010502E+01  0.5310345E+00  0.2272828E+00  0.0000000E+00  0.0000000E+00
  0.3535354E+00  0.0000000E+00  0.5826219E-18 -0.5000403E+01 -0.5010504E+01  0.5310345E+00  0.2272828E+00  0.0000000E+00  0.0000000E+00
  0.3636364E+00  0.0000000E+00  0.5826219E-18 -0.5000405E+01 -0.5010506E+01  0.5310344E+00  0.2272827E+00  0.0000000E+00  0.0000000E+00
  0.3737375E+00  0.0000000E+00  0.5826219E-18 -0.5000407E+01 -0.5010508E+01  0.5310343E+00  0.2272827E+00  0.0000000E+00  0.0000000E+00
  0.3838385E+00  0.0000000E+00  0.5826219E-18 -0.5000409E+01 -0.5010510E+01  0.5310343E+00  0.2272827E+00  0.0000000E+00  0.0000000E+00
  0.3939395E+00  0.0000000E+00  0.5826219E-18 -0.5000411E+01 -0.5010512E+01  0.5310342E+00  0.2272827E+00  0.0000000E+00  0.0000000E+00
  0.4040405E+00  0.0000000E+00  0.5826219E-18 -0.5000412E+01 -0.5010513E+01  0.5310342E+00  0.2272826E+00  0.0000000E+00  0.0000000E+00
  0.4141415E+00  0.0000000E+00  0.5826219E-18 -0.5000413E+01 -0.5010515E+01  0.5310341E+00  0.2272826E+00  0.0000000E+00  0.0000000E+00
  0.4242426E+00  0.0000000E+00  0.5826219E-18 -0.5000415E+01 -0.5010516E+01  0.5310341E+00  0.2272826E+00  0.0000000E+00  0.0000000E+00
  0.4343436E+00  0.0000000E+00  0.5826219E-18 -0.5000416E+01 -0.5010517E+01  0.5310341E+00  0.2272826E+00  0.0000000E+00  0.0000000E+00
  0.4444446E+00  0.0000000E+00  0.5826219E-18 -0.5000417E+01 -0.5010518E+01  0.5310340E+00  0.2272826E+00  0.0000000E+00  0.0000000E+00
  0.4545456E+00  0.0000000E+00  0.5826219E-18 -0.5000417E+01 -0.5010518E+01  0.5310340E+00  0.2272826E+00  0.0000000E+00  0.0000000E+00
  0.4646466E+00  0.0000000E+00  0.5826219E-18 -0.5000418E+01 -0.5010519E+01  0.5310340E+00  0.2272826E+00  0.0000000E+00  0.0000000E+00
  0.4747477E+00  0.0000000E+00  0.5826219E-18 -0.5000418E+01 -0.5010519E+01  0.5310340E+00  0.2272826E+00  0.0000000E+00  0.0000000E+00
  0.4848487E+00  0.0000000E+00  0.5826219E-18 -0.5000418E+01 -0.5010519E+01  0.5310340E+00  0.2272825E+00  0.0000000E+00  0.0000000E+00
  0.4949497E+00  0.0000000E+00  0.5826219E-18 -0.5000418E+01 -0.5010519E+01  0.5310340E+00  0.2272825E+00  0.0000000E+00  0.0000000E+00
  0.5050507E+00  0.0000000E+00  0.5826219E-18 -0.5000418E+01 -0.5010519E+01  0.5310340E+00  0.2272826E+00  0.0000000E+00  0.0000000E+00
  0.5151517E+00  0.0000000E+00  0.5826219E-18 -0.5000418E+01 -0.5010519E+01  0.5310340E+00  0.2272826E+00  0.0000000E+00  0.0000000E+00
  0.5252528E+00  0.0000000E+00  0.5826219E-18 -0.5000417E+01 -0.5010518E+01  0.5310340E+00  0.2272826E+00  0.0000000E+00  0.0000000E+00
  0.5353538E+00  0.0000000E+00  0.5826219E-18 -0.5000416E+01 -0.5010517E+01  0.5310340E+00  0.2272826E+00  0.0000000E+00  0.0000000E+00
  0.5454548E+00  0.0000000E+00  0.5826219E-18 -0.5000415E+01 -0.5010516E+01  0.5310341E+00  0.2272826E+00  0.0000000E+00  0.0000000E+00
  0.5555558E+00  0.0000000E+00  0.5826219E-18 -0.5000414E+01 -0.5010515E+01  0.5310341E+00  0.2272826E+00  0.0000000E+00  0.0000000E+00
  0.5656568E+00  0.0000000E+00  0.5826219E-18 -0.5000413E+01 -0.5010514E+01  0.5310342E+00  0.2272826E+00  0.0000000E+00  0.0000000E+00
  0.5757579E+00  0.0000000E+00  0.5826219E-18 -0.5000412E+01 -0.5010513E+01  0.5310342E+00  0.2272826E+00  0.0000000E+00  0.0000000E+00
  0.5858589E+00  0.0000000E+00  0.5826219E-18 -0.5000410E+01 -0.5010511E+01  0.5310342E+00  0.2272827E+00  0.0000000E+00  0.0000000E+00
  0.5959599E+00  0.0000000E+00  0.5826219E-18 -0.5000408E+01 -0.5010509E+01  0.5310343E+00  0.2272827E+00  0.0000000E+00  0.0000000E+00
  0.6060609E+00  0.0000000E+00  0.5826219E-18 -0.5000407E+01 -0.5010508E+01  0.5310344E+00  0.2272827E+00  0.0000000E+00  0.0000000E+00
  0.6161619E+00  0.0000000E+00  0.5826219E-18 -0.5000405E+01 -0.5010506E+01  0.5310344E+00  0.2272827E+00  0.0000000E+00  0.0000000E+00
  0.6262630E+00  0.0000000E+00  0.5826219E-18 -0.5000403E+01 -0.5010504E+01  0.5310345E+00  0.2272828E+00  0.0000000E+00  0.0000000E+00
  0.6363640E+00  0.0000000E+00  0.5826219E-18 -0.5000400E+01 -0.5010501E+01  0.5310346E+00  0.2272828E+00  0.0000000E+00  0.0000000E+00
  0.6464650E+00  0.0000000E+00  0.5826219E-18 -0.5000398E+01 -0.5010499E+01  0.5310346E+00  0.2272828E+00  0.0000000E+00  0.0000000E+00
  0.6565660E+00  0.0000000E+00  0.5826219E-18 -0.5000396E+01 -0.5010497E+01  0.5310347E+00  0.2272829E+00  0.0000000E+00  0.0000000E+00
  0.6666670E+00  0.0000000E+00  0.5826219E-18 -0.5000393E+01 -0.5010494E+01  0.5310348E+00  0.2272829E+00  0.0000000E+00  0.0000000E+00
  0.6767681E+00  0.0000000E+00  0.5826219E-18 -0.5000390E+01 -0.5010491E+01  0.5310349E+00  0.2272829E+00  0.0000000E+00  0.0000000E+00
  0.6868691E+00  0.0000000E+00  0.5826219E-18 -0.5000388E+01 -0.5010489E+01  0.5310350E+00  0.2272830E+00  0.0000000E+00  0.0000000E+00
  0.6969701E+00  0.0000000E+00  0.5826219E-18 -0.5000385E+01 -0.5010486E+01  0.5310351E+00  0.2272830E+00  0.0000000E+00  0.0000000E+00
  0.7070711E+00  0.0000000E+00  0.5826219E-18 -0.5000382E+01 -0.5010483E+01  0.5310351E+00  0.2272830E+00  0.0000000E+00  0.0000000E+00
  0.7171721E+00  0.0000000E+00  0.5826219E-18 -0.5000379E+01 -0.5010480E+01  0.5310352E+00  0.2272831E+00  0.0000000E+00  0.0000000E+00
  0.7272732E+00  0.0000000E+00  0.5826219E-18 -0.5000376E+01 -0.5010478E+01  0.5310353E+00  0.2272831E+00  0.0000000E+00  0.0000000E+00
  0.7373742E+00  0.0000000E+00  0.5826219E-18 -0.5000374E+01 -0.5010475E+01  0.5310354E+00  0.2272832E+00  0.0000000E+00  0.0000000E+00
  0.7474752E+00  0.0000000E+00  0.5826219E-18 -0.5000371E+01 -0.5010472E+01  0.5310355E+00  0.2272832E+00  0.0000000E+00  0.0000000E+00
  0.7575762E+00  0.0000000E+00  0.5826219E-18 -0.5000368E+01 -0.5010469E+01  0.5310356E+00  0.2272832E+00  0.0000000E+00  0.0000000E+00
  0.7676772E+00  0.0000000E+00  0.5826219E-18 -0.5000365E+01 -0.5010466E+01  0.5310357E+00  0.2272833E+00  0.0000000E+00  0.0000000E+00
  0.7777783E+00  0.0000000E+00  0.5826219E-18 -0.5000362E+01 -0.5010463E+01  0.5310358E+00  0.2272833E+00  0.0000000E+00  0.0000000E+00
  0.7878793E+00  0.0000000E+00  0.5826219E-18 -0.5000359E+01 -0.5010460E+01  0.5310359E+00  0.2272834E+00  0.0000000E+00  0.0000000E+00
  0.7979803E+00  0.0000000E+00  0.5826219E-18 -0.5000357E+01 -0.5010458E+01  0.5310360E+00  0.2272834E+00  0.0000000E+00  0.0000000E+00
  0.8080813E+00  0.0000000E+00  0.5826219E-18 -0.5000354E+01 -0.5010455E+01  0.5310360E+00  0.2272834E+00  0.0000000E+00  0.0000000E+00
  0.8181823E+00  0.0000000E+00  0.5826219E-18 -0.5000352E+01 -0.5010453E+01  0.5310361E+00  0.2272835E+00  0.0000000E+00  0.0000000E+00
  0.8282834E+00  0.0000000E+00  0.5826219E-18 -0.5000349E+01 -0.5010450E+01  0.5310362E+00  0.2272835E+00  0.0000000E+00  0.0000000E+00
  0.8383844E+00  0.0000000E+00  0.5826219E-18 -0.5000347E+01 -0.5010448E+01  0.5310363E+00  0.2272835E+00  0.0000000E+00  0.0000000E+00
  0.8484854E+00  0.0000000E+00  0.5826219E-18 -0.5000344E+01 -0.5010445E+01  0.5310364E+00  0.2272836E+00  0.0000000E+00  0.0000000E+00
  0.8585864E+00  0.0000000E+00  0.5826219E-18 -0.5000342E+01 -0.5010443E+01  0.5310364E+00  0.2272836E+00  0.0000000E+00  0.0000000E+00
  0.8686875E+00  0.0000000E+00  0.5826219E-18 -0.5000340E+01 -0.5010441E+01  0.5310365E+00  0.2272836E+00  0.0000000E+00  0.0000000E+00
  0.8787885E+00  0.0000000E+00  0.5826219E-18 -0.5000338E+01 -0.5010439E+01  0.5310366E+00  0.2272836E+00  0.0000000E+00  0.0000000E+00
  0.8888895E+00  0.0000000E+00  0.5826219E-18 -0.5000336E+01 -0.5010437E+01  0.5310366E+00  0.2272837E+00  0.0000000E+00  0.0000000E+00
  0.8989905E+00  0.0000000E+00  0.5826219E-18 -0.5000335E+01 -0.5010436E+01  0.5310367E+00  0.2272837E+00  0.0000000E+00  0.0000000E+00
  0.9090915E+00  0.0000000E+00  0.5826219E-18 -0.5000333E+01 -0.5010434E+01  0.5310367E+00  0.2272837E+00  0.0000000E+00  0.0000000E+00
  0.9191926E+00  0.0000000E+00  0.5826219E-18 -0.5000332E+01 -0.5010433E+01  0.5310368E+00  0.2272837E+00  0.0000000E+00  0.0000000E+00
  0.9292936E+00  0.0000000E+00  0.5826219E-18 -0.5000331E+01 -0.5010432E+01  0.5310368E+00  0.2272837E+00  0.0000000E+00  0.0000000E+00
  0.9393946E+00  0.0000000E+00  0.5826219E-18 -0.5000331E+01 -0.5010432E+01  0.5310368E+00  0.2272838E+00  0.0000000E+00  0.0000000E+00
  0.9494956E+00  0.0000000E+00  0.5826219E-18 -0.5000330E+01 -0.5010431E+01  0.5310368E+00  0.2272838E+00  0.0000000E+00  0.0000000E+00
  0.9595966E+00  0.0000000E+00  0.5826219E-18 -0.5000331E+01 -0.5010432E+01  0.5310368E+00  0.2272837E+00  0.0000000E+00  0.0000000E+00
  0.9696977E+00  0.0000000E+00  0.5826219E-18 -0.5000333E+01 -0.5010434E+01  0.5310367E+00  0.2272837E+00  0.0000000E+00  0.0000000E+00
  0.9797987E+00  0.0000000E+00  0.5826219E-18 -0.5000338E+01 -0.5010439E+01  0.5310366E+00  0.2272836E+00  0.0000000E+00  0.0000000E+00
  0.9898997E+00  0.0000000E+00  0.5826219E-18 -0.5000353E+01 -0.5010454E+01  0.5310361E+00  0.2272834E+00  0.0000000E+00  0.0000000E+00
  0.1000001E+01  0.0000000E+00  0.1491512E-15 -0.5000398E+01 -0.5010499E+01  0.5310346E+00  0.2272828E+00  0.0000000E+00  0.0000000E+00
  0.0000000E+00  0.0000000E+00  0.1491512E-15 -0.5000677E+01 -0.5020879E+01  0.5307018E+00  0.2271404E+00  0.0000000E+00  0.0000000E+00
  0.1010101E-01  0.0000000E+00  0.1491512E-15 -0.5000677E+01 -0.5020879E+01  0.5307017E+00  0.2271403E+00  0.0000000E+00  0.0000000E+00
  0.2020202E-01  0.0000000E+00  0.1491512E-15 -0.5000677E+01 -0.5020879E+01  0.5307017E+00  0.2271403E+00  0.0000000E+00  0.0000000E+00
  0.3030303E-01  0.0000000E+00  0.1491512E-15 -0.5000678E+01 -0.5020880E+01  0.5307017E+00  0.2271403E+00  0.0000000E+00  0.0000000E+00
  0.4040404E-01  0.0000000E+00  0.1491512E-15 -0.5000679E+01 -0.5020881E+01  0.5307017E+00  0.2271403E+00  0.0000000E+00  0.0000000E+00
  0.5050505E-01  0.0000000E+00  0.1491512E-15 -0.5000681E+01 -0.5020883E+01  0.5307016E+00  0.2271403E+00  0.0000000E+00  0.0000000E+00
  0.6060606E-01  0.0000000E+00  0.1491512E-15 -0.5000683E+01 -0.5020885E+01  0.5307016E+00  0.2271403E+00  0.0000000E+00  0.0000000E+00
  0.7070707E-01  0.0000000E+00  0.1491512E-15 -0.5000685E+01 -0.5020887E+01  0.5307015E+00  0.2271402E+00  0.0000000E+00  0.0000000E+00
  0.8080808E-01  0.0000000E+00  0.1491512E-15 -0.5000687E+01 -0.5020889E+01  0.5307014E+00  0.2271402E+00  0.0000000E+00  0.0000000E+00
  0.9090909E-01  0.0000000E+00  0.1491512E-15 -0.5000690E+01 -0.5020892E+01  0.5307013E+00  0.2271402E+00  0.0000000E+00  0.0000000E+00
  0.1010101E+00  0.0000000E+00  0.1491512E-15 -0.5000693E+01 -0.5020895E+01  0.5307012E+00  0.2271401E+00  0.0000000E+00  0.0000000E+00
  0.1111111E+00  0.0000000E+00  0.1491512E-15 -0.5000696E+01 -0.5020898E+01  0.5307011E+00  0.2271401E+00  0.0000000E+00  0.0000000E+00
  0.1212121E+00  0.0000000E+00  0.1491512E-15 -0.5000700E+01 -0.5020902E+01  0.5307010E+00  0.2271400E+00  0.0000000E+00  0.0000000E+00
  0.1313131E+00  0.0000000E+00  0.1491512E-15 -0.5000703E+01 -0.5020905E+01  0.5307009E+00  0.2271400E+00  0.0000000E+00  0.0000000E+00
  0.1414142E+00  0.0000000E+00  0.1491512E-15 -0.5000707E+01 -0.5020909E+01  0.5307008E+00  0.2271399E+00  0.0000000E+00  0.0000000E+00
  0.1515152E+00  0.0000000E+00  0.1491512E-15 -0.5000711E+01 -0.5020913E+01  0.5307006E+00  0.2271399E+00  0.0000000E+00  0.0000000E+00
  0.1616162E+00  0.0000000E+00  0.1491512E-15 -0.5000716E+01 -0.5020918E+01  0.5307005E+00  0.2271398E+00  0.0000000E+00  0.0000000E+00
  0.1717172E+00  0.0000000E+00  0.1491512E-15 -0.5000720E+01 -0.5020922E+01  0.5307003E+00  0.2271398E+00  0.0000000E+00  0.0000000E+00
  0.1818182E+00  0.0000000E+00  0.1491512E-15 -0.5000725E+01 -0.5020927E+01  0.5307002E+00  0.2271397E+00  0.0000000E+00  0.0000000E+00