title = "dataset feddes"
variables = "x", "y", "z", "vx", "vy", "vz"
zone t = "velocities, solution time =  6.000E+00 days        " i =   99, j =   99, k =    1,  f=point
 -0.5050505E-02  0.0000000E+00 -0.5050505E-02  0.1952435E-13  0.0000000E+00 -0.1588582E-09
 -0.5050505E-02  0.0000000E+00 -0.5050505E-02  0.1528058E-13  0.0000000E+00 -0.1588234E-09
 -0.5050505E-02  0.0000000E+00 -0.5050505E-02  0.9402281E-14  0.0000000E+00 -0.1587987E-09
 -0.5050505E-02  0.0000000E+00 -0.5050505E-02  0.1385599E-13  0.0000000E+00 -0.1587754E-09
 -0.5050505E-02  0.0000000E+00 -0.5050505E-02  0.1601537E-13  0.0000000E+00 -0.1587455E-09
 -0.5050505E-02  0.0000000E+00 -0.5050505E-02  0.1020455E-13  0.0000000E+00 -0.1587193E-09
 -0.5050504E-02  0.0000000E+00 -0.5050505E-02  0.9192341E-14  0.0000000E+00 -0.1586999E-09
 -0.5050501E-02  0.0000000E+00 -0.5050505E-02  0.5151010E-14  0.0000000E+00 -0.1586856E-09
 -0.5050495E-02  0.0000000E+00 -0.5050505E-02 -0.1124675E-14  0.0000000E+00 -0.1586816E-09
 -0.5050482E-02  0.0000000E+00 -0.5050505E-02 -0.3808898E-14  0.0000000E+00 -0.1586865E-09
 -0.5050449E-02  0.0000000E+00 -0.5050505E-02 -0.3246561E-14  0.0000000E+00 -0.1586935E-09
 -0.5050376E-02  0.0000000E+00 -0.5050505E-02 -0.1244640E-14  0.0000000E+00 -0.1586980E-09
 -0.5050299E-02  0.0000000E+00 -0.5050505E-02  0.1154666E-14  0.0000000E+00 -0.1586981E-09
 -0.5050178E-02  0.0000000E+00 -0.5050505E-02  0.2961643E-14  0.0000000E+00 -0.1586940E-09
 -0.5050018E-02  0.0000000E+00 -0.5050505E-02  0.3591461E-14  0.0000000E+00 -0.1586875E-09
 -0.5049710E-02  0.0000000E+00 -0.5050505E-02  0.3216570E-14  0.0000000E+00 -0.1586806E-09
 -0.5049253E-02  0.0000000E+00 -0.5050505E-02  0.2339323E-14  0.0000000E+00 -0.1586751E-09
 -0.5048636E-02  0.0000000E+00 -0.5050505E-02  0.1417090E-14  0.0000000E+00 -0.1586713E-09
 -0.5047442E-02  0.0000000E+00 -0.5050505E-02  0.7272896E-15  0.0000000E+00 -0.1586692E-09
 -0.5045727E-02  0.0000000E+00 -0.5050505E-02  0.2924154E-15  0.0000000E+00 -0.1586682E-09
 -0.5043261E-02  0.0000000E+00 -0.5050505E-02  0.1799480E-15  0.0000000E+00 -0.1586677E-09
 -0.5038714E-02  0.0000000E+00 -0.5050505E-02  0.1724501E-15  0.0000000E+00 -0.1586673E-09
 -0.5032318E-02  0.0000000E+00 -0.5050505E-02  0.1574545E-15  0.0000000E+00 -0.1586670E-09
 -0.5022454E-02  0.0000000E+00 -0.5050505E-02  0.2699219E-15  0.0000000E+00 -0.1586666E-09
 -0.5012589E-02  0.0000000E+00 -0.5050505E-02  0.2849176E-15  0.0000000E+00 -0.1586660E-09
 -0.5002725E-02  0.0000000E+00 -0.5050505E-02  0.3299046E-15  0.0000000E+00 -0.1586654E-09
 -0.4992860E-02  0.0000000E+00 -0.5050505E-02  0.3598959E-15  0.0000000E+00 -0.1586647E-09
 -0.4976523E-02  0.0000000E+00 -0.5050505E-02  0.2774198E-15  0.0000000E+00 -0.1586641E-09
 -0.4956794E-02  0.0000000E+00 -0.5050505E-02  0.2999133E-15  0.0000000E+00 -0.1586635E-09
 -0.4937066E-02  0.0000000E+00 -0.5050505E-02  0.1949436E-15  0.0000000E+00 -0.1586630E-09
 -0.4906239E-02  0.0000000E+00 -0.5050505E-02  0.8247615E-16  0.0000000E+00 -0.1586627E-09
 -0.4866782E-02  0.0000000E+00 -0.5050505E-02  0.1499566E-15  0.0000000E+00 -0.1586625E-09
 -0.4827325E-02  0.0000000E+00 -0.5050505E-02  0.5998265E-16  0.0000000E+00 -0.1586623E-09
 -0.4769372E-02  0.0000000E+00 -0.5050505E-02  0.8247615E-16  0.0000000E+00 -0.1586622E-09
 -0.4690458E-02  0.0000000E+00 -0.5050505E-02  0.2249349E-16  0.0000000E+00 -0.1586621E-09
 -0.4611543E-02  0.0000000E+00 -0.5050505E-02  0.2999133E-16  0.0000000E+00 -0.1586620E-09
 -0.4503035E-02  0.0000000E+00 -0.5050505E-02  0.0000000E+00  0.0000000E+00 -0.1586620E-09
 -0.4345206E-02  0.0000000E+00 -0.5050505E-02 -0.1499566E-16  0.0000000E+00 -0.1586620E-09
 -0.4187378E-02  0.0000000E+00 -0.5050505E-02 -0.2249349E-16  0.0000000E+00 -0.1586620E-09
 -0.3985156E-02  0.0000000E+00 -0.5050505E-02 -0.3748916E-16  0.0000000E+00 -0.1586621E-09
 -0.3669499E-02  0.0000000E+00 -0.5050505E-02  0.1499566E-16  0.0000000E+00 -0.1586621E-09
 -0.3353842E-02  0.0000000E+00 -0.5050505E-02  0.7497831E-17  0.0000000E+00 -0.1586621E-09
 -0.2978990E-02  0.0000000E+00 -0.5050505E-02  0.2249349E-16  0.0000000E+00 -0.1586621E-09
 -0.2347676E-02  0.0000000E+00 -0.5050505E-02 -0.2999133E-16  0.0000000E+00 -0.1586621E-09
 -0.1716362E-02  0.0000000E+00 -0.5050505E-02  0.7497831E-17  0.0000000E+00 -0.1586621E-09
 -0.1025842E-02  0.0000000E+00 -0.5050505E-02 -0.7497831E-17  0.0000000E+00 -0.1586621E-09
  0.2367855E-03  0.0000000E+00 -0.5050505E-02  0.2999133E-16  0.0000000E+00 -0.1586621E-09
  0.1499413E-02  0.0000000E+00 -0.5050505E-02  0.0000000E+00  0.0000000E+00 -0.1586620E-09
  0.2762042E-02  0.0000000E+00 -0.5050505E-02  0.7497831E-17  0.0000000E+00 -0.1586620E-09
 -0.5050505E-02  0.0000000E+00 -0.5050505E-02  0.7497831E-17  0.0000000E+00 -0.1586620E-09
 -0.5050505E-02  0.0000000E+00 -0.5050505E-02 -0.7497831E-17  0.0000000E+00 -0.1586620E-09
 -0.5050505E-02  0.0000000E+00 -0.5050505E-02  0.2999133E-16  0.0000000E+00 -0.1586620E-09
 -0.5050505E-02  0.0000000E+00 -0.5050505E-02 -0.2249349E-16  0.0000000E+00 -0.1586620E-09
 -0.5050505E-02  0.0000000E+00 -0.5050505E-02 -0.1499566E-16  0.0000000E+00 -0.1586620E-09
 -0.5050505E-02  0.0000000E+00 -0.5050505E-02  0.1499566E-16  0.0000000E+00 -0.1586620E-09
 -0.5050505E-02  0.0000000E+00 -0.5050505E-02 -0.2999133E-16  0.0000000E+00 -0.1586620E-09
 -0.5050504E-02  0.0000000E+00 -0.5050505E-02 -0.7497831E-17  0.0000000E+00 -0.1586621E-09
 -0.5050501E-02  0.0000000E+00 -0.5050505E-02 -0.3748916E-16  0.0000000E+00 -0.1586621E-09
 -0.5050495E-02  0.0000000E+00 -0.5050505E-02  0.1499566E-16  0.0000000E+00 -0.1586621E-09
 -0.5050482E-02  0.0000000E+00 -0.5050505E-02 -0.1499566E-16  0.0000000E+00 -0.1586621E-09
 -0.5050449E-02  0.0000000E+00 -0.5050505E-02 -0.2249349E-16  0.0000000E+00 -0.1586622E-09
 -0.5050376E-02  0.0000000E+00 -0.5050505E-02 -0.1499566E-16  0.0000000E+00 -0.1586622E-09
 -0.5050299E-02  0.0000000E+00 -0.5050505E-02 -0.3748916E-16  0.0000000E+00 -0.1586623E-09
 -0.5050178E-02  0.0000000E+00 -0.5050505E-02 -0.5998265E-16  0.0000000E+00 -0.1586624E-09
 -0.5050018E-02  0.0000000E+00 -0.5050505E-02 -0.8247615E-16  0.0000000E+00 -0.1586625E-09
 -0.5049710E-02  0.0000000E+00 -0.5050505E-02 -0.1274631E-15  0.0000000E+00 -0.1586627E-09
 -0.5049253E-02  0.0000000E+00 -0.5050505E-02 -0.3748916E-16  0.0000000E+00 -0.1586629E-09
 -0.5048636E-02  0.0000000E+00 -0.5050505E-02 -0.1574545E-15  0.0000000E+00 -0.1586631E-09
 -0.5047442E-02  0.0000000E+00 -0.5050505E-02 -0.1799480E-15  0.0000000E+00 -0.1586634E-09
 -0.5045727E-02  0.0000000E+00 -0.5050505E-02 -0.1949436E-15  0.0000000E+00 -0.1586638E-09
 -0.5043261E-02  0.0000000E+00 -0.5050505E-02 -0.2399306E-15  0.0000000E+00 -0.1586642E-09
 -0.5038714E-02  0.0000000E+00 -0.5050505E-02 -0.3673937E-15  0.0000000E+00 -0.1586648E-09
 -0.5032318E-02  0.0000000E+00 -0.5050505E-02 -0.4573677E-15  0.0000000E+00 -0.1586657E-09
 -0.5022454E-02  0.0000000E+00 -0.5050505E-02 -0.5398439E-15  0.0000000E+00 -0.1586666E-09
 -0.5012589E-02  0.0000000E+00 -0.5050505E-02 -0.8097658E-15  0.0000000E+00 -0.1586680E-09
 -0.5002725E-02  0.0000000E+00 -0.5050505E-02 -0.9522246E-15  0.0000000E+00 -0.1586698E-09
 -0.4992860E-02  0.0000000E+00 -0.5050505E-02 -0.1244640E-14  0.0000000E+00 -0.1586720E-09
 -0.4976523E-02  0.0000000E+00 -0.5050505E-02 -0.1567047E-14  0.0000000E+00 -0.1586748E-09
 -0.4956794E-02  0.0000000E+00 -0.5050505E-02 -0.1941938E-14  0.0000000E+00 -0.1586783E-09
 -0.4937066E-02  0.0000000E+00 -0.5050505E-02 -0.2391808E-14  0.0000000E+00 -0.1586826E-09
 -0.4906239E-02  0.0000000E+00 -0.5050505E-02 -0.3029124E-14  0.0000000E+00 -0.1586880E-09
 -0.4866782E-02  0.0000000E+00 -0.5050505E-02 -0.3748916E-14  0.0000000E+00 -0.1586948E-09
 -0.4827325E-02  0.0000000E+00 -0.5050505E-02 -0.4663651E-14  0.0000000E+00 -0.1587032E-09
 -0.4769372E-02  0.0000000E+00 -0.5050505E-02 -0.5893295E-14  0.0000000E+00 -0.1587138E-09
 -0.4690458E-02  0.0000000E+00 -0.5050505E-02 -0.7550316E-14  0.0000000E+00 -0.1587272E-09
 -0.4611543E-02  0.0000000E+00 -0.5050505E-02 -0.9837155E-14  0.0000000E+00 -0.1587446E-09
 -0.4503035E-02  0.0000000E+00 -0.5050505E-02 -0.1301624E-13  0.0000000E+00 -0.1587675E-09
 -0.4345206E-02  0.0000000E+00 -0.5050505E-02 -0.1756742E-13  0.0000000E+00 -0.1587980E-09
 -0.4187378E-02  0.0000000E+00 -0.5050505E-02 -0.2418800E-13  0.0000000E+00 -0.1588398E-09
 -0.3985156E-02  0.0000000E+00 -0.5050505E-02 -0.3392769E-13  0.0000000E+00 -0.1588979E-09
 -0.3669499E-02  0.0000000E+00 -0.5050505E-02 -0.4859345E-13  0.0000000E+00 -0.1589804E-09
 -0.3353842E-02  0.0000000E+00 -0.5050505E-02 -0.7154431E-13  0.0000000E+00 -0.1591006E-09
 -0.2978990E-02  0.0000000E+00 -0.5050505E-02 -0.1097008E-12  0.0000000E+00 -0.1592818E-09
 -0.2347676E-02  0.0000000E+00 -0.5050505E-02 -0.1785684E-12  0.0000000E+00 -0.1595701E-09
 -0.1716362E-02  0.0000000E+00 -0.5050505E-02 -0.3159961E-12  0.0000000E+00 -0.1600647E-09
 -0.1025842E-02  0.0000000E+00 -0.5050505E-02 -0.6229348E-12  0.0000000E+00 -0.1610036E-09
  0.2367855E-03  0.0000000E+00 -0.5050505E-02 -0.1399913E-11  0.0000000E+00 -0.1630264E-09
  0.1499413E-02  0.0000000E+00 -0.5050505E-02 -0.3639335E-11  0.0000000E+00 -0.1680657E-09
  0.5287294E-02  0.0000000E+00 -0.5050505E-02 -0.5945295E-10  0.0000000E+00 -0.1343782E-09
 -0.5050505E-02  0.0000000E+00 -0.5050505E-02  0.4221206E-13  0.0000000E+00 -0.1589505E-09
 -0.5050505E-02  0.0000000E+00 -0.5050505E-02  0.3877350E-13  0.0000000E+00 -0.1589389E-09
 -0.5050505E-02  0.0000000E+00 -0.5050505E-02  0.2207698E-13  0.0000000E+00 -0.1589273E-09
 -0.5050505E-02  0.0000000E+00 -0.5050505E-02  0.3221939E-13  0.0000000E+00 -0.1589194E-09
 -0.5050505E-02  0.0000000E+00 -0.5050505E-02  0.4591274E-13  0.0000000E+00 -0.1589008E-09
 -0.5050505E-02  0.0000000E+00 -0.5050505E-02  0.3086430E-13  0.0000000E+00 -0.1588763E-09
 -0.5050504E-02  0.0000000E+00 -0.5050505E-02  0.2294066E-13  0.0000000E+00 -0.1588612E-09
 -0.5050501E-02  0.0000000E+00 -0.5050505E-02  0.1223393E-13  0.0000000E+00 -0.1588546E-09
 -0.5050495E-02  0.0000000E+00 -0.5050505E-02 -0.3585057E-14  0.0000000E+00 -0.1588540E-09
 -0.5050482E-02  0.0000000E+00 -0.5050505E-02 -0.1040720E-13  0.0000000E+00 -0.1588582E-09
 -0.5050449E-02  0.0000000E+00 -0.5050505E-02 -0.7988388E-14  0.0000000E+00 -0.1588625E-09
 -0.5050376E-02  0.0000000E+00 -0.5050505E-02 -0.1833641E-14  0.0000000E+00 -0.1588633E-09
 -0.5050299E-02  0.0000000E+00 -0.5050505E-02  0.4464998E-14  0.0000000E+00 -0.1588605E-09
 -0.5050178E-02  0.0000000E+00 -0.5050505E-02  0.8747269E-14  0.0000000E+00 -0.1588555E-09
 -0.5050018E-02  0.0000000E+00 -0.5050505E-02  0.1004810E-13  0.0000000E+00 -0.1588498E-09
 -0.5049710E-02  0.0000000E+00 -0.5050505E-02  0.8927638E-14  0.0000000E+00 -0.1588444E-09
 -0.5049253E-02  0.0000000E+00 -0.5050505E-02  0.6589074E-14  0.0000000E+00 -0.1588400E-09
 -0.5048636E-02  0.0000000E+00 -0.5050505E-02  0.4168245E-14  0.0000000E+00 -0.1588367E-09
 -0.5047442E-02  0.0000000E+00 -0.5050505E-02  0.2352633E-14  0.0000000E+00 -0.1588345E-09
 -0.5045727E-02  0.0000000E+00 -0.5050505E-02  0.1060353E-14  0.0000000E+00 -0.1588331E-09
 -0.5043261E-02  0.0000000E+00 -0.5050505E-02  0.5974673E-15  0.0000000E+00 -0.1588324E-09
 -0.5038714E-02  0.0000000E+00 -0.5050505E-02  0.6123366E-15  0.0000000E+00 -0.1588319E-09
 -0.5032318E-02  0.0000000E+00 -0.5050505E-02  0.5302396E-15  0.0000000E+00 -0.1588314E-09
 -0.5022454E-02  0.0000000E+00 -0.5050505E-02  0.8365554E-15  0.0000000E+00 -0.1588309E-09
 -0.5012589E-02  0.0000000E+00 -0.5050505E-02  0.9186524E-15  0.0000000E+00 -0.1588302E-09
 -0.5002725E-02  0.0000000E+00 -0.5050505E-02  0.9785508E-15  0.0000000E+00 -0.1588295E-09
 -0.4992860E-02  0.0000000E+00 -0.5050505E-02  0.1045821E-14  0.0000000E+00 -0.1588289E-09
 -0.4976523E-02  0.0000000E+00 -0.5050505E-02  0.7769519E-15  0.0000000E+00 -0.1588283E-09
 -0.4956794E-02  0.0000000E+00 -0.5050505E-02  0.8143568E-15  0.0000000E+00 -0.1588279E-09
 -0.4937066E-02  0.0000000E+00 -0.5050505E-02  0.6497415E-15  0.0000000E+00 -0.1588274E-09
 -0.4906239E-02  0.0000000E+00 -0.5050505E-02  0.2688687E-15  0.0000000E+00 -0.1588271E-09
 -0.4866782E-02  0.0000000E+00 -0.5050505E-02  0.3885391E-15  0.0000000E+00 -0.1588269E-09
 -0.4827325E-02  0.0000000E+00 -0.5050505E-02  0.1718182E-15  0.0000000E+00 -0.1588267E-09
 -0.4769372E-02  0.0000000E+00 -0.5050505E-02  0.2539573E-15  0.0000000E+00 -0.1588266E-09
 -0.4690458E-02  0.0000000E+00 -0.5050505E-02  0.8213912E-16  0.0000000E+00 -0.1588265E-09
 -0.4611543E-02  0.0000000E+00 -0.5050505E-02  0.7472555E-16  0.0000000E+00 -0.1588264E-09
 -0.4503035E-02  0.0000000E+00 -0.5050505E-02 -0.2236711E-16  0.0000000E+00 -0.1588264E-09
 -0.4345206E-02  0.0000000E+00 -0.5050505E-02 -0.1499566E-16  0.0000000E+00 -0.1588264E-09
 -0.4187378E-02  0.0000000E+00 -0.5050505E-02 -0.5231631E-16  0.0000000E+00 -0.1588264E-09
 -0.3985156E-02  0.0000000E+00 -0.5050505E-02 -0.8222338E-16  0.0000000E+00 -0.1588264E-09
 -0.3669499E-02  0.0000000E+00 -0.5050505E-02  0.7539959E-17  0.0000000E+00 -0.1588265E-09
 -0.3353842E-02  0.0000000E+00 -0.5050505E-02  0.2986494E-16  0.0000000E+00 -0.1588265E-09
 -0.2978990E-02  0.0000000E+00 -0.5050505E-02  0.6722771E-16  0.0000000E+00 -0.1588264E-09
 -0.2347676E-02  0.0000000E+00 -0.5050505E-02 -0.7472555E-16  0.0000000E+00 -0.1588264E-09
 -0.1716362E-02  0.0000000E+00 -0.5050505E-02  0.1495353E-16  0.0000000E+00 -0.1588264E-09
 -0.1025842E-02  0.0000000E+00 -0.5050505E-02 -0.1495353E-16  0.0000000E+00 -0.1588264E-09
  0.2367855E-03  0.0000000E+00 -0.5050505E-02  0.6726984E-16  0.0000000E+00 -0.1588264E-09
  0.1499413E-02  0.0000000E+00 -0.5050505E-02  0.7455703E-17  0.0000000E+00 -0.1588264E-09
  0.2762042E-02  0.0000000E+00 -0.5050505E-02  0.2240924E-16  0.0000000E+00 -0.1588264E-09
 -0.5050505E-02  0.0000000E+00 -0.5050505E-02  0.1495353E-16  0.0000000E+00 -0.1588264E-09
 -0.5050505E-02  0.0000000E+00 -0.5050505E-02 -0.2240924E-16  0.0000000E+00 -0.1588264E-09
 -0.5050505E-02  0.0000000E+00 -0.5050505E-02  0.7472555E-16  0.0000000E+00 -0.1588264E-09
 -0.5050505E-02  0.0000000E+00 -0.5050505E-02 -0.2249349E-16  0.0000000E+00 -0.1588264E-09
 -0.5050505E-02  0.0000000E+00 -0.5050505E-02 -0.6718559E-16  0.0000000E+00 -0.1588264E-09
 -0.5050505E-02  0.0000000E+00 -0.5050505E-02  0.7539959E-17  0.0000000E+00 -0.1588264E-09
 -0.5050505E-02  0.0000000E+00 -0.5050505E-02 -0.4490273E-16  0.0000000E+00 -0.1588264E-09
 -0.5050504E-02  0.0000000E+00 -0.5050505E-02 -0.2240924E-16  0.0000000E+00 -0.1588264E-09
 -0.5050501E-02  0.0000000E+00 -0.5050505E-02 -0.9713478E-16  0.0000000E+00 -0.1588265E-09
 -0.5050495E-02  0.0000000E+00 -0.5050505E-02  0.8425590E-19  0.0000000E+00 -0.1588265E-09
 -0.5050482E-02  0.0000000E+00 -0.5050505E-02 -0.8425590E-19  0.0000000E+00 -0.1588265E-09
 -0.5050449E-02  0.0000000E+00 -0.5050505E-02 -0.5977201E-16  0.0000000E+00 -0.1588265E-09
 -0.5050376E-02  0.0000000E+00 -0.5050505E-02 -0.7464129E-16  0.0000000E+00 -0.1588266E-09
 -0.5050299E-02  0.0000000E+00 -0.5050505E-02 -0.1269576E-15  0.0000000E+00 -0.1588267E-09
 -0.5050178E-02  0.0000000E+00 -0.5050505E-02 -0.1867296E-15  0.0000000E+00 -0.1588268E-09
 -0.5050018E-02  0.0000000E+00 -0.5050505E-02 -0.1868560E-15  0.0000000E+00 -0.1588269E-09
 -0.5049710E-02  0.0000000E+00 -0.5050505E-02 -0.3958685E-15  0.0000000E+00 -0.1588270E-09
 -0.5049253E-02  0.0000000E+00 -0.5050505E-02 -0.1791475E-15  0.0000000E+00 -0.1588273E-09
 -0.5048636E-02  0.0000000E+00 -0.5050505E-02 -0.3960370E-15  0.0000000E+00 -0.1588275E-09
 -0.5047442E-02  0.0000000E+00 -0.5050505E-02 -0.5229103E-15  0.0000000E+00 -0.1588277E-09
 -0.5045727E-02  0.0000000E+00 -0.5050505E-02 -0.5826402E-15  0.0000000E+00 -0.1588281E-09
 -0.5043261E-02  0.0000000E+00 -0.5050505E-02 -0.7320070E-15  0.0000000E+00 -0.1588285E-09
 -0.5038714E-02  0.0000000E+00 -0.5050505E-02 -0.1053318E-14  0.0000000E+00 -0.1588291E-09
 -0.5032318E-02  0.0000000E+00 -0.5050505E-02 -0.1404242E-14  0.0000000E+00 -0.1588299E-09
 -0.5022454E-02  0.0000000E+00 -0.5050505E-02 -0.1613465E-14  0.0000000E+00 -0.1588309E-09
 -0.5012589E-02  0.0000000E+00 -0.5050505E-02 -0.2345641E-14  0.0000000E+00 -0.1588322E-09
 -0.5002725E-02  0.0000000E+00 -0.5050505E-02 -0.2823606E-14  0.0000000E+00 -0.1588338E-09
 -0.4992860E-02  0.0000000E+00 -0.5050505E-02 -0.3630465E-14  0.0000000E+00 -0.1588359E-09
 -0.4976523E-02  0.0000000E+00 -0.5050505E-02 -0.4653708E-14  0.0000000E+00 -0.1588386E-09
 -0.4956794E-02  0.0000000E+00 -0.5050505E-02 -0.5796537E-14  0.0000000E+00 -0.1588420E-09
 -0.4937066E-02  0.0000000E+00 -0.5050505E-02 -0.7081446E-14  0.0000000E+00 -0.1588463E-09
 -0.4906239E-02  0.0000000E+00 -0.5050505E-02 -0.8859484E-14  0.0000000E+00 -0.1588514E-09
 -0.4866782E-02  0.0000000E+00 -0.5050505E-02 -0.1099586E-13  0.0000000E+00 -0.1588577E-09
 -0.4827325E-02  0.0000000E+00 -0.5050505E-02 -0.1367014E-13  0.0000000E+00 -0.1588656E-09
 -0.4769372E-02  0.0000000E+00 -0.5050505E-02 -0.1725579E-13  0.0000000E+00 -0.1588755E-09
 -0.4690458E-02  0.0000000E+00 -0.5050505E-02 -0.2203675E-13  0.0000000E+00 -0.1588880E-09
 -0.4611543E-02  0.0000000E+00 -0.5050505E-02 -0.2867026E-13  0.0000000E+00 -0.1589040E-09
 -0.4503035E-02  0.0000000E+00 -0.5050505E-02 -0.3781390E-13  0.0000000E+00 -0.1589249E-09
 -0.4345206E-02  0.0000000E+00 -0.5050505E-02 -0.5084222E-13  0.0000000E+00 -0.1589526E-09
 -0.4187378E-02  0.0000000E+00 -0.5050505E-02 -0.6964543E-13  0.0000000E+00 -0.1589898E-09
 -0.3985156E-02  0.0000000E+00 -0.5050505E-02 -0.9697312E-13  0.0000000E+00 -0.1590405E-09
 -0.3669499E-02  0.0000000E+00 -0.5050505E-02 -0.1372865E-12  0.0000000E+00 -0.1591102E-09
 -0.3353842E-02  0.0000000E+00 -0.5050505E-02 -0.1985597E-12  0.0000000E+00 -0.1592064E-09
 -0.2978990E-02  0.0000000E+00 -0.5050505E-02 -0.2964140E-12  0.0000000E+00 -0.1593399E-09
 -0.2347676E-02  0.0000000E+00 -0.5050505E-02 -0.4637863E-12  0.0000000E+00 -0.1595252E-09
 -0.1716362E-02  0.0000000E+00 -0.5050505E-02 -0.7737465E-12  0.0000000E+00 -0.1597764E-09
 -0.1025842E-02  0.0000000E+00 -0.5050505E-02 -0.1393832E-11  0.0000000E+00 -0.1600714E-09
  0.2367855E-03  0.0000000E+00 -0.5050505E-02 -0.2732381E-11  0.0000000E+00 -0.1601633E-09
  0.1499413E-02  0.0000000E+00 -0.5050505E-02 -0.5856109E-11  0.0000000E+00 -0.1587016E-09
  0.5287294E-02  0.0000000E+00 -0.5050505E-02 -0.1369103E-10  0.0000000E+00 -0.1491989E-09
 -0.5050505E-02  0.0000000E+00 -0.5050505E-02  0.3563977E-13  0.0000000E+00 -0.1591858E-09
 -0.5050505E-02  0.0000000E+00 -0.5050505E-02  0.4726927E-13  0.0000000E+00 -0.1591950E-09
 -0.5050505E-02  0.0000000E+00 -0.5050505E-02  0.2869611E-13  0.0000000E+00 -0.1591912E-09
 -0.5050505E-02  0.0000000E+00 -0.5050505E-02  0.3195306E-13  0.0000000E+00 -0.1591924E-09
 -0.5050505E-02  0.0000000E+00 -0.5050505E-02  0.6145830E-13  0.0000000E+00 -0.1591953E-09
 -0.5050505E-02  0.0000000E+00 -0.5050505E-02  0.4757218E-13  0.0000000E+00 -0.1591871E-09
 -0.5050504E-02  0.0000000E+00 -0.5050505E-02  0.3074837E-13  0.0000000E+00 -0.1591774E-09
 -0.5050501E-02  0.0000000E+00 -0.5050505E-02  0.1688408E-13  0.0000000E+00 -0.1591713E-09
 -0.5050495E-02  0.0000000E+00 -0.5050505E-02 -0.3453843E-14  0.0000000E+00 -0.1591671E-09
 -0.5050482E-02  0.0000000E+00 -0.5050505E-02 -0.1372305E-13  0.0000000E+00 -0.1591662E-09
 -0.5050449E-02  0.0000000E+00 -0.5050505E-02 -0.1028742E-13  0.0000000E+00 -0.1591676E-09
 -0.5050376E-02  0.0000000E+00 -0.5050505E-02 -0.6927950E-15  0.0000000E+00 -0.1591679E-09
 -0.5050299E-02  0.0000000E+00 -0.5050505E-02  0.8396261E-14  0.0000000E+00 -0.1591657E-09
 -0.5050178E-02  0.0000000E+00 -0.5050505E-02  0.1391866E-13  0.0000000E+00 -0.1591615E-09
 -0.5050018E-02  0.0000000E+00 -0.5050505E-02  0.1526434E-13  0.0000000E+00 -0.1591567E-09
 -0.5049710E-02  0.0000000E+00 -0.5050505E-02  0.1348083E-13  0.0000000E+00 -0.1591522E-09
 -0.5049253E-02  0.0000000E+00 -0.5050505E-02  0.1015121E-13  0.0000000E+00 -0.1591485E-09
 -0.5048636E-02  0.0000000E+00 -0.5050505E-02  0.6725000E-14  0.0000000E+00 -0.1591456E-09
 -0.5047442E-02  0.0000000E+00 -0.5050505E-02  0.4235033E-14  0.0000000E+00 -0.1591433E-09
 -0.5045727E-02  0.0000000E+00 -0.5050505E-02  0.2280371E-14  0.0000000E+00 -0.1591416E-09
 -0.5043261E-02  0.0000000E+00 -0.5050505E-02  0.1233047E-14  0.0000000E+00 -0.1591404E-09
 -0.5038714E-02  0.0000000E+00 -0.5050505E-02  0.1225759E-14  0.0000000E+00 -0.1591397E-09
 -0.5032318E-02  0.0000000E+00 -0.5050505E-02  0.1032621E-14  0.0000000E+00 -0.1591391E-09
 -0.5022454E-02  0.0000000E+00 -0.5050505E-02  0.1404403E-14  0.0000000E+00 -0.1591385E-09
 -0.5012589E-02  0.0000000E+00 -0.5050505E-02  0.1656852E-14  0.0000000E+00 -0.1591378E-09
 -0.5002725E-02  0.0000000E+00 -0.5050505E-02  0.1582796E-14  0.0000000E+00 -0.1591371E-09
 -0.4992860E-02  0.0000000E+00 -0.5050505E-02  0.1679386E-14  0.0000000E+00 -0.1591365E-09
 -0.4976523E-02  0.0000000E+00 -0.5050505E-02  0.1255749E-14  0.0000000E+00 -0.1591360E-09
 -0.4956794E-02  0.0000000E+00 -0.5050505E-02  0.1114969E-14  0.0000000E+00 -0.1591356E-09
 -0.4937066E-02  0.0000000E+00 -0.5050505E-02  0.1099806E-14  0.0000000E+00 -0.1591353E-09
 -0.4906239E-02  0.0000000E+00 -0.5050505E-02  0.5348454E-15  0.0000000E+00 -0.1591350E-09
 -0.4866782E-02  0.0000000E+00 -0.5050505E-02  0.5647937E-15  0.0000000E+00 -0.1591347E-09
 -0.4827325E-02  0.0000000E+00 -0.5050505E-02  0.2897689E-15  0.0000000E+00 -0.1591346E-09
 -0.4769372E-02  0.0000000E+00 -0.5050505E-02  0.3716562E-15  0.0000000E+00 -0.1591345E-09
 -0.4690458E-02  0.0000000E+00 -0.5050505E-02  0.1560262E-15  0.0000000E+00 -0.1591344E-09
 -0.4611543E-02  0.0000000E+00 -0.5050505E-02  0.1262870E-15  0.0000000E+00 -0.1591343E-09
 -0.4503035E-02  0.0000000E+00 -0.5050505E-02 -0.4460878E-16  0.0000000E+00 -0.1591343E-09
 -0.4345206E-02  0.0000000E+00 -0.5050505E-02  0.0000000E+00  0.0000000E+00 -0.1591343E-09
 -0.4187378E-02  0.0000000E+00 -0.5050505E-02 -0.5206448E-16  0.0000000E+00 -0.1591343E-09
 -0.3985156E-02  0.0000000E+00 -0.5050505E-02 -0.5956200E-16  0.0000000E+00 -0.1591343E-09
 -0.3669499E-02  0.0000000E+00 -0.5050505E-02 -0.3711126E-16  0.0000000E+00 -0.1591343E-09
 -0.3353842E-02  0.0000000E+00 -0.5050505E-02  0.3719489E-16  0.0000000E+00 -0.1591343E-09
 -0.2978990E-02  0.0000000E+00 -0.5050505E-02  0.8180367E-16  0.0000000E+00 -0.1591343E-09
 -0.2347676E-02  0.0000000E+00 -0.5050505E-02 -0.8180367E-16  0.0000000E+00 -0.1591343E-09
 -0.1716362E-02  0.0000000E+00 -0.5050505E-02  0.7455703E-17  0.0000000E+00 -0.1591343E-09
 -0.1025842E-02  0.0000000E+00 -0.5050505E-02 -0.7455703E-17  0.0000000E+00 -0.1591343E-09
  0.2367855E-03  0.0000000E+00 -0.5050505E-02  0.6693408E-16  0.0000000E+00 -0.1591343E-09
  0.1499413E-02  0.0000000E+00 -0.5050505E-02  0.2969737E-16  0.0000000E+00 -0.1591343E-09
  0.2762042E-02  0.0000000E+00 -0.5050505E-02  0.3715308E-16  0.0000000E+00 -0.1591343E-09
 -0.5050505E-02  0.0000000E+00 -0.5050505E-02  0.1486959E-16  0.0000000E+00 -0.1591343E-09
 -0.5050505E-02  0.0000000E+00 -0.5050505E-02 -0.3715308E-16  0.0000000E+00 -0.1591343E-09
 -0.5050505E-02  0.0000000E+00 -0.5050505E-02  0.8180367E-16  0.0000000E+00 -0.1591343E-09
 -0.5050505E-02  0.0000000E+00 -0.5050505E-02  0.2965556E-16  0.0000000E+00 -0.1591343E-09
 -0.5050505E-02  0.0000000E+00 -0.5050505E-02 -0.1189149E-15  0.0000000E+00 -0.1591342E-09
 -0.5050505E-02  0.0000000E+00 -0.5050505E-02 -0.3711126E-16  0.0000000E+00 -0.1591343E-09
 -0.5050505E-02  0.0000000E+00 -0.5050505E-02 -0.4456697E-16  0.0000000E+00 -0.1591343E-09
 -0.5050504E-02  0.0000000E+00 -0.5050505E-02 -0.1491141E-16  0.0000000E+00 -0.1591343E-09
 -0.5050501E-02  0.0000000E+00 -0.5050505E-02 -0.1189567E-15  0.0000000E+00 -0.1591343E-09
 -0.5050495E-02  0.0000000E+00 -0.5050505E-02 -0.5939475E-16  0.0000000E+00 -0.1591343E-09
 -0.5050482E-02  0.0000000E+00 -0.5050505E-02  0.3715308E-16  0.0000000E+00 -0.1591344E-09
 -0.5050449E-02  0.0000000E+00 -0.5050505E-02 -0.5952019E-16  0.0000000E+00 -0.1591343E-09
 -0.5050376E-02  0.0000000E+00 -0.5050505E-02 -0.1560262E-15  0.0000000E+00 -0.1591344E-09
 -0.5050299E-02  0.0000000E+00 -0.5050505E-02 -0.2525740E-15  0.0000000E+00 -0.1591345E-09
 -0.5050178E-02  0.0000000E+00 -0.5050505E-02 -0.3417498E-15  0.0000000E+00 -0.1591346E-09
 -0.5050018E-02  0.0000000E+00 -0.5050505E-02 -0.2378299E-15  0.0000000E+00 -0.1591348E-09
 -0.5049710E-02  0.0000000E+00 -0.5050505E-02 -0.5872026E-15  0.0000000E+00 -0.1591348E-09
 -0.5049253E-02  0.0000000E+00 -0.5050505E-02 -0.4233862E-15  0.0000000E+00 -0.1591350E-09
 -0.5048636E-02  0.0000000E+00 -0.5050505E-02 -0.5870354E-15  0.0000000E+00 -0.1591353E-09
 -0.5047442E-02  0.0000000E+00 -0.5050505E-02 -0.7952097E-15  0.0000000E+00 -0.1591355E-09
 -0.5045727E-02  0.0000000E+00 -0.5050505E-02 -0.9956356E-15  0.0000000E+00 -0.1591358E-09
 -0.5043261E-02  0.0000000E+00 -0.5050505E-02 -0.1203810E-14  0.0000000E+00 -0.1591363E-09
 -0.5038714E-02  0.0000000E+00 -0.5050505E-02 -0.1642317E-14  0.0000000E+00 -0.1591368E-09
 -0.5032318E-02  0.0000000E+00 -0.5050505E-02 -0.2340686E-14  0.0000000E+00 -0.1591375E-09
 -0.5022454E-02  0.0000000E+00 -0.5050505E-02 -0.2682435E-14  0.0000000E+00 -0.1591385E-09
 -0.5012589E-02  0.0000000E+00 -0.5050505E-02 -0.3730386E-14  0.0000000E+00 -0.1591397E-09
 -0.5002725E-02  0.0000000E+00 -0.5050505E-02 -0.4614521E-14  0.0000000E+00 -0.1591413E-09
 -0.4992860E-02  0.0000000E+00 -0.5050505E-02 -0.5796215E-14  0.0000000E+00 -0.1591432E-09
 -0.4976523E-02  0.0000000E+00 -0.5050505E-02 -0.7497926E-14  0.0000000E+00 -0.1591456E-09
 -0.4956794E-02  0.0000000E+00 -0.5050505E-02 -0.9466914E-14  0.0000000E+00 -0.1591487E-09
 -0.4937066E-02  0.0000000E+00 -0.5050505E-02 -0.1151042E-13  0.0000000E+00 -0.1591526E-09
 -0.4906239E-02  0.0000000E+00 -0.5050505E-02 -0.1419323E-13  0.0000000E+00 -0.1591573E-09
 -0.4866782E-02  0.0000000E+00 -0.5050505E-02 -0.1758932E-13  0.0000000E+00 -0.1591630E-09
 -0.4827325E-02  0.0000000E+00 -0.5050505E-02 -0.2181028E-13  0.0000000E+00 -0.1591700E-09
 -0.4769372E-02  0.0000000E+00 -0.5050505E-02 -0.2744322E-13  0.0000000E+00 -0.1591786E-09
 -0.4690458E-02  0.0000000E+00 -0.5050505E-02 -0.3487463E-13  0.0000000E+00 -0.1591894E-09
 -0.4611543E-02  0.0000000E+00 -0.5050505E-02 -0.4521914E-13  0.0000000E+00 -0.1592031E-09
 -0.4503035E-02  0.0000000E+00 -0.5050505E-02 -0.5935381E-13  0.0000000E+00 -0.1592206E-09
 -0.4345206E-02  0.0000000E+00 -0.5050505E-02 -0.7917420E-13  0.0000000E+00 -0.1592433E-09
 -0.4187378E-02  0.0000000E+00 -0.5050505E-02 -0.1072522E-12  0.0000000E+00 -0.1592727E-09
 -0.3985156E-02  0.0000000E+00 -0.5050505E-02 -0.1471041E-12  0.0000000E+00 -0.1593107E-09
 -0.3669499E-02  0.0000000E+00 -0.5050505E-02 -0.2038752E-12  0.0000000E+00 -0.1593590E-09
 -0.3353842E-02  0.0000000E+00 -0.5050505E-02 -0.2860211E-12  0.0000000E+00 -0.1594187E-09
 -0.2978990E-02  0.0000000E+00 -0.5050505E-02 -0.4085961E-12  0.0000000E+00 -0.1594876E-09
 -0.2347676E-02  0.0000000E+00 -0.5050505E-02 -0.5995891E-12  0.0000000E+00 -0.1595546E-09
 -0.1716362E-02  0.0000000E+00 -0.5050505E-02 -0.9121032E-12  0.0000000E+00 -0.1595845E-09
 -0.1025842E-02  0.0000000E+00 -0.5050505E-02 -0.1434960E-11  0.0000000E+00 -0.1594812E-09
  0.2367855E-03  0.0000000E+00 -0.5050505E-02 -0.2273002E-11  0.0000000E+00 -0.1589942E-09
  0.1499413E-02  0.0000000E+00 -0.5050505E-02 -0.3371406E-11  0.0000000E+00 -0.1575600E-09
  0.5287294E-02  0.0000000E+00 -0.5050505E-02 -0.3595531E-11  0.0000000E+00 -0.1545923E-09
 -0.5050505E-02  0.0000000E+00 -0.5050505E-02  0.8985721E-14  0.0000000E+00 -0.1594999E-09
 -0.5050505E-02  0.0000000E+00 -0.5050505E-02  0.3665591E-13  0.0000000E+00 -0.1595275E-09
 -0.5050505E-02  0.0000000E+00 -0.5050505E-02  0.3612592E-13  0.0000000E+00 -0.1595341E-09
 -0.5050505E-02  0.0000000E+00 -0.5050505E-02  0.2276091E-13  0.0000000E+00 -0.1595343E-09
 -0.5050505E-02  0.0000000E+00 -0.5050505E-02  0.5551382E-13  0.0000000E+00 -0.1595460E-09
 -0.5050505E-02  0.0000000E+00 -0.5050505E-02  0.5186059E-13  0.0000000E+00 -0.1595553E-09
 -0.5050504E-02  0.0000000E+00 -0.5050505E-02  0.3266638E-13  0.0000000E+00 -0.1595583E-09
 -0.5050501E-02  0.0000000E+00 -0.5050505E-02  0.2113990E-13  0.0000000E+00 -0.1595580E-09
 -0.5050495E-02  0.0000000E+00 -0.5050505E-02  0.2043963E-14  0.0000000E+00 -0.1595524E-09
 -0.5050482E-02  0.0000000E+00 -0.5050505E-02 -0.1145234E-13  0.0000000E+00 -0.1595456E-09
 -0.5050449E-02  0.0000000E+00 -0.5050505E-02 -0.1043348E-13  0.0000000E+00 -0.1595422E-09
 -0.5050376E-02  0.0000000E+00 -0.5050505E-02 -0.2659870E-15  0.0000000E+00 -0.1595416E-09
 -0.5050299E-02  0.0000000E+00 -0.5050505E-02  0.1062997E-13  0.0000000E+00 -0.1595412E-09
 -0.5050178E-02  0.0000000E+00 -0.5050505E-02  0.1740013E-13  0.0000000E+00 -0.1595395E-09
 -0.5050018E-02  0.0000000E+00 -0.5050505E-02  0.1912167E-13  0.0000000E+00 -0.1595368E-09
 -0.5049710E-02  0.0000000E+00 -0.5050505E-02  0.1716955E-13  0.0000000E+00 -0.1595336E-09
 -0.5049253E-02  0.0000000E+00 -0.5050505E-02  0.1328122E-13  0.0000000E+00 -0.1595304E-09
 -0.5048636E-02  0.0000000E+00 -0.5050505E-02  0.9127145E-14  0.0000000E+00 -0.1595277E-09
 -0.5047442E-02  0.0000000E+00 -0.5050505E-02  0.6163181E-14  0.0000000E+00 -0.1595255E-09
 -0.5045727E-02  0.0000000E+00 -0.5050505E-02  0.3945322E-14  0.0000000E+00 -0.1595236E-09
 -0.5043261E-02  0.0000000E+00 -0.5050505E-02  0.2238399E-14  0.0000000E+00 -0.1595221E-09
 -0.5038714E-02  0.0000000E+00 -0.5050505E-02  0.2061296E-14  0.0000000E+00 -0.1595210E-09
 -0.5032318E-02  0.0000000E+00 -0.5050505E-02  0.1728833E-14  0.0000000E+00 -0.1595201E-09
 -0.5022454E-02  0.0000000E+00 -0.5050505E-02  0.1936256E-14  0.0000000E+00 -0.1595194E-09
 -0.5012589E-02  0.0000000E+00 -0.5050505E-02  0.2342774E-14  0.0000000E+00 -0.1595188E-09
 -0.5002725E-02  0.0000000E+00 -0.5050505E-02  0.2135850E-14  0.0000000E+00 -0.1595183E-09
 -0.4992860E-02  0.0000000E+00 -0.5050505E-02  0.2239395E-14  0.0000000E+00 -0.1595177E-09
 -0.4976523E-02  0.0000000E+00 -0.5050505E-02  0.1788351E-14  0.0000000E+00 -0.1595172E-09
 -0.4956794E-02  0.0000000E+00 -0.5050505E-02  0.1300902E-14  0.0000000E+00 -0.1595168E-09
 -0.4937066E-02  0.0000000E+00 -0.5050505E-02  0.1360130E-14  0.0000000E+00 -0.1595166E-09