title = "dataset feddes"
variables = "x", "y", "z", "vx", "vy", "vz"
zone t = "velocities, solution time =  5.100E+01 days        " i =   99, j =   99, k =    1,  f=point
 -0.5050505E-02  0.0000000E+00 -0.5050505E-02  0.4163457E-09  0.0000000E+00  0.3171113E-05
 -0.5050505E-02  0.0000000E+00 -0.5050505E-02  0.1247488E-08  0.0000000E+00  0.3172787E-05
 -0.5050505E-02  0.0000000E+00 -0.5050505E-02  0.2073864E-08  0.0000000E+00  0.3176127E-05
 -0.5050505E-02  0.0000000E+00 -0.5050505E-02  0.2892300E-08  0.0000000E+00  0.3181122E-05
 -0.5050505E-02  0.0000000E+00 -0.5050505E-02  0.3699657E-08  0.0000000E+00  0.3187752E-05
 -0.5050505E-02  0.0000000E+00 -0.5050505E-02  0.4492822E-08  0.0000000E+00  0.3195992E-05
 -0.5050504E-02  0.0000000E+00 -0.5050505E-02  0.5268725E-08  0.0000000E+00  0.3205809E-05
 -0.5050501E-02  0.0000000E+00 -0.5050505E-02  0.6024342E-08  0.0000000E+00  0.3217168E-05
 -0.5050495E-02  0.0000000E+00 -0.5050505E-02  0.6756707E-08  0.0000000E+00  0.3230022E-05
 -0.5050482E-02  0.0000000E+00 -0.5050505E-02  0.7462923E-08  0.0000000E+00  0.3244324E-05
 -0.5050449E-02  0.0000000E+00 -0.5050505E-02  0.8140169E-08  0.0000000E+00  0.3260017E-05
 -0.5050376E-02  0.0000000E+00 -0.5050505E-02  0.8785712E-08  0.0000000E+00  0.3277041E-05
 -0.5050299E-02  0.0000000E+00 -0.5050505E-02  0.9396913E-08  0.0000000E+00  0.3295328E-05
 -0.5050178E-02  0.0000000E+00 -0.5050505E-02  0.9971240E-08  0.0000000E+00  0.3314808E-05
 -0.5050018E-02  0.0000000E+00 -0.5050505E-02  0.1050628E-07  0.0000000E+00  0.3335404E-05
 -0.5049710E-02  0.0000000E+00 -0.5050505E-02  0.1099974E-07  0.0000000E+00  0.3357034E-05
 -0.5049253E-02  0.0000000E+00 -0.5050505E-02  0.1144947E-07  0.0000000E+00  0.3379613E-05
 -0.5048636E-02  0.0000000E+00 -0.5050505E-02  0.1185346E-07  0.0000000E+00  0.3403050E-05
 -0.5047442E-02  0.0000000E+00 -0.5050505E-02  0.1220987E-07  0.0000000E+00  0.3427252E-05
 -0.5045727E-02  0.0000000E+00 -0.5050505E-02  0.1251700E-07  0.0000000E+00  0.3452122E-05
 -0.5043261E-02  0.0000000E+00 -0.5050505E-02  0.1277335E-07  0.0000000E+00  0.3477559E-05
 -0.5038714E-02  0.0000000E+00 -0.5050505E-02  0.1297760E-07  0.0000000E+00  0.3503458E-05
 -0.5032318E-02  0.0000000E+00 -0.5050505E-02  0.1312862E-07  0.0000000E+00  0.3529715E-05
 -0.5022454E-02  0.0000000E+00 -0.5050505E-02  0.1322548E-07  0.0000000E+00  0.3556222E-05
 -0.5012589E-02  0.0000000E+00 -0.5050505E-02  0.1326746E-07  0.0000000E+00  0.3582868E-05
 -0.5002725E-02  0.0000000E+00 -0.5050505E-02  0.1325407E-07  0.0000000E+00  0.3609542E-05
 -0.4992860E-02  0.0000000E+00 -0.5050505E-02  0.1318504E-07  0.0000000E+00  0.3636134E-05
 -0.4976523E-02  0.0000000E+00 -0.5050505E-02  0.1306032E-07  0.0000000E+00  0.3662532E-05
 -0.4956794E-02  0.0000000E+00 -0.5050505E-02  0.1288010E-07  0.0000000E+00  0.3688622E-05
 -0.4937066E-02  0.0000000E+00 -0.5050505E-02  0.1264482E-07  0.0000000E+00  0.3714294E-05
 -0.4906239E-02  0.0000000E+00 -0.5050505E-02  0.1235514E-07  0.0000000E+00  0.3739439E-05
 -0.4866782E-02  0.0000000E+00 -0.5050505E-02  0.1201199E-07  0.0000000E+00  0.3763947E-05
 -0.4827325E-02  0.0000000E+00 -0.5050505E-02  0.1161651E-07  0.0000000E+00  0.3787712E-05
 -0.4769372E-02  0.0000000E+00 -0.5050505E-02  0.1117012E-07  0.0000000E+00  0.3810631E-05
 -0.4690458E-02  0.0000000E+00 -0.5050505E-02  0.1067445E-07  0.0000000E+00  0.3832602E-05
 -0.4611543E-02  0.0000000E+00 -0.5050505E-02  0.1013137E-07  0.0000000E+00  0.3853528E-05
 -0.4503035E-02  0.0000000E+00 -0.5050505E-02  0.9542979E-08  0.0000000E+00  0.3873316E-05
 -0.4345206E-02  0.0000000E+00 -0.5050505E-02  0.8911613E-08  0.0000000E+00  0.3891878E-05
 -0.4187378E-02  0.0000000E+00 -0.5050505E-02  0.8239805E-08  0.0000000E+00  0.3909128E-05
 -0.3985156E-02  0.0000000E+00 -0.5050505E-02  0.7530296E-08  0.0000000E+00  0.3924990E-05
 -0.3669499E-02  0.0000000E+00 -0.5050505E-02  0.6786017E-08  0.0000000E+00  0.3939389E-05
 -0.3353842E-02  0.0000000E+00 -0.5050505E-02  0.6010079E-08  0.0000000E+00  0.3952259E-05
 -0.2978990E-02  0.0000000E+00 -0.5050505E-02  0.5205755E-08  0.0000000E+00  0.3963540E-05
 -0.2347676E-02  0.0000000E+00 -0.5050505E-02  0.4376469E-08  0.0000000E+00  0.3973178E-05
 -0.1716362E-02  0.0000000E+00 -0.5050505E-02  0.3525771E-08  0.0000000E+00  0.3981126E-05
 -0.1025842E-02  0.0000000E+00 -0.5050505E-02  0.2657330E-08  0.0000000E+00  0.3987345E-05
  0.2367855E-03  0.0000000E+00 -0.5050505E-02  0.1774905E-08  0.0000000E+00  0.3991803E-05
  0.1499413E-02  0.0000000E+00 -0.5050505E-02  0.8823318E-09  0.0000000E+00  0.3994475E-05
  0.2762042E-02  0.0000000E+00 -0.5050505E-02 -0.1649868E-10  0.0000000E+00  0.3995346E-05
 -0.5050505E-02  0.0000000E+00 -0.5050505E-02 -0.9176629E-09  0.0000000E+00  0.3994406E-05
 -0.5050505E-02  0.0000000E+00 -0.5050505E-02 -0.1817227E-08  0.0000000E+00  0.3991656E-05
 -0.5050505E-02  0.0000000E+00 -0.5050505E-02 -0.2711258E-08  0.0000000E+00  0.3987101E-05
 -0.5050505E-02  0.0000000E+00 -0.5050505E-02 -0.3595857E-08  0.0000000E+00  0.3980757E-05
 -0.5050505E-02  0.0000000E+00 -0.5050505E-02 -0.4467172E-08  0.0000000E+00  0.3972648E-05
 -0.5050505E-02  0.0000000E+00 -0.5050505E-02 -0.5321421E-08  0.0000000E+00  0.3962802E-05
 -0.5050505E-02  0.0000000E+00 -0.5050505E-02 -0.6154913E-08  0.0000000E+00  0.3951260E-05
 -0.5050504E-02  0.0000000E+00 -0.5050505E-02 -0.6964062E-08  0.0000000E+00  0.3938065E-05
 -0.5050501E-02  0.0000000E+00 -0.5050505E-02 -0.7745410E-08  0.0000000E+00  0.3923270E-05
 -0.5050495E-02  0.0000000E+00 -0.5050505E-02 -0.8495641E-08  0.0000000E+00  0.3906935E-05
 -0.5050482E-02  0.0000000E+00 -0.5050505E-02 -0.9211596E-08  0.0000000E+00  0.3889125E-05
 -0.5050449E-02  0.0000000E+00 -0.5050505E-02 -0.9890291E-08  0.0000000E+00  0.3869913E-05
 -0.5050376E-02  0.0000000E+00 -0.5050505E-02 -0.1052892E-07  0.0000000E+00  0.3849375E-05
 -0.5050299E-02  0.0000000E+00 -0.5050505E-02 -0.1112490E-07  0.0000000E+00  0.3827596E-05
 -0.5050178E-02  0.0000000E+00 -0.5050505E-02 -0.1167581E-07  0.0000000E+00  0.3804663E-05
 -0.5050018E-02  0.0000000E+00 -0.5050505E-02 -0.1217948E-07  0.0000000E+00  0.3780670E-05
 -0.5049710E-02  0.0000000E+00 -0.5050505E-02 -0.1263396E-07  0.0000000E+00  0.3755713E-05
 -0.5049253E-02  0.0000000E+00 -0.5050505E-02 -0.1303752E-07  0.0000000E+00  0.3729893E-05
 -0.5048636E-02  0.0000000E+00 -0.5050505E-02 -0.1338865E-07  0.0000000E+00  0.3703314E-05
 -0.5047442E-02  0.0000000E+00 -0.5050505E-02 -0.1368609E-07  0.0000000E+00  0.3676083E-05
 -0.5045727E-02  0.0000000E+00 -0.5050505E-02 -0.1392881E-07  0.0000000E+00  0.3648308E-05
 -0.5043261E-02  0.0000000E+00 -0.5050505E-02 -0.1411601E-07  0.0000000E+00  0.3620101E-05
 -0.5038714E-02  0.0000000E+00 -0.5050505E-02 -0.1424711E-07  0.0000000E+00  0.3591574E-05
 -0.5032318E-02  0.0000000E+00 -0.5050505E-02 -0.1432176E-07  0.0000000E+00  0.3562840E-05
 -0.5022454E-02  0.0000000E+00 -0.5050505E-02 -0.1433982E-07  0.0000000E+00  0.3534013E-05
 -0.5012589E-02  0.0000000E+00 -0.5050505E-02 -0.1430137E-07  0.0000000E+00  0.3505206E-05
 -0.5002725E-02  0.0000000E+00 -0.5050505E-02 -0.1420666E-07  0.0000000E+00  0.3476534E-05
 -0.4992860E-02  0.0000000E+00 -0.5050505E-02 -0.1405612E-07  0.0000000E+00  0.3448108E-05
 -0.4976523E-02  0.0000000E+00 -0.5050505E-02 -0.1385035E-07  0.0000000E+00  0.3420040E-05
 -0.4956794E-02  0.0000000E+00 -0.5050505E-02 -0.1359007E-07  0.0000000E+00  0.3392441E-05
 -0.4937066E-02  0.0000000E+00 -0.5050505E-02 -0.1327608E-07  0.0000000E+00  0.3365420E-05
 -0.4906239E-02  0.0000000E+00 -0.5050505E-02 -0.1290924E-07  0.0000000E+00  0.3339084E-05
 -0.4866782E-02  0.0000000E+00 -0.5050505E-02 -0.1249037E-07  0.0000000E+00  0.3313537E-05
 -0.4827325E-02  0.0000000E+00 -0.5050505E-02 -0.1202018E-07  0.0000000E+00  0.3288886E-05
 -0.4769372E-02  0.0000000E+00 -0.5050505E-02 -0.1149909E-07  0.0000000E+00  0.3265231E-05
 -0.4690458E-02  0.0000000E+00 -0.5050505E-02 -0.1092702E-07  0.0000000E+00  0.3242675E-05
 -0.4611543E-02  0.0000000E+00 -0.5050505E-02 -0.1030301E-07  0.0000000E+00  0.3221323E-05
 -0.4503035E-02  0.0000000E+00 -0.5050505E-02 -0.9624624E-08  0.0000000E+00  0.3201280E-05
 -0.4345206E-02  0.0000000E+00 -0.5050505E-02 -0.8886825E-08  0.0000000E+00  0.3182662E-05
 -0.4187378E-02  0.0000000E+00 -0.5050505E-02 -0.8080069E-08  0.0000000E+00  0.3165597E-05
 -0.3985156E-02  0.0000000E+00 -0.5050505E-02 -0.7186561E-08  0.0000000E+00  0.3150242E-05
 -0.3669499E-02  0.0000000E+00 -0.5050505E-02 -0.6172728E-08  0.0000000E+00  0.3136806E-05
 -0.3353842E-02  0.0000000E+00 -0.5050505E-02 -0.4972995E-08  0.0000000E+00  0.3125596E-05
 -0.2978990E-02  0.0000000E+00 -0.5050505E-02 -0.3452098E-08  0.0000000E+00  0.3117123E-05
 -0.2347676E-02  0.0000000E+00 -0.5050505E-02 -0.1309953E-08  0.0000000E+00  0.3112333E-05
 -0.1716362E-02  0.0000000E+00 -0.5050505E-02  0.2181165E-08  0.0000000E+00  0.3113209E-05
 -0.1025842E-02  0.0000000E+00 -0.5050505E-02  0.8973608E-08  0.0000000E+00  0.3124428E-05
  0.2367855E-03  0.0000000E+00 -0.5050505E-02  0.2489062E-07  0.0000000E+00  0.3158488E-05
  0.1499413E-02  0.0000000E+00 -0.5050505E-02  0.6917585E-07  0.0000000E+00  0.3253097E-05
  0.5287294E-02  0.0000000E+00 -0.5050505E-02  0.1148051E-05  0.0000000E+00  0.2598881E-05
 -0.5050505E-02  0.0000000E+00 -0.5050505E-02  0.1249144E-08  0.0000000E+00  0.3176510E-05
 -0.5050505E-02  0.0000000E+00 -0.5050505E-02  0.3742762E-08  0.0000000E+00  0.3178193E-05
 -0.5050505E-02  0.0000000E+00 -0.5050505E-02  0.6222087E-08  0.0000000E+00  0.3181553E-05
 -0.5050505E-02  0.0000000E+00 -0.5050505E-02  0.8677600E-08  0.0000000E+00  0.3186577E-05
 -0.5050505E-02  0.0000000E+00 -0.5050505E-02  0.1109988E-07  0.0000000E+00  0.3193246E-05
 -0.5050505E-02  0.0000000E+00 -0.5050505E-02  0.1347961E-07  0.0000000E+00  0.3201534E-05
 -0.5050504E-02  0.0000000E+00 -0.5050505E-02  0.1580755E-07  0.0000000E+00  0.3211409E-05
 -0.5050501E-02  0.0000000E+00 -0.5050505E-02  0.1807466E-07  0.0000000E+00  0.3222834E-05
 -0.5050495E-02  0.0000000E+00 -0.5050505E-02  0.2027202E-07  0.0000000E+00  0.3235764E-05
 -0.5050482E-02  0.0000000E+00 -0.5050505E-02  0.2239095E-07  0.0000000E+00  0.3250150E-05
 -0.5050449E-02  0.0000000E+00 -0.5050505E-02  0.2442300E-07  0.0000000E+00  0.3265936E-05
 -0.5050376E-02  0.0000000E+00 -0.5050505E-02  0.2635994E-07  0.0000000E+00  0.3283060E-05
 -0.5050299E-02  0.0000000E+00 -0.5050505E-02  0.2819388E-07  0.0000000E+00  0.3301456E-05
 -0.5050178E-02  0.0000000E+00 -0.5050505E-02  0.2991721E-07  0.0000000E+00  0.3321052E-05
 -0.5050018E-02  0.0000000E+00 -0.5050505E-02  0.3152269E-07  0.0000000E+00  0.3341771E-05
 -0.5049710E-02  0.0000000E+00 -0.5050505E-02  0.3300345E-07  0.0000000E+00  0.3363530E-05
 -0.5049253E-02  0.0000000E+00 -0.5050505E-02  0.3435303E-07  0.0000000E+00  0.3386245E-05
 -0.5048636E-02  0.0000000E+00 -0.5050505E-02  0.3556540E-07  0.0000000E+00  0.3409823E-05
 -0.5047442E-02  0.0000000E+00 -0.5050505E-02  0.3663502E-07  0.0000000E+00  0.3434172E-05
 -0.5045727E-02  0.0000000E+00 -0.5050505E-02  0.3755681E-07  0.0000000E+00  0.3459192E-05
 -0.5043261E-02  0.0000000E+00 -0.5050505E-02  0.3832627E-07  0.0000000E+00  0.3484783E-05
 -0.5038714E-02  0.0000000E+00 -0.5050505E-02  0.3893940E-07  0.0000000E+00  0.3510841E-05
 -0.5032318E-02  0.0000000E+00 -0.5050505E-02  0.3939283E-07  0.0000000E+00  0.3537259E-05
 -0.5022454E-02  0.0000000E+00 -0.5050505E-02  0.3968377E-07  0.0000000E+00  0.3563928E-05
 -0.5012589E-02  0.0000000E+00 -0.5050505E-02  0.3981006E-07  0.0000000E+00  0.3590739E-05
 -0.5002725E-02  0.0000000E+00 -0.5050505E-02  0.3977021E-07  0.0000000E+00  0.3617579E-05
 -0.4992860E-02  0.0000000E+00 -0.5050505E-02  0.3956339E-07  0.0000000E+00  0.3644336E-05
 -0.4976523E-02  0.0000000E+00 -0.5050505E-02  0.3918947E-07  0.0000000E+00  0.3670898E-05
 -0.4956794E-02  0.0000000E+00 -0.5050505E-02  0.3864902E-07  0.0000000E+00  0.3697152E-05
 -0.4937066E-02  0.0000000E+00 -0.5050505E-02  0.3794333E-07  0.0000000E+00  0.3722987E-05
 -0.4906239E-02  0.0000000E+00 -0.5050505E-02  0.3707442E-07  0.0000000E+00  0.3748290E-05
 -0.4866782E-02  0.0000000E+00 -0.5050505E-02  0.3604502E-07  0.0000000E+00  0.3772954E-05
 -0.4827325E-02  0.0000000E+00 -0.5050505E-02  0.3485861E-07  0.0000000E+00  0.3796871E-05
 -0.4769372E-02  0.0000000E+00 -0.5050505E-02  0.3351939E-07  0.0000000E+00  0.3819936E-05
 -0.4690458E-02  0.0000000E+00 -0.5050505E-02  0.3203226E-07  0.0000000E+00  0.3842048E-05
 -0.4611543E-02  0.0000000E+00 -0.5050505E-02  0.3040286E-07  0.0000000E+00  0.3863109E-05
 -0.4503035E-02  0.0000000E+00 -0.5050505E-02  0.2863748E-07  0.0000000E+00  0.3883026E-05
 -0.4345206E-02  0.0000000E+00 -0.5050505E-02  0.2674310E-07  0.0000000E+00  0.3901708E-05
 -0.4187378E-02  0.0000000E+00 -0.5050505E-02  0.2472734E-07  0.0000000E+00  0.3919072E-05
 -0.3985156E-02  0.0000000E+00 -0.5050505E-02  0.2259842E-07  0.0000000E+00  0.3935038E-05
 -0.3669499E-02  0.0000000E+00 -0.5050505E-02  0.2036514E-07  0.0000000E+00  0.3949533E-05
 -0.3353842E-02  0.0000000E+00 -0.5050505E-02  0.1803683E-07  0.0000000E+00  0.3962489E-05
 -0.2978990E-02  0.0000000E+00 -0.5050505E-02  0.1562332E-07  0.0000000E+00  0.3973846E-05
 -0.2347676E-02  0.0000000E+00 -0.5050505E-02  0.1313488E-07  0.0000000E+00  0.3983549E-05
 -0.1716362E-02  0.0000000E+00 -0.5050505E-02  0.1058217E-07  0.0000000E+00  0.3991552E-05
 -0.1025842E-02  0.0000000E+00 -0.5050505E-02  0.7976200E-08  0.0000000E+00  0.3997815E-05
  0.2367855E-03  0.0000000E+00 -0.5050505E-02  0.5328254E-08  0.0000000E+00  0.4002306E-05
  0.1499413E-02  0.0000000E+00 -0.5050505E-02  0.2649846E-08  0.0000000E+00  0.4005000E-05
  0.2762042E-02  0.0000000E+00 -0.5050505E-02 -0.4734588E-10  0.0000000E+00  0.4005880E-05
 -0.5050505E-02  0.0000000E+00 -0.5050505E-02 -0.2751543E-08  0.0000000E+00  0.4004939E-05
 -0.5050505E-02  0.0000000E+00 -0.5050505E-02 -0.5450936E-08  0.0000000E+00  0.4002175E-05
 -0.5050505E-02  0.0000000E+00 -0.5050505E-02 -0.8133724E-08  0.0000000E+00  0.3997596E-05
 -0.5050505E-02  0.0000000E+00 -0.5050505E-02 -0.1078820E-07  0.0000000E+00  0.3991216E-05
 -0.5050505E-02  0.0000000E+00 -0.5050505E-02 -0.1340280E-07  0.0000000E+00  0.3983059E-05
 -0.5050505E-02  0.0000000E+00 -0.5050505E-02 -0.1596617E-07  0.0000000E+00  0.3973155E-05
 -0.5050505E-02  0.0000000E+00 -0.5050505E-02 -0.1846724E-07  0.0000000E+00  0.3961543E-05
 -0.5050504E-02  0.0000000E+00 -0.5050505E-02 -0.2089525E-07  0.0000000E+00  0.3948269E-05
 -0.5050501E-02  0.0000000E+00 -0.5050505E-02 -0.2323980E-07  0.0000000E+00  0.3933384E-05
 -0.5050495E-02  0.0000000E+00 -0.5050505E-02 -0.2549096E-07  0.0000000E+00  0.3916950E-05
 -0.5050482E-02  0.0000000E+00 -0.5050505E-02 -0.2763925E-07  0.0000000E+00  0.3899032E-05
 -0.5050449E-02  0.0000000E+00 -0.5050505E-02 -0.2967569E-07  0.0000000E+00  0.3879702E-05
 -0.5050376E-02  0.0000000E+00 -0.5050505E-02 -0.3159191E-07  0.0000000E+00  0.3859040E-05
 -0.5050299E-02  0.0000000E+00 -0.5050505E-02 -0.3338008E-07  0.0000000E+00  0.3837128E-05
 -0.5050178E-02  0.0000000E+00 -0.5050505E-02 -0.3503302E-07  0.0000000E+00  0.3814055E-05
 -0.5050018E-02  0.0000000E+00 -0.5050505E-02 -0.3654420E-07  0.0000000E+00  0.3789916E-05
 -0.5049710E-02  0.0000000E+00 -0.5050505E-02 -0.3790773E-07  0.0000000E+00  0.3764808E-05
 -0.5049253E-02  0.0000000E+00 -0.5050505E-02 -0.3911845E-07  0.0000000E+00  0.3738831E-05
 -0.5048636E-02  0.0000000E+00 -0.5050505E-02 -0.4017185E-07  0.0000000E+00  0.3712091E-05
 -0.5047442E-02  0.0000000E+00 -0.5050505E-02 -0.4106414E-07  0.0000000E+00  0.3684695E-05
 -0.5045727E-02  0.0000000E+00 -0.5050505E-02 -0.4179223E-07  0.0000000E+00  0.3656753E-05
 -0.5043261E-02  0.0000000E+00 -0.5050505E-02 -0.4235372E-07  0.0000000E+00  0.3628377E-05
 -0.5038714E-02  0.0000000E+00 -0.5050505E-02 -0.4274690E-07  0.0000000E+00  0.3599678E-05
 -0.5032318E-02  0.0000000E+00 -0.5050505E-02 -0.4297072E-07  0.0000000E+00  0.3570772E-05
 -0.5022454E-02  0.0000000E+00 -0.5050505E-02 -0.4302478E-07  0.0000000E+00  0.3541772E-05
 -0.5012589E-02  0.0000000E+00 -0.5050505E-02 -0.4290929E-07  0.0000000E+00  0.3512794E-05
 -0.5002725E-02  0.0000000E+00 -0.5050505E-02 -0.4262506E-07  0.0000000E+00  0.3483950E-05
 -0.4992860E-02  0.0000000E+00 -0.5050505E-02 -0.4217340E-07  0.0000000E+00  0.3455354E-05
 -0.4976523E-02  0.0000000E+00 -0.5050505E-02 -0.4155611E-07  0.0000000E+00  0.3427119E-05
 -0.4956794E-02  0.0000000E+00 -0.5050505E-02 -0.4077537E-07  0.0000000E+00  0.3399355E-05
 -0.4937066E-02  0.0000000E+00 -0.5050505E-02 -0.3983367E-07  0.0000000E+00  0.3372172E-05
 -0.4906239E-02  0.0000000E+00 -0.5050505E-02 -0.3873363E-07  0.0000000E+00  0.3345676E-05
 -0.4866782E-02  0.0000000E+00 -0.5050505E-02 -0.3747781E-07  0.0000000E+00  0.3319974E-05
 -0.4827325E-02  0.0000000E+00 -0.5050505E-02 -0.3606847E-07  0.0000000E+00  0.3295169E-05
 -0.4769372E-02  0.0000000E+00 -0.5050505E-02 -0.3450712E-07  0.0000000E+00  0.3271364E-05
 -0.4690458E-02  0.0000000E+00 -0.5050505E-02 -0.3279388E-07  0.0000000E+00  0.3248659E-05
 -0.4611543E-02  0.0000000E+00 -0.5050505E-02 -0.3092652E-07  0.0000000E+00  0.3227156E-05
 -0.4503035E-02  0.0000000E+00 -0.5050505E-02 -0.2889874E-07  0.0000000E+00  0.3206959E-05
 -0.4345206E-02  0.0000000E+00 -0.5050505E-02 -0.2669744E-07  0.0000000E+00  0.3188174E-05
 -0.4187378E-02  0.0000000E+00 -0.5050505E-02 -0.2429771E-07  0.0000000E+00  0.3170919E-05
 -0.3985156E-02  0.0000000E+00 -0.5050505E-02 -0.2165370E-07  0.0000000E+00  0.3155326E-05
 -0.3669499E-02  0.0000000E+00 -0.5050505E-02 -0.1868096E-07  0.0000000E+00  0.3141556E-05
 -0.3353842E-02  0.0000000E+00 -0.5050505E-02 -0.1522043E-07  0.0000000E+00  0.3129816E-05
 -0.2978990E-02  0.0000000E+00 -0.5050505E-02 -0.1096139E-07  0.0000000E+00  0.3120383E-05
 -0.2347676E-02  0.0000000E+00 -0.5050505E-02 -0.5265897E-08  0.0000000E+00  0.3113614E-05
 -0.1716362E-02  0.0000000E+00 -0.5050505E-02  0.3254321E-08  0.0000000E+00  0.3109844E-05
 -0.1025842E-02  0.0000000E+00 -0.5050505E-02  0.1781859E-07  0.0000000E+00  0.3108663E-05
  0.2367855E-03  0.0000000E+00 -0.5050505E-02  0.4638207E-07  0.0000000E+00  0.3105306E-05
  0.1499413E-02  0.0000000E+00 -0.5050505E-02  0.1097670E-06  0.0000000E+00  0.3073670E-05
  0.5287294E-02  0.0000000E+00 -0.5050505E-02  0.2649637E-06  0.0000000E+00  0.2887466E-05
 -0.5050505E-02  0.0000000E+00 -0.5050505E-02  0.2084593E-08  0.0000000E+00  0.3187318E-05
 -0.5050505E-02  0.0000000E+00 -0.5050505E-02  0.6245955E-08  0.0000000E+00  0.3189021E-05
 -0.5050505E-02  0.0000000E+00 -0.5050505E-02  0.1038348E-07  0.0000000E+00  0.3192420E-05
 -0.5050505E-02  0.0000000E+00 -0.5050505E-02  0.1448131E-07  0.0000000E+00  0.3197502E-05
 -0.5050505E-02  0.0000000E+00 -0.5050505E-02  0.1852372E-07  0.0000000E+00  0.3204249E-05
 -0.5050505E-02  0.0000000E+00 -0.5050505E-02  0.2249514E-07  0.0000000E+00  0.3212634E-05
 -0.5050504E-02  0.0000000E+00 -0.5050505E-02  0.2638023E-07  0.0000000E+00  0.3222624E-05
 -0.5050501E-02  0.0000000E+00 -0.5050505E-02  0.3016384E-07  0.0000000E+00  0.3234183E-05
 -0.5050495E-02  0.0000000E+00 -0.5050505E-02  0.3383113E-07  0.0000000E+00  0.3247265E-05
 -0.5050482E-02  0.0000000E+00 -0.5050505E-02  0.3736762E-07  0.0000000E+00  0.3261819E-05
 -0.5050449E-02  0.0000000E+00 -0.5050505E-02  0.4075918E-07  0.0000000E+00  0.3277791E-05
 -0.5050376E-02  0.0000000E+00 -0.5050505E-02  0.4399213E-07  0.0000000E+00  0.3295117E-05
 -0.5050299E-02  0.0000000E+00 -0.5050505E-02  0.4705326E-07  0.0000000E+00  0.3313730E-05
 -0.5050178E-02  0.0000000E+00 -0.5050505E-02  0.4992989E-07  0.0000000E+00  0.3333558E-05
 -0.5050018E-02  0.0000000E+00 -0.5050505E-02  0.5260993E-07  0.0000000E+00  0.3354522E-05
 -0.5049710E-02  0.0000000E+00 -0.5050505E-02  0.5508190E-07  0.0000000E+00  0.3376541E-05
 -0.5049253E-02  0.0000000E+00 -0.5050505E-02  0.5733503E-07  0.0000000E+00  0.3399527E-05
 -0.5048636E-02  0.0000000E+00 -0.5050505E-02  0.5935924E-07  0.0000000E+00  0.3423388E-05
 -0.5047442E-02  0.0000000E+00 -0.5050505E-02  0.6114527E-07  0.0000000E+00  0.3448029E-05
 -0.5045727E-02  0.0000000E+00 -0.5050505E-02  0.6268467E-07  0.0000000E+00  0.3473351E-05
 -0.5043261E-02  0.0000000E+00 -0.5050505E-02  0.6396986E-07  0.0000000E+00  0.3499252E-05
 -0.5038714E-02  0.0000000E+00 -0.5050505E-02  0.6499420E-07  0.0000000E+00  0.3525627E-05
 -0.5032318E-02  0.0000000E+00 -0.5050505E-02  0.6575202E-07  0.0000000E+00  0.3552367E-05
 -0.5022454E-02  0.0000000E+00 -0.5050505E-02  0.6623867E-07  0.0000000E+00  0.3579363E-05
 -0.5012589E-02  0.0000000E+00 -0.5050505E-02  0.6645052E-07  0.0000000E+00  0.3606503E-05
 -0.5002725E-02  0.0000000E+00 -0.5050505E-02  0.6638507E-07  0.0000000E+00  0.3633674E-05
 -0.4992860E-02  0.0000000E+00 -0.5050505E-02  0.6604092E-07  0.0000000E+00  0.3660762E-05
 -0.4976523E-02  0.0000000E+00 -0.5050505E-02  0.6541784E-07  0.0000000E+00  0.3687655E-05
 -0.4956794E-02  0.0000000E+00 -0.5050505E-02  0.6451677E-07  0.0000000E+00  0.3714236E-05
 -0.4937066E-02  0.0000000E+00 -0.5050505E-02  0.6333984E-07  0.0000000E+00  0.3740394E-05
 -0.4906239E-02  0.0000000E+00 -0.5050505E-02  0.6189040E-07  0.0000000E+00  0.3766016E-05
 -0.4866782E-02  0.0000000E+00 -0.5050505E-02  0.6017302E-07  0.0000000E+00  0.3790992E-05
 -0.4827325E-02  0.0000000E+00 -0.5050505E-02  0.5819348E-07  0.0000000E+00  0.3815212E-05
 -0.4769372E-02  0.0000000E+00 -0.5050505E-02  0.5595877E-07  0.0000000E+00  0.3838571E-05
 -0.4690458E-02  0.0000000E+00 -0.5050505E-02  0.5347709E-07  0.0000000E+00  0.3860966E-05
 -0.4611543E-02  0.0000000E+00 -0.5050505E-02  0.5075781E-07  0.0000000E+00  0.3882298E-05
 -0.4503035E-02  0.0000000E+00 -0.5050505E-02  0.4781146E-07  0.0000000E+00  0.3902472E-05
 -0.4345206E-02  0.0000000E+00 -0.5050505E-02  0.4464967E-07  0.0000000E+00  0.3921396E-05
 -0.4187378E-02  0.0000000E+00 -0.5050505E-02  0.4128516E-07  0.0000000E+00  0.3938987E-05
 -0.3985156E-02  0.0000000E+00 -0.5050505E-02  0.3773165E-07  0.0000000E+00  0.3955162E-05
 -0.3669499E-02  0.0000000E+00 -0.5050505E-02  0.3400383E-07  0.0000000E+00  0.3969848E-05
 -0.3353842E-02  0.0000000E+00 -0.5050505E-02  0.3011729E-07  0.0000000E+00  0.3982976E-05
 -0.2978990E-02  0.0000000E+00 -0.5050505E-02  0.2608843E-07  0.0000000E+00  0.3994485E-05
 -0.2347676E-02  0.0000000E+00 -0.5050505E-02  0.2193441E-07  0.0000000E+00  0.4004320E-05
 -0.1716362E-02  0.0000000E+00 -0.5050505E-02  0.1767304E-07  0.0000000E+00  0.4012433E-05
 -0.1025842E-02  0.0000000E+00 -0.5050505E-02  0.1332270E-07  0.0000000E+00  0.4018784E-05
  0.2367855E-03  0.0000000E+00 -0.5050505E-02  0.8902236E-08  0.0000000E+00  0.4023340E-05
  0.1499413E-02  0.0000000E+00 -0.5050505E-02  0.4430888E-08  0.0000000E+00  0.4026077E-05
  0.2762042E-02  0.0000000E+00 -0.5050505E-02 -0.7184038E-10  0.0000000E+00  0.4026978E-05
 -0.5050505E-02  0.0000000E+00 -0.5050505E-02 -0.4586273E-08  0.0000000E+00  0.4026033E-05
 -0.5050505E-02  0.0000000E+00 -0.5050505E-02 -0.9092680E-08  0.0000000E+00  0.4023243E-05
 -0.5050505E-02  0.0000000E+00 -0.5050505E-02 -0.1357135E-07  0.0000000E+00  0.4018614E-05
 -0.5050505E-02  0.0000000E+00 -0.5050505E-02 -0.1800273E-07  0.0000000E+00  0.4012162E-05
 -0.5050505E-02  0.0000000E+00 -0.5050505E-02 -0.2236750E-07  0.0000000E+00  0.4003910E-05
 -0.5050505E-02  0.0000000E+00 -0.5050505E-02 -0.2664671E-07  0.0000000E+00  0.3993889E-05
 -0.5050505E-02  0.0000000E+00 -0.5050505E-02 -0.3082184E-07  0.0000000E+00  0.3982138E-05
 -0.5050504E-02  0.0000000E+00 -0.5050505E-02 -0.3487493E-07  0.0000000E+00  0.3968704E-05
 -0.5050501E-02  0.0000000E+00 -0.5050505E-02 -0.3878865E-07  0.0000000E+00  0.3953640E-05
 -0.5050495E-02  0.0000000E+00 -0.5050505E-02 -0.4254637E-07  0.0000000E+00  0.3937007E-05
 -0.5050482E-02  0.0000000E+00 -0.5050505E-02 -0.4613227E-07  0.0000000E+00  0.3918872E-05
 -0.5050449E-02  0.0000000E+00 -0.5050505E-02 -0.4953140E-07  0.0000000E+00  0.3899308E-05
 -0.5050376E-02  0.0000000E+00 -0.5050505E-02 -0.5272973E-07  0.0000000E+00  0.3878395E-05
 -0.5050299E-02  0.0000000E+00 -0.5050505E-02 -0.5571424E-07  0.0000000E+00  0.3856217E-05
 -0.5050178E-02  0.0000000E+00 -0.5050505E-02 -0.5847292E-07  0.0000000E+00  0.3832865E-05
 -0.5050018E-02  0.0000000E+00 -0.5050505E-02 -0.6099489E-07  0.0000000E+00  0.3808433E-05
 -0.5049710E-02  0.0000000E+00 -0.5050505E-02 -0.6327035E-07  0.0000000E+00  0.3783021E-05
 -0.5049253E-02  0.0000000E+00 -0.5050505E-02 -0.6529065E-07  0.0000000E+00  0.3756731E-05
 -0.5048636E-02  0.0000000E+00 -0.5050505E-02 -0.6704831E-07  0.0000000E+00  0.3729669E-05
 -0.5047442E-02  0.0000000E+00 -0.5050505E-02 -0.6853703E-07  0.0000000E+00  0.3701943E-05
 -0.5045727E-02  0.0000000E+00 -0.5050505E-02 -0.6975164E-07  0.0000000E+00  0.3673666E-05
 -0.5043261E-02  0.0000000E+00 -0.5050505E-02 -0.7068818E-07  0.0000000E+00  0.3644949E-05
 -0.5038714E-02  0.0000000E+00 -0.5050505E-02 -0.7134381E-07  0.0000000E+00  0.3615908E-05
 -0.5032318E-02  0.0000000E+00 -0.5050505E-02 -0.7171681E-07  0.0000000E+00  0.3586657E-05
 -0.5022454E-02  0.0000000E+00 -0.5050505E-02 -0.7180655E-07  0.0000000E+00  0.3557312E-05
 -0.5012589E-02  0.0000000E+00 -0.5050505E-02 -0.7161342E-07  0.0000000E+00  0.3527989E-05
 -0.5002725E-02  0.0000000E+00 -0.5050505E-02 -0.7113881E-07  0.0000000E+00  0.3498802E-05
 -0.4992860E-02  0.0000000E+00 -0.5050505E-02 -0.7038498E-07  0.0000000E+00  0.3469867E-05
 -0.4976523E-02  0.0000000E+00 -0.5050505E-02 -0.6935502E-07  0.0000000E+00  0.3441297E-05
 -0.4956794E-02  0.0000000E+00 -0.5050505E-02 -0.6805267E-07  0.0000000E+00  0.3413203E-05
 -0.4937066E-02  0.0000000E+00 -0.5050505E-02 -0.6648221E-07  0.0000000E+00  0.3385695E-05
 -0.4906239E-02  0.0000000E+00 -0.5050505E-02 -0.6464822E-07  0.0000000E+00  0.3358882E-05
 -0.4866782E-02  0.0000000E+00 -0.5050505E-02 -0.6255530E-07  0.0000000E+00  0.3332868E-05
 -0.4827325E-02  0.0000000E+00 -0.5050505E-02 -0.6020766E-07  0.0000000E+00  0.3307758E-05
 -0.4769372E-02  0.0000000E+00 -0.5050505E-02 -0.5760850E-07  0.0000000E+00  0.3283653E-05
 -0.4690458E-02  0.0000000E+00 -0.5050505E-02 -0.5475917E-07  0.0000000E+00  0.3260652E-05
 -0.4611543E-02  0.0000000E+00 -0.5050505E-02 -0.5165777E-07  0.0000000E+00  0.3238853E-05
 -0.4503035E-02  0.0000000E+00 -0.5050505E-02 -0.4829698E-07  0.0000000E+00  0.3218353E-05
 -0.4345206E-02  0.0000000E+00 -0.5050505E-02 -0.4466054E-07  0.0000000E+00  0.3199248E-05
 -0.4187378E-02  0.0000000E+00 -0.5050505E-02 -0.4071733E-07  0.0000000E+00  0.3181635E-05
 -0.3985156E-02  0.0000000E+00 -0.5050505E-02 -0.3641108E-07  0.0000000E+00  0.3165612E-05
 -0.3669499E-02  0.0000000E+00 -0.5050505E-02 -0.3164225E-07  0.0000000E+00  0.3151277E-05
 -0.3353842E-02  0.0000000E+00 -0.5050505E-02 -0.2623524E-07  0.0000000E+00  0.3138711E-05
 -0.2978990E-02  0.0000000E+00 -0.5050505E-02 -0.1987854E-07  0.0000000E+00  0.3127950E-05
 -0.2347676E-02  0.0000000E+00 -0.5050505E-02 -0.1201766E-07  0.0000000E+00  0.3118868E-05
 -0.1716362E-02  0.0000000E+00 -0.5050505E-02 -0.1678842E-08  0.0000000E+00  0.3110875E-05
 -0.1025842E-02  0.0000000E+00 -0.5050505E-02  0.1273613E-07  0.0000000E+00  0.3102102E-05
  0.2367855E-03  0.0000000E+00 -0.5050505E-02  0.3323532E-07  0.0000000E+00  0.3087487E-05
  0.1499413E-02  0.0000000E+00 -0.5050505E-02  0.5908958E-07  0.0000000E+00  0.3055814E-05
  0.5287294E-02  0.0000000E+00 -0.5050505E-02  0.6867450E-07  0.0000000E+00  0.2995751E-05
 -0.5050505E-02  0.0000000E+00 -0.5050505E-02  0.2927577E-08  0.0000000E+00  0.3203556E-05
 -0.5050505E-02  0.0000000E+00 -0.5050505E-02  0.8771727E-08  0.0000000E+00  0.3205288E-05
 -0.5050505E-02  0.0000000E+00 -0.5050505E-02  0.1458244E-07  0.0000000E+00  0.3208746E-05
 -0.5050505E-02  0.0000000E+00 -0.5050505E-02  0.2033745E-07  0.0000000E+00  0.3213916E-05
 -0.5050505E-02  0.0000000E+00 -0.5050505E-02  0.2601472E-07  0.0000000E+00  0.3220779E-05
 -0.5050505E-02  0.0000000E+00 -0.5050505E-02  0.3159241E-07  0.0000000E+00  0.3229309E-05
 -0.5050504E-02  0.0000000E+00 -0.5050505E-02  0.3704895E-07  0.0000000E+00  0.3239473E-05
 -0.5050501E-02  0.0000000E+00 -0.5050505E-02  0.4236312E-07  0.0000000E+00  0.3251233E-05
 -0.5050495E-02  0.0000000E+00 -0.5050505E-02  0.4751410E-07  0.0000000E+00  0.3264542E-05
 -0.5050482E-02  0.0000000E+00 -0.5050505E-02  0.5248152E-07  0.0000000E+00  0.3279351E-05
 -0.5050449E-02  0.0000000E+00 -0.5050505E-02  0.5724558E-07  0.0000000E+00  0.3295601E-05
 -0.5050376E-02  0.0000000E+00 -0.5050505E-02  0.6178705E-07  0.0000000E+00  0.3313231E-05
 -0.5050299E-02  0.0000000E+00 -0.5050505E-02  0.6608740E-07  0.0000000E+00  0.3332171E-05
 -0.5050178E-02  0.0000000E+00 -0.5050505E-02  0.7012881E-07  0.0000000E+00  0.3352348E-05
 -0.5050018E-02  0.0000000E+00 -0.5050505E-02  0.7389430E-07  0.0000000E+00  0.3373683E-05
 -0.5049710E-02  0.0000000E+00 -0.5050505E-02  0.7736774E-07  0.0000000E+00  0.3396091E-05
 -0.5049253E-02  0.0000000E+00 -0.5050505E-02  0.8053398E-07  0.0000000E+00  0.3419485E-05
 -0.5048636E-02  0.0000000E+00 -0.5050505E-02  0.8337886E-07  0.0000000E+00  0.3443771E-05
 -0.5047442E-02  0.0000000E+00 -0.5050505E-02  0.8588935E-07  0.0000000E+00  0.3468853E-05
 -0.5045727E-02  0.0000000E+00 -0.5050505E-02  0.8805356E-07  0.0000000E+00  0.3494629E-05
 -0.5043261E-02  0.0000000E+00 -0.5050505E-02  0.8986083E-07  0.0000000E+00  0.3520996E-05
 -0.5038714E-02  0.0000000E+00 -0.5050505E-02  0.9130180E-07  0.0000000E+00  0.3547847E-05
 -0.5032318E-02  0.0000000E+00 -0.5050505E-02  0.9236847E-07  0.0000000E+00  0.3575072E-05
 -0.5022454E-02  0.0000000E+00 -0.5050505E-02  0.9305428E-07  0.0000000E+00  0.3602559E-05
 -0.5012589E-02  0.0000000E+00 -0.5050505E-02  0.9335412E-07  0.0000000E+00  0.3630194E-05
 -0.5002725E-02  0.0000000E+00 -0.5050505E-02  0.9326442E-07  0.0000000E+00  0.3657864E-05
 -0.4992860E-02  0.0000000E+00 -0.5050505E-02  0.9278321E-07  0.0000000E+00  0.3685451E-05
 -0.4976523E-02  0.0000000E+00 -0.5050505E-02  0.9191011E-07  0.0000000E+00  0.3712840E-05
 -0.4956794E-02  0.0000000E+00 -0.5050505E-02  0.9064641E-07  0.0000000E+00  0.3739915E-05
 -0.4937066E-02  0.0000000E+00 -0.5050505E-02  0.8899509E-07  0.0000000E+00  0.3766561E-05