title = "dataset feddes"
variables = "x", "y", "z", "vx", "vy", "vz"
zone t = "velocities, solution time =  2.500E+01 days        " i =   99, j =   99, k =    1,  f=point
 -0.5050505E-02  0.0000000E+00 -0.5050505E-02  0.2759501E-12  0.0000000E+00  0.5475225E-08
 -0.5050505E-02  0.0000000E+00 -0.5050505E-02  0.1203499E-11  0.0000000E+00  0.5476713E-08
 -0.5050505E-02  0.0000000E+00 -0.5050505E-02  0.2309819E-11  0.0000000E+00  0.5480246E-08
 -0.5050505E-02  0.0000000E+00 -0.5050505E-02  0.3358038E-11  0.0000000E+00  0.5485946E-08
 -0.5050505E-02  0.0000000E+00 -0.5050505E-02  0.4354222E-11  0.0000000E+00  0.5493702E-08
 -0.5050505E-02  0.0000000E+00 -0.5050505E-02  0.5312542E-11  0.0000000E+00  0.5503423E-08
 -0.5050504E-02  0.0000000E+00 -0.5050505E-02  0.6240744E-11  0.0000000E+00  0.5515042E-08
 -0.5050501E-02  0.0000000E+00 -0.5050505E-02  0.7139389E-11  0.0000000E+00  0.5528498E-08
 -0.5050495E-02  0.0000000E+00 -0.5050505E-02  0.8007772E-11  0.0000000E+00  0.5543731E-08
 -0.5050482E-02  0.0000000E+00 -0.5050505E-02  0.8843885E-11  0.0000000E+00  0.5560678E-08
 -0.5050449E-02  0.0000000E+00 -0.5050505E-02  0.9644136E-11  0.0000000E+00  0.5579271E-08
 -0.5050376E-02  0.0000000E+00 -0.5050505E-02  0.1040582E-10  0.0000000E+00  0.5599434E-08
 -0.5050299E-02  0.0000000E+00 -0.5050505E-02  0.1112610E-10  0.0000000E+00  0.5621088E-08
 -0.5050178E-02  0.0000000E+00 -0.5050505E-02  0.1180185E-10  0.0000000E+00  0.5644146E-08
 -0.5050018E-02  0.0000000E+00 -0.5050505E-02  0.1243033E-10  0.0000000E+00  0.5668515E-08
 -0.5049710E-02  0.0000000E+00 -0.5050505E-02  0.1300906E-10  0.0000000E+00  0.5694098E-08
 -0.5049253E-02  0.0000000E+00 -0.5050505E-02  0.1353551E-10  0.0000000E+00  0.5720793E-08
 -0.5048636E-02  0.0000000E+00 -0.5050505E-02  0.1400747E-10  0.0000000E+00  0.5748492E-08
 -0.5047442E-02  0.0000000E+00 -0.5050505E-02  0.1442287E-10  0.0000000E+00  0.5777083E-08
 -0.5045727E-02  0.0000000E+00 -0.5050505E-02  0.1477990E-10  0.0000000E+00  0.5806452E-08
 -0.5043261E-02  0.0000000E+00 -0.5050505E-02  0.1507697E-10  0.0000000E+00  0.5836477E-08
 -0.5038714E-02  0.0000000E+00 -0.5050505E-02  0.1531262E-10  0.0000000E+00  0.5867039E-08
 -0.5032318E-02  0.0000000E+00 -0.5050505E-02  0.1548576E-10  0.0000000E+00  0.5898012E-08
 -0.5022454E-02  0.0000000E+00 -0.5050505E-02  0.1559545E-10  0.0000000E+00  0.5929269E-08
 -0.5012589E-02  0.0000000E+00 -0.5050505E-02  0.1564107E-10  0.0000000E+00  0.5960682E-08
 -0.5002725E-02  0.0000000E+00 -0.5050505E-02  0.1562216E-10  0.0000000E+00  0.5992123E-08
 -0.4992860E-02  0.0000000E+00 -0.5050505E-02  0.1553865E-10  0.0000000E+00  0.6023460E-08
 -0.4976523E-02  0.0000000E+00 -0.5050505E-02  0.1539063E-10  0.0000000E+00  0.6054564E-08
 -0.4956794E-02  0.0000000E+00 -0.5050505E-02  0.1517849E-10  0.0000000E+00  0.6085306E-08
 -0.4937066E-02  0.0000000E+00 -0.5050505E-02  0.1490292E-10  0.0000000E+00  0.6115558E-08
 -0.4906239E-02  0.0000000E+00 -0.5050505E-02  0.1456483E-10  0.0000000E+00  0.6145193E-08
 -0.4866782E-02  0.0000000E+00 -0.5050505E-02  0.1416545E-10  0.0000000E+00  0.6174086E-08
 -0.4827325E-02  0.0000000E+00 -0.5050505E-02  0.1370621E-10  0.0000000E+00  0.6202115E-08
 -0.4769372E-02  0.0000000E+00 -0.5050505E-02  0.1318881E-10  0.0000000E+00  0.6229162E-08
 -0.4690458E-02  0.0000000E+00 -0.5050505E-02  0.1261529E-10  0.0000000E+00  0.6255112E-08
 -0.4611543E-02  0.0000000E+00 -0.5050505E-02  0.1198782E-10  0.0000000E+00  0.6279855E-08
 -0.4503035E-02  0.0000000E+00 -0.5050505E-02  0.1130883E-10  0.0000000E+00  0.6303283E-08
 -0.4345206E-02  0.0000000E+00 -0.5050505E-02  0.1058100E-10  0.0000000E+00  0.6325297E-08
 -0.4187378E-02  0.0000000E+00 -0.5050505E-02  0.9807086E-11  0.0000000E+00  0.6345801E-08
 -0.3985156E-02  0.0000000E+00 -0.5050505E-02  0.8990040E-11  0.0000000E+00  0.6364704E-08
 -0.3669499E-02  0.0000000E+00 -0.5050505E-02  0.8132753E-11  0.0000000E+00  0.6381924E-08
 -0.3353842E-02  0.0000000E+00 -0.5050505E-02  0.7238127E-11  0.0000000E+00  0.6397382E-08
 -0.2978990E-02  0.0000000E+00 -0.5050505E-02  0.6308734E-11  0.0000000E+00  0.6411005E-08
 -0.2347676E-02  0.0000000E+00 -0.5050505E-02  0.5346972E-11  0.0000000E+00  0.6422727E-08
 -0.1716362E-02  0.0000000E+00 -0.5050505E-02  0.4355099E-11  0.0000000E+00  0.6432484E-08
 -0.1025842E-02  0.0000000E+00 -0.5050505E-02  0.3336002E-11  0.0000000E+00  0.6440219E-08
  0.2367855E-03  0.0000000E+00 -0.5050505E-02  0.2294906E-11  0.0000000E+00  0.6445881E-08
  0.1499413E-02  0.0000000E+00 -0.5050505E-02  0.1241588E-11  0.0000000E+00  0.6449438E-08
  0.2762042E-02  0.0000000E+00 -0.5050505E-02  0.1888403E-12  0.0000000E+00  0.6450877E-08
 -0.5050505E-02  0.0000000E+00 -0.5050505E-02 -0.6822875E-12  0.0000000E+00  0.6450380E-08
 -0.5050505E-02  0.0000000E+00 -0.5050505E-02 -0.1602796E-11  0.0000000E+00  0.6448082E-08
 -0.5050505E-02  0.0000000E+00 -0.5050505E-02 -0.2707946E-11  0.0000000E+00  0.6443747E-08
 -0.5050505E-02  0.0000000E+00 -0.5050505E-02 -0.3789538E-11  0.0000000E+00  0.6437213E-08
 -0.5050505E-02  0.0000000E+00 -0.5050505E-02 -0.4827365E-11  0.0000000E+00  0.6428547E-08
 -0.5050505E-02  0.0000000E+00 -0.5050505E-02 -0.5828850E-11  0.0000000E+00  0.6417831E-08
 -0.5050505E-02  0.0000000E+00 -0.5050505E-02 -0.6799212E-11  0.0000000E+00  0.6405131E-08
 -0.5050504E-02  0.0000000E+00 -0.5050505E-02 -0.7739395E-11  0.0000000E+00  0.6390510E-08
 -0.5050501E-02  0.0000000E+00 -0.5050505E-02 -0.8647637E-11  0.0000000E+00  0.6374030E-08
 -0.5050495E-02  0.0000000E+00 -0.5050505E-02 -0.9521104E-11  0.0000000E+00  0.6355759E-08
 -0.5050482E-02  0.0000000E+00 -0.5050505E-02 -0.1035654E-10  0.0000000E+00  0.6335769E-08
 -0.5050449E-02  0.0000000E+00 -0.5050505E-02 -0.1115067E-10  0.0000000E+00  0.6314140E-08
 -0.5050376E-02  0.0000000E+00 -0.5050505E-02 -0.1190023E-10  0.0000000E+00  0.6290958E-08
 -0.5050299E-02  0.0000000E+00 -0.5050505E-02 -0.1260224E-10  0.0000000E+00  0.6266317E-08
 -0.5050178E-02  0.0000000E+00 -0.5050505E-02 -0.1325380E-10  0.0000000E+00  0.6240315E-08
 -0.5050018E-02  0.0000000E+00 -0.5050505E-02 -0.1385226E-10  0.0000000E+00  0.6213055E-08
 -0.5049710E-02  0.0000000E+00 -0.5050505E-02 -0.1439528E-10  0.0000000E+00  0.6184648E-08
 -0.5049253E-02  0.0000000E+00 -0.5050505E-02 -0.1488068E-10  0.0000000E+00  0.6155206E-08
 -0.5048636E-02  0.0000000E+00 -0.5050505E-02 -0.1530645E-10  0.0000000E+00  0.6124848E-08
 -0.5047442E-02  0.0000000E+00 -0.5050505E-02 -0.1567106E-10  0.0000000E+00  0.6093695E-08
 -0.5045727E-02  0.0000000E+00 -0.5050505E-02 -0.1597297E-10  0.0000000E+00  0.6061872E-08
 -0.5043261E-02  0.0000000E+00 -0.5050505E-02 -0.1621103E-10  0.0000000E+00  0.6029506E-08
 -0.5038714E-02  0.0000000E+00 -0.5050505E-02 -0.1638431E-10  0.0000000E+00  0.5996726E-08
 -0.5032318E-02  0.0000000E+00 -0.5050505E-02 -0.1649214E-10  0.0000000E+00  0.5963663E-08
 -0.5022454E-02  0.0000000E+00 -0.5050505E-02 -0.1653401E-10  0.0000000E+00  0.5930450E-08
 -0.5012589E-02  0.0000000E+00 -0.5050505E-02 -0.1650975E-10  0.0000000E+00  0.5897219E-08
 -0.5002725E-02  0.0000000E+00 -0.5050505E-02 -0.1641930E-10  0.0000000E+00  0.5864104E-08
 -0.4992860E-02  0.0000000E+00 -0.5050505E-02 -0.1626282E-10  0.0000000E+00  0.5831237E-08
 -0.4976523E-02  0.0000000E+00 -0.5050505E-02 -0.1604061E-10  0.0000000E+00  0.5798750E-08
 -0.4956794E-02  0.0000000E+00 -0.5050505E-02 -0.1575317E-10  0.0000000E+00  0.5766777E-08
 -0.4937066E-02  0.0000000E+00 -0.5050505E-02 -0.1540090E-10  0.0000000E+00  0.5735446E-08
 -0.4906239E-02  0.0000000E+00 -0.5050505E-02 -0.1498441E-10  0.0000000E+00  0.5704889E-08
 -0.4866782E-02  0.0000000E+00 -0.5050505E-02 -0.1450391E-10  0.0000000E+00  0.5675233E-08
 -0.4827325E-02  0.0000000E+00 -0.5050505E-02 -0.1395959E-10  0.0000000E+00  0.5646609E-08
 -0.4769372E-02  0.0000000E+00 -0.5050505E-02 -0.1335084E-10  0.0000000E+00  0.5619144E-08
 -0.4690458E-02  0.0000000E+00 -0.5050505E-02 -0.1267619E-10  0.0000000E+00  0.5592969E-08
 -0.4611543E-02  0.0000000E+00 -0.5050505E-02 -0.1193247E-10  0.0000000E+00  0.5568221E-08
 -0.4503035E-02  0.0000000E+00 -0.5050505E-02 -0.1111358E-10  0.0000000E+00  0.5545045E-08
 -0.4345206E-02  0.0000000E+00 -0.5050505E-02 -0.1020864E-10  0.0000000E+00  0.5523602E-08
 -0.4187378E-02  0.0000000E+00 -0.5050505E-02 -0.9198218E-11  0.0000000E+00  0.5504085E-08
 -0.3985156E-02  0.0000000E+00 -0.5050505E-02 -0.8047826E-11  0.0000000E+00  0.5486742E-08
 -0.3669499E-02  0.0000000E+00 -0.5050505E-02 -0.6694805E-11  0.0000000E+00  0.5471915E-08
 -0.3353842E-02  0.0000000E+00 -0.5050505E-02 -0.5020524E-11  0.0000000E+00  0.5460134E-08
 -0.2978990E-02  0.0000000E+00 -0.5050505E-02 -0.2780293E-11  0.0000000E+00  0.5452289E-08
 -0.2347676E-02  0.0000000E+00 -0.5050505E-02  0.4420945E-12  0.0000000E+00  0.5449937E-08
 -0.1716362E-02  0.0000000E+00 -0.5050505E-02  0.6049872E-11  0.0000000E+00  0.5456466E-08
 -0.1025842E-02  0.0000000E+00 -0.5050505E-02  0.1737353E-10  0.0000000E+00  0.5480022E-08
  0.2367855E-03  0.0000000E+00 -0.5050505E-02  0.4480504E-10  0.0000000E+00  0.5542553E-08
  0.1499413E-02  0.0000000E+00 -0.5050505E-02  0.1220545E-09  0.0000000E+00  0.5710357E-08
  0.5287294E-02  0.0000000E+00 -0.5050505E-02  0.2015853E-08  0.0000000E+00  0.4562277E-08
 -0.5050505E-02  0.0000000E+00 -0.5050505E-02  0.9048609E-12  0.0000000E+00  0.5482879E-08
 -0.5050505E-02  0.0000000E+00 -0.5050505E-02  0.3679508E-11  0.0000000E+00  0.5484522E-08
 -0.5050505E-02  0.0000000E+00 -0.5050505E-02  0.6955578E-11  0.0000000E+00  0.5488171E-08
 -0.5050505E-02  0.0000000E+00 -0.5050505E-02  0.1007919E-10  0.0000000E+00  0.5493934E-08
 -0.5050505E-02  0.0000000E+00 -0.5050505E-02  0.1306227E-10  0.0000000E+00  0.5501738E-08
 -0.5050505E-02  0.0000000E+00 -0.5050505E-02  0.1593618E-10  0.0000000E+00  0.5511512E-08
 -0.5050504E-02  0.0000000E+00 -0.5050505E-02  0.1872044E-10  0.0000000E+00  0.5523193E-08
 -0.5050501E-02  0.0000000E+00 -0.5050505E-02  0.2141668E-10  0.0000000E+00  0.5536721E-08
 -0.5050495E-02  0.0000000E+00 -0.5050505E-02  0.2402169E-10  0.0000000E+00  0.5552036E-08
 -0.5050482E-02  0.0000000E+00 -0.5050505E-02  0.2652969E-10  0.0000000E+00  0.5569075E-08
 -0.5050449E-02  0.0000000E+00 -0.5050505E-02  0.2893040E-10  0.0000000E+00  0.5587768E-08
 -0.5050376E-02  0.0000000E+00 -0.5050505E-02  0.3121536E-10  0.0000000E+00  0.5608040E-08
 -0.5050299E-02  0.0000000E+00 -0.5050505E-02  0.3337603E-10  0.0000000E+00  0.5629811E-08
 -0.5050178E-02  0.0000000E+00 -0.5050505E-02  0.3540321E-10  0.0000000E+00  0.5652993E-08
 -0.5050018E-02  0.0000000E+00 -0.5050505E-02  0.3728869E-10  0.0000000E+00  0.5677495E-08
 -0.5049710E-02  0.0000000E+00 -0.5050505E-02  0.3902484E-10  0.0000000E+00  0.5703217E-08
 -0.5049253E-02  0.0000000E+00 -0.5050505E-02  0.4060424E-10  0.0000000E+00  0.5730057E-08
 -0.5048636E-02  0.0000000E+00 -0.5050505E-02  0.4202015E-10  0.0000000E+00  0.5757906E-08
 -0.5047442E-02  0.0000000E+00 -0.5050505E-02  0.4326649E-10  0.0000000E+00  0.5786654E-08
 -0.5045727E-02  0.0000000E+00 -0.5050505E-02  0.4433772E-10  0.0000000E+00  0.5816182E-08
 -0.5043261E-02  0.0000000E+00 -0.5050505E-02  0.4522904E-10  0.0000000E+00  0.5846373E-08
 -0.5038714E-02  0.0000000E+00 -0.5050505E-02  0.4593617E-10  0.0000000E+00  0.5877102E-08
 -0.5032318E-02  0.0000000E+00 -0.5050505E-02  0.4645576E-10  0.0000000E+00  0.5908245E-08
 -0.5022454E-02  0.0000000E+00 -0.5050505E-02  0.4678503E-10  0.0000000E+00  0.5939675E-08
 -0.5012589E-02  0.0000000E+00 -0.5050505E-02  0.4692208E-10  0.0000000E+00  0.5971262E-08
 -0.5002725E-02  0.0000000E+00 -0.5050505E-02  0.4686561E-10  0.0000000E+00  0.6002877E-08
 -0.4992860E-02  0.0000000E+00 -0.5050505E-02  0.4661530E-10  0.0000000E+00  0.6034388E-08
 -0.4976523E-02  0.0000000E+00 -0.5050505E-02  0.4617146E-10  0.0000000E+00  0.6065666E-08
 -0.4956794E-02  0.0000000E+00 -0.5050505E-02  0.4553531E-10  0.0000000E+00  0.6096580E-08
 -0.4937066E-02  0.0000000E+00 -0.5050505E-02  0.4470882E-10  0.0000000E+00  0.6127001E-08
 -0.4906239E-02  0.0000000E+00 -0.5050505E-02  0.4369481E-10  0.0000000E+00  0.6156802E-08
 -0.4866782E-02  0.0000000E+00 -0.5050505E-02  0.4249685E-10  0.0000000E+00  0.6185858E-08
 -0.4827325E-02  0.0000000E+00 -0.5050505E-02  0.4111933E-10  0.0000000E+00  0.6214046E-08
 -0.4769372E-02  0.0000000E+00 -0.5050505E-02  0.3956739E-10  0.0000000E+00  0.6241246E-08
 -0.4690458E-02  0.0000000E+00 -0.5050505E-02  0.3784700E-10  0.0000000E+00  0.6267344E-08
 -0.4611543E-02  0.0000000E+00 -0.5050505E-02  0.3596476E-10  0.0000000E+00  0.6292228E-08
 -0.4503035E-02  0.0000000E+00 -0.5050505E-02  0.3392803E-10  0.0000000E+00  0.6315791E-08
 -0.4345206E-02  0.0000000E+00 -0.5050505E-02  0.3174470E-10  0.0000000E+00  0.6337931E-08
 -0.4187378E-02  0.0000000E+00 -0.5050505E-02  0.2942325E-10  0.0000000E+00  0.6358553E-08
 -0.3985156E-02  0.0000000E+00 -0.5050505E-02  0.2697239E-10  0.0000000E+00  0.6377567E-08
 -0.3669499E-02  0.0000000E+00 -0.5050505E-02  0.2440096E-10  0.0000000E+00  0.6394888E-08
 -0.3353842E-02  0.0000000E+00 -0.5050505E-02  0.2171752E-10  0.0000000E+00  0.6410439E-08
 -0.2978990E-02  0.0000000E+00 -0.5050505E-02  0.1892985E-10  0.0000000E+00  0.6424146E-08
 -0.2347676E-02  0.0000000E+00 -0.5050505E-02  0.1604455E-10  0.0000000E+00  0.6435940E-08
 -0.1716362E-02  0.0000000E+00 -0.5050505E-02  0.1306765E-10  0.0000000E+00  0.6445758E-08
 -0.1025842E-02  0.0000000E+00 -0.5050505E-02  0.1000666E-10  0.0000000E+00  0.6453537E-08
  0.2367855E-03  0.0000000E+00 -0.5050505E-02  0.6877723E-11  0.0000000E+00  0.6459223E-08
  0.1499413E-02  0.0000000E+00 -0.5050505E-02  0.3719087E-11  0.0000000E+00  0.6462787E-08
  0.2762042E-02  0.0000000E+00 -0.5050505E-02  0.6065981E-12  0.0000000E+00  0.6464268E-08
 -0.5050505E-02  0.0000000E+00 -0.5050505E-02 -0.2037383E-11  0.0000000E+00  0.6463819E-08
 -0.5050505E-02  0.0000000E+00 -0.5050505E-02 -0.4839897E-11  0.0000000E+00  0.6461486E-08
 -0.5050505E-02  0.0000000E+00 -0.5050505E-02 -0.8130380E-11  0.0000000E+00  0.6457088E-08
 -0.5050505E-02  0.0000000E+00 -0.5050505E-02 -0.1136434E-10  0.0000000E+00  0.6450515E-08
 -0.5050505E-02  0.0000000E+00 -0.5050505E-02 -0.1447635E-10  0.0000000E+00  0.6441811E-08
 -0.5050505E-02  0.0000000E+00 -0.5050505E-02 -0.1748190E-10  0.0000000E+00  0.6431045E-08
 -0.5050505E-02  0.0000000E+00 -0.5050505E-02 -0.2039414E-10  0.0000000E+00  0.6418282E-08
 -0.5050504E-02  0.0000000E+00 -0.5050505E-02 -0.2321533E-10  0.0000000E+00  0.6403586E-08
 -0.5050501E-02  0.0000000E+00 -0.5050505E-02 -0.2594038E-10  0.0000000E+00  0.6387019E-08
 -0.5050495E-02  0.0000000E+00 -0.5050505E-02 -0.2856090E-10  0.0000000E+00  0.6368650E-08
 -0.5050482E-02  0.0000000E+00 -0.5050505E-02 -0.3106727E-10  0.0000000E+00  0.6348552E-08
 -0.5050449E-02  0.0000000E+00 -0.5050505E-02 -0.3344959E-10  0.0000000E+00  0.6326807E-08
 -0.5050376E-02  0.0000000E+00 -0.5050505E-02 -0.3569826E-10  0.0000000E+00  0.6303500E-08
 -0.5050299E-02  0.0000000E+00 -0.5050505E-02 -0.3780416E-10  0.0000000E+00  0.6278726E-08
 -0.5050178E-02  0.0000000E+00 -0.5050505E-02 -0.3975871E-10  0.0000000E+00  0.6252583E-08
 -0.5050018E-02  0.0000000E+00 -0.5050505E-02 -0.4155405E-10  0.0000000E+00  0.6225176E-08
 -0.5049710E-02  0.0000000E+00 -0.5050505E-02 -0.4318301E-10  0.0000000E+00  0.6196615E-08
 -0.5049253E-02  0.0000000E+00 -0.5050505E-02 -0.4463903E-10  0.0000000E+00  0.6167014E-08
 -0.5048636E-02  0.0000000E+00 -0.5050505E-02 -0.4591635E-10  0.0000000E+00  0.6136492E-08
 -0.5047442E-02  0.0000000E+00 -0.5050505E-02 -0.4701000E-10  0.0000000E+00  0.6105170E-08
 -0.5045727E-02  0.0000000E+00 -0.5050505E-02 -0.4791567E-10  0.0000000E+00  0.6073175E-08
 -0.5043261E-02  0.0000000E+00 -0.5050505E-02 -0.4862977E-10  0.0000000E+00  0.6040634E-08
 -0.5038714E-02  0.0000000E+00 -0.5050505E-02 -0.4914962E-10  0.0000000E+00  0.6007677E-08
 -0.5032318E-02  0.0000000E+00 -0.5050505E-02 -0.4947307E-10  0.0000000E+00  0.5974436E-08
 -0.5022454E-02  0.0000000E+00 -0.5050505E-02 -0.4959878E-10  0.0000000E+00  0.5941043E-08
 -0.5012589E-02  0.0000000E+00 -0.5050505E-02 -0.4952611E-10  0.0000000E+00  0.5907632E-08
 -0.5002725E-02  0.0000000E+00 -0.5050505E-02 -0.4925496E-10  0.0000000E+00  0.5874337E-08
 -0.4992860E-02  0.0000000E+00 -0.5050505E-02 -0.4878583E-10  0.0000000E+00  0.5841291E-08
 -0.4976523E-02  0.0000000E+00 -0.5050505E-02 -0.4811976E-10  0.0000000E+00  0.5808627E-08
 -0.4956794E-02  0.0000000E+00 -0.5050505E-02 -0.4725806E-10  0.0000000E+00  0.5776478E-08
 -0.4937066E-02  0.0000000E+00 -0.5050505E-02 -0.4620233E-10  0.0000000E+00  0.5744974E-08
 -0.4906239E-02  0.0000000E+00 -0.5050505E-02 -0.4495414E-10  0.0000000E+00  0.5714244E-08
 -0.4866782E-02  0.0000000E+00 -0.5050505E-02 -0.4351467E-10  0.0000000E+00  0.5684419E-08
 -0.4827325E-02  0.0000000E+00 -0.5050505E-02 -0.4188443E-10  0.0000000E+00  0.5655625E-08
 -0.4769372E-02  0.0000000E+00 -0.5050505E-02 -0.4006218E-10  0.0000000E+00  0.5627991E-08
 -0.4690458E-02  0.0000000E+00 -0.5050505E-02 -0.3804418E-10  0.0000000E+00  0.5601644E-08
 -0.4611543E-02  0.0000000E+00 -0.5050505E-02 -0.3582197E-10  0.0000000E+00  0.5576717E-08
 -0.4503035E-02  0.0000000E+00 -0.5050505E-02 -0.3337936E-10  0.0000000E+00  0.5553347E-08
 -0.4345206E-02  0.0000000E+00 -0.5050505E-02 -0.3068713E-10  0.0000000E+00  0.5531683E-08
 -0.4187378E-02  0.0000000E+00 -0.5050505E-02 -0.2769352E-10  0.0000000E+00  0.5511896E-08
 -0.3985156E-02  0.0000000E+00 -0.5050505E-02 -0.2430774E-10  0.0000000E+00  0.5494191E-08
 -0.3669499E-02  0.0000000E+00 -0.5050505E-02 -0.2037013E-10  0.0000000E+00  0.5478829E-08
 -0.3353842E-02  0.0000000E+00 -0.5050505E-02 -0.1559697E-10  0.0000000E+00  0.5466155E-08
 -0.2978990E-02  0.0000000E+00 -0.5050505E-02 -0.9468802E-11  0.0000000E+00  0.5456594E-08
 -0.2347676E-02  0.0000000E+00 -0.5050505E-02 -0.9410647E-12  0.0000000E+00  0.5450815E-08
 -0.1716362E-02  0.0000000E+00 -0.5050505E-02  0.1233175E-10  0.0000000E+00  0.5449249E-08
 -0.1025842E-02  0.0000000E+00 -0.5050505E-02  0.3619732E-10  0.0000000E+00  0.5451073E-08
  0.2367855E-03  0.0000000E+00 -0.5050505E-02  0.8474907E-10  0.0000000E+00  0.5447995E-08
  0.1499413E-02  0.0000000E+00 -0.5050505E-02  0.1944895E-09  0.0000000E+00  0.5394149E-08
  0.5287294E-02  0.0000000E+00 -0.5050505E-02  0.4653572E-09  0.0000000E+00  0.5067902E-08
 -0.5050505E-02  0.0000000E+00 -0.5050505E-02  0.1652012E-11  0.0000000E+00  0.5498838E-08
 -0.5050505E-02  0.0000000E+00 -0.5050505E-02  0.6278316E-11  0.0000000E+00  0.5500586E-08
 -0.5050505E-02  0.0000000E+00 -0.5050505E-02  0.1166224E-10  0.0000000E+00  0.5504344E-08
 -0.5050505E-02  0.0000000E+00 -0.5050505E-02  0.1683190E-10  0.0000000E+00  0.5510201E-08
 -0.5050505E-02  0.0000000E+00 -0.5050505E-02  0.2179590E-10  0.0000000E+00  0.5518101E-08
 -0.5050505E-02  0.0000000E+00 -0.5050505E-02  0.2658764E-10  0.0000000E+00  0.5527985E-08
 -0.5050504E-02  0.0000000E+00 -0.5050505E-02  0.3123169E-10  0.0000000E+00  0.5539794E-08
 -0.5050501E-02  0.0000000E+00 -0.5050505E-02  0.3573017E-10  0.0000000E+00  0.5553468E-08
 -0.5050495E-02  0.0000000E+00 -0.5050505E-02  0.4007633E-10  0.0000000E+00  0.5568949E-08
 -0.5050482E-02  0.0000000E+00 -0.5050505E-02  0.4426007E-10  0.0000000E+00  0.5586172E-08
 -0.5050449E-02  0.0000000E+00 -0.5050505E-02  0.4826543E-10  0.0000000E+00  0.5605066E-08
 -0.5050376E-02  0.0000000E+00 -0.5050505E-02  0.5207763E-10  0.0000000E+00  0.5625557E-08
 -0.5050299E-02  0.0000000E+00 -0.5050505E-02  0.5568239E-10  0.0000000E+00  0.5647563E-08
 -0.5050178E-02  0.0000000E+00 -0.5050505E-02  0.5906466E-10  0.0000000E+00  0.5670996E-08
 -0.5050018E-02  0.0000000E+00 -0.5050505E-02  0.6221065E-10  0.0000000E+00  0.5695763E-08
 -0.5049710E-02  0.0000000E+00 -0.5050505E-02  0.6510749E-10  0.0000000E+00  0.5721764E-08
 -0.5049253E-02  0.0000000E+00 -0.5050505E-02  0.6774291E-10  0.0000000E+00  0.5748895E-08
 -0.5048636E-02  0.0000000E+00 -0.5050505E-02  0.7010570E-10  0.0000000E+00  0.5777048E-08
 -0.5047442E-02  0.0000000E+00 -0.5050505E-02  0.7218561E-10  0.0000000E+00  0.5806108E-08
 -0.5045727E-02  0.0000000E+00 -0.5050505E-02  0.7397345E-10  0.0000000E+00  0.5835960E-08
 -0.5043261E-02  0.0000000E+00 -0.5050505E-02  0.7546110E-10  0.0000000E+00  0.5866480E-08
 -0.5038714E-02  0.0000000E+00 -0.5050505E-02  0.7664156E-10  0.0000000E+00  0.5897547E-08
 -0.5032318E-02  0.0000000E+00 -0.5050505E-02  0.7750913E-10  0.0000000E+00  0.5929032E-08
 -0.5022454E-02  0.0000000E+00 -0.5050505E-02  0.7805924E-10  0.0000000E+00  0.5960808E-08
 -0.5012589E-02  0.0000000E+00 -0.5050505E-02  0.7828856E-10  0.0000000E+00  0.5992745E-08
 -0.5002725E-02  0.0000000E+00 -0.5050505E-02  0.7819514E-10  0.0000000E+00  0.6024709E-08
 -0.4992860E-02  0.0000000E+00 -0.5050505E-02  0.7777822E-10  0.0000000E+00  0.6056571E-08
 -0.4976523E-02  0.0000000E+00 -0.5050505E-02  0.7703843E-10  0.0000000E+00  0.6088197E-08
 -0.4956794E-02  0.0000000E+00 -0.5050505E-02  0.7597775E-10  0.0000000E+00  0.6119456E-08
 -0.4937066E-02  0.0000000E+00 -0.5050505E-02  0.7459950E-10  0.0000000E+00  0.6150217E-08
 -0.4906239E-02  0.0000000E+00 -0.5050505E-02  0.7290832E-10  0.0000000E+00  0.6180353E-08
 -0.4866782E-02  0.0000000E+00 -0.5050505E-02  0.7091018E-10  0.0000000E+00  0.6209736E-08
 -0.4827325E-02  0.0000000E+00 -0.5050505E-02  0.6861239E-10  0.0000000E+00  0.6238242E-08
 -0.4769372E-02  0.0000000E+00 -0.5050505E-02  0.6602359E-10  0.0000000E+00  0.6265750E-08
 -0.4690458E-02  0.0000000E+00 -0.5050505E-02  0.6315365E-10  0.0000000E+00  0.6292144E-08
 -0.4611543E-02  0.0000000E+00 -0.5050505E-02  0.6001362E-10  0.0000000E+00  0.6317312E-08
 -0.4503035E-02  0.0000000E+00 -0.5050505E-02  0.5661582E-10  0.0000000E+00  0.6341144E-08
 -0.4345206E-02  0.0000000E+00 -0.5050505E-02  0.5297340E-10  0.0000000E+00  0.6363538E-08
 -0.4187378E-02  0.0000000E+00 -0.5050505E-02  0.4910059E-10  0.0000000E+00  0.6384398E-08
 -0.3985156E-02  0.0000000E+00 -0.5050505E-02  0.4501196E-10  0.0000000E+00  0.6403632E-08
 -0.3669499E-02  0.0000000E+00 -0.5050505E-02  0.4072242E-10  0.0000000E+00  0.6421156E-08
 -0.3353842E-02  0.0000000E+00 -0.5050505E-02  0.3624621E-10  0.0000000E+00  0.6436890E-08
 -0.2978990E-02  0.0000000E+00 -0.5050505E-02  0.3159617E-10  0.0000000E+00  0.6450761E-08
 -0.2347676E-02  0.0000000E+00 -0.5050505E-02  0.2678266E-10  0.0000000E+00  0.6462701E-08
 -0.1716362E-02  0.0000000E+00 -0.5050505E-02  0.2181395E-10  0.0000000E+00  0.6472641E-08
 -0.1025842E-02  0.0000000E+00 -0.5050505E-02  0.1669982E-10  0.0000000E+00  0.6480519E-08
  0.2367855E-03  0.0000000E+00 -0.5050505E-02  0.1146614E-10  0.0000000E+00  0.6486274E-08
  0.1499413E-02  0.0000000E+00 -0.5050505E-02  0.6191396E-11  0.0000000E+00  0.6489870E-08
  0.2762042E-02  0.0000000E+00 -0.5050505E-02  0.1080715E-11  0.0000000E+00  0.6491377E-08
 -0.5050505E-02  0.0000000E+00 -0.5050505E-02 -0.3375669E-11  0.0000000E+00  0.6490949E-08
 -0.5050505E-02  0.0000000E+00 -0.5050505E-02 -0.8126818E-11  0.0000000E+00  0.6488592E-08
 -0.5050505E-02  0.0000000E+00 -0.5050505E-02 -0.1357652E-10  0.0000000E+00  0.6484134E-08
 -0.5050505E-02  0.0000000E+00 -0.5050505E-02 -0.1895210E-10  0.0000000E+00  0.6477489E-08
 -0.5050505E-02  0.0000000E+00 -0.5050505E-02 -0.2414091E-10  0.0000000E+00  0.6468698E-08
 -0.5050505E-02  0.0000000E+00 -0.5050505E-02 -0.2915743E-10  0.0000000E+00  0.6457823E-08
 -0.5050505E-02  0.0000000E+00 -0.5050505E-02 -0.3401879E-10  0.0000000E+00  0.6444929E-08
 -0.5050504E-02  0.0000000E+00 -0.5050505E-02 -0.3872740E-10  0.0000000E+00  0.6430078E-08
 -0.5050501E-02  0.0000000E+00 -0.5050505E-02 -0.4327501E-10  0.0000000E+00  0.6413336E-08
 -0.5050495E-02  0.0000000E+00 -0.5050505E-02 -0.4764777E-10  0.0000000E+00  0.6394770E-08
 -0.5050482E-02  0.0000000E+00 -0.5050505E-02 -0.5182980E-10  0.0000000E+00  0.6374457E-08
 -0.5050449E-02  0.0000000E+00 -0.5050505E-02 -0.5580468E-10  0.0000000E+00  0.6352477E-08
 -0.5050376E-02  0.0000000E+00 -0.5050505E-02 -0.5955653E-10  0.0000000E+00  0.6328919E-08
 -0.5050299E-02  0.0000000E+00 -0.5050505E-02 -0.6307001E-10  0.0000000E+00  0.6303877E-08
 -0.5050178E-02  0.0000000E+00 -0.5050505E-02 -0.6633100E-10  0.0000000E+00  0.6277452E-08
 -0.5050018E-02  0.0000000E+00 -0.5050505E-02 -0.6932631E-10  0.0000000E+00  0.6249748E-08
 -0.5049710E-02  0.0000000E+00 -0.5050505E-02 -0.7204395E-10  0.0000000E+00  0.6220879E-08
 -0.5049253E-02  0.0000000E+00 -0.5050505E-02 -0.7447301E-10  0.0000000E+00  0.6190958E-08
 -0.5048636E-02  0.0000000E+00 -0.5050505E-02 -0.7660399E-10  0.0000000E+00  0.6160105E-08
 -0.5047442E-02  0.0000000E+00 -0.5050505E-02 -0.7842844E-10  0.0000000E+00  0.6128446E-08
 -0.5045727E-02  0.0000000E+00 -0.5050505E-02 -0.7993929E-10  0.0000000E+00  0.6096105E-08
 -0.5043261E-02  0.0000000E+00 -0.5050505E-02 -0.8113065E-10  0.0000000E+00  0.6063213E-08
 -0.5038714E-02  0.0000000E+00 -0.5050505E-02 -0.8199788E-10  0.0000000E+00  0.6029900E-08
 -0.5032318E-02  0.0000000E+00 -0.5050505E-02 -0.8253757E-10  0.0000000E+00  0.5996300E-08
 -0.5022454E-02  0.0000000E+00 -0.5050505E-02 -0.8274755E-10  0.0000000E+00  0.5962546E-08
 -0.5012589E-02  0.0000000E+00 -0.5050505E-02 -0.8262666E-10  0.0000000E+00  0.5928774E-08
 -0.5002725E-02  0.0000000E+00 -0.5050505E-02 -0.8217491E-10  0.0000000E+00  0.5895119E-08
 -0.4992860E-02  0.0000000E+00 -0.5050505E-02 -0.8139323E-10  0.0000000E+00  0.5861714E-08
 -0.4976523E-02  0.0000000E+00 -0.5050505E-02 -0.8028341E-10  0.0000000E+00  0.5828694E-08
 -0.4956794E-02  0.0000000E+00 -0.5050505E-02 -0.7884785E-10  0.0000000E+00  0.5796192E-08
 -0.4937066E-02  0.0000000E+00 -0.5050505E-02 -0.7708946E-10  0.0000000E+00  0.5764339E-08
 -0.4906239E-02  0.0000000E+00 -0.5050505E-02 -0.7501117E-10  0.0000000E+00  0.5733266E-08
 -0.4866782E-02  0.0000000E+00 -0.5050505E-02 -0.7261555E-10  0.0000000E+00  0.5703100E-08
 -0.4827325E-02  0.0000000E+00 -0.5050505E-02 -0.6990410E-10  0.0000000E+00  0.5673969E-08
 -0.4769372E-02  0.0000000E+00 -0.5050505E-02 -0.6687622E-10  0.0000000E+00  0.5645998E-08
 -0.4690458E-02  0.0000000E+00 -0.5050505E-02 -0.6352754E-10  0.0000000E+00  0.5619311E-08
 -0.4611543E-02  0.0000000E+00 -0.5050505E-02 -0.5984747E-10  0.0000000E+00  0.5594033E-08
 -0.4503035E-02  0.0000000E+00 -0.5050505E-02 -0.5581490E-10  0.0000000E+00  0.5570289E-08
 -0.4345206E-02  0.0000000E+00 -0.5050505E-02 -0.5139145E-10  0.0000000E+00  0.5548208E-08
 -0.4187378E-02  0.0000000E+00 -0.5050505E-02 -0.4650965E-10  0.0000000E+00  0.5527922E-08
 -0.3985156E-02  0.0000000E+00 -0.5050505E-02 -0.4105357E-10  0.0000000E+00  0.5509571E-08
 -0.3669499E-02  0.0000000E+00 -0.5050505E-02 -0.3482852E-10  0.0000000E+00  0.5493300E-08
 -0.3353842E-02  0.0000000E+00 -0.5050505E-02 -0.2751776E-10  0.0000000E+00  0.5479243E-08
 -0.2978990E-02  0.0000000E+00 -0.5050505E-02 -0.1863767E-10  0.0000000E+00  0.5467454E-08
 -0.2347676E-02  0.0000000E+00 -0.5050505E-02 -0.7220223E-11  0.0000000E+00  0.5457639E-08
 -0.1716362E-02  0.0000000E+00 -0.5050505E-02  0.8064403E-11  0.0000000E+00  0.5448663E-08
 -0.1025842E-02  0.0000000E+00 -0.5050505E-02  0.3073340E-10  0.0000000E+00  0.5437327E-08
  0.2367855E-03  0.0000000E+00 -0.5050505E-02  0.6397754E-10  0.0000000E+00  0.5414705E-08
  0.1499413E-02  0.0000000E+00 -0.5050505E-02  0.1067486E-09  0.0000000E+00  0.5361002E-08
  0.5287294E-02  0.0000000E+00 -0.5050505E-02  0.1209745E-09  0.0000000E+00  0.5256412E-08
 -0.5050505E-02  0.0000000E+00 -0.5050505E-02  0.2457834E-11  0.0000000E+00  0.5523223E-08
 -0.5050505E-02  0.0000000E+00 -0.5050505E-02  0.8966316E-11  0.0000000E+00  0.5525034E-08
 -0.5050505E-02  0.0000000E+00 -0.5050505E-02  0.1644254E-10  0.0000000E+00  0.5528887E-08
 -0.5050505E-02  0.0000000E+00 -0.5050505E-02  0.2365511E-10  0.0000000E+00  0.5534860E-08
 -0.5050505E-02  0.0000000E+00 -0.5050505E-02  0.3060612E-10  0.0000000E+00  0.5542899E-08
 -0.5050505E-02  0.0000000E+00 -0.5050505E-02  0.3732748E-10  0.0000000E+00  0.5552947E-08
 -0.5050504E-02  0.0000000E+00 -0.5050505E-02  0.4384444E-10  0.0000000E+00  0.5564949E-08
 -0.5050501E-02  0.0000000E+00 -0.5050505E-02  0.5015860E-10  0.0000000E+00  0.5578845E-08
 -0.5050495E-02  0.0000000E+00 -0.5050505E-02  0.5625959E-10  0.0000000E+00  0.5594575E-08
 -0.5050482E-02  0.0000000E+00 -0.5050505E-02  0.6213219E-10  0.0000000E+00  0.5612075E-08
 -0.5050449E-02  0.0000000E+00 -0.5050505E-02  0.6775490E-10  0.0000000E+00  0.5631274E-08
 -0.5050376E-02  0.0000000E+00 -0.5050505E-02  0.7310666E-10  0.0000000E+00  0.5652095E-08
 -0.5050299E-02  0.0000000E+00 -0.5050505E-02  0.7816731E-10  0.0000000E+00  0.5674455E-08
 -0.5050178E-02  0.0000000E+00 -0.5050505E-02  0.8291582E-10  0.0000000E+00  0.5698266E-08
 -0.5050018E-02  0.0000000E+00 -0.5050505E-02  0.8733287E-10  0.0000000E+00  0.5723432E-08
 -0.5049710E-02  0.0000000E+00 -0.5050505E-02  0.9140031E-10  0.0000000E+00  0.5749853E-08
 -0.5049253E-02  0.0000000E+00 -0.5050505E-02  0.9510095E-10  0.0000000E+00  0.5777423E-08
 -0.5048636E-02  0.0000000E+00 -0.5050505E-02  0.9841899E-10  0.0000000E+00  0.5806032E-08
 -0.5047442E-02  0.0000000E+00 -0.5050505E-02  0.1013400E-09  0.0000000E+00  0.5835564E-08
 -0.5045727E-02  0.0000000E+00 -0.5050505E-02  0.1038511E-09  0.0000000E+00  0.5865901E-08
 -0.5043261E-02  0.0000000E+00 -0.5050505E-02  0.1059409E-09  0.0000000E+00  0.5896920E-08
 -0.5038714E-02  0.0000000E+00 -0.5050505E-02  0.1075996E-09  0.0000000E+00  0.5928494E-08
 -0.5032318E-02  0.0000000E+00 -0.5050505E-02  0.1088190E-09  0.0000000E+00  0.5960496E-08
 -0.5022454E-02  0.0000000E+00 -0.5050505E-02  0.1095928E-09  0.0000000E+00  0.5992794E-08
 -0.5012589E-02  0.0000000E+00 -0.5050505E-02  0.1099162E-09  0.0000000E+00  0.6025256E-08
 -0.5002725E-02  0.0000000E+00 -0.5050505E-02  0.1097866E-09  0.0000000E+00  0.6057748E-08
 -0.4992860E-02  0.0000000E+00 -0.5050505E-02  0.1092029E-09  0.0000000E+00  0.6090136E-08
 -0.4976523E-02  0.0000000E+00 -0.5050505E-02  0.1081658E-09  0.0000000E+00  0.6122287E-08
 -0.4956794E-02  0.0000000E+00 -0.5050505E-02  0.1066781E-09  0.0000000E+00  0.6154066E-08
 -0.4937066E-02  0.0000000E+00 -0.5050505E-02  0.1047445E-09  0.0000000E+00  0.6185341E-08