title = "dataset feddes"
variables = "time", "absolute mass balance error", "relative mass balance error", "absolute cumulative mass balance error", "relative cumulative mass balance error" 
zone t = "mass balance error -  variably saturated flow", f=point
  1.0000E-10 -1.6952E-20 -7.6688E-18 -1.6952E-20 -7.6688E-18
  6.0000E-10  1.5523E-19  7.0221E-17  1.3827E-19  6.2552E-17
  3.1000E-09 -9.0620E-19 -4.0995E-16 -7.6793E-19 -3.4739E-16
  1.5600E-08 -9.2879E-19 -4.2016E-16 -1.6967E-18 -7.6756E-16
  7.8100E-08  6.3095E-19  2.8543E-16 -1.0658E-18 -4.8213E-16
  3.9060E-07  1.4724E-18  6.6607E-16  4.0661E-19  1.8394E-16
  1.9531E-06 -2.9566E-18 -1.3375E-15 -2.5499E-18 -1.1535E-15
  9.7656E-06  1.0387E-19  4.6990E-17 -2.4461E-18 -1.1065E-15
  4.8828E-05  3.0842E-18  1.3952E-15  6.3815E-19  2.8868E-16
  2.4414E-04 -1.0887E-18 -4.9250E-16 -4.5055E-19 -2.0382E-16
  1.2207E-03 -5.2328E-17 -2.3672E-14 -5.2778E-17 -2.3876E-14
  6.1035E-03 -1.8911E-14 -8.5548E-12 -1.8963E-14 -8.5786E-12
  3.0518E-02 -1.1494E-12 -5.1997E-10 -1.1684E-12 -5.2855E-10
  1.5259E-01 -1.4120E-11 -6.3875E-09 -1.5288E-11 -6.9161E-09
  7.6294E-01 -8.9358E-11 -4.0423E-08 -1.0465E-10 -4.7339E-08
  1.0000E+00 -2.3784E-11 -1.0759E-08 -1.2843E-10 -5.8099E-08
  2.0000E+00 -1.3911E-10 -6.2929E-08 -2.6754E-10 -1.2103E-07
  3.0000E+00 -1.4507E-10 -6.5626E-08 -4.1261E-10 -1.8665E-07
  4.0000E+00 -1.4260E-10 -6.4510E-08 -5.5521E-10 -2.5116E-07
  5.0000E+00 -1.3842E-10 -6.2616E-08 -6.9363E-10 -3.1378E-07
  6.0000E+00 -1.4676E-10 -6.6393E-08 -8.4039E-10 -3.8017E-07
  7.0000E+00 -1.3001E-10 -5.8813E-08 -9.7040E-10 -4.3899E-07
  8.0000E+00 -1.5090E-10 -6.8266E-08 -1.1213E-09 -5.0725E-07
  9.0000E+00  5.0357E-09  2.2780E-06  3.9144E-09  1.7708E-06
  1.0000E+01  1.0894E-08  4.9280E-06  1.4808E-08  6.6988E-06
  1.1000E+01  1.2181E-08  5.5102E-06  2.6989E-08  1.2209E-05
  1.2000E+01  1.4135E-08  6.3944E-06  4.1124E-08  1.8603E-05
  1.3000E+01  2.0043E-08  9.0668E-06  6.1166E-08  2.7670E-05
  1.4000E+01  2.4730E-08  1.1187E-05  8.5896E-08  3.8857E-05
  1.5000E+01  3.2264E-08  1.4595E-05  1.1816E-07  5.3453E-05
  1.6000E+01  2.5508E-08  1.1539E-05  1.4367E-07  6.4992E-05
  1.7000E+01  2.9922E-08  1.3536E-05  1.7359E-07  7.8528E-05
  1.8000E+01  5.1140E-08  2.3135E-05  2.2473E-07  1.0166E-04
  1.9000E+01  5.6938E-08  2.5757E-05  2.8167E-07  1.2742E-04
  2.0000E+01  7.4711E-08  3.3798E-05  3.5638E-07  1.6122E-04
  2.1000E+01  7.2039E-08  3.2589E-05  4.2842E-07  1.9381E-04
  2.2000E+01  8.7797E-08  3.9718E-05  5.1622E-07  2.3353E-04
  2.3000E+01  1.1682E-07  5.2846E-05  6.3303E-07  2.8637E-04
  2.4000E+01  1.3001E-07  5.8813E-05  7.6304E-07  3.4518E-04
  2.5000E+01  1.1514E-07  5.2085E-05  8.7818E-07  3.9727E-04
  2.6000E+01  1.5503E-07  7.0132E-05  1.0332E-06  4.6740E-04
  2.7000E+01  8.6624E-08  3.9187E-05  1.1198E-06  5.0659E-04
  2.8000E+01  1.6107E-07  7.2863E-05  1.2809E-06  5.7945E-04
  2.9000E+01  1.6351E-07  7.3969E-05  1.4444E-06  6.5342E-04
  3.0000E+01  3.3153E-07  1.4998E-04  1.7759E-06  8.0340E-04
  3.1000E+01  3.5398E-07  1.6013E-04  2.1299E-06  9.6354E-04
  3.2000E+01  5.0486E-07  2.2839E-04  2.6348E-06  1.1919E-03
  3.3000E+01  4.8823E-07  2.2087E-04  3.1230E-06  1.4128E-03
  3.4000E+01  8.1652E-07  3.6938E-04  3.9395E-06  1.7822E-03
  3.5000E+01  9.4055E-07  4.2549E-04  4.8801E-06  2.2077E-03
  3.6000E+01  1.0833E-06  4.9006E-04  5.9634E-06  2.6978E-03
  3.7000E+01  1.8673E-06  8.4474E-04  7.8306E-06  3.5425E-03
  3.8000E+01  2.2685E-06  1.0263E-03  1.0099E-05  4.5688E-03
  3.9000E+01  3.1910E-06  1.4436E-03  1.3290E-05  6.0125E-03
  4.0000E+01  5.6021E-06  2.5345E-03  1.8892E-05  8.5471E-03
  4.1000E+01  7.5997E-06  3.4383E-03  2.6492E-05  1.1986E-02
  4.2000E+01  1.0599E-05  4.7958E-03  3.7091E-05  1.6782E-02
  4.3000E+01  1.7802E-05  8.0551E-03  5.4893E-05  2.4839E-02
  4.4000E+01  2.5697E-05  1.1629E-02  8.0590E-05  3.6470E-02
  4.5000E+01  3.6429E-05  1.6488E-02  1.1702E-04  5.2964E-02
  4.6000E+01  4.3329E-05  1.9615E-02  1.6035E-04  7.2589E-02
  4.7000E+01  5.8814E-05  2.6632E-02  2.1916E-04  9.9240E-02
  4.8000E+01  8.0371E-05  3.6406E-02  2.9953E-04  1.3568E-01
  4.9000E+01  9.7407E-05  4.4143E-02  3.9694E-04  1.7988E-01
  5.0000E+01  1.2736E-04  5.7747E-02  5.2429E-04  2.3773E-01
  5.1000E+01  1.4356E-04  6.5135E-02  6.6785E-04  3.0302E-01
  5.2000E+01  1.7982E-04  8.1655E-02  8.4768E-04  3.8492E-01
  5.3000E+01  2.2541E-04  1.0246E-01  1.0731E-03  4.8776E-01
  5.4000E+01  2.4911E-04  1.1335E-01  1.3222E-03  6.0165E-01
  5.5000E+01  2.7858E-04  1.2692E-01  1.6008E-03  7.2930E-01
  5.6000E+01  3.4999E-04  1.5970E-01  1.9508E-03  8.9011E-01
  5.7000E+01  3.8377E-04  1.7540E-01  2.3345E-03  1.0670E+00
  5.8000E+01  4.5822E-04  2.0985E-01  2.7928E-03  1.2790E+00
  5.9000E+01  5.2462E-04  2.4081E-01  3.3174E-03  1.5227E+00
  6.0000E+01  5.9731E-04  2.7489E-01  3.9147E-03  1.8016E+00
