title = "dataset feddes"
variables = "x", "y", "z", "vx", "vy", "vz"
zone t = "velocities, solution time =  1.400E+01 days        " i =   99, j =   99, k =    1,  f=point
 -0.5050505E-02  0.0000000E+00 -0.5050505E-02  0.9747181E-16  0.0000000E+00 -0.1927192E-10
 -0.5050505E-02  0.0000000E+00 -0.5050505E-02  0.4638908E-13  0.0000000E+00 -0.1922544E-10
 -0.5050505E-02  0.0000000E+00 -0.5050505E-02  0.1063867E-12  0.0000000E+00 -0.1907266E-10
 -0.5050505E-02  0.0000000E+00 -0.5050505E-02  0.1584592E-12  0.0000000E+00 -0.1880782E-10
 -0.5050505E-02  0.0000000E+00 -0.5050505E-02  0.2075250E-12  0.0000000E+00 -0.1844183E-10
 -0.5050505E-02  0.0000000E+00 -0.5050505E-02  0.2545889E-12  0.0000000E+00 -0.1797972E-10
 -0.5050504E-02  0.0000000E+00 -0.5050505E-02  0.3001307E-12  0.0000000E+00 -0.1742500E-10
 -0.5050501E-02  0.0000000E+00 -0.5050505E-02  0.3442329E-12  0.0000000E+00 -0.1678063E-10
 -0.5050495E-02  0.0000000E+00 -0.5050505E-02  0.3868431E-12  0.0000000E+00 -0.1604956E-10
 -0.5050482E-02  0.0000000E+00 -0.5050505E-02  0.4278937E-12  0.0000000E+00 -0.1523482E-10
 -0.5050449E-02  0.0000000E+00 -0.5050505E-02  0.4672574E-12  0.0000000E+00 -0.1433967E-10
 -0.5050376E-02  0.0000000E+00 -0.5050505E-02  0.5048065E-12  0.0000000E+00 -0.1336761E-10
 -0.5050299E-02  0.0000000E+00 -0.5050505E-02  0.5404062E-12  0.0000000E+00 -0.1232239E-10
 -0.5050178E-02  0.0000000E+00 -0.5050505E-02  0.5738990E-12  0.0000000E+00 -0.1120809E-10
 -0.5050018E-02  0.0000000E+00 -0.5050505E-02  0.6051950E-12  0.0000000E+00 -0.1002899E-10
 -0.5049710E-02  0.0000000E+00 -0.5050505E-02  0.6341591E-12  0.0000000E+00 -0.8789640E-11
 -0.5049253E-02  0.0000000E+00 -0.5050505E-02  0.6606864E-12  0.0000000E+00 -0.7494795E-11
 -0.5048636E-02  0.0000000E+00 -0.5050505E-02  0.6846495E-12  0.0000000E+00 -0.6149459E-11
 -0.5047442E-02  0.0000000E+00 -0.5050505E-02  0.7060033E-12  0.0000000E+00 -0.4758806E-11
 -0.5045727E-02  0.0000000E+00 -0.5050505E-02  0.7246579E-12  0.0000000E+00 -0.3328145E-11
 -0.5043261E-02  0.0000000E+00 -0.5050505E-02  0.7405683E-12  0.0000000E+00 -0.1862919E-11
 -0.5038714E-02  0.0000000E+00 -0.5050505E-02  0.7536520E-12  0.0000000E+00 -0.3676087E-12
 -0.5032318E-02  0.0000000E+00 -0.5050505E-02  0.7638941E-12  0.0000000E+00  0.1155351E-11
 -0.5022454E-02  0.0000000E+00 -0.5050505E-02  0.7710770E-12  0.0000000E+00  0.2699012E-11
 -0.5012589E-02  0.0000000E+00 -0.5050505E-02  0.7748034E-12  0.0000000E+00  0.4253644E-11
 -0.5002725E-02  0.0000000E+00 -0.5050505E-02  0.7753657E-12  0.0000000E+00  0.5812588E-11
 -0.4992860E-02  0.0000000E+00 -0.5050505E-02  0.7701098E-12  0.0000000E+00  0.7366813E-11
 -0.4976523E-02  0.0000000E+00 -0.5050505E-02  0.7605500E-12  0.0000000E+00  0.8906138E-11
 -0.4956794E-02  0.0000000E+00 -0.5050505E-02  0.7496257E-12  0.0000000E+00  0.1042486E-10
 -0.4937066E-02  0.0000000E+00 -0.5050505E-02  0.7359646E-12  0.0000000E+00  0.1191886E-10
 -0.4906239E-02  0.0000000E+00 -0.5050505E-02  0.7194619E-12  0.0000000E+00  0.1338253E-10
 -0.4866782E-02  0.0000000E+00 -0.5050505E-02  0.7000275E-12  0.0000000E+00  0.1481005E-10
 -0.4827325E-02  0.0000000E+00 -0.5050505E-02  0.6776315E-12  0.0000000E+00  0.1619551E-10
 -0.4769372E-02  0.0000000E+00 -0.5050505E-02  0.6523263E-12  0.0000000E+00  0.1753300E-10
 -0.4690458E-02  0.0000000E+00 -0.5050505E-02  0.6241870E-12  0.0000000E+00  0.1881674E-10
 -0.4611543E-02  0.0000000E+00 -0.5050505E-02  0.5933034E-12  0.0000000E+00  0.2004112E-10
 -0.4503035E-02  0.0000000E+00 -0.5050505E-02  0.5598031E-12  0.0000000E+00  0.2120076E-10
 -0.4345206E-02  0.0000000E+00 -0.5050505E-02  0.5238060E-12  0.0000000E+00  0.2229050E-10
 -0.4187378E-02  0.0000000E+00 -0.5050505E-02  0.4854321E-12  0.0000000E+00  0.2330545E-10
 -0.3985156E-02  0.0000000E+00 -0.5050505E-02  0.4448463E-12  0.0000000E+00  0.2424100E-10
 -0.3669499E-02  0.0000000E+00 -0.5050505E-02  0.4022212E-12  0.0000000E+00  0.2509286E-10
 -0.3353842E-02  0.0000000E+00 -0.5050505E-02  0.3576990E-12  0.0000000E+00  0.2585708E-10
 -0.2978990E-02  0.0000000E+00 -0.5050505E-02  0.3113699E-12  0.0000000E+00  0.2652994E-10
 -0.2347676E-02  0.0000000E+00 -0.5050505E-02  0.2634438E-12  0.0000000E+00  0.2710800E-10
 -0.1716362E-02  0.0000000E+00 -0.5050505E-02  0.2139281E-12  0.0000000E+00  0.2758808E-10
 -0.1025842E-02  0.0000000E+00 -0.5050505E-02  0.1630553E-12  0.0000000E+00  0.2796720E-10
  0.2367855E-03  0.0000000E+00 -0.5050505E-02  0.1111179E-12  0.0000000E+00  0.2824292E-10
  0.1499413E-02  0.0000000E+00 -0.5050505E-02  0.5849808E-13  0.0000000E+00  0.2841350E-10
  0.2762042E-02  0.0000000E+00 -0.5050505E-02  0.5990767E-14  0.0000000E+00  0.2847835E-10
 -0.5050505E-02  0.0000000E+00 -0.5050505E-02 -0.3702429E-13  0.0000000E+00  0.2844714E-10
 -0.5050505E-02  0.0000000E+00 -0.5050505E-02 -0.8282104E-13  0.0000000E+00  0.2832662E-10
 -0.5050505E-02  0.0000000E+00 -0.5050505E-02 -0.1379601E-12  0.0000000E+00  0.2810459E-10
 -0.5050505E-02  0.0000000E+00 -0.5050505E-02 -0.1917870E-12  0.0000000E+00  0.2777297E-10
 -0.5050505E-02  0.0000000E+00 -0.5050505E-02 -0.2433121E-12  0.0000000E+00  0.2733541E-10
 -0.5050505E-02  0.0000000E+00 -0.5050505E-02 -0.2928803E-12  0.0000000E+00  0.2679618E-10
 -0.5050505E-02  0.0000000E+00 -0.5050505E-02 -0.3407839E-12  0.0000000E+00  0.2615893E-10
 -0.5050504E-02  0.0000000E+00 -0.5050505E-02 -0.3871280E-12  0.0000000E+00  0.2542690E-10
 -0.5050501E-02  0.0000000E+00 -0.5050505E-02 -0.4317551E-12  0.0000000E+00  0.2460338E-10
 -0.5050495E-02  0.0000000E+00 -0.5050505E-02 -0.4745902E-12  0.0000000E+00  0.2369191E-10
 -0.5050482E-02  0.0000000E+00 -0.5050505E-02 -0.5154084E-12  0.0000000E+00  0.2269630E-10
 -0.5050449E-02  0.0000000E+00 -0.5050505E-02 -0.5541122E-12  0.0000000E+00  0.2162073E-10
 -0.5050376E-02  0.0000000E+00 -0.5050505E-02 -0.5904842E-12  0.0000000E+00  0.2046965E-10
 -0.5050299E-02  0.0000000E+00 -0.5050505E-02 -0.6243819E-12  0.0000000E+00  0.1924791E-10
 -0.5050178E-02  0.0000000E+00 -0.5050505E-02 -0.6557603E-12  0.0000000E+00  0.1796052E-10
 -0.5050018E-02  0.0000000E+00 -0.5050505E-02 -0.6843571E-12  0.0000000E+00  0.1661281E-10
 -0.5049710E-02  0.0000000E+00 -0.5050505E-02 -0.7102546E-12  0.0000000E+00  0.1521031E-10
 -0.5049253E-02  0.0000000E+00 -0.5050505E-02 -0.7332654E-12  0.0000000E+00  0.1375862E-10
 -0.5048636E-02  0.0000000E+00 -0.5050505E-02 -0.7534721E-12  0.0000000E+00  0.1226346E-10
 -0.5047442E-02  0.0000000E+00 -0.5050505E-02 -0.7708520E-12  0.0000000E+00  0.1073051E-10
 -0.5045727E-02  0.0000000E+00 -0.5050505E-02 -0.7856378E-12  0.0000000E+00  0.9165207E-11
 -0.5043261E-02  0.0000000E+00 -0.5050505E-02 -0.7987965E-12  0.0000000E+00  0.7571803E-11
 -0.5038714E-02  0.0000000E+00 -0.5050505E-02 -0.8088286E-12  0.0000000E+00  0.5955077E-11
 -0.5032318E-02  0.0000000E+00 -0.5050505E-02 -0.8137021E-12  0.0000000E+00  0.4323361E-11
 -0.5022454E-02  0.0000000E+00 -0.5050505E-02 -0.8138071E-12  0.0000000E+00  0.2686638E-11
 -0.5012589E-02  0.0000000E+00 -0.5050505E-02 -0.8097658E-12  0.0000000E+00  0.1053874E-11
 -0.5002725E-02  0.0000000E+00 -0.5050505E-02 -0.8027928E-12  0.0000000E+00 -0.5639425E-12
 -0.4992860E-02  0.0000000E+00 -0.5050505E-02 -0.7933155E-12  0.0000000E+00 -0.2160725E-11
 -0.4976523E-02  0.0000000E+00 -0.5050505E-02 -0.7812365E-12  0.0000000E+00 -0.3735277E-11
 -0.4956794E-02  0.0000000E+00 -0.5050505E-02 -0.7665183E-12  0.0000000E+00 -0.5283032E-11
 -0.4937066E-02  0.0000000E+00 -0.5050505E-02 -0.7491083E-12  0.0000000E+00 -0.6798659E-11
 -0.4906239E-02  0.0000000E+00 -0.5050505E-02 -0.7290666E-12  0.0000000E+00 -0.8276834E-11
 -0.4866782E-02  0.0000000E+00 -0.5050505E-02 -0.7064607E-12  0.0000000E+00 -0.9712361E-11
 -0.4827325E-02  0.0000000E+00 -0.5050505E-02 -0.6813654E-12  0.0000000E+00 -0.1110019E-10
 -0.4769372E-02  0.0000000E+00 -0.5050505E-02 -0.6538634E-12  0.0000000E+00 -0.1243542E-10
 -0.4690458E-02  0.0000000E+00 -0.5050505E-02 -0.6241345E-12  0.0000000E+00 -0.1371341E-10
 -0.4611543E-02  0.0000000E+00 -0.5050505E-02 -0.5922687E-12  0.0000000E+00 -0.1492982E-10
 -0.4503035E-02  0.0000000E+00 -0.5050505E-02 -0.5584610E-12  0.0000000E+00 -0.1608055E-10
 -0.4345206E-02  0.0000000E+00 -0.5050505E-02 -0.5228913E-12  0.0000000E+00 -0.1716190E-10
 -0.4187378E-02  0.0000000E+00 -0.5050505E-02 -0.4858445E-12  0.0000000E+00 -0.1817063E-10
 -0.3985156E-02  0.0000000E+00 -0.5050505E-02 -0.4475830E-12  0.0000000E+00 -0.1910406E-10
 -0.3669499E-02  0.0000000E+00 -0.5050505E-02 -0.4085943E-12  0.0000000E+00 -0.1996024E-10
 -0.3353842E-02  0.0000000E+00 -0.5050505E-02 -0.3695456E-12  0.0000000E+00 -0.2073838E-10
 -0.2978990E-02  0.0000000E+00 -0.5050505E-02 -0.3317490E-12  0.0000000E+00 -0.2143967E-10
 -0.2347676E-02  0.0000000E+00 -0.5050505E-02 -0.2977689E-12  0.0000000E+00 -0.2206919E-10
 -0.1716362E-02  0.0000000E+00 -0.5050505E-02 -0.2734759E-12  0.0000000E+00 -0.2264044E-10
 -0.1025842E-02  0.0000000E+00 -0.5050505E-02 -0.2745331E-12  0.0000000E+00 -0.2318845E-10
  0.2367855E-03  0.0000000E+00 -0.5050505E-02 -0.3467072E-12  0.0000000E+00 -0.2380969E-10
  0.1499413E-02  0.0000000E+00 -0.5050505E-02 -0.6396625E-12  0.0000000E+00 -0.2479606E-10
  0.5287294E-02  0.0000000E+00 -0.5050505E-02 -0.8945766E-11  0.0000000E+00 -0.1991258E-10
 -0.5050505E-02  0.0000000E+00 -0.5050505E-02  0.7791758E-14  0.0000000E+00 -0.1884384E-10
 -0.5050505E-02  0.0000000E+00 -0.5050505E-02  0.1471380E-12  0.0000000E+00 -0.1878162E-10
 -0.5050505E-02  0.0000000E+00 -0.5050505E-02  0.3223114E-12  0.0000000E+00 -0.1861686E-10
 -0.5050505E-02  0.0000000E+00 -0.5050505E-02  0.4770265E-12  0.0000000E+00 -0.1834573E-10
 -0.5050505E-02  0.0000000E+00 -0.5050505E-02  0.6238067E-12  0.0000000E+00 -0.1797481E-10
 -0.5050505E-02  0.0000000E+00 -0.5050505E-02  0.7649914E-12  0.0000000E+00 -0.1750764E-10
 -0.5050504E-02  0.0000000E+00 -0.5050505E-02  0.9016867E-12  0.0000000E+00 -0.1694728E-10
 -0.5050501E-02  0.0000000E+00 -0.5050505E-02  0.1034124E-11  0.0000000E+00 -0.1629658E-10
 -0.5050495E-02  0.0000000E+00 -0.5050505E-02  0.1162110E-11  0.0000000E+00 -0.1555839E-10
 -0.5050482E-02  0.0000000E+00 -0.5050505E-02  0.1285419E-11  0.0000000E+00 -0.1473576E-10
 -0.5050449E-02  0.0000000E+00 -0.5050505E-02  0.1403664E-11  0.0000000E+00 -0.1383195E-10
 -0.5050376E-02  0.0000000E+00 -0.5050505E-02  0.1516493E-11  0.0000000E+00 -0.1285046E-10
 -0.5050299E-02  0.0000000E+00 -0.5050505E-02  0.1623422E-11  0.0000000E+00 -0.1179509E-10
 -0.5050178E-02  0.0000000E+00 -0.5050505E-02  0.1724075E-11  0.0000000E+00 -0.1066995E-10
 -0.5050018E-02  0.0000000E+00 -0.5050505E-02  0.1818126E-11  0.0000000E+00 -0.9479308E-11
 -0.5049710E-02  0.0000000E+00 -0.5050505E-02  0.1905192E-11  0.0000000E+00 -0.8227734E-11
 -0.5049253E-02  0.0000000E+00 -0.5050505E-02  0.1984894E-11  0.0000000E+00 -0.6920063E-11
 -0.5048636E-02  0.0000000E+00 -0.5050505E-02  0.2057006E-11  0.0000000E+00 -0.5561276E-11
 -0.5047442E-02  0.0000000E+00 -0.5050505E-02  0.2121230E-11  0.0000000E+00 -0.4156532E-11
 -0.5045727E-02  0.0000000E+00 -0.5050505E-02  0.2177372E-11  0.0000000E+00 -0.2711214E-11
 -0.5043261E-02  0.0000000E+00 -0.5050505E-02  0.2225237E-11  0.0000000E+00 -0.1230825E-11
 -0.5038714E-02  0.0000000E+00 -0.5050505E-02  0.2264722E-11  0.0000000E+00  0.2820297E-12
 -0.5032318E-02  0.0000000E+00 -0.5050505E-02  0.2295728E-11  0.0000000E+00  0.1823218E-11
 -0.5022454E-02  0.0000000E+00 -0.5050505E-02  0.2317651E-11  0.0000000E+00  0.3384049E-11
 -0.5012589E-02  0.0000000E+00 -0.5050505E-02  0.2328415E-11  0.0000000E+00  0.4955872E-11
 -0.5002725E-02  0.0000000E+00 -0.5050505E-02  0.2331893E-11  0.0000000E+00  0.6533415E-11
 -0.4992860E-02  0.0000000E+00 -0.5050505E-02  0.2305880E-11  0.0000000E+00  0.8097710E-11
 -0.4976523E-02  0.0000000E+00 -0.5050505E-02  0.2283169E-11  0.0000000E+00  0.9642721E-11
 -0.4956794E-02  0.0000000E+00 -0.5050505E-02  0.2251443E-11  0.0000000E+00  0.1117407E-10
 -0.4937066E-02  0.0000000E+00 -0.5050505E-02  0.2210837E-11  0.0000000E+00  0.1268199E-10
 -0.4906239E-02  0.0000000E+00 -0.5050505E-02  0.2161432E-11  0.0000000E+00  0.1415989E-10
 -0.4866782E-02  0.0000000E+00 -0.5050505E-02  0.2103087E-11  0.0000000E+00  0.1560150E-10
 -0.4827325E-02  0.0000000E+00 -0.5050505E-02  0.2035874E-11  0.0000000E+00  0.1700075E-10
 -0.4769372E-02  0.0000000E+00 -0.5050505E-02  0.1959863E-11  0.0000000E+00  0.1835163E-10
 -0.4690458E-02  0.0000000E+00 -0.5050505E-02  0.1875321E-11  0.0000000E+00  0.1964825E-10
 -0.4611543E-02  0.0000000E+00 -0.5050505E-02  0.1782578E-11  0.0000000E+00  0.2088495E-10
 -0.4503035E-02  0.0000000E+00 -0.5050505E-02  0.1681939E-11  0.0000000E+00  0.2205632E-10
 -0.4345206E-02  0.0000000E+00 -0.5050505E-02  0.1573800E-11  0.0000000E+00  0.2315711E-10
 -0.4187378E-02  0.0000000E+00 -0.5050505E-02  0.1458543E-11  0.0000000E+00  0.2418241E-10
 -0.3985156E-02  0.0000000E+00 -0.5050505E-02  0.1336645E-11  0.0000000E+00  0.2512758E-10
 -0.3669499E-02  0.0000000E+00 -0.5050505E-02  0.1208615E-11  0.0000000E+00  0.2598830E-10
 -0.3353842E-02  0.0000000E+00 -0.5050505E-02  0.1074833E-11  0.0000000E+00  0.2676052E-10
 -0.2978990E-02  0.0000000E+00 -0.5050505E-02  0.9357404E-12  0.0000000E+00  0.2744053E-10
 -0.2347676E-02  0.0000000E+00 -0.5050505E-02  0.7916655E-12  0.0000000E+00  0.2802482E-10
 -0.1716362E-02  0.0000000E+00 -0.5050505E-02  0.6428995E-12  0.0000000E+00  0.2851005E-10
 -0.1025842E-02  0.0000000E+00 -0.5050505E-02  0.4899059E-12  0.0000000E+00  0.2889316E-10
  0.2367855E-03  0.0000000E+00 -0.5050505E-02  0.3335066E-12  0.0000000E+00  0.2917133E-10
  0.1499413E-02  0.0000000E+00 -0.5050505E-02  0.1755452E-12  0.0000000E+00  0.2934307E-10
  0.2762042E-02  0.0000000E+00 -0.5050505E-02  0.2005968E-13  0.0000000E+00  0.2941044E-10
 -0.5050505E-02  0.0000000E+00 -0.5050505E-02 -0.1107388E-12  0.0000000E+00  0.2938149E-10
 -0.5050505E-02  0.0000000E+00 -0.5050505E-02 -0.2503656E-12  0.0000000E+00  0.2925871E-10
 -0.5050505E-02  0.0000000E+00 -0.5050505E-02 -0.4147605E-12  0.0000000E+00  0.2903264E-10
 -0.5050505E-02  0.0000000E+00 -0.5050505E-02 -0.5759421E-12  0.0000000E+00  0.2869769E-10
 -0.5050505E-02  0.0000000E+00 -0.5050505E-02 -0.7306243E-12  0.0000000E+00  0.2825640E-10
 -0.5050505E-02  0.0000000E+00 -0.5050505E-02 -0.8795994E-12  0.0000000E+00  0.2771249E-10
 -0.5050505E-02  0.0000000E+00 -0.5050505E-02 -0.1023637E-11  0.0000000E+00  0.2706941E-10
 -0.5050504E-02  0.0000000E+00 -0.5050505E-02 -0.1162849E-11  0.0000000E+00  0.2633051E-10
 -0.5050501E-02  0.0000000E+00 -0.5050505E-02 -0.1296967E-11  0.0000000E+00  0.2549919E-10
 -0.5050495E-02  0.0000000E+00 -0.5050505E-02 -0.1425640E-11  0.0000000E+00  0.2457901E-10
 -0.5050482E-02  0.0000000E+00 -0.5050505E-02 -0.1548299E-11  0.0000000E+00  0.2357386E-10
 -0.5050449E-02  0.0000000E+00 -0.5050505E-02 -0.1664550E-11  0.0000000E+00  0.2248794E-10
 -0.5050376E-02  0.0000000E+00 -0.5050505E-02 -0.1773816E-11  0.0000000E+00  0.2132580E-10
 -0.5050299E-02  0.0000000E+00 -0.5050505E-02 -0.1875717E-11  0.0000000E+00  0.2009225E-10
 -0.5050178E-02  0.0000000E+00 -0.5050505E-02 -0.1969880E-11  0.0000000E+00  0.1879244E-10
 -0.5050018E-02  0.0000000E+00 -0.5050505E-02 -0.2055864E-11  0.0000000E+00  0.1743175E-10
 -0.5049710E-02  0.0000000E+00 -0.5050505E-02 -0.2133556E-11  0.0000000E+00  0.1601577E-10
 -0.5049253E-02  0.0000000E+00 -0.5050505E-02 -0.2202680E-11  0.0000000E+00  0.1455022E-10
 -0.5048636E-02  0.0000000E+00 -0.5050505E-02 -0.2263259E-11  0.0000000E+00  0.1304093E-10
 -0.5047442E-02  0.0000000E+00 -0.5050505E-02 -0.2315308E-11  0.0000000E+00  0.1149375E-10
 -0.5045727E-02  0.0000000E+00 -0.5050505E-02 -0.2358814E-11  0.0000000E+00  0.9914990E-11
 -0.5043261E-02  0.0000000E+00 -0.5050505E-02 -0.2392654E-11  0.0000000E+00  0.8314495E-11
 -0.5038714E-02  0.0000000E+00 -0.5050505E-02 -0.2431249E-11  0.0000000E+00  0.6687668E-11
 -0.5032318E-02  0.0000000E+00 -0.5050505E-02 -0.2442192E-11  0.0000000E+00  0.5040919E-11
 -0.5022454E-02  0.0000000E+00 -0.5050505E-02 -0.2445033E-11  0.0000000E+00  0.3390294E-11
 -0.5012589E-02  0.0000000E+00 -0.5050505E-02 -0.2433797E-11  0.0000000E+00  0.1740217E-11
 -0.5002725E-02  0.0000000E+00 -0.5050505E-02 -0.2413046E-11  0.0000000E+00  0.1022285E-12
 -0.4992860E-02  0.0000000E+00 -0.5050505E-02 -0.2384400E-11  0.0000000E+00 -0.1514544E-11
 -0.4976523E-02  0.0000000E+00 -0.5050505E-02 -0.2347896E-11  0.0000000E+00 -0.3106583E-11
 -0.4956794E-02  0.0000000E+00 -0.5050505E-02 -0.2303288E-11  0.0000000E+00 -0.4670953E-11
 -0.4937066E-02  0.0000000E+00 -0.5050505E-02 -0.2250784E-11  0.0000000E+00 -0.6202288E-11
 -0.4906239E-02  0.0000000E+00 -0.5050505E-02 -0.2190384E-11  0.0000000E+00 -0.7695412E-11
 -0.4866782E-02  0.0000000E+00 -0.5050505E-02 -0.2122336E-11  0.0000000E+00 -0.9145143E-11
 -0.4827325E-02  0.0000000E+00 -0.5050505E-02 -0.2046795E-11  0.0000000E+00 -0.1054642E-10
 -0.4769372E-02  0.0000000E+00 -0.5050505E-02 -0.1964114E-11  0.0000000E+00 -0.1189437E-10
 -0.4690458E-02  0.0000000E+00 -0.5050505E-02 -0.1874695E-11  0.0000000E+00 -0.1318437E-10
 -0.4611543E-02  0.0000000E+00 -0.5050505E-02 -0.1778889E-11  0.0000000E+00 -0.1441198E-10
 -0.4503035E-02  0.0000000E+00 -0.5050505E-02 -0.1677227E-11  0.0000000E+00 -0.1557310E-10
 -0.4345206E-02  0.0000000E+00 -0.5050505E-02 -0.1570254E-11  0.0000000E+00 -0.1666395E-10
 -0.4187378E-02  0.0000000E+00 -0.5050505E-02 -0.1458724E-11  0.0000000E+00 -0.1768113E-10
 -0.3985156E-02  0.0000000E+00 -0.5050505E-02 -0.1343453E-11  0.0000000E+00 -0.1862169E-10
 -0.3669499E-02  0.0000000E+00 -0.5050505E-02 -0.1225695E-11  0.0000000E+00 -0.1948330E-10
 -0.3353842E-02  0.0000000E+00 -0.5050505E-02 -0.1107191E-11  0.0000000E+00 -0.2026427E-10
 -0.2978990E-02  0.0000000E+00 -0.5050505E-02 -0.9910569E-12  0.0000000E+00 -0.2096387E-10
 -0.2347676E-02  0.0000000E+00 -0.5050505E-02 -0.8827657E-12  0.0000000E+00 -0.2158220E-10
 -0.1716362E-02  0.0000000E+00 -0.5050505E-02 -0.7937498E-12  0.0000000E+00 -0.2211943E-10
 -0.1025842E-02  0.0000000E+00 -0.5050505E-02 -0.7499311E-12  0.0000000E+00 -0.2257017E-10
  0.2367855E-03  0.0000000E+00 -0.5050505E-02 -0.8139711E-12  0.0000000E+00 -0.2289509E-10
  0.1499413E-02  0.0000000E+00 -0.5050505E-02 -0.1147970E-11  0.0000000E+00 -0.2288983E-10
  0.5287294E-02  0.0000000E+00 -0.5050505E-02 -0.2189727E-11  0.0000000E+00 -0.2157950E-10
 -0.5050505E-02  0.0000000E+00 -0.5050505E-02  0.3058838E-13  0.0000000E+00 -0.1793714E-10
 -0.5050505E-02  0.0000000E+00 -0.5050505E-02  0.2614079E-12  0.0000000E+00 -0.1786142E-10
 -0.5050505E-02  0.0000000E+00 -0.5050505E-02  0.5452793E-12  0.0000000E+00 -0.1768630E-10
 -0.5050505E-02  0.0000000E+00 -0.5050505E-02  0.8007296E-12  0.0000000E+00 -0.1740628E-10
 -0.5050505E-02  0.0000000E+00 -0.5050505E-02  0.1044839E-11  0.0000000E+00 -0.1702629E-10
 -0.5050505E-02  0.0000000E+00 -0.5050505E-02  0.1280520E-11  0.0000000E+00 -0.1654910E-10
 -0.5050504E-02  0.0000000E+00 -0.5050505E-02  0.1508927E-11  0.0000000E+00 -0.1597733E-10
 -0.5050501E-02  0.0000000E+00 -0.5050505E-02  0.1730334E-11  0.0000000E+00 -0.1531372E-10
 -0.5050495E-02  0.0000000E+00 -0.5050505E-02  0.1944392E-11  0.0000000E+00 -0.1456110E-10
 -0.5050482E-02  0.0000000E+00 -0.5050505E-02  0.2150678E-11  0.0000000E+00 -0.1372245E-10
 -0.5050449E-02  0.0000000E+00 -0.5050505E-02  0.2348545E-11  0.0000000E+00 -0.1280103E-10
 -0.5050376E-02  0.0000000E+00 -0.5050505E-02  0.2537354E-11  0.0000000E+00 -0.1180039E-10
 -0.5050299E-02  0.0000000E+00 -0.5050505E-02  0.2716281E-11  0.0000000E+00 -0.1072441E-10
 -0.5050178E-02  0.0000000E+00 -0.5050505E-02  0.2884841E-11  0.0000000E+00 -0.9577152E-11
 -0.5050018E-02  0.0000000E+00 -0.5050505E-02  0.3042338E-11  0.0000000E+00 -0.8362935E-11
 -0.5049710E-02  0.0000000E+00 -0.5050505E-02  0.3188162E-11  0.0000000E+00 -0.7086433E-11
 -0.5049253E-02  0.0000000E+00 -0.5050505E-02  0.3321724E-11  0.0000000E+00 -0.5752474E-11
 -0.5048636E-02  0.0000000E+00 -0.5050505E-02  0.3442641E-11  0.0000000E+00 -0.4366114E-11
 -0.5047442E-02  0.0000000E+00 -0.5050505E-02  0.3550449E-11  0.0000000E+00 -0.2932557E-11
 -0.5045727E-02  0.0000000E+00 -0.5050505E-02  0.3644682E-11  0.0000000E+00 -0.1457222E-11
 -0.5043261E-02  0.0000000E+00 -0.5050505E-02  0.3725036E-11  0.0000000E+00  0.5651029E-13
 -0.5038714E-02  0.0000000E+00 -0.5050505E-02  0.3791286E-11  0.0000000E+00  0.1604848E-11
 -0.5032318E-02  0.0000000E+00 -0.5050505E-02  0.3843863E-11  0.0000000E+00  0.3180089E-11
 -0.5022454E-02  0.0000000E+00 -0.5050505E-02  0.3881920E-11  0.0000000E+00  0.4775266E-11
 -0.5012589E-02  0.0000000E+00 -0.5050505E-02  0.3895059E-11  0.0000000E+00  0.6378250E-11
 -0.5002725E-02  0.0000000E+00 -0.5050505E-02  0.3887224E-11  0.0000000E+00  0.7966605E-11
 -0.4992860E-02  0.0000000E+00 -0.5050505E-02  0.3853241E-11  0.0000000E+00  0.9548691E-11
 -0.4976523E-02  0.0000000E+00 -0.5050505E-02  0.3818107E-11  0.0000000E+00  0.1112928E-10
 -0.4956794E-02  0.0000000E+00 -0.5050505E-02  0.3766160E-11  0.0000000E+00  0.1269039E-10
 -0.4937066E-02  0.0000000E+00 -0.5050505E-02  0.3698950E-11  0.0000000E+00  0.1422744E-10
 -0.4906239E-02  0.0000000E+00 -0.5050505E-02  0.3616657E-11  0.0000000E+00  0.1573417E-10
 -0.4866782E-02  0.0000000E+00 -0.5050505E-02  0.3519235E-11  0.0000000E+00  0.1720420E-10
 -0.4827325E-02  0.0000000E+00 -0.5050505E-02  0.3406834E-11  0.0000000E+00  0.1863115E-10
 -0.4769372E-02  0.0000000E+00 -0.5050505E-02  0.3279698E-11  0.0000000E+00  0.2000880E-10
 -0.4690458E-02  0.0000000E+00 -0.5050505E-02  0.3138318E-11  0.0000000E+00  0.2133124E-10
 -0.4611543E-02  0.0000000E+00 -0.5050505E-02  0.2983161E-11  0.0000000E+00  0.2259267E-10
 -0.4503035E-02  0.0000000E+00 -0.5050505E-02  0.2814808E-11  0.0000000E+00  0.2378748E-10
 -0.4345206E-02  0.0000000E+00 -0.5050505E-02  0.2633905E-11  0.0000000E+00  0.2491041E-10
 -0.4187378E-02  0.0000000E+00 -0.5050505E-02  0.2441106E-11  0.0000000E+00  0.2595643E-10
 -0.3985156E-02  0.0000000E+00 -0.5050505E-02  0.2237213E-11  0.0000000E+00  0.2692079E-10
 -0.3669499E-02  0.0000000E+00 -0.5050505E-02  0.2022991E-11  0.0000000E+00  0.2779906E-10
 -0.3353842E-02  0.0000000E+00 -0.5050505E-02  0.1799206E-11  0.0000000E+00  0.2858716E-10
 -0.2978990E-02  0.0000000E+00 -0.5050505E-02  0.1566513E-11  0.0000000E+00  0.2928129E-10
 -0.2347676E-02  0.0000000E+00 -0.5050505E-02  0.1325430E-11  0.0000000E+00  0.2987786E-10
 -0.1716362E-02  0.0000000E+00 -0.5050505E-02  0.1076493E-11  0.0000000E+00  0.3037354E-10
 -0.1025842E-02  0.0000000E+00 -0.5050505E-02  0.8201338E-12  0.0000000E+00  0.3076496E-10
  0.2367855E-03  0.0000000E+00 -0.5050505E-02  0.5576819E-12  0.0000000E+00  0.3104897E-10
  0.1499413E-02  0.0000000E+00 -0.5050505E-02  0.2931937E-12  0.0000000E+00  0.3122386E-10
  0.2762042E-02  0.0000000E+00 -0.5050505E-02  0.3717059E-13  0.0000000E+00  0.3129312E-10
 -0.5050505E-02  0.0000000E+00 -0.5050505E-02 -0.1840555E-12  0.0000000E+00  0.3126503E-10
 -0.5050505E-02  0.0000000E+00 -0.5050505E-02 -0.4214703E-12  0.0000000E+00  0.3113997E-10
 -0.5050505E-02  0.0000000E+00 -0.5050505E-02 -0.6944768E-12  0.0000000E+00  0.3090892E-10
 -0.5050505E-02  0.0000000E+00 -0.5050505E-02 -0.9631354E-12  0.0000000E+00  0.3056760E-10
 -0.5050505E-02  0.0000000E+00 -0.5050505E-02 -0.1221777E-11  0.0000000E+00  0.3011822E-10
 -0.5050505E-02  0.0000000E+00 -0.5050505E-02 -0.1471137E-11  0.0000000E+00  0.2956423E-10
 -0.5050505E-02  0.0000000E+00 -0.5050505E-02 -0.1712323E-11  0.0000000E+00  0.2890912E-10
 -0.5050504E-02  0.0000000E+00 -0.5050505E-02 -0.1945285E-11  0.0000000E+00  0.2815626E-10
 -0.5050501E-02  0.0000000E+00 -0.5050505E-02 -0.2169797E-11  0.0000000E+00  0.2730909E-10
 -0.5050495E-02  0.0000000E+00 -0.5050505E-02 -0.2385074E-11  0.0000000E+00  0.2637130E-10
 -0.5050482E-02  0.0000000E+00 -0.5050505E-02 -0.2590364E-11  0.0000000E+00  0.2534687E-10
 -0.5050449E-02  0.0000000E+00 -0.5050505E-02 -0.2784857E-11  0.0000000E+00  0.2424008E-10
 -0.5050376E-02  0.0000000E+00 -0.5050505E-02 -0.2967700E-11  0.0000000E+00  0.2305555E-10
 -0.5050299E-02  0.0000000E+00 -0.5050505E-02 -0.3138252E-11  0.0000000E+00  0.2179823E-10
 -0.5050178E-02  0.0000000E+00 -0.5050505E-02 -0.3295712E-11  0.0000000E+00  0.2047336E-10
 -0.5050018E-02  0.0000000E+00 -0.5050505E-02 -0.3439596E-11  0.0000000E+00  0.1908647E-10
 -0.5049710E-02  0.0000000E+00 -0.5050505E-02 -0.3569430E-11  0.0000000E+00  0.1764329E-10
 -0.5049253E-02  0.0000000E+00 -0.5050505E-02 -0.3684922E-11  0.0000000E+00  0.1614977E-10
 -0.5048636E-02  0.0000000E+00 -0.5050505E-02 -0.3785918E-11  0.0000000E+00  0.1461200E-10
 -0.5047442E-02  0.0000000E+00 -0.5050505E-02 -0.3872544E-11  0.0000000E+00  0.1303606E-10
 -0.5045727E-02  0.0000000E+00 -0.5050505E-02 -0.3944709E-11  0.0000000E+00  0.1142757E-10
 -0.5043261E-02  0.0000000E+00 -0.5050505E-02 -0.3999487E-11  0.0000000E+00  0.9790494E-11
 -0.5038714E-02  0.0000000E+00 -0.5050505E-02 -0.4052116E-11  0.0000000E+00  0.8144178E-11
 -0.5032318E-02  0.0000000E+00 -0.5050505E-02 -0.4081323E-11  0.0000000E+00  0.6485023E-11
 -0.5022454E-02  0.0000000E+00 -0.5050505E-02 -0.4090784E-11  0.0000000E+00  0.4804642E-11
 -0.5012589E-02  0.0000000E+00 -0.5050505E-02 -0.4073254E-11  0.0000000E+00  0.3123433E-11
 -0.5002725E-02  0.0000000E+00 -0.5050505E-02 -0.4040534E-11  0.0000000E+00  0.1450693E-11
 -0.4992860E-02  0.0000000E+00 -0.5050505E-02 -0.3993074E-11  0.0000000E+00 -0.2045985E-12
 -0.4976523E-02  0.0000000E+00 -0.5050505E-02 -0.3931401E-11  0.0000000E+00 -0.1833025E-11
 -0.4956794E-02  0.0000000E+00 -0.5050505E-02 -0.3855901E-11  0.0000000E+00 -0.3430874E-11
 -0.4937066E-02  0.0000000E+00 -0.5050505E-02 -0.3767323E-11  0.0000000E+00 -0.4994248E-11
 -0.4906239E-02  0.0000000E+00 -0.5050505E-02 -0.3665623E-11  0.0000000E+00 -0.6517825E-11
 -0.4866782E-02  0.0000000E+00 -0.5050505E-02 -0.3551261E-11  0.0000000E+00 -0.7996459E-11
 -0.4827325E-02  0.0000000E+00 -0.5050505E-02 -0.3424401E-11  0.0000000E+00 -0.9425108E-11
 -0.4769372E-02  0.0000000E+00 -0.5050505E-02 -0.3285711E-11  0.0000000E+00 -0.1079886E-10
 -0.4690458E-02  0.0000000E+00 -0.5050505E-02 -0.3135794E-11  0.0000000E+00 -0.1211311E-10
 -0.4611543E-02  0.0000000E+00 -0.5050505E-02 -0.2975214E-11  0.0000000E+00 -0.1336343E-10
 -0.4503035E-02  0.0000000E+00 -0.5050505E-02 -0.2804781E-11  0.0000000E+00 -0.1454558E-10
 -0.4345206E-02  0.0000000E+00 -0.5050505E-02 -0.2625379E-11  0.0000000E+00 -0.1565563E-10
 -0.4187378E-02  0.0000000E+00 -0.5050505E-02 -0.2438117E-11  0.0000000E+00 -0.1668997E-10
 -0.3985156E-02  0.0000000E+00 -0.5050505E-02 -0.2244241E-11  0.0000000E+00 -0.1764531E-10
 -0.3669499E-02  0.0000000E+00 -0.5050505E-02 -0.2045426E-11  0.0000000E+00 -0.1851864E-10
 -0.3353842E-02  0.0000000E+00 -0.5050505E-02 -0.1843923E-11  0.0000000E+00 -0.1930722E-10
 -0.2978990E-02  0.0000000E+00 -0.5050505E-02 -0.1643072E-11  0.0000000E+00 -0.2000815E-10
 -0.2347676E-02  0.0000000E+00 -0.5050505E-02 -0.1447892E-11  0.0000000E+00 -0.2061748E-10
 -0.1716362E-02  0.0000000E+00 -0.5050505E-02 -0.1266741E-11  0.0000000E+00 -0.2112777E-10
 -0.1025842E-02  0.0000000E+00 -0.5050505E-02 -0.1112622E-11  0.0000000E+00 -0.2152137E-10
  0.2367855E-03  0.0000000E+00 -0.5050505E-02 -0.1001664E-11  0.0000000E+00 -0.2175562E-10
  0.1499413E-02  0.0000000E+00 -0.5050505E-02 -0.9291792E-12  0.0000000E+00 -0.2174080E-10
  0.5287294E-02  0.0000000E+00 -0.5050505E-02 -0.7303523E-12  0.0000000E+00 -0.2139170E-10
 -0.5050505E-02  0.0000000E+00 -0.5050505E-02  0.6264601E-13  0.0000000E+00 -0.1654200E-10
 -0.5050505E-02  0.0000000E+00 -0.5050505E-02  0.3848017E-12  0.0000000E+00 -0.1646063E-10
 -0.5050505E-02  0.0000000E+00 -0.5050505E-02  0.7764089E-12  0.0000000E+00 -0.1627671E-10
 -0.5050505E-02  0.0000000E+00 -0.5050505E-02  0.1132798E-11  0.0000000E+00 -0.1598599E-10
 -0.5050505E-02  0.0000000E+00 -0.5050505E-02  0.1475069E-11  0.0000000E+00 -0.1559335E-10
 -0.5050505E-02  0.0000000E+00 -0.5050505E-02  0.1806484E-11  0.0000000E+00 -0.1510131E-10
 -0.5050504E-02  0.0000000E+00 -0.5050505E-02  0.2127981E-11  0.0000000E+00 -0.1451244E-10
 -0.5050501E-02  0.0000000E+00 -0.5050505E-02  0.2439826E-11  0.0000000E+00 -0.1382936E-10
 -0.5050495E-02  0.0000000E+00 -0.5050505E-02  0.2741502E-11  0.0000000E+00 -0.1305480E-10
 -0.5050482E-02  0.0000000E+00 -0.5050505E-02  0.3032277E-11  0.0000000E+00 -0.1219179E-10
 -0.5050449E-02  0.0000000E+00 -0.5050505E-02  0.3311340E-11  0.0000000E+00 -0.1124362E-10
 -0.5050376E-02  0.0000000E+00 -0.5050505E-02  0.3577573E-11  0.0000000E+00 -0.1021387E-10
 -0.5050299E-02  0.0000000E+00 -0.5050505E-02  0.3830060E-11  0.0000000E+00 -0.9106419E-11
 -0.5050178E-02  0.0000000E+00 -0.5050505E-02  0.4067974E-11  0.0000000E+00 -0.7925392E-11
 -0.5050018E-02  0.0000000E+00 -0.5050505E-02  0.4290318E-11  0.0000000E+00 -0.6675293E-11
 -0.5049710E-02  0.0000000E+00 -0.5050505E-02  0.4496344E-11  0.0000000E+00 -0.5360729E-11
 -0.5049253E-02  0.0000000E+00 -0.5050505E-02  0.4685129E-11  0.0000000E+00 -0.3986634E-11
 -0.5048636E-02  0.0000000E+00 -0.5050505E-02  0.4856126E-11  0.0000000E+00 -0.2558212E-11
 -0.5047442E-02  0.0000000E+00 -0.5050505E-02  0.5008891E-11  0.0000000E+00 -0.1080667E-11
 -0.5045727E-02  0.0000000E+00 -0.5050505E-02  0.5142229E-11  0.0000000E+00  0.4437019E-12
 -0.5043261E-02  0.0000000E+00 -0.5050505E-02  0.5256145E-11  0.0000000E+00  0.2010061E-11
 -0.5038714E-02  0.0000000E+00 -0.5050505E-02  0.5348494E-11  0.0000000E+00  0.3607784E-11
 -0.5032318E-02  0.0000000E+00 -0.5050505E-02  0.5423487E-11  0.0000000E+00  0.5230062E-11
 -0.5022454E-02  0.0000000E+00 -0.5050505E-02  0.5463517E-11  0.0000000E+00  0.6857441E-11
 -0.5012589E-02  0.0000000E+00 -0.5050505E-02  0.5479836E-11  0.0000000E+00  0.8482484E-11
 -0.5002725E-02  0.0000000E+00 -0.5050505E-02  0.5463137E-11  0.0000000E+00  0.1011647E-10
 -0.4992860E-02  0.0000000E+00 -0.5050505E-02  0.5432615E-11  0.0000000E+00  0.1175105E-10
 -0.4976523E-02  0.0000000E+00 -0.5050505E-02  0.5381556E-11  0.0000000E+00  0.1337421E-10
 -0.4956794E-02  0.0000000E+00 -0.5050505E-02  0.5309081E-11  0.0000000E+00  0.1497970E-10
 -0.4937066E-02  0.0000000E+00 -0.5050505E-02  0.5215123E-11  0.0000000E+00  0.1656104E-10