title = "dataset feddes"
variables = "x", "y", "z", "vx", "vy", "vz"
zone t = "velocities, solution time =  5.700E+01 days        " i =   99, j =   99, k =    1,  f=point
 -0.5050505E-02  0.0000000E+00 -0.5050505E-02  0.1620925E-08  0.0000000E+00  0.1562802E-04
 -0.5050505E-02  0.0000000E+00 -0.5050505E-02  0.4856779E-08  0.0000000E+00  0.1563454E-04
 -0.5050505E-02  0.0000000E+00 -0.5050505E-02  0.8073887E-08  0.0000000E+00  0.1564755E-04
 -0.5050505E-02  0.0000000E+00 -0.5050505E-02  0.1125974E-07  0.0000000E+00  0.1566700E-04
 -0.5050505E-02  0.0000000E+00 -0.5050505E-02  0.1440201E-07  0.0000000E+00  0.1569282E-04
 -0.5050505E-02  0.0000000E+00 -0.5050505E-02  0.1748845E-07  0.0000000E+00  0.1572491E-04
 -0.5050504E-02  0.0000000E+00 -0.5050505E-02  0.2050698E-07  0.0000000E+00  0.1576314E-04
 -0.5050501E-02  0.0000000E+00 -0.5050505E-02  0.2344573E-07  0.0000000E+00  0.1580737E-04
 -0.5050495E-02  0.0000000E+00 -0.5050505E-02  0.2629306E-07  0.0000000E+00  0.1585741E-04
 -0.5050482E-02  0.0000000E+00 -0.5050505E-02  0.2903757E-07  0.0000000E+00  0.1591309E-04
 -0.5050449E-02  0.0000000E+00 -0.5050505E-02  0.3166820E-07  0.0000000E+00  0.1597417E-04
 -0.5050376E-02  0.0000000E+00 -0.5050505E-02  0.3417423E-07  0.0000000E+00  0.1604042E-04
 -0.5050299E-02  0.0000000E+00 -0.5050505E-02  0.3654532E-07  0.0000000E+00  0.1611158E-04
 -0.5050178E-02  0.0000000E+00 -0.5050505E-02  0.3877155E-07  0.0000000E+00  0.1618736E-04
 -0.5050018E-02  0.0000000E+00 -0.5050505E-02  0.4084346E-07  0.0000000E+00  0.1626747E-04
 -0.5049710E-02  0.0000000E+00 -0.5050505E-02  0.4275211E-07  0.0000000E+00  0.1635158E-04
 -0.5049253E-02  0.0000000E+00 -0.5050505E-02  0.4448909E-07  0.0000000E+00  0.1643936E-04
 -0.5048636E-02  0.0000000E+00 -0.5050505E-02  0.4604655E-07  0.0000000E+00  0.1653046E-04
 -0.5047442E-02  0.0000000E+00 -0.5050505E-02  0.4741729E-07  0.0000000E+00  0.1662450E-04
 -0.5045727E-02  0.0000000E+00 -0.5050505E-02  0.4859475E-07  0.0000000E+00  0.1672111E-04
 -0.5043261E-02  0.0000000E+00 -0.5050505E-02  0.4957306E-07  0.0000000E+00  0.1681989E-04
 -0.5038714E-02  0.0000000E+00 -0.5050505E-02  0.5034709E-07  0.0000000E+00  0.1692043E-04
 -0.5032318E-02  0.0000000E+00 -0.5050505E-02  0.5091247E-07  0.0000000E+00  0.1702232E-04
 -0.5022454E-02  0.0000000E+00 -0.5050505E-02  0.5126562E-07  0.0000000E+00  0.1712514E-04
 -0.5012589E-02  0.0000000E+00 -0.5050505E-02  0.5140380E-07  0.0000000E+00  0.1722844E-04
 -0.5002725E-02  0.0000000E+00 -0.5050505E-02  0.5132511E-07  0.0000000E+00  0.1733181E-04
 -0.4992860E-02  0.0000000E+00 -0.5050505E-02  0.5102855E-07  0.0000000E+00  0.1743481E-04
 -0.4976523E-02  0.0000000E+00 -0.5050505E-02  0.5051401E-07  0.0000000E+00  0.1753698E-04
 -0.4956794E-02  0.0000000E+00 -0.5050505E-02  0.4978230E-07  0.0000000E+00  0.1763790E-04
 -0.4937066E-02  0.0000000E+00 -0.5050505E-02  0.4883518E-07  0.0000000E+00  0.1773714E-04
 -0.4906239E-02  0.0000000E+00 -0.5050505E-02  0.4767534E-07  0.0000000E+00  0.1783425E-04
 -0.4866782E-02  0.0000000E+00 -0.5050505E-02  0.4630642E-07  0.0000000E+00  0.1792882E-04
 -0.4827325E-02  0.0000000E+00 -0.5050505E-02  0.4473302E-07  0.0000000E+00  0.1802043E-04
 -0.4769372E-02  0.0000000E+00 -0.5050505E-02  0.4296068E-07  0.0000000E+00  0.1810867E-04
 -0.4690458E-02  0.0000000E+00 -0.5050505E-02  0.4099588E-07  0.0000000E+00  0.1819315E-04
 -0.4611543E-02  0.0000000E+00 -0.5050505E-02  0.3884602E-07  0.0000000E+00  0.1827349E-04
 -0.4503035E-02  0.0000000E+00 -0.5050505E-02  0.3651938E-07  0.0000000E+00  0.1834933E-04
 -0.4345206E-02  0.0000000E+00 -0.5050505E-02  0.3402512E-07  0.0000000E+00  0.1842032E-04
 -0.4187378E-02  0.0000000E+00 -0.5050505E-02  0.3137323E-07  0.0000000E+00  0.1848613E-04
 -0.3985156E-02  0.0000000E+00 -0.5050505E-02  0.2857449E-07  0.0000000E+00  0.1854645E-04
 -0.3669499E-02  0.0000000E+00 -0.5050505E-02  0.2564044E-07  0.0000000E+00  0.1860101E-04
 -0.3353842E-02  0.0000000E+00 -0.5050505E-02  0.2258331E-07  0.0000000E+00  0.1864953E-04
 -0.2978990E-02  0.0000000E+00 -0.5050505E-02  0.1941595E-07  0.0000000E+00  0.1869180E-04
 -0.2347676E-02  0.0000000E+00 -0.5050505E-02  0.1615181E-07  0.0000000E+00  0.1872759E-04
 -0.1716362E-02  0.0000000E+00 -0.5050505E-02  0.1280485E-07  0.0000000E+00  0.1875673E-04
 -0.1025842E-02  0.0000000E+00 -0.5050505E-02  0.9389461E-08  0.0000000E+00  0.1877906E-04
  0.2367855E-03  0.0000000E+00 -0.5050505E-02  0.5920405E-08  0.0000000E+00  0.1879446E-04
  0.1499413E-02  0.0000000E+00 -0.5050505E-02  0.2412737E-08  0.0000000E+00  0.1880285E-04
  0.2762042E-02  0.0000000E+00 -0.5050505E-02 -0.1118278E-08  0.0000000E+00  0.1880415E-04
 -0.5050505E-02  0.0000000E+00 -0.5050505E-02 -0.4657243E-08  0.0000000E+00  0.1879834E-04
 -0.5050505E-02  0.0000000E+00 -0.5050505E-02 -0.8188714E-08  0.0000000E+00  0.1878541E-04
 -0.5050505E-02  0.0000000E+00 -0.5050505E-02 -0.1169728E-07  0.0000000E+00  0.1876540E-04
 -0.5050505E-02  0.0000000E+00 -0.5050505E-02 -0.1516765E-07  0.0000000E+00  0.1873837E-04
 -0.5050505E-02  0.0000000E+00 -0.5050505E-02 -0.1858472E-07  0.0000000E+00  0.1870441E-04
 -0.5050505E-02  0.0000000E+00 -0.5050505E-02 -0.2193366E-07  0.0000000E+00  0.1866363E-04
 -0.5050505E-02  0.0000000E+00 -0.5050505E-02 -0.2520002E-07  0.0000000E+00  0.1861620E-04
 -0.5050504E-02  0.0000000E+00 -0.5050505E-02 -0.2836972E-07  0.0000000E+00  0.1856230E-04
 -0.5050501E-02  0.0000000E+00 -0.5050505E-02 -0.3142923E-07  0.0000000E+00  0.1850212E-04
 -0.5050495E-02  0.0000000E+00 -0.5050505E-02 -0.3436555E-07  0.0000000E+00  0.1843592E-04
 -0.5050482E-02  0.0000000E+00 -0.5050505E-02 -0.3716630E-07  0.0000000E+00  0.1836394E-04
 -0.5050449E-02  0.0000000E+00 -0.5050505E-02 -0.3981977E-07  0.0000000E+00  0.1828647E-04
 -0.5050376E-02  0.0000000E+00 -0.5050505E-02 -0.4231501E-07  0.0000000E+00  0.1820382E-04
 -0.5050299E-02  0.0000000E+00 -0.5050505E-02 -0.4464180E-07  0.0000000E+00  0.1811632E-04
 -0.5050178E-02  0.0000000E+00 -0.5050505E-02 -0.4679075E-07  0.0000000E+00  0.1802431E-04
 -0.5050018E-02  0.0000000E+00 -0.5050505E-02 -0.4875330E-07  0.0000000E+00  0.1792817E-04
 -0.5049710E-02  0.0000000E+00 -0.5050505E-02 -0.5052178E-07  0.0000000E+00  0.1782828E-04
 -0.5049253E-02  0.0000000E+00 -0.5050505E-02 -0.5208938E-07  0.0000000E+00  0.1772502E-04
 -0.5048636E-02  0.0000000E+00 -0.5050505E-02 -0.5345020E-07  0.0000000E+00  0.1761882E-04
 -0.5047442E-02  0.0000000E+00 -0.5050505E-02 -0.5459925E-07  0.0000000E+00  0.1751010E-04
 -0.5045727E-02  0.0000000E+00 -0.5050505E-02 -0.5553243E-07  0.0000000E+00  0.1739928E-04
 -0.5043261E-02  0.0000000E+00 -0.5050505E-02 -0.5624654E-07  0.0000000E+00  0.1728681E-04
 -0.5038714E-02  0.0000000E+00 -0.5050505E-02 -0.5673927E-07  0.0000000E+00  0.1717312E-04
 -0.5032318E-02  0.0000000E+00 -0.5050505E-02 -0.5700916E-07  0.0000000E+00  0.1705866E-04
 -0.5022454E-02  0.0000000E+00 -0.5050505E-02 -0.5705556E-07  0.0000000E+00  0.1694389E-04
 -0.5012589E-02  0.0000000E+00 -0.5050505E-02 -0.5687862E-07  0.0000000E+00  0.1682924E-04
 -0.5002725E-02  0.0000000E+00 -0.5050505E-02 -0.5647919E-07  0.0000000E+00  0.1671518E-04
 -0.4992860E-02  0.0000000E+00 -0.5050505E-02 -0.5585877E-07  0.0000000E+00  0.1660215E-04
 -0.4976523E-02  0.0000000E+00 -0.5050505E-02 -0.5501944E-07  0.0000000E+00  0.1649058E-04
 -0.4956794E-02  0.0000000E+00 -0.5050505E-02 -0.5396368E-07  0.0000000E+00  0.1638092E-04
 -0.4937066E-02  0.0000000E+00 -0.5050505E-02 -0.5269423E-07  0.0000000E+00  0.1627360E-04
 -0.4906239E-02  0.0000000E+00 -0.5050505E-02 -0.5121387E-07  0.0000000E+00  0.1616905E-04
 -0.4866782E-02  0.0000000E+00 -0.5050505E-02 -0.4952508E-07  0.0000000E+00  0.1606769E-04
 -0.4827325E-02  0.0000000E+00 -0.5050505E-02 -0.4762955E-07  0.0000000E+00  0.1596993E-04
 -0.4769372E-02  0.0000000E+00 -0.5050505E-02 -0.4552748E-07  0.0000000E+00  0.1587620E-04
 -0.4690458E-02  0.0000000E+00 -0.5050505E-02 -0.4321641E-07  0.0000000E+00  0.1578690E-04
 -0.4611543E-02  0.0000000E+00 -0.5050505E-02 -0.4068944E-07  0.0000000E+00  0.1570248E-04
 -0.4503035E-02  0.0000000E+00 -0.5050505E-02 -0.3793220E-07  0.0000000E+00  0.1562337E-04
 -0.4345206E-02  0.0000000E+00 -0.5050505E-02 -0.3491751E-07  0.0000000E+00  0.1555007E-04
 -0.4187378E-02  0.0000000E+00 -0.5050505E-02 -0.3159584E-07  0.0000000E+00  0.1548315E-04
 -0.3985156E-02  0.0000000E+00 -0.5050505E-02 -0.2787692E-07  0.0000000E+00  0.1542331E-04
 -0.3669499E-02  0.0000000E+00 -0.5050505E-02 -0.2359277E-07  0.0000000E+00  0.1537152E-04
 -0.3353842E-02  0.0000000E+00 -0.5050505E-02 -0.1841778E-07  0.0000000E+00  0.1532925E-04
 -0.2978990E-02  0.0000000E+00 -0.5050505E-02 -0.1168333E-07  0.0000000E+00  0.1529897E-04
 -0.2347676E-02  0.0000000E+00 -0.5050505E-02 -0.1909674E-08  0.0000000E+00  0.1528529E-04
 -0.1716362E-02  0.0000000E+00 -0.5050505E-02  0.1448725E-07  0.0000000E+00  0.1529794E-04
 -0.1025842E-02  0.0000000E+00 -0.5050505E-02  0.4711727E-07  0.0000000E+00  0.1535993E-04
  0.2367855E-03  0.0000000E+00 -0.5050505E-02  0.1246373E-06  0.0000000E+00  0.1553274E-04
  0.1499413E-02  0.0000000E+00 -0.5050505E-02  0.3417447E-06  0.0000000E+00  0.1600201E-04
  0.5287294E-02  0.0000000E+00 -0.5050505E-02  0.5649379E-05  0.0000000E+00  0.1278464E-04
 -0.5050505E-02  0.0000000E+00 -0.5050505E-02  0.4862256E-08  0.0000000E+00  0.1564779E-04
 -0.5050505E-02  0.0000000E+00 -0.5050505E-02  0.1456862E-07  0.0000000E+00  0.1565434E-04
 -0.5050505E-02  0.0000000E+00 -0.5050505E-02  0.2421879E-07  0.0000000E+00  0.1566742E-04
 -0.5050505E-02  0.0000000E+00 -0.5050505E-02  0.3377526E-07  0.0000000E+00  0.1568697E-04
 -0.5050505E-02  0.0000000E+00 -0.5050505E-02  0.4320102E-07  0.0000000E+00  0.1571293E-04
 -0.5050505E-02  0.0000000E+00 -0.5050505E-02  0.5245939E-07  0.0000000E+00  0.1574519E-04
 -0.5050504E-02  0.0000000E+00 -0.5050505E-02  0.6151413E-07  0.0000000E+00  0.1578362E-04
 -0.5050501E-02  0.0000000E+00 -0.5050505E-02  0.7032963E-07  0.0000000E+00  0.1582808E-04
 -0.5050495E-02  0.0000000E+00 -0.5050505E-02  0.7887095E-07  0.0000000E+00  0.1587839E-04
 -0.5050482E-02  0.0000000E+00 -0.5050505E-02  0.8710396E-07  0.0000000E+00  0.1593435E-04
 -0.5050449E-02  0.0000000E+00 -0.5050505E-02  0.9499547E-07  0.0000000E+00  0.1599576E-04
 -0.5050376E-02  0.0000000E+00 -0.5050505E-02  0.1025133E-06  0.0000000E+00  0.1606236E-04
 -0.5050299E-02  0.0000000E+00 -0.5050505E-02  0.1096265E-06  0.0000000E+00  0.1613390E-04
 -0.5050178E-02  0.0000000E+00 -0.5050505E-02  0.1163052E-06  0.0000000E+00  0.1621009E-04
 -0.5050018E-02  0.0000000E+00 -0.5050505E-02  0.1225212E-06  0.0000000E+00  0.1629063E-04
 -0.5049710E-02  0.0000000E+00 -0.5050505E-02  0.1282475E-06  0.0000000E+00  0.1637520E-04
 -0.5049253E-02  0.0000000E+00 -0.5050505E-02  0.1334589E-06  0.0000000E+00  0.1646345E-04
 -0.5048636E-02  0.0000000E+00 -0.5050505E-02  0.1381319E-06  0.0000000E+00  0.1655504E-04
 -0.5047442E-02  0.0000000E+00 -0.5050505E-02  0.1422449E-06  0.0000000E+00  0.1664960E-04
 -0.5045727E-02  0.0000000E+00 -0.5050505E-02  0.1457781E-06  0.0000000E+00  0.1674674E-04
 -0.5043261E-02  0.0000000E+00 -0.5050505E-02  0.1487140E-06  0.0000000E+00  0.1684606E-04
 -0.5038714E-02  0.0000000E+00 -0.5050505E-02  0.1510372E-06  0.0000000E+00  0.1694715E-04
 -0.5032318E-02  0.0000000E+00 -0.5050505E-02  0.1527345E-06  0.0000000E+00  0.1704961E-04
 -0.5022454E-02  0.0000000E+00 -0.5050505E-02  0.1537951E-06  0.0000000E+00  0.1715299E-04
 -0.5012589E-02  0.0000000E+00 -0.5050505E-02  0.1542109E-06  0.0000000E+00  0.1725688E-04
 -0.5002725E-02  0.0000000E+00 -0.5050505E-02  0.1539762E-06  0.0000000E+00  0.1736083E-04
 -0.4992860E-02  0.0000000E+00 -0.5050505E-02  0.1530878E-06  0.0000000E+00  0.1746440E-04
 -0.4976523E-02  0.0000000E+00 -0.5050505E-02  0.1515455E-06  0.0000000E+00  0.1756715E-04
 -0.4956794E-02  0.0000000E+00 -0.5050505E-02  0.1493517E-06  0.0000000E+00  0.1766865E-04
 -0.4937066E-02  0.0000000E+00 -0.5050505E-02  0.1465116E-06  0.0000000E+00  0.1776845E-04
 -0.4906239E-02  0.0000000E+00 -0.5050505E-02  0.1430333E-06  0.0000000E+00  0.1786612E-04
 -0.4866782E-02  0.0000000E+00 -0.5050505E-02  0.1389276E-06  0.0000000E+00  0.1796124E-04
 -0.4827325E-02  0.0000000E+00 -0.5050505E-02  0.1342085E-06  0.0000000E+00  0.1805338E-04
 -0.4769372E-02  0.0000000E+00 -0.5050505E-02  0.1288924E-06  0.0000000E+00  0.1814213E-04
 -0.4690458E-02  0.0000000E+00 -0.5050505E-02  0.1229989E-06  0.0000000E+00  0.1822711E-04
 -0.4611543E-02  0.0000000E+00 -0.5050505E-02  0.1165500E-06  0.0000000E+00  0.1830793E-04
 -0.4503035E-02  0.0000000E+00 -0.5050505E-02  0.1095707E-06  0.0000000E+00  0.1838421E-04
 -0.4345206E-02  0.0000000E+00 -0.5050505E-02  0.1020884E-06  0.0000000E+00  0.1845562E-04
 -0.4187378E-02  0.0000000E+00 -0.5050505E-02  0.9413310E-07  0.0000000E+00  0.1852183E-04
 -0.3985156E-02  0.0000000E+00 -0.5050505E-02  0.8573713E-07  0.0000000E+00  0.1858252E-04
 -0.3669499E-02  0.0000000E+00 -0.5050505E-02  0.7693510E-07  0.0000000E+00  0.1863741E-04
 -0.3353842E-02  0.0000000E+00 -0.5050505E-02  0.6776368E-07  0.0000000E+00  0.1868623E-04
 -0.2978990E-02  0.0000000E+00 -0.5050505E-02  0.5826149E-07  0.0000000E+00  0.1872876E-04
 -0.2347676E-02  0.0000000E+00 -0.5050505E-02  0.4846886E-07  0.0000000E+00  0.1876478E-04
 -0.1716362E-02  0.0000000E+00 -0.5050505E-02  0.3842767E-07  0.0000000E+00  0.1879411E-04
 -0.1025842E-02  0.0000000E+00 -0.5050505E-02  0.2818112E-07  0.0000000E+00  0.1881659E-04
  0.2367855E-03  0.0000000E+00 -0.5050505E-02  0.1777351E-07  0.0000000E+00  0.1883211E-04
  0.1499413E-02  0.0000000E+00 -0.5050505E-02  0.7250016E-08  0.0000000E+00  0.1884057E-04
  0.2762042E-02  0.0000000E+00 -0.5050505E-02 -0.3343547E-08  0.0000000E+00  0.1884190E-04
 -0.5050505E-02  0.0000000E+00 -0.5050505E-02 -0.1396097E-07  0.0000000E+00  0.1883608E-04
 -0.5050505E-02  0.0000000E+00 -0.5050505E-02 -0.2455592E-07  0.0000000E+00  0.1882310E-04
 -0.5050505E-02  0.0000000E+00 -0.5050505E-02 -0.3508213E-07  0.0000000E+00  0.1880300E-04
 -0.5050505E-02  0.0000000E+00 -0.5050505E-02 -0.4549371E-07  0.0000000E+00  0.1877583E-04
 -0.5050505E-02  0.0000000E+00 -0.5050505E-02 -0.5574534E-07  0.0000000E+00  0.1874169E-04
 -0.5050505E-02  0.0000000E+00 -0.5050505E-02 -0.6579255E-07  0.0000000E+00  0.1870071E-04
 -0.5050505E-02  0.0000000E+00 -0.5050505E-02 -0.7559189E-07  0.0000000E+00  0.1865303E-04
 -0.5050504E-02  0.0000000E+00 -0.5050505E-02 -0.8510121E-07  0.0000000E+00  0.1859884E-04
 -0.5050501E-02  0.0000000E+00 -0.5050505E-02 -0.9427984E-07  0.0000000E+00  0.1853834E-04
 -0.5050495E-02  0.0000000E+00 -0.5050505E-02 -0.1030888E-06  0.0000000E+00  0.1847178E-04
 -0.5050482E-02  0.0000000E+00 -0.5050505E-02 -0.1114909E-06  0.0000000E+00  0.1839941E-04
 -0.5050449E-02  0.0000000E+00 -0.5050505E-02 -0.1194512E-06  0.0000000E+00  0.1832153E-04
 -0.5050376E-02  0.0000000E+00 -0.5050505E-02 -0.1269365E-06  0.0000000E+00  0.1823843E-04
 -0.5050299E-02  0.0000000E+00 -0.5050505E-02 -0.1339165E-06  0.0000000E+00  0.1815046E-04
 -0.5050178E-02  0.0000000E+00 -0.5050505E-02 -0.1403628E-06  0.0000000E+00  0.1805795E-04
 -0.5050018E-02  0.0000000E+00 -0.5050505E-02 -0.1462499E-06  0.0000000E+00  0.1796129E-04
 -0.5049710E-02  0.0000000E+00 -0.5050505E-02 -0.1515547E-06  0.0000000E+00  0.1786086E-04
 -0.5049253E-02  0.0000000E+00 -0.5050505E-02 -0.1562568E-06  0.0000000E+00  0.1775705E-04
 -0.5048636E-02  0.0000000E+00 -0.5050505E-02 -0.1603385E-06  0.0000000E+00  0.1765028E-04
 -0.5047442E-02  0.0000000E+00 -0.5050505E-02 -0.1637849E-06  0.0000000E+00  0.1754097E-04
 -0.5045727E-02  0.0000000E+00 -0.5050505E-02 -0.1665836E-06  0.0000000E+00  0.1742956E-04
 -0.5043261E-02  0.0000000E+00 -0.5050505E-02 -0.1687253E-06  0.0000000E+00  0.1731648E-04
 -0.5038714E-02  0.0000000E+00 -0.5050505E-02 -0.1702028E-06  0.0000000E+00  0.1720218E-04
 -0.5032318E-02  0.0000000E+00 -0.5050505E-02 -0.1710120E-06  0.0000000E+00  0.1708712E-04
 -0.5022454E-02  0.0000000E+00 -0.5050505E-02 -0.1711508E-06  0.0000000E+00  0.1697173E-04
 -0.5012589E-02  0.0000000E+00 -0.5050505E-02 -0.1706198E-06  0.0000000E+00  0.1685648E-04
 -0.5002725E-02  0.0000000E+00 -0.5050505E-02 -0.1694217E-06  0.0000000E+00  0.1674181E-04
 -0.4992860E-02  0.0000000E+00 -0.5050505E-02 -0.1675609E-06  0.0000000E+00  0.1662817E-04
 -0.4976523E-02  0.0000000E+00 -0.5050505E-02 -0.1650439E-06  0.0000000E+00  0.1651601E-04
 -0.4956794E-02  0.0000000E+00 -0.5050505E-02 -0.1618783E-06  0.0000000E+00  0.1640576E-04
 -0.4937066E-02  0.0000000E+00 -0.5050505E-02 -0.1580724E-06  0.0000000E+00  0.1629786E-04
 -0.4906239E-02  0.0000000E+00 -0.5050505E-02 -0.1536350E-06  0.0000000E+00  0.1619274E-04
 -0.4866782E-02  0.0000000E+00 -0.5050505E-02 -0.1485740E-06  0.0000000E+00  0.1609082E-04
 -0.4827325E-02  0.0000000E+00 -0.5050505E-02 -0.1428951E-06  0.0000000E+00  0.1599251E-04
 -0.4769372E-02  0.0000000E+00 -0.5050505E-02 -0.1366000E-06  0.0000000E+00  0.1589823E-04
 -0.4690458E-02  0.0000000E+00 -0.5050505E-02 -0.1296832E-06  0.0000000E+00  0.1580838E-04
 -0.4611543E-02  0.0000000E+00 -0.5050505E-02 -0.1221271E-06  0.0000000E+00  0.1572339E-04
 -0.4503035E-02  0.0000000E+00 -0.5050505E-02 -0.1138938E-06  0.0000000E+00  0.1564368E-04
 -0.4345206E-02  0.0000000E+00 -0.5050505E-02 -0.1049114E-06  0.0000000E+00  0.1556972E-04
 -0.4187378E-02  0.0000000E+00 -0.5050505E-02 -0.9504982E-07  0.0000000E+00  0.1550199E-04
 -0.3985156E-02  0.0000000E+00 -0.5050505E-02 -0.8407534E-07  0.0000000E+00  0.1544111E-04
 -0.3669499E-02  0.0000000E+00 -0.5050505E-02 -0.7156402E-07  0.0000000E+00  0.1538779E-04
 -0.3353842E-02  0.0000000E+00 -0.5050505E-02 -0.5672467E-07  0.0000000E+00  0.1534301E-04
 -0.2978990E-02  0.0000000E+00 -0.5050505E-02 -0.3801925E-07  0.0000000E+00  0.1530809E-04
 -0.2347676E-02  0.0000000E+00 -0.5050505E-02 -0.1229958E-07  0.0000000E+00  0.1528474E-04
 -0.1716362E-02  0.0000000E+00 -0.5050505E-02  0.2727492E-07  0.0000000E+00  0.1527457E-04
 -0.1025842E-02  0.0000000E+00 -0.5050505E-02  0.9655447E-07  0.0000000E+00  0.1527554E-04
  0.2367855E-03  0.0000000E+00 -0.5050505E-02  0.2346915E-06  0.0000000E+00  0.1526417E-04
  0.1499413E-02  0.0000000E+00 -0.5050505E-02  0.5441516E-06  0.0000000E+00  0.1511194E-04
  0.5287294E-02  0.0000000E+00 -0.5050505E-02  0.1305373E-05  0.0000000E+00  0.1419712E-04
 -0.5050505E-02  0.0000000E+00 -0.5050505E-02  0.8111061E-08  0.0000000E+00  0.1568737E-04
 -0.5050505E-02  0.0000000E+00 -0.5050505E-02  0.2430266E-07  0.0000000E+00  0.1569399E-04
 -0.5050505E-02  0.0000000E+00 -0.5050505E-02  0.4040059E-07  0.0000000E+00  0.1570721E-04
 -0.5050505E-02  0.0000000E+00 -0.5050505E-02  0.5634235E-07  0.0000000E+00  0.1572697E-04
 -0.5050505E-02  0.0000000E+00 -0.5050505E-02  0.7206622E-07  0.0000000E+00  0.1575320E-04
 -0.5050505E-02  0.0000000E+00 -0.5050505E-02  0.8751103E-07  0.0000000E+00  0.1578579E-04
 -0.5050504E-02  0.0000000E+00 -0.5050505E-02  0.1026164E-06  0.0000000E+00  0.1582463E-04
 -0.5050501E-02  0.0000000E+00 -0.5050505E-02  0.1173229E-06  0.0000000E+00  0.1586955E-04
 -0.5050495E-02  0.0000000E+00 -0.5050505E-02  0.1315723E-06  0.0000000E+00  0.1592039E-04
 -0.5050482E-02  0.0000000E+00 -0.5050505E-02  0.1453078E-06  0.0000000E+00  0.1597695E-04
 -0.5050449E-02  0.0000000E+00 -0.5050505E-02  0.1584738E-06  0.0000000E+00  0.1603901E-04
 -0.5050376E-02  0.0000000E+00 -0.5050505E-02  0.1710169E-06  0.0000000E+00  0.1610631E-04
 -0.5050299E-02  0.0000000E+00 -0.5050505E-02  0.1828852E-06  0.0000000E+00  0.1617861E-04
 -0.5050178E-02  0.0000000E+00 -0.5050505E-02  0.1940291E-06  0.0000000E+00  0.1625561E-04
 -0.5050018E-02  0.0000000E+00 -0.5050505E-02  0.2044013E-06  0.0000000E+00  0.1633701E-04
 -0.5049710E-02  0.0000000E+00 -0.5050505E-02  0.2139571E-06  0.0000000E+00  0.1642249E-04
 -0.5049253E-02  0.0000000E+00 -0.5050505E-02  0.2226542E-06  0.0000000E+00  0.1651169E-04
 -0.5048636E-02  0.0000000E+00 -0.5050505E-02  0.2304534E-06  0.0000000E+00  0.1660428E-04
 -0.5047442E-02  0.0000000E+00 -0.5050505E-02  0.2373186E-06  0.0000000E+00  0.1669986E-04
 -0.5045727E-02  0.0000000E+00 -0.5050505E-02  0.2432169E-06  0.0000000E+00  0.1679805E-04
 -0.5043261E-02  0.0000000E+00 -0.5050505E-02  0.2481188E-06  0.0000000E+00  0.1689846E-04
 -0.5038714E-02  0.0000000E+00 -0.5050505E-02  0.2519987E-06  0.0000000E+00  0.1700066E-04
 -0.5032318E-02  0.0000000E+00 -0.5050505E-02  0.2548346E-06  0.0000000E+00  0.1710424E-04
 -0.5022454E-02  0.0000000E+00 -0.5050505E-02  0.2566085E-06  0.0000000E+00  0.1720877E-04
 -0.5012589E-02  0.0000000E+00 -0.5050505E-02  0.2573065E-06  0.0000000E+00  0.1731381E-04
 -0.5002725E-02  0.0000000E+00 -0.5050505E-02  0.2569192E-06  0.0000000E+00  0.1741892E-04
 -0.4992860E-02  0.0000000E+00 -0.5050505E-02  0.2554413E-06  0.0000000E+00  0.1752366E-04
 -0.4976523E-02  0.0000000E+00 -0.5050505E-02  0.2528723E-06  0.0000000E+00  0.1762757E-04
 -0.4956794E-02  0.0000000E+00 -0.5050505E-02  0.2492161E-06  0.0000000E+00  0.1773021E-04
 -0.4937066E-02  0.0000000E+00 -0.5050505E-02  0.2444815E-06  0.0000000E+00  0.1783115E-04
 -0.4906239E-02  0.0000000E+00 -0.5050505E-02  0.2386817E-06  0.0000000E+00  0.1792994E-04
 -0.4866782E-02  0.0000000E+00 -0.5050505E-02  0.2318351E-06  0.0000000E+00  0.1802614E-04
 -0.4827325E-02  0.0000000E+00 -0.5050505E-02  0.2239645E-06  0.0000000E+00  0.1811935E-04
 -0.4769372E-02  0.0000000E+00 -0.5050505E-02  0.2150976E-06  0.0000000E+00  0.1820914E-04
 -0.4690458E-02  0.0000000E+00 -0.5050505E-02  0.2052668E-06  0.0000000E+00  0.1829511E-04
 -0.4611543E-02  0.0000000E+00 -0.5050505E-02  0.1945090E-06  0.0000000E+00  0.1837687E-04
 -0.4503035E-02  0.0000000E+00 -0.5050505E-02  0.1828657E-06  0.0000000E+00  0.1845406E-04
 -0.4345206E-02  0.0000000E+00 -0.5050505E-02  0.1703828E-06  0.0000000E+00  0.1852632E-04
 -0.4187378E-02  0.0000000E+00 -0.5050505E-02  0.1571102E-06  0.0000000E+00  0.1859331E-04
 -0.3985156E-02  0.0000000E+00 -0.5050505E-02  0.1431019E-06  0.0000000E+00  0.1865473E-04
 -0.3669499E-02  0.0000000E+00 -0.5050505E-02  0.1284157E-06  0.0000000E+00  0.1871029E-04
 -0.3353842E-02  0.0000000E+00 -0.5050505E-02  0.1131127E-06  0.0000000E+00  0.1875972E-04
 -0.2978990E-02  0.0000000E+00 -0.5050505E-02  0.9725750E-07  0.0000000E+00  0.1880277E-04
 -0.2347676E-02  0.0000000E+00 -0.5050505E-02  0.8091731E-07  0.0000000E+00  0.1883925E-04
 -0.1716362E-02  0.0000000E+00 -0.5050505E-02  0.6416209E-07  0.0000000E+00  0.1886896E-04
 -0.1025842E-02  0.0000000E+00 -0.5050505E-02  0.4706395E-07  0.0000000E+00  0.1889175E-04
  0.2367855E-03  0.0000000E+00 -0.5050505E-02  0.2969688E-07  0.0000000E+00  0.1890749E-04
  0.1499413E-02  0.0000000E+00 -0.5050505E-02  0.1213629E-07  0.0000000E+00  0.1891609E-04
  0.2762042E-02  0.0000000E+00 -0.5050505E-02 -0.5541307E-08  0.0000000E+00  0.1891748E-04
 -0.5050505E-02  0.0000000E+00 -0.5050505E-02 -0.2325877E-07  0.0000000E+00  0.1891164E-04
 -0.5050505E-02  0.0000000E+00 -0.5050505E-02 -0.4093871E-07  0.0000000E+00  0.1889856E-04
 -0.5050505E-02  0.0000000E+00 -0.5050505E-02 -0.5850390E-07  0.0000000E+00  0.1887827E-04
 -0.5050505E-02  0.0000000E+00 -0.5050505E-02 -0.7587770E-07  0.0000000E+00  0.1885084E-04
 -0.5050505E-02  0.0000000E+00 -0.5050505E-02 -0.9298446E-07  0.0000000E+00  0.1881636E-04
 -0.5050505E-02  0.0000000E+00 -0.5050505E-02 -0.1097499E-06  0.0000000E+00  0.1877495E-04
 -0.5050505E-02  0.0000000E+00 -0.5050505E-02 -0.1261015E-06  0.0000000E+00  0.1872677E-04
 -0.5050504E-02  0.0000000E+00 -0.5050505E-02 -0.1419689E-06  0.0000000E+00  0.1867201E-04
 -0.5050501E-02  0.0000000E+00 -0.5050505E-02 -0.1572842E-06  0.0000000E+00  0.1861087E-04
 -0.5050495E-02  0.0000000E+00 -0.5050505E-02 -0.1719824E-06  0.0000000E+00  0.1854359E-04
 -0.5050482E-02  0.0000000E+00 -0.5050505E-02 -0.1860014E-06  0.0000000E+00  0.1847045E-04
 -0.5050449E-02  0.0000000E+00 -0.5050505E-02 -0.1992827E-06  0.0000000E+00  0.1839173E-04
 -0.5050376E-02  0.0000000E+00 -0.5050505E-02 -0.2117714E-06  0.0000000E+00  0.1830774E-04
 -0.5050299E-02  0.0000000E+00 -0.5050505E-02 -0.2234164E-06  0.0000000E+00  0.1821881E-04
 -0.5050178E-02  0.0000000E+00 -0.5050505E-02 -0.2341707E-06  0.0000000E+00  0.1812532E-04
 -0.5050018E-02  0.0000000E+00 -0.5050505E-02 -0.2439916E-06  0.0000000E+00  0.1802762E-04
 -0.5049710E-02  0.0000000E+00 -0.5050505E-02 -0.2528406E-06  0.0000000E+00  0.1792610E-04
 -0.5049253E-02  0.0000000E+00 -0.5050505E-02 -0.2606838E-06  0.0000000E+00  0.1782118E-04
 -0.5048636E-02  0.0000000E+00 -0.5050505E-02 -0.2674918E-06  0.0000000E+00  0.1771326E-04
 -0.5047442E-02  0.0000000E+00 -0.5050505E-02 -0.2732397E-06  0.0000000E+00  0.1760279E-04
 -0.5045727E-02  0.0000000E+00 -0.5050505E-02 -0.2779070E-06  0.0000000E+00  0.1749018E-04
 -0.5043261E-02  0.0000000E+00 -0.5050505E-02 -0.2814780E-06  0.0000000E+00  0.1737590E-04
 -0.5038714E-02  0.0000000E+00 -0.5050505E-02 -0.2839412E-06  0.0000000E+00  0.1726039E-04
 -0.5032318E-02  0.0000000E+00 -0.5050505E-02 -0.2852895E-06  0.0000000E+00  0.1714410E-04
 -0.5022454E-02  0.0000000E+00 -0.5050505E-02 -0.2855199E-06  0.0000000E+00  0.1702749E-04
 -0.5012589E-02  0.0000000E+00 -0.5050505E-02 -0.2846334E-06  0.0000000E+00  0.1691101E-04
 -0.5002725E-02  0.0000000E+00 -0.5050505E-02 -0.2826345E-06  0.0000000E+00  0.1679513E-04
 -0.4992860E-02  0.0000000E+00 -0.5050505E-02 -0.2795314E-06  0.0000000E+00  0.1668029E-04
 -0.4976523E-02  0.0000000E+00 -0.5050505E-02 -0.2753348E-06  0.0000000E+00  0.1656693E-04
 -0.4956794E-02  0.0000000E+00 -0.5050505E-02 -0.2700580E-06  0.0000000E+00  0.1645551E-04
 -0.4937066E-02  0.0000000E+00 -0.5050505E-02 -0.2637158E-06  0.0000000E+00  0.1634646E-04
 -0.4906239E-02  0.0000000E+00 -0.5050505E-02 -0.2563236E-06  0.0000000E+00  0.1624020E-04
 -0.4866782E-02  0.0000000E+00 -0.5050505E-02 -0.2478960E-06  0.0000000E+00  0.1613716E-04
 -0.4827325E-02  0.0000000E+00 -0.5050505E-02 -0.2384449E-06  0.0000000E+00  0.1603775E-04
 -0.4769372E-02  0.0000000E+00 -0.5050505E-02 -0.2279766E-06  0.0000000E+00  0.1594238E-04
 -0.4690458E-02  0.0000000E+00 -0.5050505E-02 -0.2164873E-06  0.0000000E+00  0.1585144E-04
 -0.4611543E-02  0.0000000E+00 -0.5050505E-02 -0.2039567E-06  0.0000000E+00  0.1576534E-04
 -0.4503035E-02  0.0000000E+00 -0.5050505E-02 -0.1903373E-06  0.0000000E+00  0.1568447E-04
 -0.4345206E-02  0.0000000E+00 -0.5050505E-02 -0.1755369E-06  0.0000000E+00  0.1560922E-04
 -0.4187378E-02  0.0000000E+00 -0.5050505E-02 -0.1593895E-06  0.0000000E+00  0.1554002E-04
 -0.3985156E-02  0.0000000E+00 -0.5050505E-02 -0.1416050E-06  0.0000000E+00  0.1547728E-04
 -0.3669499E-02  0.0000000E+00 -0.5050505E-02 -0.1216800E-06  0.0000000E+00  0.1542141E-04
 -0.3353842E-02  0.0000000E+00 -0.5050505E-02 -0.9873633E-07  0.0000000E+00  0.1537277E-04
 -0.2978990E-02  0.0000000E+00 -0.5050505E-02 -0.7122670E-07  0.0000000E+00  0.1533147E-04
 -0.2347676E-02  0.0000000E+00 -0.5050505E-02 -0.3640811E-07  0.0000000E+00  0.1529687E-04
 -0.1716362E-02  0.0000000E+00 -0.5050505E-02  0.1052510E-07  0.0000000E+00  0.1526602E-04
 -0.1025842E-02  0.0000000E+00 -0.5050505E-02  0.7745010E-07  0.0000000E+00  0.1522967E-04
  0.2367855E-03  0.0000000E+00 -0.5050505E-02  0.1742564E-06  0.0000000E+00  0.1516288E-04
  0.1499413E-02  0.0000000E+00 -0.5050505E-02  0.2973499E-06  0.0000000E+00  0.1501039E-04
  0.5287294E-02  0.0000000E+00 -0.5050505E-02  0.3402608E-06  0.0000000E+00  0.1471636E-04
 -0.5050505E-02  0.0000000E+00 -0.5050505E-02  0.1138438E-07  0.0000000E+00  0.1574684E-04
 -0.5050505E-02  0.0000000E+00 -0.5050505E-02  0.3411011E-07  0.0000000E+00  0.1575356E-04
 -0.5050505E-02  0.0000000E+00 -0.5050505E-02  0.5670452E-07  0.0000000E+00  0.1576698E-04
 -0.5050505E-02  0.0000000E+00 -0.5050505E-02  0.7907996E-07  0.0000000E+00  0.1578705E-04
 -0.5050505E-02  0.0000000E+00 -0.5050505E-02  0.1011499E-06  0.0000000E+00  0.1581368E-04
 -0.5050505E-02  0.0000000E+00 -0.5050505E-02  0.1228286E-06  0.0000000E+00  0.1584678E-04
 -0.5050504E-02  0.0000000E+00 -0.5050505E-02  0.1440313E-06  0.0000000E+00  0.1588623E-04
 -0.5050501E-02  0.0000000E+00 -0.5050505E-02  0.1646747E-06  0.0000000E+00  0.1593185E-04
 -0.5050495E-02  0.0000000E+00 -0.5050505E-02  0.1846771E-06  0.0000000E+00  0.1598349E-04
 -0.5050482E-02  0.0000000E+00 -0.5050505E-02  0.2039588E-06  0.0000000E+00  0.1604094E-04
 -0.5050449E-02  0.0000000E+00 -0.5050505E-02  0.2224419E-06  0.0000000E+00  0.1610397E-04
 -0.5050376E-02  0.0000000E+00 -0.5050505E-02  0.2400513E-06  0.0000000E+00  0.1617234E-04
 -0.5050299E-02  0.0000000E+00 -0.5050505E-02  0.2567143E-06  0.0000000E+00  0.1624578E-04
 -0.5050178E-02  0.0000000E+00 -0.5050505E-02  0.2723613E-06  0.0000000E+00  0.1632400E-04
 -0.5050018E-02  0.0000000E+00 -0.5050505E-02  0.2869259E-06  0.0000000E+00  0.1640669E-04
 -0.5049710E-02  0.0000000E+00 -0.5050505E-02  0.3003451E-06  0.0000000E+00  0.1649353E-04
 -0.5049253E-02  0.0000000E+00 -0.5050505E-02  0.3125597E-06  0.0000000E+00  0.1658416E-04
 -0.5048636E-02  0.0000000E+00 -0.5050505E-02  0.3235146E-06  0.0000000E+00  0.1667823E-04
 -0.5047442E-02  0.0000000E+00 -0.5050505E-02  0.3331590E-06  0.0000000E+00  0.1677536E-04
 -0.5045727E-02  0.0000000E+00 -0.5050505E-02  0.3414467E-06  0.0000000E+00  0.1687514E-04
 -0.5043261E-02  0.0000000E+00 -0.5050505E-02  0.3483362E-06  0.0000000E+00  0.1697718E-04
 -0.5038714E-02  0.0000000E+00 -0.5050505E-02  0.3537914E-06  0.0000000E+00  0.1708105E-04
 -0.5032318E-02  0.0000000E+00 -0.5050505E-02  0.3577813E-06  0.0000000E+00  0.1718633E-04
 -0.5022454E-02  0.0000000E+00 -0.5050505E-02  0.3602805E-06  0.0000000E+00  0.1729258E-04
 -0.5012589E-02  0.0000000E+00 -0.5050505E-02  0.3612695E-06  0.0000000E+00  0.1739936E-04
 -0.5002725E-02  0.0000000E+00 -0.5050505E-02  0.3607349E-06  0.0000000E+00  0.1750621E-04
 -0.4992860E-02  0.0000000E+00 -0.5050505E-02  0.3586691E-06  0.0000000E+00  0.1761269E-04
 -0.4976523E-02  0.0000000E+00 -0.5050505E-02  0.3550714E-06  0.0000000E+00  0.1771834E-04
 -0.4956794E-02  0.0000000E+00 -0.5050505E-02  0.3499470E-06  0.0000000E+00  0.1782272E-04
 -0.4937066E-02  0.0000000E+00 -0.5050505E-02  0.3433082E-06  0.0000000E+00  0.1792536E-04