title = "dataset feddes"
variables = "x", "y", "z", "vx", "vy", "vz"
zone t = "velocities, solution time =  5.900E+01 days        " i =   99, j =   99, k =    1,  f=point
 -0.5050505E-02  0.0000000E+00 -0.5050505E-02  0.2293423E-08  0.0000000E+00  0.2384671E-04
 -0.5050505E-02  0.0000000E+00 -0.5050505E-02  0.6871528E-08  0.0000000E+00  0.2385594E-04
 -0.5050505E-02  0.0000000E+00 -0.5050505E-02  0.1142306E-07  0.0000000E+00  0.2387435E-04
 -0.5050505E-02  0.0000000E+00 -0.5050505E-02  0.1593035E-07  0.0000000E+00  0.2390188E-04
 -0.5050505E-02  0.0000000E+00 -0.5050505E-02  0.2037589E-07  0.0000000E+00  0.2393842E-04
 -0.5050505E-02  0.0000000E+00 -0.5050505E-02  0.2474236E-07  0.0000000E+00  0.2398383E-04
 -0.5050504E-02  0.0000000E+00 -0.5050505E-02  0.2901263E-07  0.0000000E+00  0.2403793E-04
 -0.5050501E-02  0.0000000E+00 -0.5050505E-02  0.3316988E-07  0.0000000E+00  0.2410052E-04
 -0.5050495E-02  0.0000000E+00 -0.5050505E-02  0.3719760E-07  0.0000000E+00  0.2417134E-04
 -0.5050482E-02  0.0000000E+00 -0.5050505E-02  0.4107966E-07  0.0000000E+00  0.2425012E-04
 -0.5050449E-02  0.0000000E+00 -0.5050505E-02  0.4480036E-07  0.0000000E+00  0.2433656E-04
 -0.5050376E-02  0.0000000E+00 -0.5050505E-02  0.4834452E-07  0.0000000E+00  0.2443030E-04
 -0.5050299E-02  0.0000000E+00 -0.5050505E-02  0.5169746E-07  0.0000000E+00  0.2453099E-04
 -0.5050178E-02  0.0000000E+00 -0.5050505E-02  0.5484511E-07  0.0000000E+00  0.2463822E-04
 -0.5050018E-02  0.0000000E+00 -0.5050505E-02  0.5777408E-07  0.0000000E+00  0.2475157E-04
 -0.5049710E-02  0.0000000E+00 -0.5050505E-02  0.6047164E-07  0.0000000E+00  0.2487058E-04
 -0.5049253E-02  0.0000000E+00 -0.5050505E-02  0.6292585E-07  0.0000000E+00  0.2499478E-04
 -0.5048636E-02  0.0000000E+00 -0.5050505E-02  0.6512560E-07  0.0000000E+00  0.2512366E-04
 -0.5047442E-02  0.0000000E+00 -0.5050505E-02  0.6706062E-07  0.0000000E+00  0.2525671E-04
 -0.5045727E-02  0.0000000E+00 -0.5050505E-02  0.6872160E-07  0.0000000E+00  0.2539337E-04
 -0.5043261E-02  0.0000000E+00 -0.5050505E-02  0.7010019E-07  0.0000000E+00  0.2553310E-04
 -0.5038714E-02  0.0000000E+00 -0.5050505E-02  0.7118907E-07  0.0000000E+00  0.2567531E-04
 -0.5032318E-02  0.0000000E+00 -0.5050505E-02  0.7198203E-07  0.0000000E+00  0.2581941E-04
 -0.5022454E-02  0.0000000E+00 -0.5050505E-02  0.7247394E-07  0.0000000E+00  0.2596481E-04
 -0.5012589E-02  0.0000000E+00 -0.5050505E-02  0.7266090E-07  0.0000000E+00  0.2611089E-04
 -0.5002725E-02  0.0000000E+00 -0.5050505E-02  0.7254017E-07  0.0000000E+00  0.2625704E-04
 -0.4992860E-02  0.0000000E+00 -0.5050505E-02  0.7211029E-07  0.0000000E+00  0.2640263E-04
 -0.4976523E-02  0.0000000E+00 -0.5050505E-02  0.7137108E-07  0.0000000E+00  0.2654705E-04
 -0.4956794E-02  0.0000000E+00 -0.5050505E-02  0.7032365E-07  0.0000000E+00  0.2668967E-04
 -0.4937066E-02  0.0000000E+00 -0.5050505E-02  0.6897047E-07  0.0000000E+00  0.2682988E-04
 -0.4906239E-02  0.0000000E+00 -0.5050505E-02  0.6731531E-07  0.0000000E+00  0.2696705E-04
 -0.4866782E-02  0.0000000E+00 -0.5050505E-02  0.6536334E-07  0.0000000E+00  0.2710060E-04
 -0.4827325E-02  0.0000000E+00 -0.5050505E-02  0.6312105E-07  0.0000000E+00  0.2722993E-04
 -0.4769372E-02  0.0000000E+00 -0.5050505E-02  0.6059629E-07  0.0000000E+00  0.2735446E-04
 -0.4690458E-02  0.0000000E+00 -0.5050505E-02  0.5779823E-07  0.0000000E+00  0.2747363E-04
 -0.4611543E-02  0.0000000E+00 -0.5050505E-02  0.5473736E-07  0.0000000E+00  0.2758691E-04
 -0.4503035E-02  0.0000000E+00 -0.5050505E-02  0.5142545E-07  0.0000000E+00  0.2769377E-04
 -0.4345206E-02  0.0000000E+00 -0.5050505E-02  0.4787550E-07  0.0000000E+00  0.2779372E-04
 -0.4187378E-02  0.0000000E+00 -0.5050505E-02  0.4410171E-07  0.0000000E+00  0.2788630E-04
 -0.3985156E-02  0.0000000E+00 -0.5050505E-02  0.4011939E-07  0.0000000E+00  0.2797108E-04
 -0.3669499E-02  0.0000000E+00 -0.5050505E-02  0.3594494E-07  0.0000000E+00  0.2804764E-04
 -0.3353842E-02  0.0000000E+00 -0.5050505E-02  0.3159575E-07  0.0000000E+00  0.2811563E-04
 -0.2978990E-02  0.0000000E+00 -0.5050505E-02  0.2709012E-07  0.0000000E+00  0.2817470E-04
 -0.2347676E-02  0.0000000E+00 -0.5050505E-02  0.2244718E-07  0.0000000E+00  0.2822457E-04
 -0.1716362E-02  0.0000000E+00 -0.5050505E-02  0.1768680E-07  0.0000000E+00  0.2826496E-04
 -0.1025842E-02  0.0000000E+00 -0.5050505E-02  0.1282946E-07  0.0000000E+00  0.2829568E-04
  0.2367855E-03  0.0000000E+00 -0.5050505E-02  0.7896186E-08  0.0000000E+00  0.2831654E-04
  0.1499413E-02  0.0000000E+00 -0.5050505E-02  0.2908415E-08  0.0000000E+00  0.2832742E-04
  0.2762042E-02  0.0000000E+00 -0.5050505E-02 -0.2112113E-08  0.0000000E+00  0.2832822E-04
 -0.5050505E-02  0.0000000E+00 -0.5050505E-02 -0.7143466E-08  0.0000000E+00  0.2831891E-04
 -0.5050505E-02  0.0000000E+00 -0.5050505E-02 -0.1216365E-07  0.0000000E+00  0.2829947E-04
 -0.5050505E-02  0.0000000E+00 -0.5050505E-02 -0.1715071E-07  0.0000000E+00  0.2826996E-04
 -0.5050505E-02  0.0000000E+00 -0.5050505E-02 -0.2208286E-07  0.0000000E+00  0.2823047E-04
 -0.5050505E-02  0.0000000E+00 -0.5050505E-02 -0.2693860E-07  0.0000000E+00  0.2818113E-04
 -0.5050505E-02  0.0000000E+00 -0.5050505E-02 -0.3169682E-07  0.0000000E+00  0.2812210E-04
 -0.5050505E-02  0.0000000E+00 -0.5050505E-02 -0.3633691E-07  0.0000000E+00  0.2805362E-04
 -0.5050504E-02  0.0000000E+00 -0.5050505E-02 -0.4083887E-07  0.0000000E+00  0.2797594E-04
 -0.5050501E-02  0.0000000E+00 -0.5050505E-02 -0.4518340E-07  0.0000000E+00  0.2788935E-04
 -0.5050495E-02  0.0000000E+00 -0.5050505E-02 -0.4935202E-07  0.0000000E+00  0.2779419E-04
 -0.5050482E-02  0.0000000E+00 -0.5050505E-02 -0.5332712E-07  0.0000000E+00  0.2769084E-04
 -0.5050449E-02  0.0000000E+00 -0.5050505E-02 -0.5709205E-07  0.0000000E+00  0.2757969E-04
 -0.5050376E-02  0.0000000E+00 -0.5050505E-02 -0.6063122E-07  0.0000000E+00  0.2746120E-04
 -0.5050299E-02  0.0000000E+00 -0.5050505E-02 -0.6393012E-07  0.0000000E+00  0.2733582E-04
 -0.5050178E-02  0.0000000E+00 -0.5050505E-02 -0.6697541E-07  0.0000000E+00  0.2720405E-04
 -0.5050018E-02  0.0000000E+00 -0.5050505E-02 -0.6975495E-07  0.0000000E+00  0.2706643E-04
 -0.5049710E-02  0.0000000E+00 -0.5050505E-02 -0.7225783E-07  0.0000000E+00  0.2692348E-04
 -0.5049253E-02  0.0000000E+00 -0.5050505E-02 -0.7447440E-07  0.0000000E+00  0.2677579E-04
 -0.5048636E-02  0.0000000E+00 -0.5050505E-02 -0.7639630E-07  0.0000000E+00  0.2662393E-04
 -0.5047442E-02  0.0000000E+00 -0.5050505E-02 -0.7801647E-07  0.0000000E+00  0.2646851E-04
 -0.5045727E-02  0.0000000E+00 -0.5050505E-02 -0.7932911E-07  0.0000000E+00  0.2631014E-04
 -0.5043261E-02  0.0000000E+00 -0.5050505E-02 -0.8032970E-07  0.0000000E+00  0.2614944E-04
 -0.5038714E-02  0.0000000E+00 -0.5050505E-02 -0.8101498E-07  0.0000000E+00  0.2598704E-04
 -0.5032318E-02  0.0000000E+00 -0.5050505E-02 -0.8138287E-07  0.0000000E+00  0.2582358E-04
 -0.5022454E-02  0.0000000E+00 -0.5050505E-02 -0.8143250E-07  0.0000000E+00  0.2565971E-04
 -0.5012589E-02  0.0000000E+00 -0.5050505E-02 -0.8116404E-07  0.0000000E+00  0.2549605E-04
 -0.5002725E-02  0.0000000E+00 -0.5050505E-02 -0.8057870E-07  0.0000000E+00  0.2533326E-04
 -0.4992860E-02  0.0000000E+00 -0.5050505E-02 -0.7967858E-07  0.0000000E+00  0.2517196E-04
 -0.4976523E-02  0.0000000E+00 -0.5050505E-02 -0.7846655E-07  0.0000000E+00  0.2501279E-04
 -0.4956794E-02  0.0000000E+00 -0.5050505E-02 -0.7694602E-07  0.0000000E+00  0.2485637E-04
 -0.4937066E-02  0.0000000E+00 -0.5050505E-02 -0.7512074E-07  0.0000000E+00  0.2470332E-04
 -0.4906239E-02  0.0000000E+00 -0.5050505E-02 -0.7299442E-07  0.0000000E+00  0.2455424E-04
 -0.4866782E-02  0.0000000E+00 -0.5050505E-02 -0.7057021E-07  0.0000000E+00  0.2440975E-04
 -0.4827325E-02  0.0000000E+00 -0.5050505E-02 -0.6785002E-07  0.0000000E+00  0.2427044E-04
 -0.4769372E-02  0.0000000E+00 -0.5050505E-02 -0.6483339E-07  0.0000000E+00  0.2413690E-04
 -0.4690458E-02  0.0000000E+00 -0.5050505E-02 -0.6151577E-07  0.0000000E+00  0.2400973E-04
 -0.4611543E-02  0.0000000E+00 -0.5050505E-02 -0.5788575E-07  0.0000000E+00  0.2388956E-04
 -0.4503035E-02  0.0000000E+00 -0.5050505E-02 -0.5392044E-07  0.0000000E+00  0.2377703E-04
 -0.4345206E-02  0.0000000E+00 -0.5050505E-02 -0.4957741E-07  0.0000000E+00  0.2367287E-04
 -0.4187378E-02  0.0000000E+00 -0.5050505E-02 -0.4478003E-07  0.0000000E+00  0.2357790E-04
 -0.3985156E-02  0.0000000E+00 -0.5050505E-02 -0.3938954E-07  0.0000000E+00  0.2349319E-04
 -0.3669499E-02  0.0000000E+00 -0.5050505E-02 -0.3314853E-07  0.0000000E+00  0.2342019E-04
 -0.3353842E-02  0.0000000E+00 -0.5050505E-02 -0.2555918E-07  0.0000000E+00  0.2336110E-04
 -0.2978990E-02  0.0000000E+00 -0.5050505E-02 -0.1560045E-07  0.0000000E+00  0.2331968E-04
 -0.2347676E-02  0.0000000E+00 -0.5050505E-02 -0.1014119E-08  0.0000000E+00  0.2330295E-04
 -0.1716362E-02  0.0000000E+00 -0.5050505E-02  0.2366754E-07  0.0000000E+00  0.2332575E-04
 -0.1025842E-02  0.0000000E+00 -0.5050505E-02  0.7310310E-07  0.0000000E+00  0.2342315E-04
  0.2367855E-03  0.0000000E+00 -0.5050505E-02  0.1910042E-06  0.0000000E+00  0.2368895E-04
  0.1499413E-02  0.0000000E+00 -0.5050505E-02  0.5218242E-06  0.0000000E+00  0.2440638E-04
  0.5287294E-02  0.0000000E+00 -0.5050505E-02  0.8617235E-05  0.0000000E+00  0.1949937E-04
 -0.5050505E-02  0.0000000E+00 -0.5050505E-02  0.6879168E-08  0.0000000E+00  0.2387375E-04
 -0.5050505E-02  0.0000000E+00 -0.5050505E-02  0.2061121E-07  0.0000000E+00  0.2388302E-04
 -0.5050505E-02  0.0000000E+00 -0.5050505E-02  0.3426359E-07  0.0000000E+00  0.2390153E-04
 -0.5050505E-02  0.0000000E+00 -0.5050505E-02  0.4778331E-07  0.0000000E+00  0.2392920E-04
 -0.5050505E-02  0.0000000E+00 -0.5050505E-02  0.6111790E-07  0.0000000E+00  0.2396593E-04
 -0.5050505E-02  0.0000000E+00 -0.5050505E-02  0.7421538E-07  0.0000000E+00  0.2401157E-04
 -0.5050504E-02  0.0000000E+00 -0.5050505E-02  0.8702442E-07  0.0000000E+00  0.2406595E-04
 -0.5050501E-02  0.0000000E+00 -0.5050505E-02  0.9949456E-07  0.0000000E+00  0.2412885E-04
 -0.5050495E-02  0.0000000E+00 -0.5050505E-02  0.1115763E-06  0.0000000E+00  0.2420004E-04
 -0.5050482E-02  0.0000000E+00 -0.5050505E-02  0.1232212E-06  0.0000000E+00  0.2427923E-04
 -0.5050449E-02  0.0000000E+00 -0.5050505E-02  0.1343823E-06  0.0000000E+00  0.2436611E-04
 -0.5050376E-02  0.0000000E+00 -0.5050505E-02  0.1450140E-06  0.0000000E+00  0.2446035E-04
 -0.5050299E-02  0.0000000E+00 -0.5050505E-02  0.1550723E-06  0.0000000E+00  0.2456156E-04
 -0.5050178E-02  0.0000000E+00 -0.5050505E-02  0.1645149E-06  0.0000000E+00  0.2466935E-04
 -0.5050018E-02  0.0000000E+00 -0.5050505E-02  0.1733018E-06  0.0000000E+00  0.2478330E-04
 -0.5049710E-02  0.0000000E+00 -0.5050505E-02  0.1813946E-06  0.0000000E+00  0.2490294E-04
 -0.5049253E-02  0.0000000E+00 -0.5050505E-02  0.1887577E-06  0.0000000E+00  0.2502779E-04
 -0.5048636E-02  0.0000000E+00 -0.5050505E-02  0.1953576E-06  0.0000000E+00  0.2515735E-04
 -0.5047442E-02  0.0000000E+00 -0.5050505E-02  0.2011635E-06  0.0000000E+00  0.2529111E-04
 -0.5045727E-02  0.0000000E+00 -0.5050505E-02  0.2061475E-06  0.0000000E+00  0.2542850E-04
 -0.5043261E-02  0.0000000E+00 -0.5050505E-02  0.2102846E-06  0.0000000E+00  0.2556897E-04
 -0.5038714E-02  0.0000000E+00 -0.5050505E-02  0.2135527E-06  0.0000000E+00  0.2571195E-04
 -0.5032318E-02  0.0000000E+00 -0.5050505E-02  0.2159332E-06  0.0000000E+00  0.2585683E-04
 -0.5022454E-02  0.0000000E+00 -0.5050505E-02  0.2174107E-06  0.0000000E+00  0.2600302E-04
 -0.5012589E-02  0.0000000E+00 -0.5050505E-02  0.2179734E-06  0.0000000E+00  0.2614990E-04
 -0.5002725E-02  0.0000000E+00 -0.5050505E-02  0.2176131E-06  0.0000000E+00  0.2629685E-04
 -0.4992860E-02  0.0000000E+00 -0.5050505E-02  0.2163255E-06  0.0000000E+00  0.2644325E-04
 -0.4976523E-02  0.0000000E+00 -0.5050505E-02  0.2141099E-06  0.0000000E+00  0.2658847E-04
 -0.4956794E-02  0.0000000E+00 -0.5050505E-02  0.2109697E-06  0.0000000E+00  0.2673188E-04
 -0.4937066E-02  0.0000000E+00 -0.5050505E-02  0.2069122E-06  0.0000000E+00  0.2687287E-04
 -0.4906239E-02  0.0000000E+00 -0.5050505E-02  0.2019487E-06  0.0000000E+00  0.2701082E-04
 -0.4866782E-02  0.0000000E+00 -0.5050505E-02  0.1960947E-06  0.0000000E+00  0.2714513E-04
 -0.4827325E-02  0.0000000E+00 -0.5050505E-02  0.1893697E-06  0.0000000E+00  0.2727519E-04
 -0.4769372E-02  0.0000000E+00 -0.5050505E-02  0.1817972E-06  0.0000000E+00  0.2740043E-04
 -0.4690458E-02  0.0000000E+00 -0.5050505E-02  0.1734046E-06  0.0000000E+00  0.2752029E-04
 -0.4611543E-02  0.0000000E+00 -0.5050505E-02  0.1642235E-06  0.0000000E+00  0.2763422E-04
 -0.4503035E-02  0.0000000E+00 -0.5050505E-02  0.1542892E-06  0.0000000E+00  0.2774171E-04
 -0.4345206E-02  0.0000000E+00 -0.5050505E-02  0.1436405E-06  0.0000000E+00  0.2784225E-04
 -0.4187378E-02  0.0000000E+00 -0.5050505E-02  0.1323202E-06  0.0000000E+00  0.2793538E-04
 -0.3985156E-02  0.0000000E+00 -0.5050505E-02  0.1203741E-06  0.0000000E+00  0.2802066E-04
 -0.3669499E-02  0.0000000E+00 -0.5050505E-02  0.1078515E-06  0.0000000E+00  0.2809769E-04
 -0.3353842E-02  0.0000000E+00 -0.5050505E-02  0.9480449E-07  0.0000000E+00  0.2816609E-04
 -0.2978990E-02  0.0000000E+00 -0.5050505E-02  0.8128805E-07  0.0000000E+00  0.2822553E-04
 -0.2347676E-02  0.0000000E+00 -0.5050505E-02  0.6735954E-07  0.0000000E+00  0.2827571E-04
 -0.1716362E-02  0.0000000E+00 -0.5050505E-02  0.5307858E-07  0.0000000E+00  0.2831637E-04
 -0.1025842E-02  0.0000000E+00 -0.5050505E-02  0.3850665E-07  0.0000000E+00  0.2834730E-04
  0.2367855E-03  0.0000000E+00 -0.5050505E-02  0.2370684E-07  0.0000000E+00  0.2836831E-04
  0.1499413E-02  0.0000000E+00 -0.5050505E-02  0.8743467E-08  0.0000000E+00  0.2837929E-04
  0.2762042E-02  0.0000000E+00 -0.5050505E-02 -0.6318214E-08  0.0000000E+00  0.2838013E-04
 -0.5050505E-02  0.0000000E+00 -0.5050505E-02 -0.2141239E-07  0.0000000E+00  0.2837080E-04
 -0.5050505E-02  0.0000000E+00 -0.5050505E-02 -0.3647306E-07  0.0000000E+00  0.2835129E-04
 -0.5050505E-02  0.0000000E+00 -0.5050505E-02 -0.5143434E-07  0.0000000E+00  0.2832165E-04
 -0.5050505E-02  0.0000000E+00 -0.5050505E-02 -0.6623086E-07  0.0000000E+00  0.2828197E-04
 -0.5050505E-02  0.0000000E+00 -0.5050505E-02 -0.8079808E-07  0.0000000E+00  0.2823239E-04
 -0.5050505E-02  0.0000000E+00 -0.5050505E-02 -0.9507266E-07  0.0000000E+00  0.2817307E-04
 -0.5050505E-02  0.0000000E+00 -0.5050505E-02 -0.1089928E-06  0.0000000E+00  0.2810424E-04
 -0.5050504E-02  0.0000000E+00 -0.5050505E-02 -0.1224984E-06  0.0000000E+00  0.2802616E-04
 -0.5050501E-02  0.0000000E+00 -0.5050505E-02 -0.1355316E-06  0.0000000E+00  0.2793912E-04
 -0.5050495E-02  0.0000000E+00 -0.5050505E-02 -0.1480369E-06  0.0000000E+00  0.2784347E-04
 -0.5050482E-02  0.0000000E+00 -0.5050505E-02 -0.1599616E-06  0.0000000E+00  0.2773957E-04
 -0.5050449E-02  0.0000000E+00 -0.5050505E-02 -0.1712556E-06  0.0000000E+00  0.2762785E-04
 -0.5050376E-02  0.0000000E+00 -0.5050505E-02 -0.1818722E-06  0.0000000E+00  0.2750873E-04
 -0.5050299E-02  0.0000000E+00 -0.5050505E-02 -0.1917680E-06  0.0000000E+00  0.2738269E-04
 -0.5050178E-02  0.0000000E+00 -0.5050505E-02 -0.2009027E-06  0.0000000E+00  0.2725023E-04
 -0.5050018E-02  0.0000000E+00 -0.5050505E-02 -0.2092402E-06  0.0000000E+00  0.2711188E-04
 -0.5049710E-02  0.0000000E+00 -0.5050505E-02 -0.2167476E-06  0.0000000E+00  0.2696819E-04
 -0.5049253E-02  0.0000000E+00 -0.5050505E-02 -0.2233960E-06  0.0000000E+00  0.2681972E-04
 -0.5048636E-02  0.0000000E+00 -0.5050505E-02 -0.2291604E-06  0.0000000E+00  0.2666707E-04
 -0.5047442E-02  0.0000000E+00 -0.5050505E-02 -0.2340196E-06  0.0000000E+00  0.2651084E-04
 -0.5045727E-02  0.0000000E+00 -0.5050505E-02 -0.2379563E-06  0.0000000E+00  0.2635164E-04
 -0.5043261E-02  0.0000000E+00 -0.5050505E-02 -0.2409570E-06  0.0000000E+00  0.2619010E-04
 -0.5038714E-02  0.0000000E+00 -0.5050505E-02 -0.2430119E-06  0.0000000E+00  0.2602686E-04
 -0.5032318E-02  0.0000000E+00 -0.5050505E-02 -0.2441148E-06  0.0000000E+00  0.2586255E-04
 -0.5022454E-02  0.0000000E+00 -0.5050505E-02 -0.2442632E-06  0.0000000E+00  0.2569783E-04
 -0.5012589E-02  0.0000000E+00 -0.5050505E-02 -0.2434578E-06  0.0000000E+00  0.2553333E-04
 -0.5002725E-02  0.0000000E+00 -0.5050505E-02 -0.2417021E-06  0.0000000E+00  0.2536969E-04
 -0.4992860E-02  0.0000000E+00 -0.5050505E-02 -0.2390028E-06  0.0000000E+00  0.2520755E-04
 -0.4976523E-02  0.0000000E+00 -0.5050505E-02 -0.2353684E-06  0.0000000E+00  0.2504756E-04
 -0.4956794E-02  0.0000000E+00 -0.5050505E-02 -0.2308096E-06  0.0000000E+00  0.2489032E-04
 -0.4937066E-02  0.0000000E+00 -0.5050505E-02 -0.2253379E-06  0.0000000E+00  0.2473646E-04
 -0.4906239E-02  0.0000000E+00 -0.5050505E-02 -0.2189649E-06  0.0000000E+00  0.2458660E-04
 -0.4866782E-02  0.0000000E+00 -0.5050505E-02 -0.2117007E-06  0.0000000E+00  0.2444132E-04
 -0.4827325E-02  0.0000000E+00 -0.5050505E-02 -0.2035523E-06  0.0000000E+00  0.2430123E-04
 -0.4769372E-02  0.0000000E+00 -0.5050505E-02 -0.1945198E-06  0.0000000E+00  0.2416692E-04
 -0.4690458E-02  0.0000000E+00 -0.5050505E-02 -0.1845925E-06  0.0000000E+00  0.2403898E-04
 -0.4611543E-02  0.0000000E+00 -0.5050505E-02 -0.1737407E-06  0.0000000E+00  0.2391801E-04
 -0.4503035E-02  0.0000000E+00 -0.5050505E-02 -0.1619039E-06  0.0000000E+00  0.2380462E-04
 -0.4345206E-02  0.0000000E+00 -0.5050505E-02 -0.1489695E-06  0.0000000E+00  0.2369949E-04
 -0.4187378E-02  0.0000000E+00 -0.5050505E-02 -0.1347357E-06  0.0000000E+00  0.2360336E-04
 -0.3985156E-02  0.0000000E+00 -0.5050505E-02 -0.1188428E-06  0.0000000E+00  0.2351709E-04
 -0.3669499E-02  0.0000000E+00 -0.5050505E-02 -0.1006409E-06  0.0000000E+00  0.2344180E-04
 -0.3353842E-02  0.0000000E+00 -0.5050505E-02 -0.7891934E-07  0.0000000E+00  0.2337892E-04
 -0.2978990E-02  0.0000000E+00 -0.5050505E-02 -0.5132864E-07  0.0000000E+00  0.2333045E-04
 -0.2347676E-02  0.0000000E+00 -0.5050505E-02 -0.1306315E-07  0.0000000E+00  0.2329900E-04
 -0.1716362E-02  0.0000000E+00 -0.5050505E-02  0.4631482E-07  0.0000000E+00  0.2328699E-04
 -0.1025842E-02  0.0000000E+00 -0.5050505E-02  0.1509857E-06  0.0000000E+00  0.2329132E-04
  0.2367855E-03  0.0000000E+00 -0.5050505E-02  0.3606752E-06  0.0000000E+00  0.2327615E-04
  0.1499413E-02  0.0000000E+00 -0.5050505E-02  0.8316927E-06  0.0000000E+00  0.2304540E-04
  0.5287294E-02  0.0000000E+00 -0.5050505E-02  0.1991866E-05  0.0000000E+00  0.2165043E-04
 -0.5050505E-02  0.0000000E+00 -0.5050505E-02  0.1147449E-07  0.0000000E+00  0.2392791E-04
 -0.5050505E-02  0.0000000E+00 -0.5050505E-02  0.3437951E-07  0.0000000E+00  0.2393728E-04
 -0.5050505E-02  0.0000000E+00 -0.5050505E-02  0.5715174E-07  0.0000000E+00  0.2395597E-04
 -0.5050505E-02  0.0000000E+00 -0.5050505E-02  0.7970287E-07  0.0000000E+00  0.2398392E-04
 -0.5050505E-02  0.0000000E+00 -0.5050505E-02  0.1019454E-06  0.0000000E+00  0.2402103E-04
 -0.5050505E-02  0.0000000E+00 -0.5050505E-02  0.1237928E-06  0.0000000E+00  0.2406713E-04
 -0.5050504E-02  0.0000000E+00 -0.5050505E-02  0.1451593E-06  0.0000000E+00  0.2412207E-04
 -0.5050501E-02  0.0000000E+00 -0.5050505E-02  0.1659609E-06  0.0000000E+00  0.2418562E-04
 -0.5050495E-02  0.0000000E+00 -0.5050505E-02  0.1861150E-06  0.0000000E+00  0.2425754E-04
 -0.5050482E-02  0.0000000E+00 -0.5050505E-02  0.2055410E-06  0.0000000E+00  0.2433754E-04
 -0.5050449E-02  0.0000000E+00 -0.5050505E-02  0.2241605E-06  0.0000000E+00  0.2442532E-04
 -0.5050376E-02  0.0000000E+00 -0.5050505E-02  0.2418973E-06  0.0000000E+00  0.2452053E-04
 -0.5050299E-02  0.0000000E+00 -0.5050505E-02  0.2586781E-06  0.0000000E+00  0.2462279E-04
 -0.5050178E-02  0.0000000E+00 -0.5050505E-02  0.2744326E-06  0.0000000E+00  0.2473171E-04
 -0.5050018E-02  0.0000000E+00 -0.5050505E-02  0.2890936E-06  0.0000000E+00  0.2484684E-04
 -0.5049710E-02  0.0000000E+00 -0.5050505E-02  0.3025975E-06  0.0000000E+00  0.2496773E-04
 -0.5049253E-02  0.0000000E+00 -0.5050505E-02  0.3148844E-06  0.0000000E+00  0.2509389E-04
 -0.5048636E-02  0.0000000E+00 -0.5050505E-02  0.3258988E-06  0.0000000E+00  0.2522483E-04
 -0.5047442E-02  0.0000000E+00 -0.5050505E-02  0.3355892E-06  0.0000000E+00  0.2535999E-04
 -0.5045727E-02  0.0000000E+00 -0.5050505E-02  0.3439089E-06  0.0000000E+00  0.2549885E-04
 -0.5043261E-02  0.0000000E+00 -0.5050505E-02  0.3508160E-06  0.0000000E+00  0.2564082E-04
 -0.5038714E-02  0.0000000E+00 -0.5050505E-02  0.3562739E-06  0.0000000E+00  0.2578533E-04
 -0.5032318E-02  0.0000000E+00 -0.5050505E-02  0.3602512E-06  0.0000000E+00  0.2593178E-04
 -0.5022454E-02  0.0000000E+00 -0.5050505E-02  0.3627223E-06  0.0000000E+00  0.2607955E-04
 -0.5012589E-02  0.0000000E+00 -0.5050505E-02  0.3636674E-06  0.0000000E+00  0.2622802E-04
 -0.5002725E-02  0.0000000E+00 -0.5050505E-02  0.3630729E-06  0.0000000E+00  0.2637658E-04
 -0.4992860E-02  0.0000000E+00 -0.5050505E-02  0.3609311E-06  0.0000000E+00  0.2652458E-04
 -0.4976523E-02  0.0000000E+00 -0.5050505E-02  0.3572411E-06  0.0000000E+00  0.2667141E-04
 -0.4956794E-02  0.0000000E+00 -0.5050505E-02  0.3520084E-06  0.0000000E+00  0.2681641E-04
 -0.4937066E-02  0.0000000E+00 -0.5050505E-02  0.3452451E-06  0.0000000E+00  0.2695897E-04
 -0.4906239E-02  0.0000000E+00 -0.5050505E-02  0.3369700E-06  0.0000000E+00  0.2709847E-04
 -0.4866782E-02  0.0000000E+00 -0.5050505E-02  0.3272089E-06  0.0000000E+00  0.2723429E-04
 -0.4827325E-02  0.0000000E+00 -0.5050505E-02  0.3159941E-06  0.0000000E+00  0.2736583E-04
 -0.4769372E-02  0.0000000E+00 -0.5050505E-02  0.3033648E-06  0.0000000E+00  0.2749250E-04
 -0.4690458E-02  0.0000000E+00 -0.5050505E-02  0.2893669E-06  0.0000000E+00  0.2761373E-04
 -0.4611543E-02  0.0000000E+00 -0.5050505E-02  0.2740528E-06  0.0000000E+00  0.2772897E-04
 -0.4503035E-02  0.0000000E+00 -0.5050505E-02  0.2574814E-06  0.0000000E+00  0.2783771E-04
 -0.4345206E-02  0.0000000E+00 -0.5050505E-02  0.2397176E-06  0.0000000E+00  0.2793942E-04
 -0.4187378E-02  0.0000000E+00 -0.5050505E-02  0.2208326E-06  0.0000000E+00  0.2803365E-04
 -0.3985156E-02  0.0000000E+00 -0.5050505E-02  0.2009030E-06  0.0000000E+00  0.2811995E-04
 -0.3669499E-02  0.0000000E+00 -0.5050505E-02  0.1800108E-06  0.0000000E+00  0.2819790E-04
 -0.3353842E-02  0.0000000E+00 -0.5050505E-02  0.1582433E-06  0.0000000E+00  0.2826713E-04
 -0.2978990E-02  0.0000000E+00 -0.5050505E-02  0.1356919E-06  0.0000000E+00  0.2832731E-04
 -0.2347676E-02  0.0000000E+00 -0.5050505E-02  0.1124525E-06  0.0000000E+00  0.2837812E-04
 -0.1716362E-02  0.0000000E+00 -0.5050505E-02  0.8862469E-07  0.0000000E+00  0.2841931E-04
 -0.1025842E-02  0.0000000E+00 -0.5050505E-02  0.6431102E-07  0.0000000E+00  0.2845065E-04
  0.2367855E-03  0.0000000E+00 -0.5050505E-02  0.3961684E-07  0.0000000E+00  0.2847197E-04
  0.1499413E-02  0.0000000E+00 -0.5050505E-02  0.1464955E-07  0.0000000E+00  0.2848314E-04
  0.2762042E-02  0.0000000E+00 -0.5050505E-02 -0.1048192E-07  0.0000000E+00  0.2848407E-04
 -0.5050505E-02  0.0000000E+00 -0.5050505E-02 -0.3566769E-07  0.0000000E+00  0.2847470E-04
 -0.5050505E-02  0.0000000E+00 -0.5050505E-02 -0.6079755E-07  0.0000000E+00  0.2845505E-04
 -0.5050505E-02  0.0000000E+00 -0.5050505E-02 -0.8576150E-07  0.0000000E+00  0.2842515E-04
 -0.5050505E-02  0.0000000E+00 -0.5050505E-02 -0.1104504E-06  0.0000000E+00  0.2838510E-04
 -0.5050505E-02  0.0000000E+00 -0.5050505E-02 -0.1347565E-06  0.0000000E+00  0.2833504E-04
 -0.5050505E-02  0.0000000E+00 -0.5050505E-02 -0.1585741E-06  0.0000000E+00  0.2827513E-04
 -0.5050505E-02  0.0000000E+00 -0.5050505E-02 -0.1817999E-06  0.0000000E+00  0.2820560E-04
 -0.5050504E-02  0.0000000E+00 -0.5050505E-02 -0.2043337E-06  0.0000000E+00  0.2812672E-04
 -0.5050501E-02  0.0000000E+00 -0.5050505E-02 -0.2260789E-06  0.0000000E+00  0.2803878E-04
 -0.5050495E-02  0.0000000E+00 -0.5050505E-02 -0.2469430E-06  0.0000000E+00  0.2794214E-04
 -0.5050482E-02  0.0000000E+00 -0.5050505E-02 -0.2668377E-06  0.0000000E+00  0.2783716E-04
 -0.5050449E-02  0.0000000E+00 -0.5050505E-02 -0.2856797E-06  0.0000000E+00  0.2772427E-04
 -0.5050376E-02  0.0000000E+00 -0.5050505E-02 -0.3033911E-06  0.0000000E+00  0.2760391E-04
 -0.5050299E-02  0.0000000E+00 -0.5050505E-02 -0.3198992E-06  0.0000000E+00  0.2747655E-04
 -0.5050178E-02  0.0000000E+00 -0.5050505E-02 -0.3351373E-06  0.0000000E+00  0.2734271E-04
 -0.5050018E-02  0.0000000E+00 -0.5050505E-02 -0.3490448E-06  0.0000000E+00  0.2720291E-04
 -0.5049710E-02  0.0000000E+00 -0.5050505E-02 -0.3615670E-06  0.0000000E+00  0.2705771E-04
 -0.5049253E-02  0.0000000E+00 -0.5050505E-02 -0.3726559E-06  0.0000000E+00  0.2690770E-04
 -0.5048636E-02  0.0000000E+00 -0.5050505E-02 -0.3822697E-06  0.0000000E+00  0.2675345E-04
 -0.5047442E-02  0.0000000E+00 -0.5050505E-02 -0.3903733E-06  0.0000000E+00  0.2659559E-04
 -0.5045727E-02  0.0000000E+00 -0.5050505E-02 -0.3969378E-06  0.0000000E+00  0.2643474E-04
 -0.5043261E-02  0.0000000E+00 -0.5050505E-02 -0.4019408E-06  0.0000000E+00  0.2627153E-04
 -0.5038714E-02  0.0000000E+00 -0.5050505E-02 -0.4053662E-06  0.0000000E+00  0.2610660E-04
 -0.5032318E-02  0.0000000E+00 -0.5050505E-02 -0.4072040E-06  0.0000000E+00  0.2594059E-04
 -0.5022454E-02  0.0000000E+00 -0.5050505E-02 -0.4074500E-06  0.0000000E+00  0.2577417E-04
 -0.5012589E-02  0.0000000E+00 -0.5050505E-02 -0.4061056E-06  0.0000000E+00  0.2560797E-04
 -0.5002725E-02  0.0000000E+00 -0.5050505E-02 -0.4031774E-06  0.0000000E+00  0.2544265E-04
 -0.4992860E-02  0.0000000E+00 -0.5050505E-02 -0.3986764E-06  0.0000000E+00  0.2527884E-04
 -0.4976523E-02  0.0000000E+00 -0.5050505E-02 -0.3926180E-06  0.0000000E+00  0.2511719E-04
 -0.4956794E-02  0.0000000E+00 -0.5050505E-02 -0.3850203E-06  0.0000000E+00  0.2495832E-04
 -0.4937066E-02  0.0000000E+00 -0.5050505E-02 -0.3759038E-06  0.0000000E+00  0.2480285E-04
 -0.4906239E-02  0.0000000E+00 -0.5050505E-02 -0.3652891E-06  0.0000000E+00  0.2465141E-04
 -0.4866782E-02  0.0000000E+00 -0.5050505E-02 -0.3531958E-06  0.0000000E+00  0.2450457E-04
 -0.4827325E-02  0.0000000E+00 -0.5050505E-02 -0.3396383E-06  0.0000000E+00  0.2436295E-04
 -0.4769372E-02  0.0000000E+00 -0.5050505E-02 -0.3246225E-06  0.0000000E+00  0.2422711E-04
 -0.4690458E-02  0.0000000E+00 -0.5050505E-02 -0.3081386E-06  0.0000000E+00  0.2409763E-04
 -0.4611543E-02  0.0000000E+00 -0.5050505E-02 -0.2901512E-06  0.0000000E+00  0.2397508E-04
 -0.4503035E-02  0.0000000E+00 -0.5050505E-02 -0.2705830E-06  0.0000000E+00  0.2386003E-04
 -0.4345206E-02  0.0000000E+00 -0.5050505E-02 -0.2492885E-06  0.0000000E+00  0.2375307E-04
 -0.4187378E-02  0.0000000E+00 -0.5050505E-02 -0.2260092E-06  0.0000000E+00  0.2365478E-04
 -0.3985156E-02  0.0000000E+00 -0.5050505E-02 -0.2002973E-06  0.0000000E+00  0.2356577E-04
 -0.3669499E-02  0.0000000E+00 -0.5050505E-02 -0.1713790E-06  0.0000000E+00  0.2348666E-04
 -0.3353842E-02  0.0000000E+00 -0.5050505E-02 -0.1379088E-06  0.0000000E+00  0.2341796E-04
 -0.2978990E-02  0.0000000E+00 -0.5050505E-02 -0.9752079E-07  0.0000000E+00  0.2335984E-04
 -0.2347676E-02  0.0000000E+00 -0.5050505E-02 -0.4602457E-07  0.0000000E+00  0.2331127E-04
 -0.1716362E-02  0.0000000E+00 -0.5050505E-02  0.2391657E-07  0.0000000E+00  0.2326775E-04
 -0.1025842E-02  0.0000000E+00 -0.5050505E-02  0.1243249E-06  0.0000000E+00  0.2321516E-04
  0.2367855E-03  0.0000000E+00 -0.5050505E-02  0.2702932E-06  0.0000000E+00  0.2311542E-04
  0.1499413E-02  0.0000000E+00 -0.5050505E-02  0.4563444E-06  0.0000000E+00  0.2288420E-04
  0.5287294E-02  0.0000000E+00 -0.5050505E-02  0.5200459E-06  0.0000000E+00  0.2243627E-04
 -0.5050505E-02  0.0000000E+00 -0.5050505E-02  0.1610293E-07  0.0000000E+00  0.2400927E-04
 -0.5050505E-02  0.0000000E+00 -0.5050505E-02  0.4824707E-07  0.0000000E+00  0.2401877E-04
 -0.5050505E-02  0.0000000E+00 -0.5050505E-02  0.8020505E-07  0.0000000E+00  0.2403775E-04
 -0.5050505E-02  0.0000000E+00 -0.5050505E-02  0.1118531E-06  0.0000000E+00  0.2406613E-04
 -0.5050505E-02  0.0000000E+00 -0.5050505E-02  0.1430685E-06  0.0000000E+00  0.2410380E-04
 -0.5050505E-02  0.0000000E+00 -0.5050505E-02  0.1737299E-06  0.0000000E+00  0.2415060E-04
 -0.5050504E-02  0.0000000E+00 -0.5050505E-02  0.2037172E-06  0.0000000E+00  0.2420638E-04
 -0.5050501E-02  0.0000000E+00 -0.5050505E-02  0.2329125E-06  0.0000000E+00  0.2427090E-04
 -0.5050495E-02  0.0000000E+00 -0.5050505E-02  0.2611999E-06  0.0000000E+00  0.2434391E-04
 -0.5050482E-02  0.0000000E+00 -0.5050505E-02  0.2884665E-06  0.0000000E+00  0.2442514E-04
 -0.5050449E-02  0.0000000E+00 -0.5050505E-02  0.3146021E-06  0.0000000E+00  0.2451426E-04
 -0.5050376E-02  0.0000000E+00 -0.5050505E-02  0.3395000E-06  0.0000000E+00  0.2461094E-04
 -0.5050299E-02  0.0000000E+00 -0.5050505E-02  0.3630573E-06  0.0000000E+00  0.2471478E-04
 -0.5050178E-02  0.0000000E+00 -0.5050505E-02  0.3851753E-06  0.0000000E+00  0.2482538E-04
 -0.5050018E-02  0.0000000E+00 -0.5050505E-02  0.4057597E-06  0.0000000E+00  0.2494229E-04
 -0.5049710E-02  0.0000000E+00 -0.5050505E-02  0.4247211E-06  0.0000000E+00  0.2506507E-04
 -0.5049253E-02  0.0000000E+00 -0.5050505E-02  0.4419757E-06  0.0000000E+00  0.2519320E-04
 -0.5048636E-02  0.0000000E+00 -0.5050505E-02  0.4574450E-06  0.0000000E+00  0.2532619E-04
 -0.5047442E-02  0.0000000E+00 -0.5050505E-02  0.4710570E-06  0.0000000E+00  0.2546349E-04
 -0.5045727E-02  0.0000000E+00 -0.5050505E-02  0.4827459E-06  0.0000000E+00  0.2560454E-04
 -0.5043261E-02  0.0000000E+00 -0.5050505E-02  0.4924529E-06  0.0000000E+00  0.2574877E-04
 -0.5038714E-02  0.0000000E+00 -0.5050505E-02  0.5001263E-06  0.0000000E+00  0.2589558E-04
 -0.5032318E-02  0.0000000E+00 -0.5050505E-02  0.5057220E-06  0.0000000E+00  0.2604437E-04
 -0.5022454E-02  0.0000000E+00 -0.5050505E-02  0.5092039E-06  0.0000000E+00  0.2619452E-04
 -0.5012589E-02  0.0000000E+00 -0.5050505E-02  0.5105440E-06  0.0000000E+00  0.2634540E-04
 -0.5002725E-02  0.0000000E+00 -0.5050505E-02  0.5097229E-06  0.0000000E+00  0.2649637E-04
 -0.4992860E-02  0.0000000E+00 -0.5050505E-02  0.5067300E-06  0.0000000E+00  0.2664679E-04
 -0.4976523E-02  0.0000000E+00 -0.5050505E-02  0.5015634E-06  0.0000000E+00  0.2679603E-04
 -0.4956794E-02  0.0000000E+00 -0.5050505E-02  0.4942309E-06  0.0000000E+00  0.2694343E-04
 -0.4937066E-02  0.0000000E+00 -0.5050505E-02  0.4847492E-06  0.0000000E+00  0.2708835E-04