title = "dataset feddes"
variables = "x", "y", "z", "vx", "vy", "vz"
zone t = "velocities, solution time =  3.900E+01 days        " i =   99, j =   99, k =    1,  f=point
 -0.5050505E-02  0.0000000E+00 -0.5050505E-02  0.6003574E-11  0.0000000E+00  0.7259883E-07
 -0.5050505E-02  0.0000000E+00 -0.5050505E-02  0.1922302E-10  0.0000000E+00  0.7262420E-07
 -0.5050505E-02  0.0000000E+00 -0.5050505E-02  0.3246240E-10  0.0000000E+00  0.7267618E-07
 -0.5050505E-02  0.0000000E+00 -0.5050505E-02  0.4538306E-10  0.0000000E+00  0.7275446E-07
 -0.5050505E-02  0.0000000E+00 -0.5050505E-02  0.5812364E-10  0.0000000E+00  0.7285856E-07
 -0.5050505E-02  0.0000000E+00 -0.5050505E-02  0.7064320E-10  0.0000000E+00  0.7298805E-07
 -0.5050504E-02  0.0000000E+00 -0.5050505E-02  0.8287736E-10  0.0000000E+00  0.7314244E-07
 -0.5050501E-02  0.0000000E+00 -0.5050505E-02  0.9477245E-10  0.0000000E+00  0.7332110E-07
 -0.5050495E-02  0.0000000E+00 -0.5050505E-02  0.1062840E-09  0.0000000E+00  0.7352329E-07
 -0.5050482E-02  0.0000000E+00 -0.5050505E-02  0.1173712E-09  0.0000000E+00  0.7374822E-07
 -0.5050449E-02  0.0000000E+00 -0.5050505E-02  0.1279941E-09  0.0000000E+00  0.7399497E-07
 -0.5050376E-02  0.0000000E+00 -0.5050505E-02  0.1381127E-09  0.0000000E+00  0.7426259E-07
 -0.5050299E-02  0.0000000E+00 -0.5050505E-02  0.1476877E-09  0.0000000E+00  0.7455000E-07
 -0.5050178E-02  0.0000000E+00 -0.5050505E-02  0.1566806E-09  0.0000000E+00  0.7485610E-07
 -0.5050018E-02  0.0000000E+00 -0.5050505E-02  0.1650545E-09  0.0000000E+00  0.7517965E-07
 -0.5049710E-02  0.0000000E+00 -0.5050505E-02  0.1727743E-09  0.0000000E+00  0.7551940E-07
 -0.5049253E-02  0.0000000E+00 -0.5050505E-02  0.1798069E-09  0.0000000E+00  0.7587397E-07
 -0.5048636E-02  0.0000000E+00 -0.5050505E-02  0.1861217E-09  0.0000000E+00  0.7624198E-07
 -0.5047442E-02  0.0000000E+00 -0.5050505E-02  0.1916905E-09  0.0000000E+00  0.7662193E-07
 -0.5045727E-02  0.0000000E+00 -0.5050505E-02  0.1964879E-09  0.0000000E+00  0.7701230E-07
 -0.5043261E-02  0.0000000E+00 -0.5050505E-02  0.2004911E-09  0.0000000E+00  0.7741153E-07
 -0.5038714E-02  0.0000000E+00 -0.5050505E-02  0.2036803E-09  0.0000000E+00  0.7781799E-07
 -0.5032318E-02  0.0000000E+00 -0.5050505E-02  0.2060391E-09  0.0000000E+00  0.7823003E-07
 -0.5022454E-02  0.0000000E+00 -0.5050505E-02  0.2075539E-09  0.0000000E+00  0.7864597E-07
 -0.5012589E-02  0.0000000E+00 -0.5050505E-02  0.2082146E-09  0.0000000E+00  0.7906409E-07
 -0.5002725E-02  0.0000000E+00 -0.5050505E-02  0.2080144E-09  0.0000000E+00  0.7948268E-07
 -0.4992860E-02  0.0000000E+00 -0.5050505E-02  0.2069502E-09  0.0000000E+00  0.7989999E-07
 -0.4976523E-02  0.0000000E+00 -0.5050505E-02  0.2050223E-09  0.0000000E+00  0.8031430E-07
 -0.4956794E-02  0.0000000E+00 -0.5050505E-02  0.2022346E-09  0.0000000E+00  0.8072386E-07
 -0.4937066E-02  0.0000000E+00 -0.5050505E-02  0.1985947E-09  0.0000000E+00  0.8112696E-07
 -0.4906239E-02  0.0000000E+00 -0.5050505E-02  0.1941138E-09  0.0000000E+00  0.8152189E-07
 -0.4866782E-02  0.0000000E+00 -0.5050505E-02  0.1888070E-09  0.0000000E+00  0.8190698E-07
 -0.4827325E-02  0.0000000E+00 -0.5050505E-02  0.1826927E-09  0.0000000E+00  0.8228059E-07
 -0.4769372E-02  0.0000000E+00 -0.5050505E-02  0.1757932E-09  0.0000000E+00  0.8264110E-07
 -0.4690458E-02  0.0000000E+00 -0.5050505E-02  0.1681341E-09  0.0000000E+00  0.8298698E-07
 -0.4611543E-02  0.0000000E+00 -0.5050505E-02  0.1597446E-09  0.0000000E+00  0.8331671E-07
 -0.4503035E-02  0.0000000E+00 -0.5050505E-02  0.1506568E-09  0.0000000E+00  0.8362887E-07
 -0.4345206E-02  0.0000000E+00 -0.5050505E-02  0.1409063E-09  0.0000000E+00  0.8392209E-07
 -0.4187378E-02  0.0000000E+00 -0.5050505E-02  0.1305312E-09  0.0000000E+00  0.8419506E-07
 -0.3985156E-02  0.0000000E+00 -0.5050505E-02  0.1195725E-09  0.0000000E+00  0.8444658E-07
 -0.3669499E-02  0.0000000E+00 -0.5050505E-02  0.1080737E-09  0.0000000E+00  0.8467552E-07
 -0.3353842E-02  0.0000000E+00 -0.5050505E-02  0.9608063E-10  0.0000000E+00  0.8488083E-07
 -0.2978990E-02  0.0000000E+00 -0.5050505E-02  0.8364217E-10  0.0000000E+00  0.8506157E-07
 -0.2347676E-02  0.0000000E+00 -0.5050505E-02  0.7081003E-10  0.0000000E+00  0.8521690E-07
 -0.1716362E-02  0.0000000E+00 -0.5050505E-02  0.5763946E-10  0.0000000E+00  0.8534607E-07
 -0.1025842E-02  0.0000000E+00 -0.5050505E-02  0.4418921E-10  0.0000000E+00  0.8544848E-07
  0.2367855E-03  0.0000000E+00 -0.5050505E-02  0.3052044E-10  0.0000000E+00  0.8552361E-07
  0.1499413E-02  0.0000000E+00 -0.5050505E-02  0.1669381E-10  0.0000000E+00  0.8557109E-07
  0.2762042E-02  0.0000000E+00 -0.5050505E-02  0.2765627E-11  0.0000000E+00  0.8559066E-07
 -0.5050505E-02  0.0000000E+00 -0.5050505E-02 -0.1121580E-10  0.0000000E+00  0.8558217E-07
 -0.5050505E-02  0.0000000E+00 -0.5050505E-02 -0.2516929E-10  0.0000000E+00  0.8554557E-07
 -0.5050505E-02  0.0000000E+00 -0.5050505E-02 -0.3905611E-10  0.0000000E+00  0.8548098E-07
 -0.5050505E-02  0.0000000E+00 -0.5050505E-02 -0.5275130E-10  0.0000000E+00  0.8538866E-07
 -0.5050505E-02  0.0000000E+00 -0.5050505E-02 -0.6627916E-10  0.0000000E+00  0.8526895E-07
 -0.5050505E-02  0.0000000E+00 -0.5050505E-02 -0.7956956E-10  0.0000000E+00  0.8512228E-07
 -0.5050505E-02  0.0000000E+00 -0.5050505E-02 -0.9254121E-10  0.0000000E+00  0.8494919E-07
 -0.5050504E-02  0.0000000E+00 -0.5050505E-02 -0.1051292E-09  0.0000000E+00  0.8475040E-07
 -0.5050501E-02  0.0000000E+00 -0.5050505E-02 -0.1172814E-09  0.0000000E+00  0.8452673E-07
 -0.5050495E-02  0.0000000E+00 -0.5050505E-02 -0.1289515E-09  0.0000000E+00  0.8427910E-07
 -0.5050482E-02  0.0000000E+00 -0.5050505E-02 -0.1400952E-09  0.0000000E+00  0.8400853E-07
 -0.5050449E-02  0.0000000E+00 -0.5050505E-02 -0.1506694E-09  0.0000000E+00  0.8371612E-07
 -0.5050376E-02  0.0000000E+00 -0.5050505E-02 -0.1606325E-09  0.0000000E+00  0.8340306E-07
 -0.5050299E-02  0.0000000E+00 -0.5050505E-02 -0.1699447E-09  0.0000000E+00  0.8307061E-07
 -0.5050178E-02  0.0000000E+00 -0.5050505E-02 -0.1785688E-09  0.0000000E+00  0.8272012E-07
 -0.5050018E-02  0.0000000E+00 -0.5050505E-02 -0.1864708E-09  0.0000000E+00  0.8235301E-07
 -0.5049710E-02  0.0000000E+00 -0.5050505E-02 -0.1936193E-09  0.0000000E+00  0.8197077E-07
 -0.5049253E-02  0.0000000E+00 -0.5050505E-02 -0.1999865E-09  0.0000000E+00  0.8157494E-07
 -0.5048636E-02  0.0000000E+00 -0.5050505E-02 -0.2055481E-09  0.0000000E+00  0.8116710E-07
 -0.5047442E-02  0.0000000E+00 -0.5050505E-02 -0.2102828E-09  0.0000000E+00  0.8074892E-07
 -0.5045727E-02  0.0000000E+00 -0.5050505E-02 -0.2141732E-09  0.0000000E+00  0.8032206E-07
 -0.5043261E-02  0.0000000E+00 -0.5050505E-02 -0.2172051E-09  0.0000000E+00  0.7988824E-07
 -0.5038714E-02  0.0000000E+00 -0.5050505E-02 -0.2193679E-09  0.0000000E+00  0.7944919E-07
 -0.5032318E-02  0.0000000E+00 -0.5050505E-02 -0.2206539E-09  0.0000000E+00  0.7900668E-07
 -0.5022454E-02  0.0000000E+00 -0.5050505E-02 -0.2210589E-09  0.0000000E+00  0.7856246E-07
 -0.5012589E-02  0.0000000E+00 -0.5050505E-02 -0.2205818E-09  0.0000000E+00  0.7811832E-07
 -0.5002725E-02  0.0000000E+00 -0.5050505E-02 -0.2192238E-09  0.0000000E+00  0.7767602E-07
 -0.4992860E-02  0.0000000E+00 -0.5050505E-02 -0.2169891E-09  0.0000000E+00  0.7723734E-07
 -0.4976523E-02  0.0000000E+00 -0.5050505E-02 -0.2138836E-09  0.0000000E+00  0.7680403E-07
 -0.4956794E-02  0.0000000E+00 -0.5050505E-02 -0.2099147E-09  0.0000000E+00  0.7637783E-07
 -0.4937066E-02  0.0000000E+00 -0.5050505E-02 -0.2050908E-09  0.0000000E+00  0.7596047E-07
 -0.4906239E-02  0.0000000E+00 -0.5050505E-02 -0.1994196E-09  0.0000000E+00  0.7555367E-07
 -0.4866782E-02  0.0000000E+00 -0.5050505E-02 -0.1929071E-09  0.0000000E+00  0.7515912E-07
 -0.4827325E-02  0.0000000E+00 -0.5050505E-02 -0.1855553E-09  0.0000000E+00  0.7477852E-07
 -0.4769372E-02  0.0000000E+00 -0.5050505E-02 -0.1773585E-09  0.0000000E+00  0.7441355E-07
 -0.4690458E-02  0.0000000E+00 -0.5050505E-02 -0.1682980E-09  0.0000000E+00  0.7406593E-07
 -0.4611543E-02  0.0000000E+00 -0.5050505E-02 -0.1583339E-09  0.0000000E+00  0.7373745E-07
 -0.4503035E-02  0.0000000E+00 -0.5050505E-02 -0.1473905E-09  0.0000000E+00  0.7343000E-07
 -0.4345206E-02  0.0000000E+00 -0.5050505E-02 -0.1353313E-09  0.0000000E+00  0.7314567E-07
 -0.4187378E-02  0.0000000E+00 -0.5050505E-02 -0.1219142E-09  0.0000000E+00  0.7288697E-07
 -0.3985156E-02  0.0000000E+00 -0.5050505E-02 -0.1067047E-09  0.0000000E+00  0.7265706E-07
 -0.3669499E-02  0.0000000E+00 -0.5050505E-02 -0.8890150E-10  0.0000000E+00  0.7246034E-07
 -0.3353842E-02  0.0000000E+00 -0.5050505E-02 -0.6695784E-10  0.0000000E+00  0.7230360E-07
 -0.2978990E-02  0.0000000E+00 -0.5050505E-02 -0.3770292E-10  0.0000000E+00  0.7219835E-07
 -0.2347676E-02  0.0000000E+00 -0.5050505E-02  0.5878668E-11  0.0000000E+00  0.7216634E-07
 -0.1716362E-02  0.0000000E+00 -0.5050505E-02  0.8073196E-10  0.0000000E+00  0.7225344E-07
 -0.1025842E-02  0.0000000E+00 -0.5050505E-02  0.2322981E-09  0.0000000E+00  0.7256825E-07
  0.2367855E-03  0.0000000E+00 -0.5050505E-02  0.5960557E-09  0.0000000E+00  0.7340129E-07
  0.1499413E-02  0.0000000E+00 -0.5050505E-02  0.1619560E-08  0.0000000E+00  0.7562946E-07
  0.5287294E-02  0.0000000E+00 -0.5050505E-02  0.2670574E-07  0.0000000E+00  0.6042824E-07
 -0.5050505E-02  0.0000000E+00 -0.5050505E-02  0.1832878E-10  0.0000000E+00  0.7269128E-07
 -0.5050505E-02  0.0000000E+00 -0.5050505E-02  0.5779210E-10  0.0000000E+00  0.7271724E-07
 -0.5050505E-02  0.0000000E+00 -0.5050505E-02  0.9743121E-10  0.0000000E+00  0.7276968E-07
 -0.5050505E-02  0.0000000E+00 -0.5050505E-02  0.1361906E-09  0.0000000E+00  0.7284849E-07
 -0.5050505E-02  0.0000000E+00 -0.5050505E-02  0.1744095E-09  0.0000000E+00  0.7295324E-07
 -0.5050505E-02  0.0000000E+00 -0.5050505E-02  0.2119621E-09  0.0000000E+00  0.7308354E-07
 -0.5050504E-02  0.0000000E+00 -0.5050505E-02  0.2486610E-09  0.0000000E+00  0.7323886E-07
 -0.5050501E-02  0.0000000E+00 -0.5050505E-02  0.2843467E-09  0.0000000E+00  0.7341857E-07
 -0.5050495E-02  0.0000000E+00 -0.5050505E-02  0.3188844E-09  0.0000000E+00  0.7362196E-07
 -0.5050482E-02  0.0000000E+00 -0.5050505E-02  0.3521504E-09  0.0000000E+00  0.7384822E-07
 -0.5050449E-02  0.0000000E+00 -0.5050505E-02  0.3840239E-09  0.0000000E+00  0.7409643E-07
 -0.5050376E-02  0.0000000E+00 -0.5050505E-02  0.4143849E-09  0.0000000E+00  0.7436564E-07
 -0.5050299E-02  0.0000000E+00 -0.5050505E-02  0.4431151E-09  0.0000000E+00  0.7465477E-07
 -0.5050178E-02  0.0000000E+00 -0.5050505E-02  0.4700991E-09  0.0000000E+00  0.7496269E-07
 -0.5050018E-02  0.0000000E+00 -0.5050505E-02  0.4952261E-09  0.0000000E+00  0.7528818E-07
 -0.5049710E-02  0.0000000E+00 -0.5050505E-02  0.5183909E-09  0.0000000E+00  0.7562996E-07
 -0.5049253E-02  0.0000000E+00 -0.5050505E-02  0.5394942E-09  0.0000000E+00  0.7598667E-07
 -0.5048636E-02  0.0000000E+00 -0.5050505E-02  0.5584441E-09  0.0000000E+00  0.7635688E-07
 -0.5047442E-02  0.0000000E+00 -0.5050505E-02  0.5751560E-09  0.0000000E+00  0.7673913E-07
 -0.5045727E-02  0.0000000E+00 -0.5050505E-02  0.5895534E-09  0.0000000E+00  0.7713187E-07
 -0.5043261E-02  0.0000000E+00 -0.5050505E-02  0.6015682E-09  0.0000000E+00  0.7753353E-07
 -0.5038714E-02  0.0000000E+00 -0.5050505E-02  0.6111412E-09  0.0000000E+00  0.7794246E-07
 -0.5032318E-02  0.0000000E+00 -0.5050505E-02  0.6182223E-09  0.0000000E+00  0.7835702E-07
 -0.5022454E-02  0.0000000E+00 -0.5050505E-02  0.6227712E-09  0.0000000E+00  0.7877550E-07
 -0.5012589E-02  0.0000000E+00 -0.5050505E-02  0.6247575E-09  0.0000000E+00  0.7919620E-07
 -0.5002725E-02  0.0000000E+00 -0.5050505E-02  0.6241609E-09  0.0000000E+00  0.7961736E-07
 -0.4992860E-02  0.0000000E+00 -0.5050505E-02  0.6209716E-09  0.0000000E+00  0.8003726E-07
 -0.4976523E-02  0.0000000E+00 -0.5050505E-02  0.6151907E-09  0.0000000E+00  0.8045413E-07
 -0.4956794E-02  0.0000000E+00 -0.5050505E-02  0.6068298E-09  0.0000000E+00  0.8086624E-07
 -0.4937066E-02  0.0000000E+00 -0.5050505E-02  0.5959117E-09  0.0000000E+00  0.8127186E-07
 -0.4906239E-02  0.0000000E+00 -0.5050505E-02  0.5824702E-09  0.0000000E+00  0.8166926E-07
 -0.4866782E-02  0.0000000E+00 -0.5050505E-02  0.5665500E-09  0.0000000E+00  0.8205677E-07
 -0.4827325E-02  0.0000000E+00 -0.5050505E-02  0.5482068E-09  0.0000000E+00  0.8243273E-07
 -0.4769372E-02  0.0000000E+00 -0.5050505E-02  0.5275072E-09  0.0000000E+00  0.8279553E-07
 -0.4690458E-02  0.0000000E+00 -0.5050505E-02  0.5045282E-09  0.0000000E+00  0.8314360E-07
 -0.4611543E-02  0.0000000E+00 -0.5050505E-02  0.4793570E-09  0.0000000E+00  0.8347543E-07
 -0.4503035E-02  0.0000000E+00 -0.5050505E-02  0.4520906E-09  0.0000000E+00  0.8378959E-07
 -0.4345206E-02  0.0000000E+00 -0.5050505E-02  0.4228351E-09  0.0000000E+00  0.8408468E-07
 -0.4187378E-02  0.0000000E+00 -0.5050505E-02  0.3917053E-09  0.0000000E+00  0.8435942E-07
 -0.3985156E-02  0.0000000E+00 -0.5050505E-02  0.3588238E-09  0.0000000E+00  0.8461257E-07
 -0.3669499E-02  0.0000000E+00 -0.5050505E-02  0.3243209E-09  0.0000000E+00  0.8484300E-07
 -0.3353842E-02  0.0000000E+00 -0.5050505E-02  0.2883345E-09  0.0000000E+00  0.8504965E-07
 -0.2978990E-02  0.0000000E+00 -0.5050505E-02  0.2510107E-09  0.0000000E+00  0.8523158E-07
 -0.2347676E-02  0.0000000E+00 -0.5050505E-02  0.2125050E-09  0.0000000E+00  0.8538794E-07
 -0.1716362E-02  0.0000000E+00 -0.5050505E-02  0.1729838E-09  0.0000000E+00  0.8551798E-07
 -0.1025842E-02  0.0000000E+00 -0.5050505E-02  0.1326242E-09  0.0000000E+00  0.8562109E-07
  0.2367855E-03  0.0000000E+00 -0.5050505E-02  0.9161073E-10  0.0000000E+00  0.8569675E-07
  0.1499413E-02  0.0000000E+00 -0.5050505E-02  0.5012513E-10  0.0000000E+00  0.8574459E-07
  0.2762042E-02  0.0000000E+00 -0.5050505E-02  0.8327424E-11  0.0000000E+00  0.8576434E-07
 -0.5050505E-02  0.0000000E+00 -0.5050505E-02 -0.3363966E-10  0.0000000E+00  0.8575583E-07
 -0.5050505E-02  0.0000000E+00 -0.5050505E-02 -0.7548800E-10  0.0000000E+00  0.8571907E-07
 -0.5050505E-02  0.0000000E+00 -0.5050505E-02 -0.1171489E-09  0.0000000E+00  0.8565415E-07
 -0.5050505E-02  0.0000000E+00 -0.5050505E-02 -0.1582668E-09  0.0000000E+00  0.8556132E-07
 -0.5050505E-02  0.0000000E+00 -0.5050505E-02 -0.1988648E-09  0.0000000E+00  0.8544090E-07
 -0.5050505E-02  0.0000000E+00 -0.5050505E-02 -0.2387394E-09  0.0000000E+00  0.8529334E-07
 -0.5050505E-02  0.0000000E+00 -0.5050505E-02 -0.2776571E-09  0.0000000E+00  0.8511922E-07
 -0.5050504E-02  0.0000000E+00 -0.5050505E-02 -0.3154260E-09  0.0000000E+00  0.8491925E-07
 -0.5050501E-02  0.0000000E+00 -0.5050505E-02 -0.3518894E-09  0.0000000E+00  0.8469424E-07
 -0.5050495E-02  0.0000000E+00 -0.5050505E-02 -0.3869069E-09  0.0000000E+00  0.8444512E-07
 -0.5050482E-02  0.0000000E+00 -0.5050505E-02 -0.4203449E-09  0.0000000E+00  0.8417292E-07
 -0.5050449E-02  0.0000000E+00 -0.5050505E-02 -0.4520737E-09  0.0000000E+00  0.8387875E-07
 -0.5050376E-02  0.0000000E+00 -0.5050505E-02 -0.4819681E-09  0.0000000E+00  0.8356379E-07
 -0.5050299E-02  0.0000000E+00 -0.5050505E-02 -0.5099092E-09  0.0000000E+00  0.8322933E-07
 -0.5050178E-02  0.0000000E+00 -0.5050505E-02 -0.5357855E-09  0.0000000E+00  0.8287672E-07
 -0.5050018E-02  0.0000000E+00 -0.5050505E-02 -0.5594943E-09  0.0000000E+00  0.8250739E-07
 -0.5049710E-02  0.0000000E+00 -0.5050505E-02 -0.5809423E-09  0.0000000E+00  0.8212284E-07
 -0.5049253E-02  0.0000000E+00 -0.5050505E-02 -0.6000458E-09  0.0000000E+00  0.8172461E-07
 -0.5048636E-02  0.0000000E+00 -0.5050505E-02 -0.6167316E-09  0.0000000E+00  0.8131432E-07
 -0.5047442E-02  0.0000000E+00 -0.5050505E-02 -0.6309367E-09  0.0000000E+00  0.8089361E-07
 -0.5045727E-02  0.0000000E+00 -0.5050505E-02 -0.6426084E-09  0.0000000E+00  0.8046418E-07
 -0.5043261E-02  0.0000000E+00 -0.5050505E-02 -0.6517043E-09  0.0000000E+00  0.8002774E-07
 -0.5038714E-02  0.0000000E+00 -0.5050505E-02 -0.6581924E-09  0.0000000E+00  0.7958606E-07
 -0.5032318E-02  0.0000000E+00 -0.5050505E-02 -0.6620505E-09  0.0000000E+00  0.7914088E-07
 -0.5022454E-02  0.0000000E+00 -0.5050505E-02 -0.6632658E-09  0.0000000E+00  0.7869400E-07
 -0.5012589E-02  0.0000000E+00 -0.5050505E-02 -0.6618349E-09  0.0000000E+00  0.7824719E-07
 -0.5002725E-02  0.0000000E+00 -0.5050505E-02 -0.6577624E-09  0.0000000E+00  0.7780223E-07
 -0.4992860E-02  0.0000000E+00 -0.5050505E-02 -0.6510606E-09  0.0000000E+00  0.7736090E-07
 -0.4976523E-02  0.0000000E+00 -0.5050505E-02 -0.6417480E-09  0.0000000E+00  0.7692497E-07
 -0.4956794E-02  0.0000000E+00 -0.5050505E-02 -0.6298478E-09  0.0000000E+00  0.7649617E-07
 -0.4937066E-02  0.0000000E+00 -0.5050505E-02 -0.6153857E-09  0.0000000E+00  0.7607626E-07
 -0.4906239E-02  0.0000000E+00 -0.5050505E-02 -0.5983867E-09  0.0000000E+00  0.7566693E-07
 -0.4866782E-02  0.0000000E+00 -0.5050505E-02 -0.5788711E-09  0.0000000E+00  0.7526989E-07
 -0.4827325E-02  0.0000000E+00 -0.5050505E-02 -0.5568478E-09  0.0000000E+00  0.7488682E-07
 -0.4769372E-02  0.0000000E+00 -0.5050505E-02 -0.5323052E-09  0.0000000E+00  0.7451939E-07
 -0.4690458E-02  0.0000000E+00 -0.5050505E-02 -0.5051961E-09  0.0000000E+00  0.7416929E-07
 -0.4611543E-02  0.0000000E+00 -0.5050505E-02 -0.4754150E-09  0.0000000E+00  0.7383825E-07
 -0.4503035E-02  0.0000000E+00 -0.5050505E-02 -0.4427596E-09  0.0000000E+00  0.7352806E-07
 -0.4345206E-02  0.0000000E+00 -0.5050505E-02 -0.4068665E-09  0.0000000E+00  0.7324068E-07
 -0.4187378E-02  0.0000000E+00 -0.5050505E-02 -0.3670961E-09  0.0000000E+00  0.7297828E-07
 -0.3985156E-02  0.0000000E+00 -0.5050505E-02 -0.3223214E-09  0.0000000E+00  0.7274350E-07
 -0.3669499E-02  0.0000000E+00 -0.5050505E-02 -0.2705165E-09  0.0000000E+00  0.7253963E-07
 -0.3353842E-02  0.0000000E+00 -0.5050505E-02 -0.2079200E-09  0.0000000E+00  0.7237109E-07
 -0.2978990E-02  0.0000000E+00 -0.5050505E-02 -0.1272321E-09  0.0000000E+00  0.7224395E-07
 -0.2347676E-02  0.0000000E+00 -0.5050505E-02 -0.1352608E-10  0.0000000E+00  0.7216623E-07
 -0.1716362E-02  0.0000000E+00 -0.5050505E-02  0.1655792E-09  0.0000000E+00  0.7214543E-07
 -0.1025842E-02  0.0000000E+00 -0.5050505E-02  0.4849662E-09  0.0000000E+00  0.7217182E-07
  0.2367855E-03  0.0000000E+00 -0.5050505E-02  0.1129723E-08  0.0000000E+00  0.7213425E-07
  0.1499413E-02  0.0000000E+00 -0.5050505E-02  0.2584075E-08  0.0000000E+00  0.7142528E-07
  0.5287294E-02  0.0000000E+00 -0.5050505E-02  0.6172846E-08  0.0000000E+00  0.6710764E-07
 -0.5050505E-02  0.0000000E+00 -0.5050505E-02  0.3111923E-10  0.0000000E+00  0.7287775E-07
 -0.5050505E-02  0.0000000E+00 -0.5050505E-02  0.9671209E-10  0.0000000E+00  0.7290423E-07
 -0.5050505E-02  0.0000000E+00 -0.5050505E-02  0.1626958E-09  0.0000000E+00  0.7295744E-07
 -0.5050505E-02  0.0000000E+00 -0.5050505E-02  0.2273545E-09  0.0000000E+00  0.7303726E-07
 -0.5050505E-02  0.0000000E+00 -0.5050505E-02  0.2911180E-09  0.0000000E+00  0.7314330E-07
 -0.5050505E-02  0.0000000E+00 -0.5050505E-02  0.3537669E-09  0.0000000E+00  0.7327516E-07
 -0.5050504E-02  0.0000000E+00 -0.5050505E-02  0.4149976E-09  0.0000000E+00  0.7343232E-07
 -0.5050501E-02  0.0000000E+00 -0.5050505E-02  0.4745457E-09  0.0000000E+00  0.7361416E-07
 -0.5050495E-02  0.0000000E+00 -0.5050505E-02  0.5321845E-09  0.0000000E+00  0.7381995E-07
 -0.5050482E-02  0.0000000E+00 -0.5050505E-02  0.5877048E-09  0.0000000E+00  0.7404888E-07
 -0.5050449E-02  0.0000000E+00 -0.5050505E-02  0.6409032E-09  0.0000000E+00  0.7430003E-07
 -0.5050376E-02  0.0000000E+00 -0.5050505E-02  0.6915787E-09  0.0000000E+00  0.7457242E-07
 -0.5050299E-02  0.0000000E+00 -0.5050505E-02  0.7395334E-09  0.0000000E+00  0.7486498E-07
 -0.5050178E-02  0.0000000E+00 -0.5050505E-02  0.7845750E-09  0.0000000E+00  0.7517656E-07
 -0.5050018E-02  0.0000000E+00 -0.5050505E-02  0.8265185E-09  0.0000000E+00  0.7550593E-07
 -0.5049710E-02  0.0000000E+00 -0.5050505E-02  0.8651879E-09  0.0000000E+00  0.7585179E-07
 -0.5049253E-02  0.0000000E+00 -0.5050505E-02  0.9004180E-09  0.0000000E+00  0.7621277E-07
 -0.5048636E-02  0.0000000E+00 -0.5050505E-02  0.9320551E-09  0.0000000E+00  0.7658743E-07
 -0.5047442E-02  0.0000000E+00 -0.5050505E-02  0.9599579E-09  0.0000000E+00  0.7697428E-07
 -0.5045727E-02  0.0000000E+00 -0.5050505E-02  0.9839985E-09  0.0000000E+00  0.7737176E-07
 -0.5043261E-02  0.0000000E+00 -0.5050505E-02  0.1004063E-08  0.0000000E+00  0.7777827E-07
 -0.5038714E-02  0.0000000E+00 -0.5050505E-02  0.1020053E-08  0.0000000E+00  0.7819216E-07
 -0.5032318E-02  0.0000000E+00 -0.5050505E-02  0.1031884E-08  0.0000000E+00  0.7861176E-07
 -0.5022454E-02  0.0000000E+00 -0.5050505E-02  0.1039490E-08  0.0000000E+00  0.7903535E-07
 -0.5012589E-02  0.0000000E+00 -0.5050505E-02  0.1042818E-08  0.0000000E+00  0.7946119E-07
 -0.5002725E-02  0.0000000E+00 -0.5050505E-02  0.1041835E-08  0.0000000E+00  0.7988753E-07
 -0.4992860E-02  0.0000000E+00 -0.5050505E-02  0.1036525E-08  0.0000000E+00  0.8031259E-07
 -0.4976523E-02  0.0000000E+00 -0.5050505E-02  0.1026888E-08  0.0000000E+00  0.8073462E-07
 -0.4956794E-02  0.0000000E+00 -0.5050505E-02  0.1012945E-08  0.0000000E+00  0.8115183E-07
 -0.4937066E-02  0.0000000E+00 -0.5050505E-02  0.9947333E-09  0.0000000E+00  0.8156249E-07
 -0.4906239E-02  0.0000000E+00 -0.5050505E-02  0.9723088E-09  0.0000000E+00  0.8196485E-07
 -0.4866782E-02  0.0000000E+00 -0.5050505E-02  0.9457462E-09  0.0000000E+00  0.8235720E-07
 -0.4827325E-02  0.0000000E+00 -0.5050505E-02  0.9151385E-09  0.0000000E+00  0.8273788E-07
 -0.4769372E-02  0.0000000E+00 -0.5050505E-02  0.8805965E-09  0.0000000E+00  0.8310524E-07
 -0.4690458E-02  0.0000000E+00 -0.5050505E-02  0.8422488E-09  0.0000000E+00  0.8345771E-07
 -0.4611543E-02  0.0000000E+00 -0.5050505E-02  0.8002409E-09  0.0000000E+00  0.8379375E-07
 -0.4503035E-02  0.0000000E+00 -0.5050505E-02  0.7547346E-09  0.0000000E+00  0.8411190E-07
 -0.4345206E-02  0.0000000E+00 -0.5050505E-02  0.7059070E-09  0.0000000E+00  0.8441076E-07
 -0.4187378E-02  0.0000000E+00 -0.5050505E-02  0.6539497E-09  0.0000000E+00  0.8468902E-07
 -0.3985156E-02  0.0000000E+00 -0.5050505E-02  0.5990670E-09  0.0000000E+00  0.8494543E-07
 -0.3669499E-02  0.0000000E+00 -0.5050505E-02  0.5414763E-09  0.0000000E+00  0.8517884E-07
 -0.3353842E-02  0.0000000E+00 -0.5050505E-02  0.4814071E-09  0.0000000E+00  0.8538819E-07
 -0.2978990E-02  0.0000000E+00 -0.5050505E-02  0.4191033E-09  0.0000000E+00  0.8557250E-07
 -0.2347676E-02  0.0000000E+00 -0.5050505E-02  0.3548251E-09  0.0000000E+00  0.8573093E-07
 -0.1716362E-02  0.0000000E+00 -0.5050505E-02  0.2888517E-09  0.0000000E+00  0.8586271E-07
 -0.1025842E-02  0.0000000E+00 -0.5050505E-02  0.2214807E-09  0.0000000E+00  0.8596721E-07
  0.2367855E-03  0.0000000E+00 -0.5050505E-02  0.1530202E-09  0.0000000E+00  0.8604393E-07
  0.1499413E-02  0.0000000E+00 -0.5050505E-02  0.8377137E-10  0.0000000E+00  0.8609248E-07
  0.2762042E-02  0.0000000E+00 -0.5050505E-02  0.1400229E-10  0.0000000E+00  0.8611260E-07
 -0.5050505E-02  0.0000000E+00 -0.5050505E-02 -0.5607482E-10  0.0000000E+00  0.8610411E-07
 -0.5050505E-02  0.0000000E+00 -0.5050505E-02 -0.1259077E-09  0.0000000E+00  0.8606700E-07
 -0.5050505E-02  0.0000000E+00 -0.5050505E-02 -0.1954364E-09  0.0000000E+00  0.8600139E-07
 -0.5050505E-02  0.0000000E+00 -0.5050505E-02 -0.2641112E-09  0.0000000E+00  0.8590750E-07
 -0.5050505E-02  0.0000000E+00 -0.5050505E-02 -0.3318899E-09  0.0000000E+00  0.8578568E-07
 -0.5050505E-02  0.0000000E+00 -0.5050505E-02 -0.3984418E-09  0.0000000E+00  0.8563639E-07
 -0.5050505E-02  0.0000000E+00 -0.5050505E-02 -0.4633948E-09  0.0000000E+00  0.8546020E-07
 -0.5050504E-02  0.0000000E+00 -0.5050505E-02 -0.5264349E-09  0.0000000E+00  0.8525785E-07
 -0.5050501E-02  0.0000000E+00 -0.5050505E-02 -0.5872992E-09  0.0000000E+00  0.8503015E-07
 -0.5050495E-02  0.0000000E+00 -0.5050505E-02 -0.6457510E-09  0.0000000E+00  0.8477805E-07
 -0.5050482E-02  0.0000000E+00 -0.5050505E-02 -0.7015659E-09  0.0000000E+00  0.8450258E-07
 -0.5050449E-02  0.0000000E+00 -0.5050505E-02 -0.7545266E-09  0.0000000E+00  0.8420486E-07
 -0.5050376E-02  0.0000000E+00 -0.5050505E-02 -0.8044242E-09  0.0000000E+00  0.8388611E-07
 -0.5050299E-02  0.0000000E+00 -0.5050505E-02 -0.8510600E-09  0.0000000E+00  0.8354762E-07
 -0.5050178E-02  0.0000000E+00 -0.5050505E-02 -0.8942483E-09  0.0000000E+00  0.8319076E-07
 -0.5050018E-02  0.0000000E+00 -0.5050505E-02 -0.9338178E-09  0.0000000E+00  0.8281698E-07
 -0.5049710E-02  0.0000000E+00 -0.5050505E-02 -0.9696127E-09  0.0000000E+00  0.8242779E-07
 -0.5049253E-02  0.0000000E+00 -0.5050505E-02 -0.1001494E-08  0.0000000E+00  0.8202478E-07
 -0.5048636E-02  0.0000000E+00 -0.5050505E-02 -0.1029339E-08  0.0000000E+00  0.8160955E-07
 -0.5047442E-02  0.0000000E+00 -0.5050505E-02 -0.1053044E-08  0.0000000E+00  0.8118379E-07
 -0.5045727E-02  0.0000000E+00 -0.5050505E-02 -0.1072520E-08  0.0000000E+00  0.8074920E-07
 -0.5043261E-02  0.0000000E+00 -0.5050505E-02 -0.1087697E-08  0.0000000E+00  0.8030754E-07
 -0.5038714E-02  0.0000000E+00 -0.5050505E-02 -0.1098523E-08  0.0000000E+00  0.7986056E-07
 -0.5032318E-02  0.0000000E+00 -0.5050505E-02 -0.1104960E-08  0.0000000E+00  0.7941005E-07
 -0.5022454E-02  0.0000000E+00 -0.5050505E-02 -0.1106988E-08  0.0000000E+00  0.7895782E-07
 -0.5012589E-02  0.0000000E+00 -0.5050505E-02 -0.1104602E-08  0.0000000E+00  0.7850566E-07
 -0.5002725E-02  0.0000000E+00 -0.5050505E-02 -0.1097810E-08  0.0000000E+00  0.7805537E-07
 -0.4992860E-02  0.0000000E+00 -0.5050505E-02 -0.1086636E-08  0.0000000E+00  0.7760874E-07
 -0.4976523E-02  0.0000000E+00 -0.5050505E-02 -0.1071110E-08  0.0000000E+00  0.7716756E-07
 -0.4956794E-02  0.0000000E+00 -0.5050505E-02 -0.1051274E-08  0.0000000E+00  0.7673358E-07
 -0.4937066E-02  0.0000000E+00 -0.5050505E-02 -0.1027174E-08  0.0000000E+00  0.7630855E-07
 -0.4906239E-02  0.0000000E+00 -0.5050505E-02 -0.9988567E-09  0.0000000E+00  0.7589418E-07
 -0.4866782E-02  0.0000000E+00 -0.5050505E-02 -0.9663627E-09  0.0000000E+00  0.7549217E-07
 -0.4827325E-02  0.0000000E+00 -0.5050505E-02 -0.9297175E-09  0.0000000E+00  0.7510417E-07
 -0.4769372E-02  0.0000000E+00 -0.5050505E-02 -0.8889177E-09  0.0000000E+00  0.7473186E-07
 -0.4690458E-02  0.0000000E+00 -0.5050505E-02 -0.8439110E-09  0.0000000E+00  0.7437685E-07
 -0.4611543E-02  0.0000000E+00 -0.5050505E-02 -0.7945643E-09  0.0000000E+00  0.7404078E-07
 -0.4503035E-02  0.0000000E+00 -0.5050505E-02 -0.7406138E-09  0.0000000E+00  0.7372529E-07
 -0.4345206E-02  0.0000000E+00 -0.5050505E-02 -0.6815841E-09  0.0000000E+00  0.7343208E-07
 -0.4187378E-02  0.0000000E+00 -0.5050505E-02 -0.6166517E-09  0.0000000E+00  0.7316287E-07
 -0.3985156E-02  0.0000000E+00 -0.5050505E-02 -0.5444075E-09  0.0000000E+00  0.7291946E-07
 -0.3669499E-02  0.0000000E+00 -0.5050505E-02 -0.4624345E-09  0.0000000E+00  0.7270364E-07
 -0.3353842E-02  0.0000000E+00 -0.5050505E-02 -0.3665442E-09  0.0000000E+00  0.7251696E-07
 -0.2978990E-02  0.0000000E+00 -0.5050505E-02 -0.2493896E-09  0.0000000E+00  0.7235983E-07
 -0.2347676E-02  0.0000000E+00 -0.5050505E-02 -0.9794268E-10  0.0000000E+00  0.7222902E-07
 -0.1716362E-02  0.0000000E+00 -0.5050505E-02  0.1106269E-09  0.0000000E+00  0.7211053E-07
 -0.1025842E-02  0.0000000E+00 -0.5050505E-02  0.4134340E-09  0.0000000E+00  0.7196061E-07
  0.2367855E-03  0.0000000E+00 -0.5050505E-02  0.8572286E-09  0.0000000E+00  0.7166133E-07
  0.1499413E-02  0.0000000E+00 -0.5050505E-02  0.1424979E-08  0.0000000E+00  0.7095159E-07
  0.5287294E-02  0.0000000E+00 -0.5050505E-02  0.1613421E-08  0.0000000E+00  0.6956786E-07
 -0.5050505E-02  0.0000000E+00 -0.5050505E-02  0.4416360E-10  0.0000000E+00  0.7315858E-07
 -0.5050505E-02  0.0000000E+00 -0.5050505E-02  0.1361517E-09  0.0000000E+00  0.7318560E-07
 -0.5050505E-02  0.0000000E+00 -0.5050505E-02  0.2286473E-09  0.0000000E+00  0.7323983E-07
 -0.5050505E-02  0.0000000E+00 -0.5050505E-02  0.3194138E-09  0.0000000E+00  0.7332111E-07
 -0.5050505E-02  0.0000000E+00 -0.5050505E-02  0.4089373E-09  0.0000000E+00  0.7342905E-07
 -0.5050505E-02  0.0000000E+00 -0.5050505E-02  0.4968978E-09  0.0000000E+00  0.7356325E-07
 -0.5050504E-02  0.0000000E+00 -0.5050505E-02  0.5828760E-09  0.0000000E+00  0.7372318E-07
 -0.5050501E-02  0.0000000E+00 -0.5050505E-02  0.6665022E-09  0.0000000E+00  0.7390821E-07
 -0.5050495E-02  0.0000000E+00 -0.5050505E-02  0.7474555E-09  0.0000000E+00  0.7411762E-07
 -0.5050482E-02  0.0000000E+00 -0.5050505E-02  0.8254393E-09  0.0000000E+00  0.7435056E-07
 -0.5050449E-02  0.0000000E+00 -0.5050505E-02  0.9001657E-09  0.0000000E+00  0.7460613E-07
 -0.5050376E-02  0.0000000E+00 -0.5050505E-02  0.9713515E-09  0.0000000E+00  0.7488332E-07
 -0.5050299E-02  0.0000000E+00 -0.5050505E-02  0.1038718E-08  0.0000000E+00  0.7518104E-07
 -0.5050178E-02  0.0000000E+00 -0.5050505E-02  0.1101996E-08  0.0000000E+00  0.7549813E-07
 -0.5050018E-02  0.0000000E+00 -0.5050505E-02  0.1160924E-08  0.0000000E+00  0.7583334E-07
 -0.5049710E-02  0.0000000E+00 -0.5050505E-02  0.1215256E-08  0.0000000E+00  0.7618534E-07
 -0.5049253E-02  0.0000000E+00 -0.5050505E-02  0.1264760E-08  0.0000000E+00  0.7655274E-07
 -0.5048636E-02  0.0000000E+00 -0.5050505E-02  0.1309218E-08  0.0000000E+00  0.7693409E-07
 -0.5047442E-02  0.0000000E+00 -0.5050505E-02  0.1348433E-08  0.0000000E+00  0.7732786E-07
 -0.5045727E-02  0.0000000E+00 -0.5050505E-02  0.1382225E-08  0.0000000E+00  0.7773247E-07
 -0.5043261E-02  0.0000000E+00 -0.5050505E-02  0.1410434E-08  0.0000000E+00  0.7814629E-07
 -0.5038714E-02  0.0000000E+00 -0.5050505E-02  0.1432920E-08  0.0000000E+00  0.7856765E-07
 -0.5032318E-02  0.0000000E+00 -0.5050505E-02  0.1449566E-08  0.0000000E+00  0.7899484E-07
 -0.5022454E-02  0.0000000E+00 -0.5050505E-02  0.1460276E-08  0.0000000E+00  0.7942611E-07
 -0.5012589E-02  0.0000000E+00 -0.5050505E-02  0.1464978E-08  0.0000000E+00  0.7985970E-07
 -0.5002725E-02  0.0000000E+00 -0.5050505E-02  0.1463625E-08  0.0000000E+00  0.8029382E-07
 -0.4992860E-02  0.0000000E+00 -0.5050505E-02  0.1456192E-08  0.0000000E+00  0.8072666E-07
 -0.4976523E-02  0.0000000E+00 -0.5050505E-02  0.1442682E-08  0.0000000E+00  0.8115644E-07
 -0.4956794E-02  0.0000000E+00 -0.5050505E-02  0.1423121E-08  0.0000000E+00  0.8158134E-07
 -0.4937066E-02  0.0000000E+00 -0.5050505E-02  0.1397562E-08  0.0000000E+00  0.8199958E-07