title = "dataset feddes"
variables = "x", "y", "z", "h_w", "p_w", "s_w", "theta_w", "transp", "evap"
zone t = "Flow variables, solution time =  5.500E+01 days        " i =  100, j =  100, k =    1,  f=point
  0.0000000E+00  0.0000000E+00  0.0000000E+00 -0.5000000E+01 -0.5000000E+01  0.5313722E+00  0.2274273E+00  0.0000000E+00  0.0000000E+00
  0.1010101E-01  0.0000000E+00  0.0000000E+00 -0.5000000E+01 -0.5000000E+01  0.5313722E+00  0.2274273E+00  0.0000000E+00  0.0000000E+00
  0.2020202E-01  0.0000000E+00  0.0000000E+00 -0.5000000E+01 -0.5000000E+01  0.5313722E+00  0.2274273E+00  0.0000000E+00  0.0000000E+00
  0.3030303E-01  0.0000000E+00  0.0000000E+00 -0.5000000E+01 -0.5000000E+01  0.5313722E+00  0.2274273E+00  0.0000000E+00  0.0000000E+00
  0.4040404E-01  0.0000000E+00  0.0000000E+00 -0.5000000E+01 -0.5000000E+01  0.5313722E+00  0.2274273E+00  0.0000000E+00  0.0000000E+00
  0.5050505E-01  0.0000000E+00  0.0000000E+00 -0.5000000E+01 -0.5000000E+01  0.5313722E+00  0.2274273E+00  0.0000000E+00  0.0000000E+00
  0.6060606E-01  0.0000000E+00  0.0000000E+00 -0.5000000E+01 -0.5000000E+01  0.5313722E+00  0.2274273E+00  0.0000000E+00  0.0000000E+00
  0.7070707E-01  0.0000000E+00  0.0000000E+00 -0.5000000E+01 -0.5000000E+01  0.5313722E+00  0.2274273E+00  0.0000000E+00  0.0000000E+00
  0.8080808E-01  0.0000000E+00  0.0000000E+00 -0.5000000E+01 -0.5000000E+01  0.5313722E+00  0.2274273E+00  0.0000000E+00  0.0000000E+00
  0.9090909E-01  0.0000000E+00  0.0000000E+00 -0.5000000E+01 -0.5000000E+01  0.5313722E+00  0.2274273E+00  0.0000000E+00  0.0000000E+00
  0.1010101E+00  0.0000000E+00  0.0000000E+00 -0.5000000E+01 -0.5000000E+01  0.5313722E+00  0.2274273E+00  0.0000000E+00  0.0000000E+00
  0.1111111E+00  0.0000000E+00  0.0000000E+00 -0.5000000E+01 -0.5000000E+01  0.5313722E+00  0.2274273E+00  0.0000000E+00  0.0000000E+00
  0.1212121E+00  0.0000000E+00  0.0000000E+00 -0.5000000E+01 -0.5000000E+01  0.5313722E+00  0.2274273E+00  0.0000000E+00  0.0000000E+00
  0.1313131E+00  0.0000000E+00  0.0000000E+00 -0.5000000E+01 -0.5000000E+01  0.5313722E+00  0.2274273E+00  0.0000000E+00  0.0000000E+00
  0.1414142E+00  0.0000000E+00  0.0000000E+00 -0.5000000E+01 -0.5000000E+01  0.5313722E+00  0.2274273E+00  0.0000000E+00  0.0000000E+00
  0.1515152E+00  0.0000000E+00  0.0000000E+00 -0.5000000E+01 -0.5000000E+01  0.5313722E+00  0.2274273E+00  0.0000000E+00  0.0000000E+00
  0.1616162E+00  0.0000000E+00  0.0000000E+00 -0.5000000E+01 -0.5000000E+01  0.5313722E+00  0.2274273E+00  0.0000000E+00  0.0000000E+00
  0.1717172E+00  0.0000000E+00  0.0000000E+00 -0.5000000E+01 -0.5000000E+01  0.5313722E+00  0.2274273E+00  0.0000000E+00  0.0000000E+00
  0.1818182E+00  0.0000000E+00  0.0000000E+00 -0.5000000E+01 -0.5000000E+01  0.5313722E+00  0.2274273E+00  0.0000000E+00  0.0000000E+00
  0.1919192E+00  0.0000000E+00  0.0000000E+00 -0.5000000E+01 -0.5000000E+01  0.5313722E+00  0.2274273E+00  0.0000000E+00  0.0000000E+00
  0.2020202E+00  0.0000000E+00  0.0000000E+00 -0.5000000E+01 -0.5000000E+01  0.5313722E+00  0.2274273E+00  0.0000000E+00  0.0000000E+00
  0.2121212E+00  0.0000000E+00  0.0000000E+00 -0.5000000E+01 -0.5000000E+01  0.5313722E+00  0.2274273E+00  0.0000000E+00  0.0000000E+00
  0.2222222E+00  0.0000000E+00  0.0000000E+00 -0.5000000E+01 -0.5000000E+01  0.5313722E+00  0.2274273E+00  0.0000000E+00  0.0000000E+00
  0.2323232E+00  0.0000000E+00  0.0000000E+00 -0.5000000E+01 -0.5000000E+01  0.5313722E+00  0.2274273E+00  0.0000000E+00  0.0000000E+00
  0.2424242E+00  0.0000000E+00  0.0000000E+00 -0.5000000E+01 -0.5000000E+01  0.5313722E+00  0.2274273E+00  0.0000000E+00  0.0000000E+00
  0.2525252E+00  0.0000000E+00  0.0000000E+00 -0.5000000E+01 -0.5000000E+01  0.5313722E+00  0.2274273E+00  0.0000000E+00  0.0000000E+00
  0.2626262E+00  0.0000000E+00  0.0000000E+00 -0.5000000E+01 -0.5000000E+01  0.5313722E+00  0.2274273E+00  0.0000000E+00  0.0000000E+00
  0.2727273E+00  0.0000000E+00  0.0000000E+00 -0.5000000E+01 -0.5000000E+01  0.5313722E+00  0.2274273E+00  0.0000000E+00  0.0000000E+00
  0.2828283E+00  0.0000000E+00  0.0000000E+00 -0.5000000E+01 -0.5000000E+01  0.5313722E+00  0.2274273E+00  0.0000000E+00  0.0000000E+00
  0.2929293E+00  0.0000000E+00  0.0000000E+00 -0.5000000E+01 -0.5000000E+01  0.5313722E+00  0.2274273E+00  0.0000000E+00  0.0000000E+00
  0.3030303E+00  0.0000000E+00  0.0000000E+00 -0.5000000E+01 -0.5000000E+01  0.5313722E+00  0.2274273E+00  0.0000000E+00  0.0000000E+00
  0.3131313E+00  0.0000000E+00  0.0000000E+00 -0.5000000E+01 -0.5000000E+01  0.5313722E+00  0.2274273E+00  0.0000000E+00  0.0000000E+00
  0.3232324E+00  0.0000000E+00  0.0000000E+00 -0.5000000E+01 -0.5000000E+01  0.5313722E+00  0.2274273E+00  0.0000000E+00  0.0000000E+00
  0.3333334E+00  0.0000000E+00  0.0000000E+00 -0.5000000E+01 -0.5000000E+01  0.5313722E+00  0.2274273E+00  0.0000000E+00  0.0000000E+00
  0.3434344E+00  0.0000000E+00  0.0000000E+00 -0.5000000E+01 -0.5000000E+01  0.5313722E+00  0.2274273E+00  0.0000000E+00  0.0000000E+00
  0.3535354E+00  0.0000000E+00  0.0000000E+00 -0.5000000E+01 -0.5000000E+01  0.5313722E+00  0.2274273E+00  0.0000000E+00  0.0000000E+00
  0.3636364E+00  0.0000000E+00  0.0000000E+00 -0.5000000E+01 -0.5000000E+01  0.5313722E+00  0.2274273E+00  0.0000000E+00  0.0000000E+00
  0.3737375E+00  0.0000000E+00  0.0000000E+00 -0.5000000E+01 -0.5000000E+01  0.5313722E+00  0.2274273E+00  0.0000000E+00  0.0000000E+00
  0.3838385E+00  0.0000000E+00  0.0000000E+00 -0.5000000E+01 -0.5000000E+01  0.5313722E+00  0.2274273E+00  0.0000000E+00  0.0000000E+00
  0.3939395E+00  0.0000000E+00  0.0000000E+00 -0.5000000E+01 -0.5000000E+01  0.5313722E+00  0.2274273E+00  0.0000000E+00  0.0000000E+00
  0.4040405E+00  0.0000000E+00  0.0000000E+00 -0.5000000E+01 -0.5000000E+01  0.5313722E+00  0.2274273E+00  0.0000000E+00  0.0000000E+00
  0.4141415E+00  0.0000000E+00  0.0000000E+00 -0.5000000E+01 -0.5000000E+01  0.5313722E+00  0.2274273E+00  0.0000000E+00  0.0000000E+00
  0.4242426E+00  0.0000000E+00  0.0000000E+00 -0.5000000E+01 -0.5000000E+01  0.5313722E+00  0.2274273E+00  0.0000000E+00  0.0000000E+00
  0.4343436E+00  0.0000000E+00  0.0000000E+00 -0.5000000E+01 -0.5000000E+01  0.5313722E+00  0.2274273E+00  0.0000000E+00  0.0000000E+00
  0.4444446E+00  0.0000000E+00  0.0000000E+00 -0.5000000E+01 -0.5000000E+01  0.5313722E+00  0.2274273E+00  0.0000000E+00  0.0000000E+00
  0.4545456E+00  0.0000000E+00  0.0000000E+00 -0.5000000E+01 -0.5000000E+01  0.5313722E+00  0.2274273E+00  0.0000000E+00  0.0000000E+00
  0.4646466E+00  0.0000000E+00  0.0000000E+00 -0.5000000E+01 -0.5000000E+01  0.5313722E+00  0.2274273E+00  0.0000000E+00  0.0000000E+00
  0.4747477E+00  0.0000000E+00  0.0000000E+00 -0.5000000E+01 -0.5000000E+01  0.5313722E+00  0.2274273E+00  0.0000000E+00  0.0000000E+00
  0.4848487E+00  0.0000000E+00  0.0000000E+00 -0.5000000E+01 -0.5000000E+01  0.5313722E+00  0.2274273E+00  0.0000000E+00  0.0000000E+00
  0.4949497E+00  0.0000000E+00  0.0000000E+00 -0.5000000E+01 -0.5000000E+01  0.5313722E+00  0.2274273E+00  0.0000000E+00  0.0000000E+00
  0.5050507E+00  0.0000000E+00  0.0000000E+00 -0.5000000E+01 -0.5000000E+01  0.5313722E+00  0.2274273E+00  0.0000000E+00  0.0000000E+00
  0.5151517E+00  0.0000000E+00  0.0000000E+00 -0.5000000E+01 -0.5000000E+01  0.5313722E+00  0.2274273E+00  0.0000000E+00  0.0000000E+00
  0.5252528E+00  0.0000000E+00  0.0000000E+00 -0.5000000E+01 -0.5000000E+01  0.5313722E+00  0.2274273E+00  0.0000000E+00  0.0000000E+00
  0.5353538E+00  0.0000000E+00  0.0000000E+00 -0.5000000E+01 -0.5000000E+01  0.5313722E+00  0.2274273E+00  0.0000000E+00  0.0000000E+00
  0.5454548E+00  0.0000000E+00  0.0000000E+00 -0.5000000E+01 -0.5000000E+01  0.5313722E+00  0.2274273E+00  0.0000000E+00  0.0000000E+00
  0.5555558E+00  0.0000000E+00  0.0000000E+00 -0.5000000E+01 -0.5000000E+01  0.5313722E+00  0.2274273E+00  0.0000000E+00  0.0000000E+00
  0.5656568E+00  0.0000000E+00  0.0000000E+00 -0.5000000E+01 -0.5000000E+01  0.5313722E+00  0.2274273E+00  0.0000000E+00  0.0000000E+00
  0.5757579E+00  0.0000000E+00  0.0000000E+00 -0.5000000E+01 -0.5000000E+01  0.5313722E+00  0.2274273E+00  0.0000000E+00  0.0000000E+00
  0.5858589E+00  0.0000000E+00  0.0000000E+00 -0.5000000E+01 -0.5000000E+01  0.5313722E+00  0.2274273E+00  0.0000000E+00  0.0000000E+00
  0.5959599E+00  0.0000000E+00  0.0000000E+00 -0.5000000E+01 -0.5000000E+01  0.5313722E+00  0.2274273E+00  0.0000000E+00  0.0000000E+00
  0.6060609E+00  0.0000000E+00  0.0000000E+00 -0.5000000E+01 -0.5000000E+01  0.5313722E+00  0.2274273E+00  0.0000000E+00  0.0000000E+00
  0.6161619E+00  0.0000000E+00  0.0000000E+00 -0.5000000E+01 -0.5000000E+01  0.5313722E+00  0.2274273E+00  0.0000000E+00  0.0000000E+00
  0.6262630E+00  0.0000000E+00  0.0000000E+00 -0.5000000E+01 -0.5000000E+01  0.5313722E+00  0.2274273E+00  0.0000000E+00  0.0000000E+00
  0.6363640E+00  0.0000000E+00  0.0000000E+00 -0.5000000E+01 -0.5000000E+01  0.5313722E+00  0.2274273E+00  0.0000000E+00  0.0000000E+00
  0.6464650E+00  0.0000000E+00  0.0000000E+00 -0.5000000E+01 -0.5000000E+01  0.5313722E+00  0.2274273E+00  0.0000000E+00  0.0000000E+00
  0.6565660E+00  0.0000000E+00  0.0000000E+00 -0.5000000E+01 -0.5000000E+01  0.5313722E+00  0.2274273E+00  0.0000000E+00  0.0000000E+00
  0.6666670E+00  0.0000000E+00  0.0000000E+00 -0.5000000E+01 -0.5000000E+01  0.5313722E+00  0.2274273E+00  0.0000000E+00  0.0000000E+00
  0.6767681E+00  0.0000000E+00  0.0000000E+00 -0.5000000E+01 -0.5000000E+01  0.5313722E+00  0.2274273E+00  0.0000000E+00  0.0000000E+00
  0.6868691E+00  0.0000000E+00  0.0000000E+00 -0.5000000E+01 -0.5000000E+01  0.5313722E+00  0.2274273E+00  0.0000000E+00  0.0000000E+00
  0.6969701E+00  0.0000000E+00  0.0000000E+00 -0.5000000E+01 -0.5000000E+01  0.5313722E+00  0.2274273E+00  0.0000000E+00  0.0000000E+00
  0.7070711E+00  0.0000000E+00  0.0000000E+00 -0.5000000E+01 -0.5000000E+01  0.5313722E+00  0.2274273E+00  0.0000000E+00  0.0000000E+00
  0.7171721E+00  0.0000000E+00  0.0000000E+00 -0.5000000E+01 -0.5000000E+01  0.5313722E+00  0.2274273E+00  0.0000000E+00  0.0000000E+00
  0.7272732E+00  0.0000000E+00  0.0000000E+00 -0.5000000E+01 -0.5000000E+01  0.5313722E+00  0.2274273E+00  0.0000000E+00  0.0000000E+00
  0.7373742E+00  0.0000000E+00  0.0000000E+00 -0.5000000E+01 -0.5000000E+01  0.5313722E+00  0.2274273E+00  0.0000000E+00  0.0000000E+00
  0.7474752E+00  0.0000000E+00  0.0000000E+00 -0.5000000E+01 -0.5000000E+01  0.5313722E+00  0.2274273E+00  0.0000000E+00  0.0000000E+00
  0.7575762E+00  0.0000000E+00  0.0000000E+00 -0.5000000E+01 -0.5000000E+01  0.5313722E+00  0.2274273E+00  0.0000000E+00  0.0000000E+00
  0.7676772E+00  0.0000000E+00  0.0000000E+00 -0.5000000E+01 -0.5000000E+01  0.5313722E+00  0.2274273E+00  0.0000000E+00  0.0000000E+00
  0.7777783E+00  0.0000000E+00  0.0000000E+00 -0.5000000E+01 -0.5000000E+01  0.5313722E+00  0.2274273E+00  0.0000000E+00  0.0000000E+00
  0.7878793E+00  0.0000000E+00  0.0000000E+00 -0.5000000E+01 -0.5000000E+01  0.5313722E+00  0.2274273E+00  0.0000000E+00  0.0000000E+00
  0.7979803E+00  0.0000000E+00  0.0000000E+00 -0.5000000E+01 -0.5000000E+01  0.5313722E+00  0.2274273E+00  0.0000000E+00  0.0000000E+00
  0.8080813E+00  0.0000000E+00  0.0000000E+00 -0.5000000E+01 -0.5000000E+01  0.5313722E+00  0.2274273E+00  0.0000000E+00  0.0000000E+00
  0.8181823E+00  0.0000000E+00  0.0000000E+00 -0.5000000E+01 -0.5000000E+01  0.5313722E+00  0.2274273E+00  0.0000000E+00  0.0000000E+00
  0.8282834E+00  0.0000000E+00  0.0000000E+00 -0.5000000E+01 -0.5000000E+01  0.5313722E+00  0.2274273E+00  0.0000000E+00  0.0000000E+00
  0.8383844E+00  0.0000000E+00  0.0000000E+00 -0.5000000E+01 -0.5000000E+01  0.5313722E+00  0.2274273E+00  0.0000000E+00  0.0000000E+00
  0.8484854E+00  0.0000000E+00  0.0000000E+00 -0.5000000E+01 -0.5000000E+01  0.5313722E+00  0.2274273E+00  0.0000000E+00  0.0000000E+00
  0.8585864E+00  0.0000000E+00  0.0000000E+00 -0.5000000E+01 -0.5000000E+01  0.5313722E+00  0.2274273E+00  0.0000000E+00  0.0000000E+00
  0.8686875E+00  0.0000000E+00  0.0000000E+00 -0.5000000E+01 -0.5000000E+01  0.5313722E+00  0.2274273E+00  0.0000000E+00  0.0000000E+00
  0.8787885E+00  0.0000000E+00  0.0000000E+00 -0.5000000E+01 -0.5000000E+01  0.5313722E+00  0.2274273E+00  0.0000000E+00  0.0000000E+00
  0.8888895E+00  0.0000000E+00  0.0000000E+00 -0.5000000E+01 -0.5000000E+01  0.5313722E+00  0.2274273E+00  0.0000000E+00  0.0000000E+00
  0.8989905E+00  0.0000000E+00  0.0000000E+00 -0.5000000E+01 -0.5000000E+01  0.5313722E+00  0.2274273E+00  0.0000000E+00  0.0000000E+00
  0.9090915E+00  0.0000000E+00  0.0000000E+00 -0.5000000E+01 -0.5000000E+01  0.5313722E+00  0.2274273E+00  0.0000000E+00  0.0000000E+00
  0.9191926E+00  0.0000000E+00  0.0000000E+00 -0.5000000E+01 -0.5000000E+01  0.5313722E+00  0.2274273E+00  0.0000000E+00  0.0000000E+00
  0.9292936E+00  0.0000000E+00  0.0000000E+00 -0.5000000E+01 -0.5000000E+01  0.5313722E+00  0.2274273E+00  0.0000000E+00  0.0000000E+00
  0.9393946E+00  0.0000000E+00  0.0000000E+00 -0.5000000E+01 -0.5000000E+01  0.5313722E+00  0.2274273E+00  0.0000000E+00  0.0000000E+00
  0.9494956E+00  0.0000000E+00  0.0000000E+00 -0.5000000E+01 -0.5000000E+01  0.5313722E+00  0.2274273E+00  0.0000000E+00  0.0000000E+00
  0.9595966E+00  0.0000000E+00  0.0000000E+00 -0.5000000E+01 -0.5000000E+01  0.5313722E+00  0.2274273E+00  0.0000000E+00  0.0000000E+00
  0.9696977E+00  0.0000000E+00  0.0000000E+00 -0.5000000E+01 -0.5000000E+01  0.5313722E+00  0.2274273E+00  0.0000000E+00  0.0000000E+00
  0.9797987E+00  0.0000000E+00  0.0000000E+00 -0.5000000E+01 -0.5000000E+01  0.5313722E+00  0.2274273E+00  0.0000000E+00  0.0000000E+00
  0.9898997E+00  0.0000000E+00  0.0000000E+00 -0.5000000E+01 -0.5000000E+01  0.5313722E+00  0.2274273E+00  0.0000000E+00  0.0000000E+00
  0.1000001E+01  0.0000000E+00  0.5826218E-18 -0.5000338E+01 -0.5000338E+01  0.5313613E+00  0.2274227E+00  0.0000000E+00  0.0000000E+00
  0.0000000E+00  0.0000000E+00  0.5826219E-18 -0.5000573E+01 -0.5010674E+01  0.5310290E+00  0.2272804E+00  0.0000000E+00  0.0000000E+00
  0.1010101E-01  0.0000000E+00  0.5826219E-18 -0.5000573E+01 -0.5010674E+01  0.5310290E+00  0.2272804E+00  0.0000000E+00  0.0000000E+00
  0.2020202E-01  0.0000000E+00  0.5826219E-18 -0.5000574E+01 -0.5010675E+01  0.5310290E+00  0.2272804E+00  0.0000000E+00  0.0000000E+00
  0.3030303E-01  0.0000000E+00  0.5826219E-18 -0.5000574E+01 -0.5010675E+01  0.5310290E+00  0.2272804E+00  0.0000000E+00  0.0000000E+00
  0.4040404E-01  0.0000000E+00  0.5826219E-18 -0.5000575E+01 -0.5010676E+01  0.5310289E+00  0.2272804E+00  0.0000000E+00  0.0000000E+00
  0.5050505E-01  0.0000000E+00  0.5826219E-18 -0.5000576E+01 -0.5010677E+01  0.5310289E+00  0.2272804E+00  0.0000000E+00  0.0000000E+00
  0.6060606E-01  0.0000000E+00  0.5826219E-18 -0.5000578E+01 -0.5010679E+01  0.5310289E+00  0.2272804E+00  0.0000000E+00  0.0000000E+00
  0.7070707E-01  0.0000000E+00  0.5826219E-18 -0.5000579E+01 -0.5010680E+01  0.5310288E+00  0.2272803E+00  0.0000000E+00  0.0000000E+00
  0.8080808E-01  0.0000000E+00  0.5826219E-18 -0.5000581E+01 -0.5010682E+01  0.5310288E+00  0.2272803E+00  0.0000000E+00  0.0000000E+00
  0.9090909E-01  0.0000000E+00  0.5826219E-18 -0.5000583E+01 -0.5010684E+01  0.5310287E+00  0.2272803E+00  0.0000000E+00  0.0000000E+00
  0.1010101E+00  0.0000000E+00  0.5826219E-18 -0.5000586E+01 -0.5010687E+01  0.5310286E+00  0.2272802E+00  0.0000000E+00  0.0000000E+00
  0.1111111E+00  0.0000000E+00  0.5826219E-18 -0.5000588E+01 -0.5010689E+01  0.5310285E+00  0.2272802E+00  0.0000000E+00  0.0000000E+00
  0.1212121E+00  0.0000000E+00  0.5826219E-18 -0.5000591E+01 -0.5010692E+01  0.5310284E+00  0.2272802E+00  0.0000000E+00  0.0000000E+00
  0.1313131E+00  0.0000000E+00  0.5826219E-18 -0.5000594E+01 -0.5010695E+01  0.5310283E+00  0.2272801E+00  0.0000000E+00  0.0000000E+00
  0.1414142E+00  0.0000000E+00  0.5826219E-18 -0.5000597E+01 -0.5010698E+01  0.5310282E+00  0.2272801E+00  0.0000000E+00  0.0000000E+00
  0.1515152E+00  0.0000000E+00  0.5826219E-18 -0.5000600E+01 -0.5010701E+01  0.5310281E+00  0.2272800E+00  0.0000000E+00  0.0000000E+00
  0.1616162E+00  0.0000000E+00  0.5826219E-18 -0.5000604E+01 -0.5010705E+01  0.5310280E+00  0.2272800E+00  0.0000000E+00  0.0000000E+00
  0.1717172E+00  0.0000000E+00  0.5826219E-18 -0.5000607E+01 -0.5010708E+01  0.5310279E+00  0.2272799E+00  0.0000000E+00  0.0000000E+00
  0.1818182E+00  0.0000000E+00  0.5826219E-18 -0.5000611E+01 -0.5010712E+01  0.5310278E+00  0.2272799E+00  0.0000000E+00  0.0000000E+00
  0.1919192E+00  0.0000000E+00  0.5826219E-18 -0.5000615E+01 -0.5010716E+01  0.5310277E+00  0.2272798E+00  0.0000000E+00  0.0000000E+00
  0.2020202E+00  0.0000000E+00  0.5826219E-18 -0.5000619E+01 -0.5010720E+01  0.5310275E+00  0.2272798E+00  0.0000000E+00  0.0000000E+00
  0.2121212E+00  0.0000000E+00  0.5826219E-18 -0.5000623E+01 -0.5010724E+01  0.5310274E+00  0.2272797E+00  0.0000000E+00  0.0000000E+00
  0.2222222E+00  0.0000000E+00  0.5826219E-18 -0.5000627E+01 -0.5010728E+01  0.5310273E+00  0.2272797E+00  0.0000000E+00  0.0000000E+00
  0.2323232E+00  0.0000000E+00  0.5826219E-18 -0.5000631E+01 -0.5010732E+01  0.5310272E+00  0.2272796E+00  0.0000000E+00  0.0000000E+00
  0.2424242E+00  0.0000000E+00  0.5826219E-18 -0.5000635E+01 -0.5010736E+01  0.5310270E+00  0.2272796E+00  0.0000000E+00  0.0000000E+00
  0.2525252E+00  0.0000000E+00  0.5826219E-18 -0.5000639E+01 -0.5010740E+01  0.5310269E+00  0.2272795E+00  0.0000000E+00  0.0000000E+00
  0.2626262E+00  0.0000000E+00  0.5826219E-18 -0.5000643E+01 -0.5010744E+01  0.5310268E+00  0.2272795E+00  0.0000000E+00  0.0000000E+00
  0.2727273E+00  0.0000000E+00  0.5826219E-18 -0.5000647E+01 -0.5010748E+01  0.5310266E+00  0.2272794E+00  0.0000000E+00  0.0000000E+00
  0.2828283E+00  0.0000000E+00  0.5826219E-18 -0.5000651E+01 -0.5010752E+01  0.5310265E+00  0.2272793E+00  0.0000000E+00  0.0000000E+00
  0.2929293E+00  0.0000000E+00  0.5826219E-18 -0.5000655E+01 -0.5010756E+01  0.5310264E+00  0.2272793E+00  0.0000000E+00  0.0000000E+00
  0.3030303E+00  0.0000000E+00  0.5826219E-18 -0.5000659E+01 -0.5010760E+01  0.5310262E+00  0.2272792E+00  0.0000000E+00  0.0000000E+00
  0.3131313E+00  0.0000000E+00  0.5826219E-18 -0.5000663E+01 -0.5010764E+01  0.5310261E+00  0.2272792E+00  0.0000000E+00  0.0000000E+00
  0.3232324E+00  0.0000000E+00  0.5826219E-18 -0.5000667E+01 -0.5010768E+01  0.5310260E+00  0.2272791E+00  0.0000000E+00  0.0000000E+00
  0.3333334E+00  0.0000000E+00  0.5826219E-18 -0.5000670E+01 -0.5010771E+01  0.5310259E+00  0.2272791E+00  0.0000000E+00  0.0000000E+00
  0.3434344E+00  0.0000000E+00  0.5826219E-18 -0.5000674E+01 -0.5010775E+01  0.5310258E+00  0.2272790E+00  0.0000000E+00  0.0000000E+00
  0.3535354E+00  0.0000000E+00  0.5826219E-18 -0.5000677E+01 -0.5010778E+01  0.5310257E+00  0.2272790E+00  0.0000000E+00  0.0000000E+00
  0.3636364E+00  0.0000000E+00  0.5826219E-18 -0.5000680E+01 -0.5010781E+01  0.5310256E+00  0.2272789E+00  0.0000000E+00  0.0000000E+00
  0.3737375E+00  0.0000000E+00  0.5826219E-18 -0.5000683E+01 -0.5010784E+01  0.5310255E+00  0.2272789E+00  0.0000000E+00  0.0000000E+00
  0.3838385E+00  0.0000000E+00  0.5826219E-18 -0.5000686E+01 -0.5010787E+01  0.5310254E+00  0.2272789E+00  0.0000000E+00  0.0000000E+00
  0.3939395E+00  0.0000000E+00  0.5826219E-18 -0.5000689E+01 -0.5010790E+01  0.5310253E+00  0.2272788E+00  0.0000000E+00  0.0000000E+00
  0.4040405E+00  0.0000000E+00  0.5826219E-18 -0.5000691E+01 -0.5010792E+01  0.5310252E+00  0.2272788E+00  0.0000000E+00  0.0000000E+00
  0.4141415E+00  0.0000000E+00  0.5826219E-18 -0.5000693E+01 -0.5010794E+01  0.5310252E+00  0.2272788E+00  0.0000000E+00  0.0000000E+00
  0.4242426E+00  0.0000000E+00  0.5826219E-18 -0.5000695E+01 -0.5010796E+01  0.5310251E+00  0.2272787E+00  0.0000000E+00  0.0000000E+00
  0.4343436E+00  0.0000000E+00  0.5826219E-18 -0.5000696E+01 -0.5010797E+01  0.5310251E+00  0.2272787E+00  0.0000000E+00  0.0000000E+00
  0.4444446E+00  0.0000000E+00  0.5826219E-18 -0.5000698E+01 -0.5010799E+01  0.5310250E+00  0.2272787E+00  0.0000000E+00  0.0000000E+00
  0.4545456E+00  0.0000000E+00  0.5826219E-18 -0.5000699E+01 -0.5010800E+01  0.5310250E+00  0.2272787E+00  0.0000000E+00  0.0000000E+00
  0.4646466E+00  0.0000000E+00  0.5826219E-18 -0.5000700E+01 -0.5010801E+01  0.5310250E+00  0.2272787E+00  0.0000000E+00  0.0000000E+00
  0.4747477E+00  0.0000000E+00  0.5826219E-18 -0.5000700E+01 -0.5010801E+01  0.5310249E+00  0.2272787E+00  0.0000000E+00  0.0000000E+00
  0.4848487E+00  0.0000000E+00  0.5826219E-18 -0.5000700E+01 -0.5010801E+01  0.5310249E+00  0.2272787E+00  0.0000000E+00  0.0000000E+00
  0.4949497E+00  0.0000000E+00  0.5826219E-18 -0.5000700E+01 -0.5010801E+01  0.5310249E+00  0.2272787E+00  0.0000000E+00  0.0000000E+00
  0.5050507E+00  0.0000000E+00  0.5826219E-18 -0.5000700E+01 -0.5010801E+01  0.5310249E+00  0.2272787E+00  0.0000000E+00  0.0000000E+00
  0.5151517E+00  0.0000000E+00  0.5826219E-18 -0.5000699E+01 -0.5010800E+01  0.5310250E+00  0.2272787E+00  0.0000000E+00  0.0000000E+00
  0.5252528E+00  0.0000000E+00  0.5826219E-18 -0.5000698E+01 -0.5010799E+01  0.5310250E+00  0.2272787E+00  0.0000000E+00  0.0000000E+00
  0.5353538E+00  0.0000000E+00  0.5826219E-18 -0.5000697E+01 -0.5010798E+01  0.5310250E+00  0.2272787E+00  0.0000000E+00  0.0000000E+00
  0.5454548E+00  0.0000000E+00  0.5826219E-18 -0.5000696E+01 -0.5010797E+01  0.5310251E+00  0.2272787E+00  0.0000000E+00  0.0000000E+00
  0.5555558E+00  0.0000000E+00  0.5826219E-18 -0.5000694E+01 -0.5010795E+01  0.5310251E+00  0.2272788E+00  0.0000000E+00  0.0000000E+00
  0.5656568E+00  0.0000000E+00  0.5826219E-18 -0.5000692E+01 -0.5010793E+01  0.5310252E+00  0.2272788E+00  0.0000000E+00  0.0000000E+00
  0.5757579E+00  0.0000000E+00  0.5826219E-18 -0.5000690E+01 -0.5010791E+01  0.5310253E+00  0.2272788E+00  0.0000000E+00  0.0000000E+00
  0.5858589E+00  0.0000000E+00  0.5826219E-18 -0.5000687E+01 -0.5010788E+01  0.5310253E+00  0.2272789E+00  0.0000000E+00  0.0000000E+00
  0.5959599E+00  0.0000000E+00  0.5826219E-18 -0.5000685E+01 -0.5010786E+01  0.5310254E+00  0.2272789E+00  0.0000000E+00  0.0000000E+00
  0.6060609E+00  0.0000000E+00  0.5826219E-18 -0.5000682E+01 -0.5010783E+01  0.5310255E+00  0.2272789E+00  0.0000000E+00  0.0000000E+00
  0.6161619E+00  0.0000000E+00  0.5826219E-18 -0.5000678E+01 -0.5010779E+01  0.5310256E+00  0.2272790E+00  0.0000000E+00  0.0000000E+00
  0.6262630E+00  0.0000000E+00  0.5826219E-18 -0.5000675E+01 -0.5010776E+01  0.5310257E+00  0.2272790E+00  0.0000000E+00  0.0000000E+00
  0.6363640E+00  0.0000000E+00  0.5826219E-18 -0.5000672E+01 -0.5010773E+01  0.5310259E+00  0.2272791E+00  0.0000000E+00  0.0000000E+00
  0.6464650E+00  0.0000000E+00  0.5826219E-18 -0.5000668E+01 -0.5010769E+01  0.5310260E+00  0.2272791E+00  0.0000000E+00  0.0000000E+00
  0.6565660E+00  0.0000000E+00  0.5826219E-18 -0.5000664E+01 -0.5010765E+01  0.5310261E+00  0.2272792E+00  0.0000000E+00  0.0000000E+00
  0.6666670E+00  0.0000000E+00  0.5826219E-18 -0.5000660E+01 -0.5010761E+01  0.5310262E+00  0.2272792E+00  0.0000000E+00  0.0000000E+00
  0.6767681E+00  0.0000000E+00  0.5826219E-18 -0.5000656E+01 -0.5010757E+01  0.5310264E+00  0.2272793E+00  0.0000000E+00  0.0000000E+00
  0.6868691E+00  0.0000000E+00  0.5826219E-18 -0.5000652E+01 -0.5010753E+01  0.5310265E+00  0.2272793E+00  0.0000000E+00  0.0000000E+00
  0.6969701E+00  0.0000000E+00  0.5826219E-18 -0.5000647E+01 -0.5010748E+01  0.5310266E+00  0.2272794E+00  0.0000000E+00  0.0000000E+00
  0.7070711E+00  0.0000000E+00  0.5826219E-18 -0.5000643E+01 -0.5010744E+01  0.5310268E+00  0.2272795E+00  0.0000000E+00  0.0000000E+00
  0.7171721E+00  0.0000000E+00  0.5826219E-18 -0.5000638E+01 -0.5010739E+01  0.5310269E+00  0.2272795E+00  0.0000000E+00  0.0000000E+00
  0.7272732E+00  0.0000000E+00  0.5826219E-18 -0.5000634E+01 -0.5010735E+01  0.5310271E+00  0.2272796E+00  0.0000000E+00  0.0000000E+00
  0.7373742E+00  0.0000000E+00  0.5826219E-18 -0.5000629E+01 -0.5010730E+01  0.5310272E+00  0.2272796E+00  0.0000000E+00  0.0000000E+00
  0.7474752E+00  0.0000000E+00  0.5826219E-18 -0.5000625E+01 -0.5010726E+01  0.5310274E+00  0.2272797E+00  0.0000000E+00  0.0000000E+00
  0.7575762E+00  0.0000000E+00  0.5826219E-18 -0.5000620E+01 -0.5010721E+01  0.5310275E+00  0.2272798E+00  0.0000000E+00  0.0000000E+00
  0.7676772E+00  0.0000000E+00  0.5826219E-18 -0.5000616E+01 -0.5010717E+01  0.5310276E+00  0.2272798E+00  0.0000000E+00  0.0000000E+00
  0.7777783E+00  0.0000000E+00  0.5826219E-18 -0.5000611E+01 -0.5010712E+01  0.5310278E+00  0.2272799E+00  0.0000000E+00  0.0000000E+00
  0.7878793E+00  0.0000000E+00  0.5826219E-18 -0.5000607E+01 -0.5010708E+01  0.5310279E+00  0.2272800E+00  0.0000000E+00  0.0000000E+00
  0.7979803E+00  0.0000000E+00  0.5826219E-18 -0.5000603E+01 -0.5010704E+01  0.5310281E+00  0.2272800E+00  0.0000000E+00  0.0000000E+00
  0.8080813E+00  0.0000000E+00  0.5826219E-18 -0.5000598E+01 -0.5010699E+01  0.5310282E+00  0.2272801E+00  0.0000000E+00  0.0000000E+00
  0.8181823E+00  0.0000000E+00  0.5826219E-18 -0.5000594E+01 -0.5010695E+01  0.5310283E+00  0.2272801E+00  0.0000000E+00  0.0000000E+00
  0.8282834E+00  0.0000000E+00  0.5826219E-18 -0.5000590E+01 -0.5010691E+01  0.5310285E+00  0.2272802E+00  0.0000000E+00  0.0000000E+00
  0.8383844E+00  0.0000000E+00  0.5826219E-18 -0.5000587E+01 -0.5010688E+01  0.5310286E+00  0.2272802E+00  0.0000000E+00  0.0000000E+00
  0.8484854E+00  0.0000000E+00  0.5826219E-18 -0.5000583E+01 -0.5010684E+01  0.5310287E+00  0.2272803E+00  0.0000000E+00  0.0000000E+00
  0.8585864E+00  0.0000000E+00  0.5826219E-18 -0.5000580E+01 -0.5010681E+01  0.5310288E+00  0.2272803E+00  0.0000000E+00  0.0000000E+00
  0.8686875E+00  0.0000000E+00  0.5826219E-18 -0.5000576E+01 -0.5010677E+01  0.5310289E+00  0.2272804E+00  0.0000000E+00  0.0000000E+00
  0.8787885E+00  0.0000000E+00  0.5826219E-18 -0.5000573E+01 -0.5010674E+01  0.5310290E+00  0.2272804E+00  0.0000000E+00  0.0000000E+00
  0.8888895E+00  0.0000000E+00  0.5826219E-18 -0.5000571E+01 -0.5010672E+01  0.5310291E+00  0.2272805E+00  0.0000000E+00  0.0000000E+00
  0.8989905E+00  0.0000000E+00  0.5826219E-18 -0.5000568E+01 -0.5010669E+01  0.5310292E+00  0.2272805E+00  0.0000000E+00  0.0000000E+00
  0.9090915E+00  0.0000000E+00  0.5826219E-18 -0.5000566E+01 -0.5010667E+01  0.5310293E+00  0.2272805E+00  0.0000000E+00  0.0000000E+00
  0.9191926E+00  0.0000000E+00  0.5826219E-18 -0.5000564E+01 -0.5010665E+01  0.5310293E+00  0.2272805E+00  0.0000000E+00  0.0000000E+00
  0.9292936E+00  0.0000000E+00  0.5826219E-18 -0.5000562E+01 -0.5010663E+01  0.5310294E+00  0.2272806E+00  0.0000000E+00  0.0000000E+00
  0.9393946E+00  0.0000000E+00  0.5826219E-18 -0.5000561E+01 -0.5010662E+01  0.5310294E+00  0.2272806E+00  0.0000000E+00  0.0000000E+00
  0.9494956E+00  0.0000000E+00  0.5826219E-18 -0.5000561E+01 -0.5010662E+01  0.5310294E+00  0.2272806E+00  0.0000000E+00  0.0000000E+00
  0.9595966E+00  0.0000000E+00  0.5826219E-18 -0.5000562E+01 -0.5010663E+01  0.5310294E+00  0.2272806E+00  0.0000000E+00  0.0000000E+00
  0.9696977E+00  0.0000000E+00  0.5826219E-18 -0.5000565E+01 -0.5010667E+01  0.5310293E+00  0.2272805E+00  0.0000000E+00  0.0000000E+00
  0.9797987E+00  0.0000000E+00  0.5826219E-18 -0.5000575E+01 -0.5010676E+01  0.5310290E+00  0.2272804E+00  0.0000000E+00  0.0000000E+00
  0.9898997E+00  0.0000000E+00  0.5826219E-18 -0.5000600E+01 -0.5010701E+01  0.5310282E+00  0.2272801E+00  0.0000000E+00  0.0000000E+00
  0.1000001E+01  0.0000000E+00  0.1491512E-15 -0.5000677E+01 -0.5010778E+01  0.5310257E+00  0.2272790E+00  0.0000000E+00  0.0000000E+00
  0.0000000E+00  0.0000000E+00  0.1491512E-15 -0.5001151E+01 -0.5021353E+01  0.5306866E+00  0.2271339E+00  0.0000000E+00  0.0000000E+00
  0.1010101E-01  0.0000000E+00  0.1491512E-15 -0.5001151E+01 -0.5021353E+01  0.5306866E+00  0.2271339E+00  0.0000000E+00  0.0000000E+00
  0.2020202E-01  0.0000000E+00  0.1491512E-15 -0.5001152E+01 -0.5021354E+01  0.5306865E+00  0.2271338E+00  0.0000000E+00  0.0000000E+00
  0.3030303E-01  0.0000000E+00  0.1491512E-15 -0.5001153E+01 -0.5021355E+01  0.5306865E+00  0.2271338E+00  0.0000000E+00  0.0000000E+00
  0.4040404E-01  0.0000000E+00  0.1491512E-15 -0.5001155E+01 -0.5021357E+01  0.5306864E+00  0.2271338E+00  0.0000000E+00  0.0000000E+00
  0.5050505E-01  0.0000000E+00  0.1491512E-15 -0.5001157E+01 -0.5021359E+01  0.5306864E+00  0.2271338E+00  0.0000000E+00  0.0000000E+00
  0.6060606E-01  0.0000000E+00  0.1491512E-15 -0.5001160E+01 -0.5021362E+01  0.5306863E+00  0.2271337E+00  0.0000000E+00  0.0000000E+00
  0.7070707E-01  0.0000000E+00  0.1491512E-15 -0.5001163E+01 -0.5021365E+01  0.5306862E+00  0.2271337E+00  0.0000000E+00  0.0000000E+00
  0.8080808E-01  0.0000000E+00  0.1491512E-15 -0.5001167E+01 -0.5021369E+01  0.5306860E+00  0.2271336E+00  0.0000000E+00  0.0000000E+00
  0.9090909E-01  0.0000000E+00  0.1491512E-15 -0.5001171E+01 -0.5021373E+01  0.5306859E+00  0.2271336E+00  0.0000000E+00  0.0000000E+00
  0.1010101E+00  0.0000000E+00  0.1491512E-15 -0.5001176E+01 -0.5021378E+01  0.5306858E+00  0.2271335E+00  0.0000000E+00  0.0000000E+00
  0.1111111E+00  0.0000000E+00  0.1491512E-15 -0.5001181E+01 -0.5021383E+01  0.5306856E+00  0.2271334E+00  0.0000000E+00  0.0000000E+00
  0.1212121E+00  0.0000000E+00  0.1491512E-15 -0.5001187E+01 -0.5021389E+01  0.5306854E+00  0.2271334E+00  0.0000000E+00  0.0000000E+00
  0.1313131E+00  0.0000000E+00  0.1491512E-15 -0.5001192E+01 -0.5021394E+01  0.5306852E+00  0.2271333E+00  0.0000000E+00  0.0000000E+00
  0.1414142E+00  0.0000000E+00  0.1491512E-15 -0.5001199E+01 -0.5021401E+01  0.5306850E+00  0.2271332E+00  0.0000000E+00  0.0000000E+00
  0.1515152E+00  0.0000000E+00  0.1491512E-15 -0.5001205E+01 -0.5021407E+01  0.5306848E+00  0.2271331E+00  0.0000000E+00  0.0000000E+00
  0.1616162E+00  0.0000000E+00  0.1491512E-15 -0.5001212E+01 -0.5021414E+01  0.5306846E+00  0.2271330E+00  0.0000000E+00  0.0000000E+00
  0.1717172E+00  0.0000000E+00  0.1491512E-15 -0.5001219E+01 -0.5021421E+01  0.5306844E+00  0.2271329E+00  0.0000000E+00  0.0000000E+00
  0.1818182E+00  0.0000000E+00  0.1491512E-15 -0.5001227E+01 -0.5021429E+01  0.5306841E+00  0.2271328E+00  0.0000000E+00  0.0000000E+00