title = "dataset feddes"
variables = "x", "y", "z", "vx", "vy", "vz"
zone t = "velocities, solution time =  1.900E+01 days        " i =   99, j =   99, k =    1,  f=point
 -0.5050505E-02  0.0000000E+00 -0.5050505E-02  0.6791535E-13  0.0000000E+00  0.9922604E-09
 -0.5050505E-02  0.0000000E+00 -0.5050505E-02  0.3636898E-12  0.0000000E+00  0.9926944E-09
 -0.5050505E-02  0.0000000E+00 -0.5050505E-02  0.7068955E-12  0.0000000E+00  0.9937711E-09
 -0.5050505E-02  0.0000000E+00 -0.5050505E-02  0.1027068E-11  0.0000000E+00  0.9955149E-09
 -0.5050505E-02  0.0000000E+00 -0.5050505E-02  0.1332020E-11  0.0000000E+00  0.9978873E-09
 -0.5050505E-02  0.0000000E+00 -0.5050505E-02  0.1625687E-11  0.0000000E+00  0.1000862E-08
 -0.5050504E-02  0.0000000E+00 -0.5050505E-02  0.1910597E-11  0.0000000E+00  0.1004418E-08
 -0.5050501E-02  0.0000000E+00 -0.5050505E-02  0.2186495E-11  0.0000000E+00  0.1008538E-08
 -0.5050495E-02  0.0000000E+00 -0.5050505E-02  0.2452960E-11  0.0000000E+00  0.1013204E-08
 -0.5050482E-02  0.0000000E+00 -0.5050505E-02  0.2709626E-11  0.0000000E+00  0.1018396E-08
 -0.5050449E-02  0.0000000E+00 -0.5050505E-02  0.2955270E-11  0.0000000E+00  0.1024093E-08
 -0.5050376E-02  0.0000000E+00 -0.5050505E-02  0.3188978E-11  0.0000000E+00  0.1030272E-08
 -0.5050299E-02  0.0000000E+00 -0.5050505E-02  0.3410029E-11  0.0000000E+00  0.1036908E-08
 -0.5050178E-02  0.0000000E+00 -0.5050505E-02  0.3617381E-11  0.0000000E+00  0.1043975E-08
 -0.5050018E-02  0.0000000E+00 -0.5050505E-02  0.3810233E-11  0.0000000E+00  0.1051445E-08
 -0.5049710E-02  0.0000000E+00 -0.5050505E-02  0.3987796E-11  0.0000000E+00  0.1059287E-08
 -0.5049253E-02  0.0000000E+00 -0.5050505E-02  0.4149337E-11  0.0000000E+00  0.1067470E-08
 -0.5048636E-02  0.0000000E+00 -0.5050505E-02  0.4294113E-11  0.0000000E+00  0.1075962E-08
 -0.5047442E-02  0.0000000E+00 -0.5050505E-02  0.4421591E-11  0.0000000E+00  0.1084727E-08
 -0.5045727E-02  0.0000000E+00 -0.5050505E-02  0.4531112E-11  0.0000000E+00  0.1093730E-08
 -0.5043261E-02  0.0000000E+00 -0.5050505E-02  0.4622240E-11  0.0000000E+00  0.1102935E-08
 -0.5038714E-02  0.0000000E+00 -0.5050505E-02  0.4694549E-11  0.0000000E+00  0.1112305E-08
 -0.5032318E-02  0.0000000E+00 -0.5050505E-02  0.4747619E-11  0.0000000E+00  0.1121800E-08
 -0.5022454E-02  0.0000000E+00 -0.5050505E-02  0.4781269E-11  0.0000000E+00  0.1131383E-08
 -0.5012589E-02  0.0000000E+00 -0.5050505E-02  0.4795208E-11  0.0000000E+00  0.1141014E-08
 -0.5002725E-02  0.0000000E+00 -0.5050505E-02  0.4789382E-11  0.0000000E+00  0.1150653E-08
 -0.4992860E-02  0.0000000E+00 -0.5050505E-02  0.4763709E-11  0.0000000E+00  0.1160260E-08
 -0.4976523E-02  0.0000000E+00 -0.5050505E-02  0.4718235E-11  0.0000000E+00  0.1169796E-08
 -0.4956794E-02  0.0000000E+00 -0.5050505E-02  0.4653086E-11  0.0000000E+00  0.1179220E-08
 -0.4937066E-02  0.0000000E+00 -0.5050505E-02  0.4568473E-11  0.0000000E+00  0.1188494E-08
 -0.4906239E-02  0.0000000E+00 -0.5050505E-02  0.4464643E-11  0.0000000E+00  0.1197578E-08
 -0.4866782E-02  0.0000000E+00 -0.5050505E-02  0.4342031E-11  0.0000000E+00  0.1206435E-08
 -0.4827325E-02  0.0000000E+00 -0.5050505E-02  0.4201012E-11  0.0000000E+00  0.1215026E-08
 -0.4769372E-02  0.0000000E+00 -0.5050505E-02  0.4042178E-11  0.0000000E+00  0.1223316E-08
 -0.4690458E-02  0.0000000E+00 -0.5050505E-02  0.3866099E-11  0.0000000E+00  0.1231269E-08
 -0.4611543E-02  0.0000000E+00 -0.5050505E-02  0.3673472E-11  0.0000000E+00  0.1238851E-08
 -0.4503035E-02  0.0000000E+00 -0.5050505E-02  0.3465040E-11  0.0000000E+00  0.1246030E-08
 -0.4345206E-02  0.0000000E+00 -0.5050505E-02  0.3241605E-11  0.0000000E+00  0.1252775E-08
 -0.4187378E-02  0.0000000E+00 -0.5050505E-02  0.3004088E-11  0.0000000E+00  0.1259056E-08
 -0.3985156E-02  0.0000000E+00 -0.5050505E-02  0.2753309E-11  0.0000000E+00  0.1264846E-08
 -0.3669499E-02  0.0000000E+00 -0.5050505E-02  0.2490270E-11  0.0000000E+00  0.1270119E-08
 -0.3353842E-02  0.0000000E+00 -0.5050505E-02  0.2215841E-11  0.0000000E+00  0.1274852E-08
 -0.2978990E-02  0.0000000E+00 -0.5050505E-02  0.1930886E-11  0.0000000E+00  0.1279022E-08
 -0.2347676E-02  0.0000000E+00 -0.5050505E-02  0.1636229E-11  0.0000000E+00  0.1282609E-08
 -0.1716362E-02  0.0000000E+00 -0.5050505E-02  0.1332612E-11  0.0000000E+00  0.1285595E-08
 -0.1025842E-02  0.0000000E+00 -0.5050505E-02  0.1020995E-11  0.0000000E+00  0.1287962E-08
  0.2367855E-03  0.0000000E+00 -0.5050505E-02  0.7028692E-12  0.0000000E+00  0.1289695E-08
  0.1499413E-02  0.0000000E+00 -0.5050505E-02  0.3808973E-12  0.0000000E+00  0.1290785E-08
  0.2762042E-02  0.0000000E+00 -0.5050505E-02  0.5847558E-13  0.0000000E+00  0.1291227E-08
 -0.5050505E-02  0.0000000E+00 -0.5050505E-02 -0.2180894E-12  0.0000000E+00  0.1291067E-08
 -0.5050505E-02  0.0000000E+00 -0.5050505E-02 -0.5079706E-12  0.0000000E+00  0.1290337E-08
 -0.5050505E-02  0.0000000E+00 -0.5050505E-02 -0.8433560E-12  0.0000000E+00  0.1288978E-08
 -0.5050505E-02  0.0000000E+00 -0.5050505E-02 -0.1171933E-11  0.0000000E+00  0.1286951E-08
 -0.5050505E-02  0.0000000E+00 -0.5050505E-02 -0.1488612E-11  0.0000000E+00  0.1284275E-08
 -0.5050505E-02  0.0000000E+00 -0.5050505E-02 -0.1795108E-11  0.0000000E+00  0.1280973E-08
 -0.5050505E-02  0.0000000E+00 -0.5050505E-02 -0.2092450E-11  0.0000000E+00  0.1277063E-08
 -0.5050504E-02  0.0000000E+00 -0.5050505E-02 -0.2380771E-11  0.0000000E+00  0.1272565E-08
 -0.5050501E-02  0.0000000E+00 -0.5050505E-02 -0.2659353E-11  0.0000000E+00  0.1267496E-08
 -0.5050495E-02  0.0000000E+00 -0.5050505E-02 -0.2927281E-11  0.0000000E+00  0.1261878E-08
 -0.5050482E-02  0.0000000E+00 -0.5050505E-02 -0.3183564E-11  0.0000000E+00  0.1255732E-08
 -0.5050449E-02  0.0000000E+00 -0.5050505E-02 -0.3427184E-11  0.0000000E+00  0.1249084E-08
 -0.5050376E-02  0.0000000E+00 -0.5050505E-02 -0.3657150E-11  0.0000000E+00  0.1241960E-08
 -0.5050299E-02  0.0000000E+00 -0.5050505E-02 -0.3872495E-11  0.0000000E+00  0.1234388E-08
 -0.5050178E-02  0.0000000E+00 -0.5050505E-02 -0.4072387E-11  0.0000000E+00  0.1226398E-08
 -0.5050018E-02  0.0000000E+00 -0.5050505E-02 -0.4256016E-11  0.0000000E+00  0.1218022E-08
 -0.5049710E-02  0.0000000E+00 -0.5050505E-02 -0.4422671E-11  0.0000000E+00  0.1209294E-08
 -0.5049253E-02  0.0000000E+00 -0.5050505E-02 -0.4571653E-11  0.0000000E+00  0.1200249E-08
 -0.5048636E-02  0.0000000E+00 -0.5050505E-02 -0.4702407E-11  0.0000000E+00  0.1190923E-08
 -0.5047442E-02  0.0000000E+00 -0.5050505E-02 -0.4814410E-11  0.0000000E+00  0.1181352E-08
 -0.5045727E-02  0.0000000E+00 -0.5050505E-02 -0.4907270E-11  0.0000000E+00  0.1171575E-08
 -0.5043261E-02  0.0000000E+00 -0.5050505E-02 -0.4980614E-11  0.0000000E+00  0.1161631E-08
 -0.5038714E-02  0.0000000E+00 -0.5050505E-02 -0.5034171E-11  0.0000000E+00  0.1151560E-08
 -0.5032318E-02  0.0000000E+00 -0.5050505E-02 -0.5067739E-11  0.0000000E+00  0.1141401E-08
 -0.5022454E-02  0.0000000E+00 -0.5050505E-02 -0.5081250E-11  0.0000000E+00  0.1131194E-08
 -0.5012589E-02  0.0000000E+00 -0.5050505E-02 -0.5074607E-11  0.0000000E+00  0.1120981E-08
 -0.5002725E-02  0.0000000E+00 -0.5050505E-02 -0.5047870E-11  0.0000000E+00  0.1110801E-08
 -0.4992860E-02  0.0000000E+00 -0.5050505E-02 -0.5001106E-11  0.0000000E+00  0.1100695E-08
 -0.4976523E-02  0.0000000E+00 -0.5050505E-02 -0.4934495E-11  0.0000000E+00  0.1090703E-08
 -0.4956794E-02  0.0000000E+00 -0.5050505E-02 -0.4848255E-11  0.0000000E+00  0.1080865E-08
 -0.4937066E-02  0.0000000E+00 -0.5050505E-02 -0.4742573E-11  0.0000000E+00  0.1071220E-08
 -0.4906239E-02  0.0000000E+00 -0.5050505E-02 -0.4617802E-11  0.0000000E+00  0.1061807E-08
 -0.4866782E-02  0.0000000E+00 -0.5050505E-02 -0.4474173E-11  0.0000000E+00  0.1052663E-08
 -0.4827325E-02  0.0000000E+00 -0.5050505E-02 -0.4311973E-11  0.0000000E+00  0.1043827E-08
 -0.4769372E-02  0.0000000E+00 -0.5050505E-02 -0.4131380E-11  0.0000000E+00  0.1035336E-08
 -0.4690458E-02  0.0000000E+00 -0.5050505E-02 -0.3932417E-11  0.0000000E+00  0.1027227E-08
 -0.4611543E-02  0.0000000E+00 -0.5050505E-02 -0.3714898E-11  0.0000000E+00  0.1019536E-08
 -0.4503035E-02  0.0000000E+00 -0.5050505E-02 -0.3478094E-11  0.0000000E+00  0.1012303E-08
 -0.4345206E-02  0.0000000E+00 -0.5050505E-02 -0.3220513E-11  0.0000000E+00  0.1005566E-08
 -0.4187378E-02  0.0000000E+00 -0.5050505E-02 -0.2939172E-11  0.0000000E+00  0.9993715E-09
 -0.3985156E-02  0.0000000E+00 -0.5050505E-02 -0.2628432E-11  0.0000000E+00  0.9937723E-09
 -0.3669499E-02  0.0000000E+00 -0.5050505E-02 -0.2277534E-11  0.0000000E+00  0.9888386E-09
 -0.3353842E-02  0.0000000E+00 -0.5050505E-02 -0.1865648E-11  0.0000000E+00  0.9846720E-09
 -0.2978990E-02  0.0000000E+00 -0.5050505E-02 -0.1349954E-11  0.0000000E+00  0.9814382E-09
 -0.2347676E-02  0.0000000E+00 -0.5050505E-02 -0.6347589E-12  0.0000000E+00  0.9794422E-09
 -0.1716362E-02  0.0000000E+00 -0.5050505E-02  0.4815032E-12  0.0000000E+00  0.9792881E-09
 -0.1025842E-02  0.0000000E+00 -0.5050505E-02  0.2644560E-11  0.0000000E+00  0.9824318E-09
  0.2367855E-03  0.0000000E+00 -0.5050505E-02  0.7655848E-11  0.0000000E+00  0.9927906E-09
  0.1499413E-02  0.0000000E+00 -0.5050505E-02  0.2157429E-10  0.0000000E+00  0.1022186E-08
  0.5287294E-02  0.0000000E+00 -0.5050505E-02  0.3603946E-09  0.0000000E+00  0.8164509E-09
 -0.5050505E-02  0.0000000E+00 -0.5050505E-02  0.2392101E-12  0.0000000E+00  0.9947048E-09
 -0.5050505E-02  0.0000000E+00 -0.5050505E-02  0.1114956E-11  0.0000000E+00  0.9952010E-09
 -0.5050505E-02  0.0000000E+00 -0.5050505E-02  0.2130167E-11  0.0000000E+00  0.9963172E-09
 -0.5050505E-02  0.0000000E+00 -0.5050505E-02  0.3084029E-11  0.0000000E+00  0.9980831E-09
 -0.5050505E-02  0.0000000E+00 -0.5050505E-02  0.3997083E-11  0.0000000E+00  0.1000473E-08
 -0.5050505E-02  0.0000000E+00 -0.5050505E-02  0.4877746E-11  0.0000000E+00  0.1003466E-08
 -0.5050504E-02  0.0000000E+00 -0.5050505E-02  0.5732204E-11  0.0000000E+00  0.1007043E-08
 -0.5050501E-02  0.0000000E+00 -0.5050505E-02  0.6560025E-11  0.0000000E+00  0.1011187E-08
 -0.5050495E-02  0.0000000E+00 -0.5050505E-02  0.7359499E-11  0.0000000E+00  0.1015880E-08
 -0.5050482E-02  0.0000000E+00 -0.5050505E-02  0.8129415E-11  0.0000000E+00  0.1021102E-08
 -0.5050449E-02  0.0000000E+00 -0.5050505E-02  0.8866412E-11  0.0000000E+00  0.1026833E-08
 -0.5050376E-02  0.0000000E+00 -0.5050505E-02  0.9567630E-11  0.0000000E+00  0.1033047E-08
 -0.5050299E-02  0.0000000E+00 -0.5050505E-02  0.1023076E-10  0.0000000E+00  0.1039722E-08
 -0.5050178E-02  0.0000000E+00 -0.5050505E-02  0.1085292E-10  0.0000000E+00  0.1046831E-08
 -0.5050018E-02  0.0000000E+00 -0.5050505E-02  0.1143153E-10  0.0000000E+00  0.1054344E-08
 -0.5049710E-02  0.0000000E+00 -0.5050505E-02  0.1196429E-10  0.0000000E+00  0.1062232E-08
 -0.5049253E-02  0.0000000E+00 -0.5050505E-02  0.1244895E-10  0.0000000E+00  0.1070463E-08
 -0.5048636E-02  0.0000000E+00 -0.5050505E-02  0.1288342E-10  0.0000000E+00  0.1079004E-08
 -0.5047442E-02  0.0000000E+00 -0.5050505E-02  0.1326587E-10  0.0000000E+00  0.1087820E-08
 -0.5045727E-02  0.0000000E+00 -0.5050505E-02  0.1359455E-10  0.0000000E+00  0.1096876E-08
 -0.5043261E-02  0.0000000E+00 -0.5050505E-02  0.1386801E-10  0.0000000E+00  0.1106136E-08
 -0.5038714E-02  0.0000000E+00 -0.5050505E-02  0.1408496E-10  0.0000000E+00  0.1115560E-08
 -0.5032318E-02  0.0000000E+00 -0.5050505E-02  0.1424431E-10  0.0000000E+00  0.1125112E-08
 -0.5022454E-02  0.0000000E+00 -0.5050505E-02  0.1434528E-10  0.0000000E+00  0.1134751E-08
 -0.5012589E-02  0.0000000E+00 -0.5050505E-02  0.1438721E-10  0.0000000E+00  0.1144439E-08
 -0.5002725E-02  0.0000000E+00 -0.5050505E-02  0.1436979E-10  0.0000000E+00  0.1154135E-08
 -0.4992860E-02  0.0000000E+00 -0.5050505E-02  0.1429281E-10  0.0000000E+00  0.1163800E-08
 -0.4976523E-02  0.0000000E+00 -0.5050505E-02  0.1415644E-10  0.0000000E+00  0.1173392E-08
 -0.4956794E-02  0.0000000E+00 -0.5050505E-02  0.1396105E-10  0.0000000E+00  0.1182873E-08
 -0.4937066E-02  0.0000000E+00 -0.5050505E-02  0.1370721E-10  0.0000000E+00  0.1192202E-08
 -0.4906239E-02  0.0000000E+00 -0.5050505E-02  0.1339580E-10  0.0000000E+00  0.1201341E-08
 -0.4866782E-02  0.0000000E+00 -0.5050505E-02  0.1302793E-10  0.0000000E+00  0.1210251E-08
 -0.4827325E-02  0.0000000E+00 -0.5050505E-02  0.1260492E-10  0.0000000E+00  0.1218895E-08
 -0.4769372E-02  0.0000000E+00 -0.5050505E-02  0.1212839E-10  0.0000000E+00  0.1227235E-08
 -0.4690458E-02  0.0000000E+00 -0.5050505E-02  0.1160016E-10  0.0000000E+00  0.1235236E-08
 -0.4611543E-02  0.0000000E+00 -0.5050505E-02  0.1102226E-10  0.0000000E+00  0.1242865E-08
 -0.4503035E-02  0.0000000E+00 -0.5050505E-02  0.1039692E-10  0.0000000E+00  0.1250087E-08
 -0.4345206E-02  0.0000000E+00 -0.5050505E-02  0.9726620E-11  0.0000000E+00  0.1256873E-08
 -0.4187378E-02  0.0000000E+00 -0.5050505E-02  0.9013996E-11  0.0000000E+00  0.1263193E-08
 -0.3985156E-02  0.0000000E+00 -0.5050505E-02  0.8261686E-11  0.0000000E+00  0.1269019E-08
 -0.3669499E-02  0.0000000E+00 -0.5050505E-02  0.7472580E-11  0.0000000E+00  0.1274326E-08
 -0.3353842E-02  0.0000000E+00 -0.5050505E-02  0.6649301E-11  0.0000000E+00  0.1279088E-08
 -0.2978990E-02  0.0000000E+00 -0.5050505E-02  0.5794461E-11  0.0000000E+00  0.1283286E-08
 -0.2347676E-02  0.0000000E+00 -0.5050505E-02  0.4910379E-11  0.0000000E+00  0.1286897E-08
 -0.1716362E-02  0.0000000E+00 -0.5050505E-02  0.3999099E-11  0.0000000E+00  0.1289902E-08
 -0.1025842E-02  0.0000000E+00 -0.5050505E-02  0.3063209E-11  0.0000000E+00  0.1292284E-08
  0.2367855E-03  0.0000000E+00 -0.5050505E-02  0.2107315E-11  0.0000000E+00  0.1294026E-08
  0.1499413E-02  0.0000000E+00 -0.5050505E-02  0.1141565E-11  0.0000000E+00  0.1295120E-08
  0.2762042E-02  0.0000000E+00 -0.5050505E-02  0.1854760E-12  0.0000000E+00  0.1295573E-08
 -0.5050505E-02  0.0000000E+00 -0.5050505E-02 -0.6519889E-12  0.0000000E+00  0.1295424E-08
 -0.5050505E-02  0.0000000E+00 -0.5050505E-02 -0.1531885E-11  0.0000000E+00  0.1294684E-08
 -0.5050505E-02  0.0000000E+00 -0.5050505E-02 -0.2531834E-11  0.0000000E+00  0.1293307E-08
 -0.5050505E-02  0.0000000E+00 -0.5050505E-02 -0.3515015E-11  0.0000000E+00  0.1291268E-08
 -0.5050505E-02  0.0000000E+00 -0.5050505E-02 -0.4464817E-11  0.0000000E+00  0.1288580E-08
 -0.5050505E-02  0.0000000E+00 -0.5050505E-02 -0.5384649E-11  0.0000000E+00  0.1285260E-08
 -0.5050505E-02  0.0000000E+00 -0.5050505E-02 -0.6277157E-11  0.0000000E+00  0.1281330E-08
 -0.5050504E-02  0.0000000E+00 -0.5050505E-02 -0.7142326E-11  0.0000000E+00  0.1276806E-08
 -0.5050501E-02  0.0000000E+00 -0.5050505E-02 -0.7978289E-11  0.0000000E+00  0.1271709E-08
 -0.5050495E-02  0.0000000E+00 -0.5050505E-02 -0.8782222E-11  0.0000000E+00  0.1266059E-08
 -0.5050482E-02  0.0000000E+00 -0.5050505E-02 -0.9551167E-11  0.0000000E+00  0.1259878E-08
 -0.5050449E-02  0.0000000E+00 -0.5050505E-02 -0.1028210E-10  0.0000000E+00  0.1253191E-08
 -0.5050376E-02  0.0000000E+00 -0.5050505E-02 -0.1097204E-10  0.0000000E+00  0.1246026E-08
 -0.5050299E-02  0.0000000E+00 -0.5050505E-02 -0.1161815E-10  0.0000000E+00  0.1238410E-08
 -0.5050178E-02  0.0000000E+00 -0.5050505E-02 -0.1221788E-10  0.0000000E+00  0.1230374E-08
 -0.5050018E-02  0.0000000E+00 -0.5050505E-02 -0.1276883E-10  0.0000000E+00  0.1221950E-08
 -0.5049710E-02  0.0000000E+00 -0.5050505E-02 -0.1326877E-10  0.0000000E+00  0.1213171E-08
 -0.5049253E-02  0.0000000E+00 -0.5050505E-02 -0.1371576E-10  0.0000000E+00  0.1204074E-08
 -0.5048636E-02  0.0000000E+00 -0.5050505E-02 -0.1410802E-10  0.0000000E+00  0.1194693E-08
 -0.5047442E-02  0.0000000E+00 -0.5050505E-02 -0.1444406E-10  0.0000000E+00  0.1185067E-08
 -0.5045727E-02  0.0000000E+00 -0.5050505E-02 -0.1472262E-10  0.0000000E+00  0.1175234E-08
 -0.5043261E-02  0.0000000E+00 -0.5050505E-02 -0.1494266E-10  0.0000000E+00  0.1165233E-08
 -0.5038714E-02  0.0000000E+00 -0.5050505E-02 -0.1510331E-10  0.0000000E+00  0.1155103E-08
 -0.5032318E-02  0.0000000E+00 -0.5050505E-02 -0.1520405E-10  0.0000000E+00  0.1144886E-08
 -0.5022454E-02  0.0000000E+00 -0.5050505E-02 -0.1524454E-10  0.0000000E+00  0.1134620E-08
 -0.5012589E-02  0.0000000E+00 -0.5050505E-02 -0.1522462E-10  0.0000000E+00  0.1124348E-08
 -0.5002725E-02  0.0000000E+00 -0.5050505E-02 -0.1514441E-10  0.0000000E+00  0.1114110E-08
 -0.4992860E-02  0.0000000E+00 -0.5050505E-02 -0.1500417E-10  0.0000000E+00  0.1103945E-08
 -0.4976523E-02  0.0000000E+00 -0.5050505E-02 -0.1480440E-10  0.0000000E+00  0.1093896E-08
 -0.4956794E-02  0.0000000E+00 -0.5050505E-02 -0.1454571E-10  0.0000000E+00  0.1084001E-08
 -0.4937066E-02  0.0000000E+00 -0.5050505E-02 -0.1422884E-10  0.0000000E+00  0.1074299E-08
 -0.4906239E-02  0.0000000E+00 -0.5050505E-02 -0.1385469E-10  0.0000000E+00  0.1064831E-08
 -0.4866782E-02  0.0000000E+00 -0.5050505E-02 -0.1342409E-10  0.0000000E+00  0.1055633E-08
 -0.4827325E-02  0.0000000E+00 -0.5050505E-02 -0.1293790E-10  0.0000000E+00  0.1046744E-08
 -0.4769372E-02  0.0000000E+00 -0.5050505E-02 -0.1239675E-10  0.0000000E+00  0.1038201E-08
 -0.4690458E-02  0.0000000E+00 -0.5050505E-02 -0.1180085E-10  0.0000000E+00  0.1030040E-08
 -0.4611543E-02  0.0000000E+00 -0.5050505E-02 -0.1114975E-10  0.0000000E+00  0.1022297E-08
 -0.4503035E-02  0.0000000E+00 -0.5050505E-02 -0.1044170E-10  0.0000000E+00  0.1015010E-08
 -0.4345206E-02  0.0000000E+00 -0.5050505E-02 -0.9672843E-11  0.0000000E+00  0.1008217E-08
 -0.4187378E-02  0.0000000E+00 -0.5050505E-02 -0.8835358E-11  0.0000000E+00  0.1001959E-08
 -0.3985156E-02  0.0000000E+00 -0.5050505E-02 -0.7914727E-11  0.0000000E+00  0.9962804E-09
 -0.3669499E-02  0.0000000E+00 -0.5050505E-02 -0.6883682E-11  0.0000000E+00  0.9912381E-09
 -0.3353842E-02  0.0000000E+00 -0.5050505E-02 -0.5691490E-11  0.0000000E+00  0.9869016E-09
 -0.2978990E-02  0.0000000E+00 -0.5050505E-02 -0.4240888E-11  0.0000000E+00  0.9833625E-09
 -0.2347676E-02  0.0000000E+00 -0.5050505E-02 -0.2338596E-11  0.0000000E+00  0.9807265E-09
 -0.1716362E-02  0.0000000E+00 -0.5050505E-02  0.4327131E-12  0.0000000E+00  0.9791172E-09
 -0.1025842E-02  0.0000000E+00 -0.5050505E-02  0.5071018E-11  0.0000000E+00  0.9783822E-09
  0.2367855E-03  0.0000000E+00 -0.5050505E-02  0.1411003E-10  0.0000000E+00  0.9770126E-09
  0.1499413E-02  0.0000000E+00 -0.5050505E-02  0.3406039E-10  0.0000000E+00  0.9668298E-09
  0.5287294E-02  0.0000000E+00 -0.5050505E-02  0.8287438E-10  0.0000000E+00  0.9081926E-09
 -0.5050505E-02  0.0000000E+00 -0.5050505E-02  0.4625346E-12  0.0000000E+00  0.9998284E-09
 -0.5050505E-02  0.0000000E+00 -0.5050505E-02  0.1909679E-11  0.0000000E+00  0.1000364E-08
 -0.5050505E-02  0.0000000E+00 -0.5050505E-02  0.3575560E-11  0.0000000E+00  0.1001518E-08
 -0.5050505E-02  0.0000000E+00 -0.5050505E-02  0.5153847E-11  0.0000000E+00  0.1003317E-08
 -0.5050505E-02  0.0000000E+00 -0.5050505E-02  0.6672827E-11  0.0000000E+00  0.1005740E-08
 -0.5050505E-02  0.0000000E+00 -0.5050505E-02  0.8141333E-11  0.0000000E+00  0.1008770E-08
 -0.5050504E-02  0.0000000E+00 -0.5050505E-02  0.9566355E-11  0.0000000E+00  0.1012390E-08
 -0.5050501E-02  0.0000000E+00 -0.5050505E-02  0.1094763E-10  0.0000000E+00  0.1016583E-08
 -0.5050495E-02  0.0000000E+00 -0.5050505E-02  0.1228181E-10  0.0000000E+00  0.1021331E-08
 -0.5050482E-02  0.0000000E+00 -0.5050505E-02  0.1356636E-10  0.0000000E+00  0.1026614E-08
 -0.5050449E-02  0.0000000E+00 -0.5050505E-02  0.1479618E-10  0.0000000E+00  0.1032411E-08
 -0.5050376E-02  0.0000000E+00 -0.5050505E-02  0.1596643E-10  0.0000000E+00  0.1038698E-08
 -0.5050299E-02  0.0000000E+00 -0.5050505E-02  0.1707303E-10  0.0000000E+00  0.1045451E-08
 -0.5050178E-02  0.0000000E+00 -0.5050505E-02  0.1811132E-10  0.0000000E+00  0.1052642E-08
 -0.5050018E-02  0.0000000E+00 -0.5050505E-02  0.1907698E-10  0.0000000E+00  0.1060242E-08
 -0.5049710E-02  0.0000000E+00 -0.5050505E-02  0.1996614E-10  0.0000000E+00  0.1068222E-08
 -0.5049253E-02  0.0000000E+00 -0.5050505E-02  0.2077507E-10  0.0000000E+00  0.1076549E-08
 -0.5048636E-02  0.0000000E+00 -0.5050505E-02  0.2150028E-10  0.0000000E+00  0.1085190E-08
 -0.5047442E-02  0.0000000E+00 -0.5050505E-02  0.2213865E-10  0.0000000E+00  0.1094109E-08
 -0.5045727E-02  0.0000000E+00 -0.5050505E-02  0.2268735E-10  0.0000000E+00  0.1103272E-08
 -0.5043261E-02  0.0000000E+00 -0.5050505E-02  0.2314388E-10  0.0000000E+00  0.1112640E-08
 -0.5038714E-02  0.0000000E+00 -0.5050505E-02  0.2350609E-10  0.0000000E+00  0.1122175E-08
 -0.5032318E-02  0.0000000E+00 -0.5050505E-02  0.2377229E-10  0.0000000E+00  0.1131840E-08
 -0.5022454E-02  0.0000000E+00 -0.5050505E-02  0.2394096E-10  0.0000000E+00  0.1141593E-08
 -0.5012589E-02  0.0000000E+00 -0.5050505E-02  0.2401118E-10  0.0000000E+00  0.1151396E-08
 -0.5002725E-02  0.0000000E+00 -0.5050505E-02  0.2398229E-10  0.0000000E+00  0.1161207E-08
 -0.4992860E-02  0.0000000E+00 -0.5050505E-02  0.2385404E-10  0.0000000E+00  0.1170986E-08
 -0.4976523E-02  0.0000000E+00 -0.5050505E-02  0.2362669E-10  0.0000000E+00  0.1180693E-08
 -0.4956794E-02  0.0000000E+00 -0.5050505E-02  0.2330079E-10  0.0000000E+00  0.1190287E-08
 -0.4937066E-02  0.0000000E+00 -0.5050505E-02  0.2287736E-10  0.0000000E+00  0.1199728E-08
 -0.4906239E-02  0.0000000E+00 -0.5050505E-02  0.2235787E-10  0.0000000E+00  0.1208977E-08
 -0.4866782E-02  0.0000000E+00 -0.5050505E-02  0.2174407E-10  0.0000000E+00  0.1217994E-08
 -0.4827325E-02  0.0000000E+00 -0.5050505E-02  0.2103831E-10  0.0000000E+00  0.1226742E-08
 -0.4769372E-02  0.0000000E+00 -0.5050505E-02  0.2024318E-10  0.0000000E+00  0.1235183E-08
 -0.4690458E-02  0.0000000E+00 -0.5050505E-02  0.1936174E-10  0.0000000E+00  0.1243281E-08
 -0.4611543E-02  0.0000000E+00 -0.5050505E-02  0.1839740E-10  0.0000000E+00  0.1251003E-08
 -0.4503035E-02  0.0000000E+00 -0.5050505E-02  0.1735389E-10  0.0000000E+00  0.1258314E-08
 -0.4345206E-02  0.0000000E+00 -0.5050505E-02  0.1623535E-10  0.0000000E+00  0.1265183E-08
 -0.4187378E-02  0.0000000E+00 -0.5050505E-02  0.1504613E-10  0.0000000E+00  0.1271581E-08
 -0.3985156E-02  0.0000000E+00 -0.5050505E-02  0.1379080E-10  0.0000000E+00  0.1277479E-08
 -0.3669499E-02  0.0000000E+00 -0.5050505E-02  0.1247405E-10  0.0000000E+00  0.1282851E-08
 -0.3353842E-02  0.0000000E+00 -0.5050505E-02  0.1110033E-10  0.0000000E+00  0.1287674E-08
 -0.2978990E-02  0.0000000E+00 -0.5050505E-02  0.9673996E-11  0.0000000E+00  0.1291924E-08
 -0.2347676E-02  0.0000000E+00 -0.5050505E-02  0.8198655E-11  0.0000000E+00  0.1295582E-08
 -0.1716362E-02  0.0000000E+00 -0.5050505E-02  0.6677387E-11  0.0000000E+00  0.1298627E-08
 -0.1025842E-02  0.0000000E+00 -0.5050505E-02  0.5113751E-11  0.0000000E+00  0.1301041E-08
  0.2367855E-03  0.0000000E+00 -0.5050505E-02  0.3515150E-11  0.0000000E+00  0.1302806E-08
  0.1499413E-02  0.0000000E+00 -0.5050505E-02  0.1902170E-11  0.0000000E+00  0.1303911E-08
  0.2762042E-02  0.0000000E+00 -0.5050505E-02  0.3268937E-12  0.0000000E+00  0.1304373E-08
 -0.5050505E-02  0.0000000E+00 -0.5050505E-02 -0.1082037E-11  0.0000000E+00  0.1304229E-08
 -0.5050505E-02  0.0000000E+00 -0.5050505E-02 -0.2569132E-11  0.0000000E+00  0.1303481E-08
 -0.5050505E-02  0.0000000E+00 -0.5050505E-02 -0.4227676E-11  0.0000000E+00  0.1302086E-08
 -0.5050505E-02  0.0000000E+00 -0.5050505E-02 -0.5863507E-11  0.0000000E+00  0.1300024E-08
 -0.5050505E-02  0.0000000E+00 -0.5050505E-02 -0.7447781E-11  0.0000000E+00  0.1297306E-08
 -0.5050505E-02  0.0000000E+00 -0.5050505E-02 -0.8983330E-11  0.0000000E+00  0.1293950E-08
 -0.5050505E-02  0.0000000E+00 -0.5050505E-02 -0.1047351E-10  0.0000000E+00  0.1289976E-08
 -0.5050504E-02  0.0000000E+00 -0.5050505E-02 -0.1191776E-10  0.0000000E+00  0.1285402E-08
 -0.5050501E-02  0.0000000E+00 -0.5050505E-02 -0.1331315E-10  0.0000000E+00  0.1280246E-08
 -0.5050495E-02  0.0000000E+00 -0.5050505E-02 -0.1465497E-10  0.0000000E+00  0.1274531E-08
 -0.5050482E-02  0.0000000E+00 -0.5050505E-02 -0.1593832E-10  0.0000000E+00  0.1268279E-08
 -0.5050449E-02  0.0000000E+00 -0.5050505E-02 -0.1715819E-10  0.0000000E+00  0.1261516E-08
 -0.5050376E-02  0.0000000E+00 -0.5050505E-02 -0.1830959E-10  0.0000000E+00  0.1254268E-08
 -0.5050299E-02  0.0000000E+00 -0.5050505E-02 -0.1938787E-10  0.0000000E+00  0.1246564E-08
 -0.5050178E-02  0.0000000E+00 -0.5050505E-02 -0.2038871E-10  0.0000000E+00  0.1238435E-08
 -0.5050018E-02  0.0000000E+00 -0.5050505E-02 -0.2130811E-10  0.0000000E+00  0.1229913E-08
 -0.5049710E-02  0.0000000E+00 -0.5050505E-02 -0.2214239E-10  0.0000000E+00  0.1221033E-08
 -0.5049253E-02  0.0000000E+00 -0.5050505E-02 -0.2288826E-10  0.0000000E+00  0.1211831E-08
 -0.5048636E-02  0.0000000E+00 -0.5050505E-02 -0.2354282E-10  0.0000000E+00  0.1202342E-08
 -0.5047442E-02  0.0000000E+00 -0.5050505E-02 -0.2410355E-10  0.0000000E+00  0.1192604E-08
 -0.5045727E-02  0.0000000E+00 -0.5050505E-02 -0.2456835E-10  0.0000000E+00  0.1182658E-08
 -0.5043261E-02  0.0000000E+00 -0.5050505E-02 -0.2493545E-10  0.0000000E+00  0.1172541E-08
 -0.5038714E-02  0.0000000E+00 -0.5050505E-02 -0.2520351E-10  0.0000000E+00  0.1162295E-08
 -0.5032318E-02  0.0000000E+00 -0.5050505E-02 -0.2537159E-10  0.0000000E+00  0.1151959E-08
 -0.5022454E-02  0.0000000E+00 -0.5050505E-02 -0.2543912E-10  0.0000000E+00  0.1141576E-08
 -0.5012589E-02  0.0000000E+00 -0.5050505E-02 -0.2540589E-10  0.0000000E+00  0.1131185E-08
 -0.5002725E-02  0.0000000E+00 -0.5050505E-02 -0.2527207E-10  0.0000000E+00  0.1120829E-08
 -0.4992860E-02  0.0000000E+00 -0.5050505E-02 -0.2503818E-10  0.0000000E+00  0.1110547E-08
 -0.4976523E-02  0.0000000E+00 -0.5050505E-02 -0.2470499E-10  0.0000000E+00  0.1100381E-08
 -0.4956794E-02  0.0000000E+00 -0.5050505E-02 -0.2427358E-10  0.0000000E+00  0.1090372E-08
 -0.4937066E-02  0.0000000E+00 -0.5050505E-02 -0.2374527E-10  0.0000000E+00  0.1080558E-08
 -0.4906239E-02  0.0000000E+00 -0.5050505E-02 -0.2312157E-10  0.0000000E+00  0.1070978E-08
 -0.4866782E-02  0.0000000E+00 -0.5050505E-02 -0.2240397E-10  0.0000000E+00  0.1061672E-08
 -0.4827325E-02  0.0000000E+00 -0.5050505E-02 -0.2159407E-10  0.0000000E+00  0.1052677E-08
 -0.4769372E-02  0.0000000E+00 -0.5050505E-02 -0.2069308E-10  0.0000000E+00  0.1044029E-08
 -0.4690458E-02  0.0000000E+00 -0.5050505E-02 -0.1970179E-10  0.0000000E+00  0.1035765E-08
 -0.4611543E-02  0.0000000E+00 -0.5050505E-02 -0.1861995E-10  0.0000000E+00  0.1027920E-08
 -0.4503035E-02  0.0000000E+00 -0.5050505E-02 -0.1744575E-10  0.0000000E+00  0.1020529E-08
 -0.4345206E-02  0.0000000E+00 -0.5050505E-02 -0.1617450E-10  0.0000000E+00  0.1013627E-08
 -0.4187378E-02  0.0000000E+00 -0.5050505E-02 -0.1479658E-10  0.0000000E+00  0.1007248E-08
 -0.3985156E-02  0.0000000E+00 -0.5050505E-02 -0.1329415E-10  0.0000000E+00  0.1001427E-08
 -0.3669499E-02  0.0000000E+00 -0.5050505E-02 -0.1163500E-10  0.0000000E+00  0.9961975E-09
 -0.3353842E-02  0.0000000E+00 -0.5050505E-02 -0.9762314E-11  0.0000000E+00  0.9915910E-09
 -0.2978990E-02  0.0000000E+00 -0.5050505E-02 -0.7578558E-11  0.0000000E+00  0.9876238E-09
 -0.2347676E-02  0.0000000E+00 -0.5050505E-02 -0.4925543E-11  0.0000000E+00  0.9842646E-09
 -0.1716362E-02  0.0000000E+00 -0.5050505E-02 -0.1502958E-11  0.0000000E+00  0.9813150E-09
 -0.1025842E-02  0.0000000E+00 -0.5050505E-02  0.3169923E-11  0.0000000E+00  0.9782226E-09
  0.2367855E-03  0.0000000E+00 -0.5050505E-02  0.9715437E-11  0.0000000E+00  0.9733693E-09
  0.1499413E-02  0.0000000E+00 -0.5050505E-02  0.1796925E-10  0.0000000E+00  0.9632227E-09
  0.5287294E-02  0.0000000E+00 -0.5050505E-02  0.2116310E-10  0.0000000E+00  0.9442785E-09
 -0.5050505E-02  0.0000000E+00 -0.5050505E-02  0.7090404E-12  0.0000000E+00  0.1007666E-08
 -0.5050505E-02  0.0000000E+00 -0.5050505E-02  0.2736974E-11  0.0000000E+00  0.1008224E-08
 -0.5050505E-02  0.0000000E+00 -0.5050505E-02  0.5047514E-11  0.0000000E+00  0.1009412E-08
 -0.5050505E-02  0.0000000E+00 -0.5050505E-02  0.7249398E-11  0.0000000E+00  0.1011250E-08
 -0.5050505E-02  0.0000000E+00 -0.5050505E-02  0.9376152E-11  0.0000000E+00  0.1013720E-08
 -0.5050505E-02  0.0000000E+00 -0.5050505E-02  0.1143632E-10  0.0000000E+00  0.1016805E-08
 -0.5050504E-02  0.0000000E+00 -0.5050505E-02  0.1343629E-10  0.0000000E+00  0.1020490E-08
 -0.5050501E-02  0.0000000E+00 -0.5050505E-02  0.1537539E-10  0.0000000E+00  0.1024757E-08
 -0.5050495E-02  0.0000000E+00 -0.5050505E-02  0.1724891E-10  0.0000000E+00  0.1029588E-08
 -0.5050482E-02  0.0000000E+00 -0.5050505E-02  0.1905257E-10  0.0000000E+00  0.1034962E-08
 -0.5050449E-02  0.0000000E+00 -0.5050505E-02  0.2077953E-10  0.0000000E+00  0.1040860E-08
 -0.5050376E-02  0.0000000E+00 -0.5050505E-02  0.2242301E-10  0.0000000E+00  0.1047256E-08
 -0.5050299E-02  0.0000000E+00 -0.5050505E-02  0.2397712E-10  0.0000000E+00  0.1054125E-08
 -0.5050178E-02  0.0000000E+00 -0.5050505E-02  0.2543533E-10  0.0000000E+00  0.1061441E-08
 -0.5050018E-02  0.0000000E+00 -0.5050505E-02  0.2679167E-10  0.0000000E+00  0.1069173E-08
 -0.5049710E-02  0.0000000E+00 -0.5050505E-02  0.2804061E-10  0.0000000E+00  0.1077291E-08
 -0.5049253E-02  0.0000000E+00 -0.5050505E-02  0.2917693E-10  0.0000000E+00  0.1085763E-08
 -0.5048636E-02  0.0000000E+00 -0.5050505E-02  0.3019569E-10  0.0000000E+00  0.1094554E-08
 -0.5047442E-02  0.0000000E+00 -0.5050505E-02  0.3109256E-10  0.0000000E+00  0.1103629E-08
 -0.5045727E-02  0.0000000E+00 -0.5050505E-02  0.3186349E-10  0.0000000E+00  0.1112952E-08
 -0.5043261E-02  0.0000000E+00 -0.5050505E-02  0.3250505E-10  0.0000000E+00  0.1122484E-08
 -0.5038714E-02  0.0000000E+00 -0.5050505E-02  0.3301420E-10  0.0000000E+00  0.1132186E-08
 -0.5032318E-02  0.0000000E+00 -0.5050505E-02  0.3338844E-10  0.0000000E+00  0.1142020E-08
 -0.5022454E-02  0.0000000E+00 -0.5050505E-02  0.3362579E-10  0.0000000E+00  0.1151946E-08
 -0.5012589E-02  0.0000000E+00 -0.5050505E-02  0.3372485E-10  0.0000000E+00  0.1161921E-08
 -0.5002725E-02  0.0000000E+00 -0.5050505E-02  0.3368470E-10  0.0000000E+00  0.1171906E-08
 -0.4992860E-02  0.0000000E+00 -0.5050505E-02  0.3350504E-10  0.0000000E+00  0.1181858E-08
 -0.4976523E-02  0.0000000E+00 -0.5050505E-02  0.3318616E-10  0.0000000E+00  0.1191737E-08
 -0.4956794E-02  0.0000000E+00 -0.5050505E-02  0.3272885E-10  0.0000000E+00  0.1201502E-08
 -0.4937066E-02  0.0000000E+00 -0.5050505E-02  0.3213460E-10  0.0000000E+00  0.1211112E-08