title = "dataset feddes"
variables = "x", "y", "z", "vx", "vy", "vz"
zone t = "velocities, solution time =  2.800E+01 days        " i =   99, j =   99, k =    1,  f=point
 -0.5050505E-02  0.0000000E+00 -0.5050505E-02  0.6026305E-12  0.0000000E+00  0.1019322E-07
 -0.5050505E-02  0.0000000E+00 -0.5050505E-02  0.2131933E-11  0.0000000E+00  0.1019597E-07
 -0.5050505E-02  0.0000000E+00 -0.5050505E-02  0.3794891E-11  0.0000000E+00  0.1020193E-07
 -0.5050505E-02  0.0000000E+00 -0.5050505E-02  0.5395610E-11  0.0000000E+00  0.1021117E-07
 -0.5050505E-02  0.0000000E+00 -0.5050505E-02  0.6943927E-11  0.0000000E+00  0.1022358E-07
 -0.5050505E-02  0.0000000E+00 -0.5050505E-02  0.8448554E-11  0.0000000E+00  0.1023906E-07
 -0.5050504E-02  0.0000000E+00 -0.5050505E-02  0.9912032E-11  0.0000000E+00  0.1025753E-07
 -0.5050501E-02  0.0000000E+00 -0.5050505E-02  0.1133268E-10  0.0000000E+00  0.1027889E-07
 -0.5050495E-02  0.0000000E+00 -0.5050505E-02  0.1270680E-10  0.0000000E+00  0.1030307E-07
 -0.5050482E-02  0.0000000E+00 -0.5050505E-02  0.1402961E-10  0.0000000E+00  0.1032995E-07
 -0.5050449E-02  0.0000000E+00 -0.5050505E-02  0.1529618E-10  0.0000000E+00  0.1035945E-07
 -0.5050376E-02  0.0000000E+00 -0.5050505E-02  0.1650162E-10  0.0000000E+00  0.1039142E-07
 -0.5050299E-02  0.0000000E+00 -0.5050505E-02  0.1764100E-10  0.0000000E+00  0.1042576E-07
 -0.5050178E-02  0.0000000E+00 -0.5050505E-02  0.1870973E-10  0.0000000E+00  0.1046232E-07
 -0.5050018E-02  0.0000000E+00 -0.5050505E-02  0.1970345E-10  0.0000000E+00  0.1050095E-07
 -0.5049710E-02  0.0000000E+00 -0.5050505E-02  0.2061797E-10  0.0000000E+00  0.1054150E-07
 -0.5049253E-02  0.0000000E+00 -0.5050505E-02  0.2144947E-10  0.0000000E+00  0.1058380E-07
 -0.5048636E-02  0.0000000E+00 -0.5050505E-02  0.2219443E-10  0.0000000E+00  0.1062769E-07
 -0.5047442E-02  0.0000000E+00 -0.5050505E-02  0.2284960E-10  0.0000000E+00  0.1067299E-07
 -0.5045727E-02  0.0000000E+00 -0.5050505E-02  0.2341212E-10  0.0000000E+00  0.1071952E-07
 -0.5043261E-02  0.0000000E+00 -0.5050505E-02  0.2387945E-10  0.0000000E+00  0.1076708E-07
 -0.5038714E-02  0.0000000E+00 -0.5050505E-02  0.2424945E-10  0.0000000E+00  0.1081548E-07
 -0.5032318E-02  0.0000000E+00 -0.5050505E-02  0.2452032E-10  0.0000000E+00  0.1086452E-07
 -0.5022454E-02  0.0000000E+00 -0.5050505E-02  0.2469069E-10  0.0000000E+00  0.1091401E-07
 -0.5012589E-02  0.0000000E+00 -0.5050505E-02  0.2475955E-10  0.0000000E+00  0.1096374E-07
 -0.5002725E-02  0.0000000E+00 -0.5050505E-02  0.2472633E-10  0.0000000E+00  0.1101351E-07
 -0.4992860E-02  0.0000000E+00 -0.5050505E-02  0.2459086E-10  0.0000000E+00  0.1106311E-07
 -0.4976523E-02  0.0000000E+00 -0.5050505E-02  0.2435337E-10  0.0000000E+00  0.1111233E-07
 -0.4956794E-02  0.0000000E+00 -0.5050505E-02  0.2401455E-10  0.0000000E+00  0.1116097E-07
 -0.4937066E-02  0.0000000E+00 -0.5050505E-02  0.2357548E-10  0.0000000E+00  0.1120883E-07
 -0.4906239E-02  0.0000000E+00 -0.5050505E-02  0.2303767E-10  0.0000000E+00  0.1125570E-07
 -0.4866782E-02  0.0000000E+00 -0.5050505E-02  0.2240307E-10  0.0000000E+00  0.1130140E-07
 -0.4827325E-02  0.0000000E+00 -0.5050505E-02  0.2167403E-10  0.0000000E+00  0.1134573E-07
 -0.4769372E-02  0.0000000E+00 -0.5050505E-02  0.2085325E-10  0.0000000E+00  0.1138850E-07
 -0.4690458E-02  0.0000000E+00 -0.5050505E-02  0.1994394E-10  0.0000000E+00  0.1142953E-07
 -0.4611543E-02  0.0000000E+00 -0.5050505E-02  0.1894960E-10  0.0000000E+00  0.1146864E-07
 -0.4503035E-02  0.0000000E+00 -0.5050505E-02  0.1787414E-10  0.0000000E+00  0.1150567E-07
 -0.4345206E-02  0.0000000E+00 -0.5050505E-02  0.1672177E-10  0.0000000E+00  0.1154046E-07
 -0.4187378E-02  0.0000000E+00 -0.5050505E-02  0.1549705E-10  0.0000000E+00  0.1157286E-07
 -0.3985156E-02  0.0000000E+00 -0.5050505E-02  0.1420475E-10  0.0000000E+00  0.1160273E-07
 -0.3669499E-02  0.0000000E+00 -0.5050505E-02  0.1284985E-10  0.0000000E+00  0.1162994E-07
 -0.3353842E-02  0.0000000E+00 -0.5050505E-02  0.1143737E-10  0.0000000E+00  0.1165437E-07
 -0.2978990E-02  0.0000000E+00 -0.5050505E-02  0.9972367E-11  0.0000000E+00  0.1167590E-07
 -0.2347676E-02  0.0000000E+00 -0.5050505E-02  0.8459747E-11  0.0000000E+00  0.1169443E-07
 -0.1716362E-02  0.0000000E+00 -0.5050505E-02  0.6904458E-11  0.0000000E+00  0.1170989E-07
 -0.1025842E-02  0.0000000E+00 -0.5050505E-02  0.5311987E-11  0.0000000E+00  0.1172217E-07
  0.2367855E-03  0.0000000E+00 -0.5050505E-02  0.3689524E-11  0.0000000E+00  0.1173122E-07
  0.1499413E-02  0.0000000E+00 -0.5050505E-02  0.2047574E-11  0.0000000E+00  0.1173699E-07
  0.2762042E-02  0.0000000E+00 -0.5050505E-02  0.3988845E-12  0.0000000E+00  0.1173945E-07
 -0.5050505E-02  0.0000000E+00 -0.5050505E-02 -0.1158205E-11  0.0000000E+00  0.1173869E-07
 -0.5050505E-02  0.0000000E+00 -0.5050505E-02 -0.2714904E-11  0.0000000E+00  0.1173479E-07
 -0.5050505E-02  0.0000000E+00 -0.5050505E-02 -0.4399036E-11  0.0000000E+00  0.1172764E-07
 -0.5050505E-02  0.0000000E+00 -0.5050505E-02 -0.6056588E-11  0.0000000E+00  0.1171713E-07
 -0.5050505E-02  0.0000000E+00 -0.5050505E-02 -0.7669934E-11  0.0000000E+00  0.1170332E-07
 -0.5050505E-02  0.0000000E+00 -0.5050505E-02 -0.9241186E-11  0.0000000E+00  0.1168631E-07
 -0.5050505E-02  0.0000000E+00 -0.5050505E-02 -0.1077081E-10  0.0000000E+00  0.1166619E-07
 -0.5050504E-02  0.0000000E+00 -0.5050505E-02 -0.1225605E-10  0.0000000E+00  0.1164303E-07
 -0.5050501E-02  0.0000000E+00 -0.5050505E-02 -0.1369236E-10  0.0000000E+00  0.1161694E-07
 -0.5050495E-02  0.0000000E+00 -0.5050505E-02 -0.1507449E-10  0.0000000E+00  0.1158801E-07
 -0.5050482E-02  0.0000000E+00 -0.5050505E-02 -0.1639696E-10  0.0000000E+00  0.1155636E-07
 -0.5050449E-02  0.0000000E+00 -0.5050505E-02 -0.1765444E-10  0.0000000E+00  0.1152211E-07
 -0.5050376E-02  0.0000000E+00 -0.5050505E-02 -0.1884177E-10  0.0000000E+00  0.1148541E-07
 -0.5050299E-02  0.0000000E+00 -0.5050505E-02 -0.1995412E-10  0.0000000E+00  0.1144639E-07
 -0.5050178E-02  0.0000000E+00 -0.5050505E-02 -0.2098694E-10  0.0000000E+00  0.1140522E-07
 -0.5050018E-02  0.0000000E+00 -0.5050505E-02 -0.2193604E-10  0.0000000E+00  0.1136206E-07
 -0.5049710E-02  0.0000000E+00 -0.5050505E-02 -0.2279756E-10  0.0000000E+00  0.1131707E-07
 -0.5049253E-02  0.0000000E+00 -0.5050505E-02 -0.2356804E-10  0.0000000E+00  0.1127044E-07
 -0.5048636E-02  0.0000000E+00 -0.5050505E-02 -0.2424437E-10  0.0000000E+00  0.1122236E-07
 -0.5047442E-02  0.0000000E+00 -0.5050505E-02 -0.2482383E-10  0.0000000E+00  0.1117301E-07
 -0.5045727E-02  0.0000000E+00 -0.5050505E-02 -0.2530409E-10  0.0000000E+00  0.1112260E-07
 -0.5043261E-02  0.0000000E+00 -0.5050505E-02 -0.2568320E-10  0.0000000E+00  0.1107132E-07
 -0.5038714E-02  0.0000000E+00 -0.5050505E-02 -0.2595959E-10  0.0000000E+00  0.1101939E-07
 -0.5032318E-02  0.0000000E+00 -0.5050505E-02 -0.2613208E-10  0.0000000E+00  0.1096700E-07
 -0.5022454E-02  0.0000000E+00 -0.5050505E-02 -0.2619984E-10  0.0000000E+00  0.1091437E-07
 -0.5012589E-02  0.0000000E+00 -0.5050505E-02 -0.2616235E-10  0.0000000E+00  0.1086172E-07
 -0.5002725E-02  0.0000000E+00 -0.5050505E-02 -0.2601948E-10  0.0000000E+00  0.1080924E-07
 -0.4992860E-02  0.0000000E+00 -0.5050505E-02 -0.2577130E-10  0.0000000E+00  0.1075715E-07
 -0.4976523E-02  0.0000000E+00 -0.5050505E-02 -0.2541817E-10  0.0000000E+00  0.1070568E-07
 -0.4956794E-02  0.0000000E+00 -0.5050505E-02 -0.2496056E-10  0.0000000E+00  0.1065501E-07
 -0.4937066E-02  0.0000000E+00 -0.5050505E-02 -0.2439899E-10  0.0000000E+00  0.1060537E-07
 -0.4906239E-02  0.0000000E+00 -0.5050505E-02 -0.2373393E-10  0.0000000E+00  0.1055697E-07
 -0.4866782E-02  0.0000000E+00 -0.5050505E-02 -0.2296550E-10  0.0000000E+00  0.1051000E-07
 -0.4827325E-02  0.0000000E+00 -0.5050505E-02 -0.2209327E-10  0.0000000E+00  0.1046469E-07
 -0.4769372E-02  0.0000000E+00 -0.5050505E-02 -0.2111566E-10  0.0000000E+00  0.1042124E-07
 -0.4690458E-02  0.0000000E+00 -0.5050505E-02 -0.2002928E-10  0.0000000E+00  0.1037986E-07
 -0.4611543E-02  0.0000000E+00 -0.5050505E-02 -0.1882761E-10  0.0000000E+00  0.1034078E-07
 -0.4503035E-02  0.0000000E+00 -0.5050505E-02 -0.1749901E-10  0.0000000E+00  0.1030425E-07
 -0.4345206E-02  0.0000000E+00 -0.5050505E-02 -0.1602300E-10  0.0000000E+00  0.1027054E-07
 -0.4187378E-02  0.0000000E+00 -0.5050505E-02 -0.1436382E-10  0.0000000E+00  0.1023998E-07
 -0.3985156E-02  0.0000000E+00 -0.5050505E-02 -0.1245818E-10  0.0000000E+00  0.1021300E-07
 -0.3669499E-02  0.0000000E+00 -0.5050505E-02 -0.1019084E-10  0.0000000E+00  0.1019023E-07
 -0.3353842E-02  0.0000000E+00 -0.5050505E-02 -0.7342129E-11  0.0000000E+00  0.1017259E-07
 -0.2978990E-02  0.0000000E+00 -0.5050505E-02 -0.3462445E-11  0.0000000E+00  0.1016173E-07
 -0.2347676E-02  0.0000000E+00 -0.5050505E-02  0.2377517E-11  0.0000000E+00  0.1016064E-07
 -0.1716362E-02  0.0000000E+00 -0.5050505E-02  0.1262998E-10  0.0000000E+00  0.1017573E-07
 -0.1025842E-02  0.0000000E+00 -0.5050505E-02  0.3362649E-10  0.0000000E+00  0.1022225E-07
  0.2367855E-03  0.0000000E+00 -0.5050505E-02  0.8458533E-10  0.0000000E+00  0.1034113E-07
  0.1499413E-02  0.0000000E+00 -0.5050505E-02  0.2285207E-09  0.0000000E+00  0.1065601E-07
  0.5287294E-02  0.0000000E+00 -0.5050505E-02  0.3763063E-08  0.0000000E+00  0.8514360E-08
 -0.5050505E-02  0.0000000E+00 -0.5050505E-02  0.1884884E-11  0.0000000E+00  0.1020547E-07
 -0.5050505E-02  0.0000000E+00 -0.5050505E-02  0.6454418E-11  0.0000000E+00  0.1020837E-07
 -0.5050505E-02  0.0000000E+00 -0.5050505E-02  0.1140521E-10  0.0000000E+00  0.1021445E-07
 -0.5050505E-02  0.0000000E+00 -0.5050505E-02  0.1618932E-10  0.0000000E+00  0.1022377E-07
 -0.5050505E-02  0.0000000E+00 -0.5050505E-02  0.2082846E-10  0.0000000E+00  0.1023624E-07
 -0.5050505E-02  0.0000000E+00 -0.5050505E-02  0.2534050E-10  0.0000000E+00  0.1025180E-07
 -0.5050504E-02  0.0000000E+00 -0.5050505E-02  0.2973002E-10  0.0000000E+00  0.1027036E-07
 -0.5050501E-02  0.0000000E+00 -0.5050505E-02  0.3399118E-10  0.0000000E+00  0.1029183E-07
 -0.5050495E-02  0.0000000E+00 -0.5050505E-02  0.3811265E-10  0.0000000E+00  0.1031613E-07
 -0.5050482E-02  0.0000000E+00 -0.5050505E-02  0.4208032E-10  0.0000000E+00  0.1034315E-07
 -0.5050449E-02  0.0000000E+00 -0.5050505E-02  0.4587927E-10  0.0000000E+00  0.1037279E-07
 -0.5050376E-02  0.0000000E+00 -0.5050505E-02  0.4949487E-10  0.0000000E+00  0.1040493E-07
 -0.5050299E-02  0.0000000E+00 -0.5050505E-02  0.5291241E-10  0.0000000E+00  0.1043943E-07
 -0.5050178E-02  0.0000000E+00 -0.5050505E-02  0.5611806E-10  0.0000000E+00  0.1047617E-07
 -0.5050018E-02  0.0000000E+00 -0.5050505E-02  0.5909872E-10  0.0000000E+00  0.1051500E-07
 -0.5049710E-02  0.0000000E+00 -0.5050505E-02  0.6184192E-10  0.0000000E+00  0.1055575E-07
 -0.5049253E-02  0.0000000E+00 -0.5050505E-02  0.6433611E-10  0.0000000E+00  0.1059827E-07
 -0.5048636E-02  0.0000000E+00 -0.5050505E-02  0.6657073E-10  0.0000000E+00  0.1064238E-07
 -0.5047442E-02  0.0000000E+00 -0.5050505E-02  0.6853609E-10  0.0000000E+00  0.1068791E-07
 -0.5045727E-02  0.0000000E+00 -0.5050505E-02  0.7022354E-10  0.0000000E+00  0.1073467E-07
 -0.5043261E-02  0.0000000E+00 -0.5050505E-02  0.7162554E-10  0.0000000E+00  0.1078247E-07
 -0.5038714E-02  0.0000000E+00 -0.5050505E-02  0.7273558E-10  0.0000000E+00  0.1083112E-07
 -0.5032318E-02  0.0000000E+00 -0.5050505E-02  0.7354832E-10  0.0000000E+00  0.1088041E-07
 -0.5022454E-02  0.0000000E+00 -0.5050505E-02  0.7405961E-10  0.0000000E+00  0.1093015E-07
 -0.5012589E-02  0.0000000E+00 -0.5050505E-02  0.7426643E-10  0.0000000E+00  0.1098014E-07
 -0.5002725E-02  0.0000000E+00 -0.5050505E-02  0.7416708E-10  0.0000000E+00  0.1103016E-07
 -0.4992860E-02  0.0000000E+00 -0.5050505E-02  0.7376101E-10  0.0000000E+00  0.1108001E-07
 -0.4976523E-02  0.0000000E+00 -0.5050505E-02  0.7304895E-10  0.0000000E+00  0.1112948E-07
 -0.4956794E-02  0.0000000E+00 -0.5050505E-02  0.7203294E-10  0.0000000E+00  0.1117838E-07
 -0.4937066E-02  0.0000000E+00 -0.5050505E-02  0.7071623E-10  0.0000000E+00  0.1122648E-07
 -0.4906239E-02  0.0000000E+00 -0.5050505E-02  0.6910335E-10  0.0000000E+00  0.1127360E-07
 -0.4866782E-02  0.0000000E+00 -0.5050505E-02  0.6720012E-10  0.0000000E+00  0.1131954E-07
 -0.4827325E-02  0.0000000E+00 -0.5050505E-02  0.6501356E-10  0.0000000E+00  0.1136410E-07
 -0.4769372E-02  0.0000000E+00 -0.5050505E-02  0.6255188E-10  0.0000000E+00  0.1140709E-07
 -0.4690458E-02  0.0000000E+00 -0.5050505E-02  0.5982459E-10  0.0000000E+00  0.1144833E-07
 -0.4611543E-02  0.0000000E+00 -0.5050505E-02  0.5684227E-10  0.0000000E+00  0.1148765E-07
 -0.4503035E-02  0.0000000E+00 -0.5050505E-02  0.5361658E-10  0.0000000E+00  0.1152488E-07
 -0.4345206E-02  0.0000000E+00 -0.5050505E-02  0.5016022E-10  0.0000000E+00  0.1155985E-07
 -0.4187378E-02  0.0000000E+00 -0.5050505E-02  0.4648686E-10  0.0000000E+00  0.1159243E-07
 -0.3985156E-02  0.0000000E+00 -0.5050505E-02  0.4261083E-10  0.0000000E+00  0.1162246E-07
 -0.3669499E-02  0.0000000E+00 -0.5050505E-02  0.3854709E-10  0.0000000E+00  0.1164981E-07
 -0.3353842E-02  0.0000000E+00 -0.5050505E-02  0.3431070E-10  0.0000000E+00  0.1167437E-07
 -0.2978990E-02  0.0000000E+00 -0.5050505E-02  0.2991672E-10  0.0000000E+00  0.1169602E-07
 -0.2347676E-02  0.0000000E+00 -0.5050505E-02  0.2537958E-10  0.0000000E+00  0.1171466E-07
 -0.1716362E-02  0.0000000E+00 -0.5050505E-02  0.2071355E-10  0.0000000E+00  0.1173020E-07
 -0.1025842E-02  0.0000000E+00 -0.5050505E-02  0.1593422E-10  0.0000000E+00  0.1174255E-07
  0.2367855E-03  0.0000000E+00 -0.5050505E-02  0.1106345E-10  0.0000000E+00  0.1175165E-07
  0.1499413E-02  0.0000000E+00 -0.5050505E-02  0.6139149E-11  0.0000000E+00  0.1175744E-07
  0.2762042E-02  0.0000000E+00 -0.5050505E-02  0.1226370E-11  0.0000000E+00  0.1175994E-07
 -0.5050505E-02  0.0000000E+00 -0.5050505E-02 -0.3466228E-11  0.0000000E+00  0.1175921E-07
 -0.5050505E-02  0.0000000E+00 -0.5050505E-02 -0.8164832E-11  0.0000000E+00  0.1175528E-07
 -0.5050505E-02  0.0000000E+00 -0.5050505E-02 -0.1319811E-10  0.0000000E+00  0.1174807E-07
 -0.5050505E-02  0.0000000E+00 -0.5050505E-02 -0.1816219E-10  0.0000000E+00  0.1173750E-07
 -0.5050505E-02  0.0000000E+00 -0.5050505E-02 -0.2300051E-10  0.0000000E+00  0.1172363E-07
 -0.5050505E-02  0.0000000E+00 -0.5050505E-02 -0.2771439E-10  0.0000000E+00  0.1170655E-07
 -0.5050505E-02  0.0000000E+00 -0.5050505E-02 -0.3230340E-10  0.0000000E+00  0.1168633E-07
 -0.5050504E-02  0.0000000E+00 -0.5050505E-02 -0.3675895E-10  0.0000000E+00  0.1166306E-07
 -0.5050501E-02  0.0000000E+00 -0.5050505E-02 -0.4106749E-10  0.0000000E+00  0.1163684E-07
 -0.5050495E-02  0.0000000E+00 -0.5050505E-02 -0.4521333E-10  0.0000000E+00  0.1160777E-07
 -0.5050482E-02  0.0000000E+00 -0.5050505E-02 -0.4918016E-10  0.0000000E+00  0.1157596E-07
 -0.5050449E-02  0.0000000E+00 -0.5050505E-02 -0.5295197E-10  0.0000000E+00  0.1154155E-07
 -0.5050376E-02  0.0000000E+00 -0.5050505E-02 -0.5651337E-10  0.0000000E+00  0.1150466E-07
 -0.5050299E-02  0.0000000E+00 -0.5050505E-02 -0.5984982E-10  0.0000000E+00  0.1146545E-07
 -0.5050178E-02  0.0000000E+00 -0.5050505E-02 -0.6294772E-10  0.0000000E+00  0.1142407E-07
 -0.5050018E-02  0.0000000E+00 -0.5050505E-02 -0.6579447E-10  0.0000000E+00  0.1138069E-07
 -0.5049710E-02  0.0000000E+00 -0.5050505E-02 -0.6837855E-10  0.0000000E+00  0.1133548E-07
 -0.5049253E-02  0.0000000E+00 -0.5050505E-02 -0.7068954E-10  0.0000000E+00  0.1128862E-07
 -0.5048636E-02  0.0000000E+00 -0.5050505E-02 -0.7271814E-10  0.0000000E+00  0.1124030E-07
 -0.5047442E-02  0.0000000E+00 -0.5050505E-02 -0.7445619E-10  0.0000000E+00  0.1119071E-07
 -0.5045727E-02  0.0000000E+00 -0.5050505E-02 -0.7589670E-10  0.0000000E+00  0.1114004E-07
 -0.5043261E-02  0.0000000E+00 -0.5050505E-02 -0.7703385E-10  0.0000000E+00  0.1108851E-07
 -0.5038714E-02  0.0000000E+00 -0.5050505E-02 -0.7786296E-10  0.0000000E+00  0.1103632E-07
 -0.5032318E-02  0.0000000E+00 -0.5050505E-02 -0.7838046E-10  0.0000000E+00  0.1098367E-07
 -0.5022454E-02  0.0000000E+00 -0.5050505E-02 -0.7858390E-10  0.0000000E+00  0.1093078E-07
 -0.5012589E-02  0.0000000E+00 -0.5050505E-02 -0.7847181E-10  0.0000000E+00  0.1087785E-07
 -0.5002725E-02  0.0000000E+00 -0.5050505E-02 -0.7804373E-10  0.0000000E+00  0.1082511E-07
 -0.4992860E-02  0.0000000E+00 -0.5050505E-02 -0.7730004E-10  0.0000000E+00  0.1077276E-07
 -0.4976523E-02  0.0000000E+00 -0.5050505E-02 -0.7624177E-10  0.0000000E+00  0.1072102E-07
 -0.4956794E-02  0.0000000E+00 -0.5050505E-02 -0.7487048E-10  0.0000000E+00  0.1067010E-07
 -0.4937066E-02  0.0000000E+00 -0.5050505E-02 -0.7318791E-10  0.0000000E+00  0.1062020E-07
 -0.4906239E-02  0.0000000E+00 -0.5050505E-02 -0.7119559E-10  0.0000000E+00  0.1057154E-07
 -0.4866782E-02  0.0000000E+00 -0.5050505E-02 -0.6889430E-10  0.0000000E+00  0.1052432E-07
 -0.4827325E-02  0.0000000E+00 -0.5050505E-02 -0.6628312E-10  0.0000000E+00  0.1047875E-07
 -0.4769372E-02  0.0000000E+00 -0.5050505E-02 -0.6335811E-10  0.0000000E+00  0.1043504E-07
 -0.4690458E-02  0.0000000E+00 -0.5050505E-02 -0.6011029E-10  0.0000000E+00  0.1039340E-07
 -0.4611543E-02  0.0000000E+00 -0.5050505E-02 -0.5652227E-10  0.0000000E+00  0.1035404E-07
 -0.4503035E-02  0.0000000E+00 -0.5050505E-02 -0.5256261E-10  0.0000000E+00  0.1031720E-07
 -0.4345206E-02  0.0000000E+00 -0.5050505E-02 -0.4817642E-10  0.0000000E+00  0.1028312E-07
 -0.4187378E-02  0.0000000E+00 -0.5050505E-02 -0.4326858E-10  0.0000000E+00  0.1025210E-07
 -0.3985156E-02  0.0000000E+00 -0.5050505E-02 -0.3767348E-10  0.0000000E+00  0.1022450E-07
 -0.3669499E-02  0.0000000E+00 -0.5050505E-02 -0.3109823E-10  0.0000000E+00  0.1020077E-07
 -0.3353842E-02  0.0000000E+00 -0.5050505E-02 -0.2301102E-10  0.0000000E+00  0.1018152E-07
 -0.2978990E-02  0.0000000E+00 -0.5050505E-02 -0.1240676E-10  0.0000000E+00  0.1016757E-07
 -0.2347676E-02  0.0000000E+00 -0.5050505E-02  0.2786089E-11  0.0000000E+00  0.1016007E-07
 -0.1716362E-02  0.0000000E+00 -0.5050505E-02  0.2707554E-10  0.0000000E+00  0.1016000E-07
 -0.1025842E-02  0.0000000E+00 -0.5050505E-02  0.7106960E-10  0.0000000E+00  0.1016593E-07
  0.2367855E-03  0.0000000E+00 -0.5050505E-02  0.1609909E-09  0.0000000E+00  0.1016221E-07
  0.1499413E-02  0.0000000E+00 -0.5050505E-02  0.3650416E-09  0.0000000E+00  0.1006323E-07
  0.5287294E-02  0.0000000E+00 -0.5050505E-02  0.8698821E-09  0.0000000E+00  0.9455204E-08
 -0.5050505E-02  0.0000000E+00 -0.5050505E-02  0.3283802E-11  0.0000000E+00  0.1023052E-07
 -0.5050505E-02  0.0000000E+00 -0.5050505E-02  0.1088748E-10  0.0000000E+00  0.1023353E-07
 -0.5050505E-02  0.0000000E+00 -0.5050505E-02  0.1907279E-10  0.0000000E+00  0.1023973E-07
 -0.5050505E-02  0.0000000E+00 -0.5050505E-02  0.2701771E-10  0.0000000E+00  0.1024917E-07
 -0.5050505E-02  0.0000000E+00 -0.5050505E-02  0.3474373E-10  0.0000000E+00  0.1026178E-07
 -0.5050505E-02  0.0000000E+00 -0.5050505E-02  0.4226603E-10  0.0000000E+00  0.1027750E-07
 -0.5050504E-02  0.0000000E+00 -0.5050505E-02  0.4958642E-10  0.0000000E+00  0.1029625E-07
 -0.5050501E-02  0.0000000E+00 -0.5050505E-02  0.5669326E-10  0.0000000E+00  0.1031793E-07
 -0.5050495E-02  0.0000000E+00 -0.5050505E-02  0.6356712E-10  0.0000000E+00  0.1034247E-07
 -0.5050482E-02  0.0000000E+00 -0.5050505E-02  0.7018463E-10  0.0000000E+00  0.1036976E-07
 -0.5050449E-02  0.0000000E+00 -0.5050505E-02  0.7652083E-10  0.0000000E+00  0.1039970E-07
 -0.5050376E-02  0.0000000E+00 -0.5050505E-02  0.8255126E-10  0.0000000E+00  0.1043215E-07
 -0.5050299E-02  0.0000000E+00 -0.5050505E-02  0.8825152E-10  0.0000000E+00  0.1046701E-07
 -0.5050178E-02  0.0000000E+00 -0.5050505E-02  0.9359850E-10  0.0000000E+00  0.1050411E-07
 -0.5050018E-02  0.0000000E+00 -0.5050505E-02  0.9857031E-10  0.0000000E+00  0.1054332E-07
 -0.5049710E-02  0.0000000E+00 -0.5050505E-02  0.1031461E-09  0.0000000E+00  0.1058449E-07
 -0.5049253E-02  0.0000000E+00 -0.5050505E-02  0.1073068E-09  0.0000000E+00  0.1062743E-07
 -0.5048636E-02  0.0000000E+00 -0.5050505E-02  0.1110345E-09  0.0000000E+00  0.1067198E-07
 -0.5047442E-02  0.0000000E+00 -0.5050505E-02  0.1143133E-09  0.0000000E+00  0.1071797E-07
 -0.5045727E-02  0.0000000E+00 -0.5050505E-02  0.1171286E-09  0.0000000E+00  0.1076520E-07
 -0.5043261E-02  0.0000000E+00 -0.5050505E-02  0.1194678E-09  0.0000000E+00  0.1081348E-07
 -0.5038714E-02  0.0000000E+00 -0.5050505E-02  0.1213202E-09  0.0000000E+00  0.1086262E-07
 -0.5032318E-02  0.0000000E+00 -0.5050505E-02  0.1226767E-09  0.0000000E+00  0.1091242E-07
 -0.5022454E-02  0.0000000E+00 -0.5050505E-02  0.1235304E-09  0.0000000E+00  0.1096266E-07
 -0.5012589E-02  0.0000000E+00 -0.5050505E-02  0.1238763E-09  0.0000000E+00  0.1101316E-07
 -0.5002725E-02  0.0000000E+00 -0.5050505E-02  0.1237115E-09  0.0000000E+00  0.1106369E-07
 -0.4992860E-02  0.0000000E+00 -0.5050505E-02  0.1230352E-09  0.0000000E+00  0.1111405E-07
 -0.4976523E-02  0.0000000E+00 -0.5050505E-02  0.1218484E-09  0.0000000E+00  0.1116403E-07
 -0.4956794E-02  0.0000000E+00 -0.5050505E-02  0.1201547E-09  0.0000000E+00  0.1121342E-07
 -0.4937066E-02  0.0000000E+00 -0.5050505E-02  0.1179594E-09  0.0000000E+00  0.1126202E-07
 -0.4906239E-02  0.0000000E+00 -0.5050505E-02  0.1152700E-09  0.0000000E+00  0.1130963E-07
 -0.4866782E-02  0.0000000E+00 -0.5050505E-02  0.1120962E-09  0.0000000E+00  0.1135604E-07
 -0.4827325E-02  0.0000000E+00 -0.5050505E-02  0.1084498E-09  0.0000000E+00  0.1140106E-07
 -0.4769372E-02  0.0000000E+00 -0.5050505E-02  0.1043445E-09  0.0000000E+00  0.1144450E-07
 -0.4690458E-02  0.0000000E+00 -0.5050505E-02  0.9979607E-10  0.0000000E+00  0.1148617E-07
 -0.4611543E-02  0.0000000E+00 -0.5050505E-02  0.9482215E-10  0.0000000E+00  0.1152590E-07
 -0.4503035E-02  0.0000000E+00 -0.5050505E-02  0.8944226E-10  0.0000000E+00  0.1156352E-07
 -0.4345206E-02  0.0000000E+00 -0.5050505E-02  0.8367760E-10  0.0000000E+00  0.1159887E-07
 -0.4187378E-02  0.0000000E+00 -0.5050505E-02  0.7755094E-10  0.0000000E+00  0.1163178E-07
 -0.3985156E-02  0.0000000E+00 -0.5050505E-02  0.7108634E-10  0.0000000E+00  0.1166213E-07
 -0.3669499E-02  0.0000000E+00 -0.5050505E-02  0.6430870E-10  0.0000000E+00  0.1168978E-07
 -0.3353842E-02  0.0000000E+00 -0.5050505E-02  0.5724330E-10  0.0000000E+00  0.1171460E-07
 -0.2978990E-02  0.0000000E+00 -0.5050505E-02  0.4991503E-10  0.0000000E+00  0.1173649E-07
 -0.2347676E-02  0.0000000E+00 -0.5050505E-02  0.4234756E-10  0.0000000E+00  0.1175533E-07
 -0.1716362E-02  0.0000000E+00 -0.5050505E-02  0.3456339E-10  0.0000000E+00  0.1177105E-07
 -0.1025842E-02  0.0000000E+00 -0.5050505E-02  0.2658650E-10  0.0000000E+00  0.1178354E-07
  0.2367855E-03  0.0000000E+00 -0.5050505E-02  0.1845247E-10  0.0000000E+00  0.1179274E-07
  0.1499413E-02  0.0000000E+00 -0.5050505E-02  0.1023501E-10  0.0000000E+00  0.1179860E-07
  0.2762042E-02  0.0000000E+00 -0.5050505E-02  0.2099048E-11  0.0000000E+00  0.1180113E-07
 -0.5050505E-02  0.0000000E+00 -0.5050505E-02 -0.5760304E-11  0.0000000E+00  0.1180042E-07
 -0.5050505E-02  0.0000000E+00 -0.5050505E-02 -0.1365123E-10  0.0000000E+00  0.1179646E-07
 -0.5050505E-02  0.0000000E+00 -0.5050505E-02 -0.2201703E-10  0.0000000E+00  0.1178917E-07
 -0.5050505E-02  0.0000000E+00 -0.5050505E-02 -0.3028250E-10  0.0000000E+00  0.1177850E-07
 -0.5050505E-02  0.0000000E+00 -0.5050505E-02 -0.3835040E-10  0.0000000E+00  0.1176451E-07
 -0.5050505E-02  0.0000000E+00 -0.5050505E-02 -0.4621465E-10  0.0000000E+00  0.1174726E-07
 -0.5050505E-02  0.0000000E+00 -0.5050505E-02 -0.5387088E-10  0.0000000E+00  0.1172685E-07
 -0.5050504E-02  0.0000000E+00 -0.5050505E-02 -0.6130395E-10  0.0000000E+00  0.1170336E-07
 -0.5050501E-02  0.0000000E+00 -0.5050505E-02 -0.6849131E-10  0.0000000E+00  0.1167688E-07
 -0.5050495E-02  0.0000000E+00 -0.5050505E-02 -0.7540692E-10  0.0000000E+00  0.1164752E-07
 -0.5050482E-02  0.0000000E+00 -0.5050505E-02 -0.8202373E-10  0.0000000E+00  0.1161540E-07
 -0.5050449E-02  0.0000000E+00 -0.5050505E-02 -0.8831509E-10  0.0000000E+00  0.1158065E-07
 -0.5050376E-02  0.0000000E+00 -0.5050505E-02 -0.9425544E-10  0.0000000E+00  0.1154340E-07
 -0.5050299E-02  0.0000000E+00 -0.5050505E-02 -0.9982048E-10  0.0000000E+00  0.1150380E-07
 -0.5050178E-02  0.0000000E+00 -0.5050505E-02 -0.1049876E-09  0.0000000E+00  0.1146201E-07
 -0.5050018E-02  0.0000000E+00 -0.5050505E-02 -0.1097358E-09  0.0000000E+00  0.1141820E-07
 -0.5049710E-02  0.0000000E+00 -0.5050505E-02 -0.1140458E-09  0.0000000E+00  0.1137254E-07
 -0.5049253E-02  0.0000000E+00 -0.5050505E-02 -0.1179003E-09  0.0000000E+00  0.1132521E-07
 -0.5048636E-02  0.0000000E+00 -0.5050505E-02 -0.1212837E-09  0.0000000E+00  0.1127641E-07
 -0.5047442E-02  0.0000000E+00 -0.5050505E-02 -0.1241826E-09  0.0000000E+00  0.1122632E-07
 -0.5045727E-02  0.0000000E+00 -0.5050505E-02 -0.1265853E-09  0.0000000E+00  0.1117516E-07
 -0.5043261E-02  0.0000000E+00 -0.5050505E-02 -0.1284821E-09  0.0000000E+00  0.1112311E-07
 -0.5038714E-02  0.0000000E+00 -0.5050505E-02 -0.1298652E-09  0.0000000E+00  0.1107040E-07
 -0.5032318E-02  0.0000000E+00 -0.5050505E-02 -0.1307288E-09  0.0000000E+00  0.1101722E-07
 -0.5022454E-02  0.0000000E+00 -0.5050505E-02 -0.1310688E-09  0.0000000E+00  0.1096381E-07
 -0.5012589E-02  0.0000000E+00 -0.5050505E-02 -0.1308829E-09  0.0000000E+00  0.1091035E-07
 -0.5002725E-02  0.0000000E+00 -0.5050505E-02 -0.1301705E-09  0.0000000E+00  0.1085708E-07
 -0.4992860E-02  0.0000000E+00 -0.5050505E-02 -0.1289322E-09  0.0000000E+00  0.1080421E-07
 -0.4976523E-02  0.0000000E+00 -0.5050505E-02 -0.1271701E-09  0.0000000E+00  0.1075195E-07
 -0.4956794E-02  0.0000000E+00 -0.5050505E-02 -0.1248871E-09  0.0000000E+00  0.1070050E-07
 -0.4937066E-02  0.0000000E+00 -0.5050505E-02 -0.1220865E-09  0.0000000E+00  0.1065009E-07
 -0.4906239E-02  0.0000000E+00 -0.5050505E-02 -0.1187716E-09  0.0000000E+00  0.1060092E-07
 -0.4866782E-02  0.0000000E+00 -0.5050505E-02 -0.1149445E-09  0.0000000E+00  0.1055319E-07
 -0.4827325E-02  0.0000000E+00 -0.5050505E-02 -0.1106051E-09  0.0000000E+00  0.1050711E-07
 -0.4769372E-02  0.0000000E+00 -0.5050505E-02 -0.1057494E-09  0.0000000E+00  0.1046289E-07
 -0.4690458E-02  0.0000000E+00 -0.5050505E-02 -0.1003659E-09  0.0000000E+00  0.1042073E-07
 -0.4611543E-02  0.0000000E+00 -0.5050505E-02 -0.9443186E-10  0.0000000E+00  0.1038082E-07
 -0.4503035E-02  0.0000000E+00 -0.5050505E-02 -0.8790546E-10  0.0000000E+00  0.1034338E-07
 -0.4345206E-02  0.0000000E+00 -0.5050505E-02 -0.8071392E-10  0.0000000E+00  0.1030862E-07
 -0.4187378E-02  0.0000000E+00 -0.5050505E-02 -0.7273309E-10  0.0000000E+00  0.1027677E-07
 -0.3985156E-02  0.0000000E+00 -0.5050505E-02 -0.6375290E-10  0.0000000E+00  0.1024806E-07
 -0.3669499E-02  0.0000000E+00 -0.5050505E-02 -0.5341921E-10  0.0000000E+00  0.1022273E-07
 -0.3353842E-02  0.0000000E+00 -0.5050505E-02 -0.4113731E-10  0.0000000E+00  0.1020100E-07
 -0.2978990E-02  0.0000000E+00 -0.5050505E-02 -0.2592160E-10  0.0000000E+00  0.1018293E-07
 -0.2347676E-02  0.0000000E+00 -0.5050505E-02 -0.5946593E-11  0.0000000E+00  0.1016800E-07
 -0.1716362E-02  0.0000000E+00 -0.5050505E-02  0.2183188E-10  0.0000000E+00  0.1015418E-07
 -0.1025842E-02  0.0000000E+00 -0.5050505E-02  0.6296879E-10  0.0000000E+00  0.1013539E-07
  0.2367855E-03  0.0000000E+00 -0.5050505E-02  0.1238825E-09  0.0000000E+00  0.1009496E-07
  0.1499413E-02  0.0000000E+00 -0.5050505E-02  0.2023592E-09  0.0000000E+00  0.9995987E-08
  0.5287294E-02  0.0000000E+00 -0.5050505E-02  0.2275884E-09  0.0000000E+00  0.9801463E-08
 -0.5050505E-02  0.0000000E+00 -0.5050505E-02  0.4740866E-11  0.0000000E+00  0.1026848E-07
 -0.5050505E-02  0.0000000E+00 -0.5050505E-02  0.1541274E-10  0.0000000E+00  0.1027156E-07
 -0.5050505E-02  0.0000000E+00 -0.5050505E-02  0.2682562E-10  0.0000000E+00  0.1027788E-07
 -0.5050505E-02  0.0000000E+00 -0.5050505E-02  0.3793641E-10  0.0000000E+00  0.1028748E-07
 -0.5050505E-02  0.0000000E+00 -0.5050505E-02  0.4876243E-10  0.0000000E+00  0.1030029E-07
 -0.5050505E-02  0.0000000E+00 -0.5050505E-02  0.5931213E-10  0.0000000E+00  0.1031625E-07
 -0.5050504E-02  0.0000000E+00 -0.5050505E-02  0.6958195E-10  0.0000000E+00  0.1033527E-07
 -0.5050501E-02  0.0000000E+00 -0.5050505E-02  0.7955333E-10  0.0000000E+00  0.1035728E-07
 -0.5050495E-02  0.0000000E+00 -0.5050505E-02  0.8919822E-10  0.0000000E+00  0.1038218E-07
 -0.5050482E-02  0.0000000E+00 -0.5050505E-02  0.9848367E-10  0.0000000E+00  0.1040988E-07
 -0.5050449E-02  0.0000000E+00 -0.5050505E-02  0.1073747E-09  0.0000000E+00  0.1044026E-07
 -0.5050376E-02  0.0000000E+00 -0.5050505E-02  0.1158369E-09  0.0000000E+00  0.1047320E-07
 -0.5050299E-02  0.0000000E+00 -0.5050505E-02  0.1238361E-09  0.0000000E+00  0.1050857E-07
 -0.5050178E-02  0.0000000E+00 -0.5050505E-02  0.1313397E-09  0.0000000E+00  0.1054622E-07
 -0.5050018E-02  0.0000000E+00 -0.5050505E-02  0.1383172E-09  0.0000000E+00  0.1058602E-07
 -0.5049710E-02  0.0000000E+00 -0.5050505E-02  0.1447392E-09  0.0000000E+00  0.1062779E-07
 -0.5049253E-02  0.0000000E+00 -0.5050505E-02  0.1505788E-09  0.0000000E+00  0.1067138E-07
 -0.5048636E-02  0.0000000E+00 -0.5050505E-02  0.1558111E-09  0.0000000E+00  0.1071660E-07
 -0.5047442E-02  0.0000000E+00 -0.5050505E-02  0.1604135E-09  0.0000000E+00  0.1076327E-07
 -0.5045727E-02  0.0000000E+00 -0.5050505E-02  0.1643657E-09  0.0000000E+00  0.1081121E-07
 -0.5043261E-02  0.0000000E+00 -0.5050505E-02  0.1676500E-09  0.0000000E+00  0.1086021E-07
 -0.5038714E-02  0.0000000E+00 -0.5050505E-02  0.1702512E-09  0.0000000E+00  0.1091009E-07
 -0.5032318E-02  0.0000000E+00 -0.5050505E-02  0.1721567E-09  0.0000000E+00  0.1096064E-07
 -0.5022454E-02  0.0000000E+00 -0.5050505E-02  0.1733566E-09  0.0000000E+00  0.1101164E-07
 -0.5012589E-02  0.0000000E+00 -0.5050505E-02  0.1738440E-09  0.0000000E+00  0.1106290E-07
 -0.5002725E-02  0.0000000E+00 -0.5050505E-02  0.1736148E-09  0.0000000E+00  0.1111420E-07
 -0.4992860E-02  0.0000000E+00 -0.5050505E-02  0.1726677E-09  0.0000000E+00  0.1116532E-07
 -0.4976523E-02  0.0000000E+00 -0.5050505E-02  0.1710043E-09  0.0000000E+00  0.1121607E-07
 -0.4956794E-02  0.0000000E+00 -0.5050505E-02  0.1686294E-09  0.0000000E+00  0.1126622E-07
 -0.4937066E-02  0.0000000E+00 -0.5050505E-02  0.1655505E-09  0.0000000E+00  0.1131556E-07