title = "dataset feddes"
variables = "x", "y", "z", "vx", "vy", "vz"
zone t = "velocities, solution time =  1.700E+01 days        " i =   99, j =   99, k =    1,  f=point
 -0.5050505E-02  0.0000000E+00 -0.5050505E-02  0.1388598E-13  0.0000000E+00  0.3775726E-09
 -0.5050505E-02  0.0000000E+00 -0.5050505E-02  0.1946737E-12  0.0000000E+00  0.3777824E-09
 -0.5050505E-02  0.0000000E+00 -0.5050505E-02  0.4084219E-12  0.0000000E+00  0.3783889E-09
 -0.5050505E-02  0.0000000E+00 -0.5050505E-02  0.6012886E-12  0.0000000E+00  0.3794043E-09
 -0.5050505E-02  0.0000000E+00 -0.5050505E-02  0.7839133E-12  0.0000000E+00  0.3807974E-09
 -0.5050505E-02  0.0000000E+00 -0.5050505E-02  0.9593100E-12  0.0000000E+00  0.3825504E-09
 -0.5050504E-02  0.0000000E+00 -0.5050505E-02  0.1128926E-11  0.0000000E+00  0.3846505E-09
 -0.5050501E-02  0.0000000E+00 -0.5050505E-02  0.1293391E-11  0.0000000E+00  0.3870865E-09
 -0.5050495E-02  0.0000000E+00 -0.5050505E-02  0.1452135E-11  0.0000000E+00  0.3898476E-09
 -0.5050482E-02  0.0000000E+00 -0.5050505E-02  0.1604896E-11  0.0000000E+00  0.3929219E-09
 -0.5050449E-02  0.0000000E+00 -0.5050505E-02  0.1751268E-11  0.0000000E+00  0.3962971E-09
 -0.5050376E-02  0.0000000E+00 -0.5050505E-02  0.1890608E-11  0.0000000E+00  0.3999596E-09
 -0.5050299E-02  0.0000000E+00 -0.5050505E-02  0.2022353E-11  0.0000000E+00  0.4038947E-09
 -0.5050178E-02  0.0000000E+00 -0.5050505E-02  0.2146097E-11  0.0000000E+00  0.4080868E-09
 -0.5050018E-02  0.0000000E+00 -0.5050505E-02  0.2261263E-11  0.0000000E+00  0.4125191E-09
 -0.5049710E-02  0.0000000E+00 -0.5050505E-02  0.2367358E-11  0.0000000E+00  0.4171739E-09
 -0.5049253E-02  0.0000000E+00 -0.5050505E-02  0.2463975E-11  0.0000000E+00  0.4220326E-09
 -0.5048636E-02  0.0000000E+00 -0.5050505E-02  0.2550695E-11  0.0000000E+00  0.4270756E-09
 -0.5047442E-02  0.0000000E+00 -0.5050505E-02  0.2627128E-11  0.0000000E+00  0.4322828E-09
 -0.5045727E-02  0.0000000E+00 -0.5050505E-02  0.2692921E-11  0.0000000E+00  0.4376329E-09
 -0.5043261E-02  0.0000000E+00 -0.5050505E-02  0.2747805E-11  0.0000000E+00  0.4431045E-09
 -0.5038714E-02  0.0000000E+00 -0.5050505E-02  0.2791458E-11  0.0000000E+00  0.4486751E-09
 -0.5032318E-02  0.0000000E+00 -0.5050505E-02  0.2823691E-11  0.0000000E+00  0.4543220E-09
 -0.5022454E-02  0.0000000E+00 -0.5050505E-02  0.2844370E-11  0.0000000E+00  0.4600222E-09
 -0.5012589E-02  0.0000000E+00 -0.5050505E-02  0.2853315E-11  0.0000000E+00  0.4657521E-09
 -0.5002725E-02  0.0000000E+00 -0.5050505E-02  0.2850473E-11  0.0000000E+00  0.4714882E-09
 -0.4992860E-02  0.0000000E+00 -0.5050505E-02  0.2835785E-11  0.0000000E+00  0.4772066E-09
 -0.4976523E-02  0.0000000E+00 -0.5050505E-02  0.2809325E-11  0.0000000E+00  0.4828837E-09
 -0.4956794E-02  0.0000000E+00 -0.5050505E-02  0.2771086E-11  0.0000000E+00  0.4884957E-09
 -0.4937066E-02  0.0000000E+00 -0.5050505E-02  0.2721255E-11  0.0000000E+00  0.4940191E-09
 -0.4906239E-02  0.0000000E+00 -0.5050505E-02  0.2659916E-11  0.0000000E+00  0.4994308E-09
 -0.4866782E-02  0.0000000E+00 -0.5050505E-02  0.2587367E-11  0.0000000E+00  0.5047078E-09
 -0.4827325E-02  0.0000000E+00 -0.5050505E-02  0.2503766E-11  0.0000000E+00  0.5098277E-09
 -0.4769372E-02  0.0000000E+00 -0.5050505E-02  0.2409496E-11  0.0000000E+00  0.5147688E-09
 -0.4690458E-02  0.0000000E+00 -0.5050505E-02  0.2304863E-11  0.0000000E+00  0.5195098E-09
 -0.4611543E-02  0.0000000E+00 -0.5050505E-02  0.2190349E-11  0.0000000E+00  0.5240305E-09
 -0.4503035E-02  0.0000000E+00 -0.5050505E-02  0.2066282E-11  0.0000000E+00  0.5283112E-09
 -0.4345206E-02  0.0000000E+00 -0.5050505E-02  0.1933226E-11  0.0000000E+00  0.5323334E-09
 -0.4187378E-02  0.0000000E+00 -0.5050505E-02  0.1791659E-11  0.0000000E+00  0.5360793E-09
 -0.3985156E-02  0.0000000E+00 -0.5050505E-02  0.1642152E-11  0.0000000E+00  0.5395326E-09
 -0.3669499E-02  0.0000000E+00 -0.5050505E-02  0.1485223E-11  0.0000000E+00  0.5426777E-09
 -0.3353842E-02  0.0000000E+00 -0.5050505E-02  0.1321418E-11  0.0000000E+00  0.5455002E-09
 -0.2978990E-02  0.0000000E+00 -0.5050505E-02  0.1151262E-11  0.0000000E+00  0.5479869E-09
 -0.2347676E-02  0.0000000E+00 -0.5050505E-02  0.9751829E-12  0.0000000E+00  0.5501254E-09
 -0.1716362E-02  0.0000000E+00 -0.5050505E-02  0.7936529E-12  0.0000000E+00  0.5519042E-09
 -0.1025842E-02  0.0000000E+00 -0.5050505E-02  0.6071894E-12  0.0000000E+00  0.5533130E-09
  0.2367855E-03  0.0000000E+00 -0.5050505E-02  0.4167744E-12  0.0000000E+00  0.5543427E-09
  0.1499413E-02  0.0000000E+00 -0.5050505E-02  0.2240427E-12  0.0000000E+00  0.5549872E-09
  0.2762042E-02  0.0000000E+00 -0.5050505E-02  0.3116099E-13  0.0000000E+00  0.5552438E-09
 -0.5050505E-02  0.0000000E+00 -0.5050505E-02 -0.1303873E-12  0.0000000E+00  0.5551440E-09
 -0.5050505E-02  0.0000000E+00 -0.5050505E-02 -0.3016153E-12  0.0000000E+00  0.5547096E-09
 -0.5050505E-02  0.0000000E+00 -0.5050505E-02 -0.5030145E-12  0.0000000E+00  0.5539004E-09
 -0.5050505E-02  0.0000000E+00 -0.5050505E-02 -0.7000875E-12  0.0000000E+00  0.5526905E-09
 -0.5050505E-02  0.0000000E+00 -0.5050505E-02 -0.8895052E-12  0.0000000E+00  0.5510919E-09
 -0.5050505E-02  0.0000000E+00 -0.5050505E-02 -0.1072460E-11  0.0000000E+00  0.5491188E-09
 -0.5050505E-02  0.0000000E+00 -0.5050505E-02 -0.1249798E-11  0.0000000E+00  0.5467834E-09
 -0.5050504E-02  0.0000000E+00 -0.5050505E-02 -0.1421566E-11  0.0000000E+00  0.5440969E-09
 -0.5050501E-02  0.0000000E+00 -0.5050505E-02 -0.1587433E-11  0.0000000E+00  0.5410709E-09
 -0.5050495E-02  0.0000000E+00 -0.5050505E-02 -0.1746867E-11  0.0000000E+00  0.5377177E-09
 -0.5050482E-02  0.0000000E+00 -0.5050505E-02 -0.1899291E-11  0.0000000E+00  0.5340509E-09
 -0.5050449E-02  0.0000000E+00 -0.5050505E-02 -0.2044044E-11  0.0000000E+00  0.5300853E-09
 -0.5050376E-02  0.0000000E+00 -0.5050505E-02 -0.2180549E-11  0.0000000E+00  0.5258368E-09
 -0.5050299E-02  0.0000000E+00 -0.5050505E-02 -0.2308342E-11  0.0000000E+00  0.5213225E-09
 -0.5050178E-02  0.0000000E+00 -0.5050505E-02 -0.2426786E-11  0.0000000E+00  0.5165605E-09
 -0.5050018E-02  0.0000000E+00 -0.5050505E-02 -0.2535512E-11  0.0000000E+00  0.5115701E-09
 -0.5049710E-02  0.0000000E+00 -0.5050505E-02 -0.2634033E-11  0.0000000E+00  0.5063713E-09
 -0.5049253E-02  0.0000000E+00 -0.5050505E-02 -0.2721998E-11  0.0000000E+00  0.5009850E-09
 -0.5048636E-02  0.0000000E+00 -0.5050505E-02 -0.2799053E-11  0.0000000E+00  0.4954327E-09
 -0.5047442E-02  0.0000000E+00 -0.5050505E-02 -0.2864914E-11  0.0000000E+00  0.4897366E-09
 -0.5045727E-02  0.0000000E+00 -0.5050505E-02 -0.2919348E-11  0.0000000E+00  0.4839196E-09
 -0.5043261E-02  0.0000000E+00 -0.5050505E-02 -0.2962161E-11  0.0000000E+00  0.4780048E-09
 -0.5038714E-02  0.0000000E+00 -0.5050505E-02 -0.2993217E-11  0.0000000E+00  0.4720157E-09
 -0.5032318E-02  0.0000000E+00 -0.5050505E-02 -0.3012396E-11  0.0000000E+00  0.4659761E-09
 -0.5022454E-02  0.0000000E+00 -0.5050505E-02 -0.3019669E-11  0.0000000E+00  0.4599099E-09
 -0.5012589E-02  0.0000000E+00 -0.5050505E-02 -0.3015005E-11  0.0000000E+00  0.4538411E-09
 -0.5002725E-02  0.0000000E+00 -0.5050505E-02 -0.2998495E-11  0.0000000E+00  0.4477935E-09
 -0.4992860E-02  0.0000000E+00 -0.5050505E-02 -0.2970183E-11  0.0000000E+00  0.4417911E-09
 -0.4976523E-02  0.0000000E+00 -0.5050505E-02 -0.2930182E-11  0.0000000E+00  0.4358573E-09
 -0.4956794E-02  0.0000000E+00 -0.5050505E-02 -0.2878732E-11  0.0000000E+00  0.4300155E-09
 -0.4937066E-02  0.0000000E+00 -0.5050505E-02 -0.2815953E-11  0.0000000E+00  0.4242886E-09
 -0.4906239E-02  0.0000000E+00 -0.5050505E-02 -0.2742114E-11  0.0000000E+00  0.4186990E-09
 -0.4866782E-02  0.0000000E+00 -0.5050505E-02 -0.2657456E-11  0.0000000E+00  0.4132689E-09
 -0.4827325E-02  0.0000000E+00 -0.5050505E-02 -0.2562159E-11  0.0000000E+00  0.4080197E-09
 -0.4769372E-02  0.0000000E+00 -0.5050505E-02 -0.2456529E-11  0.0000000E+00  0.4029726E-09
 -0.4690458E-02  0.0000000E+00 -0.5050505E-02 -0.2340695E-11  0.0000000E+00  0.3981483E-09
 -0.4611543E-02  0.0000000E+00 -0.5050505E-02 -0.2214784E-11  0.0000000E+00  0.3935670E-09
 -0.4503035E-02  0.0000000E+00 -0.5050505E-02 -0.2078714E-11  0.0000000E+00  0.3892492E-09
 -0.4345206E-02  0.0000000E+00 -0.5050505E-02 -0.1932086E-11  0.0000000E+00  0.3852157E-09
 -0.4187378E-02  0.0000000E+00 -0.5050505E-02 -0.1774062E-11  0.0000000E+00  0.3814886E-09
 -0.3985156E-02  0.0000000E+00 -0.5050505E-02 -0.1602714E-11  0.0000000E+00  0.3780927E-09
 -0.3669499E-02  0.0000000E+00 -0.5050505E-02 -0.1414278E-11  0.0000000E+00  0.3750586E-09
 -0.3353842E-02  0.0000000E+00 -0.5050505E-02 -0.1201198E-11  0.0000000E+00  0.3724283E-09
 -0.2978990E-02  0.0000000E+00 -0.5050505E-02 -0.9477259E-12  0.0000000E+00  0.3702672E-09
 -0.2347676E-02  0.0000000E+00 -0.5050505E-02 -0.6188860E-12  0.0000000E+00  0.3686917E-09
 -0.1716362E-02  0.0000000E+00 -0.5050505E-02 -0.1290002E-12  0.0000000E+00  0.3679396E-09
 -0.1025842E-02  0.0000000E+00 -0.5050505E-02  0.7334304E-12  0.0000000E+00  0.3685475E-09
  0.2367855E-03  0.0000000E+00 -0.5050505E-02  0.2669153E-11  0.0000000E+00  0.3719693E-09
  0.1499413E-02  0.0000000E+00 -0.5050505E-02  0.7922186E-11  0.0000000E+00  0.3826206E-09
  0.5287294E-02  0.0000000E+00 -0.5050505E-02  0.1346509E-09  0.0000000E+00  0.3054673E-09
 -0.5050505E-02  0.0000000E+00 -0.5050505E-02  0.7683449E-13  0.0000000E+00  0.3789935E-09
 -0.5050505E-02  0.0000000E+00 -0.5050505E-02  0.6043124E-12  0.0000000E+00  0.3792602E-09
 -0.5050505E-02  0.0000000E+00 -0.5050505E-02  0.1233612E-11  0.0000000E+00  0.3798989E-09
 -0.5050505E-02  0.0000000E+00 -0.5050505E-02  0.1807323E-11  0.0000000E+00  0.3809319E-09
 -0.5050505E-02  0.0000000E+00 -0.5050505E-02  0.2353562E-11  0.0000000E+00  0.3823380E-09
 -0.5050505E-02  0.0000000E+00 -0.5050505E-02  0.2879497E-11  0.0000000E+00  0.3841044E-09
 -0.5050504E-02  0.0000000E+00 -0.5050505E-02  0.3388429E-11  0.0000000E+00  0.3862195E-09
 -0.5050501E-02  0.0000000E+00 -0.5050505E-02  0.3881758E-11  0.0000000E+00  0.3886724E-09
 -0.5050495E-02  0.0000000E+00 -0.5050505E-02  0.4358204E-11  0.0000000E+00  0.3914524E-09
 -0.5050482E-02  0.0000000E+00 -0.5050505E-02  0.4816678E-11  0.0000000E+00  0.3945477E-09
 -0.5050449E-02  0.0000000E+00 -0.5050505E-02  0.5255896E-11  0.0000000E+00  0.3979459E-09
 -0.5050376E-02  0.0000000E+00 -0.5050505E-02  0.5674035E-11  0.0000000E+00  0.4016333E-09
 -0.5050299E-02  0.0000000E+00 -0.5050505E-02  0.6069495E-11  0.0000000E+00  0.4055952E-09
 -0.5050178E-02  0.0000000E+00 -0.5050505E-02  0.6440850E-11  0.0000000E+00  0.4098157E-09
 -0.5050018E-02  0.0000000E+00 -0.5050505E-02  0.6786473E-11  0.0000000E+00  0.4142782E-09
 -0.5049710E-02  0.0000000E+00 -0.5050505E-02  0.7104905E-11  0.0000000E+00  0.4189646E-09
 -0.5049253E-02  0.0000000E+00 -0.5050505E-02  0.7394931E-11  0.0000000E+00  0.4238564E-09
 -0.5048636E-02  0.0000000E+00 -0.5050505E-02  0.7655205E-11  0.0000000E+00  0.4289339E-09
 -0.5047442E-02  0.0000000E+00 -0.5050505E-02  0.7884606E-11  0.0000000E+00  0.4341767E-09
 -0.5045727E-02  0.0000000E+00 -0.5050505E-02  0.8082149E-11  0.0000000E+00  0.4395635E-09
 -0.5043261E-02  0.0000000E+00 -0.5050505E-02  0.8246848E-11  0.0000000E+00  0.4450726E-09
 -0.5038714E-02  0.0000000E+00 -0.5050505E-02  0.8377904E-11  0.0000000E+00  0.4506814E-09
 -0.5032318E-02  0.0000000E+00 -0.5050505E-02  0.8474748E-11  0.0000000E+00  0.4563673E-09
 -0.5022454E-02  0.0000000E+00 -0.5050505E-02  0.8536821E-11  0.0000000E+00  0.4621068E-09
 -0.5012589E-02  0.0000000E+00 -0.5050505E-02  0.8563705E-11  0.0000000E+00  0.4678764E-09
 -0.5002725E-02  0.0000000E+00 -0.5050505E-02  0.8555219E-11  0.0000000E+00  0.4736523E-09
 -0.4992860E-02  0.0000000E+00 -0.5050505E-02  0.8511230E-11  0.0000000E+00  0.4794105E-09
 -0.4976523E-02  0.0000000E+00 -0.5050505E-02  0.8431812E-11  0.0000000E+00  0.4851271E-09
 -0.4956794E-02  0.0000000E+00 -0.5050505E-02  0.8317145E-11  0.0000000E+00  0.4907784E-09
 -0.4937066E-02  0.0000000E+00 -0.5050505E-02  0.8167609E-11  0.0000000E+00  0.4963406E-09
 -0.4906239E-02  0.0000000E+00 -0.5050505E-02  0.7983586E-11  0.0000000E+00  0.5017903E-09
 -0.4866782E-02  0.0000000E+00 -0.5050505E-02  0.7765830E-11  0.0000000E+00  0.5071045E-09
 -0.4827325E-02  0.0000000E+00 -0.5050505E-02  0.7515005E-11  0.0000000E+00  0.5122606E-09
 -0.4769372E-02  0.0000000E+00 -0.5050505E-02  0.7232083E-11  0.0000000E+00  0.5172368E-09
 -0.4690458E-02  0.0000000E+00 -0.5050505E-02  0.6918147E-11  0.0000000E+00  0.5220116E-09
 -0.4611543E-02  0.0000000E+00 -0.5050505E-02  0.6574399E-11  0.0000000E+00  0.5265645E-09
 -0.4503035E-02  0.0000000E+00 -0.5050505E-02  0.6202088E-11  0.0000000E+00  0.5308759E-09
 -0.4345206E-02  0.0000000E+00 -0.5050505E-02  0.5802780E-11  0.0000000E+00  0.5349270E-09
 -0.4187378E-02  0.0000000E+00 -0.5050505E-02  0.5377957E-11  0.0000000E+00  0.5387001E-09
 -0.3985156E-02  0.0000000E+00 -0.5050505E-02  0.4929253E-11  0.0000000E+00  0.5421785E-09
 -0.3669499E-02  0.0000000E+00 -0.5050505E-02  0.4458319E-11  0.0000000E+00  0.5453467E-09
 -0.3353842E-02  0.0000000E+00 -0.5050505E-02  0.3966783E-11  0.0000000E+00  0.5481903E-09
 -0.2978990E-02  0.0000000E+00 -0.5050505E-02  0.3456140E-11  0.0000000E+00  0.5506958E-09
 -0.2347676E-02  0.0000000E+00 -0.5050505E-02  0.2927653E-11  0.0000000E+00  0.5528508E-09
 -0.1716362E-02  0.0000000E+00 -0.5050505E-02  0.2382590E-11  0.0000000E+00  0.5546434E-09
 -0.1025842E-02  0.0000000E+00 -0.5050505E-02  0.1822387E-11  0.0000000E+00  0.5560625E-09
  0.2367855E-03  0.0000000E+00 -0.5050505E-02  0.1249890E-11  0.0000000E+00  0.5570984E-09
  0.1499413E-02  0.0000000E+00 -0.5050505E-02  0.6716160E-12  0.0000000E+00  0.5577455E-09
  0.2762042E-02  0.0000000E+00 -0.5050505E-02  0.1002381E-12  0.0000000E+00  0.5580099E-09
 -0.5050505E-02  0.0000000E+00 -0.5050505E-02 -0.3897637E-12  0.0000000E+00  0.5579177E-09
 -0.5050505E-02  0.0000000E+00 -0.5050505E-02 -0.9103809E-12  0.0000000E+00  0.5574767E-09
 -0.5050505E-02  0.0000000E+00 -0.5050505E-02 -0.1510675E-11  0.0000000E+00  0.5566558E-09
 -0.5050505E-02  0.0000000E+00 -0.5050505E-02 -0.2100388E-11  0.0000000E+00  0.5554373E-09
 -0.5050505E-02  0.0000000E+00 -0.5050505E-02 -0.2668660E-11  0.0000000E+00  0.5538295E-09
 -0.5050505E-02  0.0000000E+00 -0.5050505E-02 -0.3217995E-11  0.0000000E+00  0.5518446E-09
 -0.5050505E-02  0.0000000E+00 -0.5050505E-02 -0.3750441E-11  0.0000000E+00  0.5494944E-09
 -0.5050504E-02  0.0000000E+00 -0.5050505E-02 -0.4266096E-11  0.0000000E+00  0.5467904E-09
 -0.5050501E-02  0.0000000E+00 -0.5050505E-02 -0.4764010E-11  0.0000000E+00  0.5437443E-09
 -0.5050495E-02  0.0000000E+00 -0.5050505E-02 -0.5242578E-11  0.0000000E+00  0.5403686E-09
 -0.5050482E-02  0.0000000E+00 -0.5050505E-02 -0.5700007E-11  0.0000000E+00  0.5366771E-09
 -0.5050449E-02  0.0000000E+00 -0.5050505E-02 -0.6134466E-11  0.0000000E+00  0.5326847E-09
 -0.5050376E-02  0.0000000E+00 -0.5050505E-02 -0.6544216E-11  0.0000000E+00  0.5284074E-09
 -0.5050299E-02  0.0000000E+00 -0.5050505E-02 -0.6927680E-11  0.0000000E+00  0.5238625E-09
 -0.5050178E-02  0.0000000E+00 -0.5050505E-02 -0.7283222E-11  0.0000000E+00  0.5190684E-09
 -0.5050018E-02  0.0000000E+00 -0.5050505E-02 -0.7609513E-11  0.0000000E+00  0.5140441E-09
 -0.5049710E-02  0.0000000E+00 -0.5050505E-02 -0.7905170E-11  0.0000000E+00  0.5088101E-09
 -0.5049253E-02  0.0000000E+00 -0.5050505E-02 -0.8169187E-11  0.0000000E+00  0.5033872E-09
 -0.5048636E-02  0.0000000E+00 -0.5050505E-02 -0.8400418E-11  0.0000000E+00  0.4977973E-09
 -0.5047442E-02  0.0000000E+00 -0.5050505E-02 -0.8598074E-11  0.0000000E+00  0.4920627E-09
 -0.5045727E-02  0.0000000E+00 -0.5050505E-02 -0.8761428E-11  0.0000000E+00  0.4862063E-09
 -0.5043261E-02  0.0000000E+00 -0.5050505E-02 -0.8889914E-11  0.0000000E+00  0.4802514E-09
 -0.5038714E-02  0.0000000E+00 -0.5050505E-02 -0.8983054E-11  0.0000000E+00  0.4742219E-09
 -0.5032318E-02  0.0000000E+00 -0.5050505E-02 -0.9040630E-11  0.0000000E+00  0.4681415E-09
 -0.5022454E-02  0.0000000E+00 -0.5050505E-02 -0.9062405E-11  0.0000000E+00  0.4620344E-09
 -0.5012589E-02  0.0000000E+00 -0.5050505E-02 -0.9048444E-11  0.0000000E+00  0.4559247E-09
 -0.5002725E-02  0.0000000E+00 -0.5050505E-02 -0.8998867E-11  0.0000000E+00  0.4498364E-09
 -0.4992860E-02  0.0000000E+00 -0.5050505E-02 -0.8913862E-11  0.0000000E+00  0.4437935E-09
 -0.4976523E-02  0.0000000E+00 -0.5050505E-02 -0.8793877E-11  0.0000000E+00  0.4378198E-09
 -0.4956794E-02  0.0000000E+00 -0.5050505E-02 -0.8639456E-11  0.0000000E+00  0.4319386E-09
 -0.4937066E-02  0.0000000E+00 -0.5050505E-02 -0.8451100E-11  0.0000000E+00  0.4261730E-09
 -0.4906239E-02  0.0000000E+00 -0.5050505E-02 -0.8229579E-11  0.0000000E+00  0.4205456E-09
 -0.4866782E-02  0.0000000E+00 -0.5050505E-02 -0.7975550E-11  0.0000000E+00  0.4150786E-09
 -0.4827325E-02  0.0000000E+00 -0.5050505E-02 -0.7689767E-11  0.0000000E+00  0.4097935E-09
 -0.4769372E-02  0.0000000E+00 -0.5050505E-02 -0.7372947E-11  0.0000000E+00  0.4047114E-09
 -0.4690458E-02  0.0000000E+00 -0.5050505E-02 -0.7025703E-11  0.0000000E+00  0.3998529E-09
 -0.4611543E-02  0.0000000E+00 -0.5050505E-02 -0.6648333E-11  0.0000000E+00  0.3952383E-09
 -0.4503035E-02  0.0000000E+00 -0.5050505E-02 -0.6240845E-11  0.0000000E+00  0.3908876E-09
 -0.4345206E-02  0.0000000E+00 -0.5050505E-02 -0.5802252E-11  0.0000000E+00  0.3868207E-09
 -0.4187378E-02  0.0000000E+00 -0.5050505E-02 -0.5330402E-11  0.0000000E+00  0.3830584E-09
 -0.3985156E-02  0.0000000E+00 -0.5050505E-02 -0.4820491E-11  0.0000000E+00  0.3796228E-09
 -0.3669499E-02  0.0000000E+00 -0.5050505E-02 -0.4263065E-11  0.0000000E+00  0.3765389E-09
 -0.3353842E-02  0.0000000E+00 -0.5050505E-02 -0.3639712E-11  0.0000000E+00  0.3738372E-09
 -0.2978990E-02  0.0000000E+00 -0.5050505E-02 -0.2914332E-11  0.0000000E+00  0.3715561E-09
 -0.2347676E-02  0.0000000E+00 -0.5050505E-02 -0.2013557E-11  0.0000000E+00  0.3697425E-09
 -0.1716362E-02  0.0000000E+00 -0.5050505E-02 -0.7805914E-12  0.0000000E+00  0.3684325E-09
 -0.1025842E-02  0.0000000E+00 -0.5050505E-02  0.1149667E-11  0.0000000E+00  0.3675914E-09
  0.2367855E-03  0.0000000E+00 -0.5050505E-02  0.4690662E-11  0.0000000E+00  0.3666403E-09
  0.1499413E-02  0.0000000E+00 -0.5050505E-02  0.1232500E-10  0.0000000E+00  0.3625096E-09
  0.5287294E-02  0.0000000E+00 -0.5050505E-02  0.3076611E-10  0.0000000E+00  0.3404247E-09
 -0.5050505E-02  0.0000000E+00 -0.5050505E-02  0.1901931E-12  0.0000000E+00  0.3820386E-09
 -0.5050505E-02  0.0000000E+00 -0.5050505E-02  0.1051370E-11  0.0000000E+00  0.3823394E-09
 -0.5050505E-02  0.0000000E+00 -0.5050505E-02  0.2077833E-11  0.0000000E+00  0.3830096E-09
 -0.5050505E-02  0.0000000E+00 -0.5050505E-02  0.3025344E-11  0.0000000E+00  0.3840676E-09
 -0.5050505E-02  0.0000000E+00 -0.5050505E-02  0.3933197E-11  0.0000000E+00  0.3854984E-09
 -0.5050505E-02  0.0000000E+00 -0.5050505E-02  0.4809995E-11  0.0000000E+00  0.3872915E-09
 -0.5050504E-02  0.0000000E+00 -0.5050505E-02  0.5659305E-11  0.0000000E+00  0.3894369E-09
 -0.5050501E-02  0.0000000E+00 -0.5050505E-02  0.6482572E-11  0.0000000E+00  0.3919242E-09
 -0.5050495E-02  0.0000000E+00 -0.5050505E-02  0.7278084E-11  0.0000000E+00  0.3947426E-09
 -0.5050482E-02  0.0000000E+00 -0.5050505E-02  0.8043570E-11  0.0000000E+00  0.3978805E-09
 -0.5050449E-02  0.0000000E+00 -0.5050505E-02  0.8776882E-11  0.0000000E+00  0.4013251E-09
 -0.5050376E-02  0.0000000E+00 -0.5050505E-02  0.9475077E-11  0.0000000E+00  0.4050628E-09
 -0.5050299E-02  0.0000000E+00 -0.5050505E-02  0.1013550E-10  0.0000000E+00  0.4090787E-09
 -0.5050178E-02  0.0000000E+00 -0.5050505E-02  0.1075560E-10  0.0000000E+00  0.4133568E-09
 -0.5050018E-02  0.0000000E+00 -0.5050505E-02  0.1133275E-10  0.0000000E+00  0.4178800E-09
 -0.5049710E-02  0.0000000E+00 -0.5050505E-02  0.1186465E-10  0.0000000E+00  0.4226305E-09
 -0.5049253E-02  0.0000000E+00 -0.5050505E-02  0.1234901E-10  0.0000000E+00  0.4275892E-09
 -0.5048636E-02  0.0000000E+00 -0.5050505E-02  0.1278371E-10  0.0000000E+00  0.4327361E-09
 -0.5047442E-02  0.0000000E+00 -0.5050505E-02  0.1316694E-10  0.0000000E+00  0.4380507E-09
 -0.5045727E-02  0.0000000E+00 -0.5050505E-02  0.1349690E-10  0.0000000E+00  0.4435114E-09
 -0.5043261E-02  0.0000000E+00 -0.5050505E-02  0.1377203E-10  0.0000000E+00  0.4490962E-09
 -0.5038714E-02  0.0000000E+00 -0.5050505E-02  0.1399108E-10  0.0000000E+00  0.4547824E-09
 -0.5032318E-02  0.0000000E+00 -0.5050505E-02  0.1415294E-10  0.0000000E+00  0.4605467E-09
 -0.5022454E-02  0.0000000E+00 -0.5050505E-02  0.1425672E-10  0.0000000E+00  0.4663656E-09
 -0.5012589E-02  0.0000000E+00 -0.5050505E-02  0.1430179E-10  0.0000000E+00  0.4722152E-09
 -0.5002725E-02  0.0000000E+00 -0.5050505E-02  0.1428777E-10  0.0000000E+00  0.4780714E-09
 -0.4992860E-02  0.0000000E+00 -0.5050505E-02  0.1421450E-10  0.0000000E+00  0.4839098E-09
 -0.4976523E-02  0.0000000E+00 -0.5050505E-02  0.1408201E-10  0.0000000E+00  0.4897063E-09
 -0.4956794E-02  0.0000000E+00 -0.5050505E-02  0.1389072E-10  0.0000000E+00  0.4954367E-09
 -0.4937066E-02  0.0000000E+00 -0.5050505E-02  0.1364108E-10  0.0000000E+00  0.5010770E-09
 -0.4906239E-02  0.0000000E+00 -0.5050505E-02  0.1333397E-10  0.0000000E+00  0.5066034E-09
 -0.4866782E-02  0.0000000E+00 -0.5050505E-02  0.1297039E-10  0.0000000E+00  0.5119926E-09
 -0.4827325E-02  0.0000000E+00 -0.5050505E-02  0.1255167E-10  0.0000000E+00  0.5172218E-09
 -0.4769372E-02  0.0000000E+00 -0.5050505E-02  0.1207930E-10  0.0000000E+00  0.5222685E-09
 -0.4690458E-02  0.0000000E+00 -0.5050505E-02  0.1155514E-10  0.0000000E+00  0.5271113E-09
 -0.4611543E-02  0.0000000E+00 -0.5050505E-02  0.1098109E-10  0.0000000E+00  0.5317292E-09
 -0.4503035E-02  0.0000000E+00 -0.5050505E-02  0.1035947E-10  0.0000000E+00  0.5361024E-09
 -0.4345206E-02  0.0000000E+00 -0.5050505E-02  0.9692668E-11  0.0000000E+00  0.5402117E-09
 -0.4187378E-02  0.0000000E+00 -0.5050505E-02  0.8983291E-11  0.0000000E+00  0.5440392E-09
 -0.3985156E-02  0.0000000E+00 -0.5050505E-02  0.8234033E-11  0.0000000E+00  0.5475681E-09
 -0.3669499E-02  0.0000000E+00 -0.5050505E-02  0.7447712E-11  0.0000000E+00  0.5507826E-09
 -0.3353842E-02  0.0000000E+00 -0.5050505E-02  0.6627002E-11  0.0000000E+00  0.5536681E-09
 -0.2978990E-02  0.0000000E+00 -0.5050505E-02  0.5774356E-11  0.0000000E+00  0.5562110E-09
 -0.2347676E-02  0.0000000E+00 -0.5050505E-02  0.4891877E-11  0.0000000E+00  0.5583987E-09
 -0.1716362E-02  0.0000000E+00 -0.5050505E-02  0.3981303E-11  0.0000000E+00  0.5602191E-09
 -0.1025842E-02  0.0000000E+00 -0.5050505E-02  0.3044590E-11  0.0000000E+00  0.5616605E-09
  0.2367855E-03  0.0000000E+00 -0.5050505E-02  0.2086300E-11  0.0000000E+00  0.5627122E-09
  0.1499413E-02  0.0000000E+00 -0.5050505E-02  0.1119739E-11  0.0000000E+00  0.5633677E-09
  0.2762042E-02  0.0000000E+00 -0.5050505E-02  0.1789954E-12  0.0000000E+00  0.5636375E-09
 -0.5050505E-02  0.0000000E+00 -0.5050505E-02 -0.6468486E-12  0.0000000E+00  0.5635487E-09
 -0.5050505E-02  0.0000000E+00 -0.5050505E-02 -0.1528570E-11  0.0000000E+00  0.5631022E-09
 -0.5050505E-02  0.0000000E+00 -0.5050505E-02 -0.2524342E-11  0.0000000E+00  0.5622684E-09
 -0.5050505E-02  0.0000000E+00 -0.5050505E-02 -0.3505860E-11  0.0000000E+00  0.5610337E-09
 -0.5050505E-02  0.0000000E+00 -0.5050505E-02 -0.4454360E-11  0.0000000E+00  0.5594054E-09
 -0.5050505E-02  0.0000000E+00 -0.5050505E-02 -0.5372127E-11  0.0000000E+00  0.5573950E-09
 -0.5050505E-02  0.0000000E+00 -0.5050505E-02 -0.6261709E-11  0.0000000E+00  0.5550142E-09
 -0.5050504E-02  0.0000000E+00 -0.5050505E-02 -0.7123204E-11  0.0000000E+00  0.5522742E-09
 -0.5050501E-02  0.0000000E+00 -0.5050505E-02 -0.7954888E-11  0.0000000E+00  0.5491873E-09
 -0.5050495E-02  0.0000000E+00 -0.5050505E-02 -0.8754220E-11  0.0000000E+00  0.5457661E-09
 -0.5050482E-02  0.0000000E+00 -0.5050505E-02 -0.9518137E-11  0.0000000E+00  0.5420247E-09
 -0.5050449E-02  0.0000000E+00 -0.5050505E-02 -0.1024372E-10  0.0000000E+00  0.5379782E-09
 -0.5050376E-02  0.0000000E+00 -0.5050505E-02 -0.1092807E-10  0.0000000E+00  0.5336429E-09
 -0.5050299E-02  0.0000000E+00 -0.5050505E-02 -0.1156839E-10  0.0000000E+00  0.5290362E-09
 -0.5050178E-02  0.0000000E+00 -0.5050505E-02 -0.1216216E-10  0.0000000E+00  0.5241768E-09
 -0.5050018E-02  0.0000000E+00 -0.5050505E-02 -0.1270700E-10  0.0000000E+00  0.5190843E-09
 -0.5049710E-02  0.0000000E+00 -0.5050505E-02 -0.1320074E-10  0.0000000E+00  0.5137790E-09
 -0.5049253E-02  0.0000000E+00 -0.5050505E-02 -0.1364157E-10  0.0000000E+00  0.5082824E-09
 -0.5048636E-02  0.0000000E+00 -0.5050505E-02 -0.1402766E-10  0.0000000E+00  0.5026166E-09
 -0.5047442E-02  0.0000000E+00 -0.5050505E-02 -0.1435770E-10  0.0000000E+00  0.4968041E-09
 -0.5045727E-02  0.0000000E+00 -0.5050505E-02 -0.1463043E-10  0.0000000E+00  0.4908682E-09
 -0.5043261E-02  0.0000000E+00 -0.5050505E-02 -0.1484489E-10  0.0000000E+00  0.4848327E-09
 -0.5038714E-02  0.0000000E+00 -0.5050505E-02 -0.1500038E-10  0.0000000E+00  0.4787215E-09
 -0.5032318E-02  0.0000000E+00 -0.5050505E-02 -0.1509643E-10  0.0000000E+00  0.4725589E-09
 -0.5022454E-02  0.0000000E+00 -0.5050505E-02 -0.1513274E-10  0.0000000E+00  0.4663693E-09
 -0.5012589E-02  0.0000000E+00 -0.5050505E-02 -0.1510940E-10  0.0000000E+00  0.4601770E-09
 -0.5002725E-02  0.0000000E+00 -0.5050505E-02 -0.1502654E-10  0.0000000E+00  0.4540066E-09
 -0.4992860E-02  0.0000000E+00 -0.5050505E-02 -0.1488459E-10  0.0000000E+00  0.4478822E-09
 -0.4976523E-02  0.0000000E+00 -0.5050505E-02 -0.1468431E-10  0.0000000E+00  0.4418279E-09
 -0.4956794E-02  0.0000000E+00 -0.5050505E-02 -0.1442646E-10  0.0000000E+00  0.4358674E-09
 -0.4937066E-02  0.0000000E+00 -0.5050505E-02 -0.1411209E-10  0.0000000E+00  0.4300239E-09
 -0.4906239E-02  0.0000000E+00 -0.5050505E-02 -0.1374236E-10  0.0000000E+00  0.4243203E-09
 -0.4866782E-02  0.0000000E+00 -0.5050505E-02 -0.1331847E-10  0.0000000E+00  0.4187789E-09
 -0.4827325E-02  0.0000000E+00 -0.5050505E-02 -0.1284175E-10  0.0000000E+00  0.4134214E-09
 -0.4769372E-02  0.0000000E+00 -0.5050505E-02 -0.1231343E-10  0.0000000E+00  0.4082691E-09
 -0.4690458E-02  0.0000000E+00 -0.5050505E-02 -0.1173466E-10  0.0000000E+00  0.4033424E-09
 -0.4611543E-02  0.0000000E+00 -0.5050505E-02 -0.1110624E-10  0.0000000E+00  0.3986612E-09
 -0.4503035E-02  0.0000000E+00 -0.5050505E-02 -0.1042837E-10  0.0000000E+00  0.3942450E-09
 -0.4345206E-02  0.0000000E+00 -0.5050505E-02 -0.9700360E-11  0.0000000E+00  0.3901126E-09
 -0.4187378E-02  0.0000000E+00 -0.5050505E-02 -0.8919608E-11  0.0000000E+00  0.3862825E-09
 -0.3985156E-02  0.0000000E+00 -0.5050505E-02 -0.8080614E-11  0.0000000E+00  0.3827729E-09
 -0.3669499E-02  0.0000000E+00 -0.5050505E-02 -0.7172456E-11  0.0000000E+00  0.3796011E-09
 -0.3353842E-02  0.0000000E+00 -0.5050505E-02 -0.6174848E-11  0.0000000E+00  0.3767830E-09
 -0.2978990E-02  0.0000000E+00 -0.5050505E-02 -0.5051436E-11  0.0000000E+00  0.3743284E-09
 -0.2347676E-02  0.0000000E+00 -0.5050505E-02 -0.3739255E-11  0.0000000E+00  0.3722297E-09
 -0.1716362E-02  0.0000000E+00 -0.5050505E-02 -0.2136519E-11  0.0000000E+00  0.3704248E-09
 -0.1025842E-02  0.0000000E+00 -0.5050505E-02 -0.5773298E-13  0.0000000E+00  0.3686902E-09
  0.2367855E-03  0.0000000E+00 -0.5050505E-02  0.2668386E-11  0.0000000E+00  0.3664264E-09
  0.1499413E-02  0.0000000E+00 -0.5050505E-02  0.6086904E-11  0.0000000E+00  0.3623462E-09
  0.5287294E-02  0.0000000E+00 -0.5050505E-02  0.7632008E-11  0.0000000E+00  0.3551363E-09
 -0.5050505E-02  0.0000000E+00 -0.5050505E-02  0.3242348E-12  0.0000000E+00  0.3867349E-09
 -0.5050505E-02  0.0000000E+00 -0.5050505E-02  0.1526403E-11  0.0000000E+00  0.3870536E-09
 -0.5050505E-02  0.0000000E+00 -0.5050505E-02  0.2943950E-11  0.0000000E+00  0.3877497E-09
 -0.5050505E-02  0.0000000E+00 -0.5050505E-02  0.4264155E-11  0.0000000E+00  0.3888372E-09
 -0.5050505E-02  0.0000000E+00 -0.5050505E-02  0.5534825E-11  0.0000000E+00  0.3903021E-09
 -0.5050505E-02  0.0000000E+00 -0.5050505E-02  0.6764913E-11  0.0000000E+00  0.3921348E-09
 -0.5050504E-02  0.0000000E+00 -0.5050505E-02  0.7957708E-11  0.0000000E+00  0.3943257E-09
 -0.5050501E-02  0.0000000E+00 -0.5050505E-02  0.9114298E-11  0.0000000E+00  0.3968647E-09
 -0.5050495E-02  0.0000000E+00 -0.5050505E-02  0.1023214E-10  0.0000000E+00  0.3997411E-09
 -0.5050482E-02  0.0000000E+00 -0.5050505E-02  0.1130798E-10  0.0000000E+00  0.4029430E-09
 -0.5050449E-02  0.0000000E+00 -0.5050505E-02  0.1233865E-10  0.0000000E+00  0.4064578E-09
 -0.5050376E-02  0.0000000E+00 -0.5050505E-02  0.1332010E-10  0.0000000E+00  0.4102715E-09
 -0.5050299E-02  0.0000000E+00 -0.5050505E-02  0.1424850E-10  0.0000000E+00  0.4143689E-09
 -0.5050178E-02  0.0000000E+00 -0.5050505E-02  0.1512022E-10  0.0000000E+00  0.4187339E-09
 -0.5050018E-02  0.0000000E+00 -0.5050505E-02  0.1593166E-10  0.0000000E+00  0.4233491E-09
 -0.5049710E-02  0.0000000E+00 -0.5050505E-02  0.1667957E-10  0.0000000E+00  0.4281962E-09
 -0.5049253E-02  0.0000000E+00 -0.5050505E-02  0.1736061E-10  0.0000000E+00  0.4332558E-09
 -0.5048636E-02  0.0000000E+00 -0.5050505E-02  0.1797192E-10  0.0000000E+00  0.4385078E-09
 -0.5047442E-02  0.0000000E+00 -0.5050505E-02  0.1851088E-10  0.0000000E+00  0.4439309E-09
 -0.5045727E-02  0.0000000E+00 -0.5050505E-02  0.1897494E-10  0.0000000E+00  0.4495033E-09
 -0.5043261E-02  0.0000000E+00 -0.5050505E-02  0.1936202E-10  0.0000000E+00  0.4552025E-09
 -0.5038714E-02  0.0000000E+00 -0.5050505E-02  0.1967027E-10  0.0000000E+00  0.4610054E-09
 -0.5032318E-02  0.0000000E+00 -0.5050505E-02  0.1989806E-10  0.0000000E+00  0.4668883E-09
 -0.5022454E-02  0.0000000E+00 -0.5050505E-02  0.2004431E-10  0.0000000E+00  0.4728271E-09
 -0.5012589E-02  0.0000000E+00 -0.5050505E-02  0.2010800E-10  0.0000000E+00  0.4787976E-09
 -0.5002725E-02  0.0000000E+00 -0.5050505E-02  0.2008865E-10  0.0000000E+00  0.4847750E-09
 -0.4992860E-02  0.0000000E+00 -0.5050505E-02  0.1998595E-10  0.0000000E+00  0.4907346E-09
 -0.4976523E-02  0.0000000E+00 -0.5050505E-02  0.1980005E-10  0.0000000E+00  0.4966517E-09
 -0.4956794E-02  0.0000000E+00 -0.5050505E-02  0.1953141E-10  0.0000000E+00  0.5025016E-09
 -0.4937066E-02  0.0000000E+00 -0.5050505E-02  0.1918075E-10  0.0000000E+00  0.5082598E-09