title = "dataset feddes"
variables = "x", "y", "z", "vx", "vy", "vz"
zone t = "velocities, solution time =  4.600E+01 days        " i =   99, j =   99, k =    1,  f=point
 -0.5050505E-02  0.0000000E+00 -0.5050505E-02  0.8143805E-10  0.0000000E+00  0.5790970E-06
 -0.5050505E-02  0.0000000E+00 -0.5050505E-02  0.2440545E-09  0.0000000E+00  0.5794244E-06
 -0.5050505E-02  0.0000000E+00 -0.5050505E-02  0.4057772E-09  0.0000000E+00  0.5800779E-06
 -0.5050505E-02  0.0000000E+00 -0.5050505E-02  0.5659547E-09  0.0000000E+00  0.5810551E-06
 -0.5050505E-02  0.0000000E+00 -0.5050505E-02  0.7239811E-09  0.0000000E+00  0.5823524E-06
 -0.5050505E-02  0.0000000E+00 -0.5050505E-02  0.8792559E-09  0.0000000E+00  0.5839647E-06
 -0.5050504E-02  0.0000000E+00 -0.5050505E-02  0.1031186E-08  0.0000000E+00  0.5858860E-06
 -0.5050501E-02  0.0000000E+00 -0.5050505E-02  0.1179187E-08  0.0000000E+00  0.5881090E-06
 -0.5050495E-02  0.0000000E+00 -0.5050505E-02  0.1322681E-08  0.0000000E+00  0.5906250E-06
 -0.5050482E-02  0.0000000E+00 -0.5050505E-02  0.1461108E-08  0.0000000E+00  0.5934247E-06
 -0.5050449E-02  0.0000000E+00 -0.5050505E-02  0.1593918E-08  0.0000000E+00  0.5964970E-06
 -0.5050376E-02  0.0000000E+00 -0.5050505E-02  0.1720580E-08  0.0000000E+00  0.5998304E-06
 -0.5050299E-02  0.0000000E+00 -0.5050505E-02  0.1840579E-08  0.0000000E+00  0.6034118E-06
 -0.5050178E-02  0.0000000E+00 -0.5050505E-02  0.1953420E-08  0.0000000E+00  0.6072273E-06
 -0.5050018E-02  0.0000000E+00 -0.5050505E-02  0.2058633E-08  0.0000000E+00  0.6112621E-06
 -0.5049710E-02  0.0000000E+00 -0.5050505E-02  0.2155768E-08  0.0000000E+00  0.6155005E-06
 -0.5049253E-02  0.0000000E+00 -0.5050505E-02  0.2244404E-08  0.0000000E+00  0.6199257E-06
 -0.5048636E-02  0.0000000E+00 -0.5050505E-02  0.2324146E-08  0.0000000E+00  0.6245202E-06
 -0.5047442E-02  0.0000000E+00 -0.5050505E-02  0.2394629E-08  0.0000000E+00  0.6292658E-06
 -0.5045727E-02  0.0000000E+00 -0.5050505E-02  0.2455522E-08  0.0000000E+00  0.6341435E-06
 -0.5043261E-02  0.0000000E+00 -0.5050505E-02  0.2506526E-08  0.0000000E+00  0.6391337E-06
 -0.5038714E-02  0.0000000E+00 -0.5050505E-02  0.2547377E-08  0.0000000E+00  0.6442163E-06
 -0.5032318E-02  0.0000000E+00 -0.5050505E-02  0.2577850E-08  0.0000000E+00  0.6493707E-06
 -0.5022454E-02  0.0000000E+00 -0.5050505E-02  0.2597760E-08  0.0000000E+00  0.6545757E-06
 -0.5012589E-02  0.0000000E+00 -0.5050505E-02  0.2606959E-08  0.0000000E+00  0.6598100E-06
 -0.5002725E-02  0.0000000E+00 -0.5050505E-02  0.2605346E-08  0.0000000E+00  0.6650519E-06
 -0.4992860E-02  0.0000000E+00 -0.5050505E-02  0.2592862E-08  0.0000000E+00  0.6702797E-06
 -0.4976523E-02  0.0000000E+00 -0.5050505E-02  0.2569492E-08  0.0000000E+00  0.6754714E-06
 -0.4956794E-02  0.0000000E+00 -0.5050505E-02  0.2535268E-08  0.0000000E+00  0.6806051E-06
 -0.4937066E-02  0.0000000E+00 -0.5050505E-02  0.2490269E-08  0.0000000E+00  0.6856592E-06
 -0.4906239E-02  0.0000000E+00 -0.5050505E-02  0.2434621E-08  0.0000000E+00  0.6906121E-06
 -0.4866782E-02  0.0000000E+00 -0.5050505E-02  0.2368497E-08  0.0000000E+00  0.6954425E-06
 -0.4827325E-02  0.0000000E+00 -0.5050505E-02  0.2292120E-08  0.0000000E+00  0.7001296E-06
 -0.4769372E-02  0.0000000E+00 -0.5050505E-02  0.2205758E-08  0.0000000E+00  0.7046531E-06
 -0.4690458E-02  0.0000000E+00 -0.5050505E-02  0.2109728E-08  0.0000000E+00  0.7089931E-06
 -0.4611543E-02  0.0000000E+00 -0.5050505E-02  0.2004392E-08  0.0000000E+00  0.7131306E-06
 -0.4503035E-02  0.0000000E+00 -0.5050505E-02  0.1890160E-08  0.0000000E+00  0.7170473E-06
 -0.4345206E-02  0.0000000E+00 -0.5050505E-02  0.1767482E-08  0.0000000E+00  0.7207257E-06
 -0.4187378E-02  0.0000000E+00 -0.5050505E-02  0.1636854E-08  0.0000000E+00  0.7241494E-06
 -0.3985156E-02  0.0000000E+00 -0.5050505E-02  0.1498809E-08  0.0000000E+00  0.7273029E-06
 -0.3669499E-02  0.0000000E+00 -0.5050505E-02  0.1353920E-08  0.0000000E+00  0.7301719E-06
 -0.3353842E-02  0.0000000E+00 -0.5050505E-02  0.1202795E-08  0.0000000E+00  0.7327431E-06
 -0.2978990E-02  0.0000000E+00 -0.5050505E-02  0.1046074E-08  0.0000000E+00  0.7350048E-06
 -0.2347676E-02  0.0000000E+00 -0.5050505E-02  0.8844268E-09  0.0000000E+00  0.7369462E-06
 -0.1716362E-02  0.0000000E+00 -0.5050505E-02  0.7185492E-09  0.0000000E+00  0.7385583E-06
 -0.1025842E-02  0.0000000E+00 -0.5050505E-02  0.5491593E-09  0.0000000E+00  0.7398333E-06
  0.2367855E-03  0.0000000E+00 -0.5050505E-02  0.3769944E-09  0.0000000E+00  0.7407647E-06
  0.1499413E-02  0.0000000E+00 -0.5050505E-02  0.2028068E-09  0.0000000E+00  0.7413478E-06
  0.2762042E-02  0.0000000E+00 -0.5050505E-02  0.2735995E-10  0.0000000E+00  0.7415792E-06
 -0.5050505E-02  0.0000000E+00 -0.5050505E-02 -0.1485698E-09  0.0000000E+00  0.7414573E-06
 -0.5050505E-02  0.0000000E+00 -0.5050505E-02 -0.3242160E-09  0.0000000E+00  0.7409819E-06
 -0.5050505E-02  0.0000000E+00 -0.5050505E-02 -0.4988193E-09  0.0000000E+00  0.7401542E-06
 -0.5050505E-02  0.0000000E+00 -0.5050505E-02 -0.6716017E-09  0.0000000E+00  0.7389771E-06
 -0.5050505E-02  0.0000000E+00 -0.5050505E-02 -0.8418081E-09  0.0000000E+00  0.7374551E-06
 -0.5050505E-02  0.0000000E+00 -0.5050505E-02 -0.1008696E-08  0.0000000E+00  0.7355940E-06
 -0.5050505E-02  0.0000000E+00 -0.5050505E-02 -0.1171544E-08  0.0000000E+00  0.7334014E-06
 -0.5050504E-02  0.0000000E+00 -0.5050505E-02 -0.1329649E-08  0.0000000E+00  0.7308860E-06
 -0.5050501E-02  0.0000000E+00 -0.5050505E-02 -0.1482332E-08  0.0000000E+00  0.7280580E-06
 -0.5050495E-02  0.0000000E+00 -0.5050505E-02 -0.1628945E-08  0.0000000E+00  0.7249291E-06
 -0.5050482E-02  0.0000000E+00 -0.5050505E-02 -0.1768870E-08  0.0000000E+00  0.7215119E-06
 -0.5050449E-02  0.0000000E+00 -0.5050505E-02 -0.1901524E-08  0.0000000E+00  0.7178207E-06
 -0.5050376E-02  0.0000000E+00 -0.5050505E-02 -0.2026358E-08  0.0000000E+00  0.7138705E-06
 -0.5050299E-02  0.0000000E+00 -0.5050505E-02 -0.2142866E-08  0.0000000E+00  0.7096775E-06
 -0.5050178E-02  0.0000000E+00 -0.5050505E-02 -0.2250580E-08  0.0000000E+00  0.7052591E-06
 -0.5050018E-02  0.0000000E+00 -0.5050505E-02 -0.2349077E-08  0.0000000E+00  0.7006333E-06
 -0.5049710E-02  0.0000000E+00 -0.5050505E-02 -0.2437976E-08  0.0000000E+00  0.6958190E-06
 -0.5049253E-02  0.0000000E+00 -0.5050505E-02 -0.2516942E-08  0.0000000E+00  0.6908360E-06
 -0.5048636E-02  0.0000000E+00 -0.5050505E-02 -0.2585686E-08  0.0000000E+00  0.6857043E-06
 -0.5047442E-02  0.0000000E+00 -0.5050505E-02 -0.2643964E-08  0.0000000E+00  0.6804450E-06
 -0.5045727E-02  0.0000000E+00 -0.5050505E-02 -0.2691579E-08  0.0000000E+00  0.6750791E-06
 -0.5043261E-02  0.0000000E+00 -0.5050505E-02 -0.2728379E-08  0.0000000E+00  0.6696283E-06
 -0.5038714E-02  0.0000000E+00 -0.5050505E-02 -0.2754257E-08  0.0000000E+00  0.6641145E-06
 -0.5032318E-02  0.0000000E+00 -0.5050505E-02 -0.2769149E-08  0.0000000E+00  0.6585597E-06
 -0.5022454E-02  0.0000000E+00 -0.5050505E-02 -0.2773035E-08  0.0000000E+00  0.6529861E-06
 -0.5012589E-02  0.0000000E+00 -0.5050505E-02 -0.2765934E-08  0.0000000E+00  0.6474156E-06
 -0.5002725E-02  0.0000000E+00 -0.5050505E-02 -0.2747903E-08  0.0000000E+00  0.6418705E-06
 -0.4992860E-02  0.0000000E+00 -0.5050505E-02 -0.2719033E-08  0.0000000E+00  0.6363725E-06
 -0.4976523E-02  0.0000000E+00 -0.5050505E-02 -0.2679447E-08  0.0000000E+00  0.6309433E-06
 -0.4956794E-02  0.0000000E+00 -0.5050505E-02 -0.2629292E-08  0.0000000E+00  0.6256044E-06
 -0.4937066E-02  0.0000000E+00 -0.5050505E-02 -0.2568736E-08  0.0000000E+00  0.6203768E-06
 -0.4906239E-02  0.0000000E+00 -0.5050505E-02 -0.2497954E-08  0.0000000E+00  0.6152814E-06
 -0.4866782E-02  0.0000000E+00 -0.5050505E-02 -0.2417120E-08  0.0000000E+00  0.6103384E-06
 -0.4827325E-02  0.0000000E+00 -0.5050505E-02 -0.2326385E-08  0.0000000E+00  0.6055679E-06
 -0.4769372E-02  0.0000000E+00 -0.5050505E-02 -0.2225851E-08  0.0000000E+00  0.6009898E-06
 -0.4690458E-02  0.0000000E+00 -0.5050505E-02 -0.2115529E-08  0.0000000E+00  0.5966238E-06
 -0.4611543E-02  0.0000000E+00 -0.5050505E-02 -0.1995270E-08  0.0000000E+00  0.5924896E-06
 -0.4503035E-02  0.0000000E+00 -0.5050505E-02 -0.1864652E-08  0.0000000E+00  0.5886078E-06
 -0.4345206E-02  0.0000000E+00 -0.5050505E-02 -0.1722781E-08  0.0000000E+00  0.5850000E-06
 -0.4187378E-02  0.0000000E+00 -0.5050505E-02 -0.1567934E-08  0.0000000E+00  0.5816906E-06
 -0.3985156E-02  0.0000000E+00 -0.5050505E-02 -0.1396878E-08  0.0000000E+00  0.5787089E-06
 -0.3669499E-02  0.0000000E+00 -0.5050505E-02 -0.1203483E-08  0.0000000E+00  0.5760938E-06
 -0.3353842E-02  0.0000000E+00 -0.5050505E-02 -0.9757542E-09  0.0000000E+00  0.5739022E-06
 -0.2978990E-02  0.0000000E+00 -0.5050505E-02 -0.6889112E-09  0.0000000E+00  0.5722280E-06
 -0.2347676E-02  0.0000000E+00 -0.5050505E-02 -0.2879433E-09  0.0000000E+00  0.5712456E-06
 -0.1716362E-02  0.0000000E+00 -0.5050505E-02  0.3605902E-09  0.0000000E+00  0.5713187E-06
 -0.1025842E-02  0.0000000E+00 -0.5050505E-02  0.1614798E-08  0.0000000E+00  0.5733053E-06
  0.2367855E-03  0.0000000E+00 -0.5050505E-02  0.4542854E-08  0.0000000E+00  0.5794979E-06
  0.1499413E-02  0.0000000E+00 -0.5050505E-02  0.1267478E-07  0.0000000E+00  0.5968134E-06
  0.5287294E-02  0.0000000E+00 -0.5050505E-02  0.2105948E-06  0.0000000E+00  0.4767835E-06
 -0.5050505E-02  0.0000000E+00 -0.5050505E-02  0.2443905E-09  0.0000000E+00  0.5801795E-06
 -0.5050505E-02  0.0000000E+00 -0.5050505E-02  0.7323669E-09  0.0000000E+00  0.5805089E-06
 -0.5050505E-02  0.0000000E+00 -0.5050505E-02  0.1217656E-08  0.0000000E+00  0.5811666E-06
 -0.5050505E-02  0.0000000E+00 -0.5050505E-02  0.1698314E-08  0.0000000E+00  0.5821501E-06
 -0.5050505E-02  0.0000000E+00 -0.5050505E-02  0.2172522E-08  0.0000000E+00  0.5834557E-06
 -0.5050505E-02  0.0000000E+00 -0.5050505E-02  0.2638476E-08  0.0000000E+00  0.5850784E-06
 -0.5050504E-02  0.0000000E+00 -0.5050505E-02  0.3094399E-08  0.0000000E+00  0.5870120E-06
 -0.5050501E-02  0.0000000E+00 -0.5050505E-02  0.3538531E-08  0.0000000E+00  0.5892492E-06
 -0.5050495E-02  0.0000000E+00 -0.5050505E-02  0.3969148E-08  0.0000000E+00  0.5917815E-06
 -0.5050482E-02  0.0000000E+00 -0.5050505E-02  0.4384563E-08  0.0000000E+00  0.5945992E-06
 -0.5050449E-02  0.0000000E+00 -0.5050505E-02  0.4783127E-08  0.0000000E+00  0.5976914E-06
 -0.5050376E-02  0.0000000E+00 -0.5050505E-02  0.5163247E-08  0.0000000E+00  0.6010463E-06
 -0.5050299E-02  0.0000000E+00 -0.5050505E-02  0.5523377E-08  0.0000000E+00  0.6046510E-06
 -0.5050178E-02  0.0000000E+00 -0.5050505E-02  0.5862035E-08  0.0000000E+00  0.6084913E-06
 -0.5050018E-02  0.0000000E+00 -0.5050505E-02  0.6177805E-08  0.0000000E+00  0.6125525E-06
 -0.5049710E-02  0.0000000E+00 -0.5050505E-02  0.6469341E-08  0.0000000E+00  0.6168186E-06
 -0.5049253E-02  0.0000000E+00 -0.5050505E-02  0.6735377E-08  0.0000000E+00  0.6212728E-06
 -0.5048636E-02  0.0000000E+00 -0.5050505E-02  0.6974727E-08  0.0000000E+00  0.6258976E-06
 -0.5047442E-02  0.0000000E+00 -0.5050505E-02  0.7186299E-08  0.0000000E+00  0.6306745E-06
 -0.5045727E-02  0.0000000E+00 -0.5050505E-02  0.7369094E-08  0.0000000E+00  0.6355845E-06
 -0.5043261E-02  0.0000000E+00 -0.5050505E-02  0.7522214E-08  0.0000000E+00  0.6406079E-06
 -0.5038714E-02  0.0000000E+00 -0.5050505E-02  0.7644870E-08  0.0000000E+00  0.6457245E-06
 -0.5032318E-02  0.0000000E+00 -0.5050505E-02  0.7736384E-08  0.0000000E+00  0.6509133E-06
 -0.5022454E-02  0.0000000E+00 -0.5050505E-02  0.7796196E-08  0.0000000E+00  0.6561533E-06
 -0.5012589E-02  0.0000000E+00 -0.5050505E-02  0.7823869E-08  0.0000000E+00  0.6614229E-06
 -0.5002725E-02  0.0000000E+00 -0.5050505E-02  0.7819094E-08  0.0000000E+00  0.6667003E-06
 -0.4992860E-02  0.0000000E+00 -0.5050505E-02  0.7781692E-08  0.0000000E+00  0.6719636E-06
 -0.4976523E-02  0.0000000E+00 -0.5050505E-02  0.7711619E-08  0.0000000E+00  0.6771907E-06
 -0.4956794E-02  0.0000000E+00 -0.5050505E-02  0.7608971E-08  0.0000000E+00  0.6823596E-06
 -0.4937066E-02  0.0000000E+00 -0.5050505E-02  0.7473981E-08  0.0000000E+00  0.6874484E-06
 -0.4906239E-02  0.0000000E+00 -0.5050505E-02  0.7307028E-08  0.0000000E+00  0.6924354E-06
 -0.4866782E-02  0.0000000E+00 -0.5050505E-02  0.7108633E-08  0.0000000E+00  0.6972993E-06
 -0.4827325E-02  0.0000000E+00 -0.5050505E-02  0.6879460E-08  0.0000000E+00  0.7020190E-06
 -0.4769372E-02  0.0000000E+00 -0.5050505E-02  0.6620316E-08  0.0000000E+00  0.7065739E-06
 -0.4690458E-02  0.0000000E+00 -0.5050505E-02  0.6332150E-08  0.0000000E+00  0.7109443E-06
 -0.4611543E-02  0.0000000E+00 -0.5050505E-02  0.6016051E-08  0.0000000E+00  0.7151109E-06
 -0.4503035E-02  0.0000000E+00 -0.5050505E-02  0.5673243E-08  0.0000000E+00  0.7190552E-06
 -0.4345206E-02  0.0000000E+00 -0.5050505E-02  0.5305083E-08  0.0000000E+00  0.7227597E-06
 -0.4187378E-02  0.0000000E+00 -0.5050505E-02  0.4913054E-08  0.0000000E+00  0.7262078E-06
 -0.3985156E-02  0.0000000E+00 -0.5050505E-02  0.4498760E-08  0.0000000E+00  0.7293838E-06
 -0.3669499E-02  0.0000000E+00 -0.5050505E-02  0.4063920E-08  0.0000000E+00  0.7322734E-06
 -0.3353842E-02  0.0000000E+00 -0.5050505E-02  0.3610357E-08  0.0000000E+00  0.7348632E-06
 -0.2978990E-02  0.0000000E+00 -0.5050505E-02  0.3139994E-08  0.0000000E+00  0.7371413E-06
 -0.2347676E-02  0.0000000E+00 -0.5050505E-02  0.2654841E-08  0.0000000E+00  0.7390970E-06
 -0.1716362E-02  0.0000000E+00 -0.5050505E-02  0.2156987E-08  0.0000000E+00  0.7407211E-06
 -0.1025842E-02  0.0000000E+00 -0.5050505E-02  0.1648587E-08  0.0000000E+00  0.7420056E-06
  0.2367855E-03  0.0000000E+00 -0.5050505E-02  0.1131856E-08  0.0000000E+00  0.7429442E-06
  0.1499413E-02  0.0000000E+00 -0.5050505E-02  0.6090530E-09  0.0000000E+00  0.7435321E-06
  0.2762042E-02  0.0000000E+00 -0.5050505E-02  0.8247115E-10  0.0000000E+00  0.7437659E-06
 -0.5050505E-02  0.0000000E+00 -0.5050505E-02 -0.4455653E-09  0.0000000E+00  0.7436439E-06
 -0.5050505E-02  0.0000000E+00 -0.5050505E-02 -0.9727504E-09  0.0000000E+00  0.7431658E-06
 -0.5050505E-02  0.0000000E+00 -0.5050505E-02 -0.1496801E-08  0.0000000E+00  0.7423330E-06
 -0.5050505E-02  0.0000000E+00 -0.5050505E-02 -0.2015384E-08  0.0000000E+00  0.7411484E-06
 -0.5050505E-02  0.0000000E+00 -0.5050505E-02 -0.2526235E-08  0.0000000E+00  0.7396164E-06
 -0.5050505E-02  0.0000000E+00 -0.5050505E-02 -0.3027124E-08  0.0000000E+00  0.7377431E-06
 -0.5050505E-02  0.0000000E+00 -0.5050505E-02 -0.3515881E-08  0.0000000E+00  0.7355359E-06
 -0.5050504E-02  0.0000000E+00 -0.5050505E-02 -0.3990398E-08  0.0000000E+00  0.7330036E-06
 -0.5050501E-02  0.0000000E+00 -0.5050505E-02 -0.4448640E-08  0.0000000E+00  0.7301567E-06
 -0.5050495E-02  0.0000000E+00 -0.5050505E-02 -0.4888659E-08  0.0000000E+00  0.7270067E-06
 -0.5050482E-02  0.0000000E+00 -0.5050505E-02 -0.5308598E-08  0.0000000E+00  0.7235666E-06
 -0.5050449E-02  0.0000000E+00 -0.5050505E-02 -0.5706707E-08  0.0000000E+00  0.7198505E-06
 -0.5050376E-02  0.0000000E+00 -0.5050505E-02 -0.6081345E-08  0.0000000E+00  0.7158737E-06
 -0.5050299E-02  0.0000000E+00 -0.5050505E-02 -0.6430985E-08  0.0000000E+00  0.7116525E-06
 -0.5050178E-02  0.0000000E+00 -0.5050505E-02 -0.6754229E-08  0.0000000E+00  0.7072044E-06
 -0.5050018E-02  0.0000000E+00 -0.5050505E-02 -0.7049804E-08  0.0000000E+00  0.7025476E-06
 -0.5049710E-02  0.0000000E+00 -0.5050505E-02 -0.7316569E-08  0.0000000E+00  0.6977011E-06
 -0.5049253E-02  0.0000000E+00 -0.5050505E-02 -0.7553520E-08  0.0000000E+00  0.6926847E-06
 -0.5048636E-02  0.0000000E+00 -0.5050505E-02 -0.7759790E-08  0.0000000E+00  0.6875188E-06
 -0.5047442E-02  0.0000000E+00 -0.5050505E-02 -0.7934647E-08  0.0000000E+00  0.6822245E-06
 -0.5045727E-02  0.0000000E+00 -0.5050505E-02 -0.8077502E-08  0.0000000E+00  0.6768230E-06
 -0.5043261E-02  0.0000000E+00 -0.5050505E-02 -0.8187899E-08  0.0000000E+00  0.6713361E-06
 -0.5038714E-02  0.0000000E+00 -0.5050505E-02 -0.8265518E-08  0.0000000E+00  0.6657858E-06
 -0.5032318E-02  0.0000000E+00 -0.5050505E-02 -0.8310172E-08  0.0000000E+00  0.6601944E-06
 -0.5022454E-02  0.0000000E+00 -0.5050505E-02 -0.8321799E-08  0.0000000E+00  0.6545840E-06
 -0.5012589E-02  0.0000000E+00 -0.5050505E-02 -0.8300460E-08  0.0000000E+00  0.6489769E-06
 -0.5002725E-02  0.0000000E+00 -0.5050505E-02 -0.8246328E-08  0.0000000E+00  0.6433953E-06
 -0.4992860E-02  0.0000000E+00 -0.5050505E-02 -0.8159682E-08  0.0000000E+00  0.6378613E-06
 -0.4976523E-02  0.0000000E+00 -0.5050505E-02 -0.8040894E-08  0.0000000E+00  0.6323965E-06
 -0.4956794E-02  0.0000000E+00 -0.5050505E-02 -0.7890414E-08  0.0000000E+00  0.6270226E-06
 -0.4937066E-02  0.0000000E+00 -0.5050505E-02 -0.7708750E-08  0.0000000E+00  0.6217606E-06
 -0.4906239E-02  0.0000000E+00 -0.5050505E-02 -0.7496444E-08  0.0000000E+00  0.6166314E-06
 -0.4866782E-02  0.0000000E+00 -0.5050505E-02 -0.7254031E-08  0.0000000E+00  0.6116554E-06
 -0.4827325E-02  0.0000000E+00 -0.5050505E-02 -0.6981994E-08  0.0000000E+00  0.6068526E-06
 -0.4769372E-02  0.0000000E+00 -0.5050505E-02 -0.6680680E-08  0.0000000E+00  0.6022428E-06
 -0.4690458E-02  0.0000000E+00 -0.5050505E-02 -0.6350192E-08  0.0000000E+00  0.5978455E-06
 -0.4611543E-02  0.0000000E+00 -0.5050505E-02 -0.5990195E-08  0.0000000E+00  0.5936802E-06
 -0.4503035E-02  0.0000000E+00 -0.5050505E-02 -0.5599618E-08  0.0000000E+00  0.5897665E-06
 -0.4345206E-02  0.0000000E+00 -0.5050505E-02 -0.5176142E-08  0.0000000E+00  0.5861249E-06
 -0.4187378E-02  0.0000000E+00 -0.5050505E-02 -0.4715284E-08  0.0000000E+00  0.5827775E-06
 -0.3985156E-02  0.0000000E+00 -0.5050505E-02 -0.4208722E-08  0.0000000E+00  0.5797494E-06
 -0.3669499E-02  0.0000000E+00 -0.5050505E-02 -0.3641053E-08  0.0000000E+00  0.5770706E-06
 -0.3353842E-02  0.0000000E+00 -0.5050505E-02 -0.2983198E-08  0.0000000E+00  0.5747797E-06
 -0.2978990E-02  0.0000000E+00 -0.5050505E-02 -0.2178251E-08  0.0000000E+00  0.5729278E-06
 -0.2347676E-02  0.0000000E+00 -0.5050505E-02 -0.1109301E-08  0.0000000E+00  0.5715809E-06
 -0.1716362E-02  0.0000000E+00 -0.5050505E-02  0.4781936E-09  0.0000000E+00  0.5708005E-06
 -0.1025842E-02  0.0000000E+00 -0.5050505E-02  0.3174722E-08  0.0000000E+00  0.5705121E-06
  0.2367855E-03  0.0000000E+00 -0.5050505E-02  0.8439478E-08  0.0000000E+00  0.5698418E-06
  0.1499413E-02  0.0000000E+00 -0.5050505E-02  0.2009218E-07  0.0000000E+00  0.5640020E-06
  0.5287294E-02  0.0000000E+00 -0.5050505E-02  0.4858760E-07  0.0000000E+00  0.5298292E-06
 -0.5050505E-02  0.0000000E+00 -0.5050505E-02  0.4080133E-09  0.0000000E+00  0.5823479E-06
 -0.5050505E-02  0.0000000E+00 -0.5050505E-02  0.1222651E-08  0.0000000E+00  0.5826816E-06
 -0.5050505E-02  0.0000000E+00 -0.5050505E-02  0.2032792E-08  0.0000000E+00  0.5833477E-06
 -0.5050505E-02  0.0000000E+00 -0.5050505E-02  0.2835215E-08  0.0000000E+00  0.5843437E-06
 -0.5050505E-02  0.0000000E+00 -0.5050505E-02  0.3626882E-08  0.0000000E+00  0.5856659E-06
 -0.5050505E-02  0.0000000E+00 -0.5050505E-02  0.4404783E-08  0.0000000E+00  0.5873093E-06
 -0.5050504E-02  0.0000000E+00 -0.5050505E-02  0.5165948E-08  0.0000000E+00  0.5892676E-06
 -0.5050501E-02  0.0000000E+00 -0.5050505E-02  0.5907444E-08  0.0000000E+00  0.5915335E-06
 -0.5050495E-02  0.0000000E+00 -0.5050505E-02  0.6626392E-08  0.0000000E+00  0.5940982E-06
 -0.5050482E-02  0.0000000E+00 -0.5050505E-02  0.7319976E-08  0.0000000E+00  0.5969520E-06
 -0.5050449E-02  0.0000000E+00 -0.5050505E-02  0.7985447E-08  0.0000000E+00  0.6000840E-06
 -0.5050376E-02  0.0000000E+00 -0.5050505E-02  0.8620141E-08  0.0000000E+00  0.6034821E-06
 -0.5050299E-02  0.0000000E+00 -0.5050505E-02  0.9221483E-08  0.0000000E+00  0.6071334E-06
 -0.5050178E-02  0.0000000E+00 -0.5050505E-02  0.9786996E-08  0.0000000E+00  0.6110235E-06
 -0.5050018E-02  0.0000000E+00 -0.5050505E-02  0.1031431E-07  0.0000000E+00  0.6151374E-06
 -0.5049710E-02  0.0000000E+00 -0.5050505E-02  0.1080119E-07  0.0000000E+00  0.6194590E-06
 -0.5049253E-02  0.0000000E+00 -0.5050505E-02  0.1124551E-07  0.0000000E+00  0.6239714E-06
 -0.5048636E-02  0.0000000E+00 -0.5050505E-02  0.1164530E-07  0.0000000E+00  0.6286567E-06
 -0.5047442E-02  0.0000000E+00 -0.5050505E-02  0.1199872E-07  0.0000000E+00  0.6334964E-06
 -0.5045727E-02  0.0000000E+00 -0.5050505E-02  0.1230411E-07  0.0000000E+00  0.6384712E-06
 -0.5043261E-02  0.0000000E+00 -0.5050505E-02  0.1255996E-07  0.0000000E+00  0.6435611E-06
 -0.5038714E-02  0.0000000E+00 -0.5050505E-02  0.1276496E-07  0.0000000E+00  0.6487456E-06
 -0.5032318E-02  0.0000000E+00 -0.5050505E-02  0.1291797E-07  0.0000000E+00  0.6540035E-06
 -0.5022454E-02  0.0000000E+00 -0.5050505E-02  0.1301805E-07  0.0000000E+00  0.6593136E-06
 -0.5012589E-02  0.0000000E+00 -0.5050505E-02  0.1306447E-07  0.0000000E+00  0.6646539E-06
 -0.5002725E-02  0.0000000E+00 -0.5050505E-02  0.1305672E-07  0.0000000E+00  0.6700024E-06
 -0.4992860E-02  0.0000000E+00 -0.5050505E-02  0.1299448E-07  0.0000000E+00  0.6753368E-06
 -0.4976523E-02  0.0000000E+00 -0.5050505E-02  0.1287769E-07  0.0000000E+00  0.6806348E-06
 -0.4956794E-02  0.0000000E+00 -0.5050505E-02  0.1270649E-07  0.0000000E+00  0.6858741E-06
 -0.4937066E-02  0.0000000E+00 -0.5050505E-02  0.1248128E-07  0.0000000E+00  0.6910325E-06
 -0.4906239E-02  0.0000000E+00 -0.5050505E-02  0.1220269E-07  0.0000000E+00  0.6960880E-06
 -0.4866782E-02  0.0000000E+00 -0.5050505E-02  0.1187157E-07  0.0000000E+00  0.7010188E-06
 -0.4827325E-02  0.0000000E+00 -0.5050505E-02  0.1148905E-07  0.0000000E+00  0.7058037E-06
 -0.4769372E-02  0.0000000E+00 -0.5050505E-02  0.1105646E-07  0.0000000E+00  0.7104219E-06
 -0.4690458E-02  0.0000000E+00 -0.5050505E-02  0.1057539E-07  0.0000000E+00  0.7148532E-06
 -0.4611543E-02  0.0000000E+00 -0.5050505E-02  0.1004765E-07  0.0000000E+00  0.7190781E-06
 -0.4503035E-02  0.0000000E+00 -0.5050505E-02  0.9475296E-08  0.0000000E+00  0.7230778E-06
 -0.4345206E-02  0.0000000E+00 -0.5050505E-02  0.8860579E-08  0.0000000E+00  0.7268345E-06
 -0.4187378E-02  0.0000000E+00 -0.5050505E-02  0.8205982E-08  0.0000000E+00  0.7303314E-06
 -0.3985156E-02  0.0000000E+00 -0.5050505E-02  0.7514182E-08  0.0000000E+00  0.7335526E-06
 -0.3669499E-02  0.0000000E+00 -0.5050505E-02  0.6788050E-08  0.0000000E+00  0.7364834E-06
 -0.3353842E-02  0.0000000E+00 -0.5050505E-02  0.6030633E-08  0.0000000E+00  0.7391105E-06
 -0.2978990E-02  0.0000000E+00 -0.5050505E-02  0.5245141E-08  0.0000000E+00  0.7414216E-06
 -0.2347676E-02  0.0000000E+00 -0.5050505E-02  0.4434935E-08  0.0000000E+00  0.7434058E-06
 -0.1716362E-02  0.0000000E+00 -0.5050505E-02  0.3603503E-08  0.0000000E+00  0.7450538E-06
 -0.1025842E-02  0.0000000E+00 -0.5050505E-02  0.2754448E-08  0.0000000E+00  0.7463576E-06
  0.2367855E-03  0.0000000E+00 -0.5050505E-02  0.1891469E-08  0.0000000E+00  0.7473107E-06
  0.1499413E-02  0.0000000E+00 -0.5050505E-02  0.1018343E-08  0.0000000E+00  0.7479082E-06
  0.2762042E-02  0.0000000E+00 -0.5050505E-02  0.1389066E-09  0.0000000E+00  0.7481467E-06
 -0.5050505E-02  0.0000000E+00 -0.5050505E-02 -0.7429684E-09  0.0000000E+00  0.7480243E-06
 -0.5050505E-02  0.0000000E+00 -0.5050505E-02 -0.1623421E-08  0.0000000E+00  0.7475410E-06
 -0.5050505E-02  0.0000000E+00 -0.5050505E-02 -0.2498629E-08  0.0000000E+00  0.7466980E-06
 -0.5050505E-02  0.0000000E+00 -0.5050505E-02 -0.3364702E-08  0.0000000E+00  0.7454983E-06
 -0.5050505E-02  0.0000000E+00 -0.5050505E-02 -0.4217852E-08  0.0000000E+00  0.7439464E-06
 -0.5050505E-02  0.0000000E+00 -0.5050505E-02 -0.5054355E-08  0.0000000E+00  0.7420485E-06
 -0.5050505E-02  0.0000000E+00 -0.5050505E-02 -0.5870586E-08  0.0000000E+00  0.7398120E-06
 -0.5050504E-02  0.0000000E+00 -0.5050505E-02 -0.6663020E-08  0.0000000E+00  0.7372460E-06
 -0.5050501E-02  0.0000000E+00 -0.5050505E-02 -0.7428257E-08  0.0000000E+00  0.7343611E-06
 -0.5050495E-02  0.0000000E+00 -0.5050505E-02 -0.8163045E-08  0.0000000E+00  0.7311689E-06
 -0.5050482E-02  0.0000000E+00 -0.5050505E-02 -0.8864282E-08  0.0000000E+00  0.7276827E-06
 -0.5050449E-02  0.0000000E+00 -0.5050505E-02 -0.9529044E-08  0.0000000E+00  0.7239168E-06
 -0.5050376E-02  0.0000000E+00 -0.5050505E-02 -0.1015459E-07  0.0000000E+00  0.7198867E-06
 -0.5050299E-02  0.0000000E+00 -0.5050505E-02 -0.1073837E-07  0.0000000E+00  0.7156091E-06
 -0.5050178E-02  0.0000000E+00 -0.5050505E-02 -0.1127806E-07  0.0000000E+00  0.7111015E-06
 -0.5050018E-02  0.0000000E+00 -0.5050505E-02 -0.1177152E-07  0.0000000E+00  0.7063825E-06
 -0.5049710E-02  0.0000000E+00 -0.5050505E-02 -0.1221686E-07  0.0000000E+00  0.7014714E-06
 -0.5049253E-02  0.0000000E+00 -0.5050505E-02 -0.1261240E-07  0.0000000E+00  0.6963882E-06
 -0.5048636E-02  0.0000000E+00 -0.5050505E-02 -0.1295669E-07  0.0000000E+00  0.6911538E-06
 -0.5047442E-02  0.0000000E+00 -0.5050505E-02 -0.1324853E-07  0.0000000E+00  0.6857892E-06
 -0.5045727E-02  0.0000000E+00 -0.5050505E-02 -0.1348692E-07  0.0000000E+00  0.6803163E-06
 -0.5043261E-02  0.0000000E+00 -0.5050505E-02 -0.1367111E-07  0.0000000E+00  0.6747571E-06
 -0.5038714E-02  0.0000000E+00 -0.5050505E-02 -0.1380057E-07  0.0000000E+00  0.6691338E-06
 -0.5032318E-02  0.0000000E+00 -0.5050505E-02 -0.1387500E-07  0.0000000E+00  0.6634689E-06
 -0.5022454E-02  0.0000000E+00 -0.5050505E-02 -0.1389429E-07  0.0000000E+00  0.6577850E-06
 -0.5012589E-02  0.0000000E+00 -0.5050505E-02 -0.1385857E-07  0.0000000E+00  0.6521046E-06
 -0.5002725E-02  0.0000000E+00 -0.5050505E-02 -0.1376811E-07  0.0000000E+00  0.6464501E-06
 -0.4992860E-02  0.0000000E+00 -0.5050505E-02 -0.1362342E-07  0.0000000E+00  0.6408438E-06
 -0.4976523E-02  0.0000000E+00 -0.5050505E-02 -0.1342511E-07  0.0000000E+00  0.6353077E-06
 -0.4956794E-02  0.0000000E+00 -0.5050505E-02 -0.1317396E-07  0.0000000E+00  0.6298636E-06
 -0.4937066E-02  0.0000000E+00 -0.5050505E-02 -0.1287085E-07  0.0000000E+00  0.6245327E-06
 -0.4906239E-02  0.0000000E+00 -0.5050505E-02 -0.1251672E-07  0.0000000E+00  0.6193360E-06
 -0.4866782E-02  0.0000000E+00 -0.5050505E-02 -0.1211251E-07  0.0000000E+00  0.6142941E-06
 -0.4827325E-02  0.0000000E+00 -0.5050505E-02 -0.1165912E-07  0.0000000E+00  0.6094268E-06
 -0.4769372E-02  0.0000000E+00 -0.5050505E-02 -0.1115726E-07  0.0000000E+00  0.6047539E-06
 -0.4690458E-02  0.0000000E+00 -0.5050505E-02 -0.1060730E-07  0.0000000E+00  0.6002945E-06
 -0.4611543E-02  0.0000000E+00 -0.5050505E-02 -0.1000902E-07  0.0000000E+00  0.5960674E-06
 -0.4503035E-02  0.0000000E+00 -0.5050505E-02 -0.9361228E-08  0.0000000E+00  0.5920912E-06
 -0.4345206E-02  0.0000000E+00 -0.5050505E-02 -0.8661069E-08  0.0000000E+00  0.5883844E-06
 -0.4187378E-02  0.0000000E+00 -0.5050505E-02 -0.7902982E-08  0.0000000E+00  0.5849655E-06
 -0.3985156E-02  0.0000000E+00 -0.5050505E-02 -0.7076791E-08  0.0000000E+00  0.5818532E-06
 -0.3669499E-02  0.0000000E+00 -0.5050505E-02 -0.6164386E-08  0.0000000E+00  0.5790657E-06
 -0.3353842E-02  0.0000000E+00 -0.5050505E-02 -0.5133704E-08  0.0000000E+00  0.5766190E-06
 -0.2978990E-02  0.0000000E+00 -0.5050505E-02 -0.3927760E-08  0.0000000E+00  0.5745197E-06
 -0.2347676E-02  0.0000000E+00 -0.5050505E-02 -0.2445010E-08  0.0000000E+00  0.5727454E-06
 -0.1716362E-02  0.0000000E+00 -0.5050505E-02 -0.5069597E-09  0.0000000E+00  0.5711882E-06
 -0.1025842E-02  0.0000000E+00 -0.5050505E-02  0.2179455E-08  0.0000000E+00  0.5695056E-06
  0.2367855E-03  0.0000000E+00 -0.5050505E-02  0.5982579E-08  0.0000000E+00  0.5667697E-06
  0.1499413E-02  0.0000000E+00 -0.5050505E-02  0.1076888E-07  0.0000000E+00  0.5609237E-06
  0.5287294E-02  0.0000000E+00 -0.5050505E-02  0.1257257E-07  0.0000000E+00  0.5498892E-06
 -0.5050505E-02  0.0000000E+00 -0.5050505E-02  0.5733447E-09  0.0000000E+00  0.5856066E-06
 -0.5050505E-02  0.0000000E+00 -0.5050505E-02  0.1718042E-08  0.0000000E+00  0.5859466E-06
 -0.5050505E-02  0.0000000E+00 -0.5050505E-02  0.2856410E-08  0.0000000E+00  0.5866253E-06
 -0.5050505E-02  0.0000000E+00 -0.5050505E-02  0.3983952E-08  0.0000000E+00  0.5876402E-06
 -0.5050505E-02  0.0000000E+00 -0.5050505E-02  0.5096401E-08  0.0000000E+00  0.5889875E-06
 -0.5050505E-02  0.0000000E+00 -0.5050505E-02  0.6189531E-08  0.0000000E+00  0.5906620E-06
 -0.5050504E-02  0.0000000E+00 -0.5050505E-02  0.7259168E-08  0.0000000E+00  0.5926575E-06
 -0.5050501E-02  0.0000000E+00 -0.5050505E-02  0.8301197E-08  0.0000000E+00  0.5949664E-06
 -0.5050495E-02  0.0000000E+00 -0.5050505E-02  0.9311573E-08  0.0000000E+00  0.5975799E-06
 -0.5050482E-02  0.0000000E+00 -0.5050505E-02  0.1028634E-07  0.0000000E+00  0.6004882E-06
 -0.5050449E-02  0.0000000E+00 -0.5050505E-02  0.1122164E-07  0.0000000E+00  0.6036800E-06
 -0.5050376E-02  0.0000000E+00 -0.5050505E-02  0.1211373E-07  0.0000000E+00  0.6071433E-06
 -0.5050299E-02  0.0000000E+00 -0.5050505E-02  0.1295899E-07  0.0000000E+00  0.6108645E-06
 -0.5050178E-02  0.0000000E+00 -0.5050505E-02  0.1375394E-07  0.0000000E+00  0.6148295E-06
 -0.5050018E-02  0.0000000E+00 -0.5050505E-02  0.1449526E-07  0.0000000E+00  0.6190228E-06
 -0.5049710E-02  0.0000000E+00 -0.5050505E-02  0.1517978E-07  0.0000000E+00  0.6234281E-06
 -0.5049253E-02  0.0000000E+00 -0.5050505E-02  0.1580453E-07  0.0000000E+00  0.6280280E-06
 -0.5048636E-02  0.0000000E+00 -0.5050505E-02  0.1636673E-07  0.0000000E+00  0.6328046E-06
 -0.5047442E-02  0.0000000E+00 -0.5050505E-02  0.1686380E-07  0.0000000E+00  0.6377388E-06
 -0.5045727E-02  0.0000000E+00 -0.5050505E-02  0.1729340E-07  0.0000000E+00  0.6428111E-06
 -0.5043261E-02  0.0000000E+00 -0.5050505E-02  0.1765340E-07  0.0000000E+00  0.6480010E-06
 -0.5038714E-02  0.0000000E+00 -0.5050505E-02  0.1794195E-07  0.0000000E+00  0.6532878E-06
 -0.5032318E-02  0.0000000E+00 -0.5050505E-02  0.1815745E-07  0.0000000E+00  0.6586498E-06
 -0.5022454E-02  0.0000000E+00 -0.5050505E-02  0.1829857E-07  0.0000000E+00  0.6640654E-06
 -0.5012589E-02  0.0000000E+00 -0.5050505E-02  0.1836428E-07  0.0000000E+00  0.6695122E-06
 -0.5002725E-02  0.0000000E+00 -0.5050505E-02  0.1835383E-07  0.0000000E+00  0.6749677E-06
 -0.4992860E-02  0.0000000E+00 -0.5050505E-02  0.1826681E-07  0.0000000E+00  0.6804093E-06
 -0.4976523E-02  0.0000000E+00 -0.5050505E-02  0.1810309E-07  0.0000000E+00  0.6858141E-06
 -0.4956794E-02  0.0000000E+00 -0.5050505E-02  0.1786288E-07  0.0000000E+00  0.6911595E-06
 -0.4937066E-02  0.0000000E+00 -0.5050505E-02  0.1754673E-07  0.0000000E+00  0.6964227E-06