title = "dataset feddes"
variables = "x", "y", "z", "vx", "vy", "vz"
zone t = "velocities, solution time =  4.500E+01 days        " i =   99, j =   99, k =    1,  f=point
 -0.5050505E-02  0.0000000E+00 -0.5050505E-02  0.5520243E-10  0.0000000E+00  0.4069206E-06
 -0.5050505E-02  0.0000000E+00 -0.5050505E-02  0.1654424E-09  0.0000000E+00  0.4071425E-06
 -0.5050505E-02  0.0000000E+00 -0.5050505E-02  0.2750697E-09  0.0000000E+00  0.4075855E-06
 -0.5050505E-02  0.0000000E+00 -0.5050505E-02  0.3836496E-09  0.0000000E+00  0.4082479E-06
 -0.5050505E-02  0.0000000E+00 -0.5050505E-02  0.4907736E-09  0.0000000E+00  0.4091273E-06
 -0.5050505E-02  0.0000000E+00 -0.5050505E-02  0.5960348E-09  0.0000000E+00  0.4102203E-06
 -0.5050504E-02  0.0000000E+00 -0.5050505E-02  0.6990310E-09  0.0000000E+00  0.4115227E-06
 -0.5050501E-02  0.0000000E+00 -0.5050505E-02  0.7993652E-09  0.0000000E+00  0.4130296E-06
 -0.5050495E-02  0.0000000E+00 -0.5050505E-02  0.8966479E-09  0.0000000E+00  0.4147352E-06
 -0.5050482E-02  0.0000000E+00 -0.5050505E-02  0.9904978E-09  0.0000000E+00  0.4166331E-06
 -0.5050449E-02  0.0000000E+00 -0.5050505E-02  0.1080543E-08  0.0000000E+00  0.4187159E-06
 -0.5050376E-02  0.0000000E+00 -0.5050505E-02  0.1166424E-08  0.0000000E+00  0.4209756E-06
 -0.5050299E-02  0.0000000E+00 -0.5050505E-02  0.1247790E-08  0.0000000E+00  0.4234035E-06
 -0.5050178E-02  0.0000000E+00 -0.5050505E-02  0.1324309E-08  0.0000000E+00  0.4259902E-06
 -0.5050018E-02  0.0000000E+00 -0.5050505E-02  0.1395659E-08  0.0000000E+00  0.4287256E-06
 -0.5049710E-02  0.0000000E+00 -0.5050505E-02  0.1461538E-08  0.0000000E+00  0.4315990E-06
 -0.5049253E-02  0.0000000E+00 -0.5050505E-02  0.1521658E-08  0.0000000E+00  0.4345992E-06
 -0.5048636E-02  0.0000000E+00 -0.5050505E-02  0.1575753E-08  0.0000000E+00  0.4377141E-06
 -0.5047442E-02  0.0000000E+00 -0.5050505E-02  0.1623575E-08  0.0000000E+00  0.4409316E-06
 -0.5045727E-02  0.0000000E+00 -0.5050505E-02  0.1664899E-08  0.0000000E+00  0.4442388E-06
 -0.5043261E-02  0.0000000E+00 -0.5050505E-02  0.1699522E-08  0.0000000E+00  0.4476223E-06
 -0.5038714E-02  0.0000000E+00 -0.5050505E-02  0.1727266E-08  0.0000000E+00  0.4510685E-06
 -0.5032318E-02  0.0000000E+00 -0.5050505E-02  0.1747978E-08  0.0000000E+00  0.4545635E-06
 -0.5022454E-02  0.0000000E+00 -0.5050505E-02  0.1761531E-08  0.0000000E+00  0.4580929E-06
 -0.5012589E-02  0.0000000E+00 -0.5050505E-02  0.1767827E-08  0.0000000E+00  0.4616423E-06
 -0.5002725E-02  0.0000000E+00 -0.5050505E-02  0.1766795E-08  0.0000000E+00  0.4651970E-06
 -0.4992860E-02  0.0000000E+00 -0.5050505E-02  0.1758395E-08  0.0000000E+00  0.4687422E-06
 -0.4976523E-02  0.0000000E+00 -0.5050505E-02  0.1742617E-08  0.0000000E+00  0.4722631E-06
 -0.4956794E-02  0.0000000E+00 -0.5050505E-02  0.1719483E-08  0.0000000E+00  0.4757448E-06
 -0.4937066E-02  0.0000000E+00 -0.5050505E-02  0.1689046E-08  0.0000000E+00  0.4791727E-06
 -0.4906239E-02  0.0000000E+00 -0.5050505E-02  0.1651390E-08  0.0000000E+00  0.4825321E-06
 -0.4866782E-02  0.0000000E+00 -0.5050505E-02  0.1606633E-08  0.0000000E+00  0.4858086E-06
 -0.4827325E-02  0.0000000E+00 -0.5050505E-02  0.1554925E-08  0.0000000E+00  0.4889881E-06
 -0.4769372E-02  0.0000000E+00 -0.5050505E-02  0.1496448E-08  0.0000000E+00  0.4920568E-06
 -0.4690458E-02  0.0000000E+00 -0.5050505E-02  0.1431417E-08  0.0000000E+00  0.4950013E-06
 -0.4611543E-02  0.0000000E+00 -0.5050505E-02  0.1360077E-08  0.0000000E+00  0.4978087E-06
 -0.4503035E-02  0.0000000E+00 -0.5050505E-02  0.1282705E-08  0.0000000E+00  0.5004665E-06
 -0.4345206E-02  0.0000000E+00 -0.5050505E-02  0.1199606E-08  0.0000000E+00  0.5029629E-06
 -0.4187378E-02  0.0000000E+00 -0.5050505E-02  0.1111115E-08  0.0000000E+00  0.5052867E-06
 -0.3985156E-02  0.0000000E+00 -0.5050505E-02  0.1017595E-08  0.0000000E+00  0.5074275E-06
 -0.3669499E-02  0.0000000E+00 -0.5050505E-02  0.9194336E-09  0.0000000E+00  0.5093755E-06
 -0.3353842E-02  0.0000000E+00 -0.5050505E-02  0.8170422E-09  0.0000000E+00  0.5111219E-06
 -0.2978990E-02  0.0000000E+00 -0.5050505E-02  0.7108551E-09  0.0000000E+00  0.5126584E-06
 -0.2347676E-02  0.0000000E+00 -0.5050505E-02  0.6013259E-09  0.0000000E+00  0.5139781E-06
 -0.1716362E-02  0.0000000E+00 -0.5050505E-02  0.4889262E-09  0.0000000E+00  0.5150745E-06
 -0.1025842E-02  0.0000000E+00 -0.5050505E-02  0.3741428E-09  0.0000000E+00  0.5159425E-06
  0.2367855E-03  0.0000000E+00 -0.5050505E-02  0.2574755E-09  0.0000000E+00  0.5165777E-06
  0.1499413E-02  0.0000000E+00 -0.5050505E-02  0.1394339E-09  0.0000000E+00  0.5169768E-06
  0.2762042E-02  0.0000000E+00 -0.5050505E-02  0.2053548E-10  0.0000000E+00  0.5171377E-06
 -0.5050505E-02  0.0000000E+00 -0.5050505E-02 -0.9869584E-10  0.0000000E+00  0.5170591E-06
 -0.5050505E-02  0.0000000E+00 -0.5050505E-02 -0.2177380E-09  0.0000000E+00  0.5167409E-06
 -0.5050505E-02  0.0000000E+00 -0.5050505E-02 -0.3360728E-09  0.0000000E+00  0.5161839E-06
 -0.5050505E-02  0.0000000E+00 -0.5050505E-02 -0.4531766E-09  0.0000000E+00  0.5153902E-06
 -0.5050505E-02  0.0000000E+00 -0.5050505E-02 -0.5685374E-09  0.0000000E+00  0.5143627E-06
 -0.5050505E-02  0.0000000E+00 -0.5050505E-02 -0.6816523E-09  0.0000000E+00  0.5131054E-06
 -0.5050505E-02  0.0000000E+00 -0.5050505E-02 -0.7920312E-09  0.0000000E+00  0.5116233E-06
 -0.5050504E-02  0.0000000E+00 -0.5050505E-02 -0.8991974E-09  0.0000000E+00  0.5099225E-06
 -0.5050501E-02  0.0000000E+00 -0.5050505E-02 -0.1002692E-08  0.0000000E+00  0.5080098E-06
 -0.5050495E-02  0.0000000E+00 -0.5050505E-02 -0.1102074E-08  0.0000000E+00  0.5058931E-06
 -0.5050482E-02  0.0000000E+00 -0.5050505E-02 -0.1196925E-08  0.0000000E+00  0.5035811E-06
 -0.5050449E-02  0.0000000E+00 -0.5050505E-02 -0.1286849E-08  0.0000000E+00  0.5010832E-06
 -0.5050376E-02  0.0000000E+00 -0.5050505E-02 -0.1371475E-08  0.0000000E+00  0.4984098E-06
 -0.5050299E-02  0.0000000E+00 -0.5050505E-02 -0.1450459E-08  0.0000000E+00  0.4955718E-06
 -0.5050178E-02  0.0000000E+00 -0.5050505E-02 -0.1523485E-08  0.0000000E+00  0.4925810E-06
 -0.5050018E-02  0.0000000E+00 -0.5050505E-02 -0.1590264E-08  0.0000000E+00  0.4894496E-06
 -0.5049710E-02  0.0000000E+00 -0.5050505E-02 -0.1650539E-08  0.0000000E+00  0.4861904E-06
 -0.5049253E-02  0.0000000E+00 -0.5050505E-02 -0.1704083E-08  0.0000000E+00  0.4828167E-06
 -0.5048636E-02  0.0000000E+00 -0.5050505E-02 -0.1750699E-08  0.0000000E+00  0.4793423E-06
 -0.5047442E-02  0.0000000E+00 -0.5050505E-02 -0.1790222E-08  0.0000000E+00  0.4757813E-06
 -0.5045727E-02  0.0000000E+00 -0.5050505E-02 -0.1822518E-08  0.0000000E+00  0.4721480E-06
 -0.5043261E-02  0.0000000E+00 -0.5050505E-02 -0.1847485E-08  0.0000000E+00  0.4684572E-06
 -0.5038714E-02  0.0000000E+00 -0.5050505E-02 -0.1865048E-08  0.0000000E+00  0.4647236E-06
 -0.5032318E-02  0.0000000E+00 -0.5050505E-02 -0.1875165E-08  0.0000000E+00  0.4609621E-06
 -0.5022454E-02  0.0000000E+00 -0.5050505E-02 -0.1877821E-08  0.0000000E+00  0.4571878E-06
 -0.5012589E-02  0.0000000E+00 -0.5050505E-02 -0.1873028E-08  0.0000000E+00  0.4534157E-06
 -0.5002725E-02  0.0000000E+00 -0.5050505E-02 -0.1860825E-08  0.0000000E+00  0.4496607E-06
 -0.4992860E-02  0.0000000E+00 -0.5050505E-02 -0.1841273E-08  0.0000000E+00  0.4459375E-06
 -0.4976523E-02  0.0000000E+00 -0.5050505E-02 -0.1814454E-08  0.0000000E+00  0.4422611E-06
 -0.4956794E-02  0.0000000E+00 -0.5050505E-02 -0.1780465E-08  0.0000000E+00  0.4386458E-06
 -0.4937066E-02  0.0000000E+00 -0.5050505E-02 -0.1739419E-08  0.0000000E+00  0.4351059E-06
 -0.4906239E-02  0.0000000E+00 -0.5050505E-02 -0.1691432E-08  0.0000000E+00  0.4316556E-06
 -0.4866782E-02  0.0000000E+00 -0.5050505E-02 -0.1636617E-08  0.0000000E+00  0.4283086E-06
 -0.4827325E-02  0.0000000E+00 -0.5050505E-02 -0.1575073E-08  0.0000000E+00  0.4250787E-06
 -0.4769372E-02  0.0000000E+00 -0.5050505E-02 -0.1506861E-08  0.0000000E+00  0.4219793E-06
 -0.4690458E-02  0.0000000E+00 -0.5050505E-02 -0.1431978E-08  0.0000000E+00  0.4190238E-06
 -0.4611543E-02  0.0000000E+00 -0.5050505E-02 -0.1350308E-08  0.0000000E+00  0.4162257E-06
 -0.4503035E-02  0.0000000E+00 -0.5050505E-02 -0.1261543E-08  0.0000000E+00  0.4135990E-06
 -0.4345206E-02  0.0000000E+00 -0.5050505E-02 -0.1165040E-08  0.0000000E+00  0.4111587E-06
 -0.4187378E-02  0.0000000E+00 -0.5050505E-02 -0.1059573E-08  0.0000000E+00  0.4089214E-06
 -0.3985156E-02  0.0000000E+00 -0.5050505E-02 -0.9428536E-09  0.0000000E+00  0.4069076E-06
 -0.3669499E-02  0.0000000E+00 -0.5050505E-02 -0.8105526E-09  0.0000000E+00  0.4051443E-06
 -0.3353842E-02  0.0000000E+00 -0.5050505E-02 -0.6542110E-09  0.0000000E+00  0.4036712E-06
 -0.2978990E-02  0.0000000E+00 -0.5050505E-02 -0.4563721E-09  0.0000000E+00  0.4025543E-06
 -0.2347676E-02  0.0000000E+00 -0.5050505E-02 -0.1782987E-09  0.0000000E+00  0.4019161E-06
 -0.1716362E-02  0.0000000E+00 -0.5050505E-02  0.2739559E-09  0.0000000E+00  0.4020123E-06
 -0.1025842E-02  0.0000000E+00 -0.5050505E-02  0.1152462E-08  0.0000000E+00  0.4034468E-06
  0.2367855E-03  0.0000000E+00 -0.5050505E-02  0.3209070E-08  0.0000000E+00  0.4078331E-06
  0.1499413E-02  0.0000000E+00 -0.5050505E-02  0.8928356E-08  0.0000000E+00  0.4200394E-06
  0.5287294E-02  0.0000000E+00 -0.5050505E-02  0.1482281E-06  0.0000000E+00  0.3355678E-06
 -0.5050505E-02  0.0000000E+00 -0.5050505E-02  0.1656648E-09  0.0000000E+00  0.4076591E-06
 -0.5050505E-02  0.0000000E+00 -0.5050505E-02  0.4964723E-09  0.0000000E+00  0.4078824E-06
 -0.5050505E-02  0.0000000E+00 -0.5050505E-02  0.8254420E-09  0.0000000E+00  0.4083283E-06
 -0.5050505E-02  0.0000000E+00 -0.5050505E-02  0.1151272E-08  0.0000000E+00  0.4089950E-06
 -0.5050505E-02  0.0000000E+00 -0.5050505E-02  0.1472737E-08  0.0000000E+00  0.4098801E-06
 -0.5050505E-02  0.0000000E+00 -0.5050505E-02  0.1788614E-08  0.0000000E+00  0.4109801E-06
 -0.5050504E-02  0.0000000E+00 -0.5050505E-02  0.2097696E-08  0.0000000E+00  0.4122910E-06
 -0.5050501E-02  0.0000000E+00 -0.5050505E-02  0.2398793E-08  0.0000000E+00  0.4138076E-06
 -0.5050495E-02  0.0000000E+00 -0.5050505E-02  0.2690736E-08  0.0000000E+00  0.4155243E-06
 -0.5050482E-02  0.0000000E+00 -0.5050505E-02  0.2972381E-08  0.0000000E+00  0.4174345E-06
 -0.5050449E-02  0.0000000E+00 -0.5050505E-02  0.3242613E-08  0.0000000E+00  0.4195309E-06
 -0.5050376E-02  0.0000000E+00 -0.5050505E-02  0.3500350E-08  0.0000000E+00  0.4218053E-06
 -0.5050299E-02  0.0000000E+00 -0.5050505E-02  0.3744546E-08  0.0000000E+00  0.4242491E-06
 -0.5050178E-02  0.0000000E+00 -0.5050505E-02  0.3974196E-08  0.0000000E+00  0.4268528E-06
 -0.5050018E-02  0.0000000E+00 -0.5050505E-02  0.4188341E-08  0.0000000E+00  0.4296062E-06
 -0.5049710E-02  0.0000000E+00 -0.5050505E-02  0.4386069E-08  0.0000000E+00  0.4324985E-06
 -0.5049253E-02  0.0000000E+00 -0.5050505E-02  0.4566520E-08  0.0000000E+00  0.4355185E-06
 -0.5048636E-02  0.0000000E+00 -0.5050505E-02  0.4728892E-08  0.0000000E+00  0.4386542E-06
 -0.5047442E-02  0.0000000E+00 -0.5050505E-02  0.4872443E-08  0.0000000E+00  0.4418931E-06
 -0.5045727E-02  0.0000000E+00 -0.5050505E-02  0.4996496E-08  0.0000000E+00  0.4452223E-06
 -0.5043261E-02  0.0000000E+00 -0.5050505E-02  0.5100443E-08  0.0000000E+00  0.4486285E-06
 -0.5038714E-02  0.0000000E+00 -0.5050505E-02  0.5183747E-08  0.0000000E+00  0.4520979E-06
 -0.5032318E-02  0.0000000E+00 -0.5050505E-02  0.5245948E-08  0.0000000E+00  0.4556164E-06
 -0.5022454E-02  0.0000000E+00 -0.5050505E-02  0.5286666E-08  0.0000000E+00  0.4591698E-06
 -0.5012589E-02  0.0000000E+00 -0.5050505E-02  0.5305604E-08  0.0000000E+00  0.4627433E-06
 -0.5002725E-02  0.0000000E+00 -0.5050505E-02  0.5302552E-08  0.0000000E+00  0.4663222E-06
 -0.4992860E-02  0.0000000E+00 -0.5050505E-02  0.5277387E-08  0.0000000E+00  0.4698917E-06
 -0.4976523E-02  0.0000000E+00 -0.5050505E-02  0.5230080E-08  0.0000000E+00  0.4734368E-06
 -0.4956794E-02  0.0000000E+00 -0.5050505E-02  0.5160692E-08  0.0000000E+00  0.4769426E-06
 -0.4937066E-02  0.0000000E+00 -0.5050505E-02  0.5069384E-08  0.0000000E+00  0.4803942E-06
 -0.4906239E-02  0.0000000E+00 -0.5050505E-02  0.4956409E-08  0.0000000E+00  0.4837769E-06
 -0.4866782E-02  0.0000000E+00 -0.5050505E-02  0.4822120E-08  0.0000000E+00  0.4870763E-06
 -0.4827325E-02  0.0000000E+00 -0.5050505E-02  0.4666967E-08  0.0000000E+00  0.4902781E-06
 -0.4769372E-02  0.0000000E+00 -0.5050505E-02  0.4491495E-08  0.0000000E+00  0.4933684E-06
 -0.4690458E-02  0.0000000E+00 -0.5050505E-02  0.4296347E-08  0.0000000E+00  0.4963336E-06
 -0.4611543E-02  0.0000000E+00 -0.5050505E-02  0.4082260E-08  0.0000000E+00  0.4991609E-06
 -0.4503035E-02  0.0000000E+00 -0.5050505E-02  0.3850063E-08  0.0000000E+00  0.5018376E-06
 -0.4345206E-02  0.0000000E+00 -0.5050505E-02  0.3600676E-08  0.0000000E+00  0.5043518E-06
 -0.4187378E-02  0.0000000E+00 -0.5050505E-02  0.3335102E-08  0.0000000E+00  0.5066923E-06
 -0.3985156E-02  0.0000000E+00 -0.5050505E-02  0.3054430E-08  0.0000000E+00  0.5088485E-06
 -0.3669499E-02  0.0000000E+00 -0.5050505E-02  0.2759822E-08  0.0000000E+00  0.5108107E-06
 -0.3353842E-02  0.0000000E+00 -0.5050505E-02  0.2452515E-08  0.0000000E+00  0.5125697E-06
 -0.2978990E-02  0.0000000E+00 -0.5050505E-02  0.2133811E-08  0.0000000E+00  0.5141176E-06
 -0.2347676E-02  0.0000000E+00 -0.5050505E-02  0.1805074E-08  0.0000000E+00  0.5154469E-06
 -0.1716362E-02  0.0000000E+00 -0.5050505E-02  0.1467718E-08  0.0000000E+00  0.5165516E-06
 -0.1025842E-02  0.0000000E+00 -0.5050505E-02  0.1123206E-08  0.0000000E+00  0.5174261E-06
  0.2367855E-03  0.0000000E+00 -0.5050505E-02  0.7730368E-09  0.0000000E+00  0.5180663E-06
  0.1499413E-02  0.0000000E+00 -0.5050505E-02  0.4187419E-09  0.0000000E+00  0.5184688E-06
  0.2762042E-02  0.0000000E+00 -0.5050505E-02  0.6187514E-10  0.0000000E+00  0.5186313E-06
 -0.5050505E-02  0.0000000E+00 -0.5050505E-02 -0.2959928E-09  0.0000000E+00  0.5185526E-06
 -0.5050505E-02  0.0000000E+00 -0.5050505E-02 -0.6532927E-09  0.0000000E+00  0.5182326E-06
 -0.5050505E-02  0.0000000E+00 -0.5050505E-02 -0.1008467E-08  0.0000000E+00  0.5176722E-06
 -0.5050505E-02  0.0000000E+00 -0.5050505E-02 -0.1359946E-08  0.0000000E+00  0.5168733E-06
 -0.5050505E-02  0.0000000E+00 -0.5050505E-02 -0.1706193E-08  0.0000000E+00  0.5158390E-06
 -0.5050505E-02  0.0000000E+00 -0.5050505E-02 -0.2045696E-08  0.0000000E+00  0.5145734E-06
 -0.5050505E-02  0.0000000E+00 -0.5050505E-02 -0.2376984E-08  0.0000000E+00  0.5130814E-06
 -0.5050504E-02  0.0000000E+00 -0.5050505E-02 -0.2698627E-08  0.0000000E+00  0.5113691E-06
 -0.5050501E-02  0.0000000E+00 -0.5050505E-02 -0.3009246E-08  0.0000000E+00  0.5094434E-06
 -0.5050495E-02  0.0000000E+00 -0.5050505E-02 -0.3307519E-08  0.0000000E+00  0.5073124E-06
 -0.5050482E-02  0.0000000E+00 -0.5050505E-02 -0.3592189E-08  0.0000000E+00  0.5049846E-06
 -0.5050449E-02  0.0000000E+00 -0.5050505E-02 -0.3862067E-08  0.0000000E+00  0.5024698E-06
 -0.5050376E-02  0.0000000E+00 -0.5050505E-02 -0.4116042E-08  0.0000000E+00  0.4997782E-06
 -0.5050299E-02  0.0000000E+00 -0.5050505E-02 -0.4353078E-08  0.0000000E+00  0.4969210E-06
 -0.5050178E-02  0.0000000E+00 -0.5050505E-02 -0.4572227E-08  0.0000000E+00  0.4939099E-06
 -0.5050018E-02  0.0000000E+00 -0.5050505E-02 -0.4772625E-08  0.0000000E+00  0.4907573E-06
 -0.5049710E-02  0.0000000E+00 -0.5050505E-02 -0.4953500E-08  0.0000000E+00  0.4874761E-06
 -0.5049253E-02  0.0000000E+00 -0.5050505E-02 -0.5114170E-08  0.0000000E+00  0.4840797E-06
 -0.5048636E-02  0.0000000E+00 -0.5050505E-02 -0.5254046E-08  0.0000000E+00  0.4805819E-06
 -0.5047442E-02  0.0000000E+00 -0.5050505E-02 -0.5372633E-08  0.0000000E+00  0.4769970E-06
 -0.5045727E-02  0.0000000E+00 -0.5050505E-02 -0.5469529E-08  0.0000000E+00  0.4733394E-06
 -0.5043261E-02  0.0000000E+00 -0.5050505E-02 -0.5544427E-08  0.0000000E+00  0.4696239E-06
 -0.5038714E-02  0.0000000E+00 -0.5050505E-02 -0.5597108E-08  0.0000000E+00  0.4658654E-06
 -0.5032318E-02  0.0000000E+00 -0.5050505E-02 -0.5627443E-08  0.0000000E+00  0.4620789E-06
 -0.5022454E-02  0.0000000E+00 -0.5050505E-02 -0.5635391E-08  0.0000000E+00  0.4582796E-06
 -0.5012589E-02  0.0000000E+00 -0.5050505E-02 -0.5620989E-08  0.0000000E+00  0.4544824E-06
 -0.5002725E-02  0.0000000E+00 -0.5050505E-02 -0.5584355E-08  0.0000000E+00  0.4507025E-06
 -0.4992860E-02  0.0000000E+00 -0.5050505E-02 -0.5525674E-08  0.0000000E+00  0.4469548E-06
 -0.4976523E-02  0.0000000E+00 -0.5050505E-02 -0.5445195E-08  0.0000000E+00  0.4432540E-06
 -0.4956794E-02  0.0000000E+00 -0.5050505E-02 -0.5343218E-08  0.0000000E+00  0.4396147E-06
 -0.4937066E-02  0.0000000E+00 -0.5050505E-02 -0.5220083E-08  0.0000000E+00  0.4360513E-06
 -0.4906239E-02  0.0000000E+00 -0.5050505E-02 -0.5076149E-08  0.0000000E+00  0.4325779E-06
 -0.4866782E-02  0.0000000E+00 -0.5050505E-02 -0.4911768E-08  0.0000000E+00  0.4292084E-06
 -0.4827325E-02  0.0000000E+00 -0.5050505E-02 -0.4727253E-08  0.0000000E+00  0.4259564E-06
 -0.4769372E-02  0.0000000E+00 -0.5050505E-02 -0.4522819E-08  0.0000000E+00  0.4228353E-06
 -0.4690458E-02  0.0000000E+00 -0.5050505E-02 -0.4298506E-08  0.0000000E+00  0.4198584E-06
 -0.4611543E-02  0.0000000E+00 -0.5050505E-02 -0.4054046E-08  0.0000000E+00  0.4170389E-06
 -0.4503035E-02  0.0000000E+00 -0.5050505E-02 -0.3788648E-08  0.0000000E+00  0.4143903E-06
 -0.4345206E-02  0.0000000E+00 -0.5050505E-02 -0.3500643E-08  0.0000000E+00  0.4119267E-06
 -0.4187378E-02  0.0000000E+00 -0.5050505E-02 -0.3186836E-08  0.0000000E+00  0.4096632E-06
 -0.3985156E-02  0.0000000E+00 -0.5050505E-02 -0.2841328E-08  0.0000000E+00  0.4076171E-06
 -0.3669499E-02  0.0000000E+00 -0.5050505E-02 -0.2453234E-08  0.0000000E+00  0.4058093E-06
 -0.3353842E-02  0.0000000E+00 -0.5050505E-02 -0.2002044E-08  0.0000000E+00  0.4042667E-06
 -0.2978990E-02  0.0000000E+00 -0.5050505E-02 -0.1447656E-08  0.0000000E+00  0.4030249E-06
 -0.2347676E-02  0.0000000E+00 -0.5050505E-02 -0.7077315E-09  0.0000000E+00  0.4021302E-06
 -0.1716362E-02  0.0000000E+00 -0.5050505E-02  0.3969476E-09  0.0000000E+00  0.4016258E-06
 -0.1025842E-02  0.0000000E+00 -0.5050505E-02  0.2282029E-08  0.0000000E+00  0.4014591E-06
  0.2367855E-03  0.0000000E+00 -0.5050505E-02  0.5974601E-08  0.0000000E+00  0.4010146E-06
  0.1499413E-02  0.0000000E+00 -0.5050505E-02  0.1416309E-07  0.0000000E+00  0.3969226E-06
  0.5287294E-02  0.0000000E+00 -0.5050505E-02  0.3420566E-07  0.0000000E+00  0.3728794E-06
 -0.5050505E-02  0.0000000E+00 -0.5050505E-02  0.2765932E-09  0.0000000E+00  0.4091386E-06
 -0.5050505E-02  0.0000000E+00 -0.5050505E-02  0.8288625E-09  0.0000000E+00  0.4093648E-06
 -0.5050505E-02  0.0000000E+00 -0.5050505E-02  0.1378062E-08  0.0000000E+00  0.4098164E-06
 -0.5050505E-02  0.0000000E+00 -0.5050505E-02  0.1922030E-08  0.0000000E+00  0.4104917E-06
 -0.5050505E-02  0.0000000E+00 -0.5050505E-02  0.2458717E-08  0.0000000E+00  0.4113881E-06
 -0.5050505E-02  0.0000000E+00 -0.5050505E-02  0.2986084E-08  0.0000000E+00  0.4125023E-06
 -0.5050504E-02  0.0000000E+00 -0.5050505E-02  0.3502116E-08  0.0000000E+00  0.4138300E-06
 -0.5050501E-02  0.0000000E+00 -0.5050505E-02  0.4004826E-08  0.0000000E+00  0.4153662E-06
 -0.5050495E-02  0.0000000E+00 -0.5050505E-02  0.4492263E-08  0.0000000E+00  0.4171051E-06
 -0.5050482E-02  0.0000000E+00 -0.5050505E-02  0.4962519E-08  0.0000000E+00  0.4190399E-06
 -0.5050449E-02  0.0000000E+00 -0.5050505E-02  0.5413732E-08  0.0000000E+00  0.4211635E-06
 -0.5050376E-02  0.0000000E+00 -0.5050505E-02  0.5844097E-08  0.0000000E+00  0.4234675E-06
 -0.5050299E-02  0.0000000E+00 -0.5050505E-02  0.6251867E-08  0.0000000E+00  0.4259431E-06
 -0.5050178E-02  0.0000000E+00 -0.5050505E-02  0.6635367E-08  0.0000000E+00  0.4285807E-06
 -0.5050018E-02  0.0000000E+00 -0.5050505E-02  0.6992991E-08  0.0000000E+00  0.4313701E-06
 -0.5049710E-02  0.0000000E+00 -0.5050505E-02  0.7323217E-08  0.0000000E+00  0.4343005E-06
 -0.5049253E-02  0.0000000E+00 -0.5050505E-02  0.7624610E-08  0.0000000E+00  0.4373602E-06
 -0.5048636E-02  0.0000000E+00 -0.5050505E-02  0.7895829E-08  0.0000000E+00  0.4405372E-06
 -0.5047442E-02  0.0000000E+00 -0.5050505E-02  0.8135635E-08  0.0000000E+00  0.4438190E-06
 -0.5045727E-02  0.0000000E+00 -0.5050505E-02  0.8342894E-08  0.0000000E+00  0.4471925E-06
 -0.5043261E-02  0.0000000E+00 -0.5050505E-02  0.8516589E-08  0.0000000E+00  0.4506441E-06
 -0.5038714E-02  0.0000000E+00 -0.5050505E-02  0.8655824E-08  0.0000000E+00  0.4541600E-06
 -0.5032318E-02  0.0000000E+00 -0.5050505E-02  0.8759829E-08  0.0000000E+00  0.4577258E-06
 -0.5022454E-02  0.0000000E+00 -0.5050505E-02  0.8827966E-08  0.0000000E+00  0.4613270E-06
 -0.5012589E-02  0.0000000E+00 -0.5050505E-02  0.8859738E-08  0.0000000E+00  0.4649488E-06
 -0.5002725E-02  0.0000000E+00 -0.5050505E-02  0.8854791E-08  0.0000000E+00  0.4685764E-06
 -0.4992860E-02  0.0000000E+00 -0.5050505E-02  0.8812919E-08  0.0000000E+00  0.4721945E-06
 -0.4976523E-02  0.0000000E+00 -0.5050505E-02  0.8734068E-08  0.0000000E+00  0.4757881E-06
 -0.4956794E-02  0.0000000E+00 -0.5050505E-02  0.8618343E-08  0.0000000E+00  0.4793420E-06
 -0.4937066E-02  0.0000000E+00 -0.5050505E-02  0.8466005E-08  0.0000000E+00  0.4828412E-06
 -0.4906239E-02  0.0000000E+00 -0.5050505E-02  0.8277480E-08  0.0000000E+00  0.4862707E-06
 -0.4866782E-02  0.0000000E+00 -0.5050505E-02  0.8053351E-08  0.0000000E+00  0.4896159E-06
 -0.4827325E-02  0.0000000E+00 -0.5050505E-02  0.7794370E-08  0.0000000E+00  0.4928623E-06
 -0.4769372E-02  0.0000000E+00 -0.5050505E-02  0.7501446E-08  0.0000000E+00  0.4959958E-06
 -0.4690458E-02  0.0000000E+00 -0.5050505E-02  0.7175651E-08  0.0000000E+00  0.4990027E-06
 -0.4611543E-02  0.0000000E+00 -0.5050505E-02  0.6818214E-08  0.0000000E+00  0.5018698E-06
 -0.4503035E-02  0.0000000E+00 -0.5050505E-02  0.6430521E-08  0.0000000E+00  0.5045844E-06
 -0.4345206E-02  0.0000000E+00 -0.5050505E-02  0.6014104E-08  0.0000000E+00  0.5071344E-06
 -0.4187378E-02  0.0000000E+00 -0.5050505E-02  0.5570641E-08  0.0000000E+00  0.5095083E-06
 -0.3985156E-02  0.0000000E+00 -0.5050505E-02  0.5101948E-08  0.0000000E+00  0.5116955E-06
 -0.3669499E-02  0.0000000E+00 -0.5050505E-02  0.4609969E-08  0.0000000E+00  0.5136859E-06
 -0.3353842E-02  0.0000000E+00 -0.5050505E-02  0.4096769E-08  0.0000000E+00  0.5154704E-06
 -0.2978990E-02  0.0000000E+00 -0.5050505E-02  0.3564524E-08  0.0000000E+00  0.5170408E-06
 -0.2347676E-02  0.0000000E+00 -0.5050505E-02  0.3015510E-08  0.0000000E+00  0.5183898E-06
 -0.1716362E-02  0.0000000E+00 -0.5050505E-02  0.2452094E-08  0.0000000E+00  0.5195109E-06
 -0.1025842E-02  0.0000000E+00 -0.5050505E-02  0.1876716E-08  0.0000000E+00  0.5203986E-06
  0.2367855E-03  0.0000000E+00 -0.5050505E-02  0.1291885E-08  0.0000000E+00  0.5210487E-06
  0.1499413E-02  0.0000000E+00 -0.5050505E-02  0.7001584E-09  0.0000000E+00  0.5214578E-06
  0.2762042E-02  0.0000000E+00 -0.5050505E-02  0.1041356E-09  0.0000000E+00  0.5216235E-06
 -0.5050505E-02  0.0000000E+00 -0.5050505E-02 -0.4935636E-09  0.0000000E+00  0.5215447E-06
 -0.5050505E-02  0.0000000E+00 -0.5050505E-02 -0.1090313E-08  0.0000000E+00  0.5212212E-06
 -0.5050505E-02  0.0000000E+00 -0.5050505E-02 -0.1683509E-08  0.0000000E+00  0.5206538E-06
 -0.5050505E-02  0.0000000E+00 -0.5050505E-02 -0.2270528E-08  0.0000000E+00  0.5198447E-06
 -0.5050505E-02  0.0000000E+00 -0.5050505E-02 -0.2848803E-08  0.0000000E+00  0.5187969E-06
 -0.5050505E-02  0.0000000E+00 -0.5050505E-02 -0.3415808E-08  0.0000000E+00  0.5175144E-06
 -0.5050505E-02  0.0000000E+00 -0.5050505E-02 -0.3969085E-08  0.0000000E+00  0.5160025E-06
 -0.5050504E-02  0.0000000E+00 -0.5050505E-02 -0.4506244E-08  0.0000000E+00  0.5142672E-06
 -0.5050501E-02  0.0000000E+00 -0.5050505E-02 -0.5024980E-08  0.0000000E+00  0.5123156E-06
 -0.5050495E-02  0.0000000E+00 -0.5050505E-02 -0.5523086E-08  0.0000000E+00  0.5101558E-06
 -0.5050482E-02  0.0000000E+00 -0.5050505E-02 -0.5998460E-08  0.0000000E+00  0.5077966E-06
 -0.5050449E-02  0.0000000E+00 -0.5050505E-02 -0.6449119E-08  0.0000000E+00  0.5052477E-06
 -0.5050376E-02  0.0000000E+00 -0.5050505E-02 -0.6873205E-08  0.0000000E+00  0.5025198E-06
 -0.5050299E-02  0.0000000E+00 -0.5050505E-02 -0.7268991E-08  0.0000000E+00  0.4996240E-06
 -0.5050178E-02  0.0000000E+00 -0.5050505E-02 -0.7634893E-08  0.0000000E+00  0.4965723E-06
 -0.5050018E-02  0.0000000E+00 -0.5050505E-02 -0.7969471E-08  0.0000000E+00  0.4933772E-06
 -0.5049710E-02  0.0000000E+00 -0.5050505E-02 -0.8271435E-08  0.0000000E+00  0.4900519E-06
 -0.5049253E-02  0.0000000E+00 -0.5050505E-02 -0.8539648E-08  0.0000000E+00  0.4866099E-06
 -0.5048636E-02  0.0000000E+00 -0.5050505E-02 -0.8773129E-08  0.0000000E+00  0.4830653E-06
 -0.5047442E-02  0.0000000E+00 -0.5050505E-02 -0.8971055E-08  0.0000000E+00  0.4794325E-06
 -0.5045727E-02  0.0000000E+00 -0.5050505E-02 -0.9132757E-08  0.0000000E+00  0.4757261E-06
 -0.5043261E-02  0.0000000E+00 -0.5050505E-02 -0.9257723E-08  0.0000000E+00  0.4719612E-06
 -0.5038714E-02  0.0000000E+00 -0.5050505E-02 -0.9345593E-08  0.0000000E+00  0.4681528E-06
 -0.5032318E-02  0.0000000E+00 -0.5050505E-02 -0.9396156E-08  0.0000000E+00  0.4643162E-06
 -0.5022454E-02  0.0000000E+00 -0.5050505E-02 -0.9409346E-08  0.0000000E+00  0.4604666E-06
 -0.5012589E-02  0.0000000E+00 -0.5050505E-02 -0.9385233E-08  0.0000000E+00  0.4566194E-06
 -0.5002725E-02  0.0000000E+00 -0.5050505E-02 -0.9324019E-08  0.0000000E+00  0.4527897E-06
 -0.4992860E-02  0.0000000E+00 -0.5050505E-02 -0.9226021E-08  0.0000000E+00  0.4489926E-06
 -0.4976523E-02  0.0000000E+00 -0.5050505E-02 -0.9091666E-08  0.0000000E+00  0.4452431E-06
 -0.4956794E-02  0.0000000E+00 -0.5050505E-02 -0.8921470E-08  0.0000000E+00  0.4415558E-06
 -0.4937066E-02  0.0000000E+00 -0.5050505E-02 -0.8716017E-08  0.0000000E+00  0.4379454E-06
 -0.4906239E-02  0.0000000E+00 -0.5050505E-02 -0.8475933E-08  0.0000000E+00  0.4344259E-06
 -0.4866782E-02  0.0000000E+00 -0.5050505E-02 -0.8201847E-08  0.0000000E+00  0.4310113E-06
 -0.4827325E-02  0.0000000E+00 -0.5050505E-02 -0.7894338E-08  0.0000000E+00  0.4277152E-06
 -0.4769372E-02  0.0000000E+00 -0.5050505E-02 -0.7553859E-08  0.0000000E+00  0.4245509E-06
 -0.4690458E-02  0.0000000E+00 -0.5050505E-02 -0.7180619E-08  0.0000000E+00  0.4215315E-06
 -0.4611543E-02  0.0000000E+00 -0.5050505E-02 -0.6774409E-08  0.0000000E+00  0.4186696E-06
 -0.4503035E-02  0.0000000E+00 -0.5050505E-02 -0.6334323E-08  0.0000000E+00  0.4159781E-06
 -0.4345206E-02  0.0000000E+00 -0.5050505E-02 -0.5858298E-08  0.0000000E+00  0.4134695E-06
 -0.4187378E-02  0.0000000E+00 -0.5050505E-02 -0.5342350E-08  0.0000000E+00  0.4111566E-06
 -0.3985156E-02  0.0000000E+00 -0.5050505E-02 -0.4779250E-08  0.0000000E+00  0.4090521E-06
 -0.3669499E-02  0.0000000E+00 -0.5050505E-02 -0.4156180E-08  0.0000000E+00  0.4071685E-06
 -0.3353842E-02  0.0000000E+00 -0.5050505E-02 -0.3450501E-08  0.0000000E+00  0.4055168E-06
 -0.2978990E-02  0.0000000E+00 -0.5050505E-02 -0.2622029E-08  0.0000000E+00  0.4041014E-06
 -0.2347676E-02  0.0000000E+00 -0.5050505E-02 -0.1599211E-08  0.0000000E+00  0.4029064E-06
 -0.1716362E-02  0.0000000E+00 -0.5050505E-02 -0.2563433E-09  0.0000000E+00  0.4018555E-06
 -0.1025842E-02  0.0000000E+00 -0.5050505E-02  0.1612903E-08  0.0000000E+00  0.4007075E-06
  0.2367855E-03  0.0000000E+00 -0.5050505E-02  0.4267805E-08  0.0000000E+00  0.3988092E-06
  0.1499413E-02  0.0000000E+00 -0.5050505E-02  0.7614319E-08  0.0000000E+00  0.3947126E-06
  0.5287294E-02  0.0000000E+00 -0.5050505E-02  0.8860924E-08  0.0000000E+00  0.3869550E-06
 -0.5050505E-02  0.0000000E+00 -0.5050505E-02  0.3886940E-09  0.0000000E+00  0.4113620E-06
 -0.5050505E-02  0.0000000E+00 -0.5050505E-02  0.1164755E-08  0.0000000E+00  0.4115925E-06
 -0.5050505E-02  0.0000000E+00 -0.5050505E-02  0.1936500E-08  0.0000000E+00  0.4120527E-06
 -0.5050505E-02  0.0000000E+00 -0.5050505E-02  0.2700906E-08  0.0000000E+00  0.4127409E-06
 -0.5050505E-02  0.0000000E+00 -0.5050505E-02  0.3455095E-08  0.0000000E+00  0.4136544E-06
 -0.5050505E-02  0.0000000E+00 -0.5050505E-02  0.4196203E-08  0.0000000E+00  0.4147899E-06
 -0.5050504E-02  0.0000000E+00 -0.5050505E-02  0.4921399E-08  0.0000000E+00  0.4161430E-06
 -0.5050501E-02  0.0000000E+00 -0.5050505E-02  0.5627896E-08  0.0000000E+00  0.4177086E-06
 -0.5050495E-02  0.0000000E+00 -0.5050505E-02  0.6312952E-08  0.0000000E+00  0.4194808E-06
 -0.5050482E-02  0.0000000E+00 -0.5050505E-02  0.6973887E-08  0.0000000E+00  0.4214529E-06
 -0.5050449E-02  0.0000000E+00 -0.5050505E-02  0.7608087E-08  0.0000000E+00  0.4236173E-06
 -0.5050376E-02  0.0000000E+00 -0.5050505E-02  0.8213015E-08  0.0000000E+00  0.4259658E-06
 -0.5050299E-02  0.0000000E+00 -0.5050505E-02  0.8786219E-08  0.0000000E+00  0.4284893E-06
 -0.5050178E-02  0.0000000E+00 -0.5050505E-02  0.9325339E-08  0.0000000E+00  0.4311781E-06
 -0.5050018E-02  0.0000000E+00 -0.5050505E-02  0.9828123E-08  0.0000000E+00  0.4340217E-06
 -0.5049710E-02  0.0000000E+00 -0.5050505E-02  0.1029243E-07  0.0000000E+00  0.4370092E-06
 -0.5049253E-02  0.0000000E+00 -0.5050505E-02  0.1071624E-07  0.0000000E+00  0.4401288E-06
 -0.5048636E-02  0.0000000E+00 -0.5050505E-02  0.1109767E-07  0.0000000E+00  0.4433682E-06
 -0.5047442E-02  0.0000000E+00 -0.5050505E-02  0.1143496E-07  0.0000000E+00  0.4467146E-06
 -0.5045727E-02  0.0000000E+00 -0.5050505E-02  0.1172654E-07  0.0000000E+00  0.4501547E-06
 -0.5043261E-02  0.0000000E+00 -0.5050505E-02  0.1197096E-07  0.0000000E+00  0.4536747E-06
 -0.5038714E-02  0.0000000E+00 -0.5050505E-02  0.1216695E-07  0.0000000E+00  0.4572604E-06
 -0.5032318E-02  0.0000000E+00 -0.5050505E-02  0.1231345E-07  0.0000000E+00  0.4608974E-06
 -0.5022454E-02  0.0000000E+00 -0.5050505E-02  0.1240953E-07  0.0000000E+00  0.4645707E-06
 -0.5012589E-02  0.0000000E+00 -0.5050505E-02  0.1245450E-07  0.0000000E+00  0.4682654E-06
 -0.5002725E-02  0.0000000E+00 -0.5050505E-02  0.1244787E-07  0.0000000E+00  0.4719661E-06
 -0.4992860E-02  0.0000000E+00 -0.5050505E-02  0.1238932E-07  0.0000000E+00  0.4756575E-06
 -0.4976523E-02  0.0000000E+00 -0.5050505E-02  0.1227879E-07  0.0000000E+00  0.4793241E-06
 -0.4956794E-02  0.0000000E+00 -0.5050505E-02  0.1211641E-07  0.0000000E+00  0.4829505E-06
 -0.4937066E-02  0.0000000E+00 -0.5050505E-02  0.1190255E-07  0.0000000E+00  0.4865214E-06