title = "dataset feddes"
variables = "x", "y", "z", "vx", "vy", "vz"
zone t = "velocities, solution time =  1.200E+01 days        " i =   99, j =   99, k =    1,  f=point
 -0.5050505E-02  0.0000000E+00 -0.5050505E-02 -0.2871669E-14  0.0000000E+00 -0.9397918E-10
 -0.5050505E-02  0.0000000E+00 -0.5050505E-02  0.7707771E-14  0.0000000E+00 -0.9397434E-10
 -0.5050505E-02  0.0000000E+00 -0.5050505E-02  0.1444832E-13  0.0000000E+00 -0.9395218E-10
 -0.5050505E-02  0.0000000E+00 -0.5050505E-02  0.2019916E-13  0.0000000E+00 -0.9391754E-10
 -0.5050505E-02  0.0000000E+00 -0.5050505E-02  0.2798940E-13  0.0000000E+00 -0.9386935E-10
 -0.5050505E-02  0.0000000E+00 -0.5050505E-02  0.3545724E-13  0.0000000E+00 -0.9380590E-10
 -0.5050504E-02  0.0000000E+00 -0.5050505E-02  0.4242273E-13  0.0000000E+00 -0.9372802E-10
 -0.5050501E-02  0.0000000E+00 -0.5050505E-02  0.4901332E-13  0.0000000E+00 -0.9363658E-10
 -0.5050495E-02  0.0000000E+00 -0.5050505E-02  0.5530400E-13  0.0000000E+00 -0.9353227E-10
 -0.5050482E-02  0.0000000E+00 -0.5050505E-02  0.6134726E-13  0.0000000E+00 -0.9341562E-10
 -0.5050449E-02  0.0000000E+00 -0.5050505E-02  0.6716557E-13  0.0000000E+00 -0.9328710E-10
 -0.5050376E-02  0.0000000E+00 -0.5050505E-02  0.7271397E-13  0.0000000E+00 -0.9314722E-10
 -0.5050299E-02  0.0000000E+00 -0.5050505E-02  0.7800744E-13  0.0000000E+00 -0.9299650E-10
 -0.5050178E-02  0.0000000E+00 -0.5050505E-02  0.8297850E-13  0.0000000E+00 -0.9283552E-10
 -0.5050018E-02  0.0000000E+00 -0.5050505E-02  0.8768714E-13  0.0000000E+00 -0.9266485E-10
 -0.5049710E-02  0.0000000E+00 -0.5050505E-02  0.9203588E-13  0.0000000E+00 -0.9248513E-10
 -0.5049253E-02  0.0000000E+00 -0.5050505E-02  0.9606971E-13  0.0000000E+00 -0.9229702E-10
 -0.5048636E-02  0.0000000E+00 -0.5050505E-02  0.9969866E-13  0.0000000E+00 -0.9210125E-10
 -0.5047442E-02  0.0000000E+00 -0.5050505E-02  0.1029827E-12  0.0000000E+00 -0.9189857E-10
 -0.5045727E-02  0.0000000E+00 -0.5050505E-02  0.1058394E-12  0.0000000E+00 -0.9168975E-10
 -0.5043261E-02  0.0000000E+00 -0.5050505E-02  0.1082762E-12  0.0000000E+00 -0.9147563E-10
 -0.5038714E-02  0.0000000E+00 -0.5050505E-02  0.1103006E-12  0.0000000E+00 -0.9125706E-10
 -0.5032318E-02  0.0000000E+00 -0.5050505E-02  0.1118601E-12  0.0000000E+00 -0.9103490E-10
 -0.5022454E-02  0.0000000E+00 -0.5050505E-02  0.1129998E-12  0.0000000E+00 -0.9081004E-10
 -0.5012589E-02  0.0000000E+00 -0.5050505E-02  0.1136296E-12  0.0000000E+00 -0.9058341E-10
 -0.5002725E-02  0.0000000E+00 -0.5050505E-02  0.1138096E-12  0.0000000E+00 -0.9035597E-10
 -0.4992860E-02  0.0000000E+00 -0.5050505E-02  0.1135172E-12  0.0000000E+00 -0.9012864E-10
 -0.4976523E-02  0.0000000E+00 -0.5050505E-02  0.1127374E-12  0.0000000E+00 -0.8990239E-10
 -0.4956794E-02  0.0000000E+00 -0.5050505E-02  0.1114628E-12  0.0000000E+00 -0.8967819E-10
 -0.4937066E-02  0.0000000E+00 -0.5050505E-02  0.1097158E-12  0.0000000E+00 -0.8945701E-10
 -0.4906239E-02  0.0000000E+00 -0.5050505E-02  0.1074514E-12  0.0000000E+00 -0.8923984E-10
 -0.4866782E-02  0.0000000E+00 -0.5050505E-02  0.1047447E-12  0.0000000E+00 -0.8902764E-10
 -0.4827325E-02  0.0000000E+00 -0.5050505E-02  0.1015656E-12  0.0000000E+00 -0.8882133E-10
 -0.4769372E-02  0.0000000E+00 -0.5050505E-02  0.9787669E-13  0.0000000E+00 -0.8862189E-10
 -0.4690458E-02  0.0000000E+00 -0.5050505E-02  0.9374539E-13  0.0000000E+00 -0.8843027E-10
 -0.4611543E-02  0.0000000E+00 -0.5050505E-02  0.8920170E-13  0.0000000E+00 -0.8824732E-10
 -0.4503035E-02  0.0000000E+00 -0.5050505E-02  0.8420065E-13  0.0000000E+00 -0.8807392E-10
 -0.4345206E-02  0.0000000E+00 -0.5050505E-02  0.7881720E-13  0.0000000E+00 -0.8791090E-10
 -0.4187378E-02  0.0000000E+00 -0.5050505E-02  0.7303638E-13  0.0000000E+00 -0.8775905E-10
 -0.3985156E-02  0.0000000E+00 -0.5050505E-02  0.6689565E-13  0.0000000E+00 -0.8761912E-10
 -0.3669499E-02  0.0000000E+00 -0.5050505E-02  0.6042502E-13  0.0000000E+00 -0.8749180E-10
 -0.3353842E-02  0.0000000E+00 -0.5050505E-02  0.5359450E-13  0.0000000E+00 -0.8737778E-10
 -0.2978990E-02  0.0000000E+00 -0.5050505E-02  0.4650905E-13  0.0000000E+00 -0.8727767E-10
 -0.2347676E-02  0.0000000E+00 -0.5050505E-02  0.3904121E-13  0.0000000E+00 -0.8719212E-10
 -0.1716362E-02  0.0000000E+00 -0.5050505E-02  0.3134843E-13  0.0000000E+00 -0.8712173E-10
 -0.1025842E-02  0.0000000E+00 -0.5050505E-02  0.2334825E-13  0.0000000E+00 -0.8706704E-10
  0.2367855E-03  0.0000000E+00 -0.5050505E-02  0.1513812E-13  0.0000000E+00 -0.8702855E-10
  0.1499413E-02  0.0000000E+00 -0.5050505E-02  0.6800533E-14  0.0000000E+00 -0.8700661E-10
  0.2762042E-02  0.0000000E+00 -0.5050505E-02 -0.1484571E-14  0.0000000E+00 -0.8700130E-10
 -0.5050505E-02  0.0000000E+00 -0.5050505E-02 -0.6493122E-14  0.0000000E+00 -0.8700927E-10
 -0.5050505E-02  0.0000000E+00 -0.5050505E-02 -0.1243890E-13  0.0000000E+00 -0.8702821E-10
 -0.5050505E-02  0.0000000E+00 -0.5050505E-02 -0.2157126E-13  0.0000000E+00 -0.8706222E-10
 -0.5050505E-02  0.0000000E+00 -0.5050505E-02 -0.3026875E-13  0.0000000E+00 -0.8711406E-10
 -0.5050505E-02  0.0000000E+00 -0.5050505E-02 -0.3841139E-13  0.0000000E+00 -0.8718274E-10
 -0.5050505E-02  0.0000000E+00 -0.5050505E-02 -0.4599170E-13  0.0000000E+00 -0.8726714E-10
 -0.5050505E-02  0.0000000E+00 -0.5050505E-02 -0.5325710E-13  0.0000000E+00 -0.8736639E-10
 -0.5050504E-02  0.0000000E+00 -0.5050505E-02 -0.6021508E-13  0.0000000E+00 -0.8747986E-10
 -0.5050501E-02  0.0000000E+00 -0.5050505E-02 -0.6682067E-13  0.0000000E+00 -0.8760690E-10
 -0.5050495E-02  0.0000000E+00 -0.5050505E-02 -0.7314884E-13  0.0000000E+00 -0.8774687E-10
 -0.5050482E-02  0.0000000E+00 -0.5050505E-02 -0.7913961E-13  0.0000000E+00 -0.8789915E-10
 -0.5050449E-02  0.0000000E+00 -0.5050505E-02 -0.8477798E-13  0.0000000E+00 -0.8806307E-10
 -0.5050376E-02  0.0000000E+00 -0.5050505E-02 -0.9003396E-13  0.0000000E+00 -0.8823788E-10
 -0.5050299E-02  0.0000000E+00 -0.5050505E-02 -0.9486256E-13  0.0000000E+00 -0.8842278E-10
 -0.5050178E-02  0.0000000E+00 -0.5050505E-02 -0.9930878E-13  0.0000000E+00 -0.8861695E-10
 -0.5050018E-02  0.0000000E+00 -0.5050505E-02 -0.1032976E-12  0.0000000E+00 -0.8881956E-10
 -0.5049710E-02  0.0000000E+00 -0.5050505E-02 -0.1068366E-12  0.0000000E+00 -0.8902969E-10
 -0.5049253E-02  0.0000000E+00 -0.5050505E-02 -0.1099257E-12  0.0000000E+00 -0.8924645E-10
 -0.5048636E-02  0.0000000E+00 -0.5050505E-02 -0.1125499E-12  0.0000000E+00 -0.8946893E-10
 -0.5047442E-02  0.0000000E+00 -0.5050505E-02 -0.1147318E-12  0.0000000E+00 -0.8969621E-10
 -0.5045727E-02  0.0000000E+00 -0.5050505E-02 -0.1164113E-12  0.0000000E+00 -0.8992735E-10
 -0.5043261E-02  0.0000000E+00 -0.5050505E-02 -0.1176410E-12  0.0000000E+00 -0.9016141E-10
 -0.5038714E-02  0.0000000E+00 -0.5050505E-02 -0.1183983E-12  0.0000000E+00 -0.9039745E-10
 -0.5032318E-02  0.0000000E+00 -0.5050505E-02 -0.1186832E-12  0.0000000E+00 -0.9063453E-10
 -0.5022454E-02  0.0000000E+00 -0.5050505E-02 -0.1185632E-12  0.0000000E+00 -0.9087177E-10
 -0.5012589E-02  0.0000000E+00 -0.5050505E-02 -0.1179934E-12  0.0000000E+00 -0.9110833E-10
 -0.5002725E-02  0.0000000E+00 -0.5050505E-02 -0.1169812E-12  0.0000000E+00 -0.9134331E-10
 -0.4992860E-02  0.0000000E+00 -0.5050505E-02 -0.1155941E-12  0.0000000E+00 -0.9157588E-10
 -0.4976523E-02  0.0000000E+00 -0.5050505E-02 -0.1138321E-12  0.0000000E+00 -0.9180531E-10
 -0.4956794E-02  0.0000000E+00 -0.5050505E-02 -0.1116952E-12  0.0000000E+00 -0.9203083E-10
 -0.4937066E-02  0.0000000E+00 -0.5050505E-02 -0.1092359E-12  0.0000000E+00 -0.9225176E-10
 -0.4906239E-02  0.0000000E+00 -0.5050505E-02 -0.1065217E-12  0.0000000E+00 -0.9246752E-10
 -0.4866782E-02  0.0000000E+00 -0.5050505E-02 -0.1035451E-12  0.0000000E+00 -0.9267759E-10
 -0.4827325E-02  0.0000000E+00 -0.5050505E-02 -0.1003885E-12  0.0000000E+00 -0.9288152E-10
 -0.4769372E-02  0.0000000E+00 -0.5050505E-02 -0.9708942E-13  0.0000000E+00 -0.9307900E-10
 -0.4690458E-02  0.0000000E+00 -0.5050505E-02 -0.9376788E-13  0.0000000E+00 -0.9326986E-10
 -0.4611543E-02  0.0000000E+00 -0.5050505E-02 -0.9051382E-13  0.0000000E+00 -0.9345414E-10
 -0.4503035E-02  0.0000000E+00 -0.5050505E-02 -0.8754468E-13  0.0000000E+00 -0.9363220E-10
 -0.4345206E-02  0.0000000E+00 -0.5050505E-02 -0.8504040E-13  0.0000000E+00 -0.9380478E-10
 -0.4187378E-02  0.0000000E+00 -0.5050505E-02 -0.8347336E-13  0.0000000E+00 -0.9397330E-10
 -0.3985156E-02  0.0000000E+00 -0.5050505E-02 -0.8348085E-13  0.0000000E+00 -0.9414025E-10
 -0.3669499E-02  0.0000000E+00 -0.5050505E-02 -0.8618007E-13  0.0000000E+00 -0.9430991E-10
 -0.3353842E-02  0.0000000E+00 -0.5050505E-02 -0.9375288E-13  0.0000000E+00 -0.9448985E-10
 -0.2978990E-02  0.0000000E+00 -0.5050505E-02 -0.1105480E-12  0.0000000E+00 -0.9469415E-10
 -0.2347676E-02  0.0000000E+00 -0.5050505E-02 -0.1459753E-12  0.0000000E+00 -0.9495067E-10
 -0.1716362E-02  0.0000000E+00 -0.5050505E-02 -0.2227231E-12  0.0000000E+00 -0.9531937E-10
 -0.1025842E-02  0.0000000E+00 -0.5050505E-02 -0.4015539E-12  0.0000000E+00 -0.9594364E-10
  0.2367855E-03  0.0000000E+00 -0.5050505E-02 -0.8626030E-12  0.0000000E+00 -0.9720780E-10
  0.1499413E-02  0.0000000E+00 -0.5050505E-02 -0.2199541E-11  0.0000000E+00 -0.1002699E-09
  0.5287294E-02  0.0000000E+00 -0.5050505E-02 -0.3554223E-10  0.0000000E+00 -0.8020040E-10
 -0.5050505E-02  0.0000000E+00 -0.5050505E-02 -0.4325532E-14  0.0000000E+00 -0.9381594E-10
 -0.5050505E-02  0.0000000E+00 -0.5050505E-02  0.2379718E-13  0.0000000E+00 -0.9380611E-10
 -0.5050505E-02  0.0000000E+00 -0.5050505E-02  0.4365231E-13  0.0000000E+00 -0.9378285E-10
 -0.5050505E-02  0.0000000E+00 -0.5050505E-02  0.6157831E-13  0.0000000E+00 -0.9374672E-10
 -0.5050505E-02  0.0000000E+00 -0.5050505E-02  0.8459310E-13  0.0000000E+00 -0.9369665E-10
 -0.5050505E-02  0.0000000E+00 -0.5050505E-02  0.1068307E-12  0.0000000E+00 -0.9363177E-10
 -0.5050504E-02  0.0000000E+00 -0.5050505E-02  0.1277458E-12  0.0000000E+00 -0.9355251E-10
 -0.5050501E-02  0.0000000E+00 -0.5050505E-02  0.1475479E-12  0.0000000E+00 -0.9345958E-10
 -0.5050495E-02  0.0000000E+00 -0.5050505E-02  0.1664835E-12  0.0000000E+00 -0.9335359E-10
 -0.5050482E-02  0.0000000E+00 -0.5050505E-02  0.1846870E-12  0.0000000E+00 -0.9323507E-10
 -0.5050449E-02  0.0000000E+00 -0.5050505E-02  0.2021735E-12  0.0000000E+00 -0.9310451E-10
 -0.5050376E-02  0.0000000E+00 -0.5050505E-02  0.2189054E-12  0.0000000E+00 -0.9296241E-10
 -0.5050299E-02  0.0000000E+00 -0.5050505E-02  0.2348083E-12  0.0000000E+00 -0.9280929E-10
 -0.5050178E-02  0.0000000E+00 -0.5050505E-02  0.2498371E-12  0.0000000E+00 -0.9264571E-10
 -0.5050018E-02  0.0000000E+00 -0.5050505E-02  0.2639623E-12  0.0000000E+00 -0.9247228E-10
 -0.5049710E-02  0.0000000E+00 -0.5050505E-02  0.2771013E-12  0.0000000E+00 -0.9228966E-10
 -0.5049253E-02  0.0000000E+00 -0.5050505E-02  0.2892097E-12  0.0000000E+00 -0.9209850E-10
 -0.5048636E-02  0.0000000E+00 -0.5050505E-02  0.3001751E-12  0.0000000E+00 -0.9189955E-10
 -0.5047442E-02  0.0000000E+00 -0.5050505E-02  0.3100351E-12  0.0000000E+00 -0.9169357E-10
 -0.5045727E-02  0.0000000E+00 -0.5050505E-02  0.3186475E-12  0.0000000E+00 -0.9148135E-10
 -0.5043261E-02  0.0000000E+00 -0.5050505E-02  0.3260125E-12  0.0000000E+00 -0.9126372E-10
 -0.5038714E-02  0.0000000E+00 -0.5050505E-02  0.3320779E-12  0.0000000E+00 -0.9104156E-10
 -0.5032318E-02  0.0000000E+00 -0.5050505E-02  0.3368360E-12  0.0000000E+00 -0.9081572E-10
 -0.5022454E-02  0.0000000E+00 -0.5050505E-02  0.3402049E-12  0.0000000E+00 -0.9058713E-10
 -0.5012589E-02  0.0000000E+00 -0.5050505E-02  0.3421693E-12  0.0000000E+00 -0.9035674E-10
 -0.5002725E-02  0.0000000E+00 -0.5050505E-02  0.3426997E-12  0.0000000E+00 -0.9012547E-10
 -0.4992860E-02  0.0000000E+00 -0.5050505E-02  0.3418108E-12  0.0000000E+00 -0.8989434E-10
 -0.4976523E-02  0.0000000E+00 -0.5050505E-02  0.3394952E-12  0.0000000E+00 -0.8966427E-10
 -0.4956794E-02  0.0000000E+00 -0.5050505E-02  0.3356558E-12  0.0000000E+00 -0.8943626E-10
 -0.4937066E-02  0.0000000E+00 -0.5050505E-02  0.3303822E-12  0.0000000E+00 -0.8921134E-10
 -0.4906239E-02  0.0000000E+00 -0.5050505E-02  0.3236221E-12  0.0000000E+00 -0.8899045E-10
 -0.4866782E-02  0.0000000E+00 -0.5050505E-02  0.3154578E-12  0.0000000E+00 -0.8877457E-10
 -0.4827325E-02  0.0000000E+00 -0.5050505E-02  0.3058295E-12  0.0000000E+00 -0.8856474E-10
 -0.4769372E-02  0.0000000E+00 -0.5050505E-02  0.2947818E-12  0.0000000E+00 -0.8836189E-10
 -0.4690458E-02  0.0000000E+00 -0.5050505E-02  0.2823821E-12  0.0000000E+00 -0.8816690E-10
 -0.4611543E-02  0.0000000E+00 -0.5050505E-02  0.2686530E-12  0.0000000E+00 -0.8798073E-10
 -0.4503035E-02  0.0000000E+00 -0.5050505E-02  0.2536091E-12  0.0000000E+00 -0.8780430E-10
 -0.4345206E-02  0.0000000E+00 -0.5050505E-02  0.2374000E-12  0.0000000E+00 -0.8763841E-10
 -0.4187378E-02  0.0000000E+00 -0.5050505E-02  0.2200032E-12  0.0000000E+00 -0.8748386E-10
 -0.3985156E-02  0.0000000E+00 -0.5050505E-02  0.2015158E-12  0.0000000E+00 -0.8734142E-10
 -0.3669499E-02  0.0000000E+00 -0.5050505E-02  0.1820126E-12  0.0000000E+00 -0.8721182E-10
 -0.3353842E-02  0.0000000E+00 -0.5050505E-02  0.1615158E-12  0.0000000E+00 -0.8709569E-10
 -0.2978990E-02  0.0000000E+00 -0.5050505E-02  0.1400930E-12  0.0000000E+00 -0.8699372E-10
 -0.2347676E-02  0.0000000E+00 -0.5050505E-02  0.1177063E-12  0.0000000E+00 -0.8690654E-10
 -0.1716362E-02  0.0000000E+00 -0.5050505E-02  0.9445351E-13  0.0000000E+00 -0.8683477E-10
 -0.1025842E-02  0.0000000E+00 -0.5050505E-02  0.7033409E-13  0.0000000E+00 -0.8677906E-10
  0.2367855E-03  0.0000000E+00 -0.5050505E-02  0.4548283E-13  0.0000000E+00 -0.8674000E-10
  0.1499413E-02  0.0000000E+00 -0.5050505E-02  0.2045938E-13  0.0000000E+00 -0.8671782E-10
  0.2762042E-02  0.0000000E+00 -0.5050505E-02 -0.3698915E-14  0.0000000E+00 -0.8671166E-10
 -0.5050505E-02  0.0000000E+00 -0.5050505E-02 -0.1936167E-13  0.0000000E+00 -0.8671881E-10
 -0.5050505E-02  0.0000000E+00 -0.5050505E-02 -0.3803433E-13  0.0000000E+00 -0.8673845E-10
 -0.5050505E-02  0.0000000E+00 -0.5050505E-02 -0.6504547E-13  0.0000000E+00 -0.8677370E-10
 -0.5050505E-02  0.0000000E+00 -0.5050505E-02 -0.9112965E-13  0.0000000E+00 -0.8682648E-10
 -0.5050505E-02  0.0000000E+00 -0.5050505E-02 -0.1155034E-12  0.0000000E+00 -0.8689614E-10
 -0.5050505E-02  0.0000000E+00 -0.5050505E-02 -0.1384350E-12  0.0000000E+00 -0.8698175E-10
 -0.5050505E-02  0.0000000E+00 -0.5050505E-02 -0.1603135E-12  0.0000000E+00 -0.8708256E-10
 -0.5050504E-02  0.0000000E+00 -0.5050505E-02 -0.1812137E-12  0.0000000E+00 -0.8719778E-10
 -0.5050501E-02  0.0000000E+00 -0.5050505E-02 -0.2011948E-12  0.0000000E+00 -0.8732683E-10
 -0.5050495E-02  0.0000000E+00 -0.5050505E-02 -0.2202200E-12  0.0000000E+00 -0.8746909E-10
 -0.5050482E-02  0.0000000E+00 -0.5050505E-02 -0.2382816E-12  0.0000000E+00 -0.8762387E-10
 -0.5050449E-02  0.0000000E+00 -0.5050505E-02 -0.2552303E-12  0.0000000E+00 -0.8779047E-10
 -0.5050376E-02  0.0000000E+00 -0.5050505E-02 -0.2710584E-12  0.0000000E+00 -0.8796811E-10
 -0.5050299E-02  0.0000000E+00 -0.5050505E-02 -0.2856242E-12  0.0000000E+00 -0.8815604E-10
 -0.5050178E-02  0.0000000E+00 -0.5050505E-02 -0.2990023E-12  0.0000000E+00 -0.8835342E-10
 -0.5050018E-02  0.0000000E+00 -0.5050505E-02 -0.3109912E-12  0.0000000E+00 -0.8855934E-10
 -0.5049710E-02  0.0000000E+00 -0.5050505E-02 -0.3216876E-12  0.0000000E+00 -0.8877293E-10
 -0.5049253E-02  0.0000000E+00 -0.5050505E-02 -0.3309649E-12  0.0000000E+00 -0.8899327E-10
 -0.5048636E-02  0.0000000E+00 -0.5050505E-02 -0.3388827E-12  0.0000000E+00 -0.8921942E-10
 -0.5047442E-02  0.0000000E+00 -0.5050505E-02 -0.3454113E-12  0.0000000E+00 -0.8945043E-10
 -0.5045727E-02  0.0000000E+00 -0.5050505E-02 -0.3504831E-12  0.0000000E+00 -0.8968533E-10
 -0.5043261E-02  0.0000000E+00 -0.5050505E-02 -0.3541732E-12  0.0000000E+00 -0.8992320E-10
 -0.5038714E-02  0.0000000E+00 -0.5050505E-02 -0.3564365E-12  0.0000000E+00 -0.9016306E-10
 -0.5032318E-02  0.0000000E+00 -0.5050505E-02 -0.3573253E-12  0.0000000E+00 -0.9040399E-10
 -0.5022454E-02  0.0000000E+00 -0.5050505E-02 -0.3569370E-12  0.0000000E+00 -0.9064509E-10
 -0.5012589E-02  0.0000000E+00 -0.5050505E-02 -0.3551742E-12  0.0000000E+00 -0.9088542E-10
 -0.5002725E-02  0.0000000E+00 -0.5050505E-02 -0.3521490E-12  0.0000000E+00 -0.9112411E-10
 -0.4992860E-02  0.0000000E+00 -0.5050505E-02 -0.3479734E-12  0.0000000E+00 -0.9136039E-10
 -0.4976523E-02  0.0000000E+00 -0.5050505E-02 -0.3426103E-12  0.0000000E+00 -0.9159341E-10
 -0.4956794E-02  0.0000000E+00 -0.5050505E-02 -0.3361864E-12  0.0000000E+00 -0.9182242E-10
 -0.4937066E-02  0.0000000E+00 -0.5050505E-02 -0.3287691E-12  0.0000000E+00 -0.9204676E-10
 -0.4906239E-02  0.0000000E+00 -0.5050505E-02 -0.3205451E-12  0.0000000E+00 -0.9226577E-10
 -0.4866782E-02  0.0000000E+00 -0.5050505E-02 -0.3115294E-12  0.0000000E+00 -0.9247889E-10
 -0.4827325E-02  0.0000000E+00 -0.5050505E-02 -0.3019609E-12  0.0000000E+00 -0.9268566E-10
 -0.4769372E-02  0.0000000E+00 -0.5050505E-02 -0.2919442E-12  0.0000000E+00 -0.9288572E-10
 -0.4690458E-02  0.0000000E+00 -0.5050505E-02 -0.2818156E-12  0.0000000E+00 -0.9307884E-10
 -0.4611543E-02  0.0000000E+00 -0.5050505E-02 -0.2718813E-12  0.0000000E+00 -0.9326500E-10
 -0.4503035E-02  0.0000000E+00 -0.5050505E-02 -0.2626046E-12  0.0000000E+00 -0.9344437E-10
 -0.4345206E-02  0.0000000E+00 -0.5050505E-02 -0.2547024E-12  0.0000000E+00 -0.9361748E-10
 -0.4187378E-02  0.0000000E+00 -0.5050505E-02 -0.2492435E-12  0.0000000E+00 -0.9378535E-10
 -0.3985156E-02  0.0000000E+00 -0.5050505E-02 -0.2480059E-12  0.0000000E+00 -0.9394962E-10
 -0.3669499E-02  0.0000000E+00 -0.5050505E-02 -0.2538439E-12  0.0000000E+00 -0.9411311E-10
 -0.3353842E-02  0.0000000E+00 -0.5050505E-02 -0.2721455E-12  0.0000000E+00 -0.9428024E-10
 -0.2978990E-02  0.0000000E+00 -0.5050505E-02 -0.3128138E-12  0.0000000E+00 -0.9445775E-10
 -0.2347676E-02  0.0000000E+00 -0.5050505E-02 -0.3959948E-12  0.0000000E+00 -0.9465495E-10
 -0.1716362E-02  0.0000000E+00 -0.5050505E-02 -0.5649399E-12  0.0000000E+00 -0.9488056E-10
 -0.1025842E-02  0.0000000E+00 -0.5050505E-02 -0.9196805E-12  0.0000000E+00 -0.9512013E-10
  0.2367855E-03  0.0000000E+00 -0.5050505E-02 -0.1705858E-11  0.0000000E+00 -0.9522446E-10
  0.1499413E-02  0.0000000E+00 -0.5050505E-02 -0.3564509E-11  0.0000000E+00 -0.9438774E-10
  0.5287294E-02  0.0000000E+00 -0.5050505E-02 -0.8242921E-11  0.0000000E+00 -0.8873531E-10
 -0.5050505E-02  0.0000000E+00 -0.5050505E-02  0.1697798E-15  0.0000000E+00 -0.9347602E-10
 -0.5050505E-02  0.0000000E+00 -0.5050505E-02  0.4167474E-13  0.0000000E+00 -0.9346336E-10
 -0.5050505E-02  0.0000000E+00 -0.5050505E-02  0.7353164E-13  0.0000000E+00 -0.9343849E-10
 -0.5050505E-02  0.0000000E+00 -0.5050505E-02  0.1051238E-12  0.0000000E+00 -0.9340060E-10
 -0.5050505E-02  0.0000000E+00 -0.5050505E-02  0.1429829E-12  0.0000000E+00 -0.9334791E-10
 -0.5050505E-02  0.0000000E+00 -0.5050505E-02  0.1798683E-12  0.0000000E+00 -0.9328030E-10
 -0.5050504E-02  0.0000000E+00 -0.5050505E-02  0.2147622E-12  0.0000000E+00 -0.9319818E-10
 -0.5050501E-02  0.0000000E+00 -0.5050505E-02  0.2479615E-12  0.0000000E+00 -0.9310214E-10
 -0.5050495E-02  0.0000000E+00 -0.5050505E-02  0.2797713E-12  0.0000000E+00 -0.9299266E-10
 -0.5050482E-02  0.0000000E+00 -0.5050505E-02  0.3103773E-12  0.0000000E+00 -0.9287024E-10
 -0.5050449E-02  0.0000000E+00 -0.5050505E-02  0.3397128E-12  0.0000000E+00 -0.9273539E-10
 -0.5050376E-02  0.0000000E+00 -0.5050505E-02  0.3678519E-12  0.0000000E+00 -0.9258865E-10
 -0.5050299E-02  0.0000000E+00 -0.5050505E-02  0.3945421E-12  0.0000000E+00 -0.9243054E-10
 -0.5050178E-02  0.0000000E+00 -0.5050505E-02  0.4198428E-12  0.0000000E+00 -0.9226166E-10
 -0.5050018E-02  0.0000000E+00 -0.5050505E-02  0.4436052E-12  0.0000000E+00 -0.9208256E-10
 -0.5049710E-02  0.0000000E+00 -0.5050505E-02  0.4656886E-12  0.0000000E+00 -0.9189392E-10
 -0.5049253E-02  0.0000000E+00 -0.5050505E-02  0.4859887E-12  0.0000000E+00 -0.9169653E-10
 -0.5048636E-02  0.0000000E+00 -0.5050505E-02  0.5044978E-12  0.0000000E+00 -0.9149107E-10
 -0.5047442E-02  0.0000000E+00 -0.5050505E-02  0.5210454E-12  0.0000000E+00 -0.9127830E-10
 -0.5045727E-02  0.0000000E+00 -0.5050505E-02  0.5355422E-12  0.0000000E+00 -0.9105908E-10
 -0.5043261E-02  0.0000000E+00 -0.5050505E-02  0.5479584E-12  0.0000000E+00 -0.9083425E-10
 -0.5038714E-02  0.0000000E+00 -0.5050505E-02  0.5581678E-12  0.0000000E+00 -0.9060469E-10
 -0.5032318E-02  0.0000000E+00 -0.5050505E-02  0.5661927E-12  0.0000000E+00 -0.9037133E-10
 -0.5022454E-02  0.0000000E+00 -0.5050505E-02  0.5718620E-12  0.0000000E+00 -0.9013510E-10
 -0.5012589E-02  0.0000000E+00 -0.5050505E-02  0.5751835E-12  0.0000000E+00 -0.8989698E-10
 -0.5002725E-02  0.0000000E+00 -0.5050505E-02  0.5761271E-12  0.0000000E+00 -0.8965797E-10
 -0.4992860E-02  0.0000000E+00 -0.5050505E-02  0.5746632E-12  0.0000000E+00 -0.8941898E-10
 -0.4976523E-02  0.0000000E+00 -0.5050505E-02  0.5707623E-12  0.0000000E+00 -0.8918111E-10
 -0.4956794E-02  0.0000000E+00 -0.5050505E-02  0.5643497E-12  0.0000000E+00 -0.8894537E-10
 -0.4937066E-02  0.0000000E+00 -0.5050505E-02  0.5554926E-12  0.0000000E+00 -0.8871275E-10
 -0.4906239E-02  0.0000000E+00 -0.5050505E-02  0.5441834E-12  0.0000000E+00 -0.8848430E-10
 -0.4866782E-02  0.0000000E+00 -0.5050505E-02  0.5304445E-12  0.0000000E+00 -0.8826104E-10
 -0.4827325E-02  0.0000000E+00 -0.5050505E-02  0.5142757E-12  0.0000000E+00 -0.8804395E-10
 -0.4769372E-02  0.0000000E+00 -0.5050505E-02  0.4957294E-12  0.0000000E+00 -0.8783403E-10
 -0.4690458E-02  0.0000000E+00 -0.5050505E-02  0.4749019E-12  0.0000000E+00 -0.8763232E-10
 -0.4611543E-02  0.0000000E+00 -0.5050505E-02  0.4517932E-12  0.0000000E+00 -0.8743974E-10
 -0.4503035E-02  0.0000000E+00 -0.5050505E-02  0.4265889E-12  0.0000000E+00 -0.8725712E-10
 -0.4345206E-02  0.0000000E+00 -0.5050505E-02  0.3993118E-12  0.0000000E+00 -0.8708536E-10
 -0.4187378E-02  0.0000000E+00 -0.5050505E-02  0.3700656E-12  0.0000000E+00 -0.8692537E-10
 -0.3985156E-02  0.0000000E+00 -0.5050505E-02  0.3390285E-12  0.0000000E+00 -0.8677787E-10
 -0.3669499E-02  0.0000000E+00 -0.5050505E-02  0.3062009E-12  0.0000000E+00 -0.8664362E-10
 -0.3353842E-02  0.0000000E+00 -0.5050505E-02  0.2718276E-12  0.0000000E+00 -0.8652332E-10
 -0.2978990E-02  0.0000000E+00 -0.5050505E-02  0.2357527E-12  0.0000000E+00 -0.8641762E-10
 -0.2347676E-02  0.0000000E+00 -0.5050505E-02  0.1981845E-12  0.0000000E+00 -0.8632722E-10
 -0.1716362E-02  0.0000000E+00 -0.5050505E-02  0.1590334E-12  0.0000000E+00 -0.8625275E-10
 -0.1025842E-02  0.0000000E+00 -0.5050505E-02  0.1183742E-12  0.0000000E+00 -0.8619490E-10
  0.2367855E-03  0.0000000E+00 -0.5050505E-02  0.7642204E-13  0.0000000E+00 -0.8615433E-10
  0.1499413E-02  0.0000000E+00 -0.5050505E-02  0.3433619E-13  0.0000000E+00 -0.8613134E-10
  0.2762042E-02  0.0000000E+00 -0.5050505E-02 -0.4779550E-14  0.0000000E+00 -0.8612460E-10
 -0.5050505E-02  0.0000000E+00 -0.5050505E-02 -0.3201121E-13  0.0000000E+00 -0.8613131E-10
 -0.5050505E-02  0.0000000E+00 -0.5050505E-02 -0.6501508E-13  0.0000000E+00 -0.8615163E-10
 -0.5050505E-02  0.0000000E+00 -0.5050505E-02 -0.1095913E-12  0.0000000E+00 -0.8618848E-10
 -0.5050505E-02  0.0000000E+00 -0.5050505E-02 -0.1531119E-12  0.0000000E+00 -0.8624310E-10
 -0.5050505E-02  0.0000000E+00 -0.5050505E-02 -0.1939275E-12  0.0000000E+00 -0.8631501E-10
 -0.5050505E-02  0.0000000E+00 -0.5050505E-02 -0.2325287E-12  0.0000000E+00 -0.8640334E-10
 -0.5050505E-02  0.0000000E+00 -0.5050505E-02 -0.2693391E-12  0.0000000E+00 -0.8650733E-10
 -0.5050504E-02  0.0000000E+00 -0.5050505E-02 -0.3044850E-12  0.0000000E+00 -0.8662633E-10
 -0.5050501E-02  0.0000000E+00 -0.5050505E-02 -0.3381375E-12  0.0000000E+00 -0.8675963E-10
 -0.5050495E-02  0.0000000E+00 -0.5050505E-02 -0.3701329E-12  0.0000000E+00 -0.8690659E-10
 -0.5050482E-02  0.0000000E+00 -0.5050505E-02 -0.4004864E-12  0.0000000E+00 -0.8706650E-10
 -0.5050449E-02  0.0000000E+00 -0.5050505E-02 -0.4289746E-12  0.0000000E+00 -0.8723862E-10
 -0.5050376E-02  0.0000000E+00 -0.5050505E-02 -0.4555682E-12  0.0000000E+00 -0.8742218E-10
 -0.5050299E-02  0.0000000E+00 -0.5050505E-02 -0.4801183E-12  0.0000000E+00 -0.8761638E-10
 -0.5050178E-02  0.0000000E+00 -0.5050505E-02 -0.5025436E-12  0.0000000E+00 -0.8782032E-10
 -0.5050018E-02  0.0000000E+00 -0.5050505E-02 -0.5227394E-12  0.0000000E+00 -0.8803312E-10
 -0.5049710E-02  0.0000000E+00 -0.5050505E-02 -0.5406767E-12  0.0000000E+00 -0.8825381E-10
 -0.5049253E-02  0.0000000E+00 -0.5050505E-02 -0.5562954E-12  0.0000000E+00 -0.8848145E-10
 -0.5048636E-02  0.0000000E+00 -0.5050505E-02 -0.5695885E-12  0.0000000E+00 -0.8871510E-10
 -0.5047442E-02  0.0000000E+00 -0.5050505E-02 -0.5805187E-12  0.0000000E+00 -0.8895375E-10
 -0.5045727E-02  0.0000000E+00 -0.5050505E-02 -0.5890415E-12  0.0000000E+00 -0.8919641E-10
 -0.5043261E-02  0.0000000E+00 -0.5050505E-02 -0.5951940E-12  0.0000000E+00 -0.8944208E-10
 -0.5038714E-02  0.0000000E+00 -0.5050505E-02 -0.5989983E-12  0.0000000E+00 -0.8968979E-10
 -0.5032318E-02  0.0000000E+00 -0.5050505E-02 -0.6005141E-12  0.0000000E+00 -0.8993861E-10
 -0.5022454E-02  0.0000000E+00 -0.5050505E-02 -0.5997564E-12  0.0000000E+00 -0.9018753E-10
 -0.5012589E-02  0.0000000E+00 -0.5050505E-02 -0.5967768E-12  0.0000000E+00 -0.9043562E-10
 -0.5002725E-02  0.0000000E+00 -0.5050505E-02 -0.5916869E-12  0.0000000E+00 -0.9068203E-10
 -0.4992860E-02  0.0000000E+00 -0.5050505E-02 -0.5845836E-12  0.0000000E+00 -0.9092583E-10
 -0.4976523E-02  0.0000000E+00 -0.5050505E-02 -0.5755259E-12  0.0000000E+00 -0.9116621E-10
 -0.4956794E-02  0.0000000E+00 -0.5050505E-02 -0.5646479E-12  0.0000000E+00 -0.9140239E-10
 -0.4937066E-02  0.0000000E+00 -0.5050505E-02 -0.5521351E-12  0.0000000E+00 -0.9163361E-10
 -0.4906239E-02  0.0000000E+00 -0.5050505E-02 -0.5381587E-12  0.0000000E+00 -0.9185923E-10
 -0.4866782E-02  0.0000000E+00 -0.5050505E-02 -0.5228670E-12  0.0000000E+00 -0.9207860E-10
 -0.4827325E-02  0.0000000E+00 -0.5050505E-02 -0.5065650E-12  0.0000000E+00 -0.9229122E-10
 -0.4769372E-02  0.0000000E+00 -0.5050505E-02 -0.4894680E-12  0.0000000E+00 -0.9249662E-10
 -0.4690458E-02  0.0000000E+00 -0.5050505E-02 -0.4720739E-12  0.0000000E+00 -0.9269451E-10
 -0.4611543E-02  0.0000000E+00 -0.5050505E-02 -0.4548140E-12  0.0000000E+00 -0.9288463E-10
 -0.4503035E-02  0.0000000E+00 -0.5050505E-02 -0.4383568E-12  0.0000000E+00 -0.9306695E-10
 -0.4345206E-02  0.0000000E+00 -0.5050505E-02 -0.4238027E-12  0.0000000E+00 -0.9324160E-10
 -0.4187378E-02  0.0000000E+00 -0.5050505E-02 -0.4124747E-12  0.0000000E+00 -0.9340889E-10
 -0.3985156E-02  0.0000000E+00 -0.5050505E-02 -0.4067813E-12  0.0000000E+00 -0.9356941E-10
 -0.3669499E-02  0.0000000E+00 -0.5050505E-02 -0.4102315E-12  0.0000000E+00 -0.9372391E-10
 -0.3353842E-02  0.0000000E+00 -0.5050505E-02 -0.4288561E-12  0.0000000E+00 -0.9387282E-10
 -0.2978990E-02  0.0000000E+00 -0.5050505E-02 -0.4727616E-12  0.0000000E+00 -0.9401526E-10
 -0.2347676E-02  0.0000000E+00 -0.5050505E-02 -0.5595346E-12  0.0000000E+00 -0.9414552E-10
 -0.1716362E-02  0.0000000E+00 -0.5050505E-02 -0.7196654E-12  0.0000000E+00 -0.9424357E-10
 -0.1025842E-02  0.0000000E+00 -0.5050505E-02 -0.1002535E-11  0.0000000E+00 -0.9424991E-10
  0.2367855E-03  0.0000000E+00 -0.5050505E-02 -0.1469558E-11  0.0000000E+00 -0.9400688E-10
  0.1499413E-02  0.0000000E+00 -0.5050505E-02 -0.2096741E-11  0.0000000E+00 -0.9316911E-10
  0.5287294E-02  0.0000000E+00 -0.5050505E-02 -0.2216507E-11  0.0000000E+00 -0.9139368E-10
 -0.5050505E-02  0.0000000E+00 -0.5050505E-02  0.6843293E-14  0.0000000E+00 -0.9295986E-10
 -0.5050505E-02  0.0000000E+00 -0.5050505E-02  0.6140777E-13  0.0000000E+00 -0.9294587E-10
 -0.5050505E-02  0.0000000E+00 -0.5050505E-02  0.1047001E-12  0.0000000E+00 -0.9291920E-10
 -0.5050505E-02  0.0000000E+00 -0.5050505E-02  0.1511738E-12  0.0000000E+00 -0.9287887E-10
 -0.5050505E-02  0.0000000E+00 -0.5050505E-02  0.2041605E-12  0.0000000E+00 -0.9282294E-10
 -0.5050505E-02  0.0000000E+00 -0.5050505E-02  0.2558910E-12  0.0000000E+00 -0.9275155E-10
 -0.5050504E-02  0.0000000E+00 -0.5050505E-02  0.3050420E-12  0.0000000E+00 -0.9266515E-10
 -0.5050501E-02  0.0000000E+00 -0.5050505E-02  0.3520202E-12  0.0000000E+00 -0.9256426E-10
 -0.5050495E-02  0.0000000E+00 -0.5050505E-02  0.3971359E-12  0.0000000E+00 -0.9244936E-10
 -0.5050482E-02  0.0000000E+00 -0.5050505E-02  0.4404930E-12  0.0000000E+00 -0.9232100E-10
 -0.5050449E-02  0.0000000E+00 -0.5050505E-02  0.4821500E-12  0.0000000E+00 -0.9217965E-10
 -0.5050376E-02  0.0000000E+00 -0.5050505E-02  0.5220116E-12  0.0000000E+00 -0.9202583E-10
 -0.5050299E-02  0.0000000E+00 -0.5050505E-02  0.5599441E-12  0.0000000E+00 -0.9186011E-10
 -0.5050178E-02  0.0000000E+00 -0.5050505E-02  0.5958666E-12  0.0000000E+00 -0.9168300E-10
 -0.5050018E-02  0.0000000E+00 -0.5050505E-02  0.6295945E-12  0.0000000E+00 -0.9149525E-10
 -0.5049710E-02  0.0000000E+00 -0.5050505E-02  0.6609205E-12  0.0000000E+00 -0.9129758E-10
 -0.5049253E-02  0.0000000E+00 -0.5050505E-02  0.6897928E-12  0.0000000E+00 -0.9109060E-10
 -0.5048636E-02  0.0000000E+00 -0.5050505E-02  0.7160790E-12  0.0000000E+00 -0.9087513E-10
 -0.5047442E-02  0.0000000E+00 -0.5050505E-02  0.7395937E-12  0.0000000E+00 -0.9065202E-10
 -0.5045727E-02  0.0000000E+00 -0.5050505E-02  0.7602264E-12  0.0000000E+00 -0.9042209E-10
 -0.5043261E-02  0.0000000E+00 -0.5050505E-02  0.7778588E-12  0.0000000E+00 -0.9018626E-10
 -0.5038714E-02  0.0000000E+00 -0.5050505E-02  0.7924538E-12  0.0000000E+00 -0.8994545E-10
 -0.5032318E-02  0.0000000E+00 -0.5050505E-02  0.8038269E-12  0.0000000E+00 -0.8970059E-10
 -0.5022454E-02  0.0000000E+00 -0.5050505E-02  0.8119411E-12  0.0000000E+00 -0.8945273E-10
 -0.5012589E-02  0.0000000E+00 -0.5050505E-02  0.8167000E-12  0.0000000E+00 -0.8920282E-10
 -0.5002725E-02  0.0000000E+00 -0.5050505E-02  0.8181114E-12  0.0000000E+00 -0.8895188E-10
 -0.4992860E-02  0.0000000E+00 -0.5050505E-02  0.8160939E-12  0.0000000E+00 -0.8870101E-10
 -0.4976523E-02  0.0000000E+00 -0.5050505E-02  0.8105440E-12  0.0000000E+00 -0.8845125E-10
 -0.4956794E-02  0.0000000E+00 -0.5050505E-02  0.8015061E-12  0.0000000E+00 -0.8820370E-10
 -0.4937066E-02  0.0000000E+00 -0.5050505E-02  0.7889874E-12  0.0000000E+00 -0.8795939E-10