title = "dataset feddes"
variables = "x", "y", "z", "vx", "vy", "vz"
zone t = "velocities, solution time =  5.300E+01 days        " i =   99, j =   99, k =    1,  f=point
 -0.5050505E-02  0.0000000E+00 -0.5050505E-02  0.6980493E-09  0.0000000E+00  0.5724077E-05
 -0.5050505E-02  0.0000000E+00 -0.5050505E-02  0.2091695E-08  0.0000000E+00  0.5726883E-05
 -0.5050505E-02  0.0000000E+00 -0.5050505E-02  0.3477327E-08  0.0000000E+00  0.5732485E-05
 -0.5050505E-02  0.0000000E+00 -0.5050505E-02  0.4849572E-08  0.0000000E+00  0.5740860E-05
 -0.5050505E-02  0.0000000E+00 -0.5050505E-02  0.6203160E-08  0.0000000E+00  0.5751978E-05
 -0.5050505E-02  0.0000000E+00 -0.5050505E-02  0.7532855E-08  0.0000000E+00  0.5765794E-05
 -0.5050504E-02  0.0000000E+00 -0.5050505E-02  0.8833489E-08  0.0000000E+00  0.5782256E-05
 -0.5050501E-02  0.0000000E+00 -0.5050505E-02  0.1009997E-07  0.0000000E+00  0.5801300E-05
 -0.5050495E-02  0.0000000E+00 -0.5050505E-02  0.1132732E-07  0.0000000E+00  0.5822853E-05
 -0.5050482E-02  0.0000000E+00 -0.5050505E-02  0.1251066E-07  0.0000000E+00  0.5846831E-05
 -0.5050449E-02  0.0000000E+00 -0.5050505E-02  0.1364524E-07  0.0000000E+00  0.5873140E-05
 -0.5050376E-02  0.0000000E+00 -0.5050505E-02  0.1472648E-07  0.0000000E+00  0.5901677E-05
 -0.5050299E-02  0.0000000E+00 -0.5050505E-02  0.1574993E-07  0.0000000E+00  0.5932332E-05
 -0.5050178E-02  0.0000000E+00 -0.5050505E-02  0.1671135E-07  0.0000000E+00  0.5964984E-05
 -0.5050018E-02  0.0000000E+00 -0.5050505E-02  0.1760669E-07  0.0000000E+00  0.5999503E-05
 -0.5049710E-02  0.0000000E+00 -0.5050505E-02  0.1843209E-07  0.0000000E+00  0.6035753E-05
 -0.5049253E-02  0.0000000E+00 -0.5050505E-02  0.1918396E-07  0.0000000E+00  0.6073589E-05
 -0.5048636E-02  0.0000000E+00 -0.5050505E-02  0.1985892E-07  0.0000000E+00  0.6112861E-05
 -0.5047442E-02  0.0000000E+00 -0.5050505E-02  0.2045388E-07  0.0000000E+00  0.6153410E-05
 -0.5045727E-02  0.0000000E+00 -0.5050505E-02  0.2096601E-07  0.0000000E+00  0.6195073E-05
 -0.5043261E-02  0.0000000E+00 -0.5050505E-02  0.2139281E-07  0.0000000E+00  0.6237680E-05
 -0.5038714E-02  0.0000000E+00 -0.5050505E-02  0.2173204E-07  0.0000000E+00  0.6281058E-05
 -0.5032318E-02  0.0000000E+00 -0.5050505E-02  0.2198184E-07  0.0000000E+00  0.6325029E-05
 -0.5022454E-02  0.0000000E+00 -0.5050505E-02  0.2214066E-07  0.0000000E+00  0.6369410E-05
 -0.5012589E-02  0.0000000E+00 -0.5050505E-02  0.2220731E-07  0.0000000E+00  0.6414018E-05
 -0.5002725E-02  0.0000000E+00 -0.5050505E-02  0.2218096E-07  0.0000000E+00  0.6458667E-05
 -0.4992860E-02  0.0000000E+00 -0.5050505E-02  0.2206119E-07  0.0000000E+00  0.6503170E-05
 -0.4976523E-02  0.0000000E+00 -0.5050505E-02  0.2184792E-07  0.0000000E+00  0.6547337E-05
 -0.4956794E-02  0.0000000E+00 -0.5050505E-02  0.2154149E-07  0.0000000E+00  0.6590981E-05
 -0.4937066E-02  0.0000000E+00 -0.5050505E-02  0.2114265E-07  0.0000000E+00  0.6633916E-05
 -0.4906239E-02  0.0000000E+00 -0.5050505E-02  0.2065253E-07  0.0000000E+00  0.6675957E-05
 -0.4866782E-02  0.0000000E+00 -0.5050505E-02  0.2007268E-07  0.0000000E+00  0.6716922E-05
 -0.4827325E-02  0.0000000E+00 -0.5050505E-02  0.1940508E-07  0.0000000E+00  0.6756632E-05
 -0.4769372E-02  0.0000000E+00 -0.5050505E-02  0.1865206E-07  0.0000000E+00  0.6794913E-05
 -0.4690458E-02  0.0000000E+00 -0.5050505E-02  0.1781641E-07  0.0000000E+00  0.6831596E-05
 -0.4611543E-02  0.0000000E+00 -0.5050505E-02  0.1690126E-07  0.0000000E+00  0.6866518E-05
 -0.4503035E-02  0.0000000E+00 -0.5050505E-02  0.1591018E-07  0.0000000E+00  0.6899523E-05
 -0.4345206E-02  0.0000000E+00 -0.5050505E-02  0.1484706E-07  0.0000000E+00  0.6930461E-05
 -0.4187378E-02  0.0000000E+00 -0.5050505E-02  0.1371617E-07  0.0000000E+00  0.6959193E-05
 -0.3985156E-02  0.0000000E+00 -0.5050505E-02  0.1252213E-07  0.0000000E+00  0.6985585E-05
 -0.3669499E-02  0.0000000E+00 -0.5050505E-02  0.1126986E-07  0.0000000E+00  0.7009518E-05
 -0.3353842E-02  0.0000000E+00 -0.5050505E-02  0.9964583E-08  0.0000000E+00  0.7030877E-05
 -0.2978990E-02  0.0000000E+00 -0.5050505E-02  0.8611805E-08  0.0000000E+00  0.7049563E-05
 -0.2347676E-02  0.0000000E+00 -0.5050505E-02  0.7217273E-08  0.0000000E+00  0.7065485E-05
 -0.1716362E-02  0.0000000E+00 -0.5050505E-02  0.5786951E-08  0.0000000E+00  0.7078566E-05
 -0.1025842E-02  0.0000000E+00 -0.5050505E-02  0.4326997E-08  0.0000000E+00  0.7088740E-05
  0.2367855E-03  0.0000000E+00 -0.5050505E-02  0.2843724E-08  0.0000000E+00  0.7095953E-05
  0.1499413E-02  0.0000000E+00 -0.5050505E-02  0.1343571E-08  0.0000000E+00  0.7100165E-05
  0.2762042E-02  0.0000000E+00 -0.5050505E-02 -0.1669302E-09  0.0000000E+00  0.7101348E-05
 -0.5050505E-02  0.0000000E+00 -0.5050505E-02 -0.1681195E-08  0.0000000E+00  0.7099489E-05
 -0.5050505E-02  0.0000000E+00 -0.5050505E-02 -0.3192619E-08  0.0000000E+00  0.7094587E-05
 -0.5050505E-02  0.0000000E+00 -0.5050505E-02 -0.4694605E-08  0.0000000E+00  0.7086653E-05
 -0.5050505E-02  0.0000000E+00 -0.5050505E-02 -0.6180605E-08  0.0000000E+00  0.7075714E-05
 -0.5050505E-02  0.0000000E+00 -0.5050505E-02 -0.7644157E-08  0.0000000E+00  0.7061808E-05
 -0.5050505E-02  0.0000000E+00 -0.5050505E-02 -0.9078915E-08  0.0000000E+00  0.7044986E-05
 -0.5050505E-02  0.0000000E+00 -0.5050505E-02 -0.1047868E-07  0.0000000E+00  0.7025313E-05
 -0.5050504E-02  0.0000000E+00 -0.5050505E-02 -0.1183744E-07  0.0000000E+00  0.7002865E-05
 -0.5050501E-02  0.0000000E+00 -0.5050505E-02 -0.1314939E-07  0.0000000E+00  0.6977731E-05
 -0.5050495E-02  0.0000000E+00 -0.5050505E-02 -0.1440895E-07  0.0000000E+00  0.6950011E-05
 -0.5050482E-02  0.0000000E+00 -0.5050505E-02 -0.1561084E-07  0.0000000E+00  0.6919814E-05
 -0.5050449E-02  0.0000000E+00 -0.5050505E-02 -0.1675002E-07  0.0000000E+00  0.6887263E-05
 -0.5050376E-02  0.0000000E+00 -0.5050505E-02 -0.1782182E-07  0.0000000E+00  0.6852487E-05
 -0.5050299E-02  0.0000000E+00 -0.5050505E-02 -0.1882184E-07  0.0000000E+00  0.6815628E-05
 -0.5050178E-02  0.0000000E+00 -0.5050505E-02 -0.1974607E-07  0.0000000E+00  0.6776833E-05
 -0.5050018E-02  0.0000000E+00 -0.5050505E-02 -0.2059083E-07  0.0000000E+00  0.6736259E-05
 -0.5049710E-02  0.0000000E+00 -0.5050505E-02 -0.2135285E-07  0.0000000E+00  0.6694068E-05
 -0.5049253E-02  0.0000000E+00 -0.5050505E-02 -0.2202920E-07  0.0000000E+00  0.6650431E-05
 -0.5048636E-02  0.0000000E+00 -0.5050505E-02 -0.2261737E-07  0.0000000E+00  0.6605522E-05
 -0.5047442E-02  0.0000000E+00 -0.5050505E-02 -0.2311521E-07  0.0000000E+00  0.6559521E-05
 -0.5045727E-02  0.0000000E+00 -0.5050505E-02 -0.2352097E-07  0.0000000E+00  0.6512611E-05
 -0.5043261E-02  0.0000000E+00 -0.5050505E-02 -0.2383331E-07  0.0000000E+00  0.6464978E-05
 -0.5038714E-02  0.0000000E+00 -0.5050505E-02 -0.2405124E-07  0.0000000E+00  0.6416812E-05
 -0.5032318E-02  0.0000000E+00 -0.5050505E-02 -0.2417414E-07  0.0000000E+00  0.6368304E-05
 -0.5022454E-02  0.0000000E+00 -0.5050505E-02 -0.2420178E-07  0.0000000E+00  0.6319644E-05
 -0.5012589E-02  0.0000000E+00 -0.5050505E-02 -0.2413424E-07  0.0000000E+00  0.6271024E-05
 -0.5002725E-02  0.0000000E+00 -0.5050505E-02 -0.2397193E-07  0.0000000E+00  0.6222636E-05
 -0.4992860E-02  0.0000000E+00 -0.5050505E-02 -0.2371555E-07  0.0000000E+00  0.6174669E-05
 -0.4976523E-02  0.0000000E+00 -0.5050505E-02 -0.2336606E-07  0.0000000E+00  0.6127311E-05
 -0.4956794E-02  0.0000000E+00 -0.5050505E-02 -0.2292460E-07  0.0000000E+00  0.6080749E-05
 -0.4937066E-02  0.0000000E+00 -0.5050505E-02 -0.2239249E-07  0.0000000E+00  0.6035166E-05
 -0.4906239E-02  0.0000000E+00 -0.5050505E-02 -0.2177108E-07  0.0000000E+00  0.5990744E-05
 -0.4866782E-02  0.0000000E+00 -0.5050505E-02 -0.2106166E-07  0.0000000E+00  0.5947660E-05
 -0.4827325E-02  0.0000000E+00 -0.5050505E-02 -0.2026527E-07  0.0000000E+00  0.5906091E-05
 -0.4769372E-02  0.0000000E+00 -0.5050505E-02 -0.1938244E-07  0.0000000E+00  0.5866211E-05
 -0.4690458E-02  0.0000000E+00 -0.5050505E-02 -0.1841277E-07  0.0000000E+00  0.5828195E-05
 -0.4611543E-02  0.0000000E+00 -0.5050505E-02 -0.1735426E-07  0.0000000E+00  0.5792219E-05
 -0.4503035E-02  0.0000000E+00 -0.5050505E-02 -0.1620221E-07  0.0000000E+00  0.5758466E-05
 -0.4345206E-02  0.0000000E+00 -0.5050505E-02 -0.1494724E-07  0.0000000E+00  0.5727134E-05
 -0.4187378E-02  0.0000000E+00 -0.5050505E-02 -0.1357182E-07  0.0000000E+00  0.5698448E-05
 -0.3985156E-02  0.0000000E+00 -0.5050505E-02 -0.1204353E-07  0.0000000E+00  0.5672683E-05
 -0.3669499E-02  0.0000000E+00 -0.5050505E-02 -0.1030144E-07  0.0000000E+00  0.5650207E-05
 -0.3353842E-02  0.0000000E+00 -0.5050505E-02 -0.8226930E-08  0.0000000E+00  0.5631571E-05
 -0.2978990E-02  0.0000000E+00 -0.5050505E-02 -0.5575625E-08  0.0000000E+00  0.5617687E-05
 -0.2347676E-02  0.0000000E+00 -0.5050505E-02 -0.1805845E-08  0.0000000E+00  0.5610263E-05
 -0.1716362E-02  0.0000000E+00 -0.5050505E-02  0.4395477E-08  0.0000000E+00  0.5612868E-05
 -0.1025842E-02  0.0000000E+00 -0.5050505E-02  0.1655035E-07  0.0000000E+00  0.5633936E-05
  0.2367855E-03  0.0000000E+00 -0.5050505E-02  0.4516289E-07  0.0000000E+00  0.5696010E-05
  0.1499413E-02  0.0000000E+00 -0.5050505E-02  0.1249442E-06  0.0000000E+00  0.5867112E-05
  0.5287294E-02  0.0000000E+00 -0.5050505E-02  0.2070834E-05  0.0000000E+00  0.4687305E-05
 -0.5050505E-02  0.0000000E+00 -0.5050505E-02  0.2094215E-08  0.0000000E+00  0.5732990E-05
 -0.5050505E-02  0.0000000E+00 -0.5050505E-02  0.6275144E-08  0.0000000E+00  0.5735812E-05
 -0.5050505E-02  0.0000000E+00 -0.5050505E-02  0.1043206E-07  0.0000000E+00  0.5741445E-05
 -0.5050505E-02  0.0000000E+00 -0.5050505E-02  0.1454884E-07  0.0000000E+00  0.5749868E-05
 -0.5050505E-02  0.0000000E+00 -0.5050505E-02  0.1860966E-07  0.0000000E+00  0.5761048E-05
 -0.5050505E-02  0.0000000E+00 -0.5050505E-02  0.2259884E-07  0.0000000E+00  0.5774942E-05
 -0.5050504E-02  0.0000000E+00 -0.5050505E-02  0.2650085E-07  0.0000000E+00  0.5791497E-05
 -0.5050501E-02  0.0000000E+00 -0.5050505E-02  0.3030045E-07  0.0000000E+00  0.5810649E-05
 -0.5050495E-02  0.0000000E+00 -0.5050505E-02  0.3398268E-07  0.0000000E+00  0.5832324E-05
 -0.5050482E-02  0.0000000E+00 -0.5050505E-02  0.3753291E-07  0.0000000E+00  0.5856438E-05
 -0.5050449E-02  0.0000000E+00 -0.5050505E-02  0.4093692E-07  0.0000000E+00  0.5882896E-05
 -0.5050376E-02  0.0000000E+00 -0.5050505E-02  0.4418092E-07  0.0000000E+00  0.5911597E-05
 -0.5050299E-02  0.0000000E+00 -0.5050505E-02  0.4725162E-07  0.0000000E+00  0.5942427E-05
 -0.5050178E-02  0.0000000E+00 -0.5050505E-02  0.5013626E-07  0.0000000E+00  0.5975265E-05
 -0.5050018E-02  0.0000000E+00 -0.5050505E-02  0.5282268E-07  0.0000000E+00  0.6009983E-05
 -0.5049710E-02  0.0000000E+00 -0.5050505E-02  0.5529934E-07  0.0000000E+00  0.6046442E-05
 -0.5049253E-02  0.0000000E+00 -0.5050505E-02  0.5755542E-07  0.0000000E+00  0.6084497E-05
 -0.5048636E-02  0.0000000E+00 -0.5050505E-02  0.5958081E-07  0.0000000E+00  0.6123997E-05
 -0.5047442E-02  0.0000000E+00 -0.5050505E-02  0.6136623E-07  0.0000000E+00  0.6164782E-05
 -0.5045727E-02  0.0000000E+00 -0.5050505E-02  0.6290319E-07  0.0000000E+00  0.6206688E-05
 -0.5043261E-02  0.0000000E+00 -0.5050505E-02  0.6418413E-07  0.0000000E+00  0.6249545E-05
 -0.5038714E-02  0.0000000E+00 -0.5050505E-02  0.6520242E-07  0.0000000E+00  0.6293178E-05
 -0.5032318E-02  0.0000000E+00 -0.5050505E-02  0.6595239E-07  0.0000000E+00  0.6337409E-05
 -0.5022454E-02  0.0000000E+00 -0.5050505E-02  0.6642941E-07  0.0000000E+00  0.6382053E-05
 -0.5012589E-02  0.0000000E+00 -0.5050505E-02  0.6662991E-07  0.0000000E+00  0.6426927E-05
 -0.5002725E-02  0.0000000E+00 -0.5050505E-02  0.6655141E-07  0.0000000E+00  0.6471843E-05
 -0.4992860E-02  0.0000000E+00 -0.5050505E-02  0.6619257E-07  0.0000000E+00  0.6516612E-05
 -0.4976523E-02  0.0000000E+00 -0.5050505E-02  0.6555322E-07  0.0000000E+00  0.6561046E-05
 -0.4956794E-02  0.0000000E+00 -0.5050505E-02  0.6463436E-07  0.0000000E+00  0.6604954E-05
 -0.4937066E-02  0.0000000E+00 -0.5050505E-02  0.6343820E-07  0.0000000E+00  0.6648150E-05
 -0.4906239E-02  0.0000000E+00 -0.5050505E-02  0.6196815E-07  0.0000000E+00  0.6690448E-05
 -0.4866782E-02  0.0000000E+00 -0.5050505E-02  0.6022886E-07  0.0000000E+00  0.6731664E-05
 -0.4827325E-02  0.0000000E+00 -0.5050505E-02  0.5822620E-07  0.0000000E+00  0.6771619E-05
 -0.4769372E-02  0.0000000E+00 -0.5050505E-02  0.5596726E-07  0.0000000E+00  0.6810136E-05
 -0.4690458E-02  0.0000000E+00 -0.5050505E-02  0.5346031E-07  0.0000000E+00  0.6847048E-05
 -0.4611543E-02  0.0000000E+00 -0.5050505E-02  0.5071483E-07  0.0000000E+00  0.6882188E-05
 -0.4503035E-02  0.0000000E+00 -0.5050505E-02  0.4774143E-07  0.0000000E+00  0.6915399E-05
 -0.4345206E-02  0.0000000E+00 -0.5050505E-02  0.4455185E-07  0.0000000E+00  0.6946533E-05
 -0.4187378E-02  0.0000000E+00 -0.5050505E-02  0.4115889E-07  0.0000000E+00  0.6975447E-05
 -0.3985156E-02  0.0000000E+00 -0.5050505E-02  0.3757638E-07  0.0000000E+00  0.7002008E-05
 -0.3669499E-02  0.0000000E+00 -0.5050505E-02  0.3381911E-07  0.0000000E+00  0.7026094E-05
 -0.3353842E-02  0.0000000E+00 -0.5050505E-02  0.2990277E-07  0.0000000E+00  0.7047592E-05
 -0.2978990E-02  0.0000000E+00 -0.5050505E-02  0.2584384E-07  0.0000000E+00  0.7066400E-05
 -0.2347676E-02  0.0000000E+00 -0.5050505E-02  0.2165960E-07  0.0000000E+00  0.7082428E-05
 -0.1716362E-02  0.0000000E+00 -0.5050505E-02  0.1736793E-07  0.0000000E+00  0.7095597E-05
 -0.1025842E-02  0.0000000E+00 -0.5050505E-02  0.1298732E-07  0.0000000E+00  0.7105842E-05
  0.2367855E-03  0.0000000E+00 -0.5050505E-02  0.8536726E-08  0.0000000E+00  0.7113107E-05
  0.1499413E-02  0.0000000E+00 -0.5050505E-02  0.4035464E-08  0.0000000E+00  0.7117353E-05
  0.2762042E-02  0.0000000E+00 -0.5050505E-02 -0.4968624E-09  0.0000000E+00  0.7118552E-05
 -0.5050505E-02  0.0000000E+00 -0.5050505E-02 -0.5040484E-08  0.0000000E+00  0.7116689E-05
 -0.5050505E-02  0.0000000E+00 -0.5050505E-02 -0.9575583E-08  0.0000000E+00  0.7111765E-05
 -0.5050505E-02  0.0000000E+00 -0.5050505E-02 -0.1408235E-07  0.0000000E+00  0.7103790E-05
 -0.5050505E-02  0.0000000E+00 -0.5050505E-02 -0.1854114E-07  0.0000000E+00  0.7092792E-05
 -0.5050505E-02  0.0000000E+00 -0.5050505E-02 -0.2293256E-07  0.0000000E+00  0.7078808E-05
 -0.5050505E-02  0.0000000E+00 -0.5050505E-02 -0.2723755E-07  0.0000000E+00  0.7061891E-05
 -0.5050505E-02  0.0000000E+00 -0.5050505E-02 -0.3143752E-07  0.0000000E+00  0.7042106E-05
 -0.5050504E-02  0.0000000E+00 -0.5050505E-02 -0.3551442E-07  0.0000000E+00  0.7019529E-05
 -0.5050501E-02  0.0000000E+00 -0.5050505E-02 -0.3945082E-07  0.0000000E+00  0.6994249E-05
 -0.5050495E-02  0.0000000E+00 -0.5050505E-02 -0.4323001E-07  0.0000000E+00  0.6966367E-05
 -0.5050482E-02  0.0000000E+00 -0.5050505E-02 -0.4683608E-07  0.0000000E+00  0.6935994E-05
 -0.5050449E-02  0.0000000E+00 -0.5050505E-02 -0.5025400E-07  0.0000000E+00  0.6903253E-05
 -0.5050376E-02  0.0000000E+00 -0.5050505E-02 -0.5346966E-07  0.0000000E+00  0.6868274E-05
 -0.5050299E-02  0.0000000E+00 -0.5050505E-02 -0.5646993E-07  0.0000000E+00  0.6831200E-05
 -0.5050178E-02  0.0000000E+00 -0.5050505E-02 -0.5924275E-07  0.0000000E+00  0.6792178E-05
 -0.5050018E-02  0.0000000E+00 -0.5050505E-02 -0.6177712E-07  0.0000000E+00  0.6751367E-05
 -0.5049710E-02  0.0000000E+00 -0.5050505E-02 -0.6406317E-07  0.0000000E+00  0.6708931E-05
 -0.5049253E-02  0.0000000E+00 -0.5050505E-02 -0.6609217E-07  0.0000000E+00  0.6665040E-05
 -0.5048636E-02  0.0000000E+00 -0.5050505E-02 -0.6785655E-07  0.0000000E+00  0.6619870E-05
 -0.5047442E-02  0.0000000E+00 -0.5050505E-02 -0.6934991E-07  0.0000000E+00  0.6573602E-05
 -0.5045727E-02  0.0000000E+00 -0.5050505E-02 -0.7056702E-07  0.0000000E+00  0.6526420E-05
 -0.5043261E-02  0.0000000E+00 -0.5050505E-02 -0.7150381E-07  0.0000000E+00  0.6478513E-05
 -0.5038714E-02  0.0000000E+00 -0.5050505E-02 -0.7215736E-07  0.0000000E+00  0.6430069E-05
 -0.5032318E-02  0.0000000E+00 -0.5050505E-02 -0.7252586E-07  0.0000000E+00  0.6381282E-05
 -0.5022454E-02  0.0000000E+00 -0.5050505E-02 -0.7260857E-07  0.0000000E+00  0.6332342E-05
 -0.5012589E-02  0.0000000E+00 -0.5050505E-02 -0.7240579E-07  0.0000000E+00  0.6283444E-05
 -0.5002725E-02  0.0000000E+00 -0.5050505E-02 -0.7191877E-07  0.0000000E+00  0.6234778E-05
 -0.4992860E-02  0.0000000E+00 -0.5050505E-02 -0.7114964E-07  0.0000000E+00  0.6186536E-05
 -0.4976523E-02  0.0000000E+00 -0.5050505E-02 -0.7010132E-07  0.0000000E+00  0.6138906E-05
 -0.4956794E-02  0.0000000E+00 -0.5050505E-02 -0.6877732E-07  0.0000000E+00  0.6092077E-05
 -0.4937066E-02  0.0000000E+00 -0.5050505E-02 -0.6718164E-07  0.0000000E+00  0.6046231E-05
 -0.4906239E-02  0.0000000E+00 -0.5050505E-02 -0.6531847E-07  0.0000000E+00  0.6001550E-05
 -0.4866782E-02  0.0000000E+00 -0.5050505E-02 -0.6319183E-07  0.0000000E+00  0.5958212E-05
 -0.4827325E-02  0.0000000E+00 -0.5050505E-02 -0.6080513E-07  0.0000000E+00  0.5916394E-05
 -0.4769372E-02  0.0000000E+00 -0.5050505E-02 -0.5816036E-07  0.0000000E+00  0.5876268E-05
 -0.4690458E-02  0.0000000E+00 -0.5050505E-02 -0.5525698E-07  0.0000000E+00  0.5838007E-05
 -0.4611543E-02  0.0000000E+00 -0.5050505E-02 -0.5209012E-07  0.0000000E+00  0.5801782E-05
 -0.4503035E-02  0.0000000E+00 -0.5050505E-02 -0.4864760E-07  0.0000000E+00  0.5767772E-05
 -0.4345206E-02  0.0000000E+00 -0.5050505E-02 -0.4490484E-07  0.0000000E+00  0.5736160E-05
 -0.4187378E-02  0.0000000E+00 -0.5050505E-02 -0.4081598E-07  0.0000000E+00  0.5707148E-05
 -0.3985156E-02  0.0000000E+00 -0.5050505E-02 -0.3629734E-07  0.0000000E+00  0.5680970E-05
 -0.3669499E-02  0.0000000E+00 -0.5050505E-02 -0.3119552E-07  0.0000000E+00  0.5657907E-05
 -0.3353842E-02  0.0000000E+00 -0.5050505E-02 -0.2522260E-07  0.0000000E+00  0.5638328E-05
 -0.2978990E-02  0.0000000E+00 -0.5050505E-02 -0.1781696E-07  0.0000000E+00  0.5622726E-05
 -0.2347676E-02  0.0000000E+00 -0.5050505E-02 -0.7826802E-08  0.0000000E+00  0.5611740E-05
 -0.1716362E-02  0.0000000E+00 -0.5050505E-02  0.7253185E-08  0.0000000E+00  0.5605968E-05
 -0.1025842E-02  0.0000000E+00 -0.5050505E-02  0.3323101E-07  0.0000000E+00  0.5604671E-05
  0.2367855E-03  0.0000000E+00 -0.5050505E-02  0.8445663E-07  0.0000000E+00  0.5599247E-05
  0.1499413E-02  0.0000000E+00 -0.5050505E-02  0.1984880E-06  0.0000000E+00  0.5542605E-05
  0.5287294E-02  0.0000000E+00 -0.5050505E-02  0.4781177E-06  0.0000000E+00  0.5206925E-05
 -0.5050505E-02  0.0000000E+00 -0.5050505E-02  0.3494424E-08  0.0000000E+00  0.5750841E-05
 -0.5050505E-02  0.0000000E+00 -0.5050505E-02  0.1047054E-07  0.0000000E+00  0.5753695E-05
 -0.5050505E-02  0.0000000E+00 -0.5050505E-02  0.1740662E-07  0.0000000E+00  0.5759391E-05
 -0.5050505E-02  0.0000000E+00 -0.5050505E-02  0.2427580E-07  0.0000000E+00  0.5767908E-05
 -0.5050505E-02  0.0000000E+00 -0.5050505E-02  0.3105168E-07  0.0000000E+00  0.5779214E-05
 -0.5050505E-02  0.0000000E+00 -0.5050505E-02  0.3770809E-07  0.0000000E+00  0.5793264E-05
 -0.5050504E-02  0.0000000E+00 -0.5050505E-02  0.4421917E-07  0.0000000E+00  0.5810005E-05
 -0.5050501E-02  0.0000000E+00 -0.5050505E-02  0.5055946E-07  0.0000000E+00  0.5829373E-05
 -0.5050495E-02  0.0000000E+00 -0.5050505E-02  0.5670403E-07  0.0000000E+00  0.5851292E-05
 -0.5050482E-02  0.0000000E+00 -0.5050505E-02  0.6262847E-07  0.0000000E+00  0.5875678E-05
 -0.5050449E-02  0.0000000E+00 -0.5050505E-02  0.6830907E-07  0.0000000E+00  0.5902436E-05
 -0.5050376E-02  0.0000000E+00 -0.5050505E-02  0.7372283E-07  0.0000000E+00  0.5931463E-05
 -0.5050299E-02  0.0000000E+00 -0.5050505E-02  0.7884756E-07  0.0000000E+00  0.5962643E-05
 -0.5050178E-02  0.0000000E+00 -0.5050505E-02  0.8366197E-07  0.0000000E+00  0.5995856E-05
 -0.5050018E-02  0.0000000E+00 -0.5050505E-02  0.8814576E-07  0.0000000E+00  0.6030971E-05
 -0.5049710E-02  0.0000000E+00 -0.5050505E-02  0.9227968E-07  0.0000000E+00  0.6067848E-05
 -0.5049253E-02  0.0000000E+00 -0.5050505E-02  0.9604566E-07  0.0000000E+00  0.6106341E-05
 -0.5048636E-02  0.0000000E+00 -0.5050505E-02  0.9942683E-07  0.0000000E+00  0.6146297E-05
 -0.5047442E-02  0.0000000E+00 -0.5050505E-02  0.1024077E-06  0.0000000E+00  0.6187555E-05
 -0.5045727E-02  0.0000000E+00 -0.5050505E-02  0.1049740E-06  0.0000000E+00  0.6229948E-05
 -0.5043261E-02  0.0000000E+00 -0.5050505E-02  0.1071132E-06  0.0000000E+00  0.6273305E-05
 -0.5038714E-02  0.0000000E+00 -0.5050505E-02  0.1088142E-06  0.0000000E+00  0.6317450E-05
 -0.5032318E-02  0.0000000E+00 -0.5050505E-02  0.1100675E-06  0.0000000E+00  0.6362200E-05
 -0.5022454E-02  0.0000000E+00 -0.5050505E-02  0.1108653E-06  0.0000000E+00  0.6407372E-05
 -0.5012589E-02  0.0000000E+00 -0.5050505E-02  0.1112017E-06  0.0000000E+00  0.6452777E-05
 -0.5002725E-02  0.0000000E+00 -0.5050505E-02  0.1110725E-06  0.0000000E+00  0.6498228E-05
 -0.4992860E-02  0.0000000E+00 -0.5050505E-02  0.1104754E-06  0.0000000E+00  0.6543532E-05
 -0.4976523E-02  0.0000000E+00 -0.5050505E-02  0.1094102E-06  0.0000000E+00  0.6588498E-05
 -0.4956794E-02  0.0000000E+00 -0.5050505E-02  0.1078784E-06  0.0000000E+00  0.6632936E-05
 -0.4937066E-02  0.0000000E+00 -0.5050505E-02  0.1058838E-06  0.0000000E+00  0.6676655E-05
 -0.4906239E-02  0.0000000E+00 -0.5050505E-02  0.1034320E-06  0.0000000E+00  0.6719466E-05
 -0.4866782E-02  0.0000000E+00 -0.5050505E-02  0.1005307E-06  0.0000000E+00  0.6761185E-05
 -0.4827325E-02  0.0000000E+00 -0.5050505E-02  0.9718973E-07  0.0000000E+00  0.6801629E-05
 -0.4769372E-02  0.0000000E+00 -0.5050505E-02  0.9342091E-07  0.0000000E+00  0.6840622E-05
 -0.4690458E-02  0.0000000E+00 -0.5050505E-02  0.8923802E-07  0.0000000E+00  0.6877989E-05
 -0.4611543E-02  0.0000000E+00 -0.5050505E-02  0.8465687E-07  0.0000000E+00  0.6913566E-05
 -0.4503035E-02  0.0000000E+00 -0.5050505E-02  0.7969515E-07  0.0000000E+00  0.6947193E-05
 -0.4345206E-02  0.0000000E+00 -0.5050505E-02  0.7437245E-07  0.0000000E+00  0.6978717E-05
 -0.4187378E-02  0.0000000E+00 -0.5050505E-02  0.6871014E-07  0.0000000E+00  0.7007996E-05
 -0.3985156E-02  0.0000000E+00 -0.5050505E-02  0.6273129E-07  0.0000000E+00  0.7034895E-05
 -0.3669499E-02  0.0000000E+00 -0.5050505E-02  0.5646059E-07  0.0000000E+00  0.7059289E-05
 -0.3353842E-02  0.0000000E+00 -0.5050505E-02  0.4992423E-07  0.0000000E+00  0.7081064E-05
 -0.2978990E-02  0.0000000E+00 -0.5050505E-02  0.4314976E-07  0.0000000E+00  0.7100118E-05
 -0.2347676E-02  0.0000000E+00 -0.5050505E-02  0.3616598E-07  0.0000000E+00  0.7116357E-05
 -0.1716362E-02  0.0000000E+00 -0.5050505E-02  0.2900280E-07  0.0000000E+00  0.7129703E-05
 -0.1025842E-02  0.0000000E+00 -0.5050505E-02  0.2169107E-07  0.0000000E+00  0.7140088E-05
  0.2367855E-03  0.0000000E+00 -0.5050505E-02  0.1426244E-07  0.0000000E+00  0.7147459E-05
  0.1499413E-02  0.0000000E+00 -0.5050505E-02  0.6749181E-08  0.0000000E+00  0.7151773E-05
  0.2762042E-02  0.0000000E+00 -0.5050505E-02 -0.8159616E-09  0.0000000E+00  0.7153003E-05
 -0.5050505E-02  0.0000000E+00 -0.5050505E-02 -0.8399975E-08  0.0000000E+00  0.7151133E-05
 -0.5050505E-02  0.0000000E+00 -0.5050505E-02 -0.1596975E-07  0.0000000E+00  0.7146165E-05
 -0.5050505E-02  0.0000000E+00 -0.5050505E-02 -0.2349222E-07  0.0000000E+00  0.7138109E-05
 -0.5050505E-02  0.0000000E+00 -0.5050505E-02 -0.3093456E-07  0.0000000E+00  0.7126991E-05
 -0.5050505E-02  0.0000000E+00 -0.5050505E-02 -0.3826438E-07  0.0000000E+00  0.7112853E-05
 -0.5050505E-02  0.0000000E+00 -0.5050505E-02 -0.4544987E-07  0.0000000E+00  0.7095745E-05
 -0.5050505E-02  0.0000000E+00 -0.5050505E-02 -0.5245996E-07  0.0000000E+00  0.7075734E-05
 -0.5050504E-02  0.0000000E+00 -0.5050505E-02 -0.5926452E-07  0.0000000E+00  0.7052898E-05
 -0.5050501E-02  0.0000000E+00 -0.5050505E-02 -0.6583444E-07  0.0000000E+00  0.7027326E-05
 -0.5050495E-02  0.0000000E+00 -0.5050505E-02 -0.7214184E-07  0.0000000E+00  0.6999121E-05
 -0.5050482E-02  0.0000000E+00 -0.5050505E-02 -0.7816016E-07  0.0000000E+00  0.6968396E-05
 -0.5050449E-02  0.0000000E+00 -0.5050505E-02 -0.8386430E-07  0.0000000E+00  0.6935274E-05
 -0.5050376E-02  0.0000000E+00 -0.5050505E-02 -0.8923070E-07  0.0000000E+00  0.6899888E-05
 -0.5050299E-02  0.0000000E+00 -0.5050505E-02 -0.9423749E-07  0.0000000E+00  0.6862382E-05
 -0.5050178E-02  0.0000000E+00 -0.5050505E-02 -0.9886451E-07  0.0000000E+00  0.6822907E-05
 -0.5050018E-02  0.0000000E+00 -0.5050505E-02 -0.1030934E-06  0.0000000E+00  0.6781622E-05
 -0.5049710E-02  0.0000000E+00 -0.5050505E-02 -0.1069078E-06  0.0000000E+00  0.6738693E-05
 -0.5049253E-02  0.0000000E+00 -0.5050505E-02 -0.1102931E-06  0.0000000E+00  0.6694294E-05
 -0.5048636E-02  0.0000000E+00 -0.5050505E-02 -0.1132367E-06  0.0000000E+00  0.6648602E-05
 -0.5047442E-02  0.0000000E+00 -0.5050505E-02 -0.1157279E-06  0.0000000E+00  0.6601799E-05
 -0.5045727E-02  0.0000000E+00 -0.5050505E-02 -0.1177580E-06  0.0000000E+00  0.6554074E-05
 -0.5043261E-02  0.0000000E+00 -0.5050505E-02 -0.1193204E-06  0.0000000E+00  0.6505616E-05
 -0.5038714E-02  0.0000000E+00 -0.5050505E-02 -0.1204101E-06  0.0000000E+00  0.6456617E-05
 -0.5032318E-02  0.0000000E+00 -0.5050505E-02 -0.1210241E-06  0.0000000E+00  0.6407270E-05
 -0.5022454E-02  0.0000000E+00 -0.5050505E-02 -0.1211615E-06  0.0000000E+00  0.6357771E-05
 -0.5012589E-02  0.0000000E+00 -0.5050505E-02 -0.1208225E-06  0.0000000E+00  0.6308315E-05
 -0.5002725E-02  0.0000000E+00 -0.5050505E-02 -0.1200096E-06  0.0000000E+00  0.6259094E-05
 -0.4992860E-02  0.0000000E+00 -0.5050505E-02 -0.1187263E-06  0.0000000E+00  0.6210301E-05
 -0.4976523E-02  0.0000000E+00 -0.5050505E-02 -0.1169776E-06  0.0000000E+00  0.6162128E-05
 -0.4956794E-02  0.0000000E+00 -0.5050505E-02 -0.1147695E-06  0.0000000E+00  0.6114763E-05
 -0.4937066E-02  0.0000000E+00 -0.5050505E-02 -0.1121091E-06  0.0000000E+00  0.6068391E-05
 -0.4906239E-02  0.0000000E+00 -0.5050505E-02 -0.1090037E-06  0.0000000E+00  0.6023193E-05
 -0.4866782E-02  0.0000000E+00 -0.5050505E-02 -0.1054605E-06  0.0000000E+00  0.5979350E-05
 -0.4827325E-02  0.0000000E+00 -0.5050505E-02 -0.1014860E-06  0.0000000E+00  0.5937034E-05
 -0.4769372E-02  0.0000000E+00 -0.5050505E-02 -0.9708476E-07  0.0000000E+00  0.5896419E-05
 -0.4690458E-02  0.0000000E+00 -0.5050505E-02 -0.9225798E-07  0.0000000E+00  0.5857672E-05
 -0.4611543E-02  0.0000000E+00 -0.5050505E-02 -0.8700083E-07  0.0000000E+00  0.5820959E-05
 -0.4503035E-02  0.0000000E+00 -0.5050505E-02 -0.8129868E-07  0.0000000E+00  0.5786445E-05
 -0.4345206E-02  0.0000000E+00 -0.5050505E-02 -0.7512070E-07  0.0000000E+00  0.5754295E-05
 -0.4187378E-02  0.0000000E+00 -0.5050505E-02 -0.6840915E-07  0.0000000E+00  0.5724677E-05
 -0.3985156E-02  0.0000000E+00 -0.5050505E-02 -0.6106093E-07  0.0000000E+00  0.5697758E-05
 -0.3669499E-02  0.0000000E+00 -0.5050505E-02 -0.5289480E-07  0.0000000E+00  0.5673705E-05
 -0.3353842E-02  0.0000000E+00 -0.5050505E-02 -0.4359228E-07  0.0000000E+00  0.5652663E-05
 -0.2978990E-02  0.0000000E+00 -0.5050505E-02 -0.3258973E-07  0.0000000E+00  0.5634687E-05
 -0.2347676E-02  0.0000000E+00 -0.5050505E-02 -0.1888521E-07  0.0000000E+00  0.5619547E-05
 -0.1716362E-02  0.0000000E+00 -0.5050505E-02 -0.7206150E-09  0.0000000E+00  0.5606172E-05
 -0.1025842E-02  0.0000000E+00 -0.5050505E-02  0.2478829E-07  0.0000000E+00  0.5591186E-05
  0.2367855E-03  0.0000000E+00 -0.5050505E-02  0.6126426E-07  0.0000000E+00  0.5565455E-05
  0.1499413E-02  0.0000000E+00 -0.5050505E-02  0.1073906E-06  0.0000000E+00  0.5508739E-05
  0.5287294E-02  0.0000000E+00 -0.5050505E-02  0.1241546E-06  0.0000000E+00  0.5400593E-05
 -0.5050505E-02  0.0000000E+00 -0.5050505E-02  0.4906524E-08  0.0000000E+00  0.5777657E-05
 -0.5050505E-02  0.0000000E+00 -0.5050505E-02  0.1470152E-07  0.0000000E+00  0.5780558E-05
 -0.5050505E-02  0.0000000E+00 -0.5050505E-02  0.2444036E-07  0.0000000E+00  0.5786349E-05
 -0.5050505E-02  0.0000000E+00 -0.5050505E-02  0.3408537E-07  0.0000000E+00  0.5795008E-05
 -0.5050505E-02  0.0000000E+00 -0.5050505E-02  0.4359953E-07  0.0000000E+00  0.5806502E-05
 -0.5050505E-02  0.0000000E+00 -0.5050505E-02  0.5294611E-07  0.0000000E+00  0.5820787E-05
 -0.5050504E-02  0.0000000E+00 -0.5050505E-02  0.6208883E-07  0.0000000E+00  0.5837808E-05
 -0.5050501E-02  0.0000000E+00 -0.5050505E-02  0.7099198E-07  0.0000000E+00  0.5857500E-05
 -0.5050495E-02  0.0000000E+00 -0.5050505E-02  0.7962055E-07  0.0000000E+00  0.5879786E-05
 -0.5050482E-02  0.0000000E+00 -0.5050505E-02  0.8794033E-07  0.0000000E+00  0.5904582E-05
 -0.5050449E-02  0.0000000E+00 -0.5050505E-02  0.9591800E-07  0.0000000E+00  0.5931791E-05
 -0.5050376E-02  0.0000000E+00 -0.5050505E-02  0.1035213E-06  0.0000000E+00  0.5961307E-05
 -0.5050299E-02  0.0000000E+00 -0.5050505E-02  0.1107191E-06  0.0000000E+00  0.5993015E-05
 -0.5050178E-02  0.0000000E+00 -0.5050505E-02  0.1174814E-06  0.0000000E+00  0.6026791E-05
 -0.5050018E-02  0.0000000E+00 -0.5050505E-02  0.1237798E-06  0.0000000E+00  0.6062503E-05
 -0.5049710E-02  0.0000000E+00 -0.5050505E-02  0.1295872E-06  0.0000000E+00  0.6100009E-05
 -0.5049253E-02  0.0000000E+00 -0.5050505E-02  0.1348782E-06  0.0000000E+00  0.6139161E-05
 -0.5048636E-02  0.0000000E+00 -0.5050505E-02  0.1396292E-06  0.0000000E+00  0.6179802E-05
 -0.5047442E-02  0.0000000E+00 -0.5050505E-02  0.1438182E-06  0.0000000E+00  0.6221771E-05
 -0.5045727E-02  0.0000000E+00 -0.5050505E-02  0.1474254E-06  0.0000000E+00  0.6264897E-05
 -0.5043261E-02  0.0000000E+00 -0.5050505E-02  0.1504330E-06  0.0000000E+00  0.6309007E-05
 -0.5038714E-02  0.0000000E+00 -0.5050505E-02  0.1528253E-06  0.0000000E+00  0.6353920E-05
 -0.5032318E-02  0.0000000E+00 -0.5050505E-02  0.1545890E-06  0.0000000E+00  0.6399452E-05
 -0.5022454E-02  0.0000000E+00 -0.5050505E-02  0.1557132E-06  0.0000000E+00  0.6445417E-05
 -0.5012589E-02  0.0000000E+00 -0.5050505E-02  0.1561894E-06  0.0000000E+00  0.6491623E-05
 -0.5002725E-02  0.0000000E+00 -0.5050505E-02  0.1560117E-06  0.0000000E+00  0.6537877E-05
 -0.4992860E-02  0.0000000E+00 -0.5050505E-02  0.1551770E-06  0.0000000E+00  0.6583986E-05
 -0.4976523E-02  0.0000000E+00 -0.5050505E-02  0.1536846E-06  0.0000000E+00  0.6629755E-05
 -0.4956794E-02  0.0000000E+00 -0.5050505E-02  0.1515368E-06  0.0000000E+00  0.6674988E-05
 -0.4937066E-02  0.0000000E+00 -0.5050505E-02  0.1487388E-06  0.0000000E+00  0.6719494E-05