title = "dataset feddes"
variables = "x", "y", "z", "vx", "vy", "vz"
zone t = "velocities, solution time =  4.100E+01 days        " i =   99, j =   99, k =    1,  f=point
 -0.5050505E-02  0.0000000E+00 -0.5050505E-02  0.4037636E-07  0.0000000E+00 -0.1418205E-03
 -0.5050505E-02  0.0000000E+00 -0.5050505E-02  0.1212215E-06  0.0000000E+00 -0.1416561E-03
 -0.5050505E-02  0.0000000E+00 -0.5050505E-02  0.2023462E-06  0.0000000E+00 -0.1413270E-03
 -0.5050505E-02  0.0000000E+00 -0.5050505E-02  0.2839411E-06  0.0000000E+00 -0.1408324E-03
 -0.5050505E-02  0.0000000E+00 -0.5050505E-02  0.3662015E-06  0.0000000E+00 -0.1401712E-03
 -0.5050505E-02  0.0000000E+00 -0.5050505E-02  0.4493292E-06  0.0000000E+00 -0.1393419E-03
 -0.5050504E-02  0.0000000E+00 -0.5050505E-02  0.5335337E-06  0.0000000E+00 -0.1383425E-03
 -0.5050501E-02  0.0000000E+00 -0.5050505E-02  0.6190345E-06  0.0000000E+00 -0.1371707E-03
 -0.5050495E-02  0.0000000E+00 -0.5050505E-02  0.7060628E-06  0.0000000E+00 -0.1358238E-03
 -0.5050482E-02  0.0000000E+00 -0.5050505E-02  0.7948635E-06  0.0000000E+00 -0.1342984E-03
 -0.5050449E-02  0.0000000E+00 -0.5050505E-02  0.8856978E-06  0.0000000E+00 -0.1325907E-03
 -0.5050376E-02  0.0000000E+00 -0.5050505E-02  0.9788455E-06  0.0000000E+00 -0.1306966E-03
 -0.5050299E-02  0.0000000E+00 -0.5050505E-02  0.1074608E-05  0.0000000E+00 -0.1286110E-03
 -0.5050178E-02  0.0000000E+00 -0.5050505E-02  0.1173311E-05  0.0000000E+00 -0.1263286E-03
 -0.5050018E-02  0.0000000E+00 -0.5050505E-02  0.1275307E-05  0.0000000E+00 -0.1238431E-03
 -0.5049710E-02  0.0000000E+00 -0.5050505E-02  0.1380982E-05  0.0000000E+00 -0.1211477E-03
 -0.5049253E-02  0.0000000E+00 -0.5050505E-02  0.1490757E-05  0.0000000E+00 -0.1182347E-03
 -0.5048636E-02  0.0000000E+00 -0.5050505E-02  0.1605092E-05  0.0000000E+00 -0.1150955E-03
 -0.5047442E-02  0.0000000E+00 -0.5050505E-02  0.1724494E-05  0.0000000E+00 -0.1117207E-03
 -0.5045727E-02  0.0000000E+00 -0.5050505E-02  0.1849520E-05  0.0000000E+00 -0.1080996E-03
 -0.5043261E-02  0.0000000E+00 -0.5050505E-02  0.1980787E-05  0.0000000E+00 -0.1042208E-03
 -0.5038714E-02  0.0000000E+00 -0.5050505E-02  0.2118975E-05  0.0000000E+00 -0.1000710E-03
 -0.5032318E-02  0.0000000E+00 -0.5050505E-02  0.2264841E-05  0.0000000E+00 -0.9563618E-04
 -0.5022454E-02  0.0000000E+00 -0.5050505E-02  0.2419222E-05  0.0000000E+00 -0.9090025E-04
 -0.5012589E-02  0.0000000E+00 -0.5050505E-02  0.2583054E-05  0.0000000E+00 -0.8584565E-04
 -0.5002725E-02  0.0000000E+00 -0.5050505E-02  0.2757376E-05  0.0000000E+00 -0.8045286E-04
 -0.4992860E-02  0.0000000E+00 -0.5050505E-02  0.2943353E-05  0.0000000E+00 -0.7470021E-04
 -0.4976523E-02  0.0000000E+00 -0.5050505E-02  0.3142285E-05  0.0000000E+00 -0.6856369E-04
 -0.4956794E-02  0.0000000E+00 -0.5050505E-02  0.3355633E-05  0.0000000E+00 -0.6201662E-04
 -0.4937066E-02  0.0000000E+00 -0.5050505E-02  0.3585036E-05  0.0000000E+00 -0.5502936E-04
 -0.4906239E-02  0.0000000E+00 -0.5050505E-02  0.3832339E-05  0.0000000E+00 -0.4756894E-04
 -0.4866782E-02  0.0000000E+00 -0.5050505E-02  0.4099625E-05  0.0000000E+00 -0.3959867E-04
 -0.4827325E-02  0.0000000E+00 -0.5050505E-02  0.4389247E-05  0.0000000E+00 -0.3107764E-04
 -0.4769372E-02  0.0000000E+00 -0.5050505E-02  0.4703869E-05  0.0000000E+00 -0.2196023E-04
 -0.4690458E-02  0.0000000E+00 -0.5050505E-02  0.5046517E-05  0.0000000E+00 -0.1219547E-04
 -0.4611543E-02  0.0000000E+00 -0.5050505E-02  0.5420634E-05  0.0000000E+00 -0.1720123E-05
 -0.4503035E-02  0.0000000E+00 -0.5050505E-02  0.5830237E-05  0.0000000E+00  0.9554203E-05
 -0.4345206E-02  0.0000000E+00 -0.5050505E-02  0.6279951E-05  0.0000000E+00  0.2171430E-04
 -0.4187378E-02  0.0000000E+00 -0.5050505E-02  0.6775095E-05  0.0000000E+00  0.3484272E-04
 -0.3985156E-02  0.0000000E+00 -0.5050505E-02  0.7321824E-05  0.0000000E+00  0.4904169E-04
 -0.3669499E-02  0.0000000E+00 -0.5050505E-02  0.7927286E-05  0.0000000E+00  0.6442794E-04
 -0.3353842E-02  0.0000000E+00 -0.5050505E-02  0.8599848E-05  0.0000000E+00  0.8113515E-04
 -0.2978990E-02  0.0000000E+00 -0.5050505E-02  0.9349395E-05  0.0000000E+00  0.9931711E-04
 -0.2347676E-02  0.0000000E+00 -0.5050505E-02  0.1018776E-04  0.0000000E+00  0.1191516E-03
 -0.1716362E-02  0.0000000E+00 -0.5050505E-02  0.1112935E-04  0.0000000E+00  0.1408457E-03
 -0.1025842E-02  0.0000000E+00 -0.5050505E-02  0.1219209E-04  0.0000000E+00  0.1646426E-03
  0.2367855E-03  0.0000000E+00 -0.5050505E-02  0.1339874E-04  0.0000000E+00  0.1908311E-03
  0.1499413E-02  0.0000000E+00 -0.5050505E-02  0.1477853E-04  0.0000000E+00  0.2197587E-03
  0.2762042E-02  0.0000000E+00 -0.5050505E-02  0.1636868E-04  0.0000000E+00  0.2518483E-03
 -0.5050505E-02  0.0000000E+00 -0.5050505E-02  0.1821441E-04  0.0000000E+00  0.2876172E-03
 -0.5050505E-02  0.0000000E+00 -0.5050505E-02  0.2036441E-04  0.0000000E+00  0.3276929E-03
 -0.5050505E-02  0.0000000E+00 -0.5050505E-02  0.2286210E-04  0.0000000E+00  0.3728157E-03
 -0.5050505E-02  0.0000000E+00 -0.5050505E-02  0.2576393E-04  0.0000000E+00  0.4238534E-03
 -0.5050505E-02  0.0000000E+00 -0.5050505E-02  0.2938264E-04  0.0000000E+00  0.4820947E-03
 -0.5050505E-02  0.0000000E+00 -0.5050505E-02  0.3560965E-04  0.0000000E+00  0.5512265E-03
 -0.5050505E-02  0.0000000E+00 -0.5050505E-02  0.5305446E-04  0.0000000E+00  0.6463744E-03
 -0.5050504E-02  0.0000000E+00 -0.5050505E-02 -0.5538413E-04  0.0000000E+00  0.6439006E-03
 -0.5050501E-02  0.0000000E+00 -0.5050505E-02 -0.3543299E-04  0.0000000E+00  0.5464879E-03
 -0.5050495E-02  0.0000000E+00 -0.5050505E-02 -0.2654243E-04  0.0000000E+00  0.4805688E-03
 -0.5050482E-02  0.0000000E+00 -0.5050505E-02 -0.2159204E-04  0.0000000E+00  0.4296940E-03
 -0.5050449E-02  0.0000000E+00 -0.5050505E-02 -0.1836220E-04  0.0000000E+00  0.3876823E-03
 -0.5050376E-02  0.0000000E+00 -0.5050505E-02 -0.1604267E-04  0.0000000E+00  0.3516645E-03
 -0.5050299E-02  0.0000000E+00 -0.5050505E-02 -0.1427729E-04  0.0000000E+00  0.3200450E-03
 -0.5050178E-02  0.0000000E+00 -0.5050505E-02 -0.1288005E-04  0.0000000E+00  0.2918209E-03
 -0.5050018E-02  0.0000000E+00 -0.5050505E-02 -0.1174079E-04  0.0000000E+00  0.2663122E-03
 -0.5049710E-02  0.0000000E+00 -0.5050505E-02 -0.1078892E-04  0.0000000E+00  0.2430361E-03
 -0.5049253E-02  0.0000000E+00 -0.5050505E-02 -0.9976998E-05  0.0000000E+00  0.2216380E-03
 -0.5048636E-02  0.0000000E+00 -0.5050505E-02 -0.9272119E-05  0.0000000E+00  0.2018506E-03
 -0.5047442E-02  0.0000000E+00 -0.5050505E-02 -0.8650875E-05  0.0000000E+00  0.1834677E-03
 -0.5045727E-02  0.0000000E+00 -0.5050505E-02 -0.8096218E-05  0.0000000E+00  0.1663266E-03
 -0.5043261E-02  0.0000000E+00 -0.5050505E-02 -0.7595443E-05  0.0000000E+00  0.1502972E-03
 -0.5038714E-02  0.0000000E+00 -0.5050505E-02 -0.7138865E-05  0.0000000E+00  0.1352732E-03
 -0.5032318E-02  0.0000000E+00 -0.5050505E-02 -0.6718944E-05  0.0000000E+00  0.1211673E-03
 -0.5022454E-02  0.0000000E+00 -0.5050505E-02 -0.6329699E-05  0.0000000E+00  0.1079065E-03
 -0.5012589E-02  0.0000000E+00 -0.5050505E-02 -0.5966311E-05  0.0000000E+00  0.9542962E-04
 -0.5002725E-02  0.0000000E+00 -0.5050505E-02 -0.5624849E-05  0.0000000E+00  0.8368480E-04
 -0.4992860E-02  0.0000000E+00 -0.5050505E-02 -0.5302074E-05  0.0000000E+00  0.7262798E-04
 -0.4976523E-02  0.0000000E+00 -0.5050505E-02 -0.4995300E-05  0.0000000E+00  0.6222144E-04
 -0.4956794E-02  0.0000000E+00 -0.5050505E-02 -0.4702284E-05  0.0000000E+00  0.5243276E-04
 -0.4937066E-02  0.0000000E+00 -0.5050505E-02 -0.4421150E-05  0.0000000E+00  0.4323399E-04
 -0.4906239E-02  0.0000000E+00 -0.5050505E-02 -0.4150318E-05  0.0000000E+00  0.3460087E-04
 -0.4866782E-02  0.0000000E+00 -0.5050505E-02 -0.3888460E-05  0.0000000E+00  0.2651228E-04
 -0.4827325E-02  0.0000000E+00 -0.5050505E-02 -0.3634453E-05  0.0000000E+00  0.1894975E-04
 -0.4769372E-02  0.0000000E+00 -0.5050505E-02 -0.3387345E-05  0.0000000E+00  0.1189708E-04
 -0.4690458E-02  0.0000000E+00 -0.5050505E-02 -0.3146342E-05  0.0000000E+00  0.5339926E-05
 -0.4611543E-02  0.0000000E+00 -0.5050505E-02 -0.2910775E-05  0.0000000E+00 -0.7299172E-06
 -0.4503035E-02  0.0000000E+00 -0.5050505E-02 -0.2679820E-05  0.0000000E+00 -0.6324404E-05
 -0.4345206E-02  0.0000000E+00 -0.5050505E-02 -0.2453440E-05  0.0000000E+00 -0.1146157E-04
 -0.4187378E-02  0.0000000E+00 -0.5050505E-02 -0.2231287E-05  0.0000000E+00 -0.1615282E-04
 -0.3985156E-02  0.0000000E+00 -0.5050505E-02 -0.2013184E-05  0.0000000E+00 -0.2040564E-04
 -0.3669499E-02  0.0000000E+00 -0.5050505E-02 -0.1799208E-05  0.0000000E+00 -0.2422752E-04
 -0.3353842E-02  0.0000000E+00 -0.5050505E-02 -0.1589894E-05  0.0000000E+00 -0.2762664E-04
 -0.2978990E-02  0.0000000E+00 -0.5050505E-02 -0.1386725E-05  0.0000000E+00 -0.3061330E-04
 -0.2347676E-02  0.0000000E+00 -0.5050505E-02 -0.1193358E-05  0.0000000E+00 -0.3320303E-04
 -0.1716362E-02  0.0000000E+00 -0.5050505E-02 -0.1019042E-05  0.0000000E+00 -0.3542440E-04
 -0.1025842E-02  0.0000000E+00 -0.5050505E-02 -0.8889326E-06  0.0000000E+00 -0.3734064E-04
  0.2367855E-03  0.0000000E+00 -0.5050505E-02 -0.8782626E-06  0.0000000E+00 -0.3911591E-04
  0.1499413E-02  0.0000000E+00 -0.5050505E-02 -0.1235322E-05  0.0000000E+00 -0.4123966E-04
  0.5287294E-02  0.0000000E+00 -0.5050505E-02 -0.1496114E-04  0.0000000E+00 -0.3324919E-04
 -0.5050505E-02  0.0000000E+00 -0.5050505E-02  0.1210258E-06  0.0000000E+00 -0.1416113E-03
 -0.5050505E-02  0.0000000E+00 -0.5050505E-02  0.3633551E-06  0.0000000E+00 -0.1414469E-03
 -0.5050505E-02  0.0000000E+00 -0.5050505E-02  0.6065226E-06  0.0000000E+00 -0.1411178E-03
 -0.5050505E-02  0.0000000E+00 -0.5050505E-02  0.8510992E-06  0.0000000E+00 -0.1406232E-03
 -0.5050505E-02  0.0000000E+00 -0.5050505E-02  0.1097670E-05  0.0000000E+00 -0.1399620E-03
 -0.5050505E-02  0.0000000E+00 -0.5050505E-02  0.1346838E-05  0.0000000E+00 -0.1391326E-03
 -0.5050504E-02  0.0000000E+00 -0.5050505E-02  0.1599230E-05  0.0000000E+00 -0.1381333E-03
 -0.5050501E-02  0.0000000E+00 -0.5050505E-02  0.1855505E-05  0.0000000E+00 -0.1369616E-03
 -0.5050495E-02  0.0000000E+00 -0.5050505E-02  0.2116352E-05  0.0000000E+00 -0.1356147E-03
 -0.5050482E-02  0.0000000E+00 -0.5050505E-02  0.2382505E-05  0.0000000E+00 -0.1340895E-03
 -0.5050449E-02  0.0000000E+00 -0.5050505E-02  0.2654747E-05  0.0000000E+00 -0.1323821E-03
 -0.5050376E-02  0.0000000E+00 -0.5050505E-02  0.2933913E-05  0.0000000E+00 -0.1304884E-03
 -0.5050299E-02  0.0000000E+00 -0.5050505E-02  0.3220906E-05  0.0000000E+00 -0.1284033E-03
 -0.5050178E-02  0.0000000E+00 -0.5050505E-02  0.3516699E-05  0.0000000E+00 -0.1261216E-03
 -0.5050018E-02  0.0000000E+00 -0.5050505E-02  0.3822351E-05  0.0000000E+00 -0.1236370E-03
 -0.5049710E-02  0.0000000E+00 -0.5050505E-02  0.4139013E-05  0.0000000E+00 -0.1209428E-03
 -0.5049253E-02  0.0000000E+00 -0.5050505E-02  0.4467944E-05  0.0000000E+00 -0.1180312E-03
 -0.5048636E-02  0.0000000E+00 -0.5050505E-02  0.4810522E-05  0.0000000E+00 -0.1148938E-03
 -0.5047442E-02  0.0000000E+00 -0.5050505E-02  0.5168264E-05  0.0000000E+00 -0.1115212E-03
 -0.5045727E-02  0.0000000E+00 -0.5050505E-02  0.5542837E-05  0.0000000E+00 -0.1079028E-03
 -0.5043261E-02  0.0000000E+00 -0.5050505E-02  0.5936085E-05  0.0000000E+00 -0.1040271E-03
 -0.5038714E-02  0.0000000E+00 -0.5050505E-02  0.6350045E-05  0.0000000E+00 -0.9988128E-04
 -0.5032318E-02  0.0000000E+00 -0.5050505E-02  0.6786976E-05  0.0000000E+00 -0.9545099E-04
 -0.5022454E-02  0.0000000E+00 -0.5050505E-02  0.7249389E-05  0.0000000E+00 -0.9072049E-04
 -0.5012589E-02  0.0000000E+00 -0.5050505E-02  0.7740077E-05  0.0000000E+00 -0.8567228E-04
 -0.5002725E-02  0.0000000E+00 -0.5050505E-02  0.8262152E-05  0.0000000E+00 -0.8028700E-04
 -0.4992860E-02  0.0000000E+00 -0.5050505E-02  0.8819094E-05  0.0000000E+00 -0.7454316E-04
 -0.4976523E-02  0.0000000E+00 -0.5050505E-02  0.9414795E-05  0.0000000E+00 -0.6841692E-04
 -0.4956794E-02  0.0000000E+00 -0.5050505E-02  0.1005362E-04  0.0000000E+00 -0.6188183E-04
 -0.4937066E-02  0.0000000E+00 -0.5050505E-02  0.1074047E-04  0.0000000E+00 -0.5490851E-04
 -0.4906239E-02  0.0000000E+00 -0.5050505E-02  0.1148087E-04  0.0000000E+00 -0.4746431E-04
 -0.4866782E-02  0.0000000E+00 -0.5050505E-02  0.1228103E-04  0.0000000E+00 -0.3951286E-04
 -0.4827325E-02  0.0000000E+00 -0.5050505E-02  0.1314799E-04  0.0000000E+00 -0.3101368E-04
 -0.4769372E-02  0.0000000E+00 -0.5050505E-02  0.1408973E-04  0.0000000E+00 -0.2192163E-04
 -0.4690458E-02  0.0000000E+00 -0.5050505E-02  0.1511527E-04  0.0000000E+00 -0.1218631E-04
 -0.4611543E-02  0.0000000E+00 -0.5050505E-02  0.1623491E-04  0.0000000E+00 -0.1745233E-05
 -0.4503035E-02  0.0000000E+00 -0.5050505E-02  0.1746062E-04  0.0000000E+00  0.9489054E-05
 -0.4345206E-02  0.0000000E+00 -0.5050505E-02  0.1880621E-04  0.0000000E+00  0.2160233E-04
 -0.4187378E-02  0.0000000E+00 -0.5050505E-02  0.2028754E-04  0.0000000E+00  0.3467593E-04
 -0.3985156E-02  0.0000000E+00 -0.5050505E-02  0.2192295E-04  0.0000000E+00  0.4881061E-04
 -0.3669499E-02  0.0000000E+00 -0.5050505E-02  0.2373373E-04  0.0000000E+00  0.6412122E-04
 -0.3353842E-02  0.0000000E+00 -0.5050505E-02  0.2574473E-04  0.0000000E+00  0.8073914E-04
 -0.2978990E-02  0.0000000E+00 -0.5050505E-02  0.2798526E-04  0.0000000E+00  0.9881507E-04
 -0.2347676E-02  0.0000000E+00 -0.5050505E-02  0.3049028E-04  0.0000000E+00  0.1185227E-03
 -0.1716362E-02  0.0000000E+00 -0.5050505E-02  0.3330220E-04  0.0000000E+00  0.1400635E-03
 -0.1025842E-02  0.0000000E+00 -0.5050505E-02  0.3647367E-04  0.0000000E+00  0.1636726E-03
  0.2367855E-03  0.0000000E+00 -0.5050505E-02  0.4007146E-04  0.0000000E+00  0.1896280E-03
  0.1499413E-02  0.0000000E+00 -0.5050505E-02  0.4418200E-04  0.0000000E+00  0.2182629E-03
  0.2762042E-02  0.0000000E+00 -0.5050505E-02  0.4891736E-04  0.0000000E+00  0.2499844E-03
 -0.5050505E-02  0.0000000E+00 -0.5050505E-02  0.5441774E-04  0.0000000E+00  0.2852982E-03
 -0.5050505E-02  0.0000000E+00 -0.5050505E-02  0.6083804E-04  0.0000000E+00  0.3248328E-03
 -0.5050505E-02  0.0000000E+00 -0.5050505E-02  0.6829068E-04  0.0000000E+00  0.3693194E-03
 -0.5050505E-02  0.0000000E+00 -0.5050505E-02  0.7671279E-04  0.0000000E+00  0.4193539E-03
 -0.5050505E-02  0.0000000E+00 -0.5050505E-02  0.8579506E-04  0.0000000E+00  0.4743857E-03
 -0.5050505E-02  0.0000000E+00 -0.5050505E-02  0.9642437E-04  0.0000000E+00  0.5298014E-03
 -0.5050505E-02  0.0000000E+00 -0.5050505E-02  0.1227857E-03  0.0000000E+00  0.5745793E-03
 -0.5050504E-02  0.0000000E+00 -0.5050505E-02 -0.1321771E-03  0.0000000E+00  0.5695913E-03
 -0.5050501E-02  0.0000000E+00 -0.5050505E-02 -0.9605755E-04  0.0000000E+00  0.5198745E-03
 -0.5050495E-02  0.0000000E+00 -0.5050505E-02 -0.7599103E-04  0.0000000E+00  0.4688467E-03
 -0.5050482E-02  0.0000000E+00 -0.5050505E-02 -0.6320339E-04  0.0000000E+00  0.4235268E-03
 -0.5050449E-02  0.0000000E+00 -0.5050505E-02 -0.5426680E-04  0.0000000E+00  0.3840438E-03
 -0.5050376E-02  0.0000000E+00 -0.5050505E-02 -0.4763829E-04  0.0000000E+00  0.3493925E-03
 -0.5050299E-02  0.0000000E+00 -0.5050505E-02 -0.4251384E-04  0.0000000E+00  0.3186024E-03
 -0.5050178E-02  0.0000000E+00 -0.5050505E-02 -0.3842328E-04  0.0000000E+00  0.2909168E-03
 -0.5050018E-02  0.0000000E+00 -0.5050505E-02 -0.3506979E-04  0.0000000E+00  0.2657711E-03
 -0.5049710E-02  0.0000000E+00 -0.5050505E-02 -0.3225684E-04  0.0000000E+00  0.2427454E-03
 -0.5049253E-02  0.0000000E+00 -0.5050505E-02 -0.2985017E-04  0.0000000E+00  0.2215225E-03
 -0.5048636E-02  0.0000000E+00 -0.5050505E-02 -0.2775576E-04  0.0000000E+00  0.2018591E-03
 -0.5047442E-02  0.0000000E+00 -0.5050505E-02 -0.2590634E-04  0.0000000E+00  0.1835645E-03
 -0.5045727E-02  0.0000000E+00 -0.5050505E-02 -0.2425268E-04  0.0000000E+00  0.1664866E-03
 -0.5043261E-02  0.0000000E+00 -0.5050505E-02 -0.2275790E-04  0.0000000E+00  0.1505022E-03
 -0.5038714E-02  0.0000000E+00 -0.5050505E-02 -0.2139379E-04  0.0000000E+00  0.1355102E-03
 -0.5032318E-02  0.0000000E+00 -0.5050505E-02 -0.2013829E-04  0.0000000E+00  0.1214264E-03
 -0.5022454E-02  0.0000000E+00 -0.5050505E-02 -0.1897382E-04  0.0000000E+00  0.1081803E-03
 -0.5012589E-02  0.0000000E+00 -0.5050505E-02 -0.1788620E-04  0.0000000E+00  0.9571269E-04
 -0.5002725E-02  0.0000000E+00 -0.5050505E-02 -0.1686380E-04  0.0000000E+00  0.8397291E-04
 -0.4992860E-02  0.0000000E+00 -0.5050505E-02 -0.1589704E-04  0.0000000E+00  0.7291793E-04
 -0.4976523E-02  0.0000000E+00 -0.5050505E-02 -0.1497795E-04  0.0000000E+00  0.6251084E-04
 -0.4956794E-02  0.0000000E+00 -0.5050505E-02 -0.1409988E-04  0.0000000E+00  0.5271984E-04
 -0.4937066E-02  0.0000000E+00 -0.5050505E-02 -0.1325726E-04  0.0000000E+00  0.4351744E-04
 -0.4906239E-02  0.0000000E+00 -0.5050505E-02 -0.1244539E-04  0.0000000E+00  0.3487979E-04
 -0.4866782E-02  0.0000000E+00 -0.5050505E-02 -0.1166031E-04  0.0000000E+00  0.2678609E-04
 -0.4827325E-02  0.0000000E+00 -0.5050505E-02 -0.1089869E-04  0.0000000E+00  0.1921812E-04
 -0.4769372E-02  0.0000000E+00 -0.5050505E-02 -0.1015769E-04  0.0000000E+00  0.1215988E-04
 -0.4690458E-02  0.0000000E+00 -0.5050505E-02 -0.9434935E-05  0.0000000E+00  0.5597213E-05
 -0.4611543E-02  0.0000000E+00 -0.5050505E-02 -0.8728433E-05  0.0000000E+00 -0.4781955E-06
 -0.4503035E-02  0.0000000E+00 -0.5050505E-02 -0.8035692E-05  0.0000000E+00 -0.6077714E-05
 -0.4345206E-02  0.0000000E+00 -0.5050505E-02 -0.7356596E-05  0.0000000E+00 -0.1121895E-04
 -0.4187378E-02  0.0000000E+00 -0.5050505E-02 -0.6690057E-05  0.0000000E+00 -0.1591348E-04
 -0.3985156E-02  0.0000000E+00 -0.5050505E-02 -0.6035443E-05  0.0000000E+00 -0.2016841E-04
 -0.3669499E-02  0.0000000E+00 -0.5050505E-02 -0.5392771E-05  0.0000000E+00 -0.2399053E-04
 -0.3353842E-02  0.0000000E+00 -0.5050505E-02 -0.4763146E-05  0.0000000E+00 -0.2738660E-04
 -0.2978990E-02  0.0000000E+00 -0.5050505E-02 -0.4149745E-05  0.0000000E+00 -0.3036374E-04
 -0.2347676E-02  0.0000000E+00 -0.5050505E-02 -0.3560076E-05  0.0000000E+00 -0.3292956E-04
 -0.1716362E-02  0.0000000E+00 -0.5050505E-02 -0.3011438E-05  0.0000000E+00 -0.3509077E-04
 -0.1025842E-02  0.0000000E+00 -0.5050505E-02 -0.2544816E-05  0.0000000E+00 -0.3684368E-04
  0.2367855E-03  0.0000000E+00 -0.5050505E-02 -0.2262131E-05  0.0000000E+00 -0.3812684E-04
  0.1499413E-02  0.0000000E+00 -0.5050505E-02 -0.2430058E-05  0.0000000E+00 -0.3860007E-04
  0.5287294E-02  0.0000000E+00 -0.5050505E-02 -0.3776077E-05  0.0000000E+00 -0.3662488E-04
 -0.5050505E-02  0.0000000E+00 -0.5050505E-02  0.2014715E-06  0.0000000E+00 -0.1411996E-03
 -0.5050505E-02  0.0000000E+00 -0.5050505E-02  0.6048767E-06  0.0000000E+00 -0.1410352E-03
 -0.5050505E-02  0.0000000E+00 -0.5050505E-02  0.1009676E-05  0.0000000E+00 -0.1407060E-03
 -0.5050505E-02  0.0000000E+00 -0.5050505E-02  0.1416818E-05  0.0000000E+00 -0.1402113E-03
 -0.5050505E-02  0.0000000E+00 -0.5050505E-02  0.1827273E-05  0.0000000E+00 -0.1395501E-03
 -0.5050505E-02  0.0000000E+00 -0.5050505E-02  0.2242043E-05  0.0000000E+00 -0.1387207E-03
 -0.5050504E-02  0.0000000E+00 -0.5050505E-02  0.2662168E-05  0.0000000E+00 -0.1377214E-03
 -0.5050501E-02  0.0000000E+00 -0.5050505E-02  0.3088738E-05  0.0000000E+00 -0.1365498E-03
 -0.5050495E-02  0.0000000E+00 -0.5050505E-02  0.3522901E-05  0.0000000E+00 -0.1352032E-03
 -0.5050482E-02  0.0000000E+00 -0.5050505E-02  0.3965872E-05  0.0000000E+00 -0.1336783E-03
 -0.5050449E-02  0.0000000E+00 -0.5050505E-02  0.4418949E-05  0.0000000E+00 -0.1319714E-03
 -0.5050376E-02  0.0000000E+00 -0.5050505E-02  0.4883519E-05  0.0000000E+00 -0.1300784E-03
 -0.5050299E-02  0.0000000E+00 -0.5050505E-02  0.5361079E-05  0.0000000E+00 -0.1279944E-03
 -0.5050178E-02  0.0000000E+00 -0.5050505E-02  0.5853243E-05  0.0000000E+00 -0.1257141E-03
 -0.5050018E-02  0.0000000E+00 -0.5050505E-02  0.6361767E-05  0.0000000E+00 -0.1232312E-03
 -0.5049710E-02  0.0000000E+00 -0.5050505E-02  0.6888560E-05  0.0000000E+00 -0.1205392E-03
 -0.5049253E-02  0.0000000E+00 -0.5050505E-02  0.7435709E-05  0.0000000E+00 -0.1176305E-03
 -0.5048636E-02  0.0000000E+00 -0.5050505E-02  0.8005501E-05  0.0000000E+00 -0.1144966E-03
 -0.5047442E-02  0.0000000E+00 -0.5050505E-02  0.8600447E-05  0.0000000E+00 -0.1111283E-03
 -0.5045727E-02  0.0000000E+00 -0.5050505E-02  0.9223314E-05  0.0000000E+00 -0.1075151E-03
 -0.5043261E-02  0.0000000E+00 -0.5050505E-02  0.9877157E-05  0.0000000E+00 -0.1036458E-03
 -0.5038714E-02  0.0000000E+00 -0.5050505E-02  0.1056535E-04  0.0000000E+00 -0.9950745E-04
 -0.5032318E-02  0.0000000E+00 -0.5050505E-02  0.1129164E-04  0.0000000E+00 -0.9508615E-04
 -0.5022454E-02  0.0000000E+00 -0.5050505E-02  0.1206019E-04  0.0000000E+00 -0.9036629E-04
 -0.5012589E-02  0.0000000E+00 -0.5050505E-02  0.1287562E-04  0.0000000E+00 -0.8533064E-04
 -0.5002725E-02  0.0000000E+00 -0.5050505E-02  0.1374309E-04  0.0000000E+00 -0.7996011E-04
 -0.4992860E-02  0.0000000E+00 -0.5050505E-02  0.1466836E-04  0.0000000E+00 -0.7423354E-04
 -0.4976523E-02  0.0000000E+00 -0.5050505E-02  0.1565788E-04  0.0000000E+00 -0.6812749E-04
 -0.4956794E-02  0.0000000E+00 -0.5050505E-02  0.1671887E-04  0.0000000E+00 -0.6161594E-04
 -0.4937066E-02  0.0000000E+00 -0.5050505E-02  0.1785944E-04  0.0000000E+00 -0.5467001E-04
 -0.4906239E-02  0.0000000E+00 -0.5050505E-02  0.1908873E-04  0.0000000E+00 -0.4725763E-04
 -0.4866782E-02  0.0000000E+00 -0.5050505E-02  0.2041703E-04  0.0000000E+00 -0.3934315E-04
 -0.4827325E-02  0.0000000E+00 -0.5050505E-02  0.2185597E-04  0.0000000E+00 -0.3088687E-04
 -0.4769372E-02  0.0000000E+00 -0.5050505E-02  0.2341872E-04  0.0000000E+00 -0.2184460E-04
 -0.4690458E-02  0.0000000E+00 -0.5050505E-02  0.2512023E-04  0.0000000E+00 -0.1216703E-04
 -0.4611543E-02  0.0000000E+00 -0.5050505E-02  0.2697748E-04  0.0000000E+00 -0.1793180E-05
 -0.4503035E-02  0.0000000E+00 -0.5050505E-02  0.2901022E-04  0.0000000E+00  0.9362627E-05
 -0.4345206E-02  0.0000000E+00 -0.5050505E-02  0.3124120E-04  0.0000000E+00  0.2138419E-04
 -0.4187378E-02  0.0000000E+00 -0.5050505E-02  0.3369654E-04  0.0000000E+00  0.3435047E-04
 -0.3985156E-02  0.0000000E+00 -0.5050505E-02  0.3640641E-04  0.0000000E+00  0.4835936E-04
 -0.3669499E-02  0.0000000E+00 -0.5050505E-02  0.3940574E-04  0.0000000E+00  0.6352220E-04
 -0.3353842E-02  0.0000000E+00 -0.5050505E-02  0.4273519E-04  0.0000000E+00  0.7996589E-04
 -0.2978990E-02  0.0000000E+00 -0.5050505E-02  0.4644246E-04  0.0000000E+00  0.9783542E-04
 -0.2347676E-02  0.0000000E+00 -0.5050505E-02  0.5058406E-04  0.0000000E+00  0.1172968E-03
 -0.1716362E-02  0.0000000E+00 -0.5050505E-02  0.5522804E-04  0.0000000E+00  0.1385409E-03
 -0.1025842E-02  0.0000000E+00 -0.5050505E-02  0.6045810E-04  0.0000000E+00  0.1617878E-03
  0.2367855E-03  0.0000000E+00 -0.5050505E-02  0.6638020E-04  0.0000000E+00  0.1872939E-03
  0.1499413E-02  0.0000000E+00 -0.5050505E-02  0.7313261E-04  0.0000000E+00  0.2153623E-03
  0.2762042E-02  0.0000000E+00 -0.5050505E-02  0.8090057E-04  0.0000000E+00  0.2463629E-03
 -0.5050505E-02  0.0000000E+00 -0.5050505E-02  0.8993328E-04  0.0000000E+00  0.2807698E-03
 -0.5050505E-02  0.0000000E+00 -0.5050505E-02  0.1005480E-03  0.0000000E+00  0.3192369E-03
 -0.5050505E-02  0.0000000E+00 -0.5050505E-02  0.1130536E-03  0.0000000E+00  0.3627183E-03
 -0.5050505E-02  0.0000000E+00 -0.5050505E-02  0.1273313E-03  0.0000000E+00  0.4124960E-03
 -0.5050505E-02  0.0000000E+00 -0.5050505E-02  0.1410616E-03  0.0000000E+00  0.4688955E-03
 -0.5050505E-02  0.0000000E+00 -0.5050505E-02  0.1426887E-03  0.0000000E+00  0.5210901E-03
 -0.5050505E-02  0.0000000E+00 -0.5050505E-02  0.1455749E-03  0.0000000E+00  0.5502855E-03
 -0.5050504E-02  0.0000000E+00 -0.5050505E-02 -0.1713626E-03  0.0000000E+00  0.5380258E-03
 -0.5050501E-02  0.0000000E+00 -0.5050505E-02 -0.1418844E-03  0.0000000E+00  0.4970926E-03
 -0.5050495E-02  0.0000000E+00 -0.5050505E-02 -0.1187776E-03  0.0000000E+00  0.4541677E-03
 -0.5050482E-02  0.0000000E+00 -0.5050505E-02 -0.1013347E-03  0.0000000E+00  0.4140934E-03
 -0.5050449E-02  0.0000000E+00 -0.5050505E-02 -0.8812212E-04  0.0000000E+00  0.3779229E-03
 -0.5050376E-02  0.0000000E+00 -0.5050505E-02 -0.7792838E-04  0.0000000E+00  0.3454137E-03
 -0.5050299E-02  0.0000000E+00 -0.5050505E-02 -0.6987811E-04  0.0000000E+00  0.3160448E-03
 -0.5050178E-02  0.0000000E+00 -0.5050505E-02 -0.6336598E-04  0.0000000E+00  0.2893212E-03
 -0.5050018E-02  0.0000000E+00 -0.5050505E-02 -0.5797640E-04  0.0000000E+00  0.2648368E-03
 -0.5049710E-02  0.0000000E+00 -0.5050505E-02 -0.5342236E-04  0.0000000E+00  0.2422710E-03
 -0.5049253E-02  0.0000000E+00 -0.5050505E-02 -0.4950323E-04  0.0000000E+00  0.2213714E-03
 -0.5048636E-02  0.0000000E+00 -0.5050505E-02 -0.4607665E-04  0.0000000E+00  0.2019370E-03
 -0.5047442E-02  0.0000000E+00 -0.5050505E-02 -0.4303965E-04  0.0000000E+00  0.1838054E-03
 -0.5045727E-02  0.0000000E+00 -0.5050505E-02 -0.4031618E-04  0.0000000E+00  0.1668439E-03
 -0.5043261E-02  0.0000000E+00 -0.5050505E-02 -0.3784879E-04  0.0000000E+00  0.1509421E-03
 -0.5038714E-02  0.0000000E+00 -0.5050505E-02 -0.3559306E-04  0.0000000E+00  0.1360080E-03
 -0.5032318E-02  0.0000000E+00 -0.5050505E-02 -0.3351400E-04  0.0000000E+00  0.1219638E-03
 -0.5022454E-02  0.0000000E+00 -0.5050505E-02 -0.3158350E-04  0.0000000E+00  0.1087437E-03
 -0.5012589E-02  0.0000000E+00 -0.5050505E-02 -0.2977872E-04  0.0000000E+00  0.9629147E-04
 -0.5002725E-02  0.0000000E+00 -0.5050505E-02 -0.2808088E-04  0.0000000E+00  0.8455926E-04
 -0.4992860E-02  0.0000000E+00 -0.5050505E-02 -0.2647441E-04  0.0000000E+00  0.7350588E-04
 -0.4976523E-02  0.0000000E+00 -0.5050505E-02 -0.2494634E-04  0.0000000E+00  0.6309590E-04
 -0.4956794E-02  0.0000000E+00 -0.5050505E-02 -0.2348580E-04  0.0000000E+00  0.5329870E-04
 -0.4937066E-02  0.0000000E+00 -0.5050505E-02 -0.2208366E-04  0.0000000E+00  0.4408774E-04
 -0.4906239E-02  0.0000000E+00 -0.5050505E-02 -0.2073226E-04  0.0000000E+00  0.3543990E-04
 -0.4866782E-02  0.0000000E+00 -0.5050505E-02 -0.1942510E-04  0.0000000E+00  0.2733498E-04
 -0.4827325E-02  0.0000000E+00 -0.5050505E-02 -0.1815670E-04  0.0000000E+00  0.1975527E-04
 -0.4769372E-02  0.0000000E+00 -0.5050505E-02 -0.1692242E-04  0.0000000E+00  0.1268514E-04
 -0.4690458E-02  0.0000000E+00 -0.5050505E-02 -0.1571832E-04  0.0000000E+00  0.6110790E-05
 -0.4611543E-02  0.0000000E+00 -0.5050505E-02 -0.1454112E-04  0.0000000E+00  0.2363766E-07
 -0.4503035E-02  0.0000000E+00 -0.5050505E-02 -0.1338661E-04  0.0000000E+00 -0.5586529E-05
 -0.4345206E-02  0.0000000E+00 -0.5050505E-02 -0.1225458E-04  0.0000000E+00 -0.1073648E-04
 -0.4187378E-02  0.0000000E+00 -0.5050505E-02 -0.1114309E-04  0.0000000E+00 -0.1543827E-04
 -0.3985156E-02  0.0000000E+00 -0.5050505E-02 -0.1005084E-04  0.0000000E+00 -0.1969840E-04
 -0.3669499E-02  0.0000000E+00 -0.5050505E-02 -0.8977318E-05  0.0000000E+00 -0.2352268E-04
 -0.3353842E-02  0.0000000E+00 -0.5050505E-02 -0.7923161E-05  0.0000000E+00 -0.2691613E-04
 -0.2978990E-02  0.0000000E+00 -0.5050505E-02 -0.6890917E-05  0.0000000E+00 -0.2988249E-04
 -0.2347676E-02  0.0000000E+00 -0.5050505E-02 -0.5886362E-05  0.0000000E+00 -0.3242285E-04
 -0.1716362E-02  0.0000000E+00 -0.5050505E-02 -0.4920686E-05  0.0000000E+00 -0.3453152E-04
 -0.1025842E-02  0.0000000E+00 -0.5050505E-02 -0.4012939E-05  0.0000000E+00 -0.3618539E-04
  0.2367855E-03  0.0000000E+00 -0.5050505E-02 -0.3186716E-05  0.0000000E+00 -0.3731892E-04
  0.1499413E-02  0.0000000E+00 -0.5050505E-02 -0.2428232E-05  0.0000000E+00 -0.3778611E-04
  0.5287294E-02  0.0000000E+00 -0.5050505E-02 -0.1449433E-05  0.0000000E+00 -0.3744145E-04
 -0.5050505E-02  0.0000000E+00 -0.5050505E-02  0.2817186E-06  0.0000000E+00 -0.1405920E-03
 -0.5050505E-02  0.0000000E+00 -0.5050505E-02  0.8458008E-06  0.0000000E+00 -0.1404275E-03
 -0.5050505E-02  0.0000000E+00 -0.5050505E-02  0.1411827E-05  0.0000000E+00 -0.1400983E-03
 -0.5050505E-02  0.0000000E+00 -0.5050505E-02  0.1981118E-05  0.0000000E+00 -0.1396036E-03
 -0.5050505E-02  0.0000000E+00 -0.5050505E-02  0.2555025E-05  0.0000000E+00 -0.1389422E-03
 -0.5050505E-02  0.0000000E+00 -0.5050505E-02  0.3134942E-05  0.0000000E+00 -0.1381129E-03
 -0.5050504E-02  0.0000000E+00 -0.5050505E-02  0.3722317E-05  0.0000000E+00 -0.1371136E-03
 -0.5050501E-02  0.0000000E+00 -0.5050505E-02  0.4318666E-05  0.0000000E+00 -0.1359421E-03
 -0.5050495E-02  0.0000000E+00 -0.5050505E-02  0.4925585E-05  0.0000000E+00 -0.1345958E-03
 -0.5050482E-02  0.0000000E+00 -0.5050505E-02  0.5544767E-05  0.0000000E+00 -0.1330714E-03
 -0.5050449E-02  0.0000000E+00 -0.5050505E-02  0.6178013E-05  0.0000000E+00 -0.1313653E-03
 -0.5050376E-02  0.0000000E+00 -0.5050505E-02  0.6827256E-05  0.0000000E+00 -0.1294733E-03
 -0.5050299E-02  0.0000000E+00 -0.5050505E-02  0.7494575E-05  0.0000000E+00 -0.1273908E-03
 -0.5050178E-02  0.0000000E+00 -0.5050505E-02  0.8182215E-05  0.0000000E+00 -0.1251124E-03
 -0.5050018E-02  0.0000000E+00 -0.5050505E-02  0.8892617E-05  0.0000000E+00 -0.1226321E-03
 -0.5049710E-02  0.0000000E+00 -0.5050505E-02  0.9628434E-05  0.0000000E+00 -0.1199434E-03
 -0.5049253E-02  0.0000000E+00 -0.5050505E-02  0.1039257E-04  0.0000000E+00 -0.1170388E-03
 -0.5048636E-02  0.0000000E+00 -0.5050505E-02  0.1118819E-04  0.0000000E+00 -0.1139100E-03
 -0.5047442E-02  0.0000000E+00 -0.5050505E-02  0.1201880E-04  0.0000000E+00 -0.1105479E-03
 -0.5045727E-02  0.0000000E+00 -0.5050505E-02  0.1288824E-04  0.0000000E+00 -0.1069425E-03
 -0.5043261E-02  0.0000000E+00 -0.5050505E-02  0.1380074E-04  0.0000000E+00 -0.1030823E-03
 -0.5038714E-02  0.0000000E+00 -0.5050505E-02  0.1476100E-04  0.0000000E+00 -0.9895507E-04
 -0.5032318E-02  0.0000000E+00 -0.5050505E-02  0.1577421E-04  0.0000000E+00 -0.9454694E-04
 -0.5022454E-02  0.0000000E+00 -0.5050505E-02  0.1684615E-04  0.0000000E+00 -0.8984269E-04
 -0.5012589E-02  0.0000000E+00 -0.5050505E-02  0.1798324E-04  0.0000000E+00 -0.8482545E-04
 -0.5002725E-02  0.0000000E+00 -0.5050505E-02  0.1919263E-04  0.0000000E+00 -0.7947656E-04
 -0.4992860E-02  0.0000000E+00 -0.5050505E-02  0.2048230E-04  0.0000000E+00 -0.7377534E-04
 -0.4976523E-02  0.0000000E+00 -0.5050505E-02  0.2186119E-04  0.0000000E+00 -0.6769891E-04
 -0.4956794E-02  0.0000000E+00 -0.5050505E-02  0.2333932E-04  0.0000000E+00 -0.6122188E-04
 -0.4937066E-02  0.0000000E+00 -0.5050505E-02  0.2492791E-04  0.0000000E+00 -0.5431612E-04