title = "dataset feddes"
variables = "x", "y", "z", "vx", "vy", "vz"
zone t = "velocities, solution time =  3.600E+01 days        " i =   99, j =   99, k =    1,  f=point
 -0.5050505E-02  0.0000000E+00 -0.5050505E-02  0.2186660E-07  0.0000000E+00 -0.2181154E-03
 -0.5050505E-02  0.0000000E+00 -0.5050505E-02  0.6563327E-07  0.0000000E+00 -0.2180256E-03
 -0.5050505E-02  0.0000000E+00 -0.5050505E-02  0.1095010E-06  0.0000000E+00 -0.2178459E-03
 -0.5050505E-02  0.0000000E+00 -0.5050505E-02  0.1535385E-06  0.0000000E+00 -0.2175759E-03
 -0.5050505E-02  0.0000000E+00 -0.5050505E-02  0.1978160E-06  0.0000000E+00 -0.2172154E-03
 -0.5050505E-02  0.0000000E+00 -0.5050505E-02  0.2424060E-06  0.0000000E+00 -0.2167636E-03
 -0.5050504E-02  0.0000000E+00 -0.5050505E-02  0.2873836E-06  0.0000000E+00 -0.2162200E-03
 -0.5050501E-02  0.0000000E+00 -0.5050505E-02  0.3328270E-06  0.0000000E+00 -0.2155836E-03
 -0.5050495E-02  0.0000000E+00 -0.5050505E-02  0.3788186E-06  0.0000000E+00 -0.2148535E-03
 -0.5050482E-02  0.0000000E+00 -0.5050505E-02  0.4254450E-06  0.0000000E+00 -0.2140285E-03
 -0.5050449E-02  0.0000000E+00 -0.5050505E-02  0.4727984E-06  0.0000000E+00 -0.2131071E-03
 -0.5050376E-02  0.0000000E+00 -0.5050505E-02  0.5209772E-06  0.0000000E+00 -0.2120879E-03
 -0.5050299E-02  0.0000000E+00 -0.5050505E-02  0.5700865E-06  0.0000000E+00 -0.2109691E-03
 -0.5050178E-02  0.0000000E+00 -0.5050505E-02  0.6202395E-06  0.0000000E+00 -0.2097486E-03
 -0.5050018E-02  0.0000000E+00 -0.5050505E-02  0.6715584E-06  0.0000000E+00 -0.2084243E-03
 -0.5049710E-02  0.0000000E+00 -0.5050505E-02  0.7241753E-06  0.0000000E+00 -0.2069936E-03
 -0.5049253E-02  0.0000000E+00 -0.5050505E-02  0.7782336E-06  0.0000000E+00 -0.2054539E-03
 -0.5048636E-02  0.0000000E+00 -0.5050505E-02  0.8338896E-06  0.0000000E+00 -0.2038021E-03
 -0.5047442E-02  0.0000000E+00 -0.5050505E-02  0.8913132E-06  0.0000000E+00 -0.2020348E-03
 -0.5045727E-02  0.0000000E+00 -0.5050505E-02  0.9506906E-06  0.0000000E+00 -0.2001482E-03
 -0.5043261E-02  0.0000000E+00 -0.5050505E-02  0.1012225E-05  0.0000000E+00 -0.1981383E-03
 -0.5038714E-02  0.0000000E+00 -0.5050505E-02  0.1076141E-05  0.0000000E+00 -0.1960004E-03
 -0.5032318E-02  0.0000000E+00 -0.5050505E-02  0.1142682E-05  0.0000000E+00 -0.1937296E-03
 -0.5022454E-02  0.0000000E+00 -0.5050505E-02  0.1212118E-05  0.0000000E+00 -0.1913203E-03
 -0.5012589E-02  0.0000000E+00 -0.5050505E-02  0.1284746E-05  0.0000000E+00 -0.1887665E-03
 -0.5002725E-02  0.0000000E+00 -0.5050505E-02  0.1360895E-05  0.0000000E+00 -0.1860613E-03
 -0.4992860E-02  0.0000000E+00 -0.5050505E-02  0.1440925E-05  0.0000000E+00 -0.1831973E-03
 -0.4976523E-02  0.0000000E+00 -0.5050505E-02  0.1525239E-05  0.0000000E+00 -0.1801665E-03
 -0.4956794E-02  0.0000000E+00 -0.5050505E-02  0.1614279E-05  0.0000000E+00 -0.1769597E-03
 -0.4937066E-02  0.0000000E+00 -0.5050505E-02  0.1708541E-05  0.0000000E+00 -0.1735671E-03
 -0.4906239E-02  0.0000000E+00 -0.5050505E-02  0.1808574E-05  0.0000000E+00 -0.1699775E-03
 -0.4866782E-02  0.0000000E+00 -0.5050505E-02  0.1914994E-05  0.0000000E+00 -0.1661790E-03
 -0.4827325E-02  0.0000000E+00 -0.5050505E-02  0.2028490E-05  0.0000000E+00 -0.1621580E-03
 -0.4769372E-02  0.0000000E+00 -0.5050505E-02  0.2149841E-05  0.0000000E+00 -0.1578997E-03
 -0.4690458E-02  0.0000000E+00 -0.5050505E-02  0.2279926E-05  0.0000000E+00 -0.1533876E-03
 -0.4611543E-02  0.0000000E+00 -0.5050505E-02  0.2419750E-05  0.0000000E+00 -0.1486032E-03
 -0.4503035E-02  0.0000000E+00 -0.5050505E-02  0.2570466E-05  0.0000000E+00 -0.1435260E-03
 -0.4345206E-02  0.0000000E+00 -0.5050505E-02  0.2733410E-05  0.0000000E+00 -0.1381332E-03
 -0.4187378E-02  0.0000000E+00 -0.5050505E-02  0.2910153E-05  0.0000000E+00 -0.1323990E-03
 -0.3985156E-02  0.0000000E+00 -0.5050505E-02  0.3102560E-05  0.0000000E+00 -0.1262940E-03
 -0.3669499E-02  0.0000000E+00 -0.5050505E-02  0.3312887E-05  0.0000000E+00 -0.1197852E-03
 -0.3353842E-02  0.0000000E+00 -0.5050505E-02  0.3543917E-05  0.0000000E+00 -0.1128343E-03
 -0.2978990E-02  0.0000000E+00 -0.5050505E-02  0.3799167E-05  0.0000000E+00 -0.1053971E-03
 -0.2347676E-02  0.0000000E+00 -0.5050505E-02  0.4083202E-05  0.0000000E+00 -0.9742133E-04
 -0.1716362E-02  0.0000000E+00 -0.5050505E-02  0.4402151E-05  0.0000000E+00 -0.8884424E-04
 -0.1025842E-02  0.0000000E+00 -0.5050505E-02  0.4764553E-05  0.0000000E+00 -0.7958874E-04
  0.2367855E-03  0.0000000E+00 -0.5050505E-02  0.5182810E-05  0.0000000E+00 -0.6955717E-04
  0.1499413E-02  0.0000000E+00 -0.5050505E-02  0.5675768E-05  0.0000000E+00 -0.5862115E-04
  0.2762042E-02  0.0000000E+00 -0.5050505E-02  0.6273462E-05  0.0000000E+00 -0.4660427E-04
 -0.5050505E-02  0.0000000E+00 -0.5050505E-02  0.7026210E-05  0.0000000E+00 -0.3325110E-04
 -0.5050505E-02  0.0000000E+00 -0.5050505E-02  0.8022939E-05  0.0000000E+00 -0.1816942E-04
 -0.5050505E-02  0.0000000E+00 -0.5050505E-02  0.9430636E-05  0.0000000E+00 -0.6985724E-06
 -0.5050505E-02  0.0000000E+00 -0.5050505E-02  0.1159410E-04  0.0000000E+00  0.2037978E-04
 -0.5050505E-02  0.0000000E+00 -0.5050505E-02  0.1528477E-04  0.0000000E+00  0.4740980E-04
 -0.5050505E-02  0.0000000E+00 -0.5050505E-02  0.2245255E-04  0.0000000E+00  0.8549117E-04
 -0.5050505E-02  0.0000000E+00 -0.5050505E-02  0.3872040E-04  0.0000000E+00  0.1475332E-03
 -0.5050504E-02  0.0000000E+00 -0.5050505E-02 -0.3716883E-04  0.0000000E+00  0.1490957E-03
 -0.5050501E-02  0.0000000E+00 -0.5050505E-02 -0.2086976E-04  0.0000000E+00  0.9019946E-04
 -0.5050495E-02  0.0000000E+00 -0.5050505E-02 -0.1366248E-04  0.0000000E+00  0.5531890E-04
 -0.5050482E-02  0.0000000E+00 -0.5050505E-02 -0.9949195E-05  0.0000000E+00  0.3154208E-04
 -0.5050449E-02  0.0000000E+00 -0.5050505E-02 -0.7797396E-05  0.0000000E+00  0.1371167E-04
 -0.5050376E-02  0.0000000E+00 -0.5050505E-02 -0.6441504E-05  0.0000000E+00 -0.5616841E-06
 -0.5050299E-02  0.0000000E+00 -0.5050505E-02 -0.5534891E-05  0.0000000E+00 -0.1254888E-04
 -0.5050178E-02  0.0000000E+00 -0.5050505E-02 -0.4900073E-05  0.0000000E+00 -0.2299948E-04
 -0.5050018E-02  0.0000000E+00 -0.5050505E-02 -0.4438646E-05  0.0000000E+00 -0.3236424E-04
 -0.5049710E-02  0.0000000E+00 -0.5050505E-02 -0.4091255E-05  0.0000000E+00 -0.4092776E-04
 -0.5049253E-02  0.0000000E+00 -0.5050505E-02 -0.3820372E-05  0.0000000E+00 -0.4887888E-04
 -0.5048636E-02  0.0000000E+00 -0.5050505E-02 -0.3601489E-05  0.0000000E+00 -0.5634501E-04
 -0.5047442E-02  0.0000000E+00 -0.5050505E-02 -0.3418244E-05  0.0000000E+00 -0.6341301E-04
 -0.5045727E-02  0.0000000E+00 -0.5050505E-02 -0.3259538E-05  0.0000000E+00 -0.7014246E-04
 -0.5043261E-02  0.0000000E+00 -0.5050505E-02 -0.3117761E-05  0.0000000E+00 -0.7657433E-04
 -0.5038714E-02  0.0000000E+00 -0.5050505E-02 -0.2987650E-05  0.0000000E+00 -0.8273675E-04
 -0.5032318E-02  0.0000000E+00 -0.5050505E-02 -0.2865551E-05  0.0000000E+00 -0.8864898E-04
 -0.5022454E-02  0.0000000E+00 -0.5050505E-02 -0.2748914E-05  0.0000000E+00 -0.9432409E-04
 -0.5012589E-02  0.0000000E+00 -0.5050505E-02 -0.2635964E-05  0.0000000E+00 -0.9977084E-04
 -0.5002725E-02  0.0000000E+00 -0.5050505E-02 -0.2525466E-05  0.0000000E+00 -0.1049950E-03
 -0.4992860E-02  0.0000000E+00 -0.5050505E-02 -0.2416570E-05  0.0000000E+00 -0.1100002E-03
 -0.4976523E-02  0.0000000E+00 -0.5050505E-02 -0.2308698E-05  0.0000000E+00 -0.1147887E-03
 -0.4956794E-02  0.0000000E+00 -0.5050505E-02 -0.2201469E-05  0.0000000E+00 -0.1193618E-03
 -0.4937066E-02  0.0000000E+00 -0.5050505E-02 -0.2094645E-05  0.0000000E+00 -0.1237203E-03
 -0.4906239E-02  0.0000000E+00 -0.5050505E-02 -0.1988090E-05  0.0000000E+00 -0.1278644E-03
 -0.4866782E-02  0.0000000E+00 -0.5050505E-02 -0.1881748E-05  0.0000000E+00 -0.1317944E-03
 -0.4827325E-02  0.0000000E+00 -0.5050505E-02 -0.1775626E-05  0.0000000E+00 -0.1355103E-03
 -0.4769372E-02  0.0000000E+00 -0.5050505E-02 -0.1669787E-05  0.0000000E+00 -0.1390124E-03
 -0.4690458E-02  0.0000000E+00 -0.5050505E-02 -0.1564349E-05  0.0000000E+00 -0.1423011E-03
 -0.4611543E-02  0.0000000E+00 -0.5050505E-02 -0.1459497E-05  0.0000000E+00 -0.1453772E-03
 -0.4503035E-02  0.0000000E+00 -0.5050505E-02 -0.1355512E-05  0.0000000E+00 -0.1482419E-03
 -0.4345206E-02  0.0000000E+00 -0.5050505E-02 -0.1252820E-05  0.0000000E+00 -0.1508971E-03
 -0.4187378E-02  0.0000000E+00 -0.5050505E-02 -0.1152096E-05  0.0000000E+00 -0.1533460E-03
 -0.3985156E-02  0.0000000E+00 -0.5050505E-02 -0.1054460E-05  0.0000000E+00 -0.1555936E-03
 -0.3669499E-02  0.0000000E+00 -0.5050505E-02 -0.9618809E-06  0.0000000E+00 -0.1576480E-03
 -0.3353842E-02  0.0000000E+00 -0.5050505E-02 -0.8780371E-06  0.0000000E+00 -0.1595231E-03
 -0.2978990E-02  0.0000000E+00 -0.5050505E-02 -0.8103373E-06  0.0000000E+00 -0.1612441E-03
 -0.2347676E-02  0.0000000E+00 -0.5050505E-02 -0.7750100E-06  0.0000000E+00 -0.1628605E-03
 -0.1716362E-02  0.0000000E+00 -0.5050505E-02 -0.8111980E-06  0.0000000E+00 -0.1644780E-03
 -0.1025842E-02  0.0000000E+00 -0.5050505E-02 -0.1023834E-05  0.0000000E+00 -0.1663496E-03
  0.2367855E-03  0.0000000E+00 -0.5050505E-02 -0.1726647E-05  0.0000000E+00 -0.1691557E-03
  0.1499413E-02  0.0000000E+00 -0.5050505E-02 -0.3961291E-05  0.0000000E+00 -0.1749606E-03
  0.5287294E-02  0.0000000E+00 -0.5050505E-02 -0.6197134E-04  0.0000000E+00 -0.1398657E-03
 -0.5050505E-02  0.0000000E+00 -0.5050505E-02  0.6558993E-07  0.0000000E+00 -0.2178703E-03
 -0.5050505E-02  0.0000000E+00 -0.5050505E-02  0.1968703E-06  0.0000000E+00 -0.2177803E-03
 -0.5050505E-02  0.0000000E+00 -0.5050505E-02  0.3284537E-06  0.0000000E+00 -0.2176003E-03
 -0.5050505E-02  0.0000000E+00 -0.5050505E-02  0.4605463E-06  0.0000000E+00 -0.2173298E-03
 -0.5050505E-02  0.0000000E+00 -0.5050505E-02  0.5933584E-06  0.0000000E+00 -0.2169686E-03
 -0.5050505E-02  0.0000000E+00 -0.5050505E-02  0.7271072E-06  0.0000000E+00 -0.2165161E-03
 -0.5050504E-02  0.0000000E+00 -0.5050505E-02  0.8620172E-06  0.0000000E+00 -0.2159715E-03
 -0.5050501E-02  0.0000000E+00 -0.5050505E-02  0.9983231E-06  0.0000000E+00 -0.2153340E-03
 -0.5050495E-02  0.0000000E+00 -0.5050505E-02  0.1136271E-05  0.0000000E+00 -0.2146026E-03
 -0.5050482E-02  0.0000000E+00 -0.5050505E-02  0.1276121E-05  0.0000000E+00 -0.2137761E-03
 -0.5050449E-02  0.0000000E+00 -0.5050505E-02  0.1418149E-05  0.0000000E+00 -0.2128532E-03
 -0.5050376E-02  0.0000000E+00 -0.5050505E-02  0.1562650E-05  0.0000000E+00 -0.2118323E-03
 -0.5050299E-02  0.0000000E+00 -0.5050505E-02  0.1709938E-05  0.0000000E+00 -0.2107115E-03
 -0.5050178E-02  0.0000000E+00 -0.5050505E-02  0.1860352E-05  0.0000000E+00 -0.2094891E-03
 -0.5050018E-02  0.0000000E+00 -0.5050505E-02  0.2014258E-05  0.0000000E+00 -0.2081626E-03
 -0.5049710E-02  0.0000000E+00 -0.5050505E-02  0.2172053E-05  0.0000000E+00 -0.2067298E-03
 -0.5049253E-02  0.0000000E+00 -0.5050505E-02  0.2334164E-05  0.0000000E+00 -0.2051878E-03
 -0.5048636E-02  0.0000000E+00 -0.5050505E-02  0.2501060E-05  0.0000000E+00 -0.2035335E-03
 -0.5047442E-02  0.0000000E+00 -0.5050505E-02  0.2673251E-05  0.0000000E+00 -0.2017637E-03
 -0.5045727E-02  0.0000000E+00 -0.5050505E-02  0.2851293E-05  0.0000000E+00 -0.1998745E-03
 -0.5043261E-02  0.0000000E+00 -0.5050505E-02  0.3035796E-05  0.0000000E+00 -0.1978619E-03
 -0.5038714E-02  0.0000000E+00 -0.5050505E-02  0.3227427E-05  0.0000000E+00 -0.1957214E-03
 -0.5032318E-02  0.0000000E+00 -0.5050505E-02  0.3426922E-05  0.0000000E+00 -0.1934478E-03
 -0.5022454E-02  0.0000000E+00 -0.5050505E-02  0.3635087E-05  0.0000000E+00 -0.1910358E-03
 -0.5012589E-02  0.0000000E+00 -0.5050505E-02  0.3852812E-05  0.0000000E+00 -0.1884792E-03
 -0.5002725E-02  0.0000000E+00 -0.5050505E-02  0.4081076E-05  0.0000000E+00 -0.1857713E-03
 -0.4992860E-02  0.0000000E+00 -0.5050505E-02  0.4320964E-05  0.0000000E+00 -0.1829048E-03
 -0.4976523E-02  0.0000000E+00 -0.5050505E-02  0.4573675E-05  0.0000000E+00 -0.1798714E-03
 -0.4956794E-02  0.0000000E+00 -0.5050505E-02  0.4840538E-05  0.0000000E+00 -0.1766623E-03
 -0.4937066E-02  0.0000000E+00 -0.5050505E-02  0.5123031E-05  0.0000000E+00 -0.1732674E-03
 -0.4906239E-02  0.0000000E+00 -0.5050505E-02  0.5422799E-05  0.0000000E+00 -0.1696760E-03
 -0.4866782E-02  0.0000000E+00 -0.5050505E-02  0.5741681E-05  0.0000000E+00 -0.1658758E-03
 -0.4827325E-02  0.0000000E+00 -0.5050505E-02  0.6081738E-05  0.0000000E+00 -0.1618536E-03
 -0.4769372E-02  0.0000000E+00 -0.5050505E-02  0.6445292E-05  0.0000000E+00 -0.1575946E-03
 -0.4690458E-02  0.0000000E+00 -0.5050505E-02  0.6834967E-05  0.0000000E+00 -0.1530823E-03
 -0.4611543E-02  0.0000000E+00 -0.5050505E-02  0.7253754E-05  0.0000000E+00 -0.1482987E-03
 -0.4503035E-02  0.0000000E+00 -0.5050505E-02  0.7705085E-05  0.0000000E+00 -0.1432232E-03
 -0.4345206E-02  0.0000000E+00 -0.5050505E-02  0.8192929E-05  0.0000000E+00 -0.1378334E-03
 -0.4187378E-02  0.0000000E+00 -0.5050505E-02  0.8721937E-05  0.0000000E+00 -0.1321038E-03
 -0.3985156E-02  0.0000000E+00 -0.5050505E-02  0.9297620E-05  0.0000000E+00 -0.1260057E-03
 -0.3669499E-02  0.0000000E+00 -0.5050505E-02  0.9926621E-05  0.0000000E+00 -0.1195067E-03
 -0.3353842E-02  0.0000000E+00 -0.5050505E-02  0.1061709E-04  0.0000000E+00 -0.1125696E-03
 -0.2978990E-02  0.0000000E+00 -0.5050505E-02  0.1137928E-04  0.0000000E+00 -0.1051518E-03
 -0.2347676E-02  0.0000000E+00 -0.5050505E-02  0.1222638E-04  0.0000000E+00 -0.9720334E-04
 -0.1716362E-02  0.0000000E+00 -0.5050505E-02  0.1317594E-04  0.0000000E+00 -0.8866530E-04
 -0.1025842E-02  0.0000000E+00 -0.5050505E-02  0.1425214E-04  0.0000000E+00 -0.7946656E-04
  0.2367855E-03  0.0000000E+00 -0.5050505E-02  0.1548963E-04  0.0000000E+00 -0.6951949E-04
  0.1499413E-02  0.0000000E+00 -0.5050505E-02  0.1694019E-04  0.0000000E+00 -0.5871309E-04
  0.2762042E-02  0.0000000E+00 -0.5050505E-02  0.1868483E-04  0.0000000E+00 -0.4690213E-04
 -0.5050505E-02  0.0000000E+00 -0.5050505E-02  0.2085610E-04  0.0000000E+00 -0.3388978E-04
 -0.5050505E-02  0.0000000E+00 -0.5050505E-02  0.2368104E-04  0.0000000E+00 -0.1940023E-04
 -0.5050505E-02  0.0000000E+00 -0.5050505E-02  0.2756705E-04  0.0000000E+00 -0.3028431E-05
 -0.5050505E-02  0.0000000E+00 -0.5050505E-02  0.3329796E-04  0.0000000E+00  0.1584002E-04
 -0.5050505E-02  0.0000000E+00 -0.5050505E-02  0.4245178E-04  0.0000000E+00  0.3794579E-04
 -0.5050505E-02  0.0000000E+00 -0.5050505E-02  0.5843248E-04  0.0000000E+00  0.6354065E-04
 -0.5050505E-02  0.0000000E+00 -0.5050505E-02  0.8917162E-04  0.0000000E+00  0.8905745E-04
 -0.5050504E-02  0.0000000E+00 -0.5050505E-02 -0.8453041E-04  0.0000000E+00  0.9059645E-04
 -0.5050501E-02  0.0000000E+00 -0.5050505E-02 -0.5368022E-04  0.0000000E+00  0.6820154E-04
 -0.5050495E-02  0.0000000E+00 -0.5050505E-02 -0.3755757E-04  0.0000000E+00  0.4583161E-04
 -0.5050482E-02  0.0000000E+00 -0.5050505E-02 -0.2831986E-04  0.0000000E+00  0.2704548E-04
 -0.5050449E-02  0.0000000E+00 -0.5050505E-02 -0.2261885E-04  0.0000000E+00  0.1151427E-04
 -0.5050376E-02  0.0000000E+00 -0.5050505E-02 -0.1889324E-04  0.0000000E+00 -0.1567214E-05
 -0.5050299E-02  0.0000000E+00 -0.5050505E-02 -0.1634758E-04  0.0000000E+00 -0.1288276E-04
 -0.5050178E-02  0.0000000E+00 -0.5050505E-02 -0.1454078E-04  0.0000000E+00 -0.2293423E-04
 -0.5050018E-02  0.0000000E+00 -0.5050505E-02 -0.1321498E-04  0.0000000E+00 -0.3205465E-04
 -0.5049710E-02  0.0000000E+00 -0.5050505E-02 -0.1220945E-04  0.0000000E+00 -0.4046806E-04
 -0.5049253E-02  0.0000000E+00 -0.5050505E-02 -0.1142046E-04  0.0000000E+00 -0.4832873E-04
 -0.5048636E-02  0.0000000E+00 -0.5050505E-02 -0.1077937E-04  0.0000000E+00 -0.5574311E-04
 -0.5047442E-02  0.0000000E+00 -0.5050505E-02 -0.1023998E-04  0.0000000E+00 -0.6278485E-04
 -0.5045727E-02  0.0000000E+00 -0.5050505E-02 -0.9770775E-05  0.0000000E+00 -0.6950491E-04
 -0.5043261E-02  0.0000000E+00 -0.5050505E-02 -0.9350047E-05  0.0000000E+00 -0.7593854E-04
 -0.5038714E-02  0.0000000E+00 -0.5050505E-02 -0.8962759E-05  0.0000000E+00 -0.8211003E-04
 -0.5032318E-02  0.0000000E+00 -0.5050505E-02 -0.8598435E-05  0.0000000E+00 -0.8803600E-04
 -0.5022454E-02  0.0000000E+00 -0.5050505E-02 -0.8249765E-05  0.0000000E+00 -0.9372772E-04
 -0.5012589E-02  0.0000000E+00 -0.5050505E-02 -0.7911645E-05  0.0000000E+00 -0.9919269E-04
 -0.5002725E-02  0.0000000E+00 -0.5050505E-02 -0.7580530E-05  0.0000000E+00 -0.1044358E-03
 -0.4992860E-02  0.0000000E+00 -0.5050505E-02 -0.7253978E-05  0.0000000E+00 -0.1094601E-03
 -0.4976523E-02  0.0000000E+00 -0.5050505E-02 -0.6930330E-05  0.0000000E+00 -0.1142675E-03
 -0.4956794E-02  0.0000000E+00 -0.5050505E-02 -0.6608496E-05  0.0000000E+00 -0.1188589E-03
 -0.4937066E-02  0.0000000E+00 -0.5050505E-02 -0.6287794E-05  0.0000000E+00 -0.1232349E-03
 -0.4906239E-02  0.0000000E+00 -0.5050505E-02 -0.5967842E-05  0.0000000E+00 -0.1273956E-03
 -0.4866782E-02  0.0000000E+00 -0.5050505E-02 -0.5648487E-05  0.0000000E+00 -0.1313411E-03
 -0.4827325E-02  0.0000000E+00 -0.5050505E-02 -0.5329756E-05  0.0000000E+00 -0.1350714E-03
 -0.4769372E-02  0.0000000E+00 -0.5050505E-02 -0.5011834E-05  0.0000000E+00 -0.1385868E-03
 -0.4690458E-02  0.0000000E+00 -0.5050505E-02 -0.4695061E-05  0.0000000E+00 -0.1418874E-03
 -0.4611543E-02  0.0000000E+00 -0.5050505E-02 -0.4379966E-05  0.0000000E+00 -0.1449740E-03
 -0.4503035E-02  0.0000000E+00 -0.5050505E-02 -0.4067336E-05  0.0000000E+00 -0.1478475E-03
 -0.4345206E-02  0.0000000E+00 -0.5050505E-02 -0.3758346E-05  0.0000000E+00 -0.1505095E-03
 -0.4187378E-02  0.0000000E+00 -0.5050505E-02 -0.3454826E-05  0.0000000E+00 -0.1529625E-03
 -0.3985156E-02  0.0000000E+00 -0.5050505E-02 -0.3159737E-05  0.0000000E+00 -0.1552101E-03
 -0.3669499E-02  0.0000000E+00 -0.5050505E-02 -0.2878118E-05  0.0000000E+00 -0.1572579E-03
 -0.3353842E-02  0.0000000E+00 -0.5050505E-02 -0.2619011E-05  0.0000000E+00 -0.1591144E-03
 -0.2978990E-02  0.0000000E+00 -0.5050505E-02 -0.2399607E-05  0.0000000E+00 -0.1607921E-03
 -0.2347676E-02  0.0000000E+00 -0.5050505E-02 -0.2254679E-05  0.0000000E+00 -0.1623085E-03
 -0.1716362E-02  0.0000000E+00 -0.5050505E-02 -0.2259401E-05  0.0000000E+00 -0.1636806E-03
 -0.1025842E-02  0.0000000E+00 -0.5050505E-02 -0.2587780E-05  0.0000000E+00 -0.1648858E-03
  0.2367855E-03  0.0000000E+00 -0.5050505E-02 -0.3670352E-05  0.0000000E+00 -0.1656655E-03
  0.1499413E-02  0.0000000E+00 -0.5050505E-02 -0.6637726E-05  0.0000000E+00 -0.1645939E-03
  0.5287294E-02  0.0000000E+00 -0.5050505E-02 -0.1459882E-04  0.0000000E+00 -0.1547357E-03
 -0.5050505E-02  0.0000000E+00 -0.5050505E-02  0.1093316E-06  0.0000000E+00 -0.2173892E-03
 -0.5050505E-02  0.0000000E+00 -0.5050505E-02  0.3281622E-06  0.0000000E+00 -0.2172989E-03
 -0.5050505E-02  0.0000000E+00 -0.5050505E-02  0.5474977E-06  0.0000000E+00 -0.2171182E-03
 -0.5050505E-02  0.0000000E+00 -0.5050505E-02  0.7676805E-06  0.0000000E+00 -0.2168467E-03
 -0.5050505E-02  0.0000000E+00 -0.5050505E-02  0.9890607E-06  0.0000000E+00 -0.2164842E-03
 -0.5050505E-02  0.0000000E+00 -0.5050505E-02  0.1211999E-05  0.0000000E+00 -0.2160301E-03
 -0.5050504E-02  0.0000000E+00 -0.5050505E-02  0.1436868E-05  0.0000000E+00 -0.2154836E-03
 -0.5050501E-02  0.0000000E+00 -0.5050505E-02  0.1664059E-05  0.0000000E+00 -0.2148439E-03
 -0.5050495E-02  0.0000000E+00 -0.5050505E-02  0.1893981E-05  0.0000000E+00 -0.2141100E-03
 -0.5050482E-02  0.0000000E+00 -0.5050505E-02  0.2127064E-05  0.0000000E+00 -0.2132807E-03
 -0.5050449E-02  0.0000000E+00 -0.5050505E-02  0.2363769E-05  0.0000000E+00 -0.2123546E-03
 -0.5050376E-02  0.0000000E+00 -0.5050505E-02  0.2604584E-05  0.0000000E+00 -0.2113303E-03
 -0.5050299E-02  0.0000000E+00 -0.5050505E-02  0.2850032E-05  0.0000000E+00 -0.2102059E-03
 -0.5050178E-02  0.0000000E+00 -0.5050505E-02  0.3100676E-05  0.0000000E+00 -0.2089796E-03
 -0.5050018E-02  0.0000000E+00 -0.5050505E-02  0.3357125E-05  0.0000000E+00 -0.2076490E-03
 -0.5049710E-02  0.0000000E+00 -0.5050505E-02  0.3620035E-05  0.0000000E+00 -0.2062117E-03
 -0.5049253E-02  0.0000000E+00 -0.5050505E-02  0.3890121E-05  0.0000000E+00 -0.2046651E-03
 -0.5048636E-02  0.0000000E+00 -0.5050505E-02  0.4168157E-05  0.0000000E+00 -0.2030061E-03
 -0.5047442E-02  0.0000000E+00 -0.5050505E-02  0.4454992E-05  0.0000000E+00 -0.2012313E-03
 -0.5045727E-02  0.0000000E+00 -0.5050505E-02  0.4751549E-05  0.0000000E+00 -0.1993370E-03
 -0.5043261E-02  0.0000000E+00 -0.5050505E-02  0.5058842E-05  0.0000000E+00 -0.1973192E-03
 -0.5038714E-02  0.0000000E+00 -0.5050505E-02  0.5377979E-05  0.0000000E+00 -0.1951733E-03
 -0.5032318E-02  0.0000000E+00 -0.5050505E-02  0.5710180E-05  0.0000000E+00 -0.1928944E-03
 -0.5022454E-02  0.0000000E+00 -0.5050505E-02  0.6056785E-05  0.0000000E+00 -0.1904769E-03
 -0.5012589E-02  0.0000000E+00 -0.5050505E-02  0.6419269E-05  0.0000000E+00 -0.1879150E-03
 -0.5002725E-02  0.0000000E+00 -0.5050505E-02  0.6799262E-05  0.0000000E+00 -0.1852018E-03
 -0.4992860E-02  0.0000000E+00 -0.5050505E-02  0.7198559E-05  0.0000000E+00 -0.1823301E-03
 -0.4976523E-02  0.0000000E+00 -0.5050505E-02  0.7619151E-05  0.0000000E+00 -0.1792917E-03
 -0.4956794E-02  0.0000000E+00 -0.5050505E-02  0.8063243E-05  0.0000000E+00 -0.1760779E-03
 -0.4937066E-02  0.0000000E+00 -0.5050505E-02  0.8533282E-05  0.0000000E+00 -0.1726788E-03
 -0.4906239E-02  0.0000000E+00 -0.5050505E-02  0.9031994E-05  0.0000000E+00 -0.1690835E-03
 -0.4866782E-02  0.0000000E+00 -0.5050505E-02  0.9562421E-05  0.0000000E+00 -0.1652801E-03
 -0.4827325E-02  0.0000000E+00 -0.5050505E-02  0.1012797E-04  0.0000000E+00 -0.1612555E-03
 -0.4769372E-02  0.0000000E+00 -0.5050505E-02  0.1073247E-04  0.0000000E+00 -0.1569950E-03
 -0.4690458E-02  0.0000000E+00 -0.5050505E-02  0.1138026E-04  0.0000000E+00 -0.1524825E-03
 -0.4611543E-02  0.0000000E+00 -0.5050505E-02  0.1207624E-04  0.0000000E+00 -0.1477001E-03
 -0.4503035E-02  0.0000000E+00 -0.5050505E-02  0.1282604E-04  0.0000000E+00 -0.1426278E-03
 -0.4345206E-02  0.0000000E+00 -0.5050505E-02  0.1363616E-04  0.0000000E+00 -0.1372437E-03
 -0.4187378E-02  0.0000000E+00 -0.5050505E-02  0.1451415E-04  0.0000000E+00 -0.1315229E-03
 -0.3985156E-02  0.0000000E+00 -0.5050505E-02  0.1546894E-04  0.0000000E+00 -0.1254378E-03
 -0.3669499E-02  0.0000000E+00 -0.5050505E-02  0.1651119E-04  0.0000000E+00 -0.1189573E-03
 -0.3353842E-02  0.0000000E+00 -0.5050505E-02  0.1765389E-04  0.0000000E+00 -0.1120463E-03
 -0.2978990E-02  0.0000000E+00 -0.5050505E-02  0.1891315E-04  0.0000000E+00 -0.1046648E-03
 -0.2347676E-02  0.0000000E+00 -0.5050505E-02  0.2030946E-04  0.0000000E+00 -0.9676725E-04
 -0.1716362E-02  0.0000000E+00 -0.5050505E-02  0.2186954E-04  0.0000000E+00 -0.8830120E-04
 -0.1025842E-02  0.0000000E+00 -0.5050505E-02  0.2362940E-04  0.0000000E+00 -0.7920584E-04
  0.2367855E-03  0.0000000E+00 -0.5050505E-02  0.2563923E-04  0.0000000E+00 -0.6941032E-04
  0.1499413E-02  0.0000000E+00 -0.5050505E-02  0.2797170E-04  0.0000000E+00 -0.5883182E-04
  0.2762042E-02  0.0000000E+00 -0.5050505E-02  0.3073631E-04  0.0000000E+00 -0.4737387E-04
 -0.5050505E-02  0.0000000E+00 -0.5050505E-02  0.3410453E-04  0.0000000E+00 -0.3492631E-04
 -0.5050505E-02  0.0000000E+00 -0.5050505E-02  0.3835468E-04  0.0000000E+00 -0.2137109E-04
 -0.5050505E-02  0.0000000E+00 -0.5050505E-02  0.4395148E-04  0.0000000E+00 -0.6603836E-05
 -0.5050505E-02  0.0000000E+00 -0.5050505E-02  0.5169395E-04  0.0000000E+00  0.9424026E-05
 -0.5050505E-02  0.0000000E+00 -0.5050505E-02  0.6295457E-04  0.0000000E+00  0.2643924E-04
 -0.5050505E-02  0.0000000E+00 -0.5050505E-02  0.7993839E-04  0.0000000E+00  0.4319309E-04
 -0.5050505E-02  0.0000000E+00 -0.5050505E-02  0.1055982E-03  0.0000000E+00  0.5608621E-04
 -0.5050504E-02  0.0000000E+00 -0.5050505E-02 -0.9794399E-04  0.0000000E+00  0.5756133E-04
 -0.5050501E-02  0.0000000E+00 -0.5050505E-02 -0.7201974E-04  0.0000000E+00  0.4771956E-04
 -0.5050495E-02  0.0000000E+00 -0.5050505E-02 -0.5470469E-04  0.0000000E+00  0.3424097E-04
 -0.5050482E-02  0.0000000E+00 -0.5050505E-02 -0.4324489E-04  0.0000000E+00  0.2069731E-04
 -0.5050449E-02  0.0000000E+00 -0.5050505E-02 -0.3553533E-04  0.0000000E+00  0.8207007E-05
 -0.5050376E-02  0.0000000E+00 -0.5050505E-02 -0.3022549E-04  0.0000000E+00 -0.3069775E-05
 -0.5050299E-02  0.0000000E+00 -0.5050505E-02 -0.2647389E-04  0.0000000E+00 -0.1328594E-04
 -0.5050178E-02  0.0000000E+00 -0.5050505E-02 -0.2375059E-04  0.0000000E+00 -0.2265475E-04
 -0.5050018E-02  0.0000000E+00 -0.5050505E-02 -0.2171834E-04  0.0000000E+00 -0.3134760E-04
 -0.5049710E-02  0.0000000E+00 -0.5050505E-02 -0.2015554E-04  0.0000000E+00 -0.3949588E-04
 -0.5049253E-02  0.0000000E+00 -0.5050505E-02 -0.1891427E-04  0.0000000E+00 -0.4719706E-04
 -0.5048636E-02  0.0000000E+00 -0.5050505E-02 -0.1789454E-04  0.0000000E+00 -0.5452165E-04
 -0.5047442E-02  0.0000000E+00 -0.5050505E-02 -0.1702803E-04  0.0000000E+00 -0.6151991E-04
 -0.5045727E-02  0.0000000E+00 -0.5050505E-02 -0.1626767E-04  0.0000000E+00 -0.6822732E-04
 -0.5043261E-02  0.0000000E+00 -0.5050505E-02 -0.1558083E-04  0.0000000E+00 -0.7466872E-04
 -0.5038714E-02  0.0000000E+00 -0.5050505E-02 -0.1494477E-04  0.0000000E+00 -0.8086132E-04
 -0.5032318E-02  0.0000000E+00 -0.5050505E-02 -0.1434359E-04  0.0000000E+00 -0.8681688E-04
 -0.5022454E-02  0.0000000E+00 -0.5050505E-02 -0.1376615E-04  0.0000000E+00 -0.9254334E-04
 -0.5012589E-02  0.0000000E+00 -0.5050505E-02 -0.1320468E-04  0.0000000E+00 -0.9804587E-04
 -0.5002725E-02  0.0000000E+00 -0.5050505E-02 -0.1265376E-04  0.0000000E+00 -0.1033277E-03
 -0.4992860E-02  0.0000000E+00 -0.5050505E-02 -0.1210966E-04  0.0000000E+00 -0.1083909E-03
 -0.4976523E-02  0.0000000E+00 -0.5050505E-02 -0.1156987E-04  0.0000000E+00 -0.1132364E-03
 -0.4956794E-02  0.0000000E+00 -0.5050505E-02 -0.1103273E-04  0.0000000E+00 -0.1178647E-03
 -0.4937066E-02  0.0000000E+00 -0.5050505E-02 -0.1049722E-04  0.0000000E+00 -0.1222759E-03
 -0.4906239E-02  0.0000000E+00 -0.5050505E-02 -0.9962778E-05  0.0000000E+00 -0.1264700E-03
 -0.4866782E-02  0.0000000E+00 -0.5050505E-02 -0.9429195E-05  0.0000000E+00 -0.1304468E-03
 -0.4827325E-02  0.0000000E+00 -0.5050505E-02 -0.8896537E-05  0.0000000E+00 -0.1342061E-03
 -0.4769372E-02  0.0000000E+00 -0.5050505E-02 -0.8365104E-05  0.0000000E+00 -0.1377481E-03
 -0.4690458E-02  0.0000000E+00 -0.5050505E-02 -0.7835429E-05  0.0000000E+00 -0.1410728E-03
 -0.4611543E-02  0.0000000E+00 -0.5050505E-02 -0.7308307E-05  0.0000000E+00 -0.1441805E-03
 -0.4503035E-02  0.0000000E+00 -0.5050505E-02 -0.6784889E-05  0.0000000E+00 -0.1470721E-03
 -0.4345206E-02  0.0000000E+00 -0.5050505E-02 -0.6266844E-05  0.0000000E+00 -0.1497483E-03
 -0.4187378E-02  0.0000000E+00 -0.5050505E-02 -0.5756666E-05  0.0000000E+00 -0.1522107E-03
 -0.3985156E-02  0.0000000E+00 -0.5050505E-02 -0.5258216E-05  0.0000000E+00 -0.1544609E-03
 -0.3669499E-02  0.0000000E+00 -0.5050505E-02 -0.4777690E-05  0.0000000E+00 -0.1565010E-03
 -0.3353842E-02  0.0000000E+00 -0.5050505E-02 -0.4325386E-05  0.0000000E+00 -0.1583326E-03
 -0.2978990E-02  0.0000000E+00 -0.5050505E-02 -0.3918939E-05  0.0000000E+00 -0.1599552E-03
 -0.2347676E-02  0.0000000E+00 -0.5050505E-02 -0.3589138E-05  0.0000000E+00 -0.1613597E-03
 -0.1716362E-02  0.0000000E+00 -0.5050505E-02 -0.3389554E-05  0.0000000E+00 -0.1625122E-03
 -0.1025842E-02  0.0000000E+00 -0.5050505E-02 -0.3407930E-05  0.0000000E+00 -0.1633086E-03
  0.2367855E-03  0.0000000E+00 -0.5050505E-02 -0.3755154E-05  0.0000000E+00 -0.1634693E-03
  0.1499413E-02  0.0000000E+00 -0.5050505E-02 -0.4394769E-05  0.0000000E+00 -0.1623718E-03
  0.5287294E-02  0.0000000E+00 -0.5050505E-02 -0.4149012E-05  0.0000000E+00 -0.1593779E-03
 -0.5050505E-02  0.0000000E+00 -0.5050505E-02  0.1531666E-06  0.0000000E+00 -0.2166809E-03
 -0.5050505E-02  0.0000000E+00 -0.5050505E-02  0.4597338E-06  0.0000000E+00 -0.2165901E-03
 -0.5050505E-02  0.0000000E+00 -0.5050505E-02  0.7670065E-06  0.0000000E+00 -0.2164084E-03
 -0.5050505E-02  0.0000000E+00 -0.5050505E-02  0.1075463E-05  0.0000000E+00 -0.2161356E-03
 -0.5050505E-02  0.0000000E+00 -0.5050505E-02  0.1385591E-05  0.0000000E+00 -0.2157711E-03
 -0.5050505E-02  0.0000000E+00 -0.5050505E-02  0.1697894E-05  0.0000000E+00 -0.2153146E-03
 -0.5050504E-02  0.0000000E+00 -0.5050505E-02  0.2012893E-05  0.0000000E+00 -0.2147653E-03
 -0.5050501E-02  0.0000000E+00 -0.5050505E-02  0.2331131E-05  0.0000000E+00 -0.2141223E-03
 -0.5050495E-02  0.0000000E+00 -0.5050505E-02  0.2653181E-05  0.0000000E+00 -0.2133846E-03
 -0.5050482E-02  0.0000000E+00 -0.5050505E-02  0.2979642E-05  0.0000000E+00 -0.2125512E-03
 -0.5050449E-02  0.0000000E+00 -0.5050505E-02  0.3311156E-05  0.0000000E+00 -0.2116205E-03
 -0.5050376E-02  0.0000000E+00 -0.5050505E-02  0.3648404E-05  0.0000000E+00 -0.2105912E-03
 -0.5050299E-02  0.0000000E+00 -0.5050505E-02  0.3992115E-05  0.0000000E+00 -0.2094614E-03
 -0.5050178E-02  0.0000000E+00 -0.5050505E-02  0.4343075E-05  0.0000000E+00 -0.2082293E-03
 -0.5050018E-02  0.0000000E+00 -0.5050505E-02  0.4702130E-05  0.0000000E+00 -0.2068925E-03
 -0.5049710E-02  0.0000000E+00 -0.5050505E-02  0.5070197E-05  0.0000000E+00 -0.2054488E-03
 -0.5049253E-02  0.0000000E+00 -0.5050505E-02  0.5448271E-05  0.0000000E+00 -0.2038954E-03
 -0.5048636E-02  0.0000000E+00 -0.5050505E-02  0.5837433E-05  0.0000000E+00 -0.2022292E-03
 -0.5047442E-02  0.0000000E+00 -0.5050505E-02  0.6238862E-05  0.0000000E+00 -0.2004471E-03
 -0.5045727E-02  0.0000000E+00 -0.5050505E-02  0.6653848E-05  0.0000000E+00 -0.1985452E-03
 -0.5043261E-02  0.0000000E+00 -0.5050505E-02  0.7083801E-05  0.0000000E+00 -0.1965197E-03
 -0.5038714E-02  0.0000000E+00 -0.5050505E-02  0.7530267E-05  0.0000000E+00 -0.1943659E-03
 -0.5032318E-02  0.0000000E+00 -0.5050505E-02  0.7994943E-05  0.0000000E+00 -0.1920790E-03
 -0.5022454E-02  0.0000000E+00 -0.5050505E-02  0.8479696E-05  0.0000000E+00 -0.1896536E-03
 -0.5012589E-02  0.0000000E+00 -0.5050505E-02  0.8986581E-05  0.0000000E+00 -0.1870836E-03
 -0.5002725E-02  0.0000000E+00 -0.5050505E-02  0.9517863E-05  0.0000000E+00 -0.1843626E-03
 -0.4992860E-02  0.0000000E+00 -0.5050505E-02  0.1007604E-04  0.0000000E+00 -0.1814832E-03
 -0.4976523E-02  0.0000000E+00 -0.5050505E-02  0.1066389E-04  0.0000000E+00 -0.1784376E-03
 -0.4956794E-02  0.0000000E+00 -0.5050505E-02  0.1128447E-04  0.0000000E+00 -0.1752168E-03
 -0.4937066E-02  0.0000000E+00 -0.5050505E-02  0.1194117E-04  0.0000000E+00 -0.1718112E-03