title = "dataset feddes"
variables = "x", "y", "z", "vx", "vy", "vz"
zone t = "velocities, solution time =  2.300E+01 days        " i =   99, j =   99, k =    1,  f=point
 -0.5050505E-02  0.0000000E+00 -0.5050505E-02  0.9733482E-09  0.0000000E+00 -0.3767680E-03
 -0.5050505E-02  0.0000000E+00 -0.5050505E-02  0.2918688E-08  0.0000000E+00 -0.3767639E-03
 -0.5050505E-02  0.0000000E+00 -0.5050505E-02  0.4859933E-08  0.0000000E+00 -0.3767558E-03
 -0.5050505E-02  0.0000000E+00 -0.5050505E-02  0.6794347E-08  0.0000000E+00 -0.3767436E-03
 -0.5050505E-02  0.0000000E+00 -0.5050505E-02  0.8719186E-08  0.0000000E+00 -0.3767274E-03
 -0.5050505E-02  0.0000000E+00 -0.5050505E-02  0.1063169E-07  0.0000000E+00 -0.3767072E-03
 -0.5050504E-02  0.0000000E+00 -0.5050505E-02  0.1252908E-07  0.0000000E+00 -0.3766830E-03
 -0.5050501E-02  0.0000000E+00 -0.5050505E-02  0.1440857E-07  0.0000000E+00 -0.3766548E-03
 -0.5050495E-02  0.0000000E+00 -0.5050505E-02  0.1626733E-07  0.0000000E+00 -0.3766227E-03
 -0.5050482E-02  0.0000000E+00 -0.5050505E-02  0.1810250E-07  0.0000000E+00 -0.3765868E-03
 -0.5050449E-02  0.0000000E+00 -0.5050505E-02  0.1991120E-07  0.0000000E+00 -0.3765471E-03
 -0.5050376E-02  0.0000000E+00 -0.5050505E-02  0.2169051E-07  0.0000000E+00 -0.3765036E-03
 -0.5050299E-02  0.0000000E+00 -0.5050505E-02  0.2343746E-07  0.0000000E+00 -0.3764565E-03
 -0.5050178E-02  0.0000000E+00 -0.5050505E-02  0.2514905E-07  0.0000000E+00 -0.3764057E-03
 -0.5050018E-02  0.0000000E+00 -0.5050505E-02  0.2682220E-07  0.0000000E+00 -0.3763514E-03
 -0.5049710E-02  0.0000000E+00 -0.5050505E-02  0.2845380E-07  0.0000000E+00 -0.3762937E-03
 -0.5049253E-02  0.0000000E+00 -0.5050505E-02  0.3004067E-07  0.0000000E+00 -0.3762325E-03
 -0.5048636E-02  0.0000000E+00 -0.5050505E-02  0.3157957E-07  0.0000000E+00 -0.3761682E-03
 -0.5047442E-02  0.0000000E+00 -0.5050505E-02  0.3306717E-07  0.0000000E+00 -0.3761006E-03
 -0.5045727E-02  0.0000000E+00 -0.5050505E-02  0.3450006E-07  0.0000000E+00 -0.3760300E-03
 -0.5043261E-02  0.0000000E+00 -0.5050505E-02  0.3587476E-07  0.0000000E+00 -0.3759565E-03
 -0.5038714E-02  0.0000000E+00 -0.5050505E-02  0.3718767E-07  0.0000000E+00 -0.3758801E-03
 -0.5032318E-02  0.0000000E+00 -0.5050505E-02  0.3843509E-07  0.0000000E+00 -0.3758011E-03
 -0.5022454E-02  0.0000000E+00 -0.5050505E-02  0.3961319E-07  0.0000000E+00 -0.3757196E-03
 -0.5012589E-02  0.0000000E+00 -0.5050505E-02  0.4071802E-07  0.0000000E+00 -0.3756357E-03
 -0.5002725E-02  0.0000000E+00 -0.5050505E-02  0.4174547E-07  0.0000000E+00 -0.3755495E-03
 -0.4992860E-02  0.0000000E+00 -0.5050505E-02  0.4269126E-07  0.0000000E+00 -0.3754613E-03
 -0.4976523E-02  0.0000000E+00 -0.5050505E-02  0.4355097E-07  0.0000000E+00 -0.3753712E-03
 -0.4956794E-02  0.0000000E+00 -0.5050505E-02  0.4431994E-07  0.0000000E+00 -0.3752794E-03
 -0.4937066E-02  0.0000000E+00 -0.5050505E-02  0.4499334E-07  0.0000000E+00 -0.3751861E-03
 -0.4906239E-02  0.0000000E+00 -0.5050505E-02  0.4556608E-07  0.0000000E+00 -0.3750915E-03
 -0.4866782E-02  0.0000000E+00 -0.5050505E-02  0.4603288E-07  0.0000000E+00 -0.3749958E-03
 -0.4827325E-02  0.0000000E+00 -0.5050505E-02  0.4638817E-07  0.0000000E+00 -0.3748992E-03
 -0.4769372E-02  0.0000000E+00 -0.5050505E-02  0.4662616E-07  0.0000000E+00 -0.3748020E-03
 -0.4690458E-02  0.0000000E+00 -0.5050505E-02  0.4674079E-07  0.0000000E+00 -0.3747045E-03
 -0.4611543E-02  0.0000000E+00 -0.5050505E-02  0.4672575E-07  0.0000000E+00 -0.3746069E-03
 -0.4503035E-02  0.0000000E+00 -0.5050505E-02  0.4657452E-07  0.0000000E+00 -0.3745094E-03
 -0.4345206E-02  0.0000000E+00 -0.5050505E-02  0.4628036E-07  0.0000000E+00 -0.3744124E-03
 -0.4187378E-02  0.0000000E+00 -0.5050505E-02  0.4583640E-07  0.0000000E+00 -0.3743162E-03
 -0.3985156E-02  0.0000000E+00 -0.5050505E-02  0.4523564E-07  0.0000000E+00 -0.3742210E-03
 -0.3669499E-02  0.0000000E+00 -0.5050505E-02  0.4447111E-07  0.0000000E+00 -0.3741273E-03
 -0.3353842E-02  0.0000000E+00 -0.5050505E-02  0.4353591E-07  0.0000000E+00 -0.3740354E-03
 -0.2978990E-02  0.0000000E+00 -0.5050505E-02  0.4242335E-07  0.0000000E+00 -0.3739456E-03
 -0.2347676E-02  0.0000000E+00 -0.5050505E-02  0.4112716E-07  0.0000000E+00 -0.3738583E-03
 -0.1716362E-02  0.0000000E+00 -0.5050505E-02  0.3964161E-07  0.0000000E+00 -0.3737739E-03
 -0.1025842E-02  0.0000000E+00 -0.5050505E-02  0.3796175E-07  0.0000000E+00 -0.3736929E-03
  0.2367855E-03  0.0000000E+00 -0.5050505E-02  0.3608367E-07  0.0000000E+00 -0.3736155E-03
  0.1499413E-02  0.0000000E+00 -0.5050505E-02  0.3400473E-07  0.0000000E+00 -0.3735423E-03
  0.2762042E-02  0.0000000E+00 -0.5050505E-02  0.3172385E-07  0.0000000E+00 -0.3734737E-03
 -0.5050505E-02  0.0000000E+00 -0.5050505E-02  0.2924180E-07  0.0000000E+00 -0.3734100E-03
 -0.5050505E-02  0.0000000E+00 -0.5050505E-02  0.2656147E-07  0.0000000E+00 -0.3733517E-03
 -0.5050505E-02  0.0000000E+00 -0.5050505E-02  0.2368817E-07  0.0000000E+00 -0.3732992E-03
 -0.5050505E-02  0.0000000E+00 -0.5050505E-02  0.2062985E-07  0.0000000E+00 -0.3732529E-03
 -0.5050505E-02  0.0000000E+00 -0.5050505E-02  0.1739727E-07  0.0000000E+00 -0.3732132E-03
 -0.5050505E-02  0.0000000E+00 -0.5050505E-02  0.1400420E-07  0.0000000E+00 -0.3731804E-03
 -0.5050505E-02  0.0000000E+00 -0.5050505E-02  0.1046741E-07  0.0000000E+00 -0.3731548E-03
 -0.5050504E-02  0.0000000E+00 -0.5050505E-02  0.6806680E-08  0.0000000E+00 -0.3731368E-03
 -0.5050501E-02  0.0000000E+00 -0.5050505E-02  0.3044639E-08  0.0000000E+00 -0.3731265E-03
 -0.5050495E-02  0.0000000E+00 -0.5050505E-02 -0.7934562E-09  0.0000000E+00 -0.3731241E-03
 -0.5050482E-02  0.0000000E+00 -0.5050505E-02 -0.4680086E-08  0.0000000E+00 -0.3731299E-03
 -0.5050449E-02  0.0000000E+00 -0.5050505E-02 -0.8585921E-08  0.0000000E+00 -0.3731437E-03
 -0.5050376E-02  0.0000000E+00 -0.5050505E-02 -0.1248038E-07  0.0000000E+00 -0.3731657E-03
 -0.5050299E-02  0.0000000E+00 -0.5050505E-02 -0.1633223E-07  0.0000000E+00 -0.3731958E-03
 -0.5050178E-02  0.0000000E+00 -0.5050505E-02 -0.2011032E-07  0.0000000E+00 -0.3732339E-03
 -0.5050018E-02  0.0000000E+00 -0.5050505E-02 -0.2378421E-07  0.0000000E+00 -0.3732797E-03
 -0.5049710E-02  0.0000000E+00 -0.5050505E-02 -0.2732494E-07  0.0000000E+00 -0.3733331E-03
 -0.5049253E-02  0.0000000E+00 -0.5050505E-02 -0.3070573E-07  0.0000000E+00 -0.3733937E-03
 -0.5048636E-02  0.0000000E+00 -0.5050505E-02 -0.3390259E-07  0.0000000E+00 -0.3734612E-03
 -0.5047442E-02  0.0000000E+00 -0.5050505E-02 -0.3689496E-07  0.0000000E+00 -0.3735352E-03
 -0.5045727E-02  0.0000000E+00 -0.5050505E-02 -0.3966626E-07  0.0000000E+00 -0.3736151E-03
 -0.5043261E-02  0.0000000E+00 -0.5050505E-02 -0.4220433E-07  0.0000000E+00 -0.3737007E-03
 -0.5038714E-02  0.0000000E+00 -0.5050505E-02 -0.4450192E-07  0.0000000E+00 -0.3737912E-03
 -0.5032318E-02  0.0000000E+00 -0.5050505E-02 -0.4655707E-07  0.0000000E+00 -0.3738864E-03
 -0.5022454E-02  0.0000000E+00 -0.5050505E-02 -0.4837356E-07  0.0000000E+00 -0.3739855E-03
 -0.5012589E-02  0.0000000E+00 -0.5050505E-02 -0.4996143E-07  0.0000000E+00 -0.3740882E-03
 -0.5002725E-02  0.0000000E+00 -0.5050505E-02 -0.5133761E-07  0.0000000E+00 -0.3741941E-03
 -0.4992860E-02  0.0000000E+00 -0.5050505E-02 -0.5252687E-07  0.0000000E+00 -0.3743026E-03
 -0.4976523E-02  0.0000000E+00 -0.5050505E-02 -0.5356313E-07  0.0000000E+00 -0.3744134E-03
 -0.4956794E-02  0.0000000E+00 -0.5050505E-02 -0.5449149E-07  0.0000000E+00 -0.3745263E-03
 -0.4937066E-02  0.0000000E+00 -0.5050505E-02 -0.5537110E-07  0.0000000E+00 -0.3746410E-03
 -0.4906239E-02  0.0000000E+00 -0.5050505E-02 -0.5627970E-07  0.0000000E+00 -0.3747577E-03
 -0.4866782E-02  0.0000000E+00 -0.5050505E-02 -0.5732034E-07  0.0000000E+00 -0.3748764E-03
 -0.4827325E-02  0.0000000E+00 -0.5050505E-02 -0.5863179E-07  0.0000000E+00 -0.3749975E-03
 -0.4769372E-02  0.0000000E+00 -0.5050505E-02 -0.6040485E-07  0.0000000E+00 -0.3751218E-03
 -0.4690458E-02  0.0000000E+00 -0.5050505E-02 -0.6290839E-07  0.0000000E+00 -0.3752507E-03
 -0.4611543E-02  0.0000000E+00 -0.5050505E-02 -0.6653197E-07  0.0000000E+00 -0.3753859E-03
 -0.4503035E-02  0.0000000E+00 -0.5050505E-02 -0.7185795E-07  0.0000000E+00 -0.3755305E-03
 -0.4345206E-02  0.0000000E+00 -0.5050505E-02 -0.7978753E-07  0.0000000E+00 -0.3756889E-03
 -0.4187378E-02  0.0000000E+00 -0.5050505E-02 -0.9177072E-07  0.0000000E+00 -0.3758682E-03
 -0.3985156E-02  0.0000000E+00 -0.5050505E-02 -0.1102463E-06  0.0000000E+00 -0.3760793E-03
 -0.3669499E-02  0.0000000E+00 -0.5050505E-02 -0.1395325E-06  0.0000000E+00 -0.3763402E-03
 -0.3353842E-02  0.0000000E+00 -0.5050505E-02 -0.1877504E-06  0.0000000E+00 -0.3766822E-03
 -0.2978990E-02  0.0000000E+00 -0.5050505E-02 -0.2713035E-06  0.0000000E+00 -0.3771619E-03
 -0.2347676E-02  0.0000000E+00 -0.5050505E-02 -0.4262356E-06  0.0000000E+00 -0.3778908E-03
 -0.1716362E-02  0.0000000E+00 -0.5050505E-02 -0.7398222E-06  0.0000000E+00 -0.3791094E-03
 -0.1025842E-02  0.0000000E+00 -0.5050505E-02 -0.1447330E-05  0.0000000E+00 -0.3813955E-03
  0.2367855E-03  0.0000000E+00 -0.5050505E-02 -0.3257647E-05  0.0000000E+00 -0.3863147E-03
  0.1499413E-02  0.0000000E+00 -0.5050505E-02 -0.8548246E-05  0.0000000E+00 -0.3986658E-03
  0.5287294E-02  0.0000000E+00 -0.5050505E-02 -0.1403061E-03  0.0000000E+00 -0.3179766E-03
 -0.5050505E-02  0.0000000E+00 -0.5050505E-02  0.2926163E-08  0.0000000E+00 -0.3765010E-03
 -0.5050505E-02  0.0000000E+00 -0.5050505E-02  0.8774415E-08  0.0000000E+00 -0.3764969E-03
 -0.5050505E-02  0.0000000E+00 -0.5050505E-02  0.1461039E-07  0.0000000E+00 -0.3764887E-03
 -0.5050505E-02  0.0000000E+00 -0.5050505E-02  0.2042587E-07  0.0000000E+00 -0.3764764E-03
 -0.5050505E-02  0.0000000E+00 -0.5050505E-02  0.2621262E-07  0.0000000E+00 -0.3764601E-03
 -0.5050505E-02  0.0000000E+00 -0.5050505E-02  0.3196237E-07  0.0000000E+00 -0.3764397E-03
 -0.5050504E-02  0.0000000E+00 -0.5050505E-02  0.3766679E-07  0.0000000E+00 -0.3764154E-03
 -0.5050501E-02  0.0000000E+00 -0.5050505E-02  0.4331749E-07  0.0000000E+00 -0.3763870E-03
 -0.5050495E-02  0.0000000E+00 -0.5050505E-02  0.4890599E-07  0.0000000E+00 -0.3763547E-03
 -0.5050482E-02  0.0000000E+00 -0.5050505E-02  0.5442374E-07  0.0000000E+00 -0.3763185E-03
 -0.5050449E-02  0.0000000E+00 -0.5050505E-02  0.5986208E-07  0.0000000E+00 -0.3762785E-03
 -0.5050376E-02  0.0000000E+00 -0.5050505E-02  0.6521224E-07  0.0000000E+00 -0.3762347E-03
 -0.5050299E-02  0.0000000E+00 -0.5050505E-02  0.7046533E-07  0.0000000E+00 -0.3761872E-03
 -0.5050178E-02  0.0000000E+00 -0.5050505E-02  0.7561230E-07  0.0000000E+00 -0.3761360E-03
 -0.5050018E-02  0.0000000E+00 -0.5050505E-02  0.8064397E-07  0.0000000E+00 -0.3760813E-03
 -0.5049710E-02  0.0000000E+00 -0.5050505E-02  0.8555098E-07  0.0000000E+00 -0.3760231E-03
 -0.5049253E-02  0.0000000E+00 -0.5050505E-02  0.9032380E-07  0.0000000E+00 -0.3759615E-03
 -0.5048636E-02  0.0000000E+00 -0.5050505E-02  0.9495268E-07  0.0000000E+00 -0.3758966E-03
 -0.5047442E-02  0.0000000E+00 -0.5050505E-02  0.9942765E-07  0.0000000E+00 -0.3758285E-03
 -0.5045727E-02  0.0000000E+00 -0.5050505E-02  0.1037385E-06  0.0000000E+00 -0.3757573E-03
 -0.5043261E-02  0.0000000E+00 -0.5050505E-02  0.1078747E-06  0.0000000E+00 -0.3756832E-03
 -0.5038714E-02  0.0000000E+00 -0.5050505E-02  0.1118256E-06  0.0000000E+00 -0.3756063E-03
 -0.5032318E-02  0.0000000E+00 -0.5050505E-02  0.1155800E-06  0.0000000E+00 -0.3755266E-03
 -0.5022454E-02  0.0000000E+00 -0.5050505E-02  0.1191264E-06  0.0000000E+00 -0.3754444E-03
 -0.5012589E-02  0.0000000E+00 -0.5050505E-02  0.1224530E-06  0.0000000E+00 -0.3753597E-03
 -0.5002725E-02  0.0000000E+00 -0.5050505E-02  0.1255473E-06  0.0000000E+00 -0.3752728E-03
 -0.4992860E-02  0.0000000E+00 -0.5050505E-02  0.1283968E-06  0.0000000E+00 -0.3751838E-03
 -0.4976523E-02  0.0000000E+00 -0.5050505E-02  0.1309878E-06  0.0000000E+00 -0.3750929E-03
 -0.4956794E-02  0.0000000E+00 -0.5050505E-02  0.1333067E-06  0.0000000E+00 -0.3750003E-03
 -0.4937066E-02  0.0000000E+00 -0.5050505E-02  0.1353387E-06  0.0000000E+00 -0.3749062E-03
 -0.4906239E-02  0.0000000E+00 -0.5050505E-02  0.1370687E-06  0.0000000E+00 -0.3748107E-03
 -0.4866782E-02  0.0000000E+00 -0.5050505E-02  0.1384807E-06  0.0000000E+00 -0.3747141E-03
 -0.4827325E-02  0.0000000E+00 -0.5050505E-02  0.1395581E-06  0.0000000E+00 -0.3746166E-03
 -0.4769372E-02  0.0000000E+00 -0.5050505E-02  0.1402833E-06  0.0000000E+00 -0.3745185E-03
 -0.4690458E-02  0.0000000E+00 -0.5050505E-02  0.1406382E-06  0.0000000E+00 -0.3744200E-03
 -0.4611543E-02  0.0000000E+00 -0.5050505E-02  0.1406037E-06  0.0000000E+00 -0.3743213E-03
 -0.4503035E-02  0.0000000E+00 -0.5050505E-02  0.1401602E-06  0.0000000E+00 -0.3742229E-03
 -0.4345206E-02  0.0000000E+00 -0.5050505E-02  0.1392873E-06  0.0000000E+00 -0.3741248E-03
 -0.4187378E-02  0.0000000E+00 -0.5050505E-02  0.1379644E-06  0.0000000E+00 -0.3740275E-03
 -0.3985156E-02  0.0000000E+00 -0.5050505E-02  0.1361702E-06  0.0000000E+00 -0.3739313E-03
 -0.3669499E-02  0.0000000E+00 -0.5050505E-02  0.1338836E-06  0.0000000E+00 -0.3738365E-03
 -0.3353842E-02  0.0000000E+00 -0.5050505E-02  0.1310838E-06  0.0000000E+00 -0.3737435E-03
 -0.2978990E-02  0.0000000E+00 -0.5050505E-02  0.1277503E-06  0.0000000E+00 -0.3736526E-03
 -0.2347676E-02  0.0000000E+00 -0.5050505E-02  0.1238642E-06  0.0000000E+00 -0.3735642E-03
 -0.1716362E-02  0.0000000E+00 -0.5050505E-02  0.1194079E-06  0.0000000E+00 -0.3734788E-03
 -0.1025842E-02  0.0000000E+00 -0.5050505E-02  0.1143662E-06  0.0000000E+00 -0.3733966E-03
  0.2367855E-03  0.0000000E+00 -0.5050505E-02  0.1087271E-06  0.0000000E+00 -0.3733182E-03
  0.1499413E-02  0.0000000E+00 -0.5050505E-02  0.1024823E-06  0.0000000E+00 -0.3732439E-03
  0.2762042E-02  0.0000000E+00 -0.5050505E-02  0.9562816E-07  0.0000000E+00 -0.3731742E-03
 -0.5050505E-02  0.0000000E+00 -0.5050505E-02  0.8816675E-07  0.0000000E+00 -0.3731095E-03
 -0.5050505E-02  0.0000000E+00 -0.5050505E-02  0.8010643E-07  0.0000000E+00 -0.3730502E-03
 -0.5050505E-02  0.0000000E+00 -0.5050505E-02  0.7146287E-07  0.0000000E+00 -0.3729968E-03
 -0.5050505E-02  0.0000000E+00 -0.5050505E-02  0.6225972E-07  0.0000000E+00 -0.3729497E-03
 -0.5050505E-02  0.0000000E+00 -0.5050505E-02  0.5252925E-07  0.0000000E+00 -0.3729092E-03
 -0.5050505E-02  0.0000000E+00 -0.5050505E-02  0.4231273E-07  0.0000000E+00 -0.3728756E-03
 -0.5050505E-02  0.0000000E+00 -0.5050505E-02  0.3166064E-07  0.0000000E+00 -0.3728495E-03
 -0.5050504E-02  0.0000000E+00 -0.5050505E-02  0.2063260E-07  0.0000000E+00 -0.3728309E-03
 -0.5050501E-02  0.0000000E+00 -0.5050505E-02  0.9296923E-08  0.0000000E+00 -0.3728202E-03
 -0.5050495E-02  0.0000000E+00 -0.5050505E-02 -0.2270079E-08  0.0000000E+00 -0.3728176E-03
 -0.5050482E-02  0.0000000E+00 -0.5050505E-02 -0.1398516E-07  0.0000000E+00 -0.3728231E-03
 -0.5050449E-02  0.0000000E+00 -0.5050505E-02 -0.2575955E-07  0.0000000E+00 -0.3728370E-03
 -0.5050376E-02  0.0000000E+00 -0.5050505E-02 -0.3750059E-07  0.0000000E+00 -0.3728590E-03
 -0.5050299E-02  0.0000000E+00 -0.5050505E-02 -0.4911369E-07  0.0000000E+00 -0.3728894E-03
 -0.5050178E-02  0.0000000E+00 -0.5050505E-02 -0.6050432E-07  0.0000000E+00 -0.3729278E-03
 -0.5050018E-02  0.0000000E+00 -0.5050505E-02 -0.7158024E-07  0.0000000E+00 -0.3729741E-03
 -0.5049710E-02  0.0000000E+00 -0.5050505E-02 -0.8225359E-07  0.0000000E+00 -0.3730281E-03
 -0.5049253E-02  0.0000000E+00 -0.5050505E-02 -0.9244310E-07  0.0000000E+00 -0.3730894E-03
 -0.5048636E-02  0.0000000E+00 -0.5050505E-02 -0.1020760E-06  0.0000000E+00 -0.3731577E-03
 -0.5047442E-02  0.0000000E+00 -0.5050505E-02 -0.1110898E-06  0.0000000E+00 -0.3732325E-03
 -0.5045727E-02  0.0000000E+00 -0.5050505E-02 -0.1194342E-06  0.0000000E+00 -0.3733135E-03
 -0.5043261E-02  0.0000000E+00 -0.5050505E-02 -0.1270721E-06  0.0000000E+00 -0.3734000E-03
 -0.5038714E-02  0.0000000E+00 -0.5050505E-02 -0.1339811E-06  0.0000000E+00 -0.3734917E-03
 -0.5032318E-02  0.0000000E+00 -0.5050505E-02 -0.1401550E-06  0.0000000E+00 -0.3735879E-03
 -0.5022454E-02  0.0000000E+00 -0.5050505E-02 -0.1456044E-06  0.0000000E+00 -0.3736882E-03
 -0.5012589E-02  0.0000000E+00 -0.5050505E-02 -0.1503589E-06  0.0000000E+00 -0.3737920E-03
 -0.5002725E-02  0.0000000E+00 -0.5050505E-02 -0.1544683E-06  0.0000000E+00 -0.3738990E-03
 -0.4992860E-02  0.0000000E+00 -0.5050505E-02 -0.1580057E-06  0.0000000E+00 -0.3740085E-03
 -0.4976523E-02  0.0000000E+00 -0.5050505E-02 -0.1610710E-06  0.0000000E+00 -0.3741203E-03
 -0.4956794E-02  0.0000000E+00 -0.5050505E-02 -0.1637965E-06  0.0000000E+00 -0.3742341E-03
 -0.4937066E-02  0.0000000E+00 -0.5050505E-02 -0.1663556E-06  0.0000000E+00 -0.3743496E-03
 -0.4906239E-02  0.0000000E+00 -0.5050505E-02 -0.1689750E-06  0.0000000E+00 -0.3744667E-03
 -0.4866782E-02  0.0000000E+00 -0.5050505E-02 -0.1719537E-06  0.0000000E+00 -0.3745857E-03
 -0.4827325E-02  0.0000000E+00 -0.5050505E-02 -0.1756924E-06  0.0000000E+00 -0.3747067E-03
 -0.4769372E-02  0.0000000E+00 -0.5050505E-02 -0.1807383E-06  0.0000000E+00 -0.3748305E-03
 -0.4690458E-02  0.0000000E+00 -0.5050505E-02 -0.1878569E-06  0.0000000E+00 -0.3749581E-03
 -0.4611543E-02  0.0000000E+00 -0.5050505E-02 -0.1981472E-06  0.0000000E+00 -0.3750911E-03
 -0.4503035E-02  0.0000000E+00 -0.5050505E-02 -0.2132345E-06  0.0000000E+00 -0.3752319E-03
 -0.4345206E-02  0.0000000E+00 -0.5050505E-02 -0.2356006E-06  0.0000000E+00 -0.3753841E-03
 -0.4187378E-02  0.0000000E+00 -0.5050505E-02 -0.2691716E-06  0.0000000E+00 -0.3755533E-03
 -0.3985156E-02  0.0000000E+00 -0.5050505E-02 -0.3204064E-06  0.0000000E+00 -0.3757474E-03
 -0.3669499E-02  0.0000000E+00 -0.5050505E-02 -0.4004090E-06  0.0000000E+00 -0.3759789E-03
 -0.3353842E-02  0.0000000E+00 -0.5050505E-02 -0.5292367E-06  0.0000000E+00 -0.3762668E-03
 -0.2978990E-02  0.0000000E+00 -0.5050505E-02 -0.7451926E-06  0.0000000E+00 -0.3766398E-03
 -0.2347676E-02  0.0000000E+00 -0.5050505E-02 -0.1126086E-05  0.0000000E+00 -0.3771385E-03
 -0.1716362E-02  0.0000000E+00 -0.5050505E-02 -0.1840925E-05  0.0000000E+00 -0.3778039E-03
 -0.1025842E-02  0.0000000E+00 -0.5050505E-02 -0.3283296E-05  0.0000000E+00 -0.3785919E-03
  0.2367855E-03  0.0000000E+00 -0.5050505E-02 -0.6434463E-05  0.0000000E+00 -0.3789246E-03
  0.1499413E-02  0.0000000E+00 -0.5050505E-02 -0.1389536E-04  0.0000000E+00 -0.3755344E-03
  0.5287294E-02  0.0000000E+00 -0.5050505E-02 -0.3289727E-04  0.0000000E+00 -0.3522922E-03
 -0.5050505E-02  0.0000000E+00 -0.5050505E-02  0.4898105E-08  0.0000000E+00 -0.3759796E-03
 -0.5050505E-02  0.0000000E+00 -0.5050505E-02  0.1468751E-07  0.0000000E+00 -0.3759755E-03
 -0.5050505E-02  0.0000000E+00 -0.5050505E-02  0.2445646E-07  0.0000000E+00 -0.3759671E-03
 -0.5050505E-02  0.0000000E+00 -0.5050505E-02  0.3419124E-07  0.0000000E+00 -0.3759547E-03
 -0.5050505E-02  0.0000000E+00 -0.5050505E-02  0.4387814E-07  0.0000000E+00 -0.3759381E-03
 -0.5050505E-02  0.0000000E+00 -0.5050505E-02  0.5350336E-07  0.0000000E+00 -0.3759175E-03
 -0.5050504E-02  0.0000000E+00 -0.5050505E-02  0.6305302E-07  0.0000000E+00 -0.3758927E-03
 -0.5050501E-02  0.0000000E+00 -0.5050505E-02  0.7251312E-07  0.0000000E+00 -0.3758639E-03
 -0.5050495E-02  0.0000000E+00 -0.5050505E-02  0.8186955E-07  0.0000000E+00 -0.3758312E-03
 -0.5050482E-02  0.0000000E+00 -0.5050505E-02  0.9110803E-07  0.0000000E+00 -0.3757944E-03
 -0.5050449E-02  0.0000000E+00 -0.5050505E-02  0.1002141E-06  0.0000000E+00 -0.3757538E-03
 -0.5050376E-02  0.0000000E+00 -0.5050505E-02  0.1091732E-06  0.0000000E+00 -0.3757094E-03
 -0.5050299E-02  0.0000000E+00 -0.5050505E-02  0.1179705E-06  0.0000000E+00 -0.3756611E-03
 -0.5050178E-02  0.0000000E+00 -0.5050505E-02  0.1265908E-06  0.0000000E+00 -0.3756092E-03
 -0.5050018E-02  0.0000000E+00 -0.5050505E-02  0.1350190E-06  0.0000000E+00 -0.3755537E-03
 -0.5049710E-02  0.0000000E+00 -0.5050505E-02  0.1432393E-06  0.0000000E+00 -0.3754946E-03
 -0.5049253E-02  0.0000000E+00 -0.5050505E-02  0.1512359E-06  0.0000000E+00 -0.3754320E-03
 -0.5048636E-02  0.0000000E+00 -0.5050505E-02  0.1589925E-06  0.0000000E+00 -0.3753661E-03
 -0.5047442E-02  0.0000000E+00 -0.5050505E-02  0.1664925E-06  0.0000000E+00 -0.3752970E-03
 -0.5045727E-02  0.0000000E+00 -0.5050505E-02  0.1737190E-06  0.0000000E+00 -0.3752247E-03
 -0.5043261E-02  0.0000000E+00 -0.5050505E-02  0.1806543E-06  0.0000000E+00 -0.3751494E-03
 -0.5038714E-02  0.0000000E+00 -0.5050505E-02  0.1872805E-06  0.0000000E+00 -0.3750712E-03
 -0.5032318E-02  0.0000000E+00 -0.5050505E-02  0.1935792E-06  0.0000000E+00 -0.3749902E-03
 -0.5022454E-02  0.0000000E+00 -0.5050505E-02  0.1995311E-06  0.0000000E+00 -0.3749067E-03
 -0.5012589E-02  0.0000000E+00 -0.5050505E-02  0.2051165E-06  0.0000000E+00 -0.3748206E-03
 -0.5002725E-02  0.0000000E+00 -0.5050505E-02  0.2103147E-06  0.0000000E+00 -0.3747323E-03
 -0.4992860E-02  0.0000000E+00 -0.5050505E-02  0.2151045E-06  0.0000000E+00 -0.3746418E-03
 -0.4976523E-02  0.0000000E+00 -0.5050505E-02  0.2194636E-06  0.0000000E+00 -0.3745493E-03
 -0.4956794E-02  0.0000000E+00 -0.5050505E-02  0.2233686E-06  0.0000000E+00 -0.3744551E-03
 -0.4937066E-02  0.0000000E+00 -0.5050505E-02  0.2267953E-06  0.0000000E+00 -0.3743593E-03
 -0.4906239E-02  0.0000000E+00 -0.5050505E-02  0.2297183E-06  0.0000000E+00 -0.3742620E-03
 -0.4866782E-02  0.0000000E+00 -0.5050505E-02  0.2321108E-06  0.0000000E+00 -0.3741637E-03
 -0.4827325E-02  0.0000000E+00 -0.5050505E-02  0.2339449E-06  0.0000000E+00 -0.3740644E-03
 -0.4769372E-02  0.0000000E+00 -0.5050505E-02  0.2351914E-06  0.0000000E+00 -0.3739644E-03
 -0.4690458E-02  0.0000000E+00 -0.5050505E-02  0.2358196E-06  0.0000000E+00 -0.3738640E-03
 -0.4611543E-02  0.0000000E+00 -0.5050505E-02  0.2357977E-06  0.0000000E+00 -0.3737634E-03
 -0.4503035E-02  0.0000000E+00 -0.5050505E-02  0.2350924E-06  0.0000000E+00 -0.3736629E-03
 -0.4345206E-02  0.0000000E+00 -0.5050505E-02  0.2336697E-06  0.0000000E+00 -0.3735628E-03
 -0.4187378E-02  0.0000000E+00 -0.5050505E-02  0.2314944E-06  0.0000000E+00 -0.3734634E-03
 -0.3985156E-02  0.0000000E+00 -0.5050505E-02  0.2285307E-06  0.0000000E+00 -0.3733651E-03
 -0.3669499E-02  0.0000000E+00 -0.5050505E-02  0.2247428E-06  0.0000000E+00 -0.3732681E-03
 -0.3353842E-02  0.0000000E+00 -0.5050505E-02  0.2200951E-06  0.0000000E+00 -0.3731729E-03
 -0.2978990E-02  0.0000000E+00 -0.5050505E-02  0.2145529E-06  0.0000000E+00 -0.3730798E-03
 -0.2347676E-02  0.0000000E+00 -0.5050505E-02  0.2080834E-06  0.0000000E+00 -0.3729893E-03
 -0.1716362E-02  0.0000000E+00 -0.5050505E-02  0.2006564E-06  0.0000000E+00 -0.3729016E-03
 -0.1025842E-02  0.0000000E+00 -0.5050505E-02  0.1922457E-06  0.0000000E+00 -0.3728172E-03
  0.2367855E-03  0.0000000E+00 -0.5050505E-02  0.1828298E-06  0.0000000E+00 -0.3727366E-03
  0.1499413E-02  0.0000000E+00 -0.5050505E-02  0.1723939E-06  0.0000000E+00 -0.3726602E-03
  0.2762042E-02  0.0000000E+00 -0.5050505E-02  0.1609307E-06  0.0000000E+00 -0.3725884E-03
 -0.5050505E-02  0.0000000E+00 -0.5050505E-02  0.1484425E-06  0.0000000E+00 -0.3725217E-03
 -0.5050505E-02  0.0000000E+00 -0.5050505E-02  0.1349422E-06  0.0000000E+00 -0.3724605E-03
 -0.5050505E-02  0.0000000E+00 -0.5050505E-02  0.1204553E-06  0.0000000E+00 -0.3724053E-03
 -0.5050505E-02  0.0000000E+00 -0.5050505E-02  0.1050204E-06  0.0000000E+00 -0.3723564E-03
 -0.5050505E-02  0.0000000E+00 -0.5050505E-02  0.8869109E-07  0.0000000E+00 -0.3723143E-03
 -0.5050505E-02  0.0000000E+00 -0.5050505E-02  0.7153626E-07  0.0000000E+00 -0.3722794E-03
 -0.5050505E-02  0.0000000E+00 -0.5050505E-02  0.5364052E-07  0.0000000E+00 -0.3722520E-03
 -0.5050504E-02  0.0000000E+00 -0.5050505E-02  0.3510416E-07  0.0000000E+00 -0.3722325E-03
 -0.5050501E-02  0.0000000E+00 -0.5050505E-02  0.1604247E-07  0.0000000E+00 -0.3722209E-03
 -0.5050495E-02  0.0000000E+00 -0.5050505E-02 -0.3415510E-08  0.0000000E+00 -0.3722177E-03
 -0.5050482E-02  0.0000000E+00 -0.5050505E-02 -0.2312871E-07  0.0000000E+00 -0.3722229E-03
 -0.5050449E-02  0.0000000E+00 -0.5050505E-02 -0.4294648E-07  0.0000000E+00 -0.3722367E-03
 -0.5050376E-02  0.0000000E+00 -0.5050505E-02 -0.6271139E-07  0.0000000E+00 -0.3722590E-03
 -0.5050299E-02  0.0000000E+00 -0.5050505E-02 -0.8226252E-07  0.0000000E+00 -0.3722897E-03
 -0.5050178E-02  0.0000000E+00 -0.5050505E-02 -0.1014390E-06  0.0000000E+00 -0.3723288E-03
 -0.5050018E-02  0.0000000E+00 -0.5050505E-02 -0.1200837E-06  0.0000000E+00 -0.3723761E-03
 -0.5049710E-02  0.0000000E+00 -0.5050505E-02 -0.1380470E-06  0.0000000E+00 -0.3724313E-03
 -0.5049253E-02  0.0000000E+00 -0.5050505E-02 -0.1551903E-06  0.0000000E+00 -0.3724940E-03
 -0.5048636E-02  0.0000000E+00 -0.5050505E-02 -0.1713895E-06  0.0000000E+00 -0.3725639E-03
 -0.5047442E-02  0.0000000E+00 -0.5050505E-02 -0.1865381E-06  0.0000000E+00 -0.3726405E-03
 -0.5045727E-02  0.0000000E+00 -0.5050505E-02 -0.2005498E-06  0.0000000E+00 -0.3727234E-03
 -0.5043261E-02  0.0000000E+00 -0.5050505E-02 -0.2133609E-06  0.0000000E+00 -0.3728120E-03
 -0.5038714E-02  0.0000000E+00 -0.5050505E-02 -0.2249326E-06  0.0000000E+00 -0.3729058E-03
 -0.5032318E-02  0.0000000E+00 -0.5050505E-02 -0.2352525E-06  0.0000000E+00 -0.3730043E-03
 -0.5022454E-02  0.0000000E+00 -0.5050505E-02 -0.2443369E-06  0.0000000E+00 -0.3731069E-03
 -0.5012589E-02  0.0000000E+00 -0.5050505E-02 -0.2522327E-06  0.0000000E+00 -0.3732129E-03
 -0.5002725E-02  0.0000000E+00 -0.5050505E-02 -0.2590203E-06  0.0000000E+00 -0.3733221E-03
 -0.4992860E-02  0.0000000E+00 -0.5050505E-02 -0.2648173E-06  0.0000000E+00 -0.3734337E-03
 -0.4976523E-02  0.0000000E+00 -0.5050505E-02 -0.2697845E-06  0.0000000E+00 -0.3735475E-03
 -0.4956794E-02  0.0000000E+00 -0.5050505E-02 -0.2741336E-06  0.0000000E+00 -0.3736630E-03
 -0.4937066E-02  0.0000000E+00 -0.5050505E-02 -0.2781401E-06  0.0000000E+00 -0.3737799E-03
 -0.4906239E-02  0.0000000E+00 -0.5050505E-02 -0.2821614E-06  0.0000000E+00 -0.3738982E-03
 -0.4866782E-02  0.0000000E+00 -0.5050505E-02 -0.2866648E-06  0.0000000E+00 -0.3740178E-03
 -0.4827325E-02  0.0000000E+00 -0.5050505E-02 -0.2922694E-06  0.0000000E+00 -0.3741388E-03
 -0.4769372E-02  0.0000000E+00 -0.5050505E-02 -0.2998100E-06  0.0000000E+00 -0.3742616E-03
 -0.4690458E-02  0.0000000E+00 -0.5050505E-02 -0.3104370E-06  0.0000000E+00 -0.3743870E-03
 -0.4611543E-02  0.0000000E+00 -0.5050505E-02 -0.3257732E-06  0.0000000E+00 -0.3745160E-03
 -0.4503035E-02  0.0000000E+00 -0.5050505E-02 -0.3481684E-06  0.0000000E+00 -0.3746500E-03
 -0.4345206E-02  0.0000000E+00 -0.5050505E-02 -0.3811183E-06  0.0000000E+00 -0.3747914E-03
 -0.4187378E-02  0.0000000E+00 -0.5050505E-02 -0.4299754E-06  0.0000000E+00 -0.3749430E-03
 -0.3985156E-02  0.0000000E+00 -0.5050505E-02 -0.5031855E-06  0.0000000E+00 -0.3751087E-03
 -0.3669499E-02  0.0000000E+00 -0.5050505E-02 -0.6144925E-06  0.0000000E+00 -0.3752930E-03
 -0.3353842E-02  0.0000000E+00 -0.5050505E-02 -0.7869549E-06  0.0000000E+00 -0.3754996E-03
 -0.2978990E-02  0.0000000E+00 -0.5050505E-02 -0.1060345E-05  0.0000000E+00 -0.3757273E-03
 -0.2347676E-02  0.0000000E+00 -0.5050505E-02 -0.1504591E-05  0.0000000E+00 -0.3759570E-03
 -0.1716362E-02  0.0000000E+00 -0.5050505E-02 -0.2242424E-05  0.0000000E+00 -0.3761128E-03
 -0.1025842E-02  0.0000000E+00 -0.5050505E-02 -0.3477464E-05  0.0000000E+00 -0.3759594E-03
  0.2367855E-03  0.0000000E+00 -0.5050505E-02 -0.5474337E-05  0.0000000E+00 -0.3748535E-03
  0.1499413E-02  0.0000000E+00 -0.5050505E-02 -0.8177432E-05  0.0000000E+00 -0.3713392E-03
  0.5287294E-02  0.0000000E+00 -0.5050505E-02 -0.8919935E-05  0.0000000E+00 -0.3638705E-03
 -0.5050505E-02  0.0000000E+00 -0.5050505E-02  0.6902807E-08  0.0000000E+00 -0.3752157E-03
 -0.5050505E-02  0.0000000E+00 -0.5050505E-02  0.2069889E-07  0.0000000E+00 -0.3752115E-03
 -0.5050505E-02  0.0000000E+00 -0.5050505E-02  0.3446631E-07  0.0000000E+00 -0.3752030E-03
 -0.5050505E-02  0.0000000E+00 -0.5050505E-02  0.4818590E-07  0.0000000E+00 -0.3751903E-03
 -0.5050505E-02  0.0000000E+00 -0.5050505E-02  0.6183842E-07  0.0000000E+00 -0.3751734E-03
 -0.5050505E-02  0.0000000E+00 -0.5050505E-02  0.7540455E-07  0.0000000E+00 -0.3751522E-03
 -0.5050504E-02  0.0000000E+00 -0.5050505E-02  0.8886485E-07  0.0000000E+00 -0.3751270E-03
 -0.5050501E-02  0.0000000E+00 -0.5050505E-02  0.1021997E-06  0.0000000E+00 -0.3750976E-03
 -0.5050495E-02  0.0000000E+00 -0.5050505E-02  0.1153894E-06  0.0000000E+00 -0.3750641E-03
 -0.5050482E-02  0.0000000E+00 -0.5050505E-02  0.1284138E-06  0.0000000E+00 -0.3750266E-03
 -0.5050449E-02  0.0000000E+00 -0.5050505E-02  0.1412528E-06  0.0000000E+00 -0.3749851E-03
 -0.5050376E-02  0.0000000E+00 -0.5050505E-02  0.1538859E-06  0.0000000E+00 -0.3749396E-03
 -0.5050299E-02  0.0000000E+00 -0.5050505E-02  0.1662924E-06  0.0000000E+00 -0.3748904E-03
 -0.5050178E-02  0.0000000E+00 -0.5050505E-02  0.1784510E-06  0.0000000E+00 -0.3748373E-03
 -0.5050018E-02  0.0000000E+00 -0.5050505E-02  0.1903403E-06  0.0000000E+00 -0.3747805E-03
 -0.5049710E-02  0.0000000E+00 -0.5050505E-02  0.2019385E-06  0.0000000E+00 -0.3747201E-03
 -0.5049253E-02  0.0000000E+00 -0.5050505E-02  0.2132234E-06  0.0000000E+00 -0.3746561E-03
 -0.5048636E-02  0.0000000E+00 -0.5050505E-02  0.2241720E-06  0.0000000E+00 -0.3745888E-03
 -0.5047442E-02  0.0000000E+00 -0.5050505E-02  0.2347612E-06  0.0000000E+00 -0.3745180E-03
 -0.5045727E-02  0.0000000E+00 -0.5050505E-02  0.2449671E-06  0.0000000E+00 -0.3744441E-03
 -0.5043261E-02  0.0000000E+00 -0.5050505E-02  0.2547653E-06  0.0000000E+00 -0.3743670E-03
 -0.5038714E-02  0.0000000E+00 -0.5050505E-02  0.2641304E-06  0.0000000E+00 -0.3742870E-03
 -0.5032318E-02  0.0000000E+00 -0.5050505E-02  0.2730366E-06  0.0000000E+00 -0.3742041E-03
 -0.5022454E-02  0.0000000E+00 -0.5050505E-02  0.2814571E-06  0.0000000E+00 -0.3741186E-03
 -0.5012589E-02  0.0000000E+00 -0.5050505E-02  0.2893641E-06  0.0000000E+00 -0.3740305E-03
 -0.5002725E-02  0.0000000E+00 -0.5050505E-02  0.2967287E-06  0.0000000E+00 -0.3739400E-03
 -0.4992860E-02  0.0000000E+00 -0.5050505E-02  0.3035210E-06  0.0000000E+00 -0.3738472E-03
 -0.4976523E-02  0.0000000E+00 -0.5050505E-02  0.3097098E-06  0.0000000E+00 -0.3737524E-03
 -0.4956794E-02  0.0000000E+00 -0.5050505E-02  0.3152624E-06  0.0000000E+00 -0.3736558E-03
 -0.4937066E-02  0.0000000E+00 -0.5050505E-02  0.3201446E-06  0.0000000E+00 -0.3735575E-03