title = "dataset feddes"
variables = "x", "y", "z", "vx", "vy", "vz"
zone t = "velocities, solution time =  1.000E+00 days        " i =   99, j =   99, k =    1,  f=point
 -0.5050505E-02  0.0000000E+00 -0.5050505E-02  0.1036373E-11  0.0000000E+00 -0.2093977E-08
 -0.5050505E-02  0.0000000E+00 -0.5050505E-02  0.2613894E-12  0.0000000E+00 -0.2092679E-08
 -0.5050505E-02  0.0000000E+00 -0.5050505E-02  0.1925511E-11  0.0000000E+00 -0.2090492E-08
 -0.5050505E-02  0.0000000E+00 -0.5050505E-02  0.8278731E-12  0.0000000E+00 -0.2087739E-08
 -0.5050505E-02  0.0000000E+00 -0.5050505E-02 -0.1345186E-12  0.0000000E+00 -0.2087046E-08
 -0.5050505E-02  0.0000000E+00 -0.5050505E-02 -0.1946962E-12  0.0000000E+00 -0.2087375E-08
 -0.5050504E-02  0.0000000E+00 -0.5050505E-02 -0.9001147E-13  0.0000000E+00 -0.2087660E-08
 -0.5050501E-02  0.0000000E+00 -0.5050505E-02 -0.6439888E-13  0.0000000E+00 -0.2087814E-08
 -0.5050495E-02  0.0000000E+00 -0.5050505E-02 -0.7257151E-13  0.0000000E+00 -0.2087951E-08
 -0.5050482E-02  0.0000000E+00 -0.5050505E-02 -0.6939243E-13  0.0000000E+00 -0.2088093E-08
 -0.5050449E-02  0.0000000E+00 -0.5050505E-02 -0.5243234E-13  0.0000000E+00 -0.2088215E-08
 -0.5050376E-02  0.0000000E+00 -0.5050505E-02 -0.3407765E-13  0.0000000E+00 -0.2088301E-08
 -0.5050299E-02  0.0000000E+00 -0.5050505E-02 -0.1598538E-13  0.0000000E+00 -0.2088351E-08
 -0.5050178E-02  0.0000000E+00 -0.5050505E-02 -0.1183908E-13  0.0000000E+00 -0.2088379E-08
 -0.5050018E-02  0.0000000E+00 -0.5050505E-02 -0.7152932E-14  0.0000000E+00 -0.2088398E-08
 -0.5049710E-02  0.0000000E+00 -0.5050505E-02 -0.4798612E-15  0.0000000E+00 -0.2088406E-08
 -0.5049253E-02  0.0000000E+00 -0.5050505E-02 -0.8772463E-15  0.0000000E+00 -0.2088407E-08
 -0.5048636E-02  0.0000000E+00 -0.5050505E-02 -0.1087186E-14  0.0000000E+00 -0.2088409E-08
 -0.5047442E-02  0.0000000E+00 -0.5050505E-02  0.3823894E-15  0.0000000E+00 -0.2088410E-08
 -0.5045727E-02  0.0000000E+00 -0.5050505E-02  0.4948569E-15  0.0000000E+00 -0.2088409E-08
 -0.5043261E-02  0.0000000E+00 -0.5050505E-02 -0.4498699E-15  0.0000000E+00 -0.2088409E-08
 -0.5038714E-02  0.0000000E+00 -0.5050505E-02 -0.8247615E-15  0.0000000E+00 -0.2088410E-08
 -0.5032318E-02  0.0000000E+00 -0.5050505E-02 -0.5158508E-14  0.0000000E+00 -0.2088416E-08
 -0.5022454E-02  0.0000000E+00 -0.5050505E-02 -0.3898873E-14  0.0000000E+00 -0.2088425E-08
 -0.5012589E-02  0.0000000E+00 -0.5050505E-02 -0.1672017E-14  0.0000000E+00 -0.2088431E-08
 -0.5002725E-02  0.0000000E+00 -0.5050505E-02 -0.3748916E-16  0.0000000E+00 -0.2088433E-08
 -0.4992860E-02  0.0000000E+00 -0.5050505E-02  0.4438716E-14  0.0000000E+00 -0.2088428E-08
 -0.4976523E-02  0.0000000E+00 -0.5050505E-02  0.3913868E-14  0.0000000E+00 -0.2088420E-08
 -0.4956794E-02  0.0000000E+00 -0.5050505E-02  0.7122940E-15  0.0000000E+00 -0.2088415E-08
 -0.4937066E-02  0.0000000E+00 -0.5050505E-02 -0.2991635E-14  0.0000000E+00 -0.2088417E-08
 -0.4906239E-02  0.0000000E+00 -0.5050505E-02 -0.1664519E-14  0.0000000E+00 -0.2088422E-08
 -0.4866782E-02  0.0000000E+00 -0.5050505E-02 -0.4873591E-15  0.0000000E+00 -0.2088424E-08
 -0.4827325E-02  0.0000000E+00 -0.5050505E-02 -0.1499566E-16  0.0000000E+00 -0.2088425E-08
 -0.4769372E-02  0.0000000E+00 -0.5050505E-02 -0.5248482E-16  0.0000000E+00 -0.2088425E-08
 -0.4690458E-02  0.0000000E+00 -0.5050505E-02 -0.2549263E-15  0.0000000E+00 -0.2088425E-08
 -0.4611543E-02  0.0000000E+00 -0.5050505E-02 -0.4723634E-15  0.0000000E+00 -0.2088426E-08
 -0.4503035E-02  0.0000000E+00 -0.5050505E-02 -0.2999133E-16  0.0000000E+00 -0.2088426E-08
 -0.4345206E-02  0.0000000E+00 -0.5050505E-02  0.3449003E-15  0.0000000E+00 -0.2088426E-08
 -0.4187378E-02  0.0000000E+00 -0.5050505E-02  0.2331826E-14  0.0000000E+00 -0.2088423E-08
 -0.3985156E-02  0.0000000E+00 -0.5050505E-02  0.1694510E-14  0.0000000E+00 -0.2088419E-08
 -0.3669499E-02  0.0000000E+00 -0.5050505E-02 -0.1364605E-14  0.0000000E+00 -0.2088419E-08
 -0.3353842E-02  0.0000000E+00 -0.5050505E-02 -0.1312121E-14  0.0000000E+00 -0.2088422E-08
 -0.2978990E-02  0.0000000E+00 -0.5050505E-02 -0.8697485E-15  0.0000000E+00 -0.2088424E-08
 -0.2347676E-02  0.0000000E+00 -0.5050505E-02 -0.9897138E-15  0.0000000E+00 -0.2088426E-08
 -0.1716362E-02  0.0000000E+00 -0.5050505E-02 -0.1252138E-14  0.0000000E+00 -0.2088428E-08
 -0.1025842E-02  0.0000000E+00 -0.5050505E-02 -0.1049696E-15  0.0000000E+00 -0.2088429E-08
  0.2367855E-03  0.0000000E+00 -0.5050505E-02  0.2946648E-14  0.0000000E+00 -0.2088426E-08
  0.1499413E-02  0.0000000E+00 -0.5050505E-02  0.1574545E-14  0.0000000E+00 -0.2088422E-08
  0.2762042E-02  0.0000000E+00 -0.5050505E-02  0.5623374E-15  0.0000000E+00 -0.2088420E-08
 -0.5050505E-02  0.0000000E+00 -0.5050505E-02  0.1199653E-15  0.0000000E+00 -0.2088419E-08
 -0.5050505E-02  0.0000000E+00 -0.5050505E-02 -0.9747181E-16  0.0000000E+00 -0.2088419E-08
 -0.5050505E-02  0.0000000E+00 -0.5050505E-02 -0.5248482E-16  0.0000000E+00 -0.2088419E-08
 -0.5050505E-02  0.0000000E+00 -0.5050505E-02  0.9747181E-16  0.0000000E+00 -0.2088419E-08
 -0.5050505E-02  0.0000000E+00 -0.5050505E-02  0.2474285E-15  0.0000000E+00 -0.2088419E-08
 -0.5050505E-02  0.0000000E+00 -0.5050505E-02  0.5248482E-15  0.0000000E+00 -0.2088418E-08
 -0.5050505E-02  0.0000000E+00 -0.5050505E-02  0.6972984E-15  0.0000000E+00 -0.2088417E-08
 -0.5050504E-02  0.0000000E+00 -0.5050505E-02  0.5473417E-15  0.0000000E+00 -0.2088416E-08
 -0.5050501E-02  0.0000000E+00 -0.5050505E-02 -0.1687012E-14  0.0000000E+00 -0.2088417E-08
 -0.5050495E-02  0.0000000E+00 -0.5050505E-02 -0.1851964E-14  0.0000000E+00 -0.2088420E-08
 -0.5050482E-02  0.0000000E+00 -0.5050505E-02  0.1724501E-14  0.0000000E+00 -0.2088420E-08
 -0.5050449E-02  0.0000000E+00 -0.5050505E-02  0.9897138E-15  0.0000000E+00 -0.2088418E-08
 -0.5050376E-02  0.0000000E+00 -0.5050505E-02  0.2309332E-14  0.0000000E+00 -0.2088414E-08
 -0.5050299E-02  0.0000000E+00 -0.5050505E-02  0.6748049E-15  0.0000000E+00 -0.2088411E-08
 -0.5050178E-02  0.0000000E+00 -0.5050505E-02 -0.1672017E-14  0.0000000E+00 -0.2088412E-08
 -0.5050018E-02  0.0000000E+00 -0.5050505E-02 -0.1619532E-14  0.0000000E+00 -0.2088416E-08
 -0.5049710E-02  0.0000000E+00 -0.5050505E-02 -0.7722767E-15  0.0000000E+00 -0.2088418E-08
 -0.5049253E-02  0.0000000E+00 -0.5050505E-02 -0.3673938E-15  0.0000000E+00 -0.2088419E-08
 -0.5048636E-02  0.0000000E+00 -0.5050505E-02 -0.1049696E-15  0.0000000E+00 -0.2088420E-08
 -0.5047442E-02  0.0000000E+00 -0.5050505E-02 -0.2849176E-15  0.0000000E+00 -0.2088420E-08
 -0.5045727E-02  0.0000000E+00 -0.5050505E-02 -0.1327116E-14  0.0000000E+00 -0.2088422E-08
 -0.5043261E-02  0.0000000E+00 -0.5050505E-02 -0.2459289E-14  0.0000000E+00 -0.2088425E-08
 -0.5038714E-02  0.0000000E+00 -0.5050505E-02 -0.2271843E-14  0.0000000E+00 -0.2088430E-08
 -0.5032318E-02  0.0000000E+00 -0.5050505E-02  0.5998265E-15  0.0000000E+00 -0.2088432E-08
 -0.5022454E-02  0.0000000E+00 -0.5050505E-02  0.2181869E-14  0.0000000E+00 -0.2088429E-08
 -0.5012589E-02  0.0000000E+00 -0.5050505E-02  0.2226856E-14  0.0000000E+00 -0.2088425E-08
 -0.5002725E-02  0.0000000E+00 -0.5050505E-02  0.2301834E-14  0.0000000E+00 -0.2088420E-08
 -0.4992860E-02  0.0000000E+00 -0.5050505E-02 -0.4873591E-15  0.0000000E+00 -0.2088418E-08
 -0.4976523E-02  0.0000000E+00 -0.5050505E-02 -0.3726422E-14  0.0000000E+00 -0.2088423E-08
 -0.4956794E-02  0.0000000E+00 -0.5050505E-02 -0.4431219E-14  0.0000000E+00 -0.2088431E-08
 -0.4937066E-02  0.0000000E+00 -0.5050505E-02 -0.8615009E-14  0.0000000E+00 -0.2088444E-08
 -0.4906239E-02  0.0000000E+00 -0.5050505E-02 -0.1243141E-13  0.0000000E+00 -0.2088465E-08
 -0.4866782E-02  0.0000000E+00 -0.5050505E-02 -0.1903700E-13  0.0000000E+00 -0.2088496E-08
 -0.4827325E-02  0.0000000E+00 -0.5050505E-02 -0.2563509E-13  0.0000000E+00 -0.2088541E-08
 -0.4769372E-02  0.0000000E+00 -0.5050505E-02 -0.3704679E-13  0.0000000E+00 -0.2088604E-08
 -0.4690458E-02  0.0000000E+00 -0.5050505E-02 -0.5559642E-13  0.0000000E+00 -0.2088696E-08
 -0.4611543E-02  0.0000000E+00 -0.5050505E-02 -0.8497293E-13  0.0000000E+00 -0.2088837E-08
 -0.4503035E-02  0.0000000E+00 -0.5050505E-02 -0.1297275E-12  0.0000000E+00 -0.2089052E-08
 -0.4345206E-02  0.0000000E+00 -0.5050505E-02 -0.1923119E-12  0.0000000E+00 -0.2089374E-08
 -0.4187378E-02  0.0000000E+00 -0.5050505E-02 -0.2747356E-12  0.0000000E+00 -0.2089841E-08
 -0.3985156E-02  0.0000000E+00 -0.5050505E-02 -0.4146376E-12  0.0000000E+00 -0.2090530E-08
 -0.3669499E-02  0.0000000E+00 -0.5050505E-02 -0.6145073E-12  0.0000000E+00 -0.2091559E-08
 -0.3353842E-02  0.0000000E+00 -0.5050505E-02 -0.9433097E-12  0.0000000E+00 -0.2093117E-08
 -0.2978990E-02  0.0000000E+00 -0.5050505E-02 -0.1472229E-11  0.0000000E+00 -0.2095533E-08
 -0.2347676E-02  0.0000000E+00 -0.5050505E-02 -0.2406122E-11  0.0000000E+00 -0.2099411E-08
 -0.1716362E-02  0.0000000E+00 -0.5050505E-02 -0.4219652E-11  0.0000000E+00 -0.2106037E-08
 -0.1025842E-02  0.0000000E+00 -0.5050505E-02 -0.8231555E-11  0.0000000E+00 -0.2118488E-08
  0.2367855E-03  0.0000000E+00 -0.5050505E-02 -0.1842454E-10  0.0000000E+00 -0.2145144E-08
  0.1499413E-02  0.0000000E+00 -0.5050505E-02 -0.4786907E-10  0.0000000E+00 -0.2211438E-08
  0.5287294E-02  0.0000000E+00 -0.5050505E-02 -0.7819074E-09  0.0000000E+00 -0.1767476E-08
 -0.5050505E-02  0.0000000E+00 -0.5050505E-02  0.1265069E-11  0.0000000E+00 -0.2095392E-08
 -0.5050505E-02  0.0000000E+00 -0.5050505E-02 -0.2258184E-11  0.0000000E+00 -0.2098974E-08
 -0.5050505E-02  0.0000000E+00 -0.5050505E-02  0.3689411E-11  0.0000000E+00 -0.2101904E-08
 -0.5050505E-02  0.0000000E+00 -0.5050505E-02  0.3251260E-11  0.0000000E+00 -0.2100455E-08
 -0.5050505E-02  0.0000000E+00 -0.5050505E-02  0.6185075E-12  0.0000000E+00 -0.2097968E-08
 -0.5050505E-02  0.0000000E+00 -0.5050505E-02 -0.2698273E-12  0.0000000E+00 -0.2096963E-08
 -0.5050504E-02  0.0000000E+00 -0.5050505E-02 -0.2761580E-12  0.0000000E+00 -0.2096941E-08
 -0.5050501E-02  0.0000000E+00 -0.5050505E-02 -0.2078839E-12  0.0000000E+00 -0.2097117E-08
 -0.5050495E-02  0.0000000E+00 -0.5050505E-02 -0.1857118E-12  0.0000000E+00 -0.2097237E-08
 -0.5050482E-02  0.0000000E+00 -0.5050505E-02 -0.1641768E-12  0.0000000E+00 -0.2097304E-08
 -0.5050449E-02  0.0000000E+00 -0.5050505E-02 -0.1309260E-12  0.0000000E+00 -0.2097356E-08
 -0.5050376E-02  0.0000000E+00 -0.5050505E-02 -0.9471489E-13  0.0000000E+00 -0.2097409E-08
 -0.5050299E-02  0.0000000E+00 -0.5050505E-02 -0.5295076E-13  0.0000000E+00 -0.2097457E-08
 -0.5050178E-02  0.0000000E+00 -0.5050505E-02 -0.3108971E-13  0.0000000E+00 -0.2097486E-08
 -0.5050018E-02  0.0000000E+00 -0.5050505E-02 -0.1825448E-13  0.0000000E+00 -0.2097497E-08
 -0.5049710E-02  0.0000000E+00 -0.5050505E-02 -0.6280399E-14  0.0000000E+00 -0.2097506E-08
 -0.5049253E-02  0.0000000E+00 -0.5050505E-02 -0.5962037E-14  0.0000000E+00 -0.2097516E-08
 -0.5048636E-02  0.0000000E+00 -0.5050505E-02 -0.5038709E-14  0.0000000E+00 -0.2097523E-08
 -0.5047442E-02  0.0000000E+00 -0.5050505E-02  0.8819216E-15  0.0000000E+00 -0.2097526E-08
 -0.5045727E-02  0.0000000E+00 -0.5050505E-02  0.2015821E-14  0.0000000E+00 -0.2097525E-08
 -0.5043261E-02  0.0000000E+00 -0.5050505E-02 -0.2358530E-14  0.0000000E+00 -0.2097525E-08
 -0.5038714E-02  0.0000000E+00 -0.5050505E-02 -0.8213365E-14  0.0000000E+00 -0.2097533E-08
 -0.5032318E-02  0.0000000E+00 -0.5050505E-02 -0.1236817E-13  0.0000000E+00 -0.2097542E-08
 -0.5022454E-02  0.0000000E+00 -0.5050505E-02 -0.8573599E-14  0.0000000E+00 -0.2097545E-08
 -0.5012589E-02  0.0000000E+00 -0.5050505E-02 -0.2335574E-14  0.0000000E+00 -0.2097544E-08
 -0.5002725E-02  0.0000000E+00 -0.5050505E-02  0.4346465E-14  0.0000000E+00 -0.2097539E-08
 -0.4992860E-02  0.0000000E+00 -0.5050505E-02  0.1003049E-13  0.0000000E+00 -0.2097533E-08
 -0.4976523E-02  0.0000000E+00 -0.5050505E-02  0.7514973E-14  0.0000000E+00 -0.2097532E-08
 -0.4956794E-02  0.0000000E+00 -0.5050505E-02 -0.1302006E-15  0.0000000E+00 -0.2097534E-08
 -0.4937066E-02  0.0000000E+00 -0.5050505E-02 -0.6779133E-14  0.0000000E+00 -0.2097537E-08
 -0.4906239E-02  0.0000000E+00 -0.5050505E-02 -0.3863951E-14  0.0000000E+00 -0.2097538E-08
 -0.4866782E-02  0.0000000E+00 -0.5050505E-02 -0.1128550E-14  0.0000000E+00 -0.2097539E-08
 -0.4827325E-02  0.0000000E+00 -0.5050505E-02  0.3719427E-16  0.0000000E+00 -0.2097539E-08
 -0.4769372E-02  0.0000000E+00 -0.5050505E-02 -0.2463331E-15  0.0000000E+00 -0.2097539E-08
 -0.4690458E-02  0.0000000E+00 -0.5050505E-02 -0.8662940E-15  0.0000000E+00 -0.2097539E-08
 -0.4611543E-02  0.0000000E+00 -0.5050505E-02 -0.4649077E-15  0.0000000E+00 -0.2097539E-08
 -0.4503035E-02  0.0000000E+00 -0.5050505E-02  0.8184424E-16  0.0000000E+00 -0.2097539E-08
 -0.4345206E-02  0.0000000E+00 -0.5050505E-02  0.1970244E-14  0.0000000E+00 -0.2097537E-08
 -0.4187378E-02  0.0000000E+00 -0.5050505E-02  0.5552690E-14  0.0000000E+00 -0.2097535E-08
 -0.3985156E-02  0.0000000E+00 -0.5050505E-02  0.2745764E-14  0.0000000E+00 -0.2097535E-08
 -0.3669499E-02  0.0000000E+00 -0.5050505E-02 -0.2989949E-14  0.0000000E+00 -0.2097536E-08
 -0.3353842E-02  0.0000000E+00 -0.5050505E-02 -0.2333552E-14  0.0000000E+00 -0.2097536E-08
 -0.2978990E-02  0.0000000E+00 -0.5050505E-02 -0.2368345E-14  0.0000000E+00 -0.2097536E-08
 -0.2347676E-02  0.0000000E+00 -0.5050505E-02 -0.2943108E-14  0.0000000E+00 -0.2097538E-08
 -0.1716362E-02  0.0000000E+00 -0.5050505E-02 -0.2556886E-14  0.0000000E+00 -0.2097539E-08
 -0.1025842E-02  0.0000000E+00 -0.5050505E-02  0.5213095E-15  0.0000000E+00 -0.2097538E-08
  0.2367855E-03  0.0000000E+00 -0.5050505E-02  0.7010007E-14  0.0000000E+00 -0.2097536E-08
  0.1499413E-02  0.0000000E+00 -0.5050505E-02  0.3975281E-14  0.0000000E+00 -0.2097534E-08
  0.2762042E-02  0.0000000E+00 -0.5050505E-02  0.1613592E-14  0.0000000E+00 -0.2097533E-08
 -0.5050505E-02  0.0000000E+00 -0.5050505E-02  0.5300291E-15  0.0000000E+00 -0.2097532E-08
 -0.5050505E-02  0.0000000E+00 -0.5050505E-02 -0.2465859E-15  0.0000000E+00 -0.2097532E-08
 -0.5050505E-02  0.0000000E+00 -0.5050505E-02 -0.8976334E-16  0.0000000E+00 -0.2097532E-08
 -0.5050505E-02  0.0000000E+00 -0.5050505E-02  0.2242188E-15  0.0000000E+00 -0.2097532E-08
 -0.5050505E-02  0.0000000E+00 -0.5050505E-02  0.8289734E-15  0.0000000E+00 -0.2097531E-08
 -0.5050505E-02  0.0000000E+00 -0.5050505E-02  0.1740128E-14  0.0000000E+00 -0.2097530E-08
 -0.5050505E-02  0.0000000E+00 -0.5050505E-02  0.2151161E-14  0.0000000E+00 -0.2097529E-08
 -0.5050504E-02  0.0000000E+00 -0.5050505E-02 -0.5561025E-15  0.0000000E+00 -0.2097530E-08
 -0.5050501E-02  0.0000000E+00 -0.5050505E-02 -0.3878989E-14  0.0000000E+00 -0.2097532E-08
 -0.5050495E-02  0.0000000E+00 -0.5050505E-02 -0.3417662E-14  0.0000000E+00 -0.2097532E-08
 -0.5050482E-02  0.0000000E+00 -0.5050505E-02  0.2939781E-14  0.0000000E+00 -0.2097532E-08
 -0.5050449E-02  0.0000000E+00 -0.5050505E-02  0.3643945E-14  0.0000000E+00 -0.2097531E-08
 -0.5050376E-02  0.0000000E+00 -0.5050505E-02  0.6499438E-14  0.0000000E+00 -0.2097528E-08
 -0.5050299E-02  0.0000000E+00 -0.5050505E-02 -0.1304112E-15  0.0000000E+00 -0.2097527E-08
 -0.5050178E-02  0.0000000E+00 -0.5050505E-02 -0.4922704E-14  0.0000000E+00 -0.2097530E-08
 -0.5050018E-02  0.0000000E+00 -0.5050505E-02 -0.3580382E-14  0.0000000E+00 -0.2097532E-08
 -0.5049710E-02  0.0000000E+00 -0.5050505E-02 -0.1048138E-14  0.0000000E+00 -0.2097532E-08
 -0.5049253E-02  0.0000000E+00 -0.5050505E-02 -0.3524824E-15  0.0000000E+00 -0.2097531E-08
 -0.5048636E-02  0.0000000E+00 -0.5050505E-02 -0.6023542E-16  0.0000000E+00 -0.2097531E-08
 -0.5047442E-02  0.0000000E+00 -0.5050505E-02 -0.1231792E-14  0.0000000E+00 -0.2097531E-08
 -0.5045727E-02  0.0000000E+00 -0.5050505E-02 -0.4294487E-14  0.0000000E+00 -0.2097534E-08
 -0.5043261E-02  0.0000000E+00 -0.5050505E-02 -0.7417332E-14  0.0000000E+00 -0.2097538E-08
 -0.5038714E-02  0.0000000E+00 -0.5050505E-02 -0.5768568E-14  0.0000000E+00 -0.2097541E-08
 -0.5032318E-02  0.0000000E+00 -0.5050505E-02  0.4387324E-14  0.0000000E+00 -0.2097540E-08
 -0.5022454E-02  0.0000000E+00 -0.5050505E-02  0.7945129E-14  0.0000000E+00 -0.2097533E-08
 -0.5012589E-02  0.0000000E+00 -0.5050505E-02  0.4195162E-14  0.0000000E+00 -0.2097529E-08
 -0.5002725E-02  0.0000000E+00 -0.5050505E-02  0.4426710E-14  0.0000000E+00 -0.2097530E-08
 -0.4992860E-02  0.0000000E+00 -0.5050505E-02 -0.3529286E-14  0.0000000E+00 -0.2097533E-08
 -0.4976523E-02  0.0000000E+00 -0.5050505E-02 -0.1221847E-13  0.0000000E+00 -0.2097540E-08
 -0.4956794E-02  0.0000000E+00 -0.5050505E-02 -0.9933528E-14  0.0000000E+00 -0.2097546E-08
 -0.4937066E-02  0.0000000E+00 -0.5050505E-02 -0.2216948E-13  0.0000000E+00 -0.2097552E-08
 -0.4906239E-02  0.0000000E+00 -0.5050505E-02 -0.3919738E-13  0.0000000E+00 -0.2097571E-08
 -0.4866782E-02  0.0000000E+00 -0.5050505E-02 -0.5613658E-13  0.0000000E+00 -0.2097604E-08
 -0.4827325E-02  0.0000000E+00 -0.5050505E-02 -0.6882598E-13  0.0000000E+00 -0.2097640E-08
 -0.4769372E-02  0.0000000E+00 -0.5050505E-02 -0.1059971E-12  0.0000000E+00 -0.2097689E-08
 -0.4690458E-02  0.0000000E+00 -0.5050505E-02 -0.1665298E-12  0.0000000E+00 -0.2097777E-08
 -0.4611543E-02  0.0000000E+00 -0.5050505E-02 -0.2489388E-12  0.0000000E+00 -0.2097912E-08
 -0.4503035E-02  0.0000000E+00 -0.5050505E-02 -0.3670724E-12  0.0000000E+00 -0.2098100E-08
 -0.4345206E-02  0.0000000E+00 -0.5050505E-02 -0.5506778E-12  0.0000000E+00 -0.2098376E-08
 -0.4187378E-02  0.0000000E+00 -0.5050505E-02 -0.7853395E-12  0.0000000E+00 -0.2098780E-08
 -0.3985156E-02  0.0000000E+00 -0.5050505E-02 -0.1178870E-11  0.0000000E+00 -0.2099370E-08
 -0.3669499E-02  0.0000000E+00 -0.5050505E-02 -0.1733400E-11  0.0000000E+00 -0.2100229E-08
 -0.3353842E-02  0.0000000E+00 -0.5050505E-02 -0.2620426E-11  0.0000000E+00 -0.2101476E-08
 -0.2978990E-02  0.0000000E+00 -0.5050505E-02 -0.4005402E-11  0.0000000E+00 -0.2103285E-08
 -0.2347676E-02  0.0000000E+00 -0.5050505E-02 -0.6306976E-11  0.0000000E+00 -0.2105862E-08
 -0.1716362E-02  0.0000000E+00 -0.5050505E-02 -0.1038131E-10  0.0000000E+00 -0.2109336E-08
 -0.1025842E-02  0.0000000E+00 -0.5050505E-02 -0.1830745E-10  0.0000000E+00 -0.2113192E-08
  0.2367855E-03  0.0000000E+00 -0.5050505E-02 -0.3550783E-10  0.0000000E+00 -0.2113845E-08
  0.1499413E-02  0.0000000E+00 -0.5050505E-02 -0.7661858E-10  0.0000000E+00 -0.2093757E-08
  0.5287294E-02  0.0000000E+00 -0.5050505E-02 -0.1810131E-09  0.0000000E+00 -0.1970243E-08
 -0.5050505E-02  0.0000000E+00 -0.5050505E-02  0.1349121E-11  0.0000000E+00 -0.2107786E-08
 -0.5050505E-02  0.0000000E+00 -0.5050505E-02 -0.6259074E-11  0.0000000E+00 -0.2108128E-08
 -0.5050505E-02  0.0000000E+00 -0.5050505E-02  0.7521488E-12  0.0000000E+00 -0.2112127E-08
 -0.5050505E-02  0.0000000E+00 -0.5050505E-02  0.4269313E-11  0.0000000E+00 -0.2115457E-08
 -0.5050505E-02  0.0000000E+00 -0.5050505E-02  0.1988529E-11  0.0000000E+00 -0.2115534E-08
 -0.5050505E-02  0.0000000E+00 -0.5050505E-02  0.2129282E-12  0.0000000E+00 -0.2114685E-08
 -0.5050504E-02  0.0000000E+00 -0.5050505E-02 -0.2472667E-12  0.0000000E+00 -0.2114198E-08
 -0.5050501E-02  0.0000000E+00 -0.5050505E-02 -0.2488364E-12  0.0000000E+00 -0.2114037E-08
 -0.5050495E-02  0.0000000E+00 -0.5050505E-02 -0.2055841E-12  0.0000000E+00 -0.2113979E-08
 -0.5050482E-02  0.0000000E+00 -0.5050505E-02 -0.1769080E-12  0.0000000E+00 -0.2113947E-08
 -0.5050449E-02  0.0000000E+00 -0.5050505E-02 -0.1530700E-12  0.0000000E+00 -0.2113931E-08
 -0.5050376E-02  0.0000000E+00 -0.5050505E-02 -0.1309209E-12  0.0000000E+00 -0.2113938E-08
 -0.5050299E-02  0.0000000E+00 -0.5050505E-02 -0.9136852E-13  0.0000000E+00 -0.2113966E-08
 -0.5050178E-02  0.0000000E+00 -0.5050505E-02 -0.4782377E-13  0.0000000E+00 -0.2113993E-08
 -0.5050018E-02  0.0000000E+00 -0.5050505E-02 -0.2951024E-13  0.0000000E+00 -0.2114009E-08
 -0.5049710E-02  0.0000000E+00 -0.5050505E-02 -0.1720310E-13  0.0000000E+00 -0.2114022E-08
 -0.5049253E-02  0.0000000E+00 -0.5050505E-02 -0.1424836E-13  0.0000000E+00 -0.2114032E-08
 -0.5048636E-02  0.0000000E+00 -0.5050505E-02 -0.1193628E-13  0.0000000E+00 -0.2114040E-08
 -0.5047442E-02  0.0000000E+00 -0.5050505E-02 -0.6199655E-15  0.0000000E+00 -0.2114046E-08
 -0.5045727E-02  0.0000000E+00 -0.5050505E-02  0.2640461E-14  0.0000000E+00 -0.2114048E-08
 -0.5043261E-02  0.0000000E+00 -0.5050505E-02 -0.7758221E-14  0.0000000E+00 -0.2114052E-08
 -0.5038714E-02  0.0000000E+00 -0.5050505E-02 -0.1657441E-13  0.0000000E+00 -0.2114058E-08
 -0.5032318E-02  0.0000000E+00 -0.5050505E-02 -0.1526857E-13  0.0000000E+00 -0.2114061E-08
 -0.5022454E-02  0.0000000E+00 -0.5050505E-02 -0.8411328E-14  0.0000000E+00 -0.2114061E-08
 -0.5012589E-02  0.0000000E+00 -0.5050505E-02  0.1679232E-14  0.0000000E+00 -0.2114057E-08
 -0.5002725E-02  0.0000000E+00 -0.5050505E-02  0.9529195E-14  0.0000000E+00 -0.2114053E-08
 -0.4992860E-02  0.0000000E+00 -0.5050505E-02  0.1261273E-13  0.0000000E+00 -0.2114051E-08
 -0.4976523E-02  0.0000000E+00 -0.5050505E-02  0.5966137E-14  0.0000000E+00 -0.2114051E-08
 -0.4956794E-02  0.0000000E+00 -0.5050505E-02 -0.4586510E-14  0.0000000E+00 -0.2114055E-08
 -0.4937066E-02  0.0000000E+00 -0.5050505E-02 -0.7442546E-14  0.0000000E+00 -0.2114058E-08
 -0.4906239E-02  0.0000000E+00 -0.5050505E-02 -0.4201184E-14  0.0000000E+00 -0.2114057E-08
 -0.4866782E-02  0.0000000E+00 -0.5050505E-02 -0.1011885E-14  0.0000000E+00 -0.2114057E-08
 -0.4827325E-02  0.0000000E+00 -0.5050505E-02  0.7713374E-15  0.0000000E+00 -0.2114056E-08
 -0.4769372E-02  0.0000000E+00 -0.5050505E-02 -0.2309178E-15  0.0000000E+00 -0.2114055E-08
 -0.4690458E-02  0.0000000E+00 -0.5050505E-02 -0.1263790E-14  0.0000000E+00 -0.2114055E-08
 -0.4611543E-02  0.0000000E+00 -0.5050505E-02 -0.4299639E-15  0.0000000E+00 -0.2114055E-08
 -0.4503035E-02  0.0000000E+00 -0.5050505E-02  0.1320300E-14  0.0000000E+00 -0.2114055E-08
 -0.4345206E-02  0.0000000E+00 -0.5050505E-02  0.5317462E-14  0.0000000E+00 -0.2114052E-08
 -0.4187378E-02  0.0000000E+00 -0.5050505E-02  0.5318996E-14  0.0000000E+00 -0.2114051E-08
 -0.3985156E-02  0.0000000E+00 -0.5050505E-02  0.1325568E-14  0.0000000E+00 -0.2114053E-08
 -0.3669499E-02  0.0000000E+00 -0.5050505E-02 -0.2522424E-14  0.0000000E+00 -0.2114053E-08
 -0.3353842E-02  0.0000000E+00 -0.5050505E-02 -0.1644198E-14  0.0000000E+00 -0.2114051E-08
 -0.2978990E-02  0.0000000E+00 -0.5050505E-02 -0.3381725E-14  0.0000000E+00 -0.2114051E-08
 -0.2347676E-02  0.0000000E+00 -0.5050505E-02 -0.3488070E-14  0.0000000E+00 -0.2114051E-08
 -0.1716362E-02  0.0000000E+00 -0.5050505E-02 -0.1875618E-14  0.0000000E+00 -0.2114050E-08
 -0.1025842E-02  0.0000000E+00 -0.5050505E-02  0.3369419E-14  0.0000000E+00 -0.2114047E-08
  0.2367855E-03  0.0000000E+00 -0.5050505E-02  0.7977894E-14  0.0000000E+00 -0.2114045E-08
  0.1499413E-02  0.0000000E+00 -0.5050505E-02  0.4550765E-14  0.0000000E+00 -0.2114046E-08
  0.2762042E-02  0.0000000E+00 -0.5050505E-02  0.2267133E-14  0.0000000E+00 -0.2114046E-08
 -0.5050505E-02  0.0000000E+00 -0.5050505E-02  0.1410939E-14  0.0000000E+00 -0.2114045E-08
 -0.5050505E-02  0.0000000E+00 -0.5050505E-02 -0.6458448E-15  0.0000000E+00 -0.2114045E-08
 -0.5050505E-02  0.0000000E+00 -0.5050505E-02 -0.3709036E-15  0.0000000E+00 -0.2114046E-08
 -0.5050505E-02  0.0000000E+00 -0.5050505E-02  0.2082998E-15  0.0000000E+00 -0.2114046E-08
 -0.5050505E-02  0.0000000E+00 -0.5050505E-02  0.1397073E-14  0.0000000E+00 -0.2114046E-08
 -0.5050505E-02  0.0000000E+00 -0.5050505E-02  0.2942717E-14  0.0000000E+00 -0.2114045E-08
 -0.5050505E-02  0.0000000E+00 -0.5050505E-02  0.3418544E-14  0.0000000E+00 -0.2114044E-08
 -0.5050504E-02  0.0000000E+00 -0.5050505E-02 -0.3846584E-14  0.0000000E+00 -0.2114045E-08
 -0.5050501E-02  0.0000000E+00 -0.5050505E-02 -0.4675631E-14  0.0000000E+00 -0.2114047E-08
 -0.5050495E-02  0.0000000E+00 -0.5050505E-02 -0.3794752E-15  0.0000000E+00 -0.2114045E-08
 -0.5050482E-02  0.0000000E+00 -0.5050505E-02  0.1328516E-15  0.0000000E+00 -0.2114044E-08
 -0.5050449E-02  0.0000000E+00 -0.5050505E-02  0.6220313E-14  0.0000000E+00 -0.2114045E-08
 -0.5050376E-02  0.0000000E+00 -0.5050505E-02  0.7756188E-14  0.0000000E+00 -0.2114045E-08
 -0.5050299E-02  0.0000000E+00 -0.5050505E-02 -0.2784725E-14  0.0000000E+00 -0.2114047E-08
 -0.5050178E-02  0.0000000E+00 -0.5050505E-02 -0.5756583E-14  0.0000000E+00 -0.2114047E-08
 -0.5050018E-02  0.0000000E+00 -0.5050505E-02 -0.4266571E-14  0.0000000E+00 -0.2114047E-08
 -0.5049710E-02  0.0000000E+00 -0.5050505E-02  0.4358725E-15  0.0000000E+00 -0.2114046E-08
 -0.5049253E-02  0.0000000E+00 -0.5050505E-02  0.1008373E-14  0.0000000E+00 -0.2114044E-08
 -0.5048636E-02  0.0000000E+00 -0.5050505E-02  0.7045706E-15  0.0000000E+00 -0.2114043E-08
 -0.5047442E-02  0.0000000E+00 -0.5050505E-02 -0.2540861E-14  0.0000000E+00 -0.2114043E-08
 -0.5045727E-02  0.0000000E+00 -0.5050505E-02 -0.7141391E-14  0.0000000E+00 -0.2114045E-08
 -0.5043261E-02  0.0000000E+00 -0.5050505E-02 -0.1000690E-13  0.0000000E+00 -0.2114046E-08
 -0.5038714E-02  0.0000000E+00 -0.5050505E-02 -0.6225037E-14  0.0000000E+00 -0.2114045E-08
 -0.5032318E-02  0.0000000E+00 -0.5050505E-02  0.8369283E-14  0.0000000E+00 -0.2114044E-08
 -0.5022454E-02  0.0000000E+00 -0.5050505E-02  0.1231714E-13  0.0000000E+00 -0.2114042E-08
 -0.5012589E-02  0.0000000E+00 -0.5050505E-02  0.3844021E-14  0.0000000E+00 -0.2114041E-08
 -0.5002725E-02  0.0000000E+00 -0.5050505E-02  0.2154531E-14  0.0000000E+00 -0.2114044E-08
 -0.4992860E-02  0.0000000E+00 -0.5050505E-02 -0.8995282E-14  0.0000000E+00 -0.2114049E-08
 -0.4976523E-02  0.0000000E+00 -0.5050505E-02 -0.1890857E-13  0.0000000E+00 -0.2114054E-08
 -0.4956794E-02  0.0000000E+00 -0.5050505E-02 -0.1309413E-13  0.0000000E+00 -0.2114058E-08
 -0.4937066E-02  0.0000000E+00 -0.5050505E-02 -0.3191868E-13  0.0000000E+00 -0.2114065E-08
 -0.4906239E-02  0.0000000E+00 -0.5050505E-02 -0.6226369E-13  0.0000000E+00 -0.2114078E-08
 -0.4866782E-02  0.0000000E+00 -0.5050505E-02 -0.8595713E-13  0.0000000E+00 -0.2114099E-08
 -0.4827325E-02  0.0000000E+00 -0.5050505E-02 -0.1024724E-12  0.0000000E+00 -0.2114128E-08
 -0.4769372E-02  0.0000000E+00 -0.5050505E-02 -0.1644635E-12  0.0000000E+00 -0.2114171E-08
 -0.4690458E-02  0.0000000E+00 -0.5050505E-02 -0.2644529E-12  0.0000000E+00 -0.2114241E-08
 -0.4611543E-02  0.0000000E+00 -0.5050505E-02 -0.3917058E-12  0.0000000E+00 -0.2114349E-08
 -0.4503035E-02  0.0000000E+00 -0.5050505E-02 -0.5548893E-12  0.0000000E+00 -0.2114495E-08
 -0.4345206E-02  0.0000000E+00 -0.5050505E-02 -0.8394014E-12  0.0000000E+00 -0.2114701E-08
 -0.4187378E-02  0.0000000E+00 -0.5050505E-02 -0.1190198E-11  0.0000000E+00 -0.2114998E-08
 -0.3985156E-02  0.0000000E+00 -0.5050505E-02 -0.1767005E-11  0.0000000E+00 -0.2115413E-08
 -0.3669499E-02  0.0000000E+00 -0.5050505E-02 -0.2561243E-11  0.0000000E+00 -0.2115985E-08
 -0.3353842E-02  0.0000000E+00 -0.5050505E-02 -0.3771548E-11  0.0000000E+00 -0.2116742E-08
 -0.2978990E-02  0.0000000E+00 -0.5050505E-02 -0.5562073E-11  0.0000000E+00 -0.2117678E-08
 -0.2347676E-02  0.0000000E+00 -0.5050505E-02 -0.8285764E-11  0.0000000E+00 -0.2118694E-08
 -0.1716362E-02  0.0000000E+00 -0.5050505E-02 -0.1247389E-10  0.0000000E+00 -0.2119385E-08
 -0.1025842E-02  0.0000000E+00 -0.5050505E-02 -0.1891610E-10  0.0000000E+00 -0.2118391E-08
  0.2367855E-03  0.0000000E+00 -0.5050505E-02 -0.2866676E-10  0.0000000E+00 -0.2111808E-08
  0.1499413E-02  0.0000000E+00 -0.5050505E-02 -0.4238155E-10  0.0000000E+00 -0.2091448E-08
  0.5287294E-02  0.0000000E+00 -0.5050505E-02 -0.5213512E-10  0.0000000E+00 -0.2053294E-08
 -0.5050505E-02  0.0000000E+00 -0.5050505E-02  0.3023401E-11  0.0000000E+00 -0.2124978E-08
 -0.5050505E-02  0.0000000E+00 -0.5050505E-02 -0.3800824E-11  0.0000000E+00 -0.2120532E-08
 -0.5050505E-02  0.0000000E+00 -0.5050505E-02 -0.2607734E-11  0.0000000E+00 -0.2117464E-08
 -0.5050505E-02  0.0000000E+00 -0.5050505E-02  0.2147744E-11  0.0000000E+00 -0.2119588E-08
 -0.5050505E-02  0.0000000E+00 -0.5050505E-02  0.1891107E-11  0.0000000E+00 -0.2121695E-08
 -0.5050505E-02  0.0000000E+00 -0.5050505E-02  0.4951793E-12  0.0000000E+00 -0.2122347E-08
 -0.5050504E-02  0.0000000E+00 -0.5050505E-02 -0.9417792E-13  0.0000000E+00 -0.2122399E-08
 -0.5050501E-02  0.0000000E+00 -0.5050505E-02 -0.1726392E-12  0.0000000E+00 -0.2122333E-08
 -0.5050495E-02  0.0000000E+00 -0.5050505E-02 -0.1457241E-12  0.0000000E+00 -0.2122257E-08
 -0.5050482E-02  0.0000000E+00 -0.5050505E-02 -0.1342686E-12  0.0000000E+00 -0.2122189E-08
 -0.5050449E-02  0.0000000E+00 -0.5050505E-02 -0.1295596E-12  0.0000000E+00 -0.2122140E-08
 -0.5050376E-02  0.0000000E+00 -0.5050505E-02 -0.1303539E-12  0.0000000E+00 -0.2122111E-08
 -0.5050299E-02  0.0000000E+00 -0.5050505E-02 -0.1092537E-12  0.0000000E+00 -0.2122102E-08
 -0.5050178E-02  0.0000000E+00 -0.5050505E-02 -0.6772791E-13  0.0000000E+00 -0.2122114E-08
 -0.5050018E-02  0.0000000E+00 -0.5050505E-02 -0.4501565E-13  0.0000000E+00 -0.2122133E-08
 -0.5049710E-02  0.0000000E+00 -0.5050505E-02 -0.3191993E-13  0.0000000E+00 -0.2122150E-08
 -0.5049253E-02  0.0000000E+00 -0.5050505E-02 -0.1949966E-13  0.0000000E+00 -0.2122161E-08
 -0.5048636E-02  0.0000000E+00 -0.5050505E-02 -0.1987643E-13  0.0000000E+00 -0.2122166E-08
 -0.5047442E-02  0.0000000E+00 -0.5050505E-02 -0.7408147E-14  0.0000000E+00 -0.2122175E-08
 -0.5045727E-02  0.0000000E+00 -0.5050505E-02 -0.6203866E-15  0.0000000E+00 -0.2122183E-08
 -0.5043261E-02  0.0000000E+00 -0.5050505E-02 -0.1333254E-13  0.0000000E+00 -0.2122188E-08
 -0.5038714E-02  0.0000000E+00 -0.5050505E-02 -0.1568089E-13  0.0000000E+00 -0.2122187E-08
 -0.5032318E-02  0.0000000E+00 -0.5050505E-02 -0.1177459E-13  0.0000000E+00 -0.2122180E-08
 -0.5022454E-02  0.0000000E+00 -0.5050505E-02 -0.7526010E-14  0.0000000E+00 -0.2122176E-08
 -0.5012589E-02  0.0000000E+00 -0.5050505E-02  0.3743544E-14  0.0000000E+00 -0.2122177E-08
 -0.5002725E-02  0.0000000E+00 -0.5050505E-02  0.1030591E-13  0.0000000E+00 -0.2122177E-08
 -0.4992860E-02  0.0000000E+00 -0.5050505E-02  0.1378144E-13  0.0000000E+00 -0.2122178E-08
 -0.4976523E-02  0.0000000E+00 -0.5050505E-02  0.1229683E-14  0.0000000E+00 -0.2122181E-08
 -0.4956794E-02  0.0000000E+00 -0.5050505E-02 -0.6420193E-14  0.0000000E+00 -0.2122184E-08
 -0.4937066E-02  0.0000000E+00 -0.5050505E-02 -0.6810432E-14  0.0000000E+00 -0.2122182E-08