title = "dataset feddes"
variables = "x", "y", "z", "vx", "vy", "vz"
zone t = "velocities, solution time =  4.000E+01 days        " i =   99, j =   99, k =    1,  f=point
 -0.5050505E-02  0.0000000E+00 -0.5050505E-02  0.3642794E-07  0.0000000E+00 -0.1575315E-03
 -0.5050505E-02  0.0000000E+00 -0.5050505E-02  0.1093627E-06  0.0000000E+00 -0.1573829E-03
 -0.5050505E-02  0.0000000E+00 -0.5050505E-02  0.1825361E-06  0.0000000E+00 -0.1570855E-03
 -0.5050505E-02  0.0000000E+00 -0.5050505E-02  0.2561105E-06  0.0000000E+00 -0.1566385E-03
 -0.5050505E-02  0.0000000E+00 -0.5050505E-02  0.3302525E-06  0.0000000E+00 -0.1560410E-03
 -0.5050505E-02  0.0000000E+00 -0.5050505E-02  0.4051336E-06  0.0000000E+00 -0.1552918E-03
 -0.5050504E-02  0.0000000E+00 -0.5050505E-02  0.4809322E-06  0.0000000E+00 -0.1543891E-03
 -0.5050501E-02  0.0000000E+00 -0.5050505E-02  0.5578344E-06  0.0000000E+00 -0.1533310E-03
 -0.5050495E-02  0.0000000E+00 -0.5050505E-02  0.6360361E-06  0.0000000E+00 -0.1521151E-03
 -0.5050482E-02  0.0000000E+00 -0.5050505E-02  0.7157446E-06  0.0000000E+00 -0.1507386E-03
 -0.5050449E-02  0.0000000E+00 -0.5050505E-02  0.7971802E-06  0.0000000E+00 -0.1491983E-03
 -0.5050376E-02  0.0000000E+00 -0.5050505E-02  0.8805786E-06  0.0000000E+00 -0.1474905E-03
 -0.5050299E-02  0.0000000E+00 -0.5050505E-02  0.9661928E-06  0.0000000E+00 -0.1456111E-03
 -0.5050178E-02  0.0000000E+00 -0.5050505E-02  0.1054296E-05  0.0000000E+00 -0.1435554E-03
 -0.5050018E-02  0.0000000E+00 -0.5050505E-02  0.1145182E-05  0.0000000E+00 -0.1413182E-03
 -0.5049710E-02  0.0000000E+00 -0.5050505E-02  0.1239173E-05  0.0000000E+00 -0.1388937E-03
 -0.5049253E-02  0.0000000E+00 -0.5050505E-02  0.1336618E-05  0.0000000E+00 -0.1362752E-03
 -0.5048636E-02  0.0000000E+00 -0.5050505E-02  0.1437898E-05  0.0000000E+00 -0.1334557E-03
 -0.5047442E-02  0.0000000E+00 -0.5050505E-02  0.1543431E-05  0.0000000E+00 -0.1304272E-03
 -0.5045727E-02  0.0000000E+00 -0.5050505E-02  0.1653675E-05  0.0000000E+00 -0.1271807E-03
 -0.5043261E-02  0.0000000E+00 -0.5050505E-02  0.1769135E-05  0.0000000E+00 -0.1237064E-03
 -0.5038714E-02  0.0000000E+00 -0.5050505E-02  0.1890367E-05  0.0000000E+00 -0.1199935E-03
 -0.5032318E-02  0.0000000E+00 -0.5050505E-02  0.2017987E-05  0.0000000E+00 -0.1160300E-03
 -0.5022454E-02  0.0000000E+00 -0.5050505E-02  0.2152676E-05  0.0000000E+00 -0.1118026E-03
 -0.5012589E-02  0.0000000E+00 -0.5050505E-02  0.2295189E-05  0.0000000E+00 -0.1072967E-03
 -0.5002725E-02  0.0000000E+00 -0.5050505E-02  0.2446368E-05  0.0000000E+00 -0.1024960E-03
 -0.4992860E-02  0.0000000E+00 -0.5050505E-02  0.2607150E-05  0.0000000E+00 -0.9738255E-04
 -0.4976523E-02  0.0000000E+00 -0.5050505E-02  0.2778585E-05  0.0000000E+00 -0.9193651E-04
 -0.4956794E-02  0.0000000E+00 -0.5050505E-02  0.2961847E-05  0.0000000E+00 -0.8613584E-04
 -0.4937066E-02  0.0000000E+00 -0.5050505E-02  0.3158256E-05  0.0000000E+00 -0.7995611E-04
 -0.4906239E-02  0.0000000E+00 -0.5050505E-02  0.3369299E-05  0.0000000E+00 -0.7337018E-04
 -0.4866782E-02  0.0000000E+00 -0.5050505E-02  0.3596657E-05  0.0000000E+00 -0.6634787E-04
 -0.4827325E-02  0.0000000E+00 -0.5050505E-02  0.3842236E-05  0.0000000E+00 -0.5885558E-04
 -0.4769372E-02  0.0000000E+00 -0.5050505E-02  0.4108200E-05  0.0000000E+00 -0.5085584E-04
 -0.4690458E-02  0.0000000E+00 -0.5050505E-02  0.4397020E-05  0.0000000E+00 -0.4230674E-04
 -0.4611543E-02  0.0000000E+00 -0.5050505E-02  0.4711524E-05  0.0000000E+00 -0.3316139E-04
 -0.4503035E-02  0.0000000E+00 -0.5050505E-02  0.5054955E-05  0.0000000E+00 -0.2336716E-04
 -0.4345206E-02  0.0000000E+00 -0.5050505E-02  0.5431053E-05  0.0000000E+00 -0.1286486E-04
 -0.4187378E-02  0.0000000E+00 -0.5050505E-02  0.5844142E-05  0.0000000E+00 -0.1580439E-05
 -0.3985156E-02  0.0000000E+00 -0.5050505E-02  0.6299291E-05  0.0000000E+00  0.1058897E-04
 -0.3669499E-02  0.0000000E+00 -0.5050505E-02  0.6802512E-05  0.0000000E+00  0.2374648E-04
 -0.3353842E-02  0.0000000E+00 -0.5050505E-02  0.7360862E-05  0.0000000E+00  0.3799305E-04
 -0.2978990E-02  0.0000000E+00 -0.5050505E-02  0.7982739E-05  0.0000000E+00  0.5345375E-04
 -0.2347676E-02  0.0000000E+00 -0.5050505E-02  0.8678268E-05  0.0000000E+00  0.7027375E-04
 -0.1716362E-02  0.0000000E+00 -0.5050505E-02  0.9459878E-05  0.0000000E+00  0.8862274E-04
 -0.1025842E-02  0.0000000E+00 -0.5050505E-02  0.1034316E-04  0.0000000E+00  0.1087010E-03
  0.2367855E-03  0.0000000E+00 -0.5050505E-02  0.1134816E-04  0.0000000E+00  0.1307479E-03
  0.1499413E-02  0.0000000E+00 -0.5050505E-02  0.1250107E-04  0.0000000E+00  0.1550536E-03
  0.2762042E-02  0.0000000E+00 -0.5050505E-02  0.1383634E-04  0.0000000E+00  0.1819748E-03
 -0.5050505E-02  0.0000000E+00 -0.5050505E-02  0.1539796E-04  0.0000000E+00  0.2119556E-03
 -0.5050505E-02  0.0000000E+00 -0.5050505E-02  0.1723852E-04  0.0000000E+00  0.2455482E-03
 -0.5050505E-02  0.0000000E+00 -0.5050505E-02  0.1941594E-04  0.0000000E+00  0.2834313E-03
 -0.5050505E-02  0.0000000E+00 -0.5050505E-02  0.2201418E-04  0.0000000E+00  0.3264481E-03
 -0.5050505E-02  0.0000000E+00 -0.5050505E-02  0.2535091E-04  0.0000000E+00  0.3758860E-03
 -0.5050505E-02  0.0000000E+00 -0.5050505E-02  0.3109314E-04  0.0000000E+00  0.4351606E-03
 -0.5050505E-02  0.0000000E+00 -0.5050505E-02  0.4665117E-04  0.0000000E+00  0.5174269E-03
 -0.5050504E-02  0.0000000E+00 -0.5050505E-02 -0.4800278E-04  0.0000000E+00  0.5160095E-03
 -0.5050501E-02  0.0000000E+00 -0.5050505E-02 -0.3041023E-04  0.0000000E+00  0.4330504E-03
 -0.5050495E-02  0.0000000E+00 -0.5050505E-02 -0.2258117E-04  0.0000000E+00  0.3773862E-03
 -0.5050482E-02  0.0000000E+00 -0.5050505E-02 -0.1825335E-04  0.0000000E+00  0.3347201E-03
 -0.5050449E-02  0.0000000E+00 -0.5050505E-02 -0.1545666E-04  0.0000000E+00  0.2996499E-03
 -0.5050376E-02  0.0000000E+00 -0.5050505E-02 -0.1346858E-04  0.0000000E+00  0.2696680E-03
 -0.5050299E-02  0.0000000E+00 -0.5050505E-02 -0.1197130E-04  0.0000000E+00  0.2433834E-03
 -0.5050178E-02  0.0000000E+00 -0.5050505E-02 -0.1079904E-04  0.0000000E+00  0.2199243E-03
 -0.5050018E-02  0.0000000E+00 -0.5050505E-02 -0.9853680E-05  0.0000000E+00  0.1987018E-03
 -0.5049710E-02  0.0000000E+00 -0.5050505E-02 -0.9072217E-05  0.0000000E+00  0.1792999E-03
 -0.5049253E-02  0.0000000E+00 -0.5050505E-02 -0.8412136E-05  0.0000000E+00  0.1614148E-03
 -0.5048636E-02  0.0000000E+00 -0.5050505E-02 -0.7843770E-05  0.0000000E+00  0.1448199E-03
 -0.5047442E-02  0.0000000E+00 -0.5050505E-02 -0.7345903E-05  0.0000000E+00  0.1293428E-03
 -0.5045727E-02  0.0000000E+00 -0.5050505E-02 -0.6903048E-05  0.0000000E+00  0.1148499E-03
 -0.5043261E-02  0.0000000E+00 -0.5050505E-02 -0.6503693E-05  0.0000000E+00  0.1012363E-03
 -0.5038714E-02  0.0000000E+00 -0.5050505E-02 -0.6139138E-05  0.0000000E+00  0.8841844E-04
 -0.5032318E-02  0.0000000E+00 -0.5050505E-02 -0.5802716E-05  0.0000000E+00  0.7632914E-04
 -0.5022454E-02  0.0000000E+00 -0.5050505E-02 -0.5489248E-05  0.0000000E+00  0.6491370E-04
 -0.5012589E-02  0.0000000E+00 -0.5050505E-02 -0.5194665E-05  0.0000000E+00  0.5412720E-04
 -0.5002725E-02  0.0000000E+00 -0.5050505E-02 -0.4915746E-05  0.0000000E+00  0.4393244E-04
 -0.4992860E-02  0.0000000E+00 -0.5050505E-02 -0.4649917E-05  0.0000000E+00  0.3429832E-04
 -0.4976523E-02  0.0000000E+00 -0.5050505E-02 -0.4395110E-05  0.0000000E+00  0.2519871E-04
 -0.4956794E-02  0.0000000E+00 -0.5050505E-02 -0.4149656E-05  0.0000000E+00  0.1661142E-04
 -0.4937066E-02  0.0000000E+00 -0.5050505E-02 -0.3912199E-05  0.0000000E+00  0.8517464E-05
 -0.4906239E-02  0.0000000E+00 -0.5050505E-02 -0.3681648E-05  0.0000000E+00  0.9040810E-06
 -0.4866782E-02  0.0000000E+00 -0.5050505E-02 -0.3456692E-05  0.0000000E+00 -0.6241343E-05
 -0.4827325E-02  0.0000000E+00 -0.5050505E-02 -0.3237235E-05  0.0000000E+00 -0.1294030E-04
 -0.4769372E-02  0.0000000E+00 -0.5050505E-02 -0.3022631E-05  0.0000000E+00 -0.1921002E-04
 -0.4690458E-02  0.0000000E+00 -0.5050505E-02 -0.2812363E-05  0.0000000E+00 -0.2505868E-04
 -0.4611543E-02  0.0000000E+00 -0.5050505E-02 -0.2606023E-05  0.0000000E+00 -0.3049364E-04
 -0.4503035E-02  0.0000000E+00 -0.5050505E-02 -0.2403306E-05  0.0000000E+00 -0.3552161E-04
 -0.4345206E-02  0.0000000E+00 -0.5050505E-02 -0.2204015E-05  0.0000000E+00 -0.4014892E-04
 -0.4187378E-02  0.0000000E+00 -0.5050505E-02 -0.2008095E-05  0.0000000E+00 -0.4438168E-04
 -0.3985156E-02  0.0000000E+00 -0.5050505E-02 -0.1815708E-05  0.0000000E+00 -0.4822620E-04
 -0.3669499E-02  0.0000000E+00 -0.5050505E-02 -0.1627379E-05  0.0000000E+00 -0.5168956E-04
 -0.3353842E-02  0.0000000E+00 -0.5050505E-02 -0.1444349E-05  0.0000000E+00 -0.5478067E-04
 -0.2978990E-02  0.0000000E+00 -0.5050505E-02 -0.1269376E-05  0.0000000E+00 -0.5751254E-04
 -0.2347676E-02  0.0000000E+00 -0.5050505E-02 -0.1108772E-05  0.0000000E+00 -0.5990739E-04
 -0.1716362E-02  0.0000000E+00 -0.5050505E-02 -0.9780315E-06  0.0000000E+00 -0.6200945E-04
 -0.1025842E-02  0.0000000E+00 -0.5050505E-02 -0.9188850E-06  0.0000000E+00 -0.6392074E-04
  0.2367855E-03  0.0000000E+00 -0.5050505E-02 -0.1055877E-05  0.0000000E+00 -0.6591094E-04
  0.1499413E-02  0.0000000E+00 -0.5050505E-02 -0.1800486E-05  0.0000000E+00 -0.6879040E-04
  0.5287294E-02  0.0000000E+00 -0.5050505E-02 -0.2466388E-04  0.0000000E+00 -0.5522901E-04
 -0.5050505E-02  0.0000000E+00 -0.5050505E-02  0.1092050E-06  0.0000000E+00 -0.1573108E-03
 -0.5050505E-02  0.0000000E+00 -0.5050505E-02  0.3278519E-06  0.0000000E+00 -0.1571622E-03
 -0.5050505E-02  0.0000000E+00 -0.5050505E-02  0.5472143E-06  0.0000000E+00 -0.1568646E-03
 -0.5050505E-02  0.0000000E+00 -0.5050505E-02  0.7677788E-06  0.0000000E+00 -0.1564175E-03
 -0.5050505E-02  0.0000000E+00 -0.5050505E-02  0.9900438E-06  0.0000000E+00 -0.1558198E-03
 -0.5050505E-02  0.0000000E+00 -0.5050505E-02  0.1214523E-05  0.0000000E+00 -0.1550703E-03
 -0.5050504E-02  0.0000000E+00 -0.5050505E-02  0.1441750E-05  0.0000000E+00 -0.1541673E-03
 -0.5050501E-02  0.0000000E+00 -0.5050505E-02  0.1672282E-05  0.0000000E+00 -0.1531089E-03
 -0.5050495E-02  0.0000000E+00 -0.5050505E-02  0.1906706E-05  0.0000000E+00 -0.1518927E-03
 -0.5050482E-02  0.0000000E+00 -0.5050505E-02  0.2145641E-05  0.0000000E+00 -0.1505159E-03
 -0.5050449E-02  0.0000000E+00 -0.5050505E-02  0.2389747E-05  0.0000000E+00 -0.1489753E-03
 -0.5050376E-02  0.0000000E+00 -0.5050505E-02  0.2639730E-05  0.0000000E+00 -0.1472672E-03
 -0.5050299E-02  0.0000000E+00 -0.5050505E-02  0.2896347E-05  0.0000000E+00 -0.1453876E-03
 -0.5050178E-02  0.0000000E+00 -0.5050505E-02  0.3160413E-05  0.0000000E+00 -0.1433318E-03
 -0.5050018E-02  0.0000000E+00 -0.5050505E-02  0.3432814E-05  0.0000000E+00 -0.1410945E-03
 -0.5049710E-02  0.0000000E+00 -0.5050505E-02  0.3714508E-05  0.0000000E+00 -0.1386700E-03
 -0.5049253E-02  0.0000000E+00 -0.5050505E-02  0.4006541E-05  0.0000000E+00 -0.1360519E-03
 -0.5048636E-02  0.0000000E+00 -0.5050505E-02  0.4310054E-05  0.0000000E+00 -0.1332328E-03
 -0.5047442E-02  0.0000000E+00 -0.5050505E-02  0.4626297E-05  0.0000000E+00 -0.1302050E-03
 -0.5045727E-02  0.0000000E+00 -0.5050505E-02  0.4956643E-05  0.0000000E+00 -0.1269595E-03
 -0.5043261E-02  0.0000000E+00 -0.5050505E-02  0.5302601E-05  0.0000000E+00 -0.1234865E-03
 -0.5038714E-02  0.0000000E+00 -0.5050505E-02  0.5665838E-05  0.0000000E+00 -0.1197754E-03
 -0.5032318E-02  0.0000000E+00 -0.5050505E-02  0.6048193E-05  0.0000000E+00 -0.1158142E-03
 -0.5022454E-02  0.0000000E+00 -0.5050505E-02  0.6451705E-05  0.0000000E+00 -0.1115896E-03
 -0.5012589E-02  0.0000000E+00 -0.5050505E-02  0.6878636E-05  0.0000000E+00 -0.1070871E-03
 -0.5002725E-02  0.0000000E+00 -0.5050505E-02  0.7331504E-05  0.0000000E+00 -0.1022905E-03
 -0.4992860E-02  0.0000000E+00 -0.5050505E-02  0.7813115E-05  0.0000000E+00 -0.9718211E-04
 -0.4976523E-02  0.0000000E+00 -0.5050505E-02  0.8326606E-05  0.0000000E+00 -0.9174208E-04
 -0.4956794E-02  0.0000000E+00 -0.5050505E-02  0.8875492E-05  0.0000000E+00 -0.8594854E-04
 -0.4937066E-02  0.0000000E+00 -0.5050505E-02  0.9463724E-05  0.0000000E+00 -0.7977725E-04
 -0.4906239E-02  0.0000000E+00 -0.5050505E-02  0.1009575E-04  0.0000000E+00 -0.7320125E-04
 -0.4866782E-02  0.0000000E+00 -0.5050505E-02  0.1077660E-04  0.0000000E+00 -0.6619060E-04
 -0.4827325E-02  0.0000000E+00 -0.5050505E-02  0.1151197E-04  0.0000000E+00 -0.5871195E-04
 -0.4769372E-02  0.0000000E+00 -0.5050505E-02  0.1230834E-04  0.0000000E+00 -0.5072814E-04
 -0.4690458E-02  0.0000000E+00 -0.5050505E-02  0.1317310E-04  0.0000000E+00 -0.4219764E-04
 -0.4611543E-02  0.0000000E+00 -0.5050505E-02  0.1411470E-04  0.0000000E+00 -0.3307396E-04
 -0.4503035E-02  0.0000000E+00 -0.5050505E-02  0.1514285E-04  0.0000000E+00 -0.2330498E-04
 -0.4345206E-02  0.0000000E+00 -0.5050505E-02  0.1626873E-04  0.0000000E+00 -0.1283211E-04
 -0.4187378E-02  0.0000000E+00 -0.5050505E-02  0.1750525E-04  0.0000000E+00 -0.1582081E-05
 -0.3985156E-02  0.0000000E+00 -0.5050505E-02  0.1886754E-04  0.0000000E+00  0.1054694E-04
 -0.3669499E-02  0.0000000E+00 -0.5050505E-02  0.2037351E-04  0.0000000E+00  0.2365683E-04
 -0.3353842E-02  0.0000000E+00 -0.5050505E-02  0.2204415E-04  0.0000000E+00  0.3784703E-04
 -0.2978990E-02  0.0000000E+00 -0.5050505E-02  0.2390439E-04  0.0000000E+00  0.5324057E-04
 -0.2347676E-02  0.0000000E+00 -0.5050505E-02  0.2598415E-04  0.0000000E+00  0.6997968E-04
 -0.1716362E-02  0.0000000E+00 -0.5050505E-02  0.2831998E-04  0.0000000E+00  0.8822984E-04
 -0.1025842E-02  0.0000000E+00 -0.5050505E-02  0.3095756E-04  0.0000000E+00  0.1081851E-03
  0.2367855E-03  0.0000000E+00 -0.5050505E-02  0.3395540E-04  0.0000000E+00  0.1300753E-03
  0.1499413E-02  0.0000000E+00 -0.5050505E-02  0.3739031E-04  0.0000000E+00  0.1541776E-03
  0.2762042E-02  0.0000000E+00 -0.5050505E-02  0.4136426E-04  0.0000000E+00  0.1808319E-03
 -0.5050505E-02  0.0000000E+00 -0.5050505E-02  0.4601033E-04  0.0000000E+00  0.2104639E-03
 -0.5050505E-02  0.0000000E+00 -0.5050505E-02  0.5148898E-04  0.0000000E+00  0.2436105E-03
 -0.5050505E-02  0.0000000E+00 -0.5050505E-02  0.5795321E-04  0.0000000E+00  0.2809150E-03
 -0.5050505E-02  0.0000000E+00 -0.5050505E-02  0.6545351E-04  0.0000000E+00  0.3229529E-03
 -0.5050505E-02  0.0000000E+00 -0.5050505E-02  0.7387620E-04  0.0000000E+00  0.3694149E-03
 -0.5050505E-02  0.0000000E+00 -0.5050505E-02  0.8406933E-04  0.0000000E+00  0.4166080E-03
 -0.5050505E-02  0.0000000E+00 -0.5050505E-02  0.1079233E-03  0.0000000E+00  0.4550909E-03
 -0.5050504E-02  0.0000000E+00 -0.5050505E-02 -0.1139662E-03  0.0000000E+00  0.4516121E-03
 -0.5050501E-02  0.0000000E+00 -0.5050505E-02 -0.8208898E-04  0.0000000E+00  0.4103079E-03
 -0.5050495E-02  0.0000000E+00 -0.5050505E-02 -0.6450030E-04  0.0000000E+00  0.3677531E-03
 -0.5050482E-02  0.0000000E+00 -0.5050505E-02 -0.5337560E-04  0.0000000E+00  0.3299594E-03
 -0.5050449E-02  0.0000000E+00 -0.5050505E-02 -0.4566510E-04  0.0000000E+00  0.2970709E-03
 -0.5050376E-02  0.0000000E+00 -0.5050505E-02 -0.3999681E-04  0.0000000E+00  0.2682373E-03
 -0.5050299E-02  0.0000000E+00 -0.5050505E-02 -0.3565664E-04  0.0000000E+00  0.2426277E-03
 -0.5050178E-02  0.0000000E+00 -0.5050505E-02 -0.3222750E-04  0.0000000E+00  0.2195914E-03
 -0.5050018E-02  0.0000000E+00 -0.5050505E-02 -0.2944596E-04  0.0000000E+00  0.1986427E-03
 -0.5049710E-02  0.0000000E+00 -0.5050505E-02 -0.2713705E-04  0.0000000E+00  0.1794205E-03
 -0.5049253E-02  0.0000000E+00 -0.5050505E-02 -0.2518052E-04  0.0000000E+00  0.1616539E-03
 -0.5048636E-02  0.0000000E+00 -0.5050505E-02 -0.2349155E-04  0.0000000E+00  0.1451365E-03
 -0.5047442E-02  0.0000000E+00 -0.5050505E-02 -0.2200908E-04  0.0000000E+00  0.1297090E-03
 -0.5045727E-02  0.0000000E+00 -0.5050505E-02 -0.2068829E-04  0.0000000E+00  0.1152466E-03
 -0.5043261E-02  0.0000000E+00 -0.5050505E-02 -0.1949571E-04  0.0000000E+00  0.1016503E-03
 -0.5038714E-02  0.0000000E+00 -0.5050505E-02 -0.1840596E-04  0.0000000E+00  0.8884047E-04
 -0.5032318E-02  0.0000000E+00 -0.5050505E-02 -0.1739950E-04  0.0000000E+00  0.7675274E-04
 -0.5022454E-02  0.0000000E+00 -0.5050505E-02 -0.1646111E-04  0.0000000E+00  0.6533432E-04
 -0.5012589E-02  0.0000000E+00 -0.5050505E-02 -0.1557883E-04  0.0000000E+00  0.5454170E-04
 -0.5002725E-02  0.0000000E+00 -0.5050505E-02 -0.1474312E-04  0.0000000E+00  0.4433866E-04
 -0.4992860E-02  0.0000000E+00 -0.5050505E-02 -0.1394639E-04  0.0000000E+00  0.3469487E-04
 -0.4976523E-02  0.0000000E+00 -0.5050505E-02 -0.1318250E-04  0.0000000E+00  0.2558472E-04
 -0.4956794E-02  0.0000000E+00 -0.5050505E-02 -0.1244651E-04  0.0000000E+00  0.1698642E-04
 -0.4937066E-02  0.0000000E+00 -0.5050505E-02 -0.1173439E-04  0.0000000E+00  0.8881309E-05
 -0.4906239E-02  0.0000000E+00 -0.5050505E-02 -0.1104291E-04  0.0000000E+00  0.1256436E-05
 -0.4866782E-02  0.0000000E+00 -0.5050505E-02 -0.1036815E-04  0.0000000E+00 -0.5899954E-05
 -0.4827325E-02  0.0000000E+00 -0.5050505E-02 -0.9709818E-05  0.0000000E+00 -0.1260882E-04
 -0.4769372E-02  0.0000000E+00 -0.5050505E-02 -0.9065994E-05  0.0000000E+00 -0.1888793E-04
 -0.4690458E-02  0.0000000E+00 -0.5050505E-02 -0.8435142E-05  0.0000000E+00 -0.2474534E-04
 -0.4611543E-02  0.0000000E+00 -0.5050505E-02 -0.7816035E-05  0.0000000E+00 -0.3018829E-04
 -0.4503035E-02  0.0000000E+00 -0.5050505E-02 -0.7207734E-05  0.0000000E+00 -0.3522338E-04
 -0.4345206E-02  0.0000000E+00 -0.5050505E-02 -0.6609614E-05  0.0000000E+00 -0.3985671E-04
 -0.4187378E-02  0.0000000E+00 -0.5050505E-02 -0.6021433E-05  0.0000000E+00 -0.4409410E-04
 -0.3985156E-02  0.0000000E+00 -0.5050505E-02 -0.5443502E-05  0.0000000E+00 -0.4794131E-04
 -0.3669499E-02  0.0000000E+00 -0.5050505E-02 -0.4877052E-05  0.0000000E+00 -0.5140436E-04
 -0.3353842E-02  0.0000000E+00 -0.5050505E-02 -0.4324981E-05  0.0000000E+00 -0.5448989E-04
 -0.2978990E-02  0.0000000E+00 -0.5050505E-02 -0.3793501E-05  0.0000000E+00 -0.5720580E-04
 -0.2347676E-02  0.0000000E+00 -0.5050505E-02 -0.3295885E-05  0.0000000E+00 -0.5956140E-04
 -0.1716362E-02  0.0000000E+00 -0.5050505E-02 -0.2861511E-05  0.0000000E+00 -0.6156515E-04
 -0.1025842E-02  0.0000000E+00 -0.5050505E-02 -0.2558922E-05  0.0000000E+00 -0.6320909E-04
  0.2367855E-03  0.0000000E+00 -0.5050505E-02 -0.2557745E-05  0.0000000E+00 -0.6439068E-04
  0.1499413E-02  0.0000000E+00 -0.5050505E-02 -0.3301747E-05  0.0000000E+00 -0.6454691E-04
  0.5287294E-02  0.0000000E+00 -0.5050505E-02 -0.6003898E-05  0.0000000E+00 -0.6096014E-04
 -0.5050505E-02  0.0000000E+00 -0.5050505E-02  0.1818383E-06  0.0000000E+00 -0.1568768E-03
 -0.5050505E-02  0.0000000E+00 -0.5050505E-02  0.5459097E-06  0.0000000E+00 -0.1567281E-03
 -0.5050505E-02  0.0000000E+00 -0.5050505E-02  0.9111714E-06  0.0000000E+00 -0.1564302E-03
 -0.5050505E-02  0.0000000E+00 -0.5050505E-02  0.1278432E-05  0.0000000E+00 -0.1559828E-03
 -0.5050505E-02  0.0000000E+00 -0.5050505E-02  0.1648519E-05  0.0000000E+00 -0.1553847E-03
 -0.5050505E-02  0.0000000E+00 -0.5050505E-02  0.2022286E-05  0.0000000E+00 -0.1546346E-03
 -0.5050504E-02  0.0000000E+00 -0.5050505E-02  0.2400617E-05  0.0000000E+00 -0.1537311E-03
 -0.5050501E-02  0.0000000E+00 -0.5050505E-02  0.2784438E-05  0.0000000E+00 -0.1526721E-03
 -0.5050495E-02  0.0000000E+00 -0.5050505E-02  0.3174722E-05  0.0000000E+00 -0.1514552E-03
 -0.5050482E-02  0.0000000E+00 -0.5050505E-02  0.3572499E-05  0.0000000E+00 -0.1500777E-03
 -0.5050449E-02  0.0000000E+00 -0.5050505E-02  0.3978863E-05  0.0000000E+00 -0.1485365E-03
 -0.5050376E-02  0.0000000E+00 -0.5050505E-02  0.4394984E-05  0.0000000E+00 -0.1468279E-03
 -0.5050299E-02  0.0000000E+00 -0.5050505E-02  0.4822120E-05  0.0000000E+00 -0.1449478E-03
 -0.5050178E-02  0.0000000E+00 -0.5050505E-02  0.5261625E-05  0.0000000E+00 -0.1428917E-03
 -0.5050018E-02  0.0000000E+00 -0.5050505E-02  0.5714965E-05  0.0000000E+00 -0.1406543E-03
 -0.5049710E-02  0.0000000E+00 -0.5050505E-02  0.6183734E-05  0.0000000E+00 -0.1382300E-03
 -0.5049253E-02  0.0000000E+00 -0.5050505E-02  0.6669663E-05  0.0000000E+00 -0.1356124E-03
 -0.5048636E-02  0.0000000E+00 -0.5050505E-02  0.7174649E-05  0.0000000E+00 -0.1327942E-03
 -0.5047442E-02  0.0000000E+00 -0.5050505E-02  0.7700764E-05  0.0000000E+00 -0.1297677E-03
 -0.5045727E-02  0.0000000E+00 -0.5050505E-02  0.8250287E-05  0.0000000E+00 -0.1265242E-03
 -0.5043261E-02  0.0000000E+00 -0.5050505E-02  0.8825721E-05  0.0000000E+00 -0.1230539E-03
 -0.5038714E-02  0.0000000E+00 -0.5050505E-02  0.9429830E-05  0.0000000E+00 -0.1193462E-03
 -0.5032318E-02  0.0000000E+00 -0.5050505E-02  0.1006567E-04  0.0000000E+00 -0.1153893E-03
 -0.5022454E-02  0.0000000E+00 -0.5050505E-02  0.1073661E-04  0.0000000E+00 -0.1111702E-03
 -0.5012589E-02  0.0000000E+00 -0.5050505E-02  0.1144641E-04  0.0000000E+00 -0.1066744E-03
 -0.5002725E-02  0.0000000E+00 -0.5050505E-02  0.1219925E-04  0.0000000E+00 -0.1018860E-03
 -0.4992860E-02  0.0000000E+00 -0.5050505E-02  0.1299978E-04  0.0000000E+00 -0.9678747E-04
 -0.4976523E-02  0.0000000E+00 -0.5050505E-02  0.1385320E-04  0.0000000E+00 -0.9135923E-04
 -0.4956794E-02  0.0000000E+00 -0.5050505E-02  0.1476533E-04  0.0000000E+00 -0.8557971E-04
 -0.4937066E-02  0.0000000E+00 -0.5050505E-02  0.1574273E-04  0.0000000E+00 -0.7942498E-04
 -0.4906239E-02  0.0000000E+00 -0.5050505E-02  0.1679276E-04  0.0000000E+00 -0.7286848E-04
 -0.4866782E-02  0.0000000E+00 -0.5050505E-02  0.1792376E-04  0.0000000E+00 -0.6588072E-04
 -0.4827325E-02  0.0000000E+00 -0.5050505E-02  0.1914517E-04  0.0000000E+00 -0.5842887E-04
 -0.4769372E-02  0.0000000E+00 -0.5050505E-02  0.2046772E-04  0.0000000E+00 -0.5047636E-04
 -0.4690458E-02  0.0000000E+00 -0.5050505E-02  0.2190364E-04  0.0000000E+00 -0.4198235E-04
 -0.4611543E-02  0.0000000E+00 -0.5050505E-02  0.2346693E-04  0.0000000E+00 -0.3290121E-04
 -0.4503035E-02  0.0000000E+00 -0.5050505E-02  0.2517365E-04  0.0000000E+00 -0.2318178E-04
 -0.4345206E-02  0.0000000E+00 -0.5050505E-02  0.2704229E-04  0.0000000E+00 -0.1276665E-04
 -0.4187378E-02  0.0000000E+00 -0.5050505E-02  0.2909421E-04  0.0000000E+00 -0.1584023E-05
 -0.3985156E-02  0.0000000E+00 -0.5050505E-02  0.3135434E-04  0.0000000E+00  0.1046594E-04
 -0.3669499E-02  0.0000000E+00 -0.5050505E-02  0.3385212E-04  0.0000000E+00  0.2348279E-04
 -0.3353842E-02  0.0000000E+00 -0.5050505E-02  0.3662200E-04  0.0000000E+00  0.3756313E-04
 -0.2978990E-02  0.0000000E+00 -0.5050505E-02  0.3970463E-04  0.0000000E+00  0.5282616E-04
 -0.2347676E-02  0.0000000E+00 -0.5050505E-02  0.4314844E-04  0.0000000E+00  0.6940885E-04
 -0.1716362E-02  0.0000000E+00 -0.5050505E-02  0.4701203E-04  0.0000000E+00  0.8746895E-04
 -0.1025842E-02  0.0000000E+00 -0.5050505E-02  0.5136780E-04  0.0000000E+00  0.1071888E-03
  0.2367855E-03  0.0000000E+00 -0.5050505E-02  0.5630776E-04  0.0000000E+00  0.1287809E-03
  0.1499413E-02  0.0000000E+00 -0.5050505E-02  0.6195280E-04  0.0000000E+00  0.1524956E-03
  0.2762042E-02  0.0000000E+00 -0.5050505E-02  0.6846680E-04  0.0000000E+00  0.1786364E-03
 -0.5050505E-02  0.0000000E+00 -0.5050505E-02  0.7607536E-04  0.0000000E+00  0.2075897E-03
 -0.5050505E-02  0.0000000E+00 -0.5050505E-02  0.8507995E-04  0.0000000E+00  0.2398843E-03
 -0.5050505E-02  0.0000000E+00 -0.5050505E-02  0.9581827E-04  0.0000000E+00  0.2762982E-03
 -0.5050505E-02  0.0000000E+00 -0.5050505E-02  0.1083603E-03  0.0000000E+00  0.3179184E-03
 -0.5050505E-02  0.0000000E+00 -0.5050505E-02  0.1210629E-03  0.0000000E+00  0.3651938E-03
 -0.5050505E-02  0.0000000E+00 -0.5050505E-02  0.1242990E-03  0.0000000E+00  0.4094783E-03
 -0.5050505E-02  0.0000000E+00 -0.5050505E-02  0.1272206E-03  0.0000000E+00  0.4338572E-03
 -0.5050504E-02  0.0000000E+00 -0.5050505E-02 -0.1457743E-03  0.0000000E+00  0.4243287E-03
 -0.5050501E-02  0.0000000E+00 -0.5050505E-02 -0.1204850E-03  0.0000000E+00  0.3917296E-03
 -0.5050495E-02  0.0000000E+00 -0.5050505E-02 -0.1005169E-03  0.0000000E+00  0.3563357E-03
 -0.5050482E-02  0.0000000E+00 -0.5050505E-02 -0.8547211E-04  0.0000000E+00  0.3230512E-03
 -0.5050449E-02  0.0000000E+00 -0.5050505E-02 -0.7413492E-04  0.0000000E+00  0.2929493E-03
 -0.5050376E-02  0.0000000E+00 -0.5050505E-02 -0.6544825E-04  0.0000000E+00  0.2658737E-03
 -0.5050299E-02  0.0000000E+00 -0.5050505E-02 -0.5864444E-04  0.0000000E+00  0.2413973E-03
 -0.5050178E-02  0.0000000E+00 -0.5050505E-02 -0.5319180E-04  0.0000000E+00  0.2191025E-03
 -0.5050018E-02  0.0000000E+00 -0.5050505E-02 -0.4872413E-04  0.0000000E+00  0.1986434E-03
 -0.5049710E-02  0.0000000E+00 -0.5050505E-02 -0.4498692E-04  0.0000000E+00  0.1797453E-03
 -0.5049253E-02  0.0000000E+00 -0.5050505E-02 -0.4180065E-04  0.0000000E+00  0.1621924E-03
 -0.5048636E-02  0.0000000E+00 -0.5050505E-02 -0.3903660E-04  0.0000000E+00  0.1458140E-03
 -0.5047442E-02  0.0000000E+00 -0.5050505E-02 -0.3660096E-04  0.0000000E+00  0.1304747E-03
 -0.5045727E-02  0.0000000E+00 -0.5050505E-02 -0.3442415E-04  0.0000000E+00  0.1160652E-03
 -0.5043261E-02  0.0000000E+00 -0.5050505E-02 -0.3245378E-04  0.0000000E+00  0.1024974E-03
 -0.5038714E-02  0.0000000E+00 -0.5050505E-02 -0.3064978E-04  0.0000000E+00  0.8969912E-04
 -0.5032318E-02  0.0000000E+00 -0.5050505E-02 -0.2898107E-04  0.0000000E+00  0.7761094E-04
 -0.5022454E-02  0.0000000E+00 -0.5050505E-02 -0.2742333E-04  0.0000000E+00  0.6618376E-04
 -0.5012589E-02  0.0000000E+00 -0.5050505E-02 -0.2595729E-04  0.0000000E+00  0.5537660E-04
 -0.5002725E-02  0.0000000E+00 -0.5050505E-02 -0.2456757E-04  0.0000000E+00  0.4515515E-04
 -0.4992860E-02  0.0000000E+00 -0.5050505E-02 -0.2324184E-04  0.0000000E+00  0.3549043E-04
 -0.4976523E-02  0.0000000E+00 -0.5050505E-02 -0.2197014E-04  0.0000000E+00  0.2635787E-04
 -0.4956794E-02  0.0000000E+00 -0.5050505E-02 -0.2074440E-04  0.0000000E+00  0.1773645E-04
 -0.4937066E-02  0.0000000E+00 -0.5050505E-02 -0.1955805E-04  0.0000000E+00  0.9608089E-05
 -0.4906239E-02  0.0000000E+00 -0.5050505E-02 -0.1840586E-04  0.0000000E+00  0.1959423E-05
 -0.4866782E-02  0.0000000E+00 -0.5050505E-02 -0.1728137E-04  0.0000000E+00 -0.5219640E-05
 -0.4827325E-02  0.0000000E+00 -0.5050505E-02 -0.1618392E-04  0.0000000E+00 -0.1194896E-04
 -0.4769372E-02  0.0000000E+00 -0.5050505E-02 -0.1511050E-04  0.0000000E+00 -0.1824741E-04
 -0.4690458E-02  0.0000000E+00 -0.5050505E-02 -0.1405858E-04  0.0000000E+00 -0.2412284E-04
 -0.4611543E-02  0.0000000E+00 -0.5050505E-02 -0.1302609E-04  0.0000000E+00 -0.2958227E-04
 -0.4503035E-02  0.0000000E+00 -0.5050505E-02 -0.1201144E-04  0.0000000E+00 -0.3463206E-04
 -0.4345206E-02  0.0000000E+00 -0.5050505E-02 -0.1101345E-04  0.0000000E+00 -0.3927801E-04
 -0.4187378E-02  0.0000000E+00 -0.5050505E-02 -0.1003150E-04  0.0000000E+00 -0.4352546E-04
 -0.3985156E-02  0.0000000E+00 -0.5050505E-02 -0.9065690E-05  0.0000000E+00 -0.4737935E-04
 -0.3669499E-02  0.0000000E+00 -0.5050505E-02 -0.8117150E-05  0.0000000E+00 -0.5084422E-04
 -0.3353842E-02  0.0000000E+00 -0.5050505E-02 -0.7188762E-05  0.0000000E+00 -0.5392397E-04
 -0.2978990E-02  0.0000000E+00 -0.5050505E-02 -0.6286390E-05  0.0000000E+00 -0.5662110E-04
 -0.2347676E-02  0.0000000E+00 -0.5050505E-02 -0.5421139E-05  0.0000000E+00 -0.5893431E-04
 -0.1716362E-02  0.0000000E+00 -0.5050505E-02 -0.4613057E-05  0.0000000E+00 -0.6085181E-04
 -0.1025842E-02  0.0000000E+00 -0.5050505E-02 -0.3895346E-05  0.0000000E+00 -0.6233363E-04
  0.2367855E-03  0.0000000E+00 -0.5050505E-02 -0.3309313E-05  0.0000000E+00 -0.6327026E-04
  0.1499413E-02  0.0000000E+00 -0.5050505E-02 -0.2835763E-05  0.0000000E+00 -0.6341886E-04
  0.5287294E-02  0.0000000E+00 -0.5050505E-02 -0.2003227E-05  0.0000000E+00 -0.6253550E-04
 -0.5050505E-02  0.0000000E+00 -0.5050505E-02  0.2543555E-06  0.0000000E+00 -0.1562367E-03
 -0.5050505E-02  0.0000000E+00 -0.5050505E-02  0.7636177E-06  0.0000000E+00 -0.1560878E-03
 -0.5050505E-02  0.0000000E+00 -0.5050505E-02  0.1274540E-05  0.0000000E+00 -0.1557896E-03
 -0.5050505E-02  0.0000000E+00 -0.5050505E-02  0.1788250E-05  0.0000000E+00 -0.1553417E-03
 -0.5050505E-02  0.0000000E+00 -0.5050505E-02  0.2305900E-05  0.0000000E+00 -0.1547429E-03
 -0.5050505E-02  0.0000000E+00 -0.5050505E-02  0.2828678E-05  0.0000000E+00 -0.1539921E-03
 -0.5050504E-02  0.0000000E+00 -0.5050505E-02  0.3357816E-05  0.0000000E+00 -0.1530877E-03
 -0.5050501E-02  0.0000000E+00 -0.5050505E-02  0.3894603E-05  0.0000000E+00 -0.1520278E-03
 -0.5050495E-02  0.0000000E+00 -0.5050505E-02  0.4440392E-05  0.0000000E+00 -0.1508099E-03
 -0.5050482E-02  0.0000000E+00 -0.5050505E-02  0.4996618E-05  0.0000000E+00 -0.1494315E-03
 -0.5050449E-02  0.0000000E+00 -0.5050505E-02  0.5564803E-05  0.0000000E+00 -0.1478893E-03
 -0.5050376E-02  0.0000000E+00 -0.5050505E-02  0.6146577E-05  0.0000000E+00 -0.1461798E-03
 -0.5050299E-02  0.0000000E+00 -0.5050505E-02  0.6743688E-05  0.0000000E+00 -0.1442991E-03
 -0.5050178E-02  0.0000000E+00 -0.5050505E-02  0.7358021E-05  0.0000000E+00 -0.1422425E-03
 -0.5050018E-02  0.0000000E+00 -0.5050505E-02  0.7991617E-05  0.0000000E+00 -0.1400049E-03
 -0.5049710E-02  0.0000000E+00 -0.5050505E-02  0.8646692E-05  0.0000000E+00 -0.1375808E-03
 -0.5049253E-02  0.0000000E+00 -0.5050505E-02  0.9325656E-05  0.0000000E+00 -0.1349639E-03
 -0.5048636E-02  0.0000000E+00 -0.5050505E-02  0.1003115E-04  0.0000000E+00 -0.1321470E-03
 -0.5047442E-02  0.0000000E+00 -0.5050505E-02  0.1076605E-04  0.0000000E+00 -0.1291225E-03
 -0.5045727E-02  0.0000000E+00 -0.5050505E-02  0.1153352E-04  0.0000000E+00 -0.1258818E-03
 -0.5043261E-02  0.0000000E+00 -0.5050505E-02  0.1233706E-04  0.0000000E+00 -0.1224153E-03
 -0.5038714E-02  0.0000000E+00 -0.5050505E-02  0.1318050E-04  0.0000000E+00 -0.1187126E-03
 -0.5032318E-02  0.0000000E+00 -0.5050505E-02  0.1406808E-04  0.0000000E+00 -0.1147621E-03
 -0.5022454E-02  0.0000000E+00 -0.5050505E-02  0.1500451E-04  0.0000000E+00 -0.1105510E-03
 -0.5012589E-02  0.0000000E+00 -0.5050505E-02  0.1599500E-04  0.0000000E+00 -0.1060651E-03
 -0.5002725E-02  0.0000000E+00 -0.5050505E-02  0.1704535E-04  0.0000000E+00 -0.1012887E-03
 -0.4992860E-02  0.0000000E+00 -0.5050505E-02  0.1816203E-04  0.0000000E+00 -0.9620459E-04
 -0.4976523E-02  0.0000000E+00 -0.5050505E-02  0.1935226E-04  0.0000000E+00 -0.9079365E-04
 -0.4956794E-02  0.0000000E+00 -0.5050505E-02  0.2062413E-04  0.0000000E+00 -0.8503469E-04
 -0.4937066E-02  0.0000000E+00 -0.5050505E-02  0.2198673E-04  0.0000000E+00 -0.7890428E-04