title = "dataset feddes"
variables = "x", "y", "z", "vx", "vy", "vz"
zone t = "velocities, solution time =  2.400E+01 days        " i =   99, j =   99, k =    1,  f=point
 -0.5050505E-02  0.0000000E+00 -0.5050505E-02  0.1332338E-08  0.0000000E+00 -0.3651937E-03
 -0.5050505E-02  0.0000000E+00 -0.5050505E-02  0.3995602E-08  0.0000000E+00 -0.3651882E-03
 -0.5050505E-02  0.0000000E+00 -0.5050505E-02  0.6654618E-08  0.0000000E+00 -0.3651771E-03
 -0.5050505E-02  0.0000000E+00 -0.5050505E-02  0.9306546E-08  0.0000000E+00 -0.3651604E-03
 -0.5050505E-02  0.0000000E+00 -0.5050505E-02  0.1194854E-07  0.0000000E+00 -0.3651382E-03
 -0.5050505E-02  0.0000000E+00 -0.5050505E-02  0.1457774E-07  0.0000000E+00 -0.3651105E-03
 -0.5050504E-02  0.0000000E+00 -0.5050505E-02  0.1719126E-07  0.0000000E+00 -0.3650774E-03
 -0.5050501E-02  0.0000000E+00 -0.5050505E-02  0.1978619E-07  0.0000000E+00 -0.3650388E-03
 -0.5050495E-02  0.0000000E+00 -0.5050505E-02  0.2235962E-07  0.0000000E+00 -0.3649948E-03
 -0.5050482E-02  0.0000000E+00 -0.5050505E-02  0.2490857E-07  0.0000000E+00 -0.3649455E-03
 -0.5050449E-02  0.0000000E+00 -0.5050505E-02  0.2743003E-07  0.0000000E+00 -0.3648909E-03
 -0.5050376E-02  0.0000000E+00 -0.5050505E-02  0.2992097E-07  0.0000000E+00 -0.3648310E-03
 -0.5050299E-02  0.0000000E+00 -0.5050505E-02  0.3237828E-07  0.0000000E+00 -0.3647660E-03
 -0.5050178E-02  0.0000000E+00 -0.5050505E-02  0.3479881E-07  0.0000000E+00 -0.3646959E-03
 -0.5050018E-02  0.0000000E+00 -0.5050505E-02  0.3717933E-07  0.0000000E+00 -0.3646208E-03
 -0.5049710E-02  0.0000000E+00 -0.5050505E-02  0.3951654E-07  0.0000000E+00 -0.3645408E-03
 -0.5049253E-02  0.0000000E+00 -0.5050505E-02  0.4180706E-07  0.0000000E+00 -0.3644559E-03
 -0.5048636E-02  0.0000000E+00 -0.5050505E-02  0.4404740E-07  0.0000000E+00 -0.3643663E-03
 -0.5047442E-02  0.0000000E+00 -0.5050505E-02  0.4623395E-07  0.0000000E+00 -0.3642721E-03
 -0.5045727E-02  0.0000000E+00 -0.5050505E-02  0.4836298E-07  0.0000000E+00 -0.3641734E-03
 -0.5043261E-02  0.0000000E+00 -0.5050505E-02  0.5043059E-07  0.0000000E+00 -0.3640703E-03
 -0.5038714E-02  0.0000000E+00 -0.5050505E-02  0.5243272E-07  0.0000000E+00 -0.3639630E-03
 -0.5032318E-02  0.0000000E+00 -0.5050505E-02  0.5436509E-07  0.0000000E+00 -0.3638515E-03
 -0.5022454E-02  0.0000000E+00 -0.5050505E-02  0.5622319E-07  0.0000000E+00 -0.3637362E-03
 -0.5012589E-02  0.0000000E+00 -0.5050505E-02  0.5800221E-07  0.0000000E+00 -0.3636170E-03
 -0.5002725E-02  0.0000000E+00 -0.5050505E-02  0.5969707E-07  0.0000000E+00 -0.3634942E-03
 -0.4992860E-02  0.0000000E+00 -0.5050505E-02  0.6130227E-07  0.0000000E+00 -0.3633679E-03
 -0.4976523E-02  0.0000000E+00 -0.5050505E-02  0.6281193E-07  0.0000000E+00 -0.3632384E-03
 -0.4956794E-02  0.0000000E+00 -0.5050505E-02  0.6421969E-07  0.0000000E+00 -0.3631059E-03
 -0.4937066E-02  0.0000000E+00 -0.5050505E-02  0.6551864E-07  0.0000000E+00 -0.3629705E-03
 -0.4906239E-02  0.0000000E+00 -0.5050505E-02  0.6670128E-07  0.0000000E+00 -0.3628326E-03
 -0.4866782E-02  0.0000000E+00 -0.5050505E-02  0.6775943E-07  0.0000000E+00 -0.3626923E-03
 -0.4827325E-02  0.0000000E+00 -0.5050505E-02  0.6868416E-07  0.0000000E+00 -0.3625499E-03
 -0.4769372E-02  0.0000000E+00 -0.5050505E-02  0.6946576E-07  0.0000000E+00 -0.3624058E-03
 -0.4690458E-02  0.0000000E+00 -0.5050505E-02  0.7009360E-07  0.0000000E+00 -0.3622602E-03
 -0.4611543E-02  0.0000000E+00 -0.5050505E-02  0.7055615E-07  0.0000000E+00 -0.3621135E-03
 -0.4503035E-02  0.0000000E+00 -0.5050505E-02  0.7084089E-07  0.0000000E+00 -0.3619660E-03
 -0.4345206E-02  0.0000000E+00 -0.5050505E-02  0.7093432E-07  0.0000000E+00 -0.3618181E-03
 -0.4187378E-02  0.0000000E+00 -0.5050505E-02  0.7082194E-07  0.0000000E+00 -0.3616702E-03
 -0.3985156E-02  0.0000000E+00 -0.5050505E-02  0.7048829E-07  0.0000000E+00 -0.3615228E-03
 -0.3669499E-02  0.0000000E+00 -0.5050505E-02  0.6991706E-07  0.0000000E+00 -0.3613763E-03
 -0.3353842E-02  0.0000000E+00 -0.5050505E-02  0.6909122E-07  0.0000000E+00 -0.3612313E-03
 -0.2978990E-02  0.0000000E+00 -0.5050505E-02  0.6799324E-07  0.0000000E+00 -0.3610883E-03
 -0.2347676E-02  0.0000000E+00 -0.5050505E-02  0.6660534E-07  0.0000000E+00 -0.3609479E-03
 -0.1716362E-02  0.0000000E+00 -0.5050505E-02  0.6490990E-07  0.0000000E+00 -0.3608108E-03
 -0.1025842E-02  0.0000000E+00 -0.5050505E-02  0.6288990E-07  0.0000000E+00 -0.3606774E-03
  0.2367855E-03  0.0000000E+00 -0.5050505E-02  0.6052949E-07  0.0000000E+00 -0.3605487E-03
  0.1499413E-02  0.0000000E+00 -0.5050505E-02  0.5781463E-07  0.0000000E+00 -0.3604253E-03
  0.2762042E-02  0.0000000E+00 -0.5050505E-02  0.5473381E-07  0.0000000E+00 -0.3603079E-03
 -0.5050505E-02  0.0000000E+00 -0.5050505E-02  0.5127887E-07  0.0000000E+00 -0.3601973E-03
 -0.5050505E-02  0.0000000E+00 -0.5050505E-02  0.4744582E-07  0.0000000E+00 -0.3600943E-03
 -0.5050505E-02  0.0000000E+00 -0.5050505E-02  0.4323568E-07  0.0000000E+00 -0.3599998E-03
 -0.5050505E-02  0.0000000E+00 -0.5050505E-02  0.3865528E-07  0.0000000E+00 -0.3599144E-03
 -0.5050505E-02  0.0000000E+00 -0.5050505E-02  0.3371799E-07  0.0000000E+00 -0.3598389E-03
 -0.5050505E-02  0.0000000E+00 -0.5050505E-02  0.2844422E-07  0.0000000E+00 -0.3597740E-03
 -0.5050505E-02  0.0000000E+00 -0.5050505E-02  0.2286183E-07  0.0000000E+00 -0.3597205E-03
 -0.5050504E-02  0.0000000E+00 -0.5050505E-02  0.1700615E-07  0.0000000E+00 -0.3596789E-03
 -0.5050501E-02  0.0000000E+00 -0.5050505E-02  0.1091983E-07  0.0000000E+00 -0.3596498E-03
 -0.5050495E-02  0.0000000E+00 -0.5050505E-02  0.4652226E-08  0.0000000E+00 -0.3596336E-03
 -0.5050482E-02  0.0000000E+00 -0.5050505E-02 -0.1741395E-08  0.0000000E+00 -0.3596305E-03
 -0.5050449E-02  0.0000000E+00 -0.5050505E-02 -0.8201096E-08  0.0000000E+00 -0.3596409E-03
 -0.5050376E-02  0.0000000E+00 -0.5050505E-02 -0.1466370E-07  0.0000000E+00 -0.3596648E-03
 -0.5050299E-02  0.0000000E+00 -0.5050505E-02 -0.2106444E-07  0.0000000E+00 -0.3597020E-03
 -0.5050178E-02  0.0000000E+00 -0.5050505E-02 -0.2733869E-07  0.0000000E+00 -0.3597525E-03
 -0.5050018E-02  0.0000000E+00 -0.5050505E-02 -0.3342376E-07  0.0000000E+00 -0.3598159E-03
 -0.5049710E-02  0.0000000E+00 -0.5050505E-02 -0.3926056E-07  0.0000000E+00 -0.3598917E-03
 -0.5049253E-02  0.0000000E+00 -0.5050505E-02 -0.4479514E-07  0.0000000E+00 -0.3599794E-03
 -0.5048636E-02  0.0000000E+00 -0.5050505E-02 -0.4998004E-07  0.0000000E+00 -0.3600782E-03
 -0.5047442E-02  0.0000000E+00 -0.5050505E-02 -0.5477530E-07  0.0000000E+00 -0.3601875E-03
 -0.5045727E-02  0.0000000E+00 -0.5050505E-02 -0.5914927E-07  0.0000000E+00 -0.3603063E-03
 -0.5043261E-02  0.0000000E+00 -0.5050505E-02 -0.6307915E-07  0.0000000E+00 -0.3604338E-03
 -0.5038714E-02  0.0000000E+00 -0.5050505E-02 -0.6655127E-07  0.0000000E+00 -0.3605690E-03
 -0.5032318E-02  0.0000000E+00 -0.5050505E-02 -0.6956118E-07  0.0000000E+00 -0.3607110E-03
 -0.5022454E-02  0.0000000E+00 -0.5050505E-02 -0.7211370E-07  0.0000000E+00 -0.3608587E-03
 -0.5012589E-02  0.0000000E+00 -0.5050505E-02 -0.7422294E-07  0.0000000E+00 -0.3610114E-03
 -0.5002725E-02  0.0000000E+00 -0.5050505E-02 -0.7591239E-07  0.0000000E+00 -0.3611680E-03
 -0.4992860E-02  0.0000000E+00 -0.5050505E-02 -0.7721528E-07  0.0000000E+00 -0.3613277E-03
 -0.4976523E-02  0.0000000E+00 -0.5050505E-02 -0.7817538E-07  0.0000000E+00 -0.3614898E-03
 -0.4956794E-02  0.0000000E+00 -0.5050505E-02 -0.7884842E-07  0.0000000E+00 -0.3616536E-03
 -0.4937066E-02  0.0000000E+00 -0.5050505E-02 -0.7930454E-07  0.0000000E+00 -0.3618186E-03
 -0.4906239E-02  0.0000000E+00 -0.5050505E-02 -0.7963220E-07  0.0000000E+00 -0.3619844E-03
 -0.4866782E-02  0.0000000E+00 -0.5050505E-02 -0.7994443E-07  0.0000000E+00 -0.3621509E-03
 -0.4827325E-02  0.0000000E+00 -0.5050505E-02 -0.8038870E-07  0.0000000E+00 -0.3623181E-03
 -0.4769372E-02  0.0000000E+00 -0.5050505E-02 -0.8116244E-07  0.0000000E+00 -0.3624867E-03
 -0.4690458E-02  0.0000000E+00 -0.5050505E-02 -0.8253816E-07  0.0000000E+00 -0.3626575E-03
 -0.4611543E-02  0.0000000E+00 -0.5050505E-02 -0.8490467E-07  0.0000000E+00 -0.3628321E-03
 -0.4503035E-02  0.0000000E+00 -0.5050505E-02 -0.8883681E-07  0.0000000E+00 -0.3630134E-03
 -0.4345206E-02  0.0000000E+00 -0.5050505E-02 -0.9521757E-07  0.0000000E+00 -0.3632054E-03
 -0.4187378E-02  0.0000000E+00 -0.5050505E-02 -0.1054608E-06  0.0000000E+00 -0.3634148E-03
 -0.3985156E-02  0.0000000E+00 -0.5050505E-02 -0.1219376E-06  0.0000000E+00 -0.3636521E-03
 -0.3669499E-02  0.0000000E+00 -0.5050505E-02 -0.1488388E-06  0.0000000E+00 -0.3639346E-03
 -0.3353842E-02  0.0000000E+00 -0.5050505E-02 -0.1940383E-06  0.0000000E+00 -0.3642924E-03
 -0.2978990E-02  0.0000000E+00 -0.5050505E-02 -0.2734313E-06  0.0000000E+00 -0.3647802E-03
 -0.2347676E-02  0.0000000E+00 -0.5050505E-02 -0.4219325E-06  0.0000000E+00 -0.3655058E-03
 -0.1716362E-02  0.0000000E+00 -0.5050505E-02 -0.7240590E-06  0.0000000E+00 -0.3667018E-03
 -0.1025842E-02  0.0000000E+00 -0.5050505E-02 -0.1407567E-05  0.0000000E+00 -0.3689268E-03
  0.2367855E-03  0.0000000E+00 -0.5050505E-02 -0.3158419E-05  0.0000000E+00 -0.3736941E-03
  0.1499413E-02  0.0000000E+00 -0.5050505E-02 -0.8275938E-05  0.0000000E+00 -0.3856398E-03
  0.5287294E-02  0.0000000E+00 -0.5050505E-02 -0.1357482E-03  0.0000000E+00 -0.3076106E-03
 -0.5050505E-02  0.0000000E+00 -0.5050505E-02  0.4004832E-08  0.0000000E+00 -0.3649371E-03
 -0.5050505E-02  0.0000000E+00 -0.5050505E-02  0.1201026E-07  0.0000000E+00 -0.3649315E-03
 -0.5050505E-02  0.0000000E+00 -0.5050505E-02  0.2000296E-07  0.0000000E+00 -0.3649203E-03
 -0.5050505E-02  0.0000000E+00 -0.5050505E-02  0.2797441E-07  0.0000000E+00 -0.3649035E-03
 -0.5050505E-02  0.0000000E+00 -0.5050505E-02  0.3591607E-07  0.0000000E+00 -0.3648812E-03
 -0.5050505E-02  0.0000000E+00 -0.5050505E-02  0.4381937E-07  0.0000000E+00 -0.3648533E-03
 -0.5050504E-02  0.0000000E+00 -0.5050505E-02  0.5167567E-07  0.0000000E+00 -0.3648199E-03
 -0.5050501E-02  0.0000000E+00 -0.5050505E-02  0.5947626E-07  0.0000000E+00 -0.3647811E-03
 -0.5050495E-02  0.0000000E+00 -0.5050505E-02  0.6721235E-07  0.0000000E+00 -0.3647368E-03
 -0.5050482E-02  0.0000000E+00 -0.5050505E-02  0.7487506E-07  0.0000000E+00 -0.3646871E-03
 -0.5050449E-02  0.0000000E+00 -0.5050505E-02  0.8245538E-07  0.0000000E+00 -0.3646321E-03
 -0.5050376E-02  0.0000000E+00 -0.5050505E-02  0.8994418E-07  0.0000000E+00 -0.3645718E-03
 -0.5050299E-02  0.0000000E+00 -0.5050505E-02  0.9733216E-07  0.0000000E+00 -0.3645063E-03
 -0.5050178E-02  0.0000000E+00 -0.5050505E-02  0.1046099E-06  0.0000000E+00 -0.3644357E-03
 -0.5050018E-02  0.0000000E+00 -0.5050505E-02  0.1117676E-06  0.0000000E+00 -0.3643600E-03
 -0.5049710E-02  0.0000000E+00 -0.5050505E-02  0.1187956E-06  0.0000000E+00 -0.3642794E-03
 -0.5049253E-02  0.0000000E+00 -0.5050505E-02  0.1256836E-06  0.0000000E+00 -0.3641939E-03
 -0.5048636E-02  0.0000000E+00 -0.5050505E-02  0.1324211E-06  0.0000000E+00 -0.3641036E-03
 -0.5047442E-02  0.0000000E+00 -0.5050505E-02  0.1389975E-06  0.0000000E+00 -0.3640087E-03
 -0.5045727E-02  0.0000000E+00 -0.5050505E-02  0.1454014E-06  0.0000000E+00 -0.3639092E-03
 -0.5043261E-02  0.0000000E+00 -0.5050505E-02  0.1516212E-06  0.0000000E+00 -0.3638053E-03
 -0.5038714E-02  0.0000000E+00 -0.5050505E-02  0.1576448E-06  0.0000000E+00 -0.3636971E-03
 -0.5032318E-02  0.0000000E+00 -0.5050505E-02  0.1634594E-06  0.0000000E+00 -0.3635848E-03
 -0.5022454E-02  0.0000000E+00 -0.5050505E-02  0.1690513E-06  0.0000000E+00 -0.3634685E-03
 -0.5012589E-02  0.0000000E+00 -0.5050505E-02  0.1744063E-06  0.0000000E+00 -0.3633484E-03
 -0.5002725E-02  0.0000000E+00 -0.5050505E-02  0.1795091E-06  0.0000000E+00 -0.3632245E-03
 -0.4992860E-02  0.0000000E+00 -0.5050505E-02  0.1843433E-06  0.0000000E+00 -0.3630972E-03
 -0.4976523E-02  0.0000000E+00 -0.5050505E-02  0.1888912E-06  0.0000000E+00 -0.3629667E-03
 -0.4956794E-02  0.0000000E+00 -0.5050505E-02  0.1931338E-06  0.0000000E+00 -0.3628330E-03
 -0.4937066E-02  0.0000000E+00 -0.5050505E-02  0.1970503E-06  0.0000000E+00 -0.3626964E-03
 -0.4906239E-02  0.0000000E+00 -0.5050505E-02  0.2006184E-06  0.0000000E+00 -0.3625573E-03
 -0.4866782E-02  0.0000000E+00 -0.5050505E-02  0.2038134E-06  0.0000000E+00 -0.3624157E-03
 -0.4827325E-02  0.0000000E+00 -0.5050505E-02  0.2066087E-06  0.0000000E+00 -0.3622720E-03
 -0.4769372E-02  0.0000000E+00 -0.5050505E-02  0.2089749E-06  0.0000000E+00 -0.3621265E-03
 -0.4690458E-02  0.0000000E+00 -0.5050505E-02  0.2108803E-06  0.0000000E+00 -0.3619795E-03
 -0.4611543E-02  0.0000000E+00 -0.5050505E-02  0.2122902E-06  0.0000000E+00 -0.3618313E-03
 -0.4503035E-02  0.0000000E+00 -0.5050505E-02  0.2131669E-06  0.0000000E+00 -0.3616823E-03
 -0.4345206E-02  0.0000000E+00 -0.5050505E-02  0.2134697E-06  0.0000000E+00 -0.3615329E-03
 -0.4187378E-02  0.0000000E+00 -0.5050505E-02  0.2131549E-06  0.0000000E+00 -0.3613834E-03
 -0.3985156E-02  0.0000000E+00 -0.5050505E-02  0.2121761E-06  0.0000000E+00 -0.3612343E-03
 -0.3669499E-02  0.0000000E+00 -0.5050505E-02  0.2104838E-06  0.0000000E+00 -0.3610862E-03
 -0.3353842E-02  0.0000000E+00 -0.5050505E-02  0.2080266E-06  0.0000000E+00 -0.3609394E-03
 -0.2978990E-02  0.0000000E+00 -0.5050505E-02  0.2047513E-06  0.0000000E+00 -0.3607947E-03
 -0.2347676E-02  0.0000000E+00 -0.5050505E-02  0.2006042E-06  0.0000000E+00 -0.3606525E-03
 -0.1716362E-02  0.0000000E+00 -0.5050505E-02  0.1955315E-06  0.0000000E+00 -0.3605135E-03
 -0.1025842E-02  0.0000000E+00 -0.5050505E-02  0.1894815E-06  0.0000000E+00 -0.3603783E-03
  0.2367855E-03  0.0000000E+00 -0.5050505E-02  0.1824058E-06  0.0000000E+00 -0.3602477E-03
  0.1499413E-02  0.0000000E+00 -0.5050505E-02  0.1742612E-06  0.0000000E+00 -0.3601224E-03
  0.2762042E-02  0.0000000E+00 -0.5050505E-02  0.1650123E-06  0.0000000E+00 -0.3600032E-03
 -0.5050505E-02  0.0000000E+00 -0.5050505E-02  0.1546336E-06  0.0000000E+00 -0.3598908E-03
 -0.5050505E-02  0.0000000E+00 -0.5050505E-02  0.1431122E-06  0.0000000E+00 -0.3597860E-03
 -0.5050505E-02  0.0000000E+00 -0.5050505E-02  0.1304502E-06  0.0000000E+00 -0.3596897E-03
 -0.5050505E-02  0.0000000E+00 -0.5050505E-02  0.1166675E-06  0.0000000E+00 -0.3596027E-03
 -0.5050505E-02  0.0000000E+00 -0.5050505E-02  0.1018037E-06  0.0000000E+00 -0.3595257E-03
 -0.5050505E-02  0.0000000E+00 -0.5050505E-02  0.8591977E-07  0.0000000E+00 -0.3594595E-03
 -0.5050505E-02  0.0000000E+00 -0.5050505E-02  0.6909942E-07  0.0000000E+00 -0.3594048E-03
 -0.5050504E-02  0.0000000E+00 -0.5050505E-02  0.5144922E-07  0.0000000E+00 -0.3593622E-03
 -0.5050501E-02  0.0000000E+00 -0.5050505E-02  0.3309797E-07  0.0000000E+00 -0.3593322E-03
 -0.5050495E-02  0.0000000E+00 -0.5050505E-02  0.1419514E-07  0.0000000E+00 -0.3593154E-03
 -0.5050482E-02  0.0000000E+00 -0.5050505E-02 -0.5091842E-08  0.0000000E+00 -0.3593119E-03
 -0.5050449E-02  0.0000000E+00 -0.5050505E-02 -0.2458116E-07  0.0000000E+00 -0.3593221E-03
 -0.5050376E-02  0.0000000E+00 -0.5050505E-02 -0.4408105E-07  0.0000000E+00 -0.3593461E-03
 -0.5050299E-02  0.0000000E+00 -0.5050505E-02 -0.6339485E-07  0.0000000E+00 -0.3593837E-03
 -0.5050178E-02  0.0000000E+00 -0.5050505E-02 -0.8232635E-07  0.0000000E+00 -0.3594348E-03
 -0.5050018E-02  0.0000000E+00 -0.5050505E-02 -0.1006852E-06  0.0000000E+00 -0.3594990E-03
 -0.5049710E-02  0.0000000E+00 -0.5050505E-02 -0.1182920E-06  0.0000000E+00 -0.3595759E-03
 -0.5049253E-02  0.0000000E+00 -0.5050505E-02 -0.1349831E-06  0.0000000E+00 -0.3596648E-03
 -0.5048636E-02  0.0000000E+00 -0.5050505E-02 -0.1506147E-06  0.0000000E+00 -0.3597651E-03
 -0.5047442E-02  0.0000000E+00 -0.5050505E-02 -0.1650657E-06  0.0000000E+00 -0.3598760E-03
 -0.5045727E-02  0.0000000E+00 -0.5050505E-02 -0.1782403E-06  0.0000000E+00 -0.3599966E-03
 -0.5043261E-02  0.0000000E+00 -0.5050505E-02 -0.1900697E-06  0.0000000E+00 -0.3601259E-03
 -0.5038714E-02  0.0000000E+00 -0.5050505E-02 -0.2005126E-06  0.0000000E+00 -0.3602631E-03
 -0.5032318E-02  0.0000000E+00 -0.5050505E-02 -0.2095556E-06  0.0000000E+00 -0.3604070E-03
 -0.5022454E-02  0.0000000E+00 -0.5050505E-02 -0.2172132E-06  0.0000000E+00 -0.3605568E-03
 -0.5012589E-02  0.0000000E+00 -0.5050505E-02 -0.2235276E-06  0.0000000E+00 -0.3607114E-03
 -0.5002725E-02  0.0000000E+00 -0.5050505E-02 -0.2285691E-06  0.0000000E+00 -0.3608700E-03
 -0.4992860E-02  0.0000000E+00 -0.5050505E-02 -0.2324368E-06  0.0000000E+00 -0.3610316E-03
 -0.4976523E-02  0.0000000E+00 -0.5050505E-02 -0.2352607E-06  0.0000000E+00 -0.3611955E-03
 -0.4956794E-02  0.0000000E+00 -0.5050505E-02 -0.2372060E-06  0.0000000E+00 -0.3613610E-03
 -0.4937066E-02  0.0000000E+00 -0.5050505E-02 -0.2384794E-06  0.0000000E+00 -0.3615275E-03
 -0.4906239E-02  0.0000000E+00 -0.5050505E-02 -0.2393404E-06  0.0000000E+00 -0.3616945E-03
 -0.4866782E-02  0.0000000E+00 -0.5050505E-02 -0.2401187E-06  0.0000000E+00 -0.3618620E-03
 -0.4827325E-02  0.0000000E+00 -0.5050505E-02 -0.2412419E-06  0.0000000E+00 -0.3620298E-03
 -0.4769372E-02  0.0000000E+00 -0.5050505E-02 -0.2432781E-06  0.0000000E+00 -0.3621984E-03
 -0.4690458E-02  0.0000000E+00 -0.5050505E-02 -0.2470051E-06  0.0000000E+00 -0.3623686E-03
 -0.4611543E-02  0.0000000E+00 -0.5050505E-02 -0.2535217E-06  0.0000000E+00 -0.3625416E-03
 -0.4503035E-02  0.0000000E+00 -0.5050505E-02 -0.2644346E-06  0.0000000E+00 -0.3627197E-03
 -0.4345206E-02  0.0000000E+00 -0.5050505E-02 -0.2821774E-06  0.0000000E+00 -0.3629062E-03
 -0.4187378E-02  0.0000000E+00 -0.5050505E-02 -0.3105805E-06  0.0000000E+00 -0.3631062E-03
 -0.3985156E-02  0.0000000E+00 -0.5050505E-02 -0.3559250E-06  0.0000000E+00 -0.3633274E-03
 -0.3669499E-02  0.0000000E+00 -0.5050505E-02 -0.4289883E-06  0.0000000E+00 -0.3635817E-03
 -0.3353842E-02  0.0000000E+00 -0.5050505E-02 -0.5492153E-06  0.0000000E+00 -0.3638874E-03
 -0.2978990E-02  0.0000000E+00 -0.5050505E-02 -0.7537141E-06  0.0000000E+00 -0.3642721E-03
 -0.2347676E-02  0.0000000E+00 -0.5050505E-02 -0.1117832E-05  0.0000000E+00 -0.3647749E-03
 -0.1716362E-02  0.0000000E+00 -0.5050505E-02 -0.1805170E-05  0.0000000E+00 -0.3654355E-03
 -0.1025842E-02  0.0000000E+00 -0.5050505E-02 -0.3196580E-05  0.0000000E+00 -0.3662104E-03
  0.2367855E-03  0.0000000E+00 -0.5050505E-02 -0.6241172E-05  0.0000000E+00 -0.3665405E-03
  0.1499413E-02  0.0000000E+00 -0.5050505E-02 -0.1345338E-04  0.0000000E+00 -0.3632661E-03
  0.5287294E-02  0.0000000E+00 -0.5050505E-02 -0.3181985E-04  0.0000000E+00 -0.3408055E-03
 -0.5050505E-02  0.0000000E+00 -0.5050505E-02  0.6701990E-08  0.0000000E+00 -0.3644356E-03
 -0.5050505E-02  0.0000000E+00 -0.5050505E-02  0.2009892E-07  0.0000000E+00 -0.3644299E-03
 -0.5050505E-02  0.0000000E+00 -0.5050505E-02  0.3347465E-07  0.0000000E+00 -0.3644186E-03
 -0.5050505E-02  0.0000000E+00 -0.5050505E-02  0.4681501E-07  0.0000000E+00 -0.3644016E-03
 -0.5050505E-02  0.0000000E+00 -0.5050505E-02  0.6010578E-07  0.0000000E+00 -0.3643789E-03
 -0.5050505E-02  0.0000000E+00 -0.5050505E-02  0.7333268E-07  0.0000000E+00 -0.3643506E-03
 -0.5050504E-02  0.0000000E+00 -0.5050505E-02  0.8648132E-07  0.0000000E+00 -0.3643168E-03
 -0.5050501E-02  0.0000000E+00 -0.5050505E-02  0.9953723E-07  0.0000000E+00 -0.3642774E-03
 -0.5050495E-02  0.0000000E+00 -0.5050505E-02  0.1124858E-06  0.0000000E+00 -0.3642324E-03
 -0.5050482E-02  0.0000000E+00 -0.5050505E-02  0.1253121E-06  0.0000000E+00 -0.3641820E-03
 -0.5050449E-02  0.0000000E+00 -0.5050505E-02  0.1380013E-06  0.0000000E+00 -0.3641262E-03
 -0.5050376E-02  0.0000000E+00 -0.5050505E-02  0.1505381E-06  0.0000000E+00 -0.3640651E-03
 -0.5050299E-02  0.0000000E+00 -0.5050505E-02  0.1629071E-06  0.0000000E+00 -0.3639987E-03
 -0.5050178E-02  0.0000000E+00 -0.5050505E-02  0.1750926E-06  0.0000000E+00 -0.3639270E-03
 -0.5050018E-02  0.0000000E+00 -0.5050505E-02  0.1870784E-06  0.0000000E+00 -0.3638503E-03
 -0.5049710E-02  0.0000000E+00 -0.5050505E-02  0.1988481E-06  0.0000000E+00 -0.3637685E-03
 -0.5049253E-02  0.0000000E+00 -0.5050505E-02  0.2103848E-06  0.0000000E+00 -0.3636817E-03
 -0.5048636E-02  0.0000000E+00 -0.5050505E-02  0.2216712E-06  0.0000000E+00 -0.3635901E-03
 -0.5047442E-02  0.0000000E+00 -0.5050505E-02  0.2326892E-06  0.0000000E+00 -0.3634938E-03
 -0.5045727E-02  0.0000000E+00 -0.5050505E-02  0.2434204E-06  0.0000000E+00 -0.3633928E-03
 -0.5043261E-02  0.0000000E+00 -0.5050505E-02  0.2538453E-06  0.0000000E+00 -0.3632873E-03
 -0.5038714E-02  0.0000000E+00 -0.5050505E-02  0.2639438E-06  0.0000000E+00 -0.3631775E-03
 -0.5032318E-02  0.0000000E+00 -0.5050505E-02  0.2736944E-06  0.0000000E+00 -0.3630634E-03
 -0.5022454E-02  0.0000000E+00 -0.5050505E-02  0.2830748E-06  0.0000000E+00 -0.3629453E-03
 -0.5012589E-02  0.0000000E+00 -0.5050505E-02  0.2920611E-06  0.0000000E+00 -0.3628232E-03
 -0.5002725E-02  0.0000000E+00 -0.5050505E-02  0.3006280E-06  0.0000000E+00 -0.3626974E-03
 -0.4992860E-02  0.0000000E+00 -0.5050505E-02  0.3087482E-06  0.0000000E+00 -0.3625681E-03
 -0.4976523E-02  0.0000000E+00 -0.5050505E-02  0.3163924E-06  0.0000000E+00 -0.3624353E-03
 -0.4956794E-02  0.0000000E+00 -0.5050505E-02  0.3235289E-06  0.0000000E+00 -0.3622994E-03
 -0.4937066E-02  0.0000000E+00 -0.5050505E-02  0.3301234E-06  0.0000000E+00 -0.3621605E-03
 -0.4906239E-02  0.0000000E+00 -0.5050505E-02  0.3361383E-06  0.0000000E+00 -0.3620189E-03
 -0.4866782E-02  0.0000000E+00 -0.5050505E-02  0.3415330E-06  0.0000000E+00 -0.3618749E-03
 -0.4827325E-02  0.0000000E+00 -0.5050505E-02  0.3462627E-06  0.0000000E+00 -0.3617286E-03
 -0.4769372E-02  0.0000000E+00 -0.5050505E-02  0.3502788E-06  0.0000000E+00 -0.3615804E-03
 -0.4690458E-02  0.0000000E+00 -0.5050505E-02  0.3535280E-06  0.0000000E+00 -0.3614306E-03
 -0.4611543E-02  0.0000000E+00 -0.5050505E-02  0.3559523E-06  0.0000000E+00 -0.3612795E-03
 -0.4503035E-02  0.0000000E+00 -0.5050505E-02  0.3574886E-06  0.0000000E+00 -0.3611275E-03
 -0.4345206E-02  0.0000000E+00 -0.5050505E-02  0.3580688E-06  0.0000000E+00 -0.3609750E-03
 -0.4187378E-02  0.0000000E+00 -0.5050505E-02  0.3576192E-06  0.0000000E+00 -0.3608223E-03
 -0.3985156E-02  0.0000000E+00 -0.5050505E-02  0.3560615E-06  0.0000000E+00 -0.3606700E-03
 -0.3669499E-02  0.0000000E+00 -0.5050505E-02  0.3533123E-06  0.0000000E+00 -0.3605185E-03
 -0.3353842E-02  0.0000000E+00 -0.5050505E-02  0.3492845E-06  0.0000000E+00 -0.3603683E-03
 -0.2978990E-02  0.0000000E+00 -0.5050505E-02  0.3438878E-06  0.0000000E+00 -0.3602200E-03
 -0.2347676E-02  0.0000000E+00 -0.5050505E-02  0.3370306E-06  0.0000000E+00 -0.3600743E-03
 -0.1716362E-02  0.0000000E+00 -0.5050505E-02  0.3286211E-06  0.0000000E+00 -0.3599316E-03
 -0.1025842E-02  0.0000000E+00 -0.5050505E-02  0.3185704E-06  0.0000000E+00 -0.3597928E-03
  0.2367855E-03  0.0000000E+00 -0.5050505E-02  0.3067947E-06  0.0000000E+00 -0.3596585E-03
  0.1499413E-02  0.0000000E+00 -0.5050505E-02  0.2932192E-06  0.0000000E+00 -0.3595294E-03
  0.2762042E-02  0.0000000E+00 -0.5050505E-02  0.2777813E-06  0.0000000E+00 -0.3594065E-03
 -0.5050505E-02  0.0000000E+00 -0.5050505E-02  0.2604351E-06  0.0000000E+00 -0.3592905E-03
 -0.5050505E-02  0.0000000E+00 -0.5050505E-02  0.2411559E-06  0.0000000E+00 -0.3591822E-03
 -0.5050505E-02  0.0000000E+00 -0.5050505E-02  0.2199444E-06  0.0000000E+00 -0.3590825E-03
 -0.5050505E-02  0.0000000E+00 -0.5050505E-02  0.1968312E-06  0.0000000E+00 -0.3589923E-03
 -0.5050505E-02  0.0000000E+00 -0.5050505E-02  0.1718804E-06  0.0000000E+00 -0.3589123E-03
 -0.5050505E-02  0.0000000E+00 -0.5050505E-02  0.1451933E-06  0.0000000E+00 -0.3588433E-03
 -0.5050505E-02  0.0000000E+00 -0.5050505E-02  0.1169097E-06  0.0000000E+00 -0.3587861E-03
 -0.5050504E-02  0.0000000E+00 -0.5050505E-02  0.8720885E-07  0.0000000E+00 -0.3587414E-03
 -0.5050501E-02  0.0000000E+00 -0.5050505E-02  0.5630862E-07  0.0000000E+00 -0.3587098E-03
 -0.5050495E-02  0.0000000E+00 -0.5050505E-02  0.2446257E-07  0.0000000E+00 -0.3586917E-03
 -0.5050482E-02  0.0000000E+00 -0.5050505E-02 -0.8044467E-08  0.0000000E+00 -0.3586875E-03
 -0.5050449E-02  0.0000000E+00 -0.5050505E-02 -0.4090267E-07  0.0000000E+00 -0.3586974E-03
 -0.5050376E-02  0.0000000E+00 -0.5050505E-02 -0.7378485E-07  0.0000000E+00 -0.3587215E-03
 -0.5050299E-02  0.0000000E+00 -0.5050505E-02 -0.1063552E-06  0.0000000E+00 -0.3587598E-03
 -0.5050178E-02  0.0000000E+00 -0.5050505E-02 -0.1382786E-06  0.0000000E+00 -0.3588121E-03
 -0.5050018E-02  0.0000000E+00 -0.5050505E-02 -0.1692301E-06  0.0000000E+00 -0.3588780E-03
 -0.5049710E-02  0.0000000E+00 -0.5050505E-02 -0.1989035E-06  0.0000000E+00 -0.3589570E-03
 -0.5049253E-02  0.0000000E+00 -0.5050505E-02 -0.2270202E-06  0.0000000E+00 -0.3590485E-03
 -0.5048636E-02  0.0000000E+00 -0.5050505E-02 -0.2533350E-06  0.0000000E+00 -0.3591517E-03
 -0.5047442E-02  0.0000000E+00 -0.5050505E-02 -0.2776425E-06  0.0000000E+00 -0.3592658E-03
 -0.5045727E-02  0.0000000E+00 -0.5050505E-02 -0.2997805E-06  0.0000000E+00 -0.3593899E-03
 -0.5043261E-02  0.0000000E+00 -0.5050505E-02 -0.3196325E-06  0.0000000E+00 -0.3595230E-03
 -0.5038714E-02  0.0000000E+00 -0.5050505E-02 -0.3371290E-06  0.0000000E+00 -0.3596640E-03
 -0.5032318E-02  0.0000000E+00 -0.5050505E-02 -0.3522475E-06  0.0000000E+00 -0.3598119E-03
 -0.5022454E-02  0.0000000E+00 -0.5050505E-02 -0.3650123E-06  0.0000000E+00 -0.3599657E-03
 -0.5012589E-02  0.0000000E+00 -0.5050505E-02 -0.3754938E-06  0.0000000E+00 -0.3601244E-03
 -0.5002725E-02  0.0000000E+00 -0.5050505E-02 -0.3838087E-06  0.0000000E+00 -0.3602869E-03
 -0.4992860E-02  0.0000000E+00 -0.5050505E-02 -0.3901203E-06  0.0000000E+00 -0.3604523E-03
 -0.4976523E-02  0.0000000E+00 -0.5050505E-02 -0.3946419E-06  0.0000000E+00 -0.3606198E-03
 -0.4956794E-02  0.0000000E+00 -0.5050505E-02 -0.3976418E-06  0.0000000E+00 -0.3607886E-03
 -0.4937066E-02  0.0000000E+00 -0.5050505E-02 -0.3994534E-06  0.0000000E+00 -0.3609581E-03
 -0.4906239E-02  0.0000000E+00 -0.5050505E-02 -0.4004911E-06  0.0000000E+00 -0.3611277E-03
 -0.4866782E-02  0.0000000E+00 -0.5050505E-02 -0.4012755E-06  0.0000000E+00 -0.3612972E-03
 -0.4827325E-02  0.0000000E+00 -0.5050505E-02 -0.4024727E-06  0.0000000E+00 -0.3614663E-03
 -0.4769372E-02  0.0000000E+00 -0.5050505E-02 -0.4049558E-06  0.0000000E+00 -0.3616352E-03
 -0.4690458E-02  0.0000000E+00 -0.5050505E-02 -0.4098999E-06  0.0000000E+00 -0.3618044E-03
 -0.4611543E-02  0.0000000E+00 -0.5050505E-02 -0.4189346E-06  0.0000000E+00 -0.3619746E-03
 -0.4503035E-02  0.0000000E+00 -0.5050505E-02 -0.4343892E-06  0.0000000E+00 -0.3621471E-03
 -0.4345206E-02  0.0000000E+00 -0.5050505E-02 -0.4596989E-06  0.0000000E+00 -0.3623239E-03
 -0.4187378E-02  0.0000000E+00 -0.5050505E-02 -0.5000926E-06  0.0000000E+00 -0.3625078E-03
 -0.3985156E-02  0.0000000E+00 -0.5050505E-02 -0.5637897E-06  0.0000000E+00 -0.3627022E-03
 -0.3669499E-02  0.0000000E+00 -0.5050505E-02 -0.6641341E-06  0.0000000E+00 -0.3629114E-03
 -0.3353842E-02  0.0000000E+00 -0.5050505E-02 -0.8234801E-06  0.0000000E+00 -0.3631389E-03
 -0.2978990E-02  0.0000000E+00 -0.5050505E-02 -0.1080348E-05  0.0000000E+00 -0.3633835E-03
 -0.2347676E-02  0.0000000E+00 -0.5050505E-02 -0.1502417E-05  0.0000000E+00 -0.3636263E-03
 -0.1716362E-02  0.0000000E+00 -0.5050505E-02 -0.2208398E-05  0.0000000E+00 -0.3637941E-03
 -0.1025842E-02  0.0000000E+00 -0.5050505E-02 -0.3395090E-05  0.0000000E+00 -0.3636591E-03
  0.2367855E-03  0.0000000E+00 -0.5050505E-02 -0.5317906E-05  0.0000000E+00 -0.3625993E-03
  0.1499413E-02  0.0000000E+00 -0.5050505E-02 -0.7921793E-05  0.0000000E+00 -0.3592088E-03
  0.5287294E-02  0.0000000E+00 -0.5050505E-02 -0.8626927E-05  0.0000000E+00 -0.3519972E-03
 -0.5050505E-02  0.0000000E+00 -0.5050505E-02  0.9441664E-08  0.0000000E+00 -0.3637004E-03
 -0.5050505E-02  0.0000000E+00 -0.5050505E-02  0.2831513E-07  0.0000000E+00 -0.3636946E-03
 -0.5050505E-02  0.0000000E+00 -0.5050505E-02  0.4715896E-07  0.0000000E+00 -0.3636830E-03
 -0.5050505E-02  0.0000000E+00 -0.5050505E-02  0.6595334E-07  0.0000000E+00 -0.3636657E-03
 -0.5050505E-02  0.0000000E+00 -0.5050505E-02  0.8467840E-07  0.0000000E+00 -0.3636425E-03
 -0.5050505E-02  0.0000000E+00 -0.5050505E-02  0.1033142E-06  0.0000000E+00 -0.3636137E-03
 -0.5050504E-02  0.0000000E+00 -0.5050505E-02  0.1218405E-06  0.0000000E+00 -0.3635791E-03
 -0.5050501E-02  0.0000000E+00 -0.5050505E-02  0.1402372E-06  0.0000000E+00 -0.3635389E-03
 -0.5050495E-02  0.0000000E+00 -0.5050505E-02  0.1584838E-06  0.0000000E+00 -0.3634931E-03
 -0.5050482E-02  0.0000000E+00 -0.5050505E-02  0.1765596E-06  0.0000000E+00 -0.3634416E-03
 -0.5050449E-02  0.0000000E+00 -0.5050505E-02  0.1944437E-06  0.0000000E+00 -0.3633847E-03
 -0.5050376E-02  0.0000000E+00 -0.5050505E-02  0.2121147E-06  0.0000000E+00 -0.3633222E-03
 -0.5050299E-02  0.0000000E+00 -0.5050505E-02  0.2295512E-06  0.0000000E+00 -0.3632544E-03
 -0.5050178E-02  0.0000000E+00 -0.5050505E-02  0.2467311E-06  0.0000000E+00 -0.3631813E-03
 -0.5050018E-02  0.0000000E+00 -0.5050505E-02  0.2636319E-06  0.0000000E+00 -0.3631029E-03
 -0.5049710E-02  0.0000000E+00 -0.5050505E-02  0.2802308E-06  0.0000000E+00 -0.3630193E-03
 -0.5049253E-02  0.0000000E+00 -0.5050505E-02  0.2965040E-06  0.0000000E+00 -0.3629307E-03
 -0.5048636E-02  0.0000000E+00 -0.5050505E-02  0.3124275E-06  0.0000000E+00 -0.3628371E-03
 -0.5047442E-02  0.0000000E+00 -0.5050505E-02  0.3279762E-06  0.0000000E+00 -0.3627387E-03
 -0.5045727E-02  0.0000000E+00 -0.5050505E-02  0.3431240E-06  0.0000000E+00 -0.3626355E-03
 -0.5043261E-02  0.0000000E+00 -0.5050505E-02  0.3578441E-06  0.0000000E+00 -0.3625277E-03
 -0.5038714E-02  0.0000000E+00 -0.5050505E-02  0.3721083E-06  0.0000000E+00 -0.3624154E-03
 -0.5032318E-02  0.0000000E+00 -0.5050505E-02  0.3858868E-06  0.0000000E+00 -0.3622988E-03
 -0.5022454E-02  0.0000000E+00 -0.5050505E-02  0.3991484E-06  0.0000000E+00 -0.3621779E-03
 -0.5012589E-02  0.0000000E+00 -0.5050505E-02  0.4118600E-06  0.0000000E+00 -0.3620530E-03
 -0.5002725E-02  0.0000000E+00 -0.5050505E-02  0.4239862E-06  0.0000000E+00 -0.3619243E-03
 -0.4992860E-02  0.0000000E+00 -0.5050505E-02  0.4354891E-06  0.0000000E+00 -0.3617918E-03
 -0.4976523E-02  0.0000000E+00 -0.5050505E-02  0.4463278E-06  0.0000000E+00 -0.3616559E-03
 -0.4956794E-02  0.0000000E+00 -0.5050505E-02  0.4564582E-06  0.0000000E+00 -0.3615166E-03
 -0.4937066E-02  0.0000000E+00 -0.5050505E-02  0.4658323E-06  0.0000000E+00 -0.3613743E-03