title = "dataset feddes"
variables = "x", "y", "z", "vx", "vy", "vz"
zone t = "velocities, solution time =  3.400E+01 days        " i =   99, j =   99, k =    1,  f=point
 -0.5050505E-02  0.0000000E+00 -0.5050505E-02  0.1592360E-07  0.0000000E+00 -0.2462343E-03
 -0.5050505E-02  0.0000000E+00 -0.5050505E-02  0.4779025E-07  0.0000000E+00 -0.2461687E-03
 -0.5050505E-02  0.0000000E+00 -0.5050505E-02  0.7971568E-07  0.0000000E+00 -0.2460374E-03
 -0.5050505E-02  0.0000000E+00 -0.5050505E-02  0.1117399E-06  0.0000000E+00 -0.2458403E-03
 -0.5050505E-02  0.0000000E+00 -0.5050505E-02  0.1439037E-06  0.0000000E+00 -0.2455771E-03
 -0.5050505E-02  0.0000000E+00 -0.5050505E-02  0.1762495E-06  0.0000000E+00 -0.2452475E-03
 -0.5050504E-02  0.0000000E+00 -0.5050505E-02  0.2088211E-06  0.0000000E+00 -0.2448511E-03
 -0.5050501E-02  0.0000000E+00 -0.5050505E-02  0.2416643E-06  0.0000000E+00 -0.2443873E-03
 -0.5050495E-02  0.0000000E+00 -0.5050505E-02  0.2748275E-06  0.0000000E+00 -0.2438557E-03
 -0.5050482E-02  0.0000000E+00 -0.5050505E-02  0.3083617E-06  0.0000000E+00 -0.2432554E-03
 -0.5050449E-02  0.0000000E+00 -0.5050505E-02  0.3423215E-06  0.0000000E+00 -0.2425857E-03
 -0.5050376E-02  0.0000000E+00 -0.5050505E-02  0.3767650E-06  0.0000000E+00 -0.2418456E-03
 -0.5050299E-02  0.0000000E+00 -0.5050505E-02  0.4117551E-06  0.0000000E+00 -0.2410342E-03
 -0.5050178E-02  0.0000000E+00 -0.5050505E-02  0.4473592E-06  0.0000000E+00 -0.2401502E-03
 -0.5050018E-02  0.0000000E+00 -0.5050505E-02  0.4836506E-06  0.0000000E+00 -0.2391924E-03
 -0.5049710E-02  0.0000000E+00 -0.5050505E-02  0.5207091E-06  0.0000000E+00 -0.2381592E-03
 -0.5049253E-02  0.0000000E+00 -0.5050505E-02  0.5586213E-06  0.0000000E+00 -0.2370490E-03
 -0.5048636E-02  0.0000000E+00 -0.5050505E-02  0.5974821E-06  0.0000000E+00 -0.2358601E-03
 -0.5047442E-02  0.0000000E+00 -0.5050505E-02  0.6373955E-06  0.0000000E+00 -0.2345903E-03
 -0.5045727E-02  0.0000000E+00 -0.5050505E-02  0.6784753E-06  0.0000000E+00 -0.2332374E-03
 -0.5043261E-02  0.0000000E+00 -0.5050505E-02  0.7208470E-06  0.0000000E+00 -0.2317990E-03
 -0.5038714E-02  0.0000000E+00 -0.5050505E-02  0.7646485E-06  0.0000000E+00 -0.2302722E-03
 -0.5032318E-02  0.0000000E+00 -0.5050505E-02  0.8100322E-06  0.0000000E+00 -0.2286541E-03
 -0.5022454E-02  0.0000000E+00 -0.5050505E-02  0.8571664E-06  0.0000000E+00 -0.2269413E-03
 -0.5012589E-02  0.0000000E+00 -0.5050505E-02  0.9062371E-06  0.0000000E+00 -0.2251300E-03
 -0.5002725E-02  0.0000000E+00 -0.5050505E-02  0.9574506E-06  0.0000000E+00 -0.2232161E-03
 -0.4992860E-02  0.0000000E+00 -0.5050505E-02  0.1011036E-05  0.0000000E+00 -0.2211951E-03
 -0.4976523E-02  0.0000000E+00 -0.5050505E-02  0.1067248E-05  0.0000000E+00 -0.2190619E-03
 -0.4956794E-02  0.0000000E+00 -0.5050505E-02  0.1126369E-05  0.0000000E+00 -0.2168108E-03
 -0.4937066E-02  0.0000000E+00 -0.5050505E-02  0.1188716E-05  0.0000000E+00 -0.2144358E-03
 -0.4906239E-02  0.0000000E+00 -0.5050505E-02  0.1254642E-05  0.0000000E+00 -0.2119299E-03
 -0.4866782E-02  0.0000000E+00 -0.5050505E-02  0.1324543E-05  0.0000000E+00 -0.2092856E-03
 -0.4827325E-02  0.0000000E+00 -0.5050505E-02  0.1398864E-05  0.0000000E+00 -0.2064942E-03
 -0.4769372E-02  0.0000000E+00 -0.5050505E-02  0.1478106E-05  0.0000000E+00 -0.2035465E-03
 -0.4690458E-02  0.0000000E+00 -0.5050505E-02  0.1562833E-05  0.0000000E+00 -0.2004319E-03
 -0.4611543E-02  0.0000000E+00 -0.5050505E-02  0.1653686E-05  0.0000000E+00 -0.1971388E-03
 -0.4503035E-02  0.0000000E+00 -0.5050505E-02  0.1751391E-05  0.0000000E+00 -0.1936540E-03
 -0.4345206E-02  0.0000000E+00 -0.5050505E-02  0.1856775E-05  0.0000000E+00 -0.1899629E-03
 -0.4187378E-02  0.0000000E+00 -0.5050505E-02  0.1970779E-05  0.0000000E+00 -0.1860492E-03
 -0.3985156E-02  0.0000000E+00 -0.5050505E-02  0.2094478E-05  0.0000000E+00 -0.1818945E-03
 -0.3669499E-02  0.0000000E+00 -0.5050505E-02  0.2229093E-05  0.0000000E+00 -0.1774780E-03
 -0.3353842E-02  0.0000000E+00 -0.5050505E-02  0.2376009E-05  0.0000000E+00 -0.1727766E-03
 -0.2978990E-02  0.0000000E+00 -0.5050505E-02  0.2536782E-05  0.0000000E+00 -0.1677640E-03
 -0.2347676E-02  0.0000000E+00 -0.5050505E-02  0.2713129E-05  0.0000000E+00 -0.1624108E-03
 -0.1716362E-02  0.0000000E+00 -0.5050505E-02  0.2906887E-05  0.0000000E+00 -0.1566840E-03
 -0.1025842E-02  0.0000000E+00 -0.5050505E-02  0.3119899E-05  0.0000000E+00 -0.1505472E-03
  0.2367855E-03  0.0000000E+00 -0.5050505E-02  0.3353766E-05  0.0000000E+00 -0.1439605E-03
  0.1499413E-02  0.0000000E+00 -0.5050505E-02  0.3609296E-05  0.0000000E+00 -0.1368818E-03
  0.2762042E-02  0.0000000E+00 -0.5050505E-02  0.3885306E-05  0.0000000E+00 -0.1292696E-03
 -0.5050505E-02  0.0000000E+00 -0.5050505E-02  0.4176017E-05  0.0000000E+00 -0.1210897E-03
 -0.5050505E-02  0.0000000E+00 -0.5050505E-02  0.4465304E-05  0.0000000E+00 -0.1123305E-03
 -0.5050505E-02  0.0000000E+00 -0.5050505E-02  0.4714278E-05  0.0000000E+00 -0.1030358E-03
 -0.5050505E-02  0.0000000E+00 -0.5050505E-02  0.4835820E-05  0.0000000E+00 -0.9337714E-04
 -0.5050505E-02  0.0000000E+00 -0.5050505E-02  0.4648993E-05  0.0000000E+00 -0.8379529E-04
 -0.5050505E-02  0.0000000E+00 -0.5050505E-02  0.3824563E-05  0.0000000E+00 -0.7524354E-04
 -0.5050505E-02  0.0000000E+00 -0.5050505E-02  0.1931675E-05  0.0000000E+00 -0.6943804E-04
 -0.5050504E-02  0.0000000E+00 -0.5050505E-02 -0.9990564E-06  0.0000000E+00 -0.6849773E-04
 -0.5050501E-02  0.0000000E+00 -0.5050505E-02 -0.2859379E-05  0.0000000E+00 -0.7238868E-04
 -0.5050495E-02  0.0000000E+00 -0.5050505E-02 -0.3636371E-05  0.0000000E+00 -0.7894211E-04
 -0.5050482E-02  0.0000000E+00 -0.5050505E-02 -0.3783374E-05  0.0000000E+00 -0.8643339E-04
 -0.5050449E-02  0.0000000E+00 -0.5050505E-02 -0.3645846E-05  0.0000000E+00 -0.9394085E-04
 -0.5050376E-02  0.0000000E+00 -0.5050505E-02 -0.3411349E-05  0.0000000E+00 -0.1010787E-03
 -0.5050299E-02  0.0000000E+00 -0.5050505E-02 -0.3165831E-05  0.0000000E+00 -0.1077368E-03
 -0.5050178E-02  0.0000000E+00 -0.5050505E-02 -0.2942571E-05  0.0000000E+00 -0.1139252E-03
 -0.5050018E-02  0.0000000E+00 -0.5050505E-02 -0.2750526E-05  0.0000000E+00 -0.1196972E-03
 -0.5049710E-02  0.0000000E+00 -0.5050505E-02 -0.2588555E-05  0.0000000E+00 -0.1251139E-03
 -0.5049253E-02  0.0000000E+00 -0.5050505E-02 -0.2452014E-05  0.0000000E+00 -0.1302311E-03
 -0.5048636E-02  0.0000000E+00 -0.5050505E-02 -0.2335609E-05  0.0000000E+00 -0.1350945E-03
 -0.5047442E-02  0.0000000E+00 -0.5050505E-02 -0.2234512E-05  0.0000000E+00 -0.1397396E-03
 -0.5045727E-02  0.0000000E+00 -0.5050505E-02 -0.2144704E-05  0.0000000E+00 -0.1441931E-03
 -0.5043261E-02  0.0000000E+00 -0.5050505E-02 -0.2062997E-05  0.0000000E+00 -0.1484744E-03
 -0.5038714E-02  0.0000000E+00 -0.5050505E-02 -0.1986934E-05  0.0000000E+00 -0.1525973E-03
 -0.5032318E-02  0.0000000E+00 -0.5050505E-02 -0.1914663E-05  0.0000000E+00 -0.1565711E-03
 -0.5022454E-02  0.0000000E+00 -0.5050505E-02 -0.1844811E-05  0.0000000E+00 -0.1604020E-03
 -0.5012589E-02  0.0000000E+00 -0.5050505E-02 -0.1776380E-05  0.0000000E+00 -0.1640936E-03
 -0.5002725E-02  0.0000000E+00 -0.5050505E-02 -0.1708659E-05  0.0000000E+00 -0.1676479E-03
 -0.4992860E-02  0.0000000E+00 -0.5050505E-02 -0.1641156E-05  0.0000000E+00 -0.1710658E-03
 -0.4976523E-02  0.0000000E+00 -0.5050505E-02 -0.1573547E-05  0.0000000E+00 -0.1743471E-03
 -0.4956794E-02  0.0000000E+00 -0.5050505E-02 -0.1505632E-05  0.0000000E+00 -0.1774913E-03
 -0.4937066E-02  0.0000000E+00 -0.5050505E-02 -0.1437309E-05  0.0000000E+00 -0.1804975E-03
 -0.4906239E-02  0.0000000E+00 -0.5050505E-02 -0.1368551E-05  0.0000000E+00 -0.1833646E-03
 -0.4866782E-02  0.0000000E+00 -0.5050505E-02 -0.1299388E-05  0.0000000E+00 -0.1860918E-03
 -0.4827325E-02  0.0000000E+00 -0.5050505E-02 -0.1229904E-05  0.0000000E+00 -0.1886780E-03
 -0.4769372E-02  0.0000000E+00 -0.5050505E-02 -0.1160234E-05  0.0000000E+00 -0.1911227E-03
 -0.4690458E-02  0.0000000E+00 -0.5050505E-02 -0.1090570E-05  0.0000000E+00 -0.1934255E-03
 -0.4611543E-02  0.0000000E+00 -0.5050505E-02 -0.1021180E-05  0.0000000E+00 -0.1955867E-03
 -0.4503035E-02  0.0000000E+00 -0.5050505E-02 -0.9524456E-06  0.0000000E+00 -0.1976070E-03
 -0.4345206E-02  0.0000000E+00 -0.5050505E-02 -0.8849309E-06  0.0000000E+00 -0.1994882E-03
 -0.4187378E-02  0.0000000E+00 -0.5050505E-02 -0.8195107E-06  0.0000000E+00 -0.2012338E-03
 -0.3985156E-02  0.0000000E+00 -0.5050505E-02 -0.7576199E-06  0.0000000E+00 -0.2028493E-03
 -0.3669499E-02  0.0000000E+00 -0.5050505E-02 -0.7017600E-06  0.0000000E+00 -0.2043444E-03
 -0.3353842E-02  0.0000000E+00 -0.5050505E-02 -0.6565915E-06  0.0000000E+00 -0.2057363E-03
 -0.2978990E-02  0.0000000E+00 -0.5050505E-02 -0.6314754E-06  0.0000000E+00 -0.2070564E-03
 -0.2347676E-02  0.0000000E+00 -0.5050505E-02 -0.6469001E-06  0.0000000E+00 -0.2083667E-03
 -0.1716362E-02  0.0000000E+00 -0.5050505E-02 -0.7522895E-06  0.0000000E+00 -0.2098012E-03
 -0.1025842E-02  0.0000000E+00 -0.5050505E-02 -0.1080261E-05  0.0000000E+00 -0.2116802E-03
  0.2367855E-03  0.0000000E+00 -0.5050505E-02 -0.2027966E-05  0.0000000E+00 -0.2148680E-03
  0.1499413E-02  0.0000000E+00 -0.5050505E-02 -0.4916937E-05  0.0000000E+00 -0.2219937E-03
  0.5287294E-02  0.0000000E+00 -0.5050505E-02 -0.7846442E-04  0.0000000E+00 -0.1773333E-03
 -0.5050505E-02  0.0000000E+00 -0.5050505E-02  0.4777858E-07  0.0000000E+00 -0.2459875E-03
 -0.5050505E-02  0.0000000E+00 -0.5050505E-02  0.1433942E-06  0.0000000E+00 -0.2459217E-03
 -0.5050505E-02  0.0000000E+00 -0.5050505E-02  0.2391862E-06  0.0000000E+00 -0.2457901E-03
 -0.5050505E-02  0.0000000E+00 -0.5050505E-02  0.3352743E-06  0.0000000E+00 -0.2455925E-03
 -0.5050505E-02  0.0000000E+00 -0.5050505E-02  0.4317813E-06  0.0000000E+00 -0.2453286E-03
 -0.5050505E-02  0.0000000E+00 -0.5050505E-02  0.5288337E-06  0.0000000E+00 -0.2449981E-03
 -0.5050504E-02  0.0000000E+00 -0.5050505E-02  0.6265627E-06  0.0000000E+00 -0.2446007E-03
 -0.5050501E-02  0.0000000E+00 -0.5050505E-02  0.7251060E-06  0.0000000E+00 -0.2441357E-03
 -0.5050495E-02  0.0000000E+00 -0.5050505E-02  0.8246079E-06  0.0000000E+00 -0.2436027E-03
 -0.5050482E-02  0.0000000E+00 -0.5050505E-02  0.9252219E-06  0.0000000E+00 -0.2430009E-03
 -0.5050449E-02  0.0000000E+00 -0.5050505E-02  0.1027111E-05  0.0000000E+00 -0.2423295E-03
 -0.5050376E-02  0.0000000E+00 -0.5050505E-02  0.1130449E-05  0.0000000E+00 -0.2415876E-03
 -0.5050299E-02  0.0000000E+00 -0.5050505E-02  0.1235425E-05  0.0000000E+00 -0.2407742E-03
 -0.5050178E-02  0.0000000E+00 -0.5050505E-02  0.1342241E-05  0.0000000E+00 -0.2398881E-03
 -0.5050018E-02  0.0000000E+00 -0.5050505E-02  0.1451115E-05  0.0000000E+00 -0.2389279E-03
 -0.5049710E-02  0.0000000E+00 -0.5050505E-02  0.1562287E-05  0.0000000E+00 -0.2378922E-03
 -0.5049253E-02  0.0000000E+00 -0.5050505E-02  0.1676017E-05  0.0000000E+00 -0.2367795E-03
 -0.5048636E-02  0.0000000E+00 -0.5050505E-02  0.1792588E-05  0.0000000E+00 -0.2355877E-03
 -0.5047442E-02  0.0000000E+00 -0.5050505E-02  0.1912312E-05  0.0000000E+00 -0.2343150E-03
 -0.5045727E-02  0.0000000E+00 -0.5050505E-02  0.2035529E-05  0.0000000E+00 -0.2329592E-03
 -0.5043261E-02  0.0000000E+00 -0.5050505E-02  0.2162615E-05  0.0000000E+00 -0.2315176E-03
 -0.5038714E-02  0.0000000E+00 -0.5050505E-02  0.2293983E-05  0.0000000E+00 -0.2299876E-03
 -0.5032318E-02  0.0000000E+00 -0.5050505E-02  0.2430088E-05  0.0000000E+00 -0.2283661E-03
 -0.5022454E-02  0.0000000E+00 -0.5050505E-02  0.2571435E-05  0.0000000E+00 -0.2266499E-03
 -0.5012589E-02  0.0000000E+00 -0.5050505E-02  0.2718581E-05  0.0000000E+00 -0.2248351E-03
 -0.5002725E-02  0.0000000E+00 -0.5050505E-02  0.2872141E-05  0.0000000E+00 -0.2229176E-03
 -0.4992860E-02  0.0000000E+00 -0.5050505E-02  0.3032802E-05  0.0000000E+00 -0.2208930E-03
 -0.4976523E-02  0.0000000E+00 -0.5050505E-02  0.3201324E-05  0.0000000E+00 -0.2187562E-03
 -0.4956794E-02  0.0000000E+00 -0.5050505E-02  0.3378554E-05  0.0000000E+00 -0.2165015E-03
 -0.4937066E-02  0.0000000E+00 -0.5050505E-02  0.3565438E-05  0.0000000E+00 -0.2141230E-03
 -0.4906239E-02  0.0000000E+00 -0.5050505E-02  0.3763031E-05  0.0000000E+00 -0.2116136E-03
 -0.4866782E-02  0.0000000E+00 -0.5050505E-02  0.3972517E-05  0.0000000E+00 -0.2089660E-03
 -0.4827325E-02  0.0000000E+00 -0.5050505E-02  0.4195224E-05  0.0000000E+00 -0.2061715E-03
 -0.4769372E-02  0.0000000E+00 -0.5050505E-02  0.4432648E-05  0.0000000E+00 -0.2032209E-03
 -0.4690458E-02  0.0000000E+00 -0.5050505E-02  0.4686476E-05  0.0000000E+00 -0.2001038E-03
 -0.4611543E-02  0.0000000E+00 -0.5050505E-02  0.4958619E-05  0.0000000E+00 -0.1968086E-03
 -0.4503035E-02  0.0000000E+00 -0.5050505E-02  0.5251247E-05  0.0000000E+00 -0.1933223E-03
 -0.4345206E-02  0.0000000E+00 -0.5050505E-02  0.5566827E-05  0.0000000E+00 -0.1896304E-03
 -0.4187378E-02  0.0000000E+00 -0.5050505E-02  0.5908172E-05  0.0000000E+00 -0.1857167E-03
 -0.3985156E-02  0.0000000E+00 -0.5050505E-02  0.6278494E-05  0.0000000E+00 -0.1815630E-03
 -0.3669499E-02  0.0000000E+00 -0.5050505E-02  0.6681450E-05  0.0000000E+00 -0.1771489E-03
 -0.3353842E-02  0.0000000E+00 -0.5050505E-02  0.7121199E-05  0.0000000E+00 -0.1724511E-03
 -0.2978990E-02  0.0000000E+00 -0.5050505E-02  0.7602426E-05  0.0000000E+00 -0.1674438E-03
 -0.2347676E-02  0.0000000E+00 -0.5050505E-02  0.8130340E-05  0.0000000E+00 -0.1620976E-03
 -0.1716362E-02  0.0000000E+00 -0.5050505E-02  0.8710582E-05  0.0000000E+00 -0.1563794E-03
 -0.1025842E-02  0.0000000E+00 -0.5050505E-02  0.9348961E-05  0.0000000E+00 -0.1502523E-03
  0.2367855E-03  0.0000000E+00 -0.5050505E-02  0.1005086E-04  0.0000000E+00 -0.1436749E-03
  0.1499413E-02  0.0000000E+00 -0.5050505E-02  0.1081991E-04  0.0000000E+00 -0.1366020E-03
  0.2762042E-02  0.0000000E+00 -0.5050505E-02  0.1165523E-04  0.0000000E+00 -0.1289851E-03
 -0.5050505E-02  0.0000000E+00 -0.5050505E-02  0.1254521E-04  0.0000000E+00 -0.1207744E-03
 -0.5050505E-02  0.0000000E+00 -0.5050505E-02  0.1345384E-04  0.0000000E+00 -0.1119244E-03
 -0.5050505E-02  0.0000000E+00 -0.5050505E-02  0.1428967E-04  0.0000000E+00 -0.1024079E-03
 -0.5050505E-02  0.0000000E+00 -0.5050505E-02  0.1483636E-04  0.0000000E+00 -0.9225409E-04
 -0.5050505E-02  0.0000000E+00 -0.5050505E-02  0.1460433E-04  0.0000000E+00 -0.8166384E-04
 -0.5050505E-02  0.0000000E+00 -0.5050505E-02  0.1255700E-04  0.0000000E+00 -0.7134672E-04
 -0.5050505E-02  0.0000000E+00 -0.5050505E-02  0.6837295E-05  0.0000000E+00 -0.6339259E-04
 -0.5050504E-02  0.0000000E+00 -0.5050505E-02 -0.4067217E-05  0.0000000E+00 -0.6247928E-04
 -0.5050501E-02  0.0000000E+00 -0.5050505E-02 -0.9671255E-05  0.0000000E+00 -0.6855514E-04
 -0.5050495E-02  0.0000000E+00 -0.5050505E-02 -0.1155399E-04  0.0000000E+00 -0.7687007E-04
 -0.5050482E-02  0.0000000E+00 -0.5050505E-02 -0.1165064E-04  0.0000000E+00 -0.8532726E-04
 -0.5050449E-02  0.0000000E+00 -0.5050505E-02 -0.1104972E-04  0.0000000E+00 -0.9326471E-04
 -0.5050376E-02  0.0000000E+00 -0.5050505E-02 -0.1025884E-04  0.0000000E+00 -0.1005544E-03
 -0.5050299E-02  0.0000000E+00 -0.5050505E-02 -0.9487465E-05  0.0000000E+00 -0.1072402E-03
 -0.5050178E-02  0.0000000E+00 -0.5050505E-02 -0.8807324E-05  0.0000000E+00 -0.1134101E-03
 -0.5050018E-02  0.0000000E+00 -0.5050505E-02 -0.8231138E-05  0.0000000E+00 -0.1191523E-03
 -0.5049710E-02  0.0000000E+00 -0.5050505E-02 -0.7748885E-05  0.0000000E+00 -0.1245424E-03
 -0.5049253E-02  0.0000000E+00 -0.5050505E-02 -0.7343749E-05  0.0000000E+00 -0.1296406E-03
 -0.5048636E-02  0.0000000E+00 -0.5050505E-02 -0.6998702E-05  0.0000000E+00 -0.1344933E-03
 -0.5047442E-02  0.0000000E+00 -0.5050505E-02 -0.6698885E-05  0.0000000E+00 -0.1391350E-03
 -0.5045727E-02  0.0000000E+00 -0.5050505E-02 -0.6432193E-05  0.0000000E+00 -0.1435911E-03
 -0.5043261E-02  0.0000000E+00 -0.5050505E-02 -0.6189138E-05  0.0000000E+00 -0.1478796E-03
 -0.5038714E-02  0.0000000E+00 -0.5050505E-02 -0.5962461E-05  0.0000000E+00 -0.1520130E-03
 -0.5032318E-02  0.0000000E+00 -0.5050505E-02 -0.5746716E-05  0.0000000E+00 -0.1559996E-03
 -0.5022454E-02  0.0000000E+00 -0.5050505E-02 -0.5537880E-05  0.0000000E+00 -0.1598447E-03
 -0.5012589E-02  0.0000000E+00 -0.5050505E-02 -0.5333038E-05  0.0000000E+00 -0.1635516E-03
 -0.5002725E-02  0.0000000E+00 -0.5050505E-02 -0.5130120E-05  0.0000000E+00 -0.1671216E-03
 -0.4992860E-02  0.0000000E+00 -0.5050505E-02 -0.4927702E-05  0.0000000E+00 -0.1705552E-03
 -0.4976523E-02  0.0000000E+00 -0.5050505E-02 -0.4724846E-05  0.0000000E+00 -0.1738521E-03
 -0.4956794E-02  0.0000000E+00 -0.5050505E-02 -0.4520984E-05  0.0000000E+00 -0.1770114E-03
 -0.4937066E-02  0.0000000E+00 -0.5050505E-02 -0.4315829E-05  0.0000000E+00 -0.1800321E-03
 -0.4906239E-02  0.0000000E+00 -0.5050505E-02 -0.4109309E-05  0.0000000E+00 -0.1829131E-03
 -0.4866782E-02  0.0000000E+00 -0.5050505E-02 -0.3901528E-05  0.0000000E+00 -0.1856532E-03
 -0.4827325E-02  0.0000000E+00 -0.5050505E-02 -0.3692736E-05  0.0000000E+00 -0.1882515E-03
 -0.4769372E-02  0.0000000E+00 -0.5050505E-02 -0.3483331E-05  0.0000000E+00 -0.1907072E-03
 -0.4690458E-02  0.0000000E+00 -0.5050505E-02 -0.3273869E-05  0.0000000E+00 -0.1930199E-03
 -0.4611543E-02  0.0000000E+00 -0.5050505E-02 -0.3065119E-05  0.0000000E+00 -0.1951895E-03
 -0.4503035E-02  0.0000000E+00 -0.5050505E-02 -0.2858158E-05  0.0000000E+00 -0.1972166E-03
 -0.4345206E-02  0.0000000E+00 -0.5050505E-02 -0.2654549E-05  0.0000000E+00 -0.1991025E-03
 -0.4187378E-02  0.0000000E+00 -0.5050505E-02 -0.2456669E-05  0.0000000E+00 -0.2008497E-03
 -0.3985156E-02  0.0000000E+00 -0.5050505E-02 -0.2268324E-05  0.0000000E+00 -0.2024622E-03
 -0.3669499E-02  0.0000000E+00 -0.5050505E-02 -0.2095942E-05  0.0000000E+00 -0.2039464E-03
 -0.3353842E-02  0.0000000E+00 -0.5050505E-02 -0.1951003E-05  0.0000000E+00 -0.2053126E-03
 -0.2978990E-02  0.0000000E+00 -0.5050505E-02 -0.1855280E-05  0.0000000E+00 -0.2065762E-03
 -0.2347676E-02  0.0000000E+00 -0.5050505E-02 -0.1852775E-05  0.0000000E+00 -0.2077593E-03
 -0.1716362E-02  0.0000000E+00 -0.5050505E-02 -0.2038615E-05  0.0000000E+00 -0.2088830E-03
 -0.1025842E-02  0.0000000E+00 -0.5050505E-02 -0.2633200E-05  0.0000000E+00 -0.2099197E-03
  0.2367855E-03  0.0000000E+00 -0.5050505E-02 -0.4182678E-05  0.0000000E+00 -0.2105426E-03
  0.1499413E-02  0.0000000E+00 -0.5050505E-02 -0.8124157E-05  0.0000000E+00 -0.2089414E-03
  0.5287294E-02  0.0000000E+00 -0.5050505E-02 -0.1841906E-04  0.0000000E+00 -0.1962828E-03
 -0.5050505E-02  0.0000000E+00 -0.5050505E-02  0.7968865E-07  0.0000000E+00 -0.2455035E-03
 -0.5050505E-02  0.0000000E+00 -0.5050505E-02  0.2391634E-06  0.0000000E+00 -0.2454374E-03
 -0.5050505E-02  0.0000000E+00 -0.5050505E-02  0.3989320E-06  0.0000000E+00 -0.2453051E-03
 -0.5050505E-02  0.0000000E+00 -0.5050505E-02  0.5591937E-06  0.0000000E+00 -0.2451064E-03
 -0.5050505E-02  0.0000000E+00 -0.5050505E-02  0.7201527E-06  0.0000000E+00 -0.2448412E-03
 -0.5050505E-02  0.0000000E+00 -0.5050505E-02  0.8820193E-06  0.0000000E+00 -0.2445090E-03
 -0.5050504E-02  0.0000000E+00 -0.5050505E-02  0.1045012E-05  0.0000000E+00 -0.2441095E-03
 -0.5050501E-02  0.0000000E+00 -0.5050505E-02  0.1209359E-05  0.0000000E+00 -0.2436423E-03
 -0.5050495E-02  0.0000000E+00 -0.5050505E-02  0.1375301E-05  0.0000000E+00 -0.2431066E-03
 -0.5050482E-02  0.0000000E+00 -0.5050505E-02  0.1543093E-05  0.0000000E+00 -0.2425018E-03
 -0.5050449E-02  0.0000000E+00 -0.5050505E-02  0.1713005E-05  0.0000000E+00 -0.2418271E-03
 -0.5050376E-02  0.0000000E+00 -0.5050505E-02  0.1885328E-05  0.0000000E+00 -0.2410815E-03
 -0.5050299E-02  0.0000000E+00 -0.5050505E-02  0.2060373E-05  0.0000000E+00 -0.2402641E-03
 -0.5050178E-02  0.0000000E+00 -0.5050505E-02  0.2238478E-05  0.0000000E+00 -0.2393737E-03
 -0.5050018E-02  0.0000000E+00 -0.5050505E-02  0.2420006E-05  0.0000000E+00 -0.2384090E-03
 -0.5049710E-02  0.0000000E+00 -0.5050505E-02  0.2605353E-05  0.0000000E+00 -0.2373685E-03
 -0.5049253E-02  0.0000000E+00 -0.5050505E-02  0.2794951E-05  0.0000000E+00 -0.2362506E-03
 -0.5048636E-02  0.0000000E+00 -0.5050505E-02  0.2989273E-05  0.0000000E+00 -0.2350534E-03
 -0.5047442E-02  0.0000000E+00 -0.5050505E-02  0.3188833E-05  0.0000000E+00 -0.2337751E-03
 -0.5045727E-02  0.0000000E+00 -0.5050505E-02  0.3394199E-05  0.0000000E+00 -0.2324132E-03
 -0.5043261E-02  0.0000000E+00 -0.5050505E-02  0.3605994E-05  0.0000000E+00 -0.2309655E-03
 -0.5038714E-02  0.0000000E+00 -0.5050505E-02  0.3824903E-05  0.0000000E+00 -0.2294291E-03
 -0.5032318E-02  0.0000000E+00 -0.5050505E-02  0.4051682E-05  0.0000000E+00 -0.2278011E-03
 -0.5022454E-02  0.0000000E+00 -0.5050505E-02  0.4287167E-05  0.0000000E+00 -0.2260780E-03
 -0.5012589E-02  0.0000000E+00 -0.5050505E-02  0.4532281E-05  0.0000000E+00 -0.2242563E-03
 -0.5002725E-02  0.0000000E+00 -0.5050505E-02  0.4788048E-05  0.0000000E+00 -0.2223319E-03
 -0.4992860E-02  0.0000000E+00 -0.5050505E-02  0.5055603E-05  0.0000000E+00 -0.2203002E-03
 -0.4976523E-02  0.0000000E+00 -0.5050505E-02  0.5336206E-05  0.0000000E+00 -0.2181563E-03
 -0.4956794E-02  0.0000000E+00 -0.5050505E-02  0.5631260E-05  0.0000000E+00 -0.2158946E-03
 -0.4937066E-02  0.0000000E+00 -0.5050505E-02  0.5942331E-05  0.0000000E+00 -0.2135091E-03
 -0.4906239E-02  0.0000000E+00 -0.5050505E-02  0.6271167E-05  0.0000000E+00 -0.2109930E-03
 -0.4866782E-02  0.0000000E+00 -0.5050505E-02  0.6619722E-05  0.0000000E+00 -0.2083388E-03
 -0.4827325E-02  0.0000000E+00 -0.5050505E-02  0.6990195E-05  0.0000000E+00 -0.2055382E-03
 -0.4769372E-02  0.0000000E+00 -0.5050505E-02  0.7385054E-05  0.0000000E+00 -0.2025821E-03
 -0.4690458E-02  0.0000000E+00 -0.5050505E-02  0.7807089E-05  0.0000000E+00 -0.1994600E-03
 -0.4611543E-02  0.0000000E+00 -0.5050505E-02  0.8259453E-05  0.0000000E+00 -0.1961608E-03
 -0.4503035E-02  0.0000000E+00 -0.5050505E-02  0.8745728E-05  0.0000000E+00 -0.1926715E-03
 -0.4345206E-02  0.0000000E+00 -0.5050505E-02  0.9269988E-05  0.0000000E+00 -0.1889781E-03
 -0.4187378E-02  0.0000000E+00 -0.5050505E-02  0.9836882E-05  0.0000000E+00 -0.1850646E-03
 -0.3985156E-02  0.0000000E+00 -0.5050505E-02  0.1045172E-04  0.0000000E+00 -0.1809131E-03
 -0.3669499E-02  0.0000000E+00 -0.5050505E-02  0.1112058E-04  0.0000000E+00 -0.1765036E-03
 -0.3353842E-02  0.0000000E+00 -0.5050505E-02  0.1185037E-04  0.0000000E+00 -0.1718134E-03
 -0.2978990E-02  0.0000000E+00 -0.5050505E-02  0.1264897E-04  0.0000000E+00 -0.1668170E-03
 -0.2347676E-02  0.0000000E+00 -0.5050505E-02  0.1352521E-04  0.0000000E+00 -0.1614852E-03
 -0.1716362E-02  0.0000000E+00 -0.5050505E-02  0.1448884E-04  0.0000000E+00 -0.1557851E-03
 -0.1025842E-02  0.0000000E+00 -0.5050505E-02  0.1555031E-04  0.0000000E+00 -0.1496791E-03
  0.2367855E-03  0.0000000E+00 -0.5050505E-02  0.1672018E-04  0.0000000E+00 -0.1431243E-03
  0.1499413E-02  0.0000000E+00 -0.5050505E-02  0.1800784E-04  0.0000000E+00 -0.1360709E-03
  0.2762042E-02  0.0000000E+00 -0.5050505E-02  0.1941892E-04  0.0000000E+00 -0.1284607E-03
 -0.5050505E-02  0.0000000E+00 -0.5050505E-02  0.2094978E-04  0.0000000E+00 -0.1202229E-03
 -0.5050505E-02  0.0000000E+00 -0.5050505E-02  0.2257548E-04  0.0000000E+00 -0.1112637E-03
 -0.5050505E-02  0.0000000E+00 -0.5050505E-02  0.2422109E-04  0.0000000E+00 -0.1014449E-03
 -0.5050505E-02  0.0000000E+00 -0.5050505E-02  0.2568809E-04  0.0000000E+00 -0.9053910E-04
 -0.5050505E-02  0.0000000E+00 -0.5050505E-02  0.2644901E-04  0.0000000E+00 -0.7817027E-04
 -0.5050505E-02  0.0000000E+00 -0.5050505E-02  0.2502625E-04  0.0000000E+00 -0.6393953E-04
 -0.5050505E-02  0.0000000E+00 -0.5050505E-02  0.1695570E-04  0.0000000E+00 -0.4913032E-04
 -0.5050504E-02  0.0000000E+00 -0.5050505E-02 -0.1244516E-04  0.0000000E+00 -0.4828888E-04
 -0.5050501E-02  0.0000000E+00 -0.5050505E-02 -0.2025128E-04  0.0000000E+00 -0.6131455E-04
 -0.5050495E-02  0.0000000E+00 -0.5050505E-02 -0.2131567E-04  0.0000000E+00 -0.7353311E-04
 -0.5050482E-02  0.0000000E+00 -0.5050505E-02 -0.2027327E-04  0.0000000E+00 -0.8366768E-04
 -0.5050449E-02  0.0000000E+00 -0.5050505E-02 -0.1869692E-04  0.0000000E+00 -0.9220931E-04
 -0.5050376E-02  0.0000000E+00 -0.5050505E-02 -0.1713473E-04  0.0000000E+00 -0.9964837E-04
 -0.5050299E-02  0.0000000E+00 -0.5050505E-02 -0.1576050E-04  0.0000000E+00 -0.1063118E-03
 -0.5050178E-02  0.0000000E+00 -0.5050505E-02 -0.1460615E-04  0.0000000E+00 -0.1124088E-03
 -0.5050018E-02  0.0000000E+00 -0.5050505E-02 -0.1365198E-04  0.0000000E+00 -0.1180766E-03
 -0.5049710E-02  0.0000000E+00 -0.5050505E-02 -0.1286309E-04  0.0000000E+00 -0.1234079E-03
 -0.5049253E-02  0.0000000E+00 -0.5050505E-02 -0.1220378E-04  0.0000000E+00 -0.1284671E-03
 -0.5048636E-02  0.0000000E+00 -0.5050505E-02 -0.1164281E-04  0.0000000E+00 -0.1332990E-03
 -0.5047442E-02  0.0000000E+00 -0.5050505E-02 -0.1115459E-04  0.0000000E+00 -0.1379352E-03
 -0.5045727E-02  0.0000000E+00 -0.5050505E-02 -0.1071898E-04  0.0000000E+00 -0.1423976E-03
 -0.5043261E-02  0.0000000E+00 -0.5050505E-02 -0.1032052E-04  0.0000000E+00 -0.1467014E-03
 -0.5038714E-02  0.0000000E+00 -0.5050505E-02 -0.9947513E-05  0.0000000E+00 -0.1508565E-03
 -0.5032318E-02  0.0000000E+00 -0.5050505E-02 -0.9591259E-05  0.0000000E+00 -0.1548693E-03
 -0.5022454E-02  0.0000000E+00 -0.5050505E-02 -0.9245381E-05  0.0000000E+00 -0.1587436E-03
 -0.5012589E-02  0.0000000E+00 -0.5050505E-02 -0.8905281E-05  0.0000000E+00 -0.1624813E-03
 -0.5002725E-02  0.0000000E+00 -0.5050505E-02 -0.8567719E-05  0.0000000E+00 -0.1660829E-03
 -0.4992860E-02  0.0000000E+00 -0.5050505E-02 -0.8230480E-05  0.0000000E+00 -0.1695482E-03
 -0.4976523E-02  0.0000000E+00 -0.5050505E-02 -0.7892125E-05  0.0000000E+00 -0.1728763E-03
 -0.4956794E-02  0.0000000E+00 -0.5050505E-02 -0.7551800E-05  0.0000000E+00 -0.1760659E-03
 -0.4937066E-02  0.0000000E+00 -0.5050505E-02 -0.7209093E-05  0.0000000E+00 -0.1791157E-03
 -0.4906239E-02  0.0000000E+00 -0.5050505E-02 -0.6863932E-05  0.0000000E+00 -0.1820243E-03
 -0.4866782E-02  0.0000000E+00 -0.5050505E-02 -0.6516511E-05  0.0000000E+00 -0.1847904E-03
 -0.4827325E-02  0.0000000E+00 -0.5050505E-02 -0.6167256E-05  0.0000000E+00 -0.1874128E-03
 -0.4769372E-02  0.0000000E+00 -0.5050505E-02 -0.5816806E-05  0.0000000E+00 -0.1898906E-03
 -0.4690458E-02  0.0000000E+00 -0.5050505E-02 -0.5466035E-05  0.0000000E+00 -0.1922230E-03
 -0.4611543E-02  0.0000000E+00 -0.5050505E-02 -0.5116115E-05  0.0000000E+00 -0.1944098E-03
 -0.4503035E-02  0.0000000E+00 -0.5050505E-02 -0.4768639E-05  0.0000000E+00 -0.1964510E-03
 -0.4345206E-02  0.0000000E+00 -0.5050505E-02 -0.4425846E-05  0.0000000E+00 -0.1983471E-03
 -0.4187378E-02  0.0000000E+00 -0.5050505E-02 -0.4091010E-05  0.0000000E+00 -0.2000991E-03
 -0.3985156E-02  0.0000000E+00 -0.5050505E-02 -0.3769129E-05  0.0000000E+00 -0.2017087E-03
 -0.3669499E-02  0.0000000E+00 -0.5050505E-02 -0.3468158E-05  0.0000000E+00 -0.2031778E-03
 -0.3353842E-02  0.0000000E+00 -0.5050505E-02 -0.3201250E-05  0.0000000E+00 -0.2045081E-03
 -0.2978990E-02  0.0000000E+00 -0.5050505E-02 -0.2990865E-05  0.0000000E+00 -0.2056983E-03
 -0.2347676E-02  0.0000000E+00 -0.5050505E-02 -0.2876168E-05  0.0000000E+00 -0.2067369E-03
 -0.1716362E-02  0.0000000E+00 -0.5050505E-02 -0.2925341E-05  0.0000000E+00 -0.2075806E-03
 -0.1025842E-02  0.0000000E+00 -0.5050505E-02 -0.3250307E-05  0.0000000E+00 -0.2080977E-03
  0.2367855E-03  0.0000000E+00 -0.5050505E-02 -0.3993444E-05  0.0000000E+00 -0.2079326E-03
  0.1499413E-02  0.0000000E+00 -0.5050505E-02 -0.5112379E-05  0.0000000E+00 -0.2062915E-03
  0.5287294E-02  0.0000000E+00 -0.5050505E-02 -0.5116554E-05  0.0000000E+00 -0.2023539E-03
 -0.5050505E-02  0.0000000E+00 -0.5050505E-02  0.1117315E-06  0.0000000E+00 -0.2447914E-03
 -0.5050505E-02  0.0000000E+00 -0.5050505E-02  0.3353309E-06  0.0000000E+00 -0.2447248E-03
 -0.5050505E-02  0.0000000E+00 -0.5050505E-02  0.5593410E-06  0.0000000E+00 -0.2445915E-03
 -0.5050505E-02  0.0000000E+00 -0.5050505E-02  0.7840405E-06  0.0000000E+00 -0.2443914E-03
 -0.5050505E-02  0.0000000E+00 -0.5050505E-02  0.1009714E-05  0.0000000E+00 -0.2441241E-03
 -0.5050505E-02  0.0000000E+00 -0.5050505E-02  0.1236656E-05  0.0000000E+00 -0.2437895E-03
 -0.5050504E-02  0.0000000E+00 -0.5050505E-02  0.1465171E-05  0.0000000E+00 -0.2433871E-03
 -0.5050501E-02  0.0000000E+00 -0.5050505E-02  0.1695577E-05  0.0000000E+00 -0.2429163E-03
 -0.5050495E-02  0.0000000E+00 -0.5050505E-02  0.1928210E-05  0.0000000E+00 -0.2423767E-03
 -0.5050482E-02  0.0000000E+00 -0.5050505E-02  0.2163426E-05  0.0000000E+00 -0.2417674E-03
 -0.5050449E-02  0.0000000E+00 -0.5050505E-02  0.2401603E-05  0.0000000E+00 -0.2410878E-03
 -0.5050376E-02  0.0000000E+00 -0.5050505E-02  0.2643145E-05  0.0000000E+00 -0.2403369E-03
 -0.5050299E-02  0.0000000E+00 -0.5050505E-02  0.2888486E-05  0.0000000E+00 -0.2395137E-03
 -0.5050178E-02  0.0000000E+00 -0.5050505E-02  0.3138097E-05  0.0000000E+00 -0.2386170E-03
 -0.5050018E-02  0.0000000E+00 -0.5050505E-02  0.3392485E-05  0.0000000E+00 -0.2376455E-03
 -0.5049710E-02  0.0000000E+00 -0.5050505E-02  0.3652202E-05  0.0000000E+00 -0.2365978E-03
 -0.5049253E-02  0.0000000E+00 -0.5050505E-02  0.3917850E-05  0.0000000E+00 -0.2354723E-03
 -0.5048636E-02  0.0000000E+00 -0.5050505E-02  0.4190085E-05  0.0000000E+00 -0.2342671E-03
 -0.5047442E-02  0.0000000E+00 -0.5050505E-02  0.4469627E-05  0.0000000E+00 -0.2329804E-03
 -0.5045727E-02  0.0000000E+00 -0.5050505E-02  0.4757265E-05  0.0000000E+00 -0.2316098E-03
 -0.5043261E-02  0.0000000E+00 -0.5050505E-02  0.5053866E-05  0.0000000E+00 -0.2301529E-03
 -0.5038714E-02  0.0000000E+00 -0.5050505E-02  0.5360384E-05  0.0000000E+00 -0.2286071E-03
 -0.5032318E-02  0.0000000E+00 -0.5050505E-02  0.5677871E-05  0.0000000E+00 -0.2269693E-03
 -0.5022454E-02  0.0000000E+00 -0.5050505E-02  0.6007489E-05  0.0000000E+00 -0.2252363E-03
 -0.5012589E-02  0.0000000E+00 -0.5050505E-02  0.6350523E-05  0.0000000E+00 -0.2234045E-03
 -0.5002725E-02  0.0000000E+00 -0.5050505E-02  0.6708394E-05  0.0000000E+00 -0.2214697E-03
 -0.4992860E-02  0.0000000E+00 -0.5050505E-02  0.7082679E-05  0.0000000E+00 -0.2194275E-03
 -0.4976523E-02  0.0000000E+00 -0.5050505E-02  0.7475128E-05  0.0000000E+00 -0.2172731E-03
 -0.4956794E-02  0.0000000E+00 -0.5050505E-02  0.7887688E-05  0.0000000E+00 -0.2150011E-03
 -0.4937066E-02  0.0000000E+00 -0.5050505E-02  0.8322529E-05  0.0000000E+00 -0.2126053E-03