title = "dataset feddes"
variables = "x", "y", "z", "vx", "vy", "vz"
zone t = "velocities, solution time =  1.200E+01 days        " i =   99, j =   99, k =    1,  f=point
 -0.5050505E-02  0.0000000E+00 -0.5050505E-02  0.9387715E-11  0.0000000E+00 -0.5736515E-03
 -0.5050505E-02  0.0000000E+00 -0.5050505E-02  0.2777093E-10  0.0000000E+00 -0.5736515E-03
 -0.5050505E-02  0.0000000E+00 -0.5050505E-02  0.4591587E-10  0.0000000E+00 -0.5736514E-03
 -0.5050505E-02  0.0000000E+00 -0.5050505E-02  0.6373454E-10  0.0000000E+00 -0.5736513E-03
 -0.5050505E-02  0.0000000E+00 -0.5050505E-02  0.8110463E-10  0.0000000E+00 -0.5736511E-03
 -0.5050505E-02  0.0000000E+00 -0.5050505E-02  0.9792020E-10  0.0000000E+00 -0.5736509E-03
 -0.5050504E-02  0.0000000E+00 -0.5050505E-02  0.1140867E-09  0.0000000E+00 -0.5736507E-03
 -0.5050501E-02  0.0000000E+00 -0.5050505E-02  0.1295053E-09  0.0000000E+00 -0.5736504E-03
 -0.5050495E-02  0.0000000E+00 -0.5050505E-02  0.1440765E-09  0.0000000E+00 -0.5736502E-03
 -0.5050482E-02  0.0000000E+00 -0.5050505E-02  0.1576951E-09  0.0000000E+00 -0.5736498E-03
 -0.5050449E-02  0.0000000E+00 -0.5050505E-02  0.1702592E-09  0.0000000E+00 -0.5736495E-03
 -0.5050376E-02  0.0000000E+00 -0.5050505E-02  0.1816627E-09  0.0000000E+00 -0.5736491E-03
 -0.5050299E-02  0.0000000E+00 -0.5050505E-02  0.1918039E-09  0.0000000E+00 -0.5736487E-03
 -0.5050178E-02  0.0000000E+00 -0.5050505E-02  0.2005792E-09  0.0000000E+00 -0.5736483E-03
 -0.5050018E-02  0.0000000E+00 -0.5050505E-02  0.2078870E-09  0.0000000E+00 -0.5736479E-03
 -0.5049710E-02  0.0000000E+00 -0.5050505E-02  0.2136275E-09  0.0000000E+00 -0.5736474E-03
 -0.5049253E-02  0.0000000E+00 -0.5050505E-02  0.2177016E-09  0.0000000E+00 -0.5736469E-03
 -0.5048636E-02  0.0000000E+00 -0.5050505E-02  0.2200133E-09  0.0000000E+00 -0.5736465E-03
 -0.5047442E-02  0.0000000E+00 -0.5050505E-02  0.2204685E-09  0.0000000E+00 -0.5736460E-03
 -0.5045727E-02  0.0000000E+00 -0.5050505E-02  0.2189760E-09  0.0000000E+00 -0.5736455E-03
 -0.5043261E-02  0.0000000E+00 -0.5050505E-02  0.2154481E-09  0.0000000E+00 -0.5736451E-03
 -0.5038714E-02  0.0000000E+00 -0.5050505E-02  0.2097985E-09  0.0000000E+00 -0.5736446E-03
 -0.5032318E-02  0.0000000E+00 -0.5050505E-02  0.2019422E-09  0.0000000E+00 -0.5736442E-03
 -0.5022454E-02  0.0000000E+00 -0.5050505E-02  0.1917976E-09  0.0000000E+00 -0.5736438E-03
 -0.5012589E-02  0.0000000E+00 -0.5050505E-02  0.1792850E-09  0.0000000E+00 -0.5736434E-03
 -0.5002725E-02  0.0000000E+00 -0.5050505E-02  0.1643232E-09  0.0000000E+00 -0.5736430E-03
 -0.4992860E-02  0.0000000E+00 -0.5050505E-02  0.1468366E-09  0.0000000E+00 -0.5736427E-03
 -0.4976523E-02  0.0000000E+00 -0.5050505E-02  0.1267548E-09  0.0000000E+00 -0.5736424E-03
 -0.4956794E-02  0.0000000E+00 -0.5050505E-02  0.1040180E-09  0.0000000E+00 -0.5736421E-03
 -0.4937066E-02  0.0000000E+00 -0.5050505E-02  0.7844997E-10  0.0000000E+00 -0.5736419E-03
 -0.4906239E-02  0.0000000E+00 -0.5050505E-02  0.5014053E-10  0.0000000E+00 -0.5736418E-03
 -0.4866782E-02  0.0000000E+00 -0.5050505E-02  0.1900550E-10  0.0000000E+00 -0.5736417E-03
 -0.4827325E-02  0.0000000E+00 -0.5050505E-02 -0.1497989E-10  0.0000000E+00 -0.5736417E-03
 -0.4769372E-02  0.0000000E+00 -0.5050505E-02 -0.5179751E-10  0.0000000E+00 -0.5736418E-03
 -0.4690458E-02  0.0000000E+00 -0.5050505E-02 -0.9148159E-10  0.0000000E+00 -0.5736419E-03
 -0.4611543E-02  0.0000000E+00 -0.5050505E-02 -0.1340847E-09  0.0000000E+00 -0.5736422E-03
 -0.4503035E-02  0.0000000E+00 -0.5050505E-02 -0.1796469E-09  0.0000000E+00 -0.5736425E-03
 -0.4345206E-02  0.0000000E+00 -0.5050505E-02 -0.2282130E-09  0.0000000E+00 -0.5736429E-03
 -0.4187378E-02  0.0000000E+00 -0.5050505E-02 -0.2798454E-09  0.0000000E+00 -0.5736435E-03
 -0.3985156E-02  0.0000000E+00 -0.5050505E-02 -0.3346108E-09  0.0000000E+00 -0.5736441E-03
 -0.3669499E-02  0.0000000E+00 -0.5050505E-02 -0.3925621E-09  0.0000000E+00 -0.5736449E-03
 -0.3353842E-02  0.0000000E+00 -0.5050505E-02 -0.4537529E-09  0.0000000E+00 -0.5736458E-03
 -0.2978990E-02  0.0000000E+00 -0.5050505E-02 -0.5182682E-09  0.0000000E+00 -0.5736469E-03
 -0.2347676E-02  0.0000000E+00 -0.5050505E-02 -0.5862147E-09  0.0000000E+00 -0.5736480E-03
 -0.1716362E-02  0.0000000E+00 -0.5050505E-02 -0.6576967E-09  0.0000000E+00 -0.5736494E-03
 -0.1025842E-02  0.0000000E+00 -0.5050505E-02 -0.7328281E-09  0.0000000E+00 -0.5736509E-03
  0.2367855E-03  0.0000000E+00 -0.5050505E-02 -0.8117584E-09  0.0000000E+00 -0.5736525E-03
  0.1499413E-02  0.0000000E+00 -0.5050505E-02 -0.8946768E-09  0.0000000E+00 -0.5736543E-03
  0.2762042E-02  0.0000000E+00 -0.5050505E-02 -0.9817989E-09  0.0000000E+00 -0.5736563E-03
 -0.5050505E-02  0.0000000E+00 -0.5050505E-02 -0.1073370E-08  0.0000000E+00 -0.5736585E-03
 -0.5050505E-02  0.0000000E+00 -0.5050505E-02 -0.1169684E-08  0.0000000E+00 -0.5736609E-03
 -0.5050505E-02  0.0000000E+00 -0.5050505E-02 -0.1271093E-08  0.0000000E+00 -0.5736635E-03
 -0.5050505E-02  0.0000000E+00 -0.5050505E-02 -0.1378014E-08  0.0000000E+00 -0.5736664E-03
 -0.5050505E-02  0.0000000E+00 -0.5050505E-02 -0.1490935E-08  0.0000000E+00 -0.5736694E-03
 -0.5050505E-02  0.0000000E+00 -0.5050505E-02 -0.1610428E-08  0.0000000E+00 -0.5736727E-03
 -0.5050505E-02  0.0000000E+00 -0.5050505E-02 -0.1737162E-08  0.0000000E+00 -0.5736763E-03
 -0.5050504E-02  0.0000000E+00 -0.5050505E-02 -0.1871922E-08  0.0000000E+00 -0.5736801E-03
 -0.5050501E-02  0.0000000E+00 -0.5050505E-02 -0.2015636E-08  0.0000000E+00 -0.5736843E-03
 -0.5050495E-02  0.0000000E+00 -0.5050505E-02 -0.2169392E-08  0.0000000E+00 -0.5736888E-03
 -0.5050482E-02  0.0000000E+00 -0.5050505E-02 -0.2334461E-08  0.0000000E+00 -0.5736936E-03
 -0.5050449E-02  0.0000000E+00 -0.5050505E-02 -0.2512333E-08  0.0000000E+00 -0.5736987E-03
 -0.5050376E-02  0.0000000E+00 -0.5050505E-02 -0.2704768E-08  0.0000000E+00 -0.5737043E-03
 -0.5050299E-02  0.0000000E+00 -0.5050505E-02 -0.2913846E-08  0.0000000E+00 -0.5737103E-03
 -0.5050178E-02  0.0000000E+00 -0.5050505E-02 -0.3142019E-08  0.0000000E+00 -0.5737168E-03
 -0.5050018E-02  0.0000000E+00 -0.5050505E-02 -0.3392191E-08  0.0000000E+00 -0.5737238E-03
 -0.5049710E-02  0.0000000E+00 -0.5050505E-02 -0.3667816E-08  0.0000000E+00 -0.5737313E-03
 -0.5049253E-02  0.0000000E+00 -0.5050505E-02 -0.3973023E-08  0.0000000E+00 -0.5737394E-03
 -0.5048636E-02  0.0000000E+00 -0.5050505E-02 -0.4312761E-08  0.0000000E+00 -0.5737483E-03
 -0.5047442E-02  0.0000000E+00 -0.5050505E-02 -0.4692988E-08  0.0000000E+00 -0.5737579E-03
 -0.5045727E-02  0.0000000E+00 -0.5050505E-02 -0.5120918E-08  0.0000000E+00 -0.5737684E-03
 -0.5043261E-02  0.0000000E+00 -0.5050505E-02 -0.5605340E-08  0.0000000E+00 -0.5737798E-03
 -0.5038714E-02  0.0000000E+00 -0.5050505E-02 -0.6157025E-08  0.0000000E+00 -0.5737924E-03
 -0.5032318E-02  0.0000000E+00 -0.5050505E-02 -0.6789264E-08  0.0000000E+00 -0.5738062E-03
 -0.5022454E-02  0.0000000E+00 -0.5050505E-02 -0.7518582E-08  0.0000000E+00 -0.5738215E-03
 -0.5012589E-02  0.0000000E+00 -0.5050505E-02 -0.8365689E-08  0.0000000E+00 -0.5738384E-03
 -0.5002725E-02  0.0000000E+00 -0.5050505E-02 -0.9356776E-08  0.0000000E+00 -0.5738573E-03
 -0.4992860E-02  0.0000000E+00 -0.5050505E-02 -0.1052528E-07  0.0000000E+00 -0.5738786E-03
 -0.4976523E-02  0.0000000E+00 -0.5050505E-02 -0.1191432E-07  0.0000000E+00 -0.5739025E-03
 -0.4956794E-02  0.0000000E+00 -0.5050505E-02 -0.1358020E-07  0.0000000E+00 -0.5739297E-03
 -0.4937066E-02  0.0000000E+00 -0.5050505E-02 -0.1559727E-07  0.0000000E+00 -0.5739609E-03
 -0.4906239E-02  0.0000000E+00 -0.5050505E-02 -0.1806515E-07  0.0000000E+00 -0.5739968E-03
 -0.4866782E-02  0.0000000E+00 -0.5050505E-02 -0.2111935E-07  0.0000000E+00 -0.5740386E-03
 -0.4827325E-02  0.0000000E+00 -0.5050505E-02 -0.2494727E-07  0.0000000E+00 -0.5740878E-03
 -0.4769372E-02  0.0000000E+00 -0.5050505E-02 -0.2981304E-07  0.0000000E+00 -0.5741463E-03
 -0.4690458E-02  0.0000000E+00 -0.5050505E-02 -0.3609684E-07  0.0000000E+00 -0.5742166E-03
 -0.4611543E-02  0.0000000E+00 -0.5050505E-02 -0.4435904E-07  0.0000000E+00 -0.5743025E-03
 -0.4503035E-02  0.0000000E+00 -0.5050505E-02 -0.5544835E-07  0.0000000E+00 -0.5744091E-03
 -0.4345206E-02  0.0000000E+00 -0.5050505E-02 -0.7069064E-07  0.0000000E+00 -0.5745437E-03
 -0.4187378E-02  0.0000000E+00 -0.5050505E-02 -0.9223335E-07  0.0000000E+00 -0.5747176E-03
 -0.3985156E-02  0.0000000E+00 -0.5050505E-02 -0.1237043E-06  0.0000000E+00 -0.5749482E-03
 -0.3669499E-02  0.0000000E+00 -0.5050505E-02 -0.1715454E-06  0.0000000E+00 -0.5752634E-03
 -0.3353842E-02  0.0000000E+00 -0.5050505E-02 -0.2478972E-06  0.0000000E+00 -0.5757112E-03
 -0.2978990E-02  0.0000000E+00 -0.5050505E-02 -0.3773240E-06  0.0000000E+00 -0.5763787E-03
 -0.2347676E-02  0.0000000E+00 -0.5050505E-02 -0.6139097E-06  0.0000000E+00 -0.5774370E-03
 -0.1716362E-02  0.0000000E+00 -0.5050505E-02 -0.1088991E-05  0.0000000E+00 -0.5792555E-03
 -0.1025842E-02  0.0000000E+00 -0.5050505E-02 -0.2158167E-05  0.0000000E+00 -0.5827237E-03
  0.2367855E-03  0.0000000E+00 -0.5050505E-02 -0.4899742E-05  0.0000000E+00 -0.5902652E-03
  0.1499413E-02  0.0000000E+00 -0.5050505E-02 -0.1296080E-04  0.0000000E+00 -0.6093669E-03
  0.5287294E-02  0.0000000E+00 -0.5050505E-02 -0.2139187E-03  0.0000000E+00 -0.4854880E-03
 -0.5050505E-02  0.0000000E+00 -0.5050505E-02  0.2825084E-10  0.0000000E+00 -0.5729355E-03
 -0.5050505E-02  0.0000000E+00 -0.5050505E-02  0.8383572E-10  0.0000000E+00 -0.5729354E-03
 -0.5050505E-02  0.0000000E+00 -0.5050505E-02  0.1387628E-09  0.0000000E+00 -0.5729354E-03
 -0.5050505E-02  0.0000000E+00 -0.5050505E-02  0.1926423E-09  0.0000000E+00 -0.5729352E-03
 -0.5050505E-02  0.0000000E+00 -0.5050505E-02  0.2451374E-09  0.0000000E+00 -0.5729351E-03
 -0.5050505E-02  0.0000000E+00 -0.5050505E-02  0.2959542E-09  0.0000000E+00 -0.5729349E-03
 -0.5050504E-02  0.0000000E+00 -0.5050505E-02  0.3448160E-09  0.0000000E+00 -0.5729347E-03
 -0.5050501E-02  0.0000000E+00 -0.5050505E-02  0.3914279E-09  0.0000000E+00 -0.5729344E-03
 -0.5050495E-02  0.0000000E+00 -0.5050505E-02  0.4354913E-09  0.0000000E+00 -0.5729341E-03
 -0.5050482E-02  0.0000000E+00 -0.5050505E-02  0.4766885E-09  0.0000000E+00 -0.5729338E-03
 -0.5050449E-02  0.0000000E+00 -0.5050505E-02  0.5147127E-09  0.0000000E+00 -0.5729334E-03
 -0.5050376E-02  0.0000000E+00 -0.5050505E-02  0.5492441E-09  0.0000000E+00 -0.5729330E-03
 -0.5050299E-02  0.0000000E+00 -0.5050505E-02  0.5799757E-09  0.0000000E+00 -0.5729326E-03
 -0.5050178E-02  0.0000000E+00 -0.5050505E-02  0.6065961E-09  0.0000000E+00 -0.5729322E-03
 -0.5050018E-02  0.0000000E+00 -0.5050505E-02  0.6287990E-09  0.0000000E+00 -0.5729317E-03
 -0.5049710E-02  0.0000000E+00 -0.5050505E-02  0.6462835E-09  0.0000000E+00 -0.5729313E-03
 -0.5049253E-02  0.0000000E+00 -0.5050505E-02  0.6587519E-09  0.0000000E+00 -0.5729308E-03
 -0.5048636E-02  0.0000000E+00 -0.5050505E-02  0.6659152E-09  0.0000000E+00 -0.5729303E-03
 -0.5047442E-02  0.0000000E+00 -0.5050505E-02  0.6674903E-09  0.0000000E+00 -0.5729298E-03
 -0.5045727E-02  0.0000000E+00 -0.5050505E-02  0.6632019E-09  0.0000000E+00 -0.5729294E-03
 -0.5043261E-02  0.0000000E+00 -0.5050505E-02  0.6527868E-09  0.0000000E+00 -0.5729289E-03
 -0.5038714E-02  0.0000000E+00 -0.5050505E-02  0.6359877E-09  0.0000000E+00 -0.5729284E-03
 -0.5032318E-02  0.0000000E+00 -0.5050505E-02  0.6125478E-09  0.0000000E+00 -0.5729280E-03
 -0.5022454E-02  0.0000000E+00 -0.5050505E-02  0.5822177E-09  0.0000000E+00 -0.5729275E-03
 -0.5012589E-02  0.0000000E+00 -0.5050505E-02  0.5447605E-09  0.0000000E+00 -0.5729271E-03
 -0.5002725E-02  0.0000000E+00 -0.5050505E-02  0.4999384E-09  0.0000000E+00 -0.5729267E-03
 -0.4992860E-02  0.0000000E+00 -0.5050505E-02  0.4475198E-09  0.0000000E+00 -0.5729264E-03
 -0.4976523E-02  0.0000000E+00 -0.5050505E-02  0.3872804E-09  0.0000000E+00 -0.5729261E-03
 -0.4956794E-02  0.0000000E+00 -0.5050505E-02  0.3190027E-09  0.0000000E+00 -0.5729258E-03
 -0.4937066E-02  0.0000000E+00 -0.5050505E-02  0.2423242E-09  0.0000000E+00 -0.5729256E-03
 -0.4906239E-02  0.0000000E+00 -0.5050505E-02  0.1573566E-09  0.0000000E+00 -0.5729255E-03
 -0.4866782E-02  0.0000000E+00 -0.5050505E-02  0.6382414E-10  0.0000000E+00 -0.5729254E-03
 -0.4827325E-02  0.0000000E+00 -0.5050505E-02 -0.3829067E-10  0.0000000E+00 -0.5729254E-03
 -0.4769372E-02  0.0000000E+00 -0.5050505E-02 -0.1489033E-09  0.0000000E+00 -0.5729254E-03
 -0.4690458E-02  0.0000000E+00 -0.5050505E-02 -0.2681002E-09  0.0000000E+00 -0.5729256E-03
 -0.4611543E-02  0.0000000E+00 -0.5050505E-02 -0.3960621E-09  0.0000000E+00 -0.5729258E-03
 -0.4503035E-02  0.0000000E+00 -0.5050505E-02 -0.5329334E-09  0.0000000E+00 -0.5729261E-03
 -0.4345206E-02  0.0000000E+00 -0.5050505E-02 -0.6788350E-09  0.0000000E+00 -0.5729265E-03
 -0.4187378E-02  0.0000000E+00 -0.5050505E-02 -0.8339244E-09  0.0000000E+00 -0.5729271E-03
 -0.3985156E-02  0.0000000E+00 -0.5050505E-02 -0.9984067E-09  0.0000000E+00 -0.5729277E-03
 -0.3669499E-02  0.0000000E+00 -0.5050505E-02 -0.1172470E-08  0.0000000E+00 -0.5729285E-03
 -0.3353842E-02  0.0000000E+00 -0.5050505E-02 -0.1356271E-08  0.0000000E+00 -0.5729294E-03
 -0.2978990E-02  0.0000000E+00 -0.5050505E-02 -0.1550027E-08  0.0000000E+00 -0.5729304E-03
 -0.2347676E-02  0.0000000E+00 -0.5050505E-02 -0.1754047E-08  0.0000000E+00 -0.5729315E-03
 -0.1716362E-02  0.0000000E+00 -0.5050505E-02 -0.1968667E-08  0.0000000E+00 -0.5729329E-03
 -0.1025842E-02  0.0000000E+00 -0.5050505E-02 -0.2194238E-08  0.0000000E+00 -0.5729343E-03
  0.2367855E-03  0.0000000E+00 -0.5050505E-02 -0.2431182E-08  0.0000000E+00 -0.5729360E-03
  0.1499413E-02  0.0000000E+00 -0.5050505E-02 -0.2680044E-08  0.0000000E+00 -0.5729378E-03
  0.2762042E-02  0.0000000E+00 -0.5050505E-02 -0.2941472E-08  0.0000000E+00 -0.5729398E-03
 -0.5050505E-02  0.0000000E+00 -0.5050505E-02 -0.3216210E-08  0.0000000E+00 -0.5729420E-03
 -0.5050505E-02  0.0000000E+00 -0.5050505E-02 -0.3505129E-08  0.0000000E+00 -0.5729443E-03
 -0.5050505E-02  0.0000000E+00 -0.5050505E-02 -0.3809265E-08  0.0000000E+00 -0.5729469E-03
 -0.5050505E-02  0.0000000E+00 -0.5050505E-02 -0.4129854E-08  0.0000000E+00 -0.5729498E-03
 -0.5050505E-02  0.0000000E+00 -0.5050505E-02 -0.4468350E-08  0.0000000E+00 -0.5729528E-03
 -0.5050505E-02  0.0000000E+00 -0.5050505E-02 -0.4826457E-08  0.0000000E+00 -0.5729561E-03
 -0.5050505E-02  0.0000000E+00 -0.5050505E-02 -0.5206169E-08  0.0000000E+00 -0.5729597E-03
 -0.5050504E-02  0.0000000E+00 -0.5050505E-02 -0.5609821E-08  0.0000000E+00 -0.5729635E-03
 -0.5050501E-02  0.0000000E+00 -0.5050505E-02 -0.6040161E-08  0.0000000E+00 -0.5729676E-03
 -0.5050495E-02  0.0000000E+00 -0.5050505E-02 -0.6500424E-08  0.0000000E+00 -0.5729721E-03
 -0.5050482E-02  0.0000000E+00 -0.5050505E-02 -0.6994400E-08  0.0000000E+00 -0.5729769E-03
 -0.5050449E-02  0.0000000E+00 -0.5050505E-02 -0.7526523E-08  0.0000000E+00 -0.5729820E-03
 -0.5050376E-02  0.0000000E+00 -0.5050505E-02 -0.8102015E-08  0.0000000E+00 -0.5729876E-03
 -0.5050299E-02  0.0000000E+00 -0.5050505E-02 -0.8727048E-08  0.0000000E+00 -0.5729935E-03
 -0.5050178E-02  0.0000000E+00 -0.5050505E-02 -0.9408913E-08  0.0000000E+00 -0.5729999E-03
 -0.5050018E-02  0.0000000E+00 -0.5050505E-02 -0.1015623E-07  0.0000000E+00 -0.5730069E-03
 -0.5049710E-02  0.0000000E+00 -0.5050505E-02 -0.1097926E-07  0.0000000E+00 -0.5730144E-03
 -0.5049253E-02  0.0000000E+00 -0.5050505E-02 -0.1189023E-07  0.0000000E+00 -0.5730224E-03
 -0.5048636E-02  0.0000000E+00 -0.5050505E-02 -0.1290380E-07  0.0000000E+00 -0.5730312E-03
 -0.5047442E-02  0.0000000E+00 -0.5050505E-02 -0.1403763E-07  0.0000000E+00 -0.5730407E-03
 -0.5045727E-02  0.0000000E+00 -0.5050505E-02 -0.1531305E-07  0.0000000E+00 -0.5730511E-03
 -0.5043261E-02  0.0000000E+00 -0.5050505E-02 -0.1675605E-07  0.0000000E+00 -0.5730624E-03
 -0.5038714E-02  0.0000000E+00 -0.5050505E-02 -0.1839843E-07  0.0000000E+00 -0.5730748E-03
 -0.5032318E-02  0.0000000E+00 -0.5050505E-02 -0.2027939E-07  0.0000000E+00 -0.5730885E-03
 -0.5022454E-02  0.0000000E+00 -0.5050505E-02 -0.2244760E-07  0.0000000E+00 -0.5731035E-03
 -0.5012589E-02  0.0000000E+00 -0.5050505E-02 -0.2496399E-07  0.0000000E+00 -0.5731202E-03
 -0.5002725E-02  0.0000000E+00 -0.5050505E-02 -0.2790546E-07  0.0000000E+00 -0.5731388E-03
 -0.4992860E-02  0.0000000E+00 -0.5050505E-02 -0.3136999E-07  0.0000000E+00 -0.5731596E-03
 -0.4976523E-02  0.0000000E+00 -0.5050505E-02 -0.3548373E-07  0.0000000E+00 -0.5731830E-03
 -0.4956794E-02  0.0000000E+00 -0.5050505E-02 -0.4041089E-07  0.0000000E+00 -0.5732096E-03
 -0.4937066E-02  0.0000000E+00 -0.5050505E-02 -0.4636783E-07  0.0000000E+00 -0.5732399E-03
 -0.4906239E-02  0.0000000E+00 -0.5050505E-02 -0.5364340E-07  0.0000000E+00 -0.5732748E-03
 -0.4866782E-02  0.0000000E+00 -0.5050505E-02 -0.6262901E-07  0.0000000E+00 -0.5733152E-03
 -0.4827325E-02  0.0000000E+00 -0.5050505E-02 -0.7386355E-07  0.0000000E+00 -0.5733625E-03
 -0.4769372E-02  0.0000000E+00 -0.5050505E-02 -0.8810242E-07  0.0000000E+00 -0.5734184E-03
 -0.4690458E-02  0.0000000E+00 -0.5050505E-02 -0.1064258E-06  0.0000000E+00 -0.5734853E-03
 -0.4611543E-02  0.0000000E+00 -0.5050505E-02 -0.1304134E-06  0.0000000E+00 -0.5735663E-03
 -0.4503035E-02  0.0000000E+00 -0.5050505E-02 -0.1624335E-06  0.0000000E+00 -0.5736657E-03
 -0.4345206E-02  0.0000000E+00 -0.5050505E-02 -0.2061404E-06  0.0000000E+00 -0.5737898E-03
 -0.4187378E-02  0.0000000E+00 -0.5050505E-02 -0.2673575E-06  0.0000000E+00 -0.5739473E-03
 -0.3985156E-02  0.0000000E+00 -0.5050505E-02 -0.3557151E-06  0.0000000E+00 -0.5741512E-03
 -0.3669499E-02  0.0000000E+00 -0.5050505E-02 -0.4878312E-06  0.0000000E+00 -0.5744212E-03
 -0.3353842E-02  0.0000000E+00 -0.5050505E-02 -0.6938110E-06  0.0000000E+00 -0.5747869E-03
 -0.2978990E-02  0.0000000E+00 -0.5050505E-02 -0.1031300E-05  0.0000000E+00 -0.5752934E-03
 -0.2347676E-02  0.0000000E+00 -0.5050505E-02 -0.1617743E-05  0.0000000E+00 -0.5760049E-03
 -0.1716362E-02  0.0000000E+00 -0.5050505E-02 -0.2709186E-05  0.0000000E+00 -0.5769887E-03
 -0.1025842E-02  0.0000000E+00 -0.5050505E-02 -0.4904755E-05  0.0000000E+00 -0.5781865E-03
  0.2367855E-03  0.0000000E+00 -0.5050505E-02 -0.9707353E-05  0.0000000E+00 -0.5787274E-03
  0.1499413E-02  0.0000000E+00 -0.5050505E-02 -0.2113097E-04  0.0000000E+00 -0.5735741E-03
  0.5287294E-02  0.0000000E+00 -0.5050505E-02 -0.5043766E-04  0.0000000E+00 -0.5375594E-03
 -0.5050505E-02  0.0000000E+00 -0.5050505E-02  0.4755064E-10  0.0000000E+00 -0.5715530E-03
 -0.5050505E-02  0.0000000E+00 -0.5050505E-02  0.1415402E-09  0.0000000E+00 -0.5715529E-03
 -0.5050505E-02  0.0000000E+00 -0.5050505E-02  0.2345803E-09  0.0000000E+00 -0.5715529E-03
 -0.5050505E-02  0.0000000E+00 -0.5050505E-02  0.3257253E-09  0.0000000E+00 -0.5715527E-03
 -0.5050505E-02  0.0000000E+00 -0.5050505E-02  0.4144656E-09  0.0000000E+00 -0.5715526E-03
 -0.5050505E-02  0.0000000E+00 -0.5050505E-02  0.5003650E-09  0.0000000E+00 -0.5715524E-03
 -0.5050504E-02  0.0000000E+00 -0.5050505E-02  0.5829823E-09  0.0000000E+00 -0.5715521E-03
 -0.5050501E-02  0.0000000E+00 -0.5050505E-02  0.6618289E-09  0.0000000E+00 -0.5715518E-03
 -0.5050495E-02  0.0000000E+00 -0.5050505E-02  0.7364066E-09  0.0000000E+00 -0.5715515E-03
 -0.5050482E-02  0.0000000E+00 -0.5050505E-02  0.8061809E-09  0.0000000E+00 -0.5715512E-03
 -0.5050449E-02  0.0000000E+00 -0.5050505E-02  0.8706354E-09  0.0000000E+00 -0.5715508E-03
 -0.5050376E-02  0.0000000E+00 -0.5050505E-02  0.9292343E-09  0.0000000E+00 -0.5715504E-03
 -0.5050299E-02  0.0000000E+00 -0.5050505E-02  0.9814594E-09  0.0000000E+00 -0.5715500E-03
 -0.5050178E-02  0.0000000E+00 -0.5050505E-02  0.1026789E-08  0.0000000E+00 -0.5715495E-03
 -0.5050018E-02  0.0000000E+00 -0.5050505E-02  0.1064709E-08  0.0000000E+00 -0.5715491E-03
 -0.5049710E-02  0.0000000E+00 -0.5050505E-02  0.1094713E-08  0.0000000E+00 -0.5715486E-03
 -0.5049253E-02  0.0000000E+00 -0.5050505E-02  0.1116303E-08  0.0000000E+00 -0.5715481E-03
 -0.5048636E-02  0.0000000E+00 -0.5050505E-02  0.1128993E-08  0.0000000E+00 -0.5715476E-03
 -0.5047442E-02  0.0000000E+00 -0.5050505E-02  0.1132312E-08  0.0000000E+00 -0.5715471E-03
 -0.5045727E-02  0.0000000E+00 -0.5050505E-02  0.1125795E-08  0.0000000E+00 -0.5715466E-03
 -0.5043261E-02  0.0000000E+00 -0.5050505E-02  0.1108999E-08  0.0000000E+00 -0.5715461E-03
 -0.5038714E-02  0.0000000E+00 -0.5050505E-02  0.1081501E-08  0.0000000E+00 -0.5715456E-03
 -0.5032318E-02  0.0000000E+00 -0.5050505E-02  0.1042871E-08  0.0000000E+00 -0.5715451E-03
 -0.5022454E-02  0.0000000E+00 -0.5050505E-02  0.9926830E-09  0.0000000E+00 -0.5715446E-03
 -0.5012589E-02  0.0000000E+00 -0.5050505E-02  0.9305387E-09  0.0000000E+00 -0.5715442E-03
 -0.5002725E-02  0.0000000E+00 -0.5050505E-02  0.8560557E-09  0.0000000E+00 -0.5715438E-03
 -0.4992860E-02  0.0000000E+00 -0.5050505E-02  0.7688466E-09  0.0000000E+00 -0.5715434E-03
 -0.4976523E-02  0.0000000E+00 -0.5050505E-02  0.6685171E-09  0.0000000E+00 -0.5715431E-03
 -0.4956794E-02  0.0000000E+00 -0.5050505E-02  0.5546048E-09  0.0000000E+00 -0.5715428E-03
 -0.4937066E-02  0.0000000E+00 -0.5050505E-02  0.4268093E-09  0.0000000E+00 -0.5715426E-03
 -0.4906239E-02  0.0000000E+00 -0.5050505E-02  0.2850498E-09  0.0000000E+00 -0.5715424E-03
 -0.4866782E-02  0.0000000E+00 -0.5050505E-02  0.1288760E-09  0.0000000E+00 -0.5715423E-03
 -0.4827325E-02  0.0000000E+00 -0.5050505E-02 -0.4174448E-10  0.0000000E+00 -0.5715422E-03
 -0.4769372E-02  0.0000000E+00 -0.5050505E-02 -0.2265878E-09  0.0000000E+00 -0.5715422E-03
 -0.4690458E-02  0.0000000E+00 -0.5050505E-02 -0.4257163E-09  0.0000000E+00 -0.5715424E-03
 -0.4611543E-02  0.0000000E+00 -0.5050505E-02 -0.6394448E-09  0.0000000E+00 -0.5715426E-03
 -0.4503035E-02  0.0000000E+00 -0.5050505E-02 -0.8680801E-09  0.0000000E+00 -0.5715429E-03
 -0.4345206E-02  0.0000000E+00 -0.5050505E-02 -0.1111842E-08  0.0000000E+00 -0.5715432E-03
 -0.4187378E-02  0.0000000E+00 -0.5050505E-02 -0.1370929E-08  0.0000000E+00 -0.5715438E-03
 -0.3985156E-02  0.0000000E+00 -0.5050505E-02 -0.1645638E-08  0.0000000E+00 -0.5715444E-03
 -0.3669499E-02  0.0000000E+00 -0.5050505E-02 -0.1936327E-08  0.0000000E+00 -0.5715451E-03
 -0.3353842E-02  0.0000000E+00 -0.5050505E-02 -0.2243299E-08  0.0000000E+00 -0.5715460E-03
 -0.2978990E-02  0.0000000E+00 -0.5050505E-02 -0.2566854E-08  0.0000000E+00 -0.5715470E-03
 -0.2347676E-02  0.0000000E+00 -0.5050505E-02 -0.2907436E-08  0.0000000E+00 -0.5715481E-03
 -0.1716362E-02  0.0000000E+00 -0.5050505E-02 -0.3265618E-08  0.0000000E+00 -0.5715494E-03
 -0.1025842E-02  0.0000000E+00 -0.5050505E-02 -0.3642018E-08  0.0000000E+00 -0.5715509E-03
  0.2367855E-03  0.0000000E+00 -0.5050505E-02 -0.4037313E-08  0.0000000E+00 -0.5715525E-03
  0.1499413E-02  0.0000000E+00 -0.5050505E-02 -0.4452348E-08  0.0000000E+00 -0.5715543E-03
  0.2762042E-02  0.0000000E+00 -0.5050505E-02 -0.4888171E-08  0.0000000E+00 -0.5715563E-03
 -0.5050505E-02  0.0000000E+00 -0.5050505E-02 -0.5346019E-08  0.0000000E+00 -0.5715584E-03
 -0.5050505E-02  0.0000000E+00 -0.5050505E-02 -0.5827327E-08  0.0000000E+00 -0.5715608E-03
 -0.5050505E-02  0.0000000E+00 -0.5050505E-02 -0.6333783E-08  0.0000000E+00 -0.5715634E-03
 -0.5050505E-02  0.0000000E+00 -0.5050505E-02 -0.6867394E-08  0.0000000E+00 -0.5715662E-03
 -0.5050505E-02  0.0000000E+00 -0.5050505E-02 -0.7430530E-08  0.0000000E+00 -0.5715692E-03
 -0.5050505E-02  0.0000000E+00 -0.5050505E-02 -0.8025989E-08  0.0000000E+00 -0.5715725E-03
 -0.5050505E-02  0.0000000E+00 -0.5050505E-02 -0.8657048E-08  0.0000000E+00 -0.5715760E-03
 -0.5050504E-02  0.0000000E+00 -0.5050505E-02 -0.9327535E-08  0.0000000E+00 -0.5715798E-03
 -0.5050501E-02  0.0000000E+00 -0.5050505E-02 -0.1004193E-07  0.0000000E+00 -0.5715839E-03
 -0.5050495E-02  0.0000000E+00 -0.5050505E-02 -0.1080553E-07  0.0000000E+00 -0.5715883E-03
 -0.5050482E-02  0.0000000E+00 -0.5050505E-02 -0.1162454E-07  0.0000000E+00 -0.5715930E-03
 -0.5050449E-02  0.0000000E+00 -0.5050505E-02 -0.1250623E-07  0.0000000E+00 -0.5715981E-03
 -0.5050376E-02  0.0000000E+00 -0.5050505E-02 -0.1345914E-07  0.0000000E+00 -0.5716036E-03
 -0.5050299E-02  0.0000000E+00 -0.5050505E-02 -0.1449333E-07  0.0000000E+00 -0.5716095E-03
 -0.5050178E-02  0.0000000E+00 -0.5050505E-02 -0.1562072E-07  0.0000000E+00 -0.5716159E-03
 -0.5050018E-02  0.0000000E+00 -0.5050505E-02 -0.1685538E-07  0.0000000E+00 -0.5716227E-03
 -0.5049710E-02  0.0000000E+00 -0.5050505E-02 -0.1821402E-07  0.0000000E+00 -0.5716301E-03
 -0.5049253E-02  0.0000000E+00 -0.5050505E-02 -0.1971656E-07  0.0000000E+00 -0.5716380E-03
 -0.5048636E-02  0.0000000E+00 -0.5050505E-02 -0.2138682E-07  0.0000000E+00 -0.5716467E-03
 -0.5047442E-02  0.0000000E+00 -0.5050505E-02 -0.2325347E-07  0.0000000E+00 -0.5716560E-03
 -0.5045727E-02  0.0000000E+00 -0.5050505E-02 -0.2535108E-07  0.0000000E+00 -0.5716662E-03
 -0.5043261E-02  0.0000000E+00 -0.5050505E-02 -0.2772169E-07  0.0000000E+00 -0.5716772E-03
 -0.5038714E-02  0.0000000E+00 -0.5050505E-02 -0.3041664E-07  0.0000000E+00 -0.5716894E-03
 -0.5032318E-02  0.0000000E+00 -0.5050505E-02 -0.3349905E-07  0.0000000E+00 -0.5717026E-03
 -0.5022454E-02  0.0000000E+00 -0.5050505E-02 -0.3704712E-07  0.0000000E+00 -0.5717172E-03
 -0.5012589E-02  0.0000000E+00 -0.5050505E-02 -0.4115841E-07  0.0000000E+00 -0.5717334E-03
 -0.5002725E-02  0.0000000E+00 -0.5050505E-02 -0.4595567E-07  0.0000000E+00 -0.5717513E-03
 -0.4992860E-02  0.0000000E+00 -0.5050505E-02 -0.5159476E-07  0.0000000E+00 -0.5717713E-03
 -0.4976523E-02  0.0000000E+00 -0.5050505E-02 -0.5827545E-07  0.0000000E+00 -0.5717938E-03
 -0.4956794E-02  0.0000000E+00 -0.5050505E-02 -0.6625649E-07  0.0000000E+00 -0.5718191E-03
 -0.4937066E-02  0.0000000E+00 -0.5050505E-02 -0.7587693E-07  0.0000000E+00 -0.5718478E-03
 -0.4906239E-02  0.0000000E+00 -0.5050505E-02 -0.8758650E-07  0.0000000E+00 -0.5718806E-03
 -0.4866782E-02  0.0000000E+00 -0.5050505E-02 -0.1019899E-06  0.0000000E+00 -0.5719183E-03
 -0.4827325E-02  0.0000000E+00 -0.5050505E-02 -0.1199123E-06  0.0000000E+00 -0.5719621E-03
 -0.4769372E-02  0.0000000E+00 -0.5050505E-02 -0.1424980E-06  0.0000000E+00 -0.5720133E-03
 -0.4690458E-02  0.0000000E+00 -0.5050505E-02 -0.1713625E-06  0.0000000E+00 -0.5720737E-03
 -0.4611543E-02  0.0000000E+00 -0.5050505E-02 -0.2088310E-06  0.0000000E+00 -0.5721456E-03
 -0.4503035E-02  0.0000000E+00 -0.5050505E-02 -0.2583235E-06  0.0000000E+00 -0.5722321E-03
 -0.4345206E-02  0.0000000E+00 -0.5050505E-02 -0.3249890E-06  0.0000000E+00 -0.5723371E-03
 -0.4187378E-02  0.0000000E+00 -0.5050505E-02 -0.4167828E-06  0.0000000E+00 -0.5724658E-03
 -0.3985156E-02  0.0000000E+00 -0.5050505E-02 -0.5463415E-06  0.0000000E+00 -0.5726247E-03
 -0.3669499E-02  0.0000000E+00 -0.5050505E-02 -0.7343370E-06  0.0000000E+00 -0.5728213E-03
 -0.3353842E-02  0.0000000E+00 -0.5050505E-02 -0.1015609E-05  0.0000000E+00 -0.5730623E-03
 -0.2978990E-02  0.0000000E+00 -0.5050505E-02 -0.1450522E-05  0.0000000E+00 -0.5733473E-03
 -0.2347676E-02  0.0000000E+00 -0.5050505E-02 -0.2145758E-05  0.0000000E+00 -0.5736486E-03
 -0.1716362E-02  0.0000000E+00 -0.5050505E-02 -0.3289793E-05  0.0000000E+00 -0.5738528E-03
 -0.1025842E-02  0.0000000E+00 -0.5050505E-02 -0.5198375E-05  0.0000000E+00 -0.5736008E-03
  0.2367855E-03  0.0000000E+00 -0.5050505E-02 -0.8290092E-05  0.0000000E+00 -0.5718967E-03
  0.1499413E-02  0.0000000E+00 -0.5050505E-02 -0.1250984E-04  0.0000000E+00 -0.5664564E-03
  0.5287294E-02  0.0000000E+00 -0.5050505E-02 -0.1377998E-04  0.0000000E+00 -0.5547866E-03
 -0.5050505E-02  0.0000000E+00 -0.5050505E-02  0.6772630E-10  0.0000000E+00 -0.5695506E-03
 -0.5050505E-02  0.0000000E+00 -0.5050505E-02  0.2020508E-09  0.0000000E+00 -0.5695506E-03
 -0.5050505E-02  0.0000000E+00 -0.5050505E-02  0.3352341E-09  0.0000000E+00 -0.5695505E-03
 -0.5050505E-02  0.0000000E+00 -0.5050505E-02  0.4655544E-09  0.0000000E+00 -0.5695504E-03
 -0.5050505E-02  0.0000000E+00 -0.5050505E-02  0.5923536E-09  0.0000000E+00 -0.5695502E-03
 -0.5050505E-02  0.0000000E+00 -0.5050505E-02  0.7150973E-09  0.0000000E+00 -0.5695500E-03
 -0.5050504E-02  0.0000000E+00 -0.5050505E-02  0.8331991E-09  0.0000000E+00 -0.5695497E-03
 -0.5050501E-02  0.0000000E+00 -0.5050505E-02  0.9459788E-09  0.0000000E+00 -0.5695494E-03
 -0.5050495E-02  0.0000000E+00 -0.5050505E-02  0.1052736E-08  0.0000000E+00 -0.5695491E-03
 -0.5050482E-02  0.0000000E+00 -0.5050505E-02  0.1152714E-08  0.0000000E+00 -0.5695488E-03
 -0.5050449E-02  0.0000000E+00 -0.5050505E-02  0.1245181E-08  0.0000000E+00 -0.5695484E-03
 -0.5050376E-02  0.0000000E+00 -0.5050505E-02  0.1329379E-08  0.0000000E+00 -0.5695479E-03
 -0.5050299E-02  0.0000000E+00 -0.5050505E-02  0.1404572E-08  0.0000000E+00 -0.5695475E-03
 -0.5050178E-02  0.0000000E+00 -0.5050505E-02  0.1470024E-08  0.0000000E+00 -0.5695470E-03
 -0.5050018E-02  0.0000000E+00 -0.5050505E-02  0.1525005E-08  0.0000000E+00 -0.5695465E-03
 -0.5049710E-02  0.0000000E+00 -0.5050505E-02  0.1568802E-08  0.0000000E+00 -0.5695460E-03
 -0.5049253E-02  0.0000000E+00 -0.5050505E-02  0.1600708E-08  0.0000000E+00 -0.5695455E-03
 -0.5048636E-02  0.0000000E+00 -0.5050505E-02  0.1620038E-08  0.0000000E+00 -0.5695449E-03
 -0.5047442E-02  0.0000000E+00 -0.5050505E-02  0.1626127E-08  0.0000000E+00 -0.5695444E-03
 -0.5045727E-02  0.0000000E+00 -0.5050505E-02  0.1618325E-08  0.0000000E+00 -0.5695438E-03
 -0.5043261E-02  0.0000000E+00 -0.5050505E-02  0.1595998E-08  0.0000000E+00 -0.5695433E-03
 -0.5038714E-02  0.0000000E+00 -0.5050505E-02  0.1558549E-08  0.0000000E+00 -0.5695428E-03
 -0.5032318E-02  0.0000000E+00 -0.5050505E-02  0.1505388E-08  0.0000000E+00 -0.5695422E-03
 -0.5022454E-02  0.0000000E+00 -0.5050505E-02  0.1435910E-08  0.0000000E+00 -0.5695417E-03
 -0.5012589E-02  0.0000000E+00 -0.5050505E-02  0.1349534E-08  0.0000000E+00 -0.5695413E-03
 -0.5002725E-02  0.0000000E+00 -0.5050505E-02  0.1245736E-08  0.0000000E+00 -0.5695408E-03
 -0.4992860E-02  0.0000000E+00 -0.5050505E-02  0.1123984E-08  0.0000000E+00 -0.5695404E-03
 -0.4976523E-02  0.0000000E+00 -0.5050505E-02  0.9837151E-09  0.0000000E+00 -0.5695400E-03
 -0.4956794E-02  0.0000000E+00 -0.5050505E-02  0.8241620E-09  0.0000000E+00 -0.5695397E-03
 -0.4937066E-02  0.0000000E+00 -0.5050505E-02  0.6451810E-09  0.0000000E+00 -0.5695394E-03