title = "dataset feddes"
variables = "x", "y", "z", "vx", "vy", "vz"
zone t = "velocities, solution time =  5.500E+01 days        " i =   99, j =   99, k =    1,  f=point
 -0.5050505E-02  0.0000000E+00 -0.5050505E-02  0.8347805E-07  0.0000000E+00  0.5814186E-04
 -0.5050505E-02  0.0000000E+00 -0.5050505E-02  0.2507142E-06  0.0000000E+00  0.5847942E-04
 -0.5050505E-02  0.0000000E+00 -0.5050505E-02  0.4187995E-06  0.0000000E+00  0.5915571E-04
 -0.5050505E-02  0.0000000E+00 -0.5050505E-02  0.5883176E-06  0.0000000E+00  0.6017312E-04
 -0.5050505E-02  0.0000000E+00 -0.5050505E-02  0.7598710E-06  0.0000000E+00  0.6153524E-04
 -0.5050505E-02  0.0000000E+00 -0.5050505E-02  0.9340869E-06  0.0000000E+00  0.6324700E-04
 -0.5050504E-02  0.0000000E+00 -0.5050505E-02  0.1111624E-05  0.0000000E+00  0.6531464E-04
 -0.5050501E-02  0.0000000E+00 -0.5050505E-02  0.1293179E-05  0.0000000E+00  0.6774584E-04
 -0.5050495E-02  0.0000000E+00 -0.5050505E-02  0.1479495E-05  0.0000000E+00  0.7054978E-04
 -0.5050482E-02  0.0000000E+00 -0.5050505E-02  0.1671371E-05  0.0000000E+00  0.7373726E-04
 -0.5050449E-02  0.0000000E+00 -0.5050505E-02  0.1869671E-05  0.0000000E+00  0.7732086E-04
 -0.5050376E-02  0.0000000E+00 -0.5050505E-02  0.2075336E-05  0.0000000E+00  0.8131502E-04
 -0.5050299E-02  0.0000000E+00 -0.5050505E-02  0.2289393E-05  0.0000000E+00  0.8573630E-04
 -0.5050178E-02  0.0000000E+00 -0.5050505E-02  0.2512974E-05  0.0000000E+00  0.9060351E-04
 -0.5050018E-02  0.0000000E+00 -0.5050505E-02  0.2747329E-05  0.0000000E+00  0.9593801E-04
 -0.5049710E-02  0.0000000E+00 -0.5050505E-02  0.2993843E-05  0.0000000E+00  0.1017640E-03
 -0.5049253E-02  0.0000000E+00 -0.5050505E-02  0.3254059E-05  0.0000000E+00  0.1081086E-03
 -0.5048636E-02  0.0000000E+00 -0.5050505E-02  0.3529699E-05  0.0000000E+00  0.1150028E-03
 -0.5047442E-02  0.0000000E+00 -0.5050505E-02  0.3822693E-05  0.0000000E+00  0.1224811E-03
 -0.5045727E-02  0.0000000E+00 -0.5050505E-02  0.4135209E-05  0.0000000E+00  0.1305828E-03
 -0.5043261E-02  0.0000000E+00 -0.5050505E-02  0.4469685E-05  0.0000000E+00  0.1393517E-03
 -0.5038714E-02  0.0000000E+00 -0.5050505E-02  0.4828868E-05  0.0000000E+00  0.1488377E-03
 -0.5032318E-02  0.0000000E+00 -0.5050505E-02  0.5215852E-05  0.0000000E+00  0.1590968E-03
 -0.5022454E-02  0.0000000E+00 -0.5050505E-02  0.5634118E-05  0.0000000E+00  0.1701921E-03
 -0.5012589E-02  0.0000000E+00 -0.5050505E-02  0.6087575E-05  0.0000000E+00  0.1821951E-03
 -0.5002725E-02  0.0000000E+00 -0.5050505E-02  0.6580581E-05  0.0000000E+00  0.1951863E-03
 -0.4992860E-02  0.0000000E+00 -0.5050505E-02  0.7117959E-05  0.0000000E+00  0.2092563E-03
 -0.4976523E-02  0.0000000E+00 -0.5050505E-02  0.7704967E-05  0.0000000E+00  0.2245074E-03
 -0.4956794E-02  0.0000000E+00 -0.5050505E-02  0.8347231E-05  0.0000000E+00  0.2410538E-03
 -0.4937066E-02  0.0000000E+00 -0.5050505E-02  0.9050596E-05  0.0000000E+00  0.2590235E-03
 -0.4906239E-02  0.0000000E+00 -0.5050505E-02  0.9820895E-05  0.0000000E+00  0.2785578E-03
 -0.4866782E-02  0.0000000E+00 -0.5050505E-02  0.1066364E-04  0.0000000E+00  0.2998121E-03
 -0.4827325E-02  0.0000000E+00 -0.5050505E-02  0.1158369E-04  0.0000000E+00  0.3229551E-03
 -0.4769372E-02  0.0000000E+00 -0.5050505E-02  0.1258516E-04  0.0000000E+00  0.3481675E-03
 -0.4690458E-02  0.0000000E+00 -0.5050505E-02  0.1367194E-04  0.0000000E+00  0.3756420E-03
 -0.4611543E-02  0.0000000E+00 -0.5050505E-02  0.1484999E-04  0.0000000E+00  0.4055857E-03
 -0.4503035E-02  0.0000000E+00 -0.5050505E-02  0.1613312E-04  0.0000000E+00  0.4382311E-03
 -0.4345206E-02  0.0000000E+00 -0.5050505E-02  0.1755590E-04  0.0000000E+00  0.4738677E-03
 -0.4187378E-02  0.0000000E+00 -0.5050505E-02  0.1920096E-04  0.0000000E+00  0.5129169E-03
 -0.3985156E-02  0.0000000E+00 -0.5050505E-02  0.2125926E-04  0.0000000E+00  0.5561034E-03
 -0.3669499E-02  0.0000000E+00 -0.5050505E-02  0.2418190E-04  0.0000000E+00  0.6048607E-03
 -0.3353842E-02  0.0000000E+00 -0.5050505E-02  0.2913179E-04  0.0000000E+00  0.6624063E-03
 -0.2978990E-02  0.0000000E+00 -0.5050505E-02  0.3953236E-04  0.0000000E+00  0.7370526E-03
 -0.2347676E-02  0.0000000E+00 -0.5050505E-02  0.6698067E-04  0.0000000E+00  0.8539672E-03
 -0.1716362E-02  0.0000000E+00 -0.5050505E-02  0.7006810E-04  0.0000000E+00  0.1006331E-02
 -0.1025842E-02  0.0000000E+00 -0.5050505E-02  0.4731051E-04  0.0000000E+00  0.1138929E-02
  0.2367855E-03  0.0000000E+00 -0.5050505E-02  0.2468711E-04  0.0000000E+00  0.1221520E-02
  0.1499413E-02  0.0000000E+00 -0.5050505E-02  0.3794494E-04  0.0000000E+00  0.1294259E-02
  0.2762042E-02  0.0000000E+00 -0.5050505E-02  0.2445825E-04  0.0000000E+00  0.1367215E-02
 -0.5050505E-02  0.0000000E+00 -0.5050505E-02  0.5365387E-04  0.0000000E+00  0.1459532E-02
 -0.5050505E-02  0.0000000E+00 -0.5050505E-02  0.8640284E-04  0.0000000E+00  0.1626916E-02
 -0.5050505E-02  0.0000000E+00 -0.5050505E-02  0.5743873E-04  0.0000000E+00  0.1801454E-02
 -0.5050505E-02  0.0000000E+00 -0.5050505E-02  0.9356754E-04  0.0000000E+00  0.1989187E-02
 -0.5050505E-02  0.0000000E+00 -0.5050505E-02  0.1565866E-03  0.0000000E+00  0.2307346E-02
 -0.5050505E-02  0.0000000E+00 -0.5050505E-02  0.7609689E-04  0.0000000E+00  0.2610705E-02
 -0.5050505E-02  0.0000000E+00 -0.5050505E-02  0.1373982E-03  0.0000000E+00  0.2901760E-02
 -0.5050504E-02  0.0000000E+00 -0.5050505E-02 -0.2592294E-03  0.0000000E+00  0.2746392E-02
 -0.5050501E-02  0.0000000E+00 -0.5050505E-02 -0.1269799E-03  0.0000000E+00  0.2239645E-02
 -0.5050495E-02  0.0000000E+00 -0.5050505E-02 -0.6735630E-04  0.0000000E+00  0.1992492E-02
 -0.5050482E-02  0.0000000E+00 -0.5050505E-02 -0.3453042E-04  0.0000000E+00  0.1864953E-02
 -0.5050449E-02  0.0000000E+00 -0.5050505E-02 -0.2163586E-04  0.0000000E+00  0.1795262E-02
 -0.5050376E-02  0.0000000E+00 -0.5050505E-02 -0.7350157E-04  0.0000000E+00  0.1679493E-02
 -0.5050299E-02  0.0000000E+00 -0.5050505E-02 -0.3951504E-04  0.0000000E+00  0.1543128E-02
 -0.5050178E-02  0.0000000E+00 -0.5050505E-02 -0.3892342E-04  0.0000000E+00  0.1449649E-02
 -0.5050018E-02  0.0000000E+00 -0.5050505E-02 -0.3641141E-04  0.0000000E+00  0.1360777E-02
 -0.5049710E-02  0.0000000E+00 -0.5050505E-02 -0.3066950E-04  0.0000000E+00  0.1282345E-02
 -0.5049253E-02  0.0000000E+00 -0.5050505E-02 -0.2476238E-04  0.0000000E+00  0.1218018E-02
 -0.5048636E-02  0.0000000E+00 -0.5050505E-02 -0.2205831E-04  0.0000000E+00  0.1164034E-02
 -0.5047442E-02  0.0000000E+00 -0.5050505E-02 -0.4805303E-04  0.0000000E+00  0.1084153E-02
 -0.5045727E-02  0.0000000E+00 -0.5050505E-02 -0.3782553E-04  0.0000000E+00  0.9871280E-03
 -0.5043261E-02  0.0000000E+00 -0.5050505E-02 -0.3249116E-04  0.0000000E+00  0.9084401E-03
 -0.5038714E-02  0.0000000E+00 -0.5050505E-02 -0.2925576E-04  0.0000000E+00  0.8399083E-03
 -0.5032318E-02  0.0000000E+00 -0.5050505E-02 -0.2669237E-04  0.0000000E+00  0.7782671E-03
 -0.5022454E-02  0.0000000E+00 -0.5050505E-02 -0.2429682E-04  0.0000000E+00  0.7224613E-03
 -0.5012589E-02  0.0000000E+00 -0.5050505E-02 -0.2200042E-04  0.0000000E+00  0.6720941E-03
 -0.5002725E-02  0.0000000E+00 -0.5050505E-02 -0.1985450E-04  0.0000000E+00  0.6268055E-03
 -0.4992860E-02  0.0000000E+00 -0.5050505E-02 -0.1790373E-04  0.0000000E+00  0.5861481E-03
 -0.4976523E-02  0.0000000E+00 -0.5050505E-02 -0.1616064E-04  0.0000000E+00  0.5496287E-03
 -0.4956794E-02  0.0000000E+00 -0.5050505E-02 -0.1461387E-04  0.0000000E+00  0.5167664E-03
 -0.4937066E-02  0.0000000E+00 -0.5050505E-02 -0.1324075E-04  0.0000000E+00  0.4871280E-03
 -0.4906239E-02  0.0000000E+00 -0.5050505E-02 -0.1201593E-04  0.0000000E+00  0.4603404E-03
 -0.4866782E-02  0.0000000E+00 -0.5050505E-02 -0.1091570E-04  0.0000000E+00  0.4360899E-03
 -0.4827325E-02  0.0000000E+00 -0.5050505E-02 -0.9919610E-05  0.0000000E+00  0.4141146E-03
 -0.4769372E-02  0.0000000E+00 -0.5050505E-02 -0.9010636E-05  0.0000000E+00  0.3941966E-03
 -0.4690458E-02  0.0000000E+00 -0.5050505E-02 -0.8174750E-05  0.0000000E+00  0.3761538E-03
 -0.4611543E-02  0.0000000E+00 -0.5050505E-02 -0.7400360E-05  0.0000000E+00  0.3598339E-03
 -0.4503035E-02  0.0000000E+00 -0.5050505E-02 -0.6677733E-05  0.0000000E+00  0.3451088E-03
 -0.4345206E-02  0.0000000E+00 -0.5050505E-02 -0.5998470E-05  0.0000000E+00  0.3318713E-03
 -0.4187378E-02  0.0000000E+00 -0.5050505E-02 -0.5355008E-05  0.0000000E+00  0.3200321E-03
 -0.3985156E-02  0.0000000E+00 -0.5050505E-02 -0.4740040E-05  0.0000000E+00  0.3095185E-03
 -0.3669499E-02  0.0000000E+00 -0.5050505E-02 -0.4145694E-05  0.0000000E+00  0.3002747E-03
 -0.3353842E-02  0.0000000E+00 -0.5050505E-02 -0.3562014E-05  0.0000000E+00  0.2922642E-03
 -0.2978990E-02  0.0000000E+00 -0.5050505E-02 -0.2973689E-05  0.0000000E+00  0.2854773E-03
 -0.2347676E-02  0.0000000E+00 -0.5050505E-02 -0.2351959E-05  0.0000000E+00  0.2799507E-03
 -0.1716362E-02  0.0000000E+00 -0.5050505E-02 -0.1632324E-05  0.0000000E+00  0.2758181E-03
 -0.1025842E-02  0.0000000E+00 -0.5050505E-02 -0.6465829E-06  0.0000000E+00  0.2734551E-03
  0.2367855E-03  0.0000000E+00 -0.5050505E-02  0.1105171E-05  0.0000000E+00  0.2739305E-03
  0.1499413E-02  0.0000000E+00 -0.5050505E-02  0.5288413E-05  0.0000000E+00  0.2805609E-03
  0.5287294E-02  0.0000000E+00 -0.5050505E-02  0.9806330E-04  0.0000000E+00  0.2231297E-03
 -0.5050505E-02  0.0000000E+00 -0.5050505E-02  0.2499719E-06  0.0000000E+00  0.5809905E-04
 -0.5050505E-02  0.0000000E+00 -0.5050505E-02  0.7507564E-06  0.0000000E+00  0.5843572E-04
 -0.5050505E-02  0.0000000E+00 -0.5050505E-02  0.1254087E-05  0.0000000E+00  0.5911021E-04
 -0.5050505E-02  0.0000000E+00 -0.5050505E-02  0.1761709E-05  0.0000000E+00  0.6012487E-04
 -0.5050505E-02  0.0000000E+00 -0.5050505E-02  0.2275423E-05  0.0000000E+00  0.6148327E-04
 -0.5050505E-02  0.0000000E+00 -0.5050505E-02  0.2797105E-05  0.0000000E+00  0.6319027E-04
 -0.5050504E-02  0.0000000E+00 -0.5050505E-02  0.3328722E-05  0.0000000E+00  0.6525206E-04
 -0.5050501E-02  0.0000000E+00 -0.5050505E-02  0.3872358E-05  0.0000000E+00  0.6767624E-04
 -0.5050495E-02  0.0000000E+00 -0.5050505E-02  0.4430233E-05  0.0000000E+00  0.7047191E-04
 -0.5050482E-02  0.0000000E+00 -0.5050505E-02  0.5004735E-05  0.0000000E+00  0.7364976E-04
 -0.5050449E-02  0.0000000E+00 -0.5050505E-02  0.5598446E-05  0.0000000E+00  0.7722223E-04
 -0.5050376E-02  0.0000000E+00 -0.5050505E-02  0.6214173E-05  0.0000000E+00  0.8120364E-04
 -0.5050299E-02  0.0000000E+00 -0.5050505E-02  0.6854991E-05  0.0000000E+00  0.8561036E-04
 -0.5050178E-02  0.0000000E+00 -0.5050505E-02  0.7524279E-05  0.0000000E+00  0.9046102E-04
 -0.5050018E-02  0.0000000E+00 -0.5050505E-02  0.8225767E-05  0.0000000E+00  0.9577675E-04
 -0.5049710E-02  0.0000000E+00 -0.5050505E-02  0.8963595E-05  0.0000000E+00  0.1015814E-03
 -0.5049253E-02  0.0000000E+00 -0.5050505E-02  0.9742368E-05  0.0000000E+00  0.1079021E-03
 -0.5048636E-02  0.0000000E+00 -0.5050505E-02  0.1056723E-04  0.0000000E+00  0.1147690E-03
 -0.5047442E-02  0.0000000E+00 -0.5050505E-02  0.1144395E-04  0.0000000E+00  0.1222167E-03
 -0.5045727E-02  0.0000000E+00 -0.5050505E-02  0.1237899E-04  0.0000000E+00  0.1302836E-03
 -0.5043261E-02  0.0000000E+00 -0.5050505E-02  0.1337964E-04  0.0000000E+00  0.1390133E-03
 -0.5038714E-02  0.0000000E+00 -0.5050505E-02  0.1445411E-04  0.0000000E+00  0.1484549E-03
 -0.5032318E-02  0.0000000E+00 -0.5050505E-02  0.1561163E-04  0.0000000E+00  0.1586638E-03
 -0.5022454E-02  0.0000000E+00 -0.5050505E-02  0.1686263E-04  0.0000000E+00  0.1697024E-03
 -0.5012589E-02  0.0000000E+00 -0.5050505E-02  0.1821880E-04  0.0000000E+00  0.1816413E-03
 -0.5002725E-02  0.0000000E+00 -0.5050505E-02  0.1969322E-04  0.0000000E+00  0.1945601E-03
 -0.4992860E-02  0.0000000E+00 -0.5050505E-02  0.2130038E-04  0.0000000E+00  0.2085487E-03
 -0.4976523E-02  0.0000000E+00 -0.5050505E-02  0.2305613E-04  0.0000000E+00  0.2237084E-03
 -0.4956794E-02  0.0000000E+00 -0.5050505E-02  0.2497748E-04  0.0000000E+00  0.2401532E-03
 -0.4937066E-02  0.0000000E+00 -0.5050505E-02  0.2708219E-04  0.0000000E+00  0.2580105E-03
 -0.4906239E-02  0.0000000E+00 -0.5050505E-02  0.2938804E-04  0.0000000E+00  0.2774223E-03
 -0.4866782E-02  0.0000000E+00 -0.5050505E-02  0.3191183E-04  0.0000000E+00  0.2985448E-03
 -0.4827325E-02  0.0000000E+00 -0.5050505E-02  0.3466822E-04  0.0000000E+00  0.3215478E-03
 -0.4769372E-02  0.0000000E+00 -0.5050505E-02  0.3766889E-04  0.0000000E+00  0.3466131E-03
 -0.4690458E-02  0.0000000E+00 -0.5050505E-02  0.4092327E-04  0.0000000E+00  0.3739313E-03
 -0.4611543E-02  0.0000000E+00 -0.5050505E-02  0.4444358E-04  0.0000000E+00  0.4036992E-03
 -0.4503035E-02  0.0000000E+00 -0.5050505E-02  0.4825893E-04  0.0000000E+00  0.4361205E-03
 -0.4345206E-02  0.0000000E+00 -0.5050505E-02  0.5244743E-04  0.0000000E+00  0.4714156E-03
 -0.4187378E-02  0.0000000E+00 -0.5050505E-02  0.5720106E-04  0.0000000E+00  0.5098490E-03
 -0.3985156E-02  0.0000000E+00 -0.5050505E-02  0.6295302E-04  0.0000000E+00  0.5517770E-03
 -0.3669499E-02  0.0000000E+00 -0.5050505E-02  0.7064304E-04  0.0000000E+00  0.5976608E-03
 -0.3353842E-02  0.0000000E+00 -0.5050505E-02  0.8234798E-04  0.0000000E+00  0.6477457E-03
 -0.2978990E-02  0.0000000E+00 -0.5050505E-02  0.1029747E-03  0.0000000E+00  0.6999114E-03
 -0.2347676E-02  0.0000000E+00 -0.5050505E-02  0.1450764E-03  0.0000000E+00  0.7383721E-03
 -0.1716362E-02  0.0000000E+00 -0.5050505E-02  0.1573616E-03  0.0000000E+00  0.7698453E-03
 -0.1025842E-02  0.0000000E+00 -0.5050505E-02  0.1437180E-03  0.0000000E+00  0.8431551E-03
  0.2367855E-03  0.0000000E+00 -0.5050505E-02  0.1206617E-03  0.0000000E+00  0.9775233E-03
  0.1499413E-02  0.0000000E+00 -0.5050505E-02  0.1378211E-03  0.0000000E+00  0.1128729E-02
  0.2762042E-02  0.0000000E+00 -0.5050505E-02  0.1080107E-03  0.0000000E+00  0.1269106E-02
 -0.5050505E-02  0.0000000E+00 -0.5050505E-02  0.1575187E-03  0.0000000E+00  0.1398423E-02
 -0.5050505E-02  0.0000000E+00 -0.5050505E-02  0.2106806E-03  0.0000000E+00  0.1504799E-02
 -0.5050505E-02  0.0000000E+00 -0.5050505E-02  0.2165261E-03  0.0000000E+00  0.1675986E-02
 -0.5050505E-02  0.0000000E+00 -0.5050505E-02  0.2576734E-03  0.0000000E+00  0.1890963E-02
 -0.5050505E-02  0.0000000E+00 -0.5050505E-02  0.3331277E-03  0.0000000E+00  0.2010316E-02
 -0.5050505E-02  0.0000000E+00 -0.5050505E-02  0.3070875E-03  0.0000000E+00  0.2244705E-02
 -0.5050505E-02  0.0000000E+00 -0.5050505E-02  0.2256999E-03  0.0000000E+00  0.2388947E-02
 -0.5050504E-02  0.0000000E+00 -0.5050505E-02 -0.5882126E-03  0.0000000E+00  0.2233343E-02
 -0.5050501E-02  0.0000000E+00 -0.5050505E-02 -0.3223662E-03  0.0000000E+00  0.2048743E-02
 -0.5050495E-02  0.0000000E+00 -0.5050505E-02 -0.1790915E-03  0.0000000E+00  0.1900983E-02
 -0.5050482E-02  0.0000000E+00 -0.5050505E-02 -0.1211090E-03  0.0000000E+00  0.1777179E-02
 -0.5050449E-02  0.0000000E+00 -0.5050505E-02 -0.1171717E-03  0.0000000E+00  0.1620093E-02
 -0.5050376E-02  0.0000000E+00 -0.5050505E-02 -0.1483040E-03  0.0000000E+00  0.1526216E-02
 -0.5050299E-02  0.0000000E+00 -0.5050505E-02 -0.8999773E-04  0.0000000E+00  0.1509484E-02
 -0.5050178E-02  0.0000000E+00 -0.5050505E-02 -0.1175840E-03  0.0000000E+00  0.1447486E-02
 -0.5050018E-02  0.0000000E+00 -0.5050505E-02 -0.1113568E-03  0.0000000E+00  0.1353468E-02
 -0.5049710E-02  0.0000000E+00 -0.5050505E-02 -0.9166441E-04  0.0000000E+00  0.1271646E-02
 -0.5049253E-02  0.0000000E+00 -0.5050505E-02 -0.7112997E-04  0.0000000E+00  0.1210359E-02
 -0.5048636E-02  0.0000000E+00 -0.5050505E-02 -0.7862229E-04  0.0000000E+00  0.1144951E-02
 -0.5047442E-02  0.0000000E+00 -0.5050505E-02 -0.1377449E-03  0.0000000E+00  0.1057538E-02
 -0.5045727E-02  0.0000000E+00 -0.5050505E-02 -0.1089494E-03  0.0000000E+00  0.9724966E-03
 -0.5043261E-02  0.0000000E+00 -0.5050505E-02 -0.9544514E-04  0.0000000E+00  0.9007826E-03
 -0.5038714E-02  0.0000000E+00 -0.5050505E-02 -0.8704881E-04  0.0000000E+00  0.8350001E-03
 -0.5032318E-02  0.0000000E+00 -0.5050505E-02 -0.7984173E-04  0.0000000E+00  0.7741737E-03
 -0.5022454E-02  0.0000000E+00 -0.5050505E-02 -0.7273726E-04  0.0000000E+00  0.7186072E-03
 -0.5012589E-02  0.0000000E+00 -0.5050505E-02 -0.6581397E-04  0.0000000E+00  0.6684602E-03
 -0.5002725E-02  0.0000000E+00 -0.5050505E-02 -0.5934353E-04  0.0000000E+00  0.6234868E-03
 -0.4992860E-02  0.0000000E+00 -0.5050505E-02 -0.5348551E-04  0.0000000E+00  0.5832016E-03
 -0.4976523E-02  0.0000000E+00 -0.5050505E-02 -0.4827112E-04  0.0000000E+00  0.5470557E-03
 -0.4956794E-02  0.0000000E+00 -0.5050505E-02 -0.4365527E-04  0.0000000E+00  0.5145335E-03
 -0.4937066E-02  0.0000000E+00 -0.5050505E-02 -0.3956226E-04  0.0000000E+00  0.4851883E-03
 -0.4906239E-02  0.0000000E+00 -0.5050505E-02 -0.3591212E-04  0.0000000E+00  0.4586462E-03
 -0.4866782E-02  0.0000000E+00 -0.5050505E-02 -0.3263236E-04  0.0000000E+00  0.4345985E-03
 -0.4827325E-02  0.0000000E+00 -0.5050505E-02 -0.2966154E-04  0.0000000E+00  0.4127903E-03
 -0.4769372E-02  0.0000000E+00 -0.5050505E-02 -0.2694901E-04  0.0000000E+00  0.3930100E-03
 -0.4690458E-02  0.0000000E+00 -0.5050505E-02 -0.2445329E-04  0.0000000E+00  0.3750811E-03
 -0.4611543E-02  0.0000000E+00 -0.5050505E-02 -0.2214019E-04  0.0000000E+00  0.3588556E-03
 -0.4503035E-02  0.0000000E+00 -0.5050505E-02 -0.1998104E-04  0.0000000E+00  0.3442085E-03
 -0.4345206E-02  0.0000000E+00 -0.5050505E-02 -0.1795116E-04  0.0000000E+00  0.3310347E-03
 -0.4187378E-02  0.0000000E+00 -0.5050505E-02 -0.1602843E-04  0.0000000E+00  0.3192460E-03
 -0.3985156E-02  0.0000000E+00 -0.5050505E-02 -0.1419175E-04  0.0000000E+00  0.3087694E-03
 -0.3669499E-02  0.0000000E+00 -0.5050505E-02 -0.1241898E-04  0.0000000E+00  0.2995463E-03
 -0.3353842E-02  0.0000000E+00 -0.5050505E-02 -0.1068344E-04  0.0000000E+00  0.2915326E-03
 -0.2978990E-02  0.0000000E+00 -0.5050505E-02 -0.8947024E-05  0.0000000E+00  0.2847001E-03
 -0.2347676E-02  0.0000000E+00 -0.5050505E-02 -0.7145024E-05  0.0000000E+00  0.2790361E-03
 -0.1716362E-02  0.0000000E+00 -0.5050505E-02 -0.5149640E-05  0.0000000E+00  0.2745352E-03
 -0.1025842E-02  0.0000000E+00 -0.5050505E-02 -0.2676484E-05  0.0000000E+00  0.2711380E-03
  0.2367855E-03  0.0000000E+00 -0.5050505E-02  0.9691314E-06  0.0000000E+00  0.2684180E-03
  0.1499413E-02  0.0000000E+00 -0.5050505E-02  0.7611247E-05  0.0000000E+00  0.2640812E-03
  0.5287294E-02  0.0000000E+00 -0.5050505E-02  0.2229153E-04  0.0000000E+00  0.2469087E-03
 -0.5050505E-02  0.0000000E+00 -0.5050505E-02  0.4153287E-06  0.0000000E+00  0.5801708E-04
 -0.5050505E-02  0.0000000E+00 -0.5050505E-02  0.1247385E-05  0.0000000E+00  0.5835199E-04
 -0.5050505E-02  0.0000000E+00 -0.5050505E-02  0.2083670E-05  0.0000000E+00  0.5902291E-04
 -0.5050505E-02  0.0000000E+00 -0.5050505E-02  0.2927076E-05  0.0000000E+00  0.6003214E-04
 -0.5050505E-02  0.0000000E+00 -0.5050505E-02  0.3780585E-05  0.0000000E+00  0.6138317E-04
 -0.5050505E-02  0.0000000E+00 -0.5050505E-02  0.4647301E-05  0.0000000E+00  0.6308077E-04
 -0.5050504E-02  0.0000000E+00 -0.5050505E-02  0.5530480E-05  0.0000000E+00  0.6513101E-04
 -0.5050501E-02  0.0000000E+00 -0.5050505E-02  0.6433569E-05  0.0000000E+00  0.6754134E-04
 -0.5050495E-02  0.0000000E+00 -0.5050505E-02  0.7360242E-05  0.0000000E+00  0.7032067E-04
 -0.5050482E-02  0.0000000E+00 -0.5050505E-02  0.8314449E-05  0.0000000E+00  0.7347950E-04
 -0.5050449E-02  0.0000000E+00 -0.5050505E-02  0.9300459E-05  0.0000000E+00  0.7703003E-04
 -0.5050376E-02  0.0000000E+00 -0.5050505E-02  0.1032292E-04  0.0000000E+00  0.8098626E-04
 -0.5050299E-02  0.0000000E+00 -0.5050505E-02  0.1138690E-04  0.0000000E+00  0.8536425E-04
 -0.5050178E-02  0.0000000E+00 -0.5050505E-02  0.1249800E-04  0.0000000E+00  0.9018225E-04
 -0.5050018E-02  0.0000000E+00 -0.5050505E-02  0.1366237E-04  0.0000000E+00  0.9546092E-04
 -0.5049710E-02  0.0000000E+00 -0.5050505E-02  0.1488687E-04  0.0000000E+00  0.1012237E-03
 -0.5049253E-02  0.0000000E+00 -0.5050505E-02  0.1617909E-04  0.0000000E+00  0.1074968E-03
 -0.5048636E-02  0.0000000E+00 -0.5050505E-02  0.1754753E-04  0.0000000E+00  0.1143102E-03
 -0.5047442E-02  0.0000000E+00 -0.5050505E-02  0.1900171E-04  0.0000000E+00  0.1216972E-03
 -0.5045727E-02  0.0000000E+00 -0.5050505E-02  0.2055231E-04  0.0000000E+00  0.1296956E-03
 -0.5043261E-02  0.0000000E+00 -0.5050505E-02  0.2221137E-04  0.0000000E+00  0.1383479E-03
 -0.5038714E-02  0.0000000E+00 -0.5050505E-02  0.2399244E-04  0.0000000E+00  0.1477019E-03
 -0.5032318E-02  0.0000000E+00 -0.5050505E-02  0.2591082E-04  0.0000000E+00  0.1578117E-03
 -0.5022454E-02  0.0000000E+00 -0.5050505E-02  0.2798377E-04  0.0000000E+00  0.1687382E-03
 -0.5012589E-02  0.0000000E+00 -0.5050505E-02  0.3023069E-04  0.0000000E+00  0.1805504E-03
 -0.5002725E-02  0.0000000E+00 -0.5050505E-02  0.3267335E-04  0.0000000E+00  0.1933261E-03
 -0.4992860E-02  0.0000000E+00 -0.5050505E-02  0.3533599E-04  0.0000000E+00  0.2071534E-03
 -0.4976523E-02  0.0000000E+00 -0.5050505E-02  0.3824525E-04  0.0000000E+00  0.2221321E-03
 -0.4956794E-02  0.0000000E+00 -0.5050505E-02  0.4142996E-04  0.0000000E+00  0.2383748E-03
 -0.4937066E-02  0.0000000E+00 -0.5050505E-02  0.4492045E-04  0.0000000E+00  0.2560086E-03
 -0.4906239E-02  0.0000000E+00 -0.5050505E-02  0.4874740E-04  0.0000000E+00  0.2751760E-03
 -0.4866782E-02  0.0000000E+00 -0.5050505E-02  0.5293998E-04  0.0000000E+00  0.2960352E-03
 -0.4827325E-02  0.0000000E+00 -0.5050505E-02  0.5752331E-04  0.0000000E+00  0.3187598E-03
 -0.4769372E-02  0.0000000E+00 -0.5050505E-02  0.6251574E-04  0.0000000E+00  0.3435354E-03
 -0.4690458E-02  0.0000000E+00 -0.5050505E-02  0.6792722E-04  0.0000000E+00  0.3705537E-03
 -0.4611543E-02  0.0000000E+00 -0.5050505E-02  0.7376238E-04  0.0000000E+00  0.4000012E-03
 -0.4503035E-02  0.0000000E+00 -0.5050505E-02  0.8003505E-04  0.0000000E+00  0.4320437E-03
 -0.4345206E-02  0.0000000E+00 -0.5050505E-02  0.8680578E-04  0.0000000E+00  0.4668069E-03
 -0.4187378E-02  0.0000000E+00 -0.5050505E-02  0.9425761E-04  0.0000000E+00  0.5043561E-03
 -0.3985156E-02  0.0000000E+00 -0.5050505E-02  0.1028223E-03  0.0000000E+00  0.5446677E-03
 -0.3669499E-02  0.0000000E+00 -0.5050505E-02  0.1133522E-03  0.0000000E+00  0.5875310E-03
 -0.3353842E-02  0.0000000E+00 -0.5050505E-02  0.1272999E-03  0.0000000E+00  0.6321971E-03
 -0.2978990E-02  0.0000000E+00 -0.5050505E-02  0.1467084E-03  0.0000000E+00  0.6765045E-03
 -0.2347676E-02  0.0000000E+00 -0.5050505E-02  0.1723554E-03  0.0000000E+00  0.7160365E-03
 -0.1716362E-02  0.0000000E+00 -0.5050505E-02  0.1918601E-03  0.0000000E+00  0.7530952E-03
 -0.1025842E-02  0.0000000E+00 -0.5050505E-02  0.2114797E-03  0.0000000E+00  0.7931533E-03
  0.2367855E-03  0.0000000E+00 -0.5050505E-02  0.2217415E-03  0.0000000E+00  0.8472711E-03
  0.1499413E-02  0.0000000E+00 -0.5050505E-02  0.2452265E-03  0.0000000E+00  0.9315662E-03
  0.2762042E-02  0.0000000E+00 -0.5050505E-02  0.2349826E-03  0.0000000E+00  0.1060111E-02
 -0.5050505E-02  0.0000000E+00 -0.5050505E-02  0.2590826E-03  0.0000000E+00  0.1197924E-02
 -0.5050505E-02  0.0000000E+00 -0.5050505E-02  0.3092352E-03  0.0000000E+00  0.1330776E-02
 -0.5050505E-02  0.0000000E+00 -0.5050505E-02  0.3835752E-03  0.0000000E+00  0.1483380E-02
 -0.5050505E-02  0.0000000E+00 -0.5050505E-02  0.4244696E-03  0.0000000E+00  0.1684238E-02
 -0.5050505E-02  0.0000000E+00 -0.5050505E-02  0.3316256E-03  0.0000000E+00  0.1782803E-02
 -0.5050505E-02  0.0000000E+00 -0.5050505E-02  0.5077254E-03  0.0000000E+00  0.1823840E-02
 -0.5050505E-02  0.0000000E+00 -0.5050505E-02  0.2472363E-03  0.0000000E+00  0.1987043E-02
 -0.5050504E-02  0.0000000E+00 -0.5050505E-02 -0.7378243E-03  0.0000000E+00  0.1980347E-02
 -0.5050501E-02  0.0000000E+00 -0.5050505E-02 -0.4183806E-03  0.0000000E+00  0.1833653E-02
 -0.5050495E-02  0.0000000E+00 -0.5050505E-02 -0.2866124E-03  0.0000000E+00  0.1711559E-02
 -0.5050482E-02  0.0000000E+00 -0.5050505E-02 -0.2315370E-03  0.0000000E+00  0.1555759E-02
 -0.5050449E-02  0.0000000E+00 -0.5050505E-02 -0.1864479E-03  0.0000000E+00  0.1485773E-02
 -0.5050376E-02  0.0000000E+00 -0.5050505E-02 -0.1536055E-03  0.0000000E+00  0.1483181E-02
 -0.5050299E-02  0.0000000E+00 -0.5050505E-02 -0.1039655E-03  0.0000000E+00  0.1472109E-02
 -0.5050178E-02  0.0000000E+00 -0.5050505E-02 -0.1866493E-03  0.0000000E+00  0.1430725E-02
 -0.5050018E-02  0.0000000E+00 -0.5050505E-02 -0.1964202E-03  0.0000000E+00  0.1337838E-02
 -0.5049710E-02  0.0000000E+00 -0.5050505E-02 -0.1524060E-03  0.0000000E+00  0.1245103E-02
 -0.5049253E-02  0.0000000E+00 -0.5050505E-02 -0.1291166E-03  0.0000000E+00  0.1165660E-02
 -0.5048636E-02  0.0000000E+00 -0.5050505E-02 -0.1649174E-03  0.0000000E+00  0.1063182E-02
 -0.5047442E-02  0.0000000E+00 -0.5050505E-02 -0.1914884E-03  0.0000000E+00  0.9892838E-03
 -0.5045727E-02  0.0000000E+00 -0.5050505E-02 -0.1661089E-03  0.0000000E+00  0.9477232E-03
 -0.5043261E-02  0.0000000E+00 -0.5050505E-02 -0.1535430E-03  0.0000000E+00  0.8893711E-03
 -0.5038714E-02  0.0000000E+00 -0.5050505E-02 -0.1435768E-03  0.0000000E+00  0.8270624E-03
 -0.5032318E-02  0.0000000E+00 -0.5050505E-02 -0.1327712E-03  0.0000000E+00  0.7666293E-03
 -0.5022454E-02  0.0000000E+00 -0.5050505E-02 -0.1209247E-03  0.0000000E+00  0.7110164E-03
 -0.5012589E-02  0.0000000E+00 -0.5050505E-02 -0.1091470E-03  0.0000000E+00  0.6611878E-03
 -0.5002725E-02  0.0000000E+00 -0.5050505E-02 -0.9821708E-04  0.0000000E+00  0.6168669E-03
 -0.4992860E-02  0.0000000E+00 -0.5050505E-02 -0.8843054E-04  0.0000000E+00  0.5773678E-03
 -0.4976523E-02  0.0000000E+00 -0.5050505E-02 -0.7979200E-04  0.0000000E+00  0.5419942E-03
 -0.4956794E-02  0.0000000E+00 -0.5050505E-02 -0.7218155E-04  0.0000000E+00  0.5101594E-03
 -0.4937066E-02  0.0000000E+00 -0.5050505E-02 -0.6544638E-04  0.0000000E+00  0.4813966E-03
 -0.4906239E-02  0.0000000E+00 -0.5050505E-02 -0.5944107E-04  0.0000000E+00  0.4553366E-03
 -0.4866782E-02  0.0000000E+00 -0.5050505E-02 -0.5404113E-04  0.0000000E+00  0.4316847E-03
 -0.4827325E-02  0.0000000E+00 -0.5050505E-02 -0.4914440E-04  0.0000000E+00  0.4102014E-03
 -0.4769372E-02  0.0000000E+00 -0.5050505E-02 -0.4466822E-04  0.0000000E+00  0.3906887E-03
 -0.4690458E-02  0.0000000E+00 -0.5050505E-02 -0.4054552E-04  0.0000000E+00  0.3729813E-03
 -0.4611543E-02  0.0000000E+00 -0.5050505E-02 -0.3672125E-04  0.0000000E+00  0.3569395E-03
 -0.4503035E-02  0.0000000E+00 -0.5050505E-02 -0.3314930E-04  0.0000000E+00  0.3424447E-03
 -0.4345206E-02  0.0000000E+00 -0.5050505E-02 -0.2979014E-04  0.0000000E+00  0.3293960E-03
 -0.4187378E-02  0.0000000E+00 -0.5050505E-02 -0.2660858E-04  0.0000000E+00  0.3177074E-03
 -0.3985156E-02  0.0000000E+00 -0.5050505E-02 -0.2357176E-04  0.0000000E+00  0.3073063E-03
 -0.3669499E-02  0.0000000E+00 -0.5050505E-02 -0.2064665E-04  0.0000000E+00  0.2981309E-03
 -0.3353842E-02  0.0000000E+00 -0.5050505E-02 -0.1779650E-04  0.0000000E+00  0.2901286E-03
 -0.2978990E-02  0.0000000E+00 -0.5050505E-02 -0.1497512E-04  0.0000000E+00  0.2832517E-03
 -0.2347676E-02  0.0000000E+00 -0.5050505E-02 -0.1211706E-04  0.0000000E+00  0.2774471E-03
 -0.1716362E-02  0.0000000E+00 -0.5050505E-02 -0.9121450E-05  0.0000000E+00  0.2726295E-03
 -0.1025842E-02  0.0000000E+00 -0.5050505E-02 -0.5832362E-05  0.0000000E+00  0.2686085E-03
  0.2367855E-03  0.0000000E+00 -0.5050505E-02 -0.2053000E-05  0.0000000E+00  0.2649160E-03
  0.1499413E-02  0.0000000E+00 -0.5050505E-02  0.2187714E-05  0.0000000E+00  0.2605285E-03
  0.5287294E-02  0.0000000E+00 -0.5050505E-02  0.5040870E-05  0.0000000E+00  0.2543732E-03
 -0.5050505E-02  0.0000000E+00 -0.5050505E-02  0.5791310E-06  0.0000000E+00  0.5790008E-04
 -0.5050505E-02  0.0000000E+00 -0.5050505E-02  0.1739340E-05  0.0000000E+00  0.5823238E-04
 -0.5050505E-02  0.0000000E+00 -0.5050505E-02  0.2905426E-05  0.0000000E+00  0.5889802E-04
 -0.5050505E-02  0.0000000E+00 -0.5050505E-02  0.4081405E-05  0.0000000E+00  0.5989922E-04
 -0.5050505E-02  0.0000000E+00 -0.5050505E-02  0.5271412E-05  0.0000000E+00  0.6123938E-04
 -0.5050505E-02  0.0000000E+00 -0.5050505E-02  0.6479749E-05  0.0000000E+00  0.6292311E-04
 -0.5050504E-02  0.0000000E+00 -0.5050505E-02  0.7710929E-05  0.0000000E+00  0.6495630E-04
 -0.5050501E-02  0.0000000E+00 -0.5050505E-02  0.8969727E-05  0.0000000E+00  0.6734618E-04
 -0.5050495E-02  0.0000000E+00 -0.5050505E-02  0.1026123E-04  0.0000000E+00  0.7010143E-04
 -0.5050482E-02  0.0000000E+00 -0.5050505E-02  0.1159091E-04  0.0000000E+00  0.7323221E-04
 -0.5050449E-02  0.0000000E+00 -0.5050505E-02  0.1296468E-04  0.0000000E+00  0.7675035E-04
 -0.5050376E-02  0.0000000E+00 -0.5050505E-02  0.1438896E-04  0.0000000E+00  0.8066947E-04
 -0.5050299E-02  0.0000000E+00 -0.5050505E-02  0.1587078E-04  0.0000000E+00  0.8500511E-04
 -0.5050178E-02  0.0000000E+00 -0.5050505E-02  0.1741787E-04  0.0000000E+00  0.8977494E-04
 -0.5050018E-02  0.0000000E+00 -0.5050505E-02  0.1903875E-04  0.0000000E+00  0.9499900E-04
 -0.5049710E-02  0.0000000E+00 -0.5050505E-02  0.2074287E-04  0.0000000E+00  0.1006999E-03
 -0.5049253E-02  0.0000000E+00 -0.5050505E-02  0.2254074E-04  0.0000000E+00  0.1069032E-03
 -0.5048636E-02  0.0000000E+00 -0.5050505E-02  0.2444410E-04  0.0000000E+00  0.1136375E-03
 -0.5047442E-02  0.0000000E+00 -0.5050505E-02  0.2646609E-04  0.0000000E+00  0.1209352E-03
 -0.5045727E-02  0.0000000E+00 -0.5050505E-02  0.2862146E-04  0.0000000E+00  0.1288326E-03
 -0.5043261E-02  0.0000000E+00 -0.5050505E-02  0.3092682E-04  0.0000000E+00  0.1373708E-03
 -0.5038714E-02  0.0000000E+00 -0.5050505E-02  0.3340092E-04  0.0000000E+00  0.1465958E-03
 -0.5032318E-02  0.0000000E+00 -0.5050505E-02  0.3606491E-04  0.0000000E+00  0.1565596E-03
 -0.5022454E-02  0.0000000E+00 -0.5050505E-02  0.3894271E-04  0.0000000E+00  0.1673208E-03
 -0.5012589E-02  0.0000000E+00 -0.5050505E-02  0.4206130E-04  0.0000000E+00  0.1789459E-03
 -0.5002725E-02  0.0000000E+00 -0.5050505E-02  0.4545108E-04  0.0000000E+00  0.1915100E-03
 -0.4992860E-02  0.0000000E+00 -0.5050505E-02  0.4914608E-04  0.0000000E+00  0.2050985E-03
 -0.4976523E-02  0.0000000E+00 -0.5050505E-02  0.5318405E-04  0.0000000E+00  0.2198083E-03
 -0.4956794E-02  0.0000000E+00 -0.5050505E-02  0.5760627E-04  0.0000000E+00  0.2357500E-03
 -0.4937066E-02  0.0000000E+00 -0.5050505E-02  0.6245683E-04  0.0000000E+00  0.2530494E-03