title = "dataset feddes"
variables = "x", "y", "z", "vx", "vy", "vz"
zone t = "velocities, solution time =  2.600E+01 days        " i =   99, j =   99, k =    1,  f=point
 -0.5050505E-02  0.0000000E+00 -0.5050505E-02  0.2470816E-08  0.0000000E+00 -0.3427463E-03
 -0.5050505E-02  0.0000000E+00 -0.5050505E-02  0.7411506E-08  0.0000000E+00 -0.3427360E-03
 -0.5050505E-02  0.0000000E+00 -0.5050505E-02  0.1234935E-07  0.0000000E+00 -0.3427154E-03
 -0.5050505E-02  0.0000000E+00 -0.5050505E-02  0.1728246E-07  0.0000000E+00 -0.3426846E-03
 -0.5050505E-02  0.0000000E+00 -0.5050505E-02  0.2220896E-07  0.0000000E+00 -0.3426435E-03
 -0.5050505E-02  0.0000000E+00 -0.5050505E-02  0.2712696E-07  0.0000000E+00 -0.3425921E-03
 -0.5050504E-02  0.0000000E+00 -0.5050505E-02  0.3203460E-07  0.0000000E+00 -0.3425305E-03
 -0.5050501E-02  0.0000000E+00 -0.5050505E-02  0.3693001E-07  0.0000000E+00 -0.3424587E-03
 -0.5050495E-02  0.0000000E+00 -0.5050505E-02  0.4181134E-07  0.0000000E+00 -0.3423768E-03
 -0.5050482E-02  0.0000000E+00 -0.5050505E-02  0.4667675E-07  0.0000000E+00 -0.3422847E-03
 -0.5050449E-02  0.0000000E+00 -0.5050505E-02  0.5152438E-07  0.0000000E+00 -0.3421824E-03
 -0.5050376E-02  0.0000000E+00 -0.5050505E-02  0.5635241E-07  0.0000000E+00 -0.3420701E-03
 -0.5050299E-02  0.0000000E+00 -0.5050505E-02  0.6115898E-07  0.0000000E+00 -0.3419478E-03
 -0.5050178E-02  0.0000000E+00 -0.5050505E-02  0.6594226E-07  0.0000000E+00 -0.3418155E-03
 -0.5050018E-02  0.0000000E+00 -0.5050505E-02  0.7070039E-07  0.0000000E+00 -0.3416733E-03
 -0.5049710E-02  0.0000000E+00 -0.5050505E-02  0.7543147E-07  0.0000000E+00 -0.3415212E-03
 -0.5049253E-02  0.0000000E+00 -0.5050505E-02  0.8013357E-07  0.0000000E+00 -0.3413593E-03
 -0.5048636E-02  0.0000000E+00 -0.5050505E-02  0.8480470E-07  0.0000000E+00 -0.3411876E-03
 -0.5047442E-02  0.0000000E+00 -0.5050505E-02  0.8944276E-07  0.0000000E+00 -0.3410063E-03
 -0.5045727E-02  0.0000000E+00 -0.5050505E-02  0.9404550E-07  0.0000000E+00 -0.3408153E-03
 -0.5043261E-02  0.0000000E+00 -0.5050505E-02  0.9861052E-07  0.0000000E+00 -0.3406148E-03
 -0.5038714E-02  0.0000000E+00 -0.5050505E-02  0.1031352E-06  0.0000000E+00 -0.3404048E-03
 -0.5032318E-02  0.0000000E+00 -0.5050505E-02  0.1076164E-06  0.0000000E+00 -0.3401855E-03
 -0.5022454E-02  0.0000000E+00 -0.5050505E-02  0.1120508E-06  0.0000000E+00 -0.3399569E-03
 -0.5012589E-02  0.0000000E+00 -0.5050505E-02  0.1164344E-06  0.0000000E+00 -0.3397192E-03
 -0.5002725E-02  0.0000000E+00 -0.5050505E-02  0.1207625E-06  0.0000000E+00 -0.3394723E-03
 -0.4992860E-02  0.0000000E+00 -0.5050505E-02  0.1250296E-06  0.0000000E+00 -0.3392166E-03
 -0.4976523E-02  0.0000000E+00 -0.5050505E-02  0.1292289E-06  0.0000000E+00 -0.3389520E-03
 -0.4956794E-02  0.0000000E+00 -0.5050505E-02  0.1333524E-06  0.0000000E+00 -0.3386788E-03
 -0.4937066E-02  0.0000000E+00 -0.5050505E-02  0.1373904E-06  0.0000000E+00 -0.3383971E-03
 -0.4906239E-02  0.0000000E+00 -0.5050505E-02  0.1413310E-06  0.0000000E+00 -0.3381071E-03
 -0.4866782E-02  0.0000000E+00 -0.5050505E-02  0.1451600E-06  0.0000000E+00 -0.3378090E-03
 -0.4827325E-02  0.0000000E+00 -0.5050505E-02  0.1488599E-06  0.0000000E+00 -0.3375031E-03
 -0.4769372E-02  0.0000000E+00 -0.5050505E-02  0.1524100E-06  0.0000000E+00 -0.3371897E-03
 -0.4690458E-02  0.0000000E+00 -0.5050505E-02  0.1557850E-06  0.0000000E+00 -0.3368691E-03
 -0.4611543E-02  0.0000000E+00 -0.5050505E-02  0.1589550E-06  0.0000000E+00 -0.3365417E-03
 -0.4503035E-02  0.0000000E+00 -0.5050505E-02  0.1618842E-06  0.0000000E+00 -0.3362079E-03
 -0.4345206E-02  0.0000000E+00 -0.5050505E-02  0.1645302E-06  0.0000000E+00 -0.3358684E-03
 -0.4187378E-02  0.0000000E+00 -0.5050505E-02  0.1668435E-06  0.0000000E+00 -0.3355237E-03
 -0.3985156E-02  0.0000000E+00 -0.5050505E-02  0.1687662E-06  0.0000000E+00 -0.3351747E-03
 -0.3669499E-02  0.0000000E+00 -0.5050505E-02  0.1702318E-06  0.0000000E+00 -0.3348221E-03
 -0.3353842E-02  0.0000000E+00 -0.5050505E-02  0.1711644E-06  0.0000000E+00 -0.3344670E-03
 -0.2978990E-02  0.0000000E+00 -0.5050505E-02  0.1714784E-06  0.0000000E+00 -0.3341107E-03
 -0.2347676E-02  0.0000000E+00 -0.5050505E-02  0.1710791E-06  0.0000000E+00 -0.3337545E-03
 -0.1716362E-02  0.0000000E+00 -0.5050505E-02  0.1698634E-06  0.0000000E+00 -0.3333999E-03
 -0.1025842E-02  0.0000000E+00 -0.5050505E-02  0.1677212E-06  0.0000000E+00 -0.3330489E-03
  0.2367855E-03  0.0000000E+00 -0.5050505E-02  0.1645382E-06  0.0000000E+00 -0.3327034E-03
  0.1499413E-02  0.0000000E+00 -0.5050505E-02  0.1601997E-06  0.0000000E+00 -0.3323657E-03
  0.2762042E-02  0.0000000E+00 -0.5050505E-02  0.1545953E-06  0.0000000E+00 -0.3320384E-03
 -0.5050505E-02  0.0000000E+00 -0.5050505E-02  0.1476254E-06  0.0000000E+00 -0.3317242E-03
 -0.5050505E-02  0.0000000E+00 -0.5050505E-02  0.1392082E-06  0.0000000E+00 -0.3314260E-03
 -0.5050505E-02  0.0000000E+00 -0.5050505E-02  0.1292879E-06  0.0000000E+00 -0.3311469E-03
 -0.5050505E-02  0.0000000E+00 -0.5050505E-02  0.1178433E-06  0.0000000E+00 -0.3308900E-03
 -0.5050505E-02  0.0000000E+00 -0.5050505E-02  0.1048948E-06  0.0000000E+00 -0.3306584E-03
 -0.5050505E-02  0.0000000E+00 -0.5050505E-02  0.9051116E-07  0.0000000E+00 -0.3304553E-03
 -0.5050505E-02  0.0000000E+00 -0.5050505E-02  0.7481296E-07  0.0000000E+00 -0.3302834E-03
 -0.5050504E-02  0.0000000E+00 -0.5050505E-02  0.5797276E-07  0.0000000E+00 -0.3301454E-03
 -0.5050501E-02  0.0000000E+00 -0.5050505E-02  0.4021141E-07  0.0000000E+00 -0.3300433E-03
 -0.5050495E-02  0.0000000E+00 -0.5050505E-02  0.2179020E-07  0.0000000E+00 -0.3299789E-03
 -0.5050482E-02  0.0000000E+00 -0.5050505E-02  0.2999486E-08  0.0000000E+00 -0.3299531E-03
 -0.5050449E-02  0.0000000E+00 -0.5050505E-02 -0.1585518E-07  0.0000000E+00 -0.3299665E-03
 -0.5050376E-02  0.0000000E+00 -0.5050505E-02 -0.3446810E-07  0.0000000E+00 -0.3300188E-03
 -0.5050299E-02  0.0000000E+00 -0.5050505E-02 -0.5254795E-07  0.0000000E+00 -0.3301092E-03
 -0.5050178E-02  0.0000000E+00 -0.5050505E-02 -0.6983022E-07  0.0000000E+00 -0.3302364E-03
 -0.5050018E-02  0.0000000E+00 -0.5050505E-02 -0.8608676E-07  0.0000000E+00 -0.3303985E-03
 -0.5049710E-02  0.0000000E+00 -0.5050505E-02 -0.1011317E-06  0.0000000E+00 -0.3305931E-03
 -0.5049253E-02  0.0000000E+00 -0.5050505E-02 -0.1148242E-06  0.0000000E+00 -0.3308176E-03
 -0.5048636E-02  0.0000000E+00 -0.5050505E-02 -0.1270677E-06  0.0000000E+00 -0.3310691E-03
 -0.5047442E-02  0.0000000E+00 -0.5050505E-02 -0.1378076E-06  0.0000000E+00 -0.3313445E-03
 -0.5045727E-02  0.0000000E+00 -0.5050505E-02 -0.1470260E-06  0.0000000E+00 -0.3316406E-03
 -0.5043261E-02  0.0000000E+00 -0.5050505E-02 -0.1547372E-06  0.0000000E+00 -0.3319544E-03
 -0.5038714E-02  0.0000000E+00 -0.5050505E-02 -0.1609819E-06  0.0000000E+00 -0.3322826E-03
 -0.5032318E-02  0.0000000E+00 -0.5050505E-02 -0.1658215E-06  0.0000000E+00 -0.3326224E-03
 -0.5022454E-02  0.0000000E+00 -0.5050505E-02 -0.1693339E-06  0.0000000E+00 -0.3329709E-03
 -0.5012589E-02  0.0000000E+00 -0.5050505E-02 -0.1716090E-06  0.0000000E+00 -0.3333254E-03
 -0.5002725E-02  0.0000000E+00 -0.5050505E-02 -0.1727464E-06  0.0000000E+00 -0.3336835E-03
 -0.4992860E-02  0.0000000E+00 -0.5050505E-02 -0.1728526E-06  0.0000000E+00 -0.3340429E-03
 -0.4976523E-02  0.0000000E+00 -0.5050505E-02 -0.1720407E-06  0.0000000E+00 -0.3344016E-03
 -0.4956794E-02  0.0000000E+00 -0.5050505E-02 -0.1704303E-06  0.0000000E+00 -0.3347578E-03
 -0.4937066E-02  0.0000000E+00 -0.5050505E-02 -0.1681493E-06  0.0000000E+00 -0.3351099E-03
 -0.4906239E-02  0.0000000E+00 -0.5050505E-02 -0.1653374E-06  0.0000000E+00 -0.3354568E-03
 -0.4866782E-02  0.0000000E+00 -0.5050505E-02 -0.1621514E-06  0.0000000E+00 -0.3357974E-03
 -0.4827325E-02  0.0000000E+00 -0.5050505E-02 -0.1587755E-06  0.0000000E+00 -0.3361312E-03
 -0.4769372E-02  0.0000000E+00 -0.5050505E-02 -0.1554352E-06  0.0000000E+00 -0.3364581E-03
 -0.4690458E-02  0.0000000E+00 -0.5050505E-02 -0.1524219E-06  0.0000000E+00 -0.3367783E-03
 -0.4611543E-02  0.0000000E+00 -0.5050505E-02 -0.1501312E-06  0.0000000E+00 -0.3370930E-03
 -0.4503035E-02  0.0000000E+00 -0.5050505E-02 -0.1491289E-06  0.0000000E+00 -0.3374044E-03
 -0.4345206E-02  0.0000000E+00 -0.5050505E-02 -0.1502653E-06  0.0000000E+00 -0.3377158E-03
 -0.4187378E-02  0.0000000E+00 -0.5050505E-02 -0.1548842E-06  0.0000000E+00 -0.3380333E-03
 -0.3985156E-02  0.0000000E+00 -0.5050505E-02 -0.1652211E-06  0.0000000E+00 -0.3383664E-03
 -0.3669499E-02  0.0000000E+00 -0.5050505E-02 -0.1852099E-06  0.0000000E+00 -0.3387310E-03
 -0.3353842E-02  0.0000000E+00 -0.5050505E-02 -0.2222242E-06  0.0000000E+00 -0.3391549E-03
 -0.2978990E-02  0.0000000E+00 -0.5050505E-02 -0.2911300E-06  0.0000000E+00 -0.3396891E-03
 -0.2347676E-02  0.0000000E+00 -0.5050505E-02 -0.4245558E-06  0.0000000E+00 -0.3404339E-03
 -0.1716362E-02  0.0000000E+00 -0.5050505E-02 -0.7014359E-06  0.0000000E+00 -0.3416057E-03
 -0.1025842E-02  0.0000000E+00 -0.5050505E-02 -0.1334337E-05  0.0000000E+00 -0.3437247E-03
  0.2367855E-03  0.0000000E+00 -0.5050505E-02 -0.2962911E-05  0.0000000E+00 -0.3481988E-03
  0.1499413E-02  0.0000000E+00 -0.5050505E-02 -0.7728831E-05  0.0000000E+00 -0.3593369E-03
  0.5287294E-02  0.0000000E+00 -0.5050505E-02 -0.1265450E-03  0.0000000E+00 -0.2866776E-03
 -0.5050505E-02  0.0000000E+00 -0.5050505E-02  0.7424561E-08  0.0000000E+00 -0.3425028E-03
 -0.5050505E-02  0.0000000E+00 -0.5050505E-02  0.2227087E-07  0.0000000E+00 -0.3424924E-03
 -0.5050505E-02  0.0000000E+00 -0.5050505E-02  0.3710867E-07  0.0000000E+00 -0.3424717E-03
 -0.5050505E-02  0.0000000E+00 -0.5050505E-02  0.5193232E-07  0.0000000E+00 -0.3424407E-03
 -0.5050505E-02  0.0000000E+00 -0.5050505E-02  0.6673618E-07  0.0000000E+00 -0.3423993E-03
 -0.5050505E-02  0.0000000E+00 -0.5050505E-02  0.8151465E-07  0.0000000E+00 -0.3423476E-03
 -0.5050504E-02  0.0000000E+00 -0.5050505E-02  0.9626213E-07  0.0000000E+00 -0.3422856E-03
 -0.5050501E-02  0.0000000E+00 -0.5050505E-02  0.1109731E-06  0.0000000E+00 -0.3422134E-03
 -0.5050495E-02  0.0000000E+00 -0.5050505E-02  0.1256419E-06  0.0000000E+00 -0.3421309E-03
 -0.5050482E-02  0.0000000E+00 -0.5050505E-02  0.1402631E-06  0.0000000E+00 -0.3420382E-03
 -0.5050449E-02  0.0000000E+00 -0.5050505E-02  0.1548312E-06  0.0000000E+00 -0.3419353E-03
 -0.5050376E-02  0.0000000E+00 -0.5050505E-02  0.1693406E-06  0.0000000E+00 -0.3418223E-03
 -0.5050299E-02  0.0000000E+00 -0.5050505E-02  0.1837860E-06  0.0000000E+00 -0.3416992E-03
 -0.5050178E-02  0.0000000E+00 -0.5050505E-02  0.1981617E-06  0.0000000E+00 -0.3415660E-03
 -0.5050018E-02  0.0000000E+00 -0.5050505E-02  0.2124623E-06  0.0000000E+00 -0.3414229E-03
 -0.5049710E-02  0.0000000E+00 -0.5050505E-02  0.2266821E-06  0.0000000E+00 -0.3412698E-03
 -0.5049253E-02  0.0000000E+00 -0.5050505E-02  0.2408153E-06  0.0000000E+00 -0.3411068E-03
 -0.5048636E-02  0.0000000E+00 -0.5050505E-02  0.2548561E-06  0.0000000E+00 -0.3409340E-03
 -0.5047442E-02  0.0000000E+00 -0.5050505E-02  0.2687982E-06  0.0000000E+00 -0.3407514E-03
 -0.5045727E-02  0.0000000E+00 -0.5050505E-02  0.2826350E-06  0.0000000E+00 -0.3405592E-03
 -0.5043261E-02  0.0000000E+00 -0.5050505E-02  0.2963593E-06  0.0000000E+00 -0.3403573E-03
 -0.5038714E-02  0.0000000E+00 -0.5050505E-02  0.3099632E-06  0.0000000E+00 -0.3401459E-03
 -0.5032318E-02  0.0000000E+00 -0.5050505E-02  0.3234379E-06  0.0000000E+00 -0.3399251E-03
 -0.5022454E-02  0.0000000E+00 -0.5050505E-02  0.3367732E-06  0.0000000E+00 -0.3396949E-03
 -0.5012589E-02  0.0000000E+00 -0.5050505E-02  0.3499574E-06  0.0000000E+00 -0.3394555E-03
 -0.5002725E-02  0.0000000E+00 -0.5050505E-02  0.3629765E-06  0.0000000E+00 -0.3392069E-03
 -0.4992860E-02  0.0000000E+00 -0.5050505E-02  0.3758142E-06  0.0000000E+00 -0.3389493E-03
 -0.4976523E-02  0.0000000E+00 -0.5050505E-02  0.3884506E-06  0.0000000E+00 -0.3386828E-03
 -0.4956794E-02  0.0000000E+00 -0.5050505E-02  0.4008620E-06  0.0000000E+00 -0.3384075E-03
 -0.4937066E-02  0.0000000E+00 -0.5050505E-02  0.4130193E-06  0.0000000E+00 -0.3381237E-03
 -0.4906239E-02  0.0000000E+00 -0.5050505E-02  0.4248876E-06  0.0000000E+00 -0.3378315E-03
 -0.4866782E-02  0.0000000E+00 -0.5050505E-02  0.4364244E-06  0.0000000E+00 -0.3375311E-03
 -0.4827325E-02  0.0000000E+00 -0.5050505E-02  0.4475782E-06  0.0000000E+00 -0.3372227E-03
 -0.4769372E-02  0.0000000E+00 -0.5050505E-02  0.4582868E-06  0.0000000E+00 -0.3369067E-03
 -0.4690458E-02  0.0000000E+00 -0.5050505E-02  0.4684755E-06  0.0000000E+00 -0.3365833E-03
 -0.4611543E-02  0.0000000E+00 -0.5050505E-02  0.4780546E-06  0.0000000E+00 -0.3362530E-03
 -0.4503035E-02  0.0000000E+00 -0.5050505E-02  0.4869174E-06  0.0000000E+00 -0.3359163E-03
 -0.4345206E-02  0.0000000E+00 -0.5050505E-02  0.4949374E-06  0.0000000E+00 -0.3355735E-03
 -0.4187378E-02  0.0000000E+00 -0.5050505E-02  0.5019660E-06  0.0000000E+00 -0.3352254E-03
 -0.3985156E-02  0.0000000E+00 -0.5050505E-02  0.5078302E-06  0.0000000E+00 -0.3348728E-03
 -0.3669499E-02  0.0000000E+00 -0.5050505E-02  0.5123300E-06  0.0000000E+00 -0.3345164E-03
 -0.3353842E-02  0.0000000E+00 -0.5050505E-02  0.5152369E-06  0.0000000E+00 -0.3341573E-03
 -0.2978990E-02  0.0000000E+00 -0.5050505E-02  0.5162936E-06  0.0000000E+00 -0.3337967E-03
 -0.2347676E-02  0.0000000E+00 -0.5050505E-02  0.5152139E-06  0.0000000E+00 -0.3334359E-03
 -0.1716362E-02  0.0000000E+00 -0.5050505E-02  0.5116855E-06  0.0000000E+00 -0.3330766E-03
 -0.1025842E-02  0.0000000E+00 -0.5050505E-02  0.5053745E-06  0.0000000E+00 -0.3327206E-03
  0.2367855E-03  0.0000000E+00 -0.5050505E-02  0.4959332E-06  0.0000000E+00 -0.3323699E-03
  0.1499413E-02  0.0000000E+00 -0.5050505E-02  0.4830110E-06  0.0000000E+00 -0.3320268E-03
  0.2762042E-02  0.0000000E+00 -0.5050505E-02  0.4662693E-06  0.0000000E+00 -0.3316940E-03
 -0.5050505E-02  0.0000000E+00 -0.5050505E-02  0.4454009E-06  0.0000000E+00 -0.3313741E-03
 -0.5050505E-02  0.0000000E+00 -0.5050505E-02  0.4201516E-06  0.0000000E+00 -0.3310702E-03
 -0.5050505E-02  0.0000000E+00 -0.5050505E-02  0.3903452E-06  0.0000000E+00 -0.3307854E-03
 -0.5050505E-02  0.0000000E+00 -0.5050505E-02  0.3559098E-06  0.0000000E+00 -0.3305230E-03
 -0.5050505E-02  0.0000000E+00 -0.5050505E-02  0.3169011E-06  0.0000000E+00 -0.3302864E-03
 -0.5050505E-02  0.0000000E+00 -0.5050505E-02  0.2735227E-06  0.0000000E+00 -0.3300786E-03
 -0.5050505E-02  0.0000000E+00 -0.5050505E-02  0.2261371E-06  0.0000000E+00 -0.3299026E-03
 -0.5050504E-02  0.0000000E+00 -0.5050505E-02  0.1752680E-06  0.0000000E+00 -0.3297612E-03
 -0.5050501E-02  0.0000000E+00 -0.5050505E-02  0.1215879E-06  0.0000000E+00 -0.3296566E-03
 -0.5050495E-02  0.0000000E+00 -0.5050505E-02  0.6589488E-07  0.0000000E+00 -0.3295905E-03
 -0.5050482E-02  0.0000000E+00 -0.5050505E-02  0.9076813E-08  0.0000000E+00 -0.3295641E-03
 -0.5050449E-02  0.0000000E+00 -0.5050505E-02 -0.4793184E-07  0.0000000E+00 -0.3295777E-03
 -0.5050376E-02  0.0000000E+00 -0.5050505E-02 -0.1041968E-06  0.0000000E+00 -0.3296313E-03
 -0.5050299E-02  0.0000000E+00 -0.5050505E-02 -0.1588290E-06  0.0000000E+00 -0.3297240E-03
 -0.5050178E-02  0.0000000E+00 -0.5050505E-02 -0.2110232E-06  0.0000000E+00 -0.3298542E-03
 -0.5050018E-02  0.0000000E+00 -0.5050505E-02 -0.2600872E-06  0.0000000E+00 -0.3300200E-03
 -0.5049710E-02  0.0000000E+00 -0.5050505E-02 -0.3054595E-06  0.0000000E+00 -0.3302190E-03
 -0.5049253E-02  0.0000000E+00 -0.5050505E-02 -0.3467171E-06  0.0000000E+00 -0.3304483E-03
 -0.5048636E-02  0.0000000E+00 -0.5050505E-02 -0.3835732E-06  0.0000000E+00 -0.3307050E-03
 -0.5047442E-02  0.0000000E+00 -0.5050505E-02 -0.4158679E-06  0.0000000E+00 -0.3309857E-03
 -0.5045727E-02  0.0000000E+00 -0.5050505E-02 -0.4435538E-06  0.0000000E+00 -0.3312874E-03
 -0.5043261E-02  0.0000000E+00 -0.5050505E-02 -0.4666802E-06  0.0000000E+00 -0.3316068E-03
 -0.5038714E-02  0.0000000E+00 -0.5050505E-02 -0.4853746E-06  0.0000000E+00 -0.3319406E-03
 -0.5032318E-02  0.0000000E+00 -0.5050505E-02 -0.4998275E-06  0.0000000E+00 -0.3322859E-03
 -0.5022454E-02  0.0000000E+00 -0.5050505E-02 -0.5102771E-06  0.0000000E+00 -0.3326397E-03
 -0.5012589E-02  0.0000000E+00 -0.5050505E-02 -0.5169978E-06  0.0000000E+00 -0.3329994E-03
 -0.5002725E-02  0.0000000E+00 -0.5050505E-02 -0.5202908E-06  0.0000000E+00 -0.3333624E-03
 -0.4992860E-02  0.0000000E+00 -0.5050505E-02 -0.5204777E-06  0.0000000E+00 -0.3337265E-03
 -0.4976523E-02  0.0000000E+00 -0.5050505E-02 -0.5178984E-06  0.0000000E+00 -0.3340895E-03
 -0.4956794E-02  0.0000000E+00 -0.5050505E-02 -0.5129108E-06  0.0000000E+00 -0.3344497E-03
 -0.4937066E-02  0.0000000E+00 -0.5050505E-02 -0.5058960E-06  0.0000000E+00 -0.3348056E-03
 -0.4906239E-02  0.0000000E+00 -0.5050505E-02 -0.4972674E-06  0.0000000E+00 -0.3351558E-03
 -0.4866782E-02  0.0000000E+00 -0.5050505E-02 -0.4874878E-06  0.0000000E+00 -0.3354993E-03
 -0.4827325E-02  0.0000000E+00 -0.5050505E-02 -0.4770947E-06  0.0000000E+00 -0.3358355E-03
 -0.4769372E-02  0.0000000E+00 -0.5050505E-02 -0.4667425E-06  0.0000000E+00 -0.3361640E-03
 -0.4690458E-02  0.0000000E+00 -0.5050505E-02 -0.4572670E-06  0.0000000E+00 -0.3364852E-03
 -0.4611543E-02  0.0000000E+00 -0.5050505E-02 -0.4497919E-06  0.0000000E+00 -0.3367998E-03
 -0.4503035E-02  0.0000000E+00 -0.5050505E-02 -0.4459033E-06  0.0000000E+00 -0.3371094E-03
 -0.4345206E-02  0.0000000E+00 -0.5050505E-02 -0.4479502E-06  0.0000000E+00 -0.3374168E-03
 -0.4187378E-02  0.0000000E+00 -0.5050505E-02 -0.4595772E-06  0.0000000E+00 -0.3377265E-03
 -0.3985156E-02  0.0000000E+00 -0.5050505E-02 -0.4867108E-06  0.0000000E+00 -0.3380455E-03
 -0.3669499E-02  0.0000000E+00 -0.5050505E-02 -0.5394695E-06  0.0000000E+00 -0.3383845E-03
 -0.3353842E-02  0.0000000E+00 -0.5050505E-02 -0.6360599E-06  0.0000000E+00 -0.3387605E-03
 -0.2978990E-02  0.0000000E+00 -0.5050505E-02 -0.8111718E-06  0.0000000E+00 -0.3391989E-03
 -0.2347676E-02  0.0000000E+00 -0.5050505E-02 -0.1135172E-05  0.0000000E+00 -0.3397360E-03
 -0.1716362E-02  0.0000000E+00 -0.5050505E-02 -0.1760731E-05  0.0000000E+00 -0.3404083E-03
 -0.1025842E-02  0.0000000E+00 -0.5050505E-02 -0.3042973E-05  0.0000000E+00 -0.3411745E-03
  0.2367855E-03  0.0000000E+00 -0.5050505E-02 -0.5866128E-05  0.0000000E+00 -0.3415125E-03
  0.1499413E-02  0.0000000E+00 -0.5050505E-02 -0.1257031E-04  0.0000000E+00 -0.3384810E-03
  0.5287294E-02  0.0000000E+00 -0.5050505E-02 -0.2964984E-04  0.0000000E+00 -0.3175983E-03
 -0.5050505E-02  0.0000000E+00 -0.5050505E-02  0.1241742E-07  0.0000000E+00 -0.3420264E-03
 -0.5050505E-02  0.0000000E+00 -0.5050505E-02  0.3724759E-07  0.0000000E+00 -0.3420160E-03
 -0.5050505E-02  0.0000000E+00 -0.5050505E-02  0.6206369E-07  0.0000000E+00 -0.3419950E-03
 -0.5050505E-02  0.0000000E+00 -0.5050505E-02  0.8685634E-07  0.0000000E+00 -0.3419636E-03
 -0.5050505E-02  0.0000000E+00 -0.5050505E-02  0.1116162E-06  0.0000000E+00 -0.3419217E-03
 -0.5050505E-02  0.0000000E+00 -0.5050505E-02  0.1363340E-06  0.0000000E+00 -0.3418694E-03
 -0.5050504E-02  0.0000000E+00 -0.5050505E-02  0.1610005E-06  0.0000000E+00 -0.3418066E-03
 -0.5050501E-02  0.0000000E+00 -0.5050505E-02  0.1856065E-06  0.0000000E+00 -0.3417335E-03
 -0.5050495E-02  0.0000000E+00 -0.5050505E-02  0.2101427E-06  0.0000000E+00 -0.3416499E-03
 -0.5050482E-02  0.0000000E+00 -0.5050505E-02  0.2346000E-06  0.0000000E+00 -0.3415561E-03
 -0.5050449E-02  0.0000000E+00 -0.5050505E-02  0.2589694E-06  0.0000000E+00 -0.3414519E-03
 -0.5050376E-02  0.0000000E+00 -0.5050505E-02  0.2832418E-06  0.0000000E+00 -0.3413374E-03
 -0.5050299E-02  0.0000000E+00 -0.5050505E-02  0.3074081E-06  0.0000000E+00 -0.3412128E-03
 -0.5050178E-02  0.0000000E+00 -0.5050505E-02  0.3314592E-06  0.0000000E+00 -0.3410779E-03
 -0.5050018E-02  0.0000000E+00 -0.5050505E-02  0.3553861E-06  0.0000000E+00 -0.3409329E-03
 -0.5049710E-02  0.0000000E+00 -0.5050505E-02  0.3791794E-06  0.0000000E+00 -0.3407779E-03
 -0.5049253E-02  0.0000000E+00 -0.5050505E-02  0.4028299E-06  0.0000000E+00 -0.3406128E-03
 -0.5048636E-02  0.0000000E+00 -0.5050505E-02  0.4263276E-06  0.0000000E+00 -0.3404377E-03
 -0.5047442E-02  0.0000000E+00 -0.5050505E-02  0.4496626E-06  0.0000000E+00 -0.3402528E-03
 -0.5045727E-02  0.0000000E+00 -0.5050505E-02  0.4728241E-06  0.0000000E+00 -0.3400580E-03
 -0.5043261E-02  0.0000000E+00 -0.5050505E-02  0.4958003E-06  0.0000000E+00 -0.3398535E-03
 -0.5038714E-02  0.0000000E+00 -0.5050505E-02  0.5185785E-06  0.0000000E+00 -0.3396392E-03
 -0.5032318E-02  0.0000000E+00 -0.5050505E-02  0.5411444E-06  0.0000000E+00 -0.3394154E-03
 -0.5022454E-02  0.0000000E+00 -0.5050505E-02  0.5634815E-06  0.0000000E+00 -0.3391821E-03
 -0.5012589E-02  0.0000000E+00 -0.5050505E-02  0.5855708E-06  0.0000000E+00 -0.3389394E-03
 -0.5002725E-02  0.0000000E+00 -0.5050505E-02  0.6073899E-06  0.0000000E+00 -0.3386873E-03
 -0.4992860E-02  0.0000000E+00 -0.5050505E-02  0.6289121E-06  0.0000000E+00 -0.3384261E-03
 -0.4976523E-02  0.0000000E+00 -0.5050505E-02  0.6501055E-06  0.0000000E+00 -0.3381558E-03
 -0.4956794E-02  0.0000000E+00 -0.5050505E-02  0.6709311E-06  0.0000000E+00 -0.3378766E-03
 -0.4937066E-02  0.0000000E+00 -0.5050505E-02  0.6913422E-06  0.0000000E+00 -0.3375885E-03
 -0.4906239E-02  0.0000000E+00 -0.5050505E-02  0.7112816E-06  0.0000000E+00 -0.3372919E-03
 -0.4866782E-02  0.0000000E+00 -0.5050505E-02  0.7306799E-06  0.0000000E+00 -0.3369869E-03
 -0.4827325E-02  0.0000000E+00 -0.5050505E-02  0.7494531E-06  0.0000000E+00 -0.3366737E-03
 -0.4769372E-02  0.0000000E+00 -0.5050505E-02  0.7674992E-06  0.0000000E+00 -0.3363525E-03
 -0.4690458E-02  0.0000000E+00 -0.5050505E-02  0.7846954E-06  0.0000000E+00 -0.3360238E-03
 -0.4611543E-02  0.0000000E+00 -0.5050505E-02  0.8008943E-06  0.0000000E+00 -0.3356878E-03
 -0.4503035E-02  0.0000000E+00 -0.5050505E-02  0.8159196E-06  0.0000000E+00 -0.3353451E-03
 -0.4345206E-02  0.0000000E+00 -0.5050505E-02  0.8295623E-06  0.0000000E+00 -0.3349960E-03
 -0.4187378E-02  0.0000000E+00 -0.5050505E-02  0.8415760E-06  0.0000000E+00 -0.3346412E-03
 -0.3985156E-02  0.0000000E+00 -0.5050505E-02  0.8516726E-06  0.0000000E+00 -0.3342814E-03
 -0.3669499E-02  0.0000000E+00 -0.5050505E-02  0.8595183E-06  0.0000000E+00 -0.3339175E-03
 -0.3353842E-02  0.0000000E+00 -0.5050505E-02  0.8647309E-06  0.0000000E+00 -0.3335504E-03
 -0.2978990E-02  0.0000000E+00 -0.5050505E-02  0.8668775E-06  0.0000000E+00 -0.3331814E-03
 -0.2347676E-02  0.0000000E+00 -0.5050505E-02  0.8654752E-06  0.0000000E+00 -0.3328117E-03
 -0.1716362E-02  0.0000000E+00 -0.5050505E-02  0.8599943E-06  0.0000000E+00 -0.3324429E-03
 -0.1025842E-02  0.0000000E+00 -0.5050505E-02  0.8498657E-06  0.0000000E+00 -0.3320770E-03
  0.2367855E-03  0.0000000E+00 -0.5050505E-02  0.8344931E-06  0.0000000E+00 -0.3317159E-03
  0.1499413E-02  0.0000000E+00 -0.5050505E-02  0.8132710E-06  0.0000000E+00 -0.3313620E-03
  0.2762042E-02  0.0000000E+00 -0.5050505E-02  0.7856104E-06  0.0000000E+00 -0.3310180E-03
 -0.5050505E-02  0.0000000E+00 -0.5050505E-02  0.7509700E-06  0.0000000E+00 -0.3306867E-03
 -0.5050505E-02  0.0000000E+00 -0.5050505E-02  0.7088956E-06  0.0000000E+00 -0.3303714E-03
 -0.5050505E-02  0.0000000E+00 -0.5050505E-02  0.6590633E-06  0.0000000E+00 -0.3300753E-03
 -0.5050505E-02  0.0000000E+00 -0.5050505E-02  0.6013256E-06  0.0000000E+00 -0.3298020E-03
 -0.5050505E-02  0.0000000E+00 -0.5050505E-02  0.5357549E-06  0.0000000E+00 -0.3295550E-03
 -0.5050505E-02  0.0000000E+00 -0.5050505E-02  0.4626800E-06  0.0000000E+00 -0.3293377E-03
 -0.5050505E-02  0.0000000E+00 -0.5050505E-02  0.3827090E-06  0.0000000E+00 -0.3291535E-03
 -0.5050504E-02  0.0000000E+00 -0.5050505E-02  0.2967333E-06  0.0000000E+00 -0.3290052E-03
 -0.5050501E-02  0.0000000E+00 -0.5050505E-02  0.2059091E-06  0.0000000E+00 -0.3288954E-03
 -0.5050495E-02  0.0000000E+00 -0.5050505E-02  0.1116150E-06  0.0000000E+00 -0.3288260E-03
 -0.5050482E-02  0.0000000E+00 -0.5050505E-02  0.1538883E-07  0.0000000E+00 -0.3287983E-03
 -0.5050449E-02  0.0000000E+00 -0.5050505E-02 -0.8115007E-07  0.0000000E+00 -0.3288126E-03
 -0.5050376E-02  0.0000000E+00 -0.5050505E-02 -0.1763850E-06  0.0000000E+00 -0.3288688E-03
 -0.5050299E-02  0.0000000E+00 -0.5050505E-02 -0.2687826E-06  0.0000000E+00 -0.3289659E-03
 -0.5050178E-02  0.0000000E+00 -0.5050505E-02 -0.3569607E-06  0.0000000E+00 -0.3291023E-03
 -0.5050018E-02  0.0000000E+00 -0.5050505E-02 -0.4397390E-06  0.0000000E+00 -0.3292757E-03
 -0.5049710E-02  0.0000000E+00 -0.5050505E-02 -0.5161694E-06  0.0000000E+00 -0.3294834E-03
 -0.5049253E-02  0.0000000E+00 -0.5050505E-02 -0.5855460E-06  0.0000000E+00 -0.3297225E-03
 -0.5048636E-02  0.0000000E+00 -0.5050505E-02 -0.6474001E-06  0.0000000E+00 -0.3299895E-03
 -0.5047442E-02  0.0000000E+00 -0.5050505E-02 -0.7014810E-06  0.0000000E+00 -0.3302812E-03
 -0.5045727E-02  0.0000000E+00 -0.5050505E-02 -0.7477300E-06  0.0000000E+00 -0.3305940E-03
 -0.5043261E-02  0.0000000E+00 -0.5050505E-02 -0.7862502E-06  0.0000000E+00 -0.3309246E-03
 -0.5038714E-02  0.0000000E+00 -0.5050505E-02 -0.8172757E-06  0.0000000E+00 -0.3312696E-03
 -0.5032318E-02  0.0000000E+00 -0.5050505E-02 -0.8411431E-06  0.0000000E+00 -0.3316259E-03
 -0.5022454E-02  0.0000000E+00 -0.5050505E-02 -0.8582666E-06  0.0000000E+00 -0.3319904E-03
 -0.5012589E-02  0.0000000E+00 -0.5050505E-02 -0.8691170E-06  0.0000000E+00 -0.3323603E-03
 -0.5002725E-02  0.0000000E+00 -0.5050505E-02 -0.8742063E-06  0.0000000E+00 -0.3327331E-03
 -0.4992860E-02  0.0000000E+00 -0.5050505E-02 -0.8740774E-06  0.0000000E+00 -0.3331064E-03
 -0.4976523E-02  0.0000000E+00 -0.5050505E-02 -0.8692988E-06  0.0000000E+00 -0.3334782E-03
 -0.4956794E-02  0.0000000E+00 -0.5050505E-02 -0.8604647E-06  0.0000000E+00 -0.3338465E-03
 -0.4937066E-02  0.0000000E+00 -0.5050505E-02 -0.8482020E-06  0.0000000E+00 -0.3342097E-03
 -0.4906239E-02  0.0000000E+00 -0.5050505E-02 -0.8331841E-06  0.0000000E+00 -0.3345665E-03
 -0.4866782E-02  0.0000000E+00 -0.5050505E-02 -0.8161550E-06  0.0000000E+00 -0.3349158E-03
 -0.4827325E-02  0.0000000E+00 -0.5050505E-02 -0.7979674E-06  0.0000000E+00 -0.3352568E-03
 -0.4769372E-02  0.0000000E+00 -0.5050505E-02 -0.7796414E-06  0.0000000E+00 -0.3355889E-03
 -0.4690458E-02  0.0000000E+00 -0.5050505E-02 -0.7624559E-06  0.0000000E+00 -0.3359122E-03
 -0.4611543E-02  0.0000000E+00 -0.5050505E-02 -0.7480928E-06  0.0000000E+00 -0.3362268E-03
 -0.4503035E-02  0.0000000E+00 -0.5050505E-02 -0.7388682E-06  0.0000000E+00 -0.3365337E-03
 -0.4345206E-02  0.0000000E+00 -0.5050505E-02 -0.7381136E-06  0.0000000E+00 -0.3368344E-03
 -0.4187378E-02  0.0000000E+00 -0.5050505E-02 -0.7508201E-06  0.0000000E+00 -0.3371310E-03
 -0.3985156E-02  0.0000000E+00 -0.5050505E-02 -0.7847563E-06  0.0000000E+00 -0.3374267E-03
 -0.3669499E-02  0.0000000E+00 -0.5050505E-02 -0.8524604E-06  0.0000000E+00 -0.3377252E-03
 -0.3353842E-02  0.0000000E+00 -0.5050505E-02 -0.9748634E-06  0.0000000E+00 -0.3380295E-03
 -0.2978990E-02  0.0000000E+00 -0.5050505E-02 -0.1187954E-05  0.0000000E+00 -0.3383384E-03
 -0.2347676E-02  0.0000000E+00 -0.5050505E-02 -0.1554870E-05  0.0000000E+00 -0.3386339E-03
 -0.1716362E-02  0.0000000E+00 -0.5050505E-02 -0.2186206E-05  0.0000000E+00 -0.3388475E-03
 -0.1025842E-02  0.0000000E+00 -0.5050505E-02 -0.3265024E-05  0.0000000E+00 -0.3387669E-03
  0.2367855E-03  0.0000000E+00 -0.5050505E-02 -0.5028218E-05  0.0000000E+00 -0.3378131E-03
  0.1499413E-02  0.0000000E+00 -0.5050505E-02 -0.7422042E-05  0.0000000E+00 -0.3346806E-03
  0.5287294E-02  0.0000000E+00 -0.5050505E-02 -0.8042136E-05  0.0000000E+00 -0.3279903E-03
 -0.5050505E-02  0.0000000E+00 -0.5050505E-02  0.1747879E-07  0.0000000E+00 -0.3413274E-03
 -0.5050505E-02  0.0000000E+00 -0.5050505E-02  0.5242989E-07  0.0000000E+00 -0.3413167E-03
 -0.5050505E-02  0.0000000E+00 -0.5050505E-02  0.8736145E-07  0.0000000E+00 -0.3412954E-03
 -0.5050505E-02  0.0000000E+00 -0.5050505E-02  0.1222605E-06  0.0000000E+00 -0.3412634E-03
 -0.5050505E-02  0.0000000E+00 -0.5050505E-02  0.1571140E-06  0.0000000E+00 -0.3412207E-03
 -0.5050505E-02  0.0000000E+00 -0.5050505E-02  0.1919092E-06  0.0000000E+00 -0.3411675E-03
 -0.5050504E-02  0.0000000E+00 -0.5050505E-02  0.2266332E-06  0.0000000E+00 -0.3411036E-03
 -0.5050501E-02  0.0000000E+00 -0.5050505E-02  0.2612731E-06  0.0000000E+00 -0.3410291E-03
 -0.5050495E-02  0.0000000E+00 -0.5050505E-02  0.2958163E-06  0.0000000E+00 -0.3409440E-03
 -0.5050482E-02  0.0000000E+00 -0.5050505E-02  0.3302501E-06  0.0000000E+00 -0.3408484E-03
 -0.5050449E-02  0.0000000E+00 -0.5050505E-02  0.3645620E-06  0.0000000E+00 -0.3407423E-03
 -0.5050376E-02  0.0000000E+00 -0.5050505E-02  0.3987394E-06  0.0000000E+00 -0.3406258E-03
 -0.5050299E-02  0.0000000E+00 -0.5050505E-02  0.4327698E-06  0.0000000E+00 -0.3404988E-03
 -0.5050178E-02  0.0000000E+00 -0.5050505E-02  0.4666408E-06  0.0000000E+00 -0.3403614E-03
 -0.5050018E-02  0.0000000E+00 -0.5050505E-02  0.5003398E-06  0.0000000E+00 -0.3402137E-03
 -0.5049710E-02  0.0000000E+00 -0.5050505E-02  0.5338542E-06  0.0000000E+00 -0.3400558E-03
 -0.5049253E-02  0.0000000E+00 -0.5050505E-02  0.5671711E-06  0.0000000E+00 -0.3398875E-03
 -0.5048636E-02  0.0000000E+00 -0.5050505E-02  0.6002773E-06  0.0000000E+00 -0.3397092E-03
 -0.5047442E-02  0.0000000E+00 -0.5050505E-02  0.6331591E-06  0.0000000E+00 -0.3395207E-03
 -0.5045727E-02  0.0000000E+00 -0.5050505E-02  0.6658019E-06  0.0000000E+00 -0.3393222E-03
 -0.5043261E-02  0.0000000E+00 -0.5050505E-02  0.6981900E-06  0.0000000E+00 -0.3391137E-03
 -0.5038714E-02  0.0000000E+00 -0.5050505E-02  0.7303063E-06  0.0000000E+00 -0.3388953E-03
 -0.5032318E-02  0.0000000E+00 -0.5050505E-02  0.7621316E-06  0.0000000E+00 -0.3386671E-03
 -0.5022454E-02  0.0000000E+00 -0.5050505E-02  0.7936438E-06  0.0000000E+00 -0.3384291E-03
 -0.5012589E-02  0.0000000E+00 -0.5050505E-02  0.8248177E-06  0.0000000E+00 -0.3381816E-03
 -0.5002725E-02  0.0000000E+00 -0.5050505E-02  0.8556231E-06  0.0000000E+00 -0.3379244E-03
 -0.4992860E-02  0.0000000E+00 -0.5050505E-02  0.8860245E-06  0.0000000E+00 -0.3376578E-03
 -0.4976523E-02  0.0000000E+00 -0.5050505E-02  0.9159788E-06  0.0000000E+00 -0.3373819E-03
 -0.4956794E-02  0.0000000E+00 -0.5050505E-02  0.9454339E-06  0.0000000E+00 -0.3370967E-03
 -0.4937066E-02  0.0000000E+00 -0.5050505E-02  0.9743266E-06  0.0000000E+00 -0.3368025E-03