title = "dataset feddes"
variables = "x", "y", "z", "vx", "vy", "vz"
zone t = "velocities, solution time =  4.700E+01 days        " i =   99, j =   99, k =    1,  f=point
 -0.5050505E-02  0.0000000E+00 -0.5050505E-02  0.6250280E-07  0.0000000E+00 -0.4880854E-04
 -0.5050505E-02  0.0000000E+00 -0.5050505E-02  0.1876819E-06  0.0000000E+00 -0.4855687E-04
 -0.5050505E-02  0.0000000E+00 -0.5050505E-02  0.3133865E-06  0.0000000E+00 -0.4805286E-04
 -0.5050505E-02  0.0000000E+00 -0.5050505E-02  0.4399763E-06  0.0000000E+00 -0.4729514E-04
 -0.5050505E-02  0.0000000E+00 -0.5050505E-02  0.5678208E-06  0.0000000E+00 -0.4628165E-04
 -0.5050505E-02  0.0000000E+00 -0.5050505E-02  0.6973029E-06  0.0000000E+00 -0.4500957E-04
 -0.5050504E-02  0.0000000E+00 -0.5050505E-02  0.8288218E-06  0.0000000E+00 -0.4347533E-04
 -0.5050501E-02  0.0000000E+00 -0.5050505E-02  0.9627969E-06  0.0000000E+00 -0.4167459E-04
 -0.5050495E-02  0.0000000E+00 -0.5050505E-02  0.1099672E-05  0.0000000E+00 -0.3960214E-04
 -0.5050482E-02  0.0000000E+00 -0.5050505E-02  0.1239919E-05  0.0000000E+00 -0.3725190E-04
 -0.5050449E-02  0.0000000E+00 -0.5050505E-02  0.1384045E-05  0.0000000E+00 -0.3461683E-04
 -0.5050376E-02  0.0000000E+00 -0.5050505E-02  0.1532594E-05  0.0000000E+00 -0.3168890E-04
 -0.5050299E-02  0.0000000E+00 -0.5050505E-02  0.1686156E-05  0.0000000E+00 -0.2845896E-04
 -0.5050178E-02  0.0000000E+00 -0.5050505E-02  0.1845372E-05  0.0000000E+00 -0.2491668E-04
 -0.5050018E-02  0.0000000E+00 -0.5050505E-02  0.2010944E-05  0.0000000E+00 -0.2105045E-04
 -0.5049710E-02  0.0000000E+00 -0.5050505E-02  0.2183638E-05  0.0000000E+00 -0.1684725E-04
 -0.5049253E-02  0.0000000E+00 -0.5050505E-02  0.2364298E-05  0.0000000E+00 -0.1229251E-04
 -0.5048636E-02  0.0000000E+00 -0.5050505E-02  0.2553856E-05  0.0000000E+00 -0.7369966E-05
 -0.5047442E-02  0.0000000E+00 -0.5050505E-02  0.2753342E-05  0.0000000E+00 -0.2060453E-05
 -0.5045727E-02  0.0000000E+00 -0.5050505E-02  0.2963901E-05  0.0000000E+00  0.3666505E-05
 -0.5043261E-02  0.0000000E+00 -0.5050505E-02  0.3186852E-05  0.0000000E+00  0.9838074E-05
 -0.5038714E-02  0.0000000E+00 -0.5050505E-02  0.3423650E-05  0.0000000E+00  0.1647597E-04
 -0.5032318E-02  0.0000000E+00 -0.5050505E-02  0.3675936E-05  0.0000000E+00  0.2361077E-04
 -0.5022454E-02  0.0000000E+00 -0.5050505E-02  0.3945556E-05  0.0000000E+00  0.3127677E-04
 -0.5012589E-02  0.0000000E+00 -0.5050505E-02  0.4234600E-05  0.0000000E+00  0.3951243E-04
 -0.5002725E-02  0.0000000E+00 -0.5050505E-02  0.4545443E-05  0.0000000E+00  0.4836096E-04
 -0.4992860E-02  0.0000000E+00 -0.5050505E-02  0.4880788E-05  0.0000000E+00  0.5787102E-04
 -0.4976523E-02  0.0000000E+00 -0.5050505E-02  0.5243731E-05  0.0000000E+00  0.6809747E-04
 -0.4956794E-02  0.0000000E+00 -0.5050505E-02  0.5637830E-05  0.0000000E+00  0.7910235E-04
 -0.4937066E-02  0.0000000E+00 -0.5050505E-02  0.6067200E-05  0.0000000E+00  0.9095597E-04
 -0.4906239E-02  0.0000000E+00 -0.5050505E-02  0.6536630E-05  0.0000000E+00  0.1037383E-03
 -0.4866782E-02  0.0000000E+00 -0.5050505E-02  0.7051734E-05  0.0000000E+00  0.1175407E-03
 -0.4827325E-02  0.0000000E+00 -0.5050505E-02  0.7619159E-05  0.0000000E+00  0.1324678E-03
 -0.4769372E-02  0.0000000E+00 -0.5050505E-02  0.8246854E-05  0.0000000E+00  0.1486403E-03
 -0.4690458E-02  0.0000000E+00 -0.5050505E-02  0.8944465E-05  0.0000000E+00  0.1661983E-03
 -0.4611543E-02  0.0000000E+00 -0.5050505E-02  0.9723892E-05  0.0000000E+00  0.1853058E-03
 -0.4503035E-02  0.0000000E+00 -0.5050505E-02  0.1060013E-04  0.0000000E+00  0.2061564E-03
 -0.4345206E-02  0.0000000E+00 -0.5050505E-02  0.1159258E-04  0.0000000E+00  0.2289820E-03
 -0.4187378E-02  0.0000000E+00 -0.5050505E-02  0.1272719E-04  0.0000000E+00  0.2540650E-03
 -0.3985156E-02  0.0000000E+00 -0.5050505E-02  0.1404007E-04  0.0000000E+00  0.2817566E-03
 -0.3669499E-02  0.0000000E+00 -0.5050505E-02  0.1558388E-04  0.0000000E+00  0.3125070E-03
 -0.3353842E-02  0.0000000E+00 -0.5050505E-02  0.1743965E-04  0.0000000E+00  0.3469147E-03
 -0.2978990E-02  0.0000000E+00 -0.5050505E-02  0.1973920E-04  0.0000000E+00  0.3858143E-03
 -0.2347676E-02  0.0000000E+00 -0.5050505E-02  0.2270885E-04  0.0000000E+00  0.4304376E-03
 -0.1716362E-02  0.0000000E+00 -0.5050505E-02  0.2675578E-04  0.0000000E+00  0.4827206E-03
 -0.1025842E-02  0.0000000E+00 -0.5050505E-02  0.3263297E-04  0.0000000E+00  0.5458954E-03
  0.2367855E-03  0.0000000E+00 -0.5050505E-02  0.4170827E-04  0.0000000E+00  0.6255912E-03
  0.1499413E-02  0.0000000E+00 -0.5050505E-02  0.5610531E-04  0.0000000E+00  0.7314842E-03
  0.2762042E-02  0.0000000E+00 -0.5050505E-02  0.4072582E-04  0.0000000E+00  0.8374396E-03
 -0.5050505E-02  0.0000000E+00 -0.5050505E-02  0.4965357E-04  0.0000000E+00  0.9377538E-03
 -0.5050505E-02  0.0000000E+00 -0.5050505E-02  0.6874569E-04  0.0000000E+00  0.1070806E-02
 -0.5050505E-02  0.0000000E+00 -0.5050505E-02  0.3372387E-04  0.0000000E+00  0.1187287E-02
 -0.5050505E-02  0.0000000E+00 -0.5050505E-02  0.5047681E-04  0.0000000E+00  0.1284704E-02
 -0.5050505E-02  0.0000000E+00 -0.5050505E-02  0.7096864E-04  0.0000000E+00  0.1426853E-02
 -0.5050505E-02  0.0000000E+00 -0.5050505E-02  0.1101284E-03  0.0000000E+00  0.1642552E-02
 -0.5050505E-02  0.0000000E+00 -0.5050505E-02  0.1342237E-03  0.0000000E+00  0.1940751E-02
 -0.5050504E-02  0.0000000E+00 -0.5050505E-02 -0.1910919E-03  0.0000000E+00  0.1873988E-02
 -0.5050501E-02  0.0000000E+00 -0.5050505E-02 -0.1054257E-03  0.0000000E+00  0.1516395E-02
 -0.5050495E-02  0.0000000E+00 -0.5050505E-02 -0.7346936E-04  0.0000000E+00  0.1306342E-02
 -0.5050482E-02  0.0000000E+00 -0.5050505E-02 -0.5632955E-04  0.0000000E+00  0.1156690E-02
 -0.5050449E-02  0.0000000E+00 -0.5050505E-02 -0.4607140E-04  0.0000000E+00  0.1040271E-02
 -0.5050376E-02  0.0000000E+00 -0.5050505E-02 -0.3975627E-04  0.0000000E+00  0.9438177E-03
 -0.5050299E-02  0.0000000E+00 -0.5050505E-02 -0.3453972E-04  0.0000000E+00  0.8611406E-03
 -0.5050178E-02  0.0000000E+00 -0.5050505E-02 -0.3054556E-04  0.0000000E+00  0.7893321E-03
 -0.5050018E-02  0.0000000E+00 -0.5050505E-02 -0.2746924E-04  0.0000000E+00  0.7258091E-03
 -0.5049710E-02  0.0000000E+00 -0.5050505E-02 -0.2496236E-04  0.0000000E+00  0.6687899E-03
 -0.5049253E-02  0.0000000E+00 -0.5050505E-02 -0.2279801E-04  0.0000000E+00  0.6171707E-03
 -0.5048636E-02  0.0000000E+00 -0.5050505E-02 -0.2085616E-04  0.0000000E+00  0.5702540E-03
 -0.5047442E-02  0.0000000E+00 -0.5050505E-02 -0.1908273E-04  0.0000000E+00  0.5275497E-03
 -0.5045727E-02  0.0000000E+00 -0.5050505E-02 -0.1745714E-04  0.0000000E+00  0.4886620E-03
 -0.5043261E-02  0.0000000E+00 -0.5050505E-02 -0.1597198E-04  0.0000000E+00  0.4532364E-03
 -0.5038714E-02  0.0000000E+00 -0.5050505E-02 -0.1462238E-04  0.0000000E+00  0.4209408E-03
 -0.5032318E-02  0.0000000E+00 -0.5050505E-02 -0.1340180E-04  0.0000000E+00  0.3914635E-03
 -0.5022454E-02  0.0000000E+00 -0.5050505E-02 -0.1230114E-04  0.0000000E+00  0.3645156E-03
 -0.5012589E-02  0.0000000E+00 -0.5050505E-02 -0.1130935E-04  0.0000000E+00  0.3398354E-03
 -0.5002725E-02  0.0000000E+00 -0.5050505E-02 -0.1041453E-04  0.0000000E+00  0.3171895E-03
 -0.4992860E-02  0.0000000E+00 -0.5050505E-02 -0.9604751E-05  0.0000000E+00  0.2963731E-03
 -0.4976523E-02  0.0000000E+00 -0.5050505E-02 -0.8868769E-05  0.0000000E+00  0.2772086E-03
 -0.4956794E-02  0.0000000E+00 -0.5050505E-02 -0.8196337E-05  0.0000000E+00  0.2595431E-03
 -0.4937066E-02  0.0000000E+00 -0.5050505E-02 -0.7578373E-05  0.0000000E+00  0.2432457E-03
 -0.4906239E-02  0.0000000E+00 -0.5050505E-02 -0.7006971E-05  0.0000000E+00  0.2282045E-03
 -0.4866782E-02  0.0000000E+00 -0.5050505E-02 -0.6475320E-05  0.0000000E+00  0.2143244E-03
 -0.4827325E-02  0.0000000E+00 -0.5050505E-02 -0.5977593E-05  0.0000000E+00  0.2015239E-03
 -0.4769372E-02  0.0000000E+00 -0.5050505E-02 -0.5508816E-05  0.0000000E+00  0.1897339E-03
 -0.4690458E-02  0.0000000E+00 -0.5050505E-02 -0.5064737E-05  0.0000000E+00  0.1788951E-03
 -0.4611543E-02  0.0000000E+00 -0.5050505E-02 -0.4641695E-05  0.0000000E+00  0.1689572E-03
 -0.4503035E-02  0.0000000E+00 -0.5050505E-02 -0.4236499E-05  0.0000000E+00  0.1598774E-03
 -0.4345206E-02  0.0000000E+00 -0.5050505E-02 -0.3846307E-05  0.0000000E+00  0.1516193E-03
 -0.4187378E-02  0.0000000E+00 -0.5050505E-02 -0.3468475E-05  0.0000000E+00  0.1441527E-03
 -0.3985156E-02  0.0000000E+00 -0.5050505E-02 -0.3100374E-05  0.0000000E+00  0.1374530E-03
 -0.3669499E-02  0.0000000E+00 -0.5050505E-02 -0.2739071E-05  0.0000000E+00  0.1315015E-03
 -0.3353842E-02  0.0000000E+00 -0.5050505E-02 -0.2380723E-05  0.0000000E+00  0.1262869E-03
 -0.2978990E-02  0.0000000E+00 -0.5050505E-02 -0.2019241E-05  0.0000000E+00  0.1218078E-03
 -0.2347676E-02  0.0000000E+00 -0.5050505E-02 -0.1642954E-05  0.0000000E+00  0.1180814E-03
 -0.1716362E-02  0.0000000E+00 -0.5050505E-02 -0.1225443E-05  0.0000000E+00  0.1151638E-03
 -0.1025842E-02  0.0000000E+00 -0.5050505E-02 -0.6977028E-06  0.0000000E+00  0.1132082E-03
  0.2367855E-03  0.0000000E+00 -0.5050505E-02  0.1446917E-06  0.0000000E+00  0.1126459E-03
  0.1499413E-02  0.0000000E+00 -0.5050505E-02  0.1978521E-05  0.0000000E+00  0.1148048E-03
  0.5287294E-02  0.0000000E+00 -0.5050505E-02  0.3999609E-04  0.0000000E+00  0.9121909E-04
 -0.5050505E-02  0.0000000E+00 -0.5050505E-02  0.1872356E-06  0.0000000E+00 -0.4870180E-04
 -0.5050505E-02  0.0000000E+00 -0.5050505E-02  0.5622280E-06  0.0000000E+00 -0.4845051E-04
 -0.5050505E-02  0.0000000E+00 -0.5050505E-02  0.9387961E-06  0.0000000E+00 -0.4794728E-04
 -0.5050505E-02  0.0000000E+00 -0.5050505E-02  0.1318016E-05  0.0000000E+00 -0.4719075E-04
 -0.5050505E-02  0.0000000E+00 -0.5050505E-02  0.1700994E-05  0.0000000E+00 -0.4617886E-04
 -0.5050505E-02  0.0000000E+00 -0.5050505E-02  0.2088874E-05  0.0000000E+00 -0.4490885E-04
 -0.5050504E-02  0.0000000E+00 -0.5050505E-02  0.2482851E-05  0.0000000E+00 -0.4337716E-04
 -0.5050501E-02  0.0000000E+00 -0.5050505E-02  0.2884178E-05  0.0000000E+00 -0.4157948E-04
 -0.5050495E-02  0.0000000E+00 -0.5050505E-02  0.3294182E-05  0.0000000E+00 -0.3951065E-04
 -0.5050482E-02  0.0000000E+00 -0.5050505E-02  0.3714277E-05  0.0000000E+00 -0.3716465E-04
 -0.5050449E-02  0.0000000E+00 -0.5050505E-02  0.4145975E-05  0.0000000E+00 -0.3453449E-04
 -0.5050376E-02  0.0000000E+00 -0.5050505E-02  0.4590906E-05  0.0000000E+00 -0.3161221E-04
 -0.5050299E-02  0.0000000E+00 -0.5050505E-02  0.5050835E-05  0.0000000E+00 -0.2838873E-04
 -0.5050178E-02  0.0000000E+00 -0.5050505E-02  0.5527679E-05  0.0000000E+00 -0.2485382E-04
 -0.5050018E-02  0.0000000E+00 -0.5050505E-02  0.6023532E-05  0.0000000E+00 -0.2099597E-04
 -0.5049710E-02  0.0000000E+00 -0.5050505E-02  0.6540690E-05  0.0000000E+00 -0.1680228E-04
 -0.5049253E-02  0.0000000E+00 -0.5050505E-02  0.7081676E-05  0.0000000E+00 -0.1225830E-04
 -0.5048636E-02  0.0000000E+00 -0.5050505E-02  0.7649276E-05  0.0000000E+00 -0.7347930E-05
 -0.5047442E-02  0.0000000E+00 -0.5050505E-02  0.8246573E-05  0.0000000E+00 -0.2052173E-05
 -0.5045727E-02  0.0000000E+00 -0.5050505E-02  0.8876982E-05  0.0000000E+00  0.3659202E-05
 -0.5043261E-02  0.0000000E+00 -0.5050505E-02  0.9544442E-05  0.0000000E+00  0.9813103E-05
 -0.5038714E-02  0.0000000E+00 -0.5050505E-02  0.1025331E-04  0.0000000E+00  0.1643099E-04
 -0.5032318E-02  0.0000000E+00 -0.5050505E-02  0.1100847E-04  0.0000000E+00  0.2354312E-04
 -0.5022454E-02  0.0000000E+00 -0.5050505E-02  0.1181546E-04  0.0000000E+00  0.3118341E-04
 -0.5012589E-02  0.0000000E+00 -0.5050505E-02  0.1268050E-04  0.0000000E+00  0.3938990E-04
 -0.5002725E-02  0.0000000E+00 -0.5050505E-02  0.1361068E-04  0.0000000E+00  0.4820528E-04
 -0.4992860E-02  0.0000000E+00 -0.5050505E-02  0.1461408E-04  0.0000000E+00  0.5767762E-04
 -0.4976523E-02  0.0000000E+00 -0.5050505E-02  0.1569991E-04  0.0000000E+00  0.6786105E-04
 -0.4956794E-02  0.0000000E+00 -0.5050505E-02  0.1687879E-04  0.0000000E+00  0.7881675E-04
 -0.4937066E-02  0.0000000E+00 -0.5050505E-02  0.1816297E-04  0.0000000E+00  0.9061398E-04
 -0.4906239E-02  0.0000000E+00 -0.5050505E-02  0.1956668E-04  0.0000000E+00  0.1033314E-03
 -0.4866782E-02  0.0000000E+00 -0.5050505E-02  0.2110661E-04  0.0000000E+00  0.1170588E-03
 -0.4827325E-02  0.0000000E+00 -0.5050505E-02  0.2280247E-04  0.0000000E+00  0.1318987E-03
 -0.4769372E-02  0.0000000E+00 -0.5050505E-02  0.2467778E-04  0.0000000E+00  0.1479691E-03
 -0.4690458E-02  0.0000000E+00 -0.5050505E-02  0.2676098E-04  0.0000000E+00  0.1654065E-03
 -0.4611543E-02  0.0000000E+00 -0.5050505E-02  0.2908705E-04  0.0000000E+00  0.1843700E-03
 -0.4503035E-02  0.0000000E+00 -0.5050505E-02  0.3169981E-04  0.0000000E+00  0.2050461E-03
 -0.4345206E-02  0.0000000E+00 -0.5050505E-02  0.3465554E-04  0.0000000E+00  0.2276563E-03
 -0.4187378E-02  0.0000000E+00 -0.5050505E-02  0.3802879E-04  0.0000000E+00  0.2524669E-03
 -0.3985156E-02  0.0000000E+00 -0.5050505E-02  0.4192206E-04  0.0000000E+00  0.2798033E-03
 -0.3669499E-02  0.0000000E+00 -0.5050505E-02  0.4648261E-04  0.0000000E+00  0.3100715E-03
 -0.3353842E-02  0.0000000E+00 -0.5050505E-02  0.5193307E-04  0.0000000E+00  0.3437923E-03
 -0.2978990E-02  0.0000000E+00 -0.5050505E-02  0.5862902E-04  0.0000000E+00  0.3816564E-03
 -0.2347676E-02  0.0000000E+00 -0.5050505E-02  0.6717146E-04  0.0000000E+00  0.4246226E-03
 -0.1716362E-02  0.0000000E+00 -0.5050505E-02  0.7863470E-04  0.0000000E+00  0.4741027E-03
 -0.1025842E-02  0.0000000E+00 -0.5050505E-02  0.9504506E-04  0.0000000E+00  0.5323718E-03
  0.2367855E-03  0.0000000E+00 -0.5050505E-02  0.1204249E-03  0.0000000E+00  0.6036908E-03
  0.1499413E-02  0.0000000E+00 -0.5050505E-02  0.1631544E-03  0.0000000E+00  0.6982586E-03
  0.2762042E-02  0.0000000E+00 -0.5050505E-02  0.1330269E-03  0.0000000E+00  0.8098134E-03
 -0.5050505E-02  0.0000000E+00 -0.5050505E-02  0.1398722E-03  0.0000000E+00  0.9116785E-03
 -0.5050505E-02  0.0000000E+00 -0.5050505E-02  0.1628799E-03  0.0000000E+00  0.9857594E-03
 -0.5050505E-02  0.0000000E+00 -0.5050505E-02  0.1464903E-03  0.0000000E+00  0.1104645E-02
 -0.5050505E-02  0.0000000E+00 -0.5050505E-02  0.1479024E-03  0.0000000E+00  0.1249609E-02
 -0.5050505E-02  0.0000000E+00 -0.5050505E-02  0.1967147E-03  0.0000000E+00  0.1369452E-02
 -0.5050505E-02  0.0000000E+00 -0.5050505E-02  0.2917692E-03  0.0000000E+00  0.1520216E-02
 -0.5050505E-02  0.0000000E+00 -0.5050505E-02  0.2563999E-03  0.0000000E+00  0.1593872E-02
 -0.5050504E-02  0.0000000E+00 -0.5050505E-02 -0.4271831E-03  0.0000000E+00  0.1526985E-02
 -0.5050501E-02  0.0000000E+00 -0.5050505E-02 -0.2709181E-03  0.0000000E+00  0.1401141E-02
 -0.5050495E-02  0.0000000E+00 -0.5050505E-02 -0.2075709E-03  0.0000000E+00  0.1259521E-02
 -0.5050482E-02  0.0000000E+00 -0.5050505E-02 -0.1628301E-03  0.0000000E+00  0.1131490E-02
 -0.5050449E-02  0.0000000E+00 -0.5050505E-02 -0.1345874E-03  0.0000000E+00  0.1025828E-02
 -0.5050376E-02  0.0000000E+00 -0.5050505E-02 -0.1181984E-03  0.0000000E+00  0.9343469E-03
 -0.5050299E-02  0.0000000E+00 -0.5050505E-02 -0.1024506E-03  0.0000000E+00  0.8539158E-03
 -0.5050178E-02  0.0000000E+00 -0.5050505E-02 -0.9075794E-04  0.0000000E+00  0.7841666E-03
 -0.5050018E-02  0.0000000E+00 -0.5050505E-02 -0.8186220E-04  0.0000000E+00  0.7220435E-03
 -0.5049710E-02  0.0000000E+00 -0.5050505E-02 -0.7456362E-04  0.0000000E+00  0.6658432E-03
 -0.5049253E-02  0.0000000E+00 -0.5050505E-02 -0.6819177E-04  0.0000000E+00  0.6146923E-03
 -0.5048636E-02  0.0000000E+00 -0.5050505E-02 -0.6242305E-04  0.0000000E+00  0.5680690E-03
 -0.5047442E-02  0.0000000E+00 -0.5050505E-02 -0.5712533E-04  0.0000000E+00  0.5255852E-03
 -0.5045727E-02  0.0000000E+00 -0.5050505E-02 -0.5225642E-04  0.0000000E+00  0.4868941E-03
 -0.5043261E-02  0.0000000E+00 -0.5050505E-02 -0.4780472E-04  0.0000000E+00  0.4516583E-03
 -0.5038714E-02  0.0000000E+00 -0.5050505E-02 -0.4376039E-04  0.0000000E+00  0.4195478E-03
 -0.5032318E-02  0.0000000E+00 -0.5050505E-02 -0.4010508E-04  0.0000000E+00  0.3902468E-03
 -0.5022454E-02  0.0000000E+00 -0.5050505E-02 -0.3681121E-04  0.0000000E+00  0.3634622E-03
 -0.5012589E-02  0.0000000E+00 -0.5050505E-02 -0.3384491E-04  0.0000000E+00  0.3389289E-03
 -0.5002725E-02  0.0000000E+00 -0.5050505E-02 -0.3116967E-04  0.0000000E+00  0.3164124E-03
 -0.4992860E-02  0.0000000E+00 -0.5050505E-02 -0.2874920E-04  0.0000000E+00  0.2957080E-03
 -0.4976523E-02  0.0000000E+00 -0.5050505E-02 -0.2654938E-04  0.0000000E+00  0.2766391E-03
 -0.4956794E-02  0.0000000E+00 -0.5050505E-02 -0.2453935E-04  0.0000000E+00  0.2590546E-03
 -0.4937066E-02  0.0000000E+00 -0.5050505E-02 -0.2269181E-04  0.0000000E+00  0.2428252E-03
 -0.4906239E-02  0.0000000E+00 -0.5050505E-02 -0.2098311E-04  0.0000000E+00  0.2278410E-03
 -0.4866782E-02  0.0000000E+00 -0.5050505E-02 -0.1939289E-04  0.0000000E+00  0.2140084E-03
 -0.4827325E-02  0.0000000E+00 -0.5050505E-02 -0.1790379E-04  0.0000000E+00  0.2012475E-03
 -0.4769372E-02  0.0000000E+00 -0.5050505E-02 -0.1650098E-04  0.0000000E+00  0.1894903E-03
 -0.4690458E-02  0.0000000E+00 -0.5050505E-02 -0.1517181E-04  0.0000000E+00  0.1786788E-03
 -0.4611543E-02  0.0000000E+00 -0.5050505E-02 -0.1390542E-04  0.0000000E+00  0.1687634E-03
 -0.4503035E-02  0.0000000E+00 -0.5050505E-02 -0.1269233E-04  0.0000000E+00  0.1597019E-03
 -0.4345206E-02  0.0000000E+00 -0.5050505E-02 -0.1152414E-04  0.0000000E+00  0.1514583E-03
 -0.4187378E-02  0.0000000E+00 -0.5050505E-02 -0.1039310E-04  0.0000000E+00  0.1440024E-03
 -0.3985156E-02  0.0000000E+00 -0.5050505E-02 -0.9291634E-05  0.0000000E+00  0.1373093E-03
 -0.3669499E-02  0.0000000E+00 -0.5050505E-02 -0.8211511E-05  0.0000000E+00  0.1313591E-03
 -0.3353842E-02  0.0000000E+00 -0.5050505E-02 -0.7142523E-05  0.0000000E+00  0.1261370E-03
 -0.2978990E-02  0.0000000E+00 -0.5050505E-02 -0.6069659E-05  0.0000000E+00  0.1216340E-03
 -0.2347676E-02  0.0000000E+00 -0.5050505E-02 -0.4966899E-05  0.0000000E+00  0.1178471E-03
 -0.1716362E-02  0.0000000E+00 -0.5050505E-02 -0.3782327E-05  0.0000000E+00  0.1147752E-03
 -0.1025842E-02  0.0000000E+00 -0.5050505E-02 -0.2400098E-05  0.0000000E+00  0.1123944E-03
  0.2367855E-03  0.0000000E+00 -0.5050505E-02 -0.5378595E-06  0.0000000E+00  0.1105303E-03
  0.1499413E-02  0.0000000E+00 -0.5050505E-02  0.2541881E-05  0.0000000E+00  0.1082577E-03
  0.5287294E-02  0.0000000E+00 -0.5050505E-02  0.8863552E-05  0.0000000E+00  0.1010927E-03
 -0.5050505E-02  0.0000000E+00 -0.5050505E-02  0.3113317E-06  0.0000000E+00 -0.4849006E-04
 -0.5050505E-02  0.0000000E+00 -0.5050505E-02  0.9348624E-06  0.0000000E+00 -0.4823953E-04
 -0.5050505E-02  0.0000000E+00 -0.5050505E-02  0.1561012E-05  0.0000000E+00 -0.4773783E-04
 -0.5050505E-02  0.0000000E+00 -0.5050505E-02  0.2191566E-05  0.0000000E+00 -0.4698363E-04
 -0.5050505E-02  0.0000000E+00 -0.5050505E-02  0.2828356E-05  0.0000000E+00 -0.4597493E-04
 -0.5050505E-02  0.0000000E+00 -0.5050505E-02  0.3473280E-05  0.0000000E+00 -0.4470897E-04
 -0.5050504E-02  0.0000000E+00 -0.5050505E-02  0.4128316E-05  0.0000000E+00 -0.4318230E-04
 -0.5050501E-02  0.0000000E+00 -0.5050505E-02  0.4795542E-05  0.0000000E+00 -0.4139065E-04
 -0.5050495E-02  0.0000000E+00 -0.5050505E-02  0.5477155E-05  0.0000000E+00 -0.3932896E-04
 -0.5050482E-02  0.0000000E+00 -0.5050505E-02  0.6175496E-05  0.0000000E+00 -0.3699129E-04
 -0.5050449E-02  0.0000000E+00 -0.5050505E-02  0.6893071E-05  0.0000000E+00 -0.3437079E-04
 -0.5050376E-02  0.0000000E+00 -0.5050505E-02  0.7632581E-05  0.0000000E+00 -0.3145962E-04
 -0.5050299E-02  0.0000000E+00 -0.5050505E-02  0.8396946E-05  0.0000000E+00 -0.2824886E-04
 -0.5050178E-02  0.0000000E+00 -0.5050505E-02  0.9189343E-05  0.0000000E+00 -0.2472847E-04
 -0.5050018E-02  0.0000000E+00 -0.5050505E-02  0.1001324E-04  0.0000000E+00 -0.2088711E-04
 -0.5049710E-02  0.0000000E+00 -0.5050505E-02  0.1087244E-04  0.0000000E+00 -0.1671213E-04
 -0.5049253E-02  0.0000000E+00 -0.5050505E-02  0.1177112E-04  0.0000000E+00 -0.1218934E-04
 -0.5048636E-02  0.0000000E+00 -0.5050505E-02  0.1271389E-04  0.0000000E+00 -0.7302944E-05
 -0.5047442E-02  0.0000000E+00 -0.5050505E-02  0.1370585E-04  0.0000000E+00 -0.2034275E-05
 -0.5045727E-02  0.0000000E+00 -0.5050505E-02  0.1475265E-04  0.0000000E+00  0.3646422E-05
 -0.5043261E-02  0.0000000E+00 -0.5050505E-02  0.1586080E-04  0.0000000E+00  0.9765539E-05
 -0.5038714E-02  0.0000000E+00 -0.5050505E-02  0.1703750E-04  0.0000000E+00  0.1634403E-04
 -0.5032318E-02  0.0000000E+00 -0.5050505E-02  0.1829083E-04  0.0000000E+00  0.2341153E-04
 -0.5022454E-02  0.0000000E+00 -0.5050505E-02  0.1962991E-04  0.0000000E+00  0.3100122E-04
 -0.5012589E-02  0.0000000E+00 -0.5050505E-02  0.2106504E-04  0.0000000E+00  0.3915028E-04
 -0.5002725E-02  0.0000000E+00 -0.5050505E-02  0.2260790E-04  0.0000000E+00  0.4790044E-04
 -0.4992860E-02  0.0000000E+00 -0.5050505E-02  0.2427180E-04  0.0000000E+00  0.5729856E-04
 -0.4976523E-02  0.0000000E+00 -0.5050505E-02  0.2607193E-04  0.0000000E+00  0.6739740E-04
 -0.4956794E-02  0.0000000E+00 -0.5050505E-02  0.2802572E-04  0.0000000E+00  0.7825645E-04
 -0.4937066E-02  0.0000000E+00 -0.5050505E-02  0.3015330E-04  0.0000000E+00  0.8994294E-04
 -0.4906239E-02  0.0000000E+00 -0.5050505E-02  0.3247801E-04  0.0000000E+00  0.1025331E-03
 -0.4866782E-02  0.0000000E+00 -0.5050505E-02  0.3502710E-04  0.0000000E+00  0.1161134E-03
 -0.4827325E-02  0.0000000E+00 -0.5050505E-02  0.3783267E-04  0.0000000E+00  0.1307825E-03
 -0.4769372E-02  0.0000000E+00 -0.5050505E-02  0.4093288E-04  0.0000000E+00  0.1466535E-03
 -0.4690458E-02  0.0000000E+00 -0.5050505E-02  0.4437361E-04  0.0000000E+00  0.1638559E-03
 -0.4611543E-02  0.0000000E+00 -0.5050505E-02  0.4821085E-04  0.0000000E+00  0.1825397E-03
 -0.4503035E-02  0.0000000E+00 -0.5050505E-02  0.5251401E-04  0.0000000E+00  0.2028785E-03
 -0.4345206E-02  0.0000000E+00 -0.5050505E-02  0.5737106E-04  0.0000000E+00  0.2250752E-03
 -0.4187378E-02  0.0000000E+00 -0.5050505E-02  0.6289639E-04  0.0000000E+00  0.2493680E-03
 -0.3985156E-02  0.0000000E+00 -0.5050505E-02  0.6924345E-04  0.0000000E+00  0.2760378E-03
 -0.3669499E-02  0.0000000E+00 -0.5050505E-02  0.7662608E-04  0.0000000E+00  0.3054173E-03
 -0.3353842E-02  0.0000000E+00 -0.5050505E-02  0.8535565E-04  0.0000000E+00  0.3379005E-03
 -0.2978990E-02  0.0000000E+00 -0.5050505E-02  0.9590827E-04  0.0000000E+00  0.3739481E-03
 -0.2347676E-02  0.0000000E+00 -0.5050505E-02  0.1090511E-03  0.0000000E+00  0.4140793E-03
 -0.1716362E-02  0.0000000E+00 -0.5050505E-02  0.1260890E-03  0.0000000E+00  0.4588124E-03
 -0.1025842E-02  0.0000000E+00 -0.5050505E-02  0.1493750E-03  0.0000000E+00  0.5084406E-03
  0.2367855E-03  0.0000000E+00 -0.5050505E-02  0.1834567E-03  0.0000000E+00  0.5622472E-03
  0.1499413E-02  0.0000000E+00 -0.5050505E-02  0.2379946E-03  0.0000000E+00  0.6156568E-03
  0.2762042E-02  0.0000000E+00 -0.5050505E-02  0.2273015E-03  0.0000000E+00  0.6873233E-03
 -0.5050505E-02  0.0000000E+00 -0.5050505E-02  0.2165336E-03  0.0000000E+00  0.7729211E-03
 -0.5050505E-02  0.0000000E+00 -0.5050505E-02  0.2329336E-03  0.0000000E+00  0.8620056E-03
 -0.5050505E-02  0.0000000E+00 -0.5050505E-02  0.2778105E-03  0.0000000E+00  0.9701458E-03
 -0.5050505E-02  0.0000000E+00 -0.5050505E-02  0.2633882E-03  0.0000000E+00  0.1107290E-02
 -0.5050505E-02  0.0000000E+00 -0.5050505E-02  0.2782597E-03  0.0000000E+00  0.1218036E-02
 -0.5050505E-02  0.0000000E+00 -0.5050505E-02  0.4037473E-03  0.0000000E+00  0.1298762E-02
 -0.5050505E-02  0.0000000E+00 -0.5050505E-02  0.3141175E-03  0.0000000E+00  0.1432297E-02
 -0.5050504E-02  0.0000000E+00 -0.5050505E-02 -0.5488746E-03  0.0000000E+00  0.1426804E-02
 -0.5050501E-02  0.0000000E+00 -0.5050505E-02 -0.3570579E-03  0.0000000E+00  0.1304217E-02
 -0.5050495E-02  0.0000000E+00 -0.5050505E-02 -0.3257290E-03  0.0000000E+00  0.1205371E-02
 -0.5050482E-02  0.0000000E+00 -0.5050505E-02 -0.2546898E-03  0.0000000E+00  0.1090558E-02
 -0.5050449E-02  0.0000000E+00 -0.5050505E-02 -0.2123645E-03  0.0000000E+00  0.1002262E-02
 -0.5050376E-02  0.0000000E+00 -0.5050505E-02 -0.1960110E-03  0.0000000E+00  0.9180739E-03
 -0.5050299E-02  0.0000000E+00 -0.5050505E-02 -0.1666376E-03  0.0000000E+00  0.8398479E-03
 -0.5050178E-02  0.0000000E+00 -0.5050505E-02 -0.1484018E-03  0.0000000E+00  0.7746303E-03
 -0.5050018E-02  0.0000000E+00 -0.5050505E-02 -0.1348107E-03  0.0000000E+00  0.7152208E-03
 -0.5049710E-02  0.0000000E+00 -0.5050505E-02 -0.1233635E-03  0.0000000E+00  0.6604280E-03
 -0.5049253E-02  0.0000000E+00 -0.5050505E-02 -0.1131024E-03  0.0000000E+00  0.6100312E-03
 -0.5048636E-02  0.0000000E+00 -0.5050505E-02 -0.1036395E-03  0.0000000E+00  0.5638799E-03
 -0.5047442E-02  0.0000000E+00 -0.5050505E-02 -0.9485889E-04  0.0000000E+00  0.5217739E-03
 -0.5045727E-02  0.0000000E+00 -0.5050505E-02 -0.8675375E-04  0.0000000E+00  0.4834446E-03
 -0.5043261E-02  0.0000000E+00 -0.5050505E-02 -0.7933744E-04  0.0000000E+00  0.4485747E-03
 -0.5038714E-02  0.0000000E+00 -0.5050505E-02 -0.7260652E-04  0.0000000E+00  0.4168280E-03
 -0.5032318E-02  0.0000000E+00 -0.5050505E-02 -0.6653280E-04  0.0000000E+00  0.3878761E-03
 -0.5022454E-02  0.0000000E+00 -0.5050505E-02 -0.6106825E-04  0.0000000E+00  0.3614145E-03
 -0.5012589E-02  0.0000000E+00 -0.5050505E-02 -0.5615324E-04  0.0000000E+00  0.3371712E-03
 -0.5002725E-02  0.0000000E+00 -0.5050505E-02 -0.5172406E-04  0.0000000E+00  0.3149090E-03
 -0.4992860E-02  0.0000000E+00 -0.5050505E-02 -0.4771826E-04  0.0000000E+00  0.2944238E-03
 -0.4976523E-02  0.0000000E+00 -0.5050505E-02 -0.4407786E-04  0.0000000E+00  0.2755415E-03
 -0.4956794E-02  0.0000000E+00 -0.5050505E-02 -0.4075087E-04  0.0000000E+00  0.2581143E-03
 -0.4937066E-02  0.0000000E+00 -0.5050505E-02 -0.3769176E-04  0.0000000E+00  0.2420169E-03
 -0.4906239E-02  0.0000000E+00 -0.5050505E-02 -0.3486124E-04  0.0000000E+00  0.2271429E-03
 -0.4866782E-02  0.0000000E+00 -0.5050505E-02 -0.3222570E-04  0.0000000E+00  0.2134022E-03
 -0.4827325E-02  0.0000000E+00 -0.5050505E-02 -0.2975652E-04  0.0000000E+00  0.2007177E-03
 -0.4769372E-02  0.0000000E+00 -0.5050505E-02 -0.2742937E-04  0.0000000E+00  0.1890240E-03
 -0.4690458E-02  0.0000000E+00 -0.5050505E-02 -0.2522350E-04  0.0000000E+00  0.1782651E-03
 -0.4611543E-02  0.0000000E+00 -0.5050505E-02 -0.2312110E-04  0.0000000E+00  0.1683930E-03
 -0.4503035E-02  0.0000000E+00 -0.5050505E-02 -0.2110677E-04  0.0000000E+00  0.1593667E-03
 -0.4345206E-02  0.0000000E+00 -0.5050505E-02 -0.1916687E-04  0.0000000E+00  0.1511512E-03
 -0.4187378E-02  0.0000000E+00 -0.5050505E-02 -0.1728901E-04  0.0000000E+00  0.1437165E-03
 -0.3985156E-02  0.0000000E+00 -0.5050505E-02 -0.1546137E-04  0.0000000E+00  0.1370374E-03
 -0.3669499E-02  0.0000000E+00 -0.5050505E-02 -0.1367178E-04  0.0000000E+00  0.1310921E-03
 -0.3353842E-02  0.0000000E+00 -0.5050505E-02 -0.1190634E-04  0.0000000E+00  0.1258624E-03
 -0.2978990E-02  0.0000000E+00 -0.5050505E-02 -0.1014720E-04  0.0000000E+00  0.1213312E-03
 -0.2347676E-02  0.0000000E+00 -0.5050505E-02 -0.8368551E-05  0.0000000E+00  0.1174789E-03
 -0.1716362E-02  0.0000000E+00 -0.5050505E-02 -0.6530198E-05  0.0000000E+00  0.1142723E-03
 -0.1025842E-02  0.0000000E+00 -0.5050505E-02 -0.4569927E-05  0.0000000E+00  0.1116357E-03
  0.2367855E-03  0.0000000E+00 -0.5050505E-02 -0.2410090E-05  0.0000000E+00  0.1093822E-03
  0.1499413E-02  0.0000000E+00 -0.5050505E-02 -0.6687857E-07  0.0000000E+00  0.1071067E-03
  0.5287294E-02  0.0000000E+00 -0.5050505E-02  0.1708522E-05  0.0000000E+00  0.1043945E-03
 -0.5050505E-02  0.0000000E+00 -0.5050505E-02  0.4346119E-06  0.0000000E+00 -0.4817511E-04
 -0.5050505E-02  0.0000000E+00 -0.5050505E-02  0.1305044E-05  0.0000000E+00 -0.4792570E-04
 -0.5050505E-02  0.0000000E+00 -0.5050505E-02  0.2179121E-05  0.0000000E+00 -0.4742625E-04
 -0.5050505E-02  0.0000000E+00 -0.5050505E-02  0.3059325E-05  0.0000000E+00 -0.4667549E-04
 -0.5050505E-02  0.0000000E+00 -0.5050505E-02  0.3948200E-05  0.0000000E+00 -0.4567146E-04
 -0.5050505E-02  0.0000000E+00 -0.5050505E-02  0.4848380E-05  0.0000000E+00 -0.4441148E-04
 -0.5050504E-02  0.0000000E+00 -0.5050505E-02  0.5762612E-05  0.0000000E+00 -0.4289218E-04
 -0.5050501E-02  0.0000000E+00 -0.5050505E-02  0.6693779E-05  0.0000000E+00 -0.4110940E-04
 -0.5050495E-02  0.0000000E+00 -0.5050505E-02  0.7644931E-05  0.0000000E+00 -0.3905821E-04
 -0.5050482E-02  0.0000000E+00 -0.5050505E-02  0.8619317E-05  0.0000000E+00 -0.3673280E-04
 -0.5050449E-02  0.0000000E+00 -0.5050505E-02  0.9620413E-05  0.0000000E+00 -0.3412651E-04
 -0.5050376E-02  0.0000000E+00 -0.5050505E-02  0.1065197E-04  0.0000000E+00 -0.3123169E-04
 -0.5050299E-02  0.0000000E+00 -0.5050505E-02  0.1171803E-04  0.0000000E+00 -0.2803964E-04
 -0.5050178E-02  0.0000000E+00 -0.5050505E-02  0.1282300E-04  0.0000000E+00 -0.2454059E-04
 -0.5050018E-02  0.0000000E+00 -0.5050505E-02  0.1397170E-04  0.0000000E+00 -0.2072350E-04
 -0.5049710E-02  0.0000000E+00 -0.5050505E-02  0.1516938E-04  0.0000000E+00 -0.1657604E-04
 -0.5049253E-02  0.0000000E+00 -0.5050505E-02  0.1642185E-04  0.0000000E+00 -0.1208444E-04
 -0.5048636E-02  0.0000000E+00 -0.5050505E-02  0.1773550E-04  0.0000000E+00 -0.7233311E-05
 -0.5047442E-02  0.0000000E+00 -0.5050505E-02  0.1911739E-04  0.0000000E+00 -0.2004491E-05
 -0.5045727E-02  0.0000000E+00 -0.5050505E-02  0.2057532E-04  0.0000000E+00  0.3631082E-05
 -0.5043261E-02  0.0000000E+00 -0.5050505E-02  0.2211830E-04  0.0000000E+00  0.9699042E-05
 -0.5038714E-02  0.0000000E+00 -0.5050505E-02  0.2375629E-04  0.0000000E+00  0.1621960E-04
 -0.5032318E-02  0.0000000E+00 -0.5050505E-02  0.2550047E-04  0.0000000E+00  0.2322147E-04
 -0.5022454E-02  0.0000000E+00 -0.5050505E-02  0.2736342E-04  0.0000000E+00  0.3073678E-04
 -0.5012589E-02  0.0000000E+00 -0.5050505E-02  0.2935937E-04  0.0000000E+00  0.3880148E-04
 -0.5002725E-02  0.0000000E+00 -0.5050505E-02  0.3150441E-04  0.0000000E+00  0.4745583E-04
 -0.4992860E-02  0.0000000E+00 -0.5050505E-02  0.3381686E-04  0.0000000E+00  0.5674501E-04
 -0.4976523E-02  0.0000000E+00 -0.5050505E-02  0.3631762E-04  0.0000000E+00  0.6671976E-04
 -0.4956794E-02  0.0000000E+00 -0.5050505E-02  0.3903062E-04  0.0000000E+00  0.7743715E-04
 -0.4937066E-02  0.0000000E+00 -0.5050505E-02  0.4198341E-04  0.0000000E+00  0.8896152E-04