title = "dataset feddes"
variables = "x", "y", "z", "h_w", "p_w", "s_w", "theta_w", "transp", "evap"
zone t = "Flow variables, solution time =  4.400E+01 days        " i =  100, j =  100, k =    1,  f=point
  0.0000000E+00  0.0000000E+00  0.0000000E+00 -0.1000000E+02 -0.1000000E+02  0.4298033E+00  0.1839558E+00  0.0000000E+00  0.0000000E+00
  0.1010101E-01  0.0000000E+00  0.0000000E+00 -0.1000000E+02 -0.1000000E+02  0.4298033E+00  0.1839558E+00  0.0000000E+00  0.0000000E+00
  0.2020202E-01  0.0000000E+00  0.0000000E+00 -0.1000000E+02 -0.1000000E+02  0.4298033E+00  0.1839558E+00  0.0000000E+00  0.0000000E+00
  0.3030303E-01  0.0000000E+00  0.0000000E+00 -0.1000000E+02 -0.1000000E+02  0.4298033E+00  0.1839558E+00  0.0000000E+00  0.0000000E+00
  0.4040404E-01  0.0000000E+00  0.0000000E+00 -0.1000000E+02 -0.1000000E+02  0.4298033E+00  0.1839558E+00  0.0000000E+00  0.0000000E+00
  0.5050505E-01  0.0000000E+00  0.0000000E+00 -0.1000000E+02 -0.1000000E+02  0.4298033E+00  0.1839558E+00  0.0000000E+00  0.0000000E+00
  0.6060606E-01  0.0000000E+00  0.0000000E+00 -0.1000000E+02 -0.1000000E+02  0.4298033E+00  0.1839558E+00  0.0000000E+00  0.0000000E+00
  0.7070707E-01  0.0000000E+00  0.0000000E+00 -0.1000000E+02 -0.1000000E+02  0.4298033E+00  0.1839558E+00  0.0000000E+00  0.0000000E+00
  0.8080808E-01  0.0000000E+00  0.0000000E+00 -0.1000000E+02 -0.1000000E+02  0.4298033E+00  0.1839558E+00  0.0000000E+00  0.0000000E+00
  0.9090909E-01  0.0000000E+00  0.0000000E+00 -0.1000000E+02 -0.1000000E+02  0.4298033E+00  0.1839558E+00  0.0000000E+00  0.0000000E+00
  0.1010101E+00  0.0000000E+00  0.0000000E+00 -0.1000000E+02 -0.1000000E+02  0.4298033E+00  0.1839558E+00  0.0000000E+00  0.0000000E+00
  0.1111111E+00  0.0000000E+00  0.0000000E+00 -0.1000000E+02 -0.1000000E+02  0.4298033E+00  0.1839558E+00  0.0000000E+00  0.0000000E+00
  0.1212121E+00  0.0000000E+00  0.0000000E+00 -0.1000000E+02 -0.1000000E+02  0.4298033E+00  0.1839558E+00  0.0000000E+00  0.0000000E+00
  0.1313131E+00  0.0000000E+00  0.0000000E+00 -0.1000000E+02 -0.1000000E+02  0.4298033E+00  0.1839558E+00  0.0000000E+00  0.0000000E+00
  0.1414142E+00  0.0000000E+00  0.0000000E+00 -0.1000000E+02 -0.1000000E+02  0.4298033E+00  0.1839558E+00  0.0000000E+00  0.0000000E+00
  0.1515152E+00  0.0000000E+00  0.0000000E+00 -0.1000000E+02 -0.1000000E+02  0.4298033E+00  0.1839558E+00  0.0000000E+00  0.0000000E+00
  0.1616162E+00  0.0000000E+00  0.0000000E+00 -0.1000000E+02 -0.1000000E+02  0.4298033E+00  0.1839558E+00  0.0000000E+00  0.0000000E+00
  0.1717172E+00  0.0000000E+00  0.0000000E+00 -0.1000000E+02 -0.1000000E+02  0.4298033E+00  0.1839558E+00  0.0000000E+00  0.0000000E+00
  0.1818182E+00  0.0000000E+00  0.0000000E+00 -0.1000000E+02 -0.1000000E+02  0.4298033E+00  0.1839558E+00  0.0000000E+00  0.0000000E+00
  0.1919192E+00  0.0000000E+00  0.0000000E+00 -0.1000000E+02 -0.1000000E+02  0.4298033E+00  0.1839558E+00  0.0000000E+00  0.0000000E+00
  0.2020202E+00  0.0000000E+00  0.0000000E+00 -0.1000000E+02 -0.1000000E+02  0.4298033E+00  0.1839558E+00  0.0000000E+00  0.0000000E+00
  0.2121212E+00  0.0000000E+00  0.0000000E+00 -0.1000000E+02 -0.1000000E+02  0.4298033E+00  0.1839558E+00  0.0000000E+00  0.0000000E+00
  0.2222222E+00  0.0000000E+00  0.0000000E+00 -0.1000000E+02 -0.1000000E+02  0.4298033E+00  0.1839558E+00  0.0000000E+00  0.0000000E+00
  0.2323232E+00  0.0000000E+00  0.0000000E+00 -0.1000000E+02 -0.1000000E+02  0.4298033E+00  0.1839558E+00  0.0000000E+00  0.0000000E+00
  0.2424242E+00  0.0000000E+00  0.0000000E+00 -0.1000000E+02 -0.1000000E+02  0.4298033E+00  0.1839558E+00  0.0000000E+00  0.0000000E+00
  0.2525252E+00  0.0000000E+00  0.0000000E+00 -0.1000000E+02 -0.1000000E+02  0.4298033E+00  0.1839558E+00  0.0000000E+00  0.0000000E+00
  0.2626262E+00  0.0000000E+00  0.0000000E+00 -0.1000000E+02 -0.1000000E+02  0.4298033E+00  0.1839558E+00  0.0000000E+00  0.0000000E+00
  0.2727273E+00  0.0000000E+00  0.0000000E+00 -0.1000000E+02 -0.1000000E+02  0.4298033E+00  0.1839558E+00  0.0000000E+00  0.0000000E+00
  0.2828283E+00  0.0000000E+00  0.0000000E+00 -0.1000000E+02 -0.1000000E+02  0.4298033E+00  0.1839558E+00  0.0000000E+00  0.0000000E+00
  0.2929293E+00  0.0000000E+00  0.0000000E+00 -0.1000000E+02 -0.1000000E+02  0.4298033E+00  0.1839558E+00  0.0000000E+00  0.0000000E+00
  0.3030303E+00  0.0000000E+00  0.0000000E+00 -0.1000000E+02 -0.1000000E+02  0.4298033E+00  0.1839558E+00  0.0000000E+00  0.0000000E+00
  0.3131313E+00  0.0000000E+00  0.0000000E+00 -0.1000000E+02 -0.1000000E+02  0.4298033E+00  0.1839558E+00  0.0000000E+00  0.0000000E+00
  0.3232324E+00  0.0000000E+00  0.0000000E+00 -0.1000000E+02 -0.1000000E+02  0.4298033E+00  0.1839558E+00  0.0000000E+00  0.0000000E+00
  0.3333334E+00  0.0000000E+00  0.0000000E+00 -0.1000000E+02 -0.1000000E+02  0.4298033E+00  0.1839558E+00  0.0000000E+00  0.0000000E+00
  0.3434344E+00  0.0000000E+00  0.0000000E+00 -0.1000000E+02 -0.1000000E+02  0.4298033E+00  0.1839558E+00  0.0000000E+00  0.0000000E+00
  0.3535354E+00  0.0000000E+00  0.0000000E+00 -0.1000000E+02 -0.1000000E+02  0.4298033E+00  0.1839558E+00  0.0000000E+00  0.0000000E+00
  0.3636364E+00  0.0000000E+00  0.0000000E+00 -0.1000000E+02 -0.1000000E+02  0.4298033E+00  0.1839558E+00  0.0000000E+00  0.0000000E+00
  0.3737375E+00  0.0000000E+00  0.0000000E+00 -0.1000000E+02 -0.1000000E+02  0.4298033E+00  0.1839558E+00  0.0000000E+00  0.0000000E+00
  0.3838385E+00  0.0000000E+00  0.0000000E+00 -0.1000000E+02 -0.1000000E+02  0.4298033E+00  0.1839558E+00  0.0000000E+00  0.0000000E+00
  0.3939395E+00  0.0000000E+00  0.0000000E+00 -0.1000000E+02 -0.1000000E+02  0.4298033E+00  0.1839558E+00  0.0000000E+00  0.0000000E+00
  0.4040405E+00  0.0000000E+00  0.0000000E+00 -0.1000000E+02 -0.1000000E+02  0.4298033E+00  0.1839558E+00  0.0000000E+00  0.0000000E+00
  0.4141415E+00  0.0000000E+00  0.0000000E+00 -0.1000000E+02 -0.1000000E+02  0.4298033E+00  0.1839558E+00  0.0000000E+00  0.0000000E+00
  0.4242426E+00  0.0000000E+00  0.0000000E+00 -0.1000000E+02 -0.1000000E+02  0.4298033E+00  0.1839558E+00  0.0000000E+00  0.0000000E+00
  0.4343436E+00  0.0000000E+00  0.0000000E+00 -0.1000000E+02 -0.1000000E+02  0.4298033E+00  0.1839558E+00  0.0000000E+00  0.0000000E+00
  0.4444446E+00  0.0000000E+00  0.0000000E+00 -0.1000000E+02 -0.1000000E+02  0.4298033E+00  0.1839558E+00  0.0000000E+00  0.0000000E+00
  0.4545456E+00  0.0000000E+00  0.0000000E+00 -0.1000000E+02 -0.1000000E+02  0.4298033E+00  0.1839558E+00  0.0000000E+00  0.0000000E+00
  0.4646466E+00  0.0000000E+00  0.0000000E+00 -0.1000000E+02 -0.1000000E+02  0.4298033E+00  0.1839558E+00  0.0000000E+00  0.0000000E+00
  0.4747477E+00  0.0000000E+00  0.0000000E+00 -0.1000000E+02 -0.1000000E+02  0.4298033E+00  0.1839558E+00  0.0000000E+00  0.0000000E+00
  0.4848487E+00  0.0000000E+00  0.0000000E+00 -0.1000000E+02 -0.1000000E+02  0.4298033E+00  0.1839558E+00  0.0000000E+00  0.0000000E+00
  0.4949497E+00  0.0000000E+00  0.0000000E+00 -0.1000000E+02 -0.1000000E+02  0.4298033E+00  0.1839558E+00  0.0000000E+00  0.0000000E+00
  0.5050507E+00  0.0000000E+00  0.0000000E+00 -0.1000000E+02 -0.1000000E+02  0.4298033E+00  0.1839558E+00  0.0000000E+00  0.0000000E+00
  0.5151517E+00  0.0000000E+00  0.0000000E+00 -0.1000000E+02 -0.1000000E+02  0.4298033E+00  0.1839558E+00  0.0000000E+00  0.0000000E+00
  0.5252528E+00  0.0000000E+00  0.0000000E+00 -0.1000000E+02 -0.1000000E+02  0.4298033E+00  0.1839558E+00  0.0000000E+00  0.0000000E+00
  0.5353538E+00  0.0000000E+00  0.0000000E+00 -0.1000000E+02 -0.1000000E+02  0.4298033E+00  0.1839558E+00  0.0000000E+00  0.0000000E+00
  0.5454548E+00  0.0000000E+00  0.0000000E+00 -0.1000000E+02 -0.1000000E+02  0.4298033E+00  0.1839558E+00  0.0000000E+00  0.0000000E+00
  0.5555558E+00  0.0000000E+00  0.0000000E+00 -0.1000000E+02 -0.1000000E+02  0.4298033E+00  0.1839558E+00  0.1561704E-10  0.0000000E+00
  0.5656568E+00  0.0000000E+00  0.0000000E+00 -0.1000000E+02 -0.1000000E+02  0.4298033E+00  0.1839558E+00  0.3193331E-10  0.0000000E+00
  0.5757579E+00  0.0000000E+00  0.0000000E+00 -0.1000000E+02 -0.1000000E+02  0.4298033E+00  0.1839558E+00  0.8438707E-11  0.0000000E+00
  0.5858589E+00  0.0000000E+00  0.0000000E+00 -0.1000000E+02 -0.1000000E+02  0.4298033E+00  0.1839558E+00  0.0000000E+00  0.0000000E+00
  0.5959599E+00  0.0000000E+00  0.0000000E+00 -0.1000000E+02 -0.1000000E+02  0.4298033E+00  0.1839558E+00  0.0000000E+00  0.0000000E+00
  0.6060609E+00  0.0000000E+00  0.0000000E+00 -0.1000000E+02 -0.1000000E+02  0.4298033E+00  0.1839558E+00  0.0000000E+00  0.0000000E+00
  0.6161619E+00  0.0000000E+00  0.0000000E+00 -0.1000000E+02 -0.1000000E+02  0.4298033E+00  0.1839558E+00  0.0000000E+00  0.0000000E+00
  0.6262630E+00  0.0000000E+00  0.0000000E+00 -0.1000000E+02 -0.1000000E+02  0.4298033E+00  0.1839558E+00  0.0000000E+00  0.0000000E+00
  0.6363640E+00  0.0000000E+00  0.0000000E+00 -0.1000000E+02 -0.1000000E+02  0.4298033E+00  0.1839558E+00  0.0000000E+00  0.0000000E+00
  0.6464650E+00  0.0000000E+00  0.0000000E+00 -0.1000000E+02 -0.1000000E+02  0.4298033E+00  0.1839558E+00  0.0000000E+00  0.0000000E+00
  0.6565660E+00  0.0000000E+00  0.0000000E+00 -0.1000000E+02 -0.1000000E+02  0.4298033E+00  0.1839558E+00  0.0000000E+00  0.0000000E+00
  0.6666670E+00  0.0000000E+00  0.0000000E+00 -0.1000000E+02 -0.1000000E+02  0.4298033E+00  0.1839558E+00  0.0000000E+00  0.0000000E+00
  0.6767681E+00  0.0000000E+00  0.0000000E+00 -0.1000000E+02 -0.1000000E+02  0.4298033E+00  0.1839558E+00  0.0000000E+00  0.0000000E+00
  0.6868691E+00  0.0000000E+00  0.0000000E+00 -0.1000000E+02 -0.1000000E+02  0.4298033E+00  0.1839558E+00  0.0000000E+00  0.0000000E+00
  0.6969701E+00  0.0000000E+00  0.0000000E+00 -0.1000000E+02 -0.1000000E+02  0.4298033E+00  0.1839558E+00  0.0000000E+00  0.0000000E+00
  0.7070711E+00  0.0000000E+00  0.0000000E+00 -0.1000000E+02 -0.1000000E+02  0.4298033E+00  0.1839558E+00  0.0000000E+00  0.0000000E+00
  0.7171721E+00  0.0000000E+00  0.0000000E+00 -0.1000000E+02 -0.1000000E+02  0.4298033E+00  0.1839558E+00  0.0000000E+00  0.0000000E+00
  0.7272732E+00  0.0000000E+00  0.0000000E+00 -0.1000000E+02 -0.1000000E+02  0.4298033E+00  0.1839558E+00  0.0000000E+00  0.0000000E+00
  0.7373742E+00  0.0000000E+00  0.0000000E+00 -0.1000000E+02 -0.1000000E+02  0.4298033E+00  0.1839558E+00  0.0000000E+00  0.0000000E+00
  0.7474752E+00  0.0000000E+00  0.0000000E+00 -0.1000000E+02 -0.1000000E+02  0.4298033E+00  0.1839558E+00  0.0000000E+00  0.0000000E+00
  0.7575762E+00  0.0000000E+00  0.0000000E+00 -0.1000000E+02 -0.1000000E+02  0.4298033E+00  0.1839558E+00  0.0000000E+00  0.0000000E+00
  0.7676772E+00  0.0000000E+00  0.0000000E+00 -0.1000000E+02 -0.1000000E+02  0.4298033E+00  0.1839558E+00  0.0000000E+00  0.0000000E+00
  0.7777783E+00  0.0000000E+00  0.0000000E+00 -0.1000000E+02 -0.1000000E+02  0.4298033E+00  0.1839558E+00  0.0000000E+00  0.0000000E+00
  0.7878793E+00  0.0000000E+00  0.0000000E+00 -0.1000000E+02 -0.1000000E+02  0.4298033E+00  0.1839558E+00  0.0000000E+00  0.0000000E+00
  0.7979803E+00  0.0000000E+00  0.0000000E+00 -0.1000000E+02 -0.1000000E+02  0.4298033E+00  0.1839558E+00  0.0000000E+00  0.0000000E+00
  0.8080813E+00  0.0000000E+00  0.0000000E+00 -0.1000000E+02 -0.1000000E+02  0.4298033E+00  0.1839558E+00  0.0000000E+00  0.0000000E+00
  0.8181823E+00  0.0000000E+00  0.0000000E+00 -0.1000000E+02 -0.1000000E+02  0.4298033E+00  0.1839558E+00  0.0000000E+00  0.0000000E+00
  0.8282834E+00  0.0000000E+00  0.0000000E+00 -0.1000000E+02 -0.1000000E+02  0.4298033E+00  0.1839558E+00  0.0000000E+00  0.0000000E+00
  0.8383844E+00  0.0000000E+00  0.0000000E+00 -0.1000000E+02 -0.1000000E+02  0.4298033E+00  0.1839558E+00  0.0000000E+00  0.0000000E+00
  0.8484854E+00  0.0000000E+00  0.0000000E+00 -0.1000000E+02 -0.1000000E+02  0.4298033E+00  0.1839558E+00  0.0000000E+00  0.0000000E+00
  0.8585864E+00  0.0000000E+00  0.0000000E+00 -0.1000000E+02 -0.1000000E+02  0.4298033E+00  0.1839558E+00  0.0000000E+00  0.0000000E+00
  0.8686875E+00  0.0000000E+00  0.0000000E+00 -0.1000000E+02 -0.1000000E+02  0.4298033E+00  0.1839558E+00  0.0000000E+00  0.0000000E+00
  0.8787885E+00  0.0000000E+00  0.0000000E+00 -0.1000000E+02 -0.1000000E+02  0.4298033E+00  0.1839558E+00  0.0000000E+00  0.0000000E+00
  0.8888895E+00  0.0000000E+00  0.0000000E+00 -0.1000000E+02 -0.1000000E+02  0.4298033E+00  0.1839558E+00  0.0000000E+00  0.0000000E+00
  0.8989905E+00  0.0000000E+00  0.0000000E+00 -0.1000000E+02 -0.1000000E+02  0.4298033E+00  0.1839558E+00  0.0000000E+00  0.0000000E+00
  0.9090915E+00  0.0000000E+00  0.0000000E+00 -0.1000000E+02 -0.1000000E+02  0.4298033E+00  0.1839558E+00  0.0000000E+00  0.0000000E+00
  0.9191926E+00  0.0000000E+00  0.0000000E+00 -0.1000000E+02 -0.1000000E+02  0.4298033E+00  0.1839558E+00  0.0000000E+00  0.0000000E+00
  0.9292936E+00  0.0000000E+00  0.0000000E+00 -0.1000000E+02 -0.1000000E+02  0.4298033E+00  0.1839558E+00  0.0000000E+00  0.0000000E+00
  0.9393946E+00  0.0000000E+00  0.0000000E+00 -0.1000000E+02 -0.1000000E+02  0.4298033E+00  0.1839558E+00  0.0000000E+00  0.0000000E+00
  0.9494956E+00  0.0000000E+00  0.0000000E+00 -0.1000000E+02 -0.1000000E+02  0.4298033E+00  0.1839558E+00  0.0000000E+00  0.0000000E+00
  0.9595966E+00  0.0000000E+00  0.0000000E+00 -0.1000000E+02 -0.1000000E+02  0.4298033E+00  0.1839558E+00  0.0000000E+00  0.0000000E+00
  0.9696977E+00  0.0000000E+00  0.0000000E+00 -0.1000000E+02 -0.1000000E+02  0.4298033E+00  0.1839558E+00  0.0000000E+00  0.0000000E+00
  0.9797987E+00  0.0000000E+00  0.0000000E+00 -0.1000000E+02 -0.1000000E+02  0.4298033E+00  0.1839558E+00  0.0000000E+00  0.0000000E+00
  0.9898997E+00  0.0000000E+00  0.0000000E+00 -0.1000000E+02 -0.1000000E+02  0.4298033E+00  0.1839558E+00  0.0000000E+00  0.0000000E+00
  0.1000001E+01  0.0000000E+00  0.5826218E-18 -0.1000949E+02 -0.1000949E+02  0.4296784E+00  0.1839024E+00  0.0000000E+00  0.0000000E+00
  0.0000000E+00  0.0000000E+00  0.5826219E-18 -0.9960183E+01 -0.9970284E+01  0.4301954E+00  0.1841236E+00  0.0000000E+00  0.0000000E+00
  0.1010101E-01  0.0000000E+00  0.5826219E-18 -0.9960227E+01 -0.9970328E+01  0.4301948E+00  0.1841234E+00  0.0000000E+00  0.0000000E+00
  0.2020202E-01  0.0000000E+00  0.5826219E-18 -0.9960359E+01 -0.9970460E+01  0.4301931E+00  0.1841226E+00  0.0000000E+00  0.0000000E+00
  0.3030303E-01  0.0000000E+00  0.5826219E-18 -0.9960579E+01 -0.9970680E+01  0.4301901E+00  0.1841214E+00  0.0000000E+00  0.0000000E+00
  0.4040404E-01  0.0000000E+00  0.5826219E-18 -0.9960887E+01 -0.9970988E+01  0.4301861E+00  0.1841196E+00  0.0000000E+00  0.0000000E+00
  0.5050505E-01  0.0000000E+00  0.5826219E-18 -0.9961286E+01 -0.9971387E+01  0.4301808E+00  0.1841174E+00  0.0000000E+00  0.0000000E+00
  0.6060606E-01  0.0000000E+00  0.5826219E-18 -0.9961774E+01 -0.9971875E+01  0.4301743E+00  0.1841146E+00  0.0000000E+00  0.0000000E+00
  0.7070707E-01  0.0000000E+00  0.5826219E-18 -0.9962355E+01 -0.9972456E+01  0.4301667E+00  0.1841113E+00  0.0000000E+00  0.0000000E+00
  0.8080808E-01  0.0000000E+00  0.5826219E-18 -0.9963030E+01 -0.9973131E+01  0.4301577E+00  0.1841075E+00  0.0000000E+00  0.0000000E+00
  0.9090909E-01  0.0000000E+00  0.5826219E-18 -0.9963801E+01 -0.9973902E+01  0.4301476E+00  0.1841032E+00  0.0000000E+00  0.0000000E+00
  0.1010101E+00  0.0000000E+00  0.5826219E-18 -0.9964669E+01 -0.9974770E+01  0.4301361E+00  0.1840982E+00  0.0000000E+00  0.0000000E+00
  0.1111111E+00  0.0000000E+00  0.5826219E-18 -0.9965638E+01 -0.9975739E+01  0.4301233E+00  0.1840928E+00  0.0000000E+00  0.0000000E+00
  0.1212121E+00  0.0000000E+00  0.5826219E-18 -0.9966710E+01 -0.9976811E+01  0.4301091E+00  0.1840867E+00  0.0000000E+00  0.0000000E+00
  0.1313131E+00  0.0000000E+00  0.5826219E-18 -0.9967890E+01 -0.9977991E+01  0.4300935E+00  0.1840800E+00  0.0000000E+00  0.0000000E+00
  0.1414142E+00  0.0000000E+00  0.5826219E-18 -0.9969180E+01 -0.9979281E+01  0.4300765E+00  0.1840727E+00  0.0000000E+00  0.0000000E+00
  0.1515152E+00  0.0000000E+00  0.5826219E-18 -0.9970585E+01 -0.9980686E+01  0.4300579E+00  0.1840648E+00  0.0000000E+00  0.0000000E+00
  0.1616162E+00  0.0000000E+00  0.5826219E-18 -0.9972109E+01 -0.9982210E+01  0.4300378E+00  0.1840562E+00  0.0000000E+00  0.0000000E+00
  0.1717172E+00  0.0000000E+00  0.5826219E-18 -0.9973759E+01 -0.9983860E+01  0.4300160E+00  0.1840469E+00  0.0000000E+00  0.0000000E+00
  0.1818182E+00  0.0000000E+00  0.5826219E-18 -0.9975539E+01 -0.9985640E+01  0.4299925E+00  0.1840368E+00  0.0000000E+00  0.0000000E+00
  0.1919192E+00  0.0000000E+00  0.5826219E-18 -0.9977458E+01 -0.9987559E+01  0.4299672E+00  0.1840260E+00  0.0000000E+00  0.0000000E+00
  0.2020202E+00  0.0000000E+00  0.5826219E-18 -0.9979521E+01 -0.9989622E+01  0.4299400E+00  0.1840143E+00  0.0000000E+00  0.0000000E+00
  0.2121212E+00  0.0000000E+00  0.5826219E-18 -0.9981737E+01 -0.9991838E+01  0.4299108E+00  0.1840018E+00  0.0000000E+00  0.0000000E+00
  0.2222222E+00  0.0000000E+00  0.5826219E-18 -0.9984115E+01 -0.9994216E+01  0.4298795E+00  0.1839884E+00  0.0000000E+00  0.0000000E+00
  0.2323232E+00  0.0000000E+00  0.5826219E-18 -0.9986666E+01 -0.9996767E+01  0.4298458E+00  0.1839740E+00  0.0000000E+00  0.0000000E+00
  0.2424242E+00  0.0000000E+00  0.5826219E-18 -0.9989401E+01 -0.9999502E+01  0.4298098E+00  0.1839586E+00  0.0000000E+00  0.0000000E+00
  0.2525252E+00  0.0000000E+00  0.5826219E-18 -0.9992332E+01 -0.1000243E+02  0.4297712E+00  0.1839421E+00  0.0000000E+00  0.0000000E+00
  0.2626262E+00  0.0000000E+00  0.5826219E-18 -0.9995474E+01 -0.1000557E+02  0.4297299E+00  0.1839244E+00  0.0000000E+00  0.0000000E+00
  0.2727273E+00  0.0000000E+00  0.5826219E-18 -0.9998842E+01 -0.1000894E+02  0.4296856E+00  0.1839054E+00  0.0000000E+00  0.0000000E+00
  0.2828283E+00  0.0000000E+00  0.5826219E-18 -0.1000245E+02 -0.1001255E+02  0.4296381E+00  0.1838851E+00  0.0000000E+00  0.0000000E+00
  0.2929293E+00  0.0000000E+00  0.5826219E-18 -0.1000633E+02 -0.1001643E+02  0.4295871E+00  0.1838633E+00  0.0000000E+00  0.0000000E+00
  0.3030303E+00  0.0000000E+00  0.5826219E-18 -0.1001049E+02 -0.1002059E+02  0.4295324E+00  0.1838399E+00  0.0000000E+00  0.0000000E+00
  0.3131313E+00  0.0000000E+00  0.5826219E-18 -0.1001496E+02 -0.1002506E+02  0.4294737E+00  0.1838148E+00  0.0000000E+00  0.0000000E+00
  0.3232324E+00  0.0000000E+00  0.5826219E-18 -0.1001977E+02 -0.1002988E+02  0.4294106E+00  0.1837877E+00  0.0000000E+00  0.0000000E+00
  0.3333334E+00  0.0000000E+00  0.5826219E-18 -0.1002496E+02 -0.1003506E+02  0.4293426E+00  0.1837586E+00  0.0000000E+00  0.0000000E+00
  0.3434344E+00  0.0000000E+00  0.5826219E-18 -0.1003055E+02 -0.1004065E+02  0.4292693E+00  0.1837273E+00  0.0000000E+00  0.0000000E+00
  0.3535354E+00  0.0000000E+00  0.5826219E-18 -0.1003660E+02 -0.1004670E+02  0.4291901E+00  0.1836934E+00  0.0000000E+00  0.0000000E+00
  0.3636364E+00  0.0000000E+00  0.5826219E-18 -0.1004314E+02 -0.1005324E+02  0.4291045E+00  0.1836567E+00  0.0000000E+00  0.0000000E+00
  0.3737375E+00  0.0000000E+00  0.5826219E-18 -0.1005025E+02 -0.1006035E+02  0.4290117E+00  0.1836170E+00  0.0000000E+00  0.0000000E+00
  0.3838385E+00  0.0000000E+00  0.5826219E-18 -0.1005797E+02 -0.1006807E+02  0.4289108E+00  0.1835738E+00  0.0000000E+00  0.0000000E+00
  0.3939395E+00  0.0000000E+00  0.5826219E-18 -0.1006640E+02 -0.1007650E+02  0.4288008E+00  0.1835267E+00  0.0000000E+00  0.0000000E+00
  0.4040405E+00  0.0000000E+00  0.5826219E-18 -0.1007563E+02 -0.1008573E+02  0.4286806E+00  0.1834753E+00  0.0000000E+00  0.0000000E+00
  0.4141415E+00  0.0000000E+00  0.5826219E-18 -0.1008576E+02 -0.1009586E+02  0.4285487E+00  0.1834189E+00  0.0000000E+00  0.0000000E+00
  0.4242426E+00  0.0000000E+00  0.5826219E-18 -0.1009694E+02 -0.1010705E+02  0.4284034E+00  0.1833567E+00  0.0000000E+00  0.0000000E+00
  0.4343436E+00  0.0000000E+00  0.5826219E-18 -0.1010935E+02 -0.1011945E+02  0.4282424E+00  0.1832878E+00  0.0000000E+00  0.0000000E+00
  0.4444446E+00  0.0000000E+00  0.5826219E-18 -0.1012321E+02 -0.1013331E+02  0.4280629E+00  0.1832109E+00  0.0000000E+00  0.0000000E+00
  0.4545456E+00  0.0000000E+00  0.5826219E-18 -0.1013883E+02 -0.1014893E+02  0.4278611E+00  0.1831245E+00  0.0000000E+00  0.0000000E+00
  0.4646466E+00  0.0000000E+00  0.5826219E-18 -0.1015660E+02 -0.1016670E+02  0.4276318E+00  0.1830264E+00  0.0000000E+00  0.0000000E+00
  0.4747477E+00  0.0000000E+00  0.5826219E-18 -0.1017710E+02 -0.1018720E+02  0.4273680E+00  0.1829135E+00  0.0000000E+00  0.0000000E+00
  0.4848487E+00  0.0000000E+00  0.5826219E-18 -0.1020110E+02 -0.1021120E+02  0.4270601E+00  0.1827817E+00  0.0000000E+00  0.0000000E+00
  0.4949497E+00  0.0000000E+00  0.5826219E-18 -0.1022965E+02 -0.1023975E+02  0.4266951E+00  0.1826255E+00  0.0000000E+00  0.0000000E+00
  0.5050507E+00  0.0000000E+00  0.5826219E-18 -0.1026390E+02 -0.1027400E+02  0.4262589E+00  0.1824388E+00  0.0000000E+00  0.0000000E+00
  0.5151517E+00  0.0000000E+00  0.5826219E-18 -0.1030429E+02 -0.1031439E+02  0.4257471E+00  0.1822197E+00  0.0000000E+00  0.0000000E+00
  0.5252528E+00  0.0000000E+00  0.5826219E-18 -0.1034630E+02 -0.1035640E+02  0.4252175E+00  0.1819931E+00  0.0000000E+00  0.0000000E+00
  0.5353538E+00  0.0000000E+00  0.5826219E-18 -0.1038899E+02 -0.1039909E+02  0.4246822E+00  0.1817640E+00  0.0000000E+00  0.0000000E+00
  0.5454548E+00  0.0000000E+00  0.5826219E-18 -0.1043492E+02 -0.1044502E+02  0.4241096E+00  0.1815189E+00  0.0000000E+00  0.0000000E+00
  0.5555558E+00  0.0000000E+00  0.5826219E-18 -0.1050094E+02 -0.1051104E+02  0.4232924E+00  0.1811692E+00  0.0000000E+00  0.0000000E+00
  0.5656568E+00  0.0000000E+00  0.5826219E-18 -0.1061981E+02 -0.1062991E+02  0.4218379E+00  0.1805466E+00  0.1056250E-09  0.0000000E+00
  0.5757579E+00  0.0000000E+00  0.5826219E-18 -0.1048267E+02 -0.1049277E+02  0.4235179E+00  0.1812657E+00  0.0000000E+00  0.0000000E+00
  0.5858589E+00  0.0000000E+00  0.5826219E-18 -0.1040720E+02 -0.1041730E+02  0.4244548E+00  0.1816666E+00  0.0000000E+00  0.0000000E+00
  0.5959599E+00  0.0000000E+00  0.5826219E-18 -0.1035629E+02 -0.1036639E+02  0.4250920E+00  0.1819394E+00  0.0000000E+00  0.0000000E+00
  0.6060609E+00  0.0000000E+00  0.5826219E-18 -0.1031745E+02 -0.1032755E+02  0.4255808E+00  0.1821486E+00  0.0000000E+00  0.0000000E+00
  0.6161619E+00  0.0000000E+00  0.5826219E-18 -0.1028605E+02 -0.1029615E+02  0.4259779E+00  0.1823185E+00  0.0000000E+00  0.0000000E+00
  0.6262630E+00  0.0000000E+00  0.5826219E-18 -0.1025975E+02 -0.1026985E+02  0.4263117E+00  0.1824614E+00  0.0000000E+00  0.0000000E+00
  0.6363640E+00  0.0000000E+00  0.5826219E-18 -0.1023713E+02 -0.1024723E+02  0.4265997E+00  0.1825847E+00  0.0000000E+00  0.0000000E+00
  0.6464650E+00  0.0000000E+00  0.5826219E-18 -0.1021728E+02 -0.1022738E+02  0.4268531E+00  0.1826931E+00  0.0000000E+00  0.0000000E+00
  0.6565660E+00  0.0000000E+00  0.5826219E-18 -0.1019960E+02 -0.1020971E+02  0.4270793E+00  0.1827899E+00  0.0000000E+00  0.0000000E+00
  0.6666670E+00  0.0000000E+00  0.5826219E-18 -0.1018370E+02 -0.1019380E+02  0.4272832E+00  0.1828772E+00  0.0000000E+00  0.0000000E+00
  0.6767681E+00  0.0000000E+00  0.5826219E-18 -0.1016929E+02 -0.1017940E+02  0.4274684E+00  0.1829565E+00  0.0000000E+00  0.0000000E+00
  0.6868691E+00  0.0000000E+00  0.5826219E-18 -0.1015617E+02 -0.1016627E+02  0.4276373E+00  0.1830288E+00  0.0000000E+00  0.0000000E+00
  0.6969701E+00  0.0000000E+00  0.5826219E-18 -0.1014417E+02 -0.1015427E+02  0.4277921E+00  0.1830950E+00  0.0000000E+00  0.0000000E+00
  0.7070711E+00  0.0000000E+00  0.5826219E-18 -0.1013316E+02 -0.1014326E+02  0.4279342E+00  0.1831559E+00  0.0000000E+00  0.0000000E+00
  0.7171721E+00  0.0000000E+00  0.5826219E-18 -0.1012303E+02 -0.1013313E+02  0.4280652E+00  0.1832119E+00  0.0000000E+00  0.0000000E+00
  0.7272732E+00  0.0000000E+00  0.5826219E-18 -0.1011369E+02 -0.1012379E+02  0.4281862E+00  0.1832637E+00  0.0000000E+00  0.0000000E+00
  0.7373742E+00  0.0000000E+00  0.5826219E-18 -0.1010505E+02 -0.1011515E+02  0.4282983E+00  0.1833117E+00  0.0000000E+00  0.0000000E+00
  0.7474752E+00  0.0000000E+00  0.5826219E-18 -0.1009704E+02 -0.1010714E+02  0.4284022E+00  0.1833561E+00  0.0000000E+00  0.0000000E+00
  0.7575762E+00  0.0000000E+00  0.5826219E-18 -0.1008961E+02 -0.1009971E+02  0.4284987E+00  0.1833975E+00  0.0000000E+00  0.0000000E+00
  0.7676772E+00  0.0000000E+00  0.5826219E-18 -0.1008270E+02 -0.1009280E+02  0.4285886E+00  0.1834359E+00  0.0000000E+00  0.0000000E+00
  0.7777783E+00  0.0000000E+00  0.5826219E-18 -0.1007627E+02 -0.1008637E+02  0.4286722E+00  0.1834717E+00  0.0000000E+00  0.0000000E+00
  0.7878793E+00  0.0000000E+00  0.5826219E-18 -0.1007029E+02 -0.1008039E+02  0.4287501E+00  0.1835051E+00  0.0000000E+00  0.0000000E+00
  0.7979803E+00  0.0000000E+00  0.5826219E-18 -0.1006472E+02 -0.1007482E+02  0.4288227E+00  0.1835361E+00  0.0000000E+00  0.0000000E+00
  0.8080813E+00  0.0000000E+00  0.5826219E-18 -0.1005953E+02 -0.1006963E+02  0.4288904E+00  0.1835651E+00  0.0000000E+00  0.0000000E+00
  0.8181823E+00  0.0000000E+00  0.5826219E-18 -0.1005471E+02 -0.1006481E+02  0.4289534E+00  0.1835920E+00  0.0000000E+00  0.0000000E+00
  0.8282834E+00  0.0000000E+00  0.5826219E-18 -0.1005023E+02 -0.1006033E+02  0.4290119E+00  0.1836171E+00  0.0000000E+00  0.0000000E+00
  0.8383844E+00  0.0000000E+00  0.5826219E-18 -0.1004607E+02 -0.1005617E+02  0.4290663E+00  0.1836404E+00  0.0000000E+00  0.0000000E+00
  0.8484854E+00  0.0000000E+00  0.5826219E-18 -0.1004221E+02 -0.1005232E+02  0.4291167E+00  0.1836619E+00  0.0000000E+00  0.0000000E+00
  0.8585864E+00  0.0000000E+00  0.5826219E-18 -0.1003866E+02 -0.1004876E+02  0.4291632E+00  0.1836818E+00  0.0000000E+00  0.0000000E+00
  0.8686875E+00  0.0000000E+00  0.5826219E-18 -0.1003539E+02 -0.1004549E+02  0.4292060E+00  0.1837002E+00  0.0000000E+00  0.0000000E+00
  0.8787885E+00  0.0000000E+00  0.5826219E-18 -0.1003240E+02 -0.1004250E+02  0.4292452E+00  0.1837169E+00  0.0000000E+00  0.0000000E+00
  0.8888895E+00  0.0000000E+00  0.5826219E-18 -0.1002967E+02 -0.1003977E+02  0.4292809E+00  0.1837322E+00  0.0000000E+00  0.0000000E+00
  0.8989905E+00  0.0000000E+00  0.5826219E-18 -0.1002720E+02 -0.1003730E+02  0.4293132E+00  0.1837461E+00  0.0000000E+00  0.0000000E+00
  0.9090915E+00  0.0000000E+00  0.5826219E-18 -0.1002499E+02 -0.1003509E+02  0.4293422E+00  0.1837585E+00  0.0000000E+00  0.0000000E+00
  0.9191926E+00  0.0000000E+00  0.5826219E-18 -0.1002302E+02 -0.1003312E+02  0.4293680E+00  0.1837695E+00  0.0000000E+00  0.0000000E+00
  0.9292936E+00  0.0000000E+00  0.5826219E-18 -0.1002130E+02 -0.1003140E+02  0.4293905E+00  0.1837791E+00  0.0000000E+00  0.0000000E+00
  0.9393946E+00  0.0000000E+00  0.5826219E-18 -0.1001983E+02 -0.1002993E+02  0.4294098E+00  0.1837874E+00  0.0000000E+00  0.0000000E+00
  0.9494956E+00  0.0000000E+00  0.5826219E-18 -0.1001861E+02 -0.1002871E+02  0.4294259E+00  0.1837943E+00  0.0000000E+00  0.0000000E+00
  0.9595966E+00  0.0000000E+00  0.5826219E-18 -0.1001764E+02 -0.1002774E+02  0.4294386E+00  0.1837997E+00  0.0000000E+00  0.0000000E+00
  0.9696977E+00  0.0000000E+00  0.5826219E-18 -0.1001696E+02 -0.1002706E+02  0.4294475E+00  0.1838035E+00  0.0000000E+00  0.0000000E+00
  0.9797987E+00  0.0000000E+00  0.5826219E-18 -0.1001666E+02 -0.1002676E+02  0.4294514E+00  0.1838052E+00  0.0000000E+00  0.0000000E+00
  0.9898997E+00  0.0000000E+00  0.5826219E-18 -0.1001703E+02 -0.1002713E+02  0.4294465E+00  0.1838031E+00  0.0000000E+00  0.0000000E+00
  0.1000001E+01  0.0000000E+00  0.1491512E-15 -0.1001908E+02 -0.1002918E+02  0.4294197E+00  0.1837916E+00  0.0000000E+00  0.0000000E+00
  0.0000000E+00  0.0000000E+00  0.1491512E-15 -0.9920772E+01 -0.9940974E+01  0.4305837E+00  0.1842898E+00  0.0000000E+00  0.0000000E+00
  0.1010101E-01  0.0000000E+00  0.1491512E-15 -0.9920859E+01 -0.9941061E+01  0.4305825E+00  0.1842893E+00  0.0000000E+00  0.0000000E+00
  0.2020202E-01  0.0000000E+00  0.1491512E-15 -0.9921120E+01 -0.9941322E+01  0.4305790E+00  0.1842878E+00  0.0000000E+00  0.0000000E+00
  0.3030303E-01  0.0000000E+00  0.1491512E-15 -0.9921555E+01 -0.9941757E+01  0.4305733E+00  0.1842854E+00  0.0000000E+00  0.0000000E+00
  0.4040404E-01  0.0000000E+00  0.1491512E-15 -0.9922166E+01 -0.9942368E+01  0.4305652E+00  0.1842819E+00  0.0000000E+00  0.0000000E+00
  0.5050505E-01  0.0000000E+00  0.1491512E-15 -0.9922954E+01 -0.9943156E+01  0.4305547E+00  0.1842774E+00  0.0000000E+00  0.0000000E+00
  0.6060606E-01  0.0000000E+00  0.1491512E-15 -0.9923922E+01 -0.9944124E+01  0.4305419E+00  0.1842719E+00  0.0000000E+00  0.0000000E+00
  0.7070707E-01  0.0000000E+00  0.1491512E-15 -0.9925073E+01 -0.9945275E+01  0.4305266E+00  0.1842654E+00  0.0000000E+00  0.0000000E+00
  0.8080808E-01  0.0000000E+00  0.1491512E-15 -0.9926409E+01 -0.9946611E+01  0.4305089E+00  0.1842578E+00  0.0000000E+00  0.0000000E+00
  0.9090909E-01  0.0000000E+00  0.1491512E-15 -0.9927935E+01 -0.9948137E+01  0.4304886E+00  0.1842491E+00  0.0000000E+00  0.0000000E+00
  0.1010101E+00  0.0000000E+00  0.1491512E-15 -0.9929656E+01 -0.9949858E+01  0.4304658E+00  0.1842394E+00  0.0000000E+00  0.0000000E+00
  0.1111111E+00  0.0000000E+00  0.1491512E-15 -0.9931576E+01 -0.9951778E+01  0.4304404E+00  0.1842285E+00  0.0000000E+00  0.0000000E+00
  0.1212121E+00  0.0000000E+00  0.1491512E-15 -0.9933702E+01 -0.9953904E+01  0.4304122E+00  0.1842164E+00  0.0000000E+00  0.0000000E+00
  0.1313131E+00  0.0000000E+00  0.1491512E-15 -0.9936041E+01 -0.9956243E+01  0.4303812E+00  0.1842032E+00  0.0000000E+00  0.0000000E+00
  0.1414142E+00  0.0000000E+00  0.1491512E-15 -0.9938600E+01 -0.9958802E+01  0.4303473E+00  0.1841886E+00  0.0000000E+00  0.0000000E+00
  0.1515152E+00  0.0000000E+00  0.1491512E-15 -0.9941388E+01 -0.9961590E+01  0.4303104E+00  0.1841729E+00  0.0000000E+00  0.0000000E+00
  0.1616162E+00  0.0000000E+00  0.1491512E-15 -0.9944414E+01 -0.9964616E+01  0.4302703E+00  0.1841557E+00  0.0000000E+00  0.0000000E+00
  0.1717172E+00  0.0000000E+00  0.1491512E-15 -0.9947690E+01 -0.9967892E+01  0.4302270E+00  0.1841372E+00  0.0000000E+00  0.0000000E+00
  0.1818182E+00  0.0000000E+00  0.1491512E-15 -0.9951228E+01 -0.9971430E+01  0.4301802E+00  0.1841171E+00  0.0000000E+00  0.0000000E+00