title = "dataset feddes"
variables = "x", "y", "z", "vx", "vy", "vz"
zone t = "velocities, solution time =  5.400E+01 days        " i =   99, j =   99, k =    1,  f=point
 -0.5050505E-02  0.0000000E+00 -0.5050505E-02  0.8108791E-07  0.0000000E+00  0.4592236E-04
 -0.5050505E-02  0.0000000E+00 -0.5050505E-02  0.2435283E-06  0.0000000E+00  0.4624976E-04
 -0.5050505E-02  0.0000000E+00 -0.5050505E-02  0.4067708E-06  0.0000000E+00  0.4690567E-04
 -0.5050505E-02  0.0000000E+00 -0.5050505E-02  0.5713667E-06  0.0000000E+00  0.4789232E-04
 -0.5050505E-02  0.0000000E+00 -0.5050505E-02  0.7378845E-06  0.0000000E+00  0.4921312E-04
 -0.5050505E-02  0.0000000E+00 -0.5050505E-02  0.9069159E-06  0.0000000E+00  0.5087270E-04
 -0.5050504E-02  0.0000000E+00 -0.5050505E-02  0.1079082E-05  0.0000000E+00  0.5287696E-04
 -0.5050501E-02  0.0000000E+00 -0.5050505E-02  0.1255038E-05  0.0000000E+00  0.5523311E-04
 -0.5050495E-02  0.0000000E+00 -0.5050505E-02  0.1435485E-05  0.0000000E+00  0.5794982E-04
 -0.5050482E-02  0.0000000E+00 -0.5050505E-02  0.1621174E-05  0.0000000E+00  0.6103725E-04
 -0.5050449E-02  0.0000000E+00 -0.5050505E-02  0.1812915E-05  0.0000000E+00  0.6450722E-04
 -0.5050376E-02  0.0000000E+00 -0.5050505E-02  0.2011592E-05  0.0000000E+00  0.6837332E-04
 -0.5050299E-02  0.0000000E+00 -0.5050505E-02  0.2218167E-05  0.0000000E+00  0.7265111E-04
 -0.5050178E-02  0.0000000E+00 -0.5050505E-02  0.2433699E-05  0.0000000E+00  0.7735826E-04
 -0.5050018E-02  0.0000000E+00 -0.5050505E-02  0.2659359E-05  0.0000000E+00  0.8251481E-04
 -0.5049710E-02  0.0000000E+00 -0.5050505E-02  0.2896440E-05  0.0000000E+00  0.8814341E-04
 -0.5049253E-02  0.0000000E+00 -0.5050505E-02  0.3146383E-05  0.0000000E+00  0.9426964E-04
 -0.5048636E-02  0.0000000E+00 -0.5050505E-02  0.3410798E-05  0.0000000E+00  0.1009223E-03
 -0.5047442E-02  0.0000000E+00 -0.5050505E-02  0.3691486E-05  0.0000000E+00  0.1081339E-03
 -0.5045727E-02  0.0000000E+00 -0.5050505E-02  0.3990476E-05  0.0000000E+00  0.1159409E-03
 -0.5043261E-02  0.0000000E+00 -0.5050505E-02  0.4310048E-05  0.0000000E+00  0.1243846E-03
 -0.5038714E-02  0.0000000E+00 -0.5050505E-02  0.4652782E-05  0.0000000E+00  0.1335114E-03
 -0.5032318E-02  0.0000000E+00 -0.5050505E-02  0.5021594E-05  0.0000000E+00  0.1433738E-03
 -0.5022454E-02  0.0000000E+00 -0.5050505E-02  0.5419783E-05  0.0000000E+00  0.1540309E-03
 -0.5012589E-02  0.0000000E+00 -0.5050505E-02  0.5851081E-05  0.0000000E+00  0.1655495E-03
 -0.5002725E-02  0.0000000E+00 -0.5050505E-02  0.6319694E-05  0.0000000E+00  0.1780054E-03
 -0.4992860E-02  0.0000000E+00 -0.5050505E-02  0.6830338E-05  0.0000000E+00  0.1914839E-03
 -0.4976523E-02  0.0000000E+00 -0.5050505E-02  0.7388257E-05  0.0000000E+00  0.2060815E-03
 -0.4956794E-02  0.0000000E+00 -0.5050505E-02  0.7999196E-05  0.0000000E+00  0.2219073E-03
 -0.4937066E-02  0.0000000E+00 -0.5050505E-02  0.8669340E-05  0.0000000E+00  0.2390837E-03
 -0.4906239E-02  0.0000000E+00 -0.5050505E-02  0.9405162E-05  0.0000000E+00  0.2577478E-03
 -0.4866782E-02  0.0000000E+00 -0.5050505E-02  0.1021322E-04  0.0000000E+00  0.2780521E-03
 -0.4827325E-02  0.0000000E+00 -0.5050505E-02  0.1109995E-04  0.0000000E+00  0.3001650E-03
 -0.4769372E-02  0.0000000E+00 -0.5050505E-02  0.1207159E-04  0.0000000E+00  0.3242705E-03
 -0.4690458E-02  0.0000000E+00 -0.5050505E-02  0.1313470E-04  0.0000000E+00  0.3505694E-03
 -0.4611543E-02  0.0000000E+00 -0.5050505E-02  0.1429822E-04  0.0000000E+00  0.3792827E-03
 -0.4503035E-02  0.0000000E+00 -0.5050505E-02  0.1557867E-04  0.0000000E+00  0.4106629E-03
 -0.4345206E-02  0.0000000E+00 -0.5050505E-02  0.1701207E-04  0.0000000E+00  0.4450234E-03
 -0.4187378E-02  0.0000000E+00 -0.5050505E-02  0.1867968E-04  0.0000000E+00  0.4828099E-03
 -0.3985156E-02  0.0000000E+00 -0.5050505E-02  0.2076599E-04  0.0000000E+00  0.5247618E-03
 -0.3669499E-02  0.0000000E+00 -0.5050505E-02  0.2370638E-04  0.0000000E+00  0.5723007E-03
 -0.3353842E-02  0.0000000E+00 -0.5050505E-02  0.2862749E-04  0.0000000E+00  0.6285690E-03
 -0.2978990E-02  0.0000000E+00 -0.5050505E-02  0.3885444E-04  0.0000000E+00  0.7016338E-03
 -0.2347676E-02  0.0000000E+00 -0.5050505E-02  0.6565070E-04  0.0000000E+00  0.8158583E-03
 -0.1716362E-02  0.0000000E+00 -0.5050505E-02  0.6871515E-04  0.0000000E+00  0.9645663E-03
 -0.1025842E-02  0.0000000E+00 -0.5050505E-02  0.4657692E-04  0.0000000E+00  0.1094176E-02
  0.2367855E-03  0.0000000E+00 -0.5050505E-02  0.2453604E-04  0.0000000E+00  0.1175331E-02
  0.1499413E-02  0.0000000E+00 -0.5050505E-02  0.3740334E-04  0.0000000E+00  0.1246877E-02
  0.2762042E-02  0.0000000E+00 -0.5050505E-02  0.2426091E-04  0.0000000E+00  0.1318576E-02
 -0.5050505E-02  0.0000000E+00 -0.5050505E-02  0.5266762E-04  0.0000000E+00  0.1408979E-02
 -0.5050505E-02  0.0000000E+00 -0.5050505E-02  0.8454301E-04  0.0000000E+00  0.1571998E-02
 -0.5050505E-02  0.0000000E+00 -0.5050505E-02  0.5631952E-04  0.0000000E+00  0.1741858E-02
 -0.5050505E-02  0.0000000E+00 -0.5050505E-02  0.9153289E-04  0.0000000E+00  0.1924414E-02
 -0.5050505E-02  0.0000000E+00 -0.5050505E-02  0.1530188E-03  0.0000000E+00  0.2233142E-02
 -0.5050505E-02  0.0000000E+00 -0.5050505E-02  0.7457326E-04  0.0000000E+00  0.2527476E-02
 -0.5050505E-02  0.0000000E+00 -0.5050505E-02  0.1334673E-03  0.0000000E+00  0.2808457E-02
 -0.5050504E-02  0.0000000E+00 -0.5050505E-02 -0.2515410E-03  0.0000000E+00  0.2658924E-02
 -0.5050501E-02  0.0000000E+00 -0.5050505E-02 -0.1237264E-03  0.0000000E+00  0.2170455E-02
 -0.5050495E-02  0.0000000E+00 -0.5050505E-02 -0.6617907E-04  0.0000000E+00  0.1930648E-02
 -0.5050482E-02  0.0000000E+00 -0.5050505E-02 -0.3459966E-04  0.0000000E+00  0.1805354E-02
 -0.5050449E-02  0.0000000E+00 -0.5050505E-02 -0.2236665E-04  0.0000000E+00  0.1735156E-02
 -0.5050376E-02  0.0000000E+00 -0.5050505E-02 -0.7289090E-04  0.0000000E+00  0.1620003E-02
 -0.5050299E-02  0.0000000E+00 -0.5050505E-02 -0.3987148E-04  0.0000000E+00  0.1484861E-02
 -0.5050178E-02  0.0000000E+00 -0.5050505E-02 -0.3906393E-04  0.0000000E+00  0.1391420E-02
 -0.5050018E-02  0.0000000E+00 -0.5050505E-02 -0.3645546E-04  0.0000000E+00  0.1302927E-02
 -0.5049710E-02  0.0000000E+00 -0.5050505E-02 -0.3082119E-04  0.0000000E+00  0.1224792E-02
 -0.5049253E-02  0.0000000E+00 -0.5050505E-02 -0.2505040E-04  0.0000000E+00  0.1160389E-02
 -0.5048636E-02  0.0000000E+00 -0.5050505E-02 -0.2223426E-04  0.0000000E+00  0.1106238E-02
 -0.5047442E-02  0.0000000E+00 -0.5050505E-02 -0.4709438E-04  0.0000000E+00  0.1027759E-02
 -0.5045727E-02  0.0000000E+00 -0.5050505E-02 -0.3692820E-04  0.0000000E+00  0.9334307E-03
 -0.5043261E-02  0.0000000E+00 -0.5050505E-02 -0.3154590E-04  0.0000000E+00  0.8572667E-03
 -0.5038714E-02  0.0000000E+00 -0.5050505E-02 -0.2822854E-04  0.0000000E+00  0.7913049E-03
 -0.5032318E-02  0.0000000E+00 -0.5050505E-02 -0.2560567E-04  0.0000000E+00  0.7323154E-03
 -0.5022454E-02  0.0000000E+00 -0.5050505E-02 -0.2319344E-04  0.0000000E+00  0.6791811E-03
 -0.5012589E-02  0.0000000E+00 -0.5050505E-02 -0.2091921E-04  0.0000000E+00  0.6314228E-03
 -0.5002725E-02  0.0000000E+00 -0.5050505E-02 -0.1882211E-04  0.0000000E+00  0.5886171E-03
 -0.4992860E-02  0.0000000E+00 -0.5050505E-02 -0.1693524E-04  0.0000000E+00  0.5502794E-03
 -0.4976523E-02  0.0000000E+00 -0.5050505E-02 -0.1526285E-04  0.0000000E+00  0.5159002E-03
 -0.4956794E-02  0.0000000E+00 -0.5050505E-02 -0.1378845E-04  0.0000000E+00  0.4849962E-03
 -0.4937066E-02  0.0000000E+00 -0.5050505E-02 -0.1248647E-04  0.0000000E+00  0.4571393E-03
 -0.4906239E-02  0.0000000E+00 -0.5050505E-02 -0.1133001E-04  0.0000000E+00  0.4319654E-03
 -0.4866782E-02  0.0000000E+00 -0.5050505E-02 -0.1029458E-04  0.0000000E+00  0.4091712E-03
 -0.4827325E-02  0.0000000E+00 -0.5050505E-02 -0.9359378E-05  0.0000000E+00  0.3885058E-03
 -0.4769372E-02  0.0000000E+00 -0.5050505E-02 -0.8507235E-05  0.0000000E+00  0.3697623E-03
 -0.4690458E-02  0.0000000E+00 -0.5050505E-02 -0.7724158E-05  0.0000000E+00  0.3527692E-03
 -0.4611543E-02  0.0000000E+00 -0.5050505E-02 -0.6998685E-05  0.0000000E+00  0.3373841E-03
 -0.4503035E-02  0.0000000E+00 -0.5050505E-02 -0.6321291E-05  0.0000000E+00  0.3234884E-03
 -0.4345206E-02  0.0000000E+00 -0.5050505E-02 -0.5683855E-05  0.0000000E+00  0.3109833E-03
 -0.4187378E-02  0.0000000E+00 -0.5050505E-02 -0.5079150E-05  0.0000000E+00  0.2997872E-03
 -0.3985156E-02  0.0000000E+00 -0.5050505E-02 -0.4500273E-05  0.0000000E+00  0.2898344E-03
 -0.3669499E-02  0.0000000E+00 -0.5050505E-02 -0.3939852E-05  0.0000000E+00  0.2810746E-03
 -0.3353842E-02  0.0000000E+00 -0.5050505E-02 -0.3388608E-05  0.0000000E+00  0.2734756E-03
 -0.2978990E-02  0.0000000E+00 -0.5050505E-02 -0.2832279E-05  0.0000000E+00  0.2670300E-03
 -0.2347676E-02  0.0000000E+00 -0.5050505E-02 -0.2244039E-05  0.0000000E+00  0.2617737E-03
 -0.1716362E-02  0.0000000E+00 -0.5050505E-02 -0.1563645E-05  0.0000000E+00  0.2578329E-03
 -0.1025842E-02  0.0000000E+00 -0.5050505E-02 -0.6339123E-06  0.0000000E+00  0.2555592E-03
  0.2367855E-03  0.0000000E+00 -0.5050505E-02  0.1012237E-05  0.0000000E+00  0.2559506E-03
  0.1499413E-02  0.0000000E+00 -0.5050505E-02  0.4929886E-05  0.0000000E+00  0.2620993E-03
  0.5287294E-02  0.0000000E+00 -0.5050505E-02  0.9161652E-04  0.0000000E+00  0.2084578E-03
 -0.5050505E-02  0.0000000E+00 -0.5050505E-02  0.2428250E-06  0.0000000E+00  0.4589763E-04
 -0.5050505E-02  0.0000000E+00 -0.5050505E-02  0.7292695E-06  0.0000000E+00  0.4622421E-04
 -0.5050505E-02  0.0000000E+00 -0.5050505E-02  0.1218119E-05  0.0000000E+00  0.4687844E-04
 -0.5050505E-02  0.0000000E+00 -0.5050505E-02  0.1711022E-05  0.0000000E+00  0.4786254E-04
 -0.5050505E-02  0.0000000E+00 -0.5050505E-02  0.2209679E-05  0.0000000E+00  0.4917988E-04
 -0.5050505E-02  0.0000000E+00 -0.5050505E-02  0.2715859E-05  0.0000000E+00  0.5083505E-04
 -0.5050504E-02  0.0000000E+00 -0.5050505E-02  0.3231416E-05  0.0000000E+00  0.5283388E-04
 -0.5050501E-02  0.0000000E+00 -0.5050505E-02  0.3758314E-05  0.0000000E+00  0.5518352E-04
 -0.5050495E-02  0.0000000E+00 -0.5050505E-02  0.4298643E-05  0.0000000E+00  0.5789254E-04
 -0.5050482E-02  0.0000000E+00 -0.5050505E-02  0.4854647E-05  0.0000000E+00  0.6097103E-04
 -0.5050449E-02  0.0000000E+00 -0.5050505E-02  0.5428751E-05  0.0000000E+00  0.6443069E-04
 -0.5050376E-02  0.0000000E+00 -0.5050505E-02  0.6023591E-05  0.0000000E+00  0.6828496E-04
 -0.5050299E-02  0.0000000E+00 -0.5050505E-02  0.6642048E-05  0.0000000E+00  0.7254926E-04
 -0.5050178E-02  0.0000000E+00 -0.5050505E-02  0.7287285E-05  0.0000000E+00  0.7724107E-04
 -0.5050018E-02  0.0000000E+00 -0.5050505E-02  0.7962793E-05  0.0000000E+00  0.8238024E-04
 -0.5049710E-02  0.0000000E+00 -0.5050505E-02  0.8672442E-05  0.0000000E+00  0.8798917E-04
 -0.5049253E-02  0.0000000E+00 -0.5050505E-02  0.9420535E-05  0.0000000E+00  0.9409316E-04
 -0.5048636E-02  0.0000000E+00 -0.5050505E-02  0.1021188E-04  0.0000000E+00  0.1007207E-03
 -0.5047442E-02  0.0000000E+00 -0.5050505E-02  0.1105186E-04  0.0000000E+00  0.1079039E-03
 -0.5045727E-02  0.0000000E+00 -0.5050505E-02  0.1194652E-04  0.0000000E+00  0.1156789E-03
 -0.5043261E-02  0.0000000E+00 -0.5050505E-02  0.1290269E-04  0.0000000E+00  0.1240865E-03
 -0.5038714E-02  0.0000000E+00 -0.5050505E-02  0.1392807E-04  0.0000000E+00  0.1331726E-03
 -0.5032318E-02  0.0000000E+00 -0.5050505E-02  0.1503137E-04  0.0000000E+00  0.1429888E-03
 -0.5022454E-02  0.0000000E+00 -0.5050505E-02  0.1622247E-04  0.0000000E+00  0.1535939E-03
 -0.5012589E-02  0.0000000E+00 -0.5050505E-02  0.1751252E-04  0.0000000E+00  0.1650538E-03
 -0.5002725E-02  0.0000000E+00 -0.5050505E-02  0.1891414E-04  0.0000000E+00  0.1774433E-03
 -0.4992860E-02  0.0000000E+00 -0.5050505E-02  0.2044148E-04  0.0000000E+00  0.1908471E-03
 -0.4976523E-02  0.0000000E+00 -0.5050505E-02  0.2211032E-04  0.0000000E+00  0.2053610E-03
 -0.4956794E-02  0.0000000E+00 -0.5050505E-02  0.2393799E-04  0.0000000E+00  0.2210932E-03
 -0.4937066E-02  0.0000000E+00 -0.5050505E-02  0.2594320E-04  0.0000000E+00  0.2381657E-03
 -0.4906239E-02  0.0000000E+00 -0.5050505E-02  0.2814557E-04  0.0000000E+00  0.2567158E-03
 -0.4866782E-02  0.0000000E+00 -0.5050505E-02  0.3056499E-04  0.0000000E+00  0.2768961E-03
 -0.4827325E-02  0.0000000E+00 -0.5050505E-02  0.3322072E-04  0.0000000E+00  0.2988756E-03
 -0.4769372E-02  0.0000000E+00 -0.5050505E-02  0.3613086E-04  0.0000000E+00  0.3228384E-03
 -0.4690458E-02  0.0000000E+00 -0.5050505E-02  0.3931301E-04  0.0000000E+00  0.3489825E-03
 -0.4611543E-02  0.0000000E+00 -0.5050505E-02  0.4278866E-04  0.0000000E+00  0.3775183E-03
 -0.4503035E-02  0.0000000E+00 -0.5050505E-02  0.4659583E-04  0.0000000E+00  0.4086703E-03
 -0.4345206E-02  0.0000000E+00 -0.5050505E-02  0.5081814E-04  0.0000000E+00  0.4426857E-03
 -0.4187378E-02  0.0000000E+00 -0.5050505E-02  0.5564530E-04  0.0000000E+00  0.4798598E-03
 -0.3985156E-02  0.0000000E+00 -0.5050505E-02  0.6149443E-04  0.0000000E+00  0.5205759E-03
 -0.3669499E-02  0.0000000E+00 -0.5050505E-02  0.6926701E-04  0.0000000E+00  0.5653122E-03
 -0.3353842E-02  0.0000000E+00 -0.5050505E-02  0.8096372E-04  0.0000000E+00  0.6143206E-03
 -0.2978990E-02  0.0000000E+00 -0.5050505E-02  0.1013318E-03  0.0000000E+00  0.6655331E-03
 -0.2347676E-02  0.0000000E+00 -0.5050505E-02  0.1425396E-03  0.0000000E+00  0.7036181E-03
 -0.1716362E-02  0.0000000E+00 -0.5050505E-02  0.1546820E-03  0.0000000E+00  0.7350703E-03
 -0.1025842E-02  0.0000000E+00 -0.5050505E-02  0.1415102E-03  0.0000000E+00  0.8072254E-03
  0.2367855E-03  0.0000000E+00 -0.5050505E-02  0.1190928E-03  0.0000000E+00  0.9386832E-03
  0.1499413E-02  0.0000000E+00 -0.5050505E-02  0.1357224E-03  0.0000000E+00  0.1086485E-02
  0.2762042E-02  0.0000000E+00 -0.5050505E-02  0.1066383E-03  0.0000000E+00  0.1223715E-02
 -0.5050505E-02  0.0000000E+00 -0.5050505E-02  0.1547640E-03  0.0000000E+00  0.1350106E-02
 -0.5050505E-02  0.0000000E+00 -0.5050505E-02  0.2065007E-03  0.0000000E+00  0.1454187E-02
 -0.5050505E-02  0.0000000E+00 -0.5050505E-02  0.2123027E-03  0.0000000E+00  0.1621055E-02
 -0.5050505E-02  0.0000000E+00 -0.5050505E-02  0.2523951E-03  0.0000000E+00  0.1830280E-02
 -0.5050505E-02  0.0000000E+00 -0.5050505E-02  0.3263254E-03  0.0000000E+00  0.1947112E-02
 -0.5050505E-02  0.0000000E+00 -0.5050505E-02  0.3009077E-03  0.0000000E+00  0.2175158E-02
 -0.5050505E-02  0.0000000E+00 -0.5050505E-02  0.2190685E-03  0.0000000E+00  0.2315010E-02
 -0.5050504E-02  0.0000000E+00 -0.5050505E-02 -0.5709623E-03  0.0000000E+00  0.2164845E-02
 -0.5050501E-02  0.0000000E+00 -0.5050505E-02 -0.3143506E-03  0.0000000E+00  0.1986735E-02
 -0.5050495E-02  0.0000000E+00 -0.5050505E-02 -0.1762093E-03  0.0000000E+00  0.1843078E-02
 -0.5050482E-02  0.0000000E+00 -0.5050505E-02 -0.1208844E-03  0.0000000E+00  0.1721541E-02
 -0.5050449E-02  0.0000000E+00 -0.5050505E-02 -0.1179809E-03  0.0000000E+00  0.1566997E-02
 -0.5050376E-02  0.0000000E+00 -0.5050505E-02 -0.1484472E-03  0.0000000E+00  0.1473109E-02
 -0.5050299E-02  0.0000000E+00 -0.5050505E-02 -0.9184298E-04  0.0000000E+00  0.1453639E-02
 -0.5050178E-02  0.0000000E+00 -0.5050505E-02 -0.1180260E-03  0.0000000E+00  0.1390661E-02
 -0.5050018E-02  0.0000000E+00 -0.5050505E-02 -0.1114602E-03  0.0000000E+00  0.1297246E-02
 -0.5049710E-02  0.0000000E+00 -0.5050505E-02 -0.9214659E-04  0.0000000E+00  0.1215891E-02
 -0.5049253E-02  0.0000000E+00 -0.5050505E-02 -0.7209488E-04  0.0000000E+00  0.1154466E-02
 -0.5048636E-02  0.0000000E+00 -0.5050505E-02 -0.7887112E-04  0.0000000E+00  0.1089263E-02
 -0.5047442E-02  0.0000000E+00 -0.5050505E-02 -0.1352749E-03  0.0000000E+00  0.1003274E-02
 -0.5045727E-02  0.0000000E+00 -0.5050505E-02 -0.1065513E-03  0.0000000E+00  0.9201674E-03
 -0.5043261E-02  0.0000000E+00 -0.5050505E-02 -0.9277034E-04  0.0000000E+00  0.8505057E-03
 -0.5038714E-02  0.0000000E+00 -0.5050505E-02 -0.8404959E-04  0.0000000E+00  0.7870686E-03
 -0.5032318E-02  0.0000000E+00 -0.5050505E-02 -0.7662871E-04  0.0000000E+00  0.7287938E-03
 -0.5022454E-02  0.0000000E+00 -0.5050505E-02 -0.6946298E-04  0.0000000E+00  0.6758425E-03
 -0.5012589E-02  0.0000000E+00 -0.5050505E-02 -0.6260361E-04  0.0000000E+00  0.6282552E-03
 -0.5002725E-02  0.0000000E+00 -0.5050505E-02 -0.5627820E-04  0.0000000E+00  0.5857139E-03
 -0.4992860E-02  0.0000000E+00 -0.5050505E-02 -0.5060943E-04  0.0000000E+00  0.5476973E-03
 -0.4976523E-02  0.0000000E+00 -0.5050505E-02 -0.4560377E-04  0.0000000E+00  0.5136441E-03
 -0.4956794E-02  0.0000000E+00 -0.5050505E-02 -0.4120139E-04  0.0000000E+00  0.4830383E-03
 -0.4937066E-02  0.0000000E+00 -0.5050505E-02 -0.3731835E-04  0.0000000E+00  0.4554388E-03
 -0.4906239E-02  0.0000000E+00 -0.5050505E-02 -0.3387030E-04  0.0000000E+00  0.4304804E-03
 -0.4866782E-02  0.0000000E+00 -0.5050505E-02 -0.3078243E-04  0.0000000E+00  0.4078641E-03
 -0.4827325E-02  0.0000000E+00 -0.5050505E-02 -0.2799219E-04  0.0000000E+00  0.3873449E-03
 -0.4769372E-02  0.0000000E+00 -0.5050505E-02 -0.2544846E-04  0.0000000E+00  0.3687218E-03
 -0.4690458E-02  0.0000000E+00 -0.5050505E-02 -0.2310978E-04  0.0000000E+00  0.3518280E-03
 -0.4611543E-02  0.0000000E+00 -0.5050505E-02 -0.2094226E-04  0.0000000E+00  0.3365249E-03
 -0.4503035E-02  0.0000000E+00 -0.5050505E-02 -0.1891782E-04  0.0000000E+00  0.3226967E-03
 -0.4345206E-02  0.0000000E+00 -0.5050505E-02 -0.1701253E-04  0.0000000E+00  0.3102465E-03
 -0.4187378E-02  0.0000000E+00 -0.5050505E-02 -0.1520525E-04  0.0000000E+00  0.2990937E-03
 -0.3985156E-02  0.0000000E+00 -0.5050505E-02 -0.1347603E-04  0.0000000E+00  0.2891720E-03
 -0.3669499E-02  0.0000000E+00 -0.5050505E-02 -0.1180412E-04  0.0000000E+00  0.2804285E-03
 -0.3353842E-02  0.0000000E+00 -0.5050505E-02 -0.1016467E-04  0.0000000E+00  0.2728240E-03
 -0.2978990E-02  0.0000000E+00 -0.5050505E-02 -0.8522236E-05  0.0000000E+00  0.2663337E-03
 -0.2347676E-02  0.0000000E+00 -0.5050505E-02 -0.6816532E-05  0.0000000E+00  0.2609471E-03
 -0.1716362E-02  0.0000000E+00 -0.5050505E-02 -0.4928356E-05  0.0000000E+00  0.2566605E-03
 -0.1025842E-02  0.0000000E+00 -0.5050505E-02 -0.2592240E-05  0.0000000E+00  0.2534191E-03
  0.2367855E-03  0.0000000E+00 -0.5050505E-02  0.8403083E-06  0.0000000E+00  0.2508248E-03
  0.1499413E-02  0.0000000E+00 -0.5050505E-02  0.7071230E-05  0.0000000E+00  0.2467376E-03
  0.5287294E-02  0.0000000E+00 -0.5050505E-02  0.2080113E-04  0.0000000E+00  0.2307008E-03
 -0.5050505E-02  0.0000000E+00 -0.5050505E-02  0.4034870E-06  0.0000000E+00  0.4585117E-04
 -0.5050505E-02  0.0000000E+00 -0.5050505E-02  0.1211783E-05  0.0000000E+00  0.4617611E-04
 -0.5050505E-02  0.0000000E+00 -0.5050505E-02  0.2024074E-05  0.0000000E+00  0.4682702E-04
 -0.5050505E-02  0.0000000E+00 -0.5050505E-02  0.2843092E-05  0.0000000E+00  0.4780608E-04
 -0.5050505E-02  0.0000000E+00 -0.5050505E-02  0.3671654E-05  0.0000000E+00  0.4911659E-04
 -0.5050505E-02  0.0000000E+00 -0.5050505E-02  0.4512686E-05  0.0000000E+00  0.5076303E-04
 -0.5050504E-02  0.0000000E+00 -0.5050505E-02  0.5369261E-05  0.0000000E+00  0.5275114E-04
 -0.5050501E-02  0.0000000E+00 -0.5050505E-02  0.6244625E-05  0.0000000E+00  0.5508792E-04
 -0.5050495E-02  0.0000000E+00 -0.5050505E-02  0.7142238E-05  0.0000000E+00  0.5778179E-04
 -0.5050482E-02  0.0000000E+00 -0.5050505E-02  0.8065814E-05  0.0000000E+00  0.6084263E-04
 -0.5050449E-02  0.0000000E+00 -0.5050505E-02  0.9019363E-05  0.0000000E+00  0.6428192E-04
 -0.5050376E-02  0.0000000E+00 -0.5050505E-02  0.1000725E-04  0.0000000E+00  0.6811286E-04
 -0.5050299E-02  0.0000000E+00 -0.5050505E-02  0.1103423E-04  0.0000000E+00  0.7235052E-04
 -0.5050178E-02  0.0000000E+00 -0.5050505E-02  0.1210553E-04  0.0000000E+00  0.7701207E-04
 -0.5050018E-02  0.0000000E+00 -0.5050505E-02  0.1322694E-04  0.0000000E+00  0.8211692E-04
 -0.5049710E-02  0.0000000E+00 -0.5050505E-02  0.1440484E-04  0.0000000E+00  0.8768703E-04
 -0.5049253E-02  0.0000000E+00 -0.5050505E-02  0.1564635E-04  0.0000000E+00  0.9374714E-04
 -0.5048636E-02  0.0000000E+00 -0.5050505E-02  0.1695941E-04  0.0000000E+00  0.1003251E-03
 -0.5047442E-02  0.0000000E+00 -0.5050505E-02  0.1835291E-04  0.0000000E+00  0.1074524E-03
 -0.5045727E-02  0.0000000E+00 -0.5050505E-02  0.1983685E-04  0.0000000E+00  0.1151643E-03
 -0.5043261E-02  0.0000000E+00 -0.5050505E-02  0.2142250E-04  0.0000000E+00  0.1235006E-03
 -0.5038714E-02  0.0000000E+00 -0.5050505E-02  0.2312260E-04  0.0000000E+00  0.1325061E-03
 -0.5032318E-02  0.0000000E+00 -0.5050505E-02  0.2495155E-04  0.0000000E+00  0.1422314E-03
 -0.5022454E-02  0.0000000E+00 -0.5050505E-02  0.2692570E-04  0.0000000E+00  0.1527337E-03
 -0.5012589E-02  0.0000000E+00 -0.5050505E-02  0.2906358E-04  0.0000000E+00  0.1640775E-03
 -0.5002725E-02  0.0000000E+00 -0.5050505E-02  0.3138613E-04  0.0000000E+00  0.1763359E-03
 -0.4992860E-02  0.0000000E+00 -0.5050505E-02  0.3391699E-04  0.0000000E+00  0.1895920E-03
 -0.4976523E-02  0.0000000E+00 -0.5050505E-02  0.3668258E-04  0.0000000E+00  0.2039399E-03
 -0.4956794E-02  0.0000000E+00 -0.5050505E-02  0.3971211E-04  0.0000000E+00  0.2194865E-03
 -0.4937066E-02  0.0000000E+00 -0.5050505E-02  0.4303731E-04  0.0000000E+00  0.2363529E-03
 -0.4906239E-02  0.0000000E+00 -0.5050505E-02  0.4669167E-04  0.0000000E+00  0.2546762E-03
 -0.4866782E-02  0.0000000E+00 -0.5050505E-02  0.5070918E-04  0.0000000E+00  0.2746103E-03
 -0.4827325E-02  0.0000000E+00 -0.5050505E-02  0.5512242E-04  0.0000000E+00  0.2963261E-03
 -0.4769372E-02  0.0000000E+00 -0.5050505E-02  0.5996033E-04  0.0000000E+00  0.3200099E-03
 -0.4690458E-02  0.0000000E+00 -0.5050505E-02  0.6524682E-04  0.0000000E+00  0.3458590E-03
 -0.4611543E-02  0.0000000E+00 -0.5050505E-02  0.7100314E-04  0.0000000E+00  0.3740725E-03
 -0.4503035E-02  0.0000000E+00 -0.5050505E-02  0.7726022E-04  0.0000000E+00  0.4048379E-03
 -0.4345206E-02  0.0000000E+00 -0.5050505E-02  0.8409154E-04  0.0000000E+00  0.4383124E-03
 -0.4187378E-02  0.0000000E+00 -0.5050505E-02  0.9168164E-04  0.0000000E+00  0.4746022E-03
 -0.3985156E-02  0.0000000E+00 -0.5050505E-02  0.1004431E-03  0.0000000E+00  0.5137284E-03
 -0.3669499E-02  0.0000000E+00 -0.5050505E-02  0.1111806E-03  0.0000000E+00  0.5555242E-03
 -0.3353842E-02  0.0000000E+00 -0.5050505E-02  0.1252666E-03  0.0000000E+00  0.5992844E-03
 -0.2978990E-02  0.0000000E+00 -0.5050505E-02  0.1446348E-03  0.0000000E+00  0.6429132E-03
 -0.2347676E-02  0.0000000E+00 -0.5050505E-02  0.1699861E-03  0.0000000E+00  0.6821128E-03
 -0.1716362E-02  0.0000000E+00 -0.5050505E-02  0.1892814E-03  0.0000000E+00  0.7190706E-03
 -0.1025842E-02  0.0000000E+00 -0.5050505E-02  0.2086005E-03  0.0000000E+00  0.7590268E-03
  0.2367855E-03  0.0000000E+00 -0.5050505E-02  0.2187127E-03  0.0000000E+00  0.8126674E-03
  0.1499413E-02  0.0000000E+00 -0.5050505E-02  0.2415722E-03  0.0000000E+00  0.8956375E-03
  0.2762042E-02  0.0000000E+00 -0.5050505E-02  0.2315474E-03  0.0000000E+00  0.1021549E-02
 -0.5050505E-02  0.0000000E+00 -0.5050505E-02  0.2548879E-03  0.0000000E+00  0.1156412E-02
 -0.5050505E-02  0.0000000E+00 -0.5050505E-02  0.3037830E-03  0.0000000E+00  0.1286476E-02
 -0.5050505E-02  0.0000000E+00 -0.5050505E-02  0.3766353E-03  0.0000000E+00  0.1435863E-02
 -0.5050505E-02  0.0000000E+00 -0.5050505E-02  0.4166454E-03  0.0000000E+00  0.1632170E-02
 -0.5050505E-02  0.0000000E+00 -0.5050505E-02  0.3265506E-03  0.0000000E+00  0.1729394E-02
 -0.5050505E-02  0.0000000E+00 -0.5050505E-02  0.4981531E-03  0.0000000E+00  0.1770561E-02
 -0.5050505E-02  0.0000000E+00 -0.5050505E-02  0.2411050E-03  0.0000000E+00  0.1929779E-02
 -0.5050504E-02  0.0000000E+00 -0.5050505E-02 -0.7175215E-03  0.0000000E+00  0.1923523E-02
 -0.5050501E-02  0.0000000E+00 -0.5050505E-02 -0.4087175E-03  0.0000000E+00  0.1780791E-02
 -0.5050495E-02  0.0000000E+00 -0.5050505E-02 -0.2824538E-03  0.0000000E+00  0.1661532E-02
 -0.5050482E-02  0.0000000E+00 -0.5050505E-02 -0.2304843E-03  0.0000000E+00  0.1508929E-02
 -0.5050449E-02  0.0000000E+00 -0.5050505E-02 -0.1876669E-03  0.0000000E+00  0.1439067E-02
 -0.5050376E-02  0.0000000E+00 -0.5050505E-02 -0.1562166E-03  0.0000000E+00  0.1434076E-02
 -0.5050299E-02  0.0000000E+00 -0.5050505E-02 -0.1081257E-03  0.0000000E+00  0.1420454E-02
 -0.5050178E-02  0.0000000E+00 -0.5050505E-02 -0.1877531E-03  0.0000000E+00  0.1377555E-02
 -0.5050018E-02  0.0000000E+00 -0.5050505E-02 -0.1964854E-03  0.0000000E+00  0.1285150E-02
 -0.5049710E-02  0.0000000E+00 -0.5050505E-02 -0.1533144E-03  0.0000000E+00  0.1193147E-02
 -0.5049253E-02  0.0000000E+00 -0.5050505E-02 -0.1305338E-03  0.0000000E+00  0.1114129E-02
 -0.5048636E-02  0.0000000E+00 -0.5050505E-02 -0.1647344E-03  0.0000000E+00  0.1012880E-02
 -0.5047442E-02  0.0000000E+00 -0.5050505E-02 -0.1890181E-03  0.0000000E+00  0.9394324E-03
 -0.5045727E-02  0.0000000E+00 -0.5050505E-02 -0.1629896E-03  0.0000000E+00  0.8978078E-03
 -0.5043261E-02  0.0000000E+00 -0.5050505E-02 -0.1495218E-03  0.0000000E+00  0.8407064E-03
 -0.5038714E-02  0.0000000E+00 -0.5050505E-02 -0.1387921E-03  0.0000000E+00  0.7804213E-03
 -0.5032318E-02  0.0000000E+00 -0.5050505E-02 -0.1275404E-03  0.0000000E+00  0.7224004E-03
 -0.5022454E-02  0.0000000E+00 -0.5050505E-02 -0.1155716E-03  0.0000000E+00  0.6693066E-03
 -0.5012589E-02  0.0000000E+00 -0.5050505E-02 -0.1038994E-03  0.0000000E+00  0.6219349E-03
 -0.5002725E-02  0.0000000E+00 -0.5050505E-02 -0.9320881E-04  0.0000000E+00  0.5799344E-03
 -0.4992860E-02  0.0000000E+00 -0.5050505E-02 -0.8372992E-04  0.0000000E+00  0.5425942E-03
 -0.4976523E-02  0.0000000E+00 -0.5050505E-02 -0.7542813E-04  0.0000000E+00  0.5092134E-03
 -0.4956794E-02  0.0000000E+00 -0.5050505E-02 -0.6816149E-04  0.0000000E+00  0.4792088E-03
 -0.4937066E-02  0.0000000E+00 -0.5050505E-02 -0.6176512E-04  0.0000000E+00  0.4521195E-03
 -0.4906239E-02  0.0000000E+00 -0.5050505E-02 -0.5608702E-04  0.0000000E+00  0.4275835E-03
 -0.4866782E-02  0.0000000E+00 -0.5050505E-02 -0.5099897E-04  0.0000000E+00  0.4053136E-03
 -0.4827325E-02  0.0000000E+00 -0.5050505E-02 -0.4639676E-04  0.0000000E+00  0.3850784E-03
 -0.4769372E-02  0.0000000E+00 -0.5050505E-02 -0.4219670E-04  0.0000000E+00  0.3666886E-03
 -0.4690458E-02  0.0000000E+00 -0.5050505E-02 -0.3833145E-04  0.0000000E+00  0.3499875E-03
 -0.4611543E-02  0.0000000E+00 -0.5050505E-02 -0.3474623E-04  0.0000000E+00  0.3348438E-03
 -0.4503035E-02  0.0000000E+00 -0.5050505E-02 -0.3139572E-04  0.0000000E+00  0.3211473E-03
 -0.4345206E-02  0.0000000E+00 -0.5050505E-02 -0.2824150E-04  0.0000000E+00  0.3088048E-03
 -0.4187378E-02  0.0000000E+00 -0.5050505E-02 -0.2524985E-04  0.0000000E+00  0.2977376E-03
 -0.3985156E-02  0.0000000E+00 -0.5050505E-02 -0.2238965E-04  0.0000000E+00  0.2878796E-03
 -0.3669499E-02  0.0000000E+00 -0.5050505E-02 -0.1962995E-04  0.0000000E+00  0.2791749E-03
 -0.3353842E-02  0.0000000E+00 -0.5050505E-02 -0.1693653E-04  0.0000000E+00  0.2715760E-03
 -0.2978990E-02  0.0000000E+00 -0.5050505E-02 -0.1426651E-04  0.0000000E+00  0.2650400E-03
 -0.2347676E-02  0.0000000E+00 -0.5050505E-02 -0.1155911E-04  0.0000000E+00  0.2595188E-03
 -0.1716362E-02  0.0000000E+00 -0.5050505E-02 -0.8720577E-05  0.0000000E+00  0.2549337E-03
 -0.1025842E-02  0.0000000E+00 -0.5050505E-02 -0.5605906E-05  0.0000000E+00  0.2511080E-03
  0.2367855E-03  0.0000000E+00 -0.5050505E-02 -0.2032319E-05  0.0000000E+00  0.2476060E-03
  0.1499413E-02  0.0000000E+00 -0.5050505E-02  0.1971469E-05  0.0000000E+00  0.2434750E-03
  0.5287294E-02  0.0000000E+00 -0.5050505E-02  0.4678165E-05  0.0000000E+00  0.2377191E-03
 -0.5050505E-02  0.0000000E+00 -0.5050505E-02  0.5626851E-06  0.0000000E+00  0.4578638E-04
 -0.5050505E-02  0.0000000E+00 -0.5050505E-02  0.1689895E-05  0.0000000E+00  0.4610888E-04
 -0.5050505E-02  0.0000000E+00 -0.5050505E-02  0.2822660E-05  0.0000000E+00  0.4675490E-04
 -0.5050505E-02  0.0000000E+00 -0.5050505E-02  0.3964771E-05  0.0000000E+00  0.4772652E-04
 -0.5050505E-02  0.0000000E+00 -0.5050505E-02  0.5120136E-05  0.0000000E+00  0.4902693E-04
 -0.5050505E-02  0.0000000E+00 -0.5050505E-02  0.6292813E-05  0.0000000E+00  0.5066049E-04
 -0.5050504E-02  0.0000000E+00 -0.5050505E-02  0.7487060E-05  0.0000000E+00  0.5263277E-04
 -0.5050501E-02  0.0000000E+00 -0.5050505E-02  0.8707376E-05  0.0000000E+00  0.5495059E-04
 -0.5050495E-02  0.0000000E+00 -0.5050505E-02  0.9958555E-05  0.0000000E+00  0.5762210E-04
 -0.5050482E-02  0.0000000E+00 -0.5050505E-02  0.1124574E-04  0.0000000E+00  0.6065692E-04
 -0.5050449E-02  0.0000000E+00 -0.5050505E-02  0.1257449E-04  0.0000000E+00  0.6406617E-04
 -0.5050376E-02  0.0000000E+00 -0.5050505E-02  0.1395083E-04  0.0000000E+00  0.6786268E-04
 -0.5050299E-02  0.0000000E+00 -0.5050505E-02  0.1538137E-04  0.0000000E+00  0.7206108E-04
 -0.5050178E-02  0.0000000E+00 -0.5050505E-02  0.1687333E-04  0.0000000E+00  0.7667800E-04
 -0.5050018E-02  0.0000000E+00 -0.5050505E-02  0.1843471E-04  0.0000000E+00  0.8173227E-04
 -0.5049710E-02  0.0000000E+00 -0.5050505E-02  0.2007434E-04  0.0000000E+00  0.8724515E-04
 -0.5049253E-02  0.0000000E+00 -0.5050505E-02  0.2180207E-04  0.0000000E+00  0.9324059E-04
 -0.5048636E-02  0.0000000E+00 -0.5050505E-02  0.2362885E-04  0.0000000E+00  0.9974556E-04
 -0.5047442E-02  0.0000000E+00 -0.5050505E-02  0.2556700E-04  0.0000000E+00  0.1067904E-03
 -0.5045727E-02  0.0000000E+00 -0.5050505E-02  0.2763031E-04  0.0000000E+00  0.1144092E-03
 -0.5043261E-02  0.0000000E+00 -0.5050505E-02  0.2983436E-04  0.0000000E+00  0.1226404E-03
 -0.5038714E-02  0.0000000E+00 -0.5050505E-02  0.3219676E-04  0.0000000E+00  0.1315273E-03
 -0.5032318E-02  0.0000000E+00 -0.5050505E-02  0.3473745E-04  0.0000000E+00  0.1411185E-03
 -0.5022454E-02  0.0000000E+00 -0.5050505E-02  0.3747908E-04  0.0000000E+00  0.1514692E-03
 -0.5012589E-02  0.0000000E+00 -0.5050505E-02  0.4044738E-04  0.0000000E+00  0.1626416E-03
 -0.5002725E-02  0.0000000E+00 -0.5050505E-02  0.4367155E-04  0.0000000E+00  0.1747064E-03
 -0.4992860E-02  0.0000000E+00 -0.5050505E-02  0.4718468E-04  0.0000000E+00  0.1877440E-03
 -0.4976523E-02  0.0000000E+00 -0.5050505E-02  0.5102403E-04  0.0000000E+00  0.2018458E-03
 -0.4956794E-02  0.0000000E+00 -0.5050505E-02  0.5523117E-04  0.0000000E+00  0.2171165E-03
 -0.4937066E-02  0.0000000E+00 -0.5050505E-02  0.5985170E-04  0.0000000E+00  0.2336757E-03