title = "dataset feddes"
variables = "x", "y", "z", "vx", "vy", "vz"
zone t = "velocities, solution time =  2.100E+01 days        " i =   99, j =   99, k =    1,  f=point
 -0.5050505E-02  0.0000000E+00 -0.5050505E-02  0.5178852E-09  0.0000000E+00 -0.4013107E-03
 -0.5050505E-02  0.0000000E+00 -0.5050505E-02  0.1552695E-08  0.0000000E+00 -0.4013085E-03
 -0.5050505E-02  0.0000000E+00 -0.5050505E-02  0.2584415E-08  0.0000000E+00 -0.4013042E-03
 -0.5050505E-02  0.0000000E+00 -0.5050505E-02  0.3610965E-08  0.0000000E+00 -0.4012977E-03
 -0.5050505E-02  0.0000000E+00 -0.5050505E-02  0.4630280E-08  0.0000000E+00 -0.4012890E-03
 -0.5050505E-02  0.0000000E+00 -0.5050505E-02  0.5640284E-08  0.0000000E+00 -0.4012783E-03
 -0.5050504E-02  0.0000000E+00 -0.5050505E-02  0.6638891E-08  0.0000000E+00 -0.4012654E-03
 -0.5050501E-02  0.0000000E+00 -0.5050505E-02  0.7624006E-08  0.0000000E+00 -0.4012505E-03
 -0.5050495E-02  0.0000000E+00 -0.5050505E-02  0.8593526E-08  0.0000000E+00 -0.4012335E-03
 -0.5050482E-02  0.0000000E+00 -0.5050505E-02  0.9545333E-08  0.0000000E+00 -0.4012145E-03
 -0.5050449E-02  0.0000000E+00 -0.5050505E-02  0.1047729E-07  0.0000000E+00 -0.4011935E-03
 -0.5050376E-02  0.0000000E+00 -0.5050505E-02  0.1138727E-07  0.0000000E+00 -0.4011706E-03
 -0.5050299E-02  0.0000000E+00 -0.5050505E-02  0.1227310E-07  0.0000000E+00 -0.4011458E-03
 -0.5050178E-02  0.0000000E+00 -0.5050505E-02  0.1313261E-07  0.0000000E+00 -0.4011192E-03
 -0.5050018E-02  0.0000000E+00 -0.5050505E-02  0.1396363E-07  0.0000000E+00 -0.4010908E-03
 -0.5049710E-02  0.0000000E+00 -0.5050505E-02  0.1476394E-07  0.0000000E+00 -0.4010607E-03
 -0.5049253E-02  0.0000000E+00 -0.5050505E-02  0.1553135E-07  0.0000000E+00 -0.4010290E-03
 -0.5048636E-02  0.0000000E+00 -0.5050505E-02  0.1626362E-07  0.0000000E+00 -0.4009956E-03
 -0.5047442E-02  0.0000000E+00 -0.5050505E-02  0.1695854E-07  0.0000000E+00 -0.4009608E-03
 -0.5045727E-02  0.0000000E+00 -0.5050505E-02  0.1761385E-07  0.0000000E+00 -0.4009246E-03
 -0.5043261E-02  0.0000000E+00 -0.5050505E-02  0.1822732E-07  0.0000000E+00 -0.4008871E-03
 -0.5038714E-02  0.0000000E+00 -0.5050505E-02  0.1879670E-07  0.0000000E+00 -0.4008483E-03
 -0.5032318E-02  0.0000000E+00 -0.5050505E-02  0.1931975E-07  0.0000000E+00 -0.4008083E-03
 -0.5022454E-02  0.0000000E+00 -0.5050505E-02  0.1979422E-07  0.0000000E+00 -0.4007674E-03
 -0.5012589E-02  0.0000000E+00 -0.5050505E-02  0.2021789E-07  0.0000000E+00 -0.4007254E-03
 -0.5002725E-02  0.0000000E+00 -0.5050505E-02  0.2058854E-07  0.0000000E+00 -0.4006827E-03
 -0.4992860E-02  0.0000000E+00 -0.5050505E-02  0.2090397E-07  0.0000000E+00 -0.4006392E-03
 -0.4976523E-02  0.0000000E+00 -0.5050505E-02  0.2116202E-07  0.0000000E+00 -0.4005951E-03
 -0.4956794E-02  0.0000000E+00 -0.5050505E-02  0.2136056E-07  0.0000000E+00 -0.4005506E-03
 -0.4937066E-02  0.0000000E+00 -0.5050505E-02  0.2149749E-07  0.0000000E+00 -0.4005057E-03
 -0.4906239E-02  0.0000000E+00 -0.5050505E-02  0.2157078E-07  0.0000000E+00 -0.4004606E-03
 -0.4866782E-02  0.0000000E+00 -0.5050505E-02  0.2157845E-07  0.0000000E+00 -0.4004154E-03
 -0.4827325E-02  0.0000000E+00 -0.5050505E-02  0.2151861E-07  0.0000000E+00 -0.4003702E-03
 -0.4769372E-02  0.0000000E+00 -0.5050505E-02  0.2138946E-07  0.0000000E+00 -0.4003253E-03
 -0.4690458E-02  0.0000000E+00 -0.5050505E-02  0.2118929E-07  0.0000000E+00 -0.4002806E-03
 -0.4611543E-02  0.0000000E+00 -0.5050505E-02  0.2091654E-07  0.0000000E+00 -0.4002365E-03
 -0.4503035E-02  0.0000000E+00 -0.5050505E-02  0.2056978E-07  0.0000000E+00 -0.4001931E-03
 -0.4345206E-02  0.0000000E+00 -0.5050505E-02  0.2014777E-07  0.0000000E+00 -0.4001504E-03
 -0.4187378E-02  0.0000000E+00 -0.5050505E-02  0.1964946E-07  0.0000000E+00 -0.4001087E-03
 -0.3985156E-02  0.0000000E+00 -0.5050505E-02  0.1907401E-07  0.0000000E+00 -0.4000682E-03
 -0.3669499E-02  0.0000000E+00 -0.5050505E-02  0.1842087E-07  0.0000000E+00 -0.4000289E-03
 -0.3353842E-02  0.0000000E+00 -0.5050505E-02  0.1768974E-07  0.0000000E+00 -0.3999910E-03
 -0.2978990E-02  0.0000000E+00 -0.5050505E-02  0.1688070E-07  0.0000000E+00 -0.3999548E-03
 -0.2347676E-02  0.0000000E+00 -0.5050505E-02  0.1599417E-07  0.0000000E+00 -0.3999204E-03
 -0.1716362E-02  0.0000000E+00 -0.5050505E-02  0.1503096E-07  0.0000000E+00 -0.3998879E-03
 -0.1025842E-02  0.0000000E+00 -0.5050505E-02  0.1399237E-07  0.0000000E+00 -0.3998575E-03
  0.2367855E-03  0.0000000E+00 -0.5050505E-02  0.1288016E-07  0.0000000E+00 -0.3998293E-03
  0.1499413E-02  0.0000000E+00 -0.5050505E-02  0.1169663E-07  0.0000000E+00 -0.3998036E-03
  0.2762042E-02  0.0000000E+00 -0.5050505E-02  0.1044463E-07  0.0000000E+00 -0.3997804E-03
 -0.5050505E-02  0.0000000E+00 -0.5050505E-02  0.9127620E-08  0.0000000E+00 -0.3997599E-03
 -0.5050505E-02  0.0000000E+00 -0.5050505E-02  0.7749662E-08  0.0000000E+00 -0.3997422E-03
 -0.5050505E-02  0.0000000E+00 -0.5050505E-02  0.6315460E-08  0.0000000E+00 -0.3997275E-03
 -0.5050505E-02  0.0000000E+00 -0.5050505E-02  0.4830352E-08  0.0000000E+00 -0.3997158E-03
 -0.5050505E-02  0.0000000E+00 -0.5050505E-02  0.3300307E-08  0.0000000E+00 -0.3997073E-03
 -0.5050505E-02  0.0000000E+00 -0.5050505E-02  0.1731902E-08  0.0000000E+00 -0.3997020E-03
 -0.5050505E-02  0.0000000E+00 -0.5050505E-02  0.1322824E-09  0.0000000E+00 -0.3997000E-03
 -0.5050504E-02  0.0000000E+00 -0.5050505E-02 -0.1490891E-08  0.0000000E+00 -0.3997015E-03
 -0.5050501E-02  0.0000000E+00 -0.5050505E-02 -0.3129516E-08  0.0000000E+00 -0.3997063E-03
 -0.5050495E-02  0.0000000E+00 -0.5050505E-02 -0.4775145E-08  0.0000000E+00 -0.3997146E-03
 -0.5050482E-02  0.0000000E+00 -0.5050505E-02 -0.6419092E-08  0.0000000E+00 -0.3997263E-03
 -0.5050449E-02  0.0000000E+00 -0.5050505E-02 -0.8052565E-08  0.0000000E+00 -0.3997415E-03
 -0.5050376E-02  0.0000000E+00 -0.5050505E-02 -0.9666812E-08  0.0000000E+00 -0.3997600E-03
 -0.5050299E-02  0.0000000E+00 -0.5050505E-02 -0.1125328E-07  0.0000000E+00 -0.3997820E-03
 -0.5050178E-02  0.0000000E+00 -0.5050505E-02 -0.1280378E-07  0.0000000E+00 -0.3998072E-03
 -0.5050018E-02  0.0000000E+00 -0.5050505E-02 -0.1431070E-07  0.0000000E+00 -0.3998356E-03
 -0.5049710E-02  0.0000000E+00 -0.5050505E-02 -0.1576720E-07  0.0000000E+00 -0.3998671E-03
 -0.5049253E-02  0.0000000E+00 -0.5050505E-02 -0.1716738E-07  0.0000000E+00 -0.3999016E-03
 -0.5048636E-02  0.0000000E+00 -0.5050505E-02 -0.1850658E-07  0.0000000E+00 -0.3999389E-03
 -0.5047442E-02  0.0000000E+00 -0.5050505E-02 -0.1978154E-07  0.0000000E+00 -0.3999791E-03
 -0.5045727E-02  0.0000000E+00 -0.5050505E-02 -0.2099074E-07  0.0000000E+00 -0.4000218E-03
 -0.5043261E-02  0.0000000E+00 -0.5050505E-02 -0.2213462E-07  0.0000000E+00 -0.4000670E-03
 -0.5038714E-02  0.0000000E+00 -0.5050505E-02 -0.2321601E-07  0.0000000E+00 -0.4001145E-03
 -0.5032318E-02  0.0000000E+00 -0.5050505E-02 -0.2424047E-07  0.0000000E+00 -0.4001642E-03
 -0.5022454E-02  0.0000000E+00 -0.5050505E-02 -0.2521686E-07  0.0000000E+00 -0.4002160E-03
 -0.5012589E-02  0.0000000E+00 -0.5050505E-02 -0.2615797E-07  0.0000000E+00 -0.4002698E-03
 -0.5002725E-02  0.0000000E+00 -0.5050505E-02 -0.2708148E-07  0.0000000E+00 -0.4003256E-03
 -0.4992860E-02  0.0000000E+00 -0.5050505E-02 -0.2801110E-07  0.0000000E+00 -0.4003833E-03
 -0.4976523E-02  0.0000000E+00 -0.5050505E-02 -0.2897835E-07  0.0000000E+00 -0.4004430E-03
 -0.4956794E-02  0.0000000E+00 -0.5050505E-02 -0.3002488E-07  0.0000000E+00 -0.4005048E-03
 -0.4937066E-02  0.0000000E+00 -0.5050505E-02 -0.3120594E-07  0.0000000E+00 -0.4005690E-03
 -0.4906239E-02  0.0000000E+00 -0.5050505E-02 -0.3259539E-07  0.0000000E+00 -0.4006358E-03
 -0.4866782E-02  0.0000000E+00 -0.5050505E-02 -0.3429321E-07  0.0000000E+00 -0.4007059E-03
 -0.4827325E-02  0.0000000E+00 -0.5050505E-02 -0.3643678E-07  0.0000000E+00 -0.4007800E-03
 -0.4769372E-02  0.0000000E+00 -0.5050505E-02 -0.3921847E-07  0.0000000E+00 -0.4008593E-03
 -0.4690458E-02  0.0000000E+00 -0.5050505E-02 -0.4291355E-07  0.0000000E+00 -0.4009453E-03
 -0.4611543E-02  0.0000000E+00 -0.5050505E-02 -0.4792571E-07  0.0000000E+00 -0.4010405E-03
 -0.4503035E-02  0.0000000E+00 -0.5050505E-02 -0.5486396E-07  0.0000000E+00 -0.4011482E-03
 -0.4345206E-02  0.0000000E+00 -0.5050505E-02 -0.6467686E-07  0.0000000E+00 -0.4012734E-03
 -0.4187378E-02  0.0000000E+00 -0.5050505E-02 -0.7889744E-07  0.0000000E+00 -0.4014239E-03
 -0.3985156E-02  0.0000000E+00 -0.5050505E-02 -0.1001116E-06  0.0000000E+00 -0.4016114E-03
 -0.3669499E-02  0.0000000E+00 -0.5050505E-02 -0.1329060E-06  0.0000000E+00 -0.4018556E-03
 -0.3353842E-02  0.0000000E+00 -0.5050505E-02 -0.1859164E-06  0.0000000E+00 -0.4021897E-03
 -0.2978990E-02  0.0000000E+00 -0.5050505E-02 -0.2765981E-06  0.0000000E+00 -0.4026743E-03
 -0.2347676E-02  0.0000000E+00 -0.5050505E-02 -0.4433250E-06  0.0000000E+00 -0.4034288E-03
 -0.1716362E-02  0.0000000E+00 -0.5050505E-02 -0.7790611E-06  0.0000000E+00 -0.4047098E-03
 -0.1025842E-02  0.0000000E+00 -0.5050505E-02 -0.1534567E-05  0.0000000E+00 -0.4071350E-03
  0.2367855E-03  0.0000000E+00 -0.5050505E-02 -0.3466068E-05  0.0000000E+00 -0.4123781E-03
  0.1499413E-02  0.0000000E+00 -0.5050505E-02 -0.9112641E-05  0.0000000E+00 -0.4255758E-03
  0.5287294E-02  0.0000000E+00 -0.5050505E-02 -0.1497217E-03  0.0000000E+00 -0.3393889E-03
 -0.5050505E-02  0.0000000E+00 -0.5050505E-02  0.1557365E-08  0.0000000E+00 -0.4010145E-03
 -0.5050505E-02  0.0000000E+00 -0.5050505E-02  0.4669168E-08  0.0000000E+00 -0.4010123E-03
 -0.5050505E-02  0.0000000E+00 -0.5050505E-02  0.7771702E-08  0.0000000E+00 -0.4010080E-03
 -0.5050505E-02  0.0000000E+00 -0.5050505E-02  0.1085872E-07  0.0000000E+00 -0.4010014E-03
 -0.5050505E-02  0.0000000E+00 -0.5050505E-02  0.1392401E-07  0.0000000E+00 -0.4009927E-03
 -0.5050505E-02  0.0000000E+00 -0.5050505E-02  0.1696136E-07  0.0000000E+00 -0.4009819E-03
 -0.5050504E-02  0.0000000E+00 -0.5050505E-02  0.1996449E-07  0.0000000E+00 -0.4009689E-03
 -0.5050501E-02  0.0000000E+00 -0.5050505E-02  0.2292712E-07  0.0000000E+00 -0.4009538E-03
 -0.5050495E-02  0.0000000E+00 -0.5050505E-02  0.2584293E-07  0.0000000E+00 -0.4009367E-03
 -0.5050482E-02  0.0000000E+00 -0.5050505E-02  0.2870556E-07  0.0000000E+00 -0.4009175E-03
 -0.5050449E-02  0.0000000E+00 -0.5050505E-02  0.3150861E-07  0.0000000E+00 -0.4008964E-03
 -0.5050376E-02  0.0000000E+00 -0.5050505E-02  0.3424564E-07  0.0000000E+00 -0.4008733E-03
 -0.5050299E-02  0.0000000E+00 -0.5050505E-02  0.3691019E-07  0.0000000E+00 -0.4008483E-03
 -0.5050178E-02  0.0000000E+00 -0.5050505E-02  0.3949572E-07  0.0000000E+00 -0.4008215E-03
 -0.5050018E-02  0.0000000E+00 -0.5050505E-02  0.4199567E-07  0.0000000E+00 -0.4007928E-03
 -0.5049710E-02  0.0000000E+00 -0.5050505E-02  0.4440344E-07  0.0000000E+00 -0.4007625E-03
 -0.5049253E-02  0.0000000E+00 -0.5050505E-02  0.4671239E-07  0.0000000E+00 -0.4007305E-03
 -0.5048636E-02  0.0000000E+00 -0.5050505E-02  0.4891585E-07  0.0000000E+00 -0.4006969E-03
 -0.5047442E-02  0.0000000E+00 -0.5050505E-02  0.5100710E-07  0.0000000E+00 -0.4006618E-03
 -0.5045727E-02  0.0000000E+00 -0.5050505E-02  0.5297943E-07  0.0000000E+00 -0.4006252E-03
 -0.5043261E-02  0.0000000E+00 -0.5050505E-02  0.5482610E-07  0.0000000E+00 -0.4005873E-03
 -0.5038714E-02  0.0000000E+00 -0.5050505E-02  0.5654034E-07  0.0000000E+00 -0.4005482E-03
 -0.5032318E-02  0.0000000E+00 -0.5050505E-02  0.5811541E-07  0.0000000E+00 -0.4005079E-03
 -0.5022454E-02  0.0000000E+00 -0.5050505E-02  0.5954458E-07  0.0000000E+00 -0.4004666E-03
 -0.5012589E-02  0.0000000E+00 -0.5050505E-02  0.6082114E-07  0.0000000E+00 -0.4004243E-03
 -0.5002725E-02  0.0000000E+00 -0.5050505E-02  0.6193843E-07  0.0000000E+00 -0.4003811E-03
 -0.4992860E-02  0.0000000E+00 -0.5050505E-02  0.6288983E-07  0.0000000E+00 -0.4003372E-03
 -0.4976523E-02  0.0000000E+00 -0.5050505E-02  0.6366884E-07  0.0000000E+00 -0.4002927E-03
 -0.4956794E-02  0.0000000E+00 -0.5050505E-02  0.6426901E-07  0.0000000E+00 -0.4002477E-03
 -0.4937066E-02  0.0000000E+00 -0.5050505E-02  0.6468406E-07  0.0000000E+00 -0.4002024E-03
 -0.4906239E-02  0.0000000E+00 -0.5050505E-02  0.6490784E-07  0.0000000E+00 -0.4001568E-03
 -0.4866782E-02  0.0000000E+00 -0.5050505E-02  0.6493441E-07  0.0000000E+00 -0.4001112E-03
 -0.4827325E-02  0.0000000E+00 -0.5050505E-02  0.6475805E-07  0.0000000E+00 -0.4000656E-03
 -0.4769372E-02  0.0000000E+00 -0.5050505E-02  0.6437331E-07  0.0000000E+00 -0.4000201E-03
 -0.4690458E-02  0.0000000E+00 -0.5050505E-02  0.6377506E-07  0.0000000E+00 -0.3999751E-03
 -0.4611543E-02  0.0000000E+00 -0.5050505E-02  0.6295856E-07  0.0000000E+00 -0.3999305E-03
 -0.4503035E-02  0.0000000E+00 -0.5050505E-02  0.6191949E-07  0.0000000E+00 -0.3998865E-03
 -0.4345206E-02  0.0000000E+00 -0.5050505E-02  0.6065406E-07  0.0000000E+00 -0.3998434E-03
 -0.4187378E-02  0.0000000E+00 -0.5050505E-02  0.5915906E-07  0.0000000E+00 -0.3998012E-03
 -0.3985156E-02  0.0000000E+00 -0.5050505E-02  0.5743197E-07  0.0000000E+00 -0.3997602E-03
 -0.3669499E-02  0.0000000E+00 -0.5050505E-02  0.5547102E-07  0.0000000E+00 -0.3997204E-03
 -0.3353842E-02  0.0000000E+00 -0.5050505E-02  0.5327534E-07  0.0000000E+00 -0.3996821E-03
 -0.2978990E-02  0.0000000E+00 -0.5050505E-02  0.5084504E-07  0.0000000E+00 -0.3996454E-03
 -0.2347676E-02  0.0000000E+00 -0.5050505E-02  0.4818132E-07  0.0000000E+00 -0.3996105E-03
 -0.1716362E-02  0.0000000E+00 -0.5050505E-02  0.4528663E-07  0.0000000E+00 -0.3995776E-03
 -0.1025842E-02  0.0000000E+00 -0.5050505E-02  0.4216476E-07  0.0000000E+00 -0.3995468E-03
  0.2367855E-03  0.0000000E+00 -0.5050505E-02  0.3882095E-07  0.0000000E+00 -0.3995182E-03
  0.1499413E-02  0.0000000E+00 -0.5050505E-02  0.3526207E-07  0.0000000E+00 -0.3994921E-03
  0.2762042E-02  0.0000000E+00 -0.5050505E-02  0.3149665E-07  0.0000000E+00 -0.3994685E-03
 -0.5050505E-02  0.0000000E+00 -0.5050505E-02  0.2753503E-07  0.0000000E+00 -0.3994476E-03
 -0.5050505E-02  0.0000000E+00 -0.5050505E-02  0.2338942E-07  0.0000000E+00 -0.3994296E-03
 -0.5050505E-02  0.0000000E+00 -0.5050505E-02  0.1907393E-07  0.0000000E+00 -0.3994146E-03
 -0.5050505E-02  0.0000000E+00 -0.5050505E-02  0.1460461E-07  0.0000000E+00 -0.3994027E-03
 -0.5050505E-02  0.0000000E+00 -0.5050505E-02  0.9999416E-08  0.0000000E+00 -0.3993939E-03
 -0.5050505E-02  0.0000000E+00 -0.5050505E-02  0.5278162E-08  0.0000000E+00 -0.3993885E-03
 -0.5050505E-02  0.0000000E+00 -0.5050505E-02  0.4623850E-09  0.0000000E+00 -0.3993863E-03
 -0.5050504E-02  0.0000000E+00 -0.5050505E-02 -0.4424807E-08  0.0000000E+00 -0.3993877E-03
 -0.5050501E-02  0.0000000E+00 -0.5050505E-02 -0.9358957E-08  0.0000000E+00 -0.3993924E-03
 -0.5050495E-02  0.0000000E+00 -0.5050505E-02 -0.1431454E-07  0.0000000E+00 -0.3994007E-03
 -0.5050482E-02  0.0000000E+00 -0.5050505E-02 -0.1926531E-07  0.0000000E+00 -0.3994124E-03
 -0.5050449E-02  0.0000000E+00 -0.5050505E-02 -0.2418467E-07  0.0000000E+00 -0.3994276E-03
 -0.5050376E-02  0.0000000E+00 -0.5050505E-02 -0.2904610E-07  0.0000000E+00 -0.3994463E-03
 -0.5050299E-02  0.0000000E+00 -0.5050505E-02 -0.3382370E-07  0.0000000E+00 -0.3994683E-03
 -0.5050178E-02  0.0000000E+00 -0.5050505E-02 -0.3849266E-07  0.0000000E+00 -0.3994937E-03
 -0.5050018E-02  0.0000000E+00 -0.5050505E-02 -0.4302983E-07  0.0000000E+00 -0.3995223E-03
 -0.5049710E-02  0.0000000E+00 -0.5050505E-02 -0.4741439E-07  0.0000000E+00 -0.3995541E-03
 -0.5049253E-02  0.0000000E+00 -0.5050505E-02 -0.5162838E-07  0.0000000E+00 -0.3995889E-03
 -0.5048636E-02  0.0000000E+00 -0.5050505E-02 -0.5565745E-07  0.0000000E+00 -0.3996265E-03
 -0.5047442E-02  0.0000000E+00 -0.5050505E-02 -0.5949154E-07  0.0000000E+00 -0.3996670E-03
 -0.5045727E-02  0.0000000E+00 -0.5050505E-02 -0.6312570E-07  0.0000000E+00 -0.3997101E-03
 -0.5043261E-02  0.0000000E+00 -0.5050505E-02 -0.6656091E-07  0.0000000E+00 -0.3997556E-03
 -0.5038714E-02  0.0000000E+00 -0.5050505E-02 -0.6980514E-07  0.0000000E+00 -0.3998035E-03
 -0.5032318E-02  0.0000000E+00 -0.5050505E-02 -0.7287454E-07  0.0000000E+00 -0.3998536E-03
 -0.5022454E-02  0.0000000E+00 -0.5050505E-02 -0.7579497E-07  0.0000000E+00 -0.3999058E-03
 -0.5012589E-02  0.0000000E+00 -0.5050505E-02 -0.7860397E-07  0.0000000E+00 -0.3999599E-03
 -0.5002725E-02  0.0000000E+00 -0.5050505E-02 -0.8135330E-07  0.0000000E+00 -0.4000160E-03
 -0.4992860E-02  0.0000000E+00 -0.5050505E-02 -0.8411250E-07  0.0000000E+00 -0.4000740E-03
 -0.4976523E-02  0.0000000E+00 -0.5050505E-02 -0.8697373E-07  0.0000000E+00 -0.4001338E-03
 -0.4956794E-02  0.0000000E+00 -0.5050505E-02 -0.9005863E-07  0.0000000E+00 -0.4001957E-03
 -0.4937066E-02  0.0000000E+00 -0.5050505E-02 -0.9352807E-07  0.0000000E+00 -0.4002598E-03
 -0.4906239E-02  0.0000000E+00 -0.5050505E-02 -0.9759645E-07  0.0000000E+00 -0.4003265E-03
 -0.4866782E-02  0.0000000E+00 -0.5050505E-02 -0.1025527E-06  0.0000000E+00 -0.4003961E-03
 -0.4827325E-02  0.0000000E+00 -0.5050505E-02 -0.1087920E-06  0.0000000E+00 -0.4004694E-03
 -0.4769372E-02  0.0000000E+00 -0.5050505E-02 -0.1168646E-06  0.0000000E+00 -0.4005473E-03
 -0.4690458E-02  0.0000000E+00 -0.5050505E-02 -0.1275522E-06  0.0000000E+00 -0.4006314E-03
 -0.4611543E-02  0.0000000E+00 -0.5050505E-02 -0.1419920E-06  0.0000000E+00 -0.4007235E-03
 -0.4503035E-02  0.0000000E+00 -0.5050505E-02 -0.1618818E-06  0.0000000E+00 -0.4008266E-03
 -0.4345206E-02  0.0000000E+00 -0.5050505E-02 -0.1898317E-06  0.0000000E+00 -0.4009448E-03
 -0.4187378E-02  0.0000000E+00 -0.5050505E-02 -0.2299908E-06  0.0000000E+00 -0.4010839E-03
 -0.3985156E-02  0.0000000E+00 -0.5050505E-02 -0.2892069E-06  0.0000000E+00 -0.4012530E-03
 -0.3669499E-02  0.0000000E+00 -0.5050505E-02 -0.3792762E-06  0.0000000E+00 -0.4014654E-03
 -0.3353842E-02  0.0000000E+00 -0.5050505E-02 -0.5215345E-06  0.0000000E+00 -0.4017415E-03
 -0.2978990E-02  0.0000000E+00 -0.5050505E-02 -0.7567625E-06  0.0000000E+00 -0.4021123E-03
 -0.2347676E-02  0.0000000E+00 -0.5050505E-02 -0.1167858E-05  0.0000000E+00 -0.4026213E-03
 -0.1716362E-02  0.0000000E+00 -0.5050505E-02 -0.1935000E-05  0.0000000E+00 -0.4033128E-03
 -0.1025842E-02  0.0000000E+00 -0.5050505E-02 -0.3478078E-05  0.0000000E+00 -0.4041406E-03
  0.2367855E-03  0.0000000E+00 -0.5050505E-02 -0.6844830E-05  0.0000000E+00 -0.4044890E-03
  0.1499413E-02  0.0000000E+00 -0.5050505E-02 -0.1481522E-04  0.0000000E+00 -0.4008661E-03
  0.5287294E-02  0.0000000E+00 -0.5050505E-02 -0.3512768E-04  0.0000000E+00 -0.3760081E-03
 -0.5050505E-02  0.0000000E+00 -0.5050505E-02  0.2608226E-08  0.0000000E+00 -0.4004369E-03
 -0.5050505E-02  0.0000000E+00 -0.5050505E-02  0.7819720E-08  0.0000000E+00 -0.4004347E-03
 -0.5050505E-02  0.0000000E+00 -0.5050505E-02  0.1301575E-07  0.0000000E+00 -0.4004303E-03
 -0.5050505E-02  0.0000000E+00 -0.5050505E-02  0.1818589E-07  0.0000000E+00 -0.4004236E-03
 -0.5050505E-02  0.0000000E+00 -0.5050505E-02  0.2331977E-07  0.0000000E+00 -0.4004148E-03
 -0.5050505E-02  0.0000000E+00 -0.5050505E-02  0.2840700E-07  0.0000000E+00 -0.4004038E-03
 -0.5050504E-02  0.0000000E+00 -0.5050505E-02  0.3343713E-07  0.0000000E+00 -0.4003906E-03
 -0.5050501E-02  0.0000000E+00 -0.5050505E-02  0.3839965E-07  0.0000000E+00 -0.4003753E-03
 -0.5050495E-02  0.0000000E+00 -0.5050505E-02  0.4328401E-07  0.0000000E+00 -0.4003579E-03
 -0.5050482E-02  0.0000000E+00 -0.5050505E-02  0.4807960E-07  0.0000000E+00 -0.4003384E-03
 -0.5050449E-02  0.0000000E+00 -0.5050505E-02  0.5277572E-07  0.0000000E+00 -0.4003169E-03
 -0.5050376E-02  0.0000000E+00 -0.5050505E-02  0.5736164E-07  0.0000000E+00 -0.4002934E-03
 -0.5050299E-02  0.0000000E+00 -0.5050505E-02  0.6182653E-07  0.0000000E+00 -0.4002680E-03
 -0.5050178E-02  0.0000000E+00 -0.5050505E-02  0.6615949E-07  0.0000000E+00 -0.4002407E-03
 -0.5050018E-02  0.0000000E+00 -0.5050505E-02  0.7034956E-07  0.0000000E+00 -0.4002116E-03
 -0.5049710E-02  0.0000000E+00 -0.5050505E-02  0.7438569E-07  0.0000000E+00 -0.4001808E-03
 -0.5049253E-02  0.0000000E+00 -0.5050505E-02  0.7825680E-07  0.0000000E+00 -0.4001482E-03
 -0.5048636E-02  0.0000000E+00 -0.5050505E-02  0.8195172E-07  0.0000000E+00 -0.4001141E-03
 -0.5047442E-02  0.0000000E+00 -0.5050505E-02  0.8545925E-07  0.0000000E+00 -0.4000784E-03
 -0.5045727E-02  0.0000000E+00 -0.5050505E-02  0.8876812E-07  0.0000000E+00 -0.4000412E-03
 -0.5043261E-02  0.0000000E+00 -0.5050505E-02  0.9186706E-07  0.0000000E+00 -0.4000027E-03
 -0.5038714E-02  0.0000000E+00 -0.5050505E-02  0.9474477E-07  0.0000000E+00 -0.3999629E-03
 -0.5032318E-02  0.0000000E+00 -0.5050505E-02  0.9738996E-07  0.0000000E+00 -0.3999219E-03
 -0.5022454E-02  0.0000000E+00 -0.5050505E-02  0.9979134E-07  0.0000000E+00 -0.3998798E-03
 -0.5012589E-02  0.0000000E+00 -0.5050505E-02  0.1019377E-06  0.0000000E+00 -0.3998367E-03
 -0.5002725E-02  0.0000000E+00 -0.5050505E-02  0.1038178E-06  0.0000000E+00 -0.3997928E-03
 -0.4992860E-02  0.0000000E+00 -0.5050505E-02  0.1054207E-06  0.0000000E+00 -0.3997481E-03
 -0.4976523E-02  0.0000000E+00 -0.5050505E-02  0.1067353E-06  0.0000000E+00 -0.3997028E-03
 -0.4956794E-02  0.0000000E+00 -0.5050505E-02  0.1077509E-06  0.0000000E+00 -0.3996569E-03
 -0.4937066E-02  0.0000000E+00 -0.5050505E-02  0.1084569E-06  0.0000000E+00 -0.3996107E-03
 -0.4906239E-02  0.0000000E+00 -0.5050505E-02  0.1088430E-06  0.0000000E+00 -0.3995643E-03
 -0.4866782E-02  0.0000000E+00 -0.5050505E-02  0.1088991E-06  0.0000000E+00 -0.3995177E-03
 -0.4827325E-02  0.0000000E+00 -0.5050505E-02  0.1086157E-06  0.0000000E+00 -0.3994712E-03
 -0.4769372E-02  0.0000000E+00 -0.5050505E-02  0.1079835E-06  0.0000000E+00 -0.3994248E-03
 -0.4690458E-02  0.0000000E+00 -0.5050505E-02  0.1069938E-06  0.0000000E+00 -0.3993788E-03
 -0.4611543E-02  0.0000000E+00 -0.5050505E-02  0.1056387E-06  0.0000000E+00 -0.3993333E-03
 -0.4503035E-02  0.0000000E+00 -0.5050505E-02  0.1039107E-06  0.0000000E+00 -0.3992884E-03
 -0.4345206E-02  0.0000000E+00 -0.5050505E-02  0.1018035E-06  0.0000000E+00 -0.3992443E-03
 -0.4187378E-02  0.0000000E+00 -0.5050505E-02  0.9931139E-07  0.0000000E+00 -0.3992012E-03
 -0.3985156E-02  0.0000000E+00 -0.5050505E-02  0.9643011E-07  0.0000000E+00 -0.3991592E-03
 -0.3669499E-02  0.0000000E+00 -0.5050505E-02  0.9315652E-07  0.0000000E+00 -0.3991185E-03
 -0.3353842E-02  0.0000000E+00 -0.5050505E-02  0.8948897E-07  0.0000000E+00 -0.3990792E-03
 -0.2978990E-02  0.0000000E+00 -0.5050505E-02  0.8542745E-07  0.0000000E+00 -0.3990416E-03
 -0.2347676E-02  0.0000000E+00 -0.5050505E-02  0.8097380E-07  0.0000000E+00 -0.3990059E-03
 -0.1716362E-02  0.0000000E+00 -0.5050505E-02  0.7613190E-07  0.0000000E+00 -0.3989720E-03
 -0.1025842E-02  0.0000000E+00 -0.5050505E-02  0.7090789E-07  0.0000000E+00 -0.3989404E-03
  0.2367855E-03  0.0000000E+00 -0.5050505E-02  0.6531038E-07  0.0000000E+00 -0.3989110E-03
  0.1499413E-02  0.0000000E+00 -0.5050505E-02  0.5935065E-07  0.0000000E+00 -0.3988840E-03
  0.2762042E-02  0.0000000E+00 -0.5050505E-02  0.5304286E-07  0.0000000E+00 -0.3988597E-03
 -0.5050505E-02  0.0000000E+00 -0.5050505E-02  0.4640416E-07  0.0000000E+00 -0.3988382E-03
 -0.5050505E-02  0.0000000E+00 -0.5050505E-02  0.3945488E-07  0.0000000E+00 -0.3988195E-03
 -0.5050505E-02  0.0000000E+00 -0.5050505E-02  0.3221861E-07  0.0000000E+00 -0.3988039E-03
 -0.5050505E-02  0.0000000E+00 -0.5050505E-02  0.2472219E-07  0.0000000E+00 -0.3987915E-03
 -0.5050505E-02  0.0000000E+00 -0.5050505E-02  0.1699574E-07  0.0000000E+00 -0.3987823E-03
 -0.5050505E-02  0.0000000E+00 -0.5050505E-02  0.9072539E-08  0.0000000E+00 -0.3987764E-03
 -0.5050505E-02  0.0000000E+00 -0.5050505E-02  0.9888192E-09  0.0000000E+00 -0.3987740E-03
 -0.5050504E-02  0.0000000E+00 -0.5050505E-02 -0.7216476E-08  0.0000000E+00 -0.3987751E-03
 -0.5050501E-02  0.0000000E+00 -0.5050505E-02 -0.1550208E-07  0.0000000E+00 -0.3987797E-03
 -0.5050495E-02  0.0000000E+00 -0.5050505E-02 -0.2382485E-07  0.0000000E+00 -0.3987878E-03
 -0.5050482E-02  0.0000000E+00 -0.5050505E-02 -0.3214037E-07  0.0000000E+00 -0.3987996E-03
 -0.5050449E-02  0.0000000E+00 -0.5050505E-02 -0.4040356E-07  0.0000000E+00 -0.3988149E-03
 -0.5050376E-02  0.0000000E+00 -0.5050505E-02 -0.4856945E-07  0.0000000E+00 -0.3988338E-03
 -0.5050299E-02  0.0000000E+00 -0.5050505E-02 -0.5659396E-07  0.0000000E+00 -0.3988561E-03
 -0.5050178E-02  0.0000000E+00 -0.5050505E-02 -0.6443485E-07  0.0000000E+00 -0.3988818E-03
 -0.5050018E-02  0.0000000E+00 -0.5050505E-02 -0.7205262E-07  0.0000000E+00 -0.3989109E-03
 -0.5049710E-02  0.0000000E+00 -0.5050505E-02 -0.7941156E-07  0.0000000E+00 -0.3989431E-03
 -0.5049253E-02  0.0000000E+00 -0.5050505E-02 -0.8648075E-07  0.0000000E+00 -0.3989785E-03
 -0.5048636E-02  0.0000000E+00 -0.5050505E-02 -0.9323523E-07  0.0000000E+00 -0.3990168E-03
 -0.5047442E-02  0.0000000E+00 -0.5050505E-02 -0.9965716E-07  0.0000000E+00 -0.3990579E-03
 -0.5045727E-02  0.0000000E+00 -0.5050505E-02 -0.1057371E-06  0.0000000E+00 -0.3991017E-03
 -0.5043261E-02  0.0000000E+00 -0.5050505E-02 -0.1114753E-06  0.0000000E+00 -0.3991480E-03
 -0.5038714E-02  0.0000000E+00 -0.5050505E-02 -0.1168837E-06  0.0000000E+00 -0.3991966E-03
 -0.5032318E-02  0.0000000E+00 -0.5050505E-02 -0.1219874E-06  0.0000000E+00 -0.3992474E-03
 -0.5022454E-02  0.0000000E+00 -0.5050505E-02 -0.1268272E-06  0.0000000E+00 -0.3993003E-03
 -0.5012589E-02  0.0000000E+00 -0.5050505E-02 -0.1314628E-06  0.0000000E+00 -0.3993552E-03
 -0.5002725E-02  0.0000000E+00 -0.5050505E-02 -0.1359766E-06  0.0000000E+00 -0.3994119E-03
 -0.4992860E-02  0.0000000E+00 -0.5050505E-02 -0.1404792E-06  0.0000000E+00 -0.3994703E-03
 -0.4976523E-02  0.0000000E+00 -0.5050505E-02 -0.1451167E-06  0.0000000E+00 -0.3995306E-03
 -0.4956794E-02  0.0000000E+00 -0.5050505E-02 -0.1500814E-06  0.0000000E+00 -0.3995927E-03
 -0.4937066E-02  0.0000000E+00 -0.5050505E-02 -0.1556259E-06  0.0000000E+00 -0.3996567E-03
 -0.4906239E-02  0.0000000E+00 -0.5050505E-02 -0.1620848E-06  0.0000000E+00 -0.3997229E-03
 -0.4866782E-02  0.0000000E+00 -0.5050505E-02 -0.1699054E-06  0.0000000E+00 -0.3997917E-03
 -0.4827325E-02  0.0000000E+00 -0.5050505E-02 -0.1796936E-06  0.0000000E+00 -0.3998635E-03
 -0.4769372E-02  0.0000000E+00 -0.5050505E-02 -0.1922837E-06  0.0000000E+00 -0.3999391E-03
 -0.4690458E-02  0.0000000E+00 -0.5050505E-02 -0.2088447E-06  0.0000000E+00 -0.4000195E-03
 -0.4611543E-02  0.0000000E+00 -0.5050505E-02 -0.2310496E-06  0.0000000E+00 -0.4001061E-03
 -0.4503035E-02  0.0000000E+00 -0.5050505E-02 -0.2613459E-06  0.0000000E+00 -0.4002009E-03
 -0.4345206E-02  0.0000000E+00 -0.5050505E-02 -0.3034036E-06  0.0000000E+00 -0.4003064E-03
 -0.4187378E-02  0.0000000E+00 -0.5050505E-02 -0.3628731E-06  0.0000000E+00 -0.4004259E-03
 -0.3985156E-02  0.0000000E+00 -0.5050505E-02 -0.4487039E-06  0.0000000E+00 -0.4005639E-03
 -0.3669499E-02  0.0000000E+00 -0.5050505E-02 -0.5754964E-06  0.0000000E+00 -0.4007251E-03
 -0.3353842E-02  0.0000000E+00 -0.5050505E-02 -0.7677896E-06  0.0000000E+00 -0.4009139E-03
 -0.2978990E-02  0.0000000E+00 -0.5050505E-02 -0.1067963E-05  0.0000000E+00 -0.4011293E-03
 -0.2347676E-02  0.0000000E+00 -0.5050505E-02 -0.1550610E-05  0.0000000E+00 -0.4013509E-03
 -0.1716362E-02  0.0000000E+00 -0.5050505E-02 -0.2346794E-05  0.0000000E+00 -0.4014981E-03
 -0.1025842E-02  0.0000000E+00 -0.5050505E-02 -0.3674267E-05  0.0000000E+00 -0.4013199E-03
  0.2367855E-03  0.0000000E+00 -0.5050505E-02 -0.5816812E-05  0.0000000E+00 -0.4001284E-03
  0.1499413E-02  0.0000000E+00 -0.5050505E-02 -0.8717865E-05  0.0000000E+00 -0.3963644E-03
  0.5287294E-02  0.0000000E+00 -0.5050505E-02 -0.9530737E-05  0.0000000E+00 -0.3883655E-03
 -0.5050505E-02  0.0000000E+00 -0.5050505E-02  0.3678325E-08  0.0000000E+00 -0.3995918E-03
 -0.5050505E-02  0.0000000E+00 -0.5050505E-02  0.1102796E-07  0.0000000E+00 -0.3995895E-03
 -0.5050505E-02  0.0000000E+00 -0.5050505E-02  0.1835590E-07  0.0000000E+00 -0.3995850E-03
 -0.5050505E-02  0.0000000E+00 -0.5050505E-02  0.2564751E-07  0.0000000E+00 -0.3995782E-03
 -0.5050505E-02  0.0000000E+00 -0.5050505E-02  0.3288825E-07  0.0000000E+00 -0.3995692E-03
 -0.5050505E-02  0.0000000E+00 -0.5050505E-02  0.4006353E-07  0.0000000E+00 -0.3995579E-03
 -0.5050504E-02  0.0000000E+00 -0.5050505E-02  0.4715868E-07  0.0000000E+00 -0.3995444E-03
 -0.5050501E-02  0.0000000E+00 -0.5050505E-02  0.5415896E-07  0.0000000E+00 -0.3995287E-03
 -0.5050495E-02  0.0000000E+00 -0.5050505E-02  0.6104954E-07  0.0000000E+00 -0.3995109E-03
 -0.5050482E-02  0.0000000E+00 -0.5050505E-02  0.6781554E-07  0.0000000E+00 -0.3994910E-03
 -0.5050449E-02  0.0000000E+00 -0.5050505E-02  0.7444193E-07  0.0000000E+00 -0.3994690E-03
 -0.5050376E-02  0.0000000E+00 -0.5050505E-02  0.8091363E-07  0.0000000E+00 -0.3994450E-03
 -0.5050299E-02  0.0000000E+00 -0.5050505E-02  0.8721543E-07  0.0000000E+00 -0.3994190E-03
 -0.5050178E-02  0.0000000E+00 -0.5050505E-02  0.9333201E-07  0.0000000E+00 -0.3993910E-03
 -0.5050018E-02  0.0000000E+00 -0.5050505E-02  0.9924797E-07  0.0000000E+00 -0.3993612E-03
 -0.5049710E-02  0.0000000E+00 -0.5050505E-02  0.1049478E-06  0.0000000E+00 -0.3993296E-03
 -0.5049253E-02  0.0000000E+00 -0.5050505E-02  0.1104159E-06  0.0000000E+00 -0.3992963E-03
 -0.5048636E-02  0.0000000E+00 -0.5050505E-02  0.1156365E-06  0.0000000E+00 -0.3992613E-03
 -0.5047442E-02  0.0000000E+00 -0.5050505E-02  0.1205939E-06  0.0000000E+00 -0.3992247E-03
 -0.5045727E-02  0.0000000E+00 -0.5050505E-02  0.1252722E-06  0.0000000E+00 -0.3991866E-03
 -0.5043261E-02  0.0000000E+00 -0.5050505E-02  0.1296556E-06  0.0000000E+00 -0.3991471E-03
 -0.5038714E-02  0.0000000E+00 -0.5050505E-02  0.1337282E-06  0.0000000E+00 -0.3991063E-03
 -0.5032318E-02  0.0000000E+00 -0.5050505E-02  0.1374739E-06  0.0000000E+00 -0.3990642E-03
 -0.5022454E-02  0.0000000E+00 -0.5050505E-02  0.1408770E-06  0.0000000E+00 -0.3990210E-03
 -0.5012589E-02  0.0000000E+00 -0.5050505E-02  0.1439216E-06  0.0000000E+00 -0.3989768E-03
 -0.5002725E-02  0.0000000E+00 -0.5050505E-02  0.1465918E-06  0.0000000E+00 -0.3989317E-03
 -0.4992860E-02  0.0000000E+00 -0.5050505E-02  0.1488721E-06  0.0000000E+00 -0.3988859E-03
 -0.4976523E-02  0.0000000E+00 -0.5050505E-02  0.1507470E-06  0.0000000E+00 -0.3988393E-03
 -0.4956794E-02  0.0000000E+00 -0.5050505E-02  0.1522011E-06  0.0000000E+00 -0.3987922E-03
 -0.4937066E-02  0.0000000E+00 -0.5050505E-02  0.1532196E-06  0.0000000E+00 -0.3987447E-03