title = "dataset feddes"
variables = "x", "y", "z", "vx", "vy", "vz"
zone t = "velocities, solution time =  4.800E+01 days        " i =   99, j =   99, k =    1,  f=point
 -0.5050505E-02  0.0000000E+00 -0.5050505E-02  0.6561076E-07  0.0000000E+00 -0.3414778E-04
 -0.5050505E-02  0.0000000E+00 -0.5050505E-02  0.1970186E-06  0.0000000E+00 -0.3388407E-04
 -0.5050505E-02  0.0000000E+00 -0.5050505E-02  0.3289908E-06  0.0000000E+00 -0.3335591E-04
 -0.5050505E-02  0.0000000E+00 -0.5050505E-02  0.4619138E-06  0.0000000E+00 -0.3256186E-04
 -0.5050505E-02  0.0000000E+00 -0.5050505E-02  0.5961853E-06  0.0000000E+00 -0.3149969E-04
 -0.5050505E-02  0.0000000E+00 -0.5050505E-02  0.7322169E-06  0.0000000E+00 -0.3016639E-04
 -0.5050504E-02  0.0000000E+00 -0.5050505E-02  0.8704388E-06  0.0000000E+00 -0.2855814E-04
 -0.5050501E-02  0.0000000E+00 -0.5050505E-02  0.1011303E-05  0.0000000E+00 -0.2667026E-04
 -0.5050495E-02  0.0000000E+00 -0.5050505E-02  0.1155288E-05  0.0000000E+00 -0.2449719E-04
 -0.5050482E-02  0.0000000E+00 -0.5050505E-02  0.1302903E-05  0.0000000E+00 -0.2203238E-04
 -0.5050449E-02  0.0000000E+00 -0.5050505E-02  0.1454697E-05  0.0000000E+00 -0.1926829E-04
 -0.5050376E-02  0.0000000E+00 -0.5050505E-02  0.1611257E-05  0.0000000E+00 -0.1619628E-04
 -0.5050299E-02  0.0000000E+00 -0.5050505E-02  0.1773222E-05  0.0000000E+00 -0.1280652E-04
 -0.5050178E-02  0.0000000E+00 -0.5050505E-02  0.1941285E-05  0.0000000E+00 -0.9087908E-05
 -0.5050018E-02  0.0000000E+00 -0.5050505E-02  0.2116206E-05  0.0000000E+00 -0.5027957E-05
 -0.5049710E-02  0.0000000E+00 -0.5050505E-02  0.2298814E-05  0.0000000E+00 -0.6100207E-06
 -0.5049253E-02  0.0000000E+00 -0.5050505E-02  0.2490008E-05  0.0000000E+00  0.4188751E-05
 -0.5048636E-02  0.0000000E+00 -0.5050505E-02  0.2690838E-05  0.0000000E+00  0.9387456E-05
 -0.5047442E-02  0.0000000E+00 -0.5050505E-02  0.2902441E-05  0.0000000E+00  0.1500359E-04
 -0.5045727E-02  0.0000000E+00 -0.5050505E-02  0.3126082E-05  0.0000000E+00  0.2106092E-04
 -0.5043261E-02  0.0000000E+00 -0.5050505E-02  0.3363173E-05  0.0000000E+00  0.2758602E-04
 -0.5038714E-02  0.0000000E+00 -0.5050505E-02  0.3615294E-05  0.0000000E+00  0.3460865E-04
 -0.5032318E-02  0.0000000E+00 -0.5050505E-02  0.3884216E-05  0.0000000E+00  0.4216211E-04
 -0.5022454E-02  0.0000000E+00 -0.5050505E-02  0.4171929E-05  0.0000000E+00  0.5028372E-04
 -0.5012589E-02  0.0000000E+00 -0.5050505E-02  0.4480679E-05  0.0000000E+00  0.5901531E-04
 -0.5002725E-02  0.0000000E+00 -0.5050505E-02  0.4813005E-05  0.0000000E+00  0.6840386E-04
 -0.4992860E-02  0.0000000E+00 -0.5050505E-02  0.5171788E-05  0.0000000E+00  0.7850216E-04
 -0.4976523E-02  0.0000000E+00 -0.5050505E-02  0.5560315E-05  0.0000000E+00  0.8936968E-04
 -0.4956794E-02  0.0000000E+00 -0.5050505E-02  0.5982345E-05  0.0000000E+00  0.1010735E-03
 -0.4937066E-02  0.0000000E+00 -0.5050505E-02  0.6442211E-05  0.0000000E+00  0.1136896E-03
 -0.4906239E-02  0.0000000E+00 -0.5050505E-02  0.6944933E-05  0.0000000E+00  0.1273041E-03
 -0.4866782E-02  0.0000000E+00 -0.5050505E-02  0.7496381E-05  0.0000000E+00  0.1420151E-03
 -0.4827325E-02  0.0000000E+00 -0.5050505E-02  0.8103487E-05  0.0000000E+00  0.1579348E-03
 -0.4769372E-02  0.0000000E+00 -0.5050505E-02  0.8774535E-05  0.0000000E+00  0.1751923E-03
 -0.4690458E-02  0.0000000E+00 -0.5050505E-02  0.9519580E-05  0.0000000E+00  0.1939372E-03
 -0.4611543E-02  0.0000000E+00 -0.5050505E-02  0.1035106E-04  0.0000000E+00  0.2143440E-03
 -0.4503035E-02  0.0000000E+00 -0.5050505E-02  0.1128473E-04  0.0000000E+00  0.2366189E-03
 -0.4345206E-02  0.0000000E+00 -0.5050505E-02  0.1234111E-04  0.0000000E+00  0.2610086E-03
 -0.4187378E-02  0.0000000E+00 -0.5050505E-02  0.1354796E-04  0.0000000E+00  0.2878141E-03
 -0.3985156E-02  0.0000000E+00 -0.5050505E-02  0.1494441E-04  0.0000000E+00  0.3174114E-03
 -0.3669499E-02  0.0000000E+00 -0.5050505E-02  0.1658848E-04  0.0000000E+00  0.3502850E-03
 -0.3353842E-02  0.0000000E+00 -0.5050505E-02  0.1857103E-04  0.0000000E+00  0.3870861E-03
 -0.2978990E-02  0.0000000E+00 -0.5050505E-02  0.2104262E-04  0.0000000E+00  0.4287350E-03
 -0.2347676E-02  0.0000000E+00 -0.5050505E-02  0.2426630E-04  0.0000000E+00  0.4766134E-03
 -0.1716362E-02  0.0000000E+00 -0.5050505E-02  0.2872142E-04  0.0000000E+00  0.5329334E-03
 -0.1025842E-02  0.0000000E+00 -0.5050505E-02  0.3529293E-04  0.0000000E+00  0.6014429E-03
  0.2367855E-03  0.0000000E+00 -0.5050505E-02  0.4551235E-04  0.0000000E+00  0.6886517E-03
  0.1499413E-02  0.0000000E+00 -0.5050505E-02  0.6115926E-04  0.0000000E+00  0.8050148E-03
  0.2762042E-02  0.0000000E+00 -0.5050505E-02  0.4030415E-04  0.0000000E+00  0.9169588E-03
 -0.5050505E-02  0.0000000E+00 -0.5050505E-02  0.5025163E-04  0.0000000E+00  0.1018424E-02
 -0.5050505E-02  0.0000000E+00 -0.5050505E-02  0.7129182E-04  0.0000000E+00  0.1156326E-02
 -0.5050505E-02  0.0000000E+00 -0.5050505E-02  0.3546687E-04  0.0000000E+00  0.1278895E-02
 -0.5050505E-02  0.0000000E+00 -0.5050505E-02  0.5512823E-04  0.0000000E+00  0.1384851E-02
 -0.5050505E-02  0.0000000E+00 -0.5050505E-02  0.8301192E-04  0.0000000E+00  0.1548491E-02
 -0.5050505E-02  0.0000000E+00 -0.5050505E-02  0.1068704E-03  0.0000000E+00  0.1777703E-02
 -0.5050505E-02  0.0000000E+00 -0.5050505E-02  0.1392046E-03  0.0000000E+00  0.2082823E-02
 -0.5050504E-02  0.0000000E+00 -0.5050505E-02 -0.2027569E-03  0.0000000E+00  0.2007346E-02
 -0.5050501E-02  0.0000000E+00 -0.5050505E-02 -0.1112046E-03  0.0000000E+00  0.1623887E-02
 -0.5050495E-02  0.0000000E+00 -0.5050505E-02 -0.7713819E-04  0.0000000E+00  0.1400289E-02
 -0.5050482E-02  0.0000000E+00 -0.5050505E-02 -0.5891155E-04  0.0000000E+00  0.1241852E-02
 -0.5050449E-02  0.0000000E+00 -0.5050505E-02 -0.4805029E-04  0.0000000E+00  0.1119113E-02
 -0.5050376E-02  0.0000000E+00 -0.5050505E-02 -0.4141340E-04  0.0000000E+00  0.1017693E-02
 -0.5050299E-02  0.0000000E+00 -0.5050505E-02 -0.3596987E-04  0.0000000E+00  0.9308670E-03
 -0.5050178E-02  0.0000000E+00 -0.5050505E-02 -0.3184239E-04  0.0000000E+00  0.8554607E-03
 -0.5050018E-02  0.0000000E+00 -0.5050505E-02 -0.2869428E-04  0.0000000E+00  0.7886792E-03
 -0.5049710E-02  0.0000000E+00 -0.5050505E-02 -0.2614655E-04  0.0000000E+00  0.7286134E-03
 -0.5049253E-02  0.0000000E+00 -0.5050505E-02 -0.2395255E-04  0.0000000E+00  0.6740973E-03
 -0.5048636E-02  0.0000000E+00 -0.5050505E-02 -0.2198125E-04  0.0000000E+00  0.6244099E-03
 -0.5047442E-02  0.0000000E+00 -0.5050505E-02 -0.2017344E-04  0.0000000E+00  0.5790573E-03
 -0.5045727E-02  0.0000000E+00 -0.5050505E-02 -0.1850698E-04  0.0000000E+00  0.5376488E-03
 -0.5043261E-02  0.0000000E+00 -0.5050505E-02 -0.1697488E-04  0.0000000E+00  0.4998367E-03
 -0.5038714E-02  0.0000000E+00 -0.5050505E-02 -0.1557362E-04  0.0000000E+00  0.4652944E-03
 -0.5032318E-02  0.0000000E+00 -0.5050505E-02 -0.1429829E-04  0.0000000E+00  0.4337131E-03
 -0.5022454E-02  0.0000000E+00 -0.5050505E-02 -0.1314131E-04  0.0000000E+00  0.4048043E-03
 -0.5012589E-02  0.0000000E+00 -0.5050505E-02 -0.1209297E-04  0.0000000E+00  0.3783038E-03
 -0.5002725E-02  0.0000000E+00 -0.5050505E-02 -0.1114239E-04  0.0000000E+00  0.3539743E-03
 -0.4992860E-02  0.0000000E+00 -0.5050505E-02 -0.1027842E-04  0.0000000E+00  0.3316054E-03
 -0.4976523E-02  0.0000000E+00 -0.5050505E-02 -0.9490340E-05  0.0000000E+00  0.3110131E-03
 -0.4956794E-02  0.0000000E+00 -0.5050505E-02 -0.8768234E-05  0.0000000E+00  0.2920375E-03
 -0.4937066E-02  0.0000000E+00 -0.5050505E-02 -0.8103207E-05  0.0000000E+00  0.2745408E-03
 -0.4906239E-02  0.0000000E+00 -0.5050505E-02 -0.7487419E-05  0.0000000E+00  0.2584039E-03
 -0.4866782E-02  0.0000000E+00 -0.5050505E-02 -0.6914044E-05  0.0000000E+00  0.2435248E-03
 -0.4827325E-02  0.0000000E+00 -0.5050505E-02 -0.6377178E-05  0.0000000E+00  0.2298156E-03
 -0.4769372E-02  0.0000000E+00 -0.5050505E-02 -0.5871724E-05  0.0000000E+00  0.2172008E-03
 -0.4690458E-02  0.0000000E+00 -0.5050505E-02 -0.5393274E-05  0.0000000E+00  0.2056157E-03
 -0.4611543E-02  0.0000000E+00 -0.5050505E-02 -0.4937988E-05  0.0000000E+00  0.1950045E-03
 -0.4503035E-02  0.0000000E+00 -0.5050505E-02 -0.4502477E-05  0.0000000E+00  0.1853197E-03
 -0.4345206E-02  0.0000000E+00 -0.5050505E-02 -0.4083673E-05  0.0000000E+00  0.1765207E-03
 -0.4187378E-02  0.0000000E+00 -0.5050505E-02 -0.3678677E-05  0.0000000E+00  0.1685737E-03
 -0.3985156E-02  0.0000000E+00 -0.5050505E-02 -0.3284544E-05  0.0000000E+00  0.1614510E-03
 -0.3669499E-02  0.0000000E+00 -0.5050505E-02 -0.2897918E-05  0.0000000E+00  0.1551318E-03
 -0.3353842E-02  0.0000000E+00 -0.5050505E-02 -0.2514313E-05  0.0000000E+00  0.1496035E-03
 -0.2978990E-02  0.0000000E+00 -0.5050505E-02 -0.2126504E-05  0.0000000E+00  0.1448660E-03
 -0.2347676E-02  0.0000000E+00 -0.5050505E-02 -0.1720524E-05  0.0000000E+00  0.1409406E-03
 -0.1716362E-02  0.0000000E+00 -0.5050505E-02 -0.1264619E-05  0.0000000E+00  0.1378959E-03
 -0.1025842E-02  0.0000000E+00 -0.5050505E-02 -0.6756904E-06  0.0000000E+00  0.1359173E-03
  0.2367855E-03  0.0000000E+00 -0.5050505E-02  0.2927053E-06  0.0000000E+00  0.1355268E-03
  0.1499413E-02  0.0000000E+00 -0.5050505E-02  0.2457307E-05  0.0000000E+00  0.1383309E-03
  0.5287294E-02  0.0000000E+00 -0.5050505E-02  0.4825996E-04  0.0000000E+00  0.1099627E-03
 -0.5050505E-02  0.0000000E+00 -0.5050505E-02  0.1965327E-06  0.0000000E+00 -0.3406117E-04
 -0.5050505E-02  0.0000000E+00 -0.5050505E-02  0.5901576E-06  0.0000000E+00 -0.3379790E-04
 -0.5050505E-02  0.0000000E+00 -0.5050505E-02  0.9854749E-06  0.0000000E+00 -0.3327066E-04
 -0.5050505E-02  0.0000000E+00 -0.5050505E-02  0.1383641E-05  0.0000000E+00 -0.3247800E-04
 -0.5050505E-02  0.0000000E+00 -0.5050505E-02  0.1785845E-05  0.0000000E+00 -0.3141772E-04
 -0.5050505E-02  0.0000000E+00 -0.5050505E-02  0.2193319E-05  0.0000000E+00 -0.3008685E-04
 -0.5050504E-02  0.0000000E+00 -0.5050505E-02  0.2607348E-05  0.0000000E+00 -0.2848158E-04
 -0.5050501E-02  0.0000000E+00 -0.5050505E-02  0.3029284E-05  0.0000000E+00 -0.2659729E-04
 -0.5050495E-02  0.0000000E+00 -0.5050505E-02  0.3460558E-05  0.0000000E+00 -0.2442844E-04
 -0.5050482E-02  0.0000000E+00 -0.5050505E-02  0.3902696E-05  0.0000000E+00 -0.2196857E-04
 -0.5050449E-02  0.0000000E+00 -0.5050505E-02  0.4357332E-05  0.0000000E+00 -0.1921019E-04
 -0.5050376E-02  0.0000000E+00 -0.5050505E-02  0.4826229E-05  0.0000000E+00 -0.1614474E-04
 -0.5050299E-02  0.0000000E+00 -0.5050505E-02  0.5311294E-05  0.0000000E+00 -0.1276247E-04
 -0.5050178E-02  0.0000000E+00 -0.5050505E-02  0.5814604E-05  0.0000000E+00 -0.9052381E-05
 -0.5050018E-02  0.0000000E+00 -0.5050505E-02  0.6338424E-05  0.0000000E+00 -0.5002101E-05
 -0.5049710E-02  0.0000000E+00 -0.5050505E-02  0.6885239E-05  0.0000000E+00 -0.5950975E-06
 -0.5049253E-02  0.0000000E+00 -0.5050505E-02  0.7457733E-05  0.0000000E+00  0.4191286E-05
 -0.5048636E-02  0.0000000E+00 -0.5050505E-02  0.8059042E-05  0.0000000E+00  0.9375942E-05
 -0.5047442E-02  0.0000000E+00 -0.5050505E-02  0.8692566E-05  0.0000000E+00  0.1497619E-04
 -0.5045727E-02  0.0000000E+00 -0.5050505E-02  0.9362086E-05  0.0000000E+00  0.2101556E-04
 -0.5043261E-02  0.0000000E+00 -0.5050505E-02  0.1007182E-04  0.0000000E+00  0.2752037E-04
 -0.5038714E-02  0.0000000E+00 -0.5050505E-02  0.1082649E-04  0.0000000E+00  0.3452004E-04
 -0.5032318E-02  0.0000000E+00 -0.5050505E-02  0.1163138E-04  0.0000000E+00  0.4204755E-04
 -0.5022454E-02  0.0000000E+00 -0.5050505E-02  0.1249243E-04  0.0000000E+00  0.5013977E-04
 -0.5012589E-02  0.0000000E+00 -0.5050505E-02  0.1341636E-04  0.0000000E+00  0.5883808E-04
 -0.5002725E-02  0.0000000E+00 -0.5050505E-02  0.1441073E-04  0.0000000E+00  0.6818885E-04
 -0.4992860E-02  0.0000000E+00 -0.5050505E-02  0.1548415E-04  0.0000000E+00  0.7824423E-04
 -0.4976523E-02  0.0000000E+00 -0.5050505E-02  0.1664640E-04  0.0000000E+00  0.8906288E-04
 -0.4956794E-02  0.0000000E+00 -0.5050505E-02  0.1790868E-04  0.0000000E+00  0.1007109E-03
 -0.4937066E-02  0.0000000E+00 -0.5050505E-02  0.1928390E-04  0.0000000E+00  0.1132631E-03
 -0.4906239E-02  0.0000000E+00 -0.5050505E-02  0.2078696E-04  0.0000000E+00  0.1268042E-03
 -0.4866782E-02  0.0000000E+00 -0.5050505E-02  0.2243530E-04  0.0000000E+00  0.1414304E-03
 -0.4827325E-02  0.0000000E+00 -0.5050505E-02  0.2424945E-04  0.0000000E+00  0.1572516E-03
 -0.4769372E-02  0.0000000E+00 -0.5050505E-02  0.2625388E-04  0.0000000E+00  0.1743940E-03
 -0.4690458E-02  0.0000000E+00 -0.5050505E-02  0.2847821E-04  0.0000000E+00  0.1930030E-03
 -0.4611543E-02  0.0000000E+00 -0.5050505E-02  0.3095891E-04  0.0000000E+00  0.2132475E-03
 -0.4503035E-02  0.0000000E+00 -0.5050505E-02  0.3374186E-04  0.0000000E+00  0.2353257E-03
 -0.4345206E-02  0.0000000E+00 -0.5050505E-02  0.3688645E-04  0.0000000E+00  0.2594725E-03
 -0.4187378E-02  0.0000000E+00 -0.5050505E-02  0.4047206E-04  0.0000000E+00  0.2859704E-03
 -0.3985156E-02  0.0000000E+00 -0.5050505E-02  0.4460919E-04  0.0000000E+00  0.3151650E-03
 -0.3669499E-02  0.0000000E+00 -0.5050505E-02  0.4945908E-04  0.0000000E+00  0.3474894E-03
 -0.3353842E-02  0.0000000E+00 -0.5050505E-02  0.5526970E-04  0.0000000E+00  0.3835022E-03
 -0.2978990E-02  0.0000000E+00 -0.5050505E-02  0.6244458E-04  0.0000000E+00  0.4239516E-03
 -0.2347676E-02  0.0000000E+00 -0.5050505E-02  0.7167950E-04  0.0000000E+00  0.4698909E-03
 -0.1716362E-02  0.0000000E+00 -0.5050505E-02  0.8424495E-04  0.0000000E+00  0.5229104E-03
 -0.1025842E-02  0.0000000E+00 -0.5050505E-02  0.1025966E-03  0.0000000E+00  0.5857066E-03
  0.2367855E-03  0.0000000E+00 -0.5050505E-02  0.1317637E-03  0.0000000E+00  0.6638964E-03
  0.1499413E-02  0.0000000E+00 -0.5050505E-02  0.1827122E-03  0.0000000E+00  0.7734074E-03
  0.2762042E-02  0.0000000E+00 -0.5050505E-02  0.1274885E-03  0.0000000E+00  0.8911133E-03
 -0.5050505E-02  0.0000000E+00 -0.5050505E-02  0.1408485E-03  0.0000000E+00  0.9887315E-03
 -0.5050505E-02  0.0000000E+00 -0.5050505E-02  0.1681190E-03  0.0000000E+00  0.1063602E-02
 -0.5050505E-02  0.0000000E+00 -0.5050505E-02  0.1531092E-03  0.0000000E+00  0.1187610E-02
 -0.5050505E-02  0.0000000E+00 -0.5050505E-02  0.1579594E-03  0.0000000E+00  0.1338779E-02
 -0.5050505E-02  0.0000000E+00 -0.5050505E-02  0.2167310E-03  0.0000000E+00  0.1456315E-02
 -0.5050505E-02  0.0000000E+00 -0.5050505E-02  0.2951247E-03  0.0000000E+00  0.1616233E-02
 -0.5050505E-02  0.0000000E+00 -0.5050505E-02  0.2669650E-03  0.0000000E+00  0.1703902E-02
 -0.5050504E-02  0.0000000E+00 -0.5050505E-02 -0.4528476E-03  0.0000000E+00  0.1634113E-02
 -0.5050501E-02  0.0000000E+00 -0.5050505E-02 -0.2854552E-03  0.0000000E+00  0.1499852E-02
 -0.5050495E-02  0.0000000E+00 -0.5050505E-02 -0.2177017E-03  0.0000000E+00  0.1349507E-02
 -0.5050482E-02  0.0000000E+00 -0.5050505E-02 -0.1701086E-03  0.0000000E+00  0.1214218E-02
 -0.5050449E-02  0.0000000E+00 -0.5050505E-02 -0.1402243E-03  0.0000000E+00  0.1103019E-02
 -0.5050376E-02  0.0000000E+00 -0.5050505E-02 -0.1230241E-03  0.0000000E+00  0.1006970E-02
 -0.5050299E-02  0.0000000E+00 -0.5050505E-02 -0.1066060E-03  0.0000000E+00  0.9226085E-03
 -0.5050178E-02  0.0000000E+00 -0.5050505E-02 -0.9454542E-04  0.0000000E+00  0.8494541E-03
 -0.5050018E-02  0.0000000E+00 -0.5050505E-02 -0.8546318E-04  0.0000000E+00  0.7842098E-03
 -0.5049710E-02  0.0000000E+00 -0.5050505E-02 -0.7806161E-04  0.0000000E+00  0.7250564E-03
 -0.5049253E-02  0.0000000E+00 -0.5050505E-02 -0.7161321E-04  0.0000000E+00  0.6710757E-03
 -0.5048636E-02  0.0000000E+00 -0.5050505E-02 -0.6576392E-04  0.0000000E+00  0.6217343E-03
 -0.5047442E-02  0.0000000E+00 -0.5050505E-02 -0.6036806E-04  0.0000000E+00  0.5766473E-03
 -0.5045727E-02  0.0000000E+00 -0.5050505E-02 -0.5537998E-04  0.0000000E+00  0.5354763E-03
 -0.5043261E-02  0.0000000E+00 -0.5050505E-02 -0.5079012E-04  0.0000000E+00  0.4978922E-03
 -0.5038714E-02  0.0000000E+00 -0.5050505E-02 -0.4659307E-04  0.0000000E+00  0.4635709E-03
 -0.5032318E-02  0.0000000E+00 -0.5050505E-02 -0.4277554E-04  0.0000000E+00  0.4321994E-03
 -0.5022454E-02  0.0000000E+00 -0.5050505E-02 -0.3931466E-04  0.0000000E+00  0.4034846E-03
 -0.5012589E-02  0.0000000E+00 -0.5050505E-02 -0.3618053E-04  0.0000000E+00  0.3771590E-03
 -0.5002725E-02  0.0000000E+00 -0.5050505E-02 -0.3333974E-04  0.0000000E+00  0.3529839E-03
 -0.4992860E-02  0.0000000E+00 -0.5050505E-02 -0.3075828E-04  0.0000000E+00  0.3307492E-03
 -0.4976523E-02  0.0000000E+00 -0.5050505E-02 -0.2840361E-04  0.0000000E+00  0.3102720E-03
 -0.4956794E-02  0.0000000E+00 -0.5050505E-02 -0.2624585E-04  0.0000000E+00  0.2913945E-03
 -0.4937066E-02  0.0000000E+00 -0.5050505E-02 -0.2425829E-04  0.0000000E+00  0.2739806E-03
 -0.4906239E-02  0.0000000E+00 -0.5050505E-02 -0.2241745E-04  0.0000000E+00  0.2579135E-03
 -0.4866782E-02  0.0000000E+00 -0.5050505E-02 -0.2070296E-04  0.0000000E+00  0.2430930E-03
 -0.4827325E-02  0.0000000E+00 -0.5050505E-02 -0.1909723E-04  0.0000000E+00  0.2294329E-03
 -0.4769372E-02  0.0000000E+00 -0.5050505E-02 -0.1758508E-04  0.0000000E+00  0.2168592E-03
 -0.4690458E-02  0.0000000E+00 -0.5050505E-02 -0.1615342E-04  0.0000000E+00  0.2053083E-03
 -0.4611543E-02  0.0000000E+00 -0.5050505E-02 -0.1479084E-04  0.0000000E+00  0.1947255E-03
 -0.4503035E-02  0.0000000E+00 -0.5050505E-02 -0.1348730E-04  0.0000000E+00  0.1850639E-03
 -0.4345206E-02  0.0000000E+00 -0.5050505E-02 -0.1223376E-04  0.0000000E+00  0.1762836E-03
 -0.4187378E-02  0.0000000E+00 -0.5050505E-02 -0.1102172E-04  0.0000000E+00  0.1683505E-03
 -0.3985156E-02  0.0000000E+00 -0.5050505E-02 -0.9842717E-05  0.0000000E+00  0.1612366E-03
 -0.3669499E-02  0.0000000E+00 -0.5050505E-02 -0.8687382E-05  0.0000000E+00  0.1549196E-03
 -0.3353842E-02  0.0000000E+00 -0.5050505E-02 -0.7543832E-05  0.0000000E+00  0.1493831E-03
 -0.2978990E-02  0.0000000E+00 -0.5050505E-02 -0.6394319E-05  0.0000000E+00  0.1446173E-03
 -0.2347676E-02  0.0000000E+00 -0.5050505E-02 -0.5207755E-05  0.0000000E+00  0.1406193E-03
 -0.1716362E-02  0.0000000E+00 -0.5050505E-02 -0.3921782E-05  0.0000000E+00  0.1373886E-03
 -0.1025842E-02  0.0000000E+00 -0.5050505E-02 -0.2396890E-05  0.0000000E+00  0.1348971E-03
  0.2367855E-03  0.0000000E+00 -0.5050505E-02 -0.2925658E-06  0.0000000E+00  0.1329350E-03
  0.1499413E-02  0.0000000E+00 -0.5050505E-02  0.3281548E-05  0.0000000E+00  0.1303844E-03
  0.5287294E-02  0.0000000E+00 -0.5050505E-02  0.1077192E-04  0.0000000E+00  0.1218207E-03
 -0.5050505E-02  0.0000000E+00 -0.5050505E-02  0.3267477E-06  0.0000000E+00 -0.3388880E-04
 -0.5050505E-02  0.0000000E+00 -0.5050505E-02  0.9811744E-06  0.0000000E+00 -0.3362643E-04
 -0.5050505E-02  0.0000000E+00 -0.5050505E-02  0.1638414E-05  0.0000000E+00 -0.3310099E-04
 -0.5050505E-02  0.0000000E+00 -0.5050505E-02  0.2300384E-05  0.0000000E+00 -0.3231107E-04
 -0.5050505E-02  0.0000000E+00 -0.5050505E-02  0.2969055E-05  0.0000000E+00 -0.3125453E-04
 -0.5050505E-02  0.0000000E+00 -0.5050505E-02  0.3646469E-05  0.0000000E+00 -0.2992842E-04
 -0.5050504E-02  0.0000000E+00 -0.5050505E-02  0.4334754E-05  0.0000000E+00 -0.2832902E-04
 -0.5050501E-02  0.0000000E+00 -0.5050505E-02  0.5036151E-05  0.0000000E+00 -0.2645179E-04
 -0.5050495E-02  0.0000000E+00 -0.5050505E-02  0.5753029E-05  0.0000000E+00 -0.2429128E-04
 -0.5050482E-02  0.0000000E+00 -0.5050505E-02  0.6487916E-05  0.0000000E+00 -0.2184113E-04
 -0.5050449E-02  0.0000000E+00 -0.5050505E-02  0.7243519E-05  0.0000000E+00 -0.1909400E-04
 -0.5050376E-02  0.0000000E+00 -0.5050505E-02  0.8022757E-05  0.0000000E+00 -0.1604145E-04
 -0.5050299E-02  0.0000000E+00 -0.5050505E-02  0.8828790E-05  0.0000000E+00 -0.1267393E-04
 -0.5050178E-02  0.0000000E+00 -0.5050505E-02  0.9665056E-05  0.0000000E+00 -0.8980628E-05
 -0.5050018E-02  0.0000000E+00 -0.5050505E-02  0.1053531E-04  0.0000000E+00 -0.4949395E-05
 -0.5049710E-02  0.0000000E+00 -0.5050505E-02  0.1144365E-04  0.0000000E+00 -0.5639240E-06
 -0.5049253E-02  0.0000000E+00 -0.5050505E-02  0.1239454E-04  0.0000000E+00  0.4198062E-05
 -0.5048636E-02  0.0000000E+00 -0.5050505E-02  0.1339314E-04  0.0000000E+00  0.9355051E-05
 -0.5047442E-02  0.0000000E+00 -0.5050505E-02  0.1444509E-04  0.0000000E+00  0.1492401E-04
 -0.5045727E-02  0.0000000E+00 -0.5050505E-02  0.1555665E-04  0.0000000E+00  0.2092801E-04
 -0.5043261E-02  0.0000000E+00 -0.5050505E-02  0.1673478E-04  0.0000000E+00  0.2739283E-04
 -0.5038714E-02  0.0000000E+00 -0.5050505E-02  0.1798728E-04  0.0000000E+00  0.3434731E-04
 -0.5032318E-02  0.0000000E+00 -0.5050505E-02  0.1932289E-04  0.0000000E+00  0.4182369E-04
 -0.5022454E-02  0.0000000E+00 -0.5050505E-02  0.2075142E-04  0.0000000E+00  0.4985806E-04
 -0.5012589E-02  0.0000000E+00 -0.5050505E-02  0.2228394E-04  0.0000000E+00  0.5849081E-04
 -0.5002725E-02  0.0000000E+00 -0.5050505E-02  0.2393294E-04  0.0000000E+00  0.6776723E-04
 -0.4992860E-02  0.0000000E+00 -0.5050505E-02  0.2571258E-04  0.0000000E+00  0.7773814E-04
 -0.4976523E-02  0.0000000E+00 -0.5050505E-02  0.2763898E-04  0.0000000E+00  0.8846064E-04
 -0.4956794E-02  0.0000000E+00 -0.5050505E-02  0.2973053E-04  0.0000000E+00  0.9999898E-04
 -0.4937066E-02  0.0000000E+00 -0.5050505E-02  0.3200839E-04  0.0000000E+00  0.1124256E-03
 -0.4906239E-02  0.0000000E+00 -0.5050505E-02  0.3449697E-04  0.0000000E+00  0.1258225E-03
 -0.4866782E-02  0.0000000E+00 -0.5050505E-02  0.3722472E-04  0.0000000E+00  0.1402824E-03
 -0.4827325E-02  0.0000000E+00 -0.5050505E-02  0.4022501E-04  0.0000000E+00  0.1559109E-03
 -0.4769372E-02  0.0000000E+00 -0.5050505E-02  0.4353744E-04  0.0000000E+00  0.1728281E-03
 -0.4690458E-02  0.0000000E+00 -0.5050505E-02  0.4720964E-04  0.0000000E+00  0.1911721E-03
 -0.4611543E-02  0.0000000E+00 -0.5050505E-02  0.5129972E-04  0.0000000E+00  0.2111014E-03
 -0.4503035E-02  0.0000000E+00 -0.5050505E-02  0.5588004E-04  0.0000000E+00  0.2327996E-03
 -0.4345206E-02  0.0000000E+00 -0.5050505E-02  0.6104277E-04  0.0000000E+00  0.2564802E-03
 -0.4187378E-02  0.0000000E+00 -0.5050505E-02  0.6690867E-04  0.0000000E+00  0.2823936E-03
 -0.3985156E-02  0.0000000E+00 -0.5050505E-02  0.7364152E-04  0.0000000E+00  0.3108340E-03
 -0.3669499E-02  0.0000000E+00 -0.5050505E-02  0.8147250E-04  0.0000000E+00  0.3421491E-03
 -0.3353842E-02  0.0000000E+00 -0.5050505E-02  0.9074328E-04  0.0000000E+00  0.3767479E-03
 -0.2978990E-02  0.0000000E+00 -0.5050505E-02  0.1019849E-03  0.0000000E+00  0.4151035E-03
 -0.2347676E-02  0.0000000E+00 -0.5050505E-02  0.1160676E-03  0.0000000E+00  0.4577314E-03
 -0.1716362E-02  0.0000000E+00 -0.5050505E-02  0.1344984E-03  0.0000000E+00  0.5050848E-03
 -0.1025842E-02  0.0000000E+00 -0.5050505E-02  0.1600501E-03  0.0000000E+00  0.5571555E-03
  0.2367855E-03  0.0000000E+00 -0.5050505E-02  0.1982241E-03  0.0000000E+00  0.6119490E-03
  0.1499413E-02  0.0000000E+00 -0.5050505E-02  0.2611591E-03  0.0000000E+00  0.6592149E-03
  0.2762042E-02  0.0000000E+00 -0.5050505E-02  0.2256581E-03  0.0000000E+00  0.7344535E-03
 -0.5050505E-02  0.0000000E+00 -0.5050505E-02  0.2200891E-03  0.0000000E+00  0.8330942E-03
 -0.5050505E-02  0.0000000E+00 -0.5050505E-02  0.2401897E-03  0.0000000E+00  0.9282473E-03
 -0.5050505E-02  0.0000000E+00 -0.5050505E-02  0.2893019E-03  0.0000000E+00  0.1041647E-02
 -0.5050505E-02  0.0000000E+00 -0.5050505E-02  0.2761272E-03  0.0000000E+00  0.1184672E-02
 -0.5050505E-02  0.0000000E+00 -0.5050505E-02  0.2933625E-03  0.0000000E+00  0.1298323E-02
 -0.5050505E-02  0.0000000E+00 -0.5050505E-02  0.4200185E-03  0.0000000E+00  0.1383217E-02
 -0.5050505E-02  0.0000000E+00 -0.5050505E-02  0.3286341E-03  0.0000000E+00  0.1526991E-02
 -0.5050504E-02  0.0000000E+00 -0.5050505E-02 -0.5794763E-03  0.0000000E+00  0.1522595E-02
 -0.5050501E-02  0.0000000E+00 -0.5050505E-02 -0.3752801E-03  0.0000000E+00  0.1393757E-02
 -0.5050495E-02  0.0000000E+00 -0.5050505E-02 -0.3408972E-03  0.0000000E+00  0.1289711E-02
 -0.5050482E-02  0.0000000E+00 -0.5050505E-02 -0.2655460E-03  0.0000000E+00  0.1168942E-02
 -0.5050449E-02  0.0000000E+00 -0.5050505E-02 -0.2208544E-03  0.0000000E+00  0.1076421E-02
 -0.5050376E-02  0.0000000E+00 -0.5050505E-02 -0.2037342E-03  0.0000000E+00  0.9883057E-03
 -0.5050299E-02  0.0000000E+00 -0.5050505E-02 -0.1731435E-03  0.0000000E+00  0.9064660E-03
 -0.5050178E-02  0.0000000E+00 -0.5050505E-02 -0.1544089E-03  0.0000000E+00  0.8382496E-03
 -0.5050018E-02  0.0000000E+00 -0.5050505E-02 -0.1405991E-03  0.0000000E+00  0.7759861E-03
 -0.5049710E-02  0.0000000E+00 -0.5050505E-02 -0.1290371E-03  0.0000000E+00  0.7184169E-03
 -0.5049253E-02  0.0000000E+00 -0.5050505E-02 -0.1186831E-03  0.0000000E+00  0.6653194E-03
 -0.5048636E-02  0.0000000E+00 -0.5050505E-02 -0.1091070E-03  0.0000000E+00  0.6165544E-03
 -0.5047442E-02  0.0000000E+00 -0.5050505E-02 -0.1001761E-03  0.0000000E+00  0.5719368E-03
 -0.5045727E-02  0.0000000E+00 -0.5050505E-02 -0.9188136E-04  0.0000000E+00  0.5312121E-03
 -0.5043261E-02  0.0000000E+00 -0.5050505E-02 -0.8424189E-04  0.0000000E+00  0.4940731E-03
 -0.5038714E-02  0.0000000E+00 -0.5050505E-02 -0.7726273E-04  0.0000000E+00  0.4601898E-03
 -0.5032318E-02  0.0000000E+00 -0.5050505E-02 -0.7092465E-04  0.0000000E+00  0.4292360E-03
 -0.5022454E-02  0.0000000E+00 -0.5050505E-02 -0.6518758E-04  0.0000000E+00  0.4009071E-03
 -0.5012589E-02  0.0000000E+00 -0.5050505E-02 -0.5999848E-04  0.0000000E+00  0.3749282E-03
 -0.5002725E-02  0.0000000E+00 -0.5050505E-02 -0.5529873E-04  0.0000000E+00  0.3510580E-03
 -0.4992860E-02  0.0000000E+00 -0.5050505E-02 -0.5102959E-04  0.0000000E+00  0.3290870E-03
 -0.4976523E-02  0.0000000E+00 -0.5050505E-02 -0.4713564E-04  0.0000000E+00  0.3088355E-03
 -0.4956794E-02  0.0000000E+00 -0.5050505E-02 -0.4356655E-04  0.0000000E+00  0.2901494E-03
 -0.4937066E-02  0.0000000E+00 -0.5050505E-02 -0.4027771E-04  0.0000000E+00  0.2728969E-03
 -0.4906239E-02  0.0000000E+00 -0.5050505E-02 -0.3723019E-04  0.0000000E+00  0.2569655E-03
 -0.4866782E-02  0.0000000E+00 -0.5050505E-02 -0.3439037E-04  0.0000000E+00  0.2422587E-03
 -0.4827325E-02  0.0000000E+00 -0.5050505E-02 -0.3172930E-04  0.0000000E+00  0.2286938E-03
 -0.4769372E-02  0.0000000E+00 -0.5050505E-02 -0.2922209E-04  0.0000000E+00  0.2161997E-03
 -0.4690458E-02  0.0000000E+00 -0.5050505E-02 -0.2684730E-04  0.0000000E+00  0.2047151E-03
 -0.4611543E-02  0.0000000E+00 -0.5050505E-02 -0.2458631E-04  0.0000000E+00  0.1941873E-03
 -0.4503035E-02  0.0000000E+00 -0.5050505E-02 -0.2242279E-04  0.0000000E+00  0.1845709E-03
 -0.4345206E-02  0.0000000E+00 -0.5050505E-02 -0.2034211E-04  0.0000000E+00  0.1758267E-03
 -0.4187378E-02  0.0000000E+00 -0.5050505E-02 -0.1833076E-04  0.0000000E+00  0.1679213E-03
 -0.3985156E-02  0.0000000E+00 -0.5050505E-02 -0.1637558E-04  0.0000000E+00  0.1608261E-03
 -0.3669499E-02  0.0000000E+00 -0.5050505E-02 -0.1446281E-04  0.0000000E+00  0.1545168E-03
 -0.3353842E-02  0.0000000E+00 -0.5050505E-02 -0.1257642E-04  0.0000000E+00  0.1489725E-03
 -0.2978990E-02  0.0000000E+00 -0.5050505E-02 -0.1069544E-04  0.0000000E+00  0.1441737E-03
 -0.2347676E-02  0.0000000E+00 -0.5050505E-02 -0.8789208E-05  0.0000000E+00  0.1400975E-03
 -0.1716362E-02  0.0000000E+00 -0.5050505E-02 -0.6809606E-05  0.0000000E+00  0.1367047E-03
 -0.1025842E-02  0.0000000E+00 -0.5050505E-02 -0.4681830E-05  0.0000000E+00  0.1339041E-03
  0.2367855E-03  0.0000000E+00 -0.5050505E-02 -0.2312262E-05  0.0000000E+00  0.1314701E-03
  0.1499413E-02  0.0000000E+00 -0.5050505E-02  0.2796617E-06  0.0000000E+00  0.1289122E-03
  0.5287294E-02  0.0000000E+00 -0.5050505E-02  0.2186331E-05  0.0000000E+00  0.1257265E-03
 -0.5050505E-02  0.0000000E+00 -0.5050505E-02  0.4560441E-06  0.0000000E+00 -0.3363152E-04
 -0.5050505E-02  0.0000000E+00 -0.5050505E-02  0.1369430E-05  0.0000000E+00 -0.3337046E-04
 -0.5050505E-02  0.0000000E+00 -0.5050505E-02  0.2286729E-05  0.0000000E+00 -0.3284769E-04
 -0.5050505E-02  0.0000000E+00 -0.5050505E-02  0.3210608E-05  0.0000000E+00 -0.3206182E-04
 -0.5050505E-02  0.0000000E+00 -0.5050505E-02  0.4143803E-05  0.0000000E+00 -0.3101077E-04
 -0.5050505E-02  0.0000000E+00 -0.5050505E-02  0.5089147E-05  0.0000000E+00 -0.2969168E-04
 -0.5050504E-02  0.0000000E+00 -0.5050505E-02  0.6049596E-05  0.0000000E+00 -0.2810094E-04
 -0.5050501E-02  0.0000000E+00 -0.5050505E-02  0.7028257E-05  0.0000000E+00 -0.2623409E-04
 -0.5050495E-02  0.0000000E+00 -0.5050505E-02  0.8028420E-05  0.0000000E+00 -0.2408584E-04
 -0.5050482E-02  0.0000000E+00 -0.5050505E-02  0.9053590E-05  0.0000000E+00 -0.2165001E-04
 -0.5050449E-02  0.0000000E+00 -0.5050505E-02  0.1010752E-04  0.0000000E+00 -0.1891942E-04
 -0.5050376E-02  0.0000000E+00 -0.5050505E-02  0.1119427E-04  0.0000000E+00 -0.1588587E-04
 -0.5050299E-02  0.0000000E+00 -0.5050505E-02  0.1231821E-04  0.0000000E+00 -0.1254005E-04
 -0.5050178E-02  0.0000000E+00 -0.5050505E-02  0.1348410E-04  0.0000000E+00 -0.8871458E-05
 -0.5050018E-02  0.0000000E+00 -0.5050505E-02  0.1469717E-04  0.0000000E+00 -0.4868258E-05
 -0.5049710E-02  0.0000000E+00 -0.5050505E-02  0.1596309E-04  0.0000000E+00 -0.5144746E-06
 -0.5049253E-02  0.0000000E+00 -0.5050505E-02  0.1728801E-04  0.0000000E+00  0.4211614E-05
 -0.5048636E-02  0.0000000E+00 -0.5050505E-02  0.1867912E-04  0.0000000E+00  0.9327887E-05
 -0.5047442E-02  0.0000000E+00 -0.5050505E-02  0.2014420E-04  0.0000000E+00  0.1485081E-04
 -0.5045727E-02  0.0000000E+00 -0.5050505E-02  0.2169191E-04  0.0000000E+00  0.2080276E-04
 -0.5043261E-02  0.0000000E+00 -0.5050505E-02  0.2333189E-04  0.0000000E+00  0.2720876E-04
 -0.5038714E-02  0.0000000E+00 -0.5050505E-02  0.2507492E-04  0.0000000E+00  0.3409674E-04
 -0.5032318E-02  0.0000000E+00 -0.5050505E-02  0.2693308E-04  0.0000000E+00  0.4149793E-04
 -0.5022454E-02  0.0000000E+00 -0.5050505E-02  0.2891991E-04  0.0000000E+00  0.4944721E-04
 -0.5012589E-02  0.0000000E+00 -0.5050505E-02  0.3105067E-04  0.0000000E+00  0.5798360E-04
 -0.5002725E-02  0.0000000E+00 -0.5050505E-02  0.3334258E-04  0.0000000E+00  0.6715078E-04
 -0.4992860E-02  0.0000000E+00 -0.5050505E-02  0.3581511E-04  0.0000000E+00  0.7699765E-04
 -0.4976523E-02  0.0000000E+00 -0.5050505E-02  0.3849040E-04  0.0000000E+00  0.8757905E-04
 -0.4956794E-02  0.0000000E+00 -0.5050505E-02  0.4139370E-04  0.0000000E+00  0.9895655E-04
 -0.4937066E-02  0.0000000E+00 -0.5050505E-02  0.4455391E-04  0.0000000E+00  0.1111994E-03