title = "dataset feddes"
variables = "x", "y", "z", "vx", "vy", "vz"
zone t = "velocities, solution time =  5.900E+01 days        " i =   99, j =   99, k =    1,  f=point
 -0.5050505E-02  0.0000000E+00 -0.5050505E-02  0.9424484E-07  0.0000000E+00  0.1042808E-03
 -0.5050505E-02  0.0000000E+00 -0.5050505E-02  0.2831023E-06  0.0000000E+00  0.1046641E-03
 -0.5050505E-02  0.0000000E+00 -0.5050505E-02  0.4730755E-06  0.0000000E+00  0.1054323E-03
 -0.5050505E-02  0.0000000E+00 -0.5050505E-02  0.6649322E-06  0.0000000E+00  0.1065884E-03
 -0.5050505E-02  0.0000000E+00 -0.5050505E-02  0.8594671E-06  0.0000000E+00  0.1081373E-03
 -0.5050505E-02  0.0000000E+00 -0.5050505E-02  0.1057510E-05  0.0000000E+00  0.1100855E-03
 -0.5050504E-02  0.0000000E+00 -0.5050505E-02  0.1259937E-05  0.0000000E+00  0.1124412E-03
 -0.5050501E-02  0.0000000E+00 -0.5050505E-02  0.1467678E-05  0.0000000E+00  0.1152147E-03
 -0.5050495E-02  0.0000000E+00 -0.5050505E-02  0.1681735E-05  0.0000000E+00  0.1184181E-03
 -0.5050482E-02  0.0000000E+00 -0.5050505E-02  0.1903190E-05  0.0000000E+00  0.1220660E-03
 -0.5050449E-02  0.0000000E+00 -0.5050505E-02  0.2133227E-05  0.0000000E+00  0.1261750E-03
 -0.5050376E-02  0.0000000E+00 -0.5050505E-02  0.2373148E-05  0.0000000E+00  0.1307649E-03
 -0.5050299E-02  0.0000000E+00 -0.5050505E-02  0.2624397E-05  0.0000000E+00  0.1358578E-03
 -0.5050178E-02  0.0000000E+00 -0.5050505E-02  0.2888586E-05  0.0000000E+00  0.1414795E-03
 -0.5050018E-02  0.0000000E+00 -0.5050505E-02  0.3167530E-05  0.0000000E+00  0.1476592E-03
 -0.5049710E-02  0.0000000E+00 -0.5050505E-02  0.3463289E-05  0.0000000E+00  0.1544305E-03
 -0.5049253E-02  0.0000000E+00 -0.5050505E-02  0.3778213E-05  0.0000000E+00  0.1618315E-03
 -0.5048636E-02  0.0000000E+00 -0.5050505E-02  0.4115009E-05  0.0000000E+00  0.1699059E-03
 -0.5047442E-02  0.0000000E+00 -0.5050505E-02  0.4476819E-05  0.0000000E+00  0.1787036E-03
 -0.5045727E-02  0.0000000E+00 -0.5050505E-02  0.4867314E-05  0.0000000E+00  0.1882818E-03
 -0.5043261E-02  0.0000000E+00 -0.5050505E-02  0.5290814E-05  0.0000000E+00  0.1987066E-03
 -0.5038714E-02  0.0000000E+00 -0.5050505E-02  0.5752437E-05  0.0000000E+00  0.2100542E-03
 -0.5032318E-02  0.0000000E+00 -0.5050505E-02  0.6258276E-05  0.0000000E+00  0.2224129E-03
 -0.5022454E-02  0.0000000E+00 -0.5050505E-02  0.6815599E-05  0.0000000E+00  0.2358859E-03
 -0.5012589E-02  0.0000000E+00 -0.5050505E-02  0.7433078E-05  0.0000000E+00  0.2505935E-03
 -0.5002725E-02  0.0000000E+00 -0.5050505E-02  0.8120994E-05  0.0000000E+00  0.2666774E-03
 -0.4992860E-02  0.0000000E+00 -0.5050505E-02  0.8891386E-05  0.0000000E+00  0.2843036E-03
 -0.4976523E-02  0.0000000E+00 -0.5050505E-02  0.9757971E-05  0.0000000E+00  0.3036673E-03
 -0.4956794E-02  0.0000000E+00 -0.5050505E-02  0.1073561E-04  0.0000000E+00  0.3249959E-03
 -0.4937066E-02  0.0000000E+00 -0.5050505E-02  0.1183873E-04  0.0000000E+00  0.3485509E-03
 -0.4906239E-02  0.0000000E+00 -0.5050505E-02  0.1307784E-04  0.0000000E+00  0.3746242E-03
 -0.4866782E-02  0.0000000E+00 -0.5050505E-02  0.1445226E-04  0.0000000E+00  0.4035234E-03
 -0.4827325E-02  0.0000000E+00 -0.5050505E-02  0.1593660E-04  0.0000000E+00  0.4355350E-03
 -0.4769372E-02  0.0000000E+00 -0.5050505E-02  0.1745803E-04  0.0000000E+00  0.4708489E-03
 -0.4690458E-02  0.0000000E+00 -0.5050505E-02  0.1886607E-04  0.0000000E+00  0.5094239E-03
 -0.4611543E-02  0.0000000E+00 -0.5050505E-02  0.1991598E-04  0.0000000E+00  0.5507994E-03
 -0.4503035E-02  0.0000000E+00 -0.5050505E-02  0.2034169E-04  0.0000000E+00  0.5939611E-03
 -0.4345206E-02  0.0000000E+00 -0.5050505E-02  0.2016596E-04  0.0000000E+00  0.6376140E-03
 -0.4187378E-02  0.0000000E+00 -0.5050505E-02  0.2017343E-04  0.0000000E+00  0.6813134E-03
 -0.3985156E-02  0.0000000E+00 -0.5050505E-02  0.2097342E-04  0.0000000E+00  0.7261227E-03
 -0.3669499E-02  0.0000000E+00 -0.5050505E-02  0.2323658E-04  0.0000000E+00  0.7745295E-03
 -0.3353842E-02  0.0000000E+00 -0.5050505E-02  0.2827046E-04  0.0000000E+00  0.8312602E-03
 -0.2978990E-02  0.0000000E+00 -0.5050505E-02  0.3982065E-04  0.0000000E+00  0.9067881E-03
 -0.2347676E-02  0.0000000E+00 -0.5050505E-02  0.7082018E-04  0.0000000E+00  0.1030718E-02
 -0.1716362E-02  0.0000000E+00 -0.5050505E-02  0.7496849E-04  0.0000000E+00  0.1196224E-02
 -0.1025842E-02  0.0000000E+00 -0.5050505E-02  0.5073050E-04  0.0000000E+00  0.1341396E-02
  0.2367855E-03  0.0000000E+00 -0.5050505E-02  0.2719978E-04  0.0000000E+00  0.1432919E-02
  0.1499413E-02  0.0000000E+00 -0.5050505E-02  0.4446040E-04  0.0000000E+00  0.1518227E-02
  0.2762042E-02  0.0000000E+00 -0.5050505E-02  0.3197513E-04  0.0000000E+00  0.1609947E-02
 -0.5050505E-02  0.0000000E+00 -0.5050505E-02  0.6093343E-04  0.0000000E+00  0.1722886E-02
 -0.5050505E-02  0.0000000E+00 -0.5050505E-02  0.9568701E-04  0.0000000E+00  0.1915852E-02
 -0.5050505E-02  0.0000000E+00 -0.5050505E-02  0.7326899E-04  0.0000000E+00  0.2127871E-02
 -0.5050505E-02  0.0000000E+00 -0.5050505E-02  0.1445219E-03  0.0000000E+00  0.2409262E-02
 -0.5050505E-02  0.0000000E+00 -0.5050505E-02  0.1353556E-03  0.0000000E+00  0.2780955E-02
 -0.5050505E-02  0.0000000E+00 -0.5050505E-02  0.1085269E-03  0.0000000E+00  0.3117922E-02
 -0.5050505E-02  0.0000000E+00 -0.5050505E-02  0.1193493E-03  0.0000000E+00  0.3445546E-02
 -0.5050504E-02  0.0000000E+00 -0.5050505E-02 -0.3188367E-03  0.0000000E+00  0.3180349E-02
 -0.5050501E-02  0.0000000E+00 -0.5050505E-02 -0.1516254E-03  0.0000000E+00  0.2540896E-02
 -0.5050495E-02  0.0000000E+00 -0.5050505E-02 -0.7680334E-04  0.0000000E+00  0.2241895E-02
 -0.5050482E-02  0.0000000E+00 -0.5050505E-02 -0.3488594E-04  0.0000000E+00  0.2098297E-02
 -0.5050449E-02  0.0000000E+00 -0.5050505E-02 -0.1486457E-04  0.0000000E+00  0.2034855E-02
 -0.5050376E-02  0.0000000E+00 -0.5050505E-02 -0.6264022E-04  0.0000000E+00  0.1937717E-02
 -0.5050299E-02  0.0000000E+00 -0.5050505E-02  0.5235285E-06  0.0000000E+00  0.1860132E-02
 -0.5050178E-02  0.0000000E+00 -0.5050505E-02 -0.6438208E-04  0.0000000E+00  0.1781796E-02
 -0.5050018E-02  0.0000000E+00 -0.5050505E-02 -0.3649102E-04  0.0000000E+00  0.1658488E-02
 -0.5049710E-02  0.0000000E+00 -0.5050505E-02 -0.2341400E-04  0.0000000E+00  0.1585918E-02
 -0.5049253E-02  0.0000000E+00 -0.5050505E-02 -0.1565106E-04  0.0000000E+00  0.1538863E-02
 -0.5048636E-02  0.0000000E+00 -0.5050505E-02 -0.1342862E-04  0.0000000E+00  0.1503986E-02
 -0.5047442E-02  0.0000000E+00 -0.5050505E-02 -0.3082425E-04  0.0000000E+00  0.1451328E-02
 -0.5045727E-02  0.0000000E+00 -0.5050505E-02 -0.3851956E-04  0.0000000E+00  0.1369502E-02
 -0.5043261E-02  0.0000000E+00 -0.5050505E-02 -0.3067004E-04  0.0000000E+00  0.1288537E-02
 -0.5038714E-02  0.0000000E+00 -0.5050505E-02 -0.3169463E-04  0.0000000E+00  0.1216209E-02
 -0.5032318E-02  0.0000000E+00 -0.5050505E-02 -0.3571709E-04  0.0000000E+00  0.1138750E-02
 -0.5022454E-02  0.0000000E+00 -0.5050505E-02 -0.3789005E-04  0.0000000E+00  0.1054986E-02
 -0.5012589E-02  0.0000000E+00 -0.5050505E-02 -0.3680281E-04  0.0000000E+00  0.9708048E-03
 -0.5002725E-02  0.0000000E+00 -0.5050505E-02 -0.3448521E-04  0.0000000E+00  0.8912061E-03
 -0.4992860E-02  0.0000000E+00 -0.5050505E-02 -0.3099308E-04  0.0000000E+00  0.8187140E-03
 -0.4976523E-02  0.0000000E+00 -0.5050505E-02 -0.2727355E-04  0.0000000E+00  0.7546935E-03
 -0.4956794E-02  0.0000000E+00 -0.5050505E-02 -0.2387484E-04  0.0000000E+00  0.6988672E-03
 -0.4937066E-02  0.0000000E+00 -0.5050505E-02 -0.2094694E-04  0.0000000E+00  0.6502304E-03
 -0.4906239E-02  0.0000000E+00 -0.5050505E-02 -0.1846161E-04  0.0000000E+00  0.6076853E-03
 -0.4866782E-02  0.0000000E+00 -0.5050505E-02 -0.1634259E-04  0.0000000E+00  0.5702796E-03
 -0.4827325E-02  0.0000000E+00 -0.5050505E-02 -0.1451556E-04  0.0000000E+00  0.5372464E-03
 -0.4769372E-02  0.0000000E+00 -0.5050505E-02 -0.1292066E-04  0.0000000E+00  0.5079797E-03
 -0.4690458E-02  0.0000000E+00 -0.5050505E-02 -0.1151215E-04  0.0000000E+00  0.4819981E-03
 -0.4611543E-02  0.0000000E+00 -0.5050505E-02 -0.1025503E-04  0.0000000E+00  0.4589156E-03
 -0.4503035E-02  0.0000000E+00 -0.5050505E-02 -0.9121884E-05  0.0000000E+00  0.4384184E-03
 -0.4345206E-02  0.0000000E+00 -0.5050505E-02 -0.8090530E-05  0.0000000E+00  0.4202508E-03
 -0.4187378E-02  0.0000000E+00 -0.5050505E-02 -0.7142314E-05  0.0000000E+00  0.4042037E-03
 -0.3985156E-02  0.0000000E+00 -0.5050505E-02 -0.6260737E-05  0.0000000E+00  0.3901083E-03
 -0.3669499E-02  0.0000000E+00 -0.5050505E-02 -0.5429994E-05  0.0000000E+00  0.3778318E-03
 -0.3353842E-02  0.0000000E+00 -0.5050505E-02 -0.4632800E-05  0.0000000E+00  0.3672784E-03
 -0.2978990E-02  0.0000000E+00 -0.5050505E-02 -0.3846084E-05  0.0000000E+00  0.3583956E-03
 -0.2347676E-02  0.0000000E+00 -0.5050505E-02 -0.3030727E-05  0.0000000E+00  0.3511974E-03
 -0.1716362E-02  0.0000000E+00 -0.5050505E-02 -0.2103604E-05  0.0000000E+00  0.3458267E-03
 -0.1025842E-02  0.0000000E+00 -0.5050505E-02 -0.8525085E-06  0.0000000E+00  0.3427356E-03
  0.2367855E-03  0.0000000E+00 -0.5050505E-02  0.1349768E-05  0.0000000E+00  0.3432555E-03
  0.1499413E-02  0.0000000E+00 -0.5050505E-02  0.6594551E-05  0.0000000E+00  0.3515636E-03
  0.5287294E-02  0.0000000E+00 -0.5050505E-02  0.1227599E-03  0.0000000E+00  0.2794641E-03
 -0.5050505E-02  0.0000000E+00 -0.5050505E-02  0.2821647E-06  0.0000000E+00  0.1041712E-03
 -0.5050505E-02  0.0000000E+00 -0.5050505E-02  0.8475980E-06  0.0000000E+00  0.1045534E-03
 -0.5050505E-02  0.0000000E+00 -0.5050505E-02  0.1416375E-05  0.0000000E+00  0.1053191E-03
 -0.5050505E-02  0.0000000E+00 -0.5050505E-02  0.1990791E-05  0.0000000E+00  0.1064717E-03
 -0.5050505E-02  0.0000000E+00 -0.5050505E-02  0.2573221E-05  0.0000000E+00  0.1080157E-03
 -0.5050505E-02  0.0000000E+00 -0.5050505E-02  0.3166146E-05  0.0000000E+00  0.1099576E-03
 -0.5050504E-02  0.0000000E+00 -0.5050505E-02  0.3772179E-05  0.0000000E+00  0.1123056E-03
 -0.5050501E-02  0.0000000E+00 -0.5050505E-02  0.4394103E-05  0.0000000E+00  0.1150697E-03
 -0.5050495E-02  0.0000000E+00 -0.5050505E-02  0.5034905E-05  0.0000000E+00  0.1182622E-03
 -0.5050482E-02  0.0000000E+00 -0.5050505E-02  0.5697820E-05  0.0000000E+00  0.1218972E-03
 -0.5050449E-02  0.0000000E+00 -0.5050505E-02  0.6386378E-05  0.0000000E+00  0.1259914E-03
 -0.5050376E-02  0.0000000E+00 -0.5050505E-02  0.7104465E-05  0.0000000E+00  0.1305641E-03
 -0.5050299E-02  0.0000000E+00 -0.5050505E-02  0.7856387E-05  0.0000000E+00  0.1356374E-03
 -0.5050178E-02  0.0000000E+00 -0.5050505E-02  0.8646951E-05  0.0000000E+00  0.1412365E-03
 -0.5050018E-02  0.0000000E+00 -0.5050505E-02  0.9481567E-05  0.0000000E+00  0.1473905E-03
 -0.5049710E-02  0.0000000E+00 -0.5050505E-02  0.1036636E-04  0.0000000E+00  0.1541323E-03
 -0.5049253E-02  0.0000000E+00 -0.5050505E-02  0.1130833E-04  0.0000000E+00  0.1614994E-03
 -0.5048636E-02  0.0000000E+00 -0.5050505E-02  0.1231554E-04  0.0000000E+00  0.1695349E-03
 -0.5047442E-02  0.0000000E+00 -0.5050505E-02  0.1339730E-04  0.0000000E+00  0.1782878E-03
 -0.5045727E-02  0.0000000E+00 -0.5050505E-02  0.1456453E-04  0.0000000E+00  0.1878142E-03
 -0.5043261E-02  0.0000000E+00 -0.5050505E-02  0.1583006E-04  0.0000000E+00  0.1981788E-03
 -0.5038714E-02  0.0000000E+00 -0.5050505E-02  0.1720908E-04  0.0000000E+00  0.2094562E-03
 -0.5032318E-02  0.0000000E+00 -0.5050505E-02  0.1871969E-04  0.0000000E+00  0.2217328E-03
 -0.5022454E-02  0.0000000E+00 -0.5050505E-02  0.2038350E-04  0.0000000E+00  0.2351092E-03
 -0.5012589E-02  0.0000000E+00 -0.5050505E-02  0.2222634E-04  0.0000000E+00  0.2497030E-03
 -0.5002725E-02  0.0000000E+00 -0.5050505E-02  0.2427897E-04  0.0000000E+00  0.2656527E-03
 -0.4992860E-02  0.0000000E+00 -0.5050505E-02  0.2657759E-04  0.0000000E+00  0.2831212E-03
 -0.4976523E-02  0.0000000E+00 -0.5050505E-02  0.2916392E-04  0.0000000E+00  0.3023009E-03
 -0.4956794E-02  0.0000000E+00 -0.5050505E-02  0.3208407E-04  0.0000000E+00  0.3234189E-03
 -0.4937066E-02  0.0000000E+00 -0.5050505E-02  0.3538471E-04  0.0000000E+00  0.3467412E-03
 -0.4906239E-02  0.0000000E+00 -0.5050505E-02  0.3910417E-04  0.0000000E+00  0.3725749E-03
 -0.4866782E-02  0.0000000E+00 -0.5050505E-02  0.4325304E-04  0.0000000E+00  0.4012636E-03
 -0.4827325E-02  0.0000000E+00 -0.5050505E-02  0.4777597E-04  0.0000000E+00  0.4331656E-03
 -0.4769372E-02  0.0000000E+00 -0.5050505E-02  0.5248162E-04  0.0000000E+00  0.4685953E-03
 -0.4690458E-02  0.0000000E+00 -0.5050505E-02  0.5693128E-04  0.0000000E+00  0.5076823E-03
 -0.4611543E-02  0.0000000E+00 -0.5050505E-02  0.6031851E-04  0.0000000E+00  0.5500801E-03
 -0.4503035E-02  0.0000000E+00 -0.5050505E-02  0.6155382E-04  0.0000000E+00  0.5945049E-03
 -0.4345206E-02  0.0000000E+00 -0.5050505E-02  0.6027477E-04  0.0000000E+00  0.6386089E-03
 -0.4187378E-02  0.0000000E+00 -0.5050505E-02  0.5971870E-04  0.0000000E+00  0.6813599E-03
 -0.3985156E-02  0.0000000E+00 -0.5050505E-02  0.6149319E-04  0.0000000E+00  0.7239355E-03
 -0.3669499E-02  0.0000000E+00 -0.5050505E-02  0.6708658E-04  0.0000000E+00  0.7681268E-03
 -0.3353842E-02  0.0000000E+00 -0.5050505E-02  0.7880601E-04  0.0000000E+00  0.8155877E-03
 -0.2978990E-02  0.0000000E+00 -0.5050505E-02  0.1018828E-03  0.0000000E+00  0.8651695E-03
 -0.2347676E-02  0.0000000E+00 -0.5050505E-02  0.1501287E-03  0.0000000E+00  0.8998985E-03
 -0.1716362E-02  0.0000000E+00 -0.5050505E-02  0.1659026E-03  0.0000000E+00  0.9279752E-03
 -0.1025842E-02  0.0000000E+00 -0.5050505E-02  0.1536928E-03  0.0000000E+00  0.1005177E-02
  0.2367855E-03  0.0000000E+00 -0.5050505E-02  0.1325471E-03  0.0000000E+00  0.1154116E-02
  0.1499413E-02  0.0000000E+00 -0.5050505E-02  0.1594031E-03  0.0000000E+00  0.1327085E-02
  0.2762042E-02  0.0000000E+00 -0.5050505E-02  0.1391905E-03  0.0000000E+00  0.1500991E-02
 -0.5050505E-02  0.0000000E+00 -0.5050505E-02  0.1770486E-03  0.0000000E+00  0.1660416E-02
 -0.5050505E-02  0.0000000E+00 -0.5050505E-02  0.2236949E-03  0.0000000E+00  0.1770832E-02
 -0.5050505E-02  0.0000000E+00 -0.5050505E-02  0.2512127E-03  0.0000000E+00  0.1946432E-02
 -0.5050505E-02  0.0000000E+00 -0.5050505E-02  0.3539642E-03  0.0000000E+00  0.2167717E-02
 -0.5050505E-02  0.0000000E+00 -0.5050505E-02  0.2884405E-03  0.0000000E+00  0.2283755E-02
 -0.5050505E-02  0.0000000E+00 -0.5050505E-02  0.3557190E-03  0.0000000E+00  0.2504997E-02
 -0.5050505E-02  0.0000000E+00 -0.5050505E-02  0.2114608E-03  0.0000000E+00  0.2665622E-02
 -0.5050504E-02  0.0000000E+00 -0.5050505E-02 -0.7168895E-03  0.0000000E+00  0.2520736E-02
 -0.5050501E-02  0.0000000E+00 -0.5050505E-02 -0.3820189E-03  0.0000000E+00  0.2300389E-02
 -0.5050495E-02  0.0000000E+00 -0.5050505E-02 -0.2025526E-03  0.0000000E+00  0.2126598E-02
 -0.5050482E-02  0.0000000E+00 -0.5050505E-02 -0.1239700E-03  0.0000000E+00  0.1989360E-02
 -0.5050449E-02  0.0000000E+00 -0.5050505E-02 -0.1055333E-03  0.0000000E+00  0.1821928E-02
 -0.5050376E-02  0.0000000E+00 -0.5050505E-02 -0.1206068E-03  0.0000000E+00  0.1730002E-02
 -0.5050299E-02  0.0000000E+00 -0.5050505E-02 -0.1589638E-04  0.0000000E+00  0.1713062E-02
 -0.5050178E-02  0.0000000E+00 -0.5050505E-02 -0.1453457E-03  0.0000000E+00  0.1670001E-02
 -0.5050018E-02  0.0000000E+00 -0.5050505E-02 -0.9642349E-04  0.0000000E+00  0.1618836E-02
 -0.5049710E-02  0.0000000E+00 -0.5050505E-02 -0.6519568E-04  0.0000000E+00  0.1566410E-02
 -0.5049253E-02  0.0000000E+00 -0.5050505E-02 -0.4191011E-04  0.0000000E+00  0.1530233E-02
 -0.5048636E-02  0.0000000E+00 -0.5050505E-02 -0.6399629E-04  0.0000000E+00  0.1471872E-02
 -0.5047442E-02  0.0000000E+00 -0.5050505E-02 -0.1003039E-03  0.0000000E+00  0.1380426E-02
 -0.5045727E-02  0.0000000E+00 -0.5050505E-02 -0.8682157E-04  0.0000000E+00  0.1322041E-02
 -0.5043261E-02  0.0000000E+00 -0.5050505E-02 -0.8389563E-04  0.0000000E+00  0.1283142E-02
 -0.5038714E-02  0.0000000E+00 -0.5050505E-02 -0.9200511E-04  0.0000000E+00  0.1222680E-02
 -0.5032318E-02  0.0000000E+00 -0.5050505E-02 -0.1083628E-03  0.0000000E+00  0.1146344E-02
 -0.5022454E-02  0.0000000E+00 -0.5050505E-02 -0.1162866E-03  0.0000000E+00  0.1057427E-02
 -0.5012589E-02  0.0000000E+00 -0.5050505E-02 -0.1113441E-03  0.0000000E+00  0.9686984E-03
 -0.5002725E-02  0.0000000E+00 -0.5050505E-02 -0.1044247E-03  0.0000000E+00  0.8866275E-03
 -0.4992860E-02  0.0000000E+00 -0.5050505E-02 -0.9313227E-04  0.0000000E+00  0.8126602E-03
 -0.4976523E-02  0.0000000E+00 -0.5050505E-02 -0.8148981E-04  0.0000000E+00  0.7486577E-03
 -0.4956794E-02  0.0000000E+00 -0.5050505E-02 -0.7116243E-04  0.0000000E+00  0.6935483E-03
 -0.4937066E-02  0.0000000E+00 -0.5050505E-02 -0.6240802E-04  0.0000000E+00  0.6457526E-03
 -0.4906239E-02  0.0000000E+00 -0.5050505E-02 -0.5502478E-04  0.0000000E+00  0.6039483E-03
 -0.4866782E-02  0.0000000E+00 -0.5050505E-02 -0.4873834E-04  0.0000000E+00  0.5671377E-03
 -0.4827325E-02  0.0000000E+00 -0.5050505E-02 -0.4331414E-04  0.0000000E+00  0.5345709E-03
 -0.4769372E-02  0.0000000E+00 -0.5050505E-02 -0.3857301E-04  0.0000000E+00  0.5056705E-03
 -0.4690458E-02  0.0000000E+00 -0.5050505E-02 -0.3438086E-04  0.0000000E+00  0.4799800E-03
 -0.4611543E-02  0.0000000E+00 -0.5050505E-02 -0.3063570E-04  0.0000000E+00  0.4571313E-03
 -0.4503035E-02  0.0000000E+00 -0.5050505E-02 -0.2725756E-04  0.0000000E+00  0.4368234E-03
 -0.4345206E-02  0.0000000E+00 -0.5050505E-02 -0.2418152E-04  0.0000000E+00  0.4188087E-03
 -0.4187378E-02  0.0000000E+00 -0.5050505E-02 -0.2135296E-04  0.0000000E+00  0.4028835E-03
 -0.3985156E-02  0.0000000E+00 -0.5050505E-02 -0.1872376E-04  0.0000000E+00  0.3888815E-03
 -0.3669499E-02  0.0000000E+00 -0.5050505E-02 -0.1624863E-04  0.0000000E+00  0.3766688E-03
 -0.3353842E-02  0.0000000E+00 -0.5050505E-02 -0.1387983E-04  0.0000000E+00  0.3661418E-03
 -0.2978990E-02  0.0000000E+00 -0.5050505E-02 -0.1155801E-04  0.0000000E+00  0.3572263E-03
 -0.2347676E-02  0.0000000E+00 -0.5050505E-02 -0.9192646E-05  0.0000000E+00  0.3498760E-03
 -0.1716362E-02  0.0000000E+00 -0.5050505E-02 -0.6615980E-05  0.0000000E+00  0.3440606E-03
 -0.1025842E-02  0.0000000E+00 -0.5050505E-02 -0.3465358E-05  0.0000000E+00  0.3396888E-03
  0.2367855E-03  0.0000000E+00 -0.5050505E-02  0.1136196E-05  0.0000000E+00  0.3362142E-03
  0.1499413E-02  0.0000000E+00 -0.5050505E-02  0.9487815E-05  0.0000000E+00  0.3307428E-03
  0.5287294E-02  0.0000000E+00 -0.5050505E-02  0.2795646E-04  0.0000000E+00  0.3090950E-03
 -0.5050505E-02  0.0000000E+00 -0.5050505E-02  0.4686684E-06  0.0000000E+00  0.1039576E-03
 -0.5050505E-02  0.0000000E+00 -0.5050505E-02  0.1407841E-05  0.0000000E+00  0.1043374E-03
 -0.5050505E-02  0.0000000E+00 -0.5050505E-02  0.2352563E-05  0.0000000E+00  0.1050985E-03
 -0.5050505E-02  0.0000000E+00 -0.5050505E-02  0.3306638E-05  0.0000000E+00  0.1062439E-03
 -0.5050505E-02  0.0000000E+00 -0.5050505E-02  0.4273994E-05  0.0000000E+00  0.1077782E-03
 -0.5050505E-02  0.0000000E+00 -0.5050505E-02  0.5258734E-05  0.0000000E+00  0.1097077E-03
 -0.5050504E-02  0.0000000E+00 -0.5050505E-02  0.6265181E-05  0.0000000E+00  0.1120405E-03
 -0.5050501E-02  0.0000000E+00 -0.5050505E-02  0.7297933E-05  0.0000000E+00  0.1147863E-03
 -0.5050495E-02  0.0000000E+00 -0.5050505E-02  0.8361925E-05  0.0000000E+00  0.1179571E-03
 -0.5050482E-02  0.0000000E+00 -0.5050505E-02  0.9462499E-05  0.0000000E+00  0.1215668E-03
 -0.5050449E-02  0.0000000E+00 -0.5050505E-02  0.1060548E-04  0.0000000E+00  0.1256317E-03
 -0.5050376E-02  0.0000000E+00 -0.5050505E-02  0.1179728E-04  0.0000000E+00  0.1301706E-03
 -0.5050299E-02  0.0000000E+00 -0.5050505E-02  0.1304499E-04  0.0000000E+00  0.1352051E-03
 -0.5050178E-02  0.0000000E+00 -0.5050505E-02  0.1435653E-04  0.0000000E+00  0.1407599E-03
 -0.5050018E-02  0.0000000E+00 -0.5050505E-02  0.1574080E-04  0.0000000E+00  0.1468631E-03
 -0.5049710E-02  0.0000000E+00 -0.5050505E-02  0.1720784E-04  0.0000000E+00  0.1535467E-03
 -0.5049253E-02  0.0000000E+00 -0.5050505E-02  0.1876916E-04  0.0000000E+00  0.1608472E-03
 -0.5048636E-02  0.0000000E+00 -0.5050505E-02  0.2043793E-04  0.0000000E+00  0.1688062E-03
 -0.5047442E-02  0.0000000E+00 -0.5050505E-02  0.2222942E-04  0.0000000E+00  0.1774710E-03
 -0.5045727E-02  0.0000000E+00 -0.5050505E-02  0.2416146E-04  0.0000000E+00  0.1868956E-03
 -0.5043261E-02  0.0000000E+00 -0.5050505E-02  0.2625499E-04  0.0000000E+00  0.1971421E-03
 -0.5038714E-02  0.0000000E+00 -0.5050505E-02  0.2853482E-04  0.0000000E+00  0.2082819E-03
 -0.5032318E-02  0.0000000E+00 -0.5050505E-02  0.3103049E-04  0.0000000E+00  0.2203972E-03
 -0.5022454E-02  0.0000000E+00 -0.5050505E-02  0.3377736E-04  0.0000000E+00  0.2335841E-03
 -0.5012589E-02  0.0000000E+00 -0.5050505E-02  0.3681783E-04  0.0000000E+00  0.2479543E-03
 -0.5002725E-02  0.0000000E+00 -0.5050505E-02  0.4020268E-04  0.0000000E+00  0.2636398E-03
 -0.4992860E-02  0.0000000E+00 -0.5050505E-02  0.4399239E-04  0.0000000E+00  0.2807963E-03
 -0.4976523E-02  0.0000000E+00 -0.5050505E-02  0.4825793E-04  0.0000000E+00  0.2996099E-03
 -0.4956794E-02  0.0000000E+00 -0.5050505E-02  0.5308035E-04  0.0000000E+00  0.3203038E-03
 -0.4937066E-02  0.0000000E+00 -0.5050505E-02  0.5854733E-04  0.0000000E+00  0.3431480E-03
 -0.4906239E-02  0.0000000E+00 -0.5050505E-02  0.6474332E-04  0.0000000E+00  0.3684709E-03
 -0.4866782E-02  0.0000000E+00 -0.5050505E-02  0.7172620E-04  0.0000000E+00  0.3966738E-03
 -0.4827325E-02  0.0000000E+00 -0.5050505E-02  0.7947566E-04  0.0000000E+00  0.4282447E-03
 -0.4769372E-02  0.0000000E+00 -0.5050505E-02  0.8778373E-04  0.0000000E+00  0.4637550E-03
 -0.4690458E-02  0.0000000E+00 -0.5050505E-02  0.9602921E-04  0.0000000E+00  0.5037756E-03
 -0.4611543E-02  0.0000000E+00 -0.5050505E-02  0.1027508E-03  0.0000000E+00  0.5484919E-03
 -0.4503035E-02  0.0000000E+00 -0.5050505E-02  0.1050783E-03  0.0000000E+00  0.5964393E-03
 -0.4345206E-02  0.0000000E+00 -0.5050505E-02  0.9961847E-04  0.0000000E+00  0.6419893E-03
 -0.4187378E-02  0.0000000E+00 -0.5050505E-02  0.9698161E-04  0.0000000E+00  0.6827235E-03
 -0.3985156E-02  0.0000000E+00 -0.5050505E-02  0.9834906E-04  0.0000000E+00  0.7214552E-03
 -0.3669499E-02  0.0000000E+00 -0.5050505E-02  0.1051676E-03  0.0000000E+00  0.7599778E-03
 -0.3353842E-02  0.0000000E+00 -0.5050505E-02  0.1188551E-03  0.0000000E+00  0.7992826E-03
 -0.2978990E-02  0.0000000E+00 -0.5050505E-02  0.1411158E-03  0.0000000E+00  0.8383484E-03
 -0.2347676E-02  0.0000000E+00 -0.5050505E-02  0.1721549E-03  0.0000000E+00  0.8730355E-03
 -0.1716362E-02  0.0000000E+00 -0.5050505E-02  0.1973862E-03  0.0000000E+00  0.9064037E-03
 -0.1025842E-02  0.0000000E+00 -0.5050505E-02  0.2236720E-03  0.0000000E+00  0.9447689E-03
  0.2367855E-03  0.0000000E+00 -0.5050505E-02  0.2412419E-03  0.0000000E+00  0.1000359E-02
  0.1499413E-02  0.0000000E+00 -0.5050505E-02  0.2779139E-03  0.0000000E+00  0.1090806E-02
  0.2762042E-02  0.0000000E+00 -0.5050505E-02  0.2870099E-03  0.0000000E+00  0.1231272E-02
 -0.5050505E-02  0.0000000E+00 -0.5050505E-02  0.3198751E-03  0.0000000E+00  0.1422043E-02
 -0.5050505E-02  0.0000000E+00 -0.5050505E-02  0.2941161E-03  0.0000000E+00  0.1576988E-02
 -0.5050505E-02  0.0000000E+00 -0.5050505E-02  0.4088530E-03  0.0000000E+00  0.1695346E-02
 -0.5050505E-02  0.0000000E+00 -0.5050505E-02  0.4853134E-03  0.0000000E+00  0.1853295E-02
 -0.5050505E-02  0.0000000E+00 -0.5050505E-02  0.2993549E-03  0.0000000E+00  0.1939019E-02
 -0.5050505E-02  0.0000000E+00 -0.5050505E-02  0.5379983E-03  0.0000000E+00  0.2001261E-02
 -0.5050505E-02  0.0000000E+00 -0.5050505E-02  0.2646561E-03  0.0000000E+00  0.2187393E-02
 -0.5050504E-02  0.0000000E+00 -0.5050505E-02 -0.8784786E-03  0.0000000E+00  0.2192195E-02
 -0.5050501E-02  0.0000000E+00 -0.5050505E-02 -0.4891723E-03  0.0000000E+00  0.2031522E-02
 -0.5050495E-02  0.0000000E+00 -0.5050505E-02 -0.3185810E-03  0.0000000E+00  0.1895895E-02
 -0.5050482E-02  0.0000000E+00 -0.5050505E-02 -0.2389460E-03  0.0000000E+00  0.1725184E-02
 -0.5050449E-02  0.0000000E+00 -0.5050505E-02 -0.1725213E-03  0.0000000E+00  0.1654209E-02
 -0.5050376E-02  0.0000000E+00 -0.5050505E-02 -0.1181761E-03  0.0000000E+00  0.1658629E-02
 -0.5050299E-02  0.0000000E+00 -0.5050505E-02 -0.4178696E-04  0.0000000E+00  0.1642214E-02
 -0.5050178E-02  0.0000000E+00 -0.5050505E-02 -0.1688071E-03  0.0000000E+00  0.1619669E-02
 -0.5050018E-02  0.0000000E+00 -0.5050505E-02 -0.1400743E-03  0.0000000E+00  0.1582516E-02
 -0.5049710E-02  0.0000000E+00 -0.5050505E-02 -0.9909321E-04  0.0000000E+00  0.1535626E-02
 -0.5049253E-02  0.0000000E+00 -0.5050505E-02 -0.1032430E-03  0.0000000E+00  0.1452477E-02
 -0.5048636E-02  0.0000000E+00 -0.5050505E-02 -0.1469248E-03  0.0000000E+00  0.1333971E-02
 -0.5047442E-02  0.0000000E+00 -0.5050505E-02 -0.1311959E-03  0.0000000E+00  0.1286551E-02
 -0.5045727E-02  0.0000000E+00 -0.5050505E-02 -0.8427151E-04  0.0000000E+00  0.1308834E-02
 -0.5043261E-02  0.0000000E+00 -0.5050505E-02 -0.1265662E-03  0.0000000E+00  0.1298209E-02
 -0.5038714E-02  0.0000000E+00 -0.5050505E-02 -0.1441119E-03  0.0000000E+00  0.1245136E-02
 -0.5032318E-02  0.0000000E+00 -0.5050505E-02 -0.1874358E-03  0.0000000E+00  0.1167401E-02
 -0.5022454E-02  0.0000000E+00 -0.5050505E-02 -0.2055849E-03  0.0000000E+00  0.1062188E-02
 -0.5012589E-02  0.0000000E+00 -0.5050505E-02 -0.1873918E-03  0.0000000E+00  0.9629727E-03
 -0.5002725E-02  0.0000000E+00 -0.5050505E-02 -0.1782436E-03  0.0000000E+00  0.8768049E-03
 -0.4992860E-02  0.0000000E+00 -0.5050505E-02 -0.1555756E-03  0.0000000E+00  0.7993542E-03
 -0.4976523E-02  0.0000000E+00 -0.5050505E-02 -0.1345004E-03  0.0000000E+00  0.7360587E-03
 -0.4956794E-02  0.0000000E+00 -0.5050505E-02 -0.1170047E-03  0.0000000E+00  0.6828842E-03
 -0.4937066E-02  0.0000000E+00 -0.5050505E-02 -0.1026058E-03  0.0000000E+00  0.6369648E-03
 -0.4906239E-02  0.0000000E+00 -0.5050505E-02 -0.9057507E-04  0.0000000E+00  0.5966747E-03
 -0.4866782E-02  0.0000000E+00 -0.5050505E-02 -0.8033580E-04  0.0000000E+00  0.5610312E-03
 -0.4827325E-02  0.0000000E+00 -0.5050505E-02 -0.7147816E-04  0.0000000E+00  0.5293638E-03
 -0.4769372E-02  0.0000000E+00 -0.5050505E-02 -0.6371286E-04  0.0000000E+00  0.5011674E-03
 -0.4690458E-02  0.0000000E+00 -0.5050505E-02 -0.5682952E-04  0.0000000E+00  0.4760374E-03
 -0.4611543E-02  0.0000000E+00 -0.5050505E-02 -0.5066862E-04  0.0000000E+00  0.4536409E-03
 -0.4503035E-02  0.0000000E+00 -0.5050505E-02 -0.4510414E-04  0.0000000E+00  0.4337003E-03
 -0.4345206E-02  0.0000000E+00 -0.5050505E-02 -0.4003294E-04  0.0000000E+00  0.4159837E-03
 -0.4187378E-02  0.0000000E+00 -0.5050505E-02 -0.3536793E-04  0.0000000E+00  0.4002978E-03
 -0.3985156E-02  0.0000000E+00 -0.5050505E-02 -0.3103295E-04  0.0000000E+00  0.3864818E-03
 -0.3669499E-02  0.0000000E+00 -0.5050505E-02 -0.2695809E-04  0.0000000E+00  0.3744023E-03
 -0.3353842E-02  0.0000000E+00 -0.5050505E-02 -0.2307401E-04  0.0000000E+00  0.3639484E-03
 -0.2978990E-02  0.0000000E+00 -0.5050505E-02 -0.1930373E-04  0.0000000E+00  0.3550244E-03
 -0.2347676E-02  0.0000000E+00 -0.5050505E-02 -0.1554946E-04  0.0000000E+00  0.3475352E-03
 -0.1716362E-02  0.0000000E+00 -0.5050505E-02 -0.1167142E-04  0.0000000E+00  0.3413514E-03
 -0.1025842E-02  0.0000000E+00 -0.5050505E-02 -0.7462075E-05  0.0000000E+00  0.3362168E-03
  0.2367855E-03  0.0000000E+00 -0.5050505E-02 -0.2662056E-05  0.0000000E+00  0.3315286E-03
  0.1499413E-02  0.0000000E+00 -0.5050505E-02  0.2707670E-05  0.0000000E+00  0.3259804E-03
  0.5287294E-02  0.0000000E+00 -0.5050505E-02  0.6338193E-05  0.0000000E+00  0.3181920E-03
 -0.5050505E-02  0.0000000E+00 -0.5050505E-02  0.6532128E-06  0.0000000E+00  0.1036464E-03
 -0.5050505E-02  0.0000000E+00 -0.5050505E-02  0.1962191E-05  0.0000000E+00  0.1040228E-03
 -0.5050505E-02  0.0000000E+00 -0.5050505E-02  0.3278879E-05  0.0000000E+00  0.1047769E-03
 -0.5050505E-02  0.0000000E+00 -0.5050505E-02  0.4608549E-05  0.0000000E+00  0.1059118E-03
 -0.5050505E-02  0.0000000E+00 -0.5050505E-02  0.5956647E-05  0.0000000E+00  0.1074317E-03
 -0.5050505E-02  0.0000000E+00 -0.5050505E-02  0.7328853E-05  0.0000000E+00  0.1093430E-03
 -0.5050504E-02  0.0000000E+00 -0.5050505E-02  0.8731151E-05  0.0000000E+00  0.1116532E-03
 -0.5050501E-02  0.0000000E+00 -0.5050505E-02  0.1016990E-04  0.0000000E+00  0.1143720E-03
 -0.5050495E-02  0.0000000E+00 -0.5050505E-02  0.1165193E-04  0.0000000E+00  0.1175109E-03
 -0.5050482E-02  0.0000000E+00 -0.5050505E-02  0.1318461E-04  0.0000000E+00  0.1210834E-03
 -0.5050449E-02  0.0000000E+00 -0.5050505E-02  0.1477599E-04  0.0000000E+00  0.1251051E-03
 -0.5050376E-02  0.0000000E+00 -0.5050505E-02  0.1643491E-04  0.0000000E+00  0.1295943E-03
 -0.5050299E-02  0.0000000E+00 -0.5050505E-02  0.1817112E-04  0.0000000E+00  0.1345718E-03
 -0.5050178E-02  0.0000000E+00 -0.5050505E-02  0.1999553E-04  0.0000000E+00  0.1400613E-03
 -0.5050018E-02  0.0000000E+00 -0.5050505E-02  0.2192033E-04  0.0000000E+00  0.1460899E-03
 -0.5049710E-02  0.0000000E+00 -0.5050505E-02  0.2395932E-04  0.0000000E+00  0.1526882E-03
 -0.5049253E-02  0.0000000E+00 -0.5050505E-02  0.2612820E-04  0.0000000E+00  0.1598910E-03
 -0.5048636E-02  0.0000000E+00 -0.5050505E-02  0.2844497E-04  0.0000000E+00  0.1677380E-03
 -0.5047442E-02  0.0000000E+00 -0.5050505E-02  0.3093042E-04  0.0000000E+00  0.1762738E-03
 -0.5045727E-02  0.0000000E+00 -0.5050505E-02  0.3360876E-04  0.0000000E+00  0.1855497E-03
 -0.5043261E-02  0.0000000E+00 -0.5050505E-02  0.3650843E-04  0.0000000E+00  0.1956237E-03
 -0.5038714E-02  0.0000000E+00 -0.5050505E-02  0.3966305E-04  0.0000000E+00  0.2065626E-03
 -0.5032318E-02  0.0000000E+00 -0.5050505E-02  0.4311269E-04  0.0000000E+00  0.2184429E-03
 -0.5022454E-02  0.0000000E+00 -0.5050505E-02  0.4690536E-04  0.0000000E+00  0.2313533E-03
 -0.5012589E-02  0.0000000E+00 -0.5050505E-02  0.5109888E-04  0.0000000E+00  0.2453971E-03
 -0.5002725E-02  0.0000000E+00 -0.5050505E-02  0.5576304E-04  0.0000000E+00  0.2606955E-03
 -0.4992860E-02  0.0000000E+00 -0.5050505E-02  0.6098198E-04  0.0000000E+00  0.2773928E-03
 -0.4976523E-02  0.0000000E+00 -0.5050505E-02  0.6685661E-04  0.0000000E+00  0.2956622E-03
 -0.4956794E-02  0.0000000E+00 -0.5050505E-02  0.7350652E-04  0.0000000E+00  0.3157152E-03
 -0.4937066E-02  0.0000000E+00 -0.5050505E-02  0.8107012E-04  0.0000000E+00  0.3378160E-03