title = "dataset feddes"
variables = "x", "y", "z", "vx", "vy", "vz"
zone t = "velocities, solution time =  4.200E+01 days        " i =   99, j =   99, k =    1,  f=point
 -0.5050505E-02  0.0000000E+00 -0.5050505E-02  0.4434054E-07  0.0000000E+00 -0.1260344E-03
 -0.5050505E-02  0.0000000E+00 -0.5050505E-02  0.1331285E-06  0.0000000E+00 -0.1258542E-03
 -0.5050505E-02  0.0000000E+00 -0.5050505E-02  0.2222394E-06  0.0000000E+00 -0.1254934E-03
 -0.5050505E-02  0.0000000E+00 -0.5050505E-02  0.3118939E-06  0.0000000E+00 -0.1249512E-03
 -0.5050505E-02  0.0000000E+00 -0.5050505E-02  0.4023181E-06  0.0000000E+00 -0.1242262E-03
 -0.5050505E-02  0.0000000E+00 -0.5050505E-02  0.4937457E-06  0.0000000E+00 -0.1233167E-03
 -0.5050504E-02  0.0000000E+00 -0.5050505E-02  0.5864200E-06  0.0000000E+00 -0.1222205E-03
 -0.5050501E-02  0.0000000E+00 -0.5050505E-02  0.6805959E-06  0.0000000E+00 -0.1209348E-03
 -0.5050495E-02  0.0000000E+00 -0.5050505E-02  0.7765426E-06  0.0000000E+00 -0.1194565E-03
 -0.5050482E-02  0.0000000E+00 -0.5050505E-02  0.8745457E-06  0.0000000E+00 -0.1177818E-03
 -0.5050449E-02  0.0000000E+00 -0.5050505E-02  0.9749104E-06  0.0000000E+00 -0.1159063E-03
 -0.5050376E-02  0.0000000E+00 -0.5050505E-02  0.1077964E-05  0.0000000E+00 -0.1138250E-03
 -0.5050299E-02  0.0000000E+00 -0.5050505E-02  0.1184062E-05  0.0000000E+00 -0.1115322E-03
 -0.5050178E-02  0.0000000E+00 -0.5050505E-02  0.1293585E-05  0.0000000E+00 -0.1090217E-03
 -0.5050018E-02  0.0000000E+00 -0.5050505E-02  0.1406952E-05  0.0000000E+00 -0.1062862E-03
 -0.5049710E-02  0.0000000E+00 -0.5050505E-02  0.1524619E-05  0.0000000E+00 -0.1033178E-03
 -0.5049253E-02  0.0000000E+00 -0.5050505E-02  0.1647084E-05  0.0000000E+00 -0.1001074E-03
 -0.5048636E-02  0.0000000E+00 -0.5050505E-02  0.1774898E-05  0.0000000E+00 -0.9664519E-04
 -0.5047442E-02  0.0000000E+00 -0.5050505E-02  0.1908666E-05  0.0000000E+00 -0.9291993E-04
 -0.5045727E-02  0.0000000E+00 -0.5050505E-02  0.2049059E-05  0.0000000E+00 -0.8891933E-04
 -0.5043261E-02  0.0000000E+00 -0.5050505E-02  0.2196819E-05  0.0000000E+00 -0.8462966E-04
 -0.5038714E-02  0.0000000E+00 -0.5050505E-02  0.2352773E-05  0.0000000E+00 -0.8003568E-04
 -0.5032318E-02  0.0000000E+00 -0.5050505E-02  0.2517840E-05  0.0000000E+00 -0.7512046E-04
 -0.5022454E-02  0.0000000E+00 -0.5050505E-02  0.2693051E-05  0.0000000E+00 -0.6986517E-04
 -0.5012589E-02  0.0000000E+00 -0.5050505E-02  0.2879557E-05  0.0000000E+00 -0.6424888E-04
 -0.5002725E-02  0.0000000E+00 -0.5050505E-02  0.3078653E-05  0.0000000E+00 -0.5824833E-04
 -0.4992860E-02  0.0000000E+00 -0.5050505E-02  0.3291798E-05  0.0000000E+00 -0.5183758E-04
 -0.4976523E-02  0.0000000E+00 -0.5050505E-02  0.3520639E-05  0.0000000E+00 -0.4498774E-04
 -0.4956794E-02  0.0000000E+00 -0.5050505E-02  0.3767045E-05  0.0000000E+00 -0.3766657E-04
 -0.4937066E-02  0.0000000E+00 -0.5050505E-02  0.4033138E-05  0.0000000E+00 -0.2983801E-04
 -0.4906239E-02  0.0000000E+00 -0.5050505E-02  0.4321346E-05  0.0000000E+00 -0.2146170E-04
 -0.4866782E-02  0.0000000E+00 -0.5050505E-02  0.4634448E-05  0.0000000E+00 -0.1249236E-04
 -0.4827325E-02  0.0000000E+00 -0.5050505E-02  0.4975648E-05  0.0000000E+00 -0.2875745E-05
 -0.4769372E-02  0.0000000E+00 -0.5050505E-02  0.5348739E-05  0.0000000E+00  0.7467694E-05
 -0.4690458E-02  0.0000000E+00 -0.5050505E-02  0.5758156E-05  0.0000000E+00  0.1861749E-04
 -0.4611543E-02  0.0000000E+00 -0.5050505E-02  0.6209107E-05  0.0000000E+00  0.3064742E-04
 -0.4503035E-02  0.0000000E+00 -0.5050505E-02  0.6707760E-05  0.0000000E+00  0.4365108E-04
 -0.4345206E-02  0.0000000E+00 -0.5050505E-02  0.7261482E-05  0.0000000E+00  0.5773662E-04
 -0.4187378E-02  0.0000000E+00 -0.5050505E-02  0.7879154E-05  0.0000000E+00  0.7302967E-04
 -0.3985156E-02  0.0000000E+00 -0.5050505E-02  0.8571609E-05  0.0000000E+00  0.8967718E-04
 -0.3669499E-02  0.0000000E+00 -0.5050505E-02  0.9352258E-05  0.0000000E+00  0.1078524E-03
 -0.3353842E-02  0.0000000E+00 -0.5050505E-02  0.1023799E-04  0.0000000E+00  0.1277616E-03
 -0.2978990E-02  0.0000000E+00 -0.5050505E-02  0.1125054E-04  0.0000000E+00  0.1496532E-03
 -0.2347676E-02  0.0000000E+00 -0.5050505E-02  0.1241858E-04  0.0000000E+00  0.1738309E-03
 -0.1716362E-02  0.0000000E+00 -0.5050505E-02  0.1378092E-04  0.0000000E+00  0.2006725E-03
 -0.1025842E-02  0.0000000E+00 -0.5050505E-02  0.1539145E-04  0.0000000E+00  0.2306579E-03
  0.2367855E-03  0.0000000E+00 -0.5050505E-02  0.1732609E-04  0.0000000E+00  0.2644106E-03
  0.1499413E-02  0.0000000E+00 -0.5050505E-02  0.1969129E-04  0.0000000E+00  0.3027567E-03
  0.2762042E-02  0.0000000E+00 -0.5050505E-02  0.2262856E-04  0.0000000E+00  0.3468011E-03
 -0.5050505E-02  0.0000000E+00 -0.5050505E-02  0.2629369E-04  0.0000000E+00  0.3979909E-03
 -0.5050505E-02  0.0000000E+00 -0.5050505E-02  0.3074313E-04  0.0000000E+00  0.4580439E-03
 -0.5050505E-02  0.0000000E+00 -0.5050505E-02  0.3557146E-04  0.0000000E+00  0.5283736E-03
 -0.5050505E-02  0.0000000E+00 -0.5050505E-02  0.3930444E-04  0.0000000E+00  0.6084517E-03
 -0.5050505E-02  0.0000000E+00 -0.5050505E-02  0.4216564E-04  0.0000000E+00  0.6964170E-03
 -0.5050505E-02  0.0000000E+00 -0.5050505E-02  0.5389634E-04  0.0000000E+00  0.8012827E-03
 -0.5050505E-02  0.0000000E+00 -0.5050505E-02  0.8866341E-04  0.0000000E+00  0.9590243E-03
 -0.5050504E-02  0.0000000E+00 -0.5050505E-02 -0.1004890E-03  0.0000000E+00  0.9462086E-03
 -0.5050501E-02  0.0000000E+00 -0.5050505E-02 -0.6010023E-04  0.0000000E+00  0.7691489E-03
 -0.5050495E-02  0.0000000E+00 -0.5050505E-02 -0.4205485E-04  0.0000000E+00  0.6581072E-03
 -0.5050482E-02  0.0000000E+00 -0.5050505E-02 -0.3231938E-04  0.0000000E+00  0.5780657E-03
 -0.5050449E-02  0.0000000E+00 -0.5050505E-02 -0.2630501E-04  0.0000000E+00  0.5154580E-03
 -0.5050376E-02  0.0000000E+00 -0.5050505E-02 -0.2222642E-04  0.0000000E+00  0.4639542E-03
 -0.5050299E-02  0.0000000E+00 -0.5050505E-02 -0.1926955E-04  0.0000000E+00  0.4201509E-03
 -0.5050178E-02  0.0000000E+00 -0.5050505E-02 -0.1701434E-04  0.0000000E+00  0.3820266E-03
 -0.5050018E-02  0.0000000E+00 -0.5050505E-02 -0.1522478E-04  0.0000000E+00  0.3482908E-03
 -0.5049710E-02  0.0000000E+00 -0.5050505E-02 -0.1376014E-04  0.0000000E+00  0.3180714E-03
 -0.5049253E-02  0.0000000E+00 -0.5050505E-02 -0.1253242E-04  0.0000000E+00  0.2907498E-03
 -0.5048636E-02  0.0000000E+00 -0.5050505E-02 -0.1148404E-04  0.0000000E+00  0.2658688E-03
 -0.5047442E-02  0.0000000E+00 -0.5050505E-02 -0.1057565E-04  0.0000000E+00  0.2430782E-03
 -0.5045727E-02  0.0000000E+00 -0.5050505E-02 -0.9779114E-05  0.0000000E+00  0.2221026E-03
 -0.5043261E-02  0.0000000E+00 -0.5050505E-02 -0.9073546E-05  0.0000000E+00  0.2027207E-03
 -0.5038714E-02  0.0000000E+00 -0.5050505E-02 -0.8442865E-05  0.0000000E+00  0.1847520E-03
 -0.5032318E-02  0.0000000E+00 -0.5050505E-02 -0.7874373E-05  0.0000000E+00  0.1680474E-03
 -0.5022454E-02  0.0000000E+00 -0.5050505E-02 -0.7357843E-05  0.0000000E+00  0.1524831E-03
 -0.5012589E-02  0.0000000E+00 -0.5050505E-02 -0.6884925E-05  0.0000000E+00  0.1379556E-03
 -0.5002725E-02  0.0000000E+00 -0.5050505E-02 -0.6448744E-05  0.0000000E+00  0.1243779E-03
 -0.4992860E-02  0.0000000E+00 -0.5050505E-02 -0.6043607E-05  0.0000000E+00  0.1116766E-03
 -0.4976523E-02  0.0000000E+00 -0.5050505E-02 -0.5664781E-05  0.0000000E+00  0.9978962E-04
 -0.4956794E-02  0.0000000E+00 -0.5050505E-02 -0.5308322E-05  0.0000000E+00  0.8866429E-04
 -0.4937066E-02  0.0000000E+00 -0.5050505E-02 -0.4970938E-05  0.0000000E+00  0.7825567E-04
 -0.4906239E-02  0.0000000E+00 -0.5050505E-02 -0.4649874E-05  0.0000000E+00  0.6852536E-04
 -0.4866782E-02  0.0000000E+00 -0.5050505E-02 -0.4342824E-05  0.0000000E+00  0.5944041E-04
 -0.4827325E-02  0.0000000E+00 -0.5050505E-02 -0.4047847E-05  0.0000000E+00  0.5097244E-04
 -0.4769372E-02  0.0000000E+00 -0.5050505E-02 -0.3763311E-05  0.0000000E+00  0.4309691E-04
 -0.4690458E-02  0.0000000E+00 -0.5050505E-02 -0.3487837E-05  0.0000000E+00  0.3579254E-04
 -0.4611543E-02  0.0000000E+00 -0.5050505E-02 -0.3220256E-05  0.0000000E+00  0.2904079E-04
 -0.4503035E-02  0.0000000E+00 -0.5050505E-02 -0.2959579E-05  0.0000000E+00  0.2282547E-04
 -0.4345206E-02  0.0000000E+00 -0.5050505E-02 -0.2704969E-05  0.0000000E+00  0.1713236E-04
 -0.4187378E-02  0.0000000E+00 -0.5050505E-02 -0.2455725E-05  0.0000000E+00  0.1194894E-04
 -0.3985156E-02  0.0000000E+00 -0.5050505E-02 -0.2211278E-05  0.0000000E+00  0.7264076E-05
 -0.3669499E-02  0.0000000E+00 -0.5050505E-02 -0.1971221E-05  0.0000000E+00  0.3067727E-05
 -0.3353842E-02  0.0000000E+00 -0.5050505E-02 -0.1735358E-05  0.0000000E+00 -0.6463015E-06
 -0.2978990E-02  0.0000000E+00 -0.5050505E-02 -0.1503643E-05  0.0000000E+00 -0.3887171E-05
 -0.2347676E-02  0.0000000E+00 -0.5050505E-02 -0.1277328E-05  0.0000000E+00 -0.6669426E-05
 -0.1716362E-02  0.0000000E+00 -0.5050505E-02 -0.1059385E-05  0.0000000E+00 -0.9008018E-05
 -0.1025842E-02  0.0000000E+00 -0.5050505E-02 -0.8584137E-06  0.0000000E+00 -0.1092791E-04
  0.2367855E-03  0.0000000E+00 -0.5050505E-02 -0.7005459E-06  0.0000000E+00 -0.1248895E-04
  0.1499413E-02  0.0000000E+00 -0.5050505E-02 -0.6720538E-06  0.0000000E+00 -0.1386365E-04
  0.5287294E-02  0.0000000E+00 -0.5050505E-02 -0.5311264E-05  0.0000000E+00 -0.1140179E-04
 -0.5050505E-02  0.0000000E+00 -0.5050505E-02  0.1328917E-06  0.0000000E+00 -0.1258387E-03
 -0.5050505E-02  0.0000000E+00 -0.5050505E-02  0.3989959E-06  0.0000000E+00 -0.1256586E-03
 -0.5050505E-02  0.0000000E+00 -0.5050505E-02  0.6660687E-06  0.0000000E+00 -0.1252979E-03
 -0.5050505E-02  0.0000000E+00 -0.5050505E-02  0.9347703E-06  0.0000000E+00 -0.1247558E-03
 -0.5050505E-02  0.0000000E+00 -0.5050505E-02  0.1205777E-05  0.0000000E+00 -0.1240310E-03
 -0.5050505E-02  0.0000000E+00 -0.5050505E-02  0.1479790E-05  0.0000000E+00 -0.1231218E-03
 -0.5050504E-02  0.0000000E+00 -0.5050505E-02  0.1757535E-05  0.0000000E+00 -0.1220260E-03
 -0.5050501E-02  0.0000000E+00 -0.5050505E-02  0.2039775E-05  0.0000000E+00 -0.1207409E-03
 -0.5050495E-02  0.0000000E+00 -0.5050505E-02  0.2327316E-05  0.0000000E+00 -0.1192632E-03
 -0.5050482E-02  0.0000000E+00 -0.5050505E-02  0.2621013E-05  0.0000000E+00 -0.1175892E-03
 -0.5050449E-02  0.0000000E+00 -0.5050505E-02  0.2921778E-05  0.0000000E+00 -0.1157146E-03
 -0.5050376E-02  0.0000000E+00 -0.5050505E-02  0.3230592E-05  0.0000000E+00 -0.1136345E-03
 -0.5050299E-02  0.0000000E+00 -0.5050505E-02  0.3548513E-05  0.0000000E+00 -0.1113431E-03
 -0.5050178E-02  0.0000000E+00 -0.5050505E-02  0.3876688E-05  0.0000000E+00 -0.1088343E-03
 -0.5050018E-02  0.0000000E+00 -0.5050505E-02  0.4216365E-05  0.0000000E+00 -0.1061008E-03
 -0.5049710E-02  0.0000000E+00 -0.5050505E-02  0.4568907E-05  0.0000000E+00 -0.1031348E-03
 -0.5049253E-02  0.0000000E+00 -0.5050505E-02  0.4935808E-05  0.0000000E+00 -0.9992726E-04
 -0.5048636E-02  0.0000000E+00 -0.5050505E-02  0.5318713E-05  0.0000000E+00 -0.9646835E-04
 -0.5047442E-02  0.0000000E+00 -0.5050505E-02  0.5719434E-05  0.0000000E+00 -0.9274702E-04
 -0.5045727E-02  0.0000000E+00 -0.5050505E-02  0.6139974E-05  0.0000000E+00 -0.8875103E-04
 -0.5043261E-02  0.0000000E+00 -0.5050505E-02  0.6582556E-05  0.0000000E+00 -0.8446675E-04
 -0.5038714E-02  0.0000000E+00 -0.5050505E-02  0.7049650E-05  0.0000000E+00 -0.7987905E-04
 -0.5032318E-02  0.0000000E+00 -0.5050505E-02  0.7544010E-05  0.0000000E+00 -0.7497114E-04
 -0.5022454E-02  0.0000000E+00 -0.5050505E-02  0.8068710E-05  0.0000000E+00 -0.6972434E-04
 -0.5012589E-02  0.0000000E+00 -0.5050505E-02  0.8627198E-05  0.0000000E+00 -0.6411791E-04
 -0.5002725E-02  0.0000000E+00 -0.5050505E-02  0.9223342E-05  0.0000000E+00 -0.5812877E-04
 -0.4992860E-02  0.0000000E+00 -0.5050505E-02  0.9861503E-05  0.0000000E+00 -0.5173123E-04
 -0.4976523E-02  0.0000000E+00 -0.5050505E-02  0.1054661E-04  0.0000000E+00 -0.4489668E-04
 -0.4956794E-02  0.0000000E+00 -0.5050505E-02  0.1128423E-04  0.0000000E+00 -0.3759319E-04
 -0.4937066E-02  0.0000000E+00 -0.5050505E-02  0.1208072E-04  0.0000000E+00 -0.2978509E-04
 -0.4906239E-02  0.0000000E+00 -0.5050505E-02  0.1294332E-04  0.0000000E+00 -0.2143249E-04
 -0.4866782E-02  0.0000000E+00 -0.5050505E-02  0.1388034E-04  0.0000000E+00 -0.1249063E-04
 -0.4827325E-02  0.0000000E+00 -0.5050505E-02  0.1490132E-04  0.0000000E+00 -0.2906023E-05
 -0.4769372E-02  0.0000000E+00 -0.5050505E-02  0.1601758E-04  0.0000000E+00  0.7399977E-05
 -0.4690458E-02  0.0000000E+00 -0.5050505E-02  0.1724231E-04  0.0000000E+00  0.1850587E-04
 -0.4611543E-02  0.0000000E+00 -0.5050505E-02  0.1859102E-04  0.0000000E+00  0.3048413E-04
 -0.4503035E-02  0.0000000E+00 -0.5050505E-02  0.2008204E-04  0.0000000E+00  0.4342675E-04
 -0.4345206E-02  0.0000000E+00 -0.5050505E-02  0.2173725E-04  0.0000000E+00  0.5743978E-04
 -0.4187378E-02  0.0000000E+00 -0.5050505E-02  0.2358296E-04  0.0000000E+00  0.7264612E-04
 -0.3985156E-02  0.0000000E+00 -0.5050505E-02  0.2565120E-04  0.0000000E+00  0.8918906E-04
 -0.3669499E-02  0.0000000E+00 -0.5050505E-02  0.2798148E-04  0.0000000E+00  0.1072369E-03
 -0.3353842E-02  0.0000000E+00 -0.5050505E-02  0.3062334E-04  0.0000000E+00  0.1269887E-03
 -0.2978990E-02  0.0000000E+00 -0.5050505E-02  0.3364025E-04  0.0000000E+00  0.1486828E-03
 -0.2347676E-02  0.0000000E+00 -0.5050505E-02  0.3711544E-04  0.0000000E+00  0.1726073E-03
 -0.1716362E-02  0.0000000E+00 -0.5050505E-02  0.4116116E-04  0.0000000E+00  0.1991172E-03
 -0.1025842E-02  0.0000000E+00 -0.5050505E-02  0.4593302E-04  0.0000000E+00  0.2286577E-03
  0.2367855E-03  0.0000000E+00 -0.5050505E-02  0.5165177E-04  0.0000000E+00  0.2618024E-03
  0.1499413E-02  0.0000000E+00 -0.5050505E-02  0.5863413E-04  0.0000000E+00  0.2993154E-03
  0.2762042E-02  0.0000000E+00 -0.5050505E-02  0.6732711E-04  0.0000000E+00  0.3422553E-03
 -0.5050505E-02  0.0000000E+00 -0.5050505E-02  0.7830951E-04  0.0000000E+00  0.3921570E-03
 -0.5050505E-02  0.0000000E+00 -0.5050505E-02  0.9209480E-04  0.0000000E+00  0.4512998E-03
 -0.5050505E-02  0.0000000E+00 -0.5050505E-02  0.1080194E-03  0.0000000E+00  0.5226224E-03
 -0.5050505E-02  0.0000000E+00 -0.5050505E-02  0.1189919E-03  0.0000000E+00  0.6049507E-03
 -0.5050505E-02  0.0000000E+00 -0.5050505E-02  0.1184788E-03  0.0000000E+00  0.6851819E-03
 -0.5050505E-02  0.0000000E+00 -0.5050505E-02  0.1408822E-03  0.0000000E+00  0.7583750E-03
 -0.5050505E-02  0.0000000E+00 -0.5050505E-02  0.1949267E-03  0.0000000E+00  0.8141822E-03
 -0.5050504E-02  0.0000000E+00 -0.5050505E-02 -0.2358682E-03  0.0000000E+00  0.7956839E-03
 -0.5050501E-02  0.0000000E+00 -0.5050505E-02 -0.1602869E-03  0.0000000E+00  0.7141415E-03
 -0.5050495E-02  0.0000000E+00 -0.5050505E-02 -0.1187330E-03  0.0000000E+00  0.6334636E-03
 -0.5050482E-02  0.0000000E+00 -0.5050505E-02 -0.9365810E-04  0.0000000E+00  0.5651890E-03
 -0.5050449E-02  0.0000000E+00 -0.5050505E-02 -0.7722451E-04  0.0000000E+00  0.5079994E-03
 -0.5050376E-02  0.0000000E+00 -0.5050505E-02 -0.6572166E-04  0.0000000E+00  0.4593379E-03
 -0.5050299E-02  0.0000000E+00 -0.5050505E-02 -0.5722742E-04  0.0000000E+00  0.4171646E-03
 -0.5050178E-02  0.0000000E+00 -0.5050505E-02 -0.5067122E-04  0.0000000E+00  0.3800341E-03
 -0.5050018E-02  0.0000000E+00 -0.5050505E-02 -0.4542536E-04  0.0000000E+00  0.3469336E-03
 -0.5049710E-02  0.0000000E+00 -0.5050505E-02 -0.4110639E-04  0.0000000E+00  0.3171371E-03
 -0.5049253E-02  0.0000000E+00 -0.5050505E-02 -0.3747062E-04  0.0000000E+00  0.2901079E-03
 -0.5048636E-02  0.0000000E+00 -0.5050505E-02 -0.3435663E-04  0.0000000E+00  0.2654359E-03
 -0.5047442E-02  0.0000000E+00 -0.5050505E-02 -0.3165274E-04  0.0000000E+00  0.2427990E-03
 -0.5045727E-02  0.0000000E+00 -0.5050505E-02 -0.2927829E-04  0.0000000E+00  0.2219390E-03
 -0.5043261E-02  0.0000000E+00 -0.5050505E-02 -0.2717276E-04  0.0000000E+00  0.2026453E-03
 -0.5038714E-02  0.0000000E+00 -0.5050505E-02 -0.2528924E-04  0.0000000E+00  0.1847445E-03
 -0.5032318E-02  0.0000000E+00 -0.5050505E-02 -0.2359042E-04  0.0000000E+00  0.1680924E-03
 -0.5022454E-02  0.0000000E+00 -0.5050505E-02 -0.2204611E-04  0.0000000E+00  0.1525686E-03
 -0.5012589E-02  0.0000000E+00 -0.5050505E-02 -0.2063162E-04  0.0000000E+00  0.1380722E-03
 -0.5002725E-02  0.0000000E+00 -0.5050505E-02 -0.1932652E-04  0.0000000E+00  0.1245180E-03
 -0.4992860E-02  0.0000000E+00 -0.5050505E-02 -0.1811392E-04  0.0000000E+00  0.1118343E-03
 -0.4976523E-02  0.0000000E+00 -0.5050505E-02 -0.1697974E-04  0.0000000E+00  0.9996024E-04
 -0.4956794E-02  0.0000000E+00 -0.5050505E-02 -0.1591225E-04  0.0000000E+00  0.8884399E-04
 -0.4937066E-02  0.0000000E+00 -0.5050505E-02 -0.1490164E-04  0.0000000E+00  0.7844149E-04
 -0.4906239E-02  0.0000000E+00 -0.5050505E-02 -0.1393973E-04  0.0000000E+00  0.6871498E-04
 -0.4866782E-02  0.0000000E+00 -0.5050505E-02 -0.1301963E-04  0.0000000E+00  0.5963205E-04
 -0.4827325E-02  0.0000000E+00 -0.5050505E-02 -0.1213557E-04  0.0000000E+00  0.5116475E-04
 -0.4769372E-02  0.0000000E+00 -0.5050505E-02 -0.1128270E-04  0.0000000E+00  0.4328890E-04
 -0.4690458E-02  0.0000000E+00 -0.5050505E-02 -0.1045690E-04  0.0000000E+00  0.3598351E-04
 -0.4611543E-02  0.0000000E+00 -0.5050505E-02 -0.9654687E-05  0.0000000E+00  0.2923028E-04
 -0.4503035E-02  0.0000000E+00 -0.5050505E-02 -0.8873108E-05  0.0000000E+00  0.2301324E-04
 -0.4345206E-02  0.0000000E+00 -0.5050505E-02 -0.8109657E-05  0.0000000E+00  0.1731836E-04
 -0.4187378E-02  0.0000000E+00 -0.5050505E-02 -0.7362224E-05  0.0000000E+00  0.1213330E-04
 -0.3985156E-02  0.0000000E+00 -0.5050505E-02 -0.6629076E-05  0.0000000E+00  0.7447150E-05
 -0.3669499E-02  0.0000000E+00 -0.5050505E-02 -0.5908918E-05  0.0000000E+00  0.3250211E-05
 -0.3353842E-02  0.0000000E+00 -0.5050505E-02 -0.5200975E-05  0.0000000E+00 -0.4633523E-06
 -0.2978990E-02  0.0000000E+00 -0.5050505E-02 -0.4504644E-05  0.0000000E+00 -0.3701188E-05
 -0.2347676E-02  0.0000000E+00 -0.5050505E-02 -0.3822417E-05  0.0000000E+00 -0.6474669E-05
 -0.1716362E-02  0.0000000E+00 -0.5050505E-02 -0.3159440E-05  0.0000000E+00 -0.8791037E-05
 -0.1025842E-02  0.0000000E+00 -0.5050505E-02 -0.2529193E-05  0.0000000E+00 -0.1065119E-04
  0.2367855E-03  0.0000000E+00 -0.5050505E-02 -0.1966282E-05  0.0000000E+00 -0.1203480E-04
  0.1499413E-02  0.0000000E+00 -0.5050505E-02 -0.1561856E-05  0.0000000E+00 -0.1282273E-04
  0.5287294E-02  0.0000000E+00 -0.5050505E-02 -0.1563664E-05  0.0000000E+00 -0.1244246E-04
 -0.5050505E-02  0.0000000E+00 -0.5050505E-02  0.2211724E-06  0.0000000E+00 -0.1254533E-03
 -0.5050505E-02  0.0000000E+00 -0.5050505E-02  0.6640513E-06  0.0000000E+00 -0.1252733E-03
 -0.5050505E-02  0.0000000E+00 -0.5050505E-02  0.1108541E-05  0.0000000E+00 -0.1249128E-03
 -0.5050505E-02  0.0000000E+00 -0.5050505E-02  0.1555738E-05  0.0000000E+00 -0.1243710E-03
 -0.5050505E-02  0.0000000E+00 -0.5050505E-02  0.2006764E-05  0.0000000E+00 -0.1236466E-03
 -0.5050505E-02  0.0000000E+00 -0.5050505E-02  0.2462780E-05  0.0000000E+00 -0.1227380E-03
 -0.5050504E-02  0.0000000E+00 -0.5050505E-02  0.2924994E-05  0.0000000E+00 -0.1216429E-03
 -0.5050501E-02  0.0000000E+00 -0.5050505E-02  0.3394670E-05  0.0000000E+00 -0.1203587E-03
 -0.5050495E-02  0.0000000E+00 -0.5050505E-02  0.3873143E-05  0.0000000E+00 -0.1188823E-03
 -0.5050482E-02  0.0000000E+00 -0.5050505E-02  0.4361831E-05  0.0000000E+00 -0.1172098E-03
 -0.5050449E-02  0.0000000E+00 -0.5050505E-02  0.4862248E-05  0.0000000E+00 -0.1153371E-03
 -0.5050376E-02  0.0000000E+00 -0.5050505E-02  0.5376019E-05  0.0000000E+00 -0.1132592E-03
 -0.5050299E-02  0.0000000E+00 -0.5050505E-02  0.5904898E-05  0.0000000E+00 -0.1109706E-03
 -0.5050178E-02  0.0000000E+00 -0.5050505E-02  0.6450788E-05  0.0000000E+00 -0.1084650E-03
 -0.5050018E-02  0.0000000E+00 -0.5050505E-02  0.7015756E-05  0.0000000E+00 -0.1057355E-03
 -0.5049710E-02  0.0000000E+00 -0.5050505E-02  0.7602063E-05  0.0000000E+00 -0.1027741E-03
 -0.5049253E-02  0.0000000E+00 -0.5050505E-02  0.8212185E-05  0.0000000E+00 -0.9957212E-04
 -0.5048636E-02  0.0000000E+00 -0.5050505E-02  0.8848846E-05  0.0000000E+00 -0.9611976E-04
 -0.5047442E-02  0.0000000E+00 -0.5050505E-02  0.9515049E-05  0.0000000E+00 -0.9240615E-04
 -0.5045727E-02  0.0000000E+00 -0.5050505E-02  0.1021411E-04  0.0000000E+00 -0.8841920E-04
 -0.5043261E-02  0.0000000E+00 -0.5050505E-02  0.1094972E-04  0.0000000E+00 -0.8414550E-04
 -0.5038714E-02  0.0000000E+00 -0.5050505E-02  0.1172596E-04  0.0000000E+00 -0.7957014E-04
 -0.5032318E-02  0.0000000E+00 -0.5050505E-02  0.1254740E-04  0.0000000E+00 -0.7467658E-04
 -0.5022454E-02  0.0000000E+00 -0.5050505E-02  0.1341912E-04  0.0000000E+00 -0.6944647E-04
 -0.5012589E-02  0.0000000E+00 -0.5050505E-02  0.1434682E-04  0.0000000E+00 -0.6385938E-04
 -0.5002725E-02  0.0000000E+00 -0.5050505E-02  0.1533692E-04  0.0000000E+00 -0.5789266E-04
 -0.4992860E-02  0.0000000E+00 -0.5050505E-02  0.1639663E-04  0.0000000E+00 -0.5152107E-04
 -0.4976523E-02  0.0000000E+00 -0.5050505E-02  0.1753408E-04  0.0000000E+00 -0.4471655E-04
 -0.4956794E-02  0.0000000E+00 -0.5050505E-02  0.1875849E-04  0.0000000E+00 -0.3744779E-04
 -0.4937066E-02  0.0000000E+00 -0.5050505E-02  0.2008036E-04  0.0000000E+00 -0.2967988E-04
 -0.4906239E-02  0.0000000E+00 -0.5050505E-02  0.2151163E-04  0.0000000E+00 -0.2137381E-04
 -0.4866782E-02  0.0000000E+00 -0.5050505E-02  0.2306601E-04  0.0000000E+00 -0.1248588E-04
 -0.4827325E-02  0.0000000E+00 -0.5050505E-02  0.2475923E-04  0.0000000E+00 -0.2964048E-05
 -0.4769372E-02  0.0000000E+00 -0.5050505E-02  0.2660988E-04  0.0000000E+00  0.7268586E-05
 -0.4690458E-02  0.0000000E+00 -0.5050505E-02  0.2863964E-04  0.0000000E+00  0.1828850E-04
 -0.4611543E-02  0.0000000E+00 -0.5050505E-02  0.3087394E-04  0.0000000E+00  0.3016570E-04
 -0.4503035E-02  0.0000000E+00 -0.5050505E-02  0.3334278E-04  0.0000000E+00  0.4298904E-04
 -0.4345206E-02  0.0000000E+00 -0.5050505E-02  0.3608187E-04  0.0000000E+00  0.5686058E-04
 -0.4187378E-02  0.0000000E+00 -0.5050505E-02  0.3913402E-04  0.0000000E+00  0.7189803E-04
 -0.3985156E-02  0.0000000E+00 -0.5050505E-02  0.4255107E-04  0.0000000E+00  0.8823786E-04
 -0.3669499E-02  0.0000000E+00 -0.5050505E-02  0.4639656E-04  0.0000000E+00  0.1060390E-03
 -0.3353842E-02  0.0000000E+00 -0.5050505E-02  0.5074953E-04  0.0000000E+00  0.1254875E-03
 -0.2978990E-02  0.0000000E+00 -0.5050505E-02  0.5571012E-04  0.0000000E+00  0.1468027E-03
 -0.2347676E-02  0.0000000E+00 -0.5050505E-02  0.6140818E-04  0.0000000E+00  0.1702449E-03
 -0.1716362E-02  0.0000000E+00 -0.5050505E-02  0.6801679E-04  0.0000000E+00  0.1961260E-03
 -0.1025842E-02  0.0000000E+00 -0.5050505E-02  0.7577401E-04  0.0000000E+00  0.2248250E-03
  0.2367855E-03  0.0000000E+00 -0.5050505E-02  0.8501847E-04  0.0000000E+00  0.2568130E-03
  0.1499413E-02  0.0000000E+00 -0.5050505E-02  0.9624829E-04  0.0000000E+00  0.2926999E-03
  0.2762042E-02  0.0000000E+00 -0.5050505E-02  0.1102213E-03  0.0000000E+00  0.3333390E-03
 -0.5050505E-02  0.0000000E+00 -0.5050505E-02  0.1281381E-03  0.0000000E+00  0.3801203E-03
 -0.5050505E-02  0.0000000E+00 -0.5050505E-02  0.1520420E-03  0.0000000E+00  0.4360074E-03
 -0.5050505E-02  0.0000000E+00 -0.5050505E-02  0.1859901E-03  0.0000000E+00  0.5100068E-03
 -0.5050505E-02  0.0000000E+00 -0.5050505E-02  0.2103040E-03  0.0000000E+00  0.6074094E-03
 -0.5050505E-02  0.0000000E+00 -0.5050505E-02  0.1738930E-03  0.0000000E+00  0.6847639E-03
 -0.5050505E-02  0.0000000E+00 -0.5050505E-02  0.1993360E-03  0.0000000E+00  0.7357800E-03
 -0.5050505E-02  0.0000000E+00 -0.5050505E-02  0.2195609E-03  0.0000000E+00  0.7717863E-03
 -0.5050504E-02  0.0000000E+00 -0.5050505E-02 -0.3103904E-03  0.0000000E+00  0.7372385E-03
 -0.5050501E-02  0.0000000E+00 -0.5050505E-02 -0.2301020E-03  0.0000000E+00  0.6624436E-03
 -0.5050495E-02  0.0000000E+00 -0.5050505E-02 -0.1807376E-03  0.0000000E+00  0.6010328E-03
 -0.5050482E-02  0.0000000E+00 -0.5050505E-02 -0.1473853E-03  0.0000000E+00  0.5453052E-03
 -0.5050449E-02  0.0000000E+00 -0.5050505E-02 -0.1238813E-03  0.0000000E+00  0.4955379E-03
 -0.5050376E-02  0.0000000E+00 -0.5050505E-02 -0.1066858E-03  0.0000000E+00  0.4513133E-03
 -0.5050299E-02  0.0000000E+00 -0.5050505E-02 -0.9361299E-04  0.0000000E+00  0.4118632E-03
 -0.5050178E-02  0.0000000E+00 -0.5050505E-02 -0.8331117E-04  0.0000000E+00  0.3764548E-03
 -0.5050018E-02  0.0000000E+00 -0.5050505E-02 -0.7494156E-04  0.0000000E+00  0.3444796E-03
 -0.5049710E-02  0.0000000E+00 -0.5050505E-02 -0.6797355E-04  0.0000000E+00  0.3154446E-03
 -0.5049253E-02  0.0000000E+00 -0.5050505E-02 -0.6206070E-04  0.0000000E+00  0.2889486E-03
 -0.5048636E-02  0.0000000E+00 -0.5050505E-02 -0.5696774E-04  0.0000000E+00  0.2646618E-03
 -0.5047442E-02  0.0000000E+00 -0.5050505E-02 -0.5252795E-04  0.0000000E+00  0.2423106E-03
 -0.5045727E-02  0.0000000E+00 -0.5050505E-02 -0.4861824E-04  0.0000000E+00  0.2216667E-03
 -0.5043261E-02  0.0000000E+00 -0.5050505E-02 -0.4514442E-04  0.0000000E+00  0.2025387E-03
 -0.5038714E-02  0.0000000E+00 -0.5050505E-02 -0.4203227E-04  0.0000000E+00  0.1847657E-03
 -0.5032318E-02  0.0000000E+00 -0.5050505E-02 -0.3922206E-04  0.0000000E+00  0.1682124E-03
 -0.5022454E-02  0.0000000E+00 -0.5050505E-02 -0.3666505E-04  0.0000000E+00  0.1527647E-03
 -0.5012589E-02  0.0000000E+00 -0.5050505E-02 -0.3432106E-04  0.0000000E+00  0.1383264E-03
 -0.5002725E-02  0.0000000E+00 -0.5050505E-02 -0.3215683E-04  0.0000000E+00  0.1248159E-03
 -0.4992860E-02  0.0000000E+00 -0.5050505E-02 -0.3014467E-04  0.0000000E+00  0.1121646E-03
 -0.4976523E-02  0.0000000E+00 -0.5050505E-02 -0.2826155E-04  0.0000000E+00  0.1003137E-03
 -0.4956794E-02  0.0000000E+00 -0.5050505E-02 -0.2648821E-04  0.0000000E+00  0.8921354E-04
 -0.4937066E-02  0.0000000E+00 -0.5050505E-02 -0.2480858E-04  0.0000000E+00  0.7882147E-04
 -0.4906239E-02  0.0000000E+00 -0.5050505E-02 -0.2320921E-04  0.0000000E+00  0.6910102E-04
 -0.4866782E-02  0.0000000E+00 -0.5050505E-02 -0.2167881E-04  0.0000000E+00  0.6002079E-04
 -0.4827325E-02  0.0000000E+00 -0.5050505E-02 -0.2020790E-04  0.0000000E+00  0.5155366E-04
 -0.4769372E-02  0.0000000E+00 -0.5050505E-02 -0.1878849E-04  0.0000000E+00  0.4367617E-04
 -0.4690458E-02  0.0000000E+00 -0.5050505E-02 -0.1741381E-04  0.0000000E+00  0.3636786E-04
 -0.4611543E-02  0.0000000E+00 -0.5050505E-02 -0.1607814E-04  0.0000000E+00  0.2961092E-04
 -0.4503035E-02  0.0000000E+00 -0.5050505E-02 -0.1477659E-04  0.0000000E+00  0.2338976E-04
 -0.4345206E-02  0.0000000E+00 -0.5050505E-02 -0.1350501E-04  0.0000000E+00  0.1769070E-04
 -0.4187378E-02  0.0000000E+00 -0.5050505E-02 -0.1225988E-04  0.0000000E+00  0.1250174E-04
 -0.3985156E-02  0.0000000E+00 -0.5050505E-02 -0.1103823E-04  0.0000000E+00  0.7812359E-05
 -0.3669499E-02  0.0000000E+00 -0.5050505E-02 -0.9837718E-05  0.0000000E+00  0.3613331E-05
 -0.3353842E-02  0.0000000E+00 -0.5050505E-02 -0.8656637E-05  0.0000000E+00 -0.1008603E-06
 -0.2978990E-02  0.0000000E+00 -0.5050505E-02 -0.7492962E-05  0.0000000E+00 -0.3335972E-05
 -0.2347676E-02  0.0000000E+00 -0.5050505E-02 -0.6348377E-05  0.0000000E+00 -0.6100454E-05
 -0.1716362E-02  0.0000000E+00 -0.5050505E-02 -0.5225107E-05  0.0000000E+00 -0.8397525E-05
 -0.1025842E-02  0.0000000E+00 -0.5050505E-02 -0.4128062E-05  0.0000000E+00 -0.1022099E-04
  0.2367855E-03  0.0000000E+00 -0.5050505E-02 -0.3063321E-05  0.0000000E+00 -0.1154904E-04
  0.1499413E-02  0.0000000E+00 -0.5050505E-02 -0.2022802E-05  0.0000000E+00 -0.1233122E-04
  0.5287294E-02  0.0000000E+00 -0.5050505E-02 -0.9006801E-06  0.0000000E+00 -0.1251828E-04
 -0.5050505E-02  0.0000000E+00 -0.5050505E-02  0.3091620E-06  0.0000000E+00 -0.1248841E-03
 -0.5050505E-02  0.0000000E+00 -0.5050505E-02  0.9282306E-06  0.0000000E+00 -0.1247042E-03
 -0.5050505E-02  0.0000000E+00 -0.5050505E-02  0.1549544E-05  0.0000000E+00 -0.1243440E-03
 -0.5050505E-02  0.0000000E+00 -0.5050505E-02  0.2174629E-05  0.0000000E+00 -0.1238026E-03
 -0.5050505E-02  0.0000000E+00 -0.5050505E-02  0.2805047E-05  0.0000000E+00 -0.1230789E-03
 -0.5050505E-02  0.0000000E+00 -0.5050505E-02  0.3442411E-05  0.0000000E+00 -0.1221711E-03
 -0.5050504E-02  0.0000000E+00 -0.5050505E-02  0.4088402E-05  0.0000000E+00 -0.1210771E-03
 -0.5050501E-02  0.0000000E+00 -0.5050505E-02  0.4744777E-05  0.0000000E+00 -0.1197943E-03
 -0.5050495E-02  0.0000000E+00 -0.5050505E-02  0.5413393E-05  0.0000000E+00 -0.1183196E-03
 -0.5050482E-02  0.0000000E+00 -0.5050505E-02  0.6096221E-05  0.0000000E+00 -0.1166493E-03
 -0.5050449E-02  0.0000000E+00 -0.5050505E-02  0.6795364E-05  0.0000000E+00 -0.1147793E-03
 -0.5050376E-02  0.0000000E+00 -0.5050505E-02  0.7513082E-05  0.0000000E+00 -0.1127047E-03
 -0.5050299E-02  0.0000000E+00 -0.5050505E-02  0.8251812E-05  0.0000000E+00 -0.1104201E-03
 -0.5050178E-02  0.0000000E+00 -0.5050505E-02  0.9014196E-05  0.0000000E+00 -0.1079193E-03
 -0.5050018E-02  0.0000000E+00 -0.5050505E-02  0.9803108E-05  0.0000000E+00 -0.1051955E-03
 -0.5049710E-02  0.0000000E+00 -0.5050505E-02  0.1062169E-04  0.0000000E+00 -0.1022410E-03
 -0.5049253E-02  0.0000000E+00 -0.5050505E-02  0.1147337E-04  0.0000000E+00 -0.9904715E-04
 -0.5048636E-02  0.0000000E+00 -0.5050505E-02  0.1236194E-04  0.0000000E+00 -0.9560439E-04
 -0.5047442E-02  0.0000000E+00 -0.5050505E-02  0.1329156E-04  0.0000000E+00 -0.9190208E-04
 -0.5045727E-02  0.0000000E+00 -0.5050505E-02  0.1426685E-04  0.0000000E+00 -0.8792839E-04
 -0.5043261E-02  0.0000000E+00 -0.5050505E-02  0.1529291E-04  0.0000000E+00 -0.8367019E-04
 -0.5038714E-02  0.0000000E+00 -0.5050505E-02  0.1637540E-04  0.0000000E+00 -0.7911293E-04
 -0.5032318E-02  0.0000000E+00 -0.5050505E-02  0.1752067E-04  0.0000000E+00 -0.7424045E-04
 -0.5022454E-02  0.0000000E+00 -0.5050505E-02  0.1873575E-04  0.0000000E+00 -0.6903481E-04
 -0.5012589E-02  0.0000000E+00 -0.5050505E-02  0.2002855E-04  0.0000000E+00 -0.6347612E-04
 -0.5002725E-02  0.0000000E+00 -0.5050505E-02  0.2140794E-04  0.0000000E+00 -0.5754229E-04
 -0.4992860E-02  0.0000000E+00 -0.5050505E-02  0.2288391E-04  0.0000000E+00 -0.5120877E-04
 -0.4976523E-02  0.0000000E+00 -0.5050505E-02  0.2446769E-04  0.0000000E+00 -0.4444828E-04
 -0.4956794E-02  0.0000000E+00 -0.5050505E-02  0.2617206E-04  0.0000000E+00 -0.3723045E-04
 -0.4937066E-02  0.0000000E+00 -0.5050505E-02  0.2801147E-04  0.0000000E+00 -0.2952145E-04