title = "dataset feddes"
variables = "x", "y", "z", "vx", "vy", "vz"
zone t = "velocities, solution time =  5.800E+01 days        " i =   99, j =   99, k =    1,  f=point
 -0.5050505E-02  0.0000000E+00 -0.5050505E-02  0.9121819E-07  0.0000000E+00  0.9307434E-04
 -0.5050505E-02  0.0000000E+00 -0.5050505E-02  0.2739960E-06  0.0000000E+00  0.9344481E-04
 -0.5050505E-02  0.0000000E+00 -0.5050505E-02  0.4578094E-06  0.0000000E+00  0.9418719E-04
 -0.5050505E-02  0.0000000E+00 -0.5050505E-02  0.6433710E-06  0.0000000E+00  0.9530439E-04
 -0.5050505E-02  0.0000000E+00 -0.5050505E-02  0.8314179E-06  0.0000000E+00  0.9680083E-04
 -0.5050505E-02  0.0000000E+00 -0.5050505E-02  0.1022720E-05  0.0000000E+00  0.9868254E-04
 -0.5050504E-02  0.0000000E+00 -0.5050505E-02  0.1218087E-05  0.0000000E+00  0.1009572E-03
 -0.5050501E-02  0.0000000E+00 -0.5050505E-02  0.1418382E-05  0.0000000E+00  0.1036342E-03
 -0.5050495E-02  0.0000000E+00 -0.5050505E-02  0.1624530E-05  0.0000000E+00  0.1067250E-03
 -0.5050482E-02  0.0000000E+00 -0.5050505E-02  0.1837532E-05  0.0000000E+00  0.1102428E-03
 -0.5050449E-02  0.0000000E+00 -0.5050505E-02  0.2058480E-05  0.0000000E+00  0.1142032E-03
 -0.5050376E-02  0.0000000E+00 -0.5050505E-02  0.2288574E-05  0.0000000E+00  0.1186243E-03
 -0.5050299E-02  0.0000000E+00 -0.5050505E-02  0.2529142E-05  0.0000000E+00  0.1235267E-03
 -0.5050178E-02  0.0000000E+00 -0.5050505E-02  0.2781667E-05  0.0000000E+00  0.1289341E-03
 -0.5050018E-02  0.0000000E+00 -0.5050505E-02  0.3047814E-05  0.0000000E+00  0.1348735E-03
 -0.5049710E-02  0.0000000E+00 -0.5050505E-02  0.3329464E-05  0.0000000E+00  0.1413757E-03
 -0.5049253E-02  0.0000000E+00 -0.5050505E-02  0.3628764E-05  0.0000000E+00  0.1484759E-03
 -0.5048636E-02  0.0000000E+00 -0.5050505E-02  0.3948173E-05  0.0000000E+00  0.1562142E-03
 -0.5047442E-02  0.0000000E+00 -0.5050505E-02  0.4290535E-05  0.0000000E+00  0.1646362E-03
 -0.5045727E-02  0.0000000E+00 -0.5050505E-02  0.4659152E-05  0.0000000E+00  0.1737944E-03
 -0.5043261E-02  0.0000000E+00 -0.5050505E-02  0.5057892E-05  0.0000000E+00  0.1837490E-03
 -0.5038714E-02  0.0000000E+00 -0.5050505E-02  0.5491298E-05  0.0000000E+00  0.1945692E-03
 -0.5032318E-02  0.0000000E+00 -0.5050505E-02  0.5964738E-05  0.0000000E+00  0.2063350E-03
 -0.5022454E-02  0.0000000E+00 -0.5050505E-02  0.6484551E-05  0.0000000E+00  0.2191392E-03
 -0.5012589E-02  0.0000000E+00 -0.5050505E-02  0.7058222E-05  0.0000000E+00  0.2330898E-03
 -0.5002725E-02  0.0000000E+00 -0.5050505E-02  0.7694519E-05  0.0000000E+00  0.2483127E-03
 -0.4992860E-02  0.0000000E+00 -0.5050505E-02  0.8403567E-05  0.0000000E+00  0.2649545E-03
 -0.4976523E-02  0.0000000E+00 -0.5050505E-02  0.9196729E-05  0.0000000E+00  0.2831861E-03
 -0.4956794E-02  0.0000000E+00 -0.5050505E-02  0.1008610E-04  0.0000000E+00  0.3032048E-03
 -0.4937066E-02  0.0000000E+00 -0.5050505E-02  0.1108320E-04  0.0000000E+00  0.3252355E-03
 -0.4906239E-02  0.0000000E+00 -0.5050505E-02  0.1219622E-04  0.0000000E+00  0.3495269E-03
 -0.4866782E-02  0.0000000E+00 -0.5050505E-02  0.1342467E-04  0.0000000E+00  0.3763403E-03
 -0.4827325E-02  0.0000000E+00 -0.5050505E-02  0.1474996E-04  0.0000000E+00  0.4059222E-03
 -0.4769372E-02  0.0000000E+00 -0.5050505E-02  0.1612046E-04  0.0000000E+00  0.4384503E-03
 -0.4690458E-02  0.0000000E+00 -0.5050505E-02  0.1743337E-04  0.0000000E+00  0.4739445E-03
 -0.4611543E-02  0.0000000E+00 -0.5050505E-02  0.1852775E-04  0.0000000E+00  0.5121475E-03
 -0.4503035E-02  0.0000000E+00 -0.5050505E-02  0.1923395E-04  0.0000000E+00  0.5524468E-03
 -0.4345206E-02  0.0000000E+00 -0.5050505E-02  0.1955919E-04  0.0000000E+00  0.5940462E-03
 -0.4187378E-02  0.0000000E+00 -0.5050505E-02  0.1996321E-04  0.0000000E+00  0.6366394E-03
 -0.3985156E-02  0.0000000E+00 -0.5050505E-02  0.2094567E-04  0.0000000E+00  0.6809533E-03
 -0.3669499E-02  0.0000000E+00 -0.5050505E-02  0.2313085E-04  0.0000000E+00  0.7289549E-03
 -0.3353842E-02  0.0000000E+00 -0.5050505E-02  0.2772167E-04  0.0000000E+00  0.7846610E-03
 -0.2978990E-02  0.0000000E+00 -0.5050505E-02  0.3808802E-04  0.0000000E+00  0.8572520E-03
 -0.2347676E-02  0.0000000E+00 -0.5050505E-02  0.6575580E-04  0.0000000E+00  0.9728738E-03
 -0.1716362E-02  0.0000000E+00 -0.5050505E-02  0.6945741E-04  0.0000000E+00  0.1125328E-02
 -0.1025842E-02  0.0000000E+00 -0.5050505E-02  0.4772166E-04  0.0000000E+00  0.1259572E-02
  0.2367855E-03  0.0000000E+00 -0.5050505E-02  0.2640593E-04  0.0000000E+00  0.1345824E-02
  0.1499413E-02  0.0000000E+00 -0.5050505E-02  0.4120766E-04  0.0000000E+00  0.1425498E-02
  0.2762042E-02  0.0000000E+00 -0.5050505E-02  0.2957330E-04  0.0000000E+00  0.1509534E-02
 -0.5050505E-02  0.0000000E+00 -0.5050505E-02  0.5964261E-04  0.0000000E+00  0.1616737E-02
 -0.5050505E-02  0.0000000E+00 -0.5050505E-02  0.9016796E-04  0.0000000E+00  0.1799044E-02
 -0.5050505E-02  0.0000000E+00 -0.5050505E-02  0.6936600E-04  0.0000000E+00  0.1996624E-02
 -0.5050505E-02  0.0000000E+00 -0.5050505E-02  0.1325335E-03  0.0000000E+00  0.2253555E-02
 -0.5050505E-02  0.0000000E+00 -0.5050505E-02  0.1235183E-03  0.0000000E+00  0.2587737E-02
 -0.5050505E-02  0.0000000E+00 -0.5050505E-02  0.9722389E-04  0.0000000E+00  0.2886310E-02
 -0.5050505E-02  0.0000000E+00 -0.5050505E-02  0.1026195E-03  0.0000000E+00  0.3166352E-02
 -0.5050504E-02  0.0000000E+00 -0.5050505E-02 -0.2808452E-03  0.0000000E+00  0.2932987E-02
 -0.5050501E-02  0.0000000E+00 -0.5050505E-02 -0.1347665E-03  0.0000000E+00  0.2378762E-02
 -0.5050495E-02  0.0000000E+00 -0.5050505E-02 -0.6923212E-04  0.0000000E+00  0.2115621E-02
 -0.5050482E-02  0.0000000E+00 -0.5050505E-02 -0.3250503E-04  0.0000000E+00  0.1986487E-02
 -0.5050449E-02  0.0000000E+00 -0.5050505E-02 -0.1513430E-04  0.0000000E+00  0.1926482E-02
 -0.5050376E-02  0.0000000E+00 -0.5050505E-02 -0.5822617E-04  0.0000000E+00  0.1835540E-02
 -0.5050299E-02  0.0000000E+00 -0.5050505E-02 -0.2129784E-05  0.0000000E+00  0.1760975E-02
 -0.5050178E-02  0.0000000E+00 -0.5050505E-02 -0.6020741E-04  0.0000000E+00  0.1685241E-02
 -0.5050018E-02  0.0000000E+00 -0.5050505E-02 -0.3549038E-04  0.0000000E+00  0.1569465E-02
 -0.5049710E-02  0.0000000E+00 -0.5050505E-02 -0.2401076E-04  0.0000000E+00  0.1498115E-02
 -0.5049253E-02  0.0000000E+00 -0.5050505E-02 -0.1736877E-04  0.0000000E+00  0.1448790E-02
 -0.5048636E-02  0.0000000E+00 -0.5050505E-02 -0.1581204E-04  0.0000000E+00  0.1409428E-02
 -0.5047442E-02  0.0000000E+00 -0.5050505E-02 -0.3202601E-04  0.0000000E+00  0.1353136E-02
 -0.5045727E-02  0.0000000E+00 -0.5050505E-02 -0.3970772E-04  0.0000000E+00  0.1269468E-02
 -0.5043261E-02  0.0000000E+00 -0.5050505E-02 -0.3292010E-04  0.0000000E+00  0.1185498E-02
 -0.5038714E-02  0.0000000E+00 -0.5050505E-02 -0.3203346E-04  0.0000000E+00  0.1111079E-02
 -0.5032318E-02  0.0000000E+00 -0.5050505E-02 -0.3362150E-04  0.0000000E+00  0.1036523E-02
 -0.5022454E-02  0.0000000E+00 -0.5050505E-02 -0.3381147E-04  0.0000000E+00  0.9606223E-03
 -0.5012589E-02  0.0000000E+00 -0.5050505E-02 -0.3260573E-04  0.0000000E+00  0.8865086E-03
 -0.5002725E-02  0.0000000E+00 -0.5050505E-02 -0.3033291E-04  0.0000000E+00  0.8168486E-03
 -0.4992860E-02  0.0000000E+00 -0.5050505E-02 -0.2726590E-04  0.0000000E+00  0.7535727E-03
 -0.4976523E-02  0.0000000E+00 -0.5050505E-02 -0.2410368E-04  0.0000000E+00  0.6975148E-03
 -0.4956794E-02  0.0000000E+00 -0.5050505E-02 -0.2122460E-04  0.0000000E+00  0.6483396E-03
 -0.4937066E-02  0.0000000E+00 -0.5050505E-02 -0.1872902E-04  0.0000000E+00  0.6052187E-03
 -0.4906239E-02  0.0000000E+00 -0.5050505E-02 -0.1659287E-04  0.0000000E+00  0.5672702E-03
 -0.4866782E-02  0.0000000E+00 -0.5050505E-02 -0.1475713E-04  0.0000000E+00  0.5337247E-03
 -0.4827325E-02  0.0000000E+00 -0.5050505E-02 -0.1316342E-04  0.0000000E+00  0.5039556E-03
 -0.4769372E-02  0.0000000E+00 -0.5050505E-02 -0.1176360E-04  0.0000000E+00  0.4774630E-03
 -0.4690458E-02  0.0000000E+00 -0.5050505E-02 -0.1052011E-04  0.0000000E+00  0.4538471E-03
 -0.4611543E-02  0.0000000E+00 -0.5050505E-02 -0.9403802E-05  0.0000000E+00  0.4327856E-03
 -0.4503035E-02  0.0000000E+00 -0.5050505E-02 -0.8391607E-05  0.0000000E+00  0.4140168E-03
 -0.4345206E-02  0.0000000E+00 -0.5050505E-02 -0.7464785E-05  0.0000000E+00  0.3973267E-03
 -0.4187378E-02  0.0000000E+00 -0.5050505E-02 -0.6607511E-05  0.0000000E+00  0.3825409E-03
 -0.3985156E-02  0.0000000E+00 -0.5050505E-02 -0.5805697E-05  0.0000000E+00  0.3695189E-03
 -0.3669499E-02  0.0000000E+00 -0.5050505E-02 -0.5045672E-05  0.0000000E+00  0.3581510E-03
 -0.3353842E-02  0.0000000E+00 -0.5050505E-02 -0.4312146E-05  0.0000000E+00  0.3483593E-03
 -0.2978990E-02  0.0000000E+00 -0.5050505E-02 -0.3584154E-05  0.0000000E+00  0.3401051E-03
 -0.2347676E-02  0.0000000E+00 -0.5050505E-02 -0.2825311E-05  0.0000000E+00  0.3334105E-03
 -0.1716362E-02  0.0000000E+00 -0.5050505E-02 -0.1957250E-05  0.0000000E+00  0.3284183E-03
 -0.1025842E-02  0.0000000E+00 -0.5050505E-02 -0.7787499E-06  0.0000000E+00  0.3255633E-03
  0.2367855E-03  0.0000000E+00 -0.5050505E-02  0.1305893E-05  0.0000000E+00  0.3261133E-03
  0.1499413E-02  0.0000000E+00 -0.5050505E-02  0.6282725E-05  0.0000000E+00  0.3340330E-03
  0.5287294E-02  0.0000000E+00 -0.5050505E-02  0.1166764E-03  0.0000000E+00  0.2655689E-03
 -0.5050505E-02  0.0000000E+00 -0.5050505E-02  0.2731146E-06  0.0000000E+00  0.9298088E-04
 -0.5050505E-02  0.0000000E+00 -0.5050505E-02  0.8203686E-06  0.0000000E+00  0.9335026E-04
 -0.5050505E-02  0.0000000E+00 -0.5050505E-02  0.1370726E-05  0.0000000E+00  0.9409042E-04
 -0.5050505E-02  0.0000000E+00 -0.5050505E-02  0.1926319E-05  0.0000000E+00  0.9520424E-04
 -0.5050505E-02  0.0000000E+00 -0.5050505E-02  0.2489348E-05  0.0000000E+00  0.9669609E-04
 -0.5050505E-02  0.0000000E+00 -0.5050505E-02  0.3062115E-05  0.0000000E+00  0.9857194E-04
 -0.5050504E-02  0.0000000E+00 -0.5050505E-02  0.3647041E-05  0.0000000E+00  0.1008394E-03
 -0.5050501E-02  0.0000000E+00 -0.5050505E-02  0.4246702E-05  0.0000000E+00  0.1035077E-03
 -0.5050495E-02  0.0000000E+00 -0.5050505E-02  0.4863861E-05  0.0000000E+00  0.1065882E-03
 -0.5050482E-02  0.0000000E+00 -0.5050505E-02  0.5501508E-05  0.0000000E+00  0.1100941E-03
 -0.5050449E-02  0.0000000E+00 -0.5050505E-02  0.6162901E-05  0.0000000E+00  0.1140407E-03
 -0.5050376E-02  0.0000000E+00 -0.5050505E-02  0.6851623E-05  0.0000000E+00  0.1184458E-03
 -0.5050299E-02  0.0000000E+00 -0.5050505E-02  0.7571638E-05  0.0000000E+00  0.1233300E-03
 -0.5050178E-02  0.0000000E+00 -0.5050505E-02  0.8327367E-05  0.0000000E+00  0.1287165E-03
 -0.5050018E-02  0.0000000E+00 -0.5050505E-02  0.9123772E-05  0.0000000E+00  0.1346321E-03
 -0.5049710E-02  0.0000000E+00 -0.5050505E-02  0.9966465E-05  0.0000000E+00  0.1411071E-03
 -0.5049253E-02  0.0000000E+00 -0.5050505E-02  0.1086183E-04  0.0000000E+00  0.1481762E-03
 -0.5048636E-02  0.0000000E+00 -0.5050505E-02  0.1181720E-04  0.0000000E+00  0.1558789E-03
 -0.5047442E-02  0.0000000E+00 -0.5050505E-02  0.1284103E-04  0.0000000E+00  0.1642601E-03
 -0.5045727E-02  0.0000000E+00 -0.5050505E-02  0.1394314E-04  0.0000000E+00  0.1733715E-03
 -0.5043261E-02  0.0000000E+00 -0.5050505E-02  0.1513504E-04  0.0000000E+00  0.1832719E-03
 -0.5038714E-02  0.0000000E+00 -0.5050505E-02  0.1643023E-04  0.0000000E+00  0.1940294E-03
 -0.5032318E-02  0.0000000E+00 -0.5050505E-02  0.1784467E-04  0.0000000E+00  0.2057224E-03
 -0.5022454E-02  0.0000000E+00 -0.5050505E-02  0.1939725E-04  0.0000000E+00  0.2184417E-03
 -0.5012589E-02  0.0000000E+00 -0.5050505E-02  0.2111031E-04  0.0000000E+00  0.2322932E-03
 -0.5002725E-02  0.0000000E+00 -0.5050505E-02  0.2301009E-04  0.0000000E+00  0.2474002E-03
 -0.4992860E-02  0.0000000E+00 -0.5050505E-02  0.2512710E-04  0.0000000E+00  0.2639073E-03
 -0.4976523E-02  0.0000000E+00 -0.5050505E-02  0.2749593E-04  0.0000000E+00  0.2819833E-03
 -0.4956794E-02  0.0000000E+00 -0.5050505E-02  0.3015410E-04  0.0000000E+00  0.3018257E-03
 -0.4937066E-02  0.0000000E+00 -0.5050505E-02  0.3313877E-04  0.0000000E+00  0.3236632E-03
 -0.4906239E-02  0.0000000E+00 -0.5050505E-02  0.3647950E-04  0.0000000E+00  0.3477566E-03
 -0.4866782E-02  0.0000000E+00 -0.5050505E-02  0.4018360E-04  0.0000000E+00  0.3743934E-03
 -0.4827325E-02  0.0000000E+00 -0.5050505E-02  0.4420880E-04  0.0000000E+00  0.4038704E-03
 -0.4769372E-02  0.0000000E+00 -0.5050505E-02  0.4841645E-04  0.0000000E+00  0.4364485E-03
 -0.4690458E-02  0.0000000E+00 -0.5050505E-02  0.5250287E-04  0.0000000E+00  0.4722554E-03
 -0.4611543E-02  0.0000000E+00 -0.5050505E-02  0.5593627E-04  0.0000000E+00  0.5110983E-03
 -0.4503035E-02  0.0000000E+00 -0.5050505E-02  0.5803243E-04  0.0000000E+00  0.5521944E-03
 -0.4345206E-02  0.0000000E+00 -0.5050505E-02  0.5855994E-04  0.0000000E+00  0.5941160E-03
 -0.4187378E-02  0.0000000E+00 -0.5050505E-02  0.5929188E-04  0.0000000E+00  0.6360628E-03
 -0.3985156E-02  0.0000000E+00 -0.5050505E-02  0.6165117E-04  0.0000000E+00  0.6785970E-03
 -0.3669499E-02  0.0000000E+00 -0.5050505E-02  0.6709779E-04  0.0000000E+00  0.7229832E-03
 -0.3353842E-02  0.0000000E+00 -0.5050505E-02  0.7780882E-04  0.0000000E+00  0.7704943E-03
 -0.2978990E-02  0.0000000E+00 -0.5050505E-02  0.9853403E-04  0.0000000E+00  0.8199910E-03
 -0.2347676E-02  0.0000000E+00 -0.5050505E-02  0.1416045E-03  0.0000000E+00  0.8563418E-03
 -0.1716362E-02  0.0000000E+00 -0.5050505E-02  0.1556684E-03  0.0000000E+00  0.8868031E-03
 -0.1025842E-02  0.0000000E+00 -0.5050505E-02  0.1445513E-03  0.0000000E+00  0.9609024E-03
  0.2367855E-03  0.0000000E+00 -0.5050505E-02  0.1249412E-03  0.0000000E+00  0.1098512E-02
  0.1499413E-02  0.0000000E+00 -0.5050505E-02  0.1468641E-03  0.0000000E+00  0.1256215E-02
  0.2762042E-02  0.0000000E+00 -0.5050505E-02  0.1235419E-03  0.0000000E+00  0.1408413E-02
 -0.5050505E-02  0.0000000E+00 -0.5050505E-02  0.1778000E-03  0.0000000E+00  0.1556749E-02
 -0.5050505E-02  0.0000000E+00 -0.5050505E-02  0.2138529E-03  0.0000000E+00  0.1670635E-02
 -0.5050505E-02  0.0000000E+00 -0.5050505E-02  0.2360096E-03  0.0000000E+00  0.1835544E-02
 -0.5050505E-02  0.0000000E+00 -0.5050505E-02  0.3262526E-03  0.0000000E+00  0.2038763E-02
 -0.5050505E-02  0.0000000E+00 -0.5050505E-02  0.2650909E-03  0.0000000E+00  0.2147054E-02
 -0.5050505E-02  0.0000000E+00 -0.5050505E-02  0.3202871E-03  0.0000000E+00  0.2345578E-02
 -0.5050505E-02  0.0000000E+00 -0.5050505E-02  0.1803345E-03  0.0000000E+00  0.2486878E-02
 -0.5050504E-02  0.0000000E+00 -0.5050505E-02 -0.6316861E-03  0.0000000E+00  0.2359588E-02
 -0.5050501E-02  0.0000000E+00 -0.5050505E-02 -0.3399339E-03  0.0000000E+00  0.2167567E-02
 -0.5050495E-02  0.0000000E+00 -0.5050505E-02 -0.1831031E-03  0.0000000E+00  0.2013776E-02
 -0.5050482E-02  0.0000000E+00 -0.5050505E-02 -0.1150615E-03  0.0000000E+00  0.1889788E-02
 -0.5050449E-02  0.0000000E+00 -0.5050505E-02 -0.1001209E-03  0.0000000E+00  0.1737352E-02
 -0.5050376E-02  0.0000000E+00 -0.5050505E-02 -0.1145295E-03  0.0000000E+00  0.1650793E-02
 -0.5050299E-02  0.0000000E+00 -0.5050505E-02 -0.2185411E-04  0.0000000E+00  0.1630023E-02
 -0.5050178E-02  0.0000000E+00 -0.5050505E-02 -0.1378625E-03  0.0000000E+00  0.1585745E-02
 -0.5050018E-02  0.0000000E+00 -0.5050505E-02 -0.9468823E-04  0.0000000E+00  0.1534052E-02
 -0.5049710E-02  0.0000000E+00 -0.5050505E-02 -0.6737029E-04  0.0000000E+00  0.1480860E-02
 -0.5049253E-02  0.0000000E+00 -0.5050505E-02 -0.4737333E-04  0.0000000E+00  0.1441543E-02
 -0.5048636E-02  0.0000000E+00 -0.5050505E-02 -0.6849594E-04  0.0000000E+00  0.1381823E-02
 -0.5047442E-02  0.0000000E+00 -0.5050505E-02 -0.1030658E-03  0.0000000E+00  0.1291494E-02
 -0.5045727E-02  0.0000000E+00 -0.5050505E-02 -0.9379071E-04  0.0000000E+00  0.1228185E-02
 -0.5043261E-02  0.0000000E+00 -0.5050505E-02 -0.9320061E-04  0.0000000E+00  0.1179050E-02
 -0.5038714E-02  0.0000000E+00 -0.5050505E-02 -0.9355215E-04  0.0000000E+00  0.1113038E-02
 -0.5032318E-02  0.0000000E+00 -0.5050505E-02 -0.1018086E-03  0.0000000E+00  0.1039570E-02
 -0.5022454E-02  0.0000000E+00 -0.5050505E-02 -0.1024826E-03  0.0000000E+00  0.9608647E-03
 -0.5012589E-02  0.0000000E+00 -0.5050505E-02 -0.9865546E-04  0.0000000E+00  0.8842583E-03
 -0.5002725E-02  0.0000000E+00 -0.5050505E-02 -0.9164865E-04  0.0000000E+00  0.8126915E-03
 -0.4992860E-02  0.0000000E+00 -0.5050505E-02 -0.8184015E-04  0.0000000E+00  0.7484692E-03
 -0.4976523E-02  0.0000000E+00 -0.5050505E-02 -0.7201960E-04  0.0000000E+00  0.6925350E-03
 -0.4956794E-02  0.0000000E+00 -0.5050505E-02 -0.6329628E-04  0.0000000E+00  0.6439587E-03
 -0.4937066E-02  0.0000000E+00 -0.5050505E-02 -0.5583558E-04  0.0000000E+00  0.6015127E-03
 -0.4906239E-02  0.0000000E+00 -0.5050505E-02 -0.4948429E-04  0.0000000E+00  0.5641579E-03
 -0.4866782E-02  0.0000000E+00 -0.5050505E-02 -0.4403302E-04  0.0000000E+00  0.5310922E-03
 -0.4827325E-02  0.0000000E+00 -0.5050505E-02 -0.3929771E-04  0.0000000E+00  0.5017013E-03
 -0.4769372E-02  0.0000000E+00 -0.5050505E-02 -0.3513384E-04  0.0000000E+00  0.4755065E-03
 -0.4690458E-02  0.0000000E+00 -0.5050505E-02 -0.3143092E-04  0.0000000E+00  0.4521271E-03
 -0.4611543E-02  0.0000000E+00 -0.5050505E-02 -0.2810369E-04  0.0000000E+00  0.4312554E-03
 -0.4503035E-02  0.0000000E+00 -0.5050505E-02 -0.2508477E-04  0.0000000E+00  0.4126397E-03
 -0.4345206E-02  0.0000000E+00 -0.5050505E-02 -0.2231930E-04  0.0000000E+00  0.3960729E-03
 -0.4187378E-02  0.0000000E+00 -0.5050505E-02 -0.1976095E-04  0.0000000E+00  0.3813850E-03
 -0.3985156E-02  0.0000000E+00 -0.5050505E-02 -0.1736876E-04  0.0000000E+00  0.3684369E-03
 -0.3669499E-02  0.0000000E+00 -0.5050505E-02 -0.1510364E-04  0.0000000E+00  0.3571175E-03
 -0.3353842E-02  0.0000000E+00 -0.5050505E-02 -0.1292366E-04  0.0000000E+00  0.3473413E-03
 -0.2978990E-02  0.0000000E+00 -0.5050505E-02 -0.1077527E-04  0.0000000E+00  0.3390482E-03
 -0.2347676E-02  0.0000000E+00 -0.5050505E-02 -0.8574866E-05  0.0000000E+00  0.3322027E-03
 -0.1716362E-02  0.0000000E+00 -0.5050505E-02 -0.6165056E-05  0.0000000E+00  0.3267827E-03
 -0.1025842E-02  0.0000000E+00 -0.5050505E-02 -0.3202969E-05  0.0000000E+00  0.3227062E-03
  0.2367855E-03  0.0000000E+00 -0.5050505E-02  0.1142923E-05  0.0000000E+00  0.3194576E-03
  0.1499413E-02  0.0000000E+00 -0.5050505E-02  0.9053812E-05  0.0000000E+00  0.3142921E-03
  0.5287294E-02  0.0000000E+00 -0.5050505E-02  0.2656757E-04  0.0000000E+00  0.2937651E-03
 -0.5050505E-02  0.0000000E+00 -0.5050505E-02  0.4536718E-06  0.0000000E+00  0.9279909E-04
 -0.5050505E-02  0.0000000E+00 -0.5050505E-02  0.1362720E-05  0.0000000E+00  0.9316629E-04
 -0.5050505E-02  0.0000000E+00 -0.5050505E-02  0.2276920E-05  0.0000000E+00  0.9390206E-04
 -0.5050505E-02  0.0000000E+00 -0.5050505E-02  0.3199802E-05  0.0000000E+00  0.9500920E-04
 -0.5050505E-02  0.0000000E+00 -0.5050505E-02  0.4135012E-05  0.0000000E+00  0.9649199E-04
 -0.5050505E-02  0.0000000E+00 -0.5050505E-02  0.5086353E-05  0.0000000E+00  0.9835625E-04
 -0.5050504E-02  0.0000000E+00 -0.5050505E-02  0.6057831E-05  0.0000000E+00  0.1006094E-03
 -0.5050501E-02  0.0000000E+00 -0.5050505E-02  0.7053706E-05  0.0000000E+00  0.1032607E-03
 -0.5050495E-02  0.0000000E+00 -0.5050505E-02  0.8078542E-05  0.0000000E+00  0.1063210E-03
 -0.5050482E-02  0.0000000E+00 -0.5050505E-02  0.9137279E-05  0.0000000E+00  0.1098032E-03
 -0.5050449E-02  0.0000000E+00 -0.5050505E-02  0.1023530E-04  0.0000000E+00  0.1137225E-03
 -0.5050376E-02  0.0000000E+00 -0.5050505E-02  0.1137851E-04  0.0000000E+00  0.1180963E-03
 -0.5050299E-02  0.0000000E+00 -0.5050505E-02  0.1257346E-04  0.0000000E+00  0.1229444E-03
 -0.5050178E-02  0.0000000E+00 -0.5050505E-02  0.1382742E-04  0.0000000E+00  0.1282898E-03
 -0.5050018E-02  0.0000000E+00 -0.5050505E-02  0.1514857E-04  0.0000000E+00  0.1341584E-03
 -0.5049710E-02  0.0000000E+00 -0.5050505E-02  0.1654614E-04  0.0000000E+00  0.1405798E-03
 -0.5049253E-02  0.0000000E+00 -0.5050505E-02  0.1803062E-04  0.0000000E+00  0.1475877E-03
 -0.5048636E-02  0.0000000E+00 -0.5050505E-02  0.1961405E-04  0.0000000E+00  0.1552204E-03
 -0.5047442E-02  0.0000000E+00 -0.5050505E-02  0.2131028E-04  0.0000000E+00  0.1635214E-03
 -0.5045727E-02  0.0000000E+00 -0.5050505E-02  0.2313541E-04  0.0000000E+00  0.1725404E-03
 -0.5043261E-02  0.0000000E+00 -0.5050505E-02  0.2510827E-04  0.0000000E+00  0.1823344E-03
 -0.5038714E-02  0.0000000E+00 -0.5050505E-02  0.2725099E-04  0.0000000E+00  0.1929688E-03
 -0.5032318E-02  0.0000000E+00 -0.5050505E-02  0.2958969E-04  0.0000000E+00  0.2045186E-03
 -0.5022454E-02  0.0000000E+00 -0.5050505E-02  0.3215538E-04  0.0000000E+00  0.2170710E-03
 -0.5012589E-02  0.0000000E+00 -0.5050505E-02  0.3498482E-04  0.0000000E+00  0.2307274E-03
 -0.5002725E-02  0.0000000E+00 -0.5050505E-02  0.3812153E-04  0.0000000E+00  0.2456060E-03
 -0.4992860E-02  0.0000000E+00 -0.5050505E-02  0.4161659E-04  0.0000000E+00  0.2618462E-03
 -0.4976523E-02  0.0000000E+00 -0.5050505E-02  0.4552899E-04  0.0000000E+00  0.2796123E-03
 -0.4956794E-02  0.0000000E+00 -0.5050505E-02  0.4992481E-04  0.0000000E+00  0.2990997E-03
 -0.4937066E-02  0.0000000E+00 -0.5050505E-02  0.5487372E-04  0.0000000E+00  0.3205413E-03
 -0.4906239E-02  0.0000000E+00 -0.5050505E-02  0.6044039E-04  0.0000000E+00  0.3442154E-03
 -0.4866782E-02  0.0000000E+00 -0.5050505E-02  0.6666542E-04  0.0000000E+00  0.3704540E-03
 -0.4827325E-02  0.0000000E+00 -0.5050505E-02  0.7352621E-04  0.0000000E+00  0.3996473E-03
 -0.4769372E-02  0.0000000E+00 -0.5050505E-02  0.8085952E-04  0.0000000E+00  0.4322313E-03
 -0.4690458E-02  0.0000000E+00 -0.5050505E-02  0.8821554E-04  0.0000000E+00  0.4686140E-03
 -0.4611543E-02  0.0000000E+00 -0.5050505E-02  0.9461201E-04  0.0000000E+00  0.5089123E-03
 -0.4503035E-02  0.0000000E+00 -0.5050505E-02  0.9827424E-04  0.0000000E+00  0.5522064E-03
 -0.4345206E-02  0.0000000E+00 -0.5050505E-02  0.9729325E-04  0.0000000E+00  0.5952358E-03
 -0.4187378E-02  0.0000000E+00 -0.5050505E-02  0.9699255E-04  0.0000000E+00  0.6360349E-03
 -0.3985156E-02  0.0000000E+00 -0.5050505E-02  0.9935567E-04  0.0000000E+00  0.6756428E-03
 -0.3669499E-02  0.0000000E+00 -0.5050505E-02  0.1060563E-03  0.0000000E+00  0.7152755E-03
 -0.3353842E-02  0.0000000E+00 -0.5050505E-02  0.1185722E-03  0.0000000E+00  0.7556656E-03
 -0.2978990E-02  0.0000000E+00 -0.5050505E-02  0.1385670E-03  0.0000000E+00  0.7958480E-03
 -0.2347676E-02  0.0000000E+00 -0.5050505E-02  0.1662983E-03  0.0000000E+00  0.8321613E-03
 -0.1716362E-02  0.0000000E+00 -0.5050505E-02  0.1888210E-03  0.0000000E+00  0.8673723E-03
 -0.1025842E-02  0.0000000E+00 -0.5050505E-02  0.2121574E-03  0.0000000E+00  0.9072037E-03
  0.2367855E-03  0.0000000E+00 -0.5050505E-02  0.2273209E-03  0.0000000E+00  0.9628608E-03
  0.1499413E-02  0.0000000E+00 -0.5050505E-02  0.2583287E-03  0.0000000E+00  0.1051215E-02
  0.2762042E-02  0.0000000E+00 -0.5050505E-02  0.2616209E-03  0.0000000E+00  0.1190897E-02
 -0.5050505E-02  0.0000000E+00 -0.5050505E-02  0.3119401E-03  0.0000000E+00  0.1367183E-02
 -0.5050505E-02  0.0000000E+00 -0.5050505E-02  0.2830897E-03  0.0000000E+00  0.1503103E-02
 -0.5050505E-02  0.0000000E+00 -0.5050505E-02  0.3832147E-03  0.0000000E+00  0.1612537E-02
 -0.5050505E-02  0.0000000E+00 -0.5050505E-02  0.4503493E-03  0.0000000E+00  0.1758930E-02
 -0.5050505E-02  0.0000000E+00 -0.5050505E-02  0.2794103E-03  0.0000000E+00  0.1841227E-02
 -0.5050505E-02  0.0000000E+00 -0.5050505E-02  0.4876835E-03  0.0000000E+00  0.1901254E-02
 -0.5050505E-02  0.0000000E+00 -0.5050505E-02  0.2306589E-03  0.0000000E+00  0.2070480E-02
 -0.5050504E-02  0.0000000E+00 -0.5050505E-02 -0.7769678E-03  0.0000000E+00  0.2075599E-02
 -0.5050501E-02  0.0000000E+00 -0.5050505E-02 -0.4366965E-03  0.0000000E+00  0.1931521E-02
 -0.5050495E-02  0.0000000E+00 -0.5050505E-02 -0.2892367E-03  0.0000000E+00  0.1809475E-02
 -0.5050482E-02  0.0000000E+00 -0.5050505E-02 -0.2212532E-03  0.0000000E+00  0.1654844E-02
 -0.5050449E-02  0.0000000E+00 -0.5050505E-02 -0.1639044E-03  0.0000000E+00  0.1587750E-02
 -0.5050376E-02  0.0000000E+00 -0.5050505E-02 -0.1167884E-03  0.0000000E+00  0.1586742E-02
 -0.5050299E-02  0.0000000E+00 -0.5050505E-02 -0.4976547E-04  0.0000000E+00  0.1566544E-02
 -0.5050178E-02  0.0000000E+00 -0.5050505E-02 -0.1640212E-03  0.0000000E+00  0.1540555E-02
 -0.5050018E-02  0.0000000E+00 -0.5050505E-02 -0.1391069E-03  0.0000000E+00  0.1501458E-02
 -0.5049710E-02  0.0000000E+00 -0.5050505E-02 -0.1033286E-03  0.0000000E+00  0.1453542E-02
 -0.5049253E-02  0.0000000E+00 -0.5050505E-02 -0.1084354E-03  0.0000000E+00  0.1373173E-02
 -0.5048636E-02  0.0000000E+00 -0.5050505E-02 -0.1496375E-03  0.0000000E+00  0.1260988E-02
 -0.5047442E-02  0.0000000E+00 -0.5050505E-02 -0.1387650E-03  0.0000000E+00  0.1210922E-02
 -0.5045727E-02  0.0000000E+00 -0.5050505E-02 -0.1024421E-03  0.0000000E+00  0.1219931E-02
 -0.5043261E-02  0.0000000E+00 -0.5050505E-02 -0.1516484E-03  0.0000000E+00  0.1189092E-02
 -0.5038714E-02  0.0000000E+00 -0.5050505E-02 -0.1473089E-03  0.0000000E+00  0.1123611E-02
 -0.5032318E-02  0.0000000E+00 -0.5050505E-02 -0.1760720E-03  0.0000000E+00  0.1049401E-02
 -0.5022454E-02  0.0000000E+00 -0.5050505E-02 -0.1748026E-03  0.0000000E+00  0.9613717E-03
 -0.5012589E-02  0.0000000E+00 -0.5050505E-02 -0.1673849E-03  0.0000000E+00  0.8794741E-03
 -0.5002725E-02  0.0000000E+00 -0.5050505E-02 -0.1554510E-03  0.0000000E+00  0.8036827E-03
 -0.4992860E-02  0.0000000E+00 -0.5050505E-02 -0.1364063E-03  0.0000000E+00  0.7374096E-03
 -0.4976523E-02  0.0000000E+00 -0.5050505E-02 -0.1189228E-03  0.0000000E+00  0.6822331E-03
 -0.4956794E-02  0.0000000E+00 -0.5050505E-02 -0.1042062E-03  0.0000000E+00  0.6352048E-03
 -0.4937066E-02  0.0000000E+00 -0.5050505E-02 -0.9192287E-04  0.0000000E+00  0.5942429E-03
 -0.4906239E-02  0.0000000E+00 -0.5050505E-02 -0.8155020E-04  0.0000000E+00  0.5580979E-03
 -0.4866782E-02  0.0000000E+00 -0.5050505E-02 -0.7265295E-04  0.0000000E+00  0.5259743E-03
 -0.4827325E-02  0.0000000E+00 -0.5050505E-02 -0.6490817E-04  0.0000000E+00  0.4973139E-03
 -0.4769372E-02  0.0000000E+00 -0.5050505E-02 -0.5808031E-04  0.0000000E+00  0.4716917E-03
 -0.4690458E-02  0.0000000E+00 -0.5050505E-02 -0.5199435E-04  0.0000000E+00  0.4487678E-03
 -0.4611543E-02  0.0000000E+00 -0.5050505E-02 -0.4651607E-04  0.0000000E+00  0.4282626E-03
 -0.4503035E-02  0.0000000E+00 -0.5050505E-02 -0.4153898E-04  0.0000000E+00  0.4099438E-03
 -0.4345206E-02  0.0000000E+00 -0.5050505E-02 -0.3697587E-04  0.0000000E+00  0.3936173E-03
 -0.4187378E-02  0.0000000E+00 -0.5050505E-02 -0.3275304E-04  0.0000000E+00  0.3791214E-03
 -0.3985156E-02  0.0000000E+00 -0.5050505E-02 -0.2880586E-04  0.0000000E+00  0.3663212E-03
 -0.3669499E-02  0.0000000E+00 -0.5050505E-02 -0.2507445E-04  0.0000000E+00  0.3551049E-03
 -0.3353842E-02  0.0000000E+00 -0.5050505E-02 -0.2149849E-04  0.0000000E+00  0.3453792E-03
 -0.2978990E-02  0.0000000E+00 -0.5050505E-02 -0.1800958E-04  0.0000000E+00  0.3370628E-03
 -0.2347676E-02  0.0000000E+00 -0.5050505E-02 -0.1451881E-04  0.0000000E+00  0.3300734E-03
 -0.1716362E-02  0.0000000E+00 -0.5050505E-02 -0.1089689E-04  0.0000000E+00  0.3242941E-03
 -0.1025842E-02  0.0000000E+00 -0.5050505E-02 -0.6949849E-05  0.0000000E+00  0.3194864E-03
  0.2367855E-03  0.0000000E+00 -0.5050505E-02 -0.2434656E-05  0.0000000E+00  0.3150821E-03
  0.1499413E-02  0.0000000E+00 -0.5050505E-02  0.2624755E-05  0.0000000E+00  0.3098458E-03
  0.5287294E-02  0.0000000E+00 -0.5050505E-02  0.6032120E-05  0.0000000E+00  0.3024747E-03
 -0.5050505E-02  0.0000000E+00 -0.5050505E-02  0.6323802E-06  0.0000000E+00  0.9253481E-04
 -0.5050505E-02  0.0000000E+00 -0.5050505E-02  0.1899511E-05  0.0000000E+00  0.9289880E-04
 -0.5050505E-02  0.0000000E+00 -0.5050505E-02  0.3173800E-05  0.0000000E+00  0.9362808E-04
 -0.5050505E-02  0.0000000E+00 -0.5050505E-02  0.4460142E-05  0.0000000E+00  0.9472535E-04
 -0.5050505E-02  0.0000000E+00 -0.5050505E-02  0.5763590E-05  0.0000000E+00  0.9619474E-04
 -0.5050505E-02  0.0000000E+00 -0.5050505E-02  0.7089414E-05  0.0000000E+00  0.9804191E-04
 -0.5050504E-02  0.0000000E+00 -0.5050505E-02  0.8443158E-05  0.0000000E+00  0.1002741E-03
 -0.5050501E-02  0.0000000E+00 -0.5050505E-02  0.9830715E-05  0.0000000E+00  0.1029001E-03
 -0.5050495E-02  0.0000000E+00 -0.5050505E-02  0.1125840E-04  0.0000000E+00  0.1059306E-03
 -0.5050482E-02  0.0000000E+00 -0.5050505E-02  0.1273305E-04  0.0000000E+00  0.1093781E-03
 -0.5050449E-02  0.0000000E+00 -0.5050505E-02  0.1426208E-04  0.0000000E+00  0.1132572E-03
 -0.5050376E-02  0.0000000E+00 -0.5050505E-02  0.1585366E-04  0.0000000E+00  0.1175846E-03
 -0.5050299E-02  0.0000000E+00 -0.5050505E-02  0.1751680E-04  0.0000000E+00  0.1223798E-03
 -0.5050178E-02  0.0000000E+00 -0.5050505E-02  0.1926154E-04  0.0000000E+00  0.1276646E-03
 -0.5050018E-02  0.0000000E+00 -0.5050505E-02  0.2109911E-04  0.0000000E+00  0.1334642E-03
 -0.5049710E-02  0.0000000E+00 -0.5050505E-02  0.2304218E-04  0.0000000E+00  0.1398068E-03
 -0.5049253E-02  0.0000000E+00 -0.5050505E-02  0.2510516E-04  0.0000000E+00  0.1467248E-03
 -0.5048636E-02  0.0000000E+00 -0.5050505E-02  0.2730450E-04  0.0000000E+00  0.1542547E-03
 -0.5047442E-02  0.0000000E+00 -0.5050505E-02  0.2965913E-04  0.0000000E+00  0.1624380E-03
 -0.5045727E-02  0.0000000E+00 -0.5050505E-02  0.3219104E-04  0.0000000E+00  0.1713219E-03
 -0.5043261E-02  0.0000000E+00 -0.5050505E-02  0.3492587E-04  0.0000000E+00  0.1809601E-03
 -0.5038714E-02  0.0000000E+00 -0.5050505E-02  0.3789374E-04  0.0000000E+00  0.1914143E-03
 -0.5032318E-02  0.0000000E+00 -0.5050505E-02  0.4113028E-04  0.0000000E+00  0.2027548E-03
 -0.5022454E-02  0.0000000E+00 -0.5050505E-02  0.4467778E-04  0.0000000E+00  0.2150631E-03
 -0.5012589E-02  0.0000000E+00 -0.5050505E-02  0.4858663E-04  0.0000000E+00  0.2284336E-03
 -0.5002725E-02  0.0000000E+00 -0.5050505E-02  0.5291693E-04  0.0000000E+00  0.2429767E-03
 -0.4992860E-02  0.0000000E+00 -0.5050505E-02  0.5774013E-04  0.0000000E+00  0.2588227E-03
 -0.4976523E-02  0.0000000E+00 -0.5050505E-02  0.6314056E-04  0.0000000E+00  0.2761268E-03
 -0.4956794E-02  0.0000000E+00 -0.5050505E-02  0.6921617E-04  0.0000000E+00  0.2950767E-03
 -0.4937066E-02  0.0000000E+00 -0.5050505E-02  0.7607746E-04  0.0000000E+00  0.3159030E-03