title = "dataset feddes"
variables = "x", "y", "z", "vx", "vy", "vz"
zone t = "velocities, solution time =  6.000E+01 days        " i =   99, j =   99, k =    1,  f=point
 -0.5050505E-02  0.0000000E+00 -0.5050505E-02  0.9749548E-07  0.0000000E+00  0.1153571E-03
 -0.5050505E-02  0.0000000E+00 -0.5050505E-02  0.2928770E-06  0.0000000E+00  0.1157541E-03
 -0.5050505E-02  0.0000000E+00 -0.5050505E-02  0.4894432E-06  0.0000000E+00  0.1165499E-03
 -0.5050505E-02  0.0000000E+00 -0.5050505E-02  0.6880087E-06  0.0000000E+00  0.1177478E-03
 -0.5050505E-02  0.0000000E+00 -0.5050505E-02  0.8894155E-06  0.0000000E+00  0.1193527E-03
 -0.5050505E-02  0.0000000E+00 -0.5050505E-02  0.1094541E-05  0.0000000E+00  0.1213717E-03
 -0.5050504E-02  0.0000000E+00 -0.5050505E-02  0.1304310E-05  0.0000000E+00  0.1238136E-03
 -0.5050501E-02  0.0000000E+00 -0.5050505E-02  0.1519702E-05  0.0000000E+00  0.1266890E-03
 -0.5050495E-02  0.0000000E+00 -0.5050505E-02  0.1741766E-05  0.0000000E+00  0.1300111E-03
 -0.5050482E-02  0.0000000E+00 -0.5050505E-02  0.1971635E-05  0.0000000E+00  0.1337950E-03
 -0.5050449E-02  0.0000000E+00 -0.5050505E-02  0.2210542E-05  0.0000000E+00  0.1380585E-03
 -0.5050376E-02  0.0000000E+00 -0.5050505E-02  0.2459838E-05  0.0000000E+00  0.1428223E-03
 -0.5050299E-02  0.0000000E+00 -0.5050505E-02  0.2721017E-05  0.0000000E+00  0.1481098E-03
 -0.5050178E-02  0.0000000E+00 -0.5050505E-02  0.2995739E-05  0.0000000E+00  0.1539480E-03
 -0.5050018E-02  0.0000000E+00 -0.5050505E-02  0.3285867E-05  0.0000000E+00  0.1603676E-03
 -0.5049710E-02  0.0000000E+00 -0.5050505E-02  0.3593507E-05  0.0000000E+00  0.1674035E-03
 -0.5049253E-02  0.0000000E+00 -0.5050505E-02  0.3921057E-05  0.0000000E+00  0.1750958E-03
 -0.5048636E-02  0.0000000E+00 -0.5050505E-02  0.4271270E-05  0.0000000E+00  0.1834897E-03
 -0.5047442E-02  0.0000000E+00 -0.5050505E-02  0.4647336E-05  0.0000000E+00  0.1926371E-03
 -0.5045727E-02  0.0000000E+00 -0.5050505E-02  0.5052980E-05  0.0000000E+00  0.2025973E-03
 -0.5043261E-02  0.0000000E+00 -0.5050505E-02  0.5492586E-05  0.0000000E+00  0.2134386E-03
 -0.5038714E-02  0.0000000E+00 -0.5050505E-02  0.5971359E-05  0.0000000E+00  0.2252395E-03
 -0.5032318E-02  0.0000000E+00 -0.5050505E-02  0.6495508E-05  0.0000000E+00  0.2380913E-03
 -0.5022454E-02  0.0000000E+00 -0.5050505E-02  0.7072485E-05  0.0000000E+00  0.2521001E-03
 -0.5012589E-02  0.0000000E+00 -0.5050505E-02  0.7711243E-05  0.0000000E+00  0.2673901E-03
 -0.5002725E-02  0.0000000E+00 -0.5050505E-02  0.8422517E-05  0.0000000E+00  0.2841074E-03
 -0.4992860E-02  0.0000000E+00 -0.5050505E-02  0.9219070E-05  0.0000000E+00  0.3024242E-03
 -0.4976523E-02  0.0000000E+00 -0.5050505E-02  0.1011579E-04  0.0000000E+00  0.3225437E-03
 -0.4956794E-02  0.0000000E+00 -0.5050505E-02  0.1112937E-04  0.0000000E+00  0.3447051E-03
 -0.4937066E-02  0.0000000E+00 -0.5050505E-02  0.1227711E-04  0.0000000E+00  0.3691867E-03
 -0.4906239E-02  0.0000000E+00 -0.5050505E-02  0.1357364E-04  0.0000000E+00  0.3963051E-03
 -0.4866782E-02  0.0000000E+00 -0.5050505E-02  0.1502355E-04  0.0000000E+00  0.4264031E-03
 -0.4827325E-02  0.0000000E+00 -0.5050505E-02  0.1660593E-04  0.0000000E+00  0.4598138E-03
 -0.4769372E-02  0.0000000E+00 -0.5050505E-02  0.1824440E-04  0.0000000E+00  0.4967751E-03
 -0.4690458E-02  0.0000000E+00 -0.5050505E-02  0.1975702E-04  0.0000000E+00  0.5372574E-03
 -0.4611543E-02  0.0000000E+00 -0.5050505E-02  0.2079935E-04  0.0000000E+00  0.5806705E-03
 -0.4503035E-02  0.0000000E+00 -0.5050505E-02  0.2090333E-04  0.0000000E+00  0.6255407E-03
 -0.4345206E-02  0.0000000E+00 -0.5050505E-02  0.1997011E-04  0.0000000E+00  0.6697521E-03
 -0.4187378E-02  0.0000000E+00 -0.5050505E-02  0.1966022E-04  0.0000000E+00  0.7128474E-03
 -0.3985156E-02  0.0000000E+00 -0.5050505E-02  0.2045742E-04  0.0000000E+00  0.7567001E-03
 -0.3669499E-02  0.0000000E+00 -0.5050505E-02  0.2281099E-04  0.0000000E+00  0.8042487E-03
 -0.3353842E-02  0.0000000E+00 -0.5050505E-02  0.2789520E-04  0.0000000E+00  0.8602947E-03
 -0.2978990E-02  0.0000000E+00 -0.5050505E-02  0.3934224E-04  0.0000000E+00  0.9351321E-03
 -0.2347676E-02  0.0000000E+00 -0.5050505E-02  0.6982048E-04  0.0000000E+00  0.1057814E-02
 -0.1716362E-02  0.0000000E+00 -0.5050505E-02  0.7406846E-04  0.0000000E+00  0.1221684E-02
 -0.1025842E-02  0.0000000E+00 -0.5050505E-02  0.5063592E-04  0.0000000E+00  0.1366146E-02
  0.2367855E-03  0.0000000E+00 -0.5050505E-02  0.2806334E-04  0.0000000E+00  0.1458847E-02
  0.1499413E-02  0.0000000E+00 -0.5050505E-02  0.4569665E-04  0.0000000E+00  0.1546921E-02
  0.2762042E-02  0.0000000E+00 -0.5050505E-02  0.3410522E-04  0.0000000E+00  0.1643006E-02
 -0.5050505E-02  0.0000000E+00 -0.5050505E-02  0.5787381E-04  0.0000000E+00  0.1755222E-02
 -0.5050505E-02  0.0000000E+00 -0.5050505E-02  0.9251976E-04  0.0000000E+00  0.1941198E-02
 -0.5050505E-02  0.0000000E+00 -0.5050505E-02  0.7138037E-04  0.0000000E+00  0.2147486E-02
 -0.5050505E-02  0.0000000E+00 -0.5050505E-02  0.1415881E-03  0.0000000E+00  0.2423238E-02
 -0.5050505E-02  0.0000000E+00 -0.5050505E-02  0.1328549E-03  0.0000000E+00  0.2788291E-02
 -0.5050505E-02  0.0000000E+00 -0.5050505E-02  0.1068395E-03  0.0000000E+00  0.3119760E-02
 -0.5050505E-02  0.0000000E+00 -0.5050505E-02  0.1177100E-03  0.0000000E+00  0.3442665E-02
 -0.5050504E-02  0.0000000E+00 -0.5050505E-02 -0.3131172E-03  0.0000000E+00  0.3182494E-02
 -0.5050501E-02  0.0000000E+00 -0.5050505E-02 -0.1489248E-03  0.0000000E+00  0.2553681E-02
 -0.5050495E-02  0.0000000E+00 -0.5050505E-02 -0.7544882E-04  0.0000000E+00  0.2259428E-02
 -0.5050482E-02  0.0000000E+00 -0.5050505E-02 -0.3424863E-04  0.0000000E+00  0.2118080E-02
 -0.5050449E-02  0.0000000E+00 -0.5050505E-02 -0.1446811E-04  0.0000000E+00  0.2055810E-02
 -0.5050376E-02  0.0000000E+00 -0.5050505E-02 -0.6100207E-04  0.0000000E+00  0.1960960E-02
 -0.5050299E-02  0.0000000E+00 -0.5050505E-02  0.1047219E-05  0.0000000E+00  0.1885861E-02
 -0.5050178E-02  0.0000000E+00 -0.5050505E-02 -0.6221711E-04  0.0000000E+00  0.1810567E-02
 -0.5050018E-02  0.0000000E+00 -0.5050505E-02 -0.3444795E-04  0.0000000E+00  0.1691952E-02
 -0.5049710E-02  0.0000000E+00 -0.5050505E-02 -0.2077763E-04  0.0000000E+00  0.1624751E-02
 -0.5049253E-02  0.0000000E+00 -0.5050505E-02 -0.1230299E-04  0.0000000E+00  0.1584693E-02
 -0.5048636E-02  0.0000000E+00 -0.5050505E-02 -0.1471144E-04  0.0000000E+00  0.1552124E-02
 -0.5047442E-02  0.0000000E+00 -0.5050505E-02 -0.3052734E-04  0.0000000E+00  0.1497991E-02
 -0.5045727E-02  0.0000000E+00 -0.5050505E-02 -0.3666679E-04  0.0000000E+00  0.1418243E-02
 -0.5043261E-02  0.0000000E+00 -0.5050505E-02 -0.2847821E-04  0.0000000E+00  0.1341539E-02
 -0.5038714E-02  0.0000000E+00 -0.5050505E-02 -0.3096702E-04  0.0000000E+00  0.1272154E-02
 -0.5032318E-02  0.0000000E+00 -0.5050505E-02 -0.3527491E-04  0.0000000E+00  0.1195533E-02
 -0.5022454E-02  0.0000000E+00 -0.5050505E-02 -0.3892711E-04  0.0000000E+00  0.1110549E-02
 -0.5012589E-02  0.0000000E+00 -0.5050505E-02 -0.3814682E-04  0.0000000E+00  0.1023150E-02
 -0.5002725E-02  0.0000000E+00 -0.5050505E-02 -0.3614417E-04  0.0000000E+00  0.9397234E-03
 -0.4992860E-02  0.0000000E+00 -0.5050505E-02 -0.3264170E-04  0.0000000E+00  0.8631673E-03
 -0.4976523E-02  0.0000000E+00 -0.5050505E-02 -0.2874779E-04  0.0000000E+00  0.7953882E-03
 -0.4956794E-02  0.0000000E+00 -0.5050505E-02 -0.2515084E-04  0.0000000E+00  0.7362969E-03
 -0.4937066E-02  0.0000000E+00 -0.5050505E-02 -0.2205266E-04  0.0000000E+00  0.6848631E-03
 -0.4906239E-02  0.0000000E+00 -0.5050505E-02 -0.1943161E-04  0.0000000E+00  0.6399041E-03
 -0.4866782E-02  0.0000000E+00 -0.5050505E-02 -0.1720414E-04  0.0000000E+00  0.6003876E-03
 -0.4827325E-02  0.0000000E+00 -0.5050505E-02 -0.1528746E-04  0.0000000E+00  0.5654878E-03
 -0.4769372E-02  0.0000000E+00 -0.5050505E-02 -0.1361543E-04  0.0000000E+00  0.5345580E-03
 -0.4690458E-02  0.0000000E+00 -0.5050505E-02 -0.1213831E-04  0.0000000E+00  0.5070891E-03
 -0.4611543E-02  0.0000000E+00 -0.5050505E-02 -0.1081872E-04  0.0000000E+00  0.4826751E-03
 -0.4503035E-02  0.0000000E+00 -0.5050505E-02 -0.9627849E-05  0.0000000E+00  0.4609876E-03
 -0.4345206E-02  0.0000000E+00 -0.5050505E-02 -0.8542619E-05  0.0000000E+00  0.4417590E-03
 -0.4187378E-02  0.0000000E+00 -0.5050505E-02 -0.7543748E-05  0.0000000E+00  0.4247707E-03
 -0.3985156E-02  0.0000000E+00 -0.5050505E-02 -0.6614213E-05  0.0000000E+00  0.4098458E-03
 -0.3669499E-02  0.0000000E+00 -0.5050505E-02 -0.5737683E-05  0.0000000E+00  0.3968453E-03
 -0.3353842E-02  0.0000000E+00 -0.5050505E-02 -0.4896230E-05  0.0000000E+00  0.3856681E-03
 -0.2978990E-02  0.0000000E+00 -0.5050505E-02 -0.4065818E-05  0.0000000E+00  0.3762588E-03
 -0.2347676E-02  0.0000000E+00 -0.5050505E-02 -0.3205556E-05  0.0000000E+00  0.3686316E-03
 -0.1716362E-02  0.0000000E+00 -0.5050505E-02 -0.2228403E-05  0.0000000E+00  0.3629356E-03
 -0.1025842E-02  0.0000000E+00 -0.5050505E-02 -0.9119606E-06  0.0000000E+00  0.3596452E-03
  0.2367855E-03  0.0000000E+00 -0.5050505E-02  0.1401520E-05  0.0000000E+00  0.3601581E-03
  0.1499413E-02  0.0000000E+00 -0.5050505E-02  0.6906916E-05  0.0000000E+00  0.3688648E-03
  0.5287294E-02  0.0000000E+00 -0.5050505E-02  0.1287664E-03  0.0000000E+00  0.2931792E-03
 -0.5050505E-02  0.0000000E+00 -0.5050505E-02  0.2918853E-06  0.0000000E+00  0.1152313E-03
 -0.5050505E-02  0.0000000E+00 -0.5050505E-02  0.8768284E-06  0.0000000E+00  0.1156272E-03
 -0.5050505E-02  0.0000000E+00 -0.5050505E-02  0.1465321E-05  0.0000000E+00  0.1164204E-03
 -0.5050505E-02  0.0000000E+00 -0.5050505E-02  0.2059800E-05  0.0000000E+00  0.1176144E-03
 -0.5050505E-02  0.0000000E+00 -0.5050505E-02  0.2662781E-05  0.0000000E+00  0.1192142E-03
 -0.5050505E-02  0.0000000E+00 -0.5050505E-02  0.3276888E-05  0.0000000E+00  0.1212265E-03
 -0.5050504E-02  0.0000000E+00 -0.5050505E-02  0.3904877E-05  0.0000000E+00  0.1236601E-03
 -0.5050501E-02  0.0000000E+00 -0.5050505E-02  0.4549678E-05  0.0000000E+00  0.1265256E-03
 -0.5050495E-02  0.0000000E+00 -0.5050505E-02  0.5214425E-05  0.0000000E+00  0.1298360E-03
 -0.5050482E-02  0.0000000E+00 -0.5050505E-02  0.5902498E-05  0.0000000E+00  0.1336062E-03
 -0.5050449E-02  0.0000000E+00 -0.5050505E-02  0.6617576E-05  0.0000000E+00  0.1378540E-03
 -0.5050376E-02  0.0000000E+00 -0.5050505E-02  0.7363692E-05  0.0000000E+00  0.1425995E-03
 -0.5050299E-02  0.0000000E+00 -0.5050505E-02  0.8145295E-05  0.0000000E+00  0.1478660E-03
 -0.5050178E-02  0.0000000E+00 -0.5050505E-02  0.8967338E-05  0.0000000E+00  0.1536802E-03
 -0.5050018E-02  0.0000000E+00 -0.5050505E-02  0.9835368E-05  0.0000000E+00  0.1600723E-03
 -0.5049710E-02  0.0000000E+00 -0.5050505E-02  0.1075565E-04  0.0000000E+00  0.1670768E-03
 -0.5049253E-02  0.0000000E+00 -0.5050505E-02  0.1173532E-04  0.0000000E+00  0.1747330E-03
 -0.5048636E-02  0.0000000E+00 -0.5050505E-02  0.1278256E-04  0.0000000E+00  0.1830854E-03
 -0.5047442E-02  0.0000000E+00 -0.5050505E-02  0.1390683E-04  0.0000000E+00  0.1921850E-03
 -0.5045727E-02  0.0000000E+00 -0.5050505E-02  0.1511920E-04  0.0000000E+00  0.2020899E-03
 -0.5043261E-02  0.0000000E+00 -0.5050505E-02  0.1643267E-04  0.0000000E+00  0.2128668E-03
 -0.5038714E-02  0.0000000E+00 -0.5050505E-02  0.1786265E-04  0.0000000E+00  0.2245926E-03
 -0.5032318E-02  0.0000000E+00 -0.5050505E-02  0.1942758E-04  0.0000000E+00  0.2373562E-03
 -0.5022454E-02  0.0000000E+00 -0.5050505E-02  0.2114954E-04  0.0000000E+00  0.2512610E-03
 -0.5012589E-02  0.0000000E+00 -0.5050505E-02  0.2305514E-04  0.0000000E+00  0.2664279E-03
 -0.5002725E-02  0.0000000E+00 -0.5050505E-02  0.2517636E-04  0.0000000E+00  0.2829991E-03
 -0.4992860E-02  0.0000000E+00 -0.5050505E-02  0.2755143E-04  0.0000000E+00  0.3011427E-03
 -0.4976523E-02  0.0000000E+00 -0.5050505E-02  0.3022532E-04  0.0000000E+00  0.3210580E-03
 -0.4956794E-02  0.0000000E+00 -0.5050505E-02  0.3324936E-04  0.0000000E+00  0.3429815E-03
 -0.4937066E-02  0.0000000E+00 -0.5050505E-02  0.3667853E-04  0.0000000E+00  0.3671936E-03
 -0.4906239E-02  0.0000000E+00 -0.5050505E-02  0.4056373E-04  0.0000000E+00  0.3940235E-03
 -0.4866782E-02  0.0000000E+00 -0.5050505E-02  0.4493330E-04  0.0000000E+00  0.4238494E-03
 -0.4827325E-02  0.0000000E+00 -0.5050505E-02  0.4975216E-04  0.0000000E+00  0.4570851E-03
 -0.4769372E-02  0.0000000E+00 -0.5050505E-02  0.5483684E-04  0.0000000E+00  0.4941292E-03
 -0.4690458E-02  0.0000000E+00 -0.5050505E-02  0.5969162E-04  0.0000000E+00  0.5352199E-03
 -0.4611543E-02  0.0000000E+00 -0.5050505E-02  0.6324099E-04  0.0000000E+00  0.5800526E-03
 -0.4503035E-02  0.0000000E+00 -0.5050505E-02  0.6361800E-04  0.0000000E+00  0.6269074E-03
 -0.4345206E-02  0.0000000E+00 -0.5050505E-02  0.5925482E-04  0.0000000E+00  0.6715392E-03
 -0.4187378E-02  0.0000000E+00 -0.5050505E-02  0.5786982E-04  0.0000000E+00  0.7129077E-03
 -0.3985156E-02  0.0000000E+00 -0.5050505E-02  0.5984412E-04  0.0000000E+00  0.7540984E-03
 -0.3669499E-02  0.0000000E+00 -0.5050505E-02  0.6583406E-04  0.0000000E+00  0.7973598E-03
 -0.3353842E-02  0.0000000E+00 -0.5050505E-02  0.7781488E-04  0.0000000E+00  0.8443111E-03
 -0.2978990E-02  0.0000000E+00 -0.5050505E-02  0.1008513E-03  0.0000000E+00  0.8937531E-03
 -0.2347676E-02  0.0000000E+00 -0.5050505E-02  0.1485018E-03  0.0000000E+00  0.9289724E-03
 -0.1716362E-02  0.0000000E+00 -0.5050505E-02  0.1644290E-03  0.0000000E+00  0.9579728E-03
 -0.1025842E-02  0.0000000E+00 -0.5050505E-02  0.1531593E-03  0.0000000E+00  0.1035508E-02
  0.2367855E-03  0.0000000E+00 -0.5050505E-02  0.1336680E-03  0.0000000E+00  0.1184002E-02
  0.1499413E-02  0.0000000E+00 -0.5050505E-02  0.1625069E-03  0.0000000E+00  0.1357743E-02
  0.2762042E-02  0.0000000E+00 -0.5050505E-02  0.1487903E-03  0.0000000E+00  0.1539596E-02
 -0.5050505E-02  0.0000000E+00 -0.5050505E-02  0.1635625E-03  0.0000000E+00  0.1697308E-02
 -0.5050505E-02  0.0000000E+00 -0.5050505E-02  0.2153672E-03  0.0000000E+00  0.1796897E-02
 -0.5050505E-02  0.0000000E+00 -0.5050505E-02  0.2449362E-03  0.0000000E+00  0.1967611E-02
 -0.5050505E-02  0.0000000E+00 -0.5050505E-02  0.3468102E-03  0.0000000E+00  0.2184932E-02
 -0.5050505E-02  0.0000000E+00 -0.5050505E-02  0.2832642E-03  0.0000000E+00  0.2299465E-02
 -0.5050505E-02  0.0000000E+00 -0.5050505E-02  0.3496587E-03  0.0000000E+00  0.2517407E-02
 -0.5050505E-02  0.0000000E+00 -0.5050505E-02  0.2089672E-03  0.0000000E+00  0.2675918E-02
 -0.5050504E-02  0.0000000E+00 -0.5050505E-02 -0.7038890E-03  0.0000000E+00  0.2533643E-02
 -0.5050501E-02  0.0000000E+00 -0.5050505E-02 -0.3751294E-03  0.0000000E+00  0.2316462E-02
 -0.5050495E-02  0.0000000E+00 -0.5050505E-02 -0.1989480E-03  0.0000000E+00  0.2145196E-02
 -0.5050482E-02  0.0000000E+00 -0.5050505E-02 -0.1215385E-03  0.0000000E+00  0.2010158E-02
 -0.5050449E-02  0.0000000E+00 -0.5050505E-02 -0.1029086E-03  0.0000000E+00  0.1845929E-02
 -0.5050376E-02  0.0000000E+00 -0.5050505E-02 -0.1171196E-03  0.0000000E+00  0.1756236E-02
 -0.5050299E-02  0.0000000E+00 -0.5050505E-02 -0.1401988E-04  0.0000000E+00  0.1740548E-02
 -0.5050178E-02  0.0000000E+00 -0.5050505E-02 -0.1400337E-03  0.0000000E+00  0.1699563E-02
 -0.5050018E-02  0.0000000E+00 -0.5050505E-02 -0.9091966E-04  0.0000000E+00  0.1651104E-02
 -0.5049710E-02  0.0000000E+00 -0.5050505E-02 -0.5743670E-04  0.0000000E+00  0.1603226E-02
 -0.5049253E-02  0.0000000E+00 -0.5050505E-02 -0.2762979E-04  0.0000000E+00  0.1579278E-02
 -0.5048636E-02  0.0000000E+00 -0.5050505E-02 -0.7192703E-04  0.0000000E+00  0.1523367E-02
 -0.5047442E-02  0.0000000E+00 -0.5050505E-02 -0.9928802E-04  0.0000000E+00  0.1425271E-02
 -0.5045727E-02  0.0000000E+00 -0.5050505E-02 -0.8124009E-04  0.0000000E+00  0.1369202E-02
 -0.5043261E-02  0.0000000E+00 -0.5050505E-02 -0.7580993E-04  0.0000000E+00  0.1336587E-02
 -0.5038714E-02  0.0000000E+00 -0.5050505E-02 -0.9078224E-04  0.0000000E+00  0.1279713E-02
 -0.5032318E-02  0.0000000E+00 -0.5050505E-02 -0.1058982E-03  0.0000000E+00  0.1204264E-02
 -0.5022454E-02  0.0000000E+00 -0.5050505E-02 -0.1203244E-03  0.0000000E+00  0.1114192E-02
 -0.5012589E-02  0.0000000E+00 -0.5050505E-02 -0.1152916E-03  0.0000000E+00  0.1021132E-02
 -0.5002725E-02  0.0000000E+00 -0.5050505E-02 -0.1096325E-03  0.0000000E+00  0.9349710E-03
 -0.4992860E-02  0.0000000E+00 -0.5050505E-02 -0.9818124E-04  0.0000000E+00  0.8565069E-03
 -0.4976523E-02  0.0000000E+00 -0.5050505E-02 -0.8589751E-04  0.0000000E+00  0.7886128E-03
 -0.4956794E-02  0.0000000E+00 -0.5050505E-02 -0.7493306E-04  0.0000000E+00  0.7302943E-03
 -0.4937066E-02  0.0000000E+00 -0.5050505E-02 -0.6566543E-04  0.0000000E+00  0.6798118E-03
 -0.4906239E-02  0.0000000E+00 -0.5050505E-02 -0.5788503E-04  0.0000000E+00  0.6356981E-03
 -0.4866782E-02  0.0000000E+00 -0.5050505E-02 -0.5128419E-04  0.0000000E+00  0.5968604E-03
 -0.4827325E-02  0.0000000E+00 -0.5050505E-02 -0.4559978E-04  0.0000000E+00  0.5624908E-03
 -0.4769372E-02  0.0000000E+00 -0.5050505E-02 -0.4063361E-04  0.0000000E+00  0.5319762E-03
 -0.4690458E-02  0.0000000E+00 -0.5050505E-02 -0.3624022E-04  0.0000000E+00  0.5048365E-03
 -0.4611543E-02  0.0000000E+00 -0.5050505E-02 -0.3231108E-04  0.0000000E+00  0.4806868E-03
 -0.4503035E-02  0.0000000E+00 -0.5050505E-02 -0.2876240E-04  0.0000000E+00  0.4592132E-03
 -0.4345206E-02  0.0000000E+00 -0.5050505E-02 -0.2552687E-04  0.0000000E+00  0.4401577E-03
 -0.4187378E-02  0.0000000E+00 -0.5050505E-02 -0.2254815E-04  0.0000000E+00  0.4233079E-03
 -0.3985156E-02  0.0000000E+00 -0.5050505E-02 -0.1977670E-04  0.0000000E+00  0.4084898E-03
 -0.3669499E-02  0.0000000E+00 -0.5050505E-02 -0.1716575E-04  0.0000000E+00  0.3955635E-03
 -0.3353842E-02  0.0000000E+00 -0.5050505E-02 -0.1466587E-04  0.0000000E+00  0.3844202E-03
 -0.2978990E-02  0.0000000E+00 -0.5050505E-02 -0.1221529E-04  0.0000000E+00  0.3749817E-03
 -0.2347676E-02  0.0000000E+00 -0.5050505E-02 -0.9719431E-05  0.0000000E+00  0.3671993E-03
 -0.1716362E-02  0.0000000E+00 -0.5050505E-02 -0.7002592E-05  0.0000000E+00  0.3610406E-03
 -0.1025842E-02  0.0000000E+00 -0.5050505E-02 -0.3684516E-05  0.0000000E+00  0.3564100E-03
  0.2367855E-03  0.0000000E+00 -0.5050505E-02  0.1155050E-05  0.0000000E+00  0.3527343E-03
  0.1499413E-02  0.0000000E+00 -0.5050505E-02  0.9930508E-05  0.0000000E+00  0.3469742E-03
  0.5287294E-02  0.0000000E+00 -0.5050505E-02  0.2933357E-04  0.0000000E+00  0.3242232E-03
 -0.5050505E-02  0.0000000E+00 -0.5050505E-02  0.4847790E-06  0.0000000E+00  0.1149860E-03
 -0.5050505E-02  0.0000000E+00 -0.5050505E-02  0.1456286E-05  0.0000000E+00  0.1153793E-03
 -0.5050505E-02  0.0000000E+00 -0.5050505E-02  0.2433686E-05  0.0000000E+00  0.1161676E-03
 -0.5050505E-02  0.0000000E+00 -0.5050505E-02  0.3421013E-05  0.0000000E+00  0.1173539E-03
 -0.5050505E-02  0.0000000E+00 -0.5050505E-02  0.4422430E-05  0.0000000E+00  0.1189433E-03
 -0.5050505E-02  0.0000000E+00 -0.5050505E-02  0.5442276E-05  0.0000000E+00  0.1209424E-03
 -0.5050504E-02  0.0000000E+00 -0.5050505E-02  0.6485111E-05  0.0000000E+00  0.1233598E-03
 -0.5050501E-02  0.0000000E+00 -0.5050505E-02  0.7555773E-05  0.0000000E+00  0.1262058E-03
 -0.5050495E-02  0.0000000E+00 -0.5050505E-02  0.8659441E-05  0.0000000E+00  0.1294931E-03
 -0.5050482E-02  0.0000000E+00 -0.5050505E-02  0.9801696E-05  0.0000000E+00  0.1332364E-03
 -0.5050449E-02  0.0000000E+00 -0.5050505E-02  0.1098861E-04  0.0000000E+00  0.1374529E-03
 -0.5050376E-02  0.0000000E+00 -0.5050505E-02  0.1222683E-04  0.0000000E+00  0.1421624E-03
 -0.5050299E-02  0.0000000E+00 -0.5050505E-02  0.1352368E-04  0.0000000E+00  0.1473877E-03
 -0.5050178E-02  0.0000000E+00 -0.5050505E-02  0.1488731E-04  0.0000000E+00  0.1531546E-03
 -0.5050018E-02  0.0000000E+00 -0.5050505E-02  0.1632685E-04  0.0000000E+00  0.1594926E-03
 -0.5049710E-02  0.0000000E+00 -0.5050505E-02  0.1785256E-04  0.0000000E+00  0.1664352E-03
 -0.5049253E-02  0.0000000E+00 -0.5050505E-02  0.1947615E-04  0.0000000E+00  0.1740204E-03
 -0.5048636E-02  0.0000000E+00 -0.5050505E-02  0.2121099E-04  0.0000000E+00  0.1822913E-03
 -0.5047442E-02  0.0000000E+00 -0.5050505E-02  0.2307255E-04  0.0000000E+00  0.1912969E-03
 -0.5045727E-02  0.0000000E+00 -0.5050505E-02  0.2507885E-04  0.0000000E+00  0.2010931E-03
 -0.5043261E-02  0.0000000E+00 -0.5050505E-02  0.2725108E-04  0.0000000E+00  0.2117438E-03
 -0.5038714E-02  0.0000000E+00 -0.5050505E-02  0.2961434E-04  0.0000000E+00  0.2233222E-03
 -0.5032318E-02  0.0000000E+00 -0.5050505E-02  0.3219858E-04  0.0000000E+00  0.2359128E-03
 -0.5022454E-02  0.0000000E+00 -0.5050505E-02  0.3503982E-04  0.0000000E+00  0.2496136E-03
 -0.5012589E-02  0.0000000E+00 -0.5050505E-02  0.3818147E-04  0.0000000E+00  0.2645390E-03
 -0.5002725E-02  0.0000000E+00 -0.5050505E-02  0.4167601E-04  0.0000000E+00  0.2808231E-03
 -0.4992860E-02  0.0000000E+00 -0.5050505E-02  0.4558670E-04  0.0000000E+00  0.2986253E-03
 -0.4976523E-02  0.0000000E+00 -0.5050505E-02  0.4998913E-04  0.0000000E+00  0.3181355E-03
 -0.4956794E-02  0.0000000E+00 -0.5050505E-02  0.5497195E-04  0.0000000E+00  0.3395826E-03
 -0.4937066E-02  0.0000000E+00 -0.5050505E-02  0.6063538E-04  0.0000000E+00  0.3632452E-03
 -0.4906239E-02  0.0000000E+00 -0.5050505E-02  0.6708432E-04  0.0000000E+00  0.3894660E-03
 -0.4866782E-02  0.0000000E+00 -0.5050505E-02  0.7440942E-04  0.0000000E+00  0.4186737E-03
 -0.4827325E-02  0.0000000E+00 -0.5050505E-02  0.8264090E-04  0.0000000E+00  0.4514122E-03
 -0.4769372E-02  0.0000000E+00 -0.5050505E-02  0.9163969E-04  0.0000000E+00  0.4883795E-03
 -0.4690458E-02  0.0000000E+00 -0.5050505E-02  0.1008391E-03  0.0000000E+00  0.5304369E-03
 -0.4611543E-02  0.0000000E+00 -0.5050505E-02  0.1086113E-03  0.0000000E+00  0.5783641E-03
 -0.4503035E-02  0.0000000E+00 -0.5050505E-02  0.1106446E-03  0.0000000E+00  0.6311777E-03
 -0.4345206E-02  0.0000000E+00 -0.5050505E-02  0.9561908E-04  0.0000000E+00  0.6771739E-03
 -0.4187378E-02  0.0000000E+00 -0.5050505E-02  0.9280269E-04  0.0000000E+00  0.7139458E-03
 -0.3985156E-02  0.0000000E+00 -0.5050505E-02  0.9535088E-04  0.0000000E+00  0.7504310E-03
 -0.3669499E-02  0.0000000E+00 -0.5050505E-02  0.1031826E-03  0.0000000E+00  0.7879756E-03
 -0.3353842E-02  0.0000000E+00 -0.5050505E-02  0.1175032E-03  0.0000000E+00  0.8269749E-03
 -0.2978990E-02  0.0000000E+00 -0.5050505E-02  0.1400429E-03  0.0000000E+00  0.8661418E-03
 -0.2347676E-02  0.0000000E+00 -0.5050505E-02  0.1710964E-03  0.0000000E+00  0.9012732E-03
 -0.1716362E-02  0.0000000E+00 -0.5050505E-02  0.1964421E-03  0.0000000E+00  0.9352854E-03
 -0.1025842E-02  0.0000000E+00 -0.5050505E-02  0.2229217E-03  0.0000000E+00  0.9742614E-03
  0.2367855E-03  0.0000000E+00 -0.5050505E-02  0.2413088E-03  0.0000000E+00  0.1029833E-02
  0.1499413E-02  0.0000000E+00 -0.5050505E-02  0.2796120E-03  0.0000000E+00  0.1117979E-02
  0.2762042E-02  0.0000000E+00 -0.5050505E-02  0.2942465E-03  0.0000000E+00  0.1247824E-02
 -0.5050505E-02  0.0000000E+00 -0.5050505E-02  0.3036133E-03  0.0000000E+00  0.1435960E-02
 -0.5050505E-02  0.0000000E+00 -0.5050505E-02  0.2845204E-03  0.0000000E+00  0.1598043E-02
 -0.5050505E-02  0.0000000E+00 -0.5050505E-02  0.3993798E-03  0.0000000E+00  0.1717138E-02
 -0.5050505E-02  0.0000000E+00 -0.5050505E-02  0.4755621E-03  0.0000000E+00  0.1873574E-02
 -0.5050505E-02  0.0000000E+00 -0.5050505E-02  0.2943926E-03  0.0000000E+00  0.1958750E-02
 -0.5050505E-02  0.0000000E+00 -0.5050505E-02  0.5282279E-03  0.0000000E+00  0.2020648E-02
 -0.5050505E-02  0.0000000E+00 -0.5050505E-02  0.2611384E-03  0.0000000E+00  0.2203807E-02
 -0.5050504E-02  0.0000000E+00 -0.5050505E-02 -0.8617019E-03  0.0000000E+00  0.2208429E-02
 -0.5050501E-02  0.0000000E+00 -0.5050505E-02 -0.4801457E-03  0.0000000E+00  0.2050202E-02
 -0.5050495E-02  0.0000000E+00 -0.5050505E-02 -0.3125529E-03  0.0000000E+00  0.1916592E-02
 -0.5050482E-02  0.0000000E+00 -0.5050505E-02 -0.2338830E-03  0.0000000E+00  0.1748788E-02
 -0.5050449E-02  0.0000000E+00 -0.5050505E-02 -0.1681361E-03  0.0000000E+00  0.1679176E-02
 -0.5050376E-02  0.0000000E+00 -0.5050505E-02 -0.1141087E-03  0.0000000E+00  0.1683980E-02
 -0.5050299E-02  0.0000000E+00 -0.5050505E-02 -0.3847407E-04  0.0000000E+00  0.1668754E-02
 -0.5050178E-02  0.0000000E+00 -0.5050505E-02 -0.1619939E-03  0.0000000E+00  0.1647537E-02
 -0.5050018E-02  0.0000000E+00 -0.5050505E-02 -0.1328100E-03  0.0000000E+00  0.1611244E-02
 -0.5049710E-02  0.0000000E+00 -0.5050505E-02 -0.8973977E-04  0.0000000E+00  0.1563439E-02
 -0.5049253E-02  0.0000000E+00 -0.5050505E-02 -0.8657215E-04  0.0000000E+00  0.1472401E-02
 -0.5048636E-02  0.0000000E+00 -0.5050505E-02 -0.1518956E-03  0.0000000E+00  0.1356845E-02
 -0.5047442E-02  0.0000000E+00 -0.5050505E-02 -0.1276824E-03  0.0000000E+00  0.1321575E-02
 -0.5045727E-02  0.0000000E+00 -0.5050505E-02 -0.7446269E-04  0.0000000E+00  0.1349344E-02
 -0.5043261E-02  0.0000000E+00 -0.5050505E-02 -0.1047851E-03  0.0000000E+00  0.1353440E-02
 -0.5038714E-02  0.0000000E+00 -0.5050505E-02 -0.1491457E-03  0.0000000E+00  0.1304643E-02
 -0.5032318E-02  0.0000000E+00 -0.5050505E-02 -0.1759482E-03  0.0000000E+00  0.1227494E-02
 -0.5022454E-02  0.0000000E+00 -0.5050505E-02 -0.2181415E-03  0.0000000E+00  0.1122354E-02
 -0.5012589E-02  0.0000000E+00 -0.5050505E-02 -0.1925483E-03  0.0000000E+00  0.1014841E-02
 -0.5002725E-02  0.0000000E+00 -0.5050505E-02 -0.1881224E-03  0.0000000E+00  0.9249514E-03
 -0.4992860E-02  0.0000000E+00 -0.5050505E-02 -0.1643517E-03  0.0000000E+00  0.8417116E-03
 -0.4976523E-02  0.0000000E+00 -0.5050505E-02 -0.1417450E-03  0.0000000E+00  0.7743505E-03
 -0.4956794E-02  0.0000000E+00 -0.5050505E-02 -0.1230733E-03  0.0000000E+00  0.7181998E-03
 -0.4937066E-02  0.0000000E+00 -0.5050505E-02 -0.1078331E-03  0.0000000E+00  0.6698705E-03
 -0.4906239E-02  0.0000000E+00 -0.5050505E-02 -0.9518242E-04  0.0000000E+00  0.6274968E-03
 -0.4866782E-02  0.0000000E+00 -0.5050505E-02 -0.8445735E-04  0.0000000E+00  0.5899951E-03
 -0.4827325E-02  0.0000000E+00 -0.5050505E-02 -0.7519442E-04  0.0000000E+00  0.5566504E-03
 -0.4769372E-02  0.0000000E+00 -0.5050505E-02 -0.6707408E-04  0.0000000E+00  0.5269350E-03
 -0.4690458E-02  0.0000000E+00 -0.5050505E-02 -0.5986958E-04  0.0000000E+00  0.5004303E-03
 -0.4611543E-02  0.0000000E+00 -0.5050505E-02 -0.5341257E-04  0.0000000E+00  0.4767926E-03
 -0.4503035E-02  0.0000000E+00 -0.5050505E-02 -0.4757203E-04  0.0000000E+00  0.4557351E-03
 -0.4345206E-02  0.0000000E+00 -0.5050505E-02 -0.4224167E-04  0.0000000E+00  0.4370178E-03
 -0.4187378E-02  0.0000000E+00 -0.5050505E-02 -0.3733204E-04  0.0000000E+00  0.4204402E-03
 -0.3985156E-02  0.0000000E+00 -0.5050505E-02 -0.3276495E-04  0.0000000E+00  0.4058349E-03
 -0.3669499E-02  0.0000000E+00 -0.5050505E-02 -0.2846845E-04  0.0000000E+00  0.3930630E-03
 -0.3353842E-02  0.0000000E+00 -0.5050505E-02 -0.2437091E-04  0.0000000E+00  0.3820086E-03
 -0.2978990E-02  0.0000000E+00 -0.5050505E-02 -0.2039241E-04  0.0000000E+00  0.3725712E-03
 -0.2347676E-02  0.0000000E+00 -0.5050505E-02 -0.1643094E-04  0.0000000E+00  0.3646511E-03
 -0.1716362E-02  0.0000000E+00 -0.5050505E-02 -0.1234018E-04  0.0000000E+00  0.3581124E-03
 -0.1025842E-02  0.0000000E+00 -0.5050505E-02 -0.7902280E-05  0.0000000E+00  0.3526859E-03
  0.2367855E-03  0.0000000E+00 -0.5050505E-02 -0.2844349E-05  0.0000000E+00  0.3477378E-03
  0.1499413E-02  0.0000000E+00 -0.5050505E-02  0.2813456E-05  0.0000000E+00  0.3418938E-03
  0.5287294E-02  0.0000000E+00 -0.5050505E-02  0.6648933E-05  0.0000000E+00  0.3336975E-03
 -0.5050505E-02  0.0000000E+00 -0.5050505E-02  0.6755987E-06  0.0000000E+00  0.1146279E-03
 -0.5050505E-02  0.0000000E+00 -0.5050505E-02  0.2029507E-05  0.0000000E+00  0.1150175E-03
 -0.5050505E-02  0.0000000E+00 -0.5050505E-02  0.3391601E-05  0.0000000E+00  0.1157984E-03
 -0.5050505E-02  0.0000000E+00 -0.5050505E-02  0.4767475E-05  0.0000000E+00  0.1169735E-03
 -0.5050505E-02  0.0000000E+00 -0.5050505E-02  0.6162899E-05  0.0000000E+00  0.1185477E-03
 -0.5050505E-02  0.0000000E+00 -0.5050505E-02  0.7583879E-05  0.0000000E+00  0.1205273E-03
 -0.5050504E-02  0.0000000E+00 -0.5050505E-02  0.9036728E-05  0.0000000E+00  0.1229207E-03
 -0.5050501E-02  0.0000000E+00 -0.5050505E-02  0.1052814E-04  0.0000000E+00  0.1257379E-03
 -0.5050495E-02  0.0000000E+00 -0.5050505E-02  0.1206527E-04  0.0000000E+00  0.1289912E-03
 -0.5050482E-02  0.0000000E+00 -0.5050505E-02  0.1365582E-04  0.0000000E+00  0.1326948E-03
 -0.5050449E-02  0.0000000E+00 -0.5050505E-02  0.1530818E-04  0.0000000E+00  0.1368653E-03
 -0.5050376E-02  0.0000000E+00 -0.5050505E-02  0.1703151E-04  0.0000000E+00  0.1415219E-03
 -0.5050299E-02  0.0000000E+00 -0.5050505E-02  0.1883589E-04  0.0000000E+00  0.1466865E-03
 -0.5050178E-02  0.0000000E+00 -0.5050505E-02  0.2073251E-04  0.0000000E+00  0.1523839E-03
 -0.5050018E-02  0.0000000E+00 -0.5050505E-02  0.2273389E-04  0.0000000E+00  0.1586424E-03
 -0.5049710E-02  0.0000000E+00 -0.5050505E-02  0.2485408E-04  0.0000000E+00  0.1654942E-03
 -0.5049253E-02  0.0000000E+00 -0.5050505E-02  0.2710906E-04  0.0000000E+00  0.1729753E-03
 -0.5048636E-02  0.0000000E+00 -0.5050505E-02  0.2951703E-04  0.0000000E+00  0.1811268E-03
 -0.5047442E-02  0.0000000E+00 -0.5050505E-02  0.3209903E-04  0.0000000E+00  0.1899950E-03
 -0.5045727E-02  0.0000000E+00 -0.5050505E-02  0.3487946E-04  0.0000000E+00  0.1996325E-03
 -0.5043261E-02  0.0000000E+00 -0.5050505E-02  0.3788697E-04  0.0000000E+00  0.2100991E-03
 -0.5038714E-02  0.0000000E+00 -0.5050505E-02  0.4115543E-04  0.0000000E+00  0.2214627E-03
 -0.5032318E-02  0.0000000E+00 -0.5050505E-02  0.4472527E-04  0.0000000E+00  0.2338016E-03
 -0.5022454E-02  0.0000000E+00 -0.5050505E-02  0.4864507E-04  0.0000000E+00  0.2472055E-03
 -0.5012589E-02  0.0000000E+00 -0.5050505E-02  0.5297360E-04  0.0000000E+00  0.2617790E-03
 -0.5002725E-02  0.0000000E+00 -0.5050505E-02  0.5778228E-04  0.0000000E+00  0.2776444E-03
 -0.4992860E-02  0.0000000E+00 -0.5050505E-02  0.6315804E-04  0.0000000E+00  0.2949464E-03
 -0.4976523E-02  0.0000000E+00 -0.5050505E-02  0.6920661E-04  0.0000000E+00  0.3138587E-03
 -0.4956794E-02  0.0000000E+00 -0.5050505E-02  0.7605570E-04  0.0000000E+00  0.3345930E-03
 -0.4937066E-02  0.0000000E+00 -0.5050505E-02  0.8385770E-04  0.0000000E+00  0.3574130E-03