title = "dataset feddes"
variables = "x", "y", "z", "vx", "vy", "vz"
zone t = "velocities, solution time =  4.500E+01 days        " i =   99, j =   99, k =    1,  f=point
 -0.5050505E-02  0.0000000E+00 -0.5050505E-02  0.5574243E-07  0.0000000E+00 -0.7907093E-04
 -0.5050505E-02  0.0000000E+00 -0.5050505E-02  0.1673760E-06  0.0000000E+00 -0.7884567E-04
 -0.5050505E-02  0.0000000E+00 -0.5050505E-02  0.2794597E-06  0.0000000E+00 -0.7839456E-04
 -0.5050505E-02  0.0000000E+00 -0.5050505E-02  0.3923012E-06  0.0000000E+00 -0.7771643E-04
 -0.5050505E-02  0.0000000E+00 -0.5050505E-02  0.5062164E-06  0.0000000E+00 -0.7680950E-04
 -0.5050505E-02  0.0000000E+00 -0.5050505E-02  0.6215322E-06  0.0000000E+00 -0.7567134E-04
 -0.5050504E-02  0.0000000E+00 -0.5050505E-02  0.7385889E-06  0.0000000E+00 -0.7429889E-04
 -0.5050501E-02  0.0000000E+00 -0.5050505E-02  0.8577437E-06  0.0000000E+00 -0.7268840E-04
 -0.5050495E-02  0.0000000E+00 -0.5050505E-02  0.9793739E-06  0.0000000E+00 -0.7083540E-04
 -0.5050482E-02  0.0000000E+00 -0.5050505E-02  0.1103881E-05  0.0000000E+00 -0.6873468E-04
 -0.5050449E-02  0.0000000E+00 -0.5050505E-02  0.1231692E-05  0.0000000E+00 -0.6638018E-04
 -0.5050376E-02  0.0000000E+00 -0.5050505E-02  0.1363270E-05  0.0000000E+00 -0.6376502E-04
 -0.5050299E-02  0.0000000E+00 -0.5050505E-02  0.1499112E-05  0.0000000E+00 -0.6088137E-04
 -0.5050178E-02  0.0000000E+00 -0.5050505E-02  0.1639757E-05  0.0000000E+00 -0.5772038E-04
 -0.5050018E-02  0.0000000E+00 -0.5050505E-02  0.1785795E-05  0.0000000E+00 -0.5427212E-04
 -0.5049710E-02  0.0000000E+00 -0.5050505E-02  0.1937867E-05  0.0000000E+00 -0.5052549E-04
 -0.5049253E-02  0.0000000E+00 -0.5050505E-02  0.2096679E-05  0.0000000E+00 -0.4646804E-04
 -0.5048636E-02  0.0000000E+00 -0.5050505E-02  0.2263007E-05  0.0000000E+00 -0.4208595E-04
 -0.5047442E-02  0.0000000E+00 -0.5050505E-02  0.2437707E-05  0.0000000E+00 -0.3736378E-04
 -0.5045727E-02  0.0000000E+00 -0.5050505E-02  0.2621724E-05  0.0000000E+00 -0.3228440E-04
 -0.5043261E-02  0.0000000E+00 -0.5050505E-02  0.2816110E-05  0.0000000E+00 -0.2682875E-04
 -0.5038714E-02  0.0000000E+00 -0.5050505E-02  0.3022032E-05  0.0000000E+00 -0.2097568E-04
 -0.5032318E-02  0.0000000E+00 -0.5050505E-02  0.3240793E-05  0.0000000E+00 -0.1470164E-04
 -0.5022454E-02  0.0000000E+00 -0.5050505E-02  0.3473846E-05  0.0000000E+00 -0.7980529E-05
 -0.5012589E-02  0.0000000E+00 -0.5050505E-02  0.3722826E-05  0.0000000E+00 -0.7784567E-06
 -0.5002725E-02  0.0000000E+00 -0.5050505E-02  0.3989620E-05  0.0000000E+00  0.6950565E-05
 -0.4992860E-02  0.0000000E+00 -0.5050505E-02  0.4276356E-05  0.0000000E+00  0.1524788E-04
 -0.4976523E-02  0.0000000E+00 -0.5050505E-02  0.4585453E-05  0.0000000E+00  0.2415235E-04
 -0.4956794E-02  0.0000000E+00 -0.5050505E-02  0.4919672E-05  0.0000000E+00  0.3371365E-04
 -0.4937066E-02  0.0000000E+00 -0.5050505E-02  0.5282183E-05  0.0000000E+00  0.4398783E-04
 -0.4906239E-02  0.0000000E+00 -0.5050505E-02  0.5676644E-05  0.0000000E+00  0.5503824E-04
 -0.4866782E-02  0.0000000E+00 -0.5050505E-02  0.6107303E-05  0.0000000E+00  0.6693676E-04
 -0.4827325E-02  0.0000000E+00 -0.5050505E-02  0.6579124E-05  0.0000000E+00  0.7976520E-04
 -0.4769372E-02  0.0000000E+00 -0.5050505E-02  0.7097959E-05  0.0000000E+00  0.9361710E-04
 -0.4690458E-02  0.0000000E+00 -0.5050505E-02  0.7670770E-05  0.0000000E+00  0.1086000E-03
 -0.4611543E-02  0.0000000E+00 -0.5050505E-02  0.8305927E-05  0.0000000E+00  0.1248380E-03
 -0.4503035E-02  0.0000000E+00 -0.5050505E-02  0.9013629E-05  0.0000000E+00  0.1424758E-03
 -0.4345206E-02  0.0000000E+00 -0.5050505E-02  0.9806496E-05  0.0000000E+00  0.1616831E-03
 -0.4187378E-02  0.0000000E+00 -0.5050505E-02  0.1070043E-04  0.0000000E+00  0.1826610E-03
 -0.3985156E-02  0.0000000E+00 -0.5050505E-02  0.1171596E-04  0.0000000E+00  0.2056510E-03
 -0.3669499E-02  0.0000000E+00 -0.5050505E-02  0.1288024E-04  0.0000000E+00  0.2309474E-03
 -0.3353842E-02  0.0000000E+00 -0.5050505E-02  0.1423043E-04  0.0000000E+00  0.2589158E-03
 -0.2978990E-02  0.0000000E+00 -0.5050505E-02  0.1581902E-04  0.0000000E+00  0.2900218E-03
 -0.2347676E-02  0.0000000E+00 -0.5050505E-02  0.1772270E-04  0.0000000E+00  0.3248745E-03
 -0.1716362E-02  0.0000000E+00 -0.5050505E-02  0.2005671E-04  0.0000000E+00  0.3642974E-03
 -0.1025842E-02  0.0000000E+00 -0.5050505E-02  0.2299648E-04  0.0000000E+00  0.4094395E-03
  0.2367855E-03  0.0000000E+00 -0.5050505E-02  0.2680486E-04  0.0000000E+00  0.4619448E-03
  0.1499413E-02  0.0000000E+00 -0.5050505E-02  0.3184129E-04  0.0000000E+00  0.5241714E-03
  0.2762042E-02  0.0000000E+00 -0.5050505E-02  0.3843124E-04  0.0000000E+00  0.5992999E-03
 -0.5050505E-02  0.0000000E+00 -0.5050505E-02  0.4603320E-04  0.0000000E+00  0.6904228E-03
 -0.5050505E-02  0.0000000E+00 -0.5050505E-02  0.4903526E-04  0.0000000E+00  0.7940807E-03
 -0.5050505E-02  0.0000000E+00 -0.5050505E-02  0.5239190E-04  0.0000000E+00  0.9060454E-03
 -0.5050505E-02  0.0000000E+00 -0.5050505E-02  0.4801522E-04  0.0000000E+00  0.1018305E-02
 -0.5050505E-02  0.0000000E+00 -0.5050505E-02  0.5727802E-04  0.0000000E+00  0.1137698E-02
 -0.5050505E-02  0.0000000E+00 -0.5050505E-02  0.9296701E-04  0.0000000E+00  0.1310681E-02
 -0.5050505E-02  0.0000000E+00 -0.5050505E-02  0.1294419E-03  0.0000000E+00  0.1572037E-02
 -0.5050504E-02  0.0000000E+00 -0.5050505E-02 -0.1710870E-03  0.0000000E+00  0.1524801E-02
 -0.5050501E-02  0.0000000E+00 -0.5050505E-02 -0.9389868E-04  0.0000000E+00  0.1216322E-02
 -0.5050495E-02  0.0000000E+00 -0.5050505E-02 -0.6314148E-04  0.0000000E+00  0.1037654E-02
 -0.5050482E-02  0.0000000E+00 -0.5050505E-02 -0.4821145E-04  0.0000000E+00  0.9129128E-03
 -0.5050449E-02  0.0000000E+00 -0.5050505E-02 -0.3898901E-04  0.0000000E+00  0.8163672E-03
 -0.5050376E-02  0.0000000E+00 -0.5050505E-02 -0.3265527E-04  0.0000000E+00  0.7377941E-03
 -0.5050299E-02  0.0000000E+00 -0.5050505E-02 -0.2813005E-04  0.0000000E+00  0.6716599E-03
 -0.5050178E-02  0.0000000E+00 -0.5050505E-02 -0.2476311E-04  0.0000000E+00  0.6145073E-03
 -0.5050018E-02  0.0000000E+00 -0.5050505E-02 -0.2212866E-04  0.0000000E+00  0.5641458E-03
 -0.5049710E-02  0.0000000E+00 -0.5050505E-02 -0.1996658E-04  0.0000000E+00  0.5191800E-03
 -0.5049253E-02  0.0000000E+00 -0.5050505E-02 -0.1812771E-04  0.0000000E+00  0.4786860E-03
 -0.5048636E-02  0.0000000E+00 -0.5050505E-02 -0.1652809E-04  0.0000000E+00  0.4420097E-03
 -0.5047442E-02  0.0000000E+00 -0.5050505E-02 -0.1511866E-04  0.0000000E+00  0.4086525E-03
 -0.5045727E-02  0.0000000E+00 -0.5050505E-02 -0.1386795E-04  0.0000000E+00  0.3782115E-03
 -0.5043261E-02  0.0000000E+00 -0.5050505E-02 -0.1275317E-04  0.0000000E+00  0.3503486E-03
 -0.5038714E-02  0.0000000E+00 -0.5050505E-02 -0.1175601E-04  0.0000000E+00  0.3247756E-03
 -0.5032318E-02  0.0000000E+00 -0.5050505E-02 -0.1086083E-04  0.0000000E+00  0.3012442E-03
 -0.5022454E-02  0.0000000E+00 -0.5050505E-02 -0.1005386E-04  0.0000000E+00  0.2795410E-03
 -0.5012589E-02  0.0000000E+00 -0.5050505E-02 -0.9322950E-05  0.0000000E+00  0.2594825E-03
 -0.5002725E-02  0.0000000E+00 -0.5050505E-02 -0.8657438E-05  0.0000000E+00  0.2409116E-03
 -0.4992860E-02  0.0000000E+00 -0.5050505E-02 -0.8048018E-05  0.0000000E+00  0.2236935E-03
 -0.4976523E-02  0.0000000E+00 -0.5050505E-02 -0.7486652E-05  0.0000000E+00  0.2077131E-03
 -0.4956794E-02  0.0000000E+00 -0.5050505E-02 -0.6966433E-05  0.0000000E+00  0.1928723E-03
 -0.4937066E-02  0.0000000E+00 -0.5050505E-02 -0.6481462E-05  0.0000000E+00  0.1790867E-03
 -0.4906239E-02  0.0000000E+00 -0.5050505E-02 -0.6026712E-05  0.0000000E+00  0.1662844E-03
 -0.4866782E-02  0.0000000E+00 -0.5050505E-02 -0.5597906E-05  0.0000000E+00  0.1544037E-03
 -0.4827325E-02  0.0000000E+00 -0.5050505E-02 -0.5191401E-05  0.0000000E+00  0.1433914E-03
 -0.4769372E-02  0.0000000E+00 -0.5050505E-02 -0.4804090E-05  0.0000000E+00  0.1332021E-03
 -0.4690458E-02  0.0000000E+00 -0.5050505E-02 -0.4433305E-05  0.0000000E+00  0.1237963E-03
 -0.4611543E-02  0.0000000E+00 -0.5050505E-02 -0.4076742E-05  0.0000000E+00  0.1151403E-03
 -0.4503035E-02  0.0000000E+00 -0.5050505E-02 -0.3732380E-05  0.0000000E+00  0.1072049E-03
 -0.4345206E-02  0.0000000E+00 -0.5050505E-02 -0.3398409E-05  0.0000000E+00  0.9996526E-04
 -0.4187378E-02  0.0000000E+00 -0.5050505E-02 -0.3073148E-05  0.0000000E+00  0.9340015E-04
 -0.3985156E-02  0.0000000E+00 -0.5050505E-02 -0.2754932E-05  0.0000000E+00  0.8749207E-04
 -0.3669499E-02  0.0000000E+00 -0.5050505E-02 -0.2441932E-05  0.0000000E+00  0.8222727E-04
 -0.3353842E-02  0.0000000E+00 -0.5050505E-02 -0.2131813E-05  0.0000000E+00  0.7759635E-04
 -0.2978990E-02  0.0000000E+00 -0.5050505E-02 -0.1820971E-05  0.0000000E+00  0.7359611E-04
 -0.2347676E-02  0.0000000E+00 -0.5050505E-02 -0.1502636E-05  0.0000000E+00  0.7023398E-04
 -0.1716362E-02  0.0000000E+00 -0.5050505E-02 -0.1161671E-05  0.0000000E+00  0.6753968E-04
 -0.1025842E-02  0.0000000E+00 -0.5050505E-02 -0.7587651E-06  0.0000000E+00  0.6559808E-04
  0.2367855E-03  0.0000000E+00 -0.5050505E-02 -0.1778217E-06  0.0000000E+00  0.6465129E-04
  0.1499413E-02  0.0000000E+00 -0.5050505E-02  0.9646676E-06  0.0000000E+00  0.6544668E-04
  0.5287294E-02  0.0000000E+00 -0.5050505E-02  0.2263449E-04  0.0000000E+00  0.5187218E-04
 -0.5050505E-02  0.0000000E+00 -0.5050505E-02  0.1670111E-06  0.0000000E+00 -0.7892500E-04
 -0.5050505E-02  0.0000000E+00 -0.5050505E-02  0.5014800E-06  0.0000000E+00 -0.7869998E-04
 -0.5050505E-02  0.0000000E+00 -0.5050505E-02  0.8372984E-06  0.0000000E+00 -0.7824937E-04
 -0.5050505E-02  0.0000000E+00 -0.5050505E-02  0.1175387E-05  0.0000000E+00 -0.7757200E-04
 -0.5050505E-02  0.0000000E+00 -0.5050505E-02  0.1516692E-05  0.0000000E+00 -0.7666610E-04
 -0.5050505E-02  0.0000000E+00 -0.5050505E-02  0.1862189E-05  0.0000000E+00 -0.7552928E-04
 -0.5050504E-02  0.0000000E+00 -0.5050505E-02  0.2212898E-05  0.0000000E+00 -0.7415849E-04
 -0.5050501E-02  0.0000000E+00 -0.5050505E-02  0.2569887E-05  0.0000000E+00 -0.7255000E-04
 -0.5050495E-02  0.0000000E+00 -0.5050505E-02  0.2934283E-05  0.0000000E+00 -0.7069939E-04
 -0.5050482E-02  0.0000000E+00 -0.5050505E-02  0.3307287E-05  0.0000000E+00 -0.6860148E-04
 -0.5050449E-02  0.0000000E+00 -0.5050505E-02  0.3690180E-05  0.0000000E+00 -0.6625026E-04
 -0.5050376E-02  0.0000000E+00 -0.5050505E-02  0.4084341E-05  0.0000000E+00 -0.6363891E-04
 -0.5050299E-02  0.0000000E+00 -0.5050505E-02  0.4491259E-05  0.0000000E+00 -0.6075963E-04
 -0.5050178E-02  0.0000000E+00 -0.5050505E-02  0.4912548E-05  0.0000000E+00 -0.5760368E-04
 -0.5050018E-02  0.0000000E+00 -0.5050505E-02  0.5349968E-05  0.0000000E+00 -0.5416120E-04
 -0.5049710E-02  0.0000000E+00 -0.5050505E-02  0.5805441E-05  0.0000000E+00 -0.5042115E-04
 -0.5049253E-02  0.0000000E+00 -0.5050505E-02  0.6281075E-05  0.0000000E+00 -0.4637122E-04
 -0.5048636E-02  0.0000000E+00 -0.5050505E-02  0.6779192E-05  0.0000000E+00 -0.4199769E-04
 -0.5047442E-02  0.0000000E+00 -0.5050505E-02  0.7302349E-05  0.0000000E+00 -0.3728527E-04
 -0.5045727E-02  0.0000000E+00 -0.5050505E-02  0.7853377E-05  0.0000000E+00 -0.3221696E-04
 -0.5043261E-02  0.0000000E+00 -0.5050505E-02  0.8435417E-05  0.0000000E+00 -0.2677390E-04
 -0.5038714E-02  0.0000000E+00 -0.5050505E-02  0.9051960E-05  0.0000000E+00 -0.2093510E-04
 -0.5032318E-02  0.0000000E+00 -0.5050505E-02  0.9706897E-05  0.0000000E+00 -0.1467730E-04
 -0.5022454E-02  0.0000000E+00 -0.5050505E-02  0.1040458E-04  0.0000000E+00 -0.7974606E-05
 -0.5012589E-02  0.0000000E+00 -0.5050505E-02  0.1114989E-04  0.0000000E+00 -0.7935180E-06
 -0.5002725E-02  0.0000000E+00 -0.5050505E-02  0.1194845E-04  0.0000000E+00  0.6911548E-05
 -0.4992860E-02  0.0000000E+00 -0.5050505E-02  0.1280662E-04  0.0000000E+00  0.1518151E-04
 -0.4976523E-02  0.0000000E+00 -0.5050505E-02  0.1373162E-04  0.0000000E+00  0.2405469E-04
 -0.4956794E-02  0.0000000E+00 -0.5050505E-02  0.1473168E-04  0.0000000E+00  0.3358016E-04
 -0.4937066E-02  0.0000000E+00 -0.5050505E-02  0.1581624E-04  0.0000000E+00  0.4381322E-04
 -0.4906239E-02  0.0000000E+00 -0.5050505E-02  0.1699622E-04  0.0000000E+00  0.5481631E-04
 -0.4866782E-02  0.0000000E+00 -0.5050505E-02  0.1828425E-04  0.0000000E+00  0.6666019E-04
 -0.4827325E-02  0.0000000E+00 -0.5050505E-02  0.1969509E-04  0.0000000E+00  0.7942531E-04
 -0.4769372E-02  0.0000000E+00 -0.5050505E-02  0.2124613E-04  0.0000000E+00  0.9320349E-04
 -0.4690458E-02  0.0000000E+00 -0.5050505E-02  0.2295801E-04  0.0000000E+00  0.1081000E-03
 -0.4611543E-02  0.0000000E+00 -0.5050505E-02  0.2485550E-04  0.0000000E+00  0.1242363E-03
 -0.4503035E-02  0.0000000E+00 -0.5050505E-02  0.2696871E-04  0.0000000E+00  0.1417531E-03
 -0.4345206E-02  0.0000000E+00 -0.5050505E-02  0.2933477E-04  0.0000000E+00  0.1608149E-03
 -0.4187378E-02  0.0000000E+00 -0.5050505E-02  0.3200030E-04  0.0000000E+00  0.1816158E-03
 -0.3985156E-02  0.0000000E+00 -0.5050505E-02  0.3502506E-04  0.0000000E+00  0.2043867E-03
 -0.3669499E-02  0.0000000E+00 -0.5050505E-02  0.3848774E-04  0.0000000E+00  0.2294066E-03
 -0.3353842E-02  0.0000000E+00 -0.5050505E-02  0.4249507E-04  0.0000000E+00  0.2570173E-03
 -0.2978990E-02  0.0000000E+00 -0.5050505E-02  0.4719686E-04  0.0000000E+00  0.2876469E-03
 -0.2347676E-02  0.0000000E+00 -0.5050505E-02  0.5281092E-04  0.0000000E+00  0.3218449E-03
 -0.1716362E-02  0.0000000E+00 -0.5050505E-02  0.5966460E-04  0.0000000E+00  0.3603405E-03
 -0.1025842E-02  0.0000000E+00 -0.5050505E-02  0.6826276E-04  0.0000000E+00  0.4041425E-03
  0.2367855E-03  0.0000000E+00 -0.5050505E-02  0.7939314E-04  0.0000000E+00  0.4547219E-03
  0.1499413E-02  0.0000000E+00 -0.5050505E-02  0.9426972E-04  0.0000000E+00  0.5143919E-03
  0.2762042E-02  0.0000000E+00 -0.5050505E-02  0.1146623E-03  0.0000000E+00  0.5872572E-03
 -0.5050505E-02  0.0000000E+00 -0.5050505E-02  0.1428131E-03  0.0000000E+00  0.6823576E-03
 -0.5050505E-02  0.0000000E+00 -0.5050505E-02  0.1470300E-03  0.0000000E+00  0.7906122E-03
 -0.5050505E-02  0.0000000E+00 -0.5050505E-02  0.1644212E-03  0.0000000E+00  0.9102823E-03
 -0.5050505E-02  0.0000000E+00 -0.5050505E-02  0.1317287E-03  0.0000000E+00  0.1016904E-02
 -0.5050505E-02  0.0000000E+00 -0.5050505E-02  0.1486264E-03  0.0000000E+00  0.1096550E-02
 -0.5050505E-02  0.0000000E+00 -0.5050505E-02  0.2279235E-03  0.0000000E+00  0.1184262E-02
 -0.5050505E-02  0.0000000E+00 -0.5050505E-02  0.2627329E-03  0.0000000E+00  0.1238569E-02
 -0.5050504E-02  0.0000000E+00 -0.5050505E-02 -0.3723803E-03  0.0000000E+00  0.1209004E-02
 -0.5050501E-02  0.0000000E+00 -0.5050505E-02 -0.2419181E-03  0.0000000E+00  0.1112184E-02
 -0.5050495E-02  0.0000000E+00 -0.5050505E-02 -0.1757078E-03  0.0000000E+00  0.9951288E-03
 -0.5050482E-02  0.0000000E+00 -0.5050505E-02 -0.1396889E-03  0.0000000E+00  0.8915045E-03
 -0.5050449E-02  0.0000000E+00 -0.5050505E-02 -0.1144532E-03  0.0000000E+00  0.8032494E-03
 -0.5050376E-02  0.0000000E+00 -0.5050505E-02 -0.9637919E-04  0.0000000E+00  0.7291374E-03
 -0.5050299E-02  0.0000000E+00 -0.5050505E-02 -0.8337208E-04  0.0000000E+00  0.6657793E-03
 -0.5050178E-02  0.0000000E+00 -0.5050505E-02 -0.7365051E-04  0.0000000E+00  0.6103570E-03
 -0.5050018E-02  0.0000000E+00 -0.5050505E-02 -0.6598092E-04  0.0000000E+00  0.5610609E-03
 -0.5049710E-02  0.0000000E+00 -0.5050505E-02 -0.5962849E-04  0.0000000E+00  0.5167675E-03
 -0.5049253E-02  0.0000000E+00 -0.5050505E-02 -0.5418600E-04  0.0000000E+00  0.4767267E-03
 -0.5048636E-02  0.0000000E+00 -0.5050505E-02 -0.4942912E-04  0.0000000E+00  0.4403826E-03
 -0.5047442E-02  0.0000000E+00 -0.5050505E-02 -0.4522665E-04  0.0000000E+00  0.4072879E-03
 -0.5045727E-02  0.0000000E+00 -0.5050505E-02 -0.4149252E-04  0.0000000E+00  0.3770646E-03
 -0.5043261E-02  0.0000000E+00 -0.5050505E-02 -0.3816236E-04  0.0000000E+00  0.3493869E-03
 -0.5038714E-02  0.0000000E+00 -0.5050505E-02 -0.3518299E-04  0.0000000E+00  0.3239726E-03
 -0.5032318E-02  0.0000000E+00 -0.5050505E-02 -0.3250811E-04  0.0000000E+00  0.3005771E-03
 -0.5022454E-02  0.0000000E+00 -0.5050505E-02 -0.3009669E-04  0.0000000E+00  0.2789896E-03
 -0.5012589E-02  0.0000000E+00 -0.5050505E-02 -0.2791239E-04  0.0000000E+00  0.2590291E-03
 -0.5002725E-02  0.0000000E+00 -0.5050505E-02 -0.2592323E-04  0.0000000E+00  0.2405406E-03
 -0.4992860E-02  0.0000000E+00 -0.5050505E-02 -0.2410138E-04  0.0000000E+00  0.2233914E-03
 -0.4976523E-02  0.0000000E+00 -0.5050505E-02 -0.2242280E-04  0.0000000E+00  0.2074685E-03
 -0.4956794E-02  0.0000000E+00 -0.5050505E-02 -0.2086688E-04  0.0000000E+00  0.1926753E-03
 -0.4937066E-02  0.0000000E+00 -0.5050505E-02 -0.1941600E-04  0.0000000E+00  0.1789292E-03
 -0.4906239E-02  0.0000000E+00 -0.5050505E-02 -0.1805520E-04  0.0000000E+00  0.1661595E-03
 -0.4866782E-02  0.0000000E+00 -0.5050505E-02 -0.1677173E-04  0.0000000E+00  0.1543056E-03
 -0.4827325E-02  0.0000000E+00 -0.5050505E-02 -0.1555474E-04  0.0000000E+00  0.1433154E-03
 -0.4769372E-02  0.0000000E+00 -0.5050505E-02 -0.1439500E-04  0.0000000E+00  0.1331441E-03
 -0.4690458E-02  0.0000000E+00 -0.5050505E-02 -0.1328456E-04  0.0000000E+00  0.1237531E-03
 -0.4611543E-02  0.0000000E+00 -0.5050505E-02 -0.1221658E-04  0.0000000E+00  0.1151090E-03
 -0.4503035E-02  0.0000000E+00 -0.5050505E-02 -0.1118507E-04  0.0000000E+00  0.1071832E-03
 -0.4345206E-02  0.0000000E+00 -0.5050505E-02 -0.1018466E-04  0.0000000E+00  0.9995092E-04
 -0.4187378E-02  0.0000000E+00 -0.5050505E-02 -0.9210422E-05  0.0000000E+00  0.9339110E-04
 -0.3985156E-02  0.0000000E+00 -0.5050505E-02 -0.8257524E-05  0.0000000E+00  0.8748605E-04
 -0.3669499E-02  0.0000000E+00 -0.5050505E-02 -0.7320816E-05  0.0000000E+00  0.8222129E-04
 -0.3353842E-02  0.0000000E+00 -0.5050505E-02 -0.6394035E-05  0.0000000E+00  0.7758564E-04
 -0.2978990E-02  0.0000000E+00 -0.5050505E-02 -0.5468218E-05  0.0000000E+00  0.7357153E-04
 -0.2347676E-02  0.0000000E+00 -0.5050505E-02 -0.4528169E-05  0.0000000E+00  0.7017498E-04
 -0.1716362E-02  0.0000000E+00 -0.5050505E-02 -0.3544012E-05  0.0000000E+00  0.6739351E-04
 -0.1025842E-02  0.0000000E+00 -0.5050505E-02 -0.2449625E-05  0.0000000E+00  0.6521191E-04
  0.2367855E-03  0.0000000E+00 -0.5050505E-02 -0.1084533E-05  0.0000000E+00  0.6353043E-04
  0.1499413E-02  0.0000000E+00 -0.5050505E-02  0.9693335E-06  0.0000000E+00  0.6182605E-04
  0.5287294E-02  0.0000000E+00 -0.5050505E-02  0.4857481E-05  0.0000000E+00  0.5757255E-04
 -0.5050505E-02  0.0000000E+00 -0.5050505E-02  0.2777898E-06  0.0000000E+00 -0.7863676E-04
 -0.5050505E-02  0.0000000E+00 -0.5050505E-02  0.8341127E-06  0.0000000E+00 -0.7841222E-04
 -0.5050505E-02  0.0000000E+00 -0.5050505E-02  0.1392679E-05  0.0000000E+00 -0.7796258E-04
 -0.5050505E-02  0.0000000E+00 -0.5050505E-02  0.1955016E-05  0.0000000E+00 -0.7728671E-04
 -0.5050505E-02  0.0000000E+00 -0.5050505E-02  0.2522692E-05  0.0000000E+00 -0.7638285E-04
 -0.5050505E-02  0.0000000E+00 -0.5050505E-02  0.3097326E-05  0.0000000E+00 -0.7524865E-04
 -0.5050504E-02  0.0000000E+00 -0.5050505E-02  0.3680606E-05  0.0000000E+00 -0.7388111E-04
 -0.5050501E-02  0.0000000E+00 -0.5050505E-02  0.4274303E-05  0.0000000E+00 -0.7227657E-04
 -0.5050495E-02  0.0000000E+00 -0.5050505E-02  0.4880285E-05  0.0000000E+00 -0.7043066E-04
 -0.5050482E-02  0.0000000E+00 -0.5050505E-02  0.5500541E-05  0.0000000E+00 -0.6833826E-04
 -0.5050449E-02  0.0000000E+00 -0.5050505E-02  0.6137195E-05  0.0000000E+00 -0.6599349E-04
 -0.5050376E-02  0.0000000E+00 -0.5050505E-02  0.6792531E-05  0.0000000E+00 -0.6338961E-04
 -0.5050299E-02  0.0000000E+00 -0.5050505E-02  0.7469014E-05  0.0000000E+00 -0.6051896E-04
 -0.5050178E-02  0.0000000E+00 -0.5050505E-02  0.8169321E-05  0.0000000E+00 -0.5737291E-04
 -0.5050018E-02  0.0000000E+00 -0.5050505E-02  0.8896365E-05  0.0000000E+00 -0.5394177E-04
 -0.5049710E-02  0.0000000E+00 -0.5050505E-02  0.9653331E-05  0.0000000E+00 -0.5021469E-04
 -0.5049253E-02  0.0000000E+00 -0.5050505E-02  0.1044371E-04  0.0000000E+00 -0.4617955E-04
 -0.5048636E-02  0.0000000E+00 -0.5050505E-02  0.1127134E-04  0.0000000E+00 -0.4182286E-04
 -0.5047442E-02  0.0000000E+00 -0.5050505E-02  0.1214047E-04  0.0000000E+00 -0.3712961E-04
 -0.5045727E-02  0.0000000E+00 -0.5050505E-02  0.1305578E-04  0.0000000E+00 -0.3208309E-04
 -0.5043261E-02  0.0000000E+00 -0.5050505E-02  0.1402246E-04  0.0000000E+00 -0.2666479E-04
 -0.5038714E-02  0.0000000E+00 -0.5050505E-02  0.1504629E-04  0.0000000E+00 -0.2085411E-04
 -0.5032318E-02  0.0000000E+00 -0.5050505E-02  0.1613372E-04  0.0000000E+00 -0.1462823E-04
 -0.5022454E-02  0.0000000E+00 -0.5050505E-02  0.1729193E-04  0.0000000E+00 -0.7961805E-05
 -0.5012589E-02  0.0000000E+00 -0.5050505E-02  0.1852900E-04  0.0000000E+00 -0.8220070E-06
 -0.5002725E-02  0.0000000E+00 -0.5050505E-02  0.1985421E-04  0.0000000E+00  0.6835938E-05
 -0.4992860E-02  0.0000000E+00 -0.5050505E-02  0.2127803E-04  0.0000000E+00  0.1505210E-04
 -0.4976523E-02  0.0000000E+00 -0.5050505E-02  0.2281237E-04  0.0000000E+00  0.2386377E-04
 -0.4956794E-02  0.0000000E+00 -0.5050505E-02  0.2447080E-04  0.0000000E+00  0.3331883E-04
 -0.4937066E-02  0.0000000E+00 -0.5050505E-02  0.2626887E-04  0.0000000E+00  0.4347110E-04
 -0.4906239E-02  0.0000000E+00 -0.5050505E-02  0.2822448E-04  0.0000000E+00  0.5438127E-04
 -0.4866782E-02  0.0000000E+00 -0.5050505E-02  0.3035837E-04  0.0000000E+00  0.6611796E-04
 -0.4827325E-02  0.0000000E+00 -0.5050505E-02  0.3269472E-04  0.0000000E+00  0.7875896E-04
 -0.4769372E-02  0.0000000E+00 -0.5050505E-02  0.3526193E-04  0.0000000E+00  0.9239277E-04
 -0.4690458E-02  0.0000000E+00 -0.5050505E-02  0.3809360E-04  0.0000000E+00  0.1071205E-03
 -0.4611543E-02  0.0000000E+00 -0.5050505E-02  0.4122996E-04  0.0000000E+00  0.1230580E-03
 -0.4503035E-02  0.0000000E+00 -0.5050505E-02  0.4471960E-04  0.0000000E+00  0.1403390E-03
 -0.4345206E-02  0.0000000E+00 -0.5050505E-02  0.4862212E-04  0.0000000E+00  0.1591184E-03
 -0.4187378E-02  0.0000000E+00 -0.5050505E-02  0.5301168E-04  0.0000000E+00  0.1795768E-03
 -0.3985156E-02  0.0000000E+00 -0.5050505E-02  0.5798239E-04  0.0000000E+00  0.2019263E-03
 -0.3669499E-02  0.0000000E+00 -0.5050505E-02  0.6365647E-04  0.0000000E+00  0.2264178E-03
 -0.3353842E-02  0.0000000E+00 -0.5050505E-02  0.7019713E-04  0.0000000E+00  0.2533505E-03
 -0.2978990E-02  0.0000000E+00 -0.5050505E-02  0.7782962E-04  0.0000000E+00  0.2830850E-03
 -0.2347676E-02  0.0000000E+00 -0.5050505E-02  0.8687655E-04  0.0000000E+00  0.3160622E-03
 -0.1716362E-02  0.0000000E+00 -0.5050505E-02  0.9781863E-04  0.0000000E+00  0.3528320E-03
 -0.1025842E-02  0.0000000E+00 -0.5050505E-02  0.1114007E-03  0.0000000E+00  0.3941041E-03
  0.2367855E-03  0.0000000E+00 -0.5050505E-02  0.1288199E-03  0.0000000E+00  0.4408473E-03
  0.1499413E-02  0.0000000E+00 -0.5050505E-02  0.1520598E-03  0.0000000E+00  0.4944937E-03
  0.2762042E-02  0.0000000E+00 -0.5050505E-02  0.1844791E-03  0.0000000E+00  0.5572890E-03
 -0.5050505E-02  0.0000000E+00 -0.5050505E-02  0.2317480E-03  0.0000000E+00  0.6321229E-03
 -0.5050505E-02  0.0000000E+00 -0.5050505E-02  0.2338983E-03  0.0000000E+00  0.7139653E-03
 -0.5050505E-02  0.0000000E+00 -0.5050505E-02  0.2661808E-03  0.0000000E+00  0.8010645E-03
 -0.5050505E-02  0.0000000E+00 -0.5050505E-02  0.2294770E-03  0.0000000E+00  0.9161653E-03
 -0.5050505E-02  0.0000000E+00 -0.5050505E-02  0.2136874E-03  0.0000000E+00  0.1020819E-02
 -0.5050505E-02  0.0000000E+00 -0.5050505E-02  0.3201367E-03  0.0000000E+00  0.1114046E-02
 -0.5050505E-02  0.0000000E+00 -0.5050505E-02  0.2795124E-03  0.0000000E+00  0.1187941E-02
 -0.5050504E-02  0.0000000E+00 -0.5050505E-02 -0.4593056E-03  0.0000000E+00  0.1139869E-02
 -0.5050501E-02  0.0000000E+00 -0.5050505E-02 -0.3351321E-03  0.0000000E+00  0.1031138E-02
 -0.5050495E-02  0.0000000E+00 -0.5050505E-02 -0.2621823E-03  0.0000000E+00  0.9451206E-03
 -0.5050482E-02  0.0000000E+00 -0.5050505E-02 -0.2220592E-03  0.0000000E+00  0.8601057E-03
 -0.5050449E-02  0.0000000E+00 -0.5050505E-02 -0.1837961E-03  0.0000000E+00  0.7805594E-03
 -0.5050376E-02  0.0000000E+00 -0.5050505E-02 -0.1557267E-03  0.0000000E+00  0.7134811E-03
 -0.5050299E-02  0.0000000E+00 -0.5050505E-02 -0.1357886E-03  0.0000000E+00  0.6551066E-03
 -0.5050178E-02  0.0000000E+00 -0.5050505E-02 -0.1208069E-03  0.0000000E+00  0.6027909E-03
 -0.5050018E-02  0.0000000E+00 -0.5050505E-02 -0.1087566E-03  0.0000000E+00  0.5553627E-03
 -0.5049710E-02  0.0000000E+00 -0.5050505E-02 -0.9857236E-04  0.0000000E+00  0.5122393E-03
 -0.5049253E-02  0.0000000E+00 -0.5050505E-02 -0.8971794E-04  0.0000000E+00  0.4729997E-03
 -0.5048636E-02  0.0000000E+00 -0.5050505E-02 -0.8191044E-04  0.0000000E+00  0.4372608E-03
 -0.5047442E-02  0.0000000E+00 -0.5050505E-02 -0.7498108E-04  0.0000000E+00  0.4046579E-03
 -0.5045727E-02  0.0000000E+00 -0.5050505E-02 -0.6881103E-04  0.0000000E+00  0.3748510E-03
 -0.5043261E-02  0.0000000E+00 -0.5050505E-02 -0.6330416E-04  0.0000000E+00  0.3475316E-03
 -0.5038714E-02  0.0000000E+00 -0.5050505E-02 -0.5837637E-04  0.0000000E+00  0.3224260E-03
 -0.5032318E-02  0.0000000E+00 -0.5050505E-02 -0.5395210E-04  0.0000000E+00  0.2992953E-03
 -0.5022454E-02  0.0000000E+00 -0.5050505E-02 -0.4996341E-04  0.0000000E+00  0.2779332E-03
 -0.5012589E-02  0.0000000E+00 -0.5050505E-02 -0.4634980E-04  0.0000000E+00  0.2581633E-03
 -0.5002725E-02  0.0000000E+00 -0.5050505E-02 -0.4305812E-04  0.0000000E+00  0.2398347E-03
 -0.4992860E-02  0.0000000E+00 -0.5050505E-02 -0.4004214E-04  0.0000000E+00  0.2228192E-03
 -0.4976523E-02  0.0000000E+00 -0.5050505E-02 -0.3726207E-04  0.0000000E+00  0.2070074E-03
 -0.4956794E-02  0.0000000E+00 -0.5050505E-02 -0.3468384E-04  0.0000000E+00  0.1923061E-03
 -0.4937066E-02  0.0000000E+00 -0.5050505E-02 -0.3227844E-04  0.0000000E+00  0.1786359E-03
 -0.4906239E-02  0.0000000E+00 -0.5050505E-02 -0.3002122E-04  0.0000000E+00  0.1659288E-03
 -0.4866782E-02  0.0000000E+00 -0.5050505E-02 -0.2789125E-04  0.0000000E+00  0.1541263E-03
 -0.4827325E-02  0.0000000E+00 -0.5050505E-02 -0.2587073E-04  0.0000000E+00  0.1431782E-03
 -0.4769372E-02  0.0000000E+00 -0.5050505E-02 -0.2394450E-04  0.0000000E+00  0.1330414E-03
 -0.4690458E-02  0.0000000E+00 -0.5050505E-02 -0.2209955E-04  0.0000000E+00  0.1236785E-03
 -0.4611543E-02  0.0000000E+00 -0.5050505E-02 -0.2032468E-04  0.0000000E+00  0.1150571E-03
 -0.4503035E-02  0.0000000E+00 -0.5050505E-02 -0.1861009E-04  0.0000000E+00  0.1071494E-03
 -0.4345206E-02  0.0000000E+00 -0.5050505E-02 -0.1694711E-04  0.0000000E+00  0.9993120E-04
 -0.4187378E-02  0.0000000E+00 -0.5050505E-02 -0.1532778E-04  0.0000000E+00  0.9338164E-04
 -0.3985156E-02  0.0000000E+00 -0.5050505E-02 -0.1374454E-04  0.0000000E+00  0.8748284E-04
 -0.3669499E-02  0.0000000E+00 -0.5050505E-02 -0.1218965E-04  0.0000000E+00  0.8221948E-04
 -0.3353842E-02  0.0000000E+00 -0.5050505E-02 -0.1065448E-04  0.0000000E+00  0.7757834E-04
 -0.2978990E-02  0.0000000E+00 -0.5050505E-02 -0.9128129E-05  0.0000000E+00  0.7354737E-04
 -0.2347676E-02  0.0000000E+00 -0.5050505E-02 -0.7595224E-05  0.0000000E+00  0.7011338E-04
 -0.1716362E-02  0.0000000E+00 -0.5050505E-02 -0.6032263E-05  0.0000000E+00  0.6725587E-04
 -0.1025842E-02  0.0000000E+00 -0.5050505E-02 -0.4403265E-05  0.0000000E+00  0.6493074E-04
  0.2367855E-03  0.0000000E+00 -0.5050505E-02 -0.2663485E-05  0.0000000E+00  0.6303196E-04
  0.1499413E-02  0.0000000E+00 -0.5050505E-02 -0.8210969E-06  0.0000000E+00  0.6133127E-04
  0.5287294E-02  0.0000000E+00 -0.5050505E-02  0.7012859E-06  0.0000000E+00  0.5959656E-04
 -0.5050505E-02  0.0000000E+00 -0.5050505E-02  0.3879652E-06  0.0000000E+00 -0.7820986E-04
 -0.5050505E-02  0.0000000E+00 -0.5050505E-02  0.1164931E-05  0.0000000E+00 -0.7798603E-04
 -0.5050505E-02  0.0000000E+00 -0.5050505E-02  0.1945021E-05  0.0000000E+00 -0.7753783E-04
 -0.5050505E-02  0.0000000E+00 -0.5050505E-02  0.2730359E-05  0.0000000E+00 -0.7686415E-04
 -0.5050505E-02  0.0000000E+00 -0.5050505E-02  0.3523122E-05  0.0000000E+00 -0.7596330E-04
 -0.5050505E-02  0.0000000E+00 -0.5050505E-02  0.4325562E-05  0.0000000E+00 -0.7483296E-04
 -0.5050504E-02  0.0000000E+00 -0.5050505E-02  0.5140022E-05  0.0000000E+00 -0.7347020E-04
 -0.5050501E-02  0.0000000E+00 -0.5050505E-02  0.5968962E-05  0.0000000E+00 -0.7187145E-04
 -0.5050495E-02  0.0000000E+00 -0.5050505E-02  0.6814976E-05  0.0000000E+00 -0.7003243E-04
 -0.5050482E-02  0.0000000E+00 -0.5050505E-02  0.7680825E-05  0.0000000E+00 -0.6794815E-04
 -0.5050449E-02  0.0000000E+00 -0.5050505E-02  0.8569458E-05  0.0000000E+00 -0.6561286E-04
 -0.5050376E-02  0.0000000E+00 -0.5050505E-02  0.9484044E-05  0.0000000E+00 -0.6301995E-04
 -0.5050299E-02  0.0000000E+00 -0.5050505E-02  0.1042801E-04  0.0000000E+00 -0.6016196E-04
 -0.5050178E-02  0.0000000E+00 -0.5050505E-02  0.1140506E-04  0.0000000E+00 -0.5703046E-04
 -0.5050018E-02  0.0000000E+00 -0.5050505E-02  0.1241924E-04  0.0000000E+00 -0.5361600E-04
 -0.5049710E-02  0.0000000E+00 -0.5050505E-02  0.1347496E-04  0.0000000E+00 -0.4990797E-04
 -0.5049253E-02  0.0000000E+00 -0.5050505E-02  0.1457708E-04  0.0000000E+00 -0.4589458E-04
 -0.5048636E-02  0.0000000E+00 -0.5050505E-02  0.1573091E-04  0.0000000E+00 -0.4156266E-04
 -0.5047442E-02  0.0000000E+00 -0.5050505E-02  0.1694234E-04  0.0000000E+00 -0.3689759E-04
 -0.5045727E-02  0.0000000E+00 -0.5050505E-02  0.1821784E-04  0.0000000E+00 -0.3188311E-04
 -0.5043261E-02  0.0000000E+00 -0.5050505E-02  0.1956463E-04  0.0000000E+00 -0.2650120E-04
 -0.5038714E-02  0.0000000E+00 -0.5050505E-02  0.2099071E-04  0.0000000E+00 -0.2073187E-04
 -0.5032318E-02  0.0000000E+00 -0.5050505E-02  0.2250498E-04  0.0000000E+00 -0.1455293E-04
 -0.5022454E-02  0.0000000E+00 -0.5050505E-02  0.2411741E-04  0.0000000E+00 -0.7939795E-05
 -0.5012589E-02  0.0000000E+00 -0.5050505E-02  0.2583913E-04  0.0000000E+00 -0.8606600E-06
 -0.5002725E-02  0.0000000E+00 -0.5050505E-02  0.2768295E-04  0.0000000E+00  0.6728087E-05
 -0.4992860E-02  0.0000000E+00 -0.5050505E-02  0.2966332E-04  0.0000000E+00  0.1486527E-04
 -0.4976523E-02  0.0000000E+00 -0.5050505E-02  0.3179664E-04  0.0000000E+00  0.2358672E-04
 -0.4956794E-02  0.0000000E+00 -0.5050505E-02  0.3410157E-04  0.0000000E+00  0.3293853E-04
 -0.4937066E-02  0.0000000E+00 -0.5050505E-02  0.3659948E-04  0.0000000E+00  0.4297245E-04