title = "dataset feddes"
variables = "x", "y", "z", "vx", "vy", "vz"
zone t = "velocities, solution time =  3.700E+01 days        " i =   99, j =   99, k =    1,  f=point
 -0.5050505E-02  0.0000000E+00 -0.5050505E-02  0.2516860E-07  0.0000000E+00 -0.2035001E-03
 -0.5050505E-02  0.0000000E+00 -0.5050505E-02  0.7554844E-07  0.0000000E+00 -0.2033969E-03
 -0.5050505E-02  0.0000000E+00 -0.5050505E-02  0.1260571E-06  0.0000000E+00 -0.2031904E-03
 -0.5050505E-02  0.0000000E+00 -0.5050505E-02  0.1767823E-06  0.0000000E+00 -0.2028801E-03
 -0.5050505E-02  0.0000000E+00 -0.5050505E-02  0.2278137E-06  0.0000000E+00 -0.2024656E-03
 -0.5050505E-02  0.0000000E+00 -0.5050505E-02  0.2792440E-06  0.0000000E+00 -0.2019462E-03
 -0.5050504E-02  0.0000000E+00 -0.5050505E-02  0.3311692E-06  0.0000000E+00 -0.2013209E-03
 -0.5050501E-02  0.0000000E+00 -0.5050505E-02  0.3836897E-06  0.0000000E+00 -0.2005887E-03
 -0.5050495E-02  0.0000000E+00 -0.5050505E-02  0.4369110E-06  0.0000000E+00 -0.1997483E-03
 -0.5050482E-02  0.0000000E+00 -0.5050505E-02  0.4909448E-06  0.0000000E+00 -0.1987982E-03
 -0.5050449E-02  0.0000000E+00 -0.5050505E-02  0.5459100E-06  0.0000000E+00 -0.1977365E-03
 -0.5050376E-02  0.0000000E+00 -0.5050505E-02  0.6019332E-06  0.0000000E+00 -0.1965614E-03
 -0.5050299E-02  0.0000000E+00 -0.5050505E-02  0.6591509E-06  0.0000000E+00 -0.1952705E-03
 -0.5050178E-02  0.0000000E+00 -0.5050505E-02  0.7177098E-06  0.0000000E+00 -0.1938614E-03
 -0.5050018E-02  0.0000000E+00 -0.5050505E-02  0.7777687E-06  0.0000000E+00 -0.1923311E-03
 -0.5049710E-02  0.0000000E+00 -0.5050505E-02  0.8394998E-06  0.0000000E+00 -0.1906766E-03
 -0.5049253E-02  0.0000000E+00 -0.5050505E-02  0.9030906E-06  0.0000000E+00 -0.1888942E-03
 -0.5048636E-02  0.0000000E+00 -0.5050505E-02  0.9687452E-06  0.0000000E+00 -0.1869800E-03
 -0.5047442E-02  0.0000000E+00 -0.5050505E-02  0.1036687E-05  0.0000000E+00 -0.1849297E-03
 -0.5045727E-02  0.0000000E+00 -0.5050505E-02  0.1107161E-05  0.0000000E+00 -0.1827384E-03
 -0.5043261E-02  0.0000000E+00 -0.5050505E-02  0.1180434E-05  0.0000000E+00 -0.1804009E-03
 -0.5038714E-02  0.0000000E+00 -0.5050505E-02  0.1256801E-05  0.0000000E+00 -0.1779112E-03
 -0.5032318E-02  0.0000000E+00 -0.5050505E-02  0.1336586E-05  0.0000000E+00 -0.1752627E-03
 -0.5022454E-02  0.0000000E+00 -0.5050505E-02  0.1420144E-05  0.0000000E+00 -0.1724484E-03
 -0.5012589E-02  0.0000000E+00 -0.5050505E-02  0.1507869E-05  0.0000000E+00 -0.1694603E-03
 -0.5002725E-02  0.0000000E+00 -0.5050505E-02  0.1600191E-05  0.0000000E+00 -0.1662896E-03
 -0.4992860E-02  0.0000000E+00 -0.5050505E-02  0.1697588E-05  0.0000000E+00 -0.1629267E-03
 -0.4976523E-02  0.0000000E+00 -0.5050505E-02  0.1800585E-05  0.0000000E+00 -0.1593610E-03
 -0.4956794E-02  0.0000000E+00 -0.5050505E-02  0.1909763E-05  0.0000000E+00 -0.1555806E-03
 -0.4937066E-02  0.0000000E+00 -0.5050505E-02  0.2025762E-05  0.0000000E+00 -0.1515728E-03
 -0.4906239E-02  0.0000000E+00 -0.5050505E-02  0.2149289E-05  0.0000000E+00 -0.1473231E-03
 -0.4866782E-02  0.0000000E+00 -0.5050505E-02  0.2281125E-05  0.0000000E+00 -0.1428159E-03
 -0.4827325E-02  0.0000000E+00 -0.5050505E-02  0.2422131E-05  0.0000000E+00 -0.1380338E-03
 -0.4769372E-02  0.0000000E+00 -0.5050505E-02  0.2573256E-05  0.0000000E+00 -0.1329578E-03
 -0.4690458E-02  0.0000000E+00 -0.5050505E-02  0.2735547E-05  0.0000000E+00 -0.1275667E-03
 -0.4611543E-02  0.0000000E+00 -0.5050505E-02  0.2910158E-05  0.0000000E+00 -0.1218374E-03
 -0.4503035E-02  0.0000000E+00 -0.5050505E-02  0.3098356E-05  0.0000000E+00 -0.1157444E-03
 -0.4345206E-02  0.0000000E+00 -0.5050505E-02  0.3301539E-05  0.0000000E+00 -0.1092594E-03
 -0.4187378E-02  0.0000000E+00 -0.5050505E-02  0.3521240E-05  0.0000000E+00 -0.1023517E-03
 -0.3985156E-02  0.0000000E+00 -0.5050505E-02  0.3759150E-05  0.0000000E+00 -0.9498715E-04
 -0.3669499E-02  0.0000000E+00 -0.5050505E-02  0.4017139E-05  0.0000000E+00 -0.8712837E-04
 -0.3353842E-02  0.0000000E+00 -0.5050505E-02  0.4297300E-05  0.0000000E+00 -0.7873421E-04
 -0.2978990E-02  0.0000000E+00 -0.5050505E-02  0.4602023E-05  0.0000000E+00 -0.6975926E-04
 -0.2347676E-02  0.0000000E+00 -0.5050505E-02  0.4934151E-05  0.0000000E+00 -0.6015319E-04
 -0.1716362E-02  0.0000000E+00 -0.5050505E-02  0.5297270E-05  0.0000000E+00 -0.4985962E-04
 -0.1025842E-02  0.0000000E+00 -0.5050505E-02  0.5696295E-05  0.0000000E+00 -0.3881411E-04
  0.2367855E-03  0.0000000E+00 -0.5050505E-02  0.6138594E-05  0.0000000E+00 -0.2694050E-04
  0.1499413E-02  0.0000000E+00 -0.5050505E-02  0.6636194E-05  0.0000000E+00 -0.1414396E-04
  0.2762042E-02  0.0000000E+00 -0.5050505E-02  0.7210066E-05  0.0000000E+00 -0.2846858E-06
 -0.5050505E-02  0.0000000E+00 -0.5050505E-02  0.7899104E-05  0.0000000E+00  0.1486119E-04
 -0.5050505E-02  0.0000000E+00 -0.5050505E-02  0.8777929E-05  0.0000000E+00  0.3161826E-04
 -0.5050505E-02  0.0000000E+00 -0.5050505E-02  0.9995607E-05  0.0000000E+00  0.5052096E-04
 -0.5050505E-02  0.0000000E+00 -0.5050505E-02  0.1186667E-04  0.0000000E+00  0.7258538E-04
 -0.5050505E-02  0.0000000E+00 -0.5050505E-02  0.1510968E-04  0.0000000E+00  0.9988658E-04
 -0.5050505E-02  0.0000000E+00 -0.5050505E-02  0.2155244E-04  0.0000000E+00  0.1371197E-03
 -0.5050505E-02  0.0000000E+00 -0.5050505E-02  0.3647489E-04  0.0000000E+00  0.1963401E-03
 -0.5050504E-02  0.0000000E+00 -0.5050505E-02 -0.3458944E-04  0.0000000E+00  0.1982517E-03
 -0.5050501E-02  0.0000000E+00 -0.5050505E-02 -0.1963442E-04  0.0000000E+00  0.1428750E-03
 -0.5050495E-02  0.0000000E+00 -0.5050505E-02 -0.1315172E-04  0.0000000E+00  0.1095393E-03
 -0.5050482E-02  0.0000000E+00 -0.5050505E-02 -0.9889496E-05  0.0000000E+00  0.8618191E-04
 -0.5050449E-02  0.0000000E+00 -0.5050505E-02 -0.8039524E-05  0.0000000E+00  0.6804838E-04
 -0.5050376E-02  0.0000000E+00 -0.5050505E-02 -0.6889926E-05  0.0000000E+00  0.5297698E-04
 -0.5050299E-02  0.0000000E+00 -0.5050505E-02 -0.6122300E-05  0.0000000E+00  0.3986235E-04
 -0.5050178E-02  0.0000000E+00 -0.5050505E-02 -0.5577805E-05  0.0000000E+00  0.2808728E-04
 -0.5050018E-02  0.0000000E+00 -0.5050505E-02 -0.5170129E-05  0.0000000E+00  0.1728486E-04
 -0.5049710E-02  0.0000000E+00 -0.5050505E-02 -0.4849342E-05  0.0000000E+00  0.7227033E-05
 -0.5049253E-02  0.0000000E+00 -0.5050505E-02 -0.4585185E-05  0.0000000E+00 -0.2225518E-05
 -0.5048636E-02  0.0000000E+00 -0.5050505E-02 -0.4358201E-05  0.0000000E+00 -0.1117500E-04
 -0.5047442E-02  0.0000000E+00 -0.5050505E-02 -0.4157400E-05  0.0000000E+00 -0.1970217E-04
 -0.5045727E-02  0.0000000E+00 -0.5050505E-02 -0.3974819E-05  0.0000000E+00 -0.2785394E-04
 -0.5043261E-02  0.0000000E+00 -0.5050505E-02 -0.3805134E-05  0.0000000E+00 -0.3566036E-04
 -0.5038714E-02  0.0000000E+00 -0.5050505E-02 -0.3644734E-05  0.0000000E+00 -0.4314268E-04
 -0.5032318E-02  0.0000000E+00 -0.5050505E-02 -0.3491129E-05  0.0000000E+00 -0.5031614E-04
 -0.5022454E-02  0.0000000E+00 -0.5050505E-02 -0.3342581E-05  0.0000000E+00 -0.5719184E-04
 -0.5012589E-02  0.0000000E+00 -0.5050505E-02 -0.3197865E-05  0.0000000E+00 -0.6377795E-04
 -0.5002725E-02  0.0000000E+00 -0.5050505E-02 -0.3056106E-05  0.0000000E+00 -0.7008060E-04
 -0.4992860E-02  0.0000000E+00 -0.5050505E-02 -0.2916678E-05  0.0000000E+00 -0.7610444E-04
 -0.4976523E-02  0.0000000E+00 -0.5050505E-02 -0.2779135E-05  0.0000000E+00 -0.8185311E-04
 -0.4956794E-02  0.0000000E+00 -0.5050505E-02 -0.2643156E-05  0.0000000E+00 -0.8732951E-04
 -0.4937066E-02  0.0000000E+00 -0.5050505E-02 -0.2508518E-05  0.0000000E+00 -0.9253600E-04
 -0.4906239E-02  0.0000000E+00 -0.5050505E-02 -0.2375070E-05  0.0000000E+00 -0.9747463E-04
 -0.4866782E-02  0.0000000E+00 -0.5050505E-02 -0.2242717E-05  0.0000000E+00 -0.1021472E-03
 -0.4827325E-02  0.0000000E+00 -0.5050505E-02 -0.2111414E-05  0.0000000E+00 -0.1065555E-03
 -0.4769372E-02  0.0000000E+00 -0.5050505E-02 -0.1981161E-05  0.0000000E+00 -0.1107011E-03
 -0.4690458E-02  0.0000000E+00 -0.5050505E-02 -0.1852003E-05  0.0000000E+00 -0.1145859E-03
 -0.4611543E-02  0.0000000E+00 -0.5050505E-02 -0.1724044E-05  0.0000000E+00 -0.1182118E-03
 -0.4503035E-02  0.0000000E+00 -0.5050505E-02 -0.1597472E-05  0.0000000E+00 -0.1215811E-03
 -0.4345206E-02  0.0000000E+00 -0.5050505E-02 -0.1472600E-05  0.0000000E+00 -0.1246965E-03
 -0.4187378E-02  0.0000000E+00 -0.5050505E-02 -0.1349957E-05  0.0000000E+00 -0.1275618E-03
 -0.3985156E-02  0.0000000E+00 -0.5050505E-02 -0.1230459E-05  0.0000000E+00 -0.1301823E-03
 -0.3669499E-02  0.0000000E+00 -0.5050505E-02 -0.1115749E-05  0.0000000E+00 -0.1325656E-03
 -0.3353842E-02  0.0000000E+00 -0.5050505E-02 -0.1008944E-05  0.0000000E+00 -0.1347245E-03
 -0.2978990E-02  0.0000000E+00 -0.5050505E-02 -0.9163684E-06  0.0000000E+00 -0.1366813E-03
 -0.2347676E-02  0.0000000E+00 -0.5050505E-02 -0.8519272E-06  0.0000000E+00 -0.1384789E-03
 -0.1716362E-02  0.0000000E+00 -0.5050505E-02 -0.8492035E-06  0.0000000E+00 -0.1402087E-03
 -0.1025842E-02  0.0000000E+00 -0.5050505E-02 -0.9982331E-06  0.0000000E+00 -0.1420876E-03
  0.2367855E-03  0.0000000E+00 -0.5050505E-02 -0.1568025E-05  0.0000000E+00 -0.1446982E-03
  0.1499413E-02  0.0000000E+00 -0.5050505E-02 -0.3450715E-05  0.0000000E+00 -0.1498055E-03
  0.5287294E-02  0.0000000E+00 -0.5050505E-02 -0.5314275E-04  0.0000000E+00 -0.1198208E-03
 -0.5050505E-02  0.0000000E+00 -0.5050505E-02  0.7548338E-07  0.0000000E+00 -0.2032581E-03
 -0.5050505E-02  0.0000000E+00 -0.5050505E-02  0.2265782E-06  0.0000000E+00 -0.2031548E-03
 -0.5050505E-02  0.0000000E+00 -0.5050505E-02  0.3780595E-06  0.0000000E+00 -0.2029479E-03
 -0.5050505E-02  0.0000000E+00 -0.5050505E-02  0.5301899E-06  0.0000000E+00 -0.2026372E-03
 -0.5050505E-02  0.0000000E+00 -0.5050505E-02  0.6832384E-06  0.0000000E+00 -0.2022221E-03
 -0.5050505E-02  0.0000000E+00 -0.5050505E-02  0.8374822E-06  0.0000000E+00 -0.2017019E-03
 -0.5050504E-02  0.0000000E+00 -0.5050505E-02  0.9932088E-06  0.0000000E+00 -0.2010758E-03
 -0.5050501E-02  0.0000000E+00 -0.5050505E-02  0.1150719E-05  0.0000000E+00 -0.2003425E-03
 -0.5050495E-02  0.0000000E+00 -0.5050505E-02  0.1310329E-05  0.0000000E+00 -0.1995010E-03
 -0.5050482E-02  0.0000000E+00 -0.5050505E-02  0.1472373E-05  0.0000000E+00 -0.1985495E-03
 -0.5050449E-02  0.0000000E+00 -0.5050505E-02  0.1637206E-05  0.0000000E+00 -0.1974865E-03
 -0.5050376E-02  0.0000000E+00 -0.5050505E-02  0.1805209E-05  0.0000000E+00 -0.1963098E-03
 -0.5050299E-02  0.0000000E+00 -0.5050505E-02  0.1976790E-05  0.0000000E+00 -0.1950173E-03
 -0.5050178E-02  0.0000000E+00 -0.5050505E-02  0.2152387E-05  0.0000000E+00 -0.1936064E-03
 -0.5050018E-02  0.0000000E+00 -0.5050505E-02  0.2332478E-05  0.0000000E+00 -0.1920743E-03
 -0.5049710E-02  0.0000000E+00 -0.5050505E-02  0.2517576E-05  0.0000000E+00 -0.1904178E-03
 -0.5049253E-02  0.0000000E+00 -0.5050505E-02  0.2708244E-05  0.0000000E+00 -0.1886334E-03
 -0.5048636E-02  0.0000000E+00 -0.5050505E-02  0.2905094E-05  0.0000000E+00 -0.1867172E-03
 -0.5047442E-02  0.0000000E+00 -0.5050505E-02  0.3108794E-05  0.0000000E+00 -0.1846648E-03
 -0.5045727E-02  0.0000000E+00 -0.5050505E-02  0.3320075E-05  0.0000000E+00 -0.1824714E-03
 -0.5043261E-02  0.0000000E+00 -0.5050505E-02  0.3539741E-05  0.0000000E+00 -0.1801317E-03
 -0.5038714E-02  0.0000000E+00 -0.5050505E-02  0.3768673E-05  0.0000000E+00 -0.1776399E-03
 -0.5032318E-02  0.0000000E+00 -0.5050505E-02  0.4007840E-05  0.0000000E+00 -0.1749893E-03
 -0.5022454E-02  0.0000000E+00 -0.5050505E-02  0.4258308E-05  0.0000000E+00 -0.1721730E-03
 -0.5012589E-02  0.0000000E+00 -0.5050505E-02  0.4521252E-05  0.0000000E+00 -0.1691829E-03
 -0.5002725E-02  0.0000000E+00 -0.5050505E-02  0.4797965E-05  0.0000000E+00 -0.1660104E-03
 -0.4992860E-02  0.0000000E+00 -0.5050505E-02  0.5089876E-05  0.0000000E+00 -0.1626459E-03
 -0.4976523E-02  0.0000000E+00 -0.5050505E-02  0.5398558E-05  0.0000000E+00 -0.1590786E-03
 -0.4956794E-02  0.0000000E+00 -0.5050505E-02  0.5725750E-05  0.0000000E+00 -0.1552971E-03
 -0.4937066E-02  0.0000000E+00 -0.5050505E-02  0.6073371E-05  0.0000000E+00 -0.1512882E-03
 -0.4906239E-02  0.0000000E+00 -0.5050505E-02  0.6443537E-05  0.0000000E+00 -0.1470380E-03
 -0.4866782E-02  0.0000000E+00 -0.5050505E-02  0.6838585E-05  0.0000000E+00 -0.1425306E-03
 -0.4827325E-02  0.0000000E+00 -0.5050505E-02  0.7261095E-05  0.0000000E+00 -0.1377488E-03
 -0.4769372E-02  0.0000000E+00 -0.5050505E-02  0.7713910E-05  0.0000000E+00 -0.1326736E-03
 -0.4690458E-02  0.0000000E+00 -0.5050505E-02  0.8200165E-05  0.0000000E+00 -0.1272840E-03
 -0.4611543E-02  0.0000000E+00 -0.5050505E-02  0.8723312E-05  0.0000000E+00 -0.1215569E-03
 -0.4503035E-02  0.0000000E+00 -0.5050505E-02  0.9287150E-05  0.0000000E+00 -0.1154670E-03
 -0.4345206E-02  0.0000000E+00 -0.5050505E-02  0.9895854E-05  0.0000000E+00 -0.1089862E-03
 -0.4187378E-02  0.0000000E+00 -0.5050505E-02  0.1055401E-04  0.0000000E+00 -0.1020838E-03
 -0.3985156E-02  0.0000000E+00 -0.5050505E-02  0.1126666E-04  0.0000000E+00 -0.9472594E-04
 -0.3669499E-02  0.0000000E+00 -0.5050505E-02  0.1203938E-04  0.0000000E+00 -0.8687564E-04
 -0.3353842E-02  0.0000000E+00 -0.5050505E-02  0.1287833E-04  0.0000000E+00 -0.7849213E-04
 -0.2978990E-02  0.0000000E+00 -0.5050505E-02  0.1379054E-04  0.0000000E+00 -0.6953077E-04
 -0.2347676E-02  0.0000000E+00 -0.5050505E-02  0.1478420E-04  0.0000000E+00 -0.5994247E-04
 -0.1716362E-02  0.0000000E+00 -0.5050505E-02  0.1586946E-04  0.0000000E+00 -0.4967304E-04
 -0.1025842E-02  0.0000000E+00 -0.5050505E-02  0.1705987E-04  0.0000000E+00 -0.3866207E-04
  0.2367855E-03  0.0000000E+00 -0.5050505E-02  0.1837528E-04  0.0000000E+00 -0.2684092E-04
  0.1499413E-02  0.0000000E+00 -0.5050505E-02  0.1984737E-04  0.0000000E+00 -0.1412891E-04
  0.2762042E-02  0.0000000E+00 -0.5050505E-02  0.2153046E-04  0.0000000E+00 -0.4138238E-06
 -0.5050505E-02  0.0000000E+00 -0.5050505E-02  0.2352342E-04  0.0000000E+00  0.1447366E-04
 -0.5050505E-02  0.0000000E+00 -0.5050505E-02  0.2601206E-04  0.0000000E+00  0.3074706E-04
 -0.5050505E-02  0.0000000E+00 -0.5050505E-02  0.2935431E-04  0.0000000E+00  0.4870014E-04
 -0.5050505E-02  0.0000000E+00 -0.5050505E-02  0.3426054E-04  0.0000000E+00  0.6877928E-04
 -0.5050505E-02  0.0000000E+00 -0.5050505E-02  0.4219820E-04  0.0000000E+00  0.9154768E-04
 -0.5050505E-02  0.0000000E+00 -0.5050505E-02  0.5636886E-04  0.0000000E+00  0.1171445E-03
 -0.5050505E-02  0.0000000E+00 -0.5050505E-02  0.8425186E-04  0.0000000E+00  0.1421335E-03
 -0.5050504E-02  0.0000000E+00 -0.5050505E-02 -0.7860862E-04  0.0000000E+00  0.1440211E-03
 -0.5050501E-02  0.0000000E+00 -0.5050505E-02 -0.5060865E-04  0.0000000E+00  0.1228530E-03
 -0.5050495E-02  0.0000000E+00 -0.5050505E-02 -0.3629199E-04  0.0000000E+00  0.1011839E-03
 -0.5050482E-02  0.0000000E+00 -0.5050505E-02 -0.2827830E-04  0.0000000E+00  0.8243717E-04
 -0.5050449E-02  0.0000000E+00 -0.5050505E-02 -0.2342965E-04  0.0000000E+00  0.6639255E-04
 -0.5050376E-02  0.0000000E+00 -0.5050505E-02 -0.2029645E-04  0.0000000E+00  0.5237646E-04
 -0.5050299E-02  0.0000000E+00 -0.5050505E-02 -0.1815217E-04  0.0000000E+00  0.3983651E-04
 -0.5050178E-02  0.0000000E+00 -0.5050505E-02 -0.1660551E-04  0.0000000E+00  0.2838813E-04
 -0.5050018E-02  0.0000000E+00 -0.5050505E-02 -0.1543304E-04  0.0000000E+00  0.1777404E-04
 -0.5049710E-02  0.0000000E+00 -0.5050505E-02 -0.1450138E-04  0.0000000E+00  0.7823011E-05
 -0.5049253E-02  0.0000000E+00 -0.5050505E-02 -0.1372813E-04  0.0000000E+00 -0.1573068E-05
 -0.5048636E-02  0.0000000E+00 -0.5050505E-02 -0.1305929E-04  0.0000000E+00 -0.1049648E-04
 -0.5047442E-02  0.0000000E+00 -0.5050505E-02 -0.1246463E-04  0.0000000E+00 -0.1901597E-04
 -0.5045727E-02  0.0000000E+00 -0.5050505E-02 -0.1192183E-04  0.0000000E+00 -0.2717244E-04
 -0.5043261E-02  0.0000000E+00 -0.5050505E-02 -0.1141591E-04  0.0000000E+00 -0.3499135E-04
 -0.5038714E-02  0.0000000E+00 -0.5050505E-02 -0.1093665E-04  0.0000000E+00 -0.4249094E-04
 -0.5032318E-02  0.0000000E+00 -0.5050505E-02 -0.1047700E-04  0.0000000E+00 -0.4968446E-04
 -0.5022454E-02  0.0000000E+00 -0.5050505E-02 -0.1003200E-04  0.0000000E+00 -0.5658167E-04
 -0.5012589E-02  0.0000000E+00 -0.5050505E-02 -0.9598136E-05  0.0000000E+00 -0.6318987E-04
 -0.5002725E-02  0.0000000E+00 -0.5050505E-02 -0.9172913E-05  0.0000000E+00 -0.6951457E-04
 -0.4992860E-02  0.0000000E+00 -0.5050505E-02 -0.8754530E-05  0.0000000E+00 -0.7556003E-04
 -0.4976523E-02  0.0000000E+00 -0.5050505E-02 -0.8341693E-05  0.0000000E+00 -0.8132959E-04
 -0.4956794E-02  0.0000000E+00 -0.5050505E-02 -0.7933481E-05  0.0000000E+00 -0.8682596E-04
 -0.4937066E-02  0.0000000E+00 -0.5050505E-02 -0.7529247E-05  0.0000000E+00 -0.9205140E-04
 -0.4906239E-02  0.0000000E+00 -0.5050505E-02 -0.7128552E-05  0.0000000E+00 -0.9700784E-04
 -0.4866782E-02  0.0000000E+00 -0.5050505E-02 -0.6731124E-05  0.0000000E+00 -0.1016971E-03
 -0.4827325E-02  0.0000000E+00 -0.5050505E-02 -0.6336827E-05  0.0000000E+00 -0.1061207E-03
 -0.4769372E-02  0.0000000E+00 -0.5050505E-02 -0.5945655E-05  0.0000000E+00 -0.1102804E-03
 -0.4690458E-02  0.0000000E+00 -0.5050505E-02 -0.5557734E-05  0.0000000E+00 -0.1141779E-03
 -0.4611543E-02  0.0000000E+00 -0.5050505E-02 -0.5173350E-05  0.0000000E+00 -0.1178151E-03
 -0.4503035E-02  0.0000000E+00 -0.5050505E-02 -0.4793015E-05  0.0000000E+00 -0.1211939E-03
 -0.4345206E-02  0.0000000E+00 -0.5050505E-02 -0.4417583E-05  0.0000000E+00 -0.1243170E-03
 -0.4187378E-02  0.0000000E+00 -0.5050505E-02 -0.4048470E-05  0.0000000E+00 -0.1271874E-03
 -0.3985156E-02  0.0000000E+00 -0.5050505E-02 -0.3688073E-05  0.0000000E+00 -0.1298092E-03
 -0.3669499E-02  0.0000000E+00 -0.5050505E-02 -0.3340577E-05  0.0000000E+00 -0.1321881E-03
 -0.3353842E-02  0.0000000E+00 -0.5050505E-02 -0.3013613E-05  0.0000000E+00 -0.1343320E-03
 -0.2978990E-02  0.0000000E+00 -0.5050505E-02 -0.2721809E-05  0.0000000E+00 -0.1362524E-03
 -0.2347676E-02  0.0000000E+00 -0.5050505E-02 -0.2494894E-05  0.0000000E+00 -0.1379648E-03
 -0.1716362E-02  0.0000000E+00 -0.5050505E-02 -0.2397244E-05  0.0000000E+00 -0.1394840E-03
 -0.1025842E-02  0.0000000E+00 -0.5050505E-02 -0.2577939E-05  0.0000000E+00 -0.1407908E-03
  0.2367855E-03  0.0000000E+00 -0.5050505E-02 -0.3405653E-05  0.0000000E+00 -0.1416634E-03
  0.1499413E-02  0.0000000E+00 -0.5050505E-02 -0.5847595E-05  0.0000000E+00 -0.1408811E-03
  0.5287294E-02  0.0000000E+00 -0.5050505E-02 -0.1255986E-04  0.0000000E+00 -0.1325162E-03
 -0.5050505E-02  0.0000000E+00 -0.5050505E-02  0.1257885E-06  0.0000000E+00 -0.2027828E-03
 -0.5050505E-02  0.0000000E+00 -0.5050505E-02  0.3775791E-06  0.0000000E+00 -0.2026792E-03
 -0.5050505E-02  0.0000000E+00 -0.5050505E-02  0.6300131E-06  0.0000000E+00 -0.2024717E-03
 -0.5050505E-02  0.0000000E+00 -0.5050505E-02  0.8835275E-06  0.0000000E+00 -0.2021601E-03
 -0.5050505E-02  0.0000000E+00 -0.5050505E-02  0.1138569E-05  0.0000000E+00 -0.2017438E-03
 -0.5050505E-02  0.0000000E+00 -0.5050505E-02  0.1395598E-05  0.0000000E+00 -0.2012222E-03
 -0.5050504E-02  0.0000000E+00 -0.5050505E-02  0.1655094E-05  0.0000000E+00 -0.2005943E-03
 -0.5050501E-02  0.0000000E+00 -0.5050505E-02  0.1917554E-05  0.0000000E+00 -0.1998590E-03
 -0.5050495E-02  0.0000000E+00 -0.5050505E-02  0.2183505E-05  0.0000000E+00 -0.1990152E-03
 -0.5050482E-02  0.0000000E+00 -0.5050505E-02  0.2453503E-05  0.0000000E+00 -0.1980612E-03
 -0.5050449E-02  0.0000000E+00 -0.5050505E-02  0.2728137E-05  0.0000000E+00 -0.1969953E-03
 -0.5050376E-02  0.0000000E+00 -0.5050505E-02  0.3008039E-05  0.0000000E+00 -0.1958157E-03
 -0.5050299E-02  0.0000000E+00 -0.5050505E-02  0.3293887E-05  0.0000000E+00 -0.1945199E-03
 -0.5050178E-02  0.0000000E+00 -0.5050505E-02  0.3586411E-05  0.0000000E+00 -0.1931056E-03
 -0.5050018E-02  0.0000000E+00 -0.5050505E-02  0.3886401E-05  0.0000000E+00 -0.1915699E-03
 -0.5049710E-02  0.0000000E+00 -0.5050505E-02  0.4194713E-05  0.0000000E+00 -0.1899096E-03
 -0.5049253E-02  0.0000000E+00 -0.5050505E-02  0.4512281E-05  0.0000000E+00 -0.1881212E-03
 -0.5048636E-02  0.0000000E+00 -0.5050505E-02  0.4840120E-05  0.0000000E+00 -0.1862009E-03
 -0.5047442E-02  0.0000000E+00 -0.5050505E-02  0.5179341E-05  0.0000000E+00 -0.1841444E-03
 -0.5045727E-02  0.0000000E+00 -0.5050505E-02  0.5531161E-05  0.0000000E+00 -0.1819468E-03
 -0.5043261E-02  0.0000000E+00 -0.5050505E-02  0.5896911E-05  0.0000000E+00 -0.1796029E-03
 -0.5038714E-02  0.0000000E+00 -0.5050505E-02  0.6278057E-05  0.0000000E+00 -0.1771068E-03
 -0.5032318E-02  0.0000000E+00 -0.5050505E-02  0.6676209E-05  0.0000000E+00 -0.1744522E-03
 -0.5022454E-02  0.0000000E+00 -0.5050505E-02  0.7093137E-05  0.0000000E+00 -0.1716318E-03
 -0.5012589E-02  0.0000000E+00 -0.5050505E-02  0.7530792E-05  0.0000000E+00 -0.1686379E-03
 -0.5002725E-02  0.0000000E+00 -0.5050505E-02  0.7991325E-05  0.0000000E+00 -0.1654618E-03
 -0.4992860E-02  0.0000000E+00 -0.5050505E-02  0.8477108E-05  0.0000000E+00 -0.1620939E-03
 -0.4976523E-02  0.0000000E+00 -0.5050505E-02  0.8990755E-05  0.0000000E+00 -0.1585238E-03
 -0.4956794E-02  0.0000000E+00 -0.5050505E-02  0.9535155E-05  0.0000000E+00 -0.1547398E-03
 -0.4937066E-02  0.0000000E+00 -0.5050505E-02  0.1011349E-04  0.0000000E+00 -0.1507291E-03
 -0.4906239E-02  0.0000000E+00 -0.5050505E-02  0.1072929E-04  0.0000000E+00 -0.1464776E-03
 -0.4866782E-02  0.0000000E+00 -0.5050505E-02  0.1138642E-04  0.0000000E+00 -0.1419698E-03
 -0.4827325E-02  0.0000000E+00 -0.5050505E-02  0.1208918E-04  0.0000000E+00 -0.1371885E-03
 -0.4769372E-02  0.0000000E+00 -0.5050505E-02  0.1284229E-04  0.0000000E+00 -0.1321149E-03
 -0.4690458E-02  0.0000000E+00 -0.5050505E-02  0.1365095E-04  0.0000000E+00 -0.1267282E-03
 -0.4611543E-02  0.0000000E+00 -0.5050505E-02  0.1452089E-04  0.0000000E+00 -0.1210055E-03
 -0.4503035E-02  0.0000000E+00 -0.5050505E-02  0.1545842E-04  0.0000000E+00 -0.1149216E-03
 -0.4345206E-02  0.0000000E+00 -0.5050505E-02  0.1647046E-04  0.0000000E+00 -0.1084488E-03
 -0.4187378E-02  0.0000000E+00 -0.5050505E-02  0.1756461E-04  0.0000000E+00 -0.1015566E-03
 -0.3985156E-02  0.0000000E+00 -0.5050505E-02  0.1874918E-04  0.0000000E+00 -0.9421175E-04
 -0.3669499E-02  0.0000000E+00 -0.5050505E-02  0.2003330E-04  0.0000000E+00 -0.8637762E-04
 -0.3353842E-02  0.0000000E+00 -0.5050505E-02  0.2142701E-04  0.0000000E+00 -0.7801428E-04
 -0.2978990E-02  0.0000000E+00 -0.5050505E-02  0.2294151E-04  0.0000000E+00 -0.6907828E-04
 -0.2347676E-02  0.0000000E+00 -0.5050505E-02  0.2458951E-04  0.0000000E+00 -0.5952253E-04
 -0.1716362E-02  0.0000000E+00 -0.5050505E-02  0.2638614E-04  0.0000000E+00 -0.4929635E-04
 -0.1025842E-02  0.0000000E+00 -0.5050505E-02  0.2835054E-04  0.0000000E+00 -0.3834566E-04
  0.2367855E-03  0.0000000E+00 -0.5050505E-02  0.3050923E-04  0.0000000E+00 -0.2661356E-04
  0.1499413E-02  0.0000000E+00 -0.5050505E-02  0.3290248E-04  0.0000000E+00 -0.1404129E-04
  0.2762042E-02  0.0000000E+00 -0.5050505E-02  0.3559666E-04  0.0000000E+00 -0.5583582E-06
 -0.5050505E-02  0.0000000E+00 -0.5050505E-02  0.3870843E-04  0.0000000E+00  0.1392502E-04
 -0.5050505E-02  0.0000000E+00 -0.5050505E-02  0.4245053E-04  0.0000000E+00  0.2947165E-04
 -0.5050505E-02  0.0000000E+00 -0.5050505E-02  0.4721263E-04  0.0000000E+00  0.4608900E-04
 -0.5050505E-02  0.0000000E+00 -0.5050505E-02  0.5370493E-04  0.0000000E+00  0.6368265E-04
 -0.5050505E-02  0.0000000E+00 -0.5050505E-02  0.6318956E-04  0.0000000E+00  0.8183952E-04
 -0.5050505E-02  0.0000000E+00 -0.5050505E-02  0.7776433E-04  0.0000000E+00  0.9925493E-04
 -0.5050505E-02  0.0000000E+00 -0.5050505E-02  0.1002855E-03  0.0000000E+00  0.1124222E-03
 -0.5050504E-02  0.0000000E+00 -0.5050505E-02 -0.9096336E-04  0.0000000E+00  0.1142430E-03
 -0.5050501E-02  0.0000000E+00 -0.5050505E-02 -0.6816026E-04  0.0000000E+00  0.1048258E-03
 -0.5050495E-02  0.0000000E+00 -0.5050505E-02 -0.5323682E-04  0.0000000E+00  0.9140068E-04
 -0.5050482E-02  0.0000000E+00 -0.5050505E-02 -0.4355707E-04  0.0000000E+00  0.7744258E-04
 -0.5050449E-02  0.0000000E+00 -0.5050505E-02 -0.3714234E-04  0.0000000E+00  0.6411475E-04
 -0.5050376E-02  0.0000000E+00 -0.5050505E-02 -0.3274808E-04  0.0000000E+00  0.5166298E-04
 -0.5050299E-02  0.0000000E+00 -0.5050505E-02 -0.2961905E-04  0.0000000E+00  0.4004027E-04
 -0.5050178E-02  0.0000000E+00 -0.5050505E-02 -0.2729544E-04  0.0000000E+00  0.2913422E-04
 -0.5050018E-02  0.0000000E+00 -0.5050505E-02 -0.2549328E-04  0.0000000E+00  0.1883808E-04
 -0.5049710E-02  0.0000000E+00 -0.5050505E-02 -0.2403433E-04  0.0000000E+00  0.9067074E-05
 -0.5049253E-02  0.0000000E+00 -0.5050505E-02 -0.2280483E-04  0.0000000E+00 -0.2365962E-06
 -0.5048636E-02  0.0000000E+00 -0.5050505E-02 -0.2172764E-04  0.0000000E+00 -0.9121000E-05
 -0.5047442E-02  0.0000000E+00 -0.5050505E-02 -0.2076048E-04  0.0000000E+00 -0.1763372E-04
 -0.5045727E-02  0.0000000E+00 -0.5050505E-02 -0.1987102E-04  0.0000000E+00 -0.2580542E-04
 -0.5043261E-02  0.0000000E+00 -0.5050505E-02 -0.1903736E-04  0.0000000E+00 -0.3365332E-04
 -0.5038714E-02  0.0000000E+00 -0.5050505E-02 -0.1824442E-04  0.0000000E+00 -0.4119028E-04
 -0.5032318E-02  0.0000000E+00 -0.5050505E-02 -0.1748167E-04  0.0000000E+00 -0.4842596E-04
 -0.5022454E-02  0.0000000E+00 -0.5050505E-02 -0.1674169E-04  0.0000000E+00 -0.5536771E-04
 -0.5012589E-02  0.0000000E+00 -0.5050505E-02 -0.1601918E-04  0.0000000E+00 -0.6202122E-04
 -0.5002725E-02  0.0000000E+00 -0.5050505E-02 -0.1531032E-04  0.0000000E+00 -0.6839088E-04
 -0.4992860E-02  0.0000000E+00 -0.5050505E-02 -0.1461236E-04  0.0000000E+00 -0.7448022E-04
 -0.4976523E-02  0.0000000E+00 -0.5050505E-02 -0.1392331E-04  0.0000000E+00 -0.8029208E-04
 -0.4956794E-02  0.0000000E+00 -0.5050505E-02 -0.1324175E-04  0.0000000E+00 -0.8582881E-04
 -0.4937066E-02  0.0000000E+00 -0.5050505E-02 -0.1256668E-04  0.0000000E+00 -0.9109244E-04
 -0.4906239E-02  0.0000000E+00 -0.5050505E-02 -0.1189742E-04  0.0000000E+00 -0.9608477E-04
 -0.4866782E-02  0.0000000E+00 -0.5050505E-02 -0.1123354E-04  0.0000000E+00 -0.1008074E-03
 -0.4827325E-02  0.0000000E+00 -0.5050505E-02 -0.1057482E-04  0.0000000E+00 -0.1052620E-03
 -0.4769372E-02  0.0000000E+00 -0.5050505E-02 -0.9921244E-05  0.0000000E+00 -0.1094501E-03
 -0.4690458E-02  0.0000000E+00 -0.5050505E-02 -0.9272977E-05  0.0000000E+00 -0.1133732E-03
 -0.4611543E-02  0.0000000E+00 -0.5050505E-02 -0.8630425E-05  0.0000000E+00 -0.1170331E-03
 -0.4503035E-02  0.0000000E+00 -0.5050505E-02 -0.7994297E-05  0.0000000E+00 -0.1204316E-03
 -0.4345206E-02  0.0000000E+00 -0.5050505E-02 -0.7365762E-05  0.0000000E+00 -0.1235705E-03
 -0.4187378E-02  0.0000000E+00 -0.5050505E-02 -0.6746702E-05  0.0000000E+00 -0.1264522E-03
 -0.3985156E-02  0.0000000E+00 -0.5050505E-02 -0.6140178E-05  0.0000000E+00 -0.1290791E-03
 -0.3669499E-02  0.0000000E+00 -0.5050505E-02 -0.5551265E-05  0.0000000E+00 -0.1314538E-03
 -0.3353842E-02  0.0000000E+00 -0.5050505E-02 -0.4988562E-05  0.0000000E+00 -0.1335785E-03
 -0.2978990E-02  0.0000000E+00 -0.5050505E-02 -0.4466960E-05  0.0000000E+00 -0.1354533E-03
 -0.2347676E-02  0.0000000E+00 -0.5050505E-02 -0.4012617E-05  0.0000000E+00 -0.1370710E-03
 -0.1716362E-02  0.0000000E+00 -0.5050505E-02 -0.3671162E-05  0.0000000E+00 -0.1384028E-03
 -0.1025842E-02  0.0000000E+00 -0.5050505E-02 -0.3517345E-05  0.0000000E+00 -0.1393599E-03
  0.2367855E-03  0.0000000E+00 -0.5050505E-02 -0.3645315E-05  0.0000000E+00 -0.1397031E-03
  0.1499413E-02  0.0000000E+00 -0.5050505E-02 -0.4022137E-05  0.0000000E+00 -0.1389009E-03
  0.5287294E-02  0.0000000E+00 -0.5050505E-02 -0.3637282E-05  0.0000000E+00 -0.1364107E-03
 -0.5050505E-02  0.0000000E+00 -0.5050505E-02  0.1761534E-06  0.0000000E+00 -0.2020828E-03
 -0.5050505E-02  0.0000000E+00 -0.5050505E-02  0.5287586E-06  0.0000000E+00 -0.2019788E-03
 -0.5050505E-02  0.0000000E+00 -0.5050505E-02  0.8822626E-06  0.0000000E+00 -0.2017704E-03
 -0.5050505E-02  0.0000000E+00 -0.5050505E-02  0.1237275E-05  0.0000000E+00 -0.2014575E-03
 -0.5050505E-02  0.0000000E+00 -0.5050505E-02  0.1594419E-05  0.0000000E+00 -0.2010395E-03
 -0.5050505E-02  0.0000000E+00 -0.5050505E-02  0.1954338E-05  0.0000000E+00 -0.2005156E-03
 -0.5050504E-02  0.0000000E+00 -0.5050505E-02  0.2317697E-05  0.0000000E+00 -0.1998852E-03
 -0.5050501E-02  0.0000000E+00 -0.5050505E-02  0.2685194E-05  0.0000000E+00 -0.1991469E-03
 -0.5050495E-02  0.0000000E+00 -0.5050505E-02  0.3057560E-05  0.0000000E+00 -0.1982997E-03
 -0.5050482E-02  0.0000000E+00 -0.5050505E-02  0.3435570E-05  0.0000000E+00 -0.1973419E-03
 -0.5050449E-02  0.0000000E+00 -0.5050505E-02  0.3820048E-05  0.0000000E+00 -0.1962719E-03
 -0.5050376E-02  0.0000000E+00 -0.5050505E-02  0.4211873E-05  0.0000000E+00 -0.1950878E-03
 -0.5050299E-02  0.0000000E+00 -0.5050505E-02  0.4611990E-05  0.0000000E+00 -0.1937872E-03
 -0.5050178E-02  0.0000000E+00 -0.5050505E-02  0.5021418E-05  0.0000000E+00 -0.1923678E-03
 -0.5050018E-02  0.0000000E+00 -0.5050505E-02  0.5441257E-05  0.0000000E+00 -0.1908267E-03
 -0.5049710E-02  0.0000000E+00 -0.5050505E-02  0.5872701E-05  0.0000000E+00 -0.1891608E-03
 -0.5049253E-02  0.0000000E+00 -0.5050505E-02  0.6317049E-05  0.0000000E+00 -0.1873666E-03
 -0.5048636E-02  0.0000000E+00 -0.5050505E-02  0.6775719E-05  0.0000000E+00 -0.1854403E-03
 -0.5047442E-02  0.0000000E+00 -0.5050505E-02  0.7250258E-05  0.0000000E+00 -0.1833776E-03
 -0.5045727E-02  0.0000000E+00 -0.5050505E-02  0.7742361E-05  0.0000000E+00 -0.1811738E-03
 -0.5043261E-02  0.0000000E+00 -0.5050505E-02  0.8253886E-05  0.0000000E+00 -0.1788236E-03
 -0.5038714E-02  0.0000000E+00 -0.5050505E-02  0.8786874E-05  0.0000000E+00 -0.1763214E-03
 -0.5032318E-02  0.0000000E+00 -0.5050505E-02  0.9343568E-05  0.0000000E+00 -0.1736606E-03
 -0.5022454E-02  0.0000000E+00 -0.5050505E-02  0.9926437E-05  0.0000000E+00 -0.1708343E-03
 -0.5012589E-02  0.0000000E+00 -0.5050505E-02  0.1053820E-04  0.0000000E+00 -0.1678347E-03
 -0.5002725E-02  0.0000000E+00 -0.5050505E-02  0.1118185E-04  0.0000000E+00 -0.1646532E-03
 -0.4992860E-02  0.0000000E+00 -0.5050505E-02  0.1186070E-04  0.0000000E+00 -0.1612805E-03
 -0.4976523E-02  0.0000000E+00 -0.5050505E-02  0.1257839E-04  0.0000000E+00 -0.1577060E-03
 -0.4956794E-02  0.0000000E+00 -0.5050505E-02  0.1333895E-04  0.0000000E+00 -0.1539183E-03
 -0.4937066E-02  0.0000000E+00 -0.5050505E-02  0.1414682E-04  0.0000000E+00 -0.1499048E-03