title = "dataset feddes"
variables = "x", "y", "z", "vx", "vy", "vz"
zone t = "velocities, solution time =  4.900E+01 days        " i =   99, j =   99, k =    1,  f=point
 -0.5050505E-02  0.0000000E+00 -0.5050505E-02  0.6850016E-07  0.0000000E+00 -0.1993468E-04
 -0.5050505E-02  0.0000000E+00 -0.5050505E-02  0.2056986E-06  0.0000000E+00 -0.1965983E-04
 -0.5050505E-02  0.0000000E+00 -0.5050505E-02  0.3434973E-06  0.0000000E+00 -0.1910935E-04
 -0.5050505E-02  0.0000000E+00 -0.5050505E-02  0.4823075E-06  0.0000000E+00 -0.1828170E-04
 -0.5050505E-02  0.0000000E+00 -0.5050505E-02  0.6225522E-06  0.0000000E+00 -0.1717453E-04
 -0.5050505E-02  0.0000000E+00 -0.5050505E-02  0.7646695E-06  0.0000000E+00 -0.1578463E-04
 -0.5050504E-02  0.0000000E+00 -0.5050505E-02  0.9091168E-06  0.0000000E+00 -0.1410796E-04
 -0.5050501E-02  0.0000000E+00 -0.5050505E-02  0.1056375E-05  0.0000000E+00 -0.1213956E-04
 -0.5050495E-02  0.0000000E+00 -0.5050505E-02  0.1206953E-05  0.0000000E+00 -0.9873515E-05
 -0.5050482E-02  0.0000000E+00 -0.5050505E-02  0.1361393E-05  0.0000000E+00 -0.7302892E-05
 -0.5050449E-02  0.0000000E+00 -0.5050505E-02  0.1520277E-05  0.0000000E+00 -0.4419688E-05
 -0.5050376E-02  0.0000000E+00 -0.5050505E-02  0.1684229E-05  0.0000000E+00 -0.1214038E-05
 -0.5050299E-02  0.0000000E+00 -0.5050505E-02  0.1853892E-05  0.0000000E+00  0.2330206E-05
 -0.5050178E-02  0.0000000E+00 -0.5050505E-02  0.2030048E-05  0.0000000E+00  0.6226641E-05
 -0.5050018E-02  0.0000000E+00 -0.5050505E-02  0.2213512E-05  0.0000000E+00  0.1048589E-04
 -0.5049710E-02  0.0000000E+00 -0.5050505E-02  0.2405181E-05  0.0000000E+00  0.1512407E-04
 -0.5049253E-02  0.0000000E+00 -0.5050505E-02  0.2606042E-05  0.0000000E+00  0.2015931E-04
 -0.5048636E-02  0.0000000E+00 -0.5050505E-02  0.2817189E-05  0.0000000E+00  0.2561188E-04
 -0.5047442E-02  0.0000000E+00 -0.5050505E-02  0.3039835E-05  0.0000000E+00  0.3150454E-04
 -0.5045727E-02  0.0000000E+00 -0.5050505E-02  0.3275331E-05  0.0000000E+00  0.3786271E-04
 -0.5043261E-02  0.0000000E+00 -0.5050505E-02  0.3525181E-05  0.0000000E+00  0.4471486E-04
 -0.5038714E-02  0.0000000E+00 -0.5050505E-02  0.3791068E-05  0.0000000E+00  0.5209285E-04
 -0.5032318E-02  0.0000000E+00 -0.5050505E-02  0.4074879E-05  0.0000000E+00  0.6003235E-04
 -0.5022454E-02  0.0000000E+00 -0.5050505E-02  0.4378734E-05  0.0000000E+00  0.6857330E-04
 -0.5012589E-02  0.0000000E+00 -0.5050505E-02  0.4705022E-05  0.0000000E+00  0.7776049E-04
 -0.5002725E-02  0.0000000E+00 -0.5050505E-02  0.5056441E-05  0.0000000E+00  0.8764421E-04
 -0.4992860E-02  0.0000000E+00 -0.5050505E-02  0.5436051E-05  0.0000000E+00  0.9828095E-04
 -0.4976523E-02  0.0000000E+00 -0.5050505E-02  0.5847337E-05  0.0000000E+00  0.1097343E-03
 -0.4956794E-02  0.0000000E+00 -0.5050505E-02  0.6294279E-05  0.0000000E+00  0.1220761E-03
 -0.4937066E-02  0.0000000E+00 -0.5050505E-02  0.6781455E-05  0.0000000E+00  0.1353875E-03
 -0.4906239E-02  0.0000000E+00 -0.5050505E-02  0.7314164E-05  0.0000000E+00  0.1497605E-03
 -0.4866782E-02  0.0000000E+00 -0.5050505E-02  0.7898599E-05  0.0000000E+00  0.1652998E-03
 -0.4827325E-02  0.0000000E+00 -0.5050505E-02  0.8542086E-05  0.0000000E+00  0.1821252E-03
 -0.4769372E-02  0.0000000E+00 -0.5050505E-02  0.9253427E-05  0.0000000E+00  0.2003745E-03
 -0.4690458E-02  0.0000000E+00 -0.5050505E-02  0.1004344E-04  0.0000000E+00  0.2202075E-03
 -0.4611543E-02  0.0000000E+00 -0.5050505E-02  0.1092577E-04  0.0000000E+00  0.2418114E-03
 -0.4503035E-02  0.0000000E+00 -0.5050505E-02  0.1191829E-04  0.0000000E+00  0.2654089E-03
 -0.4345206E-02  0.0000000E+00 -0.5050505E-02  0.1304547E-04  0.0000000E+00  0.2912700E-03
 -0.4187378E-02  0.0000000E+00 -0.5050505E-02  0.1434266E-04  0.0000000E+00  0.3197319E-03
 -0.3985156E-02  0.0000000E+00 -0.5050505E-02  0.1586421E-04  0.0000000E+00  0.3512318E-03
 -0.3669499E-02  0.0000000E+00 -0.5050505E-02  0.1769954E-04  0.0000000E+00  0.3863663E-03
 -0.3353842E-02  0.0000000E+00 -0.5050505E-02  0.2000635E-04  0.0000000E+00  0.4260056E-03
 -0.2978990E-02  0.0000000E+00 -0.5050505E-02  0.2308158E-04  0.0000000E+00  0.4715217E-03
 -0.2347676E-02  0.0000000E+00 -0.5050505E-02  0.2751334E-04  0.0000000E+00  0.5252654E-03
 -0.1716362E-02  0.0000000E+00 -0.5050505E-02  0.3448185E-04  0.0000000E+00  0.5915542E-03
 -0.1025842E-02  0.0000000E+00 -0.5050505E-02  0.4614649E-04  0.0000000E+00  0.6784750E-03
  0.2367855E-03  0.0000000E+00 -0.5050505E-02  0.6458158E-04  0.0000000E+00  0.7991323E-03
  0.1499413E-02  0.0000000E+00 -0.5050505E-02  0.4630114E-04  0.0000000E+00  0.9214144E-03
  0.2762042E-02  0.0000000E+00 -0.5050505E-02  0.2472001E-04  0.0000000E+00  0.1000840E-02
 -0.5050505E-02  0.0000000E+00 -0.5050505E-02  0.4467730E-04  0.0000000E+00  0.1079398E-02
 -0.5050505E-02  0.0000000E+00 -0.5050505E-02  0.6887172E-04  0.0000000E+00  0.1209170E-02
 -0.5050505E-02  0.0000000E+00 -0.5050505E-02  0.3967641E-04  0.0000000E+00  0.1334654E-02
 -0.5050505E-02  0.0000000E+00 -0.5050505E-02  0.6399459E-04  0.0000000E+00  0.1456718E-02
 -0.5050505E-02  0.0000000E+00 -0.5050505E-02  0.1073998E-03  0.0000000E+00  0.1661591E-02
 -0.5050505E-02  0.0000000E+00 -0.5050505E-02  0.8132971E-04  0.0000000E+00  0.1891596E-02
 -0.5050505E-02  0.0000000E+00 -0.5050505E-02  0.1268835E-03  0.0000000E+00  0.2153276E-02
 -0.5050504E-02  0.0000000E+00 -0.5050505E-02 -0.1970816E-03  0.0000000E+00  0.2069002E-02
 -0.5050501E-02  0.0000000E+00 -0.5050505E-02 -0.1044401E-03  0.0000000E+00  0.1697620E-02
 -0.5050495E-02  0.0000000E+00 -0.5050505E-02 -0.6851457E-04  0.0000000E+00  0.1490137E-02
 -0.5050482E-02  0.0000000E+00 -0.5050505E-02 -0.5985524E-04  0.0000000E+00  0.1339022E-02
 -0.5050449E-02  0.0000000E+00 -0.5050505E-02 -0.4792863E-04  0.0000000E+00  0.1213955E-02
 -0.5050376E-02  0.0000000E+00 -0.5050505E-02 -0.4207335E-04  0.0000000E+00  0.1110808E-02
 -0.5050299E-02  0.0000000E+00 -0.5050505E-02 -0.3822877E-04  0.0000000E+00  0.1019767E-02
 -0.5050178E-02  0.0000000E+00 -0.5050505E-02 -0.3391284E-04  0.0000000E+00  0.9387517E-03
 -0.5050018E-02  0.0000000E+00 -0.5050505E-02 -0.3055426E-04  0.0000000E+00  0.8669707E-03
 -0.5049710E-02  0.0000000E+00 -0.5050505E-02 -0.2811600E-04  0.0000000E+00  0.8021475E-03
 -0.5049253E-02  0.0000000E+00 -0.5050505E-02 -0.2602790E-04  0.0000000E+00  0.7427469E-03
 -0.5048636E-02  0.0000000E+00 -0.5050505E-02 -0.2406940E-04  0.0000000E+00  0.6881422E-03
 -0.5047442E-02  0.0000000E+00 -0.5050505E-02 -0.2218852E-04  0.0000000E+00  0.6380231E-03
 -0.5045727E-02  0.0000000E+00 -0.5050505E-02 -0.2038742E-04  0.0000000E+00  0.5921456E-03
 -0.5043261E-02  0.0000000E+00 -0.5050505E-02 -0.1868447E-04  0.0000000E+00  0.5502547E-03
 -0.5038714E-02  0.0000000E+00 -0.5050505E-02 -0.1709853E-04  0.0000000E+00  0.5120655E-03
 -0.5032318E-02  0.0000000E+00 -0.5050505E-02 -0.1564150E-04  0.0000000E+00  0.4772698E-03
 -0.5022454E-02  0.0000000E+00 -0.5050505E-02 -0.1431635E-04  0.0000000E+00  0.4455524E-03
 -0.5012589E-02  0.0000000E+00 -0.5050505E-02 -0.1311850E-04  0.0000000E+00  0.4166074E-03
 -0.5002725E-02  0.0000000E+00 -0.5050505E-02 -0.1203829E-04  0.0000000E+00  0.3901505E-03
 -0.4992860E-02  0.0000000E+00 -0.5050505E-02 -0.1106351E-04  0.0000000E+00  0.3659259E-03
 -0.4976523E-02  0.0000000E+00 -0.5050505E-02 -0.1018126E-04  0.0000000E+00  0.3437083E-03
 -0.4956794E-02  0.0000000E+00 -0.5050505E-02 -0.9379095E-05  0.0000000E+00  0.3233028E-03
 -0.4937066E-02  0.0000000E+00 -0.5050505E-02 -0.8645690E-05  0.0000000E+00  0.3045418E-03
 -0.4906239E-02  0.0000000E+00 -0.5050505E-02 -0.7971052E-05  0.0000000E+00  0.2872826E-03
 -0.4866782E-02  0.0000000E+00 -0.5050505E-02 -0.7346549E-05  0.0000000E+00  0.2714033E-03
 -0.4827325E-02  0.0000000E+00 -0.5050505E-02 -0.6764799E-05  0.0000000E+00  0.2568004E-03
 -0.4769372E-02  0.0000000E+00 -0.5050505E-02 -0.6219522E-05  0.0000000E+00  0.2433857E-03
 -0.4690458E-02  0.0000000E+00 -0.5050505E-02 -0.5705359E-05  0.0000000E+00  0.2310839E-03
 -0.4611543E-02  0.0000000E+00 -0.5050505E-02 -0.5217706E-05  0.0000000E+00  0.2198310E-03
 -0.4503035E-02  0.0000000E+00 -0.5050505E-02 -0.4752550E-05  0.0000000E+00  0.2095725E-03
 -0.4345206E-02  0.0000000E+00 -0.5050505E-02 -0.4306297E-05  0.0000000E+00  0.2002623E-03
 -0.4187378E-02  0.0000000E+00 -0.5050505E-02 -0.3875582E-05  0.0000000E+00  0.1918620E-03
 -0.3985156E-02  0.0000000E+00 -0.5050505E-02 -0.3457006E-05  0.0000000E+00  0.1843405E-03
 -0.3669499E-02  0.0000000E+00 -0.5050505E-02 -0.3046705E-05  0.0000000E+00  0.1776747E-03
 -0.3353842E-02  0.0000000E+00 -0.5050505E-02 -0.2639509E-05  0.0000000E+00  0.1718508E-03
 -0.2978990E-02  0.0000000E+00 -0.5050505E-02 -0.2227075E-05  0.0000000E+00  0.1668695E-03
 -0.2347676E-02  0.0000000E+00 -0.5050505E-02 -0.1793225E-05  0.0000000E+00  0.1627564E-03
 -0.1716362E-02  0.0000000E+00 -0.5050505E-02 -0.1301126E-05  0.0000000E+00  0.1595919E-03
 -0.1025842E-02  0.0000000E+00 -0.5050505E-02 -0.6542628E-06  0.0000000E+00  0.1575927E-03
  0.2367855E-03  0.0000000E+00 -0.5050505E-02  0.4338646E-06  0.0000000E+00  0.1573673E-03
  0.1499413E-02  0.0000000E+00 -0.5050505E-02  0.2913702E-05  0.0000000E+00  0.1607900E-03
  0.5287294E-02  0.0000000E+00 -0.5050505E-02  0.5614398E-04  0.0000000E+00  0.1278517E-03
 -0.5050505E-02  0.0000000E+00 -0.5050505E-02  0.2051763E-06  0.0000000E+00 -0.1986663E-04
 -0.5050505E-02  0.0000000E+00 -0.5050505E-02  0.6161241E-06  0.0000000E+00 -0.1959228E-04
 -0.5050505E-02  0.0000000E+00 -0.5050505E-02  0.1028872E-05  0.0000000E+00 -0.1904285E-04
 -0.5050505E-02  0.0000000E+00 -0.5050505E-02  0.1444650E-05  0.0000000E+00 -0.1821678E-04
 -0.5050505E-02  0.0000000E+00 -0.5050505E-02  0.1864724E-05  0.0000000E+00 -0.1711176E-04
 -0.5050505E-02  0.0000000E+00 -0.5050505E-02  0.2290405E-05  0.0000000E+00 -0.1572461E-04
 -0.5050504E-02  0.0000000E+00 -0.5050505E-02  0.2723059E-05  0.0000000E+00 -0.1405133E-04
 -0.5050501E-02  0.0000000E+00 -0.5050505E-02  0.3164125E-05  0.0000000E+00 -0.1208699E-04
 -0.5050495E-02  0.0000000E+00 -0.5050505E-02  0.3615126E-05  0.0000000E+00 -0.9825737E-05
 -0.5050482E-02  0.0000000E+00 -0.5050505E-02  0.4077681E-05  0.0000000E+00 -0.7260697E-05
 -0.5050449E-02  0.0000000E+00 -0.5050505E-02  0.4553531E-05  0.0000000E+00 -0.4383939E-05
 -0.5050376E-02  0.0000000E+00 -0.5050505E-02  0.5044545E-05  0.0000000E+00 -0.1185644E-05
 -0.5050299E-02  0.0000000E+00 -0.5050505E-02  0.5552639E-05  0.0000000E+00  0.2350196E-05
 -0.5050178E-02  0.0000000E+00 -0.5050505E-02  0.6080155E-05  0.0000000E+00  0.6237020E-05
 -0.5050018E-02  0.0000000E+00 -0.5050505E-02  0.6629530E-05  0.0000000E+00  0.1048536E-04
 -0.5049710E-02  0.0000000E+00 -0.5050505E-02  0.7203442E-05  0.0000000E+00  0.1511119E-04
 -0.5049253E-02  0.0000000E+00 -0.5050505E-02  0.7804844E-05  0.0000000E+00  0.2013245E-04
 -0.5048636E-02  0.0000000E+00 -0.5050505E-02  0.8437006E-05  0.0000000E+00  0.2556925E-04
 -0.5047442E-02  0.0000000E+00 -0.5050505E-02  0.9103553E-05  0.0000000E+00  0.3144409E-04
 -0.5045727E-02  0.0000000E+00 -0.5050505E-02  0.9808519E-05  0.0000000E+00  0.3778217E-04
 -0.5043261E-02  0.0000000E+00 -0.5050505E-02  0.1055640E-04  0.0000000E+00  0.4461165E-04
 -0.5038714E-02  0.0000000E+00 -0.5050505E-02  0.1135223E-04  0.0000000E+00  0.5196407E-04
 -0.5032318E-02  0.0000000E+00 -0.5050505E-02  0.1220164E-04  0.0000000E+00  0.5987471E-04
 -0.5022454E-02  0.0000000E+00 -0.5050505E-02  0.1311096E-04  0.0000000E+00  0.6838306E-04
 -0.5012589E-02  0.0000000E+00 -0.5050505E-02  0.1408733E-04  0.0000000E+00  0.7753343E-04
 -0.5002725E-02  0.0000000E+00 -0.5050505E-02  0.1513880E-04  0.0000000E+00  0.8737547E-04
 -0.4992860E-02  0.0000000E+00 -0.5050505E-02  0.1627450E-04  0.0000000E+00  0.9796501E-04
 -0.4976523E-02  0.0000000E+00 -0.5050505E-02  0.1750482E-04  0.0000000E+00  0.1093648E-03
 -0.4956794E-02  0.0000000E+00 -0.5050505E-02  0.1884163E-04  0.0000000E+00  0.1216457E-03
 -0.4937066E-02  0.0000000E+00 -0.5050505E-02  0.2029854E-04  0.0000000E+00  0.1348876E-03
 -0.4906239E-02  0.0000000E+00 -0.5050505E-02  0.2189133E-04  0.0000000E+00  0.1491811E-03
 -0.4866782E-02  0.0000000E+00 -0.5050505E-02  0.2363835E-04  0.0000000E+00  0.1646290E-03
 -0.4827325E-02  0.0000000E+00 -0.5050505E-02  0.2556128E-04  0.0000000E+00  0.1813486E-03
 -0.4769372E-02  0.0000000E+00 -0.5050505E-02  0.2768606E-04  0.0000000E+00  0.1994745E-03
 -0.4690458E-02  0.0000000E+00 -0.5050505E-02  0.3004437E-04  0.0000000E+00  0.2191619E-03
 -0.4611543E-02  0.0000000E+00 -0.5050505E-02  0.3267594E-04  0.0000000E+00  0.2405911E-03
 -0.4503035E-02  0.0000000E+00 -0.5050505E-02  0.3563221E-04  0.0000000E+00  0.2639743E-03
 -0.4345206E-02  0.0000000E+00 -0.5050505E-02  0.3898269E-04  0.0000000E+00  0.2895647E-03
 -0.4187378E-02  0.0000000E+00 -0.5050505E-02  0.4282606E-04  0.0000000E+00  0.3176705E-03
 -0.3985156E-02  0.0000000E+00 -0.5050505E-02  0.4731080E-04  0.0000000E+00  0.3486760E-03
 -0.3669499E-02  0.0000000E+00 -0.5050505E-02  0.5267512E-04  0.0000000E+00  0.3830772E-03
 -0.3353842E-02  0.0000000E+00 -0.5050505E-02  0.5932837E-04  0.0000000E+00  0.4215417E-03
 -0.2978990E-02  0.0000000E+00 -0.5050505E-02  0.6802594E-04  0.0000000E+00  0.4650217E-03
 -0.2347676E-02  0.0000000E+00 -0.5050505E-02  0.8026885E-04  0.0000000E+00  0.5150069E-03
 -0.1716362E-02  0.0000000E+00 -0.5050505E-02  0.9928550E-04  0.0000000E+00  0.5742919E-03
 -0.1025842E-02  0.0000000E+00 -0.5050505E-02  0.1326673E-03  0.0000000E+00  0.6501688E-03
  0.2367855E-03  0.0000000E+00 -0.5050505E-02  0.1638866E-03  0.0000000E+00  0.7313686E-03
  0.1499413E-02  0.0000000E+00 -0.5050505E-02  0.1422609E-03  0.0000000E+00  0.8237458E-03
  0.2762042E-02  0.0000000E+00 -0.5050505E-02  0.9939892E-04  0.0000000E+00  0.9343412E-03
 -0.5050505E-02  0.0000000E+00 -0.5050505E-02  0.1301073E-03  0.0000000E+00  0.1036635E-02
 -0.5050505E-02  0.0000000E+00 -0.5050505E-02  0.1653647E-03  0.0000000E+00  0.1114921E-02
 -0.5050505E-02  0.0000000E+00 -0.5050505E-02  0.1599131E-03  0.0000000E+00  0.1240339E-02
 -0.5050505E-02  0.0000000E+00 -0.5050505E-02  0.1755678E-03  0.0000000E+00  0.1390598E-02
 -0.5050505E-02  0.0000000E+00 -0.5050505E-02  0.2513076E-03  0.0000000E+00  0.1492095E-02
 -0.5050505E-02  0.0000000E+00 -0.5050505E-02  0.2635432E-03  0.0000000E+00  0.1660078E-02
 -0.5050505E-02  0.0000000E+00 -0.5050505E-02  0.2418845E-03  0.0000000E+00  0.1771430E-02
 -0.5050504E-02  0.0000000E+00 -0.5050505E-02 -0.4418100E-03  0.0000000E+00  0.1699752E-02
 -0.5050501E-02  0.0000000E+00 -0.5050505E-02 -0.2657128E-03  0.0000000E+00  0.1570680E-02
 -0.5050495E-02  0.0000000E+00 -0.5050505E-02 -0.1816237E-03  0.0000000E+00  0.1447557E-02
 -0.5050482E-02  0.0000000E+00 -0.5050505E-02 -0.1819968E-03  0.0000000E+00  0.1320621E-02
 -0.5050449E-02  0.0000000E+00 -0.5050505E-02 -0.1381277E-03  0.0000000E+00  0.1198319E-02
 -0.5050376E-02  0.0000000E+00 -0.5050505E-02 -0.1241698E-03  0.0000000E+00  0.1103227E-02
 -0.5050299E-02  0.0000000E+00 -0.5050505E-02 -0.1149452E-03  0.0000000E+00  0.1013639E-02
 -0.5050178E-02  0.0000000E+00 -0.5050505E-02 -0.1007609E-03  0.0000000E+00  0.9329901E-03
 -0.5050018E-02  0.0000000E+00 -0.5050505E-02 -0.9073974E-04  0.0000000E+00  0.8629787E-03
 -0.5049710E-02  0.0000000E+00 -0.5050505E-02 -0.8397004E-04  0.0000000E+00  0.7993220E-03
 -0.5049253E-02  0.0000000E+00 -0.5050505E-02 -0.7793226E-04  0.0000000E+00  0.7402932E-03
 -0.5048636E-02  0.0000000E+00 -0.5050505E-02 -0.7212244E-04  0.0000000E+00  0.6857859E-03
 -0.5047442E-02  0.0000000E+00 -0.5050505E-02 -0.6648875E-04  0.0000000E+00  0.6357168E-03
 -0.5045727E-02  0.0000000E+00 -0.5050505E-02 -0.6107404E-04  0.0000000E+00  0.5899160E-03
 -0.5043261E-02  0.0000000E+00 -0.5050505E-02 -0.5594957E-04  0.0000000E+00  0.5481475E-03
 -0.5038714E-02  0.0000000E+00 -0.5050505E-02 -0.5118030E-04  0.0000000E+00  0.5101209E-03
 -0.5032318E-02  0.0000000E+00 -0.5050505E-02 -0.4680494E-04  0.0000000E+00  0.4755124E-03
 -0.5022454E-02  0.0000000E+00 -0.5050505E-02 -0.4283198E-04  0.0000000E+00  0.4439897E-03
 -0.5012589E-02  0.0000000E+00 -0.5050505E-02 -0.3924566E-04  0.0000000E+00  0.4152334E-03
 -0.5002725E-02  0.0000000E+00 -0.5050505E-02 -0.3601491E-04  0.0000000E+00  0.3889506E-03
 -0.4992860E-02  0.0000000E+00 -0.5050505E-02 -0.3310141E-04  0.0000000E+00  0.3648811E-03
 -0.4976523E-02  0.0000000E+00 -0.5050505E-02 -0.3046532E-04  0.0000000E+00  0.3427986E-03
 -0.4956794E-02  0.0000000E+00 -0.5050505E-02 -0.2806872E-04  0.0000000E+00  0.3225089E-03
 -0.4937066E-02  0.0000000E+00 -0.5050505E-02 -0.2587734E-04  0.0000000E+00  0.3038462E-03
 -0.4906239E-02  0.0000000E+00 -0.5050505E-02 -0.2386114E-04  0.0000000E+00  0.2866698E-03
 -0.4866782E-02  0.0000000E+00 -0.5050505E-02 -0.2199429E-04  0.0000000E+00  0.2708602E-03
 -0.4827325E-02  0.0000000E+00 -0.5050505E-02 -0.2025478E-04  0.0000000E+00  0.2563158E-03
 -0.4769372E-02  0.0000000E+00 -0.5050505E-02 -0.1862389E-04  0.0000000E+00  0.2429501E-03
 -0.4690458E-02  0.0000000E+00 -0.5050505E-02 -0.1708571E-04  0.0000000E+00  0.2306893E-03
 -0.4611543E-02  0.0000000E+00 -0.5050505E-02 -0.1562658E-04  0.0000000E+00  0.2194705E-03
 -0.4503035E-02  0.0000000E+00 -0.5050505E-02 -0.1423459E-04  0.0000000E+00  0.2092400E-03
 -0.4345206E-02  0.0000000E+00 -0.5050505E-02 -0.1289916E-04  0.0000000E+00  0.1999523E-03
 -0.4187378E-02  0.0000000E+00 -0.5050505E-02 -0.1161044E-04  0.0000000E+00  0.1915691E-03
 -0.3985156E-02  0.0000000E+00 -0.5050505E-02 -0.1035864E-04  0.0000000E+00  0.1840587E-03
 -0.3669499E-02  0.0000000E+00 -0.5050505E-02 -0.9132994E-05  0.0000000E+00  0.1773962E-03
 -0.3353842E-02  0.0000000E+00 -0.5050505E-02 -0.7919824E-05  0.0000000E+00  0.1715633E-03
 -0.2978990E-02  0.0000000E+00 -0.5050505E-02 -0.6698644E-05  0.0000000E+00  0.1665496E-03
 -0.2347676E-02  0.0000000E+00 -0.5050505E-02 -0.5433475E-05  0.0000000E+00  0.1623525E-03
 -0.1716362E-02  0.0000000E+00 -0.5050505E-02 -0.4051982E-05  0.0000000E+00  0.1589722E-03
 -0.1025842E-02  0.0000000E+00 -0.5050505E-02 -0.2392088E-05  0.0000000E+00  0.1563765E-03
  0.2367855E-03  0.0000000E+00 -0.5050505E-02 -0.5775262E-07  0.0000000E+00  0.1543222E-03
  0.1499413E-02  0.0000000E+00 -0.5050505E-02  0.3987633E-05  0.0000000E+00  0.1515072E-03
  0.5287294E-02  0.0000000E+00 -0.5050505E-02  0.1259528E-04  0.0000000E+00  0.1416042E-03
 -0.5050505E-02  0.0000000E+00 -0.5050505E-02  0.3410810E-06  0.0000000E+00 -0.1973080E-04
 -0.5050505E-02  0.0000000E+00 -0.5050505E-02  0.1024233E-05  0.0000000E+00 -0.1945747E-04
 -0.5050505E-02  0.0000000E+00 -0.5050505E-02  0.1710378E-05  0.0000000E+00 -0.1891009E-04
 -0.5050505E-02  0.0000000E+00 -0.5050505E-02  0.2401554E-05  0.0000000E+00 -0.1808715E-04
 -0.5050505E-02  0.0000000E+00 -0.5050505E-02  0.3099860E-05  0.0000000E+00 -0.1698638E-04
 -0.5050505E-02  0.0000000E+00 -0.5050505E-02  0.3807465E-05  0.0000000E+00 -0.1560466E-04
 -0.5050504E-02  0.0000000E+00 -0.5050505E-02  0.4526637E-05  0.0000000E+00 -0.1393804E-04
 -0.5050501E-02  0.0000000E+00 -0.5050505E-02  0.5259757E-05  0.0000000E+00 -0.1198171E-04
 -0.5050495E-02  0.0000000E+00 -0.5050505E-02  0.6009345E-05  0.0000000E+00 -0.9729901E-05
 -0.5050482E-02  0.0000000E+00 -0.5050505E-02  0.6778089E-05  0.0000000E+00 -0.7175865E-05
 -0.5050449E-02  0.0000000E+00 -0.5050505E-02  0.7568865E-05  0.0000000E+00 -0.4311811E-05
 -0.5050376E-02  0.0000000E+00 -0.5050505E-02  0.8384775E-05  0.0000000E+00 -0.1128007E-05
 -0.5050299E-02  0.0000000E+00 -0.5050505E-02  0.9228984E-05  0.0000000E+00  0.2391275E-05
 -0.5050178E-02  0.0000000E+00 -0.5050505E-02  0.1010537E-04  0.0000000E+00  0.6259160E-05
 -0.5050018E-02  0.0000000E+00 -0.5050505E-02  0.1101797E-04  0.0000000E+00  0.1048600E-04
 -0.5049710E-02  0.0000000E+00 -0.5050505E-02  0.1197121E-04  0.0000000E+00  0.1508748E-04
 -0.5049253E-02  0.0000000E+00 -0.5050505E-02  0.1296998E-04  0.0000000E+00  0.2008121E-04
 -0.5048636E-02  0.0000000E+00 -0.5050505E-02  0.1401969E-04  0.0000000E+00  0.2548690E-04
 -0.5047442E-02  0.0000000E+00 -0.5050505E-02  0.1512634E-04  0.0000000E+00  0.3132664E-04
 -0.5045727E-02  0.0000000E+00 -0.5050505E-02  0.1629660E-04  0.0000000E+00  0.3762511E-04
 -0.5043261E-02  0.0000000E+00 -0.5050505E-02  0.1753790E-04  0.0000000E+00  0.4440991E-04
 -0.5038714E-02  0.0000000E+00 -0.5050505E-02  0.1885857E-04  0.0000000E+00  0.5171193E-04
 -0.5032318E-02  0.0000000E+00 -0.5050505E-02  0.2026790E-04  0.0000000E+00  0.5956568E-04
 -0.5022454E-02  0.0000000E+00 -0.5050505E-02  0.2177636E-04  0.0000000E+00  0.6800980E-04
 -0.5012589E-02  0.0000000E+00 -0.5050505E-02  0.2339573E-04  0.0000000E+00  0.7708758E-04
 -0.5002725E-02  0.0000000E+00 -0.5050505E-02  0.2513930E-04  0.0000000E+00  0.8684753E-04
 -0.4992860E-02  0.0000000E+00 -0.5050505E-02  0.2702212E-04  0.0000000E+00  0.9734409E-04
 -0.4976523E-02  0.0000000E+00 -0.5050505E-02  0.2906132E-04  0.0000000E+00  0.1086384E-03
 -0.4956794E-02  0.0000000E+00 -0.5050505E-02  0.3127639E-04  0.0000000E+00  0.1207994E-03
 -0.4937066E-02  0.0000000E+00 -0.5050505E-02  0.3368972E-04  0.0000000E+00  0.1339047E-03
 -0.4906239E-02  0.0000000E+00 -0.5050505E-02  0.3632710E-04  0.0000000E+00  0.1480420E-03
 -0.4866782E-02  0.0000000E+00 -0.5050505E-02  0.3921849E-04  0.0000000E+00  0.1633105E-03
 -0.4827325E-02  0.0000000E+00 -0.5050505E-02  0.4239905E-04  0.0000000E+00  0.1798231E-03
 -0.4769372E-02  0.0000000E+00 -0.5050505E-02  0.4591057E-04  0.0000000E+00  0.1977082E-03
 -0.4690458E-02  0.0000000E+00 -0.5050505E-02  0.4980356E-04  0.0000000E+00  0.2171123E-03
 -0.4611543E-02  0.0000000E+00 -0.5050505E-02  0.5414043E-04  0.0000000E+00  0.2382039E-03
 -0.4503035E-02  0.0000000E+00 -0.5050505E-02  0.5900050E-04  0.0000000E+00  0.2611769E-03
 -0.4345206E-02  0.0000000E+00 -0.5050505E-02  0.6448819E-04  0.0000000E+00  0.2862558E-03
 -0.4187378E-02  0.0000000E+00 -0.5050505E-02  0.7074676E-04  0.0000000E+00  0.3137010E-03
 -0.3985156E-02  0.0000000E+00 -0.5050505E-02  0.7798252E-04  0.0000000E+00  0.3438140E-03
 -0.3669499E-02  0.0000000E+00 -0.5050505E-02  0.8650867E-04  0.0000000E+00  0.3769375E-03
 -0.3353842E-02  0.0000000E+00 -0.5050505E-02  0.9682788E-04  0.0000000E+00  0.4134374E-03
 -0.2978990E-02  0.0000000E+00 -0.5050505E-02  0.1097931E-03  0.0000000E+00  0.4536204E-03
 -0.2347676E-02  0.0000000E+00 -0.5050505E-02  0.1269335E-03  0.0000000E+00  0.4974208E-03
 -0.1716362E-02  0.0000000E+00 -0.5050505E-02  0.1511512E-03  0.0000000E+00  0.5431946E-03
 -0.1025842E-02  0.0000000E+00 -0.5050505E-02  0.1883434E-03  0.0000000E+00  0.5827468E-03
  0.2367855E-03  0.0000000E+00 -0.5050505E-02  0.2153855E-03  0.0000000E+00  0.6174735E-03
  0.1499413E-02  0.0000000E+00 -0.5050505E-02  0.2269248E-03  0.0000000E+00  0.6734271E-03
  0.2762042E-02  0.0000000E+00 -0.5050505E-02  0.2057017E-03  0.0000000E+00  0.7727352E-03
 -0.5050505E-02  0.0000000E+00 -0.5050505E-02  0.2122173E-03  0.0000000E+00  0.8804113E-03
 -0.5050505E-02  0.0000000E+00 -0.5050505E-02  0.2404639E-03  0.0000000E+00  0.9801838E-03
 -0.5050505E-02  0.0000000E+00 -0.5050505E-02  0.2948899E-03  0.0000000E+00  0.1096148E-02
 -0.5050505E-02  0.0000000E+00 -0.5050505E-02  0.2926690E-03  0.0000000E+00  0.1239848E-02
 -0.5050505E-02  0.0000000E+00 -0.5050505E-02  0.3150871E-03  0.0000000E+00  0.1355195E-02
 -0.5050505E-02  0.0000000E+00 -0.5050505E-02  0.4305308E-03  0.0000000E+00  0.1469570E-02
 -0.5050505E-02  0.0000000E+00 -0.5050505E-02  0.2745773E-03  0.0000000E+00  0.1607779E-02
 -0.5050504E-02  0.0000000E+00 -0.5050505E-02 -0.5672000E-03  0.0000000E+00  0.1570946E-02
 -0.5050501E-02  0.0000000E+00 -0.5050505E-02 -0.3489642E-03  0.0000000E+00  0.1442585E-02
 -0.5050495E-02  0.0000000E+00 -0.5050505E-02 -0.2814434E-03  0.0000000E+00  0.1342555E-02
 -0.5050482E-02  0.0000000E+00 -0.5050505E-02 -0.2813347E-03  0.0000000E+00  0.1232220E-02
 -0.5050449E-02  0.0000000E+00 -0.5050505E-02 -0.2015171E-03  0.0000000E+00  0.1162903E-02
 -0.5050376E-02  0.0000000E+00 -0.5050505E-02 -0.2015367E-03  0.0000000E+00  0.1094352E-02
 -0.5050299E-02  0.0000000E+00 -0.5050505E-02 -0.1959329E-03  0.0000000E+00  0.1002766E-02
 -0.5050178E-02  0.0000000E+00 -0.5050505E-02 -0.1637225E-03  0.0000000E+00  0.9205145E-03
 -0.5050018E-02  0.0000000E+00 -0.5050505E-02 -0.1478618E-03  0.0000000E+00  0.8558012E-03
 -0.5049710E-02  0.0000000E+00 -0.5050505E-02 -0.1391119E-03  0.0000000E+00  0.7946310E-03
 -0.5049253E-02  0.0000000E+00 -0.5050505E-02 -0.1296413E-03  0.0000000E+00  0.7358398E-03
 -0.5048636E-02  0.0000000E+00 -0.5050505E-02 -0.1200628E-03  0.0000000E+00  0.6812834E-03
 -0.5047442E-02  0.0000000E+00 -0.5050505E-02 -0.1106538E-03  0.0000000E+00  0.6312144E-03
 -0.5045727E-02  0.0000000E+00 -0.5050505E-02 -0.1015634E-03  0.0000000E+00  0.5855234E-03
 -0.5043261E-02  0.0000000E+00 -0.5050505E-02 -0.9295242E-04  0.0000000E+00  0.5439839E-03
 -0.5038714E-02  0.0000000E+00 -0.5050505E-02 -0.8495468E-04  0.0000000E+00  0.5062816E-03
 -0.5032318E-02  0.0000000E+00 -0.5050505E-02 -0.7764245E-04  0.0000000E+00  0.4720517E-03
 -0.5022454E-02  0.0000000E+00 -0.5050505E-02 -0.7102610E-04  0.0000000E+00  0.4409222E-03
 -0.5012589E-02  0.0000000E+00 -0.5050505E-02 -0.6507124E-04  0.0000000E+00  0.4125447E-03
 -0.5002725E-02  0.0000000E+00 -0.5050505E-02 -0.5971816E-04  0.0000000E+00  0.3866087E-03
 -0.4992860E-02  0.0000000E+00 -0.5050505E-02 -0.5489703E-04  0.0000000E+00  0.3628461E-03
 -0.4976523E-02  0.0000000E+00 -0.5050505E-02 -0.5053764E-04  0.0000000E+00  0.3410294E-03
 -0.4956794E-02  0.0000000E+00 -0.5050505E-02 -0.4657475E-04  0.0000000E+00  0.3209664E-03
 -0.4937066E-02  0.0000000E+00 -0.5050505E-02 -0.4295038E-04  0.0000000E+00  0.3024956E-03
 -0.4906239E-02  0.0000000E+00 -0.5050505E-02 -0.3961433E-04  0.0000000E+00  0.2854806E-03
 -0.4866782E-02  0.0000000E+00 -0.5050505E-02 -0.3652377E-04  0.0000000E+00  0.2698065E-03
 -0.4827325E-02  0.0000000E+00 -0.5050505E-02 -0.3364243E-04  0.0000000E+00  0.2553757E-03
 -0.4769372E-02  0.0000000E+00 -0.5050505E-02 -0.3093960E-04  0.0000000E+00  0.2421050E-03
 -0.4690458E-02  0.0000000E+00 -0.5050505E-02 -0.2838921E-04  0.0000000E+00  0.2299237E-03
 -0.4611543E-02  0.0000000E+00 -0.5050505E-02 -0.2596896E-04  0.0000000E+00  0.2187710E-03
 -0.4503035E-02  0.0000000E+00 -0.5050505E-02 -0.2365951E-04  0.0000000E+00  0.2085951E-03
 -0.4345206E-02  0.0000000E+00 -0.5050505E-02 -0.2144375E-04  0.0000000E+00  0.1993515E-03
 -0.4187378E-02  0.0000000E+00 -0.5050505E-02 -0.1930599E-04  0.0000000E+00  0.1910023E-03
 -0.3985156E-02  0.0000000E+00 -0.5050505E-02 -0.1723108E-04  0.0000000E+00  0.1835153E-03
 -0.3669499E-02  0.0000000E+00 -0.5050505E-02 -0.1520319E-04  0.0000000E+00  0.1768632E-03
 -0.3353842E-02  0.0000000E+00 -0.5050505E-02 -0.1320392E-04  0.0000000E+00  0.1710226E-03
 -0.2978990E-02  0.0000000E+00 -0.5050505E-02 -0.1120912E-04  0.0000000E+00  0.1659716E-03
 -0.2347676E-02  0.0000000E+00 -0.5050505E-02 -0.9183355E-05  0.0000000E+00  0.1616845E-03
 -0.1716362E-02  0.0000000E+00 -0.5050505E-02 -0.7070907E-05  0.0000000E+00  0.1581159E-03
 -0.1025842E-02  0.0000000E+00 -0.5050505E-02 -0.4784897E-05  0.0000000E+00  0.1551603E-03
  0.2367855E-03  0.0000000E+00 -0.5050505E-02 -0.2216368E-05  0.0000000E+00  0.1525552E-03
  0.1499413E-02  0.0000000E+00 -0.5050505E-02  0.6123885E-06  0.0000000E+00  0.1497277E-03
  0.5287294E-02  0.0000000E+00 -0.5050505E-02  0.2644373E-05  0.0000000E+00  0.1460880E-03
 -0.5050505E-02  0.0000000E+00 -0.5050505E-02  0.4759720E-06  0.0000000E+00 -0.1952740E-04
 -0.5050505E-02  0.0000000E+00 -0.5050505E-02  0.1429296E-05  0.0000000E+00 -0.1925558E-04
 -0.5050505E-02  0.0000000E+00 -0.5050505E-02  0.2386782E-05  0.0000000E+00 -0.1871123E-04
 -0.5050505E-02  0.0000000E+00 -0.5050505E-02  0.3351267E-05  0.0000000E+00 -0.1789291E-04
 -0.5050505E-02  0.0000000E+00 -0.5050505E-02  0.4325662E-05  0.0000000E+00 -0.1679839E-04
 -0.5050505E-02  0.0000000E+00 -0.5050505E-02  0.5312979E-05  0.0000000E+00 -0.1542466E-04
 -0.5050504E-02  0.0000000E+00 -0.5050505E-02  0.6316363E-05  0.0000000E+00 -0.1376788E-04
 -0.5050501E-02  0.0000000E+00 -0.5050505E-02  0.7339120E-05  0.0000000E+00 -0.1182334E-04
 -0.5050495E-02  0.0000000E+00 -0.5050505E-02  0.8384747E-05  0.0000000E+00 -0.9585442E-05
 -0.5050482E-02  0.0000000E+00 -0.5050505E-02  0.9456970E-05  0.0000000E+00 -0.7047614E-05
 -0.5050449E-02  0.0000000E+00 -0.5050505E-02  0.1055978E-04  0.0000000E+00 -0.4202271E-05
 -0.5050376E-02  0.0000000E+00 -0.5050505E-02  0.1169748E-04  0.0000000E+00 -0.1039805E-05
 -0.5050299E-02  0.0000000E+00 -0.5050505E-02  0.1287445E-04  0.0000000E+00  0.2455095E-05
 -0.5050178E-02  0.0000000E+00 -0.5050505E-02  0.1409606E-04  0.0000000E+00  0.6295090E-05
 -0.5050018E-02  0.0000000E+00 -0.5050505E-02  0.1536792E-04  0.0000000E+00  0.1049027E-04
 -0.5049710E-02  0.0000000E+00 -0.5050505E-02  0.1669615E-04  0.0000000E+00  0.1505589E-04
 -0.5049253E-02  0.0000000E+00 -0.5050505E-02  0.1808754E-04  0.0000000E+00  0.2000907E-04
 -0.5048636E-02  0.0000000E+00 -0.5050505E-02  0.1954956E-04  0.0000000E+00  0.2536896E-04
 -0.5047442E-02  0.0000000E+00 -0.5050505E-02  0.2109053E-04  0.0000000E+00  0.3115700E-04
 -0.5045727E-02  0.0000000E+00 -0.5050505E-02  0.2271967E-04  0.0000000E+00  0.3739714E-04
 -0.5043261E-02  0.0000000E+00 -0.5050505E-02  0.2444727E-04  0.0000000E+00  0.4411616E-04
 -0.5038714E-02  0.0000000E+00 -0.5050505E-02  0.2628483E-04  0.0000000E+00  0.5134396E-04
 -0.5032318E-02  0.0000000E+00 -0.5050505E-02  0.2824523E-04  0.0000000E+00  0.5911396E-04
 -0.5022454E-02  0.0000000E+00 -0.5050505E-02  0.3034290E-04  0.0000000E+00  0.6746356E-04
 -0.5012589E-02  0.0000000E+00 -0.5050505E-02  0.3259412E-04  0.0000000E+00  0.7643454E-04
 -0.5002725E-02  0.0000000E+00 -0.5050505E-02  0.3501721E-04  0.0000000E+00  0.8607374E-04
 -0.4992860E-02  0.0000000E+00 -0.5050505E-02  0.3763294E-04  0.0000000E+00  0.9643360E-04
 -0.4976523E-02  0.0000000E+00 -0.5050505E-02  0.4046483E-04  0.0000000E+00  0.1075730E-03
 -0.4956794E-02  0.0000000E+00 -0.5050505E-02  0.4353970E-04  0.0000000E+00  0.1195580E-03
 -0.4937066E-02  0.0000000E+00 -0.5050505E-02  0.4688819E-04  0.0000000E+00  0.1324630E-03