title = "dataset feddes"
variables = "x", "y", "z", "vx", "vy", "vz"
zone t = "velocities, solution time =  2.000E+01 days        " i =   99, j =   99, k =    1,  f=point
 -0.5050505E-02  0.0000000E+00 -0.5050505E-02  0.3762400E-09  0.0000000E+00 -0.4145711E-03
 -0.5050505E-02  0.0000000E+00 -0.5050505E-02  0.1127945E-08  0.0000000E+00 -0.4145695E-03
 -0.5050505E-02  0.0000000E+00 -0.5050505E-02  0.1877078E-08  0.0000000E+00 -0.4145663E-03
 -0.5050505E-02  0.0000000E+00 -0.5050505E-02  0.2621907E-08  0.0000000E+00 -0.4145616E-03
 -0.5050505E-02  0.0000000E+00 -0.5050505E-02  0.3360715E-08  0.0000000E+00 -0.4145553E-03
 -0.5050505E-02  0.0000000E+00 -0.5050505E-02  0.4091782E-08  0.0000000E+00 -0.4145475E-03
 -0.5050504E-02  0.0000000E+00 -0.5050505E-02  0.4813380E-08  0.0000000E+00 -0.4145382E-03
 -0.5050501E-02  0.0000000E+00 -0.5050505E-02  0.5523770E-08  0.0000000E+00 -0.4145273E-03
 -0.5050495E-02  0.0000000E+00 -0.5050505E-02  0.6221222E-08  0.0000000E+00 -0.4145150E-03
 -0.5050482E-02  0.0000000E+00 -0.5050505E-02  0.6903992E-08  0.0000000E+00 -0.4145012E-03
 -0.5050449E-02  0.0000000E+00 -0.5050505E-02  0.7570332E-08  0.0000000E+00 -0.4144860E-03
 -0.5050376E-02  0.0000000E+00 -0.5050505E-02  0.8218491E-08  0.0000000E+00 -0.4144695E-03
 -0.5050299E-02  0.0000000E+00 -0.5050505E-02  0.8846714E-08  0.0000000E+00 -0.4144516E-03
 -0.5050178E-02  0.0000000E+00 -0.5050505E-02  0.9453245E-08  0.0000000E+00 -0.4144324E-03
 -0.5050018E-02  0.0000000E+00 -0.5050505E-02  0.1003632E-07  0.0000000E+00 -0.4144119E-03
 -0.5049710E-02  0.0000000E+00 -0.5050505E-02  0.1059419E-07  0.0000000E+00 -0.4143903E-03
 -0.5049253E-02  0.0000000E+00 -0.5050505E-02  0.1112509E-07  0.0000000E+00 -0.4143675E-03
 -0.5048636E-02  0.0000000E+00 -0.5050505E-02  0.1162728E-07  0.0000000E+00 -0.4143436E-03
 -0.5047442E-02  0.0000000E+00 -0.5050505E-02  0.1209901E-07  0.0000000E+00 -0.4143187E-03
 -0.5045727E-02  0.0000000E+00 -0.5050505E-02  0.1253855E-07  0.0000000E+00 -0.4142929E-03
 -0.5043261E-02  0.0000000E+00 -0.5050505E-02  0.1294418E-07  0.0000000E+00 -0.4142661E-03
 -0.5038714E-02  0.0000000E+00 -0.5050505E-02  0.1331422E-07  0.0000000E+00 -0.4142386E-03
 -0.5032318E-02  0.0000000E+00 -0.5050505E-02  0.1364699E-07  0.0000000E+00 -0.4142103E-03
 -0.5022454E-02  0.0000000E+00 -0.5050505E-02  0.1394086E-07  0.0000000E+00 -0.4141813E-03
 -0.5012589E-02  0.0000000E+00 -0.5050505E-02  0.1419422E-07  0.0000000E+00 -0.4141518E-03
 -0.5002725E-02  0.0000000E+00 -0.5050505E-02  0.1440552E-07  0.0000000E+00 -0.4141218E-03
 -0.4992860E-02  0.0000000E+00 -0.5050505E-02  0.1457325E-07  0.0000000E+00 -0.4140914E-03
 -0.4976523E-02  0.0000000E+00 -0.5050505E-02  0.1469597E-07  0.0000000E+00 -0.4140607E-03
 -0.4956794E-02  0.0000000E+00 -0.5050505E-02  0.1477231E-07  0.0000000E+00 -0.4140298E-03
 -0.4937066E-02  0.0000000E+00 -0.5050505E-02  0.1480095E-07  0.0000000E+00 -0.4139987E-03
 -0.4906239E-02  0.0000000E+00 -0.5050505E-02  0.1478070E-07  0.0000000E+00 -0.4139677E-03
 -0.4866782E-02  0.0000000E+00 -0.5050505E-02  0.1471043E-07  0.0000000E+00 -0.4139368E-03
 -0.4827325E-02  0.0000000E+00 -0.5050505E-02  0.1458915E-07  0.0000000E+00 -0.4139060E-03
 -0.4769372E-02  0.0000000E+00 -0.5050505E-02  0.1441598E-07  0.0000000E+00 -0.4138756E-03
 -0.4690458E-02  0.0000000E+00 -0.5050505E-02  0.1419018E-07  0.0000000E+00 -0.4138456E-03
 -0.4611543E-02  0.0000000E+00 -0.5050505E-02  0.1391115E-07  0.0000000E+00 -0.4138161E-03
 -0.4503035E-02  0.0000000E+00 -0.5050505E-02  0.1357848E-07  0.0000000E+00 -0.4137872E-03
 -0.4345206E-02  0.0000000E+00 -0.5050505E-02  0.1319191E-07  0.0000000E+00 -0.4137591E-03
 -0.4187378E-02  0.0000000E+00 -0.5050505E-02  0.1275139E-07  0.0000000E+00 -0.4137319E-03
 -0.3985156E-02  0.0000000E+00 -0.5050505E-02  0.1225710E-07  0.0000000E+00 -0.4137057E-03
 -0.3669499E-02  0.0000000E+00 -0.5050505E-02  0.1170943E-07  0.0000000E+00 -0.4136805E-03
 -0.3353842E-02  0.0000000E+00 -0.5050505E-02  0.1110902E-07  0.0000000E+00 -0.4136566E-03
 -0.2978990E-02  0.0000000E+00 -0.5050505E-02  0.1045677E-07  0.0000000E+00 -0.4136340E-03
 -0.2347676E-02  0.0000000E+00 -0.5050505E-02  0.9753860E-08  0.0000000E+00 -0.4136128E-03
 -0.1716362E-02  0.0000000E+00 -0.5050505E-02  0.9001764E-08  0.0000000E+00 -0.4135931E-03
 -0.1025842E-02  0.0000000E+00 -0.5050505E-02  0.8202255E-08  0.0000000E+00 -0.4135750E-03
  0.2367855E-03  0.0000000E+00 -0.5050505E-02  0.7357425E-08  0.0000000E+00 -0.4135587E-03
  0.1499413E-02  0.0000000E+00 -0.5050505E-02  0.6469685E-08  0.0000000E+00 -0.4135442E-03
  0.2762042E-02  0.0000000E+00 -0.5050505E-02  0.5541770E-08  0.0000000E+00 -0.4135316E-03
 -0.5050505E-02  0.0000000E+00 -0.5050505E-02  0.4576744E-08  0.0000000E+00 -0.4135210E-03
 -0.5050505E-02  0.0000000E+00 -0.5050505E-02  0.3577990E-08  0.0000000E+00 -0.4135124E-03
 -0.5050505E-02  0.0000000E+00 -0.5050505E-02  0.2549198E-08  0.0000000E+00 -0.4135060E-03
 -0.5050505E-02  0.0000000E+00 -0.5050505E-02  0.1494355E-08  0.0000000E+00 -0.4135018E-03
 -0.5050505E-02  0.0000000E+00 -0.5050505E-02  0.4177122E-09  0.0000000E+00 -0.4134998E-03
 -0.5050505E-02  0.0000000E+00 -0.5050505E-02 -0.6762390E-09  0.0000000E+00 -0.4135000E-03
 -0.5050505E-02  0.0000000E+00 -0.5050505E-02 -0.1782814E-08  0.0000000E+00 -0.4135026E-03
 -0.5050504E-02  0.0000000E+00 -0.5050505E-02 -0.2897170E-08  0.0000000E+00 -0.4135075E-03
 -0.5050501E-02  0.0000000E+00 -0.5050505E-02 -0.4014378E-08  0.0000000E+00 -0.4135148E-03
 -0.5050495E-02  0.0000000E+00 -0.5050505E-02 -0.5129478E-08  0.0000000E+00 -0.4135244E-03
 -0.5050482E-02  0.0000000E+00 -0.5050505E-02 -0.6237554E-08  0.0000000E+00 -0.4135363E-03
 -0.5050449E-02  0.0000000E+00 -0.5050505E-02 -0.7333817E-08  0.0000000E+00 -0.4135505E-03
 -0.5050376E-02  0.0000000E+00 -0.5050505E-02 -0.8413689E-08  0.0000000E+00 -0.4135671E-03
 -0.5050299E-02  0.0000000E+00 -0.5050505E-02 -0.9472915E-08  0.0000000E+00 -0.4135858E-03
 -0.5050178E-02  0.0000000E+00 -0.5050505E-02 -0.1050767E-07  0.0000000E+00 -0.4136068E-03
 -0.5050018E-02  0.0000000E+00 -0.5050505E-02 -0.1151465E-07  0.0000000E+00 -0.4136299E-03
 -0.5049710E-02  0.0000000E+00 -0.5050505E-02 -0.1249125E-07  0.0000000E+00 -0.4136551E-03
 -0.5049253E-02  0.0000000E+00 -0.5050505E-02 -0.1343566E-07  0.0000000E+00 -0.4136823E-03
 -0.5048636E-02  0.0000000E+00 -0.5050505E-02 -0.1434708E-07  0.0000000E+00 -0.4137114E-03
 -0.5047442E-02  0.0000000E+00 -0.5050505E-02 -0.1522585E-07  0.0000000E+00 -0.4137425E-03
 -0.5045727E-02  0.0000000E+00 -0.5050505E-02 -0.1607370E-07  0.0000000E+00 -0.4137753E-03
 -0.5043261E-02  0.0000000E+00 -0.5050505E-02 -0.1689401E-07  0.0000000E+00 -0.4138099E-03
 -0.5038714E-02  0.0000000E+00 -0.5050505E-02 -0.1769213E-07  0.0000000E+00 -0.4138462E-03
 -0.5032318E-02  0.0000000E+00 -0.5050505E-02 -0.1847579E-07  0.0000000E+00 -0.4138841E-03
 -0.5022454E-02  0.0000000E+00 -0.5050505E-02 -0.1925562E-07  0.0000000E+00 -0.4139237E-03
 -0.5012589E-02  0.0000000E+00 -0.5050505E-02 -0.2004586E-07  0.0000000E+00 -0.4139649E-03
 -0.5002725E-02  0.0000000E+00 -0.5050505E-02 -0.2086529E-07  0.0000000E+00 -0.4140079E-03
 -0.4992860E-02  0.0000000E+00 -0.5050505E-02 -0.2173849E-07  0.0000000E+00 -0.4140526E-03
 -0.4976523E-02  0.0000000E+00 -0.5050505E-02 -0.2269766E-07  0.0000000E+00 -0.4140992E-03
 -0.4956794E-02  0.0000000E+00 -0.5050505E-02 -0.2378508E-07  0.0000000E+00 -0.4141480E-03
 -0.4937066E-02  0.0000000E+00 -0.5050505E-02 -0.2505671E-07  0.0000000E+00 -0.4141992E-03
 -0.4906239E-02  0.0000000E+00 -0.5050505E-02 -0.2658743E-07  0.0000000E+00 -0.4142534E-03
 -0.4866782E-02  0.0000000E+00 -0.5050505E-02 -0.2847879E-07  0.0000000E+00 -0.4143112E-03
 -0.4827325E-02  0.0000000E+00 -0.5050505E-02 -0.3087070E-07  0.0000000E+00 -0.4143735E-03
 -0.4769372E-02  0.0000000E+00 -0.5050505E-02 -0.3395968E-07  0.0000000E+00 -0.4144415E-03
 -0.4690458E-02  0.0000000E+00 -0.5050505E-02 -0.3802762E-07  0.0000000E+00 -0.4145170E-03
 -0.4611543E-02  0.0000000E+00 -0.5050505E-02 -0.4348887E-07  0.0000000E+00 -0.4146026E-03
 -0.4503035E-02  0.0000000E+00 -0.5050505E-02 -0.5096958E-07  0.0000000E+00 -0.4147017E-03
 -0.4345206E-02  0.0000000E+00 -0.5050505E-02 -0.6144630E-07  0.0000000E+00 -0.4148196E-03
 -0.4187378E-02  0.0000000E+00 -0.5050505E-02 -0.7649873E-07  0.0000000E+00 -0.4149644E-03
 -0.3985156E-02  0.0000000E+00 -0.5050505E-02 -0.9879322E-07  0.0000000E+00 -0.4151483E-03
 -0.3669499E-02  0.0000000E+00 -0.5050505E-02 -0.1330613E-06  0.0000000E+00 -0.4153916E-03
 -0.3353842E-02  0.0000000E+00 -0.5050505E-02 -0.1882136E-06  0.0000000E+00 -0.4157288E-03
 -0.2978990E-02  0.0000000E+00 -0.5050505E-02 -0.2822650E-06  0.0000000E+00 -0.4162225E-03
 -0.2347676E-02  0.0000000E+00 -0.5050505E-02 -0.4548269E-06  0.0000000E+00 -0.4169961E-03
 -0.1716362E-02  0.0000000E+00 -0.5050505E-02 -0.8018828E-06  0.0000000E+00 -0.4183151E-03
 -0.1025842E-02  0.0000000E+00 -0.5050505E-02 -0.1582421E-05  0.0000000E+00 -0.4208180E-03
  0.2367855E-03  0.0000000E+00 -0.5050505E-02 -0.3577827E-05  0.0000000E+00 -0.4262367E-03
  0.1499413E-02  0.0000000E+00 -0.5050505E-02 -0.9413201E-05  0.0000000E+00 -0.4398877E-03
  0.5287294E-02  0.0000000E+00 -0.5050505E-02 -0.1547282E-03  0.0000000E+00 -0.3507751E-03
 -0.5050505E-02  0.0000000E+00 -0.5050505E-02  0.1131581E-08  0.0000000E+00 -0.4142554E-03
 -0.5050505E-02  0.0000000E+00 -0.5050505E-02  0.3392366E-08  0.0000000E+00 -0.4142539E-03
 -0.5050505E-02  0.0000000E+00 -0.5050505E-02  0.5645436E-08  0.0000000E+00 -0.4142507E-03
 -0.5050505E-02  0.0000000E+00 -0.5050505E-02  0.7885584E-08  0.0000000E+00 -0.4142459E-03
 -0.5050505E-02  0.0000000E+00 -0.5050505E-02  0.1010765E-07  0.0000000E+00 -0.4142396E-03
 -0.5050505E-02  0.0000000E+00 -0.5050505E-02  0.1230647E-07  0.0000000E+00 -0.4142317E-03
 -0.5050504E-02  0.0000000E+00 -0.5050505E-02  0.1447686E-07  0.0000000E+00 -0.4142223E-03
 -0.5050501E-02  0.0000000E+00 -0.5050505E-02  0.1661359E-07  0.0000000E+00 -0.4142113E-03
 -0.5050495E-02  0.0000000E+00 -0.5050505E-02  0.1871147E-07  0.0000000E+00 -0.4141989E-03
 -0.5050482E-02  0.0000000E+00 -0.5050505E-02  0.2076525E-07  0.0000000E+00 -0.4141850E-03
 -0.5050449E-02  0.0000000E+00 -0.5050505E-02  0.2276969E-07  0.0000000E+00 -0.4141697E-03
 -0.5050376E-02  0.0000000E+00 -0.5050505E-02  0.2471953E-07  0.0000000E+00 -0.4141530E-03
 -0.5050299E-02  0.0000000E+00 -0.5050505E-02  0.2660949E-07  0.0000000E+00 -0.4141349E-03
 -0.5050178E-02  0.0000000E+00 -0.5050505E-02  0.2843430E-07  0.0000000E+00 -0.4141156E-03
 -0.5050018E-02  0.0000000E+00 -0.5050505E-02  0.3018866E-07  0.0000000E+00 -0.4140949E-03
 -0.5049710E-02  0.0000000E+00 -0.5050505E-02  0.3186730E-07  0.0000000E+00 -0.4140731E-03
 -0.5049253E-02  0.0000000E+00 -0.5050505E-02  0.3346494E-07  0.0000000E+00 -0.4140501E-03
 -0.5048636E-02  0.0000000E+00 -0.5050505E-02  0.3497632E-07  0.0000000E+00 -0.4140260E-03
 -0.5047442E-02  0.0000000E+00 -0.5050505E-02  0.3639619E-07  0.0000000E+00 -0.4140009E-03
 -0.5045727E-02  0.0000000E+00 -0.5050505E-02  0.3771936E-07  0.0000000E+00 -0.4139748E-03
 -0.5043261E-02  0.0000000E+00 -0.5050505E-02  0.3894067E-07  0.0000000E+00 -0.4139478E-03
 -0.5038714E-02  0.0000000E+00 -0.5050505E-02  0.4005502E-07  0.0000000E+00 -0.4139200E-03
 -0.5032318E-02  0.0000000E+00 -0.5050505E-02  0.4105740E-07  0.0000000E+00 -0.4138915E-03
 -0.5022454E-02  0.0000000E+00 -0.5050505E-02  0.4194286E-07  0.0000000E+00 -0.4138623E-03
 -0.5012589E-02  0.0000000E+00 -0.5050505E-02  0.4270661E-07  0.0000000E+00 -0.4138325E-03
 -0.5002725E-02  0.0000000E+00 -0.5050505E-02  0.4334394E-07  0.0000000E+00 -0.4138022E-03
 -0.4992860E-02  0.0000000E+00 -0.5050505E-02  0.4385033E-07  0.0000000E+00 -0.4137715E-03
 -0.4976523E-02  0.0000000E+00 -0.5050505E-02  0.4422143E-07  0.0000000E+00 -0.4137404E-03
 -0.4956794E-02  0.0000000E+00 -0.5050505E-02  0.4445308E-07  0.0000000E+00 -0.4137092E-03
 -0.4937066E-02  0.0000000E+00 -0.5050505E-02  0.4454136E-07  0.0000000E+00 -0.4136779E-03
 -0.4906239E-02  0.0000000E+00 -0.5050505E-02  0.4448262E-07  0.0000000E+00 -0.4136465E-03
 -0.4866782E-02  0.0000000E+00 -0.5050505E-02  0.4427350E-07  0.0000000E+00 -0.4136153E-03
 -0.4827325E-02  0.0000000E+00 -0.5050505E-02  0.4391097E-07  0.0000000E+00 -0.4135842E-03
 -0.4769372E-02  0.0000000E+00 -0.5050505E-02  0.4339237E-07  0.0000000E+00 -0.4135534E-03
 -0.4690458E-02  0.0000000E+00 -0.5050505E-02  0.4271546E-07  0.0000000E+00 -0.4135231E-03
 -0.4611543E-02  0.0000000E+00 -0.5050505E-02  0.4187844E-07  0.0000000E+00 -0.4134933E-03
 -0.4503035E-02  0.0000000E+00 -0.5050505E-02  0.4088000E-07  0.0000000E+00 -0.4134641E-03
 -0.4345206E-02  0.0000000E+00 -0.5050505E-02  0.3971939E-07  0.0000000E+00 -0.4134357E-03
 -0.4187378E-02  0.0000000E+00 -0.5050505E-02  0.3839644E-07  0.0000000E+00 -0.4134081E-03
 -0.3985156E-02  0.0000000E+00 -0.5050505E-02  0.3691162E-07  0.0000000E+00 -0.4133816E-03
 -0.3669499E-02  0.0000000E+00 -0.5050505E-02  0.3526608E-07  0.0000000E+00 -0.4133561E-03
 -0.3353842E-02  0.0000000E+00 -0.5050505E-02  0.3346174E-07  0.0000000E+00 -0.4133319E-03
 -0.2978990E-02  0.0000000E+00 -0.5050505E-02  0.3150127E-07  0.0000000E+00 -0.4133090E-03
 -0.2347676E-02  0.0000000E+00 -0.5050505E-02  0.2938821E-07  0.0000000E+00 -0.4132875E-03
 -0.1716362E-02  0.0000000E+00 -0.5050505E-02  0.2712695E-07  0.0000000E+00 -0.4132675E-03
 -0.1025842E-02  0.0000000E+00 -0.5050505E-02  0.2472281E-07  0.0000000E+00 -0.4132492E-03
  0.2367855E-03  0.0000000E+00 -0.5050505E-02  0.2218206E-07  0.0000000E+00 -0.4132326E-03
  0.1499413E-02  0.0000000E+00 -0.5050505E-02  0.1951192E-07  0.0000000E+00 -0.4132179E-03
  0.2762042E-02  0.0000000E+00 -0.5050505E-02  0.1672063E-07  0.0000000E+00 -0.4132051E-03
 -0.5050505E-02  0.0000000E+00 -0.5050505E-02  0.1381738E-07  0.0000000E+00 -0.4131942E-03
 -0.5050505E-02  0.0000000E+00 -0.5050505E-02  0.1081235E-07  0.0000000E+00 -0.4131855E-03
 -0.5050505E-02  0.0000000E+00 -0.5050505E-02  0.7716647E-08  0.0000000E+00 -0.4131789E-03
 -0.5050505E-02  0.0000000E+00 -0.5050505E-02  0.4542276E-08  0.0000000E+00 -0.4131745E-03
 -0.5050505E-02  0.0000000E+00 -0.5050505E-02  0.1302047E-08  0.0000000E+00 -0.4131724E-03
 -0.5050505E-02  0.0000000E+00 -0.5050505E-02 -0.1990497E-08  0.0000000E+00 -0.4131726E-03
 -0.5050505E-02  0.0000000E+00 -0.5050505E-02 -0.5321221E-08  0.0000000E+00 -0.4131751E-03
 -0.5050504E-02  0.0000000E+00 -0.5050505E-02 -0.8675514E-08  0.0000000E+00 -0.4131800E-03
 -0.5050501E-02  0.0000000E+00 -0.5050505E-02 -0.1203848E-07  0.0000000E+00 -0.4131872E-03
 -0.5050495E-02  0.0000000E+00 -0.5050505E-02 -0.1539513E-07  0.0000000E+00 -0.4131968E-03
 -0.5050482E-02  0.0000000E+00 -0.5050505E-02 -0.1873059E-07  0.0000000E+00 -0.4132088E-03
 -0.5050449E-02  0.0000000E+00 -0.5050505E-02 -0.2203036E-07  0.0000000E+00 -0.4132231E-03
 -0.5050376E-02  0.0000000E+00 -0.5050505E-02 -0.2528057E-07  0.0000000E+00 -0.4132397E-03
 -0.5050299E-02  0.0000000E+00 -0.5050505E-02 -0.2846828E-07  0.0000000E+00 -0.4132586E-03
 -0.5050178E-02  0.0000000E+00 -0.5050505E-02 -0.3158186E-07  0.0000000E+00 -0.4132797E-03
 -0.5050018E-02  0.0000000E+00 -0.5050505E-02 -0.3461124E-07  0.0000000E+00 -0.4133029E-03
 -0.5049710E-02  0.0000000E+00 -0.5050505E-02 -0.3754840E-07  0.0000000E+00 -0.4133283E-03
 -0.5049253E-02  0.0000000E+00 -0.5050505E-02 -0.4038773E-07  0.0000000E+00 -0.4133557E-03
 -0.5048636E-02  0.0000000E+00 -0.5050505E-02 -0.4312657E-07  0.0000000E+00 -0.4133850E-03
 -0.5047442E-02  0.0000000E+00 -0.5050505E-02 -0.4576570E-07  0.0000000E+00 -0.4134162E-03
 -0.5045727E-02  0.0000000E+00 -0.5050505E-02 -0.4831003E-07  0.0000000E+00 -0.4134493E-03
 -0.5043261E-02  0.0000000E+00 -0.5050505E-02 -0.5076934E-07  0.0000000E+00 -0.4134841E-03
 -0.5038714E-02  0.0000000E+00 -0.5050505E-02 -0.5315927E-07  0.0000000E+00 -0.4135206E-03
 -0.5032318E-02  0.0000000E+00 -0.5050505E-02 -0.5550245E-07  0.0000000E+00 -0.4135587E-03
 -0.5022454E-02  0.0000000E+00 -0.5050505E-02 -0.5783008E-07  0.0000000E+00 -0.4135985E-03
 -0.5012589E-02  0.0000000E+00 -0.5050505E-02 -0.6018394E-07  0.0000000E+00 -0.4136399E-03
 -0.5002725E-02  0.0000000E+00 -0.5050505E-02 -0.6261911E-07  0.0000000E+00 -0.4136829E-03
 -0.4992860E-02  0.0000000E+00 -0.5050505E-02 -0.6520763E-07  0.0000000E+00 -0.4137277E-03
 -0.4976523E-02  0.0000000E+00 -0.5050505E-02 -0.6804362E-07  0.0000000E+00 -0.4137743E-03
 -0.4956794E-02  0.0000000E+00 -0.5050505E-02 -0.7125046E-07  0.0000000E+00 -0.4138229E-03
 -0.4937066E-02  0.0000000E+00 -0.5050505E-02 -0.7499098E-07  0.0000000E+00 -0.4138739E-03
 -0.4906239E-02  0.0000000E+00 -0.5050505E-02 -0.7948232E-07  0.0000000E+00 -0.4139277E-03
 -0.4866782E-02  0.0000000E+00 -0.5050505E-02 -0.8501776E-07  0.0000000E+00 -0.4139848E-03
 -0.4827325E-02  0.0000000E+00 -0.5050505E-02 -0.9199956E-07  0.0000000E+00 -0.4140460E-03
 -0.4769372E-02  0.0000000E+00 -0.5050505E-02 -0.1009894E-06  0.0000000E+00 -0.4141125E-03
 -0.4690458E-02  0.0000000E+00 -0.5050505E-02 -0.1127878E-06  0.0000000E+00 -0.4141858E-03
 -0.4611543E-02  0.0000000E+00 -0.5050505E-02 -0.1285614E-06  0.0000000E+00 -0.4142681E-03
 -0.4503035E-02  0.0000000E+00 -0.5050505E-02 -0.1500554E-06  0.0000000E+00 -0.4143623E-03
 -0.4345206E-02  0.0000000E+00 -0.5050505E-02 -0.1799570E-06  0.0000000E+00 -0.4144728E-03
 -0.4187378E-02  0.0000000E+00 -0.5050505E-02 -0.2225415E-06  0.0000000E+00 -0.4146058E-03
 -0.3985156E-02  0.0000000E+00 -0.5050505E-02 -0.2848705E-06  0.0000000E+00 -0.4147705E-03
 -0.3669499E-02  0.0000000E+00 -0.5050505E-02 -0.3791145E-06  0.0000000E+00 -0.4149809E-03
 -0.3353842E-02  0.0000000E+00 -0.5050505E-02 -0.5272942E-06  0.0000000E+00 -0.4152581E-03
 -0.2978990E-02  0.0000000E+00 -0.5050505E-02 -0.7715110E-06  0.0000000E+00 -0.4156342E-03
 -0.2347676E-02  0.0000000E+00 -0.5050505E-02 -0.1197370E-05  0.0000000E+00 -0.4161543E-03
 -0.1716362E-02  0.0000000E+00 -0.5050505E-02 -0.1990987E-05  0.0000000E+00 -0.4168645E-03
 -0.1025842E-02  0.0000000E+00 -0.5050505E-02 -0.3586242E-05  0.0000000E+00 -0.4177174E-03
  0.2367855E-03  0.0000000E+00 -0.5050505E-02 -0.7066249E-05  0.0000000E+00 -0.4180773E-03
  0.1499413E-02  0.0000000E+00 -0.5050505E-02 -0.1530637E-04  0.0000000E+00 -0.4143328E-03
  0.5287294E-02  0.0000000E+00 -0.5050505E-02 -0.3631570E-04  0.0000000E+00 -0.3886141E-03
 -0.5050505E-02  0.0000000E+00 -0.5050505E-02  0.1895626E-08  0.0000000E+00 -0.4136403E-03
 -0.5050505E-02  0.0000000E+00 -0.5050505E-02  0.5682819E-08  0.0000000E+00 -0.4136387E-03
 -0.5050505E-02  0.0000000E+00 -0.5050505E-02  0.9457137E-08  0.0000000E+00 -0.4136355E-03
 -0.5050505E-02  0.0000000E+00 -0.5050505E-02  0.1320988E-07  0.0000000E+00 -0.4136306E-03
 -0.5050505E-02  0.0000000E+00 -0.5050505E-02  0.1693244E-07  0.0000000E+00 -0.4136242E-03
 -0.5050505E-02  0.0000000E+00 -0.5050505E-02  0.2061617E-07  0.0000000E+00 -0.4136162E-03
 -0.5050504E-02  0.0000000E+00 -0.5050505E-02  0.2425241E-07  0.0000000E+00 -0.4136066E-03
 -0.5050501E-02  0.0000000E+00 -0.5050505E-02  0.2783245E-07  0.0000000E+00 -0.4135955E-03
 -0.5050495E-02  0.0000000E+00 -0.5050505E-02  0.3134758E-07  0.0000000E+00 -0.4135829E-03
 -0.5050482E-02  0.0000000E+00 -0.5050505E-02  0.3478907E-07  0.0000000E+00 -0.4135687E-03
 -0.5050449E-02  0.0000000E+00 -0.5050505E-02  0.3814813E-07  0.0000000E+00 -0.4135532E-03
 -0.5050376E-02  0.0000000E+00 -0.5050505E-02  0.4141598E-07  0.0000000E+00 -0.4135362E-03
 -0.5050299E-02  0.0000000E+00 -0.5050505E-02  0.4458381E-07  0.0000000E+00 -0.4135178E-03
 -0.5050178E-02  0.0000000E+00 -0.5050505E-02  0.4764278E-07  0.0000000E+00 -0.4134981E-03
 -0.5050018E-02  0.0000000E+00 -0.5050505E-02  0.5058405E-07  0.0000000E+00 -0.4134771E-03
 -0.5049710E-02  0.0000000E+00 -0.5050505E-02  0.5339880E-07  0.0000000E+00 -0.4134549E-03
 -0.5049253E-02  0.0000000E+00 -0.5050505E-02  0.5607818E-07  0.0000000E+00 -0.4134315E-03
 -0.5048636E-02  0.0000000E+00 -0.5050505E-02  0.5861339E-07  0.0000000E+00 -0.4134070E-03
 -0.5047442E-02  0.0000000E+00 -0.5050505E-02  0.6099568E-07  0.0000000E+00 -0.4133815E-03
 -0.5045727E-02  0.0000000E+00 -0.5050505E-02  0.6321631E-07  0.0000000E+00 -0.4133549E-03
 -0.5043261E-02  0.0000000E+00 -0.5050505E-02  0.6526667E-07  0.0000000E+00 -0.4133274E-03
 -0.5038714E-02  0.0000000E+00 -0.5050505E-02  0.6713820E-07  0.0000000E+00 -0.4132991E-03
 -0.5032318E-02  0.0000000E+00 -0.5050505E-02  0.6882249E-07  0.0000000E+00 -0.4132701E-03
 -0.5022454E-02  0.0000000E+00 -0.5050505E-02  0.7031128E-07  0.0000000E+00 -0.4132403E-03
 -0.5012589E-02  0.0000000E+00 -0.5050505E-02  0.7159648E-07  0.0000000E+00 -0.4132100E-03
 -0.5002725E-02  0.0000000E+00 -0.5050505E-02  0.7267023E-07  0.0000000E+00 -0.4131791E-03
 -0.4992860E-02  0.0000000E+00 -0.5050505E-02  0.7352492E-07  0.0000000E+00 -0.4131478E-03
 -0.4976523E-02  0.0000000E+00 -0.5050505E-02  0.7415322E-07  0.0000000E+00 -0.4131162E-03
 -0.4956794E-02  0.0000000E+00 -0.5050505E-02  0.7454815E-07  0.0000000E+00 -0.4130844E-03
 -0.4937066E-02  0.0000000E+00 -0.5050505E-02  0.7470312E-07  0.0000000E+00 -0.4130524E-03
 -0.4906239E-02  0.0000000E+00 -0.5050505E-02  0.7461195E-07  0.0000000E+00 -0.4130204E-03
 -0.4866782E-02  0.0000000E+00 -0.5050505E-02  0.7426898E-07  0.0000000E+00 -0.4129885E-03
 -0.4827325E-02  0.0000000E+00 -0.5050505E-02  0.7366909E-07  0.0000000E+00 -0.4129568E-03
 -0.4769372E-02  0.0000000E+00 -0.5050505E-02  0.7280775E-07  0.0000000E+00 -0.4129254E-03
 -0.4690458E-02  0.0000000E+00 -0.5050505E-02  0.7168115E-07  0.0000000E+00 -0.4128944E-03
 -0.4611543E-02  0.0000000E+00 -0.5050505E-02  0.7028620E-07  0.0000000E+00 -0.4128639E-03
 -0.4503035E-02  0.0000000E+00 -0.5050505E-02  0.6862066E-07  0.0000000E+00 -0.4128341E-03
 -0.4345206E-02  0.0000000E+00 -0.5050505E-02  0.6668316E-07  0.0000000E+00 -0.4128051E-03
 -0.4187378E-02  0.0000000E+00 -0.5050505E-02  0.6447335E-07  0.0000000E+00 -0.4127769E-03
 -0.3985156E-02  0.0000000E+00 -0.5050505E-02  0.6199193E-07  0.0000000E+00 -0.4127497E-03
 -0.3669499E-02  0.0000000E+00 -0.5050505E-02  0.5924076E-07  0.0000000E+00 -0.4127236E-03
 -0.3353842E-02  0.0000000E+00 -0.5050505E-02  0.5622293E-07  0.0000000E+00 -0.4126988E-03
 -0.2978990E-02  0.0000000E+00 -0.5050505E-02  0.5294285E-07  0.0000000E+00 -0.4126753E-03
 -0.2347676E-02  0.0000000E+00 -0.5050505E-02  0.4940635E-07  0.0000000E+00 -0.4126532E-03
 -0.1716362E-02  0.0000000E+00 -0.5050505E-02  0.4562070E-07  0.0000000E+00 -0.4126327E-03
 -0.1025842E-02  0.0000000E+00 -0.5050505E-02  0.4159474E-07  0.0000000E+00 -0.4126139E-03
  0.2367855E-03  0.0000000E+00 -0.5050505E-02  0.3733891E-07  0.0000000E+00 -0.4125968E-03
  0.1499413E-02  0.0000000E+00 -0.5050505E-02  0.3286526E-07  0.0000000E+00 -0.4125816E-03
  0.2762042E-02  0.0000000E+00 -0.5050505E-02  0.2818752E-07  0.0000000E+00 -0.4125683E-03
 -0.5050505E-02  0.0000000E+00 -0.5050505E-02  0.2332110E-07  0.0000000E+00 -0.4125571E-03
 -0.5050505E-02  0.0000000E+00 -0.5050505E-02  0.1828304E-07  0.0000000E+00 -0.4125480E-03
 -0.5050505E-02  0.0000000E+00 -0.5050505E-02  0.1309197E-07  0.0000000E+00 -0.4125411E-03
 -0.5050505E-02  0.0000000E+00 -0.5050505E-02  0.7768048E-08  0.0000000E+00 -0.4125365E-03
 -0.5050505E-02  0.0000000E+00 -0.5050505E-02  0.2332813E-08  0.0000000E+00 -0.4125341E-03
 -0.5050505E-02  0.0000000E+00 -0.5050505E-02 -0.3190934E-08  0.0000000E+00 -0.4125341E-03
 -0.5050505E-02  0.0000000E+00 -0.5050505E-02 -0.8779369E-08  0.0000000E+00 -0.4125365E-03
 -0.5050504E-02  0.0000000E+00 -0.5050505E-02 -0.1440784E-07  0.0000000E+00 -0.4125413E-03
 -0.5050501E-02  0.0000000E+00 -0.5050505E-02 -0.2005119E-07  0.0000000E+00 -0.4125485E-03
 -0.5050495E-02  0.0000000E+00 -0.5050505E-02 -0.2568403E-07  0.0000000E+00 -0.4125581E-03
 -0.5050482E-02  0.0000000E+00 -0.5050505E-02 -0.3128117E-07  0.0000000E+00 -0.4125701E-03
 -0.5050449E-02  0.0000000E+00 -0.5050505E-02 -0.3681799E-07  0.0000000E+00 -0.4125846E-03
 -0.5050376E-02  0.0000000E+00 -0.5050505E-02 -0.4227090E-07  0.0000000E+00 -0.4126013E-03
 -0.5050299E-02  0.0000000E+00 -0.5050505E-02 -0.4761782E-07  0.0000000E+00 -0.4126204E-03
 -0.5050178E-02  0.0000000E+00 -0.5050505E-02 -0.5283880E-07  0.0000000E+00 -0.4126418E-03
 -0.5050018E-02  0.0000000E+00 -0.5050505E-02 -0.5791651E-07  0.0000000E+00 -0.4126653E-03
 -0.5049710E-02  0.0000000E+00 -0.5050505E-02 -0.6283693E-07  0.0000000E+00 -0.4126910E-03
 -0.5049253E-02  0.0000000E+00 -0.5050505E-02 -0.6759006E-07  0.0000000E+00 -0.4127188E-03
 -0.5048636E-02  0.0000000E+00 -0.5050505E-02 -0.7217070E-07  0.0000000E+00 -0.4127485E-03
 -0.5047442E-02  0.0000000E+00 -0.5050505E-02 -0.7657935E-07  0.0000000E+00 -0.4127802E-03
 -0.5045727E-02  0.0000000E+00 -0.5050505E-02 -0.8082322E-07  0.0000000E+00 -0.4128137E-03
 -0.5043261E-02  0.0000000E+00 -0.5050505E-02 -0.8491748E-07  0.0000000E+00 -0.4128489E-03
 -0.5038714E-02  0.0000000E+00 -0.5050505E-02 -0.8888680E-07  0.0000000E+00 -0.4128858E-03
 -0.5032318E-02  0.0000000E+00 -0.5050505E-02 -0.9276714E-07  0.0000000E+00 -0.4129244E-03
 -0.5022454E-02  0.0000000E+00 -0.5050505E-02 -0.9660826E-07  0.0000000E+00 -0.4129645E-03
 -0.5012589E-02  0.0000000E+00 -0.5050505E-02 -0.1004768E-06  0.0000000E+00 -0.4130062E-03
 -0.5002725E-02  0.0000000E+00 -0.5050505E-02 -0.1044605E-06  0.0000000E+00 -0.4130494E-03
 -0.4992860E-02  0.0000000E+00 -0.5050505E-02 -0.1086739E-06  0.0000000E+00 -0.4130943E-03
 -0.4976523E-02  0.0000000E+00 -0.5050505E-02 -0.1132661E-06  0.0000000E+00 -0.4131409E-03
 -0.4956794E-02  0.0000000E+00 -0.5050505E-02 -0.1184316E-06  0.0000000E+00 -0.4131893E-03
 -0.4937066E-02  0.0000000E+00 -0.5050505E-02 -0.1244258E-06  0.0000000E+00 -0.4132398E-03
 -0.4906239E-02  0.0000000E+00 -0.5050505E-02 -0.1315871E-06  0.0000000E+00 -0.4132928E-03
 -0.4866782E-02  0.0000000E+00 -0.5050505E-02 -0.1403687E-06  0.0000000E+00 -0.4133486E-03
 -0.4827325E-02  0.0000000E+00 -0.5050505E-02 -0.1513865E-06  0.0000000E+00 -0.4134079E-03
 -0.4769372E-02  0.0000000E+00 -0.5050505E-02 -0.1654913E-06  0.0000000E+00 -0.4134716E-03
 -0.4690458E-02  0.0000000E+00 -0.5050505E-02 -0.1838789E-06  0.0000000E+00 -0.4135408E-03
 -0.4611543E-02  0.0000000E+00 -0.5050505E-02 -0.2082646E-06  0.0000000E+00 -0.4136170E-03
 -0.4503035E-02  0.0000000E+00 -0.5050505E-02 -0.2411634E-06  0.0000000E+00 -0.4137023E-03
 -0.4345206E-02  0.0000000E+00 -0.5050505E-02 -0.2863523E-06  0.0000000E+00 -0.4137995E-03
 -0.4187378E-02  0.0000000E+00 -0.5050505E-02 -0.3496533E-06  0.0000000E+00 -0.4139120E-03
 -0.3985156E-02  0.0000000E+00 -0.5050505E-02 -0.4402961E-06  0.0000000E+00 -0.4140443E-03
 -0.3669499E-02  0.0000000E+00 -0.5050505E-02 -0.5733478E-06  0.0000000E+00 -0.4142017E-03
 -0.3353842E-02  0.0000000E+00 -0.5050505E-02 -0.7741445E-06  0.0000000E+00 -0.4143885E-03
 -0.2978990E-02  0.0000000E+00 -0.5050505E-02 -0.1086462E-05  0.0000000E+00 -0.4146040E-03
 -0.2347676E-02  0.0000000E+00 -0.5050505E-02 -0.1587383E-05  0.0000000E+00 -0.4148270E-03
 -0.1716362E-02  0.0000000E+00 -0.5050505E-02 -0.2412417E-05  0.0000000E+00 -0.4149745E-03
 -0.1025842E-02  0.0000000E+00 -0.5050505E-02 -0.3786861E-05  0.0000000E+00 -0.4147871E-03
  0.2367855E-03  0.0000000E+00 -0.5050505E-02 -0.6004747E-05  0.0000000E+00 -0.4135530E-03
  0.1499413E-02  0.0000000E+00 -0.5050505E-02 -0.9009126E-05  0.0000000E+00 -0.4096578E-03
  0.5287294E-02  0.0000000E+00 -0.5050505E-02 -0.9857586E-05  0.0000000E+00 -0.4013767E-03
 -0.5050505E-02  0.0000000E+00 -0.5050505E-02  0.2674287E-08  0.0000000E+00 -0.4127410E-03
 -0.5050505E-02  0.0000000E+00 -0.5050505E-02  0.8017088E-08  0.0000000E+00 -0.4127394E-03
 -0.5050505E-02  0.0000000E+00 -0.5050505E-02  0.1334181E-07  0.0000000E+00 -0.4127361E-03
 -0.5050505E-02  0.0000000E+00 -0.5050505E-02  0.1863625E-07  0.0000000E+00 -0.4127311E-03
 -0.5050505E-02  0.0000000E+00 -0.5050505E-02  0.2388829E-07  0.0000000E+00 -0.4127245E-03
 -0.5050505E-02  0.0000000E+00 -0.5050505E-02  0.2908581E-07  0.0000000E+00 -0.4127163E-03
 -0.5050504E-02  0.0000000E+00 -0.5050505E-02  0.3421664E-07  0.0000000E+00 -0.4127065E-03
 -0.5050501E-02  0.0000000E+00 -0.5050505E-02  0.3926853E-07  0.0000000E+00 -0.4126951E-03
 -0.5050495E-02  0.0000000E+00 -0.5050505E-02  0.4422926E-07  0.0000000E+00 -0.4126822E-03
 -0.5050482E-02  0.0000000E+00 -0.5050505E-02  0.4908654E-07  0.0000000E+00 -0.4126677E-03
 -0.5050449E-02  0.0000000E+00 -0.5050505E-02  0.5382803E-07  0.0000000E+00 -0.4126518E-03
 -0.5050376E-02  0.0000000E+00 -0.5050505E-02  0.5844138E-07  0.0000000E+00 -0.4126343E-03
 -0.5050299E-02  0.0000000E+00 -0.5050505E-02  0.6291419E-07  0.0000000E+00 -0.4126155E-03
 -0.5050178E-02  0.0000000E+00 -0.5050505E-02  0.6723405E-07  0.0000000E+00 -0.4125953E-03
 -0.5050018E-02  0.0000000E+00 -0.5050505E-02  0.7138851E-07  0.0000000E+00 -0.4125738E-03
 -0.5049710E-02  0.0000000E+00 -0.5050505E-02  0.7536513E-07  0.0000000E+00 -0.4125511E-03
 -0.5049253E-02  0.0000000E+00 -0.5050505E-02  0.7915149E-07  0.0000000E+00 -0.4125271E-03
 -0.5048636E-02  0.0000000E+00 -0.5050505E-02  0.8273517E-07  0.0000000E+00 -0.4125020E-03
 -0.5047442E-02  0.0000000E+00 -0.5050505E-02  0.8610383E-07  0.0000000E+00 -0.4124757E-03
 -0.5045727E-02  0.0000000E+00 -0.5050505E-02  0.8924518E-07  0.0000000E+00 -0.4124485E-03
 -0.5043261E-02  0.0000000E+00 -0.5050505E-02  0.9214704E-07  0.0000000E+00 -0.4124203E-03
 -0.5038714E-02  0.0000000E+00 -0.5050505E-02  0.9479736E-07  0.0000000E+00 -0.4123913E-03
 -0.5032318E-02  0.0000000E+00 -0.5050505E-02  0.9718425E-07  0.0000000E+00 -0.4123614E-03
 -0.5022454E-02  0.0000000E+00 -0.5050505E-02  0.9929604E-07  0.0000000E+00 -0.4123309E-03
 -0.5012589E-02  0.0000000E+00 -0.5050505E-02  0.1011213E-06  0.0000000E+00 -0.4122997E-03
 -0.5002725E-02  0.0000000E+00 -0.5050505E-02  0.1026489E-06  0.0000000E+00 -0.4122680E-03
 -0.4992860E-02  0.0000000E+00 -0.5050505E-02  0.1038680E-06  0.0000000E+00 -0.4122358E-03
 -0.4976523E-02  0.0000000E+00 -0.5050505E-02  0.1047684E-06  0.0000000E+00 -0.4122033E-03
 -0.4956794E-02  0.0000000E+00 -0.5050505E-02  0.1053399E-06  0.0000000E+00 -0.4121706E-03
 -0.4937066E-02  0.0000000E+00 -0.5050505E-02  0.1055734E-06  0.0000000E+00 -0.4121377E-03