title = "dataset feddes"
variables = "x", "y", "z", "vx", "vy", "vz"
zone t = "velocities, solution time =  2.500E+01 days        " i =   99, j =   99, k =    1,  f=point
 -0.5050505E-02  0.0000000E+00 -0.5050505E-02  0.1821587E-08  0.0000000E+00 -0.3538978E-03
 -0.5050505E-02  0.0000000E+00 -0.5050505E-02  0.5463482E-08  0.0000000E+00 -0.3538902E-03
 -0.5050505E-02  0.0000000E+00 -0.5050505E-02  0.9101517E-08  0.0000000E+00 -0.3538750E-03
 -0.5050505E-02  0.0000000E+00 -0.5050505E-02  0.1273311E-07  0.0000000E+00 -0.3538522E-03
 -0.5050505E-02  0.0000000E+00 -0.5050505E-02  0.1635570E-07  0.0000000E+00 -0.3538219E-03
 -0.5050505E-02  0.0000000E+00 -0.5050505E-02  0.1996667E-07  0.0000000E+00 -0.3537841E-03
 -0.5050504E-02  0.0000000E+00 -0.5050505E-02  0.2356344E-07  0.0000000E+00 -0.3537387E-03
 -0.5050501E-02  0.0000000E+00 -0.5050505E-02  0.2714338E-07  0.0000000E+00 -0.3536859E-03
 -0.5050495E-02  0.0000000E+00 -0.5050505E-02  0.3070386E-07  0.0000000E+00 -0.3536256E-03
 -0.5050482E-02  0.0000000E+00 -0.5050505E-02  0.3424221E-07  0.0000000E+00 -0.3535579E-03
 -0.5050449E-02  0.0000000E+00 -0.5050505E-02  0.3775575E-07  0.0000000E+00 -0.3534828E-03
 -0.5050376E-02  0.0000000E+00 -0.5050505E-02  0.4124175E-07  0.0000000E+00 -0.3534005E-03
 -0.5050299E-02  0.0000000E+00 -0.5050505E-02  0.4469743E-07  0.0000000E+00 -0.3533109E-03
 -0.5050178E-02  0.0000000E+00 -0.5050505E-02  0.4811997E-07  0.0000000E+00 -0.3532142E-03
 -0.5050018E-02  0.0000000E+00 -0.5050505E-02  0.5150649E-07  0.0000000E+00 -0.3531104E-03
 -0.5049710E-02  0.0000000E+00 -0.5050505E-02  0.5485402E-07  0.0000000E+00 -0.3529995E-03
 -0.5049253E-02  0.0000000E+00 -0.5050505E-02  0.5815951E-07  0.0000000E+00 -0.3528817E-03
 -0.5048636E-02  0.0000000E+00 -0.5050505E-02  0.6141977E-07  0.0000000E+00 -0.3527571E-03
 -0.5047442E-02  0.0000000E+00 -0.5050505E-02  0.6463151E-07  0.0000000E+00 -0.3526258E-03
 -0.5045727E-02  0.0000000E+00 -0.5050505E-02  0.6779122E-07  0.0000000E+00 -0.3524878E-03
 -0.5043261E-02  0.0000000E+00 -0.5050505E-02  0.7089521E-07  0.0000000E+00 -0.3523432E-03
 -0.5038714E-02  0.0000000E+00 -0.5050505E-02  0.7393953E-07  0.0000000E+00 -0.3521923E-03
 -0.5032318E-02  0.0000000E+00 -0.5050505E-02  0.7691993E-07  0.0000000E+00 -0.3520351E-03
 -0.5022454E-02  0.0000000E+00 -0.5050505E-02  0.7983175E-07  0.0000000E+00 -0.3518718E-03
 -0.5012589E-02  0.0000000E+00 -0.5050505E-02  0.8266990E-07  0.0000000E+00 -0.3517024E-03
 -0.5002725E-02  0.0000000E+00 -0.5050505E-02  0.8542876E-07  0.0000000E+00 -0.3515273E-03
 -0.4992860E-02  0.0000000E+00 -0.5050505E-02  0.8810203E-07  0.0000000E+00 -0.3513465E-03
 -0.4976523E-02  0.0000000E+00 -0.5050505E-02  0.9068264E-07  0.0000000E+00 -0.3511602E-03
 -0.4956794E-02  0.0000000E+00 -0.5050505E-02  0.9316262E-07  0.0000000E+00 -0.3509686E-03
 -0.4937066E-02  0.0000000E+00 -0.5050505E-02  0.9553292E-07  0.0000000E+00 -0.3507720E-03
 -0.4906239E-02  0.0000000E+00 -0.5050505E-02  0.9778321E-07  0.0000000E+00 -0.3505706E-03
 -0.4866782E-02  0.0000000E+00 -0.5050505E-02  0.9990175E-07  0.0000000E+00 -0.3503646E-03
 -0.4827325E-02  0.0000000E+00 -0.5050505E-02  0.1018751E-06  0.0000000E+00 -0.3501544E-03
 -0.4769372E-02  0.0000000E+00 -0.5050505E-02  0.1036879E-06  0.0000000E+00 -0.3499403E-03
 -0.4690458E-02  0.0000000E+00 -0.5050505E-02  0.1053227E-06  0.0000000E+00 -0.3497225E-03
 -0.4611543E-02  0.0000000E+00 -0.5050505E-02  0.1067595E-06  0.0000000E+00 -0.3495016E-03
 -0.4503035E-02  0.0000000E+00 -0.5050505E-02  0.1079760E-06  0.0000000E+00 -0.3492779E-03
 -0.4345206E-02  0.0000000E+00 -0.5050505E-02  0.1089468E-06  0.0000000E+00 -0.3490519E-03
 -0.4187378E-02  0.0000000E+00 -0.5050505E-02  0.1096433E-06  0.0000000E+00 -0.3488242E-03
 -0.3985156E-02  0.0000000E+00 -0.5050505E-02  0.1100342E-06  0.0000000E+00 -0.3485954E-03
 -0.3669499E-02  0.0000000E+00 -0.5050505E-02  0.1100847E-06  0.0000000E+00 -0.3483661E-03
 -0.3353842E-02  0.0000000E+00 -0.5050505E-02  0.1097570E-06  0.0000000E+00 -0.3481371E-03
 -0.2978990E-02  0.0000000E+00 -0.5050505E-02  0.1090104E-06  0.0000000E+00 -0.3479092E-03
 -0.2347676E-02  0.0000000E+00 -0.5050505E-02  0.1078019E-06  0.0000000E+00 -0.3476834E-03
 -0.1716362E-02  0.0000000E+00 -0.5050505E-02  0.1060866E-06  0.0000000E+00 -0.3474606E-03
 -0.1025842E-02  0.0000000E+00 -0.5050505E-02  0.1038190E-06  0.0000000E+00 -0.3472420E-03
  0.2367855E-03  0.0000000E+00 -0.5050505E-02  0.1009541E-06  0.0000000E+00 -0.3470288E-03
  0.1499413E-02  0.0000000E+00 -0.5050505E-02  0.9744886E-07  0.0000000E+00 -0.3468221E-03
  0.2762042E-02  0.0000000E+00 -0.5050505E-02  0.9326444E-07  0.0000000E+00 -0.3466235E-03
 -0.5050505E-02  0.0000000E+00 -0.5050505E-02  0.8836809E-07  0.0000000E+00 -0.3464344E-03
 -0.5050505E-02  0.0000000E+00 -0.5050505E-02  0.8273574E-07  0.0000000E+00 -0.3462562E-03
 -0.5050505E-02  0.0000000E+00 -0.5050505E-02  0.7635444E-07  0.0000000E+00 -0.3460905E-03
 -0.5050505E-02  0.0000000E+00 -0.5050505E-02  0.6922493E-07  0.0000000E+00 -0.3459389E-03
 -0.5050505E-02  0.0000000E+00 -0.5050505E-02  0.6136381E-07  0.0000000E+00 -0.3458029E-03
 -0.5050505E-02  0.0000000E+00 -0.5050505E-02  0.5280542E-07  0.0000000E+00 -0.3456840E-03
 -0.5050505E-02  0.0000000E+00 -0.5050505E-02  0.4360294E-07  0.0000000E+00 -0.3455836E-03
 -0.5050504E-02  0.0000000E+00 -0.5050505E-02  0.3382870E-07  0.0000000E+00 -0.3455030E-03
 -0.5050501E-02  0.0000000E+00 -0.5050505E-02  0.2357343E-07  0.0000000E+00 -0.3454432E-03
 -0.5050495E-02  0.0000000E+00 -0.5050505E-02  0.1294453E-07  0.0000000E+00 -0.3454052E-03
 -0.5050482E-02  0.0000000E+00 -0.5050505E-02  0.2063198E-08  0.0000000E+00 -0.3453896E-03
 -0.5050449E-02  0.0000000E+00 -0.5050505E-02 -0.8939299E-08  0.0000000E+00 -0.3453967E-03
 -0.5050376E-02  0.0000000E+00 -0.5050505E-02 -0.1992599E-07  0.0000000E+00 -0.3454268E-03
 -0.5050299E-02  0.0000000E+00 -0.5050505E-02 -0.3075903E-07  0.0000000E+00 -0.3454796E-03
 -0.5050178E-02  0.0000000E+00 -0.5050505E-02 -0.4130440E-07  0.0000000E+00 -0.3455546E-03
 -0.5050018E-02  0.0000000E+00 -0.5050505E-02 -0.5143634E-07  0.0000000E+00 -0.3456512E-03
 -0.5049710E-02  0.0000000E+00 -0.5050505E-02 -0.6104116E-07  0.0000000E+00 -0.3457683E-03
 -0.5049253E-02  0.0000000E+00 -0.5050505E-02 -0.7002023E-07  0.0000000E+00 -0.3459048E-03
 -0.5048636E-02  0.0000000E+00 -0.5050505E-02 -0.7829205E-07  0.0000000E+00 -0.3460592E-03
 -0.5047442E-02  0.0000000E+00 -0.5050505E-02 -0.8579344E-07  0.0000000E+00 -0.3462301E-03
 -0.5045727E-02  0.0000000E+00 -0.5050505E-02 -0.9247981E-07  0.0000000E+00 -0.3464158E-03
 -0.5043261E-02  0.0000000E+00 -0.5050505E-02 -0.9832480E-07  0.0000000E+00 -0.3466145E-03
 -0.5038714E-02  0.0000000E+00 -0.5050505E-02 -0.1033193E-06  0.0000000E+00 -0.3468245E-03
 -0.5032318E-02  0.0000000E+00 -0.5050505E-02 -0.1074702E-06  0.0000000E+00 -0.3470440E-03
 -0.5022454E-02  0.0000000E+00 -0.5050505E-02 -0.1107989E-06  0.0000000E+00 -0.3472713E-03
 -0.5012589E-02  0.0000000E+00 -0.5050505E-02 -0.1133400E-06  0.0000000E+00 -0.3475048E-03
 -0.5002725E-02  0.0000000E+00 -0.5050505E-02 -0.1151399E-06  0.0000000E+00 -0.3477427E-03
 -0.4992860E-02  0.0000000E+00 -0.5050505E-02 -0.1162563E-06  0.0000000E+00 -0.3479837E-03
 -0.4976523E-02  0.0000000E+00 -0.5050505E-02 -0.1167576E-06  0.0000000E+00 -0.3482265E-03
 -0.4956794E-02  0.0000000E+00 -0.5050505E-02 -0.1167239E-06  0.0000000E+00 -0.3484696E-03
 -0.4937066E-02  0.0000000E+00 -0.5050505E-02 -0.1162485E-06  0.0000000E+00 -0.3487123E-03
 -0.4906239E-02  0.0000000E+00 -0.5050505E-02 -0.1154415E-06  0.0000000E+00 -0.3489537E-03
 -0.4866782E-02  0.0000000E+00 -0.5050505E-02 -0.1144350E-06  0.0000000E+00 -0.3491931E-03
 -0.4827325E-02  0.0000000E+00 -0.5050505E-02 -0.1133932E-06  0.0000000E+00 -0.3494305E-03
 -0.4769372E-02  0.0000000E+00 -0.5050505E-02 -0.1125267E-06  0.0000000E+00 -0.3496658E-03
 -0.4690458E-02  0.0000000E+00 -0.5050505E-02 -0.1121172E-06  0.0000000E+00 -0.3498999E-03
 -0.4611543E-02  0.0000000E+00 -0.5050505E-02 -0.1125572E-06  0.0000000E+00 -0.3501339E-03
 -0.4503035E-02  0.0000000E+00 -0.5050505E-02 -0.1144174E-06  0.0000000E+00 -0.3503704E-03
 -0.4345206E-02  0.0000000E+00 -0.5050505E-02 -0.1185655E-06  0.0000000E+00 -0.3506131E-03
 -0.4187378E-02  0.0000000E+00 -0.5050505E-02 -0.1263812E-06  0.0000000E+00 -0.3508683E-03
 -0.3985156E-02  0.0000000E+00 -0.5050505E-02 -0.1401692E-06  0.0000000E+00 -0.3511461E-03
 -0.3669499E-02  0.0000000E+00 -0.5050505E-02 -0.1639940E-06  0.0000000E+00 -0.3514630E-03
 -0.3353842E-02  0.0000000E+00 -0.5050505E-02 -0.2054822E-06  0.0000000E+00 -0.3518480E-03
 -0.2978990E-02  0.0000000E+00 -0.5050505E-02 -0.2800200E-06  0.0000000E+00 -0.3523539E-03
 -0.2347676E-02  0.0000000E+00 -0.5050505E-02 -0.4213900E-06  0.0000000E+00 -0.3530848E-03
 -0.1716362E-02  0.0000000E+00 -0.5050505E-02 -0.7113440E-06  0.0000000E+00 -0.3542654E-03
 -0.1025842E-02  0.0000000E+00 -0.5050505E-02 -0.1370111E-05  0.0000000E+00 -0.3564350E-03
  0.2367855E-03  0.0000000E+00 -0.5050505E-02 -0.3060696E-05  0.0000000E+00 -0.3610546E-03
  0.1499413E-02  0.0000000E+00 -0.5050505E-02 -0.8004229E-05  0.0000000E+00 -0.3725981E-03
  0.5287294E-02  0.0000000E+00 -0.5050505E-02 -0.1311850E-03  0.0000000E+00 -0.2972318E-03
 -0.5050505E-02  0.0000000E+00 -0.5050505E-02  0.5474642E-08  0.0000000E+00 -0.3536489E-03
 -0.5050505E-02  0.0000000E+00 -0.5050505E-02  0.1642009E-07  0.0000000E+00 -0.3536413E-03
 -0.5050505E-02  0.0000000E+00 -0.5050505E-02  0.2735398E-07  0.0000000E+00 -0.3536260E-03
 -0.5050505E-02  0.0000000E+00 -0.5050505E-02  0.3826860E-07  0.0000000E+00 -0.3536031E-03
 -0.5050505E-02  0.0000000E+00 -0.5050505E-02  0.4915621E-07  0.0000000E+00 -0.3535725E-03
 -0.5050505E-02  0.0000000E+00 -0.5050505E-02  0.6000906E-07  0.0000000E+00 -0.3535344E-03
 -0.5050504E-02  0.0000000E+00 -0.5050505E-02  0.7081936E-07  0.0000000E+00 -0.3534887E-03
 -0.5050501E-02  0.0000000E+00 -0.5050505E-02  0.8157926E-07  0.0000000E+00 -0.3534355E-03
 -0.5050495E-02  0.0000000E+00 -0.5050505E-02  0.9228088E-07  0.0000000E+00 -0.3533748E-03
 -0.5050482E-02  0.0000000E+00 -0.5050505E-02  0.1029162E-06  0.0000000E+00 -0.3533067E-03
 -0.5050449E-02  0.0000000E+00 -0.5050505E-02  0.1134773E-06  0.0000000E+00 -0.3532311E-03
 -0.5050376E-02  0.0000000E+00 -0.5050505E-02  0.1239558E-06  0.0000000E+00 -0.3531482E-03
 -0.5050299E-02  0.0000000E+00 -0.5050505E-02  0.1343436E-06  0.0000000E+00 -0.3530580E-03
 -0.5050178E-02  0.0000000E+00 -0.5050505E-02  0.1446321E-06  0.0000000E+00 -0.3529606E-03
 -0.5050018E-02  0.0000000E+00 -0.5050505E-02  0.1548128E-06  0.0000000E+00 -0.3528560E-03
 -0.5049710E-02  0.0000000E+00 -0.5050505E-02  0.1648768E-06  0.0000000E+00 -0.3527444E-03
 -0.5049253E-02  0.0000000E+00 -0.5050505E-02  0.1748149E-06  0.0000000E+00 -0.3526258E-03
 -0.5048636E-02  0.0000000E+00 -0.5050505E-02  0.1846177E-06  0.0000000E+00 -0.3525003E-03
 -0.5047442E-02  0.0000000E+00 -0.5050505E-02  0.1942751E-06  0.0000000E+00 -0.3523680E-03
 -0.5045727E-02  0.0000000E+00 -0.5050505E-02  0.2037770E-06  0.0000000E+00 -0.3522290E-03
 -0.5043261E-02  0.0000000E+00 -0.5050505E-02  0.2131121E-06  0.0000000E+00 -0.3520834E-03
 -0.5038714E-02  0.0000000E+00 -0.5050505E-02  0.2222687E-06  0.0000000E+00 -0.3519313E-03
 -0.5032318E-02  0.0000000E+00 -0.5050505E-02  0.2312341E-06  0.0000000E+00 -0.3517730E-03
 -0.5022454E-02  0.0000000E+00 -0.5050505E-02  0.2399944E-06  0.0000000E+00 -0.3516084E-03
 -0.5012589E-02  0.0000000E+00 -0.5050505E-02  0.2485345E-06  0.0000000E+00 -0.3514378E-03
 -0.5002725E-02  0.0000000E+00 -0.5050505E-02  0.2568375E-06  0.0000000E+00 -0.3512612E-03
 -0.4992860E-02  0.0000000E+00 -0.5050505E-02  0.2648847E-06  0.0000000E+00 -0.3510790E-03
 -0.4976523E-02  0.0000000E+00 -0.5050505E-02  0.2726550E-06  0.0000000E+00 -0.3508912E-03
 -0.4956794E-02  0.0000000E+00 -0.5050505E-02  0.2801246E-06  0.0000000E+00 -0.3506981E-03
 -0.4937066E-02  0.0000000E+00 -0.5050505E-02  0.2872665E-06  0.0000000E+00 -0.3504999E-03
 -0.4906239E-02  0.0000000E+00 -0.5050505E-02  0.2940498E-06  0.0000000E+00 -0.3502968E-03
 -0.4866782E-02  0.0000000E+00 -0.5050505E-02  0.3004395E-06  0.0000000E+00 -0.3500890E-03
 -0.4827325E-02  0.0000000E+00 -0.5050505E-02  0.3063953E-06  0.0000000E+00 -0.3498770E-03
 -0.4769372E-02  0.0000000E+00 -0.5050505E-02  0.3118714E-06  0.0000000E+00 -0.3496609E-03
 -0.4690458E-02  0.0000000E+00 -0.5050505E-02  0.3168154E-06  0.0000000E+00 -0.3494411E-03
 -0.4611543E-02  0.0000000E+00 -0.5050505E-02  0.3211678E-06  0.0000000E+00 -0.3492180E-03
 -0.4503035E-02  0.0000000E+00 -0.5050505E-02  0.3248610E-06  0.0000000E+00 -0.3489921E-03
 -0.4345206E-02  0.0000000E+00 -0.5050505E-02  0.3278190E-06  0.0000000E+00 -0.3487639E-03
 -0.4187378E-02  0.0000000E+00 -0.5050505E-02  0.3299564E-06  0.0000000E+00 -0.3485338E-03
 -0.3985156E-02  0.0000000E+00 -0.5050505E-02  0.3311782E-06  0.0000000E+00 -0.3483024E-03
 -0.3669499E-02  0.0000000E+00 -0.5050505E-02  0.3313800E-06  0.0000000E+00 -0.3480705E-03
 -0.3353842E-02  0.0000000E+00 -0.5050505E-02  0.3304476E-06  0.0000000E+00 -0.3478388E-03
 -0.2978990E-02  0.0000000E+00 -0.5050505E-02  0.3282581E-06  0.0000000E+00 -0.3476082E-03
 -0.2347676E-02  0.0000000E+00 -0.5050505E-02  0.3246810E-06  0.0000000E+00 -0.3473794E-03
 -0.1716362E-02  0.0000000E+00 -0.5050505E-02  0.3195807E-06  0.0000000E+00 -0.3471536E-03
 -0.1025842E-02  0.0000000E+00 -0.5050505E-02  0.3128186E-06  0.0000000E+00 -0.3469319E-03
  0.2367855E-03  0.0000000E+00 -0.5050505E-02  0.3042574E-06  0.0000000E+00 -0.3467155E-03
  0.1499413E-02  0.0000000E+00 -0.5050505E-02  0.2937659E-06  0.0000000E+00 -0.3465056E-03
  0.2762042E-02  0.0000000E+00 -0.5050505E-02  0.2812246E-06  0.0000000E+00 -0.3463038E-03
 -0.5050505E-02  0.0000000E+00 -0.5050505E-02  0.2665326E-06  0.0000000E+00 -0.3461114E-03
 -0.5050505E-02  0.0000000E+00 -0.5050505E-02  0.2496147E-06  0.0000000E+00 -0.3459300E-03
 -0.5050505E-02  0.0000000E+00 -0.5050505E-02  0.2304294E-06  0.0000000E+00 -0.3457612E-03
 -0.5050505E-02  0.0000000E+00 -0.5050505E-02  0.2089767E-06  0.0000000E+00 -0.3456066E-03
 -0.5050505E-02  0.0000000E+00 -0.5050505E-02  0.1853047E-06  0.0000000E+00 -0.3454678E-03
 -0.5050505E-02  0.0000000E+00 -0.5050505E-02  0.1595156E-06  0.0000000E+00 -0.3453464E-03
 -0.5050505E-02  0.0000000E+00 -0.5050505E-02  0.1317690E-06  0.0000000E+00 -0.3452437E-03
 -0.5050504E-02  0.0000000E+00 -0.5050505E-02  0.1022836E-06  0.0000000E+00 -0.3451611E-03
 -0.5050501E-02  0.0000000E+00 -0.5050505E-02  0.7133407E-07  0.0000000E+00 -0.3450998E-03
 -0.5050495E-02  0.0000000E+00 -0.5050505E-02  0.3924660E-07  0.0000000E+00 -0.3450606E-03
 -0.5050482E-02  0.0000000E+00 -0.5050505E-02  0.6389660E-08  0.0000000E+00 -0.3450444E-03
 -0.5050449E-02  0.0000000E+00 -0.5050505E-02 -0.2683729E-07  0.0000000E+00 -0.3450513E-03
 -0.5050376E-02  0.0000000E+00 -0.5050505E-02 -0.6001734E-07  0.0000000E+00 -0.3450817E-03
 -0.5050299E-02  0.0000000E+00 -0.5050505E-02 -0.9273091E-07  0.0000000E+00 -0.3451353E-03
 -0.5050178E-02  0.0000000E+00 -0.5050505E-02 -0.1245703E-06  0.0000000E+00 -0.3452116E-03
 -0.5050018E-02  0.0000000E+00 -0.5050505E-02 -0.1551534E-06  0.0000000E+00 -0.3453099E-03
 -0.5049710E-02  0.0000000E+00 -0.5050505E-02 -0.1841351E-06  0.0000000E+00 -0.3454291E-03
 -0.5049253E-02  0.0000000E+00 -0.5050505E-02 -0.2112167E-06  0.0000000E+00 -0.3455680E-03
 -0.5048636E-02  0.0000000E+00 -0.5050505E-02 -0.2361517E-06  0.0000000E+00 -0.3457252E-03
 -0.5047442E-02  0.0000000E+00 -0.5050505E-02 -0.2587501E-06  0.0000000E+00 -0.3458991E-03
 -0.5045727E-02  0.0000000E+00 -0.5050505E-02 -0.2788780E-06  0.0000000E+00 -0.3460879E-03
 -0.5043261E-02  0.0000000E+00 -0.5050505E-02 -0.2964574E-06  0.0000000E+00 -0.3462899E-03
 -0.5038714E-02  0.0000000E+00 -0.5050505E-02 -0.3114622E-06  0.0000000E+00 -0.3465033E-03
 -0.5032318E-02  0.0000000E+00 -0.5050505E-02 -0.3239148E-06  0.0000000E+00 -0.3467263E-03
 -0.5022454E-02  0.0000000E+00 -0.5050505E-02 -0.3338810E-06  0.0000000E+00 -0.3469570E-03
 -0.5012589E-02  0.0000000E+00 -0.5050505E-02 -0.3414661E-06  0.0000000E+00 -0.3471938E-03
 -0.5002725E-02  0.0000000E+00 -0.5050505E-02 -0.3468107E-06  0.0000000E+00 -0.3474351E-03
 -0.4992860E-02  0.0000000E+00 -0.5050505E-02 -0.3500882E-06  0.0000000E+00 -0.3476793E-03
 -0.4976523E-02  0.0000000E+00 -0.5050505E-02 -0.3515042E-06  0.0000000E+00 -0.3479250E-03
 -0.4956794E-02  0.0000000E+00 -0.5050505E-02 -0.3512976E-06  0.0000000E+00 -0.3481709E-03
 -0.4937066E-02  0.0000000E+00 -0.5050505E-02 -0.3497454E-06  0.0000000E+00 -0.3484162E-03
 -0.4906239E-02  0.0000000E+00 -0.5050505E-02 -0.3471725E-06  0.0000000E+00 -0.3486598E-03
 -0.4866782E-02  0.0000000E+00 -0.5050505E-02 -0.3439670E-06  0.0000000E+00 -0.3489011E-03
 -0.4827325E-02  0.0000000E+00 -0.5050505E-02 -0.3406069E-06  0.0000000E+00 -0.3491399E-03
 -0.4769372E-02  0.0000000E+00 -0.5050505E-02 -0.3377010E-06  0.0000000E+00 -0.3493762E-03
 -0.4690458E-02  0.0000000E+00 -0.5050505E-02 -0.3360556E-06  0.0000000E+00 -0.3496103E-03
 -0.4611543E-02  0.0000000E+00 -0.5050505E-02 -0.3367828E-06  0.0000000E+00 -0.3498435E-03
 -0.4503035E-02  0.0000000E+00 -0.5050505E-02 -0.3414807E-06  0.0000000E+00 -0.3500775E-03
 -0.4345206E-02  0.0000000E+00 -0.5050505E-02 -0.3525432E-06  0.0000000E+00 -0.3503155E-03
 -0.4187378E-02  0.0000000E+00 -0.5050505E-02 -0.3737108E-06  0.0000000E+00 -0.3505621E-03
 -0.3985156E-02  0.0000000E+00 -0.5050505E-02 -0.4110915E-06  0.0000000E+00 -0.3508247E-03
 -0.3669499E-02  0.0000000E+00 -0.5050505E-02 -0.4751386E-06  0.0000000E+00 -0.3511148E-03
 -0.3353842E-02  0.0000000E+00 -0.5050505E-02 -0.5846855E-06  0.0000000E+00 -0.3514497E-03
 -0.2978990E-02  0.0000000E+00 -0.5050505E-02 -0.7756442E-06  0.0000000E+00 -0.3518561E-03
 -0.2347676E-02  0.0000000E+00 -0.5050505E-02 -0.1120895E-05  0.0000000E+00 -0.3523718E-03
 -0.1716362E-02  0.0000000E+00 -0.5050505E-02 -0.1778624E-05  0.0000000E+00 -0.3530347E-03
 -0.1025842E-02  0.0000000E+00 -0.5050505E-02 -0.3116929E-05  0.0000000E+00 -0.3538025E-03
  0.2367855E-03  0.0000000E+00 -0.5050505E-02 -0.6052744E-05  0.0000000E+00 -0.3541343E-03
  0.1499413E-02  0.0000000E+00 -0.5050505E-02 -0.1301402E-04  0.0000000E+00 -0.3509789E-03
  0.5287294E-02  0.0000000E+00 -0.5050505E-02 -0.3074300E-04  0.0000000E+00 -0.3293007E-03
 -0.5050505E-02  0.0000000E+00 -0.5050505E-02  0.9159188E-08  0.0000000E+00 -0.3531623E-03
 -0.5050505E-02  0.0000000E+00 -0.5050505E-02  0.2747119E-07  0.0000000E+00 -0.3531545E-03
 -0.5050505E-02  0.0000000E+00 -0.5050505E-02  0.4576398E-07  0.0000000E+00 -0.3531390E-03
 -0.5050505E-02  0.0000000E+00 -0.5050505E-02  0.6402475E-07  0.0000000E+00 -0.3531158E-03
 -0.5050505E-02  0.0000000E+00 -0.5050505E-02  0.8224065E-07  0.0000000E+00 -0.3530849E-03
 -0.5050505E-02  0.0000000E+00 -0.5050505E-02  0.1003988E-06  0.0000000E+00 -0.3530463E-03
 -0.5050504E-02  0.0000000E+00 -0.5050505E-02  0.1184862E-06  0.0000000E+00 -0.3530000E-03
 -0.5050501E-02  0.0000000E+00 -0.5050505E-02  0.1364899E-06  0.0000000E+00 -0.3529461E-03
 -0.5050495E-02  0.0000000E+00 -0.5050505E-02  0.1543968E-06  0.0000000E+00 -0.3528845E-03
 -0.5050482E-02  0.0000000E+00 -0.5050505E-02  0.1721936E-06  0.0000000E+00 -0.3528155E-03
 -0.5050449E-02  0.0000000E+00 -0.5050505E-02  0.1898669E-06  0.0000000E+00 -0.3527389E-03
 -0.5050376E-02  0.0000000E+00 -0.5050505E-02  0.2074032E-06  0.0000000E+00 -0.3526549E-03
 -0.5050299E-02  0.0000000E+00 -0.5050505E-02  0.2247887E-06  0.0000000E+00 -0.3525634E-03
 -0.5050178E-02  0.0000000E+00 -0.5050505E-02  0.2420094E-06  0.0000000E+00 -0.3524647E-03
 -0.5050018E-02  0.0000000E+00 -0.5050505E-02  0.2590510E-06  0.0000000E+00 -0.3523587E-03
 -0.5049710E-02  0.0000000E+00 -0.5050505E-02  0.2758989E-06  0.0000000E+00 -0.3522455E-03
 -0.5049253E-02  0.0000000E+00 -0.5050505E-02  0.2925378E-06  0.0000000E+00 -0.3521253E-03
 -0.5048636E-02  0.0000000E+00 -0.5050505E-02  0.3089521E-06  0.0000000E+00 -0.3519980E-03
 -0.5047442E-02  0.0000000E+00 -0.5050505E-02  0.3251254E-06  0.0000000E+00 -0.3518638E-03
 -0.5045727E-02  0.0000000E+00 -0.5050505E-02  0.3410405E-06  0.0000000E+00 -0.3517228E-03
 -0.5043261E-02  0.0000000E+00 -0.5050505E-02  0.3566792E-06  0.0000000E+00 -0.3515751E-03
 -0.5038714E-02  0.0000000E+00 -0.5050505E-02  0.3720220E-06  0.0000000E+00 -0.3514209E-03
 -0.5032318E-02  0.0000000E+00 -0.5050505E-02  0.3870479E-06  0.0000000E+00 -0.3512602E-03
 -0.5022454E-02  0.0000000E+00 -0.5050505E-02  0.4017341E-06  0.0000000E+00 -0.3510932E-03
 -0.5012589E-02  0.0000000E+00 -0.5050505E-02  0.4160557E-06  0.0000000E+00 -0.3509200E-03
 -0.5002725E-02  0.0000000E+00 -0.5050505E-02  0.4299849E-06  0.0000000E+00 -0.3507408E-03
 -0.4992860E-02  0.0000000E+00 -0.5050505E-02  0.4434907E-06  0.0000000E+00 -0.3505558E-03
 -0.4976523E-02  0.0000000E+00 -0.5050505E-02  0.4565385E-06  0.0000000E+00 -0.3503650E-03
 -0.4956794E-02  0.0000000E+00 -0.5050505E-02  0.4690890E-06  0.0000000E+00 -0.3501689E-03
 -0.4937066E-02  0.0000000E+00 -0.5050505E-02  0.4810976E-06  0.0000000E+00 -0.3499674E-03
 -0.4906239E-02  0.0000000E+00 -0.5050505E-02  0.4925135E-06  0.0000000E+00 -0.3497610E-03
 -0.4866782E-02  0.0000000E+00 -0.5050505E-02  0.5032785E-06  0.0000000E+00 -0.3495497E-03
 -0.4827325E-02  0.0000000E+00 -0.5050505E-02  0.5133261E-06  0.0000000E+00 -0.3493340E-03
 -0.4769372E-02  0.0000000E+00 -0.5050505E-02  0.5225803E-06  0.0000000E+00 -0.3491141E-03
 -0.4690458E-02  0.0000000E+00 -0.5050505E-02  0.5309542E-06  0.0000000E+00 -0.3488903E-03
 -0.4611543E-02  0.0000000E+00 -0.5050505E-02  0.5383488E-06  0.0000000E+00 -0.3486631E-03
 -0.4503035E-02  0.0000000E+00 -0.5050505E-02  0.5446516E-06  0.0000000E+00 -0.3484328E-03
 -0.4345206E-02  0.0000000E+00 -0.5050505E-02  0.5497355E-06  0.0000000E+00 -0.3482000E-03
 -0.4187378E-02  0.0000000E+00 -0.5050505E-02  0.5534578E-06  0.0000000E+00 -0.3479652E-03
 -0.3985156E-02  0.0000000E+00 -0.5050505E-02  0.5556593E-06  0.0000000E+00 -0.3477289E-03
 -0.3669499E-02  0.0000000E+00 -0.5050505E-02  0.5561643E-06  0.0000000E+00 -0.3474918E-03
 -0.3353842E-02  0.0000000E+00 -0.5050505E-02  0.5547803E-06  0.0000000E+00 -0.3472548E-03
 -0.2978990E-02  0.0000000E+00 -0.5050505E-02  0.5512995E-06  0.0000000E+00 -0.3470185E-03
 -0.2347676E-02  0.0000000E+00 -0.5050505E-02  0.5455006E-06  0.0000000E+00 -0.3467840E-03
 -0.1716362E-02  0.0000000E+00 -0.5050505E-02  0.5371525E-06  0.0000000E+00 -0.3465522E-03
 -0.1025842E-02  0.0000000E+00 -0.5050505E-02  0.5260180E-06  0.0000000E+00 -0.3463243E-03
  0.2367855E-03  0.0000000E+00 -0.5050505E-02  0.5118615E-06  0.0000000E+00 -0.3461016E-03
  0.1499413E-02  0.0000000E+00 -0.5050505E-02  0.4944557E-06  0.0000000E+00 -0.3458854E-03
  0.2762042E-02  0.0000000E+00 -0.5050505E-02  0.4735926E-06  0.0000000E+00 -0.3456770E-03
 -0.5050505E-02  0.0000000E+00 -0.5050505E-02  0.4490941E-06  0.0000000E+00 -0.3454782E-03
 -0.5050505E-02  0.0000000E+00 -0.5050505E-02  0.4208253E-06  0.0000000E+00 -0.3452904E-03
 -0.5050505E-02  0.0000000E+00 -0.5050505E-02  0.3887080E-06  0.0000000E+00 -0.3451153E-03
 -0.5050505E-02  0.0000000E+00 -0.5050505E-02  0.3527340E-06  0.0000000E+00 -0.3449547E-03
 -0.5050505E-02  0.0000000E+00 -0.5050505E-02  0.3129777E-06  0.0000000E+00 -0.3448103E-03
 -0.5050505E-02  0.0000000E+00 -0.5050505E-02  0.2696063E-06  0.0000000E+00 -0.3446837E-03
 -0.5050505E-02  0.0000000E+00 -0.5050505E-02  0.2228870E-06  0.0000000E+00 -0.3445764E-03
 -0.5050504E-02  0.0000000E+00 -0.5050505E-02  0.1731885E-06  0.0000000E+00 -0.3444899E-03
 -0.5050501E-02  0.0000000E+00 -0.5050505E-02  0.1209783E-06  0.0000000E+00 -0.3444254E-03
 -0.5050495E-02  0.0000000E+00 -0.5050505E-02  0.6681288E-07  0.0000000E+00 -0.3443840E-03
 -0.5050482E-02  0.0000000E+00 -0.5050505E-02  0.1132338E-07  0.0000000E+00 -0.3443664E-03
 -0.5050449E-02  0.0000000E+00 -0.5050505E-02 -0.4480509E-07  0.0000000E+00 -0.3443730E-03
 -0.5050376E-02  0.0000000E+00 -0.5050505E-02 -0.1008570E-06  0.0000000E+00 -0.3444040E-03
 -0.5050299E-02  0.0000000E+00 -0.5050505E-02 -0.1561125E-06  0.0000000E+00 -0.3444592E-03
 -0.5050178E-02  0.0000000E+00 -0.5050505E-02 -0.2098727E-06  0.0000000E+00 -0.3445381E-03
 -0.5050018E-02  0.0000000E+00 -0.5050505E-02 -0.2614839E-06  0.0000000E+00 -0.3446398E-03
 -0.5049710E-02  0.0000000E+00 -0.5050505E-02 -0.3103576E-06  0.0000000E+00 -0.3447632E-03
 -0.5049253E-02  0.0000000E+00 -0.5050505E-02 -0.3559859E-06  0.0000000E+00 -0.3449071E-03
 -0.5048636E-02  0.0000000E+00 -0.5050505E-02 -0.3979524E-06  0.0000000E+00 -0.3450698E-03
 -0.5047442E-02  0.0000000E+00 -0.5050505E-02 -0.4359377E-06  0.0000000E+00 -0.3452496E-03
 -0.5045727E-02  0.0000000E+00 -0.5050505E-02 -0.4697196E-06  0.0000000E+00 -0.3454449E-03
 -0.5043261E-02  0.0000000E+00 -0.5050505E-02 -0.4991709E-06  0.0000000E+00 -0.3456535E-03
 -0.5038714E-02  0.0000000E+00 -0.5050505E-02 -0.5242530E-06  0.0000000E+00 -0.3458738E-03
 -0.5032318E-02  0.0000000E+00 -0.5050505E-02 -0.5450087E-06  0.0000000E+00 -0.3461036E-03
 -0.5022454E-02  0.0000000E+00 -0.5050505E-02 -0.5615538E-06  0.0000000E+00 -0.3463412E-03
 -0.5012589E-02  0.0000000E+00 -0.5050505E-02 -0.5740692E-06  0.0000000E+00 -0.3465848E-03
 -0.5002725E-02  0.0000000E+00 -0.5050505E-02 -0.5827935E-06  0.0000000E+00 -0.3468326E-03
 -0.4992860E-02  0.0000000E+00 -0.5050505E-02 -0.5880185E-06  0.0000000E+00 -0.3470830E-03
 -0.4976523E-02  0.0000000E+00 -0.5050505E-02 -0.5900868E-06  0.0000000E+00 -0.3473347E-03
 -0.4956794E-02  0.0000000E+00 -0.5050505E-02 -0.5893928E-06  0.0000000E+00 -0.3475862E-03
 -0.4937066E-02  0.0000000E+00 -0.5050505E-02 -0.5863898E-06  0.0000000E+00 -0.3478366E-03
 -0.4906239E-02  0.0000000E+00 -0.5050505E-02 -0.5816032E-06  0.0000000E+00 -0.3480847E-03
 -0.4866782E-02  0.0000000E+00 -0.5050505E-02 -0.5756532E-06  0.0000000E+00 -0.3483299E-03
 -0.4827325E-02  0.0000000E+00 -0.5050505E-02 -0.5692922E-06  0.0000000E+00 -0.3485717E-03
 -0.4769372E-02  0.0000000E+00 -0.5050505E-02 -0.5634637E-06  0.0000000E+00 -0.3488099E-03
 -0.4690458E-02  0.0000000E+00 -0.5050505E-02 -0.5593947E-06  0.0000000E+00 -0.3490446E-03
 -0.4611543E-02  0.0000000E+00 -0.5050505E-02 -0.5587427E-06  0.0000000E+00 -0.3492763E-03
 -0.4503035E-02  0.0000000E+00 -0.5050505E-02 -0.5638337E-06  0.0000000E+00 -0.3495062E-03
 -0.4345206E-02  0.0000000E+00 -0.5050505E-02 -0.5780556E-06  0.0000000E+00 -0.3497360E-03
 -0.4187378E-02  0.0000000E+00 -0.5050505E-02 -0.6065235E-06  0.0000000E+00 -0.3499680E-03
 -0.3985156E-02  0.0000000E+00 -0.5050505E-02 -0.6572379E-06  0.0000000E+00 -0.3502056E-03
 -0.3669499E-02  0.0000000E+00 -0.5050505E-02 -0.7431471E-06  0.0000000E+00 -0.3504528E-03
 -0.3353842E-02  0.0000000E+00 -0.5050505E-02 -0.8859039E-06  0.0000000E+00 -0.3507128E-03
 -0.2978990E-02  0.0000000E+00 -0.5050505E-02 -0.1122777E-05  0.0000000E+00 -0.3509844E-03
 -0.2347676E-02  0.0000000E+00 -0.5050505E-02 -0.1519197E-05  0.0000000E+00 -0.3512492E-03
 -0.1716362E-02  0.0000000E+00 -0.5050505E-02 -0.2189851E-05  0.0000000E+00 -0.3514362E-03
 -0.1025842E-02  0.0000000E+00 -0.5050505E-02 -0.3324724E-05  0.0000000E+00 -0.3513253E-03
  0.2367855E-03  0.0000000E+00 -0.5050505E-02 -0.5170033E-05  0.0000000E+00 -0.3503160E-03
  0.1499413E-02  0.0000000E+00 -0.5050505E-02 -0.7671341E-05  0.0000000E+00 -0.3470522E-03
  0.5287294E-02  0.0000000E+00 -0.5050505E-02 -0.8335857E-05  0.0000000E+00 -0.3400987E-03
 -0.5050505E-02  0.0000000E+00 -0.5050505E-02  0.1289840E-07  0.0000000E+00 -0.3524485E-03
 -0.5050505E-02  0.0000000E+00 -0.5050505E-02  0.3868631E-07  0.0000000E+00 -0.3524406E-03
 -0.5050505E-02  0.0000000E+00 -0.5050505E-02  0.6444745E-07  0.0000000E+00 -0.3524248E-03
 -0.5050505E-02  0.0000000E+00 -0.5050505E-02  0.9016394E-07  0.0000000E+00 -0.3524011E-03
 -0.5050505E-02  0.0000000E+00 -0.5050505E-02  0.1158179E-06  0.0000000E+00 -0.3523696E-03
 -0.5050505E-02  0.0000000E+00 -0.5050505E-02  0.1413913E-06  0.0000000E+00 -0.3523302E-03
 -0.5050504E-02  0.0000000E+00 -0.5050505E-02  0.1668662E-06  0.0000000E+00 -0.3522830E-03
 -0.5050501E-02  0.0000000E+00 -0.5050505E-02  0.1922243E-06  0.0000000E+00 -0.3522281E-03
 -0.5050495E-02  0.0000000E+00 -0.5050505E-02  0.2174475E-06  0.0000000E+00 -0.3521653E-03
 -0.5050482E-02  0.0000000E+00 -0.5050505E-02  0.2425172E-06  0.0000000E+00 -0.3520949E-03
 -0.5050449E-02  0.0000000E+00 -0.5050505E-02  0.2674149E-06  0.0000000E+00 -0.3520168E-03
 -0.5050376E-02  0.0000000E+00 -0.5050505E-02  0.2921216E-06  0.0000000E+00 -0.3519311E-03
 -0.5050299E-02  0.0000000E+00 -0.5050505E-02  0.3166183E-06  0.0000000E+00 -0.3518379E-03
 -0.5050178E-02  0.0000000E+00 -0.5050505E-02  0.3408854E-06  0.0000000E+00 -0.3517372E-03
 -0.5050018E-02  0.0000000E+00 -0.5050505E-02  0.3649032E-06  0.0000000E+00 -0.3516290E-03
 -0.5049710E-02  0.0000000E+00 -0.5050505E-02  0.3886511E-06  0.0000000E+00 -0.3515136E-03
 -0.5049253E-02  0.0000000E+00 -0.5050505E-02  0.4121083E-06  0.0000000E+00 -0.3513909E-03
 -0.5048636E-02  0.0000000E+00 -0.5050505E-02  0.4352529E-06  0.0000000E+00 -0.3512610E-03
 -0.5047442E-02  0.0000000E+00 -0.5050505E-02  0.4580623E-06  0.0000000E+00 -0.3511240E-03
 -0.5045727E-02  0.0000000E+00 -0.5050505E-02  0.4805128E-06  0.0000000E+00 -0.3509801E-03
 -0.5043261E-02  0.0000000E+00 -0.5050505E-02  0.5025792E-06  0.0000000E+00 -0.3508294E-03
 -0.5038714E-02  0.0000000E+00 -0.5050505E-02  0.5242346E-06  0.0000000E+00 -0.3506718E-03
 -0.5032318E-02  0.0000000E+00 -0.5050505E-02  0.5454502E-06  0.0000000E+00 -0.3505077E-03
 -0.5022454E-02  0.0000000E+00 -0.5050505E-02  0.5661945E-06  0.0000000E+00 -0.3503371E-03
 -0.5012589E-02  0.0000000E+00 -0.5050505E-02  0.5864331E-06  0.0000000E+00 -0.3501601E-03
 -0.5002725E-02  0.0000000E+00 -0.5050505E-02  0.6061279E-06  0.0000000E+00 -0.3499770E-03
 -0.4992860E-02  0.0000000E+00 -0.5050505E-02  0.6252363E-06  0.0000000E+00 -0.3497878E-03
 -0.4976523E-02  0.0000000E+00 -0.5050505E-02  0.6437106E-06  0.0000000E+00 -0.3495927E-03
 -0.4956794E-02  0.0000000E+00 -0.5050505E-02  0.6614966E-06  0.0000000E+00 -0.3493920E-03
 -0.4937066E-02  0.0000000E+00 -0.5050505E-02  0.6785330E-06  0.0000000E+00 -0.3491858E-03