title = "dataset feddes"
variables = "time", "water mass", "water filled volume", "gas filled volume" 
zone t = "system mass -  variably saturated flow", f=point
  0.0000E+00  2.2105E-01  2.2105E-01  2.0695E-01
  1.0000E-10  2.2105E-01  2.2105E-01  2.0695E-01
  6.0000E-10  2.2105E-01  2.2105E-01  2.0695E-01
  3.1000E-09  2.2105E-01  2.2105E-01  2.0695E-01
  1.5600E-08  2.2105E-01  2.2105E-01  2.0695E-01
  7.8100E-08  2.2105E-01  2.2105E-01  2.0695E-01
  3.9060E-07  2.2105E-01  2.2105E-01  2.0695E-01
  1.9531E-06  2.2105E-01  2.2105E-01  2.0695E-01
  9.7656E-06  2.2105E-01  2.2105E-01  2.0695E-01
  4.8828E-05  2.2105E-01  2.2105E-01  2.0695E-01
  2.4414E-04  2.2105E-01  2.2105E-01  2.0695E-01
  1.2207E-03  2.2105E-01  2.2105E-01  2.0695E-01
  6.1035E-03  2.2105E-01  2.2105E-01  2.0695E-01
  3.0518E-02  2.2105E-01  2.2105E-01  2.0695E-01
  1.5259E-01  2.2105E-01  2.2105E-01  2.0695E-01
  7.6294E-01  2.2105E-01  2.2105E-01  2.0695E-01
  1.0000E+00  2.2105E-01  2.2105E-01  2.0695E-01
  2.0000E+00  2.1748E-01  2.1748E-01  2.1052E-01
  3.0000E+00  2.1575E-01  2.1575E-01  2.1225E-01
  4.0000E+00  2.1447E-01  2.1447E-01  2.1353E-01
  5.0000E+00  2.1341E-01  2.1341E-01  2.1459E-01
  6.0000E+00  2.1249E-01  2.1249E-01  2.1551E-01
  7.0000E+00  2.1167E-01  2.1167E-01  2.1633E-01
  8.0000E+00  2.1091E-01  2.1091E-01  2.1709E-01
  9.0000E+00  2.1021E-01  2.1021E-01  2.1779E-01
  1.0000E+01  2.0956E-01  2.0956E-01  2.1844E-01
  1.1000E+01  2.0893E-01  2.0893E-01  2.1907E-01
  1.2000E+01  2.0834E-01  2.0834E-01  2.1966E-01
  1.3000E+01  2.0776E-01  2.0776E-01  2.2024E-01
  1.4000E+01  2.0721E-01  2.0721E-01  2.2079E-01
  1.5000E+01  2.0667E-01  2.0667E-01  2.2133E-01
  1.6000E+01  2.0613E-01  2.0613E-01  2.2187E-01
  1.7000E+01  2.0559E-01  2.0559E-01  2.2241E-01
  1.8000E+01  2.0504E-01  2.0504E-01  2.2296E-01
  1.9000E+01  2.0446E-01  2.0446E-01  2.2354E-01
  2.0000E+01  2.0386E-01  2.0386E-01  2.2414E-01
  2.1000E+01  2.0322E-01  2.0322E-01  2.2478E-01
  2.2000E+01  2.0255E-01  2.0255E-01  2.2545E-01
  2.3000E+01  2.0176E-01  2.0176E-01  2.2624E-01
  2.4000E+01  2.0086E-01  2.0086E-01  2.2714E-01
  2.5000E+01  1.9988E-01  1.9988E-01  2.2812E-01
  2.6000E+01  1.9886E-01  1.9886E-01  2.2914E-01
  2.7000E+01  1.9767E-01  1.9767E-01  2.3033E-01
  2.8000E+01  1.9622E-01  1.9622E-01  2.3178E-01
  2.9000E+01  1.9468E-01  1.9468E-01  2.3332E-01
  3.0000E+01  1.9307E-01  1.9307E-01  2.3493E-01
  3.1000E+01  1.9131E-01  1.9131E-01  2.3669E-01
  3.2000E+01  1.8919E-01  1.8919E-01  2.3881E-01
  3.3000E+01  1.8697E-01  1.8697E-01  2.4103E-01
  3.4000E+01  1.8470E-01  1.8470E-01  2.4330E-01
  3.5000E+01  1.8233E-01  1.8233E-01  2.4567E-01
  3.5500E+01  1.8094E-01  1.8094E-01  2.4706E-01
  3.6000E+01  1.7961E-01  1.7961E-01  2.4839E-01
  3.6500E+01  1.7826E-01  1.7826E-01  2.4974E-01
  3.7000E+01  1.7697E-01  1.7697E-01  2.5103E-01
  3.8000E+01  1.7430E-01  1.7430E-01  2.5370E-01
  3.8500E+01  1.7295E-01  1.7295E-01  2.5505E-01
  3.9000E+01  1.7167E-01  1.7167E-01  2.5633E-01
  3.9500E+01  1.7032E-01  1.7032E-01  2.5768E-01
  4.0000E+01  1.6905E-01  1.6905E-01  2.5895E-01
  4.0500E+01  1.6772E-01  1.6772E-01  2.6028E-01
  4.1000E+01  1.6648E-01  1.6648E-01  2.6152E-01
  4.1500E+01  1.6513E-01  1.6513E-01  2.6287E-01
  4.2000E+01  1.6386E-01  1.6386E-01  2.6414E-01
  4.2250E+01  1.6325E-01  1.6325E-01  2.6475E-01
  4.3000E+01  1.6156E-01  1.6156E-01  2.6644E-01
  4.3500E+01  1.6034E-01  1.6034E-01  2.6766E-01
  4.4000E+01  1.5920E-01  1.5920E-01  2.6880E-01
  4.5000E+01  1.5693E-01  1.5693E-01  2.7107E-01
  4.5500E+01  1.5577E-01  1.5577E-01  2.7223E-01
  4.5750E+01  1.5521E-01  1.5521E-01  2.7279E-01
  4.6000E+01  1.5468E-01  1.5468E-01  2.7332E-01
  4.6500E+01  1.5352E-01  1.5352E-01  2.7448E-01
  4.7000E+01  1.5246E-01  1.5246E-01  2.7554E-01
  4.7250E+01  1.5192E-01  1.5192E-01  2.7608E-01
  4.7438E+01  1.5153E-01  1.5153E-01  2.7647E-01
  4.7719E+01  1.5096E-01  1.5096E-01  2.7704E-01
  4.8000E+01  1.5043E-01  1.5043E-01  2.7757E-01
  4.9000E+01  1.4854E-01  1.4854E-01  2.7946E-01
  4.9250E+01  1.4803E-01  1.4803E-01  2.7997E-01
  5.0000E+01  1.4667E-01  1.4667E-01  2.8133E-01
  5.0250E+01  1.4613E-01  1.4613E-01  2.8187E-01
  5.0625E+01  1.4538E-01  1.4538E-01  2.8262E-01
  5.0812E+01  1.4501E-01  1.4501E-01  2.8299E-01
  5.1000E+01  1.4466E-01  1.4466E-01  2.8334E-01
  5.2000E+01  1.4291E-01  1.4291E-01  2.8509E-01
  5.2500E+01  1.4205E-01  1.4205E-01  2.8595E-01
  5.3000E+01  1.4125E-01  1.4125E-01  2.8675E-01
  5.4000E+01  1.3954E-01  1.3954E-01  2.8846E-01
  5.4250E+01  1.3911E-01  1.3911E-01  2.8889E-01
  5.4625E+01  1.3851E-01  1.3851E-01  2.8949E-01
  5.5000E+01  1.3794E-01  1.3794E-01  2.9006E-01
  5.5250E+01  1.3748E-01  1.3748E-01  2.9052E-01
  5.5438E+01  1.3715E-01  1.3715E-01  2.9085E-01
  5.5719E+01  1.3667E-01  1.3667E-01  2.9133E-01
  5.5859E+01  1.3644E-01  1.3644E-01  2.9156E-01
  5.6000E+01  1.3621E-01  1.3621E-01  2.9179E-01
  5.6500E+01  1.3545E-01  1.3545E-01  2.9255E-01
  5.6750E+01  1.3508E-01  1.3508E-01  2.9292E-01
  5.7000E+01  1.3473E-01  1.3473E-01  2.9327E-01
  5.7250E+01  1.3432E-01  1.3432E-01  2.9368E-01
  5.7438E+01  1.3403E-01  1.3403E-01  2.9397E-01
  5.7719E+01  1.3361E-01  1.3361E-01  2.9439E-01
  5.8000E+01  1.3320E-01  1.3320E-01  2.9480E-01
  5.8250E+01  1.3277E-01  1.3277E-01  2.9523E-01
  5.8625E+01  1.3218E-01  1.3218E-01  2.9582E-01
  5.9000E+01  1.3163E-01  1.3163E-01  2.9637E-01
  5.9250E+01  1.3127E-01  1.3127E-01  2.9673E-01
  5.9438E+01  1.3102E-01  1.3102E-01  2.9698E-01
  5.9578E+01  1.3083E-01  1.3083E-01  2.9717E-01
  6.0000E+01  1.3030E-01  1.3030E-01  2.9770E-01
