title = "dataset feddes"
variables = "x", "y", "z", "vx", "vy", "vz"
zone t = "velocities, solution time =  3.500E+01 days        " i =   99, j =   99, k =    1,  f=point
 -0.5050505E-02  0.0000000E+00 -0.5050505E-02  0.1880700E-07  0.0000000E+00 -0.2323259E-03
 -0.5050505E-02  0.0000000E+00 -0.5050505E-02  0.5644707E-07  0.0000000E+00 -0.2322485E-03
 -0.5050505E-02  0.0000000E+00 -0.5050505E-02  0.9416580E-07  0.0000000E+00 -0.2320937E-03
 -0.5050505E-02  0.0000000E+00 -0.5050505E-02  0.1320167E-06  0.0000000E+00 -0.2318612E-03
 -0.5050505E-02  0.0000000E+00 -0.5050505E-02  0.1700545E-06  0.0000000E+00 -0.2315507E-03
 -0.5050505E-02  0.0000000E+00 -0.5050505E-02  0.2083357E-06  0.0000000E+00 -0.2311617E-03
 -0.5050504E-02  0.0000000E+00 -0.5050505E-02  0.2469186E-06  0.0000000E+00 -0.2306938E-03
 -0.5050501E-02  0.0000000E+00 -0.5050505E-02  0.2858642E-06  0.0000000E+00 -0.2301463E-03
 -0.5050495E-02  0.0000000E+00 -0.5050505E-02  0.3252368E-06  0.0000000E+00 -0.2295182E-03
 -0.5050482E-02  0.0000000E+00 -0.5050505E-02  0.3651040E-06  0.0000000E+00 -0.2288089E-03
 -0.5050449E-02  0.0000000E+00 -0.5050505E-02  0.4055376E-06  0.0000000E+00 -0.2280170E-03
 -0.5050376E-02  0.0000000E+00 -0.5050505E-02  0.4466144E-06  0.0000000E+00 -0.2271415E-03
 -0.5050299E-02  0.0000000E+00 -0.5050505E-02  0.4884165E-06  0.0000000E+00 -0.2261810E-03
 -0.5050178E-02  0.0000000E+00 -0.5050505E-02  0.5310323E-06  0.0000000E+00 -0.2251338E-03
 -0.5050018E-02  0.0000000E+00 -0.5050505E-02  0.5745570E-06  0.0000000E+00 -0.2239984E-03
 -0.5049710E-02  0.0000000E+00 -0.5050505E-02  0.6190940E-06  0.0000000E+00 -0.2227726E-03
 -0.5049253E-02  0.0000000E+00 -0.5050505E-02  0.6647551E-06  0.0000000E+00 -0.2214545E-03
 -0.5048636E-02  0.0000000E+00 -0.5050505E-02  0.7116622E-06  0.0000000E+00 -0.2200415E-03
 -0.5047442E-02  0.0000000E+00 -0.5050505E-02  0.7599479E-06  0.0000000E+00 -0.2185311E-03
 -0.5045727E-02  0.0000000E+00 -0.5050505E-02  0.8097572E-06  0.0000000E+00 -0.2169203E-03
 -0.5043261E-02  0.0000000E+00 -0.5050505E-02  0.8612486E-06  0.0000000E+00 -0.2152059E-03
 -0.5038714E-02  0.0000000E+00 -0.5050505E-02  0.9145955E-06  0.0000000E+00 -0.2133843E-03
 -0.5032318E-02  0.0000000E+00 -0.5050505E-02  0.9699884E-06  0.0000000E+00 -0.2114516E-03
 -0.5022454E-02  0.0000000E+00 -0.5050505E-02  0.1027636E-05  0.0000000E+00 -0.2094034E-03
 -0.5012589E-02  0.0000000E+00 -0.5050505E-02  0.1087769E-05  0.0000000E+00 -0.2072351E-03
 -0.5002725E-02  0.0000000E+00 -0.5050505E-02  0.1150639E-05  0.0000000E+00 -0.2049412E-03
 -0.4992860E-02  0.0000000E+00 -0.5050505E-02  0.1216525E-05  0.0000000E+00 -0.2025161E-03
 -0.4976523E-02  0.0000000E+00 -0.5050505E-02  0.1285735E-05  0.0000000E+00 -0.1999534E-03
 -0.4956794E-02  0.0000000E+00 -0.5050505E-02  0.1358610E-05  0.0000000E+00 -0.1972460E-03
 -0.4937066E-02  0.0000000E+00 -0.5050505E-02  0.1435524E-05  0.0000000E+00 -0.1943862E-03
 -0.4906239E-02  0.0000000E+00 -0.5050505E-02  0.1516897E-05  0.0000000E+00 -0.1913655E-03
 -0.4866782E-02  0.0000000E+00 -0.5050505E-02  0.1603193E-05  0.0000000E+00 -0.1881744E-03
 -0.4827325E-02  0.0000000E+00 -0.5050505E-02  0.1694932E-05  0.0000000E+00 -0.1848025E-03
 -0.4769372E-02  0.0000000E+00 -0.5050505E-02  0.1792695E-05  0.0000000E+00 -0.1812384E-03
 -0.4690458E-02  0.0000000E+00 -0.5050505E-02  0.1897136E-05  0.0000000E+00 -0.1774693E-03
 -0.4611543E-02  0.0000000E+00 -0.5050505E-02  0.2008998E-05  0.0000000E+00 -0.1734811E-03
 -0.4503035E-02  0.0000000E+00 -0.5050505E-02  0.2129125E-05  0.0000000E+00 -0.1692581E-03
 -0.4345206E-02  0.0000000E+00 -0.5050505E-02  0.2258490E-05  0.0000000E+00 -0.1647829E-03
 -0.4187378E-02  0.0000000E+00 -0.5050505E-02  0.2398226E-05  0.0000000E+00 -0.1600359E-03
 -0.3985156E-02  0.0000000E+00 -0.5050505E-02  0.2549665E-05  0.0000000E+00 -0.1549950E-03
 -0.3669499E-02  0.0000000E+00 -0.5050505E-02  0.2714407E-05  0.0000000E+00 -0.1496354E-03
 -0.3353842E-02  0.0000000E+00 -0.5050505E-02  0.2894408E-05  0.0000000E+00 -0.1439287E-03
 -0.2978990E-02  0.0000000E+00 -0.5050505E-02  0.3092122E-05  0.0000000E+00 -0.1378420E-03
 -0.2347676E-02  0.0000000E+00 -0.5050505E-02  0.3310722E-05  0.0000000E+00 -0.1313371E-03
 -0.1716362E-02  0.0000000E+00 -0.5050505E-02  0.3554466E-05  0.0000000E+00 -0.1243682E-03
 -0.1025842E-02  0.0000000E+00 -0.5050505E-02  0.3829309E-05  0.0000000E+00 -0.1168795E-03
  0.2367855E-03  0.0000000E+00 -0.5050505E-02  0.4143978E-05  0.0000000E+00 -0.1088008E-03
  0.1499413E-02  0.0000000E+00 -0.5050505E-02  0.4511919E-05  0.0000000E+00 -0.1000396E-03
  0.2762042E-02  0.0000000E+00 -0.5050505E-02  0.4954944E-05  0.0000000E+00 -0.9046865E-04
 -0.5050505E-02  0.0000000E+00 -0.5050505E-02  0.5510358E-05  0.0000000E+00 -0.7990171E-04
 -0.5050505E-02  0.0000000E+00 -0.5050505E-02  0.6245553E-05  0.0000000E+00 -0.6804869E-04
 -0.5050505E-02  0.0000000E+00 -0.5050505E-02  0.7289977E-05  0.0000000E+00 -0.5442405E-04
 -0.5050505E-02  0.0000000E+00 -0.5050505E-02  0.8911231E-05  0.0000000E+00 -0.3814899E-04
 -0.5050505E-02  0.0000000E+00 -0.5050505E-02  0.1171559E-04  0.0000000E+00 -0.1748203E-04
 -0.5050505E-02  0.0000000E+00 -0.5050505E-02  0.1723666E-04  0.0000000E+00  0.1151025E-04
 -0.5050505E-02  0.0000000E+00 -0.5050505E-02  0.2993116E-04  0.0000000E+00  0.5890318E-04
 -0.5050504E-02  0.0000000E+00 -0.5050505E-02 -0.2867424E-04  0.0000000E+00  0.6015935E-04
 -0.5050501E-02  0.0000000E+00 -0.5050505E-02 -0.1595241E-04  0.0000000E+00  0.1529439E-04
 -0.5050495E-02  0.0000000E+00 -0.5050505E-02 -0.1039934E-04  0.0000000E+00 -0.1110246E-04
 -0.5050482E-02  0.0000000E+00 -0.5050505E-02 -0.7573594E-05  0.0000000E+00 -0.2909625E-04
 -0.5050449E-02  0.0000000E+00 -0.5050505E-02 -0.5957198E-05  0.0000000E+00 -0.4267375E-04
 -0.5050376E-02  0.0000000E+00 -0.5050505E-02 -0.4949772E-05  0.0000000E+00 -0.5363693E-04
 -0.5050299E-02  0.0000000E+00 -0.5050505E-02 -0.4281830E-05  0.0000000E+00 -0.6292867E-04
 -0.5050178E-02  0.0000000E+00 -0.5050505E-02 -0.3817670E-05  0.0000000E+00 -0.7109019E-04
 -0.5050018E-02  0.0000000E+00 -0.5050505E-02 -0.3482164E-05  0.0000000E+00 -0.7845323E-04
 -0.5049710E-02  0.0000000E+00 -0.5050505E-02 -0.3230611E-05  0.0000000E+00 -0.8523016E-04
 -0.5049253E-02  0.0000000E+00 -0.5050505E-02 -0.3034994E-05  0.0000000E+00 -0.9156082E-04
 -0.5048636E-02  0.0000000E+00 -0.5050505E-02 -0.2877098E-05  0.0000000E+00 -0.9753884E-04
 -0.5047442E-02  0.0000000E+00 -0.5050505E-02 -0.2744780E-05  0.0000000E+00 -0.1032275E-03
 -0.5045727E-02  0.0000000E+00 -0.5050505E-02 -0.2629797E-05  0.0000000E+00 -0.1086696E-03
 -0.5043261E-02  0.0000000E+00 -0.5050505E-02 -0.2526488E-05  0.0000000E+00 -0.1138941E-03
 -0.5038714E-02  0.0000000E+00 -0.5050505E-02 -0.2430933E-05  0.0000000E+00 -0.1189202E-03
 -0.5032318E-02  0.0000000E+00 -0.5050505E-02 -0.2340412E-05  0.0000000E+00 -0.1237605E-03
 -0.5022454E-02  0.0000000E+00 -0.5050505E-02 -0.2253036E-05  0.0000000E+00 -0.1284231E-03
 -0.5012589E-02  0.0000000E+00 -0.5050505E-02 -0.2167500E-05  0.0000000E+00 -0.1329126E-03
 -0.5002725E-02  0.0000000E+00 -0.5050505E-02 -0.2082914E-05  0.0000000E+00 -0.1372316E-03
 -0.4992860E-02  0.0000000E+00 -0.5050505E-02 -0.1998684E-05  0.0000000E+00 -0.1413812E-03
 -0.4976523E-02  0.0000000E+00 -0.5050505E-02 -0.1914429E-05  0.0000000E+00 -0.1453615E-03
 -0.4956794E-02  0.0000000E+00 -0.5050505E-02 -0.1829920E-05  0.0000000E+00 -0.1491719E-03
 -0.4937066E-02  0.0000000E+00 -0.5050505E-02 -0.1745042E-05  0.0000000E+00 -0.1528116E-03
 -0.4906239E-02  0.0000000E+00 -0.5050505E-02 -0.1659760E-05  0.0000000E+00 -0.1562795E-03
 -0.4866782E-02  0.0000000E+00 -0.5050505E-02 -0.1574104E-05  0.0000000E+00 -0.1595746E-03
 -0.4827325E-02  0.0000000E+00 -0.5050505E-02 -0.1488158E-05  0.0000000E+00 -0.1626961E-03
 -0.4769372E-02  0.0000000E+00 -0.5050505E-02 -0.1402051E-05  0.0000000E+00 -0.1656433E-03
 -0.4690458E-02  0.0000000E+00 -0.5050505E-02 -0.1315968E-05  0.0000000E+00 -0.1684159E-03
 -0.4611543E-02  0.0000000E+00 -0.5050505E-02 -0.1230162E-05  0.0000000E+00 -0.1710140E-03
 -0.4503035E-02  0.0000000E+00 -0.5050505E-02 -0.1144986E-05  0.0000000E+00 -0.1734383E-03
 -0.4345206E-02  0.0000000E+00 -0.5050505E-02 -0.1060955E-05  0.0000000E+00 -0.1756906E-03
 -0.4187378E-02  0.0000000E+00 -0.5050505E-02 -0.9788629E-06  0.0000000E+00 -0.1777738E-03
 -0.3985156E-02  0.0000000E+00 -0.5050505E-02 -0.9000054E-06  0.0000000E+00 -0.1796931E-03
 -0.3669499E-02  0.0000000E+00 -0.5050505E-02 -0.8266351E-06  0.0000000E+00 -0.1814573E-03
 -0.3353842E-02  0.0000000E+00 -0.5050505E-02 -0.7629437E-06  0.0000000E+00 -0.1830818E-03
 -0.2978990E-02  0.0000000E+00 -0.5050505E-02 -0.7173468E-06  0.0000000E+00 -0.1845949E-03
 -0.2347676E-02  0.0000000E+00 -0.5050505E-02 -0.7082564E-06  0.0000000E+00 -0.1860523E-03
 -0.1716362E-02  0.0000000E+00 -0.5050505E-02 -0.7800712E-06  0.0000000E+00 -0.1875742E-03
 -0.1025842E-02  0.0000000E+00 -0.5050505E-02 -0.1051855E-05  0.0000000E+00 -0.1894477E-03
  0.2367855E-03  0.0000000E+00 -0.5050505E-02 -0.1879871E-05  0.0000000E+00 -0.1924467E-03
  0.1499413E-02  0.0000000E+00 -0.5050505E-02 -0.4448313E-05  0.0000000E+00 -0.1989228E-03
  0.5287294E-02  0.0000000E+00 -0.5050505E-02 -0.7037681E-04  0.0000000E+00 -0.1589564E-03
 -0.5050505E-02  0.0000000E+00 -0.5050505E-02  0.5642113E-07  0.0000000E+00 -0.2320790E-03
 -0.5050505E-02  0.0000000E+00 -0.5050505E-02  0.1693416E-06  0.0000000E+00 -0.2320015E-03
 -0.5050505E-02  0.0000000E+00 -0.5050505E-02  0.2824982E-06  0.0000000E+00 -0.2318463E-03
 -0.5050505E-02  0.0000000E+00 -0.5050505E-02  0.3960511E-06  0.0000000E+00 -0.2316133E-03
 -0.5050505E-02  0.0000000E+00 -0.5050505E-02  0.5101644E-06  0.0000000E+00 -0.2313021E-03
 -0.5050505E-02  0.0000000E+00 -0.5050505E-02  0.6250070E-06  0.0000000E+00 -0.2309123E-03
 -0.5050504E-02  0.0000000E+00 -0.5050505E-02  0.7407539E-06  0.0000000E+00 -0.2304434E-03
 -0.5050501E-02  0.0000000E+00 -0.5050505E-02  0.8575880E-06  0.0000000E+00 -0.2298946E-03
 -0.5050495E-02  0.0000000E+00 -0.5050505E-02  0.9757013E-06  0.0000000E+00 -0.2292652E-03
 -0.5050482E-02  0.0000000E+00 -0.5050505E-02  0.1095296E-05  0.0000000E+00 -0.2285543E-03
 -0.5050449E-02  0.0000000E+00 -0.5050505E-02  0.1216589E-05  0.0000000E+00 -0.2277608E-03
 -0.5050376E-02  0.0000000E+00 -0.5050505E-02  0.1339808E-05  0.0000000E+00 -0.2268835E-03
 -0.5050299E-02  0.0000000E+00 -0.5050505E-02  0.1465200E-05  0.0000000E+00 -0.2259210E-03
 -0.5050178E-02  0.0000000E+00 -0.5050505E-02  0.1593029E-05  0.0000000E+00 -0.2248718E-03
 -0.5050018E-02  0.0000000E+00 -0.5050505E-02  0.1723582E-05  0.0000000E+00 -0.2237340E-03
 -0.5049710E-02  0.0000000E+00 -0.5050505E-02  0.1857166E-05  0.0000000E+00 -0.2225059E-03
 -0.5049253E-02  0.0000000E+00 -0.5050505E-02  0.1994117E-05  0.0000000E+00 -0.2211852E-03
 -0.5048636E-02  0.0000000E+00 -0.5050505E-02  0.2134801E-05  0.0000000E+00 -0.2197696E-03
 -0.5047442E-02  0.0000000E+00 -0.5050505E-02  0.2279613E-05  0.0000000E+00 -0.2182564E-03
 -0.5045727E-02  0.0000000E+00 -0.5050505E-02  0.2428988E-05  0.0000000E+00 -0.2166427E-03
 -0.5043261E-02  0.0000000E+00 -0.5050505E-02  0.2583401E-05  0.0000000E+00 -0.2149253E-03
 -0.5038714E-02  0.0000000E+00 -0.5050505E-02  0.2743371E-05  0.0000000E+00 -0.2131006E-03
 -0.5032318E-02  0.0000000E+00 -0.5050505E-02  0.2909467E-05  0.0000000E+00 -0.2111648E-03
 -0.5022454E-02  0.0000000E+00 -0.5050505E-02  0.3082316E-05  0.0000000E+00 -0.2091134E-03
 -0.5012589E-02  0.0000000E+00 -0.5050505E-02  0.3262604E-05  0.0000000E+00 -0.2069419E-03
 -0.5002725E-02  0.0000000E+00 -0.5050505E-02  0.3451089E-05  0.0000000E+00 -0.2046448E-03
 -0.4992860E-02  0.0000000E+00 -0.5050505E-02  0.3648604E-05  0.0000000E+00 -0.2022165E-03
 -0.4976523E-02  0.0000000E+00 -0.5050505E-02  0.3856069E-05  0.0000000E+00 -0.1996505E-03
 -0.4956794E-02  0.0000000E+00 -0.5050505E-02  0.4074502E-05  0.0000000E+00 -0.1969400E-03
 -0.4937066E-02  0.0000000E+00 -0.5050505E-02  0.4305028E-05  0.0000000E+00 -0.1940772E-03
 -0.4906239E-02  0.0000000E+00 -0.5050505E-02  0.4548896E-05  0.0000000E+00 -0.1910536E-03
 -0.4866782E-02  0.0000000E+00 -0.5050505E-02  0.4807495E-05  0.0000000E+00 -0.1878598E-03
 -0.4827325E-02  0.0000000E+00 -0.5050505E-02  0.5082376E-05  0.0000000E+00 -0.1844856E-03
 -0.4769372E-02  0.0000000E+00 -0.5050505E-02  0.5375274E-05  0.0000000E+00 -0.1809195E-03
 -0.4690458E-02  0.0000000E+00 -0.5050505E-02  0.5688141E-05  0.0000000E+00 -0.1771489E-03
 -0.4611543E-02  0.0000000E+00 -0.5050505E-02  0.6023186E-05  0.0000000E+00 -0.1731598E-03
 -0.4503035E-02  0.0000000E+00 -0.5050505E-02  0.6382925E-05  0.0000000E+00 -0.1689367E-03
 -0.4345206E-02  0.0000000E+00 -0.5050505E-02  0.6770249E-05  0.0000000E+00 -0.1644623E-03
 -0.4187378E-02  0.0000000E+00 -0.5050505E-02  0.7188511E-05  0.0000000E+00 -0.1597173E-03
 -0.3985156E-02  0.0000000E+00 -0.5050505E-02  0.7641659E-05  0.0000000E+00 -0.1546802E-03
 -0.3669499E-02  0.0000000E+00 -0.5050505E-02  0.8134405E-05  0.0000000E+00 -0.1493264E-03
 -0.3353842E-02  0.0000000E+00 -0.5050505E-02  0.8672491E-05  0.0000000E+00 -0.1436284E-03
 -0.2978990E-02  0.0000000E+00 -0.5050505E-02  0.9263082E-05  0.0000000E+00 -0.1375543E-03
 -0.2347676E-02  0.0000000E+00 -0.5050505E-02  0.9915372E-05  0.0000000E+00 -0.1310675E-03
 -0.1716362E-02  0.0000000E+00 -0.5050505E-02  0.1064158E-04  0.0000000E+00 -0.1241248E-03
 -0.1025842E-02  0.0000000E+00 -0.5050505E-02  0.1145861E-04  0.0000000E+00 -0.1166742E-03
  0.2367855E-03  0.0000000E+00 -0.5050505E-02  0.1239086E-04  0.0000000E+00 -0.1086522E-03
  0.1499413E-02  0.0000000E+00 -0.5050505E-02  0.1347536E-04  0.0000000E+00 -0.9997836E-04
  0.2762042E-02  0.0000000E+00 -0.5050505E-02  0.1477099E-04  0.0000000E+00 -0.9054701E-04
 -0.5050505E-02  0.0000000E+00 -0.5050505E-02  0.1637612E-04  0.0000000E+00 -0.8021395E-04
 -0.5050505E-02  0.0000000E+00 -0.5050505E-02  0.1846297E-04  0.0000000E+00 -0.6877443E-04
 -0.5050505E-02  0.0000000E+00 -0.5050505E-02  0.2134770E-04  0.0000000E+00 -0.5593032E-04
 -0.5050505E-02  0.0000000E+00 -0.5050505E-02  0.2564021E-04  0.0000000E+00 -0.4125415E-04
 -0.5050505E-02  0.0000000E+00 -0.5050505E-02  0.3258453E-04  0.0000000E+00 -0.2421737E-04
 -0.5050505E-02  0.0000000E+00 -0.5050505E-02  0.4488366E-04  0.0000000E+00 -0.4619700E-05
 -0.5050505E-02  0.0000000E+00 -0.5050505E-02  0.6891527E-04  0.0000000E+00  0.1490558E-04
 -0.5050504E-02  0.0000000E+00 -0.5050505E-02 -0.6515901E-04  0.0000000E+00  0.1614222E-04
 -0.5050501E-02  0.0000000E+00 -0.5050505E-02 -0.4103199E-04  0.0000000E+00 -0.8716198E-06
 -0.5050495E-02  0.0000000E+00 -0.5050505E-02 -0.2861526E-04  0.0000000E+00 -0.1785294E-04
 -0.5050482E-02  0.0000000E+00 -0.5050505E-02 -0.2159275E-04  0.0000000E+00 -0.3216550E-04
 -0.5050449E-02  0.0000000E+00 -0.5050505E-02 -0.1731039E-04  0.0000000E+00 -0.4407248E-04
 -0.5050376E-02  0.0000000E+00 -0.5050505E-02 -0.1453975E-04  0.0000000E+00 -0.5418054E-04
 -0.5050299E-02  0.0000000E+00 -0.5050505E-02 -0.1266189E-04  0.0000000E+00 -0.6299343E-04
 -0.5050178E-02  0.0000000E+00 -0.5050505E-02 -0.1133904E-04  0.0000000E+00 -0.7087088E-04
 -0.5050018E-02  0.0000000E+00 -0.5050505E-02 -0.1037400E-04  0.0000000E+00 -0.7806035E-04
 -0.5049710E-02  0.0000000E+00 -0.5050505E-02 -0.9645397E-05  0.0000000E+00 -0.8473078E-04
 -0.5049253E-02  0.0000000E+00 -0.5050505E-02 -0.9075502E-05  0.0000000E+00 -0.9099755E-04
 -0.5048636E-02  0.0000000E+00 -0.5050505E-02 -0.8613111E-05  0.0000000E+00 -0.9693958E-04
 -0.5047442E-02  0.0000000E+00 -0.5050505E-02 -0.8223787E-05  0.0000000E+00 -0.1026109E-03
 -0.5045727E-02  0.0000000E+00 -0.5050505E-02 -0.7884029E-05  0.0000000E+00 -0.1080481E-03
 -0.5043261E-02  0.0000000E+00 -0.5050505E-02 -0.7577632E-05  0.0000000E+00 -0.1132762E-03
 -0.5038714E-02  0.0000000E+00 -0.5050505E-02 -0.7293355E-05  0.0000000E+00 -0.1183115E-03
 -0.5032318E-02  0.0000000E+00 -0.5050505E-02 -0.7023380E-05  0.0000000E+00 -0.1231647E-03
 -0.5022454E-02  0.0000000E+00 -0.5050505E-02 -0.6762273E-05  0.0000000E+00 -0.1278425E-03
 -0.5012589E-02  0.0000000E+00 -0.5050505E-02 -0.6506287E-05  0.0000000E+00 -0.1323485E-03
 -0.5002725E-02  0.0000000E+00 -0.5050505E-02 -0.6252867E-05  0.0000000E+00 -0.1366848E-03
 -0.4992860E-02  0.0000000E+00 -0.5050505E-02 -0.6000310E-05  0.0000000E+00 -0.1408518E-03
 -0.4976523E-02  0.0000000E+00 -0.5050505E-02 -0.5747531E-05  0.0000000E+00 -0.1448492E-03
 -0.4956794E-02  0.0000000E+00 -0.5050505E-02 -0.5493884E-05  0.0000000E+00 -0.1486763E-03
 -0.4937066E-02  0.0000000E+00 -0.5050505E-02 -0.5239050E-05  0.0000000E+00 -0.1523320E-03
 -0.4906239E-02  0.0000000E+00 -0.5050505E-02 -0.4982946E-05  0.0000000E+00 -0.1558152E-03
 -0.4866782E-02  0.0000000E+00 -0.5050505E-02 -0.4725674E-05  0.0000000E+00 -0.1591246E-03
 -0.4827325E-02  0.0000000E+00 -0.5050505E-02 -0.4467485E-05  0.0000000E+00 -0.1622594E-03
 -0.4769372E-02  0.0000000E+00 -0.5050505E-02 -0.4208766E-05  0.0000000E+00 -0.1652188E-03
 -0.4690458E-02  0.0000000E+00 -0.5050505E-02 -0.3950055E-05  0.0000000E+00 -0.1680024E-03
 -0.4611543E-02  0.0000000E+00 -0.5050505E-02 -0.3692076E-05  0.0000000E+00 -0.1706100E-03
 -0.4503035E-02  0.0000000E+00 -0.5050505E-02 -0.3435828E-05  0.0000000E+00 -0.1730423E-03
 -0.4345206E-02  0.0000000E+00 -0.5050505E-02 -0.3182742E-05  0.0000000E+00 -0.1753004E-03
 -0.4187378E-02  0.0000000E+00 -0.5050505E-02 -0.2934975E-05  0.0000000E+00 -0.1773865E-03
 -0.3985156E-02  0.0000000E+00 -0.5050505E-02 -0.2695965E-05  0.0000000E+00 -0.1793043E-03
 -0.3669499E-02  0.0000000E+00 -0.5050505E-02 -0.2471497E-05  0.0000000E+00 -0.1810598E-03
 -0.3353842E-02  0.0000000E+00 -0.5050505E-02 -0.2271891E-05  0.0000000E+00 -0.1826621E-03
 -0.2978990E-02  0.0000000E+00 -0.5050505E-02 -0.2116706E-05  0.0000000E+00 -0.1841252E-03
 -0.2347676E-02  0.0000000E+00 -0.5050505E-02 -0.2045449E-05  0.0000000E+00 -0.1854688E-03
 -0.1716362E-02  0.0000000E+00 -0.5050505E-02 -0.2143496E-05  0.0000000E+00 -0.1867120E-03
 -0.1025842E-02  0.0000000E+00 -0.5050505E-02 -0.2608520E-05  0.0000000E+00 -0.1878294E-03
  0.2367855E-03  0.0000000E+00 -0.5050505E-02 -0.3929966E-05  0.0000000E+00 -0.1885276E-03
  0.1499413E-02  0.0000000E+00 -0.5050505E-02 -0.7394435E-05  0.0000000E+00 -0.1871851E-03
  0.5287294E-02  0.0000000E+00 -0.5050505E-02 -0.1654423E-04  0.0000000E+00 -0.1759019E-03
 -0.5050505E-02  0.0000000E+00 -0.5050505E-02  0.9407500E-07  0.0000000E+00 -0.2315946E-03
 -0.5050505E-02  0.0000000E+00 -0.5050505E-02  0.2823554E-06  0.0000000E+00 -0.2315168E-03
 -0.5050505E-02  0.0000000E+00 -0.5050505E-02  0.4710291E-06  0.0000000E+00 -0.2313609E-03
 -0.5050505E-02  0.0000000E+00 -0.5050505E-02  0.6603626E-06  0.0000000E+00 -0.2311269E-03
 -0.5050505E-02  0.0000000E+00 -0.5050505E-02  0.8506286E-06  0.0000000E+00 -0.2308144E-03
 -0.5050505E-02  0.0000000E+00 -0.5050505E-02  0.1042108E-05  0.0000000E+00 -0.2304229E-03
 -0.5050504E-02  0.0000000E+00 -0.5050505E-02  0.1235092E-05  0.0000000E+00 -0.2299520E-03
 -0.5050501E-02  0.0000000E+00 -0.5050505E-02  0.1429884E-05  0.0000000E+00 -0.2294009E-03
 -0.5050495E-02  0.0000000E+00 -0.5050505E-02  0.1626804E-05  0.0000000E+00 -0.2287689E-03
 -0.5050482E-02  0.0000000E+00 -0.5050505E-02  0.1826188E-05  0.0000000E+00 -0.2280550E-03
 -0.5050449E-02  0.0000000E+00 -0.5050505E-02  0.2028394E-05  0.0000000E+00 -0.2272582E-03
 -0.5050376E-02  0.0000000E+00 -0.5050505E-02  0.2233804E-05  0.0000000E+00 -0.2263773E-03
 -0.5050299E-02  0.0000000E+00 -0.5050505E-02  0.2442826E-05  0.0000000E+00 -0.2254109E-03
 -0.5050178E-02  0.0000000E+00 -0.5050505E-02  0.2655900E-05  0.0000000E+00 -0.2243575E-03
 -0.5050018E-02  0.0000000E+00 -0.5050505E-02  0.2873501E-05  0.0000000E+00 -0.2232153E-03
 -0.5049710E-02  0.0000000E+00 -0.5050505E-02  0.3096141E-05  0.0000000E+00 -0.2219824E-03
 -0.5049253E-02  0.0000000E+00 -0.5050505E-02  0.3324377E-05  0.0000000E+00 -0.2206567E-03
 -0.5048636E-02  0.0000000E+00 -0.5050505E-02  0.3558816E-05  0.0000000E+00 -0.2192359E-03
 -0.5047442E-02  0.0000000E+00 -0.5050505E-02  0.3800117E-05  0.0000000E+00 -0.2177172E-03
 -0.5045727E-02  0.0000000E+00 -0.5050505E-02  0.4049000E-05  0.0000000E+00 -0.2160979E-03
 -0.5043261E-02  0.0000000E+00 -0.5050505E-02  0.4306253E-05  0.0000000E+00 -0.2143746E-03
 -0.5038714E-02  0.0000000E+00 -0.5050505E-02  0.4572739E-05  0.0000000E+00 -0.2125439E-03
 -0.5032318E-02  0.0000000E+00 -0.5050505E-02  0.4849403E-05  0.0000000E+00 -0.2106019E-03
 -0.5022454E-02  0.0000000E+00 -0.5050505E-02  0.5137283E-05  0.0000000E+00 -0.2085443E-03
 -0.5012589E-02  0.0000000E+00 -0.5050505E-02  0.5437520E-05  0.0000000E+00 -0.2063663E-03
 -0.5002725E-02  0.0000000E+00 -0.5050505E-02  0.5751369E-05  0.0000000E+00 -0.2040629E-03
 -0.4992860E-02  0.0000000E+00 -0.5050505E-02  0.6080213E-05  0.0000000E+00 -0.2016282E-03
 -0.4976523E-02  0.0000000E+00 -0.5050505E-02  0.6425577E-05  0.0000000E+00 -0.1990560E-03
 -0.4956794E-02  0.0000000E+00 -0.5050505E-02  0.6789146E-05  0.0000000E+00 -0.1963393E-03
 -0.4937066E-02  0.0000000E+00 -0.5050505E-02  0.7172784E-05  0.0000000E+00 -0.1934706E-03
 -0.4906239E-02  0.0000000E+00 -0.5050505E-02  0.7578559E-05  0.0000000E+00 -0.1904413E-03
 -0.4866782E-02  0.0000000E+00 -0.5050505E-02  0.8008768E-05  0.0000000E+00 -0.1872424E-03
 -0.4827325E-02  0.0000000E+00 -0.5050505E-02  0.8465971E-05  0.0000000E+00 -0.1838635E-03
 -0.4769372E-02  0.0000000E+00 -0.5050505E-02  0.8953032E-05  0.0000000E+00 -0.1802935E-03
 -0.4690458E-02  0.0000000E+00 -0.5050505E-02  0.9473167E-05  0.0000000E+00 -0.1765198E-03
 -0.4611543E-02  0.0000000E+00 -0.5050505E-02  0.1003001E-04  0.0000000E+00 -0.1725289E-03
 -0.4503035E-02  0.0000000E+00 -0.5050505E-02  0.1062768E-04  0.0000000E+00 -0.1683054E-03
 -0.4345206E-02  0.0000000E+00 -0.5050505E-02  0.1127091E-04  0.0000000E+00 -0.1638325E-03
 -0.4187378E-02  0.0000000E+00 -0.5050505E-02  0.1196518E-04  0.0000000E+00 -0.1590915E-03
 -0.3985156E-02  0.0000000E+00 -0.5050505E-02  0.1271686E-04  0.0000000E+00 -0.1540614E-03
 -0.3669499E-02  0.0000000E+00 -0.5050505E-02  0.1353357E-04  0.0000000E+00 -0.1487188E-03
 -0.3353842E-02  0.0000000E+00 -0.5050505E-02  0.1442447E-04  0.0000000E+00 -0.1430373E-03
 -0.2978990E-02  0.0000000E+00 -0.5050505E-02  0.1540089E-04  0.0000000E+00 -0.1369872E-03
 -0.2347676E-02  0.0000000E+00 -0.5050505E-02  0.1647717E-04  0.0000000E+00 -0.1305345E-03
 -0.1716362E-02  0.0000000E+00 -0.5050505E-02  0.1767199E-04  0.0000000E+00 -0.1236403E-03
 -0.1025842E-02  0.0000000E+00 -0.5050505E-02  0.1901064E-04  0.0000000E+00 -0.1162597E-03
  0.2367855E-03  0.0000000E+00 -0.5050505E-02  0.2052861E-04  0.0000000E+00 -0.1083404E-03
  0.1499413E-02  0.0000000E+00 -0.5050505E-02  0.2227802E-04  0.0000000E+00 -0.9982119E-04
  0.2762042E-02  0.0000000E+00 -0.5050505E-02  0.2433871E-04  0.0000000E+00 -0.9063050E-04
 -0.5050505E-02  0.0000000E+00 -0.5050505E-02  0.2683836E-04  0.0000000E+00 -0.8068586E-04
 -0.5050505E-02  0.0000000E+00 -0.5050505E-02  0.2998886E-04  0.0000000E+00 -0.6989753E-04
 -0.5050505E-02  0.0000000E+00 -0.5050505E-02  0.3415231E-04  0.0000000E+00 -0.5818545E-04
 -0.5050505E-02  0.0000000E+00 -0.5050505E-02  0.3995803E-04  0.0000000E+00 -0.4553657E-04
 -0.5050505E-02  0.0000000E+00 -0.5050505E-02  0.4849532E-04  0.0000000E+00 -0.3217843E-04
 -0.5050505E-02  0.0000000E+00 -0.5050505E-02  0.6156569E-04  0.0000000E+00 -0.1905431E-04
 -0.5050505E-02  0.0000000E+00 -0.5050505E-02  0.8170990E-04  0.0000000E+00 -0.8914367E-05
 -0.5050504E-02  0.0000000E+00 -0.5050505E-02 -0.7552163E-04  0.0000000E+00 -0.7729733E-05
 -0.5050501E-02  0.0000000E+00 -0.5050505E-02 -0.5515720E-04  0.0000000E+00 -0.1541215E-04
 -0.5050495E-02  0.0000000E+00 -0.5050505E-02 -0.4180895E-04  0.0000000E+00 -0.2587823E-04
 -0.5050482E-02  0.0000000E+00 -0.5050505E-02 -0.3309004E-04  0.0000000E+00 -0.3639256E-04
 -0.5050449E-02  0.0000000E+00 -0.5050505E-02 -0.2728710E-04  0.0000000E+00 -0.4611161E-04
 -0.5050376E-02  0.0000000E+00 -0.5050505E-02 -0.2332667E-04  0.0000000E+00 -0.5492664E-04
 -0.5050299E-02  0.0000000E+00 -0.5050505E-02 -0.2055099E-04  0.0000000E+00 -0.6295216E-04
 -0.5050178E-02  0.0000000E+00 -0.5050505E-02 -0.1855172E-04  0.0000000E+00 -0.7033999E-04
 -0.5050018E-02  0.0000000E+00 -0.5050505E-02 -0.1706952E-04  0.0000000E+00 -0.7722283E-04
 -0.5049710E-02  0.0000000E+00 -0.5050505E-02 -0.1593590E-04  0.0000000E+00 -0.8370318E-04
 -0.5049253E-02  0.0000000E+00 -0.5050505E-02 -0.1503917E-04  0.0000000E+00 -0.8985612E-04
 -0.5048636E-02  0.0000000E+00 -0.5050505E-02 -0.1430408E-04  0.0000000E+00 -0.9573513E-04
 -0.5047442E-02  0.0000000E+00 -0.5050505E-02 -0.1367928E-04  0.0000000E+00 -0.1013776E-03
 -0.5045727E-02  0.0000000E+00 -0.5050505E-02 -0.1312937E-04  0.0000000E+00 -0.1068092E-03
 -0.5043261E-02  0.0000000E+00 -0.5050505E-02 -0.1262980E-04  0.0000000E+00 -0.1120473E-03
 -0.5038714E-02  0.0000000E+00 -0.5050505E-02 -0.1216344E-04  0.0000000E+00 -0.1171030E-03
 -0.5032318E-02  0.0000000E+00 -0.5050505E-02 -0.1171836E-04  0.0000000E+00 -0.1219835E-03
 -0.5022454E-02  0.0000000E+00 -0.5050505E-02 -0.1128625E-04  0.0000000E+00 -0.1266927E-03
 -0.5012589E-02  0.0000000E+00 -0.5050505E-02 -0.1086139E-04  0.0000000E+00 -0.1312326E-03
 -0.5002725E-02  0.0000000E+00 -0.5050505E-02 -0.1043988E-04  0.0000000E+00 -0.1356038E-03
 -0.4992860E-02  0.0000000E+00 -0.5050505E-02 -0.1001916E-04  0.0000000E+00 -0.1398059E-03
 -0.4976523E-02  0.0000000E+00 -0.5050505E-02 -0.9597598E-05  0.0000000E+00 -0.1438379E-03
 -0.4956794E-02  0.0000000E+00 -0.5050505E-02 -0.9174244E-05  0.0000000E+00 -0.1476986E-03
 -0.4937066E-02  0.0000000E+00 -0.5050505E-02 -0.8748661E-05  0.0000000E+00 -0.1513865E-03
 -0.4906239E-02  0.0000000E+00 -0.5050505E-02 -0.8320772E-05  0.0000000E+00 -0.1549002E-03
 -0.4866782E-02  0.0000000E+00 -0.5050505E-02 -0.7890784E-05  0.0000000E+00 -0.1582384E-03
 -0.4827325E-02  0.0000000E+00 -0.5050505E-02 -0.7459128E-05  0.0000000E+00 -0.1613999E-03
 -0.4769372E-02  0.0000000E+00 -0.5050505E-02 -0.7026437E-05  0.0000000E+00 -0.1643838E-03
 -0.4690458E-02  0.0000000E+00 -0.5050505E-02 -0.6593560E-05  0.0000000E+00 -0.1671894E-03
 -0.4611543E-02  0.0000000E+00 -0.5050505E-02 -0.6161609E-05  0.0000000E+00 -0.1698164E-03
 -0.4503035E-02  0.0000000E+00 -0.5050505E-02 -0.5732068E-05  0.0000000E+00 -0.1722648E-03
 -0.4345206E-02  0.0000000E+00 -0.5050505E-02 -0.5306992E-05  0.0000000E+00 -0.1745352E-03
 -0.4187378E-02  0.0000000E+00 -0.5050505E-02 -0.4889357E-05  0.0000000E+00 -0.1766286E-03
 -0.3985156E-02  0.0000000E+00 -0.5050505E-02 -0.4483674E-05  0.0000000E+00 -0.1785464E-03
 -0.3669499E-02  0.0000000E+00 -0.5050505E-02 -0.4097103E-05  0.0000000E+00 -0.1802905E-03
 -0.3353842E-02  0.0000000E+00 -0.5050505E-02 -0.3741453E-05  0.0000000E+00 -0.1818625E-03
 -0.2978990E-02  0.0000000E+00 -0.5050505E-02 -0.3436866E-05  0.0000000E+00 -0.1832613E-03
 -0.2347676E-02  0.0000000E+00 -0.5050505E-02 -0.3218444E-05  0.0000000E+00 -0.1844765E-03
 -0.1716362E-02  0.0000000E+00 -0.5050505E-02 -0.3147235E-05  0.0000000E+00 -0.1854693E-03
 -0.1025842E-02  0.0000000E+00 -0.5050505E-02 -0.3323312E-05  0.0000000E+00 -0.1861216E-03
  0.2367855E-03  0.0000000E+00 -0.5050505E-02 -0.3873569E-05  0.0000000E+00 -0.1861149E-03
  0.1499413E-02  0.0000000E+00 -0.5050505E-02 -0.4758409E-05  0.0000000E+00 -0.1847398E-03
  0.5287294E-02  0.0000000E+00 -0.5050505E-02 -0.4640704E-05  0.0000000E+00 -0.1812657E-03
 -0.5050505E-02  0.0000000E+00 -0.5050505E-02  0.1318463E-06  0.0000000E+00 -0.2308820E-03
 -0.5050505E-02  0.0000000E+00 -0.5050505E-02  0.3957213E-06  0.0000000E+00 -0.2308036E-03
 -0.5050505E-02  0.0000000E+00 -0.5050505E-02  0.6601458E-06  0.0000000E+00 -0.2306468E-03
 -0.5050505E-02  0.0000000E+00 -0.5050505E-02  0.9254923E-06  0.0000000E+00 -0.2304112E-03
 -0.5050505E-02  0.0000000E+00 -0.5050505E-02  0.1192141E-05  0.0000000E+00 -0.2300967E-03
 -0.5050505E-02  0.0000000E+00 -0.5050505E-02  0.1460485E-05  0.0000000E+00 -0.2297028E-03
 -0.5050504E-02  0.0000000E+00 -0.5050505E-02  0.1730929E-05  0.0000000E+00 -0.2292289E-03
 -0.5050501E-02  0.0000000E+00 -0.5050505E-02  0.2003898E-05  0.0000000E+00 -0.2286744E-03
 -0.5050495E-02  0.0000000E+00 -0.5050505E-02  0.2279837E-05  0.0000000E+00 -0.2280384E-03
 -0.5050482E-02  0.0000000E+00 -0.5050505E-02  0.2559215E-05  0.0000000E+00 -0.2273202E-03
 -0.5050449E-02  0.0000000E+00 -0.5050505E-02  0.2842532E-05  0.0000000E+00 -0.2265185E-03
 -0.5050376E-02  0.0000000E+00 -0.5050505E-02  0.3130320E-05  0.0000000E+00 -0.2256323E-03
 -0.5050299E-02  0.0000000E+00 -0.5050505E-02  0.3423149E-05  0.0000000E+00 -0.2246602E-03
 -0.5050178E-02  0.0000000E+00 -0.5050505E-02  0.3721631E-05  0.0000000E+00 -0.2236006E-03
 -0.5050018E-02  0.0000000E+00 -0.5050505E-02  0.4026427E-05  0.0000000E+00 -0.2224518E-03
 -0.5049710E-02  0.0000000E+00 -0.5050505E-02  0.4338254E-05  0.0000000E+00 -0.2212120E-03
 -0.5049253E-02  0.0000000E+00 -0.5050505E-02  0.4657887E-05  0.0000000E+00 -0.2198789E-03
 -0.5048636E-02  0.0000000E+00 -0.5050505E-02  0.4986169E-05  0.0000000E+00 -0.2184503E-03
 -0.5047442E-02  0.0000000E+00 -0.5050505E-02  0.5324021E-05  0.0000000E+00 -0.2169236E-03
 -0.5045727E-02  0.0000000E+00 -0.5050505E-02  0.5672445E-05  0.0000000E+00 -0.2152958E-03
 -0.5043261E-02  0.0000000E+00 -0.5050505E-02  0.6032539E-05  0.0000000E+00 -0.2135639E-03
 -0.5038714E-02  0.0000000E+00 -0.5050505E-02  0.6405503E-05  0.0000000E+00 -0.2117243E-03
 -0.5032318E-02  0.0000000E+00 -0.5050505E-02  0.6792655E-05  0.0000000E+00 -0.2097732E-03
 -0.5022454E-02  0.0000000E+00 -0.5050505E-02  0.7195437E-05  0.0000000E+00 -0.2077063E-03
 -0.5012589E-02  0.0000000E+00 -0.5050505E-02  0.7615438E-05  0.0000000E+00 -0.2055189E-03
 -0.5002725E-02  0.0000000E+00 -0.5050505E-02  0.8054403E-05  0.0000000E+00 -0.2032061E-03
 -0.4992860E-02  0.0000000E+00 -0.5050505E-02  0.8514254E-05  0.0000000E+00 -0.2007620E-03
 -0.4976523E-02  0.0000000E+00 -0.5050505E-02  0.8997111E-05  0.0000000E+00 -0.1981805E-03
 -0.4956794E-02  0.0000000E+00 -0.5050505E-02  0.9505312E-05  0.0000000E+00 -0.1954547E-03
 -0.4937066E-02  0.0000000E+00 -0.5050505E-02  0.1004144E-04  0.0000000E+00 -0.1925772E-03