title = "dataset feddes"
variables = "x", "y", "z", "vx", "vy", "vz"
zone t = "velocities, solution time =  4.400E+01 days        " i =   99, j =   99, k =    1,  f=point
 -0.5050505E-02  0.0000000E+00 -0.5050505E-02  0.5210168E-07  0.0000000E+00 -0.9456841E-04
 -0.5050505E-02  0.0000000E+00 -0.5050505E-02  0.1564406E-06  0.0000000E+00 -0.9435747E-04
 -0.5050505E-02  0.0000000E+00 -0.5050505E-02  0.2611897E-06  0.0000000E+00 -0.9393506E-04
 -0.5050505E-02  0.0000000E+00 -0.5050505E-02  0.3666292E-06  0.0000000E+00 -0.9330010E-04
 -0.5050505E-02  0.0000000E+00 -0.5050505E-02  0.4730468E-06  0.0000000E+00 -0.9245097E-04
 -0.5050505E-02  0.0000000E+00 -0.5050505E-02  0.5807399E-06  0.0000000E+00 -0.9138545E-04
 -0.5050504E-02  0.0000000E+00 -0.5050505E-02  0.6900183E-06  0.0000000E+00 -0.9010074E-04
 -0.5050501E-02  0.0000000E+00 -0.5050505E-02  0.8012069E-06  0.0000000E+00 -0.8859341E-04
 -0.5050495E-02  0.0000000E+00 -0.5050505E-02  0.9146487E-06  0.0000000E+00 -0.8685939E-04
 -0.5050482E-02  0.0000000E+00 -0.5050505E-02  0.1030708E-05  0.0000000E+00 -0.8489390E-04
 -0.5050449E-02  0.0000000E+00 -0.5050505E-02  0.1149775E-05  0.0000000E+00 -0.8269144E-04
 -0.5050376E-02  0.0000000E+00 -0.5050505E-02  0.1272267E-05  0.0000000E+00 -0.8024569E-04
 -0.5050299E-02  0.0000000E+00 -0.5050505E-02  0.1398637E-05  0.0000000E+00 -0.7754953E-04
 -0.5050178E-02  0.0000000E+00 -0.5050505E-02  0.1529373E-05  0.0000000E+00 -0.7459488E-04
 -0.5050018E-02  0.0000000E+00 -0.5050505E-02  0.1665010E-05  0.0000000E+00 -0.7137269E-04
 -0.5049710E-02  0.0000000E+00 -0.5050505E-02  0.1806128E-05  0.0000000E+00 -0.6787280E-04
 -0.5049253E-02  0.0000000E+00 -0.5050505E-02  0.1953367E-05  0.0000000E+00 -0.6408390E-04
 -0.5048636E-02  0.0000000E+00 -0.5050505E-02  0.2107427E-05  0.0000000E+00 -0.5999338E-04
 -0.5047442E-02  0.0000000E+00 -0.5050505E-02  0.2269081E-05  0.0000000E+00 -0.5558717E-04
 -0.5045727E-02  0.0000000E+00 -0.5050505E-02  0.2439182E-05  0.0000000E+00 -0.5084968E-04
 -0.5043261E-02  0.0000000E+00 -0.5050505E-02  0.2618677E-05  0.0000000E+00 -0.4576355E-04
 -0.5038714E-02  0.0000000E+00 -0.5050505E-02  0.2808616E-05  0.0000000E+00 -0.4030955E-04
 -0.5032318E-02  0.0000000E+00 -0.5050505E-02  0.3010168E-05  0.0000000E+00 -0.3446627E-04
 -0.5022454E-02  0.0000000E+00 -0.5050505E-02  0.3224638E-05  0.0000000E+00 -0.2821000E-04
 -0.5012589E-02  0.0000000E+00 -0.5050505E-02  0.3453486E-05  0.0000000E+00 -0.2151436E-04
 -0.5002725E-02  0.0000000E+00 -0.5050505E-02  0.3698349E-05  0.0000000E+00 -0.1435005E-04
 -0.4992860E-02  0.0000000E+00 -0.5050505E-02  0.3961070E-05  0.0000000E+00 -0.6684479E-05
 -0.4976523E-02  0.0000000E+00 -0.5050505E-02  0.4243732E-05  0.0000000E+00  0.1529100E-05
 -0.4956794E-02  0.0000000E+00 -0.5050505E-02  0.4548804E-05  0.0000000E+00  0.1034560E-04
 -0.4937066E-02  0.0000000E+00 -0.5050505E-02  0.4879034E-05  0.0000000E+00  0.1981315E-04
 -0.4906239E-02  0.0000000E+00 -0.5050505E-02  0.5237600E-05  0.0000000E+00  0.2998419E-04
 -0.4866782E-02  0.0000000E+00 -0.5050505E-02  0.5628175E-05  0.0000000E+00  0.4092202E-04
 -0.4827325E-02  0.0000000E+00 -0.5050505E-02  0.6055027E-05  0.0000000E+00  0.5269847E-04
 -0.4769372E-02  0.0000000E+00 -0.5050505E-02  0.6523155E-05  0.0000000E+00  0.6539534E-04
 -0.4690458E-02  0.0000000E+00 -0.5050505E-02  0.7038464E-05  0.0000000E+00  0.7910622E-04
 -0.4611543E-02  0.0000000E+00 -0.5050505E-02  0.7607994E-05  0.0000000E+00  0.9393874E-04
 -0.4503035E-02  0.0000000E+00 -0.5050505E-02  0.8240235E-05  0.0000000E+00  0.1100174E-03
 -0.4345206E-02  0.0000000E+00 -0.5050505E-02  0.8945565E-05  0.0000000E+00  0.1274875E-03
 -0.4187378E-02  0.0000000E+00 -0.5050505E-02  0.9736873E-05  0.0000000E+00  0.1465195E-03
 -0.3985156E-02  0.0000000E+00 -0.5050505E-02  0.1063048E-04  0.0000000E+00  0.1673162E-03
 -0.3669499E-02  0.0000000E+00 -0.5050505E-02  0.1164754E-04  0.0000000E+00  0.1901216E-03
 -0.3353842E-02  0.0000000E+00 -0.5050505E-02  0.1281615E-04  0.0000000E+00  0.2152343E-03
 -0.2978990E-02  0.0000000E+00 -0.5050505E-02  0.1417478E-04  0.0000000E+00  0.2430262E-03
 -0.2347676E-02  0.0000000E+00 -0.5050505E-02  0.1577753E-04  0.0000000E+00  0.2739720E-03
 -0.1716362E-02  0.0000000E+00 -0.5050505E-02  0.1770233E-04  0.0000000E+00  0.3086929E-03
 -0.1025842E-02  0.0000000E+00 -0.5050505E-02  0.2006274E-04  0.0000000E+00  0.3480239E-03
  0.2367855E-03  0.0000000E+00 -0.5050505E-02  0.2302237E-04  0.0000000E+00  0.3931108E-03
  0.1499413E-02  0.0000000E+00 -0.5050505E-02  0.2680365E-04  0.0000000E+00  0.4455388E-03
  0.2762042E-02  0.0000000E+00 -0.5050505E-02  0.3165757E-04  0.0000000E+00  0.5074463E-03
 -0.5050505E-02  0.0000000E+00 -0.5050505E-02  0.3767762E-04  0.0000000E+00  0.5814219E-03
 -0.5050505E-02  0.0000000E+00 -0.5050505E-02  0.4400758E-04  0.0000000E+00  0.6693521E-03
 -0.5050505E-02  0.0000000E+00 -0.5050505E-02  0.4525088E-04  0.0000000E+00  0.7664204E-03
 -0.5050505E-02  0.0000000E+00 -0.5050505E-02  0.4545741E-04  0.0000000E+00  0.8662046E-03
 -0.5050505E-02  0.0000000E+00 -0.5050505E-02  0.4831619E-04  0.0000000E+00  0.9706052E-03
 -0.5050505E-02  0.0000000E+00 -0.5050505E-02  0.6857586E-04  0.0000000E+00  0.1102479E-02
 -0.5050505E-02  0.0000000E+00 -0.5050505E-02  0.1212507E-03  0.0000000E+00  0.1320292E-02
 -0.5050504E-02  0.0000000E+00 -0.5050505E-02 -0.1405905E-03  0.0000000E+00  0.1298770E-02
 -0.5050501E-02  0.0000000E+00 -0.5050505E-02 -0.7899318E-04  0.0000000E+00  0.1048307E-02
 -0.5050495E-02  0.0000000E+00 -0.5050505E-02 -0.5405513E-04  0.0000000E+00  0.8994271E-03
 -0.5050482E-02  0.0000000E+00 -0.5050505E-02 -0.4168095E-04  0.0000000E+00  0.7936981E-03
 -0.5050449E-02  0.0000000E+00 -0.5050505E-02 -0.3400316E-04  0.0000000E+00  0.7109531E-03
 -0.5050376E-02  0.0000000E+00 -0.5050505E-02 -0.2869123E-04  0.0000000E+00  0.6429718E-03
 -0.5050299E-02  0.0000000E+00 -0.5050505E-02 -0.2483046E-04  0.0000000E+00  0.5853398E-03
 -0.5050178E-02  0.0000000E+00 -0.5050505E-02 -0.2191125E-04  0.0000000E+00  0.5353117E-03
 -0.5050018E-02  0.0000000E+00 -0.5050505E-02 -0.1960987E-04  0.0000000E+00  0.4911080E-03
 -0.5049710E-02  0.0000000E+00 -0.5050505E-02 -0.1772224E-04  0.0000000E+00  0.4515533E-03
 -0.5049253E-02  0.0000000E+00 -0.5050505E-02 -0.1612393E-04  0.0000000E+00  0.4158465E-03
 -0.5048636E-02  0.0000000E+00 -0.5050505E-02 -0.1474003E-04  0.0000000E+00  0.3834133E-03
 -0.5047442E-02  0.0000000E+00 -0.5050505E-02 -0.1352445E-04  0.0000000E+00  0.3538178E-03
 -0.5045727E-02  0.0000000E+00 -0.5050505E-02 -0.1244696E-04  0.0000000E+00  0.3267126E-03
 -0.5043261E-02  0.0000000E+00 -0.5050505E-02 -0.1148592E-04  0.0000000E+00  0.3018101E-03
 -0.5038714E-02  0.0000000E+00 -0.5050505E-02 -0.1062447E-04  0.0000000E+00  0.2788680E-03
 -0.5032318E-02  0.0000000E+00 -0.5050505E-02 -0.9848640E-05  0.0000000E+00  0.2576792E-03
 -0.5022454E-02  0.0000000E+00 -0.5050505E-02 -0.9146480E-05  0.0000000E+00  0.2380669E-03
 -0.5012589E-02  0.0000000E+00 -0.5050505E-02 -0.8507627E-05  0.0000000E+00  0.2198794E-03
 -0.5002725E-02  0.0000000E+00 -0.5050505E-02 -0.7923094E-05  0.0000000E+00  0.2029870E-03
 -0.4992860E-02  0.0000000E+00 -0.5050505E-02 -0.7385113E-05  0.0000000E+00  0.1872788E-03
 -0.4976523E-02  0.0000000E+00 -0.5050505E-02 -0.6887005E-05  0.0000000E+00  0.1726597E-03
 -0.4956794E-02  0.0000000E+00 -0.5050505E-02 -0.6423056E-05  0.0000000E+00  0.1590486E-03
 -0.4937066E-02  0.0000000E+00 -0.5050505E-02 -0.5988395E-05  0.0000000E+00  0.1463761E-03
 -0.4906239E-02  0.0000000E+00 -0.5050505E-02 -0.5578879E-05  0.0000000E+00  0.1345825E-03
 -0.4866782E-02  0.0000000E+00 -0.5050505E-02 -0.5190985E-05  0.0000000E+00  0.1236166E-03
 -0.4827325E-02  0.0000000E+00 -0.5050505E-02 -0.4821715E-05  0.0000000E+00  0.1134342E-03
 -0.4769372E-02  0.0000000E+00 -0.5050505E-02 -0.4468513E-05  0.0000000E+00  0.1039975E-03
 -0.4690458E-02  0.0000000E+00 -0.5050505E-02 -0.4129186E-05  0.0000000E+00  0.9527349E-04
 -0.4611543E-02  0.0000000E+00 -0.5050505E-02 -0.3801844E-05  0.0000000E+00  0.8723386E-04
 -0.4503035E-02  0.0000000E+00 -0.5050505E-02 -0.3484834E-05  0.0000000E+00  0.7985405E-04
 -0.4345206E-02  0.0000000E+00 -0.5050505E-02 -0.3176690E-05  0.0000000E+00  0.7311294E-04
 -0.4187378E-02  0.0000000E+00 -0.5050505E-02 -0.2876069E-05  0.0000000E+00  0.6699245E-04
 -0.3985156E-02  0.0000000E+00 -0.5050505E-02 -0.2581678E-05  0.0000000E+00  0.6147735E-04
 -0.3669499E-02  0.0000000E+00 -0.5050505E-02 -0.2292158E-05  0.0000000E+00  0.5655526E-04
 -0.3353842E-02  0.0000000E+00 -0.5050505E-02 -0.2005875E-05  0.0000000E+00  0.5221698E-04
 -0.2978990E-02  0.0000000E+00 -0.5050505E-02 -0.1720453E-05  0.0000000E+00  0.4845748E-04
 -0.2347676E-02  0.0000000E+00 -0.5050505E-02 -0.1431638E-05  0.0000000E+00  0.4527857E-04
 -0.1716362E-02  0.0000000E+00 -0.5050505E-02 -0.1130159E-05  0.0000000E+00  0.4269579E-04
 -0.1025842E-02  0.0000000E+00 -0.5050505E-02 -0.7922249E-06  0.0000000E+00  0.4075812E-04
  0.2367855E-03  0.0000000E+00 -0.5050505E-02 -0.3478721E-06  0.0000000E+00  0.3960911E-04
  0.1499413E-02  0.0000000E+00 -0.5050505E-02  0.4336729E-06  0.0000000E+00  0.3969558E-04
  0.5287294E-02  0.0000000E+00 -0.5050505E-02  0.1356724E-04  0.0000000E+00  0.3133448E-04
 -0.5050505E-02  0.0000000E+00 -0.5050505E-02  0.1561176E-06  0.0000000E+00 -0.9440502E-04
 -0.5050505E-02  0.0000000E+00 -0.5050505E-02  0.4687597E-06  0.0000000E+00 -0.9419426E-04
 -0.5050505E-02  0.0000000E+00 -0.5050505E-02  0.7826318E-06  0.0000000E+00 -0.9377221E-04
 -0.5050505E-02  0.0000000E+00 -0.5050505E-02  0.1098572E-05  0.0000000E+00 -0.9313780E-04
 -0.5050505E-02  0.0000000E+00 -0.5050505E-02  0.1417442E-05  0.0000000E+00 -0.9228943E-04
 -0.5050505E-02  0.0000000E+00 -0.5050505E-02  0.1740131E-05  0.0000000E+00 -0.9122489E-04
 -0.5050504E-02  0.0000000E+00 -0.5050505E-02  0.2067566E-05  0.0000000E+00 -0.8994140E-04
 -0.5050501E-02  0.0000000E+00 -0.5050505E-02  0.2400718E-05  0.0000000E+00 -0.8843557E-04
 -0.5050495E-02  0.0000000E+00 -0.5050505E-02  0.2740613E-05  0.0000000E+00 -0.8670333E-04
 -0.5050482E-02  0.0000000E+00 -0.5050505E-02  0.3088342E-05  0.0000000E+00 -0.8473996E-04
 -0.5050449E-02  0.0000000E+00 -0.5050505E-02  0.3445069E-05  0.0000000E+00 -0.8253999E-04
 -0.5050376E-02  0.0000000E+00 -0.5050505E-02  0.3812047E-05  0.0000000E+00 -0.8009715E-04
 -0.5050299E-02  0.0000000E+00 -0.5050505E-02  0.4190625E-05  0.0000000E+00 -0.7740436E-04
 -0.5050178E-02  0.0000000E+00 -0.5050505E-02  0.4582269E-05  0.0000000E+00 -0.7445361E-04
 -0.5050018E-02  0.0000000E+00 -0.5050505E-02  0.4988573E-05  0.0000000E+00 -0.7123592E-04
 -0.5049710E-02  0.0000000E+00 -0.5050505E-02  0.5411277E-05  0.0000000E+00 -0.6774121E-04
 -0.5049253E-02  0.0000000E+00 -0.5050505E-02  0.5852289E-05  0.0000000E+00 -0.6395826E-04
 -0.5048636E-02  0.0000000E+00 -0.5050505E-02  0.6313707E-05  0.0000000E+00 -0.5987454E-04
 -0.5047442E-02  0.0000000E+00 -0.5050505E-02  0.6797840E-05  0.0000000E+00 -0.5547613E-04
 -0.5045727E-02  0.0000000E+00 -0.5050505E-02  0.7307242E-05  0.0000000E+00 -0.5074755E-04
 -0.5043261E-02  0.0000000E+00 -0.5050505E-02  0.7844742E-05  0.0000000E+00 -0.4567161E-04
 -0.5038714E-02  0.0000000E+00 -0.5050505E-02  0.8413479E-05  0.0000000E+00 -0.4022922E-04
 -0.5032318E-02  0.0000000E+00 -0.5050505E-02  0.9016950E-05  0.0000000E+00 -0.3439921E-04
 -0.5022454E-02  0.0000000E+00 -0.5050505E-02  0.9659054E-05  0.0000000E+00 -0.2815805E-04
 -0.5012589E-02  0.0000000E+00 -0.5050505E-02  0.1034415E-04  0.0000000E+00 -0.2147966E-04
 -0.5002725E-02  0.0000000E+00 -0.5050505E-02  0.1107715E-04  0.0000000E+00 -0.1433502E-04
 -0.4992860E-02  0.0000000E+00 -0.5050505E-02  0.1186354E-04  0.0000000E+00 -0.6691909E-05
 -0.4976523E-02  0.0000000E+00 -0.5050505E-02  0.1270954E-04  0.0000000E+00  0.1495904E-05
 -0.4956794E-02  0.0000000E+00 -0.5050505E-02  0.1362252E-04  0.0000000E+00  0.1028279E-04
 -0.4937066E-02  0.0000000E+00 -0.5050505E-02  0.1461067E-04  0.0000000E+00  0.1971629E-04
 -0.4906239E-02  0.0000000E+00 -0.5050505E-02  0.1568346E-04  0.0000000E+00  0.2984810E-04
 -0.4866782E-02  0.0000000E+00 -0.5050505E-02  0.1685184E-04  0.0000000E+00  0.4074060E-04
 -0.4827325E-02  0.0000000E+00 -0.5050505E-02  0.1812851E-04  0.0000000E+00  0.5246451E-04
 -0.4769372E-02  0.0000000E+00 -0.5050505E-02  0.1952832E-04  0.0000000E+00  0.6510023E-04
 -0.4690458E-02  0.0000000E+00 -0.5050505E-02  0.2106882E-04  0.0000000E+00  0.7873961E-04
 -0.4611543E-02  0.0000000E+00 -0.5050505E-02  0.2277087E-04  0.0000000E+00  0.9348803E-04
 -0.4503035E-02  0.0000000E+00 -0.5050505E-02  0.2465958E-04  0.0000000E+00  0.1094671E-03
 -0.4345206E-02  0.0000000E+00 -0.5050505E-02  0.2676557E-04  0.0000000E+00  0.1268180E-03
 -0.4187378E-02  0.0000000E+00 -0.5050505E-02  0.2912674E-04  0.0000000E+00  0.1457060E-03
 -0.3985156E-02  0.0000000E+00 -0.5050505E-02  0.3179086E-04  0.0000000E+00  0.1663264E-03
 -0.3669499E-02  0.0000000E+00 -0.5050505E-02  0.3481949E-04  0.0000000E+00  0.1889122E-03
 -0.3353842E-02  0.0000000E+00 -0.5050505E-02  0.3829401E-04  0.0000000E+00  0.2137455E-03
 -0.2978990E-02  0.0000000E+00 -0.5050505E-02  0.4232512E-04  0.0000000E+00  0.2411737E-03
 -0.2347676E-02  0.0000000E+00 -0.5050505E-02  0.4706796E-04  0.0000000E+00  0.2716335E-03
 -0.1716362E-02  0.0000000E+00 -0.5050505E-02  0.5274606E-04  0.0000000E+00  0.3056886E-03
 -0.1025842E-02  0.0000000E+00 -0.5050505E-02  0.5968806E-04  0.0000000E+00  0.3440906E-03
  0.2367855E-03  0.0000000E+00 -0.5050505E-02  0.6837949E-04  0.0000000E+00  0.3878791E-03
  0.1499413E-02  0.0000000E+00 -0.5050505E-02  0.7952089E-04  0.0000000E+00  0.4385546E-03
  0.2762042E-02  0.0000000E+00 -0.5050505E-02  0.9404699E-04  0.0000000E+00  0.4983866E-03
 -0.5050505E-02  0.0000000E+00 -0.5050505E-02  0.1129824E-03  0.0000000E+00  0.5710701E-03
 -0.5050505E-02  0.0000000E+00 -0.5050505E-02  0.1370575E-03  0.0000000E+00  0.6639748E-03
 -0.5050505E-02  0.0000000E+00 -0.5050505E-02  0.1368627E-03  0.0000000E+00  0.7673572E-03
 -0.5050505E-02  0.0000000E+00 -0.5050505E-02  0.1339975E-03  0.0000000E+00  0.8656920E-03
 -0.5050505E-02  0.0000000E+00 -0.5050505E-02  0.1293108E-03  0.0000000E+00  0.9501845E-03
 -0.5050505E-02  0.0000000E+00 -0.5050505E-02  0.1772407E-03  0.0000000E+00  0.1032390E-02
 -0.5050505E-02  0.0000000E+00 -0.5050505E-02  0.2442078E-03  0.0000000E+00  0.1080744E-02
 -0.5050504E-02  0.0000000E+00 -0.5050505E-02 -0.3105059E-03  0.0000000E+00  0.1050262E-02
 -0.5050501E-02  0.0000000E+00 -0.5050505E-02 -0.2048331E-03  0.0000000E+00  0.9645181E-03
 -0.5050495E-02  0.0000000E+00 -0.5050505E-02 -0.1510412E-03  0.0000000E+00  0.8646723E-03
 -0.5050482E-02  0.0000000E+00 -0.5050505E-02 -0.1208800E-03  0.0000000E+00  0.7760365E-03
 -0.5050449E-02  0.0000000E+00 -0.5050505E-02 -0.9991011E-04  0.0000000E+00  0.7001997E-03
 -0.5050376E-02  0.0000000E+00 -0.5050505E-02 -0.8478472E-04  0.0000000E+00  0.6358928E-03
 -0.5050299E-02  0.0000000E+00 -0.5050505E-02 -0.7365865E-04  0.0000000E+00  0.5805209E-03
 -0.5050178E-02  0.0000000E+00 -0.5050505E-02 -0.6519425E-04  0.0000000E+00  0.5319284E-03
 -0.5050018E-02  0.0000000E+00 -0.5050505E-02 -0.5847609E-04  0.0000000E+00  0.4886404E-03
 -0.5049710E-02  0.0000000E+00 -0.5050505E-02 -0.5292643E-04  0.0000000E+00  0.4496806E-03
 -0.5049253E-02  0.0000000E+00 -0.5050505E-02 -0.4819871E-04  0.0000000E+00  0.4143771E-03
 -0.5048636E-02  0.0000000E+00 -0.5050505E-02 -0.4408728E-04  0.0000000E+00  0.3822341E-03
 -0.5047442E-02  0.0000000E+00 -0.5050505E-02 -0.4046587E-04  0.0000000E+00  0.3528604E-03
 -0.5045727E-02  0.0000000E+00 -0.5050505E-02 -0.3725070E-04  0.0000000E+00  0.3259326E-03
 -0.5043261E-02  0.0000000E+00 -0.5050505E-02 -0.3438056E-04  0.0000000E+00  0.3011765E-03
 -0.5038714E-02  0.0000000E+00 -0.5050505E-02 -0.3180670E-04  0.0000000E+00  0.2783567E-03
 -0.5032318E-02  0.0000000E+00 -0.5050505E-02 -0.2948808E-04  0.0000000E+00  0.2572708E-03
 -0.5022454E-02  0.0000000E+00 -0.5050505E-02 -0.2738925E-04  0.0000000E+00  0.2377447E-03
 -0.5012589E-02  0.0000000E+00 -0.5050505E-02 -0.2547931E-04  0.0000000E+00  0.2196292E-03
 -0.5002725E-02  0.0000000E+00 -0.5050505E-02 -0.2373144E-04  0.0000000E+00  0.2027967E-03
 -0.4992860E-02  0.0000000E+00 -0.5050505E-02 -0.2212241E-04  0.0000000E+00  0.1871379E-03
 -0.4976523E-02  0.0000000E+00 -0.5050505E-02 -0.2063229E-04  0.0000000E+00  0.1725596E-03
 -0.4956794E-02  0.0000000E+00 -0.5050505E-02 -0.1924403E-04  0.0000000E+00  0.1589819E-03
 -0.4937066E-02  0.0000000E+00 -0.5050505E-02 -0.1794310E-04  0.0000000E+00  0.1463367E-03
 -0.4906239E-02  0.0000000E+00 -0.5050505E-02 -0.1671714E-04  0.0000000E+00  0.1345652E-03
 -0.4866782E-02  0.0000000E+00 -0.5050505E-02 -0.1555567E-04  0.0000000E+00  0.1236172E-03
 -0.4827325E-02  0.0000000E+00 -0.5050505E-02 -0.1444976E-04  0.0000000E+00  0.1134494E-03
 -0.4769372E-02  0.0000000E+00 -0.5050505E-02 -0.1339179E-04  0.0000000E+00  0.1040243E-03
 -0.4690458E-02  0.0000000E+00 -0.5050505E-02 -0.1237525E-04  0.0000000E+00  0.9530954E-04
 -0.4611543E-02  0.0000000E+00 -0.5050505E-02 -0.1139451E-04  0.0000000E+00  0.8727723E-04
 -0.4503035E-02  0.0000000E+00 -0.5050505E-02 -0.1044465E-04  0.0000000E+00  0.7990312E-04
 -0.4345206E-02  0.0000000E+00 -0.5050505E-02 -0.9521332E-05  0.0000000E+00  0.7316628E-04
 -0.4187378E-02  0.0000000E+00 -0.5050505E-02 -0.8620589E-05  0.0000000E+00  0.6704874E-04
 -0.3985156E-02  0.0000000E+00 -0.5050505E-02 -0.7738647E-05  0.0000000E+00  0.6153518E-04
 -0.3669499E-02  0.0000000E+00 -0.5050505E-02 -0.6871632E-05  0.0000000E+00  0.5661287E-04
 -0.3353842E-02  0.0000000E+00 -0.5050505E-02 -0.6015083E-05  0.0000000E+00  0.5227157E-04
 -0.2978990E-02  0.0000000E+00 -0.5050505E-02 -0.5162982E-05  0.0000000E+00  0.4850369E-04
 -0.2347676E-02  0.0000000E+00 -0.5050505E-02 -0.4305621E-05  0.0000000E+00  0.4530427E-04
 -0.1716362E-02  0.0000000E+00 -0.5050505E-02 -0.3424507E-05  0.0000000E+00  0.4266967E-04
 -0.1025842E-02  0.0000000E+00 -0.5050505E-02 -0.2479368E-05  0.0000000E+00  0.4058907E-04
  0.2367855E-03  0.0000000E+00 -0.5050505E-02 -0.1373148E-05  0.0000000E+00  0.3900146E-04
  0.1499413E-02  0.0000000E+00 -0.5050505E-02  0.1463616E-06  0.0000000E+00  0.3759278E-04
  0.5287294E-02  0.0000000E+00 -0.5050505E-02  0.2769707E-05  0.0000000E+00  0.3484929E-04
 -0.5050505E-02  0.0000000E+00 -0.5050505E-02  0.2597171E-06  0.0000000E+00 -0.9408255E-04
 -0.5050505E-02  0.0000000E+00 -0.5050505E-02  0.7798286E-06  0.0000000E+00 -0.9387213E-04
 -0.5050505E-02  0.0000000E+00 -0.5050505E-02  0.1301985E-05  0.0000000E+00 -0.9345079E-04
 -0.5050505E-02  0.0000000E+00 -0.5050505E-02  0.1827577E-05  0.0000000E+00 -0.9281747E-04
 -0.5050505E-02  0.0000000E+00 -0.5050505E-02  0.2358033E-05  0.0000000E+00 -0.9197058E-04
 -0.5050505E-02  0.0000000E+00 -0.5050505E-02  0.2894828E-05  0.0000000E+00 -0.9090797E-04
 -0.5050504E-02  0.0000000E+00 -0.5050505E-02  0.3439497E-05  0.0000000E+00 -0.8962688E-04
 -0.5050501E-02  0.0000000E+00 -0.5050505E-02  0.3993652E-05  0.0000000E+00 -0.8812397E-04
 -0.5050495E-02  0.0000000E+00 -0.5050505E-02  0.4558992E-05  0.0000000E+00 -0.8639525E-04
 -0.5050482E-02  0.0000000E+00 -0.5050505E-02  0.5137325E-05  0.0000000E+00 -0.8443603E-04
 -0.5050449E-02  0.0000000E+00 -0.5050505E-02  0.5730581E-05  0.0000000E+00 -0.8224094E-04
 -0.5050376E-02  0.0000000E+00 -0.5050505E-02  0.6340834E-05  0.0000000E+00 -0.7980380E-04
 -0.5050299E-02  0.0000000E+00 -0.5050505E-02  0.6970323E-05  0.0000000E+00 -0.7711764E-04
 -0.5050178E-02  0.0000000E+00 -0.5050505E-02  0.7621474E-05  0.0000000E+00 -0.7417455E-04
 -0.5050018E-02  0.0000000E+00 -0.5050505E-02  0.8296928E-05  0.0000000E+00 -0.7096570E-04
 -0.5049710E-02  0.0000000E+00 -0.5050505E-02  0.8999568E-05  0.0000000E+00 -0.6748116E-04
 -0.5049253E-02  0.0000000E+00 -0.5050505E-02  0.9732555E-05  0.0000000E+00 -0.6370989E-04
 -0.5048636E-02  0.0000000E+00 -0.5050505E-02  0.1049936E-04  0.0000000E+00 -0.5963956E-04
 -0.5047442E-02  0.0000000E+00 -0.5050505E-02  0.1130381E-04  0.0000000E+00 -0.5525647E-04
 -0.5045727E-02  0.0000000E+00 -0.5050505E-02  0.1215014E-04  0.0000000E+00 -0.5054541E-04
 -0.5043261E-02  0.0000000E+00 -0.5050505E-02  0.1304302E-04  0.0000000E+00 -0.4548948E-04
 -0.5038714E-02  0.0000000E+00 -0.5050505E-02  0.1398766E-04  0.0000000E+00 -0.4006994E-04
 -0.5032318E-02  0.0000000E+00 -0.5050505E-02  0.1498983E-04  0.0000000E+00 -0.3426599E-04
 -0.5022454E-02  0.0000000E+00 -0.5050505E-02  0.1605600E-04  0.0000000E+00 -0.2805457E-04
 -0.5012589E-02  0.0000000E+00 -0.5050505E-02  0.1719337E-04  0.0000000E+00 -0.2141008E-04
 -0.5002725E-02  0.0000000E+00 -0.5050505E-02  0.1841003E-04  0.0000000E+00 -0.1430413E-04
 -0.4992860E-02  0.0000000E+00 -0.5050505E-02  0.1971510E-04  0.0000000E+00 -0.6705165E-05
 -0.4976523E-02  0.0000000E+00 -0.5050505E-02  0.2111882E-04  0.0000000E+00  0.1432017E-05
 -0.4956794E-02  0.0000000E+00 -0.5050505E-02  0.2263331E-04  0.0000000E+00  0.1016073E-04
 -0.4937066E-02  0.0000000E+00 -0.5050505E-02  0.2427208E-04  0.0000000E+00  0.1952739E-04
 -0.4906239E-02  0.0000000E+00 -0.5050505E-02  0.2605070E-04  0.0000000E+00  0.2958220E-04
 -0.4866782E-02  0.0000000E+00 -0.5050505E-02  0.2798716E-04  0.0000000E+00  0.4038580E-04
 -0.4827325E-02  0.0000000E+00 -0.5050505E-02  0.3010228E-04  0.0000000E+00  0.5200673E-04
 -0.4769372E-02  0.0000000E+00 -0.5050505E-02  0.3242040E-04  0.0000000E+00  0.6452272E-04
 -0.4690458E-02  0.0000000E+00 -0.5050505E-02  0.3497013E-04  0.0000000E+00  0.7802226E-04
 -0.4611543E-02  0.0000000E+00 -0.5050505E-02  0.3778544E-04  0.0000000E+00  0.9260641E-04
 -0.4503035E-02  0.0000000E+00 -0.5050505E-02  0.4090703E-04  0.0000000E+00  0.1083912E-03
 -0.4345206E-02  0.0000000E+00 -0.5050505E-02  0.4438427E-04  0.0000000E+00  0.1255105E-03
 -0.4187378E-02  0.0000000E+00 -0.5050505E-02  0.4827784E-04  0.0000000E+00  0.1441195E-03
 -0.3985156E-02  0.0000000E+00 -0.5050505E-02  0.5266360E-04  0.0000000E+00  0.1643993E-03
 -0.3669499E-02  0.0000000E+00 -0.5050505E-02  0.5763824E-04  0.0000000E+00  0.1865632E-03
 -0.3353842E-02  0.0000000E+00 -0.5050505E-02  0.6332801E-04  0.0000000E+00  0.2108633E-03
 -0.2978990E-02  0.0000000E+00 -0.5050505E-02  0.6990235E-04  0.0000000E+00  0.2376019E-03
 -0.2347676E-02  0.0000000E+00 -0.5050505E-02  0.7759606E-04  0.0000000E+00  0.2671456E-03
 -0.1716362E-02  0.0000000E+00 -0.5050505E-02  0.8674566E-04  0.0000000E+00  0.2999479E-03
 -0.1025842E-02  0.0000000E+00 -0.5050505E-02  0.9784958E-04  0.0000000E+00  0.3365887E-03
  0.2367855E-03  0.0000000E+00 -0.5050505E-02  0.1116670E-03  0.0000000E+00  0.3778504E-03
  0.1499413E-02  0.0000000E+00 -0.5050505E-02  0.1293705E-03  0.0000000E+00  0.4248775E-03
  0.2762042E-02  0.0000000E+00 -0.5050505E-02  0.1527343E-03  0.0000000E+00  0.4794919E-03
 -0.5050505E-02  0.0000000E+00 -0.5050505E-02  0.1840979E-03  0.0000000E+00  0.5444872E-03
 -0.5050505E-02  0.0000000E+00 -0.5050505E-02  0.2245184E-03  0.0000000E+00  0.6209973E-03
 -0.5050505E-02  0.0000000E+00 -0.5050505E-02  0.2330534E-03  0.0000000E+00  0.7157620E-03
 -0.5050505E-02  0.0000000E+00 -0.5050505E-02  0.2248385E-03  0.0000000E+00  0.8219965E-03
 -0.5050505E-02  0.0000000E+00 -0.5050505E-02  0.1898627E-03  0.0000000E+00  0.9059116E-03
 -0.5050505E-02  0.0000000E+00 -0.5050505E-02  0.2697299E-03  0.0000000E+00  0.9963371E-03
 -0.5050505E-02  0.0000000E+00 -0.5050505E-02  0.2444035E-03  0.0000000E+00  0.1054721E-02
 -0.5050504E-02  0.0000000E+00 -0.5050505E-02 -0.3935502E-03  0.0000000E+00  0.9943682E-03
 -0.5050501E-02  0.0000000E+00 -0.5050505E-02 -0.2851396E-03  0.0000000E+00  0.8972885E-03
 -0.5050495E-02  0.0000000E+00 -0.5050505E-02 -0.2271031E-03  0.0000000E+00  0.8233454E-03
 -0.5050482E-02  0.0000000E+00 -0.5050505E-02 -0.1920431E-03  0.0000000E+00  0.7499168E-03
 -0.5050449E-02  0.0000000E+00 -0.5050505E-02 -0.1606925E-03  0.0000000E+00  0.6817241E-03
 -0.5050376E-02  0.0000000E+00 -0.5050505E-02 -0.1373706E-03  0.0000000E+00  0.6231397E-03
 -0.5050299E-02  0.0000000E+00 -0.5050505E-02 -0.1201748E-03  0.0000000E+00  0.5717540E-03
 -0.5050178E-02  0.0000000E+00 -0.5050505E-02 -0.1069930E-03  0.0000000E+00  0.5257472E-03
 -0.5050018E-02  0.0000000E+00 -0.5050505E-02 -0.9638207E-04  0.0000000E+00  0.4840968E-03
 -0.5049710E-02  0.0000000E+00 -0.5050505E-02 -0.8748235E-04  0.0000000E+00  0.4461957E-03
 -0.5049253E-02  0.0000000E+00 -0.5050505E-02 -0.7980632E-04  0.0000000E+00  0.4116149E-03
 -0.5048636E-02  0.0000000E+00 -0.5050505E-02 -0.7307431E-04  0.0000000E+00  0.3800008E-03
 -0.5047442E-02  0.0000000E+00 -0.5050505E-02 -0.6711433E-04  0.0000000E+00  0.3510393E-03
 -0.5045727E-02  0.0000000E+00 -0.5050505E-02 -0.6180810E-04  0.0000000E+00  0.3244473E-03
 -0.5043261E-02  0.0000000E+00 -0.5050505E-02 -0.5706456E-04  0.0000000E+00  0.2999712E-03
 -0.5038714E-02  0.0000000E+00 -0.5050505E-02 -0.5280766E-04  0.0000000E+00  0.2773871E-03
 -0.5032318E-02  0.0000000E+00 -0.5050505E-02 -0.4897139E-04  0.0000000E+00  0.2564997E-03
 -0.5022454E-02  0.0000000E+00 -0.5050505E-02 -0.4549770E-04  0.0000000E+00  0.2371402E-03
 -0.5012589E-02  0.0000000E+00 -0.5050505E-02 -0.4233561E-04  0.0000000E+00  0.2191637E-03
 -0.5002725E-02  0.0000000E+00 -0.5050505E-02 -0.3944074E-04  0.0000000E+00  0.2024465E-03
 -0.4992860E-02  0.0000000E+00 -0.5050505E-02 -0.3677467E-04  0.0000000E+00  0.1868829E-03
 -0.4976523E-02  0.0000000E+00 -0.5050505E-02 -0.3430446E-04  0.0000000E+00  0.1723827E-03
 -0.4956794E-02  0.0000000E+00 -0.5050505E-02 -0.3200199E-04  0.0000000E+00  0.1588688E-03
 -0.4937066E-02  0.0000000E+00 -0.5050505E-02 -0.2984331E-04  0.0000000E+00  0.1462755E-03
 -0.4906239E-02  0.0000000E+00 -0.5050505E-02 -0.2780811E-04  0.0000000E+00  0.1345461E-03
 -0.4866782E-02  0.0000000E+00 -0.5050505E-02 -0.2587914E-04  0.0000000E+00  0.1236321E-03
 -0.4827325E-02  0.0000000E+00 -0.5050505E-02 -0.2404174E-04  0.0000000E+00  0.1134915E-03
 -0.4769372E-02  0.0000000E+00 -0.5050505E-02 -0.2228340E-04  0.0000000E+00  0.1040882E-03
 -0.4690458E-02  0.0000000E+00 -0.5050505E-02 -0.2059342E-04  0.0000000E+00  0.9539078E-04
 -0.4611543E-02  0.0000000E+00 -0.5050505E-02 -0.1896258E-04  0.0000000E+00  0.8737208E-04
 -0.4503035E-02  0.0000000E+00 -0.5050505E-02 -0.1738284E-04  0.0000000E+00  0.8000849E-04
 -0.4345206E-02  0.0000000E+00 -0.5050505E-02 -0.1584711E-04  0.0000000E+00  0.7327951E-04
 -0.4187378E-02  0.0000000E+00 -0.5050505E-02 -0.1434898E-04  0.0000000E+00  0.6716741E-04
 -0.3985156E-02  0.0000000E+00 -0.5050505E-02 -0.1288245E-04  0.0000000E+00  0.6165687E-04
 -0.3669499E-02  0.0000000E+00 -0.5050505E-02 -0.1144157E-04  0.0000000E+00  0.5673471E-04
 -0.3353842E-02  0.0000000E+00 -0.5050505E-02 -0.1001999E-04  0.0000000E+00  0.5238954E-04
 -0.2978990E-02  0.0000000E+00 -0.5050505E-02 -0.8610098E-05  0.0000000E+00  0.4861120E-04
 -0.2347676E-02  0.0000000E+00 -0.5050505E-02 -0.7201660E-05  0.0000000E+00  0.4538930E-04
 -0.1716362E-02  0.0000000E+00 -0.5050505E-02 -0.5779604E-05  0.0000000E+00  0.4270956E-04
 -0.1025842E-02  0.0000000E+00 -0.5050505E-02 -0.4321332E-05  0.0000000E+00  0.4054404E-04
  0.2367855E-03  0.0000000E+00 -0.5050505E-02 -0.2798824E-05  0.0000000E+00  0.3882826E-04
  0.1499413E-02  0.0000000E+00 -0.5050505E-02 -0.1215377E-05  0.0000000E+00  0.3742513E-04
  0.5287294E-02  0.0000000E+00 -0.5050505E-02  0.1779733E-06  0.0000000E+00  0.3619541E-04
 -0.5050505E-02  0.0000000E+00 -0.5050505E-02  0.3628187E-06  0.0000000E+00 -0.9360538E-04
 -0.5050505E-02  0.0000000E+00 -0.5050505E-02  0.1089400E-05  0.0000000E+00 -0.9339548E-04
 -0.5050505E-02  0.0000000E+00 -0.5050505E-02  0.1818830E-05  0.0000000E+00 -0.9297517E-04
 -0.5050505E-02  0.0000000E+00 -0.5050505E-02  0.2553042E-05  0.0000000E+00 -0.9234345E-04
 -0.5050505E-02  0.0000000E+00 -0.5050505E-02  0.3294021E-05  0.0000000E+00 -0.9149875E-04
 -0.5050505E-02  0.0000000E+00 -0.5050505E-02  0.4043818E-05  0.0000000E+00 -0.9043895E-04
 -0.5050504E-02  0.0000000E+00 -0.5050505E-02  0.4804566E-05  0.0000000E+00 -0.8916139E-04
 -0.5050501E-02  0.0000000E+00 -0.5050505E-02  0.5578503E-05  0.0000000E+00 -0.8766277E-04
 -0.5050495E-02  0.0000000E+00 -0.5050505E-02  0.6367991E-05  0.0000000E+00 -0.8593919E-04
 -0.5050482E-02  0.0000000E+00 -0.5050505E-02  0.7175538E-05  0.0000000E+00 -0.8398607E-04
 -0.5050449E-02  0.0000000E+00 -0.5050505E-02  0.8003826E-05  0.0000000E+00 -0.8179814E-04
 -0.5050376E-02  0.0000000E+00 -0.5050505E-02  0.8855735E-05  0.0000000E+00 -0.7936936E-04
 -0.5050299E-02  0.0000000E+00 -0.5050505E-02  0.9734370E-05  0.0000000E+00 -0.7669291E-04
 -0.5050178E-02  0.0000000E+00 -0.5050505E-02  0.1064310E-04  0.0000000E+00 -0.7376108E-04
 -0.5050018E-02  0.0000000E+00 -0.5050505E-02  0.1158559E-04  0.0000000E+00 -0.7056519E-04
 -0.5049710E-02  0.0000000E+00 -0.5050505E-02  0.1256585E-04  0.0000000E+00 -0.6709559E-04
 -0.5049253E-02  0.0000000E+00 -0.5050505E-02  0.1358824E-04  0.0000000E+00 -0.6334146E-04
 -0.5048636E-02  0.0000000E+00 -0.5050505E-02  0.1465760E-04  0.0000000E+00 -0.5929079E-04
 -0.5047442E-02  0.0000000E+00 -0.5050505E-02  0.1577923E-04  0.0000000E+00 -0.5493021E-04
 -0.5045727E-02  0.0000000E+00 -0.5050505E-02  0.1695898E-04  0.0000000E+00 -0.5024488E-04
 -0.5043261E-02  0.0000000E+00 -0.5050505E-02  0.1820335E-04  0.0000000E+00 -0.4521835E-04
 -0.5038714E-02  0.0000000E+00 -0.5050505E-02  0.1951954E-04  0.0000000E+00 -0.3983236E-04
 -0.5032318E-02  0.0000000E+00 -0.5050505E-02  0.2091555E-04  0.0000000E+00 -0.3406669E-04
 -0.5022454E-02  0.0000000E+00 -0.5050505E-02  0.2240033E-04  0.0000000E+00 -0.2789893E-04
 -0.5012589E-02  0.0000000E+00 -0.5050505E-02  0.2398384E-04  0.0000000E+00 -0.2130424E-04
 -0.5002725E-02  0.0000000E+00 -0.5050505E-02  0.2567727E-04  0.0000000E+00 -0.1425507E-04
 -0.4992860E-02  0.0000000E+00 -0.5050505E-02  0.2749320E-04  0.0000000E+00 -0.6720897E-05
 -0.4976523E-02  0.0000000E+00 -0.5050505E-02  0.2944579E-04  0.0000000E+00  0.1342034E-05
 -0.4956794E-02  0.0000000E+00 -0.5050505E-02  0.3155168E-04  0.0000000E+00  0.9985487E-05
 -0.4937066E-02  0.0000000E+00 -0.5050505E-02  0.3382945E-04  0.0000000E+00  0.1925426E-04