title = "dataset feddes"
variables = "x", "y", "z", "vx", "vy", "vz"
zone t = "velocities, solution time =  2.200E+01 days        " i =   99, j =   99, k =    1,  f=point
 -0.5050505E-02  0.0000000E+00 -0.5050505E-02  0.7108685E-09  0.0000000E+00 -0.3887595E-03
 -0.5050505E-02  0.0000000E+00 -0.5050505E-02  0.2131477E-08  0.0000000E+00 -0.3887566E-03
 -0.5050505E-02  0.0000000E+00 -0.5050505E-02  0.3548456E-08  0.0000000E+00 -0.3887506E-03
 -0.5050505E-02  0.0000000E+00 -0.5050505E-02  0.4959362E-08  0.0000000E+00 -0.3887417E-03
 -0.5050505E-02  0.0000000E+00 -0.5050505E-02  0.6361764E-08  0.0000000E+00 -0.3887299E-03
 -0.5050505E-02  0.0000000E+00 -0.5050505E-02  0.7753221E-08  0.0000000E+00 -0.3887151E-03
 -0.5050504E-02  0.0000000E+00 -0.5050505E-02  0.9131271E-08  0.0000000E+00 -0.3886974E-03
 -0.5050501E-02  0.0000000E+00 -0.5050505E-02  0.1049344E-07  0.0000000E+00 -0.3886769E-03
 -0.5050495E-02  0.0000000E+00 -0.5050505E-02  0.1183724E-07  0.0000000E+00 -0.3886535E-03
 -0.5050482E-02  0.0000000E+00 -0.5050505E-02  0.1316015E-07  0.0000000E+00 -0.3886274E-03
 -0.5050449E-02  0.0000000E+00 -0.5050505E-02  0.1445964E-07  0.0000000E+00 -0.3885985E-03
 -0.5050376E-02  0.0000000E+00 -0.5050505E-02  0.1573315E-07  0.0000000E+00 -0.3885669E-03
 -0.5050299E-02  0.0000000E+00 -0.5050505E-02  0.1697808E-07  0.0000000E+00 -0.3885327E-03
 -0.5050178E-02  0.0000000E+00 -0.5050505E-02  0.1819182E-07  0.0000000E+00 -0.3884959E-03
 -0.5050018E-02  0.0000000E+00 -0.5050505E-02  0.1937172E-07  0.0000000E+00 -0.3884566E-03
 -0.5049710E-02  0.0000000E+00 -0.5050505E-02  0.2051510E-07  0.0000000E+00 -0.3884148E-03
 -0.5049253E-02  0.0000000E+00 -0.5050505E-02  0.2161924E-07  0.0000000E+00 -0.3883708E-03
 -0.5048636E-02  0.0000000E+00 -0.5050505E-02  0.2268139E-07  0.0000000E+00 -0.3883244E-03
 -0.5047442E-02  0.0000000E+00 -0.5050505E-02  0.2369876E-07  0.0000000E+00 -0.3882759E-03
 -0.5045727E-02  0.0000000E+00 -0.5050505E-02  0.2466853E-07  0.0000000E+00 -0.3882253E-03
 -0.5043261E-02  0.0000000E+00 -0.5050505E-02  0.2558783E-07  0.0000000E+00 -0.3881727E-03
 -0.5038714E-02  0.0000000E+00 -0.5050505E-02  0.2645375E-07  0.0000000E+00 -0.3881182E-03
 -0.5032318E-02  0.0000000E+00 -0.5050505E-02  0.2726335E-07  0.0000000E+00 -0.3880620E-03
 -0.5022454E-02  0.0000000E+00 -0.5050505E-02  0.2801363E-07  0.0000000E+00 -0.3880042E-03
 -0.5012589E-02  0.0000000E+00 -0.5050505E-02  0.2870157E-07  0.0000000E+00 -0.3879449E-03
 -0.5002725E-02  0.0000000E+00 -0.5050505E-02  0.2932408E-07  0.0000000E+00 -0.3878842E-03
 -0.4992860E-02  0.0000000E+00 -0.5050505E-02  0.2987806E-07  0.0000000E+00 -0.3878222E-03
 -0.4976523E-02  0.0000000E+00 -0.5050505E-02  0.3036033E-07  0.0000000E+00 -0.3877592E-03
 -0.4956794E-02  0.0000000E+00 -0.5050505E-02  0.3076771E-07  0.0000000E+00 -0.3876953E-03
 -0.4937066E-02  0.0000000E+00 -0.5050505E-02  0.3109694E-07  0.0000000E+00 -0.3876305E-03
 -0.4906239E-02  0.0000000E+00 -0.5050505E-02  0.3134477E-07  0.0000000E+00 -0.3875652E-03
 -0.4866782E-02  0.0000000E+00 -0.5050505E-02  0.3150788E-07  0.0000000E+00 -0.3874995E-03
 -0.4827325E-02  0.0000000E+00 -0.5050505E-02  0.3158297E-07  0.0000000E+00 -0.3874335E-03
 -0.4769372E-02  0.0000000E+00 -0.5050505E-02  0.3156670E-07  0.0000000E+00 -0.3873674E-03
 -0.4690458E-02  0.0000000E+00 -0.5050505E-02  0.3145577E-07  0.0000000E+00 -0.3873015E-03
 -0.4611543E-02  0.0000000E+00 -0.5050505E-02  0.3124689E-07  0.0000000E+00 -0.3872359E-03
 -0.4503035E-02  0.0000000E+00 -0.5050505E-02  0.3093683E-07  0.0000000E+00 -0.3871708E-03
 -0.4345206E-02  0.0000000E+00 -0.5050505E-02  0.3052245E-07  0.0000000E+00 -0.3871065E-03
 -0.4187378E-02  0.0000000E+00 -0.5050505E-02  0.3000073E-07  0.0000000E+00 -0.3870432E-03
 -0.3985156E-02  0.0000000E+00 -0.5050505E-02  0.2936882E-07  0.0000000E+00 -0.3869811E-03
 -0.3669499E-02  0.0000000E+00 -0.5050505E-02  0.2862409E-07  0.0000000E+00 -0.3869204E-03
 -0.3353842E-02  0.0000000E+00 -0.5050505E-02  0.2776421E-07  0.0000000E+00 -0.3868614E-03
 -0.2978990E-02  0.0000000E+00 -0.5050505E-02  0.2678720E-07  0.0000000E+00 -0.3868044E-03
 -0.2347676E-02  0.0000000E+00 -0.5050505E-02  0.2569153E-07  0.0000000E+00 -0.3867495E-03
 -0.1716362E-02  0.0000000E+00 -0.5050505E-02  0.2447619E-07  0.0000000E+00 -0.3866970E-03
 -0.1025842E-02  0.0000000E+00 -0.5050505E-02  0.2314079E-07  0.0000000E+00 -0.3866472E-03
  0.2367855E-03  0.0000000E+00 -0.5050505E-02  0.2168570E-07  0.0000000E+00 -0.3866003E-03
  0.1499413E-02  0.0000000E+00 -0.5050505E-02  0.2011209E-07  0.0000000E+00 -0.3865566E-03
  0.2762042E-02  0.0000000E+00 -0.5050505E-02  0.1842209E-07  0.0000000E+00 -0.3865163E-03
 -0.5050505E-02  0.0000000E+00 -0.5050505E-02  0.1661889E-07  0.0000000E+00 -0.3864796E-03
 -0.5050505E-02  0.0000000E+00 -0.5050505E-02  0.1470679E-07  0.0000000E+00 -0.3864468E-03
 -0.5050505E-02  0.0000000E+00 -0.5050505E-02  0.1269135E-07  0.0000000E+00 -0.3864182E-03
 -0.5050505E-02  0.0000000E+00 -0.5050505E-02  0.1057939E-07  0.0000000E+00 -0.3863938E-03
 -0.5050505E-02  0.0000000E+00 -0.5050505E-02  0.8379090E-08  0.0000000E+00 -0.3863740E-03
 -0.5050505E-02  0.0000000E+00 -0.5050505E-02  0.6099966E-08  0.0000000E+00 -0.3863589E-03
 -0.5050505E-02  0.0000000E+00 -0.5050505E-02  0.3752865E-08  0.0000000E+00 -0.3863486E-03
 -0.5050504E-02  0.0000000E+00 -0.5050505E-02  0.1349901E-08  0.0000000E+00 -0.3863432E-03
 -0.5050501E-02  0.0000000E+00 -0.5050505E-02 -0.1095638E-08  0.0000000E+00 -0.3863429E-03
 -0.5050495E-02  0.0000000E+00 -0.5050505E-02 -0.3569434E-08  0.0000000E+00 -0.3863478E-03
 -0.5050482E-02  0.0000000E+00 -0.5050505E-02 -0.6056326E-08  0.0000000E+00 -0.3863579E-03
 -0.5050449E-02  0.0000000E+00 -0.5050505E-02 -0.8540540E-08  0.0000000E+00 -0.3863732E-03
 -0.5050376E-02  0.0000000E+00 -0.5050505E-02 -0.1100594E-07  0.0000000E+00 -0.3863936E-03
 -0.5050299E-02  0.0000000E+00 -0.5050505E-02 -0.1343634E-07  0.0000000E+00 -0.3864192E-03
 -0.5050178E-02  0.0000000E+00 -0.5050505E-02 -0.1581581E-07  0.0000000E+00 -0.3864498E-03
 -0.5050018E-02  0.0000000E+00 -0.5050505E-02 -0.1812900E-07  0.0000000E+00 -0.3864853E-03
 -0.5049710E-02  0.0000000E+00 -0.5050505E-02 -0.2036152E-07  0.0000000E+00 -0.3865256E-03
 -0.5049253E-02  0.0000000E+00 -0.5050505E-02 -0.2250030E-07  0.0000000E+00 -0.3865704E-03
 -0.5048636E-02  0.0000000E+00 -0.5050505E-02 -0.2453391E-07  0.0000000E+00 -0.3866196E-03
 -0.5047442E-02  0.0000000E+00 -0.5050505E-02 -0.2645292E-07  0.0000000E+00 -0.3866729E-03
 -0.5045727E-02  0.0000000E+00 -0.5050505E-02 -0.2825030E-07  0.0000000E+00 -0.3867301E-03
 -0.5043261E-02  0.0000000E+00 -0.5050505E-02 -0.2992174E-07  0.0000000E+00 -0.3867910E-03
 -0.5038714E-02  0.0000000E+00 -0.5050505E-02 -0.3146605E-07  0.0000000E+00 -0.3868552E-03
 -0.5032318E-02  0.0000000E+00 -0.5050505E-02 -0.3288560E-07  0.0000000E+00 -0.3869225E-03
 -0.5022454E-02  0.0000000E+00 -0.5050505E-02 -0.3418682E-07  0.0000000E+00 -0.3869927E-03
 -0.5012589E-02  0.0000000E+00 -0.5050505E-02 -0.3538082E-07  0.0000000E+00 -0.3870655E-03
 -0.5002725E-02  0.0000000E+00 -0.5050505E-02 -0.3648424E-07  0.0000000E+00 -0.3871407E-03
 -0.4992860E-02  0.0000000E+00 -0.5050505E-02 -0.3752039E-07  0.0000000E+00 -0.3872181E-03
 -0.4976523E-02  0.0000000E+00 -0.5050505E-02 -0.3852078E-07  0.0000000E+00 -0.3872976E-03
 -0.4956794E-02  0.0000000E+00 -0.5050505E-02 -0.3952739E-07  0.0000000E+00 -0.3873793E-03
 -0.4937066E-02  0.0000000E+00 -0.5050505E-02 -0.4059593E-07  0.0000000E+00 -0.3874631E-03
 -0.4906239E-02  0.0000000E+00 -0.5050505E-02 -0.4180061E-07  0.0000000E+00 -0.3875493E-03
 -0.4866782E-02  0.0000000E+00 -0.5050505E-02 -0.4324131E-07  0.0000000E+00 -0.3876383E-03
 -0.4827325E-02  0.0000000E+00 -0.5050505E-02 -0.4505446E-07  0.0000000E+00 -0.3877306E-03
 -0.4769372E-02  0.0000000E+00 -0.5050505E-02 -0.4743003E-07  0.0000000E+00 -0.3878274E-03
 -0.4690458E-02  0.0000000E+00 -0.5050505E-02 -0.5063850E-07  0.0000000E+00 -0.3879300E-03
 -0.4611543E-02  0.0000000E+00 -0.5050505E-02 -0.5507493E-07  0.0000000E+00 -0.3880406E-03
 -0.4503035E-02  0.0000000E+00 -0.5050505E-02 -0.6133343E-07  0.0000000E+00 -0.3881624E-03
 -0.4345206E-02  0.0000000E+00 -0.5050505E-02 -0.7033726E-07  0.0000000E+00 -0.3883001E-03
 -0.4187378E-02  0.0000000E+00 -0.5050505E-02 -0.8357617E-07  0.0000000E+00 -0.3884612E-03
 -0.3985156E-02  0.0000000E+00 -0.5050505E-02 -0.1035603E-06  0.0000000E+00 -0.3886570E-03
 -0.3669499E-02  0.0000000E+00 -0.5050505E-02 -0.1347392E-06  0.0000000E+00 -0.3889063E-03
 -0.3353842E-02  0.0000000E+00 -0.5050505E-02 -0.1854865E-06  0.0000000E+00 -0.3892414E-03
 -0.2978990E-02  0.0000000E+00 -0.5050505E-02 -0.2727229E-06  0.0000000E+00 -0.3897208E-03
 -0.2347676E-02  0.0000000E+00 -0.5050505E-02 -0.4336389E-06  0.0000000E+00 -0.3904600E-03
 -0.1716362E-02  0.0000000E+00 -0.5050505E-02 -0.7583101E-06  0.0000000E+00 -0.3917074E-03
 -0.1025842E-02  0.0000000E+00 -0.5050505E-02 -0.1489629E-05  0.0000000E+00 -0.3940603E-03
  0.2367855E-03  0.0000000E+00 -0.5050505E-02 -0.3359775E-05  0.0000000E+00 -0.3991376E-03
  0.1499413E-02  0.0000000E+00 -0.5050505E-02 -0.8825697E-05  0.0000000E+00 -0.4119040E-03
  0.5287294E-02  0.0000000E+00 -0.5050505E-02 -0.1449383E-03  0.0000000E+00 -0.3285107E-03
 -0.5050505E-02  0.0000000E+00 -0.5050505E-02  0.2137395E-08  0.0000000E+00 -0.3884795E-03
 -0.5050505E-02  0.0000000E+00 -0.5050505E-02  0.6408746E-08  0.0000000E+00 -0.3884765E-03
 -0.5050505E-02  0.0000000E+00 -0.5050505E-02  0.1066921E-07  0.0000000E+00 -0.3884705E-03
 -0.5050505E-02  0.0000000E+00 -0.5050505E-02  0.1491146E-07  0.0000000E+00 -0.3884615E-03
 -0.5050505E-02  0.0000000E+00 -0.5050505E-02  0.1912818E-07  0.0000000E+00 -0.3884496E-03
 -0.5050505E-02  0.0000000E+00 -0.5050505E-02  0.2331205E-07  0.0000000E+00 -0.3884347E-03
 -0.5050504E-02  0.0000000E+00 -0.5050505E-02  0.2745570E-07  0.0000000E+00 -0.3884169E-03
 -0.5050501E-02  0.0000000E+00 -0.5050505E-02  0.3155168E-07  0.0000000E+00 -0.3883962E-03
 -0.5050495E-02  0.0000000E+00 -0.5050505E-02  0.3559252E-07  0.0000000E+00 -0.3883727E-03
 -0.5050482E-02  0.0000000E+00 -0.5050505E-02  0.3957068E-07  0.0000000E+00 -0.3883463E-03
 -0.5050449E-02  0.0000000E+00 -0.5050505E-02  0.4347854E-07  0.0000000E+00 -0.3883172E-03
 -0.5050376E-02  0.0000000E+00 -0.5050505E-02  0.4730840E-07  0.0000000E+00 -0.3882853E-03
 -0.5050299E-02  0.0000000E+00 -0.5050505E-02  0.5105251E-07  0.0000000E+00 -0.3882508E-03
 -0.5050178E-02  0.0000000E+00 -0.5050505E-02  0.5470300E-07  0.0000000E+00 -0.3882137E-03
 -0.5050018E-02  0.0000000E+00 -0.5050505E-02  0.5825190E-07  0.0000000E+00 -0.3881741E-03
 -0.5049710E-02  0.0000000E+00 -0.5050505E-02  0.6169118E-07  0.0000000E+00 -0.3881320E-03
 -0.5049253E-02  0.0000000E+00 -0.5050505E-02  0.6501268E-07  0.0000000E+00 -0.3880876E-03
 -0.5048636E-02  0.0000000E+00 -0.5050505E-02  0.6820813E-07  0.0000000E+00 -0.3880409E-03
 -0.5047442E-02  0.0000000E+00 -0.5050505E-02  0.7126916E-07  0.0000000E+00 -0.3879919E-03
 -0.5045727E-02  0.0000000E+00 -0.5050505E-02  0.7418728E-07  0.0000000E+00 -0.3879409E-03
 -0.5043261E-02  0.0000000E+00 -0.5050505E-02  0.7695389E-07  0.0000000E+00 -0.3878879E-03
 -0.5038714E-02  0.0000000E+00 -0.5050505E-02  0.7956026E-07  0.0000000E+00 -0.3878330E-03
 -0.5032318E-02  0.0000000E+00 -0.5050505E-02  0.8199752E-07  0.0000000E+00 -0.3877763E-03
 -0.5022454E-02  0.0000000E+00 -0.5050505E-02  0.8425671E-07  0.0000000E+00 -0.3877180E-03
 -0.5012589E-02  0.0000000E+00 -0.5050505E-02  0.8632870E-07  0.0000000E+00 -0.3876581E-03
 -0.5002725E-02  0.0000000E+00 -0.5050505E-02  0.8820426E-07  0.0000000E+00 -0.3875968E-03
 -0.4992860E-02  0.0000000E+00 -0.5050505E-02  0.8987401E-07  0.0000000E+00 -0.3875343E-03
 -0.4976523E-02  0.0000000E+00 -0.5050505E-02  0.9132845E-07  0.0000000E+00 -0.3874707E-03
 -0.4956794E-02  0.0000000E+00 -0.5050505E-02  0.9255795E-07  0.0000000E+00 -0.3874062E-03
 -0.4937066E-02  0.0000000E+00 -0.5050505E-02  0.9355277E-07  0.0000000E+00 -0.3873409E-03
 -0.4906239E-02  0.0000000E+00 -0.5050505E-02  0.9430307E-07  0.0000000E+00 -0.3872749E-03
 -0.4866782E-02  0.0000000E+00 -0.5050505E-02  0.9479891E-07  0.0000000E+00 -0.3872085E-03
 -0.4827325E-02  0.0000000E+00 -0.5050505E-02  0.9503030E-07  0.0000000E+00 -0.3871419E-03
 -0.4769372E-02  0.0000000E+00 -0.5050505E-02  0.9498723E-07  0.0000000E+00 -0.3870751E-03
 -0.4690458E-02  0.0000000E+00 -0.5050505E-02  0.9465970E-07  0.0000000E+00 -0.3870085E-03
 -0.4611543E-02  0.0000000E+00 -0.5050505E-02  0.9403780E-07  0.0000000E+00 -0.3869423E-03
 -0.4503035E-02  0.0000000E+00 -0.5050505E-02  0.9311178E-07  0.0000000E+00 -0.3868765E-03
 -0.4345206E-02  0.0000000E+00 -0.5050505E-02  0.9187212E-07  0.0000000E+00 -0.3868115E-03
 -0.4187378E-02  0.0000000E+00 -0.5050505E-02  0.9030969E-07  0.0000000E+00 -0.3867475E-03
 -0.3985156E-02  0.0000000E+00 -0.5050505E-02  0.8841584E-07  0.0000000E+00 -0.3866847E-03
 -0.3669499E-02  0.0000000E+00 -0.5050505E-02  0.8618260E-07  0.0000000E+00 -0.3866233E-03
 -0.3353842E-02  0.0000000E+00 -0.5050505E-02  0.8360284E-07  0.0000000E+00 -0.3865636E-03
 -0.2978990E-02  0.0000000E+00 -0.5050505E-02  0.8067052E-07  0.0000000E+00 -0.3865058E-03
 -0.2347676E-02  0.0000000E+00 -0.5050505E-02  0.7738089E-07  0.0000000E+00 -0.3864502E-03
 -0.1716362E-02  0.0000000E+00 -0.5050505E-02  0.7373080E-07  0.0000000E+00 -0.3863970E-03
 -0.1025842E-02  0.0000000E+00 -0.5050505E-02  0.6971898E-07  0.0000000E+00 -0.3863466E-03
  0.2367855E-03  0.0000000E+00 -0.5050505E-02  0.6534635E-07  0.0000000E+00 -0.3862990E-03
  0.1499413E-02  0.0000000E+00 -0.5050505E-02  0.6061633E-07  0.0000000E+00 -0.3862546E-03
  0.2762042E-02  0.0000000E+00 -0.5050505E-02  0.5553520E-07  0.0000000E+00 -0.3862137E-03
 -0.5050505E-02  0.0000000E+00 -0.5050505E-02  0.5011239E-07  0.0000000E+00 -0.3861765E-03
 -0.5050505E-02  0.0000000E+00 -0.5050505E-02  0.4436075E-07  0.0000000E+00 -0.3861431E-03
 -0.5050505E-02  0.0000000E+00 -0.5050505E-02  0.3829689E-07  0.0000000E+00 -0.3861140E-03
 -0.5050505E-02  0.0000000E+00 -0.5050505E-02  0.3194128E-07  0.0000000E+00 -0.3860892E-03
 -0.5050505E-02  0.0000000E+00 -0.5050505E-02  0.2531848E-07  0.0000000E+00 -0.3860689E-03
 -0.5050505E-02  0.0000000E+00 -0.5050505E-02  0.1845710E-07  0.0000000E+00 -0.3860534E-03
 -0.5050505E-02  0.0000000E+00 -0.5050505E-02  0.1138982E-07  0.0000000E+00 -0.3860428E-03
 -0.5050504E-02  0.0000000E+00 -0.5050505E-02  0.4153166E-08  0.0000000E+00 -0.3860372E-03
 -0.5050501E-02  0.0000000E+00 -0.5050505E-02 -0.3212765E-08  0.0000000E+00 -0.3860367E-03
 -0.5050495E-02  0.0000000E+00 -0.5050505E-02 -0.1066473E-07  0.0000000E+00 -0.3860415E-03
 -0.5050482E-02  0.0000000E+00 -0.5050505E-02 -0.1815689E-07  0.0000000E+00 -0.3860515E-03
 -0.5050449E-02  0.0000000E+00 -0.5050505E-02 -0.2564154E-07  0.0000000E+00 -0.3860668E-03
 -0.5050376E-02  0.0000000E+00 -0.5050505E-02 -0.3306985E-07  0.0000000E+00 -0.3860873E-03
 -0.5050299E-02  0.0000000E+00 -0.5050505E-02 -0.4039278E-07  0.0000000E+00 -0.3861131E-03
 -0.5050178E-02  0.0000000E+00 -0.5050505E-02 -0.4756205E-07  0.0000000E+00 -0.3861439E-03
 -0.5050018E-02  0.0000000E+00 -0.5050505E-02 -0.5453115E-07  0.0000000E+00 -0.3861797E-03
 -0.5049710E-02  0.0000000E+00 -0.5050505E-02 -0.6125643E-07  0.0000000E+00 -0.3862204E-03
 -0.5049253E-02  0.0000000E+00 -0.5050505E-02 -0.6769813E-07  0.0000000E+00 -0.3862656E-03
 -0.5048636E-02  0.0000000E+00 -0.5050505E-02 -0.7382150E-07  0.0000000E+00 -0.3863153E-03
 -0.5047442E-02  0.0000000E+00 -0.5050505E-02 -0.7959781E-07  0.0000000E+00 -0.3863692E-03
 -0.5045727E-02  0.0000000E+00 -0.5050505E-02 -0.8500548E-07  0.0000000E+00 -0.3864270E-03
 -0.5043261E-02  0.0000000E+00 -0.5050505E-02 -0.9003110E-07  0.0000000E+00 -0.3864885E-03
 -0.5038714E-02  0.0000000E+00 -0.5050505E-02 -0.9467061E-07  0.0000000E+00 -0.3865533E-03
 -0.5032318E-02  0.0000000E+00 -0.5050505E-02 -0.9893055E-07  0.0000000E+00 -0.3866213E-03
 -0.5022454E-02  0.0000000E+00 -0.5050505E-02 -0.1028295E-06  0.0000000E+00 -0.3866921E-03
 -0.5012589E-02  0.0000000E+00 -0.5050505E-02 -0.1064001E-06  0.0000000E+00 -0.3867655E-03
 -0.5002725E-02  0.0000000E+00 -0.5050505E-02 -0.1096910E-06  0.0000000E+00 -0.3868413E-03
 -0.4992860E-02  0.0000000E+00 -0.5050505E-02 -0.1127706E-06  0.0000000E+00 -0.3869192E-03
 -0.4976523E-02  0.0000000E+00 -0.5050505E-02 -0.1157313E-06  0.0000000E+00 -0.3869993E-03
 -0.4956794E-02  0.0000000E+00 -0.5050505E-02 -0.1186959E-06  0.0000000E+00 -0.3870813E-03
 -0.4937066E-02  0.0000000E+00 -0.5050505E-02 -0.1218269E-06  0.0000000E+00 -0.3871654E-03
 -0.4906239E-02  0.0000000E+00 -0.5050505E-02 -0.1253399E-06  0.0000000E+00 -0.3872516E-03
 -0.4866782E-02  0.0000000E+00 -0.5050505E-02 -0.1295242E-06  0.0000000E+00 -0.3873404E-03
 -0.4827325E-02  0.0000000E+00 -0.5050505E-02 -0.1347725E-06  0.0000000E+00 -0.3874323E-03
 -0.4769372E-02  0.0000000E+00 -0.5050505E-02 -0.1416288E-06  0.0000000E+00 -0.3875281E-03
 -0.4690458E-02  0.0000000E+00 -0.5050505E-02 -0.1508619E-06  0.0000000E+00 -0.3876290E-03
 -0.4611543E-02  0.0000000E+00 -0.5050505E-02 -0.1635851E-06  0.0000000E+00 -0.3877369E-03
 -0.4503035E-02  0.0000000E+00 -0.5050505E-02 -0.1814554E-06  0.0000000E+00 -0.3878544E-03
 -0.4345206E-02  0.0000000E+00 -0.5050505E-02 -0.2070139E-06  0.0000000E+00 -0.3879855E-03
 -0.4187378E-02  0.0000000E+00 -0.5050505E-02 -0.2442930E-06  0.0000000E+00 -0.3881358E-03
 -0.3985156E-02  0.0000000E+00 -0.5050505E-02 -0.2999400E-06  0.0000000E+00 -0.3883138E-03
 -0.3669499E-02  0.0000000E+00 -0.5050505E-02 -0.3853968E-06  0.0000000E+00 -0.3885325E-03
 -0.3353842E-02  0.0000000E+00 -0.5050505E-02 -0.5213477E-06  0.0000000E+00 -0.3888116E-03
 -0.2978990E-02  0.0000000E+00 -0.5050505E-02 -0.7473130E-06  0.0000000E+00 -0.3891808E-03
 -0.2347676E-02  0.0000000E+00 -0.5050505E-02 -0.1143605E-05  0.0000000E+00 -0.3896822E-03
 -0.1716362E-02  0.0000000E+00 -0.5050505E-02 -0.1884727E-05  0.0000000E+00 -0.3903585E-03
 -0.1025842E-02  0.0000000E+00 -0.5050505E-02 -0.3377207E-05  0.0000000E+00 -0.3911644E-03
  0.2367855E-03  0.0000000E+00 -0.5050505E-02 -0.6635000E-05  0.0000000E+00 -0.3915036E-03
  0.1499413E-02  0.0000000E+00 -0.5050505E-02 -0.1434706E-04  0.0000000E+00 -0.3879981E-03
  0.5287294E-02  0.0000000E+00 -0.5050505E-02 -0.3399386E-04  0.0000000E+00 -0.3639614E-03
 -0.5050505E-02  0.0000000E+00 -0.5050505E-02  0.3578734E-08  0.0000000E+00 -0.3879329E-03
 -0.5050505E-02  0.0000000E+00 -0.5050505E-02  0.1073038E-07  0.0000000E+00 -0.3879299E-03
 -0.5050505E-02  0.0000000E+00 -0.5050505E-02  0.1786388E-07  0.0000000E+00 -0.3879238E-03
 -0.5050505E-02  0.0000000E+00 -0.5050505E-02  0.2496699E-07  0.0000000E+00 -0.3879147E-03
 -0.5050505E-02  0.0000000E+00 -0.5050505E-02  0.3202753E-07  0.0000000E+00 -0.3879025E-03
 -0.5050505E-02  0.0000000E+00 -0.5050505E-02  0.3903326E-07  0.0000000E+00 -0.3878874E-03
 -0.5050504E-02  0.0000000E+00 -0.5050505E-02  0.4597189E-07  0.0000000E+00 -0.3878694E-03
 -0.5050501E-02  0.0000000E+00 -0.5050505E-02  0.5283100E-07  0.0000000E+00 -0.3878483E-03
 -0.5050495E-02  0.0000000E+00 -0.5050505E-02  0.5959812E-07  0.0000000E+00 -0.3878244E-03
 -0.5050482E-02  0.0000000E+00 -0.5050505E-02  0.6626067E-07  0.0000000E+00 -0.3877977E-03
 -0.5050449E-02  0.0000000E+00 -0.5050505E-02  0.7280592E-07  0.0000000E+00 -0.3877681E-03
 -0.5050376E-02  0.0000000E+00 -0.5050505E-02  0.7922105E-07  0.0000000E+00 -0.3877357E-03
 -0.5050299E-02  0.0000000E+00 -0.5050505E-02  0.8549308E-07  0.0000000E+00 -0.3877007E-03
 -0.5050178E-02  0.0000000E+00 -0.5050505E-02  0.9160889E-07  0.0000000E+00 -0.3876630E-03
 -0.5050018E-02  0.0000000E+00 -0.5050505E-02  0.9755520E-07  0.0000000E+00 -0.3876228E-03
 -0.5049710E-02  0.0000000E+00 -0.5050505E-02  0.1033186E-06  0.0000000E+00 -0.3875800E-03
 -0.5049253E-02  0.0000000E+00 -0.5050505E-02  0.1088854E-06  0.0000000E+00 -0.3875349E-03
 -0.5048636E-02  0.0000000E+00 -0.5050505E-02  0.1142418E-06  0.0000000E+00 -0.3874874E-03
 -0.5047442E-02  0.0000000E+00 -0.5050505E-02  0.1193739E-06  0.0000000E+00 -0.3874377E-03
 -0.5045727E-02  0.0000000E+00 -0.5050505E-02  0.1242675E-06  0.0000000E+00 -0.3873858E-03
 -0.5043261E-02  0.0000000E+00 -0.5050505E-02  0.1289082E-06  0.0000000E+00 -0.3873319E-03
 -0.5038714E-02  0.0000000E+00 -0.5050505E-02  0.1332814E-06  0.0000000E+00 -0.3872761E-03
 -0.5032318E-02  0.0000000E+00 -0.5050505E-02  0.1373723E-06  0.0000000E+00 -0.3872184E-03
 -0.5022454E-02  0.0000000E+00 -0.5050505E-02  0.1411659E-06  0.0000000E+00 -0.3871591E-03
 -0.5012589E-02  0.0000000E+00 -0.5050505E-02  0.1446469E-06  0.0000000E+00 -0.3870982E-03
 -0.5002725E-02  0.0000000E+00 -0.5050505E-02  0.1478000E-06  0.0000000E+00 -0.3870359E-03
 -0.4992860E-02  0.0000000E+00 -0.5050505E-02  0.1506093E-06  0.0000000E+00 -0.3869723E-03
 -0.4976523E-02  0.0000000E+00 -0.5050505E-02  0.1530591E-06  0.0000000E+00 -0.3869075E-03
 -0.4956794E-02  0.0000000E+00 -0.5050505E-02  0.1551331E-06  0.0000000E+00 -0.3868418E-03
 -0.4937066E-02  0.0000000E+00 -0.5050505E-02  0.1568151E-06  0.0000000E+00 -0.3867753E-03
 -0.4906239E-02  0.0000000E+00 -0.5050505E-02  0.1580885E-06  0.0000000E+00 -0.3867081E-03
 -0.4866782E-02  0.0000000E+00 -0.5050505E-02  0.1589367E-06  0.0000000E+00 -0.3866405E-03
 -0.4827325E-02  0.0000000E+00 -0.5050505E-02  0.1593429E-06  0.0000000E+00 -0.3865725E-03
 -0.4769372E-02  0.0000000E+00 -0.5050505E-02  0.1592902E-06  0.0000000E+00 -0.3865045E-03
 -0.4690458E-02  0.0000000E+00 -0.5050505E-02  0.1587618E-06  0.0000000E+00 -0.3864365E-03
 -0.4611543E-02  0.0000000E+00 -0.5050505E-02  0.1577410E-06  0.0000000E+00 -0.3863689E-03
 -0.4503035E-02  0.0000000E+00 -0.5050505E-02  0.1562113E-06  0.0000000E+00 -0.3863018E-03
 -0.4345206E-02  0.0000000E+00 -0.5050505E-02  0.1541566E-06  0.0000000E+00 -0.3862354E-03
 -0.4187378E-02  0.0000000E+00 -0.5050505E-02  0.1515614E-06  0.0000000E+00 -0.3861699E-03
 -0.3985156E-02  0.0000000E+00 -0.5050505E-02  0.1484110E-06  0.0000000E+00 -0.3861057E-03
 -0.3669499E-02  0.0000000E+00 -0.5050505E-02  0.1446916E-06  0.0000000E+00 -0.3860429E-03
 -0.3353842E-02  0.0000000E+00 -0.5050505E-02  0.1403911E-06  0.0000000E+00 -0.3859818E-03
 -0.2978990E-02  0.0000000E+00 -0.5050505E-02  0.1354991E-06  0.0000000E+00 -0.3859226E-03
 -0.2347676E-02  0.0000000E+00 -0.5050505E-02  0.1300070E-06  0.0000000E+00 -0.3858657E-03
 -0.1716362E-02  0.0000000E+00 -0.5050505E-02  0.1239093E-06  0.0000000E+00 -0.3858111E-03
 -0.1025842E-02  0.0000000E+00 -0.5050505E-02  0.1172034E-06  0.0000000E+00 -0.3857593E-03
  0.2367855E-03  0.0000000E+00 -0.5050505E-02  0.1098903E-06  0.0000000E+00 -0.3857104E-03
  0.1499413E-02  0.0000000E+00 -0.5050505E-02  0.1019754E-06  0.0000000E+00 -0.3856648E-03
  0.2762042E-02  0.0000000E+00 -0.5050505E-02  0.9346862E-07  0.0000000E+00 -0.3856226E-03
 -0.5050505E-02  0.0000000E+00 -0.5050505E-02  0.8438541E-07  0.0000000E+00 -0.3855842E-03
 -0.5050505E-02  0.0000000E+00 -0.5050505E-02  0.7474695E-07  0.0000000E+00 -0.3855498E-03
 -0.5050505E-02  0.0000000E+00 -0.5050505E-02  0.6458069E-07  0.0000000E+00 -0.3855196E-03
 -0.5050505E-02  0.0000000E+00 -0.5050505E-02  0.5392075E-07  0.0000000E+00 -0.3854938E-03
 -0.5050505E-02  0.0000000E+00 -0.5050505E-02  0.4280811E-07  0.0000000E+00 -0.3854727E-03
 -0.5050505E-02  0.0000000E+00 -0.5050505E-02  0.3129075E-07  0.0000000E+00 -0.3854565E-03
 -0.5050505E-02  0.0000000E+00 -0.5050505E-02  0.1942354E-07  0.0000000E+00 -0.3854452E-03
 -0.5050504E-02  0.0000000E+00 -0.5050505E-02  0.7267973E-08  0.0000000E+00 -0.3854391E-03
 -0.5050501E-02  0.0000000E+00 -0.5050505E-02 -0.5108306E-08  0.0000000E+00 -0.3854383E-03
 -0.5050495E-02  0.0000000E+00 -0.5050505E-02 -0.1763224E-07  0.0000000E+00 -0.3854428E-03
 -0.5050482E-02  0.0000000E+00 -0.5050505E-02 -0.3022628E-07  0.0000000E+00 -0.3854528E-03
 -0.5050449E-02  0.0000000E+00 -0.5050505E-02 -0.4280957E-07  0.0000000E+00 -0.3854681E-03
 -0.5050376E-02  0.0000000E+00 -0.5050505E-02 -0.5529928E-07  0.0000000E+00 -0.3854888E-03
 -0.5050299E-02  0.0000000E+00 -0.5050505E-02 -0.6761211E-07  0.0000000E+00 -0.3855149E-03
 -0.5050178E-02  0.0000000E+00 -0.5050505E-02 -0.7966597E-07  0.0000000E+00 -0.3855462E-03
 -0.5050018E-02  0.0000000E+00 -0.5050505E-02 -0.9138169E-07  0.0000000E+00 -0.3855827E-03
 -0.5049710E-02  0.0000000E+00 -0.5050505E-02 -0.1026848E-06  0.0000000E+00 -0.3856241E-03
 -0.5049253E-02  0.0000000E+00 -0.5050505E-02 -0.1135075E-06  0.0000000E+00 -0.3856702E-03
 -0.5048636E-02  0.0000000E+00 -0.5050505E-02 -0.1237902E-06  0.0000000E+00 -0.3857209E-03
 -0.5047442E-02  0.0000000E+00 -0.5050505E-02 -0.1334834E-06  0.0000000E+00 -0.3857758E-03
 -0.5045727E-02  0.0000000E+00 -0.5050505E-02 -0.1425496E-06  0.0000000E+00 -0.3858348E-03
 -0.5043261E-02  0.0000000E+00 -0.5050505E-02 -0.1509649E-06  0.0000000E+00 -0.3858974E-03
 -0.5038714E-02  0.0000000E+00 -0.5050505E-02 -0.1587210E-06  0.0000000E+00 -0.3859635E-03
 -0.5032318E-02  0.0000000E+00 -0.5050505E-02 -0.1658268E-06  0.0000000E+00 -0.3860328E-03
 -0.5022454E-02  0.0000000E+00 -0.5050505E-02 -0.1723113E-06  0.0000000E+00 -0.3861049E-03
 -0.5012589E-02  0.0000000E+00 -0.5050505E-02 -0.1782260E-06  0.0000000E+00 -0.3861796E-03
 -0.5002725E-02  0.0000000E+00 -0.5050505E-02 -0.1836485E-06  0.0000000E+00 -0.3862565E-03
 -0.4992860E-02  0.0000000E+00 -0.5050505E-02 -0.1886880E-06  0.0000000E+00 -0.3863356E-03
 -0.4976523E-02  0.0000000E+00 -0.5050505E-02 -0.1934915E-06  0.0000000E+00 -0.3864166E-03
 -0.4956794E-02  0.0000000E+00 -0.5050505E-02 -0.1982536E-06  0.0000000E+00 -0.3864994E-03
 -0.4937066E-02  0.0000000E+00 -0.5050505E-02 -0.2032306E-06  0.0000000E+00 -0.3865840E-03
 -0.4906239E-02  0.0000000E+00 -0.5050505E-02 -0.2087603E-06  0.0000000E+00 -0.3866705E-03
 -0.4866782E-02  0.0000000E+00 -0.5050505E-02 -0.2152915E-06  0.0000000E+00 -0.3867590E-03
 -0.4827325E-02  0.0000000E+00 -0.5050505E-02 -0.2234284E-06  0.0000000E+00 -0.3868500E-03
 -0.4769372E-02  0.0000000E+00 -0.5050505E-02 -0.2339972E-06  0.0000000E+00 -0.3869439E-03
 -0.4690458E-02  0.0000000E+00 -0.5050505E-02 -0.2481496E-06  0.0000000E+00 -0.3870418E-03
 -0.4611543E-02  0.0000000E+00 -0.5050505E-02 -0.2675256E-06  0.0000000E+00 -0.3871448E-03
 -0.4503035E-02  0.0000000E+00 -0.5050505E-02 -0.2945163E-06  0.0000000E+00 -0.3872547E-03
 -0.4345206E-02  0.0000000E+00 -0.5050505E-02 -0.3326967E-06  0.0000000E+00 -0.3873739E-03
 -0.4187378E-02  0.0000000E+00 -0.5050505E-02 -0.3875602E-06  0.0000000E+00 -0.3875056E-03
 -0.3985156E-02  0.0000000E+00 -0.5050505E-02 -0.4677953E-06  0.0000000E+00 -0.3876538E-03
 -0.3669499E-02  0.0000000E+00 -0.5050505E-02 -0.5875626E-06  0.0000000E+00 -0.3878233E-03
 -0.3353842E-02  0.0000000E+00 -0.5050505E-02 -0.7706450E-06  0.0000000E+00 -0.3880180E-03
 -0.2978990E-02  0.0000000E+00 -0.5050505E-02 -0.1058094E-05  0.0000000E+00 -0.3882369E-03
 -0.2347676E-02  0.0000000E+00 -0.5050505E-02 -0.1522129E-05  0.0000000E+00 -0.3884602E-03
 -0.1716362E-02  0.0000000E+00 -0.5050505E-02 -0.2289576E-05  0.0000000E+00 -0.3886098E-03
 -0.1025842E-02  0.0000000E+00 -0.5050505E-02 -0.3570999E-05  0.0000000E+00 -0.3884426E-03
  0.2367855E-03  0.0000000E+00 -0.5050505E-02 -0.5640427E-05  0.0000000E+00 -0.3872934E-03
  0.1499413E-02  0.0000000E+00 -0.5050505E-02 -0.8441744E-05  0.0000000E+00 -0.3836555E-03
  0.5287294E-02  0.0000000E+00 -0.5050505E-02 -0.9219672E-05  0.0000000E+00 -0.3759260E-03
 -0.5050505E-02  0.0000000E+00 -0.5050505E-02  0.5045260E-08  0.0000000E+00 -0.3871326E-03
 -0.5050505E-02  0.0000000E+00 -0.5050505E-02  0.1512755E-07  0.0000000E+00 -0.3871295E-03
 -0.5050505E-02  0.0000000E+00 -0.5050505E-02  0.2518440E-07  0.0000000E+00 -0.3871233E-03
 -0.5050505E-02  0.0000000E+00 -0.5050505E-02  0.3519863E-07  0.0000000E+00 -0.3871140E-03
 -0.5050505E-02  0.0000000E+00 -0.5050505E-02  0.4515320E-07  0.0000000E+00 -0.3871016E-03
 -0.5050505E-02  0.0000000E+00 -0.5050505E-02  0.5503092E-07  0.0000000E+00 -0.3870861E-03
 -0.5050504E-02  0.0000000E+00 -0.5050505E-02  0.6481454E-07  0.0000000E+00 -0.3870676E-03
 -0.5050501E-02  0.0000000E+00 -0.5050505E-02  0.7448667E-07  0.0000000E+00 -0.3870462E-03
 -0.5050495E-02  0.0000000E+00 -0.5050505E-02  0.8402981E-07  0.0000000E+00 -0.3870217E-03
 -0.5050482E-02  0.0000000E+00 -0.5050505E-02  0.9342629E-07  0.0000000E+00 -0.3869943E-03
 -0.5050449E-02  0.0000000E+00 -0.5050505E-02  0.1026583E-06  0.0000000E+00 -0.3869641E-03
 -0.5050376E-02  0.0000000E+00 -0.5050505E-02  0.1117078E-06  0.0000000E+00 -0.3869310E-03
 -0.5050299E-02  0.0000000E+00 -0.5050505E-02  0.1205566E-06  0.0000000E+00 -0.3868952E-03
 -0.5050178E-02  0.0000000E+00 -0.5050505E-02  0.1291863E-06  0.0000000E+00 -0.3868566E-03
 -0.5050018E-02  0.0000000E+00 -0.5050505E-02  0.1375782E-06  0.0000000E+00 -0.3868154E-03
 -0.5049710E-02  0.0000000E+00 -0.5050505E-02  0.1457135E-06  0.0000000E+00 -0.3867717E-03
 -0.5049253E-02  0.0000000E+00 -0.5050505E-02  0.1535731E-06  0.0000000E+00 -0.3867255E-03
 -0.5048636E-02  0.0000000E+00 -0.5050505E-02  0.1611375E-06  0.0000000E+00 -0.3866769E-03
 -0.5047442E-02  0.0000000E+00 -0.5050505E-02  0.1683871E-06  0.0000000E+00 -0.3866260E-03
 -0.5045727E-02  0.0000000E+00 -0.5050505E-02  0.1753021E-06  0.0000000E+00 -0.3865729E-03
 -0.5043261E-02  0.0000000E+00 -0.5050505E-02  0.1818621E-06  0.0000000E+00 -0.3865177E-03
 -0.5038714E-02  0.0000000E+00 -0.5050505E-02  0.1880467E-06  0.0000000E+00 -0.3864605E-03
 -0.5032318E-02  0.0000000E+00 -0.5050505E-02  0.1938351E-06  0.0000000E+00 -0.3864014E-03
 -0.5022454E-02  0.0000000E+00 -0.5050505E-02  0.1992062E-06  0.0000000E+00 -0.3863406E-03
 -0.5012589E-02  0.0000000E+00 -0.5050505E-02  0.2041385E-06  0.0000000E+00 -0.3862782E-03
 -0.5002725E-02  0.0000000E+00 -0.5050505E-02  0.2086102E-06  0.0000000E+00 -0.3862143E-03
 -0.4992860E-02  0.0000000E+00 -0.5050505E-02  0.2125993E-06  0.0000000E+00 -0.3861490E-03
 -0.4976523E-02  0.0000000E+00 -0.5050505E-02  0.2160834E-06  0.0000000E+00 -0.3860826E-03
 -0.4956794E-02  0.0000000E+00 -0.5050505E-02  0.2190396E-06  0.0000000E+00 -0.3860151E-03
 -0.4937066E-02  0.0000000E+00 -0.5050505E-02  0.2214450E-06  0.0000000E+00 -0.3859468E-03