title = "dataset feddes"
variables = "x", "y", "z", "h_w", "p_w", "s_w", "theta_w", "transp", "evap"
zone t = "Flow variables, solution time =  1.700E+01 days        " i =  100, j =  100, k =    1,  f=point
  0.0000000E+00  0.0000000E+00  0.0000000E+00 -0.1000000E+02 -0.1000000E+02  0.4298033E+00  0.1839558E+00  0.0000000E+00  0.0000000E+00
  0.1010101E-01  0.0000000E+00  0.0000000E+00 -0.1000000E+02 -0.1000000E+02  0.4298033E+00  0.1839558E+00  0.0000000E+00  0.0000000E+00
  0.2020202E-01  0.0000000E+00  0.0000000E+00 -0.1000000E+02 -0.1000000E+02  0.4298033E+00  0.1839558E+00  0.0000000E+00  0.0000000E+00
  0.3030303E-01  0.0000000E+00  0.0000000E+00 -0.1000000E+02 -0.1000000E+02  0.4298033E+00  0.1839558E+00  0.0000000E+00  0.0000000E+00
  0.4040404E-01  0.0000000E+00  0.0000000E+00 -0.1000000E+02 -0.1000000E+02  0.4298033E+00  0.1839558E+00  0.0000000E+00  0.0000000E+00
  0.5050505E-01  0.0000000E+00  0.0000000E+00 -0.1000000E+02 -0.1000000E+02  0.4298033E+00  0.1839558E+00  0.0000000E+00  0.0000000E+00
  0.6060606E-01  0.0000000E+00  0.0000000E+00 -0.1000000E+02 -0.1000000E+02  0.4298033E+00  0.1839558E+00  0.0000000E+00  0.0000000E+00
  0.7070707E-01  0.0000000E+00  0.0000000E+00 -0.1000000E+02 -0.1000000E+02  0.4298033E+00  0.1839558E+00  0.0000000E+00  0.0000000E+00
  0.8080808E-01  0.0000000E+00  0.0000000E+00 -0.1000000E+02 -0.1000000E+02  0.4298033E+00  0.1839558E+00  0.0000000E+00  0.0000000E+00
  0.9090909E-01  0.0000000E+00  0.0000000E+00 -0.1000000E+02 -0.1000000E+02  0.4298033E+00  0.1839558E+00  0.0000000E+00  0.0000000E+00
  0.1010101E+00  0.0000000E+00  0.0000000E+00 -0.1000000E+02 -0.1000000E+02  0.4298033E+00  0.1839558E+00  0.0000000E+00  0.0000000E+00
  0.1111111E+00  0.0000000E+00  0.0000000E+00 -0.1000000E+02 -0.1000000E+02  0.4298033E+00  0.1839558E+00  0.0000000E+00  0.0000000E+00
  0.1212121E+00  0.0000000E+00  0.0000000E+00 -0.1000000E+02 -0.1000000E+02  0.4298033E+00  0.1839558E+00  0.0000000E+00  0.0000000E+00
  0.1313131E+00  0.0000000E+00  0.0000000E+00 -0.1000000E+02 -0.1000000E+02  0.4298033E+00  0.1839558E+00  0.0000000E+00  0.0000000E+00
  0.1414142E+00  0.0000000E+00  0.0000000E+00 -0.1000000E+02 -0.1000000E+02  0.4298033E+00  0.1839558E+00  0.0000000E+00  0.0000000E+00
  0.1515152E+00  0.0000000E+00  0.0000000E+00 -0.1000000E+02 -0.1000000E+02  0.4298033E+00  0.1839558E+00  0.0000000E+00  0.0000000E+00
  0.1616162E+00  0.0000000E+00  0.0000000E+00 -0.1000000E+02 -0.1000000E+02  0.4298033E+00  0.1839558E+00  0.0000000E+00  0.0000000E+00
  0.1717172E+00  0.0000000E+00  0.0000000E+00 -0.1000000E+02 -0.1000000E+02  0.4298033E+00  0.1839558E+00  0.0000000E+00  0.0000000E+00
  0.1818182E+00  0.0000000E+00  0.0000000E+00 -0.1000000E+02 -0.1000000E+02  0.4298033E+00  0.1839558E+00  0.0000000E+00  0.0000000E+00
  0.1919192E+00  0.0000000E+00  0.0000000E+00 -0.1000000E+02 -0.1000000E+02  0.4298033E+00  0.1839558E+00  0.0000000E+00  0.0000000E+00
  0.2020202E+00  0.0000000E+00  0.0000000E+00 -0.1000000E+02 -0.1000000E+02  0.4298033E+00  0.1839558E+00  0.0000000E+00  0.0000000E+00
  0.2121212E+00  0.0000000E+00  0.0000000E+00 -0.1000000E+02 -0.1000000E+02  0.4298033E+00  0.1839558E+00  0.0000000E+00  0.0000000E+00
  0.2222222E+00  0.0000000E+00  0.0000000E+00 -0.1000000E+02 -0.1000000E+02  0.4298033E+00  0.1839558E+00  0.0000000E+00  0.0000000E+00
  0.2323232E+00  0.0000000E+00  0.0000000E+00 -0.1000000E+02 -0.1000000E+02  0.4298033E+00  0.1839558E+00  0.0000000E+00  0.0000000E+00
  0.2424242E+00  0.0000000E+00  0.0000000E+00 -0.1000000E+02 -0.1000000E+02  0.4298033E+00  0.1839558E+00  0.0000000E+00  0.0000000E+00
  0.2525252E+00  0.0000000E+00  0.0000000E+00 -0.1000000E+02 -0.1000000E+02  0.4298033E+00  0.1839558E+00  0.0000000E+00  0.0000000E+00
  0.2626262E+00  0.0000000E+00  0.0000000E+00 -0.1000000E+02 -0.1000000E+02  0.4298033E+00  0.1839558E+00  0.0000000E+00  0.0000000E+00
  0.2727273E+00  0.0000000E+00  0.0000000E+00 -0.1000000E+02 -0.1000000E+02  0.4298033E+00  0.1839558E+00  0.0000000E+00  0.0000000E+00
  0.2828283E+00  0.0000000E+00  0.0000000E+00 -0.1000000E+02 -0.1000000E+02  0.4298033E+00  0.1839558E+00  0.0000000E+00  0.0000000E+00
  0.2929293E+00  0.0000000E+00  0.0000000E+00 -0.1000000E+02 -0.1000000E+02  0.4298033E+00  0.1839558E+00  0.0000000E+00  0.0000000E+00
  0.3030303E+00  0.0000000E+00  0.0000000E+00 -0.1000000E+02 -0.1000000E+02  0.4298033E+00  0.1839558E+00  0.0000000E+00  0.0000000E+00
  0.3131313E+00  0.0000000E+00  0.0000000E+00 -0.1000000E+02 -0.1000000E+02  0.4298033E+00  0.1839558E+00  0.0000000E+00  0.0000000E+00
  0.3232324E+00  0.0000000E+00  0.0000000E+00 -0.1000000E+02 -0.1000000E+02  0.4298033E+00  0.1839558E+00  0.0000000E+00  0.0000000E+00
  0.3333334E+00  0.0000000E+00  0.0000000E+00 -0.1000000E+02 -0.1000000E+02  0.4298033E+00  0.1839558E+00  0.0000000E+00  0.0000000E+00
  0.3434344E+00  0.0000000E+00  0.0000000E+00 -0.1000000E+02 -0.1000000E+02  0.4298033E+00  0.1839558E+00  0.0000000E+00  0.0000000E+00
  0.3535354E+00  0.0000000E+00  0.0000000E+00 -0.1000000E+02 -0.1000000E+02  0.4298033E+00  0.1839558E+00  0.0000000E+00  0.0000000E+00
  0.3636364E+00  0.0000000E+00  0.0000000E+00 -0.1000000E+02 -0.1000000E+02  0.4298033E+00  0.1839558E+00  0.0000000E+00  0.0000000E+00
  0.3737375E+00  0.0000000E+00  0.0000000E+00 -0.1000000E+02 -0.1000000E+02  0.4298033E+00  0.1839558E+00  0.0000000E+00  0.0000000E+00
  0.3838385E+00  0.0000000E+00  0.0000000E+00 -0.1000000E+02 -0.1000000E+02  0.4298033E+00  0.1839558E+00  0.0000000E+00  0.0000000E+00
  0.3939395E+00  0.0000000E+00  0.0000000E+00 -0.1000000E+02 -0.1000000E+02  0.4298033E+00  0.1839558E+00  0.0000000E+00  0.0000000E+00
  0.4040405E+00  0.0000000E+00  0.0000000E+00 -0.1000000E+02 -0.1000000E+02  0.4298033E+00  0.1839558E+00  0.0000000E+00  0.0000000E+00
  0.4141415E+00  0.0000000E+00  0.0000000E+00 -0.1000000E+02 -0.1000000E+02  0.4298033E+00  0.1839558E+00  0.0000000E+00  0.0000000E+00
  0.4242426E+00  0.0000000E+00  0.0000000E+00 -0.1000000E+02 -0.1000000E+02  0.4298033E+00  0.1839558E+00  0.0000000E+00  0.0000000E+00
  0.4343436E+00  0.0000000E+00  0.0000000E+00 -0.1000000E+02 -0.1000000E+02  0.4298033E+00  0.1839558E+00  0.0000000E+00  0.0000000E+00
  0.4444446E+00  0.0000000E+00  0.0000000E+00 -0.1000000E+02 -0.1000000E+02  0.4298033E+00  0.1839558E+00  0.0000000E+00  0.0000000E+00
  0.4545456E+00  0.0000000E+00  0.0000000E+00 -0.1000000E+02 -0.1000000E+02  0.4298033E+00  0.1839558E+00  0.0000000E+00  0.0000000E+00
  0.4646466E+00  0.0000000E+00  0.0000000E+00 -0.1000000E+02 -0.1000000E+02  0.4298033E+00  0.1839558E+00  0.0000000E+00  0.0000000E+00
  0.4747477E+00  0.0000000E+00  0.0000000E+00 -0.1000000E+02 -0.1000000E+02  0.4298033E+00  0.1839558E+00  0.0000000E+00  0.0000000E+00
  0.4848487E+00  0.0000000E+00  0.0000000E+00 -0.1000000E+02 -0.1000000E+02  0.4298033E+00  0.1839558E+00  0.0000000E+00  0.0000000E+00
  0.4949497E+00  0.0000000E+00  0.0000000E+00 -0.1000000E+02 -0.1000000E+02  0.4298033E+00  0.1839558E+00  0.0000000E+00  0.0000000E+00
  0.5050507E+00  0.0000000E+00  0.0000000E+00 -0.1000000E+02 -0.1000000E+02  0.4298033E+00  0.1839558E+00  0.0000000E+00  0.0000000E+00
  0.5151517E+00  0.0000000E+00  0.0000000E+00 -0.1000000E+02 -0.1000000E+02  0.4298033E+00  0.1839558E+00  0.0000000E+00  0.0000000E+00
  0.5252528E+00  0.0000000E+00  0.0000000E+00 -0.1000000E+02 -0.1000000E+02  0.4298033E+00  0.1839558E+00  0.0000000E+00  0.0000000E+00
  0.5353538E+00  0.0000000E+00  0.0000000E+00 -0.1000000E+02 -0.1000000E+02  0.4298033E+00  0.1839558E+00  0.0000000E+00  0.0000000E+00
  0.5454548E+00  0.0000000E+00  0.0000000E+00 -0.1000000E+02 -0.1000000E+02  0.4298033E+00  0.1839558E+00  0.0000000E+00  0.0000000E+00
  0.5555558E+00  0.0000000E+00  0.0000000E+00 -0.1000000E+02 -0.1000000E+02  0.4298033E+00  0.1839558E+00  0.0000000E+00  0.0000000E+00
  0.5656568E+00  0.0000000E+00  0.0000000E+00 -0.1000000E+02 -0.1000000E+02  0.4298033E+00  0.1839558E+00  0.0000000E+00  0.0000000E+00
  0.5757579E+00  0.0000000E+00  0.0000000E+00 -0.1000000E+02 -0.1000000E+02  0.4298033E+00  0.1839558E+00  0.0000000E+00  0.0000000E+00
  0.5858589E+00  0.0000000E+00  0.0000000E+00 -0.1000000E+02 -0.1000000E+02  0.4298033E+00  0.1839558E+00  0.0000000E+00  0.0000000E+00
  0.5959599E+00  0.0000000E+00  0.0000000E+00 -0.1000000E+02 -0.1000000E+02  0.4298033E+00  0.1839558E+00  0.0000000E+00  0.0000000E+00
  0.6060609E+00  0.0000000E+00  0.0000000E+00 -0.1000000E+02 -0.1000000E+02  0.4298033E+00  0.1839558E+00  0.0000000E+00  0.0000000E+00
  0.6161619E+00  0.0000000E+00  0.0000000E+00 -0.1000000E+02 -0.1000000E+02  0.4298033E+00  0.1839558E+00  0.0000000E+00  0.0000000E+00
  0.6262630E+00  0.0000000E+00  0.0000000E+00 -0.1000000E+02 -0.1000000E+02  0.4298033E+00  0.1839558E+00  0.0000000E+00  0.0000000E+00
  0.6363640E+00  0.0000000E+00  0.0000000E+00 -0.1000000E+02 -0.1000000E+02  0.4298033E+00  0.1839558E+00  0.0000000E+00  0.0000000E+00
  0.6464650E+00  0.0000000E+00  0.0000000E+00 -0.1000000E+02 -0.1000000E+02  0.4298033E+00  0.1839558E+00  0.0000000E+00  0.0000000E+00
  0.6565660E+00  0.0000000E+00  0.0000000E+00 -0.1000000E+02 -0.1000000E+02  0.4298033E+00  0.1839558E+00  0.0000000E+00  0.0000000E+00
  0.6666670E+00  0.0000000E+00  0.0000000E+00 -0.1000000E+02 -0.1000000E+02  0.4298033E+00  0.1839558E+00  0.0000000E+00  0.0000000E+00
  0.6767681E+00  0.0000000E+00  0.0000000E+00 -0.1000000E+02 -0.1000000E+02  0.4298033E+00  0.1839558E+00  0.0000000E+00  0.0000000E+00
  0.6868691E+00  0.0000000E+00  0.0000000E+00 -0.1000000E+02 -0.1000000E+02  0.4298033E+00  0.1839558E+00  0.0000000E+00  0.0000000E+00
  0.6969701E+00  0.0000000E+00  0.0000000E+00 -0.1000000E+02 -0.1000000E+02  0.4298033E+00  0.1839558E+00  0.0000000E+00  0.0000000E+00
  0.7070711E+00  0.0000000E+00  0.0000000E+00 -0.1000000E+02 -0.1000000E+02  0.4298033E+00  0.1839558E+00  0.0000000E+00  0.0000000E+00
  0.7171721E+00  0.0000000E+00  0.0000000E+00 -0.1000000E+02 -0.1000000E+02  0.4298033E+00  0.1839558E+00  0.0000000E+00  0.0000000E+00
  0.7272732E+00  0.0000000E+00  0.0000000E+00 -0.1000000E+02 -0.1000000E+02  0.4298033E+00  0.1839558E+00  0.0000000E+00  0.0000000E+00
  0.7373742E+00  0.0000000E+00  0.0000000E+00 -0.1000000E+02 -0.1000000E+02  0.4298033E+00  0.1839558E+00  0.0000000E+00  0.0000000E+00
  0.7474752E+00  0.0000000E+00  0.0000000E+00 -0.1000000E+02 -0.1000000E+02  0.4298033E+00  0.1839558E+00  0.0000000E+00  0.0000000E+00
  0.7575762E+00  0.0000000E+00  0.0000000E+00 -0.1000000E+02 -0.1000000E+02  0.4298033E+00  0.1839558E+00  0.0000000E+00  0.0000000E+00
  0.7676772E+00  0.0000000E+00  0.0000000E+00 -0.1000000E+02 -0.1000000E+02  0.4298033E+00  0.1839558E+00  0.0000000E+00  0.0000000E+00
  0.7777783E+00  0.0000000E+00  0.0000000E+00 -0.1000000E+02 -0.1000000E+02  0.4298033E+00  0.1839558E+00  0.0000000E+00  0.0000000E+00
  0.7878793E+00  0.0000000E+00  0.0000000E+00 -0.1000000E+02 -0.1000000E+02  0.4298033E+00  0.1839558E+00  0.0000000E+00  0.0000000E+00
  0.7979803E+00  0.0000000E+00  0.0000000E+00 -0.1000000E+02 -0.1000000E+02  0.4298033E+00  0.1839558E+00  0.0000000E+00  0.0000000E+00
  0.8080813E+00  0.0000000E+00  0.0000000E+00 -0.1000000E+02 -0.1000000E+02  0.4298033E+00  0.1839558E+00  0.0000000E+00  0.0000000E+00
  0.8181823E+00  0.0000000E+00  0.0000000E+00 -0.1000000E+02 -0.1000000E+02  0.4298033E+00  0.1839558E+00  0.0000000E+00  0.0000000E+00
  0.8282834E+00  0.0000000E+00  0.0000000E+00 -0.1000000E+02 -0.1000000E+02  0.4298033E+00  0.1839558E+00  0.0000000E+00  0.0000000E+00
  0.8383844E+00  0.0000000E+00  0.0000000E+00 -0.1000000E+02 -0.1000000E+02  0.4298033E+00  0.1839558E+00  0.0000000E+00  0.0000000E+00
  0.8484854E+00  0.0000000E+00  0.0000000E+00 -0.1000000E+02 -0.1000000E+02  0.4298033E+00  0.1839558E+00  0.0000000E+00  0.0000000E+00
  0.8585864E+00  0.0000000E+00  0.0000000E+00 -0.1000000E+02 -0.1000000E+02  0.4298033E+00  0.1839558E+00  0.0000000E+00  0.0000000E+00
  0.8686875E+00  0.0000000E+00  0.0000000E+00 -0.1000000E+02 -0.1000000E+02  0.4298033E+00  0.1839558E+00  0.0000000E+00  0.0000000E+00
  0.8787885E+00  0.0000000E+00  0.0000000E+00 -0.1000000E+02 -0.1000000E+02  0.4298033E+00  0.1839558E+00  0.0000000E+00  0.0000000E+00
  0.8888895E+00  0.0000000E+00  0.0000000E+00 -0.1000000E+02 -0.1000000E+02  0.4298033E+00  0.1839558E+00  0.0000000E+00  0.0000000E+00
  0.8989905E+00  0.0000000E+00  0.0000000E+00 -0.1000000E+02 -0.1000000E+02  0.4298033E+00  0.1839558E+00  0.0000000E+00  0.0000000E+00
  0.9090915E+00  0.0000000E+00  0.0000000E+00 -0.1000000E+02 -0.1000000E+02  0.4298033E+00  0.1839558E+00  0.0000000E+00  0.0000000E+00
  0.9191926E+00  0.0000000E+00  0.0000000E+00 -0.1000000E+02 -0.1000000E+02  0.4298033E+00  0.1839558E+00  0.0000000E+00  0.0000000E+00
  0.9292936E+00  0.0000000E+00  0.0000000E+00 -0.1000000E+02 -0.1000000E+02  0.4298033E+00  0.1839558E+00  0.0000000E+00  0.0000000E+00
  0.9393946E+00  0.0000000E+00  0.0000000E+00 -0.1000000E+02 -0.1000000E+02  0.4298033E+00  0.1839558E+00  0.0000000E+00  0.0000000E+00
  0.9494956E+00  0.0000000E+00  0.0000000E+00 -0.1000000E+02 -0.1000000E+02  0.4298033E+00  0.1839558E+00  0.0000000E+00  0.0000000E+00
  0.9595966E+00  0.0000000E+00  0.0000000E+00 -0.1000000E+02 -0.1000000E+02  0.4298033E+00  0.1839558E+00  0.0000000E+00  0.0000000E+00
  0.9696977E+00  0.0000000E+00  0.0000000E+00 -0.1000000E+02 -0.1000000E+02  0.4298033E+00  0.1839558E+00  0.0000000E+00  0.0000000E+00
  0.9797987E+00  0.0000000E+00  0.0000000E+00 -0.1000000E+02 -0.1000000E+02  0.4298033E+00  0.1839558E+00  0.0000000E+00  0.0000000E+00
  0.9898997E+00  0.0000000E+00  0.0000000E+00 -0.1000000E+02 -0.1000000E+02  0.4298033E+00  0.1839558E+00  0.0000000E+00  0.0000000E+00
  0.1000001E+01  0.0000000E+00  0.5826218E-18 -0.9885193E+01 -0.9885193E+01  0.4313268E+00  0.1846079E+00  0.0000000E+00  0.0000000E+00
  0.0000000E+00  0.0000000E+00  0.5826219E-18 -0.9814347E+01 -0.9824448E+01  0.4321425E+00  0.1849570E+00  0.0000000E+00  0.0000000E+00
  0.1010101E-01  0.0000000E+00  0.5826219E-18 -0.9814347E+01 -0.9824448E+01  0.4321425E+00  0.1849570E+00  0.0000000E+00  0.0000000E+00
  0.2020202E-01  0.0000000E+00  0.5826219E-18 -0.9814347E+01 -0.9824448E+01  0.4321425E+00  0.1849570E+00  0.0000000E+00  0.0000000E+00
  0.3030303E-01  0.0000000E+00  0.5826219E-18 -0.9814348E+01 -0.9824449E+01  0.4321424E+00  0.1849570E+00  0.0000000E+00  0.0000000E+00
  0.4040404E-01  0.0000000E+00  0.5826219E-18 -0.9814349E+01 -0.9824450E+01  0.4321424E+00  0.1849570E+00  0.0000000E+00  0.0000000E+00
  0.5050505E-01  0.0000000E+00  0.5826219E-18 -0.9814350E+01 -0.9824451E+01  0.4321424E+00  0.1849570E+00  0.0000000E+00  0.0000000E+00
  0.6060606E-01  0.0000000E+00  0.5826219E-18 -0.9814351E+01 -0.9824452E+01  0.4321424E+00  0.1849570E+00  0.0000000E+00  0.0000000E+00
  0.7070707E-01  0.0000000E+00  0.5826219E-18 -0.9814352E+01 -0.9824453E+01  0.4321424E+00  0.1849569E+00  0.0000000E+00  0.0000000E+00
  0.8080808E-01  0.0000000E+00  0.5826219E-18 -0.9814354E+01 -0.9824455E+01  0.4321424E+00  0.1849569E+00  0.0000000E+00  0.0000000E+00
  0.9090909E-01  0.0000000E+00  0.5826219E-18 -0.9814356E+01 -0.9824457E+01  0.4321423E+00  0.1849569E+00  0.0000000E+00  0.0000000E+00
  0.1010101E+00  0.0000000E+00  0.5826219E-18 -0.9814358E+01 -0.9824459E+01  0.4321423E+00  0.1849569E+00  0.0000000E+00  0.0000000E+00
  0.1111111E+00  0.0000000E+00  0.5826219E-18 -0.9814360E+01 -0.9824461E+01  0.4321423E+00  0.1849569E+00  0.0000000E+00  0.0000000E+00
  0.1212121E+00  0.0000000E+00  0.5826219E-18 -0.9814362E+01 -0.9824463E+01  0.4321423E+00  0.1849569E+00  0.0000000E+00  0.0000000E+00
  0.1313131E+00  0.0000000E+00  0.5826219E-18 -0.9814365E+01 -0.9824466E+01  0.4321422E+00  0.1849569E+00  0.0000000E+00  0.0000000E+00
  0.1414142E+00  0.0000000E+00  0.5826219E-18 -0.9814368E+01 -0.9824469E+01  0.4321422E+00  0.1849569E+00  0.0000000E+00  0.0000000E+00
  0.1515152E+00  0.0000000E+00  0.5826219E-18 -0.9814370E+01 -0.9824471E+01  0.4321421E+00  0.1849568E+00  0.0000000E+00  0.0000000E+00
  0.1616162E+00  0.0000000E+00  0.5826219E-18 -0.9814373E+01 -0.9824474E+01  0.4321421E+00  0.1849568E+00  0.0000000E+00  0.0000000E+00
  0.1717172E+00  0.0000000E+00  0.5826219E-18 -0.9814377E+01 -0.9824478E+01  0.4321421E+00  0.1849568E+00  0.0000000E+00  0.0000000E+00
  0.1818182E+00  0.0000000E+00  0.5826219E-18 -0.9814380E+01 -0.9824481E+01  0.4321420E+00  0.1849568E+00  0.0000000E+00  0.0000000E+00
  0.1919192E+00  0.0000000E+00  0.5826219E-18 -0.9814383E+01 -0.9824484E+01  0.4321420E+00  0.1849568E+00  0.0000000E+00  0.0000000E+00
  0.2020202E+00  0.0000000E+00  0.5826219E-18 -0.9814387E+01 -0.9824488E+01  0.4321419E+00  0.1849567E+00  0.0000000E+00  0.0000000E+00
  0.2121212E+00  0.0000000E+00  0.5826219E-18 -0.9814390E+01 -0.9824492E+01  0.4321419E+00  0.1849567E+00  0.0000000E+00  0.0000000E+00
  0.2222222E+00  0.0000000E+00  0.5826219E-18 -0.9814394E+01 -0.9824495E+01  0.4321418E+00  0.1849567E+00  0.0000000E+00  0.0000000E+00
  0.2323232E+00  0.0000000E+00  0.5826219E-18 -0.9814398E+01 -0.9824499E+01  0.4321418E+00  0.1849567E+00  0.0000000E+00  0.0000000E+00
  0.2424242E+00  0.0000000E+00  0.5826219E-18 -0.9814402E+01 -0.9824503E+01  0.4321417E+00  0.1849567E+00  0.0000000E+00  0.0000000E+00
  0.2525252E+00  0.0000000E+00  0.5826219E-18 -0.9814406E+01 -0.9824507E+01  0.4321417E+00  0.1849566E+00  0.0000000E+00  0.0000000E+00
  0.2626262E+00  0.0000000E+00  0.5826219E-18 -0.9814409E+01 -0.9824510E+01  0.4321416E+00  0.1849566E+00  0.0000000E+00  0.0000000E+00
  0.2727273E+00  0.0000000E+00  0.5826219E-18 -0.9814413E+01 -0.9824514E+01  0.4321416E+00  0.1849566E+00  0.0000000E+00  0.0000000E+00
  0.2828283E+00  0.0000000E+00  0.5826219E-18 -0.9814417E+01 -0.9824518E+01  0.4321415E+00  0.1849566E+00  0.0000000E+00  0.0000000E+00
  0.2929293E+00  0.0000000E+00  0.5826219E-18 -0.9814421E+01 -0.9824522E+01  0.4321415E+00  0.1849565E+00  0.0000000E+00  0.0000000E+00
  0.3030303E+00  0.0000000E+00  0.5826219E-18 -0.9814425E+01 -0.9824526E+01  0.4321414E+00  0.1849565E+00  0.0000000E+00  0.0000000E+00
  0.3131313E+00  0.0000000E+00  0.5826219E-18 -0.9814428E+01 -0.9824529E+01  0.4321414E+00  0.1849565E+00  0.0000000E+00  0.0000000E+00
  0.3232324E+00  0.0000000E+00  0.5826219E-18 -0.9814432E+01 -0.9824533E+01  0.4321413E+00  0.1849565E+00  0.0000000E+00  0.0000000E+00
  0.3333334E+00  0.0000000E+00  0.5826219E-18 -0.9814436E+01 -0.9824537E+01  0.4321413E+00  0.1849565E+00  0.0000000E+00  0.0000000E+00
  0.3434344E+00  0.0000000E+00  0.5826219E-18 -0.9814439E+01 -0.9824540E+01  0.4321412E+00  0.1849564E+00  0.0000000E+00  0.0000000E+00
  0.3535354E+00  0.0000000E+00  0.5826219E-18 -0.9814442E+01 -0.9824543E+01  0.4321412E+00  0.1849564E+00  0.0000000E+00  0.0000000E+00
  0.3636364E+00  0.0000000E+00  0.5826219E-18 -0.9814445E+01 -0.9824546E+01  0.4321411E+00  0.1849564E+00  0.0000000E+00  0.0000000E+00
  0.3737375E+00  0.0000000E+00  0.5826219E-18 -0.9814448E+01 -0.9824549E+01  0.4321411E+00  0.1849564E+00  0.0000000E+00  0.0000000E+00
  0.3838385E+00  0.0000000E+00  0.5826219E-18 -0.9814451E+01 -0.9824552E+01  0.4321411E+00  0.1849564E+00  0.0000000E+00  0.0000000E+00
  0.3939395E+00  0.0000000E+00  0.5826219E-18 -0.9814454E+01 -0.9824555E+01  0.4321410E+00  0.1849564E+00  0.0000000E+00  0.0000000E+00
  0.4040405E+00  0.0000000E+00  0.5826219E-18 -0.9814456E+01 -0.9824557E+01  0.4321410E+00  0.1849563E+00  0.0000000E+00  0.0000000E+00
  0.4141415E+00  0.0000000E+00  0.5826219E-18 -0.9814459E+01 -0.9824560E+01  0.4321410E+00  0.1849563E+00  0.0000000E+00  0.0000000E+00
  0.4242426E+00  0.0000000E+00  0.5826219E-18 -0.9814461E+01 -0.9824562E+01  0.4321409E+00  0.1849563E+00  0.0000000E+00  0.0000000E+00
  0.4343436E+00  0.0000000E+00  0.5826219E-18 -0.9814462E+01 -0.9824563E+01  0.4321409E+00  0.1849563E+00  0.0000000E+00  0.0000000E+00
  0.4444446E+00  0.0000000E+00  0.5826219E-18 -0.9814464E+01 -0.9824565E+01  0.4321409E+00  0.1849563E+00  0.0000000E+00  0.0000000E+00
  0.4545456E+00  0.0000000E+00  0.5826219E-18 -0.9814465E+01 -0.9824566E+01  0.4321409E+00  0.1849563E+00  0.0000000E+00  0.0000000E+00
  0.4646466E+00  0.0000000E+00  0.5826219E-18 -0.9814466E+01 -0.9824567E+01  0.4321409E+00  0.1849563E+00  0.0000000E+00  0.0000000E+00
  0.4747477E+00  0.0000000E+00  0.5826219E-18 -0.9814467E+01 -0.9824568E+01  0.4321408E+00  0.1849563E+00  0.0000000E+00  0.0000000E+00
  0.4848487E+00  0.0000000E+00  0.5826219E-18 -0.9814467E+01 -0.9824568E+01  0.4321408E+00  0.1849563E+00  0.0000000E+00  0.0000000E+00
  0.4949497E+00  0.0000000E+00  0.5826219E-18 -0.9814467E+01 -0.9824568E+01  0.4321408E+00  0.1849563E+00  0.0000000E+00  0.0000000E+00
  0.5050507E+00  0.0000000E+00  0.5826219E-18 -0.9814467E+01 -0.9824568E+01  0.4321408E+00  0.1849563E+00  0.0000000E+00  0.0000000E+00
  0.5151517E+00  0.0000000E+00  0.5826219E-18 -0.9814466E+01 -0.9824567E+01  0.4321409E+00  0.1849563E+00  0.0000000E+00  0.0000000E+00
  0.5252528E+00  0.0000000E+00  0.5826219E-18 -0.9814465E+01 -0.9824566E+01  0.4321409E+00  0.1849563E+00  0.0000000E+00  0.0000000E+00
  0.5353538E+00  0.0000000E+00  0.5826219E-18 -0.9814464E+01 -0.9824565E+01  0.4321409E+00  0.1849563E+00  0.0000000E+00  0.0000000E+00
  0.5454548E+00  0.0000000E+00  0.5826219E-18 -0.9814463E+01 -0.9824564E+01  0.4321409E+00  0.1849563E+00  0.0000000E+00  0.0000000E+00
  0.5555558E+00  0.0000000E+00  0.5826219E-18 -0.9814461E+01 -0.9824562E+01  0.4321409E+00  0.1849563E+00  0.0000000E+00  0.0000000E+00
  0.5656568E+00  0.0000000E+00  0.5826219E-18 -0.9814459E+01 -0.9824560E+01  0.4321410E+00  0.1849563E+00  0.0000000E+00  0.0000000E+00
  0.5757579E+00  0.0000000E+00  0.5826219E-18 -0.9814456E+01 -0.9824557E+01  0.4321410E+00  0.1849563E+00  0.0000000E+00  0.0000000E+00
  0.5858589E+00  0.0000000E+00  0.5826219E-18 -0.9814453E+01 -0.9824554E+01  0.4321410E+00  0.1849564E+00  0.0000000E+00  0.0000000E+00
  0.5959599E+00  0.0000000E+00  0.5826219E-18 -0.9814450E+01 -0.9824551E+01  0.4321411E+00  0.1849564E+00  0.0000000E+00  0.0000000E+00
  0.6060609E+00  0.0000000E+00  0.5826219E-18 -0.9814446E+01 -0.9824547E+01  0.4321411E+00  0.1849564E+00  0.0000000E+00  0.0000000E+00
  0.6161619E+00  0.0000000E+00  0.5826219E-18 -0.9814443E+01 -0.9824544E+01  0.4321412E+00  0.1849564E+00  0.0000000E+00  0.0000000E+00
  0.6262630E+00  0.0000000E+00  0.5826219E-18 -0.9814438E+01 -0.9824539E+01  0.4321412E+00  0.1849564E+00  0.0000000E+00  0.0000000E+00
  0.6363640E+00  0.0000000E+00  0.5826219E-18 -0.9814434E+01 -0.9824535E+01  0.4321413E+00  0.1849565E+00  0.0000000E+00  0.0000000E+00
  0.6464650E+00  0.0000000E+00  0.5826219E-18 -0.9814429E+01 -0.9824530E+01  0.4321414E+00  0.1849565E+00  0.0000000E+00  0.0000000E+00
  0.6565660E+00  0.0000000E+00  0.5826219E-18 -0.9814424E+01 -0.9824525E+01  0.4321414E+00  0.1849565E+00  0.0000000E+00  0.0000000E+00
  0.6666670E+00  0.0000000E+00  0.5826219E-18 -0.9814418E+01 -0.9824519E+01  0.4321415E+00  0.1849566E+00  0.0000000E+00  0.0000000E+00
  0.6767681E+00  0.0000000E+00  0.5826219E-18 -0.9814413E+01 -0.9824514E+01  0.4321416E+00  0.1849566E+00  0.0000000E+00  0.0000000E+00
  0.6868691E+00  0.0000000E+00  0.5826219E-18 -0.9814406E+01 -0.9824507E+01  0.4321417E+00  0.1849566E+00  0.0000000E+00  0.0000000E+00
  0.6969701E+00  0.0000000E+00  0.5826219E-18 -0.9814400E+01 -0.9824501E+01  0.4321417E+00  0.1849567E+00  0.0000000E+00  0.0000000E+00
  0.7070711E+00  0.0000000E+00  0.5826219E-18 -0.9814393E+01 -0.9824494E+01  0.4321418E+00  0.1849567E+00  0.0000000E+00  0.0000000E+00
  0.7171721E+00  0.0000000E+00  0.5826219E-18 -0.9814386E+01 -0.9824487E+01  0.4321419E+00  0.1849568E+00  0.0000000E+00  0.0000000E+00
  0.7272732E+00  0.0000000E+00  0.5826219E-18 -0.9814378E+01 -0.9824479E+01  0.4321420E+00  0.1849568E+00  0.0000000E+00  0.0000000E+00
  0.7373742E+00  0.0000000E+00  0.5826219E-18 -0.9814370E+01 -0.9824471E+01  0.4321422E+00  0.1849568E+00  0.0000000E+00  0.0000000E+00
  0.7474752E+00  0.0000000E+00  0.5826219E-18 -0.9814361E+01 -0.9824462E+01  0.4321423E+00  0.1849569E+00  0.0000000E+00  0.0000000E+00
  0.7575762E+00  0.0000000E+00  0.5826219E-18 -0.9814352E+01 -0.9824453E+01  0.4321424E+00  0.1849569E+00  0.0000000E+00  0.0000000E+00
  0.7676772E+00  0.0000000E+00  0.5826219E-18 -0.9814342E+01 -0.9824443E+01  0.4321425E+00  0.1849570E+00  0.0000000E+00  0.0000000E+00
  0.7777783E+00  0.0000000E+00  0.5826219E-18 -0.9814332E+01 -0.9824433E+01  0.4321427E+00  0.1849571E+00  0.0000000E+00  0.0000000E+00
  0.7878793E+00  0.0000000E+00  0.5826219E-18 -0.9814320E+01 -0.9824421E+01  0.4321428E+00  0.1849571E+00  0.0000000E+00  0.0000000E+00
  0.7979803E+00  0.0000000E+00  0.5826219E-18 -0.9814308E+01 -0.9824409E+01  0.4321430E+00  0.1849572E+00  0.0000000E+00  0.0000000E+00
  0.8080813E+00  0.0000000E+00  0.5826219E-18 -0.9814294E+01 -0.9824395E+01  0.4321432E+00  0.1849573E+00  0.0000000E+00  0.0000000E+00
  0.8181823E+00  0.0000000E+00  0.5826219E-18 -0.9814279E+01 -0.9824380E+01  0.4321434E+00  0.1849574E+00  0.0000000E+00  0.0000000E+00
  0.8282834E+00  0.0000000E+00  0.5826219E-18 -0.9814262E+01 -0.9824363E+01  0.4321436E+00  0.1849575E+00  0.0000000E+00  0.0000000E+00
  0.8383844E+00  0.0000000E+00  0.5826219E-18 -0.9814243E+01 -0.9824344E+01  0.4321439E+00  0.1849576E+00  0.0000000E+00  0.0000000E+00
  0.8484854E+00  0.0000000E+00  0.5826219E-18 -0.9814220E+01 -0.9824321E+01  0.4321442E+00  0.1849577E+00  0.0000000E+00  0.0000000E+00
  0.8585864E+00  0.0000000E+00  0.5826219E-18 -0.9814194E+01 -0.9824295E+01  0.4321445E+00  0.1849579E+00  0.0000000E+00  0.0000000E+00
  0.8686875E+00  0.0000000E+00  0.5826219E-18 -0.9814162E+01 -0.9824263E+01  0.4321449E+00  0.1849580E+00  0.0000000E+00  0.0000000E+00
  0.8787885E+00  0.0000000E+00  0.5826219E-18 -0.9814124E+01 -0.9824225E+01  0.4321455E+00  0.1849583E+00  0.0000000E+00  0.0000000E+00
  0.8888895E+00  0.0000000E+00  0.5826219E-18 -0.9814075E+01 -0.9824176E+01  0.4321461E+00  0.1849585E+00  0.0000000E+00  0.0000000E+00
  0.8989905E+00  0.0000000E+00  0.5826219E-18 -0.9814013E+01 -0.9824114E+01  0.4321470E+00  0.1849589E+00  0.0000000E+00  0.0000000E+00
  0.9090915E+00  0.0000000E+00  0.5826219E-18 -0.9813930E+01 -0.9824031E+01  0.4321481E+00  0.1849594E+00  0.0000000E+00  0.0000000E+00
  0.9191926E+00  0.0000000E+00  0.5826219E-18 -0.9813816E+01 -0.9823917E+01  0.4321496E+00  0.1849600E+00  0.0000000E+00  0.0000000E+00
  0.9292936E+00  0.0000000E+00  0.5826219E-18 -0.9813653E+01 -0.9823754E+01  0.4321518E+00  0.1849610E+00  0.0000000E+00  0.0000000E+00
  0.9393946E+00  0.0000000E+00  0.5826219E-18 -0.9813405E+01 -0.9823506E+01  0.4321552E+00  0.1849624E+00  0.0000000E+00  0.0000000E+00
  0.9494956E+00  0.0000000E+00  0.5826219E-18 -0.9813003E+01 -0.9823104E+01  0.4321606E+00  0.1849647E+00  0.0000000E+00  0.0000000E+00
  0.9595966E+00  0.0000000E+00  0.5826219E-18 -0.9812290E+01 -0.9822391E+01  0.4321702E+00  0.1849688E+00  0.0000000E+00  0.0000000E+00
  0.9696977E+00  0.0000000E+00  0.5826219E-18 -0.9810881E+01 -0.9820982E+01  0.4321892E+00  0.1849770E+00  0.0000000E+00  0.0000000E+00
  0.9797987E+00  0.0000000E+00  0.5826219E-18 -0.9807693E+01 -0.9817794E+01  0.4322322E+00  0.1849954E+00  0.0000000E+00  0.0000000E+00
  0.9898997E+00  0.0000000E+00  0.5826219E-18 -0.9799309E+01 -0.9809410E+01  0.4323454E+00  0.1850438E+00  0.0000000E+00  0.0000000E+00
  0.1000001E+01  0.0000000E+00  0.1491512E-15 -0.9773800E+01 -0.9783901E+01  0.4326906E+00  0.1851916E+00  0.0000000E+00  0.0000000E+00
  0.0000000E+00  0.0000000E+00  0.1491512E-15 -0.9637782E+01 -0.9657984E+01  0.4344122E+00  0.1859284E+00  0.0000000E+00  0.0000000E+00
  0.1010101E-01  0.0000000E+00  0.1491512E-15 -0.9637783E+01 -0.9657985E+01  0.4344122E+00  0.1859284E+00  0.0000000E+00  0.0000000E+00
  0.2020202E-01  0.0000000E+00  0.1491512E-15 -0.9637783E+01 -0.9657985E+01  0.4344122E+00  0.1859284E+00  0.0000000E+00  0.0000000E+00
  0.3030303E-01  0.0000000E+00  0.1491512E-15 -0.9637784E+01 -0.9657986E+01  0.4344122E+00  0.1859284E+00  0.0000000E+00  0.0000000E+00
  0.4040404E-01  0.0000000E+00  0.1491512E-15 -0.9637786E+01 -0.9657988E+01  0.4344122E+00  0.1859284E+00  0.0000000E+00  0.0000000E+00
  0.5050505E-01  0.0000000E+00  0.1491512E-15 -0.9637788E+01 -0.9657990E+01  0.4344122E+00  0.1859284E+00  0.0000000E+00  0.0000000E+00
  0.6060606E-01  0.0000000E+00  0.1491512E-15 -0.9637790E+01 -0.9657992E+01  0.4344121E+00  0.1859284E+00  0.0000000E+00  0.0000000E+00
  0.7070707E-01  0.0000000E+00  0.1491512E-15 -0.9637793E+01 -0.9657995E+01  0.4344121E+00  0.1859284E+00  0.0000000E+00  0.0000000E+00
  0.8080808E-01  0.0000000E+00  0.1491512E-15 -0.9637796E+01 -0.9657998E+01  0.4344120E+00  0.1859284E+00  0.0000000E+00  0.0000000E+00
  0.9090909E-01  0.0000000E+00  0.1491512E-15 -0.9637799E+01 -0.9658001E+01  0.4344120E+00  0.1859283E+00  0.0000000E+00  0.0000000E+00
  0.1010101E+00  0.0000000E+00  0.1491512E-15 -0.9637803E+01 -0.9658005E+01  0.4344119E+00  0.1859283E+00  0.0000000E+00  0.0000000E+00
  0.1111111E+00  0.0000000E+00  0.1491512E-15 -0.9637807E+01 -0.9658009E+01  0.4344119E+00  0.1859283E+00  0.0000000E+00  0.0000000E+00
  0.1212121E+00  0.0000000E+00  0.1491512E-15 -0.9637812E+01 -0.9658014E+01  0.4344118E+00  0.1859283E+00  0.0000000E+00  0.0000000E+00
  0.1313131E+00  0.0000000E+00  0.1491512E-15 -0.9637817E+01 -0.9658019E+01  0.4344118E+00  0.1859282E+00  0.0000000E+00  0.0000000E+00
  0.1414142E+00  0.0000000E+00  0.1491512E-15 -0.9637822E+01 -0.9658024E+01  0.4344117E+00  0.1859282E+00  0.0000000E+00  0.0000000E+00
  0.1515152E+00  0.0000000E+00  0.1491512E-15 -0.9637828E+01 -0.9658030E+01  0.4344116E+00  0.1859282E+00  0.0000000E+00  0.0000000E+00
  0.1616162E+00  0.0000000E+00  0.1491512E-15 -0.9637833E+01 -0.9658035E+01  0.4344115E+00  0.1859281E+00  0.0000000E+00  0.0000000E+00
  0.1717172E+00  0.0000000E+00  0.1491512E-15 -0.9637840E+01 -0.9658042E+01  0.4344114E+00  0.1859281E+00  0.0000000E+00  0.0000000E+00
  0.1818182E+00  0.0000000E+00  0.1491512E-15 -0.9637846E+01 -0.9658048E+01  0.4344114E+00  0.1859281E+00  0.0000000E+00  0.0000000E+00