title = "dataset feddes"
variables = "x", "y", "z", "vx", "vy", "vz"
zone t = "velocities, solution time =  5.300E+01 days        " i =   99, j =   99, k =    1,  f=point
 -0.5050505E-02  0.0000000E+00 -0.5050505E-02  0.7868219E-07  0.0000000E+00  0.3346815E-04
 -0.5050505E-02  0.0000000E+00 -0.5050505E-02  0.2362963E-06  0.0000000E+00  0.3378534E-04
 -0.5050505E-02  0.0000000E+00 -0.5050505E-02  0.3946678E-06  0.0000000E+00  0.3442078E-04
 -0.5050505E-02  0.0000000E+00 -0.5050505E-02  0.5543167E-06  0.0000000E+00  0.3537656E-04
 -0.5050505E-02  0.0000000E+00 -0.5050505E-02  0.7157794E-06  0.0000000E+00  0.3665590E-04
 -0.5050505E-02  0.0000000E+00 -0.5050505E-02  0.8796139E-06  0.0000000E+00  0.3826316E-04
 -0.5050504E-02  0.0000000E+00 -0.5050505E-02  0.1046405E-05  0.0000000E+00  0.4020389E-04
 -0.5050501E-02  0.0000000E+00 -0.5050505E-02  0.1216770E-05  0.0000000E+00  0.4248489E-04
 -0.5050495E-02  0.0000000E+00 -0.5050505E-02  0.1391367E-05  0.0000000E+00  0.4511431E-04
 -0.5050482E-02  0.0000000E+00 -0.5050505E-02  0.1570901E-05  0.0000000E+00  0.4810171E-04
 -0.5050449E-02  0.0000000E+00 -0.5050505E-02  0.1756131E-05  0.0000000E+00  0.5145819E-04
 -0.5050376E-02  0.0000000E+00 -0.5050505E-02  0.1947883E-05  0.0000000E+00  0.5519653E-04
 -0.5050299E-02  0.0000000E+00 -0.5050505E-02  0.2147055E-05  0.0000000E+00  0.5933130E-04
 -0.5050178E-02  0.0000000E+00 -0.5050505E-02  0.2354629E-05  0.0000000E+00  0.6387907E-04
 -0.5050018E-02  0.0000000E+00 -0.5050505E-02  0.2571689E-05  0.0000000E+00  0.6885860E-04
 -0.5049710E-02  0.0000000E+00 -0.5050505E-02  0.2799426E-05  0.0000000E+00  0.7429103E-04
 -0.5049253E-02  0.0000000E+00 -0.5050505E-02  0.3039161E-05  0.0000000E+00  0.8020020E-04
 -0.5048636E-02  0.0000000E+00 -0.5050505E-02  0.3292359E-05  0.0000000E+00  0.8661289E-04
 -0.5047442E-02  0.0000000E+00 -0.5050505E-02  0.3560650E-05  0.0000000E+00  0.9355919E-04
 -0.5045727E-02  0.0000000E+00 -0.5050505E-02  0.3845852E-05  0.0000000E+00  0.1010729E-03
 -0.5043261E-02  0.0000000E+00 -0.5050505E-02  0.4149996E-05  0.0000000E+00  0.1091919E-03
 -0.5038714E-02  0.0000000E+00 -0.5050505E-02  0.4475356E-05  0.0000000E+00  0.1179588E-03
 -0.5032318E-02  0.0000000E+00 -0.5050505E-02  0.4824482E-05  0.0000000E+00  0.1274214E-03
 -0.5022454E-02  0.0000000E+00 -0.5050505E-02  0.5200235E-05  0.0000000E+00  0.1376334E-03
 -0.5012589E-02  0.0000000E+00 -0.5050505E-02  0.5605828E-05  0.0000000E+00  0.1486550E-03
 -0.5002725E-02  0.0000000E+00 -0.5050505E-02  0.6044869E-05  0.0000000E+00  0.1605541E-03
 -0.4992860E-02  0.0000000E+00 -0.5050505E-02  0.6521415E-05  0.0000000E+00  0.1734069E-03
 -0.4976523E-02  0.0000000E+00 -0.5050505E-02  0.7040017E-05  0.0000000E+00  0.1872993E-03
 -0.4956794E-02  0.0000000E+00 -0.5050505E-02  0.7605783E-05  0.0000000E+00  0.2023279E-03
 -0.4937066E-02  0.0000000E+00 -0.5050505E-02  0.8224447E-05  0.0000000E+00  0.2186016E-03
 -0.4906239E-02  0.0000000E+00 -0.5050505E-02  0.8902458E-05  0.0000000E+00  0.2362433E-03
 -0.4866782E-02  0.0000000E+00 -0.5050505E-02  0.9647132E-05  0.0000000E+00  0.2553914E-03
 -0.4827325E-02  0.0000000E+00 -0.5050505E-02  0.1046691E-04  0.0000000E+00  0.2762028E-03
 -0.4769372E-02  0.0000000E+00 -0.5050505E-02  0.1137187E-04  0.0000000E+00  0.2988559E-03
 -0.4690458E-02  0.0000000E+00 -0.5050505E-02  0.1237480E-04  0.0000000E+00  0.3235558E-03
 -0.4611543E-02  0.0000000E+00 -0.5050505E-02  0.1349334E-04  0.0000000E+00  0.3505431E-03
 -0.4503035E-02  0.0000000E+00 -0.5050505E-02  0.1475450E-04  0.0000000E+00  0.3801094E-03
 -0.4345206E-02  0.0000000E+00 -0.5050505E-02  0.1620442E-04  0.0000000E+00  0.4126296E-03
 -0.4187378E-02  0.0000000E+00 -0.5050505E-02  0.1793025E-04  0.0000000E+00  0.4486271E-03
 -0.3985156E-02  0.0000000E+00 -0.5050505E-02  0.2011364E-04  0.0000000E+00  0.4889225E-03
 -0.3669499E-02  0.0000000E+00 -0.5050505E-02  0.2317546E-04  0.0000000E+00  0.5349983E-03
 -0.3353842E-02  0.0000000E+00 -0.5050505E-02  0.2821585E-04  0.0000000E+00  0.5900071E-03
 -0.2978990E-02  0.0000000E+00 -0.5050505E-02  0.3851929E-04  0.0000000E+00  0.6619312E-03
 -0.2347676E-02  0.0000000E+00 -0.5050505E-02  0.6526893E-04  0.0000000E+00  0.7748358E-03
 -0.1716362E-02  0.0000000E+00 -0.5050505E-02  0.6823541E-04  0.0000000E+00  0.9218723E-03
 -0.1025842E-02  0.0000000E+00 -0.5050505E-02  0.4591243E-04  0.0000000E+00  0.1049550E-02
  0.2367855E-03  0.0000000E+00 -0.5050505E-02  0.2352910E-04  0.0000000E+00  0.1128380E-02
  0.1499413E-02  0.0000000E+00 -0.5050505E-02  0.3577555E-04  0.0000000E+00  0.1196505E-02
  0.2762042E-02  0.0000000E+00 -0.5050505E-02  0.2186581E-04  0.0000000E+00  0.1263128E-02
 -0.5050505E-02  0.0000000E+00 -0.5050505E-02  0.4912675E-04  0.0000000E+00  0.1346012E-02
 -0.5050505E-02  0.0000000E+00 -0.5050505E-02  0.7949583E-04  0.0000000E+00  0.1497702E-02
 -0.5050505E-02  0.0000000E+00 -0.5050505E-02  0.4892719E-04  0.0000000E+00  0.1651201E-02
 -0.5050505E-02  0.0000000E+00 -0.5050505E-02  0.7839372E-04  0.0000000E+00  0.1806736E-02
 -0.5050505E-02  0.0000000E+00 -0.5050505E-02  0.1286087E-03  0.0000000E+00  0.2064433E-02
 -0.5050505E-02  0.0000000E+00 -0.5050505E-02  0.1050455E-03  0.0000000E+00  0.2362614E-02
 -0.5050505E-02  0.0000000E+00 -0.5050505E-02  0.1396236E-03  0.0000000E+00  0.2686760E-02
 -0.5050504E-02  0.0000000E+00 -0.5050505E-02 -0.2408132E-03  0.0000000E+00  0.2559964E-02
 -0.5050501E-02  0.0000000E+00 -0.5050505E-02 -0.1202854E-03  0.0000000E+00  0.2094110E-02
 -0.5050495E-02  0.0000000E+00 -0.5050505E-02 -0.6731251E-04  0.0000000E+00  0.1859170E-02
 -0.5050482E-02  0.0000000E+00 -0.5050505E-02 -0.4164207E-04  0.0000000E+00  0.1724970E-02
 -0.5050449E-02  0.0000000E+00 -0.5050505E-02 -0.4404172E-04  0.0000000E+00  0.1620844E-02
 -0.5050376E-02  0.0000000E+00 -0.5050505E-02 -0.6255986E-04  0.0000000E+00  0.1493353E-02
 -0.5050299E-02  0.0000000E+00 -0.5050505E-02 -0.4334966E-04  0.0000000E+00  0.1368191E-02
 -0.5050178E-02  0.0000000E+00 -0.5050505E-02 -0.3815460E-04  0.0000000E+00  0.1273001E-02
 -0.5050018E-02  0.0000000E+00 -0.5050505E-02 -0.3427415E-04  0.0000000E+00  0.1189240E-02
 -0.5049710E-02  0.0000000E+00 -0.5050505E-02 -0.3122465E-04  0.0000000E+00  0.1114159E-02
 -0.5049253E-02  0.0000000E+00 -0.5050505E-02 -0.3126124E-04  0.0000000E+00  0.1043139E-02
 -0.5048636E-02  0.0000000E+00 -0.5050505E-02 -0.3255251E-04  0.0000000E+00  0.9712271E-03
 -0.5047442E-02  0.0000000E+00 -0.5050505E-02 -0.3099012E-04  0.0000000E+00  0.9002048E-03
 -0.5045727E-02  0.0000000E+00 -0.5050505E-02 -0.2871665E-04  0.0000000E+00  0.8339876E-03
 -0.5043261E-02  0.0000000E+00 -0.5050505E-02 -0.2647290E-04  0.0000000E+00  0.7732197E-03
 -0.5038714E-02  0.0000000E+00 -0.5050505E-02 -0.2430498E-04  0.0000000E+00  0.7176776E-03
 -0.5032318E-02  0.0000000E+00 -0.5050505E-02 -0.2220047E-04  0.0000000E+00  0.6671144E-03
 -0.5022454E-02  0.0000000E+00 -0.5050505E-02 -0.2019230E-04  0.0000000E+00  0.6212745E-03
 -0.5012589E-02  0.0000000E+00 -0.5050505E-02 -0.1832352E-04  0.0000000E+00  0.5798329E-03
 -0.5002725E-02  0.0000000E+00 -0.5050505E-02 -0.1662052E-04  0.0000000E+00  0.5424029E-03
 -0.4992860E-02  0.0000000E+00 -0.5050505E-02 -0.1508896E-04  0.0000000E+00  0.5085755E-03
 -0.4976523E-02  0.0000000E+00 -0.5050505E-02 -0.1371962E-04  0.0000000E+00  0.4779557E-03
 -0.4956794E-02  0.0000000E+00 -0.5050505E-02 -0.1249567E-04  0.0000000E+00  0.4501854E-03
 -0.4937066E-02  0.0000000E+00 -0.5050505E-02 -0.1139787E-04  0.0000000E+00  0.4249515E-03
 -0.4906239E-02  0.0000000E+00 -0.5050505E-02 -0.1040756E-04  0.0000000E+00  0.4019866E-03
 -0.4866782E-02  0.0000000E+00 -0.5050505E-02 -0.9508035E-05  0.0000000E+00  0.3810649E-03
 -0.4827325E-02  0.0000000E+00 -0.5050505E-02 -0.8684992E-05  0.0000000E+00  0.3619969E-03
 -0.4769372E-02  0.0000000E+00 -0.5050505E-02 -0.7926395E-05  0.0000000E+00  0.3446231E-03
 -0.4690458E-02  0.0000000E+00 -0.5050505E-02 -0.7222191E-05  0.0000000E+00  0.3288095E-03
 -0.4611543E-02  0.0000000E+00 -0.5050505E-02 -0.6563949E-05  0.0000000E+00  0.3144432E-03
 -0.4503035E-02  0.0000000E+00 -0.5050505E-02 -0.5944493E-05  0.0000000E+00  0.3014289E-03
 -0.4345206E-02  0.0000000E+00 -0.5050505E-02 -0.5357549E-05  0.0000000E+00  0.2896865E-03
 -0.4187378E-02  0.0000000E+00 -0.5050505E-02 -0.4797379E-05  0.0000000E+00  0.2791494E-03
 -0.3985156E-02  0.0000000E+00 -0.5050505E-02 -0.4258334E-05  0.0000000E+00  0.2697635E-03
 -0.3669499E-02  0.0000000E+00 -0.5050505E-02 -0.3734160E-05  0.0000000E+00  0.2614880E-03
 -0.3353842E-02  0.0000000E+00 -0.5050505E-02 -0.3216710E-05  0.0000000E+00  0.2542972E-03
 -0.2978990E-02  0.0000000E+00 -0.5050505E-02 -0.2693108E-05  0.0000000E+00  0.2481880E-03
 -0.2347676E-02  0.0000000E+00 -0.5050505E-02 -0.2138730E-05  0.0000000E+00  0.2431961E-03
 -0.1716362E-02  0.0000000E+00 -0.5050505E-02 -0.1497855E-05  0.0000000E+00  0.2394407E-03
 -0.1025842E-02  0.0000000E+00 -0.5050505E-02 -0.6247023E-06  0.0000000E+00  0.2372495E-03
  0.2367855E-03  0.0000000E+00 -0.5050505E-02  0.9140945E-06  0.0000000E+00  0.2375482E-03
  0.1499413E-02  0.0000000E+00 -0.5050505E-02  0.4560627E-05  0.0000000E+00  0.2432006E-03
  0.5287294E-02  0.0000000E+00 -0.5050505E-02  0.8501238E-04  0.0000000E+00  0.1934335E-03
 -0.5050505E-02  0.0000000E+00 -0.5050505E-02  0.2356305E-06  0.0000000E+00  0.3346054E-04
 -0.5050505E-02  0.0000000E+00 -0.5050505E-02  0.7076415E-06  0.0000000E+00  0.3377698E-04
 -0.5050505E-02  0.0000000E+00 -0.5050505E-02  0.1181923E-05  0.0000000E+00  0.3441086E-04
 -0.5050505E-02  0.0000000E+00 -0.5050505E-02  0.1660032E-05  0.0000000E+00  0.3536428E-04
 -0.5050505E-02  0.0000000E+00 -0.5050505E-02  0.2143571E-05  0.0000000E+00  0.3664042E-04
 -0.5050505E-02  0.0000000E+00 -0.5050505E-02  0.2634208E-05  0.0000000E+00  0.3824360E-04
 -0.5050504E-02  0.0000000E+00 -0.5050505E-02  0.3133692E-05  0.0000000E+00  0.4017930E-04
 -0.5050501E-02  0.0000000E+00 -0.5050505E-02  0.3643869E-05  0.0000000E+00  0.4245427E-04
 -0.5050495E-02  0.0000000E+00 -0.5050505E-02  0.4166705E-05  0.0000000E+00  0.4507657E-04
 -0.5050482E-02  0.0000000E+00 -0.5050505E-02  0.4704306E-05  0.0000000E+00  0.4805569E-04
 -0.5050449E-02  0.0000000E+00 -0.5050505E-02  0.5258945E-05  0.0000000E+00  0.5140262E-04
 -0.5050376E-02  0.0000000E+00 -0.5050505E-02  0.5833084E-05  0.0000000E+00  0.5513001E-04
 -0.5050299E-02  0.0000000E+00 -0.5050505E-02  0.6429410E-05  0.0000000E+00  0.5925230E-04
 -0.5050178E-02  0.0000000E+00 -0.5050505E-02  0.7050862E-05  0.0000000E+00  0.6378589E-04
 -0.5050018E-02  0.0000000E+00 -0.5050505E-02  0.7700672E-05  0.0000000E+00  0.6874935E-04
 -0.5049710E-02  0.0000000E+00 -0.5050505E-02  0.8382403E-05  0.0000000E+00  0.7416361E-04
 -0.5049253E-02  0.0000000E+00 -0.5050505E-02  0.9100001E-05  0.0000000E+00  0.8005226E-04
 -0.5048636E-02  0.0000000E+00 -0.5050505E-02  0.9857842E-05  0.0000000E+00  0.8644181E-04
 -0.5047442E-02  0.0000000E+00 -0.5050505E-02  0.1066080E-04  0.0000000E+00  0.9336203E-04
 -0.5045727E-02  0.0000000E+00 -0.5050505E-02  0.1151430E-04  0.0000000E+00  0.1008463E-03
 -0.5043261E-02  0.0000000E+00 -0.5050505E-02  0.1242441E-04  0.0000000E+00  0.1089322E-03
 -0.5038714E-02  0.0000000E+00 -0.5050505E-02  0.1339793E-04  0.0000000E+00  0.1176618E-03
 -0.5032318E-02  0.0000000E+00 -0.5050505E-02  0.1444247E-04  0.0000000E+00  0.1270823E-03
 -0.5022454E-02  0.0000000E+00 -0.5050505E-02  0.1556659E-04  0.0000000E+00  0.1372468E-03
 -0.5012589E-02  0.0000000E+00 -0.5050505E-02  0.1677987E-04  0.0000000E+00  0.1482149E-03
 -0.5002725E-02  0.0000000E+00 -0.5050505E-02  0.1809312E-04  0.0000000E+00  0.1600535E-03
 -0.4992860E-02  0.0000000E+00 -0.5050505E-02  0.1951845E-04  0.0000000E+00  0.1728382E-03
 -0.4976523E-02  0.0000000E+00 -0.5050505E-02  0.2106946E-04  0.0000000E+00  0.1866536E-03
 -0.4956794E-02  0.0000000E+00 -0.5050505E-02  0.2276143E-04  0.0000000E+00  0.2015954E-03
 -0.4937066E-02  0.0000000E+00 -0.5050505E-02  0.2461147E-04  0.0000000E+00  0.2177712E-03
 -0.4906239E-02  0.0000000E+00 -0.5050505E-02  0.2663880E-04  0.0000000E+00  0.2353021E-03
 -0.4866782E-02  0.0000000E+00 -0.5050505E-02  0.2886511E-04  0.0000000E+00  0.2543248E-03
 -0.4827325E-02  0.0000000E+00 -0.5050505E-02  0.3131524E-04  0.0000000E+00  0.2749934E-03
 -0.4769372E-02  0.0000000E+00 -0.5050505E-02  0.3401842E-04  0.0000000E+00  0.2974820E-03
 -0.4690458E-02  0.0000000E+00 -0.5050505E-02  0.3701092E-04  0.0000000E+00  0.3219881E-03
 -0.4611543E-02  0.0000000E+00 -0.5050505E-02  0.4034135E-04  0.0000000E+00  0.3487380E-03
 -0.4503035E-02  0.0000000E+00 -0.5050505E-02  0.4408159E-04  0.0000000E+00  0.3779948E-03
 -0.4345206E-02  0.0000000E+00 -0.5050505E-02  0.4834946E-04  0.0000000E+00  0.4100731E-03
 -0.4187378E-02  0.0000000E+00 -0.5050505E-02  0.5335653E-04  0.0000000E+00  0.4453605E-03
 -0.3985156E-02  0.0000000E+00 -0.5050505E-02  0.5951353E-04  0.0000000E+00  0.4843437E-03
 -0.3669499E-02  0.0000000E+00 -0.5050505E-02  0.6767629E-04  0.0000000E+00  0.5275867E-03
 -0.3353842E-02  0.0000000E+00 -0.5050505E-02  0.7976077E-04  0.0000000E+00  0.5753786E-03
 -0.2978990E-02  0.0000000E+00 -0.5050505E-02  0.1003893E-03  0.0000000E+00  0.6256197E-03
 -0.2347676E-02  0.0000000E+00 -0.5050505E-02  0.1415561E-03  0.0000000E+00  0.6629522E-03
 -0.1716362E-02  0.0000000E+00 -0.5050505E-02  0.1534244E-03  0.0000000E+00  0.6936417E-03
 -0.1025842E-02  0.0000000E+00 -0.5050505E-02  0.1396591E-03  0.0000000E+00  0.7644755E-03
  0.2367855E-03  0.0000000E+00 -0.5050505E-02  0.1162036E-03  0.0000000E+00  0.8936203E-03
  0.1499413E-02  0.0000000E+00 -0.5050505E-02  0.1310818E-03  0.0000000E+00  0.1037976E-02
  0.2762042E-02  0.0000000E+00 -0.5050505E-02  0.9966267E-04  0.0000000E+00  0.1170199E-02
 -0.5050505E-02  0.0000000E+00 -0.5050505E-02  0.1444277E-03  0.0000000E+00  0.1289311E-02
 -0.5050505E-02  0.0000000E+00 -0.5050505E-02  0.1920733E-03  0.0000000E+00  0.1383524E-02
 -0.5050505E-02  0.0000000E+00 -0.5050505E-02  0.1928693E-03  0.0000000E+00  0.1537965E-02
 -0.5050505E-02  0.0000000E+00 -0.5050505E-02  0.2171415E-03  0.0000000E+00  0.1728102E-02
 -0.5050505E-02  0.0000000E+00 -0.5050505E-02  0.3018550E-03  0.0000000E+00  0.1861656E-02
 -0.5050505E-02  0.0000000E+00 -0.5050505E-02  0.3553048E-03  0.0000000E+00  0.2107012E-02
 -0.5050505E-02  0.0000000E+00 -0.5050505E-02  0.2315785E-03  0.0000000E+00  0.2236176E-02
 -0.5050504E-02  0.0000000E+00 -0.5050505E-02 -0.5465303E-03  0.0000000E+00  0.2091934E-02
 -0.5050501E-02  0.0000000E+00 -0.5050505E-02 -0.3058753E-03  0.0000000E+00  0.1921732E-02
 -0.5050495E-02  0.0000000E+00 -0.5050505E-02 -0.1784977E-03  0.0000000E+00  0.1781607E-02
 -0.5050482E-02  0.0000000E+00 -0.5050505E-02 -0.1350646E-03  0.0000000E+00  0.1661163E-02
 -0.5050449E-02  0.0000000E+00 -0.5050505E-02 -0.1530995E-03  0.0000000E+00  0.1517874E-02
 -0.5050376E-02  0.0000000E+00 -0.5050505E-02 -0.1485774E-03  0.0000000E+00  0.1410376E-02
 -0.5050299E-02  0.0000000E+00 -0.5050505E-02 -0.1174993E-03  0.0000000E+00  0.1344858E-02
 -0.5050178E-02  0.0000000E+00 -0.5050505E-02 -0.1128128E-03  0.0000000E+00  0.1265008E-02
 -0.5050018E-02  0.0000000E+00 -0.5050505E-02 -0.1016792E-03  0.0000000E+00  0.1183402E-02
 -0.5049710E-02  0.0000000E+00 -0.5050505E-02 -0.9061121E-04  0.0000000E+00  0.1112247E-02
 -0.5049253E-02  0.0000000E+00 -0.5050505E-02 -0.9236947E-04  0.0000000E+00  0.1045572E-02
 -0.5048636E-02  0.0000000E+00 -0.5050505E-02 -0.9999086E-04  0.0000000E+00  0.9720534E-03
 -0.5047442E-02  0.0000000E+00 -0.5050505E-02 -0.9346320E-04  0.0000000E+00  0.8974444E-03
 -0.5045727E-02  0.0000000E+00 -0.5050505E-02 -0.8601713E-04  0.0000000E+00  0.8305146E-03
 -0.5043261E-02  0.0000000E+00 -0.5050505E-02 -0.7927332E-04  0.0000000E+00  0.7698148E-03
 -0.5038714E-02  0.0000000E+00 -0.5050505E-02 -0.7280199E-04  0.0000000E+00  0.7143702E-03
 -0.5032318E-02  0.0000000E+00 -0.5050505E-02 -0.6647223E-04  0.0000000E+00  0.6639229E-03
 -0.5022454E-02  0.0000000E+00 -0.5050505E-02 -0.6041680E-04  0.0000000E+00  0.6182748E-03
 -0.5012589E-02  0.0000000E+00 -0.5050505E-02 -0.5479134E-04  0.0000000E+00  0.5770960E-03
 -0.5002725E-02  0.0000000E+00 -0.5050505E-02 -0.4968049E-04  0.0000000E+00  0.5399631E-03
 -0.4992860E-02  0.0000000E+00 -0.5050505E-02 -0.4509659E-04  0.0000000E+00  0.5064319E-03
 -0.4976523E-02  0.0000000E+00 -0.5050505E-02 -0.4100595E-04  0.0000000E+00  0.4760852E-03
 -0.4956794E-02  0.0000000E+00 -0.5050505E-02 -0.3735342E-04  0.0000000E+00  0.4485547E-03
 -0.4937066E-02  0.0000000E+00 -0.5050505E-02 -0.3407856E-04  0.0000000E+00  0.4235253E-03
 -0.4906239E-02  0.0000000E+00 -0.5050505E-02 -0.3112418E-04  0.0000000E+00  0.4007320E-03
 -0.4866782E-02  0.0000000E+00 -0.5050505E-02 -0.2843986E-04  0.0000000E+00  0.3799534E-03
 -0.4827325E-02  0.0000000E+00 -0.5050505E-02 -0.2598276E-04  0.0000000E+00  0.3610041E-03
 -0.4769372E-02  0.0000000E+00 -0.5050505E-02 -0.2371706E-04  0.0000000E+00  0.3437290E-03
 -0.4690458E-02  0.0000000E+00 -0.5050505E-02 -0.2161299E-04  0.0000000E+00  0.3279974E-03
 -0.4611543E-02  0.0000000E+00 -0.5050505E-02 -0.1964559E-04  0.0000000E+00  0.3136992E-03
 -0.4503035E-02  0.0000000E+00 -0.5050505E-02 -0.1779369E-04  0.0000000E+00  0.3007412E-03
 -0.4345206E-02  0.0000000E+00 -0.5050505E-02 -0.1603883E-04  0.0000000E+00  0.2890447E-03
 -0.4187378E-02  0.0000000E+00 -0.5050505E-02 -0.1436423E-04  0.0000000E+00  0.2785434E-03
 -0.3985156E-02  0.0000000E+00 -0.5050505E-02 -0.1275363E-04  0.0000000E+00  0.2691829E-03
 -0.3669499E-02  0.0000000E+00 -0.5050505E-02 -0.1118951E-04  0.0000000E+00  0.2609197E-03
 -0.3353842E-02  0.0000000E+00 -0.5050505E-02 -0.9650206E-05  0.0000000E+00  0.2537215E-03
 -0.2978990E-02  0.0000000E+00 -0.5050505E-02 -0.8103899E-05  0.0000000E+00  0.2475686E-03
 -0.2347676E-02  0.0000000E+00 -0.5050505E-02 -0.6495511E-05  0.0000000E+00  0.2424542E-03
 -0.1716362E-02  0.0000000E+00 -0.5050505E-02 -0.4715094E-05  0.0000000E+00  0.2383764E-03
 -0.1025842E-02  0.0000000E+00 -0.5050505E-02 -0.2516866E-05  0.0000000E+00  0.2352858E-03
  0.2367855E-03  0.0000000E+00 -0.5050505E-02  0.7001889E-06  0.0000000E+00  0.2328139E-03
  0.1499413E-02  0.0000000E+00 -0.5050505E-02  0.6513119E-05  0.0000000E+00  0.2289779E-03
  0.5287294E-02  0.0000000E+00 -0.5050505E-02  0.1927456E-04  0.0000000E+00  0.2140986E-03
 -0.5050505E-02  0.0000000E+00 -0.5050505E-02  0.3915631E-06  0.0000000E+00  0.3344787E-04
 -0.5050505E-02  0.0000000E+00 -0.5050505E-02  0.1175938E-05  0.0000000E+00  0.3376279E-04
 -0.5050505E-02  0.0000000E+00 -0.5050505E-02  0.1964085E-05  0.0000000E+00  0.3439360E-04
 -0.5050505E-02  0.0000000E+00 -0.5050505E-02  0.2758583E-05  0.0000000E+00  0.3534236E-04
 -0.5050505E-02  0.0000000E+00 -0.5050505E-02  0.3562089E-05  0.0000000E+00  0.3661217E-04
 -0.5050505E-02  0.0000000E+00 -0.5050505E-02  0.4377365E-05  0.0000000E+00  0.3820727E-04
 -0.5050504E-02  0.0000000E+00 -0.5050505E-02  0.5207304E-05  0.0000000E+00  0.4013305E-04
 -0.5050501E-02  0.0000000E+00 -0.5050505E-02  0.6054963E-05  0.0000000E+00  0.4239611E-04
 -0.5050495E-02  0.0000000E+00 -0.5050505E-02  0.6923596E-05  0.0000000E+00  0.4500439E-04
 -0.5050482E-02  0.0000000E+00 -0.5050505E-02  0.7816688E-05  0.0000000E+00  0.4796718E-04
 -0.5050449E-02  0.0000000E+00 -0.5050505E-02  0.8737999E-05  0.0000000E+00  0.5129526E-04
 -0.5050376E-02  0.0000000E+00 -0.5050505E-02  0.9691605E-05  0.0000000E+00  0.5500105E-04
 -0.5050299E-02  0.0000000E+00 -0.5050505E-02  0.1068195E-04  0.0000000E+00  0.5909870E-04
 -0.5050178E-02  0.0000000E+00 -0.5050505E-02  0.1171389E-04  0.0000000E+00  0.6360430E-04
 -0.5050018E-02  0.0000000E+00 -0.5050505E-02  0.1279278E-04  0.0000000E+00  0.6853605E-04
 -0.5049710E-02  0.0000000E+00 -0.5050505E-02  0.1392451E-04  0.0000000E+00  0.7391446E-04
 -0.5049253E-02  0.0000000E+00 -0.5050505E-02  0.1511560E-04  0.0000000E+00  0.7976263E-04
 -0.5048636E-02  0.0000000E+00 -0.5050505E-02  0.1637328E-04  0.0000000E+00  0.8610652E-04
 -0.5047442E-02  0.0000000E+00 -0.5050505E-02  0.1770562E-04  0.0000000E+00  0.9297526E-04
 -0.5045727E-02  0.0000000E+00 -0.5050505E-02  0.1912158E-04  0.0000000E+00  0.1004016E-03
 -0.5043261E-02  0.0000000E+00 -0.5050505E-02  0.2063120E-04  0.0000000E+00  0.1084221E-03
 -0.5038714E-02  0.0000000E+00 -0.5050505E-02  0.2224570E-04  0.0000000E+00  0.1170780E-03
 -0.5032318E-02  0.0000000E+00 -0.5050505E-02  0.2397767E-04  0.0000000E+00  0.1264154E-03
 -0.5022454E-02  0.0000000E+00 -0.5050505E-02  0.2584125E-04  0.0000000E+00  0.1364862E-03
 -0.5012589E-02  0.0000000E+00 -0.5050505E-02  0.2785231E-04  0.0000000E+00  0.1473486E-03
 -0.5002725E-02  0.0000000E+00 -0.5050505E-02  0.3002870E-04  0.0000000E+00  0.1590680E-03
 -0.4992860E-02  0.0000000E+00 -0.5050505E-02  0.3239047E-04  0.0000000E+00  0.1717180E-03
 -0.4976523E-02  0.0000000E+00 -0.5050505E-02  0.3496015E-04  0.0000000E+00  0.1853816E-03
 -0.4956794E-02  0.0000000E+00 -0.5050505E-02  0.3776300E-04  0.0000000E+00  0.2001520E-03
 -0.4937066E-02  0.0000000E+00 -0.5050505E-02  0.4082733E-04  0.0000000E+00  0.2161343E-03
 -0.4906239E-02  0.0000000E+00 -0.5050505E-02  0.4418478E-04  0.0000000E+00  0.2334469E-03
 -0.4866782E-02  0.0000000E+00 -0.5050505E-02  0.4787083E-04  0.0000000E+00  0.2522229E-03
 -0.4827325E-02  0.0000000E+00 -0.5050505E-02  0.5192549E-04  0.0000000E+00  0.2726118E-03
 -0.4769372E-02  0.0000000E+00 -0.5050505E-02  0.5639470E-04  0.0000000E+00  0.2947805E-03
 -0.4690458E-02  0.0000000E+00 -0.5050505E-02  0.6133312E-04  0.0000000E+00  0.3189148E-03
 -0.4611543E-02  0.0000000E+00 -0.5050505E-02  0.6680993E-04  0.0000000E+00  0.3452195E-03
 -0.4503035E-02  0.0000000E+00 -0.5050505E-02  0.7292050E-04  0.0000000E+00  0.3739171E-03
 -0.4345206E-02  0.0000000E+00 -0.5050505E-02  0.7980938E-04  0.0000000E+00  0.4052421E-03
 -0.4187378E-02  0.0000000E+00 -0.5050505E-02  0.8771418E-04  0.0000000E+00  0.4394247E-03
 -0.3985156E-02  0.0000000E+00 -0.5050505E-02  0.9704640E-04  0.0000000E+00  0.4766404E-03
 -0.3669499E-02  0.0000000E+00 -0.5050505E-02  0.1085291E-03  0.0000000E+00  0.5168663E-03
 -0.3353842E-02  0.0000000E+00 -0.5050505E-02  0.1233827E-03  0.0000000E+00  0.5594884E-03
 -0.2978990E-02  0.0000000E+00 -0.5050505E-02  0.1433145E-03  0.0000000E+00  0.6024127E-03
 -0.2347676E-02  0.0000000E+00 -0.5050505E-02  0.1687766E-03  0.0000000E+00  0.6412288E-03
 -0.1716362E-02  0.0000000E+00 -0.5050505E-02  0.1876592E-03  0.0000000E+00  0.6778415E-03
 -0.1025842E-02  0.0000000E+00 -0.5050505E-02  0.2059567E-03  0.0000000E+00  0.7171345E-03
  0.2367855E-03  0.0000000E+00 -0.5050505E-02  0.2143475E-03  0.0000000E+00  0.7694321E-03
  0.1499413E-02  0.0000000E+00 -0.5050505E-02  0.2344896E-03  0.0000000E+00  0.8499886E-03
  0.2762042E-02  0.0000000E+00 -0.5050505E-02  0.2205334E-03  0.0000000E+00  0.9717480E-03
 -0.5050505E-02  0.0000000E+00 -0.5050505E-02  0.2381457E-03  0.0000000E+00  0.1099862E-02
 -0.5050505E-02  0.0000000E+00 -0.5050505E-02  0.2805585E-03  0.0000000E+00  0.1219911E-02
 -0.5050505E-02  0.0000000E+00 -0.5050505E-02  0.3537406E-03  0.0000000E+00  0.1363725E-02
 -0.5050505E-02  0.0000000E+00 -0.5050505E-02  0.3673286E-03  0.0000000E+00  0.1552850E-02
 -0.5050505E-02  0.0000000E+00 -0.5050505E-02  0.3512714E-03  0.0000000E+00  0.1673119E-02
 -0.5050505E-02  0.0000000E+00 -0.5050505E-02  0.5384690E-03  0.0000000E+00  0.1734670E-02
 -0.5050505E-02  0.0000000E+00 -0.5050505E-02  0.2526383E-03  0.0000000E+00  0.1880693E-02
 -0.5050504E-02  0.0000000E+00 -0.5050505E-02 -0.6910666E-03  0.0000000E+00  0.1871599E-02
 -0.5050501E-02  0.0000000E+00 -0.5050505E-02 -0.3987523E-03  0.0000000E+00  0.1729672E-02
 -0.5050495E-02  0.0000000E+00 -0.5050505E-02 -0.2850983E-03  0.0000000E+00  0.1611580E-02
 -0.5050482E-02  0.0000000E+00 -0.5050505E-02 -0.2448807E-03  0.0000000E+00  0.1460248E-02
 -0.5050449E-02  0.0000000E+00 -0.5050505E-02 -0.2138176E-03  0.0000000E+00  0.1391884E-02
 -0.5050376E-02  0.0000000E+00 -0.5050505E-02 -0.1855040E-03  0.0000000E+00  0.1377757E-02
 -0.5050299E-02  0.0000000E+00 -0.5050505E-02 -0.1679330E-03  0.0000000E+00  0.1335801E-02
 -0.5050178E-02  0.0000000E+00 -0.5050505E-02 -0.1918845E-03  0.0000000E+00  0.1260580E-02
 -0.5050018E-02  0.0000000E+00 -0.5050505E-02 -0.1681680E-03  0.0000000E+00  0.1170456E-02
 -0.5049710E-02  0.0000000E+00 -0.5050505E-02 -0.1380400E-03  0.0000000E+00  0.1108287E-02
 -0.5049253E-02  0.0000000E+00 -0.5050505E-02 -0.1476206E-03  0.0000000E+00  0.1055965E-02
 -0.5048636E-02  0.0000000E+00 -0.5050505E-02 -0.1796817E-03  0.0000000E+00  0.9757336E-03
 -0.5047442E-02  0.0000000E+00 -0.5050505E-02 -0.1565133E-03  0.0000000E+00  0.8895661E-03
 -0.5045727E-02  0.0000000E+00 -0.5050505E-02 -0.1425084E-03  0.0000000E+00  0.8230290E-03
 -0.5043261E-02  0.0000000E+00 -0.5050505E-02 -0.1317150E-03  0.0000000E+00  0.7631133E-03
 -0.5038714E-02  0.0000000E+00 -0.5050505E-02 -0.1211030E-03  0.0000000E+00  0.7078500E-03
 -0.5032318E-02  0.0000000E+00 -0.5050505E-02 -0.1104517E-03  0.0000000E+00  0.6575620E-03
 -0.5022454E-02  0.0000000E+00 -0.5050505E-02 -0.1002183E-03  0.0000000E+00  0.6122867E-03
 -0.5012589E-02  0.0000000E+00 -0.5050505E-02 -0.9076353E-04  0.0000000E+00  0.5716554E-03
 -0.5002725E-02  0.0000000E+00 -0.5050505E-02 -0.8223545E-04  0.0000000E+00  0.5351406E-03
 -0.4992860E-02  0.0000000E+00 -0.5050505E-02 -0.7463123E-04  0.0000000E+00  0.5022161E-03
 -0.4976523E-02  0.0000000E+00 -0.5050505E-02 -0.6787078E-04  0.0000000E+00  0.4724198E-03
 -0.4956794E-02  0.0000000E+00 -0.5050505E-02 -0.6184604E-04  0.0000000E+00  0.4453663E-03
 -0.4937066E-02  0.0000000E+00 -0.5050505E-02 -0.5644756E-04  0.0000000E+00  0.4207400E-03
 -0.4906239E-02  0.0000000E+00 -0.5050505E-02 -0.5157627E-04  0.0000000E+00  0.3982830E-03
 -0.4866782E-02  0.0000000E+00 -0.5050505E-02 -0.4714728E-04  0.0000000E+00  0.3777833E-03
 -0.4827325E-02  0.0000000E+00 -0.5050505E-02 -0.4308970E-04  0.0000000E+00  0.3590652E-03
 -0.4769372E-02  0.0000000E+00 -0.5050505E-02 -0.3934491E-04  0.0000000E+00  0.3419820E-03
 -0.4690458E-02  0.0000000E+00 -0.5050505E-02 -0.3586445E-04  0.0000000E+00  0.3264100E-03
 -0.4611543E-02  0.0000000E+00 -0.5050505E-02 -0.3260793E-04  0.0000000E+00  0.3122445E-03
 -0.4503035E-02  0.0000000E+00 -0.5050505E-02 -0.2954112E-04  0.0000000E+00  0.2993965E-03
 -0.4345206E-02  0.0000000E+00 -0.5050505E-02 -0.2663438E-04  0.0000000E+00  0.2877898E-03
 -0.4187378E-02  0.0000000E+00 -0.5050505E-02 -0.2386106E-04  0.0000000E+00  0.2773599E-03
 -0.3985156E-02  0.0000000E+00 -0.5050505E-02 -0.2119591E-04  0.0000000E+00  0.2680517E-03
 -0.3669499E-02  0.0000000E+00 -0.5050505E-02 -0.1861307E-04  0.0000000E+00  0.2598188E-03
 -0.3353842E-02  0.0000000E+00 -0.5050505E-02 -0.1608305E-04  0.0000000E+00  0.2526211E-03
 -0.2978990E-02  0.0000000E+00 -0.5050505E-02 -0.1356788E-04  0.0000000E+00  0.2464221E-03
 -0.2347676E-02  0.0000000E+00 -0.5050505E-02 -0.1101264E-04  0.0000000E+00  0.2411796E-03
 -0.1716362E-02  0.0000000E+00 -0.5050505E-02 -0.8331583E-05  0.0000000E+00  0.2368226E-03
 -0.1025842E-02  0.0000000E+00 -0.5050505E-02 -0.5391343E-05  0.0000000E+00  0.2331887E-03
  0.2367855E-03  0.0000000E+00 -0.5050505E-02 -0.2023726E-05  0.0000000E+00  0.2298755E-03
  0.1499413E-02  0.0000000E+00 -0.5050505E-02  0.1742765E-05  0.0000000E+00  0.2260024E-03
  0.5287294E-02  0.0000000E+00 -0.5050505E-02  0.4305250E-05  0.0000000E+00  0.2206516E-03
 -0.5050505E-02  0.0000000E+00 -0.5050505E-02  0.5461194E-06  0.0000000E+00  0.3343297E-04
 -0.5050505E-02  0.0000000E+00 -0.5050505E-02  0.1640096E-05  0.0000000E+00  0.3374564E-04
 -0.5050505E-02  0.0000000E+00 -0.5050505E-02  0.2739318E-05  0.0000000E+00  0.3437193E-04
 -0.5050505E-02  0.0000000E+00 -0.5050505E-02  0.3847367E-05  0.0000000E+00  0.3531380E-04
 -0.5050505E-02  0.0000000E+00 -0.5050505E-02  0.4967927E-05  0.0000000E+00  0.3657427E-04
 -0.5050505E-02  0.0000000E+00 -0.5050505E-02  0.6104830E-05  0.0000000E+00  0.3815745E-04
 -0.5050504E-02  0.0000000E+00 -0.5050505E-02  0.7262086E-05  0.0000000E+00  0.4006858E-04
 -0.5050501E-02  0.0000000E+00 -0.5050505E-02  0.8443932E-05  0.0000000E+00  0.4231409E-04
 -0.5050495E-02  0.0000000E+00 -0.5050505E-02  0.9654878E-05  0.0000000E+00  0.4490168E-04
 -0.5050482E-02  0.0000000E+00 -0.5050505E-02  0.1089975E-04  0.0000000E+00  0.4784038E-04
 -0.5050449E-02  0.0000000E+00 -0.5050505E-02  0.1218377E-04  0.0000000E+00  0.5114067E-04
 -0.5050376E-02  0.0000000E+00 -0.5050505E-02  0.1351257E-04  0.0000000E+00  0.5481461E-04
 -0.5050299E-02  0.0000000E+00 -0.5050505E-02  0.1489230E-04  0.0000000E+00  0.5887594E-04
 -0.5050178E-02  0.0000000E+00 -0.5050505E-02  0.1632970E-04  0.0000000E+00  0.6334028E-04
 -0.5050018E-02  0.0000000E+00 -0.5050505E-02  0.1783217E-04  0.0000000E+00  0.6822528E-04
 -0.5049710E-02  0.0000000E+00 -0.5050505E-02  0.1940787E-04  0.0000000E+00  0.7355084E-04
 -0.5049253E-02  0.0000000E+00 -0.5050505E-02  0.2106581E-04  0.0000000E+00  0.7933934E-04
 -0.5048636E-02  0.0000000E+00 -0.5050505E-02  0.2281600E-04  0.0000000E+00  0.8561592E-04
 -0.5047442E-02  0.0000000E+00 -0.5050505E-02  0.2466959E-04  0.0000000E+00  0.9240879E-04
 -0.5045727E-02  0.0000000E+00 -0.5050505E-02  0.2663899E-04  0.0000000E+00  0.9974958E-04
 -0.5043261E-02  0.0000000E+00 -0.5050505E-02  0.2873806E-04  0.0000000E+00  0.1076737E-03
 -0.5038714E-02  0.0000000E+00 -0.5050505E-02  0.3098232E-04  0.0000000E+00  0.1162210E-03
 -0.5032318E-02  0.0000000E+00 -0.5050505E-02  0.3338919E-04  0.0000000E+00  0.1254360E-03
 -0.5022454E-02  0.0000000E+00 -0.5050505E-02  0.3597821E-04  0.0000000E+00  0.1353687E-03
 -0.5012589E-02  0.0000000E+00 -0.5050505E-02  0.3877134E-04  0.0000000E+00  0.1460753E-03
 -0.5002725E-02  0.0000000E+00 -0.5050505E-02  0.4179329E-04  0.0000000E+00  0.1576189E-03
 -0.4992860E-02  0.0000000E+00 -0.5050505E-02  0.4507186E-04  0.0000000E+00  0.1700705E-03
 -0.4976523E-02  0.0000000E+00 -0.5050505E-02  0.4863826E-04  0.0000000E+00  0.1835100E-03
 -0.4956794E-02  0.0000000E+00 -0.5050505E-02  0.5252754E-04  0.0000000E+00  0.1980276E-03
 -0.4937066E-02  0.0000000E+00 -0.5050505E-02  0.5677891E-04  0.0000000E+00  0.2137247E-03