title = "dataset water"
variables = "x", "y", "z", "vx", "vy", "vz"
zone t = "velocities, solution time =  3.800E+01 days        " i =   99, j =   99, k =    1,  f=point
  0.5050505E-02  0.0000000E+00  0.5050505E-02  0.2009914E-09  0.0000000E+00 -0.6233583E-05
  0.1515152E-01  0.0000000E+00  0.5050505E-02  0.6019739E-09  0.0000000E+00 -0.6232779E-05
  0.2525252E-01  0.0000000E+00  0.5050505E-02  0.9999494E-09  0.0000000E+00 -0.6231176E-05
  0.3535353E-01  0.0000000E+00  0.5050505E-02  0.1392925E-08  0.0000000E+00 -0.6228781E-05
  0.4545455E-01  0.0000000E+00  0.5050505E-02  0.1778926E-08  0.0000000E+00 -0.6225607E-05
  0.5555556E-01  0.0000000E+00  0.5050505E-02  0.2156006E-08  0.0000000E+00 -0.6221669E-05
  0.6565657E-01  0.0000000E+00  0.5050505E-02  0.2522250E-08  0.0000000E+00 -0.6216987E-05
  0.7575758E-01  0.0000000E+00  0.5050505E-02  0.2875789E-08  0.0000000E+00 -0.6211585E-05
  0.8585858E-01  0.0000000E+00  0.5050505E-02  0.3214803E-08  0.0000000E+00 -0.6205490E-05
  0.9595960E-01  0.0000000E+00  0.5050505E-02  0.3537535E-08  0.0000000E+00 -0.6198732E-05
  0.1060606E+00  0.0000000E+00  0.5050505E-02  0.3842298E-08  0.0000000E+00 -0.6191347E-05
  0.1161616E+00  0.0000000E+00  0.5050505E-02  0.4127488E-08  0.0000000E+00 -0.6183371E-05
  0.1262626E+00  0.0000000E+00  0.5050505E-02  0.4391591E-08  0.0000000E+00 -0.6174846E-05
  0.1363636E+00  0.0000000E+00  0.5050505E-02  0.4633197E-08  0.0000000E+00 -0.6165814E-05
  0.1464646E+00  0.0000000E+00  0.5050505E-02  0.4851009E-08  0.0000000E+00 -0.6156323E-05
  0.1565657E+00  0.0000000E+00  0.5050505E-02  0.5043853E-08  0.0000000E+00 -0.6146420E-05
  0.1666667E+00  0.0000000E+00  0.5050505E-02  0.5210688E-08  0.0000000E+00 -0.6136158E-05
  0.1767677E+00  0.0000000E+00  0.5050505E-02  0.5350618E-08  0.0000000E+00 -0.6125589E-05
  0.1868687E+00  0.0000000E+00  0.5050505E-02  0.5462895E-08  0.0000000E+00 -0.6114767E-05
  0.1969697E+00  0.0000000E+00  0.5050505E-02  0.5546930E-08  0.0000000E+00 -0.6103749E-05
  0.2070707E+00  0.0000000E+00  0.5050505E-02  0.5602298E-08  0.0000000E+00 -0.6092592E-05
  0.2171717E+00  0.0000000E+00  0.5050505E-02  0.5628740E-08  0.0000000E+00 -0.6081352E-05
  0.2272727E+00  0.0000000E+00  0.5050505E-02  0.5626168E-08  0.0000000E+00 -0.6070089E-05
  0.2373737E+00  0.0000000E+00  0.5050505E-02  0.5594660E-08  0.0000000E+00 -0.6058860E-05
  0.2474747E+00  0.0000000E+00  0.5050505E-02  0.5534464E-08  0.0000000E+00 -0.6047722E-05
  0.2575758E+00  0.0000000E+00  0.5050505E-02  0.5445987E-08  0.0000000E+00 -0.6036734E-05
  0.2676768E+00  0.0000000E+00  0.5050505E-02  0.5329796E-08  0.0000000E+00 -0.6025950E-05
  0.2777778E+00  0.0000000E+00  0.5050505E-02  0.5186603E-08  0.0000000E+00 -0.6015426E-05
  0.2878788E+00  0.0000000E+00  0.5050505E-02  0.5017260E-08  0.0000000E+00 -0.6005214E-05
  0.2979798E+00  0.0000000E+00  0.5050505E-02  0.4822745E-08  0.0000000E+00 -0.5995367E-05
  0.3080808E+00  0.0000000E+00  0.5050505E-02  0.4604151E-08  0.0000000E+00 -0.5985933E-05
  0.3181818E+00  0.0000000E+00  0.5050505E-02  0.4362673E-08  0.0000000E+00 -0.5976960E-05
  0.3282828E+00  0.0000000E+00  0.5050505E-02  0.4099591E-08  0.0000000E+00 -0.5968491E-05
  0.3383838E+00  0.0000000E+00  0.5050505E-02  0.3816260E-08  0.0000000E+00 -0.5960570E-05
  0.3484848E+00  0.0000000E+00  0.5050505E-02  0.3514096E-08  0.0000000E+00 -0.5953234E-05
  0.3585859E+00  0.0000000E+00  0.5050505E-02  0.3194560E-08  0.0000000E+00 -0.5946521E-05
  0.3686869E+00  0.0000000E+00  0.5050505E-02  0.2859150E-08  0.0000000E+00 -0.5940462E-05
  0.3787879E+00  0.0000000E+00  0.5050505E-02  0.2509389E-08  0.0000000E+00 -0.5935090E-05
  0.3888889E+00  0.0000000E+00  0.5050505E-02  0.2146813E-08  0.0000000E+00 -0.5930430E-05
  0.3989899E+00  0.0000000E+00  0.5050505E-02  0.1772968E-08  0.0000000E+00 -0.5926508E-05
  0.4090909E+00  0.0000000E+00  0.5050505E-02  0.1389399E-08  0.0000000E+00 -0.5923343E-05
  0.4191919E+00  0.0000000E+00  0.5050505E-02  0.9976489E-09  0.0000000E+00 -0.5920954E-05
  0.4292929E+00  0.0000000E+00  0.5050505E-02  0.5992556E-09  0.0000000E+00 -0.5919356E-05
  0.4393939E+00  0.0000000E+00  0.5050505E-02  0.1957477E-09  0.0000000E+00 -0.5918561E-05
  0.4494950E+00  0.0000000E+00  0.5050505E-02 -0.2113535E-09  0.0000000E+00 -0.5918576E-05
  0.4595959E+00  0.0000000E+00  0.5050505E-02 -0.6205343E-09  0.0000000E+00 -0.5919409E-05
  0.4696970E+00  0.0000000E+00  0.5050505E-02 -0.1030287E-08  0.0000000E+00 -0.5921061E-05
  0.4797980E+00  0.0000000E+00  0.5050505E-02 -0.1439110E-08  0.0000000E+00 -0.5923532E-05
  0.4898990E+00  0.0000000E+00  0.5050505E-02 -0.1845504E-08  0.0000000E+00 -0.5926819E-05
  0.5000000E+00  0.0000000E+00  0.5050505E-02 -0.2247971E-08  0.0000000E+00 -0.5930915E-05
  0.5101010E+00  0.0000000E+00  0.5050505E-02 -0.2645018E-08  0.0000000E+00 -0.5935812E-05
  0.5202020E+00  0.0000000E+00  0.5050505E-02 -0.3035153E-08  0.0000000E+00 -0.5941496E-05
  0.5303030E+00  0.0000000E+00  0.5050505E-02 -0.3416889E-08  0.0000000E+00 -0.5947953E-05
  0.5404040E+00  0.0000000E+00  0.5050505E-02 -0.3788750E-08  0.0000000E+00 -0.5955164E-05
  0.5505050E+00  0.0000000E+00  0.5050505E-02 -0.4149270E-08  0.0000000E+00 -0.5963108E-05
  0.5606061E+00  0.0000000E+00  0.5050505E-02 -0.4497007E-08  0.0000000E+00 -0.5971760E-05
  0.5707071E+00  0.0000000E+00  0.5050505E-02 -0.4830546E-08  0.0000000E+00 -0.5981095E-05
  0.5808081E+00  0.0000000E+00  0.5050505E-02 -0.5148507E-08  0.0000000E+00 -0.5991081E-05
  0.5909091E+00  0.0000000E+00  0.5050505E-02 -0.5449562E-08  0.0000000E+00 -0.6001687E-05
  0.6010101E+00  0.0000000E+00  0.5050505E-02 -0.5732439E-08  0.0000000E+00 -0.6012877E-05
  0.6111111E+00  0.0000000E+00  0.5050505E-02 -0.5995937E-08  0.0000000E+00 -0.6024614E-05
  0.6212121E+00  0.0000000E+00  0.5050505E-02 -0.6238937E-08  0.0000000E+00 -0.6036858E-05
  0.6313131E+00  0.0000000E+00  0.5050505E-02 -0.6460409E-08  0.0000000E+00 -0.6049567E-05
  0.6414142E+00  0.0000000E+00  0.5050505E-02 -0.6659428E-08  0.0000000E+00 -0.6062697E-05
  0.6515151E+00  0.0000000E+00  0.5050505E-02 -0.6835176E-08  0.0000000E+00 -0.6076201E-05
  0.6616161E+00  0.0000000E+00  0.5050505E-02 -0.6986955E-08  0.0000000E+00 -0.6090034E-05
  0.6717172E+00  0.0000000E+00  0.5050505E-02 -0.7114188E-08  0.0000000E+00 -0.6104145E-05
  0.6818182E+00  0.0000000E+00  0.5050505E-02 -0.7216429E-08  0.0000000E+00 -0.6118487E-05
  0.6919192E+00  0.0000000E+00  0.5050505E-02 -0.7293355E-08  0.0000000E+00 -0.6133007E-05
  0.7020202E+00  0.0000000E+00  0.5050505E-02 -0.7344777E-08  0.0000000E+00 -0.6147656E-05
  0.7121212E+00  0.0000000E+00  0.5050505E-02 -0.7370633E-08  0.0000000E+00 -0.6162383E-05
  0.7222222E+00  0.0000000E+00  0.5050505E-02 -0.7370983E-08  0.0000000E+00 -0.6177136E-05
  0.7323232E+00  0.0000000E+00  0.5050505E-02 -0.7346011E-08  0.0000000E+00 -0.6191864E-05
  0.7424242E+00  0.0000000E+00  0.5050505E-02 -0.7296011E-08  0.0000000E+00 -0.6206517E-05
  0.7525253E+00  0.0000000E+00  0.5050505E-02 -0.7221387E-08  0.0000000E+00 -0.6221046E-05
  0.7626263E+00  0.0000000E+00  0.5050505E-02 -0.7122643E-08  0.0000000E+00 -0.6235401E-05
  0.7727273E+00  0.0000000E+00  0.5050505E-02 -0.7000372E-08  0.0000000E+00 -0.6249534E-05
  0.7828283E+00  0.0000000E+00  0.5050505E-02 -0.6855252E-08  0.0000000E+00 -0.6263401E-05
  0.7929293E+00  0.0000000E+00  0.5050505E-02 -0.6688034E-08  0.0000000E+00 -0.6276954E-05
  0.8030303E+00  0.0000000E+00  0.5050505E-02 -0.6499535E-08  0.0000000E+00 -0.6290152E-05
  0.8131313E+00  0.0000000E+00  0.5050505E-02 -0.6290628E-08  0.0000000E+00 -0.6302952E-05
  0.8232324E+00  0.0000000E+00  0.5050505E-02 -0.6062234E-08  0.0000000E+00 -0.6315315E-05
  0.8333333E+00  0.0000000E+00  0.5050505E-02 -0.5815316E-08  0.0000000E+00 -0.6327201E-05
  0.8434343E+00  0.0000000E+00  0.5050505E-02 -0.5550869E-08  0.0000000E+00 -0.6338576E-05
  0.8535354E+00  0.0000000E+00  0.5050505E-02 -0.5269916E-08  0.0000000E+00 -0.6349405E-05
  0.8636364E+00  0.0000000E+00  0.5050505E-02 -0.4973501E-08  0.0000000E+00 -0.6359657E-05
  0.8737374E+00  0.0000000E+00  0.5050505E-02 -0.4662681E-08  0.0000000E+00 -0.6369301E-05
  0.8838384E+00  0.0000000E+00  0.5050505E-02 -0.4338525E-08  0.0000000E+00 -0.6378309E-05
  0.8939394E+00  0.0000000E+00  0.5050505E-02 -0.4002110E-08  0.0000000E+00 -0.6386656E-05
  0.9040404E+00  0.0000000E+00  0.5050505E-02 -0.3654514E-08  0.0000000E+00 -0.6394319E-05
  0.9141414E+00  0.0000000E+00  0.5050505E-02 -0.3296816E-08  0.0000000E+00 -0.6401275E-05
  0.9242424E+00  0.0000000E+00  0.5050505E-02 -0.2930096E-08  0.0000000E+00 -0.6407507E-05
  0.9343435E+00  0.0000000E+00  0.5050505E-02 -0.2555429E-08  0.0000000E+00 -0.6412997E-05
  0.9444444E+00  0.0000000E+00  0.5050505E-02 -0.2173886E-08  0.0000000E+00 -0.6417730E-05
  0.9545454E+00  0.0000000E+00  0.5050505E-02 -0.1786535E-08  0.0000000E+00 -0.6421694E-05
  0.9646465E+00  0.0000000E+00  0.5050505E-02 -0.1394439E-08  0.0000000E+00 -0.6424877E-05
  0.9747475E+00  0.0000000E+00  0.5050505E-02 -0.9986575E-09  0.0000000E+00 -0.6427272E-05
  0.9848485E+00  0.0000000E+00  0.5050505E-02 -0.6002460E-09  0.0000000E+00 -0.6428872E-05
  0.9974747E+00  0.0000000E+00  0.5050505E-02 -0.2002577E-09  0.0000000E+00 -0.6429673E-05
  0.5050505E-02  0.0000000E+00  0.1515152E-01  0.6046334E-09  0.0000000E+00 -0.6223880E-05
  0.1515152E-01  0.0000000E+00  0.1515152E-01  0.1810890E-08  0.0000000E+00 -0.6223068E-05
  0.2525252E-01  0.0000000E+00  0.1515152E-01  0.3008103E-08  0.0000000E+00 -0.6221447E-05
  0.3535353E-01  0.0000000E+00  0.1515152E-01  0.4190278E-08  0.0000000E+00 -0.6219025E-05
  0.4545455E-01  0.0000000E+00  0.1515152E-01  0.5351478E-08  0.0000000E+00 -0.6215815E-05
  0.5555556E-01  0.0000000E+00  0.1515152E-01  0.6485845E-08  0.0000000E+00 -0.6211833E-05
  0.6565657E-01  0.0000000E+00  0.1515152E-01  0.7587622E-08  0.0000000E+00 -0.6207099E-05
  0.7575758E-01  0.0000000E+00  0.1515152E-01  0.8651181E-08  0.0000000E+00 -0.6201637E-05
  0.8585858E-01  0.0000000E+00  0.1515152E-01  0.9671049E-08  0.0000000E+00 -0.6195473E-05
  0.9595960E-01  0.0000000E+00  0.1515152E-01  0.1064194E-07  0.0000000E+00 -0.6188640E-05
  0.1060606E+00  0.0000000E+00  0.1515152E-01  0.1155877E-07  0.0000000E+00 -0.6181172E-05
  0.1161616E+00  0.0000000E+00  0.1515152E-01  0.1241672E-07  0.0000000E+00 -0.6173107E-05
  0.1262626E+00  0.0000000E+00  0.1515152E-01  0.1321123E-07  0.0000000E+00 -0.6164486E-05
  0.1363636E+00  0.0000000E+00  0.1515152E-01  0.1393804E-07  0.0000000E+00 -0.6155353E-05
  0.1464646E+00  0.0000000E+00  0.1515152E-01  0.1459327E-07  0.0000000E+00 -0.6145755E-05
  0.1565657E+00  0.0000000E+00  0.1515152E-01  0.1517336E-07  0.0000000E+00 -0.6135742E-05
  0.1666667E+00  0.0000000E+00  0.1515152E-01  0.1567519E-07  0.0000000E+00 -0.6125365E-05
  0.1767677E+00  0.0000000E+00  0.1515152E-01  0.1609606E-07  0.0000000E+00 -0.6114677E-05
  0.1868687E+00  0.0000000E+00  0.1515152E-01  0.1643371E-07  0.0000000E+00 -0.6103735E-05
  0.1969697E+00  0.0000000E+00  0.1515152E-01  0.1668637E-07  0.0000000E+00 -0.6092594E-05
  0.2070707E+00  0.0000000E+00  0.1515152E-01  0.1685277E-07  0.0000000E+00 -0.6081313E-05
  0.2171717E+00  0.0000000E+00  0.1515152E-01  0.1693212E-07  0.0000000E+00 -0.6069949E-05
  0.2272727E+00  0.0000000E+00  0.1515152E-01  0.1692416E-07  0.0000000E+00 -0.6058561E-05
  0.2373737E+00  0.0000000E+00  0.1515152E-01  0.1682914E-07  0.0000000E+00 -0.6047208E-05
  0.2474747E+00  0.0000000E+00  0.1515152E-01  0.1664779E-07  0.0000000E+00 -0.6035949E-05
  0.2575758E+00  0.0000000E+00  0.1515152E-01  0.1638137E-07  0.0000000E+00 -0.6024840E-05
  0.2676768E+00  0.0000000E+00  0.1515152E-01  0.1603157E-07  0.0000000E+00 -0.6013940E-05
  0.2777778E+00  0.0000000E+00  0.1515152E-01  0.1560054E-07  0.0000000E+00 -0.6003302E-05
  0.2878788E+00  0.0000000E+00  0.1515152E-01  0.1509087E-07  0.0000000E+00 -0.5992981E-05
  0.2979798E+00  0.0000000E+00  0.1515152E-01  0.1450550E-07  0.0000000E+00 -0.5983029E-05
  0.3080808E+00  0.0000000E+00  0.1515152E-01  0.1384773E-07  0.0000000E+00 -0.5973495E-05
  0.3181818E+00  0.0000000E+00  0.1515152E-01  0.1312117E-07  0.0000000E+00 -0.5964427E-05
  0.3282828E+00  0.0000000E+00  0.1515152E-01  0.1232967E-07  0.0000000E+00 -0.5955870E-05
  0.3383838E+00  0.0000000E+00  0.1515152E-01  0.1147732E-07  0.0000000E+00 -0.5947865E-05
  0.3484848E+00  0.0000000E+00  0.1515152E-01  0.1056838E-07  0.0000000E+00 -0.5940454E-05
  0.3585859E+00  0.0000000E+00  0.1515152E-01  0.9607256E-08  0.0000000E+00 -0.5933671E-05
  0.3686869E+00  0.0000000E+00  0.1515152E-01  0.8598459E-08  0.0000000E+00 -0.5927551E-05
  0.3787879E+00  0.0000000E+00  0.1515152E-01  0.7546567E-08  0.0000000E+00 -0.5922123E-05
  0.3888889E+00  0.0000000E+00  0.1515152E-01  0.6456203E-08  0.0000000E+00 -0.5917416E-05
  0.3989899E+00  0.0000000E+00  0.1515152E-01  0.5332011E-08  0.0000000E+00 -0.5913453E-05
  0.4090909E+00  0.0000000E+00  0.1515152E-01  0.4178639E-08  0.0000000E+00 -0.5910255E-05
  0.4191919E+00  0.0000000E+00  0.1515152E-01  0.3000719E-08  0.0000000E+00 -0.5907841E-05
  0.4292929E+00  0.0000000E+00  0.1515152E-01  0.1802868E-08  0.0000000E+00 -0.5906226E-05
  0.4393939E+00  0.0000000E+00  0.1515152E-01  0.5896763E-09  0.0000000E+00 -0.5905420E-05
  0.4494950E+00  0.0000000E+00  0.1515152E-01 -0.6342920E-09  0.0000000E+00 -0.5905434E-05
  0.4595959E+00  0.0000000E+00  0.1515152E-01 -0.1864494E-08  0.0000000E+00 -0.5906272E-05
  0.4696970E+00  0.0000000E+00  0.1515152E-01 -0.3096408E-08  0.0000000E+00 -0.5907937E-05
  0.4797980E+00  0.0000000E+00  0.1515152E-01 -0.4325524E-08  0.0000000E+00 -0.5910429E-05
  0.4898990E+00  0.0000000E+00  0.1515152E-01 -0.5547344E-08  0.0000000E+00 -0.5913745E-05
  0.5000000E+00  0.0000000E+00  0.1515152E-01 -0.6757376E-08  0.0000000E+00 -0.5917878E-05
  0.5101010E+00  0.0000000E+00  0.1515152E-01 -0.7951132E-08  0.0000000E+00 -0.5922818E-05
  0.5202020E+00  0.0000000E+00  0.1515152E-01 -0.9124133E-08  0.0000000E+00 -0.5928554E-05
  0.5303030E+00  0.0000000E+00  0.1515152E-01 -0.1027191E-07  0.0000000E+00 -0.5935069E-05
  0.5404040E+00  0.0000000E+00  0.1515152E-01 -0.1139003E-07  0.0000000E+00 -0.5942346E-05
  0.5505050E+00  0.0000000E+00  0.1515152E-01 -0.1247408E-07  0.0000000E+00 -0.5950363E-05
  0.5606061E+00  0.0000000E+00  0.1515152E-01 -0.1351972E-07  0.0000000E+00 -0.5959096E-05
  0.5707071E+00  0.0000000E+00  0.1515152E-01 -0.1452270E-07  0.0000000E+00 -0.5968517E-05
  0.5808081E+00  0.0000000E+00  0.1515152E-01 -0.1547885E-07  0.0000000E+00 -0.5978597E-05
  0.5909091E+00  0.0000000E+00  0.1515152E-01 -0.1638418E-07  0.0000000E+00 -0.5989303E-05
  0.6010101E+00  0.0000000E+00  0.1515152E-01 -0.1723487E-07  0.0000000E+00 -0.6000598E-05
  0.6111111E+00  0.0000000E+00  0.1515152E-01 -0.1802728E-07  0.0000000E+00 -0.6012447E-05
  0.6212121E+00  0.0000000E+00  0.1515152E-01 -0.1875804E-07  0.0000000E+00 -0.6024807E-05
  0.6313131E+00  0.0000000E+00  0.1515152E-01 -0.1942405E-07  0.0000000E+00 -0.6037637E-05
  0.6414142E+00  0.0000000E+00  0.1515152E-01 -0.2002253E-07  0.0000000E+00 -0.6050892E-05
  0.6515151E+00  0.0000000E+00  0.1515152E-01 -0.2055101E-07  0.0000000E+00 -0.6064525E-05
  0.6616161E+00  0.0000000E+00  0.1515152E-01 -0.2100738E-07  0.0000000E+00 -0.6078490E-05
  0.6717172E+00  0.0000000E+00  0.1515152E-01 -0.2138992E-07  0.0000000E+00 -0.6092737E-05
  0.6818182E+00  0.0000000E+00  0.1515152E-01 -0.2169727E-07  0.0000000E+00 -0.6107215E-05
  0.6919192E+00  0.0000000E+00  0.1515152E-01 -0.2192847E-07  0.0000000E+00 -0.6121875E-05
  0.7020202E+00  0.0000000E+00  0.1515152E-01 -0.2208294E-07  0.0000000E+00 -0.6136663E-05
  0.7121212E+00  0.0000000E+00  0.1515152E-01 -0.2216051E-07  0.0000000E+00 -0.6151530E-05
  0.7222222E+00  0.0000000E+00  0.1515152E-01 -0.2216137E-07  0.0000000E+00 -0.6166423E-05
  0.7323232E+00  0.0000000E+00  0.1515152E-01 -0.2208606E-07  0.0000000E+00 -0.6181290E-05
  0.7424242E+00  0.0000000E+00  0.1515152E-01 -0.2193548E-07  0.0000000E+00 -0.6196082E-05
  0.7525253E+00  0.0000000E+00  0.1515152E-01 -0.2171086E-07  0.0000000E+00 -0.6210747E-05
  0.7626263E+00  0.0000000E+00  0.1515152E-01 -0.2141370E-07  0.0000000E+00 -0.6225236E-05
  0.7727273E+00  0.0000000E+00  0.1515152E-01 -0.2104581E-07  0.0000000E+00 -0.6239501E-05
  0.7828283E+00  0.0000000E+00  0.1515152E-01 -0.2060922E-07  0.0000000E+00 -0.6253496E-05
  0.7929293E+00  0.0000000E+00  0.1515152E-01 -0.2010621E-07  0.0000000E+00 -0.6267175E-05
  0.8030303E+00  0.0000000E+00  0.1515152E-01 -0.1953924E-07  0.0000000E+00 -0.6280494E-05
  0.8131313E+00  0.0000000E+00  0.1515152E-01 -0.1891092E-07  0.0000000E+00 -0.6293411E-05
  0.8232324E+00  0.0000000E+00  0.1515152E-01 -0.1822405E-07  0.0000000E+00 -0.6305886E-05
  0.8333333E+00  0.0000000E+00  0.1515152E-01 -0.1748152E-07  0.0000000E+00 -0.6317880E-05
  0.8434343E+00  0.0000000E+00  0.1515152E-01 -0.1668632E-07  0.0000000E+00 -0.6329357E-05
  0.8535354E+00  0.0000000E+00  0.1515152E-01 -0.1584153E-07  0.0000000E+00 -0.6340284E-05
  0.8636364E+00  0.0000000E+00  0.1515152E-01 -0.1495030E-07  0.0000000E+00 -0.6350626E-05
  0.8737374E+00  0.0000000E+00  0.1515152E-01 -0.1401580E-07  0.0000000E+00 -0.6360356E-05
  0.8838384E+00  0.0000000E+00  0.1515152E-01 -0.1304124E-07  0.0000000E+00 -0.6369444E-05
  0.8939394E+00  0.0000000E+00  0.1515152E-01 -0.1202987E-07  0.0000000E+00 -0.6377864E-05
  0.9040404E+00  0.0000000E+00  0.1515152E-01 -0.1098492E-07  0.0000000E+00 -0.6385594E-05
  0.9141414E+00  0.0000000E+00  0.1515152E-01 -0.9909637E-08  0.0000000E+00 -0.6392612E-05
  0.9242424E+00  0.0000000E+00  0.1515152E-01 -0.8807265E-08  0.0000000E+00 -0.6398898E-05
  0.9343435E+00  0.0000000E+00  0.1515152E-01 -0.7681033E-08  0.0000000E+00 -0.6404436E-05
  0.9444444E+00  0.0000000E+00  0.1515152E-01 -0.6534158E-08  0.0000000E+00 -0.6409210E-05
  0.9545454E+00  0.0000000E+00  0.1515152E-01 -0.5369848E-08  0.0000000E+00 -0.6413207E-05
  0.9646465E+00  0.0000000E+00  0.1515152E-01 -0.4191293E-08  0.0000000E+00 -0.6416418E-05
  0.9747475E+00  0.0000000E+00  0.1515152E-01 -0.3001674E-08  0.0000000E+00 -0.6418834E-05
  0.9848485E+00  0.0000000E+00  0.1515152E-01 -0.1804161E-08  0.0000000E+00 -0.6420448E-05
  0.9974747E+00  0.0000000E+00  0.1515152E-01 -0.6019139E-09  0.0000000E+00 -0.6421256E-05
  0.5050505E-02  0.0000000E+00  0.2525252E-01  0.1013854E-08  0.0000000E+00 -0.6204480E-05
  0.1515152E-01  0.0000000E+00  0.2525252E-01  0.3036515E-08  0.0000000E+00 -0.6203649E-05
  0.2525252E-01  0.0000000E+00  0.2525252E-01  0.5044019E-08  0.0000000E+00 -0.6201992E-05
  0.3535353E-01  0.0000000E+00  0.2525252E-01  0.7026321E-08  0.0000000E+00 -0.6199517E-05
  0.4545455E-01  0.0000000E+00  0.2525252E-01  0.8973468E-08  0.0000000E+00 -0.6196236E-05
  0.5555556E-01  0.0000000E+00  0.2525252E-01  0.1087564E-07  0.0000000E+00 -0.6192165E-05
  0.6565657E-01  0.0000000E+00  0.2525252E-01  0.1272318E-07  0.0000000E+00 -0.6187326E-05
  0.7575758E-01  0.0000000E+00  0.2525252E-01  0.1450665E-07  0.0000000E+00 -0.6181742E-05
  0.8585858E-01  0.0000000E+00  0.2525252E-01  0.1621687E-07  0.0000000E+00 -0.6175441E-05
  0.9595960E-01  0.0000000E+00  0.2525252E-01  0.1784497E-07  0.0000000E+00 -0.6168456E-05
  0.1060606E+00  0.0000000E+00  0.2525252E-01  0.1938243E-07  0.0000000E+00 -0.6160822E-05
  0.1161616E+00  0.0000000E+00  0.2525252E-01  0.2082113E-07  0.0000000E+00 -0.6152577E-05
  0.1262626E+00  0.0000000E+00  0.2525252E-01  0.2215342E-07  0.0000000E+00 -0.6143764E-05
  0.1363636E+00  0.0000000E+00  0.2525252E-01  0.2337218E-07  0.0000000E+00 -0.6134427E-05
  0.1464646E+00  0.0000000E+00  0.2525252E-01  0.2447083E-07  0.0000000E+00 -0.6124616E-05
  0.1565657E+00  0.0000000E+00  0.2525252E-01  0.2544344E-07  0.0000000E+00 -0.6114379E-05
  0.1666667E+00  0.0000000E+00  0.2525252E-01  0.2628474E-07  0.0000000E+00 -0.6103771E-05
  0.1767677E+00  0.0000000E+00  0.2525252E-01  0.2699019E-07  0.0000000E+00 -0.6092847E-05
  0.1868687E+00  0.0000000E+00  0.2525252E-01  0.2755601E-07  0.0000000E+00 -0.6081661E-05
  0.1969697E+00  0.0000000E+00  0.2525252E-01  0.2797923E-07  0.0000000E+00 -0.6070274E-05
  0.2070707E+00  0.0000000E+00  0.2525252E-01  0.2825769E-07  0.0000000E+00 -0.6058743E-05
  0.2171717E+00  0.0000000E+00  0.2525252E-01  0.2839010E-07  0.0000000E+00 -0.6047129E-05
  0.2272727E+00  0.0000000E+00  0.2525252E-01  0.2837602E-07  0.0000000E+00 -0.6035491E-05
  0.2373737E+00  0.0000000E+00  0.2525252E-01  0.2821587E-07  0.0000000E+00 -0.6023890E-05
  0.2474747E+00  0.0000000E+00  0.2525252E-01  0.2791092E-07  0.0000000E+00 -0.6012386E-05
  0.2575758E+00  0.0000000E+00  0.2525252E-01  0.2746328E-07  0.0000000E+00 -0.6001036E-05
  0.2676768E+00  0.0000000E+00  0.2525252E-01  0.2687582E-07  0.0000000E+00 -0.5989900E-05
  0.2777778E+00  0.0000000E+00  0.2525252E-01  0.2615219E-07  0.0000000E+00 -0.5979034E-05
  0.2878788E+00  0.0000000E+00  0.2525252E-01  0.2529673E-07  0.0000000E+00 -0.5968493E-05
  0.2979798E+00  0.0000000E+00  0.2525252E-01  0.2431444E-07  0.0000000E+00 -0.5958330E-05
  0.3080808E+00  0.0000000E+00  0.2525252E-01  0.2321086E-07  0.0000000E+00 -0.5948595E-05
  0.3181818E+00  0.0000000E+00  0.2525252E-01  0.2199208E-07  0.0000000E+00 -0.5939337E-05
  0.3282828E+00  0.0000000E+00  0.2525252E-01  0.2066460E-07  0.0000000E+00 -0.5930602E-05
  0.3383838E+00  0.0000000E+00  0.2525252E-01  0.1923529E-07  0.0000000E+00 -0.5922432E-05
  0.3484848E+00  0.0000000E+00  0.2525252E-01  0.1771134E-07  0.0000000E+00 -0.5914868E-05
  0.3585859E+00  0.0000000E+00  0.2525252E-01  0.1610013E-07  0.0000000E+00 -0.5907946E-05
  0.3686869E+00  0.0000000E+00  0.2525252E-01  0.1440923E-07  0.0000000E+00 -0.5901701E-05
  0.3787879E+00  0.0000000E+00  0.2525252E-01  0.1264634E-07  0.0000000E+00 -0.5896163E-05
  0.3888889E+00  0.0000000E+00  0.2525252E-01  0.1081920E-07  0.0000000E+00 -0.5891360E-05
  0.3989899E+00  0.0000000E+00  0.2525252E-01  0.8935589E-08  0.0000000E+00 -0.5887317E-05
  0.4090909E+00  0.0000000E+00  0.2525252E-01  0.7003280E-08  0.0000000E+00 -0.5884053E-05
  0.4191919E+00  0.0000000E+00  0.2525252E-01  0.5030022E-08  0.0000000E+00 -0.5881589E-05
  0.4292929E+00  0.0000000E+00  0.2525252E-01  0.3023526E-08  0.0000000E+00 -0.5879938E-05
  0.4393939E+00  0.0000000E+00  0.2525252E-01  0.9914544E-09  0.0000000E+00 -0.5879113E-05
  0.4494950E+00  0.0000000E+00  0.2525252E-01 -0.1058574E-08  0.0000000E+00 -0.5879122E-05
  0.4595959E+00  0.0000000E+00  0.2525252E-01 -0.3118981E-08  0.0000000E+00 -0.5879972E-05
  0.4696970E+00  0.0000000E+00  0.2525252E-01 -0.5182224E-08  0.0000000E+00 -0.5881663E-05
  0.4797980E+00  0.0000000E+00  0.2525252E-01 -0.7240780E-08  0.0000000E+00 -0.5884198E-05
  0.4898990E+00  0.0000000E+00  0.2525252E-01 -0.9287145E-08  0.0000000E+00 -0.5887571E-05
  0.5000000E+00  0.0000000E+00  0.2525252E-01 -0.1131382E-07  0.0000000E+00 -0.5891776E-05
  0.5101010E+00  0.0000000E+00  0.2525252E-01 -0.1331330E-07  0.0000000E+00 -0.5896804E-05
  0.5202020E+00  0.0000000E+00  0.2525252E-01 -0.1527812E-07  0.0000000E+00 -0.5902643E-05
  0.5303030E+00  0.0000000E+00  0.2525252E-01 -0.1720078E-07  0.0000000E+00 -0.5909276E-05
  0.5404040E+00  0.0000000E+00  0.2525252E-01 -0.1907387E-07  0.0000000E+00 -0.5916686E-05
  0.5505050E+00  0.0000000E+00  0.2525252E-01 -0.2088999E-07  0.0000000E+00 -0.5924850E-05
  0.5606061E+00  0.0000000E+00  0.2525252E-01 -0.2264187E-07  0.0000000E+00 -0.5933743E-05
  0.5707071E+00  0.0000000E+00  0.2525252E-01 -0.2432236E-07  0.0000000E+00 -0.5943339E-05
  0.5808081E+00  0.0000000E+00  0.2525252E-01 -0.2592448E-07  0.0000000E+00 -0.5953607E-05
  0.5909091E+00  0.0000000E+00  0.2525252E-01 -0.2744150E-07  0.0000000E+00 -0.5964513E-05
  0.6010101E+00  0.0000000E+00  0.2525252E-01 -0.2886698E-07  0.0000000E+00 -0.5976021E-05
  0.6111111E+00  0.0000000E+00  0.2525252E-01 -0.3019484E-07  0.0000000E+00 -0.5988092E-05
  0.6212121E+00  0.0000000E+00  0.2525252E-01 -0.3141939E-07  0.0000000E+00 -0.6000686E-05
  0.6313131E+00  0.0000000E+00  0.2525252E-01 -0.3253542E-07  0.0000000E+00 -0.6013759E-05
  0.6414142E+00  0.0000000E+00  0.2525252E-01 -0.3353822E-07  0.0000000E+00 -0.6027266E-05
  0.6515151E+00  0.0000000E+00  0.2525252E-01 -0.3442366E-07  0.0000000E+00 -0.6041159E-05
  0.6616161E+00  0.0000000E+00  0.2525252E-01 -0.3518820E-07  0.0000000E+00 -0.6055389E-05
  0.6717172E+00  0.0000000E+00  0.2525252E-01 -0.3582892E-07  0.0000000E+00 -0.6069907E-05
  0.6818182E+00  0.0000000E+00  0.2525252E-01 -0.3634356E-07  0.0000000E+00 -0.6084661E-05
  0.6919192E+00  0.0000000E+00  0.2525252E-01 -0.3673050E-07  0.0000000E+00 -0.6099599E-05
  0.7020202E+00  0.0000000E+00  0.2525252E-01 -0.3698881E-07  0.0000000E+00 -0.6114668E-05
  0.7121212E+00  0.0000000E+00  0.2525252E-01 -0.3711818E-07  0.0000000E+00 -0.6129817E-05
  0.7222222E+00  0.0000000E+00  0.2525252E-01 -0.3711894E-07  0.0000000E+00 -0.6144991E-05
  0.7323232E+00  0.0000000E+00  0.2525252E-01 -0.3699204E-07  0.0000000E+00 -0.6160138E-05
  0.7424242E+00  0.0000000E+00  0.2525252E-01 -0.3673899E-07  0.0000000E+00 -0.6175207E-05
  0.7525253E+00  0.0000000E+00  0.2525252E-01 -0.3636187E-07  0.0000000E+00 -0.6190146E-05
  0.7626263E+00  0.0000000E+00  0.2525252E-01 -0.3586323E-07  0.0000000E+00 -0.6204905E-05
  0.7727273E+00  0.0000000E+00  0.2525252E-01 -0.3524611E-07  0.0000000E+00 -0.6219434E-05
  0.7828283E+00  0.0000000E+00  0.2525252E-01 -0.3451395E-07  0.0000000E+00 -0.6233687E-05
  0.7929293E+00  0.0000000E+00  0.2525252E-01 -0.3367056E-07  0.0000000E+00 -0.6247617E-05
  0.8030303E+00  0.0000000E+00  0.2525252E-01 -0.3272010E-07  0.0000000E+00 -0.6261179E-05
  0.8131313E+00  0.0000000E+00  0.2525252E-01 -0.3166698E-07  0.0000000E+00 -0.6274331E-05
  0.8232324E+00  0.0000000E+00  0.2525252E-01 -0.3051588E-07  0.0000000E+00 -0.6287032E-05
  0.8333333E+00  0.0000000E+00  0.2525252E-01 -0.2927165E-07  0.0000000E+00 -0.6299242E-05
  0.8434343E+00  0.0000000E+00  0.2525252E-01 -0.2793934E-07  0.0000000E+00 -0.6310925E-05
  0.8535354E+00  0.0000000E+00  0.2525252E-01 -0.2652409E-07  0.0000000E+00 -0.6322046E-05
  0.8636364E+00  0.0000000E+00  0.2525252E-01 -0.2503119E-07  0.0000000E+00 -0.6332572E-05
  0.8737374E+00  0.0000000E+00  0.2525252E-01 -0.2346595E-07  0.0000000E+00 -0.6342473E-05
  0.8838384E+00  0.0000000E+00  0.2525252E-01 -0.2183377E-07  0.0000000E+00 -0.6351721E-05
  0.8939394E+00  0.0000000E+00  0.2525252E-01 -0.2014006E-07  0.0000000E+00 -0.6360289E-05
  0.9040404E+00  0.0000000E+00  0.2525252E-01 -0.1839024E-07  0.0000000E+00 -0.6368154E-05
  0.9141414E+00  0.0000000E+00  0.2525252E-01 -0.1658976E-07  0.0000000E+00 -0.6375294E-05
  0.9242424E+00  0.0000000E+00  0.2525252E-01 -0.1474401E-07  0.0000000E+00 -0.6381689E-05
  0.9343435E+00  0.0000000E+00  0.2525252E-01 -0.1285842E-07  0.0000000E+00 -0.6387322E-05
  0.9444444E+00  0.0000000E+00  0.2525252E-01 -0.1093835E-07  0.0000000E+00 -0.6392179E-05
  0.9545454E+00  0.0000000E+00  0.2525252E-01 -0.8989163E-08  0.0000000E+00 -0.6396245E-05
  0.9646465E+00  0.0000000E+00  0.2525252E-01 -0.7016190E-08  0.0000000E+00 -0.6399511E-05
  0.9747475E+00  0.0000000E+00  0.2525252E-01 -0.5024744E-08  0.0000000E+00 -0.6401968E-05
  0.9848485E+00  0.0000000E+00  0.2525252E-01 -0.3020116E-08  0.0000000E+00 -0.6403610E-05
  0.9974747E+00  0.0000000E+00  0.2525252E-01 -0.1007584E-08  0.0000000E+00 -0.6404432E-05
  0.5050505E-02  0.0000000E+00  0.3535353E-01  0.1433217E-08  0.0000000E+00 -0.6175386E-05
  0.1515152E-01  0.0000000E+00  0.3535353E-01  0.4292519E-08  0.0000000E+00 -0.6174529E-05
  0.2525252E-01  0.0000000E+00  0.3535353E-01  0.7130413E-08  0.0000000E+00 -0.6172817E-05
  0.3535353E-01  0.0000000E+00  0.3535353E-01  0.9932706E-08  0.0000000E+00 -0.6170261E-05
  0.4545455E-01  0.0000000E+00  0.3535353E-01  0.1268534E-07  0.0000000E+00 -0.6166872E-05
  0.5555556E-01  0.0000000E+00  0.3535353E-01  0.1537443E-07  0.0000000E+00 -0.6162668E-05
  0.6565657E-01  0.0000000E+00  0.3535353E-01  0.1798633E-07  0.0000000E+00 -0.6157669E-05
  0.7575758E-01  0.0000000E+00  0.3535353E-01  0.2050770E-07  0.0000000E+00 -0.6151901E-05
  0.8585858E-01  0.0000000E+00  0.3535353E-01  0.2292554E-07  0.0000000E+00 -0.6145393E-05
  0.9595960E-01  0.0000000E+00  0.3535353E-01  0.2522730E-07  0.0000000E+00 -0.6138177E-05
  0.1060606E+00  0.0000000E+00  0.3535353E-01  0.2740092E-07  0.0000000E+00 -0.6130291E-05
  0.1161616E+00  0.0000000E+00  0.3535353E-01  0.2943491E-07  0.0000000E+00 -0.6121774E-05
  0.1262626E+00  0.0000000E+00  0.3535353E-01  0.3131843E-07  0.0000000E+00 -0.6112670E-05
  0.1363636E+00  0.0000000E+00  0.3535353E-01  0.3304136E-07  0.0000000E+00 -0.6103026E-05
  0.1464646E+00  0.0000000E+00  0.3535353E-01  0.3459440E-07  0.0000000E+00 -0.6092891E-05
  0.1565657E+00  0.0000000E+00  0.3535353E-01  0.3596912E-07  0.0000000E+00 -0.6082317E-05
  0.1666667E+00  0.0000000E+00  0.3535353E-01  0.3715806E-07  0.0000000E+00 -0.6071360E-05
  0.1767677E+00  0.0000000E+00  0.3535353E-01  0.3815477E-07  0.0000000E+00 -0.6060075E-05
  0.1868687E+00  0.0000000E+00  0.3535353E-01  0.3895389E-07  0.0000000E+00 -0.6048523E-05
  0.1969697E+00  0.0000000E+00  0.3535353E-01  0.3955120E-07  0.0000000E+00 -0.6036762E-05
  0.2070707E+00  0.0000000E+00  0.3535353E-01  0.3994367E-07  0.0000000E+00 -0.6024854E-05
  0.2171717E+00  0.0000000E+00  0.3535353E-01  0.4012947E-07  0.0000000E+00 -0.6012860E-05
  0.2272727E+00  0.0000000E+00  0.3535353E-01  0.4010799E-07  0.0000000E+00 -0.6000844E-05
  0.2373737E+00  0.0000000E+00  0.3535353E-01  0.3987987E-07  0.0000000E+00 -0.5988868E-05
  0.2474747E+00  0.0000000E+00  0.3535353E-01  0.3944693E-07  0.0000000E+00 -0.5976992E-05
  0.2575758E+00  0.0000000E+00  0.3535353E-01  0.3881219E-07  0.0000000E+00 -0.5965278E-05
  0.2676768E+00  0.0000000E+00  0.3535353E-01  0.3797979E-07  0.0000000E+00 -0.5953787E-05
  0.2777778E+00  0.0000000E+00  0.3535353E-01  0.3695494E-07  0.0000000E+00 -0.5942576E-05
  0.2878788E+00  0.0000000E+00  0.3535353E-01  0.3574385E-07  0.0000000E+00 -0.5931702E-05
  0.2979798E+00  0.0000000E+00  0.3535353E-01  0.3435364E-07  0.0000000E+00 -0.5921220E-05