title = "dataset water"
variables = "x", "y", "z", "vx", "vy", "vz"
zone t = "velocities, solution time =  2.200E+01 days        " i =   99, j =   99, k =    1,  f=point
  0.5050505E-02  0.0000000E+00  0.5050505E-02  0.1245790E-11  0.0000000E+00 -0.1563550E-04
  0.1515152E-01  0.0000000E+00  0.5050505E-02  0.3987248E-11  0.0000000E+00 -0.1563549E-04
  0.2525252E-01  0.0000000E+00  0.5050505E-02  0.6742723E-11  0.0000000E+00 -0.1563548E-04
  0.3535353E-01  0.0000000E+00  0.5050505E-02  0.9420842E-11  0.0000000E+00 -0.1563547E-04
  0.4545455E-01  0.0000000E+00  0.5050505E-02  0.1207745E-10  0.0000000E+00 -0.1563545E-04
  0.5555556E-01  0.0000000E+00  0.5050505E-02  0.1471867E-10  0.0000000E+00 -0.1563542E-04
  0.6565657E-01  0.0000000E+00  0.5050505E-02  0.1723436E-10  0.0000000E+00 -0.1563539E-04
  0.7575758E-01  0.0000000E+00  0.5050505E-02  0.1972486E-10  0.0000000E+00 -0.1563535E-04
  0.8585858E-01  0.0000000E+00  0.5050505E-02  0.2217559E-10  0.0000000E+00 -0.1563531E-04
  0.9595960E-01  0.0000000E+00  0.5050505E-02  0.2450443E-10  0.0000000E+00 -0.1563526E-04
  0.1060606E+00  0.0000000E+00  0.5050505E-02  0.2672459E-10  0.0000000E+00 -0.1563521E-04
  0.1161616E+00  0.0000000E+00  0.5050505E-02  0.2885158E-10  0.0000000E+00 -0.1563515E-04
  0.1262626E+00  0.0000000E+00  0.5050505E-02  0.3086487E-10  0.0000000E+00 -0.1563509E-04
  0.1363636E+00  0.0000000E+00  0.5050505E-02  0.3274256E-10  0.0000000E+00 -0.1563503E-04
  0.1464646E+00  0.0000000E+00  0.5050505E-02  0.3447712E-10  0.0000000E+00 -0.1563496E-04
  0.1565657E+00  0.0000000E+00  0.5050505E-02  0.3606614E-10  0.0000000E+00 -0.1563489E-04
  0.1666667E+00  0.0000000E+00  0.5050505E-02  0.3750458E-10  0.0000000E+00 -0.1563482E-04
  0.1767677E+00  0.0000000E+00  0.5050505E-02  0.3878538E-10  0.0000000E+00 -0.1563474E-04
  0.1868687E+00  0.0000000E+00  0.5050505E-02  0.3990239E-10  0.0000000E+00 -0.1563466E-04
  0.1969697E+00  0.0000000E+00  0.5050505E-02  0.4085119E-10  0.0000000E+00 -0.1563458E-04
  0.2070707E+00  0.0000000E+00  0.5050505E-02  0.4162834E-10  0.0000000E+00 -0.1563450E-04
  0.2171717E+00  0.0000000E+00  0.5050505E-02  0.4223053E-10  0.0000000E+00 -0.1563442E-04
  0.2272727E+00  0.0000000E+00  0.5050505E-02  0.4265433E-10  0.0000000E+00 -0.1563433E-04
  0.2373737E+00  0.0000000E+00  0.5050505E-02  0.4289654E-10  0.0000000E+00 -0.1563424E-04
  0.2474747E+00  0.0000000E+00  0.5050505E-02  0.4295436E-10  0.0000000E+00 -0.1563416E-04
  0.2575758E+00  0.0000000E+00  0.5050505E-02  0.4282572E-10  0.0000000E+00 -0.1563407E-04
  0.2676768E+00  0.0000000E+00  0.5050505E-02  0.4250928E-10  0.0000000E+00 -0.1563399E-04
  0.2777778E+00  0.0000000E+00  0.5050505E-02  0.4200445E-10  0.0000000E+00 -0.1563390E-04
  0.2878788E+00  0.0000000E+00  0.5050505E-02  0.4131150E-10  0.0000000E+00 -0.1563382E-04
  0.2979798E+00  0.0000000E+00  0.5050505E-02  0.4043150E-10  0.0000000E+00 -0.1563374E-04
  0.3080808E+00  0.0000000E+00  0.5050505E-02  0.3936640E-10  0.0000000E+00 -0.1563366E-04
  0.3181818E+00  0.0000000E+00  0.5050505E-02  0.3811905E-10  0.0000000E+00 -0.1563358E-04
  0.3282828E+00  0.0000000E+00  0.5050505E-02  0.3669313E-10  0.0000000E+00 -0.1563350E-04
  0.3383838E+00  0.0000000E+00  0.5050505E-02  0.3509329E-10  0.0000000E+00 -0.1563343E-04
  0.3484848E+00  0.0000000E+00  0.5050505E-02  0.3332512E-10  0.0000000E+00 -0.1563336E-04
  0.3585859E+00  0.0000000E+00  0.5050505E-02  0.3139532E-10  0.0000000E+00 -0.1563330E-04
  0.3686869E+00  0.0000000E+00  0.5050505E-02  0.2931173E-10  0.0000000E+00 -0.1563324E-04
  0.3787879E+00  0.0000000E+00  0.5050505E-02  0.2708344E-10  0.0000000E+00 -0.1563318E-04
  0.3888889E+00  0.0000000E+00  0.5050505E-02  0.2472083E-10  0.0000000E+00 -0.1563313E-04
  0.3989899E+00  0.0000000E+00  0.5050505E-02  0.2223549E-10  0.0000000E+00 -0.1563308E-04
  0.4090909E+00  0.0000000E+00  0.5050505E-02  0.1964004E-10  0.0000000E+00 -0.1563304E-04
  0.4191919E+00  0.0000000E+00  0.5050505E-02  0.1694797E-10  0.0000000E+00 -0.1563300E-04
  0.4292929E+00  0.0000000E+00  0.5050505E-02  0.1417333E-10  0.0000000E+00 -0.1563297E-04
  0.4393939E+00  0.0000000E+00  0.5050505E-02  0.1133047E-10  0.0000000E+00 -0.1563295E-04
  0.4494950E+00  0.0000000E+00  0.5050505E-02  0.8433490E-11  0.0000000E+00 -0.1563293E-04
  0.4595959E+00  0.0000000E+00  0.5050505E-02  0.5495842E-11  0.0000000E+00 -0.1563291E-04
  0.4696970E+00  0.0000000E+00  0.5050505E-02  0.2530846E-11  0.0000000E+00 -0.1563291E-04
  0.4797980E+00  0.0000000E+00  0.5050505E-02 -0.4505773E-12  0.0000000E+00 -0.1563290E-04
  0.4898990E+00  0.0000000E+00  0.5050505E-02 -0.3469294E-11  0.0000000E+00 -0.1563291E-04
  0.5000000E+00  0.0000000E+00  0.5050505E-02 -0.6446457E-11  0.0000000E+00 -0.1563292E-04
  0.5101010E+00  0.0000000E+00  0.5050505E-02 -0.9418383E-11  0.0000000E+00 -0.1563293E-04
  0.5202020E+00  0.0000000E+00  0.5050505E-02 -0.1233499E-10  0.0000000E+00 -0.1563296E-04
  0.5303030E+00  0.0000000E+00  0.5050505E-02 -0.1522397E-10  0.0000000E+00 -0.1563298E-04
  0.5404040E+00  0.0000000E+00  0.5050505E-02 -0.1809549E-10  0.0000000E+00 -0.1563302E-04
  0.5505050E+00  0.0000000E+00  0.5050505E-02 -0.2083322E-10  0.0000000E+00 -0.1563306E-04
  0.5606061E+00  0.0000000E+00  0.5050505E-02 -0.2352374E-10  0.0000000E+00 -0.1563310E-04
  0.5707071E+00  0.0000000E+00  0.5050505E-02 -0.2615519E-10  0.0000000E+00 -0.1563315E-04
  0.5808081E+00  0.0000000E+00  0.5050505E-02 -0.2864916E-10  0.0000000E+00 -0.1563320E-04
  0.5909091E+00  0.0000000E+00  0.5050505E-02 -0.3101513E-10  0.0000000E+00 -0.1563326E-04
  0.6010101E+00  0.0000000E+00  0.5050505E-02 -0.3326594E-10  0.0000000E+00 -0.1563333E-04
  0.6111111E+00  0.0000000E+00  0.5050505E-02 -0.3538250E-10  0.0000000E+00 -0.1563340E-04
  0.6212121E+00  0.0000000E+00  0.5050505E-02 -0.3734484E-10  0.0000000E+00 -0.1563347E-04
  0.6313131E+00  0.0000000E+00  0.5050505E-02 -0.3914630E-10  0.0000000E+00 -0.1563355E-04
  0.6414142E+00  0.0000000E+00  0.5050505E-02 -0.4078546E-10  0.0000000E+00 -0.1563363E-04
  0.6515151E+00  0.0000000E+00  0.5050505E-02 -0.4225898E-10  0.0000000E+00 -0.1563371E-04
  0.6616161E+00  0.0000000E+00  0.5050505E-02 -0.4356212E-10  0.0000000E+00 -0.1563380E-04
  0.6717172E+00  0.0000000E+00  0.5050505E-02 -0.4469116E-10  0.0000000E+00 -0.1563388E-04
  0.6818182E+00  0.0000000E+00  0.5050505E-02 -0.4564420E-10  0.0000000E+00 -0.1563398E-04
  0.6919192E+00  0.0000000E+00  0.5050505E-02 -0.4642034E-10  0.0000000E+00 -0.1563407E-04
  0.7020202E+00  0.0000000E+00  0.5050505E-02 -0.4701890E-10  0.0000000E+00 -0.1563416E-04
  0.7121212E+00  0.0000000E+00  0.5050505E-02 -0.4743921E-10  0.0000000E+00 -0.1563426E-04
  0.7222222E+00  0.0000000E+00  0.5050505E-02 -0.4768085E-10  0.0000000E+00 -0.1563435E-04
  0.7323232E+00  0.0000000E+00  0.5050505E-02 -0.4774392E-10  0.0000000E+00 -0.1563445E-04
  0.7424242E+00  0.0000000E+00  0.5050505E-02 -0.4762923E-10  0.0000000E+00 -0.1563454E-04
  0.7525253E+00  0.0000000E+00  0.5050505E-02 -0.4733839E-10  0.0000000E+00 -0.1563464E-04
  0.7626263E+00  0.0000000E+00  0.5050505E-02 -0.4687381E-10  0.0000000E+00 -0.1563473E-04
  0.7727273E+00  0.0000000E+00  0.5050505E-02 -0.4623874E-10  0.0000000E+00 -0.1563482E-04
  0.7828283E+00  0.0000000E+00  0.5050505E-02 -0.4543720E-10  0.0000000E+00 -0.1563492E-04
  0.7929293E+00  0.0000000E+00  0.5050505E-02 -0.4447395E-10  0.0000000E+00 -0.1563501E-04
  0.8030303E+00  0.0000000E+00  0.5050505E-02 -0.4335426E-10  0.0000000E+00 -0.1563509E-04
  0.8131313E+00  0.0000000E+00  0.5050505E-02 -0.4208386E-10  0.0000000E+00 -0.1563518E-04
  0.8232324E+00  0.0000000E+00  0.5050505E-02 -0.4066865E-10  0.0000000E+00 -0.1563526E-04
  0.8333333E+00  0.0000000E+00  0.5050505E-02 -0.3911471E-10  0.0000000E+00 -0.1563534E-04
  0.8434343E+00  0.0000000E+00  0.5050505E-02 -0.3742816E-10  0.0000000E+00 -0.1563542E-04
  0.8535354E+00  0.0000000E+00  0.5050505E-02 -0.3561527E-10  0.0000000E+00 -0.1563549E-04
  0.8636364E+00  0.0000000E+00  0.5050505E-02 -0.3368246E-10  0.0000000E+00 -0.1563556E-04
  0.8737374E+00  0.0000000E+00  0.5050505E-02 -0.3163653E-10  0.0000000E+00 -0.1563563E-04
  0.8838384E+00  0.0000000E+00  0.5050505E-02 -0.2948474E-10  0.0000000E+00 -0.1563569E-04
  0.8939394E+00  0.0000000E+00  0.5050505E-02 -0.2723495E-10  0.0000000E+00 -0.1563575E-04
  0.9040404E+00  0.0000000E+00  0.5050505E-02 -0.2489571E-10  0.0000000E+00 -0.1563580E-04
  0.9141414E+00  0.0000000E+00  0.5050505E-02 -0.2247621E-10  0.0000000E+00 -0.1563585E-04
  0.9242424E+00  0.0000000E+00  0.5050505E-02 -0.1998619E-10  0.0000000E+00 -0.1563589E-04
  0.9343435E+00  0.0000000E+00  0.5050505E-02 -0.1743581E-10  0.0000000E+00 -0.1563593E-04
  0.9444444E+00  0.0000000E+00  0.5050505E-02 -0.1483545E-10  0.0000000E+00 -0.1563596E-04
  0.9545454E+00  0.0000000E+00  0.5050505E-02 -0.1219568E-10  0.0000000E+00 -0.1563599E-04
  0.9646465E+00  0.0000000E+00  0.5050505E-02 -0.9527124E-11  0.0000000E+00 -0.1563601E-04
  0.9747475E+00  0.0000000E+00  0.5050505E-02 -0.6840900E-11  0.0000000E+00 -0.1563602E-04
  0.9848485E+00  0.0000000E+00  0.5050505E-02 -0.4152395E-11  0.0000000E+00 -0.1563603E-04
  0.9974747E+00  0.0000000E+00  0.5050505E-02 -0.1490722E-11  0.0000000E+00 -0.1563604E-04
  0.5050505E-02  0.0000000E+00  0.1515152E-01  0.3842268E-11  0.0000000E+00 -0.1560706E-04
  0.1515152E-01  0.0000000E+00  0.1515152E-01  0.1201481E-10  0.0000000E+00 -0.1560706E-04
  0.2525252E-01  0.0000000E+00  0.1515152E-01  0.2028682E-10  0.0000000E+00 -0.1560705E-04
  0.3535353E-01  0.0000000E+00  0.1515152E-01  0.2836691E-10  0.0000000E+00 -0.1560703E-04
  0.4545455E-01  0.0000000E+00  0.1515152E-01  0.3631780E-10  0.0000000E+00 -0.1560701E-04
  0.5555556E-01  0.0000000E+00  0.1515152E-01  0.4424461E-10  0.0000000E+00 -0.1560698E-04
  0.6565657E-01  0.0000000E+00  0.1515152E-01  0.5186265E-10  0.0000000E+00 -0.1560695E-04
  0.7575758E-01  0.0000000E+00  0.1515152E-01  0.5934875E-10  0.0000000E+00 -0.1560691E-04
  0.8585858E-01  0.0000000E+00  0.1515152E-01  0.6669006E-10  0.0000000E+00 -0.1560687E-04
  0.9595960E-01  0.0000000E+00  0.1515152E-01  0.7370081E-10  0.0000000E+00 -0.1560682E-04
  0.1060606E+00  0.0000000E+00  0.1515152E-01  0.8039304E-10  0.0000000E+00 -0.1560677E-04
  0.1161616E+00  0.0000000E+00  0.1515152E-01  0.8679038E-10  0.0000000E+00 -0.1560671E-04
  0.1262626E+00  0.0000000E+00  0.1515152E-01  0.9284003E-10  0.0000000E+00 -0.1560665E-04
  0.1363636E+00  0.0000000E+00  0.1515152E-01  0.9848634E-10  0.0000000E+00 -0.1560659E-04
  0.1464646E+00  0.0000000E+00  0.1515152E-01  0.1037060E-09  0.0000000E+00 -0.1560652E-04
  0.1565657E+00  0.0000000E+00  0.1515152E-01  0.1084878E-09  0.0000000E+00 -0.1560645E-04
  0.1666667E+00  0.0000000E+00  0.1515152E-01  0.1128154E-09  0.0000000E+00 -0.1560637E-04
  0.1767677E+00  0.0000000E+00  0.1515152E-01  0.1166685E-09  0.0000000E+00 -0.1560630E-04
  0.1868687E+00  0.0000000E+00  0.1515152E-01  0.1200295E-09  0.0000000E+00 -0.1560622E-04
  0.1969697E+00  0.0000000E+00  0.1515152E-01  0.1228851E-09  0.0000000E+00 -0.1560614E-04
  0.2070707E+00  0.0000000E+00  0.1515152E-01  0.1252247E-09  0.0000000E+00 -0.1560605E-04
  0.2171717E+00  0.0000000E+00  0.1515152E-01  0.1270378E-09  0.0000000E+00 -0.1560597E-04
  0.2272727E+00  0.0000000E+00  0.1515152E-01  0.1283141E-09  0.0000000E+00 -0.1560588E-04
  0.2373737E+00  0.0000000E+00  0.1515152E-01  0.1290440E-09  0.0000000E+00 -0.1560579E-04
  0.2474747E+00  0.0000000E+00  0.1515152E-01  0.1292191E-09  0.0000000E+00 -0.1560571E-04
  0.2575758E+00  0.0000000E+00  0.1515152E-01  0.1288332E-09  0.0000000E+00 -0.1560562E-04
  0.2676768E+00  0.0000000E+00  0.1515152E-01  0.1278823E-09  0.0000000E+00 -0.1560553E-04
  0.2777778E+00  0.0000000E+00  0.1515152E-01  0.1263645E-09  0.0000000E+00 -0.1560545E-04
  0.2878788E+00  0.0000000E+00  0.1515152E-01  0.1242807E-09  0.0000000E+00 -0.1560536E-04
  0.2979798E+00  0.0000000E+00  0.1515152E-01  0.1216341E-09  0.0000000E+00 -0.1560528E-04
  0.3080808E+00  0.0000000E+00  0.1515152E-01  0.1184307E-09  0.0000000E+00 -0.1560520E-04
  0.3181818E+00  0.0000000E+00  0.1515152E-01  0.1146788E-09  0.0000000E+00 -0.1560512E-04
  0.3282828E+00  0.0000000E+00  0.1515152E-01  0.1103896E-09  0.0000000E+00 -0.1560505E-04
  0.3383838E+00  0.0000000E+00  0.1515152E-01  0.1055770E-09  0.0000000E+00 -0.1560497E-04
  0.3484848E+00  0.0000000E+00  0.1515152E-01  0.1002578E-09  0.0000000E+00 -0.1560490E-04
  0.3585859E+00  0.0000000E+00  0.1515152E-01  0.9445219E-10  0.0000000E+00 -0.1560484E-04
  0.3686869E+00  0.0000000E+00  0.1515152E-01  0.8818370E-10  0.0000000E+00 -0.1560478E-04
  0.3787879E+00  0.0000000E+00  0.1515152E-01  0.8147978E-10  0.0000000E+00 -0.1560472E-04
  0.3888889E+00  0.0000000E+00  0.1515152E-01  0.7437168E-10  0.0000000E+00 -0.1560467E-04
  0.3989899E+00  0.0000000E+00  0.1515152E-01  0.6689434E-10  0.0000000E+00 -0.1560462E-04
  0.4090909E+00  0.0000000E+00  0.1515152E-01  0.5908583E-10  0.0000000E+00 -0.1560458E-04
  0.4191919E+00  0.0000000E+00  0.1515152E-01  0.5098669E-10  0.0000000E+00 -0.1560454E-04
  0.4292929E+00  0.0000000E+00  0.1515152E-01  0.4263924E-10  0.0000000E+00 -0.1560451E-04
  0.4393939E+00  0.0000000E+00  0.1515152E-01  0.3408678E-10  0.0000000E+00 -0.1560448E-04
  0.4494950E+00  0.0000000E+00  0.1515152E-01  0.2537175E-10  0.0000000E+00 -0.1560446E-04
  0.4595959E+00  0.0000000E+00  0.1515152E-01  0.1653363E-10  0.0000000E+00 -0.1560445E-04
  0.4696970E+00  0.0000000E+00  0.1515152E-01  0.7613680E-11  0.0000000E+00 -0.1560444E-04
  0.4797980E+00  0.0000000E+00  0.1515152E-01 -0.1358379E-11  0.0000000E+00 -0.1560444E-04
  0.4898990E+00  0.0000000E+00  0.1515152E-01 -0.1044188E-10  0.0000000E+00 -0.1560444E-04
  0.5000000E+00  0.0000000E+00  0.1515152E-01 -0.1938202E-10  0.0000000E+00 -0.1560445E-04
  0.5101010E+00  0.0000000E+00  0.1515152E-01 -0.2832326E-10  0.0000000E+00 -0.1560447E-04
  0.5202020E+00  0.0000000E+00  0.1515152E-01 -0.3713470E-10  0.0000000E+00 -0.1560449E-04
  0.5303030E+00  0.0000000E+00  0.1515152E-01 -0.4579462E-10  0.0000000E+00 -0.1560452E-04
  0.5404040E+00  0.0000000E+00  0.1515152E-01 -0.5441300E-10  0.0000000E+00 -0.1560455E-04
  0.5505050E+00  0.0000000E+00  0.1515152E-01 -0.6269553E-10  0.0000000E+00 -0.1560459E-04
  0.5606061E+00  0.0000000E+00  0.1515152E-01 -0.7078624E-10  0.0000000E+00 -0.1560464E-04
  0.5707071E+00  0.0000000E+00  0.1515152E-01 -0.7867397E-10  0.0000000E+00 -0.1560469E-04
  0.5808081E+00  0.0000000E+00  0.1515152E-01 -0.8618029E-10  0.0000000E+00 -0.1560474E-04
  0.5909091E+00  0.0000000E+00  0.1515152E-01 -0.9330934E-10  0.0000000E+00 -0.1560480E-04
  0.6010101E+00  0.0000000E+00  0.1515152E-01 -0.1000784E-09  0.0000000E+00 -0.1560487E-04
  0.6111111E+00  0.0000000E+00  0.1515152E-01 -0.1064380E-09  0.0000000E+00 -0.1560494E-04
  0.6212121E+00  0.0000000E+00  0.1515152E-01 -0.1123373E-09  0.0000000E+00 -0.1560501E-04
  0.6313131E+00  0.0000000E+00  0.1515152E-01 -0.1177561E-09  0.0000000E+00 -0.1560509E-04
  0.6414142E+00  0.0000000E+00  0.1515152E-01 -0.1226864E-09  0.0000000E+00 -0.1560517E-04
  0.6515151E+00  0.0000000E+00  0.1515152E-01 -0.1271170E-09  0.0000000E+00 -0.1560525E-04
  0.6616161E+00  0.0000000E+00  0.1515152E-01 -0.1310346E-09  0.0000000E+00 -0.1560534E-04
  0.6717172E+00  0.0000000E+00  0.1515152E-01 -0.1344289E-09  0.0000000E+00 -0.1560543E-04
  0.6818182E+00  0.0000000E+00  0.1515152E-01 -0.1372942E-09  0.0000000E+00 -0.1560552E-04
  0.6919192E+00  0.0000000E+00  0.1515152E-01 -0.1396274E-09  0.0000000E+00 -0.1560561E-04
  0.7020202E+00  0.0000000E+00  0.1515152E-01 -0.1414263E-09  0.0000000E+00 -0.1560571E-04
  0.7121212E+00  0.0000000E+00  0.1515152E-01 -0.1426887E-09  0.0000000E+00 -0.1560580E-04
  0.7222222E+00  0.0000000E+00  0.1515152E-01 -0.1434135E-09  0.0000000E+00 -0.1560590E-04
  0.7323232E+00  0.0000000E+00  0.1515152E-01 -0.1436010E-09  0.0000000E+00 -0.1560600E-04
  0.7424242E+00  0.0000000E+00  0.1515152E-01 -0.1432538E-09  0.0000000E+00 -0.1560609E-04
  0.7525253E+00  0.0000000E+00  0.1515152E-01 -0.1423767E-09  0.0000000E+00 -0.1560619E-04
  0.7626263E+00  0.0000000E+00  0.1515152E-01 -0.1409770E-09  0.0000000E+00 -0.1560629E-04
  0.7727273E+00  0.0000000E+00  0.1515152E-01 -0.1390647E-09  0.0000000E+00 -0.1560638E-04
  0.7828283E+00  0.0000000E+00  0.1515152E-01 -0.1366519E-09  0.0000000E+00 -0.1560647E-04
  0.7929293E+00  0.0000000E+00  0.1515152E-01 -0.1337530E-09  0.0000000E+00 -0.1560656E-04
  0.8030303E+00  0.0000000E+00  0.1515152E-01 -0.1303839E-09  0.0000000E+00 -0.1560665E-04
  0.8131313E+00  0.0000000E+00  0.1515152E-01 -0.1265617E-09  0.0000000E+00 -0.1560674E-04
  0.8232324E+00  0.0000000E+00  0.1515152E-01 -0.1223044E-09  0.0000000E+00 -0.1560682E-04
  0.8333333E+00  0.0000000E+00  0.1515152E-01 -0.1176299E-09  0.0000000E+00 -0.1560690E-04
  0.8434343E+00  0.0000000E+00  0.1515152E-01 -0.1125568E-09  0.0000000E+00 -0.1560698E-04
  0.8535354E+00  0.0000000E+00  0.1515152E-01 -0.1071038E-09  0.0000000E+00 -0.1560706E-04
  0.8636364E+00  0.0000000E+00  0.1515152E-01 -0.1012902E-09  0.0000000E+00 -0.1560713E-04
  0.8737374E+00  0.0000000E+00  0.1515152E-01 -0.9513655E-10  0.0000000E+00 -0.1560719E-04
  0.8838384E+00  0.0000000E+00  0.1515152E-01 -0.8866460E-10  0.0000000E+00 -0.1560725E-04
  0.8939394E+00  0.0000000E+00  0.1515152E-01 -0.8189807E-10  0.0000000E+00 -0.1560731E-04
  0.9040404E+00  0.0000000E+00  0.1515152E-01 -0.7486270E-10  0.0000000E+00 -0.1560736E-04
  0.9141414E+00  0.0000000E+00  0.1515152E-01 -0.6758616E-10  0.0000000E+00 -0.1560741E-04
  0.9242424E+00  0.0000000E+00  0.1515152E-01 -0.6009776E-10  0.0000000E+00 -0.1560745E-04
  0.9343435E+00  0.0000000E+00  0.1515152E-01 -0.5242796E-10  0.0000000E+00 -0.1560749E-04
  0.9444444E+00  0.0000000E+00  0.1515152E-01 -0.4460781E-10  0.0000000E+00 -0.1560752E-04
  0.9545454E+00  0.0000000E+00  0.1515152E-01 -0.3666870E-10  0.0000000E+00 -0.1560755E-04
  0.9646465E+00  0.0000000E+00  0.1515152E-01 -0.2864148E-10  0.0000000E+00 -0.1560757E-04
  0.9747475E+00  0.0000000E+00  0.1515152E-01 -0.2055606E-10  0.0000000E+00 -0.1560759E-04
  0.9848485E+00  0.0000000E+00  0.1515152E-01 -0.1245130E-10  0.0000000E+00 -0.1560760E-04
  0.9974747E+00  0.0000000E+00  0.1515152E-01 -0.4385552E-11  0.0000000E+00 -0.1560761E-04
  0.5050505E-02  0.0000000E+00  0.2525252E-01  0.6595735E-11  0.0000000E+00 -0.1555033E-04
  0.1515152E-01  0.0000000E+00  0.2525252E-01  0.2021353E-10  0.0000000E+00 -0.1555033E-04
  0.2525252E-01  0.0000000E+00  0.2525252E-01  0.3402044E-10  0.0000000E+00 -0.1555032E-04
  0.3535353E-01  0.0000000E+00  0.2525252E-01  0.4759267E-10  0.0000000E+00 -0.1555030E-04
  0.4545455E-01  0.0000000E+00  0.2525252E-01  0.6089298E-10  0.0000000E+00 -0.1555028E-04
  0.5555556E-01  0.0000000E+00  0.2525252E-01  0.7413947E-10  0.0000000E+00 -0.1555025E-04
  0.6565657E-01  0.0000000E+00  0.2525252E-01  0.8697164E-10  0.0000000E+00 -0.1555022E-04
  0.7575758E-01  0.0000000E+00  0.2525252E-01  0.9952131E-10  0.0000000E+00 -0.1555018E-04
  0.8585858E-01  0.0000000E+00  0.2525252E-01  0.1117872E-09  0.0000000E+00 -0.1555014E-04
  0.9595960E-01  0.0000000E+00  0.2525252E-01  0.1235476E-09  0.0000000E+00 -0.1555009E-04
  0.1060606E+00  0.0000000E+00  0.2525252E-01  0.1347869E-09  0.0000000E+00 -0.1555003E-04
  0.1161616E+00  0.0000000E+00  0.2525252E-01  0.1455107E-09  0.0000000E+00 -0.1554998E-04
  0.1262626E+00  0.0000000E+00  0.2525252E-01  0.1556438E-09  0.0000000E+00 -0.1554992E-04
  0.1363636E+00  0.0000000E+00  0.2525252E-01  0.1651081E-09  0.0000000E+00 -0.1554985E-04
  0.1464646E+00  0.0000000E+00  0.2525252E-01  0.1738634E-09  0.0000000E+00 -0.1554978E-04
  0.1565657E+00  0.0000000E+00  0.2525252E-01  0.1818849E-09  0.0000000E+00 -0.1554971E-04
  0.1666667E+00  0.0000000E+00  0.2525252E-01  0.1891431E-09  0.0000000E+00 -0.1554963E-04
  0.1767677E+00  0.0000000E+00  0.2525252E-01  0.1956057E-09  0.0000000E+00 -0.1554955E-04
  0.1868687E+00  0.0000000E+00  0.2525252E-01  0.2012445E-09  0.0000000E+00 -0.1554947E-04
  0.1969697E+00  0.0000000E+00  0.2525252E-01  0.2060373E-09  0.0000000E+00 -0.1554939E-04
  0.2070707E+00  0.0000000E+00  0.2525252E-01  0.2099653E-09  0.0000000E+00 -0.1554930E-04
  0.2171717E+00  0.0000000E+00  0.2525252E-01  0.2130104E-09  0.0000000E+00 -0.1554921E-04
  0.2272727E+00  0.0000000E+00  0.2525252E-01  0.2151551E-09  0.0000000E+00 -0.1554913E-04
  0.2373737E+00  0.0000000E+00  0.2525252E-01  0.2163831E-09  0.0000000E+00 -0.1554904E-04
  0.2474747E+00  0.0000000E+00  0.2525252E-01  0.2166805E-09  0.0000000E+00 -0.1554895E-04
  0.2575758E+00  0.0000000E+00  0.2525252E-01  0.2160369E-09  0.0000000E+00 -0.1554886E-04
  0.2676768E+00  0.0000000E+00  0.2525252E-01  0.2144454E-09  0.0000000E+00 -0.1554877E-04
  0.2777778E+00  0.0000000E+00  0.2525252E-01  0.2119033E-09  0.0000000E+00 -0.1554868E-04
  0.2878788E+00  0.0000000E+00  0.2525252E-01  0.2084117E-09  0.0000000E+00 -0.1554860E-04
  0.2979798E+00  0.0000000E+00  0.2525252E-01  0.2039762E-09  0.0000000E+00 -0.1554851E-04
  0.3080808E+00  0.0000000E+00  0.2525252E-01  0.1986066E-09  0.0000000E+00 -0.1554843E-04
  0.3181818E+00  0.0000000E+00  0.2525252E-01  0.1923170E-09  0.0000000E+00 -0.1554835E-04
  0.3282828E+00  0.0000000E+00  0.2525252E-01  0.1851259E-09  0.0000000E+00 -0.1554827E-04
  0.3383838E+00  0.0000000E+00  0.2525252E-01  0.1770567E-09  0.0000000E+00 -0.1554820E-04
  0.3484848E+00  0.0000000E+00  0.2525252E-01  0.1681373E-09  0.0000000E+00 -0.1554813E-04
  0.3585859E+00  0.0000000E+00  0.2525252E-01  0.1584016E-09  0.0000000E+00 -0.1554806E-04
  0.3686869E+00  0.0000000E+00  0.2525252E-01  0.1478893E-09  0.0000000E+00 -0.1554800E-04
  0.3787879E+00  0.0000000E+00  0.2525252E-01  0.1366464E-09  0.0000000E+00 -0.1554794E-04
  0.3888889E+00  0.0000000E+00  0.2525252E-01  0.1247254E-09  0.0000000E+00 -0.1554789E-04
  0.3989899E+00  0.0000000E+00  0.2525252E-01  0.1121852E-09  0.0000000E+00 -0.1554784E-04
  0.4090909E+00  0.0000000E+00  0.2525252E-01  0.9908955E-10  0.0000000E+00 -0.1554779E-04
  0.4191919E+00  0.0000000E+00  0.2525252E-01  0.8550662E-10  0.0000000E+00 -0.1554776E-04
  0.4292929E+00  0.0000000E+00  0.2525252E-01  0.7150732E-10  0.0000000E+00 -0.1554772E-04
  0.4393939E+00  0.0000000E+00  0.2525252E-01  0.5716441E-10  0.0000000E+00 -0.1554770E-04
  0.4494950E+00  0.0000000E+00  0.2525252E-01  0.4254936E-10  0.0000000E+00 -0.1554768E-04
  0.4595959E+00  0.0000000E+00  0.2525252E-01  0.2772553E-10  0.0000000E+00 -0.1554766E-04
  0.4696970E+00  0.0000000E+00  0.2525252E-01  0.1276193E-10  0.0000000E+00 -0.1554765E-04
  0.4797980E+00  0.0000000E+00  0.2525252E-01 -0.2276769E-11  0.0000000E+00 -0.1554765E-04
  0.4898990E+00  0.0000000E+00  0.2525252E-01 -0.1751367E-10  0.0000000E+00 -0.1554766E-04
  0.5000000E+00  0.0000000E+00  0.2525252E-01 -0.3250637E-10  0.0000000E+00 -0.1554767E-04
  0.5101010E+00  0.0000000E+00  0.2525252E-01 -0.4747150E-10  0.0000000E+00 -0.1554768E-04
  0.5202020E+00  0.0000000E+00  0.2525252E-01 -0.6229756E-10  0.0000000E+00 -0.1554770E-04
  0.5303030E+00  0.0000000E+00  0.2525252E-01 -0.7680984E-10  0.0000000E+00 -0.1554773E-04
  0.5404040E+00  0.0000000E+00  0.2525252E-01 -0.9122145E-10  0.0000000E+00 -0.1554777E-04
  0.5505050E+00  0.0000000E+00  0.2525252E-01 -0.1051655E-09  0.0000000E+00 -0.1554781E-04
  0.5606061E+00  0.0000000E+00  0.2525252E-01 -0.1187337E-09  0.0000000E+00 -0.1554785E-04
  0.5707071E+00  0.0000000E+00  0.2525252E-01 -0.1319202E-09  0.0000000E+00 -0.1554791E-04
  0.5808081E+00  0.0000000E+00  0.2525252E-01 -0.1445098E-09  0.0000000E+00 -0.1554796E-04
  0.5909091E+00  0.0000000E+00  0.2525252E-01 -0.1564777E-09  0.0000000E+00 -0.1554802E-04
  0.6010101E+00  0.0000000E+00  0.2525252E-01 -0.1678219E-09  0.0000000E+00 -0.1554809E-04
  0.6111111E+00  0.0000000E+00  0.2525252E-01 -0.1784711E-09  0.0000000E+00 -0.1554816E-04
  0.6212121E+00  0.0000000E+00  0.2525252E-01 -0.1883542E-09  0.0000000E+00 -0.1554824E-04
  0.6313131E+00  0.0000000E+00  0.2525252E-01 -0.1974364E-09  0.0000000E+00 -0.1554832E-04
  0.6414142E+00  0.0000000E+00  0.2525252E-01 -0.2056990E-09  0.0000000E+00 -0.1554840E-04
  0.6515151E+00  0.0000000E+00  0.2525252E-01 -0.2131217E-09  0.0000000E+00 -0.1554849E-04
  0.6616161E+00  0.0000000E+00  0.2525252E-01 -0.2196833E-09  0.0000000E+00 -0.1554857E-04
  0.6717172E+00  0.0000000E+00  0.2525252E-01 -0.2253680E-09  0.0000000E+00 -0.1554867E-04
  0.6818182E+00  0.0000000E+00  0.2525252E-01 -0.2301663E-09  0.0000000E+00 -0.1554876E-04
  0.6919192E+00  0.0000000E+00  0.2525252E-01 -0.2340727E-09  0.0000000E+00 -0.1554885E-04
  0.7020202E+00  0.0000000E+00  0.2525252E-01 -0.2370827E-09  0.0000000E+00 -0.1554895E-04
  0.7121212E+00  0.0000000E+00  0.2525252E-01 -0.2391926E-09  0.0000000E+00 -0.1554905E-04
  0.7222222E+00  0.0000000E+00  0.2525252E-01 -0.2404006E-09  0.0000000E+00 -0.1554915E-04
  0.7323232E+00  0.0000000E+00  0.2525252E-01 -0.2407076E-09  0.0000000E+00 -0.1554925E-04
  0.7424242E+00  0.0000000E+00  0.2525252E-01 -0.2401179E-09  0.0000000E+00 -0.1554934E-04
  0.7525253E+00  0.0000000E+00  0.2525252E-01 -0.2386399E-09  0.0000000E+00 -0.1554944E-04
  0.7626263E+00  0.0000000E+00  0.2525252E-01 -0.2362863E-09  0.0000000E+00 -0.1554954E-04
  0.7727273E+00  0.0000000E+00  0.2525252E-01 -0.2330736E-09  0.0000000E+00 -0.1554964E-04
  0.7828283E+00  0.0000000E+00  0.2525252E-01 -0.2290228E-09  0.0000000E+00 -0.1554973E-04
  0.7929293E+00  0.0000000E+00  0.2525252E-01 -0.2241579E-09  0.0000000E+00 -0.1554982E-04
  0.8030303E+00  0.0000000E+00  0.2525252E-01 -0.2185058E-09  0.0000000E+00 -0.1554991E-04
  0.8131313E+00  0.0000000E+00  0.2525252E-01 -0.2120952E-09  0.0000000E+00 -0.1555000E-04
  0.8232324E+00  0.0000000E+00  0.2525252E-01 -0.2049559E-09  0.0000000E+00 -0.1555009E-04
  0.8333333E+00  0.0000000E+00  0.2525252E-01 -0.1971182E-09  0.0000000E+00 -0.1555017E-04
  0.8434343E+00  0.0000000E+00  0.2525252E-01 -0.1886129E-09  0.0000000E+00 -0.1555025E-04
  0.8535354E+00  0.0000000E+00  0.2525252E-01 -0.1794714E-09  0.0000000E+00 -0.1555032E-04
  0.8636364E+00  0.0000000E+00  0.2525252E-01 -0.1697260E-09  0.0000000E+00 -0.1555040E-04
  0.8737374E+00  0.0000000E+00  0.2525252E-01 -0.1594110E-09  0.0000000E+00 -0.1555046E-04
  0.8838384E+00  0.0000000E+00  0.2525252E-01 -0.1485631E-09  0.0000000E+00 -0.1555053E-04
  0.8939394E+00  0.0000000E+00  0.2525252E-01 -0.1372222E-09  0.0000000E+00 -0.1555059E-04
  0.9040404E+00  0.0000000E+00  0.2525252E-01 -0.1254314E-09  0.0000000E+00 -0.1555064E-04
  0.9141414E+00  0.0000000E+00  0.2525252E-01 -0.1132370E-09  0.0000000E+00 -0.1555069E-04
  0.9242424E+00  0.0000000E+00  0.2525252E-01 -0.1006882E-09  0.0000000E+00 -0.1555073E-04
  0.9343435E+00  0.0000000E+00  0.2525252E-01 -0.8783570E-10  0.0000000E+00 -0.1555077E-04
  0.9444444E+00  0.0000000E+00  0.2525252E-01 -0.7473120E-10  0.0000000E+00 -0.1555080E-04
  0.9545454E+00  0.0000000E+00  0.2525252E-01 -0.6142601E-10  0.0000000E+00 -0.1555083E-04
  0.9646465E+00  0.0000000E+00  0.2525252E-01 -0.4796969E-10  0.0000000E+00 -0.1555085E-04
  0.9747475E+00  0.0000000E+00  0.2525252E-01 -0.3440693E-10  0.0000000E+00 -0.1555087E-04
  0.9848485E+00  0.0000000E+00  0.2525252E-01 -0.2078712E-10  0.0000000E+00 -0.1555088E-04
  0.9974747E+00  0.0000000E+00  0.2525252E-01 -0.7178968E-11  0.0000000E+00 -0.1555089E-04
  0.5050505E-02  0.0000000E+00  0.3535353E-01  0.9425110E-11  0.0000000E+00 -0.1546555E-04
  0.1515152E-01  0.0000000E+00  0.3535353E-01  0.2866904E-10  0.0000000E+00 -0.1546555E-04
  0.2525252E-01  0.0000000E+00  0.3535353E-01  0.4810130E-10  0.0000000E+00 -0.1546553E-04
  0.3535353E-01  0.0000000E+00  0.3535353E-01  0.6727420E-10  0.0000000E+00 -0.1546552E-04
  0.4545455E-01  0.0000000E+00  0.3535353E-01  0.8608480E-10  0.0000000E+00 -0.1546549E-04
  0.5555556E-01  0.0000000E+00  0.3535353E-01  0.1047608E-09  0.0000000E+00 -0.1546546E-04
  0.6565657E-01  0.0000000E+00  0.3535353E-01  0.1229181E-09  0.0000000E+00 -0.1546543E-04
  0.7575758E-01  0.0000000E+00  0.3535353E-01  0.1406599E-09  0.0000000E+00 -0.1546539E-04
  0.8585858E-01  0.0000000E+00  0.3535353E-01  0.1579691E-09  0.0000000E+00 -0.1546535E-04
  0.9595960E-01  0.0000000E+00  0.3535353E-01  0.1745920E-09  0.0000000E+00 -0.1546530E-04
  0.1060606E+00  0.0000000E+00  0.3535353E-01  0.1904878E-09  0.0000000E+00 -0.1546524E-04
  0.1161616E+00  0.0000000E+00  0.3535353E-01  0.2056418E-09  0.0000000E+00 -0.1546518E-04
  0.1262626E+00  0.0000000E+00  0.3535353E-01  0.2199568E-09  0.0000000E+00 -0.1546512E-04
  0.1363636E+00  0.0000000E+00  0.3535353E-01  0.2333334E-09  0.0000000E+00 -0.1546505E-04
  0.1464646E+00  0.0000000E+00  0.3535353E-01  0.2457135E-09  0.0000000E+00 -0.1546498E-04
  0.1565657E+00  0.0000000E+00  0.3535353E-01  0.2570572E-09  0.0000000E+00 -0.1546490E-04
  0.1666667E+00  0.0000000E+00  0.3535353E-01  0.2673219E-09  0.0000000E+00 -0.1546483E-04
  0.1767677E+00  0.0000000E+00  0.3535353E-01  0.2764631E-09  0.0000000E+00 -0.1546474E-04
  0.1868687E+00  0.0000000E+00  0.3535353E-01  0.2844417E-09  0.0000000E+00 -0.1546466E-04
  0.1969697E+00  0.0000000E+00  0.3535353E-01  0.2912260E-09  0.0000000E+00 -0.1546457E-04
  0.2070707E+00  0.0000000E+00  0.3535353E-01  0.2967883E-09  0.0000000E+00 -0.1546449E-04
  0.2171717E+00  0.0000000E+00  0.3535353E-01  0.3011024E-09  0.0000000E+00 -0.1546440E-04
  0.2272727E+00  0.0000000E+00  0.3535353E-01  0.3041431E-09  0.0000000E+00 -0.1546430E-04
  0.2373737E+00  0.0000000E+00  0.3535353E-01  0.3058873E-09  0.0000000E+00 -0.1546421E-04
  0.2474747E+00  0.0000000E+00  0.3535353E-01  0.3063155E-09  0.0000000E+00 -0.1546412E-04
  0.2575758E+00  0.0000000E+00  0.3535353E-01  0.3054128E-09  0.0000000E+00 -0.1546403E-04
  0.2676768E+00  0.0000000E+00  0.3535353E-01  0.3031697E-09  0.0000000E+00 -0.1546394E-04
  0.2777778E+00  0.0000000E+00  0.3535353E-01  0.2995820E-09  0.0000000E+00 -0.1546385E-04
  0.2878788E+00  0.0000000E+00  0.3535353E-01  0.2946515E-09  0.0000000E+00 -0.1546376E-04
  0.2979798E+00  0.0000000E+00  0.3535353E-01  0.2883861E-09  0.0000000E+00 -0.1546367E-04