title = "dataset water"
variables = "x", "y", "z", "vx", "vy", "vz"
zone t = "velocities, solution time =  5.800E+01 days        " i =   99, j =   99, k =    1,  f=point
  0.5050505E-02  0.0000000E+00  0.5050505E-02  0.3805031E-07  0.0000000E+00  0.7870117E-04
  0.1515152E-01  0.0000000E+00  0.5050505E-02  0.1140657E-06  0.0000000E+00  0.7885521E-04
  0.2525252E-01  0.0000000E+00  0.5050505E-02  0.1898253E-06  0.0000000E+00  0.7916294E-04
  0.3535353E-01  0.0000000E+00  0.5050505E-02  0.2651556E-06  0.0000000E+00  0.7962369E-04
  0.4545455E-01  0.0000000E+00  0.5050505E-02  0.3398764E-06  0.0000000E+00  0.8023643E-04
  0.5555556E-01  0.0000000E+00  0.5050505E-02  0.4137975E-06  0.0000000E+00  0.8099976E-04
  0.6565657E-01  0.0000000E+00  0.5050505E-02  0.4867140E-06  0.0000000E+00  0.8191189E-04
  0.7575758E-01  0.0000000E+00  0.5050505E-02  0.5583998E-06  0.0000000E+00  0.8297062E-04
  0.8585858E-01  0.0000000E+00  0.5050505E-02  0.6285962E-06  0.0000000E+00  0.8417322E-04
  0.9595960E-01  0.0000000E+00  0.5050505E-02  0.6969917E-06  0.0000000E+00  0.8551644E-04
  0.1060606E+00  0.0000000E+00  0.5050505E-02  0.7631833E-06  0.0000000E+00  0.8699628E-04
  0.1161616E+00  0.0000000E+00  0.5050505E-02  0.8266048E-06  0.0000000E+00  0.8860776E-04
  0.1262626E+00  0.0000000E+00  0.5050505E-02  0.8863959E-06  0.0000000E+00  0.9034449E-04
  0.1363636E+00  0.0000000E+00  0.5050505E-02  0.9411688E-06  0.0000000E+00  0.9219775E-04
  0.1464646E+00  0.0000000E+00  0.5050505E-02  0.9886093E-06  0.0000000E+00  0.9415511E-04
  0.1565657E+00  0.0000000E+00  0.5050505E-02  0.1024828E-05  0.0000000E+00  0.9619781E-04
  0.1666667E+00  0.0000000E+00  0.5050505E-02  0.1043391E-05  0.0000000E+00  0.9829660E-04
  0.1767677E+00  0.0000000E+00  0.5050505E-02  0.1034077E-05  0.0000000E+00  0.1004053E-03
  0.1868687E+00  0.0000000E+00  0.5050505E-02  0.9818347E-06  0.0000000E+00  0.1024521E-03
  0.1969697E+00  0.0000000E+00  0.5050505E-02  0.8674742E-06  0.0000000E+00  0.1043301E-03
  0.2070707E+00  0.0000000E+00  0.5050505E-02  0.6734635E-06  0.0000000E+00  0.1058954E-03
  0.2171717E+00  0.0000000E+00  0.5050505E-02  0.3995177E-06  0.0000000E+00  0.1069855E-03
  0.2272727E+00  0.0000000E+00  0.5050505E-02  0.8615654E-07  0.0000000E+00  0.1074790E-03
  0.2373737E+00  0.0000000E+00  0.5050505E-02 -0.1848805E-06  0.0000000E+00  0.1073787E-03
  0.2474747E+00  0.0000000E+00  0.5050505E-02 -0.3736495E-06  0.0000000E+00  0.1068112E-03
  0.2575758E+00  0.0000000E+00  0.5050505E-02 -0.4816590E-06  0.0000000E+00  0.1059422E-03
  0.2676768E+00  0.0000000E+00  0.5050505E-02 -0.5282374E-06  0.0000000E+00  0.1049163E-03
  0.2777778E+00  0.0000000E+00  0.5050505E-02 -0.5348654E-06  0.0000000E+00  0.1038364E-03
  0.2878788E+00  0.0000000E+00  0.5050505E-02 -0.5192923E-06  0.0000000E+00  0.1027658E-03
  0.2979798E+00  0.0000000E+00  0.5050505E-02 -0.4947306E-06  0.0000000E+00  0.1017361E-03
  0.3080808E+00  0.0000000E+00  0.5050505E-02 -0.4706669E-06  0.0000000E+00  0.1007559E-03
  0.3181818E+00  0.0000000E+00  0.5050505E-02 -0.4536694E-06  0.0000000E+00  0.9981750E-04
  0.3282828E+00  0.0000000E+00  0.5050505E-02 -0.4476395E-06  0.0000000E+00  0.9890257E-04
  0.3383838E+00  0.0000000E+00  0.5050505E-02 -0.4535100E-06  0.0000000E+00  0.9798790E-04
  0.3484848E+00  0.0000000E+00  0.5050505E-02 -0.4688120E-06  0.0000000E+00  0.9705184E-04
  0.3585859E+00  0.0000000E+00  0.5050505E-02 -0.4879206E-06  0.0000000E+00  0.9608098E-04
  0.3686869E+00  0.0000000E+00  0.5050505E-02 -0.5037320E-06  0.0000000E+00  0.9507481E-04
  0.3787879E+00  0.0000000E+00  0.5050505E-02 -0.5103334E-06  0.0000000E+00  0.9404602E-04
  0.3888889E+00  0.0000000E+00  0.5050505E-02 -0.5045666E-06  0.0000000E+00  0.9301652E-04
  0.3989899E+00  0.0000000E+00  0.5050505E-02 -0.4860299E-06  0.0000000E+00  0.9201179E-04
  0.4090909E+00  0.0000000E+00  0.5050505E-02 -0.4562256E-06  0.0000000E+00  0.9105620E-04
  0.4191919E+00  0.0000000E+00  0.5050505E-02 -0.4175936E-06  0.0000000E+00  0.9017011E-04
  0.4292929E+00  0.0000000E+00  0.5050505E-02 -0.3727900E-06  0.0000000E+00  0.8936871E-04
  0.4393939E+00  0.0000000E+00  0.5050505E-02 -0.3242758E-06  0.0000000E+00  0.8866199E-04
  0.4494950E+00  0.0000000E+00  0.5050505E-02 -0.2741433E-06  0.0000000E+00  0.8805532E-04
  0.4595959E+00  0.0000000E+00  0.5050505E-02 -0.2240859E-06  0.0000000E+00  0.8755026E-04
  0.4696970E+00  0.0000000E+00  0.5050505E-02 -0.1754381E-06  0.0000000E+00  0.8714528E-04
  0.4797980E+00  0.0000000E+00  0.5050505E-02 -0.1292389E-06  0.0000000E+00  0.8683645E-04
  0.4898990E+00  0.0000000E+00  0.5050505E-02 -0.8629451E-07  0.0000000E+00  0.8661798E-04
  0.5000000E+00  0.0000000E+00  0.5050505E-02 -0.4722990E-07  0.0000000E+00  0.8648264E-04
  0.5101010E+00  0.0000000E+00  0.5050505E-02 -0.1252664E-07  0.0000000E+00  0.8642208E-04
  0.5202020E+00  0.0000000E+00  0.5050505E-02  0.1745312E-07  0.0000000E+00  0.8642707E-04
  0.5303030E+00  0.0000000E+00  0.5050505E-02  0.4245395E-07  0.0000000E+00  0.8648779E-04
  0.5404040E+00  0.0000000E+00  0.5050505E-02  0.6232232E-07  0.0000000E+00  0.8659399E-04
  0.5505050E+00  0.0000000E+00  0.5050505E-02  0.7700451E-07  0.0000000E+00  0.8673521E-04
  0.5606061E+00  0.0000000E+00  0.5050505E-02  0.8653971E-07  0.0000000E+00  0.8690098E-04
  0.5707071E+00  0.0000000E+00  0.5050505E-02  0.9103332E-07  0.0000000E+00  0.8708098E-04
  0.5808081E+00  0.0000000E+00  0.5050505E-02  0.9058102E-07  0.0000000E+00  0.8726507E-04
  0.5909091E+00  0.0000000E+00  0.5050505E-02  0.8508613E-07  0.0000000E+00  0.8744314E-04
  0.6010101E+00  0.0000000E+00  0.5050505E-02  0.7385836E-07  0.0000000E+00  0.8760426E-04
  0.6111111E+00  0.0000000E+00  0.5050505E-02  0.5478248E-07  0.0000000E+00  0.8773467E-04
  0.6212121E+00  0.0000000E+00  0.5050505E-02  0.2268569E-07  0.0000000E+00  0.8781320E-04
  0.6313131E+00  0.0000000E+00  0.5050505E-02 -0.3362348E-07  0.0000000E+00  0.8780211E-04
  0.6414142E+00  0.0000000E+00  0.5050505E-02 -0.1358625E-06  0.0000000E+00  0.8763030E-04
  0.6515151E+00  0.0000000E+00  0.5050505E-02 -0.3198647E-06  0.0000000E+00  0.8716835E-04
  0.6616161E+00  0.0000000E+00  0.5050505E-02 -0.6250339E-06  0.0000000E+00  0.8621068E-04
  0.6717172E+00  0.0000000E+00  0.5050505E-02 -0.1029542E-05  0.0000000E+00  0.8453408E-04
  0.6818182E+00  0.0000000E+00  0.5050505E-02 -0.1300204E-05  0.0000000E+00  0.8217398E-04
  0.6919192E+00  0.0000000E+00  0.5050505E-02 -0.1422551E-05  0.0000000E+00  0.7941665E-04
  0.7020202E+00  0.0000000E+00  0.5050505E-02 -0.1445747E-05  0.0000000E+00  0.7651293E-04
  0.7121212E+00  0.0000000E+00  0.5050505E-02 -0.1414263E-05  0.0000000E+00  0.7361862E-04
  0.7222222E+00  0.0000000E+00  0.5050505E-02 -0.1356153E-05  0.0000000E+00  0.7081594E-04
  0.7323232E+00  0.0000000E+00  0.5050505E-02 -0.1286829E-05  0.0000000E+00  0.6814304E-04
  0.7424242E+00  0.0000000E+00  0.5050505E-02 -0.1214146E-05  0.0000000E+00  0.6561454E-04
  0.7525253E+00  0.0000000E+00  0.5050505E-02 -0.1141887E-05  0.0000000E+00  0.6323327E-04
  0.7626263E+00  0.0000000E+00  0.5050505E-02 -0.1071755E-05  0.0000000E+00  0.6099652E-04
  0.7727273E+00  0.0000000E+00  0.5050505E-02 -0.1004420E-05  0.0000000E+00  0.5889922E-04
  0.7828283E+00  0.0000000E+00  0.5050505E-02 -0.9400599E-06  0.0000000E+00  0.5693542E-04
  0.7929293E+00  0.0000000E+00  0.5050505E-02 -0.8786204E-06  0.0000000E+00  0.5509909E-04
  0.8030303E+00  0.0000000E+00  0.5050505E-02 -0.8199500E-06  0.0000000E+00  0.5338439E-04
  0.8131313E+00  0.0000000E+00  0.5050505E-02 -0.7638601E-06  0.0000000E+00  0.5178585E-04
  0.8232324E+00  0.0000000E+00  0.5050505E-02 -0.7101556E-06  0.0000000E+00  0.5029840E-04
  0.8333333E+00  0.0000000E+00  0.5050505E-02 -0.6586478E-06  0.0000000E+00  0.4891735E-04
  0.8434343E+00  0.0000000E+00  0.5050505E-02 -0.6091597E-06  0.0000000E+00  0.4763840E-04
  0.8535354E+00  0.0000000E+00  0.5050505E-02 -0.5615275E-06  0.0000000E+00  0.4645760E-04
  0.8636364E+00  0.0000000E+00  0.5050505E-02 -0.5155995E-06  0.0000000E+00  0.4537131E-04
  0.8737374E+00  0.0000000E+00  0.5050505E-02 -0.4712353E-06  0.0000000E+00  0.4437620E-04
  0.8838384E+00  0.0000000E+00  0.5050505E-02 -0.4283037E-06  0.0000000E+00  0.4346922E-04
  0.8939394E+00  0.0000000E+00  0.5050505E-02 -0.3866808E-06  0.0000000E+00  0.4264758E-04
  0.9040404E+00  0.0000000E+00  0.5050505E-02 -0.3462482E-06  0.0000000E+00  0.4190873E-04
  0.9141414E+00  0.0000000E+00  0.5050505E-02 -0.3068915E-06  0.0000000E+00  0.4125036E-04
  0.9242424E+00  0.0000000E+00  0.5050505E-02 -0.2684984E-06  0.0000000E+00  0.4067041E-04
  0.9343435E+00  0.0000000E+00  0.5050505E-02 -0.2309582E-06  0.0000000E+00  0.4016703E-04
  0.9444444E+00  0.0000000E+00  0.5050505E-02 -0.1941598E-06  0.0000000E+00  0.3973859E-04
  0.9545454E+00  0.0000000E+00  0.5050505E-02 -0.1579921E-06  0.0000000E+00  0.3938370E-04
  0.9646465E+00  0.0000000E+00  0.5050505E-02 -0.1223425E-06  0.0000000E+00  0.3910120E-04
  0.9747475E+00  0.0000000E+00  0.5050505E-02 -0.8709753E-07  0.0000000E+00  0.3889015E-04
  0.9848485E+00  0.0000000E+00  0.5050505E-02 -0.5214240E-07  0.0000000E+00  0.3874983E-04
  0.9974747E+00  0.0000000E+00  0.5050505E-02 -0.1736145E-07  0.0000000E+00  0.3867980E-04
  0.5050505E-02  0.0000000E+00  0.1515152E-01  0.1143158E-06  0.0000000E+00  0.7885663E-04
  0.1515152E-01  0.0000000E+00  0.1515152E-01  0.3426943E-06  0.0000000E+00  0.7901179E-04
  0.2525252E-01  0.0000000E+00  0.1515152E-01  0.5703126E-06  0.0000000E+00  0.7932179E-04
  0.3535353E-01  0.0000000E+00  0.1515152E-01  0.7966538E-06  0.0000000E+00  0.7978595E-04
  0.4545455E-01  0.0000000E+00  0.1515152E-01  0.1021181E-05  0.0000000E+00  0.8040326E-04
  0.5555556E-01  0.0000000E+00  0.1515152E-01  0.1243329E-05  0.0000000E+00  0.8117236E-04
  0.6565657E-01  0.0000000E+00  0.1515152E-01  0.1462489E-05  0.0000000E+00  0.8209148E-04
  0.7575758E-01  0.0000000E+00  0.1515152E-01  0.1677991E-05  0.0000000E+00  0.8315846E-04
  0.8585858E-01  0.0000000E+00  0.1515152E-01  0.1889080E-05  0.0000000E+00  0.8437069E-04
  0.9595960E-01  0.0000000E+00  0.1515152E-01  0.2094856E-05  0.0000000E+00  0.8572502E-04
  0.1060606E+00  0.0000000E+00  0.1515152E-01  0.2294178E-05  0.0000000E+00  0.8721770E-04
  0.1161616E+00  0.0000000E+00  0.1515152E-01  0.2485472E-05  0.0000000E+00  0.8884418E-04
  0.1262626E+00  0.0000000E+00  0.1515152E-01  0.2666383E-05  0.0000000E+00  0.9059885E-04
  0.1363636E+00  0.0000000E+00  0.1515152E-01  0.2833134E-05  0.0000000E+00  0.9247440E-04
  0.1464646E+00  0.0000000E+00  0.1515152E-01  0.2979412E-05  0.0000000E+00  0.9446081E-04
  0.1565657E+00  0.0000000E+00  0.1515152E-01  0.3094493E-05  0.0000000E+00  0.9654334E-04
  0.1666667E+00  0.0000000E+00  0.1515152E-01  0.3160277E-05  0.0000000E+00  0.9869890E-04
  0.1767677E+00  0.0000000E+00  0.1515152E-01  0.3147091E-05  0.0000000E+00  0.1008897E-03
  0.1868687E+00  0.0000000E+00  0.1515152E-01  0.3009073E-05  0.0000000E+00  0.1030524E-03
  0.1969697E+00  0.0000000E+00  0.1515152E-01  0.2682889E-05  0.0000000E+00  0.1050821E-03
  0.2070707E+00  0.0000000E+00  0.1515152E-01  0.2100584E-05  0.0000000E+00  0.1068152E-03
  0.2171717E+00  0.0000000E+00  0.1515152E-01  0.1238178E-05  0.0000000E+00  0.1080304E-03
  0.2272727E+00  0.0000000E+00  0.1515152E-01  0.2169831E-06  0.0000000E+00  0.1085235E-03
  0.2373737E+00  0.0000000E+00  0.1515152E-01 -0.6359636E-06  0.0000000E+00  0.1082980E-03
  0.2474747E+00  0.0000000E+00  0.1515152E-01 -0.1201135E-05  0.0000000E+00  0.1075646E-03
  0.2575758E+00  0.0000000E+00  0.1515152E-01 -0.1506273E-05  0.0000000E+00  0.1065493E-03
  0.2676768E+00  0.0000000E+00  0.1515152E-01 -0.1624813E-05  0.0000000E+00  0.1054173E-03
  0.2777778E+00  0.0000000E+00  0.1515152E-01 -0.1627056E-05  0.0000000E+00  0.1042707E-03
  0.2878788E+00  0.0000000E+00  0.1515152E-01 -0.1567114E-05  0.0000000E+00  0.1031647E-03
  0.2979798E+00  0.0000000E+00  0.1515152E-01 -0.1483895E-05  0.0000000E+00  0.1021229E-03
  0.3080808E+00  0.0000000E+00  0.1515152E-01 -0.1405133E-05  0.0000000E+00  0.1011470E-03
  0.3181818E+00  0.0000000E+00  0.1515152E-01 -0.1350347E-05  0.0000000E+00  0.1002236E-03
  0.3282828E+00  0.0000000E+00  0.1515152E-01 -0.1331584E-05  0.0000000E+00  0.9932826E-04
  0.3383838E+00  0.0000000E+00  0.1515152E-01 -0.1352077E-05  0.0000000E+00  0.9843094E-04
  0.3484848E+00  0.0000000E+00  0.1515152E-01 -0.1404139E-05  0.0000000E+00  0.9750301E-04
  0.3585859E+00  0.0000000E+00  0.1515152E-01 -0.1469145E-05  0.0000000E+00  0.9652614E-04
  0.3686869E+00  0.0000000E+00  0.1515152E-01 -0.1523031E-05  0.0000000E+00  0.9549952E-04
  0.3787879E+00  0.0000000E+00  0.1515152E-01 -0.1546414E-05  0.0000000E+00  0.9444005E-04
  0.3888889E+00  0.0000000E+00  0.1515152E-01 -0.1529772E-05  0.0000000E+00  0.9337558E-04
  0.3989899E+00  0.0000000E+00  0.1515152E-01 -0.1472739E-05  0.0000000E+00  0.9233674E-04
  0.4090909E+00  0.0000000E+00  0.1515152E-01 -0.1380811E-05  0.0000000E+00  0.9135118E-04
  0.4191919E+00  0.0000000E+00  0.1515152E-01 -0.1262065E-05  0.0000000E+00  0.9044076E-04
  0.4292929E+00  0.0000000E+00  0.1515152E-01 -0.1124921E-05  0.0000000E+00  0.8962094E-04
  0.4393939E+00  0.0000000E+00  0.1515152E-01 -0.9769725E-06  0.0000000E+00  0.8890128E-04
  0.4494950E+00  0.0000000E+00  0.1515152E-01 -0.8245526E-06  0.0000000E+00  0.8828647E-04
  0.4595959E+00  0.0000000E+00  0.1515152E-01 -0.6727223E-06  0.0000000E+00  0.8777728E-04
  0.4696970E+00  0.0000000E+00  0.1515152E-01 -0.5254346E-06  0.0000000E+00  0.8737150E-04
  0.4797980E+00  0.0000000E+00  0.1515152E-01 -0.3857518E-06  0.0000000E+00  0.8706463E-04
  0.4898990E+00  0.0000000E+00  0.1515152E-01 -0.2560453E-06  0.0000000E+00  0.8685038E-04
  0.5000000E+00  0.0000000E+00  0.1515152E-01 -0.1381554E-06  0.0000000E+00  0.8672109E-04
  0.5101010E+00  0.0000000E+00  0.1515152E-01 -0.3350424E-07  0.0000000E+00  0.8666805E-04
  0.5202020E+00  0.0000000E+00  0.1515152E-01  0.5683292E-07  0.0000000E+00  0.8668173E-04
  0.5303030E+00  0.0000000E+00  0.1515152E-01  0.1320929E-06  0.0000000E+00  0.8675196E-04
  0.5404040E+00  0.0000000E+00  0.1515152E-01  0.1918144E-06  0.0000000E+00  0.8686820E-04
  0.5505050E+00  0.0000000E+00  0.1515152E-01  0.2358395E-06  0.0000000E+00  0.8701965E-04
  0.5606061E+00  0.0000000E+00  0.1515152E-01  0.2643090E-06  0.0000000E+00  0.8719557E-04
  0.5707071E+00  0.0000000E+00  0.1515152E-01  0.2776124E-06  0.0000000E+00  0.8738543E-04
  0.5808081E+00  0.0000000E+00  0.1515152E-01  0.2762191E-06  0.0000000E+00  0.8757920E-04
  0.5909091E+00  0.0000000E+00  0.1515152E-01  0.2602449E-06  0.0000000E+00  0.8776740E-04
  0.6010101E+00  0.0000000E+00  0.1515152E-01  0.2284619E-06  0.0000000E+00  0.8794105E-04
  0.6111111E+00  0.0000000E+00  0.1515152E-01  0.1761781E-06  0.0000000E+00  0.8809082E-04
  0.6212121E+00  0.0000000E+00  0.1515152E-01  0.9086507E-07  0.0000000E+00  0.8820471E-04
  0.6313131E+00  0.0000000E+00  0.1515152E-01 -0.5651467E-07  0.0000000E+00  0.8826169E-04
  0.6414142E+00  0.0000000E+00  0.1515152E-01 -0.3275021E-06  0.0000000E+00  0.8821552E-04
  0.6515151E+00  0.0000000E+00  0.1515152E-01 -0.8400741E-06  0.0000000E+00  0.8795452E-04
  0.6616161E+00  0.0000000E+00  0.1515152E-01 -0.1776805E-05  0.0000000E+00  0.8721475E-04
  0.6717172E+00  0.0000000E+00  0.1515152E-01 -0.3221063E-05  0.0000000E+00  0.8549874E-04
  0.6818182E+00  0.0000000E+00  0.1515152E-01 -0.4047344E-05  0.0000000E+00  0.8284930E-04
  0.6919192E+00  0.0000000E+00  0.1515152E-01 -0.4365547E-05  0.0000000E+00  0.7983682E-04
  0.7020202E+00  0.0000000E+00  0.1515152E-01 -0.4390986E-05  0.0000000E+00  0.7677190E-04
  0.7121212E+00  0.0000000E+00  0.1515152E-01 -0.4268756E-05  0.0000000E+00  0.7378929E-04
  0.7222222E+00  0.0000000E+00  0.1515152E-01 -0.4079259E-05  0.0000000E+00  0.7094200E-04
  0.7323232E+00  0.0000000E+00  0.1515152E-01 -0.3863644E-05  0.0000000E+00  0.6824791E-04
  0.7424242E+00  0.0000000E+00  0.1515152E-01 -0.3641992E-05  0.0000000E+00  0.6570993E-04
  0.7525253E+00  0.0000000E+00  0.1515152E-01 -0.3423660E-05  0.0000000E+00  0.6332475E-04
  0.7626263E+00  0.0000000E+00  0.1515152E-01 -0.3212702E-05  0.0000000E+00  0.6108660E-04
  0.7727273E+00  0.0000000E+00  0.1515152E-01 -0.3010599E-05  0.0000000E+00  0.5898890E-04
  0.7828283E+00  0.0000000E+00  0.1515152E-01 -0.2817621E-05  0.0000000E+00  0.5702504E-04
  0.7929293E+00  0.0000000E+00  0.1515152E-01 -0.2633482E-05  0.0000000E+00  0.5518867E-04
  0.8030303E+00  0.0000000E+00  0.1515152E-01 -0.2457669E-05  0.0000000E+00  0.5347387E-04
  0.8131313E+00  0.0000000E+00  0.1515152E-01 -0.2289591E-05  0.0000000E+00  0.5187514E-04
  0.8232324E+00  0.0000000E+00  0.1515152E-01 -0.2128653E-05  0.0000000E+00  0.5038741E-04
  0.8333333E+00  0.0000000E+00  0.1515152E-01 -0.1974287E-05  0.0000000E+00  0.4900603E-04
  0.8434343E+00  0.0000000E+00  0.1515152E-01 -0.1825962E-05  0.0000000E+00  0.4772672E-04
  0.8535354E+00  0.0000000E+00  0.1515152E-01 -0.1683189E-05  0.0000000E+00  0.4654555E-04
  0.8636364E+00  0.0000000E+00  0.1515152E-01 -0.1545516E-05  0.0000000E+00  0.4545890E-04
  0.8737374E+00  0.0000000E+00  0.1515152E-01 -0.1412526E-05  0.0000000E+00  0.4446347E-04
  0.8838384E+00  0.0000000E+00  0.1515152E-01 -0.1283826E-05  0.0000000E+00  0.4355621E-04
  0.8939394E+00  0.0000000E+00  0.1515152E-01 -0.1159048E-05  0.0000000E+00  0.4273433E-04
  0.9040404E+00  0.0000000E+00  0.1515152E-01 -0.1037838E-05  0.0000000E+00  0.4199529E-04
  0.9141414E+00  0.0000000E+00  0.1515152E-01 -0.9198551E-06  0.0000000E+00  0.4133679E-04
  0.9242424E+00  0.0000000E+00  0.1515152E-01 -0.8047641E-06  0.0000000E+00  0.4075674E-04
  0.9343435E+00  0.0000000E+00  0.1515152E-01 -0.6922330E-06  0.0000000E+00  0.4025329E-04
  0.9444444E+00  0.0000000E+00  0.1515152E-01 -0.5819301E-06  0.0000000E+00  0.3982482E-04
  0.9545454E+00  0.0000000E+00  0.1515152E-01 -0.4735215E-06  0.0000000E+00  0.3946992E-04
  0.9646465E+00  0.0000000E+00  0.1515152E-01 -0.3666703E-06  0.0000000E+00  0.3918741E-04
  0.9747475E+00  0.0000000E+00  0.1515152E-01 -0.2610353E-06  0.0000000E+00  0.3897636E-04
  0.9848485E+00  0.0000000E+00  0.1515152E-01 -0.1562719E-06  0.0000000E+00  0.3883606E-04
  0.9974747E+00  0.0000000E+00  0.1515152E-01 -0.5203239E-07  0.0000000E+00  0.3876603E-04
  0.5050505E-02  0.0000000E+00  0.2525252E-01  0.1911913E-06  0.0000000E+00  0.7917010E-04
  0.1515152E-01  0.0000000E+00  0.2525252E-01  0.5731595E-06  0.0000000E+00  0.7932753E-04
  0.2525252E-01  0.0000000E+00  0.2525252E-01  0.9538815E-06  0.0000000E+00  0.7964208E-04
  0.3535353E-01  0.0000000E+00  0.2525252E-01  0.1332508E-05  0.0000000E+00  0.8011309E-04
  0.4545455E-01  0.0000000E+00  0.2525252E-01  0.1708158E-05  0.0000000E+00  0.8073958E-04
  0.5555556E-01  0.0000000E+00  0.2525252E-01  0.2079899E-05  0.0000000E+00  0.8152025E-04
  0.6565657E-01  0.0000000E+00  0.2525252E-01  0.2446737E-05  0.0000000E+00  0.8245341E-04
  0.7575758E-01  0.0000000E+00  0.2525252E-01  0.2807585E-05  0.0000000E+00  0.8353697E-04
  0.8585858E-01  0.0000000E+00  0.2525252E-01  0.3161235E-05  0.0000000E+00  0.8476846E-04
  0.9595960E-01  0.0000000E+00  0.2525252E-01  0.3506293E-05  0.0000000E+00  0.8614496E-04
  0.1060606E+00  0.0000000E+00  0.2525252E-01  0.3841055E-05  0.0000000E+00  0.8766310E-04
  0.1161616E+00  0.0000000E+00  0.2525252E-01  0.4163275E-05  0.0000000E+00  0.8931906E-04
  0.1262626E+00  0.0000000E+00  0.2525252E-01  0.4469713E-05  0.0000000E+00  0.9110850E-04
  0.1363636E+00  0.0000000E+00  0.2525252E-01  0.4755279E-05  0.0000000E+00  0.9302654E-04
  0.1464646E+00  0.0000000E+00  0.2525252E-01  0.5011481E-05  0.0000000E+00  0.9506745E-04
  0.1565657E+00  0.0000000E+00  0.2525252E-01  0.5223631E-05  0.0000000E+00  0.9722394E-04
  0.1666667E+00  0.0000000E+00  0.2525252E-01  0.5366021E-05  0.0000000E+00  0.9948523E-04
  0.1767677E+00  0.0000000E+00  0.2525252E-01  0.5393966E-05  0.0000000E+00  0.1018322E-03
  0.1868687E+00  0.0000000E+00  0.2525252E-01  0.5231867E-05  0.0000000E+00  0.1042254E-03
  0.1969697E+00  0.0000000E+00  0.2525252E-01  0.4759389E-05  0.0000000E+00  0.1065785E-03
  0.2070707E+00  0.0000000E+00  0.2525252E-01  0.3810142E-05  0.0000000E+00  0.1087057E-03
  0.2171717E+00  0.0000000E+00  0.2525252E-01  0.2236878E-05  0.0000000E+00  0.1102526E-03
  0.2272727E+00  0.0000000E+00  0.2525252E-01  0.1829652E-06  0.0000000E+00  0.1107442E-03
  0.2373737E+00  0.0000000E+00  0.2525252E-01 -0.1372042E-05  0.0000000E+00  0.1101856E-03
  0.2474747E+00  0.0000000E+00  0.2525252E-01 -0.2287975E-05  0.0000000E+00  0.1090608E-03
  0.2575758E+00  0.0000000E+00  0.2525252E-01 -0.2718651E-05  0.0000000E+00  0.1077317E-03
  0.2676768E+00  0.0000000E+00  0.2525252E-01 -0.2839881E-05  0.0000000E+00  0.1063881E-03
  0.2777778E+00  0.0000000E+00  0.2525252E-01 -0.2783916E-05  0.0000000E+00  0.1051156E-03
  0.2878788E+00  0.0000000E+00  0.2525252E-01 -0.2640534E-05  0.0000000E+00  0.1039468E-03
  0.2979798E+00  0.0000000E+00  0.2525252E-01 -0.2470633E-05  0.0000000E+00  0.1028874E-03
  0.3080808E+00  0.0000000E+00  0.2525252E-01 -0.2317513E-05  0.0000000E+00  0.1019263E-03
  0.3181818E+00  0.0000000E+00  0.2525252E-01 -0.2213132E-05  0.0000000E+00  0.1010391E-03
  0.3282828E+00  0.0000000E+00  0.2525252E-01 -0.2179166E-05  0.0000000E+00  0.1001901E-03
  0.3383838E+00  0.0000000E+00  0.2525252E-01 -0.2223284E-05  0.0000000E+00  0.9933470E-04
  0.3484848E+00  0.0000000E+00  0.2525252E-01 -0.2332457E-05  0.0000000E+00  0.9842796E-04
  0.3585859E+00  0.0000000E+00  0.2525252E-01 -0.2469316E-05  0.0000000E+00  0.9743918E-04
  0.3686869E+00  0.0000000E+00  0.2525252E-01 -0.2582411E-05  0.0000000E+00  0.9636707E-04
  0.3787879E+00  0.0000000E+00  0.2525252E-01 -0.2633445E-05  0.0000000E+00  0.9523975E-04
  0.3888889E+00  0.0000000E+00  0.2525252E-01 -0.2607060E-05  0.0000000E+00  0.9409955E-04
  0.3989899E+00  0.0000000E+00  0.2525252E-01 -0.2506204E-05  0.0000000E+00  0.9298856E-04
  0.4090909E+00  0.0000000E+00  0.2525252E-01 -0.2343725E-05  0.0000000E+00  0.9194098E-04
  0.4191919E+00  0.0000000E+00  0.2525252E-01 -0.2135705E-05  0.0000000E+00  0.9098116E-04
  0.4292929E+00  0.0000000E+00  0.2525252E-01 -0.1897638E-05  0.0000000E+00  0.9012453E-04
  0.4393939E+00  0.0000000E+00  0.2525252E-01 -0.1642797E-05  0.0000000E+00  0.8937941E-04
  0.4494950E+00  0.0000000E+00  0.2525252E-01 -0.1381865E-05  0.0000000E+00  0.8874882E-04
  0.4595959E+00  0.0000000E+00  0.2525252E-01 -0.1123166E-05  0.0000000E+00  0.8823191E-04
  0.4696970E+00  0.0000000E+00  0.2525252E-01 -0.8730981E-06  0.0000000E+00  0.8782503E-04
  0.4797980E+00  0.0000000E+00  0.2525252E-01 -0.6365714E-06  0.0000000E+00  0.8752250E-04
  0.4898990E+00  0.0000000E+00  0.2525252E-01 -0.4173785E-06  0.0000000E+00  0.8731704E-04
  0.5000000E+00  0.0000000E+00  0.2525252E-01 -0.2184708E-06  0.0000000E+00  0.8720019E-04
  0.5101010E+00  0.0000000E+00  0.2525252E-01 -0.4214661E-07  0.0000000E+00  0.8716254E-04
  0.5202020E+00  0.0000000E+00  0.2525252E-01  0.1098361E-06  0.0000000E+00  0.8719390E-04
  0.5303030E+00  0.0000000E+00  0.2525252E-01  0.2362102E-06  0.0000000E+00  0.8728351E-04
  0.5404040E+00  0.0000000E+00  0.2525252E-01  0.3361951E-06  0.0000000E+00  0.8742015E-04
  0.5505050E+00  0.0000000E+00  0.2525252E-01  0.4095227E-06  0.0000000E+00  0.8759241E-04
  0.5606061E+00  0.0000000E+00  0.2525252E-01  0.4564740E-06  0.0000000E+00  0.8778886E-04
  0.5707071E+00  0.0000000E+00  0.2525252E-01  0.4778822E-06  0.0000000E+00  0.8799845E-04
  0.5808081E+00  0.0000000E+00  0.2525252E-01  0.4750220E-06  0.0000000E+00  0.8821091E-04
  0.5909091E+00  0.0000000E+00  0.2525252E-01  0.4492219E-06  0.0000000E+00  0.8841745E-04
  0.6010101E+00  0.0000000E+00  0.2525252E-01  0.4008691E-06  0.0000000E+00  0.8861165E-04
  0.6111111E+00  0.0000000E+00  0.2525252E-01  0.3271259E-06  0.0000000E+00  0.8879092E-04
  0.6212121E+00  0.0000000E+00  0.2525252E-01  0.2168612E-06  0.0000000E+00  0.8895863E-04
  0.6313131E+00  0.0000000E+00  0.2525252E-01  0.3924628E-07  0.0000000E+00  0.8912662E-04
  0.6414142E+00  0.0000000E+00  0.2525252E-01 -0.2832090E-06  0.0000000E+00  0.8931369E-04
  0.6515151E+00  0.0000000E+00  0.2525252E-01 -0.9427098E-06  0.0000000E+00  0.8951215E-04
  0.6616161E+00  0.0000000E+00  0.2525252E-01 -0.2428113E-05  0.0000000E+00  0.8947999E-04
  0.6717172E+00  0.0000000E+00  0.2525252E-01 -0.6027201E-05  0.0000000E+00  0.8767808E-04
  0.6818182E+00  0.0000000E+00  0.2525252E-01 -0.7300968E-05  0.0000000E+00  0.8416846E-04
  0.6919192E+00  0.0000000E+00  0.2525252E-01 -0.7601406E-05  0.0000000E+00  0.8058634E-04
  0.7020202E+00  0.0000000E+00  0.2525252E-01 -0.7485015E-05  0.0000000E+00  0.7721990E-04
  0.7121212E+00  0.0000000E+00  0.2525252E-01 -0.7192353E-05  0.0000000E+00  0.7408972E-04
  0.7222222E+00  0.0000000E+00  0.2525252E-01 -0.6830900E-05  0.0000000E+00  0.7117343E-04
  0.7323232E+00  0.0000000E+00  0.2525252E-01 -0.6449390E-05  0.0000000E+00  0.6844849E-04
  0.7424242E+00  0.0000000E+00  0.2525252E-01 -0.6069781E-05  0.0000000E+00  0.6589758E-04
  0.7525253E+00  0.0000000E+00  0.2525252E-01 -0.5701581E-05  0.0000000E+00  0.6350754E-04
  0.7626263E+00  0.0000000E+00  0.2525252E-01 -0.5348465E-05  0.0000000E+00  0.6126793E-04
  0.7727273E+00  0.0000000E+00  0.2525252E-01 -0.5011386E-05  0.0000000E+00  0.5917000E-04
  0.7828283E+00  0.0000000E+00  0.2525252E-01 -0.4690055E-05  0.0000000E+00  0.5720619E-04
  0.7929293E+00  0.0000000E+00  0.2525252E-01 -0.4383652E-05  0.0000000E+00  0.5536977E-04
  0.8030303E+00  0.0000000E+00  0.2525252E-01 -0.4091160E-05  0.0000000E+00  0.5365469E-04
  0.8131313E+00  0.0000000E+00  0.2525252E-01 -0.3811528E-05  0.0000000E+00  0.5205547E-04
  0.8232324E+00  0.0000000E+00  0.2525252E-01 -0.3543739E-05  0.0000000E+00  0.5056709E-04
  0.8333333E+00  0.0000000E+00  0.2525252E-01 -0.3286843E-05  0.0000000E+00  0.4918494E-04
  0.8434343E+00  0.0000000E+00  0.2525252E-01 -0.3039960E-05  0.0000000E+00  0.4790482E-04
  0.8535354E+00  0.0000000E+00  0.2525252E-01 -0.2802284E-05  0.0000000E+00  0.4672284E-04
  0.8636364E+00  0.0000000E+00  0.2525252E-01 -0.2573072E-05  0.0000000E+00  0.4563543E-04
  0.8737374E+00  0.0000000E+00  0.2525252E-01 -0.2351634E-05  0.0000000E+00  0.4463930E-04
  0.8838384E+00  0.0000000E+00  0.2525252E-01 -0.2137329E-05  0.0000000E+00  0.4373144E-04
  0.8939394E+00  0.0000000E+00  0.2525252E-01 -0.1929549E-05  0.0000000E+00  0.4290906E-04
  0.9040404E+00  0.0000000E+00  0.2525252E-01 -0.1727711E-05  0.0000000E+00  0.4216962E-04
  0.9141414E+00  0.0000000E+00  0.2525252E-01 -0.1531251E-05  0.0000000E+00  0.4151081E-04
  0.9242424E+00  0.0000000E+00  0.2525252E-01 -0.1339616E-05  0.0000000E+00  0.4093055E-04
  0.9343435E+00  0.0000000E+00  0.2525252E-01 -0.1152255E-05  0.0000000E+00  0.4042697E-04
  0.9444444E+00  0.0000000E+00  0.2525252E-01 -0.9686177E-06  0.0000000E+00  0.3999842E-04
  0.9545454E+00  0.0000000E+00  0.2525252E-01 -0.7881478E-06  0.0000000E+00  0.3964348E-04
  0.9646465E+00  0.0000000E+00  0.2525252E-01 -0.6102838E-06  0.0000000E+00  0.3936097E-04
  0.9747475E+00  0.0000000E+00  0.2525252E-01 -0.4344560E-06  0.0000000E+00  0.3914994E-04
  0.9848485E+00  0.0000000E+00  0.2525252E-01 -0.2600882E-06  0.0000000E+00  0.3900964E-04
  0.9974747E+00  0.0000000E+00  0.2525252E-01 -0.8659845E-07  0.0000000E+00  0.3893962E-04
  0.5050505E-02  0.0000000E+00  0.3535353E-01  0.2692385E-06  0.0000000E+00  0.7964330E-04
  0.1515152E-01  0.0000000E+00  0.3535353E-01  0.8071494E-06  0.0000000E+00  0.7980415E-04
  0.2525252E-01  0.0000000E+00  0.3535353E-01  0.1343356E-05  0.0000000E+00  0.8012554E-04
  0.3535353E-01  0.0000000E+00  0.3535353E-01  0.1876694E-05  0.0000000E+00  0.8060687E-04
  0.4545455E-01  0.0000000E+00  0.3535353E-01  0.2405954E-05  0.0000000E+00  0.8124721E-04
  0.5555556E-01  0.0000000E+00  0.3535353E-01  0.2929857E-05  0.0000000E+00  0.8204532E-04
  0.6565657E-01  0.0000000E+00  0.3535353E-01  0.3447037E-05  0.0000000E+00  0.8299961E-04
  0.7575758E-01  0.0000000E+00  0.3535353E-01  0.3956023E-05  0.0000000E+00  0.8410812E-04
  0.8585858E-01  0.0000000E+00  0.3535353E-01  0.4455206E-05  0.0000000E+00  0.8536852E-04
  0.9595960E-01  0.0000000E+00  0.3535353E-01  0.4942801E-05  0.0000000E+00  0.8677813E-04
  0.1060606E+00  0.0000000E+00  0.3535353E-01  0.5416761E-05  0.0000000E+00  0.8833396E-04
  0.1161616E+00  0.0000000E+00  0.3535353E-01  0.5874589E-05  0.0000000E+00  0.9003290E-04
  0.1262626E+00  0.0000000E+00  0.3535353E-01  0.6312967E-05  0.0000000E+00  0.9187198E-04
  0.1363636E+00  0.0000000E+00  0.3535353E-01  0.6726993E-05  0.0000000E+00  0.9384893E-04
  0.1464646E+00  0.0000000E+00  0.3535353E-01  0.7108684E-05  0.0000000E+00  0.9596296E-04
  0.1565657E+00  0.0000000E+00  0.3535353E-01  0.7444063E-05  0.0000000E+00  0.9821606E-04
  0.1666667E+00  0.0000000E+00  0.3535353E-01  0.7707529E-05  0.0000000E+00  0.1006144E-03
  0.1767677E+00  0.0000000E+00  0.3535353E-01  0.7850908E-05  0.0000000E+00  0.1031690E-03
  0.1868687E+00  0.0000000E+00  0.3535353E-01  0.7782133E-05  0.0000000E+00  0.1058904E-03
  0.1969697E+00  0.0000000E+00  0.3535353E-01  0.7324619E-05  0.0000000E+00  0.1087618E-03
  0.2070707E+00  0.0000000E+00  0.3535353E-01  0.6148736E-05  0.0000000E+00  0.1116422E-03
  0.2171717E+00  0.0000000E+00  0.3535353E-01  0.3716750E-05  0.0000000E+00  0.1139945E-03
  0.2272727E+00  0.0000000E+00  0.3535353E-01 -0.3405825E-06  0.0000000E+00  0.1144821E-03
  0.2373737E+00  0.0000000E+00  0.3535353E-01 -0.2741555E-05  0.0000000E+00  0.1131120E-03
  0.2474747E+00  0.0000000E+00  0.3535353E-01 -0.3860546E-05  0.0000000E+00  0.1112350E-03
  0.2575758E+00  0.0000000E+00  0.3535353E-01 -0.4245118E-05  0.0000000E+00  0.1093995E-03
  0.2676768E+00  0.0000000E+00  0.3535353E-01 -0.4238636E-05  0.0000000E+00  0.1077543E-03
  0.2777778E+00  0.0000000E+00  0.3535353E-01 -0.4034895E-05  0.0000000E+00  0.1063182E-03
  0.2878788E+00  0.0000000E+00  0.3535353E-01 -0.3746519E-05  0.0000000E+00  0.1050768E-03
  0.2979798E+00  0.0000000E+00  0.3535353E-01 -0.3445744E-05  0.0000000E+00  0.1040074E-03