title = "dataset water"
variables = "x", "y", "z", "vx", "vy", "vz"
zone t = "velocities, solution time =  2.600E+01 days        " i =   99, j =   99, k =    1,  f=point
  0.5050505E-02  0.0000000E+00  0.5050505E-02  0.5003875E-11  0.0000000E+00 -0.1206620E-04
  0.1515152E-01  0.0000000E+00  0.5050505E-02  0.1505210E-10  0.0000000E+00 -0.1206618E-04
  0.2525252E-01  0.0000000E+00  0.5050505E-02  0.2504470E-10  0.0000000E+00 -0.1206614E-04
  0.3535353E-01  0.0000000E+00  0.5050505E-02  0.3492696E-10  0.0000000E+00 -0.1206608E-04
  0.4545455E-01  0.0000000E+00  0.5050505E-02  0.4466416E-10  0.0000000E+00 -0.1206600E-04
  0.5555556E-01  0.0000000E+00  0.5050505E-02  0.5421961E-10  0.0000000E+00 -0.1206590E-04
  0.6565657E-01  0.0000000E+00  0.5050505E-02  0.6354970E-10  0.0000000E+00 -0.1206578E-04
  0.7575758E-01  0.0000000E+00  0.5050505E-02  0.7261921E-10  0.0000000E+00 -0.1206564E-04
  0.8585858E-01  0.0000000E+00  0.5050505E-02  0.8138774E-10  0.0000000E+00 -0.1206549E-04
  0.9595960E-01  0.0000000E+00  0.5050505E-02  0.8981768E-10  0.0000000E+00 -0.1206532E-04
  0.1060606E+00  0.0000000E+00  0.5050505E-02  0.9787320E-10  0.0000000E+00 -0.1206513E-04
  0.1161616E+00  0.0000000E+00  0.5050505E-02  0.1055180E-09  0.0000000E+00 -0.1206493E-04
  0.1262626E+00  0.0000000E+00  0.5050505E-02  0.1127179E-09  0.0000000E+00 -0.1206471E-04
  0.1363636E+00  0.0000000E+00  0.5050505E-02  0.1194398E-09  0.0000000E+00 -0.1206447E-04
  0.1464646E+00  0.0000000E+00  0.5050505E-02  0.1256523E-09  0.0000000E+00 -0.1206423E-04
  0.1565657E+00  0.0000000E+00  0.5050505E-02  0.1313254E-09  0.0000000E+00 -0.1206397E-04
  0.1666667E+00  0.0000000E+00  0.5050505E-02  0.1364313E-09  0.0000000E+00 -0.1206370E-04
  0.1767677E+00  0.0000000E+00  0.5050505E-02  0.1409439E-09  0.0000000E+00 -0.1206343E-04
  0.1868687E+00  0.0000000E+00  0.5050505E-02  0.1448395E-09  0.0000000E+00 -0.1206314E-04
  0.1969697E+00  0.0000000E+00  0.5050505E-02  0.1480964E-09  0.0000000E+00 -0.1206285E-04
  0.2070707E+00  0.0000000E+00  0.5050505E-02  0.1506959E-09  0.0000000E+00 -0.1206255E-04
  0.2171717E+00  0.0000000E+00  0.5050505E-02  0.1526215E-09  0.0000000E+00 -0.1206224E-04
  0.2272727E+00  0.0000000E+00  0.5050505E-02  0.1538596E-09  0.0000000E+00 -0.1206194E-04
  0.2373737E+00  0.0000000E+00  0.5050505E-02  0.1543997E-09  0.0000000E+00 -0.1206163E-04
  0.2474747E+00  0.0000000E+00  0.5050505E-02  0.1542343E-09  0.0000000E+00 -0.1206132E-04
  0.2575758E+00  0.0000000E+00  0.5050505E-02  0.1533589E-09  0.0000000E+00 -0.1206101E-04
  0.2676768E+00  0.0000000E+00  0.5050505E-02  0.1517725E-09  0.0000000E+00 -0.1206071E-04
  0.2777778E+00  0.0000000E+00  0.5050505E-02  0.1494772E-09  0.0000000E+00 -0.1206040E-04
  0.2878788E+00  0.0000000E+00  0.5050505E-02  0.1464790E-09  0.0000000E+00 -0.1206011E-04
  0.2979798E+00  0.0000000E+00  0.5050505E-02  0.1427867E-09  0.0000000E+00 -0.1205982E-04
  0.3080808E+00  0.0000000E+00  0.5050505E-02  0.1384132E-09  0.0000000E+00 -0.1205954E-04
  0.3181818E+00  0.0000000E+00  0.5050505E-02  0.1333744E-09  0.0000000E+00 -0.1205926E-04
  0.3282828E+00  0.0000000E+00  0.5050505E-02  0.1276899E-09  0.0000000E+00 -0.1205900E-04
  0.3383838E+00  0.0000000E+00  0.5050505E-02  0.1213827E-09  0.0000000E+00 -0.1205875E-04
  0.3484848E+00  0.0000000E+00  0.5050505E-02  0.1144790E-09  0.0000000E+00 -0.1205852E-04
  0.3585859E+00  0.0000000E+00  0.5050505E-02  0.1070081E-09  0.0000000E+00 -0.1205829E-04
  0.3686869E+00  0.0000000E+00  0.5050505E-02  0.9900257E-10  0.0000000E+00 -0.1205809E-04
  0.3787879E+00  0.0000000E+00  0.5050505E-02  0.9049773E-10  0.0000000E+00 -0.1205790E-04
  0.3888889E+00  0.0000000E+00  0.5050505E-02  0.8153165E-10  0.0000000E+00 -0.1205773E-04
  0.3989899E+00  0.0000000E+00  0.5050505E-02  0.7214490E-10  0.0000000E+00 -0.1205757E-04
  0.4090909E+00  0.0000000E+00  0.5050505E-02  0.6238032E-10  0.0000000E+00 -0.1205744E-04
  0.4191919E+00  0.0000000E+00  0.5050505E-02  0.5228278E-10  0.0000000E+00 -0.1205732E-04
  0.4292929E+00  0.0000000E+00  0.5050505E-02  0.4189893E-10  0.0000000E+00 -0.1205723E-04
  0.4393939E+00  0.0000000E+00  0.5050505E-02  0.3127685E-10  0.0000000E+00 -0.1205716E-04
  0.4494950E+00  0.0000000E+00  0.5050505E-02  0.2046581E-10  0.0000000E+00 -0.1205710E-04
  0.4595959E+00  0.0000000E+00  0.5050505E-02  0.9516000E-11  0.0000000E+00 -0.1205707E-04
  0.4696970E+00  0.0000000E+00  0.5050505E-02 -0.1522033E-11  0.0000000E+00 -0.1205707E-04
  0.4797980E+00  0.0000000E+00  0.5050505E-02 -0.1259732E-10  0.0000000E+00 -0.1205708E-04
  0.4898990E+00  0.0000000E+00  0.5050505E-02 -0.2365994E-10  0.0000000E+00 -0.1205712E-04
  0.5000000E+00  0.0000000E+00  0.5050505E-02 -0.3465634E-10  0.0000000E+00 -0.1205717E-04
  0.5101010E+00  0.0000000E+00  0.5050505E-02 -0.4553817E-10  0.0000000E+00 -0.1205725E-04
  0.5202020E+00  0.0000000E+00  0.5050505E-02 -0.5625584E-10  0.0000000E+00 -0.1205736E-04
  0.5303030E+00  0.0000000E+00  0.5050505E-02 -0.6676439E-10  0.0000000E+00 -0.1205748E-04
  0.5404040E+00  0.0000000E+00  0.5050505E-02 -0.7701281E-10  0.0000000E+00 -0.1205762E-04
  0.5505050E+00  0.0000000E+00  0.5050505E-02 -0.8696026E-10  0.0000000E+00 -0.1205779E-04
  0.5606061E+00  0.0000000E+00  0.5050505E-02 -0.9656216E-10  0.0000000E+00 -0.1205797E-04
  0.5707071E+00  0.0000000E+00  0.5050505E-02 -0.1057779E-09  0.0000000E+00 -0.1205817E-04
  0.5808081E+00  0.0000000E+00  0.5050505E-02 -0.1145703E-09  0.0000000E+00 -0.1205840E-04
  0.5909091E+00  0.0000000E+00  0.5050505E-02 -0.1229031E-09  0.0000000E+00 -0.1205863E-04
  0.6010101E+00  0.0000000E+00  0.5050505E-02 -0.1307436E-09  0.0000000E+00 -0.1205889E-04
  0.6111111E+00  0.0000000E+00  0.5050505E-02 -0.1380619E-09  0.0000000E+00 -0.1205916E-04
  0.6212121E+00  0.0000000E+00  0.5050505E-02 -0.1448307E-09  0.0000000E+00 -0.1205944E-04
  0.6313131E+00  0.0000000E+00  0.5050505E-02 -0.1510261E-09  0.0000000E+00 -0.1205974E-04
  0.6414142E+00  0.0000000E+00  0.5050505E-02 -0.1566270E-09  0.0000000E+00 -0.1206004E-04
  0.6515151E+00  0.0000000E+00  0.5050505E-02 -0.1616155E-09  0.0000000E+00 -0.1206036E-04
  0.6616161E+00  0.0000000E+00  0.5050505E-02 -0.1659768E-09  0.0000000E+00 -0.1206069E-04
  0.6717172E+00  0.0000000E+00  0.5050505E-02 -0.1696992E-09  0.0000000E+00 -0.1206103E-04
  0.6818182E+00  0.0000000E+00  0.5050505E-02 -0.1727740E-09  0.0000000E+00 -0.1206137E-04
  0.6919192E+00  0.0000000E+00  0.5050505E-02 -0.1751956E-09  0.0000000E+00 -0.1206172E-04
  0.7020202E+00  0.0000000E+00  0.5050505E-02 -0.1769611E-09  0.0000000E+00 -0.1206207E-04
  0.7121212E+00  0.0000000E+00  0.5050505E-02 -0.1780708E-09  0.0000000E+00 -0.1206243E-04
  0.7222222E+00  0.0000000E+00  0.5050505E-02 -0.1785273E-09  0.0000000E+00 -0.1206278E-04
  0.7323232E+00  0.0000000E+00  0.5050505E-02 -0.1783362E-09  0.0000000E+00 -0.1206314E-04
  0.7424242E+00  0.0000000E+00  0.5050505E-02 -0.1775051E-09  0.0000000E+00 -0.1206350E-04
  0.7525253E+00  0.0000000E+00  0.5050505E-02 -0.1760444E-09  0.0000000E+00 -0.1206385E-04
  0.7626263E+00  0.0000000E+00  0.5050505E-02 -0.1739665E-09  0.0000000E+00 -0.1206420E-04
  0.7727273E+00  0.0000000E+00  0.5050505E-02 -0.1712856E-09  0.0000000E+00 -0.1206455E-04
  0.7828283E+00  0.0000000E+00  0.5050505E-02 -0.1680180E-09  0.0000000E+00 -0.1206489E-04
  0.7929293E+00  0.0000000E+00  0.5050505E-02 -0.1641819E-09  0.0000000E+00 -0.1206522E-04
  0.8030303E+00  0.0000000E+00  0.5050505E-02 -0.1597965E-09  0.0000000E+00 -0.1206554E-04
  0.8131313E+00  0.0000000E+00  0.5050505E-02 -0.1548830E-09  0.0000000E+00 -0.1206586E-04
  0.8232324E+00  0.0000000E+00  0.5050505E-02 -0.1494635E-09  0.0000000E+00 -0.1206616E-04
  0.8333333E+00  0.0000000E+00  0.5050505E-02 -0.1435612E-09  0.0000000E+00 -0.1206646E-04
  0.8434343E+00  0.0000000E+00  0.5050505E-02 -0.1372005E-09  0.0000000E+00 -0.1206674E-04
  0.8535354E+00  0.0000000E+00  0.5050505E-02 -0.1304064E-09  0.0000000E+00 -0.1206701E-04
  0.8636364E+00  0.0000000E+00  0.5050505E-02 -0.1232049E-09  0.0000000E+00 -0.1206726E-04
  0.8737374E+00  0.0000000E+00  0.5050505E-02 -0.1156223E-09  0.0000000E+00 -0.1206750E-04
  0.8838384E+00  0.0000000E+00  0.5050505E-02 -0.1076856E-09  0.0000000E+00 -0.1206772E-04
  0.8939394E+00  0.0000000E+00  0.5050505E-02 -0.9942215E-10  0.0000000E+00 -0.1206793E-04
  0.9040404E+00  0.0000000E+00  0.5050505E-02 -0.9085971E-10  0.0000000E+00 -0.1206812E-04
  0.9141414E+00  0.0000000E+00  0.5050505E-02 -0.8202624E-10  0.0000000E+00 -0.1206830E-04
  0.9242424E+00  0.0000000E+00  0.5050505E-02 -0.7294997E-10  0.0000000E+00 -0.1206845E-04
  0.9343435E+00  0.0000000E+00  0.5050505E-02 -0.6365924E-10  0.0000000E+00 -0.1206859E-04
  0.9444444E+00  0.0000000E+00  0.5050505E-02 -0.5418259E-10  0.0000000E+00 -0.1206871E-04
  0.9545454E+00  0.0000000E+00  0.5050505E-02 -0.4454865E-10  0.0000000E+00 -0.1206880E-04
  0.9646465E+00  0.0000000E+00  0.5050505E-02 -0.3478625E-10  0.0000000E+00 -0.1206888E-04
  0.9747475E+00  0.0000000E+00  0.5050505E-02 -0.2492449E-10  0.0000000E+00 -0.1206894E-04
  0.9848485E+00  0.0000000E+00  0.5050505E-02 -0.1499338E-10  0.0000000E+00 -0.1206898E-04
  0.9974747E+00  0.0000000E+00  0.5050505E-02 -0.5025307E-11  0.0000000E+00 -0.1206900E-04
  0.5050505E-02  0.0000000E+00  0.1515152E-01  0.1506675E-10  0.0000000E+00 -0.1204801E-04
  0.1515152E-01  0.0000000E+00  0.1515152E-01  0.4528100E-10  0.0000000E+00 -0.1204799E-04
  0.2525252E-01  0.0000000E+00  0.1515152E-01  0.7533245E-10  0.0000000E+00 -0.1204795E-04
  0.3535353E-01  0.0000000E+00  0.1515152E-01  0.1050566E-09  0.0000000E+00 -0.1204789E-04
  0.4545455E-01  0.0000000E+00  0.1515152E-01  0.1343439E-09  0.0000000E+00 -0.1204781E-04
  0.5555556E-01  0.0000000E+00  0.1515152E-01  0.1630854E-09  0.0000000E+00 -0.1204771E-04
  0.6565657E-01  0.0000000E+00  0.1515152E-01  0.1911503E-09  0.0000000E+00 -0.1204759E-04
  0.7575758E-01  0.0000000E+00  0.1515152E-01  0.2184305E-09  0.0000000E+00 -0.1204746E-04
  0.8585858E-01  0.0000000E+00  0.1515152E-01  0.2448065E-09  0.0000000E+00 -0.1204730E-04
  0.9595960E-01  0.0000000E+00  0.1515152E-01  0.2701646E-09  0.0000000E+00 -0.1204713E-04
  0.1060606E+00  0.0000000E+00  0.1515152E-01  0.2943964E-09  0.0000000E+00 -0.1204694E-04
  0.1161616E+00  0.0000000E+00  0.1515152E-01  0.3173935E-09  0.0000000E+00 -0.1204673E-04
  0.1262626E+00  0.0000000E+00  0.1515152E-01  0.3390526E-09  0.0000000E+00 -0.1204651E-04
  0.1363636E+00  0.0000000E+00  0.1515152E-01  0.3592746E-09  0.0000000E+00 -0.1204627E-04
  0.1464646E+00  0.0000000E+00  0.1515152E-01  0.3779645E-09  0.0000000E+00 -0.1204603E-04
  0.1565657E+00  0.0000000E+00  0.1515152E-01  0.3950324E-09  0.0000000E+00 -0.1204577E-04
  0.1666667E+00  0.0000000E+00  0.1515152E-01  0.4103943E-09  0.0000000E+00 -0.1204549E-04
  0.1767677E+00  0.0000000E+00  0.1515152E-01  0.4239720E-09  0.0000000E+00 -0.1204521E-04
  0.1868687E+00  0.0000000E+00  0.1515152E-01  0.4356936E-09  0.0000000E+00 -0.1204492E-04
  0.1969697E+00  0.0000000E+00  0.1515152E-01  0.4454946E-09  0.0000000E+00 -0.1204463E-04
  0.2070707E+00  0.0000000E+00  0.1515152E-01  0.4533178E-09  0.0000000E+00 -0.1204433E-04
  0.2171717E+00  0.0000000E+00  0.1515152E-01  0.4591140E-09  0.0000000E+00 -0.1204402E-04
  0.2272727E+00  0.0000000E+00  0.1515152E-01  0.4628422E-09  0.0000000E+00 -0.1204371E-04
  0.2373737E+00  0.0000000E+00  0.1515152E-01  0.4644707E-09  0.0000000E+00 -0.1204340E-04
  0.2474747E+00  0.0000000E+00  0.1515152E-01  0.4639765E-09  0.0000000E+00 -0.1204308E-04
  0.2575758E+00  0.0000000E+00  0.1515152E-01  0.4613465E-09  0.0000000E+00 -0.1204277E-04
  0.2676768E+00  0.0000000E+00  0.1515152E-01  0.4565772E-09  0.0000000E+00 -0.1204246E-04
  0.2777778E+00  0.0000000E+00  0.1515152E-01  0.4496756E-09  0.0000000E+00 -0.1204216E-04
  0.2878788E+00  0.0000000E+00  0.1515152E-01  0.4406585E-09  0.0000000E+00 -0.1204186E-04
  0.2979798E+00  0.0000000E+00  0.1515152E-01  0.4295535E-09  0.0000000E+00 -0.1204157E-04
  0.3080808E+00  0.0000000E+00  0.1515152E-01  0.4163984E-09  0.0000000E+00 -0.1204128E-04
  0.3181818E+00  0.0000000E+00  0.1515152E-01  0.4012418E-09  0.0000000E+00 -0.1204100E-04
  0.3282828E+00  0.0000000E+00  0.1515152E-01  0.3841424E-09  0.0000000E+00 -0.1204074E-04
  0.3383838E+00  0.0000000E+00  0.1515152E-01  0.3651690E-09  0.0000000E+00 -0.1204049E-04
  0.3484848E+00  0.0000000E+00  0.1515152E-01  0.3444007E-09  0.0000000E+00 -0.1204025E-04
  0.3585859E+00  0.0000000E+00  0.1515152E-01  0.3219258E-09  0.0000000E+00 -0.1204003E-04
  0.3686869E+00  0.0000000E+00  0.1515152E-01  0.2978422E-09  0.0000000E+00 -0.1203982E-04
  0.3787879E+00  0.0000000E+00  0.1515152E-01  0.2722561E-09  0.0000000E+00 -0.1203962E-04
  0.3888889E+00  0.0000000E+00  0.1515152E-01  0.2452821E-09  0.0000000E+00 -0.1203945E-04
  0.3989899E+00  0.0000000E+00  0.1515152E-01  0.2170424E-09  0.0000000E+00 -0.1203929E-04
  0.4090909E+00  0.0000000E+00  0.1515152E-01  0.1876659E-09  0.0000000E+00 -0.1203916E-04
  0.4191919E+00  0.0000000E+00  0.1515152E-01  0.1572876E-09  0.0000000E+00 -0.1203904E-04
  0.4292929E+00  0.0000000E+00  0.1515152E-01  0.1260480E-09  0.0000000E+00 -0.1203895E-04
  0.4393939E+00  0.0000000E+00  0.1515152E-01  0.9409177E-10  0.0000000E+00 -0.1203887E-04
  0.4494950E+00  0.0000000E+00  0.1515152E-01  0.6156721E-10  0.0000000E+00 -0.1203882E-04
  0.4595959E+00  0.0000000E+00  0.1515152E-01  0.2862524E-10  0.0000000E+00 -0.1203879E-04
  0.4696970E+00  0.0000000E+00  0.1515152E-01 -0.4582267E-11  0.0000000E+00 -0.1203878E-04
  0.4797980E+00  0.0000000E+00  0.1515152E-01 -0.3790087E-10  0.0000000E+00 -0.1203880E-04
  0.4898990E+00  0.0000000E+00  0.1515152E-01 -0.7118025E-10  0.0000000E+00 -0.1203883E-04
  0.5000000E+00  0.0000000E+00  0.1515152E-01 -0.1042606E-09  0.0000000E+00 -0.1203889E-04
  0.5101010E+00  0.0000000E+00  0.1515152E-01 -0.1369970E-09  0.0000000E+00 -0.1203897E-04
  0.5202020E+00  0.0000000E+00  0.1515152E-01 -0.1692374E-09  0.0000000E+00 -0.1203908E-04
  0.5303030E+00  0.0000000E+00  0.1515152E-01 -0.2008481E-09  0.0000000E+00 -0.1203920E-04
  0.5404040E+00  0.0000000E+00  0.1515152E-01 -0.2316766E-09  0.0000000E+00 -0.1203935E-04
  0.5505050E+00  0.0000000E+00  0.1515152E-01 -0.2615977E-09  0.0000000E+00 -0.1203951E-04
  0.5606061E+00  0.0000000E+00  0.1515152E-01 -0.2904791E-09  0.0000000E+00 -0.1203970E-04
  0.5707071E+00  0.0000000E+00  0.1515152E-01 -0.3181983E-09  0.0000000E+00 -0.1203990E-04
  0.5808081E+00  0.0000000E+00  0.1515152E-01 -0.3446428E-09  0.0000000E+00 -0.1204013E-04
  0.5909091E+00  0.0000000E+00  0.1515152E-01 -0.3697042E-09  0.0000000E+00 -0.1204037E-04
  0.6010101E+00  0.0000000E+00  0.1515152E-01 -0.3932838E-09  0.0000000E+00 -0.1204062E-04
  0.6111111E+00  0.0000000E+00  0.1515152E-01 -0.4152917E-09  0.0000000E+00 -0.1204090E-04
  0.6212121E+00  0.0000000E+00  0.1515152E-01 -0.4356462E-09  0.0000000E+00 -0.1204118E-04
  0.6313131E+00  0.0000000E+00  0.1515152E-01 -0.4542750E-09  0.0000000E+00 -0.1204148E-04
  0.6414142E+00  0.0000000E+00  0.1515152E-01 -0.4711150E-09  0.0000000E+00 -0.1204179E-04
  0.6515151E+00  0.0000000E+00  0.1515152E-01 -0.4861124E-09  0.0000000E+00 -0.1204212E-04
  0.6616161E+00  0.0000000E+00  0.1515152E-01 -0.4992227E-09  0.0000000E+00 -0.1204245E-04
  0.6717172E+00  0.0000000E+00  0.1515152E-01 -0.5104107E-09  0.0000000E+00 -0.1204279E-04
  0.6818182E+00  0.0000000E+00  0.1515152E-01 -0.5196506E-09  0.0000000E+00 -0.1204313E-04
  0.6919192E+00  0.0000000E+00  0.1515152E-01 -0.5269254E-09  0.0000000E+00 -0.1204349E-04
  0.7020202E+00  0.0000000E+00  0.1515152E-01 -0.5322269E-09  0.0000000E+00 -0.1204384E-04
  0.7121212E+00  0.0000000E+00  0.1515152E-01 -0.5355555E-09  0.0000000E+00 -0.1204420E-04
  0.7222222E+00  0.0000000E+00  0.1515152E-01 -0.5369197E-09  0.0000000E+00 -0.1204456E-04
  0.7323232E+00  0.0000000E+00  0.1515152E-01 -0.5363359E-09  0.0000000E+00 -0.1204492E-04
  0.7424242E+00  0.0000000E+00  0.1515152E-01 -0.5338279E-09  0.0000000E+00 -0.1204528E-04
  0.7525253E+00  0.0000000E+00  0.1515152E-01 -0.5294264E-09  0.0000000E+00 -0.1204564E-04
  0.7626263E+00  0.0000000E+00  0.1515152E-01 -0.5231687E-09  0.0000000E+00 -0.1204599E-04
  0.7727273E+00  0.0000000E+00  0.1515152E-01 -0.5150983E-09  0.0000000E+00 -0.1204634E-04
  0.7828283E+00  0.0000000E+00  0.1515152E-01 -0.5052641E-09  0.0000000E+00 -0.1204669E-04
  0.7929293E+00  0.0000000E+00  0.1515152E-01 -0.4937203E-09  0.0000000E+00 -0.1204702E-04
  0.8030303E+00  0.0000000E+00  0.1515152E-01 -0.4805257E-09  0.0000000E+00 -0.1204735E-04
  0.8131313E+00  0.0000000E+00  0.1515152E-01 -0.4657434E-09  0.0000000E+00 -0.1204767E-04
  0.8232324E+00  0.0000000E+00  0.1515152E-01 -0.4494401E-09  0.0000000E+00 -0.1204798E-04
  0.8333333E+00  0.0000000E+00  0.1515152E-01 -0.4316860E-09  0.0000000E+00 -0.1204827E-04
  0.8434343E+00  0.0000000E+00  0.1515152E-01 -0.4125540E-09  0.0000000E+00 -0.1204856E-04
  0.8535354E+00  0.0000000E+00  0.1515152E-01 -0.3921197E-09  0.0000000E+00 -0.1204883E-04
  0.8636364E+00  0.0000000E+00  0.1515152E-01 -0.3704609E-09  0.0000000E+00 -0.1204908E-04
  0.8737374E+00  0.0000000E+00  0.1515152E-01 -0.3476571E-09  0.0000000E+00 -0.1204933E-04
  0.8838384E+00  0.0000000E+00  0.1515152E-01 -0.3237893E-09  0.0000000E+00 -0.1204955E-04
  0.8939394E+00  0.0000000E+00  0.1515152E-01 -0.2989398E-09  0.0000000E+00 -0.1204976E-04
  0.9040404E+00  0.0000000E+00  0.1515152E-01 -0.2731920E-09  0.0000000E+00 -0.1204995E-04
  0.9141414E+00  0.0000000E+00  0.1515152E-01 -0.2466300E-09  0.0000000E+00 -0.1205013E-04
  0.9242424E+00  0.0000000E+00  0.1515152E-01 -0.2193384E-09  0.0000000E+00 -0.1205029E-04
  0.9343435E+00  0.0000000E+00  0.1515152E-01 -0.1914027E-09  0.0000000E+00 -0.1205042E-04
  0.9444444E+00  0.0000000E+00  0.1515152E-01 -0.1629083E-09  0.0000000E+00 -0.1205054E-04
  0.9545454E+00  0.0000000E+00  0.1515152E-01 -0.1339414E-09  0.0000000E+00 -0.1205064E-04
  0.9646465E+00  0.0000000E+00  0.1515152E-01 -0.1045884E-09  0.0000000E+00 -0.1205072E-04
  0.9747475E+00  0.0000000E+00  0.1515152E-01 -0.7493604E-10  0.0000000E+00 -0.1205078E-04
  0.9848485E+00  0.0000000E+00  0.1515152E-01 -0.4507285E-10  0.0000000E+00 -0.1205082E-04
  0.9974747E+00  0.0000000E+00  0.1515152E-01 -0.1509075E-10  0.0000000E+00 -0.1205084E-04
  0.5050505E-02  0.0000000E+00  0.2525252E-01  0.2528432E-10  0.0000000E+00 -0.1201172E-04
  0.1515152E-01  0.0000000E+00  0.2525252E-01  0.7592200E-10  0.0000000E+00 -0.1201170E-04
  0.2525252E-01  0.0000000E+00  0.2525252E-01  0.1262888E-09  0.0000000E+00 -0.1201166E-04
  0.3535353E-01  0.0000000E+00  0.2525252E-01  0.1761161E-09  0.0000000E+00 -0.1201160E-04
  0.4545455E-01  0.0000000E+00  0.2525252E-01  0.2252115E-09  0.0000000E+00 -0.1201152E-04
  0.5555556E-01  0.0000000E+00  0.2525252E-01  0.2733928E-09  0.0000000E+00 -0.1201142E-04
  0.6565657E-01  0.0000000E+00  0.2525252E-01  0.3204434E-09  0.0000000E+00 -0.1201129E-04
  0.7575758E-01  0.0000000E+00  0.2525252E-01  0.3661775E-09  0.0000000E+00 -0.1201115E-04
  0.8585858E-01  0.0000000E+00  0.2525252E-01  0.4103982E-09  0.0000000E+00 -0.1201099E-04
  0.9595960E-01  0.0000000E+00  0.2525252E-01  0.4529138E-09  0.0000000E+00 -0.1201082E-04
  0.1060606E+00  0.0000000E+00  0.2525252E-01  0.4935424E-09  0.0000000E+00 -0.1201062E-04
  0.1161616E+00  0.0000000E+00  0.2525252E-01  0.5321027E-09  0.0000000E+00 -0.1201041E-04
  0.1262626E+00  0.0000000E+00  0.2525252E-01  0.5684213E-09  0.0000000E+00 -0.1201019E-04
  0.1363636E+00  0.0000000E+00  0.2525252E-01  0.6023318E-09  0.0000000E+00 -0.1200995E-04
  0.1464646E+00  0.0000000E+00  0.2525252E-01  0.6336751E-09  0.0000000E+00 -0.1200969E-04
  0.1565657E+00  0.0000000E+00  0.2525252E-01  0.6623004E-09  0.0000000E+00 -0.1200943E-04
  0.1666667E+00  0.0000000E+00  0.2525252E-01  0.6880665E-09  0.0000000E+00 -0.1200915E-04
  0.1767677E+00  0.0000000E+00  0.2525252E-01  0.7108421E-09  0.0000000E+00 -0.1200886E-04
  0.1868687E+00  0.0000000E+00  0.2525252E-01  0.7305068E-09  0.0000000E+00 -0.1200857E-04
  0.1969697E+00  0.0000000E+00  0.2525252E-01  0.7469519E-09  0.0000000E+00 -0.1200826E-04
  0.2070707E+00  0.0000000E+00  0.2525252E-01  0.7600812E-09  0.0000000E+00 -0.1200796E-04
  0.2171717E+00  0.0000000E+00  0.2525252E-01  0.7698121E-09  0.0000000E+00 -0.1200764E-04
  0.2272727E+00  0.0000000E+00  0.2525252E-01  0.7760759E-09  0.0000000E+00 -0.1200732E-04
  0.2373737E+00  0.0000000E+00  0.2525252E-01  0.7788186E-09  0.0000000E+00 -0.1200701E-04
  0.2474747E+00  0.0000000E+00  0.2525252E-01  0.7780018E-09  0.0000000E+00 -0.1200669E-04
  0.2575758E+00  0.0000000E+00  0.2525252E-01  0.7736030E-09  0.0000000E+00 -0.1200637E-04
  0.2676768E+00  0.0000000E+00  0.2525252E-01  0.7656166E-09  0.0000000E+00 -0.1200605E-04
  0.2777778E+00  0.0000000E+00  0.2525252E-01  0.7540534E-09  0.0000000E+00 -0.1200574E-04
  0.2878788E+00  0.0000000E+00  0.2525252E-01  0.7389421E-09  0.0000000E+00 -0.1200543E-04
  0.2979798E+00  0.0000000E+00  0.2525252E-01  0.7203283E-09  0.0000000E+00 -0.1200513E-04
  0.3080808E+00  0.0000000E+00  0.2525252E-01  0.6982757E-09  0.0000000E+00 -0.1200484E-04
  0.3181818E+00  0.0000000E+00  0.2525252E-01  0.6728653E-09  0.0000000E+00 -0.1200456E-04
  0.3282828E+00  0.0000000E+00  0.2525252E-01  0.6441956E-09  0.0000000E+00 -0.1200429E-04
  0.3383838E+00  0.0000000E+00  0.2525252E-01  0.6123821E-09  0.0000000E+00 -0.1200403E-04
  0.3484848E+00  0.0000000E+00  0.2525252E-01  0.5775572E-09  0.0000000E+00 -0.1200379E-04
  0.3585859E+00  0.0000000E+00  0.2525252E-01  0.5398693E-09  0.0000000E+00 -0.1200356E-04
  0.3686869E+00  0.0000000E+00  0.2525252E-01  0.4994823E-09  0.0000000E+00 -0.1200335E-04
  0.3787879E+00  0.0000000E+00  0.2525252E-01  0.4565747E-09  0.0000000E+00 -0.1200315E-04
  0.3888889E+00  0.0000000E+00  0.2525252E-01  0.4113389E-09  0.0000000E+00 -0.1200297E-04
  0.3989899E+00  0.0000000E+00  0.2525252E-01  0.3639797E-09  0.0000000E+00 -0.1200281E-04
  0.4090909E+00  0.0000000E+00  0.2525252E-01  0.3147136E-09  0.0000000E+00 -0.1200267E-04
  0.4191919E+00  0.0000000E+00  0.2525252E-01  0.2637671E-09  0.0000000E+00 -0.1200255E-04
  0.4292929E+00  0.0000000E+00  0.2525252E-01  0.2113762E-09  0.0000000E+00 -0.1200246E-04
  0.4393939E+00  0.0000000E+00  0.2525252E-01  0.1577839E-09  0.0000000E+00 -0.1200238E-04
  0.4494950E+00  0.0000000E+00  0.2525252E-01  0.1032390E-09  0.0000000E+00 -0.1200233E-04
  0.4595959E+00  0.0000000E+00  0.2525252E-01  0.4799430E-10  0.0000000E+00 -0.1200230E-04
  0.4696970E+00  0.0000000E+00  0.2525252E-01 -0.7695054E-11  0.0000000E+00 -0.1200229E-04
  0.4797980E+00  0.0000000E+00  0.2525252E-01 -0.6356855E-10  0.0000000E+00 -0.1200230E-04
  0.4898990E+00  0.0000000E+00  0.2525252E-01 -0.1193743E-09  0.0000000E+00 -0.1200234E-04
  0.5000000E+00  0.0000000E+00  0.2525252E-01 -0.1748447E-09  0.0000000E+00 -0.1200240E-04
  0.5101010E+00  0.0000000E+00  0.2525252E-01 -0.2297392E-09  0.0000000E+00 -0.1200248E-04
  0.5202020E+00  0.0000000E+00  0.2525252E-01 -0.2837980E-09  0.0000000E+00 -0.1200259E-04
  0.5303030E+00  0.0000000E+00  0.2525252E-01 -0.3367976E-09  0.0000000E+00 -0.1200272E-04
  0.5404040E+00  0.0000000E+00  0.2525252E-01 -0.3884855E-09  0.0000000E+00 -0.1200287E-04
  0.5505050E+00  0.0000000E+00  0.2525252E-01 -0.4386472E-09  0.0000000E+00 -0.1200303E-04
  0.5606061E+00  0.0000000E+00  0.2525252E-01 -0.4870640E-09  0.0000000E+00 -0.1200322E-04
  0.5707071E+00  0.0000000E+00  0.2525252E-01 -0.5335295E-09  0.0000000E+00 -0.1200343E-04
  0.5808081E+00  0.0000000E+00  0.2525252E-01 -0.5778545E-09  0.0000000E+00 -0.1200366E-04
  0.5909091E+00  0.0000000E+00  0.2525252E-01 -0.6198580E-09  0.0000000E+00 -0.1200391E-04
  0.6010101E+00  0.0000000E+00  0.2525252E-01 -0.6593746E-09  0.0000000E+00 -0.1200417E-04
  0.6111111E+00  0.0000000E+00  0.2525252E-01 -0.6962533E-09  0.0000000E+00 -0.1200445E-04
  0.6212121E+00  0.0000000E+00  0.2525252E-01 -0.7303576E-09  0.0000000E+00 -0.1200474E-04
  0.6313131E+00  0.0000000E+00  0.2525252E-01 -0.7615663E-09  0.0000000E+00 -0.1200505E-04
  0.6414142E+00  0.0000000E+00  0.2525252E-01 -0.7897739E-09  0.0000000E+00 -0.1200537E-04
  0.6515151E+00  0.0000000E+00  0.2525252E-01 -0.8148904E-09  0.0000000E+00 -0.1200569E-04
  0.6616161E+00  0.0000000E+00  0.2525252E-01 -0.8368416E-09  0.0000000E+00 -0.1200603E-04
  0.6717172E+00  0.0000000E+00  0.2525252E-01 -0.8555689E-09  0.0000000E+00 -0.1200638E-04
  0.6818182E+00  0.0000000E+00  0.2525252E-01 -0.8710291E-09  0.0000000E+00 -0.1200673E-04
  0.6919192E+00  0.0000000E+00  0.2525252E-01 -0.8831943E-09  0.0000000E+00 -0.1200709E-04
  0.7020202E+00  0.0000000E+00  0.2525252E-01 -0.8920512E-09  0.0000000E+00 -0.1200746E-04
  0.7121212E+00  0.0000000E+00  0.2525252E-01 -0.8976007E-09  0.0000000E+00 -0.1200782E-04
  0.7222222E+00  0.0000000E+00  0.2525252E-01 -0.8998576E-09  0.0000000E+00 -0.1200819E-04
  0.7323232E+00  0.0000000E+00  0.2525252E-01 -0.8988496E-09  0.0000000E+00 -0.1200856E-04
  0.7424242E+00  0.0000000E+00  0.2525252E-01 -0.8946171E-09  0.0000000E+00 -0.1200893E-04
  0.7525253E+00  0.0000000E+00  0.2525252E-01 -0.8872119E-09  0.0000000E+00 -0.1200929E-04
  0.7626263E+00  0.0000000E+00  0.2525252E-01 -0.8766971E-09  0.0000000E+00 -0.1200965E-04
  0.7727273E+00  0.0000000E+00  0.2525252E-01 -0.8631456E-09  0.0000000E+00 -0.1201001E-04
  0.7828283E+00  0.0000000E+00  0.2525252E-01 -0.8466399E-09  0.0000000E+00 -0.1201036E-04
  0.7929293E+00  0.0000000E+00  0.2525252E-01 -0.8272713E-09  0.0000000E+00 -0.1201070E-04
  0.8030303E+00  0.0000000E+00  0.2525252E-01 -0.8051384E-09  0.0000000E+00 -0.1201104E-04
  0.8131313E+00  0.0000000E+00  0.2525252E-01 -0.7803472E-09  0.0000000E+00 -0.1201136E-04
  0.8232324E+00  0.0000000E+00  0.2525252E-01 -0.7530099E-09  0.0000000E+00 -0.1201168E-04
  0.8333333E+00  0.0000000E+00  0.2525252E-01 -0.7232441E-09  0.0000000E+00 -0.1201198E-04
  0.8434343E+00  0.0000000E+00  0.2525252E-01 -0.6911723E-09  0.0000000E+00 -0.1201227E-04
  0.8535354E+00  0.0000000E+00  0.2525252E-01 -0.6569213E-09  0.0000000E+00 -0.1201254E-04
  0.8636364E+00  0.0000000E+00  0.2525252E-01 -0.6206212E-09  0.0000000E+00 -0.1201281E-04
  0.8737374E+00  0.0000000E+00  0.2525252E-01 -0.5824055E-09  0.0000000E+00 -0.1201305E-04
  0.8838384E+00  0.0000000E+00  0.2525252E-01 -0.5424100E-09  0.0000000E+00 -0.1201328E-04
  0.8939394E+00  0.0000000E+00  0.2525252E-01 -0.5007724E-09  0.0000000E+00 -0.1201350E-04
  0.9040404E+00  0.0000000E+00  0.2525252E-01 -0.4576322E-09  0.0000000E+00 -0.1201369E-04
  0.9141414E+00  0.0000000E+00  0.2525252E-01 -0.4131304E-09  0.0000000E+00 -0.1201387E-04
  0.9242424E+00  0.0000000E+00  0.2525252E-01 -0.3674087E-09  0.0000000E+00 -0.1201403E-04
  0.9343435E+00  0.0000000E+00  0.2525252E-01 -0.3206096E-09  0.0000000E+00 -0.1201417E-04
  0.9444444E+00  0.0000000E+00  0.2525252E-01 -0.2728765E-09  0.0000000E+00 -0.1201429E-04
  0.9545454E+00  0.0000000E+00  0.2525252E-01 -0.2243528E-09  0.0000000E+00 -0.1201439E-04
  0.9646465E+00  0.0000000E+00  0.2525252E-01 -0.1751830E-09  0.0000000E+00 -0.1201448E-04
  0.9747475E+00  0.0000000E+00  0.2525252E-01 -0.1255114E-09  0.0000000E+00 -0.1201454E-04
  0.9848485E+00  0.0000000E+00  0.2525252E-01 -0.7548285E-10  0.0000000E+00 -0.1201458E-04
  0.9974747E+00  0.0000000E+00  0.2525252E-01 -0.2524422E-10  0.0000000E+00 -0.1201460E-04
  0.5050505E-02  0.0000000E+00  0.3535353E-01  0.3575180E-10  0.0000000E+00 -0.1195745E-04
  0.1515152E-01  0.0000000E+00  0.3535353E-01  0.1073001E-09  0.0000000E+00 -0.1195743E-04
  0.2525252E-01  0.0000000E+00  0.3535353E-01  0.1784608E-09  0.0000000E+00 -0.1195738E-04
  0.3535353E-01  0.0000000E+00  0.3535353E-01  0.2488677E-09  0.0000000E+00 -0.1195732E-04
  0.4545455E-01  0.0000000E+00  0.3535353E-01  0.3182436E-09  0.0000000E+00 -0.1195724E-04
  0.5555556E-01  0.0000000E+00  0.3535353E-01  0.3863280E-09  0.0000000E+00 -0.1195713E-04
  0.6565657E-01  0.0000000E+00  0.3535353E-01  0.4528200E-09  0.0000000E+00 -0.1195700E-04
  0.7575758E-01  0.0000000E+00  0.3535353E-01  0.5174526E-09  0.0000000E+00 -0.1195686E-04
  0.8585858E-01  0.0000000E+00  0.3535353E-01  0.5799494E-09  0.0000000E+00 -0.1195669E-04
  0.9595960E-01  0.0000000E+00  0.3535353E-01  0.6400403E-09  0.0000000E+00 -0.1195651E-04
  0.1060606E+00  0.0000000E+00  0.3535353E-01  0.6974669E-09  0.0000000E+00 -0.1195631E-04
  0.1161616E+00  0.0000000E+00  0.3535353E-01  0.7519738E-09  0.0000000E+00 -0.1195609E-04
  0.1262626E+00  0.0000000E+00  0.3535353E-01  0.8033157E-09  0.0000000E+00 -0.1195586E-04
  0.1363636E+00  0.0000000E+00  0.3535353E-01  0.8512574E-09  0.0000000E+00 -0.1195561E-04
  0.1464646E+00  0.0000000E+00  0.3535353E-01  0.8955737E-09  0.0000000E+00 -0.1195535E-04
  0.1565657E+00  0.0000000E+00  0.3535353E-01  0.9360513E-09  0.0000000E+00 -0.1195508E-04
  0.1666667E+00  0.0000000E+00  0.3535353E-01  0.9724903E-09  0.0000000E+00 -0.1195479E-04
  0.1767677E+00  0.0000000E+00  0.3535353E-01  0.1004705E-08  0.0000000E+00 -0.1195450E-04
  0.1868687E+00  0.0000000E+00  0.3535353E-01  0.1032524E-08  0.0000000E+00 -0.1195419E-04
  0.1969697E+00  0.0000000E+00  0.3535353E-01  0.1055794E-08  0.0000000E+00 -0.1195388E-04
  0.2070707E+00  0.0000000E+00  0.3535353E-01  0.1074378E-08  0.0000000E+00 -0.1195356E-04
  0.2171717E+00  0.0000000E+00  0.3535353E-01  0.1088159E-08  0.0000000E+00 -0.1195323E-04
  0.2272727E+00  0.0000000E+00  0.3535353E-01  0.1097040E-08  0.0000000E+00 -0.1195291E-04
  0.2373737E+00  0.0000000E+00  0.3535353E-01  0.1100942E-08  0.0000000E+00 -0.1195258E-04
  0.2474747E+00  0.0000000E+00  0.3535353E-01  0.1099813E-08  0.0000000E+00 -0.1195225E-04
  0.2575758E+00  0.0000000E+00  0.3535353E-01  0.1093619E-08  0.0000000E+00 -0.1195192E-04
  0.2676768E+00  0.0000000E+00  0.3535353E-01  0.1082351E-08  0.0000000E+00 -0.1195159E-04
  0.2777778E+00  0.0000000E+00  0.3535353E-01  0.1066026E-08  0.0000000E+00 -0.1195127E-04
  0.2878788E+00  0.0000000E+00  0.3535353E-01  0.1044682E-08  0.0000000E+00 -0.1195095E-04
  0.2979798E+00  0.0000000E+00  0.3535353E-01  0.1018384E-08  0.0000000E+00 -0.1195064E-04