title = "dataset water"
variables = "x", "y", "z", "vx", "vy", "vz"
zone t = "velocities, solution time =  5.400E+01 days        " i =   99, j =   99, k =    1,  f=point
  0.5050505E-02  0.0000000E+00  0.5050505E-02  0.1474409E-07  0.0000000E+00  0.3634929E-04
  0.1515152E-01  0.0000000E+00  0.5050505E-02  0.4413355E-07  0.0000000E+00  0.3640860E-04
  0.2525252E-01  0.0000000E+00  0.5050505E-02  0.7322535E-07  0.0000000E+00  0.3652683E-04
  0.3535353E-01  0.0000000E+00  0.5050505E-02  0.1018155E-06  0.0000000E+00  0.3670317E-04
  0.4545455E-01  0.0000000E+00  0.5050505E-02  0.1296912E-06  0.0000000E+00  0.3693640E-04
  0.5555556E-01  0.0000000E+00  0.5050505E-02  0.1566261E-06  0.0000000E+00  0.3722485E-04
  0.6565657E-01  0.0000000E+00  0.5050505E-02  0.1823749E-06  0.0000000E+00  0.3756640E-04
  0.7575758E-01  0.0000000E+00  0.5050505E-02  0.2066671E-06  0.0000000E+00  0.3795837E-04
  0.8585858E-01  0.0000000E+00  0.5050505E-02  0.2291985E-06  0.0000000E+00  0.3839755E-04
  0.9595960E-01  0.0000000E+00  0.5050505E-02  0.2496217E-06  0.0000000E+00  0.3888003E-04
  0.1060606E+00  0.0000000E+00  0.5050505E-02  0.2675349E-06  0.0000000E+00  0.3940117E-04
  0.1161616E+00  0.0000000E+00  0.5050505E-02  0.2824699E-06  0.0000000E+00  0.3995545E-04
  0.1262626E+00  0.0000000E+00  0.5050505E-02  0.2938820E-06  0.0000000E+00  0.4053632E-04
  0.1363636E+00  0.0000000E+00  0.5050505E-02  0.3011452E-06  0.0000000E+00  0.4113605E-04
  0.1464646E+00  0.0000000E+00  0.5050505E-02  0.3035599E-06  0.0000000E+00  0.4174558E-04
  0.1565657E+00  0.0000000E+00  0.5050505E-02  0.3003841E-06  0.0000000E+00  0.4235439E-04
  0.1666667E+00  0.0000000E+00  0.5050505E-02  0.2909012E-06  0.0000000E+00  0.4295049E-04
  0.1767677E+00  0.0000000E+00  0.5050505E-02  0.2745380E-06  0.0000000E+00  0.4352056E-04
  0.1868687E+00  0.0000000E+00  0.5050505E-02  0.2510365E-06  0.0000000E+00  0.4405049E-04
  0.1969697E+00  0.0000000E+00  0.5050505E-02  0.2206622E-06  0.0000000E+00  0.4452612E-04
  0.2070707E+00  0.0000000E+00  0.5050505E-02  0.1843918E-06  0.0000000E+00  0.4493458E-04
  0.2171717E+00  0.0000000E+00  0.5050505E-02  0.1439827E-06  0.0000000E+00  0.4526572E-04
  0.2272727E+00  0.0000000E+00  0.5050505E-02  0.1018189E-06  0.0000000E+00  0.4551361E-04
  0.2373737E+00  0.0000000E+00  0.5050505E-02  0.6050556E-07  0.0000000E+00  0.4567732E-04
  0.2474747E+00  0.0000000E+00  0.5050505E-02  0.2234744E-07  0.0000000E+00  0.4576088E-04
  0.2575758E+00  0.0000000E+00  0.5050505E-02 -0.1104373E-07  0.0000000E+00  0.4577228E-04
  0.2676768E+00  0.0000000E+00  0.5050505E-02 -0.3887975E-07  0.0000000E+00  0.4572193E-04
  0.2777778E+00  0.0000000E+00  0.5050505E-02 -0.6109688E-07  0.0000000E+00  0.4562110E-04
  0.2878788E+00  0.0000000E+00  0.5050505E-02 -0.7813654E-07  0.0000000E+00  0.4548068E-04
  0.2979798E+00  0.0000000E+00  0.5050505E-02 -0.9070967E-07  0.0000000E+00  0.4531040E-04
  0.3080808E+00  0.0000000E+00  0.5050505E-02 -0.9960461E-07  0.0000000E+00  0.4511847E-04
  0.3181818E+00  0.0000000E+00  0.5050505E-02 -0.1055587E-06  0.0000000E+00  0.4491158E-04
  0.3282828E+00  0.0000000E+00  0.5050505E-02 -0.1091898E-06  0.0000000E+00  0.4469502E-04
  0.3383838E+00  0.0000000E+00  0.5050505E-02 -0.1109737E-06  0.0000000E+00  0.4447301E-04
  0.3484848E+00  0.0000000E+00  0.5050505E-02 -0.1112521E-06  0.0000000E+00  0.4424892E-04
  0.3585859E+00  0.0000000E+00  0.5050505E-02 -0.1102591E-06  0.0000000E+00  0.4402557E-04
  0.3686869E+00  0.0000000E+00  0.5050505E-02 -0.1081537E-06  0.0000000E+00  0.4380534E-04
  0.3787879E+00  0.0000000E+00  0.5050505E-02 -0.1050538E-06  0.0000000E+00  0.4359036E-04
  0.3888889E+00  0.0000000E+00  0.5050505E-02 -0.1010642E-06  0.0000000E+00  0.4338254E-04
  0.3989899E+00  0.0000000E+00  0.5050505E-02 -0.9629800E-07  0.0000000E+00  0.4318356E-04
  0.4090909E+00  0.0000000E+00  0.5050505E-02 -0.9089003E-07  0.0000000E+00  0.4299483E-04
  0.4191919E+00  0.0000000E+00  0.5050505E-02 -0.8500242E-07  0.0000000E+00  0.4281750E-04
  0.4292929E+00  0.0000000E+00  0.5050505E-02 -0.7882508E-07  0.0000000E+00  0.4265233E-04
  0.4393939E+00  0.0000000E+00  0.5050505E-02 -0.7257203E-07  0.0000000E+00  0.4249970E-04
  0.4494950E+00  0.0000000E+00  0.5050505E-02 -0.6647579E-07  0.0000000E+00  0.4235952E-04
  0.4595959E+00  0.0000000E+00  0.5050505E-02 -0.6078079E-07  0.0000000E+00  0.4223123E-04
  0.4696970E+00  0.0000000E+00  0.5050505E-02 -0.5573712E-07  0.0000000E+00  0.4211377E-04
  0.4797980E+00  0.0000000E+00  0.5050505E-02 -0.5159496E-07  0.0000000E+00  0.4200557E-04
  0.4898990E+00  0.0000000E+00  0.5050505E-02 -0.4860014E-07  0.0000000E+00  0.4190457E-04
  0.5000000E+00  0.0000000E+00  0.5050505E-02 -0.4699118E-07  0.0000000E+00  0.4180820E-04
  0.5101010E+00  0.0000000E+00  0.5050505E-02 -0.4699794E-07  0.0000000E+00  0.4171346E-04
  0.5202020E+00  0.0000000E+00  0.5050505E-02 -0.4884246E-07  0.0000000E+00  0.4161685E-04
  0.5303030E+00  0.0000000E+00  0.5050505E-02 -0.5274232E-07  0.0000000E+00  0.4151445E-04
  0.5404040E+00  0.0000000E+00  0.5050505E-02 -0.5891722E-07  0.0000000E+00  0.4140189E-04
  0.5505050E+00  0.0000000E+00  0.5050505E-02 -0.6759925E-07  0.0000000E+00  0.4127436E-04
  0.5606061E+00  0.0000000E+00  0.5050505E-02 -0.7904683E-07  0.0000000E+00  0.4112655E-04
  0.5707071E+00  0.0000000E+00  0.5050505E-02 -0.9356110E-07  0.0000000E+00  0.4095257E-04
  0.5808081E+00  0.0000000E+00  0.5050505E-02 -0.1115006E-06  0.0000000E+00  0.4074588E-04
  0.5909091E+00  0.0000000E+00  0.5050505E-02 -0.1332855E-06  0.0000000E+00  0.4049916E-04
  0.6010101E+00  0.0000000E+00  0.5050505E-02 -0.1593746E-06  0.0000000E+00  0.4020419E-04
  0.6111111E+00  0.0000000E+00  0.5050505E-02 -0.1901877E-06  0.0000000E+00  0.3985190E-04
  0.6212121E+00  0.0000000E+00  0.5050505E-02 -0.2259420E-06  0.0000000E+00  0.3943254E-04
  0.6313131E+00  0.0000000E+00  0.5050505E-02 -0.2663765E-06  0.0000000E+00  0.3893642E-04
  0.6414142E+00  0.0000000E+00  0.5050505E-02 -0.3103987E-06  0.0000000E+00  0.3835524E-04
  0.6515151E+00  0.0000000E+00  0.5050505E-02 -0.3558031E-06  0.0000000E+00  0.3768401E-04
  0.6616161E+00  0.0000000E+00  0.5050505E-02 -0.3993602E-06  0.0000000E+00  0.3692321E-04
  0.6717172E+00  0.0000000E+00  0.5050505E-02 -0.4375485E-06  0.0000000E+00  0.3608015E-04
  0.6818182E+00  0.0000000E+00  0.5050505E-02 -0.4676907E-06  0.0000000E+00  0.3516835E-04
  0.6919192E+00  0.0000000E+00  0.5050505E-02 -0.4885656E-06  0.0000000E+00  0.3420528E-04
  0.7020202E+00  0.0000000E+00  0.5050505E-02 -0.5003116E-06  0.0000000E+00  0.3320947E-04
  0.7121212E+00  0.0000000E+00  0.5050505E-02 -0.5039611E-06  0.0000000E+00  0.3219829E-04
  0.7222222E+00  0.0000000E+00  0.5050505E-02 -0.5009459E-06  0.0000000E+00  0.3118659E-04
  0.7323232E+00  0.0000000E+00  0.5050505E-02 -0.4927399E-06  0.0000000E+00  0.3018632E-04
  0.7424242E+00  0.0000000E+00  0.5050505E-02 -0.4806598E-06  0.0000000E+00  0.2920658E-04
  0.7525253E+00  0.0000000E+00  0.5050505E-02 -0.4657874E-06  0.0000000E+00  0.2825408E-04
  0.7626263E+00  0.0000000E+00  0.5050505E-02 -0.4489644E-06  0.0000000E+00  0.2733358E-04
  0.7727273E+00  0.0000000E+00  0.5050505E-02 -0.4308209E-06  0.0000000E+00  0.2644836E-04
  0.7828283E+00  0.0000000E+00  0.5050505E-02 -0.4118160E-06  0.0000000E+00  0.2560061E-04
  0.7929293E+00  0.0000000E+00  0.5050505E-02 -0.3922774E-06  0.0000000E+00  0.2479171E-04
  0.8030303E+00  0.0000000E+00  0.5050505E-02 -0.3724353E-06  0.0000000E+00  0.2402251E-04
  0.8131313E+00  0.0000000E+00  0.5050505E-02 -0.3524493E-06  0.0000000E+00  0.2329343E-04
  0.8232324E+00  0.0000000E+00  0.5050505E-02 -0.3324282E-06  0.0000000E+00  0.2260465E-04
  0.8333333E+00  0.0000000E+00  0.5050505E-02 -0.3124454E-06  0.0000000E+00  0.2195615E-04
  0.8434343E+00  0.0000000E+00  0.5050505E-02 -0.2925490E-06  0.0000000E+00  0.2134780E-04
  0.8535354E+00  0.0000000E+00  0.5050505E-02 -0.2727697E-06  0.0000000E+00  0.2077938E-04
  0.8636364E+00  0.0000000E+00  0.5050505E-02 -0.2531259E-06  0.0000000E+00  0.2025064E-04
  0.8737374E+00  0.0000000E+00  0.5050505E-02 -0.2336271E-06  0.0000000E+00  0.1976129E-04
  0.8838384E+00  0.0000000E+00  0.5050505E-02 -0.2142767E-06  0.0000000E+00  0.1931101E-04
  0.8939394E+00  0.0000000E+00  0.5050505E-02 -0.1950736E-06  0.0000000E+00  0.1889951E-04
  0.9040404E+00  0.0000000E+00  0.5050505E-02 -0.1760132E-06  0.0000000E+00  0.1852650E-04
  0.9141414E+00  0.0000000E+00  0.5050505E-02 -0.1570883E-06  0.0000000E+00  0.1819168E-04
  0.9242424E+00  0.0000000E+00  0.5050505E-02 -0.1382894E-06  0.0000000E+00  0.1789479E-04
  0.9343435E+00  0.0000000E+00  0.5050505E-02 -0.1196056E-06  0.0000000E+00  0.1763558E-04
  0.9444444E+00  0.0000000E+00  0.5050505E-02 -0.1010242E-06  0.0000000E+00  0.1741383E-04
  0.9545454E+00  0.0000000E+00  0.5050505E-02 -0.8253165E-07  0.0000000E+00  0.1722935E-04
  0.9646465E+00  0.0000000E+00  0.5050505E-02 -0.6411307E-07  0.0000000E+00  0.1708197E-04
  0.9747475E+00  0.0000000E+00  0.5050505E-02 -0.4575286E-07  0.0000000E+00  0.1697155E-04
  0.9848485E+00  0.0000000E+00  0.5050505E-02 -0.2743477E-07  0.0000000E+00  0.1689800E-04
  0.9974747E+00  0.0000000E+00  0.5050505E-02 -0.9142096E-08  0.0000000E+00  0.1686124E-04
  0.5050505E-02  0.0000000E+00  0.1515152E-01  0.4437750E-07  0.0000000E+00  0.3646995E-04
  0.1515152E-01  0.0000000E+00  0.1515152E-01  0.1328384E-06  0.0000000E+00  0.3653002E-04
  0.2525252E-01  0.0000000E+00  0.1515152E-01  0.2204122E-06  0.0000000E+00  0.3664978E-04
  0.3535353E-01  0.0000000E+00  0.1515152E-01  0.3064916E-06  0.0000000E+00  0.3682843E-04
  0.4545455E-01  0.0000000E+00  0.1515152E-01  0.3904425E-06  0.0000000E+00  0.3706477E-04
  0.5555556E-01  0.0000000E+00  0.1515152E-01  0.4715916E-06  0.0000000E+00  0.3735716E-04
  0.6565657E-01  0.0000000E+00  0.1515152E-01  0.5492101E-06  0.0000000E+00  0.3770352E-04
  0.7575758E-01  0.0000000E+00  0.1515152E-01  0.6224939E-06  0.0000000E+00  0.3810125E-04
  0.8585858E-01  0.0000000E+00  0.1515152E-01  0.6905398E-06  0.0000000E+00  0.3854717E-04
  0.9595960E-01  0.0000000E+00  0.1515152E-01  0.7523156E-06  0.0000000E+00  0.3903748E-04
  0.1060606E+00  0.0000000E+00  0.1515152E-01  0.8066257E-06  0.0000000E+00  0.3956765E-04
  0.1161616E+00  0.0000000E+00  0.1515152E-01  0.8520729E-06  0.0000000E+00  0.4013228E-04
  0.1262626E+00  0.0000000E+00  0.1515152E-01  0.8870233E-06  0.0000000E+00  0.4072494E-04
  0.1363636E+00  0.0000000E+00  0.1515152E-01  0.9095844E-06  0.0000000E+00  0.4133801E-04
  0.1464646E+00  0.0000000E+00  0.1515152E-01  0.9176179E-06  0.0000000E+00  0.4196249E-04
  0.1565657E+00  0.0000000E+00  0.1515152E-01  0.9088196E-06  0.0000000E+00  0.4258777E-04
  0.1666667E+00  0.0000000E+00  0.1515152E-01  0.8809106E-06  0.0000000E+00  0.4320159E-04
  0.1767677E+00  0.0000000E+00  0.1515152E-01  0.8319881E-06  0.0000000E+00  0.4379003E-04
  0.1868687E+00  0.0000000E+00  0.1515152E-01  0.7610622E-06  0.0000000E+00  0.4433795E-04
  0.1969697E+00  0.0000000E+00  0.1515152E-01  0.6687402E-06  0.0000000E+00  0.4482980E-04
  0.2070707E+00  0.0000000E+00  0.1515152E-01  0.5578909E-06  0.0000000E+00  0.4525101E-04
  0.2171717E+00  0.0000000E+00  0.1515152E-01  0.4339588E-06  0.0000000E+00  0.4558991E-04
  0.2272727E+00  0.0000000E+00  0.1515152E-01  0.3045273E-06  0.0000000E+00  0.4583962E-04
  0.2373737E+00  0.0000000E+00  0.1515152E-01  0.1779632E-06  0.0000000E+00  0.4599929E-04
  0.2474747E+00  0.0000000E+00  0.1515152E-01  0.6159820E-07  0.0000000E+00  0.4607402E-04
  0.2575758E+00  0.0000000E+00  0.1515152E-01 -0.3958516E-07  0.0000000E+00  0.4607345E-04
  0.2676768E+00  0.0000000E+00  0.1515152E-01 -0.1233159E-06  0.0000000E+00  0.4600971E-04
  0.2777778E+00  0.0000000E+00  0.1515152E-01 -0.1896245E-06  0.0000000E+00  0.4589546E-04
  0.2878788E+00  0.0000000E+00  0.1515152E-01 -0.2400799E-06  0.0000000E+00  0.4574252E-04
  0.2979798E+00  0.0000000E+00  0.1515152E-01 -0.2770184E-06  0.0000000E+00  0.4556109E-04
  0.3080808E+00  0.0000000E+00  0.1515152E-01 -0.3029452E-06  0.0000000E+00  0.4535950E-04
  0.3181818E+00  0.0000000E+00  0.1515152E-01 -0.3201512E-06  0.0000000E+00  0.4514433E-04
  0.3282828E+00  0.0000000E+00  0.1515152E-01 -0.3305202E-06  0.0000000E+00  0.4492066E-04
  0.3383838E+00  0.0000000E+00  0.1515152E-01 -0.3354765E-06  0.0000000E+00  0.4469244E-04
  0.3484848E+00  0.0000000E+00  0.1515152E-01 -0.3360230E-06  0.0000000E+00  0.4446284E-04
  0.3585859E+00  0.0000000E+00  0.1515152E-01 -0.3328294E-06  0.0000000E+00  0.4423447E-04
  0.3686869E+00  0.0000000E+00  0.1515152E-01 -0.3263402E-06  0.0000000E+00  0.4400963E-04
  0.3787879E+00  0.0000000E+00  0.1515152E-01 -0.3168795E-06  0.0000000E+00  0.4379040E-04
  0.3888889E+00  0.0000000E+00  0.1515152E-01 -0.3047402E-06  0.0000000E+00  0.4357868E-04
  0.3989899E+00  0.0000000E+00  0.1515152E-01 -0.2902480E-06  0.0000000E+00  0.4337618E-04
  0.4090909E+00  0.0000000E+00  0.1515152E-01 -0.2738006E-06  0.0000000E+00  0.4318440E-04
  0.4191919E+00  0.0000000E+00  0.1515152E-01 -0.2558842E-06  0.0000000E+00  0.4300453E-04
  0.4292929E+00  0.0000000E+00  0.1515152E-01 -0.2370723E-06  0.0000000E+00  0.4283739E-04
  0.4393939E+00  0.0000000E+00  0.1515152E-01 -0.2180131E-06  0.0000000E+00  0.4268341E-04
  0.4494950E+00  0.0000000E+00  0.1515152E-01 -0.1994110E-06  0.0000000E+00  0.4254254E-04
  0.4595959E+00  0.0000000E+00  0.1515152E-01 -0.1820062E-06  0.0000000E+00  0.4241423E-04
  0.4696970E+00  0.0000000E+00  0.1515152E-01 -0.1665549E-06  0.0000000E+00  0.4229742E-04
  0.4797980E+00  0.0000000E+00  0.1515152E-01 -0.1538122E-06  0.0000000E+00  0.4219054E-04
  0.4898990E+00  0.0000000E+00  0.1515152E-01 -0.1445188E-06  0.0000000E+00  0.4209152E-04
  0.5000000E+00  0.0000000E+00  0.1515152E-01 -0.1393913E-06  0.0000000E+00  0.4199776E-04
  0.5101010E+00  0.0000000E+00  0.1515152E-01 -0.1391180E-06  0.0000000E+00  0.4190622E-04
  0.5202020E+00  0.0000000E+00  0.1515152E-01 -0.1443611E-06  0.0000000E+00  0.4181340E-04
  0.5303030E+00  0.0000000E+00  0.1515152E-01 -0.1557659E-06  0.0000000E+00  0.4171536E-04
  0.5404040E+00  0.0000000E+00  0.1515152E-01 -0.1739806E-06  0.0000000E+00  0.4160775E-04
  0.5505050E+00  0.0000000E+00  0.1515152E-01 -0.1996874E-06  0.0000000E+00  0.4148578E-04
  0.5606061E+00  0.0000000E+00  0.1515152E-01 -0.2336461E-06  0.0000000E+00  0.4134418E-04
  0.5707071E+00  0.0000000E+00  0.1515152E-01 -0.2767480E-06  0.0000000E+00  0.4117718E-04
  0.5808081E+00  0.0000000E+00  0.1515152E-01 -0.3300698E-06  0.0000000E+00  0.4097832E-04
  0.5909091E+00  0.0000000E+00  0.1515152E-01 -0.3949043E-06  0.0000000E+00  0.4074034E-04
  0.6010101E+00  0.0000000E+00  0.1515152E-01 -0.4727176E-06  0.0000000E+00  0.4045495E-04
  0.6111111E+00  0.0000000E+00  0.1515152E-01 -0.5649512E-06  0.0000000E+00  0.4011273E-04
  0.6212121E+00  0.0000000E+00  0.1515152E-01 -0.6725486E-06  0.0000000E+00  0.3970313E-04
  0.6313131E+00  0.0000000E+00  0.1515152E-01 -0.7950948E-06  0.0000000E+00  0.3921496E-04
  0.6414142E+00  0.0000000E+00  0.1515152E-01 -0.9295964E-06  0.0000000E+00  0.3863778E-04
  0.6515151E+00  0.0000000E+00  0.1515152E-01 -0.1069331E-05  0.0000000E+00  0.3796429E-04
  0.6616161E+00  0.0000000E+00  0.1515152E-01 -0.1203845E-05  0.0000000E+00  0.3719357E-04
  0.6717172E+00  0.0000000E+00  0.1515152E-01 -0.1321393E-05  0.0000000E+00  0.3633349E-04
  0.6818182E+00  0.0000000E+00  0.1515152E-01 -0.1413294E-05  0.0000000E+00  0.3540000E-04
  0.6919192E+00  0.0000000E+00  0.1515152E-01 -0.1475959E-05  0.0000000E+00  0.3441358E-04
  0.7020202E+00  0.0000000E+00  0.1515152E-01 -0.1510267E-05  0.0000000E+00  0.3339524E-04
  0.7121212E+00  0.0000000E+00  0.1515152E-01 -0.1519818E-05  0.0000000E+00  0.3236382E-04
  0.7222222E+00  0.0000000E+00  0.1515152E-01 -0.1509282E-05  0.0000000E+00  0.3133481E-04
  0.7323232E+00  0.0000000E+00  0.1515152E-01 -0.1483295E-05  0.0000000E+00  0.3032013E-04
  0.7424242E+00  0.0000000E+00  0.1515152E-01 -0.1445901E-05  0.0000000E+00  0.2932858E-04
  0.7525253E+00  0.0000000E+00  0.1515152E-01 -0.1400361E-05  0.0000000E+00  0.2836643E-04
  0.7626263E+00  0.0000000E+00  0.1515152E-01 -0.1349178E-05  0.0000000E+00  0.2743803E-04
  0.7727273E+00  0.0000000E+00  0.1515152E-01 -0.1294207E-05  0.0000000E+00  0.2654626E-04
  0.7828283E+00  0.0000000E+00  0.1515152E-01 -0.1236787E-05  0.0000000E+00  0.2569302E-04
  0.7929293E+00  0.0000000E+00  0.1515152E-01 -0.1177868E-05  0.0000000E+00  0.2487945E-04
  0.8030303E+00  0.0000000E+00  0.1515152E-01 -0.1118116E-05  0.0000000E+00  0.2410621E-04
  0.8131313E+00  0.0000000E+00  0.1515152E-01 -0.1057988E-05  0.0000000E+00  0.2337361E-04
  0.8232324E+00  0.0000000E+00  0.1515152E-01 -0.9977959E-06  0.0000000E+00  0.2268172E-04
  0.8333333E+00  0.0000000E+00  0.1515152E-01 -0.9377480E-06  0.0000000E+00  0.2203045E-04
  0.8434343E+00  0.0000000E+00  0.1515152E-01 -0.8779811E-06  0.0000000E+00  0.2141962E-04
  0.8535354E+00  0.0000000E+00  0.1515152E-01 -0.8185815E-06  0.0000000E+00  0.2084897E-04
  0.8636364E+00  0.0000000E+00  0.1515152E-01 -0.7596001E-06  0.0000000E+00  0.2031823E-04
  0.8737374E+00  0.0000000E+00  0.1515152E-01 -0.7010630E-06  0.0000000E+00  0.1982706E-04
  0.8838384E+00  0.0000000E+00  0.1515152E-01 -0.6429781E-06  0.0000000E+00  0.1937517E-04
  0.8939394E+00  0.0000000E+00  0.1515152E-01 -0.5853407E-06  0.0000000E+00  0.1896222E-04
  0.9040404E+00  0.0000000E+00  0.1515152E-01 -0.5281359E-06  0.0000000E+00  0.1858792E-04
  0.9141414E+00  0.0000000E+00  0.1515152E-01 -0.4713413E-06  0.0000000E+00  0.1825196E-04
  0.9242424E+00  0.0000000E+00  0.1515152E-01 -0.4149282E-06  0.0000000E+00  0.1795408E-04
  0.9343435E+00  0.0000000E+00  0.1515152E-01 -0.3588630E-06  0.0000000E+00  0.1769402E-04
  0.9444444E+00  0.0000000E+00  0.1515152E-01 -0.3031077E-06  0.0000000E+00  0.1747155E-04
  0.9545454E+00  0.0000000E+00  0.1515152E-01 -0.2476207E-06  0.0000000E+00  0.1728647E-04
  0.9646465E+00  0.0000000E+00  0.1515152E-01 -0.1923574E-06  0.0000000E+00  0.1713862E-04
  0.9747475E+00  0.0000000E+00  0.1515152E-01 -0.1372706E-06  0.0000000E+00  0.1702785E-04
  0.9848485E+00  0.0000000E+00  0.1515152E-01 -0.8231107E-07  0.0000000E+00  0.1695407E-04
  0.9974747E+00  0.0000000E+00  0.1515152E-01 -0.2742847E-07  0.0000000E+00  0.1691719E-04
  0.5050505E-02  0.0000000E+00  0.2525252E-01  0.7448889E-07  0.0000000E+00  0.3671183E-04
  0.1515152E-01  0.0000000E+00  0.2525252E-01  0.2229826E-06  0.0000000E+00  0.3677342E-04
  0.2525252E-01  0.0000000E+00  0.2525252E-01  0.3700166E-06  0.0000000E+00  0.3689623E-04
  0.3535353E-01  0.0000000E+00  0.2525252E-01  0.5145917E-06  0.0000000E+00  0.3707949E-04
  0.4545455E-01  0.0000000E+00  0.2525252E-01  0.6556668E-06  0.0000000E+00  0.3732204E-04
  0.5555556E-01  0.0000000E+00  0.2525252E-01  0.7921374E-06  0.0000000E+00  0.3762230E-04
  0.6565657E-01  0.0000000E+00  0.2525252E-01  0.9228101E-06  0.0000000E+00  0.3797827E-04
  0.7575758E-01  0.0000000E+00  0.2525252E-01  0.1046371E-05  0.0000000E+00  0.3838746E-04
  0.8585858E-01  0.0000000E+00  0.2525252E-01  0.1161344E-05  0.0000000E+00  0.3884683E-04
  0.9595960E-01  0.0000000E+00  0.2525252E-01  0.1266044E-05  0.0000000E+00  0.3935277E-04
  0.1060606E+00  0.0000000E+00  0.2525252E-01  0.1358512E-05  0.0000000E+00  0.3990095E-04
  0.1161616E+00  0.0000000E+00  0.2525252E-01  0.1436448E-05  0.0000000E+00  0.4048622E-04
  0.1262626E+00  0.0000000E+00  0.2525252E-01  0.1497134E-05  0.0000000E+00  0.4110245E-04
  0.1363636E+00  0.0000000E+00  0.2525252E-01  0.1537379E-05  0.0000000E+00  0.4174228E-04
  0.1464646E+00  0.0000000E+00  0.2525252E-01  0.1553497E-05  0.0000000E+00  0.4239687E-04
  0.1565657E+00  0.0000000E+00  0.2525252E-01  0.1541397E-05  0.0000000E+00  0.4305556E-04
  0.1666667E+00  0.0000000E+00  0.2525252E-01  0.1496848E-05  0.0000000E+00  0.4370562E-04
  0.1767677E+00  0.0000000E+00  0.2525252E-01  0.1416043E-05  0.0000000E+00  0.4433202E-04
  0.1868687E+00  0.0000000E+00  0.2525252E-01  0.1296550E-05  0.0000000E+00  0.4491757E-04
  0.1969697E+00  0.0000000E+00  0.2525252E-01  0.1138645E-05  0.0000000E+00  0.4544370E-04
  0.2070707E+00  0.0000000E+00  0.2525252E-01  0.9468013E-06  0.0000000E+00  0.4589213E-04
  0.2171717E+00  0.0000000E+00  0.2525252E-01  0.7306491E-06  0.0000000E+00  0.4624756E-04
  0.2272727E+00  0.0000000E+00  0.2525252E-01  0.5044191E-06  0.0000000E+00  0.4650085E-04
  0.2373737E+00  0.0000000E+00  0.2525252E-01  0.2841593E-06  0.0000000E+00  0.4665131E-04
  0.2474747E+00  0.0000000E+00  0.2525252E-01  0.8363229E-07  0.0000000E+00  0.4670662E-04
  0.2575758E+00  0.0000000E+00  0.2525252E-01 -0.8839025E-07  0.0000000E+00  0.4668025E-04
  0.2676768E+00  0.0000000E+00  0.2525252E-01 -0.2285453E-06  0.0000000E+00  0.4658814E-04
  0.2777778E+00  0.0000000E+00  0.2525252E-01 -0.3377320E-06  0.0000000E+00  0.4644596E-04
  0.2878788E+00  0.0000000E+00  0.2525252E-01 -0.4194479E-06  0.0000000E+00  0.4626735E-04
  0.2979798E+00  0.0000000E+00  0.2525252E-01 -0.4782941E-06  0.0000000E+00  0.4606336E-04
  0.3080808E+00  0.0000000E+00  0.2525252E-01 -0.5189152E-06  0.0000000E+00  0.4584245E-04
  0.3181818E+00  0.0000000E+00  0.2525252E-01 -0.5453823E-06  0.0000000E+00  0.4561085E-04
  0.3282828E+00  0.0000000E+00  0.2525252E-01 -0.5609232E-06  0.0000000E+00  0.4537312E-04
  0.3383838E+00  0.0000000E+00  0.2525252E-01 -0.5678900E-06  0.0000000E+00  0.4513266E-04
  0.3484848E+00  0.0000000E+00  0.2525252E-01 -0.5678679E-06  0.0000000E+00  0.4489214E-04
  0.3585859E+00  0.0000000E+00  0.2525252E-01 -0.5618593E-06  0.0000000E+00  0.4465381E-04
  0.3686869E+00  0.0000000E+00  0.2525252E-01 -0.5504890E-06  0.0000000E+00  0.4441975E-04
  0.3787879E+00  0.0000000E+00  0.2525252E-01 -0.5341976E-06  0.0000000E+00  0.4419195E-04
  0.3888889E+00  0.0000000E+00  0.2525252E-01 -0.5133993E-06  0.0000000E+00  0.4397234E-04
  0.3989899E+00  0.0000000E+00  0.2525252E-01 -0.4885916E-06  0.0000000E+00  0.4376273E-04
  0.4090909E+00  0.0000000E+00  0.2525252E-01 -0.4604181E-06  0.0000000E+00  0.4356472E-04
  0.4191919E+00  0.0000000E+00  0.2525252E-01 -0.4296904E-06  0.0000000E+00  0.4337965E-04
  0.4292929E+00  0.0000000E+00  0.2525252E-01 -0.3973789E-06  0.0000000E+00  0.4320849E-04
  0.4393939E+00  0.0000000E+00  0.2525252E-01 -0.3645864E-06  0.0000000E+00  0.4305174E-04
  0.4494950E+00  0.0000000E+00  0.2525252E-01 -0.3325121E-06  0.0000000E+00  0.4290943E-04
  0.4595959E+00  0.0000000E+00  0.2525252E-01 -0.3024138E-06  0.0000000E+00  0.4278104E-04
  0.4696970E+00  0.0000000E+00  0.2525252E-01 -0.2755730E-06  0.0000000E+00  0.4266553E-04
  0.4797980E+00  0.0000000E+00  0.2525252E-01 -0.2532650E-06  0.0000000E+00  0.4256130E-04
  0.4898990E+00  0.0000000E+00  0.2525252E-01 -0.2367353E-06  0.0000000E+00  0.4246623E-04
  0.5000000E+00  0.0000000E+00  0.2525252E-01 -0.2271831E-06  0.0000000E+00  0.4237769E-04
  0.5101010E+00  0.0000000E+00  0.2525252E-01 -0.2257526E-06  0.0000000E+00  0.4229257E-04
  0.5202020E+00  0.0000000E+00  0.2525252E-01 -0.2335348E-06  0.0000000E+00  0.4220733E-04
  0.5303030E+00  0.0000000E+00  0.2525252E-01 -0.2515817E-06  0.0000000E+00  0.4211800E-04
  0.5404040E+00  0.0000000E+00  0.2525252E-01 -0.2809370E-06  0.0000000E+00  0.4202024E-04
  0.5505050E+00  0.0000000E+00  0.2525252E-01 -0.3226890E-06  0.0000000E+00  0.4190931E-04
  0.5606061E+00  0.0000000E+00  0.2525252E-01 -0.3780476E-06  0.0000000E+00  0.4178008E-04
  0.5707071E+00  0.0000000E+00  0.2525252E-01 -0.4484478E-06  0.0000000E+00  0.4162696E-04
  0.5808081E+00  0.0000000E+00  0.2525252E-01 -0.5356706E-06  0.0000000E+00  0.4144373E-04
  0.5909091E+00  0.0000000E+00  0.2525252E-01 -0.6419511E-06  0.0000000E+00  0.4122335E-04
  0.6010101E+00  0.0000000E+00  0.2525252E-01 -0.7700031E-06  0.0000000E+00  0.4095756E-04
  0.6111111E+00  0.0000000E+00  0.2525252E-01 -0.9228170E-06  0.0000000E+00  0.4063645E-04
  0.6212121E+00  0.0000000E+00  0.2525252E-01 -0.1102983E-05  0.0000000E+00  0.4024800E-04
  0.6313131E+00  0.0000000E+00  0.2525252E-01 -0.1311201E-05  0.0000000E+00  0.3977804E-04
  0.6414142E+00  0.0000000E+00  0.2525252E-01 -0.1543736E-05  0.0000000E+00  0.3921131E-04
  0.6515151E+00  0.0000000E+00  0.2525252E-01 -0.1789300E-05  0.0000000E+00  0.3853481E-04
  0.6616161E+00  0.0000000E+00  0.2525252E-01 -0.2027648E-05  0.0000000E+00  0.3774367E-04
  0.6717172E+00  0.0000000E+00  0.2525252E-01 -0.2234306E-05  0.0000000E+00  0.3684701E-04
  0.6818182E+00  0.0000000E+00  0.2525252E-01 -0.2392424E-05  0.0000000E+00  0.3586693E-04
  0.6919192E+00  0.0000000E+00  0.2525252E-01 -0.2496601E-05  0.0000000E+00  0.3483111E-04
  0.7020202E+00  0.0000000E+00  0.2525252E-01 -0.2550196E-05  0.0000000E+00  0.3376597E-04
  0.7121212E+00  0.0000000E+00  0.2525252E-01 -0.2561073E-05  0.0000000E+00  0.3269330E-04
  0.7222222E+00  0.0000000E+00  0.2525252E-01 -0.2538302E-05  0.0000000E+00  0.3162948E-04
  0.7323232E+00  0.0000000E+00  0.2525252E-01 -0.2490300E-05  0.0000000E+00  0.3058618E-04
  0.7424242E+00  0.0000000E+00  0.2525252E-01 -0.2424069E-05  0.0000000E+00  0.2957134E-04
  0.7525253E+00  0.0000000E+00  0.2525252E-01 -0.2345064E-05  0.0000000E+00  0.2859027E-04
  0.7626263E+00  0.0000000E+00  0.2525252E-01 -0.2257362E-05  0.0000000E+00  0.2764637E-04
  0.7727273E+00  0.0000000E+00  0.2525252E-01 -0.2163921E-05  0.0000000E+00  0.2674177E-04
  0.7828283E+00  0.0000000E+00  0.2525252E-01 -0.2066847E-05  0.0000000E+00  0.2587774E-04
  0.7929293E+00  0.0000000E+00  0.2525252E-01 -0.1967613E-05  0.0000000E+00  0.2505498E-04
  0.8030303E+00  0.0000000E+00  0.2525252E-01 -0.1867237E-05  0.0000000E+00  0.2427378E-04
  0.8131313E+00  0.0000000E+00  0.2525252E-01 -0.1766416E-05  0.0000000E+00  0.2353421E-04
  0.8232324E+00  0.0000000E+00  0.2525252E-01 -0.1665620E-05  0.0000000E+00  0.2283614E-04
  0.8333333E+00  0.0000000E+00  0.2525252E-01 -0.1565161E-05  0.0000000E+00  0.2217936E-04
  0.8434343E+00  0.0000000E+00  0.2525252E-01 -0.1465240E-05  0.0000000E+00  0.2156359E-04
  0.8535354E+00  0.0000000E+00  0.2525252E-01 -0.1365983E-05  0.0000000E+00  0.2098850E-04
  0.8636364E+00  0.0000000E+00  0.2525252E-01 -0.1267462E-05  0.0000000E+00  0.2045375E-04
  0.8737374E+00  0.0000000E+00  0.2525252E-01 -0.1169711E-05  0.0000000E+00  0.1995899E-04
  0.8838384E+00  0.0000000E+00  0.2525252E-01 -0.1072737E-05  0.0000000E+00  0.1950385E-04
  0.8939394E+00  0.0000000E+00  0.2525252E-01 -0.9765269E-06  0.0000000E+00  0.1908801E-04
  0.9040404E+00  0.0000000E+00  0.2525252E-01 -0.8810533E-06  0.0000000E+00  0.1871113E-04
  0.9141414E+00  0.0000000E+00  0.2525252E-01 -0.7862761E-06  0.0000000E+00  0.1837290E-04
  0.9242424E+00  0.0000000E+00  0.2525252E-01 -0.6921458E-06  0.0000000E+00  0.1807303E-04
  0.9343435E+00  0.0000000E+00  0.2525252E-01 -0.5986047E-06  0.0000000E+00  0.1781126E-04
  0.9444444E+00  0.0000000E+00  0.2525252E-01 -0.5055884E-06  0.0000000E+00  0.1758735E-04
  0.9545454E+00  0.0000000E+00  0.2525252E-01 -0.4130261E-06  0.0000000E+00  0.1740108E-04
  0.9646465E+00  0.0000000E+00  0.2525252E-01 -0.3208422E-06  0.0000000E+00  0.1725229E-04
  0.9747475E+00  0.0000000E+00  0.2525252E-01 -0.2289570E-06  0.0000000E+00  0.1714082E-04
  0.9848485E+00  0.0000000E+00  0.2525252E-01 -0.1372874E-06  0.0000000E+00  0.1706657E-04
  0.9974747E+00  0.0000000E+00  0.2525252E-01 -0.4574798E-07  0.0000000E+00  0.1702946E-04
  0.5050505E-02  0.0000000E+00  0.3535353E-01  0.1054516E-06  0.0000000E+00  0.3707508E-04
  0.1515152E-01  0.0000000E+00  0.3535353E-01  0.3156890E-06  0.0000000E+00  0.3713894E-04
  0.2525252E-01  0.0000000E+00  0.3535353E-01  0.5239193E-06  0.0000000E+00  0.3726632E-04
  0.3535353E-01  0.0000000E+00  0.3535353E-01  0.7287702E-06  0.0000000E+00  0.3745647E-04
  0.4545455E-01  0.0000000E+00  0.3535353E-01  0.9288143E-06  0.0000000E+00  0.3770830E-04
  0.5555556E-01  0.0000000E+00  0.3535353E-01  0.1122541E-05  0.0000000E+00  0.3802033E-04
  0.6565657E-01  0.0000000E+00  0.3535353E-01  0.1308324E-05  0.0000000E+00  0.3839065E-04
  0.7575758E-01  0.0000000E+00  0.3535353E-01  0.1484377E-05  0.0000000E+00  0.3881694E-04
  0.8585858E-01  0.0000000E+00  0.3535353E-01  0.1648697E-05  0.0000000E+00  0.3929638E-04
  0.9595960E-01  0.0000000E+00  0.3535353E-01  0.1799000E-05  0.0000000E+00  0.3982561E-04
  0.1060606E+00  0.0000000E+00  0.3535353E-01  0.1932621E-05  0.0000000E+00  0.4040064E-04
  0.1161616E+00  0.0000000E+00  0.3535353E-01  0.2046414E-05  0.0000000E+00  0.4101675E-04
  0.1262626E+00  0.0000000E+00  0.3535353E-01  0.2136613E-05  0.0000000E+00  0.4166827E-04
  0.1363636E+00  0.0000000E+00  0.3535353E-01  0.2198704E-05  0.0000000E+00  0.4234834E-04
  0.1464646E+00  0.0000000E+00  0.3535353E-01  0.2227321E-05  0.0000000E+00  0.4304854E-04
  0.1565657E+00  0.0000000E+00  0.3535353E-01  0.2216252E-05  0.0000000E+00  0.4375840E-04
  0.1666667E+00  0.0000000E+00  0.3535353E-01  0.2158682E-05  0.0000000E+00  0.4446475E-04
  0.1767677E+00  0.0000000E+00  0.3535353E-01  0.2047873E-05  0.0000000E+00  0.4515116E-04
  0.1868687E+00  0.0000000E+00  0.3535353E-01  0.1878547E-05  0.0000000E+00  0.4579745E-04
  0.1969697E+00  0.0000000E+00  0.3535353E-01  0.1649151E-05  0.0000000E+00  0.4638011E-04
  0.2070707E+00  0.0000000E+00  0.3535353E-01  0.1364835E-05  0.0000000E+00  0.4687420E-04
  0.2171717E+00  0.0000000E+00  0.3535353E-01  0.1040094E-05  0.0000000E+00  0.4725739E-04
  0.2272727E+00  0.0000000E+00  0.3535353E-01  0.6987747E-06  0.0000000E+00  0.4751587E-04
  0.2373737E+00  0.0000000E+00  0.3535353E-01  0.3689170E-06  0.0000000E+00  0.4764925E-04
  0.2474747E+00  0.0000000E+00  0.3535353E-01  0.7359945E-07  0.0000000E+00  0.4767039E-04
  0.2575758E+00  0.0000000E+00  0.3535353E-01 -0.1740917E-06  0.0000000E+00  0.4760018E-04
  0.2676768E+00  0.0000000E+00  0.3535353E-01 -0.3708165E-06  0.0000000E+00  0.4746138E-04
  0.2777778E+00  0.0000000E+00  0.3535353E-01 -0.5200360E-06  0.0000000E+00  0.4727451E-04
  0.2878788E+00  0.0000000E+00  0.3535353E-01 -0.6287390E-06  0.0000000E+00  0.4705591E-04
  0.2979798E+00  0.0000000E+00  0.3535353E-01 -0.7049323E-06  0.0000000E+00  0.4681758E-04