title = "dataset water"
variables = "x", "y", "z", "vx", "vy", "vz"
zone t = "velocities, solution time =  1.600E+01 days        " i =   99, j =   99, k =    1,  f=point
  0.5050505E-02  0.0000000E+00  0.5050505E-02  0.1233198E-12  0.0000000E+00 -0.2583565E-04
  0.1515152E-01  0.0000000E+00  0.5050505E-02  0.3989767E-12  0.0000000E+00 -0.2583565E-04
  0.2525252E-01  0.0000000E+00  0.5050505E-02  0.6555755E-12  0.0000000E+00 -0.2583565E-04
  0.3535353E-01  0.0000000E+00  0.5050505E-02  0.9081031E-12  0.0000000E+00 -0.2583564E-04
  0.4545455E-01  0.0000000E+00  0.5050505E-02  0.1172982E-11  0.0000000E+00 -0.2583564E-04
  0.5555556E-01  0.0000000E+00  0.5050505E-02  0.1389671E-11  0.0000000E+00 -0.2583564E-04
  0.6565657E-01  0.0000000E+00  0.5050505E-02  0.1586726E-11  0.0000000E+00 -0.2583564E-04
  0.7575758E-01  0.0000000E+00  0.5050505E-02  0.1905236E-11  0.0000000E+00 -0.2583563E-04
  0.8585858E-01  0.0000000E+00  0.5050505E-02  0.2107687E-11  0.0000000E+00 -0.2583563E-04
  0.9595960E-01  0.0000000E+00  0.5050505E-02  0.2269121E-11  0.0000000E+00 -0.2583562E-04
  0.1060606E+00  0.0000000E+00  0.5050505E-02  0.2510021E-11  0.0000000E+00 -0.2583562E-04
  0.1161616E+00  0.0000000E+00  0.5050505E-02  0.2733800E-11  0.0000000E+00 -0.2583561E-04
  0.1262626E+00  0.0000000E+00  0.5050505E-02  0.2907277E-11  0.0000000E+00 -0.2583561E-04
  0.1363636E+00  0.0000000E+00  0.5050505E-02  0.3074436E-11  0.0000000E+00 -0.2583560E-04
  0.1464646E+00  0.0000000E+00  0.5050505E-02  0.3247859E-11  0.0000000E+00 -0.2583560E-04
  0.1565657E+00  0.0000000E+00  0.5050505E-02  0.3410003E-11  0.0000000E+00 -0.2583559E-04
  0.1666667E+00  0.0000000E+00  0.5050505E-02  0.3551872E-11  0.0000000E+00 -0.2583558E-04
  0.1767677E+00  0.0000000E+00  0.5050505E-02  0.3677367E-11  0.0000000E+00 -0.2583558E-04
  0.1868687E+00  0.0000000E+00  0.5050505E-02  0.3790413E-11  0.0000000E+00 -0.2583557E-04
  0.1969697E+00  0.0000000E+00  0.5050505E-02  0.3890076E-11  0.0000000E+00 -0.2583556E-04
  0.2070707E+00  0.0000000E+00  0.5050505E-02  0.3973773E-11  0.0000000E+00 -0.2583555E-04
  0.2171717E+00  0.0000000E+00  0.5050505E-02  0.4040237E-11  0.0000000E+00 -0.2583554E-04
  0.2272727E+00  0.0000000E+00  0.5050505E-02  0.4089547E-11  0.0000000E+00 -0.2583554E-04
  0.2373737E+00  0.0000000E+00  0.5050505E-02  0.4122007E-11  0.0000000E+00 -0.2583553E-04
  0.2474747E+00  0.0000000E+00  0.5050505E-02  0.4137543E-11  0.0000000E+00 -0.2583552E-04
  0.2575758E+00  0.0000000E+00  0.5050505E-02  0.4135833E-11  0.0000000E+00 -0.2583551E-04
  0.2676768E+00  0.0000000E+00  0.5050505E-02  0.4116634E-11  0.0000000E+00 -0.2583550E-04
  0.2777778E+00  0.0000000E+00  0.5050505E-02  0.4079881E-11  0.0000000E+00 -0.2583549E-04
  0.2878788E+00  0.0000000E+00  0.5050505E-02  0.4025649E-11  0.0000000E+00 -0.2583549E-04
  0.2979798E+00  0.0000000E+00  0.5050505E-02  0.3954053E-11  0.0000000E+00 -0.2583548E-04
  0.3080808E+00  0.0000000E+00  0.5050505E-02  0.3865208E-11  0.0000000E+00 -0.2583547E-04
  0.3181818E+00  0.0000000E+00  0.5050505E-02  0.3759244E-11  0.0000000E+00 -0.2583546E-04
  0.3282828E+00  0.0000000E+00  0.5050505E-02  0.3636372E-11  0.0000000E+00 -0.2583546E-04
  0.3383838E+00  0.0000000E+00  0.5050505E-02  0.3496877E-11  0.0000000E+00 -0.2583545E-04
  0.3484848E+00  0.0000000E+00  0.5050505E-02  0.3341180E-11  0.0000000E+00 -0.2583544E-04
  0.3585859E+00  0.0000000E+00  0.5050505E-02  0.3169781E-11  0.0000000E+00 -0.2583544E-04
  0.3686869E+00  0.0000000E+00  0.5050505E-02  0.2983309E-11  0.0000000E+00 -0.2583543E-04
  0.3787879E+00  0.0000000E+00  0.5050505E-02  0.2782457E-11  0.0000000E+00 -0.2583542E-04
  0.3888889E+00  0.0000000E+00  0.5050505E-02  0.2568033E-11  0.0000000E+00 -0.2583542E-04
  0.3989899E+00  0.0000000E+00  0.5050505E-02  0.2340964E-11  0.0000000E+00 -0.2583541E-04
  0.4090909E+00  0.0000000E+00  0.5050505E-02  0.2102297E-11  0.0000000E+00 -0.2583541E-04
  0.4191919E+00  0.0000000E+00  0.5050505E-02  0.1853158E-11  0.0000000E+00 -0.2583540E-04
  0.4292929E+00  0.0000000E+00  0.5050505E-02  0.1594592E-11  0.0000000E+00 -0.2583540E-04
  0.4393939E+00  0.0000000E+00  0.5050505E-02  0.1327800E-11  0.0000000E+00 -0.2583540E-04
  0.4494950E+00  0.0000000E+00  0.5050505E-02  0.1055107E-11  0.0000000E+00 -0.2583540E-04
  0.4595959E+00  0.0000000E+00  0.5050505E-02  0.7793997E-12  0.0000000E+00 -0.2583539E-04
  0.4696970E+00  0.0000000E+00  0.5050505E-02  0.5005570E-12  0.0000000E+00 -0.2583539E-04
  0.4797980E+00  0.0000000E+00  0.5050505E-02  0.2176390E-12  0.0000000E+00 -0.2583539E-04
  0.4898990E+00  0.0000000E+00  0.5050505E-02 -0.5945372E-13  0.0000000E+00 -0.2583539E-04
  0.5000000E+00  0.0000000E+00  0.5050505E-02 -0.4027590E-12  0.0000000E+00 -0.2583539E-04
  0.5101010E+00  0.0000000E+00  0.5050505E-02 -0.7039585E-12  0.0000000E+00 -0.2583539E-04
  0.5202020E+00  0.0000000E+00  0.5050505E-02 -0.9645343E-12  0.0000000E+00 -0.2583539E-04
  0.5303030E+00  0.0000000E+00  0.5050505E-02 -0.1261843E-11  0.0000000E+00 -0.2583540E-04
  0.5404040E+00  0.0000000E+00  0.5050505E-02 -0.1517516E-11  0.0000000E+00 -0.2583540E-04
  0.5505050E+00  0.0000000E+00  0.5050505E-02 -0.1739605E-11  0.0000000E+00 -0.2583540E-04
  0.5606061E+00  0.0000000E+00  0.5050505E-02 -0.2069749E-11  0.0000000E+00 -0.2583541E-04
  0.5707071E+00  0.0000000E+00  0.5050505E-02 -0.2304522E-11  0.0000000E+00 -0.2583541E-04
  0.5808081E+00  0.0000000E+00  0.5050505E-02 -0.2497561E-11  0.0000000E+00 -0.2583542E-04
  0.5909091E+00  0.0000000E+00  0.5050505E-02 -0.2751560E-11  0.0000000E+00 -0.2583542E-04
  0.6010101E+00  0.0000000E+00  0.5050505E-02 -0.2986675E-11  0.0000000E+00 -0.2583543E-04
  0.6111111E+00  0.0000000E+00  0.5050505E-02 -0.3176657E-11  0.0000000E+00 -0.2583543E-04
  0.6212121E+00  0.0000000E+00  0.5050505E-02 -0.3356236E-11  0.0000000E+00 -0.2583544E-04
  0.6313131E+00  0.0000000E+00  0.5050505E-02 -0.3534819E-11  0.0000000E+00 -0.2583545E-04
  0.6414142E+00  0.0000000E+00  0.5050505E-02 -0.3698380E-11  0.0000000E+00 -0.2583545E-04
  0.6515151E+00  0.0000000E+00  0.5050505E-02 -0.3839799E-11  0.0000000E+00 -0.2583546E-04
  0.6616161E+00  0.0000000E+00  0.5050505E-02 -0.3962206E-11  0.0000000E+00 -0.2583547E-04
  0.6717172E+00  0.0000000E+00  0.5050505E-02 -0.4068852E-11  0.0000000E+00 -0.2583548E-04
  0.6818182E+00  0.0000000E+00  0.5050505E-02 -0.4159293E-11  0.0000000E+00 -0.2583549E-04
  0.6919192E+00  0.0000000E+00  0.5050505E-02 -0.4231852E-11  0.0000000E+00 -0.2583549E-04
  0.7020202E+00  0.0000000E+00  0.5050505E-02 -0.4286005E-11  0.0000000E+00 -0.2583550E-04
  0.7121212E+00  0.0000000E+00  0.5050505E-02 -0.4322399E-11  0.0000000E+00 -0.2583551E-04
  0.7222222E+00  0.0000000E+00  0.5050505E-02 -0.4341901E-11  0.0000000E+00 -0.2583552E-04
  0.7323232E+00  0.0000000E+00  0.5050505E-02 -0.4345112E-11  0.0000000E+00 -0.2583553E-04
  0.7424242E+00  0.0000000E+00  0.5050505E-02 -0.4332400E-11  0.0000000E+00 -0.2583554E-04
  0.7525253E+00  0.0000000E+00  0.5050505E-02 -0.4304143E-11  0.0000000E+00 -0.2583555E-04
  0.7626263E+00  0.0000000E+00  0.5050505E-02 -0.4260789E-11  0.0000000E+00 -0.2583555E-04
  0.7727273E+00  0.0000000E+00  0.5050505E-02 -0.4202797E-11  0.0000000E+00 -0.2583556E-04
  0.7828283E+00  0.0000000E+00  0.5050505E-02 -0.4130550E-11  0.0000000E+00 -0.2583557E-04
  0.7929293E+00  0.0000000E+00  0.5050505E-02 -0.4044335E-11  0.0000000E+00 -0.2583558E-04
  0.8030303E+00  0.0000000E+00  0.5050505E-02 -0.3944368E-11  0.0000000E+00 -0.2583559E-04
  0.8131313E+00  0.0000000E+00  0.5050505E-02 -0.3830859E-11  0.0000000E+00 -0.2583560E-04
  0.8232324E+00  0.0000000E+00  0.5050505E-02 -0.3704056E-11  0.0000000E+00 -0.2583560E-04
  0.8333333E+00  0.0000000E+00  0.5050505E-02 -0.3564297E-11  0.0000000E+00 -0.2583561E-04
  0.8434343E+00  0.0000000E+00  0.5050505E-02 -0.3412008E-11  0.0000000E+00 -0.2583562E-04
  0.8535354E+00  0.0000000E+00  0.5050505E-02 -0.3247744E-11  0.0000000E+00 -0.2583562E-04
  0.8636364E+00  0.0000000E+00  0.5050505E-02 -0.3072152E-11  0.0000000E+00 -0.2583563E-04
  0.8737374E+00  0.0000000E+00  0.5050505E-02 -0.2885994E-11  0.0000000E+00 -0.2583564E-04
  0.8838384E+00  0.0000000E+00  0.5050505E-02 -0.2690082E-11  0.0000000E+00 -0.2583564E-04
  0.8939394E+00  0.0000000E+00  0.5050505E-02 -0.2485278E-11  0.0000000E+00 -0.2583565E-04
  0.9040404E+00  0.0000000E+00  0.5050505E-02 -0.2272443E-11  0.0000000E+00 -0.2583565E-04
  0.9141414E+00  0.0000000E+00  0.5050505E-02 -0.2052443E-11  0.0000000E+00 -0.2583566E-04
  0.9242424E+00  0.0000000E+00  0.5050505E-02 -0.1826128E-11  0.0000000E+00 -0.2583566E-04
  0.9343435E+00  0.0000000E+00  0.5050505E-02 -0.1594257E-11  0.0000000E+00 -0.2583566E-04
  0.9444444E+00  0.0000000E+00  0.5050505E-02 -0.1357476E-11  0.0000000E+00 -0.2583567E-04
  0.9545454E+00  0.0000000E+00  0.5050505E-02 -0.1116576E-11  0.0000000E+00 -0.2583567E-04
  0.9646465E+00  0.0000000E+00  0.5050505E-02 -0.8726891E-12  0.0000000E+00 -0.2583567E-04
  0.9747475E+00  0.0000000E+00  0.5050505E-02 -0.6266586E-12  0.0000000E+00 -0.2583567E-04
  0.9848485E+00  0.0000000E+00  0.5050505E-02 -0.3802326E-12  0.0000000E+00 -0.2583567E-04
  0.9974747E+00  0.0000000E+00  0.5050505E-02 -0.1416118E-12  0.0000000E+00 -0.2583567E-04
  0.5050505E-02  0.0000000E+00  0.1515152E-01  0.4078110E-12  0.0000000E+00 -0.2576803E-04
  0.1515152E-01  0.0000000E+00  0.1515152E-01  0.1144148E-11  0.0000000E+00 -0.2576803E-04
  0.2525252E-01  0.0000000E+00  0.1515152E-01  0.1979961E-11  0.0000000E+00 -0.2576803E-04
  0.3535353E-01  0.0000000E+00  0.1515152E-01  0.2716180E-11  0.0000000E+00 -0.2576803E-04
  0.4545455E-01  0.0000000E+00  0.1515152E-01  0.3475399E-11  0.0000000E+00 -0.2576803E-04
  0.5555556E-01  0.0000000E+00  0.1515152E-01  0.4227387E-11  0.0000000E+00 -0.2576802E-04
  0.6565657E-01  0.0000000E+00  0.1515152E-01  0.4819625E-11  0.0000000E+00 -0.2576802E-04
  0.7575758E-01  0.0000000E+00  0.1515152E-01  0.5677557E-11  0.0000000E+00 -0.2576802E-04
  0.8585858E-01  0.0000000E+00  0.1515152E-01  0.6335934E-11  0.0000000E+00 -0.2576801E-04
  0.9595960E-01  0.0000000E+00  0.1515152E-01  0.6873623E-11  0.0000000E+00 -0.2576801E-04
  0.1060606E+00  0.0000000E+00  0.1515152E-01  0.7561021E-11  0.0000000E+00 -0.2576800E-04
  0.1161616E+00  0.0000000E+00  0.1515152E-01  0.8212907E-11  0.0000000E+00 -0.2576800E-04
  0.1262626E+00  0.0000000E+00  0.1515152E-01  0.8752327E-11  0.0000000E+00 -0.2576799E-04
  0.1363636E+00  0.0000000E+00  0.1515152E-01  0.9267372E-11  0.0000000E+00 -0.2576799E-04
  0.1464646E+00  0.0000000E+00  0.1515152E-01  0.9784761E-11  0.0000000E+00 -0.2576798E-04
  0.1565657E+00  0.0000000E+00  0.1515152E-01  0.1026713E-10  0.0000000E+00 -0.2576797E-04
  0.1666667E+00  0.0000000E+00  0.1515152E-01  0.1069472E-10  0.0000000E+00 -0.2576797E-04
  0.1767677E+00  0.0000000E+00  0.1515152E-01  0.1107537E-10  0.0000000E+00 -0.2576796E-04
  0.1868687E+00  0.0000000E+00  0.1515152E-01  0.1141688E-10  0.0000000E+00 -0.2576795E-04
  0.1969697E+00  0.0000000E+00  0.1515152E-01  0.1171646E-10  0.0000000E+00 -0.2576794E-04
  0.2070707E+00  0.0000000E+00  0.1515152E-01  0.1196787E-10  0.0000000E+00 -0.2576794E-04
  0.2171717E+00  0.0000000E+00  0.1515152E-01  0.1216805E-10  0.0000000E+00 -0.2576793E-04
  0.2272727E+00  0.0000000E+00  0.1515152E-01  0.1231696E-10  0.0000000E+00 -0.2576792E-04
  0.2373737E+00  0.0000000E+00  0.1515152E-01  0.1241509E-10  0.0000000E+00 -0.2576791E-04
  0.2474747E+00  0.0000000E+00  0.1515152E-01  0.1246207E-10  0.0000000E+00 -0.2576790E-04
  0.2575758E+00  0.0000000E+00  0.1515152E-01  0.1245703E-10  0.0000000E+00 -0.2576789E-04
  0.2676768E+00  0.0000000E+00  0.1515152E-01  0.1239934E-10  0.0000000E+00 -0.2576789E-04
  0.2777778E+00  0.0000000E+00  0.1515152E-01  0.1228882E-10  0.0000000E+00 -0.2576788E-04
  0.2878788E+00  0.0000000E+00  0.1515152E-01  0.1212568E-10  0.0000000E+00 -0.2576787E-04
  0.2979798E+00  0.0000000E+00  0.1515152E-01  0.1191020E-10  0.0000000E+00 -0.2576786E-04
  0.3080808E+00  0.0000000E+00  0.1515152E-01  0.1164270E-10  0.0000000E+00 -0.2576785E-04
  0.3181818E+00  0.0000000E+00  0.1515152E-01  0.1132359E-10  0.0000000E+00 -0.2576785E-04
  0.3282828E+00  0.0000000E+00  0.1515152E-01  0.1095350E-10  0.0000000E+00 -0.2576784E-04
  0.3383838E+00  0.0000000E+00  0.1515152E-01  0.1053331E-10  0.0000000E+00 -0.2576783E-04
  0.3484848E+00  0.0000000E+00  0.1515152E-01  0.1006428E-10  0.0000000E+00 -0.2576782E-04
  0.3585859E+00  0.0000000E+00  0.1515152E-01  0.9547953E-11  0.0000000E+00 -0.2576782E-04
  0.3686869E+00  0.0000000E+00  0.1515152E-01  0.8986196E-11  0.0000000E+00 -0.2576781E-04
  0.3787879E+00  0.0000000E+00  0.1515152E-01  0.8381138E-11  0.0000000E+00 -0.2576781E-04
  0.3888889E+00  0.0000000E+00  0.1515152E-01  0.7735163E-11  0.0000000E+00 -0.2576780E-04
  0.3989899E+00  0.0000000E+00  0.1515152E-01  0.7050942E-11  0.0000000E+00 -0.2576779E-04
  0.4090909E+00  0.0000000E+00  0.1515152E-01  0.6331624E-11  0.0000000E+00 -0.2576779E-04
  0.4191919E+00  0.0000000E+00  0.1515152E-01  0.5580964E-11  0.0000000E+00 -0.2576779E-04
  0.4292929E+00  0.0000000E+00  0.1515152E-01  0.4802482E-11  0.0000000E+00 -0.2576778E-04
  0.4393939E+00  0.0000000E+00  0.1515152E-01  0.3998843E-11  0.0000000E+00 -0.2576778E-04
  0.4494950E+00  0.0000000E+00  0.1515152E-01  0.3175258E-11  0.0000000E+00 -0.2576778E-04
  0.4595959E+00  0.0000000E+00  0.1515152E-01  0.2343018E-11  0.0000000E+00 -0.2576778E-04
  0.4696970E+00  0.0000000E+00  0.1515152E-01  0.1505986E-11  0.0000000E+00 -0.2576777E-04
  0.4797980E+00  0.0000000E+00  0.1515152E-01  0.6490813E-12  0.0000000E+00 -0.2576777E-04
  0.4898990E+00  0.0000000E+00  0.1515152E-01 -0.2060028E-12  0.0000000E+00 -0.2576777E-04
  0.5000000E+00  0.0000000E+00  0.1515152E-01 -0.1195804E-11  0.0000000E+00 -0.2576777E-04
  0.5101010E+00  0.0000000E+00  0.1515152E-01 -0.2107124E-11  0.0000000E+00 -0.2576777E-04
  0.5202020E+00  0.0000000E+00  0.1515152E-01 -0.2923701E-11  0.0000000E+00 -0.2576778E-04
  0.5303030E+00  0.0000000E+00  0.1515152E-01 -0.3748862E-11  0.0000000E+00 -0.2576778E-04
  0.5404040E+00  0.0000000E+00  0.1515152E-01 -0.4596911E-11  0.0000000E+00 -0.2576778E-04
  0.5505050E+00  0.0000000E+00  0.1515152E-01 -0.5278570E-11  0.0000000E+00 -0.2576778E-04
  0.5606061E+00  0.0000000E+00  0.1515152E-01 -0.6187272E-11  0.0000000E+00 -0.2576779E-04
  0.5707071E+00  0.0000000E+00  0.1515152E-01 -0.6929923E-11  0.0000000E+00 -0.2576779E-04
  0.5808081E+00  0.0000000E+00  0.1515152E-01 -0.7554927E-11  0.0000000E+00 -0.2576780E-04
  0.5909091E+00  0.0000000E+00  0.1515152E-01 -0.8290869E-11  0.0000000E+00 -0.2576780E-04
  0.6010101E+00  0.0000000E+00  0.1515152E-01 -0.8981635E-11  0.0000000E+00 -0.2576781E-04
  0.6111111E+00  0.0000000E+00  0.1515152E-01 -0.9566727E-11  0.0000000E+00 -0.2576782E-04
  0.6212121E+00  0.0000000E+00  0.1515152E-01 -0.1011629E-10  0.0000000E+00 -0.2576782E-04
  0.6313131E+00  0.0000000E+00  0.1515152E-01 -0.1065007E-10  0.0000000E+00 -0.2576783E-04
  0.6414142E+00  0.0000000E+00  0.1515152E-01 -0.1113779E-10  0.0000000E+00 -0.2576784E-04
  0.6515151E+00  0.0000000E+00  0.1515152E-01 -0.1156372E-10  0.0000000E+00 -0.2576784E-04
  0.6616161E+00  0.0000000E+00  0.1515152E-01 -0.1193422E-10  0.0000000E+00 -0.2576785E-04
  0.6717172E+00  0.0000000E+00  0.1515152E-01 -0.1225595E-10  0.0000000E+00 -0.2576786E-04
  0.6818182E+00  0.0000000E+00  0.1515152E-01 -0.1252756E-10  0.0000000E+00 -0.2576787E-04
  0.6919192E+00  0.0000000E+00  0.1515152E-01 -0.1274524E-10  0.0000000E+00 -0.2576788E-04
  0.7020202E+00  0.0000000E+00  0.1515152E-01 -0.1290803E-10  0.0000000E+00 -0.2576789E-04
  0.7121212E+00  0.0000000E+00  0.1515152E-01 -0.1301766E-10  0.0000000E+00 -0.2576789E-04
  0.7222222E+00  0.0000000E+00  0.1515152E-01 -0.1307642E-10  0.0000000E+00 -0.2576790E-04
  0.7323232E+00  0.0000000E+00  0.1515152E-01 -0.1308599E-10  0.0000000E+00 -0.2576791E-04
  0.7424242E+00  0.0000000E+00  0.1515152E-01 -0.1304756E-10  0.0000000E+00 -0.2576792E-04
  0.7525253E+00  0.0000000E+00  0.1515152E-01 -0.1296233E-10  0.0000000E+00 -0.2576793E-04
  0.7626263E+00  0.0000000E+00  0.1515152E-01 -0.1283170E-10  0.0000000E+00 -0.2576794E-04
  0.7727273E+00  0.0000000E+00  0.1515152E-01 -0.1265700E-10  0.0000000E+00 -0.2576795E-04
  0.7828283E+00  0.0000000E+00  0.1515152E-01 -0.1243934E-10  0.0000000E+00 -0.2576796E-04
  0.7929293E+00  0.0000000E+00  0.1515152E-01 -0.1217957E-10  0.0000000E+00 -0.2576796E-04
  0.8030303E+00  0.0000000E+00  0.1515152E-01 -0.1187832E-10  0.0000000E+00 -0.2576797E-04
  0.8131313E+00  0.0000000E+00  0.1515152E-01 -0.1153626E-10  0.0000000E+00 -0.2576798E-04
  0.8232324E+00  0.0000000E+00  0.1515152E-01 -0.1115414E-10  0.0000000E+00 -0.2576799E-04
  0.8333333E+00  0.0000000E+00  0.1515152E-01 -0.1073300E-10  0.0000000E+00 -0.2576800E-04
  0.8434343E+00  0.0000000E+00  0.1515152E-01 -0.1027414E-10  0.0000000E+00 -0.2576800E-04
  0.8535354E+00  0.0000000E+00  0.1515152E-01 -0.9779228E-11  0.0000000E+00 -0.2576801E-04
  0.8636364E+00  0.0000000E+00  0.1515152E-01 -0.9250247E-11  0.0000000E+00 -0.2576802E-04
  0.8737374E+00  0.0000000E+00  0.1515152E-01 -0.8689487E-11  0.0000000E+00 -0.2576802E-04
  0.8838384E+00  0.0000000E+00  0.1515152E-01 -0.8099448E-11  0.0000000E+00 -0.2576803E-04
  0.8939394E+00  0.0000000E+00  0.1515152E-01 -0.7482716E-11  0.0000000E+00 -0.2576803E-04
  0.9040404E+00  0.0000000E+00  0.1515152E-01 -0.6841839E-11  0.0000000E+00 -0.2576804E-04
  0.9141414E+00  0.0000000E+00  0.1515152E-01 -0.6179313E-11  0.0000000E+00 -0.2576804E-04
  0.9242424E+00  0.0000000E+00  0.1515152E-01 -0.5497656E-11  0.0000000E+00 -0.2576805E-04
  0.9343435E+00  0.0000000E+00  0.1515152E-01 -0.4799223E-11  0.0000000E+00 -0.2576805E-04
  0.9444444E+00  0.0000000E+00  0.1515152E-01 -0.4085890E-11  0.0000000E+00 -0.2576805E-04
  0.9545454E+00  0.0000000E+00  0.1515152E-01 -0.3359985E-11  0.0000000E+00 -0.2576805E-04
  0.9646465E+00  0.0000000E+00  0.1515152E-01 -0.2625475E-11  0.0000000E+00 -0.2576806E-04
  0.9747475E+00  0.0000000E+00  0.1515152E-01 -0.1882716E-11  0.0000000E+00 -0.2576806E-04
  0.9848485E+00  0.0000000E+00  0.1515152E-01 -0.1127692E-11  0.0000000E+00 -0.2576806E-04
  0.9974747E+00  0.0000000E+00  0.1515152E-01 -0.4057423E-12  0.0000000E+00 -0.2576806E-04
  0.5050505E-02  0.0000000E+00  0.2525252E-01  0.7152506E-12  0.0000000E+00 -0.2563335E-04
  0.1515152E-01  0.0000000E+00  0.2525252E-01  0.1877101E-11  0.0000000E+00 -0.2563335E-04
  0.2525252E-01  0.0000000E+00  0.2525252E-01  0.3276892E-11  0.0000000E+00 -0.2563335E-04
  0.3535353E-01  0.0000000E+00  0.2525252E-01  0.4577719E-11  0.0000000E+00 -0.2563334E-04
  0.4545455E-01  0.0000000E+00  0.2525252E-01  0.5778188E-11  0.0000000E+00 -0.2563334E-04
  0.5555556E-01  0.0000000E+00  0.2525252E-01  0.7114518E-11  0.0000000E+00 -0.2563334E-04
  0.6565657E-01  0.0000000E+00  0.2525252E-01  0.8162895E-11  0.0000000E+00 -0.2563334E-04
  0.7575758E-01  0.0000000E+00  0.2525252E-01  0.9474853E-11  0.0000000E+00 -0.2563333E-04
  0.8585858E-01  0.0000000E+00  0.2525252E-01  0.1062395E-10  0.0000000E+00 -0.2563333E-04
  0.9595960E-01  0.0000000E+00  0.2525252E-01  0.1160171E-10  0.0000000E+00 -0.2563332E-04
  0.1060606E+00  0.0000000E+00  0.2525252E-01  0.1270969E-10  0.0000000E+00 -0.2563332E-04
  0.1161616E+00  0.0000000E+00  0.2525252E-01  0.1377414E-10  0.0000000E+00 -0.2563331E-04
  0.1262626E+00  0.0000000E+00  0.2525252E-01  0.1470420E-10  0.0000000E+00 -0.2563331E-04
  0.1363636E+00  0.0000000E+00  0.2525252E-01  0.1558622E-10  0.0000000E+00 -0.2563330E-04
  0.1464646E+00  0.0000000E+00  0.2525252E-01  0.1644843E-10  0.0000000E+00 -0.2563329E-04
  0.1565657E+00  0.0000000E+00  0.2525252E-01  0.1725063E-10  0.0000000E+00 -0.2563329E-04
  0.1666667E+00  0.0000000E+00  0.2525252E-01  0.1797027E-10  0.0000000E+00 -0.2563328E-04
  0.1767677E+00  0.0000000E+00  0.2525252E-01  0.1861438E-10  0.0000000E+00 -0.2563327E-04
  0.1868687E+00  0.0000000E+00  0.2525252E-01  0.1918998E-10  0.0000000E+00 -0.2563326E-04
  0.1969697E+00  0.0000000E+00  0.2525252E-01  0.1969262E-10  0.0000000E+00 -0.2563326E-04
  0.2070707E+00  0.0000000E+00  0.2525252E-01  0.2011437E-10  0.0000000E+00 -0.2563325E-04
  0.2171717E+00  0.0000000E+00  0.2525252E-01  0.2045112E-10  0.0000000E+00 -0.2563324E-04
  0.2272727E+00  0.0000000E+00  0.2525252E-01  0.2070236E-10  0.0000000E+00 -0.2563323E-04
  0.2373737E+00  0.0000000E+00  0.2525252E-01  0.2086816E-10  0.0000000E+00 -0.2563322E-04
  0.2474747E+00  0.0000000E+00  0.2525252E-01  0.2094770E-10  0.0000000E+00 -0.2563321E-04
  0.2575758E+00  0.0000000E+00  0.2525252E-01  0.2093969E-10  0.0000000E+00 -0.2563321E-04
  0.2676768E+00  0.0000000E+00  0.2525252E-01  0.2084321E-10  0.0000000E+00 -0.2563320E-04
  0.2777778E+00  0.0000000E+00  0.2525252E-01  0.2065802E-10  0.0000000E+00 -0.2563319E-04
  0.2878788E+00  0.0000000E+00  0.2525252E-01  0.2038434E-10  0.0000000E+00 -0.2563318E-04
  0.2979798E+00  0.0000000E+00  0.2525252E-01  0.2002258E-10  0.0000000E+00 -0.2563317E-04
  0.3080808E+00  0.0000000E+00  0.2525252E-01  0.1957321E-10  0.0000000E+00 -0.2563316E-04
  0.3181818E+00  0.0000000E+00  0.2525252E-01  0.1903695E-10  0.0000000E+00 -0.2563315E-04
  0.3282828E+00  0.0000000E+00  0.2525252E-01  0.1841484E-10  0.0000000E+00 -0.2563315E-04
  0.3383838E+00  0.0000000E+00  0.2525252E-01  0.1770845E-10  0.0000000E+00 -0.2563314E-04
  0.3484848E+00  0.0000000E+00  0.2525252E-01  0.1691985E-10  0.0000000E+00 -0.2563313E-04
  0.3585859E+00  0.0000000E+00  0.2525252E-01  0.1605165E-10  0.0000000E+00 -0.2563313E-04
  0.3686869E+00  0.0000000E+00  0.2525252E-01  0.1510703E-10  0.0000000E+00 -0.2563312E-04
  0.3787879E+00  0.0000000E+00  0.2525252E-01  0.1408966E-10  0.0000000E+00 -0.2563311E-04
  0.3888889E+00  0.0000000E+00  0.2525252E-01  0.1300357E-10  0.0000000E+00 -0.2563311E-04
  0.3989899E+00  0.0000000E+00  0.2525252E-01  0.1185290E-10  0.0000000E+00 -0.2563310E-04
  0.4090909E+00  0.0000000E+00  0.2525252E-01  0.1064241E-10  0.0000000E+00 -0.2563310E-04
  0.4191919E+00  0.0000000E+00  0.2525252E-01  0.9378734E-11  0.0000000E+00 -0.2563309E-04
  0.4292929E+00  0.0000000E+00  0.2525252E-01  0.8069760E-11  0.0000000E+00 -0.2563309E-04
  0.4393939E+00  0.0000000E+00  0.2525252E-01  0.6720066E-11  0.0000000E+00 -0.2563309E-04
  0.4494950E+00  0.0000000E+00  0.2525252E-01  0.5332084E-11  0.0000000E+00 -0.2563308E-04
  0.4595959E+00  0.0000000E+00  0.2525252E-01  0.3924089E-11  0.0000000E+00 -0.2563308E-04
  0.4696970E+00  0.0000000E+00  0.2525252E-01  0.2518788E-11  0.0000000E+00 -0.2563308E-04
  0.4797980E+00  0.0000000E+00  0.2525252E-01  0.1082134E-11  0.0000000E+00 -0.2563308E-04
  0.4898990E+00  0.0000000E+00  0.2525252E-01 -0.4089772E-12  0.0000000E+00 -0.2563308E-04
  0.5000000E+00  0.0000000E+00  0.2525252E-01 -0.1996356E-11  0.0000000E+00 -0.2563308E-04
  0.5101010E+00  0.0000000E+00  0.2525252E-01 -0.3475798E-11  0.0000000E+00 -0.2563308E-04
  0.5202020E+00  0.0000000E+00  0.2525252E-01 -0.4944955E-11  0.0000000E+00 -0.2563308E-04
  0.5303030E+00  0.0000000E+00  0.2525252E-01 -0.6247113E-11  0.0000000E+00 -0.2563309E-04
  0.5404040E+00  0.0000000E+00  0.2525252E-01 -0.7727673E-11  0.0000000E+00 -0.2563309E-04
  0.5505050E+00  0.0000000E+00  0.2525252E-01 -0.8934909E-11  0.0000000E+00 -0.2563309E-04
  0.5606061E+00  0.0000000E+00  0.2525252E-01 -0.1035500E-10  0.0000000E+00 -0.2563310E-04
  0.5707071E+00  0.0000000E+00  0.2525252E-01 -0.1163161E-10  0.0000000E+00 -0.2563310E-04
  0.5808081E+00  0.0000000E+00  0.2525252E-01 -0.1274251E-10  0.0000000E+00 -0.2563311E-04
  0.5909091E+00  0.0000000E+00  0.2525252E-01 -0.1394243E-10  0.0000000E+00 -0.2563311E-04
  0.6010101E+00  0.0000000E+00  0.2525252E-01 -0.1507953E-10  0.0000000E+00 -0.2563312E-04
  0.6111111E+00  0.0000000E+00  0.2525252E-01 -0.1608139E-10  0.0000000E+00 -0.2563312E-04
  0.6212121E+00  0.0000000E+00  0.2525252E-01 -0.1701726E-10  0.0000000E+00 -0.2563313E-04
  0.6313131E+00  0.0000000E+00  0.2525252E-01 -0.1790781E-10  0.0000000E+00 -0.2563314E-04
  0.6414142E+00  0.0000000E+00  0.2525252E-01 -0.1872003E-10  0.0000000E+00 -0.2563315E-04
  0.6515151E+00  0.0000000E+00  0.2525252E-01 -0.1943585E-10  0.0000000E+00 -0.2563315E-04
  0.6616161E+00  0.0000000E+00  0.2525252E-01 -0.2006113E-10  0.0000000E+00 -0.2563316E-04
  0.6717172E+00  0.0000000E+00  0.2525252E-01 -0.2060223E-10  0.0000000E+00 -0.2563317E-04
  0.6818182E+00  0.0000000E+00  0.2525252E-01 -0.2105703E-10  0.0000000E+00 -0.2563318E-04
  0.6919192E+00  0.0000000E+00  0.2525252E-01 -0.2142124E-10  0.0000000E+00 -0.2563319E-04
  0.7020202E+00  0.0000000E+00  0.2525252E-01 -0.2169410E-10  0.0000000E+00 -0.2563320E-04
  0.7121212E+00  0.0000000E+00  0.2525252E-01 -0.2187819E-10  0.0000000E+00 -0.2563321E-04
  0.7222222E+00  0.0000000E+00  0.2525252E-01 -0.2197675E-10  0.0000000E+00 -0.2563321E-04
  0.7323232E+00  0.0000000E+00  0.2525252E-01 -0.2199242E-10  0.0000000E+00 -0.2563322E-04
  0.7424242E+00  0.0000000E+00  0.2525252E-01 -0.2192736E-10  0.0000000E+00 -0.2563323E-04
  0.7525253E+00  0.0000000E+00  0.2525252E-01 -0.2178372E-10  0.0000000E+00 -0.2563324E-04
  0.7626263E+00  0.0000000E+00  0.2525252E-01 -0.2156385E-10  0.0000000E+00 -0.2563325E-04
  0.7727273E+00  0.0000000E+00  0.2525252E-01 -0.2126992E-10  0.0000000E+00 -0.2563326E-04
  0.7828283E+00  0.0000000E+00  0.2525252E-01 -0.2090370E-10  0.0000000E+00 -0.2563327E-04
  0.7929293E+00  0.0000000E+00  0.2525252E-01 -0.2046658E-10  0.0000000E+00 -0.2563328E-04
  0.8030303E+00  0.0000000E+00  0.2525252E-01 -0.1995965E-10  0.0000000E+00 -0.2563329E-04
  0.8131313E+00  0.0000000E+00  0.2525252E-01 -0.1938405E-10  0.0000000E+00 -0.2563329E-04
  0.8232324E+00  0.0000000E+00  0.2525252E-01 -0.1874113E-10  0.0000000E+00 -0.2563330E-04
  0.8333333E+00  0.0000000E+00  0.2525252E-01 -0.1803263E-10  0.0000000E+00 -0.2563331E-04
  0.8434343E+00  0.0000000E+00  0.2525252E-01 -0.1726083E-10  0.0000000E+00 -0.2563332E-04
  0.8535354E+00  0.0000000E+00  0.2525252E-01 -0.1642854E-10  0.0000000E+00 -0.2563332E-04
  0.8636364E+00  0.0000000E+00  0.2525252E-01 -0.1553912E-10  0.0000000E+00 -0.2563333E-04
  0.8737374E+00  0.0000000E+00  0.2525252E-01 -0.1459642E-10  0.0000000E+00 -0.2563334E-04
  0.8838384E+00  0.0000000E+00  0.2525252E-01 -0.1360472E-10  0.0000000E+00 -0.2563334E-04
  0.8939394E+00  0.0000000E+00  0.2525252E-01 -0.1256842E-10  0.0000000E+00 -0.2563335E-04
  0.9040404E+00  0.0000000E+00  0.2525252E-01 -0.1149184E-10  0.0000000E+00 -0.2563335E-04
  0.9141414E+00  0.0000000E+00  0.2525252E-01 -0.1037896E-10  0.0000000E+00 -0.2563336E-04
  0.9242424E+00  0.0000000E+00  0.2525252E-01 -0.9233619E-11  0.0000000E+00 -0.2563336E-04
  0.9343435E+00  0.0000000E+00  0.2525252E-01 -0.8059609E-11  0.0000000E+00 -0.2563336E-04
  0.9444444E+00  0.0000000E+00  0.2525252E-01 -0.6859919E-11  0.0000000E+00 -0.2563337E-04
  0.9545454E+00  0.0000000E+00  0.2525252E-01 -0.5638122E-11  0.0000000E+00 -0.2563337E-04
  0.9646465E+00  0.0000000E+00  0.2525252E-01 -0.4402214E-11  0.0000000E+00 -0.2563337E-04
  0.9747475E+00  0.0000000E+00  0.2525252E-01 -0.3150157E-11  0.0000000E+00 -0.2563337E-04
  0.9848485E+00  0.0000000E+00  0.2525252E-01 -0.1878428E-11  0.0000000E+00 -0.2563337E-04
  0.9974747E+00  0.0000000E+00  0.2525252E-01 -0.6441202E-12  0.0000000E+00 -0.2563337E-04
  0.5050505E-02  0.0000000E+00  0.3535353E-01  0.9700753E-12  0.0000000E+00 -0.2543244E-04
  0.1515152E-01  0.0000000E+00  0.3535353E-01  0.2689568E-11  0.0000000E+00 -0.2543244E-04
  0.2525252E-01  0.0000000E+00  0.3535353E-01  0.4550746E-11  0.0000000E+00 -0.2543244E-04
  0.3535353E-01  0.0000000E+00  0.3535353E-01  0.6504392E-11  0.0000000E+00 -0.2543244E-04
  0.4545455E-01  0.0000000E+00  0.3535353E-01  0.8189747E-11  0.0000000E+00 -0.2543244E-04
  0.5555556E-01  0.0000000E+00  0.3535353E-01  0.1004724E-10  0.0000000E+00 -0.2543244E-04
  0.6565657E-01  0.0000000E+00  0.3535353E-01  0.1161632E-10  0.0000000E+00 -0.2543243E-04
  0.7575758E-01  0.0000000E+00  0.3535353E-01  0.1341560E-10  0.0000000E+00 -0.2543243E-04
  0.8585858E-01  0.0000000E+00  0.3535353E-01  0.1504380E-10  0.0000000E+00 -0.2543242E-04
  0.9595960E-01  0.0000000E+00  0.3535353E-01  0.1647897E-10  0.0000000E+00 -0.2543242E-04
  0.1060606E+00  0.0000000E+00  0.3535353E-01  0.1802816E-10  0.0000000E+00 -0.2543241E-04
  0.1161616E+00  0.0000000E+00  0.3535353E-01  0.1951843E-10  0.0000000E+00 -0.2543241E-04
  0.1262626E+00  0.0000000E+00  0.3535353E-01  0.2085219E-10  0.0000000E+00 -0.2543240E-04
  0.1363636E+00  0.0000000E+00  0.3535353E-01  0.2211378E-10  0.0000000E+00 -0.2543240E-04
  0.1464646E+00  0.0000000E+00  0.3535353E-01  0.2333180E-10  0.0000000E+00 -0.2543239E-04
  0.1565657E+00  0.0000000E+00  0.3535353E-01  0.2446449E-10  0.0000000E+00 -0.2543238E-04
  0.1666667E+00  0.0000000E+00  0.3535353E-01  0.2548690E-10  0.0000000E+00 -0.2543237E-04
  0.1767677E+00  0.0000000E+00  0.3535353E-01  0.2640425E-10  0.0000000E+00 -0.2543237E-04
  0.1868687E+00  0.0000000E+00  0.3535353E-01  0.2722216E-10  0.0000000E+00 -0.2543236E-04
  0.1969697E+00  0.0000000E+00  0.3535353E-01  0.2793485E-10  0.0000000E+00 -0.2543235E-04
  0.2070707E+00  0.0000000E+00  0.3535353E-01  0.2853311E-10  0.0000000E+00 -0.2543234E-04
  0.2171717E+00  0.0000000E+00  0.3535353E-01  0.2901181E-10  0.0000000E+00 -0.2543233E-04
  0.2272727E+00  0.0000000E+00  0.3535353E-01  0.2936973E-10  0.0000000E+00 -0.2543232E-04
  0.2373737E+00  0.0000000E+00  0.3535353E-01  0.2960633E-10  0.0000000E+00 -0.2543231E-04
  0.2474747E+00  0.0000000E+00  0.3535353E-01  0.2972032E-10  0.0000000E+00 -0.2543231E-04
  0.2575758E+00  0.0000000E+00  0.3535353E-01  0.2971001E-10  0.0000000E+00 -0.2543230E-04
  0.2676768E+00  0.0000000E+00  0.3535353E-01  0.2957424E-10  0.0000000E+00 -0.2543229E-04
  0.2777778E+00  0.0000000E+00  0.3535353E-01  0.2931262E-10  0.0000000E+00 -0.2543228E-04
  0.2878788E+00  0.0000000E+00  0.3535353E-01  0.2892535E-10  0.0000000E+00 -0.2543227E-04
  0.2979798E+00  0.0000000E+00  0.3535353E-01  0.2841285E-10  0.0000000E+00 -0.2543226E-04