title = "dataset water"
variables = "x", "y", "z", "vx", "vy", "vz"
zone t = "velocities, solution time =  2.800E+01 days        " i =   99, j =   99, k =    1,  f=point
  0.5050505E-02  0.0000000E+00  0.5050505E-02  0.9656761E-11  0.0000000E+00 -0.1076257E-04
  0.1515152E-01  0.0000000E+00  0.5050505E-02  0.2897381E-10  0.0000000E+00 -0.1076253E-04
  0.2525252E-01  0.0000000E+00  0.5050505E-02  0.4817446E-10  0.0000000E+00 -0.1076246E-04
  0.3535353E-01  0.0000000E+00  0.5050505E-02  0.6716830E-10  0.0000000E+00 -0.1076234E-04
  0.4545455E-01  0.0000000E+00  0.5050505E-02  0.8587897E-10  0.0000000E+00 -0.1076219E-04
  0.5555556E-01  0.0000000E+00  0.5050505E-02  0.1042322E-09  0.0000000E+00 -0.1076200E-04
  0.6565657E-01  0.0000000E+00  0.5050505E-02  0.1221448E-09  0.0000000E+00 -0.1076177E-04
  0.7575758E-01  0.0000000E+00  0.5050505E-02  0.1395447E-09  0.0000000E+00 -0.1076151E-04
  0.8585858E-01  0.0000000E+00  0.5050505E-02  0.1563544E-09  0.0000000E+00 -0.1076121E-04
  0.9595960E-01  0.0000000E+00  0.5050505E-02  0.1724996E-09  0.0000000E+00 -0.1076088E-04
  0.1060606E+00  0.0000000E+00  0.5050505E-02  0.1879099E-09  0.0000000E+00 -0.1076052E-04
  0.1161616E+00  0.0000000E+00  0.5050505E-02  0.2025146E-09  0.0000000E+00 -0.1076013E-04
  0.1262626E+00  0.0000000E+00  0.5050505E-02  0.2162466E-09  0.0000000E+00 -0.1075971E-04
  0.1363636E+00  0.0000000E+00  0.5050505E-02  0.2290417E-09  0.0000000E+00 -0.1075927E-04
  0.1464646E+00  0.0000000E+00  0.5050505E-02  0.2408383E-09  0.0000000E+00 -0.1075879E-04
  0.1565657E+00  0.0000000E+00  0.5050505E-02  0.2515784E-09  0.0000000E+00 -0.1075830E-04
  0.1666667E+00  0.0000000E+00  0.5050505E-02  0.2612079E-09  0.0000000E+00 -0.1075779E-04
  0.1767677E+00  0.0000000E+00  0.5050505E-02  0.2696764E-09  0.0000000E+00 -0.1075726E-04
  0.1868687E+00  0.0000000E+00  0.5050505E-02  0.2769382E-09  0.0000000E+00 -0.1075671E-04
  0.1969697E+00  0.0000000E+00  0.5050505E-02  0.2829523E-09  0.0000000E+00 -0.1075615E-04
  0.2070707E+00  0.0000000E+00  0.5050505E-02  0.2876824E-09  0.0000000E+00 -0.1075558E-04
  0.2171717E+00  0.0000000E+00  0.5050505E-02  0.2910981E-09  0.0000000E+00 -0.1075500E-04
  0.2272727E+00  0.0000000E+00  0.5050505E-02  0.2931740E-09  0.0000000E+00 -0.1075441E-04
  0.2373737E+00  0.0000000E+00  0.5050505E-02  0.2938912E-09  0.0000000E+00 -0.1075382E-04
  0.2474747E+00  0.0000000E+00  0.5050505E-02  0.2932365E-09  0.0000000E+00 -0.1075324E-04
  0.2575758E+00  0.0000000E+00  0.5050505E-02  0.2912034E-09  0.0000000E+00 -0.1075265E-04
  0.2676768E+00  0.0000000E+00  0.5050505E-02  0.2877916E-09  0.0000000E+00 -0.1075207E-04
  0.2777778E+00  0.0000000E+00  0.5050505E-02  0.2830078E-09  0.0000000E+00 -0.1075150E-04
  0.2878788E+00  0.0000000E+00  0.5050505E-02  0.2768653E-09  0.0000000E+00 -0.1075094E-04
  0.2979798E+00  0.0000000E+00  0.5050505E-02  0.2693843E-09  0.0000000E+00 -0.1075039E-04
  0.3080808E+00  0.0000000E+00  0.5050505E-02  0.2605917E-09  0.0000000E+00 -0.1074986E-04
  0.3181818E+00  0.0000000E+00  0.5050505E-02  0.2505215E-09  0.0000000E+00 -0.1074935E-04
  0.3282828E+00  0.0000000E+00  0.5050505E-02  0.2392142E-09  0.0000000E+00 -0.1074886E-04
  0.3383838E+00  0.0000000E+00  0.5050505E-02  0.2267166E-09  0.0000000E+00 -0.1074839E-04
  0.3484848E+00  0.0000000E+00  0.5050505E-02  0.2130823E-09  0.0000000E+00 -0.1074795E-04
  0.3585859E+00  0.0000000E+00  0.5050505E-02  0.1983708E-09  0.0000000E+00 -0.1074754E-04
  0.3686869E+00  0.0000000E+00  0.5050505E-02  0.1826472E-09  0.0000000E+00 -0.1074716E-04
  0.3787879E+00  0.0000000E+00  0.5050505E-02  0.1659824E-09  0.0000000E+00 -0.1074681E-04
  0.3888889E+00  0.0000000E+00  0.5050505E-02  0.1484520E-09  0.0000000E+00 -0.1074650E-04
  0.3989899E+00  0.0000000E+00  0.5050505E-02  0.1301365E-09  0.0000000E+00 -0.1074622E-04
  0.4090909E+00  0.0000000E+00  0.5050505E-02  0.1111204E-09  0.0000000E+00 -0.1074598E-04
  0.4191919E+00  0.0000000E+00  0.5050505E-02  0.9149195E-10  0.0000000E+00 -0.1074577E-04
  0.4292929E+00  0.0000000E+00  0.5050505E-02  0.7134238E-10  0.0000000E+00 -0.1074561E-04
  0.4393939E+00  0.0000000E+00  0.5050505E-02  0.5076549E-10  0.0000000E+00 -0.1074549E-04
  0.4494950E+00  0.0000000E+00  0.5050505E-02  0.2985700E-10  0.0000000E+00 -0.1074541E-04
  0.4595959E+00  0.0000000E+00  0.5050505E-02  0.8713876E-11  0.0000000E+00 -0.1074537E-04
  0.4696970E+00  0.0000000E+00  0.5050505E-02 -0.1256858E-10  0.0000000E+00 -0.1074537E-04
  0.4797980E+00  0.0000000E+00  0.5050505E-02 -0.3389034E-10  0.0000000E+00 -0.1074542E-04
  0.4898990E+00  0.0000000E+00  0.5050505E-02 -0.5514728E-10  0.0000000E+00 -0.1074551E-04
  0.5000000E+00  0.0000000E+00  0.5050505E-02 -0.7624809E-10  0.0000000E+00 -0.1074564E-04
  0.5101010E+00  0.0000000E+00  0.5050505E-02 -0.9709591E-10  0.0000000E+00 -0.1074581E-04
  0.5202020E+00  0.0000000E+00  0.5050505E-02 -0.1176015E-09  0.0000000E+00 -0.1074603E-04
  0.5303030E+00  0.0000000E+00  0.5050505E-02 -0.1376681E-09  0.0000000E+00 -0.1074628E-04
  0.5404040E+00  0.0000000E+00  0.5050505E-02 -0.1572124E-09  0.0000000E+00 -0.1074658E-04
  0.5505050E+00  0.0000000E+00  0.5050505E-02 -0.1761481E-09  0.0000000E+00 -0.1074691E-04
  0.5606061E+00  0.0000000E+00  0.5050505E-02 -0.1943942E-09  0.0000000E+00 -0.1074728E-04
  0.5707071E+00  0.0000000E+00  0.5050505E-02 -0.2118762E-09  0.0000000E+00 -0.1074769E-04
  0.5808081E+00  0.0000000E+00  0.5050505E-02 -0.2285220E-09  0.0000000E+00 -0.1074813E-04
  0.5909091E+00  0.0000000E+00  0.5050505E-02 -0.2442651E-09  0.0000000E+00 -0.1074860E-04
  0.6010101E+00  0.0000000E+00  0.5050505E-02 -0.2590449E-09  0.0000000E+00 -0.1074911E-04
  0.6111111E+00  0.0000000E+00  0.5050505E-02 -0.2728056E-09  0.0000000E+00 -0.1074964E-04
  0.6212121E+00  0.0000000E+00  0.5050505E-02 -0.2854972E-09  0.0000000E+00 -0.1075020E-04
  0.6313131E+00  0.0000000E+00  0.5050505E-02 -0.2970759E-09  0.0000000E+00 -0.1075078E-04
  0.6414142E+00  0.0000000E+00  0.5050505E-02 -0.3075032E-09  0.0000000E+00 -0.1075139E-04
  0.6515151E+00  0.0000000E+00  0.5050505E-02 -0.3167469E-09  0.0000000E+00 -0.1075201E-04
  0.6616161E+00  0.0000000E+00  0.5050505E-02 -0.3247808E-09  0.0000000E+00 -0.1075266E-04
  0.6717172E+00  0.0000000E+00  0.5050505E-02 -0.3315843E-09  0.0000000E+00 -0.1075331E-04
  0.6818182E+00  0.0000000E+00  0.5050505E-02 -0.3371428E-09  0.0000000E+00 -0.1075398E-04
  0.6919192E+00  0.0000000E+00  0.5050505E-02 -0.3414474E-09  0.0000000E+00 -0.1075466E-04
  0.7020202E+00  0.0000000E+00  0.5050505E-02 -0.3444946E-09  0.0000000E+00 -0.1075535E-04
  0.7121212E+00  0.0000000E+00  0.5050505E-02 -0.3462864E-09  0.0000000E+00 -0.1075604E-04
  0.7222222E+00  0.0000000E+00  0.5050505E-02 -0.3468299E-09  0.0000000E+00 -0.1075673E-04
  0.7323232E+00  0.0000000E+00  0.5050505E-02 -0.3461370E-09  0.0000000E+00 -0.1075743E-04
  0.7424242E+00  0.0000000E+00  0.5050505E-02 -0.3442244E-09  0.0000000E+00 -0.1075812E-04
  0.7525253E+00  0.0000000E+00  0.5050505E-02 -0.3411130E-09  0.0000000E+00 -0.1075881E-04
  0.7626263E+00  0.0000000E+00  0.5050505E-02 -0.3368278E-09  0.0000000E+00 -0.1075949E-04
  0.7727273E+00  0.0000000E+00  0.5050505E-02 -0.3313977E-09  0.0000000E+00 -0.1076015E-04
  0.7828283E+00  0.0000000E+00  0.5050505E-02 -0.3248548E-09  0.0000000E+00 -0.1076081E-04
  0.7929293E+00  0.0000000E+00  0.5050505E-02 -0.3172346E-09  0.0000000E+00 -0.1076145E-04
  0.8030303E+00  0.0000000E+00  0.5050505E-02 -0.3085752E-09  0.0000000E+00 -0.1076208E-04
  0.8131313E+00  0.0000000E+00  0.5050505E-02 -0.2989176E-09  0.0000000E+00 -0.1076269E-04
  0.8232324E+00  0.0000000E+00  0.5050505E-02 -0.2883046E-09  0.0000000E+00 -0.1076328E-04
  0.8333333E+00  0.0000000E+00  0.5050505E-02 -0.2767813E-09  0.0000000E+00 -0.1076384E-04
  0.8434343E+00  0.0000000E+00  0.5050505E-02 -0.2643945E-09  0.0000000E+00 -0.1076438E-04
  0.8535354E+00  0.0000000E+00  0.5050505E-02 -0.2511923E-09  0.0000000E+00 -0.1076490E-04
  0.8636364E+00  0.0000000E+00  0.5050505E-02 -0.2372241E-09  0.0000000E+00 -0.1076539E-04
  0.8737374E+00  0.0000000E+00  0.5050505E-02 -0.2225404E-09  0.0000000E+00 -0.1076585E-04
  0.8838384E+00  0.0000000E+00  0.5050505E-02 -0.2071924E-09  0.0000000E+00 -0.1076628E-04
  0.8939394E+00  0.0000000E+00  0.5050505E-02 -0.1912321E-09  0.0000000E+00 -0.1076668E-04
  0.9040404E+00  0.0000000E+00  0.5050505E-02 -0.1747119E-09  0.0000000E+00 -0.1076705E-04
  0.9141414E+00  0.0000000E+00  0.5050505E-02 -0.1576845E-09  0.0000000E+00 -0.1076738E-04
  0.9242424E+00  0.0000000E+00  0.5050505E-02 -0.1402031E-09  0.0000000E+00 -0.1076768E-04
  0.9343435E+00  0.0000000E+00  0.5050505E-02 -0.1223210E-09  0.0000000E+00 -0.1076794E-04
  0.9444444E+00  0.0000000E+00  0.5050505E-02 -0.1040916E-09  0.0000000E+00 -0.1076817E-04
  0.9545454E+00  0.0000000E+00  0.5050505E-02 -0.8556839E-10  0.0000000E+00 -0.1076836E-04
  0.9646465E+00  0.0000000E+00  0.5050505E-02 -0.6680502E-10  0.0000000E+00 -0.1076851E-04
  0.9747475E+00  0.0000000E+00  0.5050505E-02 -0.4785534E-10  0.0000000E+00 -0.1076862E-04
  0.9848485E+00  0.0000000E+00  0.5050505E-02 -0.2877383E-10  0.0000000E+00 -0.1076870E-04
  0.9974747E+00  0.0000000E+00  0.5050505E-02 -0.9616856E-11  0.0000000E+00 -0.1076874E-04
  0.5050505E-02  0.0000000E+00  0.1515152E-01  0.2905933E-10  0.0000000E+00 -0.1074761E-04
  0.1515152E-01  0.0000000E+00  0.1515152E-01  0.8715806E-10  0.0000000E+00 -0.1074757E-04
  0.2525252E-01  0.0000000E+00  0.1515152E-01  0.1449100E-09  0.0000000E+00 -0.1074749E-04
  0.3535353E-01  0.0000000E+00  0.1515152E-01  0.2020443E-09  0.0000000E+00 -0.1074737E-04
  0.4545455E-01  0.0000000E+00  0.1515152E-01  0.2583262E-09  0.0000000E+00 -0.1074722E-04
  0.5555556E-01  0.0000000E+00  0.1515152E-01  0.3135337E-09  0.0000000E+00 -0.1074703E-04
  0.6565657E-01  0.0000000E+00  0.1515152E-01  0.3674179E-09  0.0000000E+00 -0.1074680E-04
  0.7575758E-01  0.0000000E+00  0.1515152E-01  0.4197587E-09  0.0000000E+00 -0.1074653E-04
  0.8585858E-01  0.0000000E+00  0.1515152E-01  0.4703257E-09  0.0000000E+00 -0.1074623E-04
  0.9595960E-01  0.0000000E+00  0.1515152E-01  0.5188949E-09  0.0000000E+00 -0.1074590E-04
  0.1060606E+00  0.0000000E+00  0.1515152E-01  0.5652537E-09  0.0000000E+00 -0.1074554E-04
  0.1161616E+00  0.0000000E+00  0.1515152E-01  0.6091904E-09  0.0000000E+00 -0.1074514E-04
  0.1262626E+00  0.0000000E+00  0.1515152E-01  0.6505027E-09  0.0000000E+00 -0.1074472E-04
  0.1363636E+00  0.0000000E+00  0.1515152E-01  0.6889971E-09  0.0000000E+00 -0.1074427E-04
  0.1464646E+00  0.0000000E+00  0.1515152E-01  0.7244889E-09  0.0000000E+00 -0.1074379E-04
  0.1565657E+00  0.0000000E+00  0.1515152E-01  0.7568033E-09  0.0000000E+00 -0.1074329E-04
  0.1666667E+00  0.0000000E+00  0.1515152E-01  0.7857771E-09  0.0000000E+00 -0.1074277E-04
  0.1767677E+00  0.0000000E+00  0.1515152E-01  0.8112592E-09  0.0000000E+00 -0.1074224E-04
  0.1868687E+00  0.0000000E+00  0.1515152E-01  0.8331116E-09  0.0000000E+00 -0.1074168E-04
  0.1969697E+00  0.0000000E+00  0.1515152E-01  0.8512107E-09  0.0000000E+00 -0.1074111E-04
  0.2070707E+00  0.0000000E+00  0.1515152E-01  0.8654477E-09  0.0000000E+00 -0.1074054E-04
  0.2171717E+00  0.0000000E+00  0.1515152E-01  0.8757302E-09  0.0000000E+00 -0.1073995E-04
  0.2272727E+00  0.0000000E+00  0.1515152E-01  0.8819826E-09  0.0000000E+00 -0.1073936E-04
  0.2373737E+00  0.0000000E+00  0.1515152E-01  0.8841470E-09  0.0000000E+00 -0.1073876E-04
  0.2474747E+00  0.0000000E+00  0.1515152E-01  0.8821842E-09  0.0000000E+00 -0.1073817E-04
  0.2575758E+00  0.0000000E+00  0.1515152E-01  0.8760740E-09  0.0000000E+00 -0.1073758E-04
  0.2676768E+00  0.0000000E+00  0.1515152E-01  0.8658158E-09  0.0000000E+00 -0.1073699E-04
  0.2777778E+00  0.0000000E+00  0.1515152E-01  0.8514295E-09  0.0000000E+00 -0.1073641E-04
  0.2878788E+00  0.0000000E+00  0.1515152E-01  0.8329550E-09  0.0000000E+00 -0.1073585E-04
  0.2979798E+00  0.0000000E+00  0.1515152E-01  0.8104529E-09  0.0000000E+00 -0.1073529E-04
  0.3080808E+00  0.0000000E+00  0.1515152E-01  0.7840045E-09  0.0000000E+00 -0.1073476E-04
  0.3181818E+00  0.0000000E+00  0.1515152E-01  0.7537115E-09  0.0000000E+00 -0.1073424E-04
  0.3282828E+00  0.0000000E+00  0.1515152E-01  0.7196957E-09  0.0000000E+00 -0.1073374E-04
  0.3383838E+00  0.0000000E+00  0.1515152E-01  0.6820986E-09  0.0000000E+00 -0.1073327E-04
  0.3484848E+00  0.0000000E+00  0.1515152E-01  0.6410809E-09  0.0000000E+00 -0.1073283E-04
  0.3585859E+00  0.0000000E+00  0.1515152E-01  0.5968216E-09  0.0000000E+00 -0.1073241E-04
  0.3686869E+00  0.0000000E+00  0.1515152E-01  0.5495171E-09  0.0000000E+00 -0.1073202E-04
  0.3787879E+00  0.0000000E+00  0.1515152E-01  0.4993802E-09  0.0000000E+00 -0.1073167E-04
  0.3888889E+00  0.0000000E+00  0.1515152E-01  0.4466391E-09  0.0000000E+00 -0.1073135E-04
  0.3989899E+00  0.0000000E+00  0.1515152E-01  0.3915356E-09  0.0000000E+00 -0.1073107E-04
  0.4090909E+00  0.0000000E+00  0.1515152E-01  0.3343243E-09  0.0000000E+00 -0.1073083E-04
  0.4191919E+00  0.0000000E+00  0.1515152E-01  0.2752706E-09  0.0000000E+00 -0.1073062E-04
  0.4292929E+00  0.0000000E+00  0.1515152E-01  0.2146495E-09  0.0000000E+00 -0.1073045E-04
  0.4393939E+00  0.0000000E+00  0.1515152E-01  0.1527430E-09  0.0000000E+00 -0.1073033E-04
  0.4494950E+00  0.0000000E+00  0.1515152E-01  0.8983901E-10  0.0000000E+00 -0.1073025E-04
  0.4595959E+00  0.0000000E+00  0.1515152E-01  0.2622834E-10  0.0000000E+00 -0.1073021E-04
  0.4696970E+00  0.0000000E+00  0.1515152E-01 -0.3779811E-10  0.0000000E+00 -0.1073021E-04
  0.4797980E+00  0.0000000E+00  0.1515152E-01 -0.1019414E-09  0.0000000E+00 -0.1073026E-04
  0.4898990E+00  0.0000000E+00  0.1515152E-01 -0.1658905E-09  0.0000000E+00 -0.1073035E-04
  0.5000000E+00  0.0000000E+00  0.1515152E-01 -0.2293704E-09  0.0000000E+00 -0.1073048E-04
  0.5101010E+00  0.0000000E+00  0.1515152E-01 -0.2920861E-09  0.0000000E+00 -0.1073066E-04
  0.5202020E+00  0.0000000E+00  0.1515152E-01 -0.3537711E-09  0.0000000E+00 -0.1073088E-04
  0.5303030E+00  0.0000000E+00  0.1515152E-01 -0.4141353E-09  0.0000000E+00 -0.1073114E-04
  0.5404040E+00  0.0000000E+00  0.1515152E-01 -0.4729251E-09  0.0000000E+00 -0.1073143E-04
  0.5505050E+00  0.0000000E+00  0.1515152E-01 -0.5298834E-09  0.0000000E+00 -0.1073177E-04
  0.5606061E+00  0.0000000E+00  0.1515152E-01 -0.5847661E-09  0.0000000E+00 -0.1073215E-04
  0.5707071E+00  0.0000000E+00  0.1515152E-01 -0.6373483E-09  0.0000000E+00 -0.1073256E-04
  0.5808081E+00  0.0000000E+00  0.1515152E-01 -0.6874134E-09  0.0000000E+00 -0.1073300E-04
  0.5909091E+00  0.0000000E+00  0.1515152E-01 -0.7347619E-09  0.0000000E+00 -0.1073348E-04
  0.6010101E+00  0.0000000E+00  0.1515152E-01 -0.7792108E-09  0.0000000E+00 -0.1073399E-04
  0.6111111E+00  0.0000000E+00  0.1515152E-01 -0.8205929E-09  0.0000000E+00 -0.1073453E-04
  0.6212121E+00  0.0000000E+00  0.1515152E-01 -0.8587580E-09  0.0000000E+00 -0.1073510E-04
  0.6313131E+00  0.0000000E+00  0.1515152E-01 -0.8935736E-09  0.0000000E+00 -0.1073569E-04
  0.6414142E+00  0.0000000E+00  0.1515152E-01 -0.9249249E-09  0.0000000E+00 -0.1073630E-04
  0.6515151E+00  0.0000000E+00  0.1515152E-01 -0.9527151E-09  0.0000000E+00 -0.1073693E-04
  0.6616161E+00  0.0000000E+00  0.1515152E-01 -0.9768650E-09  0.0000000E+00 -0.1073758E-04
  0.6717172E+00  0.0000000E+00  0.1515152E-01 -0.9973132E-09  0.0000000E+00 -0.1073824E-04
  0.6818182E+00  0.0000000E+00  0.1515152E-01 -0.1014016E-08  0.0000000E+00 -0.1073892E-04
  0.6919192E+00  0.0000000E+00  0.1515152E-01 -0.1026947E-08  0.0000000E+00 -0.1073961E-04
  0.7020202E+00  0.0000000E+00  0.1515152E-01 -0.1036095E-08  0.0000000E+00 -0.1074030E-04
  0.7121212E+00  0.0000000E+00  0.1515152E-01 -0.1041468E-08  0.0000000E+00 -0.1074100E-04
  0.7222222E+00  0.0000000E+00  0.1515152E-01 -0.1043085E-08  0.0000000E+00 -0.1074170E-04
  0.7323232E+00  0.0000000E+00  0.1515152E-01 -0.1040985E-08  0.0000000E+00 -0.1074240E-04
  0.7424242E+00  0.0000000E+00  0.1515152E-01 -0.1035216E-08  0.0000000E+00 -0.1074310E-04
  0.7525253E+00  0.0000000E+00  0.1515152E-01 -0.1025843E-08  0.0000000E+00 -0.1074379E-04
  0.7626263E+00  0.0000000E+00  0.1515152E-01 -0.1012940E-08  0.0000000E+00 -0.1074448E-04
  0.7727273E+00  0.0000000E+00  0.1515152E-01 -0.9965938E-09  0.0000000E+00 -0.1074515E-04
  0.7828283E+00  0.0000000E+00  0.1515152E-01 -0.9769026E-09  0.0000000E+00 -0.1074582E-04
  0.7929293E+00  0.0000000E+00  0.1515152E-01 -0.9539724E-09  0.0000000E+00 -0.1074647E-04
  0.8030303E+00  0.0000000E+00  0.1515152E-01 -0.9279186E-09  0.0000000E+00 -0.1074710E-04
  0.8131313E+00  0.0000000E+00  0.1515152E-01 -0.8988637E-09  0.0000000E+00 -0.1074772E-04
  0.8232324E+00  0.0000000E+00  0.1515152E-01 -0.8669375E-09  0.0000000E+00 -0.1074831E-04
  0.8333333E+00  0.0000000E+00  0.1515152E-01 -0.8322754E-09  0.0000000E+00 -0.1074888E-04
  0.8434343E+00  0.0000000E+00  0.1515152E-01 -0.7950180E-09  0.0000000E+00 -0.1074943E-04
  0.8535354E+00  0.0000000E+00  0.1515152E-01 -0.7553102E-09  0.0000000E+00 -0.1074995E-04
  0.8636364E+00  0.0000000E+00  0.1515152E-01 -0.7133007E-09  0.0000000E+00 -0.1075044E-04
  0.8737374E+00  0.0000000E+00  0.1515152E-01 -0.6691411E-09  0.0000000E+00 -0.1075091E-04
  0.8838384E+00  0.0000000E+00  0.1515152E-01 -0.6229857E-09  0.0000000E+00 -0.1075134E-04
  0.8939394E+00  0.0000000E+00  0.1515152E-01 -0.5749905E-09  0.0000000E+00 -0.1075175E-04
  0.9040404E+00  0.0000000E+00  0.1515152E-01 -0.5253132E-09  0.0000000E+00 -0.1075211E-04
  0.9141414E+00  0.0000000E+00  0.1515152E-01 -0.4741124E-09  0.0000000E+00 -0.1075245E-04
  0.9242424E+00  0.0000000E+00  0.1515152E-01 -0.4215477E-09  0.0000000E+00 -0.1075275E-04
  0.9343435E+00  0.0000000E+00  0.1515152E-01 -0.3677791E-09  0.0000000E+00 -0.1075302E-04
  0.9444444E+00  0.0000000E+00  0.1515152E-01 -0.3129673E-09  0.0000000E+00 -0.1075325E-04
  0.9545454E+00  0.0000000E+00  0.1515152E-01 -0.2572729E-09  0.0000000E+00 -0.1075344E-04
  0.9646465E+00  0.0000000E+00  0.1515152E-01 -0.2008570E-09  0.0000000E+00 -0.1075359E-04
  0.9747475E+00  0.0000000E+00  0.1515152E-01 -0.1438809E-09  0.0000000E+00 -0.1075371E-04
  0.9848485E+00  0.0000000E+00  0.1515152E-01 -0.8650693E-10  0.0000000E+00 -0.1075379E-04
  0.9974747E+00  0.0000000E+00  0.1515152E-01 -0.2890035E-10  0.0000000E+00 -0.1075382E-04
  0.5050505E-02  0.0000000E+00  0.2525252E-01  0.4873851E-10  0.0000000E+00 -0.1071774E-04
  0.1515152E-01  0.0000000E+00  0.2525252E-01  0.1461340E-09  0.0000000E+00 -0.1071770E-04
  0.2525252E-01  0.0000000E+00  0.2525252E-01  0.2429493E-09  0.0000000E+00 -0.1071762E-04
  0.3535353E-01  0.0000000E+00  0.2525252E-01  0.3387381E-09  0.0000000E+00 -0.1071750E-04
  0.4545455E-01  0.0000000E+00  0.2525252E-01  0.4330986E-09  0.0000000E+00 -0.1071734E-04
  0.5555556E-01  0.0000000E+00  0.2525252E-01  0.5256588E-09  0.0000000E+00 -0.1071714E-04
  0.6565657E-01  0.0000000E+00  0.2525252E-01  0.6160054E-09  0.0000000E+00 -0.1071691E-04
  0.7575758E-01  0.0000000E+00  0.2525252E-01  0.7037640E-09  0.0000000E+00 -0.1071664E-04
  0.8585858E-01  0.0000000E+00  0.2525252E-01  0.7885521E-09  0.0000000E+00 -0.1071633E-04
  0.9595960E-01  0.0000000E+00  0.2525252E-01  0.8699941E-09  0.0000000E+00 -0.1071599E-04
  0.1060606E+00  0.0000000E+00  0.2525252E-01  0.9477317E-09  0.0000000E+00 -0.1071562E-04
  0.1161616E+00  0.0000000E+00  0.2525252E-01  0.1021412E-08  0.0000000E+00 -0.1071522E-04
  0.1262626E+00  0.0000000E+00  0.2525252E-01  0.1090694E-08  0.0000000E+00 -0.1071478E-04
  0.1363636E+00  0.0000000E+00  0.2525252E-01  0.1155254E-08  0.0000000E+00 -0.1071432E-04
  0.1464646E+00  0.0000000E+00  0.2525252E-01  0.1214783E-08  0.0000000E+00 -0.1071384E-04
  0.1565657E+00  0.0000000E+00  0.2525252E-01  0.1268985E-08  0.0000000E+00 -0.1071333E-04
  0.1666667E+00  0.0000000E+00  0.2525252E-01  0.1317589E-08  0.0000000E+00 -0.1071280E-04
  0.1767677E+00  0.0000000E+00  0.2525252E-01  0.1360340E-08  0.0000000E+00 -0.1071225E-04
  0.1868687E+00  0.0000000E+00  0.2525252E-01  0.1397006E-08  0.0000000E+00 -0.1071168E-04
  0.1969697E+00  0.0000000E+00  0.2525252E-01  0.1427379E-08  0.0000000E+00 -0.1071110E-04
  0.2070707E+00  0.0000000E+00  0.2525252E-01  0.1451277E-08  0.0000000E+00 -0.1071051E-04
  0.2171717E+00  0.0000000E+00  0.2525252E-01  0.1468543E-08  0.0000000E+00 -0.1070991E-04
  0.2272727E+00  0.0000000E+00  0.2525252E-01  0.1479052E-08  0.0000000E+00 -0.1070931E-04
  0.2373737E+00  0.0000000E+00  0.2525252E-01  0.1482705E-08  0.0000000E+00 -0.1070870E-04
  0.2474747E+00  0.0000000E+00  0.2525252E-01  0.1479436E-08  0.0000000E+00 -0.1070809E-04
  0.2575758E+00  0.0000000E+00  0.2525252E-01  0.1469210E-08  0.0000000E+00 -0.1070749E-04
  0.2676768E+00  0.0000000E+00  0.2525252E-01  0.1452027E-08  0.0000000E+00 -0.1070689E-04
  0.2777778E+00  0.0000000E+00  0.2525252E-01  0.1427920E-08  0.0000000E+00 -0.1070629E-04
  0.2878788E+00  0.0000000E+00  0.2525252E-01  0.1396954E-08  0.0000000E+00 -0.1070571E-04
  0.2979798E+00  0.0000000E+00  0.2525252E-01  0.1359231E-08  0.0000000E+00 -0.1070515E-04
  0.3080808E+00  0.0000000E+00  0.2525252E-01  0.1314888E-08  0.0000000E+00 -0.1070460E-04
  0.3181818E+00  0.0000000E+00  0.2525252E-01  0.1264095E-08  0.0000000E+00 -0.1070407E-04
  0.3282828E+00  0.0000000E+00  0.2525252E-01  0.1207056E-08  0.0000000E+00 -0.1070356E-04
  0.3383838E+00  0.0000000E+00  0.2525252E-01  0.1144008E-08  0.0000000E+00 -0.1070308E-04
  0.3484848E+00  0.0000000E+00  0.2525252E-01  0.1075221E-08  0.0000000E+00 -0.1070262E-04
  0.3585859E+00  0.0000000E+00  0.2525252E-01  0.1000996E-08  0.0000000E+00 -0.1070220E-04
  0.3686869E+00  0.0000000E+00  0.2525252E-01  0.9216619E-09  0.0000000E+00 -0.1070180E-04
  0.3787879E+00  0.0000000E+00  0.2525252E-01  0.8375761E-09  0.0000000E+00 -0.1070144E-04
  0.3888889E+00  0.0000000E+00  0.2525252E-01  0.7491213E-09  0.0000000E+00 -0.1070112E-04
  0.3989899E+00  0.0000000E+00  0.2525252E-01  0.6567038E-09  0.0000000E+00 -0.1070083E-04
  0.4090909E+00  0.0000000E+00  0.2525252E-01  0.5607508E-09  0.0000000E+00 -0.1070058E-04
  0.4191919E+00  0.0000000E+00  0.2525252E-01  0.4617080E-09  0.0000000E+00 -0.1070037E-04
  0.4292929E+00  0.0000000E+00  0.2525252E-01  0.3600371E-09  0.0000000E+00 -0.1070020E-04
  0.4393939E+00  0.0000000E+00  0.2525252E-01  0.2562118E-09  0.0000000E+00 -0.1070007E-04
  0.4494950E+00  0.0000000E+00  0.2525252E-01  0.1507141E-09  0.0000000E+00 -0.1069999E-04
  0.4595959E+00  0.0000000E+00  0.2525252E-01  0.4403121E-10  0.0000000E+00 -0.1069995E-04
  0.4696970E+00  0.0000000E+00  0.2525252E-01 -0.6334191E-10  0.0000000E+00 -0.1069995E-04
  0.4797980E+00  0.0000000E+00  0.2525252E-01 -0.1709079E-09  0.0000000E+00 -0.1070000E-04
  0.4898990E+00  0.0000000E+00  0.2525252E-01 -0.2781474E-09  0.0000000E+00 -0.1070009E-04
  0.5000000E+00  0.0000000E+00  0.2525252E-01 -0.3845994E-09  0.0000000E+00 -0.1070023E-04
  0.5101010E+00  0.0000000E+00  0.2525252E-01 -0.4897640E-09  0.0000000E+00 -0.1070041E-04
  0.5202020E+00  0.0000000E+00  0.2525252E-01 -0.5931939E-09  0.0000000E+00 -0.1070063E-04
  0.5303030E+00  0.0000000E+00  0.2525252E-01 -0.6944079E-09  0.0000000E+00 -0.1070089E-04
  0.5404040E+00  0.0000000E+00  0.2525252E-01 -0.7929742E-09  0.0000000E+00 -0.1070120E-04
  0.5505050E+00  0.0000000E+00  0.2525252E-01 -0.8884654E-09  0.0000000E+00 -0.1070154E-04
  0.5606061E+00  0.0000000E+00  0.2525252E-01 -0.9804721E-09  0.0000000E+00 -0.1070193E-04
  0.5707071E+00  0.0000000E+00  0.2525252E-01 -0.1068615E-08  0.0000000E+00 -0.1070235E-04
  0.5808081E+00  0.0000000E+00  0.2525252E-01 -0.1152533E-08  0.0000000E+00 -0.1070280E-04
  0.5909091E+00  0.0000000E+00  0.2525252E-01 -0.1231891E-08  0.0000000E+00 -0.1070329E-04
  0.6010101E+00  0.0000000E+00  0.2525252E-01 -0.1306382E-08  0.0000000E+00 -0.1070381E-04
  0.6111111E+00  0.0000000E+00  0.2525252E-01 -0.1375726E-08  0.0000000E+00 -0.1070436E-04
  0.6212121E+00  0.0000000E+00  0.2525252E-01 -0.1439673E-08  0.0000000E+00 -0.1070494E-04
  0.6313131E+00  0.0000000E+00  0.2525252E-01 -0.1497999E-08  0.0000000E+00 -0.1070554E-04
  0.6414142E+00  0.0000000E+00  0.2525252E-01 -0.1550513E-08  0.0000000E+00 -0.1070617E-04
  0.6515151E+00  0.0000000E+00  0.2525252E-01 -0.1597054E-08  0.0000000E+00 -0.1070681E-04
  0.6616161E+00  0.0000000E+00  0.2525252E-01 -0.1637488E-08  0.0000000E+00 -0.1070748E-04
  0.6717172E+00  0.0000000E+00  0.2525252E-01 -0.1671714E-08  0.0000000E+00 -0.1070816E-04
  0.6818182E+00  0.0000000E+00  0.2525252E-01 -0.1699660E-08  0.0000000E+00 -0.1070885E-04
  0.6919192E+00  0.0000000E+00  0.2525252E-01 -0.1721280E-08  0.0000000E+00 -0.1070955E-04
  0.7020202E+00  0.0000000E+00  0.2525252E-01 -0.1736559E-08  0.0000000E+00 -0.1071026E-04
  0.7121212E+00  0.0000000E+00  0.2525252E-01 -0.1745508E-08  0.0000000E+00 -0.1071097E-04
  0.7222222E+00  0.0000000E+00  0.2525252E-01 -0.1748163E-08  0.0000000E+00 -0.1071169E-04
  0.7323232E+00  0.0000000E+00  0.2525252E-01 -0.1744587E-08  0.0000000E+00 -0.1071240E-04
  0.7424242E+00  0.0000000E+00  0.2525252E-01 -0.1734863E-08  0.0000000E+00 -0.1071311E-04
  0.7525253E+00  0.0000000E+00  0.2525252E-01 -0.1719100E-08  0.0000000E+00 -0.1071382E-04
  0.7626263E+00  0.0000000E+00  0.2525252E-01 -0.1697423E-08  0.0000000E+00 -0.1071452E-04
  0.7727273E+00  0.0000000E+00  0.2525252E-01 -0.1669979E-08  0.0000000E+00 -0.1071521E-04
  0.7828283E+00  0.0000000E+00  0.2525252E-01 -0.1636932E-08  0.0000000E+00 -0.1071589E-04
  0.7929293E+00  0.0000000E+00  0.2525252E-01 -0.1598460E-08  0.0000000E+00 -0.1071655E-04
  0.8030303E+00  0.0000000E+00  0.2525252E-01 -0.1554758E-08  0.0000000E+00 -0.1071720E-04
  0.8131313E+00  0.0000000E+00  0.2525252E-01 -0.1506032E-08  0.0000000E+00 -0.1071782E-04
  0.8232324E+00  0.0000000E+00  0.2525252E-01 -0.1452499E-08  0.0000000E+00 -0.1071843E-04
  0.8333333E+00  0.0000000E+00  0.2525252E-01 -0.1394386E-08  0.0000000E+00 -0.1071901E-04
  0.8434343E+00  0.0000000E+00  0.2525252E-01 -0.1331930E-08  0.0000000E+00 -0.1071957E-04
  0.8535354E+00  0.0000000E+00  0.2525252E-01 -0.1265374E-08  0.0000000E+00 -0.1072010E-04
  0.8636364E+00  0.0000000E+00  0.2525252E-01 -0.1194967E-08  0.0000000E+00 -0.1072060E-04
  0.8737374E+00  0.0000000E+00  0.2525252E-01 -0.1120962E-08  0.0000000E+00 -0.1072108E-04
  0.8838384E+00  0.0000000E+00  0.2525252E-01 -0.1043619E-08  0.0000000E+00 -0.1072152E-04
  0.8939394E+00  0.0000000E+00  0.2525252E-01 -0.9631990E-09  0.0000000E+00 -0.1072193E-04
  0.9040404E+00  0.0000000E+00  0.2525252E-01 -0.8799654E-09  0.0000000E+00 -0.1072231E-04
  0.9141414E+00  0.0000000E+00  0.2525252E-01 -0.7941843E-09  0.0000000E+00 -0.1072265E-04
  0.9242424E+00  0.0000000E+00  0.2525252E-01 -0.7061225E-09  0.0000000E+00 -0.1072296E-04
  0.9343435E+00  0.0000000E+00  0.2525252E-01 -0.6160480E-09  0.0000000E+00 -0.1072323E-04
  0.9444444E+00  0.0000000E+00  0.2525252E-01 -0.5242291E-09  0.0000000E+00 -0.1072346E-04
  0.9545454E+00  0.0000000E+00  0.2525252E-01 -0.4309344E-09  0.0000000E+00 -0.1072366E-04
  0.9646465E+00  0.0000000E+00  0.2525252E-01 -0.3364332E-09  0.0000000E+00 -0.1072381E-04
  0.9747475E+00  0.0000000E+00  0.2525252E-01 -0.2409946E-09  0.0000000E+00 -0.1072393E-04
  0.9848485E+00  0.0000000E+00  0.2525252E-01 -0.1448875E-09  0.0000000E+00 -0.1072401E-04
  0.9974747E+00  0.0000000E+00  0.2525252E-01 -0.4838302E-10  0.0000000E+00 -0.1072405E-04
  0.5050505E-02  0.0000000E+00  0.3535353E-01  0.6889741E-10  0.0000000E+00 -0.1067305E-04
  0.1515152E-01  0.0000000E+00  0.3535353E-01  0.2065409E-09  0.0000000E+00 -0.1067301E-04
  0.2525252E-01  0.0000000E+00  0.3535353E-01  0.3433614E-09  0.0000000E+00 -0.1067293E-04
  0.3535353E-01  0.0000000E+00  0.3535353E-01  0.4787394E-09  0.0000000E+00 -0.1067280E-04
  0.4545455E-01  0.0000000E+00  0.3535353E-01  0.6121039E-09  0.0000000E+00 -0.1067264E-04
  0.5555556E-01  0.0000000E+00  0.3535353E-01  0.7429245E-09  0.0000000E+00 -0.1067244E-04
  0.6565657E-01  0.0000000E+00  0.3535353E-01  0.8706248E-09  0.0000000E+00 -0.1067220E-04
  0.7575758E-01  0.0000000E+00  0.3535353E-01  0.9946703E-09  0.0000000E+00 -0.1067192E-04
  0.8585858E-01  0.0000000E+00  0.3535353E-01  0.1114523E-08  0.0000000E+00 -0.1067160E-04
  0.9595960E-01  0.0000000E+00  0.3535353E-01  0.1229652E-08  0.0000000E+00 -0.1067125E-04
  0.1060606E+00  0.0000000E+00  0.3535353E-01  0.1339551E-08  0.0000000E+00 -0.1067086E-04
  0.1161616E+00  0.0000000E+00  0.3535353E-01  0.1443721E-08  0.0000000E+00 -0.1067045E-04
  0.1262626E+00  0.0000000E+00  0.3535353E-01  0.1541681E-08  0.0000000E+00 -0.1067000E-04
  0.1363636E+00  0.0000000E+00  0.3535353E-01  0.1632972E-08  0.0000000E+00 -0.1066952E-04
  0.1464646E+00  0.0000000E+00  0.3535353E-01  0.1717156E-08  0.0000000E+00 -0.1066902E-04
  0.1565657E+00  0.0000000E+00  0.3535353E-01  0.1793817E-08  0.0000000E+00 -0.1066850E-04
  0.1666667E+00  0.0000000E+00  0.3535353E-01  0.1862567E-08  0.0000000E+00 -0.1066795E-04
  0.1767677E+00  0.0000000E+00  0.3535353E-01  0.1923047E-08  0.0000000E+00 -0.1066738E-04
  0.1868687E+00  0.0000000E+00  0.3535353E-01  0.1974929E-08  0.0000000E+00 -0.1066680E-04
  0.1969697E+00  0.0000000E+00  0.3535353E-01  0.2017918E-08  0.0000000E+00 -0.1066620E-04
  0.2070707E+00  0.0000000E+00  0.3535353E-01  0.2051753E-08  0.0000000E+00 -0.1066559E-04
  0.2171717E+00  0.0000000E+00  0.3535353E-01  0.2076215E-08  0.0000000E+00 -0.1066497E-04
  0.2272727E+00  0.0000000E+00  0.3535353E-01  0.2091123E-08  0.0000000E+00 -0.1066434E-04
  0.2373737E+00  0.0000000E+00  0.3535353E-01  0.2096337E-08  0.0000000E+00 -0.1066371E-04
  0.2474747E+00  0.0000000E+00  0.3535353E-01  0.2091763E-08  0.0000000E+00 -0.1066309E-04
  0.2575758E+00  0.0000000E+00  0.3535353E-01  0.2077350E-08  0.0000000E+00 -0.1066246E-04
  0.2676768E+00  0.0000000E+00  0.3535353E-01  0.2053098E-08  0.0000000E+00 -0.1066184E-04
  0.2777778E+00  0.0000000E+00  0.3535353E-01  0.2019051E-08  0.0000000E+00 -0.1066123E-04
  0.2878788E+00  0.0000000E+00  0.3535353E-01  0.1975303E-08  0.0000000E+00 -0.1066063E-04
  0.2979798E+00  0.0000000E+00  0.3535353E-01  0.1921996E-08  0.0000000E+00 -0.1066005E-04