title = "dataset water"
variables = "time", "water mass", "water filled volume", "gas filled volume" 
zone t = "system mass -  variably saturated flow", f=point
  0.0000E+00  1.8147E-01  1.8147E-01  2.4653E-01
  1.0000E-10  1.8147E-01  1.8147E-01  2.4653E-01
  6.0000E-10  1.8147E-01  1.8147E-01  2.4653E-01
  3.1000E-09  1.8147E-01  1.8147E-01  2.4653E-01
  1.5600E-08  1.8147E-01  1.8147E-01  2.4653E-01
  7.8100E-08  1.8147E-01  1.8147E-01  2.4653E-01
  3.9060E-07  1.8147E-01  1.8147E-01  2.4653E-01
  1.9531E-06  1.8148E-01  1.8148E-01  2.4652E-01
  9.7656E-06  1.8148E-01  1.8148E-01  2.4652E-01
  4.8828E-05  1.8148E-01  1.8148E-01  2.4652E-01
  2.4414E-04  1.8149E-01  1.8149E-01  2.4651E-01
  1.2207E-03  1.8156E-01  1.8156E-01  2.4644E-01
  6.1035E-03  1.8174E-01  1.8174E-01  2.4626E-01
  2.3462E-02  1.8207E-01  1.8207E-01  2.4593E-01
  8.7359E-02  1.8269E-01  1.8269E-01  2.4531E-01
  3.0004E-01  1.8379E-01  1.8379E-01  2.4421E-01
  1.0000E+00  1.8573E-01  1.8573E-01  2.4227E-01
  2.0000E+00  1.8369E-01  1.8369E-01  2.4431E-01
  3.0000E+00  1.8313E-01  1.8313E-01  2.4487E-01
  4.0000E+00  1.8283E-01  1.8283E-01  2.4517E-01
  5.0000E+00  1.8264E-01  1.8264E-01  2.4536E-01
  6.0000E+00  1.8251E-01  1.8251E-01  2.4549E-01
  7.0000E+00  1.8241E-01  1.8241E-01  2.4559E-01
  8.0000E+00  1.8233E-01  1.8233E-01  2.4567E-01
  9.0000E+00  1.8226E-01  1.8226E-01  2.4574E-01
  1.0000E+01  1.8220E-01  1.8220E-01  2.4580E-01
  1.1000E+01  1.8215E-01  1.8215E-01  2.4585E-01
  1.2000E+01  1.8211E-01  1.8211E-01  2.4589E-01
  1.3000E+01  1.8208E-01  1.8208E-01  2.4592E-01
  1.4000E+01  1.8204E-01  1.8204E-01  2.4596E-01
  1.5000E+01  1.8201E-01  1.8201E-01  2.4599E-01
  1.6000E+01  1.8199E-01  1.8199E-01  2.4601E-01
  1.7000E+01  1.8196E-01  1.8196E-01  2.4604E-01
  1.8000E+01  1.8194E-01  1.8194E-01  2.4606E-01
  1.9000E+01  1.8192E-01  1.8192E-01  2.4608E-01
  2.0000E+01  1.8189E-01  1.8189E-01  2.4611E-01
  2.1000E+01  1.8187E-01  1.8187E-01  2.4613E-01
  2.2000E+01  1.8185E-01  1.8185E-01  2.4615E-01
  2.3000E+01  1.8183E-01  1.8183E-01  2.4617E-01
  2.4000E+01  1.8180E-01  1.8180E-01  2.4620E-01
  2.5000E+01  1.8177E-01  1.8177E-01  2.4623E-01
  2.6000E+01  1.8174E-01  1.8174E-01  2.4626E-01
  2.7000E+01  1.8170E-01  1.8170E-01  2.4630E-01
  2.8000E+01  1.8166E-01  1.8166E-01  2.4634E-01
  2.9000E+01  1.8160E-01  1.8160E-01  2.4640E-01
  3.0000E+01  1.8155E-01  1.8155E-01  2.4645E-01
  3.1000E+01  1.8149E-01  1.8149E-01  2.4651E-01
  3.2000E+01  1.8136E-01  1.8136E-01  2.4664E-01
  3.3000E+01  1.8125E-01  1.8125E-01  2.4675E-01
  3.4000E+01  1.8113E-01  1.8113E-01  2.4687E-01
  3.5000E+01  1.8098E-01  1.8098E-01  2.4702E-01
  3.6000E+01  1.8078E-01  1.8078E-01  2.4722E-01
  3.7000E+01  1.8051E-01  1.8051E-01  2.4749E-01
  3.8000E+01  1.8014E-01  1.8014E-01  2.4786E-01
  3.9000E+01  1.7975E-01  1.7975E-01  2.4825E-01
  4.0000E+01  1.7934E-01  1.7934E-01  2.4866E-01
  4.1000E+01  1.7884E-01  1.7884E-01  2.4916E-01
  4.2000E+01  1.7833E-01  1.7833E-01  2.4967E-01
  4.3000E+01  1.7765E-01  1.7765E-01  2.5035E-01
  4.4000E+01  1.7686E-01  1.7686E-01  2.5114E-01
  4.5000E+01  1.7617E-01  1.7617E-01  2.5183E-01
  4.6000E+01  1.7521E-01  1.7521E-01  2.5279E-01
  4.7000E+01  1.7413E-01  1.7413E-01  2.5387E-01
  4.8000E+01  1.7317E-01  1.7317E-01  2.5483E-01
  4.9000E+01  1.7181E-01  1.7181E-01  2.5619E-01
  5.0000E+01  1.7035E-01  1.7035E-01  2.5765E-01
  5.1000E+01  1.6897E-01  1.6897E-01  2.5903E-01
  5.2000E+01  1.6747E-01  1.6747E-01  2.6053E-01
  5.3000E+01  1.6586E-01  1.6586E-01  2.6214E-01
  5.4000E+01  1.6435E-01  1.6435E-01  2.6365E-01
  5.5000E+01  1.6270E-01  1.6270E-01  2.6530E-01
  5.6000E+01  1.6095E-01  1.6095E-01  2.6705E-01
  5.7000E+01  1.5929E-01  1.5929E-01  2.6871E-01
  5.8000E+01  1.5754E-01  1.5754E-01  2.7046E-01
  5.9000E+01  1.5558E-01  1.5558E-01  2.7242E-01
  6.0000E+01  1.5352E-01  1.5352E-01  2.7448E-01
