title = "dataset water"
variables = "x", "y", "z", "vx", "vy", "vz"
zone t = "velocities, solution time =  5.700E+01 days        " i =   99, j =   99, k =    1,  f=point
  0.5050505E-02  0.0000000E+00  0.5050505E-02  0.2996723E-07  0.0000000E+00  0.6590446E-04
  0.1515152E-01  0.0000000E+00  0.5050505E-02  0.8980869E-07  0.0000000E+00  0.6602556E-04
  0.2525252E-01  0.0000000E+00  0.5050505E-02  0.1493724E-06  0.0000000E+00  0.6626738E-04
  0.3535353E-01  0.0000000E+00  0.5050505E-02  0.2084762E-06  0.0000000E+00  0.6662920E-04
  0.4545455E-01  0.0000000E+00  0.5050505E-02  0.2669410E-06  0.0000000E+00  0.6710991E-04
  0.5555556E-01  0.0000000E+00  0.5050505E-02  0.3245916E-06  0.0000000E+00  0.6770806E-04
  0.6565657E-01  0.0000000E+00  0.5050505E-02  0.3812564E-06  0.0000000E+00  0.6842186E-04
  0.7575758E-01  0.0000000E+00  0.5050505E-02  0.4367654E-06  0.0000000E+00  0.6924917E-04
  0.8585858E-01  0.0000000E+00  0.5050505E-02  0.4909433E-06  0.0000000E+00  0.7018750E-04
  0.9595960E-01  0.0000000E+00  0.5050505E-02  0.5435950E-06  0.0000000E+00  0.7123401E-04
  0.1060606E+00  0.0000000E+00  0.5050505E-02  0.5944739E-06  0.0000000E+00  0.7238539E-04
  0.1161616E+00  0.0000000E+00  0.5050505E-02  0.6432221E-06  0.0000000E+00  0.7363774E-04
  0.1262626E+00  0.0000000E+00  0.5050505E-02  0.6892608E-06  0.0000000E+00  0.7498621E-04
  0.1363636E+00  0.0000000E+00  0.5050505E-02  0.7315967E-06  0.0000000E+00  0.7642435E-04
  0.1464646E+00  0.0000000E+00  0.5050505E-02  0.7684962E-06  0.0000000E+00  0.7794295E-04
  0.1565657E+00  0.0000000E+00  0.5050505E-02  0.7969642E-06  0.0000000E+00  0.7952803E-04
  0.1666667E+00  0.0000000E+00  0.5050505E-02  0.8119746E-06  0.0000000E+00  0.8115743E-04
  0.1767677E+00  0.0000000E+00  0.5050505E-02  0.8054966E-06  0.0000000E+00  0.8279581E-04
  0.1868687E+00  0.0000000E+00  0.5050505E-02  0.7656897E-06  0.0000000E+00  0.8438761E-04
  0.1969697E+00  0.0000000E+00  0.5050505E-02  0.6774457E-06  0.0000000E+00  0.8584996E-04
  0.2070707E+00  0.0000000E+00  0.5050505E-02  0.5268986E-06  0.0000000E+00  0.8707056E-04
  0.2171717E+00  0.0000000E+00  0.5050505E-02  0.3135145E-06  0.0000000E+00  0.8792243E-04
  0.2272727E+00  0.0000000E+00  0.5050505E-02  0.6838881E-07  0.0000000E+00  0.8830958E-04
  0.2373737E+00  0.0000000E+00  0.5050505E-02 -0.1453215E-06  0.0000000E+00  0.8823159E-04
  0.2474747E+00  0.0000000E+00  0.5050505E-02 -0.2967822E-06  0.0000000E+00  0.8778341E-04
  0.2575758E+00  0.0000000E+00  0.5050505E-02 -0.3870791E-06  0.0000000E+00  0.8709022E-04
  0.2676768E+00  0.0000000E+00  0.5050505E-02 -0.4308432E-06  0.0000000E+00  0.8626121E-04
  0.2777778E+00  0.0000000E+00  0.5050505E-02 -0.4440637E-06  0.0000000E+00  0.8537454E-04
  0.2878788E+00  0.0000000E+00  0.5050505E-02 -0.4394726E-06  0.0000000E+00  0.8447923E-04
  0.2979798E+00  0.0000000E+00  0.5050505E-02 -0.4258927E-06  0.0000000E+00  0.8360242E-04
  0.3080808E+00  0.0000000E+00  0.5050505E-02 -0.4089327E-06  0.0000000E+00  0.8275664E-04
  0.3181818E+00  0.0000000E+00  0.5050505E-02 -0.3918577E-06  0.0000000E+00  0.8194542E-04
  0.3282828E+00  0.0000000E+00  0.5050505E-02 -0.3762776E-06  0.0000000E+00  0.8116736E-04
  0.3383838E+00  0.0000000E+00  0.5050505E-02 -0.3626308E-06  0.0000000E+00  0.8041897E-04
  0.3484848E+00  0.0000000E+00  0.5050505E-02 -0.3505390E-06  0.0000000E+00  0.7969671E-04
  0.3585859E+00  0.0000000E+00  0.5050505E-02 -0.3391106E-06  0.0000000E+00  0.7899833E-04
  0.3686869E+00  0.0000000E+00  0.5050505E-02 -0.3272291E-06  0.0000000E+00  0.7832361E-04
  0.3787879E+00  0.0000000E+00  0.5050505E-02 -0.3138169E-06  0.0000000E+00  0.7767456E-04
  0.3888889E+00  0.0000000E+00  0.5050505E-02 -0.2980363E-06  0.0000000E+00  0.7705511E-04
  0.3989899E+00  0.0000000E+00  0.5050505E-02 -0.2793994E-06  0.0000000E+00  0.7647054E-04
  0.4090909E+00  0.0000000E+00  0.5050505E-02 -0.2577886E-06  0.0000000E+00  0.7592676E-04
  0.4191919E+00  0.0000000E+00  0.5050505E-02 -0.2334104E-06  0.0000000E+00  0.7542956E-04
  0.4292929E+00  0.0000000E+00  0.5050505E-02 -0.2067149E-06  0.0000000E+00  0.7498408E-04
  0.4393939E+00  0.0000000E+00  0.5050505E-02 -0.1783082E-06  0.0000000E+00  0.7459440E-04
  0.4494950E+00  0.0000000E+00  0.5050505E-02 -0.1488739E-06  0.0000000E+00  0.7426326E-04
  0.4595959E+00  0.0000000E+00  0.5050505E-02 -0.1191123E-06  0.0000000E+00  0.7399205E-04
  0.4696970E+00  0.0000000E+00  0.5050505E-02 -0.8969658E-07  0.0000000E+00  0.7378073E-04
  0.4797980E+00  0.0000000E+00  0.5050505E-02 -0.6124308E-07  0.0000000E+00  0.7362798E-04
  0.4898990E+00  0.0000000E+00  0.5050505E-02 -0.3429261E-07  0.0000000E+00  0.7353130E-04
  0.5000000E+00  0.0000000E+00  0.5050505E-02 -0.9297112E-08  0.0000000E+00  0.7348719E-04
  0.5101010E+00  0.0000000E+00  0.5050505E-02  0.1339025E-07  0.0000000E+00  0.7349133E-04
  0.5202020E+00  0.0000000E+00  0.5050505E-02  0.3352351E-07  0.0000000E+00  0.7353881E-04
  0.5303030E+00  0.0000000E+00  0.5050505E-02  0.5097053E-07  0.0000000E+00  0.7362432E-04
  0.5404040E+00  0.0000000E+00  0.5050505E-02  0.6571462E-07  0.0000000E+00  0.7374240E-04
  0.5505050E+00  0.0000000E+00  0.5050505E-02  0.7784518E-07  0.0000000E+00  0.7388768E-04
  0.5606061E+00  0.0000000E+00  0.5050505E-02  0.8752496E-07  0.0000000E+00  0.7405504E-04
  0.5707071E+00  0.0000000E+00  0.5050505E-02  0.9491164E-07  0.0000000E+00  0.7423968E-04
  0.5808081E+00  0.0000000E+00  0.5050505E-02  0.9999409E-07  0.0000000E+00  0.7443694E-04
  0.5909091E+00  0.0000000E+00  0.5050505E-02  0.1022757E-06  0.0000000E+00  0.7464165E-04
  0.6010101E+00  0.0000000E+00  0.5050505E-02  0.1001918E-06  0.0000000E+00  0.7484657E-04
  0.6111111E+00  0.0000000E+00  0.5050505E-02  0.9008783E-07  0.0000000E+00  0.7503916E-04
  0.6212121E+00  0.0000000E+00  0.5050505E-02  0.6455099E-07  0.0000000E+00  0.7519568E-04
  0.6313131E+00  0.0000000E+00  0.5050505E-02  0.1004727E-07  0.0000000E+00  0.7527119E-04
  0.6414142E+00  0.0000000E+00  0.5050505E-02 -0.9524424E-07  0.0000000E+00  0.7518495E-04
  0.6515151E+00  0.0000000E+00  0.5050505E-02 -0.2793979E-06  0.0000000E+00  0.7480577E-04
  0.6616161E+00  0.0000000E+00  0.5050505E-02 -0.5595710E-06  0.0000000E+00  0.7395673E-04
  0.6717172E+00  0.0000000E+00  0.5050505E-02 -0.8945390E-06  0.0000000E+00  0.7248542E-04
  0.6818182E+00  0.0000000E+00  0.5050505E-02 -0.1141573E-05  0.0000000E+00  0.7042573E-04
  0.6919192E+00  0.0000000E+00  0.5050505E-02 -0.1267433E-05  0.0000000E+00  0.6798954E-04
  0.7020202E+00  0.0000000E+00  0.5050505E-02 -0.1299539E-05  0.0000000E+00  0.6539440E-04
  0.7121212E+00  0.0000000E+00  0.5050505E-02 -0.1274483E-05  0.0000000E+00  0.6279295E-04
  0.7222222E+00  0.0000000E+00  0.5050505E-02 -0.1219759E-05  0.0000000E+00  0.6027290E-04
  0.7323232E+00  0.0000000E+00  0.5050505E-02 -0.1152208E-05  0.0000000E+00  0.5787709E-04
  0.7424242E+00  0.0000000E+00  0.5050505E-02 -0.1081022E-05  0.0000000E+00  0.5562204E-04
  0.7525253E+00  0.0000000E+00  0.5050505E-02 -0.1010779E-05  0.0000000E+00  0.5351034E-04
  0.7626263E+00  0.0000000E+00  0.5050505E-02 -0.9435149E-06  0.0000000E+00  0.5153793E-04
  0.7727273E+00  0.0000000E+00  0.5050505E-02 -0.8799514E-06  0.0000000E+00  0.4969798E-04
  0.7828283E+00  0.0000000E+00  0.5050505E-02 -0.8201692E-06  0.0000000E+00  0.4798285E-04
  0.7929293E+00  0.0000000E+00  0.5050505E-02 -0.7639618E-06  0.0000000E+00  0.4638504E-04
  0.8030303E+00  0.0000000E+00  0.5050505E-02 -0.7110131E-06  0.0000000E+00  0.4489760E-04
  0.8131313E+00  0.0000000E+00  0.5050505E-02 -0.6609836E-06  0.0000000E+00  0.4351425E-04
  0.8232324E+00  0.0000000E+00  0.5050505E-02 -0.6135489E-06  0.0000000E+00  0.4222937E-04
  0.8333333E+00  0.0000000E+00  0.5050505E-02 -0.5684151E-06  0.0000000E+00  0.4103798E-04
  0.8434343E+00  0.0000000E+00  0.5050505E-02 -0.5253224E-06  0.0000000E+00  0.3993567E-04
  0.8535354E+00  0.0000000E+00  0.5050505E-02 -0.4840435E-06  0.0000000E+00  0.3891852E-04
  0.8636364E+00  0.0000000E+00  0.5050505E-02 -0.4443802E-06  0.0000000E+00  0.3798305E-04
  0.8737374E+00  0.0000000E+00  0.5050505E-02 -0.4061589E-06  0.0000000E+00  0.3712614E-04
  0.8838384E+00  0.0000000E+00  0.5050505E-02 -0.3692262E-06  0.0000000E+00  0.3634502E-04
  0.8939394E+00  0.0000000E+00  0.5050505E-02 -0.3334454E-06  0.0000000E+00  0.3563721E-04
  0.9040404E+00  0.0000000E+00  0.5050505E-02 -0.2986926E-06  0.0000000E+00  0.3500051E-04
  0.9141414E+00  0.0000000E+00  0.5050505E-02 -0.2648538E-06  0.0000000E+00  0.3443293E-04
  0.9242424E+00  0.0000000E+00  0.5050505E-02 -0.2318224E-06  0.0000000E+00  0.3393273E-04
  0.9343435E+00  0.0000000E+00  0.5050505E-02 -0.1994972E-06  0.0000000E+00  0.3349837E-04
  0.9444444E+00  0.0000000E+00  0.5050505E-02 -0.1677805E-06  0.0000000E+00  0.3312852E-04
  0.9545454E+00  0.0000000E+00  0.5050505E-02 -0.1365769E-06  0.0000000E+00  0.3282205E-04
  0.9646465E+00  0.0000000E+00  0.5050505E-02 -0.1057924E-06  0.0000000E+00  0.3257800E-04
  0.9747475E+00  0.0000000E+00  0.5050505E-02 -0.7533352E-07  0.0000000E+00  0.3239562E-04
  0.9848485E+00  0.0000000E+00  0.5050505E-02 -0.4510718E-07  0.0000000E+00  0.3227435E-04
  0.9974747E+00  0.0000000E+00  0.5050505E-02 -0.1502026E-07  0.0000000E+00  0.3221381E-04
  0.5050505E-02  0.0000000E+00  0.1515152E-01  0.9004394E-07  0.0000000E+00  0.6605199E-04
  0.1515152E-01  0.0000000E+00  0.1515152E-01  0.2698529E-06  0.0000000E+00  0.6617402E-04
  0.2525252E-01  0.0000000E+00  0.1515152E-01  0.4488286E-06  0.0000000E+00  0.6641771E-04
  0.3535353E-01  0.0000000E+00  0.1515152E-01  0.6264239E-06  0.0000000E+00  0.6678232E-04
  0.4545455E-01  0.0000000E+00  0.1515152E-01  0.8021012E-06  0.0000000E+00  0.6726673E-04
  0.5555556E-01  0.0000000E+00  0.1515152E-01  0.9753358E-06  0.0000000E+00  0.6786949E-04
  0.6565657E-01  0.0000000E+00  0.1515152E-01  0.1145616E-05  0.0000000E+00  0.6858881E-04
  0.7575758E-01  0.0000000E+00  0.1515152E-01  0.1312438E-05  0.0000000E+00  0.6942254E-04
  0.8585858E-01  0.0000000E+00  0.1515152E-01  0.1475293E-05  0.0000000E+00  0.7036823E-04
  0.9595960E-01  0.0000000E+00  0.1515152E-01  0.1633628E-05  0.0000000E+00  0.7142310E-04
  0.1060606E+00  0.0000000E+00  0.1515152E-01  0.1786764E-05  0.0000000E+00  0.7258403E-04
  0.1161616E+00  0.0000000E+00  0.1515152E-01  0.1933740E-05  0.0000000E+00  0.7384745E-04
  0.1262626E+00  0.0000000E+00  0.1515152E-01  0.2073014E-05  0.0000000E+00  0.7520916E-04
  0.1363636E+00  0.0000000E+00  0.1515152E-01  0.2201930E-05  0.0000000E+00  0.7666389E-04
  0.1464646E+00  0.0000000E+00  0.1515152E-01  0.2315804E-05  0.0000000E+00  0.7820446E-04
  0.1565657E+00  0.0000000E+00  0.1515152E-01  0.2406408E-05  0.0000000E+00  0.7982016E-04
  0.1666667E+00  0.0000000E+00  0.1515152E-01  0.2459604E-05  0.0000000E+00  0.8149387E-04
  0.1767677E+00  0.0000000E+00  0.1515152E-01  0.2452054E-05  0.0000000E+00  0.8319689E-04
  0.1868687E+00  0.0000000E+00  0.1515152E-01  0.2347610E-05  0.0000000E+00  0.8488047E-04
  0.1969697E+00  0.0000000E+00  0.1515152E-01  0.2096354E-05  0.0000000E+00  0.8646312E-04
  0.2070707E+00  0.0000000E+00  0.1515152E-01  0.1644584E-05  0.0000000E+00  0.8781692E-04
  0.2171717E+00  0.0000000E+00  0.1515152E-01  0.9725705E-06  0.0000000E+00  0.8876857E-04
  0.2272727E+00  0.0000000E+00  0.1515152E-01  0.1734330E-06  0.0000000E+00  0.8915719E-04
  0.2373737E+00  0.0000000E+00  0.1515152E-01 -0.4992334E-06  0.0000000E+00  0.8898264E-04
  0.2474747E+00  0.0000000E+00  0.1515152E-01 -0.9531417E-06  0.0000000E+00  0.8840530E-04
  0.2575758E+00  0.0000000E+00  0.1515152E-01 -0.1209758E-05  0.0000000E+00  0.8759719E-04
  0.2676768E+00  0.0000000E+00  0.1515152E-01 -0.1325172E-05  0.0000000E+00  0.8668347E-04
  0.2777778E+00  0.0000000E+00  0.1515152E-01 -0.1352051E-05  0.0000000E+00  0.8574098E-04
  0.2878788E+00  0.0000000E+00  0.1515152E-01 -0.1329322E-05  0.0000000E+00  0.8481186E-04
  0.2979798E+00  0.0000000E+00  0.1515152E-01 -0.1282812E-05  0.0000000E+00  0.8391623E-04
  0.3080808E+00  0.0000000E+00  0.1515152E-01 -0.1228508E-05  0.0000000E+00  0.8306103E-04
  0.3181818E+00  0.0000000E+00  0.1515152E-01 -0.1175533E-05  0.0000000E+00  0.8224574E-04
  0.3282828E+00  0.0000000E+00  0.1515152E-01 -0.1128235E-05  0.0000000E+00  0.8146604E-04
  0.3383838E+00  0.0000000E+00  0.1515152E-01 -0.1087575E-05  0.0000000E+00  0.8071638E-04
  0.3484848E+00  0.0000000E+00  0.1515152E-01 -0.1052110E-05  0.0000000E+00  0.7999182E-04
  0.3585859E+00  0.0000000E+00  0.1515152E-01 -0.1018872E-05  0.0000000E+00  0.7928933E-04
  0.3686869E+00  0.0000000E+00  0.1515152E-01 -0.9842418E-06  0.0000000E+00  0.7860848E-04
  0.3787879E+00  0.0000000E+00  0.1515152E-01 -0.9447806E-06  0.0000000E+00  0.7795156E-04
  0.3888889E+00  0.0000000E+00  0.1515152E-01 -0.8978597E-06  0.0000000E+00  0.7732312E-04
  0.3989899E+00  0.0000000E+00  0.1515152E-01 -0.8419922E-06  0.0000000E+00  0.7672919E-04
  0.4090909E+00  0.0000000E+00  0.1515152E-01 -0.7768692E-06  0.0000000E+00  0.7617642E-04
  0.4191919E+00  0.0000000E+00  0.1515152E-01 -0.7031899E-06  0.0000000E+00  0.7567121E-04
  0.4292929E+00  0.0000000E+00  0.1515152E-01 -0.6223932E-06  0.0000000E+00  0.7521915E-04
  0.4393939E+00  0.0000000E+00  0.1515152E-01 -0.5363766E-06  0.0000000E+00  0.7482456E-04
  0.4494950E+00  0.0000000E+00  0.1515152E-01 -0.4472547E-06  0.0000000E+00  0.7449033E-04
  0.4595959E+00  0.0000000E+00  0.1515152E-01 -0.3571742E-06  0.0000000E+00  0.7421784E-04
  0.4696970E+00  0.0000000E+00  0.1515152E-01 -0.2681858E-06  0.0000000E+00  0.7400697E-04
  0.4797980E+00  0.0000000E+00  0.1515152E-01 -0.1821605E-06  0.0000000E+00  0.7385627E-04
  0.4898990E+00  0.0000000E+00  0.1515152E-01 -0.1007355E-06  0.0000000E+00  0.7376305E-04
  0.5000000E+00  0.0000000E+00  0.1515152E-01 -0.2527816E-07  0.0000000E+00  0.7372362E-04
  0.5101010E+00  0.0000000E+00  0.1515152E-01  0.4314223E-07  0.0000000E+00  0.7373343E-04
  0.5202020E+00  0.0000000E+00  0.1515152E-01  0.1037804E-06  0.0000000E+00  0.7378730E-04
  0.5303030E+00  0.0000000E+00  0.1515152E-01  0.1562373E-06  0.0000000E+00  0.7387968E-04
  0.5404040E+00  0.0000000E+00  0.1515152E-01  0.2004712E-06  0.0000000E+00  0.7400485E-04
  0.5505050E+00  0.0000000E+00  0.1515152E-01  0.2367821E-06  0.0000000E+00  0.7415722E-04
  0.5606061E+00  0.0000000E+00  0.1515152E-01  0.2657352E-06  0.0000000E+00  0.7433157E-04
  0.5707071E+00  0.0000000E+00  0.1515152E-01  0.2879644E-06  0.0000000E+00  0.7452322E-04
  0.5808081E+00  0.0000000E+00  0.1515152E-01  0.3037477E-06  0.0000000E+00  0.7472815E-04
  0.5909091E+00  0.0000000E+00  0.1515152E-01  0.3121676E-06  0.0000000E+00  0.7494269E-04
  0.6010101E+00  0.0000000E+00  0.1515152E-01  0.3095327E-06  0.0000000E+00  0.7516270E-04
  0.6111111E+00  0.0000000E+00  0.1515152E-01  0.2865181E-06  0.0000000E+00  0.7538139E-04
  0.6212121E+00  0.0000000E+00  0.1515152E-01  0.2232029E-06  0.0000000E+00  0.7558474E-04
  0.6313131E+00  0.0000000E+00  0.1515152E-01  0.8110522E-07  0.0000000E+00  0.7574198E-04
  0.6414142E+00  0.0000000E+00  0.1515152E-01 -0.2072594E-06  0.0000000E+00  0.7578651E-04
  0.6515151E+00  0.0000000E+00  0.1515152E-01 -0.7430819E-06  0.0000000E+00  0.7558190E-04
  0.6616161E+00  0.0000000E+00  0.1515152E-01 -0.1624733E-05  0.0000000E+00  0.7488122E-04
  0.6717172E+00  0.0000000E+00  0.1515152E-01 -0.2771213E-05  0.0000000E+00  0.7337167E-04
  0.6818182E+00  0.0000000E+00  0.1515152E-01 -0.3545744E-05  0.0000000E+00  0.7109521E-04
  0.6919192E+00  0.0000000E+00  0.1515152E-01 -0.3896653E-05  0.0000000E+00  0.6843461E-04
  0.7020202E+00  0.0000000E+00  0.1515152E-01 -0.3957035E-05  0.0000000E+00  0.6567810E-04
  0.7121212E+00  0.0000000E+00  0.1515152E-01 -0.3854770E-05  0.0000000E+00  0.6297905E-04
  0.7222222E+00  0.0000000E+00  0.1515152E-01 -0.3673927E-05  0.0000000E+00  0.6040587E-04
  0.7323232E+00  0.0000000E+00  0.1515152E-01 -0.3462100E-05  0.0000000E+00  0.5798334E-04
  0.7424242E+00  0.0000000E+00  0.1515152E-01 -0.3243900E-05  0.0000000E+00  0.5571587E-04
  0.7525253E+00  0.0000000E+00  0.1515152E-01 -0.3031027E-05  0.0000000E+00  0.5359896E-04
  0.7626263E+00  0.0000000E+00  0.1515152E-01 -0.2828385E-05  0.0000000E+00  0.5162472E-04
  0.7727273E+00  0.0000000E+00  0.1515152E-01 -0.2637479E-05  0.0000000E+00  0.4978433E-04
  0.7828283E+00  0.0000000E+00  0.1515152E-01 -0.2458207E-05  0.0000000E+00  0.4806922E-04
  0.7929293E+00  0.0000000E+00  0.1515152E-01 -0.2289774E-05  0.0000000E+00  0.4647148E-04
  0.8030303E+00  0.0000000E+00  0.1515152E-01 -0.2131148E-05  0.0000000E+00  0.4498397E-04
  0.8131313E+00  0.0000000E+00  0.1515152E-01 -0.1981273E-05  0.0000000E+00  0.4360038E-04
  0.8232324E+00  0.0000000E+00  0.1515152E-01 -0.1839160E-05  0.0000000E+00  0.4231512E-04
  0.8333333E+00  0.0000000E+00  0.1515152E-01 -0.1703925E-05  0.0000000E+00  0.4112323E-04
  0.8434343E+00  0.0000000E+00  0.1515152E-01 -0.1574788E-05  0.0000000E+00  0.4002036E-04
  0.8535354E+00  0.0000000E+00  0.1515152E-01 -0.1451071E-05  0.0000000E+00  0.3900261E-04
  0.8636364E+00  0.0000000E+00  0.1515152E-01 -0.1332184E-05  0.0000000E+00  0.3806653E-04
  0.8737374E+00  0.0000000E+00  0.1515152E-01 -0.1217609E-05  0.0000000E+00  0.3720903E-04
  0.8838384E+00  0.0000000E+00  0.1515152E-01 -0.1106889E-05  0.0000000E+00  0.3642737E-04
  0.8939394E+00  0.0000000E+00  0.1515152E-01 -0.9996188E-06  0.0000000E+00  0.3571907E-04
  0.9040404E+00  0.0000000E+00  0.1515152E-01 -0.8954276E-06  0.0000000E+00  0.3508192E-04
  0.9141414E+00  0.0000000E+00  0.1515152E-01 -0.7939760E-06  0.0000000E+00  0.3451396E-04
  0.9242424E+00  0.0000000E+00  0.1515152E-01 -0.6949458E-06  0.0000000E+00  0.3401344E-04
  0.9343435E+00  0.0000000E+00  0.1515152E-01 -0.5980345E-06  0.0000000E+00  0.3357882E-04
  0.9444444E+00  0.0000000E+00  0.1515152E-01 -0.5029499E-06  0.0000000E+00  0.3320876E-04
  0.9545454E+00  0.0000000E+00  0.1515152E-01 -0.4094065E-06  0.0000000E+00  0.3290212E-04
  0.9646465E+00  0.0000000E+00  0.1515152E-01 -0.3171223E-06  0.0000000E+00  0.3265795E-04
  0.9747475E+00  0.0000000E+00  0.1515152E-01 -0.2258169E-06  0.0000000E+00  0.3247548E-04
  0.9848485E+00  0.0000000E+00  0.1515152E-01 -0.1352106E-06  0.0000000E+00  0.3235416E-04
  0.9974747E+00  0.0000000E+00  0.1515152E-01 -0.4502366E-07  0.0000000E+00  0.3229359E-04
  0.5050505E-02  0.0000000E+00  0.2525252E-01  0.1506382E-06  0.0000000E+00  0.6634883E-04
  0.1515152E-01  0.0000000E+00  0.2525252E-01  0.4514491E-06  0.0000000E+00  0.6647274E-04
  0.2525252E-01  0.0000000E+00  0.2525252E-01  0.7508685E-06  0.0000000E+00  0.6672018E-04
  0.3535353E-01  0.0000000E+00  0.2525252E-01  0.1047982E-05  0.0000000E+00  0.6709039E-04
  0.4545455E-01  0.0000000E+00  0.2525252E-01  0.1341891E-05  0.0000000E+00  0.6758224E-04
  0.5555556E-01  0.0000000E+00  0.2525252E-01  0.1631723E-05  0.0000000E+00  0.6819427E-04
  0.6565657E-01  0.0000000E+00  0.2525252E-01  0.1916629E-05  0.0000000E+00  0.6892465E-04
  0.7575758E-01  0.0000000E+00  0.2525252E-01  0.2195792E-05  0.0000000E+00  0.6977125E-04
  0.8585858E-01  0.0000000E+00  0.2525252E-01  0.2468408E-05  0.0000000E+00  0.7073163E-04
  0.9595960E-01  0.0000000E+00  0.2525252E-01  0.2733650E-05  0.0000000E+00  0.7180312E-04
  0.1060606E+00  0.0000000E+00  0.2525252E-01  0.2990573E-05  0.0000000E+00  0.7298285E-04
  0.1161616E+00  0.0000000E+00  0.2525252E-01  0.3237911E-05  0.0000000E+00  0.7426782E-04
  0.1262626E+00  0.0000000E+00  0.2525252E-01  0.3473693E-05  0.0000000E+00  0.7565492E-04
  0.1363636E+00  0.0000000E+00  0.2525252E-01  0.3694519E-05  0.0000000E+00  0.7714089E-04
  0.1464646E+00  0.0000000E+00  0.2525252E-01  0.3894256E-05  0.0000000E+00  0.7872219E-04
  0.1565657E+00  0.0000000E+00  0.2525252E-01  0.4061757E-05  0.0000000E+00  0.8039430E-04
  0.1666667E+00  0.0000000E+00  0.2525252E-01  0.4176983E-05  0.0000000E+00  0.8215016E-04
  0.1767677E+00  0.0000000E+00  0.2525252E-01  0.4204702E-05  0.0000000E+00  0.8397610E-04
  0.1868687E+00  0.0000000E+00  0.2525252E-01  0.4085136E-05  0.0000000E+00  0.8584237E-04
  0.1969697E+00  0.0000000E+00  0.2525252E-01  0.3723181E-05  0.0000000E+00  0.8768188E-04
  0.2070707E+00  0.0000000E+00  0.2525252E-01  0.2987349E-05  0.0000000E+00  0.8934892E-04
  0.2171717E+00  0.0000000E+00  0.2525252E-01  0.1760426E-05  0.0000000E+00  0.9056500E-04
  0.2272727E+00  0.0000000E+00  0.2525252E-01  0.1514049E-06  0.0000000E+00  0.9095626E-04
  0.2373737E+00  0.0000000E+00  0.2525252E-01 -0.1075492E-05  0.0000000E+00  0.9052314E-04
  0.2474747E+00  0.0000000E+00  0.2525252E-01 -0.1812832E-05  0.0000000E+00  0.8964022E-04
  0.2575758E+00  0.0000000E+00  0.2525252E-01 -0.2180999E-05  0.0000000E+00  0.8858578E-04
  0.2676768E+00  0.0000000E+00  0.2525252E-01 -0.2315777E-05  0.0000000E+00  0.8750343E-04
  0.2777778E+00  0.0000000E+00  0.2525252E-01 -0.2317191E-05  0.0000000E+00  0.8645588E-04
  0.2878788E+00  0.0000000E+00  0.2525252E-01 -0.2250029E-05  0.0000000E+00  0.8546601E-04
  0.2979798E+00  0.0000000E+00  0.2525252E-01 -0.2154051E-05  0.0000000E+00  0.8453822E-04
  0.3080808E+00  0.0000000E+00  0.2525252E-01 -0.2052746E-05  0.0000000E+00  0.8366822E-04
  0.3181818E+00  0.0000000E+00  0.2525252E-01 -0.1959043E-05  0.0000000E+00  0.8284767E-04
  0.3282828E+00  0.0000000E+00  0.2525252E-01 -0.1878670E-05  0.0000000E+00  0.8206673E-04
  0.3383838E+00  0.0000000E+00  0.2525252E-01 -0.1812108E-05  0.0000000E+00  0.8131589E-04
  0.3484848E+00  0.0000000E+00  0.2525252E-01 -0.1755966E-05  0.0000000E+00  0.8058748E-04
  0.3585859E+00  0.0000000E+00  0.2525252E-01 -0.1704300E-05  0.0000000E+00  0.7987693E-04
  0.3686869E+00  0.0000000E+00  0.2525252E-01 -0.1650141E-05  0.0000000E+00  0.7918348E-04
  0.3787879E+00  0.0000000E+00  0.2525252E-01 -0.1587036E-05  0.0000000E+00  0.7851015E-04
  0.3888889E+00  0.0000000E+00  0.2525252E-01 -0.1510218E-05  0.0000000E+00  0.7786291E-04
  0.3989899E+00  0.0000000E+00  0.2525252E-01 -0.1417151E-05  0.0000000E+00  0.7724946E-04
  0.4090909E+00  0.0000000E+00  0.2525252E-01 -0.1307501E-05  0.0000000E+00  0.7667803E-04
  0.4191919E+00  0.0000000E+00  0.2525252E-01 -0.1182725E-05  0.0000000E+00  0.7615630E-04
  0.4292929E+00  0.0000000E+00  0.2525252E-01 -0.1045535E-05  0.0000000E+00  0.7569074E-04
  0.4393939E+00  0.0000000E+00  0.2525252E-01 -0.8993700E-06  0.0000000E+00  0.7528619E-04
  0.4494950E+00  0.0000000E+00  0.2525252E-01 -0.7479667E-06  0.0000000E+00  0.7494574E-04
  0.4595959E+00  0.0000000E+00  0.2525252E-01 -0.5950564E-06  0.0000000E+00  0.7467074E-04
  0.4696970E+00  0.0000000E+00  0.2525252E-01 -0.4441602E-06  0.0000000E+00  0.7446089E-04
  0.4797980E+00  0.0000000E+00  0.2525252E-01 -0.2984656E-06  0.0000000E+00  0.7431444E-04
  0.4898990E+00  0.0000000E+00  0.2525252E-01 -0.1607503E-06  0.0000000E+00  0.7422837E-04
  0.5000000E+00  0.0000000E+00  0.2525252E-01 -0.3333199E-07  0.0000000E+00  0.7419854E-04
  0.5101010E+00  0.0000000E+00  0.2525252E-01  0.8197352E-07  0.0000000E+00  0.7421993E-04
  0.5202020E+00  0.0000000E+00  0.2525252E-01  0.1838956E-06  0.0000000E+00  0.7428688E-04
  0.5303030E+00  0.0000000E+00  0.2525252E-01  0.2717534E-06  0.0000000E+00  0.7439327E-04
  0.5404040E+00  0.0000000E+00  0.2525252E-01  0.3454934E-06  0.0000000E+00  0.7453285E-04
  0.5505050E+00  0.0000000E+00  0.2525252E-01  0.4056998E-06  0.0000000E+00  0.7469952E-04
  0.5606061E+00  0.0000000E+00  0.2525252E-01  0.4535335E-06  0.0000000E+00  0.7488771E-04
  0.5707071E+00  0.0000000E+00  0.2525252E-01  0.4905220E-06  0.0000000E+00  0.7509279E-04
  0.5808081E+00  0.0000000E+00  0.2525252E-01  0.5180571E-06  0.0000000E+00  0.7531156E-04
  0.5909091E+00  0.0000000E+00  0.2525252E-01  0.5363495E-06  0.0000000E+00  0.7554268E-04
  0.6010101E+00  0.0000000E+00  0.2525252E-01  0.5423838E-06  0.0000000E+00  0.7578714E-04
  0.6111111E+00  0.0000000E+00  0.2525252E-01  0.5260245E-06  0.0000000E+00  0.7604837E-04
  0.6212121E+00  0.0000000E+00  0.2525252E-01  0.4626405E-06  0.0000000E+00  0.7633136E-04
  0.6313131E+00  0.0000000E+00  0.2525252E-01  0.2990116E-06  0.0000000E+00  0.7663803E-04
  0.6414142E+00  0.0000000E+00  0.2525252E-01 -0.7348508E-07  0.0000000E+00  0.7694919E-04
  0.6515151E+00  0.0000000E+00  0.2525252E-01 -0.8652962E-06  0.0000000E+00  0.7716277E-04
  0.6616161E+00  0.0000000E+00  0.2525252E-01 -0.2430391E-05  0.0000000E+00  0.7691738E-04
  0.6717172E+00  0.0000000E+00  0.2525252E-01 -0.5020107E-05  0.0000000E+00  0.7532342E-04
  0.6818182E+00  0.0000000E+00  0.2525252E-01 -0.6375666E-05  0.0000000E+00  0.7244446E-04
  0.6919192E+00  0.0000000E+00  0.2525252E-01 -0.6821660E-05  0.0000000E+00  0.6926493E-04
  0.7020202E+00  0.0000000E+00  0.2525252E-01 -0.6784641E-05  0.0000000E+00  0.6618467E-04
  0.7121212E+00  0.0000000E+00  0.2525252E-01 -0.6522186E-05  0.0000000E+00  0.6330930E-04
  0.7222222E+00  0.0000000E+00  0.2525252E-01 -0.6167942E-05  0.0000000E+00  0.6064752E-04
  0.7323232E+00  0.0000000E+00  0.2525252E-01 -0.5787077E-05  0.0000000E+00  0.5818344E-04
  0.7424242E+00  0.0000000E+00  0.2525252E-01 -0.5409762E-05  0.0000000E+00  0.5589807E-04
  0.7525253E+00  0.0000000E+00  0.2525252E-01 -0.5048834E-05  0.0000000E+00  0.5377448E-04
  0.7626263E+00  0.0000000E+00  0.2525252E-01 -0.4708747E-05  0.0000000E+00  0.5179843E-04
  0.7727273E+00  0.0000000E+00  0.2525252E-01 -0.4390033E-05  0.0000000E+00  0.4995805E-04
  0.7828283E+00  0.0000000E+00  0.2525252E-01 -0.4091510E-05  0.0000000E+00  0.4824336E-04
  0.7929293E+00  0.0000000E+00  0.2525252E-01 -0.3811355E-05  0.0000000E+00  0.4664584E-04
  0.8030303E+00  0.0000000E+00  0.2525252E-01 -0.3547611E-05  0.0000000E+00  0.4515819E-04
  0.8131313E+00  0.0000000E+00  0.2525252E-01 -0.3298411E-05  0.0000000E+00  0.4377407E-04
  0.8232324E+00  0.0000000E+00  0.2525252E-01 -0.3062071E-05  0.0000000E+00  0.4248796E-04
  0.8333333E+00  0.0000000E+00  0.2525252E-01 -0.2837108E-05  0.0000000E+00  0.4129501E-04
  0.8434343E+00  0.0000000E+00  0.2525252E-01 -0.2622229E-05  0.0000000E+00  0.4019092E-04
  0.8535354E+00  0.0000000E+00  0.2525252E-01 -0.2416317E-05  0.0000000E+00  0.3917191E-04
  0.8636364E+00  0.0000000E+00  0.2525252E-01 -0.2218400E-05  0.0000000E+00  0.3823456E-04
  0.8737374E+00  0.0000000E+00  0.2525252E-01 -0.2027628E-05  0.0000000E+00  0.3737586E-04
  0.8838384E+00  0.0000000E+00  0.2525252E-01 -0.1843253E-05  0.0000000E+00  0.3659307E-04
  0.8939394E+00  0.0000000E+00  0.2525252E-01 -0.1664605E-05  0.0000000E+00  0.3588375E-04
  0.9040404E+00  0.0000000E+00  0.2525252E-01 -0.1491077E-05  0.0000000E+00  0.3524570E-04
  0.9141414E+00  0.0000000E+00  0.2525252E-01 -0.1322109E-05  0.0000000E+00  0.3467697E-04
  0.9242424E+00  0.0000000E+00  0.2525252E-01 -0.1157177E-05  0.0000000E+00  0.3417580E-04
  0.9343435E+00  0.0000000E+00  0.2525252E-01 -0.9957792E-06  0.0000000E+00  0.3374065E-04
  0.9444444E+00  0.0000000E+00  0.2525252E-01 -0.8374321E-06  0.0000000E+00  0.3337016E-04
  0.9545454E+00  0.0000000E+00  0.2525252E-01 -0.6816607E-06  0.0000000E+00  0.3306319E-04
  0.9646465E+00  0.0000000E+00  0.2525252E-01 -0.5279956E-06  0.0000000E+00  0.3281877E-04
  0.9747475E+00  0.0000000E+00  0.2525252E-01 -0.3759688E-06  0.0000000E+00  0.3263613E-04
  0.9848485E+00  0.0000000E+00  0.2525252E-01 -0.2251128E-06  0.0000000E+00  0.3251469E-04
  0.9974747E+00  0.0000000E+00  0.2525252E-01 -0.7495959E-07  0.0000000E+00  0.3245406E-04
  0.5050505E-02  0.0000000E+00  0.3535353E-01  0.2122188E-06  0.0000000E+00  0.6679604E-04
  0.1515152E-01  0.0000000E+00  0.3535353E-01  0.6360017E-06  0.0000000E+00  0.6692278E-04
  0.2525252E-01  0.0000000E+00  0.3535353E-01  0.1057827E-05  0.0000000E+00  0.6717588E-04
  0.3535353E-01  0.0000000E+00  0.3535353E-01  0.1476408E-05  0.0000000E+00  0.6755455E-04
  0.4545455E-01  0.0000000E+00  0.3535353E-01  0.1890480E-05  0.0000000E+00  0.6805764E-04
  0.5555556E-01  0.0000000E+00  0.3535353E-01  0.2298814E-05  0.0000000E+00  0.6868365E-04
  0.6565657E-01  0.0000000E+00  0.3535353E-01  0.2700232E-05  0.0000000E+00  0.6943070E-04
  0.7575758E-01  0.0000000E+00  0.3535353E-01  0.3093613E-05  0.0000000E+00  0.7029662E-04
  0.8585858E-01  0.0000000E+00  0.3535353E-01  0.3477904E-05  0.0000000E+00  0.7127896E-04
  0.9595960E-01  0.0000000E+00  0.3535353E-01  0.3852104E-05  0.0000000E+00  0.7237511E-04
  0.1060606E+00  0.0000000E+00  0.3535353E-01  0.4215206E-05  0.0000000E+00  0.7358240E-04
  0.1161616E+00  0.0000000E+00  0.3535353E-01  0.4566037E-05  0.0000000E+00  0.7489835E-04
  0.1262626E+00  0.0000000E+00  0.3535353E-01  0.4902930E-05  0.0000000E+00  0.7632097E-04
  0.1363636E+00  0.0000000E+00  0.3535353E-01  0.5223042E-05  0.0000000E+00  0.7784927E-04
  0.1464646E+00  0.0000000E+00  0.3535353E-01  0.5521059E-05  0.0000000E+00  0.7948395E-04
  0.1565657E+00  0.0000000E+00  0.3535353E-01  0.5786743E-05  0.0000000E+00  0.8122836E-04
  0.1666667E+00  0.0000000E+00  0.3535353E-01  0.6000322E-05  0.0000000E+00  0.8308954E-04
  0.1767677E+00  0.0000000E+00  0.3535353E-01  0.6123718E-05  0.0000000E+00  0.8507836E-04
  0.1868687E+00  0.0000000E+00  0.3535353E-01  0.6083725E-05  0.0000000E+00  0.8720506E-04
  0.1969697E+00  0.0000000E+00  0.3535353E-01  0.5740152E-05  0.0000000E+00  0.8945750E-04
  0.2070707E+00  0.0000000E+00  0.3535353E-01  0.4832038E-05  0.0000000E+00  0.9172451E-04
  0.2171717E+00  0.0000000E+00  0.3535353E-01  0.2933604E-05  0.0000000E+00  0.9358250E-04
  0.2272727E+00  0.0000000E+00  0.3535353E-01 -0.2525280E-06  0.0000000E+00  0.9397690E-04
  0.2373737E+00  0.0000000E+00  0.3535353E-01 -0.2148424E-05  0.0000000E+00  0.9290916E-04
  0.2474747E+00  0.0000000E+00  0.3535353E-01 -0.3054129E-05  0.0000000E+00  0.9143660E-04
  0.2575758E+00  0.0000000E+00  0.3535353E-01 -0.3400429E-05  0.0000000E+00  0.8998433E-04
  0.2676768E+00  0.0000000E+00  0.3535353E-01 -0.3454952E-05  0.0000000E+00  0.8866248E-04
  0.2777778E+00  0.0000000E+00  0.3535353E-01 -0.3365524E-05  0.0000000E+00  0.8747921E-04
  0.2878788E+00  0.0000000E+00  0.3535353E-01 -0.3213177E-05  0.0000000E+00  0.8641713E-04
  0.2979798E+00  0.0000000E+00  0.3535353E-01 -0.3043170E-05  0.0000000E+00  0.8545501E-04