title = "dataset water"
variables = "x", "y", "z", "vx", "vy", "vz"
zone t = "velocities, solution time =  4.600E+01 days        " i =   99, j =   99, k =    1,  f=point
  0.5050505E-02  0.0000000E+00  0.5050505E-02  0.1865706E-08  0.0000000E+00  0.1280998E-05
  0.1515152E-01  0.0000000E+00  0.5050505E-02  0.5581626E-08  0.0000000E+00  0.1288468E-05
  0.2525252E-01  0.0000000E+00  0.5050505E-02  0.9251158E-08  0.0000000E+00  0.1303346E-05
  0.3535353E-01  0.0000000E+00  0.5050505E-02  0.1284370E-07  0.0000000E+00  0.1325509E-05
  0.4545455E-01  0.0000000E+00  0.5050505E-02  0.1632916E-07  0.0000000E+00  0.1354772E-05
  0.5555556E-01  0.0000000E+00  0.5050505E-02  0.1967819E-07  0.0000000E+00  0.1390891E-05
  0.6565657E-01  0.0000000E+00  0.5050505E-02  0.2286242E-07  0.0000000E+00  0.1433563E-05
  0.7575758E-01  0.0000000E+00  0.5050505E-02  0.2585478E-07  0.0000000E+00  0.1482431E-05
  0.8585858E-01  0.0000000E+00  0.5050505E-02  0.2862983E-07  0.0000000E+00  0.1537084E-05
  0.9595960E-01  0.0000000E+00  0.5050505E-02  0.3116407E-07  0.0000000E+00  0.1597064E-05
  0.1060606E+00  0.0000000E+00  0.5050505E-02  0.3343638E-07  0.0000000E+00  0.1661866E-05
  0.1161616E+00  0.0000000E+00  0.5050505E-02  0.3542837E-07  0.0000000E+00  0.1730946E-05
  0.1262626E+00  0.0000000E+00  0.5050505E-02  0.3712474E-07  0.0000000E+00  0.1803726E-05
  0.1363636E+00  0.0000000E+00  0.5050505E-02  0.3851371E-07  0.0000000E+00  0.1879603E-05
  0.1464646E+00  0.0000000E+00  0.5050505E-02  0.3958753E-07  0.0000000E+00  0.1957950E-05
  0.1565657E+00  0.0000000E+00  0.5050505E-02  0.4034223E-07  0.0000000E+00  0.2038132E-05
  0.1666667E+00  0.0000000E+00  0.5050505E-02  0.4077787E-07  0.0000000E+00  0.2119510E-05
  0.1767677E+00  0.0000000E+00  0.5050505E-02  0.4089861E-07  0.0000000E+00  0.2201446E-05
  0.1868687E+00  0.0000000E+00  0.5050505E-02  0.4071256E-07  0.0000000E+00  0.2283318E-05
  0.1969697E+00  0.0000000E+00  0.5050505E-02  0.4023155E-07  0.0000000E+00  0.2364521E-05
  0.2070707E+00  0.0000000E+00  0.5050505E-02  0.3947074E-07  0.0000000E+00  0.2444479E-05
  0.2171717E+00  0.0000000E+00  0.5050505E-02  0.3844811E-07  0.0000000E+00  0.2522649E-05
  0.2272727E+00  0.0000000E+00  0.5050505E-02  0.3718395E-07  0.0000000E+00  0.2598525E-05
  0.2373737E+00  0.0000000E+00  0.5050505E-02  0.3570018E-07  0.0000000E+00  0.2671646E-05
  0.2474747E+00  0.0000000E+00  0.5050505E-02  0.3401979E-07  0.0000000E+00  0.2741592E-05
  0.2575758E+00  0.0000000E+00  0.5050505E-02  0.3216619E-07  0.0000000E+00  0.2807994E-05
  0.2676768E+00  0.0000000E+00  0.5050505E-02  0.3016268E-07  0.0000000E+00  0.2870526E-05
  0.2777778E+00  0.0000000E+00  0.5050505E-02  0.2803193E-07  0.0000000E+00  0.2928911E-05
  0.2878788E+00  0.0000000E+00  0.5050505E-02  0.2579554E-07  0.0000000E+00  0.2982915E-05
  0.2979798E+00  0.0000000E+00  0.5050505E-02  0.2347371E-07  0.0000000E+00  0.3032346E-05
  0.3080808E+00  0.0000000E+00  0.5050505E-02  0.2108497E-07  0.0000000E+00  0.3077052E-05
  0.3181818E+00  0.0000000E+00  0.5050505E-02  0.1864595E-07  0.0000000E+00  0.3116914E-05
  0.3282828E+00  0.0000000E+00  0.5050505E-02  0.1617124E-07  0.0000000E+00  0.3151846E-05
  0.3383838E+00  0.0000000E+00  0.5050505E-02  0.1367328E-07  0.0000000E+00  0.3181789E-05
  0.3484848E+00  0.0000000E+00  0.5050505E-02  0.1116238E-07  0.0000000E+00  0.3206707E-05
  0.3585859E+00  0.0000000E+00  0.5050505E-02  0.8646627E-08  0.0000000E+00  0.3226582E-05
  0.3686869E+00  0.0000000E+00  0.5050505E-02  0.6131952E-08  0.0000000E+00  0.3241409E-05
  0.3787879E+00  0.0000000E+00  0.5050505E-02  0.3622197E-08  0.0000000E+00  0.3251196E-05
  0.3888889E+00  0.0000000E+00  0.5050505E-02  0.1119195E-08  0.0000000E+00  0.3255953E-05
  0.3989899E+00  0.0000000E+00  0.5050505E-02 -0.1377089E-08  0.0000000E+00  0.3255694E-05
  0.4090909E+00  0.0000000E+00  0.5050505E-02 -0.3868396E-08  0.0000000E+00  0.3250431E-05
  0.4191919E+00  0.0000000E+00  0.5050505E-02 -0.6357951E-08  0.0000000E+00  0.3240171E-05
  0.4292929E+00  0.0000000E+00  0.5050505E-02 -0.8850206E-08  0.0000000E+00  0.3224912E-05
  0.4393939E+00  0.0000000E+00  0.5050505E-02 -0.1135052E-07  0.0000000E+00  0.3204645E-05
  0.4494950E+00  0.0000000E+00  0.5050505E-02 -0.1386477E-07  0.0000000E+00  0.3179346E-05
  0.4595959E+00  0.0000000E+00  0.5050505E-02 -0.1639894E-07  0.0000000E+00  0.3148982E-05
  0.4696970E+00  0.0000000E+00  0.5050505E-02 -0.1895864E-07  0.0000000E+00  0.3113508E-05
  0.4797980E+00  0.0000000E+00  0.5050505E-02 -0.2154854E-07  0.0000000E+00  0.3072867E-05
  0.4898990E+00  0.0000000E+00  0.5050505E-02 -0.2417185E-07  0.0000000E+00  0.3026996E-05
  0.5000000E+00  0.0000000E+00  0.5050505E-02 -0.2682971E-07  0.0000000E+00  0.2975827E-05
  0.5101010E+00  0.0000000E+00  0.5050505E-02 -0.2952067E-07  0.0000000E+00  0.2919292E-05
  0.5202020E+00  0.0000000E+00  0.5050505E-02 -0.3224018E-07  0.0000000E+00  0.2857329E-05
  0.5303030E+00  0.0000000E+00  0.5050505E-02 -0.3498022E-07  0.0000000E+00  0.2789889E-05
  0.5404040E+00  0.0000000E+00  0.5050505E-02 -0.3772907E-07  0.0000000E+00  0.2716943E-05
  0.5505050E+00  0.0000000E+00  0.5050505E-02 -0.4047126E-07  0.0000000E+00  0.2638489E-05
  0.5606061E+00  0.0000000E+00  0.5050505E-02 -0.4318779E-07  0.0000000E+00  0.2554560E-05
  0.5707071E+00  0.0000000E+00  0.5050505E-02 -0.4585655E-07  0.0000000E+00  0.2465228E-05
  0.5808081E+00  0.0000000E+00  0.5050505E-02 -0.4845303E-07  0.0000000E+00  0.2370616E-05
  0.5909091E+00  0.0000000E+00  0.5050505E-02 -0.5095119E-07  0.0000000E+00  0.2270893E-05
  0.6010101E+00  0.0000000E+00  0.5050505E-02 -0.5332447E-07  0.0000000E+00  0.2166286E-05
  0.6111111E+00  0.0000000E+00  0.5050505E-02 -0.5554687E-07  0.0000000E+00  0.2057069E-05
  0.6212121E+00  0.0000000E+00  0.5050505E-02 -0.5759399E-07  0.0000000E+00  0.1943570E-05
  0.6313131E+00  0.0000000E+00  0.5050505E-02 -0.5944388E-07  0.0000000E+00  0.1826164E-05
  0.6414142E+00  0.0000000E+00  0.5050505E-02 -0.6107778E-07  0.0000000E+00  0.1705266E-05
  0.6515151E+00  0.0000000E+00  0.5050505E-02 -0.6248038E-07  0.0000000E+00  0.1581323E-05
  0.6616161E+00  0.0000000E+00  0.5050505E-02 -0.6364032E-07  0.0000000E+00  0.1454811E-05
  0.6717172E+00  0.0000000E+00  0.5050505E-02 -0.6455043E-07  0.0000000E+00  0.1326225E-05
  0.6818182E+00  0.0000000E+00  0.5050505E-02 -0.6520726E-07  0.0000000E+00  0.1196069E-05
  0.6919192E+00  0.0000000E+00  0.5050505E-02 -0.6561074E-07  0.0000000E+00  0.1064852E-05
  0.7020202E+00  0.0000000E+00  0.5050505E-02 -0.6576369E-07  0.0000000E+00  0.9330789E-06
  0.7121212E+00  0.0000000E+00  0.5050505E-02 -0.6567142E-07  0.0000000E+00  0.8012470E-06
  0.7222222E+00  0.0000000E+00  0.5050505E-02 -0.6534122E-07  0.0000000E+00  0.6698410E-06
  0.7323232E+00  0.0000000E+00  0.5050505E-02 -0.6478195E-07  0.0000000E+00  0.5393291E-06
  0.7424242E+00  0.0000000E+00  0.5050505E-02 -0.6400374E-07  0.0000000E+00  0.4101608E-06
  0.7525253E+00  0.0000000E+00  0.5050505E-02 -0.6301776E-07  0.0000000E+00  0.2827639E-06
  0.7626263E+00  0.0000000E+00  0.5050505E-02 -0.6183656E-07  0.0000000E+00  0.1575425E-06
  0.7727273E+00  0.0000000E+00  0.5050505E-02 -0.6047541E-07  0.0000000E+00  0.3491032E-07
  0.7828283E+00  0.0000000E+00  0.5050505E-02 -0.5892083E-07  0.0000000E+00 -0.8462503E-07
  0.7929293E+00  0.0000000E+00  0.5050505E-02 -0.5719079E-07  0.0000000E+00 -0.2007378E-06
  0.8030303E+00  0.0000000E+00  0.5050505E-02 -0.5530420E-07  0.0000000E+00 -0.3132356E-06
  0.8131313E+00  0.0000000E+00  0.5050505E-02 -0.5327228E-07  0.0000000E+00 -0.4218162E-06
  0.8232324E+00  0.0000000E+00  0.5050505E-02 -0.5110504E-07  0.0000000E+00 -0.5261989E-06
  0.8333333E+00  0.0000000E+00  0.5050505E-02 -0.4881199E-07  0.0000000E+00 -0.6261224E-06
  0.8434343E+00  0.0000000E+00  0.5050505E-02 -0.4640231E-07  0.0000000E+00 -0.7213440E-06
  0.8535354E+00  0.0000000E+00  0.5050505E-02 -0.4388486E-07  0.0000000E+00 -0.8116392E-06
  0.8636364E+00  0.0000000E+00  0.5050505E-02 -0.4126817E-07  0.0000000E+00 -0.8968007E-06
  0.8737374E+00  0.0000000E+00  0.5050505E-02 -0.3856046E-07  0.0000000E+00 -0.9766381E-06
  0.8838384E+00  0.0000000E+00  0.5050505E-02 -0.3576966E-07  0.0000000E+00 -0.1050977E-05
  0.8939394E+00  0.0000000E+00  0.5050505E-02 -0.3290342E-07  0.0000000E+00 -0.1119659E-05
  0.9040404E+00  0.0000000E+00  0.5050505E-02 -0.2996915E-07  0.0000000E+00 -0.1182540E-05
  0.9141414E+00  0.0000000E+00  0.5050505E-02 -0.2697402E-07  0.0000000E+00 -0.1239492E-05
  0.9242424E+00  0.0000000E+00  0.5050505E-02 -0.2392498E-07  0.0000000E+00 -0.1290398E-05
  0.9343435E+00  0.0000000E+00  0.5050505E-02 -0.2082881E-07  0.0000000E+00 -0.1335159E-05
  0.9444444E+00  0.0000000E+00  0.5050505E-02 -0.1769212E-07  0.0000000E+00 -0.1373687E-05
  0.9545454E+00  0.0000000E+00  0.5050505E-02 -0.1452138E-07  0.0000000E+00 -0.1405905E-05
  0.9646465E+00  0.0000000E+00  0.5050505E-02 -0.1132295E-07  0.0000000E+00 -0.1431754E-05
  0.9747475E+00  0.0000000E+00  0.5050505E-02 -0.8103077E-08  0.0000000E+00 -0.1451184E-05
  0.9848485E+00  0.0000000E+00  0.5050505E-02 -0.4867938E-08  0.0000000E+00 -0.1464157E-05
  0.9974747E+00  0.0000000E+00  0.5050505E-02 -0.1623661E-08  0.0000000E+00 -0.1470650E-05
  0.5050505E-02  0.0000000E+00  0.1515152E-01  0.5617241E-08  0.0000000E+00  0.1314868E-05
  0.1515152E-01  0.0000000E+00  0.1515152E-01  0.1680509E-07  0.0000000E+00  0.1322441E-05
  0.2525252E-01  0.0000000E+00  0.1515152E-01  0.2785330E-07  0.0000000E+00  0.1337523E-05
  0.3535353E-01  0.0000000E+00  0.1515152E-01  0.3866972E-07  0.0000000E+00  0.1359989E-05
  0.4545455E-01  0.0000000E+00  0.1515152E-01  0.4916373E-07  0.0000000E+00  0.1389653E-05
  0.5555556E-01  0.0000000E+00  0.1515152E-01  0.5924688E-07  0.0000000E+00  0.1426266E-05
  0.6565657E-01  0.0000000E+00  0.1515152E-01  0.6883369E-07  0.0000000E+00  0.1469523E-05
  0.7575758E-01  0.0000000E+00  0.1515152E-01  0.7784251E-07  0.0000000E+00  0.1519059E-05
  0.8585858E-01  0.0000000E+00  0.1515152E-01  0.8619650E-07  0.0000000E+00  0.1574458E-05
  0.9595960E-01  0.0000000E+00  0.1515152E-01  0.9382476E-07  0.0000000E+00  0.1635254E-05
  0.1060606E+00  0.0000000E+00  0.1515152E-01  0.1006634E-06  0.0000000E+00  0.1700933E-05
  0.1161616E+00  0.0000000E+00  0.1515152E-01  0.1066569E-06  0.0000000E+00  0.1770941E-05
  0.1262626E+00  0.0000000E+00  0.1515152E-01  0.1117589E-06  0.0000000E+00  0.1844692E-05
  0.1363636E+00  0.0000000E+00  0.1515152E-01  0.1159340E-06  0.0000000E+00  0.1921568E-05
  0.1464646E+00  0.0000000E+00  0.1515152E-01  0.1191585E-06  0.0000000E+00  0.2000934E-05
  0.1565657E+00  0.0000000E+00  0.1515152E-01  0.1214204E-06  0.0000000E+00  0.2082141E-05
  0.1666667E+00  0.0000000E+00  0.1515152E-01  0.1227198E-06  0.0000000E+00  0.2164537E-05
  0.1767677E+00  0.0000000E+00  0.1515152E-01  0.1230696E-06  0.0000000E+00  0.2247474E-05
  0.1868687E+00  0.0000000E+00  0.1515152E-01  0.1224945E-06  0.0000000E+00  0.2330316E-05
  0.1969697E+00  0.0000000E+00  0.1515152E-01  0.1210303E-06  0.0000000E+00  0.2412449E-05
  0.2070707E+00  0.0000000E+00  0.1515152E-01  0.1187233E-06  0.0000000E+00  0.2493288E-05
  0.2171717E+00  0.0000000E+00  0.1515152E-01  0.1156280E-06  0.0000000E+00  0.2572282E-05
  0.2272727E+00  0.0000000E+00  0.1515152E-01  0.1118062E-06  0.0000000E+00  0.2648918E-05
  0.2373737E+00  0.0000000E+00  0.1515152E-01  0.1073243E-06  0.0000000E+00  0.2722730E-05
  0.2474747E+00  0.0000000E+00  0.1515152E-01  0.1022521E-06  0.0000000E+00  0.2793298E-05
  0.2575758E+00  0.0000000E+00  0.1515152E-01  0.9666056E-07  0.0000000E+00  0.2860248E-05
  0.2676768E+00  0.0000000E+00  0.1515152E-01  0.9062010E-07  0.0000000E+00  0.2923257E-05
  0.2777778E+00  0.0000000E+00  0.1515152E-01  0.8419929E-07  0.0000000E+00  0.2982048E-05
  0.2878788E+00  0.0000000E+00  0.1515152E-01  0.7746339E-07  0.0000000E+00  0.3036390E-05
  0.2979798E+00  0.0000000E+00  0.1515152E-01  0.7047336E-07  0.0000000E+00  0.3086094E-05
  0.3080808E+00  0.0000000E+00  0.1515152E-01  0.6328501E-07  0.0000000E+00  0.3131012E-05
  0.3181818E+00  0.0000000E+00  0.1515152E-01  0.5594840E-07  0.0000000E+00  0.3171031E-05
  0.3282828E+00  0.0000000E+00  0.1515152E-01  0.4850742E-07  0.0000000E+00  0.3206069E-05
  0.3383838E+00  0.0000000E+00  0.1515152E-01  0.4099948E-07  0.0000000E+00  0.3236073E-05
  0.3484848E+00  0.0000000E+00  0.1515152E-01  0.3345544E-07  0.0000000E+00  0.3261011E-05
  0.3585859E+00  0.0000000E+00  0.1515152E-01  0.2589953E-07  0.0000000E+00  0.3280871E-05
  0.3686869E+00  0.0000000E+00  0.1515152E-01  0.1834946E-07  0.0000000E+00  0.3295655E-05
  0.3787879E+00  0.0000000E+00  0.1515152E-01  0.1081659E-07  0.0000000E+00  0.3305373E-05
  0.3888889E+00  0.0000000E+00  0.1515152E-01  0.3306243E-08  0.0000000E+00  0.3310042E-05
  0.3989899E+00  0.0000000E+00  0.1515152E-01 -0.4181936E-08  0.0000000E+00  0.3309680E-05
  0.4090909E+00  0.0000000E+00  0.1515152E-01 -0.1165346E-07  0.0000000E+00  0.3304303E-05
  0.4191919E+00  0.0000000E+00  0.1515152E-01 -0.1911836E-07  0.0000000E+00  0.3293920E-05
  0.4292929E+00  0.0000000E+00  0.1515152E-01 -0.2659040E-07  0.0000000E+00  0.3278532E-05
  0.4393939E+00  0.0000000E+00  0.1515152E-01 -0.3408613E-07  0.0000000E+00  0.3258131E-05
  0.4494950E+00  0.0000000E+00  0.1515152E-01 -0.4162374E-07  0.0000000E+00  0.3232694E-05
  0.4595959E+00  0.0000000E+00  0.1515152E-01 -0.4922179E-07  0.0000000E+00  0.3202187E-05
  0.4696970E+00  0.0000000E+00  0.1515152E-01 -0.5689770E-07  0.0000000E+00  0.3166563E-05
  0.4797980E+00  0.0000000E+00  0.1515152E-01 -0.6466621E-07  0.0000000E+00  0.3125762E-05
  0.4898990E+00  0.0000000E+00  0.1515152E-01 -0.7253757E-07  0.0000000E+00  0.3079715E-05
  0.5000000E+00  0.0000000E+00  0.1515152E-01 -0.8051587E-07  0.0000000E+00  0.3028348E-05
  0.5101010E+00  0.0000000E+00  0.1515152E-01 -0.8859731E-07  0.0000000E+00  0.2971586E-05
  0.5202020E+00  0.0000000E+00  0.1515152E-01 -0.9676866E-07  0.0000000E+00  0.2909360E-05
  0.5303030E+00  0.0000000E+00  0.1515152E-01 -0.1050061E-06  0.0000000E+00  0.2841610E-05
  0.5404040E+00  0.0000000E+00  0.1515152E-01 -0.1132745E-06  0.0000000E+00  0.2768299E-05
  0.5505050E+00  0.0000000E+00  0.1515152E-01 -0.1215271E-06  0.0000000E+00  0.2689416E-05
  0.5606061E+00  0.0000000E+00  0.1515152E-01 -0.1297064E-06  0.0000000E+00  0.2604986E-05
  0.5707071E+00  0.0000000E+00  0.1515152E-01 -0.1377452E-06  0.0000000E+00  0.2515076E-05
  0.5808081E+00  0.0000000E+00  0.1515152E-01 -0.1455690E-06  0.0000000E+00  0.2419802E-05
  0.5909091E+00  0.0000000E+00  0.1515152E-01 -0.1530983E-06  0.0000000E+00  0.2319335E-05
  0.6010101E+00  0.0000000E+00  0.1515152E-01 -0.1602523E-06  0.0000000E+00  0.2213898E-05
  0.6111111E+00  0.0000000E+00  0.1515152E-01 -0.1669517E-06  0.0000000E+00  0.2103773E-05
  0.6212121E+00  0.0000000E+00  0.1515152E-01 -0.1731222E-06  0.0000000E+00  0.1989292E-05
  0.6313131E+00  0.0000000E+00  0.1515152E-01 -0.1786970E-06  0.0000000E+00  0.1870839E-05
  0.6414142E+00  0.0000000E+00  0.1515152E-01 -0.1836193E-06  0.0000000E+00  0.1748836E-05
  0.6515151E+00  0.0000000E+00  0.1515152E-01 -0.1878430E-06  0.0000000E+00  0.1623744E-05
  0.6616161E+00  0.0000000E+00  0.1515152E-01 -0.1913339E-06  0.0000000E+00  0.1496048E-05
  0.6717172E+00  0.0000000E+00  0.1515152E-01 -0.1940705E-06  0.0000000E+00  0.1366255E-05
  0.6818182E+00  0.0000000E+00  0.1515152E-01 -0.1960429E-06  0.0000000E+00  0.1234880E-05
  0.6919192E+00  0.0000000E+00  0.1515152E-01 -0.1972512E-06  0.0000000E+00  0.1102440E-05
  0.7020202E+00  0.0000000E+00  0.1515152E-01 -0.1977046E-06  0.0000000E+00  0.9694506E-06
  0.7121212E+00  0.0000000E+00  0.1515152E-01 -0.1974194E-06  0.0000000E+00  0.8364161E-06
  0.7222222E+00  0.0000000E+00  0.1515152E-01 -0.1964180E-06  0.0000000E+00  0.7038278E-06
  0.7323232E+00  0.0000000E+00  0.1515152E-01 -0.1947275E-06  0.0000000E+00  0.5721600E-06
  0.7424242E+00  0.0000000E+00  0.1515152E-01 -0.1923784E-06  0.0000000E+00  0.4418668E-06
  0.7525253E+00  0.0000000E+00  0.1515152E-01 -0.1894042E-06  0.0000000E+00  0.3133810E-06
  0.7626263E+00  0.0000000E+00  0.1515152E-01 -0.1858412E-06  0.0000000E+00  0.1871127E-06
  0.7727273E+00  0.0000000E+00  0.1515152E-01 -0.1817293E-06  0.0000000E+00  0.6345147E-07
  0.7828283E+00  0.0000000E+00  0.1515152E-01 -0.1770782E-06  0.0000000E+00 -0.5709042E-07
  0.7929293E+00  0.0000000E+00  0.1515152E-01 -0.1718669E-06  0.0000000E+00 -0.1741526E-06
  0.8030303E+00  0.0000000E+00  0.1515152E-01 -0.1661900E-06  0.0000000E+00 -0.2875476E-06
  0.8131313E+00  0.0000000E+00  0.1515152E-01 -0.1600781E-06  0.0000000E+00 -0.3969810E-06
  0.8232324E+00  0.0000000E+00  0.1515152E-01 -0.1535605E-06  0.0000000E+00 -0.5021725E-06
  0.8333333E+00  0.0000000E+00  0.1515152E-01 -0.1466658E-06  0.0000000E+00 -0.6028604E-06
  0.8434343E+00  0.0000000E+00  0.1515152E-01 -0.1394214E-06  0.0000000E+00 -0.6988020E-06
  0.8535354E+00  0.0000000E+00  0.1515152E-01 -0.1318539E-06  0.0000000E+00 -0.7897724E-06
  0.8636364E+00  0.0000000E+00  0.1515152E-01 -0.1239889E-06  0.0000000E+00 -0.8755643E-06
  0.8737374E+00  0.0000000E+00  0.1515152E-01 -0.1158511E-06  0.0000000E+00 -0.9559872E-06
  0.8838384E+00  0.0000000E+00  0.1515152E-01 -0.1074642E-06  0.0000000E+00 -0.1030867E-05
  0.8939394E+00  0.0000000E+00  0.1515152E-01 -0.9885129E-07  0.0000000E+00 -0.1100044E-05
  0.9040404E+00  0.0000000E+00  0.1515152E-01 -0.9003444E-07  0.0000000E+00 -0.1163376E-05
  0.9141414E+00  0.0000000E+00  0.1515152E-01 -0.8103516E-07  0.0000000E+00 -0.1220732E-05
  0.9242424E+00  0.0000000E+00  0.1515152E-01 -0.7187434E-07  0.0000000E+00 -0.1271999E-05
  0.9343435E+00  0.0000000E+00  0.1515152E-01 -0.6257227E-07  0.0000000E+00 -0.1317075E-05
  0.9444444E+00  0.0000000E+00  0.1515152E-01 -0.5314878E-07  0.0000000E+00 -0.1355873E-05
  0.9545454E+00  0.0000000E+00  0.1515152E-01 -0.4362325E-07  0.0000000E+00 -0.1388317E-05
  0.9646465E+00  0.0000000E+00  0.1515152E-01 -0.3401473E-07  0.0000000E+00 -0.1414346E-05
  0.9747475E+00  0.0000000E+00  0.1515152E-01 -0.2434194E-07  0.0000000E+00 -0.1433910E-05
  0.9848485E+00  0.0000000E+00  0.1515152E-01 -0.1462342E-07  0.0000000E+00 -0.1446973E-05
  0.9974747E+00  0.0000000E+00  0.1515152E-01 -0.4877515E-08  0.0000000E+00 -0.1453511E-05
  0.5050505E-02  0.0000000E+00  0.2525252E-01  0.9434849E-08  0.0000000E+00  0.1382690E-05
  0.1515152E-01  0.0000000E+00  0.2525252E-01  0.2822625E-07  0.0000000E+00  0.1390469E-05
  0.2525252E-01  0.0000000E+00  0.2525252E-01  0.4678320E-07  0.0000000E+00  0.1405961E-05
  0.3535353E-01  0.0000000E+00  0.2525252E-01  0.6495091E-07  0.0000000E+00  0.1429039E-05
  0.4545455E-01  0.0000000E+00  0.2525252E-01  0.8257707E-07  0.0000000E+00  0.1459510E-05
  0.5555556E-01  0.0000000E+00  0.2525252E-01  0.9951290E-07  0.0000000E+00  0.1497119E-05
  0.6565657E-01  0.0000000E+00  0.2525252E-01  0.1156145E-06  0.0000000E+00  0.1541552E-05
  0.7575758E-01  0.0000000E+00  0.2525252E-01  0.1307442E-06  0.0000000E+00  0.1592434E-05
  0.8585858E-01  0.0000000E+00  0.2525252E-01  0.1447724E-06  0.0000000E+00  0.1649336E-05
  0.9595960E-01  0.0000000E+00  0.2525252E-01  0.1575792E-06  0.0000000E+00  0.1711776E-05
  0.1060606E+00  0.0000000E+00  0.2525252E-01  0.1690566E-06  0.0000000E+00  0.1779223E-05
  0.1161616E+00  0.0000000E+00  0.2525252E-01  0.1791102E-06  0.0000000E+00  0.1851104E-05
  0.1262626E+00  0.0000000E+00  0.2525252E-01  0.1876621E-06  0.0000000E+00  0.1926811E-05
  0.1363636E+00  0.0000000E+00  0.2525252E-01  0.1946520E-06  0.0000000E+00  0.2005704E-05
  0.1464646E+00  0.0000000E+00  0.2525252E-01  0.2000394E-06  0.0000000E+00  0.2087124E-05
  0.1565657E+00  0.0000000E+00  0.2525252E-01  0.2038037E-06  0.0000000E+00  0.2170398E-05
  0.1666667E+00  0.0000000E+00  0.2525252E-01  0.2059456E-06  0.0000000E+00  0.2254847E-05
  0.1767677E+00  0.0000000E+00  0.2525252E-01  0.2064870E-06  0.0000000E+00  0.2339799E-05
  0.1868687E+00  0.0000000E+00  0.2525252E-01  0.2054704E-06  0.0000000E+00  0.2424596E-05
  0.1969697E+00  0.0000000E+00  0.2525252E-01  0.2029575E-06  0.0000000E+00  0.2508602E-05
  0.2070707E+00  0.0000000E+00  0.2525252E-01  0.1990273E-06  0.0000000E+00  0.2591213E-05
  0.2171717E+00  0.0000000E+00  0.2525252E-01  0.1937734E-06  0.0000000E+00  0.2671862E-05
  0.2272727E+00  0.0000000E+00  0.2525252E-01  0.1873012E-06  0.0000000E+00  0.2750024E-05
  0.2373737E+00  0.0000000E+00  0.2525252E-01  0.1797243E-06  0.0000000E+00  0.2825225E-05
  0.2474747E+00  0.0000000E+00  0.2525252E-01  0.1711615E-06  0.0000000E+00  0.2897036E-05
  0.2575758E+00  0.0000000E+00  0.2525252E-01  0.1617333E-06  0.0000000E+00  0.2965084E-05
  0.2676768E+00  0.0000000E+00  0.2525252E-01  0.1515596E-06  0.0000000E+00  0.3029044E-05
  0.2777778E+00  0.0000000E+00  0.2525252E-01  0.1407564E-06  0.0000000E+00  0.3088644E-05
  0.2878788E+00  0.0000000E+00  0.2525252E-01  0.1294338E-06  0.0000000E+00  0.3143657E-05
  0.2979798E+00  0.0000000E+00  0.2525252E-01  0.1176948E-06  0.0000000E+00  0.3193902E-05
  0.3080808E+00  0.0000000E+00  0.2525252E-01  0.1056333E-06  0.0000000E+00  0.3239239E-05
  0.3181818E+00  0.0000000E+00  0.2525252E-01  0.9333323E-07  0.0000000E+00  0.3279564E-05
  0.3282828E+00  0.0000000E+00  0.2525252E-01  0.8086822E-07  0.0000000E+00  0.3314807E-05
  0.3383838E+00  0.0000000E+00  0.2525252E-01  0.6830081E-07  0.0000000E+00  0.3344924E-05
  0.3484848E+00  0.0000000E+00  0.2525252E-01  0.5568239E-07  0.0000000E+00  0.3369896E-05
  0.3585859E+00  0.0000000E+00  0.2525252E-01  0.4305321E-07  0.0000000E+00  0.3389720E-05
  0.3686869E+00  0.0000000E+00  0.2525252E-01  0.3044246E-07  0.0000000E+00  0.3404409E-05
  0.3787879E+00  0.0000000E+00  0.2525252E-01  0.1786863E-07  0.0000000E+00  0.3413985E-05
  0.3888889E+00  0.0000000E+00  0.2525252E-01  0.5339947E-08  0.0000000E+00  0.3418473E-05
  0.3989899E+00  0.0000000E+00  0.2525252E-01 -0.7144984E-08  0.0000000E+00  0.3417899E-05
  0.4090909E+00  0.0000000E+00  0.2525252E-01 -0.1959633E-07  0.0000000E+00  0.3412289E-05
  0.4191919E+00  0.0000000E+00  0.2525252E-01 -0.3203200E-07  0.0000000E+00  0.3401656E-05
  0.4292929E+00  0.0000000E+00  0.2525252E-01 -0.4447632E-07  0.0000000E+00  0.3386009E-05
  0.4393939E+00  0.0000000E+00  0.2525252E-01 -0.5695847E-07  0.0000000E+00  0.3365339E-05
  0.4494950E+00  0.0000000E+00  0.2525252E-01 -0.6951062E-07  0.0000000E+00  0.3339628E-05
  0.4595959E+00  0.0000000E+00  0.2525252E-01 -0.8216571E-07  0.0000000E+00  0.3308837E-05
  0.4696970E+00  0.0000000E+00  0.2525252E-01 -0.9495497E-07  0.0000000E+00  0.3272916E-05
  0.4797980E+00  0.0000000E+00  0.2525252E-01 -0.1079052E-06  0.0000000E+00  0.3231799E-05
  0.4898990E+00  0.0000000E+00  0.2525252E-01 -0.1210359E-06  0.0000000E+00  0.3185406E-05
  0.5000000E+00  0.0000000E+00  0.2525252E-01 -0.1343559E-06  0.0000000E+00  0.3133652E-05
  0.5101010E+00  0.0000000E+00  0.2525252E-01 -0.1478609E-06  0.0000000E+00  0.3076446E-05
  0.5202020E+00  0.0000000E+00  0.2525252E-01 -0.1615302E-06  0.0000000E+00  0.3013702E-05
  0.5303030E+00  0.0000000E+00  0.2525252E-01 -0.1753251E-06  0.0000000E+00  0.2945342E-05
  0.5404040E+00  0.0000000E+00  0.2525252E-01 -0.1891868E-06  0.0000000E+00  0.2871310E-05
  0.5505050E+00  0.0000000E+00  0.2525252E-01 -0.2030366E-06  0.0000000E+00  0.2791576E-05
  0.5606061E+00  0.0000000E+00  0.2525252E-01 -0.2167767E-06  0.0000000E+00  0.2706150E-05
  0.5707071E+00  0.0000000E+00  0.2525252E-01 -0.2302924E-06  0.0000000E+00  0.2615085E-05
  0.5808081E+00  0.0000000E+00  0.2525252E-01 -0.2434555E-06  0.0000000E+00  0.2518489E-05
  0.5909091E+00  0.0000000E+00  0.2525252E-01 -0.2561296E-06  0.0000000E+00  0.2416527E-05
  0.6010101E+00  0.0000000E+00  0.2525252E-01 -0.2681753E-06  0.0000000E+00  0.2309426E-05
  0.6111111E+00  0.0000000E+00  0.2525252E-01 -0.2794561E-06  0.0000000E+00  0.2197473E-05
  0.6212121E+00  0.0000000E+00  0.2525252E-01 -0.2898444E-06  0.0000000E+00  0.2081015E-05
  0.6313131E+00  0.0000000E+00  0.2525252E-01 -0.2992258E-06  0.0000000E+00  0.1960449E-05
  0.6414142E+00  0.0000000E+00  0.2525252E-01 -0.3075035E-06  0.0000000E+00  0.1836221E-05
  0.6515151E+00  0.0000000E+00  0.2525252E-01 -0.3146001E-06  0.0000000E+00  0.1708812E-05
  0.6616161E+00  0.0000000E+00  0.2525252E-01 -0.3204583E-06  0.0000000E+00  0.1578732E-05
  0.6717172E+00  0.0000000E+00  0.2525252E-01 -0.3250426E-06  0.0000000E+00  0.1446507E-05
  0.6818182E+00  0.0000000E+00  0.2525252E-01 -0.3283375E-06  0.0000000E+00  0.1312676E-05
  0.6919192E+00  0.0000000E+00  0.2525252E-01 -0.3303450E-06  0.0000000E+00  0.1177775E-05
  0.7020202E+00  0.0000000E+00  0.2525252E-01 -0.3310821E-06  0.0000000E+00  0.1042339E-05
  0.7121212E+00  0.0000000E+00  0.2525252E-01 -0.3305779E-06  0.0000000E+00  0.9068856E-06
  0.7222222E+00  0.0000000E+00  0.2525252E-01 -0.3288716E-06  0.0000000E+00  0.7719211E-06
  0.7323232E+00  0.0000000E+00  0.2525252E-01 -0.3260096E-06  0.0000000E+00  0.6379304E-06
  0.7424242E+00  0.0000000E+00  0.2525252E-01 -0.3220441E-06  0.0000000E+00  0.5053770E-06
  0.7525253E+00  0.0000000E+00  0.2525252E-01 -0.3170312E-06  0.0000000E+00  0.3747018E-06
  0.7626263E+00  0.0000000E+00  0.2525252E-01 -0.3110301E-06  0.0000000E+00  0.2463218E-06
  0.7727273E+00  0.0000000E+00  0.2525252E-01 -0.3041032E-06  0.0000000E+00  0.1206293E-06
  0.7828283E+00  0.0000000E+00  0.2525252E-01 -0.2963144E-06  0.0000000E+00 -0.1923688E-08
  0.7929293E+00  0.0000000E+00  0.2525252E-01 -0.2875901E-06  0.0000000E+00 -0.1209198E-06
  0.8030303E+00  0.0000000E+00  0.2525252E-01 -0.2780690E-06  0.0000000E+00 -0.2361093E-06
  0.8131313E+00  0.0000000E+00  0.2525252E-01 -0.2678234E-06  0.0000000E+00 -0.3472514E-06
  0.8232324E+00  0.0000000E+00  0.2525252E-01 -0.2569019E-06  0.0000000E+00 -0.4540641E-06
  0.8333333E+00  0.0000000E+00  0.2525252E-01 -0.2453519E-06  0.0000000E+00 -0.5562846E-06
  0.8434343E+00  0.0000000E+00  0.2525252E-01 -0.2332195E-06  0.0000000E+00 -0.6536694E-06
  0.8535354E+00  0.0000000E+00  0.2525252E-01 -0.2205491E-06  0.0000000E+00 -0.7459933E-06
  0.8636364E+00  0.0000000E+00  0.2525252E-01 -0.2073835E-06  0.0000000E+00 -0.8330487E-06
  0.8737374E+00  0.0000000E+00  0.2525252E-01 -0.1937636E-06  0.0000000E+00 -0.9146449E-06
  0.8838384E+00  0.0000000E+00  0.2525252E-01 -0.1797292E-06  0.0000000E+00 -0.9906075E-06
  0.8939394E+00  0.0000000E+00  0.2525252E-01 -0.1653184E-06  0.0000000E+00 -0.1060778E-05
  0.9040404E+00  0.0000000E+00  0.2525252E-01 -0.1505683E-06  0.0000000E+00 -0.1125012E-05
  0.9141414E+00  0.0000000E+00  0.2525252E-01 -0.1355145E-06  0.0000000E+00 -0.1183181E-05
  0.9242424E+00  0.0000000E+00  0.2525252E-01 -0.1201919E-06  0.0000000E+00 -0.1235169E-05
  0.9343435E+00  0.0000000E+00  0.2525252E-01 -0.1046342E-06  0.0000000E+00 -0.1280877E-05
  0.9444444E+00  0.0000000E+00  0.2525252E-01 -0.8887447E-07  0.0000000E+00 -0.1320216E-05
  0.9545454E+00  0.0000000E+00  0.2525252E-01 -0.7294492E-07  0.0000000E+00 -0.1353111E-05
  0.9646465E+00  0.0000000E+00  0.2525252E-01 -0.5687726E-07  0.0000000E+00 -0.1379500E-05
  0.9747475E+00  0.0000000E+00  0.2525252E-01 -0.4070267E-07  0.0000000E+00 -0.1399335E-05
  0.9848485E+00  0.0000000E+00  0.2525252E-01 -0.2445198E-07  0.0000000E+00 -0.1412579E-05
  0.9974747E+00  0.0000000E+00  0.2525252E-01 -0.8155718E-08  0.0000000E+00 -0.1419207E-05
  0.5050505E-02  0.0000000E+00  0.3535353E-01  0.1337079E-07  0.0000000E+00  0.1484592E-05
  0.1515152E-01  0.0000000E+00  0.3535353E-01  0.4000151E-07  0.0000000E+00  0.1492683E-05
  0.2525252E-01  0.0000000E+00  0.3535353E-01  0.6630020E-07  0.0000000E+00  0.1508798E-05
  0.3535353E-01  0.0000000E+00  0.3535353E-01  0.9204753E-07  0.0000000E+00  0.1532803E-05
  0.4545455E-01  0.0000000E+00  0.3535353E-01  0.1170275E-06  0.0000000E+00  0.1564499E-05
  0.5555556E-01  0.0000000E+00  0.3535353E-01  0.1410287E-06  0.0000000E+00  0.1603620E-05
  0.6565657E-01  0.0000000E+00  0.3535353E-01  0.1638466E-06  0.0000000E+00  0.1649839E-05
  0.7575758E-01  0.0000000E+00  0.3535353E-01  0.1852852E-06  0.0000000E+00  0.1702766E-05
  0.8585858E-01  0.0000000E+00  0.3535353E-01  0.2051592E-06  0.0000000E+00  0.1761951E-05
  0.9595960E-01  0.0000000E+00  0.3535353E-01  0.2232972E-06  0.0000000E+00  0.1826888E-05
  0.1060606E+00  0.0000000E+00  0.3535353E-01  0.2395446E-06  0.0000000E+00  0.1897023E-05
  0.1161616E+00  0.0000000E+00  0.3535353E-01  0.2537662E-06  0.0000000E+00  0.1971752E-05
  0.1262626E+00  0.0000000E+00  0.3535353E-01  0.2658497E-06  0.0000000E+00  0.2050436E-05
  0.1363636E+00  0.0000000E+00  0.3535353E-01  0.2757082E-06  0.0000000E+00  0.2132399E-05
  0.1464646E+00  0.0000000E+00  0.3535353E-01  0.2832828E-06  0.0000000E+00  0.2216945E-05
  0.1565657E+00  0.0000000E+00  0.3535353E-01  0.2885441E-06  0.0000000E+00  0.2303361E-05
  0.1666667E+00  0.0000000E+00  0.3535353E-01  0.2914931E-06  0.0000000E+00  0.2390932E-05
  0.1767677E+00  0.0000000E+00  0.3535353E-01  0.2921623E-06  0.0000000E+00  0.2478948E-05
  0.1868687E+00  0.0000000E+00  0.3535353E-01  0.2906138E-06  0.0000000E+00  0.2566713E-05
  0.1969697E+00  0.0000000E+00  0.3535353E-01  0.2869379E-06  0.0000000E+00  0.2653561E-05
  0.2070707E+00  0.0000000E+00  0.3535353E-01  0.2812501E-06  0.0000000E+00  0.2738857E-05
  0.2171717E+00  0.0000000E+00  0.3535353E-01  0.2736868E-06  0.0000000E+00  0.2822011E-05
  0.2272727E+00  0.0000000E+00  0.3535353E-01  0.2644013E-06  0.0000000E+00  0.2902479E-05
  0.2373737E+00  0.0000000E+00  0.3535353E-01  0.2535586E-06  0.0000000E+00  0.2979771E-05
  0.2474747E+00  0.0000000E+00  0.3535353E-01  0.2413307E-06  0.0000000E+00  0.3053453E-05
  0.2575758E+00  0.0000000E+00  0.3535353E-01  0.2278918E-06  0.0000000E+00  0.3123147E-05
  0.2676768E+00  0.0000000E+00  0.3535353E-01  0.2134141E-06  0.0000000E+00  0.3188531E-05
  0.2777778E+00  0.0000000E+00  0.3535353E-01  0.1980640E-06  0.0000000E+00  0.3249335E-05
  0.2878788E+00  0.0000000E+00  0.3535353E-01  0.1819994E-06  0.0000000E+00  0.3305344E-05
  0.2979798E+00  0.0000000E+00  0.3535353E-01  0.1653666E-06  0.0000000E+00  0.3356386E-05