title = "dataset water"
variables = "x", "y", "z", "vx", "vy", "vz"
zone t = "velocities, solution time =  2.700E+01 days        " i =   99, j =   99, k =    1,  f=point
  0.5050505E-02  0.0000000E+00  0.5050505E-02  0.6964597E-11  0.0000000E+00 -0.1138367E-04
  0.1515152E-01  0.0000000E+00  0.5050505E-02  0.2087794E-10  0.0000000E+00 -0.1138364E-04
  0.2525252E-01  0.0000000E+00  0.5050505E-02  0.3470648E-10  0.0000000E+00 -0.1138359E-04
  0.3535353E-01  0.0000000E+00  0.5050505E-02  0.4839049E-10  0.0000000E+00 -0.1138351E-04
  0.4545455E-01  0.0000000E+00  0.5050505E-02  0.6187429E-10  0.0000000E+00 -0.1138340E-04
  0.5555556E-01  0.0000000E+00  0.5050505E-02  0.7510171E-10  0.0000000E+00 -0.1138326E-04
  0.6565657E-01  0.0000000E+00  0.5050505E-02  0.8801724E-10  0.0000000E+00 -0.1138310E-04
  0.7575758E-01  0.0000000E+00  0.5050505E-02  0.1005661E-09  0.0000000E+00 -0.1138291E-04
  0.8585858E-01  0.0000000E+00  0.5050505E-02  0.1126945E-09  0.0000000E+00 -0.1138269E-04
  0.9595960E-01  0.0000000E+00  0.5050505E-02  0.1243497E-09  0.0000000E+00 -0.1138246E-04
  0.1060606E+00  0.0000000E+00  0.5050505E-02  0.1354803E-09  0.0000000E+00 -0.1138220E-04
  0.1161616E+00  0.0000000E+00  0.5050505E-02  0.1460367E-09  0.0000000E+00 -0.1138191E-04
  0.1262626E+00  0.0000000E+00  0.5050505E-02  0.1559707E-09  0.0000000E+00 -0.1138161E-04
  0.1363636E+00  0.0000000E+00  0.5050505E-02  0.1652361E-09  0.0000000E+00 -0.1138129E-04
  0.1464646E+00  0.0000000E+00  0.5050505E-02  0.1737892E-09  0.0000000E+00 -0.1138095E-04
  0.1565657E+00  0.0000000E+00  0.5050505E-02  0.1815882E-09  0.0000000E+00 -0.1138059E-04
  0.1666667E+00  0.0000000E+00  0.5050505E-02  0.1885943E-09  0.0000000E+00 -0.1138022E-04
  0.1767677E+00  0.0000000E+00  0.5050505E-02  0.1947713E-09  0.0000000E+00 -0.1137984E-04
  0.1868687E+00  0.0000000E+00  0.5050505E-02  0.2000863E-09  0.0000000E+00 -0.1137944E-04
  0.1969697E+00  0.0000000E+00  0.5050505E-02  0.2045095E-09  0.0000000E+00 -0.1137904E-04
  0.2070707E+00  0.0000000E+00  0.5050505E-02  0.2080146E-09  0.0000000E+00 -0.1137863E-04
  0.2171717E+00  0.0000000E+00  0.5050505E-02  0.2105794E-09  0.0000000E+00 -0.1137821E-04
  0.2272727E+00  0.0000000E+00  0.5050505E-02  0.2121854E-09  0.0000000E+00 -0.1137778E-04
  0.2373737E+00  0.0000000E+00  0.5050505E-02  0.2128182E-09  0.0000000E+00 -0.1137736E-04
  0.2474747E+00  0.0000000E+00  0.5050505E-02  0.2124679E-09  0.0000000E+00 -0.1137693E-04
  0.2575758E+00  0.0000000E+00  0.5050505E-02  0.2111290E-09  0.0000000E+00 -0.1137651E-04
  0.2676768E+00  0.0000000E+00  0.5050505E-02  0.2088007E-09  0.0000000E+00 -0.1137609E-04
  0.2777778E+00  0.0000000E+00  0.5050505E-02  0.2054869E-09  0.0000000E+00 -0.1137567E-04
  0.2878788E+00  0.0000000E+00  0.5050505E-02  0.2011963E-09  0.0000000E+00 -0.1137526E-04
  0.2979798E+00  0.0000000E+00  0.5050505E-02  0.1959424E-09  0.0000000E+00 -0.1137487E-04
  0.3080808E+00  0.0000000E+00  0.5050505E-02  0.1897438E-09  0.0000000E+00 -0.1137448E-04
  0.3181818E+00  0.0000000E+00  0.5050505E-02  0.1826237E-09  0.0000000E+00 -0.1137411E-04
  0.3282828E+00  0.0000000E+00  0.5050505E-02  0.1746102E-09  0.0000000E+00 -0.1137375E-04
  0.3383838E+00  0.0000000E+00  0.5050505E-02  0.1657361E-09  0.0000000E+00 -0.1137341E-04
  0.3484848E+00  0.0000000E+00  0.5050505E-02  0.1560389E-09  0.0000000E+00 -0.1137309E-04
  0.3585859E+00  0.0000000E+00  0.5050505E-02  0.1455603E-09  0.0000000E+00 -0.1137279E-04
  0.3686869E+00  0.0000000E+00  0.5050505E-02  0.1343463E-09  0.0000000E+00 -0.1137250E-04
  0.3787879E+00  0.0000000E+00  0.5050505E-02  0.1224469E-09  0.0000000E+00 -0.1137225E-04
  0.3888889E+00  0.0000000E+00  0.5050505E-02  0.1099158E-09  0.0000000E+00 -0.1137201E-04
  0.3989899E+00  0.0000000E+00  0.5050505E-02  0.9681005E-10  0.0000000E+00 -0.1137181E-04
  0.4090909E+00  0.0000000E+00  0.5050505E-02  0.8318978E-10  0.0000000E+00 -0.1137163E-04
  0.4191919E+00  0.0000000E+00  0.5050505E-02  0.6911788E-10  0.0000000E+00 -0.1137148E-04
  0.4292929E+00  0.0000000E+00  0.5050505E-02  0.5465956E-10  0.0000000E+00 -0.1137135E-04
  0.4393939E+00  0.0000000E+00  0.5050505E-02  0.3988202E-10  0.0000000E+00 -0.1137126E-04
  0.4494950E+00  0.0000000E+00  0.5050505E-02  0.2485396E-10  0.0000000E+00 -0.1137119E-04
  0.4595959E+00  0.0000000E+00  0.5050505E-02  0.9645199E-11  0.0000000E+00 -0.1137116E-04
  0.4696970E+00  0.0000000E+00  0.5050505E-02 -0.5673838E-11  0.0000000E+00 -0.1137115E-04
  0.4797980E+00  0.0000000E+00  0.5050505E-02 -0.2103207E-10  0.0000000E+00 -0.1137118E-04
  0.4898990E+00  0.0000000E+00  0.5050505E-02 -0.3635915E-10  0.0000000E+00 -0.1137124E-04
  0.5000000E+00  0.0000000E+00  0.5050505E-02 -0.5158488E-10  0.0000000E+00 -0.1137133E-04
  0.5101010E+00  0.0000000E+00  0.5050505E-02 -0.6664000E-10  0.0000000E+00 -0.1137144E-04
  0.5202020E+00  0.0000000E+00  0.5050505E-02 -0.8145697E-10  0.0000000E+00 -0.1137159E-04
  0.5303030E+00  0.0000000E+00  0.5050505E-02 -0.9596992E-10  0.0000000E+00 -0.1137177E-04
  0.5404040E+00  0.0000000E+00  0.5050505E-02 -0.1101148E-09  0.0000000E+00 -0.1137198E-04
  0.5505050E+00  0.0000000E+00  0.5050505E-02 -0.1238303E-09  0.0000000E+00 -0.1137221E-04
  0.5606061E+00  0.0000000E+00  0.5050505E-02 -0.1370578E-09  0.0000000E+00 -0.1137247E-04
  0.5707071E+00  0.0000000E+00  0.5050505E-02 -0.1497419E-09  0.0000000E+00 -0.1137276E-04
  0.5808081E+00  0.0000000E+00  0.5050505E-02 -0.1618304E-09  0.0000000E+00 -0.1137307E-04
  0.5909091E+00  0.0000000E+00  0.5050505E-02 -0.1732749E-09  0.0000000E+00 -0.1137341E-04
  0.6010101E+00  0.0000000E+00  0.5050505E-02 -0.1840304E-09  0.0000000E+00 -0.1137376E-04
  0.6111111E+00  0.0000000E+00  0.5050505E-02 -0.1940563E-09  0.0000000E+00 -0.1137414E-04
  0.6212121E+00  0.0000000E+00  0.5050505E-02 -0.2033158E-09  0.0000000E+00 -0.1137454E-04
  0.6313131E+00  0.0000000E+00  0.5050505E-02 -0.2117764E-09  0.0000000E+00 -0.1137496E-04
  0.6414142E+00  0.0000000E+00  0.5050505E-02 -0.2194096E-09  0.0000000E+00 -0.1137539E-04
  0.6515151E+00  0.0000000E+00  0.5050505E-02 -0.2261917E-09  0.0000000E+00 -0.1137583E-04
  0.6616161E+00  0.0000000E+00  0.5050505E-02 -0.2321028E-09  0.0000000E+00 -0.1137629E-04
  0.6717172E+00  0.0000000E+00  0.5050505E-02 -0.2371276E-09  0.0000000E+00 -0.1137676E-04
  0.6818182E+00  0.0000000E+00  0.5050505E-02 -0.2412548E-09  0.0000000E+00 -0.1137724E-04
  0.6919192E+00  0.0000000E+00  0.5050505E-02 -0.2444773E-09  0.0000000E+00 -0.1137773E-04
  0.7020202E+00  0.0000000E+00  0.5050505E-02 -0.2467922E-09  0.0000000E+00 -0.1137822E-04
  0.7121212E+00  0.0000000E+00  0.5050505E-02 -0.2482002E-09  0.0000000E+00 -0.1137872E-04
  0.7222222E+00  0.0000000E+00  0.5050505E-02 -0.2487059E-09  0.0000000E+00 -0.1137921E-04
  0.7323232E+00  0.0000000E+00  0.5050505E-02 -0.2483173E-09  0.0000000E+00 -0.1137971E-04
  0.7424242E+00  0.0000000E+00  0.5050505E-02 -0.2470461E-09  0.0000000E+00 -0.1138021E-04
  0.7525253E+00  0.0000000E+00  0.5050505E-02 -0.2449069E-09  0.0000000E+00 -0.1138070E-04
  0.7626263E+00  0.0000000E+00  0.5050505E-02 -0.2419173E-09  0.0000000E+00 -0.1138119E-04
  0.7727273E+00  0.0000000E+00  0.5050505E-02 -0.2380977E-09  0.0000000E+00 -0.1138167E-04
  0.7828283E+00  0.0000000E+00  0.5050505E-02 -0.2334711E-09  0.0000000E+00 -0.1138214E-04
  0.7929293E+00  0.0000000E+00  0.5050505E-02 -0.2280627E-09  0.0000000E+00 -0.1138260E-04
  0.8030303E+00  0.0000000E+00  0.5050505E-02 -0.2218998E-09  0.0000000E+00 -0.1138305E-04
  0.8131313E+00  0.0000000E+00  0.5050505E-02 -0.2150117E-09  0.0000000E+00 -0.1138349E-04
  0.8232324E+00  0.0000000E+00  0.5050505E-02 -0.2074293E-09  0.0000000E+00 -0.1138391E-04
  0.8333333E+00  0.0000000E+00  0.5050505E-02 -0.1991849E-09  0.0000000E+00 -0.1138432E-04
  0.8434343E+00  0.0000000E+00  0.5050505E-02 -0.1903123E-09  0.0000000E+00 -0.1138471E-04
  0.8535354E+00  0.0000000E+00  0.5050505E-02 -0.1808461E-09  0.0000000E+00 -0.1138508E-04
  0.8636364E+00  0.0000000E+00  0.5050505E-02 -0.1708220E-09  0.0000000E+00 -0.1138544E-04
  0.8737374E+00  0.0000000E+00  0.5050505E-02 -0.1602765E-09  0.0000000E+00 -0.1138577E-04
  0.8838384E+00  0.0000000E+00  0.5050505E-02 -0.1492468E-09  0.0000000E+00 -0.1138608E-04
  0.8939394E+00  0.0000000E+00  0.5050505E-02 -0.1377704E-09  0.0000000E+00 -0.1138636E-04
  0.9040404E+00  0.0000000E+00  0.5050505E-02 -0.1258855E-09  0.0000000E+00 -0.1138663E-04
  0.9141414E+00  0.0000000E+00  0.5050505E-02 -0.1136303E-09  0.0000000E+00 -0.1138687E-04
  0.9242424E+00  0.0000000E+00  0.5050505E-02 -0.1010436E-09  0.0000000E+00 -0.1138708E-04
  0.9343435E+00  0.0000000E+00  0.5050505E-02 -0.8816417E-10  0.0000000E+00 -0.1138727E-04
  0.9444444E+00  0.0000000E+00  0.5050505E-02 -0.7503084E-10  0.0000000E+00 -0.1138744E-04
  0.9545454E+00  0.0000000E+00  0.5050505E-02 -0.6168266E-10  0.0000000E+00 -0.1138757E-04
  0.9646465E+00  0.0000000E+00  0.5050505E-02 -0.4815870E-10  0.0000000E+00 -0.1138768E-04
  0.9747475E+00  0.0000000E+00  0.5050505E-02 -0.3449810E-10  0.0000000E+00 -0.1138777E-04
  0.9848485E+00  0.0000000E+00  0.5050505E-02 -0.2074018E-10  0.0000000E+00 -0.1138782E-04
  0.9974747E+00  0.0000000E+00  0.5050505E-02 -0.6924675E-11  0.0000000E+00 -0.1138785E-04
  0.5050505E-02  0.0000000E+00  0.1515152E-01  0.2095218E-10  0.0000000E+00 -0.1136722E-04
  0.1515152E-01  0.0000000E+00  0.1515152E-01  0.6280078E-10  0.0000000E+00 -0.1136719E-04
  0.2525252E-01  0.0000000E+00  0.1515152E-01  0.1043953E-09  0.0000000E+00 -0.1136713E-04
  0.3535353E-01  0.0000000E+00  0.1515152E-01  0.1455558E-09  0.0000000E+00 -0.1136705E-04
  0.4545455E-01  0.0000000E+00  0.1515152E-01  0.1861145E-09  0.0000000E+00 -0.1136694E-04
  0.5555556E-01  0.0000000E+00  0.1515152E-01  0.2259025E-09  0.0000000E+00 -0.1136680E-04
  0.6565657E-01  0.0000000E+00  0.1515152E-01  0.2647528E-09  0.0000000E+00 -0.1136663E-04
  0.7575758E-01  0.0000000E+00  0.1515152E-01  0.3025006E-09  0.0000000E+00 -0.1136644E-04
  0.8585858E-01  0.0000000E+00  0.1515152E-01  0.3389842E-09  0.0000000E+00 -0.1136623E-04
  0.9595960E-01  0.0000000E+00  0.1515152E-01  0.3740451E-09  0.0000000E+00 -0.1136599E-04
  0.1060606E+00  0.0000000E+00  0.1515152E-01  0.4075287E-09  0.0000000E+00 -0.1136572E-04
  0.1161616E+00  0.0000000E+00  0.1515152E-01  0.4392854E-09  0.0000000E+00 -0.1136544E-04
  0.1262626E+00  0.0000000E+00  0.1515152E-01  0.4691705E-09  0.0000000E+00 -0.1136513E-04
  0.1363636E+00  0.0000000E+00  0.1515152E-01  0.4970453E-09  0.0000000E+00 -0.1136481E-04
  0.1464646E+00  0.0000000E+00  0.1515152E-01  0.5227776E-09  0.0000000E+00 -0.1136446E-04
  0.1565657E+00  0.0000000E+00  0.1515152E-01  0.5462423E-09  0.0000000E+00 -0.1136411E-04
  0.1666667E+00  0.0000000E+00  0.1515152E-01  0.5673221E-09  0.0000000E+00 -0.1136373E-04
  0.1767677E+00  0.0000000E+00  0.1515152E-01  0.5859084E-09  0.0000000E+00 -0.1136334E-04
  0.1868687E+00  0.0000000E+00  0.1515152E-01  0.6019018E-09  0.0000000E+00 -0.1136294E-04
  0.1969697E+00  0.0000000E+00  0.1515152E-01  0.6152127E-09  0.0000000E+00 -0.1136253E-04
  0.2070707E+00  0.0000000E+00  0.1515152E-01  0.6257623E-09  0.0000000E+00 -0.1136211E-04
  0.2171717E+00  0.0000000E+00  0.1515152E-01  0.6334831E-09  0.0000000E+00 -0.1136169E-04
  0.2272727E+00  0.0000000E+00  0.1515152E-01  0.6383195E-09  0.0000000E+00 -0.1136126E-04
  0.2373737E+00  0.0000000E+00  0.1515152E-01  0.6402282E-09  0.0000000E+00 -0.1136083E-04
  0.2474747E+00  0.0000000E+00  0.1515152E-01  0.6391793E-09  0.0000000E+00 -0.1136040E-04
  0.2575758E+00  0.0000000E+00  0.1515152E-01  0.6351562E-09  0.0000000E+00 -0.1135997E-04
  0.2676768E+00  0.0000000E+00  0.1515152E-01  0.6281563E-09  0.0000000E+00 -0.1135955E-04
  0.2777778E+00  0.0000000E+00  0.1515152E-01  0.6181912E-09  0.0000000E+00 -0.1135913E-04
  0.2878788E+00  0.0000000E+00  0.1515152E-01  0.6052871E-09  0.0000000E+00 -0.1135872E-04
  0.2979798E+00  0.0000000E+00  0.1515152E-01  0.5894847E-09  0.0000000E+00 -0.1135831E-04
  0.3080808E+00  0.0000000E+00  0.1515152E-01  0.5708394E-09  0.0000000E+00 -0.1135792E-04
  0.3181818E+00  0.0000000E+00  0.1515152E-01  0.5494214E-09  0.0000000E+00 -0.1135755E-04
  0.3282828E+00  0.0000000E+00  0.1515152E-01  0.5253152E-09  0.0000000E+00 -0.1135718E-04
  0.3383838E+00  0.0000000E+00  0.1515152E-01  0.4986195E-09  0.0000000E+00 -0.1135684E-04
  0.3484848E+00  0.0000000E+00  0.1515152E-01  0.4694468E-09  0.0000000E+00 -0.1135651E-04
  0.3585859E+00  0.0000000E+00  0.1515152E-01  0.4379229E-09  0.0000000E+00 -0.1135621E-04
  0.3686869E+00  0.0000000E+00  0.1515152E-01  0.4041862E-09  0.0000000E+00 -0.1135592E-04
  0.3787879E+00  0.0000000E+00  0.1515152E-01  0.3683871E-09  0.0000000E+00 -0.1135566E-04
  0.3888889E+00  0.0000000E+00  0.1515152E-01  0.3306871E-09  0.0000000E+00 -0.1135543E-04
  0.3989899E+00  0.0000000E+00  0.1515152E-01  0.2912580E-09  0.0000000E+00 -0.1135522E-04
  0.4090909E+00  0.0000000E+00  0.1515152E-01  0.2502809E-09  0.0000000E+00 -0.1135504E-04
  0.4191919E+00  0.0000000E+00  0.1515152E-01  0.2079450E-09  0.0000000E+00 -0.1135488E-04
  0.4292929E+00  0.0000000E+00  0.1515152E-01  0.1644467E-09  0.0000000E+00 -0.1135476E-04
  0.4393939E+00  0.0000000E+00  0.1515152E-01  0.1199881E-09  0.0000000E+00 -0.1135466E-04
  0.4494950E+00  0.0000000E+00  0.1515152E-01  0.7477602E-10  0.0000000E+00 -0.1135460E-04
  0.4595959E+00  0.0000000E+00  0.1515152E-01  0.2902073E-10  0.0000000E+00 -0.1135456E-04
  0.4696970E+00  0.0000000E+00  0.1515152E-01 -0.1706595E-10  0.0000000E+00 -0.1135456E-04
  0.4797980E+00  0.0000000E+00  0.1515152E-01 -0.6327008E-10  0.0000000E+00 -0.1135458E-04
  0.4898990E+00  0.0000000E+00  0.1515152E-01 -0.1093796E-09  0.0000000E+00 -0.1135464E-04
  0.5000000E+00  0.0000000E+00  0.1515152E-01 -0.1551836E-09  0.0000000E+00 -0.1135473E-04
  0.5101010E+00  0.0000000E+00  0.1515152E-01 -0.2004738E-09  0.0000000E+00 -0.1135485E-04
  0.5202020E+00  0.0000000E+00  0.1515152E-01 -0.2450465E-09  0.0000000E+00 -0.1135500E-04
  0.5303030E+00  0.0000000E+00  0.1515152E-01 -0.2887035E-09  0.0000000E+00 -0.1135518E-04
  0.5404040E+00  0.0000000E+00  0.1515152E-01 -0.3312523E-09  0.0000000E+00 -0.1135539E-04
  0.5505050E+00  0.0000000E+00  0.1515152E-01 -0.3725084E-09  0.0000000E+00 -0.1135563E-04
  0.5606061E+00  0.0000000E+00  0.1515152E-01 -0.4122954E-09  0.0000000E+00 -0.1135589E-04
  0.5707071E+00  0.0000000E+00  0.1515152E-01 -0.4504466E-09  0.0000000E+00 -0.1135618E-04
  0.5808081E+00  0.0000000E+00  0.1515152E-01 -0.4868051E-09  0.0000000E+00 -0.1135650E-04
  0.5909091E+00  0.0000000E+00  0.1515152E-01 -0.5212250E-09  0.0000000E+00 -0.1135684E-04
  0.6010101E+00  0.0000000E+00  0.1515152E-01 -0.5535717E-09  0.0000000E+00 -0.1135720E-04
  0.6111111E+00  0.0000000E+00  0.1515152E-01 -0.5837223E-09  0.0000000E+00 -0.1135758E-04
  0.6212121E+00  0.0000000E+00  0.1515152E-01 -0.6115665E-09  0.0000000E+00 -0.1135798E-04
  0.6313131E+00  0.0000000E+00  0.1515152E-01 -0.6370064E-09  0.0000000E+00 -0.1135840E-04
  0.6414142E+00  0.0000000E+00  0.1515152E-01 -0.6599571E-09  0.0000000E+00 -0.1135884E-04
  0.6515151E+00  0.0000000E+00  0.1515152E-01 -0.6803465E-09  0.0000000E+00 -0.1135929E-04
  0.6616161E+00  0.0000000E+00  0.1515152E-01 -0.6981155E-09  0.0000000E+00 -0.1135975E-04
  0.6717172E+00  0.0000000E+00  0.1515152E-01 -0.7132178E-09  0.0000000E+00 -0.1136023E-04
  0.6818182E+00  0.0000000E+00  0.1515152E-01 -0.7256200E-09  0.0000000E+00 -0.1136071E-04
  0.6919192E+00  0.0000000E+00  0.1515152E-01 -0.7353007E-09  0.0000000E+00 -0.1136120E-04
  0.7020202E+00  0.0000000E+00  0.1515152E-01 -0.7422509E-09  0.0000000E+00 -0.1136170E-04
  0.7121212E+00  0.0000000E+00  0.1515152E-01 -0.7464734E-09  0.0000000E+00 -0.1136220E-04
  0.7222222E+00  0.0000000E+00  0.1515152E-01 -0.7479820E-09  0.0000000E+00 -0.1136271E-04
  0.7323232E+00  0.0000000E+00  0.1515152E-01 -0.7468013E-09  0.0000000E+00 -0.1136321E-04
  0.7424242E+00  0.0000000E+00  0.1515152E-01 -0.7429661E-09  0.0000000E+00 -0.1136371E-04
  0.7525253E+00  0.0000000E+00  0.1515152E-01 -0.7365206E-09  0.0000000E+00 -0.1136421E-04
  0.7626263E+00  0.0000000E+00  0.1515152E-01 -0.7275181E-09  0.0000000E+00 -0.1136470E-04
  0.7727273E+00  0.0000000E+00  0.1515152E-01 -0.7160201E-09  0.0000000E+00 -0.1136519E-04
  0.7828283E+00  0.0000000E+00  0.1515152E-01 -0.7020956E-09  0.0000000E+00 -0.1136566E-04
  0.7929293E+00  0.0000000E+00  0.1515152E-01 -0.6858209E-09  0.0000000E+00 -0.1136613E-04
  0.8030303E+00  0.0000000E+00  0.1515152E-01 -0.6672781E-09  0.0000000E+00 -0.1136658E-04
  0.8131313E+00  0.0000000E+00  0.1515152E-01 -0.6465553E-09  0.0000000E+00 -0.1136703E-04
  0.8232324E+00  0.0000000E+00  0.1515152E-01 -0.6237456E-09  0.0000000E+00 -0.1136745E-04
  0.8333333E+00  0.0000000E+00  0.1515152E-01 -0.5989463E-09  0.0000000E+00 -0.1136786E-04
  0.8434343E+00  0.0000000E+00  0.1515152E-01 -0.5722587E-09  0.0000000E+00 -0.1136826E-04
  0.8535354E+00  0.0000000E+00  0.1515152E-01 -0.5437874E-09  0.0000000E+00 -0.1136863E-04
  0.8636364E+00  0.0000000E+00  0.1515152E-01 -0.5136397E-09  0.0000000E+00 -0.1136899E-04
  0.8737374E+00  0.0000000E+00  0.1515152E-01 -0.4819253E-09  0.0000000E+00 -0.1136932E-04
  0.8838384E+00  0.0000000E+00  0.1515152E-01 -0.4487559E-09  0.0000000E+00 -0.1136964E-04
  0.8939394E+00  0.0000000E+00  0.1515152E-01 -0.4142446E-09  0.0000000E+00 -0.1136993E-04
  0.9040404E+00  0.0000000E+00  0.1515152E-01 -0.3785058E-09  0.0000000E+00 -0.1137019E-04
  0.9141414E+00  0.0000000E+00  0.1515152E-01 -0.3416548E-09  0.0000000E+00 -0.1137044E-04
  0.9242424E+00  0.0000000E+00  0.1515152E-01 -0.3038079E-09  0.0000000E+00 -0.1137065E-04
  0.9343435E+00  0.0000000E+00  0.1515152E-01 -0.2650814E-09  0.0000000E+00 -0.1137084E-04
  0.9444444E+00  0.0000000E+00  0.1515152E-01 -0.2255923E-09  0.0000000E+00 -0.1137101E-04
  0.9545454E+00  0.0000000E+00  0.1515152E-01 -0.1854579E-09  0.0000000E+00 -0.1137115E-04
  0.9646465E+00  0.0000000E+00  0.1515152E-01 -0.1447954E-09  0.0000000E+00 -0.1137126E-04
  0.9747475E+00  0.0000000E+00  0.1515152E-01 -0.1037223E-09  0.0000000E+00 -0.1137134E-04
  0.9848485E+00  0.0000000E+00  0.1515152E-01 -0.6235644E-10  0.0000000E+00 -0.1137140E-04
  0.9974747E+00  0.0000000E+00  0.1515152E-01 -0.2081601E-10  0.0000000E+00 -0.1137143E-04
  0.5050505E-02  0.0000000E+00  0.2525252E-01  0.3513061E-10  0.0000000E+00 -0.1133437E-04
  0.1515152E-01  0.0000000E+00  0.2525252E-01  0.1052851E-09  0.0000000E+00 -0.1133434E-04
  0.2525252E-01  0.0000000E+00  0.2525252E-01  0.1750147E-09  0.0000000E+00 -0.1133429E-04
  0.3535353E-01  0.0000000E+00  0.2525252E-01  0.2440183E-09  0.0000000E+00 -0.1133420E-04
  0.4545455E-01  0.0000000E+00  0.2525252E-01  0.3120144E-09  0.0000000E+00 -0.1133409E-04
  0.5555556E-01  0.0000000E+00  0.2525252E-01  0.3787198E-09  0.0000000E+00 -0.1133394E-04
  0.6565657E-01  0.0000000E+00  0.2525252E-01  0.4438546E-09  0.0000000E+00 -0.1133377E-04
  0.7575758E-01  0.0000000E+00  0.2525252E-01  0.5071428E-09  0.0000000E+00 -0.1133358E-04
  0.8585858E-01  0.0000000E+00  0.2525252E-01  0.5683132E-09  0.0000000E+00 -0.1133336E-04
  0.9595960E-01  0.0000000E+00  0.2525252E-01  0.6271003E-09  0.0000000E+00 -0.1133311E-04
  0.1060606E+00  0.0000000E+00  0.2525252E-01  0.6832451E-09  0.0000000E+00 -0.1133285E-04
  0.1161616E+00  0.0000000E+00  0.2525252E-01  0.7364966E-09  0.0000000E+00 -0.1133255E-04
  0.1262626E+00  0.0000000E+00  0.2525252E-01  0.7866122E-09  0.0000000E+00 -0.1133224E-04
  0.1363636E+00  0.0000000E+00  0.2525252E-01  0.8333593E-09  0.0000000E+00 -0.1133191E-04
  0.1464646E+00  0.0000000E+00  0.2525252E-01  0.8765161E-09  0.0000000E+00 -0.1133156E-04
  0.1565657E+00  0.0000000E+00  0.2525252E-01  0.9158726E-09  0.0000000E+00 -0.1133119E-04
  0.1666667E+00  0.0000000E+00  0.2525252E-01  0.9512320E-09  0.0000000E+00 -0.1133081E-04
  0.1767677E+00  0.0000000E+00  0.2525252E-01  0.9824118E-09  0.0000000E+00 -0.1133041E-04
  0.1868687E+00  0.0000000E+00  0.2525252E-01  0.1009245E-08  0.0000000E+00 -0.1133000E-04
  0.1969697E+00  0.0000000E+00  0.2525252E-01  0.1031582E-08  0.0000000E+00 -0.1132958E-04
  0.2070707E+00  0.0000000E+00  0.2525252E-01  0.1049289E-08  0.0000000E+00 -0.1132916E-04
  0.2171717E+00  0.0000000E+00  0.2525252E-01  0.1062252E-08  0.0000000E+00 -0.1132872E-04
  0.2272727E+00  0.0000000E+00  0.2525252E-01  0.1070380E-08  0.0000000E+00 -0.1132829E-04
  0.2373737E+00  0.0000000E+00  0.2525252E-01  0.1073597E-08  0.0000000E+00 -0.1132785E-04
  0.2474747E+00  0.0000000E+00  0.2525252E-01  0.1071855E-08  0.0000000E+00 -0.1132741E-04
  0.2575758E+00  0.0000000E+00  0.2525252E-01  0.1065124E-08  0.0000000E+00 -0.1132697E-04
  0.2676768E+00  0.0000000E+00  0.2525252E-01  0.1053401E-08  0.0000000E+00 -0.1132653E-04
  0.2777778E+00  0.0000000E+00  0.2525252E-01  0.1036704E-08  0.0000000E+00 -0.1132610E-04
  0.2878788E+00  0.0000000E+00  0.2525252E-01  0.1015077E-08  0.0000000E+00 -0.1132568E-04
  0.2979798E+00  0.0000000E+00  0.2525252E-01  0.9885873E-09  0.0000000E+00 -0.1132527E-04
  0.3080808E+00  0.0000000E+00  0.2525252E-01  0.9573289E-09  0.0000000E+00 -0.1132487E-04
  0.3181818E+00  0.0000000E+00  0.2525252E-01  0.9214189E-09  0.0000000E+00 -0.1132449E-04
  0.3282828E+00  0.0000000E+00  0.2525252E-01  0.8809988E-09  0.0000000E+00 -0.1132412E-04
  0.3383838E+00  0.0000000E+00  0.2525252E-01  0.8362343E-09  0.0000000E+00 -0.1132376E-04
  0.3484848E+00  0.0000000E+00  0.2525252E-01  0.7873140E-09  0.0000000E+00 -0.1132343E-04
  0.3585859E+00  0.0000000E+00  0.2525252E-01  0.7344490E-09  0.0000000E+00 -0.1132312E-04
  0.3686869E+00  0.0000000E+00  0.2525252E-01  0.6778715E-09  0.0000000E+00 -0.1132283E-04
  0.3787879E+00  0.0000000E+00  0.2525252E-01  0.6178339E-09  0.0000000E+00 -0.1132256E-04
  0.3888889E+00  0.0000000E+00  0.2525252E-01  0.5546074E-09  0.0000000E+00 -0.1132232E-04
  0.3989899E+00  0.0000000E+00  0.2525252E-01  0.4884803E-09  0.0000000E+00 -0.1132211E-04
  0.4090909E+00  0.0000000E+00  0.2525252E-01  0.4197566E-09  0.0000000E+00 -0.1132192E-04
  0.4191919E+00  0.0000000E+00  0.2525252E-01  0.3487538E-09  0.0000000E+00 -0.1132176E-04
  0.4292929E+00  0.0000000E+00  0.2525252E-01  0.2758017E-09  0.0000000E+00 -0.1132163E-04
  0.4393939E+00  0.0000000E+00  0.2525252E-01  0.2012397E-09  0.0000000E+00 -0.1132154E-04
  0.4494950E+00  0.0000000E+00  0.2525252E-01  0.1254148E-09  0.0000000E+00 -0.1132147E-04
  0.4595959E+00  0.0000000E+00  0.2525252E-01  0.4868008E-10  0.0000000E+00 -0.1132143E-04
  0.4696970E+00  0.0000000E+00  0.2525252E-01 -0.2860883E-10  0.0000000E+00 -0.1132143E-04
  0.4797980E+00  0.0000000E+00  0.2525252E-01 -0.1060931E-09  0.0000000E+00 -0.1132146E-04
  0.4898990E+00  0.0000000E+00  0.2525252E-01 -0.1834165E-09  0.0000000E+00 -0.1132152E-04
  0.5000000E+00  0.0000000E+00  0.2525252E-01 -0.2602250E-09  0.0000000E+00 -0.1132161E-04
  0.5101010E+00  0.0000000E+00  0.2525252E-01 -0.3361693E-09  0.0000000E+00 -0.1132173E-04
  0.5202020E+00  0.0000000E+00  0.2525252E-01 -0.4109074E-09  0.0000000E+00 -0.1132188E-04
  0.5303030E+00  0.0000000E+00  0.2525252E-01 -0.4841069E-09  0.0000000E+00 -0.1132207E-04
  0.5404040E+00  0.0000000E+00  0.2525252E-01 -0.5554446E-09  0.0000000E+00 -0.1132228E-04
  0.5505050E+00  0.0000000E+00  0.2525252E-01 -0.6246110E-09  0.0000000E+00 -0.1132252E-04
  0.5606061E+00  0.0000000E+00  0.2525252E-01 -0.6913107E-09  0.0000000E+00 -0.1132279E-04
  0.5707071E+00  0.0000000E+00  0.2525252E-01 -0.7552636E-09  0.0000000E+00 -0.1132309E-04
  0.5808081E+00  0.0000000E+00  0.2525252E-01 -0.8162071E-09  0.0000000E+00 -0.1132341E-04
  0.5909091E+00  0.0000000E+00  0.2525252E-01 -0.8738963E-09  0.0000000E+00 -0.1132376E-04
  0.6010101E+00  0.0000000E+00  0.2525252E-01 -0.9281057E-09  0.0000000E+00 -0.1132413E-04
  0.6111111E+00  0.0000000E+00  0.2525252E-01 -0.9786296E-09  0.0000000E+00 -0.1132452E-04
  0.6212121E+00  0.0000000E+00  0.2525252E-01 -0.1025283E-08  0.0000000E+00 -0.1132493E-04
  0.6313131E+00  0.0000000E+00  0.2525252E-01 -0.1067903E-08  0.0000000E+00 -0.1132536E-04
  0.6414142E+00  0.0000000E+00  0.2525252E-01 -0.1106346E-08  0.0000000E+00 -0.1132580E-04
  0.6515151E+00  0.0000000E+00  0.2525252E-01 -0.1140492E-08  0.0000000E+00 -0.1132627E-04
  0.6616161E+00  0.0000000E+00  0.2525252E-01 -0.1170244E-08  0.0000000E+00 -0.1132674E-04
  0.6717172E+00  0.0000000E+00  0.2525252E-01 -0.1195522E-08  0.0000000E+00 -0.1132722E-04
  0.6818182E+00  0.0000000E+00  0.2525252E-01 -0.1216273E-08  0.0000000E+00 -0.1132772E-04
  0.6919192E+00  0.0000000E+00  0.2525252E-01 -0.1232460E-08  0.0000000E+00 -0.1132822E-04
  0.7020202E+00  0.0000000E+00  0.2525252E-01 -0.1244070E-08  0.0000000E+00 -0.1132873E-04
  0.7121212E+00  0.0000000E+00  0.2525252E-01 -0.1251106E-08  0.0000000E+00 -0.1132924E-04
  0.7222222E+00  0.0000000E+00  0.2525252E-01 -0.1253594E-08  0.0000000E+00 -0.1132975E-04
  0.7323232E+00  0.0000000E+00  0.2525252E-01 -0.1251574E-08  0.0000000E+00 -0.1133027E-04
  0.7424242E+00  0.0000000E+00  0.2525252E-01 -0.1245106E-08  0.0000000E+00 -0.1133078E-04
  0.7525253E+00  0.0000000E+00  0.2525252E-01 -0.1234264E-08  0.0000000E+00 -0.1133128E-04
  0.7626263E+00  0.0000000E+00  0.2525252E-01 -0.1219138E-08  0.0000000E+00 -0.1133179E-04
  0.7727273E+00  0.0000000E+00  0.2525252E-01 -0.1199832E-08  0.0000000E+00 -0.1133228E-04
  0.7828283E+00  0.0000000E+00  0.2525252E-01 -0.1176462E-08  0.0000000E+00 -0.1133277E-04
  0.7929293E+00  0.0000000E+00  0.2525252E-01 -0.1149156E-08  0.0000000E+00 -0.1133325E-04
  0.8030303E+00  0.0000000E+00  0.2525252E-01 -0.1118052E-08  0.0000000E+00 -0.1133371E-04
  0.8131313E+00  0.0000000E+00  0.2525252E-01 -0.1083299E-08  0.0000000E+00 -0.1133416E-04
  0.8232324E+00  0.0000000E+00  0.2525252E-01 -0.1045051E-08  0.0000000E+00 -0.1133460E-04
  0.8333333E+00  0.0000000E+00  0.2525252E-01 -0.1003474E-08  0.0000000E+00 -0.1133502E-04
  0.8434343E+00  0.0000000E+00  0.2525252E-01 -0.9587361E-09  0.0000000E+00 -0.1133542E-04
  0.8535354E+00  0.0000000E+00  0.2525252E-01 -0.9110134E-09  0.0000000E+00 -0.1133580E-04
  0.8636364E+00  0.0000000E+00  0.2525252E-01 -0.8604859E-09  0.0000000E+00 -0.1133616E-04
  0.8737374E+00  0.0000000E+00  0.2525252E-01 -0.8073373E-09  0.0000000E+00 -0.1133650E-04
  0.8838384E+00  0.0000000E+00  0.2525252E-01 -0.7517547E-09  0.0000000E+00 -0.1133682E-04
  0.8939394E+00  0.0000000E+00  0.2525252E-01 -0.6939276E-09  0.0000000E+00 -0.1133712E-04
  0.9040404E+00  0.0000000E+00  0.2525252E-01 -0.6340476E-09  0.0000000E+00 -0.1133739E-04
  0.9141414E+00  0.0000000E+00  0.2525252E-01 -0.5723078E-09  0.0000000E+00 -0.1133764E-04
  0.9242424E+00  0.0000000E+00  0.2525252E-01 -0.5089024E-09  0.0000000E+00 -0.1133786E-04
  0.9343435E+00  0.0000000E+00  0.2525252E-01 -0.4440265E-09  0.0000000E+00 -0.1133805E-04
  0.9444444E+00  0.0000000E+00  0.2525252E-01 -0.3778756E-09  0.0000000E+00 -0.1133822E-04
  0.9545454E+00  0.0000000E+00  0.2525252E-01 -0.3106456E-09  0.0000000E+00 -0.1133836E-04
  0.9646465E+00  0.0000000E+00  0.2525252E-01 -0.2425328E-09  0.0000000E+00 -0.1133848E-04
  0.9747475E+00  0.0000000E+00  0.2525252E-01 -0.1737333E-09  0.0000000E+00 -0.1133856E-04
  0.9848485E+00  0.0000000E+00  0.2525252E-01 -0.1044435E-09  0.0000000E+00 -0.1133862E-04
  0.9974747E+00  0.0000000E+00  0.2525252E-01 -0.3485978E-10  0.0000000E+00 -0.1133865E-04
  0.5050505E-02  0.0000000E+00  0.3535353E-01  0.4965049E-10  0.0000000E+00 -0.1128524E-04
  0.1515152E-01  0.0000000E+00  0.3535353E-01  0.1487896E-09  0.0000000E+00 -0.1128521E-04
  0.2525252E-01  0.0000000E+00  0.3535353E-01  0.2473284E-09  0.0000000E+00 -0.1128515E-04
  0.3535353E-01  0.0000000E+00  0.3535353E-01  0.3448435E-09  0.0000000E+00 -0.1128506E-04
  0.4545455E-01  0.0000000E+00  0.3535353E-01  0.4409376E-09  0.0000000E+00 -0.1128494E-04
  0.5555556E-01  0.0000000E+00  0.3535353E-01  0.5352101E-09  0.0000000E+00 -0.1128480E-04
  0.6565657E-01  0.0000000E+00  0.3535353E-01  0.6272662E-09  0.0000000E+00 -0.1128462E-04
  0.7575758E-01  0.0000000E+00  0.3535353E-01  0.7167161E-09  0.0000000E+00 -0.1128442E-04
  0.8585858E-01  0.0000000E+00  0.3535353E-01  0.8031768E-09  0.0000000E+00 -0.1128419E-04
  0.9595960E-01  0.0000000E+00  0.3535353E-01  0.8862733E-09  0.0000000E+00 -0.1128394E-04
  0.1060606E+00  0.0000000E+00  0.3535353E-01  0.9656397E-09  0.0000000E+00 -0.1128366E-04
  0.1161616E+00  0.0000000E+00  0.3535353E-01  0.1040921E-08  0.0000000E+00 -0.1128336E-04
  0.1262626E+00  0.0000000E+00  0.3535353E-01  0.1111775E-08  0.0000000E+00 -0.1128304E-04
  0.1363636E+00  0.0000000E+00  0.3535353E-01  0.1177871E-08  0.0000000E+00 -0.1128270E-04
  0.1464646E+00  0.0000000E+00  0.3535353E-01  0.1238898E-08  0.0000000E+00 -0.1128234E-04
  0.1565657E+00  0.0000000E+00  0.3535353E-01  0.1294556E-08  0.0000000E+00 -0.1128196E-04
  0.1666667E+00  0.0000000E+00  0.3535353E-01  0.1344568E-08  0.0000000E+00 -0.1128156E-04
  0.1767677E+00  0.0000000E+00  0.3535353E-01  0.1388675E-08  0.0000000E+00 -0.1128115E-04
  0.1868687E+00  0.0000000E+00  0.3535353E-01  0.1426640E-08  0.0000000E+00 -0.1128073E-04
  0.1969697E+00  0.0000000E+00  0.3535353E-01  0.1458251E-08  0.0000000E+00 -0.1128030E-04
  0.2070707E+00  0.0000000E+00  0.3535353E-01  0.1483318E-08  0.0000000E+00 -0.1127986E-04
  0.2171717E+00  0.0000000E+00  0.3535353E-01  0.1501682E-08  0.0000000E+00 -0.1127941E-04
  0.2272727E+00  0.0000000E+00  0.3535353E-01  0.1513208E-08  0.0000000E+00 -0.1127896E-04
  0.2373737E+00  0.0000000E+00  0.3535353E-01  0.1517793E-08  0.0000000E+00 -0.1127850E-04
  0.2474747E+00  0.0000000E+00  0.3535353E-01  0.1515365E-08  0.0000000E+00 -0.1127805E-04
  0.2575758E+00  0.0000000E+00  0.3535353E-01  0.1505883E-08  0.0000000E+00 -0.1127759E-04
  0.2676768E+00  0.0000000E+00  0.3535353E-01  0.1489340E-08  0.0000000E+00 -0.1127714E-04
  0.2777778E+00  0.0000000E+00  0.3535353E-01  0.1465763E-08  0.0000000E+00 -0.1127670E-04
  0.2878788E+00  0.0000000E+00  0.3535353E-01  0.1435212E-08  0.0000000E+00 -0.1127627E-04
  0.2979798E+00  0.0000000E+00  0.3535353E-01  0.1397784E-08  0.0000000E+00 -0.1127584E-04