title = "dataset water"
variables = "x", "y", "z", "vx", "vy", "vz"
zone t = "velocities, solution time =  2.400E+01 days        " i =   99, j =   99, k =    1,  f=point
  0.5050505E-02  0.0000000E+00  0.5050505E-02  0.2588518E-11  0.0000000E+00 -0.1365662E-04
  0.1515152E-01  0.0000000E+00  0.5050505E-02  0.7857134E-11  0.0000000E+00 -0.1365661E-04
  0.2525252E-01  0.0000000E+00  0.5050505E-02  0.1310338E-10  0.0000000E+00 -0.1365659E-04
  0.3535353E-01  0.0000000E+00  0.5050505E-02  0.1828511E-10  0.0000000E+00 -0.1365655E-04
  0.4545455E-01  0.0000000E+00  0.5050505E-02  0.2338942E-10  0.0000000E+00 -0.1365651E-04
  0.5555556E-01  0.0000000E+00  0.5050505E-02  0.2840340E-10  0.0000000E+00 -0.1365646E-04
  0.6565657E-01  0.0000000E+00  0.5050505E-02  0.3329958E-10  0.0000000E+00 -0.1365640E-04
  0.7575758E-01  0.0000000E+00  0.5050505E-02  0.3806373E-10  0.0000000E+00 -0.1365633E-04
  0.8585858E-01  0.0000000E+00  0.5050505E-02  0.4267423E-10  0.0000000E+00 -0.1365625E-04
  0.9595960E-01  0.0000000E+00  0.5050505E-02  0.4711078E-10  0.0000000E+00 -0.1365616E-04
  0.1060606E+00  0.0000000E+00  0.5050505E-02  0.5135601E-10  0.0000000E+00 -0.1365606E-04
  0.1161616E+00  0.0000000E+00  0.5050505E-02  0.5539072E-10  0.0000000E+00 -0.1365595E-04
  0.1262626E+00  0.0000000E+00  0.5050505E-02  0.5919711E-10  0.0000000E+00 -0.1365584E-04
  0.1363636E+00  0.0000000E+00  0.5050505E-02  0.6275823E-10  0.0000000E+00 -0.1365571E-04
  0.1464646E+00  0.0000000E+00  0.5050505E-02  0.6605766E-10  0.0000000E+00 -0.1365558E-04
  0.1565657E+00  0.0000000E+00  0.5050505E-02  0.6907987E-10  0.0000000E+00 -0.1365545E-04
  0.1666667E+00  0.0000000E+00  0.5050505E-02  0.7181033E-10  0.0000000E+00 -0.1365531E-04
  0.1767677E+00  0.0000000E+00  0.5050505E-02  0.7423550E-10  0.0000000E+00 -0.1365516E-04
  0.1868687E+00  0.0000000E+00  0.5050505E-02  0.7634293E-10  0.0000000E+00 -0.1365501E-04
  0.1969697E+00  0.0000000E+00  0.5050505E-02  0.7812135E-10  0.0000000E+00 -0.1365486E-04
  0.2070707E+00  0.0000000E+00  0.5050505E-02  0.7956073E-10  0.0000000E+00 -0.1365470E-04
  0.2171717E+00  0.0000000E+00  0.5050505E-02  0.8065239E-10  0.0000000E+00 -0.1365454E-04
  0.2272727E+00  0.0000000E+00  0.5050505E-02  0.8138899E-10  0.0000000E+00 -0.1365438E-04
  0.2373737E+00  0.0000000E+00  0.5050505E-02  0.8176466E-10  0.0000000E+00 -0.1365421E-04
  0.2474747E+00  0.0000000E+00  0.5050505E-02  0.8177505E-10  0.0000000E+00 -0.1365405E-04
  0.2575758E+00  0.0000000E+00  0.5050505E-02  0.8141740E-10  0.0000000E+00 -0.1365388E-04
  0.2676768E+00  0.0000000E+00  0.5050505E-02  0.8069058E-10  0.0000000E+00 -0.1365372E-04
  0.2777778E+00  0.0000000E+00  0.5050505E-02  0.7959514E-10  0.0000000E+00 -0.1365356E-04
  0.2878788E+00  0.0000000E+00  0.5050505E-02  0.7813337E-10  0.0000000E+00 -0.1365340E-04
  0.2979798E+00  0.0000000E+00  0.5050505E-02  0.7630932E-10  0.0000000E+00 -0.1365325E-04
  0.3080808E+00  0.0000000E+00  0.5050505E-02  0.7412882E-10  0.0000000E+00 -0.1365310E-04
  0.3181818E+00  0.0000000E+00  0.5050505E-02  0.7159952E-10  0.0000000E+00 -0.1365295E-04
  0.3282828E+00  0.0000000E+00  0.5050505E-02  0.6873085E-10  0.0000000E+00 -0.1365281E-04
  0.3383838E+00  0.0000000E+00  0.5050505E-02  0.6553404E-10  0.0000000E+00 -0.1365268E-04
  0.3484848E+00  0.0000000E+00  0.5050505E-02  0.6202205E-10  0.0000000E+00 -0.1365255E-04
  0.3585859E+00  0.0000000E+00  0.5050505E-02  0.5820954E-10  0.0000000E+00 -0.1365243E-04
  0.3686869E+00  0.0000000E+00  0.5050505E-02  0.5411283E-10  0.0000000E+00 -0.1365232E-04
  0.3787879E+00  0.0000000E+00  0.5050505E-02  0.4974978E-10  0.0000000E+00 -0.1365221E-04
  0.3888889E+00  0.0000000E+00  0.5050505E-02  0.4513972E-10  0.0000000E+00 -0.1365212E-04
  0.3989899E+00  0.0000000E+00  0.5050505E-02  0.4030334E-10  0.0000000E+00 -0.1365203E-04
  0.4090909E+00  0.0000000E+00  0.5050505E-02  0.3526256E-10  0.0000000E+00 -0.1365196E-04
  0.4191919E+00  0.0000000E+00  0.5050505E-02  0.3004043E-10  0.0000000E+00 -0.1365189E-04
  0.4292929E+00  0.0000000E+00  0.5050505E-02  0.2466095E-10  0.0000000E+00 -0.1365184E-04
  0.4393939E+00  0.0000000E+00  0.5050505E-02  0.1914890E-10  0.0000000E+00 -0.1365179E-04
  0.4494950E+00  0.0000000E+00  0.5050505E-02  0.1352961E-10  0.0000000E+00 -0.1365176E-04
  0.4595959E+00  0.0000000E+00  0.5050505E-02  0.7828843E-11  0.0000000E+00 -0.1365174E-04
  0.4696970E+00  0.0000000E+00  0.5050505E-02  0.2072443E-11  0.0000000E+00 -0.1365173E-04
  0.4797980E+00  0.0000000E+00  0.5050505E-02 -0.3713920E-11  0.0000000E+00 -0.1365173E-04
  0.4898990E+00  0.0000000E+00  0.5050505E-02 -0.9506329E-11  0.0000000E+00 -0.1365174E-04
  0.5000000E+00  0.0000000E+00  0.5050505E-02 -0.1526787E-10  0.0000000E+00 -0.1365177E-04
  0.5101010E+00  0.0000000E+00  0.5050505E-02 -0.2097974E-10  0.0000000E+00 -0.1365180E-04
  0.5202020E+00  0.0000000E+00  0.5050505E-02 -0.2661382E-10  0.0000000E+00 -0.1365185E-04
  0.5303030E+00  0.0000000E+00  0.5050505E-02 -0.3215134E-10  0.0000000E+00 -0.1365191E-04
  0.5404040E+00  0.0000000E+00  0.5050505E-02 -0.3755967E-10  0.0000000E+00 -0.1365198E-04
  0.5505050E+00  0.0000000E+00  0.5050505E-02 -0.4282044E-10  0.0000000E+00 -0.1365206E-04
  0.5606061E+00  0.0000000E+00  0.5050505E-02 -0.4790915E-10  0.0000000E+00 -0.1365215E-04
  0.5707071E+00  0.0000000E+00  0.5050505E-02 -0.5280302E-10  0.0000000E+00 -0.1365225E-04
  0.5808081E+00  0.0000000E+00  0.5050505E-02 -0.5748306E-10  0.0000000E+00 -0.1365236E-04
  0.5909091E+00  0.0000000E+00  0.5050505E-02 -0.6192926E-10  0.0000000E+00 -0.1365248E-04
  0.6010101E+00  0.0000000E+00  0.5050505E-02 -0.6612375E-10  0.0000000E+00 -0.1365261E-04
  0.6111111E+00  0.0000000E+00  0.5050505E-02 -0.7005026E-10  0.0000000E+00 -0.1365275E-04
  0.6212121E+00  0.0000000E+00  0.5050505E-02 -0.7369384E-10  0.0000000E+00 -0.1365289E-04
  0.6313131E+00  0.0000000E+00  0.5050505E-02 -0.7704112E-10  0.0000000E+00 -0.1365304E-04
  0.6414142E+00  0.0000000E+00  0.5050505E-02 -0.8008041E-10  0.0000000E+00 -0.1365320E-04
  0.6515151E+00  0.0000000E+00  0.5050505E-02 -0.8280160E-10  0.0000000E+00 -0.1365336E-04
  0.6616161E+00  0.0000000E+00  0.5050505E-02 -0.8519622E-10  0.0000000E+00 -0.1365353E-04
  0.6717172E+00  0.0000000E+00  0.5050505E-02 -0.8725743E-10  0.0000000E+00 -0.1365370E-04
  0.6818182E+00  0.0000000E+00  0.5050505E-02 -0.8898001E-10  0.0000000E+00 -0.1365388E-04
  0.6919192E+00  0.0000000E+00  0.5050505E-02 -0.9036031E-10  0.0000000E+00 -0.1365406E-04
  0.7020202E+00  0.0000000E+00  0.5050505E-02 -0.9139619E-10  0.0000000E+00 -0.1365424E-04
  0.7121212E+00  0.0000000E+00  0.5050505E-02 -0.9208705E-10  0.0000000E+00 -0.1365443E-04
  0.7222222E+00  0.0000000E+00  0.5050505E-02 -0.9243370E-10  0.0000000E+00 -0.1365461E-04
  0.7323232E+00  0.0000000E+00  0.5050505E-02 -0.9243834E-10  0.0000000E+00 -0.1365480E-04
  0.7424242E+00  0.0000000E+00  0.5050505E-02 -0.9210452E-10  0.0000000E+00 -0.1365498E-04
  0.7525253E+00  0.0000000E+00  0.5050505E-02 -0.9143703E-10  0.0000000E+00 -0.1365517E-04
  0.7626263E+00  0.0000000E+00  0.5050505E-02 -0.9044185E-10  0.0000000E+00 -0.1365535E-04
  0.7727273E+00  0.0000000E+00  0.5050505E-02 -0.8912607E-10  0.0000000E+00 -0.1365553E-04
  0.7828283E+00  0.0000000E+00  0.5050505E-02 -0.8749783E-10  0.0000000E+00 -0.1365570E-04
  0.7929293E+00  0.0000000E+00  0.5050505E-02 -0.8556623E-10  0.0000000E+00 -0.1365588E-04
  0.8030303E+00  0.0000000E+00  0.5050505E-02 -0.8334123E-10  0.0000000E+00 -0.1365605E-04
  0.8131313E+00  0.0000000E+00  0.5050505E-02 -0.8083360E-10  0.0000000E+00 -0.1365621E-04
  0.8232324E+00  0.0000000E+00  0.5050505E-02 -0.7805482E-10  0.0000000E+00 -0.1365637E-04
  0.8333333E+00  0.0000000E+00  0.5050505E-02 -0.7501703E-10  0.0000000E+00 -0.1365652E-04
  0.8434343E+00  0.0000000E+00  0.5050505E-02 -0.7173292E-10  0.0000000E+00 -0.1365667E-04
  0.8535354E+00  0.0000000E+00  0.5050505E-02 -0.6821571E-10  0.0000000E+00 -0.1365681E-04
  0.8636364E+00  0.0000000E+00  0.5050505E-02 -0.6447905E-10  0.0000000E+00 -0.1365694E-04
  0.8737374E+00  0.0000000E+00  0.5050505E-02 -0.6053700E-10  0.0000000E+00 -0.1365707E-04
  0.8838384E+00  0.0000000E+00  0.5050505E-02 -0.5640393E-10  0.0000000E+00 -0.1365719E-04
  0.8939394E+00  0.0000000E+00  0.5050505E-02 -0.5209449E-10  0.0000000E+00 -0.1365729E-04
  0.9040404E+00  0.0000000E+00  0.5050505E-02 -0.4762360E-10  0.0000000E+00 -0.1365739E-04
  0.9141414E+00  0.0000000E+00  0.5050505E-02 -0.4300636E-10  0.0000000E+00 -0.1365749E-04
  0.9242424E+00  0.0000000E+00  0.5050505E-02 -0.3825800E-10  0.0000000E+00 -0.1365757E-04
  0.9343435E+00  0.0000000E+00  0.5050505E-02 -0.3339393E-10  0.0000000E+00 -0.1365764E-04
  0.9444444E+00  0.0000000E+00  0.5050505E-02 -0.2842964E-10  0.0000000E+00 -0.1365770E-04
  0.9545454E+00  0.0000000E+00  0.5050505E-02 -0.2338078E-10  0.0000000E+00 -0.1365775E-04
  0.9646465E+00  0.0000000E+00  0.5050505E-02 -0.1826320E-10  0.0000000E+00 -0.1365779E-04
  0.9747475E+00  0.0000000E+00  0.5050505E-02 -0.1309316E-10  0.0000000E+00 -0.1365783E-04
  0.9848485E+00  0.0000000E+00  0.5050505E-02 -0.7888268E-11  0.0000000E+00 -0.1365785E-04
  0.9974747E+00  0.0000000E+00  0.5050505E-02 -0.2670030E-11  0.0000000E+00 -0.1365786E-04
  0.5050505E-02  0.0000000E+00  0.1515152E-01  0.7812166E-11  0.0000000E+00 -0.1363410E-04
  0.1515152E-01  0.0000000E+00  0.1515152E-01  0.2364374E-10  0.0000000E+00 -0.1363409E-04
  0.2525252E-01  0.0000000E+00  0.1515152E-01  0.3941525E-10  0.0000000E+00 -0.1363407E-04
  0.3535353E-01  0.0000000E+00  0.1515152E-01  0.5500029E-10  0.0000000E+00 -0.1363404E-04
  0.4545455E-01  0.0000000E+00  0.1515152E-01  0.7035198E-10  0.0000000E+00 -0.1363400E-04
  0.5555556E-01  0.0000000E+00  0.1515152E-01  0.8543217E-10  0.0000000E+00 -0.1363395E-04
  0.6565657E-01  0.0000000E+00  0.1515152E-01  0.1001604E-09  0.0000000E+00 -0.1363388E-04
  0.7575758E-01  0.0000000E+00  0.1515152E-01  0.1144896E-09  0.0000000E+00 -0.1363381E-04
  0.8585858E-01  0.0000000E+00  0.1515152E-01  0.1283576E-09  0.0000000E+00 -0.1363373E-04
  0.9595960E-01  0.0000000E+00  0.1515152E-01  0.1417031E-09  0.0000000E+00 -0.1363364E-04
  0.1060606E+00  0.0000000E+00  0.1515152E-01  0.1544727E-09  0.0000000E+00 -0.1363354E-04
  0.1161616E+00  0.0000000E+00  0.1515152E-01  0.1666095E-09  0.0000000E+00 -0.1363343E-04
  0.1262626E+00  0.0000000E+00  0.1515152E-01  0.1780599E-09  0.0000000E+00 -0.1363332E-04
  0.1363636E+00  0.0000000E+00  0.1515152E-01  0.1887727E-09  0.0000000E+00 -0.1363319E-04
  0.1464646E+00  0.0000000E+00  0.1515152E-01  0.1986985E-09  0.0000000E+00 -0.1363306E-04
  0.1565657E+00  0.0000000E+00  0.1515152E-01  0.2077907E-09  0.0000000E+00 -0.1363292E-04
  0.1666667E+00  0.0000000E+00  0.1515152E-01  0.2160054E-09  0.0000000E+00 -0.1363278E-04
  0.1767677E+00  0.0000000E+00  0.1515152E-01  0.2233021E-09  0.0000000E+00 -0.1363263E-04
  0.1868687E+00  0.0000000E+00  0.1515152E-01  0.2296430E-09  0.0000000E+00 -0.1363248E-04
  0.1969697E+00  0.0000000E+00  0.1515152E-01  0.2349945E-09  0.0000000E+00 -0.1363233E-04
  0.2070707E+00  0.0000000E+00  0.1515152E-01  0.2393261E-09  0.0000000E+00 -0.1363217E-04
  0.2171717E+00  0.0000000E+00  0.1515152E-01  0.2426118E-09  0.0000000E+00 -0.1363200E-04
  0.2272727E+00  0.0000000E+00  0.1515152E-01  0.2448295E-09  0.0000000E+00 -0.1363184E-04
  0.2373737E+00  0.0000000E+00  0.1515152E-01  0.2459614E-09  0.0000000E+00 -0.1363167E-04
  0.2474747E+00  0.0000000E+00  0.1515152E-01  0.2459945E-09  0.0000000E+00 -0.1363151E-04
  0.2575758E+00  0.0000000E+00  0.1515152E-01  0.2449203E-09  0.0000000E+00 -0.1363134E-04
  0.2676768E+00  0.0000000E+00  0.1515152E-01  0.2427355E-09  0.0000000E+00 -0.1363118E-04
  0.2777778E+00  0.0000000E+00  0.1515152E-01  0.2394417E-09  0.0000000E+00 -0.1363102E-04
  0.2878788E+00  0.0000000E+00  0.1515152E-01  0.2350457E-09  0.0000000E+00 -0.1363086E-04
  0.2979798E+00  0.0000000E+00  0.1515152E-01  0.2295597E-09  0.0000000E+00 -0.1363070E-04
  0.3080808E+00  0.0000000E+00  0.1515152E-01  0.2230012E-09  0.0000000E+00 -0.1363055E-04
  0.3181818E+00  0.0000000E+00  0.1515152E-01  0.2153932E-09  0.0000000E+00 -0.1363040E-04
  0.3282828E+00  0.0000000E+00  0.1515152E-01  0.2067641E-09  0.0000000E+00 -0.1363026E-04
  0.3383838E+00  0.0000000E+00  0.1515152E-01  0.1971476E-09  0.0000000E+00 -0.1363012E-04
  0.3484848E+00  0.0000000E+00  0.1515152E-01  0.1865827E-09  0.0000000E+00 -0.1362999E-04
  0.3585859E+00  0.0000000E+00  0.1515152E-01  0.1751136E-09  0.0000000E+00 -0.1362987E-04
  0.3686869E+00  0.0000000E+00  0.1515152E-01  0.1627893E-09  0.0000000E+00 -0.1362976E-04
  0.3787879E+00  0.0000000E+00  0.1515152E-01  0.1496635E-09  0.0000000E+00 -0.1362965E-04
  0.3888889E+00  0.0000000E+00  0.1515152E-01  0.1357945E-09  0.0000000E+00 -0.1362956E-04
  0.3989899E+00  0.0000000E+00  0.1515152E-01  0.1212444E-09  0.0000000E+00 -0.1362947E-04
  0.4090909E+00  0.0000000E+00  0.1515152E-01  0.1060794E-09  0.0000000E+00 -0.1362939E-04
  0.4191919E+00  0.0000000E+00  0.1515152E-01  0.9036869E-10  0.0000000E+00 -0.1362933E-04
  0.4292929E+00  0.0000000E+00  0.1515152E-01  0.7418465E-10  0.0000000E+00 -0.1362927E-04
  0.4393939E+00  0.0000000E+00  0.1515152E-01  0.5760191E-10  0.0000000E+00 -0.1362923E-04
  0.4494950E+00  0.0000000E+00  0.1515152E-01  0.4069658E-10  0.0000000E+00 -0.1362919E-04
  0.4595959E+00  0.0000000E+00  0.1515152E-01  0.2354580E-10  0.0000000E+00 -0.1362917E-04
  0.4696970E+00  0.0000000E+00  0.1515152E-01  0.6226133E-11  0.0000000E+00 -0.1362916E-04
  0.4797980E+00  0.0000000E+00  0.1515152E-01 -0.1118056E-10  0.0000000E+00 -0.1362916E-04
  0.4898990E+00  0.0000000E+00  0.1515152E-01 -0.2860387E-10  0.0000000E+00 -0.1362918E-04
  0.5000000E+00  0.0000000E+00  0.1515152E-01 -0.4593634E-10  0.0000000E+00 -0.1362920E-04
  0.5101010E+00  0.0000000E+00  0.1515152E-01 -0.6312131E-10  0.0000000E+00 -0.1362924E-04
  0.5202020E+00  0.0000000E+00  0.1515152E-01 -0.8006978E-10  0.0000000E+00 -0.1362929E-04
  0.5303030E+00  0.0000000E+00  0.1515152E-01 -0.9672664E-10  0.0000000E+00 -0.1362935E-04
  0.5404040E+00  0.0000000E+00  0.1515152E-01 -0.1129966E-09  0.0000000E+00 -0.1362942E-04
  0.5505050E+00  0.0000000E+00  0.1515152E-01 -0.1288203E-09  0.0000000E+00 -0.1362950E-04
  0.5606061E+00  0.0000000E+00  0.1515152E-01 -0.1441266E-09  0.0000000E+00 -0.1362959E-04
  0.5707071E+00  0.0000000E+00  0.1515152E-01 -0.1588468E-09  0.0000000E+00 -0.1362969E-04
  0.5808081E+00  0.0000000E+00  0.1515152E-01 -0.1729229E-09  0.0000000E+00 -0.1362980E-04
  0.5909091E+00  0.0000000E+00  0.1515152E-01 -0.1862952E-09  0.0000000E+00 -0.1362993E-04
  0.6010101E+00  0.0000000E+00  0.1515152E-01 -0.1989100E-09  0.0000000E+00 -0.1363006E-04
  0.6111111E+00  0.0000000E+00  0.1515152E-01 -0.2107182E-09  0.0000000E+00 -0.1363019E-04
  0.6212121E+00  0.0000000E+00  0.1515152E-01 -0.2216749E-09  0.0000000E+00 -0.1363034E-04
  0.6313131E+00  0.0000000E+00  0.1515152E-01 -0.2317400E-09  0.0000000E+00 -0.1363049E-04
  0.6414142E+00  0.0000000E+00  0.1515152E-01 -0.2408783E-09  0.0000000E+00 -0.1363065E-04
  0.6515151E+00  0.0000000E+00  0.1515152E-01 -0.2490595E-09  0.0000000E+00 -0.1363082E-04
  0.6616161E+00  0.0000000E+00  0.1515152E-01 -0.2562581E-09  0.0000000E+00 -0.1363099E-04
  0.6717172E+00  0.0000000E+00  0.1515152E-01 -0.2624536E-09  0.0000000E+00 -0.1363116E-04
  0.6818182E+00  0.0000000E+00  0.1515152E-01 -0.2676304E-09  0.0000000E+00 -0.1363134E-04
  0.6919192E+00  0.0000000E+00  0.1515152E-01 -0.2717775E-09  0.0000000E+00 -0.1363152E-04
  0.7020202E+00  0.0000000E+00  0.1515152E-01 -0.2748885E-09  0.0000000E+00 -0.1363170E-04
  0.7121212E+00  0.0000000E+00  0.1515152E-01 -0.2769617E-09  0.0000000E+00 -0.1363189E-04
  0.7222222E+00  0.0000000E+00  0.1515152E-01 -0.2779997E-09  0.0000000E+00 -0.1363208E-04
  0.7323232E+00  0.0000000E+00  0.1515152E-01 -0.2780091E-09  0.0000000E+00 -0.1363226E-04
  0.7424242E+00  0.0000000E+00  0.1515152E-01 -0.2770005E-09  0.0000000E+00 -0.1363245E-04
  0.7525253E+00  0.0000000E+00  0.1515152E-01 -0.2749886E-09  0.0000000E+00 -0.1363264E-04
  0.7626263E+00  0.0000000E+00  0.1515152E-01 -0.2719913E-09  0.0000000E+00 -0.1363282E-04
  0.7727273E+00  0.0000000E+00  0.1515152E-01 -0.2680301E-09  0.0000000E+00 -0.1363300E-04
  0.7828283E+00  0.0000000E+00  0.1515152E-01 -0.2631294E-09  0.0000000E+00 -0.1363318E-04
  0.7929293E+00  0.0000000E+00  0.1515152E-01 -0.2573166E-09  0.0000000E+00 -0.1363336E-04
  0.8030303E+00  0.0000000E+00  0.1515152E-01 -0.2506219E-09  0.0000000E+00 -0.1363353E-04
  0.8131313E+00  0.0000000E+00  0.1515152E-01 -0.2430775E-09  0.0000000E+00 -0.1363369E-04
  0.8232324E+00  0.0000000E+00  0.1515152E-01 -0.2347181E-09  0.0000000E+00 -0.1363385E-04
  0.8333333E+00  0.0000000E+00  0.1515152E-01 -0.2255802E-09  0.0000000E+00 -0.1363401E-04
  0.8434343E+00  0.0000000E+00  0.1515152E-01 -0.2157019E-09  0.0000000E+00 -0.1363416E-04
  0.8535354E+00  0.0000000E+00  0.1515152E-01 -0.2051231E-09  0.0000000E+00 -0.1363430E-04
  0.8636364E+00  0.0000000E+00  0.1515152E-01 -0.1938849E-09  0.0000000E+00 -0.1363443E-04
  0.8737374E+00  0.0000000E+00  0.1515152E-01 -0.1820293E-09  0.0000000E+00 -0.1363456E-04
  0.8838384E+00  0.0000000E+00  0.1515152E-01 -0.1695998E-09  0.0000000E+00 -0.1363468E-04
  0.8939394E+00  0.0000000E+00  0.1515152E-01 -0.1566404E-09  0.0000000E+00 -0.1363479E-04
  0.9040404E+00  0.0000000E+00  0.1515152E-01 -0.1431958E-09  0.0000000E+00 -0.1363489E-04
  0.9141414E+00  0.0000000E+00  0.1515152E-01 -0.1293114E-09  0.0000000E+00 -0.1363498E-04
  0.9242424E+00  0.0000000E+00  0.1515152E-01 -0.1150332E-09  0.0000000E+00 -0.1363506E-04
  0.9343435E+00  0.0000000E+00  0.1515152E-01 -0.1004072E-09  0.0000000E+00 -0.1363513E-04
  0.9444444E+00  0.0000000E+00  0.1515152E-01 -0.8547998E-10  0.0000000E+00 -0.1363520E-04
  0.9545454E+00  0.0000000E+00  0.1515152E-01 -0.7029851E-10  0.0000000E+00 -0.1363525E-04
  0.9646465E+00  0.0000000E+00  0.1515152E-01 -0.5491014E-10  0.0000000E+00 -0.1363529E-04
  0.9747475E+00  0.0000000E+00  0.1515152E-01 -0.3936288E-10  0.0000000E+00 -0.1363532E-04
  0.9848485E+00  0.0000000E+00  0.1515152E-01 -0.2370662E-10  0.0000000E+00 -0.1363534E-04
  0.9974747E+00  0.0000000E+00  0.1515152E-01 -0.7996828E-11  0.0000000E+00 -0.1363536E-04
  0.5050505E-02  0.0000000E+00  0.2525252E-01  0.1314058E-10  0.0000000E+00 -0.1358918E-04
  0.1515152E-01  0.0000000E+00  0.2525252E-01  0.3965891E-10  0.0000000E+00 -0.1358917E-04
  0.2525252E-01  0.0000000E+00  0.2525252E-01  0.6608007E-10  0.0000000E+00 -0.1358915E-04
  0.3535353E-01  0.0000000E+00  0.2525252E-01  0.9220271E-10  0.0000000E+00 -0.1358912E-04
  0.4545455E-01  0.0000000E+00  0.2525252E-01  0.1179355E-09  0.0000000E+00 -0.1358908E-04
  0.5555556E-01  0.0000000E+00  0.2525252E-01  0.1432121E-09  0.0000000E+00 -0.1358902E-04
  0.6565657E-01  0.0000000E+00  0.2525252E-01  0.1679038E-09  0.0000000E+00 -0.1358896E-04
  0.7575758E-01  0.0000000E+00  0.2525252E-01  0.1919244E-09  0.0000000E+00 -0.1358888E-04
  0.8585858E-01  0.0000000E+00  0.2525252E-01  0.2151732E-09  0.0000000E+00 -0.1358880E-04
  0.9595960E-01  0.0000000E+00  0.2525252E-01  0.2375476E-09  0.0000000E+00 -0.1358871E-04
  0.1060606E+00  0.0000000E+00  0.2525252E-01  0.2589566E-09  0.0000000E+00 -0.1358861E-04
  0.1161616E+00  0.0000000E+00  0.2525252E-01  0.2793058E-09  0.0000000E+00 -0.1358850E-04
  0.1262626E+00  0.0000000E+00  0.2525252E-01  0.2985050E-09  0.0000000E+00 -0.1358838E-04
  0.1363636E+00  0.0000000E+00  0.2525252E-01  0.3164683E-09  0.0000000E+00 -0.1358825E-04
  0.1464646E+00  0.0000000E+00  0.2525252E-01  0.3331131E-09  0.0000000E+00 -0.1358812E-04
  0.1565657E+00  0.0000000E+00  0.2525252E-01  0.3483609E-09  0.0000000E+00 -0.1358798E-04
  0.1666667E+00  0.0000000E+00  0.2525252E-01  0.3621384E-09  0.0000000E+00 -0.1358783E-04
  0.1767677E+00  0.0000000E+00  0.2525252E-01  0.3743771E-09  0.0000000E+00 -0.1358768E-04
  0.1868687E+00  0.0000000E+00  0.2525252E-01  0.3850140E-09  0.0000000E+00 -0.1358753E-04
  0.1969697E+00  0.0000000E+00  0.2525252E-01  0.3939923E-09  0.0000000E+00 -0.1358737E-04
  0.2070707E+00  0.0000000E+00  0.2525252E-01  0.4012611E-09  0.0000000E+00 -0.1358720E-04
  0.2171717E+00  0.0000000E+00  0.2525252E-01  0.4067764E-09  0.0000000E+00 -0.1358704E-04
  0.2272727E+00  0.0000000E+00  0.2525252E-01  0.4105009E-09  0.0000000E+00 -0.1358687E-04
  0.2373737E+00  0.0000000E+00  0.2525252E-01  0.4124050E-09  0.0000000E+00 -0.1358670E-04
  0.2474747E+00  0.0000000E+00  0.2525252E-01  0.4124665E-09  0.0000000E+00 -0.1358653E-04
  0.2575758E+00  0.0000000E+00  0.2525252E-01  0.4106713E-09  0.0000000E+00 -0.1358636E-04
  0.2676768E+00  0.0000000E+00  0.2525252E-01  0.4070134E-09  0.0000000E+00 -0.1358619E-04
  0.2777778E+00  0.0000000E+00  0.2525252E-01  0.4014954E-09  0.0000000E+00 -0.1358603E-04
  0.2878788E+00  0.0000000E+00  0.2525252E-01  0.3941288E-09  0.0000000E+00 -0.1358586E-04
  0.2979798E+00  0.0000000E+00  0.2525252E-01  0.3849339E-09  0.0000000E+00 -0.1358570E-04
  0.3080808E+00  0.0000000E+00  0.2525252E-01  0.3739399E-09  0.0000000E+00 -0.1358555E-04
  0.3181818E+00  0.0000000E+00  0.2525252E-01  0.3611854E-09  0.0000000E+00 -0.1358540E-04
  0.3282828E+00  0.0000000E+00  0.2525252E-01  0.3467179E-09  0.0000000E+00 -0.1358525E-04
  0.3383838E+00  0.0000000E+00  0.2525252E-01  0.3305940E-09  0.0000000E+00 -0.1358511E-04
  0.3484848E+00  0.0000000E+00  0.2525252E-01  0.3128790E-09  0.0000000E+00 -0.1358498E-04
  0.3585859E+00  0.0000000E+00  0.2525252E-01  0.2936469E-09  0.0000000E+00 -0.1358486E-04
  0.3686869E+00  0.0000000E+00  0.2525252E-01  0.2729801E-09  0.0000000E+00 -0.1358474E-04
  0.3787879E+00  0.0000000E+00  0.2525252E-01  0.2509687E-09  0.0000000E+00 -0.1358463E-04
  0.3888889E+00  0.0000000E+00  0.2525252E-01  0.2277104E-09  0.0000000E+00 -0.1358454E-04
  0.3989899E+00  0.0000000E+00  0.2525252E-01  0.2033095E-09  0.0000000E+00 -0.1358445E-04
  0.4090909E+00  0.0000000E+00  0.2525252E-01  0.1778770E-09  0.0000000E+00 -0.1358437E-04
  0.4191919E+00  0.0000000E+00  0.2525252E-01  0.1515291E-09  0.0000000E+00 -0.1358430E-04
  0.4292929E+00  0.0000000E+00  0.2525252E-01  0.1243873E-09  0.0000000E+00 -0.1358424E-04
  0.4393939E+00  0.0000000E+00  0.2525252E-01  0.9657724E-10  0.0000000E+00 -0.1358420E-04
  0.4494950E+00  0.0000000E+00  0.2525252E-01  0.6822653E-10  0.0000000E+00 -0.1358416E-04
  0.4595959E+00  0.0000000E+00  0.2525252E-01  0.3946350E-10  0.0000000E+00 -0.1358414E-04
  0.4696970E+00  0.0000000E+00  0.2525252E-01  0.1041531E-10  0.0000000E+00 -0.1358413E-04
  0.4797980E+00  0.0000000E+00  0.2525252E-01 -0.1877321E-10  0.0000000E+00 -0.1358413E-04
  0.4898990E+00  0.0000000E+00  0.2525252E-01 -0.4798741E-10  0.0000000E+00 -0.1358415E-04
  0.5000000E+00  0.0000000E+00  0.2525252E-01 -0.7705138E-10  0.0000000E+00 -0.1358417E-04
  0.5101010E+00  0.0000000E+00  0.2525252E-01 -0.1058709E-09  0.0000000E+00 -0.1358421E-04
  0.5202020E+00  0.0000000E+00  0.2525252E-01 -0.1342909E-09  0.0000000E+00 -0.1358426E-04
  0.5303030E+00  0.0000000E+00  0.2525252E-01 -0.1622173E-09  0.0000000E+00 -0.1358432E-04
  0.5404040E+00  0.0000000E+00  0.2525252E-01 -0.1894980E-09  0.0000000E+00 -0.1358439E-04
  0.5505050E+00  0.0000000E+00  0.2525252E-01 -0.2160261E-09  0.0000000E+00 -0.1358448E-04
  0.5606061E+00  0.0000000E+00  0.2525252E-01 -0.2416858E-09  0.0000000E+00 -0.1358457E-04
  0.5707071E+00  0.0000000E+00  0.2525252E-01 -0.2663622E-09  0.0000000E+00 -0.1358468E-04
  0.5808081E+00  0.0000000E+00  0.2525252E-01 -0.2899561E-09  0.0000000E+00 -0.1358479E-04
  0.5909091E+00  0.0000000E+00  0.2525252E-01 -0.3123690E-09  0.0000000E+00 -0.1358491E-04
  0.6010101E+00  0.0000000E+00  0.2525252E-01 -0.3335104E-09  0.0000000E+00 -0.1358505E-04
  0.6111111E+00  0.0000000E+00  0.2525252E-01 -0.3532981E-09  0.0000000E+00 -0.1358519E-04
  0.6212121E+00  0.0000000E+00  0.2525252E-01 -0.3716568E-09  0.0000000E+00 -0.1358534E-04
  0.6313131E+00  0.0000000E+00  0.2525252E-01 -0.3885194E-09  0.0000000E+00 -0.1358549E-04
  0.6414142E+00  0.0000000E+00  0.2525252E-01 -0.4038271E-09  0.0000000E+00 -0.1358565E-04
  0.6515151E+00  0.0000000E+00  0.2525252E-01 -0.4175291E-09  0.0000000E+00 -0.1358582E-04
  0.6616161E+00  0.0000000E+00  0.2525252E-01 -0.4295830E-09  0.0000000E+00 -0.1358600E-04
  0.6717172E+00  0.0000000E+00  0.2525252E-01 -0.4399545E-09  0.0000000E+00 -0.1358617E-04
  0.6818182E+00  0.0000000E+00  0.2525252E-01 -0.4486175E-09  0.0000000E+00 -0.1358636E-04
  0.6919192E+00  0.0000000E+00  0.2525252E-01 -0.4555538E-09  0.0000000E+00 -0.1358654E-04
  0.7020202E+00  0.0000000E+00  0.2525252E-01 -0.4607532E-09  0.0000000E+00 -0.1358673E-04
  0.7121212E+00  0.0000000E+00  0.2525252E-01 -0.4642128E-09  0.0000000E+00 -0.1358692E-04
  0.7222222E+00  0.0000000E+00  0.2525252E-01 -0.4659370E-09  0.0000000E+00 -0.1358711E-04
  0.7323232E+00  0.0000000E+00  0.2525252E-01 -0.4659373E-09  0.0000000E+00 -0.1358730E-04
  0.7424242E+00  0.0000000E+00  0.2525252E-01 -0.4642317E-09  0.0000000E+00 -0.1358749E-04
  0.7525253E+00  0.0000000E+00  0.2525252E-01 -0.4608449E-09  0.0000000E+00 -0.1358768E-04
  0.7626263E+00  0.0000000E+00  0.2525252E-01 -0.4558072E-09  0.0000000E+00 -0.1358787E-04
  0.7727273E+00  0.0000000E+00  0.2525252E-01 -0.4491547E-09  0.0000000E+00 -0.1358805E-04
  0.7828283E+00  0.0000000E+00  0.2525252E-01 -0.4409286E-09  0.0000000E+00 -0.1358824E-04
  0.7929293E+00  0.0000000E+00  0.2525252E-01 -0.4311751E-09  0.0000000E+00 -0.1358842E-04
  0.8030303E+00  0.0000000E+00  0.2525252E-01 -0.4199446E-09  0.0000000E+00 -0.1358859E-04
  0.8131313E+00  0.0000000E+00  0.2525252E-01 -0.4072915E-09  0.0000000E+00 -0.1358876E-04
  0.8232324E+00  0.0000000E+00  0.2525252E-01 -0.3932740E-09  0.0000000E+00 -0.1358892E-04
  0.8333333E+00  0.0000000E+00  0.2525252E-01 -0.3779532E-09  0.0000000E+00 -0.1358908E-04
  0.8434343E+00  0.0000000E+00  0.2525252E-01 -0.3613933E-09  0.0000000E+00 -0.1358923E-04
  0.8535354E+00  0.0000000E+00  0.2525252E-01 -0.3436609E-09  0.0000000E+00 -0.1358938E-04
  0.8636364E+00  0.0000000E+00  0.2525252E-01 -0.3248249E-09  0.0000000E+00 -0.1358951E-04
  0.8737374E+00  0.0000000E+00  0.2525252E-01 -0.3049561E-09  0.0000000E+00 -0.1358964E-04
  0.8838384E+00  0.0000000E+00  0.2525252E-01 -0.2841269E-09  0.0000000E+00 -0.1358976E-04
  0.8939394E+00  0.0000000E+00  0.2525252E-01 -0.2624112E-09  0.0000000E+00 -0.1358988E-04
  0.9040404E+00  0.0000000E+00  0.2525252E-01 -0.2398839E-09  0.0000000E+00 -0.1358998E-04
  0.9141414E+00  0.0000000E+00  0.2525252E-01 -0.2166210E-09  0.0000000E+00 -0.1359007E-04
  0.9242424E+00  0.0000000E+00  0.2525252E-01 -0.1926991E-09  0.0000000E+00 -0.1359016E-04
  0.9343435E+00  0.0000000E+00  0.2525252E-01 -0.1681955E-09  0.0000000E+00 -0.1359023E-04
  0.9444444E+00  0.0000000E+00  0.2525252E-01 -0.1431878E-09  0.0000000E+00 -0.1359029E-04
  0.9545454E+00  0.0000000E+00  0.2525252E-01 -0.1177543E-09  0.0000000E+00 -0.1359035E-04
  0.9646465E+00  0.0000000E+00  0.2525252E-01 -0.9197369E-10  0.0000000E+00 -0.1359039E-04
  0.9747475E+00  0.0000000E+00  0.2525252E-01 -0.6592505E-10  0.0000000E+00 -0.1359042E-04
  0.9848485E+00  0.0000000E+00  0.2525252E-01 -0.3968695E-10  0.0000000E+00 -0.1359044E-04
  0.9974747E+00  0.0000000E+00  0.2525252E-01 -0.1334005E-10  0.0000000E+00 -0.1359045E-04
  0.5050505E-02  0.0000000E+00  0.3535353E-01  0.1860707E-10  0.0000000E+00 -0.1352202E-04
  0.1515152E-01  0.0000000E+00  0.3535353E-01  0.5606697E-10  0.0000000E+00 -0.1352201E-04
  0.2525252E-01  0.0000000E+00  0.3535353E-01  0.9338314E-10  0.0000000E+00 -0.1352199E-04
  0.3535353E-01  0.0000000E+00  0.3535353E-01  0.1302892E-09  0.0000000E+00 -0.1352195E-04
  0.4545455E-01  0.0000000E+00  0.3535353E-01  0.1666496E-09  0.0000000E+00 -0.1352191E-04
  0.5555556E-01  0.0000000E+00  0.3535353E-01  0.2023623E-09  0.0000000E+00 -0.1352185E-04
  0.6565657E-01  0.0000000E+00  0.3535353E-01  0.2372549E-09  0.0000000E+00 -0.1352179E-04
  0.7575758E-01  0.0000000E+00  0.3535353E-01  0.2711986E-09  0.0000000E+00 -0.1352171E-04
  0.8585858E-01  0.0000000E+00  0.3535353E-01  0.3040529E-09  0.0000000E+00 -0.1352163E-04
  0.9595960E-01  0.0000000E+00  0.3535353E-01  0.3356742E-09  0.0000000E+00 -0.1352153E-04
  0.1060606E+00  0.0000000E+00  0.3535353E-01  0.3659323E-09  0.0000000E+00 -0.1352142E-04
  0.1161616E+00  0.0000000E+00  0.3535353E-01  0.3946943E-09  0.0000000E+00 -0.1352131E-04
  0.1262626E+00  0.0000000E+00  0.3535353E-01  0.4218331E-09  0.0000000E+00 -0.1352119E-04
  0.1363636E+00  0.0000000E+00  0.3535353E-01  0.4472268E-09  0.0000000E+00 -0.1352106E-04
  0.1464646E+00  0.0000000E+00  0.3535353E-01  0.4707585E-09  0.0000000E+00 -0.1352092E-04
  0.1565657E+00  0.0000000E+00  0.3535353E-01  0.4923176E-09  0.0000000E+00 -0.1352078E-04
  0.1666667E+00  0.0000000E+00  0.3535353E-01  0.5117999E-09  0.0000000E+00 -0.1352063E-04
  0.1767677E+00  0.0000000E+00  0.3535353E-01  0.5291087E-09  0.0000000E+00 -0.1352047E-04
  0.1868687E+00  0.0000000E+00  0.3535353E-01  0.5441547E-09  0.0000000E+00 -0.1352031E-04
  0.1969697E+00  0.0000000E+00  0.3535353E-01  0.5568571E-09  0.0000000E+00 -0.1352014E-04
  0.2070707E+00  0.0000000E+00  0.3535353E-01  0.5671441E-09  0.0000000E+00 -0.1351998E-04
  0.2171717E+00  0.0000000E+00  0.3535353E-01  0.5749529E-09  0.0000000E+00 -0.1351980E-04
  0.2272727E+00  0.0000000E+00  0.3535353E-01  0.5802308E-09  0.0000000E+00 -0.1351963E-04
  0.2373737E+00  0.0000000E+00  0.3535353E-01  0.5829354E-09  0.0000000E+00 -0.1351946E-04
  0.2474747E+00  0.0000000E+00  0.3535353E-01  0.5830351E-09  0.0000000E+00 -0.1351928E-04
  0.2575758E+00  0.0000000E+00  0.3535353E-01  0.5805097E-09  0.0000000E+00 -0.1351911E-04
  0.2676768E+00  0.0000000E+00  0.3535353E-01  0.5753506E-09  0.0000000E+00 -0.1351893E-04
  0.2777778E+00  0.0000000E+00  0.3535353E-01  0.5675612E-09  0.0000000E+00 -0.1351876E-04
  0.2878788E+00  0.0000000E+00  0.3535353E-01  0.5571574E-09  0.0000000E+00 -0.1351859E-04
  0.2979798E+00  0.0000000E+00  0.3535353E-01  0.5441678E-09  0.0000000E+00 -0.1351843E-04