title = "dataset water"
variables = "x", "y", "z", "vx", "vy", "vz"
zone t = "velocities, solution time =  1.100E+01 days        " i =   99, j =   99, k =    1,  f=point
  0.5050505E-02  0.0000000E+00  0.5050505E-02  0.9708405E-13  0.0000000E+00 -0.4741590E-04
  0.1515152E-01  0.0000000E+00  0.5050505E-02  0.6600288E-14  0.0000000E+00 -0.4741590E-04
  0.2525252E-01  0.0000000E+00  0.5050505E-02 -0.1098838E-12  0.0000000E+00 -0.4741590E-04
  0.3535353E-01  0.0000000E+00  0.5050505E-02 -0.1598403E-12  0.0000000E+00 -0.4741590E-04
  0.4545455E-01  0.0000000E+00  0.5050505E-02 -0.2209743E-12  0.0000000E+00 -0.4741590E-04
  0.5555556E-01  0.0000000E+00  0.5050505E-02 -0.2728952E-12  0.0000000E+00 -0.4741590E-04
  0.6565657E-01  0.0000000E+00  0.5050505E-02 -0.3129292E-12  0.0000000E+00 -0.4741590E-04
  0.7575758E-01  0.0000000E+00  0.5050505E-02 -0.3331204E-12  0.0000000E+00 -0.4741591E-04
  0.8585858E-01  0.0000000E+00  0.5050505E-02 -0.3382286E-12  0.0000000E+00 -0.4741591E-04
  0.9595960E-01  0.0000000E+00  0.5050505E-02 -0.3488877E-12  0.0000000E+00 -0.4741591E-04
  0.1060606E+00  0.0000000E+00  0.5050505E-02 -0.3459684E-12  0.0000000E+00 -0.4741591E-04
  0.1161616E+00  0.0000000E+00  0.5050505E-02 -0.3371268E-12  0.0000000E+00 -0.4741591E-04
  0.1262626E+00  0.0000000E+00  0.5050505E-02 -0.3166208E-12  0.0000000E+00 -0.4741591E-04
  0.1363636E+00  0.0000000E+00  0.5050505E-02 -0.2844252E-12  0.0000000E+00 -0.4741591E-04
  0.1464646E+00  0.0000000E+00  0.5050505E-02 -0.2499673E-12  0.0000000E+00 -0.4741591E-04
  0.1565657E+00  0.0000000E+00  0.5050505E-02 -0.2068461E-12  0.0000000E+00 -0.4741591E-04
  0.1666667E+00  0.0000000E+00  0.5050505E-02 -0.1561781E-12  0.0000000E+00 -0.4741591E-04
  0.1767677E+00  0.0000000E+00  0.5050505E-02 -0.1049834E-12  0.0000000E+00 -0.4741591E-04
  0.1868687E+00  0.0000000E+00  0.5050505E-02 -0.5467221E-13  0.0000000E+00 -0.4741591E-04
  0.1969697E+00  0.0000000E+00  0.5050505E-02 -0.4323241E-15  0.0000000E+00 -0.4741591E-04
  0.2070707E+00  0.0000000E+00  0.5050505E-02  0.8873558E-13  0.0000000E+00 -0.4741591E-04
  0.2171717E+00  0.0000000E+00  0.5050505E-02  0.1486670E-12  0.0000000E+00 -0.4741591E-04
  0.2272727E+00  0.0000000E+00  0.5050505E-02  0.1896497E-12  0.0000000E+00 -0.4741591E-04
  0.2373737E+00  0.0000000E+00  0.5050505E-02  0.2206868E-12  0.0000000E+00 -0.4741591E-04
  0.2474747E+00  0.0000000E+00  0.5050505E-02  0.2655813E-12  0.0000000E+00 -0.4741591E-04
  0.2575758E+00  0.0000000E+00  0.5050505E-02  0.3056595E-12  0.0000000E+00 -0.4741591E-04
  0.2676768E+00  0.0000000E+00  0.5050505E-02  0.3139471E-12  0.0000000E+00 -0.4741591E-04
  0.2777778E+00  0.0000000E+00  0.5050505E-02  0.3289063E-12  0.0000000E+00 -0.4741591E-04
  0.2878788E+00  0.0000000E+00  0.5050505E-02  0.3237184E-12  0.0000000E+00 -0.4741591E-04
  0.2979798E+00  0.0000000E+00  0.5050505E-02  0.3033132E-12  0.0000000E+00 -0.4741591E-04
  0.3080808E+00  0.0000000E+00  0.5050505E-02  0.3066962E-12  0.0000000E+00 -0.4741591E-04
  0.3181818E+00  0.0000000E+00  0.5050505E-02  0.2939175E-12  0.0000000E+00 -0.4741591E-04
  0.3282828E+00  0.0000000E+00  0.5050505E-02  0.2499169E-12  0.0000000E+00 -0.4741590E-04
  0.3383838E+00  0.0000000E+00  0.5050505E-02  0.2083404E-12  0.0000000E+00 -0.4741590E-04
  0.3484848E+00  0.0000000E+00  0.5050505E-02  0.1686799E-12  0.0000000E+00 -0.4741590E-04
  0.3585859E+00  0.0000000E+00  0.5050505E-02  0.1321590E-12  0.0000000E+00 -0.4741590E-04
  0.3686869E+00  0.0000000E+00  0.5050505E-02  0.1079131E-12  0.0000000E+00 -0.4741590E-04
  0.3787879E+00  0.0000000E+00  0.5050505E-02  0.4049996E-13  0.0000000E+00 -0.4741590E-04
  0.3888889E+00  0.0000000E+00  0.5050505E-02 -0.2217865E-13  0.0000000E+00 -0.4741590E-04
  0.3989899E+00  0.0000000E+00  0.5050505E-02 -0.1004818E-12  0.0000000E+00 -0.4741590E-04
  0.4090909E+00  0.0000000E+00  0.5050505E-02 -0.1136971E-12  0.0000000E+00 -0.4741590E-04
  0.4191919E+00  0.0000000E+00  0.5050505E-02 -0.7617090E-13  0.0000000E+00 -0.4741590E-04
  0.4292929E+00  0.0000000E+00  0.5050505E-02 -0.6694938E-13  0.0000000E+00 -0.4741590E-04
  0.4393939E+00  0.0000000E+00  0.5050505E-02 -0.1667638E-12  0.0000000E+00 -0.4741590E-04
  0.4494950E+00  0.0000000E+00  0.5050505E-02 -0.1659600E-12  0.0000000E+00 -0.4741590E-04
  0.4595959E+00  0.0000000E+00  0.5050505E-02 -0.5557044E-13  0.0000000E+00 -0.4741590E-04
  0.4696970E+00  0.0000000E+00  0.5050505E-02  0.3099722E-14  0.0000000E+00 -0.4741590E-04
  0.4797980E+00  0.0000000E+00  0.5050505E-02 -0.2933928E-13  0.0000000E+00 -0.4741590E-04
  0.4898990E+00  0.0000000E+00  0.5050505E-02 -0.2125524E-13  0.0000000E+00 -0.4741590E-04
  0.5000000E+00  0.0000000E+00  0.5050505E-02  0.8107127E-13  0.0000000E+00 -0.4741590E-04
  0.5101010E+00  0.0000000E+00  0.5050505E-02  0.1345472E-12  0.0000000E+00 -0.4741590E-04
  0.5202020E+00  0.0000000E+00  0.5050505E-02  0.1644280E-12  0.0000000E+00 -0.4741590E-04
  0.5303030E+00  0.0000000E+00  0.5050505E-02  0.1905206E-12  0.0000000E+00 -0.4741590E-04
  0.5404040E+00  0.0000000E+00  0.5050505E-02  0.2076919E-12  0.0000000E+00 -0.4741590E-04
  0.5505050E+00  0.0000000E+00  0.5050505E-02  0.2239313E-12  0.0000000E+00 -0.4741590E-04
  0.5606061E+00  0.0000000E+00  0.5050505E-02  0.2569181E-12  0.0000000E+00 -0.4741590E-04
  0.5707071E+00  0.0000000E+00  0.5050505E-02  0.2561919E-12  0.0000000E+00 -0.4741590E-04
  0.5808081E+00  0.0000000E+00  0.5050505E-02  0.2469305E-12  0.0000000E+00 -0.4741590E-04
  0.5909091E+00  0.0000000E+00  0.5050505E-02  0.2225147E-12  0.0000000E+00 -0.4741590E-04
  0.6010101E+00  0.0000000E+00  0.5050505E-02  0.2065544E-12  0.0000000E+00 -0.4741590E-04
  0.6111111E+00  0.0000000E+00  0.5050505E-02  0.1884912E-12  0.0000000E+00 -0.4741590E-04
  0.6212121E+00  0.0000000E+00  0.5050505E-02  0.1458548E-12  0.0000000E+00 -0.4741590E-04
  0.6313131E+00  0.0000000E+00  0.5050505E-02  0.1042594E-12  0.0000000E+00 -0.4741590E-04
  0.6414142E+00  0.0000000E+00  0.5050505E-02  0.7357485E-13  0.0000000E+00 -0.4741590E-04
  0.6515151E+00  0.0000000E+00  0.5050505E-02  0.2799404E-13  0.0000000E+00 -0.4741590E-04
  0.6616161E+00  0.0000000E+00  0.5050505E-02 -0.3365203E-13  0.0000000E+00 -0.4741590E-04
  0.6717172E+00  0.0000000E+00  0.5050505E-02 -0.1219133E-12  0.0000000E+00 -0.4741590E-04
  0.6818182E+00  0.0000000E+00  0.5050505E-02 -0.1740545E-12  0.0000000E+00 -0.4741590E-04
  0.6919192E+00  0.0000000E+00  0.5050505E-02 -0.1953622E-12  0.0000000E+00 -0.4741590E-04
  0.7020202E+00  0.0000000E+00  0.5050505E-02 -0.2564585E-12  0.0000000E+00 -0.4741590E-04
  0.7121212E+00  0.0000000E+00  0.5050505E-02 -0.3150027E-12  0.0000000E+00 -0.4741590E-04
  0.7222222E+00  0.0000000E+00  0.5050505E-02 -0.3350638E-12  0.0000000E+00 -0.4741590E-04
  0.7323232E+00  0.0000000E+00  0.5050505E-02 -0.3119093E-12  0.0000000E+00 -0.4741590E-04
  0.7424242E+00  0.0000000E+00  0.5050505E-02 -0.3231098E-12  0.0000000E+00 -0.4741590E-04
  0.7525253E+00  0.0000000E+00  0.5050505E-02 -0.3825712E-12  0.0000000E+00 -0.4741590E-04
  0.7626263E+00  0.0000000E+00  0.5050505E-02 -0.3813770E-12  0.0000000E+00 -0.4741590E-04
  0.7727273E+00  0.0000000E+00  0.5050505E-02 -0.3281193E-12  0.0000000E+00 -0.4741591E-04
  0.7828283E+00  0.0000000E+00  0.5050505E-02 -0.3061254E-12  0.0000000E+00 -0.4741591E-04
  0.7929293E+00  0.0000000E+00  0.5050505E-02 -0.3257332E-12  0.0000000E+00 -0.4741591E-04
  0.8030303E+00  0.0000000E+00  0.5050505E-02 -0.3050404E-12  0.0000000E+00 -0.4741591E-04
  0.8131313E+00  0.0000000E+00  0.5050505E-02 -0.2437154E-12  0.0000000E+00 -0.4741591E-04
  0.8232324E+00  0.0000000E+00  0.5050505E-02 -0.1978701E-12  0.0000000E+00 -0.4741591E-04
  0.8333333E+00  0.0000000E+00  0.5050505E-02 -0.1708373E-12  0.0000000E+00 -0.4741591E-04
  0.8434343E+00  0.0000000E+00  0.5050505E-02 -0.1272649E-12  0.0000000E+00 -0.4741591E-04
  0.8535354E+00  0.0000000E+00  0.5050505E-02 -0.7306068E-13  0.0000000E+00 -0.4741591E-04
  0.8636364E+00  0.0000000E+00  0.5050505E-02 -0.1272208E-13  0.0000000E+00 -0.4741591E-04
  0.8737374E+00  0.0000000E+00  0.5050505E-02  0.3206124E-13  0.0000000E+00 -0.4741591E-04
  0.8838384E+00  0.0000000E+00  0.5050505E-02  0.9838522E-13  0.0000000E+00 -0.4741591E-04
  0.8939394E+00  0.0000000E+00  0.5050505E-02  0.1584678E-12  0.0000000E+00 -0.4741591E-04
  0.9040404E+00  0.0000000E+00  0.5050505E-02  0.1694690E-12  0.0000000E+00 -0.4741591E-04
  0.9141414E+00  0.0000000E+00  0.5050505E-02  0.1894587E-12  0.0000000E+00 -0.4741591E-04
  0.9242424E+00  0.0000000E+00  0.5050505E-02  0.2401519E-12  0.0000000E+00 -0.4741591E-04
  0.9343435E+00  0.0000000E+00  0.5050505E-02  0.2143320E-12  0.0000000E+00 -0.4741591E-04
  0.9444444E+00  0.0000000E+00  0.5050505E-02  0.1751815E-12  0.0000000E+00 -0.4741591E-04
  0.9545454E+00  0.0000000E+00  0.5050505E-02  0.2029825E-12  0.0000000E+00 -0.4741591E-04
  0.9646465E+00  0.0000000E+00  0.5050505E-02  0.1932405E-12  0.0000000E+00 -0.4741591E-04
  0.9747475E+00  0.0000000E+00  0.5050505E-02  0.1455002E-12  0.0000000E+00 -0.4741591E-04
  0.9848485E+00  0.0000000E+00  0.5050505E-02  0.1294244E-12  0.0000000E+00 -0.4741591E-04
  0.9974747E+00  0.0000000E+00  0.5050505E-02  0.1428055E-12  0.0000000E+00 -0.4741591E-04
  0.5050505E-02  0.0000000E+00  0.1515152E-01  0.1910434E-12  0.0000000E+00 -0.4722110E-04
  0.1515152E-01  0.0000000E+00  0.1515152E-01 -0.3283847E-13  0.0000000E+00 -0.4722111E-04
  0.2525252E-01  0.0000000E+00  0.1515152E-01 -0.3362562E-12  0.0000000E+00 -0.4722111E-04
  0.3535353E-01  0.0000000E+00  0.1515152E-01 -0.4760701E-12  0.0000000E+00 -0.4722111E-04
  0.4545455E-01  0.0000000E+00  0.1515152E-01 -0.6539440E-12  0.0000000E+00 -0.4722111E-04
  0.5555556E-01  0.0000000E+00  0.1515152E-01 -0.8048017E-12  0.0000000E+00 -0.4722111E-04
  0.6565657E-01  0.0000000E+00  0.1515152E-01 -0.9318372E-12  0.0000000E+00 -0.4722111E-04
  0.7575758E-01  0.0000000E+00  0.1515152E-01 -0.1009443E-11  0.0000000E+00 -0.4722111E-04
  0.8585858E-01  0.0000000E+00  0.1515152E-01 -0.1022500E-11  0.0000000E+00 -0.4722111E-04
  0.9595960E-01  0.0000000E+00  0.1515152E-01 -0.1044787E-11  0.0000000E+00 -0.4722111E-04
  0.1060606E+00  0.0000000E+00  0.1515152E-01 -0.1033622E-11  0.0000000E+00 -0.4722111E-04
  0.1161616E+00  0.0000000E+00  0.1515152E-01 -0.1004355E-11  0.0000000E+00 -0.4722111E-04
  0.1262626E+00  0.0000000E+00  0.1515152E-01 -0.9476261E-12  0.0000000E+00 -0.4722111E-04
  0.1363636E+00  0.0000000E+00  0.1515152E-01 -0.8545498E-12  0.0000000E+00 -0.4722111E-04
  0.1464646E+00  0.0000000E+00  0.1515152E-01 -0.7479576E-12  0.0000000E+00 -0.4722111E-04
  0.1565657E+00  0.0000000E+00  0.1515152E-01 -0.6165344E-12  0.0000000E+00 -0.4722111E-04
  0.1666667E+00  0.0000000E+00  0.1515152E-01 -0.4612787E-12  0.0000000E+00 -0.4722111E-04
  0.1767677E+00  0.0000000E+00  0.1515152E-01 -0.3020678E-12  0.0000000E+00 -0.4722111E-04
  0.1868687E+00  0.0000000E+00  0.1515152E-01 -0.1533354E-12  0.0000000E+00 -0.4722111E-04
  0.1969697E+00  0.0000000E+00  0.1515152E-01  0.1416542E-13  0.0000000E+00 -0.4722111E-04
  0.2070707E+00  0.0000000E+00  0.1515152E-01  0.2556416E-12  0.0000000E+00 -0.4722111E-04
  0.2171717E+00  0.0000000E+00  0.1515152E-01  0.4453848E-12  0.0000000E+00 -0.4722111E-04
  0.2272727E+00  0.0000000E+00  0.1515152E-01  0.5841383E-12  0.0000000E+00 -0.4722111E-04
  0.2373737E+00  0.0000000E+00  0.1515152E-01  0.6460230E-12  0.0000000E+00 -0.4722111E-04
  0.2474747E+00  0.0000000E+00  0.1515152E-01  0.7764289E-12  0.0000000E+00 -0.4722111E-04
  0.2575758E+00  0.0000000E+00  0.1515152E-01  0.9127436E-12  0.0000000E+00 -0.4722111E-04
  0.2676768E+00  0.0000000E+00  0.1515152E-01  0.9503298E-12  0.0000000E+00 -0.4722111E-04
  0.2777778E+00  0.0000000E+00  0.1515152E-01  0.9950886E-12  0.0000000E+00 -0.4722111E-04
  0.2878788E+00  0.0000000E+00  0.1515152E-01  0.9920285E-12  0.0000000E+00 -0.4722111E-04
  0.2979798E+00  0.0000000E+00  0.1515152E-01  0.9084463E-12  0.0000000E+00 -0.4722111E-04
  0.3080808E+00  0.0000000E+00  0.1515152E-01  0.8845995E-12  0.0000000E+00 -0.4722111E-04
  0.3181818E+00  0.0000000E+00  0.1515152E-01  0.8659025E-12  0.0000000E+00 -0.4722111E-04
  0.3282828E+00  0.0000000E+00  0.1515152E-01  0.7724347E-12  0.0000000E+00 -0.4722111E-04
  0.3383838E+00  0.0000000E+00  0.1515152E-01  0.6567265E-12  0.0000000E+00 -0.4722111E-04
  0.3484848E+00  0.0000000E+00  0.1515152E-01  0.5248809E-12  0.0000000E+00 -0.4722111E-04
  0.3585859E+00  0.0000000E+00  0.1515152E-01  0.3709593E-12  0.0000000E+00 -0.4722111E-04
  0.3686869E+00  0.0000000E+00  0.1515152E-01  0.2033205E-12  0.0000000E+00 -0.4722111E-04
  0.3787879E+00  0.0000000E+00  0.1515152E-01  0.1282001E-12  0.0000000E+00 -0.4722111E-04
  0.3888889E+00  0.0000000E+00  0.1515152E-01  0.3151480E-13  0.0000000E+00 -0.4722111E-04
  0.3989899E+00  0.0000000E+00  0.1515152E-01 -0.2095166E-12  0.0000000E+00 -0.4722111E-04
  0.4090909E+00  0.0000000E+00  0.1515152E-01 -0.4006809E-12  0.0000000E+00 -0.4722111E-04
  0.4191919E+00  0.0000000E+00  0.1515152E-01 -0.3569292E-12  0.0000000E+00 -0.4722111E-04
  0.4292929E+00  0.0000000E+00  0.1515152E-01 -0.1681318E-12  0.0000000E+00 -0.4722111E-04
  0.4393939E+00  0.0000000E+00  0.1515152E-01 -0.3455778E-12  0.0000000E+00 -0.4722111E-04
  0.4494950E+00  0.0000000E+00  0.1515152E-01 -0.4945735E-12  0.0000000E+00 -0.4722111E-04
  0.4595959E+00  0.0000000E+00  0.1515152E-01 -0.2977045E-12  0.0000000E+00 -0.4722111E-04
  0.4696970E+00  0.0000000E+00  0.1515152E-01 -0.2082156E-13  0.0000000E+00 -0.4722111E-04
  0.4797980E+00  0.0000000E+00  0.1515152E-01  0.2863743E-14  0.0000000E+00 -0.4722111E-04
  0.4898990E+00  0.0000000E+00  0.1515152E-01  0.2114264E-13  0.0000000E+00 -0.4722111E-04
  0.5000000E+00  0.0000000E+00  0.1515152E-01  0.1876289E-12  0.0000000E+00 -0.4722111E-04
  0.5101010E+00  0.0000000E+00  0.1515152E-01  0.3538650E-12  0.0000000E+00 -0.4722111E-04
  0.5202020E+00  0.0000000E+00  0.1515152E-01  0.4682152E-12  0.0000000E+00 -0.4722111E-04
  0.5303030E+00  0.0000000E+00  0.1515152E-01  0.5844873E-12  0.0000000E+00 -0.4722111E-04
  0.5404040E+00  0.0000000E+00  0.1515152E-01  0.6504082E-12  0.0000000E+00 -0.4722111E-04
  0.5505050E+00  0.0000000E+00  0.1515152E-01  0.6667234E-12  0.0000000E+00 -0.4722111E-04
  0.5606061E+00  0.0000000E+00  0.1515152E-01  0.7441684E-12  0.0000000E+00 -0.4722110E-04
  0.5707071E+00  0.0000000E+00  0.1515152E-01  0.7597385E-12  0.0000000E+00 -0.4722110E-04
  0.5808081E+00  0.0000000E+00  0.1515152E-01  0.7547201E-12  0.0000000E+00 -0.4722110E-04
  0.5909091E+00  0.0000000E+00  0.1515152E-01  0.6825648E-12  0.0000000E+00 -0.4722110E-04
  0.6010101E+00  0.0000000E+00  0.1515152E-01  0.6135340E-12  0.0000000E+00 -0.4722110E-04
  0.6111111E+00  0.0000000E+00  0.1515152E-01  0.5592900E-12  0.0000000E+00 -0.4722110E-04
  0.6212121E+00  0.0000000E+00  0.1515152E-01  0.4394809E-12  0.0000000E+00 -0.4722110E-04
  0.6313131E+00  0.0000000E+00  0.1515152E-01  0.2977658E-12  0.0000000E+00 -0.4722110E-04
  0.6414142E+00  0.0000000E+00  0.1515152E-01  0.1996299E-12  0.0000000E+00 -0.4722110E-04
  0.6515151E+00  0.0000000E+00  0.1515152E-01  0.9287152E-13  0.0000000E+00 -0.4722110E-04
  0.6616161E+00  0.0000000E+00  0.1515152E-01 -0.1037827E-12  0.0000000E+00 -0.4722110E-04
  0.6717172E+00  0.0000000E+00  0.1515152E-01 -0.3755660E-12  0.0000000E+00 -0.4722110E-04
  0.6818182E+00  0.0000000E+00  0.1515152E-01 -0.5511883E-12  0.0000000E+00 -0.4722110E-04
  0.6919192E+00  0.0000000E+00  0.1515152E-01 -0.5847176E-12  0.0000000E+00 -0.4722110E-04
  0.7020202E+00  0.0000000E+00  0.1515152E-01 -0.7164096E-12  0.0000000E+00 -0.4722110E-04
  0.7121212E+00  0.0000000E+00  0.1515152E-01 -0.8987043E-12  0.0000000E+00 -0.4722110E-04
  0.7222222E+00  0.0000000E+00  0.1515152E-01 -0.1042497E-11  0.0000000E+00 -0.4722110E-04
  0.7323232E+00  0.0000000E+00  0.1515152E-01 -0.1007847E-11  0.0000000E+00 -0.4722110E-04
  0.7424242E+00  0.0000000E+00  0.1515152E-01 -0.9475677E-12  0.0000000E+00 -0.4722111E-04
  0.7525253E+00  0.0000000E+00  0.1515152E-01 -0.1073106E-11  0.0000000E+00 -0.4722111E-04
  0.7626263E+00  0.0000000E+00  0.1515152E-01 -0.1155007E-11  0.0000000E+00 -0.4722111E-04
  0.7727273E+00  0.0000000E+00  0.1515152E-01 -0.1052472E-11  0.0000000E+00 -0.4722111E-04
  0.7828283E+00  0.0000000E+00  0.1515152E-01 -0.9184879E-12  0.0000000E+00 -0.4722111E-04
  0.7929293E+00  0.0000000E+00  0.1515152E-01 -0.9230307E-12  0.0000000E+00 -0.4722111E-04
  0.8030303E+00  0.0000000E+00  0.1515152E-01 -0.9092958E-12  0.0000000E+00 -0.4722111E-04
  0.8131313E+00  0.0000000E+00  0.1515152E-01 -0.7670245E-12  0.0000000E+00 -0.4722111E-04
  0.8232324E+00  0.0000000E+00  0.1515152E-01 -0.6049297E-12  0.0000000E+00 -0.4722111E-04
  0.8333333E+00  0.0000000E+00  0.1515152E-01 -0.5003432E-12  0.0000000E+00 -0.4722111E-04
  0.8434343E+00  0.0000000E+00  0.1515152E-01 -0.3774871E-12  0.0000000E+00 -0.4722111E-04
  0.8535354E+00  0.0000000E+00  0.1515152E-01 -0.1811653E-12  0.0000000E+00 -0.4722111E-04
  0.8636364E+00  0.0000000E+00  0.1515152E-01 -0.4524528E-14  0.0000000E+00 -0.4722111E-04
  0.8737374E+00  0.0000000E+00  0.1515152E-01  0.7511787E-13  0.0000000E+00 -0.4722111E-04
  0.8838384E+00  0.0000000E+00  0.1515152E-01  0.2325999E-12  0.0000000E+00 -0.4722111E-04
  0.8939394E+00  0.0000000E+00  0.1515152E-01  0.4704000E-12  0.0000000E+00 -0.4722111E-04
  0.9040404E+00  0.0000000E+00  0.1515152E-01  0.5421998E-12  0.0000000E+00 -0.4722111E-04
  0.9141414E+00  0.0000000E+00  0.1515152E-01  0.5480212E-12  0.0000000E+00 -0.4722111E-04
  0.9242424E+00  0.0000000E+00  0.1515152E-01  0.6959422E-12  0.0000000E+00 -0.4722111E-04
  0.9343435E+00  0.0000000E+00  0.1515152E-01  0.6882432E-12  0.0000000E+00 -0.4722111E-04
  0.9444444E+00  0.0000000E+00  0.1515152E-01  0.5335988E-12  0.0000000E+00 -0.4722111E-04
  0.9545454E+00  0.0000000E+00  0.1515152E-01  0.5520846E-12  0.0000000E+00 -0.4722111E-04
  0.9646465E+00  0.0000000E+00  0.1515152E-01  0.5667038E-12  0.0000000E+00 -0.4722111E-04
  0.9747475E+00  0.0000000E+00  0.1515152E-01  0.4610060E-12  0.0000000E+00 -0.4722111E-04
  0.9848485E+00  0.0000000E+00  0.1515152E-01  0.3826120E-12  0.0000000E+00 -0.4722111E-04
  0.9974747E+00  0.0000000E+00  0.1515152E-01  0.3253910E-12  0.0000000E+00 -0.4722111E-04
  0.5050505E-02  0.0000000E+00  0.2525252E-01  0.1430896E-12  0.0000000E+00 -0.4683427E-04
  0.1515152E-01  0.0000000E+00  0.2525252E-01 -0.1263850E-12  0.0000000E+00 -0.4683427E-04
  0.2525252E-01  0.0000000E+00  0.2525252E-01 -0.5779942E-12  0.0000000E+00 -0.4683427E-04
  0.3535353E-01  0.0000000E+00  0.2525252E-01 -0.7840388E-12  0.0000000E+00 -0.4683427E-04
  0.4545455E-01  0.0000000E+00  0.2525252E-01 -0.1088822E-11  0.0000000E+00 -0.4683427E-04
  0.5555556E-01  0.0000000E+00  0.2525252E-01 -0.1323189E-11  0.0000000E+00 -0.4683427E-04
  0.6565657E-01  0.0000000E+00  0.2525252E-01 -0.1521672E-11  0.0000000E+00 -0.4683427E-04
  0.7575758E-01  0.0000000E+00  0.2525252E-01 -0.1682807E-11  0.0000000E+00 -0.4683427E-04
  0.8585858E-01  0.0000000E+00  0.2525252E-01 -0.1720104E-11  0.0000000E+00 -0.4683427E-04
  0.9595960E-01  0.0000000E+00  0.2525252E-01 -0.1743602E-11  0.0000000E+00 -0.4683427E-04
  0.1060606E+00  0.0000000E+00  0.2525252E-01 -0.1719054E-11  0.0000000E+00 -0.4683427E-04
  0.1161616E+00  0.0000000E+00  0.2525252E-01 -0.1661906E-11  0.0000000E+00 -0.4683427E-04
  0.1262626E+00  0.0000000E+00  0.2525252E-01 -0.1569251E-11  0.0000000E+00 -0.4683427E-04
  0.1363636E+00  0.0000000E+00  0.2525252E-01 -0.1418741E-11  0.0000000E+00 -0.4683428E-04
  0.1464646E+00  0.0000000E+00  0.2525252E-01 -0.1236732E-11  0.0000000E+00 -0.4683428E-04
  0.1565657E+00  0.0000000E+00  0.2525252E-01 -0.1016003E-11  0.0000000E+00 -0.4683428E-04
  0.1666667E+00  0.0000000E+00  0.2525252E-01 -0.7521316E-12  0.0000000E+00 -0.4683428E-04
  0.1767677E+00  0.0000000E+00  0.2525252E-01 -0.4652739E-12  0.0000000E+00 -0.4683428E-04
  0.1868687E+00  0.0000000E+00  0.2525252E-01 -0.2034030E-12  0.0000000E+00 -0.4683428E-04
  0.1969697E+00  0.0000000E+00  0.2525252E-01  0.5502646E-13  0.0000000E+00 -0.4683428E-04
  0.2070707E+00  0.0000000E+00  0.2525252E-01  0.3594911E-12  0.0000000E+00 -0.4683428E-04
  0.2171717E+00  0.0000000E+00  0.2525252E-01  0.7259995E-12  0.0000000E+00 -0.4683428E-04
  0.2272727E+00  0.0000000E+00  0.2525252E-01  0.1038554E-11  0.0000000E+00 -0.4683428E-04
  0.2373737E+00  0.0000000E+00  0.2525252E-01  0.1064427E-11  0.0000000E+00 -0.4683428E-04
  0.2474747E+00  0.0000000E+00  0.2525252E-01  0.1259412E-11  0.0000000E+00 -0.4683428E-04
  0.2575758E+00  0.0000000E+00  0.2525252E-01  0.1495420E-11  0.0000000E+00 -0.4683427E-04
  0.2676768E+00  0.0000000E+00  0.2525252E-01  0.1578543E-11  0.0000000E+00 -0.4683427E-04
  0.2777778E+00  0.0000000E+00  0.2525252E-01  0.1655141E-11  0.0000000E+00 -0.4683427E-04
  0.2878788E+00  0.0000000E+00  0.2525252E-01  0.1708885E-11  0.0000000E+00 -0.4683427E-04
  0.2979798E+00  0.0000000E+00  0.2525252E-01  0.1569903E-11  0.0000000E+00 -0.4683427E-04
  0.3080808E+00  0.0000000E+00  0.2525252E-01  0.1438092E-11  0.0000000E+00 -0.4683427E-04
  0.3181818E+00  0.0000000E+00  0.2525252E-01  0.1372506E-11  0.0000000E+00 -0.4683427E-04
  0.3282828E+00  0.0000000E+00  0.2525252E-01  0.1266629E-11  0.0000000E+00 -0.4683427E-04
  0.3383838E+00  0.0000000E+00  0.2525252E-01  0.1123203E-11  0.0000000E+00 -0.4683427E-04
  0.3484848E+00  0.0000000E+00  0.2525252E-01  0.9434537E-12  0.0000000E+00 -0.4683427E-04
  0.3585859E+00  0.0000000E+00  0.2525252E-01  0.6351288E-12  0.0000000E+00 -0.4683427E-04
  0.3686869E+00  0.0000000E+00  0.2525252E-01  0.2059974E-12  0.0000000E+00 -0.4683427E-04
  0.3787879E+00  0.0000000E+00  0.2525252E-01  0.8655836E-13  0.0000000E+00 -0.4683427E-04
  0.3888889E+00  0.0000000E+00  0.2525252E-01  0.1043961E-12  0.0000000E+00 -0.4683427E-04
  0.3989899E+00  0.0000000E+00  0.2525252E-01 -0.6694304E-13  0.0000000E+00 -0.4683427E-04
  0.4090909E+00  0.0000000E+00  0.2525252E-01 -0.5765295E-12  0.0000000E+00 -0.4683427E-04
  0.4191919E+00  0.0000000E+00  0.2525252E-01 -0.8636654E-12  0.0000000E+00 -0.4683427E-04
  0.4292929E+00  0.0000000E+00  0.2525252E-01 -0.4502758E-12  0.0000000E+00 -0.4683427E-04
  0.4393939E+00  0.0000000E+00  0.2525252E-01 -0.3224841E-12  0.0000000E+00 -0.4683427E-04
  0.4494950E+00  0.0000000E+00  0.2525252E-01 -0.6106057E-12  0.0000000E+00 -0.4683427E-04
  0.4595959E+00  0.0000000E+00  0.2525252E-01 -0.6457712E-12  0.0000000E+00 -0.4683427E-04
  0.4696970E+00  0.0000000E+00  0.2525252E-01 -0.2027565E-12  0.0000000E+00 -0.4683427E-04
  0.4797980E+00  0.0000000E+00  0.2525252E-01  0.1061021E-12  0.0000000E+00 -0.4683427E-04
  0.4898990E+00  0.0000000E+00  0.2525252E-01  0.1719234E-12  0.0000000E+00 -0.4683427E-04
  0.5000000E+00  0.0000000E+00  0.2525252E-01  0.2843630E-12  0.0000000E+00 -0.4683427E-04
  0.5101010E+00  0.0000000E+00  0.2525252E-01  0.5281132E-12  0.0000000E+00 -0.4683427E-04
  0.5202020E+00  0.0000000E+00  0.2525252E-01  0.6879740E-12  0.0000000E+00 -0.4683427E-04
  0.5303030E+00  0.0000000E+00  0.2525252E-01  0.9435321E-12  0.0000000E+00 -0.4683427E-04
  0.5404040E+00  0.0000000E+00  0.2525252E-01  0.1133223E-11  0.0000000E+00 -0.4683427E-04
  0.5505050E+00  0.0000000E+00  0.2525252E-01  0.1145791E-11  0.0000000E+00 -0.4683427E-04
  0.5606061E+00  0.0000000E+00  0.2525252E-01  0.1211719E-11  0.0000000E+00 -0.4683427E-04
  0.5707071E+00  0.0000000E+00  0.2525252E-01  0.1230039E-11  0.0000000E+00 -0.4683427E-04
  0.5808081E+00  0.0000000E+00  0.2525252E-01  0.1258393E-11  0.0000000E+00 -0.4683427E-04
  0.5909091E+00  0.0000000E+00  0.2525252E-01  0.1166014E-11  0.0000000E+00 -0.4683427E-04
  0.6010101E+00  0.0000000E+00  0.2525252E-01  0.1019556E-11  0.0000000E+00 -0.4683427E-04
  0.6111111E+00  0.0000000E+00  0.2525252E-01  0.9208602E-12  0.0000000E+00 -0.4683427E-04
  0.6212121E+00  0.0000000E+00  0.2525252E-01  0.7468219E-12  0.0000000E+00 -0.4683427E-04
  0.6313131E+00  0.0000000E+00  0.2525252E-01  0.4756168E-12  0.0000000E+00 -0.4683427E-04
  0.6414142E+00  0.0000000E+00  0.2525252E-01  0.2502937E-12  0.0000000E+00 -0.4683426E-04
  0.6515151E+00  0.0000000E+00  0.2525252E-01  0.1047955E-12  0.0000000E+00 -0.4683427E-04
  0.6616161E+00  0.0000000E+00  0.2525252E-01 -0.1634210E-12  0.0000000E+00 -0.4683427E-04
  0.6717172E+00  0.0000000E+00  0.2525252E-01 -0.5526872E-12  0.0000000E+00 -0.4683427E-04
  0.6818182E+00  0.0000000E+00  0.2525252E-01 -0.9606423E-12  0.0000000E+00 -0.4683427E-04
  0.6919192E+00  0.0000000E+00  0.2525252E-01 -0.1040522E-11  0.0000000E+00 -0.4683427E-04
  0.7020202E+00  0.0000000E+00  0.2525252E-01 -0.1162241E-11  0.0000000E+00 -0.4683427E-04
  0.7121212E+00  0.0000000E+00  0.2525252E-01 -0.1360794E-11  0.0000000E+00 -0.4683427E-04
  0.7222222E+00  0.0000000E+00  0.2525252E-01 -0.1699188E-11  0.0000000E+00 -0.4683427E-04
  0.7323232E+00  0.0000000E+00  0.2525252E-01 -0.1832255E-11  0.0000000E+00 -0.4683427E-04
  0.7424242E+00  0.0000000E+00  0.2525252E-01 -0.1657184E-11  0.0000000E+00 -0.4683427E-04
  0.7525253E+00  0.0000000E+00  0.2525252E-01 -0.1661071E-11  0.0000000E+00 -0.4683427E-04
  0.7626263E+00  0.0000000E+00  0.2525252E-01 -0.1847222E-11  0.0000000E+00 -0.4683427E-04
  0.7727273E+00  0.0000000E+00  0.2525252E-01 -0.1864167E-11  0.0000000E+00 -0.4683427E-04
  0.7828283E+00  0.0000000E+00  0.2525252E-01 -0.1614841E-11  0.0000000E+00 -0.4683427E-04
  0.7929293E+00  0.0000000E+00  0.2525252E-01 -0.1464938E-11  0.0000000E+00 -0.4683427E-04
  0.8030303E+00  0.0000000E+00  0.2525252E-01 -0.1452471E-11  0.0000000E+00 -0.4683427E-04
  0.8131313E+00  0.0000000E+00  0.2525252E-01 -0.1316010E-11  0.0000000E+00 -0.4683427E-04
  0.8232324E+00  0.0000000E+00  0.2525252E-01 -0.1041895E-11  0.0000000E+00 -0.4683427E-04
  0.8333333E+00  0.0000000E+00  0.2525252E-01 -0.8125294E-12  0.0000000E+00 -0.4683427E-04
  0.8434343E+00  0.0000000E+00  0.2525252E-01 -0.6219654E-12  0.0000000E+00 -0.4683427E-04
  0.8535354E+00  0.0000000E+00  0.2525252E-01 -0.2682851E-12  0.0000000E+00 -0.4683427E-04
  0.8636364E+00  0.0000000E+00  0.2525252E-01  0.6116896E-13  0.0000000E+00 -0.4683427E-04
  0.8737374E+00  0.0000000E+00  0.2525252E-01  0.1539211E-12  0.0000000E+00 -0.4683427E-04
  0.8838384E+00  0.0000000E+00  0.2525252E-01  0.2584808E-12  0.0000000E+00 -0.4683427E-04
  0.8939394E+00  0.0000000E+00  0.2525252E-01  0.7128784E-12  0.0000000E+00 -0.4683427E-04
  0.9040404E+00  0.0000000E+00  0.2525252E-01  0.9686787E-12  0.0000000E+00 -0.4683427E-04
  0.9141414E+00  0.0000000E+00  0.2525252E-01  0.9068531E-12  0.0000000E+00 -0.4683427E-04
  0.9242424E+00  0.0000000E+00  0.2525252E-01  0.1069078E-11  0.0000000E+00 -0.4683427E-04
  0.9343435E+00  0.0000000E+00  0.2525252E-01  0.1206788E-11  0.0000000E+00 -0.4683427E-04
  0.9444444E+00  0.0000000E+00  0.2525252E-01  0.9719392E-12  0.0000000E+00 -0.4683427E-04
  0.9545454E+00  0.0000000E+00  0.2525252E-01  0.8346582E-12  0.0000000E+00 -0.4683427E-04
  0.9646465E+00  0.0000000E+00  0.2525252E-01  0.8533253E-12  0.0000000E+00 -0.4683427E-04
  0.9747475E+00  0.0000000E+00  0.2525252E-01  0.7528898E-12  0.0000000E+00 -0.4683427E-04
  0.9848485E+00  0.0000000E+00  0.2525252E-01  0.6109931E-12  0.0000000E+00 -0.4683427E-04
  0.9974747E+00  0.0000000E+00  0.2525252E-01  0.4099664E-12  0.0000000E+00 -0.4683427E-04
  0.5050505E-02  0.0000000E+00  0.3535353E-01  0.9826643E-13  0.0000000E+00 -0.4625957E-04
  0.1515152E-01  0.0000000E+00  0.3535353E-01 -0.2976756E-12  0.0000000E+00 -0.4625957E-04
  0.2525252E-01  0.0000000E+00  0.3535353E-01 -0.8205703E-12  0.0000000E+00 -0.4625957E-04
  0.3535353E-01  0.0000000E+00  0.3535353E-01 -0.1038583E-11  0.0000000E+00 -0.4625957E-04
  0.4545455E-01  0.0000000E+00  0.3535353E-01 -0.1525718E-11  0.0000000E+00 -0.4625957E-04
  0.5555556E-01  0.0000000E+00  0.3535353E-01 -0.1869285E-11  0.0000000E+00 -0.4625957E-04
  0.6565657E-01  0.0000000E+00  0.3535353E-01 -0.2100656E-11  0.0000000E+00 -0.4625957E-04
  0.7575758E-01  0.0000000E+00  0.3535353E-01 -0.2325556E-11  0.0000000E+00 -0.4625957E-04
  0.8585858E-01  0.0000000E+00  0.3535353E-01 -0.2408534E-11  0.0000000E+00 -0.4625957E-04
  0.9595960E-01  0.0000000E+00  0.3535353E-01 -0.2442329E-11  0.0000000E+00 -0.4625957E-04
  0.1060606E+00  0.0000000E+00  0.3535353E-01 -0.2406298E-11  0.0000000E+00 -0.4625958E-04
  0.1161616E+00  0.0000000E+00  0.3535353E-01 -0.2317434E-11  0.0000000E+00 -0.4625958E-04
  0.1262626E+00  0.0000000E+00  0.3535353E-01 -0.2181100E-11  0.0000000E+00 -0.4625958E-04
  0.1363636E+00  0.0000000E+00  0.3535353E-01 -0.1967991E-11  0.0000000E+00 -0.4625958E-04
  0.1464646E+00  0.0000000E+00  0.3535353E-01 -0.1701902E-11  0.0000000E+00 -0.4625958E-04
  0.1565657E+00  0.0000000E+00  0.3535353E-01 -0.1386745E-11  0.0000000E+00 -0.4625958E-04
  0.1666667E+00  0.0000000E+00  0.3535353E-01 -0.1021576E-11  0.0000000E+00 -0.4625958E-04
  0.1767677E+00  0.0000000E+00  0.3535353E-01 -0.6022746E-12  0.0000000E+00 -0.4625958E-04
  0.1868687E+00  0.0000000E+00  0.3535353E-01 -0.1896313E-12  0.0000000E+00 -0.4625958E-04
  0.1969697E+00  0.0000000E+00  0.3535353E-01  0.1227998E-12  0.0000000E+00 -0.4625958E-04
  0.2070707E+00  0.0000000E+00  0.3535353E-01  0.3694659E-12  0.0000000E+00 -0.4625958E-04
  0.2171717E+00  0.0000000E+00  0.3535353E-01  0.9988452E-12  0.0000000E+00 -0.4625958E-04
  0.2272727E+00  0.0000000E+00  0.3535353E-01  0.1527104E-11  0.0000000E+00 -0.4625958E-04
  0.2373737E+00  0.0000000E+00  0.3535353E-01  0.1496132E-11  0.0000000E+00 -0.4625958E-04
  0.2474747E+00  0.0000000E+00  0.3535353E-01  0.1764312E-11  0.0000000E+00 -0.4625958E-04
  0.2575758E+00  0.0000000E+00  0.3535353E-01  0.2083276E-11  0.0000000E+00 -0.4625958E-04
  0.2676768E+00  0.0000000E+00  0.3535353E-01  0.2196138E-11  0.0000000E+00 -0.4625958E-04
  0.2777778E+00  0.0000000E+00  0.3535353E-01  0.2252091E-11  0.0000000E+00 -0.4625958E-04
  0.2878788E+00  0.0000000E+00  0.3535353E-01  0.2398746E-11  0.0000000E+00 -0.4625957E-04
  0.2979798E+00  0.0000000E+00  0.3535353E-01  0.2318730E-11  0.0000000E+00 -0.4625957E-04