title = "dataset water"
variables = "x", "y", "z", "vx", "vy", "vz"
zone t = "velocities, solution time =  4.700E+01 days        " i =   99, j =   99, k =    1,  f=point
  0.5050505E-02  0.0000000E+00  0.5050505E-02  0.2360795E-08  0.0000000E+00  0.3374710E-05
  0.1515152E-01  0.0000000E+00  0.5050505E-02  0.7061155E-08  0.0000000E+00  0.3384164E-05
  0.2525252E-01  0.0000000E+00  0.5050505E-02  0.1169794E-07  0.0000000E+00  0.3402986E-05
  0.3535353E-01  0.0000000E+00  0.5050505E-02  0.1622926E-07  0.0000000E+00  0.3431006E-05
  0.4545455E-01  0.0000000E+00  0.5050505E-02  0.2061396E-07  0.0000000E+00  0.3467972E-05
  0.5555556E-01  0.0000000E+00  0.5050505E-02  0.2481196E-07  0.0000000E+00  0.3513550E-05
  0.6565657E-01  0.0000000E+00  0.5050505E-02  0.2878470E-07  0.0000000E+00  0.3567327E-05
  0.7575758E-01  0.0000000E+00  0.5050505E-02  0.3249550E-07  0.0000000E+00  0.3628813E-05
  0.8585858E-01  0.0000000E+00  0.5050505E-02  0.3591014E-07  0.0000000E+00  0.3697449E-05
  0.9595960E-01  0.0000000E+00  0.5050505E-02  0.3899736E-07  0.0000000E+00  0.3772609E-05
  0.1060606E+00  0.0000000E+00  0.5050505E-02  0.4172942E-07  0.0000000E+00  0.3853609E-05
  0.1161616E+00  0.0000000E+00  0.5050505E-02  0.4408273E-07  0.0000000E+00  0.3939712E-05
  0.1262626E+00  0.0000000E+00  0.5050505E-02  0.4603841E-07  0.0000000E+00  0.4030140E-05
  0.1363636E+00  0.0000000E+00  0.5050505E-02  0.4758276E-07  0.0000000E+00  0.4124081E-05
  0.1464646E+00  0.0000000E+00  0.5050505E-02  0.4870774E-07  0.0000000E+00  0.4220702E-05
  0.1565657E+00  0.0000000E+00  0.5050505E-02  0.4941123E-07  0.0000000E+00  0.4319158E-05
  0.1666667E+00  0.0000000E+00  0.5050505E-02  0.4969715E-07  0.0000000E+00  0.4418609E-05
  0.1767677E+00  0.0000000E+00  0.5050505E-02  0.4957540E-07  0.0000000E+00  0.4518225E-05
  0.1868687E+00  0.0000000E+00  0.5050505E-02  0.4906155E-07  0.0000000E+00  0.4617205E-05
  0.1969697E+00  0.0000000E+00  0.5050505E-02  0.4817639E-07  0.0000000E+00  0.4714782E-05
  0.2070707E+00  0.0000000E+00  0.5050505E-02  0.4694522E-07  0.0000000E+00  0.4810236E-05
  0.2171717E+00  0.0000000E+00  0.5050505E-02  0.4539702E-07  0.0000000E+00  0.4902903E-05
  0.2272727E+00  0.0000000E+00  0.5050505E-02  0.4356354E-07  0.0000000E+00  0.4992177E-05
  0.2373737E+00  0.0000000E+00  0.5050505E-02  0.4147829E-07  0.0000000E+00  0.5077519E-05
  0.2474747E+00  0.0000000E+00  0.5050505E-02  0.3917554E-07  0.0000000E+00  0.5158459E-05
  0.2575758E+00  0.0000000E+00  0.5050505E-02  0.3668945E-07  0.0000000E+00  0.5234593E-05
  0.2676768E+00  0.0000000E+00  0.5050505E-02  0.3405315E-07  0.0000000E+00  0.5305588E-05
  0.2777778E+00  0.0000000E+00  0.5050505E-02  0.3129813E-07  0.0000000E+00  0.5371173E-05
  0.2878788E+00  0.0000000E+00  0.5050505E-02  0.2845356E-07  0.0000000E+00  0.5431139E-05
  0.2979798E+00  0.0000000E+00  0.5050505E-02  0.2554593E-07  0.0000000E+00  0.5485332E-05
  0.3080808E+00  0.0000000E+00  0.5050505E-02  0.2259867E-07  0.0000000E+00  0.5533649E-05
  0.3181818E+00  0.0000000E+00  0.5050505E-02  0.1963199E-07  0.0000000E+00  0.5576032E-05
  0.3282828E+00  0.0000000E+00  0.5050505E-02  0.1666271E-07  0.0000000E+00  0.5612458E-05
  0.3383838E+00  0.0000000E+00  0.5050505E-02  0.1370425E-07  0.0000000E+00  0.5642934E-05
  0.3484848E+00  0.0000000E+00  0.5050505E-02  0.1076661E-07  0.0000000E+00  0.5667494E-05
  0.3585859E+00  0.0000000E+00  0.5050505E-02  0.7856436E-08  0.0000000E+00  0.5686184E-05
  0.3686869E+00  0.0000000E+00  0.5050505E-02  0.4977086E-08  0.0000000E+00  0.5699064E-05
  0.3787879E+00  0.0000000E+00  0.5050505E-02  0.2128765E-08  0.0000000E+00  0.5706195E-05
  0.3888889E+00  0.0000000E+00  0.5050505E-02 -0.6913343E-09  0.0000000E+00  0.5707638E-05
  0.3989899E+00  0.0000000E+00  0.5050505E-02 -0.3488827E-08  0.0000000E+00  0.5703443E-05
  0.4090909E+00  0.0000000E+00  0.5050505E-02 -0.6271896E-08  0.0000000E+00  0.5693647E-05
  0.4191919E+00  0.0000000E+00  0.5050505E-02 -0.9050983E-08  0.0000000E+00  0.5678268E-05
  0.4292929E+00  0.0000000E+00  0.5050505E-02 -0.1183840E-07  0.0000000E+00  0.5657304E-05
  0.4393939E+00  0.0000000E+00  0.5050505E-02 -0.1464783E-07  0.0000000E+00  0.5630722E-05
  0.4494950E+00  0.0000000E+00  0.5050505E-02 -0.1749380E-07  0.0000000E+00  0.5598464E-05
  0.4595959E+00  0.0000000E+00  0.5050505E-02 -0.2039093E-07  0.0000000E+00  0.5560443E-05
  0.4696970E+00  0.0000000E+00  0.5050505E-02 -0.2335320E-07  0.0000000E+00  0.5516541E-05
  0.4797980E+00  0.0000000E+00  0.5050505E-02 -0.2639300E-07  0.0000000E+00  0.5466616E-05
  0.4898990E+00  0.0000000E+00  0.5050505E-02 -0.2952022E-07  0.0000000E+00  0.5410503E-05
  0.5000000E+00  0.0000000E+00  0.5050505E-02 -0.3274120E-07  0.0000000E+00  0.5348019E-05
  0.5101010E+00  0.0000000E+00  0.5050505E-02 -0.3605775E-07  0.0000000E+00  0.5278974E-05
  0.5202020E+00  0.0000000E+00  0.5050505E-02 -0.3946627E-07  0.0000000E+00  0.5203181E-05
  0.5303030E+00  0.0000000E+00  0.5050505E-02 -0.4295698E-07  0.0000000E+00  0.5120465E-05
  0.5404040E+00  0.0000000E+00  0.5050505E-02 -0.4651351E-07  0.0000000E+00  0.5030678E-05
  0.5505050E+00  0.0000000E+00  0.5050505E-02 -0.5011270E-07  0.0000000E+00  0.4933711E-05
  0.5606061E+00  0.0000000E+00  0.5050505E-02 -0.5372496E-07  0.0000000E+00  0.4829509E-05
  0.5707071E+00  0.0000000E+00  0.5050505E-02 -0.5731498E-07  0.0000000E+00  0.4718080E-05
  0.5808081E+00  0.0000000E+00  0.5050505E-02 -0.6084293E-07  0.0000000E+00  0.4599511E-05
  0.5909091E+00  0.0000000E+00  0.5050505E-02 -0.6426598E-07  0.0000000E+00  0.4473967E-05
  0.6010101E+00  0.0000000E+00  0.5050505E-02 -0.6754014E-07  0.0000000E+00  0.4341706E-05
  0.6111111E+00  0.0000000E+00  0.5050505E-02 -0.7062217E-07  0.0000000E+00  0.4203069E-05
  0.6212121E+00  0.0000000E+00  0.5050505E-02 -0.7347144E-07  0.0000000E+00  0.4058483E-05
  0.6313131E+00  0.0000000E+00  0.5050505E-02 -0.7605153E-07  0.0000000E+00  0.3908451E-05
  0.6414142E+00  0.0000000E+00  0.5050505E-02 -0.7833159E-07  0.0000000E+00  0.3753546E-05
  0.6515151E+00  0.0000000E+00  0.5050505E-02 -0.8028713E-07  0.0000000E+00  0.3594394E-05
  0.6616161E+00  0.0000000E+00  0.5050505E-02 -0.8190044E-07  0.0000000E+00  0.3431664E-05
  0.6717172E+00  0.0000000E+00  0.5050505E-02 -0.8316058E-07  0.0000000E+00  0.3266055E-05
  0.6818182E+00  0.0000000E+00  0.5050505E-02 -0.8406300E-07  0.0000000E+00  0.3098280E-05
  0.6919192E+00  0.0000000E+00  0.5050505E-02 -0.8460883E-07  0.0000000E+00  0.2929054E-05
  0.7020202E+00  0.0000000E+00  0.5050505E-02 -0.8480409E-07  0.0000000E+00  0.2759089E-05
  0.7121212E+00  0.0000000E+00  0.5050505E-02 -0.8465878E-07  0.0000000E+00  0.2589078E-05
  0.7222222E+00  0.0000000E+00  0.5050505E-02 -0.8418591E-07  0.0000000E+00  0.2419690E-05
  0.7323232E+00  0.0000000E+00  0.5050505E-02 -0.8340070E-07  0.0000000E+00  0.2251567E-05
  0.7424242E+00  0.0000000E+00  0.5050505E-02 -0.8231980E-07  0.0000000E+00  0.2085320E-05
  0.7525253E+00  0.0000000E+00  0.5050505E-02 -0.8096060E-07  0.0000000E+00  0.1921524E-05
  0.7626263E+00  0.0000000E+00  0.5050505E-02 -0.7934077E-07  0.0000000E+00  0.1760720E-05
  0.7727273E+00  0.0000000E+00  0.5050505E-02 -0.7747776E-07  0.0000000E+00  0.1603413E-05
  0.7828283E+00  0.0000000E+00  0.5050505E-02 -0.7538839E-07  0.0000000E+00  0.1450073E-05
  0.7929293E+00  0.0000000E+00  0.5050505E-02 -0.7308897E-07  0.0000000E+00  0.1301138E-05
  0.8030303E+00  0.0000000E+00  0.5050505E-02 -0.7059535E-07  0.0000000E+00  0.1157014E-05
  0.8131313E+00  0.0000000E+00  0.5050505E-02 -0.6792255E-07  0.0000000E+00  0.1018074E-05
  0.8232324E+00  0.0000000E+00  0.5050505E-02 -0.6508475E-07  0.0000000E+00  0.8846637E-06
  0.8333333E+00  0.0000000E+00  0.5050505E-02 -0.6209531E-07  0.0000000E+00  0.7571004E-06
  0.8434343E+00  0.0000000E+00  0.5050505E-02 -0.5896682E-07  0.0000000E+00  0.6356752E-06
  0.8535354E+00  0.0000000E+00  0.5050505E-02 -0.5571114E-07  0.0000000E+00  0.5206549E-06
  0.8636364E+00  0.0000000E+00  0.5050505E-02 -0.5233951E-07  0.0000000E+00  0.4122832E-06
  0.8737374E+00  0.0000000E+00  0.5050505E-02 -0.4886260E-07  0.0000000E+00  0.3107817E-06
  0.8838384E+00  0.0000000E+00  0.5050505E-02 -0.4529073E-07  0.0000000E+00  0.2163508E-06
  0.8939394E+00  0.0000000E+00  0.5050505E-02 -0.4163406E-07  0.0000000E+00  0.1291708E-06
  0.9040404E+00  0.0000000E+00  0.5050505E-02 -0.3790304E-07  0.0000000E+00  0.4940089E-07
  0.9141414E+00  0.0000000E+00  0.5050505E-02 -0.3410915E-07  0.0000000E+00 -0.2273859E-07
  0.9242424E+00  0.0000000E+00  0.5050505E-02 -0.3023403E-07  0.0000000E+00 -0.8709853E-07
  0.9343435E+00  0.0000000E+00  0.5050505E-02 -0.2630705E-07  0.0000000E+00 -0.1436402E-06
  0.9444444E+00  0.0000000E+00  0.5050505E-02 -0.2233508E-07  0.0000000E+00 -0.1922832E-06
  0.9545454E+00  0.0000000E+00  0.5050505E-02 -0.1832521E-07  0.0000000E+00 -0.2329444E-06
  0.9646465E+00  0.0000000E+00  0.5050505E-02 -0.1428461E-07  0.0000000E+00 -0.2655552E-06
  0.9747475E+00  0.0000000E+00  0.5050505E-02 -0.1022021E-07  0.0000000E+00 -0.2900608E-06
  0.9848485E+00  0.0000000E+00  0.5050505E-02 -0.6138874E-08  0.0000000E+00 -0.3064204E-06
  0.9974747E+00  0.0000000E+00  0.5050505E-02 -0.2047415E-08  0.0000000E+00 -0.3146070E-06
  0.5050505E-02  0.0000000E+00  0.1515152E-01  0.7108636E-08  0.0000000E+00  0.3415809E-05
  0.1515152E-01  0.0000000E+00  0.1515152E-01  0.2126200E-07  0.0000000E+00  0.3425395E-05
  0.2525252E-01  0.0000000E+00  0.1515152E-01  0.3522400E-07  0.0000000E+00  0.3444481E-05
  0.3535353E-01  0.0000000E+00  0.1515152E-01  0.4886848E-07  0.0000000E+00  0.3472895E-05
  0.4545455E-01  0.0000000E+00  0.1515152E-01  0.6207147E-07  0.0000000E+00  0.3510381E-05
  0.5555556E-01  0.0000000E+00  0.1515152E-01  0.7471226E-07  0.0000000E+00  0.3556599E-05
  0.6565657E-01  0.0000000E+00  0.1515152E-01  0.8667451E-07  0.0000000E+00  0.3611130E-05
  0.7575758E-01  0.0000000E+00  0.1515152E-01  0.9784764E-07  0.0000000E+00  0.3673478E-05
  0.8585858E-01  0.0000000E+00  0.1515152E-01  0.1081283E-06  0.0000000E+00  0.3743075E-05
  0.9595960E-01  0.0000000E+00  0.1515152E-01  0.1174220E-06  0.0000000E+00  0.3819284E-05
  0.1060606E+00  0.0000000E+00  0.1515152E-01  0.1256449E-06  0.0000000E+00  0.3901409E-05
  0.1161616E+00  0.0000000E+00  0.1515152E-01  0.1327255E-06  0.0000000E+00  0.3988699E-05
  0.1262626E+00  0.0000000E+00  0.1515152E-01  0.1386068E-06  0.0000000E+00  0.4080361E-05
  0.1363636E+00  0.0000000E+00  0.1515152E-01  0.1432471E-06  0.0000000E+00  0.4175569E-05
  0.1464646E+00  0.0000000E+00  0.1515152E-01  0.1466222E-06  0.0000000E+00  0.4273471E-05
  0.1565657E+00  0.0000000E+00  0.1515152E-01  0.1487255E-06  0.0000000E+00  0.4373207E-05
  0.1666667E+00  0.0000000E+00  0.1515152E-01  0.1495689E-06  0.0000000E+00  0.4473918E-05
  0.1767677E+00  0.0000000E+00  0.1515152E-01  0.1491826E-06  0.0000000E+00  0.4574761E-05
  0.1868687E+00  0.0000000E+00  0.1515152E-01  0.1476139E-06  0.0000000E+00  0.4674917E-05
  0.1969697E+00  0.0000000E+00  0.1515152E-01  0.1449260E-06  0.0000000E+00  0.4773606E-05
  0.2070707E+00  0.0000000E+00  0.1515152E-01  0.1411958E-06  0.0000000E+00  0.4870097E-05
  0.2171717E+00  0.0000000E+00  0.1515152E-01  0.1365114E-06  0.0000000E+00  0.4963715E-05
  0.2272727E+00  0.0000000E+00  0.1515152E-01  0.1309691E-06  0.0000000E+00  0.5053849E-05
  0.2373737E+00  0.0000000E+00  0.1515152E-01  0.1246707E-06  0.0000000E+00  0.5139955E-05
  0.2474747E+00  0.0000000E+00  0.1515152E-01  0.1177201E-06  0.0000000E+00  0.5221561E-05
  0.2575758E+00  0.0000000E+00  0.1515152E-01  0.1102207E-06  0.0000000E+00  0.5298264E-05
  0.2676768E+00  0.0000000E+00  0.1515152E-01  0.1022728E-06  0.0000000E+00  0.5369731E-05
  0.2777778E+00  0.0000000E+00  0.1515152E-01  0.9397155E-07  0.0000000E+00  0.5435698E-05
  0.2878788E+00  0.0000000E+00  0.1515152E-01  0.8540503E-07  0.0000000E+00  0.5495960E-05
  0.2979798E+00  0.0000000E+00  0.1515152E-01  0.7665306E-07  0.0000000E+00  0.5550370E-05
  0.3080808E+00  0.0000000E+00  0.1515152E-01  0.6778624E-07  0.0000000E+00  0.5598834E-05
  0.3181818E+00  0.0000000E+00  0.1515152E-01  0.5886530E-07  0.0000000E+00  0.5641299E-05
  0.3282828E+00  0.0000000E+00  0.1515152E-01  0.4994079E-07  0.0000000E+00  0.5677753E-05
  0.3383838E+00  0.0000000E+00  0.1515152E-01  0.4105292E-07  0.0000000E+00  0.5708210E-05
  0.3484848E+00  0.0000000E+00  0.1515152E-01  0.3223162E-07  0.0000000E+00  0.5732713E-05
  0.3585859E+00  0.0000000E+00  0.1515152E-01  0.2349669E-07  0.0000000E+00  0.5751316E-05
  0.3686869E+00  0.0000000E+00  0.1515152E-01  0.1485801E-07  0.0000000E+00  0.5764087E-05
  0.3787879E+00  0.0000000E+00  0.1515152E-01  0.6315956E-08  0.0000000E+00  0.5771095E-05
  0.3888889E+00  0.0000000E+00  0.1515152E-01 -0.2138188E-08  0.0000000E+00  0.5772407E-05
  0.3989899E+00  0.0000000E+00  0.1515152E-01 -0.1052164E-07  0.0000000E+00  0.5768080E-05
  0.4090909E+00  0.0000000E+00  0.1515152E-01 -0.1885939E-07  0.0000000E+00  0.5758156E-05
  0.4191919E+00  0.0000000E+00  0.1515152E-01 -0.2718329E-07  0.0000000E+00  0.5742659E-05
  0.4292929E+00  0.0000000E+00  0.1515152E-01 -0.3553090E-07  0.0000000E+00  0.5721587E-05
  0.4393939E+00  0.0000000E+00  0.1515152E-01 -0.4394405E-07  0.0000000E+00  0.5694911E-05
  0.4494950E+00  0.0000000E+00  0.1515152E-01 -0.5246711E-07  0.0000000E+00  0.5662573E-05
  0.4595959E+00  0.0000000E+00  0.1515152E-01 -0.6114495E-07  0.0000000E+00  0.5624484E-05
  0.4696970E+00  0.0000000E+00  0.1515152E-01 -0.7002051E-07  0.0000000E+00  0.5580522E-05
  0.4797980E+00  0.0000000E+00  0.1515152E-01 -0.7913212E-07  0.0000000E+00  0.5530538E-05
  0.4898990E+00  0.0000000E+00  0.1515152E-01 -0.8851055E-07  0.0000000E+00  0.5474358E-05
  0.5000000E+00  0.0000000E+00  0.1515152E-01 -0.9817593E-07  0.0000000E+00  0.5411791E-05
  0.5101010E+00  0.0000000E+00  0.1515152E-01 -0.1081347E-06  0.0000000E+00  0.5342632E-05
  0.5202020E+00  0.0000000E+00  0.1515152E-01 -0.1183767E-06  0.0000000E+00  0.5266680E-05
  0.5303030E+00  0.0000000E+00  0.1515152E-01 -0.1288732E-06  0.0000000E+00  0.5183744E-05
  0.5404040E+00  0.0000000E+00  0.1515152E-01 -0.1395751E-06  0.0000000E+00  0.5093659E-05
  0.5505050E+00  0.0000000E+00  0.1515152E-01 -0.1504124E-06  0.0000000E+00  0.4996302E-05
  0.5606061E+00  0.0000000E+00  0.1515152E-01 -0.1612956E-06  0.0000000E+00  0.4891601E-05
  0.5707071E+00  0.0000000E+00  0.1515152E-01 -0.1721172E-06  0.0000000E+00  0.4779555E-05
  0.5808081E+00  0.0000000E+00  0.1515152E-01 -0.1827561E-06  0.0000000E+00  0.4660241E-05
  0.5909091E+00  0.0000000E+00  0.1515152E-01 -0.1930815E-06  0.0000000E+00  0.4533821E-05
  0.6010101E+00  0.0000000E+00  0.1515152E-01 -0.2029594E-06  0.0000000E+00  0.4400552E-05
  0.6111111E+00  0.0000000E+00  0.1515152E-01 -0.2122579E-06  0.0000000E+00  0.4260781E-05
  0.6212121E+00  0.0000000E+00  0.1515152E-01 -0.2208532E-06  0.0000000E+00  0.4114943E-05
  0.6313131E+00  0.0000000E+00  0.1515152E-01 -0.2286344E-06  0.0000000E+00  0.3963555E-05
  0.6414142E+00  0.0000000E+00  0.1515152E-01 -0.2355081E-06  0.0000000E+00  0.3807205E-05
  0.6515151E+00  0.0000000E+00  0.1515152E-01 -0.2414001E-06  0.0000000E+00  0.3646537E-05
  0.6616161E+00  0.0000000E+00  0.1515152E-01 -0.2462572E-06  0.0000000E+00  0.3482239E-05
  0.6717172E+00  0.0000000E+00  0.1515152E-01 -0.2500471E-06  0.0000000E+00  0.3315026E-05
  0.6818182E+00  0.0000000E+00  0.1515152E-01 -0.2527565E-06  0.0000000E+00  0.3145628E-05
  0.6919192E+00  0.0000000E+00  0.1515152E-01 -0.2543899E-06  0.0000000E+00  0.2974779E-05
  0.7020202E+00  0.0000000E+00  0.1515152E-01 -0.2549663E-06  0.0000000E+00  0.2803202E-05
  0.7121212E+00  0.0000000E+00  0.1515152E-01 -0.2545165E-06  0.0000000E+00  0.2631601E-05
  0.7222222E+00  0.0000000E+00  0.1515152E-01 -0.2530807E-06  0.0000000E+00  0.2460657E-05
  0.7323232E+00  0.0000000E+00  0.1515152E-01 -0.2507053E-06  0.0000000E+00  0.2291019E-05
  0.7424242E+00  0.0000000E+00  0.1515152E-01 -0.2474410E-06  0.0000000E+00  0.2123304E-05
  0.7525253E+00  0.0000000E+00  0.1515152E-01 -0.2433407E-06  0.0000000E+00  0.1958091E-05
  0.7626263E+00  0.0000000E+00  0.1515152E-01 -0.2384579E-06  0.0000000E+00  0.1795925E-05
  0.7727273E+00  0.0000000E+00  0.1515152E-01 -0.2328454E-06  0.0000000E+00  0.1637312E-05
  0.7828283E+00  0.0000000E+00  0.1515152E-01 -0.2265541E-06  0.0000000E+00  0.1482725E-05
  0.7929293E+00  0.0000000E+00  0.1515152E-01 -0.2196329E-06  0.0000000E+00  0.1332603E-05
  0.8030303E+00  0.0000000E+00  0.1515152E-01 -0.2121296E-06  0.0000000E+00  0.1187350E-05
  0.8131313E+00  0.0000000E+00  0.1515152E-01 -0.2040893E-06  0.0000000E+00  0.1047341E-05
  0.8232324E+00  0.0000000E+00  0.1515152E-01 -0.1955546E-06  0.0000000E+00  0.9129207E-06
  0.8333333E+00  0.0000000E+00  0.1515152E-01 -0.1865655E-06  0.0000000E+00  0.7844065E-06
  0.8434343E+00  0.0000000E+00  0.1515152E-01 -0.1771599E-06  0.0000000E+00  0.6620893E-06
  0.8535354E+00  0.0000000E+00  0.1515152E-01 -0.1673732E-06  0.0000000E+00  0.5462354E-06
  0.8636364E+00  0.0000000E+00  0.1515152E-01 -0.1572392E-06  0.0000000E+00  0.4370880E-06
  0.8737374E+00  0.0000000E+00  0.1515152E-01 -0.1467896E-06  0.0000000E+00  0.3348687E-06
  0.8838384E+00  0.0000000E+00  0.1515152E-01 -0.1360553E-06  0.0000000E+00  0.2397782E-06
  0.8939394E+00  0.0000000E+00  0.1515152E-01 -0.1250664E-06  0.0000000E+00  0.1519971E-06
  0.9040404E+00  0.0000000E+00  0.1515152E-01 -0.1138534E-06  0.0000000E+00  0.7168653E-07
  0.9141414E+00  0.0000000E+00  0.1515152E-01 -0.1024505E-06  0.0000000E+00 -0.9618866E-09
  0.9242424E+00  0.0000000E+00  0.1515152E-01 -0.9081906E-07  0.0000000E+00 -0.6578042E-07
  0.9343435E+00  0.0000000E+00  0.1515152E-01 -0.7902246E-07  0.0000000E+00 -0.1227043E-06
  0.9444444E+00  0.0000000E+00  0.1515152E-01 -0.6709076E-07  0.0000000E+00 -0.1716752E-06
  0.9545454E+00  0.0000000E+00  0.1515152E-01 -0.5504527E-07  0.0000000E+00 -0.2126096E-06
  0.9646465E+00  0.0000000E+00  0.1515152E-01 -0.4290784E-07  0.0000000E+00 -0.2454387E-06
  0.9747475E+00  0.0000000E+00  0.1515152E-01 -0.3069915E-07  0.0000000E+00 -0.2701080E-06
  0.9848485E+00  0.0000000E+00  0.1515152E-01 -0.1843968E-07  0.0000000E+00 -0.2865767E-06
  0.9974747E+00  0.0000000E+00  0.1515152E-01 -0.6149917E-08  0.0000000E+00 -0.2948178E-06
  0.5050505E-02  0.0000000E+00  0.2525252E-01  0.1194244E-07  0.0000000E+00  0.3498105E-05
  0.1515152E-01  0.0000000E+00  0.2525252E-01  0.3572003E-07  0.0000000E+00  0.3507958E-05
  0.2525252E-01  0.0000000E+00  0.2525252E-01  0.5917633E-07  0.0000000E+00  0.3527576E-05
  0.3535353E-01  0.0000000E+00  0.2525252E-01  0.8209942E-07  0.0000000E+00  0.3556781E-05
  0.4545455E-01  0.0000000E+00  0.2525252E-01  0.1042810E-06  0.0000000E+00  0.3595312E-05
  0.5555556E-01  0.0000000E+00  0.2525252E-01  0.1255178E-06  0.0000000E+00  0.3642819E-05
  0.6565657E-01  0.0000000E+00  0.2525252E-01  0.1456141E-06  0.0000000E+00  0.3698871E-05
  0.7575758E-01  0.0000000E+00  0.2525252E-01  0.1643833E-06  0.0000000E+00  0.3762957E-05
  0.8585858E-01  0.0000000E+00  0.2525252E-01  0.1816508E-06  0.0000000E+00  0.3834490E-05
  0.9595960E-01  0.0000000E+00  0.2525252E-01  0.1972568E-06  0.0000000E+00  0.3912812E-05
  0.1060606E+00  0.0000000E+00  0.2525252E-01  0.2110593E-06  0.0000000E+00  0.3997204E-05
  0.1161616E+00  0.0000000E+00  0.2525252E-01  0.2229370E-06  0.0000000E+00  0.4086888E-05
  0.1262626E+00  0.0000000E+00  0.2525252E-01  0.2327926E-06  0.0000000E+00  0.4181040E-05
  0.1363636E+00  0.0000000E+00  0.2525252E-01  0.2405556E-06  0.0000000E+00  0.4278801E-05
  0.1464646E+00  0.0000000E+00  0.2525252E-01  0.2461842E-06  0.0000000E+00  0.4379288E-05
  0.1565657E+00  0.0000000E+00  0.2525252E-01  0.2496675E-06  0.0000000E+00  0.4481605E-05
  0.1666667E+00  0.0000000E+00  0.2525252E-01  0.2510259E-06  0.0000000E+00  0.4584859E-05
  0.1767677E+00  0.0000000E+00  0.2525252E-01  0.2503108E-06  0.0000000E+00  0.4688173E-05
  0.1868687E+00  0.0000000E+00  0.2525252E-01  0.2476033E-06  0.0000000E+00  0.4790698E-05
  0.1969697E+00  0.0000000E+00  0.2525252E-01  0.2430116E-06  0.0000000E+00  0.4891627E-05
  0.2070707E+00  0.0000000E+00  0.2525252E-01  0.2366674E-06  0.0000000E+00  0.4990203E-05
  0.2171717E+00  0.0000000E+00  0.2525252E-01  0.2287213E-06  0.0000000E+00  0.5085734E-05
  0.2272727E+00  0.0000000E+00  0.2525252E-01  0.2193381E-06  0.0000000E+00  0.5177594E-05
  0.2373737E+00  0.0000000E+00  0.2525252E-01  0.2086911E-06  0.0000000E+00  0.5265232E-05
  0.2474747E+00  0.0000000E+00  0.2525252E-01  0.1969577E-06  0.0000000E+00  0.5348169E-05
  0.2575758E+00  0.0000000E+00  0.2525252E-01  0.1843134E-06  0.0000000E+00  0.5426006E-05
  0.2676768E+00  0.0000000E+00  0.2525252E-01  0.1709284E-06  0.0000000E+00  0.5498415E-05
  0.2777778E+00  0.0000000E+00  0.2525252E-01  0.1569637E-06  0.0000000E+00  0.5565139E-05
  0.2878788E+00  0.0000000E+00  0.2525252E-01  0.1425680E-06  0.0000000E+00  0.5625986E-05
  0.2979798E+00  0.0000000E+00  0.2525252E-01  0.1278758E-06  0.0000000E+00  0.5680823E-05
  0.3080808E+00  0.0000000E+00  0.2525252E-01  0.1130054E-06  0.0000000E+00  0.5729569E-05
  0.3181818E+00  0.0000000E+00  0.2525252E-01  0.9805884E-07  0.0000000E+00  0.5772190E-05
  0.3282828E+00  0.0000000E+00  0.2525252E-01  0.8312043E-07  0.0000000E+00  0.5808689E-05
  0.3383838E+00  0.0000000E+00  0.2525252E-01  0.6825719E-07  0.0000000E+00  0.5839099E-05
  0.3484848E+00  0.0000000E+00  0.2525252E-01  0.5351873E-07  0.0000000E+00  0.5863477E-05
  0.3585859E+00  0.0000000E+00  0.2525252E-01  0.3893759E-07  0.0000000E+00  0.5881897E-05
  0.3686869E+00  0.0000000E+00  0.2525252E-01  0.2452965E-07  0.0000000E+00  0.5894442E-05
  0.3787879E+00  0.0000000E+00  0.2525252E-01  0.1029471E-07  0.0000000E+00  0.5901195E-05
  0.3888889E+00  0.0000000E+00  0.2525252E-01 -0.3782758E-08  0.0000000E+00  0.5902238E-05
  0.3989899E+00  0.0000000E+00  0.2525252E-01 -0.1773266E-07  0.0000000E+00  0.5897641E-05
  0.4090909E+00  0.0000000E+00  0.2525252E-01 -0.3159816E-07  0.0000000E+00  0.5887457E-05
  0.4191919E+00  0.0000000E+00  0.2525252E-01 -0.4543412E-07  0.0000000E+00  0.5871718E-05
  0.4292929E+00  0.0000000E+00  0.2525252E-01 -0.5930527E-07  0.0000000E+00  0.5850430E-05
  0.4393939E+00  0.0000000E+00  0.2525252E-01 -0.7328383E-07  0.0000000E+00  0.5823567E-05
  0.4494950E+00  0.0000000E+00  0.2525252E-01 -0.8744664E-07  0.0000000E+00  0.5791072E-05
  0.4595959E+00  0.0000000E+00  0.2525252E-01 -0.1018717E-06  0.0000000E+00  0.5752851E-05
  0.4696970E+00  0.0000000E+00  0.2525252E-01 -0.1166342E-06  0.0000000E+00  0.5708775E-05
  0.4797980E+00  0.0000000E+00  0.2525252E-01 -0.1318019E-06  0.0000000E+00  0.5658683E-05
  0.4898990E+00  0.0000000E+00  0.2525252E-01 -0.1474298E-06  0.0000000E+00  0.5602385E-05
  0.5000000E+00  0.0000000E+00  0.2525252E-01 -0.1635553E-06  0.0000000E+00  0.5539664E-05
  0.5101010E+00  0.0000000E+00  0.2525252E-01 -0.1801924E-06  0.0000000E+00  0.5470294E-05
  0.5202020E+00  0.0000000E+00  0.2525252E-01 -0.1973270E-06  0.0000000E+00  0.5394040E-05
  0.5303030E+00  0.0000000E+00  0.2525252E-01 -0.2149126E-06  0.0000000E+00  0.5310680E-05
  0.5404040E+00  0.0000000E+00  0.2525252E-01 -0.2328675E-06  0.0000000E+00  0.5220017E-05
  0.5505050E+00  0.0000000E+00  0.2525252E-01 -0.2510740E-06  0.0000000E+00  0.5121892E-05
  0.5606061E+00  0.0000000E+00  0.2525252E-01 -0.2693794E-06  0.0000000E+00  0.5016206E-05
  0.5707071E+00  0.0000000E+00  0.2525252E-01 -0.2875999E-06  0.0000000E+00  0.4902932E-05
  0.5808081E+00  0.0000000E+00  0.2525252E-01 -0.3055273E-06  0.0000000E+00  0.4782130E-05
  0.5909091E+00  0.0000000E+00  0.2525252E-01 -0.3229366E-06  0.0000000E+00  0.4653954E-05
  0.6010101E+00  0.0000000E+00  0.2525252E-01 -0.3395965E-06  0.0000000E+00  0.4518659E-05
  0.6111111E+00  0.0000000E+00  0.2525252E-01 -0.3552798E-06  0.0000000E+00  0.4376604E-05
  0.6212121E+00  0.0000000E+00  0.2525252E-01 -0.3697734E-06  0.0000000E+00  0.4228243E-05
  0.6313131E+00  0.0000000E+00  0.2525252E-01 -0.3828877E-06  0.0000000E+00  0.4074121E-05
  0.6414142E+00  0.0000000E+00  0.2525252E-01 -0.3944627E-06  0.0000000E+00  0.3914856E-05
  0.6515151E+00  0.0000000E+00  0.2525252E-01 -0.4043732E-06  0.0000000E+00  0.3751130E-05
  0.6616161E+00  0.0000000E+00  0.2525252E-01 -0.4125304E-06  0.0000000E+00  0.3583667E-05
  0.6717172E+00  0.0000000E+00  0.2525252E-01 -0.4188812E-06  0.0000000E+00  0.3413220E-05
  0.6818182E+00  0.0000000E+00  0.2525252E-01 -0.4234061E-06  0.0000000E+00  0.3240555E-05
  0.6919192E+00  0.0000000E+00  0.2525252E-01 -0.4261152E-06  0.0000000E+00  0.3066435E-05
  0.7020202E+00  0.0000000E+00  0.2525252E-01 -0.4270437E-06  0.0000000E+00  0.2891612E-05
  0.7121212E+00  0.0000000E+00  0.2525252E-01 -0.4262466E-06  0.0000000E+00  0.2716815E-05
  0.7222222E+00  0.0000000E+00  0.2525252E-01 -0.4237937E-06  0.0000000E+00  0.2542742E-05
  0.7323232E+00  0.0000000E+00  0.2525252E-01 -0.4197657E-06  0.0000000E+00  0.2370060E-05
  0.7424242E+00  0.0000000E+00  0.2525252E-01 -0.4142495E-06  0.0000000E+00  0.2199395E-05
  0.7525253E+00  0.0000000E+00  0.2525252E-01 -0.4073356E-06  0.0000000E+00  0.2031338E-05
  0.7626263E+00  0.0000000E+00  0.2525252E-01 -0.3991146E-06  0.0000000E+00  0.1866438E-05
  0.7727273E+00  0.0000000E+00  0.2525252E-01 -0.3896762E-06  0.0000000E+00  0.1705206E-05
  0.7828283E+00  0.0000000E+00  0.2525252E-01 -0.3791068E-06  0.0000000E+00  0.1548119E-05
  0.7929293E+00  0.0000000E+00  0.2525252E-01 -0.3674883E-06  0.0000000E+00  0.1395614E-05
  0.8030303E+00  0.0000000E+00  0.2525252E-01 -0.3549006E-06  0.0000000E+00  0.1248099E-05
  0.8131313E+00  0.0000000E+00  0.2525252E-01 -0.3414191E-06  0.0000000E+00  0.1105947E-05
  0.8232324E+00  0.0000000E+00  0.2525252E-01 -0.3271150E-06  0.0000000E+00  0.9695024E-06
  0.8333333E+00  0.0000000E+00  0.2525252E-01 -0.3120554E-06  0.0000000E+00  0.8390827E-06
  0.8434343E+00  0.0000000E+00  0.2525252E-01 -0.2963030E-06  0.0000000E+00  0.7149777E-06
  0.8535354E+00  0.0000000E+00  0.2525252E-01 -0.2799170E-06  0.0000000E+00  0.5974530E-06
  0.8636364E+00  0.0000000E+00  0.2525252E-01 -0.2629534E-06  0.0000000E+00  0.4867512E-06
  0.8737374E+00  0.0000000E+00  0.2525252E-01 -0.2454648E-06  0.0000000E+00  0.3830933E-06
  0.8838384E+00  0.0000000E+00  0.2525252E-01 -0.2275021E-06  0.0000000E+00  0.2866799E-06
  0.8939394E+00  0.0000000E+00  0.2525252E-01 -0.2091139E-06  0.0000000E+00  0.1976926E-06
  0.9040404E+00  0.0000000E+00  0.2525252E-01 -0.1903488E-06  0.0000000E+00  0.1162959E-06
  0.9141414E+00  0.0000000E+00  0.2525252E-01 -0.1712566E-06  0.0000000E+00  0.4264137E-07
  0.9242424E+00  0.0000000E+00  0.2525252E-01 -0.1518418E-06  0.0000000E+00 -0.2309063E-07
  0.9343435E+00  0.0000000E+00  0.2525252E-01 -0.1321191E-06  0.0000000E+00 -0.8079054E-07
  0.9444444E+00  0.0000000E+00  0.2525252E-01 -0.1121685E-06  0.0000000E+00 -0.1304191E-06
  0.9545454E+00  0.0000000E+00  0.2525252E-01 -0.9202773E-07  0.0000000E+00 -0.1719009E-06
  0.9646465E+00  0.0000000E+00  0.2525252E-01 -0.7173491E-07  0.0000000E+00 -0.2051673E-06
  0.9747475E+00  0.0000000E+00  0.2525252E-01 -0.5132358E-07  0.0000000E+00 -0.2301646E-06
  0.9848485E+00  0.0000000E+00  0.2525252E-01 -0.3082758E-07  0.0000000E+00 -0.2468520E-06
  0.9974747E+00  0.0000000E+00  0.2525252E-01 -0.1028141E-07  0.0000000E+00 -0.2552023E-06
  0.5050505E-02  0.0000000E+00  0.3535353E-01  0.1692992E-07  0.0000000E+00  0.3621739E-05
  0.1515152E-01  0.0000000E+00  0.3535353E-01  0.5063783E-07  0.0000000E+00  0.3631997E-05
  0.2525252E-01  0.0000000E+00  0.3535353E-01  0.8389077E-07  0.0000000E+00  0.3652421E-05
  0.3535353E-01  0.0000000E+00  0.3535353E-01  0.1163884E-06  0.0000000E+00  0.3682828E-05
  0.4545455E-01  0.0000000E+00  0.3535353E-01  0.1478353E-06  0.0000000E+00  0.3722944E-05
  0.5555556E-01  0.0000000E+00  0.3535353E-01  0.1779428E-06  0.0000000E+00  0.3772407E-05
  0.6565657E-01  0.0000000E+00  0.3535353E-01  0.2064323E-06  0.0000000E+00  0.3830768E-05
  0.7575758E-01  0.0000000E+00  0.3535353E-01  0.2330377E-06  0.0000000E+00  0.3897493E-05
  0.8585858E-01  0.0000000E+00  0.3535353E-01  0.2575096E-06  0.0000000E+00  0.3971967E-05
  0.9595960E-01  0.0000000E+00  0.3535353E-01  0.2796191E-06  0.0000000E+00  0.4053503E-05
  0.1060606E+00  0.0000000E+00  0.3535353E-01  0.2991622E-06  0.0000000E+00  0.4141342E-05
  0.1161616E+00  0.0000000E+00  0.3535353E-01  0.3159642E-06  0.0000000E+00  0.4234666E-05
  0.1262626E+00  0.0000000E+00  0.3535353E-01  0.3298848E-06  0.0000000E+00  0.4332607E-05
  0.1363636E+00  0.0000000E+00  0.3535353E-01  0.3408215E-06  0.0000000E+00  0.4434255E-05
  0.1464646E+00  0.0000000E+00  0.3535353E-01  0.3487141E-06  0.0000000E+00  0.4538676E-05
  0.1565657E+00  0.0000000E+00  0.3535353E-01  0.3535463E-06  0.0000000E+00  0.4644920E-05
  0.1666667E+00  0.0000000E+00  0.3535353E-01  0.3553478E-06  0.0000000E+00  0.4752042E-05
  0.1767677E+00  0.0000000E+00  0.3535353E-01  0.3541936E-06  0.0000000E+00  0.4859113E-05
  0.1868687E+00  0.0000000E+00  0.3535353E-01  0.3502019E-06  0.0000000E+00  0.4965237E-05
  0.1969697E+00  0.0000000E+00  0.3535353E-01  0.3435304E-06  0.0000000E+00  0.5069563E-05
  0.2070707E+00  0.0000000E+00  0.3535353E-01  0.3343710E-06  0.0000000E+00  0.5171299E-05
  0.2171717E+00  0.0000000E+00  0.3535353E-01  0.3229433E-06  0.0000000E+00  0.5269723E-05
  0.2272727E+00  0.0000000E+00  0.3535353E-01  0.3094868E-06  0.0000000E+00  0.5364188E-05
  0.2373737E+00  0.0000000E+00  0.3535353E-01  0.2942531E-06  0.0000000E+00  0.5454130E-05
  0.2474747E+00  0.0000000E+00  0.3535353E-01  0.2774986E-06  0.0000000E+00  0.5539067E-05
  0.2575758E+00  0.0000000E+00  0.3535353E-01  0.2594768E-06  0.0000000E+00  0.5618599E-05
  0.2676768E+00  0.0000000E+00  0.3535353E-01  0.2404324E-06  0.0000000E+00  0.5692409E-05
  0.2777778E+00  0.0000000E+00  0.3535353E-01  0.2205958E-06  0.0000000E+00  0.5760253E-05
  0.2878788E+00  0.0000000E+00  0.3535353E-01  0.2001795E-06  0.0000000E+00  0.5821958E-05
  0.2979798E+00  0.0000000E+00  0.3535353E-01  0.1793744E-06  0.0000000E+00  0.5877412E-05