title = "dataset water"
variables = "time", "absolute mass balance error", "relative mass balance error", "absolute cumulative mass balance error", "relative cumulative mass balance error" 
zone t = "mass balance error -  variably saturated flow", f=point
  1.0000E-10  5.4229E-17  2.9882E-14  5.4229E-17  2.9882E-14
  6.0000E-10  2.7813E-16  1.5326E-13  3.3236E-16  1.8314E-13
  3.1000E-09 -9.9029E-19 -5.4569E-16  3.3137E-16  1.8260E-13
  1.5600E-08  1.8730E-18  1.0321E-15  3.3324E-16  1.8363E-13
  7.8100E-08  1.7445E-18  9.6127E-16  3.3498E-16  1.8459E-13
  3.9060E-07 -1.3890E-17 -7.6540E-15  3.2109E-16  1.7693E-13
  1.9531E-06 -2.0549E-15 -1.1323E-12 -1.7338E-15 -9.5541E-13
  9.7656E-06 -1.4584E-18 -8.0361E-16 -1.7353E-15 -9.5621E-13
  4.8828E-05 -2.0760E-16 -1.1440E-13 -1.9429E-15 -1.0706E-12
  2.4414E-04 -3.9844E-19 -2.1954E-16 -1.9433E-15 -1.0707E-12
  1.2207E-03 -3.4856E-16 -1.9198E-13 -2.2918E-15 -1.2623E-12
  6.1035E-03 -2.3507E-16 -1.2935E-13 -2.5269E-15 -1.3904E-12
  2.3462E-02  6.4272E-15  3.5301E-12  3.9003E-15  2.1422E-12
  8.7359E-02 -1.4858E-13 -8.1330E-11 -1.4468E-13 -7.9195E-11
  3.0004E-01 -2.2569E-11 -1.2280E-08 -2.2714E-11 -1.2359E-08
  1.0000E+00 -1.4945E-10 -8.0463E-08 -1.7216E-10 -9.2693E-08
  2.0000E+00  2.1955E-04  1.1952E-01  2.1955E-04  1.1952E-01
  3.0000E+00 -4.5864E-10 -2.5044E-07  2.1955E-04  1.1989E-01
  4.0000E+00 -3.1115E-10 -1.7018E-07  2.1955E-04  1.2008E-01
  5.0000E+00 -2.7502E-10 -1.5058E-07  2.1955E-04  1.2021E-01
  6.0000E+00 -4.9788E-10 -2.7280E-07  2.1955E-04  1.2030E-01
  7.0000E+00 -5.3822E-10 -2.9506E-07  2.1955E-04  1.2036E-01
  8.0000E+00 -4.2509E-10 -2.3315E-07  2.1955E-04  1.2042E-01
  9.0000E+00 -3.1339E-10 -1.7195E-07  2.1955E-04  1.2046E-01
  1.0000E+01 -3.1949E-10 -1.7535E-07  2.1955E-04  1.2050E-01
  1.1000E+01 -2.5791E-10 -1.4159E-07  2.1955E-04  1.2053E-01
  1.2000E+01 -2.1816E-10 -1.1979E-07  2.1955E-04  1.2056E-01
  1.3000E+01 -2.6168E-10 -1.4372E-07  2.1955E-04  1.2058E-01
  1.4000E+01 -1.7192E-10 -9.4437E-08  2.1955E-04  1.2060E-01
  1.5000E+01 -1.7500E-10 -9.6147E-08  2.1955E-04  1.2062E-01
  1.6000E+01 -2.1960E-10 -1.2067E-07  2.1955E-04  1.2064E-01
  1.7000E+01 -2.3265E-10 -1.2786E-07  2.1955E-04  1.2066E-01
  1.8000E+01 -1.9736E-10 -1.0848E-07  2.1955E-04  1.2067E-01
  1.9000E+01 -1.6568E-10 -9.1074E-08  2.1955E-04  1.2068E-01
  2.0000E+01 -1.7076E-10 -9.3881E-08  2.1955E-04  1.2070E-01
  2.1000E+01 -2.6570E-10 -1.4609E-07  2.1955E-04  1.2071E-01
  2.2000E+01 -2.4845E-10 -1.3662E-07  2.1955E-04  1.2073E-01
  2.3000E+01 -2.5151E-10 -1.3832E-07  2.1955E-04  1.2074E-01
  2.4000E+01 -3.8185E-10 -2.1004E-07  2.1955E-04  1.2076E-01
  2.5000E+01 -3.3668E-10 -1.8522E-07  2.1955E-04  1.2078E-01
  2.6000E+01 -3.8978E-10 -2.1447E-07  2.1955E-04  1.2080E-01
  2.7000E+01 -1.3279E-10 -7.3084E-08  2.1955E-04  1.2083E-01
  2.8000E+01 -3.6895E-10 -2.0310E-07  2.1954E-04  1.2086E-01
  2.9000E+01 -7.9748E-11 -4.3915E-08  2.1954E-04  1.2090E-01
  3.0000E+01 -2.9135E-10 -1.6048E-07  2.1954E-04  1.2093E-01
  3.1000E+01 -7.0741E-11 -3.8978E-08  2.1954E-04  1.2097E-01
  3.2000E+01  8.1729E-11  4.5063E-08  2.1954E-04  1.2105E-01
  3.3000E+01  6.2075E-11  3.4249E-08  2.1954E-04  1.2113E-01
  3.4000E+01 -1.7365E-11 -9.5869E-09  2.1954E-04  1.2121E-01
  3.5000E+01  6.4166E-11  3.5455E-08  2.1954E-04  1.2131E-01
  3.6000E+01  3.2313E-11  1.7875E-08  2.1954E-04  1.2145E-01
  3.7000E+01  1.2242E-11  6.7817E-09  2.1954E-04  1.2163E-01
  3.8000E+01  1.4789E-11  8.2098E-09  2.1954E-04  1.2187E-01
  3.9000E+01  3.6687E-11  2.0411E-08  2.1954E-04  1.2214E-01
  4.0000E+01  5.3636E-11  2.9907E-08  2.1954E-04  1.2242E-01
  4.1000E+01  5.0363E-11  2.8161E-08  2.1954E-04  1.2276E-01
  4.2000E+01 -2.9137E-10 -1.6339E-07  2.1954E-04  1.2311E-01
  4.3000E+01  2.6919E-11  1.5153E-08  2.1954E-04  1.2358E-01
  4.4000E+01 -1.4626E-10 -8.2695E-08  2.1954E-04  1.2413E-01
  4.5000E+01 -6.5703E-11 -3.7296E-08  2.1954E-04  1.2462E-01
  4.6000E+01 -9.1902E-11 -5.2451E-08  2.1954E-04  1.2530E-01
  4.7000E+01 -1.1977E-10 -6.8779E-08  2.1954E-04  1.2608E-01
  4.8000E+01 -3.8064E-11 -2.1981E-08  2.1954E-04  1.2678E-01
  4.9000E+01  1.5709E-12  9.1436E-10  2.1954E-04  1.2779E-01
  5.0000E+01 -1.4211E-12 -8.3424E-10  2.1954E-04  1.2888E-01
  5.1000E+01 -2.7903E-12 -1.6514E-09  2.1954E-04  1.2993E-01
  5.2000E+01 -5.0193E-11 -2.9972E-08  2.1954E-04  1.3110E-01
  5.3000E+01 -4.8814E-11 -2.9430E-08  2.1954E-04  1.3237E-01
  5.4000E+01 -1.4300E-12 -8.7012E-10  2.1954E-04  1.3359E-01
  5.5000E+01 -2.2842E-10 -1.4040E-07  2.1954E-04  1.3494E-01
  5.6000E+01 -7.0688E-12 -4.3918E-09  2.1954E-04  1.3640E-01
  5.7000E+01 -2.6025E-11 -1.6338E-08  2.1954E-04  1.3783E-01
  5.8000E+01  1.7734E-12  1.1257E-09  2.1954E-04  1.3935E-01
  5.9000E+01  3.3918E-13  2.1802E-10  2.1954E-04  1.4112E-01
  6.0000E+01  5.9075E-13  3.8480E-10  2.1954E-04  1.4301E-01
