title = "dataset water"
variables = "x", "y", "z", "vx", "vy", "vz"
zone t = "velocities, solution time =  5.900E+01 days        " i =   99, j =   99, k =    1,  f=point
  0.5050505E-02  0.0000000E+00  0.5050505E-02  0.4657968E-07  0.0000000E+00  0.9308516E-04
  0.1515152E-01  0.0000000E+00  0.5050505E-02  0.1396212E-06  0.0000000E+00  0.9327404E-04
  0.2525252E-01  0.0000000E+00  0.5050505E-02  0.2323071E-06  0.0000000E+00  0.9365134E-04
  0.3535353E-01  0.0000000E+00  0.5050505E-02  0.3243882E-06  0.0000000E+00  0.9421609E-04
  0.4545455E-01  0.0000000E+00  0.5050505E-02  0.4155950E-06  0.0000000E+00  0.9496683E-04
  0.5555556E-01  0.0000000E+00  0.5050505E-02  0.5056285E-06  0.0000000E+00  0.9590154E-04
  0.6565657E-01  0.0000000E+00  0.5050505E-02  0.5941512E-06  0.0000000E+00  0.9701754E-04
  0.7575758E-01  0.0000000E+00  0.5050505E-02  0.6807768E-06  0.0000000E+00  0.9831146E-04
  0.8585858E-01  0.0000000E+00  0.5050505E-02  0.7650561E-06  0.0000000E+00  0.9977905E-04
  0.9595960E-01  0.0000000E+00  0.5050505E-02  0.8464560E-06  0.0000000E+00  0.1014151E-03
  0.1060606E+00  0.0000000E+00  0.5050505E-02  0.9243205E-06  0.0000000E+00  0.1032132E-03
  0.1161616E+00  0.0000000E+00  0.5050505E-02  0.9978001E-06  0.0000000E+00  0.1051654E-03
  0.1262626E+00  0.0000000E+00  0.5050505E-02  0.1065719E-05  0.0000000E+00  0.1072618E-03
  0.1363636E+00  0.0000000E+00  0.5050505E-02  0.1126332E-05  0.0000000E+00  0.1094892E-03
  0.1464646E+00  0.0000000E+00  0.5050505E-02  0.1176904E-05  0.0000000E+00  0.1118303E-03
  0.1565657E+00  0.0000000E+00  0.5050505E-02  0.1213007E-05  0.0000000E+00  0.1142602E-03
  0.1666667E+00  0.0000000E+00  0.5050505E-02  0.1227449E-05  0.0000000E+00  0.1167422E-03
  0.1767677E+00  0.0000000E+00  0.5050505E-02  0.1208901E-05  0.0000000E+00  0.1192207E-03
  0.1868687E+00  0.0000000E+00  0.5050505E-02  0.1140755E-05  0.0000000E+00  0.1216118E-03
  0.1969697E+00  0.0000000E+00  0.5050505E-02  0.1002022E-05  0.0000000E+00  0.1237930E-03
  0.2070707E+00  0.0000000E+00  0.5050505E-02  0.7741821E-06  0.0000000E+00  0.1256015E-03
  0.2171717E+00  0.0000000E+00  0.5050505E-02  0.4591112E-06  0.0000000E+00  0.1268575E-03
  0.2272727E+00  0.0000000E+00  0.5050505E-02  0.1044425E-06  0.0000000E+00  0.1274315E-03
  0.2373737E+00  0.0000000E+00  0.5050505E-02 -0.2010468E-06  0.0000000E+00  0.1273331E-03
  0.2474747E+00  0.0000000E+00  0.5050505E-02 -0.4147940E-06  0.0000000E+00  0.1267059E-03
  0.2575758E+00  0.0000000E+00  0.5050505E-02 -0.5389023E-06  0.0000000E+00  0.1257346E-03
  0.2676768E+00  0.0000000E+00  0.5050505E-02 -0.5945910E-06  0.0000000E+00  0.1245803E-03
  0.2777778E+00  0.0000000E+00  0.5050505E-02 -0.6055121E-06  0.0000000E+00  0.1233585E-03
  0.2878788E+00  0.0000000E+00  0.5050505E-02 -0.5915510E-06  0.0000000E+00  0.1221399E-03
  0.2979798E+00  0.0000000E+00  0.5050505E-02 -0.5679911E-06  0.0000000E+00  0.1209596E-03
  0.3080808E+00  0.0000000E+00  0.5050505E-02 -0.5463203E-06  0.0000000E+00  0.1198256E-03
  0.3181818E+00  0.0000000E+00  0.5050505E-02 -0.5349201E-06  0.0000000E+00  0.1187253E-03
  0.3282828E+00  0.0000000E+00  0.5050505E-02 -0.5390098E-06  0.0000000E+00  0.1176327E-03
  0.3383838E+00  0.0000000E+00  0.5050505E-02 -0.5598493E-06  0.0000000E+00  0.1165148E-03
  0.3484848E+00  0.0000000E+00  0.5050505E-02 -0.5937960E-06  0.0000000E+00  0.1153414E-03
  0.3585859E+00  0.0000000E+00  0.5050505E-02 -0.6324502E-06  0.0000000E+00  0.1140943E-03
  0.3686869E+00  0.0000000E+00  0.5050505E-02 -0.6651400E-06  0.0000000E+00  0.1127748E-03
  0.3787879E+00  0.0000000E+00  0.5050505E-02 -0.6830946E-06  0.0000000E+00  0.1114041E-03
  0.3888889E+00  0.0000000E+00  0.5050505E-02 -0.6818063E-06  0.0000000E+00  0.1100167E-03
  0.3989899E+00  0.0000000E+00  0.5050505E-02 -0.6609210E-06  0.0000000E+00  0.1086521E-03
  0.4090909E+00  0.0000000E+00  0.5050505E-02 -0.6228621E-06  0.0000000E+00  0.1073475E-03
  0.4191919E+00  0.0000000E+00  0.5050505E-02 -0.5713461E-06  0.0000000E+00  0.1061342E-03
  0.4292929E+00  0.0000000E+00  0.5050505E-02 -0.5103168E-06  0.0000000E+00  0.1050353E-03
  0.4393939E+00  0.0000000E+00  0.5050505E-02 -0.4433613E-06  0.0000000E+00  0.1040666E-03
  0.4494950E+00  0.0000000E+00  0.5050505E-02 -0.3734803E-06  0.0000000E+00  0.1032370E-03
  0.4595959E+00  0.0000000E+00  0.5050505E-02 -0.3030650E-06  0.0000000E+00  0.1025499E-03
  0.4696970E+00  0.0000000E+00  0.5050505E-02 -0.2339712E-06  0.0000000E+00  0.1020046E-03
  0.4797980E+00  0.0000000E+00  0.5050505E-02 -0.1676223E-06  0.0000000E+00  0.1015968E-03
  0.4898990E+00  0.0000000E+00  0.5050505E-02 -0.1051085E-06  0.0000000E+00  0.1013198E-03
  0.5000000E+00  0.0000000E+00  0.5050505E-02 -0.4726858E-07  0.0000000E+00  0.1011651E-03
  0.5101010E+00  0.0000000E+00  0.5050505E-02  0.5251370E-08  0.0000000E+00  0.1011224E-03
  0.5202020E+00  0.0000000E+00  0.5050505E-02  0.5195990E-07  0.0000000E+00  0.1011805E-03
  0.5303030E+00  0.0000000E+00  0.5050505E-02  0.9250301E-07  0.0000000E+00  0.1013272E-03
  0.5404040E+00  0.0000000E+00  0.5050505E-02  0.1266612E-06  0.0000000E+00  0.1015498E-03
  0.5505050E+00  0.0000000E+00  0.5050505E-02  0.1543570E-06  0.0000000E+00  0.1018351E-03
  0.5606061E+00  0.0000000E+00  0.5050505E-02  0.1756634E-06  0.0000000E+00  0.1021702E-03
  0.5707071E+00  0.0000000E+00  0.5050505E-02  0.1907923E-06  0.0000000E+00  0.1025424E-03
  0.5808081E+00  0.0000000E+00  0.5050505E-02  0.2000192E-06  0.0000000E+00  0.1029393E-03
  0.5909091E+00  0.0000000E+00  0.5050505E-02  0.2034554E-06  0.0000000E+00  0.1033491E-03
  0.6010101E+00  0.0000000E+00  0.5050505E-02  0.2004895E-06  0.0000000E+00  0.1037593E-03
  0.6111111E+00  0.0000000E+00  0.5050505E-02  0.1885597E-06  0.0000000E+00  0.1041545E-03
  0.6212121E+00  0.0000000E+00  0.5050505E-02  0.1606536E-06  0.0000000E+00  0.1045092E-03
  0.6313131E+00  0.0000000E+00  0.5050505E-02  0.1006613E-06  0.0000000E+00  0.1047747E-03
  0.6414142E+00  0.0000000E+00  0.5050505E-02 -0.2386535E-07  0.0000000E+00  0.1048527E-03
  0.6515151E+00  0.0000000E+00  0.5050505E-02 -0.2679143E-06  0.0000000E+00  0.1045563E-03
  0.6616161E+00  0.0000000E+00  0.5050505E-02 -0.6938581E-06  0.0000000E+00  0.1035795E-03
  0.6717172E+00  0.0000000E+00  0.5050505E-02 -0.1272667E-05  0.0000000E+00  0.1015826E-03
  0.6818182E+00  0.0000000E+00  0.5050505E-02 -0.1652133E-05  0.0000000E+00  0.9861380E-04
  0.6919192E+00  0.0000000E+00  0.5050505E-02 -0.1813750E-05  0.0000000E+00  0.9509719E-04
  0.7020202E+00  0.0000000E+00  0.5050505E-02 -0.1833623E-05  0.0000000E+00  0.9139807E-04
  0.7121212E+00  0.0000000E+00  0.5050505E-02 -0.1778724E-05  0.0000000E+00  0.8773609E-04
  0.7222222E+00  0.0000000E+00  0.5050505E-02 -0.1690165E-05  0.0000000E+00  0.8422104E-04
  0.7323232E+00  0.0000000E+00  0.5050505E-02 -0.1589714E-05  0.0000000E+00  0.8089886E-04
  0.7424242E+00  0.0000000E+00  0.5050505E-02 -0.1487875E-05  0.0000000E+00  0.7778276E-04
  0.7525253E+00  0.0000000E+00  0.5050505E-02 -0.1389271E-05  0.0000000E+00  0.7487066E-04
  0.7626263E+00  0.0000000E+00  0.5050505E-02 -0.1295652E-05  0.0000000E+00  0.7215401E-04
  0.7727273E+00  0.0000000E+00  0.5050505E-02 -0.1207434E-05  0.0000000E+00  0.6962213E-04
  0.7828283E+00  0.0000000E+00  0.5050505E-02 -0.1124457E-05  0.0000000E+00  0.6726410E-04
  0.7929293E+00  0.0000000E+00  0.5050505E-02 -0.1046336E-05  0.0000000E+00  0.6506956E-04
  0.8030303E+00  0.0000000E+00  0.5050505E-02 -0.9726291E-06  0.0000000E+00  0.6302902E-04
  0.8131313E+00  0.0000000E+00  0.5050505E-02 -0.9029022E-06  0.0000000E+00  0.6113388E-04
  0.8232324E+00  0.0000000E+00  0.5050505E-02 -0.8367564E-06  0.0000000E+00  0.5937642E-04
  0.8333333E+00  0.0000000E+00  0.5050505E-02 -0.7738353E-06  0.0000000E+00  0.5774966E-04
  0.8434343E+00  0.0000000E+00  0.5050505E-02 -0.7138233E-06  0.0000000E+00  0.5624735E-04
  0.8535354E+00  0.0000000E+00  0.5050505E-02 -0.6564414E-06  0.0000000E+00  0.5486383E-04
  0.8636364E+00  0.0000000E+00  0.5050505E-02 -0.6014417E-06  0.0000000E+00  0.5359397E-04
  0.8737374E+00  0.0000000E+00  0.5050505E-02 -0.5486022E-06  0.0000000E+00  0.5243314E-04
  0.8838384E+00  0.0000000E+00  0.5050505E-02 -0.4977214E-06  0.0000000E+00  0.5137714E-04
  0.8939394E+00  0.0000000E+00  0.5050505E-02 -0.4486146E-06  0.0000000E+00  0.5042216E-04
  0.9040404E+00  0.0000000E+00  0.5050505E-02 -0.4011094E-06  0.0000000E+00  0.4956477E-04
  0.9141414E+00  0.0000000E+00  0.5050505E-02 -0.3550426E-06  0.0000000E+00  0.4880186E-04
  0.9242424E+00  0.0000000E+00  0.5050505E-02 -0.3102576E-06  0.0000000E+00  0.4813068E-04
  0.9343435E+00  0.0000000E+00  0.5050505E-02 -0.2666015E-06  0.0000000E+00  0.4754876E-04
  0.9444444E+00  0.0000000E+00  0.5050505E-02 -0.2239242E-06  0.0000000E+00  0.4705396E-04
  0.9545454E+00  0.0000000E+00  0.5050505E-02 -0.1820762E-06  0.0000000E+00  0.4664444E-04
  0.9646465E+00  0.0000000E+00  0.5050505E-02 -0.1409079E-06  0.0000000E+00  0.4631867E-04
  0.9747475E+00  0.0000000E+00  0.5050505E-02 -0.1002694E-06  0.0000000E+00  0.4607542E-04
  0.9848485E+00  0.0000000E+00  0.5050505E-02 -0.6000997E-07  0.0000000E+00  0.4591377E-04
  0.9974747E+00  0.0000000E+00  0.5050505E-02 -0.1997805E-07  0.0000000E+00  0.4583309E-04
  0.5050505E-02  0.0000000E+00  0.1515152E-01  0.1399195E-06  0.0000000E+00  0.9324442E-04
  0.1515152E-01  0.0000000E+00  0.1515152E-01  0.4194102E-06  0.0000000E+00  0.9343461E-04
  0.2525252E-01  0.0000000E+00  0.1515152E-01  0.6978476E-06  0.0000000E+00  0.9381453E-04
  0.3535353E-01  0.0000000E+00  0.1515152E-01  0.9744921E-06  0.0000000E+00  0.9438325E-04
  0.4545455E-01  0.0000000E+00  0.1515152E-01  0.1248542E-05  0.0000000E+00  0.9513934E-04
  0.5555556E-01  0.0000000E+00  0.1515152E-01  0.1519108E-05  0.0000000E+00  0.9608083E-04
  0.6565657E-01  0.0000000E+00  0.1515152E-01  0.1785185E-05  0.0000000E+00  0.9720512E-04
  0.7575758E-01  0.0000000E+00  0.1515152E-01  0.2045624E-05  0.0000000E+00  0.9850889E-04
  0.8585858E-01  0.0000000E+00  0.1515152E-01  0.2299095E-05  0.0000000E+00  0.9998805E-04
  0.9595960E-01  0.0000000E+00  0.1515152E-01  0.2544032E-05  0.0000000E+00  0.1016375E-03
  0.1060606E+00  0.0000000E+00  0.1515152E-01  0.2778532E-05  0.0000000E+00  0.1034512E-03
  0.1161616E+00  0.0000000E+00  0.1515152E-01  0.3000172E-05  0.0000000E+00  0.1054215E-03
  0.1262626E+00  0.0000000E+00  0.1515152E-01  0.3205656E-05  0.0000000E+00  0.1075392E-03
  0.1363636E+00  0.0000000E+00  0.1515152E-01  0.3390163E-05  0.0000000E+00  0.1097930E-03
  0.1464646E+00  0.0000000E+00  0.1515152E-01  0.3546171E-05  0.0000000E+00  0.1121677E-03
  0.1565657E+00  0.0000000E+00  0.1515152E-01  0.3661438E-05  0.0000000E+00  0.1146430E-03
  0.1666667E+00  0.0000000E+00  0.1515152E-01  0.3715744E-05  0.0000000E+00  0.1171888E-03
  0.1767677E+00  0.0000000E+00  0.1515152E-01  0.3676216E-05  0.0000000E+00  0.1197587E-03
  0.1868687E+00  0.0000000E+00  0.1515152E-01  0.3492157E-05  0.0000000E+00  0.1222782E-03
  0.1969697E+00  0.0000000E+00  0.1515152E-01  0.3093873E-05  0.0000000E+00  0.1246263E-03
  0.2070707E+00  0.0000000E+00  0.1515152E-01  0.2408275E-05  0.0000000E+00  0.1266169E-03
  0.2171717E+00  0.0000000E+00  0.1515152E-01  0.1416196E-05  0.0000000E+00  0.1280037E-03
  0.2272727E+00  0.0000000E+00  0.1515152E-01  0.2651631E-06  0.0000000E+00  0.1285700E-03
  0.2373737E+00  0.0000000E+00  0.1515152E-01 -0.6929352E-06  0.0000000E+00  0.1283308E-03
  0.2474747E+00  0.0000000E+00  0.1515152E-01 -0.1332083E-05  0.0000000E+00  0.1275207E-03
  0.2575758E+00  0.0000000E+00  0.1515152E-01 -0.1683620E-05  0.0000000E+00  0.1263889E-03
  0.2676768E+00  0.0000000E+00  0.1515152E-01 -0.1827538E-05  0.0000000E+00  0.1251185E-03
  0.2777778E+00  0.0000000E+00  0.1515152E-01 -0.1840856E-05  0.0000000E+00  0.1238236E-03
  0.2878788E+00  0.0000000E+00  0.1515152E-01 -0.1784045E-05  0.0000000E+00  0.1225669E-03
  0.2979798E+00  0.0000000E+00  0.1515152E-01 -0.1702174E-05  0.0000000E+00  0.1213754E-03
  0.3080808E+00  0.0000000E+00  0.1515152E-01 -0.1629045E-05  0.0000000E+00  0.1202499E-03
  0.3181818E+00  0.0000000E+00  0.1515152E-01 -0.1589881E-05  0.0000000E+00  0.1191715E-03
  0.3282828E+00  0.0000000E+00  0.1515152E-01 -0.1601140E-05  0.0000000E+00  0.1181069E-03
  0.3383838E+00  0.0000000E+00  0.1515152E-01 -0.1667537E-05  0.0000000E+00  0.1170140E-03
  0.3484848E+00  0.0000000E+00  0.1515152E-01 -0.1777985E-05  0.0000000E+00  0.1158527E-03
  0.3585859E+00  0.0000000E+00  0.1515152E-01 -0.1904804E-05  0.0000000E+00  0.1145978E-03
  0.3686869E+00  0.0000000E+00  0.1515152E-01 -0.2011820E-05  0.0000000E+00  0.1132501E-03
  0.3787879E+00  0.0000000E+00  0.1515152E-01 -0.2070350E-05  0.0000000E+00  0.1118373E-03
  0.3888889E+00  0.0000000E+00  0.1515152E-01 -0.2066954E-05  0.0000000E+00  0.1104025E-03
  0.3989899E+00  0.0000000E+00  0.1515152E-01 -0.2001925E-05  0.0000000E+00  0.1089924E-03
  0.4090909E+00  0.0000000E+00  0.1515152E-01 -0.1884006E-05  0.0000000E+00  0.1076489E-03
  0.4191919E+00  0.0000000E+00  0.1515152E-01 -0.1725415E-05  0.0000000E+00  0.1064048E-03
  0.4292929E+00  0.0000000E+00  0.1515152E-01 -0.1538582E-05  0.0000000E+00  0.1052834E-03
  0.4393939E+00  0.0000000E+00  0.1515152E-01 -0.1334511E-05  0.0000000E+00  0.1042996E-03
  0.4494950E+00  0.0000000E+00  0.1515152E-01 -0.1122241E-05  0.0000000E+00  0.1034611E-03
  0.4595959E+00  0.0000000E+00  0.1515152E-01 -0.9088840E-06  0.0000000E+00  0.1027705E-03
  0.4696970E+00  0.0000000E+00  0.1515152E-01 -0.6999132E-06  0.0000000E+00  0.1022258E-03
  0.4797980E+00  0.0000000E+00  0.1515152E-01 -0.4995057E-06  0.0000000E+00  0.1018222E-03
  0.4898990E+00  0.0000000E+00  0.1515152E-01 -0.3108560E-06  0.0000000E+00  0.1015524E-03
  0.5000000E+00  0.0000000E+00  0.1515152E-01 -0.1364242E-06  0.0000000E+00  0.1014072E-03
  0.5101010E+00  0.0000000E+00  0.1515152E-01  0.2188674E-07  0.0000000E+00  0.1013761E-03
  0.5202020E+00  0.0000000E+00  0.1515152E-01  0.1626199E-06  0.0000000E+00  0.1014474E-03
  0.5303030E+00  0.0000000E+00  0.1515152E-01  0.2847152E-06  0.0000000E+00  0.1016087E-03
  0.5404040E+00  0.0000000E+00  0.1515152E-01  0.3875056E-06  0.0000000E+00  0.1018469E-03
  0.5505050E+00  0.0000000E+00  0.1515152E-01  0.4707498E-06  0.0000000E+00  0.1021486E-03
  0.5606061E+00  0.0000000E+00  0.1515152E-01  0.5346782E-06  0.0000000E+00  0.1025004E-03
  0.5707071E+00  0.0000000E+00  0.1515152E-01  0.5800025E-06  0.0000000E+00  0.1028892E-03
  0.5808081E+00  0.0000000E+00  0.1515152E-01  0.6077773E-06  0.0000000E+00  0.1033029E-03
  0.5909091E+00  0.0000000E+00  0.1515152E-01  0.6188906E-06  0.0000000E+00  0.1037304E-03
  0.6010101E+00  0.0000000E+00  0.1515152E-01  0.6127206E-06  0.0000000E+00  0.1041620E-03
  0.6111111E+00  0.0000000E+00  0.1515152E-01  0.5840397E-06  0.0000000E+00  0.1045885E-03
  0.6212121E+00  0.0000000E+00  0.1515152E-01  0.5163603E-06  0.0000000E+00  0.1049979E-03
  0.6313131E+00  0.0000000E+00  0.1515152E-01  0.3684110E-06  0.0000000E+00  0.1053666E-03
  0.6414142E+00  0.0000000E+00  0.1515152E-01  0.4879417E-07  0.0000000E+00  0.1056346E-03
  0.6515151E+00  0.0000000E+00  0.1515152E-01 -0.6226315E-06  0.0000000E+00  0.1056437E-03
  0.6616161E+00  0.0000000E+00  0.1515152E-01 -0.1930613E-05  0.0000000E+00  0.1050011E-03
  0.6717172E+00  0.0000000E+00  0.1515152E-01 -0.4016561E-05  0.0000000E+00  0.1029502E-03
  0.6818182E+00  0.0000000E+00  0.1515152E-01 -0.5175101E-05  0.0000000E+00  0.9954962E-04
  0.6919192E+00  0.0000000E+00  0.1515152E-01 -0.5585689E-05  0.0000000E+00  0.9565525E-04
  0.7020202E+00  0.0000000E+00  0.1515152E-01 -0.5579237E-05  0.0000000E+00  0.9172058E-04
  0.7121212E+00  0.0000000E+00  0.1515152E-01 -0.5373584E-05  0.0000000E+00  0.8793179E-04
  0.7222222E+00  0.0000000E+00  0.1515152E-01 -0.5085910E-05  0.0000000E+00  0.8435413E-04
  0.7323232E+00  0.0000000E+00  0.1515152E-01 -0.4773672E-05  0.0000000E+00  0.8100312E-04
  0.7424242E+00  0.0000000E+00  0.1515152E-01 -0.4463121E-05  0.0000000E+00  0.7787480E-04
  0.7525253E+00  0.0000000E+00  0.1515152E-01 -0.4165178E-05  0.0000000E+00  0.7495819E-04
  0.7626263E+00  0.0000000E+00  0.1515152E-01 -0.3883566E-05  0.0000000E+00  0.7224043E-04
  0.7727273E+00  0.0000000E+00  0.1515152E-01 -0.3618783E-05  0.0000000E+00  0.6970878E-04
  0.7828283E+00  0.0000000E+00  0.1515152E-01 -0.3369983E-05  0.0000000E+00  0.6735140E-04
  0.7929293E+00  0.0000000E+00  0.1515152E-01 -0.3135850E-05  0.0000000E+00  0.6515754E-04
  0.8030303E+00  0.0000000E+00  0.1515152E-01 -0.2914981E-05  0.0000000E+00  0.6311758E-04
  0.8131313E+00  0.0000000E+00  0.1515152E-01 -0.2706042E-05  0.0000000E+00  0.6122289E-04
  0.8232324E+00  0.0000000E+00  0.1515152E-01 -0.2507827E-05  0.0000000E+00  0.5946576E-04
  0.8333333E+00  0.0000000E+00  0.1515152E-01 -0.2319263E-05  0.0000000E+00  0.5783924E-04
  0.8434343E+00  0.0000000E+00  0.1515152E-01 -0.2139407E-05  0.0000000E+00  0.5633711E-04
  0.8535354E+00  0.0000000E+00  0.1515152E-01 -0.1967422E-05  0.0000000E+00  0.5495374E-04
  0.8636364E+00  0.0000000E+00  0.1515152E-01 -0.1802571E-05  0.0000000E+00  0.5368401E-04
  0.8737374E+00  0.0000000E+00  0.1515152E-01 -0.1644189E-05  0.0000000E+00  0.5252333E-04
  0.8838384E+00  0.0000000E+00  0.1515152E-01 -0.1491675E-05  0.0000000E+00  0.5146748E-04
  0.8939394E+00  0.0000000E+00  0.1515152E-01 -0.1344479E-05  0.0000000E+00  0.5051268E-04
  0.9040404E+00  0.0000000E+00  0.1515152E-01 -0.1202084E-05  0.0000000E+00  0.4965549E-04
  0.9141414E+00  0.0000000E+00  0.1515152E-01 -0.1064005E-05  0.0000000E+00  0.4889279E-04
  0.9242424E+00  0.0000000E+00  0.1515152E-01 -0.9297715E-06  0.0000000E+00  0.4822183E-04
  0.9343435E+00  0.0000000E+00  0.1515152E-01 -0.7989273E-06  0.0000000E+00  0.4764013E-04
  0.9444444E+00  0.0000000E+00  0.1515152E-01 -0.6710222E-06  0.0000000E+00  0.4714554E-04
  0.9545454E+00  0.0000000E+00  0.1515152E-01 -0.5456081E-06  0.0000000E+00  0.4673622E-04
  0.9646465E+00  0.0000000E+00  0.1515152E-01 -0.4222368E-06  0.0000000E+00  0.4641062E-04
  0.9747475E+00  0.0000000E+00  0.1515152E-01 -0.3004579E-06  0.0000000E+00  0.4616751E-04
  0.9848485E+00  0.0000000E+00  0.1515152E-01 -0.1798185E-06  0.0000000E+00  0.4600595E-04
  0.9974747E+00  0.0000000E+00  0.1515152E-01 -0.5986347E-07  0.0000000E+00  0.4592533E-04
  0.5050505E-02  0.0000000E+00  0.2525252E-01  0.2339419E-06  0.0000000E+00  0.9356632E-04
  0.1515152E-01  0.0000000E+00  0.2525252E-01  0.7012599E-06  0.0000000E+00  0.9375913E-04
  0.2525252E-01  0.0000000E+00  0.2525252E-01  0.1166865E-05  0.0000000E+00  0.9414431E-04
  0.3535353E-01  0.0000000E+00  0.2525252E-01  0.1629548E-05  0.0000000E+00  0.9472098E-04
  0.4545455E-01  0.0000000E+00  0.2525252E-01  0.2087998E-05  0.0000000E+00  0.9548779E-04
  0.5555556E-01  0.0000000E+00  0.2525252E-01  0.2540752E-05  0.0000000E+00  0.9644288E-04
  0.6565657E-01  0.0000000E+00  0.2525252E-01  0.2986159E-05  0.0000000E+00  0.9758378E-04
  0.7575758E-01  0.0000000E+00  0.2525252E-01  0.3422333E-05  0.0000000E+00  0.9890733E-04
  0.8585858E-01  0.0000000E+00  0.2525252E-01  0.3847105E-05  0.0000000E+00  0.1004096E-03
  0.9595960E-01  0.0000000E+00  0.2525252E-01  0.4257960E-05  0.0000000E+00  0.1020859E-03
  0.1060606E+00  0.0000000E+00  0.2525252E-01  0.4651915E-05  0.0000000E+00  0.1039303E-03
  0.1161616E+00  0.0000000E+00  0.2525252E-01  0.5025299E-05  0.0000000E+00  0.1059362E-03
  0.1262626E+00  0.0000000E+00  0.2525252E-01  0.5373321E-05  0.0000000E+00  0.1080958E-03
  0.1363636E+00  0.0000000E+00  0.2525252E-01  0.5689215E-05  0.0000000E+00  0.1103998E-03
  0.1464646E+00  0.0000000E+00  0.2525252E-01  0.5962644E-05  0.0000000E+00  0.1128380E-03
  0.1565657E+00  0.0000000E+00  0.2525252E-01  0.6176731E-05  0.0000000E+00  0.1153977E-03
  0.1666667E+00  0.0000000E+00  0.2525252E-01  0.6302793E-05  0.0000000E+00  0.1180623E-03
  0.1767677E+00  0.0000000E+00  0.2525252E-01  0.6291447E-05  0.0000000E+00  0.1208062E-03
  0.1868687E+00  0.0000000E+00  0.2525252E-01  0.6059019E-05  0.0000000E+00  0.1235812E-03
  0.1969697E+00  0.0000000E+00  0.2525252E-01  0.5471743E-05  0.0000000E+00  0.1262862E-03
  0.2070707E+00  0.0000000E+00  0.2525252E-01  0.4345759E-05  0.0000000E+00  0.1287064E-03
  0.2171717E+00  0.0000000E+00  0.2525252E-01  0.2530554E-05  0.0000000E+00  0.1304399E-03
  0.2272727E+00  0.0000000E+00  0.2525252E-01  0.2372442E-06  0.0000000E+00  0.1309856E-03
  0.2373737E+00  0.0000000E+00  0.2525252E-01 -0.1497613E-05  0.0000000E+00  0.1303750E-03
  0.2474747E+00  0.0000000E+00  0.2525252E-01 -0.2532009E-05  0.0000000E+00  0.1291365E-03
  0.2575758E+00  0.0000000E+00  0.2525252E-01 -0.3033003E-05  0.0000000E+00  0.1276623E-03
  0.2676768E+00  0.0000000E+00  0.2525252E-01 -0.3189948E-05  0.0000000E+00  0.1261603E-03
  0.2777778E+00  0.0000000E+00  0.2525252E-01 -0.3146572E-05  0.0000000E+00  0.1247273E-03
  0.2878788E+00  0.0000000E+00  0.2525252E-01 -0.3002860E-05  0.0000000E+00  0.1234027E-03
  0.2979798E+00  0.0000000E+00  0.2525252E-01 -0.2829671E-05  0.0000000E+00  0.1221953E-03
  0.3080808E+00  0.0000000E+00  0.2525252E-01 -0.2680585E-05  0.0000000E+00  0.1210930E-03
  0.3181818E+00  0.0000000E+00  0.2525252E-01 -0.2597931E-05  0.0000000E+00  0.1200656E-03
  0.3282828E+00  0.0000000E+00  0.2525252E-01 -0.2612419E-05  0.0000000E+00  0.1190659E-03
  0.3383838E+00  0.0000000E+00  0.2525252E-01 -0.2736237E-05  0.0000000E+00  0.1180327E-03
  0.3484848E+00  0.0000000E+00  0.2525252E-01 -0.2951584E-05  0.0000000E+00  0.1169026E-03
  0.3585859E+00  0.0000000E+00  0.2525252E-01 -0.3203384E-05  0.0000000E+00  0.1156321E-03
  0.3686869E+00  0.0000000E+00  0.2525252E-01 -0.3414024E-05  0.0000000E+00  0.1142216E-03
  0.3787879E+00  0.0000000E+00  0.2525252E-01 -0.3527113E-05  0.0000000E+00  0.1127155E-03
  0.3888889E+00  0.0000000E+00  0.2525252E-01 -0.3521678E-05  0.0000000E+00  0.1111783E-03
  0.3989899E+00  0.0000000E+00  0.2525252E-01 -0.3403852E-05  0.0000000E+00  0.1096729E-03
  0.4090909E+00  0.0000000E+00  0.2525252E-01 -0.3193660E-05  0.0000000E+00  0.1082493E-03
  0.4191919E+00  0.0000000E+00  0.2525252E-01 -0.2915111E-05  0.0000000E+00  0.1069433E-03
  0.4292929E+00  0.0000000E+00  0.2525252E-01 -0.2590800E-05  0.0000000E+00  0.1057774E-03
  0.4393939E+00  0.0000000E+00  0.2525252E-01 -0.2239751E-05  0.0000000E+00  0.1047642E-03
  0.4494950E+00  0.0000000E+00  0.2525252E-01 -0.1877051E-05  0.0000000E+00  0.1039092E-03
  0.4595959E+00  0.0000000E+00  0.2525252E-01 -0.1514290E-05  0.0000000E+00  0.1032122E-03
  0.4696970E+00  0.0000000E+00  0.2525252E-01 -0.1160247E-05  0.0000000E+00  0.1026697E-03
  0.4797980E+00  0.0000000E+00  0.2525252E-01 -0.8215636E-06  0.0000000E+00  0.1022751E-03
  0.4898990E+00  0.0000000E+00  0.2525252E-01 -0.5033083E-06  0.0000000E+00  0.1020200E-03
  0.5000000E+00  0.0000000E+00  0.2525252E-01 -0.2093969E-06  0.0000000E+00  0.1018943E-03
  0.5101010E+00  0.0000000E+00  0.2525252E-01  0.5711279E-07  0.0000000E+00  0.1018868E-03
  0.5202020E+00  0.0000000E+00  0.2525252E-01  0.2938453E-06  0.0000000E+00  0.1019850E-03
  0.5303030E+00  0.0000000E+00  0.2525252E-01  0.4990336E-06  0.0000000E+00  0.1021760E-03
  0.5404040E+00  0.0000000E+00  0.2525252E-01  0.6715263E-06  0.0000000E+00  0.1024459E-03
  0.5505050E+00  0.0000000E+00  0.2525252E-01  0.8108703E-06  0.0000000E+00  0.1027807E-03
  0.5606061E+00  0.0000000E+00  0.2525252E-01  0.9174466E-06  0.0000000E+00  0.1031662E-03
  0.5707071E+00  0.0000000E+00  0.2525252E-01  0.9926080E-06  0.0000000E+00  0.1035885E-03
  0.5808081E+00  0.0000000E+00  0.2525252E-01  0.1038702E-05  0.0000000E+00  0.1040352E-03
  0.5909091E+00  0.0000000E+00  0.2525252E-01  0.1058731E-05  0.0000000E+00  0.1044959E-03
  0.6010101E+00  0.0000000E+00  0.2525252E-01  0.1055127E-05  0.0000000E+00  0.1049641E-03
  0.6111111E+00  0.0000000E+00  0.2525252E-01  0.1026538E-05  0.0000000E+00  0.1054403E-03
  0.6212121E+00  0.0000000E+00  0.2525252E-01  0.9602413E-06  0.0000000E+00  0.1059347E-03
  0.6313131E+00  0.0000000E+00  0.2525252E-01  0.8145207E-06  0.0000000E+00  0.1064729E-03
  0.6414142E+00  0.0000000E+00  0.2525252E-01  0.4764748E-06  0.0000000E+00  0.1070940E-03
  0.6515151E+00  0.0000000E+00  0.2525252E-01 -0.3446634E-06  0.0000000E+00  0.1078005E-03
  0.6616161E+00  0.0000000E+00  0.2525252E-01 -0.2401571E-05  0.0000000E+00  0.1082397E-03
  0.6717172E+00  0.0000000E+00  0.2525252E-01 -0.7685277E-05  0.0000000E+00  0.1060699E-03
  0.6818182E+00  0.0000000E+00  0.2525252E-01 -0.9453198E-05  0.0000000E+00  0.1013783E-03
  0.6919192E+00  0.0000000E+00  0.2525252E-01 -0.9788752E-05  0.0000000E+00  0.9663883E-04
  0.7020202E+00  0.0000000E+00  0.2525252E-01 -0.9540641E-05  0.0000000E+00  0.9226418E-04
  0.7121212E+00  0.0000000E+00  0.2525252E-01 -0.9067011E-05  0.0000000E+00  0.8826455E-04
  0.7222222E+00  0.0000000E+00  0.2525252E-01 -0.8521595E-05  0.0000000E+00  0.8459099E-04
  0.7323232E+00  0.0000000E+00  0.2525252E-01 -0.7969794E-05  0.0000000E+00  0.8119882E-04
  0.7424242E+00  0.0000000E+00  0.2525252E-01 -0.7438061E-05  0.0000000E+00  0.7805447E-04
  0.7525253E+00  0.0000000E+00  0.2525252E-01 -0.6935630E-05  0.0000000E+00  0.7513292E-04
  0.7626263E+00  0.0000000E+00  0.2525252E-01 -0.6464262E-05  0.0000000E+00  0.7241474E-04
  0.7727273E+00  0.0000000E+00  0.2525252E-01 -0.6022646E-05  0.0000000E+00  0.6988427E-04
  0.7828283E+00  0.0000000E+00  0.2525252E-01 -0.5608371E-05  0.0000000E+00  0.6752840E-04
  0.7929293E+00  0.0000000E+00  0.2525252E-01 -0.5218783E-05  0.0000000E+00  0.6533591E-04
  0.8030303E+00  0.0000000E+00  0.2525252E-01 -0.4851343E-05  0.0000000E+00  0.6329702E-04
  0.8131313E+00  0.0000000E+00  0.2525252E-01 -0.4503745E-05  0.0000000E+00  0.6140311E-04
  0.8232324E+00  0.0000000E+00  0.2525252E-01 -0.4173952E-05  0.0000000E+00  0.5964651E-04
  0.8333333E+00  0.0000000E+00  0.2525252E-01 -0.3860174E-05  0.0000000E+00  0.5802036E-04
  0.8434343E+00  0.0000000E+00  0.2525252E-01 -0.3560844E-05  0.0000000E+00  0.5651849E-04
  0.8535354E+00  0.0000000E+00  0.2525252E-01 -0.3274582E-05  0.0000000E+00  0.5513532E-04
  0.8636364E+00  0.0000000E+00  0.2525252E-01 -0.3000166E-05  0.0000000E+00  0.5386580E-04
  0.8737374E+00  0.0000000E+00  0.2525252E-01 -0.2736502E-05  0.0000000E+00  0.5270534E-04
  0.8838384E+00  0.0000000E+00  0.2525252E-01 -0.2482599E-05  0.0000000E+00  0.5164976E-04
  0.8939394E+00  0.0000000E+00  0.2525252E-01 -0.2237545E-05  0.0000000E+00  0.5069527E-04
  0.9040404E+00  0.0000000E+00  0.2525252E-01 -0.2000490E-05  0.0000000E+00  0.4983843E-04
  0.9141414E+00  0.0000000E+00  0.2525252E-01 -0.1770629E-05  0.0000000E+00  0.4907613E-04
  0.9242424E+00  0.0000000E+00  0.2525252E-01 -0.1547184E-05  0.0000000E+00  0.4840559E-04
  0.9343435E+00  0.0000000E+00  0.2525252E-01 -0.1329398E-05  0.0000000E+00  0.4782432E-04
  0.9444444E+00  0.0000000E+00  0.2525252E-01 -0.1116522E-05  0.0000000E+00  0.4733016E-04
  0.9545454E+00  0.0000000E+00  0.2525252E-01 -0.9078114E-06  0.0000000E+00  0.4692123E-04
  0.9646465E+00  0.0000000E+00  0.2525252E-01 -0.7025178E-06  0.0000000E+00  0.4659597E-04
  0.9747475E+00  0.0000000E+00  0.2525252E-01 -0.4998896E-06  0.0000000E+00  0.4635313E-04
  0.9848485E+00  0.0000000E+00  0.2525252E-01 -0.2991694E-06  0.0000000E+00  0.4619176E-04
  0.9974747E+00  0.0000000E+00  0.2525252E-01 -0.9959570E-07  0.0000000E+00  0.4611123E-04
  0.5050505E-02  0.0000000E+00  0.3535353E-01  0.3292876E-06  0.0000000E+00  0.9405319E-04
  0.1515152E-01  0.0000000E+00  0.3535353E-01  0.9870994E-06  0.0000000E+00  0.9424992E-04
  0.2525252E-01  0.0000000E+00  0.3535353E-01  0.1642597E-05  0.0000000E+00  0.9464298E-04
  0.3535353E-01  0.0000000E+00  0.3535353E-01  0.2294140E-05  0.0000000E+00  0.9523157E-04
  0.4545455E-01  0.0000000E+00  0.3535353E-01  0.2939938E-05  0.0000000E+00  0.9601448E-04
  0.5555556E-01  0.0000000E+00  0.3535353E-01  0.3577988E-05  0.0000000E+00  0.9698999E-04
  0.6565657E-01  0.0000000E+00  0.3535353E-01  0.4206017E-05  0.0000000E+00  0.9815582E-04
  0.7575758E-01  0.0000000E+00  0.3535353E-01  0.4821431E-05  0.0000000E+00  0.9950905E-04
  0.8585858E-01  0.0000000E+00  0.3535353E-01  0.5421270E-05  0.0000000E+00  0.1010460E-03
  0.9595960E-01  0.0000000E+00  0.3535353E-01  0.6002155E-05  0.0000000E+00  0.1027622E-03
  0.1060606E+00  0.0000000E+00  0.3535353E-01  0.6560211E-05  0.0000000E+00  0.1046524E-03
  0.1161616E+00  0.0000000E+00  0.3535353E-01  0.7090917E-05  0.0000000E+00  0.1067105E-03
  0.1262626E+00  0.0000000E+00  0.3535353E-01  0.7588780E-05  0.0000000E+00  0.1089300E-03
  0.1363636E+00  0.0000000E+00  0.3535353E-01  0.8046637E-05  0.0000000E+00  0.1113045E-03
  0.1464646E+00  0.0000000E+00  0.3535353E-01  0.8454198E-05  0.0000000E+00  0.1138284E-03
  0.1565657E+00  0.0000000E+00  0.3535353E-01  0.8795080E-05  0.0000000E+00  0.1164989E-03
  0.1666667E+00  0.0000000E+00  0.3535353E-01  0.9040819E-05  0.0000000E+00  0.1193177E-03
  0.1767677E+00  0.0000000E+00  0.3535353E-01  0.9138763E-05  0.0000000E+00  0.1222924E-03
  0.1868687E+00  0.0000000E+00  0.3535353E-01  0.8987615E-05  0.0000000E+00  0.1254314E-03
  0.1969697E+00  0.0000000E+00  0.3535353E-01  0.8389281E-05  0.0000000E+00  0.1287120E-03
  0.2070707E+00  0.0000000E+00  0.3535353E-01  0.6967024E-05  0.0000000E+00  0.1319622E-03
  0.2171717E+00  0.0000000E+00  0.3535353E-01  0.4117495E-05  0.0000000E+00  0.1345374E-03
  0.2272727E+00  0.0000000E+00  0.3535353E-01 -0.3367536E-06  0.0000000E+00  0.1350322E-03
  0.2373737E+00  0.0000000E+00  0.3535353E-01 -0.2989900E-05  0.0000000E+00  0.1335322E-03
  0.2474747E+00  0.0000000E+00  0.3535353E-01 -0.4257697E-05  0.0000000E+00  0.1314788E-03
  0.2575758E+00  0.0000000E+00  0.3535353E-01 -0.4723810E-05  0.0000000E+00  0.1294553E-03
  0.2676768E+00  0.0000000E+00  0.3535353E-01 -0.4753630E-05  0.0000000E+00  0.1276235E-03
  0.2777778E+00  0.0000000E+00  0.3535353E-01 -0.4555902E-05  0.0000000E+00  0.1260098E-03
  0.2878788E+00  0.0000000E+00  0.3535353E-01 -0.4255951E-05  0.0000000E+00  0.1246049E-03
  0.2979798E+00  0.0000000E+00  0.3535353E-01 -0.3938988E-05  0.0000000E+00  0.1233897E-03