title = "dataset water"
variables = "x", "y", "z", "vx", "vy", "vz"
zone t = "velocities, solution time =  4.900E+01 days        " i =   99, j =   99, k =    1,  f=point
  0.5050505E-02  0.0000000E+00  0.5050505E-02  0.3853419E-08  0.0000000E+00  0.9024271E-05
  0.1515152E-01  0.0000000E+00  0.5050505E-02  0.1152085E-07  0.0000000E+00  0.9039707E-05
  0.2525252E-01  0.0000000E+00  0.5050505E-02  0.1907021E-07  0.0000000E+00  0.9070422E-05
  0.3535353E-01  0.0000000E+00  0.5050505E-02  0.2642326E-07  0.0000000E+00  0.9116099E-05
  0.4545455E-01  0.0000000E+00  0.5050505E-02  0.3350258E-07  0.0000000E+00  0.9176267E-05
  0.5555556E-01  0.0000000E+00  0.5050505E-02  0.4023205E-07  0.0000000E+00  0.9250300E-05
  0.6565657E-01  0.0000000E+00  0.5050505E-02  0.4653754E-07  0.0000000E+00  0.9337422E-05
  0.7575758E-01  0.0000000E+00  0.5050505E-02  0.5234782E-07  0.0000000E+00  0.9436709E-05
  0.8585858E-01  0.0000000E+00  0.5050505E-02  0.5759570E-07  0.0000000E+00  0.9547101E-05
  0.9595960E-01  0.0000000E+00  0.5050505E-02  0.6221942E-07  0.0000000E+00  0.9667407E-05
  0.1060606E+00  0.0000000E+00  0.5050505E-02  0.6616429E-07  0.0000000E+00  0.9796318E-05
  0.1161616E+00  0.0000000E+00  0.5050505E-02  0.6938444E-07  0.0000000E+00  0.9932426E-05
  0.1262626E+00  0.0000000E+00  0.5050505E-02  0.7184471E-07  0.0000000E+00  0.1007424E-04
  0.1363636E+00  0.0000000E+00  0.5050505E-02  0.7352242E-07  0.0000000E+00  0.1022021E-04
  0.1464646E+00  0.0000000E+00  0.5050505E-02  0.7440897E-07  0.0000000E+00  0.1036876E-04
  0.1565657E+00  0.0000000E+00  0.5050505E-02  0.7451097E-07  0.0000000E+00  0.1051831E-04
  0.1666667E+00  0.0000000E+00  0.5050505E-02  0.7385078E-07  0.0000000E+00  0.1066729E-04
  0.1767677E+00  0.0000000E+00  0.5050505E-02  0.7246631E-07  0.0000000E+00  0.1081423E-04
  0.1868687E+00  0.0000000E+00  0.5050505E-02  0.7041000E-07  0.0000000E+00  0.1095771E-04
  0.1969697E+00  0.0000000E+00  0.5050505E-02  0.6774681E-07  0.0000000E+00  0.1109646E-04
  0.2070707E+00  0.0000000E+00  0.5050505E-02  0.6455168E-07  0.0000000E+00  0.1122932E-04
  0.2171717E+00  0.0000000E+00  0.5050505E-02  0.6090625E-07  0.0000000E+00  0.1135532E-04
  0.2272727E+00  0.0000000E+00  0.5050505E-02  0.5689544E-07  0.0000000E+00  0.1147363E-04
  0.2373737E+00  0.0000000E+00  0.5050505E-02  0.5260401E-07  0.0000000E+00  0.1158360E-04
  0.2474747E+00  0.0000000E+00  0.5050505E-02  0.4811345E-07  0.0000000E+00  0.1168476E-04
  0.2575758E+00  0.0000000E+00  0.5050505E-02  0.4349948E-07  0.0000000E+00  0.1177677E-04
  0.2676768E+00  0.0000000E+00  0.5050505E-02  0.3883013E-07  0.0000000E+00  0.1185946E-04
  0.2777778E+00  0.0000000E+00  0.5050505E-02  0.3416457E-07  0.0000000E+00  0.1193278E-04
  0.2878788E+00  0.0000000E+00  0.5050505E-02  0.2955259E-07  0.0000000E+00  0.1199677E-04
  0.2979798E+00  0.0000000E+00  0.5050505E-02  0.2503462E-07  0.0000000E+00  0.1205160E-04
  0.3080808E+00  0.0000000E+00  0.5050505E-02  0.2064202E-07  0.0000000E+00  0.1209748E-04
  0.3181818E+00  0.0000000E+00  0.5050505E-02  0.1639777E-07  0.0000000E+00  0.1213468E-04
  0.3282828E+00  0.0000000E+00  0.5050505E-02  0.1231706E-07  0.0000000E+00  0.1216352E-04
  0.3383838E+00  0.0000000E+00  0.5050505E-02  0.8408033E-08  0.0000000E+00  0.1218434E-04
  0.3484848E+00  0.0000000E+00  0.5050505E-02  0.4672334E-08  0.0000000E+00  0.1219748E-04
  0.3585859E+00  0.0000000E+00  0.5050505E-02  0.1105635E-08  0.0000000E+00  0.1220328E-04
  0.3686869E+00  0.0000000E+00  0.5050505E-02 -0.2301987E-08  0.0000000E+00  0.1220208E-04
  0.3787879E+00  0.0000000E+00  0.5050505E-02 -0.5565742E-08  0.0000000E+00  0.1219418E-04
  0.3888889E+00  0.0000000E+00  0.5050505E-02 -0.8705893E-08  0.0000000E+00  0.1217984E-04
  0.3989899E+00  0.0000000E+00  0.5050505E-02 -0.1174752E-07  0.0000000E+00  0.1215930E-04
  0.4090909E+00  0.0000000E+00  0.5050505E-02 -0.1472029E-07  0.0000000E+00  0.1213271E-04
  0.4191919E+00  0.0000000E+00  0.5050505E-02 -0.1765814E-07  0.0000000E+00  0.1210019E-04
  0.4292929E+00  0.0000000E+00  0.5050505E-02 -0.2059888E-07  0.0000000E+00  0.1206177E-04
  0.4393939E+00  0.0000000E+00  0.5050505E-02 -0.2358368E-07  0.0000000E+00  0.1201739E-04
  0.4494950E+00  0.0000000E+00  0.5050505E-02 -0.2665629E-07  0.0000000E+00  0.1196693E-04
  0.4595959E+00  0.0000000E+00  0.5050505E-02 -0.2986217E-07  0.0000000E+00  0.1191016E-04
  0.4696970E+00  0.0000000E+00  0.5050505E-02 -0.3324725E-07  0.0000000E+00  0.1184678E-04
  0.4797980E+00  0.0000000E+00  0.5050505E-02 -0.3685642E-07  0.0000000E+00  0.1177637E-04
  0.4898990E+00  0.0000000E+00  0.5050505E-02 -0.4073172E-07  0.0000000E+00  0.1169844E-04
  0.5000000E+00  0.0000000E+00  0.5050505E-02 -0.4491013E-07  0.0000000E+00  0.1161243E-04
  0.5101010E+00  0.0000000E+00  0.5050505E-02 -0.4942109E-07  0.0000000E+00  0.1151769E-04
  0.5202020E+00  0.0000000E+00  0.5050505E-02 -0.5428373E-07  0.0000000E+00  0.1141353E-04
  0.5303030E+00  0.0000000E+00  0.5050505E-02 -0.5950402E-07  0.0000000E+00  0.1129925E-04
  0.5404040E+00  0.0000000E+00  0.5050505E-02 -0.6507202E-07  0.0000000E+00  0.1117414E-04
  0.5505050E+00  0.0000000E+00  0.5050505E-02 -0.7095949E-07  0.0000000E+00  0.1103753E-04
  0.5606061E+00  0.0000000E+00  0.5050505E-02 -0.7711832E-07  0.0000000E+00  0.1088882E-04
  0.5707071E+00  0.0000000E+00  0.5050505E-02 -0.8348005E-07  0.0000000E+00  0.1072754E-04
  0.5808081E+00  0.0000000E+00  0.5050505E-02 -0.8995692E-07  0.0000000E+00  0.1055337E-04
  0.5909091E+00  0.0000000E+00  0.5050505E-02 -0.9644466E-07  0.0000000E+00  0.1036619E-04
  0.6010101E+00  0.0000000E+00  0.5050505E-02 -0.1028270E-06  0.0000000E+00  0.1016609E-04
  0.6111111E+00  0.0000000E+00  0.5050505E-02 -0.1089817E-06  0.0000000E+00  0.9953403E-05
  0.6212121E+00  0.0000000E+00  0.5050505E-02 -0.1147872E-06  0.0000000E+00  0.9728713E-05
  0.6313131E+00  0.0000000E+00  0.5050505E-02 -0.1201302E-06  0.0000000E+00  0.9492835E-05
  0.6414142E+00  0.0000000E+00  0.5050505E-02 -0.1249112E-06  0.0000000E+00  0.9246800E-05
  0.6515151E+00  0.0000000E+00  0.5050505E-02 -0.1290502E-06  0.0000000E+00  0.8991816E-05
  0.6616161E+00  0.0000000E+00  0.5050505E-02 -0.1324891E-06  0.0000000E+00  0.8729233E-05
  0.6717172E+00  0.0000000E+00  0.5050505E-02 -0.1351925E-06  0.0000000E+00  0.8460491E-05
  0.6818182E+00  0.0000000E+00  0.5050505E-02 -0.1371471E-06  0.0000000E+00  0.8187082E-05
  0.6919192E+00  0.0000000E+00  0.5050505E-02 -0.1383588E-06  0.0000000E+00  0.7910504E-05
  0.7020202E+00  0.0000000E+00  0.5050505E-02 -0.1388495E-06  0.0000000E+00  0.7632226E-05
  0.7121212E+00  0.0000000E+00  0.5050505E-02 -0.1386533E-06  0.0000000E+00  0.7353662E-05
  0.7222222E+00  0.0000000E+00  0.5050505E-02 -0.1378123E-06  0.0000000E+00  0.7076149E-05
  0.7323232E+00  0.0000000E+00  0.5050505E-02 -0.1363738E-06  0.0000000E+00  0.6800933E-05
  0.7424242E+00  0.0000000E+00  0.5050505E-02 -0.1343872E-06  0.0000000E+00  0.6529164E-05
  0.7525253E+00  0.0000000E+00  0.5050505E-02 -0.1319017E-06  0.0000000E+00  0.6261892E-05
  0.7626263E+00  0.0000000E+00  0.5050505E-02 -0.1289650E-06  0.0000000E+00  0.6000071E-05
  0.7727273E+00  0.0000000E+00  0.5050505E-02 -0.1256219E-06  0.0000000E+00  0.5744561E-05
  0.7828283E+00  0.0000000E+00  0.5050505E-02 -0.1219140E-06  0.0000000E+00  0.5496135E-05
  0.7929293E+00  0.0000000E+00  0.5050505E-02 -0.1178794E-06  0.0000000E+00  0.5255486E-05
  0.8030303E+00  0.0000000E+00  0.5050505E-02 -0.1135523E-06  0.0000000E+00  0.5023236E-05
  0.8131313E+00  0.0000000E+00  0.5050505E-02 -0.1089637E-06  0.0000000E+00  0.4799939E-05
  0.8232324E+00  0.0000000E+00  0.5050505E-02 -0.1041412E-06  0.0000000E+00  0.4586091E-05
  0.8333333E+00  0.0000000E+00  0.5050505E-02 -0.9910953E-07  0.0000000E+00  0.4382137E-05
  0.8434343E+00  0.0000000E+00  0.5050505E-02 -0.9389081E-07  0.0000000E+00  0.4188474E-05
  0.8535354E+00  0.0000000E+00  0.5050505E-02 -0.8850485E-07  0.0000000E+00  0.4005456E-05
  0.8636364E+00  0.0000000E+00  0.5050505E-02 -0.8296942E-07  0.0000000E+00  0.3833400E-05
  0.8737374E+00  0.0000000E+00  0.5050505E-02 -0.7730060E-07  0.0000000E+00  0.3672589E-05
  0.8838384E+00  0.0000000E+00  0.5050505E-02 -0.7151292E-07  0.0000000E+00  0.3523277E-05
  0.8939394E+00  0.0000000E+00  0.5050505E-02 -0.6561966E-07  0.0000000E+00  0.3385687E-05
  0.9040404E+00  0.0000000E+00  0.5050505E-02 -0.5963301E-07  0.0000000E+00  0.3260018E-05
  0.9141414E+00  0.0000000E+00  0.5050505E-02 -0.5356419E-07  0.0000000E+00  0.3146446E-05
  0.9242424E+00  0.0000000E+00  0.5050505E-02 -0.4742368E-07  0.0000000E+00  0.3045126E-05
  0.9343435E+00  0.0000000E+00  0.5050505E-02 -0.4122128E-07  0.0000000E+00  0.2956190E-05
  0.9444444E+00  0.0000000E+00  0.5050505E-02 -0.3496623E-07  0.0000000E+00  0.2879753E-05
  0.9545454E+00  0.0000000E+00  0.5050505E-02 -0.2866733E-07  0.0000000E+00  0.2815911E-05
  0.9646465E+00  0.0000000E+00  0.5050505E-02 -0.2233303E-07  0.0000000E+00  0.2764745E-05
  0.9747475E+00  0.0000000E+00  0.5050505E-02 -0.1597146E-07  0.0000000E+00  0.2726315E-05
  0.9848485E+00  0.0000000E+00  0.5050505E-02 -0.9590572E-08  0.0000000E+00  0.2700670E-05
  0.9974747E+00  0.0000000E+00  0.5050505E-02 -0.3198138E-08  0.0000000E+00  0.2687840E-05
  0.5050505E-02  0.0000000E+00  0.1515152E-01  0.1160837E-07  0.0000000E+00  0.9083540E-05
  0.1515152E-01  0.0000000E+00  0.1515152E-01  0.3470663E-07  0.0000000E+00  0.9099214E-05
  0.2525252E-01  0.0000000E+00  0.1515152E-01  0.5744986E-07  0.0000000E+00  0.9130403E-05
  0.3535353E-01  0.0000000E+00  0.1515152E-01  0.7960271E-07  0.0000000E+00  0.9176787E-05
  0.4545455E-01  0.0000000E+00  0.1515152E-01  0.1009321E-06  0.0000000E+00  0.9237891E-05
  0.5555556E-01  0.0000000E+00  0.1515152E-01  0.1212088E-06  0.0000000E+00  0.9313080E-05
  0.6565657E-01  0.0000000E+00  0.1515152E-01  0.1402091E-06  0.0000000E+00  0.9401568E-05
  0.7575758E-01  0.0000000E+00  0.1515152E-01  0.1577181E-06  0.0000000E+00  0.9502420E-05
  0.8585858E-01  0.0000000E+00  0.1515152E-01  0.1735323E-06  0.0000000E+00  0.9614558E-05
  0.9595960E-01  0.0000000E+00  0.1515152E-01  0.1874648E-06  0.0000000E+00  0.9736771E-05
  0.1060606E+00  0.0000000E+00  0.1515152E-01  0.1993495E-06  0.0000000E+00  0.9867726E-05
  0.1161616E+00  0.0000000E+00  0.1515152E-01  0.2090467E-06  0.0000000E+00  0.1000599E-04
  0.1262626E+00  0.0000000E+00  0.1515152E-01  0.2164491E-06  0.0000000E+00  0.1015003E-04
  0.1363636E+00  0.0000000E+00  0.1515152E-01  0.2214869E-06  0.0000000E+00  0.1029826E-04
  0.1464646E+00  0.0000000E+00  0.1515152E-01  0.2241334E-06  0.0000000E+00  0.1044908E-04
  0.1565657E+00  0.0000000E+00  0.1515152E-01  0.2244078E-06  0.0000000E+00  0.1060084E-04
  0.1666667E+00  0.0000000E+00  0.1515152E-01  0.2223776E-06  0.0000000E+00  0.1075197E-04
  0.1767677E+00  0.0000000E+00  0.1515152E-01  0.2181581E-06  0.0000000E+00  0.1090092E-04
  0.1868687E+00  0.0000000E+00  0.1515152E-01  0.2119086E-06  0.0000000E+00  0.1104627E-04
  0.1969697E+00  0.0000000E+00  0.1515152E-01  0.2038272E-06  0.0000000E+00  0.1118669E-04
  0.2070707E+00  0.0000000E+00  0.1515152E-01  0.1941423E-06  0.0000000E+00  0.1132101E-04
  0.2171717E+00  0.0000000E+00  0.1515152E-01  0.1831029E-06  0.0000000E+00  0.1144825E-04
  0.2272727E+00  0.0000000E+00  0.1515152E-01  0.1709676E-06  0.0000000E+00  0.1156758E-04
  0.2373737E+00  0.0000000E+00  0.1515152E-01  0.1579941E-06  0.0000000E+00  0.1167833E-04
  0.2474747E+00  0.0000000E+00  0.1515152E-01  0.1444301E-06  0.0000000E+00  0.1178006E-04
  0.2575758E+00  0.0000000E+00  0.1515152E-01  0.1305047E-06  0.0000000E+00  0.1187243E-04
  0.2676768E+00  0.0000000E+00  0.1515152E-01  0.1164236E-06  0.0000000E+00  0.1195530E-04
  0.2777778E+00  0.0000000E+00  0.1515152E-01  0.1023651E-06  0.0000000E+00  0.1202863E-04
  0.2878788E+00  0.0000000E+00  0.1515152E-01  0.8847862E-07  0.0000000E+00  0.1209251E-04
  0.2979798E+00  0.0000000E+00  0.1515152E-01  0.7488519E-07  0.0000000E+00  0.1214709E-04
  0.3080808E+00  0.0000000E+00  0.1515152E-01  0.6167840E-07  0.0000000E+00  0.1219264E-04
  0.3181818E+00  0.0000000E+00  0.1515152E-01  0.4892643E-07  0.0000000E+00  0.1222943E-04
  0.3282828E+00  0.0000000E+00  0.1515152E-01  0.3667415E-07  0.0000000E+00  0.1225781E-04
  0.3383838E+00  0.0000000E+00  0.1515152E-01  0.2494529E-07  0.0000000E+00  0.1227813E-04
  0.3484848E+00  0.0000000E+00  0.1515152E-01  0.1374418E-07  0.0000000E+00  0.1229075E-04
  0.3585859E+00  0.0000000E+00  0.1515152E-01  0.3057313E-08  0.0000000E+00  0.1229604E-04
  0.3686869E+00  0.0000000E+00  0.1515152E-01 -0.7145537E-08  0.0000000E+00  0.1229433E-04
  0.3787879E+00  0.0000000E+00  0.1515152E-01 -0.1691042E-07  0.0000000E+00  0.1228595E-04
  0.3888889E+00  0.0000000E+00  0.1515152E-01 -0.2629854E-07  0.0000000E+00  0.1227118E-04
  0.3989899E+00  0.0000000E+00  0.1515152E-01 -0.3538559E-07  0.0000000E+00  0.1225025E-04
  0.4090909E+00  0.0000000E+00  0.1515152E-01 -0.4426108E-07  0.0000000E+00  0.1222334E-04
  0.4191919E+00  0.0000000E+00  0.1515152E-01 -0.5302748E-07  0.0000000E+00  0.1219057E-04
  0.4292929E+00  0.0000000E+00  0.1515152E-01 -0.6179905E-07  0.0000000E+00  0.1215198E-04
  0.4393939E+00  0.0000000E+00  0.1515152E-01 -0.7070026E-07  0.0000000E+00  0.1210752E-04
  0.4494950E+00  0.0000000E+00  0.1515152E-01 -0.7986368E-07  0.0000000E+00  0.1205707E-04
  0.4595959E+00  0.0000000E+00  0.1515152E-01 -0.8942721E-07  0.0000000E+00  0.1200041E-04
  0.4696970E+00  0.0000000E+00  0.1515152E-01 -0.9953052E-07  0.0000000E+00  0.1193721E-04
  0.4797980E+00  0.0000000E+00  0.1515152E-01 -0.1103105E-06  0.0000000E+00  0.1186706E-04
  0.4898990E+00  0.0000000E+00  0.1515152E-01 -0.1218959E-06  0.0000000E+00  0.1178947E-04
  0.5000000E+00  0.0000000E+00  0.1515152E-01 -0.1344005E-06  0.0000000E+00  0.1170384E-04
  0.5101010E+00  0.0000000E+00  0.1515152E-01 -0.1479157E-06  0.0000000E+00  0.1160950E-04
  0.5202020E+00  0.0000000E+00  0.1515152E-01 -0.1625022E-06  0.0000000E+00  0.1150575E-04
  0.5303030E+00  0.0000000E+00  0.1515152E-01 -0.1781808E-06  0.0000000E+00  0.1139182E-04
  0.5404040E+00  0.0000000E+00  0.1515152E-01 -0.1949244E-06  0.0000000E+00  0.1126697E-04
  0.5505050E+00  0.0000000E+00  0.1515152E-01 -0.2126498E-06  0.0000000E+00  0.1113049E-04
  0.5606061E+00  0.0000000E+00  0.1515152E-01 -0.2312129E-06  0.0000000E+00  0.1098172E-04
  0.5707071E+00  0.0000000E+00  0.1515152E-01 -0.2504072E-06  0.0000000E+00  0.1082015E-04
  0.5808081E+00  0.0000000E+00  0.1515152E-01 -0.2699661E-06  0.0000000E+00  0.1064541E-04
  0.5909091E+00  0.0000000E+00  0.1515152E-01 -0.2895717E-06  0.0000000E+00  0.1045735E-04
  0.6010101E+00  0.0000000E+00  0.1515152E-01 -0.3088683E-06  0.0000000E+00  0.1025604E-04
  0.6111111E+00  0.0000000E+00  0.1515152E-01 -0.3274814E-06  0.0000000E+00  0.1004182E-04
  0.6212121E+00  0.0000000E+00  0.1515152E-01 -0.3450388E-06  0.0000000E+00  0.9815258E-05
  0.6313131E+00  0.0000000E+00  0.1515152E-01 -0.3611927E-06  0.0000000E+00  0.9577214E-05
  0.6414142E+00  0.0000000E+00  0.1515152E-01 -0.3756397E-06  0.0000000E+00  0.9328753E-05
  0.6515151E+00  0.0000000E+00  0.1515152E-01 -0.3881357E-06  0.0000000E+00  0.9071135E-05
  0.6616161E+00  0.0000000E+00  0.1515152E-01 -0.3985050E-06  0.0000000E+00  0.8805763E-05
  0.6717172E+00  0.0000000E+00  0.1515152E-01 -0.4066427E-06  0.0000000E+00  0.8534136E-05
  0.6818182E+00  0.0000000E+00  0.1515152E-01 -0.4125108E-06  0.0000000E+00  0.8257796E-05
  0.6919192E+00  0.0000000E+00  0.1515152E-01 -0.4161309E-06  0.0000000E+00  0.7978288E-05
  0.7020202E+00  0.0000000E+00  0.1515152E-01 -0.4175725E-06  0.0000000E+00  0.7697123E-05
  0.7121212E+00  0.0000000E+00  0.1515152E-01 -0.4169415E-06  0.0000000E+00  0.7415743E-05
  0.7222222E+00  0.0000000E+00  0.1515152E-01 -0.4143686E-06  0.0000000E+00  0.7135510E-05
  0.7323232E+00  0.0000000E+00  0.1515152E-01 -0.4099986E-06  0.0000000E+00  0.6857686E-05
  0.7424242E+00  0.0000000E+00  0.1515152E-01 -0.4039822E-06  0.0000000E+00  0.6583430E-05
  0.7525253E+00  0.0000000E+00  0.1515152E-01 -0.3964692E-06  0.0000000E+00  0.6313798E-05
  0.7626263E+00  0.0000000E+00  0.1515152E-01 -0.3876038E-06  0.0000000E+00  0.6049745E-05
  0.7727273E+00  0.0000000E+00  0.1515152E-01 -0.3775216E-06  0.0000000E+00  0.5792129E-05
  0.7828283E+00  0.0000000E+00  0.1515152E-01 -0.3663478E-06  0.0000000E+00  0.5541721E-05
  0.7929293E+00  0.0000000E+00  0.1515152E-01 -0.3541967E-06  0.0000000E+00  0.5299211E-05
  0.8030303E+00  0.0000000E+00  0.1515152E-01 -0.3411713E-06  0.0000000E+00  0.5065214E-05
  0.8131313E+00  0.0000000E+00  0.1515152E-01 -0.3273642E-06  0.0000000E+00  0.4840282E-05
  0.8232324E+00  0.0000000E+00  0.1515152E-01 -0.3128582E-06  0.0000000E+00  0.4624907E-05
  0.8333333E+00  0.0000000E+00  0.1515152E-01 -0.2977274E-06  0.0000000E+00  0.4419529E-05
  0.8434343E+00  0.0000000E+00  0.1515152E-01 -0.2820376E-06  0.0000000E+00  0.4224540E-05
  0.8535354E+00  0.0000000E+00  0.1515152E-01 -0.2658482E-06  0.0000000E+00  0.4040292E-05
  0.8636364E+00  0.0000000E+00  0.1515152E-01 -0.2492123E-06  0.0000000E+00  0.3867099E-05
  0.8737374E+00  0.0000000E+00  0.1515152E-01 -0.2321778E-06  0.0000000E+00  0.3705242E-05
  0.8838384E+00  0.0000000E+00  0.1515152E-01 -0.2147882E-06  0.0000000E+00  0.3554970E-05
  0.8939394E+00  0.0000000E+00  0.1515152E-01 -0.1970830E-06  0.0000000E+00  0.3416507E-05
  0.9040404E+00  0.0000000E+00  0.1515152E-01 -0.1790988E-06  0.0000000E+00  0.3290049E-05
  0.9141414E+00  0.0000000E+00  0.1515152E-01 -0.1608690E-06  0.0000000E+00  0.3175771E-05
  0.9242424E+00  0.0000000E+00  0.1515152E-01 -0.1424250E-06  0.0000000E+00  0.3073825E-05
  0.9343435E+00  0.0000000E+00  0.1515152E-01 -0.1237959E-06  0.0000000E+00  0.2984345E-05
  0.9444444E+00  0.0000000E+00  0.1515152E-01 -0.1050095E-06  0.0000000E+00  0.2907442E-05
  0.9545454E+00  0.0000000E+00  0.1515152E-01 -0.8609201E-07  0.0000000E+00  0.2843214E-05
  0.9646465E+00  0.0000000E+00  0.1515152E-01 -0.6706870E-07  0.0000000E+00  0.2791739E-05
  0.9747475E+00  0.0000000E+00  0.1515152E-01 -0.4796390E-07  0.0000000E+00  0.2753079E-05
  0.9848485E+00  0.0000000E+00  0.1515152E-01 -0.2880134E-07  0.0000000E+00  0.2727279E-05
  0.9974747E+00  0.0000000E+00  0.1515152E-01 -0.9604271E-08  0.0000000E+00  0.2714372E-05
  0.5050505E-02  0.0000000E+00  0.2525252E-01  0.1951942E-07  0.0000000E+00  0.9202213E-05
  0.1515152E-01  0.0000000E+00  0.2525252E-01  0.5835982E-07  0.0000000E+00  0.9218366E-05
  0.2525252E-01  0.0000000E+00  0.2525252E-01  0.9660549E-07  0.0000000E+00  0.9250509E-05
  0.3535353E-01  0.0000000E+00  0.2525252E-01  0.1338619E-06  0.0000000E+00  0.9298316E-05
  0.4545455E-01  0.0000000E+00  0.2525252E-01  0.1697378E-06  0.0000000E+00  0.9361302E-05
  0.5555556E-01  0.0000000E+00  0.2525252E-01  0.2038476E-06  0.0000000E+00  0.9438818E-05
  0.6565657E-01  0.0000000E+00  0.2525252E-01  0.2358145E-06  0.0000000E+00  0.9530059E-05
  0.7575758E-01  0.0000000E+00  0.2525252E-01  0.2652752E-06  0.0000000E+00  0.9634064E-05
  0.8585858E-01  0.0000000E+00  0.2525252E-01  0.2918852E-06  0.0000000E+00  0.9749723E-05
  0.9595960E-01  0.0000000E+00  0.2525252E-01  0.3153262E-06  0.0000000E+00  0.9875784E-05
  0.1060606E+00  0.0000000E+00  0.2525252E-01  0.3353145E-06  0.0000000E+00  0.1001087E-04
  0.1161616E+00  0.0000000E+00  0.2525252E-01  0.3516104E-06  0.0000000E+00  0.1015347E-04
  0.1262626E+00  0.0000000E+00  0.2525252E-01  0.3640283E-06  0.0000000E+00  0.1030201E-04
  0.1363636E+00  0.0000000E+00  0.2525252E-01  0.3724464E-06  0.0000000E+00  0.1045483E-04
  0.1464646E+00  0.0000000E+00  0.2525252E-01  0.3768159E-06  0.0000000E+00  0.1061023E-04
  0.1565657E+00  0.0000000E+00  0.2525252E-01  0.3771676E-06  0.0000000E+00  0.1076649E-04
  0.1666667E+00  0.0000000E+00  0.2525252E-01  0.3736152E-06  0.0000000E+00  0.1092194E-04
  0.1767677E+00  0.0000000E+00  0.2525252E-01  0.3663553E-06  0.0000000E+00  0.1107497E-04
  0.1868687E+00  0.0000000E+00  0.2525252E-01  0.3556614E-06  0.0000000E+00  0.1122407E-04
  0.1969697E+00  0.0000000E+00  0.2525252E-01  0.3418744E-06  0.0000000E+00  0.1136787E-04
  0.2070707E+00  0.0000000E+00  0.2525252E-01  0.3253877E-06  0.0000000E+00  0.1150514E-04
  0.2171717E+00  0.0000000E+00  0.2525252E-01  0.3066299E-06  0.0000000E+00  0.1163487E-04
  0.2272727E+00  0.0000000E+00  0.2525252E-01  0.2860455E-06  0.0000000E+00  0.1175622E-04
  0.2373737E+00  0.0000000E+00  0.2525252E-01  0.2640766E-06  0.0000000E+00  0.1186854E-04
  0.2474747E+00  0.0000000E+00  0.2525252E-01  0.2411460E-06  0.0000000E+00  0.1197138E-04
  0.2575758E+00  0.0000000E+00  0.2525252E-01  0.2176437E-06  0.0000000E+00  0.1206446E-04
  0.2676768E+00  0.0000000E+00  0.2525252E-01  0.1939171E-06  0.0000000E+00  0.1214767E-04
  0.2777778E+00  0.0000000E+00  0.2525252E-01  0.1702659E-06  0.0000000E+00  0.1222101E-04
  0.2878788E+00  0.0000000E+00  0.2525252E-01  0.1469400E-06  0.0000000E+00  0.1228461E-04
  0.2979798E+00  0.0000000E+00  0.2525252E-01  0.1241399E-06  0.0000000E+00  0.1233869E-04
  0.3080808E+00  0.0000000E+00  0.2525252E-01  0.1020198E-06  0.0000000E+00  0.1238353E-04
  0.3181818E+00  0.0000000E+00  0.2525252E-01  0.8069076E-07  0.0000000E+00  0.1241949E-04
  0.3282828E+00  0.0000000E+00  0.2525252E-01  0.6022528E-07  0.0000000E+00  0.1244692E-04
  0.3383838E+00  0.0000000E+00  0.2525252E-01  0.4066052E-07  0.0000000E+00  0.1246622E-04
  0.3484848E+00  0.0000000E+00  0.2525252E-01  0.2200171E-07  0.0000000E+00  0.1247779E-04
  0.3585859E+00  0.0000000E+00  0.2525252E-01  0.4224554E-08  0.0000000E+00  0.1248202E-04
  0.3686869E+00  0.0000000E+00  0.2525252E-01 -0.1272283E-07  0.0000000E+00  0.1247928E-04
  0.3787879E+00  0.0000000E+00  0.2525252E-01 -0.2891859E-07  0.0000000E+00  0.1246993E-04
  0.3888889E+00  0.0000000E+00  0.2525252E-01 -0.4446612E-07  0.0000000E+00  0.1245427E-04
  0.3989899E+00  0.0000000E+00  0.2525252E-01 -0.5949311E-07  0.0000000E+00  0.1243255E-04
  0.4090909E+00  0.0000000E+00  0.2525252E-01 -0.7415057E-07  0.0000000E+00  0.1240499E-04
  0.4191919E+00  0.0000000E+00  0.2525252E-01 -0.8861148E-07  0.0000000E+00  0.1237171E-04
  0.4292929E+00  0.0000000E+00  0.2525252E-01 -0.1030690E-06  0.0000000E+00  0.1233278E-04
  0.4393939E+00  0.0000000E+00  0.2525252E-01 -0.1177342E-06  0.0000000E+00  0.1228816E-04
  0.4494950E+00  0.0000000E+00  0.2525252E-01 -0.1328321E-06  0.0000000E+00  0.1223772E-04
  0.4595959E+00  0.0000000E+00  0.2525252E-01 -0.1485979E-06  0.0000000E+00  0.1218126E-04
  0.4696970E+00  0.0000000E+00  0.2525252E-01 -0.1652708E-06  0.0000000E+00  0.1211845E-04
  0.4797980E+00  0.0000000E+00  0.2525252E-01 -0.1830866E-06  0.0000000E+00  0.1204886E-04
  0.4898990E+00  0.0000000E+00  0.2525252E-01 -0.2022683E-06  0.0000000E+00  0.1197196E-04
  0.5000000E+00  0.0000000E+00  0.2525252E-01 -0.2230158E-06  0.0000000E+00  0.1188712E-04
  0.5101010E+00  0.0000000E+00  0.2525252E-01 -0.2454919E-06  0.0000000E+00  0.1179363E-04
  0.5202020E+00  0.0000000E+00  0.2525252E-01 -0.2698088E-06  0.0000000E+00  0.1169071E-04
  0.5303030E+00  0.0000000E+00  0.2525252E-01 -0.2960117E-06  0.0000000E+00  0.1157754E-04
  0.5404040E+00  0.0000000E+00  0.2525252E-01 -0.3240640E-06  0.0000000E+00  0.1145327E-04
  0.5505050E+00  0.0000000E+00  0.2525252E-01 -0.3538331E-06  0.0000000E+00  0.1131709E-04
  0.5606061E+00  0.0000000E+00  0.2525252E-01 -0.3850804E-06  0.0000000E+00  0.1116826E-04
  0.5707071E+00  0.0000000E+00  0.2525252E-01 -0.4174569E-06  0.0000000E+00  0.1100615E-04
  0.5808081E+00  0.0000000E+00  0.2525252E-01 -0.4505074E-06  0.0000000E+00  0.1083031E-04
  0.5909091E+00  0.0000000E+00  0.2525252E-01 -0.4836842E-06  0.0000000E+00  0.1064052E-04
  0.6010101E+00  0.0000000E+00  0.2525252E-01 -0.5163712E-06  0.0000000E+00  0.1043680E-04
  0.6111111E+00  0.0000000E+00  0.2525252E-01 -0.5479170E-06  0.0000000E+00  0.1021947E-04
  0.6212121E+00  0.0000000E+00  0.2525252E-01 -0.5776734E-06  0.0000000E+00  0.9989138E-05
  0.6313131E+00  0.0000000E+00  0.2525252E-01 -0.6050357E-06  0.0000000E+00  0.9746709E-05
  0.6414142E+00  0.0000000E+00  0.2525252E-01 -0.6294784E-06  0.0000000E+00  0.9493333E-05
  0.6515151E+00  0.0000000E+00  0.2525252E-01 -0.6505823E-06  0.0000000E+00  0.9230375E-05
  0.6616161E+00  0.0000000E+00  0.2525252E-01 -0.6680502E-06  0.0000000E+00  0.8959354E-05
  0.6717172E+00  0.0000000E+00  0.2525252E-01 -0.6817099E-06  0.0000000E+00  0.8681882E-05
  0.6818182E+00  0.0000000E+00  0.2525252E-01 -0.6915070E-06  0.0000000E+00  0.8399614E-05
  0.6919192E+00  0.0000000E+00  0.2525252E-01 -0.6974892E-06  0.0000000E+00  0.8114189E-05
  0.7020202E+00  0.0000000E+00  0.2525252E-01 -0.6997867E-06  0.0000000E+00  0.7827198E-05
  0.7121212E+00  0.0000000E+00  0.2525252E-01 -0.6985898E-06  0.0000000E+00  0.7540147E-05
  0.7222222E+00  0.0000000E+00  0.2525252E-01 -0.6941290E-06  0.0000000E+00  0.7254441E-05
  0.7323232E+00  0.0000000E+00  0.2525252E-01 -0.6866568E-06  0.0000000E+00  0.6971375E-05
  0.7424242E+00  0.0000000E+00  0.2525252E-01 -0.6764330E-06  0.0000000E+00  0.6692125E-05
  0.7525253E+00  0.0000000E+00  0.2525252E-01 -0.6637137E-06  0.0000000E+00  0.6417757E-05
  0.7626263E+00  0.0000000E+00  0.2525252E-01 -0.6487441E-06  0.0000000E+00  0.6149227E-05
  0.7727273E+00  0.0000000E+00  0.2525252E-01 -0.6317532E-06  0.0000000E+00  0.5887390E-05
  0.7828283E+00  0.0000000E+00  0.2525252E-01 -0.6129516E-06  0.0000000E+00  0.5633012E-05
  0.7929293E+00  0.0000000E+00  0.2525252E-01 -0.5925303E-06  0.0000000E+00  0.5386772E-05
  0.8030303E+00  0.0000000E+00  0.2525252E-01 -0.5706614E-06  0.0000000E+00  0.5149278E-05
  0.8131313E+00  0.0000000E+00  0.2525252E-01 -0.5474990E-06  0.0000000E+00  0.4921073E-05
  0.8232324E+00  0.0000000E+00  0.2525252E-01 -0.5231804E-06  0.0000000E+00  0.4702638E-05
  0.8333333E+00  0.0000000E+00  0.2525252E-01 -0.4978283E-06  0.0000000E+00  0.4494407E-05
  0.8434343E+00  0.0000000E+00  0.2525252E-01 -0.4715519E-06  0.0000000E+00  0.4296763E-05
  0.8535354E+00  0.0000000E+00  0.2525252E-01 -0.4444491E-06  0.0000000E+00  0.4110053E-05
  0.8636364E+00  0.0000000E+00  0.2525252E-01 -0.4166079E-06  0.0000000E+00  0.3934583E-05
  0.8737374E+00  0.0000000E+00  0.2525252E-01 -0.3881073E-06  0.0000000E+00  0.3770630E-05
  0.8838384E+00  0.0000000E+00  0.2525252E-01 -0.3590192E-06  0.0000000E+00  0.3618438E-05
  0.8939394E+00  0.0000000E+00  0.2525252E-01 -0.3294091E-06  0.0000000E+00  0.3478226E-05
  0.9040404E+00  0.0000000E+00  0.2525252E-01 -0.2993372E-06  0.0000000E+00  0.3350188E-05
  0.9141414E+00  0.0000000E+00  0.2525252E-01 -0.2688589E-06  0.0000000E+00  0.3234496E-05
  0.9242424E+00  0.0000000E+00  0.2525252E-01 -0.2380259E-06  0.0000000E+00  0.3131298E-05
  0.9343435E+00  0.0000000E+00  0.2525252E-01 -0.2068867E-06  0.0000000E+00  0.3040727E-05
  0.9444444E+00  0.0000000E+00  0.2525252E-01 -0.1754870E-06  0.0000000E+00  0.2962893E-05
  0.9545454E+00  0.0000000E+00  0.2525252E-01 -0.1438703E-06  0.0000000E+00  0.2897890E-05
  0.9646465E+00  0.0000000E+00  0.2525252E-01 -0.1120783E-06  0.0000000E+00  0.2845796E-05
  0.9747475E+00  0.0000000E+00  0.2525252E-01 -0.8015145E-07  0.0000000E+00  0.2806673E-05
  0.9848485E+00  0.0000000E+00  0.2525252E-01 -0.4812894E-07  0.0000000E+00  0.2780566E-05
  0.9974747E+00  0.0000000E+00  0.2525252E-01 -0.1604931E-07  0.0000000E+00  0.2767504E-05
  0.5050505E-02  0.0000000E+00  0.3535353E-01  0.2770749E-07  0.0000000E+00  0.9380422E-05
  0.1515152E-01  0.0000000E+00  0.3535353E-01  0.8284256E-07  0.0000000E+00  0.9397300E-05
  0.2525252E-01  0.0000000E+00  0.3535353E-01  0.1371384E-06  0.0000000E+00  0.9430887E-05
  0.3535353E-01  0.0000000E+00  0.3535353E-01  0.1900377E-06  0.0000000E+00  0.9480852E-05
  0.4545455E-01  0.0000000E+00  0.3535353E-01  0.2409866E-06  0.0000000E+00  0.9546692E-05
  0.5555556E-01  0.0000000E+00  0.3535353E-01  0.2894379E-06  0.0000000E+00  0.9627739E-05
  0.6565657E-01  0.0000000E+00  0.3535353E-01  0.3348554E-06  0.0000000E+00  0.9723160E-05
  0.7575758E-01  0.0000000E+00  0.3535353E-01  0.3767194E-06  0.0000000E+00  0.9831956E-05
  0.8585858E-01  0.0000000E+00  0.3535353E-01  0.4145354E-06  0.0000000E+00  0.9952970E-05
  0.9595960E-01  0.0000000E+00  0.3535353E-01  0.4478436E-06  0.0000000E+00  0.1008489E-04
  0.1060606E+00  0.0000000E+00  0.3535353E-01  0.4762318E-06  0.0000000E+00  0.1022626E-04
  0.1161616E+00  0.0000000E+00  0.3535353E-01  0.4993489E-06  0.0000000E+00  0.1037550E-04
  0.1262626E+00  0.0000000E+00  0.3535353E-01  0.5169200E-06  0.0000000E+00  0.1053092E-04
  0.1363636E+00  0.0000000E+00  0.3535353E-01  0.5287622E-06  0.0000000E+00  0.1069074E-04
  0.1464646E+00  0.0000000E+00  0.3535353E-01  0.5347980E-06  0.0000000E+00  0.1085313E-04
  0.1565657E+00  0.0000000E+00  0.3535353E-01  0.5350664E-06  0.0000000E+00  0.1101627E-04
  0.1666667E+00  0.0000000E+00  0.3535353E-01  0.5297295E-06  0.0000000E+00  0.1117834E-04
  0.1767677E+00  0.0000000E+00  0.3535353E-01  0.5190721E-06  0.0000000E+00  0.1133760E-04
  0.1868687E+00  0.0000000E+00  0.3535353E-01  0.5034947E-06  0.0000000E+00  0.1149244E-04
  0.1969697E+00  0.0000000E+00  0.3535353E-01  0.4834978E-06  0.0000000E+00  0.1164137E-04
  0.2070707E+00  0.0000000E+00  0.3535353E-01  0.4596605E-06  0.0000000E+00  0.1178311E-04
  0.2171717E+00  0.0000000E+00  0.3535353E-01  0.4326133E-06  0.0000000E+00  0.1191660E-04
  0.2272727E+00  0.0000000E+00  0.3535353E-01  0.4030089E-06  0.0000000E+00  0.1204098E-04
  0.2373737E+00  0.0000000E+00  0.3535353E-01  0.3714933E-06  0.0000000E+00  0.1215562E-04
  0.2474747E+00  0.0000000E+00  0.3535353E-01  0.3386808E-06  0.0000000E+00  0.1226010E-04
  0.2575758E+00  0.0000000E+00  0.3535353E-01  0.3051341E-06  0.0000000E+00  0.1235419E-04
  0.2676768E+00  0.0000000E+00  0.3535353E-01  0.2713503E-06  0.0000000E+00  0.1243783E-04
  0.2777778E+00  0.0000000E+00  0.3535353E-01  0.2377543E-06  0.0000000E+00  0.1251111E-04
  0.2878788E+00  0.0000000E+00  0.3535353E-01  0.2046963E-06  0.0000000E+00  0.1257423E-04
  0.2979798E+00  0.0000000E+00  0.3535353E-01  0.1724547E-06  0.0000000E+00  0.1262748E-04