title = "dataset water"
variables = "x", "y", "z", "vx", "vy", "vz"
zone t = "velocities, solution time =  2.000E+01 days        " i =   99, j =   99, k =    1,  f=point
  0.5050505E-02  0.0000000E+00  0.5050505E-02  0.6504030E-12  0.0000000E+00 -0.1815056E-04
  0.1515152E-01  0.0000000E+00  0.5050505E-02  0.2055450E-11  0.0000000E+00 -0.1815056E-04
  0.2525252E-01  0.0000000E+00  0.5050505E-02  0.3454949E-11  0.0000000E+00 -0.1815055E-04
  0.3535353E-01  0.0000000E+00  0.5050505E-02  0.4813574E-11  0.0000000E+00 -0.1815054E-04
  0.4545455E-01  0.0000000E+00  0.5050505E-02  0.6174303E-11  0.0000000E+00 -0.1815053E-04
  0.5555556E-01  0.0000000E+00  0.5050505E-02  0.7503743E-11  0.0000000E+00 -0.1815052E-04
  0.6565657E-01  0.0000000E+00  0.5050505E-02  0.8794014E-11  0.0000000E+00 -0.1815050E-04
  0.7575758E-01  0.0000000E+00  0.5050505E-02  0.1007142E-10  0.0000000E+00 -0.1815048E-04
  0.8585858E-01  0.0000000E+00  0.5050505E-02  0.1130180E-10  0.0000000E+00 -0.1815046E-04
  0.9595960E-01  0.0000000E+00  0.5050505E-02  0.1248397E-10  0.0000000E+00 -0.1815044E-04
  0.1060606E+00  0.0000000E+00  0.5050505E-02  0.1362488E-10  0.0000000E+00 -0.1815041E-04
  0.1161616E+00  0.0000000E+00  0.5050505E-02  0.1471140E-10  0.0000000E+00 -0.1815038E-04
  0.1262626E+00  0.0000000E+00  0.5050505E-02  0.1573627E-10  0.0000000E+00 -0.1815035E-04
  0.1363636E+00  0.0000000E+00  0.5050505E-02  0.1669790E-10  0.0000000E+00 -0.1815032E-04
  0.1464646E+00  0.0000000E+00  0.5050505E-02  0.1759212E-10  0.0000000E+00 -0.1815028E-04
  0.1565657E+00  0.0000000E+00  0.5050505E-02  0.1841342E-10  0.0000000E+00 -0.1815025E-04
  0.1666667E+00  0.0000000E+00  0.5050505E-02  0.1915771E-10  0.0000000E+00 -0.1815021E-04
  0.1767677E+00  0.0000000E+00  0.5050505E-02  0.1982203E-10  0.0000000E+00 -0.1815017E-04
  0.1868687E+00  0.0000000E+00  0.5050505E-02  0.2040360E-10  0.0000000E+00 -0.1815013E-04
  0.1969697E+00  0.0000000E+00  0.5050505E-02  0.2089977E-10  0.0000000E+00 -0.1815009E-04
  0.2070707E+00  0.0000000E+00  0.5050505E-02  0.2130834E-10  0.0000000E+00 -0.1815005E-04
  0.2171717E+00  0.0000000E+00  0.5050505E-02  0.2162762E-10  0.0000000E+00 -0.1815000E-04
  0.2272727E+00  0.0000000E+00  0.5050505E-02  0.2185624E-10  0.0000000E+00 -0.1814996E-04
  0.2373737E+00  0.0000000E+00  0.5050505E-02  0.2199306E-10  0.0000000E+00 -0.1814992E-04
  0.2474747E+00  0.0000000E+00  0.5050505E-02  0.2203711E-10  0.0000000E+00 -0.1814987E-04
  0.2575758E+00  0.0000000E+00  0.5050505E-02  0.2198764E-10  0.0000000E+00 -0.1814983E-04
  0.2676768E+00  0.0000000E+00  0.5050505E-02  0.2184410E-10  0.0000000E+00 -0.1814978E-04
  0.2777778E+00  0.0000000E+00  0.5050505E-02  0.2160613E-10  0.0000000E+00 -0.1814974E-04
  0.2878788E+00  0.0000000E+00  0.5050505E-02  0.2127362E-10  0.0000000E+00 -0.1814970E-04
  0.2979798E+00  0.0000000E+00  0.5050505E-02  0.2084675E-10  0.0000000E+00 -0.1814966E-04
  0.3080808E+00  0.0000000E+00  0.5050505E-02  0.2032607E-10  0.0000000E+00 -0.1814961E-04
  0.3181818E+00  0.0000000E+00  0.5050505E-02  0.1971261E-10  0.0000000E+00 -0.1814957E-04
  0.3282828E+00  0.0000000E+00  0.5050505E-02  0.1900790E-10  0.0000000E+00 -0.1814954E-04
  0.3383838E+00  0.0000000E+00  0.5050505E-02  0.1821411E-10  0.0000000E+00 -0.1814950E-04
  0.3484848E+00  0.0000000E+00  0.5050505E-02  0.1733399E-10  0.0000000E+00 -0.1814946E-04
  0.3585859E+00  0.0000000E+00  0.5050505E-02  0.1637099E-10  0.0000000E+00 -0.1814943E-04
  0.3686869E+00  0.0000000E+00  0.5050505E-02  0.1532916E-10  0.0000000E+00 -0.1814940E-04
  0.3787879E+00  0.0000000E+00  0.5050505E-02  0.1421317E-10  0.0000000E+00 -0.1814937E-04
  0.3888889E+00  0.0000000E+00  0.5050505E-02  0.1302823E-10  0.0000000E+00 -0.1814934E-04
  0.3989899E+00  0.0000000E+00  0.5050505E-02  0.1178003E-10  0.0000000E+00 -0.1814932E-04
  0.4090909E+00  0.0000000E+00  0.5050505E-02  0.1047469E-10  0.0000000E+00 -0.1814929E-04
  0.4191919E+00  0.0000000E+00  0.5050505E-02  0.9118645E-11  0.0000000E+00 -0.1814927E-04
  0.4292929E+00  0.0000000E+00  0.5050505E-02  0.7718627E-11  0.0000000E+00 -0.1814926E-04
  0.4393939E+00  0.0000000E+00  0.5050505E-02  0.6281567E-11  0.0000000E+00 -0.1814924E-04
  0.4494950E+00  0.0000000E+00  0.5050505E-02  0.4814404E-11  0.0000000E+00 -0.1814923E-04
  0.4595959E+00  0.0000000E+00  0.5050505E-02  0.3323930E-11  0.0000000E+00 -0.1814922E-04
  0.4696970E+00  0.0000000E+00  0.5050505E-02  0.1816403E-11  0.0000000E+00 -0.1814922E-04
  0.4797980E+00  0.0000000E+00  0.5050505E-02  0.2971064E-12  0.0000000E+00 -0.1814922E-04
  0.4898990E+00  0.0000000E+00  0.5050505E-02 -0.1263919E-11  0.0000000E+00 -0.1814922E-04
  0.5000000E+00  0.0000000E+00  0.5050505E-02 -0.2806921E-11  0.0000000E+00 -0.1814922E-04
  0.5101010E+00  0.0000000E+00  0.5050505E-02 -0.4322776E-11  0.0000000E+00 -0.1814923E-04
  0.5202020E+00  0.0000000E+00  0.5050505E-02 -0.5808128E-11  0.0000000E+00 -0.1814924E-04
  0.5303030E+00  0.0000000E+00  0.5050505E-02 -0.7295471E-11  0.0000000E+00 -0.1814925E-04
  0.5404040E+00  0.0000000E+00  0.5050505E-02 -0.8752829E-11  0.0000000E+00 -0.1814927E-04
  0.5505050E+00  0.0000000E+00  0.5050505E-02 -0.1016486E-10  0.0000000E+00 -0.1814929E-04
  0.5606061E+00  0.0000000E+00  0.5050505E-02 -0.1155574E-10  0.0000000E+00 -0.1814931E-04
  0.5707071E+00  0.0000000E+00  0.5050505E-02 -0.1289271E-10  0.0000000E+00 -0.1814933E-04
  0.5808081E+00  0.0000000E+00  0.5050505E-02 -0.1417231E-10  0.0000000E+00 -0.1814936E-04
  0.5909091E+00  0.0000000E+00  0.5050505E-02 -0.1539994E-10  0.0000000E+00 -0.1814939E-04
  0.6010101E+00  0.0000000E+00  0.5050505E-02 -0.1656295E-10  0.0000000E+00 -0.1814942E-04
  0.6111111E+00  0.0000000E+00  0.5050505E-02 -0.1765409E-10  0.0000000E+00 -0.1814946E-04
  0.6212121E+00  0.0000000E+00  0.5050505E-02 -0.1867137E-10  0.0000000E+00 -0.1814949E-04
  0.6313131E+00  0.0000000E+00  0.5050505E-02 -0.1961079E-10  0.0000000E+00 -0.1814953E-04
  0.6414142E+00  0.0000000E+00  0.5050505E-02 -0.2046749E-10  0.0000000E+00 -0.1814957E-04
  0.6515151E+00  0.0000000E+00  0.5050505E-02 -0.2123806E-10  0.0000000E+00 -0.1814961E-04
  0.6616161E+00  0.0000000E+00  0.5050505E-02 -0.2192031E-10  0.0000000E+00 -0.1814966E-04
  0.6717172E+00  0.0000000E+00  0.5050505E-02 -0.2251247E-10  0.0000000E+00 -0.1814970E-04
  0.6818182E+00  0.0000000E+00  0.5050505E-02 -0.2301311E-10  0.0000000E+00 -0.1814975E-04
  0.6919192E+00  0.0000000E+00  0.5050505E-02 -0.2342145E-10  0.0000000E+00 -0.1814979E-04
  0.7020202E+00  0.0000000E+00  0.5050505E-02 -0.2373733E-10  0.0000000E+00 -0.1814984E-04
  0.7121212E+00  0.0000000E+00  0.5050505E-02 -0.2396106E-10  0.0000000E+00 -0.1814989E-04
  0.7222222E+00  0.0000000E+00  0.5050505E-02 -0.2409327E-10  0.0000000E+00 -0.1814994E-04
  0.7323232E+00  0.0000000E+00  0.5050505E-02 -0.2413488E-10  0.0000000E+00 -0.1814998E-04
  0.7424242E+00  0.0000000E+00  0.5050505E-02 -0.2408703E-10  0.0000000E+00 -0.1815003E-04
  0.7525253E+00  0.0000000E+00  0.5050505E-02 -0.2395103E-10  0.0000000E+00 -0.1815008E-04
  0.7626263E+00  0.0000000E+00  0.5050505E-02 -0.2372833E-10  0.0000000E+00 -0.1815013E-04
  0.7727273E+00  0.0000000E+00  0.5050505E-02 -0.2342045E-10  0.0000000E+00 -0.1815018E-04
  0.7828283E+00  0.0000000E+00  0.5050505E-02 -0.2302900E-10  0.0000000E+00 -0.1815022E-04
  0.7929293E+00  0.0000000E+00  0.5050505E-02 -0.2255573E-10  0.0000000E+00 -0.1815027E-04
  0.8030303E+00  0.0000000E+00  0.5050505E-02 -0.2200254E-10  0.0000000E+00 -0.1815031E-04
  0.8131313E+00  0.0000000E+00  0.5050505E-02 -0.2137153E-10  0.0000000E+00 -0.1815036E-04
  0.8232324E+00  0.0000000E+00  0.5050505E-02 -0.2066505E-10  0.0000000E+00 -0.1815040E-04
  0.8333333E+00  0.0000000E+00  0.5050505E-02 -0.1988576E-10  0.0000000E+00 -0.1815044E-04
  0.8434343E+00  0.0000000E+00  0.5050505E-02 -0.1903663E-10  0.0000000E+00 -0.1815048E-04
  0.8535354E+00  0.0000000E+00  0.5050505E-02 -0.1812096E-10  0.0000000E+00 -0.1815052E-04
  0.8636364E+00  0.0000000E+00  0.5050505E-02 -0.1714239E-10  0.0000000E+00 -0.1815055E-04
  0.8737374E+00  0.0000000E+00  0.5050505E-02 -0.1610489E-10  0.0000000E+00 -0.1815058E-04
  0.8838384E+00  0.0000000E+00  0.5050505E-02 -0.1501270E-10  0.0000000E+00 -0.1815061E-04
  0.8939394E+00  0.0000000E+00  0.5050505E-02 -0.1387030E-10  0.0000000E+00 -0.1815064E-04
  0.9040404E+00  0.0000000E+00  0.5050505E-02 -0.1268234E-10  0.0000000E+00 -0.1815067E-04
  0.9141414E+00  0.0000000E+00  0.5050505E-02 -0.1145361E-10  0.0000000E+00 -0.1815069E-04
  0.9242424E+00  0.0000000E+00  0.5050505E-02 -0.1018893E-10  0.0000000E+00 -0.1815072E-04
  0.9343435E+00  0.0000000E+00  0.5050505E-02 -0.8893132E-11  0.0000000E+00 -0.1815074E-04
  0.9444444E+00  0.0000000E+00  0.5050505E-02 -0.7571063E-11  0.0000000E+00 -0.1815075E-04
  0.9545454E+00  0.0000000E+00  0.5050505E-02 -0.6227586E-11  0.0000000E+00 -0.1815077E-04
  0.9646465E+00  0.0000000E+00  0.5050505E-02 -0.4867648E-11  0.0000000E+00 -0.1815078E-04
  0.9747475E+00  0.0000000E+00  0.5050505E-02 -0.3496591E-11  0.0000000E+00 -0.1815079E-04
  0.9848485E+00  0.0000000E+00  0.5050505E-02 -0.2121147E-11  0.0000000E+00 -0.1815079E-04
  0.9974747E+00  0.0000000E+00  0.5050505E-02 -0.7512794E-12  0.0000000E+00 -0.1815079E-04
  0.5050505E-02  0.0000000E+00  0.1515152E-01  0.1983832E-11  0.0000000E+00 -0.1811378E-04
  0.1515152E-01  0.0000000E+00  0.1515152E-01  0.6177421E-11  0.0000000E+00 -0.1811378E-04
  0.2525252E-01  0.0000000E+00  0.1515152E-01  0.1039445E-10  0.0000000E+00 -0.1811377E-04
  0.3535353E-01  0.0000000E+00  0.1515152E-01  0.1448668E-10  0.0000000E+00 -0.1811377E-04
  0.4545455E-01  0.0000000E+00  0.1515152E-01  0.1856654E-10  0.0000000E+00 -0.1811375E-04
  0.5555556E-01  0.0000000E+00  0.1515152E-01  0.2257487E-10  0.0000000E+00 -0.1811374E-04
  0.6565657E-01  0.0000000E+00  0.1515152E-01  0.2646148E-10  0.0000000E+00 -0.1811372E-04
  0.7575758E-01  0.0000000E+00  0.1515152E-01  0.3029405E-10  0.0000000E+00 -0.1811370E-04
  0.8585858E-01  0.0000000E+00  0.1515152E-01  0.3399839E-10  0.0000000E+00 -0.1811368E-04
  0.9595960E-01  0.0000000E+00  0.1515152E-01  0.3755901E-10  0.0000000E+00 -0.1811366E-04
  0.1060606E+00  0.0000000E+00  0.1515152E-01  0.4098851E-10  0.0000000E+00 -0.1811363E-04
  0.1161616E+00  0.0000000E+00  0.1515152E-01  0.4425611E-10  0.0000000E+00 -0.1811360E-04
  0.1262626E+00  0.0000000E+00  0.1515152E-01  0.4734077E-10  0.0000000E+00 -0.1811357E-04
  0.1363636E+00  0.0000000E+00  0.1515152E-01  0.5023441E-10  0.0000000E+00 -0.1811354E-04
  0.1464646E+00  0.0000000E+00  0.1515152E-01  0.5292431E-10  0.0000000E+00 -0.1811351E-04
  0.1565657E+00  0.0000000E+00  0.1515152E-01  0.5539515E-10  0.0000000E+00 -0.1811347E-04
  0.1666667E+00  0.0000000E+00  0.1515152E-01  0.5763483E-10  0.0000000E+00 -0.1811343E-04
  0.1767677E+00  0.0000000E+00  0.1515152E-01  0.5963400E-10  0.0000000E+00 -0.1811339E-04
  0.1868687E+00  0.0000000E+00  0.1515152E-01  0.6138411E-10  0.0000000E+00 -0.1811335E-04
  0.1969697E+00  0.0000000E+00  0.1515152E-01  0.6287735E-10  0.0000000E+00 -0.1811331E-04
  0.2070707E+00  0.0000000E+00  0.1515152E-01  0.6410721E-10  0.0000000E+00 -0.1811327E-04
  0.2171717E+00  0.0000000E+00  0.1515152E-01  0.6506853E-10  0.0000000E+00 -0.1811322E-04
  0.2272727E+00  0.0000000E+00  0.1515152E-01  0.6575716E-10  0.0000000E+00 -0.1811318E-04
  0.2373737E+00  0.0000000E+00  0.1515152E-01  0.6616959E-10  0.0000000E+00 -0.1811313E-04
  0.2474747E+00  0.0000000E+00  0.1515152E-01  0.6630294E-10  0.0000000E+00 -0.1811309E-04
  0.2575758E+00  0.0000000E+00  0.1515152E-01  0.6615489E-10  0.0000000E+00 -0.1811304E-04
  0.2676768E+00  0.0000000E+00  0.1515152E-01  0.6572376E-10  0.0000000E+00 -0.1811300E-04
  0.2777778E+00  0.0000000E+00  0.1515152E-01  0.6500846E-10  0.0000000E+00 -0.1811296E-04
  0.2878788E+00  0.0000000E+00  0.1515152E-01  0.6400863E-10  0.0000000E+00 -0.1811291E-04
  0.2979798E+00  0.0000000E+00  0.1515152E-01  0.6272479E-10  0.0000000E+00 -0.1811287E-04
  0.3080808E+00  0.0000000E+00  0.1515152E-01  0.6115862E-10  0.0000000E+00 -0.1811283E-04
  0.3181818E+00  0.0000000E+00  0.1515152E-01  0.5931317E-10  0.0000000E+00 -0.1811279E-04
  0.3282828E+00  0.0000000E+00  0.1515152E-01  0.5719311E-10  0.0000000E+00 -0.1811275E-04
  0.3383838E+00  0.0000000E+00  0.1515152E-01  0.5480492E-10  0.0000000E+00 -0.1811271E-04
  0.3484848E+00  0.0000000E+00  0.1515152E-01  0.5215696E-10  0.0000000E+00 -0.1811267E-04
  0.3585859E+00  0.0000000E+00  0.1515152E-01  0.4925955E-10  0.0000000E+00 -0.1811264E-04
  0.3686869E+00  0.0000000E+00  0.1515152E-01  0.4612492E-10  0.0000000E+00 -0.1811261E-04
  0.3787879E+00  0.0000000E+00  0.1515152E-01  0.4276713E-10  0.0000000E+00 -0.1811258E-04
  0.3888889E+00  0.0000000E+00  0.1515152E-01  0.3920183E-10  0.0000000E+00 -0.1811255E-04
  0.3989899E+00  0.0000000E+00  0.1515152E-01  0.3544619E-10  0.0000000E+00 -0.1811253E-04
  0.4090909E+00  0.0000000E+00  0.1515152E-01  0.3151854E-10  0.0000000E+00 -0.1811250E-04
  0.4191919E+00  0.0000000E+00  0.1515152E-01  0.2743825E-10  0.0000000E+00 -0.1811248E-04
  0.4292929E+00  0.0000000E+00  0.1515152E-01  0.2322559E-10  0.0000000E+00 -0.1811247E-04
  0.4393939E+00  0.0000000E+00  0.1515152E-01  0.1890154E-10  0.0000000E+00 -0.1811245E-04
  0.4494950E+00  0.0000000E+00  0.1515152E-01  0.1448712E-10  0.0000000E+00 -0.1811244E-04
  0.4595959E+00  0.0000000E+00  0.1515152E-01  0.1000259E-10  0.0000000E+00 -0.1811243E-04
  0.4696970E+00  0.0000000E+00  0.1515152E-01  0.5465866E-11  0.0000000E+00 -0.1811243E-04
  0.4797980E+00  0.0000000E+00  0.1515152E-01  0.8823434E-12  0.0000000E+00 -0.1811242E-04
  0.4898990E+00  0.0000000E+00  0.1515152E-01 -0.3804443E-11  0.0000000E+00 -0.1811243E-04
  0.5000000E+00  0.0000000E+00  0.1515152E-01 -0.8428395E-11  0.0000000E+00 -0.1811243E-04
  0.5101010E+00  0.0000000E+00  0.1515152E-01 -0.1300016E-10  0.0000000E+00 -0.1811244E-04
  0.5202020E+00  0.0000000E+00  0.1515152E-01 -0.1747923E-10  0.0000000E+00 -0.1811245E-04
  0.5303030E+00  0.0000000E+00  0.1515152E-01 -0.2194302E-10  0.0000000E+00 -0.1811246E-04
  0.5404040E+00  0.0000000E+00  0.1515152E-01 -0.2633513E-10  0.0000000E+00 -0.1811248E-04
  0.5505050E+00  0.0000000E+00  0.1515152E-01 -0.3058915E-10  0.0000000E+00 -0.1811250E-04
  0.5606061E+00  0.0000000E+00  0.1515152E-01 -0.3476473E-10  0.0000000E+00 -0.1811252E-04
  0.5707071E+00  0.0000000E+00  0.1515152E-01 -0.3878954E-10  0.0000000E+00 -0.1811254E-04
  0.5808081E+00  0.0000000E+00  0.1515152E-01 -0.4264321E-10  0.0000000E+00 -0.1811257E-04
  0.5909091E+00  0.0000000E+00  0.1515152E-01 -0.4633405E-10  0.0000000E+00 -0.1811260E-04
  0.6010101E+00  0.0000000E+00  0.1515152E-01 -0.4983170E-10  0.0000000E+00 -0.1811263E-04
  0.6111111E+00  0.0000000E+00  0.1515152E-01 -0.5311522E-10  0.0000000E+00 -0.1811267E-04
  0.6212121E+00  0.0000000E+00  0.1515152E-01 -0.5617570E-10  0.0000000E+00 -0.1811270E-04
  0.6313131E+00  0.0000000E+00  0.1515152E-01 -0.5900099E-10  0.0000000E+00 -0.1811274E-04
  0.6414142E+00  0.0000000E+00  0.1515152E-01 -0.6157753E-10  0.0000000E+00 -0.1811278E-04
  0.6515151E+00  0.0000000E+00  0.1515152E-01 -0.6389525E-10  0.0000000E+00 -0.1811283E-04
  0.6616161E+00  0.0000000E+00  0.1515152E-01 -0.6594719E-10  0.0000000E+00 -0.1811287E-04
  0.6717172E+00  0.0000000E+00  0.1515152E-01 -0.6772791E-10  0.0000000E+00 -0.1811291E-04
  0.6818182E+00  0.0000000E+00  0.1515152E-01 -0.6923326E-10  0.0000000E+00 -0.1811296E-04
  0.6919192E+00  0.0000000E+00  0.1515152E-01 -0.7046098E-10  0.0000000E+00 -0.1811301E-04
  0.7020202E+00  0.0000000E+00  0.1515152E-01 -0.7141057E-10  0.0000000E+00 -0.1811306E-04
  0.7121212E+00  0.0000000E+00  0.1515152E-01 -0.7208291E-10  0.0000000E+00 -0.1811310E-04
  0.7222222E+00  0.0000000E+00  0.1515152E-01 -0.7247995E-10  0.0000000E+00 -0.1811315E-04
  0.7323232E+00  0.0000000E+00  0.1515152E-01 -0.7260442E-10  0.0000000E+00 -0.1811320E-04
  0.7424242E+00  0.0000000E+00  0.1515152E-01 -0.7245976E-10  0.0000000E+00 -0.1811325E-04
  0.7525253E+00  0.0000000E+00  0.1515152E-01 -0.7204994E-10  0.0000000E+00 -0.1811330E-04
  0.7626263E+00  0.0000000E+00  0.1515152E-01 -0.7137927E-10  0.0000000E+00 -0.1811335E-04
  0.7727273E+00  0.0000000E+00  0.1515152E-01 -0.7045234E-10  0.0000000E+00 -0.1811340E-04
  0.7828283E+00  0.0000000E+00  0.1515152E-01 -0.6927403E-10  0.0000000E+00 -0.1811344E-04
  0.7929293E+00  0.0000000E+00  0.1515152E-01 -0.6784956E-10  0.0000000E+00 -0.1811349E-04
  0.8030303E+00  0.0000000E+00  0.1515152E-01 -0.6618468E-10  0.0000000E+00 -0.1811353E-04
  0.8131313E+00  0.0000000E+00  0.1515152E-01 -0.6428573E-10  0.0000000E+00 -0.1811358E-04
  0.8232324E+00  0.0000000E+00  0.1515152E-01 -0.6215983E-10  0.0000000E+00 -0.1811362E-04
  0.8333333E+00  0.0000000E+00  0.1515152E-01 -0.5981495E-10  0.0000000E+00 -0.1811366E-04
  0.8434343E+00  0.0000000E+00  0.1515152E-01 -0.5726007E-10  0.0000000E+00 -0.1811370E-04
  0.8535354E+00  0.0000000E+00  0.1515152E-01 -0.5450512E-10  0.0000000E+00 -0.1811374E-04
  0.8636364E+00  0.0000000E+00  0.1515152E-01 -0.5156109E-10  0.0000000E+00 -0.1811377E-04
  0.8737374E+00  0.0000000E+00  0.1515152E-01 -0.4843991E-10  0.0000000E+00 -0.1811381E-04
  0.8838384E+00  0.0000000E+00  0.1515152E-01 -0.4515434E-10  0.0000000E+00 -0.1811384E-04
  0.8939394E+00  0.0000000E+00  0.1515152E-01 -0.4171785E-10  0.0000000E+00 -0.1811387E-04
  0.9040404E+00  0.0000000E+00  0.1515152E-01 -0.3814444E-10  0.0000000E+00 -0.1811390E-04
  0.9141414E+00  0.0000000E+00  0.1515152E-01 -0.3444844E-10  0.0000000E+00 -0.1811392E-04
  0.9242424E+00  0.0000000E+00  0.1515152E-01 -0.3064433E-10  0.0000000E+00 -0.1811394E-04
  0.9343435E+00  0.0000000E+00  0.1515152E-01 -0.2674662E-10  0.0000000E+00 -0.1811396E-04
  0.9444444E+00  0.0000000E+00  0.1515152E-01 -0.2276975E-10  0.0000000E+00 -0.1811398E-04
  0.9545454E+00  0.0000000E+00  0.1515152E-01 -0.1872819E-10  0.0000000E+00 -0.1811399E-04
  0.9646465E+00  0.0000000E+00  0.1515152E-01 -0.1463651E-10  0.0000000E+00 -0.1811400E-04
  0.9747475E+00  0.0000000E+00  0.1515152E-01 -0.1050963E-10  0.0000000E+00 -0.1811401E-04
  0.9848485E+00  0.0000000E+00  0.1515152E-01 -0.6365116E-11  0.0000000E+00 -0.1811402E-04
  0.9974747E+00  0.0000000E+00  0.1515152E-01 -0.2221379E-11  0.0000000E+00 -0.1811402E-04
  0.5050505E-02  0.0000000E+00  0.2525252E-01  0.3382578E-11  0.0000000E+00 -0.1804045E-04
  0.1515152E-01  0.0000000E+00  0.2525252E-01  0.1035998E-10  0.0000000E+00 -0.1804044E-04
  0.2525252E-01  0.0000000E+00  0.2525252E-01  0.1742410E-10  0.0000000E+00 -0.1804044E-04
  0.3535353E-01  0.0000000E+00  0.2525252E-01  0.2430540E-10  0.0000000E+00 -0.1804043E-04
  0.4545455E-01  0.0000000E+00  0.2525252E-01  0.3112654E-10  0.0000000E+00 -0.1804042E-04
  0.5555556E-01  0.0000000E+00  0.2525252E-01  0.3785285E-10  0.0000000E+00 -0.1804040E-04
  0.6565657E-01  0.0000000E+00  0.2525252E-01  0.4438297E-10  0.0000000E+00 -0.1804039E-04
  0.7575758E-01  0.0000000E+00  0.2525252E-01  0.5079586E-10  0.0000000E+00 -0.1804037E-04
  0.8585858E-01  0.0000000E+00  0.2525252E-01  0.5700926E-10  0.0000000E+00 -0.1804035E-04
  0.9595960E-01  0.0000000E+00  0.2525252E-01  0.6298674E-10  0.0000000E+00 -0.1804032E-04
  0.1060606E+00  0.0000000E+00  0.2525252E-01  0.6873462E-10  0.0000000E+00 -0.1804029E-04
  0.1161616E+00  0.0000000E+00  0.2525252E-01  0.7421262E-10  0.0000000E+00 -0.1804026E-04
  0.1262626E+00  0.0000000E+00  0.2525252E-01  0.7938766E-10  0.0000000E+00 -0.1804023E-04
  0.1363636E+00  0.0000000E+00  0.2525252E-01  0.8424157E-10  0.0000000E+00 -0.1804020E-04
  0.1464646E+00  0.0000000E+00  0.2525252E-01  0.8875268E-10  0.0000000E+00 -0.1804016E-04
  0.1565657E+00  0.0000000E+00  0.2525252E-01  0.9289700E-10  0.0000000E+00 -0.1804013E-04
  0.1666667E+00  0.0000000E+00  0.2525252E-01  0.9665452E-10  0.0000000E+00 -0.1804009E-04
  0.1767677E+00  0.0000000E+00  0.2525252E-01  0.1000090E-09  0.0000000E+00 -0.1804005E-04
  0.1868687E+00  0.0000000E+00  0.2525252E-01  0.1029458E-09  0.0000000E+00 -0.1804001E-04
  0.1969697E+00  0.0000000E+00  0.2525252E-01  0.1054520E-09  0.0000000E+00 -0.1803996E-04
  0.2070707E+00  0.0000000E+00  0.2525252E-01  0.1075169E-09  0.0000000E+00 -0.1803992E-04
  0.2171717E+00  0.0000000E+00  0.2525252E-01  0.1091317E-09  0.0000000E+00 -0.1803987E-04
  0.2272727E+00  0.0000000E+00  0.2525252E-01  0.1102892E-09  0.0000000E+00 -0.1803983E-04
  0.2373737E+00  0.0000000E+00  0.2525252E-01  0.1109836E-09  0.0000000E+00 -0.1803978E-04
  0.2474747E+00  0.0000000E+00  0.2525252E-01  0.1112098E-09  0.0000000E+00 -0.1803974E-04
  0.2575758E+00  0.0000000E+00  0.2525252E-01  0.1109640E-09  0.0000000E+00 -0.1803969E-04
  0.2676768E+00  0.0000000E+00  0.2525252E-01  0.1102432E-09  0.0000000E+00 -0.1803965E-04
  0.2777778E+00  0.0000000E+00  0.2525252E-01  0.1090456E-09  0.0000000E+00 -0.1803960E-04
  0.2878788E+00  0.0000000E+00  0.2525252E-01  0.1073704E-09  0.0000000E+00 -0.1803956E-04
  0.2979798E+00  0.0000000E+00  0.2525252E-01  0.1052186E-09  0.0000000E+00 -0.1803951E-04
  0.3080808E+00  0.0000000E+00  0.2525252E-01  0.1025929E-09  0.0000000E+00 -0.1803947E-04
  0.3181818E+00  0.0000000E+00  0.2525252E-01  0.9949845E-10  0.0000000E+00 -0.1803943E-04
  0.3282828E+00  0.0000000E+00  0.2525252E-01  0.9594316E-10  0.0000000E+00 -0.1803939E-04
  0.3383838E+00  0.0000000E+00  0.2525252E-01  0.9193789E-10  0.0000000E+00 -0.1803935E-04
  0.3484848E+00  0.0000000E+00  0.2525252E-01  0.8749672E-10  0.0000000E+00 -0.1803931E-04
  0.3585859E+00  0.0000000E+00  0.2525252E-01  0.8263696E-10  0.0000000E+00 -0.1803928E-04
  0.3686869E+00  0.0000000E+00  0.2525252E-01  0.7737919E-10  0.0000000E+00 -0.1803925E-04
  0.3787879E+00  0.0000000E+00  0.2525252E-01  0.7174693E-10  0.0000000E+00 -0.1803921E-04
  0.3888889E+00  0.0000000E+00  0.2525252E-01  0.6576648E-10  0.0000000E+00 -0.1803919E-04
  0.3989899E+00  0.0000000E+00  0.2525252E-01  0.5946655E-10  0.0000000E+00 -0.1803916E-04
  0.4090909E+00  0.0000000E+00  0.2525252E-01  0.5287788E-10  0.0000000E+00 -0.1803914E-04
  0.4191919E+00  0.0000000E+00  0.2525252E-01  0.4603288E-10  0.0000000E+00 -0.1803912E-04
  0.4292929E+00  0.0000000E+00  0.2525252E-01  0.3896544E-10  0.0000000E+00 -0.1803910E-04
  0.4393939E+00  0.0000000E+00  0.2525252E-01  0.3171091E-10  0.0000000E+00 -0.1803909E-04
  0.4494950E+00  0.0000000E+00  0.2525252E-01  0.2430497E-10  0.0000000E+00 -0.1803907E-04
  0.4595959E+00  0.0000000E+00  0.2525252E-01  0.1678074E-10  0.0000000E+00 -0.1803907E-04
  0.4696970E+00  0.0000000E+00  0.2525252E-01  0.9168535E-11  0.0000000E+00 -0.1803906E-04
  0.4797980E+00  0.0000000E+00  0.2525252E-01  0.1464595E-11  0.0000000E+00 -0.1803906E-04
  0.4898990E+00  0.0000000E+00  0.2525252E-01 -0.6381525E-11  0.0000000E+00 -0.1803906E-04
  0.5000000E+00  0.0000000E+00  0.2525252E-01 -0.1410660E-10  0.0000000E+00 -0.1803906E-04
  0.5101010E+00  0.0000000E+00  0.2525252E-01 -0.2178447E-10  0.0000000E+00 -0.1803907E-04
  0.5202020E+00  0.0000000E+00  0.2525252E-01 -0.2932462E-10  0.0000000E+00 -0.1803908E-04
  0.5303030E+00  0.0000000E+00  0.2525252E-01 -0.3679813E-10  0.0000000E+00 -0.1803909E-04
  0.5404040E+00  0.0000000E+00  0.2525252E-01 -0.4416932E-10  0.0000000E+00 -0.1803911E-04
  0.5505050E+00  0.0000000E+00  0.2525252E-01 -0.5131807E-10  0.0000000E+00 -0.1803913E-04
  0.5606061E+00  0.0000000E+00  0.2525252E-01 -0.5830962E-10  0.0000000E+00 -0.1803915E-04
  0.5707071E+00  0.0000000E+00  0.2525252E-01 -0.6506119E-10  0.0000000E+00 -0.1803918E-04
  0.5808081E+00  0.0000000E+00  0.2525252E-01 -0.7153029E-10  0.0000000E+00 -0.1803921E-04
  0.5909091E+00  0.0000000E+00  0.2525252E-01 -0.7771703E-10  0.0000000E+00 -0.1803924E-04
  0.6010101E+00  0.0000000E+00  0.2525252E-01 -0.8358052E-10  0.0000000E+00 -0.1803927E-04
  0.6111111E+00  0.0000000E+00  0.2525252E-01 -0.8908766E-10  0.0000000E+00 -0.1803931E-04
  0.6212121E+00  0.0000000E+00  0.2525252E-01 -0.9421955E-10  0.0000000E+00 -0.1803934E-04
  0.6313131E+00  0.0000000E+00  0.2525252E-01 -0.9895553E-10  0.0000000E+00 -0.1803938E-04
  0.6414142E+00  0.0000000E+00  0.2525252E-01 -0.1032743E-09  0.0000000E+00 -0.1803942E-04
  0.6515151E+00  0.0000000E+00  0.2525252E-01 -0.1071593E-09  0.0000000E+00 -0.1803947E-04
  0.6616161E+00  0.0000000E+00  0.2525252E-01 -0.1105984E-09  0.0000000E+00 -0.1803951E-04
  0.6717172E+00  0.0000000E+00  0.2525252E-01 -0.1135823E-09  0.0000000E+00 -0.1803956E-04
  0.6818182E+00  0.0000000E+00  0.2525252E-01 -0.1161044E-09  0.0000000E+00 -0.1803961E-04
  0.6919192E+00  0.0000000E+00  0.2525252E-01 -0.1181608E-09  0.0000000E+00 -0.1803965E-04
  0.7020202E+00  0.0000000E+00  0.2525252E-01 -0.1197509E-09  0.0000000E+00 -0.1803970E-04
  0.7121212E+00  0.0000000E+00  0.2525252E-01 -0.1208760E-09  0.0000000E+00 -0.1803975E-04
  0.7222222E+00  0.0000000E+00  0.2525252E-01 -0.1215394E-09  0.0000000E+00 -0.1803980E-04
  0.7323232E+00  0.0000000E+00  0.2525252E-01 -0.1217457E-09  0.0000000E+00 -0.1803985E-04
  0.7424242E+00  0.0000000E+00  0.2525252E-01 -0.1215006E-09  0.0000000E+00 -0.1803990E-04
  0.7525253E+00  0.0000000E+00  0.2525252E-01 -0.1208109E-09  0.0000000E+00 -0.1803995E-04
  0.7626263E+00  0.0000000E+00  0.2525252E-01 -0.1196837E-09  0.0000000E+00 -0.1804000E-04
  0.7727273E+00  0.0000000E+00  0.2525252E-01 -0.1181269E-09  0.0000000E+00 -0.1804005E-04
  0.7828283E+00  0.0000000E+00  0.2525252E-01 -0.1161484E-09  0.0000000E+00 -0.1804010E-04
  0.7929293E+00  0.0000000E+00  0.2525252E-01 -0.1137573E-09  0.0000000E+00 -0.1804015E-04
  0.8030303E+00  0.0000000E+00  0.2525252E-01 -0.1109631E-09  0.0000000E+00 -0.1804019E-04
  0.8131313E+00  0.0000000E+00  0.2525252E-01 -0.1077766E-09  0.0000000E+00 -0.1804024E-04
  0.8232324E+00  0.0000000E+00  0.2525252E-01 -0.1042097E-09  0.0000000E+00 -0.1804028E-04
  0.8333333E+00  0.0000000E+00  0.2525252E-01 -0.1002760E-09  0.0000000E+00 -0.1804032E-04
  0.8434343E+00  0.0000000E+00  0.2525252E-01 -0.9599042E-10  0.0000000E+00 -0.1804036E-04
  0.8535354E+00  0.0000000E+00  0.2525252E-01 -0.9136979E-10  0.0000000E+00 -0.1804040E-04
  0.8636364E+00  0.0000000E+00  0.2525252E-01 -0.8643253E-10  0.0000000E+00 -0.1804044E-04
  0.8737374E+00  0.0000000E+00  0.2525252E-01 -0.8119865E-10  0.0000000E+00 -0.1804047E-04
  0.8838384E+00  0.0000000E+00  0.2525252E-01 -0.7568956E-10  0.0000000E+00 -0.1804050E-04
  0.8939394E+00  0.0000000E+00  0.2525252E-01 -0.6992783E-10  0.0000000E+00 -0.1804053E-04
  0.9040404E+00  0.0000000E+00  0.2525252E-01 -0.6393687E-10  0.0000000E+00 -0.1804056E-04
  0.9141414E+00  0.0000000E+00  0.2525252E-01 -0.5774061E-10  0.0000000E+00 -0.1804059E-04
  0.9242424E+00  0.0000000E+00  0.2525252E-01 -0.5136322E-10  0.0000000E+00 -0.1804061E-04
  0.9343435E+00  0.0000000E+00  0.2525252E-01 -0.4482883E-10  0.0000000E+00 -0.1804063E-04
  0.9444444E+00  0.0000000E+00  0.2525252E-01 -0.3816133E-10  0.0000000E+00 -0.1804065E-04
  0.9545454E+00  0.0000000E+00  0.2525252E-01 -0.3138454E-10  0.0000000E+00 -0.1804066E-04
  0.9646465E+00  0.0000000E+00  0.2525252E-01 -0.2452240E-10  0.0000000E+00 -0.1804067E-04
  0.9747475E+00  0.0000000E+00  0.2525252E-01 -0.1759721E-10  0.0000000E+00 -0.1804068E-04
  0.9848485E+00  0.0000000E+00  0.2525252E-01 -0.1063315E-10  0.0000000E+00 -0.1804069E-04
  0.9974747E+00  0.0000000E+00  0.2525252E-01 -0.3650801E-11  0.0000000E+00 -0.1804069E-04
  0.5050505E-02  0.0000000E+00  0.3535353E-01  0.4829809E-11  0.0000000E+00 -0.1793090E-04
  0.1515152E-01  0.0000000E+00  0.3535353E-01  0.1466408E-10  0.0000000E+00 -0.1793089E-04
  0.2525252E-01  0.0000000E+00  0.3535353E-01  0.2462113E-10  0.0000000E+00 -0.1793089E-04
  0.3535353E-01  0.0000000E+00  0.3535353E-01  0.3437095E-10  0.0000000E+00 -0.1793088E-04
  0.4545455E-01  0.0000000E+00  0.3535353E-01  0.4400608E-10  0.0000000E+00 -0.1793087E-04
  0.5555556E-01  0.0000000E+00  0.3535353E-01  0.5350773E-10  0.0000000E+00 -0.1793085E-04
  0.6565657E-01  0.0000000E+00  0.3535353E-01  0.6275268E-10  0.0000000E+00 -0.1793083E-04
  0.7575758E-01  0.0000000E+00  0.3535353E-01  0.7181128E-10  0.0000000E+00 -0.1793081E-04
  0.8585858E-01  0.0000000E+00  0.3535353E-01  0.8059345E-10  0.0000000E+00 -0.1793079E-04
  0.9595960E-01  0.0000000E+00  0.3535353E-01  0.8904902E-10  0.0000000E+00 -0.1793077E-04
  0.1060606E+00  0.0000000E+00  0.3535353E-01  0.9717424E-10  0.0000000E+00 -0.1793074E-04
  0.1161616E+00  0.0000000E+00  0.3535353E-01  0.1049182E-09  0.0000000E+00 -0.1793071E-04
  0.1262626E+00  0.0000000E+00  0.3535353E-01  0.1122367E-09  0.0000000E+00 -0.1793067E-04
  0.1363636E+00  0.0000000E+00  0.3535353E-01  0.1191013E-09  0.0000000E+00 -0.1793064E-04
  0.1464646E+00  0.0000000E+00  0.3535353E-01  0.1254809E-09  0.0000000E+00 -0.1793060E-04
  0.1565657E+00  0.0000000E+00  0.3535353E-01  0.1313427E-09  0.0000000E+00 -0.1793056E-04
  0.1666667E+00  0.0000000E+00  0.3535353E-01  0.1366585E-09  0.0000000E+00 -0.1793052E-04
  0.1767677E+00  0.0000000E+00  0.3535353E-01  0.1414050E-09  0.0000000E+00 -0.1793048E-04
  0.1868687E+00  0.0000000E+00  0.3535353E-01  0.1455615E-09  0.0000000E+00 -0.1793044E-04
  0.1969697E+00  0.0000000E+00  0.3535353E-01  0.1491098E-09  0.0000000E+00 -0.1793040E-04
  0.2070707E+00  0.0000000E+00  0.3535353E-01  0.1520344E-09  0.0000000E+00 -0.1793035E-04
  0.2171717E+00  0.0000000E+00  0.3535353E-01  0.1543230E-09  0.0000000E+00 -0.1793030E-04
  0.2272727E+00  0.0000000E+00  0.3535353E-01  0.1559652E-09  0.0000000E+00 -0.1793026E-04
  0.2373737E+00  0.0000000E+00  0.3535353E-01  0.1569524E-09  0.0000000E+00 -0.1793021E-04
  0.2474747E+00  0.0000000E+00  0.3535353E-01  0.1572776E-09  0.0000000E+00 -0.1793016E-04
  0.2575758E+00  0.0000000E+00  0.3535353E-01  0.1569350E-09  0.0000000E+00 -0.1793012E-04
  0.2676768E+00  0.0000000E+00  0.3535353E-01  0.1559203E-09  0.0000000E+00 -0.1793007E-04
  0.2777778E+00  0.0000000E+00  0.3535353E-01  0.1542309E-09  0.0000000E+00 -0.1793002E-04
  0.2878788E+00  0.0000000E+00  0.3535353E-01  0.1518655E-09  0.0000000E+00 -0.1792998E-04
  0.2979798E+00  0.0000000E+00  0.3535353E-01  0.1488255E-09  0.0000000E+00 -0.1792993E-04