title = "dataset water"
variables = "x", "y", "z", "vx", "vy", "vz"
zone t = "velocities, solution time =  5.600E+01 days        " i =   99, j =   99, k =    1,  f=point
  0.5050505E-02  0.0000000E+00  0.5050505E-02  0.2418913E-07  0.0000000E+00  0.5479052E-04
  0.1515152E-01  0.0000000E+00  0.5050505E-02  0.7247816E-07  0.0000000E+00  0.5488812E-04
  0.2525252E-01  0.0000000E+00  0.5050505E-02  0.1205000E-06  0.0000000E+00  0.5508297E-04
  0.3535353E-01  0.0000000E+00  0.5050505E-02  0.1680770E-06  0.0000000E+00  0.5537434E-04
  0.4545455E-01  0.0000000E+00  0.5050505E-02  0.2150315E-06  0.0000000E+00  0.5576118E-04
  0.5555556E-01  0.0000000E+00  0.5050505E-02  0.2611842E-06  0.0000000E+00  0.5624206E-04
  0.6565657E-01  0.0000000E+00  0.5050505E-02  0.3063518E-06  0.0000000E+00  0.5681519E-04
  0.7575758E-01  0.0000000E+00  0.5050505E-02  0.3503414E-06  0.0000000E+00  0.5747839E-04
  0.8585858E-01  0.0000000E+00  0.5050505E-02  0.3929405E-06  0.0000000E+00  0.5822911E-04
  0.9595960E-01  0.0000000E+00  0.5050505E-02  0.4338983E-06  0.0000000E+00  0.5906429E-04
  0.1060606E+00  0.0000000E+00  0.5050505E-02  0.4728926E-06  0.0000000E+00  0.5998033E-04
  0.1161616E+00  0.0000000E+00  0.5050505E-02  0.5094731E-06  0.0000000E+00  0.6097282E-04
  0.1262626E+00  0.0000000E+00  0.5050505E-02  0.5429685E-06  0.0000000E+00  0.6203624E-04
  0.1363636E+00  0.0000000E+00  0.5050505E-02  0.5723370E-06  0.0000000E+00  0.6316333E-04
  0.1464646E+00  0.0000000E+00  0.5050505E-02  0.5959426E-06  0.0000000E+00  0.6434411E-04
  0.1565657E+00  0.0000000E+00  0.5050505E-02  0.6112424E-06  0.0000000E+00  0.6556438E-04
  0.1666667E+00  0.0000000E+00  0.5050505E-02  0.6144092E-06  0.0000000E+00  0.6680351E-04
  0.1767677E+00  0.0000000E+00  0.5050505E-02  0.6000138E-06  0.0000000E+00  0.6803147E-04
  0.1868687E+00  0.0000000E+00  0.5050505E-02  0.5611055E-06  0.0000000E+00  0.6920571E-04
  0.1969697E+00  0.0000000E+00  0.5050505E-02  0.4903762E-06  0.0000000E+00  0.7026922E-04
  0.2070707E+00  0.0000000E+00  0.5050505E-02  0.3833880E-06  0.0000000E+00  0.7115310E-04
  0.2171717E+00  0.0000000E+00  0.5050505E-02  0.2442511E-06  0.0000000E+00  0.7178806E-04
  0.2272727E+00  0.0000000E+00  0.5050505E-02  0.9092735E-07  0.0000000E+00  0.7212718E-04
  0.2373737E+00  0.0000000E+00  0.5050505E-02 -0.4882430E-07  0.0000000E+00  0.7216978E-04
  0.2474747E+00  0.0000000E+00  0.5050505E-02 -0.1572352E-06  0.0000000E+00  0.7196129E-04
  0.2575758E+00  0.0000000E+00  0.5050505E-02 -0.2305864E-06  0.0000000E+00  0.7156892E-04
  0.2676768E+00  0.0000000E+00  0.5050505E-02 -0.2738542E-06  0.0000000E+00  0.7105859E-04
  0.2777778E+00  0.0000000E+00  0.5050505E-02 -0.2949607E-06  0.0000000E+00  0.7048318E-04
  0.2878788E+00  0.0000000E+00  0.5050505E-02 -0.3014694E-06  0.0000000E+00  0.6987987E-04
  0.2979798E+00  0.0000000E+00  0.5050505E-02 -0.2993407E-06  0.0000000E+00  0.6927218E-04
  0.3080808E+00  0.0000000E+00  0.5050505E-02 -0.2927765E-06  0.0000000E+00  0.6867333E-04
  0.3181818E+00  0.0000000E+00  0.5050505E-02 -0.2844706E-06  0.0000000E+00  0.6808955E-04
  0.3282828E+00  0.0000000E+00  0.5050505E-02 -0.2759373E-06  0.0000000E+00  0.6752285E-04
  0.3383838E+00  0.0000000E+00  0.5050505E-02 -0.2678063E-06  0.0000000E+00  0.6697303E-04
  0.3484848E+00  0.0000000E+00  0.5050505E-02 -0.2600745E-06  0.0000000E+00  0.6643929E-04
  0.3585859E+00  0.0000000E+00  0.5050505E-02 -0.2523302E-06  0.0000000E+00  0.6592122E-04
  0.3686869E+00  0.0000000E+00  0.5050505E-02 -0.2439647E-06  0.0000000E+00  0.6541948E-04
  0.3787879E+00  0.0000000E+00  0.5050505E-02 -0.2343578E-06  0.0000000E+00  0.6493594E-04
  0.3888889E+00  0.0000000E+00  0.5050505E-02 -0.2230205E-06  0.0000000E+00  0.6447359E-04
  0.3989899E+00  0.0000000E+00  0.5050505E-02 -0.2096761E-06  0.0000000E+00  0.6403622E-04
  0.4090909E+00  0.0000000E+00  0.5050505E-02 -0.1942823E-06  0.0000000E+00  0.6362791E-04
  0.4191919E+00  0.0000000E+00  0.5050505E-02 -0.1770074E-06  0.0000000E+00  0.6325265E-04
  0.4292929E+00  0.0000000E+00  0.5050505E-02 -0.1581818E-06  0.0000000E+00  0.6291388E-04
  0.4393939E+00  0.0000000E+00  0.5050505E-02 -0.1382417E-06  0.0000000E+00  0.6261431E-04
  0.4494950E+00  0.0000000E+00  0.5050505E-02 -0.1176773E-06  0.0000000E+00  0.6235567E-04
  0.4595959E+00  0.0000000E+00  0.5050505E-02 -0.9699065E-07  0.0000000E+00  0.6213874E-04
  0.4696970E+00  0.0000000E+00  0.5050505E-02 -0.7666496E-07  0.0000000E+00  0.6196325E-04
  0.4797980E+00  0.0000000E+00  0.5050505E-02 -0.5714265E-07  0.0000000E+00  0.6182803E-04
  0.4898990E+00  0.0000000E+00  0.5050505E-02 -0.3881061E-07  0.0000000E+00  0.6173107E-04
  0.5000000E+00  0.0000000E+00  0.5050505E-02 -0.2198935E-07  0.0000000E+00  0.6166963E-04
  0.5101010E+00  0.0000000E+00  0.5050505E-02 -0.6924409E-08  0.0000000E+00  0.6164041E-04
  0.5202020E+00  0.0000000E+00  0.5050505E-02  0.6221133E-08  0.0000000E+00  0.6163970E-04
  0.5303030E+00  0.0000000E+00  0.5050505E-02  0.1737265E-07  0.0000000E+00  0.6166354E-04
  0.5404040E+00  0.0000000E+00  0.5050505E-02  0.2654660E-07  0.0000000E+00  0.6170792E-04
  0.5505050E+00  0.0000000E+00  0.5050505E-02  0.3384503E-07  0.0000000E+00  0.6176895E-04
  0.5606061E+00  0.0000000E+00  0.5050505E-02  0.3943294E-07  0.0000000E+00  0.6184300E-04
  0.5707071E+00  0.0000000E+00  0.5050505E-02  0.4348171E-07  0.0000000E+00  0.6192679E-04
  0.5808081E+00  0.0000000E+00  0.5050505E-02  0.4604756E-07  0.0000000E+00  0.6201726E-04
  0.5909091E+00  0.0000000E+00  0.5050505E-02  0.4682942E-07  0.0000000E+00  0.6211112E-04
  0.6010101E+00  0.0000000E+00  0.5050505E-02  0.4470890E-07  0.0000000E+00  0.6220362E-04
  0.6111111E+00  0.0000000E+00  0.5050505E-02  0.3691493E-07  0.0000000E+00  0.6228611E-04
  0.6212121E+00  0.0000000E+00  0.5050505E-02  0.1760418E-07  0.0000000E+00  0.6234121E-04
  0.6313131E+00  0.0000000E+00  0.5050505E-02 -0.2424566E-07  0.0000000E+00  0.6233450E-04
  0.6414142E+00  0.0000000E+00  0.5050505E-02 -0.1069611E-06  0.0000000E+00  0.6220190E-04
  0.6515151E+00  0.0000000E+00  0.5050505E-02 -0.2549200E-06  0.0000000E+00  0.6183621E-04
  0.6616161E+00  0.0000000E+00  0.5050505E-02 -0.4841950E-06  0.0000000E+00  0.6108939E-04
  0.6717172E+00  0.0000000E+00  0.5050505E-02 -0.7609128E-06  0.0000000E+00  0.5983150E-04
  0.6818182E+00  0.0000000E+00  0.5050505E-02 -0.9615484E-06  0.0000000E+00  0.5809171E-04
  0.6919192E+00  0.0000000E+00  0.5050505E-02 -0.1059271E-05  0.0000000E+00  0.5605106E-04
  0.7020202E+00  0.0000000E+00  0.5050505E-02 -0.1079201E-05  0.0000000E+00  0.5389216E-04
  0.7121212E+00  0.0000000E+00  0.5050505E-02 -0.1053181E-05  0.0000000E+00  0.5173996E-04
  0.7222222E+00  0.0000000E+00  0.5050505E-02 -0.1004433E-05  0.0000000E+00  0.4966376E-04
  0.7323232E+00  0.0000000E+00  0.5050505E-02 -0.9467367E-06  0.0000000E+00  0.4769543E-04
  0.7424242E+00  0.0000000E+00  0.5050505E-02 -0.8873169E-06  0.0000000E+00  0.4584566E-04
  0.7525253E+00  0.0000000E+00  0.5050505E-02 -0.8295669E-06  0.0000000E+00  0.4411444E-04
  0.7626263E+00  0.0000000E+00  0.5050505E-02 -0.7748449E-06  0.0000000E+00  0.4249695E-04
  0.7727273E+00  0.0000000E+00  0.5050505E-02 -0.7235038E-06  0.0000000E+00  0.4098666E-04
  0.7828283E+00  0.0000000E+00  0.5050505E-02 -0.6754384E-06  0.0000000E+00  0.3957682E-04
  0.7929293E+00  0.0000000E+00  0.5050505E-02 -0.6303599E-06  0.0000000E+00  0.3826105E-04
  0.8030303E+00  0.0000000E+00  0.5050505E-02 -0.5879288E-06  0.0000000E+00  0.3703365E-04
  0.8131313E+00  0.0000000E+00  0.5050505E-02 -0.5478132E-06  0.0000000E+00  0.3588958E-04
  0.8232324E+00  0.0000000E+00  0.5050505E-02 -0.5097127E-06  0.0000000E+00  0.3482443E-04
  0.8333333E+00  0.0000000E+00  0.5050505E-02 -0.4733652E-06  0.0000000E+00  0.3383439E-04
  0.8434343E+00  0.0000000E+00  0.5050505E-02 -0.4385455E-06  0.0000000E+00  0.3291612E-04
  0.8535354E+00  0.0000000E+00  0.5050505E-02 -0.4050617E-06  0.0000000E+00  0.3206672E-04
  0.8636364E+00  0.0000000E+00  0.5050505E-02 -0.3727501E-06  0.0000000E+00  0.3128364E-04
  0.8737374E+00  0.0000000E+00  0.5050505E-02 -0.3414708E-06  0.0000000E+00  0.3056465E-04
  0.8838384E+00  0.0000000E+00  0.5050505E-02 -0.3111028E-06  0.0000000E+00  0.2990777E-04
  0.8939394E+00  0.0000000E+00  0.5050505E-02 -0.2815407E-06  0.0000000E+00  0.2931126E-04
  0.9040404E+00  0.0000000E+00  0.5050505E-02 -0.2526908E-06  0.0000000E+00  0.2877357E-04
  0.9141414E+00  0.0000000E+00  0.5050505E-02 -0.2244691E-06  0.0000000E+00  0.2829336E-04
  0.9242424E+00  0.0000000E+00  0.5050505E-02 -0.1967984E-06  0.0000000E+00  0.2786942E-04
  0.9343435E+00  0.0000000E+00  0.5050505E-02 -0.1696069E-06  0.0000000E+00  0.2750070E-04
  0.9444444E+00  0.0000000E+00  0.5050505E-02 -0.1428262E-06  0.0000000E+00  0.2718631E-04
  0.9545454E+00  0.0000000E+00  0.5050505E-02 -0.1163906E-06  0.0000000E+00  0.2692548E-04
  0.9646465E+00  0.0000000E+00  0.5050505E-02 -0.9023598E-07  0.0000000E+00  0.2671757E-04
  0.9747475E+00  0.0000000E+00  0.5050505E-02 -0.6429913E-07  0.0000000E+00  0.2656208E-04
  0.9848485E+00  0.0000000E+00  0.5050505E-02 -0.3851751E-07  0.0000000E+00  0.2645863E-04
  0.9974747E+00  0.0000000E+00  0.5050505E-02 -0.1282886E-07  0.0000000E+00  0.2640696E-04
  0.5050505E-02  0.0000000E+00  0.1515152E-01  0.7272074E-07  0.0000000E+00  0.5493213E-04
  0.1515152E-01  0.0000000E+00  0.1515152E-01  0.2178957E-06  0.0000000E+00  0.5503064E-04
  0.2525252E-01  0.0000000E+00  0.1515152E-01  0.3622727E-06  0.0000000E+00  0.5522731E-04
  0.3535353E-01  0.0000000E+00  0.1515152E-01  0.5053214E-06  0.0000000E+00  0.5552142E-04
  0.4545455E-01  0.0000000E+00  0.1515152E-01  0.6465122E-06  0.0000000E+00  0.5591192E-04
  0.5555556E-01  0.0000000E+00  0.1515152E-01  0.7853124E-06  0.0000000E+00  0.5639740E-04
  0.6565657E-01  0.0000000E+00  0.1515152E-01  0.9211805E-06  0.0000000E+00  0.5697611E-04
  0.7575758E-01  0.0000000E+00  0.1515152E-01  0.1053551E-05  0.0000000E+00  0.5764593E-04
  0.8585858E-01  0.0000000E+00  0.1515152E-01  0.1181810E-05  0.0000000E+00  0.5840437E-04
  0.9595960E-01  0.0000000E+00  0.1515152E-01  0.1305242E-05  0.0000000E+00  0.5924856E-04
  0.1060606E+00  0.0000000E+00  0.1515152E-01  0.1422942E-05  0.0000000E+00  0.6017510E-04
  0.1161616E+00  0.0000000E+00  0.1515152E-01  0.1533655E-05  0.0000000E+00  0.6118003E-04
  0.1262626E+00  0.0000000E+00  0.1515152E-01  0.1635517E-05  0.0000000E+00  0.6225845E-04
  0.1363636E+00  0.0000000E+00  0.1515152E-01  0.1725623E-05  0.0000000E+00  0.6340412E-04
  0.1464646E+00  0.0000000E+00  0.1515152E-01  0.1799363E-05  0.0000000E+00  0.6460862E-04
  0.1565657E+00  0.0000000E+00  0.1515152E-01  0.1849452E-05  0.0000000E+00  0.6585992E-04
  0.1666667E+00  0.0000000E+00  0.1515152E-01  0.1864669E-05  0.0000000E+00  0.6714015E-04
  0.1767677E+00  0.0000000E+00  0.1515152E-01  0.1828554E-05  0.0000000E+00  0.6842213E-04
  0.1868687E+00  0.0000000E+00  0.1515152E-01  0.1718972E-05  0.0000000E+00  0.6966463E-04
  0.1969697E+00  0.0000000E+00  0.1515152E-01  0.1510652E-05  0.0000000E+00  0.7080726E-04
  0.2070707E+00  0.0000000E+00  0.1515152E-01  0.1184551E-05  0.0000000E+00  0.7176849E-04
  0.2171717E+00  0.0000000E+00  0.1515152E-01  0.7477982E-06  0.0000000E+00  0.7245535E-04
  0.2272727E+00  0.0000000E+00  0.1515152E-01  0.2585853E-06  0.0000000E+00  0.7279634E-04
  0.2373737E+00  0.0000000E+00  0.1515152E-01 -0.1797781E-06  0.0000000E+00  0.7279100E-04
  0.2474747E+00  0.0000000E+00  0.1515152E-01 -0.5097085E-06  0.0000000E+00  0.7250973E-04
  0.2575758E+00  0.0000000E+00  0.1515152E-01 -0.7253134E-06  0.0000000E+00  0.7204379E-04
  0.2676768E+00  0.0000000E+00  0.1515152E-01 -0.8473243E-06  0.0000000E+00  0.7147194E-04
  0.2777778E+00  0.0000000E+00  0.1515152E-01 -0.9029353E-06  0.0000000E+00  0.7085050E-04
  0.2878788E+00  0.0000000E+00  0.1515152E-01 -0.9162041E-06  0.0000000E+00  0.7021523E-04
  0.2979798E+00  0.0000000E+00  0.1515152E-01 -0.9052640E-06  0.0000000E+00  0.6958650E-04
  0.3080808E+00  0.0000000E+00  0.1515152E-01 -0.8825319E-06  0.0000000E+00  0.6897431E-04
  0.3181818E+00  0.0000000E+00  0.1515152E-01 -0.8557952E-06  0.0000000E+00  0.6838217E-04
  0.3282828E+00  0.0000000E+00  0.1515152E-01 -0.8293162E-06  0.0000000E+00  0.6780987E-04
  0.3383838E+00  0.0000000E+00  0.1515152E-01 -0.8047343E-06  0.0000000E+00  0.6725559E-04
  0.3484848E+00  0.0000000E+00  0.1515152E-01 -0.7818064E-06  0.0000000E+00  0.6671735E-04
  0.3585859E+00  0.0000000E+00  0.1515152E-01 -0.7590755E-06  0.0000000E+00  0.6619406E-04
  0.3686869E+00  0.0000000E+00  0.1515152E-01 -0.7345134E-06  0.0000000E+00  0.6568609E-04
  0.3787879E+00  0.0000000E+00  0.1515152E-01 -0.7061047E-06  0.0000000E+00  0.6519541E-04
  0.3888889E+00  0.0000000E+00  0.1515152E-01 -0.6722893E-06  0.0000000E+00  0.6472538E-04
  0.3989899E+00  0.0000000E+00  0.1515152E-01 -0.6322075E-06  0.0000000E+00  0.6428024E-04
  0.4090909E+00  0.0000000E+00  0.1515152E-01 -0.5857512E-06  0.0000000E+00  0.6386459E-04
  0.4191919E+00  0.0000000E+00  0.1515152E-01 -0.5334729E-06  0.0000000E+00  0.6348281E-04
  0.4292929E+00  0.0000000E+00  0.1515152E-01 -0.4764208E-06  0.0000000E+00  0.6313867E-04
  0.4393939E+00  0.0000000E+00  0.1515152E-01 -0.4159578E-06  0.0000000E+00  0.6283507E-04
  0.4494950E+00  0.0000000E+00  0.1515152E-01 -0.3535992E-06  0.0000000E+00  0.6257386E-04
  0.4595959E+00  0.0000000E+00  0.1515152E-01 -0.2908850E-06  0.0000000E+00  0.6235579E-04
  0.4696970E+00  0.0000000E+00  0.1515152E-01 -0.2292887E-06  0.0000000E+00  0.6218059E-04
  0.4797980E+00  0.0000000E+00  0.1515152E-01 -0.1701540E-06  0.0000000E+00  0.6204697E-04
  0.4898990E+00  0.0000000E+00  0.1515152E-01 -0.1146531E-06  0.0000000E+00  0.6195280E-04
  0.5000000E+00  0.0000000E+00  0.1515152E-01 -0.6375576E-07  0.0000000E+00  0.6189521E-04
  0.5101010E+00  0.0000000E+00  0.1515152E-01 -0.1820417E-07  0.0000000E+00  0.6187074E-04
  0.5202020E+00  0.0000000E+00  0.1515152E-01  0.2150971E-07  0.0000000E+00  0.6187550E-04
  0.5303030E+00  0.0000000E+00  0.1515152E-01  0.5516472E-07  0.0000000E+00  0.6190537E-04
  0.5404040E+00  0.0000000E+00  0.1515152E-01  0.8282339E-07  0.0000000E+00  0.6195618E-04
  0.5505050E+00  0.0000000E+00  0.1515152E-01  0.1048250E-06  0.0000000E+00  0.6202393E-04
  0.5606061E+00  0.0000000E+00  0.1515152E-01  0.1217349E-06  0.0000000E+00  0.6210500E-04
  0.5707071E+00  0.0000000E+00  0.1515152E-01  0.1342055E-06  0.0000000E+00  0.6219631E-04
  0.5808081E+00  0.0000000E+00  0.1515152E-01  0.1426656E-06  0.0000000E+00  0.6229542E-04
  0.5909091E+00  0.0000000E+00  0.1515152E-01  0.1466860E-06  0.0000000E+00  0.6240039E-04
  0.6010101E+00  0.0000000E+00  0.1515152E-01  0.1437455E-06  0.0000000E+00  0.6250916E-04
  0.6111111E+00  0.0000000E+00  0.1515152E-01  0.1269103E-06  0.0000000E+00  0.6261795E-04
  0.6212121E+00  0.0000000E+00  0.1515152E-01  0.8064037E-07  0.0000000E+00  0.6271768E-04
  0.6313131E+00  0.0000000E+00  0.1515152E-01 -0.2625100E-07  0.0000000E+00  0.6278605E-04
  0.6414142E+00  0.0000000E+00  0.1515152E-01 -0.2503973E-06  0.0000000E+00  0.6277128E-04
  0.6515151E+00  0.0000000E+00  0.1515152E-01 -0.6797395E-06  0.0000000E+00  0.6256165E-04
  0.6616161E+00  0.0000000E+00  0.1515152E-01 -0.1404208E-05  0.0000000E+00  0.6194742E-04
  0.6717172E+00  0.0000000E+00  0.1515152E-01 -0.2361019E-05  0.0000000E+00  0.6065570E-04
  0.6818182E+00  0.0000000E+00  0.1515152E-01 -0.2992649E-05  0.0000000E+00  0.5872289E-04
  0.6919192E+00  0.0000000E+00  0.1515152E-01 -0.3262276E-05  0.0000000E+00  0.5648230E-04
  0.7020202E+00  0.0000000E+00  0.1515152E-01 -0.3290536E-05  0.0000000E+00  0.5417885E-04
  0.7121212E+00  0.0000000E+00  0.1515152E-01 -0.3188797E-05  0.0000000E+00  0.5193791E-04
  0.7222222E+00  0.0000000E+00  0.1515152E-01 -0.3027986E-05  0.0000000E+00  0.4981176E-04
  0.7323232E+00  0.0000000E+00  0.1515152E-01 -0.2846819E-05  0.0000000E+00  0.4781662E-04
  0.7424242E+00  0.0000000E+00  0.1515152E-01 -0.2664375E-05  0.0000000E+00  0.4595272E-04
  0.7525253E+00  0.0000000E+00  0.1515152E-01 -0.2489085E-05  0.0000000E+00  0.4421394E-04
  0.7626263E+00  0.0000000E+00  0.1515152E-01 -0.2323997E-05  0.0000000E+00  0.4259217E-04
  0.7727273E+00  0.0000000E+00  0.1515152E-01 -0.2169613E-05  0.0000000E+00  0.4107917E-04
  0.7828283E+00  0.0000000E+00  0.1515152E-01 -0.2025324E-05  0.0000000E+00  0.3966734E-04
  0.7929293E+00  0.0000000E+00  0.1515152E-01 -0.1890116E-05  0.0000000E+00  0.3834989E-04
  0.8030303E+00  0.0000000E+00  0.1515152E-01 -0.1762898E-05  0.0000000E+00  0.3712094E-04
  0.8131313E+00  0.0000000E+00  0.1515152E-01 -0.1642638E-05  0.0000000E+00  0.3597538E-04
  0.8232324E+00  0.0000000E+00  0.1515152E-01 -0.1528421E-05  0.0000000E+00  0.3490878E-04
  0.8333333E+00  0.0000000E+00  0.1515152E-01 -0.1419453E-05  0.0000000E+00  0.3391732E-04
  0.8434343E+00  0.0000000E+00  0.1515152E-01 -0.1315059E-05  0.0000000E+00  0.3299770E-04
  0.8535354E+00  0.0000000E+00  0.1515152E-01 -0.1214662E-05  0.0000000E+00  0.3214701E-04
  0.8636364E+00  0.0000000E+00  0.1515152E-01 -0.1117774E-05  0.0000000E+00  0.3136272E-04
  0.8737374E+00  0.0000000E+00  0.1515152E-01 -0.1023976E-05  0.0000000E+00  0.3064261E-04
  0.8838384E+00  0.0000000E+00  0.1515152E-01 -0.9329071E-06  0.0000000E+00  0.2998470E-04
  0.8939394E+00  0.0000000E+00  0.1515152E-01 -0.8442529E-06  0.0000000E+00  0.2938726E-04
  0.9040404E+00  0.0000000E+00  0.1515152E-01 -0.7577339E-06  0.0000000E+00  0.2884875E-04
  0.9141414E+00  0.0000000E+00  0.1515152E-01 -0.6730991E-06  0.0000000E+00  0.2836781E-04
  0.9242424E+00  0.0000000E+00  0.1515152E-01 -0.5901178E-06  0.0000000E+00  0.2794324E-04
  0.9343435E+00  0.0000000E+00  0.1515152E-01 -0.5085750E-06  0.0000000E+00  0.2757399E-04
  0.9444444E+00  0.0000000E+00  0.1515152E-01 -0.4282664E-06  0.0000000E+00  0.2725916E-04
  0.9545454E+00  0.0000000E+00  0.1515152E-01 -0.3489948E-06  0.0000000E+00  0.2699796E-04
  0.9646465E+00  0.0000000E+00  0.1515152E-01 -0.2705678E-06  0.0000000E+00  0.2678977E-04
  0.9747475E+00  0.0000000E+00  0.1515152E-01 -0.1927960E-06  0.0000000E+00  0.2663407E-04
  0.9848485E+00  0.0000000E+00  0.1515152E-01 -0.1154911E-06  0.0000000E+00  0.2653048E-04
  0.9974747E+00  0.0000000E+00  0.1515152E-01 -0.3846599E-07  0.0000000E+00  0.2647875E-04
  0.5050505E-02  0.0000000E+00  0.2525252E-01  0.1217842E-06  0.0000000E+00  0.5521662E-04
  0.1515152E-01  0.0000000E+00  0.2525252E-01  0.3649116E-06  0.0000000E+00  0.5531695E-04
  0.2525252E-01  0.0000000E+00  0.2525252E-01  0.6067187E-06  0.0000000E+00  0.5551726E-04
  0.3535353E-01  0.0000000E+00  0.2525252E-01  0.8463294E-06  0.0000000E+00  0.5581685E-04
  0.4545455E-01  0.0000000E+00  0.2525252E-01  0.1082871E-05  0.0000000E+00  0.5621468E-04
  0.5555556E-01  0.0000000E+00  0.2525252E-01  0.1315472E-05  0.0000000E+00  0.5670937E-04
  0.6565657E-01  0.0000000E+00  0.2525252E-01  0.1543253E-05  0.0000000E+00  0.5729923E-04
  0.7575758E-01  0.0000000E+00  0.2525252E-01  0.1765316E-05  0.0000000E+00  0.5798224E-04
  0.8585858E-01  0.0000000E+00  0.2525252E-01  0.1980705E-05  0.0000000E+00  0.5875605E-04
  0.9595960E-01  0.0000000E+00  0.2525252E-01  0.2188344E-05  0.0000000E+00  0.5961805E-04
  0.1060606E+00  0.0000000E+00  0.2525252E-01  0.2386914E-05  0.0000000E+00  0.6056529E-04
  0.1161616E+00  0.0000000E+00  0.2525252E-01  0.2574635E-05  0.0000000E+00  0.6159452E-04
  0.1262626E+00  0.0000000E+00  0.2525252E-01  0.2748881E-05  0.0000000E+00  0.6270204E-04
  0.1363636E+00  0.0000000E+00  0.2525252E-01  0.2905539E-05  0.0000000E+00  0.6388354E-04
  0.1464646E+00  0.0000000E+00  0.2525252E-01  0.3037949E-05  0.0000000E+00  0.6513355E-04
  0.1565657E+00  0.0000000E+00  0.2525252E-01  0.3135253E-05  0.0000000E+00  0.6644450E-04
  0.1666667E+00  0.0000000E+00  0.2525252E-01  0.3179952E-05  0.0000000E+00  0.6780465E-04
  0.1767677E+00  0.0000000E+00  0.2525252E-01  0.3144706E-05  0.0000000E+00  0.6919411E-04
  0.1868687E+00  0.0000000E+00  0.2525252E-01  0.2989234E-05  0.0000000E+00  0.7057756E-04
  0.1969697E+00  0.0000000E+00  0.2525252E-01  0.2660496E-05  0.0000000E+00  0.7189222E-04
  0.2070707E+00  0.0000000E+00  0.2525252E-01  0.2104652E-05  0.0000000E+00  0.7303292E-04
  0.2171717E+00  0.0000000E+00  0.2525252E-01  0.1307256E-05  0.0000000E+00  0.7384875E-04
  0.2272727E+00  0.0000000E+00  0.2525252E-01  0.3736554E-06  0.0000000E+00  0.7419329E-04
  0.2373737E+00  0.0000000E+00  0.2525252E-01 -0.4256215E-06  0.0000000E+00  0.7406650E-04
  0.2474747E+00  0.0000000E+00  0.2525252E-01 -0.9863465E-06  0.0000000E+00  0.7361461E-04
  0.2575758E+00  0.0000000E+00  0.2525252E-01 -0.1325232E-05  0.0000000E+00  0.7298758E-04
  0.2676768E+00  0.0000000E+00  0.2525252E-01 -0.1499189E-05  0.0000000E+00  0.7228829E-04
  0.2777778E+00  0.0000000E+00  0.2525252E-01 -0.1564743E-05  0.0000000E+00  0.7157557E-04
  0.2878788E+00  0.0000000E+00  0.2525252E-01 -0.1565662E-05  0.0000000E+00  0.7087903E-04
  0.2979798E+00  0.0000000E+00  0.2525252E-01 -0.1532356E-05  0.0000000E+00  0.7021117E-04
  0.3080808E+00  0.0000000E+00  0.2525252E-01 -0.1484565E-05  0.0000000E+00  0.6957493E-04
  0.3181818E+00  0.0000000E+00  0.2525252E-01 -0.1434173E-05  0.0000000E+00  0.6896816E-04
  0.3282828E+00  0.0000000E+00  0.2525252E-01 -0.1387328E-05  0.0000000E+00  0.6838629E-04
  0.3383838E+00  0.0000000E+00  0.2525252E-01 -0.1345938E-05  0.0000000E+00  0.6782422E-04
  0.3484848E+00  0.0000000E+00  0.2525252E-01 -0.1308826E-05  0.0000000E+00  0.6727766E-04
  0.3585859E+00  0.0000000E+00  0.2525252E-01 -0.1272803E-05  0.0000000E+00  0.6674413E-04
  0.3686869E+00  0.0000000E+00  0.2525252E-01 -0.1233790E-05  0.0000000E+00  0.6622354E-04
  0.3787879E+00  0.0000000E+00  0.2525252E-01 -0.1187890E-05  0.0000000E+00  0.6571816E-04
  0.3888889E+00  0.0000000E+00  0.2525252E-01 -0.1132189E-05  0.0000000E+00  0.6523218E-04
  0.3989899E+00  0.0000000E+00  0.2525252E-01 -0.1065168E-05  0.0000000E+00  0.6477093E-04
  0.4090909E+00  0.0000000E+00  0.2525252E-01 -0.9867308E-06  0.0000000E+00  0.6434005E-04
  0.4191919E+00  0.0000000E+00  0.2525252E-01 -0.8979767E-06  0.0000000E+00  0.6394482E-04
  0.4292929E+00  0.0000000E+00  0.2525252E-01 -0.8008576E-06  0.0000000E+00  0.6358965E-04
  0.4393939E+00  0.0000000E+00  0.2525252E-01 -0.6978338E-06  0.0000000E+00  0.6327783E-04
  0.4494950E+00  0.0000000E+00  0.2525252E-01 -0.5915838E-06  0.0000000E+00  0.6301138E-04
  0.4595959E+00  0.0000000E+00  0.2525252E-01 -0.4847878E-06  0.0000000E+00  0.6279106E-04
  0.4696970E+00  0.0000000E+00  0.2525252E-01 -0.3799806E-06  0.0000000E+00  0.6261648E-04
  0.4797980E+00  0.0000000E+00  0.2525252E-01 -0.2794564E-06  0.0000000E+00  0.6248616E-04
  0.4898990E+00  0.0000000E+00  0.2525252E-01 -0.1852062E-06  0.0000000E+00  0.6239773E-04
  0.5000000E+00  0.0000000E+00  0.2525252E-01 -0.9887385E-07  0.0000000E+00  0.6234800E-04
  0.5101010E+00  0.0000000E+00  0.2525252E-01 -0.2171686E-07  0.0000000E+00  0.6233319E-04
  0.5202020E+00  0.0000000E+00  0.2525252E-01  0.4543278E-07  0.0000000E+00  0.6234907E-04
  0.5303030E+00  0.0000000E+00  0.2525252E-01  0.1022099E-06  0.0000000E+00  0.6239115E-04
  0.5404040E+00  0.0000000E+00  0.2525252E-01  0.1487528E-06  0.0000000E+00  0.6245492E-04
  0.5505050E+00  0.0000000E+00  0.2525252E-01  0.1857203E-06  0.0000000E+00  0.6253611E-04
  0.5606061E+00  0.0000000E+00  0.2525252E-01  0.2142601E-06  0.0000000E+00  0.6263097E-04
  0.5707071E+00  0.0000000E+00  0.2525252E-01  0.2358696E-06  0.0000000E+00  0.6273667E-04
  0.5808081E+00  0.0000000E+00  0.2525252E-01  0.2520443E-06  0.0000000E+00  0.6285166E-04
  0.5909091E+00  0.0000000E+00  0.2525252E-01  0.2635142E-06  0.0000000E+00  0.6297616E-04
  0.6010101E+00  0.0000000E+00  0.2525252E-01  0.2686902E-06  0.0000000E+00  0.6311261E-04
  0.6111111E+00  0.0000000E+00  0.2525252E-01  0.2605799E-06  0.0000000E+00  0.6326600E-04
  0.6212121E+00  0.0000000E+00  0.2525252E-01  0.2206651E-06  0.0000000E+00  0.6344352E-04
  0.6313131E+00  0.0000000E+00  0.2525252E-01  0.1066441E-06  0.0000000E+00  0.6365117E-04
  0.6414142E+00  0.0000000E+00  0.2525252E-01 -0.1719453E-06  0.0000000E+00  0.6387877E-04
  0.6515151E+00  0.0000000E+00  0.2525252E-01 -0.7977930E-06  0.0000000E+00  0.6404568E-04
  0.6616161E+00  0.0000000E+00  0.2525252E-01 -0.2090191E-05  0.0000000E+00  0.6384132E-04
  0.6717172E+00  0.0000000E+00  0.2525252E-01 -0.4295444E-05  0.0000000E+00  0.6247475E-04
  0.6818182E+00  0.0000000E+00  0.2525252E-01 -0.5405207E-05  0.0000000E+00  0.6000170E-04
  0.6919192E+00  0.0000000E+00  0.2525252E-01 -0.5731044E-05  0.0000000E+00  0.5729586E-04
  0.7020202E+00  0.0000000E+00  0.2525252E-01 -0.5656745E-05  0.0000000E+00  0.5470036E-04
  0.7121212E+00  0.0000000E+00  0.2525252E-01 -0.5406457E-05  0.0000000E+00  0.5229730E-04
  0.7222222E+00  0.0000000E+00  0.2525252E-01 -0.5092084E-05  0.0000000E+00  0.5008612E-04
  0.7323232E+00  0.0000000E+00  0.2525252E-01 -0.4765499E-05  0.0000000E+00  0.4804745E-04
  0.7424242E+00  0.0000000E+00  0.2525252E-01 -0.4449008E-05  0.0000000E+00  0.4616123E-04
  0.7525253E+00  0.0000000E+00  0.2525252E-01 -0.4150906E-05  0.0000000E+00  0.4441060E-04
  0.7626263E+00  0.0000000E+00  0.2525252E-01 -0.3873099E-05  0.0000000E+00  0.4278198E-04
  0.7727273E+00  0.0000000E+00  0.2525252E-01 -0.3614748E-05  0.0000000E+00  0.4126443E-04
  0.7828283E+00  0.0000000E+00  0.2525252E-01 -0.3373983E-05  0.0000000E+00  0.3984903E-04
  0.7929293E+00  0.0000000E+00  0.2525252E-01 -0.3148688E-05  0.0000000E+00  0.3852841E-04
  0.8030303E+00  0.0000000E+00  0.2525252E-01 -0.2936832E-05  0.0000000E+00  0.3729643E-04
  0.8131313E+00  0.0000000E+00  0.2525252E-01 -0.2736601E-05  0.0000000E+00  0.3614789E-04
  0.8232324E+00  0.0000000E+00  0.2525252E-01 -0.2546425E-05  0.0000000E+00  0.3507837E-04
  0.8333333E+00  0.0000000E+00  0.2525252E-01 -0.2364966E-05  0.0000000E+00  0.3408406E-04
  0.8434343E+00  0.0000000E+00  0.2525252E-01 -0.2191095E-05  0.0000000E+00  0.3316169E-04
  0.8535354E+00  0.0000000E+00  0.2525252E-01 -0.2023856E-05  0.0000000E+00  0.3230839E-04
  0.8636364E+00  0.0000000E+00  0.2525252E-01 -0.1862439E-05  0.0000000E+00  0.3152165E-04
  0.8737374E+00  0.0000000E+00  0.2525252E-01 -0.1706154E-05  0.0000000E+00  0.3079928E-04
  0.8838384E+00  0.0000000E+00  0.2525252E-01 -0.1554404E-05  0.0000000E+00  0.3013930E-04
  0.8939394E+00  0.0000000E+00  0.2525252E-01 -0.1406670E-05  0.0000000E+00  0.2954000E-04
  0.9040404E+00  0.0000000E+00  0.2525252E-01 -0.1262491E-05  0.0000000E+00  0.2899983E-04
  0.9141414E+00  0.0000000E+00  0.2525252E-01 -0.1121453E-05  0.0000000E+00  0.2851743E-04
  0.9242424E+00  0.0000000E+00  0.2525252E-01 -0.9831736E-06  0.0000000E+00  0.2809160E-04
  0.9343435E+00  0.0000000E+00  0.2525252E-01 -0.8472969E-06  0.0000000E+00  0.2772128E-04
  0.9444444E+00  0.0000000E+00  0.2525252E-01 -0.7134833E-06  0.0000000E+00  0.2740555E-04
  0.9545454E+00  0.0000000E+00  0.2525252E-01 -0.5814051E-06  0.0000000E+00  0.2714363E-04
  0.9646465E+00  0.0000000E+00  0.2525252E-01 -0.4507413E-06  0.0000000E+00  0.2693488E-04
  0.9747475E+00  0.0000000E+00  0.2525252E-01 -0.3211753E-06  0.0000000E+00  0.2677876E-04
  0.9848485E+00  0.0000000E+00  0.2525252E-01 -0.1923923E-06  0.0000000E+00  0.2667490E-04
  0.9974747E+00  0.0000000E+00  0.2525252E-01 -0.6407865E-07  0.0000000E+00  0.2662303E-04
  0.5050505E-02  0.0000000E+00  0.3535353E-01  0.1718299E-06  0.0000000E+00  0.5564464E-04
  0.1515152E-01  0.0000000E+00  0.3535353E-01  0.5148778E-06  0.0000000E+00  0.5574770E-04
  0.2525252E-01  0.0000000E+00  0.3535353E-01  0.8560937E-06  0.0000000E+00  0.5595349E-04
  0.3535353E-01  0.0000000E+00  0.3535353E-01  0.1194264E-05  0.0000000E+00  0.5626130E-04
  0.4545455E-01  0.0000000E+00  0.3535353E-01  0.1528186E-05  0.0000000E+00  0.5667013E-04
  0.5555556E-01  0.0000000E+00  0.3535353E-01  0.1856666E-05  0.0000000E+00  0.5717863E-04
  0.6565657E-01  0.0000000E+00  0.3535353E-01  0.2178519E-05  0.0000000E+00  0.5778518E-04
  0.7575758E-01  0.0000000E+00  0.3535353E-01  0.2492561E-05  0.0000000E+00  0.5848784E-04
  0.8585858E-01  0.0000000E+00  0.3535353E-01  0.2797580E-05  0.0000000E+00  0.5928447E-04
  0.9595960E-01  0.0000000E+00  0.3535353E-01  0.3092287E-05  0.0000000E+00  0.6017274E-04
  0.1060606E+00  0.0000000E+00  0.3535353E-01  0.3375191E-05  0.0000000E+00  0.6115024E-04
  0.1161616E+00  0.0000000E+00  0.3535353E-01  0.3644392E-05  0.0000000E+00  0.6221457E-04
  0.1262626E+00  0.0000000E+00  0.3535353E-01  0.3897163E-05  0.0000000E+00  0.6336355E-04
  0.1363636E+00  0.0000000E+00  0.3535353E-01  0.4129230E-05  0.0000000E+00  0.6459535E-04
  0.1464646E+00  0.0000000E+00  0.3535353E-01  0.4333493E-05  0.0000000E+00  0.6590862E-04
  0.1565657E+00  0.0000000E+00  0.3535353E-01  0.4497819E-05  0.0000000E+00  0.6730236E-04
  0.1666667E+00  0.0000000E+00  0.3535353E-01  0.4601339E-05  0.0000000E+00  0.6877497E-04
  0.1767677E+00  0.0000000E+00  0.3535353E-01  0.4608415E-05  0.0000000E+00  0.7032105E-04
  0.1868687E+00  0.0000000E+00  0.3535353E-01  0.4459628E-05  0.0000000E+00  0.7192274E-04
  0.1969697E+00  0.0000000E+00  0.3535353E-01  0.4061162E-05  0.0000000E+00  0.7352867E-04
  0.2070707E+00  0.0000000E+00  0.3535353E-01  0.3283344E-05  0.0000000E+00  0.7501154E-04
  0.2171717E+00  0.0000000E+00  0.3535353E-01  0.2010182E-05  0.0000000E+00  0.7610985E-04
  0.2272727E+00  0.0000000E+00  0.3535353E-01  0.3513703E-06  0.0000000E+00  0.7645912E-04
  0.2373737E+00  0.0000000E+00  0.3535353E-01 -0.9226129E-06  0.0000000E+00  0.7606008E-04
  0.2474747E+00  0.0000000E+00  0.3535353E-01 -0.1703912E-05  0.0000000E+00  0.7527848E-04
  0.2575758E+00  0.0000000E+00  0.3535353E-01 -0.2112156E-05  0.0000000E+00  0.7437616E-04
  0.2676768E+00  0.0000000E+00  0.3535353E-01 -0.2281871E-05  0.0000000E+00  0.7347892E-04
  0.2777778E+00  0.0000000E+00  0.3535353E-01 -0.2312353E-05  0.0000000E+00  0.7263436E-04
  0.2878788E+00  0.0000000E+00  0.3535353E-01 -0.2268531E-05  0.0000000E+00  0.7185432E-04
  0.2979798E+00  0.0000000E+00  0.3535353E-01 -0.2190957E-05  0.0000000E+00  0.7113586E-04