title = "dataset water"
variables = "x", "y", "z", "vx", "vy", "vz"
zone t = "velocities, solution time =  3.600E+01 days        " i =   99, j =   99, k =    1,  f=point
  0.5050505E-02  0.0000000E+00  0.5050505E-02  0.1122781E-09  0.0000000E+00 -0.7080031E-05
  0.1515152E-01  0.0000000E+00  0.5050505E-02  0.3363053E-09  0.0000000E+00 -0.7079582E-05
  0.2525252E-01  0.0000000E+00  0.5050505E-02  0.5587418E-09  0.0000000E+00 -0.7078686E-05
  0.3535353E-01  0.0000000E+00  0.5050505E-02  0.7785325E-09  0.0000000E+00 -0.7077348E-05
  0.4545455E-01  0.0000000E+00  0.5050505E-02  0.9946321E-09  0.0000000E+00 -0.7075573E-05
  0.5555556E-01  0.0000000E+00  0.5050505E-02  0.1206008E-08  0.0000000E+00 -0.7073371E-05
  0.6565657E-01  0.0000000E+00  0.5050505E-02  0.1411644E-08  0.0000000E+00 -0.7070751E-05
  0.7575758E-01  0.0000000E+00  0.5050505E-02  0.1610546E-08  0.0000000E+00 -0.7067726E-05
  0.8585858E-01  0.0000000E+00  0.5050505E-02  0.1801743E-08  0.0000000E+00 -0.7064311E-05
  0.9595960E-01  0.0000000E+00  0.5050505E-02  0.1984294E-08  0.0000000E+00 -0.7060521E-05
  0.1060606E+00  0.0000000E+00  0.5050505E-02  0.2157292E-08  0.0000000E+00 -0.7056376E-05
  0.1161616E+00  0.0000000E+00  0.5050505E-02  0.2319869E-08  0.0000000E+00 -0.7051895E-05
  0.1262626E+00  0.0000000E+00  0.5050505E-02  0.2471198E-08  0.0000000E+00 -0.7047100E-05
  0.1363636E+00  0.0000000E+00  0.5050505E-02  0.2610502E-08  0.0000000E+00 -0.7042014E-05
  0.1464646E+00  0.0000000E+00  0.5050505E-02  0.2737057E-08  0.0000000E+00 -0.7036662E-05
  0.1565657E+00  0.0000000E+00  0.5050505E-02  0.2850195E-08  0.0000000E+00 -0.7031070E-05
  0.1666667E+00  0.0000000E+00  0.5050505E-02  0.2949312E-08  0.0000000E+00 -0.7025265E-05
  0.1767677E+00  0.0000000E+00  0.5050505E-02  0.3033869E-08  0.0000000E+00 -0.7019277E-05
  0.1868687E+00  0.0000000E+00  0.5050505E-02  0.3103400E-08  0.0000000E+00 -0.7013134E-05
  0.1969697E+00  0.0000000E+00  0.5050505E-02  0.3157513E-08  0.0000000E+00 -0.7006868E-05
  0.2070707E+00  0.0000000E+00  0.5050505E-02  0.3195893E-08  0.0000000E+00 -0.7000509E-05
  0.2171717E+00  0.0000000E+00  0.5050505E-02  0.3218308E-08  0.0000000E+00 -0.6994089E-05
  0.2272727E+00  0.0000000E+00  0.5050505E-02  0.3224608E-08  0.0000000E+00 -0.6987641E-05
  0.2373737E+00  0.0000000E+00  0.5050505E-02  0.3214728E-08  0.0000000E+00 -0.6981196E-05
  0.2474747E+00  0.0000000E+00  0.5050505E-02  0.3188690E-08  0.0000000E+00 -0.6974787E-05
  0.2575758E+00  0.0000000E+00  0.5050505E-02  0.3146599E-08  0.0000000E+00 -0.6968446E-05
  0.2676768E+00  0.0000000E+00  0.5050505E-02  0.3088646E-08  0.0000000E+00 -0.6962206E-05
  0.2777778E+00  0.0000000E+00  0.5050505E-02  0.3015104E-08  0.0000000E+00 -0.6956097E-05
  0.2878788E+00  0.0000000E+00  0.5050505E-02  0.2926329E-08  0.0000000E+00 -0.6950150E-05
  0.2979798E+00  0.0000000E+00  0.5050505E-02  0.2822751E-08  0.0000000E+00 -0.6944396E-05
  0.3080808E+00  0.0000000E+00  0.5050505E-02  0.2704876E-08  0.0000000E+00 -0.6938864E-05
  0.3181818E+00  0.0000000E+00  0.5050505E-02  0.2573277E-08  0.0000000E+00 -0.6933581E-05
  0.3282828E+00  0.0000000E+00  0.5050505E-02  0.2428593E-08  0.0000000E+00 -0.6928575E-05
  0.3383838E+00  0.0000000E+00  0.5050505E-02  0.2271521E-08  0.0000000E+00 -0.6923871E-05
  0.3484848E+00  0.0000000E+00  0.5050505E-02  0.2102811E-08  0.0000000E+00 -0.6919493E-05
  0.3585859E+00  0.0000000E+00  0.5050505E-02  0.1923260E-08  0.0000000E+00 -0.6915464E-05
  0.3686869E+00  0.0000000E+00  0.5050505E-02  0.1733707E-08  0.0000000E+00 -0.6911804E-05
  0.3787879E+00  0.0000000E+00  0.5050505E-02  0.1535028E-08  0.0000000E+00 -0.6908532E-05
  0.3888889E+00  0.0000000E+00  0.5050505E-02  0.1328127E-08  0.0000000E+00 -0.6905667E-05
  0.3989899E+00  0.0000000E+00  0.5050505E-02  0.1113934E-08  0.0000000E+00 -0.6903222E-05
  0.4090909E+00  0.0000000E+00  0.5050505E-02  0.8933982E-09  0.0000000E+00 -0.6901213E-05
  0.4191919E+00  0.0000000E+00  0.5050505E-02  0.6674846E-09  0.0000000E+00 -0.6899651E-05
  0.4292929E+00  0.0000000E+00  0.5050505E-02  0.4371683E-09  0.0000000E+00 -0.6898546E-05
  0.4393939E+00  0.0000000E+00  0.5050505E-02  0.2034310E-09  0.0000000E+00 -0.6897904E-05
  0.4494950E+00  0.0000000E+00  0.5050505E-02 -0.3274208E-10  0.0000000E+00 -0.6897734E-05
  0.4595959E+00  0.0000000E+00  0.5050505E-02 -0.2703663E-09  0.0000000E+00 -0.6898037E-05
  0.4696970E+00  0.0000000E+00  0.5050505E-02 -0.5084600E-09  0.0000000E+00 -0.6898816E-05
  0.4797980E+00  0.0000000E+00  0.5050505E-02 -0.7460478E-09  0.0000000E+00 -0.6900072E-05
  0.4898990E+00  0.0000000E+00  0.5050505E-02 -0.9821628E-09  0.0000000E+00 -0.6901802E-05
  0.5000000E+00  0.0000000E+00  0.5050505E-02 -0.1215849E-08  0.0000000E+00 -0.6904002E-05
  0.5101010E+00  0.0000000E+00  0.5050505E-02 -0.1446166E-08  0.0000000E+00 -0.6906666E-05
  0.5202020E+00  0.0000000E+00  0.5050505E-02 -0.1672188E-08  0.0000000E+00 -0.6909787E-05
  0.5303030E+00  0.0000000E+00  0.5050505E-02 -0.1893009E-08  0.0000000E+00 -0.6913355E-05
  0.5404040E+00  0.0000000E+00  0.5050505E-02 -0.2107746E-08  0.0000000E+00 -0.6917359E-05
  0.5505050E+00  0.0000000E+00  0.5050505E-02 -0.2315542E-08  0.0000000E+00 -0.6921786E-05
  0.5606061E+00  0.0000000E+00  0.5050505E-02 -0.2515566E-08  0.0000000E+00 -0.6926621E-05
  0.5707071E+00  0.0000000E+00  0.5050505E-02 -0.2707023E-08  0.0000000E+00 -0.6931848E-05
  0.5808081E+00  0.0000000E+00  0.5050505E-02 -0.2889152E-08  0.0000000E+00 -0.6937449E-05
  0.5909091E+00  0.0000000E+00  0.5050505E-02 -0.3061233E-08  0.0000000E+00 -0.6943405E-05
  0.6010101E+00  0.0000000E+00  0.5050505E-02 -0.3222589E-08  0.0000000E+00 -0.6949694E-05
  0.6111111E+00  0.0000000E+00  0.5050505E-02 -0.3372592E-08  0.0000000E+00 -0.6956295E-05
  0.6212121E+00  0.0000000E+00  0.5050505E-02 -0.3510665E-08  0.0000000E+00 -0.6963184E-05
  0.6313131E+00  0.0000000E+00  0.5050505E-02 -0.3636285E-08  0.0000000E+00 -0.6970337E-05
  0.6414142E+00  0.0000000E+00  0.5050505E-02 -0.3748989E-08  0.0000000E+00 -0.6977729E-05
  0.6515151E+00  0.0000000E+00  0.5050505E-02 -0.3848372E-08  0.0000000E+00 -0.6985333E-05
  0.6616161E+00  0.0000000E+00  0.5050505E-02 -0.3934095E-08  0.0000000E+00 -0.6993122E-05
  0.6717172E+00  0.0000000E+00  0.5050505E-02 -0.4005882E-08  0.0000000E+00 -0.7001068E-05
  0.6818182E+00  0.0000000E+00  0.5050505E-02 -0.4063523E-08  0.0000000E+00 -0.7009145E-05
  0.6919192E+00  0.0000000E+00  0.5050505E-02 -0.4106875E-08  0.0000000E+00 -0.7017322E-05
  0.7020202E+00  0.0000000E+00  0.5050505E-02 -0.4135860E-08  0.0000000E+00 -0.7025572E-05
  0.7121212E+00  0.0000000E+00  0.5050505E-02 -0.4150465E-08  0.0000000E+00 -0.7033866E-05
  0.7222222E+00  0.0000000E+00  0.5050505E-02 -0.4150741E-08  0.0000000E+00 -0.7042174E-05
  0.7323232E+00  0.0000000E+00  0.5050505E-02 -0.4136800E-08  0.0000000E+00 -0.7050469E-05
  0.7424242E+00  0.0000000E+00  0.5050505E-02 -0.4108813E-08  0.0000000E+00 -0.7058721E-05
  0.7525253E+00  0.0000000E+00  0.5050505E-02 -0.4067008E-08  0.0000000E+00 -0.7066904E-05
  0.7626263E+00  0.0000000E+00  0.5050505E-02 -0.4011663E-08  0.0000000E+00 -0.7074990E-05
  0.7727273E+00  0.0000000E+00  0.5050505E-02 -0.3943105E-08  0.0000000E+00 -0.7082952E-05
  0.7828283E+00  0.0000000E+00  0.5050505E-02 -0.3861706E-08  0.0000000E+00 -0.7090763E-05
  0.7929293E+00  0.0000000E+00  0.5050505E-02 -0.3767878E-08  0.0000000E+00 -0.7098399E-05
  0.8030303E+00  0.0000000E+00  0.5050505E-02 -0.3662070E-08  0.0000000E+00 -0.7105836E-05
  0.8131313E+00  0.0000000E+00  0.5050505E-02 -0.3544760E-08  0.0000000E+00 -0.7113049E-05
  0.8232324E+00  0.0000000E+00  0.5050505E-02 -0.3416457E-08  0.0000000E+00 -0.7120016E-05
  0.8333333E+00  0.0000000E+00  0.5050505E-02 -0.3277692E-08  0.0000000E+00 -0.7126716E-05
  0.8434343E+00  0.0000000E+00  0.5050505E-02 -0.3129017E-08  0.0000000E+00 -0.7133129E-05
  0.8535354E+00  0.0000000E+00  0.5050505E-02 -0.2970998E-08  0.0000000E+00 -0.7139234E-05
  0.8636364E+00  0.0000000E+00  0.5050505E-02 -0.2804217E-08  0.0000000E+00 -0.7145014E-05
  0.8737374E+00  0.0000000E+00  0.5050505E-02 -0.2629266E-08  0.0000000E+00 -0.7150452E-05
  0.8838384E+00  0.0000000E+00  0.5050505E-02 -0.2446742E-08  0.0000000E+00 -0.7155533E-05
  0.8939394E+00  0.0000000E+00  0.5050505E-02 -0.2257252E-08  0.0000000E+00 -0.7160241E-05
  0.9040404E+00  0.0000000E+00  0.5050505E-02 -0.2061401E-08  0.0000000E+00 -0.7164564E-05
  0.9141414E+00  0.0000000E+00  0.5050505E-02 -0.1859800E-08  0.0000000E+00 -0.7168488E-05
  0.9242424E+00  0.0000000E+00  0.5050505E-02 -0.1653059E-08  0.0000000E+00 -0.7172004E-05
  0.9343435E+00  0.0000000E+00  0.5050505E-02 -0.1441789E-08  0.0000000E+00 -0.7175102E-05
  0.9444444E+00  0.0000000E+00  0.5050505E-02 -0.1226596E-08  0.0000000E+00 -0.7177772E-05
  0.9545454E+00  0.0000000E+00  0.5050505E-02 -0.1008090E-08  0.0000000E+00 -0.7180009E-05
  0.9646465E+00  0.0000000E+00  0.5050505E-02 -0.7868751E-09  0.0000000E+00 -0.7181806E-05
  0.9747475E+00  0.0000000E+00  0.5050505E-02 -0.5635556E-09  0.0000000E+00 -0.7183157E-05
  0.9848485E+00  0.0000000E+00  0.5050505E-02 -0.3387340E-09  0.0000000E+00 -0.7184060E-05
  0.9974747E+00  0.0000000E+00  0.5050505E-02 -0.1130117E-09  0.0000000E+00 -0.7184512E-05
  0.5050505E-02  0.0000000E+00  0.1515152E-01  0.3377149E-09  0.0000000E+00 -0.7070746E-05
  0.1515152E-01  0.0000000E+00  0.1515152E-01  0.1011553E-08  0.0000000E+00 -0.7070292E-05
  0.2525252E-01  0.0000000E+00  0.1515152E-01  0.1680608E-08  0.0000000E+00 -0.7069386E-05
  0.3535353E-01  0.0000000E+00  0.1515152E-01  0.2341708E-08  0.0000000E+00 -0.7068034E-05
  0.4545455E-01  0.0000000E+00  0.1515152E-01  0.2991710E-08  0.0000000E+00 -0.7066240E-05
  0.5555556E-01  0.0000000E+00  0.1515152E-01  0.3627508E-08  0.0000000E+00 -0.7064013E-05
  0.6565657E-01  0.0000000E+00  0.1515152E-01  0.4246047E-08  0.0000000E+00 -0.7061365E-05
  0.7575758E-01  0.0000000E+00  0.1515152E-01  0.4844334E-08  0.0000000E+00 -0.7058308E-05
  0.8585858E-01  0.0000000E+00  0.1515152E-01  0.5419452E-08  0.0000000E+00 -0.7054856E-05
  0.9595960E-01  0.0000000E+00  0.1515152E-01  0.5968569E-08  0.0000000E+00 -0.7051025E-05
  0.1060606E+00  0.0000000E+00  0.1515152E-01  0.6488957E-08  0.0000000E+00 -0.7046835E-05
  0.1161616E+00  0.0000000E+00  0.1515152E-01  0.6978003E-08  0.0000000E+00 -0.7042306E-05
  0.1262626E+00  0.0000000E+00  0.1515152E-01  0.7433221E-08  0.0000000E+00 -0.7037459E-05
  0.1363636E+00  0.0000000E+00  0.1515152E-01  0.7852272E-08  0.0000000E+00 -0.7032317E-05
  0.1464646E+00  0.0000000E+00  0.1515152E-01  0.8232974E-08  0.0000000E+00 -0.7026907E-05
  0.1565657E+00  0.0000000E+00  0.1515152E-01  0.8573320E-08  0.0000000E+00 -0.7021254E-05
  0.1666667E+00  0.0000000E+00  0.1515152E-01  0.8871489E-08  0.0000000E+00 -0.7015386E-05
  0.1767677E+00  0.0000000E+00  0.1515152E-01  0.9125862E-08  0.0000000E+00 -0.7009333E-05
  0.1868687E+00  0.0000000E+00  0.1515152E-01  0.9335031E-08  0.0000000E+00 -0.7003123E-05
  0.1969697E+00  0.0000000E+00  0.1515152E-01  0.9497818E-08  0.0000000E+00 -0.6996788E-05
  0.2070707E+00  0.0000000E+00  0.1515152E-01  0.9613276E-08  0.0000000E+00 -0.6990360E-05
  0.2171717E+00  0.0000000E+00  0.1515152E-01  0.9680705E-08  0.0000000E+00 -0.6983870E-05
  0.2272727E+00  0.0000000E+00  0.1515152E-01  0.9699654E-08  0.0000000E+00 -0.6977352E-05
  0.2373737E+00  0.0000000E+00  0.1515152E-01  0.9669930E-08  0.0000000E+00 -0.6970836E-05
  0.2474747E+00  0.0000000E+00  0.1515152E-01  0.9591594E-08  0.0000000E+00 -0.6964357E-05
  0.2575758E+00  0.0000000E+00  0.1515152E-01  0.9464966E-08  0.0000000E+00 -0.6957948E-05
  0.2676768E+00  0.0000000E+00  0.1515152E-01  0.9290622E-08  0.0000000E+00 -0.6951639E-05
  0.2777778E+00  0.0000000E+00  0.1515152E-01  0.9069386E-08  0.0000000E+00 -0.6945463E-05
  0.2878788E+00  0.0000000E+00  0.1515152E-01  0.8802327E-08  0.0000000E+00 -0.6939452E-05
  0.2979798E+00  0.0000000E+00  0.1515152E-01  0.8490744E-08  0.0000000E+00 -0.6933636E-05
  0.3080808E+00  0.0000000E+00  0.1515152E-01  0.8136159E-08  0.0000000E+00 -0.6928043E-05
  0.3181818E+00  0.0000000E+00  0.1515152E-01  0.7740302E-08  0.0000000E+00 -0.6922703E-05
  0.3282828E+00  0.0000000E+00  0.1515152E-01  0.7305095E-08  0.0000000E+00 -0.6917642E-05
  0.3383838E+00  0.0000000E+00  0.1515152E-01  0.6832636E-08  0.0000000E+00 -0.6912887E-05
  0.3484848E+00  0.0000000E+00  0.1515152E-01  0.6325184E-08  0.0000000E+00 -0.6908462E-05
  0.3585859E+00  0.0000000E+00  0.1515152E-01  0.5785141E-08  0.0000000E+00 -0.6904388E-05
  0.3686869E+00  0.0000000E+00  0.1515152E-01  0.5215030E-08  0.0000000E+00 -0.6900688E-05
  0.3787879E+00  0.0000000E+00  0.1515152E-01  0.4617485E-08  0.0000000E+00 -0.6897381E-05
  0.3888889E+00  0.0000000E+00  0.1515152E-01  0.3995229E-08  0.0000000E+00 -0.6894484E-05
  0.3989899E+00  0.0000000E+00  0.1515152E-01  0.3351059E-08  0.0000000E+00 -0.6892012E-05
  0.4090909E+00  0.0000000E+00  0.1515152E-01  0.2687829E-08  0.0000000E+00 -0.6889981E-05
  0.4191919E+00  0.0000000E+00  0.1515152E-01  0.2008441E-08  0.0000000E+00 -0.6888400E-05
  0.4292929E+00  0.0000000E+00  0.1515152E-01  0.1315827E-08  0.0000000E+00 -0.6887281E-05
  0.4393939E+00  0.0000000E+00  0.1515152E-01  0.6129377E-09  0.0000000E+00 -0.6886631E-05
  0.4494950E+00  0.0000000E+00  0.1515152E-01 -0.9726572E-10  0.0000000E+00 -0.6886456E-05
  0.4595959E+00  0.0000000E+00  0.1515152E-01 -0.8118236E-09  0.0000000E+00 -0.6886760E-05
  0.4696970E+00  0.0000000E+00  0.1515152E-01 -0.1527786E-08  0.0000000E+00 -0.6887545E-05
  0.4797980E+00  0.0000000E+00  0.1515152E-01 -0.2242222E-08  0.0000000E+00 -0.6888811E-05
  0.4898990E+00  0.0000000E+00  0.1515152E-01 -0.2952226E-08  0.0000000E+00 -0.6890555E-05
  0.5000000E+00  0.0000000E+00  0.1515152E-01 -0.3654927E-08  0.0000000E+00 -0.6892775E-05
  0.5101010E+00  0.0000000E+00  0.1515152E-01 -0.4347494E-08  0.0000000E+00 -0.6895463E-05
  0.5202020E+00  0.0000000E+00  0.1515152E-01 -0.5027147E-08  0.0000000E+00 -0.6898613E-05
  0.5303030E+00  0.0000000E+00  0.1515152E-01 -0.5691164E-08  0.0000000E+00 -0.6902214E-05
  0.5404040E+00  0.0000000E+00  0.1515152E-01 -0.6336888E-08  0.0000000E+00 -0.6906256E-05
  0.5505050E+00  0.0000000E+00  0.1515152E-01 -0.6961740E-08  0.0000000E+00 -0.6910724E-05
  0.5606061E+00  0.0000000E+00  0.1515152E-01 -0.7563228E-08  0.0000000E+00 -0.6915605E-05
  0.5707071E+00  0.0000000E+00  0.1515152E-01 -0.8138954E-08  0.0000000E+00 -0.6920882E-05
  0.5808081E+00  0.0000000E+00  0.1515152E-01 -0.8686632E-08  0.0000000E+00 -0.6926536E-05
  0.5909091E+00  0.0000000E+00  0.1515152E-01 -0.9204094E-08  0.0000000E+00 -0.6932549E-05
  0.6010101E+00  0.0000000E+00  0.1515152E-01 -0.9689305E-08  0.0000000E+00 -0.6938898E-05
  0.6111111E+00  0.0000000E+00  0.1515152E-01 -0.1014037E-07  0.0000000E+00 -0.6945562E-05
  0.6212121E+00  0.0000000E+00  0.1515152E-01 -0.1055556E-07  0.0000000E+00 -0.6952518E-05
  0.6313131E+00  0.0000000E+00  0.1515152E-01 -0.1093330E-07  0.0000000E+00 -0.6959740E-05
  0.6414142E+00  0.0000000E+00  0.1515152E-01 -0.1127218E-07  0.0000000E+00 -0.6967202E-05
  0.6515151E+00  0.0000000E+00  0.1515152E-01 -0.1157100E-07  0.0000000E+00 -0.6974880E-05
  0.6616161E+00  0.0000000E+00  0.1515152E-01 -0.1182873E-07  0.0000000E+00 -0.6982744E-05
  0.6717172E+00  0.0000000E+00  0.1515152E-01 -0.1204455E-07  0.0000000E+00 -0.6990767E-05
  0.6818182E+00  0.0000000E+00  0.1515152E-01 -0.1221782E-07  0.0000000E+00 -0.6998921E-05
  0.6919192E+00  0.0000000E+00  0.1515152E-01 -0.1234811E-07  0.0000000E+00 -0.7007177E-05
  0.7020202E+00  0.0000000E+00  0.1515152E-01 -0.1243518E-07  0.0000000E+00 -0.7015506E-05
  0.7121212E+00  0.0000000E+00  0.1515152E-01 -0.1247901E-07  0.0000000E+00 -0.7023879E-05
  0.7222222E+00  0.0000000E+00  0.1515152E-01 -0.1247974E-07  0.0000000E+00 -0.7032267E-05
  0.7323232E+00  0.0000000E+00  0.1515152E-01 -0.1243772E-07  0.0000000E+00 -0.7040640E-05
  0.7424242E+00  0.0000000E+00  0.1515152E-01 -0.1235346E-07  0.0000000E+00 -0.7048972E-05
  0.7525253E+00  0.0000000E+00  0.1515152E-01 -0.1222764E-07  0.0000000E+00 -0.7057232E-05
  0.7626263E+00  0.0000000E+00  0.1515152E-01 -0.1206111E-07  0.0000000E+00 -0.7065394E-05
  0.7727273E+00  0.0000000E+00  0.1515152E-01 -0.1185485E-07  0.0000000E+00 -0.7073430E-05
  0.7828283E+00  0.0000000E+00  0.1515152E-01 -0.1160999E-07  0.0000000E+00 -0.7081315E-05
  0.7929293E+00  0.0000000E+00  0.1515152E-01 -0.1132777E-07  0.0000000E+00 -0.7089023E-05
  0.8030303E+00  0.0000000E+00  0.1515152E-01 -0.1100953E-07  0.0000000E+00 -0.7096528E-05
  0.8131313E+00  0.0000000E+00  0.1515152E-01 -0.1065672E-07  0.0000000E+00 -0.7103808E-05
  0.8232324E+00  0.0000000E+00  0.1515152E-01 -0.1027087E-07  0.0000000E+00 -0.7110840E-05
  0.8333333E+00  0.0000000E+00  0.1515152E-01 -0.9853582E-08  0.0000000E+00 -0.7117601E-05
  0.8434343E+00  0.0000000E+00  0.1515152E-01 -0.9406510E-08  0.0000000E+00 -0.7124072E-05
  0.8535354E+00  0.0000000E+00  0.1515152E-01 -0.8931365E-08  0.0000000E+00 -0.7130233E-05
  0.8636364E+00  0.0000000E+00  0.1515152E-01 -0.8429895E-08  0.0000000E+00 -0.7136066E-05
  0.8737374E+00  0.0000000E+00  0.1515152E-01 -0.7903878E-08  0.0000000E+00 -0.7141553E-05
  0.8838384E+00  0.0000000E+00  0.1515152E-01 -0.7355114E-08  0.0000000E+00 -0.7146680E-05
  0.8939394E+00  0.0000000E+00  0.1515152E-01 -0.6785422E-08  0.0000000E+00 -0.7151430E-05
  0.9040404E+00  0.0000000E+00  0.1515152E-01 -0.6196627E-08  0.0000000E+00 -0.7155791E-05
  0.9141414E+00  0.0000000E+00  0.1515152E-01 -0.5590563E-08  0.0000000E+00 -0.7159751E-05
  0.9242424E+00  0.0000000E+00  0.1515152E-01 -0.4969062E-08  0.0000000E+00 -0.7163298E-05
  0.9343435E+00  0.0000000E+00  0.1515152E-01 -0.4333957E-08  0.0000000E+00 -0.7166423E-05
  0.9444444E+00  0.0000000E+00  0.1515152E-01 -0.3687076E-08  0.0000000E+00 -0.7169118E-05
  0.9545454E+00  0.0000000E+00  0.1515152E-01 -0.3030244E-08  0.0000000E+00 -0.7171374E-05
  0.9646465E+00  0.0000000E+00  0.1515152E-01 -0.2365279E-08  0.0000000E+00 -0.7173186E-05
  0.9747475E+00  0.0000000E+00  0.1515152E-01 -0.1693995E-08  0.0000000E+00 -0.7174550E-05
  0.9848485E+00  0.0000000E+00  0.1515152E-01 -0.1018200E-08  0.0000000E+00 -0.7175461E-05
  0.9974747E+00  0.0000000E+00  0.1515152E-01 -0.3397012E-09  0.0000000E+00 -0.7175917E-05
  0.5050505E-02  0.0000000E+00  0.2525252E-01  0.5661281E-09  0.0000000E+00 -0.7052188E-05
  0.1515152E-01  0.0000000E+00  0.2525252E-01  0.1695716E-08  0.0000000E+00 -0.7051725E-05
  0.2525252E-01  0.0000000E+00  0.2525252E-01  0.2817292E-08  0.0000000E+00 -0.7050800E-05
  0.3535353E-01  0.0000000E+00  0.2525252E-01  0.3925542E-08  0.0000000E+00 -0.7049418E-05
  0.4545455E-01  0.0000000E+00  0.2525252E-01  0.5015199E-08  0.0000000E+00 -0.7047586E-05
  0.5555556E-01  0.0000000E+00  0.2525252E-01  0.6081060E-08  0.0000000E+00 -0.7045312E-05
  0.6565657E-01  0.0000000E+00  0.2525252E-01  0.7118006E-08  0.0000000E+00 -0.7042607E-05
  0.7575758E-01  0.0000000E+00  0.2525252E-01  0.8121021E-08  0.0000000E+00 -0.7039484E-05
  0.8585858E-01  0.0000000E+00  0.2525252E-01  0.9085213E-08  0.0000000E+00 -0.7035958E-05
  0.9595960E-01  0.0000000E+00  0.2525252E-01  0.1000584E-07  0.0000000E+00 -0.7032046E-05
  0.1060606E+00  0.0000000E+00  0.2525252E-01  0.1087831E-07  0.0000000E+00 -0.7027765E-05
  0.1161616E+00  0.0000000E+00  0.2525252E-01  0.1169826E-07  0.0000000E+00 -0.7023138E-05
  0.1262626E+00  0.0000000E+00  0.2525252E-01  0.1246152E-07  0.0000000E+00 -0.7018187E-05
  0.1363636E+00  0.0000000E+00  0.2525252E-01  0.1316415E-07  0.0000000E+00 -0.7012934E-05
  0.1464646E+00  0.0000000E+00  0.2525252E-01  0.1380249E-07  0.0000000E+00 -0.7007407E-05
  0.1565657E+00  0.0000000E+00  0.2525252E-01  0.1437318E-07  0.0000000E+00 -0.7001632E-05
  0.1666667E+00  0.0000000E+00  0.2525252E-01  0.1487315E-07  0.0000000E+00 -0.6995637E-05
  0.1767677E+00  0.0000000E+00  0.2525252E-01  0.1529970E-07  0.0000000E+00 -0.6989452E-05
  0.1868687E+00  0.0000000E+00  0.2525252E-01  0.1565044E-07  0.0000000E+00 -0.6983108E-05
  0.1969697E+00  0.0000000E+00  0.2525252E-01  0.1592341E-07  0.0000000E+00 -0.6976636E-05
  0.2070707E+00  0.0000000E+00  0.2525252E-01  0.1611702E-07  0.0000000E+00 -0.6970068E-05
  0.2171717E+00  0.0000000E+00  0.2525252E-01  0.1623008E-07  0.0000000E+00 -0.6963438E-05
  0.2272727E+00  0.0000000E+00  0.2525252E-01  0.1626185E-07  0.0000000E+00 -0.6956777E-05
  0.2373737E+00  0.0000000E+00  0.2525252E-01  0.1621199E-07  0.0000000E+00 -0.6950121E-05
  0.2474747E+00  0.0000000E+00  0.2525252E-01  0.1608061E-07  0.0000000E+00 -0.6943501E-05
  0.2575758E+00  0.0000000E+00  0.2525252E-01  0.1586826E-07  0.0000000E+00 -0.6936952E-05
  0.2676768E+00  0.0000000E+00  0.2525252E-01  0.1557589E-07  0.0000000E+00 -0.6930507E-05
  0.2777778E+00  0.0000000E+00  0.2525252E-01  0.1520490E-07  0.0000000E+00 -0.6924198E-05
  0.2878788E+00  0.0000000E+00  0.2525252E-01  0.1475709E-07  0.0000000E+00 -0.6918056E-05
  0.2979798E+00  0.0000000E+00  0.2525252E-01  0.1423465E-07  0.0000000E+00 -0.6912114E-05
  0.3080808E+00  0.0000000E+00  0.2525252E-01  0.1364012E-07  0.0000000E+00 -0.6906401E-05
  0.3181818E+00  0.0000000E+00  0.2525252E-01  0.1297643E-07  0.0000000E+00 -0.6900945E-05
  0.3282828E+00  0.0000000E+00  0.2525252E-01  0.1224679E-07  0.0000000E+00 -0.6895776E-05
  0.3383838E+00  0.0000000E+00  0.2525252E-01  0.1145475E-07  0.0000000E+00 -0.6890918E-05
  0.3484848E+00  0.0000000E+00  0.2525252E-01  0.1060409E-07  0.0000000E+00 -0.6886397E-05
  0.3585859E+00  0.0000000E+00  0.2525252E-01  0.9698837E-08  0.0000000E+00 -0.6882235E-05
  0.3686869E+00  0.0000000E+00  0.2525252E-01  0.8743242E-08  0.0000000E+00 -0.6878455E-05
  0.3787879E+00  0.0000000E+00  0.2525252E-01  0.7741717E-08  0.0000000E+00 -0.6875076E-05
  0.3888889E+00  0.0000000E+00  0.2525252E-01  0.6698830E-08  0.0000000E+00 -0.6872115E-05
  0.3989899E+00  0.0000000E+00  0.2525252E-01  0.5619269E-08  0.0000000E+00 -0.6869589E-05
  0.4090909E+00  0.0000000E+00  0.2525252E-01  0.4507822E-08  0.0000000E+00 -0.6867511E-05
  0.4191919E+00  0.0000000E+00  0.2525252E-01  0.3369346E-08  0.0000000E+00 -0.6865895E-05
  0.4292929E+00  0.0000000E+00  0.2525252E-01  0.2208754E-08  0.0000000E+00 -0.6864748E-05
  0.4393939E+00  0.0000000E+00  0.2525252E-01  0.1030986E-08  0.0000000E+00 -0.6864080E-05
  0.4494950E+00  0.0000000E+00  0.2525252E-01 -0.1590006E-09  0.0000000E+00 -0.6863897E-05
  0.4595959E+00  0.0000000E+00  0.2525252E-01 -0.1356253E-08  0.0000000E+00 -0.6864203E-05
  0.4696970E+00  0.0000000E+00  0.2525252E-01 -0.2555836E-08  0.0000000E+00 -0.6864998E-05
  0.4797980E+00  0.0000000E+00  0.2525252E-01 -0.3752843E-08  0.0000000E+00 -0.6866284E-05
  0.4898990E+00  0.0000000E+00  0.2525252E-01 -0.4942414E-08  0.0000000E+00 -0.6868059E-05
  0.5000000E+00  0.0000000E+00  0.2525252E-01 -0.6119742E-08  0.0000000E+00 -0.6870317E-05
  0.5101010E+00  0.0000000E+00  0.2525252E-01 -0.7280093E-08  0.0000000E+00 -0.6873054E-05
  0.5202020E+00  0.0000000E+00  0.2525252E-01 -0.8418811E-08  0.0000000E+00 -0.6876261E-05
  0.5303030E+00  0.0000000E+00  0.2525252E-01 -0.9531339E-08  0.0000000E+00 -0.6879929E-05
  0.5404040E+00  0.0000000E+00  0.2525252E-01 -0.1061323E-07  0.0000000E+00 -0.6884046E-05
  0.5505050E+00  0.0000000E+00  0.2525252E-01 -0.1166016E-07  0.0000000E+00 -0.6888598E-05
  0.5606061E+00  0.0000000E+00  0.2525252E-01 -0.1266795E-07  0.0000000E+00 -0.6893571E-05
  0.5707071E+00  0.0000000E+00  0.2525252E-01 -0.1363258E-07  0.0000000E+00 -0.6898948E-05
  0.5808081E+00  0.0000000E+00  0.2525252E-01 -0.1455023E-07  0.0000000E+00 -0.6904709E-05
  0.5909091E+00  0.0000000E+00  0.2525252E-01 -0.1541724E-07  0.0000000E+00 -0.6910836E-05
  0.6010101E+00  0.0000000E+00  0.2525252E-01 -0.1623022E-07  0.0000000E+00 -0.6917306E-05
  0.6111111E+00  0.0000000E+00  0.2525252E-01 -0.1698597E-07  0.0000000E+00 -0.6924098E-05
  0.6212121E+00  0.0000000E+00  0.2525252E-01 -0.1768159E-07  0.0000000E+00 -0.6931186E-05
  0.6313131E+00  0.0000000E+00  0.2525252E-01 -0.1831444E-07  0.0000000E+00 -0.6938546E-05
  0.6414142E+00  0.0000000E+00  0.2525252E-01 -0.1888217E-07  0.0000000E+00 -0.6946152E-05
  0.6515151E+00  0.0000000E+00  0.2525252E-01 -0.1938274E-07  0.0000000E+00 -0.6953976E-05
  0.6616161E+00  0.0000000E+00  0.2525252E-01 -0.1981443E-07  0.0000000E+00 -0.6961991E-05
  0.6717172E+00  0.0000000E+00  0.2525252E-01 -0.2017585E-07  0.0000000E+00 -0.6970168E-05
  0.6818182E+00  0.0000000E+00  0.2525252E-01 -0.2046595E-07  0.0000000E+00 -0.6978478E-05
  0.6919192E+00  0.0000000E+00  0.2525252E-01 -0.2068401E-07  0.0000000E+00 -0.6986892E-05
  0.7020202E+00  0.0000000E+00  0.2525252E-01 -0.2082962E-07  0.0000000E+00 -0.6995380E-05
  0.7121212E+00  0.0000000E+00  0.2525252E-01 -0.2090275E-07  0.0000000E+00 -0.7003912E-05
  0.7222222E+00  0.0000000E+00  0.2525252E-01 -0.2090365E-07  0.0000000E+00 -0.7012459E-05
  0.7323232E+00  0.0000000E+00  0.2525252E-01 -0.2083289E-07  0.0000000E+00 -0.7020992E-05
  0.7424242E+00  0.0000000E+00  0.2525252E-01 -0.2069136E-07  0.0000000E+00 -0.7029480E-05
  0.7525253E+00  0.0000000E+00  0.2525252E-01 -0.2048020E-07  0.0000000E+00 -0.7037896E-05
  0.7626263E+00  0.0000000E+00  0.2525252E-01 -0.2020084E-07  0.0000000E+00 -0.7046212E-05
  0.7727273E+00  0.0000000E+00  0.2525252E-01 -0.1985493E-07  0.0000000E+00 -0.7054398E-05
  0.7828283E+00  0.0000000E+00  0.2525252E-01 -0.1944437E-07  0.0000000E+00 -0.7062430E-05
  0.7929293E+00  0.0000000E+00  0.2525252E-01 -0.1897124E-07  0.0000000E+00 -0.7070281E-05
  0.8030303E+00  0.0000000E+00  0.2525252E-01 -0.1843781E-07  0.0000000E+00 -0.7077925E-05
  0.8131313E+00  0.0000000E+00  0.2525252E-01 -0.1784651E-07  0.0000000E+00 -0.7085339E-05
  0.8232324E+00  0.0000000E+00  0.2525252E-01 -0.1719991E-07  0.0000000E+00 -0.7092499E-05
  0.8333333E+00  0.0000000E+00  0.2525252E-01 -0.1650069E-07  0.0000000E+00 -0.7099385E-05
  0.8434343E+00  0.0000000E+00  0.2525252E-01 -0.1575165E-07  0.0000000E+00 -0.7105973E-05
  0.8535354E+00  0.0000000E+00  0.2525252E-01 -0.1495564E-07  0.0000000E+00 -0.7112246E-05
  0.8636364E+00  0.0000000E+00  0.2525252E-01 -0.1411560E-07  0.0000000E+00 -0.7118184E-05
  0.8737374E+00  0.0000000E+00  0.2525252E-01 -0.1323451E-07  0.0000000E+00 -0.7123770E-05
  0.8838384E+00  0.0000000E+00  0.2525252E-01 -0.1231539E-07  0.0000000E+00 -0.7128988E-05
  0.8939394E+00  0.0000000E+00  0.2525252E-01 -0.1136127E-07  0.0000000E+00 -0.7133823E-05
  0.9040404E+00  0.0000000E+00  0.2525252E-01 -0.1037522E-07  0.0000000E+00 -0.7138262E-05
  0.9141414E+00  0.0000000E+00  0.2525252E-01 -0.9360311E-08  0.0000000E+00 -0.7142292E-05
  0.9242424E+00  0.0000000E+00  0.2525252E-01 -0.8319602E-08  0.0000000E+00 -0.7145902E-05
  0.9343435E+00  0.0000000E+00  0.2525252E-01 -0.7256160E-08  0.0000000E+00 -0.7149082E-05
  0.9444444E+00  0.0000000E+00  0.2525252E-01 -0.6173042E-08  0.0000000E+00 -0.7151824E-05
  0.9545454E+00  0.0000000E+00  0.2525252E-01 -0.5073299E-08  0.0000000E+00 -0.7154120E-05
  0.9646465E+00  0.0000000E+00  0.2525252E-01 -0.3959968E-08  0.0000000E+00 -0.7155965E-05
  0.9747475E+00  0.0000000E+00  0.2525252E-01 -0.2836082E-08  0.0000000E+00 -0.7157352E-05
  0.9848485E+00  0.0000000E+00  0.2525252E-01 -0.1704661E-08  0.0000000E+00 -0.7158279E-05
  0.9974747E+00  0.0000000E+00  0.2525252E-01 -0.5687230E-09  0.0000000E+00 -0.7158743E-05
  0.5050505E-02  0.0000000E+00  0.3535353E-01  0.7999679E-09  0.0000000E+00 -0.7024381E-05
  0.1515152E-01  0.0000000E+00  0.3535353E-01  0.2396136E-08  0.0000000E+00 -0.7023903E-05
  0.2525252E-01  0.0000000E+00  0.3535353E-01  0.3980994E-08  0.0000000E+00 -0.7022949E-05
  0.3535353E-01  0.0000000E+00  0.3535353E-01  0.5547041E-08  0.0000000E+00 -0.7021524E-05
  0.4545455E-01  0.0000000E+00  0.3535353E-01  0.7086842E-08  0.0000000E+00 -0.7019633E-05
  0.5555556E-01  0.0000000E+00  0.3535353E-01  0.8593050E-08  0.0000000E+00 -0.7017288E-05
  0.6565657E-01  0.0000000E+00  0.3535353E-01  0.1005844E-07  0.0000000E+00 -0.7014497E-05
  0.7575758E-01  0.0000000E+00  0.3535353E-01  0.1147591E-07  0.0000000E+00 -0.7011275E-05
  0.8585858E-01  0.0000000E+00  0.3535353E-01  0.1283857E-07  0.0000000E+00 -0.7007637E-05
  0.9595960E-01  0.0000000E+00  0.3535353E-01  0.1413969E-07  0.0000000E+00 -0.7003600E-05
  0.1060606E+00  0.0000000E+00  0.3535353E-01  0.1537282E-07  0.0000000E+00 -0.6999183E-05
  0.1161616E+00  0.0000000E+00  0.3535353E-01  0.1653175E-07  0.0000000E+00 -0.6994409E-05
  0.1262626E+00  0.0000000E+00  0.3535353E-01  0.1761058E-07  0.0000000E+00 -0.6989299E-05
  0.1363636E+00  0.0000000E+00  0.3535353E-01  0.1860376E-07  0.0000000E+00 -0.6983879E-05
  0.1464646E+00  0.0000000E+00  0.3535353E-01  0.1950610E-07  0.0000000E+00 -0.6978175E-05
  0.1565657E+00  0.0000000E+00  0.3535353E-01  0.2031284E-07  0.0000000E+00 -0.6972215E-05
  0.1666667E+00  0.0000000E+00  0.3535353E-01  0.2101963E-07  0.0000000E+00 -0.6966028E-05
  0.1767677E+00  0.0000000E+00  0.3535353E-01  0.2162262E-07  0.0000000E+00 -0.6959645E-05
  0.1868687E+00  0.0000000E+00  0.3535353E-01  0.2211848E-07  0.0000000E+00 -0.6953097E-05
  0.1969697E+00  0.0000000E+00  0.3535353E-01  0.2250438E-07  0.0000000E+00 -0.6946417E-05
  0.2070707E+00  0.0000000E+00  0.3535353E-01  0.2277807E-07  0.0000000E+00 -0.6939638E-05
  0.2171717E+00  0.0000000E+00  0.3535353E-01  0.2293790E-07  0.0000000E+00 -0.6932795E-05
  0.2272727E+00  0.0000000E+00  0.3535353E-01  0.2298278E-07  0.0000000E+00 -0.6925920E-05
  0.2373737E+00  0.0000000E+00  0.3535353E-01  0.2291226E-07  0.0000000E+00 -0.6919050E-05
  0.2474747E+00  0.0000000E+00  0.3535353E-01  0.2272649E-07  0.0000000E+00 -0.6912218E-05
  0.2575758E+00  0.0000000E+00  0.3535353E-01  0.2242624E-07  0.0000000E+00 -0.6905458E-05
  0.2676768E+00  0.0000000E+00  0.3535353E-01  0.2201288E-07  0.0000000E+00 -0.6898806E-05
  0.2777778E+00  0.0000000E+00  0.3535353E-01  0.2148840E-07  0.0000000E+00 -0.6892295E-05
  0.2878788E+00  0.0000000E+00  0.3535353E-01  0.2085534E-07  0.0000000E+00 -0.6885957E-05
  0.2979798E+00  0.0000000E+00  0.3535353E-01  0.2011682E-07  0.0000000E+00 -0.6879824E-05