title = "dataset water"
variables = "x", "y", "z", "vx", "vy", "vz"
zone t = "velocities, solution time =  4.500E+01 days        " i =   99, j =   99, k =    1,  f=point
  0.5050505E-02  0.0000000E+00  0.5050505E-02  0.1447180E-08  0.0000000E+00 -0.4298993E-06
  0.1515152E-01  0.0000000E+00  0.5050505E-02  0.4330556E-08  0.0000000E+00 -0.4241213E-06
  0.2525252E-01  0.0000000E+00  0.5050505E-02  0.7181023E-08  0.0000000E+00 -0.4126091E-06
  0.3535353E-01  0.0000000E+00  0.5050505E-02  0.9976846E-08  0.0000000E+00 -0.3954504E-06
  0.4545455E-01  0.0000000E+00  0.5050505E-02  0.1269669E-07  0.0000000E+00 -0.3727758E-06
  0.5555556E-01  0.0000000E+00  0.5050505E-02  0.1531981E-07  0.0000000E+00 -0.3447582E-06
  0.6565657E-01  0.0000000E+00  0.5050505E-02  0.1782618E-07  0.0000000E+00 -0.3116109E-06
  0.7575758E-01  0.0000000E+00  0.5050505E-02  0.2019658E-07  0.0000000E+00 -0.2735869E-06
  0.8585858E-01  0.0000000E+00  0.5050505E-02  0.2241269E-07  0.0000000E+00 -0.2309764E-06
  0.9595960E-01  0.0000000E+00  0.5050505E-02  0.2445780E-07  0.0000000E+00 -0.1841049E-06
  0.1060606E+00  0.0000000E+00  0.5050505E-02  0.2631637E-07  0.0000000E+00 -0.1333299E-06
  0.1161616E+00  0.0000000E+00  0.5050505E-02  0.2797547E-07  0.0000000E+00 -0.7903753E-07
  0.1262626E+00  0.0000000E+00  0.5050505E-02  0.2942234E-07  0.0000000E+00 -0.2162821E-07
  0.1363636E+00  0.0000000E+00  0.5050505E-02  0.3062467E-07  0.0000000E+00  0.3851961E-07
  0.1464646E+00  0.0000000E+00  0.5050505E-02  0.3160787E-07  0.0000000E+00  0.1009342E-06
  0.1565657E+00  0.0000000E+00  0.5050505E-02  0.3236168E-07  0.0000000E+00  0.1650914E-06
  0.1666667E+00  0.0000000E+00  0.5050505E-02  0.3288162E-07  0.0000000E+00  0.2305265E-06
  0.1767677E+00  0.0000000E+00  0.5050505E-02  0.3316699E-07  0.0000000E+00  0.2967699E-06
  0.1868687E+00  0.0000000E+00  0.5050505E-02  0.3322012E-07  0.0000000E+00  0.3633533E-06
  0.1969697E+00  0.0000000E+00  0.5050505E-02  0.3304603E-07  0.0000000E+00  0.4298160E-06
  0.2070707E+00  0.0000000E+00  0.5050505E-02  0.3265212E-07  0.0000000E+00  0.4957095E-06
  0.2171717E+00  0.0000000E+00  0.5050505E-02  0.3204793E-07  0.0000000E+00  0.5606024E-06
  0.2272727E+00  0.0000000E+00  0.5050505E-02  0.3124487E-07  0.0000000E+00  0.6240844E-06
  0.2373737E+00  0.0000000E+00  0.5050505E-02  0.3025587E-07  0.0000000E+00  0.6857695E-06
  0.2474747E+00  0.0000000E+00  0.5050505E-02  0.2909506E-07  0.0000000E+00  0.7452988E-06
  0.2575758E+00  0.0000000E+00  0.5050505E-02  0.2777742E-07  0.0000000E+00  0.8023425E-06
  0.2676768E+00  0.0000000E+00  0.5050505E-02  0.2631842E-07  0.0000000E+00  0.8566017E-06
  0.2777778E+00  0.0000000E+00  0.5050505E-02  0.2473370E-07  0.0000000E+00  0.9078083E-06
  0.2878788E+00  0.0000000E+00  0.5050505E-02  0.2303871E-07  0.0000000E+00  0.9557255E-06
  0.2979798E+00  0.0000000E+00  0.5050505E-02  0.2124846E-07  0.0000000E+00  0.1000147E-05
  0.3080808E+00  0.0000000E+00  0.5050505E-02  0.1937725E-07  0.0000000E+00  0.1040897E-05
  0.3181818E+00  0.0000000E+00  0.5050505E-02  0.1743842E-07  0.0000000E+00  0.1077824E-05
  0.3282828E+00  0.0000000E+00  0.5050505E-02  0.1544423E-07  0.0000000E+00  0.1110808E-05
  0.3383838E+00  0.0000000E+00  0.5050505E-02  0.1340564E-07  0.0000000E+00  0.1139746E-05
  0.3484848E+00  0.0000000E+00  0.5050505E-02  0.1133230E-07  0.0000000E+00  0.1164559E-05
  0.3585859E+00  0.0000000E+00  0.5050505E-02  0.9232446E-08  0.0000000E+00  0.1185187E-05
  0.3686869E+00  0.0000000E+00  0.5050505E-02  0.7112881E-08  0.0000000E+00  0.1201582E-05
  0.3787879E+00  0.0000000E+00  0.5050505E-02  0.4979027E-08  0.0000000E+00  0.1213711E-05
  0.3888889E+00  0.0000000E+00  0.5050505E-02  0.2834966E-08  0.0000000E+00  0.1221549E-05
  0.3989899E+00  0.0000000E+00  0.5050505E-02  0.6835426E-09  0.0000000E+00  0.1225079E-05
  0.4090909E+00  0.0000000E+00  0.5050505E-02 -0.1473502E-08  0.0000000E+00  0.1224286E-05
  0.4191919E+00  0.0000000E+00  0.5050505E-02 -0.3635354E-08  0.0000000E+00  0.1219162E-05
  0.4292929E+00  0.0000000E+00  0.5050505E-02 -0.5801927E-08  0.0000000E+00  0.1209696E-05
  0.4393939E+00  0.0000000E+00  0.5050505E-02 -0.7973622E-08  0.0000000E+00  0.1195878E-05
  0.4494950E+00  0.0000000E+00  0.5050505E-02 -0.1015107E-07  0.0000000E+00  0.1177698E-05
  0.4595959E+00  0.0000000E+00  0.5050505E-02 -0.1233482E-07  0.0000000E+00  0.1155143E-05
  0.4696970E+00  0.0000000E+00  0.5050505E-02 -0.1452509E-07  0.0000000E+00  0.1128201E-05
  0.4797980E+00  0.0000000E+00  0.5050505E-02 -0.1672143E-07  0.0000000E+00  0.1096859E-05
  0.4898990E+00  0.0000000E+00  0.5050505E-02 -0.1892244E-07  0.0000000E+00  0.1061106E-05
  0.5000000E+00  0.0000000E+00  0.5050505E-02 -0.2112552E-07  0.0000000E+00  0.1020936E-05
  0.5101010E+00  0.0000000E+00  0.5050505E-02 -0.2332662E-07  0.0000000E+00  0.9763488E-06
  0.5202020E+00  0.0000000E+00  0.5050505E-02 -0.2552011E-07  0.0000000E+00  0.9273539E-06
  0.5303030E+00  0.0000000E+00  0.5050505E-02 -0.2769864E-07  0.0000000E+00  0.8739740E-06
  0.5404040E+00  0.0000000E+00  0.5050505E-02 -0.2985317E-07  0.0000000E+00  0.8162483E-06
  0.5505050E+00  0.0000000E+00  0.5050505E-02 -0.3197306E-07  0.0000000E+00  0.7542358E-06
  0.5606061E+00  0.0000000E+00  0.5050505E-02 -0.3404623E-07  0.0000000E+00  0.6880181E-06
  0.5707071E+00  0.0000000E+00  0.5050505E-02 -0.3605943E-07  0.0000000E+00  0.6177024E-06
  0.5808081E+00  0.0000000E+00  0.5050505E-02 -0.3799861E-07  0.0000000E+00  0.5434232E-06
  0.5909091E+00  0.0000000E+00  0.5050505E-02 -0.3984935E-07  0.0000000E+00  0.4653434E-06
  0.6010101E+00  0.0000000E+00  0.5050505E-02 -0.4159730E-07  0.0000000E+00  0.3836550E-06
  0.6111111E+00  0.0000000E+00  0.5050505E-02 -0.4322877E-07  0.0000000E+00  0.2985781E-06
  0.6212121E+00  0.0000000E+00  0.5050505E-02 -0.4473131E-07  0.0000000E+00  0.2103589E-06
  0.6313131E+00  0.0000000E+00  0.5050505E-02 -0.4609472E-07  0.0000000E+00  0.1192663E-06
  0.6414142E+00  0.0000000E+00  0.5050505E-02 -0.4731308E-07  0.0000000E+00  0.2561718E-07
  0.6515151E+00  0.0000000E+00  0.5050505E-02 -0.4835894E-07  0.0000000E+00 -0.7016120E-07
  0.6616161E+00  0.0000000E+00  0.5050505E-02 -0.4921813E-07  0.0000000E+00 -0.1677391E-06
  0.6717172E+00  0.0000000E+00  0.5050505E-02 -0.4990221E-07  0.0000000E+00 -0.2668615E-06
  0.6818182E+00  0.0000000E+00  0.5050505E-02 -0.5040754E-07  0.0000000E+00 -0.3671745E-06
  0.6919192E+00  0.0000000E+00  0.5050505E-02 -0.5073249E-07  0.0000000E+00 -0.4683191E-06
  0.7020202E+00  0.0000000E+00  0.5050505E-02 -0.5087702E-07  0.0000000E+00 -0.5699345E-06
  0.7121212E+00  0.0000000E+00  0.5050505E-02 -0.5084265E-07  0.0000000E+00 -0.6716613E-06
  0.7222222E+00  0.0000000E+00  0.5050505E-02 -0.5063226E-07  0.0000000E+00 -0.7731446E-06
  0.7323232E+00  0.0000000E+00  0.5050505E-02 -0.5024980E-07  0.0000000E+00 -0.8740362E-06
  0.7424242E+00  0.0000000E+00  0.5050505E-02 -0.4970019E-07  0.0000000E+00 -0.9739969E-06
  0.7525253E+00  0.0000000E+00  0.5050505E-02 -0.4898907E-07  0.0000000E+00 -0.1072698E-05
  0.7626263E+00  0.0000000E+00  0.5050505E-02 -0.4812267E-07  0.0000000E+00 -0.1169823E-05
  0.7727273E+00  0.0000000E+00  0.5050505E-02 -0.4710768E-07  0.0000000E+00 -0.1265067E-05
  0.7828283E+00  0.0000000E+00  0.5050505E-02 -0.4595107E-07  0.0000000E+00 -0.1358140E-05
  0.7929293E+00  0.0000000E+00  0.5050505E-02 -0.4466005E-07  0.0000000E+00 -0.1448766E-05
  0.8030303E+00  0.0000000E+00  0.5050505E-02 -0.4324193E-07  0.0000000E+00 -0.1536684E-05
  0.8131313E+00  0.0000000E+00  0.5050505E-02 -0.4170405E-07  0.0000000E+00 -0.1621646E-05
  0.8232324E+00  0.0000000E+00  0.5050505E-02 -0.4005373E-07  0.0000000E+00 -0.1703420E-05
  0.8333333E+00  0.0000000E+00  0.5050505E-02 -0.3829822E-07  0.0000000E+00 -0.1781788E-05
  0.8434343E+00  0.0000000E+00  0.5050505E-02 -0.3644469E-07  0.0000000E+00 -0.1856547E-05
  0.8535354E+00  0.0000000E+00  0.5050505E-02 -0.3450014E-07  0.0000000E+00 -0.1927508E-05
  0.8636364E+00  0.0000000E+00  0.5050505E-02 -0.3247145E-07  0.0000000E+00 -0.1994496E-05
  0.8737374E+00  0.0000000E+00  0.5050505E-02 -0.3036533E-07  0.0000000E+00 -0.2057348E-05
  0.8838384E+00  0.0000000E+00  0.5050505E-02 -0.2818832E-07  0.0000000E+00 -0.2115916E-05
  0.8939394E+00  0.0000000E+00  0.5050505E-02 -0.2594682E-07  0.0000000E+00 -0.2170065E-05
  0.9040404E+00  0.0000000E+00  0.5050505E-02 -0.2364704E-07  0.0000000E+00 -0.2219673E-05
  0.9141414E+00  0.0000000E+00  0.5050505E-02 -0.2129504E-07  0.0000000E+00 -0.2264627E-05
  0.9242424E+00  0.0000000E+00  0.5050505E-02 -0.1889674E-07  0.0000000E+00 -0.2304830E-05
  0.9343435E+00  0.0000000E+00  0.5050505E-02 -0.1645794E-07  0.0000000E+00 -0.2340194E-05
  0.9444444E+00  0.0000000E+00  0.5050505E-02 -0.1398427E-07  0.0000000E+00 -0.2370645E-05
  0.9545454E+00  0.0000000E+00  0.5050505E-02 -0.1148130E-07  0.0000000E+00 -0.2396118E-05
  0.9646465E+00  0.0000000E+00  0.5050505E-02 -0.8954485E-08  0.0000000E+00 -0.2416560E-05
  0.9747475E+00  0.0000000E+00  0.5050505E-02 -0.6409201E-08  0.0000000E+00 -0.2431928E-05
  0.9848485E+00  0.0000000E+00  0.5050505E-02 -0.3850769E-08  0.0000000E+00 -0.2442191E-05
  0.9974747E+00  0.0000000E+00  0.5050505E-02 -0.1284464E-08  0.0000000E+00 -0.2447328E-05
  0.5050505E-02  0.0000000E+00  0.1515152E-01  0.4356280E-08  0.0000000E+00 -0.4022681E-06
  0.1515152E-01  0.0000000E+00  0.1515152E-01  0.1303579E-07  0.0000000E+00 -0.3964144E-06
  0.2525252E-01  0.0000000E+00  0.1515152E-01  0.2161626E-07  0.0000000E+00 -0.3847515E-06
  0.3535353E-01  0.0000000E+00  0.1515152E-01  0.3003219E-07  0.0000000E+00 -0.3673681E-06
  0.4545455E-01  0.0000000E+00  0.1515152E-01  0.3821930E-07  0.0000000E+00 -0.3443968E-06
  0.5555556E-01  0.0000000E+00  0.1515152E-01  0.4611513E-07  0.0000000E+00 -0.3160129E-06
  0.6565657E-01  0.0000000E+00  0.1515152E-01  0.5365947E-07  0.0000000E+00 -0.2824328E-06
  0.7575758E-01  0.0000000E+00  0.1515152E-01  0.6079449E-07  0.0000000E+00 -0.2439128E-06
  0.8585858E-01  0.0000000E+00  0.1515152E-01  0.6746441E-07  0.0000000E+00 -0.2007476E-06
  0.9595960E-01  0.0000000E+00  0.1515152E-01  0.7361952E-07  0.0000000E+00 -0.1532677E-06
  0.1060606E+00  0.0000000E+00  0.1515152E-01  0.7921170E-07  0.0000000E+00 -0.1018368E-06
  0.1161616E+00  0.0000000E+00  0.1515152E-01  0.8420459E-07  0.0000000E+00 -0.4684624E-07
  0.1262626E+00  0.0000000E+00  0.1515152E-01  0.8853094E-07  0.0000000E+00  0.1132013E-07
  0.1363636E+00  0.0000000E+00  0.1515152E-01  0.9216059E-07  0.0000000E+00  0.7224232E-07
  0.1464646E+00  0.0000000E+00  0.1515152E-01  0.9512055E-07  0.0000000E+00  0.1354233E-06
  0.1565657E+00  0.0000000E+00  0.1515152E-01  0.9738587E-07  0.0000000E+00  0.2003663E-06
  0.1666667E+00  0.0000000E+00  0.1515152E-01  0.9894507E-07  0.0000000E+00  0.2665942E-06
  0.1767677E+00  0.0000000E+00  0.1515152E-01  0.9979681E-07  0.0000000E+00  0.3336276E-06
  0.1868687E+00  0.0000000E+00  0.1515152E-01  0.9994850E-07  0.0000000E+00  0.4009900E-06
  0.1969697E+00  0.0000000E+00  0.1515152E-01  0.9941549E-07  0.0000000E+00  0.4682128E-06
  0.2070707E+00  0.0000000E+00  0.1515152E-01  0.9822031E-07  0.0000000E+00  0.5348406E-06
  0.2171717E+00  0.0000000E+00  0.1515152E-01  0.9639195E-07  0.0000000E+00  0.6004355E-06
  0.2272727E+00  0.0000000E+00  0.1515152E-01  0.9396502E-07  0.0000000E+00  0.6645818E-06
  0.2373737E+00  0.0000000E+00  0.1515152E-01  0.9097871E-07  0.0000000E+00  0.7268888E-06
  0.2474747E+00  0.0000000E+00  0.1515152E-01  0.8747587E-07  0.0000000E+00  0.7869940E-06
  0.2575758E+00  0.0000000E+00  0.1515152E-01  0.8350186E-07  0.0000000E+00  0.8445648E-06
  0.2676768E+00  0.0000000E+00  0.1515152E-01  0.7910354E-07  0.0000000E+00  0.8993004E-06
  0.2777778E+00  0.0000000E+00  0.1515152E-01  0.7432817E-07  0.0000000E+00  0.9509320E-06
  0.2878788E+00  0.0000000E+00  0.1515152E-01  0.6922251E-07  0.0000000E+00  0.9992226E-06
  0.2979798E+00  0.0000000E+00  0.1515152E-01  0.6383190E-07  0.0000000E+00  0.1043967E-05
  0.3080808E+00  0.0000000E+00  0.1515152E-01  0.5819947E-07  0.0000000E+00  0.1084989E-05
  0.3181818E+00  0.0000000E+00  0.1515152E-01  0.5236551E-07  0.0000000E+00  0.1122143E-05
  0.3282828E+00  0.0000000E+00  0.1515152E-01  0.4636692E-07  0.0000000E+00  0.1155307E-05
  0.3383838E+00  0.0000000E+00  0.1515152E-01  0.4023677E-07  0.0000000E+00  0.1184383E-05
  0.3484848E+00  0.0000000E+00  0.1515152E-01  0.3400404E-07  0.0000000E+00  0.1209296E-05
  0.3585859E+00  0.0000000E+00  0.1515152E-01  0.2769344E-07  0.0000000E+00  0.1229987E-05
  0.3686869E+00  0.0000000E+00  0.1515152E-01  0.2132538E-07  0.0000000E+00  0.1246413E-05
  0.3787879E+00  0.0000000E+00  0.1515152E-01  0.1491605E-07  0.0000000E+00  0.1258543E-05
  0.3888889E+00  0.0000000E+00  0.1515152E-01  0.8477576E-08  0.0000000E+00  0.1266355E-05
  0.3989899E+00  0.0000000E+00  0.1515152E-01  0.2018322E-08  0.0000000E+00  0.1269835E-05
  0.4090909E+00  0.0000000E+00  0.1515152E-01 -0.4456686E-08  0.0000000E+00  0.1268972E-05
  0.4191919E+00  0.0000000E+00  0.1515152E-01 -0.1094526E-07  0.0000000E+00  0.1263756E-05
  0.4292929E+00  0.0000000E+00  0.1515152E-01 -0.1744741E-07  0.0000000E+00  0.1254182E-05
  0.4393939E+00  0.0000000E+00  0.1515152E-01 -0.2396465E-07  0.0000000E+00  0.1240238E-05
  0.4494950E+00  0.0000000E+00  0.1515152E-01 -0.3049918E-07  0.0000000E+00  0.1221915E-05
  0.4595959E+00  0.0000000E+00  0.1515152E-01 -0.3705304E-07  0.0000000E+00  0.1199200E-05
  0.4696970E+00  0.0000000E+00  0.1515152E-01 -0.4362718E-07  0.0000000E+00  0.1172078E-05
  0.4797980E+00  0.0000000E+00  0.1515152E-01 -0.5022058E-07  0.0000000E+00  0.1140537E-05
  0.4898990E+00  0.0000000E+00  0.1515152E-01 -0.5682934E-07  0.0000000E+00  0.1104561E-05
  0.5000000E+00  0.0000000E+00  0.1515152E-01 -0.6344589E-07  0.0000000E+00  0.1064143E-05
  0.5101010E+00  0.0000000E+00  0.1515152E-01 -0.7005829E-07  0.0000000E+00  0.1019278E-05
  0.5202020E+00  0.0000000E+00  0.1515152E-01 -0.7664969E-07  0.0000000E+00  0.9699723E-06
  0.5303030E+00  0.0000000E+00  0.1515152E-01 -0.8319810E-07  0.0000000E+00  0.9162453E-06
  0.5404040E+00  0.0000000E+00  0.1515152E-01 -0.8967628E-07  0.0000000E+00  0.8581324E-06
  0.5505050E+00  0.0000000E+00  0.1515152E-01 -0.9605207E-07  0.0000000E+00  0.7956894E-06
  0.5606061E+00  0.0000000E+00  0.1515152E-01 -0.1022889E-06  0.0000000E+00  0.7289955E-06
  0.5707071E+00  0.0000000E+00  0.1515152E-01 -0.1083467E-06  0.0000000E+00  0.6581560E-06
  0.5808081E+00  0.0000000E+00  0.1515152E-01 -0.1141828E-06  0.0000000E+00  0.5833047E-06
  0.5909091E+00  0.0000000E+00  0.1515152E-01 -0.1197534E-06  0.0000000E+00  0.5046049E-06
  0.6010101E+00  0.0000000E+00  0.1515152E-01 -0.1250149E-06  0.0000000E+00  0.4222499E-06
  0.6111111E+00  0.0000000E+00  0.1515152E-01 -0.1299255E-06  0.0000000E+00  0.3364628E-06
  0.6212121E+00  0.0000000E+00  0.1515152E-01 -0.1344468E-06  0.0000000E+00  0.2474942E-06
  0.6313131E+00  0.0000000E+00  0.1515152E-01 -0.1385462E-06  0.0000000E+00  0.1556210E-06
  0.6414142E+00  0.0000000E+00  0.1515152E-01 -0.1422001E-06  0.0000000E+00  0.6114407E-07
  0.6515151E+00  0.0000000E+00  0.1515152E-01 -0.1453682E-06  0.0000000E+00 -0.3551597E-07
  0.6616161E+00  0.0000000E+00  0.1515152E-01 -0.1479553E-06  0.0000000E+00 -0.1339879E-06
  0.6717172E+00  0.0000000E+00  0.1515152E-01 -0.1500124E-06  0.0000000E+00 -0.2340038E-06
  0.6818182E+00  0.0000000E+00  0.1515152E-01 -0.1515309E-06  0.0000000E+00 -0.3352211E-06
  0.6919192E+00  0.0000000E+00  0.1515152E-01 -0.1525060E-06  0.0000000E+00 -0.4372750E-06
  0.7020202E+00  0.0000000E+00  0.1515152E-01 -0.1529379E-06  0.0000000E+00 -0.5397998E-06
  0.7121212E+00  0.0000000E+00  0.1515152E-01 -0.1528313E-06  0.0000000E+00 -0.6424311E-06
  0.7222222E+00  0.0000000E+00  0.1515152E-01 -0.1521950E-06  0.0000000E+00 -0.7448096E-06
  0.7323232E+00  0.0000000E+00  0.1515152E-01 -0.1510412E-06  0.0000000E+00 -0.8465832E-06
  0.7424242E+00  0.0000000E+00  0.1515152E-01 -0.1493848E-06  0.0000000E+00 -0.9474092E-06
  0.7525253E+00  0.0000000E+00  0.1515152E-01 -0.1472428E-06  0.0000000E+00 -0.1046956E-05
  0.7626263E+00  0.0000000E+00  0.1515152E-01 -0.1446342E-06  0.0000000E+00 -0.1144903E-05
  0.7727273E+00  0.0000000E+00  0.1515152E-01 -0.1415792E-06  0.0000000E+00 -0.1240946E-05
  0.7828283E+00  0.0000000E+00  0.1515152E-01 -0.1380989E-06  0.0000000E+00 -0.1334790E-05
  0.7929293E+00  0.0000000E+00  0.1515152E-01 -0.1342149E-06  0.0000000E+00 -0.1426159E-05
  0.8030303E+00  0.0000000E+00  0.1515152E-01 -0.1299492E-06  0.0000000E+00 -0.1514790E-05
  0.8131313E+00  0.0000000E+00  0.1515152E-01 -0.1253241E-06  0.0000000E+00 -0.1600433E-05
  0.8232324E+00  0.0000000E+00  0.1515152E-01 -0.1203616E-06  0.0000000E+00 -0.1682857E-05
  0.8333333E+00  0.0000000E+00  0.1515152E-01 -0.1150833E-06  0.0000000E+00 -0.1761841E-05
  0.8434343E+00  0.0000000E+00  0.1515152E-01 -0.1095110E-06  0.0000000E+00 -0.1837183E-05
  0.8535354E+00  0.0000000E+00  0.1515152E-01 -0.1036656E-06  0.0000000E+00 -0.1908692E-05
  0.8636364E+00  0.0000000E+00  0.1515152E-01 -0.9756775E-07  0.0000000E+00 -0.1976192E-05
  0.8737374E+00  0.0000000E+00  0.1515152E-01 -0.9123768E-07  0.0000000E+00 -0.2039522E-05
  0.8838384E+00  0.0000000E+00  0.1515152E-01 -0.8469500E-07  0.0000000E+00 -0.2098532E-05
  0.8939394E+00  0.0000000E+00  0.1515152E-01 -0.7795888E-07  0.0000000E+00 -0.2153087E-05
  0.9040404E+00  0.0000000E+00  0.1515152E-01 -0.7104799E-07  0.0000000E+00 -0.2203063E-05
  0.9141414E+00  0.0000000E+00  0.1515152E-01 -0.6398052E-07  0.0000000E+00 -0.2248350E-05
  0.9242424E+00  0.0000000E+00  0.1515152E-01 -0.5677422E-07  0.0000000E+00 -0.2288849E-05
  0.9343435E+00  0.0000000E+00  0.1515152E-01 -0.4944645E-07  0.0000000E+00 -0.2324473E-05
  0.9444444E+00  0.0000000E+00  0.1515152E-01 -0.4201417E-07  0.0000000E+00 -0.2355147E-05
  0.9545454E+00  0.0000000E+00  0.1515152E-01 -0.3449403E-07  0.0000000E+00 -0.2380805E-05
  0.9646465E+00  0.0000000E+00  0.1515152E-01 -0.2690239E-07  0.0000000E+00 -0.2401395E-05
  0.9747475E+00  0.0000000E+00  0.1515152E-01 -0.1925539E-07  0.0000000E+00 -0.2416875E-05
  0.9848485E+00  0.0000000E+00  0.1515152E-01 -0.1156896E-07  0.0000000E+00 -0.2427212E-05
  0.9974747E+00  0.0000000E+00  0.1515152E-01 -0.3858942E-08  0.0000000E+00 -0.2432386E-05
  0.5050505E-02  0.0000000E+00  0.2525252E-01  0.7313984E-08  0.0000000E+00 -0.3469389E-06
  0.1515152E-01  0.0000000E+00  0.2525252E-01  0.2188654E-07  0.0000000E+00 -0.3409331E-06
  0.2525252E-01  0.0000000E+00  0.2525252E-01  0.3629298E-07  0.0000000E+00 -0.3289668E-06
  0.3535353E-01  0.0000000E+00  0.2525252E-01  0.5042296E-07  0.0000000E+00 -0.3111312E-06
  0.4545455E-01  0.0000000E+00  0.2525252E-01  0.6416834E-07  0.0000000E+00 -0.2875626E-06
  0.5555556E-01  0.0000000E+00  0.2525252E-01  0.7742420E-07  0.0000000E+00 -0.2584415E-06
  0.6565657E-01  0.0000000E+00  0.2525252E-01  0.9008980E-07  0.0000000E+00 -0.2239904E-06
  0.7575758E-01  0.0000000E+00  0.2525252E-01  0.1020687E-06  0.0000000E+00 -0.1844717E-06
  0.8585858E-01  0.0000000E+00  0.2525252E-01  0.1132633E-06  0.0000000E+00 -0.1401898E-06
  0.9595960E-01  0.0000000E+00  0.2525252E-01  0.1235953E-06  0.0000000E+00 -0.9148419E-07
  0.1060606E+00  0.0000000E+00  0.2525252E-01  0.1329736E-06  0.0000000E+00 -0.3873319E-07
  0.1161616E+00  0.0000000E+00  0.2525252E-01  0.1413127E-06  0.0000000E+00  0.1768860E-07
  0.1262626E+00  0.0000000E+00  0.2525252E-01  0.1485485E-06  0.0000000E+00  0.7736579E-07
  0.1363636E+00  0.0000000E+00  0.2525252E-01  0.1546587E-06  0.0000000E+00  0.1398157E-06
  0.1464646E+00  0.0000000E+00  0.2525252E-01  0.1596236E-06  0.0000000E+00  0.2045525E-06
  0.1565657E+00  0.0000000E+00  0.2525252E-01  0.1634123E-06  0.0000000E+00  0.2710822E-06
  0.1666667E+00  0.0000000E+00  0.2525252E-01  0.1660097E-06  0.0000000E+00  0.3389082E-06
  0.1767677E+00  0.0000000E+00  0.2525252E-01  0.1674151E-06  0.0000000E+00  0.4075332E-06
  0.1868687E+00  0.0000000E+00  0.2525252E-01  0.1676419E-06  0.0000000E+00  0.4764640E-06
  0.1969697E+00  0.0000000E+00  0.2525252E-01  0.1667169E-06  0.0000000E+00  0.5452167E-06
  0.2070707E+00  0.0000000E+00  0.2525252E-01  0.1646785E-06  0.0000000E+00  0.6133216E-06
  0.2171717E+00  0.0000000E+00  0.2525252E-01  0.1615763E-06  0.0000000E+00  0.6803282E-06
  0.2272727E+00  0.0000000E+00  0.2525252E-01  0.1574694E-06  0.0000000E+00  0.7458095E-06
  0.2373737E+00  0.0000000E+00  0.2525252E-01  0.1524244E-06  0.0000000E+00  0.8093657E-06
  0.2474747E+00  0.0000000E+00  0.2525252E-01  0.1465144E-06  0.0000000E+00  0.8706266E-06
  0.2575758E+00  0.0000000E+00  0.2525252E-01  0.1398165E-06  0.0000000E+00  0.9292544E-06
  0.2676768E+00  0.0000000E+00  0.2525252E-01  0.1324100E-06  0.0000000E+00  0.9849445E-06
  0.2777778E+00  0.0000000E+00  0.2525252E-01  0.1243754E-06  0.0000000E+00  0.1037426E-05
  0.2878788E+00  0.0000000E+00  0.2525252E-01  0.1157916E-06  0.0000000E+00  0.1086463E-05
  0.2979798E+00  0.0000000E+00  0.2525252E-01  0.1067354E-06  0.0000000E+00  0.1131851E-05
  0.3080808E+00  0.0000000E+00  0.2525252E-01  0.9727966E-07  0.0000000E+00  0.1173418E-05
  0.3181818E+00  0.0000000E+00  0.2525252E-01  0.8749225E-07  0.0000000E+00  0.1211020E-05
  0.3282828E+00  0.0000000E+00  0.2525252E-01  0.7743530E-07  0.0000000E+00  0.1244541E-05
  0.3383838E+00  0.0000000E+00  0.2525252E-01  0.6716436E-07  0.0000000E+00  0.1273891E-05
  0.3484848E+00  0.0000000E+00  0.2525252E-01  0.5672797E-07  0.0000000E+00  0.1298998E-05
  0.3585859E+00  0.0000000E+00  0.2525252E-01  0.4616743E-07  0.0000000E+00  0.1319811E-05
  0.3686869E+00  0.0000000E+00  0.2525252E-01  0.3551668E-07  0.0000000E+00  0.1336294E-05
  0.3787879E+00  0.0000000E+00  0.2525252E-01  0.2480246E-07  0.0000000E+00  0.1348421E-05
  0.3888889E+00  0.0000000E+00  0.2525252E-01  0.1404460E-07  0.0000000E+00  0.1356178E-05
  0.3989899E+00  0.0000000E+00  0.2525252E-01  0.3256512E-08  0.0000000E+00  0.1359555E-05
  0.4090909E+00  0.0000000E+00  0.2525252E-01 -0.7554121E-08  0.0000000E+00  0.1358546E-05
  0.4191919E+00  0.0000000E+00  0.2525252E-01 -0.1838446E-07  0.0000000E+00  0.1353147E-05
  0.4292929E+00  0.0000000E+00  0.2525252E-01 -0.2923546E-07  0.0000000E+00  0.1343353E-05
  0.4393939E+00  0.0000000E+00  0.2525252E-01 -0.4011068E-07  0.0000000E+00  0.1329156E-05
  0.4494950E+00  0.0000000E+00  0.2525252E-01 -0.5101490E-07  0.0000000E+00  0.1310546E-05
  0.4595959E+00  0.0000000E+00  0.2525252E-01 -0.6195265E-07  0.0000000E+00  0.1287510E-05
  0.4696970E+00  0.0000000E+00  0.2525252E-01 -0.7292668E-07  0.0000000E+00  0.1260031E-05
  0.4797980E+00  0.0000000E+00  0.2525252E-01 -0.8393636E-07  0.0000000E+00  0.1228091E-05
  0.4898990E+00  0.0000000E+00  0.2525252E-01 -0.9497619E-07  0.0000000E+00  0.1191672E-05
  0.5000000E+00  0.0000000E+00  0.2525252E-01 -0.1060344E-06  0.0000000E+00  0.1150759E-05
  0.5101010E+00  0.0000000E+00  0.2525252E-01 -0.1170917E-06  0.0000000E+00  0.1105340E-05
  0.5202020E+00  0.0000000E+00  0.2525252E-01 -0.1281203E-06  0.0000000E+00  0.1055416E-05
  0.5303030E+00  0.0000000E+00  0.2525252E-01 -0.1390834E-06  0.0000000E+00  0.1000996E-05
  0.5404040E+00  0.0000000E+00  0.2525252E-01 -0.1499355E-06  0.0000000E+00  0.9421100E-06
  0.5505050E+00  0.0000000E+00  0.2525252E-01 -0.1606221E-06  0.0000000E+00  0.8788067E-06
  0.5606061E+00  0.0000000E+00  0.2525252E-01 -0.1710812E-06  0.0000000E+00  0.8111601E-06
  0.5707071E+00  0.0000000E+00  0.2525252E-01 -0.1812446E-06  0.0000000E+00  0.7392717E-06
  0.5808081E+00  0.0000000E+00  0.2525252E-01 -0.1910395E-06  0.0000000E+00  0.6632735E-06
  0.5909091E+00  0.0000000E+00  0.2525252E-01 -0.2003911E-06  0.0000000E+00  0.5833294E-06
  0.6010101E+00  0.0000000E+00  0.2525252E-01 -0.2092248E-06  0.0000000E+00  0.4996356E-06
  0.6111111E+00  0.0000000E+00  0.2525252E-01 -0.2174687E-06  0.0000000E+00  0.4124202E-06
  0.6212121E+00  0.0000000E+00  0.2525252E-01 -0.2250564E-06  0.0000000E+00  0.3219422E-06
  0.6313131E+00  0.0000000E+00  0.2525252E-01 -0.2319294E-06  0.0000000E+00  0.2284889E-06
  0.6414142E+00  0.0000000E+00  0.2525252E-01 -0.2380395E-06  0.0000000E+00  0.1323739E-06
  0.6515151E+00  0.0000000E+00  0.2525252E-01 -0.2433508E-06  0.0000000E+00  0.3395724E-07
  0.6616161E+00  0.0000000E+00  0.2525252E-01 -0.2477444E-06  0.0000000E+00 -0.6633314E-07
  0.6717172E+00  0.0000000E+00  0.2525252E-01 -0.2511891E-06  0.0000000E+00 -0.1681481E-06
  0.6818182E+00  0.0000000E+00  0.2525252E-01 -0.2537289E-06  0.0000000E+00 -0.2711834E-06
  0.6919192E+00  0.0000000E+00  0.2525252E-01 -0.2553561E-06  0.0000000E+00 -0.3750653E-06
  0.7020202E+00  0.0000000E+00  0.2525252E-01 -0.2560703E-06  0.0000000E+00 -0.4794176E-06
  0.7121212E+00  0.0000000E+00  0.2525252E-01 -0.2558805E-06  0.0000000E+00 -0.5838661E-06
  0.7222222E+00  0.0000000E+00  0.2525252E-01 -0.2548023E-06  0.0000000E+00 -0.6880427E-06
  0.7323232E+00  0.0000000E+00  0.2525252E-01 -0.2528565E-06  0.0000000E+00 -0.7915876E-06
  0.7424242E+00  0.0000000E+00  0.2525252E-01 -0.2500686E-06  0.0000000E+00 -0.8941509E-06
  0.7525253E+00  0.0000000E+00  0.2525252E-01 -0.2464678E-06  0.0000000E+00 -0.9953947E-06
  0.7626263E+00  0.0000000E+00  0.2525252E-01 -0.2420862E-06  0.0000000E+00 -0.1094994E-05
  0.7727273E+00  0.0000000E+00  0.2525252E-01 -0.2369579E-06  0.0000000E+00 -0.1192638E-05
  0.7828283E+00  0.0000000E+00  0.2525252E-01 -0.2311187E-06  0.0000000E+00 -0.1288030E-05
  0.7929293E+00  0.0000000E+00  0.2525252E-01 -0.2246050E-06  0.0000000E+00 -0.1380889E-05
  0.8030303E+00  0.0000000E+00  0.2525252E-01 -0.2174539E-06  0.0000000E+00 -0.1470950E-05
  0.8131313E+00  0.0000000E+00  0.2525252E-01 -0.2097026E-06  0.0000000E+00 -0.1557960E-05
  0.8232324E+00  0.0000000E+00  0.2525252E-01 -0.2013880E-06  0.0000000E+00 -0.1641686E-05
  0.8333333E+00  0.0000000E+00  0.2525252E-01 -0.1925468E-06  0.0000000E+00 -0.1721906E-05
  0.8434343E+00  0.0000000E+00  0.2525252E-01 -0.1832149E-06  0.0000000E+00 -0.1798415E-05
  0.8535354E+00  0.0000000E+00  0.2525252E-01 -0.1734276E-06  0.0000000E+00 -0.1871022E-05
  0.8636364E+00  0.0000000E+00  0.2525252E-01 -0.1632194E-06  0.0000000E+00 -0.1939551E-05
  0.8737374E+00  0.0000000E+00  0.2525252E-01 -0.1526240E-06  0.0000000E+00 -0.2003838E-05
  0.8838384E+00  0.0000000E+00  0.2525252E-01 -0.1416743E-06  0.0000000E+00 -0.2063733E-05
  0.8939394E+00  0.0000000E+00  0.2525252E-01 -0.1304022E-06  0.0000000E+00 -0.2119101E-05
  0.9040404E+00  0.0000000E+00  0.2525252E-01 -0.1188388E-06  0.0000000E+00 -0.2169817E-05
  0.9141414E+00  0.0000000E+00  0.2525252E-01 -0.1070146E-06  0.0000000E+00 -0.2215772E-05
  0.9242424E+00  0.0000000E+00  0.2525252E-01 -0.9495902E-07  0.0000000E+00 -0.2256864E-05
  0.9343435E+00  0.0000000E+00  0.2525252E-01 -0.8270110E-07  0.0000000E+00 -0.2293008E-05
  0.9444444E+00  0.0000000E+00  0.2525252E-01 -0.7026910E-07  0.0000000E+00 -0.2324127E-05
  0.9545454E+00  0.0000000E+00  0.2525252E-01 -0.5769076E-07  0.0000000E+00 -0.2350158E-05
  0.9646465E+00  0.0000000E+00  0.2525252E-01 -0.4499334E-07  0.0000000E+00 -0.2371045E-05
  0.9747475E+00  0.0000000E+00  0.2525252E-01 -0.3220370E-07  0.0000000E+00 -0.2386748E-05
  0.9848485E+00  0.0000000E+00  0.2525252E-01 -0.1934842E-07  0.0000000E+00 -0.2397235E-05
  0.9974747E+00  0.0000000E+00  0.2525252E-01 -0.6453837E-08  0.0000000E+00 -0.2402483E-05
  0.5050505E-02  0.0000000E+00  0.3535353E-01  0.1035892E-07  0.0000000E+00 -0.2637982E-06
  0.1515152E-01  0.0000000E+00  0.3535353E-01  0.3099854E-07  0.0000000E+00 -0.2575618E-06
  0.2525252E-01  0.0000000E+00  0.3535353E-01  0.5140370E-07  0.0000000E+00 -0.2451356E-06
  0.3535353E-01  0.0000000E+00  0.3535353E-01  0.7141667E-07  0.0000000E+00 -0.2266140E-06
  0.4545455E-01  0.0000000E+00  0.3535353E-01  0.9088387E-07  0.0000000E+00 -0.2021393E-06
  0.5555556E-01  0.0000000E+00  0.3535353E-01  0.1096564E-06  0.0000000E+00 -0.1719004E-06
  0.6565657E-01  0.0000000E+00  0.3535353E-01  0.1275923E-06  0.0000000E+00 -0.1361294E-06
  0.7575758E-01  0.0000000E+00  0.3535353E-01  0.1445611E-06  0.0000000E+00 -0.9509454E-07
  0.8585858E-01  0.0000000E+00  0.3535353E-01  0.1604034E-06  0.0000000E+00 -0.4911863E-07
  0.9595960E-01  0.0000000E+00  0.3535353E-01  0.1750024E-06  0.0000000E+00  0.1450503E-08
  0.1060606E+00  0.0000000E+00  0.3535353E-01  0.1882439E-06  0.0000000E+00  0.5624367E-07
  0.1161616E+00  0.0000000E+00  0.3535353E-01  0.2000161E-06  0.0000000E+00  0.1148289E-06
  0.1262626E+00  0.0000000E+00  0.3535353E-01  0.2102600E-06  0.0000000E+00  0.1767440E-06
  0.1363636E+00  0.0000000E+00  0.3535353E-01  0.2189126E-06  0.0000000E+00  0.2415093E-06
  0.1464646E+00  0.0000000E+00  0.3535353E-01  0.2259228E-06  0.0000000E+00  0.3086220E-06
  0.1565657E+00  0.0000000E+00  0.3535353E-01  0.2312539E-06  0.0000000E+00  0.3775664E-06
  0.1666667E+00  0.0000000E+00  0.3535353E-01  0.2348877E-06  0.0000000E+00  0.4478206E-06
  0.1767677E+00  0.0000000E+00  0.3535353E-01  0.2368254E-06  0.0000000E+00  0.5188619E-06
  0.1868687E+00  0.0000000E+00  0.3535353E-01  0.2370874E-06  0.0000000E+00  0.5901725E-06
  0.1969697E+00  0.0000000E+00  0.3535353E-01  0.2357130E-06  0.0000000E+00  0.6612451E-06
  0.2070707E+00  0.0000000E+00  0.3535353E-01  0.2327584E-06  0.0000000E+00  0.7315884E-06
  0.2171717E+00  0.0000000E+00  0.3535353E-01  0.2282956E-06  0.0000000E+00  0.8007325E-06
  0.2272727E+00  0.0000000E+00  0.3535353E-01  0.2224100E-06  0.0000000E+00  0.8682334E-06
  0.2373737E+00  0.0000000E+00  0.3535353E-01  0.2151985E-06  0.0000000E+00  0.9336771E-06
  0.2474747E+00  0.0000000E+00  0.3535353E-01  0.2067663E-06  0.0000000E+00  0.9966824E-06
  0.2575758E+00  0.0000000E+00  0.3535353E-01  0.1972247E-06  0.0000000E+00  0.1056903E-05
  0.2676768E+00  0.0000000E+00  0.3535353E-01  0.1866882E-06  0.0000000E+00  0.1114030E-05
  0.2777778E+00  0.0000000E+00  0.3535353E-01  0.1752720E-06  0.0000000E+00  0.1167789E-05
  0.2878788E+00  0.0000000E+00  0.3535353E-01  0.1630896E-06  0.0000000E+00  0.1217944E-05
  0.2979798E+00  0.0000000E+00  0.3535353E-01  0.1502509E-06  0.0000000E+00  0.1264294E-05