title = "dataset water"
variables = "x", "y", "z", "vx", "vy", "vz"
zone t = "velocities, solution time =  1.000E+01 days        " i =   99, j =   99, k =    1,  f=point
  0.5050505E-02  0.0000000E+00  0.5050505E-02  0.1068014E-12  0.0000000E+00 -0.5554259E-04
  0.1515152E-01  0.0000000E+00  0.5050505E-02 -0.5055209E-13  0.0000000E+00 -0.5554259E-04
  0.2525252E-01  0.0000000E+00  0.5050505E-02 -0.2177202E-12  0.0000000E+00 -0.5554259E-04
  0.3535353E-01  0.0000000E+00  0.5050505E-02 -0.3357290E-12  0.0000000E+00 -0.5554259E-04
  0.4545455E-01  0.0000000E+00  0.5050505E-02 -0.4132713E-12  0.0000000E+00 -0.5554259E-04
  0.5555556E-01  0.0000000E+00  0.5050505E-02 -0.4692706E-12  0.0000000E+00 -0.5554259E-04
  0.6565657E-01  0.0000000E+00  0.5050505E-02 -0.5077351E-12  0.0000000E+00 -0.5554259E-04
  0.7575758E-01  0.0000000E+00  0.5050505E-02 -0.5368513E-12  0.0000000E+00 -0.5554259E-04
  0.8585858E-01  0.0000000E+00  0.5050505E-02 -0.5529303E-12  0.0000000E+00 -0.5554259E-04
  0.9595960E-01  0.0000000E+00  0.5050505E-02 -0.5606820E-12  0.0000000E+00 -0.5554259E-04
  0.1060606E+00  0.0000000E+00  0.5050505E-02 -0.5592556E-12  0.0000000E+00 -0.5554259E-04
  0.1161616E+00  0.0000000E+00  0.5050505E-02 -0.5477289E-12  0.0000000E+00 -0.5554260E-04
  0.1262626E+00  0.0000000E+00  0.5050505E-02 -0.5272929E-12  0.0000000E+00 -0.5554260E-04
  0.1363636E+00  0.0000000E+00  0.5050505E-02 -0.4949500E-12  0.0000000E+00 -0.5554260E-04
  0.1464646E+00  0.0000000E+00  0.5050505E-02 -0.4503325E-12  0.0000000E+00 -0.5554260E-04
  0.1565657E+00  0.0000000E+00  0.5050505E-02 -0.3935622E-12  0.0000000E+00 -0.5554260E-04
  0.1666667E+00  0.0000000E+00  0.5050505E-02 -0.3249522E-12  0.0000000E+00 -0.5554260E-04
  0.1767677E+00  0.0000000E+00  0.5050505E-02 -0.2459877E-12  0.0000000E+00 -0.5554260E-04
  0.1868687E+00  0.0000000E+00  0.5050505E-02 -0.1616180E-12  0.0000000E+00 -0.5554260E-04
  0.1969697E+00  0.0000000E+00  0.5050505E-02 -0.8453568E-13  0.0000000E+00 -0.5554260E-04
  0.2070707E+00  0.0000000E+00  0.5050505E-02  0.1923853E-13  0.0000000E+00 -0.5554260E-04
  0.2171717E+00  0.0000000E+00  0.5050505E-02  0.9228529E-13  0.0000000E+00 -0.5554260E-04
  0.2272727E+00  0.0000000E+00  0.5050505E-02  0.2281377E-12  0.0000000E+00 -0.5554260E-04
  0.2373737E+00  0.0000000E+00  0.5050505E-02  0.3292902E-12  0.0000000E+00 -0.5554260E-04
  0.2474747E+00  0.0000000E+00  0.5050505E-02  0.3847076E-12  0.0000000E+00 -0.5554260E-04
  0.2575758E+00  0.0000000E+00  0.5050505E-02  0.4221805E-12  0.0000000E+00 -0.5554260E-04
  0.2676768E+00  0.0000000E+00  0.5050505E-02  0.4514186E-12  0.0000000E+00 -0.5554260E-04
  0.2777778E+00  0.0000000E+00  0.5050505E-02  0.4634810E-12  0.0000000E+00 -0.5554260E-04
  0.2878788E+00  0.0000000E+00  0.5050505E-02  0.4511119E-12  0.0000000E+00 -0.5554260E-04
  0.2979798E+00  0.0000000E+00  0.5050505E-02  0.4264198E-12  0.0000000E+00 -0.5554260E-04
  0.3080808E+00  0.0000000E+00  0.5050505E-02  0.4034420E-12  0.0000000E+00 -0.5554259E-04
  0.3181818E+00  0.0000000E+00  0.5050505E-02  0.3701915E-12  0.0000000E+00 -0.5554259E-04
  0.3282828E+00  0.0000000E+00  0.5050505E-02  0.3182446E-12  0.0000000E+00 -0.5554259E-04
  0.3383838E+00  0.0000000E+00  0.5050505E-02  0.2557099E-12  0.0000000E+00 -0.5554259E-04
  0.3484848E+00  0.0000000E+00  0.5050505E-02  0.1888162E-12  0.0000000E+00 -0.5554259E-04
  0.3585859E+00  0.0000000E+00  0.5050505E-02  0.1288549E-12  0.0000000E+00 -0.5554259E-04
  0.3686869E+00  0.0000000E+00  0.5050505E-02  0.2369419E-13  0.0000000E+00 -0.5554259E-04
  0.3787879E+00  0.0000000E+00  0.5050505E-02 -0.7057210E-13  0.0000000E+00 -0.5554259E-04
  0.3888889E+00  0.0000000E+00  0.5050505E-02 -0.1749198E-12  0.0000000E+00 -0.5554259E-04
  0.3989899E+00  0.0000000E+00  0.5050505E-02 -0.2458070E-12  0.0000000E+00 -0.5554259E-04
  0.4090909E+00  0.0000000E+00  0.5050505E-02 -0.2805259E-12  0.0000000E+00 -0.5554259E-04
  0.4191919E+00  0.0000000E+00  0.5050505E-02 -0.2836308E-12  0.0000000E+00 -0.5554259E-04
  0.4292929E+00  0.0000000E+00  0.5050505E-02 -0.3041780E-12  0.0000000E+00 -0.5554259E-04
  0.4393939E+00  0.0000000E+00  0.5050505E-02 -0.3357122E-12  0.0000000E+00 -0.5554259E-04
  0.4494950E+00  0.0000000E+00  0.5050505E-02 -0.2898762E-12  0.0000000E+00 -0.5554259E-04
  0.4595959E+00  0.0000000E+00  0.5050505E-02 -0.1879318E-12  0.0000000E+00 -0.5554260E-04
  0.4696970E+00  0.0000000E+00  0.5050505E-02 -0.1258109E-12  0.0000000E+00 -0.5554260E-04
  0.4797980E+00  0.0000000E+00  0.5050505E-02 -0.1018205E-12  0.0000000E+00 -0.5554260E-04
  0.4898990E+00  0.0000000E+00  0.5050505E-02 -0.3905897E-13  0.0000000E+00 -0.5554260E-04
  0.5000000E+00  0.0000000E+00  0.5050505E-02  0.9641954E-13  0.0000000E+00 -0.5554260E-04
  0.5101010E+00  0.0000000E+00  0.5050505E-02  0.1750795E-12  0.0000000E+00 -0.5554260E-04
  0.5202020E+00  0.0000000E+00  0.5050505E-02  0.2715809E-12  0.0000000E+00 -0.5554260E-04
  0.5303030E+00  0.0000000E+00  0.5050505E-02  0.3491800E-12  0.0000000E+00 -0.5554259E-04
  0.5404040E+00  0.0000000E+00  0.5050505E-02  0.4215146E-12  0.0000000E+00 -0.5554259E-04
  0.5505050E+00  0.0000000E+00  0.5050505E-02  0.4617878E-12  0.0000000E+00 -0.5554259E-04
  0.5606061E+00  0.0000000E+00  0.5050505E-02  0.4692517E-12  0.0000000E+00 -0.5554259E-04
  0.5707071E+00  0.0000000E+00  0.5050505E-02  0.4736548E-12  0.0000000E+00 -0.5554259E-04
  0.5808081E+00  0.0000000E+00  0.5050505E-02  0.4774425E-12  0.0000000E+00 -0.5554259E-04
  0.5909091E+00  0.0000000E+00  0.5050505E-02  0.4551474E-12  0.0000000E+00 -0.5554259E-04
  0.6010101E+00  0.0000000E+00  0.5050505E-02  0.4252266E-12  0.0000000E+00 -0.5554259E-04
  0.6111111E+00  0.0000000E+00  0.5050505E-02  0.3910897E-12  0.0000000E+00 -0.5554259E-04
  0.6212121E+00  0.0000000E+00  0.5050505E-02  0.3335064E-12  0.0000000E+00 -0.5554259E-04
  0.6313131E+00  0.0000000E+00  0.5050505E-02  0.2675076E-12  0.0000000E+00 -0.5554259E-04
  0.6414142E+00  0.0000000E+00  0.5050505E-02  0.2060905E-12  0.0000000E+00 -0.5554259E-04
  0.6515151E+00  0.0000000E+00  0.5050505E-02  0.1422933E-12  0.0000000E+00 -0.5554259E-04
  0.6616161E+00  0.0000000E+00  0.5050505E-02  0.7662011E-13  0.0000000E+00 -0.5554259E-04
  0.6717172E+00  0.0000000E+00  0.5050505E-02 -0.4958155E-13  0.0000000E+00 -0.5554259E-04
  0.6818182E+00  0.0000000E+00  0.5050505E-02 -0.1996140E-12  0.0000000E+00 -0.5554259E-04
  0.6919192E+00  0.0000000E+00  0.5050505E-02 -0.2925001E-12  0.0000000E+00 -0.5554259E-04
  0.7020202E+00  0.0000000E+00  0.5050505E-02 -0.3726053E-12  0.0000000E+00 -0.5554259E-04
  0.7121212E+00  0.0000000E+00  0.5050505E-02 -0.4312620E-12  0.0000000E+00 -0.5554259E-04
  0.7222222E+00  0.0000000E+00  0.5050505E-02 -0.4610105E-12  0.0000000E+00 -0.5554259E-04
  0.7323232E+00  0.0000000E+00  0.5050505E-02 -0.4829548E-12  0.0000000E+00 -0.5554259E-04
  0.7424242E+00  0.0000000E+00  0.5050505E-02 -0.5099576E-12  0.0000000E+00 -0.5554259E-04
  0.7525253E+00  0.0000000E+00  0.5050505E-02 -0.5340300E-12  0.0000000E+00 -0.5554259E-04
  0.7626263E+00  0.0000000E+00  0.5050505E-02 -0.5264022E-12  0.0000000E+00 -0.5554259E-04
  0.7727273E+00  0.0000000E+00  0.5050505E-02 -0.5022459E-12  0.0000000E+00 -0.5554259E-04
  0.7828283E+00  0.0000000E+00  0.5050505E-02 -0.4840619E-12  0.0000000E+00 -0.5554259E-04
  0.7929293E+00  0.0000000E+00  0.5050505E-02 -0.4593488E-12  0.0000000E+00 -0.5554260E-04
  0.8030303E+00  0.0000000E+00  0.5050505E-02 -0.4104689E-12  0.0000000E+00 -0.5554260E-04
  0.8131313E+00  0.0000000E+00  0.5050505E-02 -0.3427370E-12  0.0000000E+00 -0.5554260E-04
  0.8232324E+00  0.0000000E+00  0.5050505E-02 -0.2698289E-12  0.0000000E+00 -0.5554260E-04
  0.8333333E+00  0.0000000E+00  0.5050505E-02 -0.1972695E-12  0.0000000E+00 -0.5554260E-04
  0.8434343E+00  0.0000000E+00  0.5050505E-02 -0.1244349E-12  0.0000000E+00 -0.5554260E-04
  0.8535354E+00  0.0000000E+00  0.5050505E-02 -0.6087300E-13  0.0000000E+00 -0.5554260E-04
  0.8636364E+00  0.0000000E+00  0.5050505E-02  0.3624608E-13  0.0000000E+00 -0.5554260E-04
  0.8737374E+00  0.0000000E+00  0.5050505E-02  0.1739913E-12  0.0000000E+00 -0.5554260E-04
  0.8838384E+00  0.0000000E+00  0.5050505E-02  0.2770449E-12  0.0000000E+00 -0.5554260E-04
  0.8939394E+00  0.0000000E+00  0.5050505E-02  0.3418547E-12  0.0000000E+00 -0.5554260E-04
  0.9040404E+00  0.0000000E+00  0.5050505E-02  0.3747816E-12  0.0000000E+00 -0.5554260E-04
  0.9141414E+00  0.0000000E+00  0.5050505E-02  0.4024819E-12  0.0000000E+00 -0.5554260E-04
  0.9242424E+00  0.0000000E+00  0.5050505E-02  0.4190862E-12  0.0000000E+00 -0.5554259E-04
  0.9343435E+00  0.0000000E+00  0.5050505E-02  0.3970200E-12  0.0000000E+00 -0.5554259E-04
  0.9444444E+00  0.0000000E+00  0.5050505E-02  0.3675740E-12  0.0000000E+00 -0.5554259E-04
  0.9545454E+00  0.0000000E+00  0.5050505E-02  0.3551734E-12  0.0000000E+00 -0.5554259E-04
  0.9646465E+00  0.0000000E+00  0.5050505E-02  0.3221708E-12  0.0000000E+00 -0.5554259E-04
  0.9747475E+00  0.0000000E+00  0.5050505E-02  0.2565754E-12  0.0000000E+00 -0.5554259E-04
  0.9848485E+00  0.0000000E+00  0.5050505E-02  0.1975699E-12  0.0000000E+00 -0.5554259E-04
  0.9974747E+00  0.0000000E+00  0.5050505E-02  0.1778230E-12  0.0000000E+00 -0.5554259E-04
  0.5050505E-02  0.0000000E+00  0.1515152E-01  0.1096060E-12  0.0000000E+00 -0.5528505E-04
  0.1515152E-01  0.0000000E+00  0.1515152E-01 -0.1183046E-12  0.0000000E+00 -0.5528505E-04
  0.2525252E-01  0.0000000E+00  0.1515152E-01 -0.6205789E-12  0.0000000E+00 -0.5528505E-04
  0.3535353E-01  0.0000000E+00  0.1515152E-01 -0.9916164E-12  0.0000000E+00 -0.5528505E-04
  0.4545455E-01  0.0000000E+00  0.1515152E-01 -0.1235190E-11  0.0000000E+00 -0.5528506E-04
  0.5555556E-01  0.0000000E+00  0.1515152E-01 -0.1407488E-11  0.0000000E+00 -0.5528506E-04
  0.6565657E-01  0.0000000E+00  0.1515152E-01 -0.1522646E-11  0.0000000E+00 -0.5528506E-04
  0.7575758E-01  0.0000000E+00  0.1515152E-01 -0.1609001E-11  0.0000000E+00 -0.5528506E-04
  0.8585858E-01  0.0000000E+00  0.1515152E-01 -0.1657711E-11  0.0000000E+00 -0.5528506E-04
  0.9595960E-01  0.0000000E+00  0.1515152E-01 -0.1680051E-11  0.0000000E+00 -0.5528506E-04
  0.1060606E+00  0.0000000E+00  0.1515152E-01 -0.1675746E-11  0.0000000E+00 -0.5528506E-04
  0.1161616E+00  0.0000000E+00  0.1515152E-01 -0.1641139E-11  0.0000000E+00 -0.5528506E-04
  0.1262626E+00  0.0000000E+00  0.1515152E-01 -0.1579960E-11  0.0000000E+00 -0.5528506E-04
  0.1363636E+00  0.0000000E+00  0.1515152E-01 -0.1483854E-11  0.0000000E+00 -0.5528506E-04
  0.1464646E+00  0.0000000E+00  0.1515152E-01 -0.1349053E-11  0.0000000E+00 -0.5528507E-04
  0.1565657E+00  0.0000000E+00  0.1515152E-01 -0.1175354E-11  0.0000000E+00 -0.5528507E-04
  0.1666667E+00  0.0000000E+00  0.1515152E-01 -0.9658147E-12  0.0000000E+00 -0.5528507E-04
  0.1767677E+00  0.0000000E+00  0.1515152E-01 -0.7258796E-12  0.0000000E+00 -0.5528507E-04
  0.1868687E+00  0.0000000E+00  0.1515152E-01 -0.4635005E-12  0.0000000E+00 -0.5528507E-04
  0.1969697E+00  0.0000000E+00  0.1515152E-01 -0.1728677E-12  0.0000000E+00 -0.5528507E-04
  0.2070707E+00  0.0000000E+00  0.1515152E-01  0.9169785E-13  0.0000000E+00 -0.5528507E-04
  0.2171717E+00  0.0000000E+00  0.1515152E-01  0.2043093E-12  0.0000000E+00 -0.5528507E-04
  0.2272727E+00  0.0000000E+00  0.1515152E-01  0.6301150E-12  0.0000000E+00 -0.5528507E-04
  0.2373737E+00  0.0000000E+00  0.1515152E-01  0.9707073E-12  0.0000000E+00 -0.5528507E-04
  0.2474747E+00  0.0000000E+00  0.1515152E-01  0.1160968E-11  0.0000000E+00 -0.5528507E-04
  0.2575758E+00  0.0000000E+00  0.1515152E-01  0.1265194E-11  0.0000000E+00 -0.5528507E-04
  0.2676768E+00  0.0000000E+00  0.1515152E-01  0.1340086E-11  0.0000000E+00 -0.5528507E-04
  0.2777778E+00  0.0000000E+00  0.1515152E-01  0.1387247E-11  0.0000000E+00 -0.5528506E-04
  0.2878788E+00  0.0000000E+00  0.1515152E-01  0.1370450E-11  0.0000000E+00 -0.5528506E-04
  0.2979798E+00  0.0000000E+00  0.1515152E-01  0.1291037E-11  0.0000000E+00 -0.5528506E-04
  0.3080808E+00  0.0000000E+00  0.1515152E-01  0.1200977E-11  0.0000000E+00 -0.5528506E-04
  0.3181818E+00  0.0000000E+00  0.1515152E-01  0.1095858E-11  0.0000000E+00 -0.5528506E-04
  0.3282828E+00  0.0000000E+00  0.1515152E-01  0.9495312E-12  0.0000000E+00 -0.5528506E-04
  0.3383838E+00  0.0000000E+00  0.1515152E-01  0.7698756E-12  0.0000000E+00 -0.5528506E-04
  0.3484848E+00  0.0000000E+00  0.1515152E-01  0.5592294E-12  0.0000000E+00 -0.5528506E-04
  0.3585859E+00  0.0000000E+00  0.1515152E-01  0.2920713E-12  0.0000000E+00 -0.5528506E-04
  0.3686869E+00  0.0000000E+00  0.1515152E-01  0.1772217E-13  0.0000000E+00 -0.5528506E-04
  0.3787879E+00  0.0000000E+00  0.1515152E-01 -0.1399379E-12  0.0000000E+00 -0.5528506E-04
  0.3888889E+00  0.0000000E+00  0.1515152E-01 -0.4587787E-12  0.0000000E+00 -0.5528506E-04
  0.3989899E+00  0.0000000E+00  0.1515152E-01 -0.6988523E-12  0.0000000E+00 -0.5528506E-04
  0.4090909E+00  0.0000000E+00  0.1515152E-01 -0.8811405E-12  0.0000000E+00 -0.5528506E-04
  0.4191919E+00  0.0000000E+00  0.1515152E-01 -0.8902764E-12  0.0000000E+00 -0.5528506E-04
  0.4292929E+00  0.0000000E+00  0.1515152E-01 -0.8647092E-12  0.0000000E+00 -0.5528506E-04
  0.4393939E+00  0.0000000E+00  0.1515152E-01 -0.9448124E-12  0.0000000E+00 -0.5528506E-04
  0.4494950E+00  0.0000000E+00  0.1515152E-01 -0.9092420E-12  0.0000000E+00 -0.5528506E-04
  0.4595959E+00  0.0000000E+00  0.1515152E-01 -0.6363335E-12  0.0000000E+00 -0.5528506E-04
  0.4696970E+00  0.0000000E+00  0.1515152E-01 -0.3498884E-12  0.0000000E+00 -0.5528506E-04
  0.4797980E+00  0.0000000E+00  0.1515152E-01 -0.2137581E-12  0.0000000E+00 -0.5528506E-04
  0.4898990E+00  0.0000000E+00  0.1515152E-01 -0.3436275E-13  0.0000000E+00 -0.5528506E-04
  0.5000000E+00  0.0000000E+00  0.1515152E-01  0.2695155E-12  0.0000000E+00 -0.5528506E-04
  0.5101010E+00  0.0000000E+00  0.1515152E-01  0.4423508E-12  0.0000000E+00 -0.5528506E-04
  0.5202020E+00  0.0000000E+00  0.1515152E-01  0.7990277E-12  0.0000000E+00 -0.5528506E-04
  0.5303030E+00  0.0000000E+00  0.1515152E-01  0.1037207E-11  0.0000000E+00 -0.5528506E-04
  0.5404040E+00  0.0000000E+00  0.1515152E-01  0.1239077E-11  0.0000000E+00 -0.5528506E-04
  0.5505050E+00  0.0000000E+00  0.1515152E-01  0.1379095E-11  0.0000000E+00 -0.5528506E-04
  0.5606061E+00  0.0000000E+00  0.1515152E-01  0.1418568E-11  0.0000000E+00 -0.5528506E-04
  0.5707071E+00  0.0000000E+00  0.1515152E-01  0.1419243E-11  0.0000000E+00 -0.5528506E-04
  0.5808081E+00  0.0000000E+00  0.1515152E-01  0.1427421E-11  0.0000000E+00 -0.5528506E-04
  0.5909091E+00  0.0000000E+00  0.1515152E-01  0.1368218E-11  0.0000000E+00 -0.5528506E-04
  0.6010101E+00  0.0000000E+00  0.1515152E-01  0.1269925E-11  0.0000000E+00 -0.5528506E-04
  0.6111111E+00  0.0000000E+00  0.1515152E-01  0.1166730E-11  0.0000000E+00 -0.5528505E-04
  0.6212121E+00  0.0000000E+00  0.1515152E-01  0.1001450E-11  0.0000000E+00 -0.5528505E-04
  0.6313131E+00  0.0000000E+00  0.1515152E-01  0.7929637E-12  0.0000000E+00 -0.5528505E-04
  0.6414142E+00  0.0000000E+00  0.1515152E-01  0.5945801E-12  0.0000000E+00 -0.5528505E-04
  0.6515151E+00  0.0000000E+00  0.1515152E-01  0.4020279E-12  0.0000000E+00 -0.5528505E-04
  0.6616161E+00  0.0000000E+00  0.1515152E-01  0.1544673E-12  0.0000000E+00 -0.5528505E-04
  0.6717172E+00  0.0000000E+00  0.1515152E-01 -0.1379136E-12  0.0000000E+00 -0.5528505E-04
  0.6818182E+00  0.0000000E+00  0.1515152E-01 -0.5375459E-12  0.0000000E+00 -0.5528505E-04
  0.6919192E+00  0.0000000E+00  0.1515152E-01 -0.8324286E-12  0.0000000E+00 -0.5528505E-04
  0.7020202E+00  0.0000000E+00  0.1515152E-01 -0.1082800E-11  0.0000000E+00 -0.5528505E-04
  0.7121212E+00  0.0000000E+00  0.1515152E-01 -0.1288965E-11  0.0000000E+00 -0.5528505E-04
  0.7222222E+00  0.0000000E+00  0.1515152E-01 -0.1406870E-11  0.0000000E+00 -0.5528506E-04
  0.7323232E+00  0.0000000E+00  0.1515152E-01 -0.1463386E-11  0.0000000E+00 -0.5528506E-04
  0.7424242E+00  0.0000000E+00  0.1515152E-01 -0.1511986E-11  0.0000000E+00 -0.5528506E-04
  0.7525253E+00  0.0000000E+00  0.1515152E-01 -0.1583630E-11  0.0000000E+00 -0.5528506E-04
  0.7626263E+00  0.0000000E+00  0.1515152E-01 -0.1591643E-11  0.0000000E+00 -0.5528506E-04
  0.7727273E+00  0.0000000E+00  0.1515152E-01 -0.1524388E-11  0.0000000E+00 -0.5528506E-04
  0.7828283E+00  0.0000000E+00  0.1515152E-01 -0.1446794E-11  0.0000000E+00 -0.5528506E-04
  0.7929293E+00  0.0000000E+00  0.1515152E-01 -0.1364482E-11  0.0000000E+00 -0.5528506E-04
  0.8030303E+00  0.0000000E+00  0.1515152E-01 -0.1229712E-11  0.0000000E+00 -0.5528506E-04
  0.8131313E+00  0.0000000E+00  0.1515152E-01 -0.1029889E-11  0.0000000E+00 -0.5528506E-04
  0.8232324E+00  0.0000000E+00  0.1515152E-01 -0.7970458E-12  0.0000000E+00 -0.5528506E-04
  0.8333333E+00  0.0000000E+00  0.1515152E-01 -0.5664744E-12  0.0000000E+00 -0.5528507E-04
  0.8434343E+00  0.0000000E+00  0.1515152E-01 -0.3446618E-12  0.0000000E+00 -0.5528507E-04
  0.8535354E+00  0.0000000E+00  0.1515152E-01 -0.1122468E-12  0.0000000E+00 -0.5528507E-04
  0.8636364E+00  0.0000000E+00  0.1515152E-01  0.8252507E-13  0.0000000E+00 -0.5528507E-04
  0.8737374E+00  0.0000000E+00  0.1515152E-01  0.4665257E-12  0.0000000E+00 -0.5528507E-04
  0.8838384E+00  0.0000000E+00  0.1515152E-01  0.7942578E-12  0.0000000E+00 -0.5528507E-04
  0.8939394E+00  0.0000000E+00  0.1515152E-01  0.1016786E-11  0.0000000E+00 -0.5528506E-04
  0.9040404E+00  0.0000000E+00  0.1515152E-01  0.1123847E-11  0.0000000E+00 -0.5528506E-04
  0.9141414E+00  0.0000000E+00  0.1515152E-01  0.1193801E-11  0.0000000E+00 -0.5528506E-04
  0.9242424E+00  0.0000000E+00  0.1515152E-01  0.1260326E-11  0.0000000E+00 -0.5528506E-04
  0.9343435E+00  0.0000000E+00  0.1515152E-01  0.1220215E-11  0.0000000E+00 -0.5528506E-04
  0.9444444E+00  0.0000000E+00  0.1515152E-01  0.1102150E-11  0.0000000E+00 -0.5528506E-04
  0.9545454E+00  0.0000000E+00  0.1515152E-01  0.1025892E-11  0.0000000E+00 -0.5528506E-04
  0.9646465E+00  0.0000000E+00  0.1515152E-01  0.9482382E-12  0.0000000E+00 -0.5528506E-04
  0.9747475E+00  0.0000000E+00  0.1515152E-01  0.7848741E-12  0.0000000E+00 -0.5528506E-04
  0.9848485E+00  0.0000000E+00  0.1515152E-01  0.5788138E-12  0.0000000E+00 -0.5528506E-04
  0.9974747E+00  0.0000000E+00  0.1515152E-01  0.3467753E-12  0.0000000E+00 -0.5528506E-04
  0.5050505E-02  0.0000000E+00  0.2525252E-01 -0.2353921E-13  0.0000000E+00 -0.5477423E-04
  0.1515152E-01  0.0000000E+00  0.2525252E-01 -0.9999765E-13  0.0000000E+00 -0.5477423E-04
  0.2525252E-01  0.0000000E+00  0.2525252E-01 -0.9489257E-12  0.0000000E+00 -0.5477423E-04
  0.3535353E-01  0.0000000E+00  0.2525252E-01 -0.1613313E-11  0.0000000E+00 -0.5477423E-04
  0.4545455E-01  0.0000000E+00  0.2525252E-01 -0.2046393E-11  0.0000000E+00 -0.5477424E-04
  0.5555556E-01  0.0000000E+00  0.2525252E-01 -0.2344706E-11  0.0000000E+00 -0.5477424E-04
  0.6565657E-01  0.0000000E+00  0.2525252E-01 -0.2537467E-11  0.0000000E+00 -0.5477424E-04
  0.7575758E-01  0.0000000E+00  0.2525252E-01 -0.2677782E-11  0.0000000E+00 -0.5477424E-04
  0.8585858E-01  0.0000000E+00  0.2525252E-01 -0.2758861E-11  0.0000000E+00 -0.5477424E-04
  0.9595960E-01  0.0000000E+00  0.2525252E-01 -0.2794370E-11  0.0000000E+00 -0.5477424E-04
  0.1060606E+00  0.0000000E+00  0.2525252E-01 -0.2787140E-11  0.0000000E+00 -0.5477424E-04
  0.1161616E+00  0.0000000E+00  0.2525252E-01 -0.2729420E-11  0.0000000E+00 -0.5477424E-04
  0.1262626E+00  0.0000000E+00  0.2525252E-01 -0.2626835E-11  0.0000000E+00 -0.5477424E-04
  0.1363636E+00  0.0000000E+00  0.2525252E-01 -0.2468119E-11  0.0000000E+00 -0.5477424E-04
  0.1464646E+00  0.0000000E+00  0.2525252E-01 -0.2241197E-11  0.0000000E+00 -0.5477425E-04
  0.1565657E+00  0.0000000E+00  0.2525252E-01 -0.1939722E-11  0.0000000E+00 -0.5477425E-04
  0.1666667E+00  0.0000000E+00  0.2525252E-01 -0.1570054E-11  0.0000000E+00 -0.5477425E-04
  0.1767677E+00  0.0000000E+00  0.2525252E-01 -0.1147751E-11  0.0000000E+00 -0.5477425E-04
  0.1868687E+00  0.0000000E+00  0.2525252E-01 -0.6886163E-12  0.0000000E+00 -0.5477425E-04
  0.1969697E+00  0.0000000E+00  0.2525252E-01 -0.1500303E-12  0.0000000E+00 -0.5477425E-04
  0.2070707E+00  0.0000000E+00  0.2525252E-01  0.2033003E-12  0.0000000E+00 -0.5477425E-04
  0.2171717E+00  0.0000000E+00  0.2525252E-01  0.1777038E-12  0.0000000E+00 -0.5477425E-04
  0.2272727E+00  0.0000000E+00  0.2525252E-01  0.9181084E-12  0.0000000E+00 -0.5477425E-04
  0.2373737E+00  0.0000000E+00  0.2525252E-01  0.1555071E-11  0.0000000E+00 -0.5477425E-04
  0.2474747E+00  0.0000000E+00  0.2525252E-01  0.1944553E-11  0.0000000E+00 -0.5477425E-04
  0.2575758E+00  0.0000000E+00  0.2525252E-01  0.2130836E-11  0.0000000E+00 -0.5477425E-04
  0.2676768E+00  0.0000000E+00  0.2525252E-01  0.2219162E-11  0.0000000E+00 -0.5477425E-04
  0.2777778E+00  0.0000000E+00  0.2525252E-01  0.2286053E-11  0.0000000E+00 -0.5477424E-04
  0.2878788E+00  0.0000000E+00  0.2525252E-01  0.2298971E-11  0.0000000E+00 -0.5477424E-04
  0.2979798E+00  0.0000000E+00  0.2525252E-01  0.2187738E-11  0.0000000E+00 -0.5477424E-04
  0.3080808E+00  0.0000000E+00  0.2525252E-01  0.2005594E-11  0.0000000E+00 -0.5477424E-04
  0.3181818E+00  0.0000000E+00  0.2525252E-01  0.1793984E-11  0.0000000E+00 -0.5477424E-04
  0.3282828E+00  0.0000000E+00  0.2525252E-01  0.1536922E-11  0.0000000E+00 -0.5477424E-04
  0.3383838E+00  0.0000000E+00  0.2525252E-01  0.1239374E-11  0.0000000E+00 -0.5477424E-04
  0.3484848E+00  0.0000000E+00  0.2525252E-01  0.8890505E-12  0.0000000E+00 -0.5477424E-04
  0.3585859E+00  0.0000000E+00  0.2525252E-01  0.3554763E-12  0.0000000E+00 -0.5477424E-04
  0.3686869E+00  0.0000000E+00  0.2525252E-01 -0.5193304E-13  0.0000000E+00 -0.5477424E-04
  0.3787879E+00  0.0000000E+00  0.2525252E-01 -0.1217593E-12  0.0000000E+00 -0.5477424E-04
  0.3888889E+00  0.0000000E+00  0.2525252E-01 -0.6763013E-12  0.0000000E+00 -0.5477424E-04
  0.3989899E+00  0.0000000E+00  0.2525252E-01 -0.1002562E-11  0.0000000E+00 -0.5477424E-04
  0.4090909E+00  0.0000000E+00  0.2525252E-01 -0.1472653E-11  0.0000000E+00 -0.5477424E-04
  0.4191919E+00  0.0000000E+00  0.2525252E-01 -0.1625260E-11  0.0000000E+00 -0.5477424E-04
  0.4292929E+00  0.0000000E+00  0.2525252E-01 -0.1453293E-11  0.0000000E+00 -0.5477424E-04
  0.4393939E+00  0.0000000E+00  0.2525252E-01 -0.1408793E-11  0.0000000E+00 -0.5477424E-04
  0.4494950E+00  0.0000000E+00  0.2525252E-01 -0.1460238E-11  0.0000000E+00 -0.5477424E-04
  0.4595959E+00  0.0000000E+00  0.2525252E-01 -0.1189129E-11  0.0000000E+00 -0.5477424E-04
  0.4696970E+00  0.0000000E+00  0.2525252E-01 -0.6105002E-12  0.0000000E+00 -0.5477424E-04
  0.4797980E+00  0.0000000E+00  0.2525252E-01 -0.1671018E-12  0.0000000E+00 -0.5477424E-04
  0.4898990E+00  0.0000000E+00  0.2525252E-01  0.1617646E-12  0.0000000E+00 -0.5477424E-04
  0.5000000E+00  0.0000000E+00  0.2525252E-01  0.4313849E-12  0.0000000E+00 -0.5477424E-04
  0.5101010E+00  0.0000000E+00  0.2525252E-01  0.5101108E-12  0.0000000E+00 -0.5477424E-04
  0.5202020E+00  0.0000000E+00  0.2525252E-01  0.1251848E-11  0.0000000E+00 -0.5477424E-04
  0.5303030E+00  0.0000000E+00  0.2525252E-01  0.1718742E-11  0.0000000E+00 -0.5477424E-04
  0.5404040E+00  0.0000000E+00  0.2525252E-01  0.2024116E-11  0.0000000E+00 -0.5477424E-04
  0.5505050E+00  0.0000000E+00  0.2525252E-01  0.2268350E-11  0.0000000E+00 -0.5477424E-04
  0.5606061E+00  0.0000000E+00  0.2525252E-01  0.2378116E-11  0.0000000E+00 -0.5477424E-04
  0.5707071E+00  0.0000000E+00  0.2525252E-01  0.2368868E-11  0.0000000E+00 -0.5477424E-04
  0.5808081E+00  0.0000000E+00  0.2525252E-01  0.2369044E-11  0.0000000E+00 -0.5477424E-04
  0.5909091E+00  0.0000000E+00  0.2525252E-01  0.2287788E-11  0.0000000E+00 -0.5477424E-04
  0.6010101E+00  0.0000000E+00  0.2525252E-01  0.2106281E-11  0.0000000E+00 -0.5477424E-04
  0.6111111E+00  0.0000000E+00  0.2525252E-01  0.1916392E-11  0.0000000E+00 -0.5477423E-04
  0.6212121E+00  0.0000000E+00  0.2525252E-01  0.1652873E-11  0.0000000E+00 -0.5477423E-04
  0.6313131E+00  0.0000000E+00  0.2525252E-01  0.1286692E-11  0.0000000E+00 -0.5477423E-04
  0.6414142E+00  0.0000000E+00  0.2525252E-01  0.9046694E-12  0.0000000E+00 -0.5477423E-04
  0.6515151E+00  0.0000000E+00  0.2525252E-01  0.5618785E-12  0.0000000E+00 -0.5477423E-04
  0.6616161E+00  0.0000000E+00  0.2525252E-01  0.1226123E-12  0.0000000E+00 -0.5477423E-04
  0.6717172E+00  0.0000000E+00  0.2525252E-01 -0.9039574E-13  0.0000000E+00 -0.5477423E-04
  0.6818182E+00  0.0000000E+00  0.2525252E-01 -0.7596667E-12  0.0000000E+00 -0.5477423E-04
  0.6919192E+00  0.0000000E+00  0.2525252E-01 -0.1318988E-11  0.0000000E+00 -0.5477423E-04
  0.7020202E+00  0.0000000E+00  0.2525252E-01 -0.1738931E-11  0.0000000E+00 -0.5477423E-04
  0.7121212E+00  0.0000000E+00  0.2525252E-01 -0.2104689E-11  0.0000000E+00 -0.5477423E-04
  0.7222222E+00  0.0000000E+00  0.2525252E-01 -0.2369513E-11  0.0000000E+00 -0.5477424E-04
  0.7323232E+00  0.0000000E+00  0.2525252E-01 -0.2495076E-11  0.0000000E+00 -0.5477424E-04
  0.7424242E+00  0.0000000E+00  0.2525252E-01 -0.2520855E-11  0.0000000E+00 -0.5477424E-04
  0.7525253E+00  0.0000000E+00  0.2525252E-01 -0.2593735E-11  0.0000000E+00 -0.5477424E-04
  0.7626263E+00  0.0000000E+00  0.2525252E-01 -0.2648557E-11  0.0000000E+00 -0.5477424E-04
  0.7727273E+00  0.0000000E+00  0.2525252E-01 -0.2577897E-11  0.0000000E+00 -0.5477424E-04
  0.7828283E+00  0.0000000E+00  0.2525252E-01 -0.2421511E-11  0.0000000E+00 -0.5477424E-04
  0.7929293E+00  0.0000000E+00  0.2525252E-01 -0.2247312E-11  0.0000000E+00 -0.5477424E-04
  0.8030303E+00  0.0000000E+00  0.2525252E-01 -0.2025448E-11  0.0000000E+00 -0.5477424E-04
  0.8131313E+00  0.0000000E+00  0.2525252E-01 -0.1701071E-11  0.0000000E+00 -0.5477424E-04
  0.8232324E+00  0.0000000E+00  0.2525252E-01 -0.1285631E-11  0.0000000E+00 -0.5477424E-04
  0.8333333E+00  0.0000000E+00  0.2525252E-01 -0.8557051E-12  0.0000000E+00 -0.5477425E-04
  0.8434343E+00  0.0000000E+00  0.2525252E-01 -0.4679600E-12  0.0000000E+00 -0.5477425E-04
  0.8535354E+00  0.0000000E+00  0.2525252E-01 -0.6715977E-13  0.0000000E+00 -0.5477425E-04
  0.8636364E+00  0.0000000E+00  0.2525252E-01 -0.2304566E-13  0.0000000E+00 -0.5477425E-04
  0.8737374E+00  0.0000000E+00  0.2525252E-01  0.6625106E-12  0.0000000E+00 -0.5477425E-04
  0.8838384E+00  0.0000000E+00  0.2525252E-01  0.1250096E-11  0.0000000E+00 -0.5477425E-04
  0.8939394E+00  0.0000000E+00  0.2525252E-01  0.1675298E-11  0.0000000E+00 -0.5477424E-04
  0.9040404E+00  0.0000000E+00  0.2525252E-01  0.1887558E-11  0.0000000E+00 -0.5477424E-04
  0.9141414E+00  0.0000000E+00  0.2525252E-01  0.1963972E-11  0.0000000E+00 -0.5477424E-04
  0.9242424E+00  0.0000000E+00  0.2525252E-01  0.2072133E-11  0.0000000E+00 -0.5477424E-04
  0.9343435E+00  0.0000000E+00  0.2525252E-01  0.2085474E-11  0.0000000E+00 -0.5477424E-04
  0.9444444E+00  0.0000000E+00  0.2525252E-01  0.1884897E-11  0.0000000E+00 -0.5477424E-04
  0.9545454E+00  0.0000000E+00  0.2525252E-01  0.1646530E-11  0.0000000E+00 -0.5477424E-04
  0.9646465E+00  0.0000000E+00  0.2525252E-01  0.1476270E-11  0.0000000E+00 -0.5477424E-04
  0.9747475E+00  0.0000000E+00  0.2525252E-01  0.1248865E-11  0.0000000E+00 -0.5477424E-04
  0.9848485E+00  0.0000000E+00  0.2525252E-01  0.9050585E-12  0.0000000E+00 -0.5477424E-04
  0.9974747E+00  0.0000000E+00  0.2525252E-01  0.3263445E-12  0.0000000E+00 -0.5477424E-04
  0.5050505E-02  0.0000000E+00  0.3535353E-01 -0.6271034E-13  0.0000000E+00 -0.5401650E-04
  0.1515152E-01  0.0000000E+00  0.3535353E-01  0.3026342E-13  0.0000000E+00 -0.5401650E-04
  0.2525252E-01  0.0000000E+00  0.3535353E-01 -0.1193330E-11  0.0000000E+00 -0.5401650E-04
  0.3535353E-01  0.0000000E+00  0.3535353E-01 -0.2197669E-11  0.0000000E+00 -0.5401650E-04
  0.4545455E-01  0.0000000E+00  0.3535353E-01 -0.2845054E-11  0.0000000E+00 -0.5401650E-04
  0.5555556E-01  0.0000000E+00  0.3535353E-01 -0.3279678E-11  0.0000000E+00 -0.5401650E-04
  0.6565657E-01  0.0000000E+00  0.3535353E-01 -0.3552954E-11  0.0000000E+00 -0.5401650E-04
  0.7575758E-01  0.0000000E+00  0.3535353E-01 -0.3742931E-11  0.0000000E+00 -0.5401650E-04
  0.8585858E-01  0.0000000E+00  0.3535353E-01 -0.3853471E-11  0.0000000E+00 -0.5401650E-04
  0.9595960E-01  0.0000000E+00  0.3535353E-01 -0.3900725E-11  0.0000000E+00 -0.5401650E-04
  0.1060606E+00  0.0000000E+00  0.3535353E-01 -0.3890791E-11  0.0000000E+00 -0.5401650E-04
  0.1161616E+00  0.0000000E+00  0.3535353E-01 -0.3810872E-11  0.0000000E+00 -0.5401651E-04
  0.1262626E+00  0.0000000E+00  0.3535353E-01 -0.3665239E-11  0.0000000E+00 -0.5401651E-04
  0.1363636E+00  0.0000000E+00  0.3535353E-01 -0.3442996E-11  0.0000000E+00 -0.5401651E-04
  0.1464646E+00  0.0000000E+00  0.3535353E-01 -0.3122724E-11  0.0000000E+00 -0.5401651E-04
  0.1565657E+00  0.0000000E+00  0.3535353E-01 -0.2680634E-11  0.0000000E+00 -0.5401651E-04
  0.1666667E+00  0.0000000E+00  0.3535353E-01 -0.2115960E-11  0.0000000E+00 -0.5401651E-04
  0.1767677E+00  0.0000000E+00  0.3535353E-01 -0.1461368E-11  0.0000000E+00 -0.5401651E-04
  0.1868687E+00  0.0000000E+00  0.3535353E-01 -0.7762899E-12  0.0000000E+00 -0.5401651E-04
  0.1969697E+00  0.0000000E+00  0.3535353E-01 -0.9003483E-13  0.0000000E+00 -0.5401651E-04
  0.2070707E+00  0.0000000E+00  0.3535353E-01  0.2947418E-12  0.0000000E+00 -0.5401651E-04
  0.2171717E+00  0.0000000E+00  0.3535353E-01  0.2662388E-13  0.0000000E+00 -0.5401651E-04
  0.2272727E+00  0.0000000E+00  0.3535353E-01  0.1111962E-11  0.0000000E+00 -0.5401651E-04
  0.2373737E+00  0.0000000E+00  0.3535353E-01  0.2059122E-11  0.0000000E+00 -0.5401651E-04
  0.2474747E+00  0.0000000E+00  0.3535353E-01  0.2695944E-11  0.0000000E+00 -0.5401651E-04
  0.2575758E+00  0.0000000E+00  0.3535353E-01  0.3033675E-11  0.0000000E+00 -0.5401651E-04
  0.2676768E+00  0.0000000E+00  0.3535353E-01  0.3144149E-11  0.0000000E+00 -0.5401651E-04
  0.2777778E+00  0.0000000E+00  0.3535353E-01  0.3172498E-11  0.0000000E+00 -0.5401651E-04
  0.2878788E+00  0.0000000E+00  0.3535353E-01  0.3192788E-11  0.0000000E+00 -0.5401651E-04
  0.2979798E+00  0.0000000E+00  0.3535353E-01  0.3090766E-11  0.0000000E+00 -0.5401650E-04