title = "dataset water"
variables = "x", "y", "z", "vx", "vy", "vz"
zone t = "velocities, solution time =  1.500E+01 days        " i =   99, j =   99, k =    1,  f=point
  0.5050505E-02  0.0000000E+00  0.5050505E-02  0.1091050E-12  0.0000000E+00 -0.2864367E-04
  0.1515152E-01  0.0000000E+00  0.5050505E-02  0.2374421E-12  0.0000000E+00 -0.2864367E-04
  0.2525252E-01  0.0000000E+00  0.5050505E-02  0.4044131E-12  0.0000000E+00 -0.2864367E-04
  0.3535353E-01  0.0000000E+00  0.5050505E-02  0.5179299E-12  0.0000000E+00 -0.2864367E-04
  0.4545455E-01  0.0000000E+00  0.5050505E-02  0.6594395E-12  0.0000000E+00 -0.2864366E-04
  0.5555556E-01  0.0000000E+00  0.5050505E-02  0.7793300E-12  0.0000000E+00 -0.2864366E-04
  0.6565657E-01  0.0000000E+00  0.5050505E-02  0.8868667E-12  0.0000000E+00 -0.2864366E-04
  0.7575758E-01  0.0000000E+00  0.5050505E-02  0.1082471E-11  0.0000000E+00 -0.2864366E-04
  0.8585858E-01  0.0000000E+00  0.5050505E-02  0.1161257E-11  0.0000000E+00 -0.2864366E-04
  0.9595960E-01  0.0000000E+00  0.5050505E-02  0.1249936E-11  0.0000000E+00 -0.2864365E-04
  0.1060606E+00  0.0000000E+00  0.5050505E-02  0.1410167E-11  0.0000000E+00 -0.2864365E-04
  0.1161616E+00  0.0000000E+00  0.5050505E-02  0.1524205E-11  0.0000000E+00 -0.2864365E-04
  0.1262626E+00  0.0000000E+00  0.5050505E-02  0.1607656E-11  0.0000000E+00 -0.2864365E-04
  0.1363636E+00  0.0000000E+00  0.5050505E-02  0.1708285E-11  0.0000000E+00 -0.2864364E-04
  0.1464646E+00  0.0000000E+00  0.5050505E-02  0.1814660E-11  0.0000000E+00 -0.2864364E-04
  0.1565657E+00  0.0000000E+00  0.5050505E-02  0.1907418E-11  0.0000000E+00 -0.2864364E-04
  0.1666667E+00  0.0000000E+00  0.5050505E-02  0.1988660E-11  0.0000000E+00 -0.2864363E-04
  0.1767677E+00  0.0000000E+00  0.5050505E-02  0.2065392E-11  0.0000000E+00 -0.2864363E-04
  0.1868687E+00  0.0000000E+00  0.5050505E-02  0.2137595E-11  0.0000000E+00 -0.2864362E-04
  0.1969697E+00  0.0000000E+00  0.5050505E-02  0.2201811E-11  0.0000000E+00 -0.2864362E-04
  0.2070707E+00  0.0000000E+00  0.5050505E-02  0.2256160E-11  0.0000000E+00 -0.2864361E-04
  0.2171717E+00  0.0000000E+00  0.5050505E-02  0.2300602E-11  0.0000000E+00 -0.2864361E-04
  0.2272727E+00  0.0000000E+00  0.5050505E-02  0.2335253E-11  0.0000000E+00 -0.2864361E-04
  0.2373737E+00  0.0000000E+00  0.5050505E-02  0.2359676E-11  0.0000000E+00 -0.2864360E-04
  0.2474747E+00  0.0000000E+00  0.5050505E-02  0.2373261E-11  0.0000000E+00 -0.2864360E-04
  0.2575758E+00  0.0000000E+00  0.5050505E-02  0.2375617E-11  0.0000000E+00 -0.2864359E-04
  0.2676768E+00  0.0000000E+00  0.5050505E-02  0.2366705E-11  0.0000000E+00 -0.2864359E-04
  0.2777778E+00  0.0000000E+00  0.5050505E-02  0.2346669E-11  0.0000000E+00 -0.2864358E-04
  0.2878788E+00  0.0000000E+00  0.5050505E-02  0.2315745E-11  0.0000000E+00 -0.2864358E-04
  0.2979798E+00  0.0000000E+00  0.5050505E-02  0.2274217E-11  0.0000000E+00 -0.2864357E-04
  0.3080808E+00  0.0000000E+00  0.5050505E-02  0.2222446E-11  0.0000000E+00 -0.2864357E-04
  0.3181818E+00  0.0000000E+00  0.5050505E-02  0.2160843E-11  0.0000000E+00 -0.2864356E-04
  0.3282828E+00  0.0000000E+00  0.5050505E-02  0.2089867E-11  0.0000000E+00 -0.2864356E-04
  0.3383838E+00  0.0000000E+00  0.5050505E-02  0.2009986E-11  0.0000000E+00 -0.2864355E-04
  0.3484848E+00  0.0000000E+00  0.5050505E-02  0.1921656E-11  0.0000000E+00 -0.2864355E-04
  0.3585859E+00  0.0000000E+00  0.5050505E-02  0.1825276E-11  0.0000000E+00 -0.2864355E-04
  0.3686869E+00  0.0000000E+00  0.5050505E-02  0.1721209E-11  0.0000000E+00 -0.2864354E-04
  0.3787879E+00  0.0000000E+00  0.5050505E-02  0.1609767E-11  0.0000000E+00 -0.2864354E-04
  0.3888889E+00  0.0000000E+00  0.5050505E-02  0.1491229E-11  0.0000000E+00 -0.2864354E-04
  0.3989899E+00  0.0000000E+00  0.5050505E-02  0.1365878E-11  0.0000000E+00 -0.2864353E-04
  0.4090909E+00  0.0000000E+00  0.5050505E-02  0.1234038E-11  0.0000000E+00 -0.2864353E-04
  0.4191919E+00  0.0000000E+00  0.5050505E-02  0.1096069E-11  0.0000000E+00 -0.2864353E-04
  0.4292929E+00  0.0000000E+00  0.5050505E-02  0.9524779E-12  0.0000000E+00 -0.2864353E-04
  0.4393939E+00  0.0000000E+00  0.5050505E-02  0.8041276E-12  0.0000000E+00 -0.2864353E-04
  0.4494950E+00  0.0000000E+00  0.5050505E-02  0.6524565E-12  0.0000000E+00 -0.2864352E-04
  0.4595959E+00  0.0000000E+00  0.5050505E-02  0.4990327E-12  0.0000000E+00 -0.2864352E-04
  0.4696970E+00  0.0000000E+00  0.5050505E-02  0.3458854E-12  0.0000000E+00 -0.2864352E-04
  0.4797980E+00  0.0000000E+00  0.5050505E-02  0.1952005E-12  0.0000000E+00 -0.2864352E-04
  0.4898990E+00  0.0000000E+00  0.5050505E-02  0.4308544E-13  0.0000000E+00 -0.2864352E-04
  0.5000000E+00  0.0000000E+00  0.5050505E-02 -0.2105213E-12  0.0000000E+00 -0.2864352E-04
  0.5101010E+00  0.0000000E+00  0.5050505E-02 -0.3797495E-12  0.0000000E+00 -0.2864352E-04
  0.5202020E+00  0.0000000E+00  0.5050505E-02 -0.5319504E-12  0.0000000E+00 -0.2864352E-04
  0.5303030E+00  0.0000000E+00  0.5050505E-02 -0.6972296E-12  0.0000000E+00 -0.2864352E-04
  0.5404040E+00  0.0000000E+00  0.5050505E-02 -0.8504816E-12  0.0000000E+00 -0.2864353E-04
  0.5505050E+00  0.0000000E+00  0.5050505E-02 -0.9526663E-12  0.0000000E+00 -0.2864353E-04
  0.5606061E+00  0.0000000E+00  0.5050505E-02 -0.1142042E-11  0.0000000E+00 -0.2864353E-04
  0.5707071E+00  0.0000000E+00  0.5050505E-02 -0.1265797E-11  0.0000000E+00 -0.2864353E-04
  0.5808081E+00  0.0000000E+00  0.5050505E-02 -0.1393065E-11  0.0000000E+00 -0.2864353E-04
  0.5909091E+00  0.0000000E+00  0.5050505E-02 -0.1549460E-11  0.0000000E+00 -0.2864354E-04
  0.6010101E+00  0.0000000E+00  0.5050505E-02 -0.1661092E-11  0.0000000E+00 -0.2864354E-04
  0.6111111E+00  0.0000000E+00  0.5050505E-02 -0.1758247E-11  0.0000000E+00 -0.2864354E-04
  0.6212121E+00  0.0000000E+00  0.5050505E-02 -0.1870166E-11  0.0000000E+00 -0.2864355E-04
  0.6313131E+00  0.0000000E+00  0.5050505E-02 -0.1979108E-11  0.0000000E+00 -0.2864355E-04
  0.6414142E+00  0.0000000E+00  0.5050505E-02 -0.2070204E-11  0.0000000E+00 -0.2864356E-04
  0.6515151E+00  0.0000000E+00  0.5050505E-02 -0.2147905E-11  0.0000000E+00 -0.2864356E-04
  0.6616161E+00  0.0000000E+00  0.5050505E-02 -0.2218941E-11  0.0000000E+00 -0.2864356E-04
  0.6717172E+00  0.0000000E+00  0.5050505E-02 -0.2283307E-11  0.0000000E+00 -0.2864357E-04
  0.6818182E+00  0.0000000E+00  0.5050505E-02 -0.2338134E-11  0.0000000E+00 -0.2864357E-04
  0.6919192E+00  0.0000000E+00  0.5050505E-02 -0.2382097E-11  0.0000000E+00 -0.2864358E-04
  0.7020202E+00  0.0000000E+00  0.5050505E-02 -0.2415511E-11  0.0000000E+00 -0.2864358E-04
  0.7121212E+00  0.0000000E+00  0.5050505E-02 -0.2438912E-11  0.0000000E+00 -0.2864359E-04
  0.7222222E+00  0.0000000E+00  0.5050505E-02 -0.2452407E-11  0.0000000E+00 -0.2864359E-04
  0.7323232E+00  0.0000000E+00  0.5050505E-02 -0.2455927E-11  0.0000000E+00 -0.2864360E-04
  0.7424242E+00  0.0000000E+00  0.5050505E-02 -0.2449509E-11  0.0000000E+00 -0.2864360E-04
  0.7525253E+00  0.0000000E+00  0.5050505E-02 -0.2433426E-11  0.0000000E+00 -0.2864361E-04
  0.7626263E+00  0.0000000E+00  0.5050505E-02 -0.2408007E-11  0.0000000E+00 -0.2864361E-04
  0.7727273E+00  0.0000000E+00  0.5050505E-02 -0.2373600E-11  0.0000000E+00 -0.2864362E-04
  0.7828283E+00  0.0000000E+00  0.5050505E-02 -0.2330542E-11  0.0000000E+00 -0.2864362E-04
  0.7929293E+00  0.0000000E+00  0.5050505E-02 -0.2279159E-11  0.0000000E+00 -0.2864363E-04
  0.8030303E+00  0.0000000E+00  0.5050505E-02 -0.2219802E-11  0.0000000E+00 -0.2864363E-04
  0.8131313E+00  0.0000000E+00  0.5050505E-02 -0.2152838E-11  0.0000000E+00 -0.2864364E-04
  0.8232324E+00  0.0000000E+00  0.5050505E-02 -0.2078650E-11  0.0000000E+00 -0.2864364E-04
  0.8333333E+00  0.0000000E+00  0.5050505E-02 -0.1997643E-11  0.0000000E+00 -0.2864364E-04
  0.8434343E+00  0.0000000E+00  0.5050505E-02 -0.1910213E-11  0.0000000E+00 -0.2864365E-04
  0.8535354E+00  0.0000000E+00  0.5050505E-02 -0.1816779E-11  0.0000000E+00 -0.2864365E-04
  0.8636364E+00  0.0000000E+00  0.5050505E-02 -0.1717760E-11  0.0000000E+00 -0.2864366E-04
  0.8737374E+00  0.0000000E+00  0.5050505E-02 -0.1613578E-11  0.0000000E+00 -0.2864366E-04
  0.8838384E+00  0.0000000E+00  0.5050505E-02 -0.1504609E-11  0.0000000E+00 -0.2864366E-04
  0.8939394E+00  0.0000000E+00  0.5050505E-02 -0.1391197E-11  0.0000000E+00 -0.2864366E-04
  0.9040404E+00  0.0000000E+00  0.5050505E-02 -0.1273647E-11  0.0000000E+00 -0.2864367E-04
  0.9141414E+00  0.0000000E+00  0.5050505E-02 -0.1152281E-11  0.0000000E+00 -0.2864367E-04
  0.9242424E+00  0.0000000E+00  0.5050505E-02 -0.1027352E-11  0.0000000E+00 -0.2864367E-04
  0.9343435E+00  0.0000000E+00  0.5050505E-02 -0.8989755E-12  0.0000000E+00 -0.2864367E-04
  0.9444444E+00  0.0000000E+00  0.5050505E-02 -0.7672149E-12  0.0000000E+00 -0.2864368E-04
  0.9545454E+00  0.0000000E+00  0.5050505E-02 -0.6325564E-12  0.0000000E+00 -0.2864368E-04
  0.9646465E+00  0.0000000E+00  0.5050505E-02 -0.4955297E-12  0.0000000E+00 -0.2864368E-04
  0.9747475E+00  0.0000000E+00  0.5050505E-02 -0.3564239E-12  0.0000000E+00 -0.2864368E-04
  0.9848485E+00  0.0000000E+00  0.5050505E-02 -0.2199018E-12  0.0000000E+00 -0.2864368E-04
  0.9974747E+00  0.0000000E+00  0.5050505E-02 -0.3635995E-13  0.0000000E+00 -0.2864368E-04
  0.5050505E-02  0.0000000E+00  0.1515152E-01  0.2935055E-12  0.0000000E+00 -0.2856283E-04
  0.1515152E-01  0.0000000E+00  0.1515152E-01  0.6635184E-12  0.0000000E+00 -0.2856283E-04
  0.2525252E-01  0.0000000E+00  0.1515152E-01  0.1184273E-11  0.0000000E+00 -0.2856283E-04
  0.3535353E-01  0.0000000E+00  0.1515152E-01  0.1544272E-11  0.0000000E+00 -0.2856283E-04
  0.4545455E-01  0.0000000E+00  0.1515152E-01  0.1953997E-11  0.0000000E+00 -0.2856283E-04
  0.5555556E-01  0.0000000E+00  0.1515152E-01  0.2389137E-11  0.0000000E+00 -0.2856283E-04
  0.6565657E-01  0.0000000E+00  0.1515152E-01  0.2682924E-11  0.0000000E+00 -0.2856283E-04
  0.7575758E-01  0.0000000E+00  0.1515152E-01  0.3205558E-11  0.0000000E+00 -0.2856282E-04
  0.8585858E-01  0.0000000E+00  0.1515152E-01  0.3515311E-11  0.0000000E+00 -0.2856282E-04
  0.9595960E-01  0.0000000E+00  0.1515152E-01  0.3798808E-11  0.0000000E+00 -0.2856282E-04
  0.1060606E+00  0.0000000E+00  0.1515152E-01  0.4231481E-11  0.0000000E+00 -0.2856282E-04
  0.1161616E+00  0.0000000E+00  0.1515152E-01  0.4576600E-11  0.0000000E+00 -0.2856281E-04
  0.1262626E+00  0.0000000E+00  0.1515152E-01  0.4851325E-11  0.0000000E+00 -0.2856281E-04
  0.1363636E+00  0.0000000E+00  0.1515152E-01  0.5154553E-11  0.0000000E+00 -0.2856281E-04
  0.1464646E+00  0.0000000E+00  0.1515152E-01  0.5465562E-11  0.0000000E+00 -0.2856280E-04
  0.1565657E+00  0.0000000E+00  0.1515152E-01  0.5743584E-11  0.0000000E+00 -0.2856280E-04
  0.1666667E+00  0.0000000E+00  0.1515152E-01  0.5991963E-11  0.0000000E+00 -0.2856280E-04
  0.1767677E+00  0.0000000E+00  0.1515152E-01  0.6224847E-11  0.0000000E+00 -0.2856279E-04
  0.1868687E+00  0.0000000E+00  0.1515152E-01  0.6441585E-11  0.0000000E+00 -0.2856279E-04
  0.1969697E+00  0.0000000E+00  0.1515152E-01  0.6634081E-11  0.0000000E+00 -0.2856278E-04
  0.2070707E+00  0.0000000E+00  0.1515152E-01  0.6797724E-11  0.0000000E+00 -0.2856278E-04
  0.2171717E+00  0.0000000E+00  0.1515152E-01  0.6931926E-11  0.0000000E+00 -0.2856277E-04
  0.2272727E+00  0.0000000E+00  0.1515152E-01  0.7036446E-11  0.0000000E+00 -0.2856277E-04
  0.2373737E+00  0.0000000E+00  0.1515152E-01  0.7109927E-11  0.0000000E+00 -0.2856276E-04
  0.2474747E+00  0.0000000E+00  0.1515152E-01  0.7150691E-11  0.0000000E+00 -0.2856276E-04
  0.2575758E+00  0.0000000E+00  0.1515152E-01  0.7157719E-11  0.0000000E+00 -0.2856276E-04
  0.2676768E+00  0.0000000E+00  0.1515152E-01  0.7130876E-11  0.0000000E+00 -0.2856275E-04
  0.2777778E+00  0.0000000E+00  0.1515152E-01  0.7070553E-11  0.0000000E+00 -0.2856275E-04
  0.2878788E+00  0.0000000E+00  0.1515152E-01  0.6977428E-11  0.0000000E+00 -0.2856274E-04
  0.2979798E+00  0.0000000E+00  0.1515152E-01  0.6852365E-11  0.0000000E+00 -0.2856274E-04
  0.3080808E+00  0.0000000E+00  0.1515152E-01  0.6696448E-11  0.0000000E+00 -0.2856273E-04
  0.3181818E+00  0.0000000E+00  0.1515152E-01  0.6510927E-11  0.0000000E+00 -0.2856273E-04
  0.3282828E+00  0.0000000E+00  0.1515152E-01  0.6297178E-11  0.0000000E+00 -0.2856272E-04
  0.3383838E+00  0.0000000E+00  0.1515152E-01  0.6056602E-11  0.0000000E+00 -0.2856272E-04
  0.3484848E+00  0.0000000E+00  0.1515152E-01  0.5790535E-11  0.0000000E+00 -0.2856271E-04
  0.3585859E+00  0.0000000E+00  0.1515152E-01  0.5500194E-11  0.0000000E+00 -0.2856271E-04
  0.3686869E+00  0.0000000E+00  0.1515152E-01  0.5186656E-11  0.0000000E+00 -0.2856271E-04
  0.3787879E+00  0.0000000E+00  0.1515152E-01  0.4850867E-11  0.0000000E+00 -0.2856270E-04
  0.3888889E+00  0.0000000E+00  0.1515152E-01  0.4493608E-11  0.0000000E+00 -0.2856270E-04
  0.3989899E+00  0.0000000E+00  0.1515152E-01  0.4115688E-11  0.0000000E+00 -0.2856270E-04
  0.4090909E+00  0.0000000E+00  0.1515152E-01  0.3718087E-11  0.0000000E+00 -0.2856270E-04
  0.4191919E+00  0.0000000E+00  0.1515152E-01  0.3302039E-11  0.0000000E+00 -0.2856269E-04
  0.4292929E+00  0.0000000E+00  0.1515152E-01  0.2868996E-11  0.0000000E+00 -0.2856269E-04
  0.4393939E+00  0.0000000E+00  0.1515152E-01  0.2421212E-11  0.0000000E+00 -0.2856269E-04
  0.4494950E+00  0.0000000E+00  0.1515152E-01  0.1962931E-11  0.0000000E+00 -0.2856269E-04
  0.4595959E+00  0.0000000E+00  0.1515152E-01  0.1499108E-11  0.0000000E+00 -0.2856269E-04
  0.4696970E+00  0.0000000E+00  0.1515152E-01  0.1034949E-11  0.0000000E+00 -0.2856269E-04
  0.4797980E+00  0.0000000E+00  0.1515152E-01  0.5778604E-12  0.0000000E+00 -0.2856268E-04
  0.4898990E+00  0.0000000E+00  0.1515152E-01  0.1016953E-12  0.0000000E+00 -0.2856268E-04
  0.5000000E+00  0.0000000E+00  0.1515152E-01 -0.6350346E-12  0.0000000E+00 -0.2856268E-04
  0.5101010E+00  0.0000000E+00  0.1515152E-01 -0.1140052E-11  0.0000000E+00 -0.2856269E-04
  0.5202020E+00  0.0000000E+00  0.1515152E-01 -0.1585513E-11  0.0000000E+00 -0.2856269E-04
  0.5303030E+00  0.0000000E+00  0.1515152E-01 -0.2054053E-11  0.0000000E+00 -0.2856269E-04
  0.5404040E+00  0.0000000E+00  0.1515152E-01 -0.2561434E-11  0.0000000E+00 -0.2856269E-04
  0.5505050E+00  0.0000000E+00  0.1515152E-01 -0.2904882E-11  0.0000000E+00 -0.2856269E-04
  0.5606061E+00  0.0000000E+00  0.1515152E-01 -0.3443396E-11  0.0000000E+00 -0.2856269E-04
  0.5707071E+00  0.0000000E+00  0.1515152E-01 -0.3810368E-11  0.0000000E+00 -0.2856270E-04
  0.5808081E+00  0.0000000E+00  0.1515152E-01 -0.4188556E-11  0.0000000E+00 -0.2856270E-04
  0.5909091E+00  0.0000000E+00  0.1515152E-01 -0.4656787E-11  0.0000000E+00 -0.2856270E-04
  0.6010101E+00  0.0000000E+00  0.1515152E-01 -0.5013273E-11  0.0000000E+00 -0.2856270E-04
  0.6111111E+00  0.0000000E+00  0.1515152E-01 -0.5312421E-11  0.0000000E+00 -0.2856271E-04
  0.6212121E+00  0.0000000E+00  0.1515152E-01 -0.5636731E-11  0.0000000E+00 -0.2856271E-04
  0.6313131E+00  0.0000000E+00  0.1515152E-01 -0.5956323E-11  0.0000000E+00 -0.2856272E-04
  0.6414142E+00  0.0000000E+00  0.1515152E-01 -0.6233778E-11  0.0000000E+00 -0.2856272E-04
  0.6515151E+00  0.0000000E+00  0.1515152E-01 -0.6473426E-11  0.0000000E+00 -0.2856272E-04
  0.6616161E+00  0.0000000E+00  0.1515152E-01 -0.6689004E-11  0.0000000E+00 -0.2856273E-04
  0.6717172E+00  0.0000000E+00  0.1515152E-01 -0.6881461E-11  0.0000000E+00 -0.2856273E-04
  0.6818182E+00  0.0000000E+00  0.1515152E-01 -0.7045183E-11  0.0000000E+00 -0.2856274E-04
  0.6919192E+00  0.0000000E+00  0.1515152E-01 -0.7177214E-11  0.0000000E+00 -0.2856274E-04
  0.7020202E+00  0.0000000E+00  0.1515152E-01 -0.7278002E-11  0.0000000E+00 -0.2856275E-04
  0.7121212E+00  0.0000000E+00  0.1515152E-01 -0.7348531E-11  0.0000000E+00 -0.2856275E-04
  0.7222222E+00  0.0000000E+00  0.1515152E-01 -0.7389021E-11  0.0000000E+00 -0.2856276E-04
  0.7323232E+00  0.0000000E+00  0.1515152E-01 -0.7399373E-11  0.0000000E+00 -0.2856276E-04
  0.7424242E+00  0.0000000E+00  0.1515152E-01 -0.7379868E-11  0.0000000E+00 -0.2856277E-04
  0.7525253E+00  0.0000000E+00  0.1515152E-01 -0.7331290E-11  0.0000000E+00 -0.2856277E-04
  0.7626263E+00  0.0000000E+00  0.1515152E-01 -0.7254619E-11  0.0000000E+00 -0.2856278E-04
  0.7727273E+00  0.0000000E+00  0.1515152E-01 -0.7150878E-11  0.0000000E+00 -0.2856278E-04
  0.7828283E+00  0.0000000E+00  0.1515152E-01 -0.7021056E-11  0.0000000E+00 -0.2856279E-04
  0.7929293E+00  0.0000000E+00  0.1515152E-01 -0.6866150E-11  0.0000000E+00 -0.2856279E-04
  0.8030303E+00  0.0000000E+00  0.1515152E-01 -0.6687229E-11  0.0000000E+00 -0.2856280E-04
  0.8131313E+00  0.0000000E+00  0.1515152E-01 -0.6485391E-11  0.0000000E+00 -0.2856280E-04
  0.8232324E+00  0.0000000E+00  0.1515152E-01 -0.6261805E-11  0.0000000E+00 -0.2856281E-04
  0.8333333E+00  0.0000000E+00  0.1515152E-01 -0.6017666E-11  0.0000000E+00 -0.2856281E-04
  0.8434343E+00  0.0000000E+00  0.1515152E-01 -0.5754185E-11  0.0000000E+00 -0.2856281E-04
  0.8535354E+00  0.0000000E+00  0.1515152E-01 -0.5472619E-11  0.0000000E+00 -0.2856282E-04
  0.8636364E+00  0.0000000E+00  0.1515152E-01 -0.5174243E-11  0.0000000E+00 -0.2856282E-04
  0.8737374E+00  0.0000000E+00  0.1515152E-01 -0.4860322E-11  0.0000000E+00 -0.2856282E-04
  0.8838384E+00  0.0000000E+00  0.1515152E-01 -0.4532045E-11  0.0000000E+00 -0.2856283E-04
  0.8939394E+00  0.0000000E+00  0.1515152E-01 -0.4190424E-11  0.0000000E+00 -0.2856283E-04
  0.9040404E+00  0.0000000E+00  0.1515152E-01 -0.3836286E-11  0.0000000E+00 -0.2856283E-04
  0.9141414E+00  0.0000000E+00  0.1515152E-01 -0.3470452E-11  0.0000000E+00 -0.2856284E-04
  0.9242424E+00  0.0000000E+00  0.1515152E-01 -0.3093815E-11  0.0000000E+00 -0.2856284E-04
  0.9343435E+00  0.0000000E+00  0.1515152E-01 -0.2706891E-11  0.0000000E+00 -0.2856284E-04
  0.9444444E+00  0.0000000E+00  0.1515152E-01 -0.2309606E-11  0.0000000E+00 -0.2856284E-04
  0.9545454E+00  0.0000000E+00  0.1515152E-01 -0.1903136E-11  0.0000000E+00 -0.2856284E-04
  0.9646465E+00  0.0000000E+00  0.1515152E-01 -0.1489509E-11  0.0000000E+00 -0.2856284E-04
  0.9747475E+00  0.0000000E+00  0.1515152E-01 -0.1065271E-11  0.0000000E+00 -0.2856284E-04
  0.9848485E+00  0.0000000E+00  0.1515152E-01 -0.6306107E-12  0.0000000E+00 -0.2856285E-04
  0.9974747E+00  0.0000000E+00  0.1515152E-01 -0.1780502E-12  0.0000000E+00 -0.2856285E-04
  0.5050505E-02  0.0000000E+00  0.2525252E-01  0.4480500E-12  0.0000000E+00 -0.2840188E-04
  0.1515152E-01  0.0000000E+00  0.2525252E-01  0.1052656E-11  0.0000000E+00 -0.2840188E-04
  0.2525252E-01  0.0000000E+00  0.2525252E-01  0.1894182E-11  0.0000000E+00 -0.2840188E-04
  0.3535353E-01  0.0000000E+00  0.2525252E-01  0.2603271E-11  0.0000000E+00 -0.2840188E-04
  0.4545455E-01  0.0000000E+00  0.2525252E-01  0.3235035E-11  0.0000000E+00 -0.2840188E-04
  0.5555556E-01  0.0000000E+00  0.2525252E-01  0.4031657E-11  0.0000000E+00 -0.2840187E-04
  0.6565657E-01  0.0000000E+00  0.2525252E-01  0.4549387E-11  0.0000000E+00 -0.2840187E-04
  0.7575758E-01  0.0000000E+00  0.2525252E-01  0.5324209E-11  0.0000000E+00 -0.2840187E-04
  0.8585858E-01  0.0000000E+00  0.2525252E-01  0.5920813E-11  0.0000000E+00 -0.2840187E-04
  0.9595960E-01  0.0000000E+00  0.2525252E-01  0.6434216E-11  0.0000000E+00 -0.2840187E-04
  0.1060606E+00  0.0000000E+00  0.2525252E-01  0.7097143E-11  0.0000000E+00 -0.2840186E-04
  0.1161616E+00  0.0000000E+00  0.2525252E-01  0.7676175E-11  0.0000000E+00 -0.2840186E-04
  0.1262626E+00  0.0000000E+00  0.2525252E-01  0.8170342E-11  0.0000000E+00 -0.2840186E-04
  0.1363636E+00  0.0000000E+00  0.2525252E-01  0.8681056E-11  0.0000000E+00 -0.2840185E-04
  0.1464646E+00  0.0000000E+00  0.2525252E-01  0.9190825E-11  0.0000000E+00 -0.2840185E-04
  0.1565657E+00  0.0000000E+00  0.2525252E-01  0.9656550E-11  0.0000000E+00 -0.2840185E-04
  0.1666667E+00  0.0000000E+00  0.2525252E-01  0.1007976E-10  0.0000000E+00 -0.2840184E-04
  0.1767677E+00  0.0000000E+00  0.2525252E-01  0.1047395E-10  0.0000000E+00 -0.2840184E-04
  0.1868687E+00  0.0000000E+00  0.2525252E-01  0.1083715E-10  0.0000000E+00 -0.2840183E-04
  0.1969697E+00  0.0000000E+00  0.2525252E-01  0.1115939E-10  0.0000000E+00 -0.2840183E-04
  0.2070707E+00  0.0000000E+00  0.2525252E-01  0.1143444E-10  0.0000000E+00 -0.2840182E-04
  0.2171717E+00  0.0000000E+00  0.2525252E-01  0.1166056E-10  0.0000000E+00 -0.2840182E-04
  0.2272727E+00  0.0000000E+00  0.2525252E-01  0.1183647E-10  0.0000000E+00 -0.2840181E-04
  0.2373737E+00  0.0000000E+00  0.2525252E-01  0.1195983E-10  0.0000000E+00 -0.2840181E-04
  0.2474747E+00  0.0000000E+00  0.2525252E-01  0.1202814E-10  0.0000000E+00 -0.2840180E-04
  0.2575758E+00  0.0000000E+00  0.2525252E-01  0.1203990E-10  0.0000000E+00 -0.2840180E-04
  0.2676768E+00  0.0000000E+00  0.2525252E-01  0.1199487E-10  0.0000000E+00 -0.2840179E-04
  0.2777778E+00  0.0000000E+00  0.2525252E-01  0.1189360E-10  0.0000000E+00 -0.2840179E-04
  0.2878788E+00  0.0000000E+00  0.2525252E-01  0.1173720E-10  0.0000000E+00 -0.2840178E-04
  0.2979798E+00  0.0000000E+00  0.2525252E-01  0.1152710E-10  0.0000000E+00 -0.2840178E-04
  0.3080808E+00  0.0000000E+00  0.2525252E-01  0.1126513E-10  0.0000000E+00 -0.2840177E-04
  0.3181818E+00  0.0000000E+00  0.2525252E-01  0.1095339E-10  0.0000000E+00 -0.2840177E-04
  0.3282828E+00  0.0000000E+00  0.2525252E-01  0.1059416E-10  0.0000000E+00 -0.2840177E-04
  0.3383838E+00  0.0000000E+00  0.2525252E-01  0.1018978E-10  0.0000000E+00 -0.2840176E-04
  0.3484848E+00  0.0000000E+00  0.2525252E-01  0.9742419E-11  0.0000000E+00 -0.2840176E-04
  0.3585859E+00  0.0000000E+00  0.2525252E-01  0.9254131E-11  0.0000000E+00 -0.2840175E-04
  0.3686869E+00  0.0000000E+00  0.2525252E-01  0.8726718E-11  0.0000000E+00 -0.2840175E-04
  0.3787879E+00  0.0000000E+00  0.2525252E-01  0.8161776E-11  0.0000000E+00 -0.2840175E-04
  0.3888889E+00  0.0000000E+00  0.2525252E-01  0.7560581E-11  0.0000000E+00 -0.2840174E-04
  0.3989899E+00  0.0000000E+00  0.2525252E-01  0.6924265E-11  0.0000000E+00 -0.2840174E-04
  0.4090909E+00  0.0000000E+00  0.2525252E-01  0.6254260E-11  0.0000000E+00 -0.2840174E-04
  0.4191919E+00  0.0000000E+00  0.2525252E-01  0.5552865E-11  0.0000000E+00 -0.2840173E-04
  0.4292929E+00  0.0000000E+00  0.2525252E-01  0.4822872E-11  0.0000000E+00 -0.2840173E-04
  0.4393939E+00  0.0000000E+00  0.2525252E-01  0.4067349E-11  0.0000000E+00 -0.2840173E-04
  0.4494950E+00  0.0000000E+00  0.2525252E-01  0.3292617E-11  0.0000000E+00 -0.2840173E-04
  0.4595959E+00  0.0000000E+00  0.2525252E-01  0.2507237E-11  0.0000000E+00 -0.2840173E-04
  0.4696970E+00  0.0000000E+00  0.2525252E-01  0.1712999E-11  0.0000000E+00 -0.2840173E-04
  0.4797980E+00  0.0000000E+00  0.2525252E-01  0.9264292E-12  0.0000000E+00 -0.2840173E-04
  0.4898990E+00  0.0000000E+00  0.2525252E-01  0.1134100E-12  0.0000000E+00 -0.2840173E-04
  0.5000000E+00  0.0000000E+00  0.2525252E-01 -0.1037119E-11  0.0000000E+00 -0.2840173E-04
  0.5101010E+00  0.0000000E+00  0.2525252E-01 -0.1888883E-11  0.0000000E+00 -0.2840173E-04
  0.5202020E+00  0.0000000E+00  0.2525252E-01 -0.2654689E-11  0.0000000E+00 -0.2840173E-04
  0.5303030E+00  0.0000000E+00  0.2525252E-01 -0.3393833E-11  0.0000000E+00 -0.2840173E-04
  0.5404040E+00  0.0000000E+00  0.2525252E-01 -0.4275207E-11  0.0000000E+00 -0.2840173E-04
  0.5505050E+00  0.0000000E+00  0.2525252E-01 -0.4918177E-11  0.0000000E+00 -0.2840173E-04
  0.5606061E+00  0.0000000E+00  0.2525252E-01 -0.5808200E-11  0.0000000E+00 -0.2840173E-04
  0.5707071E+00  0.0000000E+00  0.2525252E-01 -0.6434122E-11  0.0000000E+00 -0.2840174E-04
  0.5808081E+00  0.0000000E+00  0.2525252E-01 -0.7036985E-11  0.0000000E+00 -0.2840174E-04
  0.5909091E+00  0.0000000E+00  0.2525252E-01 -0.7796787E-11  0.0000000E+00 -0.2840174E-04
  0.6010101E+00  0.0000000E+00  0.2525252E-01 -0.8436180E-11  0.0000000E+00 -0.2840175E-04
  0.6111111E+00  0.0000000E+00  0.2525252E-01 -0.8966509E-11  0.0000000E+00 -0.2840175E-04
  0.6212121E+00  0.0000000E+00  0.2525252E-01 -0.9496048E-11  0.0000000E+00 -0.2840175E-04
  0.6313131E+00  0.0000000E+00  0.2525252E-01 -0.1001436E-10  0.0000000E+00 -0.2840176E-04
  0.6414142E+00  0.0000000E+00  0.2525252E-01 -0.1048039E-10  0.0000000E+00 -0.2840176E-04
  0.6515151E+00  0.0000000E+00  0.2525252E-01 -0.1089085E-10  0.0000000E+00 -0.2840177E-04
  0.6616161E+00  0.0000000E+00  0.2525252E-01 -0.1125673E-10  0.0000000E+00 -0.2840177E-04
  0.6717172E+00  0.0000000E+00  0.2525252E-01 -0.1157901E-10  0.0000000E+00 -0.2840178E-04
  0.6818182E+00  0.0000000E+00  0.2525252E-01 -0.1185227E-10  0.0000000E+00 -0.2840178E-04
  0.6919192E+00  0.0000000E+00  0.2525252E-01 -0.1207341E-10  0.0000000E+00 -0.2840179E-04
  0.7020202E+00  0.0000000E+00  0.2525252E-01 -0.1224272E-10  0.0000000E+00 -0.2840179E-04
  0.7121212E+00  0.0000000E+00  0.2525252E-01 -0.1236102E-10  0.0000000E+00 -0.2840180E-04
  0.7222222E+00  0.0000000E+00  0.2525252E-01 -0.1242853E-10  0.0000000E+00 -0.2840180E-04
  0.7323232E+00  0.0000000E+00  0.2525252E-01 -0.1244530E-10  0.0000000E+00 -0.2840181E-04
  0.7424242E+00  0.0000000E+00  0.2525252E-01 -0.1241199E-10  0.0000000E+00 -0.2840181E-04
  0.7525253E+00  0.0000000E+00  0.2525252E-01 -0.1232990E-10  0.0000000E+00 -0.2840182E-04
  0.7626263E+00  0.0000000E+00  0.2525252E-01 -0.1220061E-10  0.0000000E+00 -0.2840182E-04
  0.7727273E+00  0.0000000E+00  0.2525252E-01 -0.1202582E-10  0.0000000E+00 -0.2840183E-04
  0.7828283E+00  0.0000000E+00  0.2525252E-01 -0.1180715E-10  0.0000000E+00 -0.2840183E-04
  0.7929293E+00  0.0000000E+00  0.2525252E-01 -0.1154630E-10  0.0000000E+00 -0.2840184E-04
  0.8030303E+00  0.0000000E+00  0.2525252E-01 -0.1124508E-10  0.0000000E+00 -0.2840184E-04
  0.8131313E+00  0.0000000E+00  0.2525252E-01 -0.1090533E-10  0.0000000E+00 -0.2840185E-04
  0.8232324E+00  0.0000000E+00  0.2525252E-01 -0.1052903E-10  0.0000000E+00 -0.2840185E-04
  0.8333333E+00  0.0000000E+00  0.2525252E-01 -0.1011818E-10  0.0000000E+00 -0.2840185E-04
  0.8434343E+00  0.0000000E+00  0.2525252E-01 -0.9674836E-11  0.0000000E+00 -0.2840186E-04
  0.8535354E+00  0.0000000E+00  0.2525252E-01 -0.9201107E-11  0.0000000E+00 -0.2840186E-04
  0.8636364E+00  0.0000000E+00  0.2525252E-01 -0.8699112E-11  0.0000000E+00 -0.2840187E-04
  0.8737374E+00  0.0000000E+00  0.2525252E-01 -0.8170968E-11  0.0000000E+00 -0.2840187E-04
  0.8838384E+00  0.0000000E+00  0.2525252E-01 -0.7618781E-11  0.0000000E+00 -0.2840187E-04
  0.8939394E+00  0.0000000E+00  0.2525252E-01 -0.7044383E-11  0.0000000E+00 -0.2840188E-04
  0.9040404E+00  0.0000000E+00  0.2525252E-01 -0.6449050E-11  0.0000000E+00 -0.2840188E-04
  0.9141414E+00  0.0000000E+00  0.2525252E-01 -0.5833690E-11  0.0000000E+00 -0.2840188E-04
  0.9242424E+00  0.0000000E+00  0.2525252E-01 -0.5199572E-11  0.0000000E+00 -0.2840188E-04
  0.9343435E+00  0.0000000E+00  0.2525252E-01 -0.4548016E-11  0.0000000E+00 -0.2840189E-04
  0.9444444E+00  0.0000000E+00  0.2525252E-01 -0.3878574E-11  0.0000000E+00 -0.2840189E-04
  0.9545454E+00  0.0000000E+00  0.2525252E-01 -0.3191986E-11  0.0000000E+00 -0.2840189E-04
  0.9646465E+00  0.0000000E+00  0.2525252E-01 -0.2494055E-11  0.0000000E+00 -0.2840189E-04
  0.9747475E+00  0.0000000E+00  0.2525252E-01 -0.1779257E-11  0.0000000E+00 -0.2840189E-04
  0.9848485E+00  0.0000000E+00  0.2525252E-01 -0.1034199E-11  0.0000000E+00 -0.2840189E-04
  0.9974747E+00  0.0000000E+00  0.2525252E-01 -0.3379495E-12  0.0000000E+00 -0.2840189E-04
  0.5050505E-02  0.0000000E+00  0.3535353E-01  0.5863089E-12  0.0000000E+00 -0.2816192E-04
  0.1515152E-01  0.0000000E+00  0.3535353E-01  0.1457445E-11  0.0000000E+00 -0.2816192E-04
  0.2525252E-01  0.0000000E+00  0.3535353E-01  0.2564336E-11  0.0000000E+00 -0.2816192E-04
  0.3535353E-01  0.0000000E+00  0.3535353E-01  0.3696813E-11  0.0000000E+00 -0.2816192E-04
  0.4545455E-01  0.0000000E+00  0.3535353E-01  0.4575210E-11  0.0000000E+00 -0.2816192E-04
  0.5555556E-01  0.0000000E+00  0.3535353E-01  0.5681470E-11  0.0000000E+00 -0.2816192E-04
  0.6565657E-01  0.0000000E+00  0.3535353E-01  0.6497729E-11  0.0000000E+00 -0.2816191E-04
  0.7575758E-01  0.0000000E+00  0.3535353E-01  0.7532599E-11  0.0000000E+00 -0.2816191E-04
  0.8585858E-01  0.0000000E+00  0.3535353E-01  0.8396797E-11  0.0000000E+00 -0.2816191E-04
  0.9595960E-01  0.0000000E+00  0.3535353E-01  0.9163593E-11  0.0000000E+00 -0.2816191E-04
  0.1060606E+00  0.0000000E+00  0.3535353E-01  0.1007103E-10  0.0000000E+00 -0.2816190E-04
  0.1161616E+00  0.0000000E+00  0.3535353E-01  0.1088848E-10  0.0000000E+00 -0.2816190E-04
  0.1262626E+00  0.0000000E+00  0.3535353E-01  0.1160989E-10  0.0000000E+00 -0.2816190E-04
  0.1363636E+00  0.0000000E+00  0.3535353E-01  0.1233656E-10  0.0000000E+00 -0.2816189E-04
  0.1464646E+00  0.0000000E+00  0.3535353E-01  0.1305222E-10  0.0000000E+00 -0.2816189E-04
  0.1565657E+00  0.0000000E+00  0.3535353E-01  0.1371263E-10  0.0000000E+00 -0.2816188E-04
  0.1666667E+00  0.0000000E+00  0.3535353E-01  0.1431748E-10  0.0000000E+00 -0.2816188E-04
  0.1767677E+00  0.0000000E+00  0.3535353E-01  0.1487887E-10  0.0000000E+00 -0.2816188E-04
  0.1868687E+00  0.0000000E+00  0.3535353E-01  0.1539350E-10  0.0000000E+00 -0.2816187E-04
  0.1969697E+00  0.0000000E+00  0.3535353E-01  0.1584988E-10  0.0000000E+00 -0.2816187E-04
  0.2070707E+00  0.0000000E+00  0.3535353E-01  0.1624024E-10  0.0000000E+00 -0.2816186E-04
  0.2171717E+00  0.0000000E+00  0.3535353E-01  0.1656147E-10  0.0000000E+00 -0.2816186E-04
  0.2272727E+00  0.0000000E+00  0.3535353E-01  0.1681119E-10  0.0000000E+00 -0.2816185E-04
  0.2373737E+00  0.0000000E+00  0.3535353E-01  0.1698608E-10  0.0000000E+00 -0.2816185E-04
  0.2474747E+00  0.0000000E+00  0.3535353E-01  0.1708294E-10  0.0000000E+00 -0.2816184E-04
  0.2575758E+00  0.0000000E+00  0.3535353E-01  0.1709980E-10  0.0000000E+00 -0.2816184E-04
  0.2676768E+00  0.0000000E+00  0.3535353E-01  0.1703624E-10  0.0000000E+00 -0.2816183E-04
  0.2777778E+00  0.0000000E+00  0.3535353E-01  0.1689298E-10  0.0000000E+00 -0.2816183E-04
  0.2878788E+00  0.0000000E+00  0.3535353E-01  0.1667147E-10  0.0000000E+00 -0.2816182E-04
  0.2979798E+00  0.0000000E+00  0.3535353E-01  0.1637376E-10  0.0000000E+00 -0.2816182E-04