title = "dataset water"
variables = "x", "y", "z", "vx", "vy", "vz"
zone t = "velocities, solution time =  1.900E+01 days        " i =   99, j =   99, k =    1,  f=point
  0.5050505E-02  0.0000000E+00  0.5050505E-02  0.3655395E-12  0.0000000E+00 -0.1967554E-04
  0.1515152E-01  0.0000000E+00  0.5050505E-02  0.1384584E-11  0.0000000E+00 -0.1967553E-04
  0.2525252E-01  0.0000000E+00  0.5050505E-02  0.2347560E-11  0.0000000E+00 -0.1967553E-04
  0.3535353E-01  0.0000000E+00  0.5050505E-02  0.3306040E-11  0.0000000E+00 -0.1967552E-04
  0.4545455E-01  0.0000000E+00  0.5050505E-02  0.4273389E-11  0.0000000E+00 -0.1967552E-04
  0.5555556E-01  0.0000000E+00  0.5050505E-02  0.5200516E-11  0.0000000E+00 -0.1967551E-04
  0.6565657E-01  0.0000000E+00  0.5050505E-02  0.6033168E-11  0.0000000E+00 -0.1967550E-04
  0.7575758E-01  0.0000000E+00  0.5050505E-02  0.6981854E-11  0.0000000E+00 -0.1967548E-04
  0.8585858E-01  0.0000000E+00  0.5050505E-02  0.7883377E-11  0.0000000E+00 -0.1967547E-04
  0.9595960E-01  0.0000000E+00  0.5050505E-02  0.8671252E-11  0.0000000E+00 -0.1967545E-04
  0.1060606E+00  0.0000000E+00  0.5050505E-02  0.9471284E-11  0.0000000E+00 -0.1967543E-04
  0.1161616E+00  0.0000000E+00  0.5050505E-02  0.1026908E-10  0.0000000E+00 -0.1967541E-04
  0.1262626E+00  0.0000000E+00  0.5050505E-02  0.1100433E-10  0.0000000E+00 -0.1967539E-04
  0.1363636E+00  0.0000000E+00  0.5050505E-02  0.1167669E-10  0.0000000E+00 -0.1967537E-04
  0.1464646E+00  0.0000000E+00  0.5050505E-02  0.1230495E-10  0.0000000E+00 -0.1967535E-04
  0.1565657E+00  0.0000000E+00  0.5050505E-02  0.1288812E-10  0.0000000E+00 -0.1967532E-04
  0.1666667E+00  0.0000000E+00  0.5050505E-02  0.1341463E-10  0.0000000E+00 -0.1967529E-04
  0.1767677E+00  0.0000000E+00  0.5050505E-02  0.1387840E-10  0.0000000E+00 -0.1967527E-04
  0.1868687E+00  0.0000000E+00  0.5050505E-02  0.1427987E-10  0.0000000E+00 -0.1967524E-04
  0.1969697E+00  0.0000000E+00  0.5050505E-02  0.1462054E-10  0.0000000E+00 -0.1967521E-04
  0.2070707E+00  0.0000000E+00  0.5050505E-02  0.1490023E-10  0.0000000E+00 -0.1967518E-04
  0.2171717E+00  0.0000000E+00  0.5050505E-02  0.1511792E-10  0.0000000E+00 -0.1967515E-04
  0.2272727E+00  0.0000000E+00  0.5050505E-02  0.1527314E-10  0.0000000E+00 -0.1967512E-04
  0.2373737E+00  0.0000000E+00  0.5050505E-02  0.1536614E-10  0.0000000E+00 -0.1967509E-04
  0.2474747E+00  0.0000000E+00  0.5050505E-02  0.1539740E-10  0.0000000E+00 -0.1967506E-04
  0.2575758E+00  0.0000000E+00  0.5050505E-02  0.1536705E-10  0.0000000E+00 -0.1967503E-04
  0.2676768E+00  0.0000000E+00  0.5050505E-02  0.1527473E-10  0.0000000E+00 -0.1967500E-04
  0.2777778E+00  0.0000000E+00  0.5050505E-02  0.1511963E-10  0.0000000E+00 -0.1967497E-04
  0.2878788E+00  0.0000000E+00  0.5050505E-02  0.1490078E-10  0.0000000E+00 -0.1967494E-04
  0.2979798E+00  0.0000000E+00  0.5050505E-02  0.1461719E-10  0.0000000E+00 -0.1967491E-04
  0.3080808E+00  0.0000000E+00  0.5050505E-02  0.1426800E-10  0.0000000E+00 -0.1967488E-04
  0.3181818E+00  0.0000000E+00  0.5050505E-02  0.1385270E-10  0.0000000E+00 -0.1967485E-04
  0.3282828E+00  0.0000000E+00  0.5050505E-02  0.1337127E-10  0.0000000E+00 -0.1967482E-04
  0.3383838E+00  0.0000000E+00  0.5050505E-02  0.1282437E-10  0.0000000E+00 -0.1967480E-04
  0.3484848E+00  0.0000000E+00  0.5050505E-02  0.1221348E-10  0.0000000E+00 -0.1967477E-04
  0.3585859E+00  0.0000000E+00  0.5050505E-02  0.1154096E-10  0.0000000E+00 -0.1967475E-04
  0.3686869E+00  0.0000000E+00  0.5050505E-02  0.1081002E-10  0.0000000E+00 -0.1967472E-04
  0.3787879E+00  0.0000000E+00  0.5050505E-02  0.1002465E-10  0.0000000E+00 -0.1967470E-04
  0.3888889E+00  0.0000000E+00  0.5050505E-02  0.9189515E-11  0.0000000E+00 -0.1967468E-04
  0.3989899E+00  0.0000000E+00  0.5050505E-02  0.8309736E-11  0.0000000E+00 -0.1967467E-04
  0.4090909E+00  0.0000000E+00  0.5050505E-02  0.7390782E-11  0.0000000E+00 -0.1967465E-04
  0.4191919E+00  0.0000000E+00  0.5050505E-02  0.6438266E-11  0.0000000E+00 -0.1967464E-04
  0.4292929E+00  0.0000000E+00  0.5050505E-02  0.5457891E-11  0.0000000E+00 -0.1967462E-04
  0.4393939E+00  0.0000000E+00  0.5050505E-02  0.4455381E-11  0.0000000E+00 -0.1967462E-04
  0.4494950E+00  0.0000000E+00  0.5050505E-02  0.3435897E-11  0.0000000E+00 -0.1967461E-04
  0.4595959E+00  0.0000000E+00  0.5050505E-02  0.2403923E-11  0.0000000E+00 -0.1967460E-04
  0.4696970E+00  0.0000000E+00  0.5050505E-02  0.1364582E-11  0.0000000E+00 -0.1967460E-04
  0.4797980E+00  0.0000000E+00  0.5050505E-02  0.3228045E-12  0.0000000E+00 -0.1967460E-04
  0.4898990E+00  0.0000000E+00  0.5050505E-02 -0.7859074E-12  0.0000000E+00 -0.1967460E-04
  0.5000000E+00  0.0000000E+00  0.5050505E-02 -0.1840513E-11  0.0000000E+00 -0.1967460E-04
  0.5101010E+00  0.0000000E+00  0.5050505E-02 -0.2875541E-11  0.0000000E+00 -0.1967460E-04
  0.5202020E+00  0.0000000E+00  0.5050505E-02 -0.3908864E-11  0.0000000E+00 -0.1967461E-04
  0.5303030E+00  0.0000000E+00  0.5050505E-02 -0.4953275E-11  0.0000000E+00 -0.1967462E-04
  0.5404040E+00  0.0000000E+00  0.5050505E-02 -0.5978623E-11  0.0000000E+00 -0.1967463E-04
  0.5505050E+00  0.0000000E+00  0.5050505E-02 -0.6904620E-11  0.0000000E+00 -0.1967464E-04
  0.5606061E+00  0.0000000E+00  0.5050505E-02 -0.7925400E-11  0.0000000E+00 -0.1967466E-04
  0.5707071E+00  0.0000000E+00  0.5050505E-02 -0.8901142E-11  0.0000000E+00 -0.1967467E-04
  0.5808081E+00  0.0000000E+00  0.5050505E-02 -0.9765118E-11  0.0000000E+00 -0.1967469E-04
  0.5909091E+00  0.0000000E+00  0.5050505E-02 -0.1062770E-10  0.0000000E+00 -0.1967471E-04
  0.6010101E+00  0.0000000E+00  0.5050505E-02 -0.1147600E-10  0.0000000E+00 -0.1967474E-04
  0.6111111E+00  0.0000000E+00  0.5050505E-02 -0.1225713E-10  0.0000000E+00 -0.1967476E-04
  0.6212121E+00  0.0000000E+00  0.5050505E-02 -0.1296977E-10  0.0000000E+00 -0.1967479E-04
  0.6313131E+00  0.0000000E+00  0.5050505E-02 -0.1362947E-10  0.0000000E+00 -0.1967481E-04
  0.6414142E+00  0.0000000E+00  0.5050505E-02 -0.1423524E-10  0.0000000E+00 -0.1967484E-04
  0.6515151E+00  0.0000000E+00  0.5050505E-02 -0.1477714E-10  0.0000000E+00 -0.1967487E-04
  0.6616161E+00  0.0000000E+00  0.5050505E-02 -0.1525002E-10  0.0000000E+00 -0.1967490E-04
  0.6717172E+00  0.0000000E+00  0.5050505E-02 -0.1565456E-10  0.0000000E+00 -0.1967493E-04
  0.6818182E+00  0.0000000E+00  0.5050505E-02 -0.1599264E-10  0.0000000E+00 -0.1967496E-04
  0.6919192E+00  0.0000000E+00  0.5050505E-02 -0.1626495E-10  0.0000000E+00 -0.1967499E-04
  0.7020202E+00  0.0000000E+00  0.5050505E-02 -0.1647175E-10  0.0000000E+00 -0.1967503E-04
  0.7121212E+00  0.0000000E+00  0.5050505E-02 -0.1661396E-10  0.0000000E+00 -0.1967506E-04
  0.7222222E+00  0.0000000E+00  0.5050505E-02 -0.1669339E-10  0.0000000E+00 -0.1967509E-04
  0.7323232E+00  0.0000000E+00  0.5050505E-02 -0.1671221E-10  0.0000000E+00 -0.1967513E-04
  0.7424242E+00  0.0000000E+00  0.5050505E-02 -0.1667239E-10  0.0000000E+00 -0.1967516E-04
  0.7525253E+00  0.0000000E+00  0.5050505E-02 -0.1657545E-10  0.0000000E+00 -0.1967519E-04
  0.7626263E+00  0.0000000E+00  0.5050505E-02 -0.1642247E-10  0.0000000E+00 -0.1967523E-04
  0.7727273E+00  0.0000000E+00  0.5050505E-02 -0.1621413E-10  0.0000000E+00 -0.1967526E-04
  0.7828283E+00  0.0000000E+00  0.5050505E-02 -0.1595087E-10  0.0000000E+00 -0.1967529E-04
  0.7929293E+00  0.0000000E+00  0.5050505E-02 -0.1563290E-10  0.0000000E+00 -0.1967532E-04
  0.8030303E+00  0.0000000E+00  0.5050505E-02 -0.1526032E-10  0.0000000E+00 -0.1967535E-04
  0.8131313E+00  0.0000000E+00  0.5050505E-02 -0.1483334E-10  0.0000000E+00 -0.1967538E-04
  0.8232324E+00  0.0000000E+00  0.5050505E-02 -0.1435236E-10  0.0000000E+00 -0.1967541E-04
  0.8333333E+00  0.0000000E+00  0.5050505E-02 -0.1381827E-10  0.0000000E+00 -0.1967544E-04
  0.8434343E+00  0.0000000E+00  0.5050505E-02 -0.1323242E-10  0.0000000E+00 -0.1967547E-04
  0.8535354E+00  0.0000000E+00  0.5050505E-02 -0.1259683E-10  0.0000000E+00 -0.1967550E-04
  0.8636364E+00  0.0000000E+00  0.5050505E-02 -0.1191409E-10  0.0000000E+00 -0.1967552E-04
  0.8737374E+00  0.0000000E+00  0.5050505E-02 -0.1118735E-10  0.0000000E+00 -0.1967554E-04
  0.8838384E+00  0.0000000E+00  0.5050505E-02 -0.1042025E-10  0.0000000E+00 -0.1967556E-04
  0.8939394E+00  0.0000000E+00  0.5050505E-02 -0.9616778E-11  0.0000000E+00 -0.1967558E-04
  0.9040404E+00  0.0000000E+00  0.5050505E-02 -0.8781219E-11  0.0000000E+00 -0.1967560E-04
  0.9141414E+00  0.0000000E+00  0.5050505E-02 -0.7918018E-11  0.0000000E+00 -0.1967562E-04
  0.9242424E+00  0.0000000E+00  0.5050505E-02 -0.7031681E-11  0.0000000E+00 -0.1967563E-04
  0.9343435E+00  0.0000000E+00  0.5050505E-02 -0.6126640E-11  0.0000000E+00 -0.1967565E-04
  0.9444444E+00  0.0000000E+00  0.5050505E-02 -0.5207211E-11  0.0000000E+00 -0.1967566E-04
  0.9545454E+00  0.0000000E+00  0.5050505E-02 -0.4277811E-11  0.0000000E+00 -0.1967567E-04
  0.9646465E+00  0.0000000E+00  0.5050505E-02 -0.3343053E-11  0.0000000E+00 -0.1967568E-04
  0.9747475E+00  0.0000000E+00  0.5050505E-02 -0.2407644E-11  0.0000000E+00 -0.1967568E-04
  0.9848485E+00  0.0000000E+00  0.5050505E-02 -0.1480443E-11  0.0000000E+00 -0.1967569E-04
  0.9974747E+00  0.0000000E+00  0.5050505E-02 -0.5897810E-12  0.0000000E+00 -0.1967569E-04
  0.5050505E-02  0.0000000E+00  0.1515152E-01  0.1229124E-11  0.0000000E+00 -0.1963328E-04
  0.1515152E-01  0.0000000E+00  0.1515152E-01  0.4139806E-11  0.0000000E+00 -0.1963327E-04
  0.2525252E-01  0.0000000E+00  0.1515152E-01  0.7098123E-11  0.0000000E+00 -0.1963327E-04
  0.3535353E-01  0.0000000E+00  0.1515152E-01  0.9964104E-11  0.0000000E+00 -0.1963326E-04
  0.4545455E-01  0.0000000E+00  0.1515152E-01  0.1279541E-10  0.0000000E+00 -0.1963326E-04
  0.5555556E-01  0.0000000E+00  0.1515152E-01  0.1564441E-10  0.0000000E+00 -0.1963325E-04
  0.6565657E-01  0.0000000E+00  0.1515152E-01  0.1822066E-10  0.0000000E+00 -0.1963324E-04
  0.7575758E-01  0.0000000E+00  0.1515152E-01  0.2099068E-10  0.0000000E+00 -0.1963322E-04
  0.8585858E-01  0.0000000E+00  0.1515152E-01  0.2368162E-10  0.0000000E+00 -0.1963321E-04
  0.9595960E-01  0.0000000E+00  0.1515152E-01  0.2610751E-10  0.0000000E+00 -0.1963319E-04
  0.1060606E+00  0.0000000E+00  0.1515152E-01  0.2851979E-10  0.0000000E+00 -0.1963317E-04
  0.1161616E+00  0.0000000E+00  0.1515152E-01  0.3089457E-10  0.0000000E+00 -0.1963315E-04
  0.1262626E+00  0.0000000E+00  0.1515152E-01  0.3310145E-10  0.0000000E+00 -0.1963313E-04
  0.1363636E+00  0.0000000E+00  0.1515152E-01  0.3513426E-10  0.0000000E+00 -0.1963311E-04
  0.1464646E+00  0.0000000E+00  0.1515152E-01  0.3702936E-10  0.0000000E+00 -0.1963308E-04
  0.1565657E+00  0.0000000E+00  0.1515152E-01  0.3878130E-10  0.0000000E+00 -0.1963306E-04
  0.1666667E+00  0.0000000E+00  0.1515152E-01  0.4036235E-10  0.0000000E+00 -0.1963303E-04
  0.1767677E+00  0.0000000E+00  0.1515152E-01  0.4175755E-10  0.0000000E+00 -0.1963300E-04
  0.1868687E+00  0.0000000E+00  0.1515152E-01  0.4296694E-10  0.0000000E+00 -0.1963297E-04
  0.1969697E+00  0.0000000E+00  0.1515152E-01  0.4399306E-10  0.0000000E+00 -0.1963295E-04
  0.2070707E+00  0.0000000E+00  0.1515152E-01  0.4483500E-10  0.0000000E+00 -0.1963292E-04
  0.2171717E+00  0.0000000E+00  0.1515152E-01  0.4549031E-10  0.0000000E+00 -0.1963288E-04
  0.2272727E+00  0.0000000E+00  0.1515152E-01  0.4595798E-10  0.0000000E+00 -0.1963285E-04
  0.2373737E+00  0.0000000E+00  0.1515152E-01  0.4623884E-10  0.0000000E+00 -0.1963282E-04
  0.2474747E+00  0.0000000E+00  0.1515152E-01  0.4633408E-10  0.0000000E+00 -0.1963279E-04
  0.2575758E+00  0.0000000E+00  0.1515152E-01  0.4624388E-10  0.0000000E+00 -0.1963276E-04
  0.2676768E+00  0.0000000E+00  0.1515152E-01  0.4596700E-10  0.0000000E+00 -0.1963273E-04
  0.2777778E+00  0.0000000E+00  0.1515152E-01  0.4550105E-10  0.0000000E+00 -0.1963270E-04
  0.2878788E+00  0.0000000E+00  0.1515152E-01  0.4484306E-10  0.0000000E+00 -0.1963267E-04
  0.2979798E+00  0.0000000E+00  0.1515152E-01  0.4399003E-10  0.0000000E+00 -0.1963264E-04
  0.3080808E+00  0.0000000E+00  0.1515152E-01  0.4293940E-10  0.0000000E+00 -0.1963261E-04
  0.3181818E+00  0.0000000E+00  0.1515152E-01  0.4168962E-10  0.0000000E+00 -0.1963258E-04
  0.3282828E+00  0.0000000E+00  0.1515152E-01  0.4024065E-10  0.0000000E+00 -0.1963255E-04
  0.3383838E+00  0.0000000E+00  0.1515152E-01  0.3859458E-10  0.0000000E+00 -0.1963253E-04
  0.3484848E+00  0.0000000E+00  0.1515152E-01  0.3675590E-10  0.0000000E+00 -0.1963250E-04
  0.3585859E+00  0.0000000E+00  0.1515152E-01  0.3473177E-10  0.0000000E+00 -0.1963248E-04
  0.3686869E+00  0.0000000E+00  0.1515152E-01  0.3253191E-10  0.0000000E+00 -0.1963245E-04
  0.3787879E+00  0.0000000E+00  0.1515152E-01  0.3016835E-10  0.0000000E+00 -0.1963243E-04
  0.3888889E+00  0.0000000E+00  0.1515152E-01  0.2765507E-10  0.0000000E+00 -0.1963241E-04
  0.3989899E+00  0.0000000E+00  0.1515152E-01  0.2500755E-10  0.0000000E+00 -0.1963240E-04
  0.4090909E+00  0.0000000E+00  0.1515152E-01  0.2224223E-10  0.0000000E+00 -0.1963238E-04
  0.4191919E+00  0.0000000E+00  0.1515152E-01  0.1937588E-10  0.0000000E+00 -0.1963237E-04
  0.4292929E+00  0.0000000E+00  0.1515152E-01  0.1642548E-10  0.0000000E+00 -0.1963235E-04
  0.4393939E+00  0.0000000E+00  0.1515152E-01  0.1340857E-10  0.0000000E+00 -0.1963234E-04
  0.4494950E+00  0.0000000E+00  0.1515152E-01  0.1034137E-10  0.0000000E+00 -0.1963234E-04
  0.4595959E+00  0.0000000E+00  0.1515152E-01  0.7235212E-11  0.0000000E+00 -0.1963233E-04
  0.4696970E+00  0.0000000E+00  0.1515152E-01  0.4103673E-11  0.0000000E+00 -0.1963233E-04
  0.4797980E+00  0.0000000E+00  0.1515152E-01  0.9592218E-12  0.0000000E+00 -0.1963232E-04
  0.4898990E+00  0.0000000E+00  0.1515152E-01 -0.2355099E-11  0.0000000E+00 -0.1963232E-04
  0.5000000E+00  0.0000000E+00  0.1515152E-01 -0.5516826E-11  0.0000000E+00 -0.1963233E-04
  0.5101010E+00  0.0000000E+00  0.1515152E-01 -0.8663386E-11  0.0000000E+00 -0.1963233E-04
  0.5202020E+00  0.0000000E+00  0.1515152E-01 -0.1178241E-10  0.0000000E+00 -0.1963234E-04
  0.5303030E+00  0.0000000E+00  0.1515152E-01 -0.1485630E-10  0.0000000E+00 -0.1963235E-04
  0.5404040E+00  0.0000000E+00  0.1515152E-01 -0.1798375E-10  0.0000000E+00 -0.1963236E-04
  0.5505050E+00  0.0000000E+00  0.1515152E-01 -0.2083734E-10  0.0000000E+00 -0.1963237E-04
  0.5606061E+00  0.0000000E+00  0.1515152E-01 -0.2383677E-10  0.0000000E+00 -0.1963239E-04
  0.5707071E+00  0.0000000E+00  0.1515152E-01 -0.2675181E-10  0.0000000E+00 -0.1963240E-04
  0.5808081E+00  0.0000000E+00  0.1515152E-01 -0.2940014E-10  0.0000000E+00 -0.1963242E-04
  0.5909091E+00  0.0000000E+00  0.1515152E-01 -0.3200100E-10  0.0000000E+00 -0.1963244E-04
  0.6010101E+00  0.0000000E+00  0.1515152E-01 -0.3453136E-10  0.0000000E+00 -0.1963247E-04
  0.6111111E+00  0.0000000E+00  0.1515152E-01 -0.3687654E-10  0.0000000E+00 -0.1963249E-04
  0.6212121E+00  0.0000000E+00  0.1515152E-01 -0.3902876E-10  0.0000000E+00 -0.1963252E-04
  0.6313131E+00  0.0000000E+00  0.1515152E-01 -0.4101748E-10  0.0000000E+00 -0.1963254E-04
  0.6414142E+00  0.0000000E+00  0.1515152E-01 -0.4283734E-10  0.0000000E+00 -0.1963257E-04
  0.6515151E+00  0.0000000E+00  0.1515152E-01 -0.4446447E-10  0.0000000E+00 -0.1963260E-04
  0.6616161E+00  0.0000000E+00  0.1515152E-01 -0.4588632E-10  0.0000000E+00 -0.1963263E-04
  0.6717172E+00  0.0000000E+00  0.1515152E-01 -0.4710389E-10  0.0000000E+00 -0.1963266E-04
  0.6818182E+00  0.0000000E+00  0.1515152E-01 -0.4812114E-10  0.0000000E+00 -0.1963269E-04
  0.6919192E+00  0.0000000E+00  0.1515152E-01 -0.4893985E-10  0.0000000E+00 -0.1963273E-04
  0.7020202E+00  0.0000000E+00  0.1515152E-01 -0.4956128E-10  0.0000000E+00 -0.1963276E-04
  0.7121212E+00  0.0000000E+00  0.1515152E-01 -0.4998868E-10  0.0000000E+00 -0.1963279E-04
  0.7222222E+00  0.0000000E+00  0.1515152E-01 -0.5022756E-10  0.0000000E+00 -0.1963283E-04
  0.7323232E+00  0.0000000E+00  0.1515152E-01 -0.5028426E-10  0.0000000E+00 -0.1963286E-04
  0.7424242E+00  0.0000000E+00  0.1515152E-01 -0.5016451E-10  0.0000000E+00 -0.1963290E-04
  0.7525253E+00  0.0000000E+00  0.1515152E-01 -0.4987282E-10  0.0000000E+00 -0.1963293E-04
  0.7626263E+00  0.0000000E+00  0.1515152E-01 -0.4941240E-10  0.0000000E+00 -0.1963296E-04
  0.7727273E+00  0.0000000E+00  0.1515152E-01 -0.4878535E-10  0.0000000E+00 -0.1963300E-04
  0.7828283E+00  0.0000000E+00  0.1515152E-01 -0.4799293E-10  0.0000000E+00 -0.1963303E-04
  0.7929293E+00  0.0000000E+00  0.1515152E-01 -0.4703573E-10  0.0000000E+00 -0.1963306E-04
  0.8030303E+00  0.0000000E+00  0.1515152E-01 -0.4591411E-10  0.0000000E+00 -0.1963309E-04
  0.8131313E+00  0.0000000E+00  0.1515152E-01 -0.4462865E-10  0.0000000E+00 -0.1963312E-04
  0.8232324E+00  0.0000000E+00  0.1515152E-01 -0.4318068E-10  0.0000000E+00 -0.1963315E-04
  0.8333333E+00  0.0000000E+00  0.1515152E-01 -0.4157286E-10  0.0000000E+00 -0.1963318E-04
  0.8434343E+00  0.0000000E+00  0.1515152E-01 -0.3980940E-10  0.0000000E+00 -0.1963321E-04
  0.8535354E+00  0.0000000E+00  0.1515152E-01 -0.3789636E-10  0.0000000E+00 -0.1963323E-04
  0.8636364E+00  0.0000000E+00  0.1515152E-01 -0.3584161E-10  0.0000000E+00 -0.1963326E-04
  0.8737374E+00  0.0000000E+00  0.1515152E-01 -0.3365464E-10  0.0000000E+00 -0.1963328E-04
  0.8838384E+00  0.0000000E+00  0.1515152E-01 -0.3134641E-10  0.0000000E+00 -0.1963330E-04
  0.8939394E+00  0.0000000E+00  0.1515152E-01 -0.2892893E-10  0.0000000E+00 -0.1963332E-04
  0.9040404E+00  0.0000000E+00  0.1515152E-01 -0.2641502E-10  0.0000000E+00 -0.1963334E-04
  0.9141414E+00  0.0000000E+00  0.1515152E-01 -0.2381799E-10  0.0000000E+00 -0.1963336E-04
  0.9242424E+00  0.0000000E+00  0.1515152E-01 -0.2115135E-10  0.0000000E+00 -0.1963338E-04
  0.9343435E+00  0.0000000E+00  0.1515152E-01 -0.1842835E-10  0.0000000E+00 -0.1963339E-04
  0.9444444E+00  0.0000000E+00  0.1515152E-01 -0.1566173E-10  0.0000000E+00 -0.1963340E-04
  0.9545454E+00  0.0000000E+00  0.1515152E-01 -0.1286450E-10  0.0000000E+00 -0.1963341E-04
  0.9646465E+00  0.0000000E+00  0.1515152E-01 -0.1005015E-10  0.0000000E+00 -0.1963342E-04
  0.9747475E+00  0.0000000E+00  0.1515152E-01 -0.7228907E-11  0.0000000E+00 -0.1963342E-04
  0.9848485E+00  0.0000000E+00  0.1515152E-01 -0.4417048E-11  0.0000000E+00 -0.1963343E-04
  0.9974747E+00  0.0000000E+00  0.1515152E-01 -0.1673899E-11  0.0000000E+00 -0.1963343E-04
  0.5050505E-02  0.0000000E+00  0.2525252E-01  0.2251455E-11  0.0000000E+00 -0.1954902E-04
  0.1515152E-01  0.0000000E+00  0.2525252E-01  0.6965373E-11  0.0000000E+00 -0.1954902E-04
  0.2525252E-01  0.0000000E+00  0.2525252E-01  0.1192078E-10  0.0000000E+00 -0.1954901E-04
  0.3535353E-01  0.0000000E+00  0.2525252E-01  0.1676075E-10  0.0000000E+00 -0.1954901E-04
  0.4545455E-01  0.0000000E+00  0.2525252E-01  0.2142369E-10  0.0000000E+00 -0.1954900E-04
  0.5555556E-01  0.0000000E+00  0.2525252E-01  0.2621656E-10  0.0000000E+00 -0.1954899E-04
  0.6565657E-01  0.0000000E+00  0.2525252E-01  0.3064810E-10  0.0000000E+00 -0.1954898E-04
  0.7575758E-01  0.0000000E+00  0.2525252E-01  0.3520263E-10  0.0000000E+00 -0.1954897E-04
  0.8585858E-01  0.0000000E+00  0.2525252E-01  0.3967692E-10  0.0000000E+00 -0.1954895E-04
  0.9595960E-01  0.0000000E+00  0.2525252E-01  0.4381841E-10  0.0000000E+00 -0.1954893E-04
  0.1060606E+00  0.0000000E+00  0.2525252E-01  0.4787311E-10  0.0000000E+00 -0.1954891E-04
  0.1161616E+00  0.0000000E+00  0.2525252E-01  0.5182066E-10  0.0000000E+00 -0.1954889E-04
  0.1262626E+00  0.0000000E+00  0.2525252E-01  0.5551523E-10  0.0000000E+00 -0.1954887E-04
  0.1363636E+00  0.0000000E+00  0.2525252E-01  0.5893964E-10  0.0000000E+00 -0.1954885E-04
  0.1464646E+00  0.0000000E+00  0.2525252E-01  0.6212522E-10  0.0000000E+00 -0.1954882E-04
  0.1565657E+00  0.0000000E+00  0.2525252E-01  0.6505962E-10  0.0000000E+00 -0.1954880E-04
  0.1666667E+00  0.0000000E+00  0.2525252E-01  0.6770733E-10  0.0000000E+00 -0.1954877E-04
  0.1767677E+00  0.0000000E+00  0.2525252E-01  0.7004827E-10  0.0000000E+00 -0.1954874E-04
  0.1868687E+00  0.0000000E+00  0.2525252E-01  0.7208013E-10  0.0000000E+00 -0.1954871E-04
  0.1969697E+00  0.0000000E+00  0.2525252E-01  0.7380410E-10  0.0000000E+00 -0.1954868E-04
  0.2070707E+00  0.0000000E+00  0.2525252E-01  0.7521813E-10  0.0000000E+00 -0.1954865E-04
  0.2171717E+00  0.0000000E+00  0.2525252E-01  0.7631912E-10  0.0000000E+00 -0.1954862E-04
  0.2272727E+00  0.0000000E+00  0.2525252E-01  0.7710611E-10  0.0000000E+00 -0.1954859E-04
  0.2373737E+00  0.0000000E+00  0.2525252E-01  0.7758043E-10  0.0000000E+00 -0.1954856E-04
  0.2474747E+00  0.0000000E+00  0.2525252E-01  0.7774352E-10  0.0000000E+00 -0.1954852E-04
  0.2575758E+00  0.0000000E+00  0.2525252E-01  0.7759525E-10  0.0000000E+00 -0.1954849E-04
  0.2676768E+00  0.0000000E+00  0.2525252E-01  0.7713328E-10  0.0000000E+00 -0.1954846E-04
  0.2777778E+00  0.0000000E+00  0.2525252E-01  0.7635354E-10  0.0000000E+00 -0.1954843E-04
  0.2878788E+00  0.0000000E+00  0.2525252E-01  0.7525106E-10  0.0000000E+00 -0.1954840E-04
  0.2979798E+00  0.0000000E+00  0.2525252E-01  0.7382074E-10  0.0000000E+00 -0.1954837E-04
  0.3080808E+00  0.0000000E+00  0.2525252E-01  0.7205831E-10  0.0000000E+00 -0.1954834E-04
  0.3181818E+00  0.0000000E+00  0.2525252E-01  0.6996121E-10  0.0000000E+00 -0.1954831E-04
  0.3282828E+00  0.0000000E+00  0.2525252E-01  0.6752953E-10  0.0000000E+00 -0.1954828E-04
  0.3383838E+00  0.0000000E+00  0.2525252E-01  0.6476689E-10  0.0000000E+00 -0.1954825E-04
  0.3484848E+00  0.0000000E+00  0.2525252E-01  0.6168104E-10  0.0000000E+00 -0.1954823E-04
  0.3585859E+00  0.0000000E+00  0.2525252E-01  0.5828413E-10  0.0000000E+00 -0.1954820E-04
  0.3686869E+00  0.0000000E+00  0.2525252E-01  0.5459257E-10  0.0000000E+00 -0.1954818E-04
  0.3787879E+00  0.0000000E+00  0.2525252E-01  0.5062653E-10  0.0000000E+00 -0.1954816E-04
  0.3888889E+00  0.0000000E+00  0.2525252E-01  0.4640938E-10  0.0000000E+00 -0.1954814E-04
  0.3989899E+00  0.0000000E+00  0.2525252E-01  0.4196707E-10  0.0000000E+00 -0.1954812E-04
  0.4090909E+00  0.0000000E+00  0.2525252E-01  0.3732720E-10  0.0000000E+00 -0.1954810E-04
  0.4191919E+00  0.0000000E+00  0.2525252E-01  0.3251777E-10  0.0000000E+00 -0.1954809E-04
  0.4292929E+00  0.0000000E+00  0.2525252E-01  0.2756651E-10  0.0000000E+00 -0.1954808E-04
  0.4393939E+00  0.0000000E+00  0.2525252E-01  0.2250296E-10  0.0000000E+00 -0.1954807E-04
  0.4494950E+00  0.0000000E+00  0.2525252E-01  0.1735666E-10  0.0000000E+00 -0.1954806E-04
  0.4595959E+00  0.0000000E+00  0.2525252E-01  0.1214166E-10  0.0000000E+00 -0.1954805E-04
  0.4696970E+00  0.0000000E+00  0.2525252E-01  0.6882168E-11  0.0000000E+00 -0.1954805E-04
  0.4797980E+00  0.0000000E+00  0.2525252E-01  0.1596124E-11  0.0000000E+00 -0.1954805E-04
  0.4898990E+00  0.0000000E+00  0.2525252E-01 -0.3944856E-11  0.0000000E+00 -0.1954805E-04
  0.5000000E+00  0.0000000E+00  0.2525252E-01 -0.9229659E-11  0.0000000E+00 -0.1954805E-04
  0.5101010E+00  0.0000000E+00  0.2525252E-01 -0.1450365E-10  0.0000000E+00 -0.1954805E-04
  0.5202020E+00  0.0000000E+00  0.2525252E-01 -0.1979890E-10  0.0000000E+00 -0.1954806E-04
  0.5303030E+00  0.0000000E+00  0.2525252E-01 -0.2489686E-10  0.0000000E+00 -0.1954807E-04
  0.5404040E+00  0.0000000E+00  0.2525252E-01 -0.3014610E-10  0.0000000E+00 -0.1954808E-04
  0.5505050E+00  0.0000000E+00  0.2525252E-01 -0.3503661E-10  0.0000000E+00 -0.1954809E-04
  0.5606061E+00  0.0000000E+00  0.2525252E-01 -0.3999201E-10  0.0000000E+00 -0.1954811E-04
  0.5707071E+00  0.0000000E+00  0.2525252E-01 -0.4484547E-10  0.0000000E+00 -0.1954813E-04
  0.5808081E+00  0.0000000E+00  0.2525252E-01 -0.4935206E-10  0.0000000E+00 -0.1954815E-04
  0.5909091E+00  0.0000000E+00  0.2525252E-01 -0.5372352E-10  0.0000000E+00 -0.1954817E-04
  0.6010101E+00  0.0000000E+00  0.2525252E-01 -0.5793708E-10  0.0000000E+00 -0.1954819E-04
  0.6111111E+00  0.0000000E+00  0.2525252E-01 -0.6186369E-10  0.0000000E+00 -0.1954822E-04
  0.6212121E+00  0.0000000E+00  0.2525252E-01 -0.6548520E-10  0.0000000E+00 -0.1954824E-04
  0.6313131E+00  0.0000000E+00  0.2525252E-01 -0.6882557E-10  0.0000000E+00 -0.1954827E-04
  0.6414142E+00  0.0000000E+00  0.2525252E-01 -0.7187282E-10  0.0000000E+00 -0.1954830E-04
  0.6515151E+00  0.0000000E+00  0.2525252E-01 -0.7459627E-10  0.0000000E+00 -0.1954833E-04
  0.6616161E+00  0.0000000E+00  0.2525252E-01 -0.7697930E-10  0.0000000E+00 -0.1954836E-04
  0.6717172E+00  0.0000000E+00  0.2525252E-01 -0.7902166E-10  0.0000000E+00 -0.1954839E-04
  0.6818182E+00  0.0000000E+00  0.2525252E-01 -0.8072739E-10  0.0000000E+00 -0.1954842E-04
  0.6919192E+00  0.0000000E+00  0.2525252E-01 -0.8209906E-10  0.0000000E+00 -0.1954846E-04
  0.7020202E+00  0.0000000E+00  0.2525252E-01 -0.8313971E-10  0.0000000E+00 -0.1954849E-04
  0.7121212E+00  0.0000000E+00  0.2525252E-01 -0.8385552E-10  0.0000000E+00 -0.1954853E-04
  0.7222222E+00  0.0000000E+00  0.2525252E-01 -0.8425575E-10  0.0000000E+00 -0.1954856E-04
  0.7323232E+00  0.0000000E+00  0.2525252E-01 -0.8435064E-10  0.0000000E+00 -0.1954860E-04
  0.7424242E+00  0.0000000E+00  0.2525252E-01 -0.8414945E-10  0.0000000E+00 -0.1954863E-04
  0.7525253E+00  0.0000000E+00  0.2525252E-01 -0.8365958E-10  0.0000000E+00 -0.1954867E-04
  0.7626263E+00  0.0000000E+00  0.2525252E-01 -0.8288636E-10  0.0000000E+00 -0.1954870E-04
  0.7727273E+00  0.0000000E+00  0.2525252E-01 -0.8183335E-10  0.0000000E+00 -0.1954873E-04
  0.7828283E+00  0.0000000E+00  0.2525252E-01 -0.8050257E-10  0.0000000E+00 -0.1954877E-04
  0.7929293E+00  0.0000000E+00  0.2525252E-01 -0.7889503E-10  0.0000000E+00 -0.1954880E-04
  0.8030303E+00  0.0000000E+00  0.2525252E-01 -0.7701134E-10  0.0000000E+00 -0.1954883E-04
  0.8131313E+00  0.0000000E+00  0.2525252E-01 -0.7485258E-10  0.0000000E+00 -0.1954886E-04
  0.8232324E+00  0.0000000E+00  0.2525252E-01 -0.7242118E-10  0.0000000E+00 -0.1954889E-04
  0.8333333E+00  0.0000000E+00  0.2525252E-01 -0.6972171E-10  0.0000000E+00 -0.1954892E-04
  0.8434343E+00  0.0000000E+00  0.2525252E-01 -0.6676148E-10  0.0000000E+00 -0.1954895E-04
  0.8535354E+00  0.0000000E+00  0.2525252E-01 -0.6355074E-10  0.0000000E+00 -0.1954898E-04
  0.8636364E+00  0.0000000E+00  0.2525252E-01 -0.6010277E-10  0.0000000E+00 -0.1954900E-04
  0.8737374E+00  0.0000000E+00  0.2525252E-01 -0.5643357E-10  0.0000000E+00 -0.1954903E-04
  0.8838384E+00  0.0000000E+00  0.2525252E-01 -0.5256148E-10  0.0000000E+00 -0.1954905E-04
  0.8939394E+00  0.0000000E+00  0.2525252E-01 -0.4850666E-10  0.0000000E+00 -0.1954907E-04
  0.9040404E+00  0.0000000E+00  0.2525252E-01 -0.4429051E-10  0.0000000E+00 -0.1954909E-04
  0.9141414E+00  0.0000000E+00  0.2525252E-01 -0.3993515E-10  0.0000000E+00 -0.1954911E-04
  0.9242424E+00  0.0000000E+00  0.2525252E-01 -0.3546287E-10  0.0000000E+00 -0.1954912E-04
  0.9343435E+00  0.0000000E+00  0.2525252E-01 -0.3089560E-10  0.0000000E+00 -0.1954913E-04
  0.9444444E+00  0.0000000E+00  0.2525252E-01 -0.2625421E-10  0.0000000E+00 -0.1954915E-04
  0.9545454E+00  0.0000000E+00  0.2525252E-01 -0.2155934E-10  0.0000000E+00 -0.1954916E-04
  0.9646465E+00  0.0000000E+00  0.2525252E-01 -0.1683207E-10  0.0000000E+00 -0.1954916E-04
  0.9747475E+00  0.0000000E+00  0.2525252E-01 -0.1208303E-10  0.0000000E+00 -0.1954917E-04
  0.9848485E+00  0.0000000E+00  0.2525252E-01 -0.7336523E-11  0.0000000E+00 -0.1954917E-04
  0.9974747E+00  0.0000000E+00  0.2525252E-01 -0.2638180E-11  0.0000000E+00 -0.1954918E-04
  0.5050505E-02  0.0000000E+00  0.3535353E-01  0.3257656E-11  0.0000000E+00 -0.1942319E-04
  0.1515152E-01  0.0000000E+00  0.3535353E-01  0.9965816E-11  0.0000000E+00 -0.1942319E-04
  0.2525252E-01  0.0000000E+00  0.3535353E-01  0.1684851E-10  0.0000000E+00 -0.1942319E-04
  0.3535353E-01  0.0000000E+00  0.3535353E-01  0.2373963E-10  0.0000000E+00 -0.1942318E-04
  0.4545455E-01  0.0000000E+00  0.3535353E-01  0.3033846E-10  0.0000000E+00 -0.1942317E-04
  0.5555556E-01  0.0000000E+00  0.3535353E-01  0.3705330E-10  0.0000000E+00 -0.1942316E-04
  0.6565657E-01  0.0000000E+00  0.3535353E-01  0.4339181E-10  0.0000000E+00 -0.1942315E-04
  0.7575758E-01  0.0000000E+00  0.3535353E-01  0.4980671E-10  0.0000000E+00 -0.1942314E-04
  0.8585858E-01  0.0000000E+00  0.3535353E-01  0.5609977E-10  0.0000000E+00 -0.1942312E-04
  0.9595960E-01  0.0000000E+00  0.3535353E-01  0.6199597E-10  0.0000000E+00 -0.1942310E-04
  0.1060606E+00  0.0000000E+00  0.3535353E-01  0.6773697E-10  0.0000000E+00 -0.1942308E-04
  0.1161616E+00  0.0000000E+00  0.3535353E-01  0.7329769E-10  0.0000000E+00 -0.1942306E-04
  0.1262626E+00  0.0000000E+00  0.3535353E-01  0.7851893E-10  0.0000000E+00 -0.1942304E-04
  0.1363636E+00  0.0000000E+00  0.3535353E-01  0.8337235E-10  0.0000000E+00 -0.1942302E-04
  0.1464646E+00  0.0000000E+00  0.3535353E-01  0.8788219E-10  0.0000000E+00 -0.1942299E-04
  0.1565657E+00  0.0000000E+00  0.3535353E-01  0.9202958E-10  0.0000000E+00 -0.1942296E-04
  0.1666667E+00  0.0000000E+00  0.3535353E-01  0.9577264E-10  0.0000000E+00 -0.1942294E-04
  0.1767677E+00  0.0000000E+00  0.3535353E-01  0.9908628E-10  0.0000000E+00 -0.1942291E-04
  0.1868687E+00  0.0000000E+00  0.3535353E-01  0.1019650E-09  0.0000000E+00 -0.1942288E-04
  0.1969697E+00  0.0000000E+00  0.3535353E-01  0.1044082E-09  0.0000000E+00 -0.1942284E-04
  0.2070707E+00  0.0000000E+00  0.3535353E-01  0.1064125E-09  0.0000000E+00 -0.1942281E-04
  0.2171717E+00  0.0000000E+00  0.3535353E-01  0.1079745E-09  0.0000000E+00 -0.1942278E-04
  0.2272727E+00  0.0000000E+00  0.3535353E-01  0.1090932E-09  0.0000000E+00 -0.1942275E-04
  0.2373737E+00  0.0000000E+00  0.3535353E-01  0.1097703E-09  0.0000000E+00 -0.1942272E-04
  0.2474747E+00  0.0000000E+00  0.3535353E-01  0.1100070E-09  0.0000000E+00 -0.1942268E-04
  0.2575758E+00  0.0000000E+00  0.3535353E-01  0.1098025E-09  0.0000000E+00 -0.1942265E-04
  0.2676768E+00  0.0000000E+00  0.3535353E-01  0.1091534E-09  0.0000000E+00 -0.1942262E-04
  0.2777778E+00  0.0000000E+00  0.3535353E-01  0.1080537E-09  0.0000000E+00 -0.1942258E-04
  0.2878788E+00  0.0000000E+00  0.3535353E-01  0.1064963E-09  0.0000000E+00 -0.1942255E-04
  0.2979798E+00  0.0000000E+00  0.3535353E-01  0.1044740E-09  0.0000000E+00 -0.1942252E-04