title = "dataset water"
variables = "x", "y", "z", "vx", "vy", "vz"
zone t = "velocities, solution time =  2.900E+01 days        " i =   99, j =   99, k =    1,  f=point
  0.5050505E-02  0.0000000E+00  0.5050505E-02  0.1342375E-10  0.0000000E+00 -0.1019422E-04
  0.1515152E-01  0.0000000E+00  0.5050505E-02  0.4021940E-10  0.0000000E+00 -0.1019417E-04
  0.2525252E-01  0.0000000E+00  0.5050505E-02  0.6684607E-10  0.0000000E+00 -0.1019406E-04
  0.3535353E-01  0.0000000E+00  0.5050505E-02  0.9319023E-10  0.0000000E+00 -0.1019390E-04
  0.4545455E-01  0.0000000E+00  0.5050505E-02  0.1191404E-09  0.0000000E+00 -0.1019369E-04
  0.5555556E-01  0.0000000E+00  0.5050505E-02  0.1445857E-09  0.0000000E+00 -0.1019342E-04
  0.6565657E-01  0.0000000E+00  0.5050505E-02  0.1694169E-09  0.0000000E+00 -0.1019311E-04
  0.7575758E-01  0.0000000E+00  0.5050505E-02  0.1935261E-09  0.0000000E+00 -0.1019275E-04
  0.8585858E-01  0.0000000E+00  0.5050505E-02  0.2168075E-09  0.0000000E+00 -0.1019234E-04
  0.9595960E-01  0.0000000E+00  0.5050505E-02  0.2391576E-09  0.0000000E+00 -0.1019188E-04
  0.1060606E+00  0.0000000E+00  0.5050505E-02  0.2604759E-09  0.0000000E+00 -0.1019138E-04
  0.1161616E+00  0.0000000E+00  0.5050505E-02  0.2806647E-09  0.0000000E+00 -0.1019084E-04
  0.1262626E+00  0.0000000E+00  0.5050505E-02  0.2996299E-09  0.0000000E+00 -0.1019026E-04
  0.1363636E+00  0.0000000E+00  0.5050505E-02  0.3172817E-09  0.0000000E+00 -0.1018964E-04
  0.1464646E+00  0.0000000E+00  0.5050505E-02  0.3335343E-09  0.0000000E+00 -0.1018899E-04
  0.1565657E+00  0.0000000E+00  0.5050505E-02  0.3483070E-09  0.0000000E+00 -0.1018830E-04
  0.1666667E+00  0.0000000E+00  0.5050505E-02  0.3615244E-09  0.0000000E+00 -0.1018759E-04
  0.1767677E+00  0.0000000E+00  0.5050505E-02  0.3731169E-09  0.0000000E+00 -0.1018686E-04
  0.1868687E+00  0.0000000E+00  0.5050505E-02  0.3830211E-09  0.0000000E+00 -0.1018610E-04
  0.1969697E+00  0.0000000E+00  0.5050505E-02  0.3911806E-09  0.0000000E+00 -0.1018533E-04
  0.2070707E+00  0.0000000E+00  0.5050505E-02  0.3975459E-09  0.0000000E+00 -0.1018454E-04
  0.2171717E+00  0.0000000E+00  0.5050505E-02  0.4020751E-09  0.0000000E+00 -0.1018374E-04
  0.2272727E+00  0.0000000E+00  0.5050505E-02  0.4047346E-09  0.0000000E+00 -0.1018293E-04
  0.2373737E+00  0.0000000E+00  0.5050505E-02  0.4054988E-09  0.0000000E+00 -0.1018212E-04
  0.2474747E+00  0.0000000E+00  0.5050505E-02  0.4043512E-09  0.0000000E+00 -0.1018131E-04
  0.2575758E+00  0.0000000E+00  0.5050505E-02  0.4012839E-09  0.0000000E+00 -0.1018050E-04
  0.2676768E+00  0.0000000E+00  0.5050505E-02  0.3962986E-09  0.0000000E+00 -0.1017970E-04
  0.2777778E+00  0.0000000E+00  0.5050505E-02  0.3894062E-09  0.0000000E+00 -0.1017891E-04
  0.2878788E+00  0.0000000E+00  0.5050505E-02  0.3806271E-09  0.0000000E+00 -0.1017814E-04
  0.2979798E+00  0.0000000E+00  0.5050505E-02  0.3699914E-09  0.0000000E+00 -0.1017739E-04
  0.3080808E+00  0.0000000E+00  0.5050505E-02  0.3575387E-09  0.0000000E+00 -0.1017666E-04
  0.3181818E+00  0.0000000E+00  0.5050505E-02  0.3433181E-09  0.0000000E+00 -0.1017596E-04
  0.3282828E+00  0.0000000E+00  0.5050505E-02  0.3273879E-09  0.0000000E+00 -0.1017529E-04
  0.3383838E+00  0.0000000E+00  0.5050505E-02  0.3098154E-09  0.0000000E+00 -0.1017465E-04
  0.3484848E+00  0.0000000E+00  0.5050505E-02  0.2906770E-09  0.0000000E+00 -0.1017405E-04
  0.3585859E+00  0.0000000E+00  0.5050505E-02  0.2700570E-09  0.0000000E+00 -0.1017349E-04
  0.3686869E+00  0.0000000E+00  0.5050505E-02  0.2480479E-09  0.0000000E+00 -0.1017297E-04
  0.3787879E+00  0.0000000E+00  0.5050505E-02  0.2247495E-09  0.0000000E+00 -0.1017250E-04
  0.3888889E+00  0.0000000E+00  0.5050505E-02  0.2002685E-09  0.0000000E+00 -0.1017207E-04
  0.3989899E+00  0.0000000E+00  0.5050505E-02  0.1747178E-09  0.0000000E+00 -0.1017170E-04
  0.4090909E+00  0.0000000E+00  0.5050505E-02  0.1482157E-09  0.0000000E+00 -0.1017137E-04
  0.4191919E+00  0.0000000E+00  0.5050505E-02  0.1208854E-09  0.0000000E+00 -0.1017110E-04
  0.4292929E+00  0.0000000E+00  0.5050505E-02  0.9285437E-10  0.0000000E+00 -0.1017089E-04
  0.4393939E+00  0.0000000E+00  0.5050505E-02  0.6425306E-10  0.0000000E+00 -0.1017073E-04
  0.4494950E+00  0.0000000E+00  0.5050505E-02  0.3521459E-10  0.0000000E+00 -0.1017063E-04
  0.4595959E+00  0.0000000E+00  0.5050505E-02  0.5873774E-11  0.0000000E+00 -0.1017059E-04
  0.4696970E+00  0.0000000E+00  0.5050505E-02 -0.2363370E-10  0.0000000E+00 -0.1017061E-04
  0.4797980E+00  0.0000000E+00  0.5050505E-02 -0.5317195E-10  0.0000000E+00 -0.1017069E-04
  0.4898990E+00  0.0000000E+00  0.5050505E-02 -0.8260589E-10  0.0000000E+00 -0.1017082E-04
  0.5000000E+00  0.0000000E+00  0.5050505E-02 -0.1118019E-09  0.0000000E+00 -0.1017102E-04
  0.5101010E+00  0.0000000E+00  0.5050505E-02 -0.1406285E-09  0.0000000E+00 -0.1017127E-04
  0.5202020E+00  0.0000000E+00  0.5050505E-02 -0.1689575E-09  0.0000000E+00 -0.1017158E-04
  0.5303030E+00  0.0000000E+00  0.5050505E-02 -0.1966641E-09  0.0000000E+00 -0.1017194E-04
  0.5404040E+00  0.0000000E+00  0.5050505E-02 -0.2236279E-09  0.0000000E+00 -0.1017237E-04
  0.5505050E+00  0.0000000E+00  0.5050505E-02 -0.2497333E-09  0.0000000E+00 -0.1017284E-04
  0.5606061E+00  0.0000000E+00  0.5050505E-02 -0.2748705E-09  0.0000000E+00 -0.1017336E-04
  0.5707071E+00  0.0000000E+00  0.5050505E-02 -0.2989356E-09  0.0000000E+00 -0.1017394E-04
  0.5808081E+00  0.0000000E+00  0.5050505E-02 -0.3218312E-09  0.0000000E+00 -0.1017456E-04
  0.5909091E+00  0.0000000E+00  0.5050505E-02 -0.3434668E-09  0.0000000E+00 -0.1017523E-04
  0.6010101E+00  0.0000000E+00  0.5050505E-02 -0.3637593E-09  0.0000000E+00 -0.1017593E-04
  0.6111111E+00  0.0000000E+00  0.5050505E-02 -0.3826331E-09  0.0000000E+00 -0.1017668E-04
  0.6212121E+00  0.0000000E+00  0.5050505E-02 -0.4000203E-09  0.0000000E+00 -0.1017747E-04
  0.6313131E+00  0.0000000E+00  0.5050505E-02 -0.4158612E-09  0.0000000E+00 -0.1017828E-04
  0.6414142E+00  0.0000000E+00  0.5050505E-02 -0.4301041E-09  0.0000000E+00 -0.1017913E-04
  0.6515151E+00  0.0000000E+00  0.5050505E-02 -0.4427056E-09  0.0000000E+00 -0.1018000E-04
  0.6616161E+00  0.0000000E+00  0.5050505E-02 -0.4536301E-09  0.0000000E+00 -0.1018090E-04
  0.6717172E+00  0.0000000E+00  0.5050505E-02 -0.4628505E-09  0.0000000E+00 -0.1018182E-04
  0.6818182E+00  0.0000000E+00  0.5050505E-02 -0.4703474E-09  0.0000000E+00 -0.1018275E-04
  0.6919192E+00  0.0000000E+00  0.5050505E-02 -0.4761094E-09  0.0000000E+00 -0.1018370E-04
  0.7020202E+00  0.0000000E+00  0.5050505E-02 -0.4801326E-09  0.0000000E+00 -0.1018466E-04
  0.7121212E+00  0.0000000E+00  0.5050505E-02 -0.4824204E-09  0.0000000E+00 -0.1018562E-04
  0.7222222E+00  0.0000000E+00  0.5050505E-02 -0.4829835E-09  0.0000000E+00 -0.1018659E-04
  0.7323232E+00  0.0000000E+00  0.5050505E-02 -0.4818390E-09  0.0000000E+00 -0.1018755E-04
  0.7424242E+00  0.0000000E+00  0.5050505E-02 -0.4790105E-09  0.0000000E+00 -0.1018852E-04
  0.7525253E+00  0.0000000E+00  0.5050505E-02 -0.4745276E-09  0.0000000E+00 -0.1018947E-04
  0.7626263E+00  0.0000000E+00  0.5050505E-02 -0.4684254E-09  0.0000000E+00 -0.1019042E-04
  0.7727273E+00  0.0000000E+00  0.5050505E-02 -0.4607442E-09  0.0000000E+00 -0.1019135E-04
  0.7828283E+00  0.0000000E+00  0.5050505E-02 -0.4515291E-09  0.0000000E+00 -0.1019226E-04
  0.7929293E+00  0.0000000E+00  0.5050505E-02 -0.4408292E-09  0.0000000E+00 -0.1019315E-04
  0.8030303E+00  0.0000000E+00  0.5050505E-02 -0.4286979E-09  0.0000000E+00 -0.1019402E-04
  0.8131313E+00  0.0000000E+00  0.5050505E-02 -0.4151917E-09  0.0000000E+00 -0.1019487E-04
  0.8232324E+00  0.0000000E+00  0.5050505E-02 -0.4003703E-09  0.0000000E+00 -0.1019568E-04
  0.8333333E+00  0.0000000E+00  0.5050505E-02 -0.3842963E-09  0.0000000E+00 -0.1019647E-04
  0.8434343E+00  0.0000000E+00  0.5050505E-02 -0.3670341E-09  0.0000000E+00 -0.1019722E-04
  0.8535354E+00  0.0000000E+00  0.5050505E-02 -0.3486505E-09  0.0000000E+00 -0.1019794E-04
  0.8636364E+00  0.0000000E+00  0.5050505E-02 -0.3292138E-09  0.0000000E+00 -0.1019862E-04
  0.8737374E+00  0.0000000E+00  0.5050505E-02 -0.3087936E-09  0.0000000E+00 -0.1019926E-04
  0.8838384E+00  0.0000000E+00  0.5050505E-02 -0.2874606E-09  0.0000000E+00 -0.1019985E-04
  0.8939394E+00  0.0000000E+00  0.5050505E-02 -0.2652863E-09  0.0000000E+00 -0.1020041E-04
  0.9040404E+00  0.0000000E+00  0.5050505E-02 -0.2423430E-09  0.0000000E+00 -0.1020092E-04
  0.9141414E+00  0.0000000E+00  0.5050505E-02 -0.2187034E-09  0.0000000E+00 -0.1020138E-04
  0.9242424E+00  0.0000000E+00  0.5050505E-02 -0.1944405E-09  0.0000000E+00 -0.1020179E-04
  0.9343435E+00  0.0000000E+00  0.5050505E-02 -0.1696276E-09  0.0000000E+00 -0.1020216E-04
  0.9444444E+00  0.0000000E+00  0.5050505E-02 -0.1443378E-09  0.0000000E+00 -0.1020247E-04
  0.9545454E+00  0.0000000E+00  0.5050505E-02 -0.1186448E-09  0.0000000E+00 -0.1020273E-04
  0.9646465E+00  0.0000000E+00  0.5050505E-02 -0.9262173E-10  0.0000000E+00 -0.1020294E-04
  0.9747475E+00  0.0000000E+00  0.5050505E-02 -0.6634215E-10  0.0000000E+00 -0.1020310E-04
  0.9848485E+00  0.0000000E+00  0.5050505E-02 -0.3987943E-10  0.0000000E+00 -0.1020321E-04
  0.9974747E+00  0.0000000E+00  0.5050505E-02 -0.1330707E-10  0.0000000E+00 -0.1020326E-04
  0.5050505E-02  0.0000000E+00  0.1515152E-01  0.4038042E-10  0.0000000E+00 -0.1018055E-04
  0.1515152E-01  0.0000000E+00  0.1515152E-01  0.1209824E-09  0.0000000E+00 -0.1018049E-04
  0.2525252E-01  0.0000000E+00  0.1515152E-01  0.2010767E-09  0.0000000E+00 -0.1018038E-04
  0.3535353E-01  0.0000000E+00  0.1515152E-01  0.2803217E-09  0.0000000E+00 -0.1018022E-04
  0.4545455E-01  0.0000000E+00  0.1515152E-01  0.3583821E-09  0.0000000E+00 -0.1018001E-04
  0.5555556E-01  0.0000000E+00  0.1515152E-01  0.4349249E-09  0.0000000E+00 -0.1017974E-04
  0.6565657E-01  0.0000000E+00  0.1515152E-01  0.5096210E-09  0.0000000E+00 -0.1017942E-04
  0.7575758E-01  0.0000000E+00  0.1515152E-01  0.5821461E-09  0.0000000E+00 -0.1017906E-04
  0.8585858E-01  0.0000000E+00  0.1515152E-01  0.6521822E-09  0.0000000E+00 -0.1017864E-04
  0.9595960E-01  0.0000000E+00  0.1515152E-01  0.7194181E-09  0.0000000E+00 -0.1017818E-04
  0.1060606E+00  0.0000000E+00  0.1515152E-01  0.7835510E-09  0.0000000E+00 -0.1017767E-04
  0.1161616E+00  0.0000000E+00  0.1515152E-01  0.8442874E-09  0.0000000E+00 -0.1017712E-04
  0.1262626E+00  0.0000000E+00  0.1515152E-01  0.9013444E-09  0.0000000E+00 -0.1017654E-04
  0.1363636E+00  0.0000000E+00  0.1515152E-01  0.9544511E-09  0.0000000E+00 -0.1017591E-04
  0.1464646E+00  0.0000000E+00  0.1515152E-01  0.1003350E-08  0.0000000E+00 -0.1017525E-04
  0.1565657E+00  0.0000000E+00  0.1515152E-01  0.1047798E-08  0.0000000E+00 -0.1017456E-04
  0.1666667E+00  0.0000000E+00  0.1515152E-01  0.1087568E-08  0.0000000E+00 -0.1017384E-04
  0.1767677E+00  0.0000000E+00  0.1515152E-01  0.1122450E-08  0.0000000E+00 -0.1017310E-04
  0.1868687E+00  0.0000000E+00  0.1515152E-01  0.1152255E-08  0.0000000E+00 -0.1017234E-04
  0.1969697E+00  0.0000000E+00  0.1515152E-01  0.1176810E-08  0.0000000E+00 -0.1017155E-04
  0.2070707E+00  0.0000000E+00  0.1515152E-01  0.1195969E-08  0.0000000E+00 -0.1017075E-04
  0.2171717E+00  0.0000000E+00  0.1515152E-01  0.1209604E-08  0.0000000E+00 -0.1016994E-04
  0.2272727E+00  0.0000000E+00  0.1515152E-01  0.1217614E-08  0.0000000E+00 -0.1016913E-04
  0.2373737E+00  0.0000000E+00  0.1515152E-01  0.1219923E-08  0.0000000E+00 -0.1016831E-04
  0.2474747E+00  0.0000000E+00  0.1515152E-01  0.1216479E-08  0.0000000E+00 -0.1016749E-04
  0.2575758E+00  0.0000000E+00  0.1515152E-01  0.1207259E-08  0.0000000E+00 -0.1016667E-04
  0.2676768E+00  0.0000000E+00  0.1515152E-01  0.1192269E-08  0.0000000E+00 -0.1016586E-04
  0.2777778E+00  0.0000000E+00  0.1515152E-01  0.1171540E-08  0.0000000E+00 -0.1016507E-04
  0.2878788E+00  0.0000000E+00  0.1515152E-01  0.1145135E-08  0.0000000E+00 -0.1016429E-04
  0.2979798E+00  0.0000000E+00  0.1515152E-01  0.1113143E-08  0.0000000E+00 -0.1016353E-04
  0.3080808E+00  0.0000000E+00  0.1515152E-01  0.1075684E-08  0.0000000E+00 -0.1016279E-04
  0.3181818E+00  0.0000000E+00  0.1515152E-01  0.1032905E-08  0.0000000E+00 -0.1016208E-04
  0.3282828E+00  0.0000000E+00  0.1515152E-01  0.9849814E-09  0.0000000E+00 -0.1016140E-04
  0.3383838E+00  0.0000000E+00  0.1515152E-01  0.9321166E-09  0.0000000E+00 -0.1016076E-04
  0.3484848E+00  0.0000000E+00  0.1515152E-01  0.8745395E-09  0.0000000E+00 -0.1016015E-04
  0.3585859E+00  0.0000000E+00  0.1515152E-01  0.8125045E-09  0.0000000E+00 -0.1015958E-04
  0.3686869E+00  0.0000000E+00  0.1515152E-01  0.7462896E-09  0.0000000E+00 -0.1015905E-04
  0.3787879E+00  0.0000000E+00  0.1515152E-01  0.6761955E-09  0.0000000E+00 -0.1015858E-04
  0.3888889E+00  0.0000000E+00  0.1515152E-01  0.6025431E-09  0.0000000E+00 -0.1015815E-04
  0.3989899E+00  0.0000000E+00  0.1515152E-01  0.5256721E-09  0.0000000E+00 -0.1015777E-04
  0.4090909E+00  0.0000000E+00  0.1515152E-01  0.4459390E-09  0.0000000E+00 -0.1015744E-04
  0.4191919E+00  0.0000000E+00  0.1515152E-01  0.3637147E-09  0.0000000E+00 -0.1015717E-04
  0.4292929E+00  0.0000000E+00  0.1515152E-01  0.2793822E-09  0.0000000E+00 -0.1015695E-04
  0.4393939E+00  0.0000000E+00  0.1515152E-01  0.1933347E-09  0.0000000E+00 -0.1015679E-04
  0.4494950E+00  0.0000000E+00  0.1515152E-01  0.1059728E-09  0.0000000E+00 -0.1015669E-04
  0.4595959E+00  0.0000000E+00  0.1515152E-01  0.1770208E-10  0.0000000E+00 -0.1015665E-04
  0.4696970E+00  0.0000000E+00  0.1515152E-01 -0.7106889E-10  0.0000000E+00 -0.1015667E-04
  0.4797980E+00  0.0000000E+00  0.1515152E-01 -0.1599312E-09  0.0000000E+00 -0.1015674E-04
  0.4898990E+00  0.0000000E+00  0.1515152E-01 -0.2484783E-09  0.0000000E+00 -0.1015688E-04
  0.5000000E+00  0.0000000E+00  0.1515152E-01 -0.3363081E-09  0.0000000E+00 -0.1015708E-04
  0.5101010E+00  0.0000000E+00  0.1515152E-01 -0.4230252E-09  0.0000000E+00 -0.1015733E-04
  0.5202020E+00  0.0000000E+00  0.1515152E-01 -0.5082434E-09  0.0000000E+00 -0.1015765E-04
  0.5303030E+00  0.0000000E+00  0.1515152E-01 -0.5915874E-09  0.0000000E+00 -0.1015802E-04
  0.5404040E+00  0.0000000E+00  0.1515152E-01 -0.6726947E-09  0.0000000E+00 -0.1015844E-04
  0.5505050E+00  0.0000000E+00  0.1515152E-01 -0.7512181E-09  0.0000000E+00 -0.1015892E-04
  0.5606061E+00  0.0000000E+00  0.1515152E-01 -0.8268269E-09  0.0000000E+00 -0.1015945E-04
  0.5707071E+00  0.0000000E+00  0.1515152E-01 -0.8992085E-09  0.0000000E+00 -0.1016003E-04
  0.5808081E+00  0.0000000E+00  0.1515152E-01 -0.9680699E-09  0.0000000E+00 -0.1016066E-04
  0.5909091E+00  0.0000000E+00  0.1515152E-01 -0.1033139E-08  0.0000000E+00 -0.1016133E-04
  0.6010101E+00  0.0000000E+00  0.1515152E-01 -0.1094166E-08  0.0000000E+00 -0.1016205E-04
  0.6111111E+00  0.0000000E+00  0.1515152E-01 -0.1150924E-08  0.0000000E+00 -0.1016281E-04
  0.6212121E+00  0.0000000E+00  0.1515152E-01 -0.1203208E-08  0.0000000E+00 -0.1016360E-04
  0.6313131E+00  0.0000000E+00  0.1515152E-01 -0.1250839E-08  0.0000000E+00 -0.1016442E-04
  0.6414142E+00  0.0000000E+00  0.1515152E-01 -0.1293662E-08  0.0000000E+00 -0.1016528E-04
  0.6515151E+00  0.0000000E+00  0.1515152E-01 -0.1331547E-08  0.0000000E+00 -0.1016616E-04
  0.6616161E+00  0.0000000E+00  0.1515152E-01 -0.1364385E-08  0.0000000E+00 -0.1016707E-04
  0.6717172E+00  0.0000000E+00  0.1515152E-01 -0.1392097E-08  0.0000000E+00 -0.1016800E-04
  0.6818182E+00  0.0000000E+00  0.1515152E-01 -0.1414625E-08  0.0000000E+00 -0.1016894E-04
  0.6919192E+00  0.0000000E+00  0.1515152E-01 -0.1431933E-08  0.0000000E+00 -0.1016990E-04
  0.7020202E+00  0.0000000E+00  0.1515152E-01 -0.1444011E-08  0.0000000E+00 -0.1017087E-04
  0.7121212E+00  0.0000000E+00  0.1515152E-01 -0.1450869E-08  0.0000000E+00 -0.1017184E-04
  0.7222222E+00  0.0000000E+00  0.1515152E-01 -0.1452540E-08  0.0000000E+00 -0.1017282E-04
  0.7323232E+00  0.0000000E+00  0.1515152E-01 -0.1449075E-08  0.0000000E+00 -0.1017379E-04
  0.7424242E+00  0.0000000E+00  0.1515152E-01 -0.1440547E-08  0.0000000E+00 -0.1017476E-04
  0.7525253E+00  0.0000000E+00  0.1515152E-01 -0.1427043E-08  0.0000000E+00 -0.1017573E-04
  0.7626263E+00  0.0000000E+00  0.1515152E-01 -0.1408670E-08  0.0000000E+00 -0.1017668E-04
  0.7727273E+00  0.0000000E+00  0.1515152E-01 -0.1385549E-08  0.0000000E+00 -0.1017762E-04
  0.7828283E+00  0.0000000E+00  0.1515152E-01 -0.1357817E-08  0.0000000E+00 -0.1017855E-04
  0.7929293E+00  0.0000000E+00  0.1515152E-01 -0.1325621E-08  0.0000000E+00 -0.1017945E-04
  0.8030303E+00  0.0000000E+00  0.1515152E-01 -0.1289121E-08  0.0000000E+00 -0.1018033E-04
  0.8131313E+00  0.0000000E+00  0.1515152E-01 -0.1248490E-08  0.0000000E+00 -0.1018118E-04
  0.8232324E+00  0.0000000E+00  0.1515152E-01 -0.1203905E-08  0.0000000E+00 -0.1018201E-04
  0.8333333E+00  0.0000000E+00  0.1515152E-01 -0.1155555E-08  0.0000000E+00 -0.1018280E-04
  0.8434343E+00  0.0000000E+00  0.1515152E-01 -0.1103634E-08  0.0000000E+00 -0.1018356E-04
  0.8535354E+00  0.0000000E+00  0.1515152E-01 -0.1048344E-08  0.0000000E+00 -0.1018428E-04
  0.8636364E+00  0.0000000E+00  0.1515152E-01 -0.9898882E-09  0.0000000E+00 -0.1018497E-04
  0.8737374E+00  0.0000000E+00  0.1515152E-01 -0.9284777E-09  0.0000000E+00 -0.1018561E-04
  0.8838384E+00  0.0000000E+00  0.1515152E-01 -0.8643247E-09  0.0000000E+00 -0.1018621E-04
  0.8939394E+00  0.0000000E+00  0.1515152E-01 -0.7976442E-09  0.0000000E+00 -0.1018677E-04
  0.9040404E+00  0.0000000E+00  0.1515152E-01 -0.7286534E-09  0.0000000E+00 -0.1018729E-04
  0.9141414E+00  0.0000000E+00  0.1515152E-01 -0.6575707E-09  0.0000000E+00 -0.1018775E-04
  0.9242424E+00  0.0000000E+00  0.1515152E-01 -0.5846156E-09  0.0000000E+00 -0.1018817E-04
  0.9343435E+00  0.0000000E+00  0.1515152E-01 -0.5100082E-09  0.0000000E+00 -0.1018854E-04
  0.9444444E+00  0.0000000E+00  0.1515152E-01 -0.4339687E-09  0.0000000E+00 -0.1018886E-04
  0.9545454E+00  0.0000000E+00  0.1515152E-01 -0.3567177E-09  0.0000000E+00 -0.1018912E-04
  0.9646465E+00  0.0000000E+00  0.1515152E-01 -0.2784756E-09  0.0000000E+00 -0.1018934E-04
  0.9747475E+00  0.0000000E+00  0.1515152E-01 -0.1994630E-09  0.0000000E+00 -0.1018950E-04
  0.9848485E+00  0.0000000E+00  0.1515152E-01 -0.1199001E-09  0.0000000E+00 -0.1018960E-04
  0.9974747E+00  0.0000000E+00  0.1515152E-01 -0.4000731E-10  0.0000000E+00 -0.1018966E-04
  0.5050505E-02  0.0000000E+00  0.2525252E-01  0.6770284E-10  0.0000000E+00 -0.1015324E-04
  0.1515152E-01  0.0000000E+00  0.2525252E-01  0.2028377E-09  0.0000000E+00 -0.1015319E-04
  0.2525252E-01  0.0000000E+00  0.2525252E-01  0.3371222E-09  0.0000000E+00 -0.1015308E-04
  0.3535353E-01  0.0000000E+00  0.2525252E-01  0.4699846E-09  0.0000000E+00 -0.1015291E-04
  0.4545455E-01  0.0000000E+00  0.2525252E-01  0.6008630E-09  0.0000000E+00 -0.1015269E-04
  0.5555556E-01  0.0000000E+00  0.2525252E-01  0.7291992E-09  0.0000000E+00 -0.1015242E-04
  0.6565657E-01  0.0000000E+00  0.2525252E-01  0.8544421E-09  0.0000000E+00 -0.1015210E-04
  0.7575758E-01  0.0000000E+00  0.2525252E-01  0.9760482E-09  0.0000000E+00 -0.1015172E-04
  0.8585858E-01  0.0000000E+00  0.2525252E-01  0.1093484E-08  0.0000000E+00 -0.1015130E-04
  0.9595960E-01  0.0000000E+00  0.2525252E-01  0.1206229E-08  0.0000000E+00 -0.1015082E-04
  0.1060606E+00  0.0000000E+00  0.2525252E-01  0.1313775E-08  0.0000000E+00 -0.1015031E-04
  0.1161616E+00  0.0000000E+00  0.2525252E-01  0.1415630E-08  0.0000000E+00 -0.1014975E-04
  0.1262626E+00  0.0000000E+00  0.2525252E-01  0.1511319E-08  0.0000000E+00 -0.1014915E-04
  0.1363636E+00  0.0000000E+00  0.2525252E-01  0.1600388E-08  0.0000000E+00 -0.1014851E-04
  0.1464646E+00  0.0000000E+00  0.2525252E-01  0.1682405E-08  0.0000000E+00 -0.1014783E-04
  0.1565657E+00  0.0000000E+00  0.2525252E-01  0.1756962E-08  0.0000000E+00 -0.1014713E-04
  0.1666667E+00  0.0000000E+00  0.2525252E-01  0.1823678E-08  0.0000000E+00 -0.1014639E-04
  0.1767677E+00  0.0000000E+00  0.2525252E-01  0.1882200E-08  0.0000000E+00 -0.1014563E-04
  0.1868687E+00  0.0000000E+00  0.2525252E-01  0.1932209E-08  0.0000000E+00 -0.1014485E-04
  0.1969697E+00  0.0000000E+00  0.2525252E-01  0.1973418E-08  0.0000000E+00 -0.1014405E-04
  0.2070707E+00  0.0000000E+00  0.2525252E-01  0.2005578E-08  0.0000000E+00 -0.1014323E-04
  0.2171717E+00  0.0000000E+00  0.2525252E-01  0.2028475E-08  0.0000000E+00 -0.1014241E-04
  0.2272727E+00  0.0000000E+00  0.2525252E-01  0.2041940E-08  0.0000000E+00 -0.1014157E-04
  0.2373737E+00  0.0000000E+00  0.2525252E-01  0.2045841E-08  0.0000000E+00 -0.1014073E-04
  0.2474747E+00  0.0000000E+00  0.2525252E-01  0.2040096E-08  0.0000000E+00 -0.1013989E-04
  0.2575758E+00  0.0000000E+00  0.2525252E-01  0.2024662E-08  0.0000000E+00 -0.1013906E-04
  0.2676768E+00  0.0000000E+00  0.2525252E-01  0.1999549E-08  0.0000000E+00 -0.1013823E-04
  0.2777778E+00  0.0000000E+00  0.2525252E-01  0.1964809E-08  0.0000000E+00 -0.1013742E-04
  0.2878788E+00  0.0000000E+00  0.2525252E-01  0.1920547E-08  0.0000000E+00 -0.1013662E-04
  0.2979798E+00  0.0000000E+00  0.2525252E-01  0.1866913E-08  0.0000000E+00 -0.1013584E-04
  0.3080808E+00  0.0000000E+00  0.2525252E-01  0.1804106E-08  0.0000000E+00 -0.1013509E-04
  0.3181818E+00  0.0000000E+00  0.2525252E-01  0.1732374E-08  0.0000000E+00 -0.1013436E-04
  0.3282828E+00  0.0000000E+00  0.2525252E-01  0.1652012E-08  0.0000000E+00 -0.1013367E-04
  0.3383838E+00  0.0000000E+00  0.2525252E-01  0.1563360E-08  0.0000000E+00 -0.1013301E-04
  0.3484848E+00  0.0000000E+00  0.2525252E-01  0.1466801E-08  0.0000000E+00 -0.1013239E-04
  0.3585859E+00  0.0000000E+00  0.2525252E-01  0.1362764E-08  0.0000000E+00 -0.1013181E-04
  0.3686869E+00  0.0000000E+00  0.2525252E-01  0.1251715E-08  0.0000000E+00 -0.1013127E-04
  0.3787879E+00  0.0000000E+00  0.2525252E-01  0.1134158E-08  0.0000000E+00 -0.1013078E-04
  0.3888889E+00  0.0000000E+00  0.2525252E-01  0.1010632E-08  0.0000000E+00 -0.1013034E-04
  0.3989899E+00  0.0000000E+00  0.2525252E-01  0.8817077E-09  0.0000000E+00 -0.1012995E-04
  0.4090909E+00  0.0000000E+00  0.2525252E-01  0.7479835E-09  0.0000000E+00 -0.1012962E-04
  0.4191919E+00  0.0000000E+00  0.2525252E-01  0.6100817E-09  0.0000000E+00 -0.1012934E-04
  0.4292929E+00  0.0000000E+00  0.2525252E-01  0.4686458E-09  0.0000000E+00 -0.1012912E-04
  0.4393939E+00  0.0000000E+00  0.2525252E-01  0.3243353E-09  0.0000000E+00 -0.1012895E-04
  0.4494950E+00  0.0000000E+00  0.2525252E-01  0.1778229E-09  0.0000000E+00 -0.1012885E-04
  0.4595959E+00  0.0000000E+00  0.2525252E-01  0.2978961E-10  0.0000000E+00 -0.1012881E-04
  0.4696970E+00  0.0000000E+00  0.2525252E-01 -0.1190791E-09  0.0000000E+00 -0.1012882E-04
  0.4797980E+00  0.0000000E+00  0.2525252E-01 -0.2680970E-09  0.0000000E+00 -0.1012890E-04
  0.4898990E+00  0.0000000E+00  0.2525252E-01 -0.4165816E-09  0.0000000E+00 -0.1012904E-04
  0.5000000E+00  0.0000000E+00  0.2525252E-01 -0.5638582E-09  0.0000000E+00 -0.1012925E-04
  0.5101010E+00  0.0000000E+00  0.2525252E-01 -0.7092635E-09  0.0000000E+00 -0.1012951E-04
  0.5202020E+00  0.0000000E+00  0.2525252E-01 -0.8521494E-09  0.0000000E+00 -0.1012983E-04
  0.5303030E+00  0.0000000E+00  0.2525252E-01 -0.9918863E-09  0.0000000E+00 -0.1013020E-04
  0.5404040E+00  0.0000000E+00  0.2525252E-01 -0.1127866E-08  0.0000000E+00 -0.1013064E-04
  0.5505050E+00  0.0000000E+00  0.2525252E-01 -0.1259507E-08  0.0000000E+00 -0.1013113E-04
  0.5606061E+00  0.0000000E+00  0.2525252E-01 -0.1386254E-08  0.0000000E+00 -0.1013167E-04
  0.5707071E+00  0.0000000E+00  0.2525252E-01 -0.1507583E-08  0.0000000E+00 -0.1013227E-04
  0.5808081E+00  0.0000000E+00  0.2525252E-01 -0.1623002E-08  0.0000000E+00 -0.1013291E-04
  0.5909091E+00  0.0000000E+00  0.2525252E-01 -0.1732057E-08  0.0000000E+00 -0.1013360E-04
  0.6010101E+00  0.0000000E+00  0.2525252E-01 -0.1834328E-08  0.0000000E+00 -0.1013433E-04
  0.6111111E+00  0.0000000E+00  0.2525252E-01 -0.1929435E-08  0.0000000E+00 -0.1013510E-04
  0.6212121E+00  0.0000000E+00  0.2525252E-01 -0.2017036E-08  0.0000000E+00 -0.1013591E-04
  0.6313131E+00  0.0000000E+00  0.2525252E-01 -0.2096830E-08  0.0000000E+00 -0.1013675E-04
  0.6414142E+00  0.0000000E+00  0.2525252E-01 -0.2168558E-08  0.0000000E+00 -0.1013763E-04
  0.6515151E+00  0.0000000E+00  0.2525252E-01 -0.2232001E-08  0.0000000E+00 -0.1013853E-04
  0.6616161E+00  0.0000000E+00  0.2525252E-01 -0.2286982E-08  0.0000000E+00 -0.1013945E-04
  0.6717172E+00  0.0000000E+00  0.2525252E-01 -0.2333365E-08  0.0000000E+00 -0.1014040E-04
  0.6818182E+00  0.0000000E+00  0.2525252E-01 -0.2371054E-08  0.0000000E+00 -0.1014136E-04
  0.6919192E+00  0.0000000E+00  0.2525252E-01 -0.2399992E-08  0.0000000E+00 -0.1014234E-04
  0.7020202E+00  0.0000000E+00  0.2525252E-01 -0.2420162E-08  0.0000000E+00 -0.1014333E-04
  0.7121212E+00  0.0000000E+00  0.2525252E-01 -0.2431581E-08  0.0000000E+00 -0.1014432E-04
  0.7222222E+00  0.0000000E+00  0.2525252E-01 -0.2434306E-08  0.0000000E+00 -0.1014532E-04
  0.7323232E+00  0.0000000E+00  0.2525252E-01 -0.2428424E-08  0.0000000E+00 -0.1014632E-04
  0.7424242E+00  0.0000000E+00  0.2525252E-01 -0.2414055E-08  0.0000000E+00 -0.1014731E-04
  0.7525253E+00  0.0000000E+00  0.2525252E-01 -0.2391351E-08  0.0000000E+00 -0.1014829E-04
  0.7626263E+00  0.0000000E+00  0.2525252E-01 -0.2360489E-08  0.0000000E+00 -0.1014926E-04
  0.7727273E+00  0.0000000E+00  0.2525252E-01 -0.2321675E-08  0.0000000E+00 -0.1015022E-04
  0.7828283E+00  0.0000000E+00  0.2525252E-01 -0.2275136E-08  0.0000000E+00 -0.1015116E-04
  0.7929293E+00  0.0000000E+00  0.2525252E-01 -0.2221123E-08  0.0000000E+00 -0.1015209E-04
  0.8030303E+00  0.0000000E+00  0.2525252E-01 -0.2159903E-08  0.0000000E+00 -0.1015298E-04
  0.8131313E+00  0.0000000E+00  0.2525252E-01 -0.2091765E-08  0.0000000E+00 -0.1015385E-04
  0.8232324E+00  0.0000000E+00  0.2525252E-01 -0.2017010E-08  0.0000000E+00 -0.1015469E-04
  0.8333333E+00  0.0000000E+00  0.2525252E-01 -0.1935953E-08  0.0000000E+00 -0.1015550E-04
  0.8434343E+00  0.0000000E+00  0.2525252E-01 -0.1848920E-08  0.0000000E+00 -0.1015628E-04
  0.8535354E+00  0.0000000E+00  0.2525252E-01 -0.1756247E-08  0.0000000E+00 -0.1015701E-04
  0.8636364E+00  0.0000000E+00  0.2525252E-01 -0.1658280E-08  0.0000000E+00 -0.1015771E-04
  0.8737374E+00  0.0000000E+00  0.2525252E-01 -0.1555369E-08  0.0000000E+00 -0.1015837E-04
  0.8838384E+00  0.0000000E+00  0.2525252E-01 -0.1447870E-08  0.0000000E+00 -0.1015898E-04
  0.8939394E+00  0.0000000E+00  0.2525252E-01 -0.1336145E-08  0.0000000E+00 -0.1015955E-04
  0.9040404E+00  0.0000000E+00  0.2525252E-01 -0.1220555E-08  0.0000000E+00 -0.1016008E-04
  0.9141414E+00  0.0000000E+00  0.2525252E-01 -0.1101467E-08  0.0000000E+00 -0.1016055E-04
  0.9242424E+00  0.0000000E+00  0.2525252E-01 -0.9792489E-09  0.0000000E+00 -0.1016098E-04
  0.9343435E+00  0.0000000E+00  0.2525252E-01 -0.8542679E-09  0.0000000E+00 -0.1016135E-04
  0.9444444E+00  0.0000000E+00  0.2525252E-01 -0.7268928E-09  0.0000000E+00 -0.1016168E-04
  0.9545454E+00  0.0000000E+00  0.2525252E-01 -0.5974924E-09  0.0000000E+00 -0.1016195E-04
  0.9646465E+00  0.0000000E+00  0.2525252E-01 -0.4664353E-09  0.0000000E+00 -0.1016216E-04
  0.9747475E+00  0.0000000E+00  0.2525252E-01 -0.3340900E-09  0.0000000E+00 -0.1016233E-04
  0.9848485E+00  0.0000000E+00  0.2525252E-01 -0.2008247E-09  0.0000000E+00 -0.1016244E-04
  0.9974747E+00  0.0000000E+00  0.2525252E-01 -0.6700741E-10  0.0000000E+00 -0.1016249E-04
  0.5050505E-02  0.0000000E+00  0.3535353E-01  0.9568870E-10  0.0000000E+00 -0.1011239E-04
  0.1515152E-01  0.0000000E+00  0.3535353E-01  0.2866797E-09  0.0000000E+00 -0.1011233E-04
  0.2525252E-01  0.0000000E+00  0.3535353E-01  0.4764705E-09  0.0000000E+00 -0.1011222E-04
  0.3535353E-01  0.0000000E+00  0.3535353E-01  0.6642545E-09  0.0000000E+00 -0.1011205E-04
  0.4545455E-01  0.0000000E+00  0.3535353E-01  0.8492385E-09  0.0000000E+00 -0.1011182E-04
  0.5555556E-01  0.0000000E+00  0.3535353E-01  0.1030635E-08  0.0000000E+00 -0.1011154E-04
  0.6565657E-01  0.0000000E+00  0.3535353E-01  0.1207664E-08  0.0000000E+00 -0.1011121E-04
  0.7575758E-01  0.0000000E+00  0.3535353E-01  0.1379561E-08  0.0000000E+00 -0.1011082E-04
  0.8585858E-01  0.0000000E+00  0.3535353E-01  0.1545570E-08  0.0000000E+00 -0.1011038E-04
  0.9595960E-01  0.0000000E+00  0.3535353E-01  0.1704957E-08  0.0000000E+00 -0.1010989E-04
  0.1060606E+00  0.0000000E+00  0.3535353E-01  0.1857002E-08  0.0000000E+00 -0.1010936E-04
  0.1161616E+00  0.0000000E+00  0.3535353E-01  0.2001012E-08  0.0000000E+00 -0.1010878E-04
  0.1262626E+00  0.0000000E+00  0.3535353E-01  0.2136314E-08  0.0000000E+00 -0.1010816E-04
  0.1363636E+00  0.0000000E+00  0.3535353E-01  0.2262266E-08  0.0000000E+00 -0.1010750E-04
  0.1464646E+00  0.0000000E+00  0.3535353E-01  0.2378256E-08  0.0000000E+00 -0.1010681E-04
  0.1565657E+00  0.0000000E+00  0.3535353E-01  0.2483708E-08  0.0000000E+00 -0.1010608E-04
  0.1666667E+00  0.0000000E+00  0.3535353E-01  0.2578080E-08  0.0000000E+00 -0.1010532E-04
  0.1767677E+00  0.0000000E+00  0.3535353E-01  0.2660876E-08  0.0000000E+00 -0.1010453E-04
  0.1868687E+00  0.0000000E+00  0.3535353E-01  0.2731640E-08  0.0000000E+00 -0.1010373E-04
  0.1969697E+00  0.0000000E+00  0.3535353E-01  0.2789967E-08  0.0000000E+00 -0.1010290E-04
  0.2070707E+00  0.0000000E+00  0.3535353E-01  0.2835501E-08  0.0000000E+00 -0.1010205E-04
  0.2171717E+00  0.0000000E+00  0.3535353E-01  0.2867941E-08  0.0000000E+00 -0.1010120E-04
  0.2272727E+00  0.0000000E+00  0.3535353E-01  0.2887044E-08  0.0000000E+00 -0.1010034E-04
  0.2373737E+00  0.0000000E+00  0.3535353E-01  0.2892626E-08  0.0000000E+00 -0.1009947E-04
  0.2474747E+00  0.0000000E+00  0.3535353E-01  0.2884564E-08  0.0000000E+00 -0.1009860E-04
  0.2575758E+00  0.0000000E+00  0.3535353E-01  0.2862802E-08  0.0000000E+00 -0.1009774E-04
  0.2676768E+00  0.0000000E+00  0.3535353E-01  0.2827349E-08  0.0000000E+00 -0.1009689E-04
  0.2777778E+00  0.0000000E+00  0.3535353E-01  0.2778280E-08  0.0000000E+00 -0.1009604E-04
  0.2878788E+00  0.0000000E+00  0.3535353E-01  0.2715739E-08  0.0000000E+00 -0.1009522E-04
  0.2979798E+00  0.0000000E+00  0.3535353E-01  0.2639941E-08  0.0000000E+00 -0.1009442E-04