title = "dataset water"
variables = "x", "y", "z", "vx", "vy", "vz"
zone t = "velocities, solution time =  4.800E+01 days        " i =   99, j =   99, k =    1,  f=point
  0.5050505E-02  0.0000000E+00  0.5050505E-02  0.3021132E-08  0.0000000E+00  0.5929958E-05
  0.1515152E-01  0.0000000E+00  0.5050505E-02  0.9034383E-08  0.0000000E+00  0.5942057E-05
  0.2525252E-01  0.0000000E+00  0.5050505E-02  0.1496073E-07  0.0000000E+00  0.5966140E-05
  0.3535353E-01  0.0000000E+00  0.5050505E-02  0.2074270E-07  0.0000000E+00  0.6001974E-05
  0.4545455E-01  0.0000000E+00  0.5050505E-02  0.2632358E-07  0.0000000E+00  0.6049212E-05
  0.5555556E-01  0.0000000E+00  0.5050505E-02  0.3164782E-07  0.0000000E+00  0.6107396E-05
  0.6565657E-01  0.0000000E+00  0.5050505E-02  0.3666153E-07  0.0000000E+00  0.6175956E-05
  0.7575758E-01  0.0000000E+00  0.5050505E-02  0.4131311E-07  0.0000000E+00  0.6254218E-05
  0.8585858E-01  0.0000000E+00  0.5050505E-02  0.4555405E-07  0.0000000E+00  0.6341405E-05
  0.9595960E-01  0.0000000E+00  0.5050505E-02  0.4933979E-07  0.0000000E+00  0.6436650E-05
  0.1060606E+00  0.0000000E+00  0.5050505E-02  0.5263077E-07  0.0000000E+00  0.6538999E-05
  0.1161616E+00  0.0000000E+00  0.5050505E-02  0.5539351E-07  0.0000000E+00  0.6647426E-05
  0.1262626E+00  0.0000000E+00  0.5050505E-02  0.5760176E-07  0.0000000E+00  0.6760843E-05
  0.1363636E+00  0.0000000E+00  0.5050505E-02  0.5923758E-07  0.0000000E+00  0.6878121E-05
  0.1464646E+00  0.0000000E+00  0.5050505E-02  0.6029229E-07  0.0000000E+00  0.6998101E-05
  0.1565657E+00  0.0000000E+00  0.5050505E-02  0.6076709E-07  0.0000000E+00  0.7119618E-05
  0.1666667E+00  0.0000000E+00  0.5050505E-02  0.6067348E-07  0.0000000E+00  0.7241520E-05
  0.1767677E+00  0.0000000E+00  0.5050505E-02  0.6003306E-07  0.0000000E+00  0.7362686E-05
  0.1868687E+00  0.0000000E+00  0.5050505E-02  0.5887698E-07  0.0000000E+00  0.7482051E-05
  0.1969697E+00  0.0000000E+00  0.5050505E-02  0.5724478E-07  0.0000000E+00  0.7598619E-05
  0.2070707E+00  0.0000000E+00  0.5050505E-02  0.5518291E-07  0.0000000E+00  0.7711480E-05
  0.2171717E+00  0.0000000E+00  0.5050505E-02  0.5274282E-07  0.0000000E+00  0.7819823E-05
  0.2272727E+00  0.0000000E+00  0.5050505E-02  0.4997891E-07  0.0000000E+00  0.7922943E-05
  0.2373737E+00  0.0000000E+00  0.5050505E-02  0.4694648E-07  0.0000000E+00  0.8020246E-05
  0.2474747E+00  0.0000000E+00  0.5050505E-02  0.4369983E-07  0.0000000E+00  0.8111246E-05
  0.2575758E+00  0.0000000E+00  0.5050505E-02  0.4029062E-07  0.0000000E+00  0.8195566E-05
  0.2676768E+00  0.0000000E+00  0.5050505E-02  0.3676657E-07  0.0000000E+00  0.8272926E-05
  0.2777778E+00  0.0000000E+00  0.5050505E-02  0.3317059E-07  0.0000000E+00  0.8343138E-05
  0.2878788E+00  0.0000000E+00  0.5050505E-02  0.2954025E-07  0.0000000E+00  0.8406096E-05
  0.2979798E+00  0.0000000E+00  0.5050505E-02  0.2590749E-07  0.0000000E+00  0.8461763E-05
  0.3080808E+00  0.0000000E+00  0.5050505E-02  0.2229867E-07  0.0000000E+00  0.8510160E-05
  0.3181818E+00  0.0000000E+00  0.5050505E-02  0.1873473E-07  0.0000000E+00  0.8551357E-05
  0.3282828E+00  0.0000000E+00  0.5050505E-02  0.1523138E-07  0.0000000E+00  0.8585458E-05
  0.3383838E+00  0.0000000E+00  0.5050505E-02  0.1179944E-07  0.0000000E+00  0.8612596E-05
  0.3484848E+00  0.0000000E+00  0.5050505E-02  0.8445070E-08  0.0000000E+00  0.8632921E-05
  0.3585859E+00  0.0000000E+00  0.5050505E-02  0.5170059E-08  0.0000000E+00  0.8646590E-05
  0.3686869E+00  0.0000000E+00  0.5050505E-02  0.1972044E-08  0.0000000E+00  0.8653761E-05
  0.3787879E+00  0.0000000E+00  0.5050505E-02 -0.1155267E-08  0.0000000E+00  0.8654581E-05
  0.3888889E+00  0.0000000E+00  0.5050505E-02 -0.4221876E-08  0.0000000E+00  0.8649182E-05
  0.3989899E+00  0.0000000E+00  0.5050505E-02 -0.7241257E-08  0.0000000E+00  0.8637673E-05
  0.4090909E+00  0.0000000E+00  0.5050505E-02 -0.1023008E-07  0.0000000E+00  0.8620133E-05
  0.4191919E+00  0.0000000E+00  0.5050505E-02 -0.1320785E-07  0.0000000E+00  0.8596601E-05
  0.4292929E+00  0.0000000E+00  0.5050505E-02 -0.1619650E-07  0.0000000E+00  0.8567080E-05
  0.4393939E+00  0.0000000E+00  0.5050505E-02 -0.1921983E-07  0.0000000E+00  0.8531523E-05
  0.4494950E+00  0.0000000E+00  0.5050505E-02 -0.2230281E-07  0.0000000E+00  0.8489836E-05
  0.4595959E+00  0.0000000E+00  0.5050505E-02 -0.2547084E-07  0.0000000E+00  0.8441873E-05
  0.4696970E+00  0.0000000E+00  0.5050505E-02 -0.2874872E-07  0.0000000E+00  0.8387440E-05
  0.4797980E+00  0.0000000E+00  0.5050505E-02 -0.3215955E-07  0.0000000E+00  0.8326291E-05
  0.4898990E+00  0.0000000E+00  0.5050505E-02 -0.3572347E-07  0.0000000E+00  0.8258141E-05
  0.5000000E+00  0.0000000E+00  0.5050505E-02 -0.3945626E-07  0.0000000E+00  0.8182666E-05
  0.5101010E+00  0.0000000E+00  0.5050505E-02 -0.4336788E-07  0.0000000E+00  0.8099518E-05
  0.5202020E+00  0.0000000E+00  0.5050505E-02 -0.4746096E-07  0.0000000E+00  0.8008334E-05
  0.5303030E+00  0.0000000E+00  0.5050505E-02 -0.5172945E-07  0.0000000E+00  0.7908758E-05
  0.5404040E+00  0.0000000E+00  0.5050505E-02 -0.5615739E-07  0.0000000E+00  0.7800452E-05
  0.5505050E+00  0.0000000E+00  0.5050505E-02 -0.6071817E-07  0.0000000E+00  0.7683125E-05
  0.5606061E+00  0.0000000E+00  0.5050505E-02 -0.6537418E-07  0.0000000E+00  0.7556548E-05
  0.5707071E+00  0.0000000E+00  0.5050505E-02 -0.7007729E-07  0.0000000E+00  0.7420577E-05
  0.5808081E+00  0.0000000E+00  0.5050505E-02 -0.7476995E-07  0.0000000E+00  0.7275177E-05
  0.5909091E+00  0.0000000E+00  0.5050505E-02 -0.7938726E-07  0.0000000E+00  0.7120435E-05
  0.6010101E+00  0.0000000E+00  0.5050505E-02 -0.8385969E-07  0.0000000E+00  0.6956572E-05
  0.6111111E+00  0.0000000E+00  0.5050505E-02 -0.8811638E-07  0.0000000E+00  0.6783950E-05
  0.6212121E+00  0.0000000E+00  0.5050505E-02 -0.9208871E-07  0.0000000E+00  0.6603073E-05
  0.6313131E+00  0.0000000E+00  0.5050505E-02 -0.9571367E-07  0.0000000E+00  0.6414574E-05
  0.6414142E+00  0.0000000E+00  0.5050505E-02 -0.9893685E-07  0.0000000E+00  0.6219206E-05
  0.6515151E+00  0.0000000E+00  0.5050505E-02 -0.1017146E-06  0.0000000E+00  0.6017820E-05
  0.6616161E+00  0.0000000E+00  0.5050505E-02 -0.1040152E-06  0.0000000E+00  0.5811343E-05
  0.6717172E+00  0.0000000E+00  0.5050505E-02 -0.1058191E-06  0.0000000E+00  0.5600751E-05
  0.6818182E+00  0.0000000E+00  0.5050505E-02 -0.1071183E-06  0.0000000E+00  0.5387051E-05
  0.6919192E+00  0.0000000E+00  0.5050505E-02 -0.1079151E-06  0.0000000E+00  0.5171253E-05
  0.7020202E+00  0.0000000E+00  0.5050505E-02 -0.1082206E-06  0.0000000E+00  0.4954355E-05
  0.7121212E+00  0.0000000E+00  0.5050505E-02 -0.1080524E-06  0.0000000E+00  0.4737324E-05
  0.7222222E+00  0.0000000E+00  0.5050505E-02 -0.1074330E-06  0.0000000E+00  0.4521090E-05
  0.7323232E+00  0.0000000E+00  0.5050505E-02 -0.1063883E-06  0.0000000E+00  0.4306531E-05
  0.7424242E+00  0.0000000E+00  0.5050505E-02 -0.1049460E-06  0.0000000E+00  0.4094473E-05
  0.7525253E+00  0.0000000E+00  0.5050505E-02 -0.1031343E-06  0.0000000E+00  0.3885686E-05
  0.7626263E+00  0.0000000E+00  0.5050505E-02 -0.1009814E-06  0.0000000E+00  0.3680881E-05
  0.7727273E+00  0.0000000E+00  0.5050505E-02 -0.9851446E-07  0.0000000E+00  0.3480718E-05
  0.7828283E+00  0.0000000E+00  0.5050505E-02 -0.9575943E-07  0.0000000E+00  0.3285798E-05
  0.7929293E+00  0.0000000E+00  0.5050505E-02 -0.9274080E-07  0.0000000E+00  0.3096675E-05
  0.8030303E+00  0.0000000E+00  0.5050505E-02 -0.8948139E-07  0.0000000E+00  0.2913856E-05
  0.8131313E+00  0.0000000E+00  0.5050505E-02 -0.8600242E-07  0.0000000E+00  0.2737800E-05
  0.8232324E+00  0.0000000E+00  0.5050505E-02 -0.8232346E-07  0.0000000E+00  0.2568930E-05
  0.8333333E+00  0.0000000E+00  0.5050505E-02 -0.7846261E-07  0.0000000E+00  0.2407626E-05
  0.8434343E+00  0.0000000E+00  0.5050505E-02 -0.7443654E-07  0.0000000E+00  0.2254238E-05
  0.8535354E+00  0.0000000E+00  0.5050505E-02 -0.7026064E-07  0.0000000E+00  0.2109081E-05
  0.8636364E+00  0.0000000E+00  0.5050505E-02 -0.6594913E-07  0.0000000E+00  0.1972440E-05
  0.8737374E+00  0.0000000E+00  0.5050505E-02 -0.6151518E-07  0.0000000E+00  0.1844575E-05
  0.8838384E+00  0.0000000E+00  0.5050505E-02 -0.5697106E-07  0.0000000E+00  0.1725717E-05
  0.8939394E+00  0.0000000E+00  0.5050505E-02 -0.5232818E-07  0.0000000E+00  0.1616077E-05
  0.9040404E+00  0.0000000E+00  0.5050505E-02 -0.4759724E-07  0.0000000E+00  0.1515841E-05
  0.9141414E+00  0.0000000E+00  0.5050505E-02 -0.4278824E-07  0.0000000E+00  0.1425176E-05
  0.9242424E+00  0.0000000E+00  0.5050505E-02 -0.3791044E-07  0.0000000E+00  0.1344228E-05
  0.9343435E+00  0.0000000E+00  0.5050505E-02 -0.3297298E-07  0.0000000E+00  0.1273127E-05
  0.9444444E+00  0.0000000E+00  0.5050505E-02 -0.2798457E-07  0.0000000E+00  0.1211982E-05
  0.9545454E+00  0.0000000E+00  0.5050505E-02 -0.2295360E-07  0.0000000E+00  0.1160888E-05
  0.9646465E+00  0.0000000E+00  0.5050505E-02 -0.1788815E-07  0.0000000E+00  0.1119921E-05
  0.9747475E+00  0.0000000E+00  0.5050505E-02 -0.1279611E-07  0.0000000E+00  0.1089143E-05
  0.9848485E+00  0.0000000E+00  0.5050505E-02 -0.7685189E-08  0.0000000E+00  0.1068599E-05
  0.9974747E+00  0.0000000E+00  0.5050505E-02 -0.2562982E-08  0.0000000E+00  0.1058320E-05
  0.5050505E-02  0.0000000E+00  0.1515152E-01  0.9099453E-08  0.0000000E+00  0.5979552E-05
  0.1515152E-01  0.0000000E+00  0.1515152E-01  0.2721108E-07  0.0000000E+00  0.5991831E-05
  0.2525252E-01  0.0000000E+00  0.1515152E-01  0.4506128E-07  0.0000000E+00  0.6016272E-05
  0.3535353E-01  0.0000000E+00  0.1515152E-01  0.6247710E-07  0.0000000E+00  0.6052640E-05
  0.4545455E-01  0.0000000E+00  0.1515152E-01  0.7928778E-07  0.0000000E+00  0.6100583E-05
  0.5555556E-01  0.0000000E+00  0.1515152E-01  0.9532595E-07  0.0000000E+00  0.6159638E-05
  0.6565657E-01  0.0000000E+00  0.1515152E-01  0.1104291E-06  0.0000000E+00  0.6229228E-05
  0.7575758E-01  0.0000000E+00  0.1515152E-01  0.1244414E-06  0.0000000E+00  0.6308666E-05
  0.8585858E-01  0.0000000E+00  0.1515152E-01  0.1372163E-06  0.0000000E+00  0.6397167E-05
  0.9595960E-01  0.0000000E+00  0.1515152E-01  0.1486189E-06  0.0000000E+00  0.6493846E-05
  0.1060606E+00  0.0000000E+00  0.1515152E-01  0.1585291E-06  0.0000000E+00  0.6597733E-05
  0.1161616E+00  0.0000000E+00  0.1515152E-01  0.1668454E-06  0.0000000E+00  0.6707781E-05
  0.1262626E+00  0.0000000E+00  0.1515152E-01  0.1734877E-06  0.0000000E+00  0.6822879E-05
  0.1363636E+00  0.0000000E+00  0.1515152E-01  0.1784013E-06  0.0000000E+00  0.6941873E-05
  0.1464646E+00  0.0000000E+00  0.1515152E-01  0.1815594E-06  0.0000000E+00  0.7063577E-05
  0.1565657E+00  0.0000000E+00  0.1515152E-01  0.1829655E-06  0.0000000E+00  0.7186799E-05
  0.1666667E+00  0.0000000E+00  0.1515152E-01  0.1826543E-06  0.0000000E+00  0.7310357E-05
  0.1767677E+00  0.0000000E+00  0.1515152E-01  0.1806913E-06  0.0000000E+00  0.7433105E-05
  0.1868687E+00  0.0000000E+00  0.1515152E-01  0.1771714E-06  0.0000000E+00  0.7553953E-05
  0.1969697E+00  0.0000000E+00  0.1515152E-01  0.1722153E-06  0.0000000E+00  0.7671884E-05
  0.2070707E+00  0.0000000E+00  0.1515152E-01  0.1659643E-06  0.0000000E+00  0.7785973E-05
  0.2171717E+00  0.0000000E+00  0.1515152E-01  0.1585754E-06  0.0000000E+00  0.7895396E-05
  0.2272727E+00  0.0000000E+00  0.1515152E-01  0.1502140E-06  0.0000000E+00  0.7999442E-05
  0.2373737E+00  0.0000000E+00  0.1515152E-01  0.1410486E-06  0.0000000E+00  0.8097516E-05
  0.2474747E+00  0.0000000E+00  0.1515152E-01  0.1312438E-06  0.0000000E+00  0.8189135E-05
  0.2575758E+00  0.0000000E+00  0.1515152E-01  0.1209562E-06  0.0000000E+00  0.8273929E-05
  0.2676768E+00  0.0000000E+00  0.1515152E-01  0.1103301E-06  0.0000000E+00  0.8351629E-05
  0.2777778E+00  0.0000000E+00  0.1515152E-01  0.9949488E-07  0.0000000E+00  0.8422059E-05
  0.2878788E+00  0.0000000E+00  0.1515152E-01  0.8856357E-07  0.0000000E+00  0.8485126E-05
  0.2979798E+00  0.0000000E+00  0.1515152E-01  0.7763206E-07  0.0000000E+00  0.8540807E-05
  0.3080808E+00  0.0000000E+00  0.1515152E-01  0.6677929E-07  0.0000000E+00  0.8589137E-05
  0.3181818E+00  0.0000000E+00  0.1515152E-01  0.5606773E-07  0.0000000E+00  0.8630199E-05
  0.3282828E+00  0.0000000E+00  0.1515152E-01  0.4554421E-07  0.0000000E+00  0.8664112E-05
  0.3383838E+00  0.0000000E+00  0.1515152E-01  0.3524080E-07  0.0000000E+00  0.8691020E-05
  0.3484848E+00  0.0000000E+00  0.1515152E-01  0.2517561E-07  0.0000000E+00  0.8711086E-05
  0.3585859E+00  0.0000000E+00  0.1515152E-01  0.1535366E-07  0.0000000E+00  0.8724478E-05
  0.3686869E+00  0.0000000E+00  0.1515152E-01  0.5767499E-08  0.0000000E+00  0.8731363E-05
  0.3787879E+00  0.0000000E+00  0.1515152E-01 -0.3602099E-08  0.0000000E+00  0.8731899E-05
  0.3888889E+00  0.0000000E+00  0.1515152E-01 -0.1278552E-07  0.0000000E+00  0.8726228E-05
  0.3989899E+00  0.0000000E+00  0.1515152E-01 -0.2182364E-07  0.0000000E+00  0.8714465E-05
  0.4090909E+00  0.0000000E+00  0.1515152E-01 -0.3076694E-07  0.0000000E+00  0.8696696E-05
  0.4191919E+00  0.0000000E+00  0.1515152E-01 -0.3967456E-07  0.0000000E+00  0.8672968E-05
  0.4292929E+00  0.0000000E+00  0.1515152E-01 -0.4861300E-07  0.0000000E+00  0.8643286E-05
  0.4393939E+00  0.0000000E+00  0.1515152E-01 -0.5765445E-07  0.0000000E+00  0.8607607E-05
  0.4494950E+00  0.0000000E+00  0.1515152E-01 -0.6687490E-07  0.0000000E+00  0.8565837E-05
  0.4595959E+00  0.0000000E+00  0.1515152E-01 -0.7635163E-07  0.0000000E+00  0.8517829E-05
  0.4696970E+00  0.0000000E+00  0.1515152E-01 -0.8616036E-07  0.0000000E+00  0.8463385E-05
  0.4797980E+00  0.0000000E+00  0.1515152E-01 -0.9637186E-07  0.0000000E+00  0.8402252E-05
  0.4898990E+00  0.0000000E+00  0.1515152E-01 -0.1070481E-06  0.0000000E+00  0.8334133E-05
  0.5000000E+00  0.0000000E+00  0.1515152E-01 -0.1182381E-06  0.0000000E+00  0.8258693E-05
  0.5101010E+00  0.0000000E+00  0.1515152E-01 -0.1299734E-06  0.0000000E+00  0.8175565E-05
  0.5202020E+00  0.0000000E+00  0.1515152E-01 -0.1422634E-06  0.0000000E+00  0.8084367E-05
  0.5303030E+00  0.0000000E+00  0.1515152E-01 -0.1550911E-06  0.0000000E+00  0.7984719E-05
  0.5404040E+00  0.0000000E+00  0.1515152E-01 -0.1684097E-06  0.0000000E+00  0.7876260E-05
  0.5505050E+00  0.0000000E+00  0.1515152E-01 -0.1821396E-06  0.0000000E+00  0.7758670E-05
  0.5606061E+00  0.0000000E+00  0.1515152E-01 -0.1961673E-06  0.0000000E+00  0.7631695E-05
  0.5707071E+00  0.0000000E+00  0.1515152E-01 -0.2103473E-06  0.0000000E+00  0.7495170E-05
  0.5808081E+00  0.0000000E+00  0.1515152E-01 -0.2245045E-06  0.0000000E+00  0.7349038E-05
  0.5909091E+00  0.0000000E+00  0.1515152E-01 -0.2384413E-06  0.0000000E+00  0.7193371E-05
  0.6010101E+00  0.0000000E+00  0.1515152E-01 -0.2519452E-06  0.0000000E+00  0.7028385E-05
  0.6111111E+00  0.0000000E+00  0.1515152E-01 -0.2647999E-06  0.0000000E+00  0.6854444E-05
  0.6212121E+00  0.0000000E+00  0.1515152E-01 -0.2767953E-06  0.0000000E+00  0.6672060E-05
  0.6313131E+00  0.0000000E+00  0.1515152E-01 -0.2877393E-06  0.0000000E+00  0.6481885E-05
  0.6414142E+00  0.0000000E+00  0.1515152E-01 -0.2974659E-06  0.0000000E+00  0.6284694E-05
  0.6515151E+00  0.0000000E+00  0.1515152E-01 -0.3058426E-06  0.0000000E+00  0.6081367E-05
  0.6616161E+00  0.0000000E+00  0.1515152E-01 -0.3127739E-06  0.0000000E+00  0.5872861E-05
  0.6717172E+00  0.0000000E+00  0.1515152E-01 -0.3182015E-06  0.0000000E+00  0.5660184E-05
  0.6818182E+00  0.0000000E+00  0.1515152E-01 -0.3221027E-06  0.0000000E+00  0.5444369E-05
  0.6919192E+00  0.0000000E+00  0.1515152E-01 -0.3244863E-06  0.0000000E+00  0.5226454E-05
  0.7020202E+00  0.0000000E+00  0.1515152E-01 -0.3253869E-06  0.0000000E+00  0.5007459E-05
  0.7121212E+00  0.0000000E+00  0.1515152E-01 -0.3248596E-06  0.0000000E+00  0.4788369E-05
  0.7222222E+00  0.0000000E+00  0.1515152E-01 -0.3229740E-06  0.0000000E+00  0.4570129E-05
  0.7323232E+00  0.0000000E+00  0.1515152E-01 -0.3198091E-06  0.0000000E+00  0.4353627E-05
  0.7424242E+00  0.0000000E+00  0.1515152E-01 -0.3154494E-06  0.0000000E+00  0.4139697E-05
  0.7525253E+00  0.0000000E+00  0.1515152E-01 -0.3099807E-06  0.0000000E+00  0.3929114E-05
  0.7626263E+00  0.0000000E+00  0.1515152E-01 -0.3034882E-06  0.0000000E+00  0.3722594E-05
  0.7727273E+00  0.0000000E+00  0.1515152E-01 -0.2960539E-06  0.0000000E+00  0.3520794E-05
  0.7828283E+00  0.0000000E+00  0.1515152E-01 -0.2877563E-06  0.0000000E+00  0.3324320E-05
  0.7929293E+00  0.0000000E+00  0.1515152E-01 -0.2786690E-06  0.0000000E+00  0.3133724E-05
  0.8030303E+00  0.0000000E+00  0.1515152E-01 -0.2688605E-06  0.0000000E+00  0.2949510E-05
  0.8131313E+00  0.0000000E+00  0.1515152E-01 -0.2583946E-06  0.0000000E+00  0.2772140E-05
  0.8232324E+00  0.0000000E+00  0.1515152E-01 -0.2473299E-06  0.0000000E+00  0.2602032E-05
  0.8333333E+00  0.0000000E+00  0.1515152E-01 -0.2357208E-06  0.0000000E+00  0.2439568E-05
  0.8434343E+00  0.0000000E+00  0.1515152E-01 -0.2236172E-06  0.0000000E+00  0.2285094E-05
  0.8535354E+00  0.0000000E+00  0.1515152E-01 -0.2110651E-06  0.0000000E+00  0.2138924E-05
  0.8636364E+00  0.0000000E+00  0.1515152E-01 -0.1981071E-06  0.0000000E+00  0.2001344E-05
  0.8737374E+00  0.0000000E+00  0.1515152E-01 -0.1847828E-06  0.0000000E+00  0.1872610E-05
  0.8838384E+00  0.0000000E+00  0.1515152E-01 -0.1711286E-06  0.0000000E+00  0.1752954E-05
  0.8939394E+00  0.0000000E+00  0.1515152E-01 -0.1571789E-06  0.0000000E+00  0.1642585E-05
  0.9040404E+00  0.0000000E+00  0.1515152E-01 -0.1429657E-06  0.0000000E+00  0.1541689E-05
  0.9141414E+00  0.0000000E+00  0.1515152E-01 -0.1285188E-06  0.0000000E+00  0.1450432E-05
  0.9242424E+00  0.0000000E+00  0.1515152E-01 -0.1138662E-06  0.0000000E+00  0.1368960E-05
  0.9343435E+00  0.0000000E+00  0.1515152E-01 -0.9903499E-07  0.0000000E+00  0.1297401E-05
  0.9444444E+00  0.0000000E+00  0.1515152E-01 -0.8405132E-07  0.0000000E+00  0.1235864E-05
  0.9545454E+00  0.0000000E+00  0.1515152E-01 -0.6894024E-07  0.0000000E+00  0.1184444E-05
  0.9646465E+00  0.0000000E+00  0.1515152E-01 -0.5372599E-07  0.0000000E+00  0.1143217E-05
  0.9747475E+00  0.0000000E+00  0.1515152E-01 -0.3843216E-07  0.0000000E+00  0.1112244E-05
  0.9848485E+00  0.0000000E+00  0.1515152E-01 -0.2308181E-07  0.0000000E+00  0.1091570E-05
  0.9974747E+00  0.0000000E+00  0.1515152E-01 -0.7697682E-08  0.0000000E+00  0.1081226E-05
  0.5050505E-02  0.0000000E+00  0.2525252E-01  0.1529518E-07  0.0000000E+00  0.6078854E-05
  0.1515152E-01  0.0000000E+00  0.2525252E-01  0.4573924E-07  0.0000000E+00  0.6091495E-05
  0.2525252E-01  0.0000000E+00  0.2525252E-01  0.7574496E-07  0.0000000E+00  0.6116657E-05
  0.3535353E-01  0.0000000E+00  0.2525252E-01  0.1050222E-06  0.0000000E+00  0.6154099E-05
  0.4545455E-01  0.0000000E+00  0.2525252E-01  0.1332841E-06  0.0000000E+00  0.6203464E-05
  0.5555556E-01  0.0000000E+00  0.2525252E-01  0.1602492E-06  0.0000000E+00  0.6264273E-05
  0.6565657E-01  0.0000000E+00  0.2525252E-01  0.1856437E-06  0.0000000E+00  0.6335936E-05
  0.7575758E-01  0.0000000E+00  0.2525252E-01  0.2092045E-06  0.0000000E+00  0.6417748E-05
  0.8585858E-01  0.0000000E+00  0.2525252E-01  0.2306833E-06  0.0000000E+00  0.6508897E-05
  0.9595960E-01  0.0000000E+00  0.2525252E-01  0.2498512E-06  0.0000000E+00  0.6608470E-05
  0.1060606E+00  0.0000000E+00  0.2525252E-01  0.2665037E-06  0.0000000E+00  0.6715460E-05
  0.1161616E+00  0.0000000E+00  0.2525252E-01  0.2804669E-06  0.0000000E+00  0.6828781E-05
  0.1262626E+00  0.0000000E+00  0.2525252E-01  0.2916035E-06  0.0000000E+00  0.6947277E-05
  0.1363636E+00  0.0000000E+00  0.2525252E-01  0.2998187E-06  0.0000000E+00  0.7069739E-05
  0.1464646E+00  0.0000000E+00  0.2525252E-01  0.3050655E-06  0.0000000E+00  0.7194928E-05
  0.1565657E+00  0.0000000E+00  0.2525252E-01  0.3073487E-06  0.0000000E+00  0.7321594E-05
  0.1666667E+00  0.0000000E+00  0.2525252E-01  0.3067271E-06  0.0000000E+00  0.7448499E-05
  0.1767677E+00  0.0000000E+00  0.2525252E-01  0.3033128E-06  0.0000000E+00  0.7574443E-05
  0.1868687E+00  0.0000000E+00  0.2525252E-01  0.2972687E-06  0.0000000E+00  0.7698284E-05
  0.1969697E+00  0.0000000E+00  0.2525252E-01  0.2888023E-06  0.0000000E+00  0.7818963E-05
  0.2070707E+00  0.0000000E+00  0.2525252E-01  0.2781572E-06  0.0000000E+00  0.7935522E-05
  0.2171717E+00  0.0000000E+00  0.2525252E-01  0.2656032E-06  0.0000000E+00  0.8047113E-05
  0.2272727E+00  0.0000000E+00  0.2525252E-01  0.2514250E-06  0.0000000E+00  0.8153014E-05
  0.2373737E+00  0.0000000E+00  0.2525252E-01  0.2359107E-06  0.0000000E+00  0.8252626E-05
  0.2474747E+00  0.0000000E+00  0.2525252E-01  0.2193419E-06  0.0000000E+00  0.8345475E-05
  0.2575758E+00  0.0000000E+00  0.2525252E-01  0.2019846E-06  0.0000000E+00  0.8431206E-05
  0.2676768E+00  0.0000000E+00  0.2525252E-01  0.1840834E-06  0.0000000E+00  0.8509571E-05
  0.2777778E+00  0.0000000E+00  0.2525252E-01  0.1658561E-06  0.0000000E+00  0.8580420E-05
  0.2878788E+00  0.0000000E+00  0.2525252E-01  0.1474923E-06  0.0000000E+00  0.8643686E-05
  0.2979798E+00  0.0000000E+00  0.2525252E-01  0.1291519E-06  0.0000000E+00  0.8699376E-05
  0.3080808E+00  0.0000000E+00  0.2525252E-01  0.1109660E-06  0.0000000E+00  0.8747554E-05
  0.3181818E+00  0.0000000E+00  0.2525252E-01  0.9303760E-07  0.0000000E+00  0.8788330E-05
  0.3282828E+00  0.0000000E+00  0.2525252E-01  0.7544371E-07  0.0000000E+00  0.8821849E-05
  0.3383838E+00  0.0000000E+00  0.2525252E-01  0.5823648E-07  0.0000000E+00  0.8848282E-05
  0.3484848E+00  0.0000000E+00  0.2525252E-01  0.4144493E-07  0.0000000E+00  0.8867814E-05
  0.3585859E+00  0.0000000E+00  0.2525252E-01  0.2507620E-07  0.0000000E+00  0.8880636E-05
  0.3686869E+00  0.0000000E+00  0.2525252E-01  0.9116718E-08  0.0000000E+00  0.8886937E-05
  0.3787879E+00  0.0000000E+00  0.2525252E-01 -0.6466751E-08  0.0000000E+00  0.8886893E-05
  0.3888889E+00  0.0000000E+00  0.2525252E-01 -0.2172615E-07  0.0000000E+00  0.8880664E-05
  0.3989899E+00  0.0000000E+00  0.2525252E-01 -0.3673103E-07  0.0000000E+00  0.8868383E-05
  0.4090909E+00  0.0000000E+00  0.2525252E-01 -0.5156726E-07  0.0000000E+00  0.8850149E-05
  0.4191919E+00  0.0000000E+00  0.2525252E-01 -0.6633543E-07  0.0000000E+00  0.8826021E-05
  0.4292929E+00  0.0000000E+00  0.2525252E-01 -0.8114874E-07  0.0000000E+00  0.8796012E-05
  0.4393939E+00  0.0000000E+00  0.2525252E-01 -0.9613040E-07  0.0000000E+00  0.8760087E-05
  0.4494950E+00  0.0000000E+00  0.2525252E-01 -0.1114104E-06  0.0000000E+00  0.8718153E-05
  0.4595959E+00  0.0000000E+00  0.2525252E-01 -0.1271215E-06  0.0000000E+00  0.8670059E-05
  0.4696970E+00  0.0000000E+00  0.2525252E-01 -0.1433942E-06  0.0000000E+00  0.8615599E-05
  0.4797980E+00  0.0000000E+00  0.2525252E-01 -0.1603515E-06  0.0000000E+00  0.8554507E-05
  0.4898990E+00  0.0000000E+00  0.2525252E-01 -0.1781021E-06  0.0000000E+00  0.8486467E-05
  0.5000000E+00  0.0000000E+00  0.2525252E-01 -0.1967332E-06  0.0000000E+00  0.8411113E-05
  0.5101010E+00  0.0000000E+00  0.2525252E-01 -0.2163031E-06  0.0000000E+00  0.8328047E-05
  0.5202020E+00  0.0000000E+00  0.2525252E-01 -0.2368326E-06  0.0000000E+00  0.8236846E-05
  0.5303030E+00  0.0000000E+00  0.2525252E-01 -0.2582980E-06  0.0000000E+00  0.8137081E-05
  0.5404040E+00  0.0000000E+00  0.2525252E-01 -0.2806242E-06  0.0000000E+00  0.8028341E-05
  0.5505050E+00  0.0000000E+00  0.2525252E-01 -0.3036793E-06  0.0000000E+00  0.7910252E-05
  0.5606061E+00  0.0000000E+00  0.2525252E-01 -0.3272731E-06  0.0000000E+00  0.7782507E-05
  0.5707071E+00  0.0000000E+00  0.2525252E-01 -0.3511580E-06  0.0000000E+00  0.7644891E-05
  0.5808081E+00  0.0000000E+00  0.2525252E-01 -0.3750347E-06  0.0000000E+00  0.7497306E-05
  0.5909091E+00  0.0000000E+00  0.2525252E-01 -0.3985629E-06  0.0000000E+00  0.7339796E-05
  0.6010101E+00  0.0000000E+00  0.2525252E-01 -0.4213758E-06  0.0000000E+00  0.7172560E-05
  0.6111111E+00  0.0000000E+00  0.2525252E-01 -0.4430987E-06  0.0000000E+00  0.6995965E-05
  0.6212121E+00  0.0000000E+00  0.2525252E-01 -0.4633682E-06  0.0000000E+00  0.6810544E-05
  0.6313131E+00  0.0000000E+00  0.2525252E-01 -0.4818518E-06  0.0000000E+00  0.6616984E-05
  0.6414142E+00  0.0000000E+00  0.2525252E-01 -0.4982644E-06  0.0000000E+00  0.6416111E-05
  0.6515151E+00  0.0000000E+00  0.2525252E-01 -0.5123795E-06  0.0000000E+00  0.6208862E-05
  0.6616161E+00  0.0000000E+00  0.2525252E-01 -0.5240363E-06  0.0000000E+00  0.5996257E-05
  0.6717172E+00  0.0000000E+00  0.2525252E-01 -0.5331395E-06  0.0000000E+00  0.5779368E-05
  0.6818182E+00  0.0000000E+00  0.2525252E-01 -0.5396556E-06  0.0000000E+00  0.5559287E-05
  0.6919192E+00  0.0000000E+00  0.2525252E-01 -0.5436050E-06  0.0000000E+00  0.5337105E-05
  0.7020202E+00  0.0000000E+00  0.2525252E-01 -0.5450521E-06  0.0000000E+00  0.5113886E-05
  0.7121212E+00  0.0000000E+00  0.2525252E-01 -0.5440956E-06  0.0000000E+00  0.4890654E-05
  0.7222222E+00  0.0000000E+00  0.2525252E-01 -0.5408578E-06  0.0000000E+00  0.4668380E-05
  0.7323232E+00  0.0000000E+00  0.2525252E-01 -0.5354759E-06  0.0000000E+00  0.4447975E-05
  0.7424242E+00  0.0000000E+00  0.2525252E-01 -0.5280950E-06  0.0000000E+00  0.4230287E-05
  0.7525253E+00  0.0000000E+00  0.2525252E-01 -0.5188620E-06  0.0000000E+00  0.4016100E-05
  0.7626263E+00  0.0000000E+00  0.2525252E-01 -0.5079213E-06  0.0000000E+00  0.3806136E-05
  0.7727273E+00  0.0000000E+00  0.2525252E-01 -0.4954120E-06  0.0000000E+00  0.3601057E-05
  0.7828283E+00  0.0000000E+00  0.2525252E-01 -0.4814658E-06  0.0000000E+00  0.3401466E-05
  0.7929293E+00  0.0000000E+00  0.2525252E-01 -0.4662064E-06  0.0000000E+00  0.3207917E-05
  0.8030303E+00  0.0000000E+00  0.2525252E-01 -0.4497485E-06  0.0000000E+00  0.3020911E-05
  0.8131313E+00  0.0000000E+00  0.2525252E-01 -0.4321984E-06  0.0000000E+00  0.2840906E-05
  0.8232324E+00  0.0000000E+00  0.2525252E-01 -0.4136542E-06  0.0000000E+00  0.2668320E-05
  0.8333333E+00  0.0000000E+00  0.2525252E-01 -0.3942059E-06  0.0000000E+00  0.2503529E-05
  0.8434343E+00  0.0000000E+00  0.2525252E-01 -0.3739368E-06  0.0000000E+00  0.2346880E-05
  0.8535354E+00  0.0000000E+00  0.2525252E-01 -0.3529233E-06  0.0000000E+00  0.2198682E-05
  0.8636364E+00  0.0000000E+00  0.2525252E-01 -0.3312362E-06  0.0000000E+00  0.2059218E-05
  0.8737374E+00  0.0000000E+00  0.2525252E-01 -0.3089409E-06  0.0000000E+00  0.1928744E-05
  0.8838384E+00  0.0000000E+00  0.2525252E-01 -0.2860983E-06  0.0000000E+00  0.1807490E-05
  0.8939394E+00  0.0000000E+00  0.2525252E-01 -0.2627651E-06  0.0000000E+00  0.1695661E-05
  0.9040404E+00  0.0000000E+00  0.2525252E-01 -0.2389945E-06  0.0000000E+00  0.1593444E-05
  0.9141414E+00  0.0000000E+00  0.2525252E-01 -0.2148362E-06  0.0000000E+00  0.1501001E-05
  0.9242424E+00  0.0000000E+00  0.2525252E-01 -0.1903369E-06  0.0000000E+00  0.1418478E-05
  0.9343435E+00  0.0000000E+00  0.2525252E-01 -0.1655412E-06  0.0000000E+00  0.1346001E-05
  0.9444444E+00  0.0000000E+00  0.2525252E-01 -0.1404925E-06  0.0000000E+00  0.1283680E-05
  0.9545454E+00  0.0000000E+00  0.2525252E-01 -0.1152322E-06  0.0000000E+00  0.1231607E-05
  0.9646465E+00  0.0000000E+00  0.2525252E-01 -0.8980065E-07  0.0000000E+00  0.1189859E-05
  0.9747475E+00  0.0000000E+00  0.2525252E-01 -0.6423701E-07  0.0000000E+00  0.1158495E-05
  0.9848485E+00  0.0000000E+00  0.2525252E-01 -0.3857957E-07  0.0000000E+00  0.1137561E-05
  0.9974747E+00  0.0000000E+00  0.2525252E-01 -0.1286607E-07  0.0000000E+00  0.1127086E-05
  0.5050505E-02  0.0000000E+00  0.3535353E-01  0.2169993E-07  0.0000000E+00  0.6228008E-05
  0.1515152E-01  0.0000000E+00  0.3535353E-01  0.6489310E-07  0.0000000E+00  0.6241197E-05
  0.2525252E-01  0.0000000E+00  0.3535353E-01  0.1074669E-06  0.0000000E+00  0.6267451E-05
  0.3535353E-01  0.0000000E+00  0.3535353E-01  0.1490109E-06  0.0000000E+00  0.6306524E-05
  0.4545455E-01  0.0000000E+00  0.3535353E-01  0.1891187E-06  0.0000000E+00  0.6358043E-05
  0.5555556E-01  0.0000000E+00  0.3535353E-01  0.2273908E-06  0.0000000E+00  0.6421516E-05
  0.6565657E-01  0.0000000E+00  0.3535353E-01  0.2634373E-06  0.0000000E+00  0.6496328E-05
  0.7575758E-01  0.0000000E+00  0.3535353E-01  0.2968825E-06  0.0000000E+00  0.6581747E-05
  0.8585858E-01  0.0000000E+00  0.3535353E-01  0.3273704E-06  0.0000000E+00  0.6676925E-05
  0.9595960E-01  0.0000000E+00  0.3535353E-01  0.3545711E-06  0.0000000E+00  0.6780903E-05
  0.1060606E+00  0.0000000E+00  0.3535353E-01  0.3781887E-06  0.0000000E+00  0.6892623E-05
  0.1161616E+00  0.0000000E+00  0.3535353E-01  0.3979700E-06  0.0000000E+00  0.7010936E-05
  0.1262626E+00  0.0000000E+00  0.3535353E-01  0.4137134E-06  0.0000000E+00  0.7134614E-05
  0.1363636E+00  0.0000000E+00  0.3535353E-01  0.4252784E-06  0.0000000E+00  0.7262372E-05
  0.1464646E+00  0.0000000E+00  0.3535353E-01  0.4325938E-06  0.0000000E+00  0.7392884E-05
  0.1565657E+00  0.0000000E+00  0.3535353E-01  0.4356641E-06  0.0000000E+00  0.7524811E-05
  0.1666667E+00  0.0000000E+00  0.3535353E-01  0.4345731E-06  0.0000000E+00  0.7656827E-05
  0.1767677E+00  0.0000000E+00  0.3535353E-01  0.4294841E-06  0.0000000E+00  0.7787645E-05
  0.1868687E+00  0.0000000E+00  0.3535353E-01  0.4206355E-06  0.0000000E+00  0.7916045E-05
  0.1969697E+00  0.0000000E+00  0.3535353E-01  0.4083323E-06  0.0000000E+00  0.8040903E-05
  0.2070707E+00  0.0000000E+00  0.3535353E-01  0.3929328E-06  0.0000000E+00  0.8161205E-05
  0.2171717E+00  0.0000000E+00  0.3535353E-01  0.3748337E-06  0.0000000E+00  0.8276071E-05
  0.2272727E+00  0.0000000E+00  0.3535353E-01  0.3544521E-06  0.0000000E+00  0.8384759E-05
  0.2373737E+00  0.0000000E+00  0.3535353E-01  0.3322090E-06  0.0000000E+00  0.8486670E-05
  0.2474747E+00  0.0000000E+00  0.3535353E-01  0.3085133E-06  0.0000000E+00  0.8581342E-05
  0.2575758E+00  0.0000000E+00  0.3535353E-01  0.2837493E-06  0.0000000E+00  0.8668447E-05
  0.2676768E+00  0.0000000E+00  0.3535353E-01  0.2582672E-06  0.0000000E+00  0.8747770E-05
  0.2777778E+00  0.0000000E+00  0.3535353E-01  0.2323774E-06  0.0000000E+00  0.8819203E-05
  0.2878788E+00  0.0000000E+00  0.3535353E-01  0.2063471E-06  0.0000000E+00  0.8882722E-05
  0.2979798E+00  0.0000000E+00  0.3535353E-01  0.1804004E-06  0.0000000E+00  0.8938379E-05