title = "dataset water"
variables = "x", "y", "z", "vx", "vy", "vz"
zone t = "velocities, solution time =  6.000E+01 days        " i =   99, j =   99, k =    1,  f=point
  0.5050505E-02  0.0000000E+00  0.5050505E-02  0.5538979E-07  0.0000000E+00  0.1091931E-03
  0.1515152E-01  0.0000000E+00  0.5050505E-02  0.1660338E-06  0.0000000E+00  0.1094182E-03
  0.2525252E-01  0.0000000E+00  0.5050505E-02  0.2762641E-06  0.0000000E+00  0.1098677E-03
  0.3535353E-01  0.0000000E+00  0.5050505E-02  0.3857747E-06  0.0000000E+00  0.1105407E-03
  0.4545455E-01  0.0000000E+00  0.5050505E-02  0.4942116E-06  0.0000000E+00  0.1114353E-03
  0.5555556E-01  0.0000000E+00  0.5050505E-02  0.6011529E-06  0.0000000E+00  0.1125489E-03
  0.6565657E-01  0.0000000E+00  0.5050505E-02  0.7060895E-06  0.0000000E+00  0.1138781E-03
  0.7575758E-01  0.0000000E+00  0.5050505E-02  0.8084054E-06  0.0000000E+00  0.1154183E-03
  0.8585858E-01  0.0000000E+00  0.5050505E-02  0.9073561E-06  0.0000000E+00  0.1171636E-03
  0.9595960E-01  0.0000000E+00  0.5050505E-02  0.1002041E-05  0.0000000E+00  0.1191061E-03
  0.1060606E+00  0.0000000E+00  0.5050505E-02  0.1091362E-05  0.0000000E+00  0.1212365E-03
  0.1161616E+00  0.0000000E+00  0.5050505E-02  0.1173956E-05  0.0000000E+00  0.1235423E-03
  0.1262626E+00  0.0000000E+00  0.5050505E-02  0.1248072E-05  0.0000000E+00  0.1260084E-03
  0.1363636E+00  0.0000000E+00  0.5050505E-02  0.1311353E-05  0.0000000E+00  0.1286151E-03
  0.1464646E+00  0.0000000E+00  0.5050505E-02  0.1360450E-05  0.0000000E+00  0.1313371E-03
  0.1565657E+00  0.0000000E+00  0.5050505E-02  0.1390373E-05  0.0000000E+00  0.1341406E-03
  0.1666667E+00  0.0000000E+00  0.5050505E-02  0.1393500E-05  0.0000000E+00  0.1369787E-03
  0.1767677E+00  0.0000000E+00  0.5050505E-02  0.1358272E-05  0.0000000E+00  0.1397851E-03
  0.1868687E+00  0.0000000E+00  0.5050505E-02  0.1268155E-05  0.0000000E+00  0.1424645E-03
  0.1969697E+00  0.0000000E+00  0.5050505E-02  0.1102612E-05  0.0000000E+00  0.1448839E-03
  0.2070707E+00  0.0000000E+00  0.5050505E-02  0.8440725E-06  0.0000000E+00  0.1468711E-03
  0.2171717E+00  0.0000000E+00  0.5050505E-02  0.4959717E-06  0.0000000E+00  0.1482394E-03
  0.2272727E+00  0.0000000E+00  0.5050505E-02  0.1081616E-06  0.0000000E+00  0.1488563E-03
  0.2373737E+00  0.0000000E+00  0.5050505E-02 -0.2281298E-06  0.0000000E+00  0.1487338E-03
  0.2474747E+00  0.0000000E+00  0.5050505E-02 -0.4687601E-06  0.0000000E+00  0.1480221E-03
  0.2575758E+00  0.0000000E+00  0.5050505E-02 -0.6151429E-06  0.0000000E+00  0.1469154E-03
  0.2676768E+00  0.0000000E+00  0.5050505E-02 -0.6884425E-06  0.0000000E+00  0.1455845E-03
  0.2777778E+00  0.0000000E+00  0.5050505E-02 -0.7126885E-06  0.0000000E+00  0.1441544E-03
  0.2878788E+00  0.0000000E+00  0.5050505E-02 -0.7084257E-06  0.0000000E+00  0.1427040E-03
  0.2979798E+00  0.0000000E+00  0.5050505E-02 -0.6917486E-06  0.0000000E+00  0.1412753E-03
  0.3080808E+00  0.0000000E+00  0.5050505E-02 -0.6749806E-06  0.0000000E+00  0.1398810E-03
  0.3181818E+00  0.0000000E+00  0.5050505E-02 -0.6672394E-06  0.0000000E+00  0.1385119E-03
  0.3282828E+00  0.0000000E+00  0.5050505E-02 -0.6742637E-06  0.0000000E+00  0.1371438E-03
  0.3383838E+00  0.0000000E+00  0.5050505E-02 -0.6975143E-06  0.0000000E+00  0.1357450E-03
  0.3484848E+00  0.0000000E+00  0.5050505E-02 -0.7331749E-06  0.0000000E+00  0.1342864E-03
  0.3585859E+00  0.0000000E+00  0.5050505E-02 -0.7723355E-06  0.0000000E+00  0.1327518E-03
  0.3686869E+00  0.0000000E+00  0.5050505E-02 -0.8036412E-06  0.0000000E+00  0.1311457E-03
  0.3787879E+00  0.0000000E+00  0.5050505E-02 -0.8177033E-06  0.0000000E+00  0.1294937E-03
  0.3888889E+00  0.0000000E+00  0.5050505E-02 -0.8096223E-06  0.0000000E+00  0.1278359E-03
  0.3989899E+00  0.0000000E+00  0.5050505E-02 -0.7789159E-06  0.0000000E+00  0.1262180E-03
  0.4090909E+00  0.0000000E+00  0.5050505E-02 -0.7280975E-06  0.0000000E+00  0.1246834E-03
  0.4191919E+00  0.0000000E+00  0.5050505E-02 -0.6611190E-06  0.0000000E+00  0.1232689E-03
  0.4292929E+00  0.0000000E+00  0.5050505E-02 -0.5822368E-06  0.0000000E+00  0.1220032E-03
  0.4393939E+00  0.0000000E+00  0.5050505E-02 -0.4953777E-06  0.0000000E+00  0.1209064E-03
  0.4494950E+00  0.0000000E+00  0.5050505E-02 -0.4038771E-06  0.0000000E+00  0.1199912E-03
  0.4595959E+00  0.0000000E+00  0.5050505E-02 -0.3104401E-06  0.0000000E+00  0.1192642E-03
  0.4696970E+00  0.0000000E+00  0.5050505E-02 -0.2172103E-06  0.0000000E+00  0.1187273E-03
  0.4797980E+00  0.0000000E+00  0.5050505E-02 -0.1258769E-06  0.0000000E+00  0.1183782E-03
  0.4898990E+00  0.0000000E+00  0.5050505E-02 -0.3778421E-07  0.0000000E+00  0.1182117E-03
  0.5000000E+00  0.0000000E+00  0.5050505E-02  0.4597062E-07  0.0000000E+00  0.1182200E-03
  0.5101010E+00  0.0000000E+00  0.5050505E-02  0.1244571E-06  0.0000000E+00  0.1183934E-03
  0.5202020E+00  0.0000000E+00  0.5050505E-02  0.1968490E-06  0.0000000E+00  0.1187204E-03
  0.5303030E+00  0.0000000E+00  0.5050505E-02  0.2623690E-06  0.0000000E+00  0.1191877E-03
  0.5404040E+00  0.0000000E+00  0.5050505E-02  0.3202426E-06  0.0000000E+00  0.1197805E-03
  0.5505050E+00  0.0000000E+00  0.5050505E-02  0.3696546E-06  0.0000000E+00  0.1204827E-03
  0.5606061E+00  0.0000000E+00  0.5050505E-02  0.4096975E-06  0.0000000E+00  0.1212759E-03
  0.5707071E+00  0.0000000E+00  0.5050505E-02  0.4392971E-06  0.0000000E+00  0.1221401E-03
  0.5808081E+00  0.0000000E+00  0.5050505E-02  0.4570755E-06  0.0000000E+00  0.1230526E-03
  0.5909091E+00  0.0000000E+00  0.5050505E-02  0.4610787E-06  0.0000000E+00  0.1239874E-03
  0.6010101E+00  0.0000000E+00  0.5050505E-02  0.4482168E-06  0.0000000E+00  0.1249132E-03
  0.6111111E+00  0.0000000E+00  0.5050505E-02  0.4131140E-06  0.0000000E+00  0.1257904E-03
  0.6212121E+00  0.0000000E+00  0.5050505E-02  0.3458060E-06  0.0000000E+00  0.1265633E-03
  0.6313131E+00  0.0000000E+00  0.5050505E-02  0.2274322E-06  0.0000000E+00  0.1271471E-03
  0.6414142E+00  0.0000000E+00  0.5050505E-02  0.2344526E-07  0.0000000E+00  0.1274027E-03
  0.6515151E+00  0.0000000E+00  0.5050505E-02 -0.3219548E-06  0.0000000E+00  0.1270986E-03
  0.6616161E+00  0.0000000E+00  0.5050505E-02 -0.8688118E-06  0.0000000E+00  0.1258859E-03
  0.6717172E+00  0.0000000E+00  0.5050505E-02 -0.1575475E-05  0.0000000E+00  0.1233974E-03
  0.6818182E+00  0.0000000E+00  0.5050505E-02 -0.2051180E-05  0.0000000E+00  0.1197067E-03
  0.6919192E+00  0.0000000E+00  0.5050505E-02 -0.2270874E-05  0.0000000E+00  0.1153106E-03
  0.7020202E+00  0.0000000E+00  0.5050505E-02 -0.2316721E-05  0.0000000E+00  0.1106470E-03
  0.7121212E+00  0.0000000E+00  0.5050505E-02 -0.2264098E-05  0.0000000E+00  0.1059929E-03
  0.7222222E+00  0.0000000E+00  0.5050505E-02 -0.2161656E-05  0.0000000E+00  0.1014987E-03
  0.7323232E+00  0.0000000E+00  0.5050505E-02 -0.2037134E-05  0.0000000E+00  0.9723731E-04
  0.7424242E+00  0.0000000E+00  0.5050505E-02 -0.1905466E-05  0.0000000E+00  0.9323784E-04
  0.7525253E+00  0.0000000E+00  0.5050505E-02 -0.1774409E-05  0.0000000E+00  0.8950658E-04
  0.7626263E+00  0.0000000E+00  0.5050505E-02 -0.1647825E-05  0.0000000E+00  0.8603803E-04
  0.7727273E+00  0.0000000E+00  0.5050505E-02 -0.1527475E-05  0.0000000E+00  0.8282102E-04
  0.7828283E+00  0.0000000E+00  0.5050505E-02 -0.1413998E-05  0.0000000E+00  0.7984199E-04
  0.7929293E+00  0.0000000E+00  0.5050505E-02 -0.1307431E-05  0.0000000E+00  0.7708675E-04
  0.8030303E+00  0.0000000E+00  0.5050505E-02 -0.1207497E-05  0.0000000E+00  0.7454136E-04
  0.8131313E+00  0.0000000E+00  0.5050505E-02 -0.1113773E-05  0.0000000E+00  0.7219265E-04
  0.8232324E+00  0.0000000E+00  0.5050505E-02 -0.1025772E-05  0.0000000E+00  0.7002839E-04
  0.8333333E+00  0.0000000E+00  0.5050505E-02 -0.9429956E-06  0.0000000E+00  0.6803736E-04
  0.8434343E+00  0.0000000E+00  0.5050505E-02 -0.8649633E-06  0.0000000E+00  0.6620937E-04
  0.8535354E+00  0.0000000E+00  0.5050505E-02 -0.7912222E-06  0.0000000E+00  0.6453518E-04
  0.8636364E+00  0.0000000E+00  0.5050505E-02 -0.7213536E-06  0.0000000E+00  0.6300644E-04
  0.8737374E+00  0.0000000E+00  0.5050505E-02 -0.6549736E-06  0.0000000E+00  0.6161565E-04
  0.8838384E+00  0.0000000E+00  0.5050505E-02 -0.5917306E-06  0.0000000E+00  0.6035603E-04
  0.8939394E+00  0.0000000E+00  0.5050505E-02 -0.5313017E-06  0.0000000E+00  0.5922153E-04
  0.9040404E+00  0.0000000E+00  0.5050505E-02 -0.4733884E-06  0.0000000E+00  0.5820670E-04
  0.9141414E+00  0.0000000E+00  0.5050505E-02 -0.4177123E-06  0.0000000E+00  0.5730671E-04
  0.9242424E+00  0.0000000E+00  0.5050505E-02 -0.3640109E-06  0.0000000E+00  0.5651726E-04
  0.9343435E+00  0.0000000E+00  0.5050505E-02 -0.3120340E-06  0.0000000E+00  0.5583459E-04
  0.9444444E+00  0.0000000E+00  0.5050505E-02 -0.2615403E-06  0.0000000E+00  0.5525544E-04
  0.9545454E+00  0.0000000E+00  0.5050505E-02 -0.2122948E-06  0.0000000E+00  0.5477702E-04
  0.9646465E+00  0.0000000E+00  0.5050505E-02 -0.1640668E-06  0.0000000E+00  0.5439704E-04
  0.9747475E+00  0.0000000E+00  0.5050505E-02 -0.1166281E-06  0.0000000E+00  0.5411365E-04
  0.9848485E+00  0.0000000E+00  0.5050505E-02 -0.6975214E-07  0.0000000E+00  0.5392549E-04
  0.9974747E+00  0.0000000E+00  0.5050505E-02 -0.2321331E-07  0.0000000E+00  0.5383164E-04
  0.5050505E-02  0.0000000E+00  0.1515152E-01  0.1663447E-06  0.0000000E+00  0.1093582E-03
  0.1515152E-01  0.0000000E+00  0.1515152E-01  0.4986390E-06  0.0000000E+00  0.1095847E-03
  0.2525252E-01  0.0000000E+00  0.1515152E-01  0.8297248E-06  0.0000000E+00  0.1100371E-03
  0.3535353E-01  0.0000000E+00  0.1515152E-01  0.1158704E-05  0.0000000E+00  0.1107145E-03
  0.4545455E-01  0.0000000E+00  0.1515152E-01  0.1484531E-05  0.0000000E+00  0.1116150E-03
  0.5555556E-01  0.0000000E+00  0.1515152E-01  0.1805959E-05  0.0000000E+00  0.1127364E-03
  0.6565657E-01  0.0000000E+00  0.1515152E-01  0.2121475E-05  0.0000000E+00  0.1140754E-03
  0.7575758E-01  0.0000000E+00  0.1515152E-01  0.2429249E-05  0.0000000E+00  0.1156274E-03
  0.8585858E-01  0.0000000E+00  0.1515152E-01  0.2727067E-05  0.0000000E+00  0.1173869E-03
  0.9595960E-01  0.0000000E+00  0.1515152E-01  0.3012262E-05  0.0000000E+00  0.1193464E-03
  0.1060606E+00  0.0000000E+00  0.1515152E-01  0.3281598E-05  0.0000000E+00  0.1214968E-03
  0.1161616E+00  0.0000000E+00  0.1515152E-01  0.3531095E-05  0.0000000E+00  0.1238262E-03
  0.1262626E+00  0.0000000E+00  0.1515152E-01  0.3755703E-05  0.0000000E+00  0.1263204E-03
  0.1363636E+00  0.0000000E+00  0.1515152E-01  0.3948720E-05  0.0000000E+00  0.1289612E-03
  0.1464646E+00  0.0000000E+00  0.1515152E-01  0.4100724E-05  0.0000000E+00  0.1317257E-03
  0.1565657E+00  0.0000000E+00  0.1515152E-01  0.4197725E-05  0.0000000E+00  0.1345840E-03
  0.1666667E+00  0.0000000E+00  0.1515152E-01  0.4218124E-05  0.0000000E+00  0.1374957E-03
  0.1767677E+00  0.0000000E+00  0.1515152E-01  0.4128301E-05  0.0000000E+00  0.1404031E-03
  0.1868687E+00  0.0000000E+00  0.1515152E-01  0.3877726E-05  0.0000000E+00  0.1432197E-03
  0.1969697E+00  0.0000000E+00  0.1515152E-01  0.3398046E-05  0.0000000E+00  0.1458132E-03
  0.2070707E+00  0.0000000E+00  0.1515152E-01  0.2618989E-05  0.0000000E+00  0.1479871E-03
  0.2171717E+00  0.0000000E+00  0.1515152E-01  0.1526080E-05  0.0000000E+00  0.1494873E-03
  0.2272727E+00  0.0000000E+00  0.1515152E-01  0.2737889E-06  0.0000000E+00  0.1500935E-03
  0.2373737E+00  0.0000000E+00  0.1515152E-01 -0.7779353E-06  0.0000000E+00  0.1498232E-03
  0.2474747E+00  0.0000000E+00  0.1515152E-01 -0.1498362E-05  0.0000000E+00  0.1489196E-03
  0.2575758E+00  0.0000000E+00  0.1515152E-01 -0.1916911E-05  0.0000000E+00  0.1476423E-03
  0.2676768E+00  0.0000000E+00  0.1515152E-01 -0.2113507E-05  0.0000000E+00  0.1461852E-03
  0.2777778E+00  0.0000000E+00  0.1515152E-01 -0.2166385E-05  0.0000000E+00  0.1446725E-03
  0.2878788E+00  0.0000000E+00  0.1515152E-01 -0.2138083E-05  0.0000000E+00  0.1431757E-03
  0.2979798E+00  0.0000000E+00  0.1515152E-01 -0.2076193E-05  0.0000000E+00  0.1417286E-03
  0.3080808E+00  0.0000000E+00  0.1515152E-01 -0.2017120E-05  0.0000000E+00  0.1403370E-03
  0.3181818E+00  0.0000000E+00  0.1515152E-01 -0.1988381E-05  0.0000000E+00  0.1389853E-03
  0.3282828E+00  0.0000000E+00  0.1515152E-01 -0.2008070E-05  0.0000000E+00  0.1376415E-03
  0.3383838E+00  0.0000000E+00  0.1515152E-01 -0.2081555E-05  0.0000000E+00  0.1362647E-03
  0.3484848E+00  0.0000000E+00  0.1515152E-01 -0.2197218E-05  0.0000000E+00  0.1348152E-03
  0.3585859E+00  0.0000000E+00  0.1515152E-01 -0.2325749E-05  0.0000000E+00  0.1332694E-03
  0.3686869E+00  0.0000000E+00  0.1515152E-01 -0.2428769E-05  0.0000000E+00  0.1316314E-03
  0.3787879E+00  0.0000000E+00  0.1515152E-01 -0.2475646E-05  0.0000000E+00  0.1299333E-03
  0.3888889E+00  0.0000000E+00  0.1515152E-01 -0.2451751E-05  0.0000000E+00  0.1282243E-03
  0.3989899E+00  0.0000000E+00  0.1515152E-01 -0.2357027E-05  0.0000000E+00  0.1265576E-03
  0.4090909E+00  0.0000000E+00  0.1515152E-01 -0.2200536E-05  0.0000000E+00  0.1249812E-03
  0.4191919E+00  0.0000000E+00  0.1515152E-01 -0.1995244E-05  0.0000000E+00  0.1235339E-03
  0.4292929E+00  0.0000000E+00  0.1515152E-01 -0.1754540E-05  0.0000000E+00  0.1222444E-03
  0.4393939E+00  0.0000000E+00  0.1515152E-01 -0.1490459E-05  0.0000000E+00  0.1211319E-03
  0.4494950E+00  0.0000000E+00  0.1515152E-01 -0.1213048E-05  0.0000000E+00  0.1202080E-03
  0.4595959E+00  0.0000000E+00  0.1515152E-01 -0.9303535E-06  0.0000000E+00  0.1194784E-03
  0.4696970E+00  0.0000000E+00  0.1515152E-01 -0.6487041E-06  0.0000000E+00  0.1189438E-03
  0.4797980E+00  0.0000000E+00  0.1515152E-01 -0.3730603E-06  0.0000000E+00  0.1186013E-03
  0.4898990E+00  0.0000000E+00  0.1515152E-01 -0.1073612E-06  0.0000000E+00  0.1184450E-03
  0.5000000E+00  0.0000000E+00  0.1515152E-01  0.1451789E-06  0.0000000E+00  0.1184668E-03
  0.5101010E+00  0.0000000E+00  0.1515152E-01  0.3818317E-06  0.0000000E+00  0.1186568E-03
  0.5202020E+00  0.0000000E+00  0.1515152E-01  0.6001660E-06  0.0000000E+00  0.1190031E-03
  0.5303030E+00  0.0000000E+00  0.1515152E-01  0.7978874E-06  0.0000000E+00  0.1194926E-03
  0.5404040E+00  0.0000000E+00  0.1515152E-01  0.9727038E-06  0.0000000E+00  0.1201105E-03
  0.5505050E+00  0.0000000E+00  0.1515152E-01  0.1122203E-05  0.0000000E+00  0.1208404E-03
  0.5606061E+00  0.0000000E+00  0.1515152E-01  0.1243715E-05  0.0000000E+00  0.1216644E-03
  0.5707071E+00  0.0000000E+00  0.1515152E-01  0.1334123E-05  0.0000000E+00  0.1225627E-03
  0.5808081E+00  0.0000000E+00  0.1515152E-01  0.1389525E-05  0.0000000E+00  0.1235131E-03
  0.5909091E+00  0.0000000E+00  0.1515152E-01  0.1404565E-05  0.0000000E+00  0.1244911E-03
  0.6010101E+00  0.0000000E+00  0.1515152E-01  0.1371053E-05  0.0000000E+00  0.1254684E-03
  0.6111111E+00  0.0000000E+00  0.1515152E-01  0.1275069E-05  0.0000000E+00  0.1264116E-03
  0.6212121E+00  0.0000000E+00  0.1515152E-01  0.1090909E-05  0.0000000E+00  0.1272778E-03
  0.6313131E+00  0.0000000E+00  0.1515152E-01  0.7686487E-06  0.0000000E+00  0.1280059E-03
  0.6414142E+00  0.0000000E+00  0.1515152E-01  0.2101768E-06  0.0000000E+00  0.1284927E-03
  0.6515151E+00  0.0000000E+00  0.1515152E-01 -0.7683949E-06  0.0000000E+00  0.1285314E-03
  0.6616161E+00  0.0000000E+00  0.1515152E-01 -0.2451018E-05  0.0000000E+00  0.1276743E-03
  0.6717172E+00  0.0000000E+00  0.1515152E-01 -0.4956045E-05  0.0000000E+00  0.1251029E-03
  0.6818182E+00  0.0000000E+00  0.1515152E-01 -0.6409301E-05  0.0000000E+00  0.1209080E-03
  0.6919192E+00  0.0000000E+00  0.1515152E-01 -0.6988789E-05  0.0000000E+00  0.1160611E-03
  0.7020202E+00  0.0000000E+00  0.1515152E-01 -0.7052867E-05  0.0000000E+00  0.1111021E-03
  0.7121212E+00  0.0000000E+00  0.1515152E-01 -0.6847355E-05  0.0000000E+00  0.1062760E-03
  0.7222222E+00  0.0000000E+00  0.1515152E-01 -0.6512637E-05  0.0000000E+00  0.1016866E-03
  0.7323232E+00  0.0000000E+00  0.1515152E-01 -0.6124058E-05  0.0000000E+00  0.9737345E-04
  0.7424242E+00  0.0000000E+00  0.1515152E-01 -0.5720981E-05  0.0000000E+00  0.9334630E-04
  0.7525253E+00  0.0000000E+00  0.1515152E-01 -0.5323516E-05  0.0000000E+00  0.8960052E-04
  0.7626263E+00  0.0000000E+00  0.1515152E-01 -0.4941516E-05  0.0000000E+00  0.8612467E-04
  0.7727273E+00  0.0000000E+00  0.1515152E-01 -0.4579342E-05  0.0000000E+00  0.8290436E-04
  0.7828283E+00  0.0000000E+00  0.1515152E-01 -0.4238405E-05  0.0000000E+00  0.7992424E-04
  0.7929293E+00  0.0000000E+00  0.1515152E-01 -0.3918541E-05  0.0000000E+00  0.7716910E-04
  0.8030303E+00  0.0000000E+00  0.1515152E-01 -0.3618770E-05  0.0000000E+00  0.7462446E-04
  0.8131313E+00  0.0000000E+00  0.1515152E-01 -0.3337730E-05  0.0000000E+00  0.7227681E-04
  0.8232324E+00  0.0000000E+00  0.1515152E-01 -0.3073910E-05  0.0000000E+00  0.7011375E-04
  0.8333333E+00  0.0000000E+00  0.1515152E-01 -0.2825788E-05  0.0000000E+00  0.6812395E-04
  0.8434343E+00  0.0000000E+00  0.1515152E-01 -0.2591904E-05  0.0000000E+00  0.6629719E-04
  0.8535354E+00  0.0000000E+00  0.1515152E-01 -0.2370891E-05  0.0000000E+00  0.6462419E-04
  0.8636364E+00  0.0000000E+00  0.1515152E-01 -0.2161489E-05  0.0000000E+00  0.6309660E-04
  0.8737374E+00  0.0000000E+00  0.1515152E-01 -0.1962546E-05  0.0000000E+00  0.6170692E-04
  0.8838384E+00  0.0000000E+00  0.1515152E-01 -0.1773007E-05  0.0000000E+00  0.6044837E-04
  0.8939394E+00  0.0000000E+00  0.1515152E-01 -0.1591906E-05  0.0000000E+00  0.5931489E-04
  0.9040404E+00  0.0000000E+00  0.1515152E-01 -0.1418348E-05  0.0000000E+00  0.5830104E-04
  0.9141414E+00  0.0000000E+00  0.1515152E-01 -0.1251501E-05  0.0000000E+00  0.5740196E-04
  0.9242424E+00  0.0000000E+00  0.1515152E-01 -0.1090578E-05  0.0000000E+00  0.5661338E-04
  0.9343435E+00  0.0000000E+00  0.1515152E-01 -0.9348307E-06  0.0000000E+00  0.5593150E-04
  0.9444444E+00  0.0000000E+00  0.1515152E-01 -0.7835360E-06  0.0000000E+00  0.5535306E-04
  0.9545454E+00  0.0000000E+00  0.1515152E-01 -0.6359896E-06  0.0000000E+00  0.5487525E-04
  0.9646465E+00  0.0000000E+00  0.1515152E-01 -0.4914993E-06  0.0000000E+00  0.5449578E-04
  0.9747475E+00  0.0000000E+00  0.1515152E-01 -0.3493804E-06  0.0000000E+00  0.5421278E-04
  0.9848485E+00  0.0000000E+00  0.1515152E-01 -0.2089527E-06  0.0000000E+00  0.5402488E-04
  0.9974747E+00  0.0000000E+00  0.1515152E-01 -0.6953843E-07  0.0000000E+00  0.5393116E-04
  0.5050505E-02  0.0000000E+00  0.2525252E-01  0.2779903E-06  0.0000000E+00  0.1096932E-03
  0.1515152E-01  0.0000000E+00  0.2525252E-01  0.8333486E-06  0.0000000E+00  0.1099224E-03
  0.2525252E-01  0.0000000E+00  0.2525252E-01  0.1386797E-05  0.0000000E+00  0.1103805E-03
  0.3535353E-01  0.0000000E+00  0.2525252E-01  0.1936902E-05  0.0000000E+00  0.1110666E-03
  0.4545455E-01  0.0000000E+00  0.2525252E-01  0.2481983E-05  0.0000000E+00  0.1119791E-03
  0.5555556E-01  0.0000000E+00  0.2525252E-01  0.3020013E-05  0.0000000E+00  0.1131160E-03
  0.6565657E-01  0.0000000E+00  0.2525252E-01  0.3548523E-05  0.0000000E+00  0.1144743E-03
  0.7575758E-01  0.0000000E+00  0.2525252E-01  0.4064512E-05  0.0000000E+00  0.1160501E-03
  0.8585858E-01  0.0000000E+00  0.2525252E-01  0.4564358E-05  0.0000000E+00  0.1178380E-03
  0.9595960E-01  0.0000000E+00  0.2525252E-01  0.5043704E-05  0.0000000E+00  0.1198313E-03
  0.1060606E+00  0.0000000E+00  0.2525252E-01  0.5497326E-05  0.0000000E+00  0.1220214E-03
  0.1161616E+00  0.0000000E+00  0.2525252E-01  0.5918909E-05  0.0000000E+00  0.1243976E-03
  0.1262626E+00  0.0000000E+00  0.2525252E-01  0.6300646E-05  0.0000000E+00  0.1269470E-03
  0.1363636E+00  0.0000000E+00  0.2525252E-01  0.6632491E-05  0.0000000E+00  0.1296539E-03
  0.1464646E+00  0.0000000E+00  0.2525252E-01  0.6900735E-05  0.0000000E+00  0.1324997E-03
  0.1565657E+00  0.0000000E+00  0.2525252E-01  0.7085334E-05  0.0000000E+00  0.1354620E-03
  0.1666667E+00  0.0000000E+00  0.2525252E-01  0.7155034E-05  0.0000000E+00  0.1385129E-03
  0.1767677E+00  0.0000000E+00  0.2525252E-01  0.7058966E-05  0.0000000E+00  0.1416141E-03
  0.1868687E+00  0.0000000E+00  0.2525252E-01  0.6713571E-05  0.0000000E+00  0.1447044E-03
  0.1969697E+00  0.0000000E+00  0.2525252E-01  0.5987255E-05  0.0000000E+00  0.1476696E-03
  0.2070707E+00  0.0000000E+00  0.2525252E-01  0.4700805E-05  0.0000000E+00  0.1502830E-03
  0.2171717E+00  0.0000000E+00  0.2525252E-01  0.2711496E-05  0.0000000E+00  0.1521326E-03
  0.2272727E+00  0.0000000E+00  0.2525252E-01  0.2428454E-06  0.0000000E+00  0.1527114E-03
  0.2373737E+00  0.0000000E+00  0.2525252E-01 -0.1652201E-05  0.0000000E+00  0.1520551E-03
  0.2474747E+00  0.0000000E+00  0.2525252E-01 -0.2824232E-05  0.0000000E+00  0.1507040E-03
  0.2575758E+00  0.0000000E+00  0.2525252E-01 -0.3437617E-05  0.0000000E+00  0.1490634E-03
  0.2676768E+00  0.0000000E+00  0.2525252E-01 -0.3681888E-05  0.0000000E+00  0.1473539E-03
  0.2777778E+00  0.0000000E+00  0.2525252E-01 -0.3703063E-05  0.0000000E+00  0.1456835E-03
  0.2878788E+00  0.0000000E+00  0.2525252E-01 -0.3604877E-05  0.0000000E+00  0.1441015E-03
  0.2979798E+00  0.0000000E+00  0.2525252E-01 -0.3462724E-05  0.0000000E+00  0.1426239E-03
  0.3080808E+00  0.0000000E+00  0.2525252E-01 -0.3334837E-05  0.0000000E+00  0.1412438E-03
  0.3181818E+00  0.0000000E+00  0.2525252E-01 -0.3267667E-05  0.0000000E+00  0.1399339E-03
  0.3282828E+00  0.0000000E+00  0.2525252E-01 -0.3294919E-05  0.0000000E+00  0.1386480E-03
  0.3383838E+00  0.0000000E+00  0.2525252E-01 -0.3430050E-05  0.0000000E+00  0.1373249E-03
  0.3484848E+00  0.0000000E+00  0.2525252E-01 -0.3654361E-05  0.0000000E+00  0.1359007E-03
  0.3585859E+00  0.0000000E+00  0.2525252E-01 -0.3909713E-05  0.0000000E+00  0.1343326E-03
  0.3686869E+00  0.0000000E+00  0.2525252E-01 -0.4114241E-05  0.0000000E+00  0.1326240E-03
  0.3787879E+00  0.0000000E+00  0.2525252E-01 -0.4207960E-05  0.0000000E+00  0.1308247E-03
  0.3888889E+00  0.0000000E+00  0.2525252E-01 -0.4167898E-05  0.0000000E+00  0.1290057E-03
  0.3989899E+00  0.0000000E+00  0.2525252E-01 -0.3999751E-05  0.0000000E+00  0.1272368E-03
  0.4090909E+00  0.0000000E+00  0.2525252E-01 -0.3724244E-05  0.0000000E+00  0.1255750E-03
  0.4191919E+00  0.0000000E+00  0.2525252E-01 -0.3366759E-05  0.0000000E+00  0.1240617E-03
  0.4292929E+00  0.0000000E+00  0.2525252E-01 -0.2951574E-05  0.0000000E+00  0.1227252E-03
  0.4393939E+00  0.0000000E+00  0.2525252E-01 -0.2499463E-05  0.0000000E+00  0.1215823E-03
  0.4494950E+00  0.0000000E+00  0.2525252E-01 -0.2027196E-05  0.0000000E+00  0.1206424E-03
  0.4595959E+00  0.0000000E+00  0.2525252E-01 -0.1547907E-05  0.0000000E+00  0.1199083E-03
  0.4696970E+00  0.0000000E+00  0.2525252E-01 -0.1071766E-05  0.0000000E+00  0.1193791E-03
  0.4797980E+00  0.0000000E+00  0.2525252E-01 -0.6066790E-06  0.0000000E+00  0.1190503E-03
  0.4898990E+00  0.0000000E+00  0.2525252E-01 -0.1588984E-06  0.0000000E+00  0.1189149E-03
  0.5000000E+00  0.0000000E+00  0.2525252E-01  0.2664725E-06  0.0000000E+00  0.1189642E-03
  0.5101010E+00  0.0000000E+00  0.2525252E-01  0.6650882E-06  0.0000000E+00  0.1191875E-03
  0.5202020E+00  0.0000000E+00  0.2525252E-01  0.1033050E-05  0.0000000E+00  0.1195730E-03
  0.5303030E+00  0.0000000E+00  0.2525252E-01  0.1366652E-05  0.0000000E+00  0.1201072E-03
  0.5404040E+00  0.0000000E+00  0.2525252E-01  0.1662168E-05  0.0000000E+00  0.1207753E-03
  0.5505050E+00  0.0000000E+00  0.2525252E-01  0.1915673E-05  0.0000000E+00  0.1215611E-03
  0.5606061E+00  0.0000000E+00  0.2525252E-01  0.2122859E-05  0.0000000E+00  0.1224469E-03
  0.5707071E+00  0.0000000E+00  0.2525252E-01  0.2278808E-05  0.0000000E+00  0.1234132E-03
  0.5808081E+00  0.0000000E+00  0.2525252E-01  0.2377639E-05  0.0000000E+00  0.1244388E-03
  0.5909091E+00  0.0000000E+00  0.2525252E-01  0.2411806E-05  0.0000000E+00  0.1255011E-03
  0.6010101E+00  0.0000000E+00  0.2525252E-01  0.2370694E-05  0.0000000E+00  0.1265760E-03
  0.6111111E+00  0.0000000E+00  0.2525252E-01  0.2237597E-05  0.0000000E+00  0.1276394E-03
  0.6212121E+00  0.0000000E+00  0.2525252E-01  0.1983101E-05  0.0000000E+00  0.1286698E-03
  0.6313131E+00  0.0000000E+00  0.2525252E-01  0.1549619E-05  0.0000000E+00  0.1296520E-03
  0.6414142E+00  0.0000000E+00  0.2525252E-01  0.8123810E-06  0.0000000E+00  0.1305776E-03
  0.6515151E+00  0.0000000E+00  0.2525252E-01 -0.5261704E-06  0.0000000E+00  0.1313981E-03
  0.6616161E+00  0.0000000E+00  0.2525252E-01 -0.3233590E-05  0.0000000E+00  0.1316954E-03
  0.6717172E+00  0.0000000E+00  0.2525252E-01 -0.9382710E-05  0.0000000E+00  0.1289413E-03
  0.6818182E+00  0.0000000E+00  0.2525252E-01 -0.1164485E-04  0.0000000E+00  0.1232711E-03
  0.6919192E+00  0.0000000E+00  0.2525252E-01 -0.1223589E-04  0.0000000E+00  0.1174205E-03
  0.7020202E+00  0.0000000E+00  0.2525252E-01 -0.1207839E-04  0.0000000E+00  0.1119008E-03
  0.7121212E+00  0.0000000E+00  0.2525252E-01 -0.1158227E-04  0.0000000E+00  0.1067751E-03
  0.7222222E+00  0.0000000E+00  0.2525252E-01 -0.1094047E-04  0.0000000E+00  0.1020264E-03
  0.7323232E+00  0.0000000E+00  0.2525252E-01 -0.1024776E-04  0.0000000E+00  0.9762815E-04
  0.7424242E+00  0.0000000E+00  0.2525252E-01 -0.9551792E-05  0.0000000E+00  0.9355557E-04
  0.7525253E+00  0.0000000E+00  0.2525252E-01 -0.8876364E-05  0.0000000E+00  0.8978594E-04
  0.7626263E+00  0.0000000E+00  0.2525252E-01 -0.8232772E-05  0.0000000E+00  0.8629818E-04
  0.7727273E+00  0.0000000E+00  0.2525252E-01 -0.7625563E-05  0.0000000E+00  0.8307262E-04
  0.7828283E+00  0.0000000E+00  0.2525252E-01 -0.7055615E-05  0.0000000E+00  0.8009097E-04
  0.7929293E+00  0.0000000E+00  0.2525252E-01 -0.6521839E-05  0.0000000E+00  0.7733634E-04
  0.8030303E+00  0.0000000E+00  0.2525252E-01 -0.6022143E-05  0.0000000E+00  0.7479328E-04
  0.8131313E+00  0.0000000E+00  0.2525252E-01 -0.5553984E-05  0.0000000E+00  0.7244775E-04
  0.8232324E+00  0.0000000E+00  0.2525252E-01 -0.5114690E-05  0.0000000E+00  0.7028701E-04
  0.8333333E+00  0.0000000E+00  0.2525252E-01 -0.4701637E-05  0.0000000E+00  0.6829961E-04
  0.8434343E+00  0.0000000E+00  0.2525252E-01 -0.4312336E-05  0.0000000E+00  0.6647520E-04
  0.8535354E+00  0.0000000E+00  0.2525252E-01 -0.3944486E-05  0.0000000E+00  0.6480450E-04
  0.8636364E+00  0.0000000E+00  0.2525252E-01 -0.3595973E-05  0.0000000E+00  0.6327914E-04
  0.8737374E+00  0.0000000E+00  0.2525252E-01 -0.3264875E-05  0.0000000E+00  0.6189160E-04
  0.8838384E+00  0.0000000E+00  0.2525252E-01 -0.2949436E-05  0.0000000E+00  0.6063512E-04
  0.8939394E+00  0.0000000E+00  0.2525252E-01 -0.2648048E-05  0.0000000E+00  0.5950364E-04
  0.9040404E+00  0.0000000E+00  0.2525252E-01 -0.2359228E-05  0.0000000E+00  0.5849170E-04
  0.9141414E+00  0.0000000E+00  0.2525252E-01 -0.2081594E-05  0.0000000E+00  0.5759444E-04
  0.9242424E+00  0.0000000E+00  0.2525252E-01 -0.1813841E-05  0.0000000E+00  0.5680756E-04
  0.9343435E+00  0.0000000E+00  0.2525252E-01 -0.1554724E-05  0.0000000E+00  0.5612725E-04
  0.9444444E+00  0.0000000E+00  0.2525252E-01 -0.1303042E-05  0.0000000E+00  0.5555021E-04
  0.9545454E+00  0.0000000E+00  0.2525252E-01 -0.1057622E-05  0.0000000E+00  0.5507362E-04
  0.9646465E+00  0.0000000E+00  0.2525252E-01 -0.8173104E-06  0.0000000E+00  0.5469515E-04
  0.9747475E+00  0.0000000E+00  0.2525252E-01 -0.5809645E-06  0.0000000E+00  0.5441294E-04
  0.9848485E+00  0.0000000E+00  0.2525252E-01 -0.3474480E-06  0.0000000E+00  0.5422556E-04
  0.9974747E+00  0.0000000E+00  0.2525252E-01 -0.1156277E-06  0.0000000E+00  0.5413211E-04
  0.5050505E-02  0.0000000E+00  0.3535353E-01  0.3909920E-06  0.0000000E+00  0.1102016E-03
  0.1515152E-01  0.0000000E+00  0.3535353E-01  0.1172178E-05  0.0000000E+00  0.1104350E-03
  0.2525252E-01  0.0000000E+00  0.3535353E-01  0.1950906E-05  0.0000000E+00  0.1109015E-03
  0.3535353E-01  0.0000000E+00  0.3535353E-01  0.2725303E-05  0.0000000E+00  0.1116005E-03
  0.4545455E-01  0.0000000E+00  0.3535353E-01  0.3493141E-05  0.0000000E+00  0.1125307E-03
  0.5555556E-01  0.0000000E+00  0.3535353E-01  0.4251694E-05  0.0000000E+00  0.1136906E-03
  0.6565657E-01  0.0000000E+00  0.3535353E-01  0.4997607E-05  0.0000000E+00  0.1150777E-03
  0.7575758E-01  0.0000000E+00  0.3535353E-01  0.5726777E-05  0.0000000E+00  0.1166888E-03
  0.8585858E-01  0.0000000E+00  0.3535353E-01  0.6434236E-05  0.0000000E+00  0.1185191E-03
  0.9595960E-01  0.0000000E+00  0.3535353E-01  0.7114039E-05  0.0000000E+00  0.1205626E-03
  0.1060606E+00  0.0000000E+00  0.3535353E-01  0.7759137E-05  0.0000000E+00  0.1228118E-03
  0.1161616E+00  0.0000000E+00  0.3535353E-01  0.8361208E-05  0.0000000E+00  0.1252570E-03
  0.1262626E+00  0.0000000E+00  0.3535353E-01  0.8910351E-05  0.0000000E+00  0.1278869E-03
  0.1363636E+00  0.0000000E+00  0.3535353E-01  0.9394500E-05  0.0000000E+00  0.1306884E-03
  0.1464646E+00  0.0000000E+00  0.3535353E-01  0.9798203E-05  0.0000000E+00  0.1336478E-03
  0.1565657E+00  0.0000000E+00  0.3535353E-01  0.1010006E-04  0.0000000E+00  0.1367515E-03
  0.1666667E+00  0.0000000E+00  0.3535353E-01  0.1026736E-04  0.0000000E+00  0.1399887E-03
  0.1767677E+00  0.0000000E+00  0.3535353E-01  0.1024475E-04  0.0000000E+00  0.1433526E-03
  0.1868687E+00  0.0000000E+00  0.3535353E-01  0.9930724E-05  0.0000000E+00  0.1468359E-03
  0.1969697E+00  0.0000000E+00  0.3535353E-01  0.9130155E-05  0.0000000E+00  0.1504005E-03
  0.2070707E+00  0.0000000E+00  0.3535353E-01  0.7472911E-05  0.0000000E+00  0.1538601E-03
  0.2171717E+00  0.0000000E+00  0.3535353E-01  0.4366312E-05  0.0000000E+00  0.1565564E-03
  0.2272727E+00  0.0000000E+00  0.3535353E-01 -0.3485910E-06  0.0000000E+00  0.1570732E-03
  0.2373737E+00  0.0000000E+00  0.3535353E-01 -0.3234613E-05  0.0000000E+00  0.1555025E-03
  0.2474747E+00  0.0000000E+00  0.3535353E-01 -0.4699813E-05  0.0000000E+00  0.1533057E-03
  0.2575758E+00  0.0000000E+00  0.3535353E-01 -0.5324961E-05  0.0000000E+00  0.1510828E-03
  0.2676768E+00  0.0000000E+00  0.3535353E-01 -0.5476088E-05  0.0000000E+00  0.1490105E-03
  0.2777778E+00  0.0000000E+00  0.3535353E-01 -0.5365705E-05  0.0000000E+00  0.1471287E-03
  0.2878788E+00  0.0000000E+00  0.3535353E-01 -0.5125118E-05  0.0000000E+00  0.1454393E-03
  0.2979798E+00  0.0000000E+00  0.3535353E-01 -0.4846638E-05  0.0000000E+00  0.1439312E-03