title = "dataset water"
variables = "x", "y", "z", "vx", "vy", "vz"
zone t = "velocities, solution time =  3.400E+01 days        " i =   99, j =   99, k =    1,  f=point
  0.5050505E-02  0.0000000E+00  0.5050505E-02  0.6309916E-10  0.0000000E+00 -0.7886641E-05
  0.1515152E-01  0.0000000E+00  0.5050505E-02  0.1890109E-09  0.0000000E+00 -0.7886388E-05
  0.2525252E-01  0.0000000E+00  0.5050505E-02  0.3140548E-09  0.0000000E+00 -0.7885885E-05
  0.3535353E-01  0.0000000E+00  0.5050505E-02  0.4376546E-09  0.0000000E+00 -0.7885132E-05
  0.4545455E-01  0.0000000E+00  0.5050505E-02  0.5592394E-09  0.0000000E+00 -0.7884134E-05
  0.5555556E-01  0.0000000E+00  0.5050505E-02  0.6782448E-09  0.0000000E+00 -0.7882896E-05
  0.6565657E-01  0.0000000E+00  0.5050505E-02  0.7941143E-09  0.0000000E+00 -0.7881422E-05
  0.7575758E-01  0.0000000E+00  0.5050505E-02  0.9063021E-09  0.0000000E+00 -0.7879720E-05
  0.8585858E-01  0.0000000E+00  0.5050505E-02  0.1014275E-08  0.0000000E+00 -0.7877797E-05
  0.9595960E-01  0.0000000E+00  0.5050505E-02  0.1117514E-08  0.0000000E+00 -0.7875664E-05
  0.1060606E+00  0.0000000E+00  0.5050505E-02  0.1215517E-08  0.0000000E+00 -0.7873328E-05
  0.1161616E+00  0.0000000E+00  0.5050505E-02  0.1307803E-08  0.0000000E+00 -0.7870802E-05
  0.1262626E+00  0.0000000E+00  0.5050505E-02  0.1393911E-08  0.0000000E+00 -0.7868098E-05
  0.1363636E+00  0.0000000E+00  0.5050505E-02  0.1473403E-08  0.0000000E+00 -0.7865228E-05
  0.1464646E+00  0.0000000E+00  0.5050505E-02  0.1545872E-08  0.0000000E+00 -0.7862206E-05
  0.1565657E+00  0.0000000E+00  0.5050505E-02  0.1610936E-08  0.0000000E+00 -0.7859046E-05
  0.1666667E+00  0.0000000E+00  0.5050505E-02  0.1668247E-08  0.0000000E+00 -0.7855764E-05
  0.1767677E+00  0.0000000E+00  0.5050505E-02  0.1717491E-08  0.0000000E+00 -0.7852375E-05
  0.1868687E+00  0.0000000E+00  0.5050505E-02  0.1758390E-08  0.0000000E+00 -0.7848895E-05
  0.1969697E+00  0.0000000E+00  0.5050505E-02  0.1790706E-08  0.0000000E+00 -0.7845343E-05
  0.2070707E+00  0.0000000E+00  0.5050505E-02  0.1814242E-08  0.0000000E+00 -0.7841735E-05
  0.2171717E+00  0.0000000E+00  0.5050505E-02  0.1828843E-08  0.0000000E+00 -0.7838088E-05
  0.2272727E+00  0.0000000E+00  0.5050505E-02  0.1834398E-08  0.0000000E+00 -0.7834421E-05
  0.2373737E+00  0.0000000E+00  0.5050505E-02  0.1830843E-08  0.0000000E+00 -0.7830752E-05
  0.2474747E+00  0.0000000E+00  0.5050505E-02  0.1818160E-08  0.0000000E+00 -0.7827100E-05
  0.2575758E+00  0.0000000E+00  0.5050505E-02  0.1796378E-08  0.0000000E+00 -0.7823482E-05
  0.2676768E+00  0.0000000E+00  0.5050505E-02  0.1765574E-08  0.0000000E+00 -0.7819917E-05
  0.2777778E+00  0.0000000E+00  0.5050505E-02  0.1725872E-08  0.0000000E+00 -0.7816422E-05
  0.2878788E+00  0.0000000E+00  0.5050505E-02  0.1677442E-08  0.0000000E+00 -0.7813015E-05
  0.2979798E+00  0.0000000E+00  0.5050505E-02  0.1620501E-08  0.0000000E+00 -0.7809714E-05
  0.3080808E+00  0.0000000E+00  0.5050505E-02  0.1555309E-08  0.0000000E+00 -0.7806535E-05
  0.3181818E+00  0.0000000E+00  0.5050505E-02  0.1482169E-08  0.0000000E+00 -0.7803495E-05
  0.3282828E+00  0.0000000E+00  0.5050505E-02  0.1401426E-08  0.0000000E+00 -0.7800608E-05
  0.3383838E+00  0.0000000E+00  0.5050505E-02  0.1313459E-08  0.0000000E+00 -0.7797891E-05
  0.3484848E+00  0.0000000E+00  0.5050505E-02  0.1218685E-08  0.0000000E+00 -0.7795356E-05
  0.3585859E+00  0.0000000E+00  0.5050505E-02  0.1117553E-08  0.0000000E+00 -0.7793018E-05
  0.3686869E+00  0.0000000E+00  0.5050505E-02  0.1010542E-08  0.0000000E+00 -0.7790888E-05
  0.3787879E+00  0.0000000E+00  0.5050505E-02  0.8981548E-09  0.0000000E+00 -0.7788977E-05
  0.3888889E+00  0.0000000E+00  0.5050505E-02  0.7809180E-09  0.0000000E+00 -0.7787297E-05
  0.3989899E+00  0.0000000E+00  0.5050505E-02  0.6593775E-09  0.0000000E+00 -0.7785855E-05
  0.4090909E+00  0.0000000E+00  0.5050505E-02  0.5340949E-09  0.0000000E+00 -0.7784660E-05
  0.4191919E+00  0.0000000E+00  0.5050505E-02  0.4056446E-09  0.0000000E+00 -0.7783720E-05
  0.4292929E+00  0.0000000E+00  0.5050505E-02  0.2746101E-09  0.0000000E+00 -0.7783039E-05
  0.4393939E+00  0.0000000E+00  0.5050505E-02  0.1415813E-09  0.0000000E+00 -0.7782622E-05
  0.4494950E+00  0.0000000E+00  0.5050505E-02  0.7151382E-11  0.0000000E+00 -0.7782473E-05
  0.4595959E+00  0.0000000E+00  0.5050505E-02 -0.1280863E-09  0.0000000E+00 -0.7782594E-05
  0.4696970E+00  0.0000000E+00  0.5050505E-02 -0.2635407E-09  0.0000000E+00 -0.7782986E-05
  0.4797980E+00  0.0000000E+00  0.5050505E-02 -0.3986258E-09  0.0000000E+00 -0.7783649E-05
  0.4898990E+00  0.0000000E+00  0.5050505E-02 -0.5327631E-09  0.0000000E+00 -0.7784581E-05
  0.5000000E+00  0.0000000E+00  0.5050505E-02 -0.6653839E-09  0.0000000E+00 -0.7785781E-05
  0.5101010E+00  0.0000000E+00  0.5050505E-02 -0.7959317E-09  0.0000000E+00 -0.7787243E-05
  0.5202020E+00  0.0000000E+00  0.5050505E-02 -0.9238643E-09  0.0000000E+00 -0.7788965E-05
  0.5303030E+00  0.0000000E+00  0.5050505E-02 -0.1048656E-08  0.0000000E+00 -0.7790939E-05
  0.5404040E+00  0.0000000E+00  0.5050505E-02 -0.1169799E-08  0.0000000E+00 -0.7793160E-05
  0.5505050E+00  0.0000000E+00  0.5050505E-02 -0.1286806E-08  0.0000000E+00 -0.7795619E-05
  0.5606061E+00  0.0000000E+00  0.5050505E-02 -0.1399213E-08  0.0000000E+00 -0.7798307E-05
  0.5707071E+00  0.0000000E+00  0.5050505E-02 -0.1506578E-08  0.0000000E+00 -0.7801216E-05
  0.5808081E+00  0.0000000E+00  0.5050505E-02 -0.1608486E-08  0.0000000E+00 -0.7804334E-05
  0.5909091E+00  0.0000000E+00  0.5050505E-02 -0.1704549E-08  0.0000000E+00 -0.7807650E-05
  0.6010101E+00  0.0000000E+00  0.5050505E-02 -0.1794409E-08  0.0000000E+00 -0.7811153E-05
  0.6111111E+00  0.0000000E+00  0.5050505E-02 -0.1877737E-08  0.0000000E+00 -0.7814828E-05
  0.6212121E+00  0.0000000E+00  0.5050505E-02 -0.1954236E-08  0.0000000E+00 -0.7818664E-05
  0.6313131E+00  0.0000000E+00  0.5050505E-02 -0.2023641E-08  0.0000000E+00 -0.7822646E-05
  0.6414142E+00  0.0000000E+00  0.5050505E-02 -0.2085723E-08  0.0000000E+00 -0.7826759E-05
  0.6515151E+00  0.0000000E+00  0.5050505E-02 -0.2140286E-08  0.0000000E+00 -0.7830989E-05
  0.6616161E+00  0.0000000E+00  0.5050505E-02 -0.2187168E-08  0.0000000E+00 -0.7835321E-05
  0.6717172E+00  0.0000000E+00  0.5050505E-02 -0.2226244E-08  0.0000000E+00 -0.7839738E-05
  0.6818182E+00  0.0000000E+00  0.5050505E-02 -0.2257423E-08  0.0000000E+00 -0.7844226E-05
  0.6919192E+00  0.0000000E+00  0.5050505E-02 -0.2280649E-08  0.0000000E+00 -0.7848769E-05
  0.7020202E+00  0.0000000E+00  0.5050505E-02 -0.2295902E-08  0.0000000E+00 -0.7853350E-05
  0.7121212E+00  0.0000000E+00  0.5050505E-02 -0.2303193E-08  0.0000000E+00 -0.7857953E-05
  0.7222222E+00  0.0000000E+00  0.5050505E-02 -0.2302567E-08  0.0000000E+00 -0.7862563E-05
  0.7323232E+00  0.0000000E+00  0.5050505E-02 -0.2294102E-08  0.0000000E+00 -0.7867164E-05
  0.7424242E+00  0.0000000E+00  0.5050505E-02 -0.2277902E-08  0.0000000E+00 -0.7871741E-05
  0.7525253E+00  0.0000000E+00  0.5050505E-02 -0.2254102E-08  0.0000000E+00 -0.7876277E-05
  0.7626263E+00  0.0000000E+00  0.5050505E-02 -0.2222863E-08  0.0000000E+00 -0.7880759E-05
  0.7727273E+00  0.0000000E+00  0.5050505E-02 -0.2184371E-08  0.0000000E+00 -0.7885170E-05
  0.7828283E+00  0.0000000E+00  0.5050505E-02 -0.2138833E-08  0.0000000E+00 -0.7889497E-05
  0.7929293E+00  0.0000000E+00  0.5050505E-02 -0.2086477E-08  0.0000000E+00 -0.7893727E-05
  0.8030303E+00  0.0000000E+00  0.5050505E-02 -0.2027550E-08  0.0000000E+00 -0.7897845E-05
  0.8131313E+00  0.0000000E+00  0.5050505E-02 -0.1962316E-08  0.0000000E+00 -0.7901839E-05
  0.8232324E+00  0.0000000E+00  0.5050505E-02 -0.1891052E-08  0.0000000E+00 -0.7905696E-05
  0.8333333E+00  0.0000000E+00  0.5050505E-02 -0.1814047E-08  0.0000000E+00 -0.7909404E-05
  0.8434343E+00  0.0000000E+00  0.5050505E-02 -0.1731603E-08  0.0000000E+00 -0.7912953E-05
  0.8535354E+00  0.0000000E+00  0.5050505E-02 -0.1644028E-08  0.0000000E+00 -0.7916332E-05
  0.8636364E+00  0.0000000E+00  0.5050505E-02 -0.1551639E-08  0.0000000E+00 -0.7919531E-05
  0.8737374E+00  0.0000000E+00  0.5050505E-02 -0.1454758E-08  0.0000000E+00 -0.7922540E-05
  0.8838384E+00  0.0000000E+00  0.5050505E-02 -0.1353712E-08  0.0000000E+00 -0.7925352E-05
  0.8939394E+00  0.0000000E+00  0.5050505E-02 -0.1248831E-08  0.0000000E+00 -0.7927957E-05
  0.9040404E+00  0.0000000E+00  0.5050505E-02 -0.1140447E-08  0.0000000E+00 -0.7930348E-05
  0.9141414E+00  0.0000000E+00  0.5050505E-02 -0.1028894E-08  0.0000000E+00 -0.7932520E-05
  0.9242424E+00  0.0000000E+00  0.5050505E-02 -0.9145059E-09  0.0000000E+00 -0.7934465E-05
  0.9343435E+00  0.0000000E+00  0.5050505E-02 -0.7976187E-09  0.0000000E+00 -0.7936179E-05
  0.9444444E+00  0.0000000E+00  0.5050505E-02 -0.6785666E-09  0.0000000E+00 -0.7937656E-05
  0.9545454E+00  0.0000000E+00  0.5050505E-02 -0.5576841E-09  0.0000000E+00 -0.7938894E-05
  0.9646465E+00  0.0000000E+00  0.5050505E-02 -0.4353050E-09  0.0000000E+00 -0.7939888E-05
  0.9747475E+00  0.0000000E+00  0.5050505E-02 -0.3117626E-09  0.0000000E+00 -0.7940636E-05
  0.9848485E+00  0.0000000E+00  0.5050505E-02 -0.1873899E-09  0.0000000E+00 -0.7941135E-05
  0.9974747E+00  0.0000000E+00  0.5050505E-02 -0.6251924E-10  0.0000000E+00 -0.7941385E-05
  0.5050505E-02  0.0000000E+00  0.1515152E-01  0.1897956E-09  0.0000000E+00 -0.7876900E-05
  0.1515152E-01  0.0000000E+00  0.1515152E-01  0.5685230E-09  0.0000000E+00 -0.7876645E-05
  0.2525252E-01  0.0000000E+00  0.1515152E-01  0.9446415E-09  0.0000000E+00 -0.7876136E-05
  0.3535353E-01  0.0000000E+00  0.1515152E-01  0.1316418E-08  0.0000000E+00 -0.7875376E-05
  0.4545455E-01  0.0000000E+00  0.1515152E-01  0.1682136E-08  0.0000000E+00 -0.7874367E-05
  0.5555556E-01  0.0000000E+00  0.1515152E-01  0.2040098E-08  0.0000000E+00 -0.7873115E-05
  0.6565657E-01  0.0000000E+00  0.1515152E-01  0.2388631E-08  0.0000000E+00 -0.7871625E-05
  0.7575758E-01  0.0000000E+00  0.1515152E-01  0.2726092E-08  0.0000000E+00 -0.7869905E-05
  0.8585858E-01  0.0000000E+00  0.1515152E-01  0.3050879E-08  0.0000000E+00 -0.7867962E-05
  0.9595960E-01  0.0000000E+00  0.1515152E-01  0.3361431E-08  0.0000000E+00 -0.7865805E-05
  0.1060606E+00  0.0000000E+00  0.1515152E-01  0.3656239E-08  0.0000000E+00 -0.7863444E-05
  0.1161616E+00  0.0000000E+00  0.1515152E-01  0.3933851E-08  0.0000000E+00 -0.7860891E-05
  0.1262626E+00  0.0000000E+00  0.1515152E-01  0.4192882E-08  0.0000000E+00 -0.7858157E-05
  0.1363636E+00  0.0000000E+00  0.1515152E-01  0.4432019E-08  0.0000000E+00 -0.7855255E-05
  0.1464646E+00  0.0000000E+00  0.1515152E-01  0.4650029E-08  0.0000000E+00 -0.7852200E-05
  0.1565657E+00  0.0000000E+00  0.1515152E-01  0.4845767E-08  0.0000000E+00 -0.7849006E-05
  0.1666667E+00  0.0000000E+00  0.1515152E-01  0.5018186E-08  0.0000000E+00 -0.7845687E-05
  0.1767677E+00  0.0000000E+00  0.1515152E-01  0.5166338E-08  0.0000000E+00 -0.7842261E-05
  0.1868687E+00  0.0000000E+00  0.1515152E-01  0.5289390E-08  0.0000000E+00 -0.7838744E-05
  0.1969697E+00  0.0000000E+00  0.1515152E-01  0.5386622E-08  0.0000000E+00 -0.7835152E-05
  0.2070707E+00  0.0000000E+00  0.1515152E-01  0.5457440E-08  0.0000000E+00 -0.7831504E-05
  0.2171717E+00  0.0000000E+00  0.1515152E-01  0.5501378E-08  0.0000000E+00 -0.7827817E-05
  0.2272727E+00  0.0000000E+00  0.1515152E-01  0.5518102E-08  0.0000000E+00 -0.7824110E-05
  0.2373737E+00  0.0000000E+00  0.1515152E-01  0.5507420E-08  0.0000000E+00 -0.7820401E-05
  0.2474747E+00  0.0000000E+00  0.1515152E-01  0.5469276E-08  0.0000000E+00 -0.7816708E-05
  0.2575758E+00  0.0000000E+00  0.1515152E-01  0.5403758E-08  0.0000000E+00 -0.7813050E-05
  0.2676768E+00  0.0000000E+00  0.1515152E-01  0.5311097E-08  0.0000000E+00 -0.7809445E-05
  0.2777778E+00  0.0000000E+00  0.1515152E-01  0.5191667E-08  0.0000000E+00 -0.7805912E-05
  0.2878788E+00  0.0000000E+00  0.1515152E-01  0.5045981E-08  0.0000000E+00 -0.7802467E-05
  0.2979798E+00  0.0000000E+00  0.1515152E-01  0.4874689E-08  0.0000000E+00 -0.7799130E-05
  0.3080808E+00  0.0000000E+00  0.1515152E-01  0.4678578E-08  0.0000000E+00 -0.7795916E-05
  0.3181818E+00  0.0000000E+00  0.1515152E-01  0.4458559E-08  0.0000000E+00 -0.7792842E-05
  0.3282828E+00  0.0000000E+00  0.1515152E-01  0.4215665E-08  0.0000000E+00 -0.7789924E-05
  0.3383838E+00  0.0000000E+00  0.1515152E-01  0.3951046E-08  0.0000000E+00 -0.7787176E-05
  0.3484848E+00  0.0000000E+00  0.1515152E-01  0.3665954E-08  0.0000000E+00 -0.7784614E-05
  0.3585859E+00  0.0000000E+00  0.1515152E-01  0.3361740E-08  0.0000000E+00 -0.7782250E-05
  0.3686869E+00  0.0000000E+00  0.1515152E-01  0.3039845E-08  0.0000000E+00 -0.7780096E-05
  0.3787879E+00  0.0000000E+00  0.1515152E-01  0.2701783E-08  0.0000000E+00 -0.7778164E-05
  0.3888889E+00  0.0000000E+00  0.1515152E-01  0.2349141E-08  0.0000000E+00 -0.7776465E-05
  0.3989899E+00  0.0000000E+00  0.1515152E-01  0.1983559E-08  0.0000000E+00 -0.7775007E-05
  0.4090909E+00  0.0000000E+00  0.1515152E-01  0.1606729E-08  0.0000000E+00 -0.7773799E-05
  0.4191919E+00  0.0000000E+00  0.1515152E-01  0.1220378E-08  0.0000000E+00 -0.7772848E-05
  0.4292929E+00  0.0000000E+00  0.1515152E-01  0.8262610E-09  0.0000000E+00 -0.7772159E-05
  0.4393939E+00  0.0000000E+00  0.1515152E-01  0.4261534E-09  0.0000000E+00 -0.7771738E-05
  0.4494950E+00  0.0000000E+00  0.1515152E-01  0.2183868E-10  0.0000000E+00 -0.7771586E-05
  0.4595959E+00  0.0000000E+00  0.1515152E-01 -0.3848983E-09  0.0000000E+00 -0.7771708E-05
  0.4696970E+00  0.0000000E+00  0.1515152E-01 -0.7922802E-09  0.0000000E+00 -0.7772104E-05
  0.4797980E+00  0.0000000E+00  0.1515152E-01 -0.1198545E-08  0.0000000E+00 -0.7772773E-05
  0.4898990E+00  0.0000000E+00  0.1515152E-01 -0.1601953E-08  0.0000000E+00 -0.7773714E-05
  0.5000000E+00  0.0000000E+00  0.1515152E-01 -0.2000794E-08  0.0000000E+00 -0.7774925E-05
  0.5101010E+00  0.0000000E+00  0.1515152E-01 -0.2393395E-08  0.0000000E+00 -0.7776402E-05
  0.5202020E+00  0.0000000E+00  0.1515152E-01 -0.2778126E-08  0.0000000E+00 -0.7778141E-05
  0.5303030E+00  0.0000000E+00  0.1515152E-01 -0.3153405E-08  0.0000000E+00 -0.7780135E-05
  0.5404040E+00  0.0000000E+00  0.1515152E-01 -0.3517708E-08  0.0000000E+00 -0.7782378E-05
  0.5505050E+00  0.0000000E+00  0.1515152E-01 -0.3869568E-08  0.0000000E+00 -0.7784861E-05
  0.5606061E+00  0.0000000E+00  0.1515152E-01 -0.4207588E-08  0.0000000E+00 -0.7787577E-05
  0.5707071E+00  0.0000000E+00  0.1515152E-01 -0.4530442E-08  0.0000000E+00 -0.7790515E-05
  0.5808081E+00  0.0000000E+00  0.1515152E-01 -0.4836881E-08  0.0000000E+00 -0.7793664E-05
  0.5909091E+00  0.0000000E+00  0.1515152E-01 -0.5125739E-08  0.0000000E+00 -0.7797013E-05
  0.6010101E+00  0.0000000E+00  0.1515152E-01 -0.5395936E-08  0.0000000E+00 -0.7800551E-05
  0.6111111E+00  0.0000000E+00  0.1515152E-01 -0.5646484E-08  0.0000000E+00 -0.7804263E-05
  0.6212121E+00  0.0000000E+00  0.1515152E-01 -0.5876491E-08  0.0000000E+00 -0.7808137E-05
  0.6313131E+00  0.0000000E+00  0.1515152E-01 -0.6085162E-08  0.0000000E+00 -0.7812158E-05
  0.6414142E+00  0.0000000E+00  0.1515152E-01 -0.6271805E-08  0.0000000E+00 -0.7816312E-05
  0.6515151E+00  0.0000000E+00  0.1515152E-01 -0.6435829E-08  0.0000000E+00 -0.7820584E-05
  0.6616161E+00  0.0000000E+00  0.1515152E-01 -0.6576753E-08  0.0000000E+00 -0.7824959E-05
  0.6717172E+00  0.0000000E+00  0.1515152E-01 -0.6694196E-08  0.0000000E+00 -0.7829420E-05
  0.6818182E+00  0.0000000E+00  0.1515152E-01 -0.6787889E-08  0.0000000E+00 -0.7833952E-05
  0.6919192E+00  0.0000000E+00  0.1515152E-01 -0.6857663E-08  0.0000000E+00 -0.7838539E-05
  0.7020202E+00  0.0000000E+00  0.1515152E-01 -0.6903455E-08  0.0000000E+00 -0.7843165E-05
  0.7121212E+00  0.0000000E+00  0.1515152E-01 -0.6925304E-08  0.0000000E+00 -0.7847814E-05
  0.7222222E+00  0.0000000E+00  0.1515152E-01 -0.6923345E-08  0.0000000E+00 -0.7852469E-05
  0.7323232E+00  0.0000000E+00  0.1515152E-01 -0.6897810E-08  0.0000000E+00 -0.7857114E-05
  0.7424242E+00  0.0000000E+00  0.1515152E-01 -0.6849017E-08  0.0000000E+00 -0.7861735E-05
  0.7525253E+00  0.0000000E+00  0.1515152E-01 -0.6777374E-08  0.0000000E+00 -0.7866315E-05
  0.7626263E+00  0.0000000E+00  0.1515152E-01 -0.6683364E-08  0.0000000E+00 -0.7870839E-05
  0.7727273E+00  0.0000000E+00  0.1515152E-01 -0.6567546E-08  0.0000000E+00 -0.7875293E-05
  0.7828283E+00  0.0000000E+00  0.1515152E-01 -0.6430546E-08  0.0000000E+00 -0.7879661E-05
  0.7929293E+00  0.0000000E+00  0.1515152E-01 -0.6273052E-08  0.0000000E+00 -0.7883930E-05
  0.8030303E+00  0.0000000E+00  0.1515152E-01 -0.6095808E-08  0.0000000E+00 -0.7888087E-05
  0.8131313E+00  0.0000000E+00  0.1515152E-01 -0.5899606E-08  0.0000000E+00 -0.7892118E-05
  0.8232324E+00  0.0000000E+00  0.1515152E-01 -0.5685280E-08  0.0000000E+00 -0.7896012E-05
  0.8333333E+00  0.0000000E+00  0.1515152E-01 -0.5453704E-08  0.0000000E+00 -0.7899755E-05
  0.8434343E+00  0.0000000E+00  0.1515152E-01 -0.5205781E-08  0.0000000E+00 -0.7903337E-05
  0.8535354E+00  0.0000000E+00  0.1515152E-01 -0.4942442E-08  0.0000000E+00 -0.7906747E-05
  0.8636364E+00  0.0000000E+00  0.1515152E-01 -0.4664639E-08  0.0000000E+00 -0.7909975E-05
  0.8737374E+00  0.0000000E+00  0.1515152E-01 -0.4373342E-08  0.0000000E+00 -0.7913012E-05
  0.8838384E+00  0.0000000E+00  0.1515152E-01 -0.4069531E-08  0.0000000E+00 -0.7915849E-05
  0.8939394E+00  0.0000000E+00  0.1515152E-01 -0.3754201E-08  0.0000000E+00 -0.7918478E-05
  0.9040404E+00  0.0000000E+00  0.1515152E-01 -0.3428349E-08  0.0000000E+00 -0.7920891E-05
  0.9141414E+00  0.0000000E+00  0.1515152E-01 -0.3092978E-08  0.0000000E+00 -0.7923082E-05
  0.9242424E+00  0.0000000E+00  0.1515152E-01 -0.2749095E-08  0.0000000E+00 -0.7925045E-05
  0.9343435E+00  0.0000000E+00  0.1515152E-01 -0.2397704E-08  0.0000000E+00 -0.7926774E-05
  0.9444444E+00  0.0000000E+00  0.1515152E-01 -0.2039813E-08  0.0000000E+00 -0.7928265E-05
  0.9545454E+00  0.0000000E+00  0.1515152E-01 -0.1676424E-08  0.0000000E+00 -0.7929513E-05
  0.9646465E+00  0.0000000E+00  0.1515152E-01 -0.1308542E-08  0.0000000E+00 -0.7930516E-05
  0.9747475E+00  0.0000000E+00  0.1515152E-01 -0.9371666E-09  0.0000000E+00 -0.7931271E-05
  0.9848485E+00  0.0000000E+00  0.1515152E-01 -0.5632977E-09  0.0000000E+00 -0.7931775E-05
  0.9974747E+00  0.0000000E+00  0.1515152E-01 -0.1879334E-09  0.0000000E+00 -0.7932027E-05
  0.5050505E-02  0.0000000E+00  0.2525252E-01  0.3181734E-09  0.0000000E+00 -0.7857442E-05
  0.1515152E-01  0.0000000E+00  0.2525252E-01  0.9530704E-09  0.0000000E+00 -0.7857182E-05
  0.2525252E-01  0.0000000E+00  0.2525252E-01  0.1583597E-08  0.0000000E+00 -0.7856662E-05
  0.3535353E-01  0.0000000E+00  0.2525252E-01  0.2206851E-08  0.0000000E+00 -0.7855885E-05
  0.4545455E-01  0.0000000E+00  0.2525252E-01  0.2819956E-08  0.0000000E+00 -0.7854855E-05
  0.5555556E-01  0.0000000E+00  0.2525252E-01  0.3420067E-08  0.0000000E+00 -0.7853576E-05
  0.6565657E-01  0.0000000E+00  0.2525252E-01  0.4004382E-08  0.0000000E+00 -0.7852054E-05
  0.7575758E-01  0.0000000E+00  0.2525252E-01  0.4570149E-08  0.0000000E+00 -0.7850296E-05
  0.8585858E-01  0.0000000E+00  0.2525252E-01  0.5114679E-08  0.0000000E+00 -0.7848311E-05
  0.9595960E-01  0.0000000E+00  0.2525252E-01  0.5635357E-08  0.0000000E+00 -0.7846107E-05
  0.1060606E+00  0.0000000E+00  0.2525252E-01  0.6129653E-08  0.0000000E+00 -0.7843696E-05
  0.1161616E+00  0.0000000E+00  0.2525252E-01  0.6595133E-08  0.0000000E+00 -0.7841087E-05
  0.1262626E+00  0.0000000E+00  0.2525252E-01  0.7029472E-08  0.0000000E+00 -0.7838294E-05
  0.1363636E+00  0.0000000E+00  0.2525252E-01  0.7430467E-08  0.0000000E+00 -0.7835330E-05
  0.1464646E+00  0.0000000E+00  0.2525252E-01  0.7796050E-08  0.0000000E+00 -0.7832208E-05
  0.1565657E+00  0.0000000E+00  0.2525252E-01  0.8124299E-08  0.0000000E+00 -0.7828944E-05
  0.1666667E+00  0.0000000E+00  0.2525252E-01  0.8413454E-08  0.0000000E+00 -0.7825554E-05
  0.1767677E+00  0.0000000E+00  0.2525252E-01  0.8661926E-08  0.0000000E+00 -0.7822053E-05
  0.1868687E+00  0.0000000E+00  0.2525252E-01  0.8868313E-08  0.0000000E+00 -0.7818459E-05
  0.1969697E+00  0.0000000E+00  0.2525252E-01  0.9031407E-08  0.0000000E+00 -0.7814788E-05
  0.2070707E+00  0.0000000E+00  0.2525252E-01  0.9150209E-08  0.0000000E+00 -0.7811060E-05
  0.2171717E+00  0.0000000E+00  0.2525252E-01  0.9223935E-08  0.0000000E+00 -0.7807293E-05
  0.2272727E+00  0.0000000E+00  0.2525252E-01  0.9252025E-08  0.0000000E+00 -0.7803504E-05
  0.2373737E+00  0.0000000E+00  0.2525252E-01  0.9234153E-08  0.0000000E+00 -0.7799714E-05
  0.2474747E+00  0.0000000E+00  0.2525252E-01  0.9170226E-08  0.0000000E+00 -0.7795940E-05
  0.2575758E+00  0.0000000E+00  0.2525252E-01  0.9060391E-08  0.0000000E+00 -0.7792201E-05
  0.2676768E+00  0.0000000E+00  0.2525252E-01  0.8905036E-08  0.0000000E+00 -0.7788517E-05
  0.2777778E+00  0.0000000E+00  0.2525252E-01  0.8704787E-08  0.0000000E+00 -0.7784906E-05
  0.2878788E+00  0.0000000E+00  0.2525252E-01  0.8460508E-08  0.0000000E+00 -0.7781387E-05
  0.2979798E+00  0.0000000E+00  0.2525252E-01  0.8173291E-08  0.0000000E+00 -0.7777976E-05
  0.3080808E+00  0.0000000E+00  0.2525252E-01  0.7844456E-08  0.0000000E+00 -0.7774691E-05
  0.3181818E+00  0.0000000E+00  0.2525252E-01  0.7475535E-08  0.0000000E+00 -0.7771550E-05
  0.3282828E+00  0.0000000E+00  0.2525252E-01  0.7068264E-08  0.0000000E+00 -0.7768568E-05
  0.3383838E+00  0.0000000E+00  0.2525252E-01  0.6624571E-08  0.0000000E+00 -0.7765760E-05
  0.3484848E+00  0.0000000E+00  0.2525252E-01  0.6146563E-08  0.0000000E+00 -0.7763141E-05
  0.3585859E+00  0.0000000E+00  0.2525252E-01  0.5636509E-08  0.0000000E+00 -0.7760725E-05
  0.3686869E+00  0.0000000E+00  0.2525252E-01  0.5096823E-08  0.0000000E+00 -0.7758524E-05
  0.3787879E+00  0.0000000E+00  0.2525252E-01  0.4530052E-08  0.0000000E+00 -0.7756550E-05
  0.3888889E+00  0.0000000E+00  0.2525252E-01  0.3938856E-08  0.0000000E+00 -0.7754813E-05
  0.3989899E+00  0.0000000E+00  0.2525252E-01  0.3325990E-08  0.0000000E+00 -0.7753324E-05
  0.4090909E+00  0.0000000E+00  0.2525252E-01  0.2694289E-08  0.0000000E+00 -0.7752089E-05
  0.4191919E+00  0.0000000E+00  0.2525252E-01  0.2046652E-08  0.0000000E+00 -0.7751116E-05
  0.4292929E+00  0.0000000E+00  0.2525252E-01  0.1386022E-08  0.0000000E+00 -0.7750412E-05
  0.4393939E+00  0.0000000E+00  0.2525252E-01  0.7153748E-09  0.0000000E+00 -0.7749980E-05
  0.4494950E+00  0.0000000E+00  0.2525252E-01  0.3769993E-10  0.0000000E+00 -0.7749824E-05
  0.4595959E+00  0.0000000E+00  0.2525252E-01 -0.6440112E-09  0.0000000E+00 -0.7749947E-05
  0.4696970E+00  0.0000000E+00  0.2525252E-01 -0.1326780E-08  0.0000000E+00 -0.7750349E-05
  0.4797980E+00  0.0000000E+00  0.2525252E-01 -0.2007655E-08  0.0000000E+00 -0.7751031E-05
  0.4898990E+00  0.0000000E+00  0.2525252E-01 -0.2683721E-08  0.0000000E+00 -0.7751991E-05
  0.5000000E+00  0.0000000E+00  0.2525252E-01 -0.3352113E-08  0.0000000E+00 -0.7753225E-05
  0.5101010E+00  0.0000000E+00  0.2525252E-01 -0.4010030E-08  0.0000000E+00 -0.7754732E-05
  0.5202020E+00  0.0000000E+00  0.2525252E-01 -0.4654739E-08  0.0000000E+00 -0.7756505E-05
  0.5303030E+00  0.0000000E+00  0.2525252E-01 -0.5283594E-08  0.0000000E+00 -0.7758539E-05
  0.5404040E+00  0.0000000E+00  0.2525252E-01 -0.5894036E-08  0.0000000E+00 -0.7760826E-05
  0.5505050E+00  0.0000000E+00  0.2525252E-01 -0.6483613E-08  0.0000000E+00 -0.7763359E-05
  0.5606061E+00  0.0000000E+00  0.2525252E-01 -0.7049981E-08  0.0000000E+00 -0.7766129E-05
  0.5707071E+00  0.0000000E+00  0.2525252E-01 -0.7590920E-08  0.0000000E+00 -0.7769125E-05
  0.5808081E+00  0.0000000E+00  0.2525252E-01 -0.8104337E-08  0.0000000E+00 -0.7772337E-05
  0.5909091E+00  0.0000000E+00  0.2525252E-01 -0.8588277E-08  0.0000000E+00 -0.7775753E-05
  0.6010101E+00  0.0000000E+00  0.2525252E-01 -0.9040931E-08  0.0000000E+00 -0.7779361E-05
  0.6111111E+00  0.0000000E+00  0.2525252E-01 -0.9460644E-08  0.0000000E+00 -0.7783147E-05
  0.6212121E+00  0.0000000E+00  0.2525252E-01 -0.9845919E-08  0.0000000E+00 -0.7787097E-05
  0.6313131E+00  0.0000000E+00  0.2525252E-01 -0.1019543E-07  0.0000000E+00 -0.7791198E-05
  0.6414142E+00  0.0000000E+00  0.2525252E-01 -0.1050800E-07  0.0000000E+00 -0.7795435E-05
  0.6515151E+00  0.0000000E+00  0.2525252E-01 -0.1078266E-07  0.0000000E+00 -0.7799791E-05
  0.6616161E+00  0.0000000E+00  0.2525252E-01 -0.1101860E-07  0.0000000E+00 -0.7804251E-05
  0.6717172E+00  0.0000000E+00  0.2525252E-01 -0.1121517E-07  0.0000000E+00 -0.7808800E-05
  0.6818182E+00  0.0000000E+00  0.2525252E-01 -0.1137194E-07  0.0000000E+00 -0.7813421E-05
  0.6919192E+00  0.0000000E+00  0.2525252E-01 -0.1148861E-07  0.0000000E+00 -0.7818098E-05
  0.7020202E+00  0.0000000E+00  0.2525252E-01 -0.1156509E-07  0.0000000E+00 -0.7822813E-05
  0.7121212E+00  0.0000000E+00  0.2525252E-01 -0.1160144E-07  0.0000000E+00 -0.7827552E-05
  0.7222222E+00  0.0000000E+00  0.2525252E-01 -0.1159790E-07  0.0000000E+00 -0.7832297E-05
  0.7323232E+00  0.0000000E+00  0.2525252E-01 -0.1155485E-07  0.0000000E+00 -0.7837032E-05
  0.7424242E+00  0.0000000E+00  0.2525252E-01 -0.1147284E-07  0.0000000E+00 -0.7841741E-05
  0.7525253E+00  0.0000000E+00  0.2525252E-01 -0.1135255E-07  0.0000000E+00 -0.7846409E-05
  0.7626263E+00  0.0000000E+00  0.2525252E-01 -0.1119479E-07  0.0000000E+00 -0.7851019E-05
  0.7727273E+00  0.0000000E+00  0.2525252E-01 -0.1100051E-07  0.0000000E+00 -0.7855557E-05
  0.7828283E+00  0.0000000E+00  0.2525252E-01 -0.1077075E-07  0.0000000E+00 -0.7860008E-05
  0.7929293E+00  0.0000000E+00  0.2525252E-01 -0.1050669E-07  0.0000000E+00 -0.7864358E-05
  0.8030303E+00  0.0000000E+00  0.2525252E-01 -0.1020955E-07  0.0000000E+00 -0.7868593E-05
  0.8131313E+00  0.0000000E+00  0.2525252E-01 -0.9880686E-08  0.0000000E+00 -0.7872699E-05
  0.8232324E+00  0.0000000E+00  0.2525252E-01 -0.9521487E-08  0.0000000E+00 -0.7876665E-05
  0.8333333E+00  0.0000000E+00  0.2525252E-01 -0.9133422E-08  0.0000000E+00 -0.7880477E-05
  0.8434343E+00  0.0000000E+00  0.2525252E-01 -0.8718006E-08  0.0000000E+00 -0.7884125E-05
  0.8535354E+00  0.0000000E+00  0.2525252E-01 -0.8276801E-08  0.0000000E+00 -0.7887598E-05
  0.8636364E+00  0.0000000E+00  0.2525252E-01 -0.7811402E-08  0.0000000E+00 -0.7890885E-05
  0.8737374E+00  0.0000000E+00  0.2525252E-01 -0.7323435E-08  0.0000000E+00 -0.7893977E-05
  0.8838384E+00  0.0000000E+00  0.2525252E-01 -0.6814544E-08  0.0000000E+00 -0.7896866E-05
  0.8939394E+00  0.0000000E+00  0.2525252E-01 -0.6286392E-08  0.0000000E+00 -0.7899542E-05
  0.9040404E+00  0.0000000E+00  0.2525252E-01 -0.5740651E-08  0.0000000E+00 -0.7901999E-05
  0.9141414E+00  0.0000000E+00  0.2525252E-01 -0.5178999E-08  0.0000000E+00 -0.7904229E-05
  0.9242424E+00  0.0000000E+00  0.2525252E-01 -0.4603118E-08  0.0000000E+00 -0.7906227E-05
  0.9343435E+00  0.0000000E+00  0.2525252E-01 -0.4014693E-08  0.0000000E+00 -0.7907987E-05
  0.9444444E+00  0.0000000E+00  0.2525252E-01 -0.3415403E-08  0.0000000E+00 -0.7909505E-05
  0.9545454E+00  0.0000000E+00  0.2525252E-01 -0.2806929E-08  0.0000000E+00 -0.7910776E-05
  0.9646465E+00  0.0000000E+00  0.2525252E-01 -0.2190946E-08  0.0000000E+00 -0.7911796E-05
  0.9747475E+00  0.0000000E+00  0.2525252E-01 -0.1569128E-08  0.0000000E+00 -0.7912564E-05
  0.9848485E+00  0.0000000E+00  0.2525252E-01 -0.9431433E-09  0.0000000E+00 -0.7913077E-05
  0.9974747E+00  0.0000000E+00  0.2525252E-01 -0.3146603E-09  0.0000000E+00 -0.7913334E-05
  0.5050505E-02  0.0000000E+00  0.3535353E-01  0.4496144E-09  0.0000000E+00 -0.7828302E-05
  0.1515152E-01  0.0000000E+00  0.3535353E-01  0.1346794E-08  0.0000000E+00 -0.7828033E-05
  0.2525252E-01  0.0000000E+00  0.3535353E-01  0.2237806E-08  0.0000000E+00 -0.7827496E-05
  0.3535353E-01  0.0000000E+00  0.3535353E-01  0.3118552E-08  0.0000000E+00 -0.7826695E-05
  0.4545455E-01  0.0000000E+00  0.3535353E-01  0.3984972E-08  0.0000000E+00 -0.7825632E-05
  0.5555556E-01  0.0000000E+00  0.3535353E-01  0.4833051E-08  0.0000000E+00 -0.7824312E-05
  0.6565657E-01  0.0000000E+00  0.3535353E-01  0.5658828E-08  0.0000000E+00 -0.7822742E-05
  0.7575758E-01  0.0000000E+00  0.3535353E-01  0.6458420E-08  0.0000000E+00 -0.7820928E-05
  0.8585858E-01  0.0000000E+00  0.3535353E-01  0.7228027E-08  0.0000000E+00 -0.7818880E-05
  0.9595960E-01  0.0000000E+00  0.3535353E-01  0.7963953E-08  0.0000000E+00 -0.7816606E-05
  0.1060606E+00  0.0000000E+00  0.3535353E-01  0.8662621E-08  0.0000000E+00 -0.7814117E-05
  0.1161616E+00  0.0000000E+00  0.3535353E-01  0.9320591E-08  0.0000000E+00 -0.7811425E-05
  0.1262626E+00  0.0000000E+00  0.3535353E-01  0.9934574E-08  0.0000000E+00 -0.7808542E-05
  0.1363636E+00  0.0000000E+00  0.3535353E-01  0.1050145E-07  0.0000000E+00 -0.7805483E-05
  0.1464646E+00  0.0000000E+00  0.3535353E-01  0.1101830E-07  0.0000000E+00 -0.7802261E-05
  0.1565657E+00  0.0000000E+00  0.3535353E-01  0.1148240E-07  0.0000000E+00 -0.7798892E-05
  0.1666667E+00  0.0000000E+00  0.3535353E-01  0.1189125E-07  0.0000000E+00 -0.7795392E-05
  0.1767677E+00  0.0000000E+00  0.3535353E-01  0.1224260E-07  0.0000000E+00 -0.7791778E-05
  0.1868687E+00  0.0000000E+00  0.3535353E-01  0.1253447E-07  0.0000000E+00 -0.7788067E-05
  0.1969697E+00  0.0000000E+00  0.3535353E-01  0.1276514E-07  0.0000000E+00 -0.7784279E-05
  0.2070707E+00  0.0000000E+00  0.3535353E-01  0.1293320E-07  0.0000000E+00 -0.7780430E-05
  0.2171717E+00  0.0000000E+00  0.3535353E-01  0.1303752E-07  0.0000000E+00 -0.7776540E-05
  0.2272727E+00  0.0000000E+00  0.3535353E-01  0.1307733E-07  0.0000000E+00 -0.7772628E-05
  0.2373737E+00  0.0000000E+00  0.3535353E-01  0.1305215E-07  0.0000000E+00 -0.7768715E-05
  0.2474747E+00  0.0000000E+00  0.3535353E-01  0.1296185E-07  0.0000000E+00 -0.7764818E-05
  0.2575758E+00  0.0000000E+00  0.3535353E-01  0.1280664E-07  0.0000000E+00 -0.7760958E-05
  0.2676768E+00  0.0000000E+00  0.3535353E-01  0.1258706E-07  0.0000000E+00 -0.7757155E-05
  0.2777778E+00  0.0000000E+00  0.3535353E-01  0.1230401E-07  0.0000000E+00 -0.7753426E-05
  0.2878788E+00  0.0000000E+00  0.3535353E-01  0.1195871E-07  0.0000000E+00 -0.7749792E-05
  0.2979798E+00  0.0000000E+00  0.3535353E-01  0.1155270E-07  0.0000000E+00 -0.7746270E-05