title = "dataset water"
variables = "x", "y", "z", "vx", "vy", "vz"
zone t = "velocities, solution time =  3.300E+01 days        " i =   99, j =   99, k =    1,  f=point
  0.5050505E-02  0.0000000E+00  0.5050505E-02  0.4689782E-10  0.0000000E+00 -0.8300113E-05
  0.1515152E-01  0.0000000E+00  0.5050505E-02  0.1404829E-09  0.0000000E+00 -0.8299926E-05
  0.2525252E-01  0.0000000E+00  0.5050505E-02  0.2334340E-09  0.0000000E+00 -0.8299552E-05
  0.3535353E-01  0.0000000E+00  0.5050505E-02  0.3253305E-09  0.0000000E+00 -0.8298992E-05
  0.4545455E-01  0.0000000E+00  0.5050505E-02  0.4157550E-09  0.0000000E+00 -0.8298250E-05
  0.5555556E-01  0.0000000E+00  0.5050505E-02  0.5042945E-09  0.0000000E+00 -0.8297329E-05
  0.6565657E-01  0.0000000E+00  0.5050505E-02  0.5905421E-09  0.0000000E+00 -0.8296233E-05
  0.7575758E-01  0.0000000E+00  0.5050505E-02  0.6740977E-09  0.0000000E+00 -0.8294967E-05
  0.8585858E-01  0.0000000E+00  0.5050505E-02  0.7545704E-09  0.0000000E+00 -0.8293537E-05
  0.9595960E-01  0.0000000E+00  0.5050505E-02  0.8315793E-09  0.0000000E+00 -0.8291950E-05
  0.1060606E+00  0.0000000E+00  0.5050505E-02  0.9047552E-09  0.0000000E+00 -0.8290211E-05
  0.1161616E+00  0.0000000E+00  0.5050505E-02  0.9737427E-09  0.0000000E+00 -0.8288331E-05
  0.1262626E+00  0.0000000E+00  0.5050505E-02  0.1038201E-08  0.0000000E+00 -0.8286317E-05
  0.1363636E+00  0.0000000E+00  0.5050505E-02  0.1097808E-08  0.0000000E+00 -0.8284179E-05
  0.1464646E+00  0.0000000E+00  0.5050505E-02  0.1152259E-08  0.0000000E+00 -0.8281927E-05
  0.1565657E+00  0.0000000E+00  0.5050505E-02  0.1201269E-08  0.0000000E+00 -0.8279571E-05
  0.1666667E+00  0.0000000E+00  0.5050505E-02  0.1244578E-08  0.0000000E+00 -0.8277122E-05
  0.1767677E+00  0.0000000E+00  0.5050505E-02  0.1281949E-08  0.0000000E+00 -0.8274593E-05
  0.1868687E+00  0.0000000E+00  0.5050505E-02  0.1313170E-08  0.0000000E+00 -0.8271995E-05
  0.1969697E+00  0.0000000E+00  0.5050505E-02  0.1338059E-08  0.0000000E+00 -0.8269342E-05
  0.2070707E+00  0.0000000E+00  0.5050505E-02  0.1356463E-08  0.0000000E+00 -0.8266644E-05
  0.2171717E+00  0.0000000E+00  0.5050505E-02  0.1368257E-08  0.0000000E+00 -0.8263917E-05
  0.2272727E+00  0.0000000E+00  0.5050505E-02  0.1373350E-08  0.0000000E+00 -0.8261172E-05
  0.2373737E+00  0.0000000E+00  0.5050505E-02  0.1371686E-08  0.0000000E+00 -0.8258425E-05
  0.2474747E+00  0.0000000E+00  0.5050505E-02  0.1363241E-08  0.0000000E+00 -0.8255687E-05
  0.2575758E+00  0.0000000E+00  0.5050505E-02  0.1348024E-08  0.0000000E+00 -0.8252973E-05
  0.2676768E+00  0.0000000E+00  0.5050505E-02  0.1326082E-08  0.0000000E+00 -0.8250296E-05
  0.2777778E+00  0.0000000E+00  0.5050505E-02  0.1297495E-08  0.0000000E+00 -0.8247670E-05
  0.2878788E+00  0.0000000E+00  0.5050505E-02  0.1262378E-08  0.0000000E+00 -0.8245107E-05
  0.2979798E+00  0.0000000E+00  0.5050505E-02  0.1220883E-08  0.0000000E+00 -0.8242622E-05
  0.3080808E+00  0.0000000E+00  0.5050505E-02  0.1173191E-08  0.0000000E+00 -0.8240225E-05
  0.3181818E+00  0.0000000E+00  0.5050505E-02  0.1119519E-08  0.0000000E+00 -0.8237930E-05
  0.3282828E+00  0.0000000E+00  0.5050505E-02  0.1060114E-08  0.0000000E+00 -0.8235748E-05
  0.3383838E+00  0.0000000E+00  0.5050505E-02  0.9952510E-09  0.0000000E+00 -0.8233691E-05
  0.3484848E+00  0.0000000E+00  0.5050505E-02  0.9252346E-09  0.0000000E+00 -0.8231768E-05
  0.3585859E+00  0.0000000E+00  0.5050505E-02  0.8503943E-09  0.0000000E+00 -0.8229991E-05
  0.3686869E+00  0.0000000E+00  0.5050505E-02  0.7710828E-09  0.0000000E+00 -0.8228368E-05
  0.3787879E+00  0.0000000E+00  0.5050505E-02  0.6876742E-09  0.0000000E+00 -0.8226908E-05
  0.3888889E+00  0.0000000E+00  0.5050505E-02  0.6005610E-09  0.0000000E+00 -0.8225618E-05
  0.3989899E+00  0.0000000E+00  0.5050505E-02  0.5101517E-09  0.0000000E+00 -0.8224506E-05
  0.4090909E+00  0.0000000E+00  0.5050505E-02  0.4168686E-09  0.0000000E+00 -0.8223578E-05
  0.4191919E+00  0.0000000E+00  0.5050505E-02  0.3211448E-09  0.0000000E+00 -0.8222840E-05
  0.4292929E+00  0.0000000E+00  0.5050505E-02  0.2234218E-09  0.0000000E+00 -0.8222294E-05
  0.4393939E+00  0.0000000E+00  0.5050505E-02  0.1241469E-09  0.0000000E+00 -0.8221946E-05
  0.4494950E+00  0.0000000E+00  0.5050505E-02  0.2377081E-10  0.0000000E+00 -0.8221798E-05
  0.4595959E+00  0.0000000E+00  0.5050505E-02 -0.7725473E-10  0.0000000E+00 -0.8221852E-05
  0.4696970E+00  0.0000000E+00  0.5050505E-02 -0.1784794E-09  0.0000000E+00 -0.8222108E-05
  0.4797980E+00  0.0000000E+00  0.5050505E-02 -0.2794563E-09  0.0000000E+00 -0.8222566E-05
  0.4898990E+00  0.0000000E+00  0.5050505E-02 -0.3797445E-09  0.0000000E+00 -0.8223226E-05
  0.5000000E+00  0.0000000E+00  0.5050505E-02 -0.4789107E-09  0.0000000E+00 -0.8224086E-05
  0.5101010E+00  0.0000000E+00  0.5050505E-02 -0.5765311E-09  0.0000000E+00 -0.8225142E-05
  0.5202020E+00  0.0000000E+00  0.5050505E-02 -0.6721936E-09  0.0000000E+00 -0.8226392E-05
  0.5303030E+00  0.0000000E+00  0.5050505E-02 -0.7654995E-09  0.0000000E+00 -0.8227831E-05
  0.5404040E+00  0.0000000E+00  0.5050505E-02 -0.8560648E-09  0.0000000E+00 -0.8229455E-05
  0.5505050E+00  0.0000000E+00  0.5050505E-02 -0.9435219E-09  0.0000000E+00 -0.8231256E-05
  0.5606061E+00  0.0000000E+00  0.5050505E-02 -0.1027522E-08  0.0000000E+00 -0.8233229E-05
  0.5707071E+00  0.0000000E+00  0.5050505E-02 -0.1107733E-08  0.0000000E+00 -0.8235366E-05
  0.5808081E+00  0.0000000E+00  0.5050505E-02 -0.1183848E-08  0.0000000E+00 -0.8237660E-05
  0.5909091E+00  0.0000000E+00  0.5050505E-02 -0.1255577E-08  0.0000000E+00 -0.8240102E-05
  0.6010101E+00  0.0000000E+00  0.5050505E-02 -0.1322655E-08  0.0000000E+00 -0.8242683E-05
  0.6111111E+00  0.0000000E+00  0.5050505E-02 -0.1384841E-08  0.0000000E+00 -0.8245393E-05
  0.6212121E+00  0.0000000E+00  0.5050505E-02 -0.1441918E-08  0.0000000E+00 -0.8248223E-05
  0.6313131E+00  0.0000000E+00  0.5050505E-02 -0.1493695E-08  0.0000000E+00 -0.8251161E-05
  0.6414142E+00  0.0000000E+00  0.5050505E-02 -0.1540004E-08  0.0000000E+00 -0.8254198E-05
  0.6515151E+00  0.0000000E+00  0.5050505E-02 -0.1580705E-08  0.0000000E+00 -0.8257322E-05
  0.6616161E+00  0.0000000E+00  0.5050505E-02 -0.1615685E-08  0.0000000E+00 -0.8260522E-05
  0.6717172E+00  0.0000000E+00  0.5050505E-02 -0.1644856E-08  0.0000000E+00 -0.8263786E-05
  0.6818182E+00  0.0000000E+00  0.5050505E-02 -0.1668155E-08  0.0000000E+00 -0.8267102E-05
  0.6919192E+00  0.0000000E+00  0.5050505E-02 -0.1685545E-08  0.0000000E+00 -0.8270459E-05
  0.7020202E+00  0.0000000E+00  0.5050505E-02 -0.1697016E-08  0.0000000E+00 -0.8273845E-05
  0.7121212E+00  0.0000000E+00  0.5050505E-02 -0.1702581E-08  0.0000000E+00 -0.8277248E-05
  0.7222222E+00  0.0000000E+00  0.5050505E-02 -0.1702276E-08  0.0000000E+00 -0.8280656E-05
  0.7323232E+00  0.0000000E+00  0.5050505E-02 -0.1696161E-08  0.0000000E+00 -0.8284058E-05
  0.7424242E+00  0.0000000E+00  0.5050505E-02 -0.1684316E-08  0.0000000E+00 -0.8287442E-05
  0.7525253E+00  0.0000000E+00  0.5050505E-02 -0.1666843E-08  0.0000000E+00 -0.8290797E-05
  0.7626263E+00  0.0000000E+00  0.5050505E-02 -0.1643862E-08  0.0000000E+00 -0.8294111E-05
  0.7727273E+00  0.0000000E+00  0.5050505E-02 -0.1615509E-08  0.0000000E+00 -0.8297374E-05
  0.7828283E+00  0.0000000E+00  0.5050505E-02 -0.1581940E-08  0.0000000E+00 -0.8300574E-05
  0.7929293E+00  0.0000000E+00  0.5050505E-02 -0.1543323E-08  0.0000000E+00 -0.8303703E-05
  0.8030303E+00  0.0000000E+00  0.5050505E-02 -0.1499839E-08  0.0000000E+00 -0.8306749E-05
  0.8131313E+00  0.0000000E+00  0.5050505E-02 -0.1451683E-08  0.0000000E+00 -0.8309704E-05
  0.8232324E+00  0.0000000E+00  0.5050505E-02 -0.1399059E-08  0.0000000E+00 -0.8312557E-05
  0.8333333E+00  0.0000000E+00  0.5050505E-02 -0.1342180E-08  0.0000000E+00 -0.8315301E-05
  0.8434343E+00  0.0000000E+00  0.5050505E-02 -0.1281268E-08  0.0000000E+00 -0.8317927E-05
  0.8535354E+00  0.0000000E+00  0.5050505E-02 -0.1216549E-08  0.0000000E+00 -0.8320428E-05
  0.8636364E+00  0.0000000E+00  0.5050505E-02 -0.1148257E-08  0.0000000E+00 -0.8322795E-05
  0.8737374E+00  0.0000000E+00  0.5050505E-02 -0.1076631E-08  0.0000000E+00 -0.8325022E-05
  0.8838384E+00  0.0000000E+00  0.5050505E-02 -0.1001910E-08  0.0000000E+00 -0.8327103E-05
  0.8939394E+00  0.0000000E+00  0.5050505E-02 -0.9243382E-09  0.0000000E+00 -0.8329031E-05
  0.9040404E+00  0.0000000E+00  0.5050505E-02 -0.8441622E-09  0.0000000E+00 -0.8330801E-05
  0.9141414E+00  0.0000000E+00  0.5050505E-02 -0.7616286E-09  0.0000000E+00 -0.8332409E-05
  0.9242424E+00  0.0000000E+00  0.5050505E-02 -0.6769855E-09  0.0000000E+00 -0.8333849E-05
  0.9343435E+00  0.0000000E+00  0.5050505E-02 -0.5904812E-09  0.0000000E+00 -0.8335118E-05
  0.9444444E+00  0.0000000E+00  0.5050505E-02 -0.5023646E-09  0.0000000E+00 -0.8336212E-05
  0.9545454E+00  0.0000000E+00  0.5050505E-02 -0.4128840E-09  0.0000000E+00 -0.8337128E-05
  0.9646465E+00  0.0000000E+00  0.5050505E-02 -0.3222881E-09  0.0000000E+00 -0.8337864E-05
  0.9747475E+00  0.0000000E+00  0.5050505E-02 -0.2308250E-09  0.0000000E+00 -0.8338417E-05
  0.9848485E+00  0.0000000E+00  0.5050505E-02 -0.1387428E-09  0.0000000E+00 -0.8338787E-05
  0.9974747E+00  0.0000000E+00  0.5050505E-02 -0.4628918E-10  0.0000000E+00 -0.8338972E-05
  0.5050505E-02  0.0000000E+00  0.1515152E-01  0.1410645E-09  0.0000000E+00 -0.8289897E-05
  0.1515152E-01  0.0000000E+00  0.1515152E-01  0.4225598E-09  0.0000000E+00 -0.8289708E-05
  0.2525252E-01  0.0000000E+00  0.1515152E-01  0.7021491E-09  0.0000000E+00 -0.8289330E-05
  0.3535353E-01  0.0000000E+00  0.1515152E-01  0.9785673E-09  0.0000000E+00 -0.8288764E-05
  0.4545455E-01  0.0000000E+00  0.1515152E-01  0.1250560E-08  0.0000000E+00 -0.8288014E-05
  0.5555556E-01  0.0000000E+00  0.1515152E-01  0.1516884E-08  0.0000000E+00 -0.8287083E-05
  0.6565657E-01  0.0000000E+00  0.1515152E-01  0.1776317E-08  0.0000000E+00 -0.8285975E-05
  0.7575758E-01  0.0000000E+00  0.1515152E-01  0.2027656E-08  0.0000000E+00 -0.8284696E-05
  0.8585858E-01  0.0000000E+00  0.1515152E-01  0.2269724E-08  0.0000000E+00 -0.8283250E-05
  0.9595960E-01  0.0000000E+00  0.1515152E-01  0.2501375E-08  0.0000000E+00 -0.8281645E-05
  0.1060606E+00  0.0000000E+00  0.1515152E-01  0.2721501E-08  0.0000000E+00 -0.8279888E-05
  0.1161616E+00  0.0000000E+00  0.1515152E-01  0.2929030E-08  0.0000000E+00 -0.8277987E-05
  0.1262626E+00  0.0000000E+00  0.1515152E-01  0.3122939E-08  0.0000000E+00 -0.8275951E-05
  0.1363636E+00  0.0000000E+00  0.1515152E-01  0.3302256E-08  0.0000000E+00 -0.8273789E-05
  0.1464646E+00  0.0000000E+00  0.1515152E-01  0.3466065E-08  0.0000000E+00 -0.8271512E-05
  0.1565657E+00  0.0000000E+00  0.1515152E-01  0.3613510E-08  0.0000000E+00 -0.8269131E-05
  0.1666667E+00  0.0000000E+00  0.1515152E-01  0.3743807E-08  0.0000000E+00 -0.8266655E-05
  0.1767677E+00  0.0000000E+00  0.1515152E-01  0.3856241E-08  0.0000000E+00 -0.8264098E-05
  0.1868687E+00  0.0000000E+00  0.1515152E-01  0.3950178E-08  0.0000000E+00 -0.8261472E-05
  0.1969697E+00  0.0000000E+00  0.1515152E-01  0.4025066E-08  0.0000000E+00 -0.8258789E-05
  0.2070707E+00  0.0000000E+00  0.1515152E-01  0.4080442E-08  0.0000000E+00 -0.8256062E-05
  0.2171717E+00  0.0000000E+00  0.1515152E-01  0.4115935E-08  0.0000000E+00 -0.8253304E-05
  0.2272727E+00  0.0000000E+00  0.1515152E-01  0.4131271E-08  0.0000000E+00 -0.8250529E-05
  0.2373737E+00  0.0000000E+00  0.1515152E-01  0.4126276E-08  0.0000000E+00 -0.8247751E-05
  0.2474747E+00  0.0000000E+00  0.1515152E-01  0.4100878E-08  0.0000000E+00 -0.8244983E-05
  0.2575758E+00  0.0000000E+00  0.1515152E-01  0.4055109E-08  0.0000000E+00 -0.8242239E-05
  0.2676768E+00  0.0000000E+00  0.1515152E-01  0.3989105E-08  0.0000000E+00 -0.8239532E-05
  0.2777778E+00  0.0000000E+00  0.1515152E-01  0.3903110E-08  0.0000000E+00 -0.8236877E-05
  0.2878788E+00  0.0000000E+00  0.1515152E-01  0.3797472E-08  0.0000000E+00 -0.8234286E-05
  0.2979798E+00  0.0000000E+00  0.1515152E-01  0.3672642E-08  0.0000000E+00 -0.8231773E-05
  0.3080808E+00  0.0000000E+00  0.1515152E-01  0.3529170E-08  0.0000000E+00 -0.8229350E-05
  0.3181818E+00  0.0000000E+00  0.1515152E-01  0.3367708E-08  0.0000000E+00 -0.8227029E-05
  0.3282828E+00  0.0000000E+00  0.1515152E-01  0.3188997E-08  0.0000000E+00 -0.8224823E-05
  0.3383838E+00  0.0000000E+00  0.1515152E-01  0.2993869E-08  0.0000000E+00 -0.8222743E-05
  0.3484848E+00  0.0000000E+00  0.1515152E-01  0.2783240E-08  0.0000000E+00 -0.8220799E-05
  0.3585859E+00  0.0000000E+00  0.1515152E-01  0.2558101E-08  0.0000000E+00 -0.8219002E-05
  0.3686869E+00  0.0000000E+00  0.1515152E-01  0.2319515E-08  0.0000000E+00 -0.8217361E-05
  0.3787879E+00  0.0000000E+00  0.1515152E-01  0.2068606E-08  0.0000000E+00 -0.8215885E-05
  0.3888889E+00  0.0000000E+00  0.1515152E-01  0.1806558E-08  0.0000000E+00 -0.8214581E-05
  0.3989899E+00  0.0000000E+00  0.1515152E-01  0.1534598E-08  0.0000000E+00 -0.8213457E-05
  0.4090909E+00  0.0000000E+00  0.1515152E-01  0.1253999E-08  0.0000000E+00 -0.8212519E-05
  0.4191919E+00  0.0000000E+00  0.1515152E-01  0.9660633E-09  0.0000000E+00 -0.8211772E-05
  0.4292929E+00  0.0000000E+00  0.1515152E-01  0.6721192E-09  0.0000000E+00 -0.8211221E-05
  0.4393939E+00  0.0000000E+00  0.1515152E-01  0.3735128E-09  0.0000000E+00 -0.8210869E-05
  0.4494950E+00  0.0000000E+00  0.1515152E-01  0.7160004E-10  0.0000000E+00 -0.8210719E-05
  0.4595959E+00  0.0000000E+00  0.1515152E-01 -0.2322602E-09  0.0000000E+00 -0.8210773E-05
  0.4696970E+00  0.0000000E+00  0.1515152E-01 -0.5367134E-09  0.0000000E+00 -0.8211031E-05
  0.4797980E+00  0.0000000E+00  0.1515152E-01 -0.8404156E-09  0.0000000E+00 -0.8211494E-05
  0.4898990E+00  0.0000000E+00  0.1515152E-01 -0.1142040E-08  0.0000000E+00 -0.8212161E-05
  0.5000000E+00  0.0000000E+00  0.1515152E-01 -0.1440284E-08  0.0000000E+00 -0.8213029E-05
  0.5101010E+00  0.0000000E+00  0.1515152E-01 -0.1733874E-08  0.0000000E+00 -0.8214097E-05
  0.5202020E+00  0.0000000E+00  0.1515152E-01 -0.2021569E-08  0.0000000E+00 -0.8215360E-05
  0.5303030E+00  0.0000000E+00  0.1515152E-01 -0.2302171E-08  0.0000000E+00 -0.8216814E-05
  0.5404040E+00  0.0000000E+00  0.1515152E-01 -0.2574525E-08  0.0000000E+00 -0.8218454E-05
  0.5505050E+00  0.0000000E+00  0.1515152E-01 -0.2837527E-08  0.0000000E+00 -0.8220274E-05
  0.5606061E+00  0.0000000E+00  0.1515152E-01 -0.3090124E-08  0.0000000E+00 -0.8222267E-05
  0.5707071E+00  0.0000000E+00  0.1515152E-01 -0.3331326E-08  0.0000000E+00 -0.8224426E-05
  0.5808081E+00  0.0000000E+00  0.1515152E-01 -0.3560199E-08  0.0000000E+00 -0.8226744E-05
  0.5909091E+00  0.0000000E+00  0.1515152E-01 -0.3775879E-08  0.0000000E+00 -0.8229210E-05
  0.6010101E+00  0.0000000E+00  0.1515152E-01 -0.3977569E-08  0.0000000E+00 -0.8231818E-05
  0.6111111E+00  0.0000000E+00  0.1515152E-01 -0.4164541E-08  0.0000000E+00 -0.8234555E-05
  0.6212121E+00  0.0000000E+00  0.1515152E-01 -0.4336145E-08  0.0000000E+00 -0.8237414E-05
  0.6313131E+00  0.0000000E+00  0.1515152E-01 -0.4491803E-08  0.0000000E+00 -0.8240382E-05
  0.6414142E+00  0.0000000E+00  0.1515152E-01 -0.4631016E-08  0.0000000E+00 -0.8243449E-05
  0.6515151E+00  0.0000000E+00  0.1515152E-01 -0.4753361E-08  0.0000000E+00 -0.8246604E-05
  0.6616161E+00  0.0000000E+00  0.1515152E-01 -0.4858497E-08  0.0000000E+00 -0.8249836E-05
  0.6717172E+00  0.0000000E+00  0.1515152E-01 -0.4946159E-08  0.0000000E+00 -0.8253133E-05
  0.6818182E+00  0.0000000E+00  0.1515152E-01 -0.5016161E-08  0.0000000E+00 -0.8256482E-05
  0.6919192E+00  0.0000000E+00  0.1515152E-01 -0.5068393E-08  0.0000000E+00 -0.8259872E-05
  0.7020202E+00  0.0000000E+00  0.1515152E-01 -0.5102824E-08  0.0000000E+00 -0.8263292E-05
  0.7121212E+00  0.0000000E+00  0.1515152E-01 -0.5119492E-08  0.0000000E+00 -0.8266728E-05
  0.7222222E+00  0.0000000E+00  0.1515152E-01 -0.5118509E-08  0.0000000E+00 -0.8270170E-05
  0.7323232E+00  0.0000000E+00  0.1515152E-01 -0.5100055E-08  0.0000000E+00 -0.8273605E-05
  0.7424242E+00  0.0000000E+00  0.1515152E-01 -0.5064372E-08  0.0000000E+00 -0.8277022E-05
  0.7525253E+00  0.0000000E+00  0.1515152E-01 -0.5011766E-08  0.0000000E+00 -0.8280409E-05
  0.7626263E+00  0.0000000E+00  0.1515152E-01 -0.4942599E-08  0.0000000E+00 -0.8283755E-05
  0.7727273E+00  0.0000000E+00  0.1515152E-01 -0.4857285E-08  0.0000000E+00 -0.8287049E-05
  0.7828283E+00  0.0000000E+00  0.1515152E-01 -0.4756289E-08  0.0000000E+00 -0.8290280E-05
  0.7929293E+00  0.0000000E+00  0.1515152E-01 -0.4640119E-08  0.0000000E+00 -0.8293438E-05
  0.8030303E+00  0.0000000E+00  0.1515152E-01 -0.4509322E-08  0.0000000E+00 -0.8296513E-05
  0.8131313E+00  0.0000000E+00  0.1515152E-01 -0.4364481E-08  0.0000000E+00 -0.8299496E-05
  0.8232324E+00  0.0000000E+00  0.1515152E-01 -0.4206212E-08  0.0000000E+00 -0.8302376E-05
  0.8333333E+00  0.0000000E+00  0.1515152E-01 -0.4035157E-08  0.0000000E+00 -0.8305146E-05
  0.8434343E+00  0.0000000E+00  0.1515152E-01 -0.3851981E-08  0.0000000E+00 -0.8307796E-05
  0.8535354E+00  0.0000000E+00  0.1515152E-01 -0.3657368E-08  0.0000000E+00 -0.8310320E-05
  0.8636364E+00  0.0000000E+00  0.1515152E-01 -0.3452021E-08  0.0000000E+00 -0.8312709E-05
  0.8737374E+00  0.0000000E+00  0.1515152E-01 -0.3236653E-08  0.0000000E+00 -0.8314957E-05
  0.8838384E+00  0.0000000E+00  0.1515152E-01 -0.3011991E-08  0.0000000E+00 -0.8317056E-05
  0.8939394E+00  0.0000000E+00  0.1515152E-01 -0.2778765E-08  0.0000000E+00 -0.8319002E-05
  0.9040404E+00  0.0000000E+00  0.1515152E-01 -0.2537716E-08  0.0000000E+00 -0.8320789E-05
  0.9141414E+00  0.0000000E+00  0.1515152E-01 -0.2289586E-08  0.0000000E+00 -0.8322411E-05
  0.9242424E+00  0.0000000E+00  0.1515152E-01 -0.2035119E-08  0.0000000E+00 -0.8323864E-05
  0.9343435E+00  0.0000000E+00  0.1515152E-01 -0.1775063E-08  0.0000000E+00 -0.8325144E-05
  0.9444444E+00  0.0000000E+00  0.1515152E-01 -0.1510165E-08  0.0000000E+00 -0.8326248E-05
  0.9545454E+00  0.0000000E+00  0.1515152E-01 -0.1241170E-08  0.0000000E+00 -0.8327172E-05
  0.9646465E+00  0.0000000E+00  0.1515152E-01 -0.9688263E-09  0.0000000E+00 -0.8327915E-05
  0.9747475E+00  0.0000000E+00  0.1515152E-01 -0.6938782E-09  0.0000000E+00 -0.8328474E-05
  0.9848485E+00  0.0000000E+00  0.1515152E-01 -0.4170709E-09  0.0000000E+00 -0.8328847E-05
  0.9974747E+00  0.0000000E+00  0.1515152E-01 -0.1391483E-09  0.0000000E+00 -0.8329034E-05
  0.5050505E-02  0.0000000E+00  0.2525252E-01  0.2364839E-09  0.0000000E+00 -0.8269492E-05
  0.1515152E-01  0.0000000E+00  0.2525252E-01  0.7083892E-09  0.0000000E+00 -0.8269298E-05
  0.2525252E-01  0.0000000E+00  0.2525252E-01  0.1177102E-08  0.0000000E+00 -0.8268911E-05
  0.3535353E-01  0.0000000E+00  0.2525252E-01  0.1640503E-08  0.0000000E+00 -0.8268334E-05
  0.4545455E-01  0.0000000E+00  0.2525252E-01  0.2096490E-08  0.0000000E+00 -0.8267568E-05
  0.5555556E-01  0.0000000E+00  0.2525252E-01  0.2542982E-08  0.0000000E+00 -0.8266617E-05
  0.6565657E-01  0.0000000E+00  0.2525252E-01  0.2977929E-08  0.0000000E+00 -0.8265485E-05
  0.7575758E-01  0.0000000E+00  0.2525252E-01  0.3399315E-08  0.0000000E+00 -0.8264178E-05
  0.8585858E-01  0.0000000E+00  0.2525252E-01  0.3805169E-08  0.0000000E+00 -0.8262701E-05
  0.9595960E-01  0.0000000E+00  0.2525252E-01  0.4193569E-08  0.0000000E+00 -0.8261061E-05
  0.1060606E+00  0.0000000E+00  0.2525252E-01  0.4562655E-08  0.0000000E+00 -0.8259266E-05
  0.1161616E+00  0.0000000E+00  0.2525252E-01  0.4910634E-08  0.0000000E+00 -0.8257324E-05
  0.1262626E+00  0.0000000E+00  0.2525252E-01  0.5235786E-08  0.0000000E+00 -0.8255244E-05
  0.1363636E+00  0.0000000E+00  0.2525252E-01  0.5536482E-08  0.0000000E+00 -0.8253035E-05
  0.1464646E+00  0.0000000E+00  0.2525252E-01  0.5811183E-08  0.0000000E+00 -0.8250708E-05
  0.1565657E+00  0.0000000E+00  0.2525252E-01  0.6058455E-08  0.0000000E+00 -0.8248275E-05
  0.1666667E+00  0.0000000E+00  0.2525252E-01  0.6276979E-08  0.0000000E+00 -0.8245745E-05
  0.1767677E+00  0.0000000E+00  0.2525252E-01  0.6465556E-08  0.0000000E+00 -0.8243132E-05
  0.1868687E+00  0.0000000E+00  0.2525252E-01  0.6623119E-08  0.0000000E+00 -0.8240448E-05
  0.1969697E+00  0.0000000E+00  0.2525252E-01  0.6748742E-08  0.0000000E+00 -0.8237706E-05
  0.2070707E+00  0.0000000E+00  0.2525252E-01  0.6841646E-08  0.0000000E+00 -0.8234919E-05
  0.2171717E+00  0.0000000E+00  0.2525252E-01  0.6901208E-08  0.0000000E+00 -0.8232101E-05
  0.2272727E+00  0.0000000E+00  0.2525252E-01  0.6926966E-08  0.0000000E+00 -0.8229265E-05
  0.2373737E+00  0.0000000E+00  0.2525252E-01  0.6918627E-08  0.0000000E+00 -0.8226426E-05
  0.2474747E+00  0.0000000E+00  0.2525252E-01  0.6876068E-08  0.0000000E+00 -0.8223597E-05
  0.2575758E+00  0.0000000E+00  0.2525252E-01  0.6799344E-08  0.0000000E+00 -0.8220792E-05
  0.2676768E+00  0.0000000E+00  0.2525252E-01  0.6688683E-08  0.0000000E+00 -0.8218026E-05
  0.2777778E+00  0.0000000E+00  0.2525252E-01  0.6544493E-08  0.0000000E+00 -0.8215312E-05
  0.2878788E+00  0.0000000E+00  0.2525252E-01  0.6367358E-08  0.0000000E+00 -0.8212664E-05
  0.2979798E+00  0.0000000E+00  0.2525252E-01  0.6158035E-08  0.0000000E+00 -0.8210095E-05
  0.3080808E+00  0.0000000E+00  0.2525252E-01  0.5917451E-08  0.0000000E+00 -0.8207619E-05
  0.3181818E+00  0.0000000E+00  0.2525252E-01  0.5646696E-08  0.0000000E+00 -0.8205247E-05
  0.3282828E+00  0.0000000E+00  0.2525252E-01  0.5347018E-08  0.0000000E+00 -0.8202992E-05
  0.3383838E+00  0.0000000E+00  0.2525252E-01  0.5019815E-08  0.0000000E+00 -0.8200866E-05
  0.3484848E+00  0.0000000E+00  0.2525252E-01  0.4666622E-08  0.0000000E+00 -0.8198880E-05
  0.3585859E+00  0.0000000E+00  0.2525252E-01  0.4289105E-08  0.0000000E+00 -0.8197044E-05
  0.3686869E+00  0.0000000E+00  0.2525252E-01  0.3889049E-08  0.0000000E+00 -0.8195366E-05
  0.3787879E+00  0.0000000E+00  0.2525252E-01  0.3468343E-08  0.0000000E+00 -0.8193858E-05
  0.3888889E+00  0.0000000E+00  0.2525252E-01  0.3028971E-08  0.0000000E+00 -0.8192525E-05
  0.3989899E+00  0.0000000E+00  0.2525252E-01  0.2572996E-08  0.0000000E+00 -0.8191377E-05
  0.4090909E+00  0.0000000E+00  0.2525252E-01  0.2102551E-08  0.0000000E+00 -0.8190418E-05
  0.4191919E+00  0.0000000E+00  0.2525252E-01  0.1619823E-08  0.0000000E+00 -0.8189655E-05
  0.4292929E+00  0.0000000E+00  0.2525252E-01  0.1127041E-08  0.0000000E+00 -0.8189091E-05
  0.4393939E+00  0.0000000E+00  0.2525252E-01  0.6264611E-09  0.0000000E+00 -0.8188731E-05
  0.4494950E+00  0.0000000E+00  0.2525252E-01  0.1203582E-09  0.0000000E+00 -0.8188578E-05
  0.4595959E+00  0.0000000E+00  0.2525252E-01 -0.3889895E-09  0.0000000E+00 -0.8188633E-05
  0.4696970E+00  0.0000000E+00  0.2525252E-01 -0.8993109E-09  0.0000000E+00 -0.8188896E-05
  0.4797980E+00  0.0000000E+00  0.2525252E-01 -0.1408354E-08  0.0000000E+00 -0.8189369E-05
  0.4898990E+00  0.0000000E+00  0.2525252E-01 -0.1913894E-08  0.0000000E+00 -0.8190049E-05
  0.5000000E+00  0.0000000E+00  0.2525252E-01 -0.2413748E-08  0.0000000E+00 -0.8190935E-05
  0.5101010E+00  0.0000000E+00  0.2525252E-01 -0.2905782E-08  0.0000000E+00 -0.8192024E-05
  0.5202020E+00  0.0000000E+00  0.2525252E-01 -0.3387918E-08  0.0000000E+00 -0.8193313E-05
  0.5303030E+00  0.0000000E+00  0.2525252E-01 -0.3858147E-08  0.0000000E+00 -0.8194797E-05
  0.5404040E+00  0.0000000E+00  0.2525252E-01 -0.4314535E-08  0.0000000E+00 -0.8196471E-05
  0.5505050E+00  0.0000000E+00  0.2525252E-01 -0.4755231E-08  0.0000000E+00 -0.8198328E-05
  0.5606061E+00  0.0000000E+00  0.2525252E-01 -0.5178474E-08  0.0000000E+00 -0.8200362E-05
  0.5707071E+00  0.0000000E+00  0.2525252E-01 -0.5582601E-08  0.0000000E+00 -0.8202565E-05
  0.5808081E+00  0.0000000E+00  0.2525252E-01 -0.5966051E-08  0.0000000E+00 -0.8204930E-05
  0.5909091E+00  0.0000000E+00  0.2525252E-01 -0.6327376E-08  0.0000000E+00 -0.8207447E-05
  0.6010101E+00  0.0000000E+00  0.2525252E-01 -0.6665239E-08  0.0000000E+00 -0.8210107E-05
  0.6111111E+00  0.0000000E+00  0.2525252E-01 -0.6978425E-08  0.0000000E+00 -0.8212900E-05
  0.6212121E+00  0.0000000E+00  0.2525252E-01 -0.7265841E-08  0.0000000E+00 -0.8215816E-05
  0.6313131E+00  0.0000000E+00  0.2525252E-01 -0.7526522E-08  0.0000000E+00 -0.8218844E-05
  0.6414142E+00  0.0000000E+00  0.2525252E-01 -0.7759630E-08  0.0000000E+00 -0.8221972E-05
  0.6515151E+00  0.0000000E+00  0.2525252E-01 -0.7964462E-08  0.0000000E+00 -0.8225191E-05
  0.6616161E+00  0.0000000E+00  0.2525252E-01 -0.8140444E-08  0.0000000E+00 -0.8228486E-05
  0.6717172E+00  0.0000000E+00  0.2525252E-01 -0.8287135E-08  0.0000000E+00 -0.8231848E-05
  0.6818182E+00  0.0000000E+00  0.2525252E-01 -0.8404225E-08  0.0000000E+00 -0.8235264E-05
  0.6919192E+00  0.0000000E+00  0.2525252E-01 -0.8491533E-08  0.0000000E+00 -0.8238721E-05
  0.7020202E+00  0.0000000E+00  0.2525252E-01 -0.8549006E-08  0.0000000E+00 -0.8242207E-05
  0.7121212E+00  0.0000000E+00  0.2525252E-01 -0.8576714E-08  0.0000000E+00 -0.8245711E-05
  0.7222222E+00  0.0000000E+00  0.2525252E-01 -0.8574846E-08  0.0000000E+00 -0.8249220E-05
  0.7323232E+00  0.0000000E+00  0.2525252E-01 -0.8543704E-08  0.0000000E+00 -0.8252721E-05
  0.7424242E+00  0.0000000E+00  0.2525252E-01 -0.8483701E-08  0.0000000E+00 -0.8256204E-05
  0.7525253E+00  0.0000000E+00  0.2525252E-01 -0.8395350E-08  0.0000000E+00 -0.8259656E-05
  0.7626263E+00  0.0000000E+00  0.2525252E-01 -0.8279260E-08  0.0000000E+00 -0.8263066E-05
  0.7727273E+00  0.0000000E+00  0.2525252E-01 -0.8136131E-08  0.0000000E+00 -0.8266423E-05
  0.7828283E+00  0.0000000E+00  0.2525252E-01 -0.7966742E-08  0.0000000E+00 -0.8269716E-05
  0.7929293E+00  0.0000000E+00  0.2525252E-01 -0.7771946E-08  0.0000000E+00 -0.8272934E-05
  0.8030303E+00  0.0000000E+00  0.2525252E-01 -0.7552665E-08  0.0000000E+00 -0.8276067E-05
  0.8131313E+00  0.0000000E+00  0.2525252E-01 -0.7309878E-08  0.0000000E+00 -0.8279105E-05
  0.8232324E+00  0.0000000E+00  0.2525252E-01 -0.7044617E-08  0.0000000E+00 -0.8282039E-05
  0.8333333E+00  0.0000000E+00  0.2525252E-01 -0.6757961E-08  0.0000000E+00 -0.8284860E-05
  0.8434343E+00  0.0000000E+00  0.2525252E-01 -0.6451024E-08  0.0000000E+00 -0.8287560E-05
  0.8535354E+00  0.0000000E+00  0.2525252E-01 -0.6124956E-08  0.0000000E+00 -0.8290130E-05
  0.8636364E+00  0.0000000E+00  0.2525252E-01 -0.5780932E-08  0.0000000E+00 -0.8292563E-05
  0.8737374E+00  0.0000000E+00  0.2525252E-01 -0.5420149E-08  0.0000000E+00 -0.8294852E-05
  0.8838384E+00  0.0000000E+00  0.2525252E-01 -0.5043823E-08  0.0000000E+00 -0.8296990E-05
  0.8939394E+00  0.0000000E+00  0.2525252E-01 -0.4653180E-08  0.0000000E+00 -0.8298971E-05
  0.9040404E+00  0.0000000E+00  0.2525252E-01 -0.4249456E-08  0.0000000E+00 -0.8300790E-05
  0.9141414E+00  0.0000000E+00  0.2525252E-01 -0.3833895E-08  0.0000000E+00 -0.8302442E-05
  0.9242424E+00  0.0000000E+00  0.2525252E-01 -0.3407743E-08  0.0000000E+00 -0.8303921E-05
  0.9343435E+00  0.0000000E+00  0.2525252E-01 -0.2972249E-08  0.0000000E+00 -0.8305224E-05
  0.9444444E+00  0.0000000E+00  0.2525252E-01 -0.2528663E-08  0.0000000E+00 -0.8306348E-05
  0.9545454E+00  0.0000000E+00  0.2525252E-01 -0.2078231E-08  0.0000000E+00 -0.8307289E-05
  0.9646465E+00  0.0000000E+00  0.2525252E-01 -0.1622203E-08  0.0000000E+00 -0.8308045E-05
  0.9747475E+00  0.0000000E+00  0.2525252E-01 -0.1161823E-08  0.0000000E+00 -0.8308613E-05
  0.9848485E+00  0.0000000E+00  0.2525252E-01 -0.6983367E-09  0.0000000E+00 -0.8308993E-05
  0.9974747E+00  0.0000000E+00  0.2525252E-01 -0.2329868E-09  0.0000000E+00 -0.8309184E-05
  0.5050505E-02  0.0000000E+00  0.3535353E-01  0.3341857E-09  0.0000000E+00 -0.8238939E-05
  0.1515152E-01  0.0000000E+00  0.3535353E-01  0.1001057E-08  0.0000000E+00 -0.8238739E-05
  0.2525252E-01  0.0000000E+00  0.3535353E-01  0.1663422E-08  0.0000000E+00 -0.8238340E-05
  0.3535353E-01  0.0000000E+00  0.3535353E-01  0.2318289E-08  0.0000000E+00 -0.8237744E-05
  0.4545455E-01  0.0000000E+00  0.3535353E-01  0.2962691E-08  0.0000000E+00 -0.8236954E-05
  0.5555556E-01  0.0000000E+00  0.3535353E-01  0.3593691E-08  0.0000000E+00 -0.8235973E-05
  0.6565657E-01  0.0000000E+00  0.3535353E-01  0.4208393E-08  0.0000000E+00 -0.8234805E-05
  0.7575758E-01  0.0000000E+00  0.3535353E-01  0.4803949E-08  0.0000000E+00 -0.8233456E-05
  0.8585858E-01  0.0000000E+00  0.3535353E-01  0.5377575E-08  0.0000000E+00 -0.8231932E-05
  0.9595960E-01  0.0000000E+00  0.3535353E-01  0.5926557E-08  0.0000000E+00 -0.8230239E-05
  0.1060606E+00  0.0000000E+00  0.3535353E-01  0.6448264E-08  0.0000000E+00 -0.8228387E-05
  0.1161616E+00  0.0000000E+00  0.3535353E-01  0.6940159E-08  0.0000000E+00 -0.8226382E-05
  0.1262626E+00  0.0000000E+00  0.3535353E-01  0.7399815E-08  0.0000000E+00 -0.8224235E-05
  0.1363636E+00  0.0000000E+00  0.3535353E-01  0.7824921E-08  0.0000000E+00 -0.8221955E-05
  0.1464646E+00  0.0000000E+00  0.3535353E-01  0.8213301E-08  0.0000000E+00 -0.8219554E-05
  0.1565657E+00  0.0000000E+00  0.3535353E-01  0.8562927E-08  0.0000000E+00 -0.8217041E-05
  0.1666667E+00  0.0000000E+00  0.3535353E-01  0.8871927E-08  0.0000000E+00 -0.8214430E-05
  0.1767677E+00  0.0000000E+00  0.3535353E-01  0.9138604E-08  0.0000000E+00 -0.8211733E-05
  0.1868687E+00  0.0000000E+00  0.3535353E-01  0.9361446E-08  0.0000000E+00 -0.8208962E-05
  0.1969697E+00  0.0000000E+00  0.3535353E-01  0.9539138E-08  0.0000000E+00 -0.8206131E-05
  0.2070707E+00  0.0000000E+00  0.3535353E-01  0.9670575E-08  0.0000000E+00 -0.8203253E-05
  0.2171717E+00  0.0000000E+00  0.3535353E-01  0.9754872E-08  0.0000000E+00 -0.8200343E-05
  0.2272727E+00  0.0000000E+00  0.3535353E-01  0.9791375E-08  0.0000000E+00 -0.8197415E-05
  0.2373737E+00  0.0000000E+00  0.3535353E-01  0.9779663E-08  0.0000000E+00 -0.8194483E-05
  0.2474747E+00  0.0000000E+00  0.3535353E-01  0.9719564E-08  0.0000000E+00 -0.8191561E-05
  0.2575758E+00  0.0000000E+00  0.3535353E-01  0.9611150E-08  0.0000000E+00 -0.8188665E-05
  0.2676768E+00  0.0000000E+00  0.3535353E-01  0.9454746E-08  0.0000000E+00 -0.8185809E-05
  0.2777778E+00  0.0000000E+00  0.3535353E-01  0.9250928E-08  0.0000000E+00 -0.8183006E-05
  0.2878788E+00  0.0000000E+00  0.3535353E-01  0.9000523E-08  0.0000000E+00 -0.8180272E-05
  0.2979798E+00  0.0000000E+00  0.3535353E-01  0.8704603E-08  0.0000000E+00 -0.8177619E-05