title = "dataset water"
variables = "x", "y", "z", "vx", "vy", "vz"
zone t = "velocities, solution time =  9.000E+00 days        " i =   99, j =   99, k =    1,  f=point
  0.5050505E-02  0.0000000E+00  0.5050505E-02  0.3778692E-13  0.0000000E+00 -0.6630542E-04
  0.1515152E-01  0.0000000E+00  0.5050505E-02 -0.1438339E-12  0.0000000E+00 -0.6630542E-04
  0.2525252E-01  0.0000000E+00  0.5050505E-02 -0.3921960E-12  0.0000000E+00 -0.6630543E-04
  0.3535353E-01  0.0000000E+00  0.5050505E-02 -0.5660381E-12  0.0000000E+00 -0.6630543E-04
  0.4545455E-01  0.0000000E+00  0.5050505E-02 -0.6786037E-12  0.0000000E+00 -0.6630543E-04
  0.5555556E-01  0.0000000E+00  0.5050505E-02 -0.7517733E-12  0.0000000E+00 -0.6630543E-04
  0.6565657E-01  0.0000000E+00  0.5050505E-02 -0.7984432E-12  0.0000000E+00 -0.6630543E-04
  0.7575758E-01  0.0000000E+00  0.5050505E-02 -0.8352289E-12  0.0000000E+00 -0.6630543E-04
  0.8585858E-01  0.0000000E+00  0.5050505E-02 -0.8503045E-12  0.0000000E+00 -0.6630543E-04
  0.9595960E-01  0.0000000E+00  0.5050505E-02 -0.8593389E-12  0.0000000E+00 -0.6630544E-04
  0.1060606E+00  0.0000000E+00  0.5050505E-02 -0.8560512E-12  0.0000000E+00 -0.6630544E-04
  0.1161616E+00  0.0000000E+00  0.5050505E-02 -0.8404455E-12  0.0000000E+00 -0.6630544E-04
  0.1262626E+00  0.0000000E+00  0.5050505E-02 -0.8150460E-12  0.0000000E+00 -0.6630544E-04
  0.1363636E+00  0.0000000E+00  0.5050505E-02 -0.7736327E-12  0.0000000E+00 -0.6630544E-04
  0.1464646E+00  0.0000000E+00  0.5050505E-02 -0.7138286E-12  0.0000000E+00 -0.6630544E-04
  0.1565657E+00  0.0000000E+00  0.5050505E-02 -0.6342098E-12  0.0000000E+00 -0.6630545E-04
  0.1666667E+00  0.0000000E+00  0.5050505E-02 -0.5328199E-12  0.0000000E+00 -0.6630545E-04
  0.1767677E+00  0.0000000E+00  0.5050505E-02 -0.4086199E-12  0.0000000E+00 -0.6630545E-04
  0.1868687E+00  0.0000000E+00  0.5050505E-02 -0.2658504E-12  0.0000000E+00 -0.6630545E-04
  0.1969697E+00  0.0000000E+00  0.5050505E-02 -0.1173658E-12  0.0000000E+00 -0.6630545E-04
  0.2070707E+00  0.0000000E+00  0.5050505E-02  0.5168461E-13  0.0000000E+00 -0.6630545E-04
  0.2171717E+00  0.0000000E+00  0.5050505E-02  0.1825484E-12  0.0000000E+00 -0.6630545E-04
  0.2272727E+00  0.0000000E+00  0.5050505E-02  0.3890197E-12  0.0000000E+00 -0.6630545E-04
  0.2373737E+00  0.0000000E+00  0.5050505E-02  0.5272163E-12  0.0000000E+00 -0.6630545E-04
  0.2474747E+00  0.0000000E+00  0.5050505E-02  0.6047064E-12  0.0000000E+00 -0.6630545E-04
  0.2575758E+00  0.0000000E+00  0.5050505E-02  0.6578655E-12  0.0000000E+00 -0.6630544E-04
  0.2676768E+00  0.0000000E+00  0.5050505E-02  0.6789592E-12  0.0000000E+00 -0.6630544E-04
  0.2777778E+00  0.0000000E+00  0.5050505E-02  0.6825288E-12  0.0000000E+00 -0.6630544E-04
  0.2878788E+00  0.0000000E+00  0.5050505E-02  0.6685785E-12  0.0000000E+00 -0.6630544E-04
  0.2979798E+00  0.0000000E+00  0.5050505E-02  0.6430044E-12  0.0000000E+00 -0.6630544E-04
  0.3080808E+00  0.0000000E+00  0.5050505E-02  0.6030047E-12  0.0000000E+00 -0.6630544E-04
  0.3181818E+00  0.0000000E+00  0.5050505E-02  0.5509561E-12  0.0000000E+00 -0.6630544E-04
  0.3282828E+00  0.0000000E+00  0.5050505E-02  0.4810449E-12  0.0000000E+00 -0.6630544E-04
  0.3383838E+00  0.0000000E+00  0.5050505E-02  0.3874568E-12  0.0000000E+00 -0.6630543E-04
  0.3484848E+00  0.0000000E+00  0.5050505E-02  0.2726300E-12  0.0000000E+00 -0.6630543E-04
  0.3585859E+00  0.0000000E+00  0.5050505E-02  0.1520395E-12  0.0000000E+00 -0.6630543E-04
  0.3686869E+00  0.0000000E+00  0.5050505E-02  0.3987357E-13  0.0000000E+00 -0.6630543E-04
  0.3787879E+00  0.0000000E+00  0.5050505E-02 -0.1211647E-12  0.0000000E+00 -0.6630543E-04
  0.3888889E+00  0.0000000E+00  0.5050505E-02 -0.2816476E-12  0.0000000E+00 -0.6630543E-04
  0.3989899E+00  0.0000000E+00  0.5050505E-02 -0.4399345E-12  0.0000000E+00 -0.6630543E-04
  0.4090909E+00  0.0000000E+00  0.5050505E-02 -0.5143261E-12  0.0000000E+00 -0.6630544E-04
  0.4191919E+00  0.0000000E+00  0.5050505E-02 -0.5458005E-12  0.0000000E+00 -0.6630544E-04
  0.4292929E+00  0.0000000E+00  0.5050505E-02 -0.5789829E-12  0.0000000E+00 -0.6630544E-04
  0.4393939E+00  0.0000000E+00  0.5050505E-02 -0.5992815E-12  0.0000000E+00 -0.6630544E-04
  0.4494950E+00  0.0000000E+00  0.5050505E-02 -0.5463642E-12  0.0000000E+00 -0.6630544E-04
  0.4595959E+00  0.0000000E+00  0.5050505E-02 -0.4251218E-12  0.0000000E+00 -0.6630544E-04
  0.4696970E+00  0.0000000E+00  0.5050505E-02 -0.3226528E-12  0.0000000E+00 -0.6630544E-04
  0.4797980E+00  0.0000000E+00  0.5050505E-02 -0.2297000E-12  0.0000000E+00 -0.6630544E-04
  0.4898990E+00  0.0000000E+00  0.5050505E-02 -0.8665076E-13  0.0000000E+00 -0.6630544E-04
  0.5000000E+00  0.0000000E+00  0.5050505E-02  0.1112636E-12  0.0000000E+00 -0.6630544E-04
  0.5101010E+00  0.0000000E+00  0.5050505E-02  0.2544874E-12  0.0000000E+00 -0.6630544E-04
  0.5202020E+00  0.0000000E+00  0.5050505E-02  0.4550564E-12  0.0000000E+00 -0.6630544E-04
  0.5303030E+00  0.0000000E+00  0.5050505E-02  0.5977775E-12  0.0000000E+00 -0.6630544E-04
  0.5404040E+00  0.0000000E+00  0.5050505E-02  0.6942662E-12  0.0000000E+00 -0.6630544E-04
  0.5505050E+00  0.0000000E+00  0.5050505E-02  0.7596992E-12  0.0000000E+00 -0.6630544E-04
  0.5606061E+00  0.0000000E+00  0.5050505E-02  0.7849809E-12  0.0000000E+00 -0.6630544E-04
  0.5707071E+00  0.0000000E+00  0.5050505E-02  0.8033043E-12  0.0000000E+00 -0.6630543E-04
  0.5808081E+00  0.0000000E+00  0.5050505E-02  0.7919813E-12  0.0000000E+00 -0.6630543E-04
  0.5909091E+00  0.0000000E+00  0.5050505E-02  0.7626188E-12  0.0000000E+00 -0.6630543E-04
  0.6010101E+00  0.0000000E+00  0.5050505E-02  0.7243902E-12  0.0000000E+00 -0.6630543E-04
  0.6111111E+00  0.0000000E+00  0.5050505E-02  0.6699753E-12  0.0000000E+00 -0.6630543E-04
  0.6212121E+00  0.0000000E+00  0.5050505E-02  0.5831815E-12  0.0000000E+00 -0.6630543E-04
  0.6313131E+00  0.0000000E+00  0.5050505E-02  0.4710050E-12  0.0000000E+00 -0.6630543E-04
  0.6414142E+00  0.0000000E+00  0.5050505E-02  0.3423498E-12  0.0000000E+00 -0.6630543E-04
  0.6515151E+00  0.0000000E+00  0.5050505E-02  0.2012862E-12  0.0000000E+00 -0.6630542E-04
  0.6616161E+00  0.0000000E+00  0.5050505E-02  0.5682552E-13  0.0000000E+00 -0.6630542E-04
  0.6717172E+00  0.0000000E+00  0.5050505E-02 -0.1275719E-12  0.0000000E+00 -0.6630542E-04
  0.6818182E+00  0.0000000E+00  0.5050505E-02 -0.2889782E-12  0.0000000E+00 -0.6630543E-04
  0.6919192E+00  0.0000000E+00  0.5050505E-02 -0.4699090E-12  0.0000000E+00 -0.6630543E-04
  0.7020202E+00  0.0000000E+00  0.5050505E-02 -0.5880510E-12  0.0000000E+00 -0.6630543E-04
  0.7121212E+00  0.0000000E+00  0.5050505E-02 -0.6607178E-12  0.0000000E+00 -0.6630543E-04
  0.7222222E+00  0.0000000E+00  0.5050505E-02 -0.7112476E-12  0.0000000E+00 -0.6630543E-04
  0.7323232E+00  0.0000000E+00  0.5050505E-02 -0.7633130E-12  0.0000000E+00 -0.6630543E-04
  0.7424242E+00  0.0000000E+00  0.5050505E-02 -0.7814345E-12  0.0000000E+00 -0.6630543E-04
  0.7525253E+00  0.0000000E+00  0.5050505E-02 -0.7763125E-12  0.0000000E+00 -0.6630543E-04
  0.7626263E+00  0.0000000E+00  0.5050505E-02 -0.7667522E-12  0.0000000E+00 -0.6630544E-04
  0.7727273E+00  0.0000000E+00  0.5050505E-02 -0.7592049E-12  0.0000000E+00 -0.6630544E-04
  0.7828283E+00  0.0000000E+00  0.5050505E-02 -0.7421393E-12  0.0000000E+00 -0.6630544E-04
  0.7929293E+00  0.0000000E+00  0.5050505E-02 -0.7020933E-12  0.0000000E+00 -0.6630544E-04
  0.8030303E+00  0.0000000E+00  0.5050505E-02 -0.6414542E-12  0.0000000E+00 -0.6630544E-04
  0.8131313E+00  0.0000000E+00  0.5050505E-02 -0.5635665E-12  0.0000000E+00 -0.6630544E-04
  0.8232324E+00  0.0000000E+00  0.5050505E-02 -0.4657484E-12  0.0000000E+00 -0.6630544E-04
  0.8333333E+00  0.0000000E+00  0.5050505E-02 -0.3451790E-12  0.0000000E+00 -0.6630544E-04
  0.8434343E+00  0.0000000E+00  0.5050505E-02 -0.2049610E-12  0.0000000E+00 -0.6630545E-04
  0.8535354E+00  0.0000000E+00  0.5050505E-02 -0.5705690E-13  0.0000000E+00 -0.6630545E-04
  0.8636364E+00  0.0000000E+00  0.5050505E-02  0.1117137E-12  0.0000000E+00 -0.6630545E-04
  0.8737374E+00  0.0000000E+00  0.5050505E-02  0.2379225E-12  0.0000000E+00 -0.6630545E-04
  0.8838384E+00  0.0000000E+00  0.5050505E-02  0.4402689E-12  0.0000000E+00 -0.6630544E-04
  0.8939394E+00  0.0000000E+00  0.5050505E-02  0.5818647E-12  0.0000000E+00 -0.6630544E-04
  0.9040404E+00  0.0000000E+00  0.5050505E-02  0.6586459E-12  0.0000000E+00 -0.6630544E-04
  0.9141414E+00  0.0000000E+00  0.5050505E-02  0.6989297E-12  0.0000000E+00 -0.6630544E-04
  0.9242424E+00  0.0000000E+00  0.5050505E-02  0.7078358E-12  0.0000000E+00 -0.6630544E-04
  0.9343435E+00  0.0000000E+00  0.5050505E-02  0.6888729E-12  0.0000000E+00 -0.6630544E-04
  0.9444444E+00  0.0000000E+00  0.5050505E-02  0.6527898E-12  0.0000000E+00 -0.6630544E-04
  0.9545454E+00  0.0000000E+00  0.5050505E-02  0.5977943E-12  0.0000000E+00 -0.6630544E-04
  0.9646465E+00  0.0000000E+00  0.5050505E-02  0.5182933E-12  0.0000000E+00 -0.6630543E-04
  0.9747475E+00  0.0000000E+00  0.5050505E-02  0.4131466E-12  0.0000000E+00 -0.6630543E-04
  0.9848485E+00  0.0000000E+00  0.5050505E-02  0.2898785E-12  0.0000000E+00 -0.6630543E-04
  0.9974747E+00  0.0000000E+00  0.5050505E-02  0.1778787E-12  0.0000000E+00 -0.6630543E-04
  0.5050505E-02  0.0000000E+00  0.1515152E-01 -0.4689866E-13  0.0000000E+00 -0.6595261E-04
  0.1515152E-01  0.0000000E+00  0.1515152E-01 -0.4196165E-12  0.0000000E+00 -0.6595261E-04
  0.2525252E-01  0.0000000E+00  0.1515152E-01 -0.1155766E-11  0.0000000E+00 -0.6595261E-04
  0.3535353E-01  0.0000000E+00  0.1515152E-01 -0.1688778E-11  0.0000000E+00 -0.6595261E-04
  0.4545455E-01  0.0000000E+00  0.1515152E-01 -0.2033987E-11  0.0000000E+00 -0.6595261E-04
  0.5555556E-01  0.0000000E+00  0.1515152E-01 -0.2259728E-11  0.0000000E+00 -0.6595261E-04
  0.6565657E-01  0.0000000E+00  0.1515152E-01 -0.2395985E-11  0.0000000E+00 -0.6595261E-04
  0.7575758E-01  0.0000000E+00  0.1515152E-01 -0.2504079E-11  0.0000000E+00 -0.6595262E-04
  0.8585858E-01  0.0000000E+00  0.1515152E-01 -0.2550613E-11  0.0000000E+00 -0.6595262E-04
  0.9595960E-01  0.0000000E+00  0.1515152E-01 -0.2575491E-11  0.0000000E+00 -0.6595262E-04
  0.1060606E+00  0.0000000E+00  0.1515152E-01 -0.2566827E-11  0.0000000E+00 -0.6595262E-04
  0.1161616E+00  0.0000000E+00  0.1515152E-01 -0.2520391E-11  0.0000000E+00 -0.6595262E-04
  0.1262626E+00  0.0000000E+00  0.1515152E-01 -0.2444041E-11  0.0000000E+00 -0.6595262E-04
  0.1363636E+00  0.0000000E+00  0.1515152E-01 -0.2322477E-11  0.0000000E+00 -0.6595263E-04
  0.1464646E+00  0.0000000E+00  0.1515152E-01 -0.2144758E-11  0.0000000E+00 -0.6595263E-04
  0.1565657E+00  0.0000000E+00  0.1515152E-01 -0.1904117E-11  0.0000000E+00 -0.6595263E-04
  0.1666667E+00  0.0000000E+00  0.1515152E-01 -0.1596501E-11  0.0000000E+00 -0.6595263E-04
  0.1767677E+00  0.0000000E+00  0.1515152E-01 -0.1219834E-11  0.0000000E+00 -0.6595263E-04
  0.1868687E+00  0.0000000E+00  0.1515152E-01 -0.7823130E-12  0.0000000E+00 -0.6595263E-04
  0.1969697E+00  0.0000000E+00  0.1515152E-01 -0.2915088E-12  0.0000000E+00 -0.6595263E-04
  0.2070707E+00  0.0000000E+00  0.1515152E-01  0.1862322E-12  0.0000000E+00 -0.6595263E-04
  0.2171717E+00  0.0000000E+00  0.1515152E-01  0.4978228E-12  0.0000000E+00 -0.6595263E-04
  0.2272727E+00  0.0000000E+00  0.1515152E-01  0.1133788E-11  0.0000000E+00 -0.6595263E-04
  0.2373737E+00  0.0000000E+00  0.1515152E-01  0.1580408E-11  0.0000000E+00 -0.6595263E-04
  0.2474747E+00  0.0000000E+00  0.1515152E-01  0.1818751E-11  0.0000000E+00 -0.6595263E-04
  0.2575758E+00  0.0000000E+00  0.1515152E-01  0.1971208E-11  0.0000000E+00 -0.6595263E-04
  0.2676768E+00  0.0000000E+00  0.1515152E-01  0.2036650E-11  0.0000000E+00 -0.6595263E-04
  0.2777778E+00  0.0000000E+00  0.1515152E-01  0.2051600E-11  0.0000000E+00 -0.6595262E-04
  0.2878788E+00  0.0000000E+00  0.1515152E-01  0.2014057E-11  0.0000000E+00 -0.6595262E-04
  0.2979798E+00  0.0000000E+00  0.1515152E-01  0.1936236E-11  0.0000000E+00 -0.6595262E-04
  0.3080808E+00  0.0000000E+00  0.1515152E-01  0.1810709E-11  0.0000000E+00 -0.6595262E-04
  0.3181818E+00  0.0000000E+00  0.1515152E-01  0.1647327E-11  0.0000000E+00 -0.6595262E-04
  0.3282828E+00  0.0000000E+00  0.1515152E-01  0.1440238E-11  0.0000000E+00 -0.6595262E-04
  0.3383838E+00  0.0000000E+00  0.1515152E-01  0.1170949E-11  0.0000000E+00 -0.6595262E-04
  0.3484848E+00  0.0000000E+00  0.1515152E-01  0.8242480E-12  0.0000000E+00 -0.6595262E-04
  0.3585859E+00  0.0000000E+00  0.1515152E-01  0.4272809E-12  0.0000000E+00 -0.6595262E-04
  0.3686869E+00  0.0000000E+00  0.1515152E-01  0.7047997E-14  0.0000000E+00 -0.6595262E-04
  0.3787879E+00  0.0000000E+00  0.1515152E-01 -0.3245348E-12  0.0000000E+00 -0.6595262E-04
  0.3888889E+00  0.0000000E+00  0.1515152E-01 -0.7636693E-12  0.0000000E+00 -0.6595262E-04
  0.3989899E+00  0.0000000E+00  0.1515152E-01 -0.1293133E-11  0.0000000E+00 -0.6595262E-04
  0.4090909E+00  0.0000000E+00  0.1515152E-01 -0.1589688E-11  0.0000000E+00 -0.6595262E-04
  0.4191919E+00  0.0000000E+00  0.1515152E-01 -0.1675262E-11  0.0000000E+00 -0.6595262E-04
  0.4292929E+00  0.0000000E+00  0.1515152E-01 -0.1703213E-11  0.0000000E+00 -0.6595262E-04
  0.4393939E+00  0.0000000E+00  0.1515152E-01 -0.1754416E-11  0.0000000E+00 -0.6595262E-04
  0.4494950E+00  0.0000000E+00  0.1515152E-01 -0.1679851E-11  0.0000000E+00 -0.6595262E-04
  0.4595959E+00  0.0000000E+00  0.1515152E-01 -0.1344460E-11  0.0000000E+00 -0.6595262E-04
  0.4696970E+00  0.0000000E+00  0.1515152E-01 -0.9525186E-12  0.0000000E+00 -0.6595263E-04
  0.4797980E+00  0.0000000E+00  0.1515152E-01 -0.6226703E-12  0.0000000E+00 -0.6595263E-04
  0.4898990E+00  0.0000000E+00  0.1515152E-01 -0.1996861E-12  0.0000000E+00 -0.6595263E-04
  0.5000000E+00  0.0000000E+00  0.1515152E-01  0.3265495E-12  0.0000000E+00 -0.6595263E-04
  0.5101010E+00  0.0000000E+00  0.1515152E-01  0.6986834E-12  0.0000000E+00 -0.6595263E-04
  0.5202020E+00  0.0000000E+00  0.1515152E-01  0.1344550E-11  0.0000000E+00 -0.6595262E-04
  0.5303030E+00  0.0000000E+00  0.1515152E-01  0.1797755E-11  0.0000000E+00 -0.6595262E-04
  0.5404040E+00  0.0000000E+00  0.1515152E-01  0.2081801E-11  0.0000000E+00 -0.6595262E-04
  0.5505050E+00  0.0000000E+00  0.1515152E-01  0.2277682E-11  0.0000000E+00 -0.6595262E-04
  0.5606061E+00  0.0000000E+00  0.1515152E-01  0.2352703E-11  0.0000000E+00 -0.6595262E-04
  0.5707071E+00  0.0000000E+00  0.1515152E-01  0.2407427E-11  0.0000000E+00 -0.6595262E-04
  0.5808081E+00  0.0000000E+00  0.1515152E-01  0.2387489E-11  0.0000000E+00 -0.6595262E-04
  0.5909091E+00  0.0000000E+00  0.1515152E-01  0.2298488E-11  0.0000000E+00 -0.6595261E-04
  0.6010101E+00  0.0000000E+00  0.1515152E-01  0.2168713E-11  0.0000000E+00 -0.6595261E-04
  0.6111111E+00  0.0000000E+00  0.1515152E-01  0.2004574E-11  0.0000000E+00 -0.6595261E-04
  0.6212121E+00  0.0000000E+00  0.1515152E-01  0.1756955E-11  0.0000000E+00 -0.6595261E-04
  0.6313131E+00  0.0000000E+00  0.1515152E-01  0.1423380E-11  0.0000000E+00 -0.6595261E-04
  0.6414142E+00  0.0000000E+00  0.1515152E-01  0.1025577E-11  0.0000000E+00 -0.6595261E-04
  0.6515151E+00  0.0000000E+00  0.1515152E-01  0.5807487E-12  0.0000000E+00 -0.6595261E-04
  0.6616161E+00  0.0000000E+00  0.1515152E-01  0.9360259E-13  0.0000000E+00 -0.6595261E-04
  0.6717172E+00  0.0000000E+00  0.1515152E-01 -0.4064349E-12  0.0000000E+00 -0.6595261E-04
  0.6818182E+00  0.0000000E+00  0.1515152E-01 -0.7985230E-12  0.0000000E+00 -0.6595261E-04
  0.6919192E+00  0.0000000E+00  0.1515152E-01 -0.1374987E-11  0.0000000E+00 -0.6595261E-04
  0.7020202E+00  0.0000000E+00  0.1515152E-01 -0.1772674E-11  0.0000000E+00 -0.6595261E-04
  0.7121212E+00  0.0000000E+00  0.1515152E-01 -0.2003258E-11  0.0000000E+00 -0.6595261E-04
  0.7222222E+00  0.0000000E+00  0.1515152E-01 -0.2124864E-11  0.0000000E+00 -0.6595261E-04
  0.7323232E+00  0.0000000E+00  0.1515152E-01 -0.2261116E-11  0.0000000E+00 -0.6595261E-04
  0.7424242E+00  0.0000000E+00  0.1515152E-01 -0.2340548E-11  0.0000000E+00 -0.6595262E-04
  0.7525253E+00  0.0000000E+00  0.1515152E-01 -0.2349811E-11  0.0000000E+00 -0.6595262E-04
  0.7626263E+00  0.0000000E+00  0.1515152E-01 -0.2313685E-11  0.0000000E+00 -0.6595262E-04
  0.7727273E+00  0.0000000E+00  0.1515152E-01 -0.2269693E-11  0.0000000E+00 -0.6595262E-04
  0.7828283E+00  0.0000000E+00  0.1515152E-01 -0.2213975E-11  0.0000000E+00 -0.6595262E-04
  0.7929293E+00  0.0000000E+00  0.1515152E-01 -0.2105984E-11  0.0000000E+00 -0.6595262E-04
  0.8030303E+00  0.0000000E+00  0.1515152E-01 -0.1932753E-11  0.0000000E+00 -0.6595262E-04
  0.8131313E+00  0.0000000E+00  0.1515152E-01 -0.1697057E-11  0.0000000E+00 -0.6595263E-04
  0.8232324E+00  0.0000000E+00  0.1515152E-01 -0.1396848E-11  0.0000000E+00 -0.6595263E-04
  0.8333333E+00  0.0000000E+00  0.1515152E-01 -0.1028831E-11  0.0000000E+00 -0.6595263E-04
  0.8434343E+00  0.0000000E+00  0.1515152E-01 -0.5997622E-12  0.0000000E+00 -0.6595263E-04
  0.8535354E+00  0.0000000E+00  0.1515152E-01 -0.1117500E-12  0.0000000E+00 -0.6595263E-04
  0.8636364E+00  0.0000000E+00  0.1515152E-01  0.3695571E-12  0.0000000E+00 -0.6595263E-04
  0.8737374E+00  0.0000000E+00  0.1515152E-01  0.6721584E-12  0.0000000E+00 -0.6595263E-04
  0.8838384E+00  0.0000000E+00  0.1515152E-01  0.1287672E-11  0.0000000E+00 -0.6595263E-04
  0.8939394E+00  0.0000000E+00  0.1515152E-01  0.1733952E-11  0.0000000E+00 -0.6595263E-04
  0.9040404E+00  0.0000000E+00  0.1515152E-01  0.1978242E-11  0.0000000E+00 -0.6595263E-04
  0.9141414E+00  0.0000000E+00  0.1515152E-01  0.2102920E-11  0.0000000E+00 -0.6595262E-04
  0.9242424E+00  0.0000000E+00  0.1515152E-01  0.2136486E-11  0.0000000E+00 -0.6595262E-04
  0.9343435E+00  0.0000000E+00  0.1515152E-01  0.2078805E-11  0.0000000E+00 -0.6595262E-04
  0.9444444E+00  0.0000000E+00  0.1515152E-01  0.1958880E-11  0.0000000E+00 -0.6595262E-04
  0.9545454E+00  0.0000000E+00  0.1515152E-01  0.1784230E-11  0.0000000E+00 -0.6595262E-04
  0.9646465E+00  0.0000000E+00  0.1515152E-01  0.1551001E-11  0.0000000E+00 -0.6595262E-04
  0.9747475E+00  0.0000000E+00  0.1515152E-01  0.1247871E-11  0.0000000E+00 -0.6595262E-04
  0.9848485E+00  0.0000000E+00  0.1515152E-01  0.8631907E-12  0.0000000E+00 -0.6595262E-04
  0.9974747E+00  0.0000000E+00  0.1515152E-01  0.4050593E-12  0.0000000E+00 -0.6595262E-04
  0.5050505E-02  0.0000000E+00  0.2525252E-01 -0.2361578E-12  0.0000000E+00 -0.6525389E-04
  0.1515152E-01  0.0000000E+00  0.2525252E-01 -0.6557402E-12  0.0000000E+00 -0.6525389E-04
  0.2525252E-01  0.0000000E+00  0.2525252E-01 -0.1882885E-11  0.0000000E+00 -0.6525389E-04
  0.3535353E-01  0.0000000E+00  0.2525252E-01 -0.2801207E-11  0.0000000E+00 -0.6525389E-04
  0.4545455E-01  0.0000000E+00  0.2525252E-01 -0.3388426E-11  0.0000000E+00 -0.6525389E-04
  0.5555556E-01  0.0000000E+00  0.2525252E-01 -0.3776108E-11  0.0000000E+00 -0.6525389E-04
  0.6565657E-01  0.0000000E+00  0.2525252E-01 -0.3997682E-11  0.0000000E+00 -0.6525389E-04
  0.7575758E-01  0.0000000E+00  0.2525252E-01 -0.4169645E-11  0.0000000E+00 -0.6525390E-04
  0.8585858E-01  0.0000000E+00  0.2525252E-01 -0.4248558E-11  0.0000000E+00 -0.6525390E-04
  0.9595960E-01  0.0000000E+00  0.2525252E-01 -0.4285820E-11  0.0000000E+00 -0.6525390E-04
  0.1060606E+00  0.0000000E+00  0.2525252E-01 -0.4273790E-11  0.0000000E+00 -0.6525390E-04
  0.1161616E+00  0.0000000E+00  0.2525252E-01 -0.4198824E-11  0.0000000E+00 -0.6525390E-04
  0.1262626E+00  0.0000000E+00  0.2525252E-01 -0.4071181E-11  0.0000000E+00 -0.6525390E-04
  0.1363636E+00  0.0000000E+00  0.2525252E-01 -0.3873415E-11  0.0000000E+00 -0.6525391E-04
  0.1464646E+00  0.0000000E+00  0.2525252E-01 -0.3581902E-11  0.0000000E+00 -0.6525391E-04
  0.1565657E+00  0.0000000E+00  0.2525252E-01 -0.3175770E-11  0.0000000E+00 -0.6525391E-04
  0.1666667E+00  0.0000000E+00  0.2525252E-01 -0.2647483E-11  0.0000000E+00 -0.6525391E-04
  0.1767677E+00  0.0000000E+00  0.2525252E-01 -0.1997767E-11  0.0000000E+00 -0.6525391E-04
  0.1868687E+00  0.0000000E+00  0.2525252E-01 -0.1242842E-11  0.0000000E+00 -0.6525391E-04
  0.1969697E+00  0.0000000E+00  0.2525252E-01 -0.3823812E-12  0.0000000E+00 -0.6525391E-04
  0.2070707E+00  0.0000000E+00  0.2525252E-01  0.3638086E-12  0.0000000E+00 -0.6525391E-04
  0.2171717E+00  0.0000000E+00  0.2525252E-01  0.7217961E-12  0.0000000E+00 -0.6525391E-04
  0.2272727E+00  0.0000000E+00  0.2525252E-01  0.1809136E-11  0.0000000E+00 -0.6525391E-04
  0.2373737E+00  0.0000000E+00  0.2525252E-01  0.2623871E-11  0.0000000E+00 -0.6525391E-04
  0.2474747E+00  0.0000000E+00  0.2525252E-01  0.3053899E-11  0.0000000E+00 -0.6525391E-04
  0.2575758E+00  0.0000000E+00  0.2525252E-01  0.3296261E-11  0.0000000E+00 -0.6525391E-04
  0.2676768E+00  0.0000000E+00  0.2525252E-01  0.3398197E-11  0.0000000E+00 -0.6525391E-04
  0.2777778E+00  0.0000000E+00  0.2525252E-01  0.3421035E-11  0.0000000E+00 -0.6525390E-04
  0.2878788E+00  0.0000000E+00  0.2525252E-01  0.3369034E-11  0.0000000E+00 -0.6525390E-04
  0.2979798E+00  0.0000000E+00  0.2525252E-01  0.3248511E-11  0.0000000E+00 -0.6525390E-04
  0.3080808E+00  0.0000000E+00  0.2525252E-01  0.3038150E-11  0.0000000E+00 -0.6525390E-04
  0.3181818E+00  0.0000000E+00  0.2525252E-01  0.2743056E-11  0.0000000E+00 -0.6525390E-04
  0.3282828E+00  0.0000000E+00  0.2525252E-01  0.2376131E-11  0.0000000E+00 -0.6525390E-04
  0.3383838E+00  0.0000000E+00  0.2525252E-01  0.1936583E-11  0.0000000E+00 -0.6525390E-04
  0.3484848E+00  0.0000000E+00  0.2525252E-01  0.1377240E-11  0.0000000E+00 -0.6525390E-04
  0.3585859E+00  0.0000000E+00  0.2525252E-01  0.6503268E-12  0.0000000E+00 -0.6525390E-04
  0.3686869E+00  0.0000000E+00  0.2525252E-01 -0.1239431E-12  0.0000000E+00 -0.6525390E-04
  0.3787879E+00  0.0000000E+00  0.2525252E-01 -0.5611725E-12  0.0000000E+00 -0.6525390E-04
  0.3888889E+00  0.0000000E+00  0.2525252E-01 -0.1120467E-11  0.0000000E+00 -0.6525390E-04
  0.3989899E+00  0.0000000E+00  0.2525252E-01 -0.2027952E-11  0.0000000E+00 -0.6525390E-04
  0.4090909E+00  0.0000000E+00  0.2525252E-01 -0.2690194E-11  0.0000000E+00 -0.6525390E-04
  0.4191919E+00  0.0000000E+00  0.2525252E-01 -0.2934471E-11  0.0000000E+00 -0.6525390E-04
  0.4292929E+00  0.0000000E+00  0.2525252E-01 -0.2871036E-11  0.0000000E+00 -0.6525390E-04
  0.4393939E+00  0.0000000E+00  0.2525252E-01 -0.2815205E-11  0.0000000E+00 -0.6525390E-04
  0.4494950E+00  0.0000000E+00  0.2525252E-01 -0.2780188E-11  0.0000000E+00 -0.6525390E-04
  0.4595959E+00  0.0000000E+00  0.2525252E-01 -0.2373302E-11  0.0000000E+00 -0.6525390E-04
  0.4696970E+00  0.0000000E+00  0.2525252E-01 -0.1630792E-11  0.0000000E+00 -0.6525391E-04
  0.4797980E+00  0.0000000E+00  0.2525252E-01 -0.9075824E-12  0.0000000E+00 -0.6525391E-04
  0.4898990E+00  0.0000000E+00  0.2525252E-01 -0.1807589E-12  0.0000000E+00 -0.6525391E-04
  0.5000000E+00  0.0000000E+00  0.2525252E-01  0.5497964E-12  0.0000000E+00 -0.6525391E-04
  0.5101010E+00  0.0000000E+00  0.2525252E-01  0.1003794E-11  0.0000000E+00 -0.6525391E-04
  0.5202020E+00  0.0000000E+00  0.2525252E-01  0.2162298E-11  0.0000000E+00 -0.6525391E-04
  0.5303030E+00  0.0000000E+00  0.2525252E-01  0.2997607E-11  0.0000000E+00 -0.6525390E-04
  0.5404040E+00  0.0000000E+00  0.2525252E-01  0.3481495E-11  0.0000000E+00 -0.6525390E-04
  0.5505050E+00  0.0000000E+00  0.2525252E-01  0.3807603E-11  0.0000000E+00 -0.6525390E-04
  0.5606061E+00  0.0000000E+00  0.2525252E-01  0.3926768E-11  0.0000000E+00 -0.6525390E-04
  0.5707071E+00  0.0000000E+00  0.2525252E-01  0.4001429E-11  0.0000000E+00 -0.6525390E-04
  0.5808081E+00  0.0000000E+00  0.2525252E-01  0.3993668E-11  0.0000000E+00 -0.6525390E-04
  0.5909091E+00  0.0000000E+00  0.2525252E-01  0.3864577E-11  0.0000000E+00 -0.6525389E-04
  0.6010101E+00  0.0000000E+00  0.2525252E-01  0.3624167E-11  0.0000000E+00 -0.6525389E-04
  0.6111111E+00  0.0000000E+00  0.2525252E-01  0.3327961E-11  0.0000000E+00 -0.6525389E-04
  0.6212121E+00  0.0000000E+00  0.2525252E-01  0.2925183E-11  0.0000000E+00 -0.6525389E-04
  0.6313131E+00  0.0000000E+00  0.2525252E-01  0.2379095E-11  0.0000000E+00 -0.6525389E-04
  0.6414142E+00  0.0000000E+00  0.2525252E-01  0.1700329E-11  0.0000000E+00 -0.6525389E-04
  0.6515151E+00  0.0000000E+00  0.2525252E-01  0.9118400E-12  0.0000000E+00 -0.6525389E-04
  0.6616161E+00  0.0000000E+00  0.2525252E-01  0.1712699E-13  0.0000000E+00 -0.6525389E-04
  0.6717172E+00  0.0000000E+00  0.2525252E-01 -0.7398411E-12  0.0000000E+00 -0.6525389E-04
  0.6818182E+00  0.0000000E+00  0.2525252E-01 -0.1202610E-11  0.0000000E+00 -0.6525389E-04
  0.6919192E+00  0.0000000E+00  0.2525252E-01 -0.2190456E-11  0.0000000E+00 -0.6525389E-04
  0.7020202E+00  0.0000000E+00  0.2525252E-01 -0.2935139E-11  0.0000000E+00 -0.6525389E-04
  0.7121212E+00  0.0000000E+00  0.2525252E-01 -0.3392440E-11  0.0000000E+00 -0.6525389E-04
  0.7222222E+00  0.0000000E+00  0.2525252E-01 -0.3573534E-11  0.0000000E+00 -0.6525389E-04
  0.7323232E+00  0.0000000E+00  0.2525252E-01 -0.3727847E-11  0.0000000E+00 -0.6525389E-04
  0.7424242E+00  0.0000000E+00  0.2525252E-01 -0.3858418E-11  0.0000000E+00 -0.6525390E-04
  0.7525253E+00  0.0000000E+00  0.2525252E-01 -0.3925959E-11  0.0000000E+00 -0.6525390E-04
  0.7626263E+00  0.0000000E+00  0.2525252E-01 -0.3891064E-11  0.0000000E+00 -0.6525390E-04
  0.7727273E+00  0.0000000E+00  0.2525252E-01 -0.3793827E-11  0.0000000E+00 -0.6525390E-04
  0.7828283E+00  0.0000000E+00  0.2525252E-01 -0.3676731E-11  0.0000000E+00 -0.6525390E-04
  0.7929293E+00  0.0000000E+00  0.2525252E-01 -0.3503080E-11  0.0000000E+00 -0.6525390E-04
  0.8030303E+00  0.0000000E+00  0.2525252E-01 -0.3229935E-11  0.0000000E+00 -0.6525391E-04
  0.8131313E+00  0.0000000E+00  0.2525252E-01 -0.2837515E-11  0.0000000E+00 -0.6525391E-04
  0.8232324E+00  0.0000000E+00  0.2525252E-01 -0.2319809E-11  0.0000000E+00 -0.6525391E-04
  0.8333333E+00  0.0000000E+00  0.2525252E-01 -0.1678998E-11  0.0000000E+00 -0.6525391E-04
  0.8434343E+00  0.0000000E+00  0.2525252E-01 -0.9369315E-12  0.0000000E+00 -0.6525391E-04
  0.8535354E+00  0.0000000E+00  0.2525252E-01 -0.8730865E-13  0.0000000E+00 -0.6525391E-04
  0.8636364E+00  0.0000000E+00  0.2525252E-01  0.6673802E-12  0.0000000E+00 -0.6525391E-04
  0.8737374E+00  0.0000000E+00  0.2525252E-01  0.1031016E-11  0.0000000E+00 -0.6525391E-04
  0.8838384E+00  0.0000000E+00  0.2525252E-01  0.2084649E-11  0.0000000E+00 -0.6525391E-04
  0.8939394E+00  0.0000000E+00  0.2525252E-01  0.2869806E-11  0.0000000E+00 -0.6525391E-04
  0.9040404E+00  0.0000000E+00  0.2525252E-01  0.3303891E-11  0.0000000E+00 -0.6525391E-04
  0.9141414E+00  0.0000000E+00  0.2525252E-01  0.3514177E-11  0.0000000E+00 -0.6525390E-04
  0.9242424E+00  0.0000000E+00  0.2525252E-01  0.3585258E-11  0.0000000E+00 -0.6525390E-04
  0.9343435E+00  0.0000000E+00  0.2525252E-01  0.3503345E-11  0.0000000E+00 -0.6525390E-04
  0.9444444E+00  0.0000000E+00  0.2525252E-01  0.3292239E-11  0.0000000E+00 -0.6525390E-04
  0.9545454E+00  0.0000000E+00  0.2525252E-01  0.2963695E-11  0.0000000E+00 -0.6525390E-04
  0.9646465E+00  0.0000000E+00  0.2525252E-01  0.2544419E-11  0.0000000E+00 -0.6525390E-04
  0.9747475E+00  0.0000000E+00  0.2525252E-01  0.2040498E-11  0.0000000E+00 -0.6525390E-04
  0.9848485E+00  0.0000000E+00  0.2525252E-01  0.1398544E-11  0.0000000E+00 -0.6525390E-04
  0.9974747E+00  0.0000000E+00  0.2525252E-01  0.5118413E-12  0.0000000E+00 -0.6525390E-04
  0.5050505E-02  0.0000000E+00  0.3535353E-01 -0.3524896E-12  0.0000000E+00 -0.6421953E-04
  0.1515152E-01  0.0000000E+00  0.3535353E-01 -0.8261094E-12  0.0000000E+00 -0.6421953E-04
  0.2525252E-01  0.0000000E+00  0.3535353E-01 -0.2573817E-11  0.0000000E+00 -0.6421953E-04
  0.3535353E-01  0.0000000E+00  0.3535353E-01 -0.3912918E-11  0.0000000E+00 -0.6421954E-04
  0.4545455E-01  0.0000000E+00  0.3535353E-01 -0.4749708E-11  0.0000000E+00 -0.6421954E-04
  0.5555556E-01  0.0000000E+00  0.3535353E-01 -0.5300977E-11  0.0000000E+00 -0.6421954E-04
  0.6565657E-01  0.0000000E+00  0.3535353E-01 -0.5607093E-11  0.0000000E+00 -0.6421954E-04
  0.7575758E-01  0.0000000E+00  0.3535353E-01 -0.5832685E-11  0.0000000E+00 -0.6421954E-04
  0.8585858E-01  0.0000000E+00  0.3535353E-01 -0.5940244E-11  0.0000000E+00 -0.6421954E-04
  0.9595960E-01  0.0000000E+00  0.3535353E-01 -0.5986781E-11  0.0000000E+00 -0.6421954E-04
  0.1060606E+00  0.0000000E+00  0.3535353E-01 -0.5972803E-11  0.0000000E+00 -0.6421955E-04
  0.1161616E+00  0.0000000E+00  0.3535353E-01 -0.5875064E-11  0.0000000E+00 -0.6421955E-04
  0.1262626E+00  0.0000000E+00  0.3535353E-01 -0.5697566E-11  0.0000000E+00 -0.6421955E-04
  0.1363636E+00  0.0000000E+00  0.3535353E-01 -0.5424752E-11  0.0000000E+00 -0.6421955E-04
  0.1464646E+00  0.0000000E+00  0.3535353E-01 -0.5024061E-11  0.0000000E+00 -0.6421955E-04
  0.1565657E+00  0.0000000E+00  0.3535353E-01 -0.4449387E-11  0.0000000E+00 -0.6421955E-04
  0.1666667E+00  0.0000000E+00  0.3535353E-01 -0.3676844E-11  0.0000000E+00 -0.6421956E-04
  0.1767677E+00  0.0000000E+00  0.3535353E-01 -0.2712715E-11  0.0000000E+00 -0.6421956E-04
  0.1868687E+00  0.0000000E+00  0.3535353E-01 -0.1603693E-11  0.0000000E+00 -0.6421956E-04
  0.1969697E+00  0.0000000E+00  0.3535353E-01 -0.4438865E-12  0.0000000E+00 -0.6421956E-04
  0.2070707E+00  0.0000000E+00  0.3535353E-01  0.5473808E-12  0.0000000E+00 -0.6421956E-04
  0.2171717E+00  0.0000000E+00  0.3535353E-01  0.8782625E-12  0.0000000E+00 -0.6421956E-04
  0.2272727E+00  0.0000000E+00  0.3535353E-01  0.2430913E-11  0.0000000E+00 -0.6421956E-04
  0.2373737E+00  0.0000000E+00  0.3535353E-01  0.3642302E-11  0.0000000E+00 -0.6421956E-04
  0.2474747E+00  0.0000000E+00  0.3535353E-01  0.4308772E-11  0.0000000E+00 -0.6421955E-04
  0.2575758E+00  0.0000000E+00  0.3535353E-01  0.4654897E-11  0.0000000E+00 -0.6421955E-04
  0.2676768E+00  0.0000000E+00  0.3535353E-01  0.4786823E-11  0.0000000E+00 -0.6421955E-04
  0.2777778E+00  0.0000000E+00  0.3535353E-01  0.4794789E-11  0.0000000E+00 -0.6421955E-04
  0.2878788E+00  0.0000000E+00  0.3535353E-01  0.4717105E-11  0.0000000E+00 -0.6421955E-04
  0.2979798E+00  0.0000000E+00  0.3535353E-01  0.4563524E-11  0.0000000E+00 -0.6421955E-04