title = "dataset water"
variables = "x", "y", "z", "vx", "vy", "vz"
zone t = "velocities, solution time =  5.000E+01 days        " i =   99, j =   99, k =    1,  f=point
  0.5050505E-02  0.0000000E+00  0.5050505E-02  0.5089862E-08  0.0000000E+00  0.1279392E-04
  0.1515152E-01  0.0000000E+00  0.5050505E-02  0.1521711E-07  0.0000000E+00  0.1281432E-04
  0.2525252E-01  0.0000000E+00  0.5050505E-02  0.2518688E-07  0.0000000E+00  0.1285491E-04
  0.3535353E-01  0.0000000E+00  0.5050505E-02  0.3489396E-07  0.0000000E+00  0.1291526E-04
  0.4545455E-01  0.0000000E+00  0.5050505E-02  0.4423290E-07  0.0000000E+00  0.1299474E-04
  0.5555556E-01  0.0000000E+00  0.5050505E-02  0.5309825E-07  0.0000000E+00  0.1309251E-04
  0.6565657E-01  0.0000000E+00  0.5050505E-02  0.6138506E-07  0.0000000E+00  0.1320751E-04
  0.7575758E-01  0.0000000E+00  0.5050505E-02  0.6898974E-07  0.0000000E+00  0.1333848E-04
  0.8585858E-01  0.0000000E+00  0.5050505E-02  0.7581157E-07  0.0000000E+00  0.1348394E-04
  0.9595960E-01  0.0000000E+00  0.5050505E-02  0.8175458E-07  0.0000000E+00  0.1364223E-04
  0.1060606E+00  0.0000000E+00  0.5050505E-02  0.8673026E-07  0.0000000E+00  0.1381149E-04
  0.1161616E+00  0.0000000E+00  0.5050505E-02  0.9066074E-07  0.0000000E+00  0.1398970E-04
  0.1262626E+00  0.0000000E+00  0.5050505E-02  0.9348267E-07  0.0000000E+00  0.1417470E-04
  0.1363636E+00  0.0000000E+00  0.5050505E-02  0.9515130E-07  0.0000000E+00  0.1436421E-04
  0.1464646E+00  0.0000000E+00  0.5050505E-02  0.9564480E-07  0.0000000E+00  0.1455590E-04
  0.1565657E+00  0.0000000E+00  0.5050505E-02  0.9496806E-07  0.0000000E+00  0.1474741E-04
  0.1666667E+00  0.0000000E+00  0.5050505E-02  0.9315559E-07  0.0000000E+00  0.1493643E-04
  0.1767677E+00  0.0000000E+00  0.5050505E-02  0.9027286E-07  0.0000000E+00  0.1512073E-04
  0.1868687E+00  0.0000000E+00  0.5050505E-02  0.8641546E-07  0.0000000E+00  0.1529826E-04
  0.1969697E+00  0.0000000E+00  0.5050505E-02  0.8170591E-07  0.0000000E+00  0.1546719E-04
  0.2070707E+00  0.0000000E+00  0.5050505E-02  0.7628789E-07  0.0000000E+00  0.1562594E-04
  0.2171717E+00  0.0000000E+00  0.5050505E-02  0.7031858E-07  0.0000000E+00  0.1577326E-04
  0.2272727E+00  0.0000000E+00  0.5050505E-02  0.6395968E-07  0.0000000E+00  0.1590819E-04
  0.2373737E+00  0.0000000E+00  0.5050505E-02  0.5736858E-07  0.0000000E+00  0.1603011E-04
  0.2474747E+00  0.0000000E+00  0.5050505E-02  0.5069044E-07  0.0000000E+00  0.1613870E-04
  0.2575758E+00  0.0000000E+00  0.5050505E-02  0.4405238E-07  0.0000000E+00  0.1623391E-04
  0.2676768E+00  0.0000000E+00  0.5050505E-02  0.3756000E-07  0.0000000E+00  0.1631592E-04
  0.2777778E+00  0.0000000E+00  0.5050505E-02  0.3129632E-07  0.0000000E+00  0.1638511E-04
  0.2878788E+00  0.0000000E+00  0.5050505E-02  0.2532272E-07  0.0000000E+00  0.1644201E-04
  0.2979798E+00  0.0000000E+00  0.5050505E-02  0.1968115E-07  0.0000000E+00  0.1648724E-04
  0.3080808E+00  0.0000000E+00  0.5050505E-02  0.1439711E-07  0.0000000E+00  0.1652149E-04
  0.3181818E+00  0.0000000E+00  0.5050505E-02  0.9482688E-08  0.0000000E+00  0.1654548E-04
  0.3282828E+00  0.0000000E+00  0.5050505E-02  0.4939240E-08  0.0000000E+00  0.1655998E-04
  0.3383838E+00  0.0000000E+00  0.5050505E-02  0.7595881E-09  0.0000000E+00  0.1656570E-04
  0.3484848E+00  0.0000000E+00  0.5050505E-02 -0.3070477E-08  0.0000000E+00  0.1656338E-04
  0.3585859E+00  0.0000000E+00  0.5050505E-02 -0.6571276E-08  0.0000000E+00  0.1655369E-04
  0.3686869E+00  0.0000000E+00  0.5050505E-02 -0.9768794E-08  0.0000000E+00  0.1653727E-04
  0.3787879E+00  0.0000000E+00  0.5050505E-02 -0.1269458E-07  0.0000000E+00  0.1651470E-04
  0.3888889E+00  0.0000000E+00  0.5050505E-02 -0.1538585E-07  0.0000000E+00  0.1648648E-04
  0.3989899E+00  0.0000000E+00  0.5050505E-02 -0.1788561E-07  0.0000000E+00  0.1645304E-04
  0.4090909E+00  0.0000000E+00  0.5050505E-02 -0.2024286E-07  0.0000000E+00  0.1641473E-04
  0.4191919E+00  0.0000000E+00  0.5050505E-02 -0.2251256E-07  0.0000000E+00  0.1637176E-04
  0.4292929E+00  0.0000000E+00  0.5050505E-02 -0.2475554E-07  0.0000000E+00  0.1632426E-04
  0.4393939E+00  0.0000000E+00  0.5050505E-02 -0.2703818E-07  0.0000000E+00  0.1627221E-04
  0.4494950E+00  0.0000000E+00  0.5050505E-02 -0.2943189E-07  0.0000000E+00  0.1621546E-04
  0.4595959E+00  0.0000000E+00  0.5050505E-02 -0.3201231E-07  0.0000000E+00  0.1615372E-04
  0.4696970E+00  0.0000000E+00  0.5050505E-02 -0.3485820E-07  0.0000000E+00  0.1608652E-04
  0.4797980E+00  0.0000000E+00  0.5050505E-02 -0.3805003E-07  0.0000000E+00  0.1601325E-04
  0.4898990E+00  0.0000000E+00  0.5050505E-02 -0.4166804E-07  0.0000000E+00  0.1593315E-04
  0.5000000E+00  0.0000000E+00  0.5050505E-02 -0.4578981E-07  0.0000000E+00  0.1584526E-04
  0.5101010E+00  0.0000000E+00  0.5050505E-02 -0.5048723E-07  0.0000000E+00  0.1574852E-04
  0.5202020E+00  0.0000000E+00  0.5050505E-02 -0.5582270E-07  0.0000000E+00  0.1564169E-04
  0.5303030E+00  0.0000000E+00  0.5050505E-02 -0.6184462E-07  0.0000000E+00  0.1552346E-04
  0.5404040E+00  0.0000000E+00  0.5050505E-02 -0.6858205E-07  0.0000000E+00  0.1539240E-04
  0.5505050E+00  0.0000000E+00  0.5050505E-02 -0.7603893E-07  0.0000000E+00  0.1524709E-04
  0.5606061E+00  0.0000000E+00  0.5050505E-02 -0.8418795E-07  0.0000000E+00  0.1508610E-04
  0.5707071E+00  0.0000000E+00  0.5050505E-02 -0.9296492E-07  0.0000000E+00  0.1490810E-04
  0.5808081E+00  0.0000000E+00  0.5050505E-02 -0.1022645E-06  0.0000000E+00  0.1471195E-04
  0.5909091E+00  0.0000000E+00  0.5050505E-02 -0.1119382E-06  0.0000000E+00  0.1449674E-04
  0.6010101E+00  0.0000000E+00  0.5050505E-02 -0.1217968E-06  0.0000000E+00  0.1426191E-04
  0.6111111E+00  0.0000000E+00  0.5050505E-02 -0.1316167E-06  0.0000000E+00  0.1400732E-04
  0.6212121E+00  0.0000000E+00  0.5050505E-02 -0.1411521E-06  0.0000000E+00  0.1373330E-04
  0.6313131E+00  0.0000000E+00  0.5050505E-02 -0.1501516E-06  0.0000000E+00  0.1344066E-04
  0.6414142E+00  0.0000000E+00  0.5050505E-02 -0.1583769E-06  0.0000000E+00  0.1313073E-04
  0.6515151E+00  0.0000000E+00  0.5050505E-02 -0.1656212E-06  0.0000000E+00  0.1280528E-04
  0.6616161E+00  0.0000000E+00  0.5050505E-02 -0.1717241E-06  0.0000000E+00  0.1246643E-04
  0.6717172E+00  0.0000000E+00  0.5050505E-02 -0.1765805E-06  0.0000000E+00  0.1211659E-04
  0.6818182E+00  0.0000000E+00  0.5050505E-02 -0.1801418E-06  0.0000000E+00  0.1175831E-04
  0.6919192E+00  0.0000000E+00  0.5050505E-02 -0.1824120E-06  0.0000000E+00  0.1139419E-04
  0.7020202E+00  0.0000000E+00  0.5050505E-02 -0.1834386E-06  0.0000000E+00  0.1102678E-04
  0.7121212E+00  0.0000000E+00  0.5050505E-02 -0.1833010E-06  0.0000000E+00  0.1065849E-04
  0.7222222E+00  0.0000000E+00  0.5050505E-02 -0.1820994E-06  0.0000000E+00  0.1029156E-04
  0.7323232E+00  0.0000000E+00  0.5050505E-02 -0.1799443E-06  0.0000000E+00  0.9928015E-05
  0.7424242E+00  0.0000000E+00  0.5050505E-02 -0.1769481E-06  0.0000000E+00  0.9569660E-05
  0.7525253E+00  0.0000000E+00  0.5050505E-02 -0.1732193E-06  0.0000000E+00  0.9218073E-05
  0.7626263E+00  0.0000000E+00  0.5050505E-02 -0.1688584E-06  0.0000000E+00  0.8874623E-05
  0.7727273E+00  0.0000000E+00  0.5050505E-02 -0.1639555E-06  0.0000000E+00  0.8540488E-05
  0.7828283E+00  0.0000000E+00  0.5050505E-02 -0.1585902E-06  0.0000000E+00  0.8216675E-05
  0.7929293E+00  0.0000000E+00  0.5050505E-02 -0.1528310E-06  0.0000000E+00  0.7904041E-05
  0.8030303E+00  0.0000000E+00  0.5050505E-02 -0.1467365E-06  0.0000000E+00  0.7603319E-05
  0.8131313E+00  0.0000000E+00  0.5050505E-02 -0.1403563E-06  0.0000000E+00  0.7315129E-05
  0.8232324E+00  0.0000000E+00  0.5050505E-02 -0.1337319E-06  0.0000000E+00  0.7040003E-05
  0.8333333E+00  0.0000000E+00  0.5050505E-02 -0.1268984E-06  0.0000000E+00  0.6778395E-05
  0.8434343E+00  0.0000000E+00  0.5050505E-02 -0.1198851E-06  0.0000000E+00  0.6530692E-05
  0.8535354E+00  0.0000000E+00  0.5050505E-02 -0.1127167E-06  0.0000000E+00  0.6297231E-05
  0.8636364E+00  0.0000000E+00  0.5050505E-02 -0.1054141E-06  0.0000000E+00  0.6078300E-05
  0.8737374E+00  0.0000000E+00  0.5050505E-02 -0.9799499E-07  0.0000000E+00  0.5874150E-05
  0.8838384E+00  0.0000000E+00  0.5050505E-02 -0.9047470E-07  0.0000000E+00  0.5684998E-05
  0.8939394E+00  0.0000000E+00  0.5050505E-02 -0.8286644E-07  0.0000000E+00  0.5511033E-05
  0.9040404E+00  0.0000000E+00  0.5050505E-02 -0.7518178E-07  0.0000000E+00  0.5352420E-05
  0.9141414E+00  0.0000000E+00  0.5050505E-02 -0.6743096E-07  0.0000000E+00  0.5209299E-05
  0.9242424E+00  0.0000000E+00  0.5050505E-02 -0.5962318E-07  0.0000000E+00  0.5081794E-05
  0.9343435E+00  0.0000000E+00  0.5050505E-02 -0.5176675E-07  0.0000000E+00  0.4970011E-05
  0.9444444E+00  0.0000000E+00  0.5050505E-02 -0.4386933E-07  0.0000000E+00  0.4874038E-05
  0.9545454E+00  0.0000000E+00  0.5050505E-02 -0.3593801E-07  0.0000000E+00  0.4793951E-05
  0.9646465E+00  0.0000000E+00  0.5050505E-02 -0.2797947E-07  0.0000000E+00  0.4729810E-05
  0.9747475E+00  0.0000000E+00  0.5050505E-02 -0.2000006E-07  0.0000000E+00  0.4681662E-05
  0.9848485E+00  0.0000000E+00  0.5050505E-02 -0.1200590E-07  0.0000000E+00  0.4649545E-05
  0.9974747E+00  0.0000000E+00  0.5050505E-02 -0.4002942E-08  0.0000000E+00  0.4633480E-05
  0.5050505E-02  0.0000000E+00  0.1515152E-01  0.1533683E-07  0.0000000E+00  0.1286453E-04
  0.1515152E-01  0.0000000E+00  0.1515152E-01  0.4585301E-07  0.0000000E+00  0.1288526E-04
  0.2525252E-01  0.0000000E+00  0.1515152E-01  0.7589650E-07  0.0000000E+00  0.1292650E-04
  0.3535353E-01  0.0000000E+00  0.1515152E-01  0.1051513E-06  0.0000000E+00  0.1298784E-04
  0.4545455E-01  0.0000000E+00  0.1515152E-01  0.1333006E-06  0.0000000E+00  0.1306863E-04
  0.5555556E-01  0.0000000E+00  0.1515152E-01  0.1600271E-06  0.0000000E+00  0.1316803E-04
  0.6565657E-01  0.0000000E+00  0.1515152E-01  0.1850144E-06  0.0000000E+00  0.1328496E-04
  0.7575758E-01  0.0000000E+00  0.1515152E-01  0.2079501E-06  0.0000000E+00  0.1341816E-04
  0.8585858E-01  0.0000000E+00  0.1515152E-01  0.2285294E-06  0.0000000E+00  0.1356612E-04
  0.9595960E-01  0.0000000E+00  0.1515152E-01  0.2464612E-06  0.0000000E+00  0.1372717E-04
  0.1060606E+00  0.0000000E+00  0.1515152E-01  0.2614763E-06  0.0000000E+00  0.1389942E-04
  0.1161616E+00  0.0000000E+00  0.1515152E-01  0.2733366E-06  0.0000000E+00  0.1408080E-04
  0.1262626E+00  0.0000000E+00  0.1515152E-01  0.2818475E-06  0.0000000E+00  0.1426910E-04
  0.1363636E+00  0.0000000E+00  0.1515152E-01  0.2868700E-06  0.0000000E+00  0.1446199E-04
  0.1464646E+00  0.0000000E+00  0.1515152E-01  0.2883347E-06  0.0000000E+00  0.1465706E-04
  0.1565657E+00  0.0000000E+00  0.1515152E-01  0.2862532E-06  0.0000000E+00  0.1485189E-04
  0.1666667E+00  0.0000000E+00  0.1515152E-01  0.2807280E-06  0.0000000E+00  0.1504407E-04
  0.1767677E+00  0.0000000E+00  0.1515152E-01  0.2719568E-06  0.0000000E+00  0.1523132E-04
  0.1868687E+00  0.0000000E+00  0.1515152E-01  0.2602302E-06  0.0000000E+00  0.1541150E-04
  0.1969697E+00  0.0000000E+00  0.1515152E-01  0.2459227E-06  0.0000000E+00  0.1558272E-04
  0.2070707E+00  0.0000000E+00  0.1515152E-01  0.2294743E-06  0.0000000E+00  0.1574335E-04
  0.2171717E+00  0.0000000E+00  0.1515152E-01  0.2113665E-06  0.0000000E+00  0.1589213E-04
  0.2272727E+00  0.0000000E+00  0.1515152E-01  0.1920949E-06  0.0000000E+00  0.1602808E-04
  0.2373737E+00  0.0000000E+00  0.1515152E-01  0.1721407E-06  0.0000000E+00  0.1615060E-04
  0.2474747E+00  0.0000000E+00  0.1515152E-01  0.1519464E-06  0.0000000E+00  0.1625942E-04
  0.2575758E+00  0.0000000E+00  0.1515152E-01  0.1318975E-06  0.0000000E+00  0.1635452E-04
  0.2676768E+00  0.0000000E+00  0.1515152E-01  0.1123126E-06  0.0000000E+00  0.1643614E-04
  0.2777778E+00  0.0000000E+00  0.1515152E-01  0.9344017E-07  0.0000000E+00  0.1650471E-04
  0.2878788E+00  0.0000000E+00  0.1515152E-01  0.7546213E-07  0.0000000E+00  0.1656082E-04
  0.2979798E+00  0.0000000E+00  0.1515152E-01  0.5850136E-07  0.0000000E+00  0.1660512E-04
  0.3080808E+00  0.0000000E+00  0.1515152E-01  0.4263111E-07  0.0000000E+00  0.1663836E-04
  0.3181818E+00  0.0000000E+00  0.1515152E-01  0.2788462E-07  0.0000000E+00  0.1666130E-04
  0.3282828E+00  0.0000000E+00  0.1515152E-01  0.1426350E-07  0.0000000E+00  0.1667471E-04
  0.3383838E+00  0.0000000E+00  0.1515152E-01  0.1744342E-08  0.0000000E+00  0.1667936E-04
  0.3484848E+00  0.0000000E+00  0.1515152E-01 -0.9716749E-08  0.0000000E+00  0.1667599E-04
  0.3585859E+00  0.0000000E+00  0.1515152E-01 -0.2018150E-07  0.0000000E+00  0.1666529E-04
  0.3686869E+00  0.0000000E+00  0.1515152E-01 -0.2972829E-07  0.0000000E+00  0.1664793E-04
  0.3787879E+00  0.0000000E+00  0.1515152E-01 -0.3845198E-07  0.0000000E+00  0.1662450E-04
  0.3888889E+00  0.0000000E+00  0.1515152E-01 -0.4646431E-07  0.0000000E+00  0.1659552E-04
  0.3989899E+00  0.0000000E+00  0.1515152E-01 -0.5389455E-07  0.0000000E+00  0.1656144E-04
  0.4090909E+00  0.0000000E+00  0.1515152E-01 -0.6088993E-07  0.0000000E+00  0.1652261E-04
  0.4191919E+00  0.0000000E+00  0.1515152E-01 -0.6761580E-07  0.0000000E+00  0.1647927E-04
  0.4292929E+00  0.0000000E+00  0.1515152E-01 -0.7425534E-07  0.0000000E+00  0.1643157E-04
  0.4393939E+00  0.0000000E+00  0.1515152E-01 -0.8100866E-07  0.0000000E+00  0.1637949E-04
  0.4494950E+00  0.0000000E+00  0.1515152E-01 -0.8809121E-07  0.0000000E+00  0.1632288E-04
  0.4595959E+00  0.0000000E+00  0.1515152E-01 -0.9573151E-07  0.0000000E+00  0.1626147E-04
  0.4696970E+00  0.0000000E+00  0.1515152E-01 -0.1041679E-06  0.0000000E+00  0.1619479E-04
  0.4797980E+00  0.0000000E+00  0.1515152E-01 -0.1136442E-06  0.0000000E+00  0.1612223E-04
  0.4898990E+00  0.0000000E+00  0.1515152E-01 -0.1244043E-06  0.0000000E+00  0.1604300E-04
  0.5000000E+00  0.0000000E+00  0.1515152E-01 -0.1366848E-06  0.0000000E+00  0.1595615E-04
  0.5101010E+00  0.0000000E+00  0.1515152E-01 -0.1507058E-06  0.0000000E+00  0.1586058E-04
  0.5202020E+00  0.0000000E+00  0.1515152E-01 -0.1666601E-06  0.0000000E+00  0.1575501E-04
  0.5303030E+00  0.0000000E+00  0.1515152E-01 -0.1846988E-06  0.0000000E+00  0.1563808E-04
  0.5404040E+00  0.0000000E+00  0.1515152E-01 -0.2049160E-06  0.0000000E+00  0.1550832E-04
  0.5505050E+00  0.0000000E+00  0.1515152E-01 -0.2273301E-06  0.0000000E+00  0.1536421E-04
  0.5606061E+00  0.0000000E+00  0.1515152E-01 -0.2518656E-06  0.0000000E+00  0.1520424E-04
  0.5707071E+00  0.0000000E+00  0.1515152E-01 -0.2783344E-06  0.0000000E+00  0.1502700E-04
  0.5808081E+00  0.0000000E+00  0.1515152E-01 -0.3064220E-06  0.0000000E+00  0.1483121E-04
  0.5909091E+00  0.0000000E+00  0.1515152E-01 -0.3356809E-06  0.0000000E+00  0.1461589E-04
  0.6010101E+00  0.0000000E+00  0.1515152E-01 -0.3655348E-06  0.0000000E+00  0.1438037E-04
  0.6111111E+00  0.0000000E+00  0.1515152E-01 -0.3952995E-06  0.0000000E+00  0.1412445E-04
  0.6212121E+00  0.0000000E+00  0.1515152E-01 -0.4242189E-06  0.0000000E+00  0.1384841E-04
  0.6313131E+00  0.0000000E+00  0.1515152E-01 -0.4515173E-06  0.0000000E+00  0.1355310E-04
  0.6414142E+00  0.0000000E+00  0.1515152E-01 -0.4764587E-06  0.0000000E+00  0.1323988E-04
  0.6515151E+00  0.0000000E+00  0.1515152E-01 -0.4984057E-06  0.0000000E+00  0.1291060E-04
  0.6616161E+00  0.0000000E+00  0.1515152E-01 -0.5168665E-06  0.0000000E+00  0.1256753E-04
  0.6717172E+00  0.0000000E+00  0.1515152E-01 -0.5315221E-06  0.0000000E+00  0.1221319E-04
  0.6818182E+00  0.0000000E+00  0.1515152E-01 -0.5422309E-06  0.0000000E+00  0.1185028E-04
  0.6919192E+00  0.0000000E+00  0.1515152E-01 -0.5490138E-06  0.0000000E+00  0.1148152E-04
  0.7020202E+00  0.0000000E+00  0.1515152E-01 -0.5520245E-06  0.0000000E+00  0.1110954E-04
  0.7121212E+00  0.0000000E+00  0.1515152E-01 -0.5515139E-06  0.0000000E+00  0.1073686E-04
  0.7222222E+00  0.0000000E+00  0.1515152E-01 -0.5477940E-06  0.0000000E+00  0.1036576E-04
  0.7323232E+00  0.0000000E+00  0.1515152E-01 -0.5412056E-06  0.0000000E+00  0.9998294E-05
  0.7424242E+00  0.0000000E+00  0.1515152E-01 -0.5320933E-06  0.0000000E+00  0.9636278E-05
  0.7525253E+00  0.0000000E+00  0.1515152E-01 -0.5207876E-06  0.0000000E+00  0.9281294E-05
  0.7626263E+00  0.0000000E+00  0.1515152E-01 -0.5075927E-06  0.0000000E+00  0.8934702E-05
  0.7727273E+00  0.0000000E+00  0.1515152E-01 -0.4927814E-06  0.0000000E+00  0.8597667E-05
  0.7828283E+00  0.0000000E+00  0.1515152E-01 -0.4765924E-06  0.0000000E+00  0.8271180E-05
  0.7929293E+00  0.0000000E+00  0.1515152E-01 -0.4592313E-06  0.0000000E+00  0.7956082E-05
  0.8030303E+00  0.0000000E+00  0.1515152E-01 -0.4408733E-06  0.0000000E+00  0.7653087E-05
  0.8131313E+00  0.0000000E+00  0.1515152E-01 -0.4216660E-06  0.0000000E+00  0.7362803E-05
  0.8232324E+00  0.0000000E+00  0.1515152E-01 -0.4017335E-06  0.0000000E+00  0.7085746E-05
  0.8333333E+00  0.0000000E+00  0.1515152E-01 -0.3811797E-06  0.0000000E+00  0.6822358E-05
  0.8434343E+00  0.0000000E+00  0.1515152E-01 -0.3600919E-06  0.0000000E+00  0.6573018E-05
  0.8535354E+00  0.0000000E+00  0.1515152E-01 -0.3385433E-06  0.0000000E+00  0.6338051E-05
  0.8636364E+00  0.0000000E+00  0.1515152E-01 -0.3165959E-06  0.0000000E+00  0.6117739E-05
  0.8737374E+00  0.0000000E+00  0.1515152E-01 -0.2943024E-06  0.0000000E+00  0.5912327E-05
  0.8838384E+00  0.0000000E+00  0.1515152E-01 -0.2717082E-06  0.0000000E+00  0.5722025E-05
  0.8939394E+00  0.0000000E+00  0.1515152E-01 -0.2488523E-06  0.0000000E+00  0.5547019E-05
  0.9040404E+00  0.0000000E+00  0.1515152E-01 -0.2257692E-06  0.0000000E+00  0.5387468E-05
  0.9141414E+00  0.0000000E+00  0.1515152E-01 -0.2024893E-06  0.0000000E+00  0.5243511E-05
  0.9242424E+00  0.0000000E+00  0.1515152E-01 -0.1790399E-06  0.0000000E+00  0.5115270E-05
  0.9343435E+00  0.0000000E+00  0.1515152E-01 -0.1554457E-06  0.0000000E+00  0.5002846E-05
  0.9444444E+00  0.0000000E+00  0.1515152E-01 -0.1317295E-06  0.0000000E+00  0.4906327E-05
  0.9545454E+00  0.0000000E+00  0.1515152E-01 -0.1079124E-06  0.0000000E+00  0.4825787E-05
  0.9646465E+00  0.0000000E+00  0.1515152E-01 -0.8401428E-07  0.0000000E+00  0.4761284E-05
  0.9747475E+00  0.0000000E+00  0.1515152E-01 -0.6005403E-07  0.0000000E+00  0.4712867E-05
  0.9848485E+00  0.0000000E+00  0.1515152E-01 -0.3604987E-07  0.0000000E+00  0.4680570E-05
  0.9974747E+00  0.0000000E+00  0.1515152E-01 -0.1201953E-07  0.0000000E+00  0.4664415E-05
  0.5050505E-02  0.0000000E+00  0.2525252E-01  0.2580088E-07  0.0000000E+00  0.1300591E-04
  0.1515152E-01  0.0000000E+00  0.2525252E-01  0.7713985E-07  0.0000000E+00  0.1302730E-04
  0.2525252E-01  0.0000000E+00  0.2525252E-01  0.1276898E-06  0.0000000E+00  0.1306987E-04
  0.3535353E-01  0.0000000E+00  0.2525252E-01  0.1769229E-06  0.0000000E+00  0.1313318E-04
  0.4545455E-01  0.0000000E+00  0.2525252E-01  0.2243088E-06  0.0000000E+00  0.1321660E-04
  0.5555556E-01  0.0000000E+00  0.2525252E-01  0.2693155E-06  0.0000000E+00  0.1331926E-04
  0.6565657E-01  0.0000000E+00  0.2525252E-01  0.3114112E-06  0.0000000E+00  0.1344009E-04
  0.7575758E-01  0.0000000E+00  0.2525252E-01  0.3500682E-06  0.0000000E+00  0.1357777E-04
  0.8585858E-01  0.0000000E+00  0.2525252E-01  0.3847701E-06  0.0000000E+00  0.1373080E-04
  0.9595960E-01  0.0000000E+00  0.2525252E-01  0.4150211E-06  0.0000000E+00  0.1389742E-04
  0.1060606E+00  0.0000000E+00  0.2525252E-01  0.4403591E-06  0.0000000E+00  0.1407569E-04
  0.1161616E+00  0.0000000E+00  0.2525252E-01  0.4603725E-06  0.0000000E+00  0.1426348E-04
  0.1262626E+00  0.0000000E+00  0.2525252E-01  0.4747208E-06  0.0000000E+00  0.1445846E-04
  0.1363636E+00  0.0000000E+00  0.2525252E-01  0.4831564E-06  0.0000000E+00  0.1465820E-04
  0.1464646E+00  0.0000000E+00  0.2525252E-01  0.4855491E-06  0.0000000E+00  0.1486015E-04
  0.1565657E+00  0.0000000E+00  0.2525252E-01  0.4819079E-06  0.0000000E+00  0.1506171E-04
  0.1666667E+00  0.0000000E+00  0.2525252E-01  0.4723993E-06  0.0000000E+00  0.1526034E-04
  0.1767677E+00  0.0000000E+00  0.2525252E-01  0.4573568E-06  0.0000000E+00  0.1545357E-04
  0.1868687E+00  0.0000000E+00  0.2525252E-01  0.4372788E-06  0.0000000E+00  0.1563912E-04
  0.1969697E+00  0.0000000E+00  0.2525252E-01  0.4128125E-06  0.0000000E+00  0.1581497E-04
  0.2070707E+00  0.0000000E+00  0.2525252E-01  0.3847224E-06  0.0000000E+00  0.1597941E-04
  0.2171717E+00  0.0000000E+00  0.2525252E-01  0.3538473E-06  0.0000000E+00  0.1613109E-04
  0.2272727E+00  0.0000000E+00  0.2525252E-01  0.3210489E-06  0.0000000E+00  0.1626908E-04
  0.2373737E+00  0.0000000E+00  0.2525252E-01  0.2871612E-06  0.0000000E+00  0.1639278E-04
  0.2474747E+00  0.0000000E+00  0.2525252E-01  0.2529458E-06  0.0000000E+00  0.1650199E-04
  0.2575758E+00  0.0000000E+00  0.2525252E-01  0.2190601E-06  0.0000000E+00  0.1659681E-04
  0.2676768E+00  0.0000000E+00  0.2525252E-01  0.1860403E-06  0.0000000E+00  0.1667758E-04
  0.2777778E+00  0.0000000E+00  0.2525252E-01  0.1542983E-06  0.0000000E+00  0.1674486E-04
  0.2878788E+00  0.0000000E+00  0.2525252E-01  0.1241296E-06  0.0000000E+00  0.1679931E-04
  0.2979798E+00  0.0000000E+00  0.2525252E-01  0.9572822E-07  0.0000000E+00  0.1684172E-04
  0.3080808E+00  0.0000000E+00  0.2525252E-01  0.6920510E-07  0.0000000E+00  0.1687289E-04
  0.3181818E+00  0.0000000E+00  0.2525252E-01  0.4460532E-07  0.0000000E+00  0.1689367E-04
  0.3282828E+00  0.0000000E+00  0.2525252E-01  0.2192315E-07  0.0000000E+00  0.1690488E-04
  0.3383838E+00  0.0000000E+00  0.2525252E-01  0.1113329E-08  0.0000000E+00  0.1690734E-04
  0.3484848E+00  0.0000000E+00  0.2525252E-01 -0.1790147E-07  0.0000000E+00  0.1690183E-04
  0.3585859E+00  0.0000000E+00  0.2525252E-01 -0.3522661E-07  0.0000000E+00  0.1688910E-04
  0.3686869E+00  0.0000000E+00  0.2525252E-01 -0.5099402E-07  0.0000000E+00  0.1686982E-04
  0.3787879E+00  0.0000000E+00  0.2525252E-01 -0.6536245E-07  0.0000000E+00  0.1684464E-04
  0.3888889E+00  0.0000000E+00  0.2525252E-01 -0.7851861E-07  0.0000000E+00  0.1681412E-04
  0.3989899E+00  0.0000000E+00  0.2525252E-01 -0.9067854E-07  0.0000000E+00  0.1677872E-04
  0.4090909E+00  0.0000000E+00  0.2525252E-01 -0.1020887E-06  0.0000000E+00  0.1673885E-04
  0.4191919E+00  0.0000000E+00  0.2525252E-01 -0.1130263E-06  0.0000000E+00  0.1669477E-04
  0.4292929E+00  0.0000000E+00  0.2525252E-01 -0.1237991E-06  0.0000000E+00  0.1664664E-04
  0.4393939E+00  0.0000000E+00  0.2525252E-01 -0.1347439E-06  0.0000000E+00  0.1659448E-04
  0.4494950E+00  0.0000000E+00  0.2525252E-01 -0.1462241E-06  0.0000000E+00  0.1653816E-04
  0.4595959E+00  0.0000000E+00  0.2525252E-01 -0.1586260E-06  0.0000000E+00  0.1647742E-04
  0.4696970E+00  0.0000000E+00  0.2525252E-01 -0.1723538E-06  0.0000000E+00  0.1641179E-04
  0.4797980E+00  0.0000000E+00  0.2525252E-01 -0.1878223E-06  0.0000000E+00  0.1634065E-04
  0.4898990E+00  0.0000000E+00  0.2525252E-01 -0.2054486E-06  0.0000000E+00  0.1626320E-04
  0.5000000E+00  0.0000000E+00  0.2525252E-01 -0.2256396E-06  0.0000000E+00  0.1617846E-04
  0.5101010E+00  0.0000000E+00  0.2525252E-01 -0.2487779E-06  0.0000000E+00  0.1608527E-04
  0.5202020E+00  0.0000000E+00  0.2525252E-01 -0.2752027E-06  0.0000000E+00  0.1598229E-04
  0.5303030E+00  0.0000000E+00  0.2525252E-01 -0.3051871E-06  0.0000000E+00  0.1586805E-04
  0.5404040E+00  0.0000000E+00  0.2525252E-01 -0.3389105E-06  0.0000000E+00  0.1574097E-04
  0.5505050E+00  0.0000000E+00  0.2525252E-01 -0.3764274E-06  0.0000000E+00  0.1559937E-04
  0.5606061E+00  0.0000000E+00  0.2525252E-01 -0.4176334E-06  0.0000000E+00  0.1544157E-04
  0.5707071E+00  0.0000000E+00  0.2525252E-01 -0.4622319E-06  0.0000000E+00  0.1526594E-04
  0.5808081E+00  0.0000000E+00  0.2525252E-01 -0.5097054E-06  0.0000000E+00  0.1507101E-04
  0.5909091E+00  0.0000000E+00  0.2525252E-01 -0.5592998E-06  0.0000000E+00  0.1485556E-04
  0.6010101E+00  0.0000000E+00  0.2525252E-01 -0.6100282E-06  0.0000000E+00  0.1461874E-04
  0.6111111E+00  0.0000000E+00  0.2525252E-01 -0.6607026E-06  0.0000000E+00  0.1436018E-04
  0.6212121E+00  0.0000000E+00  0.2525252E-01 -0.7099978E-06  0.0000000E+00  0.1408012E-04
  0.6313131E+00  0.0000000E+00  0.2525252E-01 -0.7565452E-06  0.0000000E+00  0.1377938E-04
  0.6414142E+00  0.0000000E+00  0.2525252E-01 -0.7990435E-06  0.0000000E+00  0.1345946E-04
  0.6515151E+00  0.0000000E+00  0.2525252E-01 -0.8363698E-06  0.0000000E+00  0.1312239E-04
  0.6616161E+00  0.0000000E+00  0.2525252E-01 -0.8676670E-06  0.0000000E+00  0.1277070E-04
  0.6717172E+00  0.0000000E+00  0.2525252E-01 -0.8923928E-06  0.0000000E+00  0.1240720E-04
  0.6818182E+00  0.0000000E+00  0.2525252E-01 -0.9103257E-06  0.0000000E+00  0.1203486E-04
  0.6919192E+00  0.0000000E+00  0.2525252E-01 -0.9215322E-06  0.0000000E+00  0.1165667E-04
  0.7020202E+00  0.0000000E+00  0.2525252E-01 -0.9263098E-06  0.0000000E+00  0.1127547E-04
  0.7121212E+00  0.0000000E+00  0.2525252E-01 -0.9251201E-06  0.0000000E+00  0.1089391E-04
  0.7222222E+00  0.0000000E+00  0.2525252E-01 -0.9185220E-06  0.0000000E+00  0.1051440E-04
  0.7323232E+00  0.0000000E+00  0.2525252E-01 -0.9071163E-06  0.0000000E+00  0.1013903E-04
  0.7424242E+00  0.0000000E+00  0.2525252E-01 -0.8915017E-06  0.0000000E+00  0.9769666E-05
  0.7525253E+00  0.0000000E+00  0.2525252E-01 -0.8722457E-06  0.0000000E+00  0.9407868E-05
  0.7626263E+00  0.0000000E+00  0.2525252E-01 -0.8498660E-06  0.0000000E+00  0.9054982E-05
  0.7727273E+00  0.0000000E+00  0.2525252E-01 -0.8248222E-06  0.0000000E+00  0.8712141E-05
  0.7828283E+00  0.0000000E+00  0.2525252E-01 -0.7975142E-06  0.0000000E+00  0.8380304E-05
  0.7929293E+00  0.0000000E+00  0.2525252E-01 -0.7682840E-06  0.0000000E+00  0.8060276E-05
  0.8030303E+00  0.0000000E+00  0.2525252E-01 -0.7374212E-06  0.0000000E+00  0.7752738E-05
  0.8131313E+00  0.0000000E+00  0.2525252E-01 -0.7051692E-06  0.0000000E+00  0.7458266E-05
  0.8232324E+00  0.0000000E+00  0.2525252E-01 -0.6717317E-06  0.0000000E+00  0.7177347E-05
  0.8333333E+00  0.0000000E+00  0.2525252E-01 -0.6372788E-06  0.0000000E+00  0.6910401E-05
  0.8434343E+00  0.0000000E+00  0.2525252E-01 -0.6019531E-06  0.0000000E+00  0.6657784E-05
  0.8535354E+00  0.0000000E+00  0.2525252E-01 -0.5658741E-06  0.0000000E+00  0.6419805E-05
  0.8636364E+00  0.0000000E+00  0.2525252E-01 -0.5291429E-06  0.0000000E+00  0.6196730E-05
  0.8737374E+00  0.0000000E+00  0.2525252E-01 -0.4918453E-06  0.0000000E+00  0.5988790E-05
  0.8838384E+00  0.0000000E+00  0.2525252E-01 -0.4540553E-06  0.0000000E+00  0.5796187E-05
  0.8939394E+00  0.0000000E+00  0.2525252E-01 -0.4158368E-06  0.0000000E+00  0.5619096E-05
  0.9040404E+00  0.0000000E+00  0.2525252E-01 -0.3772458E-06  0.0000000E+00  0.5457670E-05
  0.9141414E+00  0.0000000E+00  0.2525252E-01 -0.3383322E-06  0.0000000E+00  0.5312041E-05
  0.9242424E+00  0.0000000E+00  0.2525252E-01 -0.2991405E-06  0.0000000E+00  0.5182324E-05
  0.9343435E+00  0.0000000E+00  0.2525252E-01 -0.2597112E-06  0.0000000E+00  0.5068617E-05
  0.9444444E+00  0.0000000E+00  0.2525252E-01 -0.2200816E-06  0.0000000E+00  0.4971005E-05
  0.9545454E+00  0.0000000E+00  0.2525252E-01 -0.1802864E-06  0.0000000E+00  0.4889558E-05
  0.9646465E+00  0.0000000E+00  0.2525252E-01 -0.1403581E-06  0.0000000E+00  0.4824333E-05
  0.9747475E+00  0.0000000E+00  0.2525252E-01 -0.1003278E-06  0.0000000E+00  0.4775376E-05
  0.9848485E+00  0.0000000E+00  0.2525252E-01 -0.6022533E-07  0.0000000E+00  0.4742719E-05
  0.9974747E+00  0.0000000E+00  0.2525252E-01 -0.2007987E-07  0.0000000E+00  0.4726384E-05
  0.5050505E-02  0.0000000E+00  0.3535353E-01  0.3664841E-07  0.0000000E+00  0.1321817E-04
  0.1515152E-01  0.0000000E+00  0.3535353E-01  0.1095766E-06  0.0000000E+00  0.1324056E-04
  0.2525252E-01  0.0000000E+00  0.3535353E-01  0.1813975E-06  0.0000000E+00  0.1328512E-04
  0.3535353E-01  0.0000000E+00  0.3535353E-01  0.2513693E-06  0.0000000E+00  0.1335143E-04
  0.4545455E-01  0.0000000E+00  0.3535353E-01  0.3187450E-06  0.0000000E+00  0.1343883E-04
  0.5555556E-01  0.0000000E+00  0.3535353E-01  0.3827728E-06  0.0000000E+00  0.1354644E-04
  0.6565657E-01  0.0000000E+00  0.3535353E-01  0.4426981E-06  0.0000000E+00  0.1367316E-04
  0.7575758E-01  0.0000000E+00  0.3535353E-01  0.4977684E-06  0.0000000E+00  0.1381766E-04
  0.8585858E-01  0.0000000E+00  0.3535353E-01  0.5472421E-06  0.0000000E+00  0.1397836E-04
  0.9595960E-01  0.0000000E+00  0.3535353E-01  0.5904018E-06  0.0000000E+00  0.1415347E-04
  0.1060606E+00  0.0000000E+00  0.3535353E-01  0.6265722E-06  0.0000000E+00  0.1434094E-04
  0.1161616E+00  0.0000000E+00  0.3535353E-01  0.6551446E-06  0.0000000E+00  0.1453852E-04
  0.1262626E+00  0.0000000E+00  0.3535353E-01  0.6756065E-06  0.0000000E+00  0.1474375E-04
  0.1363636E+00  0.0000000E+00  0.3535353E-01  0.6875754E-06  0.0000000E+00  0.1495400E-04
  0.1464646E+00  0.0000000E+00  0.3535353E-01  0.6908362E-06  0.0000000E+00  0.1516650E-04
  0.1565657E+00  0.0000000E+00  0.3535353E-01  0.6853771E-06  0.0000000E+00  0.1537843E-04
  0.1666667E+00  0.0000000E+00  0.3535353E-01  0.6714202E-06  0.0000000E+00  0.1558698E-04
  0.1767677E+00  0.0000000E+00  0.3535353E-01  0.6494396E-06  0.0000000E+00  0.1578943E-04
  0.1868687E+00  0.0000000E+00  0.3535353E-01  0.6201627E-06  0.0000000E+00  0.1598325E-04
  0.1969697E+00  0.0000000E+00  0.3535353E-01  0.5845469E-06  0.0000000E+00  0.1616620E-04
  0.2070707E+00  0.0000000E+00  0.3535353E-01  0.5437329E-06  0.0000000E+00  0.1633643E-04
  0.2171717E+00  0.0000000E+00  0.3535353E-01  0.4989758E-06  0.0000000E+00  0.1649251E-04
  0.2272727E+00  0.0000000E+00  0.3535353E-01  0.4515639E-06  0.0000000E+00  0.1663349E-04
  0.2373737E+00  0.0000000E+00  0.3535353E-01  0.4027361E-06  0.0000000E+00  0.1675885E-04
  0.2474747E+00  0.0000000E+00  0.3535353E-01  0.3536124E-06  0.0000000E+00  0.1686852E-04
  0.2575758E+00  0.0000000E+00  0.3535353E-01  0.3051447E-06  0.0000000E+00  0.1696276E-04
  0.2676768E+00  0.0000000E+00  0.3535353E-01  0.2580941E-06  0.0000000E+00  0.1704209E-04
  0.2777778E+00  0.0000000E+00  0.3535353E-01  0.2130297E-06  0.0000000E+00  0.1710724E-04
  0.2878788E+00  0.0000000E+00  0.3535353E-01  0.1703465E-06  0.0000000E+00  0.1715906E-04
  0.2979798E+00  0.0000000E+00  0.3535353E-01  0.1302916E-06  0.0000000E+00  0.1719848E-04