title = "dataset water"
variables = "x", "y", "z", "vx", "vy", "vz"
zone t = "velocities, solution time =  3.100E+01 days        " i =   99, j =   99, k =    1,  f=point
  0.5050505E-02  0.0000000E+00  0.5050505E-02  0.2545336E-10  0.0000000E+00 -0.9185262E-05
  0.1515152E-01  0.0000000E+00  0.5050505E-02  0.7625355E-10  0.0000000E+00 -0.9185160E-05
  0.2525252E-01  0.0000000E+00  0.5050505E-02  0.1267227E-09  0.0000000E+00 -0.9184957E-05
  0.3535353E-01  0.0000000E+00  0.5050505E-02  0.1766399E-09  0.0000000E+00 -0.9184653E-05
  0.4545455E-01  0.0000000E+00  0.5050505E-02  0.2257870E-09  0.0000000E+00 -0.9184250E-05
  0.5555556E-01  0.0000000E+00  0.5050505E-02  0.2739480E-09  0.0000000E+00 -0.9183750E-05
  0.6565657E-01  0.0000000E+00  0.5050505E-02  0.3209092E-09  0.0000000E+00 -0.9183155E-05
  0.7575758E-01  0.0000000E+00  0.5050505E-02  0.3664607E-09  0.0000000E+00 -0.9182466E-05
  0.8585858E-01  0.0000000E+00  0.5050505E-02  0.4103968E-09  0.0000000E+00 -0.9181689E-05
  0.9595960E-01  0.0000000E+00  0.5050505E-02  0.4525165E-09  0.0000000E+00 -0.9180825E-05
  0.1060606E+00  0.0000000E+00  0.5050505E-02  0.4926250E-09  0.0000000E+00 -0.9179879E-05
  0.1161616E+00  0.0000000E+00  0.5050505E-02  0.5305335E-09  0.0000000E+00 -0.9178854E-05
  0.1262626E+00  0.0000000E+00  0.5050505E-02  0.5660609E-09  0.0000000E+00 -0.9177756E-05
  0.1363636E+00  0.0000000E+00  0.5050505E-02  0.5990343E-09  0.0000000E+00 -0.9176590E-05
  0.1464646E+00  0.0000000E+00  0.5050505E-02  0.6292900E-09  0.0000000E+00 -0.9175360E-05
  0.1565657E+00  0.0000000E+00  0.5050505E-02  0.6566743E-09  0.0000000E+00 -0.9174073E-05
  0.1666667E+00  0.0000000E+00  0.5050505E-02  0.6810445E-09  0.0000000E+00 -0.9172734E-05
  0.1767677E+00  0.0000000E+00  0.5050505E-02  0.7022699E-09  0.0000000E+00 -0.9171349E-05
  0.1868687E+00  0.0000000E+00  0.5050505E-02  0.7202324E-09  0.0000000E+00 -0.9169925E-05
  0.1969697E+00  0.0000000E+00  0.5050505E-02  0.7348280E-09  0.0000000E+00 -0.9168468E-05
  0.2070707E+00  0.0000000E+00  0.5050505E-02  0.7459669E-09  0.0000000E+00 -0.9166986E-05
  0.2171717E+00  0.0000000E+00  0.5050505E-02  0.7535748E-09  0.0000000E+00 -0.9165484E-05
  0.2272727E+00  0.0000000E+00  0.5050505E-02  0.7575936E-09  0.0000000E+00 -0.9163971E-05
  0.2373737E+00  0.0000000E+00  0.5050505E-02  0.7579819E-09  0.0000000E+00 -0.9162454E-05
  0.2474747E+00  0.0000000E+00  0.5050505E-02  0.7547156E-09  0.0000000E+00 -0.9160940E-05
  0.2575758E+00  0.0000000E+00  0.5050505E-02  0.7477884E-09  0.0000000E+00 -0.9159436E-05
  0.2676768E+00  0.0000000E+00  0.5050505E-02  0.7372123E-09  0.0000000E+00 -0.9157949E-05
  0.2777778E+00  0.0000000E+00  0.5050505E-02  0.7230174E-09  0.0000000E+00 -0.9156487E-05
  0.2878788E+00  0.0000000E+00  0.5050505E-02  0.7052527E-09  0.0000000E+00 -0.9155057E-05
  0.2979798E+00  0.0000000E+00  0.5050505E-02  0.6839852E-09  0.0000000E+00 -0.9153666E-05
  0.3080808E+00  0.0000000E+00  0.5050505E-02  0.6593004E-09  0.0000000E+00 -0.9152322E-05
  0.3181818E+00  0.0000000E+00  0.5050505E-02  0.6313017E-09  0.0000000E+00 -0.9151030E-05
  0.3282828E+00  0.0000000E+00  0.5050505E-02  0.6001100E-09  0.0000000E+00 -0.9149797E-05
  0.3383838E+00  0.0000000E+00  0.5050505E-02  0.5658629E-09  0.0000000E+00 -0.9148629E-05
  0.3484848E+00  0.0000000E+00  0.5050505E-02  0.5287142E-09  0.0000000E+00 -0.9147534E-05
  0.3585859E+00  0.0000000E+00  0.5050505E-02  0.4888329E-09  0.0000000E+00 -0.9146515E-05
  0.3686869E+00  0.0000000E+00  0.5050505E-02  0.4464022E-09  0.0000000E+00 -0.9145579E-05
  0.3787879E+00  0.0000000E+00  0.5050505E-02  0.4016184E-09  0.0000000E+00 -0.9144730E-05
  0.3888889E+00  0.0000000E+00  0.5050505E-02  0.3546899E-09  0.0000000E+00 -0.9143973E-05
  0.3989899E+00  0.0000000E+00  0.5050505E-02  0.3058354E-09  0.0000000E+00 -0.9143311E-05
  0.4090909E+00  0.0000000E+00  0.5050505E-02  0.2552832E-09  0.0000000E+00 -0.9142750E-05
  0.4191919E+00  0.0000000E+00  0.5050505E-02  0.2032694E-09  0.0000000E+00 -0.9142290E-05
  0.4292929E+00  0.0000000E+00  0.5050505E-02  0.1500366E-09  0.0000000E+00 -0.9141937E-05
  0.4393939E+00  0.0000000E+00  0.5050505E-02  0.9583228E-10  0.0000000E+00 -0.9141691E-05
  0.4494950E+00  0.0000000E+00  0.5050505E-02  0.4090749E-10  0.0000000E+00 -0.9141554E-05
  0.4595959E+00  0.0000000E+00  0.5050505E-02 -0.1448465E-10  0.0000000E+00 -0.9141527E-05
  0.4696970E+00  0.0000000E+00  0.5050505E-02 -0.7009054E-10  0.0000000E+00 -0.9141612E-05
  0.4797980E+00  0.0000000E+00  0.5050505E-02 -0.1256574E-09  0.0000000E+00 -0.9141808E-05
  0.4898990E+00  0.0000000E+00  0.5050505E-02 -0.1809347E-09  0.0000000E+00 -0.9142115E-05
  0.5000000E+00  0.0000000E+00  0.5050505E-02 -0.2356756E-09  0.0000000E+00 -0.9142532E-05
  0.5101010E+00  0.0000000E+00  0.5050505E-02 -0.2896382E-09  0.0000000E+00 -0.9143058E-05
  0.5202020E+00  0.0000000E+00  0.5050505E-02 -0.3425869E-09  0.0000000E+00 -0.9143691E-05
  0.5303030E+00  0.0000000E+00  0.5050505E-02 -0.3942932E-09  0.0000000E+00 -0.9144428E-05
  0.5404040E+00  0.0000000E+00  0.5050505E-02 -0.4445375E-09  0.0000000E+00 -0.9145268E-05
  0.5505050E+00  0.0000000E+00  0.5050505E-02 -0.4931094E-09  0.0000000E+00 -0.9146207E-05
  0.5606061E+00  0.0000000E+00  0.5050505E-02 -0.5398091E-09  0.0000000E+00 -0.9147241E-05
  0.5707071E+00  0.0000000E+00  0.5050505E-02 -0.5844483E-09  0.0000000E+00 -0.9148367E-05
  0.5808081E+00  0.0000000E+00  0.5050505E-02 -0.6268507E-09  0.0000000E+00 -0.9149579E-05
  0.5909091E+00  0.0000000E+00  0.5050505E-02 -0.6668528E-09  0.0000000E+00 -0.9150874E-05
  0.6010101E+00  0.0000000E+00  0.5050505E-02 -0.7043045E-09  0.0000000E+00 -0.9152247E-05
  0.6111111E+00  0.0000000E+00  0.5050505E-02 -0.7390697E-09  0.0000000E+00 -0.9153692E-05
  0.6212121E+00  0.0000000E+00  0.5050505E-02 -0.7710266E-09  0.0000000E+00 -0.9155204E-05
  0.6313131E+00  0.0000000E+00  0.5050505E-02 -0.8000679E-09  0.0000000E+00 -0.9156777E-05
  0.6414142E+00  0.0000000E+00  0.5050505E-02 -0.8261012E-09  0.0000000E+00 -0.9158405E-05
  0.6515151E+00  0.0000000E+00  0.5050505E-02 -0.8490488E-09  0.0000000E+00 -0.9160082E-05
  0.6616161E+00  0.0000000E+00  0.5050505E-02 -0.8688480E-09  0.0000000E+00 -0.9161802E-05
  0.6717172E+00  0.0000000E+00  0.5050505E-02 -0.8854508E-09  0.0000000E+00 -0.9163558E-05
  0.6818182E+00  0.0000000E+00  0.5050505E-02 -0.8988239E-09  0.0000000E+00 -0.9165344E-05
  0.6919192E+00  0.0000000E+00  0.5050505E-02 -0.9089479E-09  0.0000000E+00 -0.9167154E-05
  0.7020202E+00  0.0000000E+00  0.5050505E-02 -0.9158176E-09  0.0000000E+00 -0.9168981E-05
  0.7121212E+00  0.0000000E+00  0.5050505E-02 -0.9194412E-09  0.0000000E+00 -0.9170818E-05
  0.7222222E+00  0.0000000E+00  0.5050505E-02 -0.9198397E-09  0.0000000E+00 -0.9172659E-05
  0.7323232E+00  0.0000000E+00  0.5050505E-02 -0.9170463E-09  0.0000000E+00 -0.9174498E-05
  0.7424242E+00  0.0000000E+00  0.5050505E-02 -0.9111062E-09  0.0000000E+00 -0.9176329E-05
  0.7525253E+00  0.0000000E+00  0.5050505E-02 -0.9020754E-09  0.0000000E+00 -0.9178144E-05
  0.7626263E+00  0.0000000E+00  0.5050505E-02 -0.8900199E-09  0.0000000E+00 -0.9179938E-05
  0.7727273E+00  0.0000000E+00  0.5050505E-02 -0.8750156E-09  0.0000000E+00 -0.9181705E-05
  0.7828283E+00  0.0000000E+00  0.5050505E-02 -0.8571470E-09  0.0000000E+00 -0.9183439E-05
  0.7929293E+00  0.0000000E+00  0.5050505E-02 -0.8365063E-09  0.0000000E+00 -0.9185135E-05
  0.8030303E+00  0.0000000E+00  0.5050505E-02 -0.8131931E-09  0.0000000E+00 -0.9186786E-05
  0.8131313E+00  0.0000000E+00  0.5050505E-02 -0.7873135E-09  0.0000000E+00 -0.9188388E-05
  0.8232324E+00  0.0000000E+00  0.5050505E-02 -0.7589790E-09  0.0000000E+00 -0.9189937E-05
  0.8333333E+00  0.0000000E+00  0.5050505E-02 -0.7283063E-09  0.0000000E+00 -0.9191425E-05
  0.8434343E+00  0.0000000E+00  0.5050505E-02 -0.6954161E-09  0.0000000E+00 -0.9192851E-05
  0.8535354E+00  0.0000000E+00  0.5050505E-02 -0.6604329E-09  0.0000000E+00 -0.9194208E-05
  0.8636364E+00  0.0000000E+00  0.5050505E-02 -0.6234844E-09  0.0000000E+00 -0.9195494E-05
  0.8737374E+00  0.0000000E+00  0.5050505E-02 -0.5847004E-09  0.0000000E+00 -0.9196703E-05
  0.8838384E+00  0.0000000E+00  0.5050505E-02 -0.5442131E-09  0.0000000E+00 -0.9197833E-05
  0.8939394E+00  0.0000000E+00  0.5050505E-02 -0.5021560E-09  0.0000000E+00 -0.9198881E-05
  0.9040404E+00  0.0000000E+00  0.5050505E-02 -0.4586640E-09  0.0000000E+00 -0.9199843E-05
  0.9141414E+00  0.0000000E+00  0.5050505E-02 -0.4138727E-09  0.0000000E+00 -0.9200716E-05
  0.9242424E+00  0.0000000E+00  0.5050505E-02 -0.3679184E-09  0.0000000E+00 -0.9201499E-05
  0.9343435E+00  0.0000000E+00  0.5050505E-02 -0.3209377E-09  0.0000000E+00 -0.9202189E-05
  0.9444444E+00  0.0000000E+00  0.5050505E-02 -0.2730676E-09  0.0000000E+00 -0.9202783E-05
  0.9545454E+00  0.0000000E+00  0.5050505E-02 -0.2244449E-09  0.0000000E+00 -0.9203281E-05
  0.9646465E+00  0.0000000E+00  0.5050505E-02 -0.1752067E-09  0.0000000E+00 -0.9203681E-05
  0.9747475E+00  0.0000000E+00  0.5050505E-02 -0.1254898E-09  0.0000000E+00 -0.9203982E-05
  0.9848485E+00  0.0000000E+00  0.5050505E-02 -0.7543125E-10  0.0000000E+00 -0.9204184E-05
  0.9974747E+00  0.0000000E+00  0.5050505E-02 -0.2516788E-10  0.0000000E+00 -0.9204284E-05
  0.5050505E-02  0.0000000E+00  0.1515152E-01  0.7656398E-10  0.0000000E+00 -0.9173632E-05
  0.1515152E-01  0.0000000E+00  0.1515152E-01  0.2293691E-09  0.0000000E+00 -0.9173529E-05
  0.2525252E-01  0.0000000E+00  0.1515152E-01  0.3811790E-09  0.0000000E+00 -0.9173324E-05
  0.3535353E-01  0.0000000E+00  0.1515152E-01  0.5313296E-09  0.0000000E+00 -0.9173017E-05
  0.4545455E-01  0.0000000E+00  0.1515152E-01  0.6791651E-09  0.0000000E+00 -0.9172609E-05
  0.5555556E-01  0.0000000E+00  0.1515152E-01  0.8240352E-09  0.0000000E+00 -0.9172104E-05
  0.6565657E-01  0.0000000E+00  0.1515152E-01  0.9652980E-09  0.0000000E+00 -0.9171502E-05
  0.7575758E-01  0.0000000E+00  0.1515152E-01  0.1102322E-08  0.0000000E+00 -0.9170806E-05
  0.8585858E-01  0.0000000E+00  0.1515152E-01  0.1234488E-08  0.0000000E+00 -0.9170020E-05
  0.9595960E-01  0.0000000E+00  0.1515152E-01  0.1361193E-08  0.0000000E+00 -0.9169146E-05
  0.1060606E+00  0.0000000E+00  0.1515152E-01  0.1481849E-08  0.0000000E+00 -0.9168190E-05
  0.1161616E+00  0.0000000E+00  0.1515152E-01  0.1595890E-08  0.0000000E+00 -0.9167154E-05
  0.1262626E+00  0.0000000E+00  0.1515152E-01  0.1702770E-08  0.0000000E+00 -0.9166044E-05
  0.1363636E+00  0.0000000E+00  0.1515152E-01  0.1801969E-08  0.0000000E+00 -0.9164865E-05
  0.1464646E+00  0.0000000E+00  0.1515152E-01  0.1892994E-08  0.0000000E+00 -0.9163622E-05
  0.1565657E+00  0.0000000E+00  0.1515152E-01  0.1975383E-08  0.0000000E+00 -0.9162320E-05
  0.1666667E+00  0.0000000E+00  0.1515152E-01  0.2048706E-08  0.0000000E+00 -0.9160966E-05
  0.1767677E+00  0.0000000E+00  0.1515152E-01  0.2112570E-08  0.0000000E+00 -0.9159566E-05
  0.1868687E+00  0.0000000E+00  0.1515152E-01  0.2166619E-08  0.0000000E+00 -0.9158126E-05
  0.1969697E+00  0.0000000E+00  0.1515152E-01  0.2210540E-08  0.0000000E+00 -0.9156653E-05
  0.2070707E+00  0.0000000E+00  0.1515152E-01  0.2244063E-08  0.0000000E+00 -0.9155154E-05
  0.2171717E+00  0.0000000E+00  0.1515152E-01  0.2266963E-08  0.0000000E+00 -0.9153636E-05
  0.2272727E+00  0.0000000E+00  0.1515152E-01  0.2279066E-08  0.0000000E+00 -0.9152106E-05
  0.2373737E+00  0.0000000E+00  0.1515152E-01  0.2280247E-08  0.0000000E+00 -0.9150572E-05
  0.2474747E+00  0.0000000E+00  0.1515152E-01  0.2270432E-08  0.0000000E+00 -0.9149040E-05
  0.2575758E+00  0.0000000E+00  0.1515152E-01  0.2249603E-08  0.0000000E+00 -0.9147519E-05
  0.2676768E+00  0.0000000E+00  0.1515152E-01  0.2217796E-08  0.0000000E+00 -0.9146016E-05
  0.2777778E+00  0.0000000E+00  0.1515152E-01  0.2175101E-08  0.0000000E+00 -0.9144537E-05
  0.2878788E+00  0.0000000E+00  0.1515152E-01  0.2121665E-08  0.0000000E+00 -0.9143091E-05
  0.2979798E+00  0.0000000E+00  0.1515152E-01  0.2057690E-08  0.0000000E+00 -0.9141685E-05
  0.3080808E+00  0.0000000E+00  0.1515152E-01  0.1983433E-08  0.0000000E+00 -0.9140325E-05
  0.3181818E+00  0.0000000E+00  0.1515152E-01  0.1899205E-08  0.0000000E+00 -0.9139018E-05
  0.3282828E+00  0.0000000E+00  0.1515152E-01  0.1805371E-08  0.0000000E+00 -0.9137772E-05
  0.3383838E+00  0.0000000E+00  0.1515152E-01  0.1702343E-08  0.0000000E+00 -0.9136591E-05
  0.3484848E+00  0.0000000E+00  0.1515152E-01  0.1590586E-08  0.0000000E+00 -0.9135483E-05
  0.3585859E+00  0.0000000E+00  0.1515152E-01  0.1470607E-08  0.0000000E+00 -0.9134453E-05
  0.3686869E+00  0.0000000E+00  0.1515152E-01  0.1342959E-08  0.0000000E+00 -0.9133506E-05
  0.3787879E+00  0.0000000E+00  0.1515152E-01  0.1208232E-08  0.0000000E+00 -0.9132647E-05
  0.3888889E+00  0.0000000E+00  0.1515152E-01  0.1067053E-08  0.0000000E+00 -0.9131882E-05
  0.3989899E+00  0.0000000E+00  0.1515152E-01  0.9200808E-09  0.0000000E+00 -0.9131213E-05
  0.4090909E+00  0.0000000E+00  0.1515152E-01  0.7680026E-09  0.0000000E+00 -0.9130645E-05
  0.4191919E+00  0.0000000E+00  0.1515152E-01  0.6115288E-09  0.0000000E+00 -0.9130180E-05
  0.4292929E+00  0.0000000E+00  0.1515152E-01  0.4513895E-09  0.0000000E+00 -0.9129823E-05
  0.4393939E+00  0.0000000E+00  0.1515152E-01  0.2883296E-09  0.0000000E+00 -0.9129574E-05
  0.4494950E+00  0.0000000E+00  0.1515152E-01  0.1231047E-09  0.0000000E+00 -0.9129435E-05
  0.4595959E+00  0.0000000E+00  0.1515152E-01 -0.4352358E-10  0.0000000E+00 -0.9129408E-05
  0.4696970E+00  0.0000000E+00  0.1515152E-01 -0.2107921E-09  0.0000000E+00 -0.9129494E-05
  0.4797980E+00  0.0000000E+00  0.1515152E-01 -0.3779403E-09  0.0000000E+00 -0.9129692E-05
  0.4898990E+00  0.0000000E+00  0.1515152E-01 -0.5442142E-09  0.0000000E+00 -0.9130002E-05
  0.5000000E+00  0.0000000E+00  0.1515152E-01 -0.7088714E-09  0.0000000E+00 -0.9130424E-05
  0.5101010E+00  0.0000000E+00  0.1515152E-01 -0.8711840E-09  0.0000000E+00 -0.9130955E-05
  0.5202020E+00  0.0000000E+00  0.1515152E-01 -0.1030443E-08  0.0000000E+00 -0.9131595E-05
  0.5303030E+00  0.0000000E+00  0.1515152E-01 -0.1185962E-08  0.0000000E+00 -0.9132341E-05
  0.5404040E+00  0.0000000E+00  0.1515152E-01 -0.1337079E-08  0.0000000E+00 -0.9133189E-05
  0.5505050E+00  0.0000000E+00  0.1515152E-01 -0.1483162E-08  0.0000000E+00 -0.9134138E-05
  0.5606061E+00  0.0000000E+00  0.1515152E-01 -0.1623610E-08  0.0000000E+00 -0.9135183E-05
  0.5707071E+00  0.0000000E+00  0.1515152E-01 -0.1757857E-08  0.0000000E+00 -0.9136321E-05
  0.5808081E+00  0.0000000E+00  0.1515152E-01 -0.1885372E-08  0.0000000E+00 -0.9137546E-05
  0.5909091E+00  0.0000000E+00  0.1515152E-01 -0.2005664E-08  0.0000000E+00 -0.9138855E-05
  0.6010101E+00  0.0000000E+00  0.1515152E-01 -0.2118282E-08  0.0000000E+00 -0.9140242E-05
  0.6111111E+00  0.0000000E+00  0.1515152E-01 -0.2222817E-08  0.0000000E+00 -0.9141702E-05
  0.6212121E+00  0.0000000E+00  0.1515152E-01 -0.2318902E-08  0.0000000E+00 -0.9143230E-05
  0.6313131E+00  0.0000000E+00  0.1515152E-01 -0.2406215E-08  0.0000000E+00 -0.9144819E-05
  0.6414142E+00  0.0000000E+00  0.1515152E-01 -0.2484478E-08  0.0000000E+00 -0.9146464E-05
  0.6515151E+00  0.0000000E+00  0.1515152E-01 -0.2553458E-08  0.0000000E+00 -0.9148159E-05
  0.6616161E+00  0.0000000E+00  0.1515152E-01 -0.2612968E-08  0.0000000E+00 -0.9149896E-05
  0.6717172E+00  0.0000000E+00  0.1515152E-01 -0.2662863E-08  0.0000000E+00 -0.9151671E-05
  0.6818182E+00  0.0000000E+00  0.1515152E-01 -0.2703042E-08  0.0000000E+00 -0.9153475E-05
  0.6919192E+00  0.0000000E+00  0.1515152E-01 -0.2733449E-08  0.0000000E+00 -0.9155303E-05
  0.7020202E+00  0.0000000E+00  0.1515152E-01 -0.2754069E-08  0.0000000E+00 -0.9157149E-05
  0.7121212E+00  0.0000000E+00  0.1515152E-01 -0.2764926E-08  0.0000000E+00 -0.9159005E-05
  0.7222222E+00  0.0000000E+00  0.1515152E-01 -0.2766084E-08  0.0000000E+00 -0.9160865E-05
  0.7323232E+00  0.0000000E+00  0.1515152E-01 -0.2757643E-08  0.0000000E+00 -0.9162722E-05
  0.7424242E+00  0.0000000E+00  0.1515152E-01 -0.2739741E-08  0.0000000E+00 -0.9164570E-05
  0.7525253E+00  0.0000000E+00  0.1515152E-01 -0.2712545E-08  0.0000000E+00 -0.9166404E-05
  0.7626263E+00  0.0000000E+00  0.1515152E-01 -0.2676255E-08  0.0000000E+00 -0.9168216E-05
  0.7727273E+00  0.0000000E+00  0.1515152E-01 -0.2631099E-08  0.0000000E+00 -0.9170000E-05
  0.7828283E+00  0.0000000E+00  0.1515152E-01 -0.2577333E-08  0.0000000E+00 -0.9171751E-05
  0.7929293E+00  0.0000000E+00  0.1515152E-01 -0.2515234E-08  0.0000000E+00 -0.9173463E-05
  0.8030303E+00  0.0000000E+00  0.1515152E-01 -0.2445101E-08  0.0000000E+00 -0.9175131E-05
  0.8131313E+00  0.0000000E+00  0.1515152E-01 -0.2367255E-08  0.0000000E+00 -0.9176749E-05
  0.8232324E+00  0.0000000E+00  0.1515152E-01 -0.2282030E-08  0.0000000E+00 -0.9178312E-05
  0.8333333E+00  0.0000000E+00  0.1515152E-01 -0.2189778E-08  0.0000000E+00 -0.9179815E-05
  0.8434343E+00  0.0000000E+00  0.1515152E-01 -0.2090862E-08  0.0000000E+00 -0.9181254E-05
  0.8535354E+00  0.0000000E+00  0.1515152E-01 -0.1985657E-08  0.0000000E+00 -0.9182624E-05
  0.8636364E+00  0.0000000E+00  0.1515152E-01 -0.1874547E-08  0.0000000E+00 -0.9183922E-05
  0.8737374E+00  0.0000000E+00  0.1515152E-01 -0.1757921E-08  0.0000000E+00 -0.9185143E-05
  0.8838384E+00  0.0000000E+00  0.1515152E-01 -0.1636178E-08  0.0000000E+00 -0.9186284E-05
  0.8939394E+00  0.0000000E+00  0.1515152E-01 -0.1509720E-08  0.0000000E+00 -0.9187341E-05
  0.9040404E+00  0.0000000E+00  0.1515152E-01 -0.1378950E-08  0.0000000E+00 -0.9188312E-05
  0.9141414E+00  0.0000000E+00  0.1515152E-01 -0.1244278E-08  0.0000000E+00 -0.9189194E-05
  0.9242424E+00  0.0000000E+00  0.1515152E-01 -0.1106111E-08  0.0000000E+00 -0.9189984E-05
  0.9343435E+00  0.0000000E+00  0.1515152E-01 -0.9648626E-09  0.0000000E+00 -0.9190680E-05
  0.9444444E+00  0.0000000E+00  0.1515152E-01 -0.8209421E-09  0.0000000E+00 -0.9191280E-05
  0.9545454E+00  0.0000000E+00  0.1515152E-01 -0.6747613E-09  0.0000000E+00 -0.9191782E-05
  0.9646465E+00  0.0000000E+00  0.1515152E-01 -0.5267317E-09  0.0000000E+00 -0.9192186E-05
  0.9747475E+00  0.0000000E+00  0.1515152E-01 -0.3772646E-09  0.0000000E+00 -0.9192490E-05
  0.9848485E+00  0.0000000E+00  0.1515152E-01 -0.2267709E-09  0.0000000E+00 -0.9192693E-05
  0.9974747E+00  0.0000000E+00  0.1515152E-01 -0.7566183E-10  0.0000000E+00 -0.9192795E-05
  0.5050505E-02  0.0000000E+00  0.2525252E-01  0.1283607E-09  0.0000000E+00 -0.9150407E-05
  0.1515152E-01  0.0000000E+00  0.2525252E-01  0.3845369E-09  0.0000000E+00 -0.9150302E-05
  0.2525252E-01  0.0000000E+00  0.2525252E-01  0.6390464E-09  0.0000000E+00 -0.9150092E-05
  0.3535353E-01  0.0000000E+00  0.2525252E-01  0.8907769E-09  0.0000000E+00 -0.9149779E-05
  0.4545455E-01  0.0000000E+00  0.2525252E-01  0.1138629E-08  0.0000000E+00 -0.9149363E-05
  0.5555556E-01  0.0000000E+00  0.2525252E-01  0.1381514E-08  0.0000000E+00 -0.9148846E-05
  0.6565657E-01  0.0000000E+00  0.2525252E-01  0.1618356E-08  0.0000000E+00 -0.9148231E-05
  0.7575758E-01  0.0000000E+00  0.2525252E-01  0.1848097E-08  0.0000000E+00 -0.9147520E-05
  0.8585858E-01  0.0000000E+00  0.2525252E-01  0.2069700E-08  0.0000000E+00 -0.9146717E-05
  0.9595960E-01  0.0000000E+00  0.2525252E-01  0.2282152E-08  0.0000000E+00 -0.9145824E-05
  0.1060606E+00  0.0000000E+00  0.2525252E-01  0.2484469E-08  0.0000000E+00 -0.9144847E-05
  0.1161616E+00  0.0000000E+00  0.2525252E-01  0.2675701E-08  0.0000000E+00 -0.9143789E-05
  0.1262626E+00  0.0000000E+00  0.2525252E-01  0.2854932E-08  0.0000000E+00 -0.9142655E-05
  0.1363636E+00  0.0000000E+00  0.2525252E-01  0.3021292E-08  0.0000000E+00 -0.9141449E-05
  0.1464646E+00  0.0000000E+00  0.2525252E-01  0.3173951E-08  0.0000000E+00 -0.9140179E-05
  0.1565657E+00  0.0000000E+00  0.2525252E-01  0.3312136E-08  0.0000000E+00 -0.9138849E-05
  0.1666667E+00  0.0000000E+00  0.2525252E-01  0.3435123E-08  0.0000000E+00 -0.9137465E-05
  0.1767677E+00  0.0000000E+00  0.2525252E-01  0.3542253E-08  0.0000000E+00 -0.9136034E-05
  0.1868687E+00  0.0000000E+00  0.2525252E-01  0.3632928E-08  0.0000000E+00 -0.9134562E-05
  0.1969697E+00  0.0000000E+00  0.2525252E-01  0.3706622E-08  0.0000000E+00 -0.9133056E-05
  0.2070707E+00  0.0000000E+00  0.2525252E-01  0.3762880E-08  0.0000000E+00 -0.9131524E-05
  0.2171717E+00  0.0000000E+00  0.2525252E-01  0.3801326E-08  0.0000000E+00 -0.9129972E-05
  0.2272727E+00  0.0000000E+00  0.2525252E-01  0.3821665E-08  0.0000000E+00 -0.9128408E-05
  0.2373737E+00  0.0000000E+00  0.2525252E-01  0.3823686E-08  0.0000000E+00 -0.9126840E-05
  0.2474747E+00  0.0000000E+00  0.2525252E-01  0.3807267E-08  0.0000000E+00 -0.9125274E-05
  0.2575758E+00  0.0000000E+00  0.2525252E-01  0.3772374E-08  0.0000000E+00 -0.9123719E-05
  0.2676768E+00  0.0000000E+00  0.2525252E-01  0.3719067E-08  0.0000000E+00 -0.9122182E-05
  0.2777778E+00  0.0000000E+00  0.2525252E-01  0.3647498E-08  0.0000000E+00 -0.9120671E-05
  0.2878788E+00  0.0000000E+00  0.2525252E-01  0.3557912E-08  0.0000000E+00 -0.9119192E-05
  0.2979798E+00  0.0000000E+00  0.2525252E-01  0.3450648E-08  0.0000000E+00 -0.9117754E-05
  0.3080808E+00  0.0000000E+00  0.2525252E-01  0.3326138E-08  0.0000000E+00 -0.9116364E-05
  0.3181818E+00  0.0000000E+00  0.2525252E-01  0.3184902E-08  0.0000000E+00 -0.9115028E-05
  0.3282828E+00  0.0000000E+00  0.2525252E-01  0.3027552E-08  0.0000000E+00 -0.9113753E-05
  0.3383838E+00  0.0000000E+00  0.2525252E-01  0.2854783E-08  0.0000000E+00 -0.9112546E-05
  0.3484848E+00  0.0000000E+00  0.2525252E-01  0.2667371E-08  0.0000000E+00 -0.9111413E-05
  0.3585859E+00  0.0000000E+00  0.2525252E-01  0.2466172E-08  0.0000000E+00 -0.9110360E-05
  0.3686869E+00  0.0000000E+00  0.2525252E-01  0.2252110E-08  0.0000000E+00 -0.9109391E-05
  0.3787879E+00  0.0000000E+00  0.2525252E-01  0.2026177E-08  0.0000000E+00 -0.9108513E-05
  0.3888889E+00  0.0000000E+00  0.2525252E-01  0.1789427E-08  0.0000000E+00 -0.9107731E-05
  0.3989899E+00  0.0000000E+00  0.2525252E-01  0.1542965E-08  0.0000000E+00 -0.9107047E-05
  0.4090909E+00  0.0000000E+00  0.2525252E-01  0.1287944E-08  0.0000000E+00 -0.9106466E-05
  0.4191919E+00  0.0000000E+00  0.2525252E-01  0.1025557E-08  0.0000000E+00 -0.9105991E-05
  0.4292929E+00  0.0000000E+00  0.2525252E-01  0.7570285E-09  0.0000000E+00 -0.9105625E-05
  0.4393939E+00  0.0000000E+00  0.2525252E-01  0.4836099E-09  0.0000000E+00 -0.9105371E-05
  0.4494950E+00  0.0000000E+00  0.2525252E-01  0.2065686E-09  0.0000000E+00 -0.9105229E-05
  0.4595959E+00  0.0000000E+00  0.2525252E-01 -0.7281744E-10  0.0000000E+00 -0.9105201E-05
  0.4696970E+00  0.0000000E+00  0.2525252E-01 -0.3532677E-09  0.0000000E+00 -0.9105288E-05
  0.4797980E+00  0.0000000E+00  0.2525252E-01 -0.6335062E-09  0.0000000E+00 -0.9105491E-05
  0.4898990E+00  0.0000000E+00  0.2525252E-01 -0.9122685E-09  0.0000000E+00 -0.9105807E-05
  0.5000000E+00  0.0000000E+00  0.2525252E-01 -0.1188309E-08  0.0000000E+00 -0.9106238E-05
  0.5101010E+00  0.0000000E+00  0.2525252E-01 -0.1460407E-08  0.0000000E+00 -0.9106781E-05
  0.5202020E+00  0.0000000E+00  0.2525252E-01 -0.1727374E-08  0.0000000E+00 -0.9107434E-05
  0.5303030E+00  0.0000000E+00  0.2525252E-01 -0.1988058E-08  0.0000000E+00 -0.9108196E-05
  0.5404040E+00  0.0000000E+00  0.2525252E-01 -0.2241351E-08  0.0000000E+00 -0.9109063E-05
  0.5505050E+00  0.0000000E+00  0.2525252E-01 -0.2486192E-08  0.0000000E+00 -0.9110032E-05
  0.5606061E+00  0.0000000E+00  0.2525252E-01 -0.2721575E-08  0.0000000E+00 -0.9111099E-05
  0.5707071E+00  0.0000000E+00  0.2525252E-01 -0.2946550E-08  0.0000000E+00 -0.9112260E-05
  0.5808081E+00  0.0000000E+00  0.2525252E-01 -0.3160228E-08  0.0000000E+00 -0.9113512E-05
  0.5909091E+00  0.0000000E+00  0.2525252E-01 -0.3361787E-08  0.0000000E+00 -0.9114848E-05
  0.6010101E+00  0.0000000E+00  0.2525252E-01 -0.3550471E-08  0.0000000E+00 -0.9116264E-05
  0.6111111E+00  0.0000000E+00  0.2525252E-01 -0.3725595E-08  0.0000000E+00 -0.9117755E-05
  0.6212121E+00  0.0000000E+00  0.2525252E-01 -0.3886545E-08  0.0000000E+00 -0.9119315E-05
  0.6313131E+00  0.0000000E+00  0.2525252E-01 -0.4032783E-08  0.0000000E+00 -0.9120937E-05
  0.6414142E+00  0.0000000E+00  0.2525252E-01 -0.4163843E-08  0.0000000E+00 -0.9122616E-05
  0.6515151E+00  0.0000000E+00  0.2525252E-01 -0.4279338E-08  0.0000000E+00 -0.9124345E-05
  0.6616161E+00  0.0000000E+00  0.2525252E-01 -0.4378951E-08  0.0000000E+00 -0.9126118E-05
  0.6717172E+00  0.0000000E+00  0.2525252E-01 -0.4462445E-08  0.0000000E+00 -0.9127929E-05
  0.6818182E+00  0.0000000E+00  0.2525252E-01 -0.4529651E-08  0.0000000E+00 -0.9129770E-05
  0.6919192E+00  0.0000000E+00  0.2525252E-01 -0.4580476E-08  0.0000000E+00 -0.9131636E-05
  0.7020202E+00  0.0000000E+00  0.2525252E-01 -0.4614896E-08  0.0000000E+00 -0.9133518E-05
  0.7121212E+00  0.0000000E+00  0.2525252E-01 -0.4632954E-08  0.0000000E+00 -0.9135412E-05
  0.7222222E+00  0.0000000E+00  0.2525252E-01 -0.4634759E-08  0.0000000E+00 -0.9137309E-05
  0.7323232E+00  0.0000000E+00  0.2525252E-01 -0.4620481E-08  0.0000000E+00 -0.9139203E-05
  0.7424242E+00  0.0000000E+00  0.2525252E-01 -0.4590351E-08  0.0000000E+00 -0.9141088E-05
  0.7525253E+00  0.0000000E+00  0.2525252E-01 -0.4544652E-08  0.0000000E+00 -0.9142958E-05
  0.7626263E+00  0.0000000E+00  0.2525252E-01 -0.4483720E-08  0.0000000E+00 -0.9144805E-05
  0.7727273E+00  0.0000000E+00  0.2525252E-01 -0.4407941E-08  0.0000000E+00 -0.9146625E-05
  0.7828283E+00  0.0000000E+00  0.2525252E-01 -0.4317741E-08  0.0000000E+00 -0.9148410E-05
  0.7929293E+00  0.0000000E+00  0.2525252E-01 -0.4213589E-08  0.0000000E+00 -0.9150155E-05
  0.8030303E+00  0.0000000E+00  0.2525252E-01 -0.4095988E-08  0.0000000E+00 -0.9151855E-05
  0.8131313E+00  0.0000000E+00  0.2525252E-01 -0.3965474E-08  0.0000000E+00 -0.9153504E-05
  0.8232324E+00  0.0000000E+00  0.2525252E-01 -0.3822610E-08  0.0000000E+00 -0.9155097E-05
  0.8333333E+00  0.0000000E+00  0.2525252E-01 -0.3667986E-08  0.0000000E+00 -0.9156629E-05
  0.8434343E+00  0.0000000E+00  0.2525252E-01 -0.3502211E-08  0.0000000E+00 -0.9158095E-05
  0.8535354E+00  0.0000000E+00  0.2525252E-01 -0.3325914E-08  0.0000000E+00 -0.9159491E-05
  0.8636364E+00  0.0000000E+00  0.2525252E-01 -0.3139736E-08  0.0000000E+00 -0.9160813E-05
  0.8737374E+00  0.0000000E+00  0.2525252E-01 -0.2944335E-08  0.0000000E+00 -0.9162057E-05
  0.8838384E+00  0.0000000E+00  0.2525252E-01 -0.2740373E-08  0.0000000E+00 -0.9163220E-05
  0.8939394E+00  0.0000000E+00  0.2525252E-01 -0.2528525E-08  0.0000000E+00 -0.9164297E-05
  0.9040404E+00  0.0000000E+00  0.2525252E-01 -0.2309469E-08  0.0000000E+00 -0.9165286E-05
  0.9141414E+00  0.0000000E+00  0.2525252E-01 -0.2083886E-08  0.0000000E+00 -0.9166184E-05
  0.9242424E+00  0.0000000E+00  0.2525252E-01 -0.1852463E-08  0.0000000E+00 -0.9166989E-05
  0.9343435E+00  0.0000000E+00  0.2525252E-01 -0.1615886E-08  0.0000000E+00 -0.9167697E-05
  0.9444444E+00  0.0000000E+00  0.2525252E-01 -0.1374842E-08  0.0000000E+00 -0.9168309E-05
  0.9545454E+00  0.0000000E+00  0.2525252E-01 -0.1130021E-08  0.0000000E+00 -0.9168821E-05
  0.9646465E+00  0.0000000E+00  0.2525252E-01 -0.8821099E-09  0.0000000E+00 -0.9169232E-05
  0.9747475E+00  0.0000000E+00  0.2525252E-01 -0.6317957E-09  0.0000000E+00 -0.9169541E-05
  0.9848485E+00  0.0000000E+00  0.2525252E-01 -0.3797657E-09  0.0000000E+00 -0.9169748E-05
  0.9974747E+00  0.0000000E+00  0.2525252E-01 -0.1267065E-09  0.0000000E+00 -0.9169852E-05
  0.5050505E-02  0.0000000E+00  0.3535353E-01  0.1814047E-09  0.0000000E+00 -0.9115647E-05
  0.1515152E-01  0.0000000E+00  0.3535353E-01  0.5434413E-09  0.0000000E+00 -0.9115538E-05
  0.2525252E-01  0.0000000E+00  0.3535353E-01  0.9031253E-09  0.0000000E+00 -0.9115322E-05
  0.3535353E-01  0.0000000E+00  0.3535353E-01  0.1258887E-08  0.0000000E+00 -0.9114998E-05
  0.4545455E-01  0.0000000E+00  0.3535353E-01  0.1609176E-08  0.0000000E+00 -0.9114569E-05
  0.5555556E-01  0.0000000E+00  0.3535353E-01  0.1952452E-08  0.0000000E+00 -0.9114036E-05
  0.6565657E-01  0.0000000E+00  0.3535353E-01  0.2287199E-08  0.0000000E+00 -0.9113401E-05
  0.7575758E-01  0.0000000E+00  0.3535353E-01  0.2611921E-08  0.0000000E+00 -0.9112667E-05
  0.8585858E-01  0.0000000E+00  0.3535353E-01  0.2925153E-08  0.0000000E+00 -0.9111838E-05
  0.9595960E-01  0.0000000E+00  0.3535353E-01  0.3225465E-08  0.0000000E+00 -0.9110917E-05
  0.1060606E+00  0.0000000E+00  0.3535353E-01  0.3511467E-08  0.0000000E+00 -0.9109908E-05
  0.1161616E+00  0.0000000E+00  0.3535353E-01  0.3781813E-08  0.0000000E+00 -0.9108816E-05
  0.1262626E+00  0.0000000E+00  0.3535353E-01  0.4035212E-08  0.0000000E+00 -0.9107645E-05
  0.1363636E+00  0.0000000E+00  0.3535353E-01  0.4270429E-08  0.0000000E+00 -0.9106400E-05
  0.1464646E+00  0.0000000E+00  0.3535353E-01  0.4486293E-08  0.0000000E+00 -0.9105089E-05
  0.1565657E+00  0.0000000E+00  0.3535353E-01  0.4681706E-08  0.0000000E+00 -0.9103715E-05
  0.1666667E+00  0.0000000E+00  0.3535353E-01  0.4855646E-08  0.0000000E+00 -0.9102286E-05
  0.1767677E+00  0.0000000E+00  0.3535353E-01  0.5007178E-08  0.0000000E+00 -0.9100808E-05
  0.1868687E+00  0.0000000E+00  0.3535353E-01  0.5135455E-08  0.0000000E+00 -0.9099288E-05
  0.1969697E+00  0.0000000E+00  0.3535353E-01  0.5239730E-08  0.0000000E+00 -0.9097734E-05
  0.2070707E+00  0.0000000E+00  0.3535353E-01  0.5319358E-08  0.0000000E+00 -0.9096151E-05
  0.2171717E+00  0.0000000E+00  0.3535353E-01  0.5373805E-08  0.0000000E+00 -0.9094548E-05
  0.2272727E+00  0.0000000E+00  0.3535353E-01  0.5402651E-08  0.0000000E+00 -0.9092933E-05
  0.2373737E+00  0.0000000E+00  0.3535353E-01  0.5405596E-08  0.0000000E+00 -0.9091313E-05
  0.2474747E+00  0.0000000E+00  0.3535353E-01  0.5382466E-08  0.0000000E+00 -0.9089695E-05
  0.2575758E+00  0.0000000E+00  0.3535353E-01  0.5333211E-08  0.0000000E+00 -0.9088089E-05
  0.2676768E+00  0.0000000E+00  0.3535353E-01  0.5257914E-08  0.0000000E+00 -0.9086501E-05
  0.2777778E+00  0.0000000E+00  0.3535353E-01  0.5156788E-08  0.0000000E+00 -0.9084939E-05
  0.2878788E+00  0.0000000E+00  0.3535353E-01  0.5030180E-08  0.0000000E+00 -0.9083412E-05
  0.2979798E+00  0.0000000E+00  0.3535353E-01  0.4878569E-08  0.0000000E+00 -0.9081926E-05