title = "dataset feddes"
variables = "time", "water mass", "water filled volume", "gas filled volume" 
zone t = "system mass -  variably saturated flow", f=point
  0.0000E+00  2.2105E-01  2.2105E-01  2.0695E-01
  1.0000E-10  2.2105E-01  2.2105E-01  2.0695E-01
  6.0000E-10  2.2105E-01  2.2105E-01  2.0695E-01
  3.1000E-09  2.2105E-01  2.2105E-01  2.0695E-01
  1.5600E-08  2.2105E-01  2.2105E-01  2.0695E-01
  7.8100E-08  2.2105E-01  2.2105E-01  2.0695E-01
  3.9060E-07  2.2105E-01  2.2105E-01  2.0695E-01
  1.9531E-06  2.2105E-01  2.2105E-01  2.0695E-01
  9.7656E-06  2.2105E-01  2.2105E-01  2.0695E-01
  4.8828E-05  2.2105E-01  2.2105E-01  2.0695E-01
  2.4414E-04  2.2105E-01  2.2105E-01  2.0695E-01
  1.2207E-03  2.2105E-01  2.2105E-01  2.0695E-01
  6.1035E-03  2.2105E-01  2.2105E-01  2.0695E-01
  3.0518E-02  2.2105E-01  2.2105E-01  2.0695E-01
  1.5259E-01  2.2105E-01  2.2105E-01  2.0695E-01
  7.6294E-01  2.2105E-01  2.2105E-01  2.0695E-01
  1.0000E+00  2.2105E-01  2.2105E-01  2.0695E-01
  2.0000E+00  2.1748E-01  2.1748E-01  2.1052E-01
  3.0000E+00  2.1575E-01  2.1575E-01  2.1225E-01
  4.0000E+00  2.1447E-01  2.1447E-01  2.1353E-01
  5.0000E+00  2.1341E-01  2.1341E-01  2.1459E-01
  6.0000E+00  2.1249E-01  2.1249E-01  2.1551E-01
  7.0000E+00  2.1167E-01  2.1167E-01  2.1633E-01
  8.0000E+00  2.1092E-01  2.1092E-01  2.1708E-01
  9.0000E+00  2.1023E-01  2.1023E-01  2.1777E-01
  1.0000E+01  2.0958E-01  2.0958E-01  2.1842E-01
  1.1000E+01  2.0898E-01  2.0898E-01  2.1902E-01
  1.2000E+01  2.0840E-01  2.0840E-01  2.1960E-01
  1.3000E+01  2.0786E-01  2.0786E-01  2.2014E-01
  1.4000E+01  2.0734E-01  2.0734E-01  2.2066E-01
  1.5000E+01  2.0684E-01  2.0684E-01  2.2116E-01
  1.6000E+01  2.0636E-01  2.0636E-01  2.2164E-01
  1.7000E+01  2.0589E-01  2.0589E-01  2.2211E-01
  1.8000E+01  2.0545E-01  2.0545E-01  2.2255E-01
  1.9000E+01  2.0502E-01  2.0502E-01  2.2298E-01
  2.0000E+01  2.0460E-01  2.0460E-01  2.2340E-01
  2.1000E+01  2.0419E-01  2.0419E-01  2.2381E-01
  2.2000E+01  2.0378E-01  2.0378E-01  2.2422E-01
  2.3000E+01  2.0339E-01  2.0339E-01  2.2461E-01
  2.4000E+01  2.0300E-01  2.0300E-01  2.2500E-01
  2.5000E+01  2.0261E-01  2.0261E-01  2.2539E-01
  2.6000E+01  2.0223E-01  2.0223E-01  2.2577E-01
  2.7000E+01  2.0184E-01  2.0184E-01  2.2616E-01
  2.8000E+01  2.0143E-01  2.0143E-01  2.2657E-01
  2.9000E+01  2.0101E-01  2.0101E-01  2.2699E-01
  3.0000E+01  2.0057E-01  2.0057E-01  2.2743E-01
  3.1000E+01  2.0011E-01  2.0011E-01  2.2789E-01
  3.2000E+01  1.9966E-01  1.9966E-01  2.2834E-01
  3.3000E+01  1.9919E-01  1.9919E-01  2.2881E-01
  3.4000E+01  1.9874E-01  1.9874E-01  2.2926E-01
  3.5000E+01  1.9823E-01  1.9823E-01  2.2977E-01
  3.6000E+01  1.9767E-01  1.9767E-01  2.3033E-01
  3.7000E+01  1.9704E-01  1.9704E-01  2.3096E-01
  3.8000E+01  1.9641E-01  1.9641E-01  2.3159E-01
  3.9000E+01  1.9578E-01  1.9578E-01  2.3222E-01
  4.0000E+01  1.9513E-01  1.9513E-01  2.3287E-01
  4.1000E+01  1.9440E-01  1.9440E-01  2.3360E-01
  4.2000E+01  1.9358E-01  1.9358E-01  2.3442E-01
  4.3000E+01  1.9273E-01  1.9273E-01  2.3527E-01
  4.4000E+01  1.9186E-01  1.9186E-01  2.3614E-01
  4.5000E+01  1.9087E-01  1.9087E-01  2.3713E-01
  4.6000E+01  1.8983E-01  1.8983E-01  2.3817E-01
  4.7000E+01  1.8876E-01  1.8876E-01  2.3924E-01
  4.8000E+01  1.8754E-01  1.8754E-01  2.4046E-01
  4.9000E+01  1.8626E-01  1.8626E-01  2.4174E-01
  5.0000E+01  1.8490E-01  1.8490E-01  2.4310E-01
  5.1000E+01  1.8357E-01  1.8357E-01  2.4443E-01
  5.2000E+01  1.8213E-01  1.8213E-01  2.4587E-01
  5.3000E+01  1.8053E-01  1.8053E-01  2.4747E-01
  5.4000E+01  1.7890E-01  1.7890E-01  2.4910E-01
  5.5000E+01  1.7722E-01  1.7722E-01  2.5078E-01
  5.6000E+01  1.7555E-01  1.7555E-01  2.5245E-01
  5.7000E+01  1.7376E-01  1.7376E-01  2.5424E-01
  5.8000E+01  1.7196E-01  1.7196E-01  2.5604E-01
  5.9000E+01  1.7006E-01  1.7006E-01  2.5794E-01
  6.0000E+01  1.6813E-01  1.6813E-01  2.5987E-01
