title = "dataset feddes"
variables = "x", "y", "z", "vx", "vy", "vz"
zone t = "velocities, solution time =  6.000E+01 days        " i =   99, j =   99, k =    1,  f=point
 -0.5050505E-02  0.0000000E+00 -0.5050505E-02  0.5956348E-07  0.0000000E+00 -0.2743549E-04
 -0.5050505E-02  0.0000000E+00 -0.5050505E-02  0.1787721E-06  0.0000000E+00 -0.2719637E-04
 -0.5050505E-02  0.0000000E+00 -0.5050505E-02  0.2982286E-06  0.0000000E+00 -0.2671781E-04
 -0.5050505E-02  0.0000000E+00 -0.5050505E-02  0.4181014E-06  0.0000000E+00 -0.2599920E-04
 -0.5050505E-02  0.0000000E+00 -0.5050505E-02  0.5385600E-06  0.0000000E+00 -0.2503961E-04
 -0.5050505E-02  0.0000000E+00 -0.5050505E-02  0.6597745E-06  0.0000000E+00 -0.2383778E-04
 -0.5050504E-02  0.0000000E+00 -0.5050505E-02  0.7819151E-06  0.0000000E+00 -0.2239215E-04
 -0.5050501E-02  0.0000000E+00 -0.5050505E-02  0.9051523E-06  0.0000000E+00 -0.2070081E-04
 -0.5050495E-02  0.0000000E+00 -0.5050505E-02  0.1029657E-05  0.0000000E+00 -0.1876157E-04
 -0.5050482E-02  0.0000000E+00 -0.5050505E-02  0.1155601E-05  0.0000000E+00 -0.1657188E-04
 -0.5050449E-02  0.0000000E+00 -0.5050505E-02  0.1283159E-05  0.0000000E+00 -0.1412892E-04
 -0.5050376E-02  0.0000000E+00 -0.5050505E-02  0.1412507E-05  0.0000000E+00 -0.1142949E-04
 -0.5050299E-02  0.0000000E+00 -0.5050505E-02  0.1543830E-05  0.0000000E+00 -0.8470107E-05
 -0.5050178E-02  0.0000000E+00 -0.5050505E-02  0.1677319E-05  0.0000000E+00 -0.5246909E-05
 -0.5050018E-02  0.0000000E+00 -0.5050505E-02  0.1813178E-05  0.0000000E+00 -0.1755606E-05
 -0.5049710E-02  0.0000000E+00 -0.5050505E-02  0.1951321E-05  0.0000000E+00  0.2014677E-05
 -0.5049253E-02  0.0000000E+00 -0.5050505E-02  0.2092179E-05  0.0000000E+00  0.6071021E-05
 -0.5048636E-02  0.0000000E+00 -0.5050505E-02  0.2235989E-05  0.0000000E+00  0.1041510E-04
 -0.5047442E-02  0.0000000E+00 -0.5050505E-02  0.2383006E-05  0.0000000E+00  0.1505353E-04
 -0.5045727E-02  0.0000000E+00 -0.5050505E-02  0.2533506E-05  0.0000000E+00  0.1999355E-04
 -0.5043261E-02  0.0000000E+00 -0.5050505E-02  0.2687797E-05  0.0000000E+00  0.2524298E-04
 -0.5038714E-02  0.0000000E+00 -0.5050505E-02  0.2846221E-05  0.0000000E+00  0.3081039E-04
 -0.5032318E-02  0.0000000E+00 -0.5050505E-02  0.3009173E-05  0.0000000E+00  0.3670513E-04
 -0.5022454E-02  0.0000000E+00 -0.5050505E-02  0.3177107E-05  0.0000000E+00  0.4293748E-04
 -0.5012589E-02  0.0000000E+00 -0.5050505E-02  0.3350577E-05  0.0000000E+00  0.4951878E-04
 -0.5002725E-02  0.0000000E+00 -0.5050505E-02  0.3530299E-05  0.0000000E+00  0.5646177E-04
 -0.4992860E-02  0.0000000E+00 -0.5050505E-02  0.3717257E-05  0.0000000E+00  0.6378096E-04
 -0.4976523E-02  0.0000000E+00 -0.5050505E-02  0.3912869E-05  0.0000000E+00  0.7149339E-04
 -0.4956794E-02  0.0000000E+00 -0.5050505E-02  0.4119236E-05  0.0000000E+00  0.7961980E-04
 -0.4937066E-02  0.0000000E+00 -0.5050505E-02  0.4339475E-05  0.0000000E+00  0.8818633E-04
 -0.4906239E-02  0.0000000E+00 -0.5050505E-02  0.4578169E-05  0.0000000E+00  0.9722710E-04
 -0.4866782E-02  0.0000000E+00 -0.5050505E-02  0.4841946E-05  0.0000000E+00  0.1067878E-03
 -0.4827325E-02  0.0000000E+00 -0.5050505E-02  0.5140289E-05  0.0000000E+00  0.1169309E-03
 -0.4769372E-02  0.0000000E+00 -0.5050505E-02  0.5486828E-05  0.0000000E+00  0.1277427E-03
 -0.4690458E-02  0.0000000E+00 -0.5050505E-02  0.5901683E-05  0.0000000E+00  0.1393444E-03
 -0.4611543E-02  0.0000000E+00 -0.5050505E-02  0.6416058E-05  0.0000000E+00  0.1519105E-03
 -0.4503035E-02  0.0000000E+00 -0.5050505E-02  0.7081445E-05  0.0000000E+00  0.1657014E-03
 -0.4345206E-02  0.0000000E+00 -0.5050505E-02  0.7988036E-05  0.0000000E+00  0.1811245E-03
 -0.4187378E-02  0.0000000E+00 -0.5050505E-02  0.9299985E-05  0.0000000E+00  0.1988518E-03
 -0.3985156E-02  0.0000000E+00 -0.5050505E-02  0.1131212E-04  0.0000000E+00  0.2200341E-03
 -0.3669499E-02  0.0000000E+00 -0.5050505E-02  0.1447522E-04  0.0000000E+00  0.2466046E-03
 -0.3353842E-02  0.0000000E+00 -0.5050505E-02  0.4254046E-05  0.0000000E+00  0.2659425E-03
 -0.2978990E-02  0.0000000E+00 -0.5050505E-02  0.5853099E-05  0.0000000E+00  0.2764138E-03
 -0.2347676E-02  0.0000000E+00 -0.5050505E-02  0.7399288E-05  0.0000000E+00  0.2901612E-03
 -0.1716362E-02  0.0000000E+00 -0.5050505E-02  0.9093906E-05  0.0000000E+00  0.3072990E-03
 -0.1025842E-02  0.0000000E+00 -0.5050505E-02  0.1240367E-04  0.0000000E+00  0.3296850E-03
  0.2367855E-03  0.0000000E+00 -0.5050505E-02 -0.7074417E-05  0.0000000E+00  0.3352299E-03
  0.1499413E-02  0.0000000E+00 -0.5050505E-02 -0.4258536E-05  0.0000000E+00  0.3234062E-03
  0.2762042E-02  0.0000000E+00 -0.5050505E-02 -0.2629416E-05  0.0000000E+00  0.3162265E-03
 -0.5050505E-02  0.0000000E+00 -0.5050505E-02  0.4576570E-06  0.0000000E+00  0.3139637E-03
 -0.5050505E-02  0.0000000E+00 -0.5050505E-02  0.3669553E-05  0.0000000E+00  0.3182644E-03
 -0.5050505E-02  0.0000000E+00 -0.5050505E-02 -0.1343494E-04  0.0000000E+00  0.3081227E-03
 -0.5050505E-02  0.0000000E+00 -0.5050505E-02 -0.1238881E-05  0.0000000E+00  0.2928699E-03
 -0.5050505E-02  0.0000000E+00 -0.5050505E-02 -0.1625608E-04  0.0000000E+00  0.2747585E-03
 -0.5050505E-02  0.0000000E+00 -0.5050505E-02 -0.1227916E-04  0.0000000E+00  0.2452652E-03
 -0.5050505E-02  0.0000000E+00 -0.5050505E-02 -0.1041976E-04  0.0000000E+00  0.2218733E-03
 -0.5050504E-02  0.0000000E+00 -0.5050505E-02 -0.9222636E-05  0.0000000E+00  0.2016815E-03
 -0.5050501E-02  0.0000000E+00 -0.5050505E-02 -0.8354049E-05  0.0000000E+00  0.1836530E-03
 -0.5050495E-02  0.0000000E+00 -0.5050505E-02 -0.7683772E-05  0.0000000E+00  0.1672360E-03
 -0.5050482E-02  0.0000000E+00 -0.5050505E-02 -0.7139154E-05  0.0000000E+00  0.1520906E-03
 -0.5050449E-02  0.0000000E+00 -0.5050505E-02 -0.6676121E-05  0.0000000E+00  0.1379991E-03
 -0.5050376E-02  0.0000000E+00 -0.5050505E-02 -0.6268005E-05  0.0000000E+00  0.1248174E-03
 -0.5050299E-02  0.0000000E+00 -0.5050505E-02 -0.5898831E-05  0.0000000E+00  0.1124459E-03
 -0.5050178E-02  0.0000000E+00 -0.5050505E-02 -0.5559029E-05  0.0000000E+00  0.1008119E-03
 -0.5050018E-02  0.0000000E+00 -0.5050505E-02 -0.5242797E-05  0.0000000E+00  0.8985863E-04
 -0.5049710E-02  0.0000000E+00 -0.5050505E-02 -0.4946514E-05  0.0000000E+00  0.7953950E-04
 -0.5049253E-02  0.0000000E+00 -0.5050505E-02 -0.4667802E-05  0.0000000E+00  0.6981426E-04
 -0.5048636E-02  0.0000000E+00 -0.5050505E-02 -0.4404987E-05  0.0000000E+00  0.6064707E-04
 -0.5047442E-02  0.0000000E+00 -0.5050505E-02 -0.4156780E-05  0.0000000E+00  0.5200536E-04
 -0.5045727E-02  0.0000000E+00 -0.5050505E-02 -0.3922105E-05  0.0000000E+00  0.4385916E-04
 -0.5043261E-02  0.0000000E+00 -0.5050505E-02 -0.3700003E-05  0.0000000E+00  0.3618076E-04
 -0.5038714E-02  0.0000000E+00 -0.5050505E-02 -0.3489590E-05  0.0000000E+00  0.2894449E-04
 -0.5032318E-02  0.0000000E+00 -0.5050505E-02 -0.3290026E-05  0.0000000E+00  0.2212655E-04
 -0.5022454E-02  0.0000000E+00 -0.5050505E-02 -0.3100515E-05  0.0000000E+00  0.1570493E-04
 -0.5012589E-02  0.0000000E+00 -0.5050505E-02 -0.2920304E-05  0.0000000E+00  0.9659318E-05
 -0.5002725E-02  0.0000000E+00 -0.5050505E-02 -0.2748677E-05  0.0000000E+00  0.3970956E-05
 -0.4992860E-02  0.0000000E+00 -0.5050505E-02 -0.2584961E-05  0.0000000E+00 -0.1372593E-05
 -0.4976523E-02  0.0000000E+00 -0.5050505E-02 -0.2428408E-05  0.0000000E+00 -0.6388616E-05
 -0.4956794E-02  0.0000000E+00 -0.5050505E-02 -0.2278598E-05  0.0000000E+00 -0.1109927E-04
 -0.4937066E-02  0.0000000E+00 -0.5050505E-02 -0.2134977E-05  0.0000000E+00 -0.1551881E-04
 -0.4906239E-02  0.0000000E+00 -0.5050505E-02 -0.1997034E-05  0.0000000E+00 -0.1965865E-04
 -0.4866782E-02  0.0000000E+00 -0.5050505E-02 -0.1864300E-05  0.0000000E+00 -0.2352926E-04
 -0.4827325E-02  0.0000000E+00 -0.5050505E-02 -0.1736347E-05  0.0000000E+00 -0.2714027E-04
 -0.4769372E-02  0.0000000E+00 -0.5050505E-02 -0.1612786E-05  0.0000000E+00 -0.3050051E-04
 -0.4690458E-02  0.0000000E+00 -0.5050505E-02 -0.1493270E-05  0.0000000E+00 -0.3361815E-04
 -0.4611543E-02  0.0000000E+00 -0.5050505E-02 -0.1377497E-05  0.0000000E+00 -0.3650072E-04
 -0.4503035E-02  0.0000000E+00 -0.5050505E-02 -0.1265219E-05  0.0000000E+00 -0.3915523E-04
 -0.4345206E-02  0.0000000E+00 -0.5050505E-02 -0.1156259E-05  0.0000000E+00 -0.4158830E-04
 -0.4187378E-02  0.0000000E+00 -0.5050505E-02 -0.1050542E-05  0.0000000E+00 -0.4380632E-04
 -0.3985156E-02  0.0000000E+00 -0.5050505E-02 -0.9481610E-06  0.0000000E+00 -0.4581572E-04
 -0.3669499E-02  0.0000000E+00 -0.5050505E-02 -0.8495104E-06  0.0000000E+00 -0.4762346E-04
 -0.3353842E-02  0.0000000E+00 -0.5050505E-02 -0.7555741E-06  0.0000000E+00 -0.4923789E-04
 -0.2978990E-02  0.0000000E+00 -0.5050505E-02 -0.6685987E-06  0.0000000E+00 -0.5067063E-04
 -0.2347676E-02  0.0000000E+00 -0.5050505E-02 -0.5937931E-06  0.0000000E+00 -0.5194084E-04
 -0.1716362E-02  0.0000000E+00 -0.5050505E-02 -0.5440209E-06  0.0000000E+00 -0.5308588E-04
 -0.1025842E-02  0.0000000E+00 -0.5050505E-02 -0.5540253E-06  0.0000000E+00 -0.5419106E-04
  0.2367855E-03  0.0000000E+00 -0.5050505E-02 -0.7276406E-06  0.0000000E+00 -0.5548123E-04
  0.1499413E-02  0.0000000E+00 -0.5050505E-02 -0.1408132E-05  0.0000000E+00 -0.5763155E-04
  0.5287294E-02  0.0000000E+00 -0.5050505E-02 -0.2054758E-04  0.0000000E+00 -0.4618848E-04
 -0.5050505E-02  0.0000000E+00 -0.5050505E-02  0.1786137E-06  0.0000000E+00 -0.2727746E-04
 -0.5050505E-02  0.0000000E+00 -0.5050505E-02  0.5360888E-06  0.0000000E+00 -0.2703795E-04
 -0.5050505E-02  0.0000000E+00 -0.5050505E-02  0.8943132E-06  0.0000000E+00 -0.2655864E-04
 -0.5050505E-02  0.0000000E+00 -0.5050505E-02  0.1253794E-05  0.0000000E+00 -0.2583891E-04
 -0.5050505E-02  0.0000000E+00 -0.5050505E-02  0.1615042E-05  0.0000000E+00 -0.2487781E-04
 -0.5050505E-02  0.0000000E+00 -0.5050505E-02  0.1978568E-05  0.0000000E+00 -0.2367409E-04
 -0.5050504E-02  0.0000000E+00 -0.5050505E-02  0.2344884E-05  0.0000000E+00 -0.2222615E-04
 -0.5050501E-02  0.0000000E+00 -0.5050505E-02  0.2714501E-05  0.0000000E+00 -0.2053210E-04
 -0.5050495E-02  0.0000000E+00 -0.5050505E-02  0.3087934E-05  0.0000000E+00 -0.1858971E-04
 -0.5050482E-02  0.0000000E+00 -0.5050505E-02  0.3465698E-05  0.0000000E+00 -0.1639644E-04
 -0.5050449E-02  0.0000000E+00 -0.5050505E-02  0.3848316E-05  0.0000000E+00 -0.1394941E-04
 -0.5050376E-02  0.0000000E+00 -0.5050505E-02  0.4236320E-05  0.0000000E+00 -0.1124545E-04
 -0.5050299E-02  0.0000000E+00 -0.5050505E-02  0.4630259E-05  0.0000000E+00 -0.8281031E-05
 -0.5050178E-02  0.0000000E+00 -0.5050505E-02  0.5030705E-05  0.0000000E+00 -0.5052293E-05
 -0.5050018E-02  0.0000000E+00 -0.5050505E-02  0.5438270E-05  0.0000000E+00 -0.1554630E-05
 -0.5049710E-02  0.0000000E+00 -0.5050505E-02  0.5852690E-05  0.0000000E+00  0.2222633E-05
 -0.5049253E-02  0.0000000E+00 -0.5050505E-02  0.6275264E-05  0.0000000E+00  0.6286293E-05
 -0.5048636E-02  0.0000000E+00 -0.5050505E-02  0.6706698E-05  0.0000000E+00  0.1063824E-04
 -0.5047442E-02  0.0000000E+00 -0.5050505E-02  0.7147754E-05  0.0000000E+00  0.1528510E-04
 -0.5045727E-02  0.0000000E+00 -0.5050505E-02  0.7599262E-05  0.0000000E+00  0.2023409E-04
 -0.5043261E-02  0.0000000E+00 -0.5050505E-02  0.8062135E-05  0.0000000E+00  0.2549304E-04
 -0.5038714E-02  0.0000000E+00 -0.5050505E-02  0.8537399E-05  0.0000000E+00  0.3107050E-04
 -0.5032318E-02  0.0000000E+00 -0.5050505E-02  0.9026215E-05  0.0000000E+00  0.3697577E-04
 -0.5022454E-02  0.0000000E+00 -0.5050505E-02  0.9529918E-05  0.0000000E+00  0.4321904E-04
 -0.5012589E-02  0.0000000E+00 -0.5050505E-02  0.1005011E-04  0.0000000E+00  0.4981149E-04
 -0.5002725E-02  0.0000000E+00 -0.5050505E-02  0.1058884E-04  0.0000000E+00  0.5676549E-04
 -0.4992860E-02  0.0000000E+00 -0.5050505E-02  0.1114889E-04  0.0000000E+00  0.6409496E-04
 -0.4976523E-02  0.0000000E+00 -0.5050505E-02  0.1173431E-04  0.0000000E+00  0.7181597E-04
 -0.4956794E-02  0.0000000E+00 -0.5050505E-02  0.1235106E-04  0.0000000E+00  0.7994770E-04
 -0.4937066E-02  0.0000000E+00 -0.5050505E-02  0.1300813E-04  0.0000000E+00  0.8851405E-04
 -0.4906239E-02  0.0000000E+00 -0.5050505E-02  0.1371875E-04  0.0000000E+00  0.9754600E-04
 -0.4866782E-02  0.0000000E+00 -0.5050505E-02  0.1450212E-04  0.0000000E+00  0.1070849E-03
 -0.4827325E-02  0.0000000E+00 -0.5050505E-02  0.1538559E-04  0.0000000E+00  0.1171869E-03
 -0.4769372E-02  0.0000000E+00 -0.5050505E-02  0.1640800E-04  0.0000000E+00  0.1279289E-03
 -0.4690458E-02  0.0000000E+00 -0.5050505E-02  0.1762566E-04  0.0000000E+00  0.1394166E-03
 -0.4611543E-02  0.0000000E+00 -0.5050505E-02  0.1912385E-04  0.0000000E+00  0.1517958E-03
 -0.4503035E-02  0.0000000E+00 -0.5050505E-02  0.2104036E-04  0.0000000E+00  0.1652727E-03
 -0.4345206E-02  0.0000000E+00 -0.5050505E-02  0.2361385E-04  0.0000000E+00  0.1801502E-03
 -0.4187378E-02  0.0000000E+00 -0.5050505E-02  0.2728646E-04  0.0000000E+00  0.1969100E-03
 -0.3985156E-02  0.0000000E+00 -0.5050505E-02  0.3292797E-04  0.0000000E+00  0.2164422E-03
 -0.3669499E-02  0.0000000E+00 -0.5050505E-02  0.4233968E-04  0.0000000E+00  0.2408577E-03
 -0.3353842E-02  0.0000000E+00 -0.5050505E-02  0.1546865E-04  0.0000000E+00  0.2618785E-03
 -0.2978990E-02  0.0000000E+00 -0.5050505E-02  0.1755855E-04  0.0000000E+00  0.2751706E-03
 -0.2347676E-02  0.0000000E+00 -0.5050505E-02  0.2202470E-04  0.0000000E+00  0.2887672E-03
 -0.1716362E-02  0.0000000E+00 -0.5050505E-02  0.2570615E-04  0.0000000E+00  0.3041211E-03
 -0.1025842E-02  0.0000000E+00 -0.5050505E-02  0.3089132E-04  0.0000000E+00  0.3183252E-03
  0.2367855E-03  0.0000000E+00 -0.5050505E-02 -0.1443707E-04  0.0000000E+00  0.3243669E-03
  0.1499413E-02  0.0000000E+00 -0.5050505E-02 -0.1162632E-04  0.0000000E+00  0.3207859E-03
  0.2762042E-02  0.0000000E+00 -0.5050505E-02 -0.9280903E-05  0.0000000E+00  0.3133311E-03
 -0.5050505E-02  0.0000000E+00 -0.5050505E-02  0.1304972E-05  0.0000000E+00  0.3095399E-03
 -0.5050505E-02  0.0000000E+00 -0.5050505E-02 -0.1167242E-04  0.0000000E+00  0.2902220E-03
 -0.5050505E-02  0.0000000E+00 -0.5050505E-02 -0.2635011E-04  0.0000000E+00  0.2709895E-03
 -0.5050505E-02  0.0000000E+00 -0.5050505E-02 -0.5915093E-05  0.0000000E+00  0.2679168E-03
 -0.5050505E-02  0.0000000E+00 -0.5050505E-02 -0.3877466E-04  0.0000000E+00  0.2578443E-03
 -0.5050505E-02  0.0000000E+00 -0.5050505E-02 -0.3482165E-04  0.0000000E+00  0.2407392E-03
 -0.5050505E-02  0.0000000E+00 -0.5050505E-02 -0.3064313E-04  0.0000000E+00  0.2200422E-03
 -0.5050504E-02  0.0000000E+00 -0.5050505E-02 -0.2737036E-04  0.0000000E+00  0.2007698E-03
 -0.5050501E-02  0.0000000E+00 -0.5050505E-02 -0.2488837E-04  0.0000000E+00  0.1832038E-03
 -0.5050495E-02  0.0000000E+00 -0.5050505E-02 -0.2294652E-04  0.0000000E+00  0.1670507E-03
 -0.5050482E-02  0.0000000E+00 -0.5050505E-02 -0.2135429E-04  0.0000000E+00  0.1520560E-03
 -0.5050449E-02  0.0000000E+00 -0.5050505E-02 -0.1998998E-04  0.0000000E+00  0.1380475E-03
 -0.5050376E-02  0.0000000E+00 -0.5050505E-02 -0.1878003E-04  0.0000000E+00  0.1249091E-03
 -0.5050299E-02  0.0000000E+00 -0.5050505E-02 -0.1768062E-04  0.0000000E+00  0.1125586E-03
 -0.5050178E-02  0.0000000E+00 -0.5050505E-02 -0.1666566E-04  0.0000000E+00  0.1009333E-03
 -0.5050018E-02  0.0000000E+00 -0.5050505E-02 -0.1571930E-04  0.0000000E+00  0.8998233E-04
 -0.5049710E-02  0.0000000E+00 -0.5050505E-02 -0.1483160E-04  0.0000000E+00  0.7966247E-04
 -0.5049253E-02  0.0000000E+00 -0.5050505E-02 -0.1399601E-04  0.0000000E+00  0.6993530E-04
 -0.5048636E-02  0.0000000E+00 -0.5050505E-02 -0.1320780E-04  0.0000000E+00  0.6076591E-04
 -0.5047442E-02  0.0000000E+00 -0.5050505E-02 -0.1246328E-04  0.0000000E+00  0.5212218E-04
 -0.5045727E-02  0.0000000E+00 -0.5050505E-02 -0.1175933E-04  0.0000000E+00  0.4397428E-04
 -0.5043261E-02  0.0000000E+00 -0.5050505E-02 -0.1109312E-04  0.0000000E+00  0.3629454E-04
 -0.5038714E-02  0.0000000E+00 -0.5050505E-02 -0.1046201E-04  0.0000000E+00  0.2905723E-04
 -0.5032318E-02  0.0000000E+00 -0.5050505E-02 -0.9863481E-05  0.0000000E+00  0.2223848E-04
 -0.5022454E-02  0.0000000E+00 -0.5050505E-02 -0.9295143E-05  0.0000000E+00  0.1581622E-04
 -0.5012589E-02  0.0000000E+00 -0.5050505E-02 -0.8754730E-05  0.0000000E+00  0.9770066E-05
 -0.5002725E-02  0.0000000E+00 -0.5050505E-02 -0.8240090E-05  0.0000000E+00  0.4081228E-05
 -0.4992860E-02  0.0000000E+00 -0.5050505E-02 -0.7749192E-05  0.0000000E+00 -0.1262879E-05
 -0.4976523E-02  0.0000000E+00 -0.5050505E-02 -0.7279791E-05  0.0000000E+00 -0.6279388E-05
 -0.4956794E-02  0.0000000E+00 -0.5050505E-02 -0.6830621E-05  0.0000000E+00 -0.1099036E-04
 -0.4937066E-02  0.0000000E+00 -0.5050505E-02 -0.6400017E-05  0.0000000E+00 -0.1541022E-04
 -0.4906239E-02  0.0000000E+00 -0.5050505E-02 -0.5986444E-05  0.0000000E+00 -0.1955037E-04
 -0.4866782E-02  0.0000000E+00 -0.5050505E-02 -0.5588490E-05  0.0000000E+00 -0.2342127E-04
 -0.4827325E-02  0.0000000E+00 -0.5050505E-02 -0.5204866E-05  0.0000000E+00 -0.2703253E-04
 -0.4769372E-02  0.0000000E+00 -0.5050505E-02 -0.4834403E-05  0.0000000E+00 -0.3039298E-04
 -0.4690458E-02  0.0000000E+00 -0.5050505E-02 -0.4476050E-05  0.0000000E+00 -0.3351071E-04
 -0.4611543E-02  0.0000000E+00 -0.5050505E-02 -0.4128893E-05  0.0000000E+00 -0.3639321E-04
 -0.4503035E-02  0.0000000E+00 -0.5050505E-02 -0.3792167E-05  0.0000000E+00 -0.3904741E-04
 -0.4345206E-02  0.0000000E+00 -0.5050505E-02 -0.3465303E-05  0.0000000E+00 -0.4147979E-04
 -0.4187378E-02  0.0000000E+00 -0.5050505E-02 -0.3148010E-05  0.0000000E+00 -0.4369649E-04
 -0.3985156E-02  0.0000000E+00 -0.5050505E-02 -0.2840431E-05  0.0000000E+00 -0.4570349E-04
 -0.3669499E-02  0.0000000E+00 -0.5050505E-02 -0.2543456E-05  0.0000000E+00 -0.4750686E-04
 -0.3353842E-02  0.0000000E+00 -0.5050505E-02 -0.2259355E-05  0.0000000E+00 -0.4911310E-04
 -0.2978990E-02  0.0000000E+00 -0.5050505E-02 -0.1993160E-05  0.0000000E+00 -0.5052960E-04
 -0.2347676E-02  0.0000000E+00 -0.5050505E-02 -0.1755790E-05  0.0000000E+00 -0.5176480E-04
 -0.1716362E-02  0.0000000E+00 -0.5050505E-02 -0.1571600E-05  0.0000000E+00 -0.5282638E-04
 -0.1025842E-02  0.0000000E+00 -0.5050505E-02 -0.1497636E-05  0.0000000E+00 -0.5370823E-04
  0.2367855E-03  0.0000000E+00 -0.5050505E-02 -0.1675357E-05  0.0000000E+00 -0.5432553E-04
  0.1499413E-02  0.0000000E+00 -0.5050505E-02 -0.2475249E-05  0.0000000E+00 -0.5421009E-04
  0.5287294E-02  0.0000000E+00 -0.5050505E-02 -0.4910710E-05  0.0000000E+00 -0.5109919E-04
 -0.5050505E-02  0.0000000E+00 -0.5050505E-02  0.2976057E-06  0.0000000E+00 -0.2696315E-04
 -0.5050505E-02  0.0000000E+00 -0.5050505E-02  0.8932357E-06  0.0000000E+00 -0.2672289E-04
 -0.5050505E-02  0.0000000E+00 -0.5050505E-02  0.1490129E-05  0.0000000E+00 -0.2624208E-04
 -0.5050505E-02  0.0000000E+00 -0.5050505E-02  0.2089138E-05  0.0000000E+00 -0.2552009E-04
 -0.5050505E-02  0.0000000E+00 -0.5050505E-02  0.2691117E-05  0.0000000E+00 -0.2455596E-04
 -0.5050505E-02  0.0000000E+00 -0.5050505E-02  0.3296923E-05  0.0000000E+00 -0.2334842E-04
 -0.5050504E-02  0.0000000E+00 -0.5050505E-02  0.3907413E-05  0.0000000E+00 -0.2189586E-04
 -0.5050501E-02  0.0000000E+00 -0.5050505E-02  0.4523442E-05  0.0000000E+00 -0.2019635E-04
 -0.5050495E-02  0.0000000E+00 -0.5050505E-02  0.5145871E-05  0.0000000E+00 -0.1824762E-04
 -0.5050482E-02  0.0000000E+00 -0.5050505E-02  0.5775560E-05  0.0000000E+00 -0.1604709E-04
 -0.5050449E-02  0.0000000E+00 -0.5050505E-02  0.6413380E-05  0.0000000E+00 -0.1359187E-04
 -0.5050376E-02  0.0000000E+00 -0.5050505E-02  0.7060215E-05  0.0000000E+00 -0.1087873E-04
 -0.5050299E-02  0.0000000E+00 -0.5050505E-02  0.7716977E-05  0.0000000E+00 -0.7904125E-05
 -0.5050178E-02  0.0000000E+00 -0.5050505E-02  0.8384617E-05  0.0000000E+00 -0.4664163E-05
 -0.5050018E-02  0.0000000E+00 -0.5050505E-02  0.9064148E-05  0.0000000E+00 -0.1153608E-05
 -0.5049710E-02  0.0000000E+00 -0.5050505E-02  0.9755103E-05  0.0000000E+00  0.2637821E-05
 -0.5049253E-02  0.0000000E+00 -0.5050505E-02  0.1045968E-04  0.0000000E+00  0.6716339E-05
 -0.5048636E-02  0.0000000E+00 -0.5050505E-02  0.1117904E-04  0.0000000E+00  0.1108428E-04
 -0.5047442E-02  0.0000000E+00 -0.5050505E-02  0.1191445E-04  0.0000000E+00  0.1574829E-04
 -0.5045727E-02  0.0000000E+00 -0.5050505E-02  0.1266727E-04  0.0000000E+00  0.2071559E-04
 -0.5043261E-02  0.0000000E+00 -0.5050505E-02  0.1343903E-04  0.0000000E+00  0.2599400E-04
 -0.5038714E-02  0.0000000E+00 -0.5050505E-02  0.1423141E-04  0.0000000E+00  0.3159203E-04
 -0.5032318E-02  0.0000000E+00 -0.5050505E-02  0.1504630E-04  0.0000000E+00  0.3751896E-04
 -0.5022454E-02  0.0000000E+00 -0.5050505E-02  0.1588584E-04  0.0000000E+00  0.4378482E-04
 -0.5012589E-02  0.0000000E+00 -0.5050505E-02  0.1675249E-04  0.0000000E+00  0.5040052E-04
 -0.5002725E-02  0.0000000E+00 -0.5050505E-02  0.1764937E-04  0.0000000E+00  0.5737784E-04
 -0.4992860E-02  0.0000000E+00 -0.5050505E-02  0.1858060E-04  0.0000000E+00  0.6472964E-04
 -0.4976523E-02  0.0000000E+00 -0.5050505E-02  0.1955215E-04  0.0000000E+00  0.7247014E-04
 -0.4956794E-02  0.0000000E+00 -0.5050505E-02  0.2057298E-04  0.0000000E+00  0.8061562E-04
 -0.4937066E-02  0.0000000E+00 -0.5050505E-02  0.2165672E-04  0.0000000E+00  0.8918567E-04
 -0.4906239E-02  0.0000000E+00 -0.5050505E-02  0.2282384E-04  0.0000000E+00  0.9820519E-04
 -0.4866782E-02  0.0000000E+00 -0.5050505E-02  0.2410427E-04  0.0000000E+00  0.1077073E-03
 -0.4827325E-02  0.0000000E+00 -0.5050505E-02  0.2554041E-04  0.0000000E+00  0.1177371E-03
 -0.4769372E-02  0.0000000E+00 -0.5050505E-02  0.2719126E-04  0.0000000E+00  0.1283554E-03
 -0.4690458E-02  0.0000000E+00 -0.5050505E-02  0.2913905E-04  0.0000000E+00  0.1396423E-03
 -0.4611543E-02  0.0000000E+00 -0.5050505E-02  0.3150213E-04  0.0000000E+00  0.1516990E-03
 -0.4503035E-02  0.0000000E+00 -0.5050505E-02  0.3446056E-04  0.0000000E+00  0.1646455E-03
 -0.4345206E-02  0.0000000E+00 -0.5050505E-02  0.3830752E-04  0.0000000E+00  0.1786066E-03
 -0.4187378E-02  0.0000000E+00 -0.5050505E-02  0.4355704E-04  0.0000000E+00  0.1936620E-03
 -0.3985156E-02  0.0000000E+00 -0.5050505E-02  0.5118886E-04  0.0000000E+00  0.2096756E-03
 -0.3669499E-02  0.0000000E+00 -0.5050505E-02  0.6327805E-04  0.0000000E+00  0.2256972E-03
 -0.3353842E-02  0.0000000E+00 -0.5050505E-02  0.4107813E-04  0.0000000E+00  0.2527592E-03
 -0.2978990E-02  0.0000000E+00 -0.5050505E-02  0.2682946E-04  0.0000000E+00  0.2755845E-03
 -0.2347676E-02  0.0000000E+00 -0.5050505E-02  0.3734814E-04  0.0000000E+00  0.2875939E-03
 -0.1716362E-02  0.0000000E+00 -0.5050505E-02  0.4082728E-04  0.0000000E+00  0.3039671E-03
 -0.1025842E-02  0.0000000E+00 -0.5050505E-02  0.4165908E-04  0.0000000E+00  0.3168365E-03
  0.2367855E-03  0.0000000E+00 -0.5050505E-02 -0.1181702E-04  0.0000000E+00  0.3247758E-03
  0.1499413E-02  0.0000000E+00 -0.5050505E-02 -0.2333314E-04  0.0000000E+00  0.3188058E-03
  0.2762042E-02  0.0000000E+00 -0.5050505E-02 -0.1909222E-04  0.0000000E+00  0.3037808E-03
 -0.5050505E-02  0.0000000E+00 -0.5050505E-02 -0.3162374E-05  0.0000000E+00  0.2926841E-03
 -0.5050505E-02  0.0000000E+00 -0.5050505E-02 -0.3958566E-04  0.0000000E+00  0.2783776E-03
 -0.5050505E-02  0.0000000E+00 -0.5050505E-02 -0.3109695E-04  0.0000000E+00  0.2636408E-03
 -0.5050505E-02  0.0000000E+00 -0.5050505E-02 -0.1594925E-04  0.0000000E+00  0.2513253E-03
 -0.5050505E-02  0.0000000E+00 -0.5050505E-02 -0.4030327E-04  0.0000000E+00  0.2492962E-03
 -0.5050505E-02  0.0000000E+00 -0.5050505E-02 -0.5770712E-04  0.0000000E+00  0.2410739E-03
 -0.5050505E-02  0.0000000E+00 -0.5050505E-02 -0.5007796E-04  0.0000000E+00  0.2181193E-03
 -0.5050504E-02  0.0000000E+00 -0.5050505E-02 -0.4482609E-04  0.0000000E+00  0.1994119E-03
 -0.5050501E-02  0.0000000E+00 -0.5050505E-02 -0.4096668E-04  0.0000000E+00  0.1825198E-03
 -0.5050495E-02  0.0000000E+00 -0.5050505E-02 -0.3793376E-04  0.0000000E+00  0.1668100E-03
 -0.5050482E-02  0.0000000E+00 -0.5050505E-02 -0.3540839E-04  0.0000000E+00  0.1520696E-03
 -0.5050449E-02  0.0000000E+00 -0.5050505E-02 -0.3321059E-04  0.0000000E+00  0.1381971E-03
 -0.5050376E-02  0.0000000E+00 -0.5050505E-02 -0.3123747E-04  0.0000000E+00  0.1251265E-03
 -0.5050299E-02  0.0000000E+00 -0.5050505E-02 -0.2942922E-04  0.0000000E+00  0.1128059E-03
 -0.5050178E-02  0.0000000E+00 -0.5050505E-02 -0.2775044E-04  0.0000000E+00  0.1011903E-03
 -0.5050018E-02  0.0000000E+00 -0.5050505E-02 -0.2617959E-04  0.0000000E+00  0.9023912E-04
 -0.5049710E-02  0.0000000E+00 -0.5050505E-02 -0.2470302E-04  0.0000000E+00  0.7991471E-04
 -0.5049253E-02  0.0000000E+00 -0.5050505E-02 -0.2331146E-04  0.0000000E+00  0.7018165E-04
 -0.5048636E-02  0.0000000E+00 -0.5050505E-02 -0.2199802E-04  0.0000000E+00  0.6100651E-04
 -0.5047442E-02  0.0000000E+00 -0.5050505E-02 -0.2075708E-04  0.0000000E+00  0.5235779E-04
 -0.5045727E-02  0.0000000E+00 -0.5050505E-02 -0.1958371E-04  0.0000000E+00  0.4420583E-04
 -0.5043261E-02  0.0000000E+00 -0.5050505E-02 -0.1847333E-04  0.0000000E+00  0.3652289E-04
 -0.5038714E-02  0.0000000E+00 -0.5050505E-02 -0.1742158E-04  0.0000000E+00  0.2928309E-04
 -0.5032318E-02  0.0000000E+00 -0.5050505E-02 -0.1642427E-04  0.0000000E+00  0.2246240E-04
 -0.5022454E-02  0.0000000E+00 -0.5050505E-02 -0.1547740E-04  0.0000000E+00  0.1603857E-04
 -0.5012589E-02  0.0000000E+00 -0.5050505E-02 -0.1457716E-04  0.0000000E+00  0.9991101E-05
 -0.5002725E-02  0.0000000E+00 -0.5050505E-02 -0.1371995E-04  0.0000000E+00  0.4301096E-05
 -0.4992860E-02  0.0000000E+00 -0.5050505E-02 -0.1290235E-04  0.0000000E+00 -0.1044321E-05
 -0.4976523E-02  0.0000000E+00 -0.5050505E-02 -0.1212060E-04  0.0000000E+00 -0.6061975E-05
 -0.4956794E-02  0.0000000E+00 -0.5050505E-02 -0.1137258E-04  0.0000000E+00 -0.1077372E-04
 -0.4937066E-02  0.0000000E+00 -0.5050505E-02 -0.1065550E-04  0.0000000E+00 -0.1519436E-04
 -0.4906239E-02  0.0000000E+00 -0.5050505E-02 -0.9966790E-05  0.0000000E+00 -0.1933526E-04
 -0.4866782E-02  0.0000000E+00 -0.5050505E-02 -0.9304091E-05  0.0000000E+00 -0.2320687E-04
 -0.4827325E-02  0.0000000E+00 -0.5050505E-02 -0.8665239E-05  0.0000000E+00 -0.2681876E-04
 -0.4769372E-02  0.0000000E+00 -0.5050505E-02 -0.8048271E-05  0.0000000E+00 -0.3017971E-04
 -0.4690458E-02  0.0000000E+00 -0.5050505E-02 -0.7451417E-05  0.0000000E+00 -0.3329775E-04
 -0.4611543E-02  0.0000000E+00 -0.5050505E-02 -0.6873116E-05  0.0000000E+00 -0.3618027E-04
 -0.4503035E-02  0.0000000E+00 -0.5050505E-02 -0.6312037E-05  0.0000000E+00 -0.3883406E-04
 -0.4345206E-02  0.0000000E+00 -0.5050505E-02 -0.5767130E-05  0.0000000E+00 -0.4126534E-04
 -0.4187378E-02  0.0000000E+00 -0.5050505E-02 -0.5237721E-05  0.0000000E+00 -0.4347988E-04
 -0.3985156E-02  0.0000000E+00 -0.5050505E-02 -0.4723683E-05  0.0000000E+00 -0.4548300E-04
 -0.3669499E-02  0.0000000E+00 -0.5050505E-02 -0.4225749E-05  0.0000000E+00 -0.4727954E-04
 -0.3353842E-02  0.0000000E+00 -0.5050505E-02 -0.3746088E-05  0.0000000E+00 -0.4887373E-04
 -0.2978990E-02  0.0000000E+00 -0.5050505E-02 -0.3289364E-05  0.0000000E+00 -0.5026849E-04
 -0.2347676E-02  0.0000000E+00 -0.5050505E-02 -0.2864626E-05  0.0000000E+00 -0.5146349E-04
 -0.1716362E-02  0.0000000E+00 -0.5050505E-02 -0.2488419E-05  0.0000000E+00 -0.5244962E-04
 -0.1025842E-02  0.0000000E+00 -0.5050505E-02 -0.2188347E-05  0.0000000E+00 -0.5319428E-04
  0.2367855E-03  0.0000000E+00 -0.5050505E-02 -0.1998983E-05  0.0000000E+00 -0.5360700E-04
  0.1499413E-02  0.0000000E+00 -0.5050505E-02 -0.1904953E-05  0.0000000E+00 -0.5348637E-04
  0.5287294E-02  0.0000000E+00 -0.5050505E-02 -0.1514893E-05  0.0000000E+00 -0.5262967E-04
 -0.5050505E-02  0.0000000E+00 -0.5050505E-02  0.4167289E-06  0.0000000E+00 -0.2649500E-04
 -0.5050505E-02  0.0000000E+00 -0.5050505E-02  0.1250782E-05  0.0000000E+00 -0.2625361E-04
 -0.5050505E-02  0.0000000E+00 -0.5050505E-02  0.2086628E-05  0.0000000E+00 -0.2577054E-04
 -0.5050505E-02  0.0000000E+00 -0.5050505E-02  0.2925471E-05  0.0000000E+00 -0.2504516E-04
 -0.5050505E-02  0.0000000E+00 -0.5050505E-02  0.3768521E-05  0.0000000E+00 -0.2407648E-04
 -0.5050505E-02  0.0000000E+00 -0.5050505E-02  0.4616986E-05  0.0000000E+00 -0.2286320E-04
 -0.5050504E-02  0.0000000E+00 -0.5050505E-02  0.5472075E-05  0.0000000E+00 -0.2140368E-04
 -0.5050501E-02  0.0000000E+00 -0.5050505E-02  0.6334994E-05  0.0000000E+00 -0.1969592E-04
 -0.5050495E-02  0.0000000E+00 -0.5050505E-02  0.7206950E-05  0.0000000E+00 -0.1773762E-04
 -0.5050482E-02  0.0000000E+00 -0.5050505E-02  0.8089156E-05  0.0000000E+00 -0.1552615E-04
 -0.5050449E-02  0.0000000E+00 -0.5050505E-02  0.8982828E-05  0.0000000E+00 -0.1305854E-04
 -0.5050376E-02  0.0000000E+00 -0.5050505E-02  0.9889206E-05  0.0000000E+00 -0.1033151E-04
 -0.5050299E-02  0.0000000E+00 -0.5050505E-02  0.1080955E-04  0.0000000E+00 -0.7341458E-05
 -0.5050178E-02  0.0000000E+00 -0.5050505E-02  0.1174518E-04  0.0000000E+00 -0.4084459E-05
 -0.5050018E-02  0.0000000E+00 -0.5050505E-02  0.1269750E-04  0.0000000E+00 -0.5543052E-06
 -0.5049710E-02  0.0000000E+00 -0.5050505E-02  0.1366583E-04  0.0000000E+00  0.3258667E-05
 -0.5049253E-02  0.0000000E+00 -0.5050505E-02  0.1465330E-04  0.0000000E+00  0.7359797E-05
 -0.5048636E-02  0.0000000E+00 -0.5050505E-02  0.1566150E-04  0.0000000E+00  0.1175213E-04
 -0.5047442E-02  0.0000000E+00 -0.5050505E-02  0.1669219E-04  0.0000000E+00  0.1644233E-04
 -0.5045727E-02  0.0000000E+00 -0.5050505E-02  0.1774726E-04  0.0000000E+00  0.2143762E-04
 -0.5043261E-02  0.0000000E+00 -0.5050505E-02  0.1882884E-04  0.0000000E+00  0.2674583E-04
 -0.5038714E-02  0.0000000E+00 -0.5050505E-02  0.1993926E-04  0.0000000E+00  0.3237548E-04
 -0.5032318E-02  0.0000000E+00 -0.5050505E-02  0.2108110E-04  0.0000000E+00  0.3833583E-04
 -0.5022454E-02  0.0000000E+00 -0.5050505E-02  0.2225718E-04  0.0000000E+00  0.4463683E-04
 -0.5012589E-02  0.0000000E+00 -0.5050505E-02  0.2347063E-04  0.0000000E+00  0.5128913E-04
 -0.5002725E-02  0.0000000E+00 -0.5050505E-02  0.2472517E-04  0.0000000E+00  0.5830390E-04
 -0.4992860E-02  0.0000000E+00 -0.5050505E-02  0.2602555E-04  0.0000000E+00  0.6569268E-04
 -0.4976523E-02  0.0000000E+00 -0.5050505E-02  0.2737858E-04  0.0000000E+00  0.7346733E-04
 -0.4956794E-02  0.0000000E+00 -0.5050505E-02  0.2879463E-04  0.0000000E+00  0.8164013E-04
 -0.4937066E-02  0.0000000E+00 -0.5050505E-02  0.3029005E-04  0.0000000E+00  0.9022452E-04