title = "dataset feddes"
variables = "x", "y", "z", "vx", "vy", "vz"
zone t = "velocities, solution time =  5.200E+01 days        " i =   99, j =   99, k =    1,  f=point
 -0.5050505E-02  0.0000000E+00 -0.5050505E-02  0.1837170E-07  0.0000000E+00 -0.1414736E-03
 -0.5050505E-02  0.0000000E+00 -0.5050505E-02  0.5510788E-07  0.0000000E+00 -0.1413989E-03
 -0.5050505E-02  0.0000000E+00 -0.5050505E-02  0.9182254E-07  0.0000000E+00 -0.1412494E-03
 -0.5050505E-02  0.0000000E+00 -0.5050505E-02  0.1285010E-06  0.0000000E+00 -0.1410253E-03
 -0.5050505E-02  0.0000000E+00 -0.5050505E-02  0.1651280E-06  0.0000000E+00 -0.1407267E-03
 -0.5050505E-02  0.0000000E+00 -0.5050505E-02  0.2016870E-06  0.0000000E+00 -0.1403536E-03
 -0.5050504E-02  0.0000000E+00 -0.5050505E-02  0.2381599E-06  0.0000000E+00 -0.1399063E-03
 -0.5050501E-02  0.0000000E+00 -0.5050505E-02  0.2745269E-06  0.0000000E+00 -0.1393849E-03
 -0.5050495E-02  0.0000000E+00 -0.5050505E-02  0.3107657E-06  0.0000000E+00 -0.1387898E-03
 -0.5050482E-02  0.0000000E+00 -0.5050505E-02  0.3468518E-06  0.0000000E+00 -0.1381211E-03
 -0.5050449E-02  0.0000000E+00 -0.5050505E-02  0.3827574E-06  0.0000000E+00 -0.1373793E-03
 -0.5050376E-02  0.0000000E+00 -0.5050505E-02  0.4184518E-06  0.0000000E+00 -0.1365648E-03
 -0.5050299E-02  0.0000000E+00 -0.5050505E-02  0.4539009E-06  0.0000000E+00 -0.1356781E-03
 -0.5050178E-02  0.0000000E+00 -0.5050505E-02  0.4890667E-06  0.0000000E+00 -0.1347197E-03
 -0.5050018E-02  0.0000000E+00 -0.5050505E-02  0.5239078E-06  0.0000000E+00 -0.1336903E-03
 -0.5049710E-02  0.0000000E+00 -0.5050505E-02  0.5583785E-06  0.0000000E+00 -0.1325906E-03
 -0.5049253E-02  0.0000000E+00 -0.5050505E-02  0.5924294E-06  0.0000000E+00 -0.1314214E-03
 -0.5048636E-02  0.0000000E+00 -0.5050505E-02  0.6260071E-06  0.0000000E+00 -0.1301837E-03
 -0.5047442E-02  0.0000000E+00 -0.5050505E-02  0.6590548E-06  0.0000000E+00 -0.1288785E-03
 -0.5045727E-02  0.0000000E+00 -0.5050505E-02  0.6915121E-06  0.0000000E+00 -0.1275070E-03
 -0.5043261E-02  0.0000000E+00 -0.5050505E-02  0.7233161E-06  0.0000000E+00 -0.1260704E-03
 -0.5038714E-02  0.0000000E+00 -0.5050505E-02  0.7544016E-06  0.0000000E+00 -0.1245703E-03
 -0.5032318E-02  0.0000000E+00 -0.5050505E-02  0.7847028E-06  0.0000000E+00 -0.1230082E-03
 -0.5022454E-02  0.0000000E+00 -0.5050505E-02  0.8141537E-06  0.0000000E+00 -0.1213858E-03
 -0.5012589E-02  0.0000000E+00 -0.5050505E-02  0.8426908E-06  0.0000000E+00 -0.1197048E-03
 -0.5002725E-02  0.0000000E+00 -0.5050505E-02  0.8702545E-06  0.0000000E+00 -0.1179673E-03
 -0.4992860E-02  0.0000000E+00 -0.5050505E-02  0.8967927E-06  0.0000000E+00 -0.1161752E-03
 -0.4976523E-02  0.0000000E+00 -0.5050505E-02  0.9222640E-06  0.0000000E+00 -0.1143309E-03
 -0.4956794E-02  0.0000000E+00 -0.5050505E-02  0.9466435E-06  0.0000000E+00 -0.1124364E-03
 -0.4937066E-02  0.0000000E+00 -0.5050505E-02  0.9699294E-06  0.0000000E+00 -0.1104940E-03
 -0.4906239E-02  0.0000000E+00 -0.5050505E-02  0.9921534E-06  0.0000000E+00 -0.1085060E-03
 -0.4866782E-02  0.0000000E+00 -0.5050505E-02  0.1013395E-05  0.0000000E+00 -0.1064745E-03
 -0.4827325E-02  0.0000000E+00 -0.5050505E-02  0.1033800E-05  0.0000000E+00 -0.1044013E-03
 -0.4769372E-02  0.0000000E+00 -0.5050505E-02  0.1053612E-05  0.0000000E+00 -0.1022878E-03
 -0.4690458E-02  0.0000000E+00 -0.5050505E-02  0.1073209E-05  0.0000000E+00 -0.1001351E-03
 -0.4611543E-02  0.0000000E+00 -0.5050505E-02  0.1093151E-05  0.0000000E+00 -0.9794286E-04
 -0.4503035E-02  0.0000000E+00 -0.5050505E-02  0.1114241E-05  0.0000000E+00 -0.9570973E-04
 -0.4345206E-02  0.0000000E+00 -0.5050505E-02  0.1137572E-05  0.0000000E+00 -0.9343227E-04
 -0.4187378E-02  0.0000000E+00 -0.5050505E-02  0.1164503E-05  0.0000000E+00 -0.9110463E-04
 -0.3985156E-02  0.0000000E+00 -0.5050505E-02  0.1196441E-05  0.0000000E+00 -0.8871814E-04
 -0.3669499E-02  0.0000000E+00 -0.5050505E-02  0.1234045E-05  0.0000000E+00 -0.8626209E-04
 -0.3353842E-02  0.0000000E+00 -0.5050505E-02  0.1274994E-05  0.0000000E+00 -0.8372743E-04
 -0.2978990E-02  0.0000000E+00 -0.5050505E-02  0.1308333E-05  0.0000000E+00 -0.8111854E-04
 -0.2347676E-02  0.0000000E+00 -0.5050505E-02  0.1301219E-05  0.0000000E+00 -0.7848399E-04
 -0.1716362E-02  0.0000000E+00 -0.5050505E-02  0.1172045E-05  0.0000000E+00 -0.7598776E-04
 -0.1025842E-02  0.0000000E+00 -0.5050505E-02  0.7562567E-06  0.0000000E+00 -0.7404199E-04
  0.2367855E-03  0.0000000E+00 -0.5050505E-02 -0.1115723E-06  0.0000000E+00 -0.7339154E-04
  0.1499413E-02  0.0000000E+00 -0.5050505E-02 -0.5558033E-06  0.0000000E+00 -0.7406490E-04
  0.2762042E-02  0.0000000E+00 -0.5050505E-02 -0.7334297E-06  0.0000000E+00 -0.7536580E-04
 -0.5050505E-02  0.0000000E+00 -0.5050505E-02 -0.7987679E-06  0.0000000E+00 -0.7691211E-04
 -0.5050505E-02  0.0000000E+00 -0.5050505E-02 -0.8259952E-06  0.0000000E+00 -0.7855212E-04
 -0.5050505E-02  0.0000000E+00 -0.5050505E-02 -0.8441375E-06  0.0000000E+00 -0.8023827E-04
 -0.5050505E-02  0.0000000E+00 -0.5050505E-02 -0.8628893E-06  0.0000000E+00 -0.8196202E-04
 -0.5050505E-02  0.0000000E+00 -0.5050505E-02 -0.8845433E-06  0.0000000E+00 -0.8372693E-04
 -0.5050505E-02  0.0000000E+00 -0.5050505E-02 -0.9087289E-06  0.0000000E+00 -0.8553852E-04
 -0.5050505E-02  0.0000000E+00 -0.5050505E-02 -0.9341672E-06  0.0000000E+00 -0.8740065E-04
 -0.5050504E-02  0.0000000E+00 -0.5050505E-02 -0.9593285E-06  0.0000000E+00 -0.8931433E-04
 -0.5050501E-02  0.0000000E+00 -0.5050505E-02 -0.9827282E-06  0.0000000E+00 -0.9127754E-04
 -0.5050495E-02  0.0000000E+00 -0.5050505E-02 -0.1003104E-05  0.0000000E+00 -0.9328548E-04
 -0.5050482E-02  0.0000000E+00 -0.5050505E-02 -0.1019525E-05  0.0000000E+00 -0.9533111E-04
 -0.5050449E-02  0.0000000E+00 -0.5050505E-02 -0.1031424E-05  0.0000000E+00 -0.9740589E-04
 -0.5050376E-02  0.0000000E+00 -0.5050505E-02 -0.1038578E-05  0.0000000E+00 -0.9950046E-04
 -0.5050299E-02  0.0000000E+00 -0.5050505E-02 -0.1041038E-05  0.0000000E+00 -0.1016053E-03
 -0.5050178E-02  0.0000000E+00 -0.5050505E-02 -0.1039046E-05  0.0000000E+00 -0.1037111E-03
 -0.5050018E-02  0.0000000E+00 -0.5050505E-02 -0.1032958E-05  0.0000000E+00 -0.1058093E-03
 -0.5049710E-02  0.0000000E+00 -0.5050505E-02 -0.1023183E-05  0.0000000E+00 -0.1078919E-03
 -0.5049253E-02  0.0000000E+00 -0.5050505E-02 -0.1010137E-05  0.0000000E+00 -0.1099520E-03
 -0.5048636E-02  0.0000000E+00 -0.5050505E-02 -0.9942166E-06  0.0000000E+00 -0.1119832E-03
 -0.5047442E-02  0.0000000E+00 -0.5050505E-02 -0.9757842E-06  0.0000000E+00 -0.1139800E-03
 -0.5045727E-02  0.0000000E+00 -0.5050505E-02 -0.9551629E-06  0.0000000E+00 -0.1159377E-03
 -0.5043261E-02  0.0000000E+00 -0.5050505E-02 -0.9326361E-06  0.0000000E+00 -0.1178522E-03
 -0.5038714E-02  0.0000000E+00 -0.5050505E-02 -0.9084510E-06  0.0000000E+00 -0.1197196E-03
 -0.5032318E-02  0.0000000E+00 -0.5050505E-02 -0.8828228E-06  0.0000000E+00 -0.1215370E-03
 -0.5022454E-02  0.0000000E+00 -0.5050505E-02 -0.8559392E-06  0.0000000E+00 -0.1233015E-03
 -0.5012589E-02  0.0000000E+00 -0.5050505E-02 -0.8279651E-06  0.0000000E+00 -0.1250106E-03
 -0.5002725E-02  0.0000000E+00 -0.5050505E-02 -0.7990469E-06  0.0000000E+00 -0.1266624E-03
 -0.4992860E-02  0.0000000E+00 -0.5050505E-02 -0.7693156E-06  0.0000000E+00 -0.1282549E-03
 -0.4976523E-02  0.0000000E+00 -0.5050505E-02 -0.7388904E-06  0.0000000E+00 -0.1297866E-03
 -0.4956794E-02  0.0000000E+00 -0.5050505E-02 -0.7078817E-06  0.0000000E+00 -0.1312562E-03
 -0.4937066E-02  0.0000000E+00 -0.5050505E-02 -0.6763940E-06  0.0000000E+00 -0.1326625E-03
 -0.4906239E-02  0.0000000E+00 -0.5050505E-02 -0.6445292E-06  0.0000000E+00 -0.1340048E-03
 -0.4866782E-02  0.0000000E+00 -0.5050505E-02 -0.6123904E-06  0.0000000E+00 -0.1352821E-03
 -0.4827325E-02  0.0000000E+00 -0.5050505E-02 -0.5800876E-06  0.0000000E+00 -0.1364942E-03
 -0.4769372E-02  0.0000000E+00 -0.5050505E-02 -0.5477443E-06  0.0000000E+00 -0.1376408E-03
 -0.4690458E-02  0.0000000E+00 -0.5050505E-02 -0.5155094E-06  0.0000000E+00 -0.1387218E-03
 -0.4611543E-02  0.0000000E+00 -0.5050505E-02 -0.4835745E-06  0.0000000E+00 -0.1397377E-03
 -0.4503035E-02  0.0000000E+00 -0.5050505E-02 -0.4522035E-06  0.0000000E+00 -0.1406894E-03
 -0.4345206E-02  0.0000000E+00 -0.5050505E-02 -0.4217839E-06  0.0000000E+00 -0.1415783E-03
 -0.4187378E-02  0.0000000E+00 -0.5050505E-02 -0.3929186E-06  0.0000000E+00 -0.1424070E-03
 -0.3985156E-02  0.0000000E+00 -0.5050505E-02 -0.3666032E-06  0.0000000E+00 -0.1431796E-03
 -0.3669499E-02  0.0000000E+00 -0.5050505E-02 -0.3445814E-06  0.0000000E+00 -0.1439032E-03
 -0.3353842E-02  0.0000000E+00 -0.5050505E-02 -0.3301135E-06  0.0000000E+00 -0.1445897E-03
 -0.2978990E-02  0.0000000E+00 -0.5050505E-02 -0.3297592E-06  0.0000000E+00 -0.1452611E-03
 -0.2347676E-02  0.0000000E+00 -0.5050505E-02 -0.3578841E-06  0.0000000E+00 -0.1459609E-03
 -0.1716362E-02  0.0000000E+00 -0.5050505E-02 -0.4491296E-06  0.0000000E+00 -0.1467822E-03
 -0.1025842E-02  0.0000000E+00 -0.5050505E-02 -0.6963363E-06  0.0000000E+00 -0.1479481E-03
  0.2367855E-03  0.0000000E+00 -0.5050505E-02 -0.1376974E-05  0.0000000E+00 -0.1500587E-03
  0.1499413E-02  0.0000000E+00 -0.5050505E-02 -0.3411765E-05  0.0000000E+00 -0.1549350E-03
  0.5287294E-02  0.0000000E+00 -0.5050505E-02 -0.5477454E-04  0.0000000E+00 -0.1237880E-03
 -0.5050505E-02  0.0000000E+00 -0.5050505E-02  0.5514059E-07  0.0000000E+00 -0.1412810E-03
 -0.5050505E-02  0.0000000E+00 -0.5050505E-02  0.1654006E-06  0.0000000E+00 -0.1412060E-03
 -0.5050505E-02  0.0000000E+00 -0.5050505E-02  0.2755972E-06  0.0000000E+00 -0.1410559E-03
 -0.5050505E-02  0.0000000E+00 -0.5050505E-02  0.3856869E-06  0.0000000E+00 -0.1408309E-03
 -0.5050505E-02  0.0000000E+00 -0.5050505E-02  0.4956244E-06  0.0000000E+00 -0.1405311E-03
 -0.5050505E-02  0.0000000E+00 -0.5050505E-02  0.6053606E-06  0.0000000E+00 -0.1401565E-03
 -0.5050504E-02  0.0000000E+00 -0.5050505E-02  0.7148418E-06  0.0000000E+00 -0.1397073E-03
 -0.5050501E-02  0.0000000E+00 -0.5050505E-02  0.8240088E-06  0.0000000E+00 -0.1391838E-03
 -0.5050495E-02  0.0000000E+00 -0.5050505E-02  0.9327956E-06  0.0000000E+00 -0.1385861E-03
 -0.5050482E-02  0.0000000E+00 -0.5050505E-02  0.1041128E-05  0.0000000E+00 -0.1379147E-03
 -0.5050449E-02  0.0000000E+00 -0.5050505E-02  0.1148925E-05  0.0000000E+00 -0.1371697E-03
 -0.5050376E-02  0.0000000E+00 -0.5050505E-02  0.1256094E-05  0.0000000E+00 -0.1363517E-03
 -0.5050299E-02  0.0000000E+00 -0.5050505E-02  0.1362532E-05  0.0000000E+00 -0.1354611E-03
 -0.5050178E-02  0.0000000E+00 -0.5050505E-02  0.1468126E-05  0.0000000E+00 -0.1344985E-03
 -0.5050018E-02  0.0000000E+00 -0.5050505E-02  0.1572753E-05  0.0000000E+00 -0.1334645E-03
 -0.5049710E-02  0.0000000E+00 -0.5050505E-02  0.1676275E-05  0.0000000E+00 -0.1323597E-03
 -0.5049253E-02  0.0000000E+00 -0.5050505E-02  0.1778544E-05  0.0000000E+00 -0.1311851E-03
 -0.5048636E-02  0.0000000E+00 -0.5050505E-02  0.1879400E-05  0.0000000E+00 -0.1299416E-03
 -0.5047442E-02  0.0000000E+00 -0.5050505E-02  0.1978672E-05  0.0000000E+00 -0.1286302E-03
 -0.5045727E-02  0.0000000E+00 -0.5050505E-02  0.2076179E-05  0.0000000E+00 -0.1272520E-03
 -0.5043261E-02  0.0000000E+00 -0.5050505E-02  0.2171732E-05  0.0000000E+00 -0.1258084E-03
 -0.5038714E-02  0.0000000E+00 -0.5050505E-02  0.2265134E-05  0.0000000E+00 -0.1243007E-03
 -0.5032318E-02  0.0000000E+00 -0.5050505E-02  0.2356187E-05  0.0000000E+00 -0.1227306E-03
 -0.5022454E-02  0.0000000E+00 -0.5050505E-02  0.2444692E-05  0.0000000E+00 -0.1210997E-03
 -0.5012589E-02  0.0000000E+00 -0.5050505E-02  0.2530456E-05  0.0000000E+00 -0.1194098E-03
 -0.5002725E-02  0.0000000E+00 -0.5050505E-02  0.2613299E-05  0.0000000E+00 -0.1176630E-03
 -0.4992860E-02  0.0000000E+00 -0.5050505E-02  0.2693061E-05  0.0000000E+00 -0.1158612E-03
 -0.4976523E-02  0.0000000E+00 -0.5050505E-02  0.2769614E-05  0.0000000E+00 -0.1140066E-03
 -0.4956794E-02  0.0000000E+00 -0.5050505E-02  0.2842878E-05  0.0000000E+00 -0.1121015E-03
 -0.4937066E-02  0.0000000E+00 -0.5050505E-02  0.2912841E-05  0.0000000E+00 -0.1101482E-03
 -0.4906239E-02  0.0000000E+00 -0.5050505E-02  0.2979587E-05  0.0000000E+00 -0.1081490E-03
 -0.4866782E-02  0.0000000E+00 -0.5050505E-02  0.3043337E-05  0.0000000E+00 -0.1061060E-03
 -0.4827325E-02  0.0000000E+00 -0.5050505E-02  0.3104512E-05  0.0000000E+00 -0.1040213E-03
 -0.4769372E-02  0.0000000E+00 -0.5050505E-02  0.3163811E-05  0.0000000E+00 -0.1018964E-03
 -0.4690458E-02  0.0000000E+00 -0.5050505E-02  0.3222330E-05  0.0000000E+00 -0.9973257E-04
 -0.4611543E-02  0.0000000E+00 -0.5050505E-02  0.3281717E-05  0.0000000E+00 -0.9752986E-04
 -0.4503035E-02  0.0000000E+00 -0.5050505E-02  0.3344366E-05  0.0000000E+00 -0.9528721E-04
 -0.4345206E-02  0.0000000E+00 -0.5050505E-02  0.3413606E-05  0.0000000E+00 -0.9300152E-04
 -0.4187378E-02  0.0000000E+00 -0.5050505E-02  0.3493804E-05  0.0000000E+00 -0.9066688E-04
 -0.3985156E-02  0.0000000E+00 -0.5050505E-02  0.3590032E-05  0.0000000E+00 -0.8827345E-04
 -0.3669499E-02  0.0000000E+00 -0.5050505E-02  0.3706554E-05  0.0000000E+00 -0.8580612E-04
 -0.3353842E-02  0.0000000E+00 -0.5050505E-02  0.3842075E-05  0.0000000E+00 -0.8324347E-04
 -0.2978990E-02  0.0000000E+00 -0.5050505E-02  0.3976746E-05  0.0000000E+00 -0.8055867E-04
 -0.2347676E-02  0.0000000E+00 -0.5050505E-02  0.4038172E-05  0.0000000E+00 -0.7772975E-04
 -0.1716362E-02  0.0000000E+00 -0.5050505E-02  0.3813829E-05  0.0000000E+00 -0.7479153E-04
 -0.1025842E-02  0.0000000E+00 -0.5050505E-02  0.2725090E-05  0.0000000E+00 -0.7208068E-04
  0.2367855E-03  0.0000000E+00 -0.5050505E-02 -0.7613041E-06  0.0000000E+00 -0.7139878E-04
  0.1499413E-02  0.0000000E+00 -0.5050505E-02 -0.1943764E-05  0.0000000E+00 -0.7278284E-04
  0.2762042E-02  0.0000000E+00 -0.5050505E-02 -0.2323686E-05  0.0000000E+00 -0.7449027E-04
 -0.5050505E-02  0.0000000E+00 -0.5050505E-02 -0.2444388E-05  0.0000000E+00 -0.7621353E-04
 -0.5050505E-02  0.0000000E+00 -0.5050505E-02 -0.2495316E-05  0.0000000E+00 -0.7792377E-04
 -0.5050505E-02  0.0000000E+00 -0.5050505E-02 -0.2538487E-05  0.0000000E+00 -0.7963787E-04
 -0.5050505E-02  0.0000000E+00 -0.5050505E-02 -0.2591256E-05  0.0000000E+00 -0.8137477E-04
 -0.5050505E-02  0.0000000E+00 -0.5050505E-02 -0.2655748E-05  0.0000000E+00 -0.8314895E-04
 -0.5050505E-02  0.0000000E+00 -0.5050505E-02 -0.2729025E-05  0.0000000E+00 -0.8497017E-04
 -0.5050505E-02  0.0000000E+00 -0.5050505E-02 -0.2806511E-05  0.0000000E+00 -0.8684394E-04
 -0.5050504E-02  0.0000000E+00 -0.5050505E-02 -0.2883254E-05  0.0000000E+00 -0.8877185E-04
 -0.5050501E-02  0.0000000E+00 -0.5050505E-02 -0.2954570E-05  0.0000000E+00 -0.9075179E-04
 -0.5050495E-02  0.0000000E+00 -0.5050505E-02 -0.3016527E-05  0.0000000E+00 -0.9277853E-04
 -0.5050482E-02  0.0000000E+00 -0.5050505E-02 -0.3066263E-05  0.0000000E+00 -0.9484436E-04
 -0.5050449E-02  0.0000000E+00 -0.5050505E-02 -0.3102094E-05  0.0000000E+00 -0.9694002E-04
 -0.5050376E-02  0.0000000E+00 -0.5050505E-02 -0.3123405E-05  0.0000000E+00 -0.9905550E-04
 -0.5050299E-02  0.0000000E+00 -0.5050505E-02 -0.3130426E-05  0.0000000E+00 -0.1011807E-03
 -0.5050178E-02  0.0000000E+00 -0.5050505E-02 -0.3123965E-05  0.0000000E+00 -0.1033061E-03
 -0.5050018E-02  0.0000000E+00 -0.5050505E-02 -0.3105155E-05  0.0000000E+00 -0.1054228E-03
 -0.5049710E-02  0.0000000E+00 -0.5050505E-02 -0.3075270E-05  0.0000000E+00 -0.1075228E-03
 -0.5049253E-02  0.0000000E+00 -0.5050505E-02 -0.3035590E-05  0.0000000E+00 -0.1095990E-03
 -0.5048636E-02  0.0000000E+00 -0.5050505E-02 -0.2987320E-05  0.0000000E+00 -0.1116452E-03
 -0.5047442E-02  0.0000000E+00 -0.5050505E-02 -0.2931557E-05  0.0000000E+00 -0.1136560E-03
 -0.5045727E-02  0.0000000E+00 -0.5050505E-02 -0.2869270E-05  0.0000000E+00 -0.1156267E-03
 -0.5043261E-02  0.0000000E+00 -0.5050505E-02 -0.2801310E-05  0.0000000E+00 -0.1175532E-03
 -0.5038714E-02  0.0000000E+00 -0.5050505E-02 -0.2728413E-05  0.0000000E+00 -0.1194319E-03
 -0.5032318E-02  0.0000000E+00 -0.5050505E-02 -0.2651221E-05  0.0000000E+00 -0.1212597E-03
 -0.5022454E-02  0.0000000E+00 -0.5050505E-02 -0.2570293E-05  0.0000000E+00 -0.1230338E-03
 -0.5012589E-02  0.0000000E+00 -0.5050505E-02 -0.2486118E-05  0.0000000E+00 -0.1247520E-03
 -0.5002725E-02  0.0000000E+00 -0.5050505E-02 -0.2399132E-05  0.0000000E+00 -0.1264122E-03
 -0.4992860E-02  0.0000000E+00 -0.5050505E-02 -0.2309725E-05  0.0000000E+00 -0.1280125E-03
 -0.4976523E-02  0.0000000E+00 -0.5050505E-02 -0.2218251E-05  0.0000000E+00 -0.1295515E-03
 -0.4956794E-02  0.0000000E+00 -0.5050505E-02 -0.2125038E-05  0.0000000E+00 -0.1310278E-03
 -0.4937066E-02  0.0000000E+00 -0.5050505E-02 -0.2030395E-05  0.0000000E+00 -0.1324403E-03
 -0.4906239E-02  0.0000000E+00 -0.5050505E-02 -0.1934624E-05  0.0000000E+00 -0.1337882E-03
 -0.4866782E-02  0.0000000E+00 -0.5050505E-02 -0.1838029E-05  0.0000000E+00 -0.1350707E-03
 -0.4827325E-02  0.0000000E+00 -0.5050505E-02 -0.1740931E-05  0.0000000E+00 -0.1362874E-03
 -0.4769372E-02  0.0000000E+00 -0.5050505E-02 -0.1643690E-05  0.0000000E+00 -0.1374380E-03
 -0.4690458E-02  0.0000000E+00 -0.5050505E-02 -0.1546734E-05  0.0000000E+00 -0.1385225E-03
 -0.4611543E-02  0.0000000E+00 -0.5050505E-02 -0.1450608E-05  0.0000000E+00 -0.1395410E-03
 -0.4503035E-02  0.0000000E+00 -0.5050505E-02 -0.1356054E-05  0.0000000E+00 -0.1404944E-03
 -0.4345206E-02  0.0000000E+00 -0.5050505E-02 -0.1264139E-05  0.0000000E+00 -0.1413838E-03
 -0.4187378E-02  0.0000000E+00 -0.5050505E-02 -0.1176497E-05  0.0000000E+00 -0.1422111E-03
 -0.3985156E-02  0.0000000E+00 -0.5050505E-02 -0.1095761E-05  0.0000000E+00 -0.1429793E-03
 -0.3669499E-02  0.0000000E+00 -0.5050505E-02 -0.1026400E-05  0.0000000E+00 -0.1436932E-03
 -0.3353842E-02  0.0000000E+00 -0.5050505E-02 -0.9764288E-06  0.0000000E+00 -0.1443598E-03
 -0.2978990E-02  0.0000000E+00 -0.5050505E-02 -0.9610708E-06  0.0000000E+00 -0.1449901E-03
 -0.2347676E-02  0.0000000E+00 -0.5050505E-02 -0.1011110E-05  0.0000000E+00 -0.1455993E-03
 -0.1716362E-02  0.0000000E+00 -0.5050505E-02 -0.1193065E-05  0.0000000E+00 -0.1462021E-03
 -0.1025842E-02  0.0000000E+00 -0.5050505E-02 -0.1660857E-05  0.0000000E+00 -0.1467782E-03
  0.2367855E-03  0.0000000E+00 -0.5050505E-02 -0.2795175E-05  0.0000000E+00 -0.1470989E-03
  0.1499413E-02  0.0000000E+00 -0.5050505E-02 -0.5595267E-05  0.0000000E+00 -0.1459057E-03
  0.5287294E-02  0.0000000E+00 -0.5050505E-02 -0.1280727E-04  0.0000000E+00 -0.1370816E-03
 -0.5050505E-02  0.0000000E+00 -0.5050505E-02  0.9203340E-07  0.0000000E+00 -0.1409008E-03
 -0.5050505E-02  0.0000000E+00 -0.5050505E-02  0.2760661E-06  0.0000000E+00 -0.1408251E-03
 -0.5050505E-02  0.0000000E+00 -0.5050505E-02  0.4599962E-06  0.0000000E+00 -0.1406739E-03
 -0.5050505E-02  0.0000000E+00 -0.5050505E-02  0.6437535E-06  0.0000000E+00 -0.1404470E-03
 -0.5050505E-02  0.0000000E+00 -0.5050505E-02  0.8272636E-06  0.0000000E+00 -0.1401448E-03
 -0.5050505E-02  0.0000000E+00 -0.5050505E-02  0.1010447E-05  0.0000000E+00 -0.1397672E-03
 -0.5050504E-02  0.0000000E+00 -0.5050505E-02  0.1193215E-05  0.0000000E+00 -0.1393143E-03
 -0.5050501E-02  0.0000000E+00 -0.5050505E-02  0.1375471E-05  0.0000000E+00 -0.1387865E-03
 -0.5050495E-02  0.0000000E+00 -0.5050505E-02  0.1557107E-05  0.0000000E+00 -0.1381839E-03
 -0.5050482E-02  0.0000000E+00 -0.5050505E-02  0.1738000E-05  0.0000000E+00 -0.1375069E-03
 -0.5050449E-02  0.0000000E+00 -0.5050505E-02  0.1918016E-05  0.0000000E+00 -0.1367557E-03
 -0.5050376E-02  0.0000000E+00 -0.5050505E-02  0.2097002E-05  0.0000000E+00 -0.1359307E-03
 -0.5050299E-02  0.0000000E+00 -0.5050505E-02  0.2274790E-05  0.0000000E+00 -0.1350324E-03
 -0.5050178E-02  0.0000000E+00 -0.5050505E-02  0.2451191E-05  0.0000000E+00 -0.1340613E-03
 -0.5050018E-02  0.0000000E+00 -0.5050505E-02  0.2625998E-05  0.0000000E+00 -0.1330181E-03
 -0.5049710E-02  0.0000000E+00 -0.5050505E-02  0.2798985E-05  0.0000000E+00 -0.1319034E-03
 -0.5049253E-02  0.0000000E+00 -0.5050505E-02  0.2969905E-05  0.0000000E+00 -0.1307180E-03
 -0.5048636E-02  0.0000000E+00 -0.5050505E-02  0.3138491E-05  0.0000000E+00 -0.1294629E-03
 -0.5047442E-02  0.0000000E+00 -0.5050505E-02  0.3304457E-05  0.0000000E+00 -0.1281390E-03
 -0.5045727E-02  0.0000000E+00 -0.5050505E-02  0.3467500E-05  0.0000000E+00 -0.1267476E-03
 -0.5043261E-02  0.0000000E+00 -0.5050505E-02  0.3627303E-05  0.0000000E+00 -0.1252898E-03
 -0.5038714E-02  0.0000000E+00 -0.5050505E-02  0.3783536E-05  0.0000000E+00 -0.1237670E-03
 -0.5032318E-02  0.0000000E+00 -0.5050505E-02  0.3935865E-05  0.0000000E+00 -0.1221810E-03
 -0.5022454E-02  0.0000000E+00 -0.5050505E-02  0.4083955E-05  0.0000000E+00 -0.1205332E-03
 -0.5012589E-02  0.0000000E+00 -0.5050505E-02  0.4227477E-05  0.0000000E+00 -0.1188255E-03
 -0.5002725E-02  0.0000000E+00 -0.5050505E-02  0.4366125E-05  0.0000000E+00 -0.1170600E-03
 -0.4992860E-02  0.0000000E+00 -0.5050505E-02  0.4499623E-05  0.0000000E+00 -0.1152386E-03
 -0.4976523E-02  0.0000000E+00 -0.5050505E-02  0.4627745E-05  0.0000000E+00 -0.1133637E-03
 -0.4956794E-02  0.0000000E+00 -0.5050505E-02  0.4750340E-05  0.0000000E+00 -0.1114374E-03
 -0.4937066E-02  0.0000000E+00 -0.5050505E-02  0.4867363E-05  0.0000000E+00 -0.1094622E-03
 -0.4906239E-02  0.0000000E+00 -0.5050505E-02  0.4978919E-05  0.0000000E+00 -0.1074405E-03
 -0.4866782E-02  0.0000000E+00 -0.5050505E-02  0.5085330E-05  0.0000000E+00 -0.1053746E-03
 -0.4827325E-02  0.0000000E+00 -0.5050505E-02  0.5187224E-05  0.0000000E+00 -0.1032667E-03
 -0.4769372E-02  0.0000000E+00 -0.5050505E-02  0.5285672E-05  0.0000000E+00 -0.1011188E-03
 -0.4690458E-02  0.0000000E+00 -0.5050505E-02  0.5382374E-05  0.0000000E+00 -0.9893250E-04
 -0.4611543E-02  0.0000000E+00 -0.5050505E-02  0.5479937E-05  0.0000000E+00 -0.9670859E-04
 -0.4503035E-02  0.0000000E+00 -0.5050505E-02  0.5582232E-05  0.0000000E+00 -0.9444678E-04
 -0.4345206E-02  0.0000000E+00 -0.5050505E-02  0.5694865E-05  0.0000000E+00 -0.9214493E-04
 -0.4187378E-02  0.0000000E+00 -0.5050505E-02  0.5825692E-05  0.0000000E+00 -0.8979787E-04
 -0.3985156E-02  0.0000000E+00 -0.5050505E-02  0.5985202E-05  0.0000000E+00 -0.8739538E-04
 -0.3669499E-02  0.0000000E+00 -0.5050505E-02  0.6186239E-05  0.0000000E+00 -0.8491835E-04
 -0.3353842E-02  0.0000000E+00 -0.5050505E-02  0.6441671E-05  0.0000000E+00 -0.8233112E-04
 -0.2978990E-02  0.0000000E+00 -0.5050505E-02  0.6756433E-05  0.0000000E+00 -0.7956422E-04
 -0.2347676E-02  0.0000000E+00 -0.5050505E-02  0.7104381E-05  0.0000000E+00 -0.7647217E-04
 -0.1716362E-02  0.0000000E+00 -0.5050505E-02  0.7362252E-05  0.0000000E+00 -0.7271716E-04
 -0.1025842E-02  0.0000000E+00 -0.5050505E-02  0.7109635E-05  0.0000000E+00 -0.6741342E-04
  0.2367855E-03  0.0000000E+00 -0.5050505E-02 -0.3726632E-05  0.0000000E+00 -0.6666011E-04
  0.1499413E-02  0.0000000E+00 -0.5050505E-02 -0.4170823E-05  0.0000000E+00 -0.7051785E-04
  0.2762042E-02  0.0000000E+00 -0.5050505E-02 -0.4211158E-05  0.0000000E+00 -0.7297190E-04
 -0.5050505E-02  0.0000000E+00 -0.5050505E-02 -0.4192561E-05  0.0000000E+00 -0.7492962E-04
 -0.5050505E-02  0.0000000E+00 -0.5050505E-02 -0.4199246E-05  0.0000000E+00 -0.7671650E-04
 -0.5050505E-02  0.0000000E+00 -0.5050505E-02 -0.4245219E-05  0.0000000E+00 -0.7845870E-04
 -0.5050505E-02  0.0000000E+00 -0.5050505E-02 -0.4326329E-05  0.0000000E+00 -0.8021048E-04
 -0.5050505E-02  0.0000000E+00 -0.5050505E-02 -0.4434190E-05  0.0000000E+00 -0.8199842E-04
 -0.5050505E-02  0.0000000E+00 -0.5050505E-02 -0.4559577E-05  0.0000000E+00 -0.8383683E-04
 -0.5050505E-02  0.0000000E+00 -0.5050505E-02 -0.4693108E-05  0.0000000E+00 -0.8573310E-04
 -0.5050504E-02  0.0000000E+00 -0.5050505E-02 -0.4825545E-05  0.0000000E+00 -0.8768936E-04
 -0.5050501E-02  0.0000000E+00 -0.5050505E-02 -0.4948360E-05  0.0000000E+00 -0.8970316E-04
 -0.5050495E-02  0.0000000E+00 -0.5050505E-02 -0.5054511E-05  0.0000000E+00 -0.9176815E-04
 -0.5050482E-02  0.0000000E+00 -0.5050505E-02 -0.5139028E-05  0.0000000E+00 -0.9387514E-04
 -0.5050449E-02  0.0000000E+00 -0.5050505E-02 -0.5199156E-05  0.0000000E+00 -0.9601327E-04
 -0.5050376E-02  0.0000000E+00 -0.5050505E-02 -0.5234096E-05  0.0000000E+00 -0.9817113E-04
 -0.5050299E-02  0.0000000E+00 -0.5050505E-02 -0.5244523E-05  0.0000000E+00 -0.1003376E-03
 -0.5050178E-02  0.0000000E+00 -0.5050505E-02 -0.5232056E-05  0.0000000E+00 -0.1025024E-03
 -0.5050018E-02  0.0000000E+00 -0.5050505E-02 -0.5198812E-05  0.0000000E+00 -0.1046561E-03
 -0.5049710E-02  0.0000000E+00 -0.5050505E-02 -0.5147073E-05  0.0000000E+00 -0.1067908E-03
 -0.5049253E-02  0.0000000E+00 -0.5050505E-02 -0.5079070E-05  0.0000000E+00 -0.1088993E-03
 -0.5048636E-02  0.0000000E+00 -0.5050505E-02 -0.4996871E-05  0.0000000E+00 -0.1109755E-03
 -0.5047442E-02  0.0000000E+00 -0.5050505E-02 -0.4902325E-05  0.0000000E+00 -0.1130142E-03
 -0.5045727E-02  0.0000000E+00 -0.5050505E-02 -0.4797054E-05  0.0000000E+00 -0.1150107E-03
 -0.5043261E-02  0.0000000E+00 -0.5050505E-02 -0.4682465E-05  0.0000000E+00 -0.1169612E-03
 -0.5038714E-02  0.0000000E+00 -0.5050505E-02 -0.4559774E-05  0.0000000E+00 -0.1188622E-03
 -0.5032318E-02  0.0000000E+00 -0.5050505E-02 -0.4430035E-05  0.0000000E+00 -0.1207108E-03
 -0.5022454E-02  0.0000000E+00 -0.5050505E-02 -0.4294164E-05  0.0000000E+00 -0.1225043E-03
 -0.5012589E-02  0.0000000E+00 -0.5050505E-02 -0.4152966E-05  0.0000000E+00 -0.1242405E-03
 -0.5002725E-02  0.0000000E+00 -0.5050505E-02 -0.4007152E-05  0.0000000E+00 -0.1259174E-03
 -0.4992860E-02  0.0000000E+00 -0.5050505E-02 -0.3857360E-05  0.0000000E+00 -0.1275332E-03
 -0.4976523E-02  0.0000000E+00 -0.5050505E-02 -0.3704171E-05  0.0000000E+00 -0.1290867E-03
 -0.4956794E-02  0.0000000E+00 -0.5050505E-02 -0.3548119E-05  0.0000000E+00 -0.1305763E-03
 -0.4937066E-02  0.0000000E+00 -0.5050505E-02 -0.3389710E-05  0.0000000E+00 -0.1320012E-03
 -0.4906239E-02  0.0000000E+00 -0.5050505E-02 -0.3229431E-05  0.0000000E+00 -0.1333604E-03
 -0.4866782E-02  0.0000000E+00 -0.5050505E-02 -0.3067772E-05  0.0000000E+00 -0.1346532E-03
 -0.4827325E-02  0.0000000E+00 -0.5050505E-02 -0.2905244E-05  0.0000000E+00 -0.1358791E-03
 -0.4769372E-02  0.0000000E+00 -0.5050505E-02 -0.2742412E-05  0.0000000E+00 -0.1370378E-03
 -0.4690458E-02  0.0000000E+00 -0.5050505E-02 -0.2579933E-05  0.0000000E+00 -0.1381291E-03
 -0.4611543E-02  0.0000000E+00 -0.5050505E-02 -0.2418627E-05  0.0000000E+00 -0.1391532E-03
 -0.4503035E-02  0.0000000E+00 -0.5050505E-02 -0.2259578E-05  0.0000000E+00 -0.1401104E-03
 -0.4345206E-02  0.0000000E+00 -0.5050505E-02 -0.2104301E-05  0.0000000E+00 -0.1410013E-03
 -0.4187378E-02  0.0000000E+00 -0.5050505E-02 -0.1955028E-05  0.0000000E+00 -0.1418269E-03
 -0.3985156E-02  0.0000000E+00 -0.5050505E-02 -0.1815194E-05  0.0000000E+00 -0.1425885E-03
 -0.3669499E-02  0.0000000E+00 -0.5050505E-02 -0.1690301E-05  0.0000000E+00 -0.1432876E-03
 -0.3353842E-02  0.0000000E+00 -0.5050505E-02 -0.1589491E-05  0.0000000E+00 -0.1439255E-03
 -0.2978990E-02  0.0000000E+00 -0.5050505E-02 -0.1528399E-05  0.0000000E+00 -0.1445014E-03
 -0.2347676E-02  0.0000000E+00 -0.5050505E-02 -0.1534308E-05  0.0000000E+00 -0.1450072E-03
 -0.1716362E-02  0.0000000E+00 -0.5050505E-02 -0.1654653E-05  0.0000000E+00 -0.1454126E-03
 -0.1025842E-02  0.0000000E+00 -0.5050505E-02 -0.1967090E-05  0.0000000E+00 -0.1456259E-03
  0.2367855E-03  0.0000000E+00 -0.5050505E-02 -0.2569748E-05  0.0000000E+00 -0.1454003E-03
  0.1499413E-02  0.0000000E+00 -0.5050505E-02 -0.3430711E-05  0.0000000E+00 -0.1441876E-03
  0.5287294E-02  0.0000000E+00 -0.5050505E-02 -0.3511021E-05  0.0000000E+00 -0.1414265E-03
 -0.5050505E-02  0.0000000E+00 -0.5050505E-02  0.1291948E-06  0.0000000E+00 -0.1403378E-03
 -0.5050505E-02  0.0000000E+00 -0.5050505E-02  0.3875387E-06  0.0000000E+00 -0.1402613E-03
 -0.5050505E-02  0.0000000E+00 -0.5050505E-02  0.6457450E-06  0.0000000E+00 -0.1401082E-03
 -0.5050505E-02  0.0000000E+00 -0.5050505E-02  0.9037191E-06  0.0000000E+00 -0.1398787E-03
 -0.5050505E-02  0.0000000E+00 -0.5050505E-02  0.1161361E-05  0.0000000E+00 -0.1395729E-03
 -0.5050505E-02  0.0000000E+00 -0.5050505E-02  0.1418561E-05  0.0000000E+00 -0.1391907E-03
 -0.5050504E-02  0.0000000E+00 -0.5050505E-02  0.1675201E-05  0.0000000E+00 -0.1387325E-03
 -0.5050501E-02  0.0000000E+00 -0.5050505E-02  0.1931147E-05  0.0000000E+00 -0.1381982E-03
 -0.5050495E-02  0.0000000E+00 -0.5050505E-02  0.2186251E-05  0.0000000E+00 -0.1375883E-03
 -0.5050482E-02  0.0000000E+00 -0.5050505E-02  0.2440347E-05  0.0000000E+00 -0.1369029E-03
 -0.5050449E-02  0.0000000E+00 -0.5050505E-02  0.2693246E-05  0.0000000E+00 -0.1361423E-03
 -0.5050376E-02  0.0000000E+00 -0.5050505E-02  0.2944739E-05  0.0000000E+00 -0.1353068E-03
 -0.5050299E-02  0.0000000E+00 -0.5050505E-02  0.3194591E-05  0.0000000E+00 -0.1343971E-03
 -0.5050178E-02  0.0000000E+00 -0.5050505E-02  0.3442542E-05  0.0000000E+00 -0.1334134E-03
 -0.5050018E-02  0.0000000E+00 -0.5050505E-02  0.3688303E-05  0.0000000E+00 -0.1323564E-03
 -0.5049710E-02  0.0000000E+00 -0.5050505E-02  0.3931558E-05  0.0000000E+00 -0.1312268E-03
 -0.5049253E-02  0.0000000E+00 -0.5050505E-02  0.4171962E-05  0.0000000E+00 -0.1300253E-03
 -0.5048636E-02  0.0000000E+00 -0.5050505E-02  0.4409140E-05  0.0000000E+00 -0.1287529E-03
 -0.5047442E-02  0.0000000E+00 -0.5050505E-02  0.4642692E-05  0.0000000E+00 -0.1274104E-03
 -0.5045727E-02  0.0000000E+00 -0.5050505E-02  0.4872190E-05  0.0000000E+00 -0.1259991E-03
 -0.5043261E-02  0.0000000E+00 -0.5050505E-02  0.5097186E-05  0.0000000E+00 -0.1245201E-03
 -0.5038714E-02  0.0000000E+00 -0.5050505E-02  0.5317214E-05  0.0000000E+00 -0.1229748E-03
 -0.5032318E-02  0.0000000E+00 -0.5050505E-02  0.5531799E-05  0.0000000E+00 -0.1213648E-03
 -0.5022454E-02  0.0000000E+00 -0.5050505E-02  0.5740461E-05  0.0000000E+00 -0.1196917E-03
 -0.5012589E-02  0.0000000E+00 -0.5050505E-02  0.5942731E-05  0.0000000E+00 -0.1179574E-03
 -0.5002725E-02  0.0000000E+00 -0.5050505E-02  0.6138162E-05  0.0000000E+00 -0.1161638E-03
 -0.4992860E-02  0.0000000E+00 -0.5050505E-02  0.6326351E-05  0.0000000E+00 -0.1143131E-03
 -0.4976523E-02  0.0000000E+00 -0.5050505E-02  0.6506954E-05  0.0000000E+00 -0.1124075E-03
 -0.4956794E-02  0.0000000E+00 -0.5050505E-02  0.6679727E-05  0.0000000E+00 -0.1104494E-03
 -0.4937066E-02  0.0000000E+00 -0.5050505E-02  0.6844556E-05  0.0000000E+00 -0.1084413E-03