title = "dataset feddes"
variables = "x", "y", "z", "vx", "vy", "vz"
zone t = "velocities, solution time =  3.000E+01 days        " i =   99, j =   99, k =    1,  f=point
 -0.5050505E-02  0.0000000E+00 -0.5050505E-02  0.1327384E-09  0.0000000E+00 -0.3171853E-03
 -0.5050505E-02  0.0000000E+00 -0.5050505E-02  0.3978457E-09  0.0000000E+00 -0.3171848E-03
 -0.5050505E-02  0.0000000E+00 -0.5050505E-02  0.6617281E-09  0.0000000E+00 -0.3171837E-03
 -0.5050505E-02  0.0000000E+00 -0.5050505E-02  0.9235635E-09  0.0000000E+00 -0.3171820E-03
 -0.5050505E-02  0.0000000E+00 -0.5050505E-02  0.1182538E-08  0.0000000E+00 -0.3171799E-03
 -0.5050505E-02  0.0000000E+00 -0.5050505E-02  0.1437837E-08  0.0000000E+00 -0.3171771E-03
 -0.5050504E-02  0.0000000E+00 -0.5050505E-02  0.1688645E-08  0.0000000E+00 -0.3171739E-03
 -0.5050501E-02  0.0000000E+00 -0.5050505E-02  0.1934145E-08  0.0000000E+00 -0.3171701E-03
 -0.5050495E-02  0.0000000E+00 -0.5050505E-02  0.2173528E-08  0.0000000E+00 -0.3171659E-03
 -0.5050482E-02  0.0000000E+00 -0.5050505E-02  0.2405983E-08  0.0000000E+00 -0.3171611E-03
 -0.5050449E-02  0.0000000E+00 -0.5050505E-02  0.2630704E-08  0.0000000E+00 -0.3171559E-03
 -0.5050376E-02  0.0000000E+00 -0.5050505E-02  0.2846889E-08  0.0000000E+00 -0.3171502E-03
 -0.5050299E-02  0.0000000E+00 -0.5050505E-02  0.3053745E-08  0.0000000E+00 -0.3171441E-03
 -0.5050178E-02  0.0000000E+00 -0.5050505E-02  0.3250484E-08  0.0000000E+00 -0.3171375E-03
 -0.5050018E-02  0.0000000E+00 -0.5050505E-02  0.3436332E-08  0.0000000E+00 -0.3171306E-03
 -0.5049710E-02  0.0000000E+00 -0.5050505E-02  0.3610525E-08  0.0000000E+00 -0.3171233E-03
 -0.5049253E-02  0.0000000E+00 -0.5050505E-02  0.3772314E-08  0.0000000E+00 -0.3171156E-03
 -0.5048636E-02  0.0000000E+00 -0.5050505E-02  0.3920972E-08  0.0000000E+00 -0.3171076E-03
 -0.5047442E-02  0.0000000E+00 -0.5050505E-02  0.4055789E-08  0.0000000E+00 -0.3170993E-03
 -0.5045727E-02  0.0000000E+00 -0.5050505E-02  0.4176085E-08  0.0000000E+00 -0.3170908E-03
 -0.5043261E-02  0.0000000E+00 -0.5050505E-02  0.4281206E-08  0.0000000E+00 -0.3170820E-03
 -0.5038714E-02  0.0000000E+00 -0.5050505E-02  0.4370535E-08  0.0000000E+00 -0.3170730E-03
 -0.5032318E-02  0.0000000E+00 -0.5050505E-02  0.4443490E-08  0.0000000E+00 -0.3170639E-03
 -0.5022454E-02  0.0000000E+00 -0.5050505E-02  0.4499534E-08  0.0000000E+00 -0.3170546E-03
 -0.5012589E-02  0.0000000E+00 -0.5050505E-02  0.4538176E-08  0.0000000E+00 -0.3170452E-03
 -0.5002725E-02  0.0000000E+00 -0.5050505E-02  0.4558978E-08  0.0000000E+00 -0.3170358E-03
 -0.4992860E-02  0.0000000E+00 -0.5050505E-02  0.4561560E-08  0.0000000E+00 -0.3170263E-03
 -0.4976523E-02  0.0000000E+00 -0.5050505E-02  0.4545605E-08  0.0000000E+00 -0.3170169E-03
 -0.4956794E-02  0.0000000E+00 -0.5050505E-02  0.4510862E-08  0.0000000E+00 -0.3170075E-03
 -0.4937066E-02  0.0000000E+00 -0.5050505E-02  0.4457154E-08  0.0000000E+00 -0.3169982E-03
 -0.4906239E-02  0.0000000E+00 -0.5050505E-02  0.4384380E-08  0.0000000E+00 -0.3169890E-03
 -0.4866782E-02  0.0000000E+00 -0.5050505E-02  0.4292519E-08  0.0000000E+00 -0.3169800E-03
 -0.4827325E-02  0.0000000E+00 -0.5050505E-02  0.4181636E-08  0.0000000E+00 -0.3169712E-03
 -0.4769372E-02  0.0000000E+00 -0.5050505E-02  0.4051885E-08  0.0000000E+00 -0.3169626E-03
 -0.4690458E-02  0.0000000E+00 -0.5050505E-02  0.3903510E-08  0.0000000E+00 -0.3169544E-03
 -0.4611543E-02  0.0000000E+00 -0.5050505E-02  0.3736846E-08  0.0000000E+00 -0.3169464E-03
 -0.4503035E-02  0.0000000E+00 -0.5050505E-02  0.3552326E-08  0.0000000E+00 -0.3169389E-03
 -0.4345206E-02  0.0000000E+00 -0.5050505E-02  0.3350472E-08  0.0000000E+00 -0.3169317E-03
 -0.4187378E-02  0.0000000E+00 -0.5050505E-02  0.3131903E-08  0.0000000E+00 -0.3169250E-03
 -0.3985156E-02  0.0000000E+00 -0.5050505E-02  0.2897328E-08  0.0000000E+00 -0.3169187E-03
 -0.3669499E-02  0.0000000E+00 -0.5050505E-02  0.2647545E-08  0.0000000E+00 -0.3169130E-03
 -0.3353842E-02  0.0000000E+00 -0.5050505E-02  0.2383436E-08  0.0000000E+00 -0.3169077E-03
 -0.2978990E-02  0.0000000E+00 -0.5050505E-02  0.2105962E-08  0.0000000E+00 -0.3169031E-03
 -0.2347676E-02  0.0000000E+00 -0.5050505E-02  0.1816157E-08  0.0000000E+00 -0.3168990E-03
 -0.1716362E-02  0.0000000E+00 -0.5050505E-02  0.1515119E-08  0.0000000E+00 -0.3168956E-03
 -0.1025842E-02  0.0000000E+00 -0.5050505E-02  0.1204002E-08  0.0000000E+00 -0.3168927E-03
  0.2367855E-03  0.0000000E+00 -0.5050505E-02  0.8840065E-09  0.0000000E+00 -0.3168906E-03
  0.1499413E-02  0.0000000E+00 -0.5050505E-02  0.5563674E-09  0.0000000E+00 -0.3168891E-03
  0.2762042E-02  0.0000000E+00 -0.5050505E-02  0.2223420E-09  0.0000000E+00 -0.3168883E-03
 -0.5050505E-02  0.0000000E+00 -0.5050505E-02 -0.1168021E-09  0.0000000E+00 -0.3168882E-03
 -0.5050505E-02  0.0000000E+00 -0.5050505E-02 -0.4598056E-09  0.0000000E+00 -0.3168888E-03
 -0.5050505E-02  0.0000000E+00 -0.5050505E-02 -0.8054216E-09  0.0000000E+00 -0.3168901E-03
 -0.5050505E-02  0.0000000E+00 -0.5050505E-02 -0.1152444E-08  0.0000000E+00 -0.3168921E-03
 -0.5050505E-02  0.0000000E+00 -0.5050505E-02 -0.1499718E-08  0.0000000E+00 -0.3168949E-03
 -0.5050505E-02  0.0000000E+00 -0.5050505E-02 -0.1846156E-08  0.0000000E+00 -0.3168983E-03
 -0.5050505E-02  0.0000000E+00 -0.5050505E-02 -0.2190757E-08  0.0000000E+00 -0.3169025E-03
 -0.5050504E-02  0.0000000E+00 -0.5050505E-02 -0.2532628E-08  0.0000000E+00 -0.3169074E-03
 -0.5050501E-02  0.0000000E+00 -0.5050505E-02 -0.2871001E-08  0.0000000E+00 -0.3169130E-03
 -0.5050495E-02  0.0000000E+00 -0.5050505E-02 -0.3205256E-08  0.0000000E+00 -0.3169193E-03
 -0.5050482E-02  0.0000000E+00 -0.5050505E-02 -0.3534945E-08  0.0000000E+00 -0.3169263E-03
 -0.5050449E-02  0.0000000E+00 -0.5050505E-02 -0.3859816E-08  0.0000000E+00 -0.3169340E-03
 -0.5050376E-02  0.0000000E+00 -0.5050505E-02 -0.4179847E-08  0.0000000E+00 -0.3169424E-03
 -0.5050299E-02  0.0000000E+00 -0.5050505E-02 -0.4495274E-08  0.0000000E+00 -0.3169514E-03
 -0.5050178E-02  0.0000000E+00 -0.5050505E-02 -0.4806632E-08  0.0000000E+00 -0.3169610E-03
 -0.5050018E-02  0.0000000E+00 -0.5050505E-02 -0.5114805E-08  0.0000000E+00 -0.3169713E-03
 -0.5049710E-02  0.0000000E+00 -0.5050505E-02 -0.5421075E-08  0.0000000E+00 -0.3169822E-03
 -0.5049253E-02  0.0000000E+00 -0.5050505E-02 -0.5727198E-08  0.0000000E+00 -0.3169938E-03
 -0.5048636E-02  0.0000000E+00 -0.5050505E-02 -0.6035486E-08  0.0000000E+00 -0.3170060E-03
 -0.5047442E-02  0.0000000E+00 -0.5050505E-02 -0.6348914E-08  0.0000000E+00 -0.3170189E-03
 -0.5045727E-02  0.0000000E+00 -0.5050505E-02 -0.6671260E-08  0.0000000E+00 -0.3170324E-03
 -0.5043261E-02  0.0000000E+00 -0.5050505E-02 -0.7007280E-08  0.0000000E+00 -0.3170466E-03
 -0.5038714E-02  0.0000000E+00 -0.5050505E-02 -0.7362937E-08  0.0000000E+00 -0.3170615E-03
 -0.5032318E-02  0.0000000E+00 -0.5050505E-02 -0.7745705E-08  0.0000000E+00 -0.3170772E-03
 -0.5022454E-02  0.0000000E+00 -0.5050505E-02 -0.8164965E-08  0.0000000E+00 -0.3170937E-03
 -0.5012589E-02  0.0000000E+00 -0.5050505E-02 -0.8632548E-08  0.0000000E+00 -0.3171111E-03
 -0.5002725E-02  0.0000000E+00 -0.5050505E-02 -0.9163457E-08  0.0000000E+00 -0.3171296E-03
 -0.4992860E-02  0.0000000E+00 -0.5050505E-02 -0.9776864E-08  0.0000000E+00 -0.3171493E-03
 -0.4976523E-02  0.0000000E+00 -0.5050505E-02 -0.1049750E-07  0.0000000E+00 -0.3171703E-03
 -0.4956794E-02  0.0000000E+00 -0.5050505E-02 -0.1135761E-07  0.0000000E+00 -0.3171930E-03
 -0.4937066E-02  0.0000000E+00 -0.5050505E-02 -0.1239974E-07  0.0000000E+00 -0.3172177E-03
 -0.4906239E-02  0.0000000E+00 -0.5050505E-02 -0.1368081E-07  0.0000000E+00 -0.3172447E-03
 -0.4866782E-02  0.0000000E+00 -0.5050505E-02 -0.1527811E-07  0.0000000E+00 -0.3172748E-03
 -0.4827325E-02  0.0000000E+00 -0.5050505E-02 -0.1729847E-07  0.0000000E+00 -0.3173086E-03
 -0.4769372E-02  0.0000000E+00 -0.5050505E-02 -0.1989224E-07  0.0000000E+00 -0.3173472E-03
 -0.4690458E-02  0.0000000E+00 -0.5050505E-02 -0.2327570E-07  0.0000000E+00 -0.3173920E-03
 -0.4611543E-02  0.0000000E+00 -0.5050505E-02 -0.2776748E-07  0.0000000E+00 -0.3174450E-03
 -0.4503035E-02  0.0000000E+00 -0.5050505E-02 -0.3384989E-07  0.0000000E+00 -0.3175090E-03
 -0.4345206E-02  0.0000000E+00 -0.5050505E-02 -0.4227626E-07  0.0000000E+00 -0.3175880E-03
 -0.4187378E-02  0.0000000E+00 -0.5050505E-02 -0.5426640E-07  0.0000000E+00 -0.3176882E-03
 -0.3985156E-02  0.0000000E+00 -0.5050505E-02 -0.7188052E-07  0.0000000E+00 -0.3178192E-03
 -0.3669499E-02  0.0000000E+00 -0.5050505E-02 -0.9877582E-07  0.0000000E+00 -0.3179963E-03
 -0.3353842E-02  0.0000000E+00 -0.5050505E-02 -0.1418402E-06  0.0000000E+00 -0.3182461E-03
 -0.2978990E-02  0.0000000E+00 -0.5050505E-02 -0.2149951E-06  0.0000000E+00 -0.3186165E-03
 -0.2347676E-02  0.0000000E+00 -0.5050505E-02 -0.3488297E-06  0.0000000E+00 -0.3192019E-03
 -0.1716362E-02  0.0000000E+00 -0.5050505E-02 -0.6173681E-06  0.0000000E+00 -0.3202050E-03
 -0.1025842E-02  0.0000000E+00 -0.5050505E-02 -0.1219914E-05  0.0000000E+00 -0.3221128E-03
  0.2367855E-03  0.0000000E+00 -0.5050505E-02 -0.2755863E-05  0.0000000E+00 -0.3262421E-03
  0.1499413E-02  0.0000000E+00 -0.5050505E-02 -0.7230357E-05  0.0000000E+00 -0.3366197E-03
  0.5287294E-02  0.0000000E+00 -0.5050505E-02 -0.1185547E-03  0.0000000E+00 -0.2685753E-03
 -0.5050505E-02  0.0000000E+00 -0.5050505E-02  0.3993728E-09  0.0000000E+00 -0.3170068E-03
 -0.5050505E-02  0.0000000E+00 -0.5050505E-02  0.1196984E-08  0.0000000E+00 -0.3170063E-03
 -0.5050505E-02  0.0000000E+00 -0.5050505E-02  0.1990920E-08  0.0000000E+00 -0.3170051E-03
 -0.5050505E-02  0.0000000E+00 -0.5050505E-02  0.2778705E-08  0.0000000E+00 -0.3170035E-03
 -0.5050505E-02  0.0000000E+00 -0.5050505E-02  0.3557893E-08  0.0000000E+00 -0.3170013E-03
 -0.5050505E-02  0.0000000E+00 -0.5050505E-02  0.4326033E-08  0.0000000E+00 -0.3169985E-03
 -0.5050504E-02  0.0000000E+00 -0.5050505E-02  0.5080677E-08  0.0000000E+00 -0.3169952E-03
 -0.5050501E-02  0.0000000E+00 -0.5050505E-02  0.5819370E-08  0.0000000E+00 -0.3169914E-03
 -0.5050495E-02  0.0000000E+00 -0.5050505E-02  0.6539675E-08  0.0000000E+00 -0.3169871E-03
 -0.5050482E-02  0.0000000E+00 -0.5050505E-02  0.7239159E-08  0.0000000E+00 -0.3169823E-03
 -0.5050449E-02  0.0000000E+00 -0.5050505E-02  0.7915396E-08  0.0000000E+00 -0.3169771E-03
 -0.5050376E-02  0.0000000E+00 -0.5050505E-02  0.8565976E-08  0.0000000E+00 -0.3169713E-03
 -0.5050299E-02  0.0000000E+00 -0.5050505E-02  0.9188511E-08  0.0000000E+00 -0.3169651E-03
 -0.5050178E-02  0.0000000E+00 -0.5050505E-02  0.9780636E-08  0.0000000E+00 -0.3169585E-03
 -0.5050018E-02  0.0000000E+00 -0.5050505E-02  0.1034002E-07  0.0000000E+00 -0.3169515E-03
 -0.5049710E-02  0.0000000E+00 -0.5050505E-02  0.1086435E-07  0.0000000E+00 -0.3169441E-03
 -0.5049253E-02  0.0000000E+00 -0.5050505E-02  0.1135140E-07  0.0000000E+00 -0.3169364E-03
 -0.5048636E-02  0.0000000E+00 -0.5050505E-02  0.1179896E-07  0.0000000E+00 -0.3169283E-03
 -0.5047442E-02  0.0000000E+00 -0.5050505E-02  0.1220490E-07  0.0000000E+00 -0.3169199E-03
 -0.5045727E-02  0.0000000E+00 -0.5050505E-02  0.1256718E-07  0.0000000E+00 -0.3169113E-03
 -0.5043261E-02  0.0000000E+00 -0.5050505E-02  0.1288381E-07  0.0000000E+00 -0.3169024E-03
 -0.5038714E-02  0.0000000E+00 -0.5050505E-02  0.1315295E-07  0.0000000E+00 -0.3168933E-03
 -0.5032318E-02  0.0000000E+00 -0.5050505E-02  0.1337284E-07  0.0000000E+00 -0.3168841E-03
 -0.5022454E-02  0.0000000E+00 -0.5050505E-02  0.1354185E-07  0.0000000E+00 -0.3168747E-03
 -0.5012589E-02  0.0000000E+00 -0.5050505E-02  0.1365852E-07  0.0000000E+00 -0.3168652E-03
 -0.5002725E-02  0.0000000E+00 -0.5050505E-02  0.1372151E-07  0.0000000E+00 -0.3168556E-03
 -0.4992860E-02  0.0000000E+00 -0.5050505E-02  0.1372969E-07  0.0000000E+00 -0.3168461E-03
 -0.4976523E-02  0.0000000E+00 -0.5050505E-02  0.1368209E-07  0.0000000E+00 -0.3168365E-03
 -0.4956794E-02  0.0000000E+00 -0.5050505E-02  0.1357795E-07  0.0000000E+00 -0.3168270E-03
 -0.4937066E-02  0.0000000E+00 -0.5050505E-02  0.1341674E-07  0.0000000E+00 -0.3168176E-03
 -0.4906239E-02  0.0000000E+00 -0.5050505E-02  0.1319814E-07  0.0000000E+00 -0.3168083E-03
 -0.4866782E-02  0.0000000E+00 -0.5050505E-02  0.1292210E-07  0.0000000E+00 -0.3167992E-03
 -0.4827325E-02  0.0000000E+00 -0.5050505E-02  0.1258881E-07  0.0000000E+00 -0.3167903E-03
 -0.4769372E-02  0.0000000E+00 -0.5050505E-02  0.1219871E-07  0.0000000E+00 -0.3167816E-03
 -0.4690458E-02  0.0000000E+00 -0.5050505E-02  0.1175255E-07  0.0000000E+00 -0.3167733E-03
 -0.4611543E-02  0.0000000E+00 -0.5050505E-02  0.1125134E-07  0.0000000E+00 -0.3167652E-03
 -0.4503035E-02  0.0000000E+00 -0.5050505E-02  0.1069636E-07  0.0000000E+00 -0.3167576E-03
 -0.4345206E-02  0.0000000E+00 -0.5050505E-02  0.1008920E-07  0.0000000E+00 -0.3167503E-03
 -0.4187378E-02  0.0000000E+00 -0.5050505E-02  0.9431710E-08  0.0000000E+00 -0.3167435E-03
 -0.3985156E-02  0.0000000E+00 -0.5050505E-02  0.8726032E-08  0.0000000E+00 -0.3167372E-03
 -0.3669499E-02  0.0000000E+00 -0.5050505E-02  0.7974566E-08  0.0000000E+00 -0.3167313E-03
 -0.3353842E-02  0.0000000E+00 -0.5050505E-02  0.7179969E-08  0.0000000E+00 -0.3167260E-03
 -0.2978990E-02  0.0000000E+00 -0.5050505E-02  0.6345136E-08  0.0000000E+00 -0.3167213E-03
 -0.2347676E-02  0.0000000E+00 -0.5050505E-02  0.5473183E-08  0.0000000E+00 -0.3167172E-03
 -0.1716362E-02  0.0000000E+00 -0.5050505E-02  0.4567421E-08  0.0000000E+00 -0.3167137E-03
 -0.1025842E-02  0.0000000E+00 -0.5050505E-02  0.3631330E-08  0.0000000E+00 -0.3167108E-03
  0.2367855E-03  0.0000000E+00 -0.5050505E-02  0.2668530E-08  0.0000000E+00 -0.3167086E-03
  0.1499413E-02  0.0000000E+00 -0.5050505E-02  0.1682746E-08  0.0000000E+00 -0.3167071E-03
  0.2762042E-02  0.0000000E+00 -0.5050505E-02  0.6777697E-09  0.0000000E+00 -0.3167062E-03
 -0.5050505E-02  0.0000000E+00 -0.5050505E-02 -0.3425697E-09  0.0000000E+00 -0.3167061E-03
 -0.5050505E-02  0.0000000E+00 -0.5050505E-02 -0.1374470E-08  0.0000000E+00 -0.3167067E-03
 -0.5050505E-02  0.0000000E+00 -0.5050505E-02 -0.2414171E-08  0.0000000E+00 -0.3167080E-03
 -0.5050505E-02  0.0000000E+00 -0.5050505E-02 -0.3458026E-08  0.0000000E+00 -0.3167100E-03
 -0.5050505E-02  0.0000000E+00 -0.5050505E-02 -0.4502542E-08  0.0000000E+00 -0.3167128E-03
 -0.5050505E-02  0.0000000E+00 -0.5050505E-02 -0.5544431E-08  0.0000000E+00 -0.3167163E-03
 -0.5050505E-02  0.0000000E+00 -0.5050505E-02 -0.6580666E-08  0.0000000E+00 -0.3167205E-03
 -0.5050504E-02  0.0000000E+00 -0.5050505E-02 -0.7608531E-08  0.0000000E+00 -0.3167254E-03
 -0.5050501E-02  0.0000000E+00 -0.5050505E-02 -0.8625696E-08  0.0000000E+00 -0.3167311E-03
 -0.5050495E-02  0.0000000E+00 -0.5050505E-02 -0.9630271E-08  0.0000000E+00 -0.3167374E-03
 -0.5050482E-02  0.0000000E+00 -0.5050505E-02 -0.1062087E-07  0.0000000E+00 -0.3167444E-03
 -0.5050449E-02  0.0000000E+00 -0.5050505E-02 -0.1159672E-07  0.0000000E+00 -0.3167522E-03
 -0.5050376E-02  0.0000000E+00 -0.5050505E-02 -0.1255769E-07  0.0000000E+00 -0.3167606E-03
 -0.5050299E-02  0.0000000E+00 -0.5050505E-02 -0.1350445E-07  0.0000000E+00 -0.3167696E-03
 -0.5050178E-02  0.0000000E+00 -0.5050505E-02 -0.1443856E-07  0.0000000E+00 -0.3167793E-03
 -0.5050018E-02  0.0000000E+00 -0.5050505E-02 -0.1536260E-07  0.0000000E+00 -0.3167897E-03
 -0.5049710E-02  0.0000000E+00 -0.5050505E-02 -0.1628035E-07  0.0000000E+00 -0.3168007E-03
 -0.5049253E-02  0.0000000E+00 -0.5050505E-02 -0.1719698E-07  0.0000000E+00 -0.3168123E-03
 -0.5048636E-02  0.0000000E+00 -0.5050505E-02 -0.1811932E-07  0.0000000E+00 -0.3168246E-03
 -0.5047442E-02  0.0000000E+00 -0.5050505E-02 -0.1905615E-07  0.0000000E+00 -0.3168375E-03
 -0.5045727E-02  0.0000000E+00 -0.5050505E-02 -0.2001862E-07  0.0000000E+00 -0.3168510E-03
 -0.5043261E-02  0.0000000E+00 -0.5050505E-02 -0.2102077E-07  0.0000000E+00 -0.3168652E-03
 -0.5038714E-02  0.0000000E+00 -0.5050505E-02 -0.2208018E-07  0.0000000E+00 -0.3168802E-03
 -0.5032318E-02  0.0000000E+00 -0.5050505E-02 -0.2321887E-07  0.0000000E+00 -0.3168958E-03
 -0.5022454E-02  0.0000000E+00 -0.5050505E-02 -0.2446446E-07  0.0000000E+00 -0.3169123E-03
 -0.5012589E-02  0.0000000E+00 -0.5050505E-02 -0.2585169E-07  0.0000000E+00 -0.3169297E-03
 -0.5002725E-02  0.0000000E+00 -0.5050505E-02 -0.2742460E-07  0.0000000E+00 -0.3169481E-03
 -0.4992860E-02  0.0000000E+00 -0.5050505E-02 -0.2923932E-07  0.0000000E+00 -0.3169676E-03
 -0.4976523E-02  0.0000000E+00 -0.5050505E-02 -0.3136812E-07  0.0000000E+00 -0.3169885E-03
 -0.4956794E-02  0.0000000E+00 -0.5050505E-02 -0.3390495E-07  0.0000000E+00 -0.3170109E-03
 -0.4937066E-02  0.0000000E+00 -0.5050505E-02 -0.3697346E-07  0.0000000E+00 -0.3170352E-03
 -0.4906239E-02  0.0000000E+00 -0.5050505E-02 -0.4073846E-07  0.0000000E+00 -0.3170618E-03
 -0.4866782E-02  0.0000000E+00 -0.5050505E-02 -0.4542295E-07  0.0000000E+00 -0.3170911E-03
 -0.4827325E-02  0.0000000E+00 -0.5050505E-02 -0.5133351E-07  0.0000000E+00 -0.3171240E-03
 -0.4769372E-02  0.0000000E+00 -0.5050505E-02 -0.5889942E-07  0.0000000E+00 -0.3171613E-03
 -0.4690458E-02  0.0000000E+00 -0.5050505E-02 -0.6873392E-07  0.0000000E+00 -0.3172042E-03
 -0.4611543E-02  0.0000000E+00 -0.5050505E-02 -0.8173298E-07  0.0000000E+00 -0.3172545E-03
 -0.4503035E-02  0.0000000E+00 -0.5050505E-02 -0.9923913E-07  0.0000000E+00 -0.3173146E-03
 -0.4345206E-02  0.0000000E+00 -0.5050505E-02 -0.1233223E-06  0.0000000E+00 -0.3173877E-03
 -0.4187378E-02  0.0000000E+00 -0.5050505E-02 -0.1572786E-06  0.0000000E+00 -0.3174787E-03
 -0.3985156E-02  0.0000000E+00 -0.5050505E-02 -0.2065552E-06  0.0000000E+00 -0.3175947E-03
 -0.3669499E-02  0.0000000E+00 -0.5050505E-02 -0.2805407E-06  0.0000000E+00 -0.3177464E-03
 -0.3353842E-02  0.0000000E+00 -0.5050505E-02 -0.3962185E-06  0.0000000E+00 -0.3179498E-03
 -0.2978990E-02  0.0000000E+00 -0.5050505E-02 -0.5860374E-06  0.0000000E+00 -0.3182293E-03
 -0.2347676E-02  0.0000000E+00 -0.5050505E-02 -0.9159019E-06  0.0000000E+00 -0.3186190E-03
 -0.1716362E-02  0.0000000E+00 -0.5050505E-02 -0.1528855E-05  0.0000000E+00 -0.3191529E-03
 -0.1025842E-02  0.0000000E+00 -0.5050505E-02 -0.2757584E-05  0.0000000E+00 -0.3197923E-03
  0.2367855E-03  0.0000000E+00 -0.5050505E-02 -0.5430037E-05  0.0000000E+00 -0.3200474E-03
  0.1499413E-02  0.0000000E+00 -0.5050505E-02 -0.1173575E-04  0.0000000E+00 -0.3171667E-03
  0.5287294E-02  0.0000000E+00 -0.5050505E-02 -0.2774545E-04  0.0000000E+00 -0.2976182E-03
 -0.5050505E-02  0.0000000E+00 -0.5050505E-02  0.6696483E-09  0.0000000E+00 -0.3166568E-03
 -0.5050505E-02  0.0000000E+00 -0.5050505E-02  0.2007005E-08  0.0000000E+00 -0.3166563E-03
 -0.5050505E-02  0.0000000E+00 -0.5050505E-02  0.3338219E-08  0.0000000E+00 -0.3166551E-03
 -0.5050505E-02  0.0000000E+00 -0.5050505E-02  0.4659149E-08  0.0000000E+00 -0.3166534E-03
 -0.5050505E-02  0.0000000E+00 -0.5050505E-02  0.5965694E-08  0.0000000E+00 -0.3166512E-03
 -0.5050505E-02  0.0000000E+00 -0.5050505E-02  0.7253758E-08  0.0000000E+00 -0.3166484E-03
 -0.5050504E-02  0.0000000E+00 -0.5050505E-02  0.8519242E-08  0.0000000E+00 -0.3166450E-03
 -0.5050501E-02  0.0000000E+00 -0.5050505E-02  0.9758039E-08  0.0000000E+00 -0.3166412E-03
 -0.5050495E-02  0.0000000E+00 -0.5050505E-02  0.1096607E-07  0.0000000E+00 -0.3166368E-03
 -0.5050482E-02  0.0000000E+00 -0.5050505E-02  0.1213926E-07  0.0000000E+00 -0.3166319E-03
 -0.5050449E-02  0.0000000E+00 -0.5050505E-02  0.1327354E-07  0.0000000E+00 -0.3166265E-03
 -0.5050376E-02  0.0000000E+00 -0.5050505E-02  0.1436488E-07  0.0000000E+00 -0.3166206E-03
 -0.5050299E-02  0.0000000E+00 -0.5050505E-02  0.1540929E-07  0.0000000E+00 -0.3166143E-03
 -0.5050178E-02  0.0000000E+00 -0.5050505E-02  0.1640279E-07  0.0000000E+00 -0.3166075E-03
 -0.5050018E-02  0.0000000E+00 -0.5050505E-02  0.1734147E-07  0.0000000E+00 -0.3166004E-03
 -0.5049710E-02  0.0000000E+00 -0.5050505E-02  0.1822147E-07  0.0000000E+00 -0.3165928E-03
 -0.5049253E-02  0.0000000E+00 -0.5050505E-02  0.1903904E-07  0.0000000E+00 -0.3165849E-03
 -0.5048636E-02  0.0000000E+00 -0.5050505E-02  0.1979047E-07  0.0000000E+00 -0.3165767E-03
 -0.5047442E-02  0.0000000E+00 -0.5050505E-02  0.2047220E-07  0.0000000E+00 -0.3165681E-03
 -0.5045727E-02  0.0000000E+00 -0.5050505E-02  0.2108077E-07  0.0000000E+00 -0.3165593E-03
 -0.5043261E-02  0.0000000E+00 -0.5050505E-02  0.2161289E-07  0.0000000E+00 -0.3165502E-03
 -0.5038714E-02  0.0000000E+00 -0.5050505E-02  0.2206542E-07  0.0000000E+00 -0.3165409E-03
 -0.5032318E-02  0.0000000E+00 -0.5050505E-02  0.2243541E-07  0.0000000E+00 -0.3165315E-03
 -0.5022454E-02  0.0000000E+00 -0.5050505E-02  0.2272014E-07  0.0000000E+00 -0.3165219E-03
 -0.5012589E-02  0.0000000E+00 -0.5050505E-02  0.2291711E-07  0.0000000E+00 -0.3165122E-03
 -0.5002725E-02  0.0000000E+00 -0.5050505E-02  0.2302410E-07  0.0000000E+00 -0.3165024E-03
 -0.4992860E-02  0.0000000E+00 -0.5050505E-02  0.2303917E-07  0.0000000E+00 -0.3164926E-03
 -0.4976523E-02  0.0000000E+00 -0.5050505E-02  0.2296069E-07  0.0000000E+00 -0.3164829E-03
 -0.4956794E-02  0.0000000E+00 -0.5050505E-02  0.2278739E-07  0.0000000E+00 -0.3164731E-03
 -0.4937066E-02  0.0000000E+00 -0.5050505E-02  0.2251834E-07  0.0000000E+00 -0.3164635E-03
 -0.4906239E-02  0.0000000E+00 -0.5050505E-02  0.2215301E-07  0.0000000E+00 -0.3164540E-03
 -0.4866782E-02  0.0000000E+00 -0.5050505E-02  0.2169129E-07  0.0000000E+00 -0.3164447E-03
 -0.4827325E-02  0.0000000E+00 -0.5050505E-02  0.2113348E-07  0.0000000E+00 -0.3164356E-03
 -0.4769372E-02  0.0000000E+00 -0.5050505E-02  0.2048035E-07  0.0000000E+00 -0.3164267E-03
 -0.4690458E-02  0.0000000E+00 -0.5050505E-02  0.1973310E-07  0.0000000E+00 -0.3164181E-03
 -0.4611543E-02  0.0000000E+00 -0.5050505E-02  0.1889343E-07  0.0000000E+00 -0.3164099E-03
 -0.4503035E-02  0.0000000E+00 -0.5050505E-02  0.1796349E-07  0.0000000E+00 -0.3164021E-03
 -0.4345206E-02  0.0000000E+00 -0.5050505E-02  0.1694594E-07  0.0000000E+00 -0.3163946E-03
 -0.4187378E-02  0.0000000E+00 -0.5050505E-02  0.1584388E-07  0.0000000E+00 -0.3163876E-03
 -0.3985156E-02  0.0000000E+00 -0.5050505E-02  0.1466091E-07  0.0000000E+00 -0.3163811E-03
 -0.3669499E-02  0.0000000E+00 -0.5050505E-02  0.1340105E-07  0.0000000E+00 -0.3163751E-03
 -0.3353842E-02  0.0000000E+00 -0.5050505E-02  0.1206878E-07  0.0000000E+00 -0.3163697E-03
 -0.2978990E-02  0.0000000E+00 -0.5050505E-02  0.1066896E-07  0.0000000E+00 -0.3163648E-03
 -0.2347676E-02  0.0000000E+00 -0.5050505E-02  0.9206828E-08  0.0000000E+00 -0.3163606E-03
 -0.1716362E-02  0.0000000E+00 -0.5050505E-02  0.7687967E-08  0.0000000E+00 -0.3163570E-03
 -0.1025842E-02  0.0000000E+00 -0.5050505E-02  0.6118232E-08  0.0000000E+00 -0.3163540E-03
  0.2367855E-03  0.0000000E+00 -0.5050505E-02  0.4503723E-08  0.0000000E+00 -0.3163517E-03
  0.1499413E-02  0.0000000E+00 -0.5050505E-02  0.2850717E-08  0.0000000E+00 -0.3163501E-03
  0.2762042E-02  0.0000000E+00 -0.5050505E-02  0.1165609E-08  0.0000000E+00 -0.3163492E-03
 -0.5050505E-02  0.0000000E+00 -0.5050505E-02 -0.5451429E-09  0.0000000E+00 -0.3163491E-03
 -0.5050505E-02  0.0000000E+00 -0.5050505E-02 -0.2275116E-08  0.0000000E+00 -0.3163496E-03
 -0.5050505E-02  0.0000000E+00 -0.5050505E-02 -0.4017965E-08  0.0000000E+00 -0.3163509E-03
 -0.5050505E-02  0.0000000E+00 -0.5050505E-02 -0.5767522E-08  0.0000000E+00 -0.3163530E-03
 -0.5050505E-02  0.0000000E+00 -0.5050505E-02 -0.7517876E-08  0.0000000E+00 -0.3163557E-03
 -0.5050505E-02  0.0000000E+00 -0.5050505E-02 -0.9263455E-08  0.0000000E+00 -0.3163593E-03
 -0.5050505E-02  0.0000000E+00 -0.5050505E-02 -0.1099912E-07  0.0000000E+00 -0.3163635E-03
 -0.5050504E-02  0.0000000E+00 -0.5050505E-02 -0.1272025E-07  0.0000000E+00 -0.3163685E-03
 -0.5050501E-02  0.0000000E+00 -0.5050505E-02 -0.1442285E-07  0.0000000E+00 -0.3163742E-03
 -0.5050495E-02  0.0000000E+00 -0.5050505E-02 -0.1610368E-07  0.0000000E+00 -0.3163806E-03
 -0.5050482E-02  0.0000000E+00 -0.5050505E-02 -0.1776031E-07  0.0000000E+00 -0.3163878E-03
 -0.5050449E-02  0.0000000E+00 -0.5050505E-02 -0.1939131E-07  0.0000000E+00 -0.3163956E-03
 -0.5050376E-02  0.0000000E+00 -0.5050505E-02 -0.2099636E-07  0.0000000E+00 -0.3164041E-03
 -0.5050299E-02  0.0000000E+00 -0.5050505E-02 -0.2257641E-07  0.0000000E+00 -0.3164132E-03
 -0.5050178E-02  0.0000000E+00 -0.5050505E-02 -0.2413388E-07  0.0000000E+00 -0.3164231E-03
 -0.5050018E-02  0.0000000E+00 -0.5050505E-02 -0.2567288E-07  0.0000000E+00 -0.3164335E-03
 -0.5049710E-02  0.0000000E+00 -0.5050505E-02 -0.2719947E-07  0.0000000E+00 -0.3164446E-03
 -0.5049253E-02  0.0000000E+00 -0.5050505E-02 -0.2872196E-07  0.0000000E+00 -0.3164564E-03
 -0.5048636E-02  0.0000000E+00 -0.5050505E-02 -0.3025136E-07  0.0000000E+00 -0.3164687E-03
 -0.5047442E-02  0.0000000E+00 -0.5050505E-02 -0.3180187E-07  0.0000000E+00 -0.3164817E-03
 -0.5045727E-02  0.0000000E+00 -0.5050505E-02 -0.3339148E-07  0.0000000E+00 -0.3164953E-03
 -0.5043261E-02  0.0000000E+00 -0.5050505E-02 -0.3504283E-07  0.0000000E+00 -0.3165096E-03
 -0.5038714E-02  0.0000000E+00 -0.5050505E-02 -0.3678426E-07  0.0000000E+00 -0.3165246E-03
 -0.5032318E-02  0.0000000E+00 -0.5050505E-02 -0.3865116E-07  0.0000000E+00 -0.3165403E-03
 -0.5022454E-02  0.0000000E+00 -0.5050505E-02 -0.4068784E-07  0.0000000E+00 -0.3165567E-03
 -0.5012589E-02  0.0000000E+00 -0.5050505E-02 -0.4294990E-07  0.0000000E+00 -0.3165740E-03
 -0.5002725E-02  0.0000000E+00 -0.5050505E-02 -0.4550753E-07  0.0000000E+00 -0.3165922E-03
 -0.4992860E-02  0.0000000E+00 -0.5050505E-02 -0.4844992E-07  0.0000000E+00 -0.3166115E-03
 -0.4976523E-02  0.0000000E+00 -0.5050505E-02 -0.5189135E-07  0.0000000E+00 -0.3166320E-03
 -0.4956794E-02  0.0000000E+00 -0.5050505E-02 -0.5597969E-07  0.0000000E+00 -0.3166539E-03
 -0.4937066E-02  0.0000000E+00 -0.5050505E-02 -0.6090836E-07  0.0000000E+00 -0.3166775E-03
 -0.4906239E-02  0.0000000E+00 -0.5050505E-02 -0.6693345E-07  0.0000000E+00 -0.3167031E-03
 -0.4866782E-02  0.0000000E+00 -0.5050505E-02 -0.7439870E-07  0.0000000E+00 -0.3167312E-03
 -0.4827325E-02  0.0000000E+00 -0.5050505E-02 -0.8377236E-07  0.0000000E+00 -0.3167622E-03
 -0.4769372E-02  0.0000000E+00 -0.5050505E-02 -0.9570279E-07  0.0000000E+00 -0.3167970E-03
 -0.4690458E-02  0.0000000E+00 -0.5050505E-02 -0.1111039E-06  0.0000000E+00 -0.3168365E-03
 -0.4611543E-02  0.0000000E+00 -0.5050505E-02 -0.1312897E-06  0.0000000E+00 -0.3168819E-03
 -0.4503035E-02  0.0000000E+00 -0.5050505E-02 -0.1581897E-06  0.0000000E+00 -0.3169348E-03
 -0.4345206E-02  0.0000000E+00 -0.5050505E-02 -0.1947058E-06  0.0000000E+00 -0.3169974E-03
 -0.4187378E-02  0.0000000E+00 -0.5050505E-02 -0.2453141E-06  0.0000000E+00 -0.3170724E-03
 -0.3985156E-02  0.0000000E+00 -0.5050505E-02 -0.3171119E-06  0.0000000E+00 -0.3171633E-03
 -0.3669499E-02  0.0000000E+00 -0.5050505E-02 -0.4216822E-06  0.0000000E+00 -0.3172739E-03
 -0.3353842E-02  0.0000000E+00 -0.5050505E-02 -0.5784871E-06  0.0000000E+00 -0.3174075E-03
 -0.2978990E-02  0.0000000E+00 -0.5050505E-02 -0.8211057E-06  0.0000000E+00 -0.3175633E-03
 -0.2347676E-02  0.0000000E+00 -0.5050505E-02 -0.1208543E-05  0.0000000E+00 -0.3177248E-03
 -0.1716362E-02  0.0000000E+00 -0.5050505E-02 -0.1844205E-05  0.0000000E+00 -0.3178278E-03
 -0.1025842E-02  0.0000000E+00 -0.5050505E-02 -0.2899178E-05  0.0000000E+00 -0.3176738E-03
  0.2367855E-03  0.0000000E+00 -0.5050505E-02 -0.4594458E-05  0.0000000E+00 -0.3167217E-03
  0.1499413E-02  0.0000000E+00 -0.5050505E-02 -0.6878041E-05  0.0000000E+00 -0.3137524E-03
  0.5287294E-02  0.0000000E+00 -0.5050505E-02 -0.7498591E-05  0.0000000E+00 -0.3074823E-03
 -0.5050505E-02  0.0000000E+00 -0.5050505E-02  0.9462054E-09  0.0000000E+00 -0.3161422E-03
 -0.5050505E-02  0.0000000E+00 -0.5050505E-02  0.2835850E-08  0.0000000E+00 -0.3161416E-03
 -0.5050505E-02  0.0000000E+00 -0.5050505E-02  0.4716847E-08  0.0000000E+00 -0.3161404E-03
 -0.5050505E-02  0.0000000E+00 -0.5050505E-02  0.6583365E-08  0.0000000E+00 -0.3161387E-03
 -0.5050505E-02  0.0000000E+00 -0.5050505E-02  0.8429630E-08  0.0000000E+00 -0.3161363E-03
 -0.5050505E-02  0.0000000E+00 -0.5050505E-02  0.1024987E-07  0.0000000E+00 -0.3161334E-03
 -0.5050504E-02  0.0000000E+00 -0.5050505E-02  0.1203830E-07  0.0000000E+00 -0.3161300E-03
 -0.5050501E-02  0.0000000E+00 -0.5050505E-02  0.1378915E-07  0.0000000E+00 -0.3161260E-03
 -0.5050495E-02  0.0000000E+00 -0.5050505E-02  0.1549666E-07  0.0000000E+00 -0.3161215E-03
 -0.5050482E-02  0.0000000E+00 -0.5050505E-02  0.1715509E-07  0.0000000E+00 -0.3161164E-03
 -0.5050449E-02  0.0000000E+00 -0.5050505E-02  0.1875871E-07  0.0000000E+00 -0.3161109E-03
 -0.5050376E-02  0.0000000E+00 -0.5050505E-02  0.2030182E-07  0.0000000E+00 -0.3161048E-03
 -0.5050299E-02  0.0000000E+00 -0.5050505E-02  0.2177877E-07  0.0000000E+00 -0.3160983E-03
 -0.5050178E-02  0.0000000E+00 -0.5050505E-02  0.2318398E-07  0.0000000E+00 -0.3160914E-03
 -0.5050018E-02  0.0000000E+00 -0.5050505E-02  0.2451191E-07  0.0000000E+00 -0.3160840E-03
 -0.5049710E-02  0.0000000E+00 -0.5050505E-02  0.2575712E-07  0.0000000E+00 -0.3160762E-03
 -0.5049253E-02  0.0000000E+00 -0.5050505E-02  0.2691426E-07  0.0000000E+00 -0.3160681E-03
 -0.5048636E-02  0.0000000E+00 -0.5050505E-02  0.2797813E-07  0.0000000E+00 -0.3160596E-03
 -0.5047442E-02  0.0000000E+00 -0.5050505E-02  0.2894367E-07  0.0000000E+00 -0.3160507E-03
 -0.5045727E-02  0.0000000E+00 -0.5050505E-02  0.2980599E-07  0.0000000E+00 -0.3160416E-03
 -0.5043261E-02  0.0000000E+00 -0.5050505E-02  0.3056041E-07  0.0000000E+00 -0.3160323E-03
 -0.5038714E-02  0.0000000E+00 -0.5050505E-02  0.3120247E-07  0.0000000E+00 -0.3160227E-03
 -0.5032318E-02  0.0000000E+00 -0.5050505E-02  0.3172801E-07  0.0000000E+00 -0.3160130E-03
 -0.5022454E-02  0.0000000E+00 -0.5050505E-02  0.3213314E-07  0.0000000E+00 -0.3160031E-03
 -0.5012589E-02  0.0000000E+00 -0.5050505E-02  0.3241431E-07  0.0000000E+00 -0.3159930E-03
 -0.5002725E-02  0.0000000E+00 -0.5050505E-02  0.3256836E-07  0.0000000E+00 -0.3159830E-03
 -0.4992860E-02  0.0000000E+00 -0.5050505E-02  0.3259250E-07  0.0000000E+00 -0.3159728E-03
 -0.4976523E-02  0.0000000E+00 -0.5050505E-02  0.3248443E-07  0.0000000E+00 -0.3159627E-03
 -0.4956794E-02  0.0000000E+00 -0.5050505E-02  0.3224231E-07  0.0000000E+00 -0.3159527E-03
 -0.4937066E-02  0.0000000E+00 -0.5050505E-02  0.3186479E-07  0.0000000E+00 -0.3159427E-03