title = "dataset feddes"
variables = "x", "y", "z", "vx", "vy", "vz"
zone t = "velocities, solution time =  3.500E+01 days        " i =   99, j =   99, k =    1,  f=point
 -0.5050505E-02  0.0000000E+00 -0.5050505E-02  0.6603225E-09  0.0000000E+00 -0.2810736E-03
 -0.5050505E-02  0.0000000E+00 -0.5050505E-02  0.1979094E-08  0.0000000E+00 -0.2810709E-03
 -0.5050505E-02  0.0000000E+00 -0.5050505E-02  0.3292170E-08  0.0000000E+00 -0.2810655E-03
 -0.5050505E-02  0.0000000E+00 -0.5050505E-02  0.4595748E-08  0.0000000E+00 -0.2810573E-03
 -0.5050505E-02  0.0000000E+00 -0.5050505E-02  0.5886029E-08  0.0000000E+00 -0.2810465E-03
 -0.5050505E-02  0.0000000E+00 -0.5050505E-02  0.7159210E-08  0.0000000E+00 -0.2810330E-03
 -0.5050504E-02  0.0000000E+00 -0.5050505E-02  0.8411485E-08  0.0000000E+00 -0.2810169E-03
 -0.5050501E-02  0.0000000E+00 -0.5050505E-02  0.9639048E-08  0.0000000E+00 -0.2809982E-03
 -0.5050495E-02  0.0000000E+00 -0.5050505E-02  0.1083809E-07  0.0000000E+00 -0.2809771E-03
 -0.5050482E-02  0.0000000E+00 -0.5050505E-02  0.1200481E-07  0.0000000E+00 -0.2809534E-03
 -0.5050449E-02  0.0000000E+00 -0.5050505E-02  0.1313541E-07  0.0000000E+00 -0.2809275E-03
 -0.5050376E-02  0.0000000E+00 -0.5050505E-02  0.1422609E-07  0.0000000E+00 -0.2808992E-03
 -0.5050299E-02  0.0000000E+00 -0.5050505E-02  0.1527308E-07  0.0000000E+00 -0.2808687E-03
 -0.5050178E-02  0.0000000E+00 -0.5050505E-02  0.1627263E-07  0.0000000E+00 -0.2808361E-03
 -0.5050018E-02  0.0000000E+00 -0.5050505E-02  0.1722101E-07  0.0000000E+00 -0.2808014E-03
 -0.5049710E-02  0.0000000E+00 -0.5050505E-02  0.1811454E-07  0.0000000E+00 -0.2807649E-03
 -0.5049253E-02  0.0000000E+00 -0.5050505E-02  0.1894959E-07  0.0000000E+00 -0.2807266E-03
 -0.5048636E-02  0.0000000E+00 -0.5050505E-02  0.1972258E-07  0.0000000E+00 -0.2806866E-03
 -0.5047442E-02  0.0000000E+00 -0.5050505E-02  0.2043002E-07  0.0000000E+00 -0.2806451E-03
 -0.5045727E-02  0.0000000E+00 -0.5050505E-02  0.2106853E-07  0.0000000E+00 -0.2806022E-03
 -0.5043261E-02  0.0000000E+00 -0.5050505E-02  0.2163481E-07  0.0000000E+00 -0.2805581E-03
 -0.5038714E-02  0.0000000E+00 -0.5050505E-02  0.2212571E-07  0.0000000E+00 -0.2805128E-03
 -0.5032318E-02  0.0000000E+00 -0.5050505E-02  0.2253824E-07  0.0000000E+00 -0.2804667E-03
 -0.5022454E-02  0.0000000E+00 -0.5050505E-02  0.2286959E-07  0.0000000E+00 -0.2804197E-03
 -0.5012589E-02  0.0000000E+00 -0.5050505E-02  0.2311712E-07  0.0000000E+00 -0.2803722E-03
 -0.5002725E-02  0.0000000E+00 -0.5050505E-02  0.2327847E-07  0.0000000E+00 -0.2803242E-03
 -0.4992860E-02  0.0000000E+00 -0.5050505E-02  0.2335150E-07  0.0000000E+00 -0.2802760E-03
 -0.4976523E-02  0.0000000E+00 -0.5050505E-02  0.2333436E-07  0.0000000E+00 -0.2802278E-03
 -0.4956794E-02  0.0000000E+00 -0.5050505E-02  0.2322554E-07  0.0000000E+00 -0.2801797E-03
 -0.4937066E-02  0.0000000E+00 -0.5050505E-02  0.2302385E-07  0.0000000E+00 -0.2801319E-03
 -0.4906239E-02  0.0000000E+00 -0.5050505E-02  0.2272849E-07  0.0000000E+00 -0.2800846E-03
 -0.4866782E-02  0.0000000E+00 -0.5050505E-02  0.2233906E-07  0.0000000E+00 -0.2800380E-03
 -0.4827325E-02  0.0000000E+00 -0.5050505E-02  0.2185560E-07  0.0000000E+00 -0.2799923E-03
 -0.4769372E-02  0.0000000E+00 -0.5050505E-02  0.2127860E-07  0.0000000E+00 -0.2799477E-03
 -0.4690458E-02  0.0000000E+00 -0.5050505E-02  0.2060904E-07  0.0000000E+00 -0.2799044E-03
 -0.4611543E-02  0.0000000E+00 -0.5050505E-02  0.1984843E-07  0.0000000E+00 -0.2798626E-03
 -0.4503035E-02  0.0000000E+00 -0.5050505E-02  0.1899879E-07  0.0000000E+00 -0.2798224E-03
 -0.4345206E-02  0.0000000E+00 -0.5050505E-02  0.1806266E-07  0.0000000E+00 -0.2797841E-03
 -0.4187378E-02  0.0000000E+00 -0.5050505E-02  0.1704317E-07  0.0000000E+00 -0.2797479E-03
 -0.3985156E-02  0.0000000E+00 -0.5050505E-02  0.1594397E-07  0.0000000E+00 -0.2797138E-03
 -0.3669499E-02  0.0000000E+00 -0.5050505E-02  0.1476927E-07  0.0000000E+00 -0.2796820E-03
 -0.3353842E-02  0.0000000E+00 -0.5050505E-02  0.1352382E-07  0.0000000E+00 -0.2796528E-03
 -0.2978990E-02  0.0000000E+00 -0.5050505E-02  0.1221286E-07  0.0000000E+00 -0.2796262E-03
 -0.2347676E-02  0.0000000E+00 -0.5050505E-02  0.1084216E-07  0.0000000E+00 -0.2796023E-03
 -0.1716362E-02  0.0000000E+00 -0.5050505E-02  0.9417926E-08  0.0000000E+00 -0.2795814E-03
 -0.1025842E-02  0.0000000E+00 -0.5050505E-02  0.7946770E-08  0.0000000E+00 -0.2795634E-03
  0.2367855E-03  0.0000000E+00 -0.5050505E-02  0.6435678E-08  0.0000000E+00 -0.2795486E-03
  0.1499413E-02  0.0000000E+00 -0.5050505E-02  0.4891944E-08  0.0000000E+00 -0.2795369E-03
  0.2762042E-02  0.0000000E+00 -0.5050505E-02  0.3323107E-08  0.0000000E+00 -0.2795284E-03
 -0.5050505E-02  0.0000000E+00 -0.5050505E-02  0.1736884E-08  0.0000000E+00 -0.2795232E-03
 -0.5050505E-02  0.0000000E+00 -0.5050505E-02  0.1411015E-09  0.0000000E+00 -0.2795212E-03
 -0.5050505E-02  0.0000000E+00 -0.5050505E-02 -0.1456378E-08  0.0000000E+00 -0.2795226E-03
 -0.5050505E-02  0.0000000E+00 -0.5050505E-02 -0.3047731E-08  0.0000000E+00 -0.2795272E-03
 -0.5050505E-02  0.0000000E+00 -0.5050505E-02 -0.4625251E-08  0.0000000E+00 -0.2795352E-03
 -0.5050505E-02  0.0000000E+00 -0.5050505E-02 -0.6181415E-08  0.0000000E+00 -0.2795463E-03
 -0.5050505E-02  0.0000000E+00 -0.5050505E-02 -0.7708966E-08  0.0000000E+00 -0.2795607E-03
 -0.5050504E-02  0.0000000E+00 -0.5050505E-02 -0.9200970E-08  0.0000000E+00 -0.2795782E-03
 -0.5050501E-02  0.0000000E+00 -0.5050505E-02 -0.1065089E-07  0.0000000E+00 -0.2795987E-03
 -0.5050495E-02  0.0000000E+00 -0.5050505E-02 -0.1205263E-07  0.0000000E+00 -0.2796221E-03
 -0.5050482E-02  0.0000000E+00 -0.5050505E-02 -0.1340062E-07  0.0000000E+00 -0.2796485E-03
 -0.5050449E-02  0.0000000E+00 -0.5050505E-02 -0.1468985E-07  0.0000000E+00 -0.2796775E-03
 -0.5050376E-02  0.0000000E+00 -0.5050505E-02 -0.1591593E-07  0.0000000E+00 -0.2797091E-03
 -0.5050299E-02  0.0000000E+00 -0.5050505E-02 -0.1707511E-07  0.0000000E+00 -0.2797432E-03
 -0.5050178E-02  0.0000000E+00 -0.5050505E-02 -0.1816437E-07  0.0000000E+00 -0.2797796E-03
 -0.5050018E-02  0.0000000E+00 -0.5050505E-02 -0.1918144E-07  0.0000000E+00 -0.2798182E-03
 -0.5049710E-02  0.0000000E+00 -0.5050505E-02 -0.2012486E-07  0.0000000E+00 -0.2798589E-03
 -0.5049253E-02  0.0000000E+00 -0.5050505E-02 -0.2099405E-07  0.0000000E+00 -0.2799014E-03
 -0.5048636E-02  0.0000000E+00 -0.5050505E-02 -0.2178935E-07  0.0000000E+00 -0.2799456E-03
 -0.5047442E-02  0.0000000E+00 -0.5050505E-02 -0.2251213E-07  0.0000000E+00 -0.2799914E-03
 -0.5045727E-02  0.0000000E+00 -0.5050505E-02 -0.2316490E-07  0.0000000E+00 -0.2800386E-03
 -0.5043261E-02  0.0000000E+00 -0.5050505E-02 -0.2375145E-07  0.0000000E+00 -0.2800871E-03
 -0.5038714E-02  0.0000000E+00 -0.5050505E-02 -0.2427700E-07  0.0000000E+00 -0.2801367E-03
 -0.5032318E-02  0.0000000E+00 -0.5050505E-02 -0.2474852E-07  0.0000000E+00 -0.2801874E-03
 -0.5022454E-02  0.0000000E+00 -0.5050505E-02 -0.2517499E-07  0.0000000E+00 -0.2802390E-03
 -0.5012589E-02  0.0000000E+00 -0.5050505E-02 -0.2556791E-07  0.0000000E+00 -0.2802915E-03
 -0.5002725E-02  0.0000000E+00 -0.5050505E-02 -0.2594190E-07  0.0000000E+00 -0.2803447E-03
 -0.4992860E-02  0.0000000E+00 -0.5050505E-02 -0.2631556E-07  0.0000000E+00 -0.2803987E-03
 -0.4976523E-02  0.0000000E+00 -0.5050505E-02 -0.2671272E-07  0.0000000E+00 -0.2804536E-03
 -0.4956794E-02  0.0000000E+00 -0.5050505E-02 -0.2716409E-07  0.0000000E+00 -0.2805092E-03
 -0.4937066E-02  0.0000000E+00 -0.5050505E-02 -0.2770979E-07  0.0000000E+00 -0.2805660E-03
 -0.4906239E-02  0.0000000E+00 -0.5050505E-02 -0.2840289E-07  0.0000000E+00 -0.2806240E-03
 -0.4866782E-02  0.0000000E+00 -0.5050505E-02 -0.2931480E-07  0.0000000E+00 -0.2806836E-03
 -0.4827325E-02  0.0000000E+00 -0.5050505E-02 -0.3054331E-07  0.0000000E+00 -0.2807455E-03
 -0.4769372E-02  0.0000000E+00 -0.5050505E-02 -0.3222508E-07  0.0000000E+00 -0.2808104E-03
 -0.4690458E-02  0.0000000E+00 -0.5050505E-02 -0.3455556E-07  0.0000000E+00 -0.2808794E-03
 -0.4611543E-02  0.0000000E+00 -0.5050505E-02 -0.3782131E-07  0.0000000E+00 -0.2809542E-03
 -0.4503035E-02  0.0000000E+00 -0.5050505E-02 -0.4245460E-07  0.0000000E+00 -0.2810372E-03
 -0.4345206E-02  0.0000000E+00 -0.5050505E-02 -0.4912882E-07  0.0000000E+00 -0.2811319E-03
 -0.4187378E-02  0.0000000E+00 -0.5050505E-02 -0.5893235E-07  0.0000000E+00 -0.2812436E-03
 -0.3985156E-02  0.0000000E+00 -0.5050505E-02 -0.7370102E-07  0.0000000E+00 -0.2813807E-03
 -0.3669499E-02  0.0000000E+00 -0.5050505E-02 -0.9669085E-07  0.0000000E+00 -0.2815569E-03
 -0.3353842E-02  0.0000000E+00 -0.5050505E-02 -0.1340304E-06  0.0000000E+00 -0.2817954E-03
 -0.2978990E-02  0.0000000E+00 -0.5050505E-02 -0.1981003E-06  0.0000000E+00 -0.2821388E-03
 -0.2347676E-02  0.0000000E+00 -0.5050505E-02 -0.3160911E-06  0.0000000E+00 -0.2826704E-03
 -0.1716362E-02  0.0000000E+00 -0.5050505E-02 -0.5537608E-06  0.0000000E+00 -0.2835698E-03
 -0.1025842E-02  0.0000000E+00 -0.5050505E-02 -0.1088001E-05  0.0000000E+00 -0.2852675E-03
  0.2367855E-03  0.0000000E+00 -0.5050505E-02 -0.2450137E-05  0.0000000E+00 -0.2889270E-03
  0.1499413E-02  0.0000000E+00 -0.5050505E-02 -0.6414687E-05  0.0000000E+00 -0.2981004E-03
  0.5287294E-02  0.0000000E+00 -0.5050505E-02 -0.1050445E-03  0.0000000E+00 -0.2378933E-03
 -0.5050505E-02  0.0000000E+00 -0.5050505E-02  0.1985045E-08  0.0000000E+00 -0.2809167E-03
 -0.5050505E-02  0.0000000E+00 -0.5050505E-02  0.5949491E-08  0.0000000E+00 -0.2809140E-03
 -0.5050505E-02  0.0000000E+00 -0.5050505E-02  0.9896839E-08  0.0000000E+00 -0.2809085E-03
 -0.5050505E-02  0.0000000E+00 -0.5050505E-02  0.1381566E-07  0.0000000E+00 -0.2809003E-03
 -0.5050505E-02  0.0000000E+00 -0.5050505E-02  0.1769455E-07  0.0000000E+00 -0.2808894E-03
 -0.5050505E-02  0.0000000E+00 -0.5050505E-02  0.2152209E-07  0.0000000E+00 -0.2808758E-03
 -0.5050504E-02  0.0000000E+00 -0.5050505E-02  0.2528684E-07  0.0000000E+00 -0.2808595E-03
 -0.5050501E-02  0.0000000E+00 -0.5050505E-02  0.2897737E-07  0.0000000E+00 -0.2808407E-03
 -0.5050495E-02  0.0000000E+00 -0.5050505E-02  0.3258225E-07  0.0000000E+00 -0.2808194E-03
 -0.5050482E-02  0.0000000E+00 -0.5050505E-02  0.3609005E-07  0.0000000E+00 -0.2807956E-03
 -0.5050449E-02  0.0000000E+00 -0.5050505E-02  0.3948934E-07  0.0000000E+00 -0.2807694E-03
 -0.5050376E-02  0.0000000E+00 -0.5050505E-02  0.4276874E-07  0.0000000E+00 -0.2807408E-03
 -0.5050299E-02  0.0000000E+00 -0.5050505E-02  0.4591690E-07  0.0000000E+00 -0.2807101E-03
 -0.5050178E-02  0.0000000E+00 -0.5050505E-02  0.4892255E-07  0.0000000E+00 -0.2806772E-03
 -0.5050018E-02  0.0000000E+00 -0.5050505E-02  0.5177449E-07  0.0000000E+00 -0.2806423E-03
 -0.5049710E-02  0.0000000E+00 -0.5050505E-02  0.5446164E-07  0.0000000E+00 -0.2806055E-03
 -0.5049253E-02  0.0000000E+00 -0.5050505E-02  0.5697308E-07  0.0000000E+00 -0.2805668E-03
 -0.5048636E-02  0.0000000E+00 -0.5050505E-02  0.5929808E-07  0.0000000E+00 -0.2805265E-03
 -0.5047442E-02  0.0000000E+00 -0.5050505E-02  0.6142613E-07  0.0000000E+00 -0.2804847E-03
 -0.5045727E-02  0.0000000E+00 -0.5050505E-02  0.6334702E-07  0.0000000E+00 -0.2804414E-03
 -0.5043261E-02  0.0000000E+00 -0.5050505E-02  0.6505086E-07  0.0000000E+00 -0.2803969E-03
 -0.5038714E-02  0.0000000E+00 -0.5050505E-02  0.6652818E-07  0.0000000E+00 -0.2803512E-03
 -0.5032318E-02  0.0000000E+00 -0.5050505E-02  0.6776995E-07  0.0000000E+00 -0.2803047E-03
 -0.5022454E-02  0.0000000E+00 -0.5050505E-02  0.6876768E-07  0.0000000E+00 -0.2802573E-03
 -0.5012589E-02  0.0000000E+00 -0.5050505E-02  0.6951349E-07  0.0000000E+00 -0.2802093E-03
 -0.5002725E-02  0.0000000E+00 -0.5050505E-02  0.7000020E-07  0.0000000E+00 -0.2801610E-03
 -0.4992860E-02  0.0000000E+00 -0.5050505E-02  0.7022138E-07  0.0000000E+00 -0.2801123E-03
 -0.4976523E-02  0.0000000E+00 -0.5050505E-02  0.7017146E-07  0.0000000E+00 -0.2800636E-03
 -0.4956794E-02  0.0000000E+00 -0.5050505E-02  0.6984585E-07  0.0000000E+00 -0.2800151E-03
 -0.4937066E-02  0.0000000E+00 -0.5050505E-02  0.6924095E-07  0.0000000E+00 -0.2799668E-03
 -0.4906239E-02  0.0000000E+00 -0.5050505E-02  0.6835432E-07  0.0000000E+00 -0.2799191E-03
 -0.4866782E-02  0.0000000E+00 -0.5050505E-02  0.6718475E-07  0.0000000E+00 -0.2798721E-03
 -0.4827325E-02  0.0000000E+00 -0.5050505E-02  0.6573231E-07  0.0000000E+00 -0.2798259E-03
 -0.4769372E-02  0.0000000E+00 -0.5050505E-02  0.6399848E-07  0.0000000E+00 -0.2797809E-03
 -0.4690458E-02  0.0000000E+00 -0.5050505E-02  0.6198618E-07  0.0000000E+00 -0.2797372E-03
 -0.4611543E-02  0.0000000E+00 -0.5050505E-02  0.5969989E-07  0.0000000E+00 -0.2796950E-03
 -0.4503035E-02  0.0000000E+00 -0.5050505E-02  0.5714567E-07  0.0000000E+00 -0.2796545E-03
 -0.4345206E-02  0.0000000E+00 -0.5050505E-02  0.5433118E-07  0.0000000E+00 -0.2796158E-03
 -0.4187378E-02  0.0000000E+00 -0.5050505E-02  0.5126577E-07  0.0000000E+00 -0.2795791E-03
 -0.3985156E-02  0.0000000E+00 -0.5050505E-02  0.4796044E-07  0.0000000E+00 -0.2795447E-03
 -0.3669499E-02  0.0000000E+00 -0.5050505E-02  0.4442783E-07  0.0000000E+00 -0.2795126E-03
 -0.3353842E-02  0.0000000E+00 -0.5050505E-02  0.4068220E-07  0.0000000E+00 -0.2794831E-03
 -0.2978990E-02  0.0000000E+00 -0.5050505E-02  0.3673939E-07  0.0000000E+00 -0.2794562E-03
 -0.2347676E-02  0.0000000E+00 -0.5050505E-02  0.3261670E-07  0.0000000E+00 -0.2794321E-03
 -0.1716362E-02  0.0000000E+00 -0.5050505E-02  0.2833281E-07  0.0000000E+00 -0.2794110E-03
 -0.1025842E-02  0.0000000E+00 -0.5050505E-02  0.2390766E-07  0.0000000E+00 -0.2793929E-03
  0.2367855E-03  0.0000000E+00 -0.5050505E-02  0.1936227E-07  0.0000000E+00 -0.2793778E-03
  0.1499413E-02  0.0000000E+00 -0.5050505E-02  0.1471862E-07  0.0000000E+00 -0.2793660E-03
  0.2762042E-02  0.0000000E+00 -0.5050505E-02  0.9999407E-08  0.0000000E+00 -0.2793574E-03
 -0.5050505E-02  0.0000000E+00 -0.5050505E-02  0.5227885E-08  0.0000000E+00 -0.2793521E-03
 -0.5050505E-02  0.0000000E+00 -0.5050505E-02  0.4276350E-09  0.0000000E+00 -0.2793502E-03
 -0.5050505E-02  0.0000000E+00 -0.5050505E-02 -0.4377655E-08  0.0000000E+00 -0.2793515E-03
 -0.5050505E-02  0.0000000E+00 -0.5050505E-02 -0.9164416E-08  0.0000000E+00 -0.2793562E-03
 -0.5050505E-02  0.0000000E+00 -0.5050505E-02 -0.1390942E-07  0.0000000E+00 -0.2793642E-03
 -0.5050505E-02  0.0000000E+00 -0.5050505E-02 -0.1859002E-07  0.0000000E+00 -0.2793755E-03
 -0.5050505E-02  0.0000000E+00 -0.5050505E-02 -0.2318432E-07  0.0000000E+00 -0.2793900E-03
 -0.5050504E-02  0.0000000E+00 -0.5050505E-02 -0.2767145E-07  0.0000000E+00 -0.2794076E-03
 -0.5050501E-02  0.0000000E+00 -0.5050505E-02 -0.3203170E-07  0.0000000E+00 -0.2794283E-03
 -0.5050495E-02  0.0000000E+00 -0.5050505E-02 -0.3624673E-07  0.0000000E+00 -0.2794520E-03
 -0.5050482E-02  0.0000000E+00 -0.5050505E-02 -0.4029974E-07  0.0000000E+00 -0.2794786E-03
 -0.5050449E-02  0.0000000E+00 -0.5050505E-02 -0.4417562E-07  0.0000000E+00 -0.2795079E-03
 -0.5050376E-02  0.0000000E+00 -0.5050505E-02 -0.4786111E-07  0.0000000E+00 -0.2795398E-03
 -0.5050299E-02  0.0000000E+00 -0.5050505E-02 -0.5134495E-07  0.0000000E+00 -0.2795742E-03
 -0.5050178E-02  0.0000000E+00 -0.5050505E-02 -0.5461799E-07  0.0000000E+00 -0.2796110E-03
 -0.5050018E-02  0.0000000E+00 -0.5050505E-02 -0.5767335E-07  0.0000000E+00 -0.2796499E-03
 -0.5049710E-02  0.0000000E+00 -0.5050505E-02 -0.6050661E-07  0.0000000E+00 -0.2796909E-03
 -0.5049253E-02  0.0000000E+00 -0.5050505E-02 -0.6311589E-07  0.0000000E+00 -0.2797337E-03
 -0.5048636E-02  0.0000000E+00 -0.5050505E-02 -0.6550216E-07  0.0000000E+00 -0.2797783E-03
 -0.5047442E-02  0.0000000E+00 -0.5050505E-02 -0.6766942E-07  0.0000000E+00 -0.2798245E-03
 -0.5045727E-02  0.0000000E+00 -0.5050505E-02 -0.6962503E-07  0.0000000E+00 -0.2798720E-03
 -0.5043261E-02  0.0000000E+00 -0.5050505E-02 -0.7138014E-07  0.0000000E+00 -0.2799209E-03
 -0.5038714E-02  0.0000000E+00 -0.5050505E-02 -0.7295022E-07  0.0000000E+00 -0.2799709E-03
 -0.5032318E-02  0.0000000E+00 -0.5050505E-02 -0.7435578E-07  0.0000000E+00 -0.2800219E-03
 -0.5022454E-02  0.0000000E+00 -0.5050505E-02 -0.7562335E-07  0.0000000E+00 -0.2800738E-03
 -0.5012589E-02  0.0000000E+00 -0.5050505E-02 -0.7678677E-07  0.0000000E+00 -0.2801266E-03
 -0.5002725E-02  0.0000000E+00 -0.5050505E-02 -0.7788906E-07  0.0000000E+00 -0.2801801E-03
 -0.4992860E-02  0.0000000E+00 -0.5050505E-02 -0.7898483E-07  0.0000000E+00 -0.2802343E-03
 -0.4976523E-02  0.0000000E+00 -0.5050505E-02 -0.8014380E-07  0.0000000E+00 -0.2802893E-03
 -0.4956794E-02  0.0000000E+00 -0.5050505E-02 -0.8145572E-07  0.0000000E+00 -0.2803450E-03
 -0.4937066E-02  0.0000000E+00 -0.5050505E-02 -0.8303734E-07  0.0000000E+00 -0.2804017E-03
 -0.4906239E-02  0.0000000E+00 -0.5050505E-02 -0.8504264E-07  0.0000000E+00 -0.2804596E-03
 -0.4866782E-02  0.0000000E+00 -0.5050505E-02 -0.8767783E-07  0.0000000E+00 -0.2805189E-03
 -0.4827325E-02  0.0000000E+00 -0.5050505E-02 -0.9122394E-07  0.0000000E+00 -0.2805802E-03
 -0.4769372E-02  0.0000000E+00 -0.5050505E-02 -0.9607151E-07  0.0000000E+00 -0.2806442E-03
 -0.4690458E-02  0.0000000E+00 -0.5050505E-02 -0.1027750E-06  0.0000000E+00 -0.2807118E-03
 -0.4611543E-02  0.0000000E+00 -0.5050505E-02 -0.1121406E-06  0.0000000E+00 -0.2807845E-03
 -0.4503035E-02  0.0000000E+00 -0.5050505E-02 -0.1253718E-06  0.0000000E+00 -0.2808642E-03
 -0.4345206E-02  0.0000000E+00 -0.5050505E-02 -0.1443188E-06  0.0000000E+00 -0.2809538E-03
 -0.4187378E-02  0.0000000E+00 -0.5050505E-02 -0.1719223E-06  0.0000000E+00 -0.2810575E-03
 -0.3985156E-02  0.0000000E+00 -0.5050505E-02 -0.2130344E-06  0.0000000E+00 -0.2811815E-03
 -0.3669499E-02  0.0000000E+00 -0.5050505E-02 -0.2760096E-06  0.0000000E+00 -0.2813352E-03
 -0.3353842E-02  0.0000000E+00 -0.5050505E-02 -0.3759483E-06  0.0000000E+00 -0.2815326E-03
 -0.2978990E-02  0.0000000E+00 -0.5050505E-02 -0.5416815E-06  0.0000000E+00 -0.2817952E-03
 -0.2347676E-02  0.0000000E+00 -0.5050505E-02 -0.8317261E-06  0.0000000E+00 -0.2821531E-03
 -0.1716362E-02  0.0000000E+00 -0.5050505E-02 -0.1372990E-05  0.0000000E+00 -0.2826358E-03
 -0.1025842E-02  0.0000000E+00 -0.5050505E-02 -0.2460344E-05  0.0000000E+00 -0.2832082E-03
  0.2367855E-03  0.0000000E+00 -0.5050505E-02 -0.4826726E-05  0.0000000E+00 -0.2834354E-03
  0.1499413E-02  0.0000000E+00 -0.5050505E-02 -0.1040752E-04  0.0000000E+00 -0.2808845E-03
  0.5287294E-02  0.0000000E+00 -0.5050505E-02 -0.2455922E-04  0.0000000E+00 -0.2636193E-03
 -0.5050505E-02  0.0000000E+00 -0.5050505E-02  0.3323115E-08  0.0000000E+00 -0.2806085E-03
 -0.5050505E-02  0.0000000E+00 -0.5050505E-02  0.9959891E-08  0.0000000E+00 -0.2806057E-03
 -0.5050505E-02  0.0000000E+00 -0.5050505E-02  0.1656810E-07  0.0000000E+00 -0.2806001E-03
 -0.5050505E-02  0.0000000E+00 -0.5050505E-02  0.2312866E-07  0.0000000E+00 -0.2805918E-03
 -0.5050505E-02  0.0000000E+00 -0.5050505E-02  0.2962251E-07  0.0000000E+00 -0.2805807E-03
 -0.5050505E-02  0.0000000E+00 -0.5050505E-02  0.3603055E-07  0.0000000E+00 -0.2805669E-03
 -0.5050504E-02  0.0000000E+00 -0.5050505E-02  0.4233369E-07  0.0000000E+00 -0.2805504E-03
 -0.5050501E-02  0.0000000E+00 -0.5050505E-02  0.4851282E-07  0.0000000E+00 -0.2805313E-03
 -0.5050495E-02  0.0000000E+00 -0.5050505E-02  0.5454882E-07  0.0000000E+00 -0.2805096E-03
 -0.5050482E-02  0.0000000E+00 -0.5050505E-02  0.6042258E-07  0.0000000E+00 -0.2804854E-03
 -0.5050449E-02  0.0000000E+00 -0.5050505E-02  0.6611502E-07  0.0000000E+00 -0.2804588E-03
 -0.5050376E-02  0.0000000E+00 -0.5050505E-02  0.7160708E-07  0.0000000E+00 -0.2804298E-03
 -0.5050299E-02  0.0000000E+00 -0.5050505E-02  0.7687978E-07  0.0000000E+00 -0.2803985E-03
 -0.5050178E-02  0.0000000E+00 -0.5050505E-02  0.8191425E-07  0.0000000E+00 -0.2803651E-03
 -0.5050018E-02  0.0000000E+00 -0.5050505E-02  0.8669176E-07  0.0000000E+00 -0.2803296E-03
 -0.5049710E-02  0.0000000E+00 -0.5050505E-02  0.9119377E-07  0.0000000E+00 -0.2802922E-03
 -0.5049253E-02  0.0000000E+00 -0.5050505E-02  0.9540197E-07  0.0000000E+00 -0.2802529E-03
 -0.5048636E-02  0.0000000E+00 -0.5050505E-02  0.9929839E-07  0.0000000E+00 -0.2802119E-03
 -0.5047442E-02  0.0000000E+00 -0.5050505E-02  0.1028654E-06  0.0000000E+00 -0.2801694E-03
 -0.5045727E-02  0.0000000E+00 -0.5050505E-02  0.1060859E-06  0.0000000E+00 -0.2801254E-03
 -0.5043261E-02  0.0000000E+00 -0.5050505E-02  0.1089434E-06  0.0000000E+00 -0.2800801E-03
 -0.5038714E-02  0.0000000E+00 -0.5050505E-02  0.1114218E-06  0.0000000E+00 -0.2800337E-03
 -0.5032318E-02  0.0000000E+00 -0.5050505E-02  0.1135061E-06  0.0000000E+00 -0.2799863E-03
 -0.5022454E-02  0.0000000E+00 -0.5050505E-02  0.1151819E-06  0.0000000E+00 -0.2799381E-03
 -0.5012589E-02  0.0000000E+00 -0.5050505E-02  0.1164361E-06  0.0000000E+00 -0.2798893E-03
 -0.5002725E-02  0.0000000E+00 -0.5050505E-02  0.1172565E-06  0.0000000E+00 -0.2798401E-03
 -0.4992860E-02  0.0000000E+00 -0.5050505E-02  0.1176323E-06  0.0000000E+00 -0.2797905E-03
 -0.4976523E-02  0.0000000E+00 -0.5050505E-02  0.1175540E-06  0.0000000E+00 -0.2797410E-03
 -0.4956794E-02  0.0000000E+00 -0.5050505E-02  0.1170140E-06  0.0000000E+00 -0.2796915E-03
 -0.4937066E-02  0.0000000E+00 -0.5050505E-02  0.1160061E-06  0.0000000E+00 -0.2796424E-03
 -0.4906239E-02  0.0000000E+00 -0.5050505E-02  0.1145261E-06  0.0000000E+00 -0.2795938E-03
 -0.4866782E-02  0.0000000E+00 -0.5050505E-02  0.1125720E-06  0.0000000E+00 -0.2795459E-03
 -0.4827325E-02  0.0000000E+00 -0.5050505E-02  0.1101436E-06  0.0000000E+00 -0.2794989E-03
 -0.4769372E-02  0.0000000E+00 -0.5050505E-02  0.1072435E-06  0.0000000E+00 -0.2794531E-03
 -0.4690458E-02  0.0000000E+00 -0.5050505E-02  0.1038765E-06  0.0000000E+00 -0.2794085E-03
 -0.4611543E-02  0.0000000E+00 -0.5050505E-02  0.1000498E-06  0.0000000E+00 -0.2793655E-03
 -0.4503035E-02  0.0000000E+00 -0.5050505E-02  0.9577372E-07  0.0000000E+00 -0.2793242E-03
 -0.4345206E-02  0.0000000E+00 -0.5050505E-02  0.9106094E-07  0.0000000E+00 -0.2792848E-03
 -0.4187378E-02  0.0000000E+00 -0.5050505E-02  0.8592706E-07  0.0000000E+00 -0.2792474E-03
 -0.3985156E-02  0.0000000E+00 -0.5050505E-02  0.8039049E-07  0.0000000E+00 -0.2792123E-03
 -0.3669499E-02  0.0000000E+00 -0.5050505E-02  0.7447240E-07  0.0000000E+00 -0.2791796E-03
 -0.3353842E-02  0.0000000E+00 -0.5050505E-02  0.6819668E-07  0.0000000E+00 -0.2791495E-03
 -0.2978990E-02  0.0000000E+00 -0.5050505E-02  0.6158986E-07  0.0000000E+00 -0.2791220E-03
 -0.2347676E-02  0.0000000E+00 -0.5050505E-02  0.5468099E-07  0.0000000E+00 -0.2790975E-03
 -0.1716362E-02  0.0000000E+00 -0.5050505E-02  0.4750141E-07  0.0000000E+00 -0.2790759E-03
 -0.1025842E-02  0.0000000E+00 -0.5050505E-02  0.4008460E-07  0.0000000E+00 -0.2790574E-03
  0.2367855E-03  0.0000000E+00 -0.5050505E-02  0.3246591E-07  0.0000000E+00 -0.2790421E-03
  0.1499413E-02  0.0000000E+00 -0.5050505E-02  0.2468223E-07  0.0000000E+00 -0.2790300E-03
  0.2762042E-02  0.0000000E+00 -0.5050505E-02  0.1677174E-07  0.0000000E+00 -0.2790212E-03
 -0.5050505E-02  0.0000000E+00 -0.5050505E-02  0.8773534E-08  0.0000000E+00 -0.2790158E-03
 -0.5050505E-02  0.0000000E+00 -0.5050505E-02  0.7272574E-09  0.0000000E+00 -0.2790138E-03
 -0.5050505E-02  0.0000000E+00 -0.5050505E-02 -0.7327255E-08  0.0000000E+00 -0.2790152E-03
 -0.5050505E-02  0.0000000E+00 -0.5050505E-02 -0.1535036E-07  0.0000000E+00 -0.2790200E-03
 -0.5050505E-02  0.0000000E+00 -0.5050505E-02 -0.2330302E-07  0.0000000E+00 -0.2790281E-03
 -0.5050505E-02  0.0000000E+00 -0.5050505E-02 -0.3114711E-07  0.0000000E+00 -0.2790396E-03
 -0.5050505E-02  0.0000000E+00 -0.5050505E-02 -0.3884585E-07  0.0000000E+00 -0.2790543E-03
 -0.5050504E-02  0.0000000E+00 -0.5050505E-02 -0.4636411E-07  0.0000000E+00 -0.2790723E-03
 -0.5050501E-02  0.0000000E+00 -0.5050505E-02 -0.5366876E-07  0.0000000E+00 -0.2790934E-03
 -0.5050495E-02  0.0000000E+00 -0.5050505E-02 -0.6072897E-07  0.0000000E+00 -0.2791175E-03
 -0.5050482E-02  0.0000000E+00 -0.5050505E-02 -0.6751646E-07  0.0000000E+00 -0.2791446E-03
 -0.5050449E-02  0.0000000E+00 -0.5050505E-02 -0.7400581E-07  0.0000000E+00 -0.2791744E-03
 -0.5050376E-02  0.0000000E+00 -0.5050505E-02 -0.8017472E-07  0.0000000E+00 -0.2792069E-03
 -0.5050299E-02  0.0000000E+00 -0.5050505E-02 -0.8600416E-07  0.0000000E+00 -0.2792419E-03
 -0.5050178E-02  0.0000000E+00 -0.5050505E-02 -0.9147869E-07  0.0000000E+00 -0.2792793E-03
 -0.5050018E-02  0.0000000E+00 -0.5050505E-02 -0.9658663E-07  0.0000000E+00 -0.2793189E-03
 -0.5049710E-02  0.0000000E+00 -0.5050505E-02 -0.1013204E-06  0.0000000E+00 -0.2793606E-03
 -0.5049253E-02  0.0000000E+00 -0.5050505E-02 -0.1056765E-06  0.0000000E+00 -0.2794042E-03
 -0.5048636E-02  0.0000000E+00 -0.5050505E-02 -0.1096563E-06  0.0000000E+00 -0.2794495E-03
 -0.5047442E-02  0.0000000E+00 -0.5050505E-02 -0.1132662E-06  0.0000000E+00 -0.2794963E-03
 -0.5045727E-02  0.0000000E+00 -0.5050505E-02 -0.1165178E-06  0.0000000E+00 -0.2795446E-03
 -0.5043261E-02  0.0000000E+00 -0.5050505E-02 -0.1194292E-06  0.0000000E+00 -0.2795942E-03
 -0.5038714E-02  0.0000000E+00 -0.5050505E-02 -0.1220253E-06  0.0000000E+00 -0.2796449E-03
 -0.5032318E-02  0.0000000E+00 -0.5050505E-02 -0.1243393E-06  0.0000000E+00 -0.2796966E-03
 -0.5022454E-02  0.0000000E+00 -0.5050505E-02 -0.1264138E-06  0.0000000E+00 -0.2797491E-03
 -0.5012589E-02  0.0000000E+00 -0.5050505E-02 -0.1283033E-06  0.0000000E+00 -0.2798024E-03
 -0.5002725E-02  0.0000000E+00 -0.5050505E-02 -0.1300767E-06  0.0000000E+00 -0.2798565E-03
 -0.4992860E-02  0.0000000E+00 -0.5050505E-02 -0.1318213E-06  0.0000000E+00 -0.2799111E-03
 -0.4976523E-02  0.0000000E+00 -0.5050505E-02 -0.1336478E-06  0.0000000E+00 -0.2799664E-03
 -0.4956794E-02  0.0000000E+00 -0.5050505E-02 -0.1356980E-06  0.0000000E+00 -0.2800223E-03
 -0.4937066E-02  0.0000000E+00 -0.5050505E-02 -0.1381554E-06  0.0000000E+00 -0.2800790E-03
 -0.4906239E-02  0.0000000E+00 -0.5050505E-02 -0.1412600E-06  0.0000000E+00 -0.2801366E-03
 -0.4866782E-02  0.0000000E+00 -0.5050505E-02 -0.1453307E-06  0.0000000E+00 -0.2801953E-03
 -0.4827325E-02  0.0000000E+00 -0.5050505E-02 -0.1507977E-06  0.0000000E+00 -0.2802556E-03
 -0.4769372E-02  0.0000000E+00 -0.5050505E-02 -0.1582520E-06  0.0000000E+00 -0.2803178E-03
 -0.4690458E-02  0.0000000E+00 -0.5050505E-02 -0.1685213E-06  0.0000000E+00 -0.2803829E-03
 -0.4611543E-02  0.0000000E+00 -0.5050505E-02 -0.1827889E-06  0.0000000E+00 -0.2804516E-03
 -0.4503035E-02  0.0000000E+00 -0.5050505E-02 -0.2027858E-06  0.0000000E+00 -0.2805255E-03
 -0.4345206E-02  0.0000000E+00 -0.5050505E-02 -0.2311067E-06  0.0000000E+00 -0.2806061E-03
 -0.4187378E-02  0.0000000E+00 -0.5050505E-02 -0.2717441E-06  0.0000000E+00 -0.2806960E-03
 -0.3985156E-02  0.0000000E+00 -0.5050505E-02 -0.3310175E-06  0.0000000E+00 -0.2807980E-03
 -0.3669499E-02  0.0000000E+00 -0.5050505E-02 -0.4192258E-06  0.0000000E+00 -0.2809154E-03
 -0.3353842E-02  0.0000000E+00 -0.5050505E-02 -0.5536530E-06  0.0000000E+00 -0.2810512E-03
 -0.2978990E-02  0.0000000E+00 -0.5050505E-02 -0.7640878E-06  0.0000000E+00 -0.2812043E-03
 -0.2347676E-02  0.0000000E+00 -0.5050505E-02 -0.1102815E-05  0.0000000E+00 -0.2813599E-03
 -0.1716362E-02  0.0000000E+00 -0.5050505E-02 -0.1661331E-05  0.0000000E+00 -0.2814610E-03
 -0.1025842E-02  0.0000000E+00 -0.5050505E-02 -0.2590719E-05  0.0000000E+00 -0.2813317E-03
  0.2367855E-03  0.0000000E+00 -0.5050505E-02 -0.4085320E-05  0.0000000E+00 -0.2804938E-03
  0.1499413E-02  0.0000000E+00 -0.5050505E-02 -0.6096170E-05  0.0000000E+00 -0.2778734E-03
  0.5287294E-02  0.0000000E+00 -0.5050505E-02 -0.6629391E-05  0.0000000E+00 -0.2723456E-03
 -0.5050505E-02  0.0000000E+00 -0.5050505E-02  0.4684871E-08  0.0000000E+00 -0.2801543E-03
 -0.5050505E-02  0.0000000E+00 -0.5050505E-02  0.1404130E-07  0.0000000E+00 -0.2801515E-03
 -0.5050505E-02  0.0000000E+00 -0.5050505E-02  0.2335759E-07  0.0000000E+00 -0.2801458E-03
 -0.5050505E-02  0.0000000E+00 -0.5050505E-02  0.3260690E-07  0.0000000E+00 -0.2801372E-03
 -0.5050505E-02  0.0000000E+00 -0.5050505E-02  0.4176244E-07  0.0000000E+00 -0.2801259E-03
 -0.5050505E-02  0.0000000E+00 -0.5050505E-02  0.5079738E-07  0.0000000E+00 -0.2801117E-03
 -0.5050504E-02  0.0000000E+00 -0.5050505E-02  0.5968486E-07  0.0000000E+00 -0.2800948E-03
 -0.5050501E-02  0.0000000E+00 -0.5050505E-02  0.6839800E-07  0.0000000E+00 -0.2800753E-03
 -0.5050495E-02  0.0000000E+00 -0.5050505E-02  0.7690993E-07  0.0000000E+00 -0.2800531E-03
 -0.5050482E-02  0.0000000E+00 -0.5050505E-02  0.8519374E-07  0.0000000E+00 -0.2800283E-03
 -0.5050449E-02  0.0000000E+00 -0.5050505E-02  0.9322257E-07  0.0000000E+00 -0.2800011E-03
 -0.5050376E-02  0.0000000E+00 -0.5050505E-02  0.1009696E-06  0.0000000E+00 -0.2799714E-03
 -0.5050299E-02  0.0000000E+00 -0.5050505E-02  0.1084082E-06  0.0000000E+00 -0.2799394E-03
 -0.5050178E-02  0.0000000E+00 -0.5050505E-02  0.1155116E-06  0.0000000E+00 -0.2799052E-03
 -0.5050018E-02  0.0000000E+00 -0.5050505E-02  0.1222535E-06  0.0000000E+00 -0.2798688E-03
 -0.5049710E-02  0.0000000E+00 -0.5050505E-02  0.1286078E-06  0.0000000E+00 -0.2798304E-03
 -0.5049253E-02  0.0000000E+00 -0.5050505E-02  0.1345486E-06  0.0000000E+00 -0.2797902E-03
 -0.5048636E-02  0.0000000E+00 -0.5050505E-02  0.1400506E-06  0.0000000E+00 -0.2797482E-03
 -0.5047442E-02  0.0000000E+00 -0.5050505E-02  0.1450889E-06  0.0000000E+00 -0.2797046E-03
 -0.5045727E-02  0.0000000E+00 -0.5050505E-02  0.1496393E-06  0.0000000E+00 -0.2796595E-03
 -0.5043261E-02  0.0000000E+00 -0.5050505E-02  0.1536784E-06  0.0000000E+00 -0.2796131E-03
 -0.5038714E-02  0.0000000E+00 -0.5050505E-02  0.1571836E-06  0.0000000E+00 -0.2795655E-03
 -0.5032318E-02  0.0000000E+00 -0.5050505E-02  0.1601335E-06  0.0000000E+00 -0.2795169E-03
 -0.5022454E-02  0.0000000E+00 -0.5050505E-02  0.1625079E-06  0.0000000E+00 -0.2794675E-03
 -0.5012589E-02  0.0000000E+00 -0.5050505E-02  0.1642879E-06  0.0000000E+00 -0.2794174E-03
 -0.5002725E-02  0.0000000E+00 -0.5050505E-02  0.1654563E-06  0.0000000E+00 -0.2793669E-03
 -0.4992860E-02  0.0000000E+00 -0.5050505E-02  0.1659978E-06  0.0000000E+00 -0.2793161E-03
 -0.4976523E-02  0.0000000E+00 -0.5050505E-02  0.1658988E-06  0.0000000E+00 -0.2792652E-03
 -0.4956794E-02  0.0000000E+00 -0.5050505E-02  0.1651483E-06  0.0000000E+00 -0.2792145E-03
 -0.4937066E-02  0.0000000E+00 -0.5050505E-02  0.1637375E-06  0.0000000E+00 -0.2791640E-03