title = "dataset feddes"
variables = "x", "y", "z", "vx", "vy", "vz"
zone t = "velocities, solution time =  9.000E+00 days        " i =   99, j =   99, k =    1,  f=point
 -0.5050505E-02  0.0000000E+00 -0.5050505E-02 -0.2175790E-11  0.0000000E+00 -0.6914389E-03
 -0.5050505E-02  0.0000000E+00 -0.5050505E-02 -0.7825629E-11  0.0000000E+00 -0.6914389E-03
 -0.5050505E-02  0.0000000E+00 -0.5050505E-02 -0.1363736E-10  0.0000000E+00 -0.6914389E-03
 -0.5050505E-02  0.0000000E+00 -0.5050505E-02 -0.1876546E-10  0.0000000E+00 -0.6914390E-03
 -0.5050505E-02  0.0000000E+00 -0.5050505E-02 -0.2471303E-10  0.0000000E+00 -0.6914390E-03
 -0.5050505E-02  0.0000000E+00 -0.5050505E-02 -0.3116509E-10  0.0000000E+00 -0.6914391E-03
 -0.5050504E-02  0.0000000E+00 -0.5050505E-02 -0.3761299E-10  0.0000000E+00 -0.6914391E-03
 -0.5050501E-02  0.0000000E+00 -0.5050505E-02 -0.4392587E-10  0.0000000E+00 -0.6914392E-03
 -0.5050495E-02  0.0000000E+00 -0.5050505E-02 -0.5019046E-10  0.0000000E+00 -0.6914393E-03
 -0.5050482E-02  0.0000000E+00 -0.5050505E-02 -0.5651115E-10  0.0000000E+00 -0.6914395E-03
 -0.5050449E-02  0.0000000E+00 -0.5050505E-02 -0.6299604E-10  0.0000000E+00 -0.6914396E-03
 -0.5050376E-02  0.0000000E+00 -0.5050505E-02 -0.6970939E-10  0.0000000E+00 -0.6914397E-03
 -0.5050299E-02  0.0000000E+00 -0.5050505E-02 -0.7671087E-10  0.0000000E+00 -0.6914399E-03
 -0.5050178E-02  0.0000000E+00 -0.5050505E-02 -0.8404265E-10  0.0000000E+00 -0.6914401E-03
 -0.5050018E-02  0.0000000E+00 -0.5050505E-02 -0.9174633E-10  0.0000000E+00 -0.6914402E-03
 -0.5049710E-02  0.0000000E+00 -0.5050505E-02 -0.9986405E-10  0.0000000E+00 -0.6914405E-03
 -0.5049253E-02  0.0000000E+00 -0.5050505E-02 -0.1084357E-09  0.0000000E+00 -0.6914407E-03
 -0.5048636E-02  0.0000000E+00 -0.5050505E-02 -0.1175052E-09  0.0000000E+00 -0.6914409E-03
 -0.5047442E-02  0.0000000E+00 -0.5050505E-02 -0.1271163E-09  0.0000000E+00 -0.6914412E-03
 -0.5045727E-02  0.0000000E+00 -0.5050505E-02 -0.1373157E-09  0.0000000E+00 -0.6914415E-03
 -0.5043261E-02  0.0000000E+00 -0.5050505E-02 -0.1481522E-09  0.0000000E+00 -0.6914418E-03
 -0.5038714E-02  0.0000000E+00 -0.5050505E-02 -0.1596770E-09  0.0000000E+00 -0.6914421E-03
 -0.5032318E-02  0.0000000E+00 -0.5050505E-02 -0.1719446E-09  0.0000000E+00 -0.6914425E-03
 -0.5022454E-02  0.0000000E+00 -0.5050505E-02 -0.1850124E-09  0.0000000E+00 -0.6914429E-03
 -0.5012589E-02  0.0000000E+00 -0.5050505E-02 -0.1989415E-09  0.0000000E+00 -0.6914433E-03
 -0.5002725E-02  0.0000000E+00 -0.5050505E-02 -0.2137968E-09  0.0000000E+00 -0.6914437E-03
 -0.4992860E-02  0.0000000E+00 -0.5050505E-02 -0.2296478E-09  0.0000000E+00 -0.6914442E-03
 -0.4976523E-02  0.0000000E+00 -0.5050505E-02 -0.2465686E-09  0.0000000E+00 -0.6914447E-03
 -0.4956794E-02  0.0000000E+00 -0.5050505E-02 -0.2646388E-09  0.0000000E+00 -0.6914453E-03
 -0.4937066E-02  0.0000000E+00 -0.5050505E-02 -0.2839436E-09  0.0000000E+00 -0.6914459E-03
 -0.4906239E-02  0.0000000E+00 -0.5050505E-02 -0.3045746E-09  0.0000000E+00 -0.6914465E-03
 -0.4866782E-02  0.0000000E+00 -0.5050505E-02 -0.3266301E-09  0.0000000E+00 -0.6914472E-03
 -0.4827325E-02  0.0000000E+00 -0.5050505E-02 -0.3502164E-09  0.0000000E+00 -0.6914479E-03
 -0.4769372E-02  0.0000000E+00 -0.5050505E-02 -0.3754476E-09  0.0000000E+00 -0.6914487E-03
 -0.4690458E-02  0.0000000E+00 -0.5050505E-02 -0.4024472E-09  0.0000000E+00 -0.6914495E-03
 -0.4611543E-02  0.0000000E+00 -0.5050505E-02 -0.4313489E-09  0.0000000E+00 -0.6914504E-03
 -0.4503035E-02  0.0000000E+00 -0.5050505E-02 -0.4622972E-09  0.0000000E+00 -0.6914514E-03
 -0.4345206E-02  0.0000000E+00 -0.5050505E-02 -0.4954491E-09  0.0000000E+00 -0.6914524E-03
 -0.4187378E-02  0.0000000E+00 -0.5050505E-02 -0.5309749E-09  0.0000000E+00 -0.6914535E-03
 -0.3985156E-02  0.0000000E+00 -0.5050505E-02 -0.5690602E-09  0.0000000E+00 -0.6914547E-03
 -0.3669499E-02  0.0000000E+00 -0.5050505E-02 -0.6099074E-09  0.0000000E+00 -0.6914560E-03
 -0.3353842E-02  0.0000000E+00 -0.5050505E-02 -0.6537374E-09  0.0000000E+00 -0.6914574E-03
 -0.2978990E-02  0.0000000E+00 -0.5050505E-02 -0.7007919E-09  0.0000000E+00 -0.6914588E-03
 -0.2347676E-02  0.0000000E+00 -0.5050505E-02 -0.7513364E-09  0.0000000E+00 -0.6914604E-03
 -0.1716362E-02  0.0000000E+00 -0.5050505E-02 -0.8056623E-09  0.0000000E+00 -0.6914621E-03
 -0.1025842E-02  0.0000000E+00 -0.5050505E-02 -0.8640908E-09  0.0000000E+00 -0.6914639E-03
  0.2367855E-03  0.0000000E+00 -0.5050505E-02 -0.9269764E-09  0.0000000E+00 -0.6914658E-03
  0.1499413E-02  0.0000000E+00 -0.5050505E-02 -0.9947115E-09  0.0000000E+00 -0.6914679E-03
  0.2762042E-02  0.0000000E+00 -0.5050505E-02 -0.1067732E-08  0.0000000E+00 -0.6914701E-03
 -0.5050505E-02  0.0000000E+00 -0.5050505E-02 -0.1146521E-08  0.0000000E+00 -0.6914725E-03
 -0.5050505E-02  0.0000000E+00 -0.5050505E-02 -0.1231621E-08  0.0000000E+00 -0.6914751E-03
 -0.5050505E-02  0.0000000E+00 -0.5050505E-02 -0.1323636E-08  0.0000000E+00 -0.6914779E-03
 -0.5050505E-02  0.0000000E+00 -0.5050505E-02 -0.1423244E-08  0.0000000E+00 -0.6914808E-03
 -0.5050505E-02  0.0000000E+00 -0.5050505E-02 -0.1531210E-08  0.0000000E+00 -0.6914840E-03
 -0.5050505E-02  0.0000000E+00 -0.5050505E-02 -0.1648396E-08  0.0000000E+00 -0.6914875E-03
 -0.5050505E-02  0.0000000E+00 -0.5050505E-02 -0.1775782E-08  0.0000000E+00 -0.6914912E-03
 -0.5050504E-02  0.0000000E+00 -0.5050505E-02 -0.1914477E-08  0.0000000E+00 -0.6914951E-03
 -0.5050501E-02  0.0000000E+00 -0.5050505E-02 -0.2065752E-08  0.0000000E+00 -0.6914994E-03
 -0.5050495E-02  0.0000000E+00 -0.5050505E-02 -0.2231059E-08  0.0000000E+00 -0.6915041E-03
 -0.5050482E-02  0.0000000E+00 -0.5050505E-02 -0.2412070E-08  0.0000000E+00 -0.6915091E-03
 -0.5050449E-02  0.0000000E+00 -0.5050505E-02 -0.2610713E-08  0.0000000E+00 -0.6915145E-03
 -0.5050376E-02  0.0000000E+00 -0.5050505E-02 -0.2829226E-08  0.0000000E+00 -0.6915204E-03
 -0.5050299E-02  0.0000000E+00 -0.5050505E-02 -0.3070211E-08  0.0000000E+00 -0.6915268E-03
 -0.5050178E-02  0.0000000E+00 -0.5050505E-02 -0.3336714E-08  0.0000000E+00 -0.6915337E-03
 -0.5050018E-02  0.0000000E+00 -0.5050505E-02 -0.3632313E-08  0.0000000E+00 -0.6915412E-03
 -0.5049710E-02  0.0000000E+00 -0.5050505E-02 -0.3961235E-08  0.0000000E+00 -0.6915494E-03
 -0.5049253E-02  0.0000000E+00 -0.5050505E-02 -0.4328495E-08  0.0000000E+00 -0.6915584E-03
 -0.5048636E-02  0.0000000E+00 -0.5050505E-02 -0.4740080E-08  0.0000000E+00 -0.6915682E-03
 -0.5047442E-02  0.0000000E+00 -0.5050505E-02 -0.5203176E-08  0.0000000E+00 -0.6915789E-03
 -0.5045727E-02  0.0000000E+00 -0.5050505E-02 -0.5726462E-08  0.0000000E+00 -0.6915908E-03
 -0.5043261E-02  0.0000000E+00 -0.5050505E-02 -0.6320485E-08  0.0000000E+00 -0.6916038E-03
 -0.5038714E-02  0.0000000E+00 -0.5050505E-02 -0.6998153E-08  0.0000000E+00 -0.6916182E-03
 -0.5032318E-02  0.0000000E+00 -0.5050505E-02 -0.7775378E-08  0.0000000E+00 -0.6916341E-03
 -0.5022454E-02  0.0000000E+00 -0.5050505E-02 -0.8671926E-08  0.0000000E+00 -0.6916519E-03
 -0.5012589E-02  0.0000000E+00 -0.5050505E-02 -0.9712557E-08  0.0000000E+00 -0.6916718E-03
 -0.5002725E-02  0.0000000E+00 -0.5050505E-02 -0.1092857E-07  0.0000000E+00 -0.6916941E-03
 -0.4992860E-02  0.0000000E+00 -0.5050505E-02 -0.1235991E-07  0.0000000E+00 -0.6917192E-03
 -0.4976523E-02  0.0000000E+00 -0.5050505E-02 -0.1405810E-07  0.0000000E+00 -0.6917478E-03
 -0.4956794E-02  0.0000000E+00 -0.5050505E-02 -0.1609036E-07  0.0000000E+00 -0.6917804E-03
 -0.4937066E-02  0.0000000E+00 -0.5050505E-02 -0.1854550E-07  0.0000000E+00 -0.6918178E-03
 -0.4906239E-02  0.0000000E+00 -0.5050505E-02 -0.2154246E-07  0.0000000E+00 -0.6918611E-03
 -0.4866782E-02  0.0000000E+00 -0.5050505E-02 -0.2524301E-07  0.0000000E+00 -0.6919117E-03
 -0.4827325E-02  0.0000000E+00 -0.5050505E-02 -0.2987082E-07  0.0000000E+00 -0.6919712E-03
 -0.4769372E-02  0.0000000E+00 -0.5050505E-02 -0.3574113E-07  0.0000000E+00 -0.6920421E-03
 -0.4690458E-02  0.0000000E+00 -0.5050505E-02 -0.4330756E-07  0.0000000E+00 -0.6921275E-03
 -0.4611543E-02  0.0000000E+00 -0.5050505E-02 -0.5323862E-07  0.0000000E+00 -0.6922319E-03
 -0.4503035E-02  0.0000000E+00 -0.5050505E-02 -0.6654657E-07  0.0000000E+00 -0.6923613E-03
 -0.4345206E-02  0.0000000E+00 -0.5050505E-02 -0.8481258E-07  0.0000000E+00 -0.6925249E-03
 -0.4187378E-02  0.0000000E+00 -0.5050505E-02 -0.1105972E-06  0.0000000E+00 -0.6927361E-03
 -0.3985156E-02  0.0000000E+00 -0.5050505E-02 -0.1482255E-06  0.0000000E+00 -0.6930158E-03
 -0.3669499E-02  0.0000000E+00 -0.5050505E-02 -0.2053780E-06  0.0000000E+00 -0.6933979E-03
 -0.3353842E-02  0.0000000E+00 -0.5050505E-02 -0.2965306E-06  0.0000000E+00 -0.6939404E-03
 -0.2978990E-02  0.0000000E+00 -0.5050505E-02 -0.4509842E-06  0.0000000E+00 -0.6947484E-03
 -0.2347676E-02  0.0000000E+00 -0.5050505E-02 -0.7333013E-06  0.0000000E+00 -0.6960285E-03
 -0.1716362E-02  0.0000000E+00 -0.5050505E-02 -0.1300490E-05  0.0000000E+00 -0.6982272E-03
 -0.1025842E-02  0.0000000E+00 -0.5050505E-02 -0.2578674E-05  0.0000000E+00 -0.7024220E-03
  0.2367855E-03  0.0000000E+00 -0.5050505E-02 -0.5864608E-05  0.0000000E+00 -0.7115566E-03
  0.1499413E-02  0.0000000E+00 -0.5050505E-02 -0.1556518E-04  0.0000000E+00 -0.7347656E-03
  0.5287294E-02  0.0000000E+00 -0.5050505E-02 -0.2575966E-03  0.0000000E+00 -0.5850189E-03
 -0.5050505E-02  0.0000000E+00 -0.5050505E-02 -0.6598422E-11  0.0000000E+00 -0.6902193E-03
 -0.5050505E-02  0.0000000E+00 -0.5050505E-02 -0.2358850E-10  0.0000000E+00 -0.6902194E-03
 -0.5050505E-02  0.0000000E+00 -0.5050505E-02 -0.4097924E-10  0.0000000E+00 -0.6902194E-03
 -0.5050505E-02  0.0000000E+00 -0.5050505E-02 -0.5646130E-10  0.0000000E+00 -0.6902194E-03
 -0.5050505E-02  0.0000000E+00 -0.5050505E-02 -0.7425229E-10  0.0000000E+00 -0.6902195E-03
 -0.5050505E-02  0.0000000E+00 -0.5050505E-02 -0.9351529E-10  0.0000000E+00 -0.6902195E-03
 -0.5050504E-02  0.0000000E+00 -0.5050505E-02 -0.1128316E-09  0.0000000E+00 -0.6902196E-03
 -0.5050501E-02  0.0000000E+00 -0.5050505E-02 -0.1317837E-09  0.0000000E+00 -0.6902197E-03
 -0.5050495E-02  0.0000000E+00 -0.5050505E-02 -0.1506048E-09  0.0000000E+00 -0.6902198E-03
 -0.5050482E-02  0.0000000E+00 -0.5050505E-02 -0.1695923E-09  0.0000000E+00 -0.6902199E-03
 -0.5050449E-02  0.0000000E+00 -0.5050505E-02 -0.1890626E-09  0.0000000E+00 -0.6902200E-03
 -0.5050376E-02  0.0000000E+00 -0.5050505E-02 -0.2092117E-09  0.0000000E+00 -0.6902202E-03
 -0.5050299E-02  0.0000000E+00 -0.5050505E-02 -0.2302189E-09  0.0000000E+00 -0.6902203E-03
 -0.5050178E-02  0.0000000E+00 -0.5050505E-02 -0.2522162E-09  0.0000000E+00 -0.6902205E-03
 -0.5050018E-02  0.0000000E+00 -0.5050505E-02 -0.2753280E-09  0.0000000E+00 -0.6902207E-03
 -0.5049710E-02  0.0000000E+00 -0.5050505E-02 -0.2996811E-09  0.0000000E+00 -0.6902209E-03
 -0.5049253E-02  0.0000000E+00 -0.5050505E-02 -0.3253958E-09  0.0000000E+00 -0.6902211E-03
 -0.5048636E-02  0.0000000E+00 -0.5050505E-02 -0.3526028E-09  0.0000000E+00 -0.6902214E-03
 -0.5047442E-02  0.0000000E+00 -0.5050505E-02 -0.3814339E-09  0.0000000E+00 -0.6902216E-03
 -0.5045727E-02  0.0000000E+00 -0.5050505E-02 -0.4120287E-09  0.0000000E+00 -0.6902219E-03
 -0.5043261E-02  0.0000000E+00 -0.5050505E-02 -0.4445335E-09  0.0000000E+00 -0.6902222E-03
 -0.5038714E-02  0.0000000E+00 -0.5050505E-02 -0.4791020E-09  0.0000000E+00 -0.6902226E-03
 -0.5032318E-02  0.0000000E+00 -0.5050505E-02 -0.5158969E-09  0.0000000E+00 -0.6902229E-03
 -0.5022454E-02  0.0000000E+00 -0.5050505E-02 -0.5550904E-09  0.0000000E+00 -0.6902233E-03
 -0.5012589E-02  0.0000000E+00 -0.5050505E-02 -0.5968653E-09  0.0000000E+00 -0.6902237E-03
 -0.5002725E-02  0.0000000E+00 -0.5050505E-02 -0.6414163E-09  0.0000000E+00 -0.6902242E-03
 -0.4992860E-02  0.0000000E+00 -0.5050505E-02 -0.6889515E-09  0.0000000E+00 -0.6902246E-03
 -0.4976523E-02  0.0000000E+00 -0.5050505E-02 -0.7396929E-09  0.0000000E+00 -0.6902252E-03
 -0.4956794E-02  0.0000000E+00 -0.5050505E-02 -0.7938785E-09  0.0000000E+00 -0.6902257E-03
 -0.4937066E-02  0.0000000E+00 -0.5050505E-02 -0.8517636E-09  0.0000000E+00 -0.6902263E-03
 -0.4906239E-02  0.0000000E+00 -0.5050505E-02 -0.9136223E-09  0.0000000E+00 -0.6902269E-03
 -0.4866782E-02  0.0000000E+00 -0.5050505E-02 -0.9797494E-09  0.0000000E+00 -0.6902276E-03
 -0.4827325E-02  0.0000000E+00 -0.5050505E-02 -0.1050462E-08  0.0000000E+00 -0.6902283E-03
 -0.4769372E-02  0.0000000E+00 -0.5050505E-02 -0.1126103E-08  0.0000000E+00 -0.6902291E-03
 -0.4690458E-02  0.0000000E+00 -0.5050505E-02 -0.1207042E-08  0.0000000E+00 -0.6902300E-03
 -0.4611543E-02  0.0000000E+00 -0.5050505E-02 -0.1293677E-08  0.0000000E+00 -0.6902309E-03
 -0.4503035E-02  0.0000000E+00 -0.5050505E-02 -0.1386443E-08  0.0000000E+00 -0.6902318E-03
 -0.4345206E-02  0.0000000E+00 -0.5050505E-02 -0.1485808E-08  0.0000000E+00 -0.6902329E-03
 -0.4187378E-02  0.0000000E+00 -0.5050505E-02 -0.1592282E-08  0.0000000E+00 -0.6902340E-03
 -0.3985156E-02  0.0000000E+00 -0.5050505E-02 -0.1706420E-08  0.0000000E+00 -0.6902351E-03
 -0.3669499E-02  0.0000000E+00 -0.5050505E-02 -0.1828828E-08  0.0000000E+00 -0.6902364E-03
 -0.3353842E-02  0.0000000E+00 -0.5050505E-02 -0.1960166E-08  0.0000000E+00 -0.6902378E-03
 -0.2978990E-02  0.0000000E+00 -0.5050505E-02 -0.2101157E-08  0.0000000E+00 -0.6902392E-03
 -0.2347676E-02  0.0000000E+00 -0.5050505E-02 -0.2252594E-08  0.0000000E+00 -0.6902408E-03
 -0.1716362E-02  0.0000000E+00 -0.5050505E-02 -0.2415348E-08  0.0000000E+00 -0.6902425E-03
 -0.1025842E-02  0.0000000E+00 -0.5050505E-02 -0.2590380E-08  0.0000000E+00 -0.6902443E-03
  0.2367855E-03  0.0000000E+00 -0.5050505E-02 -0.2778749E-08  0.0000000E+00 -0.6902462E-03
  0.1499413E-02  0.0000000E+00 -0.5050505E-02 -0.2981627E-08  0.0000000E+00 -0.6902483E-03
  0.2762042E-02  0.0000000E+00 -0.5050505E-02 -0.3200314E-08  0.0000000E+00 -0.6902505E-03
 -0.5050505E-02  0.0000000E+00 -0.5050505E-02 -0.3436259E-08  0.0000000E+00 -0.6902529E-03
 -0.5050505E-02  0.0000000E+00 -0.5050505E-02 -0.3691074E-08  0.0000000E+00 -0.6902554E-03
 -0.5050505E-02  0.0000000E+00 -0.5050505E-02 -0.3966565E-08  0.0000000E+00 -0.6902582E-03
 -0.5050505E-02  0.0000000E+00 -0.5050505E-02 -0.4264758E-08  0.0000000E+00 -0.6902611E-03
 -0.5050505E-02  0.0000000E+00 -0.5050505E-02 -0.4587933E-08  0.0000000E+00 -0.6902643E-03
 -0.5050505E-02  0.0000000E+00 -0.5050505E-02 -0.4938663E-08  0.0000000E+00 -0.6902677E-03
 -0.5050505E-02  0.0000000E+00 -0.5050505E-02 -0.5319865E-08  0.0000000E+00 -0.6902714E-03
 -0.5050504E-02  0.0000000E+00 -0.5050505E-02 -0.5734853E-08  0.0000000E+00 -0.6902753E-03
 -0.5050501E-02  0.0000000E+00 -0.5050505E-02 -0.6187408E-08  0.0000000E+00 -0.6902796E-03
 -0.5050495E-02  0.0000000E+00 -0.5050505E-02 -0.6681860E-08  0.0000000E+00 -0.6902842E-03
 -0.5050482E-02  0.0000000E+00 -0.5050505E-02 -0.7223185E-08  0.0000000E+00 -0.6902892E-03
 -0.5050449E-02  0.0000000E+00 -0.5050505E-02 -0.7817125E-08  0.0000000E+00 -0.6902946E-03
 -0.5050376E-02  0.0000000E+00 -0.5050505E-02 -0.8470336E-08  0.0000000E+00 -0.6903004E-03
 -0.5050299E-02  0.0000000E+00 -0.5050505E-02 -0.9190559E-08  0.0000000E+00 -0.6903067E-03
 -0.5050178E-02  0.0000000E+00 -0.5050505E-02 -0.9986849E-08  0.0000000E+00 -0.6903136E-03
 -0.5050018E-02  0.0000000E+00 -0.5050505E-02 -0.1086984E-07  0.0000000E+00 -0.6903210E-03
 -0.5049710E-02  0.0000000E+00 -0.5050505E-02 -0.1185207E-07  0.0000000E+00 -0.6903292E-03
 -0.5049253E-02  0.0000000E+00 -0.5050505E-02 -0.1294843E-07  0.0000000E+00 -0.6903380E-03
 -0.5048636E-02  0.0000000E+00 -0.5050505E-02 -0.1417667E-07  0.0000000E+00 -0.6903477E-03
 -0.5047442E-02  0.0000000E+00 -0.5050505E-02 -0.1555809E-07  0.0000000E+00 -0.6903583E-03
 -0.5045727E-02  0.0000000E+00 -0.5050505E-02 -0.1711837E-07  0.0000000E+00 -0.6903700E-03
 -0.5043261E-02  0.0000000E+00 -0.5050505E-02 -0.1888871E-07  0.0000000E+00 -0.6903828E-03
 -0.5038714E-02  0.0000000E+00 -0.5050505E-02 -0.2090725E-07  0.0000000E+00 -0.6903970E-03
 -0.5032318E-02  0.0000000E+00 -0.5050505E-02 -0.2322094E-07  0.0000000E+00 -0.6904127E-03
 -0.5022454E-02  0.0000000E+00 -0.5050505E-02 -0.2588805E-07  0.0000000E+00 -0.6904302E-03
 -0.5012589E-02  0.0000000E+00 -0.5050505E-02 -0.2898143E-07  0.0000000E+00 -0.6904497E-03
 -0.5002725E-02  0.0000000E+00 -0.5050505E-02 -0.3259306E-07  0.0000000E+00 -0.6904716E-03
 -0.4992860E-02  0.0000000E+00 -0.5050505E-02 -0.3684008E-07  0.0000000E+00 -0.6904962E-03
 -0.4976523E-02  0.0000000E+00 -0.5050505E-02 -0.4187329E-07  0.0000000E+00 -0.6905241E-03
 -0.4956794E-02  0.0000000E+00 -0.5050505E-02 -0.4788893E-07  0.0000000E+00 -0.6905559E-03
 -0.4937066E-02  0.0000000E+00 -0.5050505E-02 -0.5514556E-07  0.0000000E+00 -0.6905923E-03
 -0.4906239E-02  0.0000000E+00 -0.5050505E-02 -0.6398837E-07  0.0000000E+00 -0.6906343E-03
 -0.4866782E-02  0.0000000E+00 -0.5050505E-02 -0.7488500E-07  0.0000000E+00 -0.6906831E-03
 -0.4827325E-02  0.0000000E+00 -0.5050505E-02 -0.8847927E-07  0.0000000E+00 -0.6907404E-03
 -0.4769372E-02  0.0000000E+00 -0.5050505E-02 -0.1056736E-06  0.0000000E+00 -0.6908082E-03
 -0.4690458E-02  0.0000000E+00 -0.5050505E-02 -0.1277582E-06  0.0000000E+00 -0.6908894E-03
 -0.4611543E-02  0.0000000E+00 -0.5050505E-02 -0.1566197E-06  0.0000000E+00 -0.6909878E-03
 -0.4503035E-02  0.0000000E+00 -0.5050505E-02 -0.1950868E-06  0.0000000E+00 -0.6911087E-03
 -0.4345206E-02  0.0000000E+00 -0.5050505E-02 -0.2475233E-06  0.0000000E+00 -0.6912595E-03
 -0.4187378E-02  0.0000000E+00 -0.5050505E-02 -0.3208842E-06  0.0000000E+00 -0.6914510E-03
 -0.3985156E-02  0.0000000E+00 -0.5050505E-02 -0.4266727E-06  0.0000000E+00 -0.6916989E-03
 -0.3669499E-02  0.0000000E+00 -0.5050505E-02 -0.5847444E-06  0.0000000E+00 -0.6920269E-03
 -0.3353842E-02  0.0000000E+00 -0.5050505E-02 -0.8310881E-06  0.0000000E+00 -0.6924711E-03
 -0.2978990E-02  0.0000000E+00 -0.5050505E-02 -0.1234671E-05  0.0000000E+00 -0.6930866E-03
 -0.2347676E-02  0.0000000E+00 -0.5050505E-02 -0.1936182E-05  0.0000000E+00 -0.6939520E-03
 -0.1716362E-02  0.0000000E+00 -0.5050505E-02 -0.3242900E-05  0.0000000E+00 -0.6951513E-03
 -0.1025842E-02  0.0000000E+00 -0.5050505E-02 -0.5875675E-05  0.0000000E+00 -0.6966206E-03
  0.2367855E-03  0.0000000E+00 -0.5050505E-02 -0.1164888E-04  0.0000000E+00 -0.6973181E-03
  0.1499413E-02  0.0000000E+00 -0.5050505E-02 -0.2542898E-04  0.0000000E+00 -0.6911398E-03
  0.5287294E-02  0.0000000E+00 -0.5050505E-02 -0.6093991E-04  0.0000000E+00 -0.6473804E-03
 -0.5050505E-02  0.0000000E+00 -0.5050505E-02 -0.1162094E-10  0.0000000E+00 -0.6878811E-03
 -0.5050505E-02  0.0000000E+00 -0.5050505E-02 -0.3975548E-10  0.0000000E+00 -0.6878811E-03
 -0.5050505E-02  0.0000000E+00 -0.5050505E-02 -0.6842678E-10  0.0000000E+00 -0.6878812E-03
 -0.5050505E-02  0.0000000E+00 -0.5050505E-02 -0.9426923E-10  0.0000000E+00 -0.6878812E-03
 -0.5050505E-02  0.0000000E+00 -0.5050505E-02 -0.1238006E-09  0.0000000E+00 -0.6878812E-03
 -0.5050505E-02  0.0000000E+00 -0.5050505E-02 -0.1557556E-09  0.0000000E+00 -0.6878813E-03
 -0.5050504E-02  0.0000000E+00 -0.5050505E-02 -0.1879323E-09  0.0000000E+00 -0.6878814E-03
 -0.5050501E-02  0.0000000E+00 -0.5050505E-02 -0.2195703E-09  0.0000000E+00 -0.6878815E-03
 -0.5050495E-02  0.0000000E+00 -0.5050505E-02 -0.2509968E-09  0.0000000E+00 -0.6878816E-03
 -0.5050482E-02  0.0000000E+00 -0.5050505E-02 -0.2826854E-09  0.0000000E+00 -0.6878817E-03
 -0.5050449E-02  0.0000000E+00 -0.5050505E-02 -0.3151533E-09  0.0000000E+00 -0.6878818E-03
 -0.5050376E-02  0.0000000E+00 -0.5050505E-02 -0.3487367E-09  0.0000000E+00 -0.6878820E-03
 -0.5050299E-02  0.0000000E+00 -0.5050505E-02 -0.3837346E-09  0.0000000E+00 -0.6878821E-03
 -0.5050178E-02  0.0000000E+00 -0.5050505E-02 -0.4203779E-09  0.0000000E+00 -0.6878823E-03
 -0.5050018E-02  0.0000000E+00 -0.5050505E-02 -0.4588745E-09  0.0000000E+00 -0.6878825E-03
 -0.5049710E-02  0.0000000E+00 -0.5050505E-02 -0.4994363E-09  0.0000000E+00 -0.6878827E-03
 -0.5049253E-02  0.0000000E+00 -0.5050505E-02 -0.5422645E-09  0.0000000E+00 -0.6878829E-03
 -0.5048636E-02  0.0000000E+00 -0.5050505E-02 -0.5875756E-09  0.0000000E+00 -0.6878832E-03
 -0.5047442E-02  0.0000000E+00 -0.5050505E-02 -0.6355892E-09  0.0000000E+00 -0.6878834E-03
 -0.5045727E-02  0.0000000E+00 -0.5050505E-02 -0.6865367E-09  0.0000000E+00 -0.6878837E-03
 -0.5043261E-02  0.0000000E+00 -0.5050505E-02 -0.7406613E-09  0.0000000E+00 -0.6878840E-03
 -0.5038714E-02  0.0000000E+00 -0.5050505E-02 -0.7982183E-09  0.0000000E+00 -0.6878843E-03
 -0.5032318E-02  0.0000000E+00 -0.5050505E-02 -0.8594777E-09  0.0000000E+00 -0.6878847E-03
 -0.5022454E-02  0.0000000E+00 -0.5050505E-02 -0.9247256E-09  0.0000000E+00 -0.6878851E-03
 -0.5012589E-02  0.0000000E+00 -0.5050505E-02 -0.9942657E-09  0.0000000E+00 -0.6878855E-03
 -0.5002725E-02  0.0000000E+00 -0.5050505E-02 -0.1068421E-08  0.0000000E+00 -0.6878859E-03
 -0.4992860E-02  0.0000000E+00 -0.5050505E-02 -0.1147537E-08  0.0000000E+00 -0.6878864E-03
 -0.4976523E-02  0.0000000E+00 -0.5050505E-02 -0.1231982E-08  0.0000000E+00 -0.6878869E-03
 -0.4956794E-02  0.0000000E+00 -0.5050505E-02 -0.1322152E-08  0.0000000E+00 -0.6878875E-03
 -0.4937066E-02  0.0000000E+00 -0.5050505E-02 -0.1418470E-08  0.0000000E+00 -0.6878881E-03
 -0.4906239E-02  0.0000000E+00 -0.5050505E-02 -0.1521390E-08  0.0000000E+00 -0.6878887E-03
 -0.4866782E-02  0.0000000E+00 -0.5050505E-02 -0.1631401E-08  0.0000000E+00 -0.6878894E-03
 -0.4827325E-02  0.0000000E+00 -0.5050505E-02 -0.1749031E-08  0.0000000E+00 -0.6878901E-03
 -0.4769372E-02  0.0000000E+00 -0.5050505E-02 -0.1874845E-08  0.0000000E+00 -0.6878909E-03
 -0.4690458E-02  0.0000000E+00 -0.5050505E-02 -0.2009458E-08  0.0000000E+00 -0.6878917E-03
 -0.4611543E-02  0.0000000E+00 -0.5050505E-02 -0.2153531E-08  0.0000000E+00 -0.6878926E-03
 -0.4503035E-02  0.0000000E+00 -0.5050505E-02 -0.2307782E-08  0.0000000E+00 -0.6878935E-03
 -0.4345206E-02  0.0000000E+00 -0.5050505E-02 -0.2472987E-08  0.0000000E+00 -0.6878946E-03
 -0.4187378E-02  0.0000000E+00 -0.5050505E-02 -0.2649992E-08  0.0000000E+00 -0.6878957E-03
 -0.3985156E-02  0.0000000E+00 -0.5050505E-02 -0.2839716E-08  0.0000000E+00 -0.6878968E-03
 -0.3669499E-02  0.0000000E+00 -0.5050505E-02 -0.3043160E-08  0.0000000E+00 -0.6878981E-03
 -0.3353842E-02  0.0000000E+00 -0.5050505E-02 -0.3261418E-08  0.0000000E+00 -0.6878994E-03
 -0.2978990E-02  0.0000000E+00 -0.5050505E-02 -0.3495686E-08  0.0000000E+00 -0.6879009E-03
 -0.2347676E-02  0.0000000E+00 -0.5050505E-02 -0.3747276E-08  0.0000000E+00 -0.6879024E-03
 -0.1716362E-02  0.0000000E+00 -0.5050505E-02 -0.4017629E-08  0.0000000E+00 -0.6879041E-03
 -0.1025842E-02  0.0000000E+00 -0.5050505E-02 -0.4308331E-08  0.0000000E+00 -0.6879059E-03
  0.2367855E-03  0.0000000E+00 -0.5050505E-02 -0.4621133E-08  0.0000000E+00 -0.6879078E-03
  0.1499413E-02  0.0000000E+00 -0.5050505E-02 -0.4957972E-08  0.0000000E+00 -0.6879098E-03
  0.2762042E-02  0.0000000E+00 -0.5050505E-02 -0.5320995E-08  0.0000000E+00 -0.6879120E-03
 -0.5050505E-02  0.0000000E+00 -0.5050505E-02 -0.5712591E-08  0.0000000E+00 -0.6879144E-03
 -0.5050505E-02  0.0000000E+00 -0.5050505E-02 -0.6135423E-08  0.0000000E+00 -0.6879169E-03
 -0.5050505E-02  0.0000000E+00 -0.5050505E-02 -0.6592467E-08  0.0000000E+00 -0.6879196E-03
 -0.5050505E-02  0.0000000E+00 -0.5050505E-02 -0.7087063E-08  0.0000000E+00 -0.6879225E-03
 -0.5050505E-02  0.0000000E+00 -0.5050505E-02 -0.7622968E-08  0.0000000E+00 -0.6879257E-03
 -0.5050505E-02  0.0000000E+00 -0.5050505E-02 -0.8204419E-08  0.0000000E+00 -0.6879291E-03
 -0.5050505E-02  0.0000000E+00 -0.5050505E-02 -0.8836215E-08  0.0000000E+00 -0.6879327E-03
 -0.5050504E-02  0.0000000E+00 -0.5050505E-02 -0.9523807E-08  0.0000000E+00 -0.6879366E-03
 -0.5050501E-02  0.0000000E+00 -0.5050505E-02 -0.1027341E-07  0.0000000E+00 -0.6879408E-03
 -0.5050495E-02  0.0000000E+00 -0.5050505E-02 -0.1109214E-07  0.0000000E+00 -0.6879453E-03
 -0.5050482E-02  0.0000000E+00 -0.5050505E-02 -0.1198816E-07  0.0000000E+00 -0.6879502E-03
 -0.5050449E-02  0.0000000E+00 -0.5050505E-02 -0.1297088E-07  0.0000000E+00 -0.6879555E-03
 -0.5050376E-02  0.0000000E+00 -0.5050505E-02 -0.1405122E-07  0.0000000E+00 -0.6879613E-03
 -0.5050299E-02  0.0000000E+00 -0.5050505E-02 -0.1524184E-07  0.0000000E+00 -0.6879675E-03
 -0.5050178E-02  0.0000000E+00 -0.5050505E-02 -0.1655756E-07  0.0000000E+00 -0.6879742E-03
 -0.5050018E-02  0.0000000E+00 -0.5050505E-02 -0.1801573E-07  0.0000000E+00 -0.6879815E-03
 -0.5049710E-02  0.0000000E+00 -0.5050505E-02 -0.1963683E-07  0.0000000E+00 -0.6879895E-03
 -0.5049253E-02  0.0000000E+00 -0.5050505E-02 -0.2144513E-07  0.0000000E+00 -0.6879982E-03
 -0.5048636E-02  0.0000000E+00 -0.5050505E-02 -0.2346949E-07  0.0000000E+00 -0.6880076E-03
 -0.5047442E-02  0.0000000E+00 -0.5050505E-02 -0.2574452E-07  0.0000000E+00 -0.6880180E-03
 -0.5045727E-02  0.0000000E+00 -0.5050505E-02 -0.2831188E-07  0.0000000E+00 -0.6880294E-03
 -0.5043261E-02  0.0000000E+00 -0.5050505E-02 -0.3122208E-07  0.0000000E+00 -0.6880419E-03
 -0.5038714E-02  0.0000000E+00 -0.5050505E-02 -0.3453673E-07  0.0000000E+00 -0.6880556E-03
 -0.5032318E-02  0.0000000E+00 -0.5050505E-02 -0.3833151E-07  0.0000000E+00 -0.6880709E-03
 -0.5022454E-02  0.0000000E+00 -0.5050505E-02 -0.4270008E-07  0.0000000E+00 -0.6880878E-03
 -0.5012589E-02  0.0000000E+00 -0.5050505E-02 -0.4775923E-07  0.0000000E+00 -0.6881066E-03
 -0.5002725E-02  0.0000000E+00 -0.5050505E-02 -0.5365591E-07  0.0000000E+00 -0.6881276E-03
 -0.4992860E-02  0.0000000E+00 -0.5050505E-02 -0.6057659E-07  0.0000000E+00 -0.6881513E-03
 -0.4976523E-02  0.0000000E+00 -0.5050505E-02 -0.6876029E-07  0.0000000E+00 -0.6881779E-03
 -0.4956794E-02  0.0000000E+00 -0.5050505E-02 -0.7851661E-07  0.0000000E+00 -0.6882081E-03
 -0.4937066E-02  0.0000000E+00 -0.5050505E-02 -0.9025118E-07  0.0000000E+00 -0.6882425E-03
 -0.4906239E-02  0.0000000E+00 -0.5050505E-02 -0.1045020E-06  0.0000000E+00 -0.6882819E-03
 -0.4866782E-02  0.0000000E+00 -0.5050505E-02 -0.1219927E-06  0.0000000E+00 -0.6883275E-03
 -0.4827325E-02  0.0000000E+00 -0.5050505E-02 -0.1437103E-06  0.0000000E+00 -0.6883804E-03
 -0.4769372E-02  0.0000000E+00 -0.5050505E-02 -0.1710239E-06  0.0000000E+00 -0.6884425E-03
 -0.4690458E-02  0.0000000E+00 -0.5050505E-02 -0.2058666E-06  0.0000000E+00 -0.6885158E-03
 -0.4611543E-02  0.0000000E+00 -0.5050505E-02 -0.2510207E-06  0.0000000E+00 -0.6886033E-03
 -0.4503035E-02  0.0000000E+00 -0.5050505E-02 -0.3105790E-06  0.0000000E+00 -0.6887085E-03
 -0.4345206E-02  0.0000000E+00 -0.5050505E-02 -0.3907056E-06  0.0000000E+00 -0.6888364E-03
 -0.4187378E-02  0.0000000E+00 -0.5050505E-02 -0.5009273E-06  0.0000000E+00 -0.6889932E-03
 -0.3985156E-02  0.0000000E+00 -0.5050505E-02 -0.6563852E-06  0.0000000E+00 -0.6891869E-03
 -0.3669499E-02  0.0000000E+00 -0.5050505E-02 -0.8818687E-06  0.0000000E+00 -0.6894268E-03
 -0.3353842E-02  0.0000000E+00 -0.5050505E-02 -0.1219206E-05  0.0000000E+00 -0.6897213E-03
 -0.2978990E-02  0.0000000E+00 -0.5050505E-02 -0.1740987E-05  0.0000000E+00 -0.6900707E-03
 -0.2347676E-02  0.0000000E+00 -0.5050505E-02 -0.2575800E-05  0.0000000E+00 -0.6904424E-03
 -0.1716362E-02  0.0000000E+00 -0.5050505E-02 -0.3951588E-05  0.0000000E+00 -0.6907012E-03
 -0.1025842E-02  0.0000000E+00 -0.5050505E-02 -0.6252173E-05  0.0000000E+00 -0.6904141E-03
  0.2367855E-03  0.0000000E+00 -0.5050505E-02 -0.9991799E-05  0.0000000E+00 -0.6883717E-03
  0.1499413E-02  0.0000000E+00 -0.5050505E-02 -0.1512402E-04  0.0000000E+00 -0.6817788E-03
  0.5287294E-02  0.0000000E+00 -0.5050505E-02 -0.1672959E-04  0.0000000E+00 -0.6675384E-03
 -0.5050505E-02  0.0000000E+00 -0.5050505E-02 -0.1755933E-10  0.0000000E+00 -0.6845183E-03
 -0.5050505E-02  0.0000000E+00 -0.5050505E-02 -0.5636447E-10  0.0000000E+00 -0.6845183E-03
 -0.5050505E-02  0.0000000E+00 -0.5050505E-02 -0.9583187E-10  0.0000000E+00 -0.6845183E-03
 -0.5050505E-02  0.0000000E+00 -0.5050505E-02 -0.1318108E-09  0.0000000E+00 -0.6845183E-03
 -0.5050505E-02  0.0000000E+00 -0.5050505E-02 -0.1729867E-09  0.0000000E+00 -0.6845184E-03
 -0.5050505E-02  0.0000000E+00 -0.5050505E-02 -0.2176154E-09  0.0000000E+00 -0.6845185E-03
 -0.5050504E-02  0.0000000E+00 -0.5050505E-02 -0.2627092E-09  0.0000000E+00 -0.6845185E-03
 -0.5050501E-02  0.0000000E+00 -0.5050505E-02 -0.3071081E-09  0.0000000E+00 -0.6845186E-03
 -0.5050495E-02  0.0000000E+00 -0.5050505E-02 -0.3511814E-09  0.0000000E+00 -0.6845187E-03
 -0.5050482E-02  0.0000000E+00 -0.5050505E-02 -0.3955767E-09  0.0000000E+00 -0.6845188E-03
 -0.5050449E-02  0.0000000E+00 -0.5050505E-02 -0.4410160E-09  0.0000000E+00 -0.6845190E-03
 -0.5050376E-02  0.0000000E+00 -0.5050505E-02 -0.4879911E-09  0.0000000E+00 -0.6845191E-03
 -0.5050299E-02  0.0000000E+00 -0.5050505E-02 -0.5369229E-09  0.0000000E+00 -0.6845193E-03
 -0.5050178E-02  0.0000000E+00 -0.5050505E-02 -0.5881460E-09  0.0000000E+00 -0.6845194E-03
 -0.5050018E-02  0.0000000E+00 -0.5050505E-02 -0.6419548E-09  0.0000000E+00 -0.6845196E-03
 -0.5049710E-02  0.0000000E+00 -0.5050505E-02 -0.6986456E-09  0.0000000E+00 -0.6845198E-03
 -0.5049253E-02  0.0000000E+00 -0.5050505E-02 -0.7585012E-09  0.0000000E+00 -0.6845200E-03
 -0.5048636E-02  0.0000000E+00 -0.5050505E-02 -0.8218219E-09  0.0000000E+00 -0.6845203E-03
 -0.5047442E-02  0.0000000E+00 -0.5050505E-02 -0.8889142E-09  0.0000000E+00 -0.6845205E-03
 -0.5045727E-02  0.0000000E+00 -0.5050505E-02 -0.9601002E-09  0.0000000E+00 -0.6845208E-03
 -0.5043261E-02  0.0000000E+00 -0.5050505E-02 -0.1035718E-08  0.0000000E+00 -0.6845211E-03
 -0.5038714E-02  0.0000000E+00 -0.5050505E-02 -0.1116123E-08  0.0000000E+00 -0.6845215E-03
 -0.5032318E-02  0.0000000E+00 -0.5050505E-02 -0.1201692E-08  0.0000000E+00 -0.6845218E-03
 -0.5022454E-02  0.0000000E+00 -0.5050505E-02 -0.1292822E-08  0.0000000E+00 -0.6845222E-03
 -0.5012589E-02  0.0000000E+00 -0.5050505E-02 -0.1389935E-08  0.0000000E+00 -0.6845226E-03
 -0.5002725E-02  0.0000000E+00 -0.5050505E-02 -0.1493482E-08  0.0000000E+00 -0.6845230E-03
 -0.4992860E-02  0.0000000E+00 -0.5050505E-02 -0.1603942E-08  0.0000000E+00 -0.6845235E-03
 -0.4976523E-02  0.0000000E+00 -0.5050505E-02 -0.1721829E-08  0.0000000E+00 -0.6845240E-03
 -0.4956794E-02  0.0000000E+00 -0.5050505E-02 -0.1847691E-08  0.0000000E+00 -0.6845246E-03
 -0.4937066E-02  0.0000000E+00 -0.5050505E-02 -0.1982117E-08  0.0000000E+00 -0.6845252E-03