title = "dataset feddes"
variables = "x", "y", "z", "h_w", "p_w", "s_w", "theta_w", "transp", "evap"
zone t = "Flow variables, solution time =  5.900E+01 days        " i =  100, j =  100, k =    1,  f=point
  0.0000000E+00  0.0000000E+00  0.0000000E+00 -0.1000000E+02 -0.1000000E+02  0.4298033E+00  0.1839558E+00  0.0000000E+00  0.0000000E+00
  0.1010101E-01  0.0000000E+00  0.0000000E+00 -0.1000000E+02 -0.1000000E+02  0.4298033E+00  0.1839558E+00  0.0000000E+00  0.0000000E+00
  0.2020202E-01  0.0000000E+00  0.0000000E+00 -0.1000000E+02 -0.1000000E+02  0.4298033E+00  0.1839558E+00  0.0000000E+00  0.0000000E+00
  0.3030303E-01  0.0000000E+00  0.0000000E+00 -0.1000000E+02 -0.1000000E+02  0.4298033E+00  0.1839558E+00  0.0000000E+00  0.0000000E+00
  0.4040404E-01  0.0000000E+00  0.0000000E+00 -0.1000000E+02 -0.1000000E+02  0.4298033E+00  0.1839558E+00  0.0000000E+00  0.0000000E+00
  0.5050505E-01  0.0000000E+00  0.0000000E+00 -0.1000000E+02 -0.1000000E+02  0.4298033E+00  0.1839558E+00  0.0000000E+00  0.0000000E+00
  0.6060606E-01  0.0000000E+00  0.0000000E+00 -0.1000000E+02 -0.1000000E+02  0.4298033E+00  0.1839558E+00  0.0000000E+00  0.0000000E+00
  0.7070707E-01  0.0000000E+00  0.0000000E+00 -0.1000000E+02 -0.1000000E+02  0.4298033E+00  0.1839558E+00  0.0000000E+00  0.0000000E+00
  0.8080808E-01  0.0000000E+00  0.0000000E+00 -0.1000000E+02 -0.1000000E+02  0.4298033E+00  0.1839558E+00  0.0000000E+00  0.0000000E+00
  0.9090909E-01  0.0000000E+00  0.0000000E+00 -0.1000000E+02 -0.1000000E+02  0.4298033E+00  0.1839558E+00  0.0000000E+00  0.0000000E+00
  0.1010101E+00  0.0000000E+00  0.0000000E+00 -0.1000000E+02 -0.1000000E+02  0.4298033E+00  0.1839558E+00  0.0000000E+00  0.0000000E+00
  0.1111111E+00  0.0000000E+00  0.0000000E+00 -0.1000000E+02 -0.1000000E+02  0.4298033E+00  0.1839558E+00  0.0000000E+00  0.0000000E+00
  0.1212121E+00  0.0000000E+00  0.0000000E+00 -0.1000000E+02 -0.1000000E+02  0.4298033E+00  0.1839558E+00  0.0000000E+00  0.0000000E+00
  0.1313131E+00  0.0000000E+00  0.0000000E+00 -0.1000000E+02 -0.1000000E+02  0.4298033E+00  0.1839558E+00  0.0000000E+00  0.0000000E+00
  0.1414142E+00  0.0000000E+00  0.0000000E+00 -0.1000000E+02 -0.1000000E+02  0.4298033E+00  0.1839558E+00  0.0000000E+00  0.0000000E+00
  0.1515152E+00  0.0000000E+00  0.0000000E+00 -0.1000000E+02 -0.1000000E+02  0.4298033E+00  0.1839558E+00  0.0000000E+00  0.0000000E+00
  0.1616162E+00  0.0000000E+00  0.0000000E+00 -0.1000000E+02 -0.1000000E+02  0.4298033E+00  0.1839558E+00  0.0000000E+00  0.0000000E+00
  0.1717172E+00  0.0000000E+00  0.0000000E+00 -0.1000000E+02 -0.1000000E+02  0.4298033E+00  0.1839558E+00  0.0000000E+00  0.0000000E+00
  0.1818182E+00  0.0000000E+00  0.0000000E+00 -0.1000000E+02 -0.1000000E+02  0.4298033E+00  0.1839558E+00  0.0000000E+00  0.0000000E+00
  0.1919192E+00  0.0000000E+00  0.0000000E+00 -0.1000000E+02 -0.1000000E+02  0.4298033E+00  0.1839558E+00  0.0000000E+00  0.0000000E+00
  0.2020202E+00  0.0000000E+00  0.0000000E+00 -0.1000000E+02 -0.1000000E+02  0.4298033E+00  0.1839558E+00  0.0000000E+00  0.0000000E+00
  0.2121212E+00  0.0000000E+00  0.0000000E+00 -0.1000000E+02 -0.1000000E+02  0.4298033E+00  0.1839558E+00  0.0000000E+00  0.0000000E+00
  0.2222222E+00  0.0000000E+00  0.0000000E+00 -0.1000000E+02 -0.1000000E+02  0.4298033E+00  0.1839558E+00  0.0000000E+00  0.0000000E+00
  0.2323232E+00  0.0000000E+00  0.0000000E+00 -0.1000000E+02 -0.1000000E+02  0.4298033E+00  0.1839558E+00  0.0000000E+00  0.0000000E+00
  0.2424242E+00  0.0000000E+00  0.0000000E+00 -0.1000000E+02 -0.1000000E+02  0.4298033E+00  0.1839558E+00  0.0000000E+00  0.0000000E+00
  0.2525252E+00  0.0000000E+00  0.0000000E+00 -0.1000000E+02 -0.1000000E+02  0.4298033E+00  0.1839558E+00  0.0000000E+00  0.0000000E+00
  0.2626262E+00  0.0000000E+00  0.0000000E+00 -0.1000000E+02 -0.1000000E+02  0.4298033E+00  0.1839558E+00  0.0000000E+00  0.0000000E+00
  0.2727273E+00  0.0000000E+00  0.0000000E+00 -0.1000000E+02 -0.1000000E+02  0.4298033E+00  0.1839558E+00  0.0000000E+00  0.0000000E+00
  0.2828283E+00  0.0000000E+00  0.0000000E+00 -0.1000000E+02 -0.1000000E+02  0.4298033E+00  0.1839558E+00  0.0000000E+00  0.0000000E+00
  0.2929293E+00  0.0000000E+00  0.0000000E+00 -0.1000000E+02 -0.1000000E+02  0.4298033E+00  0.1839558E+00  0.0000000E+00  0.0000000E+00
  0.3030303E+00  0.0000000E+00  0.0000000E+00 -0.1000000E+02 -0.1000000E+02  0.4298033E+00  0.1839558E+00  0.0000000E+00  0.0000000E+00
  0.3131313E+00  0.0000000E+00  0.0000000E+00 -0.1000000E+02 -0.1000000E+02  0.4298033E+00  0.1839558E+00  0.0000000E+00  0.0000000E+00
  0.3232324E+00  0.0000000E+00  0.0000000E+00 -0.1000000E+02 -0.1000000E+02  0.4298033E+00  0.1839558E+00  0.0000000E+00  0.0000000E+00
  0.3333334E+00  0.0000000E+00  0.0000000E+00 -0.1000000E+02 -0.1000000E+02  0.4298033E+00  0.1839558E+00  0.0000000E+00  0.0000000E+00
  0.3434344E+00  0.0000000E+00  0.0000000E+00 -0.1000000E+02 -0.1000000E+02  0.4298033E+00  0.1839558E+00  0.0000000E+00  0.0000000E+00
  0.3535354E+00  0.0000000E+00  0.0000000E+00 -0.1000000E+02 -0.1000000E+02  0.4298033E+00  0.1839558E+00  0.0000000E+00  0.0000000E+00
  0.3636364E+00  0.0000000E+00  0.0000000E+00 -0.1000000E+02 -0.1000000E+02  0.4298033E+00  0.1839558E+00  0.0000000E+00  0.0000000E+00
  0.3737375E+00  0.0000000E+00  0.0000000E+00 -0.1000000E+02 -0.1000000E+02  0.4298033E+00  0.1839558E+00  0.0000000E+00  0.0000000E+00
  0.3838385E+00  0.0000000E+00  0.0000000E+00 -0.1000000E+02 -0.1000000E+02  0.4298033E+00  0.1839558E+00  0.0000000E+00  0.0000000E+00
  0.3939395E+00  0.0000000E+00  0.0000000E+00 -0.1000000E+02 -0.1000000E+02  0.4298033E+00  0.1839558E+00  0.0000000E+00  0.0000000E+00
  0.4040405E+00  0.0000000E+00  0.0000000E+00 -0.1000000E+02 -0.1000000E+02  0.4298033E+00  0.1839558E+00  0.0000000E+00  0.0000000E+00
  0.4141415E+00  0.0000000E+00  0.0000000E+00 -0.1000000E+02 -0.1000000E+02  0.4298033E+00  0.1839558E+00  0.0000000E+00  0.0000000E+00
  0.4242426E+00  0.0000000E+00  0.0000000E+00 -0.1000000E+02 -0.1000000E+02  0.4298033E+00  0.1839558E+00  0.0000000E+00  0.0000000E+00
  0.4343436E+00  0.0000000E+00  0.0000000E+00 -0.1000000E+02 -0.1000000E+02  0.4298033E+00  0.1839558E+00  0.0000000E+00  0.0000000E+00
  0.4444446E+00  0.0000000E+00  0.0000000E+00 -0.1000000E+02 -0.1000000E+02  0.4298033E+00  0.1839558E+00  0.0000000E+00  0.0000000E+00
  0.4545456E+00  0.0000000E+00  0.0000000E+00 -0.1000000E+02 -0.1000000E+02  0.4298033E+00  0.1839558E+00  0.0000000E+00  0.0000000E+00
  0.4646466E+00  0.0000000E+00  0.0000000E+00 -0.1000000E+02 -0.1000000E+02  0.4298033E+00  0.1839558E+00  0.3360359E-11  0.0000000E+00
  0.4747477E+00  0.0000000E+00  0.0000000E+00 -0.1000000E+02 -0.1000000E+02  0.4298033E+00  0.1839558E+00  0.0000000E+00  0.0000000E+00
  0.4848487E+00  0.0000000E+00  0.0000000E+00 -0.1000000E+02 -0.1000000E+02  0.4298033E+00  0.1839558E+00  0.0000000E+00  0.0000000E+00
  0.4949497E+00  0.0000000E+00  0.0000000E+00 -0.1000000E+02 -0.1000000E+02  0.4298033E+00  0.1839558E+00  0.0000000E+00  0.0000000E+00
  0.5050507E+00  0.0000000E+00  0.0000000E+00 -0.1000000E+02 -0.1000000E+02  0.4298033E+00  0.1839558E+00  0.0000000E+00  0.0000000E+00
  0.5151517E+00  0.0000000E+00  0.0000000E+00 -0.1000000E+02 -0.1000000E+02  0.4298033E+00  0.1839558E+00  0.0000000E+00  0.0000000E+00
  0.5252528E+00  0.0000000E+00  0.0000000E+00 -0.1000000E+02 -0.1000000E+02  0.4298033E+00  0.1839558E+00  0.0000000E+00  0.0000000E+00
  0.5353538E+00  0.0000000E+00  0.0000000E+00 -0.1000000E+02 -0.1000000E+02  0.4298033E+00  0.1839558E+00  0.0000000E+00  0.0000000E+00
  0.5454548E+00  0.0000000E+00  0.0000000E+00 -0.1000000E+02 -0.1000000E+02  0.4298033E+00  0.1839558E+00  0.0000000E+00  0.0000000E+00
  0.5555558E+00  0.0000000E+00  0.0000000E+00 -0.1000000E+02 -0.1000000E+02  0.4298033E+00  0.1839558E+00  0.0000000E+00  0.0000000E+00
  0.5656568E+00  0.0000000E+00  0.0000000E+00 -0.1000000E+02 -0.1000000E+02  0.4298033E+00  0.1839558E+00  0.0000000E+00  0.0000000E+00
  0.5757579E+00  0.0000000E+00  0.0000000E+00 -0.1000000E+02 -0.1000000E+02  0.4298033E+00  0.1839558E+00  0.0000000E+00  0.0000000E+00
  0.5858589E+00  0.0000000E+00  0.0000000E+00 -0.1000000E+02 -0.1000000E+02  0.4298033E+00  0.1839558E+00  0.0000000E+00  0.0000000E+00
  0.5959599E+00  0.0000000E+00  0.0000000E+00 -0.1000000E+02 -0.1000000E+02  0.4298033E+00  0.1839558E+00  0.0000000E+00  0.0000000E+00
  0.6060609E+00  0.0000000E+00  0.0000000E+00 -0.1000000E+02 -0.1000000E+02  0.4298033E+00  0.1839558E+00  0.0000000E+00  0.0000000E+00
  0.6161619E+00  0.0000000E+00  0.0000000E+00 -0.1000000E+02 -0.1000000E+02  0.4298033E+00  0.1839558E+00  0.0000000E+00  0.0000000E+00
  0.6262630E+00  0.0000000E+00  0.0000000E+00 -0.1000000E+02 -0.1000000E+02  0.4298033E+00  0.1839558E+00  0.0000000E+00  0.0000000E+00
  0.6363640E+00  0.0000000E+00  0.0000000E+00 -0.1000000E+02 -0.1000000E+02  0.4298033E+00  0.1839558E+00  0.0000000E+00  0.0000000E+00
  0.6464650E+00  0.0000000E+00  0.0000000E+00 -0.1000000E+02 -0.1000000E+02  0.4298033E+00  0.1839558E+00  0.0000000E+00  0.0000000E+00
  0.6565660E+00  0.0000000E+00  0.0000000E+00 -0.1000000E+02 -0.1000000E+02  0.4298033E+00  0.1839558E+00  0.0000000E+00  0.0000000E+00
  0.6666670E+00  0.0000000E+00  0.0000000E+00 -0.1000000E+02 -0.1000000E+02  0.4298033E+00  0.1839558E+00  0.0000000E+00  0.0000000E+00
  0.6767681E+00  0.0000000E+00  0.0000000E+00 -0.1000000E+02 -0.1000000E+02  0.4298033E+00  0.1839558E+00  0.0000000E+00  0.0000000E+00
  0.6868691E+00  0.0000000E+00  0.0000000E+00 -0.1000000E+02 -0.1000000E+02  0.4298033E+00  0.1839558E+00  0.0000000E+00  0.0000000E+00
  0.6969701E+00  0.0000000E+00  0.0000000E+00 -0.1000000E+02 -0.1000000E+02  0.4298033E+00  0.1839558E+00  0.0000000E+00  0.0000000E+00
  0.7070711E+00  0.0000000E+00  0.0000000E+00 -0.1000000E+02 -0.1000000E+02  0.4298033E+00  0.1839558E+00  0.0000000E+00  0.0000000E+00
  0.7171721E+00  0.0000000E+00  0.0000000E+00 -0.1000000E+02 -0.1000000E+02  0.4298033E+00  0.1839558E+00  0.0000000E+00  0.0000000E+00
  0.7272732E+00  0.0000000E+00  0.0000000E+00 -0.1000000E+02 -0.1000000E+02  0.4298033E+00  0.1839558E+00  0.0000000E+00  0.0000000E+00
  0.7373742E+00  0.0000000E+00  0.0000000E+00 -0.1000000E+02 -0.1000000E+02  0.4298033E+00  0.1839558E+00  0.0000000E+00  0.0000000E+00
  0.7474752E+00  0.0000000E+00  0.0000000E+00 -0.1000000E+02 -0.1000000E+02  0.4298033E+00  0.1839558E+00  0.0000000E+00  0.0000000E+00
  0.7575762E+00  0.0000000E+00  0.0000000E+00 -0.1000000E+02 -0.1000000E+02  0.4298033E+00  0.1839558E+00  0.0000000E+00  0.0000000E+00
  0.7676772E+00  0.0000000E+00  0.0000000E+00 -0.1000000E+02 -0.1000000E+02  0.4298033E+00  0.1839558E+00  0.0000000E+00  0.0000000E+00
  0.7777783E+00  0.0000000E+00  0.0000000E+00 -0.1000000E+02 -0.1000000E+02  0.4298033E+00  0.1839558E+00  0.0000000E+00  0.0000000E+00
  0.7878793E+00  0.0000000E+00  0.0000000E+00 -0.1000000E+02 -0.1000000E+02  0.4298033E+00  0.1839558E+00  0.0000000E+00  0.0000000E+00
  0.7979803E+00  0.0000000E+00  0.0000000E+00 -0.1000000E+02 -0.1000000E+02  0.4298033E+00  0.1839558E+00  0.0000000E+00  0.0000000E+00
  0.8080813E+00  0.0000000E+00  0.0000000E+00 -0.1000000E+02 -0.1000000E+02  0.4298033E+00  0.1839558E+00  0.0000000E+00  0.0000000E+00
  0.8181823E+00  0.0000000E+00  0.0000000E+00 -0.1000000E+02 -0.1000000E+02  0.4298033E+00  0.1839558E+00  0.0000000E+00  0.0000000E+00
  0.8282834E+00  0.0000000E+00  0.0000000E+00 -0.1000000E+02 -0.1000000E+02  0.4298033E+00  0.1839558E+00  0.0000000E+00  0.0000000E+00
  0.8383844E+00  0.0000000E+00  0.0000000E+00 -0.1000000E+02 -0.1000000E+02  0.4298033E+00  0.1839558E+00  0.0000000E+00  0.0000000E+00
  0.8484854E+00  0.0000000E+00  0.0000000E+00 -0.1000000E+02 -0.1000000E+02  0.4298033E+00  0.1839558E+00  0.0000000E+00  0.0000000E+00
  0.8585864E+00  0.0000000E+00  0.0000000E+00 -0.1000000E+02 -0.1000000E+02  0.4298033E+00  0.1839558E+00  0.0000000E+00  0.0000000E+00
  0.8686875E+00  0.0000000E+00  0.0000000E+00 -0.1000000E+02 -0.1000000E+02  0.4298033E+00  0.1839558E+00  0.0000000E+00  0.0000000E+00
  0.8787885E+00  0.0000000E+00  0.0000000E+00 -0.1000000E+02 -0.1000000E+02  0.4298033E+00  0.1839558E+00  0.0000000E+00  0.0000000E+00
  0.8888895E+00  0.0000000E+00  0.0000000E+00 -0.1000000E+02 -0.1000000E+02  0.4298033E+00  0.1839558E+00  0.0000000E+00  0.0000000E+00
  0.8989905E+00  0.0000000E+00  0.0000000E+00 -0.1000000E+02 -0.1000000E+02  0.4298033E+00  0.1839558E+00  0.0000000E+00  0.0000000E+00
  0.9090915E+00  0.0000000E+00  0.0000000E+00 -0.1000000E+02 -0.1000000E+02  0.4298033E+00  0.1839558E+00  0.0000000E+00  0.0000000E+00
  0.9191926E+00  0.0000000E+00  0.0000000E+00 -0.1000000E+02 -0.1000000E+02  0.4298033E+00  0.1839558E+00  0.0000000E+00  0.0000000E+00
  0.9292936E+00  0.0000000E+00  0.0000000E+00 -0.1000000E+02 -0.1000000E+02  0.4298033E+00  0.1839558E+00  0.0000000E+00  0.0000000E+00
  0.9393946E+00  0.0000000E+00  0.0000000E+00 -0.1000000E+02 -0.1000000E+02  0.4298033E+00  0.1839558E+00  0.0000000E+00  0.0000000E+00
  0.9494956E+00  0.0000000E+00  0.0000000E+00 -0.1000000E+02 -0.1000000E+02  0.4298033E+00  0.1839558E+00  0.0000000E+00  0.0000000E+00
  0.9595966E+00  0.0000000E+00  0.0000000E+00 -0.1000000E+02 -0.1000000E+02  0.4298033E+00  0.1839558E+00  0.0000000E+00  0.0000000E+00
  0.9696977E+00  0.0000000E+00  0.0000000E+00 -0.1000000E+02 -0.1000000E+02  0.4298033E+00  0.1839558E+00  0.0000000E+00  0.0000000E+00
  0.9797987E+00  0.0000000E+00  0.0000000E+00 -0.1000000E+02 -0.1000000E+02  0.4298033E+00  0.1839558E+00  0.0000000E+00  0.0000000E+00
  0.9898997E+00  0.0000000E+00  0.0000000E+00 -0.1000000E+02 -0.1000000E+02  0.4298033E+00  0.1839558E+00  0.0000000E+00  0.0000000E+00
  0.1000001E+01  0.0000000E+00  0.5826218E-18 -0.9982742E+01 -0.9982742E+01  0.4300308E+00  0.1840532E+00  0.0000000E+00  0.0000000E+00
  0.0000000E+00  0.0000000E+00  0.5826219E-18 -0.9981381E+01 -0.9991482E+01  0.4299155E+00  0.1840038E+00  0.0000000E+00  0.0000000E+00
  0.1010101E-01  0.0000000E+00  0.5826219E-18 -0.9981426E+01 -0.9991527E+01  0.4299149E+00  0.1840036E+00  0.0000000E+00  0.0000000E+00
  0.2020202E-01  0.0000000E+00  0.5826219E-18 -0.9981559E+01 -0.9991660E+01  0.4299132E+00  0.1840028E+00  0.0000000E+00  0.0000000E+00
  0.3030303E-01  0.0000000E+00  0.5826219E-18 -0.9981780E+01 -0.9991881E+01  0.4299102E+00  0.1840016E+00  0.0000000E+00  0.0000000E+00
  0.4040404E-01  0.0000000E+00  0.5826219E-18 -0.9982091E+01 -0.9992192E+01  0.4299061E+00  0.1839998E+00  0.0000000E+00  0.0000000E+00
  0.5050505E-01  0.0000000E+00  0.5826219E-18 -0.9982491E+01 -0.9992592E+01  0.4299009E+00  0.1839976E+00  0.0000000E+00  0.0000000E+00
  0.6060606E-01  0.0000000E+00  0.5826219E-18 -0.9982982E+01 -0.9993083E+01  0.4298944E+00  0.1839948E+00  0.0000000E+00  0.0000000E+00
  0.7070707E-01  0.0000000E+00  0.5826219E-18 -0.9983562E+01 -0.9993663E+01  0.4298867E+00  0.1839915E+00  0.0000000E+00  0.0000000E+00
  0.8080808E-01  0.0000000E+00  0.5826219E-18 -0.9984234E+01 -0.9994335E+01  0.4298779E+00  0.1839877E+00  0.0000000E+00  0.0000000E+00
  0.9090909E-01  0.0000000E+00  0.5826219E-18 -0.9984998E+01 -0.9995100E+01  0.4298678E+00  0.1839834E+00  0.0000000E+00  0.0000000E+00
  0.1010101E+00  0.0000000E+00  0.5826219E-18 -0.9985855E+01 -0.9995956E+01  0.4298565E+00  0.1839786E+00  0.0000000E+00  0.0000000E+00
  0.1111111E+00  0.0000000E+00  0.5826219E-18 -0.9986806E+01 -0.9996907E+01  0.4298440E+00  0.1839732E+00  0.0000000E+00  0.0000000E+00
  0.1212121E+00  0.0000000E+00  0.5826219E-18 -0.9987853E+01 -0.9997954E+01  0.4298302E+00  0.1839673E+00  0.0000000E+00  0.0000000E+00
  0.1313131E+00  0.0000000E+00  0.5826219E-18 -0.9988995E+01 -0.9999096E+01  0.4298152E+00  0.1839609E+00  0.0000000E+00  0.0000000E+00
  0.1414142E+00  0.0000000E+00  0.5826219E-18 -0.9990235E+01 -0.1000034E+02  0.4297988E+00  0.1839539E+00  0.0000000E+00  0.0000000E+00
  0.1515152E+00  0.0000000E+00  0.5826219E-18 -0.9991575E+01 -0.1000168E+02  0.4297812E+00  0.1839464E+00  0.0000000E+00  0.0000000E+00
  0.1616162E+00  0.0000000E+00  0.5826219E-18 -0.9993015E+01 -0.1000312E+02  0.4297622E+00  0.1839382E+00  0.0000000E+00  0.0000000E+00
  0.1717172E+00  0.0000000E+00  0.5826219E-18 -0.9994558E+01 -0.1000466E+02  0.4297419E+00  0.1839295E+00  0.0000000E+00  0.0000000E+00
  0.1818182E+00  0.0000000E+00  0.5826219E-18 -0.9996205E+01 -0.1000631E+02  0.4297202E+00  0.1839203E+00  0.0000000E+00  0.0000000E+00
  0.1919192E+00  0.0000000E+00  0.5826219E-18 -0.9997959E+01 -0.1000806E+02  0.4296972E+00  0.1839104E+00  0.0000000E+00  0.0000000E+00
  0.2020202E+00  0.0000000E+00  0.5826219E-18 -0.9999822E+01 -0.1000992E+02  0.4296727E+00  0.1838999E+00  0.0000000E+00  0.0000000E+00
  0.2121212E+00  0.0000000E+00  0.5826219E-18 -0.1000180E+02 -0.1001190E+02  0.4296467E+00  0.1838888E+00  0.0000000E+00  0.0000000E+00
  0.2222222E+00  0.0000000E+00  0.5826219E-18 -0.1000388E+02 -0.1001398E+02  0.4296193E+00  0.1838770E+00  0.0000000E+00  0.0000000E+00
  0.2323232E+00  0.0000000E+00  0.5826219E-18 -0.1000609E+02 -0.1001619E+02  0.4295903E+00  0.1838646E+00  0.0000000E+00  0.0000000E+00
  0.2424242E+00  0.0000000E+00  0.5826219E-18 -0.1000841E+02 -0.1001851E+02  0.4295598E+00  0.1838516E+00  0.0000000E+00  0.0000000E+00
  0.2525252E+00  0.0000000E+00  0.5826219E-18 -0.1001086E+02 -0.1002096E+02  0.4295276E+00  0.1838378E+00  0.0000000E+00  0.0000000E+00
  0.2626262E+00  0.0000000E+00  0.5826219E-18 -0.1001343E+02 -0.1002353E+02  0.4294938E+00  0.1838234E+00  0.0000000E+00  0.0000000E+00
  0.2727273E+00  0.0000000E+00  0.5826219E-18 -0.1001614E+02 -0.1002624E+02  0.4294583E+00  0.1838081E+00  0.0000000E+00  0.0000000E+00
  0.2828283E+00  0.0000000E+00  0.5826219E-18 -0.1001898E+02 -0.1002908E+02  0.4294210E+00  0.1837922E+00  0.0000000E+00  0.0000000E+00
  0.2929293E+00  0.0000000E+00  0.5826219E-18 -0.1002197E+02 -0.1003207E+02  0.4293818E+00  0.1837754E+00  0.0000000E+00  0.0000000E+00
  0.3030303E+00  0.0000000E+00  0.5826219E-18 -0.1002511E+02 -0.1003521E+02  0.4293407E+00  0.1837578E+00  0.0000000E+00  0.0000000E+00
  0.3131313E+00  0.0000000E+00  0.5826219E-18 -0.1002840E+02 -0.1003851E+02  0.4292974E+00  0.1837393E+00  0.0000000E+00  0.0000000E+00
  0.3232324E+00  0.0000000E+00  0.5826219E-18 -0.1003187E+02 -0.1004197E+02  0.4292520E+00  0.1837199E+00  0.0000000E+00  0.0000000E+00
  0.3333334E+00  0.0000000E+00  0.5826219E-18 -0.1003552E+02 -0.1004562E+02  0.4292042E+00  0.1836994E+00  0.0000000E+00  0.0000000E+00
  0.3434344E+00  0.0000000E+00  0.5826219E-18 -0.1003938E+02 -0.1004948E+02  0.4291538E+00  0.1836778E+00  0.0000000E+00  0.0000000E+00
  0.3535354E+00  0.0000000E+00  0.5826219E-18 -0.1004345E+02 -0.1005355E+02  0.4291005E+00  0.1836550E+00  0.0000000E+00  0.0000000E+00
  0.3636364E+00  0.0000000E+00  0.5826219E-18 -0.1004777E+02 -0.1005787E+02  0.4290441E+00  0.1836309E+00  0.0000000E+00  0.0000000E+00
  0.3737375E+00  0.0000000E+00  0.5826219E-18 -0.1005236E+02 -0.1006246E+02  0.4289841E+00  0.1836052E+00  0.0000000E+00  0.0000000E+00
  0.3838385E+00  0.0000000E+00  0.5826219E-18 -0.1005725E+02 -0.1006735E+02  0.4289203E+00  0.1835779E+00  0.0000000E+00  0.0000000E+00
  0.3939395E+00  0.0000000E+00  0.5826219E-18 -0.1006247E+02 -0.1007257E+02  0.4288521E+00  0.1835487E+00  0.0000000E+00  0.0000000E+00
  0.4040405E+00  0.0000000E+00  0.5826219E-18 -0.1006803E+02 -0.1007813E+02  0.4287796E+00  0.1835177E+00  0.0000000E+00  0.0000000E+00
  0.4141415E+00  0.0000000E+00  0.5826219E-18 -0.1007394E+02 -0.1008404E+02  0.4287026E+00  0.1834847E+00  0.0000000E+00  0.0000000E+00
  0.4242426E+00  0.0000000E+00  0.5826219E-18 -0.1008016E+02 -0.1009026E+02  0.4286216E+00  0.1834501E+00  0.0000000E+00  0.0000000E+00
  0.4343436E+00  0.0000000E+00  0.5826219E-18 -0.1008669E+02 -0.1009679E+02  0.4285367E+00  0.1834137E+00  0.0000000E+00  0.0000000E+00
  0.4444446E+00  0.0000000E+00  0.5826219E-18 -0.1009374E+02 -0.1010384E+02  0.4284451E+00  0.1833745E+00  0.0000000E+00  0.0000000E+00
  0.4545456E+00  0.0000000E+00  0.5826219E-18 -0.1010190E+02 -0.1011200E+02  0.4283391E+00  0.1833291E+00  0.0000000E+00  0.0000000E+00
  0.4646466E+00  0.0000000E+00  0.5826219E-18 -0.1011265E+02 -0.1012275E+02  0.4281997E+00  0.1832695E+00  0.6687005E-11  0.0000000E+00
  0.4747477E+00  0.0000000E+00  0.5826219E-18 -0.1010649E+02 -0.1011659E+02  0.4282796E+00  0.1833037E+00  0.0000000E+00  0.0000000E+00
  0.4848487E+00  0.0000000E+00  0.5826219E-18 -0.1010283E+02 -0.1011293E+02  0.4283271E+00  0.1833240E+00  0.0000000E+00  0.0000000E+00
  0.4949497E+00  0.0000000E+00  0.5826219E-18 -0.1010056E+02 -0.1011066E+02  0.4283565E+00  0.1833366E+00  0.0000000E+00  0.0000000E+00
  0.5050507E+00  0.0000000E+00  0.5826219E-18 -0.1009898E+02 -0.1010908E+02  0.4283770E+00  0.1833454E+00  0.0000000E+00  0.0000000E+00
  0.5151517E+00  0.0000000E+00  0.5826219E-18 -0.1009573E+02 -0.1010583E+02  0.4284192E+00  0.1833634E+00  0.0000000E+00  0.0000000E+00
  0.5252528E+00  0.0000000E+00  0.5826219E-18 -0.1009420E+02 -0.1010430E+02  0.4284390E+00  0.1833719E+00  0.0000000E+00  0.0000000E+00
  0.5353538E+00  0.0000000E+00  0.5826219E-18 -0.1009708E+02 -0.1010718E+02  0.4284017E+00  0.1833559E+00  0.6691253E-11  0.0000000E+00
  0.5454548E+00  0.0000000E+00  0.5826219E-18 -0.1008530E+02 -0.1009540E+02  0.4285548E+00  0.1834214E+00  0.0000000E+00  0.0000000E+00
  0.5555558E+00  0.0000000E+00  0.5826219E-18 -0.1007625E+02 -0.1008635E+02  0.4286726E+00  0.1834719E+00  0.0000000E+00  0.0000000E+00
  0.5656568E+00  0.0000000E+00  0.5826219E-18 -0.1006851E+02 -0.1007862E+02  0.4287733E+00  0.1835150E+00  0.0000000E+00  0.0000000E+00
  0.5757579E+00  0.0000000E+00  0.5826219E-18 -0.1006169E+02 -0.1007179E+02  0.4288623E+00  0.1835531E+00  0.0000000E+00  0.0000000E+00
  0.5858589E+00  0.0000000E+00  0.5826219E-18 -0.1005553E+02 -0.1006564E+02  0.4289426E+00  0.1835874E+00  0.0000000E+00  0.0000000E+00
  0.5959599E+00  0.0000000E+00  0.5826219E-18 -0.1004991E+02 -0.1006001E+02  0.4290160E+00  0.1836189E+00  0.0000000E+00  0.0000000E+00
  0.6060609E+00  0.0000000E+00  0.5826219E-18 -0.1004471E+02 -0.1005481E+02  0.4290840E+00  0.1836479E+00  0.0000000E+00  0.0000000E+00
  0.6161619E+00  0.0000000E+00  0.5826219E-18 -0.1003987E+02 -0.1004997E+02  0.4291473E+00  0.1836751E+00  0.0000000E+00  0.0000000E+00
  0.6262630E+00  0.0000000E+00  0.5826219E-18 -0.1003533E+02 -0.1004543E+02  0.4292067E+00  0.1837005E+00  0.0000000E+00  0.0000000E+00
  0.6363640E+00  0.0000000E+00  0.5826219E-18 -0.1003106E+02 -0.1004116E+02  0.4292626E+00  0.1837244E+00  0.0000000E+00  0.0000000E+00
  0.6464650E+00  0.0000000E+00  0.5826219E-18 -0.1002704E+02 -0.1003714E+02  0.4293154E+00  0.1837470E+00  0.0000000E+00  0.0000000E+00
  0.6565660E+00  0.0000000E+00  0.5826219E-18 -0.1002324E+02 -0.1003334E+02  0.4293652E+00  0.1837683E+00  0.0000000E+00  0.0000000E+00
  0.6666670E+00  0.0000000E+00  0.5826219E-18 -0.1001964E+02 -0.1002974E+02  0.4294123E+00  0.1837885E+00  0.0000000E+00  0.0000000E+00
  0.6767681E+00  0.0000000E+00  0.5826219E-18 -0.1001624E+02 -0.1002634E+02  0.4294569E+00  0.1838076E+00  0.0000000E+00  0.0000000E+00
  0.6868691E+00  0.0000000E+00  0.5826219E-18 -0.1001302E+02 -0.1002313E+02  0.4294992E+00  0.1838256E+00  0.0000000E+00  0.0000000E+00
  0.6969701E+00  0.0000000E+00  0.5826219E-18 -0.1000998E+02 -0.1002008E+02  0.4295392E+00  0.1838428E+00  0.0000000E+00  0.0000000E+00
  0.7070711E+00  0.0000000E+00  0.5826219E-18 -0.1000710E+02 -0.1001720E+02  0.4295770E+00  0.1838590E+00  0.0000000E+00  0.0000000E+00
  0.7171721E+00  0.0000000E+00  0.5826219E-18 -0.1000437E+02 -0.1001447E+02  0.4296128E+00  0.1838743E+00  0.0000000E+00  0.0000000E+00
  0.7272732E+00  0.0000000E+00  0.5826219E-18 -0.1000179E+02 -0.1001189E+02  0.4296467E+00  0.1838888E+00  0.0000000E+00  0.0000000E+00
  0.7373742E+00  0.0000000E+00  0.5826219E-18 -0.9999355E+01 -0.1000946E+02  0.4296788E+00  0.1839025E+00  0.0000000E+00  0.0000000E+00
  0.7474752E+00  0.0000000E+00  0.5826219E-18 -0.9997052E+01 -0.1000715E+02  0.4297091E+00  0.1839155E+00  0.0000000E+00  0.0000000E+00
  0.7575762E+00  0.0000000E+00  0.5826219E-18 -0.9994877E+01 -0.1000498E+02  0.4297377E+00  0.1839277E+00  0.0000000E+00  0.0000000E+00
  0.7676772E+00  0.0000000E+00  0.5826219E-18 -0.9992825E+01 -0.1000293E+02  0.4297647E+00  0.1839393E+00  0.0000000E+00  0.0000000E+00
  0.7777783E+00  0.0000000E+00  0.5826219E-18 -0.9990890E+01 -0.1000099E+02  0.4297902E+00  0.1839502E+00  0.0000000E+00  0.0000000E+00
  0.7878793E+00  0.0000000E+00  0.5826219E-18 -0.9989070E+01 -0.9999171E+01  0.4298142E+00  0.1839605E+00  0.0000000E+00  0.0000000E+00
  0.7979803E+00  0.0000000E+00  0.5826219E-18 -0.9987358E+01 -0.9997459E+01  0.4298367E+00  0.1839701E+00  0.0000000E+00  0.0000000E+00
  0.8080813E+00  0.0000000E+00  0.5826219E-18 -0.9985751E+01 -0.9995852E+01  0.4298579E+00  0.1839792E+00  0.0000000E+00  0.0000000E+00
  0.8181823E+00  0.0000000E+00  0.5826219E-18 -0.9984245E+01 -0.9994346E+01  0.4298777E+00  0.1839877E+00  0.0000000E+00  0.0000000E+00
  0.8282834E+00  0.0000000E+00  0.5826219E-18 -0.9982837E+01 -0.9992938E+01  0.4298963E+00  0.1839956E+00  0.0000000E+00  0.0000000E+00
  0.8383844E+00  0.0000000E+00  0.5826219E-18 -0.9981523E+01 -0.9991624E+01  0.4299136E+00  0.1840030E+00  0.0000000E+00  0.0000000E+00
  0.8484854E+00  0.0000000E+00  0.5826219E-18 -0.9980301E+01 -0.9990402E+01  0.4299297E+00  0.1840099E+00  0.0000000E+00  0.0000000E+00
  0.8585864E+00  0.0000000E+00  0.5826219E-18 -0.9979168E+01 -0.9989269E+01  0.4299447E+00  0.1840163E+00  0.0000000E+00  0.0000000E+00
  0.8686875E+00  0.0000000E+00  0.5826219E-18 -0.9978122E+01 -0.9988223E+01  0.4299585E+00  0.1840222E+00  0.0000000E+00  0.0000000E+00
  0.8787885E+00  0.0000000E+00  0.5826219E-18 -0.9977159E+01 -0.9987260E+01  0.4299712E+00  0.1840277E+00  0.0000000E+00  0.0000000E+00
  0.8888895E+00  0.0000000E+00  0.5826219E-18 -0.9976278E+01 -0.9986379E+01  0.4299828E+00  0.1840326E+00  0.0000000E+00  0.0000000E+00
  0.8989905E+00  0.0000000E+00  0.5826219E-18 -0.9975476E+01 -0.9985577E+01  0.4299934E+00  0.1840372E+00  0.0000000E+00  0.0000000E+00
  0.9090915E+00  0.0000000E+00  0.5826219E-18 -0.9974750E+01 -0.9984851E+01  0.4300030E+00  0.1840413E+00  0.0000000E+00  0.0000000E+00
  0.9191926E+00  0.0000000E+00  0.5826219E-18 -0.9974098E+01 -0.9984199E+01  0.4300116E+00  0.1840450E+00  0.0000000E+00  0.0000000E+00
  0.9292936E+00  0.0000000E+00  0.5826219E-18 -0.9973515E+01 -0.9983616E+01  0.4300193E+00  0.1840482E+00  0.0000000E+00  0.0000000E+00
  0.9393946E+00  0.0000000E+00  0.5826219E-18 -0.9972995E+01 -0.9983096E+01  0.4300261E+00  0.1840512E+00  0.0000000E+00  0.0000000E+00
  0.9494956E+00  0.0000000E+00  0.5826219E-18 -0.9972525E+01 -0.9982626E+01  0.4300323E+00  0.1840538E+00  0.0000000E+00  0.0000000E+00
  0.9595966E+00  0.0000000E+00  0.5826219E-18 -0.9972081E+01 -0.9982182E+01  0.4300382E+00  0.1840563E+00  0.0000000E+00  0.0000000E+00
  0.9696977E+00  0.0000000E+00  0.5826219E-18 -0.9971600E+01 -0.9981701E+01  0.4300445E+00  0.1840591E+00  0.0000000E+00  0.0000000E+00
  0.9797987E+00  0.0000000E+00  0.5826219E-18 -0.9970914E+01 -0.9981015E+01  0.4300536E+00  0.1840629E+00  0.0000000E+00  0.0000000E+00
  0.9898997E+00  0.0000000E+00  0.5826219E-18 -0.9969501E+01 -0.9979602E+01  0.4300723E+00  0.1840709E+00  0.0000000E+00  0.0000000E+00
  0.1000001E+01  0.0000000E+00  0.1491512E-15 -0.9965556E+01 -0.9975657E+01  0.4301244E+00  0.1840932E+00  0.0000000E+00  0.0000000E+00
  0.0000000E+00  0.0000000E+00  0.1491512E-15 -0.9962880E+01 -0.9983082E+01  0.4300263E+00  0.1840513E+00  0.0000000E+00  0.0000000E+00
  0.1010101E-01  0.0000000E+00  0.1491512E-15 -0.9962969E+01 -0.9983171E+01  0.4300251E+00  0.1840508E+00  0.0000000E+00  0.0000000E+00
  0.2020202E-01  0.0000000E+00  0.1491512E-15 -0.9963234E+01 -0.9983436E+01  0.4300216E+00  0.1840493E+00  0.0000000E+00  0.0000000E+00
  0.3030303E-01  0.0000000E+00  0.1491512E-15 -0.9963676E+01 -0.9983878E+01  0.4300158E+00  0.1840468E+00  0.0000000E+00  0.0000000E+00
  0.4040404E-01  0.0000000E+00  0.1491512E-15 -0.9964296E+01 -0.9984498E+01  0.4300076E+00  0.1840433E+00  0.0000000E+00  0.0000000E+00
  0.5050505E-01  0.0000000E+00  0.1491512E-15 -0.9965094E+01 -0.9985296E+01  0.4299971E+00  0.1840388E+00  0.0000000E+00  0.0000000E+00
  0.6060606E-01  0.0000000E+00  0.1491512E-15 -0.9966072E+01 -0.9986274E+01  0.4299842E+00  0.1840332E+00  0.0000000E+00  0.0000000E+00
  0.7070707E-01  0.0000000E+00  0.1491512E-15 -0.9967231E+01 -0.9987433E+01  0.4299689E+00  0.1840267E+00  0.0000000E+00  0.0000000E+00
  0.8080808E-01  0.0000000E+00  0.1491512E-15 -0.9968572E+01 -0.9988774E+01  0.4299512E+00  0.1840191E+00  0.0000000E+00  0.0000000E+00
  0.9090909E-01  0.0000000E+00  0.1491512E-15 -0.9970097E+01 -0.9990299E+01  0.4299311E+00  0.1840105E+00  0.0000000E+00  0.0000000E+00
  0.1010101E+00  0.0000000E+00  0.1491512E-15 -0.9971808E+01 -0.9992010E+01  0.4299085E+00  0.1840009E+00  0.0000000E+00  0.0000000E+00
  0.1111111E+00  0.0000000E+00  0.1491512E-15 -0.9973707E+01 -0.9993909E+01  0.4298835E+00  0.1839901E+00  0.0000000E+00  0.0000000E+00
  0.1212121E+00  0.0000000E+00  0.1491512E-15 -0.9975797E+01 -0.9995999E+01  0.4298560E+00  0.1839784E+00  0.0000000E+00  0.0000000E+00
  0.1313131E+00  0.0000000E+00  0.1491512E-15 -0.9978080E+01 -0.9998282E+01  0.4298259E+00  0.1839655E+00  0.0000000E+00  0.0000000E+00
  0.1414142E+00  0.0000000E+00  0.1491512E-15 -0.9980559E+01 -0.1000076E+02  0.4297932E+00  0.1839515E+00  0.0000000E+00  0.0000000E+00
  0.1515152E+00  0.0000000E+00  0.1491512E-15 -0.9983238E+01 -0.1000344E+02  0.4297580E+00  0.1839364E+00  0.0000000E+00  0.0000000E+00
  0.1616162E+00  0.0000000E+00  0.1491512E-15 -0.9986119E+01 -0.1000632E+02  0.4297200E+00  0.1839202E+00  0.0000000E+00  0.0000000E+00
  0.1717172E+00  0.0000000E+00  0.1491512E-15 -0.9989207E+01 -0.1000941E+02  0.4296794E+00  0.1839028E+00  0.0000000E+00  0.0000000E+00
  0.1818182E+00  0.0000000E+00  0.1491512E-15 -0.9992506E+01 -0.1001271E+02  0.4296360E+00  0.1838842E+00  0.0000000E+00  0.0000000E+00