title = "dataset feddes"
variables = "x", "y", "z", "vx", "vy", "vz"
zone t = "velocities, solution time =  5.600E+01 days        " i =   99, j =   99, k =    1,  f=point
 -0.5050505E-02  0.0000000E+00 -0.5050505E-02  0.3454082E-07  0.0000000E+00 -0.8972762E-04
 -0.5050505E-02  0.0000000E+00 -0.5050505E-02  0.1036411E-06  0.0000000E+00 -0.8958793E-04
 -0.5050505E-02  0.0000000E+00 -0.5050505E-02  0.1727981E-06  0.0000000E+00 -0.8930848E-04
 -0.5050505E-02  0.0000000E+00 -0.5050505E-02  0.2420503E-06  0.0000000E+00 -0.8888913E-04
 -0.5050505E-02  0.0000000E+00 -0.5050505E-02  0.3114355E-06  0.0000000E+00 -0.8832969E-04
 -0.5050505E-02  0.0000000E+00 -0.5050505E-02  0.3809910E-06  0.0000000E+00 -0.8762986E-04
 -0.5050504E-02  0.0000000E+00 -0.5050505E-02  0.4507523E-06  0.0000000E+00 -0.8678932E-04
 -0.5050501E-02  0.0000000E+00 -0.5050505E-02  0.5207535E-06  0.0000000E+00 -0.8580765E-04
 -0.5050495E-02  0.0000000E+00 -0.5050505E-02  0.5910268E-06  0.0000000E+00 -0.8468439E-04
 -0.5050482E-02  0.0000000E+00 -0.5050505E-02  0.6616020E-06  0.0000000E+00 -0.8341902E-04
 -0.5050449E-02  0.0000000E+00 -0.5050505E-02  0.7325067E-06  0.0000000E+00 -0.8201096E-04
 -0.5050376E-02  0.0000000E+00 -0.5050505E-02  0.8037660E-06  0.0000000E+00 -0.8045961E-04
 -0.5050299E-02  0.0000000E+00 -0.5050505E-02  0.8754026E-06  0.0000000E+00 -0.7876431E-04
 -0.5050178E-02  0.0000000E+00 -0.5050505E-02  0.9474370E-06  0.0000000E+00 -0.7692436E-04
 -0.5050018E-02  0.0000000E+00 -0.5050505E-02  0.1019887E-05  0.0000000E+00 -0.7493905E-04
 -0.5049710E-02  0.0000000E+00 -0.5050505E-02  0.1092770E-05  0.0000000E+00 -0.7280762E-04
 -0.5049253E-02  0.0000000E+00 -0.5050505E-02  0.1166100E-05  0.0000000E+00 -0.7052930E-04
 -0.5048636E-02  0.0000000E+00 -0.5050505E-02  0.1239892E-05  0.0000000E+00 -0.6810331E-04
 -0.5047442E-02  0.0000000E+00 -0.5050505E-02  0.1314158E-05  0.0000000E+00 -0.6552882E-04
 -0.5045727E-02  0.0000000E+00 -0.5050505E-02  0.1388914E-05  0.0000000E+00 -0.6280502E-04
 -0.5043261E-02  0.0000000E+00 -0.5050505E-02  0.1464174E-05  0.0000000E+00 -0.5993104E-04
 -0.5038714E-02  0.0000000E+00 -0.5050505E-02  0.1539957E-05  0.0000000E+00 -0.5690603E-04
 -0.5032318E-02  0.0000000E+00 -0.5050505E-02  0.1616284E-05  0.0000000E+00 -0.5372906E-04
 -0.5022454E-02  0.0000000E+00 -0.5050505E-02  0.1693184E-05  0.0000000E+00 -0.5039921E-04
 -0.5012589E-02  0.0000000E+00 -0.5050505E-02  0.1770693E-05  0.0000000E+00 -0.4691546E-04
 -0.5002725E-02  0.0000000E+00 -0.5050505E-02  0.1848856E-05  0.0000000E+00 -0.4327676E-04
 -0.4992860E-02  0.0000000E+00 -0.5050505E-02  0.1927736E-05  0.0000000E+00 -0.3948193E-04
 -0.4976523E-02  0.0000000E+00 -0.5050505E-02  0.2007414E-05  0.0000000E+00 -0.3552968E-04
 -0.4956794E-02  0.0000000E+00 -0.5050505E-02  0.2087995E-05  0.0000000E+00 -0.3141853E-04
 -0.4937066E-02  0.0000000E+00 -0.5050505E-02  0.2169620E-05  0.0000000E+00 -0.2714677E-04
 -0.4906239E-02  0.0000000E+00 -0.5050505E-02  0.2252468E-05  0.0000000E+00 -0.2271239E-04
 -0.4866782E-02  0.0000000E+00 -0.5050505E-02  0.2336771E-05  0.0000000E+00 -0.1811298E-04
 -0.4827325E-02  0.0000000E+00 -0.5050505E-02  0.2422824E-05  0.0000000E+00 -0.1334562E-04
 -0.4769372E-02  0.0000000E+00 -0.5050505E-02  0.2510993E-05  0.0000000E+00 -0.8406742E-05
 -0.4690458E-02  0.0000000E+00 -0.5050505E-02  0.2601721E-05  0.0000000E+00 -0.3291991E-05
 -0.4611543E-02  0.0000000E+00 -0.5050505E-02  0.2695477E-05  0.0000000E+00  0.2012092E-05
 -0.4503035E-02  0.0000000E+00 -0.5050505E-02  0.2792616E-05  0.0000000E+00  0.7516624E-05
 -0.4345206E-02  0.0000000E+00 -0.5050505E-02  0.2895025E-05  0.0000000E+00  0.1322616E-04
 -0.4187378E-02  0.0000000E+00 -0.5050505E-02  0.3005049E-05  0.0000000E+00  0.1915310E-04
 -0.3985156E-02  0.0000000E+00 -0.5050505E-02  0.3127434E-05  0.0000000E+00  0.2531798E-04
 -0.3669499E-02  0.0000000E+00 -0.5050505E-02  0.3272388E-05  0.0000000E+00  0.3175647E-04
 -0.3353842E-02  0.0000000E+00 -0.5050505E-02  0.3462847E-05  0.0000000E+00  0.3853776E-04
 -0.2978990E-02  0.0000000E+00 -0.5050505E-02  0.3752326E-05  0.0000000E+00  0.4580834E-04
 -0.2347676E-02  0.0000000E+00 -0.5050505E-02  0.4272199E-05  0.0000000E+00  0.5390178E-04
 -0.1716362E-02  0.0000000E+00 -0.5050505E-02  0.5370271E-05  0.0000000E+00  0.6363698E-04
 -0.1025842E-02  0.0000000E+00 -0.5050505E-02  0.8064806E-05  0.0000000E+00  0.7721840E-04
  0.2367855E-03  0.0000000E+00 -0.5050505E-02 -0.6092104E-05  0.0000000E+00  0.7921065E-04
  0.1499413E-02  0.0000000E+00 -0.5050505E-02 -0.3452740E-05  0.0000000E+00  0.6955501E-04
  0.2762042E-02  0.0000000E+00 -0.5050505E-02 -0.2452848E-05  0.0000000E+00  0.6358562E-04
 -0.5050505E-02  0.0000000E+00 -0.5050505E-02 -0.2062583E-05  0.0000000E+00  0.5902408E-04
 -0.5050505E-02  0.0000000E+00 -0.5050505E-02 -0.1929917E-05  0.0000000E+00  0.5499286E-04
 -0.5050505E-02  0.0000000E+00 -0.5050505E-02 -0.1933754E-05  0.0000000E+00  0.5109361E-04
 -0.5050505E-02  0.0000000E+00 -0.5050505E-02 -0.2056519E-05  0.0000000E+00  0.4706860E-04
 -0.5050505E-02  0.0000000E+00 -0.5050505E-02 -0.2318035E-05  0.0000000E+00  0.4265838E-04
 -0.5050505E-02  0.0000000E+00 -0.5050505E-02 -0.2682686E-05  0.0000000E+00  0.3762003E-04
 -0.5050505E-02  0.0000000E+00 -0.5050505E-02 -0.2965167E-05  0.0000000E+00  0.3193360E-04
 -0.5050504E-02  0.0000000E+00 -0.5050505E-02 -0.3115402E-05  0.0000000E+00  0.2581603E-04
 -0.5050501E-02  0.0000000E+00 -0.5050505E-02 -0.3157696E-05  0.0000000E+00  0.1950958E-04
 -0.5050495E-02  0.0000000E+00 -0.5050505E-02 -0.3129737E-05  0.0000000E+00  0.1319358E-04
 -0.5050482E-02  0.0000000E+00 -0.5050505E-02 -0.3061259E-05  0.0000000E+00  0.6979165E-05
 -0.5050449E-02  0.0000000E+00 -0.5050505E-02 -0.2971493E-05  0.0000000E+00  0.9308033E-06
 -0.5050376E-02  0.0000000E+00 -0.5050505E-02 -0.2871148E-05  0.0000000E+00 -0.4917759E-05
 -0.5050299E-02  0.0000000E+00 -0.5050505E-02 -0.2767299E-05  0.0000000E+00 -0.1055957E-04
 -0.5050178E-02  0.0000000E+00 -0.5050505E-02 -0.2663211E-05  0.0000000E+00 -0.1599708E-04
 -0.5050018E-02  0.0000000E+00 -0.5050505E-02 -0.2560525E-05  0.0000000E+00 -0.2123103E-04
 -0.5049710E-02  0.0000000E+00 -0.5050505E-02 -0.2459990E-05  0.0000000E+00 -0.2626459E-04
 -0.5049253E-02  0.0000000E+00 -0.5050505E-02 -0.2361892E-05  0.0000000E+00 -0.3110196E-04
 -0.5048636E-02  0.0000000E+00 -0.5050505E-02 -0.2266278E-05  0.0000000E+00 -0.3574773E-04
 -0.5047442E-02  0.0000000E+00 -0.5050505E-02 -0.2173089E-05  0.0000000E+00 -0.4020651E-04
 -0.5045727E-02  0.0000000E+00 -0.5050505E-02 -0.2082215E-05  0.0000000E+00 -0.4448273E-04
 -0.5043261E-02  0.0000000E+00 -0.5050505E-02 -0.1993535E-05  0.0000000E+00 -0.4858065E-04
 -0.5038714E-02  0.0000000E+00 -0.5050505E-02 -0.1906926E-05  0.0000000E+00 -0.5250427E-04
 -0.5032318E-02  0.0000000E+00 -0.5050505E-02 -0.1822272E-05  0.0000000E+00 -0.5625739E-04
 -0.5022454E-02  0.0000000E+00 -0.5050505E-02 -0.1739466E-05  0.0000000E+00 -0.5984361E-04
 -0.5012589E-02  0.0000000E+00 -0.5050505E-02 -0.1658410E-05  0.0000000E+00 -0.6326632E-04
 -0.5002725E-02  0.0000000E+00 -0.5050505E-02 -0.1579015E-05  0.0000000E+00 -0.6652876E-04
 -0.4992860E-02  0.0000000E+00 -0.5050505E-02 -0.1501201E-05  0.0000000E+00 -0.6963399E-04
 -0.4976523E-02  0.0000000E+00 -0.5050505E-02 -0.1424893E-05  0.0000000E+00 -0.7258496E-04
 -0.4956794E-02  0.0000000E+00 -0.5050505E-02 -0.1350024E-05  0.0000000E+00 -0.7538446E-04
 -0.4937066E-02  0.0000000E+00 -0.5050505E-02 -0.1276536E-05  0.0000000E+00 -0.7803518E-04
 -0.4906239E-02  0.0000000E+00 -0.5050505E-02 -0.1204375E-05  0.0000000E+00 -0.8053970E-04
 -0.4866782E-02  0.0000000E+00 -0.5050505E-02 -0.1133498E-05  0.0000000E+00 -0.8290054E-04
 -0.4827325E-02  0.0000000E+00 -0.5050505E-02 -0.1063875E-05  0.0000000E+00 -0.8512013E-04
 -0.4769372E-02  0.0000000E+00 -0.5050505E-02 -0.9954896E-06  0.0000000E+00 -0.8720087E-04
 -0.4690458E-02  0.0000000E+00 -0.5050505E-02 -0.9283490E-06  0.0000000E+00 -0.8914516E-04
 -0.4611543E-02  0.0000000E+00 -0.5050505E-02 -0.8624958E-06  0.0000000E+00 -0.9095547E-04
 -0.4503035E-02  0.0000000E+00 -0.5050505E-02 -0.7980275E-06  0.0000000E+00 -0.9263440E-04
 -0.4345206E-02  0.0000000E+00 -0.5050505E-02 -0.7351323E-06  0.0000000E+00 -0.9418487E-04
 -0.4187378E-02  0.0000000E+00 -0.5050505E-02 -0.6741542E-06  0.0000000E+00 -0.9561033E-04
 -0.3985156E-02  0.0000000E+00 -0.5050505E-02 -0.6157167E-06  0.0000000E+00 -0.9691523E-04
 -0.3669499E-02  0.0000000E+00 -0.5050505E-02 -0.5609741E-06  0.0000000E+00 -0.9810581E-04
 -0.3353842E-02  0.0000000E+00 -0.5050505E-02 -0.5121526E-06  0.0000000E+00 -0.9919177E-04
 -0.2978990E-02  0.0000000E+00 -0.5050505E-02 -0.4738060E-06  0.0000000E+00 -0.1001896E-03
 -0.2347676E-02  0.0000000E+00 -0.5050505E-02 -0.4559879E-06  0.0000000E+00 -0.1011308E-03
 -0.1716362E-02  0.0000000E+00 -0.5050505E-02 -0.4830188E-06  0.0000000E+00 -0.1020814E-03
 -0.1025842E-02  0.0000000E+00 -0.5050505E-02 -0.6201091E-06  0.0000000E+00 -0.1031982E-03
  0.2367855E-03  0.0000000E+00 -0.5050505E-02 -0.1061935E-05  0.0000000E+00 -0.1049014E-03
  0.1499413E-02  0.0000000E+00 -0.5050505E-02 -0.2453167E-05  0.0000000E+00 -0.1084616E-03
  0.5287294E-02  0.0000000E+00 -0.5050505E-02 -0.3843660E-04  0.0000000E+00 -0.8673211E-04
 -0.5050505E-02  0.0000000E+00 -0.5050505E-02  0.1036237E-06  0.0000000E+00 -0.8953388E-04
 -0.5050505E-02  0.0000000E+00 -0.5050505E-02  0.3109281E-06  0.0000000E+00 -0.8939379E-04
 -0.5050505E-02  0.0000000E+00 -0.5050505E-02  0.5184052E-06  0.0000000E+00 -0.8911355E-04
 -0.5050505E-02  0.0000000E+00 -0.5050505E-02  0.7261712E-06  0.0000000E+00 -0.8869302E-04
 -0.5050505E-02  0.0000000E+00 -0.5050505E-02  0.9343408E-06  0.0000000E+00 -0.8813199E-04
 -0.5050505E-02  0.0000000E+00 -0.5050505E-02  0.1143026E-05  0.0000000E+00 -0.8743018E-04
 -0.5050504E-02  0.0000000E+00 -0.5050505E-02  0.1352335E-05  0.0000000E+00 -0.8658723E-04
 -0.5050501E-02  0.0000000E+00 -0.5050505E-02  0.1562370E-05  0.0000000E+00 -0.8560273E-04
 -0.5050495E-02  0.0000000E+00 -0.5050505E-02  0.1773228E-05  0.0000000E+00 -0.8447620E-04
 -0.5050482E-02  0.0000000E+00 -0.5050505E-02  0.1984999E-05  0.0000000E+00 -0.8320712E-04
 -0.5050449E-02  0.0000000E+00 -0.5050505E-02  0.2197767E-05  0.0000000E+00 -0.8179490E-04
 -0.5050376E-02  0.0000000E+00 -0.5050505E-02  0.2411608E-05  0.0000000E+00 -0.8023891E-04
 -0.5050299E-02  0.0000000E+00 -0.5050505E-02  0.2626590E-05  0.0000000E+00 -0.7853847E-04
 -0.5050178E-02  0.0000000E+00 -0.5050505E-02  0.2842775E-05  0.0000000E+00 -0.7669289E-04
 -0.5050018E-02  0.0000000E+00 -0.5050505E-02  0.3060218E-05  0.0000000E+00 -0.7470141E-04
 -0.5049710E-02  0.0000000E+00 -0.5050505E-02  0.3278968E-05  0.0000000E+00 -0.7256328E-04
 -0.5049253E-02  0.0000000E+00 -0.5050505E-02  0.3499070E-05  0.0000000E+00 -0.7027770E-04
 -0.5048636E-02  0.0000000E+00 -0.5050505E-02  0.3720568E-05  0.0000000E+00 -0.6784387E-04
 -0.5047442E-02  0.0000000E+00 -0.5050505E-02  0.3943501E-05  0.0000000E+00 -0.6526095E-04
 -0.5045727E-02  0.0000000E+00 -0.5050505E-02  0.4167913E-05  0.0000000E+00 -0.6252809E-04
 -0.5043261E-02  0.0000000E+00 -0.5050505E-02  0.4393850E-05  0.0000000E+00 -0.5964443E-04
 -0.5038714E-02  0.0000000E+00 -0.5050505E-02  0.4621366E-05  0.0000000E+00 -0.5660907E-04
 -0.5032318E-02  0.0000000E+00 -0.5050505E-02  0.4850528E-05  0.0000000E+00 -0.5342109E-04
 -0.5022454E-02  0.0000000E+00 -0.5050505E-02  0.5081417E-05  0.0000000E+00 -0.5007953E-04
 -0.5012589E-02  0.0000000E+00 -0.5050505E-02  0.5314141E-05  0.0000000E+00 -0.4658337E-04
 -0.5002725E-02  0.0000000E+00 -0.5050505E-02  0.5548838E-05  0.0000000E+00 -0.4293154E-04
 -0.4992860E-02  0.0000000E+00 -0.5050505E-02  0.5785692E-05  0.0000000E+00 -0.3912285E-04
 -0.4976523E-02  0.0000000E+00 -0.5050505E-02  0.6024941E-05  0.0000000E+00 -0.3515600E-04
 -0.4956794E-02  0.0000000E+00 -0.5050505E-02  0.6266901E-05  0.0000000E+00 -0.3102953E-04
 -0.4937066E-02  0.0000000E+00 -0.5050505E-02  0.6511984E-05  0.0000000E+00 -0.2674173E-04
 -0.4906239E-02  0.0000000E+00 -0.5050505E-02  0.6760726E-05  0.0000000E+00 -0.2229063E-04
 -0.4866782E-02  0.0000000E+00 -0.5050505E-02  0.7013814E-05  0.0000000E+00 -0.1767383E-04
 -0.4827325E-02  0.0000000E+00 -0.5050505E-02  0.7272122E-05  0.0000000E+00 -0.1288849E-04
 -0.4769372E-02  0.0000000E+00 -0.5050505E-02  0.7536751E-05  0.0000000E+00 -0.7931082E-05
 -0.4690458E-02  0.0000000E+00 -0.5050505E-02  0.7809079E-05  0.0000000E+00 -0.2797282E-05
 -0.4611543E-02  0.0000000E+00 -0.5050505E-02  0.8089563E-05  0.0000000E+00  0.2526540E-05
 -0.4503035E-02  0.0000000E+00 -0.5050505E-02  0.8380403E-05  0.0000000E+00  0.8050109E-05
 -0.4345206E-02  0.0000000E+00 -0.5050505E-02  0.8685869E-05  0.0000000E+00  0.1377597E-04
 -0.4187378E-02  0.0000000E+00 -0.5050505E-02  0.9011695E-05  0.0000000E+00  0.1971356E-04
 -0.3985156E-02  0.0000000E+00 -0.5050505E-02  0.9368976E-05  0.0000000E+00  0.2587528E-04
 -0.3669499E-02  0.0000000E+00 -0.5050505E-02  0.9780982E-05  0.0000000E+00  0.3227810E-04
 -0.3353842E-02  0.0000000E+00 -0.5050505E-02  0.1029861E-04  0.0000000E+00  0.3894706E-04
 -0.2978990E-02  0.0000000E+00 -0.5050505E-02  0.1103531E-04  0.0000000E+00  0.4591898E-04
 -0.2347676E-02  0.0000000E+00 -0.5050505E-02  0.1224763E-04  0.0000000E+00  0.5323140E-04
 -0.1716362E-02  0.0000000E+00 -0.5050505E-02  0.1452934E-04  0.0000000E+00  0.6081396E-04
 -0.1025842E-02  0.0000000E+00 -0.5050505E-02  0.1930892E-04  0.0000000E+00  0.6788256E-04
  0.2367855E-03  0.0000000E+00 -0.5050505E-02 -0.1332360E-04  0.0000000E+00  0.6994528E-04
  0.1499413E-02  0.0000000E+00 -0.5050505E-02 -0.8722459E-05  0.0000000E+00  0.6693113E-04
  0.2762042E-02  0.0000000E+00 -0.5050505E-02 -0.6746804E-05  0.0000000E+00  0.6321904E-04
 -0.5050505E-02  0.0000000E+00 -0.5050505E-02 -0.5927534E-05  0.0000000E+00  0.5952684E-04
 -0.5050505E-02  0.0000000E+00 -0.5050505E-02 -0.5651391E-05  0.0000000E+00  0.5588762E-04
 -0.5050505E-02  0.0000000E+00 -0.5050505E-02 -0.5681888E-05  0.0000000E+00  0.5223826E-04
 -0.5050505E-02  0.0000000E+00 -0.5050505E-02 -0.6032858E-05  0.0000000E+00  0.4846096E-04
 -0.5050505E-02  0.0000000E+00 -0.5050505E-02 -0.6857067E-05  0.0000000E+00  0.4427492E-04
 -0.5050505E-02  0.0000000E+00 -0.5050505E-02 -0.8141233E-05  0.0000000E+00  0.3922795E-04
 -0.5050505E-02  0.0000000E+00 -0.5050505E-02 -0.9042857E-05  0.0000000E+00  0.3328594E-04
 -0.5050504E-02  0.0000000E+00 -0.5050505E-02 -0.9471046E-05  0.0000000E+00  0.2688064E-04
 -0.5050501E-02  0.0000000E+00 -0.5050505E-02 -0.9560047E-05  0.0000000E+00  0.2034728E-04
 -0.5050495E-02  0.0000000E+00 -0.5050505E-02 -0.9445115E-05  0.0000000E+00  0.1387386E-04
 -0.5050482E-02  0.0000000E+00 -0.5050505E-02 -0.9218694E-05  0.0000000E+00  0.7554574E-05
 -0.5050449E-02  0.0000000E+00 -0.5050505E-02 -0.8936318E-05  0.0000000E+00  0.1435260E-05
 -0.5050376E-02  0.0000000E+00 -0.5050505E-02 -0.8627503E-05  0.0000000E+00 -0.4462647E-05
 -0.5050299E-02  0.0000000E+00 -0.5050505E-02 -0.8311209E-05  0.0000000E+00 -0.1014003E-04
 -0.5050178E-02  0.0000000E+00 -0.5050505E-02 -0.7996063E-05  0.0000000E+00 -0.1560522E-04
 -0.5050018E-02  0.0000000E+00 -0.5050505E-02 -0.7686217E-05  0.0000000E+00 -0.2086188E-04
 -0.5049710E-02  0.0000000E+00 -0.5050505E-02 -0.7383461E-05  0.0000000E+00 -0.2591491E-04
 -0.5049253E-02  0.0000000E+00 -0.5050505E-02 -0.7088383E-05  0.0000000E+00 -0.3076950E-04
 -0.5048636E-02  0.0000000E+00 -0.5050505E-02 -0.6800979E-05  0.0000000E+00 -0.3543082E-04
 -0.5047442E-02  0.0000000E+00 -0.5050505E-02 -0.6520981E-05  0.0000000E+00 -0.3990382E-04
 -0.5045727E-02  0.0000000E+00 -0.5050505E-02 -0.6248017E-05  0.0000000E+00 -0.4419316E-04
 -0.5043261E-02  0.0000000E+00 -0.5050505E-02 -0.5981691E-05  0.0000000E+00 -0.4830322E-04
 -0.5038714E-02  0.0000000E+00 -0.5050505E-02 -0.5721619E-05  0.0000000E+00 -0.5223812E-04
 -0.5032318E-02  0.0000000E+00 -0.5050505E-02 -0.5467445E-05  0.0000000E+00 -0.5600173E-04
 -0.5022454E-02  0.0000000E+00 -0.5050505E-02 -0.5218840E-05  0.0000000E+00 -0.5959770E-04
 -0.5012589E-02  0.0000000E+00 -0.5050505E-02 -0.4975509E-05  0.0000000E+00 -0.6302947E-04
 -0.5002725E-02  0.0000000E+00 -0.5050505E-02 -0.4737179E-05  0.0000000E+00 -0.6630031E-04
 -0.4992860E-02  0.0000000E+00 -0.5050505E-02 -0.4503606E-05  0.0000000E+00 -0.6941334E-04
 -0.4976523E-02  0.0000000E+00 -0.5050505E-02 -0.4274566E-05  0.0000000E+00 -0.7237151E-04
 -0.4956794E-02  0.0000000E+00 -0.5050505E-02 -0.4049856E-05  0.0000000E+00 -0.7517766E-04
 -0.4937066E-02  0.0000000E+00 -0.5050505E-02 -0.3829295E-05  0.0000000E+00 -0.7783449E-04
 -0.4906239E-02  0.0000000E+00 -0.5050505E-02 -0.3612722E-05  0.0000000E+00 -0.8034461E-04
 -0.4866782E-02  0.0000000E+00 -0.5050505E-02 -0.3400004E-05  0.0000000E+00 -0.8271054E-04
 -0.4827325E-02  0.0000000E+00 -0.5050505E-02 -0.3191042E-05  0.0000000E+00 -0.8493470E-04
 -0.4769372E-02  0.0000000E+00 -0.5050505E-02 -0.2985781E-05  0.0000000E+00 -0.8701948E-04
 -0.4690458E-02  0.0000000E+00 -0.5050505E-02 -0.2784228E-05  0.0000000E+00 -0.8896726E-04
 -0.4611543E-02  0.0000000E+00 -0.5050505E-02 -0.2586491E-05  0.0000000E+00 -0.9078041E-04
 -0.4503035E-02  0.0000000E+00 -0.5050505E-02 -0.2392825E-05  0.0000000E+00 -0.9246143E-04
 -0.4345206E-02  0.0000000E+00 -0.5050505E-02 -0.2203727E-05  0.0000000E+00 -0.9401298E-04
 -0.4187378E-02  0.0000000E+00 -0.5050505E-02 -0.2020106E-05  0.0000000E+00 -0.9543811E-04
 -0.3985156E-02  0.0000000E+00 -0.5050505E-02 -0.1843578E-05  0.0000000E+00 -0.9674045E-04
 -0.3669499E-02  0.0000000E+00 -0.5050505E-02 -0.1677066E-05  0.0000000E+00 -0.9792464E-04
 -0.3353842E-02  0.0000000E+00 -0.5050505E-02 -0.1525994E-05  0.0000000E+00 -0.9899696E-04
 -0.2978990E-02  0.0000000E+00 -0.5050505E-02 -0.1400867E-05  0.0000000E+00 -0.9996611E-04
 -0.2347676E-02  0.0000000E+00 -0.5050505E-02 -0.1323131E-05  0.0000000E+00 -0.1008436E-03
 -0.1716362E-02  0.0000000E+00 -0.5050505E-02 -0.1339323E-05  0.0000000E+00 -0.1016402E-03
 -0.1025842E-02  0.0000000E+00 -0.5050505E-02 -0.1557250E-05  0.0000000E+00 -0.1023422E-03
  0.2367855E-03  0.0000000E+00 -0.5050505E-02 -0.2243363E-05  0.0000000E+00 -0.1027889E-03
  0.1499413E-02  0.0000000E+00 -0.5050505E-02 -0.4095876E-05  0.0000000E+00 -0.1021000E-03
  0.5287294E-02  0.0000000E+00 -0.5050505E-02 -0.9029124E-05  0.0000000E+00 -0.9600948E-04
 -0.5050505E-02  0.0000000E+00 -0.5050505E-02  0.1728060E-06  0.0000000E+00 -0.8915051E-04
 -0.5050505E-02  0.0000000E+00 -0.5050505E-02  0.5185154E-06  0.0000000E+00 -0.8900964E-04
 -0.5050505E-02  0.0000000E+00 -0.5050505E-02  0.8645194E-06  0.0000000E+00 -0.8872783E-04
 -0.5050505E-02  0.0000000E+00 -0.5050505E-02  0.1211015E-05  0.0000000E+00 -0.8830494E-04
 -0.5050505E-02  0.0000000E+00 -0.5050505E-02  0.1558196E-05  0.0000000E+00 -0.8774074E-04
 -0.5050505E-02  0.0000000E+00 -0.5050505E-02  0.1906251E-05  0.0000000E+00 -0.8703495E-04
 -0.5050504E-02  0.0000000E+00 -0.5050505E-02  0.2255364E-05  0.0000000E+00 -0.8618720E-04
 -0.5050501E-02  0.0000000E+00 -0.5050505E-02  0.2605708E-05  0.0000000E+00 -0.8519706E-04
 -0.5050495E-02  0.0000000E+00 -0.5050505E-02  0.2957446E-05  0.0000000E+00 -0.8406402E-04
 -0.5050482E-02  0.0000000E+00 -0.5050505E-02  0.3310732E-05  0.0000000E+00 -0.8278753E-04
 -0.5050449E-02  0.0000000E+00 -0.5050505E-02  0.3665705E-05  0.0000000E+00 -0.8136698E-04
 -0.5050376E-02  0.0000000E+00 -0.5050505E-02  0.4022494E-05  0.0000000E+00 -0.7980171E-04
 -0.5050299E-02  0.0000000E+00 -0.5050505E-02  0.4381215E-05  0.0000000E+00 -0.7809101E-04
 -0.5050178E-02  0.0000000E+00 -0.5050505E-02  0.4741972E-05  0.0000000E+00 -0.7623415E-04
 -0.5050018E-02  0.0000000E+00 -0.5050505E-02  0.5104859E-05  0.0000000E+00 -0.7423035E-04
 -0.5049710E-02  0.0000000E+00 -0.5050505E-02  0.5469958E-05  0.0000000E+00 -0.7207881E-04
 -0.5049253E-02  0.0000000E+00 -0.5050505E-02  0.5837346E-05  0.0000000E+00 -0.6977870E-04
 -0.5048636E-02  0.0000000E+00 -0.5050505E-02  0.6207094E-05  0.0000000E+00 -0.6732917E-04
 -0.5047442E-02  0.0000000E+00 -0.5050505E-02  0.6579272E-05  0.0000000E+00 -0.6472935E-04
 -0.5045727E-02  0.0000000E+00 -0.5050505E-02  0.6953952E-05  0.0000000E+00 -0.6197836E-04
 -0.5043261E-02  0.0000000E+00 -0.5050505E-02  0.7331210E-05  0.0000000E+00 -0.5907528E-04
 -0.5038714E-02  0.0000000E+00 -0.5050505E-02  0.7711138E-05  0.0000000E+00 -0.5601919E-04
 -0.5032318E-02  0.0000000E+00 -0.5050505E-02  0.8093844E-05  0.0000000E+00 -0.5280912E-04
 -0.5022454E-02  0.0000000E+00 -0.5050505E-02  0.8479465E-05  0.0000000E+00 -0.4944407E-04
 -0.5012589E-02  0.0000000E+00 -0.5050505E-02  0.8868177E-05  0.0000000E+00 -0.4592299E-04
 -0.5002725E-02  0.0000000E+00 -0.5050505E-02  0.9260205E-05  0.0000000E+00 -0.4224479E-04
 -0.4992860E-02  0.0000000E+00 -0.5050505E-02  0.9655847E-05  0.0000000E+00 -0.3840824E-04
 -0.4976523E-02  0.0000000E+00 -0.5050505E-02  0.1005549E-04  0.0000000E+00 -0.3441205E-04
 -0.4956794E-02  0.0000000E+00 -0.5050505E-02  0.1045965E-04  0.0000000E+00 -0.3025474E-04
 -0.4937066E-02  0.0000000E+00 -0.5050505E-02  0.1086900E-04  0.0000000E+00 -0.2593464E-04
 -0.4906239E-02  0.0000000E+00 -0.5050505E-02  0.1128441E-04  0.0000000E+00 -0.2144980E-04
 -0.4866782E-02  0.0000000E+00 -0.5050505E-02  0.1170700E-04  0.0000000E+00 -0.1679792E-04
 -0.4827325E-02  0.0000000E+00 -0.5050505E-02  0.1213820E-04  0.0000000E+00 -0.1197624E-04
 -0.4769372E-02  0.0000000E+00 -0.5050505E-02  0.1257980E-04  0.0000000E+00 -0.6981416E-05
 -0.4690458E-02  0.0000000E+00 -0.5050505E-02  0.1303406E-04  0.0000000E+00 -0.1808173E-05
 -0.4611543E-02  0.0000000E+00 -0.5050505E-02  0.1350034E-04  0.0000000E+00  0.3556359E-05
 -0.4503035E-02  0.0000000E+00 -0.5050505E-02  0.1398363E-04  0.0000000E+00  0.9119610E-05
 -0.4345206E-02  0.0000000E+00 -0.5050505E-02  0.1448842E-04  0.0000000E+00  0.1488260E-04
 -0.4187378E-02  0.0000000E+00 -0.5050505E-02  0.1502075E-04  0.0000000E+00  0.2085065E-04
 -0.3985156E-02  0.0000000E+00 -0.5050505E-02  0.1559100E-04  0.0000000E+00  0.2702602E-04
 -0.3669499E-02  0.0000000E+00 -0.5050505E-02  0.1621974E-04  0.0000000E+00  0.3340316E-04
 -0.3353842E-02  0.0000000E+00 -0.5050505E-02  0.1695059E-04  0.0000000E+00  0.3995864E-04
 -0.2978990E-02  0.0000000E+00 -0.5050505E-02  0.1787643E-04  0.0000000E+00  0.4662962E-04
 -0.2347676E-02  0.0000000E+00 -0.5050505E-02  0.1918601E-04  0.0000000E+00  0.5326425E-04
 -0.1716362E-02  0.0000000E+00 -0.5050505E-02  0.2122629E-04  0.0000000E+00  0.5950292E-04
 -0.1025842E-02  0.0000000E+00 -0.5050505E-02  0.2449972E-04  0.0000000E+00  0.6452025E-04
  0.2367855E-03  0.0000000E+00 -0.5050505E-02 -0.1428647E-04  0.0000000E+00  0.6673745E-04
  0.1499413E-02  0.0000000E+00 -0.5050505E-02 -0.1136580E-04  0.0000000E+00  0.6604465E-04
  0.2762042E-02  0.0000000E+00 -0.5050505E-02 -0.9879441E-05  0.0000000E+00  0.6387827E-04
 -0.5050505E-02  0.0000000E+00 -0.5050505E-02 -0.9245678E-05  0.0000000E+00  0.6102045E-04
 -0.5050505E-02  0.0000000E+00 -0.5050505E-02 -0.9065024E-05  0.0000000E+00  0.5783165E-04
 -0.5050505E-02  0.0000000E+00 -0.5050505E-02 -0.9112100E-05  0.0000000E+00  0.5454351E-04
 -0.5050505E-02  0.0000000E+00 -0.5050505E-02 -0.9545862E-05  0.0000000E+00  0.5128519E-04
 -0.5050505E-02  0.0000000E+00 -0.5050505E-02 -0.1095965E-04  0.0000000E+00  0.4775857E-04
 -0.5050505E-02  0.0000000E+00 -0.5050505E-02 -0.1402313E-04  0.0000000E+00  0.4270763E-04
 -0.5050505E-02  0.0000000E+00 -0.5050505E-02 -0.1564897E-04  0.0000000E+00  0.3603533E-04
 -0.5050504E-02  0.0000000E+00 -0.5050505E-02 -0.1622602E-04  0.0000000E+00  0.2895606E-04
 -0.5050501E-02  0.0000000E+00 -0.5050505E-02 -0.1622498E-04  0.0000000E+00  0.2195580E-04
 -0.5050495E-02  0.0000000E+00 -0.5050505E-02 -0.1592584E-04  0.0000000E+00  0.1518179E-04
 -0.5050482E-02  0.0000000E+00 -0.5050505E-02 -0.1548009E-04  0.0000000E+00  0.8669352E-05
 -0.5050449E-02  0.0000000E+00 -0.5050505E-02 -0.1496803E-04  0.0000000E+00  0.2420666E-05
 -0.5050376E-02  0.0000000E+00 -0.5050505E-02 -0.1442948E-04  0.0000000E+00 -0.3567921E-05
 -0.5050299E-02  0.0000000E+00 -0.5050505E-02 -0.1388745E-04  0.0000000E+00 -0.9311703E-05
 -0.5050178E-02  0.0000000E+00 -0.5050505E-02 -0.1335318E-04  0.0000000E+00 -0.1482938E-04
 -0.5050018E-02  0.0000000E+00 -0.5050505E-02 -0.1283109E-04  0.0000000E+00 -0.2012984E-04
 -0.5049710E-02  0.0000000E+00 -0.5050505E-02 -0.1232275E-04  0.0000000E+00 -0.2522087E-04
 -0.5049253E-02  0.0000000E+00 -0.5050505E-02 -0.1182832E-04  0.0000000E+00 -0.3010938E-04
 -0.5048636E-02  0.0000000E+00 -0.5050505E-02 -0.1134734E-04  0.0000000E+00 -0.3480152E-04
 -0.5047442E-02  0.0000000E+00 -0.5050505E-02 -0.1087911E-04  0.0000000E+00 -0.3930282E-04
 -0.5045727E-02  0.0000000E+00 -0.5050505E-02 -0.1042287E-04  0.0000000E+00 -0.4361832E-04
 -0.5043261E-02  0.0000000E+00 -0.5050505E-02 -0.9977875E-05  0.0000000E+00 -0.4775265E-04
 -0.5038714E-02  0.0000000E+00 -0.5050505E-02 -0.9543437E-05  0.0000000E+00 -0.5171009E-04
 -0.5032318E-02  0.0000000E+00 -0.5050505E-02 -0.9118932E-05  0.0000000E+00 -0.5549466E-04
 -0.5022454E-02  0.0000000E+00 -0.5050505E-02 -0.8703796E-05  0.0000000E+00 -0.5911012E-04
 -0.5012589E-02  0.0000000E+00 -0.5050505E-02 -0.8297520E-05  0.0000000E+00 -0.6255999E-04
 -0.5002725E-02  0.0000000E+00 -0.5050505E-02 -0.7899643E-05  0.0000000E+00 -0.6584764E-04
 -0.4992860E-02  0.0000000E+00 -0.5050505E-02 -0.7509749E-05  0.0000000E+00 -0.6897624E-04
 -0.4976523E-02  0.0000000E+00 -0.5050505E-02 -0.7127457E-05  0.0000000E+00 -0.7194882E-04
 -0.4956794E-02  0.0000000E+00 -0.5050505E-02 -0.6752423E-05  0.0000000E+00 -0.7476826E-04
 -0.4937066E-02  0.0000000E+00 -0.5050505E-02 -0.6384333E-05  0.0000000E+00 -0.7743731E-04
 -0.4906239E-02  0.0000000E+00 -0.5050505E-02 -0.6022913E-05  0.0000000E+00 -0.7995862E-04
 -0.4866782E-02  0.0000000E+00 -0.5050505E-02 -0.5667929E-05  0.0000000E+00 -0.8233471E-04
 -0.4827325E-02  0.0000000E+00 -0.5050505E-02 -0.5319194E-05  0.0000000E+00 -0.8456803E-04
 -0.4769372E-02  0.0000000E+00 -0.5050505E-02 -0.4976591E-05  0.0000000E+00 -0.8666093E-04
 -0.4690458E-02  0.0000000E+00 -0.5050505E-02 -0.4640095E-05  0.0000000E+00 -0.8861574E-04
 -0.4611543E-02  0.0000000E+00 -0.5050505E-02 -0.4309818E-05  0.0000000E+00 -0.9043471E-04
 -0.4503035E-02  0.0000000E+00 -0.5050505E-02 -0.3986076E-05  0.0000000E+00 -0.9212013E-04
 -0.4345206E-02  0.0000000E+00 -0.5050505E-02 -0.3669512E-05  0.0000000E+00 -0.9367428E-04
 -0.4187378E-02  0.0000000E+00 -0.5050505E-02 -0.3361285E-05  0.0000000E+00 -0.9509954E-04
 -0.3985156E-02  0.0000000E+00 -0.5050505E-02 -0.3063416E-05  0.0000000E+00 -0.9639836E-04
 -0.3669499E-02  0.0000000E+00 -0.5050505E-02 -0.2779393E-05  0.0000000E+00 -0.9757318E-04
 -0.3353842E-02  0.0000000E+00 -0.5050505E-02 -0.2515269E-05  0.0000000E+00 -0.9862608E-04
 -0.2978990E-02  0.0000000E+00 -0.5050505E-02 -0.2281661E-05  0.0000000E+00 -0.9955751E-04
 -0.2347676E-02  0.0000000E+00 -0.5050505E-02 -0.2097340E-05  0.0000000E+00 -0.1003626E-03
 -0.1716362E-02  0.0000000E+00 -0.5050505E-02 -0.1995150E-05  0.0000000E+00 -0.1010209E-03
 -0.1025842E-02  0.0000000E+00 -0.5050505E-02 -0.2028908E-05  0.0000000E+00 -0.1014685E-03
  0.2367855E-03  0.0000000E+00 -0.5050505E-02 -0.2266236E-05  0.0000000E+00 -0.1015334E-03
  0.1499413E-02  0.0000000E+00 -0.5050505E-02 -0.2682615E-05  0.0000000E+00 -0.1008340E-03
  0.5287294E-02  0.0000000E+00 -0.5050505E-02 -0.2548467E-05  0.0000000E+00 -0.9898266E-04
 -0.5050505E-02  0.0000000E+00 -0.5050505E-02  0.2422800E-06  0.0000000E+00 -0.8858196E-04
 -0.5050505E-02  0.0000000E+00 -0.5050505E-02  0.7269808E-06  0.0000000E+00 -0.8843991E-04
 -0.5050505E-02  0.0000000E+00 -0.5050505E-02  0.1212106E-05  0.0000000E+00 -0.8815576E-04
 -0.5050505E-02  0.0000000E+00 -0.5050505E-02  0.1697937E-05  0.0000000E+00 -0.8772933E-04
 -0.5050505E-02  0.0000000E+00 -0.5050505E-02  0.2184753E-05  0.0000000E+00 -0.8716041E-04
 -0.5050505E-02  0.0000000E+00 -0.5050505E-02  0.2672824E-05  0.0000000E+00 -0.8644868E-04
 -0.5050504E-02  0.0000000E+00 -0.5050505E-02  0.3162412E-05  0.0000000E+00 -0.8559375E-04
 -0.5050501E-02  0.0000000E+00 -0.5050505E-02  0.3653764E-05  0.0000000E+00 -0.8459516E-04
 -0.5050495E-02  0.0000000E+00 -0.5050505E-02  0.4147115E-05  0.0000000E+00 -0.8345237E-04
 -0.5050482E-02  0.0000000E+00 -0.5050505E-02  0.4642683E-05  0.0000000E+00 -0.8216480E-04
 -0.5050449E-02  0.0000000E+00 -0.5050505E-02  0.5140669E-05  0.0000000E+00 -0.8073178E-04
 -0.5050376E-02  0.0000000E+00 -0.5050505E-02  0.5641256E-05  0.0000000E+00 -0.7915261E-04
 -0.5050299E-02  0.0000000E+00 -0.5050505E-02  0.6144610E-05  0.0000000E+00 -0.7742655E-04
 -0.5050178E-02  0.0000000E+00 -0.5050505E-02  0.6650881E-05  0.0000000E+00 -0.7555279E-04
 -0.5050018E-02  0.0000000E+00 -0.5050505E-02  0.7160201E-05  0.0000000E+00 -0.7353052E-04
 -0.5049710E-02  0.0000000E+00 -0.5050505E-02  0.7672689E-05  0.0000000E+00 -0.7135886E-04
 -0.5049253E-02  0.0000000E+00 -0.5050505E-02  0.8188455E-05  0.0000000E+00 -0.6903695E-04
 -0.5048636E-02  0.0000000E+00 -0.5050505E-02  0.8707600E-05  0.0000000E+00 -0.6656386E-04
 -0.5047442E-02  0.0000000E+00 -0.5050505E-02  0.9230223E-05  0.0000000E+00 -0.6393868E-04
 -0.5045727E-02  0.0000000E+00 -0.5050505E-02  0.9756426E-05  0.0000000E+00 -0.6116045E-04
 -0.5043261E-02  0.0000000E+00 -0.5050505E-02  0.1028632E-04  0.0000000E+00 -0.5822820E-04
 -0.5038714E-02  0.0000000E+00 -0.5050505E-02  0.1082003E-04  0.0000000E+00 -0.5514094E-04
 -0.5032318E-02  0.0000000E+00 -0.5050505E-02  0.1135770E-04  0.0000000E+00 -0.5189765E-04
 -0.5022454E-02  0.0000000E+00 -0.5050505E-02  0.1189954E-04  0.0000000E+00 -0.4849726E-04
 -0.5012589E-02  0.0000000E+00 -0.5050505E-02  0.1244577E-04  0.0000000E+00 -0.4493867E-04
 -0.5002725E-02  0.0000000E+00 -0.5050505E-02  0.1299670E-04  0.0000000E+00 -0.4122073E-04
 -0.4992860E-02  0.0000000E+00 -0.5050505E-02  0.1355274E-04  0.0000000E+00 -0.3734220E-04
 -0.4976523E-02  0.0000000E+00 -0.5050505E-02  0.1411442E-04  0.0000000E+00 -0.3330173E-04
 -0.4956794E-02  0.0000000E+00 -0.5050505E-02  0.1468241E-04  0.0000000E+00 -0.2909786E-04
 -0.4937066E-02  0.0000000E+00 -0.5050505E-02  0.1525764E-04  0.0000000E+00 -0.2472892E-04