title = "dataset feddes"
variables = "x", "y", "z", "vx", "vy", "vz"
zone t = "velocities, solution time =  2.200E+01 days        " i =   99, j =   99, k =    1,  f=point
 -0.5050505E-02  0.0000000E+00 -0.5050505E-02  0.2849300E-11  0.0000000E+00 -0.3914507E-03
 -0.5050505E-02  0.0000000E+00 -0.5050505E-02  0.8198202E-11  0.0000000E+00 -0.3914507E-03
 -0.5050505E-02  0.0000000E+00 -0.5050505E-02  0.1340691E-10  0.0000000E+00 -0.3914507E-03
 -0.5050505E-02  0.0000000E+00 -0.5050505E-02  0.1851896E-10  0.0000000E+00 -0.3914507E-03
 -0.5050505E-02  0.0000000E+00 -0.5050505E-02  0.2345837E-10  0.0000000E+00 -0.3914506E-03
 -0.5050505E-02  0.0000000E+00 -0.5050505E-02  0.2816378E-10  0.0000000E+00 -0.3914506E-03
 -0.5050504E-02  0.0000000E+00 -0.5050505E-02  0.3257821E-10  0.0000000E+00 -0.3914505E-03
 -0.5050501E-02  0.0000000E+00 -0.5050505E-02  0.3665043E-10  0.0000000E+00 -0.3914504E-03
 -0.5050495E-02  0.0000000E+00 -0.5050505E-02  0.4033044E-10  0.0000000E+00 -0.3914504E-03
 -0.5050482E-02  0.0000000E+00 -0.5050505E-02  0.4356667E-10  0.0000000E+00 -0.3914503E-03
 -0.5050449E-02  0.0000000E+00 -0.5050505E-02  0.4631174E-10  0.0000000E+00 -0.3914502E-03
 -0.5050376E-02  0.0000000E+00 -0.5050505E-02  0.4851369E-10  0.0000000E+00 -0.3914501E-03
 -0.5050299E-02  0.0000000E+00 -0.5050505E-02  0.5012402E-10  0.0000000E+00 -0.3914500E-03
 -0.5050178E-02  0.0000000E+00 -0.5050505E-02  0.5109482E-10  0.0000000E+00 -0.3914499E-03
 -0.5050018E-02  0.0000000E+00 -0.5050505E-02  0.5137647E-10  0.0000000E+00 -0.3914498E-03
 -0.5049710E-02  0.0000000E+00 -0.5050505E-02  0.5092165E-10  0.0000000E+00 -0.3914497E-03
 -0.5049253E-02  0.0000000E+00 -0.5050505E-02  0.4968242E-10  0.0000000E+00 -0.3914496E-03
 -0.5048636E-02  0.0000000E+00 -0.5050505E-02  0.4761312E-10  0.0000000E+00 -0.3914495E-03
 -0.5047442E-02  0.0000000E+00 -0.5050505E-02  0.4466924E-10  0.0000000E+00 -0.3914494E-03
 -0.5045727E-02  0.0000000E+00 -0.5050505E-02  0.4080818E-10  0.0000000E+00 -0.3914493E-03
 -0.5043261E-02  0.0000000E+00 -0.5050505E-02  0.3598813E-10  0.0000000E+00 -0.3914492E-03
 -0.5038714E-02  0.0000000E+00 -0.5050505E-02  0.3016830E-10  0.0000000E+00 -0.3914491E-03
 -0.5032318E-02  0.0000000E+00 -0.5050505E-02  0.2330975E-10  0.0000000E+00 -0.3914491E-03
 -0.5022454E-02  0.0000000E+00 -0.5050505E-02  0.1527890E-10  0.0000000E+00 -0.3914490E-03
 -0.5012589E-02  0.0000000E+00 -0.5050505E-02  0.6152689E-11  0.0000000E+00 -0.3914490E-03
 -0.5002725E-02  0.0000000E+00 -0.5050505E-02 -0.4093757E-11  0.0000000E+00 -0.3914490E-03
 -0.4992860E-02  0.0000000E+00 -0.5050505E-02 -0.1555886E-10  0.0000000E+00 -0.3914490E-03
 -0.4976523E-02  0.0000000E+00 -0.5050505E-02 -0.2827850E-10  0.0000000E+00 -0.3914491E-03
 -0.4956794E-02  0.0000000E+00 -0.5050505E-02 -0.4228033E-10  0.0000000E+00 -0.3914491E-03
 -0.4937066E-02  0.0000000E+00 -0.5050505E-02 -0.5759481E-10  0.0000000E+00 -0.3914492E-03
 -0.4906239E-02  0.0000000E+00 -0.5050505E-02 -0.7425319E-10  0.0000000E+00 -0.3914494E-03
 -0.4866782E-02  0.0000000E+00 -0.5050505E-02 -0.9228878E-10  0.0000000E+00 -0.3914496E-03
 -0.4827325E-02  0.0000000E+00 -0.5050505E-02 -0.1117391E-09  0.0000000E+00 -0.3914498E-03
 -0.4769372E-02  0.0000000E+00 -0.5050505E-02 -0.1326437E-09  0.0000000E+00 -0.3914500E-03
 -0.4690458E-02  0.0000000E+00 -0.5050505E-02 -0.1550403E-09  0.0000000E+00 -0.3914503E-03
 -0.4611543E-02  0.0000000E+00 -0.5050505E-02 -0.1789657E-09  0.0000000E+00 -0.3914507E-03
 -0.4503035E-02  0.0000000E+00 -0.5050505E-02 -0.2044608E-09  0.0000000E+00 -0.3914511E-03
 -0.4345206E-02  0.0000000E+00 -0.5050505E-02 -0.2315728E-09  0.0000000E+00 -0.3914515E-03
 -0.4187378E-02  0.0000000E+00 -0.5050505E-02 -0.2603519E-09  0.0000000E+00 -0.3914520E-03
 -0.3985156E-02  0.0000000E+00 -0.5050505E-02 -0.2908507E-09  0.0000000E+00 -0.3914526E-03
 -0.3669499E-02  0.0000000E+00 -0.5050505E-02 -0.3231277E-09  0.0000000E+00 -0.3914533E-03
 -0.3353842E-02  0.0000000E+00 -0.5050505E-02 -0.3572502E-09  0.0000000E+00 -0.3914540E-03
 -0.2978990E-02  0.0000000E+00 -0.5050505E-02 -0.3932949E-09  0.0000000E+00 -0.3914548E-03
 -0.2347676E-02  0.0000000E+00 -0.5050505E-02 -0.4313483E-09  0.0000000E+00 -0.3914556E-03
 -0.1716362E-02  0.0000000E+00 -0.5050505E-02 -0.4715092E-09  0.0000000E+00 -0.3914566E-03
 -0.1025842E-02  0.0000000E+00 -0.5050505E-02 -0.5138911E-09  0.0000000E+00 -0.3914576E-03
  0.2367855E-03  0.0000000E+00 -0.5050505E-02 -0.5586247E-09  0.0000000E+00 -0.3914587E-03
  0.1499413E-02  0.0000000E+00 -0.5050505E-02 -0.6058600E-09  0.0000000E+00 -0.3914599E-03
  0.2762042E-02  0.0000000E+00 -0.5050505E-02 -0.6557709E-09  0.0000000E+00 -0.3914613E-03
 -0.5050505E-02  0.0000000E+00 -0.5050505E-02 -0.7085591E-09  0.0000000E+00 -0.3914627E-03
 -0.5050505E-02  0.0000000E+00 -0.5050505E-02 -0.7644583E-09  0.0000000E+00 -0.3914642E-03
 -0.5050505E-02  0.0000000E+00 -0.5050505E-02 -0.8237377E-09  0.0000000E+00 -0.3914659E-03
 -0.5050505E-02  0.0000000E+00 -0.5050505E-02 -0.8867077E-09  0.0000000E+00 -0.3914677E-03
 -0.5050505E-02  0.0000000E+00 -0.5050505E-02 -0.9537294E-09  0.0000000E+00 -0.3914696E-03
 -0.5050505E-02  0.0000000E+00 -0.5050505E-02 -0.1025224E-08  0.0000000E+00 -0.3914717E-03
 -0.5050505E-02  0.0000000E+00 -0.5050505E-02 -0.1101678E-08  0.0000000E+00 -0.3914739E-03
 -0.5050504E-02  0.0000000E+00 -0.5050505E-02 -0.1183658E-08  0.0000000E+00 -0.3914763E-03
 -0.5050501E-02  0.0000000E+00 -0.5050505E-02 -0.1271819E-08  0.0000000E+00 -0.3914789E-03
 -0.5050495E-02  0.0000000E+00 -0.5050505E-02 -0.1366928E-08  0.0000000E+00 -0.3914816E-03
 -0.5050482E-02  0.0000000E+00 -0.5050505E-02 -0.1469880E-08  0.0000000E+00 -0.3914846E-03
 -0.5050449E-02  0.0000000E+00 -0.5050505E-02 -0.1581722E-08  0.0000000E+00 -0.3914878E-03
 -0.5050376E-02  0.0000000E+00 -0.5050505E-02 -0.1703681E-08  0.0000000E+00 -0.3914912E-03
 -0.5050299E-02  0.0000000E+00 -0.5050505E-02 -0.1837198E-08  0.0000000E+00 -0.3914949E-03
 -0.5050178E-02  0.0000000E+00 -0.5050505E-02 -0.1983974E-08  0.0000000E+00 -0.3914989E-03
 -0.5050018E-02  0.0000000E+00 -0.5050505E-02 -0.2146020E-08  0.0000000E+00 -0.3915033E-03
 -0.5049710E-02  0.0000000E+00 -0.5050505E-02 -0.2325728E-08  0.0000000E+00 -0.3915079E-03
 -0.5049253E-02  0.0000000E+00 -0.5050505E-02 -0.2525948E-08  0.0000000E+00 -0.3915130E-03
 -0.5048636E-02  0.0000000E+00 -0.5050505E-02 -0.2750096E-08  0.0000000E+00 -0.3915185E-03
 -0.5047442E-02  0.0000000E+00 -0.5050505E-02 -0.3002286E-08  0.0000000E+00 -0.3915246E-03
 -0.5045727E-02  0.0000000E+00 -0.5050505E-02 -0.3287499E-08  0.0000000E+00 -0.3915311E-03
 -0.5043261E-02  0.0000000E+00 -0.5050505E-02 -0.3611801E-08  0.0000000E+00 -0.3915384E-03
 -0.5038714E-02  0.0000000E+00 -0.5050505E-02 -0.3982631E-08  0.0000000E+00 -0.3915463E-03
 -0.5032318E-02  0.0000000E+00 -0.5050505E-02 -0.4409169E-08  0.0000000E+00 -0.3915551E-03
 -0.5022454E-02  0.0000000E+00 -0.5050505E-02 -0.4902834E-08  0.0000000E+00 -0.3915648E-03
 -0.5012589E-02  0.0000000E+00 -0.5050505E-02 -0.5477941E-08  0.0000000E+00 -0.3915757E-03
 -0.5002725E-02  0.0000000E+00 -0.5050505E-02 -0.6152604E-08  0.0000000E+00 -0.3915879E-03
 -0.4992860E-02  0.0000000E+00 -0.5050505E-02 -0.6949957E-08  0.0000000E+00 -0.3916016E-03
 -0.4976523E-02  0.0000000E+00 -0.5050505E-02 -0.7899856E-08  0.0000000E+00 -0.3916171E-03
 -0.4956794E-02  0.0000000E+00 -0.5050505E-02 -0.9041282E-08  0.0000000E+00 -0.3916349E-03
 -0.4937066E-02  0.0000000E+00 -0.5050505E-02 -0.1042576E-07  0.0000000E+00 -0.3916552E-03
 -0.4906239E-02  0.0000000E+00 -0.5050505E-02 -0.1212235E-07  0.0000000E+00 -0.3916788E-03
 -0.4866782E-02  0.0000000E+00 -0.5050505E-02 -0.1422501E-07  0.0000000E+00 -0.3917064E-03
 -0.4827325E-02  0.0000000E+00 -0.5050505E-02 -0.1686376E-07  0.0000000E+00 -0.3917390E-03
 -0.4769372E-02  0.0000000E+00 -0.5050505E-02 -0.2022191E-07  0.0000000E+00 -0.3917778E-03
 -0.4690458E-02  0.0000000E+00 -0.5050505E-02 -0.2456340E-07  0.0000000E+00 -0.3918247E-03
 -0.4611543E-02  0.0000000E+00 -0.5050505E-02 -0.3027743E-07  0.0000000E+00 -0.3918821E-03
 -0.4503035E-02  0.0000000E+00 -0.5050505E-02 -0.3795356E-07  0.0000000E+00 -0.3919535E-03
 -0.4345206E-02  0.0000000E+00 -0.5050505E-02 -0.4851307E-07  0.0000000E+00 -0.3920440E-03
 -0.4187378E-02  0.0000000E+00 -0.5050505E-02 -0.6344833E-07  0.0000000E+00 -0.3921612E-03
 -0.3985156E-02  0.0000000E+00 -0.5050505E-02 -0.8528064E-07  0.0000000E+00 -0.3923168E-03
 -0.3669499E-02  0.0000000E+00 -0.5050505E-02 -0.1184869E-06  0.0000000E+00 -0.3925301E-03
 -0.3353842E-02  0.0000000E+00 -0.5050505E-02 -0.1715013E-06  0.0000000E+00 -0.3928337E-03
 -0.2978990E-02  0.0000000E+00 -0.5050505E-02 -0.2613776E-06  0.0000000E+00 -0.3932868E-03
 -0.2347676E-02  0.0000000E+00 -0.5050505E-02 -0.4256121E-06  0.0000000E+00 -0.3940060E-03
 -0.1716362E-02  0.0000000E+00 -0.5050505E-02 -0.7550415E-06  0.0000000E+00 -0.3952421E-03
 -0.1025842E-02  0.0000000E+00 -0.5050505E-02 -0.1494650E-05  0.0000000E+00 -0.3975977E-03
  0.2367855E-03  0.0000000E+00 -0.5050505E-02 -0.3383039E-05  0.0000000E+00 -0.4027066E-03
  0.1499413E-02  0.0000000E+00 -0.5050505E-02 -0.8899137E-05  0.0000000E+00 -0.4155794E-03
  0.5287294E-02  0.0000000E+00 -0.5050505E-02 -0.1462177E-03  0.0000000E+00 -0.3314331E-03
 -0.5050505E-02  0.0000000E+00 -0.5050505E-02  0.8524397E-11  0.0000000E+00 -0.3911831E-03
 -0.5050505E-02  0.0000000E+00 -0.5050505E-02  0.2472660E-10  0.0000000E+00 -0.3911831E-03
 -0.5050505E-02  0.0000000E+00 -0.5050505E-02  0.4052794E-10  0.0000000E+00 -0.3911831E-03
 -0.5050505E-02  0.0000000E+00 -0.5050505E-02  0.5601181E-10  0.0000000E+00 -0.3911830E-03
 -0.5050505E-02  0.0000000E+00 -0.5050505E-02  0.7096172E-10  0.0000000E+00 -0.3911830E-03
 -0.5050505E-02  0.0000000E+00 -0.5050505E-02  0.8520359E-10  0.0000000E+00 -0.3911829E-03
 -0.5050504E-02  0.0000000E+00 -0.5050505E-02  0.9857064E-10  0.0000000E+00 -0.3911829E-03
 -0.5050501E-02  0.0000000E+00 -0.5050505E-02  0.1109090E-09  0.0000000E+00 -0.3911828E-03
 -0.5050495E-02  0.0000000E+00 -0.5050505E-02  0.1220700E-09  0.0000000E+00 -0.3911827E-03
 -0.5050482E-02  0.0000000E+00 -0.5050505E-02  0.1318976E-09  0.0000000E+00 -0.3911826E-03
 -0.5050449E-02  0.0000000E+00 -0.5050505E-02  0.1402490E-09  0.0000000E+00 -0.3911825E-03
 -0.5050376E-02  0.0000000E+00 -0.5050505E-02  0.1469699E-09  0.0000000E+00 -0.3911824E-03
 -0.5050299E-02  0.0000000E+00 -0.5050505E-02  0.1519126E-09  0.0000000E+00 -0.3911823E-03
 -0.5050178E-02  0.0000000E+00 -0.5050505E-02  0.1549333E-09  0.0000000E+00 -0.3911822E-03
 -0.5050018E-02  0.0000000E+00 -0.5050505E-02  0.1558845E-09  0.0000000E+00 -0.3911821E-03
 -0.5049710E-02  0.0000000E+00 -0.5050505E-02  0.1546227E-09  0.0000000E+00 -0.3911820E-03
 -0.5049253E-02  0.0000000E+00 -0.5050505E-02  0.1510045E-09  0.0000000E+00 -0.3911819E-03
 -0.5048636E-02  0.0000000E+00 -0.5050505E-02  0.1448922E-09  0.0000000E+00 -0.3911818E-03
 -0.5047442E-02  0.0000000E+00 -0.5050505E-02  0.1361528E-09  0.0000000E+00 -0.3911817E-03
 -0.5045727E-02  0.0000000E+00 -0.5050505E-02  0.1246592E-09  0.0000000E+00 -0.3911816E-03
 -0.5043261E-02  0.0000000E+00 -0.5050505E-02  0.1102837E-09  0.0000000E+00 -0.3911815E-03
 -0.5038714E-02  0.0000000E+00 -0.5050505E-02  0.9289912E-10  0.0000000E+00 -0.3911814E-03
 -0.5032318E-02  0.0000000E+00 -0.5050505E-02  0.7236390E-10  0.0000000E+00 -0.3911814E-03
 -0.5022454E-02  0.0000000E+00 -0.5050505E-02  0.4838301E-10  0.0000000E+00 -0.3911813E-03
 -0.5012589E-02  0.0000000E+00 -0.5050505E-02  0.2109816E-10  0.0000000E+00 -0.3911813E-03
 -0.5002725E-02  0.0000000E+00 -0.5050505E-02 -0.9607169E-11  0.0000000E+00 -0.3911813E-03
 -0.4992860E-02  0.0000000E+00 -0.5050505E-02 -0.4396168E-10  0.0000000E+00 -0.3911813E-03
 -0.4976523E-02  0.0000000E+00 -0.5050505E-02 -0.8207461E-10  0.0000000E+00 -0.3911813E-03
 -0.4956794E-02  0.0000000E+00 -0.5050505E-02 -0.1240305E-09  0.0000000E+00 -0.3911814E-03
 -0.4937066E-02  0.0000000E+00 -0.5050505E-02 -0.1699268E-09  0.0000000E+00 -0.3911815E-03
 -0.4906239E-02  0.0000000E+00 -0.5050505E-02 -0.2198629E-09  0.0000000E+00 -0.3911816E-03
 -0.4866782E-02  0.0000000E+00 -0.5050505E-02 -0.2739367E-09  0.0000000E+00 -0.3911818E-03
 -0.4827325E-02  0.0000000E+00 -0.5050505E-02 -0.3322541E-09  0.0000000E+00 -0.3911820E-03
 -0.4769372E-02  0.0000000E+00 -0.5050505E-02 -0.3949315E-09  0.0000000E+00 -0.3911823E-03
 -0.4690458E-02  0.0000000E+00 -0.5050505E-02 -0.4620871E-09  0.0000000E+00 -0.3911826E-03
 -0.4611543E-02  0.0000000E+00 -0.5050505E-02 -0.5338345E-09  0.0000000E+00 -0.3911829E-03
 -0.4503035E-02  0.0000000E+00 -0.5050505E-02 -0.6102922E-09  0.0000000E+00 -0.3911833E-03
 -0.4345206E-02  0.0000000E+00 -0.5050505E-02 -0.6915951E-09  0.0000000E+00 -0.3911837E-03
 -0.4187378E-02  0.0000000E+00 -0.5050505E-02 -0.7778938E-09  0.0000000E+00 -0.3911842E-03
 -0.3985156E-02  0.0000000E+00 -0.5050505E-02 -0.8693490E-09  0.0000000E+00 -0.3911848E-03
 -0.3669499E-02  0.0000000E+00 -0.5050505E-02 -0.9661350E-09  0.0000000E+00 -0.3911855E-03
 -0.3353842E-02  0.0000000E+00 -0.5050505E-02 -0.1068450E-08  0.0000000E+00 -0.3911862E-03
 -0.2978990E-02  0.0000000E+00 -0.5050505E-02 -0.1176520E-08  0.0000000E+00 -0.3911869E-03
 -0.2347676E-02  0.0000000E+00 -0.5050505E-02 -0.1290604E-08  0.0000000E+00 -0.3911878E-03
 -0.1716362E-02  0.0000000E+00 -0.5050505E-02 -0.1410995E-08  0.0000000E+00 -0.3911887E-03
 -0.1025842E-02  0.0000000E+00 -0.5050505E-02 -0.1538031E-08  0.0000000E+00 -0.3911898E-03
  0.2367855E-03  0.0000000E+00 -0.5050505E-02 -0.1672102E-08  0.0000000E+00 -0.3911909E-03
  0.1499413E-02  0.0000000E+00 -0.5050505E-02 -0.1813654E-08  0.0000000E+00 -0.3911921E-03
  0.2762042E-02  0.0000000E+00 -0.5050505E-02 -0.1963203E-08  0.0000000E+00 -0.3911934E-03
 -0.5050505E-02  0.0000000E+00 -0.5050505E-02 -0.2121349E-08  0.0000000E+00 -0.3911948E-03
 -0.5050505E-02  0.0000000E+00 -0.5050505E-02 -0.2288784E-08  0.0000000E+00 -0.3911964E-03
 -0.5050505E-02  0.0000000E+00 -0.5050505E-02 -0.2466315E-08  0.0000000E+00 -0.3911980E-03
 -0.5050505E-02  0.0000000E+00 -0.5050505E-02 -0.2654865E-08  0.0000000E+00 -0.3911998E-03
 -0.5050505E-02  0.0000000E+00 -0.5050505E-02 -0.2855509E-08  0.0000000E+00 -0.3912017E-03
 -0.5050505E-02  0.0000000E+00 -0.5050505E-02 -0.3069494E-08  0.0000000E+00 -0.3912038E-03
 -0.5050505E-02  0.0000000E+00 -0.5050505E-02 -0.3298271E-08  0.0000000E+00 -0.3912060E-03
 -0.5050504E-02  0.0000000E+00 -0.5050505E-02 -0.3543524E-08  0.0000000E+00 -0.3912084E-03
 -0.5050501E-02  0.0000000E+00 -0.5050505E-02 -0.3807207E-08  0.0000000E+00 -0.3912109E-03
 -0.5050495E-02  0.0000000E+00 -0.5050505E-02 -0.4091596E-08  0.0000000E+00 -0.3912137E-03
 -0.5050482E-02  0.0000000E+00 -0.5050505E-02 -0.4399352E-08  0.0000000E+00 -0.3912166E-03
 -0.5050449E-02  0.0000000E+00 -0.5050505E-02 -0.4733585E-08  0.0000000E+00 -0.3912198E-03
 -0.5050376E-02  0.0000000E+00 -0.5050505E-02 -0.5097940E-08  0.0000000E+00 -0.3912232E-03
 -0.5050299E-02  0.0000000E+00 -0.5050505E-02 -0.5496700E-08  0.0000000E+00 -0.3912269E-03
 -0.5050178E-02  0.0000000E+00 -0.5050505E-02 -0.5934909E-08  0.0000000E+00 -0.3912309E-03
 -0.5050018E-02  0.0000000E+00 -0.5050505E-02 -0.6418539E-08  0.0000000E+00 -0.3912352E-03
 -0.5049710E-02  0.0000000E+00 -0.5050505E-02 -0.6954675E-08  0.0000000E+00 -0.3912398E-03
 -0.5049253E-02  0.0000000E+00 -0.5050505E-02 -0.7551768E-08  0.0000000E+00 -0.3912448E-03
 -0.5048636E-02  0.0000000E+00 -0.5050505E-02 -0.8219932E-08  0.0000000E+00 -0.3912503E-03
 -0.5047442E-02  0.0000000E+00 -0.5050505E-02 -0.8971338E-08  0.0000000E+00 -0.3912563E-03
 -0.5045727E-02  0.0000000E+00 -0.5050505E-02 -0.9820712E-08  0.0000000E+00 -0.3912628E-03
 -0.5043261E-02  0.0000000E+00 -0.5050505E-02 -0.1078597E-07  0.0000000E+00 -0.3912699E-03
 -0.5038714E-02  0.0000000E+00 -0.5050505E-02 -0.1188906E-07  0.0000000E+00 -0.3912777E-03
 -0.5032318E-02  0.0000000E+00 -0.5050505E-02 -0.1315704E-07  0.0000000E+00 -0.3912864E-03
 -0.5022454E-02  0.0000000E+00 -0.5050505E-02 -0.1462350E-07  0.0000000E+00 -0.3912960E-03
 -0.5012589E-02  0.0000000E+00 -0.5050505E-02 -0.1633051E-07  0.0000000E+00 -0.3913067E-03
 -0.5002725E-02  0.0000000E+00 -0.5050505E-02 -0.1833122E-07  0.0000000E+00 -0.3913186E-03
 -0.4992860E-02  0.0000000E+00 -0.5050505E-02 -0.2069335E-07  0.0000000E+00 -0.3913320E-03
 -0.4976523E-02  0.0000000E+00 -0.5050505E-02 -0.2350413E-07  0.0000000E+00 -0.3913472E-03
 -0.4956794E-02  0.0000000E+00 -0.5050505E-02 -0.2687716E-07  0.0000000E+00 -0.3913645E-03
 -0.4937066E-02  0.0000000E+00 -0.5050505E-02 -0.3096216E-07  0.0000000E+00 -0.3913843E-03
 -0.4906239E-02  0.0000000E+00 -0.5050505E-02 -0.3595915E-07  0.0000000E+00 -0.3914072E-03
 -0.4866782E-02  0.0000000E+00 -0.5050505E-02 -0.4213917E-07  0.0000000E+00 -0.3914338E-03
 -0.4827325E-02  0.0000000E+00 -0.5050505E-02 -0.4987557E-07  0.0000000E+00 -0.3914651E-03
 -0.4769372E-02  0.0000000E+00 -0.5050505E-02 -0.5969185E-07  0.0000000E+00 -0.3915022E-03
 -0.4690458E-02  0.0000000E+00 -0.5050505E-02 -0.7233672E-07  0.0000000E+00 -0.3915467E-03
 -0.4611543E-02  0.0000000E+00 -0.5050505E-02 -0.8890522E-07  0.0000000E+00 -0.3916007E-03
 -0.4503035E-02  0.0000000E+00 -0.5050505E-02 -0.1110395E-06  0.0000000E+00 -0.3916672E-03
 -0.4345206E-02  0.0000000E+00 -0.5050505E-02 -0.1412729E-06  0.0000000E+00 -0.3917504E-03
 -0.4187378E-02  0.0000000E+00 -0.5050505E-02 -0.1836422E-06  0.0000000E+00 -0.3918563E-03
 -0.3985156E-02  0.0000000E+00 -0.5050505E-02 -0.2448209E-06  0.0000000E+00 -0.3919936E-03
 -0.3669499E-02  0.0000000E+00 -0.5050505E-02 -0.3363181E-06  0.0000000E+00 -0.3921755E-03
 -0.3353842E-02  0.0000000E+00 -0.5050505E-02 -0.4789643E-06  0.0000000E+00 -0.3924222E-03
 -0.2978990E-02  0.0000000E+00 -0.5050505E-02 -0.7125881E-06  0.0000000E+00 -0.3927638E-03
 -0.2347676E-02  0.0000000E+00 -0.5050505E-02 -0.1118164E-05  0.0000000E+00 -0.3932430E-03
 -0.1716362E-02  0.0000000E+00 -0.5050505E-02 -0.1871683E-05  0.0000000E+00 -0.3939029E-03
 -0.1025842E-02  0.0000000E+00 -0.5050505E-02 -0.3383220E-05  0.0000000E+00 -0.3946981E-03
  0.2367855E-03  0.0000000E+00 -0.5050505E-02 -0.6675753E-05  0.0000000E+00 -0.3950272E-03
  0.1499413E-02  0.0000000E+00 -0.5050505E-02 -0.1446263E-04  0.0000000E+00 -0.3914818E-03
  0.5287294E-02  0.0000000E+00 -0.5050505E-02 -0.3429361E-04  0.0000000E+00 -0.3672213E-03
 -0.5050505E-02  0.0000000E+00 -0.5050505E-02  0.1427651E-10  0.0000000E+00 -0.3906607E-03
 -0.5050505E-02  0.0000000E+00 -0.5050505E-02  0.4173665E-10  0.0000000E+00 -0.3906607E-03
 -0.5050505E-02  0.0000000E+00 -0.5050505E-02  0.6859672E-10  0.0000000E+00 -0.3906607E-03
 -0.5050505E-02  0.0000000E+00 -0.5050505E-02  0.9487655E-10  0.0000000E+00 -0.3906607E-03
 -0.5050505E-02  0.0000000E+00 -0.5050505E-02  0.1202309E-09  0.0000000E+00 -0.3906606E-03
 -0.5050505E-02  0.0000000E+00 -0.5050505E-02  0.1443877E-09  0.0000000E+00 -0.3906605E-03
 -0.5050504E-02  0.0000000E+00 -0.5050505E-02  0.1670806E-09  0.0000000E+00 -0.3906605E-03
 -0.5050501E-02  0.0000000E+00 -0.5050505E-02  0.1880523E-09  0.0000000E+00 -0.3906604E-03
 -0.5050495E-02  0.0000000E+00 -0.5050505E-02  0.2070574E-09  0.0000000E+00 -0.3906603E-03
 -0.5050482E-02  0.0000000E+00 -0.5050505E-02  0.2238342E-09  0.0000000E+00 -0.3906602E-03
 -0.5050449E-02  0.0000000E+00 -0.5050505E-02  0.2381413E-09  0.0000000E+00 -0.3906601E-03
 -0.5050376E-02  0.0000000E+00 -0.5050505E-02  0.2497248E-09  0.0000000E+00 -0.3906600E-03
 -0.5050299E-02  0.0000000E+00 -0.5050505E-02  0.2583351E-09  0.0000000E+00 -0.3906599E-03
 -0.5050178E-02  0.0000000E+00 -0.5050505E-02  0.2637306E-09  0.0000000E+00 -0.3906598E-03
 -0.5050018E-02  0.0000000E+00 -0.5050505E-02  0.2656671E-09  0.0000000E+00 -0.3906597E-03
 -0.5049710E-02  0.0000000E+00 -0.5050505E-02  0.2639051E-09  0.0000000E+00 -0.3906595E-03
 -0.5049253E-02  0.0000000E+00 -0.5050505E-02  0.2582046E-09  0.0000000E+00 -0.3906594E-03
 -0.5048636E-02  0.0000000E+00 -0.5050505E-02  0.2483323E-09  0.0000000E+00 -0.3906593E-03
 -0.5047442E-02  0.0000000E+00 -0.5050505E-02  0.2340678E-09  0.0000000E+00 -0.3906592E-03
 -0.5045727E-02  0.0000000E+00 -0.5050505E-02  0.2152010E-09  0.0000000E+00 -0.3906591E-03
 -0.5043261E-02  0.0000000E+00 -0.5050505E-02  0.1915162E-09  0.0000000E+00 -0.3906590E-03
 -0.5038714E-02  0.0000000E+00 -0.5050505E-02  0.1627953E-09  0.0000000E+00 -0.3906589E-03
 -0.5032318E-02  0.0000000E+00 -0.5050505E-02  0.1287517E-09  0.0000000E+00 -0.3906588E-03
 -0.5022454E-02  0.0000000E+00 -0.5050505E-02  0.8908047E-10  0.0000000E+00 -0.3906588E-03
 -0.5012589E-02  0.0000000E+00 -0.5050505E-02  0.4386822E-10  0.0000000E+00 -0.3906588E-03
 -0.5002725E-02  0.0000000E+00 -0.5050505E-02 -0.7158951E-11  0.0000000E+00 -0.3906587E-03
 -0.4992860E-02  0.0000000E+00 -0.5050505E-02 -0.6426849E-10  0.0000000E+00 -0.3906587E-03
 -0.4976523E-02  0.0000000E+00 -0.5050505E-02 -0.1276499E-09  0.0000000E+00 -0.3906588E-03
 -0.4956794E-02  0.0000000E+00 -0.5050505E-02 -0.1974364E-09  0.0000000E+00 -0.3906588E-03
 -0.4937066E-02  0.0000000E+00 -0.5050505E-02 -0.2737919E-09  0.0000000E+00 -0.3906589E-03
 -0.4906239E-02  0.0000000E+00 -0.5050505E-02 -0.3568953E-09  0.0000000E+00 -0.3906590E-03
 -0.4866782E-02  0.0000000E+00 -0.5050505E-02 -0.4469165E-09  0.0000000E+00 -0.3906592E-03
 -0.4827325E-02  0.0000000E+00 -0.5050505E-02 -0.5440217E-09  0.0000000E+00 -0.3906594E-03
 -0.4769372E-02  0.0000000E+00 -0.5050505E-02 -0.6483919E-09  0.0000000E+00 -0.3906596E-03
 -0.4690458E-02  0.0000000E+00 -0.5050505E-02 -0.7602249E-09  0.0000000E+00 -0.3906599E-03
 -0.4611543E-02  0.0000000E+00 -0.5050505E-02 -0.8797199E-09  0.0000000E+00 -0.3906602E-03
 -0.4503035E-02  0.0000000E+00 -0.5050505E-02 -0.1007073E-08  0.0000000E+00 -0.3906606E-03
 -0.4345206E-02  0.0000000E+00 -0.5050505E-02 -0.1142497E-08  0.0000000E+00 -0.3906611E-03
 -0.4187378E-02  0.0000000E+00 -0.5050505E-02 -0.1286232E-08  0.0000000E+00 -0.3906616E-03
 -0.3985156E-02  0.0000000E+00 -0.5050505E-02 -0.1438546E-08  0.0000000E+00 -0.3906621E-03
 -0.3669499E-02  0.0000000E+00 -0.5050505E-02 -0.1599730E-08  0.0000000E+00 -0.3906627E-03
 -0.3353842E-02  0.0000000E+00 -0.5050505E-02 -0.1770107E-08  0.0000000E+00 -0.3906634E-03
 -0.2978990E-02  0.0000000E+00 -0.5050505E-02 -0.1950046E-08  0.0000000E+00 -0.3906642E-03
 -0.2347676E-02  0.0000000E+00 -0.5050505E-02 -0.2139967E-08  0.0000000E+00 -0.3906650E-03
 -0.1716362E-02  0.0000000E+00 -0.5050505E-02 -0.2340353E-08  0.0000000E+00 -0.3906660E-03
 -0.1025842E-02  0.0000000E+00 -0.5050505E-02 -0.2551754E-08  0.0000000E+00 -0.3906670E-03
  0.2367855E-03  0.0000000E+00 -0.5050505E-02 -0.2774810E-08  0.0000000E+00 -0.3906681E-03
  0.1499413E-02  0.0000000E+00 -0.5050505E-02 -0.3010257E-08  0.0000000E+00 -0.3906693E-03
  0.2762042E-02  0.0000000E+00 -0.5050505E-02 -0.3258940E-08  0.0000000E+00 -0.3906706E-03
 -0.5050505E-02  0.0000000E+00 -0.5050505E-02 -0.3521838E-08  0.0000000E+00 -0.3906720E-03
 -0.5050505E-02  0.0000000E+00 -0.5050505E-02 -0.3800085E-08  0.0000000E+00 -0.3906735E-03
 -0.5050505E-02  0.0000000E+00 -0.5050505E-02 -0.4095001E-08  0.0000000E+00 -0.3906751E-03
 -0.5050505E-02  0.0000000E+00 -0.5050505E-02 -0.4408111E-08  0.0000000E+00 -0.3906769E-03
 -0.5050505E-02  0.0000000E+00 -0.5050505E-02 -0.4741175E-08  0.0000000E+00 -0.3906788E-03
 -0.5050505E-02  0.0000000E+00 -0.5050505E-02 -0.5096232E-08  0.0000000E+00 -0.3906809E-03
 -0.5050505E-02  0.0000000E+00 -0.5050505E-02 -0.5475660E-08  0.0000000E+00 -0.3906830E-03
 -0.5050504E-02  0.0000000E+00 -0.5050505E-02 -0.5882219E-08  0.0000000E+00 -0.3906854E-03
 -0.5050501E-02  0.0000000E+00 -0.5050505E-02 -0.6319114E-08  0.0000000E+00 -0.3906879E-03
 -0.5050495E-02  0.0000000E+00 -0.5050505E-02 -0.6790075E-08  0.0000000E+00 -0.3906906E-03
 -0.5050482E-02  0.0000000E+00 -0.5050505E-02 -0.7299451E-08  0.0000000E+00 -0.3906936E-03
 -0.5050449E-02  0.0000000E+00 -0.5050505E-02 -0.7852329E-08  0.0000000E+00 -0.3906967E-03
 -0.5050376E-02  0.0000000E+00 -0.5050505E-02 -0.8454668E-08  0.0000000E+00 -0.3907001E-03
 -0.5050299E-02  0.0000000E+00 -0.5050505E-02 -0.9113462E-08  0.0000000E+00 -0.3907037E-03
 -0.5050178E-02  0.0000000E+00 -0.5050505E-02 -0.9836948E-08  0.0000000E+00 -0.3907076E-03
 -0.5050018E-02  0.0000000E+00 -0.5050505E-02 -0.1063486E-07  0.0000000E+00 -0.3907118E-03
 -0.5049710E-02  0.0000000E+00 -0.5050505E-02 -0.1151872E-07  0.0000000E+00 -0.3907164E-03
 -0.5049253E-02  0.0000000E+00 -0.5050505E-02 -0.1250229E-07  0.0000000E+00 -0.3907213E-03
 -0.5048636E-02  0.0000000E+00 -0.5050505E-02 -0.1360199E-07  0.0000000E+00 -0.3907267E-03
 -0.5047442E-02  0.0000000E+00 -0.5050505E-02 -0.1483755E-07  0.0000000E+00 -0.3907325E-03
 -0.5045727E-02  0.0000000E+00 -0.5050505E-02 -0.1623282E-07  0.0000000E+00 -0.3907389E-03
 -0.5043261E-02  0.0000000E+00 -0.5050505E-02 -0.1781674E-07  0.0000000E+00 -0.3907459E-03
 -0.5038714E-02  0.0000000E+00 -0.5050505E-02 -0.1962469E-07  0.0000000E+00 -0.3907535E-03
 -0.5032318E-02  0.0000000E+00 -0.5050505E-02 -0.2170018E-07  0.0000000E+00 -0.3907619E-03
 -0.5022454E-02  0.0000000E+00 -0.5050505E-02 -0.2409712E-07  0.0000000E+00 -0.3907712E-03
 -0.5012589E-02  0.0000000E+00 -0.5050505E-02 -0.2688279E-07  0.0000000E+00 -0.3907815E-03
 -0.5002725E-02  0.0000000E+00 -0.5050505E-02 -0.3014188E-07  0.0000000E+00 -0.3907930E-03
 -0.4992860E-02  0.0000000E+00 -0.5050505E-02 -0.3398194E-07  0.0000000E+00 -0.3908059E-03
 -0.4976523E-02  0.0000000E+00 -0.5050505E-02 -0.3854089E-07  0.0000000E+00 -0.3908204E-03
 -0.4956794E-02  0.0000000E+00 -0.5050505E-02 -0.4399742E-07  0.0000000E+00 -0.3908369E-03
 -0.4937066E-02  0.0000000E+00 -0.5050505E-02 -0.5058574E-07  0.0000000E+00 -0.3908556E-03
 -0.4906239E-02  0.0000000E+00 -0.5050505E-02 -0.5861661E-07  0.0000000E+00 -0.3908770E-03
 -0.4866782E-02  0.0000000E+00 -0.5050505E-02 -0.6850792E-07  0.0000000E+00 -0.3909018E-03
 -0.4827325E-02  0.0000000E+00 -0.5050505E-02 -0.8083005E-07  0.0000000E+00 -0.3909307E-03
 -0.4769372E-02  0.0000000E+00 -0.5050505E-02 -0.9637402E-07  0.0000000E+00 -0.3909645E-03
 -0.4690458E-02  0.0000000E+00 -0.5050505E-02 -0.1162565E-06  0.0000000E+00 -0.3910046E-03
 -0.4611543E-02  0.0000000E+00 -0.5050505E-02 -0.1420846E-06  0.0000000E+00 -0.3910524E-03
 -0.4503035E-02  0.0000000E+00 -0.5050505E-02 -0.1762215E-06  0.0000000E+00 -0.3911100E-03
 -0.4345206E-02  0.0000000E+00 -0.5050505E-02 -0.2222234E-06  0.0000000E+00 -0.3911801E-03
 -0.4187378E-02  0.0000000E+00 -0.5050505E-02 -0.2855810E-06  0.0000000E+00 -0.3912661E-03
 -0.3985156E-02  0.0000000E+00 -0.5050505E-02 -0.3750072E-06  0.0000000E+00 -0.3913724E-03
 -0.3669499E-02  0.0000000E+00 -0.5050505E-02 -0.5047348E-06  0.0000000E+00 -0.3915039E-03
 -0.3353842E-02  0.0000000E+00 -0.5050505E-02 -0.6987035E-06  0.0000000E+00 -0.3916648E-03
 -0.2978990E-02  0.0000000E+00 -0.5050505E-02 -0.9982743E-06  0.0000000E+00 -0.3918542E-03
 -0.2347676E-02  0.0000000E+00 -0.5050505E-02 -0.1476258E-05  0.0000000E+00 -0.3920523E-03
 -0.1716362E-02  0.0000000E+00 -0.5050505E-02 -0.2260574E-05  0.0000000E+00 -0.3921804E-03
 -0.1025842E-02  0.0000000E+00 -0.5050505E-02 -0.3563677E-05  0.0000000E+00 -0.3919936E-03
  0.2367855E-03  0.0000000E+00 -0.5050505E-02 -0.5662203E-05  0.0000000E+00 -0.3908204E-03
  0.1499413E-02  0.0000000E+00 -0.5050505E-02 -0.8499980E-05  0.0000000E+00 -0.3871405E-03
  0.5287294E-02  0.0000000E+00 -0.5050505E-02 -0.9297464E-05  0.0000000E+00 -0.3793349E-03
 -0.5050505E-02  0.0000000E+00 -0.5050505E-02  0.2030682E-10  0.0000000E+00 -0.3898959E-03
 -0.5050505E-02  0.0000000E+00 -0.5050505E-02  0.5966102E-10  0.0000000E+00 -0.3898959E-03
 -0.5050505E-02  0.0000000E+00 -0.5050505E-02  0.9828068E-10  0.0000000E+00 -0.3898959E-03
 -0.5050505E-02  0.0000000E+00 -0.5050505E-02  0.1360335E-09  0.0000000E+00 -0.3898958E-03
 -0.5050505E-02  0.0000000E+00 -0.5050505E-02  0.1724442E-09  0.0000000E+00 -0.3898958E-03
 -0.5050505E-02  0.0000000E+00 -0.5050505E-02  0.2071480E-09  0.0000000E+00 -0.3898957E-03
 -0.5050504E-02  0.0000000E+00 -0.5050505E-02  0.2397900E-09  0.0000000E+00 -0.3898957E-03
 -0.5050501E-02  0.0000000E+00 -0.5050505E-02  0.2700098E-09  0.0000000E+00 -0.3898956E-03
 -0.5050495E-02  0.0000000E+00 -0.5050505E-02  0.2974632E-09  0.0000000E+00 -0.3898955E-03
 -0.5050482E-02  0.0000000E+00 -0.5050505E-02  0.3217849E-09  0.0000000E+00 -0.3898954E-03
 -0.5050449E-02  0.0000000E+00 -0.5050505E-02  0.3426305E-09  0.0000000E+00 -0.3898953E-03
 -0.5050376E-02  0.0000000E+00 -0.5050505E-02  0.3596465E-09  0.0000000E+00 -0.3898952E-03
 -0.5050299E-02  0.0000000E+00 -0.5050505E-02  0.3724819E-09  0.0000000E+00 -0.3898950E-03
 -0.5050178E-02  0.0000000E+00 -0.5050505E-02  0.3807935E-09  0.0000000E+00 -0.3898949E-03
 -0.5050018E-02  0.0000000E+00 -0.5050505E-02  0.3842379E-09  0.0000000E+00 -0.3898948E-03
 -0.5049710E-02  0.0000000E+00 -0.5050505E-02  0.3824818E-09  0.0000000E+00 -0.3898946E-03
 -0.5049253E-02  0.0000000E+00 -0.5050505E-02  0.3751891E-09  0.0000000E+00 -0.3898945E-03
 -0.5048636E-02  0.0000000E+00 -0.5050505E-02  0.3620254E-09  0.0000000E+00 -0.3898944E-03
 -0.5047442E-02  0.0000000E+00 -0.5050505E-02  0.3426810E-09  0.0000000E+00 -0.3898943E-03
 -0.5045727E-02  0.0000000E+00 -0.5050505E-02  0.3168603E-09  0.0000000E+00 -0.3898941E-03
 -0.5043261E-02  0.0000000E+00 -0.5050505E-02  0.2842590E-09  0.0000000E+00 -0.3898940E-03
 -0.5038714E-02  0.0000000E+00 -0.5050505E-02  0.2445783E-09  0.0000000E+00 -0.3898939E-03
 -0.5032318E-02  0.0000000E+00 -0.5050505E-02  0.1973701E-09  0.0000000E+00 -0.3898939E-03
 -0.5022454E-02  0.0000000E+00 -0.5050505E-02  0.1423593E-09  0.0000000E+00 -0.3898938E-03
 -0.5012589E-02  0.0000000E+00 -0.5050505E-02  0.7952533E-10  0.0000000E+00 -0.3898937E-03
 -0.5002725E-02  0.0000000E+00 -0.5050505E-02  0.8440956E-11  0.0000000E+00 -0.3898937E-03
 -0.4992860E-02  0.0000000E+00 -0.5050505E-02 -0.7117675E-10  0.0000000E+00 -0.3898937E-03
 -0.4976523E-02  0.0000000E+00 -0.5050505E-02 -0.1596225E-09  0.0000000E+00 -0.3898937E-03
 -0.4956794E-02  0.0000000E+00 -0.5050505E-02 -0.2570657E-09  0.0000000E+00 -0.3898937E-03
 -0.4937066E-02  0.0000000E+00 -0.5050505E-02 -0.3637143E-09  0.0000000E+00 -0.3898938E-03