title = "dataset feddes"
variables = "x", "y", "z", "vx", "vy", "vz"
zone t = "velocities, solution time =  4.100E+01 days        " i =   99, j =   99, k =    1,  f=point
 -0.5050505E-02  0.0000000E+00 -0.5050505E-02  0.2465919E-08  0.0000000E+00 -0.2395855E-03
 -0.5050505E-02  0.0000000E+00 -0.5050505E-02  0.7391856E-08  0.0000000E+00 -0.2395754E-03
 -0.5050505E-02  0.0000000E+00 -0.5050505E-02  0.1230005E-07  0.0000000E+00 -0.2395551E-03
 -0.5050505E-02  0.0000000E+00 -0.5050505E-02  0.1717863E-07  0.0000000E+00 -0.2395248E-03
 -0.5050505E-02  0.0000000E+00 -0.5050505E-02  0.2201569E-07  0.0000000E+00 -0.2394844E-03
 -0.5050505E-02  0.0000000E+00 -0.5050505E-02  0.2679922E-07  0.0000000E+00 -0.2394342E-03
 -0.5050504E-02  0.0000000E+00 -0.5050505E-02  0.3151713E-07  0.0000000E+00 -0.2393742E-03
 -0.5050501E-02  0.0000000E+00 -0.5050505E-02  0.3615719E-07  0.0000000E+00 -0.2393046E-03
 -0.5050495E-02  0.0000000E+00 -0.5050505E-02  0.4070704E-07  0.0000000E+00 -0.2392255E-03
 -0.5050482E-02  0.0000000E+00 -0.5050505E-02  0.4515416E-07  0.0000000E+00 -0.2391372E-03
 -0.5050449E-02  0.0000000E+00 -0.5050505E-02  0.4948585E-07  0.0000000E+00 -0.2390398E-03
 -0.5050376E-02  0.0000000E+00 -0.5050505E-02  0.5368926E-07  0.0000000E+00 -0.2389337E-03
 -0.5050299E-02  0.0000000E+00 -0.5050505E-02  0.5775130E-07  0.0000000E+00 -0.2388190E-03
 -0.5050178E-02  0.0000000E+00 -0.5050505E-02  0.6165873E-07  0.0000000E+00 -0.2386962E-03
 -0.5050018E-02  0.0000000E+00 -0.5050505E-02  0.6539808E-07  0.0000000E+00 -0.2385655E-03
 -0.5049710E-02  0.0000000E+00 -0.5050505E-02  0.6895571E-07  0.0000000E+00 -0.2384272E-03
 -0.5049253E-02  0.0000000E+00 -0.5050505E-02  0.7231778E-07  0.0000000E+00 -0.2382819E-03
 -0.5048636E-02  0.0000000E+00 -0.5050505E-02  0.7547029E-07  0.0000000E+00 -0.2381299E-03
 -0.5047442E-02  0.0000000E+00 -0.5050505E-02  0.7839911E-07  0.0000000E+00 -0.2379716E-03
 -0.5045727E-02  0.0000000E+00 -0.5050505E-02  0.8108995E-07  0.0000000E+00 -0.2378075E-03
 -0.5043261E-02  0.0000000E+00 -0.5050505E-02  0.8352849E-07  0.0000000E+00 -0.2376382E-03
 -0.5038714E-02  0.0000000E+00 -0.5050505E-02  0.8570034E-07  0.0000000E+00 -0.2374641E-03
 -0.5032318E-02  0.0000000E+00 -0.5050505E-02  0.8759114E-07  0.0000000E+00 -0.2372859E-03
 -0.5022454E-02  0.0000000E+00 -0.5050505E-02  0.8918663E-07  0.0000000E+00 -0.2371041E-03
 -0.5012589E-02  0.0000000E+00 -0.5050505E-02  0.9047272E-07  0.0000000E+00 -0.2369193E-03
 -0.5002725E-02  0.0000000E+00 -0.5050505E-02  0.9143558E-07  0.0000000E+00 -0.2367322E-03
 -0.4992860E-02  0.0000000E+00 -0.5050505E-02  0.9206180E-07  0.0000000E+00 -0.2365434E-03
 -0.4976523E-02  0.0000000E+00 -0.5050505E-02  0.9233846E-07  0.0000000E+00 -0.2363538E-03
 -0.4956794E-02  0.0000000E+00 -0.5050505E-02  0.9225333E-07  0.0000000E+00 -0.2361639E-03
 -0.4937066E-02  0.0000000E+00 -0.5050505E-02  0.9179504E-07  0.0000000E+00 -0.2359747E-03
 -0.4906239E-02  0.0000000E+00 -0.5050505E-02  0.9095329E-07  0.0000000E+00 -0.2357867E-03
 -0.4866782E-02  0.0000000E+00 -0.5050505E-02  0.8971906E-07  0.0000000E+00 -0.2356009E-03
 -0.4827325E-02  0.0000000E+00 -0.5050505E-02  0.8808487E-07  0.0000000E+00 -0.2354181E-03
 -0.4769372E-02  0.0000000E+00 -0.5050505E-02  0.8604510E-07  0.0000000E+00 -0.2352390E-03
 -0.4690458E-02  0.0000000E+00 -0.5050505E-02  0.8359622E-07  0.0000000E+00 -0.2350645E-03
 -0.4611543E-02  0.0000000E+00 -0.5050505E-02  0.8073719E-07  0.0000000E+00 -0.2348956E-03
 -0.4503035E-02  0.0000000E+00 -0.5050505E-02  0.7746970E-07  0.0000000E+00 -0.2347329E-03
 -0.4345206E-02  0.0000000E+00 -0.5050505E-02  0.7379857E-07  0.0000000E+00 -0.2345773E-03
 -0.4187378E-02  0.0000000E+00 -0.5050505E-02  0.6973201E-07  0.0000000E+00 -0.2344297E-03
 -0.3985156E-02  0.0000000E+00 -0.5050505E-02  0.6528190E-07  0.0000000E+00 -0.2342909E-03
 -0.3669499E-02  0.0000000E+00 -0.5050505E-02  0.6046402E-07  0.0000000E+00 -0.2341616E-03
 -0.3353842E-02  0.0000000E+00 -0.5050505E-02  0.5529821E-07  0.0000000E+00 -0.2340426E-03
 -0.2978990E-02  0.0000000E+00 -0.5050505E-02  0.4980840E-07  0.0000000E+00 -0.2339345E-03
 -0.2347676E-02  0.0000000E+00 -0.5050505E-02  0.4402259E-07  0.0000000E+00 -0.2338380E-03
 -0.1716362E-02  0.0000000E+00 -0.5050505E-02  0.3797263E-07  0.0000000E+00 -0.2337537E-03
 -0.1025842E-02  0.0000000E+00 -0.5050505E-02  0.3169397E-07  0.0000000E+00 -0.2336821E-03
  0.2367855E-03  0.0000000E+00 -0.5050505E-02  0.2522520E-07  0.0000000E+00 -0.2336236E-03
  0.1499413E-02  0.0000000E+00 -0.5050505E-02  0.1860751E-07  0.0000000E+00 -0.2335785E-03
  0.2762042E-02  0.0000000E+00 -0.5050505E-02  0.1188405E-07  0.0000000E+00 -0.2335472E-03
 -0.5050505E-02  0.0000000E+00 -0.5050505E-02  0.5099210E-08  0.0000000E+00 -0.2335297E-03
 -0.5050505E-02  0.0000000E+00 -0.5050505E-02 -0.1702107E-08  0.0000000E+00 -0.2335262E-03
 -0.5050505E-02  0.0000000E+00 -0.5050505E-02 -0.8475254E-08  0.0000000E+00 -0.2335367E-03
 -0.5050505E-02  0.0000000E+00 -0.5050505E-02 -0.1517657E-07  0.0000000E+00 -0.2335610E-03
 -0.5050505E-02  0.0000000E+00 -0.5050505E-02 -0.2176401E-07  0.0000000E+00 -0.2335990E-03
 -0.5050505E-02  0.0000000E+00 -0.5050505E-02 -0.2819778E-07  0.0000000E+00 -0.2336503E-03
 -0.5050505E-02  0.0000000E+00 -0.5050505E-02 -0.3444071E-07  0.0000000E+00 -0.2337147E-03
 -0.5050504E-02  0.0000000E+00 -0.5050505E-02 -0.4045868E-07  0.0000000E+00 -0.2337917E-03
 -0.5050501E-02  0.0000000E+00 -0.5050505E-02 -0.4622082E-07  0.0000000E+00 -0.2338809E-03
 -0.5050495E-02  0.0000000E+00 -0.5050505E-02 -0.5169973E-07  0.0000000E+00 -0.2339816E-03
 -0.5050482E-02  0.0000000E+00 -0.5050505E-02 -0.5687146E-07  0.0000000E+00 -0.2340932E-03
 -0.5050449E-02  0.0000000E+00 -0.5050505E-02 -0.6171555E-07  0.0000000E+00 -0.2342151E-03
 -0.5050376E-02  0.0000000E+00 -0.5050505E-02 -0.6621498E-07  0.0000000E+00 -0.2343467E-03
 -0.5050299E-02  0.0000000E+00 -0.5050505E-02 -0.7035602E-07  0.0000000E+00 -0.2344871E-03
 -0.5050178E-02  0.0000000E+00 -0.5050505E-02 -0.7412815E-07  0.0000000E+00 -0.2346357E-03
 -0.5050018E-02  0.0000000E+00 -0.5050505E-02 -0.7752389E-07  0.0000000E+00 -0.2347916E-03
 -0.5049710E-02  0.0000000E+00 -0.5050505E-02 -0.8053868E-07  0.0000000E+00 -0.2349541E-03
 -0.5049253E-02  0.0000000E+00 -0.5050505E-02 -0.8317069E-07  0.0000000E+00 -0.2351225E-03
 -0.5048636E-02  0.0000000E+00 -0.5050505E-02 -0.8542079E-07  0.0000000E+00 -0.2352959E-03
 -0.5047442E-02  0.0000000E+00 -0.5050505E-02 -0.8729234E-07  0.0000000E+00 -0.2354735E-03
 -0.5045727E-02  0.0000000E+00 -0.5050505E-02 -0.8879122E-07  0.0000000E+00 -0.2356546E-03
 -0.5043261E-02  0.0000000E+00 -0.5050505E-02 -0.8992569E-07  0.0000000E+00 -0.2358383E-03
 -0.5038714E-02  0.0000000E+00 -0.5050505E-02 -0.9070650E-07  0.0000000E+00 -0.2360241E-03
 -0.5032318E-02  0.0000000E+00 -0.5050505E-02 -0.9114688E-07  0.0000000E+00 -0.2362111E-03
 -0.5022454E-02  0.0000000E+00 -0.5050505E-02 -0.9126273E-07  0.0000000E+00 -0.2363987E-03
 -0.5012589E-02  0.0000000E+00 -0.5050505E-02 -0.9107290E-07  0.0000000E+00 -0.2365863E-03
 -0.5002725E-02  0.0000000E+00 -0.5050505E-02 -0.9059958E-07  0.0000000E+00 -0.2367731E-03
 -0.4992860E-02  0.0000000E+00 -0.5050505E-02 -0.8986892E-07  0.0000000E+00 -0.2369588E-03
 -0.4976523E-02  0.0000000E+00 -0.5050505E-02 -0.8891203E-07  0.0000000E+00 -0.2371426E-03
 -0.4956794E-02  0.0000000E+00 -0.5050505E-02 -0.8776626E-07  0.0000000E+00 -0.2373244E-03
 -0.4937066E-02  0.0000000E+00 -0.5050505E-02 -0.8647731E-07  0.0000000E+00 -0.2375036E-03
 -0.4906239E-02  0.0000000E+00 -0.5050505E-02 -0.8510219E-07  0.0000000E+00 -0.2376801E-03
 -0.4866782E-02  0.0000000E+00 -0.5050505E-02 -0.8371372E-07  0.0000000E+00 -0.2378537E-03
 -0.4827325E-02  0.0000000E+00 -0.5050505E-02 -0.8240738E-07  0.0000000E+00 -0.2380246E-03
 -0.4769372E-02  0.0000000E+00 -0.5050505E-02 -0.8131200E-07  0.0000000E+00 -0.2381930E-03
 -0.4690458E-02  0.0000000E+00 -0.5050505E-02 -0.8060667E-07  0.0000000E+00 -0.2383596E-03
 -0.4611543E-02  0.0000000E+00 -0.5050505E-02 -0.8054843E-07  0.0000000E+00 -0.2385254E-03
 -0.4503035E-02  0.0000000E+00 -0.5050505E-02 -0.8151899E-07  0.0000000E+00 -0.2386921E-03
 -0.4345206E-02  0.0000000E+00 -0.5050505E-02 -0.8410635E-07  0.0000000E+00 -0.2388625E-03
 -0.4187378E-02  0.0000000E+00 -0.5050505E-02 -0.8925354E-07  0.0000000E+00 -0.2390409E-03
 -0.3985156E-02  0.0000000E+00 -0.5050505E-02 -0.9854320E-07  0.0000000E+00 -0.2392341E-03
 -0.3669499E-02  0.0000000E+00 -0.5050505E-02 -0.1147730E-06  0.0000000E+00 -0.2394535E-03
 -0.3353842E-02  0.0000000E+00 -0.5050505E-02 -0.1431981E-06  0.0000000E+00 -0.2397189E-03
 -0.2978990E-02  0.0000000E+00 -0.5050505E-02 -0.1944204E-06  0.0000000E+00 -0.2400663E-03
 -0.2347676E-02  0.0000000E+00 -0.5050505E-02 -0.2917008E-06  0.0000000E+00 -0.2405665E-03
 -0.1716362E-02  0.0000000E+00 -0.5050505E-02 -0.4912417E-06  0.0000000E+00 -0.2413722E-03
 -0.1025842E-02  0.0000000E+00 -0.5050505E-02 -0.9440559E-06  0.0000000E+00 -0.2428492E-03
  0.2367855E-03  0.0000000E+00 -0.5050505E-02 -0.2103055E-05  0.0000000E+00 -0.2459856E-03
  0.1499413E-02  0.0000000E+00 -0.5050505E-02 -0.5477930E-05  0.0000000E+00 -0.2537920E-03
  0.5287294E-02  0.0000000E+00 -0.5050505E-02 -0.8949444E-04  0.0000000E+00 -0.2025878E-03
 -0.5050505E-02  0.0000000E+00 -0.5050505E-02  0.7408415E-08  0.0000000E+00 -0.2394314E-03
 -0.5050505E-02  0.0000000E+00 -0.5050505E-02  0.2220754E-07  0.0000000E+00 -0.2394212E-03
 -0.5050505E-02  0.0000000E+00 -0.5050505E-02  0.3695345E-07  0.0000000E+00 -0.2394008E-03
 -0.5050505E-02  0.0000000E+00 -0.5050505E-02  0.5161056E-07  0.0000000E+00 -0.2393703E-03
 -0.5050505E-02  0.0000000E+00 -0.5050505E-02  0.6614311E-07  0.0000000E+00 -0.2393297E-03
 -0.5050505E-02  0.0000000E+00 -0.5050505E-02  0.8051512E-07  0.0000000E+00 -0.2392791E-03
 -0.5050504E-02  0.0000000E+00 -0.5050505E-02  0.9469028E-07  0.0000000E+00 -0.2392187E-03
 -0.5050501E-02  0.0000000E+00 -0.5050505E-02  0.1086319E-06  0.0000000E+00 -0.2391487E-03
 -0.5050495E-02  0.0000000E+00 -0.5050505E-02  0.1223030E-06  0.0000000E+00 -0.2390691E-03
 -0.5050482E-02  0.0000000E+00 -0.5050505E-02  0.1356659E-06  0.0000000E+00 -0.2389801E-03
 -0.5050449E-02  0.0000000E+00 -0.5050505E-02  0.1486825E-06  0.0000000E+00 -0.2388821E-03
 -0.5050376E-02  0.0000000E+00 -0.5050505E-02  0.1613142E-06  0.0000000E+00 -0.2387752E-03
 -0.5050299E-02  0.0000000E+00 -0.5050505E-02  0.1735219E-06  0.0000000E+00 -0.2386598E-03
 -0.5050178E-02  0.0000000E+00 -0.5050505E-02  0.1852656E-06  0.0000000E+00 -0.2385361E-03
 -0.5050018E-02  0.0000000E+00 -0.5050505E-02  0.1965050E-06  0.0000000E+00 -0.2384045E-03
 -0.5049710E-02  0.0000000E+00 -0.5050505E-02  0.2071991E-06  0.0000000E+00 -0.2382653E-03
 -0.5049253E-02  0.0000000E+00 -0.5050505E-02  0.2173064E-06  0.0000000E+00 -0.2381190E-03
 -0.5048636E-02  0.0000000E+00 -0.5050505E-02  0.2267849E-06  0.0000000E+00 -0.2379659E-03
 -0.5047442E-02  0.0000000E+00 -0.5050505E-02  0.2355919E-06  0.0000000E+00 -0.2378065E-03
 -0.5045727E-02  0.0000000E+00 -0.5050505E-02  0.2436847E-06  0.0000000E+00 -0.2376412E-03
 -0.5043261E-02  0.0000000E+00 -0.5050505E-02  0.2510202E-06  0.0000000E+00 -0.2374706E-03
 -0.5038714E-02  0.0000000E+00 -0.5050505E-02  0.2575551E-06  0.0000000E+00 -0.2372953E-03
 -0.5032318E-02  0.0000000E+00 -0.5050505E-02  0.2632462E-06  0.0000000E+00 -0.2371157E-03
 -0.5022454E-02  0.0000000E+00 -0.5050505E-02  0.2680506E-06  0.0000000E+00 -0.2369325E-03
 -0.5012589E-02  0.0000000E+00 -0.5050505E-02  0.2719260E-06  0.0000000E+00 -0.2367462E-03
 -0.5002725E-02  0.0000000E+00 -0.5050505E-02  0.2748306E-06  0.0000000E+00 -0.2365577E-03
 -0.4992860E-02  0.0000000E+00 -0.5050505E-02  0.2767241E-06  0.0000000E+00 -0.2363674E-03
 -0.4976523E-02  0.0000000E+00 -0.5050505E-02  0.2775676E-06  0.0000000E+00 -0.2361763E-03
 -0.4956794E-02  0.0000000E+00 -0.5050505E-02  0.2773240E-06  0.0000000E+00 -0.2359848E-03
 -0.4937066E-02  0.0000000E+00 -0.5050505E-02  0.2759591E-06  0.0000000E+00 -0.2357940E-03
 -0.4906239E-02  0.0000000E+00 -0.5050505E-02  0.2734416E-06  0.0000000E+00 -0.2356044E-03
 -0.4866782E-02  0.0000000E+00 -0.5050505E-02  0.2697443E-06  0.0000000E+00 -0.2354170E-03
 -0.4827325E-02  0.0000000E+00 -0.5050505E-02  0.2648443E-06  0.0000000E+00 -0.2352326E-03
 -0.4769372E-02  0.0000000E+00 -0.5050505E-02  0.2587245E-06  0.0000000E+00 -0.2350519E-03
 -0.4690458E-02  0.0000000E+00 -0.5050505E-02  0.2513739E-06  0.0000000E+00 -0.2348758E-03
 -0.4611543E-02  0.0000000E+00 -0.5050505E-02  0.2427891E-06  0.0000000E+00 -0.2347053E-03
 -0.4503035E-02  0.0000000E+00 -0.5050505E-02  0.2329748E-06  0.0000000E+00 -0.2345411E-03
 -0.4345206E-02  0.0000000E+00 -0.5050505E-02  0.2219451E-06  0.0000000E+00 -0.2343840E-03
 -0.4187378E-02  0.0000000E+00 -0.5050505E-02  0.2097245E-06  0.0000000E+00 -0.2342350E-03
 -0.3985156E-02  0.0000000E+00 -0.5050505E-02  0.1963483E-06  0.0000000E+00 -0.2340948E-03
 -0.3669499E-02  0.0000000E+00 -0.5050505E-02  0.1818638E-06  0.0000000E+00 -0.2339642E-03
 -0.3353842E-02  0.0000000E+00 -0.5050505E-02  0.1663306E-06  0.0000000E+00 -0.2338440E-03
 -0.2978990E-02  0.0000000E+00 -0.5050505E-02  0.1498204E-06  0.0000000E+00 -0.2337349E-03
 -0.2347676E-02  0.0000000E+00 -0.5050505E-02  0.1324176E-06  0.0000000E+00 -0.2336374E-03
 -0.1716362E-02  0.0000000E+00 -0.5050505E-02  0.1142181E-06  0.0000000E+00 -0.2335522E-03
 -0.1025842E-02  0.0000000E+00 -0.5050505E-02  0.9532884E-07  0.0000000E+00 -0.2334799E-03
  0.2367855E-03  0.0000000E+00 -0.5050505E-02  0.7586620E-07  0.0000000E+00 -0.2334208E-03
  0.1499413E-02  0.0000000E+00 -0.5050505E-02  0.5595454E-07  0.0000000E+00 -0.2333753E-03
  0.2762042E-02  0.0000000E+00 -0.5050505E-02  0.3572415E-07  0.0000000E+00 -0.2333437E-03
 -0.5050505E-02  0.0000000E+00 -0.5050505E-02  0.1530910E-07  0.0000000E+00 -0.2333261E-03
 -0.5050505E-02  0.0000000E+00 -0.5050505E-02 -0.5155042E-08  0.0000000E+00 -0.2333226E-03
 -0.5050505E-02  0.0000000E+00 -0.5050505E-02 -0.2553349E-07  0.0000000E+00 -0.2333333E-03
 -0.5050505E-02  0.0000000E+00 -0.5050505E-02 -0.4569448E-07  0.0000000E+00 -0.2333579E-03
 -0.5050505E-02  0.0000000E+00 -0.5050505E-02 -0.6551124E-07  0.0000000E+00 -0.2333964E-03
 -0.5050505E-02  0.0000000E+00 -0.5050505E-02 -0.8486374E-07  0.0000000E+00 -0.2334484E-03
 -0.5050505E-02  0.0000000E+00 -0.5050505E-02 -0.1036401E-06  0.0000000E+00 -0.2335135E-03
 -0.5050504E-02  0.0000000E+00 -0.5050505E-02 -0.1217375E-06  0.0000000E+00 -0.2335914E-03
 -0.5050501E-02  0.0000000E+00 -0.5050505E-02 -0.1390633E-06  0.0000000E+00 -0.2336815E-03
 -0.5050495E-02  0.0000000E+00 -0.5050505E-02 -0.1555351E-06  0.0000000E+00 -0.2337833E-03
 -0.5050482E-02  0.0000000E+00 -0.5050505E-02 -0.1710809E-06  0.0000000E+00 -0.2338961E-03
 -0.5050449E-02  0.0000000E+00 -0.5050505E-02 -0.1856395E-06  0.0000000E+00 -0.2340193E-03
 -0.5050376E-02  0.0000000E+00 -0.5050505E-02 -0.1991598E-06  0.0000000E+00 -0.2341521E-03
 -0.5050299E-02  0.0000000E+00 -0.5050505E-02 -0.2116008E-06  0.0000000E+00 -0.2342939E-03
 -0.5050178E-02  0.0000000E+00 -0.5050505E-02 -0.2229311E-06  0.0000000E+00 -0.2344439E-03
 -0.5050018E-02  0.0000000E+00 -0.5050505E-02 -0.2331283E-06  0.0000000E+00 -0.2346014E-03
 -0.5049710E-02  0.0000000E+00 -0.5050505E-02 -0.2421790E-06  0.0000000E+00 -0.2347654E-03
 -0.5049253E-02  0.0000000E+00 -0.5050505E-02 -0.2500777E-06  0.0000000E+00 -0.2349353E-03
 -0.5048636E-02  0.0000000E+00 -0.5050505E-02 -0.2568273E-06  0.0000000E+00 -0.2351102E-03
 -0.5047442E-02  0.0000000E+00 -0.5050505E-02 -0.2624378E-06  0.0000000E+00 -0.2352894E-03
 -0.5045727E-02  0.0000000E+00 -0.5050505E-02 -0.2669270E-06  0.0000000E+00 -0.2354720E-03
 -0.5043261E-02  0.0000000E+00 -0.5050505E-02 -0.2703196E-06  0.0000000E+00 -0.2356573E-03
 -0.5038714E-02  0.0000000E+00 -0.5050505E-02 -0.2726479E-06  0.0000000E+00 -0.2358446E-03
 -0.5032318E-02  0.0000000E+00 -0.5050505E-02 -0.2739515E-06  0.0000000E+00 -0.2360331E-03
 -0.5022454E-02  0.0000000E+00 -0.5050505E-02 -0.2742777E-06  0.0000000E+00 -0.2362221E-03
 -0.5012589E-02  0.0000000E+00 -0.5050505E-02 -0.2736828E-06  0.0000000E+00 -0.2364110E-03
 -0.5002725E-02  0.0000000E+00 -0.5050505E-02 -0.2722327E-06  0.0000000E+00 -0.2365992E-03
 -0.4992860E-02  0.0000000E+00 -0.5050505E-02 -0.2700050E-06  0.0000000E+00 -0.2367861E-03
 -0.4976523E-02  0.0000000E+00 -0.5050505E-02 -0.2670915E-06  0.0000000E+00 -0.2369712E-03
 -0.4956794E-02  0.0000000E+00 -0.5050505E-02 -0.2636025E-06  0.0000000E+00 -0.2371540E-03
 -0.4937066E-02  0.0000000E+00 -0.5050505E-02 -0.2596719E-06  0.0000000E+00 -0.2373342E-03
 -0.4906239E-02  0.0000000E+00 -0.5050505E-02 -0.2554664E-06  0.0000000E+00 -0.2375114E-03
 -0.4866782E-02  0.0000000E+00 -0.5050505E-02 -0.2511977E-06  0.0000000E+00 -0.2376857E-03
 -0.4827325E-02  0.0000000E+00 -0.5050505E-02 -0.2471416E-06  0.0000000E+00 -0.2378569E-03
 -0.4769372E-02  0.0000000E+00 -0.5050505E-02 -0.2436678E-06  0.0000000E+00 -0.2380254E-03
 -0.4690458E-02  0.0000000E+00 -0.5050505E-02 -0.2412863E-06  0.0000000E+00 -0.2381915E-03
 -0.4611543E-02  0.0000000E+00 -0.5050505E-02 -0.2407221E-06  0.0000000E+00 -0.2383561E-03
 -0.4503035E-02  0.0000000E+00 -0.5050505E-02 -0.2430400E-06  0.0000000E+00 -0.2385207E-03
 -0.4345206E-02  0.0000000E+00 -0.5050505E-02 -0.2498578E-06  0.0000000E+00 -0.2386874E-03
 -0.4187378E-02  0.0000000E+00 -0.5050505E-02 -0.2637252E-06  0.0000000E+00 -0.2388594E-03
 -0.3985156E-02  0.0000000E+00 -0.5050505E-02 -0.2888262E-06  0.0000000E+00 -0.2390419E-03
 -0.3669499E-02  0.0000000E+00 -0.5050505E-02 -0.3323385E-06  0.0000000E+00 -0.2392425E-03
 -0.3353842E-02  0.0000000E+00 -0.5050505E-02 -0.4072032E-06  0.0000000E+00 -0.2394732E-03
 -0.2978990E-02  0.0000000E+00 -0.5050505E-02 -0.5380876E-06  0.0000000E+00 -0.2397518E-03
 -0.2347676E-02  0.0000000E+00 -0.5050505E-02 -0.7749926E-06  0.0000000E+00 -0.2401036E-03
 -0.1716362E-02  0.0000000E+00 -0.5050505E-02 -0.1226228E-05  0.0000000E+00 -0.2405535E-03
 -0.1025842E-02  0.0000000E+00 -0.5050505E-02 -0.2143130E-05  0.0000000E+00 -0.2410703E-03
  0.2367855E-03  0.0000000E+00 -0.5050505E-02 -0.4149482E-05  0.0000000E+00 -0.2412827E-03
  0.1499413E-02  0.0000000E+00 -0.5050505E-02 -0.8889489E-05  0.0000000E+00 -0.2391228E-03
  0.5287294E-02  0.0000000E+00 -0.5050505E-02 -0.2090418E-04  0.0000000E+00 -0.2244745E-03
 -0.5050505E-02  0.0000000E+00 -0.5050505E-02  0.1238789E-07  0.0000000E+00 -0.2391281E-03
 -0.5050505E-02  0.0000000E+00 -0.5050505E-02  0.3713417E-07  0.0000000E+00 -0.2391178E-03
 -0.5050505E-02  0.0000000E+00 -0.5050505E-02  0.6179176E-07  0.0000000E+00 -0.2390971E-03
 -0.5050505E-02  0.0000000E+00 -0.5050505E-02  0.8630136E-07  0.0000000E+00 -0.2390662E-03
 -0.5050505E-02  0.0000000E+00 -0.5050505E-02  0.1106034E-06  0.0000000E+00 -0.2390251E-03
 -0.5050505E-02  0.0000000E+00 -0.5050505E-02  0.1346378E-06  0.0000000E+00 -0.2389739E-03
 -0.5050504E-02  0.0000000E+00 -0.5050505E-02  0.1583441E-06  0.0000000E+00 -0.2389127E-03
 -0.5050501E-02  0.0000000E+00 -0.5050505E-02  0.1816612E-06  0.0000000E+00 -0.2388417E-03
 -0.5050495E-02  0.0000000E+00 -0.5050505E-02  0.2045271E-06  0.0000000E+00 -0.2387611E-03
 -0.5050482E-02  0.0000000E+00 -0.5050505E-02  0.2268794E-06  0.0000000E+00 -0.2386710E-03
 -0.5050449E-02  0.0000000E+00 -0.5050505E-02  0.2486543E-06  0.0000000E+00 -0.2385717E-03
 -0.5050376E-02  0.0000000E+00 -0.5050505E-02  0.2697875E-06  0.0000000E+00 -0.2384634E-03
 -0.5050299E-02  0.0000000E+00 -0.5050505E-02  0.2902134E-06  0.0000000E+00 -0.2383464E-03
 -0.5050178E-02  0.0000000E+00 -0.5050505E-02  0.3098657E-06  0.0000000E+00 -0.2382210E-03
 -0.5050018E-02  0.0000000E+00 -0.5050505E-02  0.3286770E-06  0.0000000E+00 -0.2380876E-03
 -0.5049710E-02  0.0000000E+00 -0.5050505E-02  0.3465786E-06  0.0000000E+00 -0.2379465E-03
 -0.5049253E-02  0.0000000E+00 -0.5050505E-02  0.3635013E-06  0.0000000E+00 -0.2377982E-03
 -0.5048636E-02  0.0000000E+00 -0.5050505E-02  0.3793748E-06  0.0000000E+00 -0.2376429E-03
 -0.5047442E-02  0.0000000E+00 -0.5050505E-02  0.3941279E-06  0.0000000E+00 -0.2374812E-03
 -0.5045727E-02  0.0000000E+00 -0.5050505E-02  0.4076891E-06  0.0000000E+00 -0.2373136E-03
 -0.5043261E-02  0.0000000E+00 -0.5050505E-02  0.4199862E-06  0.0000000E+00 -0.2371406E-03
 -0.5038714E-02  0.0000000E+00 -0.5050505E-02  0.4309467E-06  0.0000000E+00 -0.2369626E-03
 -0.5032318E-02  0.0000000E+00 -0.5050505E-02  0.4404983E-06  0.0000000E+00 -0.2367804E-03
 -0.5022454E-02  0.0000000E+00 -0.5050505E-02  0.4485691E-06  0.0000000E+00 -0.2365944E-03
 -0.5012589E-02  0.0000000E+00 -0.5050505E-02  0.4550879E-06  0.0000000E+00 -0.2364053E-03
 -0.5002725E-02  0.0000000E+00 -0.5050505E-02  0.4599848E-06  0.0000000E+00 -0.2362138E-03
 -0.4992860E-02  0.0000000E+00 -0.5050505E-02  0.4631918E-06  0.0000000E+00 -0.2360206E-03
 -0.4976523E-02  0.0000000E+00 -0.5050505E-02  0.4646432E-06  0.0000000E+00 -0.2358263E-03
 -0.4956794E-02  0.0000000E+00 -0.5050505E-02  0.4642769E-06  0.0000000E+00 -0.2356318E-03
 -0.4937066E-02  0.0000000E+00 -0.5050505E-02  0.4620347E-06  0.0000000E+00 -0.2354378E-03
 -0.4906239E-02  0.0000000E+00 -0.5050505E-02  0.4578636E-06  0.0000000E+00 -0.2352451E-03
 -0.4866782E-02  0.0000000E+00 -0.5050505E-02  0.4517172E-06  0.0000000E+00 -0.2350544E-03
 -0.4827325E-02  0.0000000E+00 -0.5050505E-02  0.4435564E-06  0.0000000E+00 -0.2348668E-03
 -0.4769372E-02  0.0000000E+00 -0.5050505E-02  0.4333514E-06  0.0000000E+00 -0.2346829E-03
 -0.4690458E-02  0.0000000E+00 -0.5050505E-02  0.4210828E-06  0.0000000E+00 -0.2345037E-03
 -0.4611543E-02  0.0000000E+00 -0.5050505E-02  0.4067437E-06  0.0000000E+00 -0.2343300E-03
 -0.4503035E-02  0.0000000E+00 -0.5050505E-02  0.3903409E-06  0.0000000E+00 -0.2341627E-03
 -0.4345206E-02  0.0000000E+00 -0.5050505E-02  0.3718968E-06  0.0000000E+00 -0.2340027E-03
 -0.4187378E-02  0.0000000E+00 -0.5050505E-02  0.3514512E-06  0.0000000E+00 -0.2338508E-03
 -0.3985156E-02  0.0000000E+00 -0.5050505E-02  0.3290626E-06  0.0000000E+00 -0.2337079E-03
 -0.3669499E-02  0.0000000E+00 -0.5050505E-02  0.3048092E-06  0.0000000E+00 -0.2335747E-03
 -0.3353842E-02  0.0000000E+00 -0.5050505E-02  0.2787902E-06  0.0000000E+00 -0.2334521E-03
 -0.2978990E-02  0.0000000E+00 -0.5050505E-02  0.2511260E-06  0.0000000E+00 -0.2333408E-03
 -0.2347676E-02  0.0000000E+00 -0.5050505E-02  0.2219578E-06  0.0000000E+00 -0.2332414E-03
 -0.1716362E-02  0.0000000E+00 -0.5050505E-02  0.1914470E-06  0.0000000E+00 -0.2331545E-03
 -0.1025842E-02  0.0000000E+00 -0.5050505E-02  0.1597736E-06  0.0000000E+00 -0.2330807E-03
  0.2367855E-03  0.0000000E+00 -0.5050505E-02  0.1271339E-06  0.0000000E+00 -0.2330204E-03
  0.1499413E-02  0.0000000E+00 -0.5050505E-02  0.9373791E-07  0.0000000E+00 -0.2329741E-03
  0.2762042E-02  0.0000000E+00 -0.5050505E-02  0.5980571E-07  0.0000000E+00 -0.2329419E-03
 -0.5050505E-02  0.0000000E+00 -0.5050505E-02  0.2556381E-07  0.0000000E+00 -0.2329240E-03
 -0.5050505E-02  0.0000000E+00 -0.5050505E-02 -0.8758760E-08  0.0000000E+00 -0.2329206E-03
 -0.5050505E-02  0.0000000E+00 -0.5050505E-02 -0.4293442E-07  0.0000000E+00 -0.2329317E-03
 -0.5050505E-02  0.0000000E+00 -0.5050505E-02 -0.7674087E-07  0.0000000E+00 -0.2329570E-03
 -0.5050505E-02  0.0000000E+00 -0.5050505E-02 -0.1099644E-06  0.0000000E+00 -0.2329964E-03
 -0.5050505E-02  0.0000000E+00 -0.5050505E-02 -0.1424031E-06  0.0000000E+00 -0.2330496E-03
 -0.5050505E-02  0.0000000E+00 -0.5050505E-02 -0.1738687E-06  0.0000000E+00 -0.2331163E-03
 -0.5050504E-02  0.0000000E+00 -0.5050505E-02 -0.2041890E-06  0.0000000E+00 -0.2331959E-03
 -0.5050501E-02  0.0000000E+00 -0.5050505E-02 -0.2332084E-06  0.0000000E+00 -0.2332880E-03
 -0.5050495E-02  0.0000000E+00 -0.5050505E-02 -0.2607893E-06  0.0000000E+00 -0.2333919E-03
 -0.5050482E-02  0.0000000E+00 -0.5050505E-02 -0.2868117E-06  0.0000000E+00 -0.2335070E-03
 -0.5050449E-02  0.0000000E+00 -0.5050505E-02 -0.3111734E-06  0.0000000E+00 -0.2336327E-03
 -0.5050376E-02  0.0000000E+00 -0.5050505E-02 -0.3337898E-06  0.0000000E+00 -0.2337683E-03
 -0.5050299E-02  0.0000000E+00 -0.5050505E-02 -0.3545927E-06  0.0000000E+00 -0.2339129E-03
 -0.5050178E-02  0.0000000E+00 -0.5050505E-02 -0.3735303E-06  0.0000000E+00 -0.2340657E-03
 -0.5050018E-02  0.0000000E+00 -0.5050505E-02 -0.3905658E-06  0.0000000E+00 -0.2342261E-03
 -0.5049710E-02  0.0000000E+00 -0.5050505E-02 -0.4056771E-06  0.0000000E+00 -0.2343931E-03
 -0.5049253E-02  0.0000000E+00 -0.5050505E-02 -0.4188558E-06  0.0000000E+00 -0.2345661E-03
 -0.5048636E-02  0.0000000E+00 -0.5050505E-02 -0.4301068E-06  0.0000000E+00 -0.2347441E-03
 -0.5047442E-02  0.0000000E+00 -0.5050505E-02 -0.4394476E-06  0.0000000E+00 -0.2349263E-03
 -0.5045727E-02  0.0000000E+00 -0.5050505E-02 -0.4469076E-06  0.0000000E+00 -0.2351120E-03
 -0.5043261E-02  0.0000000E+00 -0.5050505E-02 -0.4525285E-06  0.0000000E+00 -0.2353004E-03
 -0.5038714E-02  0.0000000E+00 -0.5050505E-02 -0.4563636E-06  0.0000000E+00 -0.2354907E-03
 -0.5032318E-02  0.0000000E+00 -0.5050505E-02 -0.4584785E-06  0.0000000E+00 -0.2356821E-03
 -0.5022454E-02  0.0000000E+00 -0.5050505E-02 -0.4589518E-06  0.0000000E+00 -0.2358740E-03
 -0.5012589E-02  0.0000000E+00 -0.5050505E-02 -0.4578757E-06  0.0000000E+00 -0.2360657E-03
 -0.5002725E-02  0.0000000E+00 -0.5050505E-02 -0.4553582E-06  0.0000000E+00 -0.2362566E-03
 -0.4992860E-02  0.0000000E+00 -0.5050505E-02 -0.4515259E-06  0.0000000E+00 -0.2364460E-03
 -0.4976523E-02  0.0000000E+00 -0.5050505E-02 -0.4465276E-06  0.0000000E+00 -0.2366334E-03
 -0.4956794E-02  0.0000000E+00 -0.5050505E-02 -0.4405406E-06  0.0000000E+00 -0.2368184E-03
 -0.4937066E-02  0.0000000E+00 -0.5050505E-02 -0.4337792E-06  0.0000000E+00 -0.2370004E-03
 -0.4906239E-02  0.0000000E+00 -0.5050505E-02 -0.4265070E-06  0.0000000E+00 -0.2371794E-03
 -0.4866782E-02  0.0000000E+00 -0.5050505E-02 -0.4190557E-06  0.0000000E+00 -0.2373549E-03
 -0.4827325E-02  0.0000000E+00 -0.5050505E-02 -0.4118526E-06  0.0000000E+00 -0.2375269E-03
 -0.4769372E-02  0.0000000E+00 -0.5050505E-02 -0.4054624E-06  0.0000000E+00 -0.2376954E-03
 -0.4690458E-02  0.0000000E+00 -0.5050505E-02 -0.4006522E-06  0.0000000E+00 -0.2378608E-03
 -0.4611543E-02  0.0000000E+00 -0.5050505E-02 -0.3984929E-06  0.0000000E+00 -0.2380235E-03
 -0.4503035E-02  0.0000000E+00 -0.5050505E-02 -0.4005225E-06  0.0000000E+00 -0.2381843E-03
 -0.4345206E-02  0.0000000E+00 -0.5050505E-02 -0.4090168E-06  0.0000000E+00 -0.2383445E-03
 -0.4187378E-02  0.0000000E+00 -0.5050505E-02 -0.4274448E-06  0.0000000E+00 -0.2385058E-03
 -0.3985156E-02  0.0000000E+00 -0.5050505E-02 -0.4612612E-06  0.0000000E+00 -0.2386705E-03
 -0.3669499E-02  0.0000000E+00 -0.5050505E-02 -0.5193151E-06  0.0000000E+00 -0.2388410E-03
 -0.3353842E-02  0.0000000E+00 -0.5050505E-02 -0.6164102E-06  0.0000000E+00 -0.2390198E-03
 -0.2978990E-02  0.0000000E+00 -0.5050505E-02 -0.7779994E-06  0.0000000E+00 -0.2392055E-03
 -0.2347676E-02  0.0000000E+00 -0.5050505E-02 -0.1048666E-05  0.0000000E+00 -0.2393854E-03
 -0.1716362E-02  0.0000000E+00 -0.5050505E-02 -0.1506270E-05  0.0000000E+00 -0.2395104E-03
 -0.1025842E-02  0.0000000E+00 -0.5050505E-02 -0.2279040E-05  0.0000000E+00 -0.2394307E-03
  0.2367855E-03  0.0000000E+00 -0.5050505E-02 -0.3531083E-05  0.0000000E+00 -0.2387402E-03
  0.1499413E-02  0.0000000E+00 -0.5050505E-02 -0.5217742E-05  0.0000000E+00 -0.2365297E-03
  0.5287294E-02  0.0000000E+00 -0.5050505E-02 -0.5641021E-05  0.0000000E+00 -0.2318535E-03
 -0.5050505E-02  0.0000000E+00 -0.5050505E-02  0.1743553E-07  0.0000000E+00 -0.2386804E-03
 -0.5050505E-02  0.0000000E+00 -0.5050505E-02  0.5226524E-07  0.0000000E+00 -0.2386698E-03
 -0.5050505E-02  0.0000000E+00 -0.5050505E-02  0.8697076E-07  0.0000000E+00 -0.2386488E-03
 -0.5050505E-02  0.0000000E+00 -0.5050505E-02  0.1214690E-06  0.0000000E+00 -0.2386173E-03
 -0.5050505E-02  0.0000000E+00 -0.5050505E-02  0.1556765E-06  0.0000000E+00 -0.2385754E-03
 -0.5050505E-02  0.0000000E+00 -0.5050505E-02  0.1895092E-06  0.0000000E+00 -0.2385232E-03
 -0.5050504E-02  0.0000000E+00 -0.5050505E-02  0.2228823E-06  0.0000000E+00 -0.2384608E-03
 -0.5050501E-02  0.0000000E+00 -0.5050505E-02  0.2557101E-06  0.0000000E+00 -0.2383885E-03
 -0.5050495E-02  0.0000000E+00 -0.5050505E-02  0.2879059E-06  0.0000000E+00 -0.2383063E-03
 -0.5050482E-02  0.0000000E+00 -0.5050505E-02  0.3193819E-06  0.0000000E+00 -0.2382144E-03
 -0.5050449E-02  0.0000000E+00 -0.5050505E-02  0.3500489E-06  0.0000000E+00 -0.2381132E-03
 -0.5050376E-02  0.0000000E+00 -0.5050505E-02  0.3798165E-06  0.0000000E+00 -0.2380028E-03
 -0.5050299E-02  0.0000000E+00 -0.5050505E-02  0.4085929E-06  0.0000000E+00 -0.2378835E-03
 -0.5050178E-02  0.0000000E+00 -0.5050505E-02  0.4362848E-06  0.0000000E+00 -0.2377556E-03
 -0.5050018E-02  0.0000000E+00 -0.5050505E-02  0.4627974E-06  0.0000000E+00 -0.2376195E-03
 -0.5049710E-02  0.0000000E+00 -0.5050505E-02  0.4880345E-06  0.0000000E+00 -0.2374756E-03
 -0.5049253E-02  0.0000000E+00 -0.5050505E-02  0.5118987E-06  0.0000000E+00 -0.2373242E-03
 -0.5048636E-02  0.0000000E+00 -0.5050505E-02  0.5342911E-06  0.0000000E+00 -0.2371657E-03
 -0.5047442E-02  0.0000000E+00 -0.5050505E-02  0.5551116E-06  0.0000000E+00 -0.2370007E-03
 -0.5045727E-02  0.0000000E+00 -0.5050505E-02  0.5742593E-06  0.0000000E+00 -0.2368295E-03
 -0.5043261E-02  0.0000000E+00 -0.5050505E-02  0.5916326E-06  0.0000000E+00 -0.2366528E-03
 -0.5038714E-02  0.0000000E+00 -0.5050505E-02  0.6071294E-06  0.0000000E+00 -0.2364710E-03
 -0.5032318E-02  0.0000000E+00 -0.5050505E-02  0.6206475E-06  0.0000000E+00 -0.2362847E-03
 -0.5022454E-02  0.0000000E+00 -0.5050505E-02  0.6320853E-06  0.0000000E+00 -0.2360946E-03
 -0.5012589E-02  0.0000000E+00 -0.5050505E-02  0.6413420E-06  0.0000000E+00 -0.2359013E-03
 -0.5002725E-02  0.0000000E+00 -0.5050505E-02  0.6483187E-06  0.0000000E+00 -0.2357054E-03
 -0.4992860E-02  0.0000000E+00 -0.5050505E-02  0.6529187E-06  0.0000000E+00 -0.2355077E-03
 -0.4976523E-02  0.0000000E+00 -0.5050505E-02  0.6550488E-06  0.0000000E+00 -0.2353088E-03
 -0.4956794E-02  0.0000000E+00 -0.5050505E-02  0.6546201E-06  0.0000000E+00 -0.2351097E-03
 -0.4937066E-02  0.0000000E+00 -0.5050505E-02  0.6515495E-06  0.0000000E+00 -0.2349109E-03