title = "dataset feddes"
variables = "x", "y", "z", "vx", "vy", "vz"
zone t = "velocities, solution time =  1.900E+01 days        " i =   99, j =   99, k =    1,  f=point
 -0.5050505E-02  0.0000000E+00 -0.5050505E-02 -0.1274667E-11  0.0000000E+00 -0.4298028E-03
 -0.5050505E-02  0.0000000E+00 -0.5050505E-02 -0.4115703E-11  0.0000000E+00 -0.4298028E-03
 -0.5050505E-02  0.0000000E+00 -0.5050505E-02 -0.6955652E-11  0.0000000E+00 -0.4298029E-03
 -0.5050505E-02  0.0000000E+00 -0.5050505E-02 -0.9831606E-11  0.0000000E+00 -0.4298029E-03
 -0.5050505E-02  0.0000000E+00 -0.5050505E-02 -0.1280162E-10  0.0000000E+00 -0.4298029E-03
 -0.5050505E-02  0.0000000E+00 -0.5050505E-02 -0.1589123E-10  0.0000000E+00 -0.4298029E-03
 -0.5050504E-02  0.0000000E+00 -0.5050505E-02 -0.1913072E-10  0.0000000E+00 -0.4298030E-03
 -0.5050501E-02  0.0000000E+00 -0.5050505E-02 -0.2254588E-10  0.0000000E+00 -0.4298030E-03
 -0.5050495E-02  0.0000000E+00 -0.5050505E-02 -0.2617062E-10  0.0000000E+00 -0.4298031E-03
 -0.5050482E-02  0.0000000E+00 -0.5050505E-02 -0.3003254E-10  0.0000000E+00 -0.4298031E-03
 -0.5050449E-02  0.0000000E+00 -0.5050505E-02 -0.3416531E-10  0.0000000E+00 -0.4298032E-03
 -0.5050376E-02  0.0000000E+00 -0.5050505E-02 -0.3859887E-10  0.0000000E+00 -0.4298033E-03
 -0.5050299E-02  0.0000000E+00 -0.5050505E-02 -0.4335769E-10  0.0000000E+00 -0.4298034E-03
 -0.5050178E-02  0.0000000E+00 -0.5050505E-02 -0.4847752E-10  0.0000000E+00 -0.4298034E-03
 -0.5050018E-02  0.0000000E+00 -0.5050505E-02 -0.5399058E-10  0.0000000E+00 -0.4298036E-03
 -0.5049710E-02  0.0000000E+00 -0.5050505E-02 -0.5992030E-10  0.0000000E+00 -0.4298037E-03
 -0.5049253E-02  0.0000000E+00 -0.5050505E-02 -0.6629506E-10  0.0000000E+00 -0.4298038E-03
 -0.5048636E-02  0.0000000E+00 -0.5050505E-02 -0.7314953E-10  0.0000000E+00 -0.4298040E-03
 -0.5047442E-02  0.0000000E+00 -0.5050505E-02 -0.8051517E-10  0.0000000E+00 -0.4298041E-03
 -0.5045727E-02  0.0000000E+00 -0.5050505E-02 -0.8841882E-10  0.0000000E+00 -0.4298043E-03
 -0.5043261E-02  0.0000000E+00 -0.5050505E-02 -0.9688921E-10  0.0000000E+00 -0.4298045E-03
 -0.5038714E-02  0.0000000E+00 -0.5050505E-02 -0.1059594E-09  0.0000000E+00 -0.4298047E-03
 -0.5032318E-02  0.0000000E+00 -0.5050505E-02 -0.1156623E-09  0.0000000E+00 -0.4298049E-03
 -0.5022454E-02  0.0000000E+00 -0.5050505E-02 -0.1260295E-09  0.0000000E+00 -0.4298052E-03
 -0.5012589E-02  0.0000000E+00 -0.5050505E-02 -0.1370941E-09  0.0000000E+00 -0.4298055E-03
 -0.5002725E-02  0.0000000E+00 -0.5050505E-02 -0.1488907E-09  0.0000000E+00 -0.4298058E-03
 -0.4992860E-02  0.0000000E+00 -0.5050505E-02 -0.1614538E-09  0.0000000E+00 -0.4298061E-03
 -0.4976523E-02  0.0000000E+00 -0.5050505E-02 -0.1748197E-09  0.0000000E+00 -0.4298064E-03
 -0.4956794E-02  0.0000000E+00 -0.5050505E-02 -0.1890283E-09  0.0000000E+00 -0.4298068E-03
 -0.4937066E-02  0.0000000E+00 -0.5050505E-02 -0.2041204E-09  0.0000000E+00 -0.4298072E-03
 -0.4906239E-02  0.0000000E+00 -0.5050505E-02 -0.2201374E-09  0.0000000E+00 -0.4298077E-03
 -0.4866782E-02  0.0000000E+00 -0.5050505E-02 -0.2371242E-09  0.0000000E+00 -0.4298082E-03
 -0.4827325E-02  0.0000000E+00 -0.5050505E-02 -0.2551291E-09  0.0000000E+00 -0.4298087E-03
 -0.4769372E-02  0.0000000E+00 -0.5050505E-02 -0.2742037E-09  0.0000000E+00 -0.4298092E-03
 -0.4690458E-02  0.0000000E+00 -0.5050505E-02 -0.2944031E-09  0.0000000E+00 -0.4298098E-03
 -0.4611543E-02  0.0000000E+00 -0.5050505E-02 -0.3157873E-09  0.0000000E+00 -0.4298105E-03
 -0.4503035E-02  0.0000000E+00 -0.5050505E-02 -0.3384214E-09  0.0000000E+00 -0.4298112E-03
 -0.4345206E-02  0.0000000E+00 -0.5050505E-02 -0.3623764E-09  0.0000000E+00 -0.4298119E-03
 -0.4187378E-02  0.0000000E+00 -0.5050505E-02 -0.3877300E-09  0.0000000E+00 -0.4298127E-03
 -0.3985156E-02  0.0000000E+00 -0.5050505E-02 -0.4145678E-09  0.0000000E+00 -0.4298135E-03
 -0.3669499E-02  0.0000000E+00 -0.5050505E-02 -0.4429846E-09  0.0000000E+00 -0.4298144E-03
 -0.3353842E-02  0.0000000E+00 -0.5050505E-02 -0.4730854E-09  0.0000000E+00 -0.4298154E-03
 -0.2978990E-02  0.0000000E+00 -0.5050505E-02 -0.5049866E-09  0.0000000E+00 -0.4298164E-03
 -0.2347676E-02  0.0000000E+00 -0.5050505E-02 -0.5388182E-09  0.0000000E+00 -0.4298175E-03
 -0.1716362E-02  0.0000000E+00 -0.5050505E-02 -0.5747254E-09  0.0000000E+00 -0.4298187E-03
 -0.1025842E-02  0.0000000E+00 -0.5050505E-02 -0.6128712E-09  0.0000000E+00 -0.4298199E-03
  0.2367855E-03  0.0000000E+00 -0.5050505E-02 -0.6534384E-09  0.0000000E+00 -0.4298213E-03
  0.1499413E-02  0.0000000E+00 -0.5050505E-02 -0.6966330E-09  0.0000000E+00 -0.4298227E-03
  0.2762042E-02  0.0000000E+00 -0.5050505E-02 -0.7426873E-09  0.0000000E+00 -0.4298242E-03
 -0.5050505E-02  0.0000000E+00 -0.5050505E-02 -0.7918639E-09  0.0000000E+00 -0.4298258E-03
 -0.5050505E-02  0.0000000E+00 -0.5050505E-02 -0.8444603E-09  0.0000000E+00 -0.4298275E-03
 -0.5050505E-02  0.0000000E+00 -0.5050505E-02 -0.9008144E-09  0.0000000E+00 -0.4298294E-03
 -0.5050505E-02  0.0000000E+00 -0.5050505E-02 -0.9613104E-09  0.0000000E+00 -0.4298313E-03
 -0.5050505E-02  0.0000000E+00 -0.5050505E-02 -0.1026387E-08  0.0000000E+00 -0.4298334E-03
 -0.5050505E-02  0.0000000E+00 -0.5050505E-02 -0.1096544E-08  0.0000000E+00 -0.4298357E-03
 -0.5050505E-02  0.0000000E+00 -0.5050505E-02 -0.1172356E-08  0.0000000E+00 -0.4298380E-03
 -0.5050504E-02  0.0000000E+00 -0.5050505E-02 -0.1254482E-08  0.0000000E+00 -0.4298406E-03
 -0.5050501E-02  0.0000000E+00 -0.5050505E-02 -0.1343681E-08  0.0000000E+00 -0.4298433E-03
 -0.5050495E-02  0.0000000E+00 -0.5050505E-02 -0.1440828E-08  0.0000000E+00 -0.4298462E-03
 -0.5050482E-02  0.0000000E+00 -0.5050505E-02 -0.1546938E-08  0.0000000E+00 -0.4298494E-03
 -0.5050449E-02  0.0000000E+00 -0.5050505E-02 -0.1663190E-08  0.0000000E+00 -0.4298528E-03
 -0.5050376E-02  0.0000000E+00 -0.5050505E-02 -0.1790958E-08  0.0000000E+00 -0.4298564E-03
 -0.5050299E-02  0.0000000E+00 -0.5050505E-02 -0.1931851E-08  0.0000000E+00 -0.4298603E-03
 -0.5050178E-02  0.0000000E+00 -0.5050505E-02 -0.2087756E-08  0.0000000E+00 -0.4298645E-03
 -0.5050018E-02  0.0000000E+00 -0.5050505E-02 -0.2260902E-08  0.0000000E+00 -0.4298691E-03
 -0.5049710E-02  0.0000000E+00 -0.5050505E-02 -0.2453926E-08  0.0000000E+00 -0.4298741E-03
 -0.5049253E-02  0.0000000E+00 -0.5050505E-02 -0.2669968E-08  0.0000000E+00 -0.4298794E-03
 -0.5048636E-02  0.0000000E+00 -0.5050505E-02 -0.2912785E-08  0.0000000E+00 -0.4298853E-03
 -0.5047442E-02  0.0000000E+00 -0.5050505E-02 -0.3186894E-08  0.0000000E+00 -0.4298917E-03
 -0.5045727E-02  0.0000000E+00 -0.5050505E-02 -0.3497759E-08  0.0000000E+00 -0.4298987E-03
 -0.5043261E-02  0.0000000E+00 -0.5050505E-02 -0.3852028E-08  0.0000000E+00 -0.4299065E-03
 -0.5038714E-02  0.0000000E+00 -0.5050505E-02 -0.4257849E-08  0.0000000E+00 -0.4299150E-03
 -0.5032318E-02  0.0000000E+00 -0.5050505E-02 -0.4725272E-08  0.0000000E+00 -0.4299244E-03
 -0.5022454E-02  0.0000000E+00 -0.5050505E-02 -0.5266795E-08  0.0000000E+00 -0.4299349E-03
 -0.5012589E-02  0.0000000E+00 -0.5050505E-02 -0.5898084E-08  0.0000000E+00 -0.4299467E-03
 -0.5002725E-02  0.0000000E+00 -0.5050505E-02 -0.6638956E-08  0.0000000E+00 -0.4299598E-03
 -0.4992860E-02  0.0000000E+00 -0.5050505E-02 -0.7514718E-08  0.0000000E+00 -0.4299747E-03
 -0.4976523E-02  0.0000000E+00 -0.5050505E-02 -0.8558030E-08  0.0000000E+00 -0.4299916E-03
 -0.4956794E-02  0.0000000E+00 -0.5050505E-02 -0.9811528E-08  0.0000000E+00 -0.4300109E-03
 -0.4937066E-02  0.0000000E+00 -0.5050505E-02 -0.1133157E-07  0.0000000E+00 -0.4300331E-03
 -0.4906239E-02  0.0000000E+00 -0.5050505E-02 -0.1319369E-07  0.0000000E+00 -0.4300589E-03
 -0.4866782E-02  0.0000000E+00 -0.5050505E-02 -0.1550065E-07  0.0000000E+00 -0.4300891E-03
 -0.4827325E-02  0.0000000E+00 -0.5050505E-02 -0.1839466E-07  0.0000000E+00 -0.4301247E-03
 -0.4769372E-02  0.0000000E+00 -0.5050505E-02 -0.2207618E-07  0.0000000E+00 -0.4301673E-03
 -0.4690458E-02  0.0000000E+00 -0.5050505E-02 -0.2683388E-07  0.0000000E+00 -0.4302187E-03
 -0.4611543E-02  0.0000000E+00 -0.5050505E-02 -0.3309336E-07  0.0000000E+00 -0.4302817E-03
 -0.4503035E-02  0.0000000E+00 -0.5050505E-02 -0.4149937E-07  0.0000000E+00 -0.4303601E-03
 -0.4345206E-02  0.0000000E+00 -0.5050505E-02 -0.5305936E-07  0.0000000E+00 -0.4304594E-03
 -0.4187378E-02  0.0000000E+00 -0.5050505E-02 -0.6940530E-07  0.0000000E+00 -0.4305882E-03
 -0.3985156E-02  0.0000000E+00 -0.5050505E-02 -0.9329437E-07  0.0000000E+00 -0.4307592E-03
 -0.3669499E-02  0.0000000E+00 -0.5050505E-02 -0.1296224E-06  0.0000000E+00 -0.4309935E-03
 -0.3353842E-02  0.0000000E+00 -0.5050505E-02 -0.1876138E-06  0.0000000E+00 -0.4313270E-03
 -0.2978990E-02  0.0000000E+00 -0.5050505E-02 -0.2859231E-06  0.0000000E+00 -0.4318248E-03
 -0.2347676E-02  0.0000000E+00 -0.5050505E-02 -0.4655784E-06  0.0000000E+00 -0.4326148E-03
 -0.1716362E-02  0.0000000E+00 -0.5050505E-02 -0.8260254E-06  0.0000000E+00 -0.4339728E-03
 -0.1025842E-02  0.0000000E+00 -0.5050505E-02 -0.1635694E-05  0.0000000E+00 -0.4365615E-03
  0.2367855E-03  0.0000000E+00 -0.5050505E-02 -0.3704881E-05  0.0000000E+00 -0.4421792E-03
  0.1499413E-02  0.0000000E+00 -0.5050505E-02 -0.9757659E-05  0.0000000E+00 -0.4563504E-03
  0.5287294E-02  0.0000000E+00 -0.5050505E-02 -0.1604833E-03  0.0000000E+00 -0.3638698E-03
 -0.5050505E-02  0.0000000E+00 -0.5050505E-02 -0.3854775E-11  0.0000000E+00 -0.4294698E-03
 -0.5050505E-02  0.0000000E+00 -0.5050505E-02 -0.1223864E-10  0.0000000E+00 -0.4294698E-03
 -0.5050505E-02  0.0000000E+00 -0.5050505E-02 -0.2072356E-10  0.0000000E+00 -0.4294698E-03
 -0.5050505E-02  0.0000000E+00 -0.5050505E-02 -0.2930652E-10  0.0000000E+00 -0.4294698E-03
 -0.5050505E-02  0.0000000E+00 -0.5050505E-02 -0.3815966E-10  0.0000000E+00 -0.4294699E-03
 -0.5050505E-02  0.0000000E+00 -0.5050505E-02 -0.4736631E-10  0.0000000E+00 -0.4294699E-03
 -0.5050504E-02  0.0000000E+00 -0.5050505E-02 -0.5702306E-10  0.0000000E+00 -0.4294699E-03
 -0.5050501E-02  0.0000000E+00 -0.5050505E-02 -0.6720839E-10  0.0000000E+00 -0.4294700E-03
 -0.5050495E-02  0.0000000E+00 -0.5050505E-02 -0.7802338E-10  0.0000000E+00 -0.4294700E-03
 -0.5050482E-02  0.0000000E+00 -0.5050505E-02 -0.8955072E-10  0.0000000E+00 -0.4294701E-03
 -0.5050449E-02  0.0000000E+00 -0.5050505E-02 -0.1018892E-09  0.0000000E+00 -0.4294701E-03
 -0.5050376E-02  0.0000000E+00 -0.5050505E-02 -0.1151353E-09  0.0000000E+00 -0.4294702E-03
 -0.5050299E-02  0.0000000E+00 -0.5050505E-02 -0.1293599E-09  0.0000000E+00 -0.4294703E-03
 -0.5050178E-02  0.0000000E+00 -0.5050505E-02 -0.1446609E-09  0.0000000E+00 -0.4294704E-03
 -0.5050018E-02  0.0000000E+00 -0.5050505E-02 -0.1611421E-09  0.0000000E+00 -0.4294705E-03
 -0.5049710E-02  0.0000000E+00 -0.5050505E-02 -0.1788815E-09  0.0000000E+00 -0.4294706E-03
 -0.5049253E-02  0.0000000E+00 -0.5050505E-02 -0.1979575E-09  0.0000000E+00 -0.4294707E-03
 -0.5048636E-02  0.0000000E+00 -0.5050505E-02 -0.2184666E-09  0.0000000E+00 -0.4294709E-03
 -0.5047442E-02  0.0000000E+00 -0.5050505E-02 -0.2405075E-09  0.0000000E+00 -0.4294711E-03
 -0.5045727E-02  0.0000000E+00 -0.5050505E-02 -0.2641672E-09  0.0000000E+00 -0.4294712E-03
 -0.5043261E-02  0.0000000E+00 -0.5050505E-02 -0.2895303E-09  0.0000000E+00 -0.4294714E-03
 -0.5038714E-02  0.0000000E+00 -0.5050505E-02 -0.3166910E-09  0.0000000E+00 -0.4294716E-03
 -0.5032318E-02  0.0000000E+00 -0.5050505E-02 -0.3457485E-09  0.0000000E+00 -0.4294719E-03
 -0.5022454E-02  0.0000000E+00 -0.5050505E-02 -0.3767982E-09  0.0000000E+00 -0.4294721E-03
 -0.5012589E-02  0.0000000E+00 -0.5050505E-02 -0.4099395E-09  0.0000000E+00 -0.4294724E-03
 -0.5002725E-02  0.0000000E+00 -0.5050505E-02 -0.4452770E-09  0.0000000E+00 -0.4294727E-03
 -0.4992860E-02  0.0000000E+00 -0.5050505E-02 -0.4829151E-09  0.0000000E+00 -0.4294730E-03
 -0.4976523E-02  0.0000000E+00 -0.5050505E-02 -0.5229607E-09  0.0000000E+00 -0.4294734E-03
 -0.4956794E-02  0.0000000E+00 -0.5050505E-02 -0.5655312E-09  0.0000000E+00 -0.4294737E-03
 -0.4937066E-02  0.0000000E+00 -0.5050505E-02 -0.6107499E-09  0.0000000E+00 -0.4294741E-03
 -0.4906239E-02  0.0000000E+00 -0.5050505E-02 -0.6587422E-09  0.0000000E+00 -0.4294746E-03
 -0.4866782E-02  0.0000000E+00 -0.5050505E-02 -0.7096417E-09  0.0000000E+00 -0.4294751E-03
 -0.4827325E-02  0.0000000E+00 -0.5050505E-02 -0.7635924E-09  0.0000000E+00 -0.4294756E-03
 -0.4769372E-02  0.0000000E+00 -0.5050505E-02 -0.8207483E-09  0.0000000E+00 -0.4294761E-03
 -0.4690458E-02  0.0000000E+00 -0.5050505E-02 -0.8812744E-09  0.0000000E+00 -0.4294767E-03
 -0.4611543E-02  0.0000000E+00 -0.5050505E-02 -0.9453495E-09  0.0000000E+00 -0.4294774E-03
 -0.4503035E-02  0.0000000E+00 -0.5050505E-02 -0.1013168E-08  0.0000000E+00 -0.4294781E-03
 -0.4345206E-02  0.0000000E+00 -0.5050505E-02 -0.1084942E-08  0.0000000E+00 -0.4294788E-03
 -0.4187378E-02  0.0000000E+00 -0.5050505E-02 -0.1160904E-08  0.0000000E+00 -0.4294796E-03
 -0.3985156E-02  0.0000000E+00 -0.5050505E-02 -0.1241310E-08  0.0000000E+00 -0.4294804E-03
 -0.3669499E-02  0.0000000E+00 -0.5050505E-02 -0.1326441E-08  0.0000000E+00 -0.4294813E-03
 -0.3353842E-02  0.0000000E+00 -0.5050505E-02 -0.1416611E-08  0.0000000E+00 -0.4294823E-03
 -0.2978990E-02  0.0000000E+00 -0.5050505E-02 -0.1512168E-08  0.0000000E+00 -0.4294833E-03
 -0.2347676E-02  0.0000000E+00 -0.5050505E-02 -0.1613500E-08  0.0000000E+00 -0.4294844E-03
 -0.1716362E-02  0.0000000E+00 -0.5050505E-02 -0.1721039E-08  0.0000000E+00 -0.4294855E-03
 -0.1025842E-02  0.0000000E+00 -0.5050505E-02 -0.1835273E-08  0.0000000E+00 -0.4294868E-03
  0.2367855E-03  0.0000000E+00 -0.5050505E-02 -0.1956745E-08  0.0000000E+00 -0.4294881E-03
  0.1499413E-02  0.0000000E+00 -0.5050505E-02 -0.2086071E-08  0.0000000E+00 -0.4294895E-03
  0.2762042E-02  0.0000000E+00 -0.5050505E-02 -0.2223943E-08  0.0000000E+00 -0.4294910E-03
 -0.5050505E-02  0.0000000E+00 -0.5050505E-02 -0.2371144E-08  0.0000000E+00 -0.4294926E-03
 -0.5050505E-02  0.0000000E+00 -0.5050505E-02 -0.2528561E-08  0.0000000E+00 -0.4294943E-03
 -0.5050505E-02  0.0000000E+00 -0.5050505E-02 -0.2697201E-08  0.0000000E+00 -0.4294962E-03
 -0.5050505E-02  0.0000000E+00 -0.5050505E-02 -0.2878209E-08  0.0000000E+00 -0.4294981E-03
 -0.5050505E-02  0.0000000E+00 -0.5050505E-02 -0.3072891E-08  0.0000000E+00 -0.4295002E-03
 -0.5050505E-02  0.0000000E+00 -0.5050505E-02 -0.3282738E-08  0.0000000E+00 -0.4295024E-03
 -0.5050505E-02  0.0000000E+00 -0.5050505E-02 -0.3509460E-08  0.0000000E+00 -0.4295048E-03
 -0.5050504E-02  0.0000000E+00 -0.5050505E-02 -0.3755018E-08  0.0000000E+00 -0.4295073E-03
 -0.5050501E-02  0.0000000E+00 -0.5050505E-02 -0.4021670E-08  0.0000000E+00 -0.4295100E-03
 -0.5050495E-02  0.0000000E+00 -0.5050505E-02 -0.4312023E-08  0.0000000E+00 -0.4295129E-03
 -0.5050482E-02  0.0000000E+00 -0.5050505E-02 -0.4629095E-08  0.0000000E+00 -0.4295161E-03
 -0.5050449E-02  0.0000000E+00 -0.5050505E-02 -0.4976390E-08  0.0000000E+00 -0.4295194E-03
 -0.5050376E-02  0.0000000E+00 -0.5050505E-02 -0.5357994E-08  0.0000000E+00 -0.4295230E-03
 -0.5050299E-02  0.0000000E+00 -0.5050505E-02 -0.5778683E-08  0.0000000E+00 -0.4295269E-03
 -0.5050178E-02  0.0000000E+00 -0.5050505E-02 -0.6244064E-08  0.0000000E+00 -0.4295311E-03
 -0.5050018E-02  0.0000000E+00 -0.5050505E-02 -0.6760747E-08  0.0000000E+00 -0.4295356E-03
 -0.5049710E-02  0.0000000E+00 -0.5050505E-02 -0.7336558E-08  0.0000000E+00 -0.4295405E-03
 -0.5049253E-02  0.0000000E+00 -0.5050505E-02 -0.7980802E-08  0.0000000E+00 -0.4295459E-03
 -0.5048636E-02  0.0000000E+00 -0.5050505E-02 -0.8704606E-08  0.0000000E+00 -0.4295517E-03
 -0.5047442E-02  0.0000000E+00 -0.5050505E-02 -0.9521336E-08  0.0000000E+00 -0.4295580E-03
 -0.5045727E-02  0.0000000E+00 -0.5050505E-02 -0.1044715E-07  0.0000000E+00 -0.4295649E-03
 -0.5043261E-02  0.0000000E+00 -0.5050505E-02 -0.1150169E-07  0.0000000E+00 -0.4295726E-03
 -0.5038714E-02  0.0000000E+00 -0.5050505E-02 -0.1270899E-07  0.0000000E+00 -0.4295810E-03
 -0.5032318E-02  0.0000000E+00 -0.5050505E-02 -0.1409868E-07  0.0000000E+00 -0.4295903E-03
 -0.5022454E-02  0.0000000E+00 -0.5050505E-02 -0.1570754E-07  0.0000000E+00 -0.4296006E-03
 -0.5012589E-02  0.0000000E+00 -0.5050505E-02 -0.1758162E-07  0.0000000E+00 -0.4296121E-03
 -0.5002725E-02  0.0000000E+00 -0.5050505E-02 -0.1977906E-07  0.0000000E+00 -0.4296251E-03
 -0.4992860E-02  0.0000000E+00 -0.5050505E-02 -0.2237397E-07  0.0000000E+00 -0.4296396E-03
 -0.4976523E-02  0.0000000E+00 -0.5050505E-02 -0.2546179E-07  0.0000000E+00 -0.4296561E-03
 -0.4956794E-02  0.0000000E+00 -0.5050505E-02 -0.2916680E-07  0.0000000E+00 -0.4296749E-03
 -0.4937066E-02  0.0000000E+00 -0.5050505E-02 -0.3365281E-07  0.0000000E+00 -0.4296965E-03
 -0.4906239E-02  0.0000000E+00 -0.5050505E-02 -0.3913861E-07  0.0000000E+00 -0.4297215E-03
 -0.4866782E-02  0.0000000E+00 -0.5050505E-02 -0.4592075E-07  0.0000000E+00 -0.4297506E-03
 -0.4827325E-02  0.0000000E+00 -0.5050505E-02 -0.5440767E-07  0.0000000E+00 -0.4297848E-03
 -0.4769372E-02  0.0000000E+00 -0.5050505E-02 -0.6517203E-07  0.0000000E+00 -0.4298255E-03
 -0.4690458E-02  0.0000000E+00 -0.5050505E-02 -0.7903296E-07  0.0000000E+00 -0.4298743E-03
 -0.4611543E-02  0.0000000E+00 -0.5050505E-02 -0.9718840E-07  0.0000000E+00 -0.4299336E-03
 -0.4503035E-02  0.0000000E+00 -0.5050505E-02 -0.1214349E-06  0.0000000E+00 -0.4300066E-03
 -0.4345206E-02  0.0000000E+00 -0.5050505E-02 -0.1545441E-06  0.0000000E+00 -0.4300980E-03
 -0.4187378E-02  0.0000000E+00 -0.5050505E-02 -0.2009326E-06  0.0000000E+00 -0.4302143E-03
 -0.3985156E-02  0.0000000E+00 -0.5050505E-02 -0.2679030E-06  0.0000000E+00 -0.4303652E-03
 -0.3669499E-02  0.0000000E+00 -0.5050505E-02 -0.3680504E-06  0.0000000E+00 -0.4305653E-03
 -0.3353842E-02  0.0000000E+00 -0.5050505E-02 -0.5241764E-06  0.0000000E+00 -0.4308365E-03
 -0.2978990E-02  0.0000000E+00 -0.5050505E-02 -0.7798926E-06  0.0000000E+00 -0.4312123E-03
 -0.2347676E-02  0.0000000E+00 -0.5050505E-02 -0.1223906E-05  0.0000000E+00 -0.4317396E-03
 -0.1716362E-02  0.0000000E+00 -0.5050505E-02 -0.2049145E-05  0.0000000E+00 -0.4324666E-03
 -0.1025842E-02  0.0000000E+00 -0.5050505E-02 -0.3705560E-05  0.0000000E+00 -0.4333446E-03
  0.2367855E-03  0.0000000E+00 -0.5050505E-02 -0.7316954E-05  0.0000000E+00 -0.4337151E-03
  0.1499413E-02  0.0000000E+00 -0.5050505E-02 -0.1586856E-04  0.0000000E+00 -0.4298290E-03
  0.5287294E-02  0.0000000E+00 -0.5050505E-02 -0.3768160E-04  0.0000000E+00 -0.4031178E-03
 -0.5050505E-02  0.0000000E+00 -0.5050505E-02 -0.6410235E-11  0.0000000E+00 -0.4288213E-03
 -0.5050505E-02  0.0000000E+00 -0.5050505E-02 -0.2007169E-10  0.0000000E+00 -0.4288213E-03
 -0.5050505E-02  0.0000000E+00 -0.5050505E-02 -0.3407298E-10  0.0000000E+00 -0.4288213E-03
 -0.5050505E-02  0.0000000E+00 -0.5050505E-02 -0.4821723E-10  0.0000000E+00 -0.4288213E-03
 -0.5050505E-02  0.0000000E+00 -0.5050505E-02 -0.6278511E-10  0.0000000E+00 -0.4288213E-03
 -0.5050505E-02  0.0000000E+00 -0.5050505E-02 -0.7792914E-10  0.0000000E+00 -0.4288213E-03
 -0.5050504E-02  0.0000000E+00 -0.5050505E-02 -0.9382197E-10  0.0000000E+00 -0.4288214E-03
 -0.5050501E-02  0.0000000E+00 -0.5050505E-02 -0.1106000E-09  0.0000000E+00 -0.4288214E-03
 -0.5050495E-02  0.0000000E+00 -0.5050505E-02 -0.1284312E-09  0.0000000E+00 -0.4288215E-03
 -0.5050482E-02  0.0000000E+00 -0.5050505E-02 -0.1474537E-09  0.0000000E+00 -0.4288215E-03
 -0.5050449E-02  0.0000000E+00 -0.5050505E-02 -0.1678233E-09  0.0000000E+00 -0.4288216E-03
 -0.5050376E-02  0.0000000E+00 -0.5050505E-02 -0.1897148E-09  0.0000000E+00 -0.4288217E-03
 -0.5050299E-02  0.0000000E+00 -0.5050505E-02 -0.2132507E-09  0.0000000E+00 -0.4288217E-03
 -0.5050178E-02  0.0000000E+00 -0.5050505E-02 -0.2385713E-09  0.0000000E+00 -0.4288218E-03
 -0.5050018E-02  0.0000000E+00 -0.5050505E-02 -0.2658526E-09  0.0000000E+00 -0.4288219E-03
 -0.5049710E-02  0.0000000E+00 -0.5050505E-02 -0.2952444E-09  0.0000000E+00 -0.4288220E-03
 -0.5049253E-02  0.0000000E+00 -0.5050505E-02 -0.3268757E-09  0.0000000E+00 -0.4288222E-03
 -0.5048636E-02  0.0000000E+00 -0.5050505E-02 -0.3608902E-09  0.0000000E+00 -0.4288223E-03
 -0.5047442E-02  0.0000000E+00 -0.5050505E-02 -0.3974498E-09  0.0000000E+00 -0.4288225E-03
 -0.5045727E-02  0.0000000E+00 -0.5050505E-02 -0.4367120E-09  0.0000000E+00 -0.4288226E-03
 -0.5043261E-02  0.0000000E+00 -0.5050505E-02 -0.4788213E-09  0.0000000E+00 -0.4288228E-03
 -0.5038714E-02  0.0000000E+00 -0.5050505E-02 -0.5239276E-09  0.0000000E+00 -0.4288230E-03
 -0.5032318E-02  0.0000000E+00 -0.5050505E-02 -0.5721930E-09  0.0000000E+00 -0.4288233E-03
 -0.5022454E-02  0.0000000E+00 -0.5050505E-02 -0.6237782E-09  0.0000000E+00 -0.4288235E-03
 -0.5012589E-02  0.0000000E+00 -0.5050505E-02 -0.6788468E-09  0.0000000E+00 -0.4288238E-03
 -0.5002725E-02  0.0000000E+00 -0.5050505E-02 -0.7375734E-09  0.0000000E+00 -0.4288241E-03
 -0.4992860E-02  0.0000000E+00 -0.5050505E-02 -0.8001355E-09  0.0000000E+00 -0.4288244E-03
 -0.4976523E-02  0.0000000E+00 -0.5050505E-02 -0.8667098E-09  0.0000000E+00 -0.4288247E-03
 -0.4956794E-02  0.0000000E+00 -0.5050505E-02 -0.9374861E-09  0.0000000E+00 -0.4288251E-03
 -0.4937066E-02  0.0000000E+00 -0.5050505E-02 -0.1012668E-08  0.0000000E+00 -0.4288255E-03
 -0.4906239E-02  0.0000000E+00 -0.5050505E-02 -0.1092468E-08  0.0000000E+00 -0.4288259E-03
 -0.4866782E-02  0.0000000E+00 -0.5050505E-02 -0.1177106E-08  0.0000000E+00 -0.4288264E-03
 -0.4827325E-02  0.0000000E+00 -0.5050505E-02 -0.1266819E-08  0.0000000E+00 -0.4288269E-03
 -0.4769372E-02  0.0000000E+00 -0.5050505E-02 -0.1361863E-08  0.0000000E+00 -0.4288275E-03
 -0.4690458E-02  0.0000000E+00 -0.5050505E-02 -0.1462509E-08  0.0000000E+00 -0.4288281E-03
 -0.4611543E-02  0.0000000E+00 -0.5050505E-02 -0.1569054E-08  0.0000000E+00 -0.4288287E-03
 -0.4503035E-02  0.0000000E+00 -0.5050505E-02 -0.1681818E-08  0.0000000E+00 -0.4288294E-03
 -0.4345206E-02  0.0000000E+00 -0.5050505E-02 -0.1801152E-08  0.0000000E+00 -0.4288301E-03
 -0.4187378E-02  0.0000000E+00 -0.5050505E-02 -0.1927440E-08  0.0000000E+00 -0.4288309E-03
 -0.3985156E-02  0.0000000E+00 -0.5050505E-02 -0.2061102E-08  0.0000000E+00 -0.4288317E-03
 -0.3669499E-02  0.0000000E+00 -0.5050505E-02 -0.2202605E-08  0.0000000E+00 -0.4288326E-03
 -0.3353842E-02  0.0000000E+00 -0.5050505E-02 -0.2352465E-08  0.0000000E+00 -0.4288335E-03
 -0.2978990E-02  0.0000000E+00 -0.5050505E-02 -0.2511256E-08  0.0000000E+00 -0.4288345E-03
 -0.2347676E-02  0.0000000E+00 -0.5050505E-02 -0.2679617E-08  0.0000000E+00 -0.4288356E-03
 -0.1716362E-02  0.0000000E+00 -0.5050505E-02 -0.2858263E-08  0.0000000E+00 -0.4288368E-03
 -0.1025842E-02  0.0000000E+00 -0.5050505E-02 -0.3047993E-08  0.0000000E+00 -0.4288380E-03
  0.2367855E-03  0.0000000E+00 -0.5050505E-02 -0.3249707E-08  0.0000000E+00 -0.4288393E-03
  0.1499413E-02  0.0000000E+00 -0.5050505E-02 -0.3464416E-08  0.0000000E+00 -0.4288407E-03
  0.2762042E-02  0.0000000E+00 -0.5050505E-02 -0.3693260E-08  0.0000000E+00 -0.4288422E-03
 -0.5050505E-02  0.0000000E+00 -0.5050505E-02 -0.3937529E-08  0.0000000E+00 -0.4288438E-03
 -0.5050505E-02  0.0000000E+00 -0.5050505E-02 -0.4198682E-08  0.0000000E+00 -0.4288455E-03
 -0.5050505E-02  0.0000000E+00 -0.5050505E-02 -0.4478375E-08  0.0000000E+00 -0.4288473E-03
 -0.5050505E-02  0.0000000E+00 -0.5050505E-02 -0.4778493E-08  0.0000000E+00 -0.4288492E-03
 -0.5050505E-02  0.0000000E+00 -0.5050505E-02 -0.5101182E-08  0.0000000E+00 -0.4288513E-03
 -0.5050505E-02  0.0000000E+00 -0.5050505E-02 -0.5448892E-08  0.0000000E+00 -0.4288535E-03
 -0.5050505E-02  0.0000000E+00 -0.5050505E-02 -0.5824431E-08  0.0000000E+00 -0.4288558E-03
 -0.5050504E-02  0.0000000E+00 -0.5050505E-02 -0.6231019E-08  0.0000000E+00 -0.4288583E-03
 -0.5050501E-02  0.0000000E+00 -0.5050505E-02 -0.6672360E-08  0.0000000E+00 -0.4288610E-03
 -0.5050495E-02  0.0000000E+00 -0.5050505E-02 -0.7152729E-08  0.0000000E+00 -0.4288639E-03
 -0.5050482E-02  0.0000000E+00 -0.5050505E-02 -0.7677069E-08  0.0000000E+00 -0.4288670E-03
 -0.5050449E-02  0.0000000E+00 -0.5050505E-02 -0.8251120E-08  0.0000000E+00 -0.4288703E-03
 -0.5050376E-02  0.0000000E+00 -0.5050505E-02 -0.8881564E-08  0.0000000E+00 -0.4288738E-03
 -0.5050299E-02  0.0000000E+00 -0.5050505E-02 -0.9576206E-08  0.0000000E+00 -0.4288776E-03
 -0.5050178E-02  0.0000000E+00 -0.5050505E-02 -0.1034420E-07  0.0000000E+00 -0.4288818E-03
 -0.5050018E-02  0.0000000E+00 -0.5050505E-02 -0.1119634E-07  0.0000000E+00 -0.4288862E-03
 -0.5049710E-02  0.0000000E+00 -0.5050505E-02 -0.1214535E-07  0.0000000E+00 -0.4288910E-03
 -0.5049253E-02  0.0000000E+00 -0.5050505E-02 -0.1320639E-07  0.0000000E+00 -0.4288963E-03
 -0.5048636E-02  0.0000000E+00 -0.5050505E-02 -0.1439753E-07  0.0000000E+00 -0.4289019E-03
 -0.5047442E-02  0.0000000E+00 -0.5050505E-02 -0.1574045E-07  0.0000000E+00 -0.4289081E-03
 -0.5045727E-02  0.0000000E+00 -0.5050505E-02 -0.1726132E-07  0.0000000E+00 -0.4289149E-03
 -0.5043261E-02  0.0000000E+00 -0.5050505E-02 -0.1899186E-07  0.0000000E+00 -0.4289223E-03
 -0.5038714E-02  0.0000000E+00 -0.5050505E-02 -0.2097087E-07  0.0000000E+00 -0.4289305E-03
 -0.5032318E-02  0.0000000E+00 -0.5050505E-02 -0.2324598E-07  0.0000000E+00 -0.4289395E-03
 -0.5022454E-02  0.0000000E+00 -0.5050505E-02 -0.2587624E-07  0.0000000E+00 -0.4289495E-03
 -0.5012589E-02  0.0000000E+00 -0.5050505E-02 -0.2893529E-07  0.0000000E+00 -0.4289606E-03
 -0.5002725E-02  0.0000000E+00 -0.5050505E-02 -0.3251584E-07  0.0000000E+00 -0.4289731E-03
 -0.4992860E-02  0.0000000E+00 -0.5050505E-02 -0.3673561E-07  0.0000000E+00 -0.4289870E-03
 -0.4976523E-02  0.0000000E+00 -0.5050505E-02 -0.4174553E-07  0.0000000E+00 -0.4290028E-03
 -0.4956794E-02  0.0000000E+00 -0.5050505E-02 -0.4774117E-07  0.0000000E+00 -0.4290206E-03
 -0.4937066E-02  0.0000000E+00 -0.5050505E-02 -0.5497886E-07  0.0000000E+00 -0.4290410E-03
 -0.4906239E-02  0.0000000E+00 -0.5050505E-02 -0.6379870E-07  0.0000000E+00 -0.4290645E-03
 -0.4866782E-02  0.0000000E+00 -0.5050505E-02 -0.7465807E-07  0.0000000E+00 -0.4290916E-03
 -0.4827325E-02  0.0000000E+00 -0.5050505E-02 -0.8818122E-07  0.0000000E+00 -0.4291231E-03
 -0.4769372E-02  0.0000000E+00 -0.5050505E-02 -0.1052340E-06  0.0000000E+00 -0.4291602E-03
 -0.4690458E-02  0.0000000E+00 -0.5050505E-02 -0.1270387E-06  0.0000000E+00 -0.4292041E-03
 -0.4611543E-02  0.0000000E+00 -0.5050505E-02 -0.1553546E-06  0.0000000E+00 -0.4292566E-03
 -0.4503035E-02  0.0000000E+00 -0.5050505E-02 -0.1927688E-06  0.0000000E+00 -0.4293199E-03
 -0.4345206E-02  0.0000000E+00 -0.5050505E-02 -0.2431753E-06  0.0000000E+00 -0.4293969E-03
 -0.4187378E-02  0.0000000E+00 -0.5050505E-02 -0.3125870E-06  0.0000000E+00 -0.4294915E-03
 -0.3985156E-02  0.0000000E+00 -0.5050505E-02 -0.4105481E-06  0.0000000E+00 -0.4296084E-03
 -0.3669499E-02  0.0000000E+00 -0.5050505E-02 -0.5526543E-06  0.0000000E+00 -0.4297531E-03
 -0.3353842E-02  0.0000000E+00 -0.5050505E-02 -0.7651498E-06  0.0000000E+00 -0.4299304E-03
 -0.2978990E-02  0.0000000E+00 -0.5050505E-02 -0.1093405E-05  0.0000000E+00 -0.4301393E-03
 -0.2347676E-02  0.0000000E+00 -0.5050505E-02 -0.1617361E-05  0.0000000E+00 -0.4303584E-03
 -0.1716362E-02  0.0000000E+00 -0.5050505E-02 -0.2477630E-05  0.0000000E+00 -0.4305015E-03
 -0.1025842E-02  0.0000000E+00 -0.5050505E-02 -0.3908199E-05  0.0000000E+00 -0.4302997E-03
  0.2367855E-03  0.0000000E+00 -0.5050505E-02 -0.6214945E-05  0.0000000E+00 -0.4290139E-03
  0.1499413E-02  0.0000000E+00 -0.5050505E-02 -0.9340616E-05  0.0000000E+00 -0.4249658E-03
  0.5287294E-02  0.0000000E+00 -0.5050505E-02 -0.1023278E-04  0.0000000E+00 -0.4163584E-03
 -0.5050505E-02  0.0000000E+00 -0.5050505E-02 -0.8820135E-11  0.0000000E+00 -0.4278739E-03
 -0.5050505E-02  0.0000000E+00 -0.5050505E-02 -0.2746441E-10  0.0000000E+00 -0.4278739E-03
 -0.5050505E-02  0.0000000E+00 -0.5050505E-02 -0.4674159E-10  0.0000000E+00 -0.4278739E-03
 -0.5050505E-02  0.0000000E+00 -0.5050505E-02 -0.6618987E-10  0.0000000E+00 -0.4278739E-03
 -0.5050505E-02  0.0000000E+00 -0.5050505E-02 -0.8619368E-10  0.0000000E+00 -0.4278740E-03
 -0.5050505E-02  0.0000000E+00 -0.5050505E-02 -0.1069860E-09  0.0000000E+00 -0.4278740E-03
 -0.5050504E-02  0.0000000E+00 -0.5050505E-02 -0.1288209E-09  0.0000000E+00 -0.4278740E-03
 -0.5050501E-02  0.0000000E+00 -0.5050505E-02 -0.1519006E-09  0.0000000E+00 -0.4278741E-03
 -0.5050495E-02  0.0000000E+00 -0.5050505E-02 -0.1764624E-09  0.0000000E+00 -0.4278741E-03
 -0.5050482E-02  0.0000000E+00 -0.5050505E-02 -0.2027043E-09  0.0000000E+00 -0.4278742E-03
 -0.5050449E-02  0.0000000E+00 -0.5050505E-02 -0.2308264E-09  0.0000000E+00 -0.4278742E-03
 -0.5050376E-02  0.0000000E+00 -0.5050505E-02 -0.2610817E-09  0.0000000E+00 -0.4278743E-03
 -0.5050299E-02  0.0000000E+00 -0.5050505E-02 -0.2936664E-09  0.0000000E+00 -0.4278744E-03
 -0.5050178E-02  0.0000000E+00 -0.5050505E-02 -0.3287541E-09  0.0000000E+00 -0.4278744E-03
 -0.5050018E-02  0.0000000E+00 -0.5050505E-02 -0.3665740E-09  0.0000000E+00 -0.4278745E-03
 -0.5049710E-02  0.0000000E+00 -0.5050505E-02 -0.4073524E-09  0.0000000E+00 -0.4278747E-03
 -0.5049253E-02  0.0000000E+00 -0.5050505E-02 -0.4512875E-09  0.0000000E+00 -0.4278748E-03
 -0.5048636E-02  0.0000000E+00 -0.5050505E-02 -0.4985690E-09  0.0000000E+00 -0.4278749E-03
 -0.5047442E-02  0.0000000E+00 -0.5050505E-02 -0.5494063E-09  0.0000000E+00 -0.4278751E-03
 -0.5045727E-02  0.0000000E+00 -0.5050505E-02 -0.6040239E-09  0.0000000E+00 -0.4278752E-03
 -0.5043261E-02  0.0000000E+00 -0.5050505E-02 -0.6626352E-09  0.0000000E+00 -0.4278754E-03
 -0.5038714E-02  0.0000000E+00 -0.5050505E-02 -0.7254482E-09  0.0000000E+00 -0.4278756E-03
 -0.5032318E-02  0.0000000E+00 -0.5050505E-02 -0.7926857E-09  0.0000000E+00 -0.4278758E-03
 -0.5022454E-02  0.0000000E+00 -0.5050505E-02 -0.8645718E-09  0.0000000E+00 -0.4278761E-03
 -0.5012589E-02  0.0000000E+00 -0.5050505E-02 -0.9413322E-09  0.0000000E+00 -0.4278763E-03
 -0.5002725E-02  0.0000000E+00 -0.5050505E-02 -0.1023207E-08  0.0000000E+00 -0.4278766E-03
 -0.4992860E-02  0.0000000E+00 -0.5050505E-02 -0.1110448E-08  0.0000000E+00 -0.4278769E-03
 -0.4976523E-02  0.0000000E+00 -0.5050505E-02 -0.1203306E-08  0.0000000E+00 -0.4278773E-03
 -0.4956794E-02  0.0000000E+00 -0.5050505E-02 -0.1302039E-08  0.0000000E+00 -0.4278776E-03
 -0.4937066E-02  0.0000000E+00 -0.5050505E-02 -0.1406929E-08  0.0000000E+00 -0.4278780E-03