title = "dataset feddes"
variables = "x", "y", "z", "vx", "vy", "vz"
zone t = "velocities, solution time =  3.100E+01 days        " i =   99, j =   99, k =    1,  f=point
 -0.5050505E-02  0.0000000E+00 -0.5050505E-02  0.1927225E-09  0.0000000E+00 -0.3096063E-03
 -0.5050505E-02  0.0000000E+00 -0.5050505E-02  0.5776273E-09  0.0000000E+00 -0.3096055E-03
 -0.5050505E-02  0.0000000E+00 -0.5050505E-02  0.9608095E-09  0.0000000E+00 -0.3096039E-03
 -0.5050505E-02  0.0000000E+00 -0.5050505E-02  0.1341113E-08  0.0000000E+00 -0.3096015E-03
 -0.5050505E-02  0.0000000E+00 -0.5050505E-02  0.1717389E-08  0.0000000E+00 -0.3095984E-03
 -0.5050505E-02  0.0000000E+00 -0.5050505E-02  0.2088489E-08  0.0000000E+00 -0.3095944E-03
 -0.5050504E-02  0.0000000E+00 -0.5050505E-02  0.2453262E-08  0.0000000E+00 -0.3095897E-03
 -0.5050501E-02  0.0000000E+00 -0.5050505E-02  0.2810555E-08  0.0000000E+00 -0.3095843E-03
 -0.5050495E-02  0.0000000E+00 -0.5050505E-02  0.3159220E-08  0.0000000E+00 -0.3095781E-03
 -0.5050482E-02  0.0000000E+00 -0.5050505E-02  0.3498109E-08  0.0000000E+00 -0.3095712E-03
 -0.5050449E-02  0.0000000E+00 -0.5050505E-02  0.3826075E-08  0.0000000E+00 -0.3095636E-03
 -0.5050376E-02  0.0000000E+00 -0.5050505E-02  0.4141978E-08  0.0000000E+00 -0.3095553E-03
 -0.5050299E-02  0.0000000E+00 -0.5050505E-02  0.4444684E-08  0.0000000E+00 -0.3095464E-03
 -0.5050178E-02  0.0000000E+00 -0.5050505E-02  0.4733066E-08  0.0000000E+00 -0.3095369E-03
 -0.5050018E-02  0.0000000E+00 -0.5050505E-02  0.5006012E-08  0.0000000E+00 -0.3095268E-03
 -0.5049710E-02  0.0000000E+00 -0.5050505E-02  0.5262422E-08  0.0000000E+00 -0.3095161E-03
 -0.5049253E-02  0.0000000E+00 -0.5050505E-02  0.5501217E-08  0.0000000E+00 -0.3095050E-03
 -0.5048636E-02  0.0000000E+00 -0.5050505E-02  0.5721339E-08  0.0000000E+00 -0.3094933E-03
 -0.5047442E-02  0.0000000E+00 -0.5050505E-02  0.5921759E-08  0.0000000E+00 -0.3094812E-03
 -0.5045727E-02  0.0000000E+00 -0.5050505E-02  0.6101482E-08  0.0000000E+00 -0.3094688E-03
 -0.5043261E-02  0.0000000E+00 -0.5050505E-02  0.6259550E-08  0.0000000E+00 -0.3094560E-03
 -0.5038714E-02  0.0000000E+00 -0.5050505E-02  0.6395053E-08  0.0000000E+00 -0.3094428E-03
 -0.5032318E-02  0.0000000E+00 -0.5050505E-02  0.6507128E-08  0.0000000E+00 -0.3094295E-03
 -0.5022454E-02  0.0000000E+00 -0.5050505E-02  0.6594977E-08  0.0000000E+00 -0.3094159E-03
 -0.5012589E-02  0.0000000E+00 -0.5050505E-02  0.6657862E-08  0.0000000E+00 -0.3094021E-03
 -0.5002725E-02  0.0000000E+00 -0.5050505E-02  0.6695122E-08  0.0000000E+00 -0.3093883E-03
 -0.4992860E-02  0.0000000E+00 -0.5050505E-02  0.6706178E-08  0.0000000E+00 -0.3093744E-03
 -0.4976523E-02  0.0000000E+00 -0.5050505E-02  0.6690539E-08  0.0000000E+00 -0.3093605E-03
 -0.4956794E-02  0.0000000E+00 -0.5050505E-02  0.6647810E-08  0.0000000E+00 -0.3093466E-03
 -0.4937066E-02  0.0000000E+00 -0.5050505E-02  0.6577704E-08  0.0000000E+00 -0.3093329E-03
 -0.4906239E-02  0.0000000E+00 -0.5050505E-02  0.6480044E-08  0.0000000E+00 -0.3093194E-03
 -0.4866782E-02  0.0000000E+00 -0.5050505E-02  0.6354772E-08  0.0000000E+00 -0.3093061E-03
 -0.4827325E-02  0.0000000E+00 -0.5050505E-02  0.6201958E-08  0.0000000E+00 -0.3092931E-03
 -0.4769372E-02  0.0000000E+00 -0.5050505E-02  0.6021802E-08  0.0000000E+00 -0.3092804E-03
 -0.4690458E-02  0.0000000E+00 -0.5050505E-02  0.5814640E-08  0.0000000E+00 -0.3092681E-03
 -0.4611543E-02  0.0000000E+00 -0.5050505E-02  0.5580949E-08  0.0000000E+00 -0.3092563E-03
 -0.4503035E-02  0.0000000E+00 -0.5050505E-02  0.5321349E-08  0.0000000E+00 -0.3092450E-03
 -0.4345206E-02  0.0000000E+00 -0.5050505E-02  0.5036604E-08  0.0000000E+00 -0.3092342E-03
 -0.4187378E-02  0.0000000E+00 -0.5050505E-02  0.4727621E-08  0.0000000E+00 -0.3092241E-03
 -0.3985156E-02  0.0000000E+00 -0.5050505E-02  0.4395450E-08  0.0000000E+00 -0.3092147E-03
 -0.3669499E-02  0.0000000E+00 -0.5050505E-02  0.4041280E-08  0.0000000E+00 -0.3092059E-03
 -0.3353842E-02  0.0000000E+00 -0.5050505E-02  0.3666433E-08  0.0000000E+00 -0.3091979E-03
 -0.2978990E-02  0.0000000E+00 -0.5050505E-02  0.3272358E-08  0.0000000E+00 -0.3091907E-03
 -0.2347676E-02  0.0000000E+00 -0.5050505E-02  0.2860620E-08  0.0000000E+00 -0.3091844E-03
 -0.1716362E-02  0.0000000E+00 -0.5050505E-02  0.2432892E-08  0.0000000E+00 -0.3091789E-03
 -0.1025842E-02  0.0000000E+00 -0.5050505E-02  0.1990941E-08  0.0000000E+00 -0.3091743E-03
  0.2367855E-03  0.0000000E+00 -0.5050505E-02  0.1536612E-08  0.0000000E+00 -0.3091706E-03
  0.1499413E-02  0.0000000E+00 -0.5050505E-02  0.1071815E-08  0.0000000E+00 -0.3091679E-03
  0.2762042E-02  0.0000000E+00 -0.5050505E-02  0.5985090E-09  0.0000000E+00 -0.3091662E-03
 -0.5050505E-02  0.0000000E+00 -0.5050505E-02  0.1186775E-09  0.0000000E+00 -0.3091654E-03
 -0.5050505E-02  0.0000000E+00 -0.5050505E-02 -0.3656867E-09  0.0000000E+00 -0.3091657E-03
 -0.5050505E-02  0.0000000E+00 -0.5050505E-02 -0.8526020E-09  0.0000000E+00 -0.3091670E-03
 -0.5050505E-02  0.0000000E+00 -0.5050505E-02 -0.1340123E-08  0.0000000E+00 -0.3091692E-03
 -0.5050505E-02  0.0000000E+00 -0.5050505E-02 -0.1826358E-08  0.0000000E+00 -0.3091725E-03
 -0.5050505E-02  0.0000000E+00 -0.5050505E-02 -0.2309500E-08  0.0000000E+00 -0.3091768E-03
 -0.5050505E-02  0.0000000E+00 -0.5050505E-02 -0.2787842E-08  0.0000000E+00 -0.3091821E-03
 -0.5050504E-02  0.0000000E+00 -0.5050505E-02 -0.3259804E-08  0.0000000E+00 -0.3091884E-03
 -0.5050501E-02  0.0000000E+00 -0.5050505E-02 -0.3723960E-08  0.0000000E+00 -0.3091956E-03
 -0.5050495E-02  0.0000000E+00 -0.5050505E-02 -0.4179063E-08  0.0000000E+00 -0.3092038E-03
 -0.5050482E-02  0.0000000E+00 -0.5050505E-02 -0.4624071E-08  0.0000000E+00 -0.3092129E-03
 -0.5050449E-02  0.0000000E+00 -0.5050505E-02 -0.5058176E-08  0.0000000E+00 -0.3092230E-03
 -0.5050376E-02  0.0000000E+00 -0.5050505E-02 -0.5480839E-08  0.0000000E+00 -0.3092339E-03
 -0.5050299E-02  0.0000000E+00 -0.5050505E-02 -0.5891821E-08  0.0000000E+00 -0.3092457E-03
 -0.5050178E-02  0.0000000E+00 -0.5050505E-02 -0.6291226E-08  0.0000000E+00 -0.3092583E-03
 -0.5050018E-02  0.0000000E+00 -0.5050505E-02 -0.6679545E-08  0.0000000E+00 -0.3092718E-03
 -0.5049710E-02  0.0000000E+00 -0.5050505E-02 -0.7057716E-08  0.0000000E+00 -0.3092860E-03
 -0.5049253E-02  0.0000000E+00 -0.5050505E-02 -0.7427185E-08  0.0000000E+00 -0.3093010E-03
 -0.5048636E-02  0.0000000E+00 -0.5050505E-02 -0.7789997E-08  0.0000000E+00 -0.3093168E-03
 -0.5047442E-02  0.0000000E+00 -0.5050505E-02 -0.8148893E-08  0.0000000E+00 -0.3093334E-03
 -0.5045727E-02  0.0000000E+00 -0.5050505E-02 -0.8507447E-08  0.0000000E+00 -0.3093506E-03
 -0.5043261E-02  0.0000000E+00 -0.5050505E-02 -0.8870239E-08  0.0000000E+00 -0.3093687E-03
 -0.5038714E-02  0.0000000E+00 -0.5050505E-02 -0.9243072E-08  0.0000000E+00 -0.3093874E-03
 -0.5032318E-02  0.0000000E+00 -0.5050505E-02 -0.9633268E-08  0.0000000E+00 -0.3094070E-03
 -0.5022454E-02  0.0000000E+00 -0.5050505E-02 -0.1005006E-07  0.0000000E+00 -0.3094274E-03
 -0.5012589E-02  0.0000000E+00 -0.5050505E-02 -0.1050510E-07  0.0000000E+00 -0.3094487E-03
 -0.5002725E-02  0.0000000E+00 -0.5050505E-02 -0.1101319E-07  0.0000000E+00 -0.3094711E-03
 -0.4992860E-02  0.0000000E+00 -0.5050505E-02 -0.1159324E-07  0.0000000E+00 -0.3094945E-03
 -0.4976523E-02  0.0000000E+00 -0.5050505E-02 -0.1226960E-07  0.0000000E+00 -0.3095193E-03
 -0.4956794E-02  0.0000000E+00 -0.5050505E-02 -0.1307401E-07  0.0000000E+00 -0.3095455E-03
 -0.4937066E-02  0.0000000E+00 -0.5050505E-02 -0.1404830E-07  0.0000000E+00 -0.3095737E-03
 -0.4906239E-02  0.0000000E+00 -0.5050505E-02 -0.1524835E-07  0.0000000E+00 -0.3096041E-03
 -0.4866782E-02  0.0000000E+00 -0.5050505E-02 -0.1674998E-07  0.0000000E+00 -0.3096372E-03
 -0.4827325E-02  0.0000000E+00 -0.5050505E-02 -0.1865786E-07  0.0000000E+00 -0.3096740E-03
 -0.4769372E-02  0.0000000E+00 -0.5050505E-02 -0.2111923E-07  0.0000000E+00 -0.3097152E-03
 -0.4690458E-02  0.0000000E+00 -0.5050505E-02 -0.2434573E-07  0.0000000E+00 -0.3097624E-03
 -0.4611543E-02  0.0000000E+00 -0.5050505E-02 -0.2864897E-07  0.0000000E+00 -0.3098173E-03
 -0.4503035E-02  0.0000000E+00 -0.5050505E-02 -0.3450054E-07  0.0000000E+00 -0.3098828E-03
 -0.4345206E-02  0.0000000E+00 -0.5050505E-02 -0.4263674E-07  0.0000000E+00 -0.3099628E-03
 -0.4187378E-02  0.0000000E+00 -0.5050505E-02 -0.5424960E-07  0.0000000E+00 -0.3100633E-03
 -0.3985156E-02  0.0000000E+00 -0.5050505E-02 -0.7135212E-07  0.0000000E+00 -0.3101936E-03
 -0.3669499E-02  0.0000000E+00 -0.5050505E-02 -0.9751734E-07  0.0000000E+00 -0.3103687E-03
 -0.3353842E-02  0.0000000E+00 -0.5050505E-02 -0.1394741E-06  0.0000000E+00 -0.3106145E-03
 -0.2978990E-02  0.0000000E+00 -0.5050505E-02 -0.2108216E-06  0.0000000E+00 -0.3109779E-03
 -0.2347676E-02  0.0000000E+00 -0.5050505E-02 -0.3414382E-06  0.0000000E+00 -0.3115507E-03
 -0.1716362E-02  0.0000000E+00 -0.5050505E-02 -0.6036192E-06  0.0000000E+00 -0.3125311E-03
 -0.1025842E-02  0.0000000E+00 -0.5050505E-02 -0.1191979E-05  0.0000000E+00 -0.3143940E-03
  0.2367855E-03  0.0000000E+00 -0.5050505E-02 -0.2691656E-05  0.0000000E+00 -0.3184241E-03
  0.1499413E-02  0.0000000E+00 -0.5050505E-02 -0.7059440E-05  0.0000000E+00 -0.3285484E-03
  0.5287294E-02  0.0000000E+00 -0.5050505E-02 -0.1157245E-03  0.0000000E+00 -0.2621472E-03
 -0.5050505E-02  0.0000000E+00 -0.5050505E-02  0.5797728E-09  0.0000000E+00 -0.3094338E-03
 -0.5050505E-02  0.0000000E+00 -0.5050505E-02  0.1737673E-08  0.0000000E+00 -0.3094330E-03
 -0.5050505E-02  0.0000000E+00 -0.5050505E-02  0.2890401E-08  0.0000000E+00 -0.3094314E-03
 -0.5050505E-02  0.0000000E+00 -0.5050505E-02  0.4034479E-08  0.0000000E+00 -0.3094290E-03
 -0.5050505E-02  0.0000000E+00 -0.5050505E-02  0.5166458E-08  0.0000000E+00 -0.3094258E-03
 -0.5050505E-02  0.0000000E+00 -0.5050505E-02  0.6282883E-08  0.0000000E+00 -0.3094218E-03
 -0.5050504E-02  0.0000000E+00 -0.5050505E-02  0.7380293E-08  0.0000000E+00 -0.3094171E-03
 -0.5050501E-02  0.0000000E+00 -0.5050505E-02  0.8455229E-08  0.0000000E+00 -0.3094115E-03
 -0.5050495E-02  0.0000000E+00 -0.5050505E-02  0.9504237E-08  0.0000000E+00 -0.3094053E-03
 -0.5050482E-02  0.0000000E+00 -0.5050505E-02  0.1052386E-07  0.0000000E+00 -0.3093983E-03
 -0.5050449E-02  0.0000000E+00 -0.5050505E-02  0.1151066E-07  0.0000000E+00 -0.3093906E-03
 -0.5050376E-02  0.0000000E+00 -0.5050505E-02  0.1246121E-07  0.0000000E+00 -0.3093823E-03
 -0.5050299E-02  0.0000000E+00 -0.5050505E-02  0.1337209E-07  0.0000000E+00 -0.3093733E-03
 -0.5050178E-02  0.0000000E+00 -0.5050505E-02  0.1423991E-07  0.0000000E+00 -0.3093637E-03
 -0.5050018E-02  0.0000000E+00 -0.5050505E-02  0.1506133E-07  0.0000000E+00 -0.3093535E-03
 -0.5049710E-02  0.0000000E+00 -0.5050505E-02  0.1583305E-07  0.0000000E+00 -0.3093427E-03
 -0.5049253E-02  0.0000000E+00 -0.5050505E-02  0.1655180E-07  0.0000000E+00 -0.3093314E-03
 -0.5048636E-02  0.0000000E+00 -0.5050505E-02  0.1721442E-07  0.0000000E+00 -0.3093197E-03
 -0.5047442E-02  0.0000000E+00 -0.5050505E-02  0.1781780E-07  0.0000000E+00 -0.3093075E-03
 -0.5045727E-02  0.0000000E+00 -0.5050505E-02  0.1835895E-07  0.0000000E+00 -0.3092949E-03
 -0.5043261E-02  0.0000000E+00 -0.5050505E-02  0.1883497E-07  0.0000000E+00 -0.3092819E-03
 -0.5038714E-02  0.0000000E+00 -0.5050505E-02  0.1924313E-07  0.0000000E+00 -0.3092686E-03
 -0.5032318E-02  0.0000000E+00 -0.5050505E-02  0.1958084E-07  0.0000000E+00 -0.3092551E-03
 -0.5022454E-02  0.0000000E+00 -0.5050505E-02  0.1984567E-07  0.0000000E+00 -0.3092414E-03
 -0.5012589E-02  0.0000000E+00 -0.5050505E-02  0.2003541E-07  0.0000000E+00 -0.3092275E-03
 -0.5002725E-02  0.0000000E+00 -0.5050505E-02  0.2014806E-07  0.0000000E+00 -0.3092135E-03
 -0.4992860E-02  0.0000000E+00 -0.5050505E-02  0.2018188E-07  0.0000000E+00 -0.3091994E-03
 -0.4976523E-02  0.0000000E+00 -0.5050505E-02  0.2013537E-07  0.0000000E+00 -0.3091854E-03
 -0.4956794E-02  0.0000000E+00 -0.5050505E-02  0.2000736E-07  0.0000000E+00 -0.3091714E-03
 -0.4937066E-02  0.0000000E+00 -0.5050505E-02  0.1979695E-07  0.0000000E+00 -0.3091575E-03
 -0.4906239E-02  0.0000000E+00 -0.5050505E-02  0.1950362E-07  0.0000000E+00 -0.3091438E-03
 -0.4866782E-02  0.0000000E+00 -0.5050505E-02  0.1912719E-07  0.0000000E+00 -0.3091304E-03
 -0.4827325E-02  0.0000000E+00 -0.5050505E-02  0.1866786E-07  0.0000000E+00 -0.3091172E-03
 -0.4769372E-02  0.0000000E+00 -0.5050505E-02  0.1812622E-07  0.0000000E+00 -0.3091044E-03
 -0.4690458E-02  0.0000000E+00 -0.5050505E-02  0.1750328E-07  0.0000000E+00 -0.3090919E-03
 -0.4611543E-02  0.0000000E+00 -0.5050505E-02  0.1680048E-07  0.0000000E+00 -0.3090800E-03
 -0.4503035E-02  0.0000000E+00 -0.5050505E-02  0.1601967E-07  0.0000000E+00 -0.3090685E-03
 -0.4345206E-02  0.0000000E+00 -0.5050505E-02  0.1516315E-07  0.0000000E+00 -0.3090577E-03
 -0.4187378E-02  0.0000000E+00 -0.5050505E-02  0.1423365E-07  0.0000000E+00 -0.3090474E-03
 -0.3985156E-02  0.0000000E+00 -0.5050505E-02  0.1323432E-07  0.0000000E+00 -0.3090378E-03
 -0.3669499E-02  0.0000000E+00 -0.5050505E-02  0.1216875E-07  0.0000000E+00 -0.3090290E-03
 -0.3353842E-02  0.0000000E+00 -0.5050505E-02  0.1104093E-07  0.0000000E+00 -0.3090209E-03
 -0.2978990E-02  0.0000000E+00 -0.5050505E-02  0.9855197E-08  0.0000000E+00 -0.3090136E-03
 -0.2347676E-02  0.0000000E+00 -0.5050505E-02  0.8616285E-08  0.0000000E+00 -0.3090071E-03
 -0.1716362E-02  0.0000000E+00 -0.5050505E-02  0.7329231E-08  0.0000000E+00 -0.3090016E-03
 -0.1025842E-02  0.0000000E+00 -0.5050505E-02  0.5999358E-08  0.0000000E+00 -0.3089969E-03
  0.2367855E-03  0.0000000E+00 -0.5050505E-02  0.4632233E-08  0.0000000E+00 -0.3089932E-03
  0.1499413E-02  0.0000000E+00 -0.5050505E-02  0.3233614E-08  0.0000000E+00 -0.3089905E-03
  0.2762042E-02  0.0000000E+00 -0.5050505E-02  0.1809405E-08  0.0000000E+00 -0.3089887E-03
 -0.5050505E-02  0.0000000E+00 -0.5050505E-02  0.3655907E-09  0.0000000E+00 -0.3089879E-03
 -0.5050505E-02  0.0000000E+00 -0.5050505E-02 -0.1091816E-08  0.0000000E+00 -0.3089882E-03
 -0.5050505E-02  0.0000000E+00 -0.5050505E-02 -0.2556838E-08  0.0000000E+00 -0.3089894E-03
 -0.5050505E-02  0.0000000E+00 -0.5050505E-02 -0.4023601E-08  0.0000000E+00 -0.3089917E-03
 -0.5050505E-02  0.0000000E+00 -0.5050505E-02 -0.5486401E-08  0.0000000E+00 -0.3089950E-03
 -0.5050505E-02  0.0000000E+00 -0.5050505E-02 -0.6939773E-08  0.0000000E+00 -0.3089993E-03
 -0.5050505E-02  0.0000000E+00 -0.5050505E-02 -0.8378561E-08  0.0000000E+00 -0.3090046E-03
 -0.5050504E-02  0.0000000E+00 -0.5050505E-02 -0.9797991E-08  0.0000000E+00 -0.3090110E-03
 -0.5050501E-02  0.0000000E+00 -0.5050505E-02 -0.1119375E-07  0.0000000E+00 -0.3090182E-03
 -0.5050495E-02  0.0000000E+00 -0.5050505E-02 -0.1256205E-07  0.0000000E+00 -0.3090265E-03
 -0.5050482E-02  0.0000000E+00 -0.5050505E-02 -0.1389972E-07  0.0000000E+00 -0.3090357E-03
 -0.5050449E-02  0.0000000E+00 -0.5050505E-02 -0.1520432E-07  0.0000000E+00 -0.3090458E-03
 -0.5050376E-02  0.0000000E+00 -0.5050505E-02 -0.1647416E-07  0.0000000E+00 -0.3090568E-03
 -0.5050299E-02  0.0000000E+00 -0.5050505E-02 -0.1770849E-07  0.0000000E+00 -0.3090687E-03
 -0.5050178E-02  0.0000000E+00 -0.5050505E-02 -0.1890756E-07  0.0000000E+00 -0.3090814E-03
 -0.5050018E-02  0.0000000E+00 -0.5050505E-02 -0.2007278E-07  0.0000000E+00 -0.3090950E-03
 -0.5049710E-02  0.0000000E+00 -0.5050505E-02 -0.2120690E-07  0.0000000E+00 -0.3091093E-03
 -0.5049253E-02  0.0000000E+00 -0.5050505E-02 -0.2231415E-07  0.0000000E+00 -0.3091244E-03
 -0.5048636E-02  0.0000000E+00 -0.5050505E-02 -0.2340057E-07  0.0000000E+00 -0.3091403E-03
 -0.5047442E-02  0.0000000E+00 -0.5050505E-02 -0.2447423E-07  0.0000000E+00 -0.3091569E-03
 -0.5045727E-02  0.0000000E+00 -0.5050505E-02 -0.2554569E-07  0.0000000E+00 -0.3091743E-03
 -0.5043261E-02  0.0000000E+00 -0.5050505E-02 -0.2662846E-07  0.0000000E+00 -0.3091924E-03
 -0.5038714E-02  0.0000000E+00 -0.5050505E-02 -0.2773965E-07  0.0000000E+00 -0.3092112E-03
 -0.5032318E-02  0.0000000E+00 -0.5050505E-02 -0.2890083E-07  0.0000000E+00 -0.3092309E-03
 -0.5022454E-02  0.0000000E+00 -0.5050505E-02 -0.3013918E-07  0.0000000E+00 -0.3092513E-03
 -0.5012589E-02  0.0000000E+00 -0.5050505E-02 -0.3148897E-07  0.0000000E+00 -0.3092726E-03
 -0.5002725E-02  0.0000000E+00 -0.5050505E-02 -0.3299361E-07  0.0000000E+00 -0.3092949E-03
 -0.4992860E-02  0.0000000E+00 -0.5050505E-02 -0.3470848E-07  0.0000000E+00 -0.3093183E-03
 -0.4976523E-02  0.0000000E+00 -0.5050505E-02 -0.3670478E-07  0.0000000E+00 -0.3093429E-03
 -0.4956794E-02  0.0000000E+00 -0.5050505E-02 -0.3907501E-07  0.0000000E+00 -0.3093689E-03
 -0.4937066E-02  0.0000000E+00 -0.5050505E-02 -0.4194072E-07  0.0000000E+00 -0.3093967E-03
 -0.4906239E-02  0.0000000E+00 -0.5050505E-02 -0.4546380E-07  0.0000000E+00 -0.3094267E-03
 -0.4866782E-02  0.0000000E+00 -0.5050505E-02 -0.4986296E-07  0.0000000E+00 -0.3094592E-03
 -0.4827325E-02  0.0000000E+00 -0.5050505E-02 -0.5543869E-07  0.0000000E+00 -0.3094951E-03
 -0.4769372E-02  0.0000000E+00 -0.5050505E-02 -0.6261136E-07  0.0000000E+00 -0.3095351E-03
 -0.4690458E-02  0.0000000E+00 -0.5050505E-02 -0.7198107E-07  0.0000000E+00 -0.3095804E-03
 -0.4611543E-02  0.0000000E+00 -0.5050505E-02 -0.8442415E-07  0.0000000E+00 -0.3096328E-03
 -0.4503035E-02  0.0000000E+00 -0.5050505E-02 -0.1012532E-06  0.0000000E+00 -0.3096945E-03
 -0.4345206E-02  0.0000000E+00 -0.5050505E-02 -0.1244911E-06  0.0000000E+00 -0.3097688E-03
 -0.4187378E-02  0.0000000E+00 -0.5050505E-02 -0.1573591E-06  0.0000000E+00 -0.3098603E-03
 -0.3985156E-02  0.0000000E+00 -0.5050505E-02 -0.2051786E-06  0.0000000E+00 -0.3099760E-03
 -0.3669499E-02  0.0000000E+00 -0.5050505E-02 -0.2771213E-06  0.0000000E+00 -0.3101263E-03
 -0.3353842E-02  0.0000000E+00 -0.5050505E-02 -0.3897757E-06  0.0000000E+00 -0.3103268E-03
 -0.2978990E-02  0.0000000E+00 -0.5050505E-02 -0.5748330E-06  0.0000000E+00 -0.3106013E-03
 -0.2347676E-02  0.0000000E+00 -0.5050505E-02 -0.8966511E-06  0.0000000E+00 -0.3109831E-03
 -0.1716362E-02  0.0000000E+00 -0.5050505E-02 -0.1494895E-05  0.0000000E+00 -0.3115052E-03
 -0.1025842E-02  0.0000000E+00 -0.5050505E-02 -0.2694330E-05  0.0000000E+00 -0.3121296E-03
  0.2367855E-03  0.0000000E+00 -0.5050505E-02 -0.5302988E-05  0.0000000E+00 -0.3123782E-03
  0.1499413E-02  0.0000000E+00 -0.5050505E-02 -0.1145707E-04  0.0000000E+00 -0.3095660E-03
  0.5287294E-02  0.0000000E+00 -0.5050505E-02 -0.2707725E-04  0.0000000E+00 -0.2904967E-03
 -0.5050505E-02  0.0000000E+00 -0.5050505E-02  0.9719016E-09  0.0000000E+00 -0.3090955E-03
 -0.5050505E-02  0.0000000E+00 -0.5050505E-02  0.2912917E-08  0.0000000E+00 -0.3090947E-03
 -0.5050505E-02  0.0000000E+00 -0.5050505E-02  0.4845286E-08  0.0000000E+00 -0.3090931E-03
 -0.5050505E-02  0.0000000E+00 -0.5050505E-02  0.6763192E-08  0.0000000E+00 -0.3090906E-03
 -0.5050505E-02  0.0000000E+00 -0.5050505E-02  0.8660863E-08  0.0000000E+00 -0.3090873E-03
 -0.5050505E-02  0.0000000E+00 -0.5050505E-02  0.1053252E-07  0.0000000E+00 -0.3090833E-03
 -0.5050504E-02  0.0000000E+00 -0.5050505E-02  0.1237237E-07  0.0000000E+00 -0.3090784E-03
 -0.5050501E-02  0.0000000E+00 -0.5050505E-02  0.1417463E-07  0.0000000E+00 -0.3090728E-03
 -0.5050495E-02  0.0000000E+00 -0.5050505E-02  0.1593352E-07  0.0000000E+00 -0.3090664E-03
 -0.5050482E-02  0.0000000E+00 -0.5050505E-02  0.1764325E-07  0.0000000E+00 -0.3090593E-03
 -0.5050449E-02  0.0000000E+00 -0.5050505E-02  0.1929806E-07  0.0000000E+00 -0.3090515E-03
 -0.5050376E-02  0.0000000E+00 -0.5050505E-02  0.2089221E-07  0.0000000E+00 -0.3090430E-03
 -0.5050299E-02  0.0000000E+00 -0.5050505E-02  0.2241998E-07  0.0000000E+00 -0.3090338E-03
 -0.5050178E-02  0.0000000E+00 -0.5050505E-02  0.2387570E-07  0.0000000E+00 -0.3090240E-03
 -0.5050018E-02  0.0000000E+00 -0.5050505E-02  0.2525376E-07  0.0000000E+00 -0.3090136E-03
 -0.5049710E-02  0.0000000E+00 -0.5050505E-02  0.2654860E-07  0.0000000E+00 -0.3090026E-03
 -0.5049253E-02  0.0000000E+00 -0.5050505E-02  0.2775479E-07  0.0000000E+00 -0.3089911E-03
 -0.5048636E-02  0.0000000E+00 -0.5050505E-02  0.2886698E-07  0.0000000E+00 -0.3089791E-03
 -0.5047442E-02  0.0000000E+00 -0.5050505E-02  0.2987997E-07  0.0000000E+00 -0.3089666E-03
 -0.5045727E-02  0.0000000E+00 -0.5050505E-02  0.3078873E-07  0.0000000E+00 -0.3089537E-03
 -0.5043261E-02  0.0000000E+00 -0.5050505E-02  0.3158841E-07  0.0000000E+00 -0.3089405E-03
 -0.5038714E-02  0.0000000E+00 -0.5050505E-02  0.3227440E-07  0.0000000E+00 -0.3089270E-03
 -0.5032318E-02  0.0000000E+00 -0.5050505E-02  0.3284233E-07  0.0000000E+00 -0.3089132E-03
 -0.5022454E-02  0.0000000E+00 -0.5050505E-02  0.3328814E-07  0.0000000E+00 -0.3088991E-03
 -0.5012589E-02  0.0000000E+00 -0.5050505E-02  0.3360810E-07  0.0000000E+00 -0.3088849E-03
 -0.5002725E-02  0.0000000E+00 -0.5050505E-02  0.3379882E-07  0.0000000E+00 -0.3088706E-03
 -0.4992860E-02  0.0000000E+00 -0.5050505E-02  0.3385737E-07  0.0000000E+00 -0.3088563E-03
 -0.4976523E-02  0.0000000E+00 -0.5050505E-02  0.3378123E-07  0.0000000E+00 -0.3088419E-03
 -0.4956794E-02  0.0000000E+00 -0.5050505E-02  0.3356838E-07  0.0000000E+00 -0.3088276E-03
 -0.4937066E-02  0.0000000E+00 -0.5050505E-02  0.3321733E-07  0.0000000E+00 -0.3088134E-03
 -0.4906239E-02  0.0000000E+00 -0.5050505E-02  0.3272716E-07  0.0000000E+00 -0.3087994E-03
 -0.4866782E-02  0.0000000E+00 -0.5050505E-02  0.3209755E-07  0.0000000E+00 -0.3087856E-03
 -0.4827325E-02  0.0000000E+00 -0.5050505E-02  0.3132881E-07  0.0000000E+00 -0.3087722E-03
 -0.4769372E-02  0.0000000E+00 -0.5050505E-02  0.3042192E-07  0.0000000E+00 -0.3087590E-03
 -0.4690458E-02  0.0000000E+00 -0.5050505E-02  0.2937856E-07  0.0000000E+00 -0.3087463E-03
 -0.4611543E-02  0.0000000E+00 -0.5050505E-02  0.2820111E-07  0.0000000E+00 -0.3087341E-03
 -0.4503035E-02  0.0000000E+00 -0.5050505E-02  0.2689268E-07  0.0000000E+00 -0.3087224E-03
 -0.4345206E-02  0.0000000E+00 -0.5050505E-02  0.2545711E-07  0.0000000E+00 -0.3087112E-03
 -0.4187378E-02  0.0000000E+00 -0.5050505E-02  0.2389898E-07  0.0000000E+00 -0.3087007E-03
 -0.3985156E-02  0.0000000E+00 -0.5050505E-02  0.2222358E-07  0.0000000E+00 -0.3086909E-03
 -0.3669499E-02  0.0000000E+00 -0.5050505E-02  0.2043691E-07  0.0000000E+00 -0.3086818E-03
 -0.3353842E-02  0.0000000E+00 -0.5050505E-02  0.1854568E-07  0.0000000E+00 -0.3086735E-03
 -0.2978990E-02  0.0000000E+00 -0.5050505E-02  0.1655719E-07  0.0000000E+00 -0.3086661E-03
 -0.2347676E-02  0.0000000E+00 -0.5050505E-02  0.1447940E-07  0.0000000E+00 -0.3086594E-03
 -0.1716362E-02  0.0000000E+00 -0.5050505E-02  0.1232076E-07  0.0000000E+00 -0.3086537E-03
 -0.1025842E-02  0.0000000E+00 -0.5050505E-02  0.1009025E-07  0.0000000E+00 -0.3086489E-03
  0.2367855E-03  0.0000000E+00 -0.5050505E-02  0.7797229E-08  0.0000000E+00 -0.3086451E-03
  0.1499413E-02  0.0000000E+00 -0.5050505E-02  0.5451396E-08  0.0000000E+00 -0.3086423E-03
  0.2762042E-02  0.0000000E+00 -0.5050505E-02  0.3062694E-08  0.0000000E+00 -0.3086404E-03
 -0.5050505E-02  0.0000000E+00 -0.5050505E-02  0.6412094E-09  0.0000000E+00 -0.3086396E-03
 -0.5050505E-02  0.0000000E+00 -0.5050505E-02 -0.1802922E-08  0.0000000E+00 -0.3086398E-03
 -0.5050505E-02  0.0000000E+00 -0.5050505E-02 -0.4259619E-08  0.0000000E+00 -0.3086411E-03
 -0.5050505E-02  0.0000000E+00 -0.5050505E-02 -0.6718976E-08  0.0000000E+00 -0.3086434E-03
 -0.5050505E-02  0.0000000E+00 -0.5050505E-02 -0.9171361E-08  0.0000000E+00 -0.3086467E-03
 -0.5050505E-02  0.0000000E+00 -0.5050505E-02 -0.1160754E-07  0.0000000E+00 -0.3086511E-03
 -0.5050505E-02  0.0000000E+00 -0.5050505E-02 -0.1401880E-07  0.0000000E+00 -0.3086565E-03
 -0.5050504E-02  0.0000000E+00 -0.5050505E-02 -0.1639706E-07  0.0000000E+00 -0.3086629E-03
 -0.5050501E-02  0.0000000E+00 -0.5050505E-02 -0.1873499E-07  0.0000000E+00 -0.3086703E-03
 -0.5050495E-02  0.0000000E+00 -0.5050505E-02 -0.2102616E-07  0.0000000E+00 -0.3086787E-03
 -0.5050482E-02  0.0000000E+00 -0.5050505E-02 -0.2326517E-07  0.0000000E+00 -0.3086880E-03
 -0.5050449E-02  0.0000000E+00 -0.5050505E-02 -0.2544777E-07  0.0000000E+00 -0.3086983E-03
 -0.5050376E-02  0.0000000E+00 -0.5050505E-02 -0.2757103E-07  0.0000000E+00 -0.3087094E-03
 -0.5050299E-02  0.0000000E+00 -0.5050505E-02 -0.2963351E-07  0.0000000E+00 -0.3087215E-03
 -0.5050178E-02  0.0000000E+00 -0.5050505E-02 -0.3163547E-07  0.0000000E+00 -0.3087344E-03
 -0.5050018E-02  0.0000000E+00 -0.5050505E-02 -0.3357905E-07  0.0000000E+00 -0.3087481E-03
 -0.5049710E-02  0.0000000E+00 -0.5050505E-02 -0.3546856E-07  0.0000000E+00 -0.3087627E-03
 -0.5049253E-02  0.0000000E+00 -0.5050505E-02 -0.3731081E-07  0.0000000E+00 -0.3087780E-03
 -0.5048636E-02  0.0000000E+00 -0.5050505E-02 -0.3911546E-07  0.0000000E+00 -0.3087940E-03
 -0.5047442E-02  0.0000000E+00 -0.5050505E-02 -0.4089555E-07  0.0000000E+00 -0.3088108E-03
 -0.5045727E-02  0.0000000E+00 -0.5050505E-02 -0.4266809E-07  0.0000000E+00 -0.3088284E-03
 -0.5043261E-02  0.0000000E+00 -0.5050505E-02 -0.4445487E-07  0.0000000E+00 -0.3088466E-03
 -0.5038714E-02  0.0000000E+00 -0.5050505E-02 -0.4628345E-07  0.0000000E+00 -0.3088656E-03
 -0.5032318E-02  0.0000000E+00 -0.5050505E-02 -0.4818856E-07  0.0000000E+00 -0.3088853E-03
 -0.5022454E-02  0.0000000E+00 -0.5050505E-02 -0.5021378E-07  0.0000000E+00 -0.3089058E-03
 -0.5012589E-02  0.0000000E+00 -0.5050505E-02 -0.5241398E-07  0.0000000E+00 -0.3089271E-03
 -0.5002725E-02  0.0000000E+00 -0.5050505E-02 -0.5485842E-07  0.0000000E+00 -0.3089493E-03
 -0.4992860E-02  0.0000000E+00 -0.5050505E-02 -0.5763511E-07  0.0000000E+00 -0.3089725E-03
 -0.4976523E-02  0.0000000E+00 -0.5050505E-02 -0.6085674E-07  0.0000000E+00 -0.3089969E-03
 -0.4956794E-02  0.0000000E+00 -0.5050505E-02 -0.6466892E-07  0.0000000E+00 -0.3090225E-03
 -0.4937066E-02  0.0000000E+00 -0.5050505E-02 -0.6926189E-07  0.0000000E+00 -0.3090497E-03
 -0.4906239E-02  0.0000000E+00 -0.5050505E-02 -0.7488727E-07  0.0000000E+00 -0.3090788E-03
 -0.4866782E-02  0.0000000E+00 -0.5050505E-02 -0.8188234E-07  0.0000000E+00 -0.3091102E-03
 -0.4827325E-02  0.0000000E+00 -0.5050505E-02 -0.9070610E-07  0.0000000E+00 -0.3091443E-03
 -0.4769372E-02  0.0000000E+00 -0.5050505E-02 -0.1019936E-06  0.0000000E+00 -0.3091820E-03
 -0.4690458E-02  0.0000000E+00 -0.5050505E-02 -0.1166392E-06  0.0000000E+00 -0.3092240E-03
 -0.4611543E-02  0.0000000E+00 -0.5050505E-02 -0.1359282E-06  0.0000000E+00 -0.3092717E-03
 -0.4503035E-02  0.0000000E+00 -0.5050505E-02 -0.1617471E-06  0.0000000E+00 -0.3093265E-03
 -0.4345206E-02  0.0000000E+00 -0.5050505E-02 -0.1969320E-06  0.0000000E+00 -0.3093905E-03
 -0.4187378E-02  0.0000000E+00 -0.5050505E-02 -0.2458562E-06  0.0000000E+00 -0.3094665E-03
 -0.3985156E-02  0.0000000E+00 -0.5050505E-02 -0.3154527E-06  0.0000000E+00 -0.3095576E-03
 -0.3669499E-02  0.0000000E+00 -0.5050505E-02 -0.4170342E-06  0.0000000E+00 -0.3096678E-03
 -0.3353842E-02  0.0000000E+00 -0.5050505E-02 -0.5696051E-06  0.0000000E+00 -0.3098003E-03
 -0.2978990E-02  0.0000000E+00 -0.5050505E-02 -0.8059492E-06  0.0000000E+00 -0.3099541E-03
 -0.2347676E-02  0.0000000E+00 -0.5050505E-02 -0.1183662E-05  0.0000000E+00 -0.3101131E-03
 -0.1716362E-02  0.0000000E+00 -0.5050505E-02 -0.1803649E-05  0.0000000E+00 -0.3102146E-03
 -0.1025842E-02  0.0000000E+00 -0.5050505E-02 -0.2832797E-05  0.0000000E+00 -0.3100649E-03
  0.2367855E-03  0.0000000E+00 -0.5050505E-02 -0.4486487E-05  0.0000000E+00 -0.3091360E-03
  0.1499413E-02  0.0000000E+00 -0.5050505E-02 -0.6713299E-05  0.0000000E+00 -0.3062395E-03
  0.5287294E-02  0.0000000E+00 -0.5050505E-02 -0.7315861E-05  0.0000000E+00 -0.3001253E-03
 -0.5050505E-02  0.0000000E+00 -0.5050505E-02  0.1372832E-08  0.0000000E+00 -0.3085978E-03
 -0.5050505E-02  0.0000000E+00 -0.5050505E-02  0.4114543E-08  0.0000000E+00 -0.3085969E-03
 -0.5050505E-02  0.0000000E+00 -0.5050505E-02  0.6844084E-08  0.0000000E+00 -0.3085952E-03
 -0.5050505E-02  0.0000000E+00 -0.5050505E-02  0.9553270E-08  0.0000000E+00 -0.3085927E-03
 -0.5050505E-02  0.0000000E+00 -0.5050505E-02  0.1223397E-07  0.0000000E+00 -0.3085893E-03
 -0.5050505E-02  0.0000000E+00 -0.5050505E-02  0.1487805E-07  0.0000000E+00 -0.3085852E-03
 -0.5050504E-02  0.0000000E+00 -0.5050505E-02  0.1747736E-07  0.0000000E+00 -0.3085802E-03
 -0.5050501E-02  0.0000000E+00 -0.5050505E-02  0.2002374E-07  0.0000000E+00 -0.3085744E-03
 -0.5050495E-02  0.0000000E+00 -0.5050505E-02  0.2250904E-07  0.0000000E+00 -0.3085678E-03
 -0.5050482E-02  0.0000000E+00 -0.5050505E-02  0.2492513E-07  0.0000000E+00 -0.3085605E-03
 -0.5050449E-02  0.0000000E+00 -0.5050505E-02  0.2726386E-07  0.0000000E+00 -0.3085524E-03
 -0.5050376E-02  0.0000000E+00 -0.5050505E-02  0.2951715E-07  0.0000000E+00 -0.3085437E-03
 -0.5050299E-02  0.0000000E+00 -0.5050505E-02  0.3167692E-07  0.0000000E+00 -0.3085342E-03
 -0.5050178E-02  0.0000000E+00 -0.5050505E-02  0.3373517E-07  0.0000000E+00 -0.3085241E-03
 -0.5050018E-02  0.0000000E+00 -0.5050505E-02  0.3568397E-07  0.0000000E+00 -0.3085134E-03
 -0.5049710E-02  0.0000000E+00 -0.5050505E-02  0.3751549E-07  0.0000000E+00 -0.3085021E-03
 -0.5049253E-02  0.0000000E+00 -0.5050505E-02  0.3922202E-07  0.0000000E+00 -0.3084902E-03
 -0.5048636E-02  0.0000000E+00 -0.5050505E-02  0.4079601E-07  0.0000000E+00 -0.3084779E-03
 -0.5047442E-02  0.0000000E+00 -0.5050505E-02  0.4223010E-07  0.0000000E+00 -0.3084651E-03
 -0.5045727E-02  0.0000000E+00 -0.5050505E-02  0.4351716E-07  0.0000000E+00 -0.3084518E-03
 -0.5043261E-02  0.0000000E+00 -0.5050505E-02  0.4465033E-07  0.0000000E+00 -0.3084382E-03
 -0.5038714E-02  0.0000000E+00 -0.5050505E-02  0.4562304E-07  0.0000000E+00 -0.3084242E-03
 -0.5032318E-02  0.0000000E+00 -0.5050505E-02  0.4642911E-07  0.0000000E+00 -0.3084100E-03
 -0.5022454E-02  0.0000000E+00 -0.5050505E-02  0.4706277E-07  0.0000000E+00 -0.3083955E-03
 -0.5012589E-02  0.0000000E+00 -0.5050505E-02  0.4751868E-07  0.0000000E+00 -0.3083808E-03
 -0.5002725E-02  0.0000000E+00 -0.5050505E-02  0.4779207E-07  0.0000000E+00 -0.3083661E-03
 -0.4992860E-02  0.0000000E+00 -0.5050505E-02  0.4787869E-07  0.0000000E+00 -0.3083513E-03
 -0.4976523E-02  0.0000000E+00 -0.5050505E-02  0.4777497E-07  0.0000000E+00 -0.3083364E-03
 -0.4956794E-02  0.0000000E+00 -0.5050505E-02  0.4747800E-07  0.0000000E+00 -0.3083217E-03
 -0.4937066E-02  0.0000000E+00 -0.5050505E-02  0.4698563E-07  0.0000000E+00 -0.3083070E-03