title = "dataset feddes"
variables = "x", "y", "z", "h_w", "p_w", "s_w", "theta_w", "transp", "evap"
zone t = "Flow variables, solution time =  4.400E+01 days        " i =  100, j =  100, k =    1,  f=point
  0.0000000E+00  0.0000000E+00  0.0000000E+00 -0.1000000E+02 -0.1000000E+02  0.4298033E+00  0.1839558E+00  0.0000000E+00  0.0000000E+00
  0.1010101E-01  0.0000000E+00  0.0000000E+00 -0.1000000E+02 -0.1000000E+02  0.4298033E+00  0.1839558E+00  0.0000000E+00  0.0000000E+00
  0.2020202E-01  0.0000000E+00  0.0000000E+00 -0.1000000E+02 -0.1000000E+02  0.4298033E+00  0.1839558E+00  0.0000000E+00  0.0000000E+00
  0.3030303E-01  0.0000000E+00  0.0000000E+00 -0.1000000E+02 -0.1000000E+02  0.4298033E+00  0.1839558E+00  0.0000000E+00  0.0000000E+00
  0.4040404E-01  0.0000000E+00  0.0000000E+00 -0.1000000E+02 -0.1000000E+02  0.4298033E+00  0.1839558E+00  0.0000000E+00  0.0000000E+00
  0.5050505E-01  0.0000000E+00  0.0000000E+00 -0.1000000E+02 -0.1000000E+02  0.4298033E+00  0.1839558E+00  0.0000000E+00  0.0000000E+00
  0.6060606E-01  0.0000000E+00  0.0000000E+00 -0.1000000E+02 -0.1000000E+02  0.4298033E+00  0.1839558E+00  0.0000000E+00  0.0000000E+00
  0.7070707E-01  0.0000000E+00  0.0000000E+00 -0.1000000E+02 -0.1000000E+02  0.4298033E+00  0.1839558E+00  0.0000000E+00  0.0000000E+00
  0.8080808E-01  0.0000000E+00  0.0000000E+00 -0.1000000E+02 -0.1000000E+02  0.4298033E+00  0.1839558E+00  0.0000000E+00  0.0000000E+00
  0.9090909E-01  0.0000000E+00  0.0000000E+00 -0.1000000E+02 -0.1000000E+02  0.4298033E+00  0.1839558E+00  0.0000000E+00  0.0000000E+00
  0.1010101E+00  0.0000000E+00  0.0000000E+00 -0.1000000E+02 -0.1000000E+02  0.4298033E+00  0.1839558E+00  0.0000000E+00  0.0000000E+00
  0.1111111E+00  0.0000000E+00  0.0000000E+00 -0.1000000E+02 -0.1000000E+02  0.4298033E+00  0.1839558E+00  0.0000000E+00  0.0000000E+00
  0.1212121E+00  0.0000000E+00  0.0000000E+00 -0.1000000E+02 -0.1000000E+02  0.4298033E+00  0.1839558E+00  0.0000000E+00  0.0000000E+00
  0.1313131E+00  0.0000000E+00  0.0000000E+00 -0.1000000E+02 -0.1000000E+02  0.4298033E+00  0.1839558E+00  0.0000000E+00  0.0000000E+00
  0.1414142E+00  0.0000000E+00  0.0000000E+00 -0.1000000E+02 -0.1000000E+02  0.4298033E+00  0.1839558E+00  0.0000000E+00  0.0000000E+00
  0.1515152E+00  0.0000000E+00  0.0000000E+00 -0.1000000E+02 -0.1000000E+02  0.4298033E+00  0.1839558E+00  0.0000000E+00  0.0000000E+00
  0.1616162E+00  0.0000000E+00  0.0000000E+00 -0.1000000E+02 -0.1000000E+02  0.4298033E+00  0.1839558E+00  0.0000000E+00  0.0000000E+00
  0.1717172E+00  0.0000000E+00  0.0000000E+00 -0.1000000E+02 -0.1000000E+02  0.4298033E+00  0.1839558E+00  0.0000000E+00  0.0000000E+00
  0.1818182E+00  0.0000000E+00  0.0000000E+00 -0.1000000E+02 -0.1000000E+02  0.4298033E+00  0.1839558E+00  0.0000000E+00  0.0000000E+00
  0.1919192E+00  0.0000000E+00  0.0000000E+00 -0.1000000E+02 -0.1000000E+02  0.4298033E+00  0.1839558E+00  0.0000000E+00  0.0000000E+00
  0.2020202E+00  0.0000000E+00  0.0000000E+00 -0.1000000E+02 -0.1000000E+02  0.4298033E+00  0.1839558E+00  0.0000000E+00  0.0000000E+00
  0.2121212E+00  0.0000000E+00  0.0000000E+00 -0.1000000E+02 -0.1000000E+02  0.4298033E+00  0.1839558E+00  0.0000000E+00  0.0000000E+00
  0.2222222E+00  0.0000000E+00  0.0000000E+00 -0.1000000E+02 -0.1000000E+02  0.4298033E+00  0.1839558E+00  0.0000000E+00  0.0000000E+00
  0.2323232E+00  0.0000000E+00  0.0000000E+00 -0.1000000E+02 -0.1000000E+02  0.4298033E+00  0.1839558E+00  0.0000000E+00  0.0000000E+00
  0.2424242E+00  0.0000000E+00  0.0000000E+00 -0.1000000E+02 -0.1000000E+02  0.4298033E+00  0.1839558E+00  0.0000000E+00  0.0000000E+00
  0.2525252E+00  0.0000000E+00  0.0000000E+00 -0.1000000E+02 -0.1000000E+02  0.4298033E+00  0.1839558E+00  0.0000000E+00  0.0000000E+00
  0.2626262E+00  0.0000000E+00  0.0000000E+00 -0.1000000E+02 -0.1000000E+02  0.4298033E+00  0.1839558E+00  0.0000000E+00  0.0000000E+00
  0.2727273E+00  0.0000000E+00  0.0000000E+00 -0.1000000E+02 -0.1000000E+02  0.4298033E+00  0.1839558E+00  0.0000000E+00  0.0000000E+00
  0.2828283E+00  0.0000000E+00  0.0000000E+00 -0.1000000E+02 -0.1000000E+02  0.4298033E+00  0.1839558E+00  0.0000000E+00  0.0000000E+00
  0.2929293E+00  0.0000000E+00  0.0000000E+00 -0.1000000E+02 -0.1000000E+02  0.4298033E+00  0.1839558E+00  0.0000000E+00  0.0000000E+00
  0.3030303E+00  0.0000000E+00  0.0000000E+00 -0.1000000E+02 -0.1000000E+02  0.4298033E+00  0.1839558E+00  0.0000000E+00  0.0000000E+00
  0.3131313E+00  0.0000000E+00  0.0000000E+00 -0.1000000E+02 -0.1000000E+02  0.4298033E+00  0.1839558E+00  0.0000000E+00  0.0000000E+00
  0.3232324E+00  0.0000000E+00  0.0000000E+00 -0.1000000E+02 -0.1000000E+02  0.4298033E+00  0.1839558E+00  0.0000000E+00  0.0000000E+00
  0.3333334E+00  0.0000000E+00  0.0000000E+00 -0.1000000E+02 -0.1000000E+02  0.4298033E+00  0.1839558E+00  0.0000000E+00  0.0000000E+00
  0.3434344E+00  0.0000000E+00  0.0000000E+00 -0.1000000E+02 -0.1000000E+02  0.4298033E+00  0.1839558E+00  0.0000000E+00  0.0000000E+00
  0.3535354E+00  0.0000000E+00  0.0000000E+00 -0.1000000E+02 -0.1000000E+02  0.4298033E+00  0.1839558E+00  0.0000000E+00  0.0000000E+00
  0.3636364E+00  0.0000000E+00  0.0000000E+00 -0.1000000E+02 -0.1000000E+02  0.4298033E+00  0.1839558E+00  0.0000000E+00  0.0000000E+00
  0.3737375E+00  0.0000000E+00  0.0000000E+00 -0.1000000E+02 -0.1000000E+02  0.4298033E+00  0.1839558E+00  0.0000000E+00  0.0000000E+00
  0.3838385E+00  0.0000000E+00  0.0000000E+00 -0.1000000E+02 -0.1000000E+02  0.4298033E+00  0.1839558E+00  0.0000000E+00  0.0000000E+00
  0.3939395E+00  0.0000000E+00  0.0000000E+00 -0.1000000E+02 -0.1000000E+02  0.4298033E+00  0.1839558E+00  0.0000000E+00  0.0000000E+00
  0.4040405E+00  0.0000000E+00  0.0000000E+00 -0.1000000E+02 -0.1000000E+02  0.4298033E+00  0.1839558E+00  0.0000000E+00  0.0000000E+00
  0.4141415E+00  0.0000000E+00  0.0000000E+00 -0.1000000E+02 -0.1000000E+02  0.4298033E+00  0.1839558E+00  0.0000000E+00  0.0000000E+00
  0.4242426E+00  0.0000000E+00  0.0000000E+00 -0.1000000E+02 -0.1000000E+02  0.4298033E+00  0.1839558E+00  0.0000000E+00  0.0000000E+00
  0.4343436E+00  0.0000000E+00  0.0000000E+00 -0.1000000E+02 -0.1000000E+02  0.4298033E+00  0.1839558E+00  0.0000000E+00  0.0000000E+00
  0.4444446E+00  0.0000000E+00  0.0000000E+00 -0.1000000E+02 -0.1000000E+02  0.4298033E+00  0.1839558E+00  0.0000000E+00  0.0000000E+00
  0.4545456E+00  0.0000000E+00  0.0000000E+00 -0.1000000E+02 -0.1000000E+02  0.4298033E+00  0.1839558E+00  0.0000000E+00  0.0000000E+00
  0.4646466E+00  0.0000000E+00  0.0000000E+00 -0.1000000E+02 -0.1000000E+02  0.4298033E+00  0.1839558E+00  0.0000000E+00  0.0000000E+00
  0.4747477E+00  0.0000000E+00  0.0000000E+00 -0.1000000E+02 -0.1000000E+02  0.4298033E+00  0.1839558E+00  0.0000000E+00  0.0000000E+00
  0.4848487E+00  0.0000000E+00  0.0000000E+00 -0.1000000E+02 -0.1000000E+02  0.4298033E+00  0.1839558E+00  0.0000000E+00  0.0000000E+00
  0.4949497E+00  0.0000000E+00  0.0000000E+00 -0.1000000E+02 -0.1000000E+02  0.4298033E+00  0.1839558E+00  0.0000000E+00  0.0000000E+00
  0.5050507E+00  0.0000000E+00  0.0000000E+00 -0.1000000E+02 -0.1000000E+02  0.4298033E+00  0.1839558E+00  0.0000000E+00  0.0000000E+00
  0.5151517E+00  0.0000000E+00  0.0000000E+00 -0.1000000E+02 -0.1000000E+02  0.4298033E+00  0.1839558E+00  0.0000000E+00  0.0000000E+00
  0.5252528E+00  0.0000000E+00  0.0000000E+00 -0.1000000E+02 -0.1000000E+02  0.4298033E+00  0.1839558E+00  0.0000000E+00  0.0000000E+00
  0.5353538E+00  0.0000000E+00  0.0000000E+00 -0.1000000E+02 -0.1000000E+02  0.4298033E+00  0.1839558E+00  0.0000000E+00  0.0000000E+00
  0.5454548E+00  0.0000000E+00  0.0000000E+00 -0.1000000E+02 -0.1000000E+02  0.4298033E+00  0.1839558E+00  0.0000000E+00  0.0000000E+00
  0.5555558E+00  0.0000000E+00  0.0000000E+00 -0.1000000E+02 -0.1000000E+02  0.4298033E+00  0.1839558E+00  0.0000000E+00  0.0000000E+00
  0.5656568E+00  0.0000000E+00  0.0000000E+00 -0.1000000E+02 -0.1000000E+02  0.4298033E+00  0.1839558E+00  0.0000000E+00  0.0000000E+00
  0.5757579E+00  0.0000000E+00  0.0000000E+00 -0.1000000E+02 -0.1000000E+02  0.4298033E+00  0.1839558E+00  0.0000000E+00  0.0000000E+00
  0.5858589E+00  0.0000000E+00  0.0000000E+00 -0.1000000E+02 -0.1000000E+02  0.4298033E+00  0.1839558E+00  0.0000000E+00  0.0000000E+00
  0.5959599E+00  0.0000000E+00  0.0000000E+00 -0.1000000E+02 -0.1000000E+02  0.4298033E+00  0.1839558E+00  0.0000000E+00  0.0000000E+00
  0.6060609E+00  0.0000000E+00  0.0000000E+00 -0.1000000E+02 -0.1000000E+02  0.4298033E+00  0.1839558E+00  0.0000000E+00  0.0000000E+00
  0.6161619E+00  0.0000000E+00  0.0000000E+00 -0.1000000E+02 -0.1000000E+02  0.4298033E+00  0.1839558E+00  0.0000000E+00  0.0000000E+00
  0.6262630E+00  0.0000000E+00  0.0000000E+00 -0.1000000E+02 -0.1000000E+02  0.4298033E+00  0.1839558E+00  0.0000000E+00  0.0000000E+00
  0.6363640E+00  0.0000000E+00  0.0000000E+00 -0.1000000E+02 -0.1000000E+02  0.4298033E+00  0.1839558E+00  0.0000000E+00  0.0000000E+00
  0.6464650E+00  0.0000000E+00  0.0000000E+00 -0.1000000E+02 -0.1000000E+02  0.4298033E+00  0.1839558E+00  0.0000000E+00  0.0000000E+00
  0.6565660E+00  0.0000000E+00  0.0000000E+00 -0.1000000E+02 -0.1000000E+02  0.4298033E+00  0.1839558E+00  0.0000000E+00  0.0000000E+00
  0.6666670E+00  0.0000000E+00  0.0000000E+00 -0.1000000E+02 -0.1000000E+02  0.4298033E+00  0.1839558E+00  0.0000000E+00  0.0000000E+00
  0.6767681E+00  0.0000000E+00  0.0000000E+00 -0.1000000E+02 -0.1000000E+02  0.4298033E+00  0.1839558E+00  0.0000000E+00  0.0000000E+00
  0.6868691E+00  0.0000000E+00  0.0000000E+00 -0.1000000E+02 -0.1000000E+02  0.4298033E+00  0.1839558E+00  0.0000000E+00  0.0000000E+00
  0.6969701E+00  0.0000000E+00  0.0000000E+00 -0.1000000E+02 -0.1000000E+02  0.4298033E+00  0.1839558E+00  0.0000000E+00  0.0000000E+00
  0.7070711E+00  0.0000000E+00  0.0000000E+00 -0.1000000E+02 -0.1000000E+02  0.4298033E+00  0.1839558E+00  0.0000000E+00  0.0000000E+00
  0.7171721E+00  0.0000000E+00  0.0000000E+00 -0.1000000E+02 -0.1000000E+02  0.4298033E+00  0.1839558E+00  0.0000000E+00  0.0000000E+00
  0.7272732E+00  0.0000000E+00  0.0000000E+00 -0.1000000E+02 -0.1000000E+02  0.4298033E+00  0.1839558E+00  0.0000000E+00  0.0000000E+00
  0.7373742E+00  0.0000000E+00  0.0000000E+00 -0.1000000E+02 -0.1000000E+02  0.4298033E+00  0.1839558E+00  0.0000000E+00  0.0000000E+00
  0.7474752E+00  0.0000000E+00  0.0000000E+00 -0.1000000E+02 -0.1000000E+02  0.4298033E+00  0.1839558E+00  0.0000000E+00  0.0000000E+00
  0.7575762E+00  0.0000000E+00  0.0000000E+00 -0.1000000E+02 -0.1000000E+02  0.4298033E+00  0.1839558E+00  0.0000000E+00  0.0000000E+00
  0.7676772E+00  0.0000000E+00  0.0000000E+00 -0.1000000E+02 -0.1000000E+02  0.4298033E+00  0.1839558E+00  0.0000000E+00  0.0000000E+00
  0.7777783E+00  0.0000000E+00  0.0000000E+00 -0.1000000E+02 -0.1000000E+02  0.4298033E+00  0.1839558E+00  0.0000000E+00  0.0000000E+00
  0.7878793E+00  0.0000000E+00  0.0000000E+00 -0.1000000E+02 -0.1000000E+02  0.4298033E+00  0.1839558E+00  0.0000000E+00  0.0000000E+00
  0.7979803E+00  0.0000000E+00  0.0000000E+00 -0.1000000E+02 -0.1000000E+02  0.4298033E+00  0.1839558E+00  0.0000000E+00  0.0000000E+00
  0.8080813E+00  0.0000000E+00  0.0000000E+00 -0.1000000E+02 -0.1000000E+02  0.4298033E+00  0.1839558E+00  0.0000000E+00  0.0000000E+00
  0.8181823E+00  0.0000000E+00  0.0000000E+00 -0.1000000E+02 -0.1000000E+02  0.4298033E+00  0.1839558E+00  0.0000000E+00  0.0000000E+00
  0.8282834E+00  0.0000000E+00  0.0000000E+00 -0.1000000E+02 -0.1000000E+02  0.4298033E+00  0.1839558E+00  0.0000000E+00  0.0000000E+00
  0.8383844E+00  0.0000000E+00  0.0000000E+00 -0.1000000E+02 -0.1000000E+02  0.4298033E+00  0.1839558E+00  0.0000000E+00  0.0000000E+00
  0.8484854E+00  0.0000000E+00  0.0000000E+00 -0.1000000E+02 -0.1000000E+02  0.4298033E+00  0.1839558E+00  0.0000000E+00  0.0000000E+00
  0.8585864E+00  0.0000000E+00  0.0000000E+00 -0.1000000E+02 -0.1000000E+02  0.4298033E+00  0.1839558E+00  0.0000000E+00  0.0000000E+00
  0.8686875E+00  0.0000000E+00  0.0000000E+00 -0.1000000E+02 -0.1000000E+02  0.4298033E+00  0.1839558E+00  0.0000000E+00  0.0000000E+00
  0.8787885E+00  0.0000000E+00  0.0000000E+00 -0.1000000E+02 -0.1000000E+02  0.4298033E+00  0.1839558E+00  0.0000000E+00  0.0000000E+00
  0.8888895E+00  0.0000000E+00  0.0000000E+00 -0.1000000E+02 -0.1000000E+02  0.4298033E+00  0.1839558E+00  0.0000000E+00  0.0000000E+00
  0.8989905E+00  0.0000000E+00  0.0000000E+00 -0.1000000E+02 -0.1000000E+02  0.4298033E+00  0.1839558E+00  0.0000000E+00  0.0000000E+00
  0.9090915E+00  0.0000000E+00  0.0000000E+00 -0.1000000E+02 -0.1000000E+02  0.4298033E+00  0.1839558E+00  0.0000000E+00  0.0000000E+00
  0.9191926E+00  0.0000000E+00  0.0000000E+00 -0.1000000E+02 -0.1000000E+02  0.4298033E+00  0.1839558E+00  0.0000000E+00  0.0000000E+00
  0.9292936E+00  0.0000000E+00  0.0000000E+00 -0.1000000E+02 -0.1000000E+02  0.4298033E+00  0.1839558E+00  0.0000000E+00  0.0000000E+00
  0.9393946E+00  0.0000000E+00  0.0000000E+00 -0.1000000E+02 -0.1000000E+02  0.4298033E+00  0.1839558E+00  0.0000000E+00  0.0000000E+00
  0.9494956E+00  0.0000000E+00  0.0000000E+00 -0.1000000E+02 -0.1000000E+02  0.4298033E+00  0.1839558E+00  0.0000000E+00  0.0000000E+00
  0.9595966E+00  0.0000000E+00  0.0000000E+00 -0.1000000E+02 -0.1000000E+02  0.4298033E+00  0.1839558E+00  0.0000000E+00  0.0000000E+00
  0.9696977E+00  0.0000000E+00  0.0000000E+00 -0.1000000E+02 -0.1000000E+02  0.4298033E+00  0.1839558E+00  0.0000000E+00  0.0000000E+00
  0.9797987E+00  0.0000000E+00  0.0000000E+00 -0.1000000E+02 -0.1000000E+02  0.4298033E+00  0.1839558E+00  0.0000000E+00  0.0000000E+00
  0.9898997E+00  0.0000000E+00  0.0000000E+00 -0.1000000E+02 -0.1000000E+02  0.4298033E+00  0.1839558E+00  0.0000000E+00  0.0000000E+00
  0.1000001E+01  0.0000000E+00  0.5826218E-18 -0.9944731E+01 -0.9944731E+01  0.4305338E+00  0.1842685E+00  0.0000000E+00  0.0000000E+00
  0.0000000E+00  0.0000000E+00  0.5826219E-18 -0.9909907E+01 -0.9920008E+01  0.4308623E+00  0.1844091E+00  0.0000000E+00  0.0000000E+00
  0.1010101E-01  0.0000000E+00  0.5826219E-18 -0.9909910E+01 -0.9920011E+01  0.4308623E+00  0.1844091E+00  0.0000000E+00  0.0000000E+00
  0.2020202E-01  0.0000000E+00  0.5826219E-18 -0.9909921E+01 -0.9920022E+01  0.4308621E+00  0.1844090E+00  0.0000000E+00  0.0000000E+00
  0.3030303E-01  0.0000000E+00  0.5826219E-18 -0.9909939E+01 -0.9920040E+01  0.4308619E+00  0.1844089E+00  0.0000000E+00  0.0000000E+00
  0.4040404E-01  0.0000000E+00  0.5826219E-18 -0.9909964E+01 -0.9920065E+01  0.4308616E+00  0.1844088E+00  0.0000000E+00  0.0000000E+00
  0.5050505E-01  0.0000000E+00  0.5826219E-18 -0.9909997E+01 -0.9920098E+01  0.4308611E+00  0.1844086E+00  0.0000000E+00  0.0000000E+00
  0.6060606E-01  0.0000000E+00  0.5826219E-18 -0.9910036E+01 -0.9920137E+01  0.4308606E+00  0.1844083E+00  0.0000000E+00  0.0000000E+00
  0.7070707E-01  0.0000000E+00  0.5826219E-18 -0.9910083E+01 -0.9920184E+01  0.4308600E+00  0.1844081E+00  0.0000000E+00  0.0000000E+00
  0.8080808E-01  0.0000000E+00  0.5826219E-18 -0.9910136E+01 -0.9920237E+01  0.4308593E+00  0.1844078E+00  0.0000000E+00  0.0000000E+00
  0.9090909E-01  0.0000000E+00  0.5826219E-18 -0.9910196E+01 -0.9920297E+01  0.4308585E+00  0.1844074E+00  0.0000000E+00  0.0000000E+00
  0.1010101E+00  0.0000000E+00  0.5826219E-18 -0.9910263E+01 -0.9920364E+01  0.4308576E+00  0.1844071E+00  0.0000000E+00  0.0000000E+00
  0.1111111E+00  0.0000000E+00  0.5826219E-18 -0.9910336E+01 -0.9920437E+01  0.4308566E+00  0.1844066E+00  0.0000000E+00  0.0000000E+00
  0.1212121E+00  0.0000000E+00  0.5826219E-18 -0.9910415E+01 -0.9920516E+01  0.4308556E+00  0.1844062E+00  0.0000000E+00  0.0000000E+00
  0.1313131E+00  0.0000000E+00  0.5826219E-18 -0.9910501E+01 -0.9920602E+01  0.4308544E+00  0.1844057E+00  0.0000000E+00  0.0000000E+00
  0.1414142E+00  0.0000000E+00  0.5826219E-18 -0.9910592E+01 -0.9920693E+01  0.4308532E+00  0.1844052E+00  0.0000000E+00  0.0000000E+00
  0.1515152E+00  0.0000000E+00  0.5826219E-18 -0.9910690E+01 -0.9920791E+01  0.4308519E+00  0.1844046E+00  0.0000000E+00  0.0000000E+00
  0.1616162E+00  0.0000000E+00  0.5826219E-18 -0.9910793E+01 -0.9920894E+01  0.4308505E+00  0.1844040E+00  0.0000000E+00  0.0000000E+00
  0.1717172E+00  0.0000000E+00  0.5826219E-18 -0.9910901E+01 -0.9921002E+01  0.4308491E+00  0.1844034E+00  0.0000000E+00  0.0000000E+00
  0.1818182E+00  0.0000000E+00  0.5826219E-18 -0.9911014E+01 -0.9921115E+01  0.4308476E+00  0.1844028E+00  0.0000000E+00  0.0000000E+00
  0.1919192E+00  0.0000000E+00  0.5826219E-18 -0.9911132E+01 -0.9921233E+01  0.4308460E+00  0.1844021E+00  0.0000000E+00  0.0000000E+00
  0.2020202E+00  0.0000000E+00  0.5826219E-18 -0.9911254E+01 -0.9921355E+01  0.4308444E+00  0.1844014E+00  0.0000000E+00  0.0000000E+00
  0.2121212E+00  0.0000000E+00  0.5826219E-18 -0.9911380E+01 -0.9921481E+01  0.4308427E+00  0.1844007E+00  0.0000000E+00  0.0000000E+00
  0.2222222E+00  0.0000000E+00  0.5826219E-18 -0.9911510E+01 -0.9921611E+01  0.4308410E+00  0.1843999E+00  0.0000000E+00  0.0000000E+00
  0.2323232E+00  0.0000000E+00  0.5826219E-18 -0.9911643E+01 -0.9921744E+01  0.4308392E+00  0.1843992E+00  0.0000000E+00  0.0000000E+00
  0.2424242E+00  0.0000000E+00  0.5826219E-18 -0.9911780E+01 -0.9921881E+01  0.4308374E+00  0.1843984E+00  0.0000000E+00  0.0000000E+00
  0.2525252E+00  0.0000000E+00  0.5826219E-18 -0.9911918E+01 -0.9922019E+01  0.4308356E+00  0.1843976E+00  0.0000000E+00  0.0000000E+00
  0.2626262E+00  0.0000000E+00  0.5826219E-18 -0.9912059E+01 -0.9922160E+01  0.4308337E+00  0.1843968E+00  0.0000000E+00  0.0000000E+00
  0.2727273E+00  0.0000000E+00  0.5826219E-18 -0.9912201E+01 -0.9922302E+01  0.4308318E+00  0.1843960E+00  0.0000000E+00  0.0000000E+00
  0.2828283E+00  0.0000000E+00  0.5826219E-18 -0.9912344E+01 -0.9922445E+01  0.4308299E+00  0.1843952E+00  0.0000000E+00  0.0000000E+00
  0.2929293E+00  0.0000000E+00  0.5826219E-18 -0.9912487E+01 -0.9922588E+01  0.4308280E+00  0.1843944E+00  0.0000000E+00  0.0000000E+00
  0.3030303E+00  0.0000000E+00  0.5826219E-18 -0.9912631E+01 -0.9922732E+01  0.4308261E+00  0.1843936E+00  0.0000000E+00  0.0000000E+00
  0.3131313E+00  0.0000000E+00  0.5826219E-18 -0.9912774E+01 -0.9922875E+01  0.4308242E+00  0.1843928E+00  0.0000000E+00  0.0000000E+00
  0.3232324E+00  0.0000000E+00  0.5826219E-18 -0.9912915E+01 -0.9923016E+01  0.4308223E+00  0.1843919E+00  0.0000000E+00  0.0000000E+00
  0.3333334E+00  0.0000000E+00  0.5826219E-18 -0.9913054E+01 -0.9923155E+01  0.4308205E+00  0.1843912E+00  0.0000000E+00  0.0000000E+00
  0.3434344E+00  0.0000000E+00  0.5826219E-18 -0.9913191E+01 -0.9923292E+01  0.4308186E+00  0.1843904E+00  0.0000000E+00  0.0000000E+00
  0.3535354E+00  0.0000000E+00  0.5826219E-18 -0.9913324E+01 -0.9923425E+01  0.4308169E+00  0.1843896E+00  0.0000000E+00  0.0000000E+00
  0.3636364E+00  0.0000000E+00  0.5826219E-18 -0.9913454E+01 -0.9923555E+01  0.4308151E+00  0.1843889E+00  0.0000000E+00  0.0000000E+00
  0.3737375E+00  0.0000000E+00  0.5826219E-18 -0.9913578E+01 -0.9923679E+01  0.4308135E+00  0.1843882E+00  0.0000000E+00  0.0000000E+00
  0.3838385E+00  0.0000000E+00  0.5826219E-18 -0.9913697E+01 -0.9923798E+01  0.4308119E+00  0.1843875E+00  0.0000000E+00  0.0000000E+00
  0.3939395E+00  0.0000000E+00  0.5826219E-18 -0.9913809E+01 -0.9923910E+01  0.4308104E+00  0.1843869E+00  0.0000000E+00  0.0000000E+00
  0.4040405E+00  0.0000000E+00  0.5826219E-18 -0.9913914E+01 -0.9924015E+01  0.4308090E+00  0.1843863E+00  0.0000000E+00  0.0000000E+00
  0.4141415E+00  0.0000000E+00  0.5826219E-18 -0.9914012E+01 -0.9924113E+01  0.4308077E+00  0.1843857E+00  0.0000000E+00  0.0000000E+00
  0.4242426E+00  0.0000000E+00  0.5826219E-18 -0.9914101E+01 -0.9924202E+01  0.4308065E+00  0.1843852E+00  0.0000000E+00  0.0000000E+00
  0.4343436E+00  0.0000000E+00  0.5826219E-18 -0.9914180E+01 -0.9924281E+01  0.4308055E+00  0.1843847E+00  0.0000000E+00  0.0000000E+00
  0.4444446E+00  0.0000000E+00  0.5826219E-18 -0.9914250E+01 -0.9924351E+01  0.4308046E+00  0.1843843E+00  0.0000000E+00  0.0000000E+00
  0.4545456E+00  0.0000000E+00  0.5826219E-18 -0.9914309E+01 -0.9924410E+01  0.4308038E+00  0.1843840E+00  0.0000000E+00  0.0000000E+00
  0.4646466E+00  0.0000000E+00  0.5826219E-18 -0.9914357E+01 -0.9924458E+01  0.4308031E+00  0.1843837E+00  0.0000000E+00  0.0000000E+00
  0.4747477E+00  0.0000000E+00  0.5826219E-18 -0.9914394E+01 -0.9924495E+01  0.4308026E+00  0.1843835E+00  0.0000000E+00  0.0000000E+00
  0.4848487E+00  0.0000000E+00  0.5826219E-18 -0.9914419E+01 -0.9924520E+01  0.4308023E+00  0.1843834E+00  0.0000000E+00  0.0000000E+00
  0.4949497E+00  0.0000000E+00  0.5826219E-18 -0.9914432E+01 -0.9924533E+01  0.4308021E+00  0.1843833E+00  0.0000000E+00  0.0000000E+00
  0.5050507E+00  0.0000000E+00  0.5826219E-18 -0.9914433E+01 -0.9924534E+01  0.4308021E+00  0.1843833E+00  0.0000000E+00  0.0000000E+00
  0.5151517E+00  0.0000000E+00  0.5826219E-18 -0.9914423E+01 -0.9924524E+01  0.4308022E+00  0.1843834E+00  0.0000000E+00  0.0000000E+00
  0.5252528E+00  0.0000000E+00  0.5826219E-18 -0.9914401E+01 -0.9924502E+01  0.4308025E+00  0.1843835E+00  0.0000000E+00  0.0000000E+00
  0.5353538E+00  0.0000000E+00  0.5826219E-18 -0.9914368E+01 -0.9924469E+01  0.4308030E+00  0.1843837E+00  0.0000000E+00  0.0000000E+00
  0.5454548E+00  0.0000000E+00  0.5826219E-18 -0.9914323E+01 -0.9924424E+01  0.4308036E+00  0.1843839E+00  0.0000000E+00  0.0000000E+00
  0.5555558E+00  0.0000000E+00  0.5826219E-18 -0.9914268E+01 -0.9924369E+01  0.4308043E+00  0.1843842E+00  0.0000000E+00  0.0000000E+00
  0.5656568E+00  0.0000000E+00  0.5826219E-18 -0.9914203E+01 -0.9924304E+01  0.4308052E+00  0.1843846E+00  0.0000000E+00  0.0000000E+00
  0.5757579E+00  0.0000000E+00  0.5826219E-18 -0.9914128E+01 -0.9924229E+01  0.4308062E+00  0.1843850E+00  0.0000000E+00  0.0000000E+00
  0.5858589E+00  0.0000000E+00  0.5826219E-18 -0.9914045E+01 -0.9924146E+01  0.4308073E+00  0.1843855E+00  0.0000000E+00  0.0000000E+00
  0.5959599E+00  0.0000000E+00  0.5826219E-18 -0.9913953E+01 -0.9924054E+01  0.4308085E+00  0.1843860E+00  0.0000000E+00  0.0000000E+00
  0.6060609E+00  0.0000000E+00  0.5826219E-18 -0.9913853E+01 -0.9923954E+01  0.4308098E+00  0.1843866E+00  0.0000000E+00  0.0000000E+00
  0.6161619E+00  0.0000000E+00  0.5826219E-18 -0.9913746E+01 -0.9923847E+01  0.4308112E+00  0.1843872E+00  0.0000000E+00  0.0000000E+00
  0.6262630E+00  0.0000000E+00  0.5826219E-18 -0.9913633E+01 -0.9923734E+01  0.4308128E+00  0.1843879E+00  0.0000000E+00  0.0000000E+00
  0.6363640E+00  0.0000000E+00  0.5826219E-18 -0.9913514E+01 -0.9923615E+01  0.4308143E+00  0.1843885E+00  0.0000000E+00  0.0000000E+00
  0.6464650E+00  0.0000000E+00  0.5826219E-18 -0.9913390E+01 -0.9923491E+01  0.4308160E+00  0.1843892E+00  0.0000000E+00  0.0000000E+00
  0.6565660E+00  0.0000000E+00  0.5826219E-18 -0.9913262E+01 -0.9923363E+01  0.4308177E+00  0.1843900E+00  0.0000000E+00  0.0000000E+00
  0.6666670E+00  0.0000000E+00  0.5826219E-18 -0.9913130E+01 -0.9923231E+01  0.4308194E+00  0.1843907E+00  0.0000000E+00  0.0000000E+00
  0.6767681E+00  0.0000000E+00  0.5826219E-18 -0.9912995E+01 -0.9923096E+01  0.4308212E+00  0.1843915E+00  0.0000000E+00  0.0000000E+00
  0.6868691E+00  0.0000000E+00  0.5826219E-18 -0.9912857E+01 -0.9922958E+01  0.4308231E+00  0.1843923E+00  0.0000000E+00  0.0000000E+00
  0.6969701E+00  0.0000000E+00  0.5826219E-18 -0.9912717E+01 -0.9922818E+01  0.4308249E+00  0.1843931E+00  0.0000000E+00  0.0000000E+00
  0.7070711E+00  0.0000000E+00  0.5826219E-18 -0.9912576E+01 -0.9922677E+01  0.4308268E+00  0.1843939E+00  0.0000000E+00  0.0000000E+00
  0.7171721E+00  0.0000000E+00  0.5826219E-18 -0.9912435E+01 -0.9922536E+01  0.4308287E+00  0.1843947E+00  0.0000000E+00  0.0000000E+00
  0.7272732E+00  0.0000000E+00  0.5826219E-18 -0.9912293E+01 -0.9922394E+01  0.4308306E+00  0.1843955E+00  0.0000000E+00  0.0000000E+00
  0.7373742E+00  0.0000000E+00  0.5826219E-18 -0.9912151E+01 -0.9922252E+01  0.4308325E+00  0.1843963E+00  0.0000000E+00  0.0000000E+00
  0.7474752E+00  0.0000000E+00  0.5826219E-18 -0.9912011E+01 -0.9922112E+01  0.4308343E+00  0.1843971E+00  0.0000000E+00  0.0000000E+00
  0.7575762E+00  0.0000000E+00  0.5826219E-18 -0.9911871E+01 -0.9921972E+01  0.4308362E+00  0.1843979E+00  0.0000000E+00  0.0000000E+00
  0.7676772E+00  0.0000000E+00  0.5826219E-18 -0.9911734E+01 -0.9921835E+01  0.4308380E+00  0.1843987E+00  0.0000000E+00  0.0000000E+00
  0.7777783E+00  0.0000000E+00  0.5826219E-18 -0.9911598E+01 -0.9921699E+01  0.4308398E+00  0.1843994E+00  0.0000000E+00  0.0000000E+00
  0.7878793E+00  0.0000000E+00  0.5826219E-18 -0.9911466E+01 -0.9921567E+01  0.4308416E+00  0.1844002E+00  0.0000000E+00  0.0000000E+00
  0.7979803E+00  0.0000000E+00  0.5826219E-18 -0.9911335E+01 -0.9921437E+01  0.4308433E+00  0.1844009E+00  0.0000000E+00  0.0000000E+00
  0.8080813E+00  0.0000000E+00  0.5826219E-18 -0.9911209E+01 -0.9921310E+01  0.4308450E+00  0.1844017E+00  0.0000000E+00  0.0000000E+00
  0.8181823E+00  0.0000000E+00  0.5826219E-18 -0.9911085E+01 -0.9921186E+01  0.4308467E+00  0.1844024E+00  0.0000000E+00  0.0000000E+00
  0.8282834E+00  0.0000000E+00  0.5826219E-18 -0.9910965E+01 -0.9921066E+01  0.4308483E+00  0.1844031E+00  0.0000000E+00  0.0000000E+00
  0.8383844E+00  0.0000000E+00  0.5826219E-18 -0.9910848E+01 -0.9920949E+01  0.4308498E+00  0.1844037E+00  0.0000000E+00  0.0000000E+00
  0.8484854E+00  0.0000000E+00  0.5826219E-18 -0.9910736E+01 -0.9920837E+01  0.4308513E+00  0.1844044E+00  0.0000000E+00  0.0000000E+00
  0.8585864E+00  0.0000000E+00  0.5826219E-18 -0.9910626E+01 -0.9920727E+01  0.4308528E+00  0.1844050E+00  0.0000000E+00  0.0000000E+00
  0.8686875E+00  0.0000000E+00  0.5826219E-18 -0.9910519E+01 -0.9920620E+01  0.4308542E+00  0.1844056E+00  0.0000000E+00  0.0000000E+00
  0.8787885E+00  0.0000000E+00  0.5826219E-18 -0.9910415E+01 -0.9920516E+01  0.4308556E+00  0.1844062E+00  0.0000000E+00  0.0000000E+00
  0.8888895E+00  0.0000000E+00  0.5826219E-18 -0.9910312E+01 -0.9920413E+01  0.4308569E+00  0.1844068E+00  0.0000000E+00  0.0000000E+00
  0.8989905E+00  0.0000000E+00  0.5826219E-18 -0.9910208E+01 -0.9920309E+01  0.4308583E+00  0.1844074E+00  0.0000000E+00  0.0000000E+00
  0.9090915E+00  0.0000000E+00  0.5826219E-18 -0.9910101E+01 -0.9920202E+01  0.4308598E+00  0.1844080E+00  0.0000000E+00  0.0000000E+00
  0.9191926E+00  0.0000000E+00  0.5826219E-18 -0.9909984E+01 -0.9920085E+01  0.4308613E+00  0.1844086E+00  0.0000000E+00  0.0000000E+00
  0.9292936E+00  0.0000000E+00  0.5826219E-18 -0.9909850E+01 -0.9919951E+01  0.4308631E+00  0.1844094E+00  0.0000000E+00  0.0000000E+00
  0.9393946E+00  0.0000000E+00  0.5826219E-18 -0.9909680E+01 -0.9919781E+01  0.4308654E+00  0.1844104E+00  0.0000000E+00  0.0000000E+00
  0.9494956E+00  0.0000000E+00  0.5826219E-18 -0.9909440E+01 -0.9919541E+01  0.4308686E+00  0.1844117E+00  0.0000000E+00  0.0000000E+00
  0.9595966E+00  0.0000000E+00  0.5826219E-18 -0.9909053E+01 -0.9919154E+01  0.4308737E+00  0.1844139E+00  0.0000000E+00  0.0000000E+00
  0.9696977E+00  0.0000000E+00  0.5826219E-18 -0.9908329E+01 -0.9918430E+01  0.4308833E+00  0.1844181E+00  0.0000000E+00  0.0000000E+00
  0.9797987E+00  0.0000000E+00  0.5826219E-18 -0.9906736E+01 -0.9916837E+01  0.4309046E+00  0.1844272E+00  0.0000000E+00  0.0000000E+00
  0.9898997E+00  0.0000000E+00  0.5826219E-18 -0.9902613E+01 -0.9912714E+01  0.4309595E+00  0.1844507E+00  0.0000000E+00  0.0000000E+00
  0.1000001E+01  0.0000000E+00  0.1491512E-15 -0.9890195E+01 -0.9900296E+01  0.4311251E+00  0.1845215E+00  0.0000000E+00  0.0000000E+00
  0.0000000E+00  0.0000000E+00  0.1491512E-15 -0.9821906E+01 -0.9842108E+01  0.4319046E+00  0.1848552E+00  0.0000000E+00  0.0000000E+00
  0.1010101E-01  0.0000000E+00  0.1491512E-15 -0.9821913E+01 -0.9842115E+01  0.4319045E+00  0.1848551E+00  0.0000000E+00  0.0000000E+00
  0.2020202E-01  0.0000000E+00  0.1491512E-15 -0.9821935E+01 -0.9842137E+01  0.4319043E+00  0.1848550E+00  0.0000000E+00  0.0000000E+00
  0.3030303E-01  0.0000000E+00  0.1491512E-15 -0.9821970E+01 -0.9842172E+01  0.4319038E+00  0.1848548E+00  0.0000000E+00  0.0000000E+00
  0.4040404E-01  0.0000000E+00  0.1491512E-15 -0.9822019E+01 -0.9842222E+01  0.4319031E+00  0.1848545E+00  0.0000000E+00  0.0000000E+00
  0.5050505E-01  0.0000000E+00  0.1491512E-15 -0.9822083E+01 -0.9842285E+01  0.4319023E+00  0.1848542E+00  0.0000000E+00  0.0000000E+00
  0.6060606E-01  0.0000000E+00  0.1491512E-15 -0.9822160E+01 -0.9842362E+01  0.4319012E+00  0.1848537E+00  0.0000000E+00  0.0000000E+00
  0.7070707E-01  0.0000000E+00  0.1491512E-15 -0.9822251E+01 -0.9842453E+01  0.4319000E+00  0.1848532E+00  0.0000000E+00  0.0000000E+00
  0.8080808E-01  0.0000000E+00  0.1491512E-15 -0.9822355E+01 -0.9842557E+01  0.4318986E+00  0.1848526E+00  0.0000000E+00  0.0000000E+00
  0.9090909E-01  0.0000000E+00  0.1491512E-15 -0.9822473E+01 -0.9842675E+01  0.4318970E+00  0.1848519E+00  0.0000000E+00  0.0000000E+00
  0.1010101E+00  0.0000000E+00  0.1491512E-15 -0.9822603E+01 -0.9842805E+01  0.4318953E+00  0.1848512E+00  0.0000000E+00  0.0000000E+00
  0.1111111E+00  0.0000000E+00  0.1491512E-15 -0.9822747E+01 -0.9842949E+01  0.4318933E+00  0.1848504E+00  0.0000000E+00  0.0000000E+00
  0.1212121E+00  0.0000000E+00  0.1491512E-15 -0.9822902E+01 -0.9843104E+01  0.4318912E+00  0.1848495E+00  0.0000000E+00  0.0000000E+00
  0.1313131E+00  0.0000000E+00  0.1491512E-15 -0.9823070E+01 -0.9843272E+01  0.4318890E+00  0.1848485E+00  0.0000000E+00  0.0000000E+00
  0.1414142E+00  0.0000000E+00  0.1491512E-15 -0.9823250E+01 -0.9843452E+01  0.4318866E+00  0.1848475E+00  0.0000000E+00  0.0000000E+00
  0.1515152E+00  0.0000000E+00  0.1491512E-15 -0.9823441E+01 -0.9843643E+01  0.4318840E+00  0.1848464E+00  0.0000000E+00  0.0000000E+00
  0.1616162E+00  0.0000000E+00  0.1491512E-15 -0.9823642E+01 -0.9843844E+01  0.4318813E+00  0.1848452E+00  0.0000000E+00  0.0000000E+00
  0.1717172E+00  0.0000000E+00  0.1491512E-15 -0.9823854E+01 -0.9844056E+01  0.4318784E+00  0.1848440E+00  0.0000000E+00  0.0000000E+00
  0.1818182E+00  0.0000000E+00  0.1491512E-15 -0.9824076E+01 -0.9844278E+01  0.4318755E+00  0.1848427E+00  0.0000000E+00  0.0000000E+00