title = "dataset feddes"
variables = "x", "y", "z", "vx", "vy", "vz"
zone t = "velocities, solution time =  3.700E+01 days        " i =   99, j =   99, k =    1,  f=point
 -0.5050505E-02  0.0000000E+00 -0.5050505E-02  0.1055867E-08  0.0000000E+00 -0.2673618E-03
 -0.5050505E-02  0.0000000E+00 -0.5050505E-02  0.3164703E-08  0.0000000E+00 -0.2673574E-03
 -0.5050505E-02  0.0000000E+00 -0.5050505E-02  0.5264826E-08  0.0000000E+00 -0.2673487E-03
 -0.5050505E-02  0.0000000E+00 -0.5050505E-02  0.7350421E-08  0.0000000E+00 -0.2673357E-03
 -0.5050505E-02  0.0000000E+00 -0.5050505E-02  0.9415668E-08  0.0000000E+00 -0.2673184E-03
 -0.5050505E-02  0.0000000E+00 -0.5050505E-02  0.1145474E-07  0.0000000E+00 -0.2672969E-03
 -0.5050504E-02  0.0000000E+00 -0.5050505E-02  0.1346179E-07  0.0000000E+00 -0.2672711E-03
 -0.5050501E-02  0.0000000E+00 -0.5050505E-02  0.1543097E-07  0.0000000E+00 -0.2672413E-03
 -0.5050495E-02  0.0000000E+00 -0.5050505E-02  0.1735641E-07  0.0000000E+00 -0.2672075E-03
 -0.5050482E-02  0.0000000E+00 -0.5050505E-02  0.1923224E-07  0.0000000E+00 -0.2671697E-03
 -0.5050449E-02  0.0000000E+00 -0.5050505E-02  0.2105257E-07  0.0000000E+00 -0.2671281E-03
 -0.5050376E-02  0.0000000E+00 -0.5050505E-02  0.2281151E-07  0.0000000E+00 -0.2670829E-03
 -0.5050299E-02  0.0000000E+00 -0.5050505E-02  0.2450316E-07  0.0000000E+00 -0.2670340E-03
 -0.5050178E-02  0.0000000E+00 -0.5050505E-02  0.2612164E-07  0.0000000E+00 -0.2669818E-03
 -0.5050018E-02  0.0000000E+00 -0.5050505E-02  0.2766107E-07  0.0000000E+00 -0.2669263E-03
 -0.5049710E-02  0.0000000E+00 -0.5050505E-02  0.2911561E-07  0.0000000E+00 -0.2668677E-03
 -0.5049253E-02  0.0000000E+00 -0.5050505E-02  0.3047945E-07  0.0000000E+00 -0.2668062E-03
 -0.5048636E-02  0.0000000E+00 -0.5050505E-02  0.3174684E-07  0.0000000E+00 -0.2667419E-03
 -0.5047442E-02  0.0000000E+00 -0.5050505E-02  0.3291211E-07  0.0000000E+00 -0.2666752E-03
 -0.5045727E-02  0.0000000E+00 -0.5050505E-02  0.3396967E-07  0.0000000E+00 -0.2666062E-03
 -0.5043261E-02  0.0000000E+00 -0.5050505E-02  0.3491407E-07  0.0000000E+00 -0.2665351E-03
 -0.5038714E-02  0.0000000E+00 -0.5050505E-02  0.3574000E-07  0.0000000E+00 -0.2664622E-03
 -0.5032318E-02  0.0000000E+00 -0.5050505E-02  0.3644233E-07  0.0000000E+00 -0.2663877E-03
 -0.5022454E-02  0.0000000E+00 -0.5050505E-02  0.3701614E-07  0.0000000E+00 -0.2663119E-03
 -0.5012589E-02  0.0000000E+00 -0.5050505E-02  0.3745677E-07  0.0000000E+00 -0.2662350E-03
 -0.5002725E-02  0.0000000E+00 -0.5050505E-02  0.3775988E-07  0.0000000E+00 -0.2661574E-03
 -0.4992860E-02  0.0000000E+00 -0.5050505E-02  0.3792143E-07  0.0000000E+00 -0.2660793E-03
 -0.4976523E-02  0.0000000E+00 -0.5050505E-02  0.3793781E-07  0.0000000E+00 -0.2660010E-03
 -0.4956794E-02  0.0000000E+00 -0.5050505E-02  0.3780585E-07  0.0000000E+00 -0.2659228E-03
 -0.4937066E-02  0.0000000E+00 -0.5050505E-02  0.3752289E-07  0.0000000E+00 -0.2658451E-03
 -0.4906239E-02  0.0000000E+00 -0.5050505E-02  0.3708683E-07  0.0000000E+00 -0.2657681E-03
 -0.4866782E-02  0.0000000E+00 -0.5050505E-02  0.3649620E-07  0.0000000E+00 -0.2656922E-03
 -0.4827325E-02  0.0000000E+00 -0.5050505E-02  0.3575023E-07  0.0000000E+00 -0.2656176E-03
 -0.4769372E-02  0.0000000E+00 -0.5050505E-02  0.3484889E-07  0.0000000E+00 -0.2655447E-03
 -0.4690458E-02  0.0000000E+00 -0.5050505E-02  0.3379300E-07  0.0000000E+00 -0.2654739E-03
 -0.4611543E-02  0.0000000E+00 -0.5050505E-02  0.3258422E-07  0.0000000E+00 -0.2654054E-03
 -0.4503035E-02  0.0000000E+00 -0.5050505E-02  0.3122519E-07  0.0000000E+00 -0.2653396E-03
 -0.4345206E-02  0.0000000E+00 -0.5050505E-02  0.2971948E-07  0.0000000E+00 -0.2652767E-03
 -0.4187378E-02  0.0000000E+00 -0.5050505E-02  0.2807172E-07  0.0000000E+00 -0.2652170E-03
 -0.3985156E-02  0.0000000E+00 -0.5050505E-02  0.2628756E-07  0.0000000E+00 -0.2651610E-03
 -0.3669499E-02  0.0000000E+00 -0.5050505E-02  0.2437373E-07  0.0000000E+00 -0.2651087E-03
 -0.3353842E-02  0.0000000E+00 -0.5050505E-02  0.2233803E-07  0.0000000E+00 -0.2650605E-03
 -0.2978990E-02  0.0000000E+00 -0.5050505E-02  0.2018926E-07  0.0000000E+00 -0.2650166E-03
 -0.2347676E-02  0.0000000E+00 -0.5050505E-02  0.1793725E-07  0.0000000E+00 -0.2649773E-03
 -0.1716362E-02  0.0000000E+00 -0.5050505E-02  0.1559277E-07  0.0000000E+00 -0.2649427E-03
 -0.1025842E-02  0.0000000E+00 -0.5050505E-02  0.1316747E-07  0.0000000E+00 -0.2649130E-03
  0.2367855E-03  0.0000000E+00 -0.5050505E-02  0.1067372E-07  0.0000000E+00 -0.2648884E-03
  0.1499413E-02  0.0000000E+00 -0.5050505E-02  0.8124593E-08  0.0000000E+00 -0.2648690E-03
  0.2762042E-02  0.0000000E+00 -0.5050505E-02  0.5533657E-08  0.0000000E+00 -0.2648549E-03
 -0.5050505E-02  0.0000000E+00 -0.5050505E-02  0.2914866E-08  0.0000000E+00 -0.2648462E-03
 -0.5050505E-02  0.0000000E+00 -0.5050505E-02  0.2823983E-09  0.0000000E+00 -0.2648429E-03
 -0.5050505E-02  0.0000000E+00 -0.5050505E-02 -0.2349496E-08  0.0000000E+00 -0.2648450E-03
 -0.5050505E-02  0.0000000E+00 -0.5050505E-02 -0.4966659E-08  0.0000000E+00 -0.2648526E-03
 -0.5050505E-02  0.0000000E+00 -0.5050505E-02 -0.7555178E-08  0.0000000E+00 -0.2648655E-03
 -0.5050505E-02  0.0000000E+00 -0.5050505E-02 -0.1010154E-07  0.0000000E+00 -0.2648837E-03
 -0.5050505E-02  0.0000000E+00 -0.5050505E-02 -0.1259277E-07  0.0000000E+00 -0.2649071E-03
 -0.5050504E-02  0.0000000E+00 -0.5050505E-02 -0.1501654E-07  0.0000000E+00 -0.2649356E-03
 -0.5050501E-02  0.0000000E+00 -0.5050505E-02 -0.1736132E-07  0.0000000E+00 -0.2649690E-03
 -0.5050495E-02  0.0000000E+00 -0.5050505E-02 -0.1961645E-07  0.0000000E+00 -0.2650072E-03
 -0.5050482E-02  0.0000000E+00 -0.5050505E-02 -0.2177221E-07  0.0000000E+00 -0.2650499E-03
 -0.5050449E-02  0.0000000E+00 -0.5050505E-02 -0.2381992E-07  0.0000000E+00 -0.2650969E-03
 -0.5050376E-02  0.0000000E+00 -0.5050505E-02 -0.2575198E-07  0.0000000E+00 -0.2651481E-03
 -0.5050299E-02  0.0000000E+00 -0.5050505E-02 -0.2756193E-07  0.0000000E+00 -0.2652031E-03
 -0.5050178E-02  0.0000000E+00 -0.5050505E-02 -0.2924447E-07  0.0000000E+00 -0.2652617E-03
 -0.5050018E-02  0.0000000E+00 -0.5050505E-02 -0.3079548E-07  0.0000000E+00 -0.2653237E-03
 -0.5049710E-02  0.0000000E+00 -0.5050505E-02 -0.3221209E-07  0.0000000E+00 -0.2653887E-03
 -0.5049253E-02  0.0000000E+00 -0.5050505E-02 -0.3349268E-07  0.0000000E+00 -0.2654565E-03
 -0.5048636E-02  0.0000000E+00 -0.5050505E-02 -0.3463694E-07  0.0000000E+00 -0.2655268E-03
 -0.5047442E-02  0.0000000E+00 -0.5050505E-02 -0.3564591E-07  0.0000000E+00 -0.2655993E-03
 -0.5045727E-02  0.0000000E+00 -0.5050505E-02 -0.3652205E-07  0.0000000E+00 -0.2656738E-03
 -0.5043261E-02  0.0000000E+00 -0.5050505E-02 -0.3726938E-07  0.0000000E+00 -0.2657499E-03
 -0.5038714E-02  0.0000000E+00 -0.5050505E-02 -0.3789358E-07  0.0000000E+00 -0.2658275E-03
 -0.5032318E-02  0.0000000E+00 -0.5050505E-02 -0.3840226E-07  0.0000000E+00 -0.2659062E-03
 -0.5022454E-02  0.0000000E+00 -0.5050505E-02 -0.3880519E-07  0.0000000E+00 -0.2659859E-03
 -0.5012589E-02  0.0000000E+00 -0.5050505E-02 -0.3911474E-07  0.0000000E+00 -0.2660663E-03
 -0.5002725E-02  0.0000000E+00 -0.5050505E-02 -0.3934646E-07  0.0000000E+00 -0.2661473E-03
 -0.4992860E-02  0.0000000E+00 -0.5050505E-02 -0.3951987E-07  0.0000000E+00 -0.2662287E-03
 -0.4976523E-02  0.0000000E+00 -0.5050505E-02 -0.3965960E-07  0.0000000E+00 -0.2663104E-03
 -0.4956794E-02  0.0000000E+00 -0.5050505E-02 -0.3979696E-07  0.0000000E+00 -0.2663924E-03
 -0.4937066E-02  0.0000000E+00 -0.5050505E-02 -0.3997235E-07  0.0000000E+00 -0.2664747E-03
 -0.4906239E-02  0.0000000E+00 -0.5050505E-02 -0.4023861E-07  0.0000000E+00 -0.2665575E-03
 -0.4866782E-02  0.0000000E+00 -0.5050505E-02 -0.4066610E-07  0.0000000E+00 -0.2666410E-03
 -0.4827325E-02  0.0000000E+00 -0.5050505E-02 -0.4135039E-07  0.0000000E+00 -0.2667257E-03
 -0.4769372E-02  0.0000000E+00 -0.5050505E-02 -0.4242414E-07  0.0000000E+00 -0.2668121E-03
 -0.4690458E-02  0.0000000E+00 -0.5050505E-02 -0.4407603E-07  0.0000000E+00 -0.2669014E-03
 -0.4611543E-02  0.0000000E+00 -0.5050505E-02 -0.4658156E-07  0.0000000E+00 -0.2669950E-03
 -0.4503035E-02  0.0000000E+00 -0.5050505E-02 -0.5035508E-07  0.0000000E+00 -0.2670950E-03
 -0.4345206E-02  0.0000000E+00 -0.5050505E-02 -0.5604059E-07  0.0000000E+00 -0.2672048E-03
 -0.4187378E-02  0.0000000E+00 -0.5050505E-02 -0.6467737E-07  0.0000000E+00 -0.2673294E-03
 -0.3985156E-02  0.0000000E+00 -0.5050505E-02 -0.7801660E-07  0.0000000E+00 -0.2674767E-03
 -0.3669499E-02  0.0000000E+00 -0.5050505E-02 -0.9916205E-07  0.0000000E+00 -0.2676596E-03
 -0.3353842E-02  0.0000000E+00 -0.5050505E-02 -0.1339531E-06  0.0000000E+00 -0.2679002E-03
 -0.2978990E-02  0.0000000E+00 -0.5050505E-02 -0.1941824E-06  0.0000000E+00 -0.2682389E-03
 -0.2347676E-02  0.0000000E+00 -0.5050505E-02 -0.3057426E-06  0.0000000E+00 -0.2687550E-03
 -0.1716362E-02  0.0000000E+00 -0.5050505E-02 -0.5312362E-06  0.0000000E+00 -0.2696190E-03
 -0.1025842E-02  0.0000000E+00 -0.5050505E-02 -0.1039004E-05  0.0000000E+00 -0.2712402E-03
  0.2367855E-03  0.0000000E+00 -0.5050505E-02 -0.2334445E-05  0.0000000E+00 -0.2747238E-03
  0.1499413E-02  0.0000000E+00 -0.5050505E-02 -0.6104407E-05  0.0000000E+00 -0.2834422E-03
  0.5287294E-02  0.0000000E+00 -0.5050505E-02 -0.9990113E-04  0.0000000E+00 -0.2262147E-03
 -0.5050505E-02  0.0000000E+00 -0.5050505E-02  0.3173273E-08  0.0000000E+00 -0.2672085E-03
 -0.5050505E-02  0.0000000E+00 -0.5050505E-02  0.9511119E-08  0.0000000E+00 -0.2672041E-03
 -0.5050505E-02  0.0000000E+00 -0.5050505E-02  0.1582281E-07  0.0000000E+00 -0.2671953E-03
 -0.5050505E-02  0.0000000E+00 -0.5050505E-02  0.2209089E-07  0.0000000E+00 -0.2671822E-03
 -0.5050505E-02  0.0000000E+00 -0.5050505E-02  0.2829790E-07  0.0000000E+00 -0.2671648E-03
 -0.5050505E-02  0.0000000E+00 -0.5050505E-02  0.3442633E-07  0.0000000E+00 -0.2671431E-03
 -0.5050504E-02  0.0000000E+00 -0.5050505E-02  0.4045865E-07  0.0000000E+00 -0.2671172E-03
 -0.5050501E-02  0.0000000E+00 -0.5050505E-02  0.4637729E-07  0.0000000E+00 -0.2670871E-03
 -0.5050495E-02  0.0000000E+00 -0.5050505E-02  0.5216464E-07  0.0000000E+00 -0.2670530E-03
 -0.5050482E-02  0.0000000E+00 -0.5050505E-02  0.5780304E-07  0.0000000E+00 -0.2670150E-03
 -0.5050449E-02  0.0000000E+00 -0.5050505E-02  0.6327482E-07  0.0000000E+00 -0.2669731E-03
 -0.5050376E-02  0.0000000E+00 -0.5050505E-02  0.6856229E-07  0.0000000E+00 -0.2669275E-03
 -0.5050299E-02  0.0000000E+00 -0.5050505E-02  0.7364774E-07  0.0000000E+00 -0.2668783E-03
 -0.5050178E-02  0.0000000E+00 -0.5050505E-02  0.7851348E-07  0.0000000E+00 -0.2668256E-03
 -0.5050018E-02  0.0000000E+00 -0.5050505E-02  0.8314188E-07  0.0000000E+00 -0.2667697E-03
 -0.5049710E-02  0.0000000E+00 -0.5050505E-02  0.8751536E-07  0.0000000E+00 -0.2667106E-03
 -0.5049253E-02  0.0000000E+00 -0.5050505E-02  0.9161649E-07  0.0000000E+00 -0.2666486E-03
 -0.5048636E-02  0.0000000E+00 -0.5050505E-02  0.9542796E-07  0.0000000E+00 -0.2665839E-03
 -0.5047442E-02  0.0000000E+00 -0.5050505E-02  0.9893272E-07  0.0000000E+00 -0.2665166E-03
 -0.5045727E-02  0.0000000E+00 -0.5050505E-02  0.1021140E-06  0.0000000E+00 -0.2664471E-03
 -0.5043261E-02  0.0000000E+00 -0.5050505E-02  0.1049553E-06  0.0000000E+00 -0.2663754E-03
 -0.5038714E-02  0.0000000E+00 -0.5050505E-02  0.1074408E-06  0.0000000E+00 -0.2663019E-03
 -0.5032318E-02  0.0000000E+00 -0.5050505E-02  0.1095549E-06  0.0000000E+00 -0.2662268E-03
 -0.5022454E-02  0.0000000E+00 -0.5050505E-02  0.1112829E-06  0.0000000E+00 -0.2661503E-03
 -0.5012589E-02  0.0000000E+00 -0.5050505E-02  0.1126107E-06  0.0000000E+00 -0.2660728E-03
 -0.5002725E-02  0.0000000E+00 -0.5050505E-02  0.1135252E-06  0.0000000E+00 -0.2659946E-03
 -0.4992860E-02  0.0000000E+00 -0.5050505E-02  0.1140143E-06  0.0000000E+00 -0.2659158E-03
 -0.4976523E-02  0.0000000E+00 -0.5050505E-02  0.1140670E-06  0.0000000E+00 -0.2658368E-03
 -0.4956794E-02  0.0000000E+00 -0.5050505E-02  0.1136738E-06  0.0000000E+00 -0.2657580E-03
 -0.4937066E-02  0.0000000E+00 -0.5050505E-02  0.1128266E-06  0.0000000E+00 -0.2656795E-03
 -0.4906239E-02  0.0000000E+00 -0.5050505E-02  0.1115190E-06  0.0000000E+00 -0.2656019E-03
 -0.4866782E-02  0.0000000E+00 -0.5050505E-02  0.1097465E-06  0.0000000E+00 -0.2655252E-03
 -0.4827325E-02  0.0000000E+00 -0.5050505E-02  0.1075069E-06  0.0000000E+00 -0.2654500E-03
 -0.4769372E-02  0.0000000E+00 -0.5050505E-02  0.1047998E-06  0.0000000E+00 -0.2653765E-03
 -0.4690458E-02  0.0000000E+00 -0.5050505E-02  0.1016278E-06  0.0000000E+00 -0.2653050E-03
 -0.4611543E-02  0.0000000E+00 -0.5050505E-02  0.9799565E-07  0.0000000E+00 -0.2652358E-03
 -0.4503035E-02  0.0000000E+00 -0.5050505E-02  0.9391131E-07  0.0000000E+00 -0.2651694E-03
 -0.4345206E-02  0.0000000E+00 -0.5050505E-02  0.8938548E-07  0.0000000E+00 -0.2651059E-03
 -0.4187378E-02  0.0000000E+00 -0.5050505E-02  0.8443198E-07  0.0000000E+00 -0.2650457E-03
 -0.3985156E-02  0.0000000E+00 -0.5050505E-02  0.7906781E-07  0.0000000E+00 -0.2649890E-03
 -0.3669499E-02  0.0000000E+00 -0.5050505E-02  0.7331317E-07  0.0000000E+00 -0.2649362E-03
 -0.3353842E-02  0.0000000E+00 -0.5050505E-02  0.6719143E-07  0.0000000E+00 -0.2648876E-03
 -0.2978990E-02  0.0000000E+00 -0.5050505E-02  0.6072915E-07  0.0000000E+00 -0.2648432E-03
 -0.2347676E-02  0.0000000E+00 -0.5050505E-02  0.5395589E-07  0.0000000E+00 -0.2648035E-03
 -0.1716362E-02  0.0000000E+00 -0.5050505E-02  0.4690406E-07  0.0000000E+00 -0.2647685E-03
 -0.1025842E-02  0.0000000E+00 -0.5050505E-02  0.3960870E-07  0.0000000E+00 -0.2647386E-03
  0.2367855E-03  0.0000000E+00 -0.5050505E-02  0.3210717E-07  0.0000000E+00 -0.2647137E-03
  0.1499413E-02  0.0000000E+00 -0.5050505E-02  0.2443880E-07  0.0000000E+00 -0.2646941E-03
  0.2762042E-02  0.0000000E+00 -0.5050505E-02  0.1664451E-07  0.0000000E+00 -0.2646799E-03
 -0.5050505E-02  0.0000000E+00 -0.5050505E-02  0.8766357E-08  0.0000000E+00 -0.2646711E-03
 -0.5050505E-02  0.0000000E+00 -0.5050505E-02  0.8470873E-09  0.0000000E+00 -0.2646678E-03
 -0.5050505E-02  0.0000000E+00 -0.5050505E-02 -0.7070345E-08  0.0000000E+00 -0.2646699E-03
 -0.5050505E-02  0.0000000E+00 -0.5050505E-02 -0.1494326E-07  0.0000000E+00 -0.2646776E-03
 -0.5050505E-02  0.0000000E+00 -0.5050505E-02 -0.2272972E-07  0.0000000E+00 -0.2646906E-03
 -0.5050505E-02  0.0000000E+00 -0.5050505E-02 -0.3038901E-07  0.0000000E+00 -0.2647090E-03
 -0.5050505E-02  0.0000000E+00 -0.5050505E-02 -0.3788200E-07  0.0000000E+00 -0.2647327E-03
 -0.5050504E-02  0.0000000E+00 -0.5050505E-02 -0.4517161E-07  0.0000000E+00 -0.2647615E-03
 -0.5050501E-02  0.0000000E+00 -0.5050505E-02 -0.5222307E-07  0.0000000E+00 -0.2647952E-03
 -0.5050495E-02  0.0000000E+00 -0.5050505E-02 -0.5900425E-07  0.0000000E+00 -0.2648337E-03
 -0.5050482E-02  0.0000000E+00 -0.5050505E-02 -0.6548595E-07  0.0000000E+00 -0.2648769E-03
 -0.5050449E-02  0.0000000E+00 -0.5050505E-02 -0.7164203E-07  0.0000000E+00 -0.2649244E-03
 -0.5050376E-02  0.0000000E+00 -0.5050505E-02 -0.7744962E-07  0.0000000E+00 -0.2649760E-03
 -0.5050299E-02  0.0000000E+00 -0.5050505E-02 -0.8288927E-07  0.0000000E+00 -0.2650316E-03
 -0.5050178E-02  0.0000000E+00 -0.5050505E-02 -0.8794501E-07  0.0000000E+00 -0.2650907E-03
 -0.5050018E-02  0.0000000E+00 -0.5050505E-02 -0.9260448E-07  0.0000000E+00 -0.2651532E-03
 -0.5049710E-02  0.0000000E+00 -0.5050505E-02 -0.9685901E-07  0.0000000E+00 -0.2652189E-03
 -0.5049253E-02  0.0000000E+00 -0.5050505E-02 -0.1007037E-06  0.0000000E+00 -0.2652873E-03
 -0.5048636E-02  0.0000000E+00 -0.5050505E-02 -0.1041375E-06  0.0000000E+00 -0.2653582E-03
 -0.5047442E-02  0.0000000E+00 -0.5050505E-02 -0.1071636E-06  0.0000000E+00 -0.2654313E-03
 -0.5045727E-02  0.0000000E+00 -0.5050505E-02 -0.1097891E-06  0.0000000E+00 -0.2655064E-03
 -0.5043261E-02  0.0000000E+00 -0.5050505E-02 -0.1120260E-06  0.0000000E+00 -0.2655832E-03
 -0.5038714E-02  0.0000000E+00 -0.5050505E-02 -0.1138912E-06  0.0000000E+00 -0.2656613E-03
 -0.5032318E-02  0.0000000E+00 -0.5050505E-02 -0.1154071E-06  0.0000000E+00 -0.2657406E-03
 -0.5022454E-02  0.0000000E+00 -0.5050505E-02 -0.1166026E-06  0.0000000E+00 -0.2658209E-03
 -0.5012589E-02  0.0000000E+00 -0.5050505E-02 -0.1175144E-06  0.0000000E+00 -0.2659018E-03
 -0.5002725E-02  0.0000000E+00 -0.5050505E-02 -0.1181883E-06  0.0000000E+00 -0.2659833E-03
 -0.4992860E-02  0.0000000E+00 -0.5050505E-02 -0.1186817E-06  0.0000000E+00 -0.2660651E-03
 -0.4976523E-02  0.0000000E+00 -0.5050505E-02 -0.1190669E-06  0.0000000E+00 -0.2661472E-03
 -0.4956794E-02  0.0000000E+00 -0.5050505E-02 -0.1194355E-06  0.0000000E+00 -0.2662295E-03
 -0.4937066E-02  0.0000000E+00 -0.5050505E-02 -0.1199053E-06  0.0000000E+00 -0.2663120E-03
 -0.4906239E-02  0.0000000E+00 -0.5050505E-02 -0.1206299E-06  0.0000000E+00 -0.2663949E-03
 -0.4866782E-02  0.0000000E+00 -0.5050505E-02 -0.1218127E-06  0.0000000E+00 -0.2664783E-03
 -0.4827325E-02  0.0000000E+00 -0.5050505E-02 -0.1237287E-06  0.0000000E+00 -0.2665626E-03
 -0.4769372E-02  0.0000000E+00 -0.5050505E-02 -0.1267573E-06  0.0000000E+00 -0.2666483E-03
 -0.4690458E-02  0.0000000E+00 -0.5050505E-02 -0.1314341E-06  0.0000000E+00 -0.2667364E-03
 -0.4611543E-02  0.0000000E+00 -0.5050505E-02 -0.1385346E-06  0.0000000E+00 -0.2668281E-03
 -0.4503035E-02  0.0000000E+00 -0.5050505E-02 -0.1492126E-06  0.0000000E+00 -0.2669252E-03
 -0.4345206E-02  0.0000000E+00 -0.5050505E-02 -0.1652383E-06  0.0000000E+00 -0.2670304E-03
 -0.4187378E-02  0.0000000E+00 -0.5050505E-02 -0.1894197E-06  0.0000000E+00 -0.2671475E-03
 -0.3985156E-02  0.0000000E+00 -0.5050505E-02 -0.2263850E-06  0.0000000E+00 -0.2672824E-03
 -0.3669499E-02  0.0000000E+00 -0.5050505E-02 -0.2840972E-06  0.0000000E+00 -0.2674439E-03
 -0.3353842E-02  0.0000000E+00 -0.5050505E-02 -0.3769408E-06  0.0000000E+00 -0.2676455E-03
 -0.2978990E-02  0.0000000E+00 -0.5050505E-02 -0.5323690E-06  0.0000000E+00 -0.2679074E-03
 -0.2347676E-02  0.0000000E+00 -0.5050505E-02 -0.8060829E-06  0.0000000E+00 -0.2682580E-03
 -0.1716362E-02  0.0000000E+00 -0.5050505E-02 -0.1318841E-05  0.0000000E+00 -0.2687255E-03
 -0.1025842E-02  0.0000000E+00 -0.5050505E-02 -0.2351117E-05  0.0000000E+00 -0.2692759E-03
  0.2367855E-03  0.0000000E+00 -0.5050505E-02 -0.4599718E-05  0.0000000E+00 -0.2694954E-03
  0.1499413E-02  0.0000000E+00 -0.5050505E-02 -0.9903559E-05  0.0000000E+00 -0.2670719E-03
  0.5287294E-02  0.0000000E+00 -0.5050505E-02 -0.2334863E-04  0.0000000E+00 -0.2506734E-03
 -0.5050505E-02  0.0000000E+00 -0.5050505E-02  0.5309621E-08  0.0000000E+00 -0.2669072E-03
 -0.5050505E-02  0.0000000E+00 -0.5050505E-02  0.1591433E-07  0.0000000E+00 -0.2669027E-03
 -0.5050505E-02  0.0000000E+00 -0.5050505E-02  0.2647540E-07  0.0000000E+00 -0.2668938E-03
 -0.5050505E-02  0.0000000E+00 -0.5050505E-02  0.3696368E-07  0.0000000E+00 -0.2668805E-03
 -0.5050505E-02  0.0000000E+00 -0.5050505E-02  0.4735001E-07  0.0000000E+00 -0.2668628E-03
 -0.5050505E-02  0.0000000E+00 -0.5050505E-02  0.5760519E-07  0.0000000E+00 -0.2668408E-03
 -0.5050504E-02  0.0000000E+00 -0.5050505E-02  0.6769994E-07  0.0000000E+00 -0.2668145E-03
 -0.5050501E-02  0.0000000E+00 -0.5050505E-02  0.7760492E-07  0.0000000E+00 -0.2667840E-03
 -0.5050495E-02  0.0000000E+00 -0.5050505E-02  0.8729071E-07  0.0000000E+00 -0.2667494E-03
 -0.5050482E-02  0.0000000E+00 -0.5050505E-02  0.9672784E-07  0.0000000E+00 -0.2667108E-03
 -0.5050449E-02  0.0000000E+00 -0.5050505E-02  0.1058868E-06  0.0000000E+00 -0.2666683E-03
 -0.5050376E-02  0.0000000E+00 -0.5050505E-02  0.1147380E-06  0.0000000E+00 -0.2666220E-03
 -0.5050299E-02  0.0000000E+00 -0.5050505E-02  0.1232518E-06  0.0000000E+00 -0.2665720E-03
 -0.5050178E-02  0.0000000E+00 -0.5050505E-02  0.1313987E-06  0.0000000E+00 -0.2665186E-03
 -0.5050018E-02  0.0000000E+00 -0.5050505E-02  0.1391493E-06  0.0000000E+00 -0.2664618E-03
 -0.5049710E-02  0.0000000E+00 -0.5050505E-02  0.1464740E-06  0.0000000E+00 -0.2664018E-03
 -0.5049253E-02  0.0000000E+00 -0.5050505E-02  0.1533437E-06  0.0000000E+00 -0.2663389E-03
 -0.5048636E-02  0.0000000E+00 -0.5050505E-02  0.1597295E-06  0.0000000E+00 -0.2662732E-03
 -0.5047442E-02  0.0000000E+00 -0.5050505E-02  0.1656028E-06  0.0000000E+00 -0.2662048E-03
 -0.5045727E-02  0.0000000E+00 -0.5050505E-02  0.1709355E-06  0.0000000E+00 -0.2661342E-03
 -0.5043261E-02  0.0000000E+00 -0.5050505E-02  0.1757000E-06  0.0000000E+00 -0.2660614E-03
 -0.5038714E-02  0.0000000E+00 -0.5050505E-02  0.1798695E-06  0.0000000E+00 -0.2659867E-03
 -0.5032318E-02  0.0000000E+00 -0.5050505E-02  0.1834182E-06  0.0000000E+00 -0.2659103E-03
 -0.5022454E-02  0.0000000E+00 -0.5050505E-02  0.1863211E-06  0.0000000E+00 -0.2658326E-03
 -0.5012589E-02  0.0000000E+00 -0.5050505E-02  0.1885547E-06  0.0000000E+00 -0.2657539E-03
 -0.5002725E-02  0.0000000E+00 -0.5050505E-02  0.1900968E-06  0.0000000E+00 -0.2656743E-03
 -0.4992860E-02  0.0000000E+00 -0.5050505E-02  0.1909271E-06  0.0000000E+00 -0.2655942E-03
 -0.4976523E-02  0.0000000E+00 -0.5050505E-02  0.1910270E-06  0.0000000E+00 -0.2655139E-03
 -0.4956794E-02  0.0000000E+00 -0.5050505E-02  0.1903804E-06  0.0000000E+00 -0.2654336E-03
 -0.4937066E-02  0.0000000E+00 -0.5050505E-02  0.1889735E-06  0.0000000E+00 -0.2653539E-03
 -0.4906239E-02  0.0000000E+00 -0.5050505E-02  0.1867955E-06  0.0000000E+00 -0.2652748E-03
 -0.4866782E-02  0.0000000E+00 -0.5050505E-02  0.1838387E-06  0.0000000E+00 -0.2651968E-03
 -0.4827325E-02  0.0000000E+00 -0.5050505E-02  0.1800988E-06  0.0000000E+00 -0.2651202E-03
 -0.4769372E-02  0.0000000E+00 -0.5050505E-02  0.1755753E-06  0.0000000E+00 -0.2650454E-03
 -0.4690458E-02  0.0000000E+00 -0.5050505E-02  0.1702721E-06  0.0000000E+00 -0.2649725E-03
 -0.4611543E-02  0.0000000E+00 -0.5050505E-02  0.1641972E-06  0.0000000E+00 -0.2649021E-03
 -0.4503035E-02  0.0000000E+00 -0.5050505E-02  0.1573634E-06  0.0000000E+00 -0.2648344E-03
 -0.4345206E-02  0.0000000E+00 -0.5050505E-02  0.1497887E-06  0.0000000E+00 -0.2647697E-03
 -0.4187378E-02  0.0000000E+00 -0.5050505E-02  0.1414958E-06  0.0000000E+00 -0.2647083E-03
 -0.3985156E-02  0.0000000E+00 -0.5050505E-02  0.1325133E-06  0.0000000E+00 -0.2646506E-03
 -0.3669499E-02  0.0000000E+00 -0.5050505E-02  0.1228747E-06  0.0000000E+00 -0.2645968E-03
 -0.3353842E-02  0.0000000E+00 -0.5050505E-02  0.1126194E-06  0.0000000E+00 -0.2645471E-03
 -0.2978990E-02  0.0000000E+00 -0.5050505E-02  0.1017917E-06  0.0000000E+00 -0.2645019E-03
 -0.2347676E-02  0.0000000E+00 -0.5050505E-02  0.9044115E-07  0.0000000E+00 -0.2644614E-03
 -0.1716362E-02  0.0000000E+00 -0.5050505E-02  0.7862230E-07  0.0000000E+00 -0.2644258E-03
 -0.1025842E-02  0.0000000E+00 -0.5050505E-02  0.6639398E-07  0.0000000E+00 -0.2643952E-03
  0.2367855E-03  0.0000000E+00 -0.5050505E-02  0.5381900E-07  0.0000000E+00 -0.2643698E-03
  0.1499413E-02  0.0000000E+00 -0.5050505E-02  0.4096354E-07  0.0000000E+00 -0.2643499E-03
  0.2762042E-02  0.0000000E+00 -0.5050505E-02  0.2789646E-07  0.0000000E+00 -0.2643354E-03
 -0.5050505E-02  0.0000000E+00 -0.5050505E-02  0.1468856E-07  0.0000000E+00 -0.2643264E-03
 -0.5050505E-02  0.0000000E+00 -0.5050505E-02  0.1411803E-08  0.0000000E+00 -0.2643230E-03
 -0.5050505E-02  0.0000000E+00 -0.5050505E-02 -0.1186149E-07  0.0000000E+00 -0.2643252E-03
 -0.5050505E-02  0.0000000E+00 -0.5050505E-02 -0.2505947E-07  0.0000000E+00 -0.2643330E-03
 -0.5050505E-02  0.0000000E+00 -0.5050505E-02 -0.3811156E-07  0.0000000E+00 -0.2643463E-03
 -0.5050505E-02  0.0000000E+00 -0.5050505E-02 -0.5094923E-07  0.0000000E+00 -0.2643651E-03
 -0.5050505E-02  0.0000000E+00 -0.5050505E-02 -0.6350670E-07  0.0000000E+00 -0.2643893E-03
 -0.5050504E-02  0.0000000E+00 -0.5050505E-02 -0.7572158E-07  0.0000000E+00 -0.2644186E-03
 -0.5050501E-02  0.0000000E+00 -0.5050505E-02 -0.8753547E-07  0.0000000E+00 -0.2644531E-03
 -0.5050495E-02  0.0000000E+00 -0.5050505E-02 -0.9889442E-07  0.0000000E+00 -0.2644923E-03
 -0.5050482E-02  0.0000000E+00 -0.5050505E-02 -0.1097494E-06  0.0000000E+00 -0.2645363E-03
 -0.5050449E-02  0.0000000E+00 -0.5050505E-02 -0.1200565E-06  0.0000000E+00 -0.2645847E-03
 -0.5050376E-02  0.0000000E+00 -0.5050505E-02 -0.1297774E-06  0.0000000E+00 -0.2646374E-03
 -0.5050299E-02  0.0000000E+00 -0.5050505E-02 -0.1388794E-06  0.0000000E+00 -0.2646939E-03
 -0.5050178E-02  0.0000000E+00 -0.5050505E-02 -0.1473359E-06  0.0000000E+00 -0.2647542E-03
 -0.5050018E-02  0.0000000E+00 -0.5050505E-02 -0.1551260E-06  0.0000000E+00 -0.2648179E-03
 -0.5049710E-02  0.0000000E+00 -0.5050505E-02 -0.1622352E-06  0.0000000E+00 -0.2648846E-03
 -0.5049253E-02  0.0000000E+00 -0.5050505E-02 -0.1686551E-06  0.0000000E+00 -0.2649542E-03
 -0.5048636E-02  0.0000000E+00 -0.5050505E-02 -0.1743839E-06  0.0000000E+00 -0.2650264E-03
 -0.5047442E-02  0.0000000E+00 -0.5050505E-02 -0.1794263E-06  0.0000000E+00 -0.2651007E-03
 -0.5045727E-02  0.0000000E+00 -0.5050505E-02 -0.1837943E-06  0.0000000E+00 -0.2651770E-03
 -0.5043261E-02  0.0000000E+00 -0.5050505E-02 -0.1875072E-06  0.0000000E+00 -0.2652550E-03
 -0.5038714E-02  0.0000000E+00 -0.5050505E-02 -0.1905923E-06  0.0000000E+00 -0.2653344E-03
 -0.5032318E-02  0.0000000E+00 -0.5050505E-02 -0.1930864E-06  0.0000000E+00 -0.2654148E-03
 -0.5022454E-02  0.0000000E+00 -0.5050505E-02 -0.1950363E-06  0.0000000E+00 -0.2654962E-03
 -0.5012589E-02  0.0000000E+00 -0.5050505E-02 -0.1965011E-06  0.0000000E+00 -0.2655782E-03
 -0.5002725E-02  0.0000000E+00 -0.5050505E-02 -0.1975549E-06  0.0000000E+00 -0.2656607E-03
 -0.4992860E-02  0.0000000E+00 -0.5050505E-02 -0.1982896E-06  0.0000000E+00 -0.2657434E-03
 -0.4976523E-02  0.0000000E+00 -0.5050505E-02 -0.1988208E-06  0.0000000E+00 -0.2658262E-03
 -0.4956794E-02  0.0000000E+00 -0.5050505E-02 -0.1992939E-06  0.0000000E+00 -0.2659092E-03
 -0.4937066E-02  0.0000000E+00 -0.5050505E-02 -0.1998946E-06  0.0000000E+00 -0.2659921E-03
 -0.4906239E-02  0.0000000E+00 -0.5050505E-02 -0.2008630E-06  0.0000000E+00 -0.2660751E-03
 -0.4866782E-02  0.0000000E+00 -0.5050505E-02 -0.2025146E-06  0.0000000E+00 -0.2661584E-03
 -0.4827325E-02  0.0000000E+00 -0.5050505E-02 -0.2052715E-06  0.0000000E+00 -0.2662420E-03
 -0.4769372E-02  0.0000000E+00 -0.5050505E-02 -0.2097087E-06  0.0000000E+00 -0.2663266E-03
 -0.4690458E-02  0.0000000E+00 -0.5050505E-02 -0.2166270E-06  0.0000000E+00 -0.2664125E-03
 -0.4611543E-02  0.0000000E+00 -0.5050505E-02 -0.2271662E-06  0.0000000E+00 -0.2665008E-03
 -0.4503035E-02  0.0000000E+00 -0.5050505E-02 -0.2429871E-06  0.0000000E+00 -0.2665926E-03
 -0.4345206E-02  0.0000000E+00 -0.5050505E-02 -0.2665731E-06  0.0000000E+00 -0.2666895E-03
 -0.4187378E-02  0.0000000E+00 -0.5050505E-02 -0.3017382E-06  0.0000000E+00 -0.2667937E-03
 -0.3985156E-02  0.0000000E+00 -0.5050505E-02 -0.3545105E-06  0.0000000E+00 -0.2669079E-03
 -0.3669499E-02  0.0000000E+00 -0.5050505E-02 -0.4347048E-06  0.0000000E+00 -0.2670352E-03
 -0.3353842E-02  0.0000000E+00 -0.5050505E-02 -0.5587805E-06  0.0000000E+00 -0.2671782E-03
 -0.2978990E-02  0.0000000E+00 -0.5050505E-02 -0.7550878E-06  0.0000000E+00 -0.2673360E-03
 -0.2347676E-02  0.0000000E+00 -0.5050505E-02 -0.1073359E-05  0.0000000E+00 -0.2674944E-03
 -0.1716362E-02  0.0000000E+00 -0.5050505E-02 -0.1600572E-05  0.0000000E+00 -0.2675990E-03
 -0.1025842E-02  0.0000000E+00 -0.5050505E-02 -0.2480228E-05  0.0000000E+00 -0.2674825E-03
  0.2367855E-03  0.0000000E+00 -0.5050505E-02 -0.3896616E-05  0.0000000E+00 -0.2666907E-03
  0.1499413E-02  0.0000000E+00 -0.5050505E-02 -0.5802099E-05  0.0000000E+00 -0.2642043E-03
  0.5287294E-02  0.0000000E+00 -0.5050505E-02 -0.6300720E-05  0.0000000E+00 -0.2589583E-03
 -0.5050505E-02  0.0000000E+00 -0.5050505E-02  0.7480031E-08  0.0000000E+00 -0.2664628E-03
 -0.5050505E-02  0.0000000E+00 -0.5050505E-02  0.2241970E-07  0.0000000E+00 -0.2664583E-03
 -0.5050505E-02  0.0000000E+00 -0.5050505E-02  0.3729810E-07  0.0000000E+00 -0.2664492E-03
 -0.5050505E-02  0.0000000E+00 -0.5050505E-02  0.5207435E-07  0.0000000E+00 -0.2664356E-03
 -0.5050505E-02  0.0000000E+00 -0.5050505E-02  0.6670751E-07  0.0000000E+00 -0.2664175E-03
 -0.5050505E-02  0.0000000E+00 -0.5050505E-02  0.8115658E-07  0.0000000E+00 -0.2663950E-03
 -0.5050504E-02  0.0000000E+00 -0.5050505E-02  0.9538044E-07  0.0000000E+00 -0.2663682E-03
 -0.5050501E-02  0.0000000E+00 -0.5050505E-02  0.1093379E-06  0.0000000E+00 -0.2663370E-03
 -0.5050495E-02  0.0000000E+00 -0.5050505E-02  0.1229876E-06  0.0000000E+00 -0.2663017E-03
 -0.5050482E-02  0.0000000E+00 -0.5050505E-02  0.1362882E-06  0.0000000E+00 -0.2662622E-03
 -0.5050449E-02  0.0000000E+00 -0.5050505E-02  0.1491982E-06  0.0000000E+00 -0.2662188E-03
 -0.5050376E-02  0.0000000E+00 -0.5050505E-02  0.1616760E-06  0.0000000E+00 -0.2661714E-03
 -0.5050299E-02  0.0000000E+00 -0.5050505E-02  0.1736799E-06  0.0000000E+00 -0.2661204E-03
 -0.5050178E-02  0.0000000E+00 -0.5050505E-02  0.1851685E-06  0.0000000E+00 -0.2660658E-03
 -0.5050018E-02  0.0000000E+00 -0.5050505E-02  0.1961001E-06  0.0000000E+00 -0.2660077E-03
 -0.5049710E-02  0.0000000E+00 -0.5050505E-02  0.2064334E-06  0.0000000E+00 -0.2659464E-03
 -0.5049253E-02  0.0000000E+00 -0.5050505E-02  0.2161273E-06  0.0000000E+00 -0.2658820E-03
 -0.5048636E-02  0.0000000E+00 -0.5050505E-02  0.2251410E-06  0.0000000E+00 -0.2658148E-03
 -0.5047442E-02  0.0000000E+00 -0.5050505E-02  0.2334341E-06  0.0000000E+00 -0.2657449E-03
 -0.5045727E-02  0.0000000E+00 -0.5050505E-02  0.2409670E-06  0.0000000E+00 -0.2656725E-03
 -0.5043261E-02  0.0000000E+00 -0.5050505E-02  0.2477008E-06  0.0000000E+00 -0.2655980E-03
 -0.5038714E-02  0.0000000E+00 -0.5050505E-02  0.2535976E-06  0.0000000E+00 -0.2655216E-03
 -0.5032318E-02  0.0000000E+00 -0.5050505E-02  0.2586206E-06  0.0000000E+00 -0.2654434E-03
 -0.5022454E-02  0.0000000E+00 -0.5050505E-02  0.2627348E-06  0.0000000E+00 -0.2653639E-03
 -0.5012589E-02  0.0000000E+00 -0.5050505E-02  0.2659065E-06  0.0000000E+00 -0.2652831E-03
 -0.5002725E-02  0.0000000E+00 -0.5050505E-02  0.2681043E-06  0.0000000E+00 -0.2652016E-03
 -0.4992860E-02  0.0000000E+00 -0.5050505E-02  0.2692992E-06  0.0000000E+00 -0.2651195E-03
 -0.4976523E-02  0.0000000E+00 -0.5050505E-02  0.2694648E-06  0.0000000E+00 -0.2650372E-03
 -0.4956794E-02  0.0000000E+00 -0.5050505E-02  0.2685779E-06  0.0000000E+00 -0.2649549E-03
 -0.4937066E-02  0.0000000E+00 -0.5050505E-02  0.2666186E-06  0.0000000E+00 -0.2648731E-03