title = "dataset feddes"
variables = "x", "y", "z", "vx", "vy", "vz"
zone t = "velocities, solution time =  5.000E+01 days        " i =   99, j =   99, k =    1,  f=point
 -0.5050505E-02  0.0000000E+00 -0.5050505E-02  0.1307391E-07  0.0000000E+00 -0.1634731E-03
 -0.5050505E-02  0.0000000E+00 -0.5050505E-02  0.3921112E-07  0.0000000E+00 -0.1634198E-03
 -0.5050505E-02  0.0000000E+00 -0.5050505E-02  0.6531652E-07  0.0000000E+00 -0.1633132E-03
 -0.5050505E-02  0.0000000E+00 -0.5050505E-02  0.9136865E-07  0.0000000E+00 -0.1631534E-03
 -0.5050505E-02  0.0000000E+00 -0.5050505E-02  0.1173455E-06  0.0000000E+00 -0.1629405E-03
 -0.5050505E-02  0.0000000E+00 -0.5050505E-02  0.1432241E-06  0.0000000E+00 -0.1626748E-03
 -0.5050504E-02  0.0000000E+00 -0.5050505E-02  0.1689805E-06  0.0000000E+00 -0.1623565E-03
 -0.5050501E-02  0.0000000E+00 -0.5050505E-02  0.1945894E-06  0.0000000E+00 -0.1619858E-03
 -0.5050495E-02  0.0000000E+00 -0.5050505E-02  0.2200237E-06  0.0000000E+00 -0.1615630E-03
 -0.5050482E-02  0.0000000E+00 -0.5050505E-02  0.2452547E-06  0.0000000E+00 -0.1610887E-03
 -0.5050449E-02  0.0000000E+00 -0.5050505E-02  0.2702514E-06  0.0000000E+00 -0.1605631E-03
 -0.5050376E-02  0.0000000E+00 -0.5050505E-02  0.2949806E-06  0.0000000E+00 -0.1599869E-03
 -0.5050299E-02  0.0000000E+00 -0.5050505E-02  0.3194067E-06  0.0000000E+00 -0.1593607E-03
 -0.5050178E-02  0.0000000E+00 -0.5050505E-02  0.3434914E-06  0.0000000E+00 -0.1586850E-03
 -0.5050018E-02  0.0000000E+00 -0.5050505E-02  0.3671934E-06  0.0000000E+00 -0.1579607E-03
 -0.5049710E-02  0.0000000E+00 -0.5050505E-02  0.3904688E-06  0.0000000E+00 -0.1571886E-03
 -0.5049253E-02  0.0000000E+00 -0.5050505E-02  0.4132705E-06  0.0000000E+00 -0.1563696E-03
 -0.5048636E-02  0.0000000E+00 -0.5050505E-02  0.4355484E-06  0.0000000E+00 -0.1555048E-03
 -0.5047442E-02  0.0000000E+00 -0.5050505E-02  0.4572493E-06  0.0000000E+00 -0.1545952E-03
 -0.5045727E-02  0.0000000E+00 -0.5050505E-02  0.4783168E-06  0.0000000E+00 -0.1536422E-03
 -0.5043261E-02  0.0000000E+00 -0.5050505E-02  0.4986915E-06  0.0000000E+00 -0.1526471E-03
 -0.5038714E-02  0.0000000E+00 -0.5050505E-02  0.5183108E-06  0.0000000E+00 -0.1516114E-03
 -0.5032318E-02  0.0000000E+00 -0.5050505E-02  0.5371092E-06  0.0000000E+00 -0.1505367E-03
 -0.5022454E-02  0.0000000E+00 -0.5050505E-02  0.5550177E-06  0.0000000E+00 -0.1494248E-03
 -0.5012589E-02  0.0000000E+00 -0.5050505E-02  0.5719640E-06  0.0000000E+00 -0.1482775E-03
 -0.5002725E-02  0.0000000E+00 -0.5050505E-02  0.5878721E-06  0.0000000E+00 -0.1470970E-03
 -0.4992860E-02  0.0000000E+00 -0.5050505E-02  0.6026616E-06  0.0000000E+00 -0.1458854E-03
 -0.4976523E-02  0.0000000E+00 -0.5050505E-02  0.6162463E-06  0.0000000E+00 -0.1446451E-03
 -0.4956794E-02  0.0000000E+00 -0.5050505E-02  0.6285332E-06  0.0000000E+00 -0.1433786E-03
 -0.4937066E-02  0.0000000E+00 -0.5050505E-02  0.6394196E-06  0.0000000E+00 -0.1420888E-03
 -0.4906239E-02  0.0000000E+00 -0.5050505E-02  0.6487895E-06  0.0000000E+00 -0.1407785E-03
 -0.4866782E-02  0.0000000E+00 -0.5050505E-02  0.6565083E-06  0.0000000E+00 -0.1394511E-03
 -0.4827325E-02  0.0000000E+00 -0.5050505E-02  0.6624145E-06  0.0000000E+00 -0.1381101E-03
 -0.4769372E-02  0.0000000E+00 -0.5050505E-02  0.6663084E-06  0.0000000E+00 -0.1367593E-03
 -0.4690458E-02  0.0000000E+00 -0.5050505E-02  0.6679335E-06  0.0000000E+00 -0.1354031E-03
 -0.4611543E-02  0.0000000E+00 -0.5050505E-02  0.6669512E-06  0.0000000E+00 -0.1340465E-03
 -0.4503035E-02  0.0000000E+00 -0.5050505E-02  0.6629019E-06  0.0000000E+00 -0.1326952E-03
 -0.4345206E-02  0.0000000E+00 -0.5050505E-02  0.6551501E-06  0.0000000E+00 -0.1313561E-03
 -0.4187378E-02  0.0000000E+00 -0.5050505E-02  0.6428097E-06  0.0000000E+00 -0.1300376E-03
 -0.3985156E-02  0.0000000E+00 -0.5050505E-02  0.6246470E-06  0.0000000E+00 -0.1287503E-03
 -0.3669499E-02  0.0000000E+00 -0.5050505E-02  0.5989755E-06  0.0000000E+00 -0.1275077E-03
 -0.3353842E-02  0.0000000E+00 -0.5050505E-02  0.5635761E-06  0.0000000E+00 -0.1263273E-03
 -0.2978990E-02  0.0000000E+00 -0.5050505E-02  0.5157277E-06  0.0000000E+00 -0.1252316E-03
 -0.2347676E-02  0.0000000E+00 -0.5050505E-02  0.4525030E-06  0.0000000E+00 -0.1242487E-03
 -0.1716362E-02  0.0000000E+00 -0.5050505E-02  0.3715484E-06  0.0000000E+00 -0.1234123E-03
 -0.1025842E-02  0.0000000E+00 -0.5050505E-02  0.2725022E-06  0.0000000E+00 -0.1227586E-03
  0.2367855E-03  0.0000000E+00 -0.5050505E-02  0.1587824E-06  0.0000000E+00 -0.1223209E-03
  0.1499413E-02  0.0000000E+00 -0.5050505E-02  0.3849051E-07  0.0000000E+00 -0.1221207E-03
  0.2762042E-02  0.0000000E+00 -0.5050505E-02 -0.7767188E-07  0.0000000E+00 -0.1221605E-03
 -0.5050505E-02  0.0000000E+00 -0.5050505E-02 -0.1815463E-06  0.0000000E+00 -0.1224235E-03
 -0.5050505E-02  0.0000000E+00 -0.5050505E-02 -0.2696103E-06  0.0000000E+00 -0.1228814E-03
 -0.5050505E-02  0.0000000E+00 -0.5050505E-02 -0.3420702E-06  0.0000000E+00 -0.1235022E-03
 -0.5050505E-02  0.0000000E+00 -0.5050505E-02 -0.4010741E-06  0.0000000E+00 -0.1242565E-03
 -0.5050505E-02  0.0000000E+00 -0.5050505E-02 -0.4492948E-06  0.0000000E+00 -0.1251198E-03
 -0.5050505E-02  0.0000000E+00 -0.5050505E-02 -0.4891565E-06  0.0000000E+00 -0.1260725E-03
 -0.5050505E-02  0.0000000E+00 -0.5050505E-02 -0.5225492E-06  0.0000000E+00 -0.1270997E-03
 -0.5050504E-02  0.0000000E+00 -0.5050505E-02 -0.5508121E-06  0.0000000E+00 -0.1281897E-03
 -0.5050501E-02  0.0000000E+00 -0.5050505E-02 -0.5748308E-06  0.0000000E+00 -0.1293328E-03
 -0.5050495E-02  0.0000000E+00 -0.5050505E-02 -0.5951625E-06  0.0000000E+00 -0.1305212E-03
 -0.5050482E-02  0.0000000E+00 -0.5050505E-02 -0.6121483E-06  0.0000000E+00 -0.1317477E-03
 -0.5050449E-02  0.0000000E+00 -0.5050505E-02 -0.6260020E-06  0.0000000E+00 -0.1330057E-03
 -0.5050376E-02  0.0000000E+00 -0.5050505E-02 -0.6368718E-06  0.0000000E+00 -0.1342890E-03
 -0.5050299E-02  0.0000000E+00 -0.5050505E-02 -0.6448799E-06  0.0000000E+00 -0.1355916E-03
 -0.5050178E-02  0.0000000E+00 -0.5050505E-02 -0.6501453E-06  0.0000000E+00 -0.1369080E-03
 -0.5050018E-02  0.0000000E+00 -0.5050505E-02 -0.6527939E-06  0.0000000E+00 -0.1382326E-03
 -0.5049710E-02  0.0000000E+00 -0.5050505E-02 -0.6529620E-06  0.0000000E+00 -0.1395603E-03
 -0.5049253E-02  0.0000000E+00 -0.5050505E-02 -0.6507953E-06  0.0000000E+00 -0.1408861E-03
 -0.5048636E-02  0.0000000E+00 -0.5050505E-02 -0.6464454E-06  0.0000000E+00 -0.1422056E-03
 -0.5047442E-02  0.0000000E+00 -0.5050505E-02 -0.6400664E-06  0.0000000E+00 -0.1435143E-03
 -0.5045727E-02  0.0000000E+00 -0.5050505E-02 -0.6318120E-06  0.0000000E+00 -0.1448083E-03
 -0.5043261E-02  0.0000000E+00 -0.5050505E-02 -0.6218323E-06  0.0000000E+00 -0.1460840E-03
 -0.5038714E-02  0.0000000E+00 -0.5050505E-02 -0.6102723E-06  0.0000000E+00 -0.1473380E-03
 -0.5032318E-02  0.0000000E+00 -0.5050505E-02 -0.5972708E-06  0.0000000E+00 -0.1485671E-03
 -0.5022454E-02  0.0000000E+00 -0.5050505E-02 -0.5829596E-06  0.0000000E+00 -0.1497686E-03
 -0.5012589E-02  0.0000000E+00 -0.5050505E-02 -0.5674635E-06  0.0000000E+00 -0.1509400E-03
 -0.5002725E-02  0.0000000E+00 -0.5050505E-02 -0.5509010E-06  0.0000000E+00 -0.1520788E-03
 -0.4992860E-02  0.0000000E+00 -0.5050505E-02 -0.5333846E-06  0.0000000E+00 -0.1531831E-03
 -0.4976523E-02  0.0000000E+00 -0.5050505E-02 -0.5150221E-06  0.0000000E+00 -0.1542510E-03
 -0.4956794E-02  0.0000000E+00 -0.5050505E-02 -0.4959180E-06  0.0000000E+00 -0.1552809E-03
 -0.4937066E-02  0.0000000E+00 -0.5050505E-02 -0.4761754E-06  0.0000000E+00 -0.1562713E-03
 -0.4906239E-02  0.0000000E+00 -0.5050505E-02 -0.4558985E-06  0.0000000E+00 -0.1572210E-03
 -0.4866782E-02  0.0000000E+00 -0.5050505E-02 -0.4351965E-06  0.0000000E+00 -0.1581291E-03
 -0.4827325E-02  0.0000000E+00 -0.5050505E-02 -0.4141886E-06  0.0000000E+00 -0.1589948E-03
 -0.4769372E-02  0.0000000E+00 -0.5050505E-02 -0.3930122E-06  0.0000000E+00 -0.1598175E-03
 -0.4690458E-02  0.0000000E+00 -0.5050505E-02 -0.3718350E-06  0.0000000E+00 -0.1605972E-03
 -0.4611543E-02  0.0000000E+00 -0.5050505E-02 -0.3508749E-06  0.0000000E+00 -0.1613340E-03
 -0.4503035E-02  0.0000000E+00 -0.5050505E-02 -0.3304330E-06  0.0000000E+00 -0.1620286E-03
 -0.4345206E-02  0.0000000E+00 -0.5050505E-02 -0.3109515E-06  0.0000000E+00 -0.1626826E-03
 -0.4187378E-02  0.0000000E+00 -0.5050505E-02 -0.2931179E-06  0.0000000E+00 -0.1632986E-03
 -0.3985156E-02  0.0000000E+00 -0.5050505E-02 -0.2780647E-06  0.0000000E+00 -0.1638811E-03
 -0.3669499E-02  0.0000000E+00 -0.5050505E-02 -0.2677728E-06  0.0000000E+00 -0.1644378E-03
 -0.3353842E-02  0.0000000E+00 -0.5050505E-02 -0.2659403E-06  0.0000000E+00 -0.1649821E-03
 -0.2978990E-02  0.0000000E+00 -0.5050505E-02 -0.2800033E-06  0.0000000E+00 -0.1655390E-03
 -0.2347676E-02  0.0000000E+00 -0.5050505E-02 -0.3262410E-06  0.0000000E+00 -0.1661574E-03
 -0.1716362E-02  0.0000000E+00 -0.5050505E-02 -0.4439129E-06  0.0000000E+00 -0.1669430E-03
 -0.1025842E-02  0.0000000E+00 -0.5050505E-02 -0.7382802E-06  0.0000000E+00 -0.1681492E-03
  0.2367855E-03  0.0000000E+00 -0.5050505E-02 -0.1524158E-05  0.0000000E+00 -0.1704578E-03
  0.1499413E-02  0.0000000E+00 -0.5050505E-02 -0.3847200E-05  0.0000000E+00 -0.1759405E-03
  0.5287294E-02  0.0000000E+00 -0.5050505E-02 -0.6215491E-04  0.0000000E+00 -0.1405340E-03
 -0.5050505E-02  0.0000000E+00 -0.5050505E-02  0.3924905E-07  0.0000000E+00 -0.1632876E-03
 -0.5050505E-02  0.0000000E+00 -0.5050505E-02  0.1177156E-06  0.0000000E+00 -0.1632341E-03
 -0.5050505E-02  0.0000000E+00 -0.5050505E-02  0.1960874E-06  0.0000000E+00 -0.1631270E-03
 -0.5050505E-02  0.0000000E+00 -0.5050505E-02  0.2743006E-06  0.0000000E+00 -0.1629664E-03
 -0.5050505E-02  0.0000000E+00 -0.5050505E-02  0.3522892E-06  0.0000000E+00 -0.1627526E-03
 -0.5050505E-02  0.0000000E+00 -0.5050505E-02  0.4299851E-06  0.0000000E+00 -0.1624856E-03
 -0.5050504E-02  0.0000000E+00 -0.5050505E-02  0.5073165E-06  0.0000000E+00 -0.1621658E-03
 -0.5050501E-02  0.0000000E+00 -0.5050505E-02  0.5842078E-06  0.0000000E+00 -0.1617933E-03
 -0.5050495E-02  0.0000000E+00 -0.5050505E-02  0.6605783E-06  0.0000000E+00 -0.1613685E-03
 -0.5050482E-02  0.0000000E+00 -0.5050505E-02  0.7363417E-06  0.0000000E+00 -0.1608919E-03
 -0.5050449E-02  0.0000000E+00 -0.5050505E-02  0.8114057E-06  0.0000000E+00 -0.1603638E-03
 -0.5050376E-02  0.0000000E+00 -0.5050505E-02  0.8856709E-06  0.0000000E+00 -0.1597847E-03
 -0.5050299E-02  0.0000000E+00 -0.5050505E-02  0.9590305E-06  0.0000000E+00 -0.1591553E-03
 -0.5050178E-02  0.0000000E+00 -0.5050505E-02  0.1031370E-05  0.0000000E+00 -0.1584762E-03
 -0.5050018E-02  0.0000000E+00 -0.5050505E-02  0.1102565E-05  0.0000000E+00 -0.1577482E-03
 -0.5049710E-02  0.0000000E+00 -0.5050505E-02  0.1172485E-05  0.0000000E+00 -0.1569721E-03
 -0.5049253E-02  0.0000000E+00 -0.5050505E-02  0.1240989E-05  0.0000000E+00 -0.1561487E-03
 -0.5048636E-02  0.0000000E+00 -0.5050505E-02  0.1307926E-05  0.0000000E+00 -0.1552792E-03
 -0.5047442E-02  0.0000000E+00 -0.5050505E-02  0.1373136E-05  0.0000000E+00 -0.1543647E-03
 -0.5045727E-02  0.0000000E+00 -0.5050505E-02  0.1436450E-05  0.0000000E+00 -0.1534064E-03
 -0.5043261E-02  0.0000000E+00 -0.5050505E-02  0.1497691E-05  0.0000000E+00 -0.1524056E-03
 -0.5038714E-02  0.0000000E+00 -0.5050505E-02  0.1556671E-05  0.0000000E+00 -0.1513639E-03
 -0.5032318E-02  0.0000000E+00 -0.5050505E-02  0.1613192E-05  0.0000000E+00 -0.1502829E-03
 -0.5022454E-02  0.0000000E+00 -0.5050505E-02  0.1667050E-05  0.0000000E+00 -0.1491643E-03
 -0.5012589E-02  0.0000000E+00 -0.5050505E-02  0.1718026E-05  0.0000000E+00 -0.1480100E-03
 -0.5002725E-02  0.0000000E+00 -0.5050505E-02  0.1765895E-05  0.0000000E+00 -0.1468220E-03
 -0.4992860E-02  0.0000000E+00 -0.5050505E-02  0.1810416E-05  0.0000000E+00 -0.1456026E-03
 -0.4976523E-02  0.0000000E+00 -0.5050505E-02  0.1851333E-05  0.0000000E+00 -0.1443541E-03
 -0.4956794E-02  0.0000000E+00 -0.5050505E-02  0.1888370E-05  0.0000000E+00 -0.1430790E-03
 -0.4937066E-02  0.0000000E+00 -0.5050505E-02  0.1921222E-05  0.0000000E+00 -0.1417802E-03
 -0.4906239E-02  0.0000000E+00 -0.5050505E-02  0.1949549E-05  0.0000000E+00 -0.1404604E-03
 -0.4866782E-02  0.0000000E+00 -0.5050505E-02  0.1972954E-05  0.0000000E+00 -0.1391230E-03
 -0.4827325E-02  0.0000000E+00 -0.5050505E-02  0.1990968E-05  0.0000000E+00 -0.1377713E-03
 -0.4769372E-02  0.0000000E+00 -0.5050505E-02  0.2003010E-05  0.0000000E+00 -0.1364093E-03
 -0.4690458E-02  0.0000000E+00 -0.5050505E-02  0.2008336E-05  0.0000000E+00 -0.1350409E-03
 -0.4611543E-02  0.0000000E+00 -0.5050505E-02  0.2005971E-05  0.0000000E+00 -0.1336711E-03
 -0.4503035E-02  0.0000000E+00 -0.5050505E-02  0.1994589E-05  0.0000000E+00 -0.1323053E-03
 -0.4345206E-02  0.0000000E+00 -0.5050505E-02  0.1972356E-05  0.0000000E+00 -0.1309498E-03
 -0.4187378E-02  0.0000000E+00 -0.5050505E-02  0.1936704E-05  0.0000000E+00 -0.1296126E-03
 -0.3985156E-02  0.0000000E+00 -0.5050505E-02  0.1884025E-05  0.0000000E+00 -0.1283034E-03
 -0.3669499E-02  0.0000000E+00 -0.5050505E-02  0.1809318E-05  0.0000000E+00 -0.1270349E-03
 -0.3353842E-02  0.0000000E+00 -0.5050505E-02  0.1705863E-05  0.0000000E+00 -0.1258236E-03
 -0.2978990E-02  0.0000000E+00 -0.5050505E-02  0.1565161E-05  0.0000000E+00 -0.1246915E-03
 -0.2347676E-02  0.0000000E+00 -0.5050505E-02  0.1377604E-05  0.0000000E+00 -0.1236675E-03
 -0.1716362E-02  0.0000000E+00 -0.5050505E-02  0.1134677E-05  0.0000000E+00 -0.1227882E-03
 -0.1025842E-02  0.0000000E+00 -0.5050505E-02  0.8335062E-06  0.0000000E+00 -0.1220963E-03
  0.2367855E-03  0.0000000E+00 -0.5050505E-02  0.4834904E-06  0.0000000E+00 -0.1216339E-03
  0.1499413E-02  0.0000000E+00 -0.5050505E-02  0.1111115E-06  0.0000000E+00 -0.1214304E-03
  0.2762042E-02  0.0000000E+00 -0.5050505E-02 -0.2462901E-06  0.0000000E+00 -0.1214881E-03
 -0.5050505E-02  0.0000000E+00 -0.5050505E-02 -0.5620650E-06  0.0000000E+00 -0.1217830E-03
 -0.5050505E-02  0.0000000E+00 -0.5050505E-02 -0.8265016E-06  0.0000000E+00 -0.1222777E-03
 -0.5050505E-02  0.0000000E+00 -0.5050505E-02 -0.1042009E-05  0.0000000E+00 -0.1229341E-03
 -0.5050505E-02  0.0000000E+00 -0.5050505E-02 -0.1216479E-05  0.0000000E+00 -0.1237199E-03
 -0.5050505E-02  0.0000000E+00 -0.5050505E-02 -0.1358749E-05  0.0000000E+00 -0.1246098E-03
 -0.5050505E-02  0.0000000E+00 -0.5050505E-02 -0.1476417E-05  0.0000000E+00 -0.1255850E-03
 -0.5050505E-02  0.0000000E+00 -0.5050505E-02 -0.1575197E-05  0.0000000E+00 -0.1266316E-03
 -0.5050504E-02  0.0000000E+00 -0.5050505E-02 -0.1659027E-05  0.0000000E+00 -0.1277387E-03
 -0.5050501E-02  0.0000000E+00 -0.5050505E-02 -0.1730451E-05  0.0000000E+00 -0.1288975E-03
 -0.5050495E-02  0.0000000E+00 -0.5050505E-02 -0.1791030E-05  0.0000000E+00 -0.1301006E-03
 -0.5050482E-02  0.0000000E+00 -0.5050505E-02 -0.1841701E-05  0.0000000E+00 -0.1313411E-03
 -0.5050449E-02  0.0000000E+00 -0.5050505E-02 -0.1883044E-05  0.0000000E+00 -0.1326127E-03
 -0.5050376E-02  0.0000000E+00 -0.5050505E-02 -0.1915461E-05  0.0000000E+00 -0.1339092E-03
 -0.5050299E-02  0.0000000E+00 -0.5050505E-02 -0.1939297E-05  0.0000000E+00 -0.1352248E-03
 -0.5050178E-02  0.0000000E+00 -0.5050505E-02 -0.1954896E-05  0.0000000E+00 -0.1365537E-03
 -0.5050018E-02  0.0000000E+00 -0.5050505E-02 -0.1962633E-05  0.0000000E+00 -0.1378905E-03
 -0.5049710E-02  0.0000000E+00 -0.5050505E-02 -0.1962919E-05  0.0000000E+00 -0.1392299E-03
 -0.5049253E-02  0.0000000E+00 -0.5050505E-02 -0.1956192E-05  0.0000000E+00 -0.1405670E-03
 -0.5048636E-02  0.0000000E+00 -0.5050505E-02 -0.1942913E-05  0.0000000E+00 -0.1418972E-03
 -0.5047442E-02  0.0000000E+00 -0.5050505E-02 -0.1923547E-05  0.0000000E+00 -0.1432163E-03
 -0.5045727E-02  0.0000000E+00 -0.5050505E-02 -0.1898559E-05  0.0000000E+00 -0.1445201E-03
 -0.5043261E-02  0.0000000E+00 -0.5050505E-02 -0.1868400E-05  0.0000000E+00 -0.1458051E-03
 -0.5038714E-02  0.0000000E+00 -0.5050505E-02 -0.1833508E-05  0.0000000E+00 -0.1470678E-03
 -0.5032318E-02  0.0000000E+00 -0.5050505E-02 -0.1794300E-05  0.0000000E+00 -0.1483053E-03
 -0.5022454E-02  0.0000000E+00 -0.5050505E-02 -0.1751172E-05  0.0000000E+00 -0.1495146E-03
 -0.5012589E-02  0.0000000E+00 -0.5050505E-02 -0.1704497E-05  0.0000000E+00 -0.1506933E-03
 -0.5002725E-02  0.0000000E+00 -0.5050505E-02 -0.1654631E-05  0.0000000E+00 -0.1518391E-03
 -0.4992860E-02  0.0000000E+00 -0.5050505E-02 -0.1601910E-05  0.0000000E+00 -0.1529499E-03
 -0.4976523E-02  0.0000000E+00 -0.5050505E-02 -0.1546656E-05  0.0000000E+00 -0.1540238E-03
 -0.4956794E-02  0.0000000E+00 -0.5050505E-02 -0.1489181E-05  0.0000000E+00 -0.1550593E-03
 -0.4937066E-02  0.0000000E+00 -0.5050505E-02 -0.1429791E-05  0.0000000E+00 -0.1560549E-03
 -0.4906239E-02  0.0000000E+00 -0.5050505E-02 -0.1368796E-05  0.0000000E+00 -0.1570094E-03
 -0.4866782E-02  0.0000000E+00 -0.5050505E-02 -0.1306517E-05  0.0000000E+00 -0.1579218E-03
 -0.4827325E-02  0.0000000E+00 -0.5050505E-02 -0.1243304E-05  0.0000000E+00 -0.1587913E-03
 -0.4769372E-02  0.0000000E+00 -0.5050505E-02 -0.1179556E-05  0.0000000E+00 -0.1596174E-03
 -0.4690458E-02  0.0000000E+00 -0.5050505E-02 -0.1115758E-05  0.0000000E+00 -0.1603998E-03
 -0.4611543E-02  0.0000000E+00 -0.5050505E-02 -0.1052528E-05  0.0000000E+00 -0.1611386E-03
 -0.4503035E-02  0.0000000E+00 -0.5050505E-02 -0.9907143E-06  0.0000000E+00 -0.1618343E-03
 -0.4345206E-02  0.0000000E+00 -0.5050505E-02 -0.9315377E-06  0.0000000E+00 -0.1624880E-03
 -0.4187378E-02  0.0000000E+00 -0.5050505E-02 -0.8768629E-06  0.0000000E+00 -0.1631016E-03
 -0.3985156E-02  0.0000000E+00 -0.5050505E-02 -0.8296881E-06  0.0000000E+00 -0.1636784E-03
 -0.3669499E-02  0.0000000E+00 -0.5050505E-02 -0.7950955E-06  0.0000000E+00 -0.1642235E-03
 -0.3353842E-02  0.0000000E+00 -0.5050505E-02 -0.7821856E-06  0.0000000E+00 -0.1647449E-03
 -0.2978990E-02  0.0000000E+00 -0.5050505E-02 -0.8082327E-06  0.0000000E+00 -0.1652548E-03
 -0.2347676E-02  0.0000000E+00 -0.5050505E-02 -0.9081538E-06  0.0000000E+00 -0.1657704E-03
 -0.1716362E-02  0.0000000E+00 -0.5050505E-02 -0.1157407E-05  0.0000000E+00 -0.1663082E-03
 -0.1025842E-02  0.0000000E+00 -0.5050505E-02 -0.1730667E-05  0.0000000E+00 -0.1668456E-03
  0.2367855E-03  0.0000000E+00 -0.5050505E-02 -0.3060248E-05  0.0000000E+00 -0.1671234E-03
  0.1499413E-02  0.0000000E+00 -0.5050505E-02 -0.6281900E-05  0.0000000E+00 -0.1657115E-03
  0.5287294E-02  0.0000000E+00 -0.5050505E-02 -0.1452024E-04  0.0000000E+00 -0.1556504E-03
 -0.5050505E-02  0.0000000E+00 -0.5050505E-02  0.6553854E-07  0.0000000E+00 -0.1629218E-03
 -0.5050505E-02  0.0000000E+00 -0.5050505E-02  0.1965638E-06  0.0000000E+00 -0.1628677E-03
 -0.5050505E-02  0.0000000E+00 -0.5050505E-02  0.3274333E-06  0.0000000E+00 -0.1627596E-03
 -0.5050505E-02  0.0000000E+00 -0.5050505E-02  0.4580415E-06  0.0000000E+00 -0.1625976E-03
 -0.5050505E-02  0.0000000E+00 -0.5050505E-02  0.5882801E-06  0.0000000E+00 -0.1623818E-03
 -0.5050505E-02  0.0000000E+00 -0.5050505E-02  0.7180363E-06  0.0000000E+00 -0.1621123E-03
 -0.5050504E-02  0.0000000E+00 -0.5050505E-02  0.8471919E-06  0.0000000E+00 -0.1617895E-03
 -0.5050501E-02  0.0000000E+00 -0.5050505E-02  0.9756215E-06  0.0000000E+00 -0.1614135E-03
 -0.5050495E-02  0.0000000E+00 -0.5050505E-02  0.1103192E-05  0.0000000E+00 -0.1609847E-03
 -0.5050482E-02  0.0000000E+00 -0.5050505E-02  0.1229760E-05  0.0000000E+00 -0.1605034E-03
 -0.5050449E-02  0.0000000E+00 -0.5050505E-02  0.1355173E-05  0.0000000E+00 -0.1599702E-03
 -0.5050376E-02  0.0000000E+00 -0.5050505E-02  0.1479266E-05  0.0000000E+00 -0.1593855E-03
 -0.5050299E-02  0.0000000E+00 -0.5050505E-02  0.1601862E-05  0.0000000E+00 -0.1587498E-03
 -0.5050178E-02  0.0000000E+00 -0.5050505E-02  0.1722769E-05  0.0000000E+00 -0.1580639E-03
 -0.5050018E-02  0.0000000E+00 -0.5050505E-02  0.1841784E-05  0.0000000E+00 -0.1573285E-03
 -0.5049710E-02  0.0000000E+00 -0.5050505E-02  0.1958687E-05  0.0000000E+00 -0.1565443E-03
 -0.5049253E-02  0.0000000E+00 -0.5050505E-02  0.2073242E-05  0.0000000E+00 -0.1557123E-03
 -0.5048636E-02  0.0000000E+00 -0.5050505E-02  0.2185200E-05  0.0000000E+00 -0.1548335E-03
 -0.5047442E-02  0.0000000E+00 -0.5050505E-02  0.2294294E-05  0.0000000E+00 -0.1539091E-03
 -0.5045727E-02  0.0000000E+00 -0.5050505E-02  0.2400243E-05  0.0000000E+00 -0.1529402E-03
 -0.5043261E-02  0.0000000E+00 -0.5050505E-02  0.2502750E-05  0.0000000E+00 -0.1519282E-03
 -0.5038714E-02  0.0000000E+00 -0.5050505E-02  0.2601502E-05  0.0000000E+00 -0.1508746E-03
 -0.5032318E-02  0.0000000E+00 -0.5050505E-02  0.2696172E-05  0.0000000E+00 -0.1497809E-03
 -0.5022454E-02  0.0000000E+00 -0.5050505E-02  0.2786418E-05  0.0000000E+00 -0.1486489E-03
 -0.5012589E-02  0.0000000E+00 -0.5050505E-02  0.2871879E-05  0.0000000E+00 -0.1474806E-03
 -0.5002725E-02  0.0000000E+00 -0.5050505E-02  0.2952180E-05  0.0000000E+00 -0.1462778E-03
 -0.4992860E-02  0.0000000E+00 -0.5050505E-02  0.3026925E-05  0.0000000E+00 -0.1450428E-03
 -0.4976523E-02  0.0000000E+00 -0.5050505E-02  0.3095693E-05  0.0000000E+00 -0.1437780E-03
 -0.4956794E-02  0.0000000E+00 -0.5050505E-02  0.3158034E-05  0.0000000E+00 -0.1424858E-03
 -0.4937066E-02  0.0000000E+00 -0.5050505E-02  0.3213454E-05  0.0000000E+00 -0.1411690E-03
 -0.4906239E-02  0.0000000E+00 -0.5050505E-02  0.3261404E-05  0.0000000E+00 -0.1398303E-03
 -0.4866782E-02  0.0000000E+00 -0.5050505E-02  0.3301254E-05  0.0000000E+00 -0.1384730E-03
 -0.4827325E-02  0.0000000E+00 -0.5050505E-02  0.3332259E-05  0.0000000E+00 -0.1371003E-03
 -0.4769372E-02  0.0000000E+00 -0.5050505E-02  0.3353512E-05  0.0000000E+00 -0.1357158E-03
 -0.4690458E-02  0.0000000E+00 -0.5050505E-02  0.3363863E-05  0.0000000E+00 -0.1343234E-03
 -0.4611543E-02  0.0000000E+00 -0.5050505E-02  0.3361808E-05  0.0000000E+00 -0.1329276E-03
 -0.4503035E-02  0.0000000E+00 -0.5050505E-02  0.3345318E-05  0.0000000E+00 -0.1315331E-03
 -0.4345206E-02  0.0000000E+00 -0.5050505E-02  0.3311578E-05  0.0000000E+00 -0.1301456E-03
 -0.4187378E-02  0.0000000E+00 -0.5050505E-02  0.3256618E-05  0.0000000E+00 -0.1287717E-03
 -0.3985156E-02  0.0000000E+00 -0.5050505E-02  0.3174774E-05  0.0000000E+00 -0.1274197E-03
 -0.3669499E-02  0.0000000E+00 -0.5050505E-02  0.3057991E-05  0.0000000E+00 -0.1261000E-03
 -0.3353842E-02  0.0000000E+00 -0.5050505E-02  0.2895012E-05  0.0000000E+00 -0.1248272E-03
 -0.2978990E-02  0.0000000E+00 -0.5050505E-02  0.2670745E-05  0.0000000E+00 -0.1236213E-03
 -0.2347676E-02  0.0000000E+00 -0.5050505E-02  0.2366544E-05  0.0000000E+00 -0.1225116E-03
 -0.1716362E-02  0.0000000E+00 -0.5050505E-02  0.1963048E-05  0.0000000E+00 -0.1215399E-03
 -0.1025842E-02  0.0000000E+00 -0.5050505E-02  0.1448208E-05  0.0000000E+00 -0.1207622E-03
  0.2367855E-03  0.0000000E+00 -0.5050505E-02  0.8327585E-06  0.0000000E+00 -0.1202428E-03
  0.1499413E-02  0.0000000E+00 -0.5050505E-02  0.1681248E-06  0.0000000E+00 -0.1200324E-03
  0.2762042E-02  0.0000000E+00 -0.5050505E-02 -0.4598413E-06  0.0000000E+00 -0.1201339E-03
 -0.5050505E-02  0.0000000E+00 -0.5050505E-02 -0.9994404E-06  0.0000000E+00 -0.1205016E-03
 -0.5050505E-02  0.0000000E+00 -0.5050505E-02 -0.1439423E-05  0.0000000E+00 -0.1210765E-03
 -0.5050505E-02  0.0000000E+00 -0.5050505E-02 -0.1791057E-05  0.0000000E+00 -0.1218072E-03
 -0.5050505E-02  0.0000000E+00 -0.5050505E-02 -0.2072656E-05  0.0000000E+00 -0.1226567E-03
 -0.5050505E-02  0.0000000E+00 -0.5050505E-02 -0.2301552E-05  0.0000000E+00 -0.1235996E-03
 -0.5050505E-02  0.0000000E+00 -0.5050505E-02 -0.2491293E-05  0.0000000E+00 -0.1246190E-03
 -0.5050505E-02  0.0000000E+00 -0.5050505E-02 -0.2651402E-05  0.0000000E+00 -0.1257034E-03
 -0.5050504E-02  0.0000000E+00 -0.5050505E-02 -0.2788094E-05  0.0000000E+00 -0.1268440E-03
 -0.5050501E-02  0.0000000E+00 -0.5050505E-02 -0.2905182E-05  0.0000000E+00 -0.1280336E-03
 -0.5050495E-02  0.0000000E+00 -0.5050505E-02 -0.3004892E-05  0.0000000E+00 -0.1292656E-03
 -0.5050482E-02  0.0000000E+00 -0.5050505E-02 -0.3088491E-05  0.0000000E+00 -0.1305340E-03
 -0.5050449E-02  0.0000000E+00 -0.5050505E-02 -0.3156736E-05  0.0000000E+00 -0.1318328E-03
 -0.5050376E-02  0.0000000E+00 -0.5050505E-02 -0.3210172E-05  0.0000000E+00 -0.1331558E-03
 -0.5050299E-02  0.0000000E+00 -0.5050505E-02 -0.3249295E-05  0.0000000E+00 -0.1344972E-03
 -0.5050178E-02  0.0000000E+00 -0.5050505E-02 -0.3274649E-05  0.0000000E+00 -0.1358512E-03
 -0.5050018E-02  0.0000000E+00 -0.5050505E-02 -0.3286850E-05  0.0000000E+00 -0.1372122E-03
 -0.5049710E-02  0.0000000E+00 -0.5050505E-02 -0.3286588E-05  0.0000000E+00 -0.1385751E-03
 -0.5049253E-02  0.0000000E+00 -0.5050505E-02 -0.3274610E-05  0.0000000E+00 -0.1399347E-03
 -0.5048636E-02  0.0000000E+00 -0.5050505E-02 -0.3251695E-05  0.0000000E+00 -0.1412865E-03
 -0.5047442E-02  0.0000000E+00 -0.5050505E-02 -0.3218633E-05  0.0000000E+00 -0.1426261E-03
 -0.5045727E-02  0.0000000E+00 -0.5050505E-02 -0.3176209E-05  0.0000000E+00 -0.1439494E-03
 -0.5043261E-02  0.0000000E+00 -0.5050505E-02 -0.3125185E-05  0.0000000E+00 -0.1452529E-03
 -0.5038714E-02  0.0000000E+00 -0.5050505E-02 -0.3066294E-05  0.0000000E+00 -0.1465332E-03
 -0.5032318E-02  0.0000000E+00 -0.5050505E-02 -0.3000235E-05  0.0000000E+00 -0.1477873E-03
 -0.5022454E-02  0.0000000E+00 -0.5050505E-02 -0.2927668E-05  0.0000000E+00 -0.1490122E-03
 -0.5012589E-02  0.0000000E+00 -0.5050505E-02 -0.2849217E-05  0.0000000E+00 -0.1502056E-03
 -0.5002725E-02  0.0000000E+00 -0.5050505E-02 -0.2765472E-05  0.0000000E+00 -0.1513652E-03
 -0.4992860E-02  0.0000000E+00 -0.5050505E-02 -0.2676989E-05  0.0000000E+00 -0.1524889E-03
 -0.4976523E-02  0.0000000E+00 -0.5050505E-02 -0.2584303E-05  0.0000000E+00 -0.1535749E-03
 -0.4956794E-02  0.0000000E+00 -0.5050505E-02 -0.2487925E-05  0.0000000E+00 -0.1546216E-03
 -0.4937066E-02  0.0000000E+00 -0.5050505E-02 -0.2388358E-05  0.0000000E+00 -0.1556276E-03
 -0.4906239E-02  0.0000000E+00 -0.5050505E-02 -0.2286106E-05  0.0000000E+00 -0.1565916E-03
 -0.4866782E-02  0.0000000E+00 -0.5050505E-02 -0.2181689E-05  0.0000000E+00 -0.1575126E-03
 -0.4827325E-02  0.0000000E+00 -0.5050505E-02 -0.2075665E-05  0.0000000E+00 -0.1583899E-03
 -0.4769372E-02  0.0000000E+00 -0.5050505E-02 -0.1968661E-05  0.0000000E+00 -0.1592226E-03
 -0.4690458E-02  0.0000000E+00 -0.5050505E-02 -0.1861422E-05  0.0000000E+00 -0.1600106E-03
 -0.4611543E-02  0.0000000E+00 -0.5050505E-02 -0.1754884E-05  0.0000000E+00 -0.1607536E-03
 -0.4503035E-02  0.0000000E+00 -0.5050505E-02 -0.1650287E-05  0.0000000E+00 -0.1614517E-03
 -0.4345206E-02  0.0000000E+00 -0.5050505E-02 -0.1549370E-05  0.0000000E+00 -0.1621054E-03
 -0.4187378E-02  0.0000000E+00 -0.5050505E-02 -0.1454685E-05  0.0000000E+00 -0.1627156E-03
 -0.3985156E-02  0.0000000E+00 -0.5050505E-02 -0.1370156E-05  0.0000000E+00 -0.1632836E-03
 -0.3669499E-02  0.0000000E+00 -0.5050505E-02 -0.1302057E-05  0.0000000E+00 -0.1638109E-03
 -0.3353842E-02  0.0000000E+00 -0.5050505E-02 -0.1260789E-05  0.0000000E+00 -0.1642988E-03
 -0.2978990E-02  0.0000000E+00 -0.5050505E-02 -0.1264134E-05  0.0000000E+00 -0.1647462E-03
 -0.2347676E-02  0.0000000E+00 -0.5050505E-02 -0.1343103E-05  0.0000000E+00 -0.1651439E-03
 -0.1716362E-02  0.0000000E+00 -0.5050505E-02 -0.1551633E-05  0.0000000E+00 -0.1654575E-03
 -0.1025842E-02  0.0000000E+00 -0.5050505E-02 -0.1978111E-05  0.0000000E+00 -0.1655826E-03
  0.2367855E-03  0.0000000E+00 -0.5050505E-02 -0.2734540E-05  0.0000000E+00 -0.1652390E-03
  0.1499413E-02  0.0000000E+00 -0.5050505E-02 -0.3785942E-05  0.0000000E+00 -0.1638023E-03
  0.5287294E-02  0.0000000E+00 -0.5050505E-02 -0.3953445E-05  0.0000000E+00 -0.1606313E-03
 -0.5050505E-02  0.0000000E+00 -0.5050505E-02  0.9206090E-07  0.0000000E+00 -0.1623804E-03
 -0.5050505E-02  0.0000000E+00 -0.5050505E-02  0.2761115E-06  0.0000000E+00 -0.1623256E-03
 -0.5050505E-02  0.0000000E+00 -0.5050505E-02  0.4599480E-06  0.0000000E+00 -0.1622161E-03
 -0.5050505E-02  0.0000000E+00 -0.5050505E-02  0.6434251E-06  0.0000000E+00 -0.1620518E-03
 -0.5050505E-02  0.0000000E+00 -0.5050505E-02  0.8263936E-06  0.0000000E+00 -0.1618331E-03
 -0.5050505E-02  0.0000000E+00 -0.5050505E-02  0.1008698E-05  0.0000000E+00 -0.1615599E-03
 -0.5050504E-02  0.0000000E+00 -0.5050505E-02  0.1190174E-05  0.0000000E+00 -0.1612326E-03
 -0.5050501E-02  0.0000000E+00 -0.5050505E-02  0.1370650E-05  0.0000000E+00 -0.1608513E-03
 -0.5050495E-02  0.0000000E+00 -0.5050505E-02  0.1549940E-05  0.0000000E+00 -0.1604165E-03
 -0.5050482E-02  0.0000000E+00 -0.5050505E-02  0.1727847E-05  0.0000000E+00 -0.1599284E-03
 -0.5050449E-02  0.0000000E+00 -0.5050505E-02  0.1904158E-05  0.0000000E+00 -0.1593875E-03
 -0.5050376E-02  0.0000000E+00 -0.5050505E-02  0.2078643E-05  0.0000000E+00 -0.1587943E-03
 -0.5050299E-02  0.0000000E+00 -0.5050505E-02  0.2251056E-05  0.0000000E+00 -0.1581494E-03
 -0.5050178E-02  0.0000000E+00 -0.5050505E-02  0.2421132E-05  0.0000000E+00 -0.1574533E-03
 -0.5050018E-02  0.0000000E+00 -0.5050505E-02  0.2588585E-05  0.0000000E+00 -0.1567067E-03
 -0.5049710E-02  0.0000000E+00 -0.5050505E-02  0.2753107E-05  0.0000000E+00 -0.1559106E-03
 -0.5049253E-02  0.0000000E+00 -0.5050505E-02  0.2914370E-05  0.0000000E+00 -0.1550657E-03
 -0.5048636E-02  0.0000000E+00 -0.5050505E-02  0.3072024E-05  0.0000000E+00 -0.1541730E-03
 -0.5047442E-02  0.0000000E+00 -0.5050505E-02  0.3225697E-05  0.0000000E+00 -0.1532338E-03
 -0.5045727E-02  0.0000000E+00 -0.5050505E-02  0.3374995E-05  0.0000000E+00 -0.1522490E-03
 -0.5043261E-02  0.0000000E+00 -0.5050505E-02  0.3519500E-05  0.0000000E+00 -0.1512202E-03
 -0.5038714E-02  0.0000000E+00 -0.5050505E-02  0.3658776E-05  0.0000000E+00 -0.1501487E-03
 -0.5032318E-02  0.0000000E+00 -0.5050505E-02  0.3792364E-05  0.0000000E+00 -0.1490362E-03
 -0.5022454E-02  0.0000000E+00 -0.5050505E-02  0.3919786E-05  0.0000000E+00 -0.1478842E-03
 -0.5012589E-02  0.0000000E+00 -0.5050505E-02  0.4040542E-05  0.0000000E+00 -0.1466948E-03
 -0.5002725E-02  0.0000000E+00 -0.5050505E-02  0.4154110E-05  0.0000000E+00 -0.1454700E-03
 -0.4992860E-02  0.0000000E+00 -0.5050505E-02  0.4259943E-05  0.0000000E+00 -0.1442117E-03
 -0.4976523E-02  0.0000000E+00 -0.5050505E-02  0.4357465E-05  0.0000000E+00 -0.1429225E-03
 -0.4956794E-02  0.0000000E+00 -0.5050505E-02  0.4446063E-05  0.0000000E+00 -0.1416047E-03
 -0.4937066E-02  0.0000000E+00 -0.5050505E-02  0.4525072E-05  0.0000000E+00 -0.1402610E-03