title = "dataset feddes"
variables = "x", "y", "z", "vx", "vy", "vz"
zone t = "velocities, solution time =  1.000E+01 days        " i =   99, j =   99, k =    1,  f=point
 -0.5050505E-02  0.0000000E+00 -0.5050505E-02 -0.2656709E-11  0.0000000E+00 -0.6450953E-03
 -0.5050505E-02  0.0000000E+00 -0.5050505E-02 -0.8805311E-11  0.0000000E+00 -0.6450954E-03
 -0.5050505E-02  0.0000000E+00 -0.5050505E-02 -0.1507460E-10  0.0000000E+00 -0.6450954E-03
 -0.5050505E-02  0.0000000E+00 -0.5050505E-02 -0.2103356E-10  0.0000000E+00 -0.6450954E-03
 -0.5050505E-02  0.0000000E+00 -0.5050505E-02 -0.2757065E-10  0.0000000E+00 -0.6450955E-03
 -0.5050505E-02  0.0000000E+00 -0.5050505E-02 -0.3445120E-10  0.0000000E+00 -0.6450955E-03
 -0.5050504E-02  0.0000000E+00 -0.5050505E-02 -0.4135384E-10  0.0000000E+00 -0.6450956E-03
 -0.5050501E-02  0.0000000E+00 -0.5050505E-02 -0.4819885E-10  0.0000000E+00 -0.6450957E-03
 -0.5050495E-02  0.0000000E+00 -0.5050505E-02 -0.5504275E-10  0.0000000E+00 -0.6450958E-03
 -0.5050482E-02  0.0000000E+00 -0.5050505E-02 -0.6197035E-10  0.0000000E+00 -0.6450960E-03
 -0.5050449E-02  0.0000000E+00 -0.5050505E-02 -0.6906167E-10  0.0000000E+00 -0.6450961E-03
 -0.5050376E-02  0.0000000E+00 -0.5050505E-02 -0.7637762E-10  0.0000000E+00 -0.6450963E-03
 -0.5050299E-02  0.0000000E+00 -0.5050505E-02 -0.8396969E-10  0.0000000E+00 -0.6450964E-03
 -0.5050178E-02  0.0000000E+00 -0.5050505E-02 -0.9188010E-10  0.0000000E+00 -0.6450966E-03
 -0.5050018E-02  0.0000000E+00 -0.5050505E-02 -0.1001487E-09  0.0000000E+00 -0.6450968E-03
 -0.5049710E-02  0.0000000E+00 -0.5050505E-02 -0.1088144E-09  0.0000000E+00 -0.6450970E-03
 -0.5049253E-02  0.0000000E+00 -0.5050505E-02 -0.1179155E-09  0.0000000E+00 -0.6450973E-03
 -0.5048636E-02  0.0000000E+00 -0.5050505E-02 -0.1274921E-09  0.0000000E+00 -0.6450976E-03
 -0.5047442E-02  0.0000000E+00 -0.5050505E-02 -0.1375853E-09  0.0000000E+00 -0.6450978E-03
 -0.5045727E-02  0.0000000E+00 -0.5050505E-02 -0.1482378E-09  0.0000000E+00 -0.6450981E-03
 -0.5043261E-02  0.0000000E+00 -0.5050505E-02 -0.1594947E-09  0.0000000E+00 -0.6450985E-03
 -0.5038714E-02  0.0000000E+00 -0.5050505E-02 -0.1714029E-09  0.0000000E+00 -0.6450988E-03
 -0.5032318E-02  0.0000000E+00 -0.5050505E-02 -0.1840123E-09  0.0000000E+00 -0.6450992E-03
 -0.5022454E-02  0.0000000E+00 -0.5050505E-02 -0.1973753E-09  0.0000000E+00 -0.6450996E-03
 -0.5012589E-02  0.0000000E+00 -0.5050505E-02 -0.2115477E-09  0.0000000E+00 -0.6451001E-03
 -0.5002725E-02  0.0000000E+00 -0.5050505E-02 -0.2265885E-09  0.0000000E+00 -0.6451005E-03
 -0.4992860E-02  0.0000000E+00 -0.5050505E-02 -0.2425607E-09  0.0000000E+00 -0.6451010E-03
 -0.4976523E-02  0.0000000E+00 -0.5050505E-02 -0.2595313E-09  0.0000000E+00 -0.6451016E-03
 -0.4956794E-02  0.0000000E+00 -0.5050505E-02 -0.2775718E-09  0.0000000E+00 -0.6451022E-03
 -0.4937066E-02  0.0000000E+00 -0.5050505E-02 -0.2967590E-09  0.0000000E+00 -0.6451028E-03
 -0.4906239E-02  0.0000000E+00 -0.5050505E-02 -0.3171749E-09  0.0000000E+00 -0.6451034E-03
 -0.4866782E-02  0.0000000E+00 -0.5050505E-02 -0.3389078E-09  0.0000000E+00 -0.6451041E-03
 -0.4827325E-02  0.0000000E+00 -0.5050505E-02 -0.3620524E-09  0.0000000E+00 -0.6451049E-03
 -0.4769372E-02  0.0000000E+00 -0.5050505E-02 -0.3867108E-09  0.0000000E+00 -0.6451057E-03
 -0.4690458E-02  0.0000000E+00 -0.5050505E-02 -0.4129933E-09  0.0000000E+00 -0.6451066E-03
 -0.4611543E-02  0.0000000E+00 -0.5050505E-02 -0.4410190E-09  0.0000000E+00 -0.6451075E-03
 -0.4503035E-02  0.0000000E+00 -0.5050505E-02 -0.4709169E-09  0.0000000E+00 -0.6451085E-03
 -0.4345206E-02  0.0000000E+00 -0.5050505E-02 -0.5028270E-09  0.0000000E+00 -0.6451095E-03
 -0.4187378E-02  0.0000000E+00 -0.5050505E-02 -0.5369013E-09  0.0000000E+00 -0.6451106E-03
 -0.3985156E-02  0.0000000E+00 -0.5050505E-02 -0.5733056E-09  0.0000000E+00 -0.6451118E-03
 -0.3669499E-02  0.0000000E+00 -0.5050505E-02 -0.6122205E-09  0.0000000E+00 -0.6451131E-03
 -0.3353842E-02  0.0000000E+00 -0.5050505E-02 -0.6538438E-09  0.0000000E+00 -0.6451145E-03
 -0.2978990E-02  0.0000000E+00 -0.5050505E-02 -0.6983920E-09  0.0000000E+00 -0.6451159E-03
 -0.2347676E-02  0.0000000E+00 -0.5050505E-02 -0.7461031E-09  0.0000000E+00 -0.6451175E-03
 -0.1716362E-02  0.0000000E+00 -0.5050505E-02 -0.7972388E-09  0.0000000E+00 -0.6451191E-03
 -0.1025842E-02  0.0000000E+00 -0.5050505E-02 -0.8520882E-09  0.0000000E+00 -0.6451209E-03
  0.2367855E-03  0.0000000E+00 -0.5050505E-02 -0.9109709E-09  0.0000000E+00 -0.6451228E-03
  0.1499413E-02  0.0000000E+00 -0.5050505E-02 -0.9742414E-09  0.0000000E+00 -0.6451248E-03
  0.2762042E-02  0.0000000E+00 -0.5050505E-02 -0.1042294E-08  0.0000000E+00 -0.6451270E-03
 -0.5050505E-02  0.0000000E+00 -0.5050505E-02 -0.1115568E-08  0.0000000E+00 -0.6451293E-03
 -0.5050505E-02  0.0000000E+00 -0.5050505E-02 -0.1194555E-08  0.0000000E+00 -0.6451318E-03
 -0.5050505E-02  0.0000000E+00 -0.5050505E-02 -0.1279805E-08  0.0000000E+00 -0.6451345E-03
 -0.5050505E-02  0.0000000E+00 -0.5050505E-02 -0.1371939E-08  0.0000000E+00 -0.6451373E-03
 -0.5050505E-02  0.0000000E+00 -0.5050505E-02 -0.1471655E-08  0.0000000E+00 -0.6451404E-03
 -0.5050505E-02  0.0000000E+00 -0.5050505E-02 -0.1579745E-08  0.0000000E+00 -0.6451436E-03
 -0.5050505E-02  0.0000000E+00 -0.5050505E-02 -0.1697106E-08  0.0000000E+00 -0.6451472E-03
 -0.5050504E-02  0.0000000E+00 -0.5050505E-02 -0.1824763E-08  0.0000000E+00 -0.6451510E-03
 -0.5050501E-02  0.0000000E+00 -0.5050505E-02 -0.1963885E-08  0.0000000E+00 -0.6451550E-03
 -0.5050495E-02  0.0000000E+00 -0.5050505E-02 -0.2115814E-08  0.0000000E+00 -0.6451594E-03
 -0.5050482E-02  0.0000000E+00 -0.5050505E-02 -0.2282096E-08  0.0000000E+00 -0.6451641E-03
 -0.5050449E-02  0.0000000E+00 -0.5050505E-02 -0.2464518E-08  0.0000000E+00 -0.6451693E-03
 -0.5050376E-02  0.0000000E+00 -0.5050505E-02 -0.2665156E-08  0.0000000E+00 -0.6451748E-03
 -0.5050299E-02  0.0000000E+00 -0.5050505E-02 -0.2886428E-08  0.0000000E+00 -0.6451807E-03
 -0.5050178E-02  0.0000000E+00 -0.5050505E-02 -0.3131165E-08  0.0000000E+00 -0.6451872E-03
 -0.5050018E-02  0.0000000E+00 -0.5050505E-02 -0.3402700E-08  0.0000000E+00 -0.6451942E-03
 -0.5049710E-02  0.0000000E+00 -0.5050505E-02 -0.3704970E-08  0.0000000E+00 -0.6452019E-03
 -0.5049253E-02  0.0000000E+00 -0.5050505E-02 -0.4042650E-08  0.0000000E+00 -0.6452102E-03
 -0.5048636E-02  0.0000000E+00 -0.5050505E-02 -0.4421329E-08  0.0000000E+00 -0.6452193E-03
 -0.5047442E-02  0.0000000E+00 -0.5050505E-02 -0.4847714E-08  0.0000000E+00 -0.6452293E-03
 -0.5045727E-02  0.0000000E+00 -0.5050505E-02 -0.5329911E-08  0.0000000E+00 -0.6452402E-03
 -0.5043261E-02  0.0000000E+00 -0.5050505E-02 -0.5877778E-08  0.0000000E+00 -0.6452523E-03
 -0.5038714E-02  0.0000000E+00 -0.5050505E-02 -0.6503379E-08  0.0000000E+00 -0.6452656E-03
 -0.5032318E-02  0.0000000E+00 -0.5050505E-02 -0.7221593E-08  0.0000000E+00 -0.6452804E-03
 -0.5022454E-02  0.0000000E+00 -0.5050505E-02 -0.8050904E-08  0.0000000E+00 -0.6452968E-03
 -0.5012589E-02  0.0000000E+00 -0.5050505E-02 -0.9014477E-08  0.0000000E+00 -0.6453151E-03
 -0.5002725E-02  0.0000000E+00 -0.5050505E-02 -0.1014159E-07  0.0000000E+00 -0.6453357E-03
 -0.4992860E-02  0.0000000E+00 -0.5050505E-02 -0.1146963E-07  0.0000000E+00 -0.6453590E-03
 -0.4976523E-02  0.0000000E+00 -0.5050505E-02 -0.1304681E-07  0.0000000E+00 -0.6453853E-03
 -0.4956794E-02  0.0000000E+00 -0.5050505E-02 -0.1493604E-07  0.0000000E+00 -0.6454154E-03
 -0.4937066E-02  0.0000000E+00 -0.5050505E-02 -0.1722045E-07  0.0000000E+00 -0.6454500E-03
 -0.4906239E-02  0.0000000E+00 -0.5050505E-02 -0.2001141E-07  0.0000000E+00 -0.6454901E-03
 -0.4866782E-02  0.0000000E+00 -0.5050505E-02 -0.2346035E-07  0.0000000E+00 -0.6455368E-03
 -0.4827325E-02  0.0000000E+00 -0.5050505E-02 -0.2777673E-07  0.0000000E+00 -0.6455919E-03
 -0.4769372E-02  0.0000000E+00 -0.5050505E-02 -0.3325573E-07  0.0000000E+00 -0.6456576E-03
 -0.4690458E-02  0.0000000E+00 -0.5050505E-02 -0.4032219E-07  0.0000000E+00 -0.6457367E-03
 -0.4611543E-02  0.0000000E+00 -0.5050505E-02 -0.4960226E-07  0.0000000E+00 -0.6458334E-03
 -0.4503035E-02  0.0000000E+00 -0.5050505E-02 -0.6204415E-07  0.0000000E+00 -0.6459535E-03
 -0.4345206E-02  0.0000000E+00 -0.5050505E-02 -0.7912906E-07  0.0000000E+00 -0.6461053E-03
 -0.4187378E-02  0.0000000E+00 -0.5050505E-02 -0.1032558E-06  0.0000000E+00 -0.6463015E-03
 -0.3985156E-02  0.0000000E+00 -0.5050505E-02 -0.1384767E-06  0.0000000E+00 -0.6465615E-03
 -0.3669499E-02  0.0000000E+00 -0.5050505E-02 -0.1919877E-06  0.0000000E+00 -0.6469169E-03
 -0.3353842E-02  0.0000000E+00 -0.5050505E-02 -0.2773507E-06  0.0000000E+00 -0.6474217E-03
 -0.2978990E-02  0.0000000E+00 -0.5050505E-02 -0.4220136E-06  0.0000000E+00 -0.6481740E-03
 -0.2347676E-02  0.0000000E+00 -0.5050505E-02 -0.6864372E-06  0.0000000E+00 -0.6493665E-03
 -0.1716362E-02  0.0000000E+00 -0.5050505E-02 -0.1217574E-05  0.0000000E+00 -0.6514150E-03
 -0.1025842E-02  0.0000000E+00 -0.5050505E-02 -0.2413884E-05  0.0000000E+00 -0.6553231E-03
  0.2367855E-03  0.0000000E+00 -0.5050505E-02 -0.5486273E-05  0.0000000E+00 -0.6638287E-03
  0.1499413E-02  0.0000000E+00 -0.5050505E-02 -0.1454224E-04  0.0000000E+00 -0.6854140E-03
  0.5287294E-02  0.0000000E+00 -0.5050505E-02 -0.2404181E-03  0.0000000E+00 -0.5458621E-03
 -0.5050505E-02  0.0000000E+00 -0.5050505E-02 -0.7978994E-11  0.0000000E+00 -0.6440973E-03
 -0.5050505E-02  0.0000000E+00 -0.5050505E-02 -0.2656254E-10  0.0000000E+00 -0.6440973E-03
 -0.5050505E-02  0.0000000E+00 -0.5050505E-02 -0.4534015E-10  0.0000000E+00 -0.6440973E-03
 -0.5050505E-02  0.0000000E+00 -0.5050505E-02 -0.6320111E-10  0.0000000E+00 -0.6440974E-03
 -0.5050505E-02  0.0000000E+00 -0.5050505E-02 -0.8273618E-10  0.0000000E+00 -0.6440974E-03
 -0.5050505E-02  0.0000000E+00 -0.5050505E-02 -0.1033134E-09  0.0000000E+00 -0.6440975E-03
 -0.5050504E-02  0.0000000E+00 -0.5050505E-02 -0.1240093E-09  0.0000000E+00 -0.6440976E-03
 -0.5050501E-02  0.0000000E+00 -0.5050505E-02 -0.1445611E-09  0.0000000E+00 -0.6440977E-03
 -0.5050495E-02  0.0000000E+00 -0.5050505E-02 -0.1651149E-09  0.0000000E+00 -0.6440978E-03
 -0.5050482E-02  0.0000000E+00 -0.5050505E-02 -0.1859140E-09  0.0000000E+00 -0.6440979E-03
 -0.5050449E-02  0.0000000E+00 -0.5050505E-02 -0.2071964E-09  0.0000000E+00 -0.6440981E-03
 -0.5050376E-02  0.0000000E+00 -0.5050505E-02 -0.2291464E-09  0.0000000E+00 -0.6440982E-03
 -0.5050299E-02  0.0000000E+00 -0.5050505E-02 -0.2519205E-09  0.0000000E+00 -0.6440984E-03
 -0.5050178E-02  0.0000000E+00 -0.5050505E-02 -0.2756475E-09  0.0000000E+00 -0.6440986E-03
 -0.5050018E-02  0.0000000E+00 -0.5050505E-02 -0.3004475E-09  0.0000000E+00 -0.6440988E-03
 -0.5049710E-02  0.0000000E+00 -0.5050505E-02 -0.3264376E-09  0.0000000E+00 -0.6440990E-03
 -0.5049253E-02  0.0000000E+00 -0.5050505E-02 -0.3537331E-09  0.0000000E+00 -0.6440992E-03
 -0.5048636E-02  0.0000000E+00 -0.5050505E-02 -0.3824540E-09  0.0000000E+00 -0.6440995E-03
 -0.5047442E-02  0.0000000E+00 -0.5050505E-02 -0.4127231E-09  0.0000000E+00 -0.6440998E-03
 -0.5045727E-02  0.0000000E+00 -0.5050505E-02 -0.4446689E-09  0.0000000E+00 -0.6441001E-03
 -0.5043261E-02  0.0000000E+00 -0.5050505E-02 -0.4784258E-09  0.0000000E+00 -0.6441004E-03
 -0.5038714E-02  0.0000000E+00 -0.5050505E-02 -0.5141350E-09  0.0000000E+00 -0.6441008E-03
 -0.5032318E-02  0.0000000E+00 -0.5050505E-02 -0.5519453E-09  0.0000000E+00 -0.6441012E-03
 -0.5022454E-02  0.0000000E+00 -0.5050505E-02 -0.5920142E-09  0.0000000E+00 -0.6441016E-03
 -0.5012589E-02  0.0000000E+00 -0.5050505E-02 -0.6345083E-09  0.0000000E+00 -0.6441020E-03
 -0.5002725E-02  0.0000000E+00 -0.5050505E-02 -0.6796047E-09  0.0000000E+00 -0.6441025E-03
 -0.4992860E-02  0.0000000E+00 -0.5050505E-02 -0.7274916E-09  0.0000000E+00 -0.6441030E-03
 -0.4976523E-02  0.0000000E+00 -0.5050505E-02 -0.7783697E-09  0.0000000E+00 -0.6441035E-03
 -0.4956794E-02  0.0000000E+00 -0.5050505E-02 -0.8324535E-09  0.0000000E+00 -0.6441041E-03
 -0.4937066E-02  0.0000000E+00 -0.5050505E-02 -0.8899724E-09  0.0000000E+00 -0.6441047E-03
 -0.4906239E-02  0.0000000E+00 -0.5050505E-02 -0.9511721E-09  0.0000000E+00 -0.6441054E-03
 -0.4866782E-02  0.0000000E+00 -0.5050505E-02 -0.1016317E-08  0.0000000E+00 -0.6441061E-03
 -0.4827325E-02  0.0000000E+00 -0.5050505E-02 -0.1085689E-08  0.0000000E+00 -0.6441068E-03
 -0.4769372E-02  0.0000000E+00 -0.5050505E-02 -0.1159596E-08  0.0000000E+00 -0.6441076E-03
 -0.4690458E-02  0.0000000E+00 -0.5050505E-02 -0.1238367E-08  0.0000000E+00 -0.6441085E-03
 -0.4611543E-02  0.0000000E+00 -0.5050505E-02 -0.1322358E-08  0.0000000E+00 -0.6441094E-03
 -0.4503035E-02  0.0000000E+00 -0.5050505E-02 -0.1411956E-08  0.0000000E+00 -0.6441104E-03
 -0.4345206E-02  0.0000000E+00 -0.5050505E-02 -0.1507578E-08  0.0000000E+00 -0.6441114E-03
 -0.4187378E-02  0.0000000E+00 -0.5050505E-02 -0.1609680E-08  0.0000000E+00 -0.6441125E-03
 -0.3985156E-02  0.0000000E+00 -0.5050505E-02 -0.1718757E-08  0.0000000E+00 -0.6441137E-03
 -0.3669499E-02  0.0000000E+00 -0.5050505E-02 -0.1835350E-08  0.0000000E+00 -0.6441150E-03
 -0.3353842E-02  0.0000000E+00 -0.5050505E-02 -0.1960049E-08  0.0000000E+00 -0.6441164E-03
 -0.2978990E-02  0.0000000E+00 -0.5050505E-02 -0.2093503E-08  0.0000000E+00 -0.6441178E-03
 -0.2347676E-02  0.0000000E+00 -0.5050505E-02 -0.2236421E-08  0.0000000E+00 -0.6441194E-03
 -0.1716362E-02  0.0000000E+00 -0.5050505E-02 -0.2389587E-08  0.0000000E+00 -0.6441210E-03
 -0.1025842E-02  0.0000000E+00 -0.5050505E-02 -0.2553864E-08  0.0000000E+00 -0.6441228E-03
  0.2367855E-03  0.0000000E+00 -0.5050505E-02 -0.2730207E-08  0.0000000E+00 -0.6441247E-03
  0.1499413E-02  0.0000000E+00 -0.5050505E-02 -0.2919675E-08  0.0000000E+00 -0.6441267E-03
  0.2762042E-02  0.0000000E+00 -0.5050505E-02 -0.3123445E-08  0.0000000E+00 -0.6441288E-03
 -0.5050505E-02  0.0000000E+00 -0.5050505E-02 -0.3342828E-08  0.0000000E+00 -0.6441311E-03
 -0.5050505E-02  0.0000000E+00 -0.5050505E-02 -0.3579293E-08  0.0000000E+00 -0.6441336E-03
 -0.5050505E-02  0.0000000E+00 -0.5050505E-02 -0.3834482E-08  0.0000000E+00 -0.6441363E-03
 -0.5050505E-02  0.0000000E+00 -0.5050505E-02 -0.4110245E-08  0.0000000E+00 -0.6441391E-03
 -0.5050505E-02  0.0000000E+00 -0.5050505E-02 -0.4408668E-08  0.0000000E+00 -0.6441421E-03
 -0.5050505E-02  0.0000000E+00 -0.5050505E-02 -0.4732108E-08  0.0000000E+00 -0.6441454E-03
 -0.5050505E-02  0.0000000E+00 -0.5050505E-02 -0.5083245E-08  0.0000000E+00 -0.6441489E-03
 -0.5050504E-02  0.0000000E+00 -0.5050505E-02 -0.5465128E-08  0.0000000E+00 -0.6441527E-03
 -0.5050501E-02  0.0000000E+00 -0.5050505E-02 -0.5881243E-08  0.0000000E+00 -0.6441567E-03
 -0.5050495E-02  0.0000000E+00 -0.5050505E-02 -0.6335587E-08  0.0000000E+00 -0.6441611E-03
 -0.5050482E-02  0.0000000E+00 -0.5050505E-02 -0.6832765E-08  0.0000000E+00 -0.6441658E-03
 -0.5050449E-02  0.0000000E+00 -0.5050505E-02 -0.7378093E-08  0.0000000E+00 -0.6441708E-03
 -0.5050376E-02  0.0000000E+00 -0.5050505E-02 -0.7977746E-08  0.0000000E+00 -0.6441763E-03
 -0.5050299E-02  0.0000000E+00 -0.5050505E-02 -0.8638915E-08  0.0000000E+00 -0.6441822E-03
 -0.5050178E-02  0.0000000E+00 -0.5050505E-02 -0.9370017E-08  0.0000000E+00 -0.6441886E-03
 -0.5050018E-02  0.0000000E+00 -0.5050505E-02 -0.1018095E-07  0.0000000E+00 -0.6441956E-03
 -0.5049710E-02  0.0000000E+00 -0.5050505E-02 -0.1108339E-07  0.0000000E+00 -0.6442031E-03
 -0.5049253E-02  0.0000000E+00 -0.5050505E-02 -0.1209123E-07  0.0000000E+00 -0.6442114E-03
 -0.5048636E-02  0.0000000E+00 -0.5050505E-02 -0.1322101E-07  0.0000000E+00 -0.6442204E-03
 -0.5047442E-02  0.0000000E+00 -0.5050505E-02 -0.1449263E-07  0.0000000E+00 -0.6442302E-03
 -0.5045727E-02  0.0000000E+00 -0.5050505E-02 -0.1593006E-07  0.0000000E+00 -0.6442410E-03
 -0.5043261E-02  0.0000000E+00 -0.5050505E-02 -0.1756245E-07  0.0000000E+00 -0.6442529E-03
 -0.5038714E-02  0.0000000E+00 -0.5050505E-02 -0.1942544E-07  0.0000000E+00 -0.6442661E-03
 -0.5032318E-02  0.0000000E+00 -0.5050505E-02 -0.2156293E-07  0.0000000E+00 -0.6442806E-03
 -0.5022454E-02  0.0000000E+00 -0.5050505E-02 -0.2402939E-07  0.0000000E+00 -0.6442967E-03
 -0.5012589E-02  0.0000000E+00 -0.5050505E-02 -0.2689297E-07  0.0000000E+00 -0.6443148E-03
 -0.5002725E-02  0.0000000E+00 -0.5050505E-02 -0.3023968E-07  0.0000000E+00 -0.6443350E-03
 -0.4992860E-02  0.0000000E+00 -0.5050505E-02 -0.3417912E-07  0.0000000E+00 -0.6443577E-03
 -0.4976523E-02  0.0000000E+00 -0.5050505E-02 -0.3885237E-07  0.0000000E+00 -0.6443835E-03
 -0.4956794E-02  0.0000000E+00 -0.5050505E-02 -0.4444305E-07  0.0000000E+00 -0.6444128E-03
 -0.4937066E-02  0.0000000E+00 -0.5050505E-02 -0.5119311E-07  0.0000000E+00 -0.6444465E-03
 -0.4906239E-02  0.0000000E+00 -0.5050505E-02 -0.5942561E-07  0.0000000E+00 -0.6444853E-03
 -0.4866782E-02  0.0000000E+00 -0.5050505E-02 -0.6957823E-07  0.0000000E+00 -0.6445304E-03
 -0.4827325E-02  0.0000000E+00 -0.5050505E-02 -0.8225360E-07  0.0000000E+00 -0.6445834E-03
 -0.4769372E-02  0.0000000E+00 -0.5050505E-02 -0.9829642E-07  0.0000000E+00 -0.6446462E-03
 -0.4690458E-02  0.0000000E+00 -0.5050505E-02 -0.1189146E-06  0.0000000E+00 -0.6447214E-03
 -0.4611543E-02  0.0000000E+00 -0.5050505E-02 -0.1458743E-06  0.0000000E+00 -0.6448126E-03
 -0.4503035E-02  0.0000000E+00 -0.5050505E-02 -0.1818237E-06  0.0000000E+00 -0.6449247E-03
 -0.4345206E-02  0.0000000E+00 -0.5050505E-02 -0.2308489E-06  0.0000000E+00 -0.6450646E-03
 -0.4187378E-02  0.0000000E+00 -0.5050505E-02 -0.2994611E-06  0.0000000E+00 -0.6452423E-03
 -0.3985156E-02  0.0000000E+00 -0.5050505E-02 -0.3984299E-06  0.0000000E+00 -0.6454726E-03
 -0.3669499E-02  0.0000000E+00 -0.5050505E-02 -0.5463425E-06  0.0000000E+00 -0.6457774E-03
 -0.3353842E-02  0.0000000E+00 -0.5050505E-02 -0.7768822E-06  0.0000000E+00 -0.6461903E-03
 -0.2978990E-02  0.0000000E+00 -0.5050505E-02 -0.1154578E-05  0.0000000E+00 -0.6467625E-03
 -0.2347676E-02  0.0000000E+00 -0.5050505E-02 -0.1811002E-05  0.0000000E+00 -0.6475668E-03
 -0.1716362E-02  0.0000000E+00 -0.5050505E-02 -0.3033320E-05  0.0000000E+00 -0.6486805E-03
 -0.1025842E-02  0.0000000E+00 -0.5050505E-02 -0.5494529E-05  0.0000000E+00 -0.6500418E-03
  0.2367855E-03  0.0000000E+00 -0.5050505E-02 -0.1088634E-04  0.0000000E+00 -0.6506758E-03
  0.1499413E-02  0.0000000E+00 -0.5050505E-02 -0.2373872E-04  0.0000000E+00 -0.6448993E-03
  0.5287294E-02  0.0000000E+00 -0.5050505E-02 -0.5680131E-04  0.0000000E+00 -0.6042005E-03
 -0.5050505E-02  0.0000000E+00 -0.5050505E-02 -0.1368737E-10  0.0000000E+00 -0.6421785E-03
 -0.5050505E-02  0.0000000E+00 -0.5050505E-02 -0.4468853E-10  0.0000000E+00 -0.6421785E-03
 -0.5050505E-02  0.0000000E+00 -0.5050505E-02 -0.7573511E-10  0.0000000E+00 -0.6421785E-03
 -0.5050505E-02  0.0000000E+00 -0.5050505E-02 -0.1053681E-09  0.0000000E+00 -0.6421786E-03
 -0.5050505E-02  0.0000000E+00 -0.5050505E-02 -0.1377626E-09  0.0000000E+00 -0.6421786E-03
 -0.5050505E-02  0.0000000E+00 -0.5050505E-02 -0.1719516E-09  0.0000000E+00 -0.6421787E-03
 -0.5050504E-02  0.0000000E+00 -0.5050505E-02 -0.2064420E-09  0.0000000E+00 -0.6421788E-03
 -0.5050501E-02  0.0000000E+00 -0.5050505E-02 -0.2407399E-09  0.0000000E+00 -0.6421788E-03
 -0.5050495E-02  0.0000000E+00 -0.5050505E-02 -0.2750399E-09  0.0000000E+00 -0.6421790E-03
 -0.5050482E-02  0.0000000E+00 -0.5050505E-02 -0.3097284E-09  0.0000000E+00 -0.6421791E-03
 -0.5050449E-02  0.0000000E+00 -0.5050505E-02 -0.3451999E-09  0.0000000E+00 -0.6421792E-03
 -0.5050376E-02  0.0000000E+00 -0.5050505E-02 -0.3817677E-09  0.0000000E+00 -0.6421794E-03
 -0.5050299E-02  0.0000000E+00 -0.5050505E-02 -0.4196965E-09  0.0000000E+00 -0.6421795E-03
 -0.5050178E-02  0.0000000E+00 -0.5050505E-02 -0.4592070E-09  0.0000000E+00 -0.6421797E-03
 -0.5050018E-02  0.0000000E+00 -0.5050505E-02 -0.5005004E-09  0.0000000E+00 -0.6421799E-03
 -0.5049710E-02  0.0000000E+00 -0.5050505E-02 -0.5437729E-09  0.0000000E+00 -0.6421802E-03
 -0.5049253E-02  0.0000000E+00 -0.5050505E-02 -0.5892167E-09  0.0000000E+00 -0.6421804E-03
 -0.5048636E-02  0.0000000E+00 -0.5050505E-02 -0.6370312E-09  0.0000000E+00 -0.6421807E-03
 -0.5047442E-02  0.0000000E+00 -0.5050505E-02 -0.6874206E-09  0.0000000E+00 -0.6421810E-03
 -0.5045727E-02  0.0000000E+00 -0.5050505E-02 -0.7405981E-09  0.0000000E+00 -0.6421813E-03
 -0.5043261E-02  0.0000000E+00 -0.5050505E-02 -0.7967871E-09  0.0000000E+00 -0.6421816E-03
 -0.5038714E-02  0.0000000E+00 -0.5050505E-02 -0.8562219E-09  0.0000000E+00 -0.6421819E-03
 -0.5032318E-02  0.0000000E+00 -0.5050505E-02 -0.9191498E-09  0.0000000E+00 -0.6421823E-03
 -0.5022454E-02  0.0000000E+00 -0.5050505E-02 -0.9858319E-09  0.0000000E+00 -0.6421827E-03
 -0.5012589E-02  0.0000000E+00 -0.5050505E-02 -0.1056545E-08  0.0000000E+00 -0.6421832E-03
 -0.5002725E-02  0.0000000E+00 -0.5050505E-02 -0.1131583E-08  0.0000000E+00 -0.6421836E-03
 -0.4992860E-02  0.0000000E+00 -0.5050505E-02 -0.1211257E-08  0.0000000E+00 -0.6421841E-03
 -0.4976523E-02  0.0000000E+00 -0.5050505E-02 -0.1295903E-08  0.0000000E+00 -0.6421847E-03
 -0.4956794E-02  0.0000000E+00 -0.5050505E-02 -0.1385874E-08  0.0000000E+00 -0.6421852E-03
 -0.4937066E-02  0.0000000E+00 -0.5050505E-02 -0.1481551E-08  0.0000000E+00 -0.6421859E-03
 -0.4906239E-02  0.0000000E+00 -0.5050505E-02 -0.1583342E-08  0.0000000E+00 -0.6421865E-03
 -0.4866782E-02  0.0000000E+00 -0.5050505E-02 -0.1691686E-08  0.0000000E+00 -0.6421872E-03
 -0.4827325E-02  0.0000000E+00 -0.5050505E-02 -0.1807051E-08  0.0000000E+00 -0.6421880E-03
 -0.4769372E-02  0.0000000E+00 -0.5050505E-02 -0.1929944E-08  0.0000000E+00 -0.6421888E-03
 -0.4690458E-02  0.0000000E+00 -0.5050505E-02 -0.2060913E-08  0.0000000E+00 -0.6421896E-03
 -0.4611543E-02  0.0000000E+00 -0.5050505E-02 -0.2200548E-08  0.0000000E+00 -0.6421905E-03
 -0.4503035E-02  0.0000000E+00 -0.5050505E-02 -0.2349487E-08  0.0000000E+00 -0.6421915E-03
 -0.4345206E-02  0.0000000E+00 -0.5050505E-02 -0.2508425E-08  0.0000000E+00 -0.6421925E-03
 -0.4187378E-02  0.0000000E+00 -0.5050505E-02 -0.2678114E-08  0.0000000E+00 -0.6421936E-03
 -0.3985156E-02  0.0000000E+00 -0.5050505E-02 -0.2859374E-08  0.0000000E+00 -0.6421948E-03
 -0.3669499E-02  0.0000000E+00 -0.5050505E-02 -0.3053101E-08  0.0000000E+00 -0.6421961E-03
 -0.3353842E-02  0.0000000E+00 -0.5050505E-02 -0.3260271E-08  0.0000000E+00 -0.6421974E-03
 -0.2978990E-02  0.0000000E+00 -0.5050505E-02 -0.3481956E-08  0.0000000E+00 -0.6421988E-03
 -0.2347676E-02  0.0000000E+00 -0.5050505E-02 -0.3719331E-08  0.0000000E+00 -0.6422004E-03
 -0.1716362E-02  0.0000000E+00 -0.5050505E-02 -0.3973691E-08  0.0000000E+00 -0.6422020E-03
 -0.1025842E-02  0.0000000E+00 -0.5050505E-02 -0.4246461E-08  0.0000000E+00 -0.6422038E-03
  0.2367855E-03  0.0000000E+00 -0.5050505E-02 -0.4539219E-08  0.0000000E+00 -0.6422056E-03
  0.1499413E-02  0.0000000E+00 -0.5050505E-02 -0.4853713E-08  0.0000000E+00 -0.6422076E-03
  0.2762042E-02  0.0000000E+00 -0.5050505E-02 -0.5191888E-08  0.0000000E+00 -0.6422098E-03
 -0.5050505E-02  0.0000000E+00 -0.5050505E-02 -0.5555907E-08  0.0000000E+00 -0.6422121E-03
 -0.5050505E-02  0.0000000E+00 -0.5050505E-02 -0.5948190E-08  0.0000000E+00 -0.6422145E-03
 -0.5050505E-02  0.0000000E+00 -0.5050505E-02 -0.6371449E-08  0.0000000E+00 -0.6422171E-03
 -0.5050505E-02  0.0000000E+00 -0.5050505E-02 -0.6828728E-08  0.0000000E+00 -0.6422199E-03
 -0.5050505E-02  0.0000000E+00 -0.5050505E-02 -0.7323464E-08  0.0000000E+00 -0.6422229E-03
 -0.5050505E-02  0.0000000E+00 -0.5050505E-02 -0.7859540E-08  0.0000000E+00 -0.6422261E-03
 -0.5050505E-02  0.0000000E+00 -0.5050505E-02 -0.8441361E-08  0.0000000E+00 -0.6422296E-03
 -0.5050504E-02  0.0000000E+00 -0.5050505E-02 -0.9073942E-08  0.0000000E+00 -0.6422333E-03
 -0.5050501E-02  0.0000000E+00 -0.5050505E-02 -0.9763011E-08  0.0000000E+00 -0.6422373E-03
 -0.5050495E-02  0.0000000E+00 -0.5050505E-02 -0.1051513E-07  0.0000000E+00 -0.6422416E-03
 -0.5050482E-02  0.0000000E+00 -0.5050505E-02 -0.1133786E-07  0.0000000E+00 -0.6422462E-03
 -0.5050449E-02  0.0000000E+00 -0.5050505E-02 -0.1223991E-07  0.0000000E+00 -0.6422512E-03
 -0.5050376E-02  0.0000000E+00 -0.5050505E-02 -0.1323140E-07  0.0000000E+00 -0.6422566E-03
 -0.5050299E-02  0.0000000E+00 -0.5050505E-02 -0.1432410E-07  0.0000000E+00 -0.6422624E-03
 -0.5050178E-02  0.0000000E+00 -0.5050505E-02 -0.1553176E-07  0.0000000E+00 -0.6422687E-03
 -0.5050018E-02  0.0000000E+00 -0.5050505E-02 -0.1687055E-07  0.0000000E+00 -0.6422755E-03
 -0.5049710E-02  0.0000000E+00 -0.5050505E-02 -0.1835953E-07  0.0000000E+00 -0.6422829E-03
 -0.5049253E-02  0.0000000E+00 -0.5050505E-02 -0.2002130E-07  0.0000000E+00 -0.6422910E-03
 -0.5048636E-02  0.0000000E+00 -0.5050505E-02 -0.2188281E-07  0.0000000E+00 -0.6422998E-03
 -0.5047442E-02  0.0000000E+00 -0.5050505E-02 -0.2397634E-07  0.0000000E+00 -0.6423094E-03
 -0.5045727E-02  0.0000000E+00 -0.5050505E-02 -0.2634078E-07  0.0000000E+00 -0.6423200E-03
 -0.5043261E-02  0.0000000E+00 -0.5050505E-02 -0.2902331E-07  0.0000000E+00 -0.6423315E-03
 -0.5038714E-02  0.0000000E+00 -0.5050505E-02 -0.3208148E-07  0.0000000E+00 -0.6423443E-03
 -0.5032318E-02  0.0000000E+00 -0.5050505E-02 -0.3558602E-07  0.0000000E+00 -0.6423584E-03
 -0.5022454E-02  0.0000000E+00 -0.5050505E-02 -0.3962446E-07  0.0000000E+00 -0.6423740E-03
 -0.5012589E-02  0.0000000E+00 -0.5050505E-02 -0.4430602E-07  0.0000000E+00 -0.6423914E-03
 -0.5002725E-02  0.0000000E+00 -0.5050505E-02 -0.4976806E-07  0.0000000E+00 -0.6424108E-03
 -0.4992860E-02  0.0000000E+00 -0.5050505E-02 -0.5618498E-07  0.0000000E+00 -0.6424326E-03
 -0.4976523E-02  0.0000000E+00 -0.5050505E-02 -0.6378031E-07  0.0000000E+00 -0.6424572E-03
 -0.4956794E-02  0.0000000E+00 -0.5050505E-02 -0.7284362E-07  0.0000000E+00 -0.6424851E-03
 -0.4937066E-02  0.0000000E+00 -0.5050505E-02 -0.8375429E-07  0.0000000E+00 -0.6425169E-03
 -0.4906239E-02  0.0000000E+00 -0.5050505E-02 -0.9701564E-07  0.0000000E+00 -0.6425533E-03
 -0.4866782E-02  0.0000000E+00 -0.5050505E-02 -0.1133044E-06  0.0000000E+00 -0.6425954E-03
 -0.4827325E-02  0.0000000E+00 -0.5050505E-02 -0.1335442E-06  0.0000000E+00 -0.6426444E-03
 -0.4769372E-02  0.0000000E+00 -0.5050505E-02 -0.1590157E-06  0.0000000E+00 -0.6427018E-03
 -0.4690458E-02  0.0000000E+00 -0.5050505E-02 -0.1915271E-06  0.0000000E+00 -0.6427697E-03
 -0.4611543E-02  0.0000000E+00 -0.5050505E-02 -0.2336816E-06  0.0000000E+00 -0.6428507E-03
 -0.4503035E-02  0.0000000E+00 -0.5050505E-02 -0.2893077E-06  0.0000000E+00 -0.6429482E-03
 -0.4345206E-02  0.0000000E+00 -0.5050505E-02 -0.3641713E-06  0.0000000E+00 -0.6430667E-03
 -0.4187378E-02  0.0000000E+00 -0.5050505E-02 -0.4671822E-06  0.0000000E+00 -0.6432121E-03
 -0.3985156E-02  0.0000000E+00 -0.5050505E-02 -0.6124987E-06  0.0000000E+00 -0.6433917E-03
 -0.3669499E-02  0.0000000E+00 -0.5050505E-02 -0.8232936E-06  0.0000000E+00 -0.6436142E-03
 -0.3353842E-02  0.0000000E+00 -0.5050505E-02 -0.1138650E-05  0.0000000E+00 -0.6438873E-03
 -0.2978990E-02  0.0000000E+00 -0.5050505E-02 -0.1626351E-05  0.0000000E+00 -0.6442108E-03
 -0.2347676E-02  0.0000000E+00 -0.5050505E-02 -0.2406366E-05  0.0000000E+00 -0.6445543E-03
 -0.1716362E-02  0.0000000E+00 -0.5050505E-02 -0.3691078E-05  0.0000000E+00 -0.6447910E-03
 -0.1025842E-02  0.0000000E+00 -0.5050505E-02 -0.5837408E-05  0.0000000E+00 -0.6445169E-03
  0.2367855E-03  0.0000000E+00 -0.5050505E-02 -0.9321615E-05  0.0000000E+00 -0.6426070E-03
  0.1499413E-02  0.0000000E+00 -0.5050505E-02 -0.1409314E-04  0.0000000E+00 -0.6364689E-03
  0.5287294E-02  0.0000000E+00 -0.5050505E-02 -0.1556414E-04  0.0000000E+00 -0.6232466E-03
 -0.5050505E-02  0.0000000E+00 -0.5050505E-02 -0.2003482E-10  0.0000000E+00 -0.6394111E-03
 -0.5050505E-02  0.0000000E+00 -0.5050505E-02 -0.6313515E-10  0.0000000E+00 -0.6394111E-03
 -0.5050505E-02  0.0000000E+00 -0.5050505E-02 -0.1060238E-09  0.0000000E+00 -0.6394111E-03
 -0.5050505E-02  0.0000000E+00 -0.5050505E-02 -0.1471751E-09  0.0000000E+00 -0.6394112E-03
 -0.5050505E-02  0.0000000E+00 -0.5050505E-02 -0.1923139E-09  0.0000000E+00 -0.6394112E-03
 -0.5050505E-02  0.0000000E+00 -0.5050505E-02 -0.2400984E-09  0.0000000E+00 -0.6394113E-03
 -0.5050504E-02  0.0000000E+00 -0.5050505E-02 -0.2884231E-09  0.0000000E+00 -0.6394114E-03
 -0.5050501E-02  0.0000000E+00 -0.5050505E-02 -0.3365122E-09  0.0000000E+00 -0.6394115E-03
 -0.5050495E-02  0.0000000E+00 -0.5050505E-02 -0.3845777E-09  0.0000000E+00 -0.6394116E-03
 -0.5050482E-02  0.0000000E+00 -0.5050505E-02 -0.4331431E-09  0.0000000E+00 -0.6394117E-03
 -0.5050449E-02  0.0000000E+00 -0.5050505E-02 -0.4827638E-09  0.0000000E+00 -0.6394118E-03
 -0.5050376E-02  0.0000000E+00 -0.5050505E-02 -0.5338907E-09  0.0000000E+00 -0.6394120E-03
 -0.5050299E-02  0.0000000E+00 -0.5050505E-02 -0.5869017E-09  0.0000000E+00 -0.6394122E-03
 -0.5050178E-02  0.0000000E+00 -0.5050505E-02 -0.6421131E-09  0.0000000E+00 -0.6394124E-03
 -0.5050018E-02  0.0000000E+00 -0.5050505E-02 -0.6998094E-09  0.0000000E+00 -0.6394126E-03
 -0.5049710E-02  0.0000000E+00 -0.5050505E-02 -0.7602659E-09  0.0000000E+00 -0.6394128E-03
 -0.5049253E-02  0.0000000E+00 -0.5050505E-02 -0.8237521E-09  0.0000000E+00 -0.6394130E-03
 -0.5048636E-02  0.0000000E+00 -0.5050505E-02 -0.8905452E-09  0.0000000E+00 -0.6394133E-03
 -0.5047442E-02  0.0000000E+00 -0.5050505E-02 -0.9609301E-09  0.0000000E+00 -0.6394136E-03
 -0.5045727E-02  0.0000000E+00 -0.5050505E-02 -0.1035203E-08  0.0000000E+00 -0.6394139E-03
 -0.5043261E-02  0.0000000E+00 -0.5050505E-02 -0.1113676E-08  0.0000000E+00 -0.6394142E-03
 -0.5038714E-02  0.0000000E+00 -0.5050505E-02 -0.1196674E-08  0.0000000E+00 -0.6394146E-03
 -0.5032318E-02  0.0000000E+00 -0.5050505E-02 -0.1284541E-08  0.0000000E+00 -0.6394149E-03
 -0.5022454E-02  0.0000000E+00 -0.5050505E-02 -0.1377641E-08  0.0000000E+00 -0.6394153E-03
 -0.5012589E-02  0.0000000E+00 -0.5050505E-02 -0.1476358E-08  0.0000000E+00 -0.6394158E-03
 -0.5002725E-02  0.0000000E+00 -0.5050505E-02 -0.1581101E-08  0.0000000E+00 -0.6394162E-03
 -0.4992860E-02  0.0000000E+00 -0.5050505E-02 -0.1692304E-08  0.0000000E+00 -0.6394167E-03
 -0.4976523E-02  0.0000000E+00 -0.5050505E-02 -0.1810431E-08  0.0000000E+00 -0.6394173E-03
 -0.4956794E-02  0.0000000E+00 -0.5050505E-02 -0.1935975E-08  0.0000000E+00 -0.6394178E-03
 -0.4937066E-02  0.0000000E+00 -0.5050505E-02 -0.2069466E-08  0.0000000E+00 -0.6394184E-03