title = "dataset feddes"
variables = "x", "y", "z", "vx", "vy", "vz"
zone t = "velocities, solution time =  1.300E+01 days        " i =   99, j =   99, k =    1,  f=point
 -0.5050505E-02  0.0000000E+00 -0.5050505E-02 -0.3478110E-11  0.0000000E+00 -0.5453377E-03
 -0.5050505E-02  0.0000000E+00 -0.5050505E-02 -0.1046047E-10  0.0000000E+00 -0.5453378E-03
 -0.5050505E-02  0.0000000E+00 -0.5050505E-02 -0.1747975E-10  0.0000000E+00 -0.5453378E-03
 -0.5050505E-02  0.0000000E+00 -0.5050505E-02 -0.2447038E-10  0.0000000E+00 -0.5453378E-03
 -0.5050505E-02  0.0000000E+00 -0.5050505E-02 -0.3145922E-10  0.0000000E+00 -0.5453379E-03
 -0.5050505E-02  0.0000000E+00 -0.5050505E-02 -0.3848454E-10  0.0000000E+00 -0.5453380E-03
 -0.5050504E-02  0.0000000E+00 -0.5050505E-02 -0.4558082E-10  0.0000000E+00 -0.5453381E-03
 -0.5050501E-02  0.0000000E+00 -0.5050505E-02 -0.5278112E-10  0.0000000E+00 -0.5453382E-03
 -0.5050495E-02  0.0000000E+00 -0.5050505E-02 -0.6011627E-10  0.0000000E+00 -0.5453383E-03
 -0.5050482E-02  0.0000000E+00 -0.5050505E-02 -0.6761684E-10  0.0000000E+00 -0.5453384E-03
 -0.5050449E-02  0.0000000E+00 -0.5050505E-02 -0.7531213E-10  0.0000000E+00 -0.5453386E-03
 -0.5050376E-02  0.0000000E+00 -0.5050505E-02 -0.8323094E-10  0.0000000E+00 -0.5453387E-03
 -0.5050299E-02  0.0000000E+00 -0.5050505E-02 -0.9140247E-10  0.0000000E+00 -0.5453389E-03
 -0.5050178E-02  0.0000000E+00 -0.5050505E-02 -0.9985524E-10  0.0000000E+00 -0.5453391E-03
 -0.5050018E-02  0.0000000E+00 -0.5050505E-02 -0.1086187E-09  0.0000000E+00 -0.5453393E-03
 -0.5049710E-02  0.0000000E+00 -0.5050505E-02 -0.1177227E-09  0.0000000E+00 -0.5453396E-03
 -0.5049253E-02  0.0000000E+00 -0.5050505E-02 -0.1271976E-09  0.0000000E+00 -0.5453398E-03
 -0.5048636E-02  0.0000000E+00 -0.5050505E-02 -0.1370748E-09  0.0000000E+00 -0.5453401E-03
 -0.5047442E-02  0.0000000E+00 -0.5050505E-02 -0.1473870E-09  0.0000000E+00 -0.5453404E-03
 -0.5045727E-02  0.0000000E+00 -0.5050505E-02 -0.1581677E-09  0.0000000E+00 -0.5453408E-03
 -0.5043261E-02  0.0000000E+00 -0.5050505E-02 -0.1694521E-09  0.0000000E+00 -0.5453411E-03
 -0.5038714E-02  0.0000000E+00 -0.5050505E-02 -0.1812770E-09  0.0000000E+00 -0.5453415E-03
 -0.5032318E-02  0.0000000E+00 -0.5050505E-02 -0.1936809E-09  0.0000000E+00 -0.5453419E-03
 -0.5022454E-02  0.0000000E+00 -0.5050505E-02 -0.2067043E-09  0.0000000E+00 -0.5453423E-03
 -0.5012589E-02  0.0000000E+00 -0.5050505E-02 -0.2203900E-09  0.0000000E+00 -0.5453428E-03
 -0.5002725E-02  0.0000000E+00 -0.5050505E-02 -0.2347833E-09  0.0000000E+00 -0.5453432E-03
 -0.4992860E-02  0.0000000E+00 -0.5050505E-02 -0.2499320E-09  0.0000000E+00 -0.5453438E-03
 -0.4976523E-02  0.0000000E+00 -0.5050505E-02 -0.2658873E-09  0.0000000E+00 -0.5453443E-03
 -0.4956794E-02  0.0000000E+00 -0.5050505E-02 -0.2827036E-09  0.0000000E+00 -0.5453449E-03
 -0.4937066E-02  0.0000000E+00 -0.5050505E-02 -0.3004389E-09  0.0000000E+00 -0.5453455E-03
 -0.4906239E-02  0.0000000E+00 -0.5050505E-02 -0.3191556E-09  0.0000000E+00 -0.5453462E-03
 -0.4866782E-02  0.0000000E+00 -0.5050505E-02 -0.3389205E-09  0.0000000E+00 -0.5453469E-03
 -0.4827325E-02  0.0000000E+00 -0.5050505E-02 -0.3598056E-09  0.0000000E+00 -0.5453476E-03
 -0.4769372E-02  0.0000000E+00 -0.5050505E-02 -0.3818886E-09  0.0000000E+00 -0.5453484E-03
 -0.4690458E-02  0.0000000E+00 -0.5050505E-02 -0.4052534E-09  0.0000000E+00 -0.5453492E-03
 -0.4611543E-02  0.0000000E+00 -0.5050505E-02 -0.4299910E-09  0.0000000E+00 -0.5453501E-03
 -0.4503035E-02  0.0000000E+00 -0.5050505E-02 -0.4562002E-09  0.0000000E+00 -0.5453511E-03
 -0.4345206E-02  0.0000000E+00 -0.5050505E-02 -0.4839886E-09  0.0000000E+00 -0.5453521E-03
 -0.4187378E-02  0.0000000E+00 -0.5050505E-02 -0.5134736E-09  0.0000000E+00 -0.5453531E-03
 -0.3985156E-02  0.0000000E+00 -0.5050505E-02 -0.5447835E-09  0.0000000E+00 -0.5453543E-03
 -0.3669499E-02  0.0000000E+00 -0.5050505E-02 -0.5780591E-09  0.0000000E+00 -0.5453555E-03
 -0.3353842E-02  0.0000000E+00 -0.5050505E-02 -0.6134548E-09  0.0000000E+00 -0.5453567E-03
 -0.2978990E-02  0.0000000E+00 -0.5050505E-02 -0.6511408E-09  0.0000000E+00 -0.5453581E-03
 -0.2347676E-02  0.0000000E+00 -0.5050505E-02 -0.6913051E-09  0.0000000E+00 -0.5453595E-03
 -0.1716362E-02  0.0000000E+00 -0.5050505E-02 -0.7341553E-09  0.0000000E+00 -0.5453610E-03
 -0.1025842E-02  0.0000000E+00 -0.5050505E-02 -0.7799220E-09  0.0000000E+00 -0.5453626E-03
  0.2367855E-03  0.0000000E+00 -0.5050505E-02 -0.8288612E-09  0.0000000E+00 -0.5453643E-03
  0.1499413E-02  0.0000000E+00 -0.5050505E-02 -0.8812585E-09  0.0000000E+00 -0.5453662E-03
  0.2762042E-02  0.0000000E+00 -0.5050505E-02 -0.9374328E-09  0.0000000E+00 -0.5453681E-03
 -0.5050505E-02  0.0000000E+00 -0.5050505E-02 -0.9977414E-09  0.0000000E+00 -0.5453702E-03
 -0.5050505E-02  0.0000000E+00 -0.5050505E-02 -0.1062586E-08  0.0000000E+00 -0.5453723E-03
 -0.5050505E-02  0.0000000E+00 -0.5050505E-02 -0.1132417E-08  0.0000000E+00 -0.5453747E-03
 -0.5050505E-02  0.0000000E+00 -0.5050505E-02 -0.1207746E-08  0.0000000E+00 -0.5453772E-03
 -0.5050505E-02  0.0000000E+00 -0.5050505E-02 -0.1289149E-08  0.0000000E+00 -0.5453798E-03
 -0.5050505E-02  0.0000000E+00 -0.5050505E-02 -0.1377284E-08  0.0000000E+00 -0.5453827E-03
 -0.5050505E-02  0.0000000E+00 -0.5050505E-02 -0.1472897E-08  0.0000000E+00 -0.5453857E-03
 -0.5050504E-02  0.0000000E+00 -0.5050505E-02 -0.1576843E-08  0.0000000E+00 -0.5453889E-03
 -0.5050501E-02  0.0000000E+00 -0.5050505E-02 -0.1690099E-08  0.0000000E+00 -0.5453924E-03
 -0.5050495E-02  0.0000000E+00 -0.5050505E-02 -0.1813792E-08  0.0000000E+00 -0.5453962E-03
 -0.5050482E-02  0.0000000E+00 -0.5050505E-02 -0.1949220E-08  0.0000000E+00 -0.5454002E-03
 -0.5050449E-02  0.0000000E+00 -0.5050505E-02 -0.2097890E-08  0.0000000E+00 -0.5454045E-03
 -0.5050376E-02  0.0000000E+00 -0.5050505E-02 -0.2261552E-08  0.0000000E+00 -0.5454091E-03
 -0.5050299E-02  0.0000000E+00 -0.5050505E-02 -0.2442247E-08  0.0000000E+00 -0.5454141E-03
 -0.5050178E-02  0.0000000E+00 -0.5050505E-02 -0.2642373E-08  0.0000000E+00 -0.5454195E-03
 -0.5050018E-02  0.0000000E+00 -0.5050505E-02 -0.2864749E-08  0.0000000E+00 -0.5454254E-03
 -0.5049710E-02  0.0000000E+00 -0.5050505E-02 -0.3112712E-08  0.0000000E+00 -0.5454317E-03
 -0.5049253E-02  0.0000000E+00 -0.5050505E-02 -0.3390231E-08  0.0000000E+00 -0.5454387E-03
 -0.5048636E-02  0.0000000E+00 -0.5050505E-02 -0.3702045E-08  0.0000000E+00 -0.5454462E-03
 -0.5047442E-02  0.0000000E+00 -0.5050505E-02 -0.4053852E-08  0.0000000E+00 -0.5454545E-03
 -0.5045727E-02  0.0000000E+00 -0.5050505E-02 -0.4452540E-08  0.0000000E+00 -0.5454635E-03
 -0.5043261E-02  0.0000000E+00 -0.5050505E-02 -0.4906485E-08  0.0000000E+00 -0.5454735E-03
 -0.5038714E-02  0.0000000E+00 -0.5050505E-02 -0.5425947E-08  0.0000000E+00 -0.5454845E-03
 -0.5032318E-02  0.0000000E+00 -0.5050505E-02 -0.6023578E-08  0.0000000E+00 -0.5454967E-03
 -0.5022454E-02  0.0000000E+00 -0.5050505E-02 -0.6715103E-08  0.0000000E+00 -0.5455102E-03
 -0.5012589E-02  0.0000000E+00 -0.5050505E-02 -0.7520233E-08  0.0000000E+00 -0.5455254E-03
 -0.5002725E-02  0.0000000E+00 -0.5050505E-02 -0.8463886E-08  0.0000000E+00 -0.5455424E-03
 -0.4992860E-02  0.0000000E+00 -0.5050505E-02 -0.9577884E-08  0.0000000E+00 -0.5455616E-03
 -0.4976523E-02  0.0000000E+00 -0.5050505E-02 -0.1090328E-07  0.0000000E+00 -0.5455834E-03
 -0.4956794E-02  0.0000000E+00 -0.5050505E-02 -0.1249365E-07  0.0000000E+00 -0.5456083E-03
 -0.4937066E-02  0.0000000E+00 -0.5050505E-02 -0.1441980E-07  0.0000000E+00 -0.5456369E-03
 -0.4906239E-02  0.0000000E+00 -0.5050505E-02 -0.1677662E-07  0.0000000E+00 -0.5456701E-03
 -0.4866782E-02  0.0000000E+00 -0.5050505E-02 -0.1969313E-07  0.0000000E+00 -0.5457089E-03
 -0.4827325E-02  0.0000000E+00 -0.5050505E-02 -0.2334789E-07  0.0000000E+00 -0.5457547E-03
 -0.4769372E-02  0.0000000E+00 -0.5050505E-02 -0.2799253E-07  0.0000000E+00 -0.5458094E-03
 -0.4690458E-02  0.0000000E+00 -0.5050505E-02 -0.3398932E-07  0.0000000E+00 -0.5458753E-03
 -0.4611543E-02  0.0000000E+00 -0.5050505E-02 -0.4187229E-07  0.0000000E+00 -0.5459561E-03
 -0.4503035E-02  0.0000000E+00 -0.5050505E-02 -0.5245027E-07  0.0000000E+00 -0.5460565E-03
 -0.4345206E-02  0.0000000E+00 -0.5050505E-02 -0.6698701E-07  0.0000000E+00 -0.5461836E-03
 -0.4187378E-02  0.0000000E+00 -0.5050505E-02 -0.8752938E-07  0.0000000E+00 -0.5463480E-03
 -0.3985156E-02  0.0000000E+00 -0.5050505E-02 -0.1175354E-06  0.0000000E+00 -0.5465663E-03
 -0.3669499E-02  0.0000000E+00 -0.5050505E-02 -0.1631458E-06  0.0000000E+00 -0.5468650E-03
 -0.3353842E-02  0.0000000E+00 -0.5050505E-02 -0.2359324E-06  0.0000000E+00 -0.5472898E-03
 -0.2978990E-02  0.0000000E+00 -0.5050505E-02 -0.3593077E-06  0.0000000E+00 -0.5479234E-03
 -0.2347676E-02  0.0000000E+00 -0.5050505E-02 -0.5848083E-06  0.0000000E+00 -0.5489285E-03
 -0.1716362E-02  0.0000000E+00 -0.5050505E-02 -0.1037541E-05  0.0000000E+00 -0.5506557E-03
 -0.1025842E-02  0.0000000E+00 -0.5050505E-02 -0.2056040E-05  0.0000000E+00 -0.5539499E-03
  0.2367855E-03  0.0000000E+00 -0.5050505E-02 -0.4665960E-05  0.0000000E+00 -0.5611106E-03
  0.1499413E-02  0.0000000E+00 -0.5050505E-02 -0.1233226E-04  0.0000000E+00 -0.5792342E-03
  0.5287294E-02  0.0000000E+00 -0.5050505E-02 -0.2034084E-03  0.0000000E+00 -0.4615530E-03
 -0.5050505E-02  0.0000000E+00 -0.5050505E-02 -0.1038359E-10  0.0000000E+00 -0.5447162E-03
 -0.5050505E-02  0.0000000E+00 -0.5050505E-02 -0.3132503E-10  0.0000000E+00 -0.5447162E-03
 -0.5050505E-02  0.0000000E+00 -0.5050505E-02 -0.5243407E-10  0.0000000E+00 -0.5447162E-03
 -0.5050505E-02  0.0000000E+00 -0.5050505E-02 -0.7341326E-10  0.0000000E+00 -0.5447163E-03
 -0.5050505E-02  0.0000000E+00 -0.5050505E-02 -0.9436347E-10  0.0000000E+00 -0.5447163E-03
 -0.5050505E-02  0.0000000E+00 -0.5050505E-02 -0.1154149E-09  0.0000000E+00 -0.5447164E-03
 -0.5050504E-02  0.0000000E+00 -0.5050505E-02 -0.1366778E-09  0.0000000E+00 -0.5447165E-03
 -0.5050501E-02  0.0000000E+00 -0.5050505E-02 -0.1582537E-09  0.0000000E+00 -0.5447166E-03
 -0.5050495E-02  0.0000000E+00 -0.5050505E-02 -0.1802356E-09  0.0000000E+00 -0.5447167E-03
 -0.5050482E-02  0.0000000E+00 -0.5050505E-02 -0.2027145E-09  0.0000000E+00 -0.5447168E-03
 -0.5050449E-02  0.0000000E+00 -0.5050505E-02 -0.2257783E-09  0.0000000E+00 -0.5447170E-03
 -0.5050376E-02  0.0000000E+00 -0.5050505E-02 -0.2495127E-09  0.0000000E+00 -0.5447172E-03
 -0.5050299E-02  0.0000000E+00 -0.5050505E-02 -0.2740050E-09  0.0000000E+00 -0.5447173E-03
 -0.5050178E-02  0.0000000E+00 -0.5050505E-02 -0.2993407E-09  0.0000000E+00 -0.5447176E-03
 -0.5050018E-02  0.0000000E+00 -0.5050505E-02 -0.3256079E-09  0.0000000E+00 -0.5447178E-03
 -0.5049710E-02  0.0000000E+00 -0.5050505E-02 -0.3528956E-09  0.0000000E+00 -0.5447180E-03
 -0.5049253E-02  0.0000000E+00 -0.5050505E-02 -0.3812950E-09  0.0000000E+00 -0.5447183E-03
 -0.5048636E-02  0.0000000E+00 -0.5050505E-02 -0.4109004E-09  0.0000000E+00 -0.5447186E-03
 -0.5047442E-02  0.0000000E+00 -0.5050505E-02 -0.4418090E-09  0.0000000E+00 -0.5447189E-03
 -0.5045727E-02  0.0000000E+00 -0.5050505E-02 -0.4741216E-09  0.0000000E+00 -0.5447192E-03
 -0.5043261E-02  0.0000000E+00 -0.5050505E-02 -0.5079436E-09  0.0000000E+00 -0.5447195E-03
 -0.5038714E-02  0.0000000E+00 -0.5050505E-02 -0.5433850E-09  0.0000000E+00 -0.5447199E-03
 -0.5032318E-02  0.0000000E+00 -0.5050505E-02 -0.5805610E-09  0.0000000E+00 -0.5447203E-03
 -0.5022454E-02  0.0000000E+00 -0.5050505E-02 -0.6195931E-09  0.0000000E+00 -0.5447207E-03
 -0.5012589E-02  0.0000000E+00 -0.5050505E-02 -0.6606093E-09  0.0000000E+00 -0.5447212E-03
 -0.5002725E-02  0.0000000E+00 -0.5050505E-02 -0.7037449E-09  0.0000000E+00 -0.5447217E-03
 -0.4992860E-02  0.0000000E+00 -0.5050505E-02 -0.7491436E-09  0.0000000E+00 -0.5447222E-03
 -0.4976523E-02  0.0000000E+00 -0.5050505E-02 -0.7969581E-09  0.0000000E+00 -0.5447227E-03
 -0.4956794E-02  0.0000000E+00 -0.5050505E-02 -0.8473511E-09  0.0000000E+00 -0.5447233E-03
 -0.4937066E-02  0.0000000E+00 -0.5050505E-02 -0.9004967E-09  0.0000000E+00 -0.5447239E-03
 -0.4906239E-02  0.0000000E+00 -0.5050505E-02 -0.9565812E-09  0.0000000E+00 -0.5447246E-03
 -0.4866782E-02  0.0000000E+00 -0.5050505E-02 -0.1015805E-08  0.0000000E+00 -0.5447253E-03
 -0.4827325E-02  0.0000000E+00 -0.5050505E-02 -0.1078382E-08  0.0000000E+00 -0.5447260E-03
 -0.4769372E-02  0.0000000E+00 -0.5050505E-02 -0.1144546E-08  0.0000000E+00 -0.5447268E-03
 -0.4690458E-02  0.0000000E+00 -0.5050505E-02 -0.1214548E-08  0.0000000E+00 -0.5447276E-03
 -0.4611543E-02  0.0000000E+00 -0.5050505E-02 -0.1288660E-08  0.0000000E+00 -0.5447285E-03
 -0.4503035E-02  0.0000000E+00 -0.5050505E-02 -0.1367176E-08  0.0000000E+00 -0.5447295E-03
 -0.4345206E-02  0.0000000E+00 -0.5050505E-02 -0.1450419E-08  0.0000000E+00 -0.5447305E-03
 -0.4187378E-02  0.0000000E+00 -0.5050505E-02 -0.1538740E-08  0.0000000E+00 -0.5447315E-03
 -0.3985156E-02  0.0000000E+00 -0.5050505E-02 -0.1632522E-08  0.0000000E+00 -0.5447326E-03
 -0.3669499E-02  0.0000000E+00 -0.5050505E-02 -0.1732187E-08  0.0000000E+00 -0.5447338E-03
 -0.3353842E-02  0.0000000E+00 -0.5050505E-02 -0.1838194E-08  0.0000000E+00 -0.5447351E-03
 -0.2978990E-02  0.0000000E+00 -0.5050505E-02 -0.1951054E-08  0.0000000E+00 -0.5447364E-03
 -0.2347676E-02  0.0000000E+00 -0.5050505E-02 -0.2071327E-08  0.0000000E+00 -0.5447379E-03
 -0.1716362E-02  0.0000000E+00 -0.5050505E-02 -0.2199634E-08  0.0000000E+00 -0.5447394E-03
 -0.1025842E-02  0.0000000E+00 -0.5050505E-02 -0.2336663E-08  0.0000000E+00 -0.5447410E-03
  0.2367855E-03  0.0000000E+00 -0.5050505E-02 -0.2483179E-08  0.0000000E+00 -0.5447427E-03
  0.1499413E-02  0.0000000E+00 -0.5050505E-02 -0.2640034E-08  0.0000000E+00 -0.5447445E-03
  0.2762042E-02  0.0000000E+00 -0.5050505E-02 -0.2808181E-08  0.0000000E+00 -0.5447464E-03
 -0.5050505E-02  0.0000000E+00 -0.5050505E-02 -0.2988685E-08  0.0000000E+00 -0.5447485E-03
 -0.5050505E-02  0.0000000E+00 -0.5050505E-02 -0.3182744E-08  0.0000000E+00 -0.5447506E-03
 -0.5050505E-02  0.0000000E+00 -0.5050505E-02 -0.3391705E-08  0.0000000E+00 -0.5447530E-03
 -0.5050505E-02  0.0000000E+00 -0.5050505E-02 -0.3617091E-08  0.0000000E+00 -0.5447554E-03
 -0.5050505E-02  0.0000000E+00 -0.5050505E-02 -0.3860622E-08  0.0000000E+00 -0.5447581E-03
 -0.5050505E-02  0.0000000E+00 -0.5050505E-02 -0.4124255E-08  0.0000000E+00 -0.5447609E-03
 -0.5050505E-02  0.0000000E+00 -0.5050505E-02 -0.4410216E-08  0.0000000E+00 -0.5447639E-03
 -0.5050504E-02  0.0000000E+00 -0.5050505E-02 -0.4721050E-08  0.0000000E+00 -0.5447671E-03
 -0.5050501E-02  0.0000000E+00 -0.5050505E-02 -0.5059671E-08  0.0000000E+00 -0.5447706E-03
 -0.5050495E-02  0.0000000E+00 -0.5050505E-02 -0.5429431E-08  0.0000000E+00 -0.5447743E-03
 -0.5050482E-02  0.0000000E+00 -0.5050505E-02 -0.5834197E-08  0.0000000E+00 -0.5447783E-03
 -0.5050449E-02  0.0000000E+00 -0.5050505E-02 -0.6278446E-08  0.0000000E+00 -0.5447825E-03
 -0.5050376E-02  0.0000000E+00 -0.5050505E-02 -0.6767383E-08  0.0000000E+00 -0.5447872E-03
 -0.5050299E-02  0.0000000E+00 -0.5050505E-02 -0.7307081E-08  0.0000000E+00 -0.5447921E-03
 -0.5050178E-02  0.0000000E+00 -0.5050505E-02 -0.7904656E-08  0.0000000E+00 -0.5447975E-03
 -0.5050018E-02  0.0000000E+00 -0.5050505E-02 -0.8568482E-08  0.0000000E+00 -0.5448033E-03
 -0.5049710E-02  0.0000000E+00 -0.5050505E-02 -0.9308461E-08  0.0000000E+00 -0.5448096E-03
 -0.5049253E-02  0.0000000E+00 -0.5050505E-02 -0.1013636E-07  0.0000000E+00 -0.5448164E-03
 -0.5048636E-02  0.0000000E+00 -0.5050505E-02 -0.1106622E-07  0.0000000E+00 -0.5448239E-03
 -0.5047442E-02  0.0000000E+00 -0.5050505E-02 -0.1211493E-07  0.0000000E+00 -0.5448321E-03
 -0.5045727E-02  0.0000000E+00 -0.5050505E-02 -0.1330284E-07  0.0000000E+00 -0.5448410E-03
 -0.5043261E-02  0.0000000E+00 -0.5050505E-02 -0.1465473E-07  0.0000000E+00 -0.5448508E-03
 -0.5038714E-02  0.0000000E+00 -0.5050505E-02 -0.1620087E-07  0.0000000E+00 -0.5448617E-03
 -0.5032318E-02  0.0000000E+00 -0.5050505E-02 -0.1797859E-07  0.0000000E+00 -0.5448737E-03
 -0.5022454E-02  0.0000000E+00 -0.5050505E-02 -0.2003419E-07  0.0000000E+00 -0.5448870E-03
 -0.5012589E-02  0.0000000E+00 -0.5050505E-02 -0.2242564E-07  0.0000000E+00 -0.5449019E-03
 -0.5002725E-02  0.0000000E+00 -0.5050505E-02 -0.2522610E-07  0.0000000E+00 -0.5449186E-03
 -0.4992860E-02  0.0000000E+00 -0.5050505E-02 -0.2852880E-07  0.0000000E+00 -0.5449374E-03
 -0.4976523E-02  0.0000000E+00 -0.5050505E-02 -0.3245380E-07  0.0000000E+00 -0.5449586E-03
 -0.4956794E-02  0.0000000E+00 -0.5050505E-02 -0.3715738E-07  0.0000000E+00 -0.5449829E-03
 -0.4937066E-02  0.0000000E+00 -0.5050505E-02 -0.4284549E-07  0.0000000E+00 -0.5450108E-03
 -0.4906239E-02  0.0000000E+00 -0.5050505E-02 -0.4979317E-07  0.0000000E+00 -0.5450429E-03
 -0.4866782E-02  0.0000000E+00 -0.5050505E-02 -0.5837312E-07  0.0000000E+00 -0.5450804E-03
 -0.4827325E-02  0.0000000E+00 -0.5050505E-02 -0.6909858E-07  0.0000000E+00 -0.5451244E-03
 -0.4769372E-02  0.0000000E+00 -0.5050505E-02 -0.8268909E-07  0.0000000E+00 -0.5451767E-03
 -0.4690458E-02  0.0000000E+00 -0.5050505E-02 -0.1001737E-06  0.0000000E+00 -0.5452393E-03
 -0.4611543E-02  0.0000000E+00 -0.5050505E-02 -0.1230572E-06  0.0000000E+00 -0.5453154E-03
 -0.4503035E-02  0.0000000E+00 -0.5050505E-02 -0.1535962E-06  0.0000000E+00 -0.5454090E-03
 -0.4345206E-02  0.0000000E+00 -0.5050505E-02 -0.1952723E-06  0.0000000E+00 -0.5455260E-03
 -0.4187378E-02  0.0000000E+00 -0.5050505E-02 -0.2536341E-06  0.0000000E+00 -0.5456748E-03
 -0.3985156E-02  0.0000000E+00 -0.5050505E-02 -0.3378571E-06  0.0000000E+00 -0.5458678E-03
 -0.3669499E-02  0.0000000E+00 -0.5050505E-02 -0.4637734E-06  0.0000000E+00 -0.5461234E-03
 -0.3353842E-02  0.0000000E+00 -0.5050505E-02 -0.6600609E-06  0.0000000E+00 -0.5464700E-03
 -0.2978990E-02  0.0000000E+00 -0.5050505E-02 -0.9816206E-06  0.0000000E+00 -0.5469502E-03
 -0.2347676E-02  0.0000000E+00 -0.5050505E-02 -0.1540273E-05  0.0000000E+00 -0.5476248E-03
 -0.1716362E-02  0.0000000E+00 -0.5050505E-02 -0.2579687E-05  0.0000000E+00 -0.5485572E-03
 -0.1025842E-02  0.0000000E+00 -0.5050505E-02 -0.4669669E-05  0.0000000E+00 -0.5496908E-03
  0.2367855E-03  0.0000000E+00 -0.5050505E-02 -0.9238384E-05  0.0000000E+00 -0.5501962E-03
  0.1499413E-02  0.0000000E+00 -0.5050505E-02 -0.2009621E-04  0.0000000E+00 -0.5452909E-03
  0.5287294E-02  0.0000000E+00 -0.5050505E-02 -0.4792051E-04  0.0000000E+00 -0.5111212E-03
 -0.5050505E-02  0.0000000E+00 -0.5050505E-02 -0.1718230E-10  0.0000000E+00 -0.5435141E-03
 -0.5050505E-02  0.0000000E+00 -0.5050505E-02 -0.5208918E-10  0.0000000E+00 -0.5435141E-03
 -0.5050505E-02  0.0000000E+00 -0.5050505E-02 -0.8736940E-10  0.0000000E+00 -0.5435141E-03
 -0.5050505E-02  0.0000000E+00 -0.5050505E-02 -0.1223291E-09  0.0000000E+00 -0.5435141E-03
 -0.5050505E-02  0.0000000E+00 -0.5050505E-02 -0.1571830E-09  0.0000000E+00 -0.5435142E-03
 -0.5050505E-02  0.0000000E+00 -0.5050505E-02 -0.1921835E-09  0.0000000E+00 -0.5435143E-03
 -0.5050504E-02  0.0000000E+00 -0.5050505E-02 -0.2275322E-09  0.0000000E+00 -0.5435144E-03
 -0.5050501E-02  0.0000000E+00 -0.5050505E-02 -0.2634044E-09  0.0000000E+00 -0.5435145E-03
 -0.5050495E-02  0.0000000E+00 -0.5050505E-02 -0.2999567E-09  0.0000000E+00 -0.5435146E-03
 -0.5050482E-02  0.0000000E+00 -0.5050505E-02 -0.3373393E-09  0.0000000E+00 -0.5435147E-03
 -0.5050449E-02  0.0000000E+00 -0.5050505E-02 -0.3756982E-09  0.0000000E+00 -0.5435149E-03
 -0.5050376E-02  0.0000000E+00 -0.5050505E-02 -0.4151750E-09  0.0000000E+00 -0.5435150E-03
 -0.5050299E-02  0.0000000E+00 -0.5050505E-02 -0.4559138E-09  0.0000000E+00 -0.5435152E-03
 -0.5050178E-02  0.0000000E+00 -0.5050505E-02 -0.4980568E-09  0.0000000E+00 -0.5435154E-03
 -0.5050018E-02  0.0000000E+00 -0.5050505E-02 -0.5417496E-09  0.0000000E+00 -0.5435156E-03
 -0.5049710E-02  0.0000000E+00 -0.5050505E-02 -0.5871402E-09  0.0000000E+00 -0.5435159E-03
 -0.5049253E-02  0.0000000E+00 -0.5050505E-02 -0.6343799E-09  0.0000000E+00 -0.5435161E-03
 -0.5048636E-02  0.0000000E+00 -0.5050505E-02 -0.6836250E-09  0.0000000E+00 -0.5435164E-03
 -0.5047442E-02  0.0000000E+00 -0.5050505E-02 -0.7350370E-09  0.0000000E+00 -0.5435167E-03
 -0.5045727E-02  0.0000000E+00 -0.5050505E-02 -0.7887834E-09  0.0000000E+00 -0.5435170E-03
 -0.5043261E-02  0.0000000E+00 -0.5050505E-02 -0.8450388E-09  0.0000000E+00 -0.5435174E-03
 -0.5038714E-02  0.0000000E+00 -0.5050505E-02 -0.9039859E-09  0.0000000E+00 -0.5435178E-03
 -0.5032318E-02  0.0000000E+00 -0.5050505E-02 -0.9658160E-09  0.0000000E+00 -0.5435182E-03
 -0.5022454E-02  0.0000000E+00 -0.5050505E-02 -0.1030731E-08  0.0000000E+00 -0.5435186E-03
 -0.5012589E-02  0.0000000E+00 -0.5050505E-02 -0.1098942E-08  0.0000000E+00 -0.5435190E-03
 -0.5002725E-02  0.0000000E+00 -0.5050505E-02 -0.1170675E-08  0.0000000E+00 -0.5435195E-03
 -0.4992860E-02  0.0000000E+00 -0.5050505E-02 -0.1246167E-08  0.0000000E+00 -0.5435200E-03
 -0.4976523E-02  0.0000000E+00 -0.5050505E-02 -0.1325673E-08  0.0000000E+00 -0.5435206E-03
 -0.4956794E-02  0.0000000E+00 -0.5050505E-02 -0.1409461E-08  0.0000000E+00 -0.5435211E-03
 -0.4937066E-02  0.0000000E+00 -0.5050505E-02 -0.1497820E-08  0.0000000E+00 -0.5435218E-03
 -0.4906239E-02  0.0000000E+00 -0.5050505E-02 -0.1591060E-08  0.0000000E+00 -0.5435224E-03
 -0.4866782E-02  0.0000000E+00 -0.5050505E-02 -0.1689511E-08  0.0000000E+00 -0.5435231E-03
 -0.4827325E-02  0.0000000E+00 -0.5050505E-02 -0.1793530E-08  0.0000000E+00 -0.5435238E-03
 -0.4769372E-02  0.0000000E+00 -0.5050505E-02 -0.1903502E-08  0.0000000E+00 -0.5435246E-03
 -0.4690458E-02  0.0000000E+00 -0.5050505E-02 -0.2019843E-08  0.0000000E+00 -0.5435254E-03
 -0.4611543E-02  0.0000000E+00 -0.5050505E-02 -0.2143003E-08  0.0000000E+00 -0.5435263E-03
 -0.4503035E-02  0.0000000E+00 -0.5050505E-02 -0.2273471E-08  0.0000000E+00 -0.5435273E-03
 -0.4345206E-02  0.0000000E+00 -0.5050505E-02 -0.2411781E-08  0.0000000E+00 -0.5435282E-03
 -0.4187378E-02  0.0000000E+00 -0.5050505E-02 -0.2558511E-08  0.0000000E+00 -0.5435293E-03
 -0.3985156E-02  0.0000000E+00 -0.5050505E-02 -0.2714297E-08  0.0000000E+00 -0.5435304E-03
 -0.3669499E-02  0.0000000E+00 -0.5050505E-02 -0.2879835E-08  0.0000000E+00 -0.5435316E-03
 -0.3353842E-02  0.0000000E+00 -0.5050505E-02 -0.3055887E-08  0.0000000E+00 -0.5435328E-03
 -0.2978990E-02  0.0000000E+00 -0.5050505E-02 -0.3243295E-08  0.0000000E+00 -0.5435342E-03
 -0.2347676E-02  0.0000000E+00 -0.5050505E-02 -0.3442985E-08  0.0000000E+00 -0.5435356E-03
 -0.1716362E-02  0.0000000E+00 -0.5050505E-02 -0.3655983E-08  0.0000000E+00 -0.5435371E-03
 -0.1025842E-02  0.0000000E+00 -0.5050505E-02 -0.3883426E-08  0.0000000E+00 -0.5435387E-03
  0.2367855E-03  0.0000000E+00 -0.5050505E-02 -0.4126575E-08  0.0000000E+00 -0.5435404E-03
  0.1499413E-02  0.0000000E+00 -0.5050505E-02 -0.4386838E-08  0.0000000E+00 -0.5435422E-03
  0.2762042E-02  0.0000000E+00 -0.5050505E-02 -0.4665785E-08  0.0000000E+00 -0.5435441E-03
 -0.5050505E-02  0.0000000E+00 -0.5050505E-02 -0.4965175E-08  0.0000000E+00 -0.5435461E-03
 -0.5050505E-02  0.0000000E+00 -0.5050505E-02 -0.5286980E-08  0.0000000E+00 -0.5435483E-03
 -0.5050505E-02  0.0000000E+00 -0.5050505E-02 -0.5633421E-08  0.0000000E+00 -0.5435505E-03
 -0.5050505E-02  0.0000000E+00 -0.5050505E-02 -0.6007004E-08  0.0000000E+00 -0.5435530E-03
 -0.5050505E-02  0.0000000E+00 -0.5050505E-02 -0.6410563E-08  0.0000000E+00 -0.5435556E-03
 -0.5050505E-02  0.0000000E+00 -0.5050505E-02 -0.6847317E-08  0.0000000E+00 -0.5435584E-03
 -0.5050505E-02  0.0000000E+00 -0.5050505E-02 -0.7320927E-08  0.0000000E+00 -0.5435614E-03
 -0.5050504E-02  0.0000000E+00 -0.5050505E-02 -0.7835572E-08  0.0000000E+00 -0.5435646E-03
 -0.5050501E-02  0.0000000E+00 -0.5050505E-02 -0.8396041E-08  0.0000000E+00 -0.5435680E-03
 -0.5050495E-02  0.0000000E+00 -0.5050505E-02 -0.9007834E-08  0.0000000E+00 -0.5435716E-03
 -0.5050482E-02  0.0000000E+00 -0.5050505E-02 -0.9677291E-08  0.0000000E+00 -0.5435755E-03
 -0.5050449E-02  0.0000000E+00 -0.5050505E-02 -0.1041175E-07  0.0000000E+00 -0.5435797E-03
 -0.5050376E-02  0.0000000E+00 -0.5050505E-02 -0.1121973E-07  0.0000000E+00 -0.5435843E-03
 -0.5050299E-02  0.0000000E+00 -0.5050505E-02 -0.1211117E-07  0.0000000E+00 -0.5435892E-03
 -0.5050178E-02  0.0000000E+00 -0.5050505E-02 -0.1309769E-07  0.0000000E+00 -0.5435944E-03
 -0.5050018E-02  0.0000000E+00 -0.5050505E-02 -0.1419296E-07  0.0000000E+00 -0.5436001E-03
 -0.5049710E-02  0.0000000E+00 -0.5050505E-02 -0.1541313E-07  0.0000000E+00 -0.5436063E-03
 -0.5049253E-02  0.0000000E+00 -0.5050505E-02 -0.1677735E-07  0.0000000E+00 -0.5436130E-03
 -0.5048636E-02  0.0000000E+00 -0.5050505E-02 -0.1830846E-07  0.0000000E+00 -0.5436203E-03
 -0.5047442E-02  0.0000000E+00 -0.5050505E-02 -0.2003384E-07  0.0000000E+00 -0.5436283E-03
 -0.5045727E-02  0.0000000E+00 -0.5050505E-02 -0.2198652E-07  0.0000000E+00 -0.5436370E-03
 -0.5043261E-02  0.0000000E+00 -0.5050505E-02 -0.2420653E-07  0.0000000E+00 -0.5436466E-03
 -0.5038714E-02  0.0000000E+00 -0.5050505E-02 -0.2674276E-07  0.0000000E+00 -0.5436571E-03
 -0.5032318E-02  0.0000000E+00 -0.5050505E-02 -0.2965529E-07  0.0000000E+00 -0.5436687E-03
 -0.5022454E-02  0.0000000E+00 -0.5050505E-02 -0.3301849E-07  0.0000000E+00 -0.5436816E-03
 -0.5012589E-02  0.0000000E+00 -0.5050505E-02 -0.3692517E-07  0.0000000E+00 -0.5436960E-03
 -0.5002725E-02  0.0000000E+00 -0.5050505E-02 -0.4149208E-07  0.0000000E+00 -0.5437120E-03
 -0.4992860E-02  0.0000000E+00 -0.5050505E-02 -0.4686747E-07  0.0000000E+00 -0.5437300E-03
 -0.4976523E-02  0.0000000E+00 -0.5050505E-02 -0.5324138E-07  0.0000000E+00 -0.5437504E-03
 -0.4956794E-02  0.0000000E+00 -0.5050505E-02 -0.6086002E-07  0.0000000E+00 -0.5437734E-03
 -0.4937066E-02  0.0000000E+00 -0.5050505E-02 -0.7004603E-07  0.0000000E+00 -0.5437997E-03
 -0.4906239E-02  0.0000000E+00 -0.5050505E-02 -0.8122745E-07  0.0000000E+00 -0.5438299E-03
 -0.4866782E-02  0.0000000E+00 -0.5050505E-02 -0.9497990E-07  0.0000000E+00 -0.5438648E-03
 -0.4827325E-02  0.0000000E+00 -0.5050505E-02 -0.1120890E-06  0.0000000E+00 -0.5439055E-03
 -0.4769372E-02  0.0000000E+00 -0.5050505E-02 -0.1336442E-06  0.0000000E+00 -0.5439532E-03
 -0.4690458E-02  0.0000000E+00 -0.5050505E-02 -0.1611837E-06  0.0000000E+00 -0.5440096E-03
 -0.4611543E-02  0.0000000E+00 -0.5050505E-02 -0.1969219E-06  0.0000000E+00 -0.5440771E-03
 -0.4503035E-02  0.0000000E+00 -0.5050505E-02 -0.2441151E-06  0.0000000E+00 -0.5441583E-03
 -0.4345206E-02  0.0000000E+00 -0.5050505E-02 -0.3076666E-06  0.0000000E+00 -0.5442573E-03
 -0.4187378E-02  0.0000000E+00 -0.5050505E-02 -0.3951510E-06  0.0000000E+00 -0.5443787E-03
 -0.3985156E-02  0.0000000E+00 -0.5050505E-02 -0.5185989E-06  0.0000000E+00 -0.5445287E-03
 -0.3669499E-02  0.0000000E+00 -0.5050505E-02 -0.6976868E-06  0.0000000E+00 -0.5447145E-03
 -0.3353842E-02  0.0000000E+00 -0.5050505E-02 -0.9655679E-06  0.0000000E+00 -0.5449424E-03
 -0.2978990E-02  0.0000000E+00 -0.5050505E-02 -0.1379660E-05  0.0000000E+00 -0.5452119E-03
 -0.2347676E-02  0.0000000E+00 -0.5050505E-02 -0.2041379E-05  0.0000000E+00 -0.5454963E-03
 -0.1716362E-02  0.0000000E+00 -0.5050505E-02 -0.3129751E-05  0.0000000E+00 -0.5456877E-03
 -0.1025842E-02  0.0000000E+00 -0.5050505E-02 -0.4944304E-05  0.0000000E+00 -0.5454447E-03
  0.2367855E-03  0.0000000E+00 -0.5050505E-02 -0.7881075E-05  0.0000000E+00 -0.5438223E-03
  0.1499413E-02  0.0000000E+00 -0.5050505E-02 -0.1188378E-04  0.0000000E+00 -0.5386574E-03
  0.5287294E-02  0.0000000E+00 -0.5050505E-02 -0.1307682E-04  0.0000000E+00 -0.5275972E-03
 -0.5050505E-02  0.0000000E+00 -0.5050505E-02 -0.2389616E-10  0.0000000E+00 -0.5417701E-03
 -0.5050505E-02  0.0000000E+00 -0.5050505E-02 -0.7277580E-10  0.0000000E+00 -0.5417701E-03
 -0.5050505E-02  0.0000000E+00 -0.5050505E-02 -0.1222607E-09  0.0000000E+00 -0.5417701E-03
 -0.5050505E-02  0.0000000E+00 -0.5050505E-02 -0.1711463E-09  0.0000000E+00 -0.5417702E-03
 -0.5050505E-02  0.0000000E+00 -0.5050505E-02 -0.2197970E-09  0.0000000E+00 -0.5417702E-03
 -0.5050505E-02  0.0000000E+00 -0.5050505E-02 -0.2686163E-09  0.0000000E+00 -0.5417703E-03
 -0.5050504E-02  0.0000000E+00 -0.5050505E-02 -0.3179141E-09  0.0000000E+00 -0.5417704E-03
 -0.5050501E-02  0.0000000E+00 -0.5050505E-02 -0.3679466E-09  0.0000000E+00 -0.5417705E-03
 -0.5050495E-02  0.0000000E+00 -0.5050505E-02 -0.4189361E-09  0.0000000E+00 -0.5417706E-03
 -0.5050482E-02  0.0000000E+00 -0.5050505E-02 -0.4710913E-09  0.0000000E+00 -0.5417707E-03
 -0.5050449E-02  0.0000000E+00 -0.5050505E-02 -0.5246150E-09  0.0000000E+00 -0.5417709E-03
 -0.5050376E-02  0.0000000E+00 -0.5050505E-02 -0.5797034E-09  0.0000000E+00 -0.5417710E-03
 -0.5050299E-02  0.0000000E+00 -0.5050505E-02 -0.6365560E-09  0.0000000E+00 -0.5417712E-03
 -0.5050178E-02  0.0000000E+00 -0.5050505E-02 -0.6953705E-09  0.0000000E+00 -0.5417714E-03
 -0.5050018E-02  0.0000000E+00 -0.5050505E-02 -0.7563491E-09  0.0000000E+00 -0.5417716E-03
 -0.5049710E-02  0.0000000E+00 -0.5050505E-02 -0.8196976E-09  0.0000000E+00 -0.5417719E-03
 -0.5049253E-02  0.0000000E+00 -0.5050505E-02 -0.8856264E-09  0.0000000E+00 -0.5417721E-03
 -0.5048636E-02  0.0000000E+00 -0.5050505E-02 -0.9543530E-09  0.0000000E+00 -0.5417724E-03
 -0.5047442E-02  0.0000000E+00 -0.5050505E-02 -0.1026102E-08  0.0000000E+00 -0.5417727E-03
 -0.5045727E-02  0.0000000E+00 -0.5050505E-02 -0.1101106E-08  0.0000000E+00 -0.5417730E-03
 -0.5043261E-02  0.0000000E+00 -0.5050505E-02 -0.1179610E-08  0.0000000E+00 -0.5417734E-03
 -0.5038714E-02  0.0000000E+00 -0.5050505E-02 -0.1261865E-08  0.0000000E+00 -0.5417737E-03
 -0.5032318E-02  0.0000000E+00 -0.5050505E-02 -0.1348139E-08  0.0000000E+00 -0.5417741E-03
 -0.5022454E-02  0.0000000E+00 -0.5050505E-02 -0.1438712E-08  0.0000000E+00 -0.5417746E-03
 -0.5012589E-02  0.0000000E+00 -0.5050505E-02 -0.1533879E-08  0.0000000E+00 -0.5417750E-03
 -0.5002725E-02  0.0000000E+00 -0.5050505E-02 -0.1633953E-08  0.0000000E+00 -0.5417755E-03
 -0.4992860E-02  0.0000000E+00 -0.5050505E-02 -0.1739263E-08  0.0000000E+00 -0.5417760E-03
 -0.4976523E-02  0.0000000E+00 -0.5050505E-02 -0.1850163E-08  0.0000000E+00 -0.5417765E-03
 -0.4956794E-02  0.0000000E+00 -0.5050505E-02 -0.1967026E-08  0.0000000E+00 -0.5417771E-03
 -0.4937066E-02  0.0000000E+00 -0.5050505E-02 -0.2090255E-08  0.0000000E+00 -0.5417777E-03