title = "dataset feddes"
variables = "x", "y", "z", "vx", "vy", "vz"
zone t = "velocities, solution time =  5.400E+01 days        " i =   99, j =   99, k =    1,  f=point
 -0.5050505E-02  0.0000000E+00 -0.5050505E-02  0.2539076E-07  0.0000000E+00 -0.1169638E-03
 -0.5050505E-02  0.0000000E+00 -0.5050505E-02  0.7617463E-07  0.0000000E+00 -0.1168608E-03
 -0.5050505E-02  0.0000000E+00 -0.5050505E-02  0.1269658E-06  0.0000000E+00 -0.1166548E-03
 -0.5050505E-02  0.0000000E+00 -0.5050505E-02  0.1777690E-06  0.0000000E+00 -0.1163458E-03
 -0.5050505E-02  0.0000000E+00 -0.5050505E-02  0.2285884E-06  0.0000000E+00 -0.1159337E-03
 -0.5050505E-02  0.0000000E+00 -0.5050505E-02  0.2794272E-06  0.0000000E+00 -0.1154185E-03
 -0.5050504E-02  0.0000000E+00 -0.5050505E-02  0.3302868E-06  0.0000000E+00 -0.1148003E-03
 -0.5050501E-02  0.0000000E+00 -0.5050505E-02  0.3811668E-06  0.0000000E+00 -0.1140790E-03
 -0.5050495E-02  0.0000000E+00 -0.5050505E-02  0.4320646E-06  0.0000000E+00 -0.1132545E-03
 -0.5050482E-02  0.0000000E+00 -0.5050505E-02  0.4829747E-06  0.0000000E+00 -0.1123270E-03
 -0.5050449E-02  0.0000000E+00 -0.5050505E-02  0.5338891E-06  0.0000000E+00 -0.1112963E-03
 -0.5050376E-02  0.0000000E+00 -0.5050505E-02  0.5847963E-06  0.0000000E+00 -0.1101626E-03
 -0.5050299E-02  0.0000000E+00 -0.5050505E-02  0.6356816E-06  0.0000000E+00 -0.1089260E-03
 -0.5050178E-02  0.0000000E+00 -0.5050505E-02  0.6865266E-06  0.0000000E+00 -0.1075865E-03
 -0.5050018E-02  0.0000000E+00 -0.5050505E-02  0.7373095E-06  0.0000000E+00 -0.1061442E-03
 -0.5049710E-02  0.0000000E+00 -0.5050505E-02  0.7880044E-06  0.0000000E+00 -0.1045995E-03
 -0.5049253E-02  0.0000000E+00 -0.5050505E-02  0.8385819E-06  0.0000000E+00 -0.1029525E-03
 -0.5048636E-02  0.0000000E+00 -0.5050505E-02  0.8890090E-06  0.0000000E+00 -0.1012036E-03
 -0.5047442E-02  0.0000000E+00 -0.5050505E-02  0.9392494E-06  0.0000000E+00 -0.9935323E-04
 -0.5045727E-02  0.0000000E+00 -0.5050505E-02  0.9892640E-06  0.0000000E+00 -0.9740183E-04
 -0.5043261E-02  0.0000000E+00 -0.5050505E-02  0.1039011E-05  0.0000000E+00 -0.9534999E-04
 -0.5038714E-02  0.0000000E+00 -0.5050505E-02  0.1088448E-05  0.0000000E+00 -0.9319837E-04
 -0.5032318E-02  0.0000000E+00 -0.5050505E-02  0.1137531E-05  0.0000000E+00 -0.9094771E-04
 -0.5022454E-02  0.0000000E+00 -0.5050505E-02  0.1186218E-05  0.0000000E+00 -0.8859886E-04
 -0.5012589E-02  0.0000000E+00 -0.5050505E-02  0.1234468E-05  0.0000000E+00 -0.8615275E-04
 -0.5002725E-02  0.0000000E+00 -0.5050505E-02  0.1282249E-05  0.0000000E+00 -0.8361037E-04
 -0.4992860E-02  0.0000000E+00 -0.5050505E-02  0.1329535E-05  0.0000000E+00 -0.8097278E-04
 -0.4976523E-02  0.0000000E+00 -0.5050505E-02  0.1376315E-05  0.0000000E+00 -0.7824110E-04
 -0.4956794E-02  0.0000000E+00 -0.5050505E-02  0.1422595E-05  0.0000000E+00 -0.7541643E-04
 -0.4937066E-02  0.0000000E+00 -0.5050505E-02  0.1468415E-05  0.0000000E+00 -0.7249984E-04
 -0.4906239E-02  0.0000000E+00 -0.5050505E-02  0.1513856E-05  0.0000000E+00 -0.6949226E-04
 -0.4866782E-02  0.0000000E+00 -0.5050505E-02  0.1559065E-05  0.0000000E+00 -0.6639442E-04
 -0.4827325E-02  0.0000000E+00 -0.5050505E-02  0.1604290E-05  0.0000000E+00 -0.6320665E-04
 -0.4769372E-02  0.0000000E+00 -0.5050505E-02  0.1649939E-05  0.0000000E+00 -0.5992859E-04
 -0.4690458E-02  0.0000000E+00 -0.5050505E-02  0.1696677E-05  0.0000000E+00 -0.5655884E-04
 -0.4611543E-02  0.0000000E+00 -0.5050505E-02  0.1745588E-05  0.0000000E+00 -0.5309424E-04
 -0.4503035E-02  0.0000000E+00 -0.5050505E-02  0.1798454E-05  0.0000000E+00 -0.4952874E-04
 -0.4345206E-02  0.0000000E+00 -0.5050505E-02  0.1858237E-05  0.0000000E+00 -0.4585154E-04
 -0.4187378E-02  0.0000000E+00 -0.5050505E-02  0.1929930E-05  0.0000000E+00 -0.4204390E-04
 -0.3985156E-02  0.0000000E+00 -0.5050505E-02  0.2022127E-05  0.0000000E+00 -0.3807344E-04
 -0.3669499E-02  0.0000000E+00 -0.5050505E-02  0.2150109E-05  0.0000000E+00 -0.3388392E-04
 -0.3353842E-02  0.0000000E+00 -0.5050505E-02  0.2342469E-05  0.0000000E+00 -0.2937523E-04
 -0.2978990E-02  0.0000000E+00 -0.5050505E-02  0.2656969E-05  0.0000000E+00 -0.2436097E-04
 -0.2347676E-02  0.0000000E+00 -0.5050505E-02  0.3223188E-05  0.0000000E+00 -0.1846772E-04
 -0.1716362E-02  0.0000000E+00 -0.5050505E-02  0.4370849E-05  0.0000000E+00 -0.1086418E-04
 -0.1025842E-02  0.0000000E+00 -0.5050505E-02  0.7057003E-05  0.0000000E+00  0.5752424E-06
  0.2367855E-03  0.0000000E+00 -0.5050505E-02 -0.5985284E-05  0.0000000E+00  0.1645960E-05
  0.1499413E-02  0.0000000E+00 -0.5050505E-02 -0.3339909E-05  0.0000000E+00 -0.7690105E-05
  0.2762042E-02  0.0000000E+00 -0.5050505E-02 -0.2263226E-05  0.0000000E+00 -0.1329809E-04
 -0.5050505E-02  0.0000000E+00 -0.5050505E-02 -0.1786397E-05  0.0000000E+00 -0.1735418E-04
 -0.5050505E-02  0.0000000E+00 -0.5050505E-02 -0.1571540E-05  0.0000000E+00 -0.2071922E-04
 -0.5050505E-02  0.0000000E+00 -0.5050505E-02 -0.1485437E-05  0.0000000E+00 -0.2378395E-04
 -0.5050505E-02  0.0000000E+00 -0.5050505E-02 -0.1469550E-05  0.0000000E+00 -0.2674755E-04
 -0.5050505E-02  0.0000000E+00 -0.5050505E-02 -0.1494881E-05  0.0000000E+00 -0.2972170E-04
 -0.5050505E-02  0.0000000E+00 -0.5050505E-02 -0.1543850E-05  0.0000000E+00 -0.3277150E-04
 -0.5050505E-02  0.0000000E+00 -0.5050505E-02 -0.1602664E-05  0.0000000E+00 -0.3593066E-04
 -0.5050504E-02  0.0000000E+00 -0.5050505E-02 -0.1659453E-05  0.0000000E+00 -0.3920714E-04
 -0.5050501E-02  0.0000000E+00 -0.5050505E-02 -0.1705638E-05  0.0000000E+00 -0.4258839E-04
 -0.5050495E-02  0.0000000E+00 -0.5050505E-02 -0.1736766E-05  0.0000000E+00 -0.4604875E-04
 -0.5050482E-02  0.0000000E+00 -0.5050505E-02 -0.1751913E-05  0.0000000E+00 -0.4955709E-04
 -0.5050449E-02  0.0000000E+00 -0.5050505E-02 -0.1752379E-05  0.0000000E+00 -0.5308262E-04
 -0.5050376E-02  0.0000000E+00 -0.5050505E-02 -0.1740478E-05  0.0000000E+00 -0.5659815E-04
 -0.5050299E-02  0.0000000E+00 -0.5050505E-02 -0.1718723E-05  0.0000000E+00 -0.6008128E-04
 -0.5050178E-02  0.0000000E+00 -0.5050505E-02 -0.1689393E-05  0.0000000E+00 -0.6351442E-04
 -0.5050018E-02  0.0000000E+00 -0.5050505E-02 -0.1654377E-05  0.0000000E+00 -0.6688413E-04
 -0.5049710E-02  0.0000000E+00 -0.5050505E-02 -0.1615155E-05  0.0000000E+00 -0.7018037E-04
 -0.5049253E-02  0.0000000E+00 -0.5050505E-02 -0.1572849E-05  0.0000000E+00 -0.7339569E-04
 -0.5048636E-02  0.0000000E+00 -0.5050505E-02 -0.1528296E-05  0.0000000E+00 -0.7652462E-04
 -0.5047442E-02  0.0000000E+00 -0.5050505E-02 -0.1482111E-05  0.0000000E+00 -0.7956313E-04
 -0.5045727E-02  0.0000000E+00 -0.5050505E-02 -0.1434748E-05  0.0000000E+00 -0.8250831E-04
 -0.5043261E-02  0.0000000E+00 -0.5050505E-02 -0.1386541E-05  0.0000000E+00 -0.8535799E-04
 -0.5038714E-02  0.0000000E+00 -0.5050505E-02 -0.1337739E-05  0.0000000E+00 -0.8811062E-04
 -0.5032318E-02  0.0000000E+00 -0.5050505E-02 -0.1288529E-05  0.0000000E+00 -0.9076510E-04
 -0.5022454E-02  0.0000000E+00 -0.5050505E-02 -0.1239057E-05  0.0000000E+00 -0.9332065E-04
 -0.5012589E-02  0.0000000E+00 -0.5050505E-02 -0.1189433E-05  0.0000000E+00 -0.9577676E-04
 -0.5002725E-02  0.0000000E+00 -0.5050505E-02 -0.1139750E-05  0.0000000E+00 -0.9813313E-04
 -0.4992860E-02  0.0000000E+00 -0.5050505E-02 -0.1090081E-05  0.0000000E+00 -0.1003896E-03
 -0.4976523E-02  0.0000000E+00 -0.5050505E-02 -0.1040490E-05  0.0000000E+00 -0.1025462E-03
 -0.4956794E-02  0.0000000E+00 -0.5050505E-02 -0.9910335E-06  0.0000000E+00 -0.1046031E-03
 -0.4937066E-02  0.0000000E+00 -0.5050505E-02 -0.9417623E-06  0.0000000E+00 -0.1065605E-03
 -0.4906239E-02  0.0000000E+00 -0.5050505E-02 -0.8927274E-06  0.0000000E+00 -0.1084188E-03
 -0.4866782E-02  0.0000000E+00 -0.5050505E-02 -0.8439817E-06  0.0000000E+00 -0.1101785E-03
 -0.4827325E-02  0.0000000E+00 -0.5050505E-02 -0.7955849E-06  0.0000000E+00 -0.1118400E-03
 -0.4769372E-02  0.0000000E+00 -0.5050505E-02 -0.7476099E-06  0.0000000E+00 -0.1134042E-03
 -0.4690458E-02  0.0000000E+00 -0.5050505E-02 -0.7001521E-06  0.0000000E+00 -0.1148720E-03
 -0.4611543E-02  0.0000000E+00 -0.5050505E-02 -0.6533446E-06  0.0000000E+00 -0.1162444E-03
 -0.4503035E-02  0.0000000E+00 -0.5050505E-02 -0.6073837E-06  0.0000000E+00 -0.1175229E-03
 -0.4345206E-02  0.0000000E+00 -0.5050505E-02 -0.5625720E-06  0.0000000E+00 -0.1187096E-03
 -0.4187378E-02  0.0000000E+00 -0.5050505E-02 -0.5193983E-06  0.0000000E+00 -0.1198072E-03
 -0.3985156E-02  0.0000000E+00 -0.5050505E-02 -0.4786884E-06  0.0000000E+00 -0.1208198E-03
 -0.3669499E-02  0.0000000E+00 -0.5050505E-02 -0.4419107E-06  0.0000000E+00 -0.1217540E-03
 -0.3353842E-02  0.0000000E+00 -0.5050505E-02 -0.4118341E-06  0.0000000E+00 -0.1226204E-03
 -0.2978990E-02  0.0000000E+00 -0.5050505E-02 -0.3940568E-06  0.0000000E+00 -0.1234383E-03
 -0.2347676E-02  0.0000000E+00 -0.5050505E-02 -0.4008663E-06  0.0000000E+00 -0.1242451E-03
 -0.1716362E-02  0.0000000E+00 -0.5050505E-02 -0.4619166E-06  0.0000000E+00 -0.1251209E-03
 -0.1025842E-02  0.0000000E+00 -0.5050505E-02 -0.6566753E-06  0.0000000E+00 -0.1262566E-03
  0.2367855E-03  0.0000000E+00 -0.5050505E-02 -0.1222493E-05  0.0000000E+00 -0.1281646E-03
  0.1499413E-02  0.0000000E+00 -0.5050505E-02 -0.2946162E-05  0.0000000E+00 -0.1323985E-03
  0.5287294E-02  0.0000000E+00 -0.5050505E-02 -0.4685344E-04  0.0000000E+00 -0.1058195E-03
 -0.5050505E-02  0.0000000E+00 -0.5050505E-02  0.7619061E-07  0.0000000E+00 -0.1167677E-03
 -0.5050505E-02  0.0000000E+00 -0.5050505E-02  0.2285796E-06  0.0000000E+00 -0.1166643E-03
 -0.5050505E-02  0.0000000E+00 -0.5050505E-02  0.3809920E-06  0.0000000E+00 -0.1164576E-03
 -0.5050505E-02  0.0000000E+00 -0.5050505E-02  0.5334432E-06  0.0000000E+00 -0.1161475E-03
 -0.5050505E-02  0.0000000E+00 -0.5050505E-02  0.6859464E-06  0.0000000E+00 -0.1157339E-03
 -0.5050505E-02  0.0000000E+00 -0.5050505E-02  0.8385115E-06  0.0000000E+00 -0.1152170E-03
 -0.5050504E-02  0.0000000E+00 -0.5050505E-02  0.9911435E-06  0.0000000E+00 -0.1145966E-03
 -0.5050501E-02  0.0000000E+00 -0.5050505E-02  0.1143842E-05  0.0000000E+00 -0.1138727E-03
 -0.5050495E-02  0.0000000E+00 -0.5050505E-02  0.1296599E-05  0.0000000E+00 -0.1130453E-03
 -0.5050482E-02  0.0000000E+00 -0.5050505E-02  0.1449400E-05  0.0000000E+00 -0.1121145E-03
 -0.5050449E-02  0.0000000E+00 -0.5050505E-02  0.1602221E-05  0.0000000E+00 -0.1110801E-03
 -0.5050376E-02  0.0000000E+00 -0.5050505E-02  0.1755028E-05  0.0000000E+00 -0.1099422E-03
 -0.5050299E-02  0.0000000E+00 -0.5050505E-02  0.1907777E-05  0.0000000E+00 -0.1087010E-03
 -0.5050178E-02  0.0000000E+00 -0.5050505E-02  0.2060414E-05  0.0000000E+00 -0.1073564E-03
 -0.5050018E-02  0.0000000E+00 -0.5050505E-02  0.2212874E-05  0.0000000E+00 -0.1059086E-03
 -0.5049710E-02  0.0000000E+00 -0.5050505E-02  0.2365079E-05  0.0000000E+00 -0.1043579E-03
 -0.5049253E-02  0.0000000E+00 -0.5050505E-02  0.2516941E-05  0.0000000E+00 -0.1027044E-03
 -0.5048636E-02  0.0000000E+00 -0.5050505E-02  0.2668363E-05  0.0000000E+00 -0.1009484E-03
 -0.5047442E-02  0.0000000E+00 -0.5050505E-02  0.2819234E-05  0.0000000E+00 -0.9909049E-04
 -0.5045727E-02  0.0000000E+00 -0.5050505E-02  0.2969438E-05  0.0000000E+00 -0.9713096E-04
 -0.5043261E-02  0.0000000E+00 -0.5050505E-02  0.3118850E-05  0.0000000E+00 -0.9507043E-04
 -0.5038714E-02  0.0000000E+00 -0.5050505E-02  0.3267340E-05  0.0000000E+00 -0.9290952E-04
 -0.5032318E-02  0.0000000E+00 -0.5050505E-02  0.3414776E-05  0.0000000E+00 -0.9064898E-04
 -0.5022454E-02  0.0000000E+00 -0.5050505E-02  0.3561031E-05  0.0000000E+00 -0.8828963E-04
 -0.5012589E-02  0.0000000E+00 -0.5050505E-02  0.3705984E-05  0.0000000E+00 -0.8583240E-04
 -0.5002725E-02  0.0000000E+00 -0.5050505E-02  0.3849529E-05  0.0000000E+00 -0.8327827E-04
 -0.4992860E-02  0.0000000E+00 -0.5050505E-02  0.3991587E-05  0.0000000E+00 -0.8062832E-04
 -0.4976523E-02  0.0000000E+00 -0.5050505E-02  0.4132116E-05  0.0000000E+00 -0.7788367E-04
 -0.4956794E-02  0.0000000E+00 -0.5050505E-02  0.4271132E-05  0.0000000E+00 -0.7504545E-04
 -0.4937066E-02  0.0000000E+00 -0.5050505E-02  0.4408734E-05  0.0000000E+00 -0.7211479E-04
 -0.4906239E-02  0.0000000E+00 -0.5050505E-02  0.4545144E-05  0.0000000E+00 -0.6909272E-04
 -0.4866782E-02  0.0000000E+00 -0.5050505E-02  0.4680765E-05  0.0000000E+00 -0.6598011E-04
 -0.4827325E-02  0.0000000E+00 -0.5050505E-02  0.4816285E-05  0.0000000E+00 -0.6277754E-04
 -0.4769372E-02  0.0000000E+00 -0.5050505E-02  0.4952827E-05  0.0000000E+00 -0.5948505E-04
 -0.4690458E-02  0.0000000E+00 -0.5050505E-02  0.5092220E-05  0.0000000E+00 -0.5610192E-04
 -0.4611543E-02  0.0000000E+00 -0.5050505E-02  0.5237437E-05  0.0000000E+00 -0.5262609E-04
 -0.4503035E-02  0.0000000E+00 -0.5050505E-02  0.5393345E-05  0.0000000E+00 -0.4905338E-04
 -0.4345206E-02  0.0000000E+00 -0.5050505E-02  0.5567988E-05  0.0000000E+00 -0.4537618E-04
 -0.4187378E-02  0.0000000E+00 -0.5050505E-02  0.5774805E-05  0.0000000E+00 -0.4158128E-04
 -0.3985156E-02  0.0000000E+00 -0.5050505E-02  0.6036570E-05  0.0000000E+00 -0.3764640E-04
 -0.3669499E-02  0.0000000E+00 -0.5050505E-02  0.6392694E-05  0.0000000E+00 -0.3353479E-04
 -0.3353842E-02  0.0000000E+00 -0.5050505E-02  0.6913573E-05  0.0000000E+00 -0.2918754E-04
 -0.2978990E-02  0.0000000E+00 -0.5050505E-02  0.7731055E-05  0.0000000E+00 -0.2451616E-04
 -0.2347676E-02  0.0000000E+00 -0.5050505E-02  0.9108767E-05  0.0000000E+00 -0.1941117E-04
 -0.1716362E-02  0.0000000E+00 -0.5050505E-02  0.1161759E-04  0.0000000E+00 -0.1384661E-04
 -0.1025842E-02  0.0000000E+00 -0.5050505E-02  0.1660189E-04  0.0000000E+00 -0.8451280E-05
  0.2367855E-03  0.0000000E+00 -0.5050505E-02 -0.1334186E-04  0.0000000E+00 -0.7333051E-05
  0.1499413E-02  0.0000000E+00 -0.5050505E-02 -0.8489629E-05  0.0000000E+00 -0.1054073E-04
  0.2762042E-02  0.0000000E+00 -0.5050505E-02 -0.6205754E-05  0.0000000E+00 -0.1404824E-04
 -0.5050505E-02  0.0000000E+00 -0.5050505E-02 -0.5104774E-05  0.0000000E+00 -0.1727523E-04
 -0.5050505E-02  0.0000000E+00 -0.5050505E-02 -0.4590342E-05  0.0000000E+00 -0.2026933E-04
 -0.5050505E-02  0.0000000E+00 -0.5050505E-02 -0.4389612E-05  0.0000000E+00 -0.2315029E-04
 -0.5050505E-02  0.0000000E+00 -0.5050505E-02 -0.4370939E-05  0.0000000E+00 -0.2601655E-04
 -0.5050505E-02  0.0000000E+00 -0.5050505E-02 -0.4464972E-05  0.0000000E+00 -0.2894046E-04
 -0.5050505E-02  0.0000000E+00 -0.5050505E-02 -0.4626363E-05  0.0000000E+00 -0.3197278E-04
 -0.5050505E-02  0.0000000E+00 -0.5050505E-02 -0.4815414E-05  0.0000000E+00 -0.3514183E-04
 -0.5050504E-02  0.0000000E+00 -0.5050505E-02 -0.4994994E-05  0.0000000E+00 -0.3845036E-04
 -0.5050501E-02  0.0000000E+00 -0.5050505E-02 -0.5138416E-05  0.0000000E+00 -0.4187802E-04
 -0.5050495E-02  0.0000000E+00 -0.5050505E-02 -0.5232901E-05  0.0000000E+00 -0.4539096E-04
 -0.5050482E-02  0.0000000E+00 -0.5050505E-02 -0.5276989E-05  0.0000000E+00 -0.4895176E-04
 -0.5050449E-02  0.0000000E+00 -0.5050505E-02 -0.5275847E-05  0.0000000E+00 -0.5252590E-04
 -0.5050376E-02  0.0000000E+00 -0.5050505E-02 -0.5237292E-05  0.0000000E+00 -0.5608461E-04
 -0.5050299E-02  0.0000000E+00 -0.5050505E-02 -0.5169337E-05  0.0000000E+00 -0.5960531E-04
 -0.5050178E-02  0.0000000E+00 -0.5050505E-02 -0.5079025E-05  0.0000000E+00 -0.6307088E-04
 -0.5050018E-02  0.0000000E+00 -0.5050505E-02 -0.4972060E-05  0.0000000E+00 -0.6646864E-04
 -0.5049710E-02  0.0000000E+00 -0.5050505E-02 -0.4852850E-05  0.0000000E+00 -0.6978929E-04
 -0.5049253E-02  0.0000000E+00 -0.5050505E-02 -0.4724702E-05  0.0000000E+00 -0.7302606E-04
 -0.5048636E-02  0.0000000E+00 -0.5050505E-02 -0.4590060E-05  0.0000000E+00 -0.7617403E-04
 -0.5047442E-02  0.0000000E+00 -0.5050505E-02 -0.4450717E-05  0.0000000E+00 -0.7922961E-04
 -0.5045727E-02  0.0000000E+00 -0.5050505E-02 -0.4307988E-05  0.0000000E+00 -0.8219020E-04
 -0.5043261E-02  0.0000000E+00 -0.5050505E-02 -0.4162840E-05  0.0000000E+00 -0.8505392E-04
 -0.5038714E-02  0.0000000E+00 -0.5050505E-02 -0.4015994E-05  0.0000000E+00 -0.8781940E-04
 -0.5032318E-02  0.0000000E+00 -0.5050505E-02 -0.3867993E-05  0.0000000E+00 -0.9048568E-04
 -0.5022454E-02  0.0000000E+00 -0.5050505E-02 -0.3719253E-05  0.0000000E+00 -0.9305211E-04
 -0.5012589E-02  0.0000000E+00 -0.5050505E-02 -0.3570104E-05  0.0000000E+00 -0.9551826E-04
 -0.5002725E-02  0.0000000E+00 -0.5050505E-02 -0.3420806E-05  0.0000000E+00 -0.9788391E-04
 -0.4992860E-02  0.0000000E+00 -0.5050505E-02 -0.3271579E-05  0.0000000E+00 -0.1001490E-03
 -0.4976523E-02  0.0000000E+00 -0.5050505E-02 -0.3122607E-05  0.0000000E+00 -0.1023135E-03
 -0.4956794E-02  0.0000000E+00 -0.5050505E-02 -0.2974053E-05  0.0000000E+00 -0.1043777E-03
 -0.4937066E-02  0.0000000E+00 -0.5050505E-02 -0.2826068E-05  0.0000000E+00 -0.1063418E-03
 -0.4906239E-02  0.0000000E+00 -0.5050505E-02 -0.2678801E-05  0.0000000E+00 -0.1082062E-03
 -0.4866782E-02  0.0000000E+00 -0.5050505E-02 -0.2532403E-05  0.0000000E+00 -0.1099714E-03
 -0.4827325E-02  0.0000000E+00 -0.5050505E-02 -0.2387047E-05  0.0000000E+00 -0.1116380E-03
 -0.4769372E-02  0.0000000E+00 -0.5050505E-02 -0.2242941E-05  0.0000000E+00 -0.1132066E-03
 -0.4690458E-02  0.0000000E+00 -0.5050505E-02 -0.2100355E-05  0.0000000E+00 -0.1146781E-03
 -0.4611543E-02  0.0000000E+00 -0.5050505E-02 -0.1959662E-05  0.0000000E+00 -0.1160536E-03
 -0.4503035E-02  0.0000000E+00 -0.5050505E-02 -0.1821408E-05  0.0000000E+00 -0.1173343E-03
 -0.4345206E-02  0.0000000E+00 -0.5050505E-02 -0.1686419E-05  0.0000000E+00 -0.1185220E-03
 -0.4187378E-02  0.0000000E+00 -0.5050505E-02 -0.1556010E-05  0.0000000E+00 -0.1196189E-03
 -0.3985156E-02  0.0000000E+00 -0.5050505E-02 -0.1432354E-05  0.0000000E+00 -0.1206282E-03
 -0.3669499E-02  0.0000000E+00 -0.5050505E-02 -0.1319199E-05  0.0000000E+00 -0.1215544E-03
 -0.3353842E-02  0.0000000E+00 -0.5050505E-02 -0.1223335E-05  0.0000000E+00 -0.1224040E-03
 -0.2978990E-02  0.0000000E+00 -0.5050505E-02 -0.1157725E-05  0.0000000E+00 -0.1231869E-03
 -0.2347676E-02  0.0000000E+00 -0.5050505E-02 -0.1148658E-05  0.0000000E+00 -0.1239163E-03
 -0.1716362E-02  0.0000000E+00 -0.5050505E-02 -0.1252997E-05  0.0000000E+00 -0.1246050E-03
 -0.1025842E-02  0.0000000E+00 -0.5050505E-02 -0.1602332E-05  0.0000000E+00 -0.1252356E-03
  0.2367855E-03  0.0000000E+00 -0.5050505E-02 -0.2521960E-05  0.0000000E+00 -0.1256124E-03
  0.1499413E-02  0.0000000E+00 -0.5050505E-02 -0.4864978E-05  0.0000000E+00 -0.1246604E-03
  0.5287294E-02  0.0000000E+00 -0.5050505E-02 -0.1097319E-04  0.0000000E+00 -0.1171626E-03
 -0.5050505E-02  0.0000000E+00 -0.5050505E-02  0.1271134E-06  0.0000000E+00 -0.1163800E-03
 -0.5050505E-02  0.0000000E+00 -0.5050505E-02  0.3813550E-06  0.0000000E+00 -0.1162759E-03
 -0.5050505E-02  0.0000000E+00 -0.5050505E-02  0.6356405E-06  0.0000000E+00 -0.1160678E-03
 -0.5050505E-02  0.0000000E+00 -0.5050505E-02  0.8899980E-06  0.0000000E+00 -0.1157555E-03
 -0.5050505E-02  0.0000000E+00 -0.5050505E-02  0.1144452E-05  0.0000000E+00 -0.1153392E-03
 -0.5050505E-02  0.0000000E+00 -0.5050505E-02  0.1399021E-05  0.0000000E+00 -0.1148187E-03
 -0.5050504E-02  0.0000000E+00 -0.5050505E-02  0.1653716E-05  0.0000000E+00 -0.1141939E-03
 -0.5050501E-02  0.0000000E+00 -0.5050505E-02  0.1908538E-05  0.0000000E+00 -0.1134650E-03
 -0.5050495E-02  0.0000000E+00 -0.5050505E-02  0.2163477E-05  0.0000000E+00 -0.1126318E-03
 -0.5050482E-02  0.0000000E+00 -0.5050505E-02  0.2418510E-05  0.0000000E+00 -0.1116943E-03
 -0.5050449E-02  0.0000000E+00 -0.5050505E-02  0.2673598E-05  0.0000000E+00 -0.1106524E-03
 -0.5050376E-02  0.0000000E+00 -0.5050505E-02  0.2928687E-05  0.0000000E+00 -0.1095062E-03
 -0.5050299E-02  0.0000000E+00 -0.5050505E-02  0.3183706E-05  0.0000000E+00 -0.1082558E-03
 -0.5050178E-02  0.0000000E+00 -0.5050505E-02  0.3438567E-05  0.0000000E+00 -0.1069011E-03
 -0.5050018E-02  0.0000000E+00 -0.5050505E-02  0.3693161E-05  0.0000000E+00 -0.1054423E-03
 -0.5049710E-02  0.0000000E+00 -0.5050505E-02  0.3947362E-05  0.0000000E+00 -0.1038796E-03
 -0.5049253E-02  0.0000000E+00 -0.5050505E-02  0.4201024E-05  0.0000000E+00 -0.1022131E-03
 -0.5048636E-02  0.0000000E+00 -0.5050505E-02  0.4453984E-05  0.0000000E+00 -0.1004431E-03
 -0.5047442E-02  0.0000000E+00 -0.5050505E-02  0.4706060E-05  0.0000000E+00 -0.9857005E-04
 -0.5045727E-02  0.0000000E+00 -0.5050505E-02  0.4957057E-05  0.0000000E+00 -0.9659429E-04
 -0.5043261E-02  0.0000000E+00 -0.5050505E-02  0.5206765E-05  0.0000000E+00 -0.9451638E-04
 -0.5038714E-02  0.0000000E+00 -0.5050505E-02  0.5454968E-05  0.0000000E+00 -0.9233692E-04
 -0.5032318E-02  0.0000000E+00 -0.5050505E-02  0.5701442E-05  0.0000000E+00 -0.9005662E-04
 -0.5022454E-02  0.0000000E+00 -0.5050505E-02  0.5945971E-05  0.0000000E+00 -0.8767627E-04
 -0.5012589E-02  0.0000000E+00 -0.5050505E-02  0.6188346E-05  0.0000000E+00 -0.8519678E-04
 -0.5002725E-02  0.0000000E+00 -0.5050505E-02  0.6428382E-05  0.0000000E+00 -0.8261913E-04
 -0.4992860E-02  0.0000000E+00 -0.5050505E-02  0.6665934E-05  0.0000000E+00 -0.7994440E-04
 -0.4976523E-02  0.0000000E+00 -0.5050505E-02  0.6900913E-05  0.0000000E+00 -0.7717373E-04
 -0.4956794E-02  0.0000000E+00 -0.5050505E-02  0.7133315E-05  0.0000000E+00 -0.7430831E-04
 -0.4937066E-02  0.0000000E+00 -0.5050505E-02  0.7363260E-05  0.0000000E+00 -0.7134936E-04
 -0.4906239E-02  0.0000000E+00 -0.5050505E-02  0.7591047E-05  0.0000000E+00 -0.6829807E-04
 -0.4866782E-02  0.0000000E+00 -0.5050505E-02  0.7817240E-05  0.0000000E+00 -0.6515558E-04
 -0.4827325E-02  0.0000000E+00 -0.5050505E-02  0.8042800E-05  0.0000000E+00 -0.6192288E-04
 -0.4769372E-02  0.0000000E+00 -0.5050505E-02  0.8269298E-05  0.0000000E+00 -0.5860075E-04
 -0.4690458E-02  0.0000000E+00 -0.5050505E-02  0.8499276E-05  0.0000000E+00 -0.5518959E-04
 -0.4611543E-02  0.0000000E+00 -0.5050505E-02  0.8736843E-05  0.0000000E+00 -0.5168926E-04
 -0.4503035E-02  0.0000000E+00 -0.5050505E-02  0.8988674E-05  0.0000000E+00 -0.4809878E-04
 -0.4345206E-02  0.0000000E+00 -0.5050505E-02  0.9265695E-05  0.0000000E+00 -0.4441588E-04
 -0.4187378E-02  0.0000000E+00 -0.5050505E-02  0.9585919E-05  0.0000000E+00 -0.4063635E-04
 -0.3985156E-02  0.0000000E+00 -0.5050505E-02  0.9979183E-05  0.0000000E+00 -0.3675337E-04
 -0.3669499E-02  0.0000000E+00 -0.5050505E-02  0.1049510E-04  0.0000000E+00 -0.3275719E-04
 -0.3353842E-02  0.0000000E+00 -0.5050505E-02  0.1121639E-04  0.0000000E+00 -0.2863747E-04
 -0.2978990E-02  0.0000000E+00 -0.5050505E-02  0.1228098E-04  0.0000000E+00 -0.2439476E-04
 -0.2347676E-02  0.0000000E+00 -0.5050505E-02  0.1391667E-04  0.0000000E+00 -0.2007970E-04
 -0.1716362E-02  0.0000000E+00 -0.5050505E-02  0.1648319E-04  0.0000000E+00 -0.1590476E-04
 -0.1025842E-02  0.0000000E+00 -0.5050505E-02  0.2045509E-04  0.0000000E+00 -0.1250238E-04
  0.2367855E-03  0.0000000E+00 -0.5050505E-02 -0.1486030E-04  0.0000000E+00 -0.1127911E-04
  0.1499413E-02  0.0000000E+00 -0.5050505E-02 -0.1114945E-04  0.0000000E+00 -0.1231269E-04
  0.2762042E-02  0.0000000E+00 -0.5050505E-02 -0.9003265E-05  0.0000000E+00 -0.1430822E-04
 -0.5050505E-02  0.0000000E+00 -0.5050505E-02 -0.7858089E-05  0.0000000E+00 -0.1667096E-04
 -0.5050505E-02  0.0000000E+00 -0.5050505E-02 -0.7310606E-05  0.0000000E+00 -0.1918694E-04
 -0.5050505E-02  0.0000000E+00 -0.5050505E-02 -0.7125090E-05  0.0000000E+00 -0.2179817E-04
 -0.5050505E-02  0.0000000E+00 -0.5050505E-02 -0.7173430E-05  0.0000000E+00 -0.2450777E-04
 -0.5050505E-02  0.0000000E+00 -0.5050505E-02 -0.7383234E-05  0.0000000E+00 -0.2734504E-04
 -0.5050505E-02  0.0000000E+00 -0.5050505E-02 -0.7699143E-05  0.0000000E+00 -0.3034765E-04
 -0.5050505E-02  0.0000000E+00 -0.5050505E-02 -0.8058085E-05  0.0000000E+00 -0.3354206E-04
 -0.5050504E-02  0.0000000E+00 -0.5050505E-02 -0.8389271E-05  0.0000000E+00 -0.3692302E-04
 -0.5050501E-02  0.0000000E+00 -0.5050505E-02 -0.8644102E-05  0.0000000E+00 -0.4045242E-04
 -0.5050495E-02  0.0000000E+00 -0.5050505E-02 -0.8803960E-05  0.0000000E+00 -0.4407759E-04
 -0.5050482E-02  0.0000000E+00 -0.5050505E-02 -0.8871634E-05  0.0000000E+00 -0.4774769E-04
 -0.5050449E-02  0.0000000E+00 -0.5050505E-02 -0.8860312E-05  0.0000000E+00 -0.5142116E-04
 -0.5050376E-02  0.0000000E+00 -0.5050505E-02 -0.8785961E-05  0.0000000E+00 -0.5506686E-04
 -0.5050299E-02  0.0000000E+00 -0.5050505E-02 -0.8663430E-05  0.0000000E+00 -0.5866250E-04
 -0.5050178E-02  0.0000000E+00 -0.5050505E-02 -0.8505011E-05  0.0000000E+00 -0.6219239E-04
 -0.5050018E-02  0.0000000E+00 -0.5050505E-02 -0.8320271E-05  0.0000000E+00 -0.6564561E-04
 -0.5049710E-02  0.0000000E+00 -0.5050505E-02 -0.8116392E-05  0.0000000E+00 -0.6901451E-04
 -0.5049253E-02  0.0000000E+00 -0.5050505E-02 -0.7898660E-05  0.0000000E+00 -0.7229369E-04
 -0.5048636E-02  0.0000000E+00 -0.5050505E-02 -0.7670928E-05  0.0000000E+00 -0.7547934E-04
 -0.5047442E-02  0.0000000E+00 -0.5050505E-02 -0.7435995E-05  0.0000000E+00 -0.7856873E-04
 -0.5045727E-02  0.0000000E+00 -0.5050505E-02 -0.7195901E-05  0.0000000E+00 -0.8155992E-04
 -0.5043261E-02  0.0000000E+00 -0.5050505E-02 -0.6952143E-05  0.0000000E+00 -0.8445151E-04
 -0.5038714E-02  0.0000000E+00 -0.5050505E-02 -0.6705836E-05  0.0000000E+00 -0.8724252E-04
 -0.5032318E-02  0.0000000E+00 -0.5050505E-02 -0.6457820E-05  0.0000000E+00 -0.8993228E-04
 -0.5022454E-02  0.0000000E+00 -0.5050505E-02 -0.6208743E-05  0.0000000E+00 -0.9252035E-04
 -0.5012589E-02  0.0000000E+00 -0.5050505E-02 -0.5959116E-05  0.0000000E+00 -0.9500650E-04
 -0.5002725E-02  0.0000000E+00 -0.5050505E-02 -0.5709351E-05  0.0000000E+00 -0.9739063E-04
 -0.4992860E-02  0.0000000E+00 -0.5050505E-02 -0.5459788E-05  0.0000000E+00 -0.9967278E-04
 -0.4976523E-02  0.0000000E+00 -0.5050505E-02 -0.5210721E-05  0.0000000E+00 -0.1018531E-03
 -0.4956794E-02  0.0000000E+00 -0.5050505E-02 -0.4962406E-05  0.0000000E+00 -0.1039318E-03
 -0.4937066E-02  0.0000000E+00 -0.5050505E-02 -0.4715082E-05  0.0000000E+00 -0.1059093E-03
 -0.4906239E-02  0.0000000E+00 -0.5050505E-02 -0.4468980E-05  0.0000000E+00 -0.1077859E-03
 -0.4866782E-02  0.0000000E+00 -0.5050505E-02 -0.4224337E-05  0.0000000E+00 -0.1095622E-03
 -0.4827325E-02  0.0000000E+00 -0.5050505E-02 -0.3981418E-05  0.0000000E+00 -0.1112388E-03
 -0.4769372E-02  0.0000000E+00 -0.5050505E-02 -0.3740536E-05  0.0000000E+00 -0.1128162E-03
 -0.4690458E-02  0.0000000E+00 -0.5050505E-02 -0.3502095E-05  0.0000000E+00 -0.1142954E-03
 -0.4611543E-02  0.0000000E+00 -0.5050505E-02 -0.3266638E-05  0.0000000E+00 -0.1156771E-03
 -0.4503035E-02  0.0000000E+00 -0.5050505E-02 -0.3034940E-05  0.0000000E+00 -0.1169624E-03
 -0.4345206E-02  0.0000000E+00 -0.5050505E-02 -0.2808153E-05  0.0000000E+00 -0.1181526E-03
 -0.4187378E-02  0.0000000E+00 -0.5050505E-02 -0.2588043E-05  0.0000000E+00 -0.1192491E-03
 -0.3985156E-02  0.0000000E+00 -0.5050505E-02 -0.2377412E-05  0.0000000E+00 -0.1202536E-03
 -0.3669499E-02  0.0000000E+00 -0.5050505E-02 -0.2180834E-05  0.0000000E+00 -0.1211680E-03
 -0.3353842E-02  0.0000000E+00 -0.5050505E-02 -0.2005998E-05  0.0000000E+00 -0.1219937E-03
 -0.2978990E-02  0.0000000E+00 -0.5050505E-02 -0.1866153E-05  0.0000000E+00 -0.1227305E-03
 -0.2347676E-02  0.0000000E+00 -0.5050505E-02 -0.1784493E-05  0.0000000E+00 -0.1233718E-03
 -0.1716362E-02  0.0000000E+00 -0.5050505E-02 -0.1801412E-05  0.0000000E+00 -0.1238918E-03
 -0.1025842E-02  0.0000000E+00 -0.5050505E-02 -0.1983020E-05  0.0000000E+00 -0.1242123E-03
  0.2367855E-03  0.0000000E+00 -0.5050505E-02 -0.2412618E-05  0.0000000E+00 -0.1241229E-03
  0.1499413E-02  0.0000000E+00 -0.5050505E-02 -0.3061765E-05  0.0000000E+00 -0.1231562E-03
  0.5287294E-02  0.0000000E+00 -0.5050505E-02 -0.3041560E-05  0.0000000E+00 -0.1208359E-03
 -0.5050505E-02  0.0000000E+00 -0.5050505E-02  0.1783306E-06  0.0000000E+00 -0.1158056E-03
 -0.5050505E-02  0.0000000E+00 -0.5050505E-02  0.5350154E-06  0.0000000E+00 -0.1157005E-03
 -0.5050505E-02  0.0000000E+00 -0.5050505E-02  0.8917706E-06  0.0000000E+00 -0.1154903E-03
 -0.5050505E-02  0.0000000E+00 -0.5050505E-02  0.1248641E-05  0.0000000E+00 -0.1151749E-03
 -0.5050505E-02  0.0000000E+00 -0.5050505E-02  0.1605665E-05  0.0000000E+00 -0.1147543E-03
 -0.5050505E-02  0.0000000E+00 -0.5050505E-02  0.1962875E-05  0.0000000E+00 -0.1142284E-03
 -0.5050504E-02  0.0000000E+00 -0.5050505E-02  0.2320290E-05  0.0000000E+00 -0.1135973E-03
 -0.5050501E-02  0.0000000E+00 -0.5050505E-02  0.2677916E-05  0.0000000E+00 -0.1128608E-03
 -0.5050495E-02  0.0000000E+00 -0.5050505E-02  0.3035745E-05  0.0000000E+00 -0.1120188E-03
 -0.5050482E-02  0.0000000E+00 -0.5050505E-02  0.3393746E-05  0.0000000E+00 -0.1110713E-03
 -0.5050449E-02  0.0000000E+00 -0.5050505E-02  0.3751871E-05  0.0000000E+00 -0.1100183E-03
 -0.5050376E-02  0.0000000E+00 -0.5050505E-02  0.4110050E-05  0.0000000E+00 -0.1088598E-03
 -0.5050299E-02  0.0000000E+00 -0.5050505E-02  0.4468185E-05  0.0000000E+00 -0.1075956E-03
 -0.5050178E-02  0.0000000E+00 -0.5050505E-02  0.4826156E-05  0.0000000E+00 -0.1062258E-03
 -0.5050018E-02  0.0000000E+00 -0.5050505E-02  0.5183815E-05  0.0000000E+00 -0.1047505E-03
 -0.5049710E-02  0.0000000E+00 -0.5050505E-02  0.5540988E-05  0.0000000E+00 -0.1031698E-03
 -0.5049253E-02  0.0000000E+00 -0.5050505E-02  0.5897474E-05  0.0000000E+00 -0.1014839E-03
 -0.5048636E-02  0.0000000E+00 -0.5050505E-02  0.6253045E-05  0.0000000E+00 -0.9969291E-04
 -0.5047442E-02  0.0000000E+00 -0.5050505E-02  0.6607448E-05  0.0000000E+00 -0.9779720E-04
 -0.5045727E-02  0.0000000E+00 -0.5050505E-02  0.6960409E-05  0.0000000E+00 -0.9579714E-04
 -0.5043261E-02  0.0000000E+00 -0.5050505E-02  0.7311634E-05  0.0000000E+00 -0.9369319E-04
 -0.5038714E-02  0.0000000E+00 -0.5050505E-02  0.7660815E-05  0.0000000E+00 -0.9148590E-04
 -0.5032318E-02  0.0000000E+00 -0.5050505E-02  0.8007636E-05  0.0000000E+00 -0.8917595E-04
 -0.5022454E-02  0.0000000E+00 -0.5050505E-02  0.8351782E-05  0.0000000E+00 -0.8676407E-04
 -0.5012589E-02  0.0000000E+00 -0.5050505E-02  0.8692951E-05  0.0000000E+00 -0.8425115E-04
 -0.5002725E-02  0.0000000E+00 -0.5050505E-02  0.9030866E-05  0.0000000E+00 -0.8163814E-04
 -0.4992860E-02  0.0000000E+00 -0.5050505E-02  0.9365296E-05  0.0000000E+00 -0.7892613E-04
 -0.4976523E-02  0.0000000E+00 -0.5050505E-02  0.9696078E-05  0.0000000E+00 -0.7611626E-04
 -0.4956794E-02  0.0000000E+00 -0.5050505E-02  0.1002315E-04  0.0000000E+00 -0.7320979E-04
 -0.4937066E-02  0.0000000E+00 -0.5050505E-02  0.1034661E-04  0.0000000E+00 -0.7020804E-04