title = "dataset feddes"
variables = "x", "y", "z", "vx", "vy", "vz"
zone t = "velocities, solution time =  5.700E+01 days        " i =   99, j =   99, k =    1,  f=point
 -0.5050505E-02  0.0000000E+00 -0.5050505E-02  0.3988697E-07  0.0000000E+00 -0.7509649E-04
 -0.5050505E-02  0.0000000E+00 -0.5050505E-02  0.1196896E-06  0.0000000E+00 -0.7493545E-04
 -0.5050505E-02  0.0000000E+00 -0.5050505E-02  0.1995796E-06  0.0000000E+00 -0.7461328E-04
 -0.5050505E-02  0.0000000E+00 -0.5050505E-02  0.2796160E-06  0.0000000E+00 -0.7412975E-04
 -0.5050505E-02  0.0000000E+00 -0.5050505E-02  0.3598578E-06  0.0000000E+00 -0.7348454E-04
 -0.5050505E-02  0.0000000E+00 -0.5050505E-02  0.4403631E-06  0.0000000E+00 -0.7267722E-04
 -0.5050504E-02  0.0000000E+00 -0.5050505E-02  0.5211887E-06  0.0000000E+00 -0.7170725E-04
 -0.5050501E-02  0.0000000E+00 -0.5050505E-02  0.6023900E-06  0.0000000E+00 -0.7057399E-04
 -0.5050495E-02  0.0000000E+00 -0.5050505E-02  0.6840207E-06  0.0000000E+00 -0.6927671E-04
 -0.5050482E-02  0.0000000E+00 -0.5050505E-02  0.7661324E-06  0.0000000E+00 -0.6781455E-04
 -0.5050449E-02  0.0000000E+00 -0.5050505E-02  0.8487750E-06  0.0000000E+00 -0.6618659E-04
 -0.5050376E-02  0.0000000E+00 -0.5050505E-02  0.9319966E-06  0.0000000E+00 -0.6439182E-04
 -0.5050299E-02  0.0000000E+00 -0.5050505E-02  0.1015844E-05  0.0000000E+00 -0.6242913E-04
 -0.5050178E-02  0.0000000E+00 -0.5050505E-02  0.1100362E-05  0.0000000E+00 -0.6029734E-04
 -0.5050018E-02  0.0000000E+00 -0.5050505E-02  0.1185595E-05  0.0000000E+00 -0.5799518E-04
 -0.5049710E-02  0.0000000E+00 -0.5050505E-02  0.1271589E-05  0.0000000E+00 -0.5552133E-04
 -0.5049253E-02  0.0000000E+00 -0.5050505E-02  0.1358390E-05  0.0000000E+00 -0.5287436E-04
 -0.5048636E-02  0.0000000E+00 -0.5050505E-02  0.1446045E-05  0.0000000E+00 -0.5005277E-04
 -0.5047442E-02  0.0000000E+00 -0.5050505E-02  0.1534604E-05  0.0000000E+00 -0.4705498E-04
 -0.5045727E-02  0.0000000E+00 -0.5050505E-02  0.1624124E-05  0.0000000E+00 -0.4387930E-04
 -0.5043261E-02  0.0000000E+00 -0.5050505E-02  0.1714664E-05  0.0000000E+00 -0.4052397E-04
 -0.5038714E-02  0.0000000E+00 -0.5050505E-02  0.1806294E-05  0.0000000E+00 -0.3698709E-04
 -0.5032318E-02  0.0000000E+00 -0.5050505E-02  0.1899090E-05  0.0000000E+00 -0.3326663E-04
 -0.5022454E-02  0.0000000E+00 -0.5050505E-02  0.1993143E-05  0.0000000E+00 -0.2936042E-04
 -0.5012589E-02  0.0000000E+00 -0.5050505E-02  0.2088556E-05  0.0000000E+00 -0.2526610E-04
 -0.5002725E-02  0.0000000E+00 -0.5050505E-02  0.2185449E-05  0.0000000E+00 -0.2098113E-04
 -0.4992860E-02  0.0000000E+00 -0.5050505E-02  0.2283966E-05  0.0000000E+00 -0.1650270E-04
 -0.4976523E-02  0.0000000E+00 -0.5050505E-02  0.2384278E-05  0.0000000E+00 -0.1182771E-04
 -0.4956794E-02  0.0000000E+00 -0.5050505E-02  0.2486595E-05  0.0000000E+00 -0.6952709E-05
 -0.4937066E-02  0.0000000E+00 -0.5050505E-02  0.2591175E-05  0.0000000E+00 -0.1872725E-05
 -0.4906239E-02  0.0000000E+00 -0.5050505E-02  0.2697696E-05  0.0000000E+00  0.3425113E-05
 -0.4866782E-02  0.0000000E+00 -0.5050505E-02  0.2806889E-05  0.0000000E+00  0.8948128E-05
 -0.4827325E-02  0.0000000E+00 -0.5050505E-02  0.2919161E-05  0.0000000E+00  0.1469724E-04
 -0.4769372E-02  0.0000000E+00 -0.5050505E-02  0.3034989E-05  0.0000000E+00  0.2067957E-04
 -0.4690458E-02  0.0000000E+00 -0.5050505E-02  0.3154939E-05  0.0000000E+00  0.2690336E-04
 -0.4611543E-02  0.0000000E+00 -0.5050505E-02  0.3279710E-05  0.0000000E+00  0.3337814E-04
 -0.4503035E-02  0.0000000E+00 -0.5050505E-02  0.3410242E-05  0.0000000E+00  0.4011515E-04
 -0.4345206E-02  0.0000000E+00 -0.5050505E-02  0.3547968E-05  0.0000000E+00  0.4712809E-04
 -0.4187378E-02  0.0000000E+00 -0.5050505E-02  0.3695446E-05  0.0000000E+00  0.5443474E-04
 -0.3985156E-02  0.0000000E+00 -0.5050505E-02  0.3857878E-05  0.0000000E+00  0.6206081E-04
 -0.3669499E-02  0.0000000E+00 -0.5050505E-02  0.4046683E-05  0.0000000E+00  0.7004896E-04
 -0.3353842E-02  0.0000000E+00 -0.5050505E-02  0.4287831E-05  0.0000000E+00  0.7847986E-04
 -0.2978990E-02  0.0000000E+00 -0.5050505E-02  0.4641820E-05  0.0000000E+00  0.8752214E-04
 -0.2347676E-02  0.0000000E+00 -0.5050505E-02  0.5255430E-05  0.0000000E+00  0.9755544E-04
 -0.1716362E-02  0.0000000E+00 -0.5050505E-02  0.6513015E-05  0.0000000E+00  0.1095007E-03
 -0.1025842E-02  0.0000000E+00 -0.5050505E-02  0.9544853E-05  0.0000000E+00  0.1258249E-03
  0.2367855E-03  0.0000000E+00 -0.5050505E-02 -0.6953584E-05  0.0000000E+00  0.1284563E-03
  0.1499413E-02  0.0000000E+00 -0.5050505E-02 -0.4000313E-05  0.0000000E+00  0.1173103E-03
  0.2762042E-02  0.0000000E+00 -0.5050505E-02 -0.2882097E-05  0.0000000E+00  0.1103137E-03
 -0.5050505E-02  0.0000000E+00 -0.5050505E-02 -0.2456934E-05  0.0000000E+00  0.1048899E-03
 -0.5050505E-02  0.0000000E+00 -0.5050505E-02 -0.2330076E-05  0.0000000E+00  0.1000298E-03
 -0.5050505E-02  0.0000000E+00 -0.5050505E-02 -0.2352519E-05  0.0000000E+00  0.9527853E-04
 -0.5050505E-02  0.0000000E+00 -0.5050505E-02 -0.2521473E-05  0.0000000E+00  0.9033608E-04
 -0.5050505E-02  0.0000000E+00 -0.5050505E-02 -0.2908929E-05  0.0000000E+00  0.8483317E-04
 -0.5050505E-02  0.0000000E+00 -0.5050505E-02 -0.3500382E-05  0.0000000E+00  0.7834352E-04
 -0.5050505E-02  0.0000000E+00 -0.5050505E-02 -0.3895077E-05  0.0000000E+00  0.7086210E-04
 -0.5050504E-02  0.0000000E+00 -0.5050505E-02 -0.4057230E-05  0.0000000E+00  0.6282512E-04
 -0.5050501E-02  0.0000000E+00 -0.5050505E-02 -0.4060920E-05  0.0000000E+00  0.5462866E-04
 -0.5050495E-02  0.0000000E+00 -0.5050505E-02 -0.3975722E-05  0.0000000E+00  0.4652249E-04
 -0.5050482E-02  0.0000000E+00 -0.5050505E-02 -0.3846461E-05  0.0000000E+00  0.3864021E-04
 -0.5050449E-02  0.0000000E+00 -0.5050505E-02 -0.3698410E-05  0.0000000E+00  0.3104443E-04
 -0.5050376E-02  0.0000000E+00 -0.5050505E-02 -0.3544848E-05  0.0000000E+00  0.2375879E-04
 -0.5050299E-02  0.0000000E+00 -0.5050505E-02 -0.3392367E-05  0.0000000E+00  0.1678694E-04
 -0.5050178E-02  0.0000000E+00 -0.5050505E-02 -0.3243978E-05  0.0000000E+00  0.1012289E-04
 -0.5050018E-02  0.0000000E+00 -0.5050505E-02 -0.3100854E-05  0.0000000E+00  0.3756547E-05
 -0.5049710E-02  0.0000000E+00 -0.5050505E-02 -0.2963253E-05  0.0000000E+00 -0.2317595E-05
 -0.5049253E-02  0.0000000E+00 -0.5050505E-02 -0.2830753E-05  0.0000000E+00 -0.8114169E-05
 -0.5048636E-02  0.0000000E+00 -0.5050505E-02 -0.2703489E-05  0.0000000E+00 -0.1365388E-04
 -0.5047442E-02  0.0000000E+00 -0.5050505E-02 -0.2581064E-05  0.0000000E+00 -0.1894724E-04
 -0.5045727E-02  0.0000000E+00 -0.5050505E-02 -0.2463092E-05  0.0000000E+00 -0.2400308E-04
 -0.5043261E-02  0.0000000E+00 -0.5050505E-02 -0.2349220E-05  0.0000000E+00 -0.2882951E-04
 -0.5038714E-02  0.0000000E+00 -0.5050505E-02 -0.2239132E-05  0.0000000E+00 -0.3343404E-04
 -0.5032318E-02  0.0000000E+00 -0.5050505E-02 -0.2132545E-05  0.0000000E+00 -0.3782359E-04
 -0.5022454E-02  0.0000000E+00 -0.5050505E-02 -0.2029208E-05  0.0000000E+00 -0.4200459E-04
 -0.5012589E-02  0.0000000E+00 -0.5050505E-02 -0.1928898E-05  0.0000000E+00 -0.4598302E-04
 -0.5002725E-02  0.0000000E+00 -0.5050505E-02 -0.1831412E-05  0.0000000E+00 -0.4976447E-04
 -0.4992860E-02  0.0000000E+00 -0.5050505E-02 -0.1736569E-05  0.0000000E+00 -0.5335415E-04
 -0.4976523E-02  0.0000000E+00 -0.5050505E-02 -0.1644202E-05  0.0000000E+00 -0.5675695E-04
 -0.4956794E-02  0.0000000E+00 -0.5050505E-02 -0.1554161E-05  0.0000000E+00 -0.5997749E-04
 -0.4937066E-02  0.0000000E+00 -0.5050505E-02 -0.1466310E-05  0.0000000E+00 -0.6302009E-04
 -0.4906239E-02  0.0000000E+00 -0.5050505E-02 -0.1380523E-05  0.0000000E+00 -0.6588883E-04
 -0.4866782E-02  0.0000000E+00 -0.5050505E-02 -0.1296692E-05  0.0000000E+00 -0.6858758E-04
 -0.4827325E-02  0.0000000E+00 -0.5050505E-02 -0.1214722E-05  0.0000000E+00 -0.7112002E-04
 -0.4769372E-02  0.0000000E+00 -0.5050505E-02 -0.1134536E-05  0.0000000E+00 -0.7348967E-04
 -0.4690458E-02  0.0000000E+00 -0.5050505E-02 -0.1056083E-05  0.0000000E+00 -0.7569994E-04
 -0.4611543E-02  0.0000000E+00 -0.5050505E-02 -0.9793447E-06  0.0000000E+00 -0.7775416E-04
 -0.4503035E-02  0.0000000E+00 -0.5050505E-02 -0.9043576E-06  0.0000000E+00 -0.7965573E-04
 -0.4345206E-02  0.0000000E+00 -0.5050505E-02 -0.8312396E-06  0.0000000E+00 -0.8140820E-04
 -0.4187378E-02  0.0000000E+00 -0.5050505E-02 -0.7602500E-06  0.0000000E+00 -0.8301549E-04
 -0.3985156E-02  0.0000000E+00 -0.5050505E-02 -0.6918989E-06  0.0000000E+00 -0.8448234E-04
 -0.3669499E-02  0.0000000E+00 -0.5050505E-02 -0.6271694E-06  0.0000000E+00 -0.8581500E-04
 -0.3353842E-02  0.0000000E+00 -0.5050505E-02 -0.5679979E-06  0.0000000E+00 -0.8702267E-04
 -0.2978990E-02  0.0000000E+00 -0.5050505E-02 -0.5183887E-06  0.0000000E+00 -0.8812058E-04
 -0.2347676E-02  0.0000000E+00 -0.5050505E-02 -0.4872272E-06  0.0000000E+00 -0.8913701E-04
 -0.1716362E-02  0.0000000E+00 -0.5050505E-02 -0.4960558E-06  0.0000000E+00 -0.9013098E-04
 -0.1025842E-02  0.0000000E+00 -0.5050505E-02 -0.6026744E-06  0.0000000E+00 -0.9124179E-04
  0.2367855E-03  0.0000000E+00 -0.5050505E-02 -0.9796167E-06  0.0000000E+00 -0.9284171E-04
  0.1499413E-02  0.0000000E+00 -0.5050505E-02 -0.2197939E-05  0.0000000E+00 -0.9605538E-04
  0.5287294E-02  0.0000000E+00 -0.5050505E-02 -0.3407243E-04  0.0000000E+00 -0.7683802E-04
 -0.5050505E-02  0.0000000E+00 -0.5050505E-02  0.1196483E-06  0.0000000E+00 -0.7490737E-04
 -0.5050505E-02  0.0000000E+00 -0.5050505E-02  0.3590324E-06  0.0000000E+00 -0.7474593E-04
 -0.5050505E-02  0.0000000E+00 -0.5050505E-02  0.5986813E-06  0.0000000E+00 -0.7442295E-04
 -0.5050505E-02  0.0000000E+00 -0.5050505E-02  0.8387737E-06  0.0000000E+00 -0.7393821E-04
 -0.5050505E-02  0.0000000E+00 -0.5050505E-02  0.1079487E-05  0.0000000E+00 -0.7329139E-04
 -0.5050505E-02  0.0000000E+00 -0.5050505E-02  0.1320997E-05  0.0000000E+00 -0.7248204E-04
 -0.5050504E-02  0.0000000E+00 -0.5050505E-02  0.1563474E-05  0.0000000E+00 -0.7150962E-04
 -0.5050501E-02  0.0000000E+00 -0.5050505E-02  0.1807085E-05  0.0000000E+00 -0.7037348E-04
 -0.5050495E-02  0.0000000E+00 -0.5050505E-02  0.2051992E-05  0.0000000E+00 -0.6907287E-04
 -0.5050482E-02  0.0000000E+00 -0.5050505E-02  0.2298350E-05  0.0000000E+00 -0.6760694E-04
 -0.5050449E-02  0.0000000E+00 -0.5050505E-02  0.2546310E-05  0.0000000E+00 -0.6597474E-04
 -0.5050376E-02  0.0000000E+00 -0.5050505E-02  0.2796014E-05  0.0000000E+00 -0.6417524E-04
 -0.5050299E-02  0.0000000E+00 -0.5050505E-02  0.3047605E-05  0.0000000E+00 -0.6220733E-04
 -0.5050178E-02  0.0000000E+00 -0.5050505E-02  0.3301216E-05  0.0000000E+00 -0.6006980E-04
 -0.5050018E-02  0.0000000E+00 -0.5050505E-02  0.3556984E-05  0.0000000E+00 -0.5776140E-04
 -0.5049710E-02  0.0000000E+00 -0.5050505E-02  0.3815043E-05  0.0000000E+00 -0.5528075E-04
 -0.5049253E-02  0.0000000E+00 -0.5050505E-02  0.4075529E-05  0.0000000E+00 -0.5262643E-04
 -0.5048636E-02  0.0000000E+00 -0.5050505E-02  0.4338587E-05  0.0000000E+00 -0.4979692E-04
 -0.5047442E-02  0.0000000E+00 -0.5050505E-02  0.4604367E-05  0.0000000E+00 -0.4679063E-04
 -0.5045727E-02  0.0000000E+00 -0.5050505E-02  0.4873035E-05  0.0000000E+00 -0.4360587E-04
 -0.5043261E-02  0.0000000E+00 -0.5050505E-02  0.5144774E-05  0.0000000E+00 -0.4024084E-04
 -0.5038714E-02  0.0000000E+00 -0.5050505E-02  0.5419788E-05  0.0000000E+00 -0.3669365E-04
 -0.5032318E-02  0.0000000E+00 -0.5050505E-02  0.5698309E-05  0.0000000E+00 -0.3296225E-04
 -0.5022454E-02  0.0000000E+00 -0.5050505E-02  0.5980605E-05  0.0000000E+00 -0.2904448E-04
 -0.5012589E-02  0.0000000E+00 -0.5050505E-02  0.6266984E-05  0.0000000E+00 -0.2493797E-04
 -0.5002725E-02  0.0000000E+00 -0.5050505E-02  0.6557807E-05  0.0000000E+00 -0.2064016E-04
 -0.4992860E-02  0.0000000E+00 -0.5050505E-02  0.6853500E-05  0.0000000E+00 -0.1614827E-04
 -0.4976523E-02  0.0000000E+00 -0.5050505E-02  0.7154571E-05  0.0000000E+00 -0.1145922E-04
 -0.4956794E-02  0.0000000E+00 -0.5050505E-02  0.7461639E-05  0.0000000E+00 -0.6569586E-05
 -0.4937066E-02  0.0000000E+00 -0.5050505E-02  0.7775474E-05  0.0000000E+00 -0.1473803E-05
 -0.4906239E-02  0.0000000E+00 -0.5050505E-02  0.8095076E-05  0.0000000E+00  0.3840573E-05
 -0.4866782E-02  0.0000000E+00 -0.5050505E-02  0.8422675E-05  0.0000000E+00  0.9380182E-05
 -0.4827325E-02  0.0000000E+00 -0.5050505E-02  0.8759477E-05  0.0000000E+00  0.1514626E-04
 -0.4769372E-02  0.0000000E+00 -0.5050505E-02  0.9106885E-05  0.0000000E+00  0.2114586E-04
 -0.4690458E-02  0.0000000E+00 -0.5050505E-02  0.9466563E-05  0.0000000E+00  0.2738704E-04
 -0.4611543E-02  0.0000000E+00 -0.5050505E-02  0.9840508E-05  0.0000000E+00  0.3387907E-04
 -0.4503035E-02  0.0000000E+00 -0.5050505E-02  0.1023129E-04  0.0000000E+00  0.4063254E-04
 -0.4345206E-02  0.0000000E+00 -0.5050505E-02  0.1064259E-04  0.0000000E+00  0.4765965E-04
 -0.4187378E-02  0.0000000E+00 -0.5050505E-02  0.1108057E-04  0.0000000E+00  0.5497452E-04
 -0.3985156E-02  0.0000000E+00 -0.5050505E-02  0.1155730E-04  0.0000000E+00  0.6259411E-04
 -0.3669499E-02  0.0000000E+00 -0.5050505E-02  0.1209886E-04  0.0000000E+00  0.7054048E-04
 -0.3353842E-02  0.0000000E+00 -0.5050505E-02  0.1276348E-04  0.0000000E+00  0.7884548E-04
 -0.2978990E-02  0.0000000E+00 -0.5050505E-02  0.1368183E-04  0.0000000E+00  0.8755746E-04
 -0.2347676E-02  0.0000000E+00 -0.5050505E-02  0.1514563E-04  0.0000000E+00  0.9673327E-04
 -0.1716362E-02  0.0000000E+00 -0.5050505E-02  0.1780881E-04  0.0000000E+00  0.1063127E-03
 -0.1025842E-02  0.0000000E+00 -0.5050505E-02  0.2317283E-04  0.0000000E+00  0.1153516E-03
  0.2367855E-03  0.0000000E+00 -0.5050505E-02 -0.1530939E-04  0.0000000E+00  0.1180768E-03
  0.1499413E-02  0.0000000E+00 -0.5050505E-02 -0.1020018E-04  0.0000000E+00  0.1143853E-03
  0.2762042E-02  0.0000000E+00 -0.5050505E-02 -0.7967503E-05  0.0000000E+00  0.1098926E-03
 -0.5050505E-02  0.0000000E+00 -0.5050505E-02 -0.7080311E-05  0.0000000E+00  0.1054397E-03
 -0.5050505E-02  0.0000000E+00 -0.5050505E-02 -0.6846768E-05  0.0000000E+00  0.1010076E-03
 -0.5050505E-02  0.0000000E+00 -0.5050505E-02 -0.6917119E-05  0.0000000E+00  0.9653187E-04
 -0.5050505E-02  0.0000000E+00 -0.5050505E-02 -0.7353542E-05  0.0000000E+00  0.9193264E-04
 -0.5050505E-02  0.0000000E+00 -0.5050505E-02 -0.8532280E-05  0.0000000E+00  0.8682625E-04
 -0.5050505E-02  0.0000000E+00 -0.5050505E-02 -0.1070733E-04  0.0000000E+00  0.8030925E-04
 -0.5050505E-02  0.0000000E+00 -0.5050505E-02 -0.1192954E-04  0.0000000E+00  0.7235569E-04
 -0.5050504E-02  0.0000000E+00 -0.5050505E-02 -0.1234320E-04  0.0000000E+00  0.6388188E-04
 -0.5050501E-02  0.0000000E+00 -0.5050505E-02 -0.1228466E-04  0.0000000E+00  0.5539291E-04
 -0.5050495E-02  0.0000000E+00 -0.5050505E-02 -0.1198346E-04  0.0000000E+00  0.4711101E-04
 -0.5050482E-02  0.0000000E+00 -0.5050505E-02 -0.1156933E-04  0.0000000E+00  0.3912599E-04
 -0.5050449E-02  0.0000000E+00 -0.5050505E-02 -0.1111078E-04  0.0000000E+00  0.3146896E-04
 -0.5050376E-02  0.0000000E+00 -0.5050505E-02 -0.1064246E-04  0.0000000E+00  0.2414468E-04
 -0.5050299E-02  0.0000000E+00 -0.5050505E-02 -0.1018105E-04  0.0000000E+00  0.1714629E-04
 -0.5050178E-02  0.0000000E+00 -0.5050505E-02 -0.9733841E-05  0.0000000E+00  0.1046218E-04
 -0.5050018E-02  0.0000000E+00 -0.5050505E-02 -0.9303426E-05  0.0000000E+00  0.4079282E-05
 -0.5049710E-02  0.0000000E+00 -0.5050505E-02 -0.8890088E-05  0.0000000E+00 -0.2009675E-05
 -0.5049253E-02  0.0000000E+00 -0.5050505E-02 -0.8492273E-05  0.0000000E+00 -0.7819600E-05
 -0.5048636E-02  0.0000000E+00 -0.5050505E-02 -0.8110284E-05  0.0000000E+00 -0.1337130E-04
 -0.5047442E-02  0.0000000E+00 -0.5050505E-02 -0.7742863E-05  0.0000000E+00 -0.1867595E-04
 -0.5045727E-02  0.0000000E+00 -0.5050505E-02 -0.7388827E-05  0.0000000E+00 -0.2374243E-04
 -0.5043261E-02  0.0000000E+00 -0.5050505E-02 -0.7047104E-05  0.0000000E+00 -0.2857890E-04
 -0.5038714E-02  0.0000000E+00 -0.5050505E-02 -0.6716740E-05  0.0000000E+00 -0.3319287E-04
 -0.5032318E-02  0.0000000E+00 -0.5050505E-02 -0.6396888E-05  0.0000000E+00 -0.3759128E-04
 -0.5022454E-02  0.0000000E+00 -0.5050505E-02 -0.6086796E-05  0.0000000E+00 -0.4178059E-04
 -0.5012589E-02  0.0000000E+00 -0.5050505E-02 -0.5785792E-05  0.0000000E+00 -0.4576677E-04
 -0.5002725E-02  0.0000000E+00 -0.5050505E-02 -0.5493270E-05  0.0000000E+00 -0.4955545E-04
 -0.4992860E-02  0.0000000E+00 -0.5050505E-02 -0.5208685E-05  0.0000000E+00 -0.5315185E-04
 -0.4976523E-02  0.0000000E+00 -0.5050505E-02 -0.4931538E-05  0.0000000E+00 -0.5656089E-04
 -0.4956794E-02  0.0000000E+00 -0.5050505E-02 -0.4661377E-05  0.0000000E+00 -0.5978719E-04
 -0.4937066E-02  0.0000000E+00 -0.5050505E-02 -0.4397788E-05  0.0000000E+00 -0.6283509E-04
 -0.4906239E-02  0.0000000E+00 -0.5050505E-02 -0.4140399E-05  0.0000000E+00 -0.6570868E-04
 -0.4866782E-02  0.0000000E+00 -0.5050505E-02 -0.3888875E-05  0.0000000E+00 -0.6841185E-04
 -0.4827325E-02  0.0000000E+00 -0.5050505E-02 -0.3642929E-05  0.0000000E+00 -0.7094825E-04
 -0.4769372E-02  0.0000000E+00 -0.5050505E-02 -0.3402324E-05  0.0000000E+00 -0.7332141E-04
 -0.4690458E-02  0.0000000E+00 -0.5050505E-02 -0.3166892E-05  0.0000000E+00 -0.7553469E-04
 -0.4611543E-02  0.0000000E+00 -0.5050505E-02 -0.2936565E-05  0.0000000E+00 -0.7759138E-04
 -0.4503035E-02  0.0000000E+00 -0.5050505E-02 -0.2711414E-05  0.0000000E+00 -0.7949474E-04
 -0.4345206E-02  0.0000000E+00 -0.5050505E-02 -0.2491737E-05  0.0000000E+00 -0.8124811E-04
 -0.4187378E-02  0.0000000E+00 -0.5050505E-02 -0.2278198E-05  0.0000000E+00 -0.8285504E-04
 -0.3985156E-02  0.0000000E+00 -0.5050505E-02 -0.2072104E-05  0.0000000E+00 -0.8431957E-04
 -0.3669499E-02  0.0000000E+00 -0.5050505E-02 -0.1875924E-05  0.0000000E+00 -0.8564649E-04
 -0.3353842E-02  0.0000000E+00 -0.5050505E-02 -0.1694351E-05  0.0000000E+00 -0.8684200E-04
 -0.2978990E-02  0.0000000E+00 -0.5050505E-02 -0.1536590E-05  0.0000000E+00 -0.8791434E-04
 -0.2347676E-02  0.0000000E+00 -0.5050505E-02 -0.1421556E-05  0.0000000E+00 -0.8887417E-04
 -0.1716362E-02  0.0000000E+00 -0.5050505E-02 -0.1390410E-05  0.0000000E+00 -0.8973144E-04
 -0.1025842E-02  0.0000000E+00 -0.5050505E-02 -0.1538603E-05  0.0000000E+00 -0.9047406E-04
  0.2367855E-03  0.0000000E+00 -0.5050505E-02 -0.2102088E-05  0.0000000E+00 -0.9095991E-04
  0.1499413E-02  0.0000000E+00 -0.5050505E-02 -0.3698947E-05  0.0000000E+00 -0.9040930E-04
  0.5287294E-02  0.0000000E+00 -0.5050505E-02 -0.8022770E-05  0.0000000E+00 -0.8504722E-04
 -0.5050505E-02  0.0000000E+00 -0.5050505E-02  0.1994838E-06  0.0000000E+00 -0.7453282E-04
 -0.5050505E-02  0.0000000E+00 -0.5050505E-02  0.5986002E-06  0.0000000E+00 -0.7437058E-04
 -0.5050505E-02  0.0000000E+00 -0.5050505E-02  0.9981660E-06  0.0000000E+00 -0.7404599E-04
 -0.5050505E-02  0.0000000E+00 -0.5050505E-02  0.1398482E-05  0.0000000E+00 -0.7355884E-04
 -0.5050505E-02  0.0000000E+00 -0.5050505E-02  0.1799848E-05  0.0000000E+00 -0.7290880E-04
 -0.5050505E-02  0.0000000E+00 -0.5050505E-02  0.2202558E-05  0.0000000E+00 -0.7209540E-04
 -0.5050504E-02  0.0000000E+00 -0.5050505E-02  0.2606900E-05  0.0000000E+00 -0.7111808E-04
 -0.5050501E-02  0.0000000E+00 -0.5050505E-02  0.3013154E-05  0.0000000E+00 -0.6997618E-04
 -0.5050495E-02  0.0000000E+00 -0.5050505E-02  0.3421592E-05  0.0000000E+00 -0.6866892E-04
 -0.5050482E-02  0.0000000E+00 -0.5050505E-02  0.3832474E-05  0.0000000E+00 -0.6719543E-04
 -0.5050449E-02  0.0000000E+00 -0.5050505E-02  0.4246052E-05  0.0000000E+00 -0.6555473E-04
 -0.5050376E-02  0.0000000E+00 -0.5050505E-02  0.4662568E-05  0.0000000E+00 -0.6374577E-04
 -0.5050299E-02  0.0000000E+00 -0.5050505E-02  0.5082255E-05  0.0000000E+00 -0.6176740E-04
 -0.5050178E-02  0.0000000E+00 -0.5050505E-02  0.5505340E-05  0.0000000E+00 -0.5961840E-04
 -0.5050018E-02  0.0000000E+00 -0.5050505E-02  0.5932049E-05  0.0000000E+00 -0.5729745E-04
 -0.5049710E-02  0.0000000E+00 -0.5050505E-02  0.6362604E-05  0.0000000E+00 -0.5480317E-04
 -0.5049253E-02  0.0000000E+00 -0.5050505E-02  0.6797235E-05  0.0000000E+00 -0.5213411E-04
 -0.5048636E-02  0.0000000E+00 -0.5050505E-02  0.7236178E-05  0.0000000E+00 -0.4928871E-04
 -0.5047442E-02  0.0000000E+00 -0.5050505E-02  0.7679687E-05  0.0000000E+00 -0.4626536E-04
 -0.5045727E-02  0.0000000E+00 -0.5050505E-02  0.8128036E-05  0.0000000E+00 -0.4306233E-04
 -0.5043261E-02  0.0000000E+00 -0.5050505E-02  0.8581529E-05  0.0000000E+00 -0.3967782E-04
 -0.5038714E-02  0.0000000E+00 -0.5050505E-02  0.9040503E-05  0.0000000E+00 -0.3610990E-04
 -0.5032318E-02  0.0000000E+00 -0.5050505E-02  0.9505346E-05  0.0000000E+00 -0.3235651E-04
 -0.5022454E-02  0.0000000E+00 -0.5050505E-02  0.9976499E-05  0.0000000E+00 -0.2841546E-04
 -0.5012589E-02  0.0000000E+00 -0.5050505E-02  0.1045447E-04  0.0000000E+00 -0.2428438E-04
 -0.5002725E-02  0.0000000E+00 -0.5050505E-02  0.1093986E-04  0.0000000E+00 -0.1996072E-04
 -0.4992860E-02  0.0000000E+00 -0.5050505E-02  0.1143336E-04  0.0000000E+00 -0.1544168E-04
 -0.4976523E-02  0.0000000E+00 -0.5050505E-02  0.1193579E-04  0.0000000E+00 -0.1072422E-04
 -0.4956794E-02  0.0000000E+00 -0.5050505E-02  0.1244816E-04  0.0000000E+00 -0.5804988E-05
 -0.4937066E-02  0.0000000E+00 -0.5050505E-02  0.1297171E-04  0.0000000E+00 -0.6772141E-06
 -0.4906239E-02  0.0000000E+00 -0.5050505E-02  0.1350471E-04  0.0000000E+00  0.4670659E-05
 -0.4866782E-02  0.0000000E+00 -0.5050505E-02  0.1405099E-04  0.0000000E+00  0.1024390E-04
 -0.4827325E-02  0.0000000E+00 -0.5050505E-02  0.1461249E-04  0.0000000E+00  0.1604444E-04
 -0.4769372E-02  0.0000000E+00 -0.5050505E-02  0.1519150E-04  0.0000000E+00  0.2207918E-04
 -0.4690458E-02  0.0000000E+00 -0.5050505E-02  0.1579070E-04  0.0000000E+00  0.2835597E-04
 -0.4611543E-02  0.0000000E+00 -0.5050505E-02  0.1641319E-04  0.0000000E+00  0.3488372E-04
 -0.4503035E-02  0.0000000E+00 -0.5050505E-02  0.1706265E-04  0.0000000E+00  0.4167230E-04
 -0.4345206E-02  0.0000000E+00 -0.5050505E-02  0.1774362E-04  0.0000000E+00  0.4873216E-04
 -0.4187378E-02  0.0000000E+00 -0.5050505E-02  0.1846247E-04  0.0000000E+00  0.5607297E-04
 -0.3985156E-02  0.0000000E+00 -0.5050505E-02  0.1923021E-04  0.0000000E+00  0.6370092E-04
 -0.3669499E-02  0.0000000E+00 -0.5050505E-02  0.2006963E-04  0.0000000E+00  0.7161294E-04
 -0.3353842E-02  0.0000000E+00 -0.5050505E-02  0.2103175E-04  0.0000000E+00  0.7978581E-04
 -0.2978990E-02  0.0000000E+00 -0.5050505E-02  0.2223042E-04  0.0000000E+00  0.8815605E-04
 -0.2347676E-02  0.0000000E+00 -0.5050505E-02  0.2390523E-04  0.0000000E+00  0.9658266E-04
 -0.1716362E-02  0.0000000E+00 -0.5050505E-02  0.2650439E-04  0.0000000E+00  0.1047819E-03
 -0.1025842E-02  0.0000000E+00 -0.5050505E-02  0.3067445E-04  0.0000000E+00  0.1122814E-03
  0.2367855E-03  0.0000000E+00 -0.5050505E-02 -0.1724935E-04  0.0000000E+00  0.1152144E-03
  0.1499413E-02  0.0000000E+00 -0.5050505E-02 -0.1359155E-04  0.0000000E+00  0.1134150E-03
  0.2762042E-02  0.0000000E+00 -0.5050505E-02 -0.1174554E-04  0.0000000E+00  0.1105724E-03
 -0.5050505E-02  0.0000000E+00 -0.5050505E-02 -0.1107612E-04  0.0000000E+00  0.1070880E-03
 -0.5050505E-02  0.0000000E+00 -0.5050505E-02 -0.1108140E-04  0.0000000E+00  0.1031265E-03
 -0.5050505E-02  0.0000000E+00 -0.5050505E-02 -0.1113889E-04  0.0000000E+00  0.9898435E-04
 -0.5050505E-02  0.0000000E+00 -0.5050505E-02 -0.1147247E-04  0.0000000E+00  0.9508639E-04
 -0.5050505E-02  0.0000000E+00 -0.5050505E-02 -0.1319758E-04  0.0000000E+00  0.9124742E-04
 -0.5050505E-02  0.0000000E+00 -0.5050505E-02 -0.1890208E-04  0.0000000E+00  0.8469598E-04
 -0.5050505E-02  0.0000000E+00 -0.5050505E-02 -0.2081780E-04  0.0000000E+00  0.7531828E-04
 -0.5050504E-02  0.0000000E+00 -0.5050505E-02 -0.2115053E-04  0.0000000E+00  0.6585827E-04
 -0.5050501E-02  0.0000000E+00 -0.5050505E-02 -0.2079928E-04  0.0000000E+00  0.5680881E-04
 -0.5050495E-02  0.0000000E+00 -0.5050505E-02 -0.2014937E-04  0.0000000E+00  0.4821727E-04
 -0.5050482E-02  0.0000000E+00 -0.5050505E-02 -0.1937823E-04  0.0000000E+00  0.4005716E-04
 -0.5050449E-02  0.0000000E+00 -0.5050505E-02 -0.1857085E-04  0.0000000E+00  0.3229577E-04
 -0.5050376E-02  0.0000000E+00 -0.5050505E-02 -0.1776769E-04  0.0000000E+00  0.2490420E-04
 -0.5050299E-02  0.0000000E+00 -0.5050505E-02 -0.1698691E-04  0.0000000E+00  0.1785797E-04
 -0.5050178E-02  0.0000000E+00 -0.5050505E-02 -0.1623547E-04  0.0000000E+00  0.1113633E-04
 -0.5050018E-02  0.0000000E+00 -0.5050505E-02 -0.1551493E-04  0.0000000E+00  0.4721526E-05
 -0.5049710E-02  0.0000000E+00 -0.5050505E-02 -0.1482429E-04  0.0000000E+00 -0.1396610E-05
 -0.5049253E-02  0.0000000E+00 -0.5050505E-02 -0.1416014E-04  0.0000000E+00 -0.7233143E-05
 -0.5048636E-02  0.0000000E+00 -0.5050505E-02 -0.1352268E-04  0.0000000E+00 -0.1280888E-04
 -0.5047442E-02  0.0000000E+00 -0.5050505E-02 -0.1290964E-04  0.0000000E+00 -0.1813622E-04
 -0.5045727E-02  0.0000000E+00 -0.5050505E-02 -0.1231897E-04  0.0000000E+00 -0.2322412E-04
 -0.5043261E-02  0.0000000E+00 -0.5050505E-02 -0.1174886E-04  0.0000000E+00 -0.2808079E-04
 -0.5038714E-02  0.0000000E+00 -0.5050505E-02 -0.1119771E-04  0.0000000E+00 -0.3271376E-04
 -0.5032318E-02  0.0000000E+00 -0.5050505E-02 -0.1066411E-04  0.0000000E+00 -0.3713000E-04
 -0.5022454E-02  0.0000000E+00 -0.5050505E-02 -0.1014680E-04  0.0000000E+00 -0.4133598E-04
 -0.5012589E-02  0.0000000E+00 -0.5050505E-02 -0.9644677E-05  0.0000000E+00 -0.4533775E-04
 -0.5002725E-02  0.0000000E+00 -0.5050505E-02 -0.9156720E-05  0.0000000E+00 -0.4914093E-04
 -0.4992860E-02  0.0000000E+00 -0.5050505E-02 -0.8682023E-05  0.0000000E+00 -0.5275082E-04
 -0.4976523E-02  0.0000000E+00 -0.5050505E-02 -0.8219754E-05  0.0000000E+00 -0.5617235E-04
 -0.4956794E-02  0.0000000E+00 -0.5050505E-02 -0.7769154E-05  0.0000000E+00 -0.5941019E-04
 -0.4937066E-02  0.0000000E+00 -0.5050505E-02 -0.7329531E-05  0.0000000E+00 -0.6246871E-04
 -0.4906239E-02  0.0000000E+00 -0.5050505E-02 -0.6900255E-05  0.0000000E+00 -0.6535204E-04
 -0.4866782E-02  0.0000000E+00 -0.5050505E-02 -0.6480759E-05  0.0000000E+00 -0.6806405E-04
 -0.4827325E-02  0.0000000E+00 -0.5050505E-02 -0.6070547E-05  0.0000000E+00 -0.7060842E-04
 -0.4769372E-02  0.0000000E+00 -0.5050505E-02 -0.5669202E-05  0.0000000E+00 -0.7298864E-04
 -0.4690458E-02  0.0000000E+00 -0.5050505E-02 -0.5276412E-05  0.0000000E+00 -0.7520803E-04
 -0.4611543E-02  0.0000000E+00 -0.5050505E-02 -0.4892002E-05  0.0000000E+00 -0.7726976E-04
 -0.4503035E-02  0.0000000E+00 -0.5050505E-02 -0.4515996E-05  0.0000000E+00 -0.7917691E-04
 -0.4345206E-02  0.0000000E+00 -0.5050505E-02 -0.4148719E-05  0.0000000E+00 -0.8093248E-04
 -0.4187378E-02  0.0000000E+00 -0.5050505E-02 -0.3790971E-05  0.0000000E+00 -0.8253943E-04
 -0.3985156E-02  0.0000000E+00 -0.5050505E-02 -0.3444326E-05  0.0000000E+00 -0.8400073E-04
 -0.3669499E-02  0.0000000E+00 -0.5050505E-02 -0.3111668E-05  0.0000000E+00 -0.8531924E-04
 -0.3353842E-02  0.0000000E+00 -0.5050505E-02 -0.2798165E-05  0.0000000E+00 -0.8649740E-04
 -0.2978990E-02  0.0000000E+00 -0.5050505E-02 -0.2513038E-05  0.0000000E+00 -0.8753616E-04
 -0.2347676E-02  0.0000000E+00 -0.5050505E-02 -0.2272737E-05  0.0000000E+00 -0.8843167E-04
 -0.1716362E-02  0.0000000E+00 -0.5050505E-02 -0.2106165E-05  0.0000000E+00 -0.8916609E-04
 -0.1025842E-02  0.0000000E+00 -0.5050505E-02 -0.2060765E-05  0.0000000E+00 -0.8968313E-04
  0.2367855E-03  0.0000000E+00 -0.5050505E-02 -0.2196067E-05  0.0000000E+00 -0.8983066E-04
  0.1499413E-02  0.0000000E+00 -0.5050505E-02 -0.2489686E-05  0.0000000E+00 -0.8927124E-04
  0.5287294E-02  0.0000000E+00 -0.5050505E-02 -0.2294612E-05  0.0000000E+00 -0.8766295E-04
 -0.5050505E-02  0.0000000E+00 -0.5050505E-02  0.2795910E-06  0.0000000E+00 -0.7397694E-04
 -0.5050505E-02  0.0000000E+00 -0.5050505E-02  0.8389863E-06  0.0000000E+00 -0.7381351E-04
 -0.5050505E-02  0.0000000E+00 -0.5050505E-02  0.1399024E-05  0.0000000E+00 -0.7348652E-04
 -0.5050505E-02  0.0000000E+00 -0.5050505E-02  0.1960133E-05  0.0000000E+00 -0.7299577E-04
 -0.5050505E-02  0.0000000E+00 -0.5050505E-02  0.2522739E-05  0.0000000E+00 -0.7234090E-04
 -0.5050505E-02  0.0000000E+00 -0.5050505E-02  0.3087261E-05  0.0000000E+00 -0.7152143E-04
 -0.5050504E-02  0.0000000E+00 -0.5050505E-02  0.3654107E-05  0.0000000E+00 -0.7053678E-04
 -0.5050501E-02  0.0000000E+00 -0.5050505E-02  0.4223675E-05  0.0000000E+00 -0.6938625E-04
 -0.5050495E-02  0.0000000E+00 -0.5050505E-02  0.4796348E-05  0.0000000E+00 -0.6806903E-04
 -0.5050482E-02  0.0000000E+00 -0.5050505E-02  0.5372496E-05  0.0000000E+00 -0.6658421E-04
 -0.5050449E-02  0.0000000E+00 -0.5050505E-02  0.5952475E-05  0.0000000E+00 -0.6493077E-04
 -0.5050376E-02  0.0000000E+00 -0.5050505E-02  0.6536624E-05  0.0000000E+00 -0.6310762E-04
 -0.5050299E-02  0.0000000E+00 -0.5050505E-02  0.7125274E-05  0.0000000E+00 -0.6111355E-04
 -0.5050178E-02  0.0000000E+00 -0.5050505E-02  0.7718744E-05  0.0000000E+00 -0.5894730E-04
 -0.5050018E-02  0.0000000E+00 -0.5050505E-02  0.8317347E-05  0.0000000E+00 -0.5660751E-04
 -0.5049710E-02  0.0000000E+00 -0.5050505E-02  0.8921397E-05  0.0000000E+00 -0.5409275E-04
 -0.5049253E-02  0.0000000E+00 -0.5050505E-02  0.9531213E-05  0.0000000E+00 -0.5140152E-04
 -0.5048636E-02  0.0000000E+00 -0.5050505E-02  0.1014713E-04  0.0000000E+00 -0.4853221E-04
 -0.5047442E-02  0.0000000E+00 -0.5050505E-02  0.1076949E-04  0.0000000E+00 -0.4548318E-04
 -0.5045727E-02  0.0000000E+00 -0.5050505E-02  0.1139868E-04  0.0000000E+00 -0.4225265E-04
 -0.5043261E-02  0.0000000E+00 -0.5050505E-02  0.1203513E-04  0.0000000E+00 -0.3883878E-04
 -0.5038714E-02  0.0000000E+00 -0.5050505E-02  0.1267931E-04  0.0000000E+00 -0.3523961E-04
 -0.5032318E-02  0.0000000E+00 -0.5050505E-02  0.1333174E-04  0.0000000E+00 -0.3145305E-04
 -0.5022454E-02  0.0000000E+00 -0.5050505E-02  0.1399306E-04  0.0000000E+00 -0.2747687E-04
 -0.5012589E-02  0.0000000E+00 -0.5050505E-02  0.1466395E-04  0.0000000E+00 -0.2330869E-04
 -0.5002725E-02  0.0000000E+00 -0.5050505E-02  0.1534525E-04  0.0000000E+00 -0.1894593E-04
 -0.4992860E-02  0.0000000E+00 -0.5050505E-02  0.1603790E-04  0.0000000E+00 -0.1438581E-04
 -0.4976523E-02  0.0000000E+00 -0.5050505E-02  0.1674302E-04  0.0000000E+00 -0.9625302E-05
 -0.4956794E-02  0.0000000E+00 -0.5050505E-02  0.1746193E-04  0.0000000E+00 -0.4661126E-05
 -0.4937066E-02  0.0000000E+00 -0.5050505E-02  0.1819606E-04  0.0000000E+00  0.5152854E-06