title = "dataset feddes"
variables = "x", "y", "z", "vx", "vy", "vz"
zone t = "velocities, solution time =  2.500E+01 days        " i =   99, j =   99, k =    1,  f=point
 -0.5050505E-02  0.0000000E+00 -0.5050505E-02  0.1638726E-10  0.0000000E+00 -0.3599697E-03
 -0.5050505E-02  0.0000000E+00 -0.5050505E-02  0.4881314E-10  0.0000000E+00 -0.3599696E-03
 -0.5050505E-02  0.0000000E+00 -0.5050505E-02  0.8098546E-10  0.0000000E+00 -0.3599695E-03
 -0.5050505E-02  0.0000000E+00 -0.5050505E-02  0.1128486E-09  0.0000000E+00 -0.3599692E-03
 -0.5050505E-02  0.0000000E+00 -0.5050505E-02  0.1442431E-09  0.0000000E+00 -0.3599690E-03
 -0.5050505E-02  0.0000000E+00 -0.5050505E-02  0.1750240E-09  0.0000000E+00 -0.3599686E-03
 -0.5050504E-02  0.0000000E+00 -0.5050505E-02  0.2050561E-09  0.0000000E+00 -0.3599683E-03
 -0.5050501E-02  0.0000000E+00 -0.5050505E-02  0.2342025E-09  0.0000000E+00 -0.3599678E-03
 -0.5050495E-02  0.0000000E+00 -0.5050505E-02  0.2623331E-09  0.0000000E+00 -0.3599673E-03
 -0.5050482E-02  0.0000000E+00 -0.5050505E-02  0.2893144E-09  0.0000000E+00 -0.3599667E-03
 -0.5050449E-02  0.0000000E+00 -0.5050505E-02  0.3150176E-09  0.0000000E+00 -0.3599661E-03
 -0.5050376E-02  0.0000000E+00 -0.5050505E-02  0.3393142E-09  0.0000000E+00 -0.3599654E-03
 -0.5050299E-02  0.0000000E+00 -0.5050505E-02  0.3620770E-09  0.0000000E+00 -0.3599647E-03
 -0.5050178E-02  0.0000000E+00 -0.5050505E-02  0.3831824E-09  0.0000000E+00 -0.3599639E-03
 -0.5050018E-02  0.0000000E+00 -0.5050505E-02  0.4025077E-09  0.0000000E+00 -0.3599631E-03
 -0.5049710E-02  0.0000000E+00 -0.5050505E-02  0.4199339E-09  0.0000000E+00 -0.3599622E-03
 -0.5049253E-02  0.0000000E+00 -0.5050505E-02  0.4353452E-09  0.0000000E+00 -0.3599613E-03
 -0.5048636E-02  0.0000000E+00 -0.5050505E-02  0.4486288E-09  0.0000000E+00 -0.3599604E-03
 -0.5047442E-02  0.0000000E+00 -0.5050505E-02  0.4596763E-09  0.0000000E+00 -0.3599594E-03
 -0.5045727E-02  0.0000000E+00 -0.5050505E-02  0.4683839E-09  0.0000000E+00 -0.3599585E-03
 -0.5043261E-02  0.0000000E+00 -0.5050505E-02  0.4746522E-09  0.0000000E+00 -0.3599575E-03
 -0.5038714E-02  0.0000000E+00 -0.5050505E-02  0.4783874E-09  0.0000000E+00 -0.3599565E-03
 -0.5032318E-02  0.0000000E+00 -0.5050505E-02  0.4795015E-09  0.0000000E+00 -0.3599555E-03
 -0.5022454E-02  0.0000000E+00 -0.5050505E-02  0.4779125E-09  0.0000000E+00 -0.3599545E-03
 -0.5012589E-02  0.0000000E+00 -0.5050505E-02  0.4735452E-09  0.0000000E+00 -0.3599535E-03
 -0.5002725E-02  0.0000000E+00 -0.5050505E-02  0.4663312E-09  0.0000000E+00 -0.3599525E-03
 -0.4992860E-02  0.0000000E+00 -0.5050505E-02  0.4562096E-09  0.0000000E+00 -0.3599516E-03
 -0.4976523E-02  0.0000000E+00 -0.5050505E-02  0.4431271E-09  0.0000000E+00 -0.3599506E-03
 -0.4956794E-02  0.0000000E+00 -0.5050505E-02  0.4270384E-09  0.0000000E+00 -0.3599497E-03
 -0.4937066E-02  0.0000000E+00 -0.5050505E-02  0.4079062E-09  0.0000000E+00 -0.3599488E-03
 -0.4906239E-02  0.0000000E+00 -0.5050505E-02  0.3857016E-09  0.0000000E+00 -0.3599480E-03
 -0.4866782E-02  0.0000000E+00 -0.5050505E-02  0.3604040E-09  0.0000000E+00 -0.3599472E-03
 -0.4827325E-02  0.0000000E+00 -0.5050505E-02  0.3320010E-09  0.0000000E+00 -0.3599465E-03
 -0.4769372E-02  0.0000000E+00 -0.5050505E-02  0.3004885E-09  0.0000000E+00 -0.3599459E-03
 -0.4690458E-02  0.0000000E+00 -0.5050505E-02  0.2658705E-09  0.0000000E+00 -0.3599453E-03
 -0.4611543E-02  0.0000000E+00 -0.5050505E-02  0.2281583E-09  0.0000000E+00 -0.3599448E-03
 -0.4503035E-02  0.0000000E+00 -0.5050505E-02  0.1873708E-09  0.0000000E+00 -0.3599443E-03
 -0.4345206E-02  0.0000000E+00 -0.5050505E-02  0.1435337E-09  0.0000000E+00 -0.3599440E-03
 -0.4187378E-02  0.0000000E+00 -0.5050505E-02  0.9667629E-10  0.0000000E+00 -0.3599437E-03
 -0.3985156E-02  0.0000000E+00 -0.5050505E-02  0.4678912E-10  0.0000000E+00 -0.3599436E-03
 -0.3669499E-02  0.0000000E+00 -0.5050505E-02 -0.6047075E-11  0.0000000E+00 -0.3599435E-03
 -0.3353842E-02  0.0000000E+00 -0.5050505E-02 -0.6176669E-10  0.0000000E+00 -0.3599436E-03
 -0.2978990E-02  0.0000000E+00 -0.5050505E-02 -0.1203817E-09  0.0000000E+00 -0.3599438E-03
 -0.2347676E-02  0.0000000E+00 -0.5050505E-02 -0.1818569E-09  0.0000000E+00 -0.3599441E-03
 -0.1716362E-02  0.0000000E+00 -0.5050505E-02 -0.2461568E-09  0.0000000E+00 -0.3599446E-03
 -0.1025842E-02  0.0000000E+00 -0.5050505E-02 -0.3132604E-09  0.0000000E+00 -0.3599451E-03
  0.2367855E-03  0.0000000E+00 -0.5050505E-02 -0.3831602E-09  0.0000000E+00 -0.3599459E-03
  0.1499413E-02  0.0000000E+00 -0.5050505E-02 -0.4558596E-09  0.0000000E+00 -0.3599467E-03
  0.2762042E-02  0.0000000E+00 -0.5050505E-02 -0.5313814E-09  0.0000000E+00 -0.3599478E-03
 -0.5050505E-02  0.0000000E+00 -0.5050505E-02 -0.6097779E-09  0.0000000E+00 -0.3599490E-03
 -0.5050505E-02  0.0000000E+00 -0.5050505E-02 -0.6911255E-09  0.0000000E+00 -0.3599503E-03
 -0.5050505E-02  0.0000000E+00 -0.5050505E-02 -0.7755266E-09  0.0000000E+00 -0.3599518E-03
 -0.5050505E-02  0.0000000E+00 -0.5050505E-02 -0.8631306E-09  0.0000000E+00 -0.3599536E-03
 -0.5050505E-02  0.0000000E+00 -0.5050505E-02 -0.9541367E-09  0.0000000E+00 -0.3599554E-03
 -0.5050505E-02  0.0000000E+00 -0.5050505E-02 -0.1048792E-08  0.0000000E+00 -0.3599575E-03
 -0.5050505E-02  0.0000000E+00 -0.5050505E-02 -0.1147407E-08  0.0000000E+00 -0.3599598E-03
 -0.5050504E-02  0.0000000E+00 -0.5050505E-02 -0.1250376E-08  0.0000000E+00 -0.3599623E-03
 -0.5050501E-02  0.0000000E+00 -0.5050505E-02 -0.1358180E-08  0.0000000E+00 -0.3599651E-03
 -0.5050495E-02  0.0000000E+00 -0.5050505E-02 -0.1471404E-08  0.0000000E+00 -0.3599680E-03
 -0.5050482E-02  0.0000000E+00 -0.5050505E-02 -0.1590756E-08  0.0000000E+00 -0.3599712E-03
 -0.5050449E-02  0.0000000E+00 -0.5050505E-02 -0.1717090E-08  0.0000000E+00 -0.3599746E-03
 -0.5050376E-02  0.0000000E+00 -0.5050505E-02 -0.1851438E-08  0.0000000E+00 -0.3599784E-03
 -0.5050299E-02  0.0000000E+00 -0.5050505E-02 -0.1995033E-08  0.0000000E+00 -0.3599824E-03
 -0.5050178E-02  0.0000000E+00 -0.5050505E-02 -0.2149357E-08  0.0000000E+00 -0.3599867E-03
 -0.5050018E-02  0.0000000E+00 -0.5050505E-02 -0.2316184E-08  0.0000000E+00 -0.3599914E-03
 -0.5049710E-02  0.0000000E+00 -0.5050505E-02 -0.2497651E-08  0.0000000E+00 -0.3599964E-03
 -0.5049253E-02  0.0000000E+00 -0.5050505E-02 -0.2696323E-08  0.0000000E+00 -0.3600018E-03
 -0.5048636E-02  0.0000000E+00 -0.5050505E-02 -0.2915298E-08  0.0000000E+00 -0.3600076E-03
 -0.5047442E-02  0.0000000E+00 -0.5050505E-02 -0.3158324E-08  0.0000000E+00 -0.3600140E-03
 -0.5045727E-02  0.0000000E+00 -0.5050505E-02 -0.3429961E-08  0.0000000E+00 -0.3600209E-03
 -0.5043261E-02  0.0000000E+00 -0.5050505E-02 -0.3735776E-08  0.0000000E+00 -0.3600283E-03
 -0.5038714E-02  0.0000000E+00 -0.5050505E-02 -0.4082611E-08  0.0000000E+00 -0.3600365E-03
 -0.5032318E-02  0.0000000E+00 -0.5050505E-02 -0.4478924E-08  0.0000000E+00 -0.3600454E-03
 -0.5022454E-02  0.0000000E+00 -0.5050505E-02 -0.4935244E-08  0.0000000E+00 -0.3600552E-03
 -0.5012589E-02  0.0000000E+00 -0.5050505E-02 -0.5464784E-08  0.0000000E+00 -0.3600661E-03
 -0.5002725E-02  0.0000000E+00 -0.5050505E-02 -0.6084264E-08  0.0000000E+00 -0.3600781E-03
 -0.4992860E-02  0.0000000E+00 -0.5050505E-02 -0.6815045E-08  0.0000000E+00 -0.3600916E-03
 -0.4976523E-02  0.0000000E+00 -0.5050505E-02 -0.7684697E-08  0.0000000E+00 -0.3601067E-03
 -0.4956794E-02  0.0000000E+00 -0.5050505E-02 -0.8729213E-08  0.0000000E+00 -0.3601238E-03
 -0.4937066E-02  0.0000000E+00 -0.5050505E-02 -0.9996168E-08  0.0000000E+00 -0.3601434E-03
 -0.4906239E-02  0.0000000E+00 -0.5050505E-02 -0.1154932E-07  0.0000000E+00 -0.3601658E-03
 -0.4866782E-02  0.0000000E+00 -0.5050505E-02 -0.1347539E-07  0.0000000E+00 -0.3601919E-03
 -0.4827325E-02  0.0000000E+00 -0.5050505E-02 -0.1589441E-07  0.0000000E+00 -0.3602226E-03
 -0.4769372E-02  0.0000000E+00 -0.5050505E-02 -0.1897556E-07  0.0000000E+00 -0.3602589E-03
 -0.4690458E-02  0.0000000E+00 -0.5050505E-02 -0.2296243E-07  0.0000000E+00 -0.3603027E-03
 -0.4611543E-02  0.0000000E+00 -0.5050505E-02 -0.2821419E-07  0.0000000E+00 -0.3603560E-03
 -0.4503035E-02  0.0000000E+00 -0.5050505E-02 -0.3527488E-07  0.0000000E+00 -0.3604223E-03
 -0.4345206E-02  0.0000000E+00 -0.5050505E-02 -0.4499467E-07  0.0000000E+00 -0.3605060E-03
 -0.4187378E-02  0.0000000E+00 -0.5050505E-02 -0.5875062E-07  0.0000000E+00 -0.3606142E-03
 -0.3985156E-02  0.0000000E+00 -0.5050505E-02 -0.7886921E-07  0.0000000E+00 -0.3607578E-03
 -0.3669499E-02  0.0000000E+00 -0.5050505E-02 -0.1094811E-06  0.0000000E+00 -0.3609542E-03
 -0.3353842E-02  0.0000000E+00 -0.5050505E-02 -0.1583678E-06  0.0000000E+00 -0.3612336E-03
 -0.2978990E-02  0.0000000E+00 -0.5050505E-02 -0.2412607E-06  0.0000000E+00 -0.3616505E-03
 -0.2347676E-02  0.0000000E+00 -0.5050505E-02 -0.3927397E-06  0.0000000E+00 -0.3623119E-03
 -0.1716362E-02  0.0000000E+00 -0.5050505E-02 -0.6965394E-06  0.0000000E+00 -0.3634483E-03
 -0.1025842E-02  0.0000000E+00 -0.5050505E-02 -0.1378330E-05  0.0000000E+00 -0.3656132E-03
  0.2367855E-03  0.0000000E+00 -0.5050505E-02 -0.3117777E-05  0.0000000E+00 -0.3703058E-03
  0.1499413E-02  0.0000000E+00 -0.5050505E-02 -0.8192867E-05  0.0000000E+00 -0.3821178E-03
  0.5287294E-02  0.0000000E+00 -0.5050505E-02 -0.1345003E-03  0.0000000E+00 -0.3048014E-03
 -0.5050505E-02  0.0000000E+00 -0.5050505E-02  0.4927833E-10  0.0000000E+00 -0.3597458E-03
 -0.5050505E-02  0.0000000E+00 -0.5050505E-02  0.1469650E-09  0.0000000E+00 -0.3597457E-03
 -0.5050505E-02  0.0000000E+00 -0.5050505E-02  0.2438951E-09  0.0000000E+00 -0.3597456E-03
 -0.5050505E-02  0.0000000E+00 -0.5050505E-02  0.3398745E-09  0.0000000E+00 -0.3597453E-03
 -0.5050505E-02  0.0000000E+00 -0.5050505E-02  0.4344349E-09  0.0000000E+00 -0.3597451E-03
 -0.5050505E-02  0.0000000E+00 -0.5050505E-02  0.5271469E-09  0.0000000E+00 -0.3597447E-03
 -0.5050504E-02  0.0000000E+00 -0.5050505E-02  0.6176077E-09  0.0000000E+00 -0.3597443E-03
 -0.5050501E-02  0.0000000E+00 -0.5050505E-02  0.7054054E-09  0.0000000E+00 -0.3597439E-03
 -0.5050495E-02  0.0000000E+00 -0.5050505E-02  0.7901490E-09  0.0000000E+00 -0.3597433E-03
 -0.5050482E-02  0.0000000E+00 -0.5050505E-02  0.8714380E-09  0.0000000E+00 -0.3597428E-03
 -0.5050449E-02  0.0000000E+00 -0.5050505E-02  0.9488839E-09  0.0000000E+00 -0.3597421E-03
 -0.5050376E-02  0.0000000E+00 -0.5050505E-02  0.1022101E-08  0.0000000E+00 -0.3597414E-03
 -0.5050299E-02  0.0000000E+00 -0.5050505E-02  0.1090707E-08  0.0000000E+00 -0.3597407E-03
 -0.5050178E-02  0.0000000E+00 -0.5050505E-02  0.1154329E-08  0.0000000E+00 -0.3597399E-03
 -0.5050018E-02  0.0000000E+00 -0.5050505E-02  0.1212599E-08  0.0000000E+00 -0.3597391E-03
 -0.5049710E-02  0.0000000E+00 -0.5050505E-02  0.1265158E-08  0.0000000E+00 -0.3597382E-03
 -0.5049253E-02  0.0000000E+00 -0.5050505E-02  0.1311659E-08  0.0000000E+00 -0.3597373E-03
 -0.5048636E-02  0.0000000E+00 -0.5050505E-02  0.1351761E-08  0.0000000E+00 -0.3597364E-03
 -0.5047442E-02  0.0000000E+00 -0.5050505E-02  0.1385139E-08  0.0000000E+00 -0.3597354E-03
 -0.5045727E-02  0.0000000E+00 -0.5050505E-02  0.1411480E-08  0.0000000E+00 -0.3597344E-03
 -0.5043261E-02  0.0000000E+00 -0.5050505E-02  0.1430485E-08  0.0000000E+00 -0.3597334E-03
 -0.5038714E-02  0.0000000E+00 -0.5050505E-02  0.1441872E-08  0.0000000E+00 -0.3597324E-03
 -0.5032318E-02  0.0000000E+00 -0.5050505E-02  0.1445376E-08  0.0000000E+00 -0.3597314E-03
 -0.5022454E-02  0.0000000E+00 -0.5050505E-02  0.1440751E-08  0.0000000E+00 -0.3597304E-03
 -0.5012589E-02  0.0000000E+00 -0.5050505E-02  0.1427769E-08  0.0000000E+00 -0.3597294E-03
 -0.5002725E-02  0.0000000E+00 -0.5050505E-02  0.1406226E-08  0.0000000E+00 -0.3597284E-03
 -0.4992860E-02  0.0000000E+00 -0.5050505E-02  0.1375938E-08  0.0000000E+00 -0.3597274E-03
 -0.4976523E-02  0.0000000E+00 -0.5050505E-02  0.1336745E-08  0.0000000E+00 -0.3597264E-03
 -0.4956794E-02  0.0000000E+00 -0.5050505E-02  0.1288510E-08  0.0000000E+00 -0.3597255E-03
 -0.4937066E-02  0.0000000E+00 -0.5050505E-02  0.1231122E-08  0.0000000E+00 -0.3597246E-03
 -0.4906239E-02  0.0000000E+00 -0.5050505E-02  0.1164494E-08  0.0000000E+00 -0.3597238E-03
 -0.4866782E-02  0.0000000E+00 -0.5050505E-02  0.1088564E-08  0.0000000E+00 -0.3597230E-03
 -0.4827325E-02  0.0000000E+00 -0.5050505E-02  0.1003295E-08  0.0000000E+00 -0.3597223E-03
 -0.4769372E-02  0.0000000E+00 -0.5050505E-02  0.9086769E-09  0.0000000E+00 -0.3597216E-03
 -0.4690458E-02  0.0000000E+00 -0.5050505E-02  0.8047212E-09  0.0000000E+00 -0.3597210E-03
 -0.4611543E-02  0.0000000E+00 -0.5050505E-02  0.6914643E-09  0.0000000E+00 -0.3597204E-03
 -0.4503035E-02  0.0000000E+00 -0.5050505E-02  0.5689631E-09  0.0000000E+00 -0.3597200E-03
 -0.4345206E-02  0.0000000E+00 -0.5050505E-02  0.4372936E-09  0.0000000E+00 -0.3597196E-03
 -0.4187378E-02  0.0000000E+00 -0.5050505E-02  0.2965321E-09  0.0000000E+00 -0.3597194E-03
 -0.3985156E-02  0.0000000E+00 -0.5050505E-02  0.1467066E-09  0.0000000E+00 -0.3597192E-03
 -0.3669499E-02  0.0000000E+00 -0.5050505E-02 -0.1198261E-10  0.0000000E+00 -0.3597192E-03
 -0.3353842E-02  0.0000000E+00 -0.5050505E-02 -0.1793645E-09  0.0000000E+00 -0.3597192E-03
 -0.2978990E-02  0.0000000E+00 -0.5050505E-02 -0.3554237E-09  0.0000000E+00 -0.3597194E-03
 -0.2347676E-02  0.0000000E+00 -0.5050505E-02 -0.5400610E-09  0.0000000E+00 -0.3597197E-03
 -0.1716362E-02  0.0000000E+00 -0.5050505E-02 -0.7331679E-09  0.0000000E+00 -0.3597201E-03
 -0.1025842E-02  0.0000000E+00 -0.5050505E-02 -0.9346743E-09  0.0000000E+00 -0.3597207E-03
  0.2367855E-03  0.0000000E+00 -0.5050505E-02 -0.1144557E-08  0.0000000E+00 -0.3597214E-03
  0.1499413E-02  0.0000000E+00 -0.5050505E-02 -0.1362827E-08  0.0000000E+00 -0.3597223E-03
  0.2762042E-02  0.0000000E+00 -0.5050505E-02 -0.1589541E-08  0.0000000E+00 -0.3597233E-03
 -0.5050505E-02  0.0000000E+00 -0.5050505E-02 -0.1824844E-08  0.0000000E+00 -0.3597245E-03
 -0.5050505E-02  0.0000000E+00 -0.5050505E-02 -0.2068967E-08  0.0000000E+00 -0.3597258E-03
 -0.5050505E-02  0.0000000E+00 -0.5050505E-02 -0.2322211E-08  0.0000000E+00 -0.3597274E-03
 -0.5050505E-02  0.0000000E+00 -0.5050505E-02 -0.2585007E-08  0.0000000E+00 -0.3597291E-03
 -0.5050505E-02  0.0000000E+00 -0.5050505E-02 -0.2857942E-08  0.0000000E+00 -0.3597310E-03
 -0.5050505E-02  0.0000000E+00 -0.5050505E-02 -0.3141753E-08  0.0000000E+00 -0.3597330E-03
 -0.5050505E-02  0.0000000E+00 -0.5050505E-02 -0.3437361E-08  0.0000000E+00 -0.3597353E-03
 -0.5050504E-02  0.0000000E+00 -0.5050505E-02 -0.3745924E-08  0.0000000E+00 -0.3597378E-03
 -0.5050501E-02  0.0000000E+00 -0.5050505E-02 -0.4068871E-08  0.0000000E+00 -0.3597405E-03
 -0.5050495E-02  0.0000000E+00 -0.5050505E-02 -0.4407938E-08  0.0000000E+00 -0.3597435E-03
 -0.5050482E-02  0.0000000E+00 -0.5050505E-02 -0.4765224E-08  0.0000000E+00 -0.3597467E-03
 -0.5050449E-02  0.0000000E+00 -0.5050505E-02 -0.5143266E-08  0.0000000E+00 -0.3597501E-03
 -0.5050376E-02  0.0000000E+00 -0.5050505E-02 -0.5545118E-08  0.0000000E+00 -0.3597538E-03
 -0.5050299E-02  0.0000000E+00 -0.5050505E-02 -0.5974444E-08  0.0000000E+00 -0.3597578E-03
 -0.5050178E-02  0.0000000E+00 -0.5050505E-02 -0.6435634E-08  0.0000000E+00 -0.3597621E-03
 -0.5050018E-02  0.0000000E+00 -0.5050505E-02 -0.6933952E-08  0.0000000E+00 -0.3597667E-03
 -0.5049710E-02  0.0000000E+00 -0.5050505E-02 -0.7475724E-08  0.0000000E+00 -0.3597717E-03
 -0.5049253E-02  0.0000000E+00 -0.5050505E-02 -0.8068552E-08  0.0000000E+00 -0.3597771E-03
 -0.5048636E-02  0.0000000E+00 -0.5050505E-02 -0.8721602E-08  0.0000000E+00 -0.3597829E-03
 -0.5047442E-02  0.0000000E+00 -0.5050505E-02 -0.9445965E-08  0.0000000E+00 -0.3597892E-03
 -0.5045727E-02  0.0000000E+00 -0.5050505E-02 -0.1025511E-07  0.0000000E+00 -0.3597960E-03
 -0.5043261E-02  0.0000000E+00 -0.5050505E-02 -0.1116549E-07  0.0000000E+00 -0.3598034E-03
 -0.5038714E-02  0.0000000E+00 -0.5050505E-02 -0.1219728E-07  0.0000000E+00 -0.3598115E-03
 -0.5032318E-02  0.0000000E+00 -0.5050505E-02 -0.1337539E-07  0.0000000E+00 -0.3598203E-03
 -0.5022454E-02  0.0000000E+00 -0.5050505E-02 -0.1473082E-07  0.0000000E+00 -0.3598300E-03
 -0.5012589E-02  0.0000000E+00 -0.5050505E-02 -0.1630237E-07  0.0000000E+00 -0.3598407E-03
 -0.5002725E-02  0.0000000E+00 -0.5050505E-02 -0.1813911E-07  0.0000000E+00 -0.3598526E-03
 -0.4992860E-02  0.0000000E+00 -0.5050505E-02 -0.2030355E-07  0.0000000E+00 -0.3598658E-03
 -0.4976523E-02  0.0000000E+00 -0.5050505E-02 -0.2287624E-07  0.0000000E+00 -0.3598806E-03
 -0.4956794E-02  0.0000000E+00 -0.5050505E-02 -0.2596205E-07  0.0000000E+00 -0.3598973E-03
 -0.4937066E-02  0.0000000E+00 -0.5050505E-02 -0.2969921E-07  0.0000000E+00 -0.3599163E-03
 -0.4906239E-02  0.0000000E+00 -0.5050505E-02 -0.3427232E-07  0.0000000E+00 -0.3599381E-03
 -0.4866782E-02  0.0000000E+00 -0.5050505E-02 -0.3993156E-07  0.0000000E+00 -0.3599633E-03
 -0.4827325E-02  0.0000000E+00 -0.5050505E-02 -0.4702148E-07  0.0000000E+00 -0.3599928E-03
 -0.4769372E-02  0.0000000E+00 -0.5050505E-02 -0.5602511E-07  0.0000000E+00 -0.3600276E-03
 -0.4690458E-02  0.0000000E+00 -0.5050505E-02 -0.6763327E-07  0.0000000E+00 -0.3600692E-03
 -0.4611543E-02  0.0000000E+00 -0.5050505E-02 -0.8285622E-07  0.0000000E+00 -0.3601194E-03
 -0.4503035E-02  0.0000000E+00 -0.5050505E-02 -0.1032088E-06  0.0000000E+00 -0.3601812E-03
 -0.4345206E-02  0.0000000E+00 -0.5050505E-02 -0.1310280E-06  0.0000000E+00 -0.3602581E-03
 -0.4187378E-02  0.0000000E+00 -0.5050505E-02 -0.1700370E-06  0.0000000E+00 -0.3603559E-03
 -0.3985156E-02  0.0000000E+00 -0.5050505E-02 -0.2263907E-06  0.0000000E+00 -0.3604825E-03
 -0.3669499E-02  0.0000000E+00 -0.5050505E-02 -0.3107018E-06  0.0000000E+00 -0.3606501E-03
 -0.3353842E-02  0.0000000E+00 -0.5050505E-02 -0.4421748E-06  0.0000000E+00 -0.3608771E-03
 -0.2978990E-02  0.0000000E+00 -0.5050505E-02 -0.6575193E-06  0.0000000E+00 -0.3611911E-03
 -0.2347676E-02  0.0000000E+00 -0.5050505E-02 -0.1031338E-05  0.0000000E+00 -0.3616312E-03
 -0.1716362E-02  0.0000000E+00 -0.5050505E-02 -0.1725684E-05  0.0000000E+00 -0.3622366E-03
 -0.1025842E-02  0.0000000E+00 -0.5050505E-02 -0.3117860E-05  0.0000000E+00 -0.3629646E-03
  0.2367855E-03  0.0000000E+00 -0.5050505E-02 -0.6148157E-05  0.0000000E+00 -0.3632611E-03
  0.1499413E-02  0.0000000E+00 -0.5050505E-02 -0.1330749E-04  0.0000000E+00 -0.3599965E-03
  0.5287294E-02  0.0000000E+00 -0.5050505E-02 -0.3151640E-04  0.0000000E+00 -0.3377383E-03
 -0.5050505E-02  0.0000000E+00 -0.5050505E-02  0.8265910E-10  0.0000000E+00 -0.3593079E-03
 -0.5050505E-02  0.0000000E+00 -0.5050505E-02  0.2467987E-09  0.0000000E+00 -0.3593079E-03
 -0.5050505E-02  0.0000000E+00 -0.5050505E-02  0.4097108E-09  0.0000000E+00 -0.3593077E-03
 -0.5050505E-02  0.0000000E+00 -0.5050505E-02  0.5709911E-09  0.0000000E+00 -0.3593075E-03
 -0.5050505E-02  0.0000000E+00 -0.5050505E-02  0.7298748E-09  0.0000000E+00 -0.3593072E-03
 -0.5050505E-02  0.0000000E+00 -0.5050505E-02  0.8856550E-09  0.0000000E+00 -0.3593069E-03
 -0.5050504E-02  0.0000000E+00 -0.5050505E-02  0.1037665E-08  0.0000000E+00 -0.3593065E-03
 -0.5050501E-02  0.0000000E+00 -0.5050505E-02  0.1185217E-08  0.0000000E+00 -0.3593060E-03
 -0.5050495E-02  0.0000000E+00 -0.5050505E-02  0.1327655E-08  0.0000000E+00 -0.3593055E-03
 -0.5050482E-02  0.0000000E+00 -0.5050505E-02  0.1464311E-08  0.0000000E+00 -0.3593049E-03
 -0.5050449E-02  0.0000000E+00 -0.5050505E-02  0.1594533E-08  0.0000000E+00 -0.3593042E-03
 -0.5050376E-02  0.0000000E+00 -0.5050505E-02  0.1717676E-08  0.0000000E+00 -0.3593035E-03
 -0.5050299E-02  0.0000000E+00 -0.5050505E-02  0.1833097E-08  0.0000000E+00 -0.3593027E-03
 -0.5050178E-02  0.0000000E+00 -0.5050505E-02  0.1940173E-08  0.0000000E+00 -0.3593019E-03
 -0.5050018E-02  0.0000000E+00 -0.5050505E-02  0.2038287E-08  0.0000000E+00 -0.3593011E-03
 -0.5049710E-02  0.0000000E+00 -0.5050505E-02  0.2126837E-08  0.0000000E+00 -0.3593002E-03
 -0.5049253E-02  0.0000000E+00 -0.5050505E-02  0.2205239E-08  0.0000000E+00 -0.3592992E-03
 -0.5048636E-02  0.0000000E+00 -0.5050505E-02  0.2272926E-08  0.0000000E+00 -0.3592983E-03
 -0.5047442E-02  0.0000000E+00 -0.5050505E-02  0.2329350E-08  0.0000000E+00 -0.3592973E-03
 -0.5045727E-02  0.0000000E+00 -0.5050505E-02  0.2373986E-08  0.0000000E+00 -0.3592963E-03
 -0.5043261E-02  0.0000000E+00 -0.5050505E-02  0.2406334E-08  0.0000000E+00 -0.3592953E-03
 -0.5038714E-02  0.0000000E+00 -0.5050505E-02  0.2425920E-08  0.0000000E+00 -0.3592942E-03
 -0.5032318E-02  0.0000000E+00 -0.5050505E-02  0.2432299E-08  0.0000000E+00 -0.3592932E-03
 -0.5022454E-02  0.0000000E+00 -0.5050505E-02  0.2425059E-08  0.0000000E+00 -0.3592921E-03
 -0.5012589E-02  0.0000000E+00 -0.5050505E-02  0.2403818E-08  0.0000000E+00 -0.3592911E-03
 -0.5002725E-02  0.0000000E+00 -0.5050505E-02  0.2368233E-08  0.0000000E+00 -0.3592901E-03
 -0.4992860E-02  0.0000000E+00 -0.5050505E-02  0.2317996E-08  0.0000000E+00 -0.3592891E-03
 -0.4976523E-02  0.0000000E+00 -0.5050505E-02  0.2252839E-08  0.0000000E+00 -0.3592881E-03
 -0.4956794E-02  0.0000000E+00 -0.5050505E-02  0.2172534E-08  0.0000000E+00 -0.3592871E-03
 -0.4937066E-02  0.0000000E+00 -0.5050505E-02  0.2076895E-08  0.0000000E+00 -0.3592862E-03
 -0.4906239E-02  0.0000000E+00 -0.5050505E-02  0.1965775E-08  0.0000000E+00 -0.3592853E-03
 -0.4866782E-02  0.0000000E+00 -0.5050505E-02  0.1839075E-08  0.0000000E+00 -0.3592845E-03
 -0.4827325E-02  0.0000000E+00 -0.5050505E-02  0.1696733E-08  0.0000000E+00 -0.3592837E-03
 -0.4769372E-02  0.0000000E+00 -0.5050505E-02  0.1538731E-08  0.0000000E+00 -0.3592830E-03
 -0.4690458E-02  0.0000000E+00 -0.5050505E-02  0.1365094E-08  0.0000000E+00 -0.3592824E-03
 -0.4611543E-02  0.0000000E+00 -0.5050505E-02  0.1175889E-08  0.0000000E+00 -0.3592818E-03
 -0.4503035E-02  0.0000000E+00 -0.5050505E-02  0.9712114E-09  0.0000000E+00 -0.3592813E-03
 -0.4345206E-02  0.0000000E+00 -0.5050505E-02  0.7511898E-09  0.0000000E+00 -0.3592809E-03
 -0.4187378E-02  0.0000000E+00 -0.5050505E-02  0.5159322E-09  0.0000000E+00 -0.3592806E-03
 -0.3985156E-02  0.0000000E+00 -0.5050505E-02  0.2655863E-09  0.0000000E+00 -0.3592805E-03
 -0.3669499E-02  0.0000000E+00 -0.5050505E-02  0.4237486E-12  0.0000000E+00 -0.3592804E-03
 -0.3353842E-02  0.0000000E+00 -0.5050505E-02 -0.2793275E-09  0.0000000E+00 -0.3592804E-03
 -0.2978990E-02  0.0000000E+00 -0.5050505E-02 -0.5735324E-09  0.0000000E+00 -0.3592806E-03
 -0.2347676E-02  0.0000000E+00 -0.5050505E-02 -0.8820310E-09  0.0000000E+00 -0.3592808E-03
 -0.1716362E-02  0.0000000E+00 -0.5050505E-02 -0.1204640E-08  0.0000000E+00 -0.3592813E-03
 -0.1025842E-02  0.0000000E+00 -0.5050505E-02 -0.1541220E-08  0.0000000E+00 -0.3592818E-03
  0.2367855E-03  0.0000000E+00 -0.5050505E-02 -0.1891716E-08  0.0000000E+00 -0.3592825E-03
  0.1499413E-02  0.0000000E+00 -0.5050505E-02 -0.2256146E-08  0.0000000E+00 -0.3592834E-03
  0.2762042E-02  0.0000000E+00 -0.5050505E-02 -0.2634587E-08  0.0000000E+00 -0.3592844E-03
 -0.5050505E-02  0.0000000E+00 -0.5050505E-02 -0.3027237E-08  0.0000000E+00 -0.3592855E-03
 -0.5050505E-02  0.0000000E+00 -0.5050505E-02 -0.3434466E-08  0.0000000E+00 -0.3592869E-03
 -0.5050505E-02  0.0000000E+00 -0.5050505E-02 -0.3856768E-08  0.0000000E+00 -0.3592884E-03
 -0.5050505E-02  0.0000000E+00 -0.5050505E-02 -0.4294818E-08  0.0000000E+00 -0.3592901E-03
 -0.5050505E-02  0.0000000E+00 -0.5050505E-02 -0.4749550E-08  0.0000000E+00 -0.3592919E-03
 -0.5050505E-02  0.0000000E+00 -0.5050505E-02 -0.5222169E-08  0.0000000E+00 -0.3592940E-03
 -0.5050505E-02  0.0000000E+00 -0.5050505E-02 -0.5714172E-08  0.0000000E+00 -0.3592963E-03
 -0.5050504E-02  0.0000000E+00 -0.5050505E-02 -0.6227433E-08  0.0000000E+00 -0.3592988E-03
 -0.5050501E-02  0.0000000E+00 -0.5050505E-02 -0.6764269E-08  0.0000000E+00 -0.3593015E-03
 -0.5050495E-02  0.0000000E+00 -0.5050505E-02 -0.7327514E-08  0.0000000E+00 -0.3593044E-03
 -0.5050482E-02  0.0000000E+00 -0.5050505E-02 -0.7920593E-08  0.0000000E+00 -0.3593075E-03
 -0.5050449E-02  0.0000000E+00 -0.5050505E-02 -0.8547635E-08  0.0000000E+00 -0.3593110E-03
 -0.5050376E-02  0.0000000E+00 -0.5050505E-02 -0.9213616E-08  0.0000000E+00 -0.3593146E-03
 -0.5050299E-02  0.0000000E+00 -0.5050505E-02 -0.9924507E-08  0.0000000E+00 -0.3593186E-03
 -0.5050178E-02  0.0000000E+00 -0.5050505E-02 -0.1068746E-07  0.0000000E+00 -0.3593229E-03
 -0.5050018E-02  0.0000000E+00 -0.5050505E-02 -0.1151104E-07  0.0000000E+00 -0.3593275E-03
 -0.5049710E-02  0.0000000E+00 -0.5050505E-02 -0.1240554E-07  0.0000000E+00 -0.3593324E-03
 -0.5049253E-02  0.0000000E+00 -0.5050505E-02 -0.1338332E-07  0.0000000E+00 -0.3593377E-03
 -0.5048636E-02  0.0000000E+00 -0.5050505E-02 -0.1445923E-07  0.0000000E+00 -0.3593435E-03
 -0.5047442E-02  0.0000000E+00 -0.5050505E-02 -0.1565127E-07  0.0000000E+00 -0.3593497E-03
 -0.5045727E-02  0.0000000E+00 -0.5050505E-02 -0.1698122E-07  0.0000000E+00 -0.3593564E-03
 -0.5043261E-02  0.0000000E+00 -0.5050505E-02 -0.1847565E-07  0.0000000E+00 -0.3593636E-03
 -0.5038714E-02  0.0000000E+00 -0.5050505E-02 -0.2016708E-07  0.0000000E+00 -0.3593715E-03
 -0.5032318E-02  0.0000000E+00 -0.5050505E-02 -0.2209558E-07  0.0000000E+00 -0.3593802E-03
 -0.5022454E-02  0.0000000E+00 -0.5050505E-02 -0.2431084E-07  0.0000000E+00 -0.3593896E-03
 -0.5012589E-02  0.0000000E+00 -0.5050505E-02 -0.2687494E-07  0.0000000E+00 -0.3594000E-03
 -0.5002725E-02  0.0000000E+00 -0.5050505E-02 -0.2986604E-07  0.0000000E+00 -0.3594114E-03
 -0.4992860E-02  0.0000000E+00 -0.5050505E-02 -0.3338341E-07  0.0000000E+00 -0.3594242E-03
 -0.4976523E-02  0.0000000E+00 -0.5050505E-02 -0.3755436E-07  0.0000000E+00 -0.3594384E-03
 -0.4956794E-02  0.0000000E+00 -0.5050505E-02 -0.4254383E-07  0.0000000E+00 -0.3594543E-03
 -0.4937066E-02  0.0000000E+00 -0.5050505E-02 -0.4856799E-07  0.0000000E+00 -0.3594724E-03
 -0.4906239E-02  0.0000000E+00 -0.5050505E-02 -0.5591358E-07  0.0000000E+00 -0.3594929E-03
 -0.4866782E-02  0.0000000E+00 -0.5050505E-02 -0.6496623E-07  0.0000000E+00 -0.3595165E-03
 -0.4827325E-02  0.0000000E+00 -0.5050505E-02 -0.7625208E-07  0.0000000E+00 -0.3595437E-03
 -0.4769372E-02  0.0000000E+00 -0.5050505E-02 -0.9050078E-07  0.0000000E+00 -0.3595755E-03
 -0.4690458E-02  0.0000000E+00 -0.5050505E-02 -0.1087422E-06  0.0000000E+00 -0.3596130E-03
 -0.4611543E-02  0.0000000E+00 -0.5050505E-02 -0.1324583E-06  0.0000000E+00 -0.3596576E-03
 -0.4503035E-02  0.0000000E+00 -0.5050505E-02 -0.1638278E-06  0.0000000E+00 -0.3597111E-03
 -0.4345206E-02  0.0000000E+00 -0.5050505E-02 -0.2061291E-06  0.0000000E+00 -0.3597761E-03
 -0.4187378E-02  0.0000000E+00 -0.5050505E-02 -0.2644226E-06  0.0000000E+00 -0.3598556E-03
 -0.3985156E-02  0.0000000E+00 -0.5050505E-02 -0.3467370E-06  0.0000000E+00 -0.3599536E-03
 -0.3669499E-02  0.0000000E+00 -0.5050505E-02 -0.4661831E-06  0.0000000E+00 -0.3600746E-03
 -0.3353842E-02  0.0000000E+00 -0.5050505E-02 -0.6448045E-06  0.0000000E+00 -0.3602226E-03
 -0.2978990E-02  0.0000000E+00 -0.5050505E-02 -0.9206665E-06  0.0000000E+00 -0.3603964E-03
 -0.2347676E-02  0.0000000E+00 -0.5050505E-02 -0.1360729E-05  0.0000000E+00 -0.3605778E-03
 -0.1716362E-02  0.0000000E+00 -0.5050505E-02 -0.2082509E-05  0.0000000E+00 -0.3606942E-03
 -0.1025842E-02  0.0000000E+00 -0.5050505E-02 -0.3280877E-05  0.0000000E+00 -0.3605203E-03
  0.2367855E-03  0.0000000E+00 -0.5050505E-02 -0.5208727E-05  0.0000000E+00 -0.3594401E-03
  0.1499413E-02  0.0000000E+00 -0.5050505E-02 -0.7811315E-05  0.0000000E+00 -0.3560616E-03
  0.5287294E-02  0.0000000E+00 -0.5050505E-02 -0.8532991E-05  0.0000000E+00 -0.3489094E-03
 -0.5050505E-02  0.0000000E+00 -0.5050505E-02  0.1170044E-09  0.0000000E+00 -0.3586657E-03
 -0.5050505E-02  0.0000000E+00 -0.5050505E-02  0.3495734E-09  0.0000000E+00 -0.3586656E-03
 -0.5050505E-02  0.0000000E+00 -0.5050505E-02  0.5804846E-09  0.0000000E+00 -0.3586655E-03
 -0.5050505E-02  0.0000000E+00 -0.5050505E-02  0.8090549E-09  0.0000000E+00 -0.3586653E-03
 -0.5050505E-02  0.0000000E+00 -0.5050505E-02  0.1034221E-08  0.0000000E+00 -0.3586650E-03
 -0.5050505E-02  0.0000000E+00 -0.5050505E-02  0.1255000E-08  0.0000000E+00 -0.3586646E-03
 -0.5050504E-02  0.0000000E+00 -0.5050505E-02  0.1470460E-08  0.0000000E+00 -0.3586642E-03
 -0.5050501E-02  0.0000000E+00 -0.5050505E-02  0.1679638E-08  0.0000000E+00 -0.3586637E-03
 -0.5050495E-02  0.0000000E+00 -0.5050505E-02  0.1881606E-08  0.0000000E+00 -0.3586632E-03
 -0.5050482E-02  0.0000000E+00 -0.5050505E-02  0.2075426E-08  0.0000000E+00 -0.3586625E-03
 -0.5050449E-02  0.0000000E+00 -0.5050505E-02  0.2260176E-08  0.0000000E+00 -0.3586619E-03
 -0.5050376E-02  0.0000000E+00 -0.5050505E-02  0.2434945E-08  0.0000000E+00 -0.3586611E-03
 -0.5050299E-02  0.0000000E+00 -0.5050505E-02  0.2598828E-08  0.0000000E+00 -0.3586603E-03
 -0.5050178E-02  0.0000000E+00 -0.5050505E-02  0.2750944E-08  0.0000000E+00 -0.3586595E-03
 -0.5050018E-02  0.0000000E+00 -0.5050505E-02  0.2890421E-08  0.0000000E+00 -0.3586586E-03
 -0.5049710E-02  0.0000000E+00 -0.5050505E-02  0.3016412E-08  0.0000000E+00 -0.3586577E-03
 -0.5049253E-02  0.0000000E+00 -0.5050505E-02  0.3128089E-08  0.0000000E+00 -0.3586567E-03
 -0.5048636E-02  0.0000000E+00 -0.5050505E-02  0.3224651E-08  0.0000000E+00 -0.3586557E-03
 -0.5047442E-02  0.0000000E+00 -0.5050505E-02  0.3305325E-08  0.0000000E+00 -0.3586547E-03
 -0.5045727E-02  0.0000000E+00 -0.5050505E-02  0.3369369E-08  0.0000000E+00 -0.3586536E-03
 -0.5043261E-02  0.0000000E+00 -0.5050505E-02  0.3416075E-08  0.0000000E+00 -0.3586525E-03
 -0.5038714E-02  0.0000000E+00 -0.5050505E-02  0.3444773E-08  0.0000000E+00 -0.3586515E-03
 -0.5032318E-02  0.0000000E+00 -0.5050505E-02  0.3454836E-08  0.0000000E+00 -0.3586504E-03
 -0.5022454E-02  0.0000000E+00 -0.5050505E-02  0.3445679E-08  0.0000000E+00 -0.3586493E-03
 -0.5012589E-02  0.0000000E+00 -0.5050505E-02  0.3416764E-08  0.0000000E+00 -0.3586482E-03
 -0.5002725E-02  0.0000000E+00 -0.5050505E-02  0.3367604E-08  0.0000000E+00 -0.3586471E-03
 -0.4992860E-02  0.0000000E+00 -0.5050505E-02  0.3297767E-08  0.0000000E+00 -0.3586461E-03
 -0.4976523E-02  0.0000000E+00 -0.5050505E-02  0.3206873E-08  0.0000000E+00 -0.3586450E-03
 -0.4956794E-02  0.0000000E+00 -0.5050505E-02  0.3094601E-08  0.0000000E+00 -0.3586440E-03
 -0.4937066E-02  0.0000000E+00 -0.5050505E-02  0.2960689E-08  0.0000000E+00 -0.3586430E-03