title = "dataset feddes"
variables = "x", "y", "z", "vx", "vy", "vz"
zone t = "velocities, solution time =  2.100E+01 days        " i =   99, j =   99, k =    1,  f=point
 -0.5050505E-02  0.0000000E+00 -0.5050505E-02  0.9297757E-12  0.0000000E+00 -0.4033306E-03
 -0.5050505E-02  0.0000000E+00 -0.5050505E-02  0.2454013E-11  0.0000000E+00 -0.4033306E-03
 -0.5050505E-02  0.0000000E+00 -0.5050505E-02  0.3938689E-11  0.0000000E+00 -0.4033306E-03
 -0.5050505E-02  0.0000000E+00 -0.5050505E-02  0.5343800E-11  0.0000000E+00 -0.4033306E-03
 -0.5050505E-02  0.0000000E+00 -0.5050505E-02  0.6589395E-11  0.0000000E+00 -0.4033306E-03
 -0.5050505E-02  0.0000000E+00 -0.5050505E-02  0.7745786E-11  0.0000000E+00 -0.4033305E-03
 -0.5050504E-02  0.0000000E+00 -0.5050505E-02  0.8615939E-11  0.0000000E+00 -0.4033305E-03
 -0.5050501E-02  0.0000000E+00 -0.5050505E-02  0.9158514E-11  0.0000000E+00 -0.4033305E-03
 -0.5050495E-02  0.0000000E+00 -0.5050505E-02  0.9412776E-11  0.0000000E+00 -0.4033305E-03
 -0.5050482E-02  0.0000000E+00 -0.5050505E-02  0.9329354E-11  0.0000000E+00 -0.4033305E-03
 -0.5050449E-02  0.0000000E+00 -0.5050505E-02  0.8864457E-11  0.0000000E+00 -0.4033304E-03
 -0.5050376E-02  0.0000000E+00 -0.5050505E-02  0.7975355E-11  0.0000000E+00 -0.4033304E-03
 -0.5050299E-02  0.0000000E+00 -0.5050505E-02  0.6620757E-11  0.0000000E+00 -0.4033304E-03
 -0.5050178E-02  0.0000000E+00 -0.5050505E-02  0.4763961E-11  0.0000000E+00 -0.4033304E-03
 -0.5050018E-02  0.0000000E+00 -0.5050505E-02  0.2364185E-11  0.0000000E+00 -0.4033304E-03
 -0.5049710E-02  0.0000000E+00 -0.5050505E-02 -0.6139479E-12  0.0000000E+00 -0.4033304E-03
 -0.5049253E-02  0.0000000E+00 -0.5050505E-02 -0.4200641E-11  0.0000000E+00 -0.4033304E-03
 -0.5048636E-02  0.0000000E+00 -0.5050505E-02 -0.8526532E-11  0.0000000E+00 -0.4033304E-03
 -0.5047442E-02  0.0000000E+00 -0.5050505E-02 -0.1350553E-10  0.0000000E+00 -0.4033304E-03
 -0.5045727E-02  0.0000000E+00 -0.5050505E-02 -0.1926891E-10  0.0000000E+00 -0.4033305E-03
 -0.5043261E-02  0.0000000E+00 -0.5050505E-02 -0.2572353E-10  0.0000000E+00 -0.4033305E-03
 -0.5038714E-02  0.0000000E+00 -0.5050505E-02 -0.3300359E-10  0.0000000E+00 -0.4033306E-03
 -0.5032318E-02  0.0000000E+00 -0.5050505E-02 -0.4113904E-10  0.0000000E+00 -0.4033307E-03
 -0.5022454E-02  0.0000000E+00 -0.5050505E-02 -0.5015473E-10  0.0000000E+00 -0.4033307E-03
 -0.5012589E-02  0.0000000E+00 -0.5050505E-02 -0.6007902E-10  0.0000000E+00 -0.4033309E-03
 -0.5002725E-02  0.0000000E+00 -0.5050505E-02 -0.7094830E-10  0.0000000E+00 -0.4033310E-03
 -0.4992860E-02  0.0000000E+00 -0.5050505E-02 -0.8279765E-10  0.0000000E+00 -0.4033312E-03
 -0.4976523E-02  0.0000000E+00 -0.5050505E-02 -0.9566312E-10  0.0000000E+00 -0.4033313E-03
 -0.4956794E-02  0.0000000E+00 -0.5050505E-02 -0.1095824E-09  0.0000000E+00 -0.4033316E-03
 -0.4937066E-02  0.0000000E+00 -0.5050505E-02 -0.1245925E-09  0.0000000E+00 -0.4033318E-03
 -0.4906239E-02  0.0000000E+00 -0.5050505E-02 -0.1407307E-09  0.0000000E+00 -0.4033321E-03
 -0.4866782E-02  0.0000000E+00 -0.5050505E-02 -0.1580364E-09  0.0000000E+00 -0.4033324E-03
 -0.4827325E-02  0.0000000E+00 -0.5050505E-02 -0.1765499E-09  0.0000000E+00 -0.4033328E-03
 -0.4769372E-02  0.0000000E+00 -0.5050505E-02 -0.1963136E-09  0.0000000E+00 -0.4033331E-03
 -0.4690458E-02  0.0000000E+00 -0.5050505E-02 -0.2173739E-09  0.0000000E+00 -0.4033336E-03
 -0.4611543E-02  0.0000000E+00 -0.5050505E-02 -0.2397771E-09  0.0000000E+00 -0.4033341E-03
 -0.4503035E-02  0.0000000E+00 -0.5050505E-02 -0.2635740E-09  0.0000000E+00 -0.4033346E-03
 -0.4345206E-02  0.0000000E+00 -0.5050505E-02 -0.2888219E-09  0.0000000E+00 -0.4033352E-03
 -0.4187378E-02  0.0000000E+00 -0.5050505E-02 -0.3155813E-09  0.0000000E+00 -0.4033358E-03
 -0.3985156E-02  0.0000000E+00 -0.5050505E-02 -0.3439185E-09  0.0000000E+00 -0.4033365E-03
 -0.3669499E-02  0.0000000E+00 -0.5050505E-02 -0.3739086E-09  0.0000000E+00 -0.4033372E-03
 -0.3353842E-02  0.0000000E+00 -0.5050505E-02 -0.4056352E-09  0.0000000E+00 -0.4033381E-03
 -0.2978990E-02  0.0000000E+00 -0.5050505E-02 -0.4391917E-09  0.0000000E+00 -0.4033389E-03
 -0.2347676E-02  0.0000000E+00 -0.5050505E-02 -0.4746828E-09  0.0000000E+00 -0.4033399E-03
 -0.1716362E-02  0.0000000E+00 -0.5050505E-02 -0.5122278E-09  0.0000000E+00 -0.4033409E-03
 -0.1025842E-02  0.0000000E+00 -0.5050505E-02 -0.5519612E-09  0.0000000E+00 -0.4033420E-03
  0.2367855E-03  0.0000000E+00 -0.5050505E-02 -0.5940346E-09  0.0000000E+00 -0.4033432E-03
  0.1499413E-02  0.0000000E+00 -0.5050505E-02 -0.6386215E-09  0.0000000E+00 -0.4033445E-03
  0.2762042E-02  0.0000000E+00 -0.5050505E-02 -0.6859215E-09  0.0000000E+00 -0.4033459E-03
 -0.5050505E-02  0.0000000E+00 -0.5050505E-02 -0.7361629E-09  0.0000000E+00 -0.4033474E-03
 -0.5050505E-02  0.0000000E+00 -0.5050505E-02 -0.7896042E-09  0.0000000E+00 -0.4033490E-03
 -0.5050505E-02  0.0000000E+00 -0.5050505E-02 -0.8465413E-09  0.0000000E+00 -0.4033507E-03
 -0.5050505E-02  0.0000000E+00 -0.5050505E-02 -0.9073153E-09  0.0000000E+00 -0.4033526E-03
 -0.5050505E-02  0.0000000E+00 -0.5050505E-02 -0.9723187E-09  0.0000000E+00 -0.4033545E-03
 -0.5050505E-02  0.0000000E+00 -0.5050505E-02 -0.1042003E-08  0.0000000E+00 -0.4033567E-03
 -0.5050505E-02  0.0000000E+00 -0.5050505E-02 -0.1116888E-08  0.0000000E+00 -0.4033589E-03
 -0.5050504E-02  0.0000000E+00 -0.5050505E-02 -0.1197574E-08  0.0000000E+00 -0.4033613E-03
 -0.5050501E-02  0.0000000E+00 -0.5050505E-02 -0.1284758E-08  0.0000000E+00 -0.4033639E-03
 -0.5050495E-02  0.0000000E+00 -0.5050505E-02 -0.1379243E-08  0.0000000E+00 -0.4033667E-03
 -0.5050482E-02  0.0000000E+00 -0.5050505E-02 -0.1481969E-08  0.0000000E+00 -0.4033697E-03
 -0.5050449E-02  0.0000000E+00 -0.5050505E-02 -0.1594026E-08  0.0000000E+00 -0.4033730E-03
 -0.5050376E-02  0.0000000E+00 -0.5050505E-02 -0.1716693E-08  0.0000000E+00 -0.4033764E-03
 -0.5050299E-02  0.0000000E+00 -0.5050505E-02 -0.1851468E-08  0.0000000E+00 -0.4033802E-03
 -0.5050178E-02  0.0000000E+00 -0.5050505E-02 -0.2000114E-08  0.0000000E+00 -0.4033842E-03
 -0.5050018E-02  0.0000000E+00 -0.5050505E-02 -0.2164712E-08  0.0000000E+00 -0.4033886E-03
 -0.5049710E-02  0.0000000E+00 -0.5050505E-02 -0.2347734E-08  0.0000000E+00 -0.4033933E-03
 -0.5049253E-02  0.0000000E+00 -0.5050505E-02 -0.2552122E-08  0.0000000E+00 -0.4033984E-03
 -0.5048636E-02  0.0000000E+00 -0.5050505E-02 -0.2781401E-08  0.0000000E+00 -0.4034040E-03
 -0.5047442E-02  0.0000000E+00 -0.5050505E-02 -0.3039811E-08  0.0000000E+00 -0.4034101E-03
 -0.5045727E-02  0.0000000E+00 -0.5050505E-02 -0.3332484E-08  0.0000000E+00 -0.4034168E-03
 -0.5043261E-02  0.0000000E+00 -0.5050505E-02 -0.3665670E-08  0.0000000E+00 -0.4034241E-03
 -0.5038714E-02  0.0000000E+00 -0.5050505E-02 -0.4047025E-08  0.0000000E+00 -0.4034322E-03
 -0.5032318E-02  0.0000000E+00 -0.5050505E-02 -0.4486001E-08  0.0000000E+00 -0.4034412E-03
 -0.5022454E-02  0.0000000E+00 -0.5050505E-02 -0.4994350E-08  0.0000000E+00 -0.4034511E-03
 -0.5012589E-02  0.0000000E+00 -0.5050505E-02 -0.5586807E-08  0.0000000E+00 -0.4034622E-03
 -0.5002725E-02  0.0000000E+00 -0.5050505E-02 -0.6282012E-08  0.0000000E+00 -0.4034746E-03
 -0.4992860E-02  0.0000000E+00 -0.5050505E-02 -0.7103772E-08  0.0000000E+00 -0.4034886E-03
 -0.4976523E-02  0.0000000E+00 -0.5050505E-02 -0.8082812E-08  0.0000000E+00 -0.4035046E-03
 -0.4956794E-02  0.0000000E+00 -0.5050505E-02 -0.9259244E-08  0.0000000E+00 -0.4035227E-03
 -0.4937066E-02  0.0000000E+00 -0.5050505E-02 -0.1068609E-07  0.0000000E+00 -0.4035436E-03
 -0.4906239E-02  0.0000000E+00 -0.5050505E-02 -0.1243442E-07  0.0000000E+00 -0.4035679E-03
 -0.4866782E-02  0.0000000E+00 -0.5050505E-02 -0.1460092E-07  0.0000000E+00 -0.4035962E-03
 -0.4827325E-02  0.0000000E+00 -0.5050505E-02 -0.1731938E-07  0.0000000E+00 -0.4036297E-03
 -0.4769372E-02  0.0000000E+00 -0.5050505E-02 -0.2077845E-07  0.0000000E+00 -0.4036696E-03
 -0.4690458E-02  0.0000000E+00 -0.5050505E-02 -0.2524973E-07  0.0000000E+00 -0.4037178E-03
 -0.4611543E-02  0.0000000E+00 -0.5050505E-02 -0.3113372E-07  0.0000000E+00 -0.4037769E-03
 -0.4503035E-02  0.0000000E+00 -0.5050505E-02 -0.3903711E-07  0.0000000E+00 -0.4038505E-03
 -0.4345206E-02  0.0000000E+00 -0.5050505E-02 -0.4990794E-07  0.0000000E+00 -0.4039437E-03
 -0.4187378E-02  0.0000000E+00 -0.5050505E-02 -0.6528192E-07  0.0000000E+00 -0.4040644E-03
 -0.3985156E-02  0.0000000E+00 -0.5050505E-02 -0.8775358E-07  0.0000000E+00 -0.4042248E-03
 -0.3669499E-02  0.0000000E+00 -0.5050505E-02 -0.1219299E-06  0.0000000E+00 -0.4044446E-03
 -0.3353842E-02  0.0000000E+00 -0.5050505E-02 -0.1764905E-06  0.0000000E+00 -0.4047574E-03
 -0.2978990E-02  0.0000000E+00 -0.5050505E-02 -0.2689861E-06  0.0000000E+00 -0.4052243E-03
 -0.2347676E-02  0.0000000E+00 -0.5050505E-02 -0.4380095E-06  0.0000000E+00 -0.4059654E-03
 -0.1716362E-02  0.0000000E+00 -0.5050505E-02 -0.7770690E-06  0.0000000E+00 -0.4072392E-03
 -0.1025842E-02  0.0000000E+00 -0.5050505E-02 -0.1538421E-05  0.0000000E+00 -0.4096669E-03
  0.2367855E-03  0.0000000E+00 -0.5050505E-02 -0.3482886E-05  0.0000000E+00 -0.4149332E-03
  0.1499413E-02  0.0000000E+00 -0.5050505E-02 -0.9165287E-05  0.0000000E+00 -0.4282075E-03
  0.5287294E-02  0.0000000E+00 -0.5050505E-02 -0.1506375E-03  0.0000000E+00 -0.3414812E-03
 -0.5050505E-02  0.0000000E+00 -0.5050505E-02  0.2759777E-11  0.0000000E+00 -0.4030442E-03
 -0.5050505E-02  0.0000000E+00 -0.5050505E-02  0.7519318E-11  0.0000000E+00 -0.4030442E-03
 -0.5050505E-02  0.0000000E+00 -0.5050505E-02  0.1205847E-10  0.0000000E+00 -0.4030441E-03
 -0.5050505E-02  0.0000000E+00 -0.5050505E-02  0.1635784E-10  0.0000000E+00 -0.4030441E-03
 -0.5050505E-02  0.0000000E+00 -0.5050505E-02  0.2023155E-10  0.0000000E+00 -0.4030441E-03
 -0.5050505E-02  0.0000000E+00 -0.5050505E-02  0.2375438E-10  0.0000000E+00 -0.4030441E-03
 -0.5050504E-02  0.0000000E+00 -0.5050505E-02  0.2641608E-10  0.0000000E+00 -0.4030441E-03
 -0.5050501E-02  0.0000000E+00 -0.5050505E-02  0.2816011E-10  0.0000000E+00 -0.4030441E-03
 -0.5050495E-02  0.0000000E+00 -0.5050505E-02  0.2902230E-10  0.0000000E+00 -0.4030440E-03
 -0.5050482E-02  0.0000000E+00 -0.5050505E-02  0.2886617E-10  0.0000000E+00 -0.4030440E-03
 -0.5050449E-02  0.0000000E+00 -0.5050505E-02  0.2755976E-10  0.0000000E+00 -0.4030440E-03
 -0.5050376E-02  0.0000000E+00 -0.5050505E-02  0.2497680E-10  0.0000000E+00 -0.4030440E-03
 -0.5050299E-02  0.0000000E+00 -0.5050505E-02  0.2099396E-10  0.0000000E+00 -0.4030440E-03
 -0.5050178E-02  0.0000000E+00 -0.5050505E-02  0.1550332E-10  0.0000000E+00 -0.4030440E-03
 -0.5050018E-02  0.0000000E+00 -0.5050505E-02  0.8385239E-11  0.0000000E+00 -0.4030439E-03
 -0.5049710E-02  0.0000000E+00 -0.5050505E-02 -0.4742162E-12  0.0000000E+00 -0.4030439E-03
 -0.5049253E-02  0.0000000E+00 -0.5050505E-02 -0.1121273E-10  0.0000000E+00 -0.4030439E-03
 -0.5048636E-02  0.0000000E+00 -0.5050505E-02 -0.2399987E-10  0.0000000E+00 -0.4030439E-03
 -0.5047442E-02  0.0000000E+00 -0.5050505E-02 -0.3895048E-10  0.0000000E+00 -0.4030440E-03
 -0.5045727E-02  0.0000000E+00 -0.5050505E-02 -0.5610982E-10  0.0000000E+00 -0.4030440E-03
 -0.5043261E-02  0.0000000E+00 -0.5050505E-02 -0.7543280E-10  0.0000000E+00 -0.4030440E-03
 -0.5038714E-02  0.0000000E+00 -0.5050505E-02 -0.9722269E-10  0.0000000E+00 -0.4030441E-03
 -0.5032318E-02  0.0000000E+00 -0.5050505E-02 -0.1215715E-09  0.0000000E+00 -0.4030442E-03
 -0.5022454E-02  0.0000000E+00 -0.5050505E-02 -0.1485606E-09  0.0000000E+00 -0.4030443E-03
 -0.5012589E-02  0.0000000E+00 -0.5050505E-02 -0.1782770E-09  0.0000000E+00 -0.4030444E-03
 -0.5002725E-02  0.0000000E+00 -0.5050505E-02 -0.2108290E-09  0.0000000E+00 -0.4030445E-03
 -0.4992860E-02  0.0000000E+00 -0.5050505E-02 -0.2463232E-09  0.0000000E+00 -0.4030447E-03
 -0.4976523E-02  0.0000000E+00 -0.5050505E-02 -0.2848669E-09  0.0000000E+00 -0.4030449E-03
 -0.4956794E-02  0.0000000E+00 -0.5050505E-02 -0.3265721E-09  0.0000000E+00 -0.4030451E-03
 -0.4937066E-02  0.0000000E+00 -0.5050505E-02 -0.3715520E-09  0.0000000E+00 -0.4030453E-03
 -0.4906239E-02  0.0000000E+00 -0.5050505E-02 -0.4199181E-09  0.0000000E+00 -0.4030456E-03
 -0.4866782E-02  0.0000000E+00 -0.5050505E-02 -0.4717878E-09  0.0000000E+00 -0.4030459E-03
 -0.4827325E-02  0.0000000E+00 -0.5050505E-02 -0.5272809E-09  0.0000000E+00 -0.4030462E-03
 -0.4769372E-02  0.0000000E+00 -0.5050505E-02 -0.5865221E-09  0.0000000E+00 -0.4030466E-03
 -0.4690458E-02  0.0000000E+00 -0.5050505E-02 -0.6496506E-09  0.0000000E+00 -0.4030470E-03
 -0.4611543E-02  0.0000000E+00 -0.5050505E-02 -0.7168070E-09  0.0000000E+00 -0.4030475E-03
 -0.4503035E-02  0.0000000E+00 -0.5050505E-02 -0.7881410E-09  0.0000000E+00 -0.4030480E-03
 -0.4345206E-02  0.0000000E+00 -0.5050505E-02 -0.8638224E-09  0.0000000E+00 -0.4030486E-03
 -0.4187378E-02  0.0000000E+00 -0.5050505E-02 -0.9440341E-09  0.0000000E+00 -0.4030492E-03
 -0.3985156E-02  0.0000000E+00 -0.5050505E-02 -0.1028973E-08  0.0000000E+00 -0.4030499E-03
 -0.3669499E-02  0.0000000E+00 -0.5050505E-02 -0.1118863E-08  0.0000000E+00 -0.4030507E-03
 -0.3353842E-02  0.0000000E+00 -0.5050505E-02 -0.1213951E-08  0.0000000E+00 -0.4030515E-03
 -0.2978990E-02  0.0000000E+00 -0.5050505E-02 -0.1314516E-08  0.0000000E+00 -0.4030524E-03
 -0.2347676E-02  0.0000000E+00 -0.5050505E-02 -0.1420871E-08  0.0000000E+00 -0.4030533E-03
 -0.1716362E-02  0.0000000E+00 -0.5050505E-02 -0.1533369E-08  0.0000000E+00 -0.4030544E-03
 -0.1025842E-02  0.0000000E+00 -0.5050505E-02 -0.1652413E-08  0.0000000E+00 -0.4030555E-03
  0.2367855E-03  0.0000000E+00 -0.5050505E-02 -0.1778458E-08  0.0000000E+00 -0.4030567E-03
  0.1499413E-02  0.0000000E+00 -0.5050505E-02 -0.1912017E-08  0.0000000E+00 -0.4030579E-03
  0.2762042E-02  0.0000000E+00 -0.5050505E-02 -0.2053682E-08  0.0000000E+00 -0.4030593E-03
 -0.5050505E-02  0.0000000E+00 -0.5050505E-02 -0.2204133E-08  0.0000000E+00 -0.4030608E-03
 -0.5050505E-02  0.0000000E+00 -0.5050505E-02 -0.2364143E-08  0.0000000E+00 -0.4030624E-03
 -0.5050505E-02  0.0000000E+00 -0.5050505E-02 -0.2534595E-08  0.0000000E+00 -0.4030641E-03
 -0.5050505E-02  0.0000000E+00 -0.5050505E-02 -0.2716503E-08  0.0000000E+00 -0.4030659E-03
 -0.5050505E-02  0.0000000E+00 -0.5050505E-02 -0.2911034E-08  0.0000000E+00 -0.4030679E-03
 -0.5050505E-02  0.0000000E+00 -0.5050505E-02 -0.3119532E-08  0.0000000E+00 -0.4030700E-03
 -0.5050505E-02  0.0000000E+00 -0.5050505E-02 -0.3343546E-08  0.0000000E+00 -0.4030722E-03
 -0.5050504E-02  0.0000000E+00 -0.5050505E-02 -0.3584862E-08  0.0000000E+00 -0.4030747E-03
 -0.5050501E-02  0.0000000E+00 -0.5050505E-02 -0.3845550E-08  0.0000000E+00 -0.4030772E-03
 -0.5050495E-02  0.0000000E+00 -0.5050505E-02 -0.4128007E-08  0.0000000E+00 -0.4030800E-03
 -0.5050482E-02  0.0000000E+00 -0.5050505E-02 -0.4435019E-08  0.0000000E+00 -0.4030830E-03
 -0.5050449E-02  0.0000000E+00 -0.5050505E-02 -0.4769833E-08  0.0000000E+00 -0.4030862E-03
 -0.5050376E-02  0.0000000E+00 -0.5050505E-02 -0.5136244E-08  0.0000000E+00 -0.4030896E-03
 -0.5050299E-02  0.0000000E+00 -0.5050505E-02 -0.5538703E-08  0.0000000E+00 -0.4030934E-03
 -0.5050178E-02  0.0000000E+00 -0.5050505E-02 -0.5982443E-08  0.0000000E+00 -0.4030974E-03
 -0.5050018E-02  0.0000000E+00 -0.5050505E-02 -0.6473643E-08  0.0000000E+00 -0.4031017E-03
 -0.5049710E-02  0.0000000E+00 -0.5050505E-02 -0.7019628E-08  0.0000000E+00 -0.4031064E-03
 -0.5049253E-02  0.0000000E+00 -0.5050505E-02 -0.7629119E-08  0.0000000E+00 -0.4031115E-03
 -0.5048636E-02  0.0000000E+00 -0.5050505E-02 -0.8312553E-08  0.0000000E+00 -0.4031170E-03
 -0.5047442E-02  0.0000000E+00 -0.5050505E-02 -0.9082477E-08  0.0000000E+00 -0.4031230E-03
 -0.5045727E-02  0.0000000E+00 -0.5050505E-02 -0.9954067E-08  0.0000000E+00 -0.4031296E-03
 -0.5043261E-02  0.0000000E+00 -0.5050505E-02 -0.1094578E-07  0.0000000E+00 -0.4031369E-03
 -0.5038714E-02  0.0000000E+00 -0.5050505E-02 -0.1208020E-07  0.0000000E+00 -0.4031448E-03
 -0.5032318E-02  0.0000000E+00 -0.5050505E-02 -0.1338519E-07  0.0000000E+00 -0.4031537E-03
 -0.5022454E-02  0.0000000E+00 -0.5050505E-02 -0.1489534E-07  0.0000000E+00 -0.4031634E-03
 -0.5012589E-02  0.0000000E+00 -0.5050505E-02 -0.1665394E-07  0.0000000E+00 -0.4031743E-03
 -0.5002725E-02  0.0000000E+00 -0.5050505E-02 -0.1871568E-07  0.0000000E+00 -0.4031865E-03
 -0.4992860E-02  0.0000000E+00 -0.5050505E-02 -0.2115027E-07  0.0000000E+00 -0.4032003E-03
 -0.4976523E-02  0.0000000E+00 -0.5050505E-02 -0.2404747E-07  0.0000000E+00 -0.4032158E-03
 -0.4956794E-02  0.0000000E+00 -0.5050505E-02 -0.2752420E-07  0.0000000E+00 -0.4032335E-03
 -0.4937066E-02  0.0000000E+00 -0.5050505E-02 -0.3173454E-07  0.0000000E+00 -0.4032539E-03
 -0.4906239E-02  0.0000000E+00 -0.5050505E-02 -0.3688431E-07  0.0000000E+00 -0.4032773E-03
 -0.4866782E-02  0.0000000E+00 -0.5050505E-02 -0.4325248E-07  0.0000000E+00 -0.4033047E-03
 -0.4827325E-02  0.0000000E+00 -0.5050505E-02 -0.5122328E-07  0.0000000E+00 -0.4033368E-03
 -0.4769372E-02  0.0000000E+00 -0.5050505E-02 -0.6133543E-07  0.0000000E+00 -0.4033750E-03
 -0.4690458E-02  0.0000000E+00 -0.5050505E-02 -0.7435951E-07  0.0000000E+00 -0.4034207E-03
 -0.4611543E-02  0.0000000E+00 -0.5050505E-02 -0.9142248E-07  0.0000000E+00 -0.4034764E-03
 -0.4503035E-02  0.0000000E+00 -0.5050505E-02 -0.1142144E-06  0.0000000E+00 -0.4035449E-03
 -0.4345206E-02  0.0000000E+00 -0.5050505E-02 -0.1453425E-06  0.0000000E+00 -0.4036306E-03
 -0.4187378E-02  0.0000000E+00 -0.5050505E-02 -0.1889616E-06  0.0000000E+00 -0.4037396E-03
 -0.3985156E-02  0.0000000E+00 -0.5050505E-02 -0.2519404E-06  0.0000000E+00 -0.4038811E-03
 -0.3669499E-02  0.0000000E+00 -0.5050505E-02 -0.3461249E-06  0.0000000E+00 -0.4040686E-03
 -0.3353842E-02  0.0000000E+00 -0.5050505E-02 -0.4929575E-06  0.0000000E+00 -0.4043229E-03
 -0.2978990E-02  0.0000000E+00 -0.5050505E-02 -0.7334404E-06  0.0000000E+00 -0.4046751E-03
 -0.2347676E-02  0.0000000E+00 -0.5050505E-02 -0.1150947E-05  0.0000000E+00 -0.4051691E-03
 -0.1716362E-02  0.0000000E+00 -0.5050505E-02 -0.1926720E-05  0.0000000E+00 -0.4058497E-03
 -0.1025842E-02  0.0000000E+00 -0.5050505E-02 -0.3483189E-05  0.0000000E+00 -0.4066704E-03
  0.2367855E-03  0.0000000E+00 -0.5050505E-02 -0.6874556E-05  0.0000000E+00 -0.4070122E-03
  0.1499413E-02  0.0000000E+00 -0.5050505E-02 -0.1489827E-04  0.0000000E+00 -0.4033611E-03
  0.5287294E-02  0.0000000E+00 -0.5050505E-02 -0.3534250E-04  0.0000000E+00 -0.3783428E-03
 -0.5050505E-02  0.0000000E+00 -0.5050505E-02  0.4643063E-11  0.0000000E+00 -0.4024855E-03
 -0.5050505E-02  0.0000000E+00 -0.5050505E-02  0.1303737E-10  0.0000000E+00 -0.4024855E-03
 -0.5050505E-02  0.0000000E+00 -0.5050505E-02  0.2091300E-10  0.0000000E+00 -0.4024855E-03
 -0.5050505E-02  0.0000000E+00 -0.5050505E-02  0.2837110E-10  0.0000000E+00 -0.4024855E-03
 -0.5050505E-02  0.0000000E+00 -0.5050505E-02  0.3519532E-10  0.0000000E+00 -0.4024855E-03
 -0.5050505E-02  0.0000000E+00 -0.5050505E-02  0.4129565E-10  0.0000000E+00 -0.4024854E-03
 -0.5050504E-02  0.0000000E+00 -0.5050505E-02  0.4597043E-10  0.0000000E+00 -0.4024854E-03
 -0.5050501E-02  0.0000000E+00 -0.5050505E-02  0.4922932E-10  0.0000000E+00 -0.4024854E-03
 -0.5050495E-02  0.0000000E+00 -0.5050505E-02  0.5098127E-10  0.0000000E+00 -0.4024854E-03
 -0.5050482E-02  0.0000000E+00 -0.5050505E-02  0.5102084E-10  0.0000000E+00 -0.4024854E-03
 -0.5050449E-02  0.0000000E+00 -0.5050505E-02  0.4913347E-10  0.0000000E+00 -0.4024853E-03
 -0.5050376E-02  0.0000000E+00 -0.5050505E-02  0.4511052E-10  0.0000000E+00 -0.4024853E-03
 -0.5050299E-02  0.0000000E+00 -0.5050505E-02  0.3874461E-10  0.0000000E+00 -0.4024853E-03
 -0.5050178E-02  0.0000000E+00 -0.5050505E-02  0.2985606E-10  0.0000000E+00 -0.4024853E-03
 -0.5050018E-02  0.0000000E+00 -0.5050505E-02  0.1825137E-10  0.0000000E+00 -0.4024852E-03
 -0.5049710E-02  0.0000000E+00 -0.5050505E-02  0.3736832E-11  0.0000000E+00 -0.4024852E-03
 -0.5049253E-02  0.0000000E+00 -0.5050505E-02 -0.1393621E-10  0.0000000E+00 -0.4024852E-03
 -0.5048636E-02  0.0000000E+00 -0.5050505E-02 -0.3495552E-10  0.0000000E+00 -0.4024852E-03
 -0.5047442E-02  0.0000000E+00 -0.5050505E-02 -0.5966884E-10  0.0000000E+00 -0.4024853E-03
 -0.5045727E-02  0.0000000E+00 -0.5050505E-02 -0.8794803E-10  0.0000000E+00 -0.4024853E-03
 -0.5043261E-02  0.0000000E+00 -0.5050505E-02 -0.1199850E-09  0.0000000E+00 -0.4024853E-03
 -0.5038714E-02  0.0000000E+00 -0.5050505E-02 -0.1561295E-09  0.0000000E+00 -0.4024854E-03
 -0.5032318E-02  0.0000000E+00 -0.5050505E-02 -0.1965281E-09  0.0000000E+00 -0.4024854E-03
 -0.5022454E-02  0.0000000E+00 -0.5050505E-02 -0.2413244E-09  0.0000000E+00 -0.4024855E-03
 -0.5012589E-02  0.0000000E+00 -0.5050505E-02 -0.2906707E-09  0.0000000E+00 -0.4024856E-03
 -0.5002725E-02  0.0000000E+00 -0.5050505E-02 -0.3447467E-09  0.0000000E+00 -0.4024857E-03
 -0.4992860E-02  0.0000000E+00 -0.5050505E-02 -0.4037345E-09  0.0000000E+00 -0.4024859E-03
 -0.4976523E-02  0.0000000E+00 -0.5050505E-02 -0.4678118E-09  0.0000000E+00 -0.4024861E-03
 -0.4956794E-02  0.0000000E+00 -0.5050505E-02 -0.5371610E-09  0.0000000E+00 -0.4024863E-03
 -0.4937066E-02  0.0000000E+00 -0.5050505E-02 -0.6119706E-09  0.0000000E+00 -0.4024865E-03
 -0.4906239E-02  0.0000000E+00 -0.5050505E-02 -0.6924284E-09  0.0000000E+00 -0.4024868E-03
 -0.4866782E-02  0.0000000E+00 -0.5050505E-02 -0.7787293E-09  0.0000000E+00 -0.4024871E-03
 -0.4827325E-02  0.0000000E+00 -0.5050505E-02 -0.8710725E-09  0.0000000E+00 -0.4024874E-03
 -0.4769372E-02  0.0000000E+00 -0.5050505E-02 -0.9696597E-09  0.0000000E+00 -0.4024878E-03
 -0.4690458E-02  0.0000000E+00 -0.5050505E-02 -0.1074718E-08  0.0000000E+00 -0.4024882E-03
 -0.4611543E-02  0.0000000E+00 -0.5050505E-02 -0.1186484E-08  0.0000000E+00 -0.4024887E-03
 -0.4503035E-02  0.0000000E+00 -0.5050505E-02 -0.1305205E-08  0.0000000E+00 -0.4024892E-03
 -0.4345206E-02  0.0000000E+00 -0.5050505E-02 -0.1431155E-08  0.0000000E+00 -0.4024897E-03
 -0.4187378E-02  0.0000000E+00 -0.5050505E-02 -0.1564639E-08  0.0000000E+00 -0.4024904E-03
 -0.3985156E-02  0.0000000E+00 -0.5050505E-02 -0.1705982E-08  0.0000000E+00 -0.4024910E-03
 -0.3669499E-02  0.0000000E+00 -0.5050505E-02 -0.1855549E-08  0.0000000E+00 -0.4024918E-03
 -0.3353842E-02  0.0000000E+00 -0.5050505E-02 -0.2013750E-08  0.0000000E+00 -0.4024926E-03
 -0.2978990E-02  0.0000000E+00 -0.5050505E-02 -0.2181041E-08  0.0000000E+00 -0.4024934E-03
 -0.2347676E-02  0.0000000E+00 -0.5050505E-02 -0.2357933E-08  0.0000000E+00 -0.4024944E-03
 -0.1716362E-02  0.0000000E+00 -0.5050505E-02 -0.2545007E-08  0.0000000E+00 -0.4024954E-03
 -0.1025842E-02  0.0000000E+00 -0.5050505E-02 -0.2742927E-08  0.0000000E+00 -0.4024965E-03
  0.2367855E-03  0.0000000E+00 -0.5050505E-02 -0.2952444E-08  0.0000000E+00 -0.4024977E-03
  0.1499413E-02  0.0000000E+00 -0.5050505E-02 -0.3174404E-08  0.0000000E+00 -0.4024990E-03
  0.2762042E-02  0.0000000E+00 -0.5050505E-02 -0.3409773E-08  0.0000000E+00 -0.4025003E-03
 -0.5050505E-02  0.0000000E+00 -0.5050505E-02 -0.3659663E-08  0.0000000E+00 -0.4025018E-03
 -0.5050505E-02  0.0000000E+00 -0.5050505E-02 -0.3925348E-08  0.0000000E+00 -0.4025034E-03
 -0.5050505E-02  0.0000000E+00 -0.5050505E-02 -0.4208283E-08  0.0000000E+00 -0.4025051E-03
 -0.5050505E-02  0.0000000E+00 -0.5050505E-02 -0.4510133E-08  0.0000000E+00 -0.4025069E-03
 -0.5050505E-02  0.0000000E+00 -0.5050505E-02 -0.4832814E-08  0.0000000E+00 -0.4025088E-03
 -0.5050505E-02  0.0000000E+00 -0.5050505E-02 -0.5178529E-08  0.0000000E+00 -0.4025109E-03
 -0.5050505E-02  0.0000000E+00 -0.5050505E-02 -0.5549819E-08  0.0000000E+00 -0.4025131E-03
 -0.5050504E-02  0.0000000E+00 -0.5050505E-02 -0.5949615E-08  0.0000000E+00 -0.4025155E-03
 -0.5050501E-02  0.0000000E+00 -0.5050505E-02 -0.6381309E-08  0.0000000E+00 -0.4025180E-03
 -0.5050495E-02  0.0000000E+00 -0.5050505E-02 -0.6848831E-08  0.0000000E+00 -0.4025208E-03
 -0.5050482E-02  0.0000000E+00 -0.5050505E-02 -0.7356744E-08  0.0000000E+00 -0.4025237E-03
 -0.5050449E-02  0.0000000E+00 -0.5050505E-02 -0.7910361E-08  0.0000000E+00 -0.4025269E-03
 -0.5050376E-02  0.0000000E+00 -0.5050505E-02 -0.8515887E-08  0.0000000E+00 -0.4025303E-03
 -0.5050299E-02  0.0000000E+00 -0.5050505E-02 -0.9180590E-08  0.0000000E+00 -0.4025340E-03
 -0.5050178E-02  0.0000000E+00 -0.5050505E-02 -0.9913014E-08  0.0000000E+00 -0.4025379E-03
 -0.5050018E-02  0.0000000E+00 -0.5050505E-02 -0.1072324E-07  0.0000000E+00 -0.4025422E-03
 -0.5049710E-02  0.0000000E+00 -0.5050505E-02 -0.1162318E-07  0.0000000E+00 -0.4025468E-03
 -0.5049253E-02  0.0000000E+00 -0.5050505E-02 -0.1262704E-07  0.0000000E+00 -0.4025517E-03
 -0.5048636E-02  0.0000000E+00 -0.5050505E-02 -0.1375177E-07  0.0000000E+00 -0.4025572E-03
 -0.5047442E-02  0.0000000E+00 -0.5050505E-02 -0.1501770E-07  0.0000000E+00 -0.4025631E-03
 -0.5045727E-02  0.0000000E+00 -0.5050505E-02 -0.1644942E-07  0.0000000E+00 -0.4025695E-03
 -0.5043261E-02  0.0000000E+00 -0.5050505E-02 -0.1807673E-07  0.0000000E+00 -0.4025766E-03
 -0.5038714E-02  0.0000000E+00 -0.5050505E-02 -0.1993608E-07  0.0000000E+00 -0.4025843E-03
 -0.5032318E-02  0.0000000E+00 -0.5050505E-02 -0.2207225E-07  0.0000000E+00 -0.4025929E-03
 -0.5022454E-02  0.0000000E+00 -0.5050505E-02 -0.2454074E-07  0.0000000E+00 -0.4026024E-03
 -0.5012589E-02  0.0000000E+00 -0.5050505E-02 -0.2741081E-07  0.0000000E+00 -0.4026129E-03
 -0.5002725E-02  0.0000000E+00 -0.5050505E-02 -0.3076963E-07  0.0000000E+00 -0.4026246E-03
 -0.4992860E-02  0.0000000E+00 -0.5050505E-02 -0.3472789E-07  0.0000000E+00 -0.4026378E-03
 -0.4976523E-02  0.0000000E+00 -0.5050505E-02 -0.3942753E-07  0.0000000E+00 -0.4026526E-03
 -0.4956794E-02  0.0000000E+00 -0.5050505E-02 -0.4505249E-07  0.0000000E+00 -0.4026695E-03
 -0.4937066E-02  0.0000000E+00 -0.5050505E-02 -0.5184380E-07  0.0000000E+00 -0.4026887E-03
 -0.4906239E-02  0.0000000E+00 -0.5050505E-02 -0.6012131E-07  0.0000000E+00 -0.4027107E-03
 -0.4866782E-02  0.0000000E+00 -0.5050505E-02 -0.7031517E-07  0.0000000E+00 -0.4027362E-03
 -0.4827325E-02  0.0000000E+00 -0.5050505E-02 -0.8301244E-07  0.0000000E+00 -0.4027658E-03
 -0.4769372E-02  0.0000000E+00 -0.5050505E-02 -0.9902734E-07  0.0000000E+00 -0.4028006E-03
 -0.4690458E-02  0.0000000E+00 -0.5050505E-02 -0.1195093E-06  0.0000000E+00 -0.4028418E-03
 -0.4611543E-02  0.0000000E+00 -0.5050505E-02 -0.1461126E-06  0.0000000E+00 -0.4028910E-03
 -0.4503035E-02  0.0000000E+00 -0.5050505E-02 -0.1812698E-06  0.0000000E+00 -0.4029504E-03
 -0.4345206E-02  0.0000000E+00 -0.5050505E-02 -0.2286420E-06  0.0000000E+00 -0.4030226E-03
 -0.4187378E-02  0.0000000E+00 -0.5050505E-02 -0.2938819E-06  0.0000000E+00 -0.4031112E-03
 -0.3985156E-02  0.0000000E+00 -0.5050505E-02 -0.3859600E-06  0.0000000E+00 -0.4032208E-03
 -0.3669499E-02  0.0000000E+00 -0.5050505E-02 -0.5195320E-06  0.0000000E+00 -0.4033563E-03
 -0.3353842E-02  0.0000000E+00 -0.5050505E-02 -0.7192519E-06  0.0000000E+00 -0.4035222E-03
 -0.2978990E-02  0.0000000E+00 -0.5050505E-02 -0.1027723E-05  0.0000000E+00 -0.4037176E-03
 -0.2347676E-02  0.0000000E+00 -0.5050505E-02 -0.1519966E-05  0.0000000E+00 -0.4039221E-03
 -0.1716362E-02  0.0000000E+00 -0.5050505E-02 -0.2327827E-05  0.0000000E+00 -0.4040549E-03
 -0.1025842E-02  0.0000000E+00 -0.5050505E-02 -0.3670419E-05  0.0000000E+00 -0.4038633E-03
  0.2367855E-03  0.0000000E+00 -0.5050505E-02 -0.5833400E-05  0.0000000E+00 -0.4026552E-03
  0.1499413E-02  0.0000000E+00 -0.5050505E-02 -0.8760183E-05  0.0000000E+00 -0.3988614E-03
  0.5287294E-02  0.0000000E+00 -0.5050505E-02 -0.9586715E-05  0.0000000E+00 -0.3908081E-03
 -0.5050505E-02  0.0000000E+00 -0.5050505E-02  0.6751656E-11  0.0000000E+00 -0.4016682E-03
 -0.5050505E-02  0.0000000E+00 -0.5050505E-02  0.1927924E-10  0.0000000E+00 -0.4016682E-03
 -0.5050505E-02  0.0000000E+00 -0.5050505E-02  0.3098407E-10  0.0000000E+00 -0.4016682E-03
 -0.5050505E-02  0.0000000E+00 -0.5050505E-02  0.4207297E-10  0.0000000E+00 -0.4016681E-03
 -0.5050505E-02  0.0000000E+00 -0.5050505E-02  0.5233475E-10  0.0000000E+00 -0.4016681E-03
 -0.5050505E-02  0.0000000E+00 -0.5050505E-02  0.6131659E-10  0.0000000E+00 -0.4016681E-03
 -0.5050504E-02  0.0000000E+00 -0.5050505E-02  0.6850148E-10  0.0000000E+00 -0.4016681E-03
 -0.5050501E-02  0.0000000E+00 -0.5050505E-02  0.7375425E-10  0.0000000E+00 -0.4016681E-03
 -0.5050495E-02  0.0000000E+00 -0.5050505E-02  0.7684844E-10  0.0000000E+00 -0.4016680E-03
 -0.5050482E-02  0.0000000E+00 -0.5050505E-02  0.7751473E-10  0.0000000E+00 -0.4016680E-03
 -0.5050449E-02  0.0000000E+00 -0.5050505E-02  0.7546933E-10  0.0000000E+00 -0.4016680E-03
 -0.5050376E-02  0.0000000E+00 -0.5050505E-02  0.7042442E-10  0.0000000E+00 -0.4016679E-03
 -0.5050299E-02  0.0000000E+00 -0.5050505E-02  0.6208568E-10  0.0000000E+00 -0.4016679E-03
 -0.5050178E-02  0.0000000E+00 -0.5050505E-02  0.5019467E-10  0.0000000E+00 -0.4016679E-03
 -0.5050018E-02  0.0000000E+00 -0.5050505E-02  0.3448396E-10  0.0000000E+00 -0.4016679E-03
 -0.5049710E-02  0.0000000E+00 -0.5050505E-02  0.1468208E-10  0.0000000E+00 -0.4016678E-03
 -0.5049253E-02  0.0000000E+00 -0.5050505E-02 -0.9519747E-11  0.0000000E+00 -0.4016678E-03
 -0.5048636E-02  0.0000000E+00 -0.5050505E-02 -0.3851680E-10  0.0000000E+00 -0.4016678E-03
 -0.5047442E-02  0.0000000E+00 -0.5050505E-02 -0.7254389E-10  0.0000000E+00 -0.4016678E-03
 -0.5045727E-02  0.0000000E+00 -0.5050505E-02 -0.1116011E-09  0.0000000E+00 -0.4016678E-03
 -0.5043261E-02  0.0000000E+00 -0.5050505E-02 -0.1560416E-09  0.0000000E+00 -0.4016679E-03
 -0.5038714E-02  0.0000000E+00 -0.5050505E-02 -0.2062645E-09  0.0000000E+00 -0.4016679E-03
 -0.5032318E-02  0.0000000E+00 -0.5050505E-02 -0.2624548E-09  0.0000000E+00 -0.4016680E-03
 -0.5022454E-02  0.0000000E+00 -0.5050505E-02 -0.3247996E-09  0.0000000E+00 -0.4016680E-03
 -0.5012589E-02  0.0000000E+00 -0.5050505E-02 -0.3935195E-09  0.0000000E+00 -0.4016681E-03
 -0.5002725E-02  0.0000000E+00 -0.5050505E-02 -0.4688678E-09  0.0000000E+00 -0.4016682E-03
 -0.4992860E-02  0.0000000E+00 -0.5050505E-02 -0.5511068E-09  0.0000000E+00 -0.4016684E-03
 -0.4976523E-02  0.0000000E+00 -0.5050505E-02 -0.6404898E-09  0.0000000E+00 -0.4016685E-03
 -0.4956794E-02  0.0000000E+00 -0.5050505E-02 -0.7372679E-09  0.0000000E+00 -0.4016687E-03
 -0.4937066E-02  0.0000000E+00 -0.5050505E-02 -0.8416976E-09  0.0000000E+00 -0.4016689E-03