title = "dataset feddes"
variables = "x", "y", "z", "vx", "vy", "vz"
zone t = "velocities, solution time =  5.500E+01 days        " i =   99, j =   99, k =    1,  f=point
 -0.5050505E-02  0.0000000E+00 -0.5050505E-02  0.2968788E-07  0.0000000E+00 -0.1036918E-03
 -0.5050505E-02  0.0000000E+00 -0.5050505E-02  0.8907311E-07  0.0000000E+00 -0.1035715E-03
 -0.5050505E-02  0.0000000E+00 -0.5050505E-02  0.1484873E-06  0.0000000E+00 -0.1033310E-03
 -0.5050505E-02  0.0000000E+00 -0.5050505E-02  0.2079499E-06  0.0000000E+00 -0.1029701E-03
 -0.5050505E-02  0.0000000E+00 -0.5050505E-02  0.2674799E-06  0.0000000E+00 -0.1024887E-03
 -0.5050505E-02  0.0000000E+00 -0.5050505E-02  0.3270951E-06  0.0000000E+00 -0.1018867E-03
 -0.5050504E-02  0.0000000E+00 -0.5050505E-02  0.3868118E-06  0.0000000E+00 -0.1011640E-03
 -0.5050501E-02  0.0000000E+00 -0.5050505E-02  0.4466444E-06  0.0000000E+00 -0.1003204E-03
 -0.5050495E-02  0.0000000E+00 -0.5050505E-02  0.5066052E-06  0.0000000E+00 -0.9935561E-04
 -0.5050482E-02  0.0000000E+00 -0.5050505E-02  0.5667035E-06  0.0000000E+00 -0.9826945E-04
 -0.5050449E-02  0.0000000E+00 -0.5050505E-02  0.6269461E-06  0.0000000E+00 -0.9706169E-04
 -0.5050376E-02  0.0000000E+00 -0.5050505E-02  0.6873364E-06  0.0000000E+00 -0.9573207E-04
 -0.5050299E-02  0.0000000E+00 -0.5050505E-02  0.7478745E-06  0.0000000E+00 -0.9428037E-04
 -0.5050178E-02  0.0000000E+00 -0.5050505E-02  0.8085571E-06  0.0000000E+00 -0.9270636E-04
 -0.5050018E-02  0.0000000E+00 -0.5050505E-02  0.8693768E-06  0.0000000E+00 -0.9100981E-04
 -0.5049710E-02  0.0000000E+00 -0.5050505E-02  0.9303227E-06  0.0000000E+00 -0.8919054E-04
 -0.5049253E-02  0.0000000E+00 -0.5050505E-02  0.9913799E-06  0.0000000E+00 -0.8724840E-04
 -0.5048636E-02  0.0000000E+00 -0.5050505E-02  0.1052530E-05  0.0000000E+00 -0.8518326E-04
 -0.5047442E-02  0.0000000E+00 -0.5050505E-02  0.1113749E-05  0.0000000E+00 -0.8299505E-04
 -0.5045727E-02  0.0000000E+00 -0.5050505E-02  0.1175011E-05  0.0000000E+00 -0.8068377E-04
 -0.5043261E-02  0.0000000E+00 -0.5050505E-02  0.1236286E-05  0.0000000E+00 -0.7824945E-04
 -0.5038714E-02  0.0000000E+00 -0.5050505E-02  0.1297540E-05  0.0000000E+00 -0.7569222E-04
 -0.5032318E-02  0.0000000E+00 -0.5050505E-02  0.1358737E-05  0.0000000E+00 -0.7301227E-04
 -0.5022454E-02  0.0000000E+00 -0.5050505E-02  0.1419837E-05  0.0000000E+00 -0.7020989E-04
 -0.5012589E-02  0.0000000E+00 -0.5050505E-02  0.1480800E-05  0.0000000E+00 -0.6728542E-04
 -0.5002725E-02  0.0000000E+00 -0.5050505E-02  0.1541588E-05  0.0000000E+00 -0.6423932E-04
 -0.4992860E-02  0.0000000E+00 -0.5050505E-02  0.1602161E-05  0.0000000E+00 -0.6107212E-04
 -0.4976523E-02  0.0000000E+00 -0.5050505E-02  0.1662488E-05  0.0000000E+00 -0.5778442E-04
 -0.4956794E-02  0.0000000E+00 -0.5050505E-02  0.1722550E-05  0.0000000E+00 -0.5437689E-04
 -0.4937066E-02  0.0000000E+00 -0.5050505E-02  0.1782342E-05  0.0000000E+00 -0.5085021E-04
 -0.4906239E-02  0.0000000E+00 -0.5050505E-02  0.1841896E-05  0.0000000E+00 -0.4720505E-04
 -0.4866782E-02  0.0000000E+00 -0.5050505E-02  0.1901289E-05  0.0000000E+00 -0.4344198E-04
 -0.4827325E-02  0.0000000E+00 -0.5050505E-02  0.1960686E-05  0.0000000E+00 -0.3956132E-04
 -0.4769372E-02  0.0000000E+00 -0.5050505E-02  0.2020389E-05  0.0000000E+00 -0.3556292E-04
 -0.4690458E-02  0.0000000E+00 -0.5050505E-02  0.2080936E-05  0.0000000E+00 -0.3144581E-04
 -0.4611543E-02  0.0000000E+00 -0.5050505E-02  0.2143268E-05  0.0000000E+00 -0.2720754E-04
 -0.4503035E-02  0.0000000E+00 -0.5050505E-02  0.2209016E-05  0.0000000E+00 -0.2284308E-04
 -0.4345206E-02  0.0000000E+00 -0.5050505E-02  0.2281018E-05  0.0000000E+00 -0.1834297E-04
 -0.4187378E-02  0.0000000E+00 -0.5050505E-02  0.2364238E-05  0.0000000E+00 -0.1368994E-04
 -0.3985156E-02  0.0000000E+00 -0.5050505E-02  0.2467496E-05  0.0000000E+00 -0.8852986E-05
 -0.3669499E-02  0.0000000E+00 -0.5050505E-02  0.2606876E-05  0.0000000E+00 -0.3776307E-05
 -0.3353842E-02  0.0000000E+00 -0.5050505E-02  0.2813072E-05  0.0000000E+00  0.1650204E-05
 -0.2978990E-02  0.0000000E+00 -0.5050505E-02  0.3148813E-05  0.0000000E+00  0.7629202E-05
 -0.2347676E-02  0.0000000E+00 -0.5050505E-02  0.3757175E-05  0.0000000E+00  0.1456207E-04
 -0.1716362E-02  0.0000000E+00 -0.5050505E-02  0.5001033E-05  0.0000000E+00  0.2336211E-04
 -0.1025842E-02  0.0000000E+00 -0.5050505E-02  0.7930375E-05  0.0000000E+00  0.3637025E-04
  0.2367855E-03  0.0000000E+00 -0.5050505E-02 -0.6584158E-05  0.0000000E+00  0.3772290E-04
  0.1499413E-02  0.0000000E+00 -0.5050505E-02 -0.3706543E-05  0.0000000E+00  0.2736619E-04
  0.2762042E-02  0.0000000E+00 -0.5050505E-02 -0.2553984E-05  0.0000000E+00  0.2107080E-04
 -0.5050505E-02  0.0000000E+00 -0.5050505E-02 -0.2061469E-05  0.0000000E+00  0.1643242E-04
 -0.5050505E-02  0.0000000E+00 -0.5050505E-02 -0.1855713E-05  0.0000000E+00  0.1249773E-04
 -0.5050505E-02  0.0000000E+00 -0.5050505E-02 -0.1789719E-05  0.0000000E+00  0.8837680E-05
 -0.5050505E-02  0.0000000E+00 -0.5050505E-02 -0.1799835E-05  0.0000000E+00  0.5235335E-05
 -0.5050505E-02  0.0000000E+00 -0.5050505E-02 -0.1855123E-05  0.0000000E+00  0.1569429E-05
 -0.5050505E-02  0.0000000E+00 -0.5050505E-02 -0.1935813E-05  0.0000000E+00 -0.2226509E-05
 -0.5050505E-02  0.0000000E+00 -0.5050505E-02 -0.2024235E-05  0.0000000E+00 -0.6187661E-05
 -0.5050504E-02  0.0000000E+00 -0.5050505E-02 -0.2105019E-05  0.0000000E+00 -0.1032007E-04
 -0.5050501E-02  0.0000000E+00 -0.5050505E-02 -0.2166635E-05  0.0000000E+00 -0.1459715E-04
 -0.5050495E-02  0.0000000E+00 -0.5050505E-02 -0.2203951E-05  0.0000000E+00 -0.1897557E-04
 -0.5050482E-02  0.0000000E+00 -0.5050505E-02 -0.2217036E-05  0.0000000E+00 -0.2340685E-04
 -0.5050449E-02  0.0000000E+00 -0.5050505E-02 -0.2208952E-05  0.0000000E+00 -0.2784553E-04
 -0.5050376E-02  0.0000000E+00 -0.5050505E-02 -0.2183859E-05  0.0000000E+00 -0.3225333E-04
 -0.5050299E-02  0.0000000E+00 -0.5050505E-02 -0.2145865E-05  0.0000000E+00 -0.3660015E-04
 -0.5050178E-02  0.0000000E+00 -0.5050505E-02 -0.2098491E-05  0.0000000E+00 -0.4086351E-04
 -0.5050018E-02  0.0000000E+00 -0.5050505E-02 -0.2044525E-05  0.0000000E+00 -0.4502724E-04
 -0.5049710E-02  0.0000000E+00 -0.5050505E-02 -0.1986072E-05  0.0000000E+00 -0.4908003E-04
 -0.5049253E-02  0.0000000E+00 -0.5050505E-02 -0.1924668E-05  0.0000000E+00 -0.5301423E-04
 -0.5048636E-02  0.0000000E+00 -0.5050505E-02 -0.1861417E-05  0.0000000E+00 -0.5682485E-04
 -0.5047442E-02  0.0000000E+00 -0.5050505E-02 -0.1797096E-05  0.0000000E+00 -0.6050876E-04
 -0.5045727E-02  0.0000000E+00 -0.5050505E-02 -0.1732248E-05  0.0000000E+00 -0.6406419E-04
 -0.5043261E-02  0.0000000E+00 -0.5050505E-02 -0.1667254E-05  0.0000000E+00 -0.6749029E-04
 -0.5038714E-02  0.0000000E+00 -0.5050505E-02 -0.1602374E-05  0.0000000E+00 -0.7078686E-04
 -0.5032318E-02  0.0000000E+00 -0.5050505E-02 -0.1537792E-05  0.0000000E+00 -0.7395416E-04
 -0.5022454E-02  0.0000000E+00 -0.5050505E-02 -0.1473631E-05  0.0000000E+00 -0.7699276E-04
 -0.5012589E-02  0.0000000E+00 -0.5050505E-02 -0.1409978E-05  0.0000000E+00 -0.7990346E-04
 -0.5002725E-02  0.0000000E+00 -0.5050505E-02 -0.1346893E-05  0.0000000E+00 -0.8268720E-04
 -0.4992860E-02  0.0000000E+00 -0.5050505E-02 -0.1284416E-05  0.0000000E+00 -0.8534504E-04
 -0.4976523E-02  0.0000000E+00 -0.5050505E-02 -0.1222578E-05  0.0000000E+00 -0.8787812E-04
 -0.4956794E-02  0.0000000E+00 -0.5050505E-02 -0.1161398E-05  0.0000000E+00 -0.9028764E-04
 -0.4937066E-02  0.0000000E+00 -0.5050505E-02 -0.1100894E-05  0.0000000E+00 -0.9257483E-04
 -0.4906239E-02  0.0000000E+00 -0.5050505E-02 -0.1041081E-05  0.0000000E+00 -0.9474097E-04
 -0.4866782E-02  0.0000000E+00 -0.5050505E-02 -0.9819786E-06  0.0000000E+00 -0.9678738E-04
 -0.4827325E-02  0.0000000E+00 -0.5050505E-02 -0.9236114E-06  0.0000000E+00 -0.9871545E-04
 -0.4769372E-02  0.0000000E+00 -0.5050505E-02 -0.8660174E-06  0.0000000E+00 -0.1005266E-03
 -0.4690458E-02  0.0000000E+00 -0.5050505E-02 -0.8092559E-06  0.0000000E+00 -0.1022224E-03
 -0.4611543E-02  0.0000000E+00 -0.5050505E-02 -0.7534215E-06  0.0000000E+00 -0.1038045E-03
 -0.4503035E-02  0.0000000E+00 -0.5050505E-02 -0.6986667E-06  0.0000000E+00 -0.1052750E-03
 -0.4345206E-02  0.0000000E+00 -0.5050505E-02 -0.6452424E-06  0.0000000E+00 -0.1066361E-03
 -0.4187378E-02  0.0000000E+00 -0.5050505E-02 -0.5935697E-06  0.0000000E+00 -0.1078910E-03
 -0.3985156E-02  0.0000000E+00 -0.5050505E-02 -0.5443781E-06  0.0000000E+00 -0.1090439E-03
 -0.3669499E-02  0.0000000E+00 -0.5050505E-02 -0.4989843E-06  0.0000000E+00 -0.1101011E-03
 -0.3353842E-02  0.0000000E+00 -0.5050505E-02 -0.4598924E-06  0.0000000E+00 -0.1110728E-03
 -0.2978990E-02  0.0000000E+00 -0.5050505E-02 -0.4321884E-06  0.0000000E+00 -0.1119770E-03
 -0.2347676E-02  0.0000000E+00 -0.5050505E-02 -0.4270611E-06  0.0000000E+00 -0.1128479E-03
 -0.1716362E-02  0.0000000E+00 -0.5050505E-02 -0.4715382E-06  0.0000000E+00 -0.1137589E-03
 -0.1025842E-02  0.0000000E+00 -0.5050505E-02 -0.6380608E-06  0.0000000E+00 -0.1148838E-03
  0.2367855E-03  0.0000000E+00 -0.5050505E-02 -0.1142936E-05  0.0000000E+00 -0.1166898E-03
  0.1499413E-02  0.0000000E+00 -0.5050505E-02 -0.2702832E-05  0.0000000E+00 -0.1205904E-03
  0.5287294E-02  0.0000000E+00 -0.5050505E-02 -0.4270191E-04  0.0000000E+00 -0.9640400E-04
 -0.5050505E-02  0.0000000E+00 -0.5050505E-02  0.8907489E-07  0.0000000E+00 -0.1034959E-03
 -0.5050505E-02  0.0000000E+00 -0.5050505E-02  0.2672539E-06  0.0000000E+00 -0.1033752E-03
 -0.5050505E-02  0.0000000E+00 -0.5050505E-02  0.4455218E-06  0.0000000E+00 -0.1031339E-03
 -0.5050505E-02  0.0000000E+00 -0.5050505E-02  0.6239379E-06  0.0000000E+00 -0.1027719E-03
 -0.5050505E-02  0.0000000E+00 -0.5050505E-02  0.8025599E-06  0.0000000E+00 -0.1022890E-03
 -0.5050505E-02  0.0000000E+00 -0.5050505E-02  0.9814419E-06  0.0000000E+00 -0.1016851E-03
 -0.5050504E-02  0.0000000E+00 -0.5050505E-02  0.1160634E-05  0.0000000E+00 -0.1009601E-03
 -0.5050501E-02  0.0000000E+00 -0.5050505E-02  0.1340179E-05  0.0000000E+00 -0.1001138E-03
 -0.5050495E-02  0.0000000E+00 -0.5050505E-02  0.1520115E-05  0.0000000E+00 -0.9914588E-04
 -0.5050482E-02  0.0000000E+00 -0.5050505E-02  0.1700471E-05  0.0000000E+00 -0.9805618E-04
 -0.5050449E-02  0.0000000E+00 -0.5050505E-02  0.1881267E-05  0.0000000E+00 -0.9684443E-04
 -0.5050376E-02  0.0000000E+00 -0.5050505E-02  0.2062514E-05  0.0000000E+00 -0.9551039E-04
 -0.5050299E-02  0.0000000E+00 -0.5050505E-02  0.2244214E-05  0.0000000E+00 -0.9405379E-04
 -0.5050178E-02  0.0000000E+00 -0.5050505E-02  0.2426356E-05  0.0000000E+00 -0.9247439E-04
 -0.5050018E-02  0.0000000E+00 -0.5050505E-02  0.2608920E-05  0.0000000E+00 -0.9077196E-04
 -0.5049710E-02  0.0000000E+00 -0.5050505E-02  0.2791872E-05  0.0000000E+00 -0.8894629E-04
 -0.5049253E-02  0.0000000E+00 -0.5050505E-02  0.2975169E-05  0.0000000E+00 -0.8699721E-04
 -0.5048636E-02  0.0000000E+00 -0.5050505E-02  0.3158754E-05  0.0000000E+00 -0.8492458E-04
 -0.5047442E-02  0.0000000E+00 -0.5050505E-02  0.3342560E-05  0.0000000E+00 -0.8272831E-04
 -0.5045727E-02  0.0000000E+00 -0.5050505E-02  0.3526507E-05  0.0000000E+00 -0.8040836E-04
 -0.5043261E-02  0.0000000E+00 -0.5050505E-02  0.3710503E-05  0.0000000E+00 -0.7796476E-04
 -0.5038714E-02  0.0000000E+00 -0.5050505E-02  0.3894449E-05  0.0000000E+00 -0.7539761E-04
 -0.5032318E-02  0.0000000E+00 -0.5050505E-02  0.4078234E-05  0.0000000E+00 -0.7270709E-04
 -0.5022454E-02  0.0000000E+00 -0.5050505E-02  0.4261740E-05  0.0000000E+00 -0.6989345E-04
 -0.5012589E-02  0.0000000E+00 -0.5050505E-02  0.4444846E-05  0.0000000E+00 -0.6695704E-04
 -0.5002725E-02  0.0000000E+00 -0.5050505E-02  0.4627429E-05  0.0000000E+00 -0.6389829E-04
 -0.4992860E-02  0.0000000E+00 -0.5050505E-02  0.4809375E-05  0.0000000E+00 -0.6071773E-04
 -0.4976523E-02  0.0000000E+00 -0.5050505E-02  0.4990582E-05  0.0000000E+00 -0.5741597E-04
 -0.4956794E-02  0.0000000E+00 -0.5050505E-02  0.5170981E-05  0.0000000E+00 -0.5399368E-04
 -0.4937066E-02  0.0000000E+00 -0.5050505E-02  0.5350552E-05  0.0000000E+00 -0.5045159E-04
 -0.4906239E-02  0.0000000E+00 -0.5050505E-02  0.5529360E-05  0.0000000E+00 -0.4679045E-04
 -0.4866782E-02  0.0000000E+00 -0.5050505E-02  0.5707611E-05  0.0000000E+00 -0.4301095E-04
 -0.4827325E-02  0.0000000E+00 -0.5050505E-02  0.5885734E-05  0.0000000E+00 -0.3911362E-04
 -0.4769372E-02  0.0000000E+00 -0.5050505E-02  0.6064542E-05  0.0000000E+00 -0.3509871E-04
 -0.4690458E-02  0.0000000E+00 -0.5050505E-02  0.6245477E-05  0.0000000E+00 -0.3096588E-04
 -0.4611543E-02  0.0000000E+00 -0.5050505E-02  0.6431066E-05  0.0000000E+00 -0.2671379E-04
 -0.4503035E-02  0.0000000E+00 -0.5050505E-02  0.6625683E-05  0.0000000E+00 -0.2233933E-04
 -0.4345206E-02  0.0000000E+00 -0.5050505E-02  0.6836905E-05  0.0000000E+00 -0.1783640E-04
 -0.4187378E-02  0.0000000E+00 -0.5050505E-02  0.7077892E-05  0.0000000E+00 -0.1319374E-04
 -0.3985156E-02  0.0000000E+00 -0.5050505E-02  0.7371669E-05  0.0000000E+00 -0.8391508E-05
 -0.3669499E-02  0.0000000E+00 -0.5050505E-02  0.7759119E-05  0.0000000E+00 -0.3395755E-05
 -0.3353842E-02  0.0000000E+00 -0.5050505E-02  0.8314642E-05  0.0000000E+00  0.1857045E-05
 -0.2978990E-02  0.0000000E+00 -0.5050505E-02  0.9179812E-05  0.0000000E+00  0.7457416E-05
 -0.2347676E-02  0.0000000E+00 -0.5050505E-02  0.1064390E-04  0.0000000E+00  0.1350730E-04
 -0.1716362E-02  0.0000000E+00 -0.5050505E-02  0.1333197E-04  0.0000000E+00  0.2001496E-04
 -0.1025842E-02  0.0000000E+00 -0.5050505E-02  0.1871188E-04  0.0000000E+00  0.2625708E-04
  0.2367855E-03  0.0000000E+00 -0.5050505E-02 -0.1461667E-04  0.0000000E+00  0.2766816E-04
  0.1499413E-02  0.0000000E+00 -0.5050505E-02 -0.9404989E-05  0.0000000E+00  0.2418190E-04
  0.2762042E-02  0.0000000E+00 -0.5050505E-02 -0.7006260E-05  0.0000000E+00  0.2025536E-04
 -0.5050505E-02  0.0000000E+00 -0.5050505E-02 -0.5900534E-05  0.0000000E+00  0.1654986E-04
 -0.5050505E-02  0.0000000E+00 -0.5050505E-02 -0.5430152E-05  0.0000000E+00  0.1302797E-04
 -0.5050505E-02  0.0000000E+00 -0.5050505E-02 -0.5296139E-05  0.0000000E+00  0.9569383E-05
 -0.5050505E-02  0.0000000E+00 -0.5050505E-02 -0.5357886E-05  0.0000000E+00  0.6072807E-05
 -0.5050505E-02  0.0000000E+00 -0.5050505E-02 -0.5543630E-05  0.0000000E+00  0.2460615E-05
 -0.5050505E-02  0.0000000E+00 -0.5050505E-02 -0.5803847E-05  0.0000000E+00 -0.1320537E-05
 -0.5050505E-02  0.0000000E+00 -0.5050505E-02 -0.6085954E-05  0.0000000E+00 -0.5301424E-05
 -0.5050504E-02  0.0000000E+00 -0.5050505E-02 -0.6340242E-05  0.0000000E+00 -0.9481759E-05
 -0.5050501E-02  0.0000000E+00 -0.5050505E-02 -0.6530448E-05  0.0000000E+00 -0.1382437E-04
 -0.5050495E-02  0.0000000E+00 -0.5050505E-02 -0.6642365E-05  0.0000000E+00 -0.1827391E-04
 -0.5050482E-02  0.0000000E+00 -0.5050505E-02 -0.6678452E-05  0.0000000E+00 -0.2277325E-04
 -0.5050449E-02  0.0000000E+00 -0.5050505E-02 -0.6649816E-05  0.0000000E+00 -0.2727252E-04
 -0.5050376E-02  0.0000000E+00 -0.5050505E-02 -0.6570137E-05  0.0000000E+00 -0.3173209E-04
 -0.5050299E-02  0.0000000E+00 -0.5050505E-02 -0.6452299E-05  0.0000000E+00 -0.3612233E-04
 -0.5050178E-02  0.0000000E+00 -0.5050505E-02 -0.6307030E-05  0.0000000E+00 -0.4042197E-04
 -0.5050018E-02  0.0000000E+00 -0.5050505E-02 -0.6142667E-05  0.0000000E+00 -0.4461618E-04
 -0.5049710E-02  0.0000000E+00 -0.5050505E-02 -0.5965411E-05  0.0000000E+00 -0.4869487E-04
 -0.5049253E-02  0.0000000E+00 -0.5050505E-02 -0.5779755E-05  0.0000000E+00 -0.5265140E-04
 -0.5048636E-02  0.0000000E+00 -0.5050505E-02 -0.5588895E-05  0.0000000E+00 -0.5648155E-04
 -0.5047442E-02  0.0000000E+00 -0.5050505E-02 -0.5395077E-05  0.0000000E+00 -0.6018277E-04
 -0.5045727E-02  0.0000000E+00 -0.5050505E-02 -0.5199866E-05  0.0000000E+00 -0.6375372E-04
 -0.5043261E-02  0.0000000E+00 -0.5050505E-02 -0.5004349E-05  0.0000000E+00 -0.6719386E-04
 -0.5038714E-02  0.0000000E+00 -0.5050505E-02 -0.4809278E-05  0.0000000E+00 -0.7050322E-04
 -0.5032318E-02  0.0000000E+00 -0.5050505E-02 -0.4615172E-05  0.0000000E+00 -0.7368225E-04
 -0.5022454E-02  0.0000000E+00 -0.5050505E-02 -0.4422387E-05  0.0000000E+00 -0.7673163E-04
 -0.5012589E-02  0.0000000E+00 -0.5050505E-02 -0.4231171E-05  0.0000000E+00 -0.7965227E-04
 -0.5002725E-02  0.0000000E+00 -0.5050505E-02 -0.4041692E-05  0.0000000E+00 -0.8244519E-04
 -0.4992860E-02  0.0000000E+00 -0.5050505E-02 -0.3854066E-05  0.0000000E+00 -0.8511150E-04
 -0.4976523E-02  0.0000000E+00 -0.5050505E-02 -0.3668376E-05  0.0000000E+00 -0.8765239E-04
 -0.4956794E-02  0.0000000E+00 -0.5050505E-02 -0.3484678E-05  0.0000000E+00 -0.9006910E-04
 -0.4937066E-02  0.0000000E+00 -0.5050505E-02 -0.3303021E-05  0.0000000E+00 -0.9236289E-04
 -0.4906239E-02  0.0000000E+00 -0.5050505E-02 -0.3123446E-05  0.0000000E+00 -0.9453506E-04
 -0.4866782E-02  0.0000000E+00 -0.5050505E-02 -0.2946005E-05  0.0000000E+00 -0.9658695E-04
 -0.4827325E-02  0.0000000E+00 -0.5050505E-02 -0.2770766E-05  0.0000000E+00 -0.9851993E-04
 -0.4769372E-02  0.0000000E+00 -0.5050505E-02 -0.2597833E-05  0.0000000E+00 -0.1003354E-03
 -0.4690458E-02  0.0000000E+00 -0.5050505E-02 -0.2427370E-05  0.0000000E+00 -0.1020350E-03
 -0.4611543E-02  0.0000000E+00 -0.5050505E-02 -0.2259636E-05  0.0000000E+00 -0.1036201E-03
 -0.4503035E-02  0.0000000E+00 -0.5050505E-02 -0.2095049E-05  0.0000000E+00 -0.1050928E-03
 -0.4345206E-02  0.0000000E+00 -0.5050505E-02 -0.1934287E-05  0.0000000E+00 -0.1064550E-03
 -0.4187378E-02  0.0000000E+00 -0.5050505E-02 -0.1778475E-05  0.0000000E+00 -0.1077095E-03
 -0.3985156E-02  0.0000000E+00 -0.5050505E-02 -0.1629523E-05  0.0000000E+00 -0.1088595E-03
 -0.3669499E-02  0.0000000E+00 -0.5050505E-02 -0.1490781E-05  0.0000000E+00 -0.1099096E-03
 -0.3353842E-02  0.0000000E+00 -0.5050505E-02 -0.1368372E-05  0.0000000E+00 -0.1108662E-03
 -0.2978990E-02  0.0000000E+00 -0.5050505E-02 -0.1274056E-05  0.0000000E+00 -0.1117384E-03
 -0.2347676E-02  0.0000000E+00 -0.5050505E-02 -0.1231740E-05  0.0000000E+00 -0.1125388E-03
 -0.1716362E-02  0.0000000E+00 -0.5050505E-02 -0.1293204E-05  0.0000000E+00 -0.1132789E-03
 -0.1025842E-02  0.0000000E+00 -0.5050505E-02 -0.1578312E-05  0.0000000E+00 -0.1139433E-03
  0.2367855E-03  0.0000000E+00 -0.5050505E-02 -0.2383334E-05  0.0000000E+00 -0.1143535E-03
  0.1499413E-02  0.0000000E+00 -0.5050505E-02 -0.4484917E-05  0.0000000E+00 -0.1135306E-03
  0.5287294E-02  0.0000000E+00 -0.5050505E-02 -0.1001374E-04  0.0000000E+00 -0.1067273E-03
 -0.5050505E-02  0.0000000E+00 -0.5050505E-02  0.1485765E-06  0.0000000E+00 -0.1031084E-03
 -0.5050505E-02  0.0000000E+00 -0.5050505E-02  0.4457804E-06  0.0000000E+00 -0.1029871E-03
 -0.5050505E-02  0.0000000E+00 -0.5050505E-02  0.7431380E-06  0.0000000E+00 -0.1027443E-03
 -0.5050505E-02  0.0000000E+00 -0.5050505E-02  0.1040751E-05  0.0000000E+00 -0.1023800E-03
 -0.5050505E-02  0.0000000E+00 -0.5050505E-02  0.1338719E-05  0.0000000E+00 -0.1018941E-03
 -0.5050505E-02  0.0000000E+00 -0.5050505E-02  0.1637133E-05  0.0000000E+00 -0.1012864E-03
 -0.5050504E-02  0.0000000E+00 -0.5050505E-02  0.1936080E-05  0.0000000E+00 -0.1005568E-03
 -0.5050501E-02  0.0000000E+00 -0.5050505E-02  0.2235634E-05  0.0000000E+00 -0.9970507E-04
 -0.5050495E-02  0.0000000E+00 -0.5050505E-02  0.2535859E-05  0.0000000E+00 -0.9873095E-04
 -0.5050482E-02  0.0000000E+00 -0.5050505E-02  0.2836807E-05  0.0000000E+00 -0.9763418E-04
 -0.5050449E-02  0.0000000E+00 -0.5050505E-02  0.3138514E-05  0.0000000E+00 -0.9641449E-04
 -0.5050376E-02  0.0000000E+00 -0.5050505E-02  0.3440999E-05  0.0000000E+00 -0.9507160E-04
 -0.5050299E-02  0.0000000E+00 -0.5050505E-02  0.3744267E-05  0.0000000E+00 -0.9360522E-04
 -0.5050178E-02  0.0000000E+00 -0.5050505E-02  0.4048303E-05  0.0000000E+00 -0.9201508E-04
 -0.5050018E-02  0.0000000E+00 -0.5050505E-02  0.4353073E-05  0.0000000E+00 -0.9030090E-04
 -0.5049710E-02  0.0000000E+00 -0.5050505E-02  0.4658525E-05  0.0000000E+00 -0.8846245E-04
 -0.5049253E-02  0.0000000E+00 -0.5050505E-02  0.4964587E-05  0.0000000E+00 -0.8649951E-04
 -0.5048636E-02  0.0000000E+00 -0.5050505E-02  0.5271165E-05  0.0000000E+00 -0.8441191E-04
 -0.5047442E-02  0.0000000E+00 -0.5050505E-02  0.5578150E-05  0.0000000E+00 -0.8219951E-04
 -0.5045727E-02  0.0000000E+00 -0.5050505E-02  0.5885407E-05  0.0000000E+00 -0.7986223E-04
 -0.5043261E-02  0.0000000E+00 -0.5050505E-02  0.6192787E-05  0.0000000E+00 -0.7740007E-04
 -0.5038714E-02  0.0000000E+00 -0.5050505E-02  0.6500122E-05  0.0000000E+00 -0.7481307E-04
 -0.5032318E-02  0.0000000E+00 -0.5050505E-02  0.6807226E-05  0.0000000E+00 -0.7210138E-04
 -0.5022454E-02  0.0000000E+00 -0.5050505E-02  0.7113901E-05  0.0000000E+00 -0.6926520E-04
 -0.5012589E-02  0.0000000E+00 -0.5050505E-02  0.7419940E-05  0.0000000E+00 -0.6630486E-04
 -0.5002725E-02  0.0000000E+00 -0.5050505E-02  0.7725134E-05  0.0000000E+00 -0.6322076E-04
 -0.4992860E-02  0.0000000E+00 -0.5050505E-02  0.8029278E-05  0.0000000E+00 -0.6001341E-04
 -0.4976523E-02  0.0000000E+00 -0.5050505E-02  0.8332188E-05  0.0000000E+00 -0.5668341E-04
 -0.4956794E-02  0.0000000E+00 -0.5050505E-02  0.8633723E-05  0.0000000E+00 -0.5323147E-04
 -0.4937066E-02  0.0000000E+00 -0.5050505E-02  0.8933808E-05  0.0000000E+00 -0.4965838E-04
 -0.4906239E-02  0.0000000E+00 -0.5050505E-02  0.9232490E-05  0.0000000E+00 -0.4596500E-04
 -0.4866782E-02  0.0000000E+00 -0.5050505E-02  0.9530002E-05  0.0000000E+00 -0.4215224E-04
 -0.4827325E-02  0.0000000E+00 -0.5050505E-02  0.9826890E-05  0.0000000E+00 -0.3822103E-04
 -0.4769372E-02  0.0000000E+00 -0.5050505E-02  0.1012420E-04  0.0000000E+00 -0.3417223E-04
 -0.4690458E-02  0.0000000E+00 -0.5050505E-02  0.1042384E-04  0.0000000E+00 -0.3000661E-04
 -0.4611543E-02  0.0000000E+00 -0.5050505E-02  0.1072913E-04  0.0000000E+00 -0.2572469E-04
 -0.4503035E-02  0.0000000E+00 -0.5050505E-02  0.1104581E-04  0.0000000E+00 -0.2132656E-04
 -0.4345206E-02  0.0000000E+00 -0.5050505E-02  0.1138380E-04  0.0000000E+00 -0.1681161E-04
 -0.4187378E-02  0.0000000E+00 -0.5050505E-02  0.1176013E-04  0.0000000E+00 -0.1217814E-04
 -0.3985156E-02  0.0000000E+00 -0.5050505E-02  0.1220400E-04  0.0000000E+00 -0.7422965E-05
 -0.3669499E-02  0.0000000E+00 -0.5050505E-02  0.1276536E-04  0.0000000E+00 -0.2541700E-05
 -0.3353842E-02  0.0000000E+00 -0.5050505E-02  0.1352741E-04  0.0000000E+00  0.2475152E-05
 -0.2978990E-02  0.0000000E+00 -0.5050505E-02  0.1463575E-04  0.0000000E+00  0.7615817E-05
 -0.2347676E-02  0.0000000E+00 -0.5050505E-02  0.1633424E-04  0.0000000E+00  0.1279953E-04
 -0.1716362E-02  0.0000000E+00 -0.5050505E-02  0.1900886E-04  0.0000000E+00  0.1776435E-04
 -0.1025842E-02  0.0000000E+00 -0.5050505E-02  0.2316766E-04  0.0000000E+00  0.2178238E-04
  0.2367855E-03  0.0000000E+00 -0.5050505E-02 -0.1614031E-04  0.0000000E+00  0.2332380E-04
  0.1499413E-02  0.0000000E+00 -0.5050505E-02 -0.1231467E-04  0.0000000E+00  0.2228670E-04
  0.2762042E-02  0.0000000E+00 -0.5050505E-02 -0.1018055E-04  0.0000000E+00  0.2005431E-04
 -0.5050505E-02  0.0000000E+00 -0.5050505E-02 -0.9116849E-05  0.0000000E+00  0.1730453E-04
 -0.5050505E-02  0.0000000E+00 -0.5050505E-02 -0.8680904E-05  0.0000000E+00  0.1430103E-04
 -0.5050505E-02  0.0000000E+00 -0.5050505E-02 -0.8620536E-05  0.0000000E+00  0.1112999E-04
 -0.5050505E-02  0.0000000E+00 -0.5050505E-02 -0.8807163E-05  0.0000000E+00  0.7800761E-05
 -0.5050505E-02  0.0000000E+00 -0.5050505E-02 -0.9174198E-05  0.0000000E+00  0.4282545E-05
 -0.5050505E-02  0.0000000E+00 -0.5050505E-02 -0.9666163E-05  0.0000000E+00  0.5275941E-06
 -0.5050505E-02  0.0000000E+00 -0.5050505E-02 -0.1019755E-04  0.0000000E+00 -0.3499490E-05
 -0.5050504E-02  0.0000000E+00 -0.5050505E-02 -0.1066304E-04  0.0000000E+00 -0.7787842E-05
 -0.5050501E-02  0.0000000E+00 -0.5050505E-02 -0.1099682E-04  0.0000000E+00 -0.1227424E-04
 -0.5050495E-02  0.0000000E+00 -0.5050505E-02 -0.1118103E-04  0.0000000E+00 -0.1687524E-04
 -0.5050482E-02  0.0000000E+00 -0.5050505E-02 -0.1122864E-04  0.0000000E+00 -0.2151570E-04
 -0.5050449E-02  0.0000000E+00 -0.5050505E-02 -0.1116504E-04  0.0000000E+00 -0.2613787E-04
 -0.5050376E-02  0.0000000E+00 -0.5050505E-02 -0.1101691E-04  0.0000000E+00 -0.3070087E-04
 -0.5050299E-02  0.0000000E+00 -0.5050505E-02 -0.1080736E-04  0.0000000E+00 -0.3517703E-04
 -0.5050178E-02  0.0000000E+00 -0.5050505E-02 -0.1055467E-04  0.0000000E+00 -0.3954808E-04
 -0.5050018E-02  0.0000000E+00 -0.5050505E-02 -0.1027248E-04  0.0000000E+00 -0.4380218E-04
 -0.5049710E-02  0.0000000E+00 -0.5050505E-02 -0.9970720E-05  0.0000000E+00 -0.4793180E-04
 -0.5049253E-02  0.0000000E+00 -0.5050505E-02 -0.9656441E-05  0.0000000E+00 -0.5193232E-04
 -0.5048636E-02  0.0000000E+00 -0.5050505E-02 -0.9334597E-05  0.0000000E+00 -0.5580102E-04
 -0.5047442E-02  0.0000000E+00 -0.5050505E-02 -0.9008639E-05  0.0000000E+00 -0.5953649E-04
 -0.5045727E-02  0.0000000E+00 -0.5050505E-02 -0.8680959E-05  0.0000000E+00 -0.6313821E-04
 -0.5043261E-02  0.0000000E+00 -0.5050505E-02 -0.8353208E-05  0.0000000E+00 -0.6660624E-04
 -0.5038714E-02  0.0000000E+00 -0.5050505E-02 -0.8026524E-05  0.0000000E+00 -0.6994106E-04
 -0.5032318E-02  0.0000000E+00 -0.5050505E-02 -0.7701690E-05  0.0000000E+00 -0.7314343E-04
 -0.5022454E-02  0.0000000E+00 -0.5050505E-02 -0.7379243E-05  0.0000000E+00 -0.7621430E-04
 -0.5012589E-02  0.0000000E+00 -0.5050505E-02 -0.7059552E-05  0.0000000E+00 -0.7915475E-04
 -0.5002725E-02  0.0000000E+00 -0.5050505E-02 -0.6742868E-05  0.0000000E+00 -0.8196595E-04
 -0.4992860E-02  0.0000000E+00 -0.5050505E-02 -0.6429362E-05  0.0000000E+00 -0.8464914E-04
 -0.4976523E-02  0.0000000E+00 -0.5050505E-02 -0.6119154E-05  0.0000000E+00 -0.8720561E-04
 -0.4956794E-02  0.0000000E+00 -0.5050505E-02 -0.5812324E-05  0.0000000E+00 -0.8963666E-04
 -0.4937066E-02  0.0000000E+00 -0.5050505E-02 -0.5508938E-05  0.0000000E+00 -0.9194362E-04
 -0.4906239E-02  0.0000000E+00 -0.5050505E-02 -0.5209053E-05  0.0000000E+00 -0.9412783E-04
 -0.4866782E-02  0.0000000E+00 -0.5050505E-02 -0.4912736E-05  0.0000000E+00 -0.9619066E-04
 -0.4827325E-02  0.0000000E+00 -0.5050505E-02 -0.4620083E-05  0.0000000E+00 -0.9813349E-04
 -0.4769372E-02  0.0000000E+00 -0.5050505E-02 -0.4331235E-05  0.0000000E+00 -0.9995771E-04
 -0.4690458E-02  0.0000000E+00 -0.5050505E-02 -0.4046421E-05  0.0000000E+00 -0.1016648E-03
 -0.4611543E-02  0.0000000E+00 -0.5050505E-02 -0.3766001E-05  0.0000000E+00 -0.1032562E-03
 -0.4503035E-02  0.0000000E+00 -0.5050505E-02 -0.3490551E-05  0.0000000E+00 -0.1047335E-03
 -0.4345206E-02  0.0000000E+00 -0.5050505E-02 -0.3220992E-05  0.0000000E+00 -0.1060985E-03
 -0.4187378E-02  0.0000000E+00 -0.5050505E-02 -0.2958810E-05  0.0000000E+00 -0.1073529E-03
 -0.3985156E-02  0.0000000E+00 -0.5050505E-02 -0.2706438E-05  0.0000000E+00 -0.1084989E-03
 -0.3669499E-02  0.0000000E+00 -0.5050505E-02 -0.2467931E-05  0.0000000E+00 -0.1095385E-03
 -0.3353842E-02  0.0000000E+00 -0.5050505E-02 -0.2250182E-05  0.0000000E+00 -0.1104734E-03
 -0.2978990E-02  0.0000000E+00 -0.5050505E-02 -0.2065155E-05  0.0000000E+00 -0.1113038E-03
 -0.2347676E-02  0.0000000E+00 -0.5050505E-02 -0.1933874E-05  0.0000000E+00 -0.1120238E-03
 -0.1716362E-02  0.0000000E+00 -0.5050505E-02 -0.1893015E-05  0.0000000E+00 -0.1126103E-03
 -0.1025842E-02  0.0000000E+00 -0.5050505E-02 -0.2002625E-05  0.0000000E+00 -0.1129922E-03
  0.2367855E-03  0.0000000E+00 -0.5050505E-02 -0.2338264E-05  0.0000000E+00 -0.1129779E-03
  0.1499413E-02  0.0000000E+00 -0.5050505E-02 -0.2873391E-05  0.0000000E+00 -0.1121425E-03
  0.5287294E-02  0.0000000E+00 -0.5050505E-02 -0.2797704E-05  0.0000000E+00 -0.1100535E-03
 -0.5050505E-02  0.0000000E+00 -0.5050505E-02  0.2083757E-06  0.0000000E+00 -0.1025342E-03
 -0.5050505E-02  0.0000000E+00 -0.5050505E-02  0.6252019E-06  0.0000000E+00 -0.1024117E-03
 -0.5050505E-02  0.0000000E+00 -0.5050505E-02  0.1042254E-05  0.0000000E+00 -0.1021667E-03
 -0.5050505E-02  0.0000000E+00 -0.5050505E-02  0.1459679E-05  0.0000000E+00 -0.1017990E-03
 -0.5050505E-02  0.0000000E+00 -0.5050505E-02  0.1877622E-05  0.0000000E+00 -0.1013086E-03
 -0.5050505E-02  0.0000000E+00 -0.5050505E-02  0.2296218E-05  0.0000000E+00 -0.1006953E-03
 -0.5050504E-02  0.0000000E+00 -0.5050505E-02  0.2715591E-05  0.0000000E+00 -0.9995884E-04
 -0.5050501E-02  0.0000000E+00 -0.5050505E-02  0.3135851E-05  0.0000000E+00 -0.9909904E-04
 -0.5050495E-02  0.0000000E+00 -0.5050505E-02  0.3557094E-05  0.0000000E+00 -0.9811562E-04
 -0.5050482E-02  0.0000000E+00 -0.5050505E-02  0.3979395E-05  0.0000000E+00 -0.9700829E-04
 -0.5050449E-02  0.0000000E+00 -0.5050505E-02  0.4402808E-05  0.0000000E+00 -0.9577672E-04
 -0.5050376E-02  0.0000000E+00 -0.5050505E-02  0.4827368E-05  0.0000000E+00 -0.9442060E-04
 -0.5050299E-02  0.0000000E+00 -0.5050505E-02  0.5253082E-05  0.0000000E+00 -0.9293959E-04
 -0.5050178E-02  0.0000000E+00 -0.5050505E-02  0.5679935E-05  0.0000000E+00 -0.9133337E-04
 -0.5050018E-02  0.0000000E+00 -0.5050505E-02  0.6107883E-05  0.0000000E+00 -0.8960161E-04
 -0.5049710E-02  0.0000000E+00 -0.5050505E-02  0.6536856E-05  0.0000000E+00 -0.8774402E-04
 -0.5049253E-02  0.0000000E+00 -0.5050505E-02  0.6966756E-05  0.0000000E+00 -0.8576033E-04
 -0.5048636E-02  0.0000000E+00 -0.5050505E-02  0.7397457E-05  0.0000000E+00 -0.8365030E-04
 -0.5047442E-02  0.0000000E+00 -0.5050505E-02  0.7828805E-05  0.0000000E+00 -0.8141373E-04
 -0.5045727E-02  0.0000000E+00 -0.5050505E-02  0.8260616E-05  0.0000000E+00 -0.7905048E-04
 -0.5043261E-02  0.0000000E+00 -0.5050505E-02  0.8692683E-05  0.0000000E+00 -0.7656047E-04
 -0.5038714E-02  0.0000000E+00 -0.5050505E-02  0.9124767E-05  0.0000000E+00 -0.7394369E-04
 -0.5032318E-02  0.0000000E+00 -0.5050505E-02  0.9556610E-05  0.0000000E+00 -0.7120022E-04
 -0.5022454E-02  0.0000000E+00 -0.5050505E-02  0.9987929E-05  0.0000000E+00 -0.6833020E-04
 -0.5012589E-02  0.0000000E+00 -0.5050505E-02  0.1041843E-04  0.0000000E+00 -0.6533390E-04
 -0.5002725E-02  0.0000000E+00 -0.5050505E-02  0.1084779E-04  0.0000000E+00 -0.6221167E-04
 -0.4992860E-02  0.0000000E+00 -0.5050505E-02  0.1127573E-04  0.0000000E+00 -0.5896398E-04
 -0.4976523E-02  0.0000000E+00 -0.5050505E-02  0.1170194E-04  0.0000000E+00 -0.5559143E-04
 -0.4956794E-02  0.0000000E+00 -0.5050505E-02  0.1212617E-04  0.0000000E+00 -0.5209475E-04
 -0.4937066E-02  0.0000000E+00 -0.5050505E-02  0.1254826E-04  0.0000000E+00 -0.4847477E-04