title = "dataset feddes"
variables = "x", "y", "z", "vx", "vy", "vz"
zone t = "velocities, solution time =  5.800E+01 days        " i =   99, j =   99, k =    1,  f=point
 -0.5050505E-02  0.0000000E+00 -0.5050505E-02  0.4583762E-07  0.0000000E+00 -0.5981346E-04
 -0.5050505E-02  0.0000000E+00 -0.5050505E-02  0.1375556E-06  0.0000000E+00 -0.5962873E-04
 -0.5050505E-02  0.0000000E+00 -0.5050505E-02  0.2294034E-06  0.0000000E+00 -0.5925911E-04
 -0.5050505E-02  0.0000000E+00 -0.5050505E-02  0.3214692E-06  0.0000000E+00 -0.5870429E-04
 -0.5050505E-02  0.0000000E+00 -0.5050505E-02  0.4138411E-06  0.0000000E+00 -0.5796377E-04
 -0.5050505E-02  0.0000000E+00 -0.5050505E-02  0.5066071E-06  0.0000000E+00 -0.5703691E-04
 -0.5050504E-02  0.0000000E+00 -0.5050505E-02  0.5998543E-06  0.0000000E+00 -0.5592289E-04
 -0.5050501E-02  0.0000000E+00 -0.5050505E-02  0.6936689E-06  0.0000000E+00 -0.5462074E-04
 -0.5050495E-02  0.0000000E+00 -0.5050505E-02  0.7881362E-06  0.0000000E+00 -0.5312931E-04
 -0.5050482E-02  0.0000000E+00 -0.5050505E-02  0.8833407E-06  0.0000000E+00 -0.5144733E-04
 -0.5050449E-02  0.0000000E+00 -0.5050505E-02  0.9793663E-06  0.0000000E+00 -0.4957334E-04
 -0.5050376E-02  0.0000000E+00 -0.5050505E-02  0.1076297E-05  0.0000000E+00 -0.4750574E-04
 -0.5050299E-02  0.0000000E+00 -0.5050505E-02  0.1174218E-05  0.0000000E+00 -0.4524278E-04
 -0.5050178E-02  0.0000000E+00 -0.5050505E-02  0.1273216E-05  0.0000000E+00 -0.4278254E-04
 -0.5050018E-02  0.0000000E+00 -0.5050505E-02  0.1373380E-05  0.0000000E+00 -0.4012296E-04
 -0.5049710E-02  0.0000000E+00 -0.5050505E-02  0.1474807E-05  0.0000000E+00 -0.3726180E-04
 -0.5049253E-02  0.0000000E+00 -0.5050505E-02  0.1577598E-05  0.0000000E+00 -0.3419663E-04
 -0.5048636E-02  0.0000000E+00 -0.5050505E-02  0.1681865E-05  0.0000000E+00 -0.3092484E-04
 -0.5047442E-02  0.0000000E+00 -0.5050505E-02  0.1787730E-05  0.0000000E+00 -0.2744360E-04
 -0.5045727E-02  0.0000000E+00 -0.5050505E-02  0.1895332E-05  0.0000000E+00 -0.2374984E-04
 -0.5043261E-02  0.0000000E+00 -0.5050505E-02  0.2004829E-05  0.0000000E+00 -0.1984021E-04
 -0.5038714E-02  0.0000000E+00 -0.5050505E-02  0.2116401E-05  0.0000000E+00 -0.1571107E-04
 -0.5032318E-02  0.0000000E+00 -0.5050505E-02  0.2230262E-05  0.0000000E+00 -0.1135838E-04
 -0.5022454E-02  0.0000000E+00 -0.5050505E-02  0.2346663E-05  0.0000000E+00 -0.6777682E-05
 -0.5012589E-02  0.0000000E+00 -0.5050505E-02  0.2465912E-05  0.0000000E+00 -0.1963234E-05
 -0.5002725E-02  0.0000000E+00 -0.5050505E-02  0.2587882E-05  0.0000000E+00  0.3098875E-05
 -0.4992860E-02  0.0000000E+00 -0.5050505E-02  0.2713322E-05  0.0000000E+00  0.8417620E-05
 -0.4976523E-02  0.0000000E+00 -0.5050505E-02  0.2842791E-05  0.0000000E+00  0.1399575E-04
 -0.4956794E-02  0.0000000E+00 -0.5050505E-02  0.2976996E-05  0.0000000E+00  0.1984259E-04
 -0.4937066E-02  0.0000000E+00 -0.5050505E-02  0.3116856E-05  0.0000000E+00  0.2596916E-04
 -0.4906239E-02  0.0000000E+00 -0.5050505E-02  0.3263562E-05  0.0000000E+00  0.3238864E-04
 -0.4866782E-02  0.0000000E+00 -0.5050505E-02  0.3418665E-05  0.0000000E+00  0.3911707E-04
 -0.4827325E-02  0.0000000E+00 -0.5050505E-02  0.3584136E-05  0.0000000E+00  0.4617410E-04
 -0.4769372E-02  0.0000000E+00 -0.5050505E-02  0.3762418E-05  0.0000000E+00  0.5358393E-04
 -0.4690458E-02  0.0000000E+00 -0.5050505E-02  0.3956427E-05  0.0000000E+00  0.6137633E-04
 -0.4611543E-02  0.0000000E+00 -0.5050505E-02  0.4169441E-05  0.0000000E+00  0.6958745E-04
 -0.4503035E-02  0.0000000E+00 -0.5050505E-02  0.4404747E-05  0.0000000E+00  0.7826030E-04
 -0.4345206E-02  0.0000000E+00 -0.5050505E-02  0.4664842E-05  0.0000000E+00  0.8744399E-04
 -0.4187378E-02  0.0000000E+00 -0.5050505E-02  0.4949922E-05  0.0000000E+00  0.9719065E-04
 -0.3985156E-02  0.0000000E+00 -0.5050505E-02  0.5255683E-05  0.0000000E+00  0.1075486E-03
 -0.3669499E-02  0.0000000E+00 -0.5050505E-02  0.5571997E-05  0.0000000E+00  0.1185518E-03
 -0.3353842E-02  0.0000000E+00 -0.5050505E-02  0.5889221E-05  0.0000000E+00  0.1302144E-03
 -0.2978990E-02  0.0000000E+00 -0.5050505E-02  0.6231046E-05  0.0000000E+00  0.1425652E-03
 -0.2347676E-02  0.0000000E+00 -0.5050505E-02  0.6748613E-05  0.0000000E+00  0.1558118E-03
 -0.1716362E-02  0.0000000E+00 -0.5050505E-02  0.7889647E-05  0.0000000E+00  0.1707757E-03
 -0.1025842E-02  0.0000000E+00 -0.5050505E-02  0.1059889E-04  0.0000000E+00  0.1897116E-03
  0.2367855E-03  0.0000000E+00 -0.5050505E-02 -0.6244911E-05  0.0000000E+00  0.1941677E-03
  0.1499413E-02  0.0000000E+00 -0.5050505E-02 -0.3784233E-05  0.0000000E+00  0.1838798E-03
  0.2762042E-02  0.0000000E+00 -0.5050505E-02 -0.2617191E-05  0.0000000E+00  0.1773188E-03
 -0.5050505E-02  0.0000000E+00 -0.5050505E-02 -0.2167611E-05  0.0000000E+00  0.1724179E-03
 -0.5050505E-02  0.0000000E+00 -0.5050505E-02 -0.2593051E-05  0.0000000E+00  0.1675448E-03
 -0.5050505E-02  0.0000000E+00 -0.5050505E-02 -0.1615586E-05  0.0000000E+00  0.1632387E-03
 -0.5050505E-02  0.0000000E+00 -0.5050505E-02  0.6580299E-06  0.0000000E+00  0.1622593E-03
 -0.5050505E-02  0.0000000E+00 -0.5050505E-02 -0.8505858E-05  0.0000000E+00  0.1542487E-03
 -0.5050505E-02  0.0000000E+00 -0.5050505E-02 -0.7735019E-05  0.0000000E+00  0.1376834E-03
 -0.5050505E-02  0.0000000E+00 -0.5050505E-02 -0.7049679E-05  0.0000000E+00  0.1226311E-03
 -0.5050504E-02  0.0000000E+00 -0.5050505E-02 -0.6399967E-05  0.0000000E+00  0.1089608E-03
 -0.5050501E-02  0.0000000E+00 -0.5050505E-02 -0.5846832E-05  0.0000000E+00  0.9653203E-04
 -0.5050495E-02  0.0000000E+00 -0.5050505E-02 -0.5393024E-05  0.0000000E+00  0.8514108E-04
 -0.5050482E-02  0.0000000E+00 -0.5050505E-02 -0.5018504E-05  0.0000000E+00  0.7460320E-04
 -0.5050449E-02  0.0000000E+00 -0.5050505E-02 -0.4702144E-05  0.0000000E+00  0.6477643E-04
 -0.5050376E-02  0.0000000E+00 -0.5050505E-02 -0.4427607E-05  0.0000000E+00  0.5555742E-04
 -0.5050299E-02  0.0000000E+00 -0.5050505E-02 -0.4183451E-05  0.0000000E+00  0.4687141E-04
 -0.5050178E-02  0.0000000E+00 -0.5050505E-02 -0.3961927E-05  0.0000000E+00  0.3866339E-04
 -0.5050018E-02  0.0000000E+00 -0.5050505E-02 -0.3757826E-05  0.0000000E+00  0.3089166E-04
 -0.5049710E-02  0.0000000E+00 -0.5050505E-02 -0.3567619E-05  0.0000000E+00  0.2352355E-04
 -0.5049253E-02  0.0000000E+00 -0.5050505E-02 -0.3388877E-05  0.0000000E+00  0.1653252E-04
 -0.5048636E-02  0.0000000E+00 -0.5050505E-02 -0.3219890E-05  0.0000000E+00  0.9896349E-05
 -0.5047442E-02  0.0000000E+00 -0.5050505E-02 -0.3059408E-05  0.0000000E+00  0.3595877E-05
 -0.5045727E-02  0.0000000E+00 -0.5050505E-02 -0.2906476E-05  0.0000000E+00 -0.2379737E-05
 -0.5043261E-02  0.0000000E+00 -0.5050505E-02 -0.2760150E-05  0.0000000E+00 -0.8048751E-05
 -0.5038714E-02  0.0000000E+00 -0.5050505E-02 -0.2620138E-05  0.0000000E+00 -0.1343431E-04
 -0.5032318E-02  0.0000000E+00 -0.5050505E-02 -0.2485900E-05  0.0000000E+00 -0.1854872E-04
 -0.5022454E-02  0.0000000E+00 -0.5050505E-02 -0.2356964E-05  0.0000000E+00 -0.2340256E-04
 -0.5012589E-02  0.0000000E+00 -0.5050505E-02 -0.2232913E-05  0.0000000E+00 -0.2800556E-04
 -0.5002725E-02  0.0000000E+00 -0.5050505E-02 -0.2113372E-05  0.0000000E+00 -0.3236673E-04
 -0.4992860E-02  0.0000000E+00 -0.5050505E-02 -0.1998003E-05  0.0000000E+00 -0.3649438E-04
 -0.4976523E-02  0.0000000E+00 -0.5050505E-02 -0.1886497E-05  0.0000000E+00 -0.4039621E-04
 -0.4956794E-02  0.0000000E+00 -0.5050505E-02 -0.1778572E-05  0.0000000E+00 -0.4407938E-04
 -0.4937066E-02  0.0000000E+00 -0.5050505E-02 -0.1673969E-05  0.0000000E+00 -0.4755052E-04
 -0.4906239E-02  0.0000000E+00 -0.5050505E-02 -0.1572453E-05  0.0000000E+00 -0.5081581E-04
 -0.4866782E-02  0.0000000E+00 -0.5050505E-02 -0.1473813E-05  0.0000000E+00 -0.5388099E-04
 -0.4827325E-02  0.0000000E+00 -0.5050505E-02 -0.1377858E-05  0.0000000E+00 -0.5675143E-04
 -0.4769372E-02  0.0000000E+00 -0.5050505E-02 -0.1284423E-05  0.0000000E+00 -0.5943217E-04
 -0.4690458E-02  0.0000000E+00 -0.5050505E-02 -0.1193372E-05  0.0000000E+00 -0.6192795E-04
 -0.4611543E-02  0.0000000E+00 -0.5050505E-02 -0.1104606E-05  0.0000000E+00 -0.6424331E-04
 -0.4503035E-02  0.0000000E+00 -0.5050505E-02 -0.1018077E-05  0.0000000E+00 -0.6638264E-04
 -0.4345206E-02  0.0000000E+00 -0.5050505E-02 -0.9338180E-06  0.0000000E+00 -0.6835036E-04
 -0.4187378E-02  0.0000000E+00 -0.5050505E-02 -0.8519865E-06  0.0000000E+00 -0.7015106E-04
 -0.3985156E-02  0.0000000E+00 -0.5050505E-02 -0.7729644E-06  0.0000000E+00 -0.7178993E-04
 -0.3669499E-02  0.0000000E+00 -0.5050505E-02 -0.6975492E-06  0.0000000E+00 -0.7327332E-04
 -0.3353842E-02  0.0000000E+00 -0.5050505E-02 -0.6273721E-06  0.0000000E+00 -0.7461009E-04
 -0.2978990E-02  0.0000000E+00 -0.5050505E-02 -0.5658671E-06  0.0000000E+00 -0.7581420E-04
 -0.2347676E-02  0.0000000E+00 -0.5050505E-02 -0.5207195E-06  0.0000000E+00 -0.7691084E-04
 -0.1716362E-02  0.0000000E+00 -0.5050505E-02 -0.5106292E-06  0.0000000E+00 -0.7795187E-04
 -0.1025842E-02  0.0000000E+00 -0.5050505E-02 -0.5858293E-06  0.0000000E+00 -0.7905876E-04
  0.2367855E-03  0.0000000E+00 -0.5050505E-02 -0.8962780E-06  0.0000000E+00 -0.8055519E-04
  0.1499413E-02  0.0000000E+00 -0.5050505E-02 -0.1938076E-05  0.0000000E+00 -0.8341752E-04
  0.5287294E-02  0.0000000E+00 -0.5050505E-02 -0.2962544E-04  0.0000000E+00 -0.6675825E-04
 -0.5050505E-02  0.0000000E+00 -0.5050505E-02  0.1374834E-06  0.0000000E+00 -0.5963160E-04
 -0.5050505E-02  0.0000000E+00 -0.5050505E-02  0.4125801E-06  0.0000000E+00 -0.5944647E-04
 -0.5050505E-02  0.0000000E+00 -0.5050505E-02  0.6880699E-06  0.0000000E+00 -0.5907604E-04
 -0.5050505E-02  0.0000000E+00 -0.5050505E-02  0.9642186E-06  0.0000000E+00 -0.5852001E-04
 -0.5050505E-02  0.0000000E+00 -0.5050505E-02  0.1241292E-05  0.0000000E+00 -0.5777786E-04
 -0.5050505E-02  0.0000000E+00 -0.5050505E-02  0.1519554E-05  0.0000000E+00 -0.5684896E-04
 -0.5050504E-02  0.0000000E+00 -0.5050505E-02  0.1799268E-05  0.0000000E+00 -0.5573247E-04
 -0.5050501E-02  0.0000000E+00 -0.5050505E-02  0.2080692E-05  0.0000000E+00 -0.5442741E-04
 -0.5050495E-02  0.0000000E+00 -0.5050505E-02  0.2364083E-05  0.0000000E+00 -0.5293263E-04
 -0.5050482E-02  0.0000000E+00 -0.5050505E-02  0.2649695E-05  0.0000000E+00 -0.5124683E-04
 -0.5050449E-02  0.0000000E+00 -0.5050505E-02  0.2937779E-05  0.0000000E+00 -0.4936854E-04
 -0.5050376E-02  0.0000000E+00 -0.5050505E-02  0.3228588E-05  0.0000000E+00 -0.4729616E-04
 -0.5050299E-02  0.0000000E+00 -0.5050505E-02  0.3522377E-05  0.0000000E+00 -0.4502791E-04
 -0.5050178E-02  0.0000000E+00 -0.5050505E-02  0.3819406E-05  0.0000000E+00 -0.4256187E-04
 -0.5050018E-02  0.0000000E+00 -0.5050505E-02  0.4119944E-05  0.0000000E+00 -0.3989596E-04
 -0.5049710E-02  0.0000000E+00 -0.5050505E-02  0.4424277E-05  0.0000000E+00 -0.3702791E-04
 -0.5049253E-02  0.0000000E+00 -0.5050505E-02  0.4732710E-05  0.0000000E+00 -0.3395531E-04
 -0.5048636E-02  0.0000000E+00 -0.5050505E-02  0.5045575E-05  0.0000000E+00 -0.3067552E-04
 -0.5047442E-02  0.0000000E+00 -0.5050505E-02  0.5363241E-05  0.0000000E+00 -0.2718572E-04
 -0.5045727E-02  0.0000000E+00 -0.5050505E-02  0.5686121E-05  0.0000000E+00 -0.2348282E-04
 -0.5043261E-02  0.0000000E+00 -0.5050505E-02  0.6014686E-05  0.0000000E+00 -0.1956350E-04
 -0.5038714E-02  0.0000000E+00 -0.5050505E-02  0.6349475E-05  0.0000000E+00 -0.1542410E-04
 -0.5032318E-02  0.0000000E+00 -0.5050505E-02  0.6691121E-05  0.0000000E+00 -0.1106061E-04
 -0.5022454E-02  0.0000000E+00 -0.5050505E-02  0.7040372E-05  0.0000000E+00 -0.6468611E-05
 -0.5012589E-02  0.0000000E+00 -0.5050505E-02  0.7398140E-05  0.0000000E+00 -0.1641906E-05
 -0.5002725E-02  0.0000000E+00 -0.5050505E-02  0.7764002E-05  0.0000000E+00  0.3433038E-05
 -0.4992860E-02  0.0000000E+00 -0.5050505E-02  0.8140214E-05  0.0000000E+00  0.8764589E-05
 -0.4976523E-02  0.0000000E+00 -0.5050505E-02  0.8528412E-05  0.0000000E+00  0.1435564E-04
 -0.4956794E-02  0.0000000E+00 -0.5050505E-02  0.8930679E-05  0.0000000E+00  0.2021527E-04
 -0.4937066E-02  0.0000000E+00 -0.5050505E-02  0.9349718E-05  0.0000000E+00  0.2635417E-04
 -0.4906239E-02  0.0000000E+00 -0.5050505E-02  0.9789054E-05  0.0000000E+00  0.3278511E-04
 -0.4866782E-02  0.0000000E+00 -0.5050505E-02  0.1025330E-04  0.0000000E+00  0.3952358E-04
 -0.4827325E-02  0.0000000E+00 -0.5050505E-02  0.1074835E-04  0.0000000E+00  0.4658867E-04
 -0.4769372E-02  0.0000000E+00 -0.5050505E-02  0.1128158E-04  0.0000000E+00  0.5400407E-04
 -0.4690458E-02  0.0000000E+00 -0.5050505E-02  0.1186191E-04  0.0000000E+00  0.6179918E-04
 -0.4611543E-02  0.0000000E+00 -0.5050505E-02  0.1249958E-04  0.0000000E+00  0.7001045E-04
 -0.4503035E-02  0.0000000E+00 -0.5050505E-02  0.1320530E-04  0.0000000E+00  0.7868240E-04
 -0.4345206E-02  0.0000000E+00 -0.5050505E-02  0.1398807E-04  0.0000000E+00  0.8786809E-04
 -0.4187378E-02  0.0000000E+00 -0.5050505E-02  0.1485060E-04  0.0000000E+00  0.9762725E-04
 -0.3985156E-02  0.0000000E+00 -0.5050505E-02  0.1578102E-04  0.0000000E+00  0.1080190E-03
 -0.3669499E-02  0.0000000E+00 -0.5050505E-02  0.1674221E-04  0.0000000E+00  0.1190826E-03
 -0.3353842E-02  0.0000000E+00 -0.5050505E-02  0.1767207E-04  0.0000000E+00  0.1307966E-03
 -0.2978990E-02  0.0000000E+00 -0.5050505E-02  0.1854855E-04  0.0000000E+00  0.1430256E-03
 -0.2347676E-02  0.0000000E+00 -0.5050505E-02  0.1966015E-04  0.0000000E+00  0.1555491E-03
 -0.1716362E-02  0.0000000E+00 -0.5050505E-02  0.2215741E-04  0.0000000E+00  0.1683926E-03
 -0.1025842E-02  0.0000000E+00 -0.5050505E-02  0.2654144E-04  0.0000000E+00  0.1804249E-03
  0.2367855E-03  0.0000000E+00 -0.5050505E-02 -0.1319984E-04  0.0000000E+00  0.1851730E-03
  0.1499413E-02  0.0000000E+00 -0.5050505E-02 -0.1007643E-04  0.0000000E+00  0.1818451E-03
  0.2762042E-02  0.0000000E+00 -0.5050505E-02 -0.7137830E-05  0.0000000E+00  0.1773063E-03
 -0.5050505E-02  0.0000000E+00 -0.5050505E-02 -0.5635020E-05  0.0000000E+00  0.1740108E-03
 -0.5050505E-02  0.0000000E+00 -0.5050505E-02 -0.9150442E-05  0.0000000E+00  0.1686100E-03
 -0.5050505E-02  0.0000000E+00 -0.5050505E-02 -0.6093076E-05  0.0000000E+00  0.1616159E-03
 -0.5050505E-02  0.0000000E+00 -0.5050505E-02  0.1025846E-05  0.0000000E+00  0.1583902E-03
 -0.5050505E-02  0.0000000E+00 -0.5050505E-02 -0.2314220E-04  0.0000000E+00  0.1518228E-03
 -0.5050505E-02  0.0000000E+00 -0.5050505E-02 -0.2321355E-04  0.0000000E+00  0.1376506E-03
 -0.5050505E-02  0.0000000E+00 -0.5050505E-02 -0.2118068E-04  0.0000000E+00  0.1225386E-03
 -0.5050504E-02  0.0000000E+00 -0.5050505E-02 -0.1915192E-04  0.0000000E+00  0.1088660E-03
 -0.5050501E-02  0.0000000E+00 -0.5050505E-02 -0.1747640E-04  0.0000000E+00  0.9653205E-04
 -0.5050495E-02  0.0000000E+00 -0.5050505E-02 -0.1612598E-04  0.0000000E+00  0.8524128E-04
 -0.5050482E-02  0.0000000E+00 -0.5050505E-02 -0.1501756E-04  0.0000000E+00  0.7477746E-04
 -0.5050449E-02  0.0000000E+00 -0.5050505E-02 -0.1408079E-04  0.0000000E+00  0.6499739E-04
 -0.5050376E-02  0.0000000E+00 -0.5050505E-02 -0.1326581E-04  0.0000000E+00  0.5580441E-04
 -0.5050299E-02  0.0000000E+00 -0.5050505E-02 -0.1253903E-04  0.0000000E+00  0.4713045E-04
 -0.5050178E-02  0.0000000E+00 -0.5050505E-02 -0.1187809E-04  0.0000000E+00  0.3892558E-04
 -0.5050018E-02  0.0000000E+00 -0.5050505E-02 -0.1126804E-04  0.0000000E+00  0.3115156E-04
 -0.5049710E-02  0.0000000E+00 -0.5050505E-02 -0.1069878E-04  0.0000000E+00  0.2377799E-04
 -0.5049253E-02  0.0000000E+00 -0.5050505E-02 -0.1016336E-04  0.0000000E+00  0.1677980E-04
 -0.5048636E-02  0.0000000E+00 -0.5050505E-02 -0.9656854E-05  0.0000000E+00  0.1013566E-04
 -0.5047442E-02  0.0000000E+00 -0.5050505E-02 -0.9175652E-05  0.0000000E+00  0.3826979E-05
 -0.5045727E-02  0.0000000E+00 -0.5050505E-02 -0.8716982E-05  0.0000000E+00 -0.2156952E-05
 -0.5043261E-02  0.0000000E+00 -0.5050505E-02 -0.8278053E-05  0.0000000E+00 -0.7833866E-05
 -0.5038714E-02  0.0000000E+00 -0.5050505E-02 -0.7858039E-05  0.0000000E+00 -0.1322662E-04
 -0.5032318E-02  0.0000000E+00 -0.5050505E-02 -0.7455333E-05  0.0000000E+00 -0.1834784E-04
 -0.5022454E-02  0.0000000E+00 -0.5050505E-02 -0.7068532E-05  0.0000000E+00 -0.2320807E-04
 -0.5012589E-02  0.0000000E+00 -0.5050505E-02 -0.6696391E-05  0.0000000E+00 -0.2781706E-04
 -0.5002725E-02  0.0000000E+00 -0.5050505E-02 -0.6337789E-05  0.0000000E+00 -0.3218380E-04
 -0.4992860E-02  0.0000000E+00 -0.5050505E-02 -0.5991710E-05  0.0000000E+00 -0.3631662E-04
 -0.4976523E-02  0.0000000E+00 -0.5050505E-02 -0.5657226E-05  0.0000000E+00 -0.4022325E-04
 -0.4956794E-02  0.0000000E+00 -0.5050505E-02 -0.5333489E-05  0.0000000E+00 -0.4391086E-04
 -0.4937066E-02  0.0000000E+00 -0.5050505E-02 -0.5019724E-05  0.0000000E+00 -0.4738609E-04
 -0.4906239E-02  0.0000000E+00 -0.5050505E-02 -0.4715224E-05  0.0000000E+00 -0.5065512E-04
 -0.4866782E-02  0.0000000E+00 -0.5050505E-02 -0.4419347E-05  0.0000000E+00 -0.5372370E-04
 -0.4827325E-02  0.0000000E+00 -0.5050505E-02 -0.4131520E-05  0.0000000E+00 -0.5659720E-04
 -0.4769372E-02  0.0000000E+00 -0.5050505E-02 -0.3851240E-05  0.0000000E+00 -0.5928063E-04
 -0.4690458E-02  0.0000000E+00 -0.5050505E-02 -0.3578089E-05  0.0000000E+00 -0.6177872E-04
 -0.4611543E-02  0.0000000E+00 -0.5050505E-02 -0.3311755E-05  0.0000000E+00 -0.6409592E-04
 -0.4503035E-02  0.0000000E+00 -0.5050505E-02 -0.3052066E-05  0.0000000E+00 -0.6623654E-04
 -0.4345206E-02  0.0000000E+00 -0.5050505E-02 -0.2799065E-05  0.0000000E+00 -0.6820481E-04
 -0.4187378E-02  0.0000000E+00 -0.5050505E-02 -0.2553132E-05  0.0000000E+00 -0.7000499E-04
 -0.3985156E-02  0.0000000E+00 -0.5050505E-02 -0.2315214E-05  0.0000000E+00 -0.7164163E-04
 -0.3669499E-02  0.0000000E+00 -0.5050505E-02 -0.2087284E-05  0.0000000E+00 -0.7311986E-04
 -0.3353842E-02  0.0000000E+00 -0.5050505E-02 -0.1873264E-05  0.0000000E+00 -0.7444586E-04
 -0.2978990E-02  0.0000000E+00 -0.5050505E-02 -0.1681007E-05  0.0000000E+00 -0.7562753E-04
 -0.2347676E-02  0.0000000E+00 -0.5050505E-02 -0.1526821E-05  0.0000000E+00 -0.7667473E-04
 -0.1716362E-02  0.0000000E+00 -0.5050505E-02 -0.1446361E-05  0.0000000E+00 -0.7759659E-04
 -0.1025842E-02  0.0000000E+00 -0.5050505E-02 -0.1522471E-05  0.0000000E+00 -0.7838291E-04
  0.2367855E-03  0.0000000E+00 -0.5050505E-02 -0.1960030E-05  0.0000000E+00 -0.7891036E-04
  0.1499413E-02  0.0000000E+00 -0.5050505E-02 -0.3295583E-05  0.0000000E+00 -0.7850180E-04
  0.5287294E-02  0.0000000E+00 -0.5050505E-02 -0.6998419E-05  0.0000000E+00 -0.7388099E-04
 -0.5050505E-02  0.0000000E+00 -0.5050505E-02  0.2291710E-06  0.0000000E+00 -0.5927106E-04
 -0.5050505E-02  0.0000000E+00 -0.5050505E-02  0.6877334E-06  0.0000000E+00 -0.5908512E-04
 -0.5050505E-02  0.0000000E+00 -0.5050505E-02  0.1146961E-05  0.0000000E+00 -0.5871308E-04
 -0.5050505E-02  0.0000000E+00 -0.5050505E-02  0.1607300E-05  0.0000000E+00 -0.5815461E-04
 -0.5050505E-02  0.0000000E+00 -0.5050505E-02  0.2069197E-05  0.0000000E+00 -0.5740921E-04
 -0.5050505E-02  0.0000000E+00 -0.5050505E-02  0.2533097E-05  0.0000000E+00 -0.5647622E-04
 -0.5050504E-02  0.0000000E+00 -0.5050505E-02  0.2999439E-05  0.0000000E+00 -0.5535479E-04
 -0.5050501E-02  0.0000000E+00 -0.5050505E-02  0.3468657E-05  0.0000000E+00 -0.5404390E-04
 -0.5050495E-02  0.0000000E+00 -0.5050505E-02  0.3941181E-05  0.0000000E+00 -0.5254240E-04
 -0.5050482E-02  0.0000000E+00 -0.5050505E-02  0.4417435E-05  0.0000000E+00 -0.5084895E-04
 -0.5050449E-02  0.0000000E+00 -0.5050505E-02  0.4897840E-05  0.0000000E+00 -0.4896205E-04
 -0.5050376E-02  0.0000000E+00 -0.5050505E-02  0.5382817E-05  0.0000000E+00 -0.4688007E-04
 -0.5050299E-02  0.0000000E+00 -0.5050505E-02  0.5872791E-05  0.0000000E+00 -0.4460120E-04
 -0.5050178E-02  0.0000000E+00 -0.5050505E-02  0.6368193E-05  0.0000000E+00 -0.4212350E-04
 -0.5050018E-02  0.0000000E+00 -0.5050505E-02  0.6869473E-05  0.0000000E+00 -0.3944484E-04
 -0.5049710E-02  0.0000000E+00 -0.5050505E-02  0.7377103E-05  0.0000000E+00 -0.3656295E-04
 -0.5049253E-02  0.0000000E+00 -0.5050505E-02  0.7891589E-05  0.0000000E+00 -0.3347538E-04
 -0.5048636E-02  0.0000000E+00 -0.5050505E-02  0.8413482E-05  0.0000000E+00 -0.3017949E-04
 -0.5047442E-02  0.0000000E+00 -0.5050505E-02  0.8943394E-05  0.0000000E+00 -0.2667243E-04
 -0.5045727E-02  0.0000000E+00 -0.5050505E-02  0.9482007E-05  0.0000000E+00 -0.2295111E-04
 -0.5043261E-02  0.0000000E+00 -0.5050505E-02  0.1003010E-04  0.0000000E+00 -0.1901221E-04
 -0.5038714E-02  0.0000000E+00 -0.5050505E-02  0.1058856E-04  0.0000000E+00 -0.1485207E-04
 -0.5032318E-02  0.0000000E+00 -0.5050505E-02  0.1115842E-04  0.0000000E+00 -0.1046674E-04
 -0.5022454E-02  0.0000000E+00 -0.5050505E-02  0.1174089E-04  0.0000000E+00 -0.5851827E-05
 -0.5012589E-02  0.0000000E+00 -0.5050505E-02  0.1233746E-04  0.0000000E+00 -0.1000229E-05
 -0.5002725E-02  0.0000000E+00 -0.5050505E-02  0.1294732E-04  0.0000000E+00  0.4100829E-05
 -0.4992860E-02  0.0000000E+00 -0.5050505E-02  0.1357424E-04  0.0000000E+00  0.9458498E-05
 -0.4976523E-02  0.0000000E+00 -0.5050505E-02  0.1422082E-04  0.0000000E+00  0.1507600E-04
 -0.4956794E-02  0.0000000E+00 -0.5050505E-02  0.1489038E-04  0.0000000E+00  0.2096197E-04
 -0.4937066E-02  0.0000000E+00 -0.5050505E-02  0.1558725E-04  0.0000000E+00  0.2712642E-04
 -0.4906239E-02  0.0000000E+00 -0.5050505E-02  0.1631714E-04  0.0000000E+00  0.3358126E-04
 -0.4866782E-02  0.0000000E+00 -0.5050505E-02  0.1708759E-04  0.0000000E+00  0.4034091E-04
 -0.4827325E-02  0.0000000E+00 -0.5050505E-02  0.1790833E-04  0.0000000E+00  0.4742324E-04
 -0.4769372E-02  0.0000000E+00 -0.5050505E-02  0.1879176E-04  0.0000000E+00  0.5485064E-04
 -0.4690458E-02  0.0000000E+00 -0.5050505E-02  0.1975320E-04  0.0000000E+00  0.6265156E-04
 -0.4611543E-02  0.0000000E+00 -0.5050505E-02  0.2081090E-04  0.0000000E+00  0.7086230E-04
 -0.4503035E-02  0.0000000E+00 -0.5050505E-02  0.2198534E-04  0.0000000E+00  0.7952945E-04
 -0.4345206E-02  0.0000000E+00 -0.5050505E-02  0.2329671E-04  0.0000000E+00  0.8871281E-04
 -0.4187378E-02  0.0000000E+00 -0.5050505E-02  0.2475828E-04  0.0000000E+00  0.9848813E-04
 -0.3985156E-02  0.0000000E+00 -0.5050505E-02  0.2636055E-04  0.0000000E+00  0.1089456E-03
 -0.3669499E-02  0.0000000E+00 -0.5050505E-02  0.2803745E-04  0.0000000E+00  0.1201695E-03
 -0.3353842E-02  0.0000000E+00 -0.5050505E-02  0.2960743E-04  0.0000000E+00  0.1321544E-03
 -0.2978990E-02  0.0000000E+00 -0.5050505E-02  0.3073344E-04  0.0000000E+00  0.1445673E-03
 -0.2347676E-02  0.0000000E+00 -0.5050505E-02  0.3130192E-04  0.0000000E+00  0.1564281E-03
 -0.1716362E-02  0.0000000E+00 -0.5050505E-02  0.3466544E-04  0.0000000E+00  0.1683431E-03
 -0.1025842E-02  0.0000000E+00 -0.5050505E-02  0.3699943E-04  0.0000000E+00  0.1799082E-03
  0.2367855E-03  0.0000000E+00 -0.5050505E-02 -0.1332040E-04  0.0000000E+00  0.1857614E-03
  0.1499413E-02  0.0000000E+00 -0.5050505E-02 -0.1617205E-04  0.0000000E+00  0.1826506E-03
  0.2762042E-02  0.0000000E+00 -0.5050505E-02 -0.1022522E-04  0.0000000E+00  0.1777305E-03
 -0.5050505E-02  0.0000000E+00 -0.5050505E-02 -0.4161078E-05  0.0000000E+00  0.1793370E-03
 -0.5050505E-02  0.0000000E+00 -0.5050505E-02 -0.2217950E-04  0.0000000E+00  0.1728856E-03
 -0.5050505E-02  0.0000000E+00 -0.5050505E-02 -0.1451919E-04  0.0000000E+00  0.1579059E-03
 -0.5050505E-02  0.0000000E+00 -0.5050505E-02 -0.4361680E-05  0.0000000E+00  0.1470073E-03
 -0.5050505E-02  0.0000000E+00 -0.5050505E-02 -0.2507768E-04  0.0000000E+00  0.1460314E-03
 -0.5050505E-02  0.0000000E+00 -0.5050505E-02 -0.4105062E-04  0.0000000E+00  0.1399644E-03
 -0.5050505E-02  0.0000000E+00 -0.5050505E-02 -0.3551511E-04  0.0000000E+00  0.1222750E-03
 -0.5050504E-02  0.0000000E+00 -0.5050505E-02 -0.3170308E-04  0.0000000E+00  0.1085657E-03
 -0.5050501E-02  0.0000000E+00 -0.5050505E-02 -0.2889335E-04  0.0000000E+00  0.9651887E-04
 -0.5050495E-02  0.0000000E+00 -0.5050505E-02 -0.2670295E-04  0.0000000E+00  0.8546440E-04
 -0.5050482E-02  0.0000000E+00 -0.5050505E-02 -0.2491353E-04  0.0000000E+00  0.7515261E-04
 -0.5050449E-02  0.0000000E+00 -0.5050505E-02 -0.2339437E-04  0.0000000E+00  0.6546072E-04
 -0.5050376E-02  0.0000000E+00 -0.5050505E-02 -0.2206417E-04  0.0000000E+00  0.5631359E-04
 -0.5050299E-02  0.0000000E+00 -0.5050505E-02 -0.2087087E-04  0.0000000E+00  0.4765869E-04
 -0.5050178E-02  0.0000000E+00 -0.5050505E-02 -0.1978053E-04  0.0000000E+00  0.3945640E-04
 -0.5050018E-02  0.0000000E+00 -0.5050505E-02 -0.1877059E-04  0.0000000E+00  0.3167515E-04
 -0.5049710E-02  0.0000000E+00 -0.5050505E-02 -0.1782582E-04  0.0000000E+00  0.2428879E-04
 -0.5049253E-02  0.0000000E+00 -0.5050505E-02 -0.1693566E-04  0.0000000E+00  0.1727495E-04
 -0.5048636E-02  0.0000000E+00 -0.5050505E-02 -0.1609261E-04  0.0000000E+00  0.1061395E-04
 -0.5047442E-02  0.0000000E+00 -0.5050505E-02 -0.1529109E-04  0.0000000E+00  0.4288178E-05
 -0.5045727E-02  0.0000000E+00 -0.5050505E-02 -0.1452677E-04  0.0000000E+00 -0.1712880E-05
 -0.5043261E-02  0.0000000E+00 -0.5050505E-02 -0.1379511E-04  0.0000000E+00 -0.7405958E-05
 -0.5038714E-02  0.0000000E+00 -0.5050505E-02 -0.1309489E-04  0.0000000E+00 -0.1281339E-04
 -0.5032318E-02  0.0000000E+00 -0.5050505E-02 -0.1242349E-04  0.0000000E+00 -0.1794842E-04
 -0.5022454E-02  0.0000000E+00 -0.5050505E-02 -0.1177860E-04  0.0000000E+00 -0.2282160E-04
 -0.5012589E-02  0.0000000E+00 -0.5050505E-02 -0.1115817E-04  0.0000000E+00 -0.2744266E-04
 -0.5002725E-02  0.0000000E+00 -0.5050505E-02 -0.1056032E-04  0.0000000E+00 -0.3182064E-04
 -0.4992860E-02  0.0000000E+00 -0.5050505E-02 -0.9983379E-05  0.0000000E+00 -0.3596391E-04
 -0.4976523E-02  0.0000000E+00 -0.5050505E-02 -0.9425788E-05  0.0000000E+00 -0.3988021E-04
 -0.4956794E-02  0.0000000E+00 -0.5050505E-02 -0.8886131E-05  0.0000000E+00 -0.4357676E-04
 -0.4937066E-02  0.0000000E+00 -0.5050505E-02 -0.8363112E-05  0.0000000E+00 -0.4706021E-04
 -0.4906239E-02  0.0000000E+00 -0.5050505E-02 -0.7855542E-05  0.0000000E+00 -0.5033678E-04
 -0.4866782E-02  0.0000000E+00 -0.5050505E-02 -0.7362343E-05  0.0000000E+00 -0.5341221E-04
 -0.4827325E-02  0.0000000E+00 -0.5050505E-02 -0.6882546E-05  0.0000000E+00 -0.5629187E-04
 -0.4769372E-02  0.0000000E+00 -0.5050505E-02 -0.6415293E-05  0.0000000E+00 -0.5898075E-04
 -0.4690458E-02  0.0000000E+00 -0.5050505E-02 -0.5959855E-05  0.0000000E+00 -0.6148352E-04
 -0.4611543E-02  0.0000000E+00 -0.5050505E-02 -0.5515662E-05  0.0000000E+00 -0.6380455E-04
 -0.4503035E-02  0.0000000E+00 -0.5050505E-02 -0.5082345E-05  0.0000000E+00 -0.6594796E-04
 -0.4345206E-02  0.0000000E+00 -0.5050505E-02 -0.4659827E-05  0.0000000E+00 -0.6791767E-04
 -0.4187378E-02  0.0000000E+00 -0.5050505E-02 -0.4248468E-05  0.0000000E+00 -0.6971745E-04
 -0.3985156E-02  0.0000000E+00 -0.5050505E-02 -0.3849325E-05  0.0000000E+00 -0.7135091E-04
 -0.3669499E-02  0.0000000E+00 -0.5050505E-02 -0.3464613E-05  0.0000000E+00 -0.7282146E-04
 -0.3353842E-02  0.0000000E+00 -0.5050505E-02 -0.3098551E-05  0.0000000E+00 -0.7413205E-04
 -0.2978990E-02  0.0000000E+00 -0.5050505E-02 -0.2758893E-05  0.0000000E+00 -0.7528419E-04
 -0.2347676E-02  0.0000000E+00 -0.5050505E-02 -0.2459685E-05  0.0000000E+00 -0.7627513E-04
 -0.1716362E-02  0.0000000E+00 -0.5050505E-02 -0.2225791E-05  0.0000000E+00 -0.7708982E-04
 -0.1025842E-02  0.0000000E+00 -0.5050505E-02 -0.2098140E-05  0.0000000E+00 -0.7767974E-04
  0.2367855E-03  0.0000000E+00 -0.5050505E-02 -0.2128034E-05  0.0000000E+00 -0.7791304E-04
  0.1499413E-02  0.0000000E+00 -0.5050505E-02 -0.2295326E-05  0.0000000E+00 -0.7749715E-04
  0.5287294E-02  0.0000000E+00 -0.5050505E-02 -0.2037103E-05  0.0000000E+00 -0.7613627E-04
 -0.5050505E-02  0.0000000E+00 -0.5050505E-02  0.3211009E-06  0.0000000E+00 -0.5873549E-04
 -0.5050505E-02  0.0000000E+00 -0.5050505E-02  0.9636172E-06  0.0000000E+00 -0.5854834E-04
 -0.5050505E-02  0.0000000E+00 -0.5050505E-02  0.1607081E-05  0.0000000E+00 -0.5817388E-04
 -0.5050505E-02  0.0000000E+00 -0.5050505E-02  0.2252126E-05  0.0000000E+00 -0.5761177E-04
 -0.5050505E-02  0.0000000E+00 -0.5050505E-02  0.2899385E-05  0.0000000E+00 -0.5686151E-04
 -0.5050505E-02  0.0000000E+00 -0.5050505E-02  0.3549487E-05  0.0000000E+00 -0.5592238E-04
 -0.5050504E-02  0.0000000E+00 -0.5050505E-02  0.4203055E-05  0.0000000E+00 -0.5479353E-04
 -0.5050501E-02  0.0000000E+00 -0.5050505E-02  0.4860701E-05  0.0000000E+00 -0.5347392E-04
 -0.5050495E-02  0.0000000E+00 -0.5050505E-02  0.5523031E-05  0.0000000E+00 -0.5196232E-04
 -0.5050482E-02  0.0000000E+00 -0.5050505E-02  0.6190642E-05  0.0000000E+00 -0.5025737E-04
 -0.5050449E-02  0.0000000E+00 -0.5050505E-02  0.6864128E-05  0.0000000E+00 -0.4835753E-04
 -0.5050376E-02  0.0000000E+00 -0.5050505E-02  0.7544077E-05  0.0000000E+00 -0.4626111E-04
 -0.5050299E-02  0.0000000E+00 -0.5050505E-02  0.8231084E-05  0.0000000E+00 -0.4396627E-04
 -0.5050178E-02  0.0000000E+00 -0.5050505E-02  0.8925754E-05  0.0000000E+00 -0.4147099E-04
 -0.5050018E-02  0.0000000E+00 -0.5050505E-02  0.9628710E-05  0.0000000E+00 -0.3877314E-04
 -0.5049710E-02  0.0000000E+00 -0.5050505E-02  0.1034061E-04  0.0000000E+00 -0.3587038E-04
 -0.5049253E-02  0.0000000E+00 -0.5050505E-02  0.1106216E-04  0.0000000E+00 -0.3276022E-04
 -0.5048636E-02  0.0000000E+00 -0.5050505E-02  0.1179412E-04  0.0000000E+00 -0.2944001E-04
 -0.5047442E-02  0.0000000E+00 -0.5050505E-02  0.1253734E-04  0.0000000E+00 -0.2590686E-04
 -0.5045727E-02  0.0000000E+00 -0.5050505E-02  0.1329277E-04  0.0000000E+00 -0.2215768E-04
 -0.5043261E-02  0.0000000E+00 -0.5050505E-02  0.1406148E-04  0.0000000E+00 -0.1818913E-04
 -0.5038714E-02  0.0000000E+00 -0.5050505E-02  0.1484470E-04  0.0000000E+00 -0.1399756E-04
 -0.5032318E-02  0.0000000E+00 -0.5050505E-02  0.1564384E-04  0.0000000E+00 -0.9579029E-05
 -0.5022454E-02  0.0000000E+00 -0.5050505E-02  0.1646052E-04  0.0000000E+00 -0.4929255E-05
 -0.5012589E-02  0.0000000E+00 -0.5050505E-02  0.1729666E-04  0.0000000E+00 -0.3966753E-07
 -0.5002725E-02  0.0000000E+00 -0.5050505E-02  0.1815109E-04  0.0000000E+00  0.5101318E-05
 -0.4992860E-02  0.0000000E+00 -0.5050505E-02  0.1902905E-04  0.0000000E+00  0.1049905E-04
 -0.4976523E-02  0.0000000E+00 -0.5050505E-02  0.1993388E-04  0.0000000E+00  0.1615737E-04
 -0.4956794E-02  0.0000000E+00 -0.5050505E-02  0.2086993E-04  0.0000000E+00  0.2208424E-04
 -0.4937066E-02  0.0000000E+00 -0.5050505E-02  0.2184288E-04  0.0000000E+00  0.2828872E-04