title = "dataset feddes"
variables = "x", "y", "z", "vx", "vy", "vz"
zone t = "velocities, solution time =  4.800E+01 days        " i =   99, j =   99, k =    1,  f=point
 -0.5050505E-02  0.0000000E+00 -0.5050505E-02  0.9132109E-08  0.0000000E+00 -0.1832048E-03
 -0.5050505E-02  0.0000000E+00 -0.5050505E-02  0.2738473E-07  0.0000000E+00 -0.1831675E-03
 -0.5050505E-02  0.0000000E+00 -0.5050505E-02  0.4560251E-07  0.0000000E+00 -0.1830929E-03
 -0.5050505E-02  0.0000000E+00 -0.5050505E-02  0.6376201E-07  0.0000000E+00 -0.1829811E-03
 -0.5050505E-02  0.0000000E+00 -0.5050505E-02  0.8183939E-07  0.0000000E+00 -0.1828323E-03
 -0.5050505E-02  0.0000000E+00 -0.5050505E-02  0.9981027E-07  0.0000000E+00 -0.1826466E-03
 -0.5050504E-02  0.0000000E+00 -0.5050505E-02  0.1176495E-06  0.0000000E+00 -0.1824244E-03
 -0.5050501E-02  0.0000000E+00 -0.5050505E-02  0.1353311E-06  0.0000000E+00 -0.1821658E-03
 -0.5050495E-02  0.0000000E+00 -0.5050505E-02  0.1528278E-06  0.0000000E+00 -0.1818713E-03
 -0.5050482E-02  0.0000000E+00 -0.5050505E-02  0.1701115E-06  0.0000000E+00 -0.1815413E-03
 -0.5050449E-02  0.0000000E+00 -0.5050505E-02  0.1871523E-06  0.0000000E+00 -0.1811762E-03
 -0.5050376E-02  0.0000000E+00 -0.5050505E-02  0.2039191E-06  0.0000000E+00 -0.1807765E-03
 -0.5050299E-02  0.0000000E+00 -0.5050505E-02  0.2203792E-06  0.0000000E+00 -0.1803430E-03
 -0.5050178E-02  0.0000000E+00 -0.5050505E-02  0.2364979E-06  0.0000000E+00 -0.1798761E-03
 -0.5050018E-02  0.0000000E+00 -0.5050505E-02  0.2522388E-06  0.0000000E+00 -0.1793768E-03
 -0.5049710E-02  0.0000000E+00 -0.5050505E-02  0.2675637E-06  0.0000000E+00 -0.1788457E-03
 -0.5049253E-02  0.0000000E+00 -0.5050505E-02  0.2824322E-06  0.0000000E+00 -0.1782839E-03
 -0.5048636E-02  0.0000000E+00 -0.5050505E-02  0.2968018E-06  0.0000000E+00 -0.1776922E-03
 -0.5047442E-02  0.0000000E+00 -0.5050505E-02  0.3106279E-06  0.0000000E+00 -0.1770717E-03
 -0.5045727E-02  0.0000000E+00 -0.5050505E-02  0.3238633E-06  0.0000000E+00 -0.1764237E-03
 -0.5043261E-02  0.0000000E+00 -0.5050505E-02  0.3364586E-06  0.0000000E+00 -0.1757493E-03
 -0.5038714E-02  0.0000000E+00 -0.5050505E-02  0.3483619E-06  0.0000000E+00 -0.1750499E-03
 -0.5032318E-02  0.0000000E+00 -0.5050505E-02  0.3595180E-06  0.0000000E+00 -0.1743271E-03
 -0.5022454E-02  0.0000000E+00 -0.5050505E-02  0.3698689E-06  0.0000000E+00 -0.1735824E-03
 -0.5012589E-02  0.0000000E+00 -0.5050505E-02  0.3793528E-06  0.0000000E+00 -0.1728175E-03
 -0.5002725E-02  0.0000000E+00 -0.5050505E-02  0.3879036E-06  0.0000000E+00 -0.1720342E-03
 -0.4992860E-02  0.0000000E+00 -0.5050505E-02  0.3954503E-06  0.0000000E+00 -0.1712346E-03
 -0.4976523E-02  0.0000000E+00 -0.5050505E-02  0.4019152E-06  0.0000000E+00 -0.1704208E-03
 -0.4956794E-02  0.0000000E+00 -0.5050505E-02  0.4072130E-06  0.0000000E+00 -0.1695950E-03
 -0.4937066E-02  0.0000000E+00 -0.5050505E-02  0.4112483E-06  0.0000000E+00 -0.1687598E-03
 -0.4906239E-02  0.0000000E+00 -0.5050505E-02  0.4139131E-06  0.0000000E+00 -0.1679179E-03
 -0.4866782E-02  0.0000000E+00 -0.5050505E-02  0.4150835E-06  0.0000000E+00 -0.1670721E-03
 -0.4827325E-02  0.0000000E+00 -0.5050505E-02  0.4146149E-06  0.0000000E+00 -0.1662257E-03
 -0.4769372E-02  0.0000000E+00 -0.5050505E-02  0.4123376E-06  0.0000000E+00 -0.1653822E-03
 -0.4690458E-02  0.0000000E+00 -0.5050505E-02  0.4080505E-06  0.0000000E+00 -0.1645454E-03
 -0.4611543E-02  0.0000000E+00 -0.5050505E-02  0.4015147E-06  0.0000000E+00 -0.1637198E-03
 -0.4503035E-02  0.0000000E+00 -0.5050505E-02  0.3924481E-06  0.0000000E+00 -0.1629101E-03
 -0.4345206E-02  0.0000000E+00 -0.5050505E-02  0.3805217E-06  0.0000000E+00 -0.1621220E-03
 -0.4187378E-02  0.0000000E+00 -0.5050505E-02  0.3653612E-06  0.0000000E+00 -0.1613615E-03
 -0.3985156E-02  0.0000000E+00 -0.5050505E-02  0.3465572E-06  0.0000000E+00 -0.1606357E-03
 -0.3669499E-02  0.0000000E+00 -0.5050505E-02  0.3236913E-06  0.0000000E+00 -0.1599524E-03
 -0.3353842E-02  0.0000000E+00 -0.5050505E-02  0.2963823E-06  0.0000000E+00 -0.1593204E-03
 -0.2978990E-02  0.0000000E+00 -0.5050505E-02  0.2643585E-06  0.0000000E+00 -0.1587489E-03
 -0.2347676E-02  0.0000000E+00 -0.5050505E-02  0.2275535E-06  0.0000000E+00 -0.1582475E-03
 -0.1716362E-02  0.0000000E+00 -0.5050505E-02  0.1862140E-06  0.0000000E+00 -0.1578258E-03
 -0.1025842E-02  0.0000000E+00 -0.5050505E-02  0.1409855E-06  0.0000000E+00 -0.1574924E-03
  0.2367855E-03  0.0000000E+00 -0.5050505E-02  0.9293430E-07  0.0000000E+00 -0.1572540E-03
  0.1499413E-02  0.0000000E+00 -0.5050505E-02  0.4346128E-07  0.0000000E+00 -0.1571150E-03
  0.2762042E-02  0.0000000E+00 -0.5050505E-02 -0.5895363E-08  0.0000000E+00 -0.1570767E-03
 -0.5050505E-02  0.0000000E+00 -0.5050505E-02 -0.5370730E-07  0.0000000E+00 -0.1571374E-03
 -0.5050505E-02  0.0000000E+00 -0.5050505E-02 -0.9885554E-07  0.0000000E+00 -0.1572929E-03
 -0.5050505E-02  0.0000000E+00 -0.5050505E-02 -0.1406188E-06  0.0000000E+00 -0.1575370E-03
 -0.5050505E-02  0.0000000E+00 -0.5050505E-02 -0.1786547E-06  0.0000000E+00 -0.1578623E-03
 -0.5050505E-02  0.0000000E+00 -0.5050505E-02 -0.2129160E-06  0.0000000E+00 -0.1582614E-03
 -0.5050505E-02  0.0000000E+00 -0.5050505E-02 -0.2435473E-06  0.0000000E+00 -0.1587266E-03
 -0.5050505E-02  0.0000000E+00 -0.5050505E-02 -0.2707931E-06  0.0000000E+00 -0.1592509E-03
 -0.5050504E-02  0.0000000E+00 -0.5050505E-02 -0.2949293E-06  0.0000000E+00 -0.1598275E-03
 -0.5050501E-02  0.0000000E+00 -0.5050505E-02 -0.3162215E-06  0.0000000E+00 -0.1604505E-03
 -0.5050495E-02  0.0000000E+00 -0.5050505E-02 -0.3349040E-06  0.0000000E+00 -0.1611143E-03
 -0.5050482E-02  0.0000000E+00 -0.5050505E-02 -0.3511724E-06  0.0000000E+00 -0.1618138E-03
 -0.5050449E-02  0.0000000E+00 -0.5050505E-02 -0.3651869E-06  0.0000000E+00 -0.1625442E-03
 -0.5050376E-02  0.0000000E+00 -0.5050505E-02 -0.3770776E-06  0.0000000E+00 -0.1633011E-03
 -0.5050299E-02  0.0000000E+00 -0.5050505E-02 -0.3869530E-06  0.0000000E+00 -0.1640803E-03
 -0.5050178E-02  0.0000000E+00 -0.5050505E-02 -0.3949066E-06  0.0000000E+00 -0.1648777E-03
 -0.5050018E-02  0.0000000E+00 -0.5050505E-02 -0.4010234E-06  0.0000000E+00 -0.1656895E-03
 -0.5049710E-02  0.0000000E+00 -0.5050505E-02 -0.4053838E-06  0.0000000E+00 -0.1665121E-03
 -0.5049253E-02  0.0000000E+00 -0.5050505E-02 -0.4080666E-06  0.0000000E+00 -0.1673420E-03
 -0.5048636E-02  0.0000000E+00 -0.5050505E-02 -0.4091512E-06  0.0000000E+00 -0.1681758E-03
 -0.5047442E-02  0.0000000E+00 -0.5050505E-02 -0.4087174E-06  0.0000000E+00 -0.1690103E-03
 -0.5045727E-02  0.0000000E+00 -0.5050505E-02 -0.4068464E-06  0.0000000E+00 -0.1698426E-03
 -0.5043261E-02  0.0000000E+00 -0.5050505E-02 -0.4036203E-06  0.0000000E+00 -0.1706697E-03
 -0.5038714E-02  0.0000000E+00 -0.5050505E-02 -0.3991216E-06  0.0000000E+00 -0.1714891E-03
 -0.5032318E-02  0.0000000E+00 -0.5050505E-02 -0.3934329E-06  0.0000000E+00 -0.1722981E-03
 -0.5022454E-02  0.0000000E+00 -0.5050505E-02 -0.3866367E-06  0.0000000E+00 -0.1730944E-03
 -0.5012589E-02  0.0000000E+00 -0.5050505E-02 -0.3788149E-06  0.0000000E+00 -0.1738759E-03
 -0.5002725E-02  0.0000000E+00 -0.5050505E-02 -0.3700491E-06  0.0000000E+00 -0.1746406E-03
 -0.4992860E-02  0.0000000E+00 -0.5050505E-02 -0.3604207E-06  0.0000000E+00 -0.1753865E-03
 -0.4976523E-02  0.0000000E+00 -0.5050505E-02 -0.3500118E-06  0.0000000E+00 -0.1761120E-03
 -0.4956794E-02  0.0000000E+00 -0.5050505E-02 -0.3389057E-06  0.0000000E+00 -0.1768156E-03
 -0.4937066E-02  0.0000000E+00 -0.5050505E-02 -0.3271888E-06  0.0000000E+00 -0.1774960E-03
 -0.4906239E-02  0.0000000E+00 -0.5050505E-02 -0.3149527E-06  0.0000000E+00 -0.1781519E-03
 -0.4866782E-02  0.0000000E+00 -0.5050505E-02 -0.3022983E-06  0.0000000E+00 -0.1787825E-03
 -0.4827325E-02  0.0000000E+00 -0.5050505E-02 -0.2893406E-06  0.0000000E+00 -0.1793869E-03
 -0.4769372E-02  0.0000000E+00 -0.5050505E-02 -0.2762176E-06  0.0000000E+00 -0.1799648E-03
 -0.4690458E-02  0.0000000E+00 -0.5050505E-02 -0.2631032E-06  0.0000000E+00 -0.1805159E-03
 -0.4611543E-02  0.0000000E+00 -0.5050505E-02 -0.2502294E-06  0.0000000E+00 -0.1810404E-03
 -0.4503035E-02  0.0000000E+00 -0.5050505E-02 -0.2379219E-06  0.0000000E+00 -0.1815393E-03
 -0.4345206E-02  0.0000000E+00 -0.5050505E-02 -0.2266646E-06  0.0000000E+00 -0.1820141E-03
 -0.4187378E-02  0.0000000E+00 -0.5050505E-02 -0.2172143E-06  0.0000000E+00 -0.1824677E-03
 -0.3985156E-02  0.0000000E+00 -0.5050505E-02 -0.2108221E-06  0.0000000E+00 -0.1829052E-03
 -0.3669499E-02  0.0000000E+00 -0.5050505E-02 -0.2096797E-06  0.0000000E+00 -0.1833350E-03
 -0.3353842E-02  0.0000000E+00 -0.5050505E-02 -0.2178821E-06  0.0000000E+00 -0.1837721E-03
 -0.2978990E-02  0.0000000E+00 -0.5050505E-02 -0.2436662E-06  0.0000000E+00 -0.1842439E-03
 -0.2347676E-02  0.0000000E+00 -0.5050505E-02 -0.3050691E-06  0.0000000E+00 -0.1848049E-03
 -0.1716362E-02  0.0000000E+00 -0.5050505E-02 -0.4456048E-06  0.0000000E+00 -0.1855723E-03
 -0.1025842E-02  0.0000000E+00 -0.5050505E-02 -0.7819981E-06  0.0000000E+00 -0.1868275E-03
  0.2367855E-03  0.0000000E+00 -0.5050505E-02 -0.1663589E-05  0.0000000E+00 -0.1893285E-03
  0.1499413E-02  0.0000000E+00 -0.5050505E-02 -0.4251749E-05  0.0000000E+00 -0.1953798E-03
  0.5287294E-02  0.0000000E+00 -0.5050505E-02 -0.6898322E-04  0.0000000E+00 -0.1560303E-03
 -0.5050505E-02  0.0000000E+00 -0.5050505E-02  0.2742085E-07  0.0000000E+00 -0.1830283E-03
 -0.5050505E-02  0.0000000E+00 -0.5050505E-02  0.8222790E-07  0.0000000E+00 -0.1829907E-03
 -0.5050505E-02  0.0000000E+00 -0.5050505E-02  0.1369308E-06  0.0000000E+00 -0.1829157E-03
 -0.5050505E-02  0.0000000E+00 -0.5050505E-02  0.1914595E-06  0.0000000E+00 -0.1828034E-03
 -0.5050505E-02  0.0000000E+00 -0.5050505E-02  0.2457427E-06  0.0000000E+00 -0.1826538E-03
 -0.5050505E-02  0.0000000E+00 -0.5050505E-02  0.2997075E-06  0.0000000E+00 -0.1824671E-03
 -0.5050504E-02  0.0000000E+00 -0.5050505E-02  0.3532785E-06  0.0000000E+00 -0.1822437E-03
 -0.5050501E-02  0.0000000E+00 -0.5050505E-02  0.4063779E-06  0.0000000E+00 -0.1819838E-03
 -0.5050495E-02  0.0000000E+00 -0.5050505E-02  0.4589245E-06  0.0000000E+00 -0.1816877E-03
 -0.5050482E-02  0.0000000E+00 -0.5050505E-02  0.5108335E-06  0.0000000E+00 -0.1813559E-03
 -0.5050449E-02  0.0000000E+00 -0.5050505E-02  0.5620159E-06  0.0000000E+00 -0.1809888E-03
 -0.5050376E-02  0.0000000E+00 -0.5050505E-02  0.6123784E-06  0.0000000E+00 -0.1805870E-03
 -0.5050299E-02  0.0000000E+00 -0.5050505E-02  0.6618227E-06  0.0000000E+00 -0.1801511E-03
 -0.5050178E-02  0.0000000E+00 -0.5050505E-02  0.7102452E-06  0.0000000E+00 -0.1796816E-03
 -0.5050018E-02  0.0000000E+00 -0.5050505E-02  0.7575370E-06  0.0000000E+00 -0.1791795E-03
 -0.5049710E-02  0.0000000E+00 -0.5050505E-02  0.8035831E-06  0.0000000E+00 -0.1786454E-03
 -0.5049253E-02  0.0000000E+00 -0.5050505E-02  0.8482625E-06  0.0000000E+00 -0.1780802E-03
 -0.5048636E-02  0.0000000E+00 -0.5050505E-02  0.8914480E-06  0.0000000E+00 -0.1774850E-03
 -0.5047442E-02  0.0000000E+00 -0.5050505E-02  0.9330056E-06  0.0000000E+00 -0.1768609E-03
 -0.5045727E-02  0.0000000E+00 -0.5050505E-02  0.9727943E-06  0.0000000E+00 -0.1762089E-03
 -0.5043261E-02  0.0000000E+00 -0.5050505E-02  0.1010666E-05  0.0000000E+00 -0.1755303E-03
 -0.5038714E-02  0.0000000E+00 -0.5050505E-02  0.1046465E-05  0.0000000E+00 -0.1748265E-03
 -0.5032318E-02  0.0000000E+00 -0.5050505E-02  0.1080026E-05  0.0000000E+00 -0.1740990E-03
 -0.5022454E-02  0.0000000E+00 -0.5050505E-02  0.1111176E-05  0.0000000E+00 -0.1733494E-03
 -0.5012589E-02  0.0000000E+00 -0.5050505E-02  0.1139729E-05  0.0000000E+00 -0.1725793E-03
 -0.5002725E-02  0.0000000E+00 -0.5050505E-02  0.1165490E-05  0.0000000E+00 -0.1717906E-03
 -0.4992860E-02  0.0000000E+00 -0.5050505E-02  0.1188245E-05  0.0000000E+00 -0.1709853E-03
 -0.4976523E-02  0.0000000E+00 -0.5050505E-02  0.1207763E-05  0.0000000E+00 -0.1701655E-03
 -0.4956794E-02  0.0000000E+00 -0.5050505E-02  0.1223791E-05  0.0000000E+00 -0.1693335E-03
 -0.4937066E-02  0.0000000E+00 -0.5050505E-02  0.1236045E-05  0.0000000E+00 -0.1684917E-03
 -0.4906239E-02  0.0000000E+00 -0.5050505E-02  0.1244204E-05  0.0000000E+00 -0.1676429E-03
 -0.4866782E-02  0.0000000E+00 -0.5050505E-02  0.1247900E-05  0.0000000E+00 -0.1667898E-03
 -0.4827325E-02  0.0000000E+00 -0.5050505E-02  0.1246705E-05  0.0000000E+00 -0.1659357E-03
 -0.4769372E-02  0.0000000E+00 -0.5050505E-02  0.1240114E-05  0.0000000E+00 -0.1650840E-03
 -0.4690458E-02  0.0000000E+00 -0.5050505E-02  0.1227528E-05  0.0000000E+00 -0.1642386E-03
 -0.4611543E-02  0.0000000E+00 -0.5050505E-02  0.1208237E-05  0.0000000E+00 -0.1634038E-03
 -0.4503035E-02  0.0000000E+00 -0.5050505E-02  0.1181393E-05  0.0000000E+00 -0.1625842E-03
 -0.4345206E-02  0.0000000E+00 -0.5050505E-02  0.1146005E-05  0.0000000E+00 -0.1617855E-03
 -0.4187378E-02  0.0000000E+00 -0.5050505E-02  0.1100936E-05  0.0000000E+00 -0.1610136E-03
 -0.3985156E-02  0.0000000E+00 -0.5050505E-02  0.1044926E-05  0.0000000E+00 -0.1602758E-03
 -0.3669499E-02  0.0000000E+00 -0.5050505E-02  0.9766670E-06  0.0000000E+00 -0.1595798E-03
 -0.3353842E-02  0.0000000E+00 -0.5050505E-02  0.8949384E-06  0.0000000E+00 -0.1589345E-03
 -0.2978990E-02  0.0000000E+00 -0.5050505E-02  0.7988232E-06  0.0000000E+00 -0.1583498E-03
 -0.2347676E-02  0.0000000E+00 -0.5050505E-02  0.6880136E-06  0.0000000E+00 -0.1578359E-03
 -0.1716362E-02  0.0000000E+00 -0.5050505E-02  0.5631632E-06  0.0000000E+00 -0.1574031E-03
 -0.1025842E-02  0.0000000E+00 -0.5050505E-02  0.4261937E-06  0.0000000E+00 -0.1570609E-03
  0.2367855E-03  0.0000000E+00 -0.5050505E-02  0.2804002E-06  0.0000000E+00 -0.1568170E-03
  0.1499413E-02  0.0000000E+00 -0.5050505E-02  0.1301961E-06  0.0000000E+00 -0.1566762E-03
  0.2762042E-02  0.0000000E+00 -0.5050505E-02 -0.1954208E-07  0.0000000E+00 -0.1566399E-03
 -0.5050505E-02  0.0000000E+00 -0.5050505E-02 -0.1643179E-06  0.0000000E+00 -0.1567059E-03
 -0.5050505E-02  0.0000000E+00 -0.5050505E-02 -0.3006766E-06  0.0000000E+00 -0.1568692E-03
 -0.5050505E-02  0.0000000E+00 -0.5050505E-02 -0.4264671E-06  0.0000000E+00 -0.1571228E-03
 -0.5050505E-02  0.0000000E+00 -0.5050505E-02 -0.5407445E-06  0.0000000E+00 -0.1574586E-03
 -0.5050505E-02  0.0000000E+00 -0.5050505E-02 -0.6434725E-06  0.0000000E+00 -0.1578683E-03
 -0.5050505E-02  0.0000000E+00 -0.5050505E-02 -0.7351821E-06  0.0000000E+00 -0.1583441E-03
 -0.5050505E-02  0.0000000E+00 -0.5050505E-02 -0.8166794E-06  0.0000000E+00 -0.1588787E-03
 -0.5050504E-02  0.0000000E+00 -0.5050505E-02 -0.8888401E-06  0.0000000E+00 -0.1594653E-03
 -0.5050501E-02  0.0000000E+00 -0.5050505E-02 -0.9524868E-06  0.0000000E+00 -0.1600979E-03
 -0.5050495E-02  0.0000000E+00 -0.5050505E-02 -0.1008332E-05  0.0000000E+00 -0.1607709E-03
 -0.5050482E-02  0.0000000E+00 -0.5050505E-02 -0.1056964E-05  0.0000000E+00 -0.1614793E-03
 -0.5050449E-02  0.0000000E+00 -0.5050505E-02 -0.1098859E-05  0.0000000E+00 -0.1622184E-03
 -0.5050376E-02  0.0000000E+00 -0.5050505E-02 -0.1134400E-05  0.0000000E+00 -0.1629838E-03
 -0.5050299E-02  0.0000000E+00 -0.5050505E-02 -0.1163907E-05  0.0000000E+00 -0.1637712E-03
 -0.5050178E-02  0.0000000E+00 -0.5050505E-02 -0.1187655E-05  0.0000000E+00 -0.1645767E-03
 -0.5050018E-02  0.0000000E+00 -0.5050505E-02 -0.1205895E-05  0.0000000E+00 -0.1653964E-03
 -0.5049710E-02  0.0000000E+00 -0.5050505E-02 -0.1218866E-05  0.0000000E+00 -0.1662266E-03
 -0.5049253E-02  0.0000000E+00 -0.5050505E-02 -0.1226802E-05  0.0000000E+00 -0.1670639E-03
 -0.5048636E-02  0.0000000E+00 -0.5050505E-02 -0.1229941E-05  0.0000000E+00 -0.1679050E-03
 -0.5047442E-02  0.0000000E+00 -0.5050505E-02 -0.1228523E-05  0.0000000E+00 -0.1687465E-03
 -0.5045727E-02  0.0000000E+00 -0.5050505E-02 -0.1222792E-05  0.0000000E+00 -0.1695855E-03
 -0.5043261E-02  0.0000000E+00 -0.5050505E-02 -0.1212994E-05  0.0000000E+00 -0.1704191E-03
 -0.5038714E-02  0.0000000E+00 -0.5050505E-02 -0.1199378E-05  0.0000000E+00 -0.1712447E-03
 -0.5032318E-02  0.0000000E+00 -0.5050505E-02 -0.1182192E-05  0.0000000E+00 -0.1720597E-03
 -0.5022454E-02  0.0000000E+00 -0.5050505E-02 -0.1161683E-05  0.0000000E+00 -0.1728617E-03
 -0.5012589E-02  0.0000000E+00 -0.5050505E-02 -0.1138099E-05  0.0000000E+00 -0.1736486E-03
 -0.5002725E-02  0.0000000E+00 -0.5050505E-02 -0.1111682E-05  0.0000000E+00 -0.1744184E-03
 -0.4992860E-02  0.0000000E+00 -0.5050505E-02 -0.1082678E-05  0.0000000E+00 -0.1751691E-03
 -0.4976523E-02  0.0000000E+00 -0.5050505E-02 -0.1051331E-05  0.0000000E+00 -0.1758992E-03
 -0.4956794E-02  0.0000000E+00 -0.5050505E-02 -0.1017890E-05  0.0000000E+00 -0.1766070E-03
 -0.4937066E-02  0.0000000E+00 -0.5050505E-02 -0.9826108E-06  0.0000000E+00 -0.1772913E-03
 -0.4906239E-02  0.0000000E+00 -0.5050505E-02 -0.9457663E-06  0.0000000E+00 -0.1779508E-03
 -0.4866782E-02  0.0000000E+00 -0.5050505E-02 -0.9076526E-06  0.0000000E+00 -0.1785846E-03
 -0.4827325E-02  0.0000000E+00 -0.5050505E-02 -0.8686068E-06  0.0000000E+00 -0.1791919E-03
 -0.4769372E-02  0.0000000E+00 -0.5050505E-02 -0.8290293E-06  0.0000000E+00 -0.1797721E-03
 -0.4690458E-02  0.0000000E+00 -0.5050505E-02 -0.7894205E-06  0.0000000E+00 -0.1803250E-03
 -0.4611543E-02  0.0000000E+00 -0.5050505E-02 -0.7504394E-06  0.0000000E+00 -0.1808507E-03
 -0.4503035E-02  0.0000000E+00 -0.5050505E-02 -0.7130008E-06  0.0000000E+00 -0.1813498E-03
 -0.4345206E-02  0.0000000E+00 -0.5050505E-02 -0.6784411E-06  0.0000000E+00 -0.1818233E-03
 -0.4187378E-02  0.0000000E+00 -0.5050505E-02 -0.6488123E-06  0.0000000E+00 -0.1822736E-03
 -0.3985156E-02  0.0000000E+00 -0.5050505E-02 -0.6274268E-06  0.0000000E+00 -0.1827041E-03
 -0.3669499E-02  0.0000000E+00 -0.5050505E-02 -0.6199098E-06  0.0000000E+00 -0.1831205E-03
 -0.3353842E-02  0.0000000E+00 -0.5050505E-02 -0.6363426E-06  0.0000000E+00 -0.1835316E-03
 -0.2978990E-02  0.0000000E+00 -0.5050505E-02 -0.6958707E-06  0.0000000E+00 -0.1839510E-03
 -0.2347676E-02  0.0000000E+00 -0.5050505E-02 -0.8372080E-06  0.0000000E+00 -0.1843977E-03
 -0.1716362E-02  0.0000000E+00 -0.5050505E-02 -0.1144052E-05  0.0000000E+00 -0.1848903E-03
 -0.1025842E-02  0.0000000E+00 -0.5050505E-02 -0.1810255E-05  0.0000000E+00 -0.1854038E-03
  0.2367855E-03  0.0000000E+00 -0.5050505E-02 -0.3315914E-05  0.0000000E+00 -0.1856509E-03
  0.1499413E-02  0.0000000E+00 -0.5050505E-02 -0.6923363E-05  0.0000000E+00 -0.1840427E-03
  0.5287294E-02  0.0000000E+00 -0.5050505E-02 -0.1610889E-04  0.0000000E+00 -0.1728364E-03
 -0.5050505E-02  0.0000000E+00 -0.5050505E-02  0.4580485E-07  0.0000000E+00 -0.1826801E-03
 -0.5050505E-02  0.0000000E+00 -0.5050505E-02  0.1373572E-06  0.0000000E+00 -0.1826422E-03
 -0.5050505E-02  0.0000000E+00 -0.5050505E-02  0.2287372E-06  0.0000000E+00 -0.1825664E-03
 -0.5050505E-02  0.0000000E+00 -0.5050505E-02  0.3198286E-06  0.0000000E+00 -0.1824529E-03
 -0.5050505E-02  0.0000000E+00 -0.5050505E-02  0.4105133E-06  0.0000000E+00 -0.1823018E-03
 -0.5050505E-02  0.0000000E+00 -0.5050505E-02  0.5006704E-06  0.0000000E+00 -0.1821132E-03
 -0.5050504E-02  0.0000000E+00 -0.5050505E-02  0.5901750E-06  0.0000000E+00 -0.1818875E-03
 -0.5050501E-02  0.0000000E+00 -0.5050505E-02  0.6788977E-06  0.0000000E+00 -0.1816248E-03
 -0.5050495E-02  0.0000000E+00 -0.5050505E-02  0.7667040E-06  0.0000000E+00 -0.1813256E-03
 -0.5050482E-02  0.0000000E+00 -0.5050505E-02  0.8534528E-06  0.0000000E+00 -0.1809903E-03
 -0.5050449E-02  0.0000000E+00 -0.5050505E-02  0.9389965E-06  0.0000000E+00 -0.1806193E-03
 -0.5050376E-02  0.0000000E+00 -0.5050505E-02  0.1023180E-05  0.0000000E+00 -0.1802132E-03
 -0.5050299E-02  0.0000000E+00 -0.5050505E-02  0.1105839E-05  0.0000000E+00 -0.1797724E-03
 -0.5050178E-02  0.0000000E+00 -0.5050505E-02  0.1186803E-05  0.0000000E+00 -0.1792978E-03
 -0.5050018E-02  0.0000000E+00 -0.5050505E-02  0.1265888E-05  0.0000000E+00 -0.1787900E-03
 -0.5049710E-02  0.0000000E+00 -0.5050505E-02  0.1342906E-05  0.0000000E+00 -0.1782499E-03
 -0.5049253E-02  0.0000000E+00 -0.5050505E-02  0.1417653E-05  0.0000000E+00 -0.1776782E-03
 -0.5048636E-02  0.0000000E+00 -0.5050505E-02  0.1489918E-05  0.0000000E+00 -0.1770761E-03
 -0.5047442E-02  0.0000000E+00 -0.5050505E-02  0.1559477E-05  0.0000000E+00 -0.1764445E-03
 -0.5045727E-02  0.0000000E+00 -0.5050505E-02  0.1626098E-05  0.0000000E+00 -0.1757846E-03
 -0.5043261E-02  0.0000000E+00 -0.5050505E-02  0.1689532E-05  0.0000000E+00 -0.1750977E-03
 -0.5038714E-02  0.0000000E+00 -0.5050505E-02  0.1749521E-05  0.0000000E+00 -0.1743852E-03
 -0.5032318E-02  0.0000000E+00 -0.5050505E-02  0.1805792E-05  0.0000000E+00 -0.1736484E-03
 -0.5022454E-02  0.0000000E+00 -0.5050505E-02  0.1858056E-05  0.0000000E+00 -0.1728889E-03
 -0.5012589E-02  0.0000000E+00 -0.5050505E-02  0.1906008E-05  0.0000000E+00 -0.1721086E-03
 -0.5002725E-02  0.0000000E+00 -0.5050505E-02  0.1949322E-05  0.0000000E+00 -0.1713091E-03
 -0.4992860E-02  0.0000000E+00 -0.5050505E-02  0.1987647E-05  0.0000000E+00 -0.1704925E-03
 -0.4976523E-02  0.0000000E+00 -0.5050505E-02  0.2020605E-05  0.0000000E+00 -0.1696608E-03
 -0.4956794E-02  0.0000000E+00 -0.5050505E-02  0.2047777E-05  0.0000000E+00 -0.1688163E-03
 -0.4937066E-02  0.0000000E+00 -0.5050505E-02  0.2068700E-05  0.0000000E+00 -0.1679614E-03
 -0.4906239E-02  0.0000000E+00 -0.5050505E-02  0.2082851E-05  0.0000000E+00 -0.1670988E-03
 -0.4866782E-02  0.0000000E+00 -0.5050505E-02  0.2089629E-05  0.0000000E+00 -0.1662312E-03
 -0.4827325E-02  0.0000000E+00 -0.5050505E-02  0.2088335E-05  0.0000000E+00 -0.1653618E-03
 -0.4769372E-02  0.0000000E+00 -0.5050505E-02  0.2078146E-05  0.0000000E+00 -0.1644940E-03
 -0.4690458E-02  0.0000000E+00 -0.5050505E-02  0.2058081E-05  0.0000000E+00 -0.1636313E-03
 -0.4611543E-02  0.0000000E+00 -0.5050505E-02  0.2026969E-05  0.0000000E+00 -0.1627781E-03
 -0.4503035E-02  0.0000000E+00 -0.5050505E-02  0.1983405E-05  0.0000000E+00 -0.1619389E-03
 -0.4345206E-02  0.0000000E+00 -0.5050505E-02  0.1925725E-05  0.0000000E+00 -0.1611190E-03
 -0.4187378E-02  0.0000000E+00 -0.5050505E-02  0.1851985E-05  0.0000000E+00 -0.1603244E-03
 -0.3985156E-02  0.0000000E+00 -0.5050505E-02  0.1759990E-05  0.0000000E+00 -0.1595623E-03
 -0.3669499E-02  0.0000000E+00 -0.5050505E-02  0.1647388E-05  0.0000000E+00 -0.1588405E-03
 -0.3353842E-02  0.0000000E+00 -0.5050505E-02  0.1511877E-05  0.0000000E+00 -0.1581685E-03
 -0.2978990E-02  0.0000000E+00 -0.5050505E-02  0.1351576E-05  0.0000000E+00 -0.1575567E-03
 -0.2347676E-02  0.0000000E+00 -0.5050505E-02  0.1165574E-05  0.0000000E+00 -0.1570168E-03
 -0.1716362E-02  0.0000000E+00 -0.5050505E-02  0.9546273E-06  0.0000000E+00 -0.1565607E-03
 -0.1025842E-02  0.0000000E+00 -0.5050505E-02  0.7218470E-06  0.0000000E+00 -0.1562001E-03
  0.2367855E-03  0.0000000E+00 -0.5050505E-02  0.4730480E-06  0.0000000E+00 -0.1559446E-03
  0.1499413E-02  0.0000000E+00 -0.5050505E-02  0.2163566E-06  0.0000000E+00 -0.1558002E-03
  0.2762042E-02  0.0000000E+00 -0.5050505E-02 -0.3911750E-07  0.0000000E+00 -0.1557684E-03
 -0.5050505E-02  0.0000000E+00 -0.5050505E-02 -0.2851063E-06  0.0000000E+00 -0.1558458E-03
 -0.5050505E-02  0.0000000E+00 -0.5050505E-02 -0.5155229E-06  0.0000000E+00 -0.1560258E-03
 -0.5050505E-02  0.0000000E+00 -0.5050505E-02 -0.7268652E-06  0.0000000E+00 -0.1562991E-03
 -0.5050505E-02  0.0000000E+00 -0.5050505E-02 -0.9178788E-06  0.0000000E+00 -0.1566563E-03
 -0.5050505E-02  0.0000000E+00 -0.5050505E-02 -0.1088888E-05  0.0000000E+00 -0.1570879E-03
 -0.5050505E-02  0.0000000E+00 -0.5050505E-02 -0.1241117E-05  0.0000000E+00 -0.1575852E-03
 -0.5050505E-02  0.0000000E+00 -0.5050505E-02 -0.1376158E-05  0.0000000E+00 -0.1581405E-03
 -0.5050504E-02  0.0000000E+00 -0.5050505E-02 -0.1495626E-05  0.0000000E+00 -0.1587470E-03
 -0.5050501E-02  0.0000000E+00 -0.5050505E-02 -0.1600971E-05  0.0000000E+00 -0.1593987E-03
 -0.5050495E-02  0.0000000E+00 -0.5050505E-02 -0.1693413E-05  0.0000000E+00 -0.1600901E-03
 -0.5050482E-02  0.0000000E+00 -0.5050505E-02 -0.1773928E-05  0.0000000E+00 -0.1608164E-03
 -0.5050449E-02  0.0000000E+00 -0.5050505E-02 -0.1843292E-05  0.0000000E+00 -0.1615727E-03
 -0.5050376E-02  0.0000000E+00 -0.5050505E-02 -0.1902123E-05  0.0000000E+00 -0.1623550E-03
 -0.5050299E-02  0.0000000E+00 -0.5050505E-02 -0.1950930E-05  0.0000000E+00 -0.1631588E-03
 -0.5050178E-02  0.0000000E+00 -0.5050505E-02 -0.1990155E-05  0.0000000E+00 -0.1639804E-03
 -0.5050018E-02  0.0000000E+00 -0.5050505E-02 -0.2020202E-05  0.0000000E+00 -0.1648158E-03
 -0.5049710E-02  0.0000000E+00 -0.5050505E-02 -0.2041460E-05  0.0000000E+00 -0.1656614E-03
 -0.5049253E-02  0.0000000E+00 -0.5050505E-02 -0.2054319E-05  0.0000000E+00 -0.1665136E-03
 -0.5048636E-02  0.0000000E+00 -0.5050505E-02 -0.2059170E-05  0.0000000E+00 -0.1673690E-03
 -0.5047442E-02  0.0000000E+00 -0.5050505E-02 -0.2056414E-05  0.0000000E+00 -0.1682245E-03
 -0.5045727E-02  0.0000000E+00 -0.5050505E-02 -0.2046461E-05  0.0000000E+00 -0.1690770E-03
 -0.5043261E-02  0.0000000E+00 -0.5050505E-02 -0.2029724E-05  0.0000000E+00 -0.1699236E-03
 -0.5038714E-02  0.0000000E+00 -0.5050505E-02 -0.2006617E-05  0.0000000E+00 -0.1707616E-03
 -0.5032318E-02  0.0000000E+00 -0.5050505E-02 -0.1977558E-05  0.0000000E+00 -0.1715884E-03
 -0.5022454E-02  0.0000000E+00 -0.5050505E-02 -0.1942961E-05  0.0000000E+00 -0.1724018E-03
 -0.5012589E-02  0.0000000E+00 -0.5050505E-02 -0.1903236E-05  0.0000000E+00 -0.1731994E-03
 -0.5002725E-02  0.0000000E+00 -0.5050505E-02 -0.1858791E-05  0.0000000E+00 -0.1739794E-03
 -0.4992860E-02  0.0000000E+00 -0.5050505E-02 -0.1810031E-05  0.0000000E+00 -0.1747397E-03
 -0.4976523E-02  0.0000000E+00 -0.5050505E-02 -0.1757362E-05  0.0000000E+00 -0.1754788E-03
 -0.4956794E-02  0.0000000E+00 -0.5050505E-02 -0.1701192E-05  0.0000000E+00 -0.1761951E-03
 -0.4937066E-02  0.0000000E+00 -0.5050505E-02 -0.1641944E-05  0.0000000E+00 -0.1768872E-03
 -0.4906239E-02  0.0000000E+00 -0.5050505E-02 -0.1580058E-05  0.0000000E+00 -0.1775539E-03
 -0.4866782E-02  0.0000000E+00 -0.5050505E-02 -0.1516013E-05  0.0000000E+00 -0.1781941E-03
 -0.4827325E-02  0.0000000E+00 -0.5050505E-02 -0.1450343E-05  0.0000000E+00 -0.1788071E-03
 -0.4769372E-02  0.0000000E+00 -0.5050505E-02 -0.1383677E-05  0.0000000E+00 -0.1793922E-03
 -0.4690458E-02  0.0000000E+00 -0.5050505E-02 -0.1316782E-05  0.0000000E+00 -0.1799489E-03
 -0.4611543E-02  0.0000000E+00 -0.5050505E-02 -0.1250648E-05  0.0000000E+00 -0.1804771E-03
 -0.4503035E-02  0.0000000E+00 -0.5050505E-02 -0.1186614E-05  0.0000000E+00 -0.1809769E-03
 -0.4345206E-02  0.0000000E+00 -0.5050505E-02 -0.1126579E-05  0.0000000E+00 -0.1814488E-03
 -0.4187378E-02  0.0000000E+00 -0.5050505E-02 -0.1073352E-05  0.0000000E+00 -0.1818938E-03
 -0.3985156E-02  0.0000000E+00 -0.5050505E-02 -0.1031268E-05  0.0000000E+00 -0.1823131E-03
 -0.3669499E-02  0.0000000E+00 -0.5050505E-02 -0.1007274E-05  0.0000000E+00 -0.1827086E-03
 -0.3353842E-02  0.0000000E+00 -0.5050505E-02 -0.1012903E-05  0.0000000E+00 -0.1830816E-03
 -0.2978990E-02  0.0000000E+00 -0.5050505E-02 -0.1067885E-05  0.0000000E+00 -0.1834308E-03
 -0.2347676E-02  0.0000000E+00 -0.5050505E-02 -0.1206651E-05  0.0000000E+00 -0.1837461E-03
 -0.1716362E-02  0.0000000E+00 -0.5050505E-02 -0.1489131E-05  0.0000000E+00 -0.1839892E-03
 -0.1025842E-02  0.0000000E+00 -0.5050505E-02 -0.2013646E-05  0.0000000E+00 -0.1840446E-03
  0.2367855E-03  0.0000000E+00 -0.5050505E-02 -0.2905107E-05  0.0000000E+00 -0.1836004E-03
  0.1499413E-02  0.0000000E+00 -0.5050505E-02 -0.4125876E-05  0.0000000E+00 -0.1819619E-03
  0.5287294E-02  0.0000000E+00 -0.5050505E-02 -0.4367556E-05  0.0000000E+00 -0.1784129E-03
 -0.5050505E-02  0.0000000E+00 -0.5050505E-02  0.6437593E-07  0.0000000E+00 -0.1821652E-03
 -0.5050505E-02  0.0000000E+00 -0.5050505E-02  0.1930482E-06  0.0000000E+00 -0.1821267E-03
 -0.5050505E-02  0.0000000E+00 -0.5050505E-02  0.3214813E-06  0.0000000E+00 -0.1820498E-03
 -0.5050505E-02  0.0000000E+00 -0.5050505E-02  0.4495140E-06  0.0000000E+00 -0.1819346E-03
 -0.5050505E-02  0.0000000E+00 -0.5050505E-02  0.5769820E-06  0.0000000E+00 -0.1817811E-03
 -0.5050505E-02  0.0000000E+00 -0.5050505E-02  0.7037174E-06  0.0000000E+00 -0.1815897E-03
 -0.5050504E-02  0.0000000E+00 -0.5050505E-02  0.8295465E-06  0.0000000E+00 -0.1813605E-03
 -0.5050501E-02  0.0000000E+00 -0.5050505E-02  0.9542894E-06  0.0000000E+00 -0.1810938E-03
 -0.5050495E-02  0.0000000E+00 -0.5050505E-02  0.1077759E-05  0.0000000E+00 -0.1807900E-03
 -0.5050482E-02  0.0000000E+00 -0.5050505E-02  0.1199758E-05  0.0000000E+00 -0.1804494E-03
 -0.5050449E-02  0.0000000E+00 -0.5050505E-02  0.1320081E-05  0.0000000E+00 -0.1800725E-03
 -0.5050376E-02  0.0000000E+00 -0.5050505E-02  0.1438511E-05  0.0000000E+00 -0.1796599E-03
 -0.5050299E-02  0.0000000E+00 -0.5050505E-02  0.1554821E-05  0.0000000E+00 -0.1792121E-03
 -0.5050178E-02  0.0000000E+00 -0.5050505E-02  0.1668770E-05  0.0000000E+00 -0.1787297E-03
 -0.5050018E-02  0.0000000E+00 -0.5050505E-02  0.1780104E-05  0.0000000E+00 -0.1782135E-03
 -0.5049710E-02  0.0000000E+00 -0.5050505E-02  0.1888555E-05  0.0000000E+00 -0.1776643E-03
 -0.5049253E-02  0.0000000E+00 -0.5050505E-02  0.1993844E-05  0.0000000E+00 -0.1770830E-03
 -0.5048636E-02  0.0000000E+00 -0.5050505E-02  0.2095672E-05  0.0000000E+00 -0.1764705E-03
 -0.5047442E-02  0.0000000E+00 -0.5050505E-02  0.2193728E-05  0.0000000E+00 -0.1758278E-03
 -0.5045727E-02  0.0000000E+00 -0.5050505E-02  0.2287685E-05  0.0000000E+00 -0.1751562E-03
 -0.5043261E-02  0.0000000E+00 -0.5050505E-02  0.2377199E-05  0.0000000E+00 -0.1744568E-03
 -0.5038714E-02  0.0000000E+00 -0.5050505E-02  0.2461907E-05  0.0000000E+00 -0.1737311E-03
 -0.5032318E-02  0.0000000E+00 -0.5050505E-02  0.2541429E-05  0.0000000E+00 -0.1729804E-03
 -0.5022454E-02  0.0000000E+00 -0.5050505E-02  0.2615365E-05  0.0000000E+00 -0.1722063E-03
 -0.5012589E-02  0.0000000E+00 -0.5050505E-02  0.2683290E-05  0.0000000E+00 -0.1714106E-03
 -0.5002725E-02  0.0000000E+00 -0.5050505E-02  0.2744754E-05  0.0000000E+00 -0.1705949E-03
 -0.4992860E-02  0.0000000E+00 -0.5050505E-02  0.2799273E-05  0.0000000E+00 -0.1697614E-03
 -0.4976523E-02  0.0000000E+00 -0.5050505E-02  0.2846328E-05  0.0000000E+00 -0.1689119E-03
 -0.4956794E-02  0.0000000E+00 -0.5050505E-02  0.2885347E-05  0.0000000E+00 -0.1680488E-03
 -0.4937066E-02  0.0000000E+00 -0.5050505E-02  0.2915698E-05  0.0000000E+00 -0.1671744E-03