title = "dataset feddes"
variables = "x", "y", "z", "vx", "vy", "vz"
zone t = "velocities, solution time =  5.900E+01 days        " i =   99, j =   99, k =    1,  f=point
 -0.5050505E-02  0.0000000E+00 -0.5050505E-02  0.5231728E-07  0.0000000E+00 -0.4392272E-04
 -0.5050505E-02  0.0000000E+00 -0.5050505E-02  0.1570100E-06  0.0000000E+00 -0.4371227E-04
 -0.5050505E-02  0.0000000E+00 -0.5050505E-02  0.2618795E-06  0.0000000E+00 -0.4329117E-04
 -0.5050505E-02  0.0000000E+00 -0.5050505E-02  0.3670458E-06  0.0000000E+00 -0.4265896E-04
 -0.5050505E-02  0.0000000E+00 -0.5050505E-02  0.4726293E-06  0.0000000E+00 -0.4181499E-04
 -0.5050505E-02  0.0000000E+00 -0.5050505E-02  0.5787503E-06  0.0000000E+00 -0.4075838E-04
 -0.5050504E-02  0.0000000E+00 -0.5050505E-02  0.6855286E-06  0.0000000E+00 -0.3948799E-04
 -0.5050501E-02  0.0000000E+00 -0.5050505E-02  0.7930833E-06  0.0000000E+00 -0.3800251E-04
 -0.5050495E-02  0.0000000E+00 -0.5050505E-02  0.9015329E-06  0.0000000E+00 -0.3630037E-04
 -0.5050482E-02  0.0000000E+00 -0.5050505E-02  0.1010996E-05  0.0000000E+00 -0.3437980E-04
 -0.5050449E-02  0.0000000E+00 -0.5050505E-02  0.1121591E-05  0.0000000E+00 -0.3223881E-04
 -0.5050376E-02  0.0000000E+00 -0.5050505E-02  0.1233437E-05  0.0000000E+00 -0.2987518E-04
 -0.5050299E-02  0.0000000E+00 -0.5050505E-02  0.1346657E-05  0.0000000E+00 -0.2728648E-04
 -0.5050178E-02  0.0000000E+00 -0.5050505E-02  0.1461376E-05  0.0000000E+00 -0.2447004E-04
 -0.5050018E-02  0.0000000E+00 -0.5050505E-02  0.1577728E-05  0.0000000E+00 -0.2142298E-04
 -0.5049710E-02  0.0000000E+00 -0.5050505E-02  0.1695851E-05  0.0000000E+00 -0.1814214E-04
 -0.5049253E-02  0.0000000E+00 -0.5050505E-02  0.1815897E-05  0.0000000E+00 -0.1462412E-04
 -0.5048636E-02  0.0000000E+00 -0.5050505E-02  0.1938031E-05  0.0000000E+00 -0.1086522E-04
 -0.5047442E-02  0.0000000E+00 -0.5050505E-02  0.2062432E-05  0.0000000E+00 -0.6861416E-05
 -0.5045727E-02  0.0000000E+00 -0.5050505E-02  0.2189286E-05  0.0000000E+00 -0.2608370E-05
 -0.5043261E-02  0.0000000E+00 -0.5050505E-02  0.2318754E-05  0.0000000E+00  0.1905834E-05
 -0.5038714E-02  0.0000000E+00 -0.5050505E-02  0.2450821E-05  0.0000000E+00  0.6689892E-05
 -0.5032318E-02  0.0000000E+00 -0.5050505E-02  0.2586071E-05  0.0000000E+00  0.1174568E-04
 -0.5022454E-02  0.0000000E+00 -0.5050505E-02  0.2724824E-05  0.0000000E+00  0.1707979E-04
 -0.5012589E-02  0.0000000E+00 -0.5050505E-02  0.2867477E-05  0.0000000E+00  0.2270021E-04
 -0.5002725E-02  0.0000000E+00 -0.5050505E-02  0.3014523E-05  0.0000000E+00  0.2861586E-04
 -0.4992860E-02  0.0000000E+00 -0.5050505E-02  0.3166588E-05  0.0000000E+00  0.3483683E-04
 -0.4976523E-02  0.0000000E+00 -0.5050505E-02  0.3324473E-05  0.0000000E+00  0.4137473E-04
 -0.4956794E-02  0.0000000E+00 -0.5050505E-02  0.3489211E-05  0.0000000E+00  0.4824307E-04
 -0.4937066E-02  0.0000000E+00 -0.5050505E-02  0.3662147E-05  0.0000000E+00  0.5545785E-04
 -0.4906239E-02  0.0000000E+00 -0.5050505E-02  0.3845027E-05  0.0000000E+00  0.6303829E-04
 -0.4866782E-02  0.0000000E+00 -0.5050505E-02  0.4040096E-05  0.0000000E+00  0.7100776E-04
 -0.4827325E-02  0.0000000E+00 -0.5050505E-02  0.4250185E-05  0.0000000E+00  0.7939488E-04
 -0.4769372E-02  0.0000000E+00 -0.5050505E-02  0.4478763E-05  0.0000000E+00  0.8823485E-04
 -0.4690458E-02  0.0000000E+00 -0.5050505E-02  0.4729890E-05  0.0000000E+00  0.9757070E-04
 -0.4611543E-02  0.0000000E+00 -0.5050505E-02  0.5007963E-05  0.0000000E+00  0.1074543E-03
 -0.4503035E-02  0.0000000E+00 -0.5050505E-02  0.5317007E-05  0.0000000E+00  0.1179465E-03
 -0.4345206E-02  0.0000000E+00 -0.5050505E-02  0.5659078E-05  0.0000000E+00  0.1291147E-03
 -0.4187378E-02  0.0000000E+00 -0.5050505E-02  0.6031227E-05  0.0000000E+00  0.1410258E-03
 -0.3985156E-02  0.0000000E+00 -0.5050505E-02  0.6420916E-05  0.0000000E+00  0.1537316E-03
 -0.3669499E-02  0.0000000E+00 -0.5050505E-02  0.6803020E-05  0.0000000E+00  0.1672457E-03
 -0.3353842E-02  0.0000000E+00 -0.5050505E-02  0.7151673E-05  0.0000000E+00  0.1815301E-03
 -0.2978990E-02  0.0000000E+00 -0.5050505E-02  0.7499635E-05  0.0000000E+00  0.1965537E-03
 -0.2347676E-02  0.0000000E+00 -0.5050505E-02  0.8071025E-05  0.0000000E+00  0.2125493E-03
 -0.1716362E-02  0.0000000E+00 -0.5050505E-02  0.9338874E-05  0.0000000E+00  0.2304699E-03
 -0.1025842E-02  0.0000000E+00 -0.5050505E-02  0.1226341E-04  0.0000000E+00  0.2527561E-03
  0.2367855E-03  0.0000000E+00 -0.5050505E-02 -0.7025388E-05  0.0000000E+00  0.2581559E-03
  0.1499413E-02  0.0000000E+00 -0.5050505E-02 -0.4173670E-05  0.0000000E+00  0.2465799E-03
  0.2762042E-02  0.0000000E+00 -0.5050505E-02 -0.2588395E-05  0.0000000E+00  0.2395966E-03
 -0.5050505E-02  0.0000000E+00 -0.5050505E-02 -0.1806243E-05  0.0000000E+00  0.2350609E-03
 -0.5050505E-02  0.0000000E+00 -0.5050505E-02 -0.3713521E-05  0.0000000E+00  0.2293689E-03
 -0.5050505E-02  0.0000000E+00 -0.5050505E-02 -0.1742665E-05  0.0000000E+00  0.2237450E-03
 -0.5050505E-02  0.0000000E+00 -0.5050505E-02  0.3285884E-05  0.0000000E+00  0.2253352E-03
 -0.5050505E-02  0.0000000E+00 -0.5050505E-02 -0.1350117E-04  0.0000000E+00  0.2148445E-03
 -0.5050505E-02  0.0000000E+00 -0.5050505E-02 -0.1040146E-04  0.0000000E+00  0.1903048E-03
 -0.5050505E-02  0.0000000E+00 -0.5050505E-02 -0.8903857E-05  0.0000000E+00  0.1705342E-03
 -0.5050504E-02  0.0000000E+00 -0.5050505E-02 -0.7880046E-05  0.0000000E+00  0.1533820E-03
 -0.5050501E-02  0.0000000E+00 -0.5050505E-02 -0.7110477E-05  0.0000000E+00  0.1380913E-03
 -0.5050495E-02  0.0000000E+00 -0.5050505E-02 -0.6510805E-05  0.0000000E+00  0.1242209E-03
 -0.5050482E-02  0.0000000E+00 -0.5050505E-02 -0.6027656E-05  0.0000000E+00  0.1114729E-03
 -0.5050449E-02  0.0000000E+00 -0.5050505E-02 -0.5624558E-05  0.0000000E+00  0.9964320E-04
 -0.5050376E-02  0.0000000E+00 -0.5050505E-02 -0.5277165E-05  0.0000000E+00  0.8859034E-04
 -0.5050299E-02  0.0000000E+00 -0.5050505E-02 -0.4969523E-05  0.0000000E+00  0.7821478E-04
 -0.5050178E-02  0.0000000E+00 -0.5050505E-02 -0.4691231E-05  0.0000000E+00  0.6844419E-04
 -0.5050018E-02  0.0000000E+00 -0.5050505E-02 -0.4435473E-05  0.0000000E+00  0.5922414E-04
 -0.5049710E-02  0.0000000E+00 -0.5050505E-02 -0.4197729E-05  0.0000000E+00  0.5051192E-04
 -0.5049253E-02  0.0000000E+00 -0.5050505E-02 -0.3974938E-05  0.0000000E+00  0.4227276E-04
 -0.5048636E-02  0.0000000E+00 -0.5050505E-02 -0.3764973E-05  0.0000000E+00  0.3447732E-04
 -0.5047442E-02  0.0000000E+00 -0.5050505E-02 -0.3566293E-05  0.0000000E+00  0.2710012E-04
 -0.5045727E-02  0.0000000E+00 -0.5050505E-02 -0.3377733E-05  0.0000000E+00  0.2011856E-04
 -0.5043261E-02  0.0000000E+00 -0.5050505E-02 -0.3198369E-05  0.0000000E+00  0.1351226E-04
 -0.5038714E-02  0.0000000E+00 -0.5050505E-02 -0.3027436E-05  0.0000000E+00  0.7262655E-05
 -0.5032318E-02  0.0000000E+00 -0.5050505E-02 -0.2864271E-05  0.0000000E+00  0.1354775E-05
 -0.5022454E-02  0.0000000E+00 -0.5050505E-02 -0.2708070E-05  0.0000000E+00 -0.4223830E-05
 -0.5012589E-02  0.0000000E+00 -0.5050505E-02 -0.2558588E-05  0.0000000E+00 -0.9493169E-05
 -0.5002725E-02  0.0000000E+00 -0.5050505E-02 -0.2415314E-05  0.0000000E+00 -0.1447282E-04
 -0.4992860E-02  0.0000000E+00 -0.5050505E-02 -0.2277782E-05  0.0000000E+00 -0.1917421E-04
 -0.4976523E-02  0.0000000E+00 -0.5050505E-02 -0.2145562E-05  0.0000000E+00 -0.2360791E-04
 -0.4956794E-02  0.0000000E+00 -0.5050505E-02 -0.2018253E-05  0.0000000E+00 -0.2778375E-04
 -0.4937066E-02  0.0000000E+00 -0.5050505E-02 -0.1895487E-05  0.0000000E+00 -0.3171078E-04
 -0.4906239E-02  0.0000000E+00 -0.5050505E-02 -0.1776920E-05  0.0000000E+00 -0.3539742E-04
 -0.4866782E-02  0.0000000E+00 -0.5050505E-02 -0.1662241E-05  0.0000000E+00 -0.3885147E-04
 -0.4827325E-02  0.0000000E+00 -0.5050505E-02 -0.1551161E-05  0.0000000E+00 -0.4208013E-04
 -0.4769372E-02  0.0000000E+00 -0.5050505E-02 -0.1443424E-05  0.0000000E+00 -0.4509012E-04
 -0.4690458E-02  0.0000000E+00 -0.5050505E-02 -0.1338805E-05  0.0000000E+00 -0.4788769E-04
 -0.4611543E-02  0.0000000E+00 -0.5050505E-02 -0.1237119E-05  0.0000000E+00 -0.5047869E-04
 -0.4503035E-02  0.0000000E+00 -0.5050505E-02 -0.1138229E-05  0.0000000E+00 -0.5286869E-04
 -0.4345206E-02  0.0000000E+00 -0.5050505E-02 -0.1042073E-05  0.0000000E+00 -0.5506307E-04
 -0.4187378E-02  0.0000000E+00 -0.5050505E-02 -0.9487022E-06  0.0000000E+00 -0.5706724E-04
 -0.3985156E-02  0.0000000E+00 -0.5050505E-02 -0.8583625E-06  0.0000000E+00 -0.5888690E-04
 -0.3669499E-02  0.0000000E+00 -0.5050505E-02 -0.7716572E-06  0.0000000E+00 -0.6052865E-04
 -0.3353842E-02  0.0000000E+00 -0.5050505E-02 -0.6899015E-06  0.0000000E+00 -0.6200101E-04
 -0.2978990E-02  0.0000000E+00 -0.5050505E-02 -0.6159446E-06  0.0000000E+00 -0.6331674E-04
 -0.2347676E-02  0.0000000E+00 -0.5050505E-02 -0.5562460E-06  0.0000000E+00 -0.6449800E-04
 -0.1716362E-02  0.0000000E+00 -0.5050505E-02 -0.5266103E-06  0.0000000E+00 -0.6558939E-04
 -0.1025842E-02  0.0000000E+00 -0.5050505E-02 -0.5695774E-06  0.0000000E+00 -0.6669436E-04
  0.2367855E-03  0.0000000E+00 -0.5050505E-02 -0.8121799E-06  0.0000000E+00 -0.6808740E-04
  0.1499413E-02  0.0000000E+00 -0.5050505E-02 -0.1674501E-05  0.0000000E+00 -0.7059484E-04
  0.5287294E-02  0.0000000E+00 -0.5050505E-02 -0.2511198E-04  0.0000000E+00 -0.5652999E-04
 -0.5050505E-02  0.0000000E+00 -0.5050505E-02  0.1569009E-06  0.0000000E+00 -0.4375117E-04
 -0.5050505E-02  0.0000000E+00 -0.5050505E-02  0.4708792E-06  0.0000000E+00 -0.4354033E-04
 -0.5050505E-02  0.0000000E+00 -0.5050505E-02  0.7853923E-06  0.0000000E+00 -0.4311843E-04
 -0.5050505E-02  0.0000000E+00 -0.5050505E-02  0.1100802E-05  0.0000000E+00 -0.4248504E-04
 -0.5050505E-02  0.0000000E+00 -0.5050505E-02  0.1417470E-05  0.0000000E+00 -0.4163949E-04
 -0.5050505E-02  0.0000000E+00 -0.5050505E-02  0.1735759E-05  0.0000000E+00 -0.4058089E-04
 -0.5050504E-02  0.0000000E+00 -0.5050505E-02  0.2056028E-05  0.0000000E+00 -0.3930810E-04
 -0.5050501E-02  0.0000000E+00 -0.5050505E-02  0.2378636E-05  0.0000000E+00 -0.3781979E-04
 -0.5050495E-02  0.0000000E+00 -0.5050505E-02  0.2703939E-05  0.0000000E+00 -0.3611438E-04
 -0.5050482E-02  0.0000000E+00 -0.5050505E-02  0.3032291E-05  0.0000000E+00 -0.3419009E-04
 -0.5050449E-02  0.0000000E+00 -0.5050505E-02  0.3364048E-05  0.0000000E+00 -0.3204492E-04
 -0.5050376E-02  0.0000000E+00 -0.5050505E-02  0.3699570E-05  0.0000000E+00 -0.2967662E-04
 -0.5050299E-02  0.0000000E+00 -0.5050505E-02  0.4039222E-05  0.0000000E+00 -0.2708277E-04
 -0.5050178E-02  0.0000000E+00 -0.5050505E-02  0.4383381E-05  0.0000000E+00 -0.2426069E-04
 -0.5050018E-02  0.0000000E+00 -0.5050505E-02  0.4732441E-05  0.0000000E+00 -0.2120747E-04
 -0.5049710E-02  0.0000000E+00 -0.5050505E-02  0.5086824E-05  0.0000000E+00 -0.1791996E-04
 -0.5049253E-02  0.0000000E+00 -0.5050505E-02  0.5446980E-05  0.0000000E+00 -0.1439475E-04
 -0.5048636E-02  0.0000000E+00 -0.5050505E-02  0.5813405E-05  0.0000000E+00 -0.1062815E-04
 -0.5047442E-02  0.0000000E+00 -0.5050505E-02  0.6186645E-05  0.0000000E+00 -0.6616120E-05
 -0.5045727E-02  0.0000000E+00 -0.5050505E-02  0.6567298E-05  0.0000000E+00 -0.2354265E-05
 -0.5043261E-02  0.0000000E+00 -0.5050505E-02  0.6955455E-05  0.0000000E+00  0.2169566E-05
 -0.5038714E-02  0.0000000E+00 -0.5050505E-02  0.7351706E-05  0.0000000E+00  0.6963674E-05
 -0.5032318E-02  0.0000000E+00 -0.5050505E-02  0.7757430E-05  0.0000000E+00  0.1202964E-04
 -0.5022454E-02  0.0000000E+00 -0.5050505E-02  0.8173604E-05  0.0000000E+00  0.1737429E-04
 -0.5012589E-02  0.0000000E+00 -0.5050505E-02  0.8601414E-05  0.0000000E+00  0.2300550E-04
 -0.5002725E-02  0.0000000E+00 -0.5050505E-02  0.9042307E-05  0.0000000E+00  0.2893200E-04
 -0.4992860E-02  0.0000000E+00 -0.5050505E-02  0.9498125E-05  0.0000000E+00  0.3516368E-04
 -0.4976523E-02  0.0000000E+00 -0.5050505E-02  0.9971212E-05  0.0000000E+00  0.4171182E-04
 -0.4956794E-02  0.0000000E+00 -0.5050505E-02  0.1046460E-04  0.0000000E+00  0.4858947E-04
 -0.4937066E-02  0.0000000E+00 -0.5050505E-02  0.1098224E-04  0.0000000E+00  0.5581206E-04
 -0.4906239E-02  0.0000000E+00 -0.5050505E-02  0.1152929E-04  0.0000000E+00  0.6339803E-04
 -0.4866782E-02  0.0000000E+00 -0.5050505E-02  0.1211242E-04  0.0000000E+00  0.7136984E-04
 -0.4827325E-02  0.0000000E+00 -0.5050505E-02  0.1274009E-04  0.0000000E+00  0.7975510E-04
 -0.4769372E-02  0.0000000E+00 -0.5050505E-02  0.1342277E-04  0.0000000E+00  0.8858805E-04
 -0.4690458E-02  0.0000000E+00 -0.5050505E-02  0.1417293E-04  0.0000000E+00  0.9791109E-04
 -0.4611543E-02  0.0000000E+00 -0.5050505E-02  0.1500449E-04  0.0000000E+00  0.1077765E-03
 -0.4503035E-02  0.0000000E+00 -0.5050505E-02  0.1593111E-04  0.0000000E+00  0.1182479E-03
 -0.4345206E-02  0.0000000E+00 -0.5050505E-02  0.1696193E-04  0.0000000E+00  0.1294000E-03
 -0.4187378E-02  0.0000000E+00 -0.5050505E-02  0.1809251E-04  0.0000000E+00  0.1413148E-03
 -0.3985156E-02  0.0000000E+00 -0.5050505E-02  0.1928791E-04  0.0000000E+00  0.1540662E-03
 -0.3669499E-02  0.0000000E+00 -0.5050505E-02  0.2046071E-04  0.0000000E+00  0.1676807E-03
 -0.3353842E-02  0.0000000E+00 -0.5050505E-02  0.2147486E-04  0.0000000E+00  0.1820611E-03
 -0.2978990E-02  0.0000000E+00 -0.5050505E-02  0.2229970E-04  0.0000000E+00  0.1969249E-03
 -0.2347676E-02  0.0000000E+00 -0.5050505E-02  0.2355476E-04  0.0000000E+00  0.2120652E-03
 -0.1716362E-02  0.0000000E+00 -0.5050505E-02  0.2643042E-04  0.0000000E+00  0.2277020E-03
 -0.1025842E-02  0.0000000E+00 -0.5050505E-02  0.3062780E-04  0.0000000E+00  0.2420241E-03
  0.2367855E-03  0.0000000E+00 -0.5050505E-02 -0.1482881E-04  0.0000000E+00  0.2475188E-03
  0.1499413E-02  0.0000000E+00 -0.5050505E-02 -0.1129346E-04  0.0000000E+00  0.2436380E-03
  0.2762042E-02  0.0000000E+00 -0.5050505E-02 -0.6978799E-05  0.0000000E+00  0.2387147E-03
 -0.5050505E-02  0.0000000E+00 -0.5050505E-02 -0.2798850E-05  0.0000000E+00  0.2376806E-03
 -0.5050505E-02  0.0000000E+00 -0.5050505E-02 -0.1492328E-04  0.0000000E+00  0.2307809E-03
 -0.5050505E-02  0.0000000E+00 -0.5050505E-02 -0.8197865E-05  0.0000000E+00  0.2181901E-03
 -0.5050505E-02  0.0000000E+00 -0.5050505E-02  0.3305050E-05  0.0000000E+00  0.2099824E-03
 -0.5050505E-02  0.0000000E+00 -0.5050505E-02 -0.3210647E-04  0.0000000E+00  0.2013619E-03
 -0.5050505E-02  0.0000000E+00 -0.5050505E-02 -0.2969661E-04  0.0000000E+00  0.1869658E-03
 -0.5050505E-02  0.0000000E+00 -0.5050505E-02 -0.2628408E-04  0.0000000E+00  0.1691593E-03
 -0.5050504E-02  0.0000000E+00 -0.5050505E-02 -0.2341732E-04  0.0000000E+00  0.1526528E-03
 -0.5050501E-02  0.0000000E+00 -0.5050505E-02 -0.2118557E-04  0.0000000E+00  0.1377184E-03
 -0.5050495E-02  0.0000000E+00 -0.5050505E-02 -0.1943530E-04  0.0000000E+00  0.1240756E-03
 -0.5050482E-02  0.0000000E+00 -0.5050505E-02 -0.1801914E-04  0.0000000E+00  0.1114718E-03
 -0.5050449E-02  0.0000000E+00 -0.5050505E-02 -0.1683186E-04  0.0000000E+00  0.9973027E-04
 -0.5050376E-02  0.0000000E+00 -0.5050505E-02 -0.1580384E-04  0.0000000E+00  0.8872927E-04
 -0.5050299E-02  0.0000000E+00 -0.5050505E-02 -0.1488986E-04  0.0000000E+00  0.7838260E-04
 -0.5050178E-02  0.0000000E+00 -0.5050505E-02 -0.1406057E-04  0.0000000E+00  0.6862668E-04
 -0.5050018E-02  0.0000000E+00 -0.5050505E-02 -0.1329674E-04  0.0000000E+00  0.5941265E-04
 -0.5049710E-02  0.0000000E+00 -0.5050505E-02 -0.1258562E-04  0.0000000E+00  0.5070134E-04
 -0.5049253E-02  0.0000000E+00 -0.5050505E-02 -0.1191852E-04  0.0000000E+00  0.4246017E-04
 -0.5048636E-02  0.0000000E+00 -0.5050505E-02 -0.1128939E-04  0.0000000E+00  0.3466115E-04
 -0.5047442E-02  0.0000000E+00 -0.5050505E-02 -0.1069381E-04  0.0000000E+00  0.2727962E-04
 -0.5045727E-02  0.0000000E+00 -0.5050505E-02 -0.1012842E-04  0.0000000E+00  0.2029346E-04
 -0.5043261E-02  0.0000000E+00 -0.5050505E-02 -0.9590526E-05  0.0000000E+00  0.1368257E-04
 -0.5038714E-02  0.0000000E+00 -0.5050505E-02 -0.9077874E-05  0.0000000E+00  0.7428513E-05
 -0.5032318E-02  0.0000000E+00 -0.5050505E-02 -0.8588506E-05  0.0000000E+00  0.1516188E-05
 -0.5022454E-02  0.0000000E+00 -0.5050505E-02 -0.8120025E-05  0.0000000E+00 -0.4066528E-05
 -0.5012589E-02  0.0000000E+00 -0.5050505E-02 -0.7671697E-05  0.0000000E+00 -0.9339441E-05
 -0.5002725E-02  0.0000000E+00 -0.5050505E-02 -0.7241997E-05  0.0000000E+00 -0.1432244E-04
 -0.4992860E-02  0.0000000E+00 -0.5050505E-02 -0.6829528E-05  0.0000000E+00 -0.1902694E-04
 -0.4976523E-02  0.0000000E+00 -0.5050505E-02 -0.6432998E-05  0.0000000E+00 -0.2346355E-04
 -0.4956794E-02  0.0000000E+00 -0.5050505E-02 -0.6051208E-05  0.0000000E+00 -0.2764207E-04
 -0.4937066E-02  0.0000000E+00 -0.5050505E-02 -0.5683046E-05  0.0000000E+00 -0.3157159E-04
 -0.4906239E-02  0.0000000E+00 -0.5050505E-02 -0.5327484E-05  0.0000000E+00 -0.3526051E-04
 -0.4866782E-02  0.0000000E+00 -0.5050505E-02 -0.4983578E-05  0.0000000E+00 -0.3871662E-04
 -0.4827325E-02  0.0000000E+00 -0.5050505E-02 -0.4650464E-05  0.0000000E+00 -0.4194714E-04
 -0.4769372E-02  0.0000000E+00 -0.5050505E-02 -0.4327365E-05  0.0000000E+00 -0.4495875E-04
 -0.4690458E-02  0.0000000E+00 -0.5050505E-02 -0.4013599E-05  0.0000000E+00 -0.4775766E-04
 -0.4611543E-02  0.0000000E+00 -0.5050505E-02 -0.3708593E-05  0.0000000E+00 -0.5034968E-04
 -0.4503035E-02  0.0000000E+00 -0.5050505E-02 -0.3411916E-05  0.0000000E+00 -0.5274029E-04
 -0.4345206E-02  0.0000000E+00 -0.5050505E-02 -0.3123338E-05  0.0000000E+00 -0.5493471E-04
 -0.4187378E-02  0.0000000E+00 -0.5050505E-02 -0.2842928E-05  0.0000000E+00 -0.5693804E-04
 -0.3985156E-02  0.0000000E+00 -0.5050505E-02 -0.2571258E-05  0.0000000E+00 -0.5875546E-04
 -0.3669499E-02  0.0000000E+00 -0.5050505E-02 -0.2309781E-05  0.0000000E+00 -0.6039249E-04
 -0.3353842E-02  0.0000000E+00 -0.5050505E-02 -0.2061614E-05  0.0000000E+00 -0.6185543E-04
 -0.2978990E-02  0.0000000E+00 -0.5050505E-02 -0.1833223E-05  0.0000000E+00 -0.6315184E-04
 -0.2347676E-02  0.0000000E+00 -0.5050505E-02 -0.1638252E-05  0.0000000E+00 -0.6429086E-04
 -0.1716362E-02  0.0000000E+00 -0.5050505E-02 -0.1506750E-05  0.0000000E+00 -0.6528084E-04
 -0.1025842E-02  0.0000000E+00 -0.5050505E-02 -0.1508748E-05  0.0000000E+00 -0.6611360E-04
  0.2367855E-03  0.0000000E+00 -0.5050505E-02 -0.1817591E-05  0.0000000E+00 -0.6668489E-04
  0.1499413E-02  0.0000000E+00 -0.5050505E-02 -0.2887197E-05  0.0000000E+00 -0.6642153E-04
  0.5287294E-02  0.0000000E+00 -0.5050505E-02 -0.5959858E-05  0.0000000E+00 -0.6255199E-04
 -0.5050505E-02  0.0000000E+00 -0.5050505E-02  0.2614816E-06  0.0000000E+00 -0.4341060E-04
 -0.5050505E-02  0.0000000E+00 -0.5050505E-02  0.7847437E-06  0.0000000E+00 -0.4319897E-04
 -0.5050505E-02  0.0000000E+00 -0.5050505E-02  0.1308909E-05  0.0000000E+00 -0.4277549E-04
 -0.5050505E-02  0.0000000E+00 -0.5050505E-02  0.1834583E-05  0.0000000E+00 -0.4213973E-04
 -0.5050505E-02  0.0000000E+00 -0.5050505E-02  0.2362376E-05  0.0000000E+00 -0.4129101E-04
 -0.5050505E-02  0.0000000E+00 -0.5050505E-02  0.2892893E-05  0.0000000E+00 -0.4022841E-04
 -0.5050504E-02  0.0000000E+00 -0.5050505E-02  0.3426738E-05  0.0000000E+00 -0.3895080E-04
 -0.5050501E-02  0.0000000E+00 -0.5050505E-02  0.3964508E-05  0.0000000E+00 -0.3745680E-04
 -0.5050495E-02  0.0000000E+00 -0.5050505E-02  0.4506799E-05  0.0000000E+00 -0.3574483E-04
 -0.5050482E-02  0.0000000E+00 -0.5050505E-02  0.5054204E-05  0.0000000E+00 -0.3381306E-04
 -0.5050449E-02  0.0000000E+00 -0.5050505E-02  0.5607316E-05  0.0000000E+00 -0.3165946E-04
 -0.5050376E-02  0.0000000E+00 -0.5050505E-02  0.6166731E-05  0.0000000E+00 -0.2928179E-04
 -0.5050299E-02  0.0000000E+00 -0.5050505E-02  0.6733058E-05  0.0000000E+00 -0.2667755E-04
 -0.5050178E-02  0.0000000E+00 -0.5050505E-02  0.7306923E-05  0.0000000E+00 -0.2384408E-04
 -0.5050018E-02  0.0000000E+00 -0.5050505E-02  0.7888980E-05  0.0000000E+00 -0.2077843E-04
 -0.5049710E-02  0.0000000E+00 -0.5050505E-02  0.8479923E-05  0.0000000E+00 -0.1747745E-04
 -0.5049253E-02  0.0000000E+00 -0.5050505E-02  0.9080501E-05  0.0000000E+00 -0.1393773E-04
 -0.5048636E-02  0.0000000E+00 -0.5050505E-02  0.9691536E-05  0.0000000E+00 -0.1015556E-04
 -0.5047442E-02  0.0000000E+00 -0.5050505E-02  0.1031395E-04  0.0000000E+00 -0.6126934E-05
 -0.5045727E-02  0.0000000E+00 -0.5050505E-02  0.1094878E-04  0.0000000E+00 -0.1846944E-05
 -0.5043261E-02  0.0000000E+00 -0.5050505E-02  0.1159553E-04  0.0000000E+00  0.2696437E-05
 -0.5038714E-02  0.0000000E+00 -0.5050505E-02  0.1225624E-04  0.0000000E+00  0.7510715E-05
 -0.5032318E-02  0.0000000E+00 -0.5050505E-02  0.1293258E-04  0.0000000E+00  0.1259749E-04
 -0.5022454E-02  0.0000000E+00 -0.5050505E-02  0.1362618E-04  0.0000000E+00  0.1796371E-04
 -0.5012589E-02  0.0000000E+00 -0.5050505E-02  0.1433898E-04  0.0000000E+00  0.2361703E-04
 -0.5002725E-02  0.0000000E+00 -0.5050505E-02  0.1507329E-04  0.0000000E+00  0.2956592E-04
 -0.4992860E-02  0.0000000E+00 -0.5050505E-02  0.1583204E-04  0.0000000E+00  0.3581983E-04
 -0.4976523E-02  0.0000000E+00 -0.5050505E-02  0.1661896E-04  0.0000000E+00  0.4238942E-04
 -0.4956794E-02  0.0000000E+00 -0.5050505E-02  0.1743886E-04  0.0000000E+00  0.4928691E-04
 -0.4937066E-02  0.0000000E+00 -0.5050505E-02  0.1829807E-04  0.0000000E+00  0.5652650E-04
 -0.4906239E-02  0.0000000E+00 -0.5050505E-02  0.1920489E-04  0.0000000E+00  0.6412515E-04
 -0.4866782E-02  0.0000000E+00 -0.5050505E-02  0.2017016E-04  0.0000000E+00  0.7210341E-04
 -0.4827325E-02  0.0000000E+00 -0.5050505E-02  0.2120785E-04  0.0000000E+00  0.8048676E-04
 -0.4769372E-02  0.0000000E+00 -0.5050505E-02  0.2233552E-04  0.0000000E+00  0.8930715E-04
 -0.4690458E-02  0.0000000E+00 -0.5050505E-02  0.2357470E-04  0.0000000E+00  0.9860514E-04
 -0.4611543E-02  0.0000000E+00 -0.5050505E-02  0.2495061E-04  0.0000000E+00  0.1084326E-03
 -0.4503035E-02  0.0000000E+00 -0.5050505E-02  0.2649078E-04  0.0000000E+00  0.1188563E-03
 -0.4345206E-02  0.0000000E+00 -0.5050505E-02  0.2822045E-04  0.0000000E+00  0.1299632E-03
 -0.4187378E-02  0.0000000E+00 -0.5050505E-02  0.3014997E-04  0.0000000E+00  0.1418656E-03
 -0.3985156E-02  0.0000000E+00 -0.5050505E-02  0.3224295E-04  0.0000000E+00  0.1546987E-03
 -0.3669499E-02  0.0000000E+00 -0.5050505E-02  0.3434428E-04  0.0000000E+00  0.1685761E-03
 -0.3353842E-02  0.0000000E+00 -0.5050505E-02  0.3605476E-04  0.0000000E+00  0.1833984E-03
 -0.2978990E-02  0.0000000E+00 -0.5050505E-02  0.3674865E-04  0.0000000E+00  0.1983726E-03
 -0.2347676E-02  0.0000000E+00 -0.5050505E-02  0.3753112E-04  0.0000000E+00  0.2125122E-03
 -0.1716362E-02  0.0000000E+00 -0.5050505E-02  0.4232214E-04  0.0000000E+00  0.2276992E-03
 -0.1025842E-02  0.0000000E+00 -0.5050505E-02  0.4188771E-04  0.0000000E+00  0.2414730E-03
  0.2367855E-03  0.0000000E+00 -0.5050505E-02 -0.1484624E-04  0.0000000E+00  0.2475980E-03
  0.1499413E-02  0.0000000E+00 -0.5050505E-02 -0.1918206E-04  0.0000000E+00  0.2432360E-03
  0.2762042E-02  0.0000000E+00 -0.5050505E-02 -0.1122347E-04  0.0000000E+00  0.2355789E-03
 -0.5050505E-02  0.0000000E+00 -0.5050505E-02 -0.1721279E-05  0.0000000E+00  0.2333138E-03
 -0.5050505E-02  0.0000000E+00 -0.5050505E-02 -0.3073496E-04  0.0000000E+00  0.2250010E-03
 -0.5050505E-02  0.0000000E+00 -0.5050505E-02 -0.1934104E-04  0.0000000E+00  0.2097922E-03
 -0.5050505E-02  0.0000000E+00 -0.5050505E-02 -0.6543367E-05  0.0000000E+00  0.1964043E-03
 -0.5050505E-02  0.0000000E+00 -0.5050505E-02 -0.3207975E-04  0.0000000E+00  0.1948382E-03
 -0.5050505E-02  0.0000000E+00 -0.5050505E-02 -0.5012480E-04  0.0000000E+00  0.1882049E-03
 -0.5050505E-02  0.0000000E+00 -0.5050505E-02 -0.4324006E-04  0.0000000E+00  0.1676861E-03
 -0.5050504E-02  0.0000000E+00 -0.5050505E-02 -0.3841862E-04  0.0000000E+00  0.1514794E-03
 -0.5050501E-02  0.0000000E+00 -0.5050505E-02 -0.3486007E-04  0.0000000E+00  0.1371051E-03
 -0.5050495E-02  0.0000000E+00 -0.5050505E-02 -0.3209358E-04  0.0000000E+00  0.1238745E-03
 -0.5050482E-02  0.0000000E+00 -0.5050505E-02 -0.2984024E-04  0.0000000E+00  0.1115318E-03
 -0.5050449E-02  0.0000000E+00 -0.5050505E-02 -0.2793137E-04  0.0000000E+00  0.9994670E-04
 -0.5050376E-02  0.0000000E+00 -0.5050505E-02 -0.2626234E-04  0.0000000E+00  0.8903541E-04
 -0.5050299E-02  0.0000000E+00 -0.5050505E-02 -0.2476674E-04  0.0000000E+00  0.7873701E-04
 -0.5050178E-02  0.0000000E+00 -0.5050505E-02 -0.2340169E-04  0.0000000E+00  0.6900405E-04
 -0.5050018E-02  0.0000000E+00 -0.5050505E-02 -0.2213906E-04  0.0000000E+00  0.5979776E-04
 -0.5049710E-02  0.0000000E+00 -0.5050505E-02 -0.2096007E-04  0.0000000E+00  0.5108535E-04
 -0.5049253E-02  0.0000000E+00 -0.5050505E-02 -0.1985187E-04  0.0000000E+00  0.4283815E-04
 -0.5048636E-02  0.0000000E+00 -0.5050505E-02 -0.1880538E-04  0.0000000E+00  0.3503058E-04
 -0.5047442E-02  0.0000000E+00 -0.5050505E-02 -0.1781389E-04  0.0000000E+00  0.2763942E-04
 -0.5045727E-02  0.0000000E+00 -0.5050505E-02 -0.1687218E-04  0.0000000E+00  0.2064336E-04
 -0.5043261E-02  0.0000000E+00 -0.5050505E-02 -0.1597600E-04  0.0000000E+00  0.1402276E-04
 -0.5038714E-02  0.0000000E+00 -0.5050505E-02 -0.1512176E-04  0.0000000E+00  0.7759414E-05
 -0.5032318E-02  0.0000000E+00 -0.5050505E-02 -0.1430630E-04  0.0000000E+00  0.1837898E-05
 -0.5022454E-02  0.0000000E+00 -0.5050505E-02 -0.1352565E-04  0.0000000E+00 -0.3753294E-05
 -0.5012589E-02  0.0000000E+00 -0.5050505E-02 -0.1277857E-04  0.0000000E+00 -0.9033564E-05
 -0.5002725E-02  0.0000000E+00 -0.5050505E-02 -0.1206254E-04  0.0000000E+00 -0.1402342E-04
 -0.4992860E-02  0.0000000E+00 -0.5050505E-02 -0.1137525E-04  0.0000000E+00 -0.1873431E-04
 -0.4976523E-02  0.0000000E+00 -0.5050505E-02 -0.1071455E-04  0.0000000E+00 -0.2317684E-04
 -0.4956794E-02  0.0000000E+00 -0.5050505E-02 -0.1007844E-04  0.0000000E+00 -0.2736083E-04
 -0.4937066E-02  0.0000000E+00 -0.5050505E-02 -0.9465041E-05  0.0000000E+00 -0.3129541E-04
 -0.4906239E-02  0.0000000E+00 -0.5050505E-02 -0.8872647E-05  0.0000000E+00 -0.3498897E-04
 -0.4866782E-02  0.0000000E+00 -0.5050505E-02 -0.8299670E-05  0.0000000E+00 -0.3844930E-04
 -0.4827325E-02  0.0000000E+00 -0.5050505E-02 -0.7744658E-05  0.0000000E+00 -0.4168361E-04
 -0.4769372E-02  0.0000000E+00 -0.5050505E-02 -0.7206300E-05  0.0000000E+00 -0.4469853E-04
 -0.4690458E-02  0.0000000E+00 -0.5050505E-02 -0.6683430E-05  0.0000000E+00 -0.4750024E-04
 -0.4611543E-02  0.0000000E+00 -0.5050505E-02 -0.6175053E-05  0.0000000E+00 -0.5009445E-04
 -0.4503035E-02  0.0000000E+00 -0.5050505E-02 -0.5680379E-05  0.0000000E+00 -0.5248648E-04
 -0.4345206E-02  0.0000000E+00 -0.5050505E-02 -0.5198898E-05  0.0000000E+00 -0.5468127E-04
 -0.4187378E-02  0.0000000E+00 -0.5050505E-02 -0.4730498E-05  0.0000000E+00 -0.5668350E-04
 -0.3985156E-02  0.0000000E+00 -0.5050505E-02 -0.4275681E-05  0.0000000E+00 -0.5849753E-04
 -0.3669499E-02  0.0000000E+00 -0.5050505E-02 -0.3835960E-05  0.0000000E+00 -0.6012743E-04
 -0.3353842E-02  0.0000000E+00 -0.5050505E-02 -0.3414560E-05  0.0000000E+00 -0.6157673E-04
 -0.2978990E-02  0.0000000E+00 -0.5050505E-02 -0.3017723E-05  0.0000000E+00 -0.6284757E-04
 -0.2347676E-02  0.0000000E+00 -0.5050505E-02 -0.2657032E-05  0.0000000E+00 -0.6393839E-04
 -0.1716362E-02  0.0000000E+00 -0.5050505E-02 -0.2353230E-05  0.0000000E+00 -0.6483703E-04
 -0.1025842E-02  0.0000000E+00 -0.5050505E-02 -0.2140629E-05  0.0000000E+00 -0.6550288E-04
  0.2367855E-03  0.0000000E+00 -0.5050505E-02 -0.2062206E-05  0.0000000E+00 -0.6582465E-04
  0.1499413E-02  0.0000000E+00 -0.5050505E-02 -0.2100156E-05  0.0000000E+00 -0.6555518E-04
  0.5287294E-02  0.0000000E+00 -0.5050505E-02 -0.1776881E-05  0.0000000E+00 -0.6444513E-04
 -0.5050505E-02  0.0000000E+00 -0.5050505E-02  0.3662566E-06  0.0000000E+00 -0.4290410E-04
 -0.5050505E-02  0.0000000E+00 -0.5050505E-02  0.1099196E-05  0.0000000E+00 -0.4269129E-04
 -0.5050505E-02  0.0000000E+00 -0.5050505E-02  0.1833417E-05  0.0000000E+00 -0.4226545E-04
 -0.5050505E-02  0.0000000E+00 -0.5050505E-02  0.2569781E-05  0.0000000E+00 -0.4162613E-04
 -0.5050505E-02  0.0000000E+00 -0.5050505E-02  0.3309148E-05  0.0000000E+00 -0.4077265E-04
 -0.5050505E-02  0.0000000E+00 -0.5050505E-02  0.4052373E-05  0.0000000E+00 -0.3970406E-04
 -0.5050504E-02  0.0000000E+00 -0.5050505E-02  0.4800308E-05  0.0000000E+00 -0.3841920E-04
 -0.5050501E-02  0.0000000E+00 -0.5050505E-02  0.5553795E-05  0.0000000E+00 -0.3691665E-04
 -0.5050495E-02  0.0000000E+00 -0.5050505E-02  0.6313672E-05  0.0000000E+00 -0.3519479E-04
 -0.5050482E-02  0.0000000E+00 -0.5050505E-02  0.7080771E-05  0.0000000E+00 -0.3325176E-04
 -0.5050449E-02  0.0000000E+00 -0.5050505E-02  0.7855923E-05  0.0000000E+00 -0.3108547E-04
 -0.5050376E-02  0.0000000E+00 -0.5050505E-02  0.8639962E-05  0.0000000E+00 -0.2869364E-04
 -0.5050299E-02  0.0000000E+00 -0.5050505E-02  0.9433736E-05  0.0000000E+00 -0.2607374E-04
 -0.5050178E-02  0.0000000E+00 -0.5050505E-02  0.1023812E-04  0.0000000E+00 -0.2322305E-04
 -0.5050018E-02  0.0000000E+00 -0.5050505E-02  0.1105401E-04  0.0000000E+00 -0.2013861E-04
 -0.5049710E-02  0.0000000E+00 -0.5050505E-02  0.1188238E-04  0.0000000E+00 -0.1681723E-04
 -0.5049253E-02  0.0000000E+00 -0.5050505E-02  0.1272426E-04  0.0000000E+00 -0.1325550E-04
 -0.5048636E-02  0.0000000E+00 -0.5050505E-02  0.1358078E-04  0.0000000E+00 -0.9449725E-05
 -0.5047442E-02  0.0000000E+00 -0.5050505E-02  0.1445321E-04  0.0000000E+00 -0.5395931E-05
 -0.5045727E-02  0.0000000E+00 -0.5050505E-02  0.1534302E-04  0.0000000E+00 -0.1088111E-05
 -0.5043261E-02  0.0000000E+00 -0.5050505E-02  0.1624908E-04  0.0000000E+00  0.3485062E-05
 -0.5038714E-02  0.0000000E+00 -0.5050505E-02  0.1717491E-04  0.0000000E+00  0.8329882E-05
 -0.5032318E-02  0.0000000E+00 -0.5050505E-02  0.1812245E-04  0.0000000E+00  0.1344854E-04
 -0.5022454E-02  0.0000000E+00 -0.5050505E-02  0.1909391E-04  0.0000000E+00  0.1884788E-04
 -0.5012589E-02  0.0000000E+00 -0.5050505E-02  0.2009186E-04  0.0000000E+00  0.2453531E-04
 -0.5002725E-02  0.0000000E+00 -0.5050505E-02  0.2111936E-04  0.0000000E+00  0.3051895E-04
 -0.4992860E-02  0.0000000E+00 -0.5050505E-02  0.2218022E-04  0.0000000E+00  0.3680767E-04
 -0.4976523E-02  0.0000000E+00 -0.5050505E-02  0.2327929E-04  0.0000000E+00  0.4341131E-04
 -0.4956794E-02  0.0000000E+00 -0.5050505E-02  0.2442281E-04  0.0000000E+00  0.5034082E-04
 -0.4937066E-02  0.0000000E+00 -0.5050505E-02  0.2561902E-04  0.0000000E+00  0.5760871E-04