title = "dataset feddes"
variables = "x", "y", "z", "vx", "vy", "vz"
zone t = "velocities, solution time =  4.300E+01 days        " i =   99, j =   99, k =    1,  f=point
 -0.5050505E-02  0.0000000E+00 -0.5050505E-02  0.3615752E-08  0.0000000E+00 -0.2249155E-03
 -0.5050505E-02  0.0000000E+00 -0.5050505E-02  0.1083951E-07  0.0000000E+00 -0.2249007E-03
 -0.5050505E-02  0.0000000E+00 -0.5050505E-02  0.1803997E-07  0.0000000E+00 -0.2248710E-03
 -0.5050505E-02  0.0000000E+00 -0.5050505E-02  0.2520153E-07  0.0000000E+00 -0.2248266E-03
 -0.5050505E-02  0.0000000E+00 -0.5050505E-02  0.3230850E-07  0.0000000E+00 -0.2247675E-03
 -0.5050505E-02  0.0000000E+00 -0.5050505E-02  0.3934503E-07  0.0000000E+00 -0.2246939E-03
 -0.5050504E-02  0.0000000E+00 -0.5050505E-02  0.4629507E-07  0.0000000E+00 -0.2246060E-03
 -0.5050501E-02  0.0000000E+00 -0.5050505E-02  0.5314233E-07  0.0000000E+00 -0.2245039E-03
 -0.5050495E-02  0.0000000E+00 -0.5050505E-02  0.5987025E-07  0.0000000E+00 -0.2243878E-03
 -0.5050482E-02  0.0000000E+00 -0.5050505E-02  0.6646194E-07  0.0000000E+00 -0.2242580E-03
 -0.5050449E-02  0.0000000E+00 -0.5050505E-02  0.7290017E-07  0.0000000E+00 -0.2241149E-03
 -0.5050376E-02  0.0000000E+00 -0.5050505E-02  0.7916730E-07  0.0000000E+00 -0.2239587E-03
 -0.5050299E-02  0.0000000E+00 -0.5050505E-02  0.8524529E-07  0.0000000E+00 -0.2237899E-03
 -0.5050178E-02  0.0000000E+00 -0.5050505E-02  0.9111564E-07  0.0000000E+00 -0.2236088E-03
 -0.5050018E-02  0.0000000E+00 -0.5050505E-02  0.9675936E-07  0.0000000E+00 -0.2234158E-03
 -0.5049710E-02  0.0000000E+00 -0.5050505E-02  0.1021570E-06  0.0000000E+00 -0.2232115E-03
 -0.5049253E-02  0.0000000E+00 -0.5050505E-02  0.1072885E-06  0.0000000E+00 -0.2229965E-03
 -0.5048636E-02  0.0000000E+00 -0.5050505E-02  0.1121334E-06  0.0000000E+00 -0.2227711E-03
 -0.5047442E-02  0.0000000E+00 -0.5050505E-02  0.1166707E-06  0.0000000E+00 -0.2225362E-03
 -0.5045727E-02  0.0000000E+00 -0.5050505E-02  0.1208787E-06  0.0000000E+00 -0.2222923E-03
 -0.5043261E-02  0.0000000E+00 -0.5050505E-02  0.1247354E-06  0.0000000E+00 -0.2220401E-03
 -0.5038714E-02  0.0000000E+00 -0.5050505E-02  0.1282181E-06  0.0000000E+00 -0.2217803E-03
 -0.5032318E-02  0.0000000E+00 -0.5050505E-02  0.1313038E-06  0.0000000E+00 -0.2215139E-03
 -0.5022454E-02  0.0000000E+00 -0.5050505E-02  0.1339689E-06  0.0000000E+00 -0.2212415E-03
 -0.5012589E-02  0.0000000E+00 -0.5050505E-02  0.1361895E-06  0.0000000E+00 -0.2209642E-03
 -0.5002725E-02  0.0000000E+00 -0.5050505E-02  0.1379414E-06  0.0000000E+00 -0.2206827E-03
 -0.4992860E-02  0.0000000E+00 -0.5050505E-02  0.1392004E-06  0.0000000E+00 -0.2203982E-03
 -0.4976523E-02  0.0000000E+00 -0.5050505E-02  0.1399420E-06  0.0000000E+00 -0.2201117E-03
 -0.4956794E-02  0.0000000E+00 -0.5050505E-02  0.1401420E-06  0.0000000E+00 -0.2198241E-03
 -0.4937066E-02  0.0000000E+00 -0.5050505E-02  0.1397769E-06  0.0000000E+00 -0.2195368E-03
 -0.4906239E-02  0.0000000E+00 -0.5050505E-02  0.1388234E-06  0.0000000E+00 -0.2192508E-03
 -0.4866782E-02  0.0000000E+00 -0.5050505E-02  0.1372598E-06  0.0000000E+00 -0.2189675E-03
 -0.4827325E-02  0.0000000E+00 -0.5050505E-02  0.1350658E-06  0.0000000E+00 -0.2186879E-03
 -0.4769372E-02  0.0000000E+00 -0.5050505E-02  0.1322232E-06  0.0000000E+00 -0.2184136E-03
 -0.4690458E-02  0.0000000E+00 -0.5050505E-02  0.1287168E-06  0.0000000E+00 -0.2181458E-03
 -0.4611543E-02  0.0000000E+00 -0.5050505E-02  0.1245349E-06  0.0000000E+00 -0.2178859E-03
 -0.4503035E-02  0.0000000E+00 -0.5050505E-02  0.1196701E-06  0.0000000E+00 -0.2176353E-03
 -0.4345206E-02  0.0000000E+00 -0.5050505E-02  0.1141206E-06  0.0000000E+00 -0.2173953E-03
 -0.4187378E-02  0.0000000E+00 -0.5050505E-02  0.1078908E-06  0.0000000E+00 -0.2171675E-03
 -0.3985156E-02  0.0000000E+00 -0.5050505E-02  0.1009924E-06  0.0000000E+00 -0.2169531E-03
 -0.3669499E-02  0.0000000E+00 -0.5050505E-02  0.9344533E-07  0.0000000E+00 -0.2167536E-03
 -0.3353842E-02  0.0000000E+00 -0.5050505E-02  0.8527859E-07  0.0000000E+00 -0.2165702E-03
 -0.2978990E-02  0.0000000E+00 -0.5050505E-02  0.7653057E-07  0.0000000E+00 -0.2164042E-03
 -0.2347676E-02  0.0000000E+00 -0.5050505E-02  0.6724942E-07  0.0000000E+00 -0.2162567E-03
 -0.1716362E-02  0.0000000E+00 -0.5050505E-02  0.5749292E-07  0.0000000E+00 -0.2161287E-03
 -0.1025842E-02  0.0000000E+00 -0.5050505E-02  0.4732780E-07  0.0000000E+00 -0.2160211E-03
  0.2367855E-03  0.0000000E+00 -0.5050505E-02  0.3682874E-07  0.0000000E+00 -0.2159348E-03
  0.1499413E-02  0.0000000E+00 -0.5050505E-02  0.2607685E-07  0.0000000E+00 -0.2158702E-03
  0.2762042E-02  0.0000000E+00 -0.5050505E-02  0.1515783E-07  0.0000000E+00 -0.2158279E-03
 -0.5050505E-02  0.0000000E+00 -0.5050505E-02  0.4159845E-08  0.0000000E+00 -0.2158081E-03
 -0.5050505E-02  0.0000000E+00 -0.5050505E-02 -0.6828654E-08  0.0000000E+00 -0.2158108E-03
 -0.5050505E-02  0.0000000E+00 -0.5050505E-02 -0.1772112E-07  0.0000000E+00 -0.2158360E-03
 -0.5050505E-02  0.0000000E+00 -0.5050505E-02 -0.2843489E-07  0.0000000E+00 -0.2158834E-03
 -0.5050505E-02  0.0000000E+00 -0.5050505E-02 -0.3889287E-07  0.0000000E+00 -0.2159524E-03
 -0.5050505E-02  0.0000000E+00 -0.5050505E-02 -0.4902474E-07  0.0000000E+00 -0.2160427E-03
 -0.5050505E-02  0.0000000E+00 -0.5050505E-02 -0.5876779E-07  0.0000000E+00 -0.2161533E-03
 -0.5050504E-02  0.0000000E+00 -0.5050505E-02 -0.6806737E-07  0.0000000E+00 -0.2162834E-03
 -0.5050501E-02  0.0000000E+00 -0.5050505E-02 -0.7687697E-07  0.0000000E+00 -0.2164321E-03
 -0.5050495E-02  0.0000000E+00 -0.5050505E-02 -0.8515797E-07  0.0000000E+00 -0.2165984E-03
 -0.5050482E-02  0.0000000E+00 -0.5050505E-02 -0.9287927E-07  0.0000000E+00 -0.2167811E-03
 -0.5050449E-02  0.0000000E+00 -0.5050505E-02 -0.1000167E-06  0.0000000E+00 -0.2169790E-03
 -0.5050376E-02  0.0000000E+00 -0.5050505E-02 -0.1065525E-06  0.0000000E+00 -0.2171910E-03
 -0.5050299E-02  0.0000000E+00 -0.5050505E-02 -0.1124745E-06  0.0000000E+00 -0.2174158E-03
 -0.5050178E-02  0.0000000E+00 -0.5050505E-02 -0.1177758E-06  0.0000000E+00 -0.2176521E-03
 -0.5050018E-02  0.0000000E+00 -0.5050505E-02 -0.1224539E-06  0.0000000E+00 -0.2178986E-03
 -0.5049710E-02  0.0000000E+00 -0.5050505E-02 -0.1265106E-06  0.0000000E+00 -0.2181541E-03
 -0.5049253E-02  0.0000000E+00 -0.5050505E-02 -0.1299513E-06  0.0000000E+00 -0.2184174E-03
 -0.5048636E-02  0.0000000E+00 -0.5050505E-02 -0.1327847E-06  0.0000000E+00 -0.2186870E-03
 -0.5047442E-02  0.0000000E+00 -0.5050505E-02 -0.1350225E-06  0.0000000E+00 -0.2189619E-03
 -0.5045727E-02  0.0000000E+00 -0.5050505E-02 -0.1366793E-06  0.0000000E+00 -0.2192408E-03
 -0.5043261E-02  0.0000000E+00 -0.5050505E-02 -0.1377724E-06  0.0000000E+00 -0.2195225E-03
 -0.5038714E-02  0.0000000E+00 -0.5050505E-02 -0.1383216E-06  0.0000000E+00 -0.2198059E-03
 -0.5032318E-02  0.0000000E+00 -0.5050505E-02 -0.1383493E-06  0.0000000E+00 -0.2200899E-03
 -0.5022454E-02  0.0000000E+00 -0.5050505E-02 -0.1378804E-06  0.0000000E+00 -0.2203735E-03
 -0.5012589E-02  0.0000000E+00 -0.5050505E-02 -0.1369427E-06  0.0000000E+00 -0.2206556E-03
 -0.5002725E-02  0.0000000E+00 -0.5050505E-02 -0.1355671E-06  0.0000000E+00 -0.2209354E-03
 -0.4992860E-02  0.0000000E+00 -0.5050505E-02 -0.1337882E-06  0.0000000E+00 -0.2212119E-03
 -0.4976523E-02  0.0000000E+00 -0.5050505E-02 -0.1316449E-06  0.0000000E+00 -0.2214844E-03
 -0.4956794E-02  0.0000000E+00 -0.5050505E-02 -0.1291821E-06  0.0000000E+00 -0.2217522E-03
 -0.4937066E-02  0.0000000E+00 -0.5050505E-02 -0.1264521E-06  0.0000000E+00 -0.2220147E-03
 -0.4906239E-02  0.0000000E+00 -0.5050505E-02 -0.1235176E-06  0.0000000E+00 -0.2222714E-03
 -0.4866782E-02  0.0000000E+00 -0.5050505E-02 -0.1204561E-06  0.0000000E+00 -0.2225219E-03
 -0.4827325E-02  0.0000000E+00 -0.5050505E-02 -0.1173658E-06  0.0000000E+00 -0.2227661E-03
 -0.4769372E-02  0.0000000E+00 -0.5050505E-02 -0.1143763E-06  0.0000000E+00 -0.2230041E-03
 -0.4690458E-02  0.0000000E+00 -0.5050505E-02 -0.1116640E-06  0.0000000E+00 -0.2232362E-03
 -0.4611543E-02  0.0000000E+00 -0.5050505E-02 -0.1094783E-06  0.0000000E+00 -0.2234633E-03
 -0.4503035E-02  0.0000000E+00 -0.5050505E-02 -0.1081857E-06  0.0000000E+00 -0.2236868E-03
 -0.4345206E-02  0.0000000E+00 -0.5050505E-02 -0.1083463E-06  0.0000000E+00 -0.2239092E-03
 -0.4187378E-02  0.0000000E+00 -0.5050505E-02 -0.1108539E-06  0.0000000E+00 -0.2241343E-03
 -0.3985156E-02  0.0000000E+00 -0.5050505E-02 -0.1172039E-06  0.0000000E+00 -0.2243686E-03
 -0.3669499E-02  0.0000000E+00 -0.5050505E-02 -0.1300341E-06  0.0000000E+00 -0.2246225E-03
 -0.3353842E-02  0.0000000E+00 -0.5050505E-02 -0.1542933E-06  0.0000000E+00 -0.2249145E-03
 -0.2978990E-02  0.0000000E+00 -0.5050505E-02 -0.1999582E-06  0.0000000E+00 -0.2252784E-03
 -0.2347676E-02  0.0000000E+00 -0.5050505E-02 -0.2889074E-06  0.0000000E+00 -0.2257805E-03
 -0.1716362E-02  0.0000000E+00 -0.5050505E-02 -0.4739821E-06  0.0000000E+00 -0.2265642E-03
 -0.1025842E-02  0.0000000E+00 -0.5050505E-02 -0.8971025E-06  0.0000000E+00 -0.2279728E-03
  0.2367855E-03  0.0000000E+00 -0.5050505E-02 -0.1983674E-05  0.0000000E+00 -0.2309329E-03
  0.1499413E-02  0.0000000E+00 -0.5050505E-02 -0.5150720E-05  0.0000000E+00 -0.2382667E-03
  0.5287294E-02  0.0000000E+00 -0.5050505E-02 -0.8404386E-04  0.0000000E+00 -0.1902145E-03
 -0.5050505E-02  0.0000000E+00 -0.5050505E-02  0.1086114E-07  0.0000000E+00 -0.2247575E-03
 -0.5050505E-02  0.0000000E+00 -0.5050505E-02  0.3256019E-07  0.0000000E+00 -0.2247426E-03
 -0.5050505E-02  0.0000000E+00 -0.5050505E-02  0.5418941E-07  0.0000000E+00 -0.2247127E-03
 -0.5050505E-02  0.0000000E+00 -0.5050505E-02  0.7570206E-07  0.0000000E+00 -0.2246680E-03
 -0.5050505E-02  0.0000000E+00 -0.5050505E-02  0.9705107E-07  0.0000000E+00 -0.2246086E-03
 -0.5050505E-02  0.0000000E+00 -0.5050505E-02  0.1181889E-06  0.0000000E+00 -0.2245346E-03
 -0.5050504E-02  0.0000000E+00 -0.5050505E-02  0.1390675E-06  0.0000000E+00 -0.2244461E-03
 -0.5050501E-02  0.0000000E+00 -0.5050505E-02  0.1596379E-06  0.0000000E+00 -0.2243433E-03
 -0.5050495E-02  0.0000000E+00 -0.5050505E-02  0.1798506E-06  0.0000000E+00 -0.2242265E-03
 -0.5050482E-02  0.0000000E+00 -0.5050505E-02  0.1996549E-06  0.0000000E+00 -0.2240959E-03
 -0.5050449E-02  0.0000000E+00 -0.5050505E-02  0.2189990E-06  0.0000000E+00 -0.2239519E-03
 -0.5050376E-02  0.0000000E+00 -0.5050505E-02  0.2378302E-06  0.0000000E+00 -0.2237947E-03
 -0.5050299E-02  0.0000000E+00 -0.5050505E-02  0.2560942E-06  0.0000000E+00 -0.2236248E-03
 -0.5050178E-02  0.0000000E+00 -0.5050505E-02  0.2737355E-06  0.0000000E+00 -0.2234425E-03
 -0.5050018E-02  0.0000000E+00 -0.5050505E-02  0.2906973E-06  0.0000000E+00 -0.2232483E-03
 -0.5049710E-02  0.0000000E+00 -0.5050505E-02  0.3069210E-06  0.0000000E+00 -0.2230426E-03
 -0.5049253E-02  0.0000000E+00 -0.5050505E-02  0.3223468E-06  0.0000000E+00 -0.2228261E-03
 -0.5048636E-02  0.0000000E+00 -0.5050505E-02  0.3369129E-06  0.0000000E+00 -0.2225993E-03
 -0.5047442E-02  0.0000000E+00 -0.5050505E-02  0.3505561E-06  0.0000000E+00 -0.2223627E-03
 -0.5045727E-02  0.0000000E+00 -0.5050505E-02  0.3632118E-06  0.0000000E+00 -0.2221171E-03
 -0.5043261E-02  0.0000000E+00 -0.5050505E-02  0.3748135E-06  0.0000000E+00 -0.2218631E-03
 -0.5038714E-02  0.0000000E+00 -0.5050505E-02  0.3852932E-06  0.0000000E+00 -0.2216015E-03
 -0.5032318E-02  0.0000000E+00 -0.5050505E-02  0.3945816E-06  0.0000000E+00 -0.2213331E-03
 -0.5022454E-02  0.0000000E+00 -0.5050505E-02  0.4026079E-06  0.0000000E+00 -0.2210587E-03
 -0.5012589E-02  0.0000000E+00 -0.5050505E-02  0.4093003E-06  0.0000000E+00 -0.2207793E-03
 -0.5002725E-02  0.0000000E+00 -0.5050505E-02  0.4145861E-06  0.0000000E+00 -0.2204957E-03
 -0.4992860E-02  0.0000000E+00 -0.5050505E-02  0.4183921E-06  0.0000000E+00 -0.2202089E-03
 -0.4976523E-02  0.0000000E+00 -0.5050505E-02  0.4206448E-06  0.0000000E+00 -0.2199201E-03
 -0.4956794E-02  0.0000000E+00 -0.5050505E-02  0.4212714E-06  0.0000000E+00 -0.2196302E-03
 -0.4937066E-02  0.0000000E+00 -0.5050505E-02  0.4202002E-06  0.0000000E+00 -0.2193404E-03
 -0.4906239E-02  0.0000000E+00 -0.5050505E-02  0.4173619E-06  0.0000000E+00 -0.2190520E-03
 -0.4866782E-02  0.0000000E+00 -0.5050505E-02  0.4126901E-06  0.0000000E+00 -0.2187661E-03
 -0.4827325E-02  0.0000000E+00 -0.5050505E-02  0.4061233E-06  0.0000000E+00 -0.2184841E-03
 -0.4769372E-02  0.0000000E+00 -0.5050505E-02  0.3976064E-06  0.0000000E+00 -0.2182072E-03
 -0.4690458E-02  0.0000000E+00 -0.5050505E-02  0.3870928E-06  0.0000000E+00 -0.2179369E-03
 -0.4611543E-02  0.0000000E+00 -0.5050505E-02  0.3745462E-06  0.0000000E+00 -0.2176744E-03
 -0.4503035E-02  0.0000000E+00 -0.5050505E-02  0.3599440E-06  0.0000000E+00 -0.2174213E-03
 -0.4345206E-02  0.0000000E+00 -0.5050505E-02  0.3432792E-06  0.0000000E+00 -0.2171790E-03
 -0.4187378E-02  0.0000000E+00 -0.5050505E-02  0.3245644E-06  0.0000000E+00 -0.2169488E-03
 -0.3985156E-02  0.0000000E+00 -0.5050505E-02  0.3038337E-06  0.0000000E+00 -0.2167321E-03
 -0.3669499E-02  0.0000000E+00 -0.5050505E-02  0.2811462E-06  0.0000000E+00 -0.2165304E-03
 -0.3353842E-02  0.0000000E+00 -0.5050505E-02  0.2565883E-06  0.0000000E+00 -0.2163450E-03
 -0.2978990E-02  0.0000000E+00 -0.5050505E-02  0.2302751E-06  0.0000000E+00 -0.2161771E-03
 -0.2347676E-02  0.0000000E+00 -0.5050505E-02  0.2023514E-06  0.0000000E+00 -0.2160279E-03
 -0.1716362E-02  0.0000000E+00 -0.5050505E-02  0.1729913E-06  0.0000000E+00 -0.2158985E-03
 -0.1025842E-02  0.0000000E+00 -0.5050505E-02  0.1423964E-06  0.0000000E+00 -0.2157897E-03
  0.2367855E-03  0.0000000E+00 -0.5050505E-02  0.1107923E-06  0.0000000E+00 -0.2157024E-03
  0.1499413E-02  0.0000000E+00 -0.5050505E-02  0.7842463E-07  0.0000000E+00 -0.2156372E-03
  0.2762042E-02  0.0000000E+00 -0.5050505E-02  0.4555281E-07  0.0000000E+00 -0.2155945E-03
 -0.5050505E-02  0.0000000E+00 -0.5050505E-02  0.1244387E-07  0.0000000E+00 -0.2155746E-03
 -0.5050505E-02  0.0000000E+00 -0.5050505E-02 -0.2063442E-07  0.0000000E+00 -0.2155776E-03
 -0.5050505E-02  0.0000000E+00 -0.5050505E-02 -0.5342019E-07  0.0000000E+00 -0.2156032E-03
 -0.5050505E-02  0.0000000E+00 -0.5050505E-02 -0.8566359E-07  0.0000000E+00 -0.2156513E-03
 -0.5050505E-02  0.0000000E+00 -0.5050505E-02 -0.1171318E-06  0.0000000E+00 -0.2157214E-03
 -0.5050505E-02  0.0000000E+00 -0.5050505E-02 -0.1476128E-06  0.0000000E+00 -0.2158128E-03
 -0.5050505E-02  0.0000000E+00 -0.5050505E-02 -0.1769179E-06  0.0000000E+00 -0.2159249E-03
 -0.5050504E-02  0.0000000E+00 -0.5050505E-02 -0.2048830E-06  0.0000000E+00 -0.2160567E-03
 -0.5050501E-02  0.0000000E+00 -0.5050505E-02 -0.2313685E-06  0.0000000E+00 -0.2162072E-03
 -0.5050495E-02  0.0000000E+00 -0.5050505E-02 -0.2562589E-06  0.0000000E+00 -0.2163754E-03
 -0.5050482E-02  0.0000000E+00 -0.5050505E-02 -0.2794615E-06  0.0000000E+00 -0.2165602E-03
 -0.5050449E-02  0.0000000E+00 -0.5050505E-02 -0.3009044E-06  0.0000000E+00 -0.2167603E-03
 -0.5050376E-02  0.0000000E+00 -0.5050505E-02 -0.3205347E-06  0.0000000E+00 -0.2169745E-03
 -0.5050299E-02  0.0000000E+00 -0.5050505E-02 -0.3383168E-06  0.0000000E+00 -0.2172016E-03
 -0.5050178E-02  0.0000000E+00 -0.5050505E-02 -0.3542304E-06  0.0000000E+00 -0.2174403E-03
 -0.5050018E-02  0.0000000E+00 -0.5050505E-02 -0.3682689E-06  0.0000000E+00 -0.2176893E-03
 -0.5049710E-02  0.0000000E+00 -0.5050505E-02 -0.3804378E-06  0.0000000E+00 -0.2179472E-03
 -0.5049253E-02  0.0000000E+00 -0.5050505E-02 -0.3907537E-06  0.0000000E+00 -0.2182129E-03
 -0.5048636E-02  0.0000000E+00 -0.5050505E-02 -0.3992431E-06  0.0000000E+00 -0.2184850E-03
 -0.5047442E-02  0.0000000E+00 -0.5050505E-02 -0.4059417E-06  0.0000000E+00 -0.2187623E-03
 -0.5045727E-02  0.0000000E+00 -0.5050505E-02 -0.4108933E-06  0.0000000E+00 -0.2190436E-03
 -0.5043261E-02  0.0000000E+00 -0.5050505E-02 -0.4141499E-06  0.0000000E+00 -0.2193277E-03
 -0.5038714E-02  0.0000000E+00 -0.5050505E-02 -0.4157711E-06  0.0000000E+00 -0.2196134E-03
 -0.5032318E-02  0.0000000E+00 -0.5050505E-02 -0.4158240E-06  0.0000000E+00 -0.2198997E-03
 -0.5022454E-02  0.0000000E+00 -0.5050505E-02 -0.4143835E-06  0.0000000E+00 -0.2201855E-03
 -0.5012589E-02  0.0000000E+00 -0.5050505E-02 -0.4115325E-06  0.0000000E+00 -0.2204697E-03
 -0.5002725E-02  0.0000000E+00 -0.5050505E-02 -0.4073633E-06  0.0000000E+00 -0.2207515E-03
 -0.4992860E-02  0.0000000E+00 -0.5050505E-02 -0.4019787E-06  0.0000000E+00 -0.2210300E-03
 -0.4976523E-02  0.0000000E+00 -0.5050505E-02 -0.3954946E-06  0.0000000E+00 -0.2213043E-03
 -0.4956794E-02  0.0000000E+00 -0.5050505E-02 -0.3880435E-06  0.0000000E+00 -0.2215738E-03
 -0.4937066E-02  0.0000000E+00 -0.5050505E-02 -0.3797798E-06  0.0000000E+00 -0.2218378E-03
 -0.4906239E-02  0.0000000E+00 -0.5050505E-02 -0.3708875E-06  0.0000000E+00 -0.2220959E-03
 -0.4866782E-02  0.0000000E+00 -0.5050505E-02 -0.3615924E-06  0.0000000E+00 -0.2223475E-03
 -0.4827325E-02  0.0000000E+00 -0.5050505E-02 -0.3521797E-06  0.0000000E+00 -0.2225926E-03
 -0.4769372E-02  0.0000000E+00 -0.5050505E-02 -0.3430219E-06  0.0000000E+00 -0.2228311E-03
 -0.4690458E-02  0.0000000E+00 -0.5050505E-02 -0.3346225E-06  0.0000000E+00 -0.2230632E-03
 -0.4611543E-02  0.0000000E+00 -0.5050505E-02 -0.3276865E-06  0.0000000E+00 -0.2232897E-03
 -0.4503035E-02  0.0000000E+00 -0.5050505E-02 -0.3232373E-06  0.0000000E+00 -0.2235116E-03
 -0.4345206E-02  0.0000000E+00 -0.5050505E-02 -0.3228175E-06  0.0000000E+00 -0.2237308E-03
 -0.4187378E-02  0.0000000E+00 -0.5050505E-02 -0.3288456E-06  0.0000000E+00 -0.2239504E-03
 -0.3985156E-02  0.0000000E+00 -0.5050505E-02 -0.3452757E-06  0.0000000E+00 -0.2241748E-03
 -0.3669499E-02  0.0000000E+00 -0.5050505E-02 -0.3788760E-06  0.0000000E+00 -0.2244113E-03
 -0.3353842E-02  0.0000000E+00 -0.5050505E-02 -0.4418323E-06  0.0000000E+00 -0.2246708E-03
 -0.2978990E-02  0.0000000E+00 -0.5050505E-02 -0.5573515E-06  0.0000000E+00 -0.2249702E-03
 -0.2347676E-02  0.0000000E+00 -0.5050505E-02 -0.7724445E-06  0.0000000E+00 -0.2253331E-03
 -0.1716362E-02  0.0000000E+00 -0.5050505E-02 -0.1188894E-05  0.0000000E+00 -0.2257824E-03
 -0.1025842E-02  0.0000000E+00 -0.5050505E-02 -0.2042770E-05  0.0000000E+00 -0.2262887E-03
  0.2367855E-03  0.0000000E+00 -0.5050505E-02 -0.3919646E-05  0.0000000E+00 -0.2265029E-03
  0.1499413E-02  0.0000000E+00 -0.5050505E-02 -0.8362006E-05  0.0000000E+00 -0.2244847E-03
  0.5287294E-02  0.0000000E+00 -0.5050505E-02 -0.1962672E-04  0.0000000E+00 -0.2107517E-03
 -0.5050505E-02  0.0000000E+00 -0.5050505E-02  0.1815588E-07  0.0000000E+00 -0.2244463E-03
 -0.5050505E-02  0.0000000E+00 -0.5050505E-02  0.5442898E-07  0.0000000E+00 -0.2244312E-03
 -0.5050505E-02  0.0000000E+00 -0.5050505E-02  0.9058585E-07  0.0000000E+00 -0.2244010E-03
 -0.5050505E-02  0.0000000E+00 -0.5050505E-02  0.1265487E-06  0.0000000E+00 -0.2243558E-03
 -0.5050505E-02  0.0000000E+00 -0.5050505E-02  0.1622391E-06  0.0000000E+00 -0.2242956E-03
 -0.5050505E-02  0.0000000E+00 -0.5050505E-02  0.1975780E-06  0.0000000E+00 -0.2242207E-03
 -0.5050504E-02  0.0000000E+00 -0.5050505E-02  0.2324852E-06  0.0000000E+00 -0.2241311E-03
 -0.5050501E-02  0.0000000E+00 -0.5050505E-02  0.2668794E-06  0.0000000E+00 -0.2240270E-03
 -0.5050495E-02  0.0000000E+00 -0.5050505E-02  0.3006778E-06  0.0000000E+00 -0.2239088E-03
 -0.5050482E-02  0.0000000E+00 -0.5050505E-02  0.3337962E-06  0.0000000E+00 -0.2237766E-03
 -0.5050449E-02  0.0000000E+00 -0.5050505E-02  0.3661483E-06  0.0000000E+00 -0.2236308E-03
 -0.5050376E-02  0.0000000E+00 -0.5050505E-02  0.3976460E-06  0.0000000E+00 -0.2234716E-03
 -0.5050299E-02  0.0000000E+00 -0.5050505E-02  0.4281990E-06  0.0000000E+00 -0.2232995E-03
 -0.5050178E-02  0.0000000E+00 -0.5050505E-02  0.4577149E-06  0.0000000E+00 -0.2231149E-03
 -0.5050018E-02  0.0000000E+00 -0.5050505E-02  0.4860985E-06  0.0000000E+00 -0.2229182E-03
 -0.5049710E-02  0.0000000E+00 -0.5050505E-02  0.5132525E-06  0.0000000E+00 -0.2227098E-03
 -0.5049253E-02  0.0000000E+00 -0.5050505E-02  0.5390767E-06  0.0000000E+00 -0.2224905E-03
 -0.5048636E-02  0.0000000E+00 -0.5050505E-02  0.5634683E-06  0.0000000E+00 -0.2222606E-03
 -0.5047442E-02  0.0000000E+00 -0.5050505E-02  0.5863219E-06  0.0000000E+00 -0.2220208E-03
 -0.5045727E-02  0.0000000E+00 -0.5050505E-02  0.6075291E-06  0.0000000E+00 -0.2217718E-03
 -0.5043261E-02  0.0000000E+00 -0.5050505E-02  0.6269790E-06  0.0000000E+00 -0.2215143E-03
 -0.5038714E-02  0.0000000E+00 -0.5050505E-02  0.6445581E-06  0.0000000E+00 -0.2212490E-03
 -0.5032318E-02  0.0000000E+00 -0.5050505E-02  0.6601502E-06  0.0000000E+00 -0.2209767E-03
 -0.5022454E-02  0.0000000E+00 -0.5050505E-02  0.6736371E-06  0.0000000E+00 -0.2206983E-03
 -0.5012589E-02  0.0000000E+00 -0.5050505E-02  0.6848984E-06  0.0000000E+00 -0.2204146E-03
 -0.5002725E-02  0.0000000E+00 -0.5050505E-02  0.6938122E-06  0.0000000E+00 -0.2201267E-03
 -0.4992860E-02  0.0000000E+00 -0.5050505E-02  0.7002556E-06  0.0000000E+00 -0.2198355E-03
 -0.4976523E-02  0.0000000E+00 -0.5050505E-02  0.7041053E-06  0.0000000E+00 -0.2195421E-03
 -0.4956794E-02  0.0000000E+00 -0.5050505E-02  0.7052387E-06  0.0000000E+00 -0.2192475E-03
 -0.4937066E-02  0.0000000E+00 -0.5050505E-02  0.7035349E-06  0.0000000E+00 -0.2189529E-03
 -0.4906239E-02  0.0000000E+00 -0.5050505E-02  0.6988764E-06  0.0000000E+00 -0.2186596E-03
 -0.4866782E-02  0.0000000E+00 -0.5050505E-02  0.6911510E-06  0.0000000E+00 -0.2183687E-03
 -0.4827325E-02  0.0000000E+00 -0.5050505E-02  0.6802538E-06  0.0000000E+00 -0.2180817E-03
 -0.4769372E-02  0.0000000E+00 -0.5050505E-02  0.6660904E-06  0.0000000E+00 -0.2177998E-03
 -0.4690458E-02  0.0000000E+00 -0.5050505E-02  0.6485799E-06  0.0000000E+00 -0.2175243E-03
 -0.4611543E-02  0.0000000E+00 -0.5050505E-02  0.6276591E-06  0.0000000E+00 -0.2172568E-03
 -0.4503035E-02  0.0000000E+00 -0.5050505E-02  0.6032865E-06  0.0000000E+00 -0.2169987E-03
 -0.4345206E-02  0.0000000E+00 -0.5050505E-02  0.5754475E-06  0.0000000E+00 -0.2167515E-03
 -0.4187378E-02  0.0000000E+00 -0.5050505E-02  0.5441592E-06  0.0000000E+00 -0.2165165E-03
 -0.3985156E-02  0.0000000E+00 -0.5050505E-02  0.5094756E-06  0.0000000E+00 -0.2162953E-03
 -0.3669499E-02  0.0000000E+00 -0.5050505E-02  0.4714930E-06  0.0000000E+00 -0.2160892E-03
 -0.3353842E-02  0.0000000E+00 -0.5050505E-02  0.4303534E-06  0.0000000E+00 -0.2158998E-03
 -0.2978990E-02  0.0000000E+00 -0.5050505E-02  0.3862485E-06  0.0000000E+00 -0.2157282E-03
 -0.2347676E-02  0.0000000E+00 -0.5050505E-02  0.3394207E-06  0.0000000E+00 -0.2155756E-03
 -0.1716362E-02  0.0000000E+00 -0.5050505E-02  0.2901629E-06  0.0000000E+00 -0.2154433E-03
 -0.1025842E-02  0.0000000E+00 -0.5050505E-02  0.2388155E-06  0.0000000E+00 -0.2153321E-03
  0.2367855E-03  0.0000000E+00 -0.5050505E-02  0.1857607E-06  0.0000000E+00 -0.2152430E-03
  0.1499413E-02  0.0000000E+00 -0.5050505E-02  0.1314152E-06  0.0000000E+00 -0.2151764E-03
  0.2762042E-02  0.0000000E+00 -0.5050505E-02  0.7621983E-07  0.0000000E+00 -0.2151330E-03
 -0.5050505E-02  0.0000000E+00 -0.5050505E-02  0.2062824E-07  0.0000000E+00 -0.2151129E-03
 -0.5050505E-02  0.0000000E+00 -0.5050505E-02 -0.3490472E-07  0.0000000E+00 -0.2151162E-03
 -0.5050505E-02  0.0000000E+00 -0.5050505E-02 -0.8993485E-07  0.0000000E+00 -0.2151429E-03
 -0.5050505E-02  0.0000000E+00 -0.5050505E-02 -0.1440391E-06  0.0000000E+00 -0.2151924E-03
 -0.5050505E-02  0.0000000E+00 -0.5050505E-02 -0.1968243E-06  0.0000000E+00 -0.2152645E-03
 -0.5050505E-02  0.0000000E+00 -0.5050505E-02 -0.2479335E-06  0.0000000E+00 -0.2153584E-03
 -0.5050505E-02  0.0000000E+00 -0.5050505E-02 -0.2970500E-06  0.0000000E+00 -0.2154734E-03
 -0.5050504E-02  0.0000000E+00 -0.5050505E-02 -0.3438993E-06  0.0000000E+00 -0.2156084E-03
 -0.5050501E-02  0.0000000E+00 -0.5050505E-02 -0.3882494E-06  0.0000000E+00 -0.2157625E-03
 -0.5050495E-02  0.0000000E+00 -0.5050505E-02 -0.4299090E-06  0.0000000E+00 -0.2159346E-03
 -0.5050482E-02  0.0000000E+00 -0.5050505E-02 -0.4687249E-06  0.0000000E+00 -0.2161235E-03
 -0.5050449E-02  0.0000000E+00 -0.5050505E-02 -0.5045794E-06  0.0000000E+00 -0.2163280E-03
 -0.5050376E-02  0.0000000E+00 -0.5050505E-02 -0.5373865E-06  0.0000000E+00 -0.2165468E-03
 -0.5050299E-02  0.0000000E+00 -0.5050505E-02 -0.5670890E-06  0.0000000E+00 -0.2167785E-03
 -0.5050178E-02  0.0000000E+00 -0.5050505E-02 -0.5936549E-06  0.0000000E+00 -0.2170220E-03
 -0.5050018E-02  0.0000000E+00 -0.5050505E-02 -0.6170751E-06  0.0000000E+00 -0.2172758E-03
 -0.5049710E-02  0.0000000E+00 -0.5050505E-02 -0.6373603E-06  0.0000000E+00 -0.2175386E-03
 -0.5049253E-02  0.0000000E+00 -0.5050505E-02 -0.6545397E-06  0.0000000E+00 -0.2178092E-03
 -0.5048636E-02  0.0000000E+00 -0.5050505E-02 -0.6686586E-06  0.0000000E+00 -0.2180862E-03
 -0.5047442E-02  0.0000000E+00 -0.5050505E-02 -0.6797774E-06  0.0000000E+00 -0.2183683E-03
 -0.5045727E-02  0.0000000E+00 -0.5050505E-02 -0.6879702E-06  0.0000000E+00 -0.2186544E-03
 -0.5043261E-02  0.0000000E+00 -0.5050505E-02 -0.6933243E-06  0.0000000E+00 -0.2189432E-03
 -0.5038714E-02  0.0000000E+00 -0.5050505E-02 -0.6959393E-06  0.0000000E+00 -0.2192336E-03
 -0.5032318E-02  0.0000000E+00 -0.5050505E-02 -0.6959272E-06  0.0000000E+00 -0.2195244E-03
 -0.5022454E-02  0.0000000E+00 -0.5050505E-02 -0.6934124E-06  0.0000000E+00 -0.2198146E-03
 -0.5012589E-02  0.0000000E+00 -0.5050505E-02 -0.6885326E-06  0.0000000E+00 -0.2201031E-03
 -0.5002725E-02  0.0000000E+00 -0.5050505E-02 -0.6814400E-06  0.0000000E+00 -0.2203889E-03
 -0.4992860E-02  0.0000000E+00 -0.5050505E-02 -0.6723037E-06  0.0000000E+00 -0.2206713E-03
 -0.4976523E-02  0.0000000E+00 -0.5050505E-02 -0.6613131E-06  0.0000000E+00 -0.2209492E-03
 -0.4956794E-02  0.0000000E+00 -0.5050505E-02 -0.6486834E-06  0.0000000E+00 -0.2212221E-03
 -0.4937066E-02  0.0000000E+00 -0.5050505E-02 -0.6346633E-06  0.0000000E+00 -0.2214892E-03
 -0.4906239E-02  0.0000000E+00 -0.5050505E-02 -0.6195466E-06  0.0000000E+00 -0.2217500E-03
 -0.4866782E-02  0.0000000E+00 -0.5050505E-02 -0.6036898E-06  0.0000000E+00 -0.2220039E-03
 -0.4827325E-02  0.0000000E+00 -0.5050505E-02 -0.5875376E-06  0.0000000E+00 -0.2222508E-03
 -0.4769372E-02  0.0000000E+00 -0.5050505E-02 -0.5716628E-06  0.0000000E+00 -0.2224904E-03
 -0.4690458E-02  0.0000000E+00 -0.5050505E-02 -0.5568263E-06  0.0000000E+00 -0.2227228E-03
 -0.4611543E-02  0.0000000E+00 -0.5050505E-02 -0.5440733E-06  0.0000000E+00 -0.2229483E-03
 -0.4503035E-02  0.0000000E+00 -0.5050505E-02 -0.5348867E-06  0.0000000E+00 -0.2231675E-03
 -0.4345206E-02  0.0000000E+00 -0.5050505E-02 -0.5314414E-06  0.0000000E+00 -0.2233814E-03
 -0.4187378E-02  0.0000000E+00 -0.5050505E-02 -0.5370322E-06  0.0000000E+00 -0.2235915E-03
 -0.3985156E-02  0.0000000E+00 -0.5050505E-02 -0.5568189E-06  0.0000000E+00 -0.2237997E-03
 -0.3669499E-02  0.0000000E+00 -0.5050505E-02 -0.5991494E-06  0.0000000E+00 -0.2240085E-03
 -0.3353842E-02  0.0000000E+00 -0.5050505E-02 -0.6779635E-06  0.0000000E+00 -0.2242197E-03
 -0.2978990E-02  0.0000000E+00 -0.5050505E-02 -0.8171992E-06  0.0000000E+00 -0.2244321E-03
 -0.2347676E-02  0.0000000E+00 -0.5050505E-02 -0.1058747E-05  0.0000000E+00 -0.2246337E-03
 -0.1716362E-02  0.0000000E+00 -0.5050505E-02 -0.1475702E-05  0.0000000E+00 -0.2247782E-03
 -0.1025842E-02  0.0000000E+00 -0.5050505E-02 -0.2188324E-05  0.0000000E+00 -0.2247248E-03
  0.2367855E-03  0.0000000E+00 -0.5050505E-02 -0.3350233E-05  0.0000000E+00 -0.2240926E-03
  0.1499413E-02  0.0000000E+00 -0.5050505E-02 -0.4918490E-05  0.0000000E+00 -0.2220297E-03
  0.5287294E-02  0.0000000E+00 -0.5050505E-02 -0.5298703E-05  0.0000000E+00 -0.2176521E-03
 -0.5050505E-02  0.0000000E+00 -0.5050505E-02  0.2554293E-07  0.0000000E+00 -0.2239866E-03
 -0.5050505E-02  0.0000000E+00 -0.5050505E-02  0.7657471E-07  0.0000000E+00 -0.2239712E-03
 -0.5050505E-02  0.0000000E+00 -0.5050505E-02  0.1274440E-06  0.0000000E+00 -0.2239405E-03
 -0.5050505E-02  0.0000000E+00 -0.5050505E-02  0.1780420E-06  0.0000000E+00 -0.2238945E-03
 -0.5050505E-02  0.0000000E+00 -0.5050505E-02  0.2282591E-06  0.0000000E+00 -0.2238332E-03
 -0.5050505E-02  0.0000000E+00 -0.5050505E-02  0.2779847E-06  0.0000000E+00 -0.2237569E-03
 -0.5050504E-02  0.0000000E+00 -0.5050505E-02  0.3271066E-06  0.0000000E+00 -0.2236657E-03
 -0.5050501E-02  0.0000000E+00 -0.5050505E-02  0.3755111E-06  0.0000000E+00 -0.2235598E-03
 -0.5050495E-02  0.0000000E+00 -0.5050505E-02  0.4230824E-06  0.0000000E+00 -0.2234394E-03
 -0.5050482E-02  0.0000000E+00 -0.5050505E-02  0.4697023E-06  0.0000000E+00 -0.2233048E-03
 -0.5050449E-02  0.0000000E+00 -0.5050505E-02  0.5152503E-06  0.0000000E+00 -0.2231563E-03
 -0.5050376E-02  0.0000000E+00 -0.5050505E-02  0.5596029E-06  0.0000000E+00 -0.2229942E-03
 -0.5050299E-02  0.0000000E+00 -0.5050505E-02  0.6026336E-06  0.0000000E+00 -0.2228188E-03
 -0.5050178E-02  0.0000000E+00 -0.5050505E-02  0.6442127E-06  0.0000000E+00 -0.2226307E-03
 -0.5050018E-02  0.0000000E+00 -0.5050505E-02  0.6842072E-06  0.0000000E+00 -0.2224302E-03
 -0.5049710E-02  0.0000000E+00 -0.5050505E-02  0.7224802E-06  0.0000000E+00 -0.2222179E-03
 -0.5049253E-02  0.0000000E+00 -0.5050505E-02  0.7588913E-06  0.0000000E+00 -0.2219942E-03
 -0.5048636E-02  0.0000000E+00 -0.5050505E-02  0.7932962E-06  0.0000000E+00 -0.2217598E-03
 -0.5047442E-02  0.0000000E+00 -0.5050505E-02  0.8255467E-06  0.0000000E+00 -0.2215152E-03
 -0.5045727E-02  0.0000000E+00 -0.5050505E-02  0.8554908E-06  0.0000000E+00 -0.2212612E-03
 -0.5043261E-02  0.0000000E+00 -0.5050505E-02  0.8829724E-06  0.0000000E+00 -0.2209983E-03
 -0.5038714E-02  0.0000000E+00 -0.5050505E-02  0.9078318E-06  0.0000000E+00 -0.2207275E-03
 -0.5032318E-02  0.0000000E+00 -0.5050505E-02  0.9299056E-06  0.0000000E+00 -0.2204494E-03
 -0.5022454E-02  0.0000000E+00 -0.5050505E-02  0.9490270E-06  0.0000000E+00 -0.2201650E-03
 -0.5012589E-02  0.0000000E+00 -0.5050505E-02  0.9650263E-06  0.0000000E+00 -0.2198751E-03
 -0.5002725E-02  0.0000000E+00 -0.5050505E-02  0.9777313E-06  0.0000000E+00 -0.2195807E-03
 -0.4992860E-02  0.0000000E+00 -0.5050505E-02  0.9869680E-06  0.0000000E+00 -0.2192828E-03
 -0.4976523E-02  0.0000000E+00 -0.5050505E-02  0.9925618E-06  0.0000000E+00 -0.2189825E-03
 -0.4956794E-02  0.0000000E+00 -0.5050505E-02  0.9943383E-06  0.0000000E+00 -0.2186809E-03
 -0.4937066E-02  0.0000000E+00 -0.5050505E-02  0.9921254E-06  0.0000000E+00 -0.2183791E-03