title = "dataset feddes"
variables = "time", "absolute mass balance error", "relative mass balance error", "absolute cumulative mass balance error", "relative cumulative mass balance error" 
zone t = "mass balance error -  variably saturated flow", f=point
  1.0000E-10  1.7357E-18  7.8518E-16  1.7357E-18  7.8518E-16
  6.0000E-10 -9.6135E-21 -4.3489E-18  1.7261E-18  7.8083E-16
  3.1000E-09 -4.8067E-20 -2.1745E-17  1.6780E-18  7.5909E-16
  1.5600E-08 -1.7118E-18 -7.7437E-16 -3.3773E-20 -1.5278E-17
  7.8100E-08  1.5254E-18  6.9008E-16  1.4917E-18  6.7480E-16
  3.9060E-07 -1.9408E-18 -8.7796E-16 -4.4910E-19 -2.0316E-16
  1.9531E-06 -1.3809E-18 -6.2468E-16 -1.8300E-18 -8.2784E-16
  9.7656E-06  1.3450E-18  6.0846E-16 -4.8496E-19 -2.1939E-16
  4.8828E-05  1.0813E-18  4.8916E-16  5.9635E-19  2.6978E-16
  2.4414E-04  8.2174E-20  3.7174E-17  6.7853E-19  3.0695E-16
  1.2207E-03  3.1618E-16  1.4303E-13  3.1686E-16  1.4334E-13
  6.1035E-03  1.8148E-14  8.2099E-12  1.8465E-14  8.3533E-12
  3.0518E-02 -2.4157E-12 -1.0928E-09 -2.3972E-12 -1.0845E-09
  1.5259E-01 -1.0040E-10 -4.5420E-08 -1.0280E-10 -4.6504E-08
  7.6294E-01 -1.1505E-09 -5.2044E-07 -1.2533E-09 -5.6694E-07
  1.0000E+00 -2.5698E-10 -1.1625E-07 -1.5102E-09 -6.8319E-07
  2.0000E+00  2.1844E-04  1.0044E-01  2.1844E-04  1.0044E-01
  3.0000E+00 -2.3833E-09 -1.1047E-06  2.1844E-04  1.0125E-01
  4.0000E+00 -1.8520E-09 -8.6356E-07  2.1844E-04  1.0185E-01
  5.0000E+00 -1.2496E-09 -5.8554E-07  2.1843E-04  1.0236E-01
  6.0000E+00 -6.9082E-10 -3.2511E-07  2.1843E-04  1.0280E-01
  7.0000E+00 -1.9614E-09 -9.2662E-07  2.1843E-04  1.0320E-01
  8.0000E+00 -2.2916E-09 -1.0865E-06  2.1843E-04  1.0356E-01
  9.0000E+00  3.1151E-08  1.4818E-05  2.1846E-04  1.0392E-01
  1.0000E+01  1.5386E-07  7.3413E-05  2.1861E-04  1.0431E-01
  1.1000E+01  1.4934E-07  7.1461E-05  2.1876E-04  1.0468E-01
  1.2000E+01  2.1749E-07  1.0436E-04  2.1898E-04  1.0508E-01
  1.3000E+01  2.1964E-07  1.0567E-04  2.1920E-04  1.0546E-01
  1.4000E+01  3.0703E-07  1.4808E-04  2.1951E-04  1.0587E-01
  1.5000E+01  3.6738E-07  1.7762E-04  2.1987E-04  1.0630E-01
  1.6000E+01  3.7543E-07  1.8193E-04  2.2025E-04  1.0673E-01
  1.7000E+01  3.8432E-07  1.8666E-04  2.2063E-04  1.0716E-01
  1.8000E+01  4.4730E-07  2.1772E-04  2.2108E-04  1.0761E-01
  1.9000E+01  4.6838E-07  2.2845E-04  2.2155E-04  1.0806E-01
  2.0000E+01  7.4260E-07  3.6295E-04  2.2229E-04  1.0865E-01
  2.1000E+01  2.2060E-06  1.0803E-03  2.2450E-04  1.0994E-01
  2.2000E+01  1.6233E-06  7.9648E-04  2.2612E-04  1.1095E-01
  2.3000E+01  3.9199E-06  1.9270E-03  2.3004E-04  1.1309E-01
  2.4000E+01  4.5875E-06  2.2594E-03  2.3463E-04  1.1555E-01
  2.5000E+01  2.1207E-06  1.0463E-03  2.3675E-04  1.1681E-01
  2.6000E+01  7.9792E-06  3.9437E-03  2.4473E-04  1.2096E-01
  2.7000E+01  7.9606E-06  3.9413E-03  2.5269E-04  1.2511E-01
  2.8000E+01  7.2764E-06  3.6087E-03  2.5997E-04  1.2893E-01
  2.9000E+01  1.5076E-05  7.4895E-03  2.7504E-04  1.3664E-01
  3.0000E+01  1.1476E-05  5.7106E-03  2.8652E-04  1.4257E-01
  3.1000E+01  2.2311E-05  1.1120E-02  3.0883E-04  1.5393E-01
  3.2000E+01  1.6663E-05  8.3184E-03  3.2549E-04  1.6249E-01
  3.3000E+01  2.0462E-05  1.0231E-02  3.4595E-04  1.7298E-01
  3.4000E+01  3.6377E-05  1.8218E-02  3.8233E-04  1.9148E-01
  3.5000E+01  3.9329E-05  1.9729E-02  4.2166E-04  2.1152E-01
  3.6000E+01  6.3472E-05  3.1894E-02  4.8513E-04  2.4377E-01
  3.7000E+01  9.5950E-05  4.8303E-02  5.8108E-04  2.9253E-01
  3.8000E+01  4.4632E-05  2.2504E-02  6.2571E-04  3.1549E-01
  3.9000E+01  7.2495E-05  3.6614E-02  6.9821E-04  3.5263E-01
  4.0000E+01  8.2052E-05  4.1511E-02  7.8026E-04  3.9474E-01
  4.1000E+01  7.4637E-05  3.7821E-02  8.5490E-04  4.3321E-01
  4.2000E+01  2.0823E-04  1.0576E-01  1.0631E-03  5.3996E-01
  4.3000E+01  1.9117E-04  9.7308E-02  1.2543E-03  6.3844E-01
  4.4000E+01  2.0197E-04  1.0303E-01  1.4563E-03  7.4289E-01
  4.5000E+01  2.8236E-04  1.4441E-01  1.7386E-03  8.8923E-01
  4.6000E+01  2.7511E-04  1.4106E-01  2.0137E-03  1.0326E+00
  4.7000E+01  2.2281E-04  1.1450E-01  2.2365E-03  1.1494E+00
  4.8000E+01  4.3657E-04  2.2510E-01  2.6731E-03  1.3783E+00
  4.9000E+01  4.1960E-04  2.1705E-01  3.0927E-03  1.5998E+00
  5.0000E+01  4.3438E-04  2.2543E-01  3.5271E-03  1.8305E+00
  5.1000E+01  6.6703E-04  3.4771E-01  4.1941E-03  2.1863E+00
  5.2000E+01  7.1309E-04  3.7347E-01  4.9072E-03  2.5701E+00
  5.3000E+01  6.4966E-04  3.4172E-01  5.5569E-03  2.9229E+00
  5.4000E+01  7.6752E-04  4.0571E-01  6.3244E-03  3.3430E+00
  5.5000E+01  5.3750E-04  2.8517E-01  6.8619E-03  3.6405E+00
  5.6000E+01  6.9314E-04  3.6938E-01  7.5550E-03  4.0262E+00
  5.7000E+01  7.8232E-04  4.1896E-01  8.3374E-03  4.4649E+00
  5.8000E+01  1.0902E-03  5.8767E-01  9.4276E-03  5.0818E+00
  5.9000E+01  1.1228E-03  6.0928E-01  1.0550E-02  5.7252E+00
  6.0000E+01  1.2827E-03  7.0130E-01  1.1833E-02  6.4697E+00
