title = "dataset feddes"
variables = "x", "y", "z", "vx", "vy", "vz"
zone t = "velocities, solution time =  3.800E+01 days        " i =   99, j =   99, k =    1,  f=point
 -0.5050505E-02  0.0000000E+00 -0.5050505E-02  0.1720017E-09  0.0000000E+00 -0.2652415E-03
 -0.5050505E-02  0.0000000E+00 -0.5050505E-02  0.5154149E-09  0.0000000E+00 -0.2652408E-03
 -0.5050505E-02  0.0000000E+00 -0.5050505E-02  0.8573067E-09  0.0000000E+00 -0.2652394E-03
 -0.5050505E-02  0.0000000E+00 -0.5050505E-02  0.1196746E-08  0.0000000E+00 -0.2652373E-03
 -0.5050505E-02  0.0000000E+00 -0.5050505E-02  0.1532743E-08  0.0000000E+00 -0.2652344E-03
 -0.5050505E-02  0.0000000E+00 -0.5050505E-02  0.1864304E-08  0.0000000E+00 -0.2652309E-03
 -0.5050504E-02  0.0000000E+00 -0.5050505E-02  0.2190445E-08  0.0000000E+00 -0.2652268E-03
 -0.5050501E-02  0.0000000E+00 -0.5050505E-02  0.2510179E-08  0.0000000E+00 -0.2652219E-03
 -0.5050495E-02  0.0000000E+00 -0.5050505E-02  0.2822524E-08  0.0000000E+00 -0.2652164E-03
 -0.5050482E-02  0.0000000E+00 -0.5050505E-02  0.3126505E-08  0.0000000E+00 -0.2652103E-03
 -0.5050449E-02  0.0000000E+00 -0.5050505E-02  0.3421142E-08  0.0000000E+00 -0.2652035E-03
 -0.5050376E-02  0.0000000E+00 -0.5050505E-02  0.3705467E-08  0.0000000E+00 -0.2651962E-03
 -0.5050299E-02  0.0000000E+00 -0.5050505E-02  0.3978517E-08  0.0000000E+00 -0.2651882E-03
 -0.5050178E-02  0.0000000E+00 -0.5050505E-02  0.4239335E-08  0.0000000E+00 -0.2651797E-03
 -0.5050018E-02  0.0000000E+00 -0.5050505E-02  0.4486978E-08  0.0000000E+00 -0.2651707E-03
 -0.5049710E-02  0.0000000E+00 -0.5050505E-02  0.4720514E-08  0.0000000E+00 -0.2651612E-03
 -0.5049253E-02  0.0000000E+00 -0.5050505E-02  0.4939028E-08  0.0000000E+00 -0.2651513E-03
 -0.5048636E-02  0.0000000E+00 -0.5050505E-02  0.5141621E-08  0.0000000E+00 -0.2651409E-03
 -0.5047442E-02  0.0000000E+00 -0.5050505E-02  0.5327421E-08  0.0000000E+00 -0.2651301E-03
 -0.5045727E-02  0.0000000E+00 -0.5050505E-02  0.5495580E-08  0.0000000E+00 -0.2651189E-03
 -0.5043261E-02  0.0000000E+00 -0.5050505E-02  0.5645278E-08  0.0000000E+00 -0.2651074E-03
 -0.5038714E-02  0.0000000E+00 -0.5050505E-02  0.5775735E-08  0.0000000E+00 -0.2650956E-03
 -0.5032318E-02  0.0000000E+00 -0.5050505E-02  0.5886206E-08  0.0000000E+00 -0.2650836E-03
 -0.5022454E-02  0.0000000E+00 -0.5050505E-02  0.5975994E-08  0.0000000E+00 -0.2650713E-03
 -0.5012589E-02  0.0000000E+00 -0.5050505E-02  0.6044449E-08  0.0000000E+00 -0.2650589E-03
 -0.5002725E-02  0.0000000E+00 -0.5050505E-02  0.6090978E-08  0.0000000E+00 -0.2650464E-03
 -0.4992860E-02  0.0000000E+00 -0.5050505E-02  0.6115050E-08  0.0000000E+00 -0.2650338E-03
 -0.4976523E-02  0.0000000E+00 -0.5050505E-02  0.6116199E-08  0.0000000E+00 -0.2650212E-03
 -0.4956794E-02  0.0000000E+00 -0.5050505E-02  0.6094031E-08  0.0000000E+00 -0.2650086E-03
 -0.4937066E-02  0.0000000E+00 -0.5050505E-02  0.6048233E-08  0.0000000E+00 -0.2649961E-03
 -0.4906239E-02  0.0000000E+00 -0.5050505E-02  0.5978573E-08  0.0000000E+00 -0.2649837E-03
 -0.4866782E-02  0.0000000E+00 -0.5050505E-02  0.5884912E-08  0.0000000E+00 -0.2649714E-03
 -0.4827325E-02  0.0000000E+00 -0.5050505E-02  0.5767202E-08  0.0000000E+00 -0.2649594E-03
 -0.4769372E-02  0.0000000E+00 -0.5050505E-02  0.5625498E-08  0.0000000E+00 -0.2649476E-03
 -0.4690458E-02  0.0000000E+00 -0.5050505E-02  0.5459960E-08  0.0000000E+00 -0.2649362E-03
 -0.4611543E-02  0.0000000E+00 -0.5050505E-02  0.5270854E-08  0.0000000E+00 -0.2649251E-03
 -0.4503035E-02  0.0000000E+00 -0.5050505E-02  0.5058560E-08  0.0000000E+00 -0.2649145E-03
 -0.4345206E-02  0.0000000E+00 -0.5050505E-02  0.4823572E-08  0.0000000E+00 -0.2649043E-03
 -0.4187378E-02  0.0000000E+00 -0.5050505E-02  0.4566503E-08  0.0000000E+00 -0.2648946E-03
 -0.3985156E-02  0.0000000E+00 -0.5050505E-02  0.4288080E-08  0.0000000E+00 -0.2648854E-03
 -0.3669499E-02  0.0000000E+00 -0.5050505E-02  0.3989151E-08  0.0000000E+00 -0.2648769E-03
 -0.3353842E-02  0.0000000E+00 -0.5050505E-02  0.3670680E-08  0.0000000E+00 -0.2648690E-03
 -0.2978990E-02  0.0000000E+00 -0.5050505E-02  0.3333744E-08  0.0000000E+00 -0.2648618E-03
 -0.2347676E-02  0.0000000E+00 -0.5050505E-02  0.2979532E-08  0.0000000E+00 -0.2648553E-03
 -0.1716362E-02  0.0000000E+00 -0.5050505E-02  0.2609337E-08  0.0000000E+00 -0.2648495E-03
 -0.1025842E-02  0.0000000E+00 -0.5050505E-02  0.2224551E-08  0.0000000E+00 -0.2648445E-03
  0.2367855E-03  0.0000000E+00 -0.5050505E-02  0.1826657E-08  0.0000000E+00 -0.2648403E-03
  0.1499413E-02  0.0000000E+00 -0.5050505E-02  0.1417217E-08  0.0000000E+00 -0.2648370E-03
  0.2762042E-02  0.0000000E+00 -0.5050505E-02  0.9978643E-09  0.0000000E+00 -0.2648345E-03
 -0.5050505E-02  0.0000000E+00 -0.5050505E-02  0.5702845E-09  0.0000000E+00 -0.2648329E-03
 -0.5050505E-02  0.0000000E+00 -0.5050505E-02  0.1362057E-09  0.0000000E+00 -0.2648321E-03
 -0.5050505E-02  0.0000000E+00 -0.5050505E-02 -0.3026469E-09  0.0000000E+00 -0.2648323E-03
 -0.5050505E-02  0.0000000E+00 -0.5050505E-02 -0.7445060E-09  0.0000000E+00 -0.2648334E-03
 -0.5050505E-02  0.0000000E+00 -0.5050505E-02 -0.1187545E-08  0.0000000E+00 -0.2648354E-03
 -0.5050505E-02  0.0000000E+00 -0.5050505E-02 -0.1630121E-08  0.0000000E+00 -0.2648383E-03
 -0.5050505E-02  0.0000000E+00 -0.5050505E-02 -0.2070577E-08  0.0000000E+00 -0.2648421E-03
 -0.5050504E-02  0.0000000E+00 -0.5050505E-02 -0.2507327E-08  0.0000000E+00 -0.2648468E-03
 -0.5050501E-02  0.0000000E+00 -0.5050505E-02 -0.2938893E-08  0.0000000E+00 -0.2648525E-03
 -0.5050495E-02  0.0000000E+00 -0.5050505E-02 -0.3363932E-08  0.0000000E+00 -0.2648590E-03
 -0.5050482E-02  0.0000000E+00 -0.5050505E-02 -0.3781256E-08  0.0000000E+00 -0.2648663E-03
 -0.5050449E-02  0.0000000E+00 -0.5050505E-02 -0.4189870E-08  0.0000000E+00 -0.2648746E-03
 -0.5050376E-02  0.0000000E+00 -0.5050505E-02 -0.4588996E-08  0.0000000E+00 -0.2648836E-03
 -0.5050299E-02  0.0000000E+00 -0.5050505E-02 -0.4978119E-08  0.0000000E+00 -0.2648935E-03
 -0.5050178E-02  0.0000000E+00 -0.5050505E-02 -0.5357013E-08  0.0000000E+00 -0.2649042E-03
 -0.5050018E-02  0.0000000E+00 -0.5050505E-02 -0.5725799E-08  0.0000000E+00 -0.2649156E-03
 -0.5049710E-02  0.0000000E+00 -0.5050505E-02 -0.6084991E-08  0.0000000E+00 -0.2649278E-03
 -0.5049253E-02  0.0000000E+00 -0.5050505E-02 -0.6435557E-08  0.0000000E+00 -0.2649407E-03
 -0.5048636E-02  0.0000000E+00 -0.5050505E-02 -0.6778995E-08  0.0000000E+00 -0.2649543E-03
 -0.5047442E-02  0.0000000E+00 -0.5050505E-02 -0.7117429E-08  0.0000000E+00 -0.2649687E-03
 -0.5045727E-02  0.0000000E+00 -0.5050505E-02 -0.7453723E-08  0.0000000E+00 -0.2649837E-03
 -0.5043261E-02  0.0000000E+00 -0.5050505E-02 -0.7791629E-08  0.0000000E+00 -0.2649994E-03
 -0.5038714E-02  0.0000000E+00 -0.5050505E-02 -0.8135982E-08  0.0000000E+00 -0.2650159E-03
 -0.5032318E-02  0.0000000E+00 -0.5050505E-02 -0.8492948E-08  0.0000000E+00 -0.2650330E-03
 -0.5022454E-02  0.0000000E+00 -0.5050505E-02 -0.8870366E-08  0.0000000E+00 -0.2650509E-03
 -0.5012589E-02  0.0000000E+00 -0.5050505E-02 -0.9278188E-08  0.0000000E+00 -0.2650697E-03
 -0.5002725E-02  0.0000000E+00 -0.5050505E-02 -0.9729094E-08  0.0000000E+00 -0.2650893E-03
 -0.4992860E-02  0.0000000E+00 -0.5050505E-02 -0.1023932E-07  0.0000000E+00 -0.2651099E-03
 -0.4976523E-02  0.0000000E+00 -0.5050505E-02 -0.1082984E-07  0.0000000E+00 -0.2651316E-03
 -0.4956794E-02  0.0000000E+00 -0.5050505E-02 -0.1152796E-07  0.0000000E+00 -0.2651547E-03
 -0.4937066E-02  0.0000000E+00 -0.5050505E-02 -0.1236974E-07  0.0000000E+00 -0.2651794E-03
 -0.4906239E-02  0.0000000E+00 -0.5050505E-02 -0.1340331E-07  0.0000000E+00 -0.2652060E-03
 -0.4866782E-02  0.0000000E+00 -0.5050505E-02 -0.1469403E-07  0.0000000E+00 -0.2652350E-03
 -0.4827325E-02  0.0000000E+00 -0.5050505E-02 -0.1633208E-07  0.0000000E+00 -0.2652670E-03
 -0.4769372E-02  0.0000000E+00 -0.5050505E-02 -0.1844430E-07  0.0000000E+00 -0.2653029E-03
 -0.4690458E-02  0.0000000E+00 -0.5050505E-02 -0.2121301E-07  0.0000000E+00 -0.2653438E-03
 -0.4611543E-02  0.0000000E+00 -0.5050505E-02 -0.2490661E-07  0.0000000E+00 -0.2653914E-03
 -0.4503035E-02  0.0000000E+00 -0.5050505E-02 -0.2993123E-07  0.0000000E+00 -0.2654480E-03
 -0.4345206E-02  0.0000000E+00 -0.5050505E-02 -0.3692092E-07  0.0000000E+00 -0.2655169E-03
 -0.4187378E-02  0.0000000E+00 -0.5050505E-02 -0.4690210E-07  0.0000000E+00 -0.2656034E-03
 -0.3985156E-02  0.0000000E+00 -0.5050505E-02 -0.6160795E-07  0.0000000E+00 -0.2657154E-03
 -0.3669499E-02  0.0000000E+00 -0.5050505E-02 -0.8411451E-07  0.0000000E+00 -0.2658658E-03
 -0.3353842E-02  0.0000000E+00 -0.5050505E-02 -0.1202138E-06  0.0000000E+00 -0.2660767E-03
 -0.2978990E-02  0.0000000E+00 -0.5050505E-02 -0.1816091E-06  0.0000000E+00 -0.2663881E-03
 -0.2347676E-02  0.0000000E+00 -0.5050505E-02 -0.2940028E-06  0.0000000E+00 -0.2668790E-03
 -0.1716362E-02  0.0000000E+00 -0.5050505E-02 -0.5195456E-06  0.0000000E+00 -0.2677187E-03
 -0.1025842E-02  0.0000000E+00 -0.5050505E-02 -0.1025370E-05  0.0000000E+00 -0.2693133E-03
  0.2367855E-03  0.0000000E+00 -0.5050505E-02 -0.2313232E-05  0.0000000E+00 -0.2727602E-03
  0.1499413E-02  0.0000000E+00 -0.5050505E-02 -0.6057727E-05  0.0000000E+00 -0.2814066E-03
  0.5287294E-02  0.0000000E+00 -0.5050505E-02 -0.9918049E-04  0.0000000E+00 -0.2245906E-03
 -0.5050505E-02  0.0000000E+00 -0.5050505E-02  0.5170285E-09  0.0000000E+00 -0.2651078E-03
 -0.5050505E-02  0.0000000E+00 -0.5050505E-02  0.1549379E-08  0.0000000E+00 -0.2651071E-03
 -0.5050505E-02  0.0000000E+00 -0.5050505E-02  0.2577181E-08  0.0000000E+00 -0.2651056E-03
 -0.5050505E-02  0.0000000E+00 -0.5050505E-02  0.3597606E-08  0.0000000E+00 -0.2651035E-03
 -0.5050505E-02  0.0000000E+00 -0.5050505E-02  0.4607689E-08  0.0000000E+00 -0.2651007E-03
 -0.5050505E-02  0.0000000E+00 -0.5050505E-02  0.5604449E-08  0.0000000E+00 -0.2650971E-03
 -0.5050504E-02  0.0000000E+00 -0.5050505E-02  0.6584931E-08  0.0000000E+00 -0.2650929E-03
 -0.5050501E-02  0.0000000E+00 -0.5050505E-02  0.7546176E-08  0.0000000E+00 -0.2650880E-03
 -0.5050495E-02  0.0000000E+00 -0.5050505E-02  0.8485233E-08  0.0000000E+00 -0.2650825E-03
 -0.5050482E-02  0.0000000E+00 -0.5050505E-02  0.9399167E-08  0.0000000E+00 -0.2650763E-03
 -0.5050449E-02  0.0000000E+00 -0.5050505E-02  0.1028504E-07  0.0000000E+00 -0.2650695E-03
 -0.5050376E-02  0.0000000E+00 -0.5050505E-02  0.1113994E-07  0.0000000E+00 -0.2650620E-03
 -0.5050299E-02  0.0000000E+00 -0.5050505E-02  0.1196098E-07  0.0000000E+00 -0.2650540E-03
 -0.5050178E-02  0.0000000E+00 -0.5050505E-02  0.1274528E-07  0.0000000E+00 -0.2650455E-03
 -0.5050018E-02  0.0000000E+00 -0.5050505E-02  0.1349001E-07  0.0000000E+00 -0.2650364E-03
 -0.5049710E-02  0.0000000E+00 -0.5050505E-02  0.1419235E-07  0.0000000E+00 -0.2650268E-03
 -0.5049253E-02  0.0000000E+00 -0.5050505E-02  0.1484957E-07  0.0000000E+00 -0.2650168E-03
 -0.5048636E-02  0.0000000E+00 -0.5050505E-02  0.1545896E-07  0.0000000E+00 -0.2650063E-03
 -0.5047442E-02  0.0000000E+00 -0.5050505E-02  0.1601790E-07  0.0000000E+00 -0.2649954E-03
 -0.5045727E-02  0.0000000E+00 -0.5050505E-02  0.1652382E-07  0.0000000E+00 -0.2649841E-03
 -0.5043261E-02  0.0000000E+00 -0.5050505E-02  0.1697428E-07  0.0000000E+00 -0.2649725E-03
 -0.5038714E-02  0.0000000E+00 -0.5050505E-02  0.1736692E-07  0.0000000E+00 -0.2649606E-03
 -0.5032318E-02  0.0000000E+00 -0.5050505E-02  0.1769950E-07  0.0000000E+00 -0.2649485E-03
 -0.5022454E-02  0.0000000E+00 -0.5050505E-02  0.1796991E-07  0.0000000E+00 -0.2649361E-03
 -0.5012589E-02  0.0000000E+00 -0.5050505E-02  0.1817620E-07  0.0000000E+00 -0.2649236E-03
 -0.5002725E-02  0.0000000E+00 -0.5050505E-02  0.1831659E-07  0.0000000E+00 -0.2649110E-03
 -0.4992860E-02  0.0000000E+00 -0.5050505E-02  0.1838948E-07  0.0000000E+00 -0.2648983E-03
 -0.4976523E-02  0.0000000E+00 -0.5050505E-02  0.1839344E-07  0.0000000E+00 -0.2648855E-03
 -0.4956794E-02  0.0000000E+00 -0.5050505E-02  0.1832731E-07  0.0000000E+00 -0.2648728E-03
 -0.4937066E-02  0.0000000E+00 -0.5050505E-02  0.1819012E-07  0.0000000E+00 -0.2648602E-03
 -0.4906239E-02  0.0000000E+00 -0.5050505E-02  0.1798119E-07  0.0000000E+00 -0.2648476E-03
 -0.4866782E-02  0.0000000E+00 -0.5050505E-02  0.1770007E-07  0.0000000E+00 -0.2648353E-03
 -0.4827325E-02  0.0000000E+00 -0.5050505E-02  0.1734664E-07  0.0000000E+00 -0.2648231E-03
 -0.4769372E-02  0.0000000E+00 -0.5050505E-02  0.1692104E-07  0.0000000E+00 -0.2648113E-03
 -0.4690458E-02  0.0000000E+00 -0.5050505E-02  0.1642374E-07  0.0000000E+00 -0.2647997E-03
 -0.4611543E-02  0.0000000E+00 -0.5050505E-02  0.1585556E-07  0.0000000E+00 -0.2647885E-03
 -0.4503035E-02  0.0000000E+00 -0.5050505E-02  0.1521761E-07  0.0000000E+00 -0.2647778E-03
 -0.4345206E-02  0.0000000E+00 -0.5050505E-02  0.1451139E-07  0.0000000E+00 -0.2647675E-03
 -0.4187378E-02  0.0000000E+00 -0.5050505E-02  0.1373874E-07  0.0000000E+00 -0.2647577E-03
 -0.3985156E-02  0.0000000E+00 -0.5050505E-02  0.1290183E-07  0.0000000E+00 -0.2647484E-03
 -0.3669499E-02  0.0000000E+00 -0.5050505E-02  0.1200322E-07  0.0000000E+00 -0.2647398E-03
 -0.3353842E-02  0.0000000E+00 -0.5050505E-02  0.1104580E-07  0.0000000E+00 -0.2647318E-03
 -0.2978990E-02  0.0000000E+00 -0.5050505E-02  0.1003281E-07  0.0000000E+00 -0.2647245E-03
 -0.2347676E-02  0.0000000E+00 -0.5050505E-02  0.8967830E-08  0.0000000E+00 -0.2647179E-03
 -0.1716362E-02  0.0000000E+00 -0.5050505E-02  0.7854745E-08  0.0000000E+00 -0.2647121E-03
 -0.1025842E-02  0.0000000E+00 -0.5050505E-02  0.6697747E-08  0.0000000E+00 -0.2647070E-03
  0.2367855E-03  0.0000000E+00 -0.5050505E-02  0.5501300E-08  0.0000000E+00 -0.2647028E-03
  0.1499413E-02  0.0000000E+00 -0.5050505E-02  0.4270111E-08  0.0000000E+00 -0.2646994E-03
  0.2762042E-02  0.0000000E+00 -0.5050505E-02  0.3009095E-08  0.0000000E+00 -0.2646969E-03
 -0.5050505E-02  0.0000000E+00 -0.5050505E-02  0.1723328E-08  0.0000000E+00 -0.2646952E-03
 -0.5050505E-02  0.0000000E+00 -0.5050505E-02  0.4179997E-09  0.0000000E+00 -0.2646945E-03
 -0.5050505E-02  0.0000000E+00 -0.5050505E-02 -0.9016285E-09  0.0000000E+00 -0.2646946E-03
 -0.5050505E-02  0.0000000E+00 -0.5050505E-02 -0.2230262E-08  0.0000000E+00 -0.2646957E-03
 -0.5050505E-02  0.0000000E+00 -0.5050505E-02 -0.3562439E-08  0.0000000E+00 -0.2646977E-03
 -0.5050505E-02  0.0000000E+00 -0.5050505E-02 -0.4893146E-08  0.0000000E+00 -0.2647006E-03
 -0.5050505E-02  0.0000000E+00 -0.5050505E-02 -0.6217389E-08  0.0000000E+00 -0.2647044E-03
 -0.5050504E-02  0.0000000E+00 -0.5050505E-02 -0.7530381E-08  0.0000000E+00 -0.2647092E-03
 -0.5050501E-02  0.0000000E+00 -0.5050505E-02 -0.8827657E-08  0.0000000E+00 -0.2647148E-03
 -0.5050495E-02  0.0000000E+00 -0.5050505E-02 -0.1010514E-07  0.0000000E+00 -0.2647214E-03
 -0.5050482E-02  0.0000000E+00 -0.5050505E-02 -0.1135925E-07  0.0000000E+00 -0.2647288E-03
 -0.5050449E-02  0.0000000E+00 -0.5050505E-02 -0.1258693E-07  0.0000000E+00 -0.2647371E-03
 -0.5050376E-02  0.0000000E+00 -0.5050505E-02 -0.1378584E-07  0.0000000E+00 -0.2647462E-03
 -0.5050299E-02  0.0000000E+00 -0.5050505E-02 -0.1495435E-07  0.0000000E+00 -0.2647561E-03
 -0.5050178E-02  0.0000000E+00 -0.5050505E-02 -0.1609176E-07  0.0000000E+00 -0.2647668E-03
 -0.5050018E-02  0.0000000E+00 -0.5050505E-02 -0.1719836E-07  0.0000000E+00 -0.2647783E-03
 -0.5049710E-02  0.0000000E+00 -0.5050505E-02 -0.1827562E-07  0.0000000E+00 -0.2647906E-03
 -0.5049253E-02  0.0000000E+00 -0.5050505E-02 -0.1932637E-07  0.0000000E+00 -0.2648036E-03
 -0.5048636E-02  0.0000000E+00 -0.5050505E-02 -0.2035500E-07  0.0000000E+00 -0.2648173E-03
 -0.5047442E-02  0.0000000E+00 -0.5050505E-02 -0.2136775E-07  0.0000000E+00 -0.2648317E-03
 -0.5045727E-02  0.0000000E+00 -0.5050505E-02 -0.2237308E-07  0.0000000E+00 -0.2648468E-03
 -0.5043261E-02  0.0000000E+00 -0.5050505E-02 -0.2338202E-07  0.0000000E+00 -0.2648626E-03
 -0.5038714E-02  0.0000000E+00 -0.5050505E-02 -0.2440884E-07  0.0000000E+00 -0.2648790E-03
 -0.5032318E-02  0.0000000E+00 -0.5050505E-02 -0.2547169E-07  0.0000000E+00 -0.2648962E-03
 -0.5022454E-02  0.0000000E+00 -0.5050505E-02 -0.2659362E-07  0.0000000E+00 -0.2649142E-03
 -0.5012589E-02  0.0000000E+00 -0.5050505E-02 -0.2780388E-07  0.0000000E+00 -0.2649329E-03
 -0.5002725E-02  0.0000000E+00 -0.5050505E-02 -0.2913968E-07  0.0000000E+00 -0.2649525E-03
 -0.4992860E-02  0.0000000E+00 -0.5050505E-02 -0.3064855E-07  0.0000000E+00 -0.2649730E-03
 -0.4976523E-02  0.0000000E+00 -0.5050505E-02 -0.3239176E-07  0.0000000E+00 -0.2649946E-03
 -0.4956794E-02  0.0000000E+00 -0.5050505E-02 -0.3444894E-07  0.0000000E+00 -0.2650175E-03
 -0.4937066E-02  0.0000000E+00 -0.5050505E-02 -0.3692480E-07  0.0000000E+00 -0.2650418E-03
 -0.4906239E-02  0.0000000E+00 -0.5050505E-02 -0.3995878E-07  0.0000000E+00 -0.2650680E-03
 -0.4866782E-02  0.0000000E+00 -0.5050505E-02 -0.4373934E-07  0.0000000E+00 -0.2650965E-03
 -0.4827325E-02  0.0000000E+00 -0.5050505E-02 -0.4852530E-07  0.0000000E+00 -0.2651277E-03
 -0.4769372E-02  0.0000000E+00 -0.5050505E-02 -0.5467871E-07  0.0000000E+00 -0.2651625E-03
 -0.4690458E-02  0.0000000E+00 -0.5050505E-02 -0.6271635E-07  0.0000000E+00 -0.2652019E-03
 -0.4611543E-02  0.0000000E+00 -0.5050505E-02 -0.7339269E-07  0.0000000E+00 -0.2652473E-03
 -0.4503035E-02  0.0000000E+00 -0.5050505E-02 -0.8783765E-07  0.0000000E+00 -0.2653006E-03
 -0.4345206E-02  0.0000000E+00 -0.5050505E-02 -0.1077924E-06  0.0000000E+00 -0.2653646E-03
 -0.4187378E-02  0.0000000E+00 -0.5050505E-02 -0.1360289E-06  0.0000000E+00 -0.2654434E-03
 -0.3985156E-02  0.0000000E+00 -0.5050505E-02 -0.1771255E-06  0.0000000E+00 -0.2655429E-03
 -0.3669499E-02  0.0000000E+00 -0.5050505E-02 -0.2389717E-06  0.0000000E+00 -0.2656718E-03
 -0.3353842E-02  0.0000000E+00 -0.5050505E-02 -0.3358319E-06  0.0000000E+00 -0.2658437E-03
 -0.2978990E-02  0.0000000E+00 -0.5050505E-02 -0.4949461E-06  0.0000000E+00 -0.2660788E-03
 -0.2347676E-02  0.0000000E+00 -0.5050505E-02 -0.7715992E-06  0.0000000E+00 -0.2664053E-03
 -0.1716362E-02  0.0000000E+00 -0.5050505E-02 -0.1285667E-05  0.0000000E+00 -0.2668511E-03
 -0.1025842E-02  0.0000000E+00 -0.5050505E-02 -0.2315583E-05  0.0000000E+00 -0.2673827E-03
  0.2367855E-03  0.0000000E+00 -0.5050505E-02 -0.4553095E-05  0.0000000E+00 -0.2675893E-03
  0.1499413E-02  0.0000000E+00 -0.5050505E-02 -0.9823675E-05  0.0000000E+00 -0.2651757E-03
  0.5287294E-02  0.0000000E+00 -0.5050505E-02 -0.2317582E-04  0.0000000E+00 -0.2488943E-03
 -0.5050505E-02  0.0000000E+00 -0.5050505E-02  0.8654998E-09  0.0000000E+00 -0.2648448E-03
 -0.5050505E-02  0.0000000E+00 -0.5050505E-02  0.2593733E-08  0.0000000E+00 -0.2648441E-03
 -0.5050505E-02  0.0000000E+00 -0.5050505E-02  0.4314420E-08  0.0000000E+00 -0.2648426E-03
 -0.5050505E-02  0.0000000E+00 -0.5050505E-02  0.6022769E-08  0.0000000E+00 -0.2648404E-03
 -0.5050505E-02  0.0000000E+00 -0.5050505E-02  0.7713829E-08  0.0000000E+00 -0.2648376E-03
 -0.5050505E-02  0.0000000E+00 -0.5050505E-02  0.9382629E-08  0.0000000E+00 -0.2648340E-03
 -0.5050504E-02  0.0000000E+00 -0.5050505E-02  0.1102423E-07  0.0000000E+00 -0.2648297E-03
 -0.5050501E-02  0.0000000E+00 -0.5050505E-02  0.1263370E-07  0.0000000E+00 -0.2648247E-03
 -0.5050495E-02  0.0000000E+00 -0.5050505E-02  0.1420610E-07  0.0000000E+00 -0.2648191E-03
 -0.5050482E-02  0.0000000E+00 -0.5050505E-02  0.1573653E-07  0.0000000E+00 -0.2648128E-03
 -0.5050449E-02  0.0000000E+00 -0.5050505E-02  0.1722007E-07  0.0000000E+00 -0.2648058E-03
 -0.5050376E-02  0.0000000E+00 -0.5050505E-02  0.1865186E-07  0.0000000E+00 -0.2647983E-03
 -0.5050299E-02  0.0000000E+00 -0.5050505E-02  0.2002706E-07  0.0000000E+00 -0.2647902E-03
 -0.5050178E-02  0.0000000E+00 -0.5050505E-02  0.2134086E-07  0.0000000E+00 -0.2647815E-03
 -0.5050018E-02  0.0000000E+00 -0.5050505E-02  0.2258850E-07  0.0000000E+00 -0.2647723E-03
 -0.5049710E-02  0.0000000E+00 -0.5050505E-02  0.2376531E-07  0.0000000E+00 -0.2647625E-03
 -0.5049253E-02  0.0000000E+00 -0.5050505E-02  0.2486667E-07  0.0000000E+00 -0.2647523E-03
 -0.5048636E-02  0.0000000E+00 -0.5050505E-02  0.2588806E-07  0.0000000E+00 -0.2647416E-03
 -0.5047442E-02  0.0000000E+00 -0.5050505E-02  0.2682508E-07  0.0000000E+00 -0.2647305E-03
 -0.5045727E-02  0.0000000E+00 -0.5050505E-02  0.2767345E-07  0.0000000E+00 -0.2647191E-03
 -0.5043261E-02  0.0000000E+00 -0.5050505E-02  0.2842904E-07  0.0000000E+00 -0.2647073E-03
 -0.5038714E-02  0.0000000E+00 -0.5050505E-02  0.2908790E-07  0.0000000E+00 -0.2646952E-03
 -0.5032318E-02  0.0000000E+00 -0.5050505E-02  0.2964628E-07  0.0000000E+00 -0.2646828E-03
 -0.5022454E-02  0.0000000E+00 -0.5050505E-02  0.3010064E-07  0.0000000E+00 -0.2646703E-03
 -0.5012589E-02  0.0000000E+00 -0.5050505E-02  0.3044770E-07  0.0000000E+00 -0.2646575E-03
 -0.5002725E-02  0.0000000E+00 -0.5050505E-02  0.3068445E-07  0.0000000E+00 -0.2646446E-03
 -0.4992860E-02  0.0000000E+00 -0.5050505E-02  0.3080818E-07  0.0000000E+00 -0.2646317E-03
 -0.4976523E-02  0.0000000E+00 -0.5050505E-02  0.3081654E-07  0.0000000E+00 -0.2646187E-03
 -0.4956794E-02  0.0000000E+00 -0.5050505E-02  0.3070751E-07  0.0000000E+00 -0.2646058E-03
 -0.4937066E-02  0.0000000E+00 -0.5050505E-02  0.3047949E-07  0.0000000E+00 -0.2645929E-03
 -0.4906239E-02  0.0000000E+00 -0.5050505E-02  0.3013129E-07  0.0000000E+00 -0.2645801E-03
 -0.4866782E-02  0.0000000E+00 -0.5050505E-02  0.2966217E-07  0.0000000E+00 -0.2645675E-03
 -0.4827325E-02  0.0000000E+00 -0.5050505E-02  0.2907187E-07  0.0000000E+00 -0.2645552E-03
 -0.4769372E-02  0.0000000E+00 -0.5050505E-02  0.2836064E-07  0.0000000E+00 -0.2645431E-03
 -0.4690458E-02  0.0000000E+00 -0.5050505E-02  0.2752926E-07  0.0000000E+00 -0.2645313E-03
 -0.4611543E-02  0.0000000E+00 -0.5050505E-02  0.2657904E-07  0.0000000E+00 -0.2645199E-03
 -0.4503035E-02  0.0000000E+00 -0.5050505E-02  0.2551187E-07  0.0000000E+00 -0.2645089E-03
 -0.4345206E-02  0.0000000E+00 -0.5050505E-02  0.2433022E-07  0.0000000E+00 -0.2644984E-03
 -0.4187378E-02  0.0000000E+00 -0.5050505E-02  0.2303716E-07  0.0000000E+00 -0.2644884E-03
 -0.3985156E-02  0.0000000E+00 -0.5050505E-02  0.2163634E-07  0.0000000E+00 -0.2644789E-03
 -0.3669499E-02  0.0000000E+00 -0.5050505E-02  0.2013201E-07  0.0000000E+00 -0.2644701E-03
 -0.3353842E-02  0.0000000E+00 -0.5050505E-02  0.1852903E-07  0.0000000E+00 -0.2644620E-03
 -0.2978990E-02  0.0000000E+00 -0.5050505E-02  0.1683282E-07  0.0000000E+00 -0.2644545E-03
 -0.2347676E-02  0.0000000E+00 -0.5050505E-02  0.1504937E-07  0.0000000E+00 -0.2644477E-03
 -0.1716362E-02  0.0000000E+00 -0.5050505E-02  0.1318520E-07  0.0000000E+00 -0.2644418E-03
 -0.1025842E-02  0.0000000E+00 -0.5050505E-02  0.1124735E-07  0.0000000E+00 -0.2644366E-03
  0.2367855E-03  0.0000000E+00 -0.5050505E-02  0.9243304E-08  0.0000000E+00 -0.2644322E-03
  0.1499413E-02  0.0000000E+00 -0.5050505E-02  0.7180976E-08  0.0000000E+00 -0.2644288E-03
  0.2762042E-02  0.0000000E+00 -0.5050505E-02  0.5068624E-08  0.0000000E+00 -0.2644261E-03
 -0.5050505E-02  0.0000000E+00 -0.5050505E-02  0.2914779E-08  0.0000000E+00 -0.2644244E-03
 -0.5050505E-02  0.0000000E+00 -0.5050505E-02  0.7281360E-09  0.0000000E+00 -0.2644236E-03
 -0.5050505E-02  0.0000000E+00 -0.5050505E-02 -0.1482349E-08  0.0000000E+00 -0.2644237E-03
 -0.5050505E-02  0.0000000E+00 -0.5050505E-02 -0.3707803E-08  0.0000000E+00 -0.2644248E-03
 -0.5050505E-02  0.0000000E+00 -0.5050505E-02 -0.5939118E-08  0.0000000E+00 -0.2644268E-03
 -0.5050505E-02  0.0000000E+00 -0.5050505E-02 -0.8167742E-08  0.0000000E+00 -0.2644297E-03
 -0.5050505E-02  0.0000000E+00 -0.5050505E-02 -0.1038525E-07  0.0000000E+00 -0.2644336E-03
 -0.5050504E-02  0.0000000E+00 -0.5050505E-02 -0.1258355E-07  0.0000000E+00 -0.2644384E-03
 -0.5050501E-02  0.0000000E+00 -0.5050505E-02 -0.1475509E-07  0.0000000E+00 -0.2644441E-03
 -0.5050495E-02  0.0000000E+00 -0.5050505E-02 -0.1689297E-07  0.0000000E+00 -0.2644507E-03
 -0.5050482E-02  0.0000000E+00 -0.5050505E-02 -0.1899105E-07  0.0000000E+00 -0.2644582E-03
 -0.5050449E-02  0.0000000E+00 -0.5050505E-02 -0.2104416E-07  0.0000000E+00 -0.2644666E-03
 -0.5050376E-02  0.0000000E+00 -0.5050505E-02 -0.2304820E-07  0.0000000E+00 -0.2644758E-03
 -0.5050299E-02  0.0000000E+00 -0.5050505E-02 -0.2500033E-07  0.0000000E+00 -0.2644859E-03
 -0.5050178E-02  0.0000000E+00 -0.5050505E-02 -0.2689920E-07  0.0000000E+00 -0.2644967E-03
 -0.5050018E-02  0.0000000E+00 -0.5050505E-02 -0.2874509E-07  0.0000000E+00 -0.2645084E-03
 -0.5049710E-02  0.0000000E+00 -0.5050505E-02 -0.3054023E-07  0.0000000E+00 -0.2645208E-03
 -0.5049253E-02  0.0000000E+00 -0.5050505E-02 -0.3228907E-07  0.0000000E+00 -0.2645339E-03
 -0.5048636E-02  0.0000000E+00 -0.5050505E-02 -0.3399860E-07  0.0000000E+00 -0.2645477E-03
 -0.5047442E-02  0.0000000E+00 -0.5050505E-02 -0.3567885E-07  0.0000000E+00 -0.2645623E-03
 -0.5045727E-02  0.0000000E+00 -0.5050505E-02 -0.3734337E-07  0.0000000E+00 -0.2645775E-03
 -0.5043261E-02  0.0000000E+00 -0.5050505E-02 -0.3900995E-07  0.0000000E+00 -0.2645934E-03
 -0.5038714E-02  0.0000000E+00 -0.5050505E-02 -0.4070151E-07  0.0000000E+00 -0.2646099E-03
 -0.5032318E-02  0.0000000E+00 -0.5050505E-02 -0.4244722E-07  0.0000000E+00 -0.2646272E-03
 -0.5022454E-02  0.0000000E+00 -0.5050505E-02 -0.4428405E-07  0.0000000E+00 -0.2646451E-03
 -0.5012589E-02  0.0000000E+00 -0.5050505E-02 -0.4625879E-07  0.0000000E+00 -0.2646638E-03
 -0.5002725E-02  0.0000000E+00 -0.5050505E-02 -0.4843075E-07  0.0000000E+00 -0.2646833E-03
 -0.4992860E-02  0.0000000E+00 -0.5050505E-02 -0.5087548E-07  0.0000000E+00 -0.2647037E-03
 -0.4976523E-02  0.0000000E+00 -0.5050505E-02 -0.5368986E-07  0.0000000E+00 -0.2647251E-03
 -0.4956794E-02  0.0000000E+00 -0.5050505E-02 -0.5699923E-07  0.0000000E+00 -0.2647476E-03
 -0.4937066E-02  0.0000000E+00 -0.5050505E-02 -0.6096741E-07  0.0000000E+00 -0.2647714E-03
 -0.4906239E-02  0.0000000E+00 -0.5050505E-02 -0.6581106E-07  0.0000000E+00 -0.2647969E-03
 -0.4866782E-02  0.0000000E+00 -0.5050505E-02 -0.7182066E-07  0.0000000E+00 -0.2648243E-03
 -0.4827325E-02  0.0000000E+00 -0.5050505E-02 -0.7939141E-07  0.0000000E+00 -0.2648541E-03
 -0.4769372E-02  0.0000000E+00 -0.5050505E-02 -0.8906995E-07  0.0000000E+00 -0.2648868E-03
 -0.4690458E-02  0.0000000E+00 -0.5050505E-02 -0.1016261E-06  0.0000000E+00 -0.2649233E-03
 -0.4611543E-02  0.0000000E+00 -0.5050505E-02 -0.1181655E-06  0.0000000E+00 -0.2649646E-03
 -0.4503035E-02  0.0000000E+00 -0.5050505E-02 -0.1403110E-06  0.0000000E+00 -0.2650120E-03
 -0.4345206E-02  0.0000000E+00 -0.5050505E-02 -0.1705013E-06  0.0000000E+00 -0.2650673E-03
 -0.4187378E-02  0.0000000E+00 -0.5050505E-02 -0.2124959E-06  0.0000000E+00 -0.2651326E-03
 -0.3985156E-02  0.0000000E+00 -0.5050505E-02 -0.2722523E-06  0.0000000E+00 -0.2652110E-03
 -0.3669499E-02  0.0000000E+00 -0.5050505E-02 -0.3594870E-06  0.0000000E+00 -0.2653055E-03
 -0.3353842E-02  0.0000000E+00 -0.5050505E-02 -0.4905128E-06  0.0000000E+00 -0.2654189E-03
 -0.2978990E-02  0.0000000E+00 -0.5050505E-02 -0.6934478E-06  0.0000000E+00 -0.2655503E-03
 -0.2347676E-02  0.0000000E+00 -0.5050505E-02 -0.1017637E-05  0.0000000E+00 -0.2656856E-03
 -0.1716362E-02  0.0000000E+00 -0.5050505E-02 -0.1549397E-05  0.0000000E+00 -0.2657711E-03
 -0.1025842E-02  0.0000000E+00 -0.5050505E-02 -0.2431153E-05  0.0000000E+00 -0.2656406E-03
  0.2367855E-03  0.0000000E+00 -0.5050505E-02 -0.3845801E-05  0.0000000E+00 -0.2648434E-03
  0.1499413E-02  0.0000000E+00 -0.5050505E-02 -0.5745970E-05  0.0000000E+00 -0.2623679E-03
  0.5287294E-02  0.0000000E+00 -0.5050505E-02 -0.6249595E-05  0.0000000E+00 -0.2571574E-03
 -0.5050505E-02  0.0000000E+00 -0.5050505E-02  0.1220176E-08  0.0000000E+00 -0.2644569E-03
 -0.5050505E-02  0.0000000E+00 -0.5050505E-02  0.3656691E-08  0.0000000E+00 -0.2644561E-03
 -0.5050505E-02  0.0000000E+00 -0.5050505E-02  0.6082672E-08  0.0000000E+00 -0.2644546E-03
 -0.5050505E-02  0.0000000E+00 -0.5050505E-02  0.8491303E-08  0.0000000E+00 -0.2644524E-03
 -0.5050505E-02  0.0000000E+00 -0.5050505E-02  0.1087562E-07  0.0000000E+00 -0.2644495E-03
 -0.5050505E-02  0.0000000E+00 -0.5050505E-02  0.1322866E-07  0.0000000E+00 -0.2644458E-03
 -0.5050504E-02  0.0000000E+00 -0.5050505E-02  0.1554348E-07  0.0000000E+00 -0.2644414E-03
 -0.5050501E-02  0.0000000E+00 -0.5050505E-02  0.1781313E-07  0.0000000E+00 -0.2644363E-03
 -0.5050495E-02  0.0000000E+00 -0.5050505E-02  0.2003068E-07  0.0000000E+00 -0.2644305E-03
 -0.5050482E-02  0.0000000E+00 -0.5050505E-02  0.2218923E-07  0.0000000E+00 -0.2644241E-03
 -0.5050449E-02  0.0000000E+00 -0.5050505E-02  0.2428187E-07  0.0000000E+00 -0.2644170E-03
 -0.5050376E-02  0.0000000E+00 -0.5050505E-02  0.2630175E-07  0.0000000E+00 -0.2644093E-03
 -0.5050299E-02  0.0000000E+00 -0.5050505E-02  0.2824205E-07  0.0000000E+00 -0.2644010E-03
 -0.5050178E-02  0.0000000E+00 -0.5050505E-02  0.3009601E-07  0.0000000E+00 -0.2643920E-03
 -0.5050018E-02  0.0000000E+00 -0.5050505E-02  0.3185692E-07  0.0000000E+00 -0.2643826E-03
 -0.5049710E-02  0.0000000E+00 -0.5050505E-02  0.3351817E-07  0.0000000E+00 -0.2643726E-03
 -0.5049253E-02  0.0000000E+00 -0.5050505E-02  0.3507327E-07  0.0000000E+00 -0.2643621E-03
 -0.5048636E-02  0.0000000E+00 -0.5050505E-02  0.3651584E-07  0.0000000E+00 -0.2643512E-03
 -0.5047442E-02  0.0000000E+00 -0.5050505E-02  0.3783966E-07  0.0000000E+00 -0.2643398E-03
 -0.5045727E-02  0.0000000E+00 -0.5050505E-02  0.3903868E-07  0.0000000E+00 -0.2643281E-03
 -0.5043261E-02  0.0000000E+00 -0.5050505E-02  0.4010707E-07  0.0000000E+00 -0.2643160E-03
 -0.5038714E-02  0.0000000E+00 -0.5050505E-02  0.4103924E-07  0.0000000E+00 -0.2643036E-03
 -0.5032318E-02  0.0000000E+00 -0.5050505E-02  0.4182987E-07  0.0000000E+00 -0.2642909E-03
 -0.5022454E-02  0.0000000E+00 -0.5050505E-02  0.4247396E-07  0.0000000E+00 -0.2642780E-03
 -0.5012589E-02  0.0000000E+00 -0.5050505E-02  0.4296684E-07  0.0000000E+00 -0.2642649E-03
 -0.5002725E-02  0.0000000E+00 -0.5050505E-02  0.4330424E-07  0.0000000E+00 -0.2642517E-03
 -0.4992860E-02  0.0000000E+00 -0.5050505E-02  0.4348233E-07  0.0000000E+00 -0.2642384E-03
 -0.4976523E-02  0.0000000E+00 -0.5050505E-02  0.4349772E-07  0.0000000E+00 -0.2642251E-03
 -0.4956794E-02  0.0000000E+00 -0.5050505E-02  0.4334756E-07  0.0000000E+00 -0.2642118E-03
 -0.4937066E-02  0.0000000E+00 -0.5050505E-02  0.4302953E-07  0.0000000E+00 -0.2641985E-03