title = "dataset feddes"
variables = "x", "y", "z", "vx", "vy", "vz"
zone t = "velocities, solution time =  4.000E+01 days        " i =   99, j =   99, k =    1,  f=point
 -0.5050505E-02  0.0000000E+00 -0.5050505E-02  0.2837596E-09  0.0000000E+00 -0.2539839E-03
 -0.5050505E-02  0.0000000E+00 -0.5050505E-02  0.8504911E-09  0.0000000E+00 -0.2539828E-03
 -0.5050505E-02  0.0000000E+00 -0.5050505E-02  0.1414832E-08  0.0000000E+00 -0.2539804E-03
 -0.5050505E-02  0.0000000E+00 -0.5050505E-02  0.1975216E-08  0.0000000E+00 -0.2539769E-03
 -0.5050505E-02  0.0000000E+00 -0.5050505E-02  0.2530050E-08  0.0000000E+00 -0.2539723E-03
 -0.5050505E-02  0.0000000E+00 -0.5050505E-02  0.3077735E-08  0.0000000E+00 -0.2539665E-03
 -0.5050504E-02  0.0000000E+00 -0.5050505E-02  0.3616693E-08  0.0000000E+00 -0.2539596E-03
 -0.5050501E-02  0.0000000E+00 -0.5050505E-02  0.4145335E-08  0.0000000E+00 -0.2539516E-03
 -0.5050495E-02  0.0000000E+00 -0.5050505E-02  0.4662083E-08  0.0000000E+00 -0.2539425E-03
 -0.5050482E-02  0.0000000E+00 -0.5050505E-02  0.5165356E-08  0.0000000E+00 -0.2539324E-03
 -0.5050449E-02  0.0000000E+00 -0.5050505E-02  0.5653578E-08  0.0000000E+00 -0.2539213E-03
 -0.5050376E-02  0.0000000E+00 -0.5050505E-02  0.6125184E-08  0.0000000E+00 -0.2539091E-03
 -0.5050299E-02  0.0000000E+00 -0.5050505E-02  0.6578614E-08  0.0000000E+00 -0.2538960E-03
 -0.5050178E-02  0.0000000E+00 -0.5050505E-02  0.7012320E-08  0.0000000E+00 -0.2538820E-03
 -0.5050018E-02  0.0000000E+00 -0.5050505E-02  0.7424773E-08  0.0000000E+00 -0.2538672E-03
 -0.5049710E-02  0.0000000E+00 -0.5050505E-02  0.7814461E-08  0.0000000E+00 -0.2538514E-03
 -0.5049253E-02  0.0000000E+00 -0.5050505E-02  0.8179897E-08  0.0000000E+00 -0.2538350E-03
 -0.5048636E-02  0.0000000E+00 -0.5050505E-02  0.8519624E-08  0.0000000E+00 -0.2538178E-03
 -0.5047442E-02  0.0000000E+00 -0.5050505E-02  0.8832218E-08  0.0000000E+00 -0.2537999E-03
 -0.5045727E-02  0.0000000E+00 -0.5050505E-02  0.9116298E-08  0.0000000E+00 -0.2537814E-03
 -0.5043261E-02  0.0000000E+00 -0.5050505E-02  0.9370530E-08  0.0000000E+00 -0.2537623E-03
 -0.5038714E-02  0.0000000E+00 -0.5050505E-02  0.9593636E-08  0.0000000E+00 -0.2537428E-03
 -0.5032318E-02  0.0000000E+00 -0.5050505E-02  0.9784399E-08  0.0000000E+00 -0.2537228E-03
 -0.5022454E-02  0.0000000E+00 -0.5050505E-02  0.9941674E-08  0.0000000E+00 -0.2537025E-03
 -0.5012589E-02  0.0000000E+00 -0.5050505E-02  0.1006440E-07  0.0000000E+00 -0.2536819E-03
 -0.5002725E-02  0.0000000E+00 -0.5050505E-02  0.1015159E-07  0.0000000E+00 -0.2536610E-03
 -0.4992860E-02  0.0000000E+00 -0.5050505E-02  0.1020237E-07  0.0000000E+00 -0.2536401E-03
 -0.4976523E-02  0.0000000E+00 -0.5050505E-02  0.1021597E-07  0.0000000E+00 -0.2536190E-03
 -0.4956794E-02  0.0000000E+00 -0.5050505E-02  0.1019173E-07  0.0000000E+00 -0.2535980E-03
 -0.4937066E-02  0.0000000E+00 -0.5050505E-02  0.1012912E-07  0.0000000E+00 -0.2535770E-03
 -0.4906239E-02  0.0000000E+00 -0.5050505E-02  0.1002775E-07  0.0000000E+00 -0.2535563E-03
 -0.4866782E-02  0.0000000E+00 -0.5050505E-02  0.9887365E-08  0.0000000E+00 -0.2535357E-03
 -0.4827325E-02  0.0000000E+00 -0.5050505E-02  0.9707862E-08  0.0000000E+00 -0.2535156E-03
 -0.4769372E-02  0.0000000E+00 -0.5050505E-02  0.9489308E-08  0.0000000E+00 -0.2534958E-03
 -0.4690458E-02  0.0000000E+00 -0.5050505E-02  0.9231932E-08  0.0000000E+00 -0.2534765E-03
 -0.4611543E-02  0.0000000E+00 -0.5050505E-02  0.8936144E-08  0.0000000E+00 -0.2534578E-03
 -0.4503035E-02  0.0000000E+00 -0.5050505E-02  0.8602531E-08  0.0000000E+00 -0.2534397E-03
 -0.4345206E-02  0.0000000E+00 -0.5050505E-02  0.8231870E-08  0.0000000E+00 -0.2534223E-03
 -0.4187378E-02  0.0000000E+00 -0.5050505E-02  0.7825127E-08  0.0000000E+00 -0.2534058E-03
 -0.3985156E-02  0.0000000E+00 -0.5050505E-02  0.7383463E-08  0.0000000E+00 -0.2533901E-03
 -0.3669499E-02  0.0000000E+00 -0.5050505E-02  0.6908233E-08  0.0000000E+00 -0.2533754E-03
 -0.3353842E-02  0.0000000E+00 -0.5050505E-02  0.6400985E-08  0.0000000E+00 -0.2533617E-03
 -0.2978990E-02  0.0000000E+00 -0.5050505E-02  0.5863461E-08  0.0000000E+00 -0.2533490E-03
 -0.2347676E-02  0.0000000E+00 -0.5050505E-02  0.5297589E-08  0.0000000E+00 -0.2533375E-03
 -0.1716362E-02  0.0000000E+00 -0.5050505E-02  0.4705480E-08  0.0000000E+00 -0.2533272E-03
 -0.1025842E-02  0.0000000E+00 -0.5050505E-02  0.4089416E-08  0.0000000E+00 -0.2533182E-03
  0.2367855E-03  0.0000000E+00 -0.5050505E-02  0.3451845E-08  0.0000000E+00 -0.2533104E-03
  0.1499413E-02  0.0000000E+00 -0.5050505E-02  0.2795362E-08  0.0000000E+00 -0.2533040E-03
  0.2762042E-02  0.0000000E+00 -0.5050505E-02  0.2122698E-08  0.0000000E+00 -0.2532989E-03
 -0.5050505E-02  0.0000000E+00 -0.5050505E-02  0.1436702E-08  0.0000000E+00 -0.2532952E-03
 -0.5050505E-02  0.0000000E+00 -0.5050505E-02  0.7403219E-09  0.0000000E+00 -0.2532930E-03
 -0.5050505E-02  0.0000000E+00 -0.5050505E-02  0.3658253E-10  0.0000000E+00 -0.2532922E-03
 -0.5050505E-02  0.0000000E+00 -0.5050505E-02 -0.6714715E-09  0.0000000E+00 -0.2532928E-03
 -0.5050505E-02  0.0000000E+00 -0.5050505E-02 -0.1380718E-08  0.0000000E+00 -0.2532949E-03
 -0.5050505E-02  0.0000000E+00 -0.5050505E-02 -0.2088122E-08  0.0000000E+00 -0.2532985E-03
 -0.5050505E-02  0.0000000E+00 -0.5050505E-02 -0.2790631E-08  0.0000000E+00 -0.2533035E-03
 -0.5050504E-02  0.0000000E+00 -0.5050505E-02 -0.3485270E-08  0.0000000E+00 -0.2533100E-03
 -0.5050501E-02  0.0000000E+00 -0.5050505E-02 -0.4169202E-08  0.0000000E+00 -0.2533179E-03
 -0.5050495E-02  0.0000000E+00 -0.5050505E-02 -0.4839736E-08  0.0000000E+00 -0.2533272E-03
 -0.5050482E-02  0.0000000E+00 -0.5050505E-02 -0.5494365E-08  0.0000000E+00 -0.2533378E-03
 -0.5050449E-02  0.0000000E+00 -0.5050505E-02 -0.6130814E-08  0.0000000E+00 -0.2533498E-03
 -0.5050376E-02  0.0000000E+00 -0.5050505E-02 -0.6747083E-08  0.0000000E+00 -0.2533631E-03
 -0.5050299E-02  0.0000000E+00 -0.5050505E-02 -0.7341486E-08  0.0000000E+00 -0.2533776E-03
 -0.5050178E-02  0.0000000E+00 -0.5050505E-02 -0.7912708E-08  0.0000000E+00 -0.2533933E-03
 -0.5050018E-02  0.0000000E+00 -0.5050505E-02 -0.8459848E-08  0.0000000E+00 -0.2534102E-03
 -0.5049710E-02  0.0000000E+00 -0.5050505E-02 -0.8982483E-08  0.0000000E+00 -0.2534282E-03
 -0.5049253E-02  0.0000000E+00 -0.5050505E-02 -0.9480732E-08  0.0000000E+00 -0.2534472E-03
 -0.5048636E-02  0.0000000E+00 -0.5050505E-02 -0.9955330E-08  0.0000000E+00 -0.2534672E-03
 -0.5047442E-02  0.0000000E+00 -0.5050505E-02 -0.1040772E-07  0.0000000E+00 -0.2534882E-03
 -0.5045727E-02  0.0000000E+00 -0.5050505E-02 -0.1084017E-07  0.0000000E+00 -0.2535101E-03
 -0.5043261E-02  0.0000000E+00 -0.5050505E-02 -0.1125591E-07  0.0000000E+00 -0.2535329E-03
 -0.5038714E-02  0.0000000E+00 -0.5050505E-02 -0.1165932E-07  0.0000000E+00 -0.2535565E-03
 -0.5032318E-02  0.0000000E+00 -0.5050505E-02 -0.1205617E-07  0.0000000E+00 -0.2535809E-03
 -0.5022454E-02  0.0000000E+00 -0.5050505E-02 -0.1245392E-07  0.0000000E+00 -0.2536062E-03
 -0.5012589E-02  0.0000000E+00 -0.5050505E-02 -0.1286217E-07  0.0000000E+00 -0.2536323E-03
 -0.5002725E-02  0.0000000E+00 -0.5050505E-02 -0.1329323E-07  0.0000000E+00 -0.2536592E-03
 -0.4992860E-02  0.0000000E+00 -0.5050505E-02 -0.1376291E-07  0.0000000E+00 -0.2536871E-03
 -0.4976523E-02  0.0000000E+00 -0.5050505E-02 -0.1429163E-07  0.0000000E+00 -0.2537160E-03
 -0.4956794E-02  0.0000000E+00 -0.5050505E-02 -0.1490598E-07  0.0000000E+00 -0.2537461E-03
 -0.4937066E-02  0.0000000E+00 -0.5050505E-02 -0.1564098E-07  0.0000000E+00 -0.2537776E-03
 -0.4906239E-02  0.0000000E+00 -0.5050505E-02 -0.1654333E-07  0.0000000E+00 -0.2538108E-03
 -0.4866782E-02  0.0000000E+00 -0.5050505E-02 -0.1767626E-07  0.0000000E+00 -0.2538460E-03
 -0.4827325E-02  0.0000000E+00 -0.5050505E-02 -0.1912687E-07  0.0000000E+00 -0.2538840E-03
 -0.4769372E-02  0.0000000E+00 -0.5050505E-02 -0.2101746E-07  0.0000000E+00 -0.2539253E-03
 -0.4690458E-02  0.0000000E+00 -0.5050505E-02 -0.2352355E-07  0.0000000E+00 -0.2539712E-03
 -0.4611543E-02  0.0000000E+00 -0.5050505E-02 -0.2690320E-07  0.0000000E+00 -0.2540232E-03
 -0.4503035E-02  0.0000000E+00 -0.5050505E-02 -0.3154654E-07  0.0000000E+00 -0.2540834E-03
 -0.4345206E-02  0.0000000E+00 -0.5050505E-02 -0.3806226E-07  0.0000000E+00 -0.2541552E-03
 -0.4187378E-02  0.0000000E+00 -0.5050505E-02 -0.4743513E-07  0.0000000E+00 -0.2542433E-03
 -0.3985156E-02  0.0000000E+00 -0.5050505E-02 -0.6132749E-07  0.0000000E+00 -0.2543554E-03
 -0.3669499E-02  0.0000000E+00 -0.5050505E-02 -0.8268887E-07  0.0000000E+00 -0.2545038E-03
 -0.3353842E-02  0.0000000E+00 -0.5050505E-02 -0.1170722E-06  0.0000000E+00 -0.2547097E-03
 -0.2978990E-02  0.0000000E+00 -0.5050505E-02 -0.1756957E-06  0.0000000E+00 -0.2550114E-03
 -0.2347676E-02  0.0000000E+00 -0.5050505E-02 -0.2831934E-06  0.0000000E+00 -0.2554844E-03
 -0.1716362E-02  0.0000000E+00 -0.5050505E-02 -0.4991206E-06  0.0000000E+00 -0.2562908E-03
 -0.1025842E-02  0.0000000E+00 -0.5050505E-02 -0.9835856E-06  0.0000000E+00 -0.2578193E-03
  0.2367855E-03  0.0000000E+00 -0.5050505E-02 -0.2217069E-05  0.0000000E+00 -0.2611193E-03
  0.1499413E-02  0.0000000E+00 -0.5050505E-02 -0.5802327E-05  0.0000000E+00 -0.2693916E-03
  0.5287294E-02  0.0000000E+00 -0.5050505E-02 -0.9496167E-04  0.0000000E+00 -0.2150159E-03
 -0.5050505E-02  0.0000000E+00 -0.5050505E-02  0.8528557E-09  0.0000000E+00 -0.2538565E-03
 -0.5050505E-02  0.0000000E+00 -0.5050505E-02  0.2556215E-08  0.0000000E+00 -0.2538554E-03
 -0.5050505E-02  0.0000000E+00 -0.5050505E-02  0.4252405E-08  0.0000000E+00 -0.2538530E-03
 -0.5050505E-02  0.0000000E+00 -0.5050505E-02  0.5936699E-08  0.0000000E+00 -0.2538495E-03
 -0.5050505E-02  0.0000000E+00 -0.5050505E-02  0.7604325E-08  0.0000000E+00 -0.2538448E-03
 -0.5050505E-02  0.0000000E+00 -0.5050505E-02  0.9250492E-08  0.0000000E+00 -0.2538390E-03
 -0.5050504E-02  0.0000000E+00 -0.5050505E-02  0.1087045E-07  0.0000000E+00 -0.2538320E-03
 -0.5050501E-02  0.0000000E+00 -0.5050505E-02  0.1245944E-07  0.0000000E+00 -0.2538240E-03
 -0.5050495E-02  0.0000000E+00 -0.5050505E-02  0.1401270E-07  0.0000000E+00 -0.2538148E-03
 -0.5050482E-02  0.0000000E+00 -0.5050505E-02  0.1552550E-07  0.0000000E+00 -0.2538046E-03
 -0.5050449E-02  0.0000000E+00 -0.5050505E-02  0.1699309E-07  0.0000000E+00 -0.2537934E-03
 -0.5050376E-02  0.0000000E+00 -0.5050505E-02  0.1841079E-07  0.0000000E+00 -0.2537811E-03
 -0.5050299E-02  0.0000000E+00 -0.5050505E-02  0.1977389E-07  0.0000000E+00 -0.2537680E-03
 -0.5050178E-02  0.0000000E+00 -0.5050505E-02  0.2107775E-07  0.0000000E+00 -0.2537538E-03
 -0.5050018E-02  0.0000000E+00 -0.5050505E-02  0.2231778E-07  0.0000000E+00 -0.2537388E-03
 -0.5049710E-02  0.0000000E+00 -0.5050505E-02  0.2348943E-07  0.0000000E+00 -0.2537230E-03
 -0.5049253E-02  0.0000000E+00 -0.5050505E-02  0.2458822E-07  0.0000000E+00 -0.2537064E-03
 -0.5048636E-02  0.0000000E+00 -0.5050505E-02  0.2560979E-07  0.0000000E+00 -0.2536890E-03
 -0.5047442E-02  0.0000000E+00 -0.5050505E-02  0.2654984E-07  0.0000000E+00 -0.2536710E-03
 -0.5045727E-02  0.0000000E+00 -0.5050505E-02  0.2740423E-07  0.0000000E+00 -0.2536524E-03
 -0.5043261E-02  0.0000000E+00 -0.5050505E-02  0.2816894E-07  0.0000000E+00 -0.2536332E-03
 -0.5038714E-02  0.0000000E+00 -0.5050505E-02  0.2884012E-07  0.0000000E+00 -0.2536135E-03
 -0.5032318E-02  0.0000000E+00 -0.5050505E-02  0.2941412E-07  0.0000000E+00 -0.2535933E-03
 -0.5022454E-02  0.0000000E+00 -0.5050505E-02  0.2988749E-07  0.0000000E+00 -0.2535728E-03
 -0.5012589E-02  0.0000000E+00 -0.5050505E-02  0.3025703E-07  0.0000000E+00 -0.2535520E-03
 -0.5002725E-02  0.0000000E+00 -0.5050505E-02  0.3051978E-07  0.0000000E+00 -0.2535310E-03
 -0.4992860E-02  0.0000000E+00 -0.5050505E-02  0.3067310E-07  0.0000000E+00 -0.2535099E-03
 -0.4976523E-02  0.0000000E+00 -0.5050505E-02  0.3071466E-07  0.0000000E+00 -0.2534886E-03
 -0.4956794E-02  0.0000000E+00 -0.5050505E-02  0.3064248E-07  0.0000000E+00 -0.2534674E-03
 -0.4937066E-02  0.0000000E+00 -0.5050505E-02  0.3045496E-07  0.0000000E+00 -0.2534463E-03
 -0.4906239E-02  0.0000000E+00 -0.5050505E-02  0.3015090E-07  0.0000000E+00 -0.2534254E-03
 -0.4866782E-02  0.0000000E+00 -0.5050505E-02  0.2972954E-07  0.0000000E+00 -0.2534046E-03
 -0.4827325E-02  0.0000000E+00 -0.5050505E-02  0.2919058E-07  0.0000000E+00 -0.2533843E-03
 -0.4769372E-02  0.0000000E+00 -0.5050505E-02  0.2853419E-07  0.0000000E+00 -0.2533643E-03
 -0.4690458E-02  0.0000000E+00 -0.5050505E-02  0.2776107E-07  0.0000000E+00 -0.2533448E-03
 -0.4611543E-02  0.0000000E+00 -0.5050505E-02  0.2687242E-07  0.0000000E+00 -0.2533259E-03
 -0.4503035E-02  0.0000000E+00 -0.5050505E-02  0.2587002E-07  0.0000000E+00 -0.2533077E-03
 -0.4345206E-02  0.0000000E+00 -0.5050505E-02  0.2475618E-07  0.0000000E+00 -0.2532902E-03
 -0.4187378E-02  0.0000000E+00 -0.5050505E-02  0.2353382E-07  0.0000000E+00 -0.2532735E-03
 -0.3985156E-02  0.0000000E+00 -0.5050505E-02  0.2220640E-07  0.0000000E+00 -0.2532577E-03
 -0.3669499E-02  0.0000000E+00 -0.5050505E-02  0.2077801E-07  0.0000000E+00 -0.2532428E-03
 -0.3353842E-02  0.0000000E+00 -0.5050505E-02  0.1925329E-07  0.0000000E+00 -0.2532289E-03
 -0.2978990E-02  0.0000000E+00 -0.5050505E-02  0.1763747E-07  0.0000000E+00 -0.2532162E-03
 -0.2347676E-02  0.0000000E+00 -0.5050505E-02  0.1593636E-07  0.0000000E+00 -0.2532046E-03
 -0.1716362E-02  0.0000000E+00 -0.5050505E-02  0.1415629E-07  0.0000000E+00 -0.2531941E-03
 -0.1025842E-02  0.0000000E+00 -0.5050505E-02  0.1230413E-07  0.0000000E+00 -0.2531850E-03
  0.2367855E-03  0.0000000E+00 -0.5050505E-02  0.1038724E-07  0.0000000E+00 -0.2531771E-03
  0.1499413E-02  0.0000000E+00 -0.5050505E-02  0.8413433E-08  0.0000000E+00 -0.2531706E-03
  0.2762042E-02  0.0000000E+00 -0.5050505E-02  0.6390919E-08  0.0000000E+00 -0.2531655E-03
 -0.5050505E-02  0.0000000E+00 -0.5050505E-02  0.4328276E-08  0.0000000E+00 -0.2531618E-03
 -0.5050505E-02  0.0000000E+00 -0.5050505E-02  0.2234382E-08  0.0000000E+00 -0.2531595E-03
 -0.5050505E-02  0.0000000E+00 -0.5050505E-02  0.1183551E-09  0.0000000E+00 -0.2531587E-03
 -0.5050505E-02  0.0000000E+00 -0.5050505E-02 -0.2010664E-08  0.0000000E+00 -0.2531593E-03
 -0.5050505E-02  0.0000000E+00 -0.5050505E-02 -0.4143264E-08  0.0000000E+00 -0.2531614E-03
 -0.5050505E-02  0.0000000E+00 -0.5050505E-02 -0.6270254E-08  0.0000000E+00 -0.2531650E-03
 -0.5050505E-02  0.0000000E+00 -0.5050505E-02 -0.8382470E-08  0.0000000E+00 -0.2531701E-03
 -0.5050504E-02  0.0000000E+00 -0.5050505E-02 -0.1047095E-07  0.0000000E+00 -0.2531766E-03
 -0.5050501E-02  0.0000000E+00 -0.5050505E-02 -0.1252711E-07  0.0000000E+00 -0.2531845E-03
 -0.5050495E-02  0.0000000E+00 -0.5050505E-02 -0.1454283E-07  0.0000000E+00 -0.2531939E-03
 -0.5050482E-02  0.0000000E+00 -0.5050505E-02 -0.1651056E-07  0.0000000E+00 -0.2532046E-03
 -0.5050449E-02  0.0000000E+00 -0.5050505E-02 -0.1842340E-07  0.0000000E+00 -0.2532166E-03
 -0.5050376E-02  0.0000000E+00 -0.5050505E-02 -0.2027530E-07  0.0000000E+00 -0.2532300E-03
 -0.5050299E-02  0.0000000E+00 -0.5050505E-02 -0.2206114E-07  0.0000000E+00 -0.2532446E-03
 -0.5050178E-02  0.0000000E+00 -0.5050505E-02 -0.2377692E-07  0.0000000E+00 -0.2532605E-03
 -0.5050018E-02  0.0000000E+00 -0.5050505E-02 -0.2541987E-07  0.0000000E+00 -0.2532775E-03
 -0.5049710E-02  0.0000000E+00 -0.5050505E-02 -0.2698865E-07  0.0000000E+00 -0.2532956E-03
 -0.5049253E-02  0.0000000E+00 -0.5050505E-02 -0.2848352E-07  0.0000000E+00 -0.2533147E-03
 -0.5048636E-02  0.0000000E+00 -0.5050505E-02 -0.2990659E-07  0.0000000E+00 -0.2533349E-03
 -0.5047442E-02  0.0000000E+00 -0.5050505E-02 -0.3126207E-07  0.0000000E+00 -0.2533560E-03
 -0.5045727E-02  0.0000000E+00 -0.5050505E-02 -0.3255661E-07  0.0000000E+00 -0.2533780E-03
 -0.5043261E-02  0.0000000E+00 -0.5050505E-02 -0.3379972E-07  0.0000000E+00 -0.2534009E-03
 -0.5038714E-02  0.0000000E+00 -0.5050505E-02 -0.3500428E-07  0.0000000E+00 -0.2534246E-03
 -0.5032318E-02  0.0000000E+00 -0.5050505E-02 -0.3618726E-07  0.0000000E+00 -0.2534491E-03
 -0.5022454E-02  0.0000000E+00 -0.5050505E-02 -0.3737064E-07  0.0000000E+00 -0.2534745E-03
 -0.5012589E-02  0.0000000E+00 -0.5050505E-02 -0.3858264E-07  0.0000000E+00 -0.2535006E-03
 -0.5002725E-02  0.0000000E+00 -0.5050505E-02 -0.3985935E-07  0.0000000E+00 -0.2535276E-03
 -0.4992860E-02  0.0000000E+00 -0.5050505E-02 -0.4124710E-07  0.0000000E+00 -0.2535555E-03
 -0.4976523E-02  0.0000000E+00 -0.5050505E-02 -0.4280558E-07  0.0000000E+00 -0.2535843E-03
 -0.4956794E-02  0.0000000E+00 -0.5050505E-02 -0.4461234E-07  0.0000000E+00 -0.2536143E-03
 -0.4937066E-02  0.0000000E+00 -0.5050505E-02 -0.4676916E-07  0.0000000E+00 -0.2536456E-03
 -0.4906239E-02  0.0000000E+00 -0.5050505E-02 -0.4941134E-07  0.0000000E+00 -0.2536785E-03
 -0.4866782E-02  0.0000000E+00 -0.5050505E-02 -0.5272129E-07  0.0000000E+00 -0.2537133E-03
 -0.4827325E-02  0.0000000E+00 -0.5050505E-02 -0.5694909E-07  0.0000000E+00 -0.2537505E-03
 -0.4769372E-02  0.0000000E+00 -0.5050505E-02 -0.6244386E-07  0.0000000E+00 -0.2537909E-03
 -0.4690458E-02  0.0000000E+00 -0.5050505E-02 -0.6970317E-07  0.0000000E+00 -0.2538354E-03
 -0.4611543E-02  0.0000000E+00 -0.5050505E-02 -0.7945255E-07  0.0000000E+00 -0.2538853E-03
 -0.4503035E-02  0.0000000E+00 -0.5050505E-02 -0.9277746E-07  0.0000000E+00 -0.2539424E-03
 -0.4345206E-02  0.0000000E+00 -0.5050505E-02 -0.1113494E-06  0.0000000E+00 -0.2540095E-03
 -0.4187378E-02  0.0000000E+00 -0.5050505E-02 -0.1378275E-06  0.0000000E+00 -0.2540902E-03
 -0.3985156E-02  0.0000000E+00 -0.5050505E-02 -0.1766029E-06  0.0000000E+00 -0.2541903E-03
 -0.3669499E-02  0.0000000E+00 -0.5050505E-02 -0.2352390E-06  0.0000000E+00 -0.2543182E-03
 -0.3353842E-02  0.0000000E+00 -0.5050505E-02 -0.3274084E-06  0.0000000E+00 -0.2544868E-03
 -0.2978990E-02  0.0000000E+00 -0.5050505E-02 -0.4792148E-06  0.0000000E+00 -0.2547154E-03
 -0.2347676E-02  0.0000000E+00 -0.5050505E-02 -0.7436262E-06  0.0000000E+00 -0.2550308E-03
 -0.1716362E-02  0.0000000E+00 -0.5050505E-02 -0.1235466E-05  0.0000000E+00 -0.2554599E-03
 -0.1025842E-02  0.0000000E+00 -0.5050505E-02 -0.2221351E-05  0.0000000E+00 -0.2559701E-03
  0.2367855E-03  0.0000000E+00 -0.5050505E-02 -0.4363416E-05  0.0000000E+00 -0.2561678E-03
  0.1499413E-02  0.0000000E+00 -0.5050505E-02 -0.9408160E-05  0.0000000E+00 -0.2538571E-03
  0.5287294E-02  0.0000000E+00 -0.5050505E-02 -0.2218296E-04  0.0000000E+00 -0.2382840E-03
 -0.5050505E-02  0.0000000E+00 -0.5050505E-02  0.1427243E-08  0.0000000E+00 -0.2536058E-03
 -0.5050505E-02  0.0000000E+00 -0.5050505E-02  0.4277803E-08  0.0000000E+00 -0.2536046E-03
 -0.5050505E-02  0.0000000E+00 -0.5050505E-02  0.7116413E-08  0.0000000E+00 -0.2536023E-03
 -0.5050505E-02  0.0000000E+00 -0.5050505E-02  0.9935121E-08  0.0000000E+00 -0.2535987E-03
 -0.5050505E-02  0.0000000E+00 -0.5050505E-02  0.1272599E-07  0.0000000E+00 -0.2535939E-03
 -0.5050505E-02  0.0000000E+00 -0.5050505E-02  0.1548102E-07  0.0000000E+00 -0.2535880E-03
 -0.5050504E-02  0.0000000E+00 -0.5050505E-02  0.1819228E-07  0.0000000E+00 -0.2535810E-03
 -0.5050501E-02  0.0000000E+00 -0.5050505E-02  0.2085179E-07  0.0000000E+00 -0.2535728E-03
 -0.5050495E-02  0.0000000E+00 -0.5050505E-02  0.2345162E-07  0.0000000E+00 -0.2535635E-03
 -0.5050482E-02  0.0000000E+00 -0.5050505E-02  0.2598385E-07  0.0000000E+00 -0.2535531E-03
 -0.5050449E-02  0.0000000E+00 -0.5050505E-02  0.2844055E-07  0.0000000E+00 -0.2535417E-03
 -0.5050376E-02  0.0000000E+00 -0.5050505E-02  0.3081387E-07  0.0000000E+00 -0.2535293E-03
 -0.5050299E-02  0.0000000E+00 -0.5050505E-02  0.3309596E-07  0.0000000E+00 -0.2535159E-03
 -0.5050178E-02  0.0000000E+00 -0.5050505E-02  0.3527906E-07  0.0000000E+00 -0.2535016E-03
 -0.5050018E-02  0.0000000E+00 -0.5050505E-02  0.3735546E-07  0.0000000E+00 -0.2534863E-03
 -0.5049710E-02  0.0000000E+00 -0.5050505E-02  0.3931757E-07  0.0000000E+00 -0.2534702E-03
 -0.5049253E-02  0.0000000E+00 -0.5050505E-02  0.4115790E-07  0.0000000E+00 -0.2534534E-03
 -0.5048636E-02  0.0000000E+00 -0.5050505E-02  0.4286912E-07  0.0000000E+00 -0.2534357E-03
 -0.5047442E-02  0.0000000E+00 -0.5050505E-02  0.4444406E-07  0.0000000E+00 -0.2534174E-03
 -0.5045727E-02  0.0000000E+00 -0.5050505E-02  0.4587575E-07  0.0000000E+00 -0.2533985E-03
 -0.5043261E-02  0.0000000E+00 -0.5050505E-02  0.4715747E-07  0.0000000E+00 -0.2533790E-03
 -0.5038714E-02  0.0000000E+00 -0.5050505E-02  0.4828278E-07  0.0000000E+00 -0.2533589E-03
 -0.5032318E-02  0.0000000E+00 -0.5050505E-02  0.4924553E-07  0.0000000E+00 -0.2533385E-03
 -0.5022454E-02  0.0000000E+00 -0.5050505E-02  0.5003994E-07  0.0000000E+00 -0.2533176E-03
 -0.5012589E-02  0.0000000E+00 -0.5050505E-02  0.5066062E-07  0.0000000E+00 -0.2532965E-03
 -0.5002725E-02  0.0000000E+00 -0.5050505E-02  0.5110264E-07  0.0000000E+00 -0.2532751E-03
 -0.4992860E-02  0.0000000E+00 -0.5050505E-02  0.5136153E-07  0.0000000E+00 -0.2532536E-03
 -0.4976523E-02  0.0000000E+00 -0.5050505E-02  0.5143337E-07  0.0000000E+00 -0.2532320E-03
 -0.4956794E-02  0.0000000E+00 -0.5050505E-02  0.5131482E-07  0.0000000E+00 -0.2532105E-03
 -0.4937066E-02  0.0000000E+00 -0.5050505E-02  0.5100319E-07  0.0000000E+00 -0.2531890E-03
 -0.4906239E-02  0.0000000E+00 -0.5050505E-02  0.5049644E-07  0.0000000E+00 -0.2531677E-03
 -0.4866782E-02  0.0000000E+00 -0.5050505E-02  0.4979327E-07  0.0000000E+00 -0.2531466E-03
 -0.4827325E-02  0.0000000E+00 -0.5050505E-02  0.4889314E-07  0.0000000E+00 -0.2531259E-03
 -0.4769372E-02  0.0000000E+00 -0.5050505E-02  0.4779632E-07  0.0000000E+00 -0.2531055E-03
 -0.4690458E-02  0.0000000E+00 -0.5050505E-02  0.4650396E-07  0.0000000E+00 -0.2530857E-03
 -0.4611543E-02  0.0000000E+00 -0.5050505E-02  0.4501805E-07  0.0000000E+00 -0.2530665E-03
 -0.4503035E-02  0.0000000E+00 -0.5050505E-02  0.4334152E-07  0.0000000E+00 -0.2530479E-03
 -0.4345206E-02  0.0000000E+00 -0.5050505E-02  0.4147825E-07  0.0000000E+00 -0.2530301E-03
 -0.4187378E-02  0.0000000E+00 -0.5050505E-02  0.3943307E-07  0.0000000E+00 -0.2530131E-03
 -0.3985156E-02  0.0000000E+00 -0.5050505E-02  0.3721179E-07  0.0000000E+00 -0.2529969E-03
 -0.3669499E-02  0.0000000E+00 -0.5050505E-02  0.3482121E-07  0.0000000E+00 -0.2529818E-03
 -0.3353842E-02  0.0000000E+00 -0.5050505E-02  0.3226910E-07  0.0000000E+00 -0.2529677E-03
 -0.2978990E-02  0.0000000E+00 -0.5050505E-02  0.2956422E-07  0.0000000E+00 -0.2529546E-03
 -0.2347676E-02  0.0000000E+00 -0.5050505E-02  0.2671626E-07  0.0000000E+00 -0.2529428E-03
 -0.1716362E-02  0.0000000E+00 -0.5050505E-02  0.2373585E-07  0.0000000E+00 -0.2529321E-03
 -0.1025842E-02  0.0000000E+00 -0.5050505E-02  0.2063448E-07  0.0000000E+00 -0.2529228E-03
  0.2367855E-03  0.0000000E+00 -0.5050505E-02  0.1742450E-07  0.0000000E+00 -0.2529148E-03
  0.1499413E-02  0.0000000E+00 -0.5050505E-02  0.1411899E-07  0.0000000E+00 -0.2529081E-03
  0.2762042E-02  0.0000000E+00 -0.5050505E-02  0.1073174E-07  0.0000000E+00 -0.2529029E-03
 -0.5050505E-02  0.0000000E+00 -0.5050505E-02  0.7277145E-08  0.0000000E+00 -0.2528990E-03
 -0.5050505E-02  0.0000000E+00 -0.5050505E-02  0.3770089E-08  0.0000000E+00 -0.2528967E-03
 -0.5050505E-02  0.0000000E+00 -0.5050505E-02  0.2259251E-09  0.0000000E+00 -0.2528958E-03
 -0.5050505E-02  0.0000000E+00 -0.5050505E-02 -0.3340015E-08  0.0000000E+00 -0.2528964E-03
 -0.5050505E-02  0.0000000E+00 -0.5050505E-02 -0.6911937E-08  0.0000000E+00 -0.2528985E-03
 -0.5050505E-02  0.0000000E+00 -0.5050505E-02 -0.1047428E-07  0.0000000E+00 -0.2529022E-03
 -0.5050505E-02  0.0000000E+00 -0.5050505E-02 -0.1401168E-07  0.0000000E+00 -0.2529073E-03
 -0.5050504E-02  0.0000000E+00 -0.5050505E-02 -0.1750905E-07  0.0000000E+00 -0.2529139E-03
 -0.5050501E-02  0.0000000E+00 -0.5050505E-02 -0.2095192E-07  0.0000000E+00 -0.2529219E-03
 -0.5050495E-02  0.0000000E+00 -0.5050505E-02 -0.2432657E-07  0.0000000E+00 -0.2529314E-03
 -0.5050482E-02  0.0000000E+00 -0.5050505E-02 -0.2762022E-07  0.0000000E+00 -0.2529423E-03
 -0.5050449E-02  0.0000000E+00 -0.5050505E-02 -0.3082122E-07  0.0000000E+00 -0.2529545E-03
 -0.5050376E-02  0.0000000E+00 -0.5050505E-02 -0.3391927E-07  0.0000000E+00 -0.2529680E-03
 -0.5050299E-02  0.0000000E+00 -0.5050505E-02 -0.3690568E-07  0.0000000E+00 -0.2529829E-03
 -0.5050178E-02  0.0000000E+00 -0.5050505E-02 -0.3977354E-07  0.0000000E+00 -0.2529989E-03
 -0.5050018E-02  0.0000000E+00 -0.5050505E-02 -0.4251803E-07  0.0000000E+00 -0.2530162E-03
 -0.5049710E-02  0.0000000E+00 -0.5050505E-02 -0.4513666E-07  0.0000000E+00 -0.2530345E-03
 -0.5049253E-02  0.0000000E+00 -0.5050505E-02 -0.4762959E-07  0.0000000E+00 -0.2530539E-03
 -0.5048636E-02  0.0000000E+00 -0.5050505E-02 -0.5000001E-07  0.0000000E+00 -0.2530743E-03
 -0.5047442E-02  0.0000000E+00 -0.5050505E-02 -0.5225455E-07  0.0000000E+00 -0.2530957E-03
 -0.5045727E-02  0.0000000E+00 -0.5050505E-02 -0.5440381E-07  0.0000000E+00 -0.2531179E-03
 -0.5043261E-02  0.0000000E+00 -0.5050505E-02 -0.5646299E-07  0.0000000E+00 -0.2531411E-03
 -0.5038714E-02  0.0000000E+00 -0.5050505E-02 -0.5845280E-07  0.0000000E+00 -0.2531650E-03
 -0.5032318E-02  0.0000000E+00 -0.5050505E-02 -0.6040049E-07  0.0000000E+00 -0.2531897E-03
 -0.5022454E-02  0.0000000E+00 -0.5050505E-02 -0.6234128E-07  0.0000000E+00 -0.2532152E-03
 -0.5012589E-02  0.0000000E+00 -0.5050505E-02 -0.6432033E-07  0.0000000E+00 -0.2532415E-03
 -0.5002725E-02  0.0000000E+00 -0.5050505E-02 -0.6639528E-07  0.0000000E+00 -0.2532686E-03
 -0.4992860E-02  0.0000000E+00 -0.5050505E-02 -0.6863978E-07  0.0000000E+00 -0.2532965E-03
 -0.4976523E-02  0.0000000E+00 -0.5050505E-02 -0.7114833E-07  0.0000000E+00 -0.2533252E-03
 -0.4956794E-02  0.0000000E+00 -0.5050505E-02 -0.7404312E-07  0.0000000E+00 -0.2533550E-03
 -0.4937066E-02  0.0000000E+00 -0.5050505E-02 -0.7748353E-07  0.0000000E+00 -0.2533859E-03
 -0.4906239E-02  0.0000000E+00 -0.5050505E-02 -0.8167996E-07  0.0000000E+00 -0.2534181E-03
 -0.4866782E-02  0.0000000E+00 -0.5050505E-02 -0.8691382E-07  0.0000000E+00 -0.2534521E-03
 -0.4827325E-02  0.0000000E+00 -0.5050505E-02 -0.9356714E-07  0.0000000E+00 -0.2534880E-03
 -0.4769372E-02  0.0000000E+00 -0.5050505E-02 -0.1021673E-06  0.0000000E+00 -0.2535266E-03
 -0.4690458E-02  0.0000000E+00 -0.5050505E-02 -0.1134559E-06  0.0000000E+00 -0.2535684E-03
 -0.4611543E-02  0.0000000E+00 -0.5050505E-02 -0.1284964E-06  0.0000000E+00 -0.2536145E-03
 -0.4503035E-02  0.0000000E+00 -0.5050505E-02 -0.1488480E-06  0.0000000E+00 -0.2536661E-03
 -0.4345206E-02  0.0000000E+00 -0.5050505E-02 -0.1768518E-06  0.0000000E+00 -0.2537248E-03
 -0.4187378E-02  0.0000000E+00 -0.5050505E-02 -0.2161146E-06  0.0000000E+00 -0.2537928E-03
 -0.3985156E-02  0.0000000E+00 -0.5050505E-02 -0.2723486E-06  0.0000000E+00 -0.2538727E-03
 -0.3669499E-02  0.0000000E+00 -0.5050505E-02 -0.3548667E-06  0.0000000E+00 -0.2539677E-03
 -0.3353842E-02  0.0000000E+00 -0.5050505E-02 -0.4792990E-06  0.0000000E+00 -0.2540803E-03
 -0.2978990E-02  0.0000000E+00 -0.5050505E-02 -0.6725771E-06  0.0000000E+00 -0.2542096E-03
 -0.2347676E-02  0.0000000E+00 -0.5050505E-02 -0.9819473E-06  0.0000000E+00 -0.2543420E-03
 -0.1716362E-02  0.0000000E+00 -0.5050505E-02 -0.1490019E-05  0.0000000E+00 -0.2544261E-03
 -0.1025842E-02  0.0000000E+00 -0.5050505E-02 -0.2333013E-05  0.0000000E+00 -0.2543027E-03
  0.2367855E-03  0.0000000E+00 -0.5050505E-02 -0.3685627E-05  0.0000000E+00 -0.2535407E-03
  0.1499413E-02  0.0000000E+00 -0.5050505E-02 -0.5501683E-05  0.0000000E+00 -0.2511733E-03
  0.5287294E-02  0.0000000E+00 -0.5050505E-02 -0.5979436E-05  0.0000000E+00 -0.2461922E-03
 -0.5050505E-02  0.0000000E+00 -0.5050505E-02  0.2011168E-08  0.0000000E+00 -0.2532358E-03
 -0.5050505E-02  0.0000000E+00 -0.5050505E-02  0.6027964E-08  0.0000000E+00 -0.2532346E-03
 -0.5050505E-02  0.0000000E+00 -0.5050505E-02  0.1002800E-07  0.0000000E+00 -0.2532322E-03
 -0.5050505E-02  0.0000000E+00 -0.5050505E-02  0.1400004E-07  0.0000000E+00 -0.2532285E-03
 -0.5050505E-02  0.0000000E+00 -0.5050505E-02  0.1793297E-07  0.0000000E+00 -0.2532236E-03
 -0.5050505E-02  0.0000000E+00 -0.5050505E-02  0.2181555E-07  0.0000000E+00 -0.2532176E-03
 -0.5050504E-02  0.0000000E+00 -0.5050505E-02  0.2563660E-07  0.0000000E+00 -0.2532104E-03
 -0.5050501E-02  0.0000000E+00 -0.5050505E-02  0.2938494E-07  0.0000000E+00 -0.2532020E-03
 -0.5050495E-02  0.0000000E+00 -0.5050505E-02  0.3304940E-07  0.0000000E+00 -0.2531925E-03
 -0.5050482E-02  0.0000000E+00 -0.5050505E-02  0.3661883E-07  0.0000000E+00 -0.2531819E-03
 -0.5050449E-02  0.0000000E+00 -0.5050505E-02  0.4008209E-07  0.0000000E+00 -0.2531703E-03
 -0.5050376E-02  0.0000000E+00 -0.5050505E-02  0.4342812E-07  0.0000000E+00 -0.2531576E-03
 -0.5050299E-02  0.0000000E+00 -0.5050505E-02  0.4664588E-07  0.0000000E+00 -0.2531438E-03
 -0.5050178E-02  0.0000000E+00 -0.5050505E-02  0.4972444E-07  0.0000000E+00 -0.2531292E-03
 -0.5050018E-02  0.0000000E+00 -0.5050505E-02  0.5265294E-07  0.0000000E+00 -0.2531136E-03
 -0.5049710E-02  0.0000000E+00 -0.5050505E-02  0.5542068E-07  0.0000000E+00 -0.2530971E-03
 -0.5049253E-02  0.0000000E+00 -0.5050505E-02  0.5801710E-07  0.0000000E+00 -0.2530799E-03
 -0.5048636E-02  0.0000000E+00 -0.5050505E-02  0.6043187E-07  0.0000000E+00 -0.2530618E-03
 -0.5047442E-02  0.0000000E+00 -0.5050505E-02  0.6265487E-07  0.0000000E+00 -0.2530431E-03
 -0.5045727E-02  0.0000000E+00 -0.5050505E-02  0.6467627E-07  0.0000000E+00 -0.2530237E-03
 -0.5043261E-02  0.0000000E+00 -0.5050505E-02  0.6648657E-07  0.0000000E+00 -0.2530037E-03
 -0.5038714E-02  0.0000000E+00 -0.5050505E-02  0.6807667E-07  0.0000000E+00 -0.2529832E-03
 -0.5032318E-02  0.0000000E+00 -0.5050505E-02  0.6943787E-07  0.0000000E+00 -0.2529623E-03
 -0.5022454E-02  0.0000000E+00 -0.5050505E-02  0.7056199E-07  0.0000000E+00 -0.2529409E-03
 -0.5012589E-02  0.0000000E+00 -0.5050505E-02  0.7144142E-07  0.0000000E+00 -0.2529193E-03
 -0.5002725E-02  0.0000000E+00 -0.5050505E-02  0.7206912E-07  0.0000000E+00 -0.2528974E-03
 -0.4992860E-02  0.0000000E+00 -0.5050505E-02  0.7243879E-07  0.0000000E+00 -0.2528753E-03
 -0.4976523E-02  0.0000000E+00 -0.5050505E-02  0.7254486E-07  0.0000000E+00 -0.2528532E-03
 -0.4956794E-02  0.0000000E+00 -0.5050505E-02  0.7238255E-07  0.0000000E+00 -0.2528311E-03
 -0.4937066E-02  0.0000000E+00 -0.5050505E-02  0.7194802E-07  0.0000000E+00 -0.2528091E-03