title = "dataset feddes"
variables = "x", "y", "z", "vx", "vy", "vz"
zone t = "velocities, solution time =  4.900E+01 days        " i =   99, j =   99, k =    1,  f=point
 -0.5050505E-02  0.0000000E+00 -0.5050505E-02  0.2019748E-08  0.0000000E+00 -0.2060957E-03
 -0.5050505E-02  0.0000000E+00 -0.5050505E-02  0.6055648E-08  0.0000000E+00 -0.2060874E-03
 -0.5050505E-02  0.0000000E+00 -0.5050505E-02  0.1008072E-07  0.0000000E+00 -0.2060709E-03
 -0.5050505E-02  0.0000000E+00 -0.5050505E-02  0.1408771E-07  0.0000000E+00 -0.2060461E-03
 -0.5050505E-02  0.0000000E+00 -0.5050505E-02  0.1806933E-07  0.0000000E+00 -0.2060132E-03
 -0.5050505E-02  0.0000000E+00 -0.5050505E-02  0.2201820E-07  0.0000000E+00 -0.2059721E-03
 -0.5050504E-02  0.0000000E+00 -0.5050505E-02  0.2592688E-07  0.0000000E+00 -0.2059230E-03
 -0.5050501E-02  0.0000000E+00 -0.5050505E-02  0.2978781E-07  0.0000000E+00 -0.2058659E-03
 -0.5050495E-02  0.0000000E+00 -0.5050505E-02  0.3359329E-07  0.0000000E+00 -0.2058009E-03
 -0.5050482E-02  0.0000000E+00 -0.5050505E-02  0.3733551E-07  0.0000000E+00 -0.2057282E-03
 -0.5050449E-02  0.0000000E+00 -0.5050505E-02  0.4100648E-07  0.0000000E+00 -0.2056479E-03
 -0.5050376E-02  0.0000000E+00 -0.5050505E-02  0.4459805E-07  0.0000000E+00 -0.2055602E-03
 -0.5050299E-02  0.0000000E+00 -0.5050505E-02  0.4810186E-07  0.0000000E+00 -0.2054652E-03
 -0.5050178E-02  0.0000000E+00 -0.5050505E-02  0.5150940E-07  0.0000000E+00 -0.2053631E-03
 -0.5050018E-02  0.0000000E+00 -0.5050505E-02  0.5481190E-07  0.0000000E+00 -0.2052541E-03
 -0.5049710E-02  0.0000000E+00 -0.5050505E-02  0.5800044E-07  0.0000000E+00 -0.2051385E-03
 -0.5049253E-02  0.0000000E+00 -0.5050505E-02  0.6106583E-07  0.0000000E+00 -0.2050165E-03
 -0.5048636E-02  0.0000000E+00 -0.5050505E-02  0.6399872E-07  0.0000000E+00 -0.2048884E-03
 -0.5047442E-02  0.0000000E+00 -0.5050505E-02  0.6678953E-07  0.0000000E+00 -0.2047543E-03
 -0.5045727E-02  0.0000000E+00 -0.5050505E-02  0.6942849E-07  0.0000000E+00 -0.2046147E-03
 -0.5043261E-02  0.0000000E+00 -0.5050505E-02  0.7190566E-07  0.0000000E+00 -0.2044699E-03
 -0.5038714E-02  0.0000000E+00 -0.5050505E-02  0.7421092E-07  0.0000000E+00 -0.2043202E-03
 -0.5032318E-02  0.0000000E+00 -0.5050505E-02  0.7633405E-07  0.0000000E+00 -0.2041659E-03
 -0.5022454E-02  0.0000000E+00 -0.5050505E-02  0.7826474E-07  0.0000000E+00 -0.2040075E-03
 -0.5012589E-02  0.0000000E+00 -0.5050505E-02  0.7999261E-07  0.0000000E+00 -0.2038454E-03
 -0.5002725E-02  0.0000000E+00 -0.5050505E-02  0.8150731E-07  0.0000000E+00 -0.2036799E-03
 -0.4992860E-02  0.0000000E+00 -0.5050505E-02  0.8279852E-07  0.0000000E+00 -0.2035115E-03
 -0.4976523E-02  0.0000000E+00 -0.5050505E-02  0.8385607E-07  0.0000000E+00 -0.2033408E-03
 -0.4956794E-02  0.0000000E+00 -0.5050505E-02  0.8467000E-07  0.0000000E+00 -0.2031681E-03
 -0.4937066E-02  0.0000000E+00 -0.5050505E-02  0.8523062E-07  0.0000000E+00 -0.2029941E-03
 -0.4906239E-02  0.0000000E+00 -0.5050505E-02  0.8552863E-07  0.0000000E+00 -0.2028191E-03
 -0.4866782E-02  0.0000000E+00 -0.5050505E-02  0.8555516E-07  0.0000000E+00 -0.2026438E-03
 -0.4827325E-02  0.0000000E+00 -0.5050505E-02  0.8530194E-07  0.0000000E+00 -0.2024688E-03
 -0.4769372E-02  0.0000000E+00 -0.5050505E-02  0.8476134E-07  0.0000000E+00 -0.2022946E-03
 -0.4690458E-02  0.0000000E+00 -0.5050505E-02  0.8392644E-07  0.0000000E+00 -0.2021218E-03
 -0.4611543E-02  0.0000000E+00 -0.5050505E-02  0.8279120E-07  0.0000000E+00 -0.2019510E-03
 -0.4503035E-02  0.0000000E+00 -0.5050505E-02  0.8135044E-07  0.0000000E+00 -0.2017828E-03
 -0.4345206E-02  0.0000000E+00 -0.5050505E-02  0.7959997E-07  0.0000000E+00 -0.2016180E-03
 -0.4187378E-02  0.0000000E+00 -0.5050505E-02  0.7753660E-07  0.0000000E+00 -0.2014570E-03
 -0.3985156E-02  0.0000000E+00 -0.5050505E-02  0.7515822E-07  0.0000000E+00 -0.2013006E-03
 -0.3669499E-02  0.0000000E+00 -0.5050505E-02  0.7246375E-07  0.0000000E+00 -0.2011494E-03
 -0.3353842E-02  0.0000000E+00 -0.5050505E-02  0.6945324E-07  0.0000000E+00 -0.2010040E-03
 -0.2978990E-02  0.0000000E+00 -0.5050505E-02  0.6612778E-07  0.0000000E+00 -0.2008651E-03
 -0.2347676E-02  0.0000000E+00 -0.5050505E-02  0.6248959E-07  0.0000000E+00 -0.2007334E-03
 -0.1716362E-02  0.0000000E+00 -0.5050505E-02  0.5854197E-07  0.0000000E+00 -0.2006094E-03
 -0.1025842E-02  0.0000000E+00 -0.5050505E-02  0.5428943E-07  0.0000000E+00 -0.2004939E-03
  0.2367855E-03  0.0000000E+00 -0.5050505E-02  0.4973770E-07  0.0000000E+00 -0.2003873E-03
  0.1499413E-02  0.0000000E+00 -0.5050505E-02  0.4489401E-07  0.0000000E+00 -0.2002904E-03
  0.2762042E-02  0.0000000E+00 -0.5050505E-02  0.3976727E-07  0.0000000E+00 -0.2002037E-03
 -0.5050505E-02  0.0000000E+00 -0.5050505E-02  0.3436844E-07  0.0000000E+00 -0.2001278E-03
 -0.5050505E-02  0.0000000E+00 -0.5050505E-02  0.2871107E-07  0.0000000E+00 -0.2000632E-03
 -0.5050505E-02  0.0000000E+00 -0.5050505E-02  0.2281183E-07  0.0000000E+00 -0.2000104E-03
 -0.5050505E-02  0.0000000E+00 -0.5050505E-02  0.1669117E-07  0.0000000E+00 -0.1999699E-03
 -0.5050505E-02  0.0000000E+00 -0.5050505E-02  0.1037406E-07  0.0000000E+00 -0.1999422E-03
 -0.5050505E-02  0.0000000E+00 -0.5050505E-02  0.3890688E-08  0.0000000E+00 -0.1999276E-03
 -0.5050505E-02  0.0000000E+00 -0.5050505E-02 -0.2723042E-08  0.0000000E+00 -0.1999264E-03
 -0.5050504E-02  0.0000000E+00 -0.5050505E-02 -0.9425107E-08  0.0000000E+00 -0.1999389E-03
 -0.5050501E-02  0.0000000E+00 -0.5050505E-02 -0.1616741E-07  0.0000000E+00 -0.1999651E-03
 -0.5050495E-02  0.0000000E+00 -0.5050505E-02 -0.2289623E-07  0.0000000E+00 -0.2000051E-03
 -0.5050482E-02  0.0000000E+00 -0.5050505E-02 -0.2955317E-07  0.0000000E+00 -0.2000588E-03
 -0.5050449E-02  0.0000000E+00 -0.5050505E-02 -0.3607660E-07  0.0000000E+00 -0.2001260E-03
 -0.5050376E-02  0.0000000E+00 -0.5050505E-02 -0.4240359E-07  0.0000000E+00 -0.2002064E-03
 -0.5050299E-02  0.0000000E+00 -0.5050505E-02 -0.4847215E-07  0.0000000E+00 -0.2002995E-03
 -0.5050178E-02  0.0000000E+00 -0.5050505E-02 -0.5422356E-07  0.0000000E+00 -0.2004046E-03
 -0.5050018E-02  0.0000000E+00 -0.5050505E-02 -0.5960463E-07  0.0000000E+00 -0.2005212E-03
 -0.5049710E-02  0.0000000E+00 -0.5050505E-02 -0.6456963E-07  0.0000000E+00 -0.2006484E-03
 -0.5049253E-02  0.0000000E+00 -0.5050505E-02 -0.6908166E-07  0.0000000E+00 -0.2007853E-03
 -0.5048636E-02  0.0000000E+00 -0.5050505E-02 -0.7311354E-07  0.0000000E+00 -0.2009309E-03
 -0.5047442E-02  0.0000000E+00 -0.5050505E-02 -0.7664800E-07  0.0000000E+00 -0.2010843E-03
 -0.5045727E-02  0.0000000E+00 -0.5050505E-02 -0.7967733E-07  0.0000000E+00 -0.2012445E-03
 -0.5043261E-02  0.0000000E+00 -0.5050505E-02 -0.8220270E-07  0.0000000E+00 -0.2014103E-03
 -0.5038714E-02  0.0000000E+00 -0.5050505E-02 -0.8423309E-07  0.0000000E+00 -0.2015808E-03
 -0.5032318E-02  0.0000000E+00 -0.5050505E-02 -0.8578424E-07  0.0000000E+00 -0.2017549E-03
 -0.5022454E-02  0.0000000E+00 -0.5050505E-02 -0.8687752E-07  0.0000000E+00 -0.2019318E-03
 -0.5012589E-02  0.0000000E+00 -0.5050505E-02 -0.8753906E-07  0.0000000E+00 -0.2021105E-03
 -0.5002725E-02  0.0000000E+00 -0.5050505E-02 -0.8779911E-07  0.0000000E+00 -0.2022901E-03
 -0.4992860E-02  0.0000000E+00 -0.5050505E-02 -0.8769174E-07  0.0000000E+00 -0.2024699E-03
 -0.4976523E-02  0.0000000E+00 -0.5050505E-02 -0.8725508E-07  0.0000000E+00 -0.2026491E-03
 -0.4956794E-02  0.0000000E+00 -0.5050505E-02 -0.8653200E-07  0.0000000E+00 -0.2028272E-03
 -0.4937066E-02  0.0000000E+00 -0.5050505E-02 -0.8557163E-07  0.0000000E+00 -0.2030035E-03
 -0.4906239E-02  0.0000000E+00 -0.5050505E-02 -0.8443182E-07  0.0000000E+00 -0.2031777E-03
 -0.4866782E-02  0.0000000E+00 -0.5050505E-02 -0.8318296E-07  0.0000000E+00 -0.2033494E-03
 -0.4827325E-02  0.0000000E+00 -0.5050505E-02 -0.8191397E-07  0.0000000E+00 -0.2035185E-03
 -0.4769372E-02  0.0000000E+00 -0.5050505E-02 -0.8074155E-07  0.0000000E+00 -0.2036852E-03
 -0.4690458E-02  0.0000000E+00 -0.5050505E-02 -0.7982497E-07  0.0000000E+00 -0.2038497E-03
 -0.4611543E-02  0.0000000E+00 -0.5050505E-02 -0.7938996E-07  0.0000000E+00 -0.2040129E-03
 -0.4503035E-02  0.0000000E+00 -0.5050505E-02 -0.7976906E-07  0.0000000E+00 -0.2041759E-03
 -0.4345206E-02  0.0000000E+00 -0.5050505E-02 -0.8147192E-07  0.0000000E+00 -0.2043412E-03
 -0.4187378E-02  0.0000000E+00 -0.5050505E-02 -0.8531326E-07  0.0000000E+00 -0.2045121E-03
 -0.3985156E-02  0.0000000E+00 -0.5050505E-02 -0.9265751E-07  0.0000000E+00 -0.2046944E-03
 -0.3669499E-02  0.0000000E+00 -0.5050505E-02 -0.1059133E-06  0.0000000E+00 -0.2048979E-03
 -0.3353842E-02  0.0000000E+00 -0.5050505E-02 -0.1296008E-06  0.0000000E+00 -0.2051393E-03
 -0.2978990E-02  0.0000000E+00 -0.5050505E-02 -0.1728328E-06  0.0000000E+00 -0.2054492E-03
 -0.2347676E-02  0.0000000E+00 -0.5050505E-02 -0.2555919E-06  0.0000000E+00 -0.2058883E-03
 -0.1716362E-02  0.0000000E+00 -0.5050505E-02 -0.4261266E-06  0.0000000E+00 -0.2065869E-03
 -0.1025842E-02  0.0000000E+00 -0.5050505E-02 -0.8139636E-06  0.0000000E+00 -0.2078580E-03
  0.2367855E-03  0.0000000E+00 -0.5050505E-02 -0.1807100E-05  0.0000000E+00 -0.2105450E-03
  0.1499413E-02  0.0000000E+00 -0.5050505E-02 -0.4696797E-05  0.0000000E+00 -0.2172149E-03
  0.5287294E-02  0.0000000E+00 -0.5050505E-02 -0.7663492E-04  0.0000000E+00 -0.1734268E-03
 -0.5050505E-02  0.0000000E+00 -0.5050505E-02  0.6066850E-08  0.0000000E+00 -0.2059767E-03
 -0.5050505E-02  0.0000000E+00 -0.5050505E-02  0.1818977E-07  0.0000000E+00 -0.2059684E-03
 -0.5050505E-02  0.0000000E+00 -0.5050505E-02  0.3028022E-07  0.0000000E+00 -0.2059518E-03
 -0.5050505E-02  0.0000000E+00 -0.5050505E-02  0.4231649E-07  0.0000000E+00 -0.2059268E-03
 -0.5050505E-02  0.0000000E+00 -0.5050505E-02  0.5427668E-07  0.0000000E+00 -0.2058937E-03
 -0.5050505E-02  0.0000000E+00 -0.5050505E-02  0.6613872E-07  0.0000000E+00 -0.2058523E-03
 -0.5050504E-02  0.0000000E+00 -0.5050505E-02  0.7788026E-07  0.0000000E+00 -0.2058029E-03
 -0.5050501E-02  0.0000000E+00 -0.5050505E-02  0.8947864E-07  0.0000000E+00 -0.2057454E-03
 -0.5050495E-02  0.0000000E+00 -0.5050505E-02  0.1009108E-06  0.0000000E+00 -0.2056801E-03
 -0.5050482E-02  0.0000000E+00 -0.5050505E-02  0.1121533E-06  0.0000000E+00 -0.2056069E-03
 -0.5050449E-02  0.0000000E+00 -0.5050505E-02  0.1231821E-06  0.0000000E+00 -0.2055261E-03
 -0.5050376E-02  0.0000000E+00 -0.5050505E-02  0.1339729E-06  0.0000000E+00 -0.2054378E-03
 -0.5050299E-02  0.0000000E+00 -0.5050505E-02  0.1445005E-06  0.0000000E+00 -0.2053422E-03
 -0.5050178E-02  0.0000000E+00 -0.5050505E-02  0.1547394E-06  0.0000000E+00 -0.2052395E-03
 -0.5050018E-02  0.0000000E+00 -0.5050505E-02  0.1646634E-06  0.0000000E+00 -0.2051298E-03
 -0.5049710E-02  0.0000000E+00 -0.5050505E-02  0.1742455E-06  0.0000000E+00 -0.2050135E-03
 -0.5049253E-02  0.0000000E+00 -0.5050505E-02  0.1834583E-06  0.0000000E+00 -0.2048906E-03
 -0.5048636E-02  0.0000000E+00 -0.5050505E-02  0.1922737E-06  0.0000000E+00 -0.2047616E-03
 -0.5047442E-02  0.0000000E+00 -0.5050505E-02  0.2006628E-06  0.0000000E+00 -0.2046267E-03
 -0.5045727E-02  0.0000000E+00 -0.5050505E-02  0.2085964E-06  0.0000000E+00 -0.2044861E-03
 -0.5043261E-02  0.0000000E+00 -0.5050505E-02  0.2160446E-06  0.0000000E+00 -0.2043403E-03
 -0.5038714E-02  0.0000000E+00 -0.5050505E-02  0.2229770E-06  0.0000000E+00 -0.2041896E-03
 -0.5032318E-02  0.0000000E+00 -0.5050505E-02  0.2293629E-06  0.0000000E+00 -0.2040342E-03
 -0.5022454E-02  0.0000000E+00 -0.5050505E-02  0.2351712E-06  0.0000000E+00 -0.2038747E-03
 -0.5012589E-02  0.0000000E+00 -0.5050505E-02  0.2403707E-06  0.0000000E+00 -0.2037113E-03
 -0.5002725E-02  0.0000000E+00 -0.5050505E-02  0.2449304E-06  0.0000000E+00 -0.2035447E-03
 -0.4992860E-02  0.0000000E+00 -0.5050505E-02  0.2488191E-06  0.0000000E+00 -0.2033751E-03
 -0.4976523E-02  0.0000000E+00 -0.5050505E-02  0.2520062E-06  0.0000000E+00 -0.2032030E-03
 -0.4956794E-02  0.0000000E+00 -0.5050505E-02  0.2544618E-06  0.0000000E+00 -0.2030290E-03
 -0.4937066E-02  0.0000000E+00 -0.5050505E-02  0.2561567E-06  0.0000000E+00 -0.2028536E-03
 -0.4906239E-02  0.0000000E+00 -0.5050505E-02  0.2570627E-06  0.0000000E+00 -0.2026773E-03
 -0.4866782E-02  0.0000000E+00 -0.5050505E-02  0.2571533E-06  0.0000000E+00 -0.2025006E-03
 -0.4827325E-02  0.0000000E+00 -0.5050505E-02  0.2564034E-06  0.0000000E+00 -0.2023241E-03
 -0.4769372E-02  0.0000000E+00 -0.5050505E-02  0.2547900E-06  0.0000000E+00 -0.2021485E-03
 -0.4690458E-02  0.0000000E+00 -0.5050505E-02  0.2522924E-06  0.0000000E+00 -0.2019742E-03
 -0.4611543E-02  0.0000000E+00 -0.5050505E-02  0.2488921E-06  0.0000000E+00 -0.2018020E-03
 -0.4503035E-02  0.0000000E+00 -0.5050505E-02  0.2445737E-06  0.0000000E+00 -0.2016324E-03
 -0.4345206E-02  0.0000000E+00 -0.5050505E-02  0.2393244E-06  0.0000000E+00 -0.2014660E-03
 -0.4187378E-02  0.0000000E+00 -0.5050505E-02  0.2331346E-06  0.0000000E+00 -0.2013036E-03
 -0.3985156E-02  0.0000000E+00 -0.5050505E-02  0.2259979E-06  0.0000000E+00 -0.2011457E-03
 -0.3669499E-02  0.0000000E+00 -0.5050505E-02  0.2179111E-06  0.0000000E+00 -0.2009931E-03
 -0.3353842E-02  0.0000000E+00 -0.5050505E-02  0.2088743E-06  0.0000000E+00 -0.2008463E-03
 -0.2978990E-02  0.0000000E+00 -0.5050505E-02  0.1988907E-06  0.0000000E+00 -0.2007061E-03
 -0.2347676E-02  0.0000000E+00 -0.5050505E-02  0.1879669E-06  0.0000000E+00 -0.2005730E-03
 -0.1716362E-02  0.0000000E+00 -0.5050505E-02  0.1761127E-06  0.0000000E+00 -0.2004477E-03
 -0.1025842E-02  0.0000000E+00 -0.5050505E-02  0.1633416E-06  0.0000000E+00 -0.2003309E-03
  0.2367855E-03  0.0000000E+00 -0.5050505E-02  0.1496705E-06  0.0000000E+00 -0.2002232E-03
  0.1499413E-02  0.0000000E+00 -0.5050505E-02  0.1351207E-06  0.0000000E+00 -0.2001251E-03
  0.2762042E-02  0.0000000E+00 -0.5050505E-02  0.1197187E-06  0.0000000E+00 -0.2000373E-03
 -0.5050505E-02  0.0000000E+00 -0.5050505E-02  0.1034968E-06  0.0000000E+00 -0.1999603E-03
 -0.5050505E-02  0.0000000E+00 -0.5050505E-02  0.8649511E-07  0.0000000E+00 -0.1998948E-03
 -0.5050505E-02  0.0000000E+00 -0.5050505E-02  0.6876288E-07  0.0000000E+00 -0.1998412E-03
 -0.5050505E-02  0.0000000E+00 -0.5050505E-02  0.5036083E-07  0.0000000E+00 -0.1998000E-03
 -0.5050505E-02  0.0000000E+00 -0.5050505E-02  0.3136322E-07  0.0000000E+00 -0.1997717E-03
 -0.5050505E-02  0.0000000E+00 -0.5050505E-02  0.1186006E-07  0.0000000E+00 -0.1997566E-03
 -0.5050505E-02  0.0000000E+00 -0.5050505E-02 -0.8041139E-08  0.0000000E+00 -0.1997551E-03
 -0.5050504E-02  0.0000000E+00 -0.5050505E-02 -0.2821421E-07  0.0000000E+00 -0.1997674E-03
 -0.5050501E-02  0.0000000E+00 -0.5050505E-02 -0.4851426E-07  0.0000000E+00 -0.1997936E-03
 -0.5050495E-02  0.0000000E+00 -0.5050505E-02 -0.6877899E-07  0.0000000E+00 -0.1998338E-03
 -0.5050482E-02  0.0000000E+00 -0.5050505E-02 -0.8883149E-07  0.0000000E+00 -0.1998879E-03
 -0.5050449E-02  0.0000000E+00 -0.5050505E-02 -0.1084847E-06  0.0000000E+00 -0.1999557E-03
 -0.5050376E-02  0.0000000E+00 -0.5050505E-02 -0.1275474E-06  0.0000000E+00 -0.2000369E-03
 -0.5050299E-02  0.0000000E+00 -0.5050505E-02 -0.1458309E-06  0.0000000E+00 -0.2001310E-03
 -0.5050178E-02  0.0000000E+00 -0.5050505E-02 -0.1631566E-06  0.0000000E+00 -0.2002373E-03
 -0.5050018E-02  0.0000000E+00 -0.5050505E-02 -0.1793626E-06  0.0000000E+00 -0.2003553E-03
 -0.5049710E-02  0.0000000E+00 -0.5050505E-02 -0.1943103E-06  0.0000000E+00 -0.2004839E-03
 -0.5049253E-02  0.0000000E+00 -0.5050505E-02 -0.2078877E-06  0.0000000E+00 -0.2006224E-03
 -0.5048636E-02  0.0000000E+00 -0.5050505E-02 -0.2200132E-06  0.0000000E+00 -0.2007698E-03
 -0.5047442E-02  0.0000000E+00 -0.5050505E-02 -0.2306349E-06  0.0000000E+00 -0.2009249E-03
 -0.5045727E-02  0.0000000E+00 -0.5050505E-02 -0.2397305E-06  0.0000000E+00 -0.2010868E-03
 -0.5043261E-02  0.0000000E+00 -0.5050505E-02 -0.2473046E-06  0.0000000E+00 -0.2012545E-03
 -0.5038714E-02  0.0000000E+00 -0.5050505E-02 -0.2533851E-06  0.0000000E+00 -0.2014268E-03
 -0.5032318E-02  0.0000000E+00 -0.5050505E-02 -0.2580205E-06  0.0000000E+00 -0.2016028E-03
 -0.5022454E-02  0.0000000E+00 -0.5050505E-02 -0.2612758E-06  0.0000000E+00 -0.2017814E-03
 -0.5012589E-02  0.0000000E+00 -0.5050505E-02 -0.2632302E-06  0.0000000E+00 -0.2019618E-03
 -0.5002725E-02  0.0000000E+00 -0.5050505E-02 -0.2639747E-06  0.0000000E+00 -0.2021430E-03
 -0.4992860E-02  0.0000000E+00 -0.5050505E-02 -0.2636115E-06  0.0000000E+00 -0.2023244E-03
 -0.4976523E-02  0.0000000E+00 -0.5050505E-02 -0.2622545E-06  0.0000000E+00 -0.2025051E-03
 -0.4956794E-02  0.0000000E+00 -0.5050505E-02 -0.2600307E-06  0.0000000E+00 -0.2026845E-03
 -0.4937066E-02  0.0000000E+00 -0.5050505E-02 -0.2570852E-06  0.0000000E+00 -0.2028621E-03
 -0.4906239E-02  0.0000000E+00 -0.5050505E-02 -0.2535879E-06  0.0000000E+00 -0.2030373E-03
 -0.4866782E-02  0.0000000E+00 -0.5050505E-02 -0.2497439E-06  0.0000000E+00 -0.2032100E-03
 -0.4827325E-02  0.0000000E+00 -0.5050505E-02 -0.2458108E-06  0.0000000E+00 -0.2033798E-03
 -0.4769372E-02  0.0000000E+00 -0.5050505E-02 -0.2421242E-06  0.0000000E+00 -0.2035468E-03
 -0.4690458E-02  0.0000000E+00 -0.5050505E-02 -0.2391381E-06  0.0000000E+00 -0.2037113E-03
 -0.4611543E-02  0.0000000E+00 -0.5050505E-02 -0.2374897E-06  0.0000000E+00 -0.2038738E-03
 -0.4503035E-02  0.0000000E+00 -0.5050505E-02 -0.2381072E-06  0.0000000E+00 -0.2040353E-03
 -0.4345206E-02  0.0000000E+00 -0.5050505E-02 -0.2423931E-06  0.0000000E+00 -0.2041976E-03
 -0.4187378E-02  0.0000000E+00 -0.5050505E-02 -0.2525505E-06  0.0000000E+00 -0.2043634E-03
 -0.3985156E-02  0.0000000E+00 -0.5050505E-02 -0.2721859E-06  0.0000000E+00 -0.2045368E-03
 -0.3669499E-02  0.0000000E+00 -0.5050505E-02 -0.3074767E-06  0.0000000E+00 -0.2047243E-03
 -0.3353842E-02  0.0000000E+00 -0.5050505E-02 -0.3695476E-06  0.0000000E+00 -0.2049360E-03
 -0.2978990E-02  0.0000000E+00 -0.5050505E-02 -0.4795850E-06  0.0000000E+00 -0.2051871E-03
 -0.2347676E-02  0.0000000E+00 -0.5050505E-02 -0.6804987E-06  0.0000000E+00 -0.2054989E-03
 -0.1716362E-02  0.0000000E+00 -0.5050505E-02 -0.1065159E-05  0.0000000E+00 -0.2058923E-03
 -0.1025842E-02  0.0000000E+00 -0.5050505E-02 -0.1848862E-05  0.0000000E+00 -0.2063402E-03
  0.2367855E-03  0.0000000E+00 -0.5050505E-02 -0.3565299E-05  0.0000000E+00 -0.2065238E-03
  0.1499413E-02  0.0000000E+00 -0.5050505E-02 -0.7619158E-05  0.0000000E+00 -0.2046760E-03
  0.5287294E-02  0.0000000E+00 -0.5050505E-02 -0.1788327E-04  0.0000000E+00 -0.1921722E-03
 -0.5050505E-02  0.0000000E+00 -0.5050505E-02  0.1014129E-07  0.0000000E+00 -0.2057420E-03
 -0.5050505E-02  0.0000000E+00 -0.5050505E-02  0.3040591E-07  0.0000000E+00 -0.2057336E-03
 -0.5050505E-02  0.0000000E+00 -0.5050505E-02  0.5061650E-07  0.0000000E+00 -0.2057167E-03
 -0.5050505E-02  0.0000000E+00 -0.5050505E-02  0.7073687E-07  0.0000000E+00 -0.2056915E-03
 -0.5050505E-02  0.0000000E+00 -0.5050505E-02  0.9073057E-07  0.0000000E+00 -0.2056580E-03
 -0.5050505E-02  0.0000000E+00 -0.5050505E-02  0.1105609E-06  0.0000000E+00 -0.2056161E-03
 -0.5050504E-02  0.0000000E+00 -0.5050505E-02  0.1301905E-06  0.0000000E+00 -0.2055661E-03
 -0.5050501E-02  0.0000000E+00 -0.5050505E-02  0.1495817E-06  0.0000000E+00 -0.2055079E-03
 -0.5050495E-02  0.0000000E+00 -0.5050505E-02  0.1686962E-06  0.0000000E+00 -0.2054417E-03
 -0.5050482E-02  0.0000000E+00 -0.5050505E-02  0.1874947E-06  0.0000000E+00 -0.2053677E-03
 -0.5050449E-02  0.0000000E+00 -0.5050505E-02  0.2059375E-06  0.0000000E+00 -0.2052859E-03
 -0.5050376E-02  0.0000000E+00 -0.5050505E-02  0.2239836E-06  0.0000000E+00 -0.2051965E-03
 -0.5050299E-02  0.0000000E+00 -0.5050505E-02  0.2415915E-06  0.0000000E+00 -0.2050997E-03
 -0.5050178E-02  0.0000000E+00 -0.5050505E-02  0.2587183E-06  0.0000000E+00 -0.2049956E-03
 -0.5050018E-02  0.0000000E+00 -0.5050505E-02  0.2753204E-06  0.0000000E+00 -0.2048845E-03
 -0.5049710E-02  0.0000000E+00 -0.5050505E-02  0.2913529E-06  0.0000000E+00 -0.2047667E-03
 -0.5049253E-02  0.0000000E+00 -0.5050505E-02  0.3067698E-06  0.0000000E+00 -0.2046422E-03
 -0.5048636E-02  0.0000000E+00 -0.5050505E-02  0.3215243E-06  0.0000000E+00 -0.2045115E-03
 -0.5047442E-02  0.0000000E+00 -0.5050505E-02  0.3355683E-06  0.0000000E+00 -0.2043748E-03
 -0.5045727E-02  0.0000000E+00 -0.5050505E-02  0.3488527E-06  0.0000000E+00 -0.2042324E-03
 -0.5043261E-02  0.0000000E+00 -0.5050505E-02  0.3613276E-06  0.0000000E+00 -0.2040846E-03
 -0.5038714E-02  0.0000000E+00 -0.5050505E-02  0.3729422E-06  0.0000000E+00 -0.2039317E-03
 -0.5032318E-02  0.0000000E+00 -0.5050505E-02  0.3836450E-06  0.0000000E+00 -0.2037742E-03
 -0.5022454E-02  0.0000000E+00 -0.5050505E-02  0.3933841E-06  0.0000000E+00 -0.2036124E-03
 -0.5012589E-02  0.0000000E+00 -0.5050505E-02  0.4021071E-06  0.0000000E+00 -0.2034467E-03
 -0.5002725E-02  0.0000000E+00 -0.5050505E-02  0.4097620E-06  0.0000000E+00 -0.2032776E-03
 -0.4992860E-02  0.0000000E+00 -0.5050505E-02  0.4162965E-06  0.0000000E+00 -0.2031056E-03
 -0.4976523E-02  0.0000000E+00 -0.5050505E-02  0.4216593E-06  0.0000000E+00 -0.2029310E-03
 -0.4956794E-02  0.0000000E+00 -0.5050505E-02  0.4258000E-06  0.0000000E+00 -0.2027543E-03
 -0.4937066E-02  0.0000000E+00 -0.5050505E-02  0.4286694E-06  0.0000000E+00 -0.2025762E-03
 -0.4906239E-02  0.0000000E+00 -0.5050505E-02  0.4302205E-06  0.0000000E+00 -0.2023972E-03
 -0.4866782E-02  0.0000000E+00 -0.5050505E-02  0.4304083E-06  0.0000000E+00 -0.2022177E-03
 -0.4827325E-02  0.0000000E+00 -0.5050505E-02  0.4291907E-06  0.0000000E+00 -0.2020384E-03
 -0.4769372E-02  0.0000000E+00 -0.5050505E-02  0.4265289E-06  0.0000000E+00 -0.2018598E-03
 -0.4690458E-02  0.0000000E+00 -0.5050505E-02  0.4223879E-06  0.0000000E+00 -0.2016827E-03
 -0.4611543E-02  0.0000000E+00 -0.5050505E-02  0.4167366E-06  0.0000000E+00 -0.2015075E-03
 -0.4503035E-02  0.0000000E+00 -0.5050505E-02  0.4095489E-06  0.0000000E+00 -0.2013350E-03
 -0.4345206E-02  0.0000000E+00 -0.5050505E-02  0.4008033E-06  0.0000000E+00 -0.2011657E-03
 -0.4187378E-02  0.0000000E+00 -0.5050505E-02  0.3904836E-06  0.0000000E+00 -0.2010004E-03
 -0.3985156E-02  0.0000000E+00 -0.5050505E-02  0.3785789E-06  0.0000000E+00 -0.2008397E-03
 -0.3669499E-02  0.0000000E+00 -0.5050505E-02  0.3650837E-06  0.0000000E+00 -0.2006842E-03
 -0.3353842E-02  0.0000000E+00 -0.5050505E-02  0.3499980E-06  0.0000000E+00 -0.2005346E-03
 -0.2978990E-02  0.0000000E+00 -0.5050505E-02  0.3333272E-06  0.0000000E+00 -0.2003916E-03
 -0.2347676E-02  0.0000000E+00 -0.5050505E-02  0.3150821E-06  0.0000000E+00 -0.2002558E-03
 -0.1716362E-02  0.0000000E+00 -0.5050505E-02  0.2952787E-06  0.0000000E+00 -0.2001279E-03
 -0.1025842E-02  0.0000000E+00 -0.5050505E-02  0.2739390E-06  0.0000000E+00 -0.2000086E-03
  0.2367855E-03  0.0000000E+00 -0.5050505E-02  0.2510907E-06  0.0000000E+00 -0.1998984E-03
  0.1499413E-02  0.0000000E+00 -0.5050505E-02  0.2267684E-06  0.0000000E+00 -0.1997981E-03
  0.2762042E-02  0.0000000E+00 -0.5050505E-02  0.2010147E-06  0.0000000E+00 -0.1997081E-03
 -0.5050505E-02  0.0000000E+00 -0.5050505E-02  0.1738820E-06  0.0000000E+00 -0.1996291E-03
 -0.5050505E-02  0.0000000E+00 -0.5050505E-02  0.1454350E-06  0.0000000E+00 -0.1995618E-03
 -0.5050505E-02  0.0000000E+00 -0.5050505E-02  0.1157536E-06  0.0000000E+00 -0.1995065E-03
 -0.5050505E-02  0.0000000E+00 -0.5050505E-02  0.8493670E-07  0.0000000E+00 -0.1994638E-03
 -0.5050505E-02  0.0000000E+00 -0.5050505E-02  0.5310580E-07  0.0000000E+00 -0.1994343E-03
 -0.5050505E-02  0.0000000E+00 -0.5050505E-02  0.2040920E-07  0.0000000E+00 -0.1994182E-03
 -0.5050505E-02  0.0000000E+00 -0.5050505E-02 -0.1297477E-07  0.0000000E+00 -0.1994160E-03
 -0.5050504E-02  0.0000000E+00 -0.5050505E-02 -0.4683541E-07  0.0000000E+00 -0.1994280E-03
 -0.5050501E-02  0.0000000E+00 -0.5050505E-02 -0.8092921E-07  0.0000000E+00 -0.1994542E-03
 -0.5050495E-02  0.0000000E+00 -0.5050505E-02 -0.1149817E-06  0.0000000E+00 -0.1994948E-03
 -0.5050482E-02  0.0000000E+00 -0.5050505E-02 -0.1486923E-06  0.0000000E+00 -0.1995497E-03
 -0.5050449E-02  0.0000000E+00 -0.5050505E-02 -0.1817416E-06  0.0000000E+00 -0.1996187E-03
 -0.5050376E-02  0.0000000E+00 -0.5050505E-02 -0.2138021E-06  0.0000000E+00 -0.1997015E-03
 -0.5050299E-02  0.0000000E+00 -0.5050505E-02 -0.2445504E-06  0.0000000E+00 -0.1997976E-03
 -0.5050178E-02  0.0000000E+00 -0.5050505E-02 -0.2736799E-06  0.0000000E+00 -0.1999063E-03
 -0.5050018E-02  0.0000000E+00 -0.5050505E-02 -0.3009133E-06  0.0000000E+00 -0.2000269E-03
 -0.5049710E-02  0.0000000E+00 -0.5050505E-02 -0.3260137E-06  0.0000000E+00 -0.2001585E-03
 -0.5049253E-02  0.0000000E+00 -0.5050505E-02 -0.3487913E-06  0.0000000E+00 -0.2003002E-03
 -0.5048636E-02  0.0000000E+00 -0.5050505E-02 -0.3691083E-06  0.0000000E+00 -0.2004510E-03
 -0.5047442E-02  0.0000000E+00 -0.5050505E-02 -0.3868796E-06  0.0000000E+00 -0.2006097E-03
 -0.5045727E-02  0.0000000E+00 -0.5050505E-02 -0.4020703E-06  0.0000000E+00 -0.2007752E-03
 -0.5043261E-02  0.0000000E+00 -0.5050505E-02 -0.4146912E-06  0.0000000E+00 -0.2009465E-03
 -0.5038714E-02  0.0000000E+00 -0.5050505E-02 -0.4247932E-06  0.0000000E+00 -0.2011225E-03
 -0.5032318E-02  0.0000000E+00 -0.5050505E-02 -0.4324608E-06  0.0000000E+00 -0.2013021E-03
 -0.5022454E-02  0.0000000E+00 -0.5050505E-02 -0.4378061E-06  0.0000000E+00 -0.2014842E-03
 -0.5012589E-02  0.0000000E+00 -0.5050505E-02 -0.4409634E-06  0.0000000E+00 -0.2016680E-03
 -0.5002725E-02  0.0000000E+00 -0.5050505E-02 -0.4420861E-06  0.0000000E+00 -0.2018526E-03
 -0.4992860E-02  0.0000000E+00 -0.5050505E-02 -0.4413443E-06  0.0000000E+00 -0.2020371E-03
 -0.4976523E-02  0.0000000E+00 -0.5050505E-02 -0.4389258E-06  0.0000000E+00 -0.2022207E-03
 -0.4956794E-02  0.0000000E+00 -0.5050505E-02 -0.4350384E-06  0.0000000E+00 -0.2024029E-03
 -0.4937066E-02  0.0000000E+00 -0.5050505E-02 -0.4299164E-06  0.0000000E+00 -0.2025829E-03
 -0.4906239E-02  0.0000000E+00 -0.5050505E-02 -0.4238309E-06  0.0000000E+00 -0.2027604E-03
 -0.4866782E-02  0.0000000E+00 -0.5050505E-02 -0.4171060E-06  0.0000000E+00 -0.2029349E-03
 -0.4827325E-02  0.0000000E+00 -0.5050505E-02 -0.4101423E-06  0.0000000E+00 -0.2031061E-03
 -0.4769372E-02  0.0000000E+00 -0.5050505E-02 -0.4034545E-06  0.0000000E+00 -0.2032740E-03
 -0.4690458E-02  0.0000000E+00 -0.5050505E-02 -0.3977272E-06  0.0000000E+00 -0.2034385E-03
 -0.4611543E-02  0.0000000E+00 -0.5050505E-02 -0.3939034E-06  0.0000000E+00 -0.2035999E-03
 -0.4503035E-02  0.0000000E+00 -0.5050505E-02 -0.3933255E-06  0.0000000E+00 -0.2037589E-03
 -0.4345206E-02  0.0000000E+00 -0.5050505E-02 -0.3979680E-06  0.0000000E+00 -0.2039162E-03
 -0.4187378E-02  0.0000000E+00 -0.5050505E-02 -0.4108292E-06  0.0000000E+00 -0.2040733E-03
 -0.3985156E-02  0.0000000E+00 -0.5050505E-02 -0.4366108E-06  0.0000000E+00 -0.2042318E-03
 -0.3669499E-02  0.0000000E+00 -0.5050505E-02 -0.4829254E-06  0.0000000E+00 -0.2043940E-03
 -0.3353842E-02  0.0000000E+00 -0.5050505E-02 -0.5624882E-06  0.0000000E+00 -0.2045616E-03
 -0.2978990E-02  0.0000000E+00 -0.5050505E-02 -0.6971320E-06  0.0000000E+00 -0.2047333E-03
 -0.2347676E-02  0.0000000E+00 -0.5050505E-02 -0.9250488E-06  0.0000000E+00 -0.2048981E-03
 -0.1716362E-02  0.0000000E+00 -0.5050505E-02 -0.1312837E-05  0.0000000E+00 -0.2050137E-03
 -0.1025842E-02  0.0000000E+00 -0.5050505E-02 -0.1969954E-05  0.0000000E+00 -0.2049519E-03
  0.2367855E-03  0.0000000E+00 -0.5050505E-02 -0.3035916E-05  0.0000000E+00 -0.2043657E-03
  0.1499413E-02  0.0000000E+00 -0.5050505E-02 -0.4470489E-05  0.0000000E+00 -0.2024810E-03
  0.5287294E-02  0.0000000E+00 -0.5050505E-02 -0.4820417E-05  0.0000000E+00 -0.1984968E-03
 -0.5050505E-02  0.0000000E+00 -0.5050505E-02  0.1426720E-07  0.0000000E+00 -0.2053948E-03
 -0.5050505E-02  0.0000000E+00 -0.5050505E-02  0.4277646E-07  0.0000000E+00 -0.2053862E-03
 -0.5050505E-02  0.0000000E+00 -0.5050505E-02  0.7121017E-07  0.0000000E+00 -0.2053691E-03
 -0.5050505E-02  0.0000000E+00 -0.5050505E-02  0.9951770E-07  0.0000000E+00 -0.2053434E-03
 -0.5050505E-02  0.0000000E+00 -0.5050505E-02  0.1276481E-06  0.0000000E+00 -0.2053092E-03
 -0.5050505E-02  0.0000000E+00 -0.5050505E-02  0.1555499E-06  0.0000000E+00 -0.2052666E-03
 -0.5050504E-02  0.0000000E+00 -0.5050505E-02  0.1831711E-06  0.0000000E+00 -0.2052157E-03
 -0.5050501E-02  0.0000000E+00 -0.5050505E-02  0.2104589E-06  0.0000000E+00 -0.2051564E-03
 -0.5050495E-02  0.0000000E+00 -0.5050505E-02  0.2373594E-06  0.0000000E+00 -0.2050891E-03
 -0.5050482E-02  0.0000000E+00 -0.5050505E-02  0.2638180E-06  0.0000000E+00 -0.2050137E-03
 -0.5050449E-02  0.0000000E+00 -0.5050505E-02  0.2897787E-06  0.0000000E+00 -0.2049303E-03
 -0.5050376E-02  0.0000000E+00 -0.5050505E-02  0.3151845E-06  0.0000000E+00 -0.2048393E-03
 -0.5050299E-02  0.0000000E+00 -0.5050505E-02  0.3399768E-06  0.0000000E+00 -0.2047407E-03
 -0.5050178E-02  0.0000000E+00 -0.5050505E-02  0.3640958E-06  0.0000000E+00 -0.2046347E-03
 -0.5050018E-02  0.0000000E+00 -0.5050505E-02  0.3874802E-06  0.0000000E+00 -0.2045215E-03
 -0.5049710E-02  0.0000000E+00 -0.5050505E-02  0.4100670E-06  0.0000000E+00 -0.2044014E-03
 -0.5049253E-02  0.0000000E+00 -0.5050505E-02  0.4317917E-06  0.0000000E+00 -0.2042746E-03
 -0.5048636E-02  0.0000000E+00 -0.5050505E-02  0.4525885E-06  0.0000000E+00 -0.2041413E-03
 -0.5047442E-02  0.0000000E+00 -0.5050505E-02  0.4723898E-06  0.0000000E+00 -0.2040019E-03
 -0.5045727E-02  0.0000000E+00 -0.5050505E-02  0.4911265E-06  0.0000000E+00 -0.2038566E-03
 -0.5043261E-02  0.0000000E+00 -0.5050505E-02  0.5087285E-06  0.0000000E+00 -0.2037059E-03
 -0.5038714E-02  0.0000000E+00 -0.5050505E-02  0.5251241E-06  0.0000000E+00 -0.2035499E-03
 -0.5032318E-02  0.0000000E+00 -0.5050505E-02  0.5402408E-06  0.0000000E+00 -0.2033892E-03
 -0.5022454E-02  0.0000000E+00 -0.5050505E-02  0.5540053E-06  0.0000000E+00 -0.2032240E-03
 -0.5012589E-02  0.0000000E+00 -0.5050505E-02  0.5663438E-06  0.0000000E+00 -0.2030549E-03
 -0.5002725E-02  0.0000000E+00 -0.5050505E-02  0.5771825E-06  0.0000000E+00 -0.2028822E-03
 -0.4992860E-02  0.0000000E+00 -0.5050505E-02  0.5864476E-06  0.0000000E+00 -0.2027063E-03
 -0.4976523E-02  0.0000000E+00 -0.5050505E-02  0.5940665E-06  0.0000000E+00 -0.2025279E-03
 -0.4956794E-02  0.0000000E+00 -0.5050505E-02  0.5999676E-06  0.0000000E+00 -0.2023473E-03
 -0.4937066E-02  0.0000000E+00 -0.5050505E-02  0.6040813E-06  0.0000000E+00 -0.2021652E-03