title = "dataset feddes"
variables = "x", "y", "z", "vx", "vy", "vz"
zone t = "velocities, solution time =  5.400E+01 days        " i =   99, j =   99, k =    1,  f=point
 -0.5050505E-02  0.0000000E+00 -0.5050505E-02  0.5513211E-08  0.0000000E+00 -0.1757443E-03
 -0.5050505E-02  0.0000000E+00 -0.5050505E-02  0.1653565E-07  0.0000000E+00 -0.1757218E-03
 -0.5050505E-02  0.0000000E+00 -0.5050505E-02  0.2754610E-07  0.0000000E+00 -0.1756768E-03
 -0.5050505E-02  0.0000000E+00 -0.5050505E-02  0.3853643E-07  0.0000000E+00 -0.1756093E-03
 -0.5050505E-02  0.0000000E+00 -0.5050505E-02  0.4949830E-07  0.0000000E+00 -0.1755194E-03
 -0.5050505E-02  0.0000000E+00 -0.5050505E-02  0.6042305E-07  0.0000000E+00 -0.1754071E-03
 -0.5050504E-02  0.0000000E+00 -0.5050505E-02  0.7130156E-07  0.0000000E+00 -0.1752726E-03
 -0.5050501E-02  0.0000000E+00 -0.5050505E-02  0.8212421E-07  0.0000000E+00 -0.1751159E-03
 -0.5050495E-02  0.0000000E+00 -0.5050505E-02  0.9288068E-07  0.0000000E+00 -0.1749372E-03
 -0.5050482E-02  0.0000000E+00 -0.5050505E-02  0.1035599E-06  0.0000000E+00 -0.1747366E-03
 -0.5050449E-02  0.0000000E+00 -0.5050505E-02  0.1141497E-06  0.0000000E+00 -0.1745143E-03
 -0.5050376E-02  0.0000000E+00 -0.5050505E-02  0.1246372E-06  0.0000000E+00 -0.1742705E-03
 -0.5050299E-02  0.0000000E+00 -0.5050505E-02  0.1350078E-06  0.0000000E+00 -0.1740054E-03
 -0.5050178E-02  0.0000000E+00 -0.5050505E-02  0.1452459E-06  0.0000000E+00 -0.1737192E-03
 -0.5050018E-02  0.0000000E+00 -0.5050505E-02  0.1553341E-06  0.0000000E+00 -0.1734123E-03
 -0.5049710E-02  0.0000000E+00 -0.5050505E-02  0.1652531E-06  0.0000000E+00 -0.1730850E-03
 -0.5049253E-02  0.0000000E+00 -0.5050505E-02  0.1749820E-06  0.0000000E+00 -0.1727376E-03
 -0.5048636E-02  0.0000000E+00 -0.5050505E-02  0.1844974E-06  0.0000000E+00 -0.1723707E-03
 -0.5047442E-02  0.0000000E+00 -0.5050505E-02  0.1937736E-06  0.0000000E+00 -0.1719845E-03
 -0.5045727E-02  0.0000000E+00 -0.5050505E-02  0.2027823E-06  0.0000000E+00 -0.1715797E-03
 -0.5043261E-02  0.0000000E+00 -0.5050505E-02  0.2114925E-06  0.0000000E+00 -0.1711568E-03
 -0.5038714E-02  0.0000000E+00 -0.5050505E-02  0.2198703E-06  0.0000000E+00 -0.1707166E-03
 -0.5032318E-02  0.0000000E+00 -0.5050505E-02  0.2278787E-06  0.0000000E+00 -0.1702596E-03
 -0.5022454E-02  0.0000000E+00 -0.5050505E-02  0.2354776E-06  0.0000000E+00 -0.1697867E-03
 -0.5012589E-02  0.0000000E+00 -0.5050505E-02  0.2426238E-06  0.0000000E+00 -0.1692988E-03
 -0.5002725E-02  0.0000000E+00 -0.5050505E-02  0.2492711E-06  0.0000000E+00 -0.1687968E-03
 -0.4992860E-02  0.0000000E+00 -0.5050505E-02  0.2553706E-06  0.0000000E+00 -0.1682819E-03
 -0.4976523E-02  0.0000000E+00 -0.5050505E-02  0.2608709E-06  0.0000000E+00 -0.1677551E-03
 -0.4956794E-02  0.0000000E+00 -0.5050505E-02  0.2657187E-06  0.0000000E+00 -0.1672179E-03
 -0.4937066E-02  0.0000000E+00 -0.5050505E-02  0.2698595E-06  0.0000000E+00 -0.1666715E-03
 -0.4906239E-02  0.0000000E+00 -0.5050505E-02  0.2732386E-06  0.0000000E+00 -0.1661175E-03
 -0.4866782E-02  0.0000000E+00 -0.5050505E-02  0.2758022E-06  0.0000000E+00 -0.1655574E-03
 -0.4827325E-02  0.0000000E+00 -0.5050505E-02  0.2774988E-06  0.0000000E+00 -0.1649930E-03
 -0.4769372E-02  0.0000000E+00 -0.5050505E-02  0.2782808E-06  0.0000000E+00 -0.1644262E-03
 -0.4690458E-02  0.0000000E+00 -0.5050505E-02  0.2781061E-06  0.0000000E+00 -0.1638587E-03
 -0.4611543E-02  0.0000000E+00 -0.5050505E-02  0.2769400E-06  0.0000000E+00 -0.1632927E-03
 -0.4503035E-02  0.0000000E+00 -0.5050505E-02  0.2747567E-06  0.0000000E+00 -0.1627301E-03
 -0.4345206E-02  0.0000000E+00 -0.5050505E-02  0.2715409E-06  0.0000000E+00 -0.1621731E-03
 -0.4187378E-02  0.0000000E+00 -0.5050505E-02  0.2672888E-06  0.0000000E+00 -0.1616237E-03
 -0.3985156E-02  0.0000000E+00 -0.5050505E-02  0.2620091E-06  0.0000000E+00 -0.1610841E-03
 -0.3669499E-02  0.0000000E+00 -0.5050505E-02  0.2557223E-06  0.0000000E+00 -0.1605562E-03
 -0.3353842E-02  0.0000000E+00 -0.5050505E-02  0.2484609E-06  0.0000000E+00 -0.1600423E-03
 -0.2978990E-02  0.0000000E+00 -0.5050505E-02  0.2402669E-06  0.0000000E+00 -0.1595441E-03
 -0.2347676E-02  0.0000000E+00 -0.5050505E-02  0.2311904E-06  0.0000000E+00 -0.1590635E-03
 -0.1716362E-02  0.0000000E+00 -0.5050505E-02  0.2212862E-06  0.0000000E+00 -0.1586024E-03
 -0.1025842E-02  0.0000000E+00 -0.5050505E-02  0.2106102E-06  0.0000000E+00 -0.1581622E-03
  0.2367855E-03  0.0000000E+00 -0.5050505E-02  0.1992154E-06  0.0000000E+00 -0.1577445E-03
  0.1499413E-02  0.0000000E+00 -0.5050505E-02  0.1871470E-06  0.0000000E+00 -0.1573508E-03
  0.2762042E-02  0.0000000E+00 -0.5050505E-02  0.1744372E-06  0.0000000E+00 -0.1569823E-03
 -0.5050505E-02  0.0000000E+00 -0.5050505E-02  0.1610991E-06  0.0000000E+00 -0.1566404E-03
 -0.5050505E-02  0.0000000E+00 -0.5050505E-02  0.1471205E-06  0.0000000E+00 -0.1563263E-03
 -0.5050505E-02  0.0000000E+00 -0.5050505E-02  0.1324559E-06  0.0000000E+00 -0.1560415E-03
 -0.5050505E-02  0.0000000E+00 -0.5050505E-02  0.1170188E-06  0.0000000E+00 -0.1557873E-03
 -0.5050505E-02  0.0000000E+00 -0.5050505E-02  0.1006731E-06  0.0000000E+00 -0.1555655E-03
 -0.5050505E-02  0.0000000E+00 -0.5050505E-02  0.8322573E-07  0.0000000E+00 -0.1553781E-03
 -0.5050505E-02  0.0000000E+00 -0.5050505E-02  0.6442212E-07  0.0000000E+00 -0.1552277E-03
 -0.5050504E-02  0.0000000E+00 -0.5050505E-02  0.4394922E-07  0.0000000E+00 -0.1551173E-03
 -0.5050501E-02  0.0000000E+00 -0.5050505E-02  0.2145217E-07  0.0000000E+00 -0.1550506E-03
 -0.5050495E-02  0.0000000E+00 -0.5050505E-02 -0.3425873E-08  0.0000000E+00 -0.1550323E-03
 -0.5050482E-02  0.0000000E+00 -0.5050505E-02 -0.3097033E-07  0.0000000E+00 -0.1550673E-03
 -0.5050449E-02  0.0000000E+00 -0.5050505E-02 -0.6128137E-07  0.0000000E+00 -0.1551613E-03
 -0.5050376E-02  0.0000000E+00 -0.5050505E-02 -0.9412625E-07  0.0000000E+00 -0.1553196E-03
 -0.5050299E-02  0.0000000E+00 -0.5050505E-02 -0.1287932E-06  0.0000000E+00 -0.1555467E-03
 -0.5050178E-02  0.0000000E+00 -0.5050505E-02 -0.1640237E-06  0.0000000E+00 -0.1558451E-03
 -0.5050018E-02  0.0000000E+00 -0.5050505E-02 -0.1981252E-06  0.0000000E+00 -0.1562141E-03
 -0.5049710E-02  0.0000000E+00 -0.5050505E-02 -0.2293102E-06  0.0000000E+00 -0.1566496E-03
 -0.5049253E-02  0.0000000E+00 -0.5050505E-02 -0.2561399E-06  0.0000000E+00 -0.1571443E-03
 -0.5048636E-02  0.0000000E+00 -0.5050505E-02 -0.2778003E-06  0.0000000E+00 -0.1576884E-03
 -0.5047442E-02  0.0000000E+00 -0.5050505E-02 -0.2941192E-06  0.0000000E+00 -0.1582713E-03
 -0.5045727E-02  0.0000000E+00 -0.5050505E-02 -0.3054103E-06  0.0000000E+00 -0.1588823E-03
 -0.5043261E-02  0.0000000E+00 -0.5050505E-02 -0.3122672E-06  0.0000000E+00 -0.1595119E-03
 -0.5038714E-02  0.0000000E+00 -0.5050505E-02 -0.3153878E-06  0.0000000E+00 -0.1601517E-03
 -0.5032318E-02  0.0000000E+00 -0.5050505E-02 -0.3154575E-06  0.0000000E+00 -0.1607948E-03
 -0.5022454E-02  0.0000000E+00 -0.5050505E-02 -0.3130871E-06  0.0000000E+00 -0.1614356E-03
 -0.5012589E-02  0.0000000E+00 -0.5050505E-02 -0.3087900E-06  0.0000000E+00 -0.1620696E-03
 -0.5002725E-02  0.0000000E+00 -0.5050505E-02 -0.3029814E-06  0.0000000E+00 -0.1626934E-03
 -0.4992860E-02  0.0000000E+00 -0.5050505E-02 -0.2959901E-06  0.0000000E+00 -0.1633042E-03
 -0.4976523E-02  0.0000000E+00 -0.5050505E-02 -0.2880738E-06  0.0000000E+00 -0.1638998E-03
 -0.4956794E-02  0.0000000E+00 -0.5050505E-02 -0.2794346E-06  0.0000000E+00 -0.1644786E-03
 -0.4937066E-02  0.0000000E+00 -0.5050505E-02 -0.2702334E-06  0.0000000E+00 -0.1650393E-03
 -0.4906239E-02  0.0000000E+00 -0.5050505E-02 -0.2606028E-06  0.0000000E+00 -0.1655807E-03
 -0.4866782E-02  0.0000000E+00 -0.5050505E-02 -0.2506592E-06  0.0000000E+00 -0.1661022E-03
 -0.4827325E-02  0.0000000E+00 -0.5050505E-02 -0.2405142E-06  0.0000000E+00 -0.1666033E-03
 -0.4769372E-02  0.0000000E+00 -0.5050505E-02 -0.2302878E-06  0.0000000E+00 -0.1670836E-03
 -0.4690458E-02  0.0000000E+00 -0.5050505E-02 -0.2201250E-06  0.0000000E+00 -0.1675431E-03
 -0.4611543E-02  0.0000000E+00 -0.5050505E-02 -0.2102187E-06  0.0000000E+00 -0.1679822E-03
 -0.4503035E-02  0.0000000E+00 -0.5050505E-02 -0.2008467E-06  0.0000000E+00 -0.1684017E-03
 -0.4345206E-02  0.0000000E+00 -0.5050505E-02 -0.1924324E-06  0.0000000E+00 -0.1688030E-03
 -0.4187378E-02  0.0000000E+00 -0.5050505E-02 -0.1856539E-06  0.0000000E+00 -0.1691888E-03
 -0.3985156E-02  0.0000000E+00 -0.5050505E-02 -0.1816506E-06  0.0000000E+00 -0.1695636E-03
 -0.3669499E-02  0.0000000E+00 -0.5050505E-02 -0.1824380E-06  0.0000000E+00 -0.1699352E-03
 -0.3353842E-02  0.0000000E+00 -0.5050505E-02 -0.1918025E-06  0.0000000E+00 -0.1703171E-03
 -0.2978990E-02  0.0000000E+00 -0.5050505E-02 -0.2173777E-06  0.0000000E+00 -0.1707348E-03
 -0.2347676E-02  0.0000000E+00 -0.5050505E-02 -0.2758927E-06  0.0000000E+00 -0.1712382E-03
 -0.1716362E-02  0.0000000E+00 -0.5050505E-02 -0.4077065E-06  0.0000000E+00 -0.1719360E-03
 -0.1025842E-02  0.0000000E+00 -0.5050505E-02 -0.7210445E-06  0.0000000E+00 -0.1730883E-03
  0.2367855E-03  0.0000000E+00 -0.5050505E-02 -0.1539644E-05  0.0000000E+00 -0.1753965E-03
  0.1499413E-02  0.0000000E+00 -0.5050505E-02 -0.3939056E-05  0.0000000E+00 -0.1809920E-03
  0.5287294E-02  0.0000000E+00 -0.5050505E-02 -0.6391364E-04  0.0000000E+00 -0.1445500E-03
 -0.5050505E-02  0.0000000E+00 -0.5050505E-02  0.1655262E-07  0.0000000E+00 -0.1756107E-03
 -0.5050505E-02  0.0000000E+00 -0.5050505E-02  0.4964598E-07  0.0000000E+00 -0.1755880E-03
 -0.5050505E-02  0.0000000E+00 -0.5050505E-02  0.8270358E-07  0.0000000E+00 -0.1755428E-03
 -0.5050505E-02  0.0000000E+00 -0.5050505E-02  0.1157012E-06  0.0000000E+00 -0.1754750E-03
 -0.5050505E-02  0.0000000E+00 -0.5050505E-02  0.1486139E-06  0.0000000E+00 -0.1753846E-03
 -0.5050505E-02  0.0000000E+00 -0.5050505E-02  0.1814158E-06  0.0000000E+00 -0.1752718E-03
 -0.5050504E-02  0.0000000E+00 -0.5050505E-02  0.2140798E-06  0.0000000E+00 -0.1751366E-03
 -0.5050501E-02  0.0000000E+00 -0.5050505E-02  0.2465771E-06  0.0000000E+00 -0.1749792E-03
 -0.5050495E-02  0.0000000E+00 -0.5050505E-02  0.2788768E-06  0.0000000E+00 -0.1747996E-03
 -0.5050482E-02  0.0000000E+00 -0.5050505E-02  0.3109460E-06  0.0000000E+00 -0.1745979E-03
 -0.5050449E-02  0.0000000E+00 -0.5050505E-02  0.3427485E-06  0.0000000E+00 -0.1743745E-03
 -0.5050376E-02  0.0000000E+00 -0.5050505E-02  0.3742453E-06  0.0000000E+00 -0.1741294E-03
 -0.5050299E-02  0.0000000E+00 -0.5050505E-02  0.4053934E-06  0.0000000E+00 -0.1738629E-03
 -0.5050178E-02  0.0000000E+00 -0.5050505E-02  0.4361456E-06  0.0000000E+00 -0.1735753E-03
 -0.5050018E-02  0.0000000E+00 -0.5050505E-02  0.4664502E-06  0.0000000E+00 -0.1732667E-03
 -0.5049710E-02  0.0000000E+00 -0.5050505E-02  0.4962498E-06  0.0000000E+00 -0.1729376E-03
 -0.5049253E-02  0.0000000E+00 -0.5050505E-02  0.5254813E-06  0.0000000E+00 -0.1725884E-03
 -0.5048636E-02  0.0000000E+00 -0.5050505E-02  0.5540748E-06  0.0000000E+00 -0.1722193E-03
 -0.5047442E-02  0.0000000E+00 -0.5050505E-02  0.5819535E-06  0.0000000E+00 -0.1718310E-03
 -0.5045727E-02  0.0000000E+00 -0.5050505E-02  0.6090326E-06  0.0000000E+00 -0.1714238E-03
 -0.5043261E-02  0.0000000E+00 -0.5050505E-02  0.6352192E-06  0.0000000E+00 -0.1709985E-03
 -0.5038714E-02  0.0000000E+00 -0.5050505E-02  0.6604114E-06  0.0000000E+00 -0.1705555E-03
 -0.5032318E-02  0.0000000E+00 -0.5050505E-02  0.6844983E-06  0.0000000E+00 -0.1700957E-03
 -0.5022454E-02  0.0000000E+00 -0.5050505E-02  0.7073595E-06  0.0000000E+00 -0.1696198E-03
 -0.5012589E-02  0.0000000E+00 -0.5050505E-02  0.7288653E-06  0.0000000E+00 -0.1691287E-03
 -0.5002725E-02  0.0000000E+00 -0.5050505E-02  0.7488766E-06  0.0000000E+00 -0.1686234E-03
 -0.4992860E-02  0.0000000E+00 -0.5050505E-02  0.7672460E-06  0.0000000E+00 -0.1681049E-03
 -0.4976523E-02  0.0000000E+00 -0.5050505E-02  0.7838186E-06  0.0000000E+00 -0.1675745E-03
 -0.4956794E-02  0.0000000E+00 -0.5050505E-02  0.7984335E-06  0.0000000E+00 -0.1670334E-03
 -0.4937066E-02  0.0000000E+00 -0.5050505E-02  0.8109262E-06  0.0000000E+00 -0.1664829E-03
 -0.4906239E-02  0.0000000E+00 -0.5050505E-02  0.8211310E-06  0.0000000E+00 -0.1659247E-03
 -0.4866782E-02  0.0000000E+00 -0.5050505E-02  0.8288850E-06  0.0000000E+00 -0.1653603E-03
 -0.4827325E-02  0.0000000E+00 -0.5050505E-02  0.8340318E-06  0.0000000E+00 -0.1647915E-03
 -0.4769372E-02  0.0000000E+00 -0.5050505E-02  0.8364269E-06  0.0000000E+00 -0.1642200E-03
 -0.4690458E-02  0.0000000E+00 -0.5050505E-02  0.8359419E-06  0.0000000E+00 -0.1636479E-03
 -0.4611543E-02  0.0000000E+00 -0.5050505E-02  0.8324709E-06  0.0000000E+00 -0.1630771E-03
 -0.4503035E-02  0.0000000E+00 -0.5050505E-02  0.8259350E-06  0.0000000E+00 -0.1625097E-03
 -0.4345206E-02  0.0000000E+00 -0.5050505E-02  0.8162871E-06  0.0000000E+00 -0.1619479E-03
 -0.4187378E-02  0.0000000E+00 -0.5050505E-02  0.8035158E-06  0.0000000E+00 -0.1613937E-03
 -0.3985156E-02  0.0000000E+00 -0.5050505E-02  0.7876467E-06  0.0000000E+00 -0.1608494E-03
 -0.3669499E-02  0.0000000E+00 -0.5050505E-02  0.7687433E-06  0.0000000E+00 -0.1603170E-03
 -0.3353842E-02  0.0000000E+00 -0.5050505E-02  0.7469040E-06  0.0000000E+00 -0.1597986E-03
 -0.2978990E-02  0.0000000E+00 -0.5050505E-02  0.7222586E-06  0.0000000E+00 -0.1592961E-03
 -0.2347676E-02  0.0000000E+00 -0.5050505E-02  0.6949605E-06  0.0000000E+00 -0.1588115E-03
 -0.1716362E-02  0.0000000E+00 -0.5050505E-02  0.6651784E-06  0.0000000E+00 -0.1583464E-03
 -0.1025842E-02  0.0000000E+00 -0.5050505E-02  0.6330850E-06  0.0000000E+00 -0.1579024E-03
  0.2367855E-03  0.0000000E+00 -0.5050505E-02  0.5988448E-06  0.0000000E+00 -0.1574812E-03
  0.1499413E-02  0.0000000E+00 -0.5050505E-02  0.5625992E-06  0.0000000E+00 -0.1570841E-03
  0.2762042E-02  0.0000000E+00 -0.5050505E-02  0.5244515E-06  0.0000000E+00 -0.1567123E-03
 -0.5050505E-02  0.0000000E+00 -0.5050505E-02  0.4844484E-06  0.0000000E+00 -0.1563672E-03
 -0.5050505E-02  0.0000000E+00 -0.5050505E-02  0.4425605E-06  0.0000000E+00 -0.1560500E-03
 -0.5050505E-02  0.0000000E+00 -0.5050505E-02  0.3986595E-06  0.0000000E+00 -0.1557618E-03
 -0.5050505E-02  0.0000000E+00 -0.5050505E-02  0.3524934E-06  0.0000000E+00 -0.1555042E-03
 -0.5050505E-02  0.0000000E+00 -0.5050505E-02  0.3036602E-06  0.0000000E+00 -0.1552787E-03
 -0.5050505E-02  0.0000000E+00 -0.5050505E-02  0.2515822E-06  0.0000000E+00 -0.1550872E-03
 -0.5050505E-02  0.0000000E+00 -0.5050505E-02  0.1954892E-06  0.0000000E+00 -0.1549322E-03
 -0.5050504E-02  0.0000000E+00 -0.5050505E-02  0.1344200E-06  0.0000000E+00 -0.1548167E-03
 -0.5050501E-02  0.0000000E+00 -0.5050505E-02  0.6726362E-07  0.0000000E+00 -0.1547443E-03
 -0.5050495E-02  0.0000000E+00 -0.5050505E-02 -0.7131464E-08  0.0000000E+00 -0.1547197E-03
 -0.5050482E-02  0.0000000E+00 -0.5050505E-02 -0.8974299E-07  0.0000000E+00 -0.1547484E-03
 -0.5050449E-02  0.0000000E+00 -0.5050505E-02 -0.1810248E-06  0.0000000E+00 -0.1548365E-03
 -0.5050376E-02  0.0000000E+00 -0.5050505E-02 -0.2804259E-06  0.0000000E+00 -0.1549904E-03
 -0.5050299E-02  0.0000000E+00 -0.5050505E-02 -0.3858730E-06  0.0000000E+00 -0.1552156E-03
 -0.5050178E-02  0.0000000E+00 -0.5050505E-02 -0.4934664E-06  0.0000000E+00 -0.1555156E-03
 -0.5050018E-02  0.0000000E+00 -0.5050505E-02 -0.5977712E-06  0.0000000E+00 -0.1558904E-03
 -0.5049710E-02  0.0000000E+00 -0.5050505E-02 -0.6929635E-06  0.0000000E+00 -0.1563356E-03
 -0.5049253E-02  0.0000000E+00 -0.5050505E-02 -0.7744346E-06  0.0000000E+00 -0.1568428E-03
 -0.5048636E-02  0.0000000E+00 -0.5050505E-02 -0.8397138E-06  0.0000000E+00 -0.1574009E-03
 -0.5047442E-02  0.0000000E+00 -0.5050505E-02 -0.8884373E-06  0.0000000E+00 -0.1579978E-03
 -0.5045727E-02  0.0000000E+00 -0.5050505E-02 -0.9217549E-06  0.0000000E+00 -0.1586222E-03
 -0.5043261E-02  0.0000000E+00 -0.5050505E-02 -0.9416297E-06  0.0000000E+00 -0.1592639E-03
 -0.5038714E-02  0.0000000E+00 -0.5050505E-02 -0.9502808E-06  0.0000000E+00 -0.1599144E-03
 -0.5032318E-02  0.0000000E+00 -0.5050505E-02 -0.9498351E-06  0.0000000E+00 -0.1605669E-03
 -0.5022454E-02  0.0000000E+00 -0.5050505E-02 -0.9421555E-06  0.0000000E+00 -0.1612157E-03
 -0.5012589E-02  0.0000000E+00 -0.5050505E-02 -0.9287871E-06  0.0000000E+00 -0.1618568E-03
 -0.5002725E-02  0.0000000E+00 -0.5050505E-02 -0.9109688E-06  0.0000000E+00 -0.1624867E-03
 -0.4992860E-02  0.0000000E+00 -0.5050505E-02 -0.8896744E-06  0.0000000E+00 -0.1631028E-03
 -0.4976523E-02  0.0000000E+00 -0.5050505E-02 -0.8656625E-06  0.0000000E+00 -0.1637031E-03
 -0.4956794E-02  0.0000000E+00 -0.5050505E-02 -0.8395258E-06  0.0000000E+00 -0.1642860E-03
 -0.4937066E-02  0.0000000E+00 -0.5050505E-02 -0.8117345E-06  0.0000000E+00 -0.1648504E-03
 -0.4906239E-02  0.0000000E+00 -0.5050505E-02 -0.7826748E-06  0.0000000E+00 -0.1653951E-03
 -0.4866782E-02  0.0000000E+00 -0.5050505E-02 -0.7526838E-06  0.0000000E+00 -0.1659195E-03
 -0.4827325E-02  0.0000000E+00 -0.5050505E-02 -0.7220831E-06  0.0000000E+00 -0.1664231E-03
 -0.4769372E-02  0.0000000E+00 -0.5050505E-02 -0.6912158E-06  0.0000000E+00 -0.1669055E-03
 -0.4690458E-02  0.0000000E+00 -0.5050505E-02 -0.6604931E-06  0.0000000E+00 -0.1673667E-03
 -0.4611543E-02  0.0000000E+00 -0.5050505E-02 -0.6304574E-06  0.0000000E+00 -0.1678068E-03
 -0.4503035E-02  0.0000000E+00 -0.5050505E-02 -0.6018807E-06  0.0000000E+00 -0.1682264E-03
 -0.4345206E-02  0.0000000E+00 -0.5050505E-02 -0.5759248E-06  0.0000000E+00 -0.1686267E-03
 -0.4187378E-02  0.0000000E+00 -0.5050505E-02 -0.5544191E-06  0.0000000E+00 -0.1690094E-03
 -0.3985156E-02  0.0000000E+00 -0.5050505E-02 -0.5403703E-06  0.0000000E+00 -0.1693779E-03
 -0.3669499E-02  0.0000000E+00 -0.5050505E-02 -0.5389419E-06  0.0000000E+00 -0.1697372E-03
 -0.3353842E-02  0.0000000E+00 -0.5050505E-02 -0.5594443E-06  0.0000000E+00 -0.1700953E-03
 -0.2978990E-02  0.0000000E+00 -0.5050505E-02 -0.6196088E-06  0.0000000E+00 -0.1704645E-03
 -0.2347676E-02  0.0000000E+00 -0.5050505E-02 -0.7553241E-06  0.0000000E+00 -0.1708622E-03
 -0.1716362E-02  0.0000000E+00 -0.5050505E-02 -0.1044185E-05  0.0000000E+00 -0.1713053E-03
 -0.1025842E-02  0.0000000E+00 -0.5050505E-02 -0.1665846E-05  0.0000000E+00 -0.1717702E-03
  0.2367855E-03  0.0000000E+00 -0.5050505E-02 -0.3065012E-05  0.0000000E+00 -0.1719904E-03
  0.1499413E-02  0.0000000E+00 -0.5050505E-02 -0.6410234E-05  0.0000000E+00 -0.1704948E-03
  0.5287294E-02  0.0000000E+00 -0.5050505E-02 -0.1491726E-04  0.0000000E+00 -0.1601221E-03
 -0.5050505E-02  0.0000000E+00 -0.5050505E-02  0.2764424E-07  0.0000000E+00 -0.1753468E-03
 -0.5050505E-02  0.0000000E+00 -0.5050505E-02  0.8291316E-07  0.0000000E+00 -0.1753239E-03
 -0.5050505E-02  0.0000000E+00 -0.5050505E-02  0.1381231E-06  0.0000000E+00 -0.1752783E-03
 -0.5050505E-02  0.0000000E+00 -0.5050505E-02  0.1932341E-06  0.0000000E+00 -0.1752098E-03
 -0.5050505E-02  0.0000000E+00 -0.5050505E-02  0.2482051E-06  0.0000000E+00 -0.1751186E-03
 -0.5050505E-02  0.0000000E+00 -0.5050505E-02  0.3029934E-06  0.0000000E+00 -0.1750046E-03
 -0.5050504E-02  0.0000000E+00 -0.5050505E-02  0.3575542E-06  0.0000000E+00 -0.1748681E-03
 -0.5050501E-02  0.0000000E+00 -0.5050505E-02  0.4118398E-06  0.0000000E+00 -0.1747091E-03
 -0.5050495E-02  0.0000000E+00 -0.5050505E-02  0.4657996E-06  0.0000000E+00 -0.1745277E-03
 -0.5050482E-02  0.0000000E+00 -0.5050505E-02  0.5193788E-06  0.0000000E+00 -0.1743241E-03
 -0.5050449E-02  0.0000000E+00 -0.5050505E-02  0.5725179E-06  0.0000000E+00 -0.1740984E-03
 -0.5050376E-02  0.0000000E+00 -0.5050505E-02  0.6251522E-06  0.0000000E+00 -0.1738508E-03
 -0.5050299E-02  0.0000000E+00 -0.5050505E-02  0.6772108E-06  0.0000000E+00 -0.1735816E-03
 -0.5050178E-02  0.0000000E+00 -0.5050505E-02  0.7286157E-06  0.0000000E+00 -0.1732910E-03
 -0.5050018E-02  0.0000000E+00 -0.5050505E-02  0.7792809E-06  0.0000000E+00 -0.1729792E-03
 -0.5049710E-02  0.0000000E+00 -0.5050505E-02  0.8291116E-06  0.0000000E+00 -0.1726466E-03
 -0.5049253E-02  0.0000000E+00 -0.5050505E-02  0.8780031E-06  0.0000000E+00 -0.1722935E-03
 -0.5048636E-02  0.0000000E+00 -0.5050505E-02  0.9258395E-06  0.0000000E+00 -0.1719204E-03
 -0.5047442E-02  0.0000000E+00 -0.5050505E-02  0.9724931E-06  0.0000000E+00 -0.1715276E-03
 -0.5045727E-02  0.0000000E+00 -0.5050505E-02  0.1017823E-05  0.0000000E+00 -0.1711158E-03
 -0.5043261E-02  0.0000000E+00 -0.5050505E-02  0.1061675E-05  0.0000000E+00 -0.1706854E-03
 -0.5038714E-02  0.0000000E+00 -0.5050505E-02  0.1103878E-05  0.0000000E+00 -0.1702372E-03
 -0.5032318E-02  0.0000000E+00 -0.5050505E-02  0.1144249E-05  0.0000000E+00 -0.1697717E-03
 -0.5022454E-02  0.0000000E+00 -0.5050505E-02  0.1182585E-05  0.0000000E+00 -0.1692899E-03
 -0.5012589E-02  0.0000000E+00 -0.5050505E-02  0.1218669E-05  0.0000000E+00 -0.1687925E-03
 -0.5002725E-02  0.0000000E+00 -0.5050505E-02  0.1252269E-05  0.0000000E+00 -0.1682805E-03
 -0.4992860E-02  0.0000000E+00 -0.5050505E-02  0.1283137E-05  0.0000000E+00 -0.1677550E-03
 -0.4976523E-02  0.0000000E+00 -0.5050505E-02  0.1311012E-05  0.0000000E+00 -0.1672172E-03
 -0.4956794E-02  0.0000000E+00 -0.5050505E-02  0.1335622E-05  0.0000000E+00 -0.1666684E-03
 -0.4937066E-02  0.0000000E+00 -0.5050505E-02  0.1356689E-05  0.0000000E+00 -0.1661099E-03
 -0.4906239E-02  0.0000000E+00 -0.5050505E-02  0.1373933E-05  0.0000000E+00 -0.1655433E-03
 -0.4866782E-02  0.0000000E+00 -0.5050505E-02  0.1387076E-05  0.0000000E+00 -0.1649702E-03
 -0.4827325E-02  0.0000000E+00 -0.5050505E-02  0.1395851E-05  0.0000000E+00 -0.1643924E-03
 -0.4769372E-02  0.0000000E+00 -0.5050505E-02  0.1400011E-05  0.0000000E+00 -0.1638117E-03
 -0.4690458E-02  0.0000000E+00 -0.5050505E-02  0.1399335E-05  0.0000000E+00 -0.1632302E-03
 -0.4611543E-02  0.0000000E+00 -0.5050505E-02  0.1393641E-05  0.0000000E+00 -0.1626499E-03
 -0.4503035E-02  0.0000000E+00 -0.5050505E-02  0.1382791E-05  0.0000000E+00 -0.1620730E-03
 -0.4345206E-02  0.0000000E+00 -0.5050505E-02  0.1366704E-05  0.0000000E+00 -0.1615016E-03
 -0.4187378E-02  0.0000000E+00 -0.5050505E-02  0.1345358E-05  0.0000000E+00 -0.1609379E-03
 -0.3985156E-02  0.0000000E+00 -0.5050505E-02  0.1318797E-05  0.0000000E+00 -0.1603842E-03
 -0.3669499E-02  0.0000000E+00 -0.5050505E-02  0.1287130E-05  0.0000000E+00 -0.1598426E-03
 -0.3353842E-02  0.0000000E+00 -0.5050505E-02  0.1250528E-05  0.0000000E+00 -0.1593153E-03
 -0.2978990E-02  0.0000000E+00 -0.5050505E-02  0.1209218E-05  0.0000000E+00 -0.1588043E-03
 -0.2347676E-02  0.0000000E+00 -0.5050505E-02  0.1163466E-05  0.0000000E+00 -0.1583114E-03
 -0.1716362E-02  0.0000000E+00 -0.5050505E-02  0.1113568E-05  0.0000000E+00 -0.1578385E-03
 -0.1025842E-02  0.0000000E+00 -0.5050505E-02  0.1059830E-05  0.0000000E+00 -0.1573871E-03
  0.2367855E-03  0.0000000E+00 -0.5050505E-02  0.1002543E-05  0.0000000E+00 -0.1569588E-03
  0.1499413E-02  0.0000000E+00 -0.5050505E-02  0.9419635E-06  0.0000000E+00 -0.1565550E-03
  0.2762042E-02  0.0000000E+00 -0.5050505E-02  0.8782854E-06  0.0000000E+00 -0.1561767E-03
 -0.5050505E-02  0.0000000E+00 -0.5050505E-02  0.8116104E-06  0.0000000E+00 -0.1558253E-03
 -0.5050505E-02  0.0000000E+00 -0.5050505E-02  0.7419154E-06  0.0000000E+00 -0.1555017E-03
 -0.5050505E-02  0.0000000E+00 -0.5050505E-02  0.6690137E-06  0.0000000E+00 -0.1552072E-03
 -0.5050505E-02  0.0000000E+00 -0.5050505E-02  0.5925123E-06  0.0000000E+00 -0.1549428E-03
 -0.5050505E-02  0.0000000E+00 -0.5050505E-02  0.5117634E-06  0.0000000E+00 -0.1547101E-03
 -0.5050505E-02  0.0000000E+00 -0.5050505E-02  0.4258148E-06  0.0000000E+00 -0.1545105E-03
 -0.5050505E-02  0.0000000E+00 -0.5050505E-02  0.3333664E-06  0.0000000E+00 -0.1543464E-03
 -0.5050504E-02  0.0000000E+00 -0.5050505E-02  0.2327514E-06  0.0000000E+00 -0.1542205E-03
 -0.5050501E-02  0.0000000E+00 -0.5050505E-02  0.1219719E-06  0.0000000E+00 -0.1541364E-03
 -0.5050495E-02  0.0000000E+00 -0.5050505E-02 -0.1157310E-08  0.0000000E+00 -0.1540990E-03
 -0.5050482E-02  0.0000000E+00 -0.5050505E-02 -0.1386814E-06  0.0000000E+00 -0.1541143E-03
 -0.5050449E-02  0.0000000E+00 -0.5050505E-02 -0.2919084E-06  0.0000000E+00 -0.1541898E-03
 -0.5050376E-02  0.0000000E+00 -0.5050505E-02 -0.4604905E-06  0.0000000E+00 -0.1543335E-03
 -0.5050299E-02  0.0000000E+00 -0.5050505E-02 -0.6412799E-06  0.0000000E+00 -0.1545537E-03
 -0.5050178E-02  0.0000000E+00 -0.5050505E-02 -0.8274023E-06  0.0000000E+00 -0.1548565E-03
 -0.5050018E-02  0.0000000E+00 -0.5050505E-02 -0.1008475E-05  0.0000000E+00 -0.1552432E-03
 -0.5049710E-02  0.0000000E+00 -0.5050505E-02 -0.1172971E-05  0.0000000E+00 -0.1557089E-03
 -0.5049253E-02  0.0000000E+00 -0.5050505E-02 -0.1312133E-05  0.0000000E+00 -0.1562425E-03
 -0.5048636E-02  0.0000000E+00 -0.5050505E-02 -0.1421828E-05  0.0000000E+00 -0.1568297E-03
 -0.5047442E-02  0.0000000E+00 -0.5050505E-02 -0.1502082E-05  0.0000000E+00 -0.1574558E-03
 -0.5045727E-02  0.0000000E+00 -0.5050505E-02 -0.1555595E-05  0.0000000E+00 -0.1581075E-03
 -0.5043261E-02  0.0000000E+00 -0.5050505E-02 -0.1586281E-05  0.0000000E+00 -0.1587736E-03
 -0.5038714E-02  0.0000000E+00 -0.5050505E-02 -0.1598258E-05  0.0000000E+00 -0.1594456E-03
 -0.5032318E-02  0.0000000E+00 -0.5050505E-02 -0.1595294E-05  0.0000000E+00 -0.1601165E-03
 -0.5022454E-02  0.0000000E+00 -0.5050505E-02 -0.1580581E-05  0.0000000E+00 -0.1607814E-03
 -0.5012589E-02  0.0000000E+00 -0.5050505E-02 -0.1556703E-05  0.0000000E+00 -0.1614362E-03
 -0.5002725E-02  0.0000000E+00 -0.5050505E-02 -0.1525693E-05  0.0000000E+00 -0.1620781E-03
 -0.4992860E-02  0.0000000E+00 -0.5050505E-02 -0.1489128E-05  0.0000000E+00 -0.1627047E-03
 -0.4976523E-02  0.0000000E+00 -0.5050505E-02 -0.1448224E-05  0.0000000E+00 -0.1633143E-03
 -0.4956794E-02  0.0000000E+00 -0.5050505E-02 -0.1403924E-05  0.0000000E+00 -0.1639055E-03
 -0.4937066E-02  0.0000000E+00 -0.5050505E-02 -0.1356969E-05  0.0000000E+00 -0.1644771E-03
 -0.4906239E-02  0.0000000E+00 -0.5050505E-02 -0.1307965E-05  0.0000000E+00 -0.1650284E-03
 -0.4866782E-02  0.0000000E+00 -0.5050505E-02 -0.1257436E-05  0.0000000E+00 -0.1655586E-03
 -0.4827325E-02  0.0000000E+00 -0.5050505E-02 -0.1205875E-05  0.0000000E+00 -0.1660672E-03
 -0.4769372E-02  0.0000000E+00 -0.5050505E-02 -0.1153802E-05  0.0000000E+00 -0.1665539E-03
 -0.4690458E-02  0.0000000E+00 -0.5050505E-02 -0.1101829E-05  0.0000000E+00 -0.1670184E-03
 -0.4611543E-02  0.0000000E+00 -0.5050505E-02 -0.1050751E-05  0.0000000E+00 -0.1674607E-03
 -0.4503035E-02  0.0000000E+00 -0.5050505E-02 -0.1001673E-05  0.0000000E+00 -0.1678811E-03
 -0.4345206E-02  0.0000000E+00 -0.5050505E-02 -0.9562197E-06  0.0000000E+00 -0.1682799E-03
 -0.4187378E-02  0.0000000E+00 -0.5050505E-02 -0.9168668E-06  0.0000000E+00 -0.1686579E-03
 -0.3985156E-02  0.0000000E+00 -0.5050505E-02 -0.8875194E-06  0.0000000E+00 -0.1690164E-03
 -0.3669499E-02  0.0000000E+00 -0.5050505E-02 -0.8745250E-06  0.0000000E+00 -0.1693566E-03
 -0.3353842E-02  0.0000000E+00 -0.5050505E-02 -0.8885052E-06  0.0000000E+00 -0.1696797E-03
 -0.2978990E-02  0.0000000E+00 -0.5050505E-02 -0.9477036E-06  0.0000000E+00 -0.1699843E-03
 -0.2347676E-02  0.0000000E+00 -0.5050505E-02 -0.1084007E-05  0.0000000E+00 -0.1702606E-03
 -0.1716362E-02  0.0000000E+00 -0.5050505E-02 -0.1352928E-05  0.0000000E+00 -0.1704730E-03
 -0.1025842E-02  0.0000000E+00 -0.5050505E-02 -0.1845489E-05  0.0000000E+00 -0.1705142E-03
  0.2367855E-03  0.0000000E+00 -0.5050505E-02 -0.2677155E-05  0.0000000E+00 -0.1700953E-03
  0.1499413E-02  0.0000000E+00 -0.5050505E-02 -0.3812491E-05  0.0000000E+00 -0.1685739E-03
  0.5287294E-02  0.0000000E+00 -0.5050505E-02 -0.4039618E-05  0.0000000E+00 -0.1652895E-03
 -0.5050505E-02  0.0000000E+00 -0.5050505E-02  0.3884017E-07  0.0000000E+00 -0.1749560E-03
 -0.5050505E-02  0.0000000E+00 -0.5050505E-02  0.1164935E-06  0.0000000E+00 -0.1749328E-03
 -0.5050505E-02  0.0000000E+00 -0.5050505E-02  0.1940656E-06  0.0000000E+00 -0.1748865E-03
 -0.5050505E-02  0.0000000E+00 -0.5050505E-02  0.2715013E-06  0.0000000E+00 -0.1748170E-03
 -0.5050505E-02  0.0000000E+00 -0.5050505E-02  0.3487439E-06  0.0000000E+00 -0.1747245E-03
 -0.5050505E-02  0.0000000E+00 -0.5050505E-02  0.4257344E-06  0.0000000E+00 -0.1746090E-03
 -0.5050504E-02  0.0000000E+00 -0.5050505E-02  0.5024111E-06  0.0000000E+00 -0.1744705E-03
 -0.5050501E-02  0.0000000E+00 -0.5050505E-02  0.5787083E-06  0.0000000E+00 -0.1743092E-03
 -0.5050495E-02  0.0000000E+00 -0.5050505E-02  0.6545559E-06  0.0000000E+00 -0.1741251E-03
 -0.5050482E-02  0.0000000E+00 -0.5050505E-02  0.7298781E-06  0.0000000E+00 -0.1739185E-03
 -0.5050449E-02  0.0000000E+00 -0.5050505E-02  0.8045930E-06  0.0000000E+00 -0.1736895E-03
 -0.5050376E-02  0.0000000E+00 -0.5050505E-02  0.8786109E-06  0.0000000E+00 -0.1734382E-03
 -0.5050299E-02  0.0000000E+00 -0.5050505E-02  0.9518337E-06  0.0000000E+00 -0.1731648E-03
 -0.5050178E-02  0.0000000E+00 -0.5050505E-02  0.1024153E-05  0.0000000E+00 -0.1728697E-03
 -0.5050018E-02  0.0000000E+00 -0.5050505E-02  0.1095451E-05  0.0000000E+00 -0.1725531E-03
 -0.5049710E-02  0.0000000E+00 -0.5050505E-02  0.1165594E-05  0.0000000E+00 -0.1722152E-03
 -0.5049253E-02  0.0000000E+00 -0.5050505E-02  0.1234438E-05  0.0000000E+00 -0.1718565E-03
 -0.5048636E-02  0.0000000E+00 -0.5050505E-02  0.1301822E-05  0.0000000E+00 -0.1714773E-03
 -0.5047442E-02  0.0000000E+00 -0.5050505E-02  0.1367567E-05  0.0000000E+00 -0.1710780E-03
 -0.5045727E-02  0.0000000E+00 -0.5050505E-02  0.1431477E-05  0.0000000E+00 -0.1706592E-03
 -0.5043261E-02  0.0000000E+00 -0.5050505E-02  0.1493336E-05  0.0000000E+00 -0.1702214E-03
 -0.5038714E-02  0.0000000E+00 -0.5050505E-02  0.1552906E-05  0.0000000E+00 -0.1697652E-03
 -0.5032318E-02  0.0000000E+00 -0.5050505E-02  0.1609928E-05  0.0000000E+00 -0.1692914E-03
 -0.5022454E-02  0.0000000E+00 -0.5050505E-02  0.1664119E-05  0.0000000E+00 -0.1688006E-03
 -0.5012589E-02  0.0000000E+00 -0.5050505E-02  0.1715172E-05  0.0000000E+00 -0.1682937E-03
 -0.5002725E-02  0.0000000E+00 -0.5050505E-02  0.1762759E-05  0.0000000E+00 -0.1677718E-03
 -0.4992860E-02  0.0000000E+00 -0.5050505E-02  0.1806529E-05  0.0000000E+00 -0.1672358E-03
 -0.4976523E-02  0.0000000E+00 -0.5050505E-02  0.1846112E-05  0.0000000E+00 -0.1666870E-03
 -0.4956794E-02  0.0000000E+00 -0.5050505E-02  0.1881119E-05  0.0000000E+00 -0.1661266E-03
 -0.4937066E-02  0.0000000E+00 -0.5050505E-02  0.1911152E-05  0.0000000E+00 -0.1655560E-03