title = "dataset feddes"
variables = "x", "y", "z", "vx", "vy", "vz"
zone t = "velocities, solution time =  3.600E+01 days        " i =   99, j =   99, k =    1,  f=point
 -0.5050505E-02  0.0000000E+00 -0.5050505E-02  0.1018963E-09  0.0000000E+00 -0.2770700E-03
 -0.5050505E-02  0.0000000E+00 -0.5050505E-02  0.3053656E-09  0.0000000E+00 -0.2770695E-03
 -0.5050505E-02  0.0000000E+00 -0.5050505E-02  0.5078786E-09  0.0000000E+00 -0.2770687E-03
 -0.5050505E-02  0.0000000E+00 -0.5050505E-02  0.7087942E-09  0.0000000E+00 -0.2770674E-03
 -0.5050505E-02  0.0000000E+00 -0.5050505E-02  0.9074794E-09  0.0000000E+00 -0.2770658E-03
 -0.5050505E-02  0.0000000E+00 -0.5050505E-02  0.1103301E-08  0.0000000E+00 -0.2770637E-03
 -0.5050504E-02  0.0000000E+00 -0.5050505E-02  0.1295630E-08  0.0000000E+00 -0.2770612E-03
 -0.5050501E-02  0.0000000E+00 -0.5050505E-02  0.1483840E-08  0.0000000E+00 -0.2770583E-03
 -0.5050495E-02  0.0000000E+00 -0.5050505E-02  0.1667304E-08  0.0000000E+00 -0.2770551E-03
 -0.5050482E-02  0.0000000E+00 -0.5050505E-02  0.1845403E-08  0.0000000E+00 -0.2770515E-03
 -0.5050449E-02  0.0000000E+00 -0.5050505E-02  0.2017522E-08  0.0000000E+00 -0.2770475E-03
 -0.5050376E-02  0.0000000E+00 -0.5050505E-02  0.2183056E-08  0.0000000E+00 -0.2770431E-03
 -0.5050299E-02  0.0000000E+00 -0.5050505E-02  0.2341408E-08  0.0000000E+00 -0.2770385E-03
 -0.5050178E-02  0.0000000E+00 -0.5050505E-02  0.2491990E-08  0.0000000E+00 -0.2770335E-03
 -0.5050018E-02  0.0000000E+00 -0.5050505E-02  0.2634225E-08  0.0000000E+00 -0.2770282E-03
 -0.5049710E-02  0.0000000E+00 -0.5050505E-02  0.2767552E-08  0.0000000E+00 -0.2770226E-03
 -0.5049253E-02  0.0000000E+00 -0.5050505E-02  0.2891422E-08  0.0000000E+00 -0.2770167E-03
 -0.5048636E-02  0.0000000E+00 -0.5050505E-02  0.3005302E-08  0.0000000E+00 -0.2770106E-03
 -0.5047442E-02  0.0000000E+00 -0.5050505E-02  0.3108681E-08  0.0000000E+00 -0.2770043E-03
 -0.5045727E-02  0.0000000E+00 -0.5050505E-02  0.3201067E-08  0.0000000E+00 -0.2769978E-03
 -0.5043261E-02  0.0000000E+00 -0.5050505E-02  0.3281993E-08  0.0000000E+00 -0.2769911E-03
 -0.5038714E-02  0.0000000E+00 -0.5050505E-02  0.3351020E-08  0.0000000E+00 -0.2769843E-03
 -0.5032318E-02  0.0000000E+00 -0.5050505E-02  0.3407735E-08  0.0000000E+00 -0.2769773E-03
 -0.5022454E-02  0.0000000E+00 -0.5050505E-02  0.3451758E-08  0.0000000E+00 -0.2769702E-03
 -0.5012589E-02  0.0000000E+00 -0.5050505E-02  0.3482746E-08  0.0000000E+00 -0.2769630E-03
 -0.5002725E-02  0.0000000E+00 -0.5050505E-02  0.3500392E-08  0.0000000E+00 -0.2769558E-03
 -0.4992860E-02  0.0000000E+00 -0.5050505E-02  0.3504428E-08  0.0000000E+00 -0.2769486E-03
 -0.4976523E-02  0.0000000E+00 -0.5050505E-02  0.3494634E-08  0.0000000E+00 -0.2769413E-03
 -0.4956794E-02  0.0000000E+00 -0.5050505E-02  0.3470831E-08  0.0000000E+00 -0.2769341E-03
 -0.4937066E-02  0.0000000E+00 -0.5050505E-02  0.3432894E-08  0.0000000E+00 -0.2769270E-03
 -0.4906239E-02  0.0000000E+00 -0.5050505E-02  0.3380746E-08  0.0000000E+00 -0.2769200E-03
 -0.4866782E-02  0.0000000E+00 -0.5050505E-02  0.3314367E-08  0.0000000E+00 -0.2769130E-03
 -0.4827325E-02  0.0000000E+00 -0.5050505E-02  0.3233792E-08  0.0000000E+00 -0.2769063E-03
 -0.4769372E-02  0.0000000E+00 -0.5050505E-02  0.3139115E-08  0.0000000E+00 -0.2768997E-03
 -0.4690458E-02  0.0000000E+00 -0.5050505E-02  0.3030490E-08  0.0000000E+00 -0.2768933E-03
 -0.4611543E-02  0.0000000E+00 -0.5050505E-02  0.2908131E-08  0.0000000E+00 -0.2768872E-03
 -0.4503035E-02  0.0000000E+00 -0.5050505E-02  0.2772316E-08  0.0000000E+00 -0.2768813E-03
 -0.4345206E-02  0.0000000E+00 -0.5050505E-02  0.2623384E-08  0.0000000E+00 -0.2768757E-03
 -0.4187378E-02  0.0000000E+00 -0.5050505E-02  0.2461737E-08  0.0000000E+00 -0.2768705E-03
 -0.3985156E-02  0.0000000E+00 -0.5050505E-02  0.2287839E-08  0.0000000E+00 -0.2768656E-03
 -0.3669499E-02  0.0000000E+00 -0.5050505E-02  0.2102213E-08  0.0000000E+00 -0.2768610E-03
 -0.3353842E-02  0.0000000E+00 -0.5050505E-02  0.1905442E-08  0.0000000E+00 -0.2768569E-03
 -0.2978990E-02  0.0000000E+00 -0.5050505E-02  0.1698161E-08  0.0000000E+00 -0.2768532E-03
 -0.2347676E-02  0.0000000E+00 -0.5050505E-02  0.1481060E-08  0.0000000E+00 -0.2768499E-03
 -0.1716362E-02  0.0000000E+00 -0.5050505E-02  0.1254876E-08  0.0000000E+00 -0.2768471E-03
 -0.1025842E-02  0.0000000E+00 -0.5050505E-02  0.1020388E-08  0.0000000E+00 -0.2768447E-03
  0.2367855E-03  0.0000000E+00 -0.5050505E-02  0.7784117E-09  0.0000000E+00 -0.2768428E-03
  0.1499413E-02  0.0000000E+00 -0.5050505E-02  0.5297902E-09  0.0000000E+00 -0.2768415E-03
  0.2762042E-02  0.0000000E+00 -0.5050505E-02  0.2753868E-09  0.0000000E+00 -0.2768407E-03
 -0.5050505E-02  0.0000000E+00 -0.5050505E-02  0.1607516E-10  0.0000000E+00 -0.2768404E-03
 -0.5050505E-02  0.0000000E+00 -0.5050505E-02 -0.2472546E-09  0.0000000E+00 -0.2768406E-03
 -0.5050505E-02  0.0000000E+00 -0.5050505E-02 -0.5137317E-09  0.0000000E+00 -0.2768414E-03
 -0.5050505E-02  0.0000000E+00 -0.5050505E-02 -0.7824978E-09  0.0000000E+00 -0.2768427E-03
 -0.5050505E-02  0.0000000E+00 -0.5050505E-02 -0.1052729E-08  0.0000000E+00 -0.2768446E-03
 -0.5050505E-02  0.0000000E+00 -0.5050505E-02 -0.1323655E-08  0.0000000E+00 -0.2768471E-03
 -0.5050505E-02  0.0000000E+00 -0.5050505E-02 -0.1594554E-08  0.0000000E+00 -0.2768501E-03
 -0.5050504E-02  0.0000000E+00 -0.5050505E-02 -0.1864781E-08  0.0000000E+00 -0.2768537E-03
 -0.5050501E-02  0.0000000E+00 -0.5050505E-02 -0.2133782E-08  0.0000000E+00 -0.2768578E-03
 -0.5050495E-02  0.0000000E+00 -0.5050505E-02 -0.2401116E-08  0.0000000E+00 -0.2768625E-03
 -0.5050482E-02  0.0000000E+00 -0.5050505E-02 -0.2666474E-08  0.0000000E+00 -0.2768677E-03
 -0.5050449E-02  0.0000000E+00 -0.5050505E-02 -0.2929705E-08  0.0000000E+00 -0.2768735E-03
 -0.5050376E-02  0.0000000E+00 -0.5050505E-02 -0.3190836E-08  0.0000000E+00 -0.2768798E-03
 -0.5050299E-02  0.0000000E+00 -0.5050505E-02 -0.3450110E-08  0.0000000E+00 -0.2768867E-03
 -0.5050178E-02  0.0000000E+00 -0.5050505E-02 -0.3708015E-08  0.0000000E+00 -0.2768941E-03
 -0.5050018E-02  0.0000000E+00 -0.5050505E-02 -0.3965329E-08  0.0000000E+00 -0.2769020E-03
 -0.5049710E-02  0.0000000E+00 -0.5050505E-02 -0.4223170E-08  0.0000000E+00 -0.2769105E-03
 -0.5049253E-02  0.0000000E+00 -0.5050505E-02 -0.4483055E-08  0.0000000E+00 -0.2769195E-03
 -0.5048636E-02  0.0000000E+00 -0.5050505E-02 -0.4746983E-08  0.0000000E+00 -0.2769290E-03
 -0.5047442E-02  0.0000000E+00 -0.5050505E-02 -0.5017522E-08  0.0000000E+00 -0.2769391E-03
 -0.5045727E-02  0.0000000E+00 -0.5050505E-02 -0.5297938E-08  0.0000000E+00 -0.2769498E-03
 -0.5043261E-02  0.0000000E+00 -0.5050505E-02 -0.5592347E-08  0.0000000E+00 -0.2769610E-03
 -0.5038714E-02  0.0000000E+00 -0.5050505E-02 -0.5905919E-08  0.0000000E+00 -0.2769729E-03
 -0.5032318E-02  0.0000000E+00 -0.5050505E-02 -0.6245143E-08  0.0000000E+00 -0.2769854E-03
 -0.5022454E-02  0.0000000E+00 -0.5050505E-02 -0.6618180E-08  0.0000000E+00 -0.2769987E-03
 -0.5012589E-02  0.0000000E+00 -0.5050505E-02 -0.7035333E-08  0.0000000E+00 -0.2770128E-03
 -0.5002725E-02  0.0000000E+00 -0.5050505E-02 -0.7509686E-08  0.0000000E+00 -0.2770279E-03
 -0.4992860E-02  0.0000000E+00 -0.5050505E-02 -0.8057981E-08  0.0000000E+00 -0.2770440E-03
 -0.4976523E-02  0.0000000E+00 -0.5050505E-02 -0.8701836E-08  0.0000000E+00 -0.2770613E-03
 -0.4956794E-02  0.0000000E+00 -0.5050505E-02 -0.9469456E-08  0.0000000E+00 -0.2770801E-03
 -0.4937066E-02  0.0000000E+00 -0.5050505E-02 -0.1039809E-07  0.0000000E+00 -0.2771006E-03
 -0.4906239E-02  0.0000000E+00 -0.5050505E-02 -0.1153759E-07  0.0000000E+00 -0.2771233E-03
 -0.4866782E-02  0.0000000E+00 -0.5050505E-02 -0.1295570E-07  0.0000000E+00 -0.2771486E-03
 -0.4827325E-02  0.0000000E+00 -0.5050505E-02 -0.1474606E-07  0.0000000E+00 -0.2771772E-03
 -0.4769372E-02  0.0000000E+00 -0.5050505E-02 -0.1704053E-07  0.0000000E+00 -0.2772100E-03
 -0.4690458E-02  0.0000000E+00 -0.5050505E-02 -0.2002880E-07  0.0000000E+00 -0.2772483E-03
 -0.4611543E-02  0.0000000E+00 -0.5050505E-02 -0.2399037E-07  0.0000000E+00 -0.2772938E-03
 -0.4503035E-02  0.0000000E+00 -0.5050505E-02 -0.2934840E-07  0.0000000E+00 -0.2773489E-03
 -0.4345206E-02  0.0000000E+00 -0.5050505E-02 -0.3676384E-07  0.0000000E+00 -0.2774173E-03
 -0.4187378E-02  0.0000000E+00 -0.5050505E-02 -0.4730697E-07  0.0000000E+00 -0.2775041E-03
 -0.3985156E-02  0.0000000E+00 -0.5050505E-02 -0.6278544E-07  0.0000000E+00 -0.2776179E-03
 -0.3669499E-02  0.0000000E+00 -0.5050505E-02 -0.8640797E-07  0.0000000E+00 -0.2777721E-03
 -0.3353842E-02  0.0000000E+00 -0.5050505E-02 -0.1242172E-06  0.0000000E+00 -0.2779897E-03
 -0.2978990E-02  0.0000000E+00 -0.5050505E-02 -0.1884240E-06  0.0000000E+00 -0.2783128E-03
 -0.2347676E-02  0.0000000E+00 -0.5050505E-02 -0.3058494E-06  0.0000000E+00 -0.2788236E-03
 -0.1716362E-02  0.0000000E+00 -0.5050505E-02 -0.5413612E-06  0.0000000E+00 -0.2796992E-03
 -0.1025842E-02  0.0000000E+00 -0.5050505E-02 -0.1069448E-05  0.0000000E+00 -0.2813642E-03
  0.2367855E-03  0.0000000E+00 -0.5050505E-02 -0.2414166E-05  0.0000000E+00 -0.2849657E-03
  0.1499413E-02  0.0000000E+00 -0.5050505E-02 -0.6325475E-05  0.0000000E+00 -0.2940054E-03
  0.5287294E-02  0.0000000E+00 -0.5050505E-02 -0.1036033E-03  0.0000000E+00 -0.2346295E-03
 -0.5050505E-02  0.0000000E+00 -0.5050505E-02  0.3063089E-09  0.0000000E+00 -0.2769283E-03
 -0.5050505E-02  0.0000000E+00 -0.5050505E-02  0.9179554E-09  0.0000000E+00 -0.2769279E-03
 -0.5050505E-02  0.0000000E+00 -0.5050505E-02  0.1526725E-08  0.0000000E+00 -0.2769270E-03
 -0.5050505E-02  0.0000000E+00 -0.5050505E-02  0.2130701E-08  0.0000000E+00 -0.2769258E-03
 -0.5050505E-02  0.0000000E+00 -0.5050505E-02  0.2727982E-08  0.0000000E+00 -0.2769241E-03
 -0.5050505E-02  0.0000000E+00 -0.5050505E-02  0.3316662E-08  0.0000000E+00 -0.2769220E-03
 -0.5050504E-02  0.0000000E+00 -0.5050505E-02  0.3894852E-08  0.0000000E+00 -0.2769195E-03
 -0.5050501E-02  0.0000000E+00 -0.5050505E-02  0.4460668E-08  0.0000000E+00 -0.2769166E-03
 -0.5050495E-02  0.0000000E+00 -0.5050505E-02  0.5012231E-08  0.0000000E+00 -0.2769133E-03
 -0.5050482E-02  0.0000000E+00 -0.5050505E-02  0.5547678E-08  0.0000000E+00 -0.2769097E-03
 -0.5050449E-02  0.0000000E+00 -0.5050505E-02  0.6065167E-08  0.0000000E+00 -0.2769056E-03
 -0.5050376E-02  0.0000000E+00 -0.5050505E-02  0.6562875E-08  0.0000000E+00 -0.2769013E-03
 -0.5050299E-02  0.0000000E+00 -0.5050505E-02  0.7039010E-08  0.0000000E+00 -0.2768966E-03
 -0.5050178E-02  0.0000000E+00 -0.5050505E-02  0.7491804E-08  0.0000000E+00 -0.2768915E-03
 -0.5050018E-02  0.0000000E+00 -0.5050505E-02  0.7919527E-08  0.0000000E+00 -0.2768862E-03
 -0.5049710E-02  0.0000000E+00 -0.5050505E-02  0.8320486E-08  0.0000000E+00 -0.2768805E-03
 -0.5049253E-02  0.0000000E+00 -0.5050505E-02  0.8693032E-08  0.0000000E+00 -0.2768747E-03
 -0.5048636E-02  0.0000000E+00 -0.5050505E-02  0.9035566E-08  0.0000000E+00 -0.2768685E-03
 -0.5047442E-02  0.0000000E+00 -0.5050505E-02  0.9346547E-08  0.0000000E+00 -0.2768621E-03
 -0.5045727E-02  0.0000000E+00 -0.5050505E-02  0.9624500E-08  0.0000000E+00 -0.2768556E-03
 -0.5043261E-02  0.0000000E+00 -0.5050505E-02  0.9868018E-08  0.0000000E+00 -0.2768488E-03
 -0.5038714E-02  0.0000000E+00 -0.5050505E-02  0.1007577E-07  0.0000000E+00 -0.2768419E-03
 -0.5032318E-02  0.0000000E+00 -0.5050505E-02  0.1024653E-07  0.0000000E+00 -0.2768348E-03
 -0.5022454E-02  0.0000000E+00 -0.5050505E-02  0.1037915E-07  0.0000000E+00 -0.2768277E-03
 -0.5012589E-02  0.0000000E+00 -0.5050505E-02  0.1047259E-07  0.0000000E+00 -0.2768205E-03
 -0.5002725E-02  0.0000000E+00 -0.5050505E-02  0.1052592E-07  0.0000000E+00 -0.2768132E-03
 -0.4992860E-02  0.0000000E+00 -0.5050505E-02  0.1053835E-07  0.0000000E+00 -0.2768059E-03
 -0.4976523E-02  0.0000000E+00 -0.5050505E-02  0.1050920E-07  0.0000000E+00 -0.2767986E-03
 -0.4956794E-02  0.0000000E+00 -0.5050505E-02  0.1043794E-07  0.0000000E+00 -0.2767913E-03
 -0.4937066E-02  0.0000000E+00 -0.5050505E-02  0.1032419E-07  0.0000000E+00 -0.2767841E-03
 -0.4906239E-02  0.0000000E+00 -0.5050505E-02  0.1016771E-07  0.0000000E+00 -0.2767770E-03
 -0.4866782E-02  0.0000000E+00 -0.5050505E-02  0.9968440E-08  0.0000000E+00 -0.2767700E-03
 -0.4827325E-02  0.0000000E+00 -0.5050505E-02  0.9726485E-08  0.0000000E+00 -0.2767632E-03
 -0.4769372E-02  0.0000000E+00 -0.5050505E-02  0.9442124E-08  0.0000000E+00 -0.2767565E-03
 -0.4690458E-02  0.0000000E+00 -0.5050505E-02  0.9115816E-08  0.0000000E+00 -0.2767501E-03
 -0.4611543E-02  0.0000000E+00 -0.5050505E-02  0.8748207E-08  0.0000000E+00 -0.2767439E-03
 -0.4503035E-02  0.0000000E+00 -0.5050505E-02  0.8340129E-08  0.0000000E+00 -0.2767380E-03
 -0.4345206E-02  0.0000000E+00 -0.5050505E-02  0.7892600E-08  0.0000000E+00 -0.2767323E-03
 -0.4187378E-02  0.0000000E+00 -0.5050505E-02  0.7406828E-08  0.0000000E+00 -0.2767270E-03
 -0.3985156E-02  0.0000000E+00 -0.5050505E-02  0.6884207E-08  0.0000000E+00 -0.2767221E-03
 -0.3669499E-02  0.0000000E+00 -0.5050505E-02  0.6326310E-08  0.0000000E+00 -0.2767175E-03
 -0.3353842E-02  0.0000000E+00 -0.5050505E-02  0.5734887E-08  0.0000000E+00 -0.2767133E-03
 -0.2978990E-02  0.0000000E+00 -0.5050505E-02  0.5111855E-08  0.0000000E+00 -0.2767095E-03
 -0.2347676E-02  0.0000000E+00 -0.5050505E-02  0.4459287E-08  0.0000000E+00 -0.2767062E-03
 -0.1716362E-02  0.0000000E+00 -0.5050505E-02  0.3779403E-08  0.0000000E+00 -0.2767033E-03
 -0.1025842E-02  0.0000000E+00 -0.5050505E-02  0.3074548E-08  0.0000000E+00 -0.2767010E-03
  0.2367855E-03  0.0000000E+00 -0.5050505E-02  0.2347179E-08  0.0000000E+00 -0.2766991E-03
  0.1499413E-02  0.0000000E+00 -0.5050505E-02  0.1599834E-08  0.0000000E+00 -0.2766977E-03
  0.2762042E-02  0.0000000E+00 -0.5050505E-02  0.8351177E-09  0.0000000E+00 -0.2766968E-03
 -0.5050505E-02  0.0000000E+00 -0.5050505E-02  0.5566340E-10  0.0000000E+00 -0.2766965E-03
 -0.5050505E-02  0.0000000E+00 -0.5050505E-02 -0.7358434E-09  0.0000000E+00 -0.2766967E-03
 -0.5050505E-02  0.0000000E+00 -0.5050505E-02 -0.1536769E-08  0.0000000E+00 -0.2766975E-03
 -0.5050505E-02  0.0000000E+00 -0.5050505E-02 -0.2344532E-08  0.0000000E+00 -0.2766989E-03
 -0.5050505E-02  0.0000000E+00 -0.5050505E-02 -0.3156648E-08  0.0000000E+00 -0.2767008E-03
 -0.5050505E-02  0.0000000E+00 -0.5050505E-02 -0.3970771E-08  0.0000000E+00 -0.2767032E-03
 -0.5050505E-02  0.0000000E+00 -0.5050505E-02 -0.4784723E-08  0.0000000E+00 -0.2767062E-03
 -0.5050504E-02  0.0000000E+00 -0.5050505E-02 -0.5596544E-08  0.0000000E+00 -0.2767098E-03
 -0.5050501E-02  0.0000000E+00 -0.5050505E-02 -0.6404552E-08  0.0000000E+00 -0.2767140E-03
 -0.5050495E-02  0.0000000E+00 -0.5050505E-02 -0.7207399E-08  0.0000000E+00 -0.2767187E-03
 -0.5050482E-02  0.0000000E+00 -0.5050505E-02 -0.8004130E-08  0.0000000E+00 -0.2767239E-03
 -0.5050449E-02  0.0000000E+00 -0.5050505E-02 -0.8794258E-08  0.0000000E+00 -0.2767297E-03
 -0.5050376E-02  0.0000000E+00 -0.5050505E-02 -0.9577834E-08  0.0000000E+00 -0.2767361E-03
 -0.5050299E-02  0.0000000E+00 -0.5050505E-02 -0.1035554E-07  0.0000000E+00 -0.2767430E-03
 -0.5050178E-02  0.0000000E+00 -0.5050505E-02 -0.1112880E-07  0.0000000E+00 -0.2767504E-03
 -0.5050018E-02  0.0000000E+00 -0.5050505E-02 -0.1189990E-07  0.0000000E+00 -0.2767583E-03
 -0.5049710E-02  0.0000000E+00 -0.5050505E-02 -0.1267211E-07  0.0000000E+00 -0.2767668E-03
 -0.5049253E-02  0.0000000E+00 -0.5050505E-02 -0.1344991E-07  0.0000000E+00 -0.2767758E-03
 -0.5048636E-02  0.0000000E+00 -0.5050505E-02 -0.1423919E-07  0.0000000E+00 -0.2767854E-03
 -0.5047442E-02  0.0000000E+00 -0.5050505E-02 -0.1504754E-07  0.0000000E+00 -0.2767955E-03
 -0.5045727E-02  0.0000000E+00 -0.5050505E-02 -0.1588459E-07  0.0000000E+00 -0.2768062E-03
 -0.5043261E-02  0.0000000E+00 -0.5050505E-02 -0.1676248E-07  0.0000000E+00 -0.2768174E-03
 -0.5038714E-02  0.0000000E+00 -0.5050505E-02 -0.1769645E-07  0.0000000E+00 -0.2768293E-03
 -0.5032318E-02  0.0000000E+00 -0.5050505E-02 -0.1870561E-07  0.0000000E+00 -0.2768418E-03
 -0.5022454E-02  0.0000000E+00 -0.5050505E-02 -0.1981396E-07  0.0000000E+00 -0.2768550E-03
 -0.5012589E-02  0.0000000E+00 -0.5050505E-02 -0.2105178E-07  0.0000000E+00 -0.2768691E-03
 -0.5002725E-02  0.0000000E+00 -0.5050505E-02 -0.2245743E-07  0.0000000E+00 -0.2768840E-03
 -0.4992860E-02  0.0000000E+00 -0.5050505E-02 -0.2407993E-07  0.0000000E+00 -0.2769000E-03
 -0.4976523E-02  0.0000000E+00 -0.5050505E-02 -0.2598241E-07  0.0000000E+00 -0.2769171E-03
 -0.4956794E-02  0.0000000E+00 -0.5050505E-02 -0.2824705E-07  0.0000000E+00 -0.2769356E-03
 -0.4937066E-02  0.0000000E+00 -0.5050505E-02 -0.3098205E-07  0.0000000E+00 -0.2769558E-03
 -0.4906239E-02  0.0000000E+00 -0.5050505E-02 -0.3433174E-07  0.0000000E+00 -0.2769780E-03
 -0.4866782E-02  0.0000000E+00 -0.5050505E-02 -0.3849146E-07  0.0000000E+00 -0.2770027E-03
 -0.4827325E-02  0.0000000E+00 -0.5050505E-02 -0.4372991E-07  0.0000000E+00 -0.2770304E-03
 -0.4769372E-02  0.0000000E+00 -0.5050505E-02 -0.5042340E-07  0.0000000E+00 -0.2770621E-03
 -0.4690458E-02  0.0000000E+00 -0.5050505E-02 -0.5910959E-07  0.0000000E+00 -0.2770987E-03
 -0.4611543E-02  0.0000000E+00 -0.5050505E-02 -0.7057415E-07  0.0000000E+00 -0.2771419E-03
 -0.4503035E-02  0.0000000E+00 -0.5050505E-02 -0.8599437E-07  0.0000000E+00 -0.2771935E-03
 -0.4345206E-02  0.0000000E+00 -0.5050505E-02 -0.1071855E-06  0.0000000E+00 -0.2772567E-03
 -0.4187378E-02  0.0000000E+00 -0.5050505E-02 -0.1370380E-06  0.0000000E+00 -0.2773355E-03
 -0.3985156E-02  0.0000000E+00 -0.5050505E-02 -0.1803280E-06  0.0000000E+00 -0.2774361E-03
 -0.3669499E-02  0.0000000E+00 -0.5050505E-02 -0.2452866E-06  0.0000000E+00 -0.2775679E-03
 -0.3353842E-02  0.0000000E+00 -0.5050505E-02 -0.3467994E-06  0.0000000E+00 -0.2777449E-03
 -0.2978990E-02  0.0000000E+00 -0.5050505E-02 -0.5132968E-06  0.0000000E+00 -0.2779882E-03
 -0.2347676E-02  0.0000000E+00 -0.5050505E-02 -0.8024910E-06  0.0000000E+00 -0.2783275E-03
 -0.1716362E-02  0.0000000E+00 -0.5050505E-02 -0.1339551E-05  0.0000000E+00 -0.2787920E-03
 -0.1025842E-02  0.0000000E+00 -0.5050505E-02 -0.2415300E-05  0.0000000E+00 -0.2793469E-03
  0.2367855E-03  0.0000000E+00 -0.5050505E-02 -0.4752545E-05  0.0000000E+00 -0.2795635E-03
  0.1499413E-02  0.0000000E+00 -0.5050505E-02 -0.1025967E-04  0.0000000E+00 -0.2770425E-03
  0.5287294E-02  0.0000000E+00 -0.5050505E-02 -0.2421754E-04  0.0000000E+00 -0.2600175E-03
 -0.5050505E-02  0.0000000E+00 -0.5050505E-02  0.5127551E-09  0.0000000E+00 -0.2766500E-03
 -0.5050505E-02  0.0000000E+00 -0.5050505E-02  0.1536650E-08  0.0000000E+00 -0.2766495E-03
 -0.5050505E-02  0.0000000E+00 -0.5050505E-02  0.2555735E-08  0.0000000E+00 -0.2766487E-03
 -0.5050505E-02  0.0000000E+00 -0.5050505E-02  0.3566811E-08  0.0000000E+00 -0.2766474E-03
 -0.5050505E-02  0.0000000E+00 -0.5050505E-02  0.4566710E-08  0.0000000E+00 -0.2766457E-03
 -0.5050505E-02  0.0000000E+00 -0.5050505E-02  0.5552235E-08  0.0000000E+00 -0.2766435E-03
 -0.5050504E-02  0.0000000E+00 -0.5050505E-02  0.6520227E-08  0.0000000E+00 -0.2766410E-03
 -0.5050501E-02  0.0000000E+00 -0.5050505E-02  0.7467540E-08  0.0000000E+00 -0.2766381E-03
 -0.5050495E-02  0.0000000E+00 -0.5050505E-02  0.8391036E-08  0.0000000E+00 -0.2766347E-03
 -0.5050482E-02  0.0000000E+00 -0.5050505E-02  0.9287602E-08  0.0000000E+00 -0.2766310E-03
 -0.5050449E-02  0.0000000E+00 -0.5050505E-02  0.1015415E-07  0.0000000E+00 -0.2766269E-03
 -0.5050376E-02  0.0000000E+00 -0.5050505E-02  0.1098765E-07  0.0000000E+00 -0.2766225E-03
 -0.5050299E-02  0.0000000E+00 -0.5050505E-02  0.1178508E-07  0.0000000E+00 -0.2766177E-03
 -0.5050178E-02  0.0000000E+00 -0.5050505E-02  0.1254350E-07  0.0000000E+00 -0.2766126E-03
 -0.5050018E-02  0.0000000E+00 -0.5050505E-02  0.1326001E-07  0.0000000E+00 -0.2766071E-03
 -0.5049710E-02  0.0000000E+00 -0.5050505E-02  0.1393177E-07  0.0000000E+00 -0.2766014E-03
 -0.5049253E-02  0.0000000E+00 -0.5050505E-02  0.1455602E-07  0.0000000E+00 -0.2765954E-03
 -0.5048636E-02  0.0000000E+00 -0.5050505E-02  0.1513009E-07  0.0000000E+00 -0.2765892E-03
 -0.5047442E-02  0.0000000E+00 -0.5050505E-02  0.1565140E-07  0.0000000E+00 -0.2765827E-03
 -0.5045727E-02  0.0000000E+00 -0.5050505E-02  0.1611746E-07  0.0000000E+00 -0.2765760E-03
 -0.5043261E-02  0.0000000E+00 -0.5050505E-02  0.1652593E-07  0.0000000E+00 -0.2765691E-03
 -0.5038714E-02  0.0000000E+00 -0.5050505E-02  0.1687458E-07  0.0000000E+00 -0.2765621E-03
 -0.5032318E-02  0.0000000E+00 -0.5050505E-02  0.1716132E-07  0.0000000E+00 -0.2765549E-03
 -0.5022454E-02  0.0000000E+00 -0.5050505E-02  0.1738425E-07  0.0000000E+00 -0.2765477E-03
 -0.5012589E-02  0.0000000E+00 -0.5050505E-02  0.1754162E-07  0.0000000E+00 -0.2765403E-03
 -0.5002725E-02  0.0000000E+00 -0.5050505E-02  0.1763187E-07  0.0000000E+00 -0.2765329E-03
 -0.4992860E-02  0.0000000E+00 -0.5050505E-02  0.1765366E-07  0.0000000E+00 -0.2765255E-03
 -0.4976523E-02  0.0000000E+00 -0.5050505E-02  0.1760584E-07  0.0000000E+00 -0.2765180E-03
 -0.4956794E-02  0.0000000E+00 -0.5050505E-02  0.1748753E-07  0.0000000E+00 -0.2765106E-03
 -0.4937066E-02  0.0000000E+00 -0.5050505E-02  0.1729806E-07  0.0000000E+00 -0.2765033E-03
 -0.4906239E-02  0.0000000E+00 -0.5050505E-02  0.1703706E-07  0.0000000E+00 -0.2764961E-03
 -0.4866782E-02  0.0000000E+00 -0.5050505E-02  0.1670439E-07  0.0000000E+00 -0.2764890E-03
 -0.4827325E-02  0.0000000E+00 -0.5050505E-02  0.1630022E-07  0.0000000E+00 -0.2764820E-03
 -0.4769372E-02  0.0000000E+00 -0.5050505E-02  0.1582502E-07  0.0000000E+00 -0.2764752E-03
 -0.4690458E-02  0.0000000E+00 -0.5050505E-02  0.1527955E-07  0.0000000E+00 -0.2764686E-03
 -0.4611543E-02  0.0000000E+00 -0.5050505E-02  0.1466488E-07  0.0000000E+00 -0.2764623E-03
 -0.4503035E-02  0.0000000E+00 -0.5050505E-02  0.1398239E-07  0.0000000E+00 -0.2764563E-03
 -0.4345206E-02  0.0000000E+00 -0.5050505E-02  0.1323380E-07  0.0000000E+00 -0.2764505E-03
 -0.4187378E-02  0.0000000E+00 -0.5050505E-02  0.1242112E-07  0.0000000E+00 -0.2764451E-03
 -0.3985156E-02  0.0000000E+00 -0.5050505E-02  0.1154669E-07  0.0000000E+00 -0.2764400E-03
 -0.3669499E-02  0.0000000E+00 -0.5050505E-02  0.1061313E-07  0.0000000E+00 -0.2764354E-03
 -0.3353842E-02  0.0000000E+00 -0.5050505E-02  0.9623380E-08  0.0000000E+00 -0.2764311E-03
 -0.2978990E-02  0.0000000E+00 -0.5050505E-02  0.8580656E-08  0.0000000E+00 -0.2764272E-03
 -0.2347676E-02  0.0000000E+00 -0.5050505E-02  0.7488436E-08  0.0000000E+00 -0.2764238E-03
 -0.1716362E-02  0.0000000E+00 -0.5050505E-02  0.6350445E-08  0.0000000E+00 -0.2764209E-03
 -0.1025842E-02  0.0000000E+00 -0.5050505E-02  0.5170625E-08  0.0000000E+00 -0.2764184E-03
  0.2367855E-03  0.0000000E+00 -0.5050505E-02  0.3953101E-08  0.0000000E+00 -0.2764165E-03
  0.1499413E-02  0.0000000E+00 -0.5050505E-02  0.2702140E-08  0.0000000E+00 -0.2764150E-03
  0.2762042E-02  0.0000000E+00 -0.5050505E-02  0.1422129E-08  0.0000000E+00 -0.2764141E-03
 -0.5050505E-02  0.0000000E+00 -0.5050505E-02  0.1175082E-09  0.0000000E+00 -0.2764138E-03
 -0.5050505E-02  0.0000000E+00 -0.5050505E-02 -0.1207207E-08  0.0000000E+00 -0.2764140E-03
 -0.5050505E-02  0.0000000E+00 -0.5050505E-02 -0.2547567E-08  0.0000000E+00 -0.2764147E-03
 -0.5050505E-02  0.0000000E+00 -0.5050505E-02 -0.3899221E-08  0.0000000E+00 -0.2764161E-03
 -0.5050505E-02  0.0000000E+00 -0.5050505E-02 -0.5257971E-08  0.0000000E+00 -0.2764180E-03
 -0.5050505E-02  0.0000000E+00 -0.5050505E-02 -0.6619834E-08  0.0000000E+00 -0.2764204E-03
 -0.5050505E-02  0.0000000E+00 -0.5050505E-02 -0.7981102E-08  0.0000000E+00 -0.2764235E-03
 -0.5050504E-02  0.0000000E+00 -0.5050505E-02 -0.9338443E-08  0.0000000E+00 -0.2764271E-03
 -0.5050501E-02  0.0000000E+00 -0.5050505E-02 -0.1068898E-07  0.0000000E+00 -0.2764312E-03
 -0.5050495E-02  0.0000000E+00 -0.5050505E-02 -0.1203038E-07  0.0000000E+00 -0.2764360E-03
 -0.5050482E-02  0.0000000E+00 -0.5050505E-02 -0.1336096E-07  0.0000000E+00 -0.2764413E-03
 -0.5050449E-02  0.0000000E+00 -0.5050505E-02 -0.1467980E-07  0.0000000E+00 -0.2764471E-03
 -0.5050376E-02  0.0000000E+00 -0.5050505E-02 -0.1598688E-07  0.0000000E+00 -0.2764535E-03
 -0.5050299E-02  0.0000000E+00 -0.5050505E-02 -0.1728319E-07  0.0000000E+00 -0.2764605E-03
 -0.5050178E-02  0.0000000E+00 -0.5050505E-02 -0.1857097E-07  0.0000000E+00 -0.2764679E-03
 -0.5050018E-02  0.0000000E+00 -0.5050505E-02 -0.1985382E-07  0.0000000E+00 -0.2764759E-03
 -0.5049710E-02  0.0000000E+00 -0.5050505E-02 -0.2113701E-07  0.0000000E+00 -0.2764845E-03
 -0.5049253E-02  0.0000000E+00 -0.5050505E-02 -0.2242774E-07  0.0000000E+00 -0.2764935E-03
 -0.5048636E-02  0.0000000E+00 -0.5050505E-02 -0.2373549E-07  0.0000000E+00 -0.2765031E-03
 -0.5047442E-02  0.0000000E+00 -0.5050505E-02 -0.2507250E-07  0.0000000E+00 -0.2765132E-03
 -0.5045727E-02  0.0000000E+00 -0.5050505E-02 -0.2645430E-07  0.0000000E+00 -0.2765239E-03
 -0.5043261E-02  0.0000000E+00 -0.5050505E-02 -0.2790048E-07  0.0000000E+00 -0.2765352E-03
 -0.5038714E-02  0.0000000E+00 -0.5050505E-02 -0.2943554E-07  0.0000000E+00 -0.2765470E-03
 -0.5032318E-02  0.0000000E+00 -0.5050505E-02 -0.3109021E-07  0.0000000E+00 -0.2765595E-03
 -0.5022454E-02  0.0000000E+00 -0.5050505E-02 -0.3290295E-07  0.0000000E+00 -0.2765726E-03
 -0.5012589E-02  0.0000000E+00 -0.5050505E-02 -0.3492217E-07  0.0000000E+00 -0.2765865E-03
 -0.5002725E-02  0.0000000E+00 -0.5050505E-02 -0.3720900E-07  0.0000000E+00 -0.2766013E-03
 -0.4992860E-02  0.0000000E+00 -0.5050505E-02 -0.3984126E-07  0.0000000E+00 -0.2766170E-03
 -0.4976523E-02  0.0000000E+00 -0.5050505E-02 -0.4291873E-07  0.0000000E+00 -0.2766337E-03
 -0.4956794E-02  0.0000000E+00 -0.5050505E-02 -0.4657067E-07  0.0000000E+00 -0.2766517E-03
 -0.4937066E-02  0.0000000E+00 -0.5050505E-02 -0.5096625E-07  0.0000000E+00 -0.2766713E-03
 -0.4906239E-02  0.0000000E+00 -0.5050505E-02 -0.5632959E-07  0.0000000E+00 -0.2766926E-03
 -0.4866782E-02  0.0000000E+00 -0.5050505E-02 -0.6296166E-07  0.0000000E+00 -0.2767161E-03
 -0.4827325E-02  0.0000000E+00 -0.5050505E-02 -0.7127257E-07  0.0000000E+00 -0.2767422E-03
 -0.4769372E-02  0.0000000E+00 -0.5050505E-02 -0.8183034E-07  0.0000000E+00 -0.2767717E-03
 -0.4690458E-02  0.0000000E+00 -0.5050505E-02 -0.9543576E-07  0.0000000E+00 -0.2768052E-03
 -0.4611543E-02  0.0000000E+00 -0.5050505E-02 -0.1132401E-06  0.0000000E+00 -0.2768440E-03
 -0.4503035E-02  0.0000000E+00 -0.5050505E-02 -0.1369343E-06  0.0000000E+00 -0.2768894E-03
 -0.4345206E-02  0.0000000E+00 -0.5050505E-02 -0.1690607E-06  0.0000000E+00 -0.2769433E-03
 -0.4187378E-02  0.0000000E+00 -0.5050505E-02 -0.2135407E-06  0.0000000E+00 -0.2770080E-03
 -0.3985156E-02  0.0000000E+00 -0.5050505E-02 -0.2765900E-06  0.0000000E+00 -0.2770866E-03
 -0.3669499E-02  0.0000000E+00 -0.5050505E-02 -0.3683498E-06  0.0000000E+00 -0.2771824E-03
 -0.3353842E-02  0.0000000E+00 -0.5050505E-02 -0.5058503E-06  0.0000000E+00 -0.2772982E-03
 -0.2978990E-02  0.0000000E+00 -0.5050505E-02 -0.7184545E-06  0.0000000E+00 -0.2774333E-03
 -0.2347676E-02  0.0000000E+00 -0.5050505E-02 -0.1057709E-05  0.0000000E+00 -0.2775729E-03
 -0.1716362E-02  0.0000000E+00 -0.5050505E-02 -0.1613825E-05  0.0000000E+00 -0.2776609E-03
 -0.1025842E-02  0.0000000E+00 -0.5050505E-02 -0.2535745E-05  0.0000000E+00 -0.2775238E-03
  0.2367855E-03  0.0000000E+00 -0.5050505E-02 -0.4014997E-05  0.0000000E+00 -0.2766904E-03
  0.1499413E-02  0.0000000E+00 -0.5050505E-02 -0.6003033E-05  0.0000000E+00 -0.2741019E-03
  0.5287294E-02  0.0000000E+00 -0.5050505E-02 -0.6533549E-05  0.0000000E+00 -0.2686504E-03
 -0.5050505E-02  0.0000000E+00 -0.5050505E-02  0.7228249E-09  0.0000000E+00 -0.2762397E-03
 -0.5050505E-02  0.0000000E+00 -0.5050505E-02  0.2166215E-08  0.0000000E+00 -0.2762392E-03
 -0.5050505E-02  0.0000000E+00 -0.5050505E-02  0.3602846E-08  0.0000000E+00 -0.2762383E-03
 -0.5050505E-02  0.0000000E+00 -0.5050505E-02  0.5028222E-08  0.0000000E+00 -0.2762370E-03
 -0.5050505E-02  0.0000000E+00 -0.5050505E-02  0.6437890E-08  0.0000000E+00 -0.2762353E-03
 -0.5050505E-02  0.0000000E+00 -0.5050505E-02  0.7827346E-08  0.0000000E+00 -0.2762331E-03
 -0.5050504E-02  0.0000000E+00 -0.5050505E-02  0.9192149E-08  0.0000000E+00 -0.2762305E-03
 -0.5050501E-02  0.0000000E+00 -0.5050505E-02  0.1052788E-07  0.0000000E+00 -0.2762275E-03
 -0.5050495E-02  0.0000000E+00 -0.5050505E-02  0.1183012E-07  0.0000000E+00 -0.2762241E-03
 -0.5050482E-02  0.0000000E+00 -0.5050505E-02  0.1309450E-07  0.0000000E+00 -0.2762203E-03
 -0.5050449E-02  0.0000000E+00 -0.5050505E-02  0.1431667E-07  0.0000000E+00 -0.2762161E-03
 -0.5050376E-02  0.0000000E+00 -0.5050505E-02  0.1549235E-07  0.0000000E+00 -0.2762115E-03
 -0.5050299E-02  0.0000000E+00 -0.5050505E-02  0.1661731E-07  0.0000000E+00 -0.2762066E-03
 -0.5050178E-02  0.0000000E+00 -0.5050505E-02  0.1768739E-07  0.0000000E+00 -0.2762014E-03
 -0.5050018E-02  0.0000000E+00 -0.5050505E-02  0.1869851E-07  0.0000000E+00 -0.2761958E-03
 -0.5049710E-02  0.0000000E+00 -0.5050505E-02  0.1964667E-07  0.0000000E+00 -0.2761900E-03
 -0.5049253E-02  0.0000000E+00 -0.5050505E-02  0.2052798E-07  0.0000000E+00 -0.2761838E-03
 -0.5048636E-02  0.0000000E+00 -0.5050505E-02  0.2133866E-07  0.0000000E+00 -0.2761774E-03
 -0.5047442E-02  0.0000000E+00 -0.5050505E-02  0.2207506E-07  0.0000000E+00 -0.2761708E-03
 -0.5045727E-02  0.0000000E+00 -0.5050505E-02  0.2273370E-07  0.0000000E+00 -0.2761639E-03
 -0.5043261E-02  0.0000000E+00 -0.5050505E-02  0.2331125E-07  0.0000000E+00 -0.2761569E-03
 -0.5038714E-02  0.0000000E+00 -0.5050505E-02  0.2380455E-07  0.0000000E+00 -0.2761497E-03
 -0.5032318E-02  0.0000000E+00 -0.5050505E-02  0.2421067E-07  0.0000000E+00 -0.2761423E-03
 -0.5022454E-02  0.0000000E+00 -0.5050505E-02  0.2452689E-07  0.0000000E+00 -0.2761349E-03
 -0.5012589E-02  0.0000000E+00 -0.5050505E-02  0.2475074E-07  0.0000000E+00 -0.2761273E-03
 -0.5002725E-02  0.0000000E+00 -0.5050505E-02  0.2488001E-07  0.0000000E+00 -0.2761197E-03
 -0.4992860E-02  0.0000000E+00 -0.5050505E-02  0.2491278E-07  0.0000000E+00 -0.2761121E-03
 -0.4976523E-02  0.0000000E+00 -0.5050505E-02  0.2484743E-07  0.0000000E+00 -0.2761045E-03
 -0.4956794E-02  0.0000000E+00 -0.5050505E-02  0.2468269E-07  0.0000000E+00 -0.2760969E-03
 -0.4937066E-02  0.0000000E+00 -0.5050505E-02  0.2441762E-07  0.0000000E+00 -0.2760893E-03