title = "dataset feddes"
variables = "x", "y", "z", "vx", "vy", "vz"
zone t = "velocities, solution time =  3.900E+01 days        " i =   99, j =   99, k =    1,  f=point
 -0.5050505E-02  0.0000000E+00 -0.5050505E-02  0.2228366E-09  0.0000000E+00 -0.2595505E-03
 -0.5050505E-02  0.0000000E+00 -0.5050505E-02  0.6678659E-09  0.0000000E+00 -0.2595496E-03
 -0.5050505E-02  0.0000000E+00 -0.5050505E-02  0.1110997E-08  0.0000000E+00 -0.2595477E-03
 -0.5050505E-02  0.0000000E+00 -0.5050505E-02  0.1551007E-08  0.0000000E+00 -0.2595450E-03
 -0.5050505E-02  0.0000000E+00 -0.5050505E-02  0.1986630E-08  0.0000000E+00 -0.2595413E-03
 -0.5050505E-02  0.0000000E+00 -0.5050505E-02  0.2416604E-08  0.0000000E+00 -0.2595368E-03
 -0.5050504E-02  0.0000000E+00 -0.5050505E-02  0.2839678E-08  0.0000000E+00 -0.2595314E-03
 -0.5050501E-02  0.0000000E+00 -0.5050505E-02  0.3254598E-08  0.0000000E+00 -0.2595251E-03
 -0.5050495E-02  0.0000000E+00 -0.5050505E-02  0.3660113E-08  0.0000000E+00 -0.2595180E-03
 -0.5050482E-02  0.0000000E+00 -0.5050505E-02  0.4054974E-08  0.0000000E+00 -0.2595100E-03
 -0.5050449E-02  0.0000000E+00 -0.5050505E-02  0.4437933E-08  0.0000000E+00 -0.2595013E-03
 -0.5050376E-02  0.0000000E+00 -0.5050505E-02  0.4807750E-08  0.0000000E+00 -0.2594917E-03
 -0.5050299E-02  0.0000000E+00 -0.5050505E-02  0.5163188E-08  0.0000000E+00 -0.2594814E-03
 -0.5050178E-02  0.0000000E+00 -0.5050505E-02  0.5503022E-08  0.0000000E+00 -0.2594704E-03
 -0.5050018E-02  0.0000000E+00 -0.5050505E-02  0.5826038E-08  0.0000000E+00 -0.2594588E-03
 -0.5049710E-02  0.0000000E+00 -0.5050505E-02  0.6131037E-08  0.0000000E+00 -0.2594464E-03
 -0.5049253E-02  0.0000000E+00 -0.5050505E-02  0.6416839E-08  0.0000000E+00 -0.2594335E-03
 -0.5048636E-02  0.0000000E+00 -0.5050505E-02  0.6682285E-08  0.0000000E+00 -0.2594200E-03
 -0.5047442E-02  0.0000000E+00 -0.5050505E-02  0.6926246E-08  0.0000000E+00 -0.2594059E-03
 -0.5045727E-02  0.0000000E+00 -0.5050505E-02  0.7147623E-08  0.0000000E+00 -0.2593914E-03
 -0.5043261E-02  0.0000000E+00 -0.5050505E-02  0.7345355E-08  0.0000000E+00 -0.2593765E-03
 -0.5038714E-02  0.0000000E+00 -0.5050505E-02  0.7518424E-08  0.0000000E+00 -0.2593612E-03
 -0.5032318E-02  0.0000000E+00 -0.5050505E-02  0.7665863E-08  0.0000000E+00 -0.2593455E-03
 -0.5022454E-02  0.0000000E+00 -0.5050505E-02  0.7786761E-08  0.0000000E+00 -0.2593296E-03
 -0.5012589E-02  0.0000000E+00 -0.5050505E-02  0.7880268E-08  0.0000000E+00 -0.2593134E-03
 -0.5002725E-02  0.0000000E+00 -0.5050505E-02  0.7945607E-08  0.0000000E+00 -0.2592971E-03
 -0.4992860E-02  0.0000000E+00 -0.5050505E-02  0.7982077E-08  0.0000000E+00 -0.2592807E-03
 -0.4976523E-02  0.0000000E+00 -0.5050505E-02  0.7989063E-08  0.0000000E+00 -0.2592642E-03
 -0.4956794E-02  0.0000000E+00 -0.5050505E-02  0.7966044E-08  0.0000000E+00 -0.2592477E-03
 -0.4937066E-02  0.0000000E+00 -0.5050505E-02  0.7912598E-08  0.0000000E+00 -0.2592314E-03
 -0.4906239E-02  0.0000000E+00 -0.5050505E-02  0.7828414E-08  0.0000000E+00 -0.2592151E-03
 -0.4866782E-02  0.0000000E+00 -0.5050505E-02  0.7713293E-08  0.0000000E+00 -0.2591991E-03
 -0.4827325E-02  0.0000000E+00 -0.5050505E-02  0.7567162E-08  0.0000000E+00 -0.2591834E-03
 -0.4769372E-02  0.0000000E+00 -0.5050505E-02  0.7390076E-08  0.0000000E+00 -0.2591679E-03
 -0.4690458E-02  0.0000000E+00 -0.5050505E-02  0.7182227E-08  0.0000000E+00 -0.2591529E-03
 -0.4611543E-02  0.0000000E+00 -0.5050505E-02  0.6943947E-08  0.0000000E+00 -0.2591383E-03
 -0.4503035E-02  0.0000000E+00 -0.5050505E-02  0.6675715E-08  0.0000000E+00 -0.2591243E-03
 -0.4345206E-02  0.0000000E+00 -0.5050505E-02  0.6378161E-08  0.0000000E+00 -0.2591108E-03
 -0.4187378E-02  0.0000000E+00 -0.5050505E-02  0.6052067E-08  0.0000000E+00 -0.2590980E-03
 -0.3985156E-02  0.0000000E+00 -0.5050505E-02  0.5698368E-08  0.0000000E+00 -0.2590859E-03
 -0.3669499E-02  0.0000000E+00 -0.5050505E-02  0.5318156E-08  0.0000000E+00 -0.2590745E-03
 -0.3353842E-02  0.0000000E+00 -0.5050505E-02  0.4912677E-08  0.0000000E+00 -0.2590640E-03
 -0.2978990E-02  0.0000000E+00 -0.5050505E-02  0.4483328E-08  0.0000000E+00 -0.2590543E-03
 -0.2347676E-02  0.0000000E+00 -0.5050505E-02  0.4031653E-08  0.0000000E+00 -0.2590455E-03
 -0.1716362E-02  0.0000000E+00 -0.5050505E-02  0.3559336E-08  0.0000000E+00 -0.2590377E-03
 -0.1025842E-02  0.0000000E+00 -0.5050505E-02  0.3068197E-08  0.0000000E+00 -0.2590309E-03
  0.2367855E-03  0.0000000E+00 -0.5050505E-02  0.2560175E-08  0.0000000E+00 -0.2590251E-03
  0.1499413E-02  0.0000000E+00 -0.5050505E-02  0.2037323E-08  0.0000000E+00 -0.2590203E-03
  0.2762042E-02  0.0000000E+00 -0.5050505E-02  0.1501793E-08  0.0000000E+00 -0.2590167E-03
 -0.5050505E-02  0.0000000E+00 -0.5050505E-02  0.9558154E-09  0.0000000E+00 -0.2590141E-03
 -0.5050505E-02  0.0000000E+00 -0.5050505E-02  0.4016921E-09  0.0000000E+00 -0.2590127E-03
 -0.5050505E-02  0.0000000E+00 -0.5050505E-02 -0.1582309E-09  0.0000000E+00 -0.2590125E-03
 -0.5050505E-02  0.0000000E+00 -0.5050505E-02 -0.7216156E-09  0.0000000E+00 -0.2590134E-03
 -0.5050505E-02  0.0000000E+00 -0.5050505E-02 -0.1286054E-08  0.0000000E+00 -0.2590155E-03
 -0.5050505E-02  0.0000000E+00 -0.5050505E-02 -0.1849259E-08  0.0000000E+00 -0.2590187E-03
 -0.5050505E-02  0.0000000E+00 -0.5050505E-02 -0.2408922E-08  0.0000000E+00 -0.2590231E-03
 -0.5050504E-02  0.0000000E+00 -0.5050505E-02 -0.2962837E-08  0.0000000E+00 -0.2590286E-03
 -0.5050501E-02  0.0000000E+00 -0.5050505E-02 -0.3508917E-08  0.0000000E+00 -0.2590353E-03
 -0.5050495E-02  0.0000000E+00 -0.5050505E-02 -0.4045214E-08  0.0000000E+00 -0.2590431E-03
 -0.5050482E-02  0.0000000E+00 -0.5050505E-02 -0.4569958E-08  0.0000000E+00 -0.2590520E-03
 -0.5050449E-02  0.0000000E+00 -0.5050505E-02 -0.5081584E-08  0.0000000E+00 -0.2590619E-03
 -0.5050376E-02  0.0000000E+00 -0.5050505E-02 -0.5578771E-08  0.0000000E+00 -0.2590729E-03
 -0.5050299E-02  0.0000000E+00 -0.5050505E-02 -0.6060486E-08  0.0000000E+00 -0.2590849E-03
 -0.5050178E-02  0.0000000E+00 -0.5050505E-02 -0.6526025E-08  0.0000000E+00 -0.2590979E-03
 -0.5050018E-02  0.0000000E+00 -0.5050505E-02 -0.6975053E-08  0.0000000E+00 -0.2591118E-03
 -0.5049710E-02  0.0000000E+00 -0.5050505E-02 -0.7407671E-08  0.0000000E+00 -0.2591266E-03
 -0.5049253E-02  0.0000000E+00 -0.5050505E-02 -0.7824467E-08  0.0000000E+00 -0.2591424E-03
 -0.5048636E-02  0.0000000E+00 -0.5050505E-02 -0.8226600E-08  0.0000000E+00 -0.2591589E-03
 -0.5047442E-02  0.0000000E+00 -0.5050505E-02 -0.8615889E-08  0.0000000E+00 -0.2591763E-03
 -0.5045727E-02  0.0000000E+00 -0.5050505E-02 -0.8994923E-08  0.0000000E+00 -0.2591944E-03
 -0.5043261E-02  0.0000000E+00 -0.5050505E-02 -0.9367216E-08  0.0000000E+00 -0.2592134E-03
 -0.5038714E-02  0.0000000E+00 -0.5050505E-02 -0.9737385E-08  0.0000000E+00 -0.2592331E-03
 -0.5032318E-02  0.0000000E+00 -0.5050505E-02 -0.1011140E-07  0.0000000E+00 -0.2592535E-03
 -0.5022454E-02  0.0000000E+00 -0.5050505E-02 -0.1049693E-07  0.0000000E+00 -0.2592748E-03
 -0.5012589E-02  0.0000000E+00 -0.5050505E-02 -0.1090373E-07  0.0000000E+00 -0.2592969E-03
 -0.5002725E-02  0.0000000E+00 -0.5050505E-02 -0.1134428E-07  0.0000000E+00 -0.2593198E-03
 -0.4992860E-02  0.0000000E+00 -0.5050505E-02 -0.1183460E-07  0.0000000E+00 -0.2593437E-03
 -0.4976523E-02  0.0000000E+00 -0.5050505E-02 -0.1239535E-07  0.0000000E+00 -0.2593687E-03
 -0.4956794E-02  0.0000000E+00 -0.5050505E-02 -0.1305347E-07  0.0000000E+00 -0.2593949E-03
 -0.4937066E-02  0.0000000E+00 -0.5050505E-02 -0.1384446E-07  0.0000000E+00 -0.2594227E-03
 -0.4906239E-02  0.0000000E+00 -0.5050505E-02 -0.1481571E-07  0.0000000E+00 -0.2594522E-03
 -0.4866782E-02  0.0000000E+00 -0.5050505E-02 -0.1603146E-07  0.0000000E+00 -0.2594840E-03
 -0.4827325E-02  0.0000000E+00 -0.5050505E-02 -0.1758031E-07  0.0000000E+00 -0.2595187E-03
 -0.4769372E-02  0.0000000E+00 -0.5050505E-02 -0.1958678E-07  0.0000000E+00 -0.2595570E-03
 -0.4690458E-02  0.0000000E+00 -0.5050505E-02 -0.2222970E-07  0.0000000E+00 -0.2596001E-03
 -0.4611543E-02  0.0000000E+00 -0.5050505E-02 -0.2577222E-07  0.0000000E+00 -0.2596496E-03
 -0.4503035E-02  0.0000000E+00 -0.5050505E-02 -0.3061236E-07  0.0000000E+00 -0.2597078E-03
 -0.4345206E-02  0.0000000E+00 -0.5050505E-02 -0.3737131E-07  0.0000000E+00 -0.2597779E-03
 -0.4187378E-02  0.0000000E+00 -0.5050505E-02 -0.4705443E-07  0.0000000E+00 -0.2598650E-03
 -0.3985156E-02  0.0000000E+00 -0.5050505E-02 -0.6135907E-07  0.0000000E+00 -0.2599768E-03
 -0.3669499E-02  0.0000000E+00 -0.5050505E-02 -0.8329734E-07  0.0000000E+00 -0.2601259E-03
 -0.3353842E-02  0.0000000E+00 -0.5050505E-02 -0.1185405E-06  0.0000000E+00 -0.2603341E-03
 -0.2978990E-02  0.0000000E+00 -0.5050505E-02 -0.1785468E-06  0.0000000E+00 -0.2606405E-03
 -0.2347676E-02  0.0000000E+00 -0.5050505E-02 -0.2884791E-06  0.0000000E+00 -0.2611222E-03
 -0.1716362E-02  0.0000000E+00 -0.5050505E-02 -0.5091773E-06  0.0000000E+00 -0.2619449E-03
 -0.1025842E-02  0.0000000E+00 -0.5050505E-02 -0.1004226E-05  0.0000000E+00 -0.2635060E-03
  0.2367855E-03  0.0000000E+00 -0.5050505E-02 -0.2264632E-05  0.0000000E+00 -0.2668786E-03
  0.1499413E-02  0.0000000E+00 -0.5050505E-02 -0.5928690E-05  0.0000000E+00 -0.2753358E-03
  0.5287294E-02  0.0000000E+00 -0.5050505E-02 -0.9704900E-04  0.0000000E+00 -0.2197530E-03
 -0.5050505E-02  0.0000000E+00 -0.5050505E-02  0.6698212E-09  0.0000000E+00 -0.2594201E-03
 -0.5050505E-02  0.0000000E+00 -0.5050505E-02  0.2007556E-08  0.0000000E+00 -0.2594192E-03
 -0.5050505E-02  0.0000000E+00 -0.5050505E-02  0.3339603E-08  0.0000000E+00 -0.2594173E-03
 -0.5050505E-02  0.0000000E+00 -0.5050505E-02  0.4662258E-08  0.0000000E+00 -0.2594146E-03
 -0.5050505E-02  0.0000000E+00 -0.5050505E-02  0.5971740E-08  0.0000000E+00 -0.2594109E-03
 -0.5050505E-02  0.0000000E+00 -0.5050505E-02  0.7264263E-08  0.0000000E+00 -0.2594063E-03
 -0.5050504E-02  0.0000000E+00 -0.5050505E-02  0.8536068E-08  0.0000000E+00 -0.2594008E-03
 -0.5050501E-02  0.0000000E+00 -0.5050505E-02  0.9783384E-08  0.0000000E+00 -0.2593945E-03
 -0.5050495E-02  0.0000000E+00 -0.5050505E-02  0.1100246E-07  0.0000000E+00 -0.2593873E-03
 -0.5050482E-02  0.0000000E+00 -0.5050505E-02  0.1218953E-07  0.0000000E+00 -0.2593793E-03
 -0.5050449E-02  0.0000000E+00 -0.5050505E-02  0.1334086E-07  0.0000000E+00 -0.2593705E-03
 -0.5050376E-02  0.0000000E+00 -0.5050505E-02  0.1445272E-07  0.0000000E+00 -0.2593609E-03
 -0.5050299E-02  0.0000000E+00 -0.5050505E-02  0.1552140E-07  0.0000000E+00 -0.2593505E-03
 -0.5050178E-02  0.0000000E+00 -0.5050505E-02  0.1654320E-07  0.0000000E+00 -0.2593394E-03
 -0.5050018E-02  0.0000000E+00 -0.5050505E-02  0.1751448E-07  0.0000000E+00 -0.2593276E-03
 -0.5049710E-02  0.0000000E+00 -0.5050505E-02  0.1843165E-07  0.0000000E+00 -0.2593152E-03
 -0.5049253E-02  0.0000000E+00 -0.5050505E-02  0.1929114E-07  0.0000000E+00 -0.2593021E-03
 -0.5048636E-02  0.0000000E+00 -0.5050505E-02  0.2008948E-07  0.0000000E+00 -0.2592885E-03
 -0.5047442E-02  0.0000000E+00 -0.5050505E-02  0.2082327E-07  0.0000000E+00 -0.2592744E-03
 -0.5045727E-02  0.0000000E+00 -0.5050505E-02  0.2148920E-07  0.0000000E+00 -0.2592597E-03
 -0.5043261E-02  0.0000000E+00 -0.5050505E-02  0.2208408E-07  0.0000000E+00 -0.2592447E-03
 -0.5038714E-02  0.0000000E+00 -0.5050505E-02  0.2260485E-07  0.0000000E+00 -0.2592292E-03
 -0.5032318E-02  0.0000000E+00 -0.5050505E-02  0.2304860E-07  0.0000000E+00 -0.2592134E-03
 -0.5022454E-02  0.0000000E+00 -0.5050505E-02  0.2341259E-07  0.0000000E+00 -0.2591973E-03
 -0.5012589E-02  0.0000000E+00 -0.5050505E-02  0.2369425E-07  0.0000000E+00 -0.2591810E-03
 -0.5002725E-02  0.0000000E+00 -0.5050505E-02  0.2389124E-07  0.0000000E+00 -0.2591646E-03
 -0.4992860E-02  0.0000000E+00 -0.5050505E-02  0.2400146E-07  0.0000000E+00 -0.2591480E-03
 -0.4976523E-02  0.0000000E+00 -0.5050505E-02  0.2402305E-07  0.0000000E+00 -0.2591314E-03
 -0.4956794E-02  0.0000000E+00 -0.5050505E-02  0.2395442E-07  0.0000000E+00 -0.2591148E-03
 -0.4937066E-02  0.0000000E+00 -0.5050505E-02  0.2379432E-07  0.0000000E+00 -0.2590983E-03
 -0.4906239E-02  0.0000000E+00 -0.5050505E-02  0.2354180E-07  0.0000000E+00 -0.2590819E-03
 -0.4866782E-02  0.0000000E+00 -0.5050505E-02  0.2319625E-07  0.0000000E+00 -0.2590657E-03
 -0.4827325E-02  0.0000000E+00 -0.5050505E-02  0.2275745E-07  0.0000000E+00 -0.2590498E-03
 -0.4769372E-02  0.0000000E+00 -0.5050505E-02  0.2222555E-07  0.0000000E+00 -0.2590342E-03
 -0.4690458E-02  0.0000000E+00 -0.5050505E-02  0.2160113E-07  0.0000000E+00 -0.2590190E-03
 -0.4611543E-02  0.0000000E+00 -0.5050505E-02  0.2088519E-07  0.0000000E+00 -0.2590043E-03
 -0.4503035E-02  0.0000000E+00 -0.5050505E-02  0.2007914E-07  0.0000000E+00 -0.2589902E-03
 -0.4345206E-02  0.0000000E+00 -0.5050505E-02  0.1918489E-07  0.0000000E+00 -0.2589766E-03
 -0.4187378E-02  0.0000000E+00 -0.5050505E-02  0.1820478E-07  0.0000000E+00 -0.2589636E-03
 -0.3985156E-02  0.0000000E+00 -0.5050505E-02  0.1714161E-07  0.0000000E+00 -0.2589514E-03
 -0.3669499E-02  0.0000000E+00 -0.5050505E-02  0.1599868E-07  0.0000000E+00 -0.2589399E-03
 -0.3353842E-02  0.0000000E+00 -0.5050505E-02  0.1477972E-07  0.0000000E+00 -0.2589292E-03
 -0.2978990E-02  0.0000000E+00 -0.5050505E-02  0.1348892E-07  0.0000000E+00 -0.2589194E-03
 -0.2347676E-02  0.0000000E+00 -0.5050505E-02  0.1213095E-07  0.0000000E+00 -0.2589106E-03
 -0.1716362E-02  0.0000000E+00 -0.5050505E-02  0.1071085E-07  0.0000000E+00 -0.2589027E-03
 -0.1025842E-02  0.0000000E+00 -0.5050505E-02  0.9234105E-08  0.0000000E+00 -0.2588957E-03
  0.2367855E-03  0.0000000E+00 -0.5050505E-02  0.7706555E-08  0.0000000E+00 -0.2588899E-03
  0.1499413E-02  0.0000000E+00 -0.5050505E-02  0.6134375E-08  0.0000000E+00 -0.2588851E-03
  0.2762042E-02  0.0000000E+00 -0.5050505E-02  0.4524041E-08  0.0000000E+00 -0.2588814E-03
 -0.5050505E-02  0.0000000E+00 -0.5050505E-02  0.2882275E-08  0.0000000E+00 -0.2588788E-03
 -0.5050505E-02  0.0000000E+00 -0.5050505E-02  0.1216004E-08  0.0000000E+00 -0.2588774E-03
 -0.5050505E-02  0.0000000E+00 -0.5050505E-02 -0.4676854E-09  0.0000000E+00 -0.2588771E-03
 -0.5050505E-02  0.0000000E+00 -0.5050505E-02 -0.2161775E-08  0.0000000E+00 -0.2588780E-03
 -0.5050505E-02  0.0000000E+00 -0.5050505E-02 -0.3859008E-08  0.0000000E+00 -0.2588801E-03
 -0.5050505E-02  0.0000000E+00 -0.5050505E-02 -0.5552449E-08  0.0000000E+00 -0.2588833E-03
 -0.5050505E-02  0.0000000E+00 -0.5050505E-02 -0.7235167E-08  0.0000000E+00 -0.2588877E-03
 -0.5050504E-02  0.0000000E+00 -0.5050505E-02 -0.8900499E-08  0.0000000E+00 -0.2588933E-03
 -0.5050501E-02  0.0000000E+00 -0.5050505E-02 -0.1054215E-07  0.0000000E+00 -0.2589000E-03
 -0.5050495E-02  0.0000000E+00 -0.5050505E-02 -0.1215422E-07  0.0000000E+00 -0.2589079E-03
 -0.5050482E-02  0.0000000E+00 -0.5050505E-02 -0.1373137E-07  0.0000000E+00 -0.2589168E-03
 -0.5050449E-02  0.0000000E+00 -0.5050505E-02 -0.1526885E-07  0.0000000E+00 -0.2589268E-03
 -0.5050376E-02  0.0000000E+00 -0.5050505E-02 -0.1676265E-07  0.0000000E+00 -0.2589379E-03
 -0.5050299E-02  0.0000000E+00 -0.5050505E-02 -0.1820963E-07  0.0000000E+00 -0.2589500E-03
 -0.5050178E-02  0.0000000E+00 -0.5050505E-02 -0.1960760E-07  0.0000000E+00 -0.2589630E-03
 -0.5050018E-02  0.0000000E+00 -0.5050505E-02 -0.2095552E-07  0.0000000E+00 -0.2589770E-03
 -0.5049710E-02  0.0000000E+00 -0.5050505E-02 -0.2225360E-07  0.0000000E+00 -0.2589920E-03
 -0.5049253E-02  0.0000000E+00 -0.5050505E-02 -0.2350354E-07  0.0000000E+00 -0.2590078E-03
 -0.5048636E-02  0.0000000E+00 -0.5050505E-02 -0.2470870E-07  0.0000000E+00 -0.2590244E-03
 -0.5047442E-02  0.0000000E+00 -0.5050505E-02 -0.2587442E-07  0.0000000E+00 -0.2590419E-03
 -0.5045727E-02  0.0000000E+00 -0.5050505E-02 -0.2700832E-07  0.0000000E+00 -0.2590601E-03
 -0.5043261E-02  0.0000000E+00 -0.5050505E-02 -0.2812074E-07  0.0000000E+00 -0.2590791E-03
 -0.5038714E-02  0.0000000E+00 -0.5050505E-02 -0.2922529E-07  0.0000000E+00 -0.2590989E-03
 -0.5032318E-02  0.0000000E+00 -0.5050505E-02 -0.3033955E-07  0.0000000E+00 -0.2591195E-03
 -0.5022454E-02  0.0000000E+00 -0.5050505E-02 -0.3148603E-07  0.0000000E+00 -0.2591407E-03
 -0.5012589E-02  0.0000000E+00 -0.5050505E-02 -0.3269345E-07  0.0000000E+00 -0.2591628E-03
 -0.5002725E-02  0.0000000E+00 -0.5050505E-02 -0.3399843E-07  0.0000000E+00 -0.2591858E-03
 -0.4992860E-02  0.0000000E+00 -0.5050505E-02 -0.3544786E-07  0.0000000E+00 -0.2592096E-03
 -0.4976523E-02  0.0000000E+00 -0.5050505E-02 -0.3710215E-07  0.0000000E+00 -0.2592345E-03
 -0.4956794E-02  0.0000000E+00 -0.5050505E-02 -0.3903980E-07  0.0000000E+00 -0.2592606E-03
 -0.4937066E-02  0.0000000E+00 -0.5050505E-02 -0.4136398E-07  0.0000000E+00 -0.2592881E-03
 -0.4906239E-02  0.0000000E+00 -0.5050505E-02 -0.4421196E-07  0.0000000E+00 -0.2593173E-03
 -0.4866782E-02  0.0000000E+00 -0.5050505E-02 -0.4776903E-07  0.0000000E+00 -0.2593486E-03
 -0.4827325E-02  0.0000000E+00 -0.5050505E-02 -0.5228952E-07  0.0000000E+00 -0.2593825E-03
 -0.4769372E-02  0.0000000E+00 -0.5050505E-02 -0.5812884E-07  0.0000000E+00 -0.2594198E-03
 -0.4690458E-02  0.0000000E+00 -0.5050505E-02 -0.6579395E-07  0.0000000E+00 -0.2594615E-03
 -0.4611543E-02  0.0000000E+00 -0.5050505E-02 -0.7602461E-07  0.0000000E+00 -0.2595088E-03
 -0.4503035E-02  0.0000000E+00 -0.5050505E-02 -0.8992815E-07  0.0000000E+00 -0.2595638E-03
 -0.4345206E-02  0.0000000E+00 -0.5050505E-02 -0.1092104E-06  0.0000000E+00 -0.2596291E-03
 -0.4187378E-02  0.0000000E+00 -0.5050505E-02 -0.1365863E-06  0.0000000E+00 -0.2597086E-03
 -0.3985156E-02  0.0000000E+00 -0.5050505E-02 -0.1765395E-06  0.0000000E+00 -0.2598082E-03
 -0.3669499E-02  0.0000000E+00 -0.5050505E-02 -0.2367947E-06  0.0000000E+00 -0.2599364E-03
 -0.3353842E-02  0.0000000E+00 -0.5050505E-02 -0.3313172E-06  0.0000000E+00 -0.2601064E-03
 -0.2978990E-02  0.0000000E+00 -0.5050505E-02 -0.4867729E-06  0.0000000E+00 -0.2603380E-03
 -0.2347676E-02  0.0000000E+00 -0.5050505E-02 -0.7572765E-06  0.0000000E+00 -0.2606588E-03
 -0.1716362E-02  0.0000000E+00 -0.5050505E-02 -0.1260151E-05  0.0000000E+00 -0.2610960E-03
 -0.1025842E-02  0.0000000E+00 -0.5050505E-02 -0.2267861E-05  0.0000000E+00 -0.2616167E-03
  0.2367855E-03  0.0000000E+00 -0.5050505E-02 -0.4457189E-05  0.0000000E+00 -0.2618187E-03
  0.1499413E-02  0.0000000E+00 -0.5050505E-02 -0.9613696E-05  0.0000000E+00 -0.2594570E-03
  0.5287294E-02  0.0000000E+00 -0.5050505E-02 -0.2267409E-04  0.0000000E+00 -0.2435337E-03
 -0.5050505E-02  0.0000000E+00 -0.5050505E-02  0.1121183E-08  0.0000000E+00 -0.2591636E-03
 -0.5050505E-02  0.0000000E+00 -0.5050505E-02  0.3360387E-08  0.0000000E+00 -0.2591627E-03
 -0.5050505E-02  0.0000000E+00 -0.5050505E-02  0.5590116E-08  0.0000000E+00 -0.2591608E-03
 -0.5050505E-02  0.0000000E+00 -0.5050505E-02  0.7804127E-08  0.0000000E+00 -0.2591580E-03
 -0.5050505E-02  0.0000000E+00 -0.5050505E-02  0.9996134E-08  0.0000000E+00 -0.2591543E-03
 -0.5050505E-02  0.0000000E+00 -0.5050505E-02  0.1215982E-07  0.0000000E+00 -0.2591496E-03
 -0.5050504E-02  0.0000000E+00 -0.5050505E-02  0.1428889E-07  0.0000000E+00 -0.2591441E-03
 -0.5050501E-02  0.0000000E+00 -0.5050505E-02  0.1637706E-07  0.0000000E+00 -0.2591376E-03
 -0.5050495E-02  0.0000000E+00 -0.5050505E-02  0.1841803E-07  0.0000000E+00 -0.2591303E-03
 -0.5050482E-02  0.0000000E+00 -0.5050505E-02  0.2040555E-07  0.0000000E+00 -0.2591222E-03
 -0.5050449E-02  0.0000000E+00 -0.5050505E-02  0.2233333E-07  0.0000000E+00 -0.2591132E-03
 -0.5050376E-02  0.0000000E+00 -0.5050505E-02  0.2419515E-07  0.0000000E+00 -0.2591034E-03
 -0.5050299E-02  0.0000000E+00 -0.5050505E-02  0.2598480E-07  0.0000000E+00 -0.2590929E-03
 -0.5050178E-02  0.0000000E+00 -0.5050505E-02  0.2769612E-07  0.0000000E+00 -0.2590816E-03
 -0.5050018E-02  0.0000000E+00 -0.5050505E-02  0.2932300E-07  0.0000000E+00 -0.2590696E-03
 -0.5049710E-02  0.0000000E+00 -0.5050505E-02  0.3085940E-07  0.0000000E+00 -0.2590570E-03
 -0.5049253E-02  0.0000000E+00 -0.5050505E-02  0.3229938E-07  0.0000000E+00 -0.2590437E-03
 -0.5048636E-02  0.0000000E+00 -0.5050505E-02  0.3363712E-07  0.0000000E+00 -0.2590299E-03
 -0.5047442E-02  0.0000000E+00 -0.5050505E-02  0.3486691E-07  0.0000000E+00 -0.2590155E-03
 -0.5045727E-02  0.0000000E+00 -0.5050505E-02  0.3598322E-07  0.0000000E+00 -0.2590006E-03
 -0.5043261E-02  0.0000000E+00 -0.5050505E-02  0.3698070E-07  0.0000000E+00 -0.2589853E-03
 -0.5038714E-02  0.0000000E+00 -0.5050505E-02  0.3785420E-07  0.0000000E+00 -0.2589696E-03
 -0.5032318E-02  0.0000000E+00 -0.5050505E-02  0.3859885E-07  0.0000000E+00 -0.2589535E-03
 -0.5022454E-02  0.0000000E+00 -0.5050505E-02  0.3921003E-07  0.0000000E+00 -0.2589372E-03
 -0.5012589E-02  0.0000000E+00 -0.5050505E-02  0.3968345E-07  0.0000000E+00 -0.2589206E-03
 -0.5002725E-02  0.0000000E+00 -0.5050505E-02  0.4001517E-07  0.0000000E+00 -0.2589038E-03
 -0.4992860E-02  0.0000000E+00 -0.5050505E-02  0.4020163E-07  0.0000000E+00 -0.2588870E-03
 -0.4976523E-02  0.0000000E+00 -0.5050505E-02  0.4023972E-07  0.0000000E+00 -0.2588700E-03
 -0.4956794E-02  0.0000000E+00 -0.5050505E-02  0.4012677E-07  0.0000000E+00 -0.2588531E-03
 -0.4937066E-02  0.0000000E+00 -0.5050505E-02  0.3986063E-07  0.0000000E+00 -0.2588363E-03
 -0.4906239E-02  0.0000000E+00 -0.5050505E-02  0.3943970E-07  0.0000000E+00 -0.2588196E-03
 -0.4866782E-02  0.0000000E+00 -0.5050505E-02  0.3886295E-07  0.0000000E+00 -0.2588032E-03
 -0.4827325E-02  0.0000000E+00 -0.5050505E-02  0.3812998E-07  0.0000000E+00 -0.2587870E-03
 -0.4769372E-02  0.0000000E+00 -0.5050505E-02  0.3724104E-07  0.0000000E+00 -0.2587711E-03
 -0.4690458E-02  0.0000000E+00 -0.5050505E-02  0.3619705E-07  0.0000000E+00 -0.2587556E-03
 -0.4611543E-02  0.0000000E+00 -0.5050505E-02  0.3499966E-07  0.0000000E+00 -0.2587407E-03
 -0.4503035E-02  0.0000000E+00 -0.5050505E-02  0.3365126E-07  0.0000000E+00 -0.2587262E-03
 -0.4345206E-02  0.0000000E+00 -0.5050505E-02  0.3215498E-07  0.0000000E+00 -0.2587123E-03
 -0.4187378E-02  0.0000000E+00 -0.5050505E-02  0.3051475E-07  0.0000000E+00 -0.2586991E-03
 -0.3985156E-02  0.0000000E+00 -0.5050505E-02  0.2873525E-07  0.0000000E+00 -0.2586867E-03
 -0.3669499E-02  0.0000000E+00 -0.5050505E-02  0.2682197E-07  0.0000000E+00 -0.2586749E-03
 -0.3353842E-02  0.0000000E+00 -0.5050505E-02  0.2478117E-07  0.0000000E+00 -0.2586641E-03
 -0.2978990E-02  0.0000000E+00 -0.5050505E-02  0.2261988E-07  0.0000000E+00 -0.2586541E-03
 -0.2347676E-02  0.0000000E+00 -0.5050505E-02  0.2034587E-07  0.0000000E+00 -0.2586450E-03
 -0.1716362E-02  0.0000000E+00 -0.5050505E-02  0.1796766E-07  0.0000000E+00 -0.2586369E-03
 -0.1025842E-02  0.0000000E+00 -0.5050505E-02  0.1549439E-07  0.0000000E+00 -0.2586298E-03
  0.2367855E-03  0.0000000E+00 -0.5050505E-02  0.1293588E-07  0.0000000E+00 -0.2586238E-03
  0.1499413E-02  0.0000000E+00 -0.5050505E-02  0.1030249E-07  0.0000000E+00 -0.2586189E-03
  0.2762042E-02  0.0000000E+00 -0.5050505E-02  0.7605089E-08  0.0000000E+00 -0.2586151E-03
 -0.5050505E-02  0.0000000E+00 -0.5050505E-02  0.4854982E-08  0.0000000E+00 -0.2586125E-03
 -0.5050505E-02  0.0000000E+00 -0.5050505E-02  0.2063786E-08  0.0000000E+00 -0.2586110E-03
 -0.5050505E-02  0.0000000E+00 -0.5050505E-02 -0.7565449E-09  0.0000000E+00 -0.2586107E-03
 -0.5050505E-02  0.0000000E+00 -0.5050505E-02 -0.3594229E-08  0.0000000E+00 -0.2586115E-03
 -0.5050505E-02  0.0000000E+00 -0.5050505E-02 -0.6437085E-08  0.0000000E+00 -0.2586136E-03
 -0.5050505E-02  0.0000000E+00 -0.5050505E-02 -0.9273361E-08  0.0000000E+00 -0.2586169E-03
 -0.5050505E-02  0.0000000E+00 -0.5050505E-02 -0.1209142E-07  0.0000000E+00 -0.2586214E-03
 -0.5050504E-02  0.0000000E+00 -0.5050505E-02 -0.1488002E-07  0.0000000E+00 -0.2586270E-03
 -0.5050501E-02  0.0000000E+00 -0.5050505E-02 -0.1762853E-07  0.0000000E+00 -0.2586338E-03
 -0.5050495E-02  0.0000000E+00 -0.5050505E-02 -0.2032700E-07  0.0000000E+00 -0.2586417E-03
 -0.5050482E-02  0.0000000E+00 -0.5050505E-02 -0.2296633E-07  0.0000000E+00 -0.2586508E-03
 -0.5050449E-02  0.0000000E+00 -0.5050505E-02 -0.2553848E-07  0.0000000E+00 -0.2586609E-03
 -0.5050376E-02  0.0000000E+00 -0.5050505E-02 -0.2803662E-07  0.0000000E+00 -0.2586722E-03
 -0.5050299E-02  0.0000000E+00 -0.5050505E-02 -0.3045531E-07  0.0000000E+00 -0.2586844E-03
 -0.5050178E-02  0.0000000E+00 -0.5050505E-02 -0.3279075E-07  0.0000000E+00 -0.2586976E-03
 -0.5050018E-02  0.0000000E+00 -0.5050505E-02 -0.3504097E-07  0.0000000E+00 -0.2587118E-03
 -0.5049710E-02  0.0000000E+00 -0.5050505E-02 -0.3720611E-07  0.0000000E+00 -0.2587270E-03
 -0.5049253E-02  0.0000000E+00 -0.5050505E-02 -0.3928873E-07  0.0000000E+00 -0.2587429E-03
 -0.5048636E-02  0.0000000E+00 -0.5050505E-02 -0.4129410E-07  0.0000000E+00 -0.2587598E-03
 -0.5047442E-02  0.0000000E+00 -0.5050505E-02 -0.4323073E-07  0.0000000E+00 -0.2587774E-03
 -0.5045727E-02  0.0000000E+00 -0.5050505E-02 -0.4511082E-07  0.0000000E+00 -0.2587959E-03
 -0.5043261E-02  0.0000000E+00 -0.5050505E-02 -0.4695099E-07  0.0000000E+00 -0.2588150E-03
 -0.5038714E-02  0.0000000E+00 -0.5050505E-02 -0.4877308E-07  0.0000000E+00 -0.2588350E-03
 -0.5032318E-02  0.0000000E+00 -0.5050505E-02 -0.5060535E-07  0.0000000E+00 -0.2588556E-03
 -0.5022454E-02  0.0000000E+00 -0.5050505E-02 -0.5248390E-07  0.0000000E+00 -0.2588770E-03
 -0.5012589E-02  0.0000000E+00 -0.5050505E-02 -0.5445466E-07  0.0000000E+00 -0.2588992E-03
 -0.5002725E-02  0.0000000E+00 -0.5050505E-02 -0.5657606E-07  0.0000000E+00 -0.2589221E-03
 -0.4992860E-02  0.0000000E+00 -0.5050505E-02 -0.5892260E-07  0.0000000E+00 -0.2589459E-03
 -0.4976523E-02  0.0000000E+00 -0.5050505E-02 -0.6158989E-07  0.0000000E+00 -0.2589706E-03
 -0.4956794E-02  0.0000000E+00 -0.5050505E-02 -0.6470155E-07  0.0000000E+00 -0.2589964E-03
 -0.4937066E-02  0.0000000E+00 -0.5050505E-02 -0.6841903E-07  0.0000000E+00 -0.2590234E-03
 -0.4906239E-02  0.0000000E+00 -0.5050505E-02 -0.7295569E-07  0.0000000E+00 -0.2590520E-03
 -0.4866782E-02  0.0000000E+00 -0.5050505E-02 -0.7859727E-07  0.0000000E+00 -0.2590823E-03
 -0.4827325E-02  0.0000000E+00 -0.5050505E-02 -0.8573216E-07  0.0000000E+00 -0.2591149E-03
 -0.4769372E-02  0.0000000E+00 -0.5050505E-02 -0.9489712E-07  0.0000000E+00 -0.2591502E-03
 -0.4690458E-02  0.0000000E+00 -0.5050505E-02 -0.1068474E-06  0.0000000E+00 -0.2591891E-03
 -0.4611543E-02  0.0000000E+00 -0.5050505E-02 -0.1226674E-06  0.0000000E+00 -0.2592325E-03
 -0.4503035E-02  0.0000000E+00 -0.5050505E-02 -0.1439474E-06  0.0000000E+00 -0.2592817E-03
 -0.4345206E-02  0.0000000E+00 -0.5050505E-02 -0.1730767E-06  0.0000000E+00 -0.2593384E-03
 -0.4187378E-02  0.0000000E+00 -0.5050505E-02 -0.2137374E-06  0.0000000E+00 -0.2594049E-03
 -0.3985156E-02  0.0000000E+00 -0.5050505E-02 -0.2717630E-06  0.0000000E+00 -0.2594838E-03
 -0.3669499E-02  0.0000000E+00 -0.5050505E-02 -0.3566658E-06  0.0000000E+00 -0.2595783E-03
 -0.3353842E-02  0.0000000E+00 -0.5050505E-02 -0.4844136E-06  0.0000000E+00 -0.2596912E-03
 -0.2978990E-02  0.0000000E+00 -0.5050505E-02 -0.6825248E-06  0.0000000E+00 -0.2598213E-03
 -0.2347676E-02  0.0000000E+00 -0.5050505E-02 -0.9992836E-06  0.0000000E+00 -0.2599550E-03
 -0.1716362E-02  0.0000000E+00 -0.5050505E-02 -0.1519134E-05  0.0000000E+00 -0.2600396E-03
 -0.1025842E-02  0.0000000E+00 -0.5050505E-02 -0.2381363E-05  0.0000000E+00 -0.2599126E-03
  0.2367855E-03  0.0000000E+00 -0.5050505E-02 -0.3764722E-05  0.0000000E+00 -0.2591331E-03
  0.1499413E-02  0.0000000E+00 -0.5050505E-02 -0.5622432E-05  0.0000000E+00 -0.2567122E-03
  0.5287294E-02  0.0000000E+00 -0.5050505E-02 -0.6113015E-05  0.0000000E+00 -0.2516177E-03
 -0.5050505E-02  0.0000000E+00 -0.5050505E-02  0.1580405E-08  0.0000000E+00 -0.2587852E-03
 -0.5050505E-02  0.0000000E+00 -0.5050505E-02  0.4736763E-08  0.0000000E+00 -0.2587842E-03
 -0.5050505E-02  0.0000000E+00 -0.5050505E-02  0.7879843E-08  0.0000000E+00 -0.2587823E-03
 -0.5050505E-02  0.0000000E+00 -0.5050505E-02  0.1100081E-07  0.0000000E+00 -0.2587794E-03
 -0.5050505E-02  0.0000000E+00 -0.5050505E-02  0.1409086E-07  0.0000000E+00 -0.2587756E-03
 -0.5050505E-02  0.0000000E+00 -0.5050505E-02  0.1714111E-07  0.0000000E+00 -0.2587708E-03
 -0.5050504E-02  0.0000000E+00 -0.5050505E-02  0.2014272E-07  0.0000000E+00 -0.2587651E-03
 -0.5050501E-02  0.0000000E+00 -0.5050505E-02  0.2308683E-07  0.0000000E+00 -0.2587586E-03
 -0.5050495E-02  0.0000000E+00 -0.5050505E-02  0.2596461E-07  0.0000000E+00 -0.2587511E-03
 -0.5050482E-02  0.0000000E+00 -0.5050505E-02  0.2876724E-07  0.0000000E+00 -0.2587427E-03
 -0.5050449E-02  0.0000000E+00 -0.5050505E-02  0.3148589E-07  0.0000000E+00 -0.2587336E-03
 -0.5050376E-02  0.0000000E+00 -0.5050505E-02  0.3411180E-07  0.0000000E+00 -0.2587236E-03
 -0.5050299E-02  0.0000000E+00 -0.5050505E-02  0.3663622E-07  0.0000000E+00 -0.2587128E-03
 -0.5050178E-02  0.0000000E+00 -0.5050505E-02  0.3905046E-07  0.0000000E+00 -0.2587012E-03
 -0.5050018E-02  0.0000000E+00 -0.5050505E-02  0.4134594E-07  0.0000000E+00 -0.2586890E-03
 -0.5049710E-02  0.0000000E+00 -0.5050505E-02  0.4351413E-07  0.0000000E+00 -0.2586760E-03
 -0.5049253E-02  0.0000000E+00 -0.5050505E-02  0.4554666E-07  0.0000000E+00 -0.2586624E-03
 -0.5048636E-02  0.0000000E+00 -0.5050505E-02  0.4743531E-07  0.0000000E+00 -0.2586483E-03
 -0.5047442E-02  0.0000000E+00 -0.5050505E-02  0.4917202E-07  0.0000000E+00 -0.2586335E-03
 -0.5045727E-02  0.0000000E+00 -0.5050505E-02  0.5074899E-07  0.0000000E+00 -0.2586183E-03
 -0.5043261E-02  0.0000000E+00 -0.5050505E-02  0.5215864E-07  0.0000000E+00 -0.2586026E-03
 -0.5038714E-02  0.0000000E+00 -0.5050505E-02  0.5339371E-07  0.0000000E+00 -0.2585864E-03
 -0.5032318E-02  0.0000000E+00 -0.5050505E-02  0.5444729E-07  0.0000000E+00 -0.2585700E-03
 -0.5022454E-02  0.0000000E+00 -0.5050505E-02  0.5531284E-07  0.0000000E+00 -0.2585532E-03
 -0.5012589E-02  0.0000000E+00 -0.5050505E-02  0.5598429E-07  0.0000000E+00 -0.2585362E-03
 -0.5002725E-02  0.0000000E+00 -0.5050505E-02  0.5645603E-07  0.0000000E+00 -0.2585190E-03
 -0.4992860E-02  0.0000000E+00 -0.5050505E-02  0.5672302E-07  0.0000000E+00 -0.2585017E-03
 -0.4976523E-02  0.0000000E+00 -0.5050505E-02  0.5678082E-07  0.0000000E+00 -0.2584844E-03
 -0.4956794E-02  0.0000000E+00 -0.5050505E-02  0.5662564E-07  0.0000000E+00 -0.2584670E-03
 -0.4937066E-02  0.0000000E+00 -0.5050505E-02  0.5625439E-07  0.0000000E+00 -0.2584497E-03