title = "dataset feddes"
variables = "x", "y", "z", "vx", "vy", "vz"
zone t = "velocities, solution time =  3.200E+01 days        " i =   99, j =   99, k =    1,  f=point
 -0.5050505E-02  0.0000000E+00 -0.5050505E-02  0.3749923E-10  0.0000000E+00 -0.3030750E-03
 -0.5050505E-02  0.0000000E+00 -0.5050505E-02  0.1118782E-09  0.0000000E+00 -0.3030748E-03
 -0.5050505E-02  0.0000000E+00 -0.5050505E-02  0.1858035E-09  0.0000000E+00 -0.3030745E-03
 -0.5050505E-02  0.0000000E+00 -0.5050505E-02  0.2591288E-09  0.0000000E+00 -0.3030740E-03
 -0.5050505E-02  0.0000000E+00 -0.5050505E-02  0.3315517E-09  0.0000000E+00 -0.3030734E-03
 -0.5050505E-02  0.0000000E+00 -0.5050505E-02  0.4027988E-09  0.0000000E+00 -0.3030727E-03
 -0.5050504E-02  0.0000000E+00 -0.5050505E-02  0.4726093E-09  0.0000000E+00 -0.3030718E-03
 -0.5050501E-02  0.0000000E+00 -0.5050505E-02  0.5407217E-09  0.0000000E+00 -0.3030707E-03
 -0.5050495E-02  0.0000000E+00 -0.5050505E-02  0.6068833E-09  0.0000000E+00 -0.3030695E-03
 -0.5050482E-02  0.0000000E+00 -0.5050505E-02  0.6708393E-09  0.0000000E+00 -0.3030682E-03
 -0.5050449E-02  0.0000000E+00 -0.5050505E-02  0.7323406E-09  0.0000000E+00 -0.3030667E-03
 -0.5050376E-02  0.0000000E+00 -0.5050505E-02  0.7911432E-09  0.0000000E+00 -0.3030652E-03
 -0.5050299E-02  0.0000000E+00 -0.5050505E-02  0.8470030E-09  0.0000000E+00 -0.3030635E-03
 -0.5050178E-02  0.0000000E+00 -0.5050505E-02  0.8996853E-09  0.0000000E+00 -0.3030617E-03
 -0.5050018E-02  0.0000000E+00 -0.5050505E-02  0.9489586E-09  0.0000000E+00 -0.3030597E-03
 -0.5049710E-02  0.0000000E+00 -0.5050505E-02  0.9945973E-09  0.0000000E+00 -0.3030577E-03
 -0.5049253E-02  0.0000000E+00 -0.5050505E-02  0.1036384E-08  0.0000000E+00 -0.3030556E-03
 -0.5048636E-02  0.0000000E+00 -0.5050505E-02  0.1074109E-08  0.0000000E+00 -0.3030534E-03
 -0.5047442E-02  0.0000000E+00 -0.5050505E-02  0.1107570E-08  0.0000000E+00 -0.3030512E-03
 -0.5045727E-02  0.0000000E+00 -0.5050505E-02  0.1136576E-08  0.0000000E+00 -0.3030489E-03
 -0.5043261E-02  0.0000000E+00 -0.5050505E-02  0.1160946E-08  0.0000000E+00 -0.3030465E-03
 -0.5038714E-02  0.0000000E+00 -0.5050505E-02  0.1180510E-08  0.0000000E+00 -0.3030440E-03
 -0.5032318E-02  0.0000000E+00 -0.5050505E-02  0.1195110E-08  0.0000000E+00 -0.3030416E-03
 -0.5022454E-02  0.0000000E+00 -0.5050505E-02  0.1204604E-08  0.0000000E+00 -0.3030391E-03
 -0.5012589E-02  0.0000000E+00 -0.5050505E-02  0.1208862E-08  0.0000000E+00 -0.3030366E-03
 -0.5002725E-02  0.0000000E+00 -0.5050505E-02  0.1207770E-08  0.0000000E+00 -0.3030341E-03
 -0.4992860E-02  0.0000000E+00 -0.5050505E-02  0.1201231E-08  0.0000000E+00 -0.3030316E-03
 -0.4976523E-02  0.0000000E+00 -0.5050505E-02  0.1189165E-08  0.0000000E+00 -0.3030291E-03
 -0.4956794E-02  0.0000000E+00 -0.5050505E-02  0.1171509E-08  0.0000000E+00 -0.3030267E-03
 -0.4937066E-02  0.0000000E+00 -0.5050505E-02  0.1148221E-08  0.0000000E+00 -0.3030243E-03
 -0.4906239E-02  0.0000000E+00 -0.5050505E-02  0.1119275E-08  0.0000000E+00 -0.3030219E-03
 -0.4866782E-02  0.0000000E+00 -0.5050505E-02  0.1084669E-08  0.0000000E+00 -0.3030196E-03
 -0.4827325E-02  0.0000000E+00 -0.5050505E-02  0.1044418E-08  0.0000000E+00 -0.3030174E-03
 -0.4769372E-02  0.0000000E+00 -0.5050505E-02  0.9985584E-09  0.0000000E+00 -0.3030153E-03
 -0.4690458E-02  0.0000000E+00 -0.5050505E-02  0.9471484E-09  0.0000000E+00 -0.3030133E-03
 -0.4611543E-02  0.0000000E+00 -0.5050505E-02  0.8902650E-09  0.0000000E+00 -0.3030114E-03
 -0.4503035E-02  0.0000000E+00 -0.5050505E-02  0.8280057E-09  0.0000000E+00 -0.3030096E-03
 -0.4345206E-02  0.0000000E+00 -0.5050505E-02  0.7604877E-09  0.0000000E+00 -0.3030080E-03
 -0.4187378E-02  0.0000000E+00 -0.5050505E-02  0.6878463E-09  0.0000000E+00 -0.3030065E-03
 -0.3985156E-02  0.0000000E+00 -0.5050505E-02  0.6102348E-09  0.0000000E+00 -0.3030051E-03
 -0.3669499E-02  0.0000000E+00 -0.5050505E-02  0.5278225E-09  0.0000000E+00 -0.3030039E-03
 -0.3353842E-02  0.0000000E+00 -0.5050505E-02  0.4407933E-09  0.0000000E+00 -0.3030029E-03
 -0.2978990E-02  0.0000000E+00 -0.5050505E-02  0.3493432E-09  0.0000000E+00 -0.3030021E-03
 -0.2347676E-02  0.0000000E+00 -0.5050505E-02  0.2536777E-09  0.0000000E+00 -0.3030015E-03
 -0.1716362E-02  0.0000000E+00 -0.5050505E-02  0.1540094E-09  0.0000000E+00 -0.3030011E-03
 -0.1025842E-02  0.0000000E+00 -0.5050505E-02  0.5050387E-10  0.0000000E+00 -0.3030009E-03
  0.2367855E-03  0.0000000E+00 -0.5050505E-02 -0.5656394E-10  0.0000000E+00 -0.3030009E-03
  0.1499413E-02  0.0000000E+00 -0.5050505E-02 -0.1669551E-09  0.0000000E+00 -0.3030011E-03
  0.2762042E-02  0.0000000E+00 -0.5050505E-02 -0.2805147E-09  0.0000000E+00 -0.3030016E-03
 -0.5050505E-02  0.0000000E+00 -0.5050505E-02 -0.3970569E-09  0.0000000E+00 -0.3030023E-03
 -0.5050505E-02  0.0000000E+00 -0.5050505E-02 -0.5164039E-09  0.0000000E+00 -0.3030032E-03
 -0.5050505E-02  0.0000000E+00 -0.5050505E-02 -0.6384059E-09  0.0000000E+00 -0.3030044E-03
 -0.5050505E-02  0.0000000E+00 -0.5050505E-02 -0.7629522E-09  0.0000000E+00 -0.3030059E-03
 -0.5050505E-02  0.0000000E+00 -0.5050505E-02 -0.8899682E-09  0.0000000E+00 -0.3030076E-03
 -0.5050505E-02  0.0000000E+00 -0.5050505E-02 -0.1019429E-08  0.0000000E+00 -0.3030095E-03
 -0.5050505E-02  0.0000000E+00 -0.5050505E-02 -0.1151371E-08  0.0000000E+00 -0.3030118E-03
 -0.5050504E-02  0.0000000E+00 -0.5050505E-02 -0.1285897E-08  0.0000000E+00 -0.3030143E-03
 -0.5050501E-02  0.0000000E+00 -0.5050505E-02 -0.1423190E-08  0.0000000E+00 -0.3030171E-03
 -0.5050495E-02  0.0000000E+00 -0.5050505E-02 -0.1563536E-08  0.0000000E+00 -0.3030202E-03
 -0.5050482E-02  0.0000000E+00 -0.5050505E-02 -0.1707333E-08  0.0000000E+00 -0.3030236E-03
 -0.5050449E-02  0.0000000E+00 -0.5050505E-02 -0.1855105E-08  0.0000000E+00 -0.3030273E-03
 -0.5050376E-02  0.0000000E+00 -0.5050505E-02 -0.2007545E-08  0.0000000E+00 -0.3030313E-03
 -0.5050299E-02  0.0000000E+00 -0.5050505E-02 -0.2165526E-08  0.0000000E+00 -0.3030356E-03
 -0.5050178E-02  0.0000000E+00 -0.5050505E-02 -0.2330144E-08  0.0000000E+00 -0.3030403E-03
 -0.5050018E-02  0.0000000E+00 -0.5050505E-02 -0.2502759E-08  0.0000000E+00 -0.3030453E-03
 -0.5049710E-02  0.0000000E+00 -0.5050505E-02 -0.2685049E-08  0.0000000E+00 -0.3030507E-03
 -0.5049253E-02  0.0000000E+00 -0.5050505E-02 -0.2879070E-08  0.0000000E+00 -0.3030564E-03
 -0.5048636E-02  0.0000000E+00 -0.5050505E-02 -0.3087345E-08  0.0000000E+00 -0.3030626E-03
 -0.5047442E-02  0.0000000E+00 -0.5050505E-02 -0.3312965E-08  0.0000000E+00 -0.3030693E-03
 -0.5045727E-02  0.0000000E+00 -0.5050505E-02 -0.3559718E-08  0.0000000E+00 -0.3030764E-03
 -0.5043261E-02  0.0000000E+00 -0.5050505E-02 -0.3832266E-08  0.0000000E+00 -0.3030840E-03
 -0.5038714E-02  0.0000000E+00 -0.5050505E-02 -0.4136363E-08  0.0000000E+00 -0.3030923E-03
 -0.5032318E-02  0.0000000E+00 -0.5050505E-02 -0.4479145E-08  0.0000000E+00 -0.3031012E-03
 -0.5022454E-02  0.0000000E+00 -0.5050505E-02 -0.4869521E-08  0.0000000E+00 -0.3031109E-03
 -0.5012589E-02  0.0000000E+00 -0.5050505E-02 -0.5318682E-08  0.0000000E+00 -0.3031215E-03
 -0.5002725E-02  0.0000000E+00 -0.5050505E-02 -0.5840808E-08  0.0000000E+00 -0.3031330E-03
 -0.4992860E-02  0.0000000E+00 -0.5050505E-02 -0.6454020E-08  0.0000000E+00 -0.3031458E-03
 -0.4976523E-02  0.0000000E+00 -0.5050505E-02 -0.7181712E-08  0.0000000E+00 -0.3031599E-03
 -0.4956794E-02  0.0000000E+00 -0.5050505E-02 -0.8054426E-08  0.0000000E+00 -0.3031757E-03
 -0.4937066E-02  0.0000000E+00 -0.5050505E-02 -0.9112525E-08  0.0000000E+00 -0.3031935E-03
 -0.4906239E-02  0.0000000E+00 -0.5050505E-02 -0.1041009E-07  0.0000000E+00 -0.3032137E-03
 -0.4866782E-02  0.0000000E+00 -0.5050505E-02 -0.1202069E-07  0.0000000E+00 -0.3032370E-03
 -0.4827325E-02  0.0000000E+00 -0.5050505E-02 -0.1404609E-07  0.0000000E+00 -0.3032640E-03
 -0.4769372E-02  0.0000000E+00 -0.5050505E-02 -0.1662971E-07  0.0000000E+00 -0.3032958E-03
 -0.4690458E-02  0.0000000E+00 -0.5050505E-02 -0.1997807E-07  0.0000000E+00 -0.3033337E-03
 -0.4611543E-02  0.0000000E+00 -0.5050505E-02 -0.2439556E-07  0.0000000E+00 -0.3033797E-03
 -0.4503035E-02  0.0000000E+00 -0.5050505E-02 -0.3034328E-07  0.0000000E+00 -0.3034364E-03
 -0.4345206E-02  0.0000000E+00 -0.5050505E-02 -0.3854165E-07  0.0000000E+00 -0.3035078E-03
 -0.4187378E-02  0.0000000E+00 -0.5050505E-02 -0.5015756E-07  0.0000000E+00 -0.3035998E-03
 -0.3985156E-02  0.0000000E+00 -0.5050505E-02 -0.6716220E-07  0.0000000E+00 -0.3037213E-03
 -0.3669499E-02  0.0000000E+00 -0.5050505E-02 -0.9305509E-07  0.0000000E+00 -0.3038874E-03
 -0.3353842E-02  0.0000000E+00 -0.5050505E-02 -0.1344275E-06  0.0000000E+00 -0.3041232E-03
 -0.2978990E-02  0.0000000E+00 -0.5050505E-02 -0.2046010E-06  0.0000000E+00 -0.3044746E-03
 -0.2347676E-02  0.0000000E+00 -0.5050505E-02 -0.3328442E-06  0.0000000E+00 -0.3050316E-03
 -0.1716362E-02  0.0000000E+00 -0.5050505E-02 -0.5899717E-06  0.0000000E+00 -0.3059882E-03
 -0.1025842E-02  0.0000000E+00 -0.5050505E-02 -0.1166585E-05  0.0000000E+00 -0.3078093E-03
  0.2367855E-03  0.0000000E+00 -0.5050505E-02 -0.2635643E-05  0.0000000E+00 -0.3117520E-03
  0.1499413E-02  0.0000000E+00 -0.5050505E-02 -0.6912642E-05  0.0000000E+00 -0.3216582E-03
  0.5287294E-02  0.0000000E+00 -0.5050505E-02 -0.1133065E-03  0.0000000E+00 -0.2566588E-03
 -0.5050505E-02  0.0000000E+00 -0.5050505E-02  0.1126445E-09  0.0000000E+00 -0.3029124E-03
 -0.5050505E-02  0.0000000E+00 -0.5050505E-02  0.3363829E-09  0.0000000E+00 -0.3029122E-03
 -0.5050505E-02  0.0000000E+00 -0.5050505E-02  0.5587435E-09  0.0000000E+00 -0.3029119E-03
 -0.5050505E-02  0.0000000E+00 -0.5050505E-02  0.7792753E-09  0.0000000E+00 -0.3029115E-03
 -0.5050505E-02  0.0000000E+00 -0.5050505E-02  0.9970842E-09  0.0000000E+00 -0.3029108E-03
 -0.5050505E-02  0.0000000E+00 -0.5050505E-02  0.1211357E-08  0.0000000E+00 -0.3029101E-03
 -0.5050504E-02  0.0000000E+00 -0.5050505E-02  0.1421312E-08  0.0000000E+00 -0.3029092E-03
 -0.5050501E-02  0.0000000E+00 -0.5050505E-02  0.1626165E-08  0.0000000E+00 -0.3029081E-03
 -0.5050495E-02  0.0000000E+00 -0.5050505E-02  0.1825156E-08  0.0000000E+00 -0.3029069E-03
 -0.5050482E-02  0.0000000E+00 -0.5050505E-02  0.2017522E-08  0.0000000E+00 -0.3029056E-03
 -0.5050449E-02  0.0000000E+00 -0.5050505E-02  0.2202512E-08  0.0000000E+00 -0.3029041E-03
 -0.5050376E-02  0.0000000E+00 -0.5050505E-02  0.2379392E-08  0.0000000E+00 -0.3029025E-03
 -0.5050299E-02  0.0000000E+00 -0.5050505E-02  0.2547432E-08  0.0000000E+00 -0.3029008E-03
 -0.5050178E-02  0.0000000E+00 -0.5050505E-02  0.2705923E-08  0.0000000E+00 -0.3028990E-03
 -0.5050018E-02  0.0000000E+00 -0.5050505E-02  0.2854170E-08  0.0000000E+00 -0.3028970E-03
 -0.5049710E-02  0.0000000E+00 -0.5050505E-02  0.2991495E-08  0.0000000E+00 -0.3028950E-03
 -0.5049253E-02  0.0000000E+00 -0.5050505E-02  0.3117245E-08  0.0000000E+00 -0.3028929E-03
 -0.5048636E-02  0.0000000E+00 -0.5050505E-02  0.3230787E-08  0.0000000E+00 -0.3028907E-03
 -0.5047442E-02  0.0000000E+00 -0.5050505E-02  0.3331516E-08  0.0000000E+00 -0.3028884E-03
 -0.5045727E-02  0.0000000E+00 -0.5050505E-02  0.3418856E-08  0.0000000E+00 -0.3028860E-03
 -0.5043261E-02  0.0000000E+00 -0.5050505E-02  0.3492260E-08  0.0000000E+00 -0.3028836E-03
 -0.5038714E-02  0.0000000E+00 -0.5050505E-02  0.3551220E-08  0.0000000E+00 -0.3028812E-03
 -0.5032318E-02  0.0000000E+00 -0.5050505E-02  0.3595262E-08  0.0000000E+00 -0.3028787E-03
 -0.5022454E-02  0.0000000E+00 -0.5050505E-02  0.3623953E-08  0.0000000E+00 -0.3028762E-03
 -0.5012589E-02  0.0000000E+00 -0.5050505E-02  0.3636905E-08  0.0000000E+00 -0.3028737E-03
 -0.5002725E-02  0.0000000E+00 -0.5050505E-02  0.3633775E-08  0.0000000E+00 -0.3028711E-03
 -0.4992860E-02  0.0000000E+00 -0.5050505E-02  0.3614270E-08  0.0000000E+00 -0.3028686E-03
 -0.4976523E-02  0.0000000E+00 -0.5050505E-02  0.3578148E-08  0.0000000E+00 -0.3028661E-03
 -0.4956794E-02  0.0000000E+00 -0.5050505E-02  0.3525223E-08  0.0000000E+00 -0.3028636E-03
 -0.4937066E-02  0.0000000E+00 -0.5050505E-02  0.3455363E-08  0.0000000E+00 -0.3028612E-03
 -0.4906239E-02  0.0000000E+00 -0.5050505E-02  0.3368495E-08  0.0000000E+00 -0.3028588E-03
 -0.4866782E-02  0.0000000E+00 -0.5050505E-02  0.3264608E-08  0.0000000E+00 -0.3028565E-03
 -0.4827325E-02  0.0000000E+00 -0.5050505E-02  0.3143750E-08  0.0000000E+00 -0.3028543E-03
 -0.4769372E-02  0.0000000E+00 -0.5050505E-02  0.3006032E-08  0.0000000E+00 -0.3028521E-03
 -0.4690458E-02  0.0000000E+00 -0.5050505E-02  0.2851624E-08  0.0000000E+00 -0.3028501E-03
 -0.4611543E-02  0.0000000E+00 -0.5050505E-02  0.2680761E-08  0.0000000E+00 -0.3028482E-03
 -0.4503035E-02  0.0000000E+00 -0.5050505E-02  0.2493736E-08  0.0000000E+00 -0.3028464E-03
 -0.4345206E-02  0.0000000E+00 -0.5050505E-02  0.2290903E-08  0.0000000E+00 -0.3028447E-03
 -0.4187378E-02  0.0000000E+00 -0.5050505E-02  0.2072668E-08  0.0000000E+00 -0.3028432E-03
 -0.3985156E-02  0.0000000E+00 -0.5050505E-02  0.1839495E-08  0.0000000E+00 -0.3028418E-03
 -0.3669499E-02  0.0000000E+00 -0.5050505E-02  0.1591894E-08  0.0000000E+00 -0.3028406E-03
 -0.3353842E-02  0.0000000E+00 -0.5050505E-02  0.1330419E-08  0.0000000E+00 -0.3028396E-03
 -0.2978990E-02  0.0000000E+00 -0.5050505E-02  0.1055664E-08  0.0000000E+00 -0.3028387E-03
 -0.2347676E-02  0.0000000E+00 -0.5050505E-02  0.7682449E-09  0.0000000E+00 -0.3028381E-03
 -0.1716362E-02  0.0000000E+00 -0.5050505E-02  0.4687892E-09  0.0000000E+00 -0.3028377E-03
 -0.1025842E-02  0.0000000E+00 -0.5050505E-02  0.1578562E-09  0.0000000E+00 -0.3028374E-03
  0.2367855E-03  0.0000000E+00 -0.5050505E-02 -0.1637687E-09  0.0000000E+00 -0.3028374E-03
  0.1499413E-02  0.0000000E+00 -0.5050505E-02 -0.4953917E-09  0.0000000E+00 -0.3028376E-03
  0.2762042E-02  0.0000000E+00 -0.5050505E-02 -0.8364968E-09  0.0000000E+00 -0.3028381E-03
 -0.5050505E-02  0.0000000E+00 -0.5050505E-02 -0.1186523E-08  0.0000000E+00 -0.3028388E-03
 -0.5050505E-02  0.0000000E+00 -0.5050505E-02 -0.1544936E-08  0.0000000E+00 -0.3028397E-03
 -0.5050505E-02  0.0000000E+00 -0.5050505E-02 -0.1911277E-08  0.0000000E+00 -0.3028409E-03
 -0.5050505E-02  0.0000000E+00 -0.5050505E-02 -0.2285204E-08  0.0000000E+00 -0.3028424E-03
 -0.5050505E-02  0.0000000E+00 -0.5050505E-02 -0.2666485E-08  0.0000000E+00 -0.3028441E-03
 -0.5050505E-02  0.0000000E+00 -0.5050505E-02 -0.3055031E-08  0.0000000E+00 -0.3028461E-03
 -0.5050505E-02  0.0000000E+00 -0.5050505E-02 -0.3450937E-08  0.0000000E+00 -0.3028483E-03
 -0.5050504E-02  0.0000000E+00 -0.5050505E-02 -0.3854504E-08  0.0000000E+00 -0.3028508E-03
 -0.5050501E-02  0.0000000E+00 -0.5050505E-02 -0.4266258E-08  0.0000000E+00 -0.3028536E-03
 -0.5050495E-02  0.0000000E+00 -0.5050505E-02 -0.4687039E-08  0.0000000E+00 -0.3028567E-03
 -0.5050482E-02  0.0000000E+00 -0.5050505E-02 -0.5118014E-08  0.0000000E+00 -0.3028601E-03
 -0.5050449E-02  0.0000000E+00 -0.5050505E-02 -0.5560739E-08  0.0000000E+00 -0.3028638E-03
 -0.5050376E-02  0.0000000E+00 -0.5050505E-02 -0.6017252E-08  0.0000000E+00 -0.3028678E-03
 -0.5050299E-02  0.0000000E+00 -0.5050505E-02 -0.6490141E-08  0.0000000E+00 -0.3028721E-03
 -0.5050178E-02  0.0000000E+00 -0.5050505E-02 -0.6982647E-08  0.0000000E+00 -0.3028768E-03
 -0.5050018E-02  0.0000000E+00 -0.5050505E-02 -0.7498794E-08  0.0000000E+00 -0.3028818E-03
 -0.5049710E-02  0.0000000E+00 -0.5050505E-02 -0.8043545E-08  0.0000000E+00 -0.3028871E-03
 -0.5049253E-02  0.0000000E+00 -0.5050505E-02 -0.8622991E-08  0.0000000E+00 -0.3028929E-03
 -0.5048636E-02  0.0000000E+00 -0.5050505E-02 -0.9244588E-08  0.0000000E+00 -0.3028991E-03
 -0.5047442E-02  0.0000000E+00 -0.5050505E-02 -0.9917471E-08  0.0000000E+00 -0.3029057E-03
 -0.5045727E-02  0.0000000E+00 -0.5050505E-02 -0.1065284E-07  0.0000000E+00 -0.3029127E-03
 -0.5043261E-02  0.0000000E+00 -0.5050505E-02 -0.1146444E-07  0.0000000E+00 -0.3029204E-03
 -0.5038714E-02  0.0000000E+00 -0.5050505E-02 -0.1236925E-07  0.0000000E+00 -0.3029286E-03
 -0.5032318E-02  0.0000000E+00 -0.5050505E-02 -0.1338829E-07  0.0000000E+00 -0.3029374E-03
 -0.5022454E-02  0.0000000E+00 -0.5050505E-02 -0.1454776E-07  0.0000000E+00 -0.3029470E-03
 -0.5012589E-02  0.0000000E+00 -0.5050505E-02 -0.1588055E-07  0.0000000E+00 -0.3029574E-03
 -0.5002725E-02  0.0000000E+00 -0.5050505E-02 -0.1742821E-07  0.0000000E+00 -0.3029688E-03
 -0.4992860E-02  0.0000000E+00 -0.5050505E-02 -0.1924381E-07  0.0000000E+00 -0.3029814E-03
 -0.4976523E-02  0.0000000E+00 -0.5050505E-02 -0.2139566E-07  0.0000000E+00 -0.3029953E-03
 -0.4956794E-02  0.0000000E+00 -0.5050505E-02 -0.2397272E-07  0.0000000E+00 -0.3030107E-03
 -0.4937066E-02  0.0000000E+00 -0.5050505E-02 -0.2709225E-07  0.0000000E+00 -0.3030281E-03
 -0.4906239E-02  0.0000000E+00 -0.5050505E-02 -0.3091079E-07  0.0000000E+00 -0.3030478E-03
 -0.4866782E-02  0.0000000E+00 -0.5050505E-02 -0.3564046E-07  0.0000000E+00 -0.3030703E-03
 -0.4827325E-02  0.0000000E+00 -0.5050505E-02 -0.4157330E-07  0.0000000E+00 -0.3030963E-03
 -0.4769372E-02  0.0000000E+00 -0.5050505E-02 -0.4911868E-07  0.0000000E+00 -0.3031268E-03
 -0.4690458E-02  0.0000000E+00 -0.5050505E-02 -0.5886191E-07  0.0000000E+00 -0.3031629E-03
 -0.4611543E-02  0.0000000E+00 -0.5050505E-02 -0.7165884E-07  0.0000000E+00 -0.3032063E-03
 -0.4503035E-02  0.0000000E+00 -0.5050505E-02 -0.8879253E-07  0.0000000E+00 -0.3032592E-03
 -0.4345206E-02  0.0000000E+00 -0.5050505E-02 -0.1122420E-06  0.0000000E+00 -0.3033249E-03
 -0.4187378E-02  0.0000000E+00 -0.5050505E-02 -0.1451598E-06  0.0000000E+00 -0.3034080E-03
 -0.3985156E-02  0.0000000E+00 -0.5050505E-02 -0.1927560E-06  0.0000000E+00 -0.3035153E-03
 -0.3669499E-02  0.0000000E+00 -0.5050505E-02 -0.2640121E-06  0.0000000E+00 -0.3036569E-03
 -0.3353842E-02  0.0000000E+00 -0.5050505E-02 -0.3751744E-06  0.0000000E+00 -0.3038482E-03
 -0.2978990E-02  0.0000000E+00 -0.5050505E-02 -0.5572812E-06  0.0000000E+00 -0.3041126E-03
 -0.2347676E-02  0.0000000E+00 -0.5050505E-02 -0.8733632E-06  0.0000000E+00 -0.3044824E-03
 -0.1716362E-02  0.0000000E+00 -0.5050505E-02 -0.1460192E-05  0.0000000E+00 -0.3049902E-03
 -0.1025842E-02  0.0000000E+00 -0.5050505E-02 -0.2635761E-05  0.0000000E+00 -0.3055983E-03
  0.2367855E-03  0.0000000E+00 -0.5050505E-02 -0.5191088E-05  0.0000000E+00 -0.3058387E-03
  0.1499413E-02  0.0000000E+00 -0.5050505E-02 -0.1121687E-04  0.0000000E+00 -0.3030833E-03
  0.5287294E-02  0.0000000E+00 -0.5050505E-02 -0.2650585E-04  0.0000000E+00 -0.2844221E-03
 -0.5050505E-02  0.0000000E+00 -0.5050505E-02  0.1884915E-09  0.0000000E+00 -0.3025934E-03
 -0.5050505E-02  0.0000000E+00 -0.5050505E-02  0.5633842E-09  0.0000000E+00 -0.3025932E-03
 -0.5050505E-02  0.0000000E+00 -0.5050505E-02  0.9359906E-09  0.0000000E+00 -0.3025929E-03
 -0.5050505E-02  0.0000000E+00 -0.5050505E-02  0.1305489E-08  0.0000000E+00 -0.3025925E-03
 -0.5050505E-02  0.0000000E+00 -0.5050505E-02  0.1670411E-08  0.0000000E+00 -0.3025918E-03
 -0.5050505E-02  0.0000000E+00 -0.5050505E-02  0.2029410E-08  0.0000000E+00 -0.3025910E-03
 -0.5050504E-02  0.0000000E+00 -0.5050505E-02  0.2381187E-08  0.0000000E+00 -0.3025901E-03
 -0.5050501E-02  0.0000000E+00 -0.5050505E-02  0.2724434E-08  0.0000000E+00 -0.3025890E-03
 -0.5050495E-02  0.0000000E+00 -0.5050505E-02  0.3057876E-08  0.0000000E+00 -0.3025878E-03
 -0.5050482E-02  0.0000000E+00 -0.5050505E-02  0.3380241E-08  0.0000000E+00 -0.3025864E-03
 -0.5050449E-02  0.0000000E+00 -0.5050505E-02  0.3690271E-08  0.0000000E+00 -0.3025850E-03
 -0.5050376E-02  0.0000000E+00 -0.5050505E-02  0.3986739E-08  0.0000000E+00 -0.3025833E-03
 -0.5050299E-02  0.0000000E+00 -0.5050505E-02  0.4268423E-08  0.0000000E+00 -0.3025816E-03
 -0.5050178E-02  0.0000000E+00 -0.5050505E-02  0.4534135E-08  0.0000000E+00 -0.3025797E-03
 -0.5050018E-02  0.0000000E+00 -0.5050505E-02  0.4782712E-08  0.0000000E+00 -0.3025778E-03
 -0.5049710E-02  0.0000000E+00 -0.5050505E-02  0.5013022E-08  0.0000000E+00 -0.3025757E-03
 -0.5049253E-02  0.0000000E+00 -0.5050505E-02  0.5223967E-08  0.0000000E+00 -0.3025735E-03
 -0.5048636E-02  0.0000000E+00 -0.5050505E-02  0.5414489E-08  0.0000000E+00 -0.3025713E-03
 -0.5047442E-02  0.0000000E+00 -0.5050505E-02  0.5583574E-08  0.0000000E+00 -0.3025689E-03
 -0.5045727E-02  0.0000000E+00 -0.5050505E-02  0.5730254E-08  0.0000000E+00 -0.3025666E-03
 -0.5043261E-02  0.0000000E+00 -0.5050505E-02  0.5853618E-08  0.0000000E+00 -0.3025641E-03
 -0.5038714E-02  0.0000000E+00 -0.5050505E-02  0.5952808E-08  0.0000000E+00 -0.3025616E-03
 -0.5032318E-02  0.0000000E+00 -0.5050505E-02  0.6027032E-08  0.0000000E+00 -0.3025591E-03
 -0.5022454E-02  0.0000000E+00 -0.5050505E-02  0.6075563E-08  0.0000000E+00 -0.3025565E-03
 -0.5012589E-02  0.0000000E+00 -0.5050505E-02  0.6097750E-08  0.0000000E+00 -0.3025539E-03
 -0.5002725E-02  0.0000000E+00 -0.5050505E-02  0.6093018E-08  0.0000000E+00 -0.3025513E-03
 -0.4992860E-02  0.0000000E+00 -0.5050505E-02  0.6060872E-08  0.0000000E+00 -0.3025488E-03
 -0.4976523E-02  0.0000000E+00 -0.5050505E-02  0.6000908E-08  0.0000000E+00 -0.3025462E-03
 -0.4956794E-02  0.0000000E+00 -0.5050505E-02  0.5912811E-08  0.0000000E+00 -0.3025437E-03
 -0.4937066E-02  0.0000000E+00 -0.5050505E-02  0.5796360E-08  0.0000000E+00 -0.3025412E-03
 -0.4906239E-02  0.0000000E+00 -0.5050505E-02  0.5651432E-08  0.0000000E+00 -0.3025388E-03
 -0.4866782E-02  0.0000000E+00 -0.5050505E-02  0.5478007E-08  0.0000000E+00 -0.3025364E-03
 -0.4827325E-02  0.0000000E+00 -0.5050505E-02  0.5276164E-08  0.0000000E+00 -0.3025341E-03
 -0.4769372E-02  0.0000000E+00 -0.5050505E-02  0.5046089E-08  0.0000000E+00 -0.3025319E-03
 -0.4690458E-02  0.0000000E+00 -0.5050505E-02  0.4788070E-08  0.0000000E+00 -0.3025298E-03
 -0.4611543E-02  0.0000000E+00 -0.5050505E-02  0.4502499E-08  0.0000000E+00 -0.3025279E-03
 -0.4503035E-02  0.0000000E+00 -0.5050505E-02  0.4189870E-08  0.0000000E+00 -0.3025260E-03
 -0.4345206E-02  0.0000000E+00 -0.5050505E-02  0.3850775E-08  0.0000000E+00 -0.3025243E-03
 -0.4187378E-02  0.0000000E+00 -0.5050505E-02  0.3485901E-08  0.0000000E+00 -0.3025227E-03
 -0.3985156E-02  0.0000000E+00 -0.5050505E-02  0.3096026E-08  0.0000000E+00 -0.3025213E-03
 -0.3669499E-02  0.0000000E+00 -0.5050505E-02  0.2682009E-08  0.0000000E+00 -0.3025201E-03
 -0.3353842E-02  0.0000000E+00 -0.5050505E-02  0.2244789E-08  0.0000000E+00 -0.3025190E-03
 -0.2978990E-02  0.0000000E+00 -0.5050505E-02  0.1785363E-08  0.0000000E+00 -0.3025182E-03
 -0.2347676E-02  0.0000000E+00 -0.5050505E-02  0.1304772E-08  0.0000000E+00 -0.3025175E-03
 -0.1716362E-02  0.0000000E+00 -0.5050505E-02  0.8040457E-09  0.0000000E+00 -0.3025170E-03
 -0.1025842E-02  0.0000000E+00 -0.5050505E-02  0.2842337E-09  0.0000000E+00 -0.3025168E-03
  0.2367855E-03  0.0000000E+00 -0.5050505E-02 -0.2534090E-09  0.0000000E+00 -0.3025167E-03
  0.1499413E-02  0.0000000E+00 -0.5050505E-02 -0.8077692E-09  0.0000000E+00 -0.3025169E-03
  0.2762042E-02  0.0000000E+00 -0.5050505E-02 -0.1377880E-08  0.0000000E+00 -0.3025174E-03
 -0.5050505E-02  0.0000000E+00 -0.5050505E-02 -0.1962779E-08  0.0000000E+00 -0.3025180E-03
 -0.5050505E-02  0.0000000E+00 -0.5050505E-02 -0.2561571E-08  0.0000000E+00 -0.3025190E-03
 -0.5050505E-02  0.0000000E+00 -0.5050505E-02 -0.3173461E-08  0.0000000E+00 -0.3025201E-03
 -0.5050505E-02  0.0000000E+00 -0.5050505E-02 -0.3797840E-08  0.0000000E+00 -0.3025216E-03
 -0.5050505E-02  0.0000000E+00 -0.5050505E-02 -0.4434296E-08  0.0000000E+00 -0.3025233E-03
 -0.5050505E-02  0.0000000E+00 -0.5050505E-02 -0.5082642E-08  0.0000000E+00 -0.3025252E-03
 -0.5050505E-02  0.0000000E+00 -0.5050505E-02 -0.5742982E-08  0.0000000E+00 -0.3025275E-03
 -0.5050504E-02  0.0000000E+00 -0.5050505E-02 -0.6415782E-08  0.0000000E+00 -0.3025300E-03
 -0.5050501E-02  0.0000000E+00 -0.5050505E-02 -0.7101863E-08  0.0000000E+00 -0.3025328E-03
 -0.5050495E-02  0.0000000E+00 -0.5050505E-02 -0.7802548E-08  0.0000000E+00 -0.3025359E-03
 -0.5050482E-02  0.0000000E+00 -0.5050505E-02 -0.8519721E-08  0.0000000E+00 -0.3025393E-03
 -0.5050449E-02  0.0000000E+00 -0.5050505E-02 -0.9255890E-08  0.0000000E+00 -0.3025430E-03
 -0.5050376E-02  0.0000000E+00 -0.5050505E-02 -0.1001434E-07  0.0000000E+00 -0.3025470E-03
 -0.5050299E-02  0.0000000E+00 -0.5050505E-02 -0.1079928E-07  0.0000000E+00 -0.3025513E-03
 -0.5050178E-02  0.0000000E+00 -0.5050505E-02 -0.1161595E-07  0.0000000E+00 -0.3025559E-03
 -0.5050018E-02  0.0000000E+00 -0.5050505E-02 -0.1247089E-07  0.0000000E+00 -0.3025609E-03
 -0.5049710E-02  0.0000000E+00 -0.5050505E-02 -0.1337213E-07  0.0000000E+00 -0.3025662E-03
 -0.5049253E-02  0.0000000E+00 -0.5050505E-02 -0.1432957E-07  0.0000000E+00 -0.3025720E-03
 -0.5048636E-02  0.0000000E+00 -0.5050505E-02 -0.1535529E-07  0.0000000E+00 -0.3025781E-03
 -0.5047442E-02  0.0000000E+00 -0.5050505E-02 -0.1646406E-07  0.0000000E+00 -0.3025846E-03
 -0.5045727E-02  0.0000000E+00 -0.5050505E-02 -0.1767399E-07  0.0000000E+00 -0.3025916E-03
 -0.5043261E-02  0.0000000E+00 -0.5050505E-02 -0.1900728E-07  0.0000000E+00 -0.3025992E-03
 -0.5038714E-02  0.0000000E+00 -0.5050505E-02 -0.2049127E-07  0.0000000E+00 -0.3026072E-03
 -0.5032318E-02  0.0000000E+00 -0.5050505E-02 -0.2215973E-07  0.0000000E+00 -0.3026159E-03
 -0.5022454E-02  0.0000000E+00 -0.5050505E-02 -0.2405468E-07  0.0000000E+00 -0.3026253E-03
 -0.5012589E-02  0.0000000E+00 -0.5050505E-02 -0.2622867E-07  0.0000000E+00 -0.3026355E-03
 -0.5002725E-02  0.0000000E+00 -0.5050505E-02 -0.2874794E-07  0.0000000E+00 -0.3026467E-03
 -0.4992860E-02  0.0000000E+00 -0.5050505E-02 -0.3169666E-07  0.0000000E+00 -0.3026588E-03
 -0.4976523E-02  0.0000000E+00 -0.5050505E-02 -0.3518279E-07  0.0000000E+00 -0.3026722E-03
 -0.4956794E-02  0.0000000E+00 -0.5050505E-02 -0.3934621E-07  0.0000000E+00 -0.3026871E-03
 -0.4937066E-02  0.0000000E+00 -0.5050505E-02 -0.4437019E-07  0.0000000E+00 -0.3027036E-03
 -0.4906239E-02  0.0000000E+00 -0.5050505E-02 -0.5049778E-07  0.0000000E+00 -0.3027222E-03
 -0.4866782E-02  0.0000000E+00 -0.5050505E-02 -0.5805575E-07  0.0000000E+00 -0.3027434E-03
 -0.4827325E-02  0.0000000E+00 -0.5050505E-02 -0.6748982E-07  0.0000000E+00 -0.3027676E-03
 -0.4769372E-02  0.0000000E+00 -0.5050505E-02 -0.7941792E-07  0.0000000E+00 -0.3027956E-03
 -0.4690458E-02  0.0000000E+00 -0.5050505E-02 -0.9471194E-07  0.0000000E+00 -0.3028282E-03
 -0.4611543E-02  0.0000000E+00 -0.5050505E-02 -0.1146262E-06  0.0000000E+00 -0.3028668E-03
 -0.4503035E-02  0.0000000E+00 -0.5050505E-02 -0.1410043E-06  0.0000000E+00 -0.3029128E-03
 -0.4345206E-02  0.0000000E+00 -0.5050505E-02 -0.1766191E-06  0.0000000E+00 -0.3029683E-03
 -0.4187378E-02  0.0000000E+00 -0.5050505E-02 -0.2257495E-06  0.0000000E+00 -0.3030360E-03
 -0.3985156E-02  0.0000000E+00 -0.5050505E-02 -0.2951811E-06  0.0000000E+00 -0.3031191E-03
 -0.3669499E-02  0.0000000E+00 -0.5050505E-02 -0.3959881E-06  0.0000000E+00 -0.3032214E-03
 -0.3353842E-02  0.0000000E+00 -0.5050505E-02 -0.5467767E-06  0.0000000E+00 -0.3033460E-03
 -0.2978990E-02  0.0000000E+00 -0.5050505E-02 -0.7796435E-06  0.0000000E+00 -0.3034920E-03
 -0.2347676E-02  0.0000000E+00 -0.5050505E-02 -0.1150972E-05  0.0000000E+00 -0.3036436E-03
 -0.1716362E-02  0.0000000E+00 -0.5050505E-02 -0.1759529E-05  0.0000000E+00 -0.3037395E-03
 -0.1025842E-02  0.0000000E+00 -0.5050505E-02 -0.2768609E-05  0.0000000E+00 -0.3035900E-03
  0.2367855E-03  0.0000000E+00 -0.5050505E-02 -0.4388815E-05  0.0000000E+00 -0.3026784E-03
  0.1499413E-02  0.0000000E+00 -0.5050505E-02 -0.6569270E-05  0.0000000E+00 -0.2998422E-03
  0.5287294E-02  0.0000000E+00 -0.5050505E-02 -0.7158745E-05  0.0000000E+00 -0.2938600E-03
 -0.5050505E-02  0.0000000E+00 -0.5050505E-02  0.2658022E-09  0.0000000E+00 -0.3021239E-03
 -0.5050505E-02  0.0000000E+00 -0.5050505E-02  0.7948850E-09  0.0000000E+00 -0.3021238E-03
 -0.5050505E-02  0.0000000E+00 -0.5050505E-02  0.1320821E-08  0.0000000E+00 -0.3021234E-03
 -0.5050505E-02  0.0000000E+00 -0.5050505E-02  0.1842336E-08  0.0000000E+00 -0.3021229E-03
 -0.5050505E-02  0.0000000E+00 -0.5050505E-02  0.2357384E-08  0.0000000E+00 -0.3021223E-03
 -0.5050505E-02  0.0000000E+00 -0.5050505E-02  0.2864084E-08  0.0000000E+00 -0.3021215E-03
 -0.5050504E-02  0.0000000E+00 -0.5050505E-02  0.3360615E-08  0.0000000E+00 -0.3021205E-03
 -0.5050501E-02  0.0000000E+00 -0.5050505E-02  0.3845144E-08  0.0000000E+00 -0.3021194E-03
 -0.5050495E-02  0.0000000E+00 -0.5050505E-02  0.4315871E-08  0.0000000E+00 -0.3021182E-03
 -0.5050482E-02  0.0000000E+00 -0.5050505E-02  0.4771011E-08  0.0000000E+00 -0.3021168E-03
 -0.5050449E-02  0.0000000E+00 -0.5050505E-02  0.5208790E-08  0.0000000E+00 -0.3021152E-03
 -0.5050376E-02  0.0000000E+00 -0.5050505E-02  0.5627478E-08  0.0000000E+00 -0.3021136E-03
 -0.5050299E-02  0.0000000E+00 -0.5050505E-02  0.6025357E-08  0.0000000E+00 -0.3021118E-03
 -0.5050178E-02  0.0000000E+00 -0.5050505E-02  0.6400750E-08  0.0000000E+00 -0.3021099E-03
 -0.5050018E-02  0.0000000E+00 -0.5050505E-02  0.6752020E-08  0.0000000E+00 -0.3021079E-03
 -0.5049710E-02  0.0000000E+00 -0.5050505E-02  0.7077567E-08  0.0000000E+00 -0.3021057E-03
 -0.5049253E-02  0.0000000E+00 -0.5050505E-02  0.7375845E-08  0.0000000E+00 -0.3021035E-03
 -0.5048636E-02  0.0000000E+00 -0.5050505E-02  0.7645361E-08  0.0000000E+00 -0.3021012E-03
 -0.5047442E-02  0.0000000E+00 -0.5050505E-02  0.7884682E-08  0.0000000E+00 -0.3020988E-03
 -0.5045727E-02  0.0000000E+00 -0.5050505E-02  0.8092444E-08  0.0000000E+00 -0.3020963E-03
 -0.5043261E-02  0.0000000E+00 -0.5050505E-02  0.8267356E-08  0.0000000E+00 -0.3020938E-03
 -0.5038714E-02  0.0000000E+00 -0.5050505E-02  0.8408208E-08  0.0000000E+00 -0.3020912E-03
 -0.5032318E-02  0.0000000E+00 -0.5050505E-02  0.8513880E-08  0.0000000E+00 -0.3020886E-03
 -0.5022454E-02  0.0000000E+00 -0.5050505E-02  0.8583345E-08  0.0000000E+00 -0.3020860E-03
 -0.5012589E-02  0.0000000E+00 -0.5050505E-02  0.8615679E-08  0.0000000E+00 -0.3020833E-03
 -0.5002725E-02  0.0000000E+00 -0.5050505E-02  0.8610068E-08  0.0000000E+00 -0.3020807E-03
 -0.4992860E-02  0.0000000E+00 -0.5050505E-02  0.8565813E-08  0.0000000E+00 -0.3020780E-03
 -0.4976523E-02  0.0000000E+00 -0.5050505E-02  0.8482339E-08  0.0000000E+00 -0.3020754E-03
 -0.4956794E-02  0.0000000E+00 -0.5050505E-02  0.8359198E-08  0.0000000E+00 -0.3020728E-03
 -0.4937066E-02  0.0000000E+00 -0.5050505E-02  0.8196076E-08  0.0000000E+00 -0.3020702E-03