title = "dataset feddes"
variables = "x", "y", "z", "vx", "vy", "vz"
zone t = "velocities, solution time =  5.500E+01 days        " i =   99, j =   99, k =    1,  f=point
 -0.5050505E-02  0.0000000E+00 -0.5050505E-02  0.6590645E-08  0.0000000E+00 -0.1687291E-03
 -0.5050505E-02  0.0000000E+00 -0.5050505E-02  0.1976783E-07  0.0000000E+00 -0.1687022E-03
 -0.5050505E-02  0.0000000E+00 -0.5050505E-02  0.3293263E-07  0.0000000E+00 -0.1686484E-03
 -0.5050505E-02  0.0000000E+00 -0.5050505E-02  0.4607662E-07  0.0000000E+00 -0.1685678E-03
 -0.5050505E-02  0.0000000E+00 -0.5050505E-02  0.5919111E-07  0.0000000E+00 -0.1684604E-03
 -0.5050505E-02  0.0000000E+00 -0.5050505E-02  0.7226693E-07  0.0000000E+00 -0.1683262E-03
 -0.5050504E-02  0.0000000E+00 -0.5050505E-02  0.8529439E-07  0.0000000E+00 -0.1681654E-03
 -0.5050501E-02  0.0000000E+00 -0.5050505E-02  0.9826302E-07  0.0000000E+00 -0.1679781E-03
 -0.5050495E-02  0.0000000E+00 -0.5050505E-02  0.1111615E-06  0.0000000E+00 -0.1677645E-03
 -0.5050482E-02  0.0000000E+00 -0.5050505E-02  0.1239774E-06  0.0000000E+00 -0.1675245E-03
 -0.5050449E-02  0.0000000E+00 -0.5050505E-02  0.1366972E-06  0.0000000E+00 -0.1672586E-03
 -0.5050376E-02  0.0000000E+00 -0.5050505E-02  0.1493057E-06  0.0000000E+00 -0.1669668E-03
 -0.5050299E-02  0.0000000E+00 -0.5050505E-02  0.1617861E-06  0.0000000E+00 -0.1666494E-03
 -0.5050178E-02  0.0000000E+00 -0.5050505E-02  0.1741198E-06  0.0000000E+00 -0.1663067E-03
 -0.5050018E-02  0.0000000E+00 -0.5050505E-02  0.1862860E-06  0.0000000E+00 -0.1659391E-03
 -0.5049710E-02  0.0000000E+00 -0.5050505E-02  0.1982615E-06  0.0000000E+00 -0.1655468E-03
 -0.5049253E-02  0.0000000E+00 -0.5050505E-02  0.2100204E-06  0.0000000E+00 -0.1651304E-03
 -0.5048636E-02  0.0000000E+00 -0.5050505E-02  0.2215339E-06  0.0000000E+00 -0.1646902E-03
 -0.5047442E-02  0.0000000E+00 -0.5050505E-02  0.2327699E-06  0.0000000E+00 -0.1642269E-03
 -0.5045727E-02  0.0000000E+00 -0.5050505E-02  0.2436930E-06  0.0000000E+00 -0.1637409E-03
 -0.5043261E-02  0.0000000E+00 -0.5050505E-02  0.2542638E-06  0.0000000E+00 -0.1632331E-03
 -0.5038714E-02  0.0000000E+00 -0.5050505E-02  0.2644393E-06  0.0000000E+00 -0.1627042E-03
 -0.5032318E-02  0.0000000E+00 -0.5050505E-02  0.2741723E-06  0.0000000E+00 -0.1621550E-03
 -0.5022454E-02  0.0000000E+00 -0.5050505E-02  0.2834112E-06  0.0000000E+00 -0.1615865E-03
 -0.5012589E-02  0.0000000E+00 -0.5050505E-02  0.2921007E-06  0.0000000E+00 -0.1609997E-03
 -0.5002725E-02  0.0000000E+00 -0.5050505E-02  0.3001811E-06  0.0000000E+00 -0.1603959E-03
 -0.4992860E-02  0.0000000E+00 -0.5050505E-02  0.3075893E-06  0.0000000E+00 -0.1597764E-03
 -0.4976523E-02  0.0000000E+00 -0.5050505E-02  0.3142588E-06  0.0000000E+00 -0.1591425E-03
 -0.4956794E-02  0.0000000E+00 -0.5050505E-02  0.3201209E-06  0.0000000E+00 -0.1584960E-03
 -0.4937066E-02  0.0000000E+00 -0.5050505E-02  0.3251053E-06  0.0000000E+00 -0.1578384E-03
 -0.4906239E-02  0.0000000E+00 -0.5050505E-02  0.3291416E-06  0.0000000E+00 -0.1571717E-03
 -0.4866782E-02  0.0000000E+00 -0.5050505E-02  0.3321607E-06  0.0000000E+00 -0.1564978E-03
 -0.4827325E-02  0.0000000E+00 -0.5050505E-02  0.3340967E-06  0.0000000E+00 -0.1558190E-03
 -0.4769372E-02  0.0000000E+00 -0.5050505E-02  0.3348893E-06  0.0000000E+00 -0.1551374E-03
 -0.4690458E-02  0.0000000E+00 -0.5050505E-02  0.3344852E-06  0.0000000E+00 -0.1544555E-03
 -0.4611543E-02  0.0000000E+00 -0.5050505E-02  0.3328411E-06  0.0000000E+00 -0.1537757E-03
 -0.4503035E-02  0.0000000E+00 -0.5050505E-02  0.3299256E-06  0.0000000E+00 -0.1531006E-03
 -0.4345206E-02  0.0000000E+00 -0.5050505E-02  0.3257207E-06  0.0000000E+00 -0.1524328E-03
 -0.4187378E-02  0.0000000E+00 -0.5050505E-02  0.3202235E-06  0.0000000E+00 -0.1517750E-03
 -0.3985156E-02  0.0000000E+00 -0.5050505E-02  0.3134468E-06  0.0000000E+00 -0.1511297E-03
 -0.3669499E-02  0.0000000E+00 -0.5050505E-02  0.3054189E-06  0.0000000E+00 -0.1504995E-03
 -0.3353842E-02  0.0000000E+00 -0.5050505E-02  0.2961823E-06  0.0000000E+00 -0.1498870E-03
 -0.2978990E-02  0.0000000E+00 -0.5050505E-02  0.2857920E-06  0.0000000E+00 -0.1492945E-03
 -0.2347676E-02  0.0000000E+00 -0.5050505E-02  0.2743124E-06  0.0000000E+00 -0.1487243E-03
 -0.1716362E-02  0.0000000E+00 -0.5050505E-02  0.2618133E-06  0.0000000E+00 -0.1481785E-03
 -0.1025842E-02  0.0000000E+00 -0.5050505E-02  0.2483658E-06  0.0000000E+00 -0.1476592E-03
  0.2367855E-03  0.0000000E+00 -0.5050505E-02  0.2340367E-06  0.0000000E+00 -0.1471681E-03
  0.1499413E-02  0.0000000E+00 -0.5050505E-02  0.2188837E-06  0.0000000E+00 -0.1467072E-03
  0.2762042E-02  0.0000000E+00 -0.5050505E-02  0.2029485E-06  0.0000000E+00 -0.1462778E-03
 -0.5050505E-02  0.0000000E+00 -0.5050505E-02  0.1862514E-06  0.0000000E+00 -0.1458817E-03
 -0.5050505E-02  0.0000000E+00 -0.5050505E-02  0.1687837E-06  0.0000000E+00 -0.1455204E-03
 -0.5050505E-02  0.0000000E+00 -0.5050505E-02  0.1505008E-06  0.0000000E+00 -0.1451955E-03
 -0.5050505E-02  0.0000000E+00 -0.5050505E-02  0.1313149E-06  0.0000000E+00 -0.1449087E-03
 -0.5050505E-02  0.0000000E+00 -0.5050505E-02  0.1110882E-06  0.0000000E+00 -0.1446621E-03
 -0.5050505E-02  0.0000000E+00 -0.5050505E-02  0.8962746E-07  0.0000000E+00 -0.1444578E-03
 -0.5050505E-02  0.0000000E+00 -0.5050505E-02  0.6668368E-07  0.0000000E+00 -0.1442988E-03
 -0.5050504E-02  0.0000000E+00 -0.5050505E-02  0.4195905E-07  0.0000000E+00 -0.1441882E-03
 -0.5050501E-02  0.0000000E+00 -0.5050505E-02  0.1512877E-07  0.0000000E+00 -0.1441302E-03
 -0.5050495E-02  0.0000000E+00 -0.5050505E-02 -0.1411511E-07  0.0000000E+00 -0.1441291E-03
 -0.5050482E-02  0.0000000E+00 -0.5050505E-02 -0.4598954E-07  0.0000000E+00 -0.1441903E-03
 -0.5050449E-02  0.0000000E+00 -0.5050505E-02 -0.8051272E-07  0.0000000E+00 -0.1443190E-03
 -0.5050376E-02  0.0000000E+00 -0.5050505E-02 -0.1173714E-06  0.0000000E+00 -0.1445204E-03
 -0.5050299E-02  0.0000000E+00 -0.5050505E-02 -0.1557979E-06  0.0000000E+00 -0.1447983E-03
 -0.5050178E-02  0.0000000E+00 -0.5050505E-02 -0.1945247E-06  0.0000000E+00 -0.1451548E-03
 -0.5050018E-02  0.0000000E+00 -0.5050505E-02 -0.2318986E-06  0.0000000E+00 -0.1455887E-03
 -0.5049710E-02  0.0000000E+00 -0.5050505E-02 -0.2661896E-06  0.0000000E+00 -0.1460956E-03
 -0.5049253E-02  0.0000000E+00 -0.5050505E-02 -0.2959826E-06  0.0000000E+00 -0.1466678E-03
 -0.5048636E-02  0.0000000E+00 -0.5050505E-02 -0.3204307E-06  0.0000000E+00 -0.1472952E-03
 -0.5047442E-02  0.0000000E+00 -0.5050505E-02 -0.3392859E-06  0.0000000E+00 -0.1479667E-03
 -0.5045727E-02  0.0000000E+00 -0.5050505E-02 -0.3527737E-06  0.0000000E+00 -0.1486712E-03
 -0.5043261E-02  0.0000000E+00 -0.5050505E-02 -0.3614136E-06  0.0000000E+00 -0.1493982E-03
 -0.5038714E-02  0.0000000E+00 -0.5050505E-02 -0.3658581E-06  0.0000000E+00 -0.1501387E-03
 -0.5032318E-02  0.0000000E+00 -0.5050505E-02 -0.3667778E-06  0.0000000E+00 -0.1508847E-03
 -0.5022454E-02  0.0000000E+00 -0.5050505E-02 -0.3647952E-06  0.0000000E+00 -0.1516297E-03
 -0.5012589E-02  0.0000000E+00 -0.5050505E-02 -0.3604529E-06  0.0000000E+00 -0.1523682E-03
 -0.5002725E-02  0.0000000E+00 -0.5050505E-02 -0.3542068E-06  0.0000000E+00 -0.1530961E-03
 -0.4992860E-02  0.0000000E+00 -0.5050505E-02 -0.3464302E-06  0.0000000E+00 -0.1538098E-03
 -0.4976523E-02  0.0000000E+00 -0.5050505E-02 -0.3374259E-06  0.0000000E+00 -0.1545064E-03
 -0.4956794E-02  0.0000000E+00 -0.5050505E-02 -0.3274380E-06  0.0000000E+00 -0.1551837E-03
 -0.4937066E-02  0.0000000E+00 -0.5050505E-02 -0.3166655E-06  0.0000000E+00 -0.1558399E-03
 -0.4906239E-02  0.0000000E+00 -0.5050505E-02 -0.3052741E-06  0.0000000E+00 -0.1564736E-03
 -0.4866782E-02  0.0000000E+00 -0.5050505E-02 -0.2934077E-06  0.0000000E+00 -0.1570837E-03
 -0.4827325E-02  0.0000000E+00 -0.5050505E-02 -0.2812005E-06  0.0000000E+00 -0.1576692E-03
 -0.4769372E-02  0.0000000E+00 -0.5050505E-02 -0.2687900E-06  0.0000000E+00 -0.1582298E-03
 -0.4690458E-02  0.0000000E+00 -0.5050505E-02 -0.2563331E-06  0.0000000E+00 -0.1587650E-03
 -0.4611543E-02  0.0000000E+00 -0.5050505E-02 -0.2440293E-06  0.0000000E+00 -0.1592749E-03
 -0.4503035E-02  0.0000000E+00 -0.5050505E-02 -0.2321559E-06  0.0000000E+00 -0.1597603E-03
 -0.4345206E-02  0.0000000E+00 -0.5050505E-02 -0.2211266E-06  0.0000000E+00 -0.1602224E-03
 -0.4187378E-02  0.0000000E+00 -0.5050505E-02 -0.2115964E-06  0.0000000E+00 -0.1606635E-03
 -0.3985156E-02  0.0000000E+00 -0.5050505E-02 -0.2046579E-06  0.0000000E+00 -0.1610879E-03
 -0.3669499E-02  0.0000000E+00 -0.5050505E-02 -0.2022382E-06  0.0000000E+00 -0.1615027E-03
 -0.3353842E-02  0.0000000E+00 -0.5050505E-02 -0.2079508E-06  0.0000000E+00 -0.1619210E-03
 -0.2978990E-02  0.0000000E+00 -0.5050505E-02 -0.2290745E-06  0.0000000E+00 -0.1623666E-03
 -0.2347676E-02  0.0000000E+00 -0.5050505E-02 -0.2815535E-06  0.0000000E+00 -0.1628872E-03
 -0.1716362E-02  0.0000000E+00 -0.5050505E-02 -0.4038398E-06  0.0000000E+00 -0.1635862E-03
 -0.1025842E-02  0.0000000E+00 -0.5050505E-02 -0.6990137E-06  0.0000000E+00 -0.1647109E-03
  0.2367855E-03  0.0000000E+00 -0.5050505E-02 -0.1475314E-05  0.0000000E+00 -0.1669287E-03
  0.1499413E-02  0.0000000E+00 -0.5050505E-02 -0.3756369E-05  0.0000000E+00 -0.1722666E-03
  0.5287294E-02  0.0000000E+00 -0.5050505E-02 -0.6084748E-04  0.0000000E+00 -0.1375928E-03
 -0.5050505E-02  0.0000000E+00 -0.5050505E-02  0.1978450E-07  0.0000000E+00 -0.1685910E-03
 -0.5050505E-02  0.0000000E+00 -0.5050505E-02  0.5934126E-07  0.0000000E+00 -0.1685639E-03
 -0.5050505E-02  0.0000000E+00 -0.5050505E-02  0.9886112E-07  0.0000000E+00 -0.1685099E-03
 -0.5050505E-02  0.0000000E+00 -0.5050505E-02  0.1383190E-06  0.0000000E+00 -0.1684289E-03
 -0.5050505E-02  0.0000000E+00 -0.5050505E-02  0.1776888E-06  0.0000000E+00 -0.1683210E-03
 -0.5050505E-02  0.0000000E+00 -0.5050505E-02  0.2169434E-06  0.0000000E+00 -0.1681863E-03
 -0.5050504E-02  0.0000000E+00 -0.5050505E-02  0.2560537E-06  0.0000000E+00 -0.1680248E-03
 -0.5050501E-02  0.0000000E+00 -0.5050505E-02  0.2949886E-06  0.0000000E+00 -0.1678367E-03
 -0.5050495E-02  0.0000000E+00 -0.5050505E-02  0.3337142E-06  0.0000000E+00 -0.1676220E-03
 -0.5050482E-02  0.0000000E+00 -0.5050505E-02  0.3721935E-06  0.0000000E+00 -0.1673810E-03
 -0.5050449E-02  0.0000000E+00 -0.5050505E-02  0.4103858E-06  0.0000000E+00 -0.1671138E-03
 -0.5050376E-02  0.0000000E+00 -0.5050505E-02  0.4482460E-06  0.0000000E+00 -0.1668206E-03
 -0.5050299E-02  0.0000000E+00 -0.5050505E-02  0.4857241E-06  0.0000000E+00 -0.1665017E-03
 -0.5050178E-02  0.0000000E+00 -0.5050505E-02  0.5227642E-06  0.0000000E+00 -0.1661574E-03
 -0.5050018E-02  0.0000000E+00 -0.5050505E-02  0.5593042E-06  0.0000000E+00 -0.1657880E-03
 -0.5049710E-02  0.0000000E+00 -0.5050505E-02  0.5952746E-06  0.0000000E+00 -0.1653938E-03
 -0.5049253E-02  0.0000000E+00 -0.5050505E-02  0.6305981E-06  0.0000000E+00 -0.1649752E-03
 -0.5048636E-02  0.0000000E+00 -0.5050505E-02  0.6651884E-06  0.0000000E+00 -0.1645328E-03
 -0.5047442E-02  0.0000000E+00 -0.5050505E-02  0.6989495E-06  0.0000000E+00 -0.1640670E-03
 -0.5045727E-02  0.0000000E+00 -0.5050505E-02  0.7317751E-06  0.0000000E+00 -0.1635785E-03
 -0.5043261E-02  0.0000000E+00 -0.5050505E-02  0.7635476E-06  0.0000000E+00 -0.1630679E-03
 -0.5038714E-02  0.0000000E+00 -0.5050505E-02  0.7941376E-06  0.0000000E+00 -0.1625361E-03
 -0.5032318E-02  0.0000000E+00 -0.5050505E-02  0.8234033E-06  0.0000000E+00 -0.1619838E-03
 -0.5022454E-02  0.0000000E+00 -0.5050505E-02  0.8511903E-06  0.0000000E+00 -0.1614119E-03
 -0.5012589E-02  0.0000000E+00 -0.5050505E-02  0.8773318E-06  0.0000000E+00 -0.1608217E-03
 -0.5002725E-02  0.0000000E+00 -0.5050505E-02  0.9016487E-06  0.0000000E+00 -0.1602142E-03
 -0.4992860E-02  0.0000000E+00 -0.5050505E-02  0.9239507E-06  0.0000000E+00 -0.1595908E-03
 -0.4976523E-02  0.0000000E+00 -0.5050505E-02  0.9440378E-06  0.0000000E+00 -0.1589528E-03
 -0.4956794E-02  0.0000000E+00 -0.5050505E-02  0.9617023E-06  0.0000000E+00 -0.1583020E-03
 -0.4937066E-02  0.0000000E+00 -0.5050505E-02  0.9767320E-06  0.0000000E+00 -0.1576400E-03
 -0.4906239E-02  0.0000000E+00 -0.5050505E-02  0.9889138E-06  0.0000000E+00 -0.1569686E-03
 -0.4866782E-02  0.0000000E+00 -0.5050505E-02  0.9980387E-06  0.0000000E+00 -0.1562899E-03
 -0.4827325E-02  0.0000000E+00 -0.5050505E-02  0.1003907E-05  0.0000000E+00 -0.1556062E-03
 -0.4769372E-02  0.0000000E+00 -0.5050505E-02  0.1006335E-05  0.0000000E+00 -0.1549195E-03
 -0.4690458E-02  0.0000000E+00 -0.5050505E-02  0.1005160E-05  0.0000000E+00 -0.1542324E-03
 -0.4611543E-02  0.0000000E+00 -0.5050505E-02  0.1000251E-05  0.0000000E+00 -0.1535475E-03
 -0.4503035E-02  0.0000000E+00 -0.5050505E-02  0.9915117E-06  0.0000000E+00 -0.1528672E-03
 -0.4345206E-02  0.0000000E+00 -0.5050505E-02  0.9788864E-06  0.0000000E+00 -0.1521942E-03
 -0.4187378E-02  0.0000000E+00 -0.5050505E-02  0.9623662E-06  0.0000000E+00 -0.1515312E-03
 -0.3985156E-02  0.0000000E+00 -0.5050505E-02  0.9419894E-06  0.0000000E+00 -0.1508809E-03
 -0.3669499E-02  0.0000000E+00 -0.5050505E-02  0.9178421E-06  0.0000000E+00 -0.1502458E-03
 -0.3353842E-02  0.0000000E+00 -0.5050505E-02  0.8900543E-06  0.0000000E+00 -0.1496285E-03
 -0.2978990E-02  0.0000000E+00 -0.5050505E-02  0.8587940E-06  0.0000000E+00 -0.1490315E-03
 -0.2347676E-02  0.0000000E+00 -0.5050505E-02  0.8242580E-06  0.0000000E+00 -0.1484571E-03
 -0.1716362E-02  0.0000000E+00 -0.5050505E-02  0.7866606E-06  0.0000000E+00 -0.1479073E-03
 -0.1025842E-02  0.0000000E+00 -0.5050505E-02  0.7462200E-06  0.0000000E+00 -0.1473843E-03
  0.2367855E-03  0.0000000E+00 -0.5050505E-02  0.7031428E-06  0.0000000E+00 -0.1468898E-03
  0.1499413E-02  0.0000000E+00 -0.5050505E-02  0.6576074E-06  0.0000000E+00 -0.1464256E-03
  0.2762042E-02  0.0000000E+00 -0.5050505E-02  0.6097462E-06  0.0000000E+00 -0.1459933E-03
 -0.5050505E-02  0.0000000E+00 -0.5050505E-02  0.5596262E-06  0.0000000E+00 -0.1455944E-03
 -0.5050505E-02  0.0000000E+00 -0.5050505E-02  0.5072286E-06  0.0000000E+00 -0.1452304E-03
 -0.5050505E-02  0.0000000E+00 -0.5050505E-02  0.4524273E-06  0.0000000E+00 -0.1449028E-03
 -0.5050505E-02  0.0000000E+00 -0.5050505E-02  0.3949657E-06  0.0000000E+00 -0.1446133E-03
 -0.5050505E-02  0.0000000E+00 -0.5050505E-02  0.3344355E-06  0.0000000E+00 -0.1443637E-03
 -0.5050505E-02  0.0000000E+00 -0.5050505E-02  0.2702587E-06  0.0000000E+00 -0.1441564E-03
 -0.5050505E-02  0.0000000E+00 -0.5050505E-02  0.2016817E-06  0.0000000E+00 -0.1439939E-03
 -0.5050504E-02  0.0000000E+00 -0.5050505E-02  0.1277909E-06  0.0000000E+00 -0.1438794E-03
 -0.5050501E-02  0.0000000E+00 -0.5050505E-02  0.4757048E-07  0.0000000E+00 -0.1438170E-03
 -0.5050495E-02  0.0000000E+00 -0.5050505E-02 -0.3997443E-07  0.0000000E+00 -0.1438113E-03
 -0.5050482E-02  0.0000000E+00 -0.5050505E-02 -0.1355990E-06  0.0000000E+00 -0.1438678E-03
 -0.5050449E-02  0.0000000E+00 -0.5050505E-02 -0.2394866E-06  0.0000000E+00 -0.1439924E-03
 -0.5050376E-02  0.0000000E+00 -0.5050505E-02 -0.3508174E-06  0.0000000E+00 -0.1441909E-03
 -0.5050299E-02  0.0000000E+00 -0.5050505E-02 -0.4673340E-06  0.0000000E+00 -0.1444682E-03
 -0.5050178E-02  0.0000000E+00 -0.5050505E-02 -0.5851237E-06  0.0000000E+00 -0.1448271E-03
 -0.5050018E-02  0.0000000E+00 -0.5050505E-02 -0.6989299E-06  0.0000000E+00 -0.1452670E-03
 -0.5049710E-02  0.0000000E+00 -0.5050505E-02 -0.8031813E-06  0.0000000E+00 -0.1457832E-03
 -0.5049253E-02  0.0000000E+00 -0.5050505E-02 -0.8933887E-06  0.0000000E+00 -0.1463670E-03
 -0.5048636E-02  0.0000000E+00 -0.5050505E-02 -0.9669820E-06  0.0000000E+00 -0.1470073E-03
 -0.5047442E-02  0.0000000E+00 -0.5050505E-02 -0.1023339E-05  0.0000000E+00 -0.1476919E-03
 -0.5045727E-02  0.0000000E+00 -0.5050505E-02 -0.1063311E-05  0.0000000E+00 -0.1484089E-03
 -0.5043261E-02  0.0000000E+00 -0.5050505E-02 -0.1088610E-05  0.0000000E+00 -0.1491473E-03
 -0.5038714E-02  0.0000000E+00 -0.5050505E-02 -0.1101305E-05  0.0000000E+00 -0.1498979E-03
 -0.5032318E-02  0.0000000E+00 -0.5050505E-02 -0.1103471E-05  0.0000000E+00 -0.1506527E-03
 -0.5022454E-02  0.0000000E+00 -0.5050505E-02 -0.1097004E-05  0.0000000E+00 -0.1514054E-03
 -0.5012589E-02  0.0000000E+00 -0.5050505E-02 -0.1083540E-05  0.0000000E+00 -0.1521508E-03
 -0.5002725E-02  0.0000000E+00 -0.5050505E-02 -0.1064439E-05  0.0000000E+00 -0.1528846E-03
 -0.4992860E-02  0.0000000E+00 -0.5050505E-02 -0.1040813E-05  0.0000000E+00 -0.1536034E-03
 -0.4976523E-02  0.0000000E+00 -0.5050505E-02 -0.1013557E-05  0.0000000E+00 -0.1543046E-03
 -0.4956794E-02  0.0000000E+00 -0.5050505E-02 -0.9833914E-06  0.0000000E+00 -0.1549861E-03
 -0.4937066E-02  0.0000000E+00 -0.5050505E-02 -0.9509010E-06  0.0000000E+00 -0.1556460E-03
 -0.4906239E-02  0.0000000E+00 -0.5050505E-02 -0.9165719E-06  0.0000000E+00 -0.1562830E-03
 -0.4866782E-02  0.0000000E+00 -0.5050505E-02 -0.8808252E-06  0.0000000E+00 -0.1568959E-03
 -0.4827325E-02  0.0000000E+00 -0.5050505E-02 -0.8440506E-06  0.0000000E+00 -0.1574840E-03
 -0.4769372E-02  0.0000000E+00 -0.5050505E-02 -0.8066444E-06  0.0000000E+00 -0.1580467E-03
 -0.4690458E-02  0.0000000E+00 -0.5050505E-02 -0.7690550E-06  0.0000000E+00 -0.1585836E-03
 -0.4611543E-02  0.0000000E+00 -0.5050505E-02 -0.7318458E-06  0.0000000E+00 -0.1590947E-03
 -0.4503035E-02  0.0000000E+00 -0.5050505E-02 -0.6957903E-06  0.0000000E+00 -0.1595804E-03
 -0.4345206E-02  0.0000000E+00 -0.5050505E-02 -0.6620263E-06  0.0000000E+00 -0.1600415E-03
 -0.4187378E-02  0.0000000E+00 -0.5050505E-02 -0.6323226E-06  0.0000000E+00 -0.1604799E-03
 -0.3985156E-02  0.0000000E+00 -0.5050505E-02 -0.6095653E-06  0.0000000E+00 -0.1608983E-03
 -0.3669499E-02  0.0000000E+00 -0.5050505E-02 -0.5986923E-06  0.0000000E+00 -0.1613015E-03
 -0.3353842E-02  0.0000000E+00 -0.5050505E-02 -0.6085901E-06  0.0000000E+00 -0.1616971E-03
 -0.2978990E-02  0.0000000E+00 -0.5050505E-02 -0.6561653E-06  0.0000000E+00 -0.1620966E-03
 -0.2347676E-02  0.0000000E+00 -0.5050505E-02 -0.7756163E-06  0.0000000E+00 -0.1625165E-03
 -0.1716362E-02  0.0000000E+00 -0.5050505E-02 -0.1040852E-05  0.0000000E+00 -0.1629728E-03
 -0.1025842E-02  0.0000000E+00 -0.5050505E-02 -0.1622932E-05  0.0000000E+00 -0.1634429E-03
  0.2367855E-03  0.0000000E+00 -0.5050505E-02 -0.2945132E-05  0.0000000E+00 -0.1636728E-03
  0.1499413E-02  0.0000000E+00 -0.5050505E-02 -0.6119242E-05  0.0000000E+00 -0.1622626E-03
  0.5287294E-02  0.0000000E+00 -0.5050505E-02 -0.1420341E-04  0.0000000E+00 -0.1524020E-03
 -0.5050505E-02  0.0000000E+00 -0.5050505E-02  0.3303218E-07  0.0000000E+00 -0.1683182E-03
 -0.5050505E-02  0.0000000E+00 -0.5050505E-02  0.9907640E-07  0.0000000E+00 -0.1682910E-03
 -0.5050505E-02  0.0000000E+00 -0.5050505E-02  0.1650599E-06  0.0000000E+00 -0.1682365E-03
 -0.5050505E-02  0.0000000E+00 -0.5050505E-02  0.2309412E-06  0.0000000E+00 -0.1681548E-03
 -0.5050505E-02  0.0000000E+00 -0.5050505E-02  0.2966776E-06  0.0000000E+00 -0.1680459E-03
 -0.5050505E-02  0.0000000E+00 -0.5050505E-02  0.3622239E-06  0.0000000E+00 -0.1679100E-03
 -0.5050504E-02  0.0000000E+00 -0.5050505E-02  0.4275325E-06  0.0000000E+00 -0.1677471E-03
 -0.5050501E-02  0.0000000E+00 -0.5050505E-02  0.4925518E-06  0.0000000E+00 -0.1675572E-03
 -0.5050495E-02  0.0000000E+00 -0.5050505E-02  0.5572261E-06  0.0000000E+00 -0.1673406E-03
 -0.5050482E-02  0.0000000E+00 -0.5050505E-02  0.6214942E-06  0.0000000E+00 -0.1670974E-03
 -0.5050449E-02  0.0000000E+00 -0.5050505E-02  0.6852888E-06  0.0000000E+00 -0.1668277E-03
 -0.5050376E-02  0.0000000E+00 -0.5050505E-02  0.7485355E-06  0.0000000E+00 -0.1665318E-03
 -0.5050299E-02  0.0000000E+00 -0.5050505E-02  0.8111515E-06  0.0000000E+00 -0.1662100E-03
 -0.5050178E-02  0.0000000E+00 -0.5050505E-02  0.8730444E-06  0.0000000E+00 -0.1658624E-03
 -0.5050018E-02  0.0000000E+00 -0.5050505E-02  0.9341114E-06  0.0000000E+00 -0.1654894E-03
 -0.5049710E-02  0.0000000E+00 -0.5050505E-02  0.9942375E-06  0.0000000E+00 -0.1650913E-03
 -0.5049253E-02  0.0000000E+00 -0.5050505E-02  0.1053294E-05  0.0000000E+00 -0.1646686E-03
 -0.5048636E-02  0.0000000E+00 -0.5050505E-02  0.1111138E-05  0.0000000E+00 -0.1642217E-03
 -0.5047442E-02  0.0000000E+00 -0.5050505E-02  0.1167611E-05  0.0000000E+00 -0.1637511E-03
 -0.5045727E-02  0.0000000E+00 -0.5050505E-02  0.1222535E-05  0.0000000E+00 -0.1632575E-03
 -0.5043261E-02  0.0000000E+00 -0.5050505E-02  0.1275714E-05  0.0000000E+00 -0.1627414E-03
 -0.5038714E-02  0.0000000E+00 -0.5050505E-02  0.1326934E-05  0.0000000E+00 -0.1622037E-03
 -0.5032318E-02  0.0000000E+00 -0.5050505E-02  0.1375957E-05  0.0000000E+00 -0.1616452E-03
 -0.5022454E-02  0.0000000E+00 -0.5050505E-02  0.1422526E-05  0.0000000E+00 -0.1610668E-03
 -0.5012589E-02  0.0000000E+00 -0.5050505E-02  0.1466360E-05  0.0000000E+00 -0.1604696E-03
 -0.5002725E-02  0.0000000E+00 -0.5050505E-02  0.1507162E-05  0.0000000E+00 -0.1598548E-03
 -0.4992860E-02  0.0000000E+00 -0.5050505E-02  0.1544609E-05  0.0000000E+00 -0.1592236E-03
 -0.4976523E-02  0.0000000E+00 -0.5050505E-02  0.1578367E-05  0.0000000E+00 -0.1585775E-03
 -0.4956794E-02  0.0000000E+00 -0.5050505E-02  0.1608085E-05  0.0000000E+00 -0.1579181E-03
 -0.4937066E-02  0.0000000E+00 -0.5050505E-02  0.1633404E-05  0.0000000E+00 -0.1572472E-03
 -0.4906239E-02  0.0000000E+00 -0.5050505E-02  0.1653963E-05  0.0000000E+00 -0.1565666E-03
 -0.4866782E-02  0.0000000E+00 -0.5050505E-02  0.1669407E-05  0.0000000E+00 -0.1558784E-03
 -0.4827325E-02  0.0000000E+00 -0.5050505E-02  0.1679396E-05  0.0000000E+00 -0.1551847E-03
 -0.4769372E-02  0.0000000E+00 -0.5050505E-02  0.1683614E-05  0.0000000E+00 -0.1544880E-03
 -0.4690458E-02  0.0000000E+00 -0.5050505E-02  0.1681785E-05  0.0000000E+00 -0.1537906E-03
 -0.4611543E-02  0.0000000E+00 -0.5050505E-02  0.1673680E-05  0.0000000E+00 -0.1530952E-03
 -0.4503035E-02  0.0000000E+00 -0.5050505E-02  0.1659133E-05  0.0000000E+00 -0.1524044E-03
 -0.4345206E-02  0.0000000E+00 -0.5050505E-02  0.1638048E-05  0.0000000E+00 -0.1517210E-03
 -0.4187378E-02  0.0000000E+00 -0.5050505E-02  0.1610405E-05  0.0000000E+00 -0.1510477E-03
 -0.3985156E-02  0.0000000E+00 -0.5050505E-02  0.1576272E-05  0.0000000E+00 -0.1503873E-03
 -0.3669499E-02  0.0000000E+00 -0.5050505E-02  0.1535794E-05  0.0000000E+00 -0.1497424E-03
 -0.3353842E-02  0.0000000E+00 -0.5050505E-02  0.1489196E-05  0.0000000E+00 -0.1491158E-03
 -0.2978990E-02  0.0000000E+00 -0.5050505E-02  0.1436769E-05  0.0000000E+00 -0.1485098E-03
 -0.2347676E-02  0.0000000E+00 -0.5050505E-02  0.1378853E-05  0.0000000E+00 -0.1479269E-03
 -0.1716362E-02  0.0000000E+00 -0.5050505E-02  0.1315822E-05  0.0000000E+00 -0.1473692E-03
 -0.1025842E-02  0.0000000E+00 -0.5050505E-02  0.1248056E-05  0.0000000E+00 -0.1468387E-03
  0.2367855E-03  0.0000000E+00 -0.5050505E-02  0.1175919E-05  0.0000000E+00 -0.1463374E-03
  0.1499413E-02  0.0000000E+00 -0.5050505E-02  0.1099730E-05  0.0000000E+00 -0.1458669E-03
  0.2762042E-02  0.0000000E+00 -0.5050505E-02  0.1019728E-05  0.0000000E+00 -0.1454286E-03
 -0.5050505E-02  0.0000000E+00 -0.5050505E-02  0.9360502E-06  0.0000000E+00 -0.1450241E-03
 -0.5050505E-02  0.0000000E+00 -0.5050505E-02  0.8486884E-06  0.0000000E+00 -0.1446548E-03
 -0.5050505E-02  0.0000000E+00 -0.5050505E-02  0.7574572E-06  0.0000000E+00 -0.1443220E-03
 -0.5050505E-02  0.0000000E+00 -0.5050505E-02  0.6619535E-06  0.0000000E+00 -0.1440271E-03
 -0.5050505E-02  0.0000000E+00 -0.5050505E-02  0.5615161E-06  0.0000000E+00 -0.1437720E-03
 -0.5050505E-02  0.0000000E+00 -0.5050505E-02  0.4551897E-06  0.0000000E+00 -0.1435585E-03
 -0.5050505E-02  0.0000000E+00 -0.5050505E-02  0.3417017E-06  0.0000000E+00 -0.1433891E-03
 -0.5050504E-02  0.0000000E+00 -0.5050505E-02  0.2194693E-06  0.0000000E+00 -0.1432670E-03
 -0.5050501E-02  0.0000000E+00 -0.5050505E-02  0.8666822E-07  0.0000000E+00 -0.1431958E-03
 -0.5050495E-02  0.0000000E+00 -0.5050505E-02 -0.5859250E-07  0.0000000E+00 -0.1431807E-03
 -0.5050482E-02  0.0000000E+00 -0.5050505E-02 -0.2179276E-06  0.0000000E+00 -0.1432274E-03
 -0.5050449E-02  0.0000000E+00 -0.5050505E-02 -0.3921036E-06  0.0000000E+00 -0.1433429E-03
 -0.5050376E-02  0.0000000E+00 -0.5050505E-02 -0.5802162E-06  0.0000000E+00 -0.1435347E-03
 -0.5050299E-02  0.0000000E+00 -0.5050505E-02 -0.7787325E-06  0.0000000E+00 -0.1438098E-03
 -0.5050178E-02  0.0000000E+00 -0.5050505E-02 -0.9807946E-06  0.0000000E+00 -0.1441732E-03
 -0.5050018E-02  0.0000000E+00 -0.5050505E-02 -0.1176543E-05  0.0000000E+00 -0.1446253E-03
 -0.5049710E-02  0.0000000E+00 -0.5050505E-02 -0.1355207E-05  0.0000000E+00 -0.1451608E-03
 -0.5049253E-02  0.0000000E+00 -0.5050505E-02 -0.1508410E-05  0.0000000E+00 -0.1457691E-03
 -0.5048636E-02  0.0000000E+00 -0.5050505E-02 -0.1631833E-05  0.0000000E+00 -0.1464363E-03
 -0.5047442E-02  0.0000000E+00 -0.5050505E-02 -0.1724944E-05  0.0000000E+00 -0.1471477E-03
 -0.5045727E-02  0.0000000E+00 -0.5050505E-02 -0.1789804E-05  0.0000000E+00 -0.1478899E-03
 -0.5043261E-02  0.0000000E+00 -0.5050505E-02 -0.1829817E-05  0.0000000E+00 -0.1486512E-03
 -0.5038714E-02  0.0000000E+00 -0.5050505E-02 -0.1848795E-05  0.0000000E+00 -0.1494219E-03
 -0.5032318E-02  0.0000000E+00 -0.5050505E-02 -0.1850401E-05  0.0000000E+00 -0.1501944E-03
 -0.5022454E-02  0.0000000E+00 -0.5050505E-02 -0.1837882E-05  0.0000000E+00 -0.1509624E-03
 -0.5012589E-02  0.0000000E+00 -0.5050505E-02 -0.1813976E-05  0.0000000E+00 -0.1517210E-03
 -0.5002725E-02  0.0000000E+00 -0.5050505E-02 -0.1780932E-05  0.0000000E+00 -0.1524665E-03
 -0.4992860E-02  0.0000000E+00 -0.5050505E-02 -0.1740562E-05  0.0000000E+00 -0.1531956E-03
 -0.4976523E-02  0.0000000E+00 -0.5050505E-02 -0.1694314E-05  0.0000000E+00 -0.1539059E-03
 -0.4956794E-02  0.0000000E+00 -0.5050505E-02 -0.1643351E-05  0.0000000E+00 -0.1545954E-03
 -0.4937066E-02  0.0000000E+00 -0.5050505E-02 -0.1588608E-05  0.0000000E+00 -0.1552626E-03
 -0.4906239E-02  0.0000000E+00 -0.5050505E-02 -0.1530861E-05  0.0000000E+00 -0.1559061E-03
 -0.4866782E-02  0.0000000E+00 -0.5050505E-02 -0.1470775E-05  0.0000000E+00 -0.1565249E-03
 -0.4827325E-02  0.0000000E+00 -0.5050505E-02 -0.1408960E-05  0.0000000E+00 -0.1571181E-03
 -0.4769372E-02  0.0000000E+00 -0.5050505E-02 -0.1346027E-05  0.0000000E+00 -0.1576851E-03
 -0.4690458E-02  0.0000000E+00 -0.5050505E-02 -0.1282654E-05  0.0000000E+00 -0.1582254E-03
 -0.4611543E-02  0.0000000E+00 -0.5050505E-02 -0.1219674E-05  0.0000000E+00 -0.1587389E-03
 -0.4503035E-02  0.0000000E+00 -0.5050505E-02 -0.1158204E-05  0.0000000E+00 -0.1592256E-03
 -0.4345206E-02  0.0000000E+00 -0.5050505E-02 -0.1099844E-05  0.0000000E+00 -0.1596856E-03
 -0.4187378E-02  0.0000000E+00 -0.5050505E-02 -0.1046994E-05  0.0000000E+00 -0.1601196E-03
 -0.3985156E-02  0.0000000E+00 -0.5050505E-02 -0.1003408E-05  0.0000000E+00 -0.1605287E-03
 -0.3669499E-02  0.0000000E+00 -0.5050505E-02 -0.9751640E-06  0.0000000E+00 -0.1609140E-03
 -0.3353842E-02  0.0000000E+00 -0.5050505E-02 -0.9724028E-06  0.0000000E+00 -0.1612764E-03
 -0.2978990E-02  0.0000000E+00 -0.5050505E-02 -0.1012520E-05  0.0000000E+00 -0.1616145E-03
 -0.2347676E-02  0.0000000E+00 -0.5050505E-02 -0.1125893E-05  0.0000000E+00 -0.1619189E-03
 -0.1716362E-02  0.0000000E+00 -0.5050505E-02 -0.1365373E-05  0.0000000E+00 -0.1621556E-03
 -0.1025842E-02  0.0000000E+00 -0.5050505E-02 -0.1817554E-05  0.0000000E+00 -0.1622224E-03
  0.2367855E-03  0.0000000E+00 -0.5050505E-02 -0.2592148E-05  0.0000000E+00 -0.1618443E-03
  0.1499413E-02  0.0000000E+00 -0.5050505E-02 -0.3654972E-05  0.0000000E+00 -0.1604107E-03
  0.5287294E-02  0.0000000E+00 -0.5050505E-02 -0.3852295E-05  0.0000000E+00 -0.1572942E-03
 -0.5050505E-02  0.0000000E+00 -0.5050505E-02  0.4639060E-07  0.0000000E+00 -0.1679143E-03
 -0.5050505E-02  0.0000000E+00 -0.5050505E-02  0.1391441E-06  0.0000000E+00 -0.1678867E-03
 -0.5050505E-02  0.0000000E+00 -0.5050505E-02  0.2318139E-06  0.0000000E+00 -0.1678315E-03
 -0.5050505E-02  0.0000000E+00 -0.5050505E-02  0.3243431E-06  0.0000000E+00 -0.1677487E-03
 -0.5050505E-02  0.0000000E+00 -0.5050505E-02  0.4166727E-06  0.0000000E+00 -0.1676384E-03
 -0.5050505E-02  0.0000000E+00 -0.5050505E-02  0.5087405E-06  0.0000000E+00 -0.1675007E-03
 -0.5050504E-02  0.0000000E+00 -0.5050505E-02  0.6004807E-06  0.0000000E+00 -0.1673356E-03
 -0.5050501E-02  0.0000000E+00 -0.5050505E-02  0.6918224E-06  0.0000000E+00 -0.1671432E-03
 -0.5050495E-02  0.0000000E+00 -0.5050505E-02  0.7826884E-06  0.0000000E+00 -0.1669237E-03
 -0.5050482E-02  0.0000000E+00 -0.5050505E-02  0.8729944E-06  0.0000000E+00 -0.1666772E-03
 -0.5050449E-02  0.0000000E+00 -0.5050505E-02  0.9626475E-06  0.0000000E+00 -0.1664039E-03
 -0.5050376E-02  0.0000000E+00 -0.5050505E-02  0.1051545E-05  0.0000000E+00 -0.1661040E-03
 -0.5050299E-02  0.0000000E+00 -0.5050505E-02  0.1139571E-05  0.0000000E+00 -0.1657776E-03
 -0.5050178E-02  0.0000000E+00 -0.5050505E-02  0.1226600E-05  0.0000000E+00 -0.1654252E-03
 -0.5050018E-02  0.0000000E+00 -0.5050505E-02  0.1312487E-05  0.0000000E+00 -0.1650468E-03
 -0.5049710E-02  0.0000000E+00 -0.5050505E-02  0.1397074E-05  0.0000000E+00 -0.1646430E-03
 -0.5049253E-02  0.0000000E+00 -0.5050505E-02  0.1480182E-05  0.0000000E+00 -0.1642141E-03
 -0.5048636E-02  0.0000000E+00 -0.5050505E-02  0.1561612E-05  0.0000000E+00 -0.1637605E-03
 -0.5047442E-02  0.0000000E+00 -0.5050505E-02  0.1641142E-05  0.0000000E+00 -0.1632828E-03
 -0.5045727E-02  0.0000000E+00 -0.5050505E-02  0.1718525E-05  0.0000000E+00 -0.1627815E-03
 -0.5043261E-02  0.0000000E+00 -0.5050505E-02  0.1793487E-05  0.0000000E+00 -0.1622573E-03
 -0.5038714E-02  0.0000000E+00 -0.5050505E-02  0.1865728E-05  0.0000000E+00 -0.1617109E-03
 -0.5032318E-02  0.0000000E+00 -0.5050505E-02  0.1934915E-05  0.0000000E+00 -0.1611431E-03
 -0.5022454E-02  0.0000000E+00 -0.5050505E-02  0.2000685E-05  0.0000000E+00 -0.1605549E-03
 -0.5012589E-02  0.0000000E+00 -0.5050505E-02  0.2062646E-05  0.0000000E+00 -0.1599473E-03
 -0.5002725E-02  0.0000000E+00 -0.5050505E-02  0.2120373E-05  0.0000000E+00 -0.1593215E-03
 -0.4992860E-02  0.0000000E+00 -0.5050505E-02  0.2173415E-05  0.0000000E+00 -0.1586787E-03
 -0.4976523E-02  0.0000000E+00 -0.5050505E-02  0.2221292E-05  0.0000000E+00 -0.1580205E-03
 -0.4956794E-02  0.0000000E+00 -0.5050505E-02  0.2263506E-05  0.0000000E+00 -0.1573484E-03
 -0.4937066E-02  0.0000000E+00 -0.5050505E-02  0.2299545E-05  0.0000000E+00 -0.1566641E-03