title = "dataset feddes"
variables = "x", "y", "z", "vx", "vy", "vz"
zone t = "velocities, solution time =  2.500E+01 days        " i =   99, j =   99, k =    1,  f=point
 -0.5050505E-02  0.0000000E+00 -0.5050505E-02  0.2577490E-11  0.0000000E+00 -0.3600230E-03
 -0.5050505E-02  0.0000000E+00 -0.5050505E-02  0.7278072E-11  0.0000000E+00 -0.3600230E-03
 -0.5050505E-02  0.0000000E+00 -0.5050505E-02  0.1183971E-10  0.0000000E+00 -0.3600230E-03
 -0.5050505E-02  0.0000000E+00 -0.5050505E-02  0.1633390E-10  0.0000000E+00 -0.3600230E-03
 -0.5050505E-02  0.0000000E+00 -0.5050505E-02  0.2067978E-10  0.0000000E+00 -0.3600229E-03
 -0.5050505E-02  0.0000000E+00 -0.5050505E-02  0.2481547E-10  0.0000000E+00 -0.3600229E-03
 -0.5050504E-02  0.0000000E+00 -0.5050505E-02  0.2869617E-10  0.0000000E+00 -0.3600228E-03
 -0.5050501E-02  0.0000000E+00 -0.5050505E-02  0.3226943E-10  0.0000000E+00 -0.3600227E-03
 -0.5050495E-02  0.0000000E+00 -0.5050505E-02  0.3549416E-10  0.0000000E+00 -0.3600227E-03
 -0.5050482E-02  0.0000000E+00 -0.5050505E-02  0.3832129E-10  0.0000000E+00 -0.3600226E-03
 -0.5050449E-02  0.0000000E+00 -0.5050505E-02  0.4070690E-10  0.0000000E+00 -0.3600225E-03
 -0.5050376E-02  0.0000000E+00 -0.5050505E-02  0.4260810E-10  0.0000000E+00 -0.3600224E-03
 -0.5050299E-02  0.0000000E+00 -0.5050505E-02  0.4397744E-10  0.0000000E+00 -0.3600223E-03
 -0.5050178E-02  0.0000000E+00 -0.5050505E-02  0.4477371E-10  0.0000000E+00 -0.3600222E-03
 -0.5050018E-02  0.0000000E+00 -0.5050505E-02  0.4495314E-10  0.0000000E+00 -0.3600222E-03
 -0.5049710E-02  0.0000000E+00 -0.5050505E-02  0.4447267E-10  0.0000000E+00 -0.3600221E-03
 -0.5049253E-02  0.0000000E+00 -0.5050505E-02  0.4329210E-10  0.0000000E+00 -0.3600220E-03
 -0.5048636E-02  0.0000000E+00 -0.5050505E-02  0.4130961E-10  0.0000000E+00 -0.3600219E-03
 -0.5047442E-02  0.0000000E+00 -0.5050505E-02  0.3861659E-10  0.0000000E+00 -0.3600218E-03
 -0.5045727E-02  0.0000000E+00 -0.5050505E-02  0.3509915E-10  0.0000000E+00 -0.3600217E-03
 -0.5043261E-02  0.0000000E+00 -0.5050505E-02  0.3069386E-10  0.0000000E+00 -0.3600217E-03
 -0.5038714E-02  0.0000000E+00 -0.5050505E-02  0.2538487E-10  0.0000000E+00 -0.3600216E-03
 -0.5032318E-02  0.0000000E+00 -0.5050505E-02  0.1908133E-10  0.0000000E+00 -0.3600215E-03
 -0.5022454E-02  0.0000000E+00 -0.5050505E-02  0.1181669E-10  0.0000000E+00 -0.3600215E-03
 -0.5012589E-02  0.0000000E+00 -0.5050505E-02  0.3586826E-11  0.0000000E+00 -0.3600215E-03
 -0.5002725E-02  0.0000000E+00 -0.5050505E-02 -0.5711319E-11  0.0000000E+00 -0.3600215E-03
 -0.4992860E-02  0.0000000E+00 -0.5050505E-02 -0.1610694E-10  0.0000000E+00 -0.3600215E-03
 -0.4976523E-02  0.0000000E+00 -0.5050505E-02 -0.2761559E-10  0.0000000E+00 -0.3600216E-03
 -0.4956794E-02  0.0000000E+00 -0.5050505E-02 -0.4027469E-10  0.0000000E+00 -0.3600216E-03
 -0.4937066E-02  0.0000000E+00 -0.5050505E-02 -0.5412693E-10  0.0000000E+00 -0.3600217E-03
 -0.4906239E-02  0.0000000E+00 -0.5050505E-02 -0.6919891E-10  0.0000000E+00 -0.3600219E-03
 -0.4866782E-02  0.0000000E+00 -0.5050505E-02 -0.8550964E-10  0.0000000E+00 -0.3600220E-03
 -0.4827325E-02  0.0000000E+00 -0.5050505E-02 -0.1030965E-09  0.0000000E+00 -0.3600222E-03
 -0.4769372E-02  0.0000000E+00 -0.5050505E-02 -0.1220048E-09  0.0000000E+00 -0.3600225E-03
 -0.4690458E-02  0.0000000E+00 -0.5050505E-02 -0.1422683E-09  0.0000000E+00 -0.3600227E-03
 -0.4611543E-02  0.0000000E+00 -0.5050505E-02 -0.1639162E-09  0.0000000E+00 -0.3600231E-03
 -0.4503035E-02  0.0000000E+00 -0.5050505E-02 -0.1869863E-09  0.0000000E+00 -0.3600234E-03
 -0.4345206E-02  0.0000000E+00 -0.5050505E-02 -0.2115247E-09  0.0000000E+00 -0.3600238E-03
 -0.4187378E-02  0.0000000E+00 -0.5050505E-02 -0.2375788E-09  0.0000000E+00 -0.3600243E-03
 -0.3985156E-02  0.0000000E+00 -0.5050505E-02 -0.2651980E-09  0.0000000E+00 -0.3600248E-03
 -0.3669499E-02  0.0000000E+00 -0.5050505E-02 -0.2944375E-09  0.0000000E+00 -0.3600254E-03
 -0.3353842E-02  0.0000000E+00 -0.5050505E-02 -0.3253597E-09  0.0000000E+00 -0.3600261E-03
 -0.2978990E-02  0.0000000E+00 -0.5050505E-02 -0.3580346E-09  0.0000000E+00 -0.3600268E-03
 -0.2347676E-02  0.0000000E+00 -0.5050505E-02 -0.3925424E-09  0.0000000E+00 -0.3600276E-03
 -0.1716362E-02  0.0000000E+00 -0.5050505E-02 -0.4289771E-09  0.0000000E+00 -0.3600284E-03
 -0.1025842E-02  0.0000000E+00 -0.5050505E-02 -0.4674464E-09  0.0000000E+00 -0.3600293E-03
  0.2367855E-03  0.0000000E+00 -0.5050505E-02 -0.5080707E-09  0.0000000E+00 -0.3600304E-03
  0.1499413E-02  0.0000000E+00 -0.5050505E-02 -0.5509871E-09  0.0000000E+00 -0.3600315E-03
  0.2762042E-02  0.0000000E+00 -0.5050505E-02 -0.5963560E-09  0.0000000E+00 -0.3600327E-03
 -0.5050505E-02  0.0000000E+00 -0.5050505E-02 -0.6443659E-09  0.0000000E+00 -0.3600340E-03
 -0.5050505E-02  0.0000000E+00 -0.5050505E-02 -0.6952348E-09  0.0000000E+00 -0.3600354E-03
 -0.5050505E-02  0.0000000E+00 -0.5050505E-02 -0.7492117E-09  0.0000000E+00 -0.3600369E-03
 -0.5050505E-02  0.0000000E+00 -0.5050505E-02 -0.8065829E-09  0.0000000E+00 -0.3600385E-03
 -0.5050505E-02  0.0000000E+00 -0.5050505E-02 -0.8676811E-09  0.0000000E+00 -0.3600402E-03
 -0.5050505E-02  0.0000000E+00 -0.5050505E-02 -0.9328944E-09  0.0000000E+00 -0.3600421E-03
 -0.5050505E-02  0.0000000E+00 -0.5050505E-02 -0.1002674E-08  0.0000000E+00 -0.3600441E-03
 -0.5050504E-02  0.0000000E+00 -0.5050505E-02 -0.1077544E-08  0.0000000E+00 -0.3600463E-03
 -0.5050501E-02  0.0000000E+00 -0.5050505E-02 -0.1158109E-08  0.0000000E+00 -0.3600486E-03
 -0.5050495E-02  0.0000000E+00 -0.5050505E-02 -0.1245075E-08  0.0000000E+00 -0.3600511E-03
 -0.5050482E-02  0.0000000E+00 -0.5050505E-02 -0.1339268E-08  0.0000000E+00 -0.3600538E-03
 -0.5050449E-02  0.0000000E+00 -0.5050505E-02 -0.1441653E-08  0.0000000E+00 -0.3600567E-03
 -0.5050376E-02  0.0000000E+00 -0.5050505E-02 -0.1553364E-08  0.0000000E+00 -0.3600599E-03
 -0.5050299E-02  0.0000000E+00 -0.5050505E-02 -0.1675730E-08  0.0000000E+00 -0.3600632E-03
 -0.5050178E-02  0.0000000E+00 -0.5050505E-02 -0.1810318E-08  0.0000000E+00 -0.3600669E-03
 -0.5050018E-02  0.0000000E+00 -0.5050505E-02 -0.1958983E-08  0.0000000E+00 -0.3600708E-03
 -0.5049710E-02  0.0000000E+00 -0.5050505E-02 -0.2123930E-08  0.0000000E+00 -0.3600750E-03
 -0.5049253E-02  0.0000000E+00 -0.5050505E-02 -0.2307788E-08  0.0000000E+00 -0.3600797E-03
 -0.5048636E-02  0.0000000E+00 -0.5050505E-02 -0.2513707E-08  0.0000000E+00 -0.3600847E-03
 -0.5047442E-02  0.0000000E+00 -0.5050505E-02 -0.2745479E-08  0.0000000E+00 -0.3600902E-03
 -0.5045727E-02  0.0000000E+00 -0.5050505E-02 -0.3007699E-08  0.0000000E+00 -0.3600962E-03
 -0.5043261E-02  0.0000000E+00 -0.5050505E-02 -0.3305959E-08  0.0000000E+00 -0.3601028E-03
 -0.5038714E-02  0.0000000E+00 -0.5050505E-02 -0.3647120E-08  0.0000000E+00 -0.3601100E-03
 -0.5032318E-02  0.0000000E+00 -0.5050505E-02 -0.4039646E-08  0.0000000E+00 -0.3601180E-03
 -0.5022454E-02  0.0000000E+00 -0.5050505E-02 -0.4494069E-08  0.0000000E+00 -0.3601269E-03
 -0.5012589E-02  0.0000000E+00 -0.5050505E-02 -0.5023594E-08  0.0000000E+00 -0.3601369E-03
 -0.5002725E-02  0.0000000E+00 -0.5050505E-02 -0.5644925E-08  0.0000000E+00 -0.3601480E-03
 -0.4992860E-02  0.0000000E+00 -0.5050505E-02 -0.6379402E-08  0.0000000E+00 -0.3601605E-03
 -0.4976523E-02  0.0000000E+00 -0.5050505E-02 -0.7254566E-08  0.0000000E+00 -0.3601748E-03
 -0.4956794E-02  0.0000000E+00 -0.5050505E-02 -0.8306376E-08  0.0000000E+00 -0.3601910E-03
 -0.4937066E-02  0.0000000E+00 -0.5050505E-02 -0.9582368E-08  0.0000000E+00 -0.3602096E-03
 -0.4906239E-02  0.0000000E+00 -0.5050505E-02 -0.1114625E-07  0.0000000E+00 -0.3602313E-03
 -0.4866782E-02  0.0000000E+00 -0.5050505E-02 -0.1308472E-07  0.0000000E+00 -0.3602565E-03
 -0.4827325E-02  0.0000000E+00 -0.5050505E-02 -0.1551775E-07  0.0000000E+00 -0.3602864E-03
 -0.4769372E-02  0.0000000E+00 -0.5050505E-02 -0.1861446E-07  0.0000000E+00 -0.3603220E-03
 -0.4690458E-02  0.0000000E+00 -0.5050505E-02 -0.2261844E-07  0.0000000E+00 -0.3603650E-03
 -0.4611543E-02  0.0000000E+00 -0.5050505E-02 -0.2788880E-07  0.0000000E+00 -0.3604177E-03
 -0.4503035E-02  0.0000000E+00 -0.5050505E-02 -0.3496960E-07  0.0000000E+00 -0.3604832E-03
 -0.4345206E-02  0.0000000E+00 -0.5050505E-02 -0.4471104E-07  0.0000000E+00 -0.3605663E-03
 -0.4187378E-02  0.0000000E+00 -0.5050505E-02 -0.5849031E-07  0.0000000E+00 -0.3606740E-03
 -0.3985156E-02  0.0000000E+00 -0.5050505E-02 -0.7863413E-07  0.0000000E+00 -0.3608170E-03
 -0.3669499E-02  0.0000000E+00 -0.5050505E-02 -0.1092737E-06  0.0000000E+00 -0.3610130E-03
 -0.3353842E-02  0.0000000E+00 -0.5050505E-02 -0.1581915E-06  0.0000000E+00 -0.3612920E-03
 -0.2978990E-02  0.0000000E+00 -0.5050505E-02 -0.2411213E-06  0.0000000E+00 -0.3617085E-03
 -0.2347676E-02  0.0000000E+00 -0.5050505E-02 -0.3926480E-06  0.0000000E+00 -0.3623697E-03
 -0.1716362E-02  0.0000000E+00 -0.5050505E-02 -0.6965187E-06  0.0000000E+00 -0.3635060E-03
 -0.1025842E-02  0.0000000E+00 -0.5050505E-02 -0.1378438E-05  0.0000000E+00 -0.3656710E-03
  0.2367855E-03  0.0000000E+00 -0.5050505E-02 -0.3118177E-05  0.0000000E+00 -0.3703642E-03
  0.1499413E-02  0.0000000E+00 -0.5050505E-02 -0.8194082E-05  0.0000000E+00 -0.3821779E-03
  0.5287294E-02  0.0000000E+00 -0.5050505E-02 -0.1345213E-03  0.0000000E+00 -0.3048493E-03
 -0.5050505E-02  0.0000000E+00 -0.5050505E-02  0.7670652E-11  0.0000000E+00 -0.3597995E-03
 -0.5050505E-02  0.0000000E+00 -0.5050505E-02  0.2192310E-10  0.0000000E+00 -0.3597995E-03
 -0.5050505E-02  0.0000000E+00 -0.5050505E-02  0.3576389E-10  0.0000000E+00 -0.3597995E-03
 -0.5050505E-02  0.0000000E+00 -0.5050505E-02  0.4937139E-10  0.0000000E+00 -0.3597994E-03
 -0.5050505E-02  0.0000000E+00 -0.5050505E-02  0.6252001E-10  0.0000000E+00 -0.3597994E-03
 -0.5050505E-02  0.0000000E+00 -0.5050505E-02  0.7503242E-10  0.0000000E+00 -0.3597993E-03
 -0.5050504E-02  0.0000000E+00 -0.5050505E-02  0.8677789E-10  0.0000000E+00 -0.3597993E-03
 -0.5050501E-02  0.0000000E+00 -0.5050505E-02  0.9759990E-10  0.0000000E+00 -0.3597992E-03
 -0.5050495E-02  0.0000000E+00 -0.5050505E-02  0.1073739E-09  0.0000000E+00 -0.3597991E-03
 -0.5050482E-02  0.0000000E+00 -0.5050505E-02  0.1159555E-09  0.0000000E+00 -0.3597991E-03
 -0.5050449E-02  0.0000000E+00 -0.5050505E-02  0.1232096E-09  0.0000000E+00 -0.3597990E-03
 -0.5050376E-02  0.0000000E+00 -0.5050505E-02  0.1290089E-09  0.0000000E+00 -0.3597989E-03
 -0.5050299E-02  0.0000000E+00 -0.5050505E-02  0.1332121E-09  0.0000000E+00 -0.3597988E-03
 -0.5050178E-02  0.0000000E+00 -0.5050505E-02  0.1356931E-09  0.0000000E+00 -0.3597987E-03
 -0.5050018E-02  0.0000000E+00 -0.5050505E-02  0.1363209E-09  0.0000000E+00 -0.3597986E-03
 -0.5049710E-02  0.0000000E+00 -0.5050505E-02  0.1349636E-09  0.0000000E+00 -0.3597985E-03
 -0.5049253E-02  0.0000000E+00 -0.5050505E-02  0.1314811E-09  0.0000000E+00 -0.3597984E-03
 -0.5048636E-02  0.0000000E+00 -0.5050505E-02  0.1256728E-09  0.0000000E+00 -0.3597983E-03
 -0.5047442E-02  0.0000000E+00 -0.5050505E-02  0.1176801E-09  0.0000000E+00 -0.3597982E-03
 -0.5045727E-02  0.0000000E+00 -0.5050505E-02  0.1071566E-09  0.0000000E+00 -0.3597981E-03
 -0.5043261E-02  0.0000000E+00 -0.5050505E-02  0.9402170E-10  0.0000000E+00 -0.3597981E-03
 -0.5038714E-02  0.0000000E+00 -0.5050505E-02  0.7814885E-10  0.0000000E+00 -0.3597980E-03
 -0.5032318E-02  0.0000000E+00 -0.5050505E-02  0.5933134E-10  0.0000000E+00 -0.3597980E-03
 -0.5022454E-02  0.0000000E+00 -0.5050505E-02  0.3761942E-10  0.0000000E+00 -0.3597979E-03
 -0.5012589E-02  0.0000000E+00 -0.5050505E-02  0.1297324E-10  0.0000000E+00 -0.3597979E-03
 -0.5002725E-02  0.0000000E+00 -0.5050505E-02 -0.1486038E-10  0.0000000E+00 -0.3597979E-03
 -0.4992860E-02  0.0000000E+00 -0.5050505E-02 -0.4599936E-10  0.0000000E+00 -0.3597979E-03
 -0.4976523E-02  0.0000000E+00 -0.5050505E-02 -0.8049026E-10  0.0000000E+00 -0.3597980E-03
 -0.4956794E-02  0.0000000E+00 -0.5050505E-02 -0.1184179E-09  0.0000000E+00 -0.3597980E-03
 -0.4937066E-02  0.0000000E+00 -0.5050505E-02 -0.1599115E-09  0.0000000E+00 -0.3597981E-03
 -0.4906239E-02  0.0000000E+00 -0.5050505E-02 -0.2050799E-09  0.0000000E+00 -0.3597982E-03
 -0.4866782E-02  0.0000000E+00 -0.5050505E-02 -0.2539845E-09  0.0000000E+00 -0.3597984E-03
 -0.4827325E-02  0.0000000E+00 -0.5050505E-02 -0.3067112E-09  0.0000000E+00 -0.3597986E-03
 -0.4769372E-02  0.0000000E+00 -0.5050505E-02 -0.3633869E-09  0.0000000E+00 -0.3597988E-03
 -0.4690458E-02  0.0000000E+00 -0.5050505E-02 -0.4241297E-09  0.0000000E+00 -0.3597991E-03
 -0.4611543E-02  0.0000000E+00 -0.5050505E-02 -0.4890366E-09  0.0000000E+00 -0.3597994E-03
 -0.4503035E-02  0.0000000E+00 -0.5050505E-02 -0.5582121E-09  0.0000000E+00 -0.3597998E-03
 -0.4345206E-02  0.0000000E+00 -0.5050505E-02 -0.6317846E-09  0.0000000E+00 -0.3598002E-03
 -0.4187378E-02  0.0000000E+00 -0.5050505E-02 -0.7098971E-09  0.0000000E+00 -0.3598006E-03
 -0.3985156E-02  0.0000000E+00 -0.5050505E-02 -0.7926996E-09  0.0000000E+00 -0.3598012E-03
 -0.3669499E-02  0.0000000E+00 -0.5050505E-02 -0.8803572E-09  0.0000000E+00 -0.3598017E-03
 -0.3353842E-02  0.0000000E+00 -0.5050505E-02 -0.9730574E-09  0.0000000E+00 -0.3598024E-03
 -0.2978990E-02  0.0000000E+00 -0.5050505E-02 -0.1071009E-08  0.0000000E+00 -0.3598031E-03
 -0.2347676E-02  0.0000000E+00 -0.5050505E-02 -0.1174448E-08  0.0000000E+00 -0.3598039E-03
 -0.1716362E-02  0.0000000E+00 -0.5050505E-02 -0.1283648E-08  0.0000000E+00 -0.3598047E-03
 -0.1025842E-02  0.0000000E+00 -0.5050505E-02 -0.1398930E-08  0.0000000E+00 -0.3598056E-03
  0.2367855E-03  0.0000000E+00 -0.5050505E-02 -0.1520660E-08  0.0000000E+00 -0.3598067E-03
  0.1499413E-02  0.0000000E+00 -0.5050505E-02 -0.1649248E-08  0.0000000E+00 -0.3598078E-03
  0.2762042E-02  0.0000000E+00 -0.5050505E-02 -0.1785168E-08  0.0000000E+00 -0.3598089E-03
 -0.5050505E-02  0.0000000E+00 -0.5050505E-02 -0.1928975E-08  0.0000000E+00 -0.3598102E-03
 -0.5050505E-02  0.0000000E+00 -0.5050505E-02 -0.2081316E-08  0.0000000E+00 -0.3598116E-03
 -0.5050505E-02  0.0000000E+00 -0.5050505E-02 -0.2242937E-08  0.0000000E+00 -0.3598131E-03
 -0.5050505E-02  0.0000000E+00 -0.5050505E-02 -0.2414694E-08  0.0000000E+00 -0.3598147E-03
 -0.5050505E-02  0.0000000E+00 -0.5050505E-02 -0.2597577E-08  0.0000000E+00 -0.3598165E-03
 -0.5050505E-02  0.0000000E+00 -0.5050505E-02 -0.2792736E-08  0.0000000E+00 -0.3598183E-03
 -0.5050505E-02  0.0000000E+00 -0.5050505E-02 -0.3001510E-08  0.0000000E+00 -0.3598204E-03
 -0.5050504E-02  0.0000000E+00 -0.5050505E-02 -0.3225457E-08  0.0000000E+00 -0.3598225E-03
 -0.5050501E-02  0.0000000E+00 -0.5050505E-02 -0.3466384E-08  0.0000000E+00 -0.3598248E-03
 -0.5050495E-02  0.0000000E+00 -0.5050505E-02 -0.3726390E-08  0.0000000E+00 -0.3598273E-03
 -0.5050482E-02  0.0000000E+00 -0.5050505E-02 -0.4007925E-08  0.0000000E+00 -0.3598300E-03
 -0.5050449E-02  0.0000000E+00 -0.5050505E-02 -0.4313858E-08  0.0000000E+00 -0.3598329E-03
 -0.5050376E-02  0.0000000E+00 -0.5050505E-02 -0.4647553E-08  0.0000000E+00 -0.3598360E-03
 -0.5050299E-02  0.0000000E+00 -0.5050505E-02 -0.5012960E-08  0.0000000E+00 -0.3598393E-03
 -0.5050178E-02  0.0000000E+00 -0.5050505E-02 -0.5414732E-08  0.0000000E+00 -0.3598429E-03
 -0.5050018E-02  0.0000000E+00 -0.5050505E-02 -0.5858372E-08  0.0000000E+00 -0.3598468E-03
 -0.5049710E-02  0.0000000E+00 -0.5050505E-02 -0.6350414E-08  0.0000000E+00 -0.3598511E-03
 -0.5049253E-02  0.0000000E+00 -0.5050505E-02 -0.6898648E-08  0.0000000E+00 -0.3598556E-03
 -0.5048636E-02  0.0000000E+00 -0.5050505E-02 -0.7512399E-08  0.0000000E+00 -0.3598606E-03
 -0.5047442E-02  0.0000000E+00 -0.5050505E-02 -0.8202890E-08  0.0000000E+00 -0.3598661E-03
 -0.5045727E-02  0.0000000E+00 -0.5050505E-02 -0.8983698E-08  0.0000000E+00 -0.3598720E-03
 -0.5043261E-02  0.0000000E+00 -0.5050505E-02 -0.9871343E-08  0.0000000E+00 -0.3598785E-03
 -0.5038714E-02  0.0000000E+00 -0.5050505E-02 -0.1088606E-07  0.0000000E+00 -0.3598856E-03
 -0.5032318E-02  0.0000000E+00 -0.5050505E-02 -0.1205279E-07  0.0000000E+00 -0.3598935E-03
 -0.5022454E-02  0.0000000E+00 -0.5050505E-02 -0.1340251E-07  0.0000000E+00 -0.3599023E-03
 -0.5012589E-02  0.0000000E+00 -0.5050505E-02 -0.1497404E-07  0.0000000E+00 -0.3599121E-03
 -0.5002725E-02  0.0000000E+00 -0.5050505E-02 -0.1681636E-07  0.0000000E+00 -0.3599230E-03
 -0.4992860E-02  0.0000000E+00 -0.5050505E-02 -0.1899194E-07  0.0000000E+00 -0.3599353E-03
 -0.4976523E-02  0.0000000E+00 -0.5050505E-02 -0.2158123E-07  0.0000000E+00 -0.3599492E-03
 -0.4956794E-02  0.0000000E+00 -0.5050505E-02 -0.2468901E-07  0.0000000E+00 -0.3599650E-03
 -0.4937066E-02  0.0000000E+00 -0.5050505E-02 -0.2845338E-07  0.0000000E+00 -0.3599831E-03
 -0.4906239E-02  0.0000000E+00 -0.5050505E-02 -0.3305883E-07  0.0000000E+00 -0.3600041E-03
 -0.4866782E-02  0.0000000E+00 -0.5050505E-02 -0.3875538E-07  0.0000000E+00 -0.3600285E-03
 -0.4827325E-02  0.0000000E+00 -0.5050505E-02 -0.4588744E-07  0.0000000E+00 -0.3600571E-03
 -0.4769372E-02  0.0000000E+00 -0.5050505E-02 -0.5493792E-07  0.0000000E+00 -0.3600911E-03
 -0.4690458E-02  0.0000000E+00 -0.5050505E-02 -0.6659753E-07  0.0000000E+00 -0.3601319E-03
 -0.4611543E-02  0.0000000E+00 -0.5050505E-02 -0.8187642E-07  0.0000000E+00 -0.3601815E-03
 -0.4503035E-02  0.0000000E+00 -0.5050505E-02 -0.1022895E-06  0.0000000E+00 -0.3602426E-03
 -0.4345206E-02  0.0000000E+00 -0.5050505E-02 -0.1301737E-06  0.0000000E+00 -0.3603189E-03
 -0.4187378E-02  0.0000000E+00 -0.5050505E-02 -0.1692526E-06  0.0000000E+00 -0.3604161E-03
 -0.3985156E-02  0.0000000E+00 -0.5050505E-02 -0.2256816E-06  0.0000000E+00 -0.3605422E-03
 -0.3669499E-02  0.0000000E+00 -0.5050505E-02 -0.3100749E-06  0.0000000E+00 -0.3607093E-03
 -0.3353842E-02  0.0000000E+00 -0.5050505E-02 -0.4416395E-06  0.0000000E+00 -0.3609358E-03
 -0.2978990E-02  0.0000000E+00 -0.5050505E-02 -0.6570903E-06  0.0000000E+00 -0.3612495E-03
 -0.2347676E-02  0.0000000E+00 -0.5050505E-02 -0.1031041E-05  0.0000000E+00 -0.3616894E-03
 -0.1716362E-02  0.0000000E+00 -0.5050505E-02 -0.1725569E-05  0.0000000E+00 -0.3622946E-03
 -0.1025842E-02  0.0000000E+00 -0.5050505E-02 -0.3118036E-05  0.0000000E+00 -0.3630225E-03
  0.2367855E-03  0.0000000E+00 -0.5050505E-02 -0.6148880E-05  0.0000000E+00 -0.3633189E-03
  0.1499413E-02  0.0000000E+00 -0.5050505E-02 -0.1330941E-04  0.0000000E+00 -0.3600536E-03
  0.5287294E-02  0.0000000E+00 -0.5050505E-02 -0.3152131E-04  0.0000000E+00 -0.3377918E-03
 -0.5050505E-02  0.0000000E+00 -0.5050505E-02  0.1277084E-10  0.0000000E+00 -0.3593624E-03
 -0.5050505E-02  0.0000000E+00 -0.5050505E-02  0.3692955E-10  0.0000000E+00 -0.3593624E-03
 -0.5050505E-02  0.0000000E+00 -0.5050505E-02  0.6045471E-10  0.0000000E+00 -0.3593623E-03
 -0.5050505E-02  0.0000000E+00 -0.5050505E-02  0.8353308E-10  0.0000000E+00 -0.3593623E-03
 -0.5050505E-02  0.0000000E+00 -0.5050505E-02  0.1058165E-09  0.0000000E+00 -0.3593623E-03
 -0.5050505E-02  0.0000000E+00 -0.5050505E-02  0.1270245E-09  0.0000000E+00 -0.3593622E-03
 -0.5050504E-02  0.0000000E+00 -0.5050505E-02  0.1469467E-09  0.0000000E+00 -0.3593622E-03
 -0.5050501E-02  0.0000000E+00 -0.5050505E-02  0.1653269E-09  0.0000000E+00 -0.3593621E-03
 -0.5050495E-02  0.0000000E+00 -0.5050505E-02  0.1819523E-09  0.0000000E+00 -0.3593620E-03
 -0.5050482E-02  0.0000000E+00 -0.5050505E-02  0.1965892E-09  0.0000000E+00 -0.3593619E-03
 -0.5050449E-02  0.0000000E+00 -0.5050505E-02  0.2090060E-09  0.0000000E+00 -0.3593618E-03
 -0.5050376E-02  0.0000000E+00 -0.5050505E-02  0.2189907E-09  0.0000000E+00 -0.3593617E-03
 -0.5050299E-02  0.0000000E+00 -0.5050505E-02  0.2263114E-09  0.0000000E+00 -0.3593616E-03
 -0.5050178E-02  0.0000000E+00 -0.5050505E-02  0.2307535E-09  0.0000000E+00 -0.3593615E-03
 -0.5050018E-02  0.0000000E+00 -0.5050505E-02  0.2320970E-09  0.0000000E+00 -0.3593614E-03
 -0.5049710E-02  0.0000000E+00 -0.5050505E-02  0.2301192E-09  0.0000000E+00 -0.3593613E-03
 -0.5049253E-02  0.0000000E+00 -0.5050505E-02  0.2245509E-09  0.0000000E+00 -0.3593612E-03
 -0.5048636E-02  0.0000000E+00 -0.5050505E-02  0.2152865E-09  0.0000000E+00 -0.3593611E-03
 -0.5047442E-02  0.0000000E+00 -0.5050505E-02  0.2021538E-09  0.0000000E+00 -0.3593610E-03
 -0.5045727E-02  0.0000000E+00 -0.5050505E-02  0.1848220E-09  0.0000000E+00 -0.3593610E-03
 -0.5043261E-02  0.0000000E+00 -0.5050505E-02  0.1631760E-09  0.0000000E+00 -0.3593609E-03
 -0.5038714E-02  0.0000000E+00 -0.5050505E-02  0.1369299E-09  0.0000000E+00 -0.3593608E-03
 -0.5032318E-02  0.0000000E+00 -0.5050505E-02  0.1058395E-09  0.0000000E+00 -0.3593607E-03
 -0.5022454E-02  0.0000000E+00 -0.5050505E-02  0.6988687E-10  0.0000000E+00 -0.3593607E-03
 -0.5012589E-02  0.0000000E+00 -0.5050505E-02  0.2894768E-10  0.0000000E+00 -0.3593607E-03
 -0.5002725E-02  0.0000000E+00 -0.5050505E-02 -0.1725594E-10  0.0000000E+00 -0.3593607E-03
 -0.4992860E-02  0.0000000E+00 -0.5050505E-02 -0.6897572E-10  0.0000000E+00 -0.3593607E-03
 -0.4976523E-02  0.0000000E+00 -0.5050505E-02 -0.1263328E-09  0.0000000E+00 -0.3593607E-03
 -0.4956794E-02  0.0000000E+00 -0.5050505E-02 -0.1894224E-09  0.0000000E+00 -0.3593608E-03
 -0.4937066E-02  0.0000000E+00 -0.5050505E-02 -0.2584186E-09  0.0000000E+00 -0.3593608E-03
 -0.4906239E-02  0.0000000E+00 -0.5050505E-02 -0.3335434E-09  0.0000000E+00 -0.3593610E-03
 -0.4866782E-02  0.0000000E+00 -0.5050505E-02 -0.4149440E-09  0.0000000E+00 -0.3593611E-03
 -0.4827325E-02  0.0000000E+00 -0.5050505E-02 -0.5027335E-09  0.0000000E+00 -0.3593613E-03
 -0.4769372E-02  0.0000000E+00 -0.5050505E-02 -0.5970806E-09  0.0000000E+00 -0.3593615E-03
 -0.4690458E-02  0.0000000E+00 -0.5050505E-02 -0.6981916E-09  0.0000000E+00 -0.3593618E-03
 -0.4611543E-02  0.0000000E+00 -0.5050505E-02 -0.8062555E-09  0.0000000E+00 -0.3593621E-03
 -0.4503035E-02  0.0000000E+00 -0.5050505E-02 -0.9214458E-09  0.0000000E+00 -0.3593624E-03
 -0.4345206E-02  0.0000000E+00 -0.5050505E-02 -0.1043957E-08  0.0000000E+00 -0.3593628E-03
 -0.4187378E-02  0.0000000E+00 -0.5050505E-02 -0.1174018E-08  0.0000000E+00 -0.3593633E-03
 -0.3985156E-02  0.0000000E+00 -0.5050505E-02 -0.1311878E-08  0.0000000E+00 -0.3593638E-03
 -0.3669499E-02  0.0000000E+00 -0.5050505E-02 -0.1457809E-08  0.0000000E+00 -0.3593643E-03
 -0.3353842E-02  0.0000000E+00 -0.5050505E-02 -0.1612120E-08  0.0000000E+00 -0.3593650E-03
 -0.2978990E-02  0.0000000E+00 -0.5050505E-02 -0.1775157E-08  0.0000000E+00 -0.3593657E-03
 -0.2347676E-02  0.0000000E+00 -0.5050505E-02 -0.1947311E-08  0.0000000E+00 -0.3593664E-03
 -0.1716362E-02  0.0000000E+00 -0.5050505E-02 -0.2129020E-08  0.0000000E+00 -0.3593673E-03
 -0.1025842E-02  0.0000000E+00 -0.5050505E-02 -0.2320800E-08  0.0000000E+00 -0.3593682E-03
  0.2367855E-03  0.0000000E+00 -0.5050505E-02 -0.2523254E-08  0.0000000E+00 -0.3593692E-03
  0.1499413E-02  0.0000000E+00 -0.5050505E-02 -0.2737071E-08  0.0000000E+00 -0.3593703E-03
  0.2762042E-02  0.0000000E+00 -0.5050505E-02 -0.2963030E-08  0.0000000E+00 -0.3593715E-03
 -0.5050505E-02  0.0000000E+00 -0.5050505E-02 -0.3202030E-08  0.0000000E+00 -0.3593727E-03
 -0.5050505E-02  0.0000000E+00 -0.5050505E-02 -0.3455124E-08  0.0000000E+00 -0.3593741E-03
 -0.5050505E-02  0.0000000E+00 -0.5050505E-02 -0.3723534E-08  0.0000000E+00 -0.3593756E-03
 -0.5050505E-02  0.0000000E+00 -0.5050505E-02 -0.4008677E-08  0.0000000E+00 -0.3593772E-03
 -0.5050505E-02  0.0000000E+00 -0.5050505E-02 -0.4312180E-08  0.0000000E+00 -0.3593789E-03
 -0.5050505E-02  0.0000000E+00 -0.5050505E-02 -0.4635925E-08  0.0000000E+00 -0.3593808E-03
 -0.5050505E-02  0.0000000E+00 -0.5050505E-02 -0.4982100E-08  0.0000000E+00 -0.3593828E-03
 -0.5050504E-02  0.0000000E+00 -0.5050505E-02 -0.5353253E-08  0.0000000E+00 -0.3593849E-03
 -0.5050501E-02  0.0000000E+00 -0.5050505E-02 -0.5752351E-08  0.0000000E+00 -0.3593872E-03
 -0.5050495E-02  0.0000000E+00 -0.5050505E-02 -0.6182836E-08  0.0000000E+00 -0.3593896E-03
 -0.5050482E-02  0.0000000E+00 -0.5050505E-02 -0.6648718E-08  0.0000000E+00 -0.3593923E-03
 -0.5050449E-02  0.0000000E+00 -0.5050505E-02 -0.7154683E-08  0.0000000E+00 -0.3593951E-03
 -0.5050376E-02  0.0000000E+00 -0.5050505E-02 -0.7706228E-08  0.0000000E+00 -0.3593982E-03
 -0.5050299E-02  0.0000000E+00 -0.5050505E-02 -0.8309804E-08  0.0000000E+00 -0.3594015E-03
 -0.5050178E-02  0.0000000E+00 -0.5050505E-02 -0.8973006E-08  0.0000000E+00 -0.3594051E-03
 -0.5050018E-02  0.0000000E+00 -0.5050505E-02 -0.9704804E-08  0.0000000E+00 -0.3594089E-03
 -0.5049710E-02  0.0000000E+00 -0.5050505E-02 -0.1051584E-07  0.0000000E+00 -0.3594131E-03
 -0.5049253E-02  0.0000000E+00 -0.5050505E-02 -0.1141876E-07  0.0000000E+00 -0.3594175E-03
 -0.5048636E-02  0.0000000E+00 -0.5050505E-02 -0.1242873E-07  0.0000000E+00 -0.3594224E-03
 -0.5047442E-02  0.0000000E+00 -0.5050505E-02 -0.1356394E-07  0.0000000E+00 -0.3594277E-03
 -0.5045727E-02  0.0000000E+00 -0.5050505E-02 -0.1484635E-07  0.0000000E+00 -0.3594335E-03
 -0.5043261E-02  0.0000000E+00 -0.5050505E-02 -0.1630265E-07  0.0000000E+00 -0.3594399E-03
 -0.5038714E-02  0.0000000E+00 -0.5050505E-02 -0.1796547E-07  0.0000000E+00 -0.3594469E-03
 -0.5032318E-02  0.0000000E+00 -0.5050505E-02 -0.1987490E-07  0.0000000E+00 -0.3594545E-03
 -0.5022454E-02  0.0000000E+00 -0.5050505E-02 -0.2208065E-07  0.0000000E+00 -0.3594630E-03
 -0.5012589E-02  0.0000000E+00 -0.5050505E-02 -0.2464474E-07  0.0000000E+00 -0.3594724E-03
 -0.5002725E-02  0.0000000E+00 -0.5050505E-02 -0.2764526E-07  0.0000000E+00 -0.3594830E-03
 -0.4992860E-02  0.0000000E+00 -0.5050505E-02 -0.3118137E-07  0.0000000E+00 -0.3594947E-03
 -0.4976523E-02  0.0000000E+00 -0.5050505E-02 -0.3538022E-07  0.0000000E+00 -0.3595080E-03
 -0.4956794E-02  0.0000000E+00 -0.5050505E-02 -0.4040661E-07  0.0000000E+00 -0.3595230E-03
 -0.4937066E-02  0.0000000E+00 -0.5050505E-02 -0.4647646E-07  0.0000000E+00 -0.3595402E-03
 -0.4906239E-02  0.0000000E+00 -0.5050505E-02 -0.5387634E-07  0.0000000E+00 -0.3595598E-03
 -0.4866782E-02  0.0000000E+00 -0.5050505E-02 -0.6299160E-07  0.0000000E+00 -0.3595825E-03
 -0.4827325E-02  0.0000000E+00 -0.5050505E-02 -0.7434817E-07  0.0000000E+00 -0.3596090E-03
 -0.4769372E-02  0.0000000E+00 -0.5050505E-02 -0.8867545E-07  0.0000000E+00 -0.3596400E-03
 -0.4690458E-02  0.0000000E+00 -0.5050505E-02 -0.1070031E-06  0.0000000E+00 -0.3596767E-03
 -0.4611543E-02  0.0000000E+00 -0.5050505E-02 -0.1308129E-06  0.0000000E+00 -0.3597205E-03
 -0.4503035E-02  0.0000000E+00 -0.5050505E-02 -0.1622835E-06  0.0000000E+00 -0.3597734E-03
 -0.4345206E-02  0.0000000E+00 -0.5050505E-02 -0.2046934E-06  0.0000000E+00 -0.3598377E-03
 -0.4187378E-02  0.0000000E+00 -0.5050505E-02 -0.2631033E-06  0.0000000E+00 -0.3599166E-03
 -0.3985156E-02  0.0000000E+00 -0.5050505E-02 -0.3455426E-06  0.0000000E+00 -0.3600141E-03
 -0.3669499E-02  0.0000000E+00 -0.5050505E-02 -0.4651236E-06  0.0000000E+00 -0.3601347E-03
 -0.3353842E-02  0.0000000E+00 -0.5050505E-02 -0.6438930E-06  0.0000000E+00 -0.3602822E-03
 -0.2978990E-02  0.0000000E+00 -0.5050505E-02 -0.9199212E-06  0.0000000E+00 -0.3604557E-03
 -0.2347676E-02  0.0000000E+00 -0.5050505E-02 -0.1360178E-05  0.0000000E+00 -0.3606367E-03
 -0.1716362E-02  0.0000000E+00 -0.5050505E-02 -0.2082199E-05  0.0000000E+00 -0.3607528E-03
 -0.1025842E-02  0.0000000E+00 -0.5050505E-02 -0.3280886E-05  0.0000000E+00 -0.3605787E-03
  0.2367855E-03  0.0000000E+00 -0.5050505E-02 -0.5209174E-05  0.0000000E+00 -0.3594981E-03
  0.1499413E-02  0.0000000E+00 -0.5050505E-02 -0.7812320E-05  0.0000000E+00 -0.3561189E-03
  0.5287294E-02  0.0000000E+00 -0.5050505E-02 -0.8534276E-05  0.0000000E+00 -0.3489655E-03
 -0.5050505E-02  0.0000000E+00 -0.5050505E-02  0.1808516E-10  0.0000000E+00 -0.3587212E-03
 -0.5050505E-02  0.0000000E+00 -0.5050505E-02  0.5266963E-10  0.0000000E+00 -0.3587212E-03
 -0.5050505E-02  0.0000000E+00 -0.5050505E-02  0.8647036E-10  0.0000000E+00 -0.3587212E-03
 -0.5050505E-02  0.0000000E+00 -0.5050505E-02  0.1195880E-09  0.0000000E+00 -0.3587212E-03
 -0.5050505E-02  0.0000000E+00 -0.5050505E-02  0.1515539E-09  0.0000000E+00 -0.3587211E-03
 -0.5050505E-02  0.0000000E+00 -0.5050505E-02  0.1819919E-09  0.0000000E+00 -0.3587211E-03
 -0.5050504E-02  0.0000000E+00 -0.5050505E-02  0.2106128E-09  0.0000000E+00 -0.3587210E-03
 -0.5050501E-02  0.0000000E+00 -0.5050505E-02  0.2370686E-09  0.0000000E+00 -0.3587209E-03
 -0.5050495E-02  0.0000000E+00 -0.5050505E-02  0.2610529E-09  0.0000000E+00 -0.3587208E-03
 -0.5050482E-02  0.0000000E+00 -0.5050505E-02  0.2822450E-09  0.0000000E+00 -0.3587207E-03
 -0.5050449E-02  0.0000000E+00 -0.5050505E-02  0.3003173E-09  0.0000000E+00 -0.3587207E-03
 -0.5050376E-02  0.0000000E+00 -0.5050505E-02  0.3149673E-09  0.0000000E+00 -0.3587205E-03
 -0.5050299E-02  0.0000000E+00 -0.5050505E-02  0.3258742E-09  0.0000000E+00 -0.3587204E-03
 -0.5050178E-02  0.0000000E+00 -0.5050505E-02  0.3327359E-09  0.0000000E+00 -0.3587203E-03
 -0.5050018E-02  0.0000000E+00 -0.5050505E-02  0.3352399E-09  0.0000000E+00 -0.3587202E-03
 -0.5049710E-02  0.0000000E+00 -0.5050505E-02  0.3330718E-09  0.0000000E+00 -0.3587201E-03
 -0.5049253E-02  0.0000000E+00 -0.5050505E-02  0.3258680E-09  0.0000000E+00 -0.3587200E-03
 -0.5048636E-02  0.0000000E+00 -0.5050505E-02  0.3135329E-09  0.0000000E+00 -0.3587199E-03
 -0.5047442E-02  0.0000000E+00 -0.5050505E-02  0.2956171E-09  0.0000000E+00 -0.3587198E-03
 -0.5045727E-02  0.0000000E+00 -0.5050505E-02  0.2718608E-09  0.0000000E+00 -0.3587197E-03
 -0.5043261E-02  0.0000000E+00 -0.5050505E-02  0.2420294E-09  0.0000000E+00 -0.3587196E-03
 -0.5038714E-02  0.0000000E+00 -0.5050505E-02  0.2057407E-09  0.0000000E+00 -0.3587195E-03
 -0.5032318E-02  0.0000000E+00 -0.5050505E-02  0.1627365E-09  0.0000000E+00 -0.3587194E-03
 -0.5022454E-02  0.0000000E+00 -0.5050505E-02  0.1128623E-09  0.0000000E+00 -0.3587194E-03
 -0.5012589E-02  0.0000000E+00 -0.5050505E-02  0.5584619E-10  0.0000000E+00 -0.3587193E-03
 -0.5002725E-02  0.0000000E+00 -0.5050505E-02 -0.8507984E-11  0.0000000E+00 -0.3587193E-03
 -0.4992860E-02  0.0000000E+00 -0.5050505E-02 -0.8054289E-10  0.0000000E+00 -0.3587193E-03
 -0.4976523E-02  0.0000000E+00 -0.5050505E-02 -0.1605325E-09  0.0000000E+00 -0.3587193E-03
 -0.4956794E-02  0.0000000E+00 -0.5050505E-02 -0.2486253E-09  0.0000000E+00 -0.3587194E-03
 -0.4937066E-02  0.0000000E+00 -0.5050505E-02 -0.3449775E-09  0.0000000E+00 -0.3587194E-03