title = "dataset feddes"
variables = "x", "y", "z", "vx", "vy", "vz"
zone t = "velocities, solution time =  5.100E+01 days        " i =   99, j =   99, k =    1,  f=point
 -0.5050505E-02  0.0000000E+00 -0.5050505E-02  0.3024323E-08  0.0000000E+00 -0.1947183E-03
 -0.5050505E-02  0.0000000E+00 -0.5050505E-02  0.9068647E-08  0.0000000E+00 -0.1947060E-03
 -0.5050505E-02  0.0000000E+00 -0.5050505E-02  0.1509995E-07  0.0000000E+00 -0.1946812E-03
 -0.5050505E-02  0.0000000E+00 -0.5050505E-02  0.2110951E-07  0.0000000E+00 -0.1946442E-03
 -0.5050505E-02  0.0000000E+00 -0.5050505E-02  0.2708849E-07  0.0000000E+00 -0.1945948E-03
 -0.5050505E-02  0.0000000E+00 -0.5050505E-02  0.3302794E-07  0.0000000E+00 -0.1945333E-03
 -0.5050504E-02  0.0000000E+00 -0.5050505E-02  0.3891875E-07  0.0000000E+00 -0.1944597E-03
 -0.5050501E-02  0.0000000E+00 -0.5050505E-02  0.4475160E-07  0.0000000E+00 -0.1943740E-03
 -0.5050495E-02  0.0000000E+00 -0.5050505E-02  0.5051690E-07  0.0000000E+00 -0.1942765E-03
 -0.5050482E-02  0.0000000E+00 -0.5050505E-02  0.5620480E-07  0.0000000E+00 -0.1941673E-03
 -0.5050449E-02  0.0000000E+00 -0.5050505E-02  0.6180511E-07  0.0000000E+00 -0.1940465E-03
 -0.5050376E-02  0.0000000E+00 -0.5050505E-02  0.6730727E-07  0.0000000E+00 -0.1939144E-03
 -0.5050299E-02  0.0000000E+00 -0.5050505E-02  0.7270032E-07  0.0000000E+00 -0.1937711E-03
 -0.5050178E-02  0.0000000E+00 -0.5050505E-02  0.7797285E-07  0.0000000E+00 -0.1936169E-03
 -0.5050018E-02  0.0000000E+00 -0.5050505E-02  0.8311296E-07  0.0000000E+00 -0.1934520E-03
 -0.5049710E-02  0.0000000E+00 -0.5050505E-02  0.8810822E-07  0.0000000E+00 -0.1932768E-03
 -0.5049253E-02  0.0000000E+00 -0.5050505E-02  0.9294568E-07  0.0000000E+00 -0.1930915E-03
 -0.5048636E-02  0.0000000E+00 -0.5050505E-02  0.9761177E-07  0.0000000E+00 -0.1928965E-03
 -0.5047442E-02  0.0000000E+00 -0.5050505E-02  0.1020923E-06  0.0000000E+00 -0.1926922E-03
 -0.5045727E-02  0.0000000E+00 -0.5050505E-02  0.1063726E-06  0.0000000E+00 -0.1924788E-03
 -0.5043261E-02  0.0000000E+00 -0.5050505E-02  0.1104372E-06  0.0000000E+00 -0.1922570E-03
 -0.5038714E-02  0.0000000E+00 -0.5050505E-02  0.1142701E-06  0.0000000E+00 -0.1920271E-03
 -0.5032318E-02  0.0000000E+00 -0.5050505E-02  0.1178547E-06  0.0000000E+00 -0.1917895E-03
 -0.5022454E-02  0.0000000E+00 -0.5050505E-02  0.1211739E-06  0.0000000E+00 -0.1915450E-03
 -0.5012589E-02  0.0000000E+00 -0.5050505E-02  0.1242100E-06  0.0000000E+00 -0.1912939E-03
 -0.5002725E-02  0.0000000E+00 -0.5050505E-02  0.1269449E-06  0.0000000E+00 -0.1910370E-03
 -0.4992860E-02  0.0000000E+00 -0.5050505E-02  0.1293605E-06  0.0000000E+00 -0.1907747E-03
 -0.4976523E-02  0.0000000E+00 -0.5050505E-02  0.1314380E-06  0.0000000E+00 -0.1905079E-03
 -0.4956794E-02  0.0000000E+00 -0.5050505E-02  0.1331591E-06  0.0000000E+00 -0.1902372E-03
 -0.4937066E-02  0.0000000E+00 -0.5050505E-02  0.1345054E-06  0.0000000E+00 -0.1899634E-03
 -0.4906239E-02  0.0000000E+00 -0.5050505E-02  0.1354589E-06  0.0000000E+00 -0.1896873E-03
 -0.4866782E-02  0.0000000E+00 -0.5050505E-02  0.1360024E-06  0.0000000E+00 -0.1894096E-03
 -0.4827325E-02  0.0000000E+00 -0.5050505E-02  0.1361195E-06  0.0000000E+00 -0.1891312E-03
 -0.4769372E-02  0.0000000E+00 -0.5050505E-02  0.1357949E-06  0.0000000E+00 -0.1888531E-03
 -0.4690458E-02  0.0000000E+00 -0.5050505E-02  0.1350147E-06  0.0000000E+00 -0.1885761E-03
 -0.4611543E-02  0.0000000E+00 -0.5050505E-02  0.1337669E-06  0.0000000E+00 -0.1883012E-03
 -0.4503035E-02  0.0000000E+00 -0.5050505E-02  0.1320410E-06  0.0000000E+00 -0.1880294E-03
 -0.4345206E-02  0.0000000E+00 -0.5050505E-02  0.1298289E-06  0.0000000E+00 -0.1877615E-03
 -0.4187378E-02  0.0000000E+00 -0.5050505E-02  0.1271244E-06  0.0000000E+00 -0.1874988E-03
 -0.3985156E-02  0.0000000E+00 -0.5050505E-02  0.1239236E-06  0.0000000E+00 -0.1872420E-03
 -0.3669499E-02  0.0000000E+00 -0.5050505E-02  0.1202245E-06  0.0000000E+00 -0.1869923E-03
 -0.3353842E-02  0.0000000E+00 -0.5050505E-02  0.1160271E-06  0.0000000E+00 -0.1867508E-03
 -0.2978990E-02  0.0000000E+00 -0.5050505E-02  0.1113330E-06  0.0000000E+00 -0.1865183E-03
 -0.2347676E-02  0.0000000E+00 -0.5050505E-02  0.1061449E-06  0.0000000E+00 -0.1862959E-03
 -0.1716362E-02  0.0000000E+00 -0.5050505E-02  0.1004666E-06  0.0000000E+00 -0.1860846E-03
 -0.1025842E-02  0.0000000E+00 -0.5050505E-02  0.9430174E-07  0.0000000E+00 -0.1858855E-03
  0.2367855E-03  0.0000000E+00 -0.5050505E-02  0.8765416E-07  0.0000000E+00 -0.1856994E-03
  0.1499413E-02  0.0000000E+00 -0.5050505E-02  0.8052702E-07  0.0000000E+00 -0.1855275E-03
  0.2762042E-02  0.0000000E+00 -0.5050505E-02  0.7292285E-07  0.0000000E+00 -0.1853706E-03
 -0.5050505E-02  0.0000000E+00 -0.5050505E-02  0.6484361E-07  0.0000000E+00 -0.1852297E-03
 -0.5050505E-02  0.0000000E+00 -0.5050505E-02  0.5629126E-07  0.0000000E+00 -0.1851059E-03
 -0.5050505E-02  0.0000000E+00 -0.5050505E-02  0.4726876E-07  0.0000000E+00 -0.1850000E-03
 -0.5050505E-02  0.0000000E+00 -0.5050505E-02  0.3778184E-07  0.0000000E+00 -0.1849130E-03
 -0.5050505E-02  0.0000000E+00 -0.5050505E-02  0.2784127E-07  0.0000000E+00 -0.1848459E-03
 -0.5050505E-02  0.0000000E+00 -0.5050505E-02  0.1746597E-07  0.0000000E+00 -0.1847996E-03
 -0.5050505E-02  0.0000000E+00 -0.5050505E-02  0.6686507E-08  0.0000000E+00 -0.1847749E-03
 -0.5050504E-02  0.0000000E+00 -0.5050505E-02 -0.4451074E-08  0.0000000E+00 -0.1847726E-03
 -0.5050501E-02  0.0000000E+00 -0.5050505E-02 -0.1588165E-07  0.0000000E+00 -0.1847934E-03
 -0.5050495E-02  0.0000000E+00 -0.5050505E-02 -0.2751831E-07  0.0000000E+00 -0.1848378E-03
 -0.5050482E-02  0.0000000E+00 -0.5050505E-02 -0.3925122E-07  0.0000000E+00 -0.1849061E-03
 -0.5050449E-02  0.0000000E+00 -0.5050505E-02 -0.5094866E-07  0.0000000E+00 -0.1849983E-03
 -0.5050376E-02  0.0000000E+00 -0.5050505E-02 -0.6246093E-07  0.0000000E+00 -0.1851142E-03
 -0.5050299E-02  0.0000000E+00 -0.5050505E-02 -0.7362693E-07  0.0000000E+00 -0.1852534E-03
 -0.5050178E-02  0.0000000E+00 -0.5050505E-02 -0.8428321E-07  0.0000000E+00 -0.1854148E-03
 -0.5050018E-02  0.0000000E+00 -0.5050505E-02 -0.9427416E-07  0.0000000E+00 -0.1855974E-03
 -0.5049710E-02  0.0000000E+00 -0.5050505E-02 -0.1034619E-06  0.0000000E+00 -0.1857996E-03
 -0.5049253E-02  0.0000000E+00 -0.5050505E-02 -0.1117345E-06  0.0000000E+00 -0.1860196E-03
 -0.5048636E-02  0.0000000E+00 -0.5050505E-02 -0.1190113E-06  0.0000000E+00 -0.1862555E-03
 -0.5047442E-02  0.0000000E+00 -0.5050505E-02 -0.1252450E-06  0.0000000E+00 -0.1865053E-03
 -0.5045727E-02  0.0000000E+00 -0.5050505E-02 -0.1304202E-06  0.0000000E+00 -0.1867667E-03
 -0.5043261E-02  0.0000000E+00 -0.5050505E-02 -0.1345501E-06  0.0000000E+00 -0.1870377E-03
 -0.5038714E-02  0.0000000E+00 -0.5050505E-02 -0.1376710E-06  0.0000000E+00 -0.1873161E-03
 -0.5032318E-02  0.0000000E+00 -0.5050505E-02 -0.1398367E-06  0.0000000E+00 -0.1875999E-03
 -0.5022454E-02  0.0000000E+00 -0.5050505E-02 -0.1411131E-06  0.0000000E+00 -0.1878872E-03
 -0.5012589E-02  0.0000000E+00 -0.5050505E-02 -0.1415731E-06  0.0000000E+00 -0.1881763E-03
 -0.5002725E-02  0.0000000E+00 -0.5050505E-02 -0.1412929E-06  0.0000000E+00 -0.1884656E-03
 -0.4992860E-02  0.0000000E+00 -0.5050505E-02 -0.1403497E-06  0.0000000E+00 -0.1887537E-03
 -0.4976523E-02  0.0000000E+00 -0.5050505E-02 -0.1388203E-06  0.0000000E+00 -0.1890392E-03
 -0.4956794E-02  0.0000000E+00 -0.5050505E-02 -0.1367809E-06  0.0000000E+00 -0.1893211E-03
 -0.4937066E-02  0.0000000E+00 -0.5050505E-02 -0.1343085E-06  0.0000000E+00 -0.1895984E-03
 -0.4906239E-02  0.0000000E+00 -0.5050505E-02 -0.1314831E-06  0.0000000E+00 -0.1898703E-03
 -0.4866782E-02  0.0000000E+00 -0.5050505E-02 -0.1283917E-06  0.0000000E+00 -0.1901362E-03
 -0.4827325E-02  0.0000000E+00 -0.5050505E-02 -0.1251347E-06  0.0000000E+00 -0.1903955E-03
 -0.4769372E-02  0.0000000E+00 -0.5050505E-02 -0.1218353E-06  0.0000000E+00 -0.1906482E-03
 -0.4690458E-02  0.0000000E+00 -0.5050505E-02 -0.1186538E-06  0.0000000E+00 -0.1908942E-03
 -0.4611543E-02  0.0000000E+00 -0.5050505E-02 -0.1158110E-06  0.0000000E+00 -0.1911341E-03
 -0.4503035E-02  0.0000000E+00 -0.5050505E-02 -0.1136268E-06  0.0000000E+00 -0.1913688E-03
 -0.4345206E-02  0.0000000E+00 -0.5050505E-02 -0.1125867E-06  0.0000000E+00 -0.1916003E-03
 -0.4187378E-02  0.0000000E+00 -0.5050505E-02 -0.1134633E-06  0.0000000E+00 -0.1918316E-03
 -0.3985156E-02  0.0000000E+00 -0.5050505E-02 -0.1175464E-06  0.0000000E+00 -0.1920680E-03
 -0.3669499E-02  0.0000000E+00 -0.5050505E-02 -0.1271093E-06  0.0000000E+00 -0.1923183E-03
 -0.3353842E-02  0.0000000E+00 -0.5050505E-02 -0.1464131E-06  0.0000000E+00 -0.1925982E-03
 -0.2978990E-02  0.0000000E+00 -0.5050505E-02 -0.1840422E-06  0.0000000E+00 -0.1929363E-03
 -0.2347676E-02  0.0000000E+00 -0.5050505E-02 -0.2588097E-06  0.0000000E+00 -0.1933895E-03
 -0.1716362E-02  0.0000000E+00 -0.5050505E-02 -0.4161207E-06  0.0000000E+00 -0.1940802E-03
 -0.1025842E-02  0.0000000E+00 -0.5050505E-02 -0.7778142E-06  0.0000000E+00 -0.1953022E-03
  0.2367855E-03  0.0000000E+00 -0.5050505E-02 -0.1708674E-05  0.0000000E+00 -0.1978475E-03
  0.1499413E-02  0.0000000E+00 -0.5050505E-02 -0.4421963E-05  0.0000000E+00 -0.2041253E-03
  0.5287294E-02  0.0000000E+00 -0.5050505E-02 -0.7203770E-04  0.0000000E+00 -0.1629922E-03
 -0.5050505E-02  0.0000000E+00 -0.5050505E-02  0.9082707E-08  0.0000000E+00 -0.1945956E-03
 -0.5050505E-02  0.0000000E+00 -0.5050505E-02  0.2723518E-07  0.0000000E+00 -0.1945831E-03
 -0.5050505E-02  0.0000000E+00 -0.5050505E-02  0.4534867E-07  0.0000000E+00 -0.1945582E-03
 -0.5050505E-02  0.0000000E+00 -0.5050505E-02  0.6339702E-07  0.0000000E+00 -0.1945210E-03
 -0.5050505E-02  0.0000000E+00 -0.5050505E-02  0.8135381E-07  0.0000000E+00 -0.1944713E-03
 -0.5050505E-02  0.0000000E+00 -0.5050505E-02  0.9919224E-07  0.0000000E+00 -0.1944095E-03
 -0.5050504E-02  0.0000000E+00 -0.5050505E-02  0.1168850E-06  0.0000000E+00 -0.1943354E-03
 -0.5050501E-02  0.0000000E+00 -0.5050505E-02  0.1344041E-06  0.0000000E+00 -0.1942493E-03
 -0.5050495E-02  0.0000000E+00 -0.5050505E-02  0.1517210E-06  0.0000000E+00 -0.1941512E-03
 -0.5050482E-02  0.0000000E+00 -0.5050505E-02  0.1688060E-06  0.0000000E+00 -0.1940413E-03
 -0.5050449E-02  0.0000000E+00 -0.5050505E-02  0.1856286E-06  0.0000000E+00 -0.1939199E-03
 -0.5050376E-02  0.0000000E+00 -0.5050505E-02  0.2021573E-06  0.0000000E+00 -0.1937869E-03
 -0.5050299E-02  0.0000000E+00 -0.5050505E-02  0.2183591E-06  0.0000000E+00 -0.1936428E-03
 -0.5050178E-02  0.0000000E+00 -0.5050505E-02  0.2341998E-06  0.0000000E+00 -0.1934877E-03
 -0.5050018E-02  0.0000000E+00 -0.5050505E-02  0.2496439E-06  0.0000000E+00 -0.1933218E-03
 -0.5049710E-02  0.0000000E+00 -0.5050505E-02  0.2646539E-06  0.0000000E+00 -0.1931455E-03
 -0.5049253E-02  0.0000000E+00 -0.5050505E-02  0.2791911E-06  0.0000000E+00 -0.1929591E-03
 -0.5048636E-02  0.0000000E+00 -0.5050505E-02  0.2932148E-06  0.0000000E+00 -0.1927629E-03
 -0.5047442E-02  0.0000000E+00 -0.5050505E-02  0.3066824E-06  0.0000000E+00 -0.1925572E-03
 -0.5045727E-02  0.0000000E+00 -0.5050505E-02  0.3195497E-06  0.0000000E+00 -0.1923425E-03
 -0.5043261E-02  0.0000000E+00 -0.5050505E-02  0.3317704E-06  0.0000000E+00 -0.1921192E-03
 -0.5038714E-02  0.0000000E+00 -0.5050505E-02  0.3432964E-06  0.0000000E+00 -0.1918878E-03
 -0.5032318E-02  0.0000000E+00 -0.5050505E-02  0.3540780E-06  0.0000000E+00 -0.1916487E-03
 -0.5022454E-02  0.0000000E+00 -0.5050505E-02  0.3640634E-06  0.0000000E+00 -0.1914024E-03
 -0.5012589E-02  0.0000000E+00 -0.5050505E-02  0.3731997E-06  0.0000000E+00 -0.1911496E-03
 -0.5002725E-02  0.0000000E+00 -0.5050505E-02  0.3814326E-06  0.0000000E+00 -0.1908908E-03
 -0.4992860E-02  0.0000000E+00 -0.5050505E-02  0.3887069E-06  0.0000000E+00 -0.1906267E-03
 -0.4976523E-02  0.0000000E+00 -0.5050505E-02  0.3949668E-06  0.0000000E+00 -0.1903580E-03
 -0.4956794E-02  0.0000000E+00 -0.5050505E-02  0.4001564E-06  0.0000000E+00 -0.1900853E-03
 -0.4937066E-02  0.0000000E+00 -0.5050505E-02  0.4042206E-06  0.0000000E+00 -0.1898094E-03
 -0.4906239E-02  0.0000000E+00 -0.5050505E-02  0.4071052E-06  0.0000000E+00 -0.1895311E-03
 -0.4866782E-02  0.0000000E+00 -0.5050505E-02  0.4087580E-06  0.0000000E+00 -0.1892512E-03
 -0.4827325E-02  0.0000000E+00 -0.5050505E-02  0.4091295E-06  0.0000000E+00 -0.1889706E-03
 -0.4769372E-02  0.0000000E+00 -0.5050505E-02  0.4081736E-06  0.0000000E+00 -0.1886902E-03
 -0.4690458E-02  0.0000000E+00 -0.5050505E-02  0.4058484E-06  0.0000000E+00 -0.1884109E-03
 -0.4611543E-02  0.0000000E+00 -0.5050505E-02  0.4021173E-06  0.0000000E+00 -0.1881337E-03
 -0.4503035E-02  0.0000000E+00 -0.5050505E-02  0.3969491E-06  0.0000000E+00 -0.1878595E-03
 -0.4345206E-02  0.0000000E+00 -0.5050505E-02  0.3903189E-06  0.0000000E+00 -0.1875893E-03
 -0.4187378E-02  0.0000000E+00 -0.5050505E-02  0.3822083E-06  0.0000000E+00 -0.1873242E-03
 -0.3985156E-02  0.0000000E+00 -0.5050505E-02  0.3726053E-06  0.0000000E+00 -0.1870651E-03
 -0.3669499E-02  0.0000000E+00 -0.5050505E-02  0.3615046E-06  0.0000000E+00 -0.1868132E-03
 -0.3353842E-02  0.0000000E+00 -0.5050505E-02  0.3489062E-06  0.0000000E+00 -0.1865693E-03
 -0.2978990E-02  0.0000000E+00 -0.5050505E-02  0.3348153E-06  0.0000000E+00 -0.1863346E-03
 -0.2347676E-02  0.0000000E+00 -0.5050505E-02  0.3192408E-06  0.0000000E+00 -0.1861100E-03
 -0.1716362E-02  0.0000000E+00 -0.5050505E-02  0.3021938E-06  0.0000000E+00 -0.1858966E-03
 -0.1025842E-02  0.0000000E+00 -0.5050505E-02  0.2836863E-06  0.0000000E+00 -0.1856953E-03
  0.2367855E-03  0.0000000E+00 -0.5050505E-02  0.2637299E-06  0.0000000E+00 -0.1855072E-03
  0.1499413E-02  0.0000000E+00 -0.5050505E-02  0.2423341E-06  0.0000000E+00 -0.1853333E-03
  0.2762042E-02  0.0000000E+00 -0.5050505E-02  0.2195064E-06  0.0000000E+00 -0.1851745E-03
 -0.5050505E-02  0.0000000E+00 -0.5050505E-02  0.1952519E-06  0.0000000E+00 -0.1850318E-03
 -0.5050505E-02  0.0000000E+00 -0.5050505E-02  0.1695753E-06  0.0000000E+00 -0.1849062E-03
 -0.5050505E-02  0.0000000E+00 -0.5050505E-02  0.1424836E-06  0.0000000E+00 -0.1847986E-03
 -0.5050505E-02  0.0000000E+00 -0.5050505E-02  0.1139915E-06  0.0000000E+00 -0.1847101E-03
 -0.5050505E-02  0.0000000E+00 -0.5050505E-02  0.8412794E-07  0.0000000E+00 -0.1846416E-03
 -0.5050505E-02  0.0000000E+00 -0.5050505E-02  0.5294606E-07  0.0000000E+00 -0.1845940E-03
 -0.5050505E-02  0.0000000E+00 -0.5050505E-02  0.2053365E-07  0.0000000E+00 -0.1845682E-03
 -0.5050504E-02  0.0000000E+00 -0.5050505E-02 -0.1297475E-07  0.0000000E+00 -0.1845650E-03
 -0.5050501E-02  0.0000000E+00 -0.5050505E-02 -0.4738645E-07  0.0000000E+00 -0.1845852E-03
 -0.5050495E-02  0.0000000E+00 -0.5050505E-02 -0.8244168E-07  0.0000000E+00 -0.1846293E-03
 -0.5050482E-02  0.0000000E+00 -0.5050505E-02 -0.1178094E-06  0.0000000E+00 -0.1846977E-03
 -0.5050449E-02  0.0000000E+00 -0.5050505E-02 -0.1530901E-06  0.0000000E+00 -0.1847904E-03
 -0.5050376E-02  0.0000000E+00 -0.5050505E-02 -0.1878272E-06  0.0000000E+00 -0.1849074E-03
 -0.5050299E-02  0.0000000E+00 -0.5050505E-02 -0.2215276E-06  0.0000000E+00 -0.1850480E-03
 -0.5050178E-02  0.0000000E+00 -0.5050505E-02 -0.2536900E-06  0.0000000E+00 -0.1852113E-03
 -0.5050018E-02  0.0000000E+00 -0.5050505E-02 -0.2838367E-06  0.0000000E+00 -0.1853962E-03
 -0.5049710E-02  0.0000000E+00 -0.5050505E-02 -0.3115450E-06  0.0000000E+00 -0.1856011E-03
 -0.5049253E-02  0.0000000E+00 -0.5050505E-02 -0.3364730E-06  0.0000000E+00 -0.1858242E-03
 -0.5048636E-02  0.0000000E+00 -0.5050505E-02 -0.3583765E-06  0.0000000E+00 -0.1860634E-03
 -0.5047442E-02  0.0000000E+00 -0.5050505E-02 -0.3771141E-06  0.0000000E+00 -0.1863165E-03
 -0.5045727E-02  0.0000000E+00 -0.5050505E-02 -0.3926433E-06  0.0000000E+00 -0.1865814E-03
 -0.5043261E-02  0.0000000E+00 -0.5050505E-02 -0.4050088E-06  0.0000000E+00 -0.1868558E-03
 -0.5038714E-02  0.0000000E+00 -0.5050505E-02 -0.4143256E-06  0.0000000E+00 -0.1871376E-03
 -0.5032318E-02  0.0000000E+00 -0.5050505E-02 -0.4207610E-06  0.0000000E+00 -0.1874247E-03
 -0.5022454E-02  0.0000000E+00 -0.5050505E-02 -0.4245177E-06  0.0000000E+00 -0.1877152E-03
 -0.5012589E-02  0.0000000E+00 -0.5050505E-02 -0.4258183E-06  0.0000000E+00 -0.1880074E-03
 -0.5002725E-02  0.0000000E+00 -0.5050505E-02 -0.4248949E-06  0.0000000E+00 -0.1882996E-03
 -0.4992860E-02  0.0000000E+00 -0.5050505E-02 -0.4219805E-06  0.0000000E+00 -0.1885903E-03
 -0.4976523E-02  0.0000000E+00 -0.5050505E-02 -0.4173060E-06  0.0000000E+00 -0.1888784E-03
 -0.4956794E-02  0.0000000E+00 -0.5050505E-02 -0.4110993E-06  0.0000000E+00 -0.1891626E-03
 -0.4937066E-02  0.0000000E+00 -0.5050505E-02 -0.4035889E-06  0.0000000E+00 -0.1894420E-03
 -0.4906239E-02  0.0000000E+00 -0.5050505E-02 -0.3950112E-06  0.0000000E+00 -0.1897158E-03
 -0.4866782E-02  0.0000000E+00 -0.5050505E-02 -0.3856213E-06  0.0000000E+00 -0.1899833E-03
 -0.4827325E-02  0.0000000E+00 -0.5050505E-02 -0.3757112E-06  0.0000000E+00 -0.1902441E-03
 -0.4769372E-02  0.0000000E+00 -0.5050505E-02 -0.3656359E-06  0.0000000E+00 -0.1904978E-03
 -0.4690458E-02  0.0000000E+00 -0.5050505E-02 -0.3558532E-06  0.0000000E+00 -0.1907445E-03
 -0.4611543E-02  0.0000000E+00 -0.5050505E-02 -0.3469872E-06  0.0000000E+00 -0.1909844E-03
 -0.4503035E-02  0.0000000E+00 -0.5050505E-02 -0.3399313E-06  0.0000000E+00 -0.1912182E-03
 -0.4345206E-02  0.0000000E+00 -0.5050505E-02 -0.3360227E-06  0.0000000E+00 -0.1914475E-03
 -0.4187378E-02  0.0000000E+00 -0.5050505E-02 -0.3373511E-06  0.0000000E+00 -0.1916745E-03
 -0.3985156E-02  0.0000000E+00 -0.5050505E-02 -0.3473266E-06  0.0000000E+00 -0.1919029E-03
 -0.3669499E-02  0.0000000E+00 -0.5050505E-02 -0.3717799E-06  0.0000000E+00 -0.1921386E-03
 -0.3353842E-02  0.0000000E+00 -0.5050505E-02 -0.4211986E-06  0.0000000E+00 -0.1923910E-03
 -0.2978990E-02  0.0000000E+00 -0.5050505E-02 -0.5155374E-06  0.0000000E+00 -0.1926740E-03
 -0.2347676E-02  0.0000000E+00 -0.5050505E-02 -0.6951848E-06  0.0000000E+00 -0.1930078E-03
 -0.1716362E-02  0.0000000E+00 -0.5050505E-02 -0.1047506E-05  0.0000000E+00 -0.1934115E-03
 -0.1025842E-02  0.0000000E+00 -0.5050505E-02 -0.1774927E-05  0.0000000E+00 -0.1938594E-03
  0.2367855E-03  0.0000000E+00 -0.5050505E-02 -0.3378974E-05  0.0000000E+00 -0.1940515E-03
  0.1499413E-02  0.0000000E+00 -0.5050505E-02 -0.7178902E-05  0.0000000E+00 -0.1923279E-03
  0.5287294E-02  0.0000000E+00 -0.5050505E-02 -0.1680957E-04  0.0000000E+00 -0.1805940E-03
 -0.5050505E-02  0.0000000E+00 -0.5050505E-02  0.1517728E-07  0.0000000E+00 -0.1943533E-03
 -0.5050505E-02  0.0000000E+00 -0.5050505E-02  0.4551033E-07  0.0000000E+00 -0.1943407E-03
 -0.5050505E-02  0.0000000E+00 -0.5050505E-02  0.7577862E-07  0.0000000E+00 -0.1943155E-03
 -0.5050505E-02  0.0000000E+00 -0.5050505E-02  0.1059387E-06  0.0000000E+00 -0.1942778E-03
 -0.5050505E-02  0.0000000E+00 -0.5050505E-02  0.1359466E-06  0.0000000E+00 -0.1942277E-03
 -0.5050505E-02  0.0000000E+00 -0.5050505E-02  0.1657579E-06  0.0000000E+00 -0.1941651E-03
 -0.5050504E-02  0.0000000E+00 -0.5050505E-02  0.1953270E-06  0.0000000E+00 -0.1940902E-03
 -0.5050501E-02  0.0000000E+00 -0.5050505E-02  0.2246076E-06  0.0000000E+00 -0.1940031E-03
 -0.5050495E-02  0.0000000E+00 -0.5050505E-02  0.2535521E-06  0.0000000E+00 -0.1939039E-03
 -0.5050482E-02  0.0000000E+00 -0.5050505E-02  0.2821112E-06  0.0000000E+00 -0.1937928E-03
 -0.5050449E-02  0.0000000E+00 -0.5050505E-02  0.3102342E-06  0.0000000E+00 -0.1936699E-03
 -0.5050376E-02  0.0000000E+00 -0.5050505E-02  0.3378685E-06  0.0000000E+00 -0.1935354E-03
 -0.5050299E-02  0.0000000E+00 -0.5050505E-02  0.3649594E-06  0.0000000E+00 -0.1933896E-03
 -0.5050178E-02  0.0000000E+00 -0.5050505E-02  0.3914499E-06  0.0000000E+00 -0.1932326E-03
 -0.5050018E-02  0.0000000E+00 -0.5050505E-02  0.4172808E-06  0.0000000E+00 -0.1930648E-03
 -0.5049710E-02  0.0000000E+00 -0.5050505E-02  0.4423899E-06  0.0000000E+00 -0.1928863E-03
 -0.5049253E-02  0.0000000E+00 -0.5050505E-02  0.4667124E-06  0.0000000E+00 -0.1926976E-03
 -0.5048636E-02  0.0000000E+00 -0.5050505E-02  0.4901806E-06  0.0000000E+00 -0.1924990E-03
 -0.5047442E-02  0.0000000E+00 -0.5050505E-02  0.5127235E-06  0.0000000E+00 -0.1922907E-03
 -0.5045727E-02  0.0000000E+00 -0.5050505E-02  0.5342671E-06  0.0000000E+00 -0.1920733E-03
 -0.5043261E-02  0.0000000E+00 -0.5050505E-02  0.5547342E-06  0.0000000E+00 -0.1918471E-03
 -0.5038714E-02  0.0000000E+00 -0.5050505E-02  0.5740445E-06  0.0000000E+00 -0.1916127E-03
 -0.5032318E-02  0.0000000E+00 -0.5050505E-02  0.5921145E-06  0.0000000E+00 -0.1913704E-03
 -0.5022454E-02  0.0000000E+00 -0.5050505E-02  0.6088579E-06  0.0000000E+00 -0.1911208E-03
 -0.5012589E-02  0.0000000E+00 -0.5050505E-02  0.6241858E-06  0.0000000E+00 -0.1908645E-03
 -0.5002725E-02  0.0000000E+00 -0.5050505E-02  0.6380071E-06  0.0000000E+00 -0.1906021E-03
 -0.4992860E-02  0.0000000E+00 -0.5050505E-02  0.6502290E-06  0.0000000E+00 -0.1903343E-03
 -0.4976523E-02  0.0000000E+00 -0.5050505E-02  0.6607579E-06  0.0000000E+00 -0.1900616E-03
 -0.4956794E-02  0.0000000E+00 -0.5050505E-02  0.6694998E-06  0.0000000E+00 -0.1897849E-03
 -0.4937066E-02  0.0000000E+00 -0.5050505E-02  0.6763616E-06  0.0000000E+00 -0.1895049E-03
 -0.4906239E-02  0.0000000E+00 -0.5050505E-02  0.6812519E-06  0.0000000E+00 -0.1892223E-03
 -0.4866782E-02  0.0000000E+00 -0.5050505E-02  0.6840828E-06  0.0000000E+00 -0.1889381E-03
 -0.4827325E-02  0.0000000E+00 -0.5050505E-02  0.6847704E-06  0.0000000E+00 -0.1886531E-03
 -0.4769372E-02  0.0000000E+00 -0.5050505E-02  0.6832368E-06  0.0000000E+00 -0.1883681E-03
 -0.4690458E-02  0.0000000E+00 -0.5050505E-02  0.6794114E-06  0.0000000E+00 -0.1880842E-03
 -0.4611543E-02  0.0000000E+00 -0.5050505E-02  0.6732318E-06  0.0000000E+00 -0.1878024E-03
 -0.4503035E-02  0.0000000E+00 -0.5050505E-02  0.6646455E-06  0.0000000E+00 -0.1875235E-03
 -0.4345206E-02  0.0000000E+00 -0.5050505E-02  0.6536106E-06  0.0000000E+00 -0.1872487E-03
 -0.4187378E-02  0.0000000E+00 -0.5050505E-02  0.6400962E-06  0.0000000E+00 -0.1869789E-03
 -0.3985156E-02  0.0000000E+00 -0.5050505E-02  0.6240826E-06  0.0000000E+00 -0.1867151E-03
 -0.3669499E-02  0.0000000E+00 -0.5050505E-02  0.6055613E-06  0.0000000E+00 -0.1864585E-03
 -0.3353842E-02  0.0000000E+00 -0.5050505E-02  0.5845336E-06  0.0000000E+00 -0.1862101E-03
 -0.2978990E-02  0.0000000E+00 -0.5050505E-02  0.5610092E-06  0.0000000E+00 -0.1859709E-03
 -0.2347676E-02  0.0000000E+00 -0.5050505E-02  0.5350045E-06  0.0000000E+00 -0.1857419E-03
 -0.1716362E-02  0.0000000E+00 -0.5050505E-02  0.5065396E-06  0.0000000E+00 -0.1855242E-03
 -0.1025842E-02  0.0000000E+00 -0.5050505E-02  0.4756362E-06  0.0000000E+00 -0.1853188E-03
  0.2367855E-03  0.0000000E+00 -0.5050505E-02  0.4423144E-06  0.0000000E+00 -0.1851266E-03
  0.1499413E-02  0.0000000E+00 -0.5050505E-02  0.4065908E-06  0.0000000E+00 -0.1849487E-03
  0.2762042E-02  0.0000000E+00 -0.5050505E-02  0.3684770E-06  0.0000000E+00 -0.1847861E-03
 -0.5050505E-02  0.0000000E+00 -0.5050505E-02  0.3279795E-06  0.0000000E+00 -0.1846398E-03
 -0.5050505E-02  0.0000000E+00 -0.5050505E-02  0.2851020E-06  0.0000000E+00 -0.1845106E-03
 -0.5050505E-02  0.0000000E+00 -0.5050505E-02  0.2398501E-06  0.0000000E+00 -0.1843997E-03
 -0.5050505E-02  0.0000000E+00 -0.5050505E-02  0.1922395E-06  0.0000000E+00 -0.1843081E-03
 -0.5050505E-02  0.0000000E+00 -0.5050505E-02  0.1423080E-06  0.0000000E+00 -0.1842366E-03
 -0.5050505E-02  0.0000000E+00 -0.5050505E-02  0.9013111E-07  0.0000000E+00 -0.1841864E-03
 -0.5050505E-02  0.0000000E+00 -0.5050505E-02  0.3584184E-07  0.0000000E+00 -0.1841583E-03
 -0.5050504E-02  0.0000000E+00 -0.5050505E-02 -0.2034819E-07  0.0000000E+00 -0.1841534E-03
 -0.5050501E-02  0.0000000E+00 -0.5050505E-02 -0.7812727E-07  0.0000000E+00 -0.1841723E-03
 -0.5050495E-02  0.0000000E+00 -0.5050505E-02 -0.1370661E-06  0.0000000E+00 -0.1842158E-03
 -0.5050482E-02  0.0000000E+00 -0.5050505E-02 -0.1966081E-06  0.0000000E+00 -0.1842843E-03
 -0.5050449E-02  0.0000000E+00 -0.5050505E-02 -0.2560725E-06  0.0000000E+00 -0.1843781E-03
 -0.5050376E-02  0.0000000E+00 -0.5050505E-02 -0.3146727E-06  0.0000000E+00 -0.1844970E-03
 -0.5050299E-02  0.0000000E+00 -0.5050505E-02 -0.3715529E-06  0.0000000E+00 -0.1846405E-03
 -0.5050178E-02  0.0000000E+00 -0.5050505E-02 -0.4258383E-06  0.0000000E+00 -0.1848078E-03
 -0.5050018E-02  0.0000000E+00 -0.5050505E-02 -0.4766948E-06  0.0000000E+00 -0.1849974E-03
 -0.5049710E-02  0.0000000E+00 -0.5050505E-02 -0.5233866E-06  0.0000000E+00 -0.1852078E-03
 -0.5049253E-02  0.0000000E+00 -0.5050505E-02 -0.5653229E-06  0.0000000E+00 -0.1854369E-03
 -0.5048636E-02  0.0000000E+00 -0.5050505E-02 -0.6020882E-06  0.0000000E+00 -0.1856827E-03
 -0.5047442E-02  0.0000000E+00 -0.5050505E-02 -0.6334501E-06  0.0000000E+00 -0.1859427E-03
 -0.5045727E-02  0.0000000E+00 -0.5050505E-02 -0.6593506E-06  0.0000000E+00 -0.1862146E-03
 -0.5043261E-02  0.0000000E+00 -0.5050505E-02 -0.6798824E-06  0.0000000E+00 -0.1864960E-03
 -0.5038714E-02  0.0000000E+00 -0.5050505E-02 -0.6952580E-06  0.0000000E+00 -0.1867846E-03
 -0.5032318E-02  0.0000000E+00 -0.5050505E-02 -0.7057767E-06  0.0000000E+00 -0.1870783E-03
 -0.5022454E-02  0.0000000E+00 -0.5050505E-02 -0.7117939E-06  0.0000000E+00 -0.1873752E-03
 -0.5012589E-02  0.0000000E+00 -0.5050505E-02 -0.7136951E-06  0.0000000E+00 -0.1876734E-03
 -0.5002725E-02  0.0000000E+00 -0.5050505E-02 -0.7118769E-06  0.0000000E+00 -0.1879713E-03
 -0.4992860E-02  0.0000000E+00 -0.5050505E-02 -0.7067337E-06  0.0000000E+00 -0.1882675E-03
 -0.4976523E-02  0.0000000E+00 -0.5050505E-02 -0.6986519E-06  0.0000000E+00 -0.1885605E-03
 -0.4956794E-02  0.0000000E+00 -0.5050505E-02 -0.6880092E-06  0.0000000E+00 -0.1888494E-03
 -0.4937066E-02  0.0000000E+00 -0.5050505E-02 -0.6751795E-06  0.0000000E+00 -0.1891330E-03
 -0.4906239E-02  0.0000000E+00 -0.5050505E-02 -0.6605445E-06  0.0000000E+00 -0.1894107E-03
 -0.4866782E-02  0.0000000E+00 -0.5050505E-02 -0.6445111E-06  0.0000000E+00 -0.1896816E-03
 -0.4827325E-02  0.0000000E+00 -0.5050505E-02 -0.6275371E-06  0.0000000E+00 -0.1899452E-03
 -0.4769372E-02  0.0000000E+00 -0.5050505E-02 -0.6101696E-06  0.0000000E+00 -0.1902011E-03
 -0.4690458E-02  0.0000000E+00 -0.5050505E-02 -0.5931016E-06  0.0000000E+00 -0.1904491E-03
 -0.4611543E-02  0.0000000E+00 -0.5050505E-02 -0.5772588E-06  0.0000000E+00 -0.1906893E-03
 -0.4503035E-02  0.0000000E+00 -0.5050505E-02 -0.5639355E-06  0.0000000E+00 -0.1909219E-03
 -0.4345206E-02  0.0000000E+00 -0.5050505E-02 -0.5550161E-06  0.0000000E+00 -0.1911476E-03
 -0.4187378E-02  0.0000000E+00 -0.5050505E-02 -0.5533469E-06  0.0000000E+00 -0.1913674E-03
 -0.3985156E-02  0.0000000E+00 -0.5050505E-02 -0.5633762E-06  0.0000000E+00 -0.1915828E-03
 -0.3669499E-02  0.0000000E+00 -0.5050505E-02 -0.5922925E-06  0.0000000E+00 -0.1917956E-03
 -0.3353842E-02  0.0000000E+00 -0.5050505E-02 -0.6520847E-06  0.0000000E+00 -0.1920071E-03
 -0.2978990E-02  0.0000000E+00 -0.5050505E-02 -0.7633154E-06  0.0000000E+00 -0.1922163E-03
 -0.2347676E-02  0.0000000E+00 -0.5050505E-02 -0.9619202E-06  0.0000000E+00 -0.1924122E-03
 -0.1716362E-02  0.0000000E+00 -0.5050505E-02 -0.1310507E-05  0.0000000E+00 -0.1925553E-03
 -0.1025842E-02  0.0000000E+00 -0.5050505E-02 -0.1911876E-05  0.0000000E+00 -0.1925245E-03
  0.2367855E-03  0.0000000E+00 -0.5050505E-02 -0.2896828E-05  0.0000000E+00 -0.1919943E-03
  0.1499413E-02  0.0000000E+00 -0.5050505E-02 -0.4226814E-05  0.0000000E+00 -0.1902380E-03
  0.5287294E-02  0.0000000E+00 -0.5050505E-02 -0.4535866E-05  0.0000000E+00 -0.1865059E-03
 -0.5050505E-02  0.0000000E+00 -0.5050505E-02  0.2134126E-07  0.0000000E+00 -0.1939947E-03
 -0.5050505E-02  0.0000000E+00 -0.5050505E-02  0.6399378E-07  0.0000000E+00 -0.1939819E-03
 -0.5050505E-02  0.0000000E+00 -0.5050505E-02  0.1065560E-06  0.0000000E+00 -0.1939563E-03
 -0.5050505E-02  0.0000000E+00 -0.5050505E-02  0.1489673E-06  0.0000000E+00 -0.1939180E-03
 -0.5050505E-02  0.0000000E+00 -0.5050505E-02  0.1911665E-06  0.0000000E+00 -0.1938670E-03
 -0.5050505E-02  0.0000000E+00 -0.5050505E-02  0.2330914E-06  0.0000000E+00 -0.1938034E-03
 -0.5050504E-02  0.0000000E+00 -0.5050505E-02  0.2746788E-06  0.0000000E+00 -0.1937272E-03
 -0.5050501E-02  0.0000000E+00 -0.5050505E-02  0.3158637E-06  0.0000000E+00 -0.1936387E-03
 -0.5050495E-02  0.0000000E+00 -0.5050505E-02  0.3565797E-06  0.0000000E+00 -0.1935378E-03
 -0.5050482E-02  0.0000000E+00 -0.5050505E-02  0.3967582E-06  0.0000000E+00 -0.1934248E-03
 -0.5050449E-02  0.0000000E+00 -0.5050505E-02  0.4363284E-06  0.0000000E+00 -0.1932998E-03
 -0.5050376E-02  0.0000000E+00 -0.5050505E-02  0.4752167E-06  0.0000000E+00 -0.1931630E-03
 -0.5050299E-02  0.0000000E+00 -0.5050505E-02  0.5133468E-06  0.0000000E+00 -0.1930147E-03
 -0.5050178E-02  0.0000000E+00 -0.5050505E-02  0.5506390E-06  0.0000000E+00 -0.1928550E-03
 -0.5050018E-02  0.0000000E+00 -0.5050505E-02  0.5870104E-06  0.0000000E+00 -0.1926842E-03
 -0.5049710E-02  0.0000000E+00 -0.5050505E-02  0.6223741E-06  0.0000000E+00 -0.1925025E-03
 -0.5049253E-02  0.0000000E+00 -0.5050505E-02  0.6566393E-06  0.0000000E+00 -0.1923104E-03
 -0.5048636E-02  0.0000000E+00 -0.5050505E-02  0.6897111E-06  0.0000000E+00 -0.1921081E-03
 -0.5047442E-02  0.0000000E+00 -0.5050505E-02  0.7214900E-06  0.0000000E+00 -0.1918961E-03
 -0.5045727E-02  0.0000000E+00 -0.5050505E-02  0.7518721E-06  0.0000000E+00 -0.1916746E-03
 -0.5043261E-02  0.0000000E+00 -0.5050505E-02  0.7807489E-06  0.0000000E+00 -0.1914441E-03
 -0.5038714E-02  0.0000000E+00 -0.5050505E-02  0.8080073E-06  0.0000000E+00 -0.1912051E-03
 -0.5032318E-02  0.0000000E+00 -0.5050505E-02  0.8335298E-06  0.0000000E+00 -0.1909580E-03
 -0.5022454E-02  0.0000000E+00 -0.5050505E-02  0.8571947E-06  0.0000000E+00 -0.1907035E-03
 -0.5012589E-02  0.0000000E+00 -0.5050505E-02  0.8788765E-06  0.0000000E+00 -0.1904420E-03
 -0.5002725E-02  0.0000000E+00 -0.5050505E-02  0.8984463E-06  0.0000000E+00 -0.1901742E-03
 -0.4992860E-02  0.0000000E+00 -0.5050505E-02  0.9157727E-06  0.0000000E+00 -0.1899007E-03
 -0.4976523E-02  0.0000000E+00 -0.5050505E-02  0.9307227E-06  0.0000000E+00 -0.1896223E-03
 -0.4956794E-02  0.0000000E+00 -0.5050505E-02  0.9431629E-06  0.0000000E+00 -0.1893395E-03
 -0.4937066E-02  0.0000000E+00 -0.5050505E-02  0.9529606E-06  0.0000000E+00 -0.1890533E-03