title = "dataset feddes"
variables = "x", "y", "z", "vx", "vy", "vz"
zone t = "velocities, solution time =  9.000E+00 days        " i =   99, j =   99, k =    1,  f=point
 -0.5050505E-02  0.0000000E+00 -0.5050505E-02 -0.2176036E-11  0.0000000E+00 -0.6914389E-03
 -0.5050505E-02  0.0000000E+00 -0.5050505E-02 -0.7828735E-11  0.0000000E+00 -0.6914389E-03
 -0.5050505E-02  0.0000000E+00 -0.5050505E-02 -0.1364264E-10  0.0000000E+00 -0.6914389E-03
 -0.5050505E-02  0.0000000E+00 -0.5050505E-02 -0.1877384E-10  0.0000000E+00 -0.6914390E-03
 -0.5050505E-02  0.0000000E+00 -0.5050505E-02 -0.2472355E-10  0.0000000E+00 -0.6914390E-03
 -0.5050505E-02  0.0000000E+00 -0.5050505E-02 -0.3117677E-10  0.0000000E+00 -0.6914391E-03
 -0.5050504E-02  0.0000000E+00 -0.5050505E-02 -0.3762556E-10  0.0000000E+00 -0.6914391E-03
 -0.5050501E-02  0.0000000E+00 -0.5050505E-02 -0.4393939E-10  0.0000000E+00 -0.6914392E-03
 -0.5050495E-02  0.0000000E+00 -0.5050505E-02 -0.5020558E-10  0.0000000E+00 -0.6914393E-03
 -0.5050482E-02  0.0000000E+00 -0.5050505E-02 -0.5652755E-10  0.0000000E+00 -0.6914395E-03
 -0.5050449E-02  0.0000000E+00 -0.5050505E-02 -0.6301390E-10  0.0000000E+00 -0.6914396E-03
 -0.5050376E-02  0.0000000E+00 -0.5050505E-02 -0.6972855E-10  0.0000000E+00 -0.6914397E-03
 -0.5050299E-02  0.0000000E+00 -0.5050505E-02 -0.7673140E-10  0.0000000E+00 -0.6914399E-03
 -0.5050178E-02  0.0000000E+00 -0.5050505E-02 -0.8406448E-10  0.0000000E+00 -0.6914401E-03
 -0.5050018E-02  0.0000000E+00 -0.5050505E-02 -0.9176935E-10  0.0000000E+00 -0.6914402E-03
 -0.5049710E-02  0.0000000E+00 -0.5050505E-02 -0.9988823E-10  0.0000000E+00 -0.6914405E-03
 -0.5049253E-02  0.0000000E+00 -0.5050505E-02 -0.1084609E-09  0.0000000E+00 -0.6914407E-03
 -0.5048636E-02  0.0000000E+00 -0.5050505E-02 -0.1175314E-09  0.0000000E+00 -0.6914409E-03
 -0.5047442E-02  0.0000000E+00 -0.5050505E-02 -0.1271433E-09  0.0000000E+00 -0.6914412E-03
 -0.5045727E-02  0.0000000E+00 -0.5050505E-02 -0.1373435E-09  0.0000000E+00 -0.6914415E-03
 -0.5043261E-02  0.0000000E+00 -0.5050505E-02 -0.1481806E-09  0.0000000E+00 -0.6914418E-03
 -0.5038714E-02  0.0000000E+00 -0.5050505E-02 -0.1597060E-09  0.0000000E+00 -0.6914421E-03
 -0.5032318E-02  0.0000000E+00 -0.5050505E-02 -0.1719740E-09  0.0000000E+00 -0.6914425E-03
 -0.5022454E-02  0.0000000E+00 -0.5050505E-02 -0.1850421E-09  0.0000000E+00 -0.6914429E-03
 -0.5012589E-02  0.0000000E+00 -0.5050505E-02 -0.1989714E-09  0.0000000E+00 -0.6914433E-03
 -0.5002725E-02  0.0000000E+00 -0.5050505E-02 -0.2138267E-09  0.0000000E+00 -0.6914437E-03
 -0.4992860E-02  0.0000000E+00 -0.5050505E-02 -0.2296776E-09  0.0000000E+00 -0.6914442E-03
 -0.4976523E-02  0.0000000E+00 -0.5050505E-02 -0.2465983E-09  0.0000000E+00 -0.6914447E-03
 -0.4956794E-02  0.0000000E+00 -0.5050505E-02 -0.2646682E-09  0.0000000E+00 -0.6914453E-03
 -0.4937066E-02  0.0000000E+00 -0.5050505E-02 -0.2839726E-09  0.0000000E+00 -0.6914459E-03
 -0.4906239E-02  0.0000000E+00 -0.5050505E-02 -0.3046029E-09  0.0000000E+00 -0.6914465E-03
 -0.4866782E-02  0.0000000E+00 -0.5050505E-02 -0.3266578E-09  0.0000000E+00 -0.6914472E-03
 -0.4827325E-02  0.0000000E+00 -0.5050505E-02 -0.3502432E-09  0.0000000E+00 -0.6914479E-03
 -0.4769372E-02  0.0000000E+00 -0.5050505E-02 -0.3754735E-09  0.0000000E+00 -0.6914487E-03
 -0.4690458E-02  0.0000000E+00 -0.5050505E-02 -0.4024721E-09  0.0000000E+00 -0.6914495E-03
 -0.4611543E-02  0.0000000E+00 -0.5050505E-02 -0.4313726E-09  0.0000000E+00 -0.6914504E-03
 -0.4503035E-02  0.0000000E+00 -0.5050505E-02 -0.4623196E-09  0.0000000E+00 -0.6914514E-03
 -0.4345206E-02  0.0000000E+00 -0.5050505E-02 -0.4954701E-09  0.0000000E+00 -0.6914524E-03
 -0.4187378E-02  0.0000000E+00 -0.5050505E-02 -0.5309944E-09  0.0000000E+00 -0.6914535E-03
 -0.3985156E-02  0.0000000E+00 -0.5050505E-02 -0.5690782E-09  0.0000000E+00 -0.6914547E-03
 -0.3669499E-02  0.0000000E+00 -0.5050505E-02 -0.6099237E-09  0.0000000E+00 -0.6914560E-03
 -0.3353842E-02  0.0000000E+00 -0.5050505E-02 -0.6537519E-09  0.0000000E+00 -0.6914574E-03
 -0.2978990E-02  0.0000000E+00 -0.5050505E-02 -0.7008047E-09  0.0000000E+00 -0.6914588E-03
 -0.2347676E-02  0.0000000E+00 -0.5050505E-02 -0.7513473E-09  0.0000000E+00 -0.6914604E-03
 -0.1716362E-02  0.0000000E+00 -0.5050505E-02 -0.8056712E-09  0.0000000E+00 -0.6914621E-03
 -0.1025842E-02  0.0000000E+00 -0.5050505E-02 -0.8640977E-09  0.0000000E+00 -0.6914639E-03
  0.2367855E-03  0.0000000E+00 -0.5050505E-02 -0.9269813E-09  0.0000000E+00 -0.6914658E-03
  0.1499413E-02  0.0000000E+00 -0.5050505E-02 -0.9947143E-09  0.0000000E+00 -0.6914679E-03
  0.2762042E-02  0.0000000E+00 -0.5050505E-02 -0.1067732E-08  0.0000000E+00 -0.6914701E-03
 -0.5050505E-02  0.0000000E+00 -0.5050505E-02 -0.1146520E-08  0.0000000E+00 -0.6914725E-03
 -0.5050505E-02  0.0000000E+00 -0.5050505E-02 -0.1231618E-08  0.0000000E+00 -0.6914751E-03
 -0.5050505E-02  0.0000000E+00 -0.5050505E-02 -0.1323630E-08  0.0000000E+00 -0.6914779E-03
 -0.5050505E-02  0.0000000E+00 -0.5050505E-02 -0.1423236E-08  0.0000000E+00 -0.6914808E-03
 -0.5050505E-02  0.0000000E+00 -0.5050505E-02 -0.1531200E-08  0.0000000E+00 -0.6914840E-03
 -0.5050505E-02  0.0000000E+00 -0.5050505E-02 -0.1648385E-08  0.0000000E+00 -0.6914875E-03
 -0.5050505E-02  0.0000000E+00 -0.5050505E-02 -0.1775768E-08  0.0000000E+00 -0.6914912E-03
 -0.5050504E-02  0.0000000E+00 -0.5050505E-02 -0.1914462E-08  0.0000000E+00 -0.6914951E-03
 -0.5050501E-02  0.0000000E+00 -0.5050505E-02 -0.2065735E-08  0.0000000E+00 -0.6914994E-03
 -0.5050495E-02  0.0000000E+00 -0.5050505E-02 -0.2231041E-08  0.0000000E+00 -0.6915041E-03
 -0.5050482E-02  0.0000000E+00 -0.5050505E-02 -0.2412050E-08  0.0000000E+00 -0.6915091E-03
 -0.5050449E-02  0.0000000E+00 -0.5050505E-02 -0.2610692E-08  0.0000000E+00 -0.6915145E-03
 -0.5050376E-02  0.0000000E+00 -0.5050505E-02 -0.2829203E-08  0.0000000E+00 -0.6915204E-03
 -0.5050299E-02  0.0000000E+00 -0.5050505E-02 -0.3070187E-08  0.0000000E+00 -0.6915268E-03
 -0.5050178E-02  0.0000000E+00 -0.5050505E-02 -0.3336689E-08  0.0000000E+00 -0.6915337E-03
 -0.5050018E-02  0.0000000E+00 -0.5050505E-02 -0.3632287E-08  0.0000000E+00 -0.6915412E-03
 -0.5049710E-02  0.0000000E+00 -0.5050505E-02 -0.3961208E-08  0.0000000E+00 -0.6915494E-03
 -0.5049253E-02  0.0000000E+00 -0.5050505E-02 -0.4328467E-08  0.0000000E+00 -0.6915584E-03
 -0.5048636E-02  0.0000000E+00 -0.5050505E-02 -0.4740051E-08  0.0000000E+00 -0.6915682E-03
 -0.5047442E-02  0.0000000E+00 -0.5050505E-02 -0.5203146E-08  0.0000000E+00 -0.6915789E-03
 -0.5045727E-02  0.0000000E+00 -0.5050505E-02 -0.5726432E-08  0.0000000E+00 -0.6915908E-03
 -0.5043261E-02  0.0000000E+00 -0.5050505E-02 -0.6320454E-08  0.0000000E+00 -0.6916038E-03
 -0.5038714E-02  0.0000000E+00 -0.5050505E-02 -0.6998123E-08  0.0000000E+00 -0.6916182E-03
 -0.5032318E-02  0.0000000E+00 -0.5050505E-02 -0.7775348E-08  0.0000000E+00 -0.6916341E-03
 -0.5022454E-02  0.0000000E+00 -0.5050505E-02 -0.8671895E-08  0.0000000E+00 -0.6916519E-03
 -0.5012589E-02  0.0000000E+00 -0.5050505E-02 -0.9712527E-08  0.0000000E+00 -0.6916718E-03
 -0.5002725E-02  0.0000000E+00 -0.5050505E-02 -0.1092854E-07  0.0000000E+00 -0.6916941E-03
 -0.4992860E-02  0.0000000E+00 -0.5050505E-02 -0.1235988E-07  0.0000000E+00 -0.6917192E-03
 -0.4976523E-02  0.0000000E+00 -0.5050505E-02 -0.1405807E-07  0.0000000E+00 -0.6917478E-03
 -0.4956794E-02  0.0000000E+00 -0.5050505E-02 -0.1609033E-07  0.0000000E+00 -0.6917804E-03
 -0.4937066E-02  0.0000000E+00 -0.5050505E-02 -0.1854547E-07  0.0000000E+00 -0.6918178E-03
 -0.4906239E-02  0.0000000E+00 -0.5050505E-02 -0.2154244E-07  0.0000000E+00 -0.6918611E-03
 -0.4866782E-02  0.0000000E+00 -0.5050505E-02 -0.2524298E-07  0.0000000E+00 -0.6919117E-03
 -0.4827325E-02  0.0000000E+00 -0.5050505E-02 -0.2987080E-07  0.0000000E+00 -0.6919712E-03
 -0.4769372E-02  0.0000000E+00 -0.5050505E-02 -0.3574111E-07  0.0000000E+00 -0.6920421E-03
 -0.4690458E-02  0.0000000E+00 -0.5050505E-02 -0.4330753E-07  0.0000000E+00 -0.6921275E-03
 -0.4611543E-02  0.0000000E+00 -0.5050505E-02 -0.5323859E-07  0.0000000E+00 -0.6922319E-03
 -0.4503035E-02  0.0000000E+00 -0.5050505E-02 -0.6654655E-07  0.0000000E+00 -0.6923613E-03
 -0.4345206E-02  0.0000000E+00 -0.5050505E-02 -0.8481257E-07  0.0000000E+00 -0.6925249E-03
 -0.4187378E-02  0.0000000E+00 -0.5050505E-02 -0.1105971E-06  0.0000000E+00 -0.6927361E-03
 -0.3985156E-02  0.0000000E+00 -0.5050505E-02 -0.1482255E-06  0.0000000E+00 -0.6930158E-03
 -0.3669499E-02  0.0000000E+00 -0.5050505E-02 -0.2053780E-06  0.0000000E+00 -0.6933979E-03
 -0.3353842E-02  0.0000000E+00 -0.5050505E-02 -0.2965305E-06  0.0000000E+00 -0.6939404E-03
 -0.2978990E-02  0.0000000E+00 -0.5050505E-02 -0.4509842E-06  0.0000000E+00 -0.6947484E-03
 -0.2347676E-02  0.0000000E+00 -0.5050505E-02 -0.7333012E-06  0.0000000E+00 -0.6960285E-03
 -0.1716362E-02  0.0000000E+00 -0.5050505E-02 -0.1300490E-05  0.0000000E+00 -0.6982272E-03
 -0.1025842E-02  0.0000000E+00 -0.5050505E-02 -0.2578674E-05  0.0000000E+00 -0.7024220E-03
  0.2367855E-03  0.0000000E+00 -0.5050505E-02 -0.5864608E-05  0.0000000E+00 -0.7115566E-03
  0.1499413E-02  0.0000000E+00 -0.5050505E-02 -0.1556518E-04  0.0000000E+00 -0.7347656E-03
  0.5287294E-02  0.0000000E+00 -0.5050505E-02 -0.2575966E-03  0.0000000E+00 -0.5850189E-03
 -0.5050505E-02  0.0000000E+00 -0.5050505E-02 -0.6600090E-11  0.0000000E+00 -0.6902194E-03
 -0.5050505E-02  0.0000000E+00 -0.5050505E-02 -0.2359837E-10  0.0000000E+00 -0.6902194E-03
 -0.5050505E-02  0.0000000E+00 -0.5050505E-02 -0.4099544E-10  0.0000000E+00 -0.6902194E-03
 -0.5050505E-02  0.0000000E+00 -0.5050505E-02 -0.5648640E-10  0.0000000E+00 -0.6902194E-03
 -0.5050505E-02  0.0000000E+00 -0.5050505E-02 -0.7428384E-10  0.0000000E+00 -0.6902195E-03
 -0.5050505E-02  0.0000000E+00 -0.5050505E-02 -0.9355074E-10  0.0000000E+00 -0.6902195E-03
 -0.5050504E-02  0.0000000E+00 -0.5050505E-02 -0.1128701E-09  0.0000000E+00 -0.6902196E-03
 -0.5050501E-02  0.0000000E+00 -0.5050505E-02 -0.1318249E-09  0.0000000E+00 -0.6902197E-03
 -0.5050495E-02  0.0000000E+00 -0.5050505E-02 -0.1506505E-09  0.0000000E+00 -0.6902198E-03
 -0.5050482E-02  0.0000000E+00 -0.5050505E-02 -0.1696419E-09  0.0000000E+00 -0.6902199E-03
 -0.5050449E-02  0.0000000E+00 -0.5050505E-02 -0.1891167E-09  0.0000000E+00 -0.6902200E-03
 -0.5050376E-02  0.0000000E+00 -0.5050505E-02 -0.2092698E-09  0.0000000E+00 -0.6902202E-03
 -0.5050299E-02  0.0000000E+00 -0.5050505E-02 -0.2302810E-09  0.0000000E+00 -0.6902203E-03
 -0.5050178E-02  0.0000000E+00 -0.5050505E-02 -0.2522823E-09  0.0000000E+00 -0.6902205E-03
 -0.5050018E-02  0.0000000E+00 -0.5050505E-02 -0.2753977E-09  0.0000000E+00 -0.6902207E-03
 -0.5049710E-02  0.0000000E+00 -0.5050505E-02 -0.2997543E-09  0.0000000E+00 -0.6902209E-03
 -0.5049253E-02  0.0000000E+00 -0.5050505E-02 -0.3254721E-09  0.0000000E+00 -0.6902211E-03
 -0.5048636E-02  0.0000000E+00 -0.5050505E-02 -0.3526820E-09  0.0000000E+00 -0.6902214E-03
 -0.5047442E-02  0.0000000E+00 -0.5050505E-02 -0.3815157E-09  0.0000000E+00 -0.6902216E-03
 -0.5045727E-02  0.0000000E+00 -0.5050505E-02 -0.4121128E-09  0.0000000E+00 -0.6902219E-03
 -0.5043261E-02  0.0000000E+00 -0.5050505E-02 -0.4446196E-09  0.0000000E+00 -0.6902222E-03
 -0.5038714E-02  0.0000000E+00 -0.5050505E-02 -0.4791898E-09  0.0000000E+00 -0.6902226E-03
 -0.5032318E-02  0.0000000E+00 -0.5050505E-02 -0.5159860E-09  0.0000000E+00 -0.6902229E-03
 -0.5022454E-02  0.0000000E+00 -0.5050505E-02 -0.5551803E-09  0.0000000E+00 -0.6902233E-03
 -0.5012589E-02  0.0000000E+00 -0.5050505E-02 -0.5969558E-09  0.0000000E+00 -0.6902237E-03
 -0.5002725E-02  0.0000000E+00 -0.5050505E-02 -0.6415070E-09  0.0000000E+00 -0.6902242E-03
 -0.4992860E-02  0.0000000E+00 -0.5050505E-02 -0.6890419E-09  0.0000000E+00 -0.6902246E-03
 -0.4976523E-02  0.0000000E+00 -0.5050505E-02 -0.7397827E-09  0.0000000E+00 -0.6902252E-03
 -0.4956794E-02  0.0000000E+00 -0.5050505E-02 -0.7939674E-09  0.0000000E+00 -0.6902257E-03
 -0.4937066E-02  0.0000000E+00 -0.5050505E-02 -0.8518512E-09  0.0000000E+00 -0.6902263E-03
 -0.4906239E-02  0.0000000E+00 -0.5050505E-02 -0.9137082E-09  0.0000000E+00 -0.6902269E-03
 -0.4866782E-02  0.0000000E+00 -0.5050505E-02 -0.9798332E-09  0.0000000E+00 -0.6902276E-03
 -0.4827325E-02  0.0000000E+00 -0.5050505E-02 -0.1050544E-08  0.0000000E+00 -0.6902283E-03
 -0.4769372E-02  0.0000000E+00 -0.5050505E-02 -0.1126182E-08  0.0000000E+00 -0.6902291E-03
 -0.4690458E-02  0.0000000E+00 -0.5050505E-02 -0.1207117E-08  0.0000000E+00 -0.6902300E-03
 -0.4611543E-02  0.0000000E+00 -0.5050505E-02 -0.1293749E-08  0.0000000E+00 -0.6902309E-03
 -0.4503035E-02  0.0000000E+00 -0.5050505E-02 -0.1386511E-08  0.0000000E+00 -0.6902318E-03
 -0.4345206E-02  0.0000000E+00 -0.5050505E-02 -0.1485871E-08  0.0000000E+00 -0.6902329E-03
 -0.4187378E-02  0.0000000E+00 -0.5050505E-02 -0.1592341E-08  0.0000000E+00 -0.6902340E-03
 -0.3985156E-02  0.0000000E+00 -0.5050505E-02 -0.1706475E-08  0.0000000E+00 -0.6902351E-03
 -0.3669499E-02  0.0000000E+00 -0.5050505E-02 -0.1828877E-08  0.0000000E+00 -0.6902364E-03
 -0.3353842E-02  0.0000000E+00 -0.5050505E-02 -0.1960210E-08  0.0000000E+00 -0.6902378E-03
 -0.2978990E-02  0.0000000E+00 -0.5050505E-02 -0.2101195E-08  0.0000000E+00 -0.6902392E-03
 -0.2347676E-02  0.0000000E+00 -0.5050505E-02 -0.2252627E-08  0.0000000E+00 -0.6902408E-03
 -0.1716362E-02  0.0000000E+00 -0.5050505E-02 -0.2415375E-08  0.0000000E+00 -0.6902425E-03
 -0.1025842E-02  0.0000000E+00 -0.5050505E-02 -0.2590401E-08  0.0000000E+00 -0.6902443E-03
  0.2367855E-03  0.0000000E+00 -0.5050505E-02 -0.2778764E-08  0.0000000E+00 -0.6902462E-03
  0.1499413E-02  0.0000000E+00 -0.5050505E-02 -0.2981636E-08  0.0000000E+00 -0.6902483E-03
  0.2762042E-02  0.0000000E+00 -0.5050505E-02 -0.3200317E-08  0.0000000E+00 -0.6902505E-03
 -0.5050505E-02  0.0000000E+00 -0.5050505E-02 -0.3436255E-08  0.0000000E+00 -0.6902529E-03
 -0.5050505E-02  0.0000000E+00 -0.5050505E-02 -0.3691064E-08  0.0000000E+00 -0.6902554E-03
 -0.5050505E-02  0.0000000E+00 -0.5050505E-02 -0.3966549E-08  0.0000000E+00 -0.6902582E-03
 -0.5050505E-02  0.0000000E+00 -0.5050505E-02 -0.4264736E-08  0.0000000E+00 -0.6902611E-03
 -0.5050505E-02  0.0000000E+00 -0.5050505E-02 -0.4587905E-08  0.0000000E+00 -0.6902643E-03
 -0.5050505E-02  0.0000000E+00 -0.5050505E-02 -0.4938629E-08  0.0000000E+00 -0.6902677E-03
 -0.5050505E-02  0.0000000E+00 -0.5050505E-02 -0.5319825E-08  0.0000000E+00 -0.6902714E-03
 -0.5050504E-02  0.0000000E+00 -0.5050505E-02 -0.5734807E-08  0.0000000E+00 -0.6902753E-03
 -0.5050501E-02  0.0000000E+00 -0.5050505E-02 -0.6187357E-08  0.0000000E+00 -0.6902796E-03
 -0.5050495E-02  0.0000000E+00 -0.5050505E-02 -0.6681804E-08  0.0000000E+00 -0.6902842E-03
 -0.5050482E-02  0.0000000E+00 -0.5050505E-02 -0.7223124E-08  0.0000000E+00 -0.6902892E-03
 -0.5050449E-02  0.0000000E+00 -0.5050505E-02 -0.7817060E-08  0.0000000E+00 -0.6902946E-03
 -0.5050376E-02  0.0000000E+00 -0.5050505E-02 -0.8470266E-08  0.0000000E+00 -0.6903004E-03
 -0.5050299E-02  0.0000000E+00 -0.5050505E-02 -0.9190486E-08  0.0000000E+00 -0.6903067E-03
 -0.5050178E-02  0.0000000E+00 -0.5050505E-02 -0.9986772E-08  0.0000000E+00 -0.6903136E-03
 -0.5050018E-02  0.0000000E+00 -0.5050505E-02 -0.1086976E-07  0.0000000E+00 -0.6903210E-03
 -0.5049710E-02  0.0000000E+00 -0.5050505E-02 -0.1185199E-07  0.0000000E+00 -0.6903292E-03
 -0.5049253E-02  0.0000000E+00 -0.5050505E-02 -0.1294834E-07  0.0000000E+00 -0.6903380E-03
 -0.5048636E-02  0.0000000E+00 -0.5050505E-02 -0.1417658E-07  0.0000000E+00 -0.6903477E-03
 -0.5047442E-02  0.0000000E+00 -0.5050505E-02 -0.1555800E-07  0.0000000E+00 -0.6903583E-03
 -0.5045727E-02  0.0000000E+00 -0.5050505E-02 -0.1711828E-07  0.0000000E+00 -0.6903700E-03
 -0.5043261E-02  0.0000000E+00 -0.5050505E-02 -0.1888862E-07  0.0000000E+00 -0.6903828E-03
 -0.5038714E-02  0.0000000E+00 -0.5050505E-02 -0.2090716E-07  0.0000000E+00 -0.6903970E-03
 -0.5032318E-02  0.0000000E+00 -0.5050505E-02 -0.2322085E-07  0.0000000E+00 -0.6904127E-03
 -0.5022454E-02  0.0000000E+00 -0.5050505E-02 -0.2588795E-07  0.0000000E+00 -0.6904302E-03
 -0.5012589E-02  0.0000000E+00 -0.5050505E-02 -0.2898134E-07  0.0000000E+00 -0.6904497E-03
 -0.5002725E-02  0.0000000E+00 -0.5050505E-02 -0.3259297E-07  0.0000000E+00 -0.6904716E-03
 -0.4992860E-02  0.0000000E+00 -0.5050505E-02 -0.3683999E-07  0.0000000E+00 -0.6904962E-03
 -0.4976523E-02  0.0000000E+00 -0.5050505E-02 -0.4187320E-07  0.0000000E+00 -0.6905241E-03
 -0.4956794E-02  0.0000000E+00 -0.5050505E-02 -0.4788884E-07  0.0000000E+00 -0.6905559E-03
 -0.4937066E-02  0.0000000E+00 -0.5050505E-02 -0.5514547E-07  0.0000000E+00 -0.6905923E-03
 -0.4906239E-02  0.0000000E+00 -0.5050505E-02 -0.6398828E-07  0.0000000E+00 -0.6906343E-03
 -0.4866782E-02  0.0000000E+00 -0.5050505E-02 -0.7488492E-07  0.0000000E+00 -0.6906831E-03
 -0.4827325E-02  0.0000000E+00 -0.5050505E-02 -0.8847920E-07  0.0000000E+00 -0.6907404E-03
 -0.4769372E-02  0.0000000E+00 -0.5050505E-02 -0.1056735E-06  0.0000000E+00 -0.6908082E-03
 -0.4690458E-02  0.0000000E+00 -0.5050505E-02 -0.1277582E-06  0.0000000E+00 -0.6908894E-03
 -0.4611543E-02  0.0000000E+00 -0.5050505E-02 -0.1566197E-06  0.0000000E+00 -0.6909878E-03
 -0.4503035E-02  0.0000000E+00 -0.5050505E-02 -0.1950867E-06  0.0000000E+00 -0.6911087E-03
 -0.4345206E-02  0.0000000E+00 -0.5050505E-02 -0.2475233E-06  0.0000000E+00 -0.6912595E-03
 -0.4187378E-02  0.0000000E+00 -0.5050505E-02 -0.3208842E-06  0.0000000E+00 -0.6914510E-03
 -0.3985156E-02  0.0000000E+00 -0.5050505E-02 -0.4266727E-06  0.0000000E+00 -0.6916989E-03
 -0.3669499E-02  0.0000000E+00 -0.5050505E-02 -0.5847444E-06  0.0000000E+00 -0.6920269E-03
 -0.3353842E-02  0.0000000E+00 -0.5050505E-02 -0.8310880E-06  0.0000000E+00 -0.6924711E-03
 -0.2978990E-02  0.0000000E+00 -0.5050505E-02 -0.1234671E-05  0.0000000E+00 -0.6930866E-03
 -0.2347676E-02  0.0000000E+00 -0.5050505E-02 -0.1936182E-05  0.0000000E+00 -0.6939520E-03
 -0.1716362E-02  0.0000000E+00 -0.5050505E-02 -0.3242900E-05  0.0000000E+00 -0.6951513E-03
 -0.1025842E-02  0.0000000E+00 -0.5050505E-02 -0.5875675E-05  0.0000000E+00 -0.6966206E-03
  0.2367855E-03  0.0000000E+00 -0.5050505E-02 -0.1164888E-04  0.0000000E+00 -0.6973181E-03
  0.1499413E-02  0.0000000E+00 -0.5050505E-02 -0.2542898E-04  0.0000000E+00 -0.6911398E-03
  0.5287294E-02  0.0000000E+00 -0.5050505E-02 -0.6093991E-04  0.0000000E+00 -0.6473804E-03
 -0.5050505E-02  0.0000000E+00 -0.5050505E-02 -0.1162476E-10  0.0000000E+00 -0.6878811E-03
 -0.5050505E-02  0.0000000E+00 -0.5050505E-02 -0.3977293E-10  0.0000000E+00 -0.6878811E-03
 -0.5050505E-02  0.0000000E+00 -0.5050505E-02 -0.6845504E-10  0.0000000E+00 -0.6878812E-03
 -0.5050505E-02  0.0000000E+00 -0.5050505E-02 -0.9431185E-10  0.0000000E+00 -0.6878812E-03
 -0.5050505E-02  0.0000000E+00 -0.5050505E-02 -0.1238536E-09  0.0000000E+00 -0.6878813E-03
 -0.5050505E-02  0.0000000E+00 -0.5050505E-02 -0.1558155E-09  0.0000000E+00 -0.6878813E-03
 -0.5050504E-02  0.0000000E+00 -0.5050505E-02 -0.1879984E-09  0.0000000E+00 -0.6878814E-03
 -0.5050501E-02  0.0000000E+00 -0.5050505E-02 -0.2196408E-09  0.0000000E+00 -0.6878815E-03
 -0.5050495E-02  0.0000000E+00 -0.5050505E-02 -0.2510742E-09  0.0000000E+00 -0.6878816E-03
 -0.5050482E-02  0.0000000E+00 -0.5050505E-02 -0.2827694E-09  0.0000000E+00 -0.6878817E-03
 -0.5050449E-02  0.0000000E+00 -0.5050505E-02 -0.3152450E-09  0.0000000E+00 -0.6878818E-03
 -0.5050376E-02  0.0000000E+00 -0.5050505E-02 -0.3488353E-09  0.0000000E+00 -0.6878820E-03
 -0.5050299E-02  0.0000000E+00 -0.5050505E-02 -0.3838400E-09  0.0000000E+00 -0.6878821E-03
 -0.5050178E-02  0.0000000E+00 -0.5050505E-02 -0.4204900E-09  0.0000000E+00 -0.6878823E-03
 -0.5050018E-02  0.0000000E+00 -0.5050505E-02 -0.4589926E-09  0.0000000E+00 -0.6878825E-03
 -0.5049710E-02  0.0000000E+00 -0.5050505E-02 -0.4995604E-09  0.0000000E+00 -0.6878827E-03
 -0.5049253E-02  0.0000000E+00 -0.5050505E-02 -0.5423939E-09  0.0000000E+00 -0.6878829E-03
 -0.5048636E-02  0.0000000E+00 -0.5050505E-02 -0.5877099E-09  0.0000000E+00 -0.6878832E-03
 -0.5047442E-02  0.0000000E+00 -0.5050505E-02 -0.6357279E-09  0.0000000E+00 -0.6878834E-03
 -0.5045727E-02  0.0000000E+00 -0.5050505E-02 -0.6866793E-09  0.0000000E+00 -0.6878837E-03
 -0.5043261E-02  0.0000000E+00 -0.5050505E-02 -0.7408073E-09  0.0000000E+00 -0.6878840E-03
 -0.5038714E-02  0.0000000E+00 -0.5050505E-02 -0.7983671E-09  0.0000000E+00 -0.6878843E-03
 -0.5032318E-02  0.0000000E+00 -0.5050505E-02 -0.8596287E-09  0.0000000E+00 -0.6878847E-03
 -0.5022454E-02  0.0000000E+00 -0.5050505E-02 -0.9248782E-09  0.0000000E+00 -0.6878851E-03
 -0.5012589E-02  0.0000000E+00 -0.5050505E-02 -0.9944191E-09  0.0000000E+00 -0.6878855E-03
 -0.5002725E-02  0.0000000E+00 -0.5050505E-02 -0.1068575E-08  0.0000000E+00 -0.6878859E-03
 -0.4992860E-02  0.0000000E+00 -0.5050505E-02 -0.1147691E-08  0.0000000E+00 -0.6878864E-03
 -0.4976523E-02  0.0000000E+00 -0.5050505E-02 -0.1232135E-08  0.0000000E+00 -0.6878869E-03
 -0.4956794E-02  0.0000000E+00 -0.5050505E-02 -0.1322303E-08  0.0000000E+00 -0.6878875E-03
 -0.4937066E-02  0.0000000E+00 -0.5050505E-02 -0.1418618E-08  0.0000000E+00 -0.6878881E-03
 -0.4906239E-02  0.0000000E+00 -0.5050505E-02 -0.1521535E-08  0.0000000E+00 -0.6878887E-03
 -0.4866782E-02  0.0000000E+00 -0.5050505E-02 -0.1631543E-08  0.0000000E+00 -0.6878894E-03
 -0.4827325E-02  0.0000000E+00 -0.5050505E-02 -0.1749169E-08  0.0000000E+00 -0.6878901E-03
 -0.4769372E-02  0.0000000E+00 -0.5050505E-02 -0.1874979E-08  0.0000000E+00 -0.6878909E-03
 -0.4690458E-02  0.0000000E+00 -0.5050505E-02 -0.2009586E-08  0.0000000E+00 -0.6878917E-03
 -0.4611543E-02  0.0000000E+00 -0.5050505E-02 -0.2153653E-08  0.0000000E+00 -0.6878926E-03
 -0.4503035E-02  0.0000000E+00 -0.5050505E-02 -0.2307897E-08  0.0000000E+00 -0.6878935E-03
 -0.4345206E-02  0.0000000E+00 -0.5050505E-02 -0.2473095E-08  0.0000000E+00 -0.6878946E-03
 -0.4187378E-02  0.0000000E+00 -0.5050505E-02 -0.2650093E-08  0.0000000E+00 -0.6878957E-03
 -0.3985156E-02  0.0000000E+00 -0.5050505E-02 -0.2839808E-08  0.0000000E+00 -0.6878968E-03
 -0.3669499E-02  0.0000000E+00 -0.5050505E-02 -0.3043244E-08  0.0000000E+00 -0.6878981E-03
 -0.3353842E-02  0.0000000E+00 -0.5050505E-02 -0.3261493E-08  0.0000000E+00 -0.6878995E-03
 -0.2978990E-02  0.0000000E+00 -0.5050505E-02 -0.3495751E-08  0.0000000E+00 -0.6879009E-03
 -0.2347676E-02  0.0000000E+00 -0.5050505E-02 -0.3747332E-08  0.0000000E+00 -0.6879024E-03
 -0.1716362E-02  0.0000000E+00 -0.5050505E-02 -0.4017675E-08  0.0000000E+00 -0.6879041E-03
 -0.1025842E-02  0.0000000E+00 -0.5050505E-02 -0.4308367E-08  0.0000000E+00 -0.6879059E-03
  0.2367855E-03  0.0000000E+00 -0.5050505E-02 -0.4621159E-08  0.0000000E+00 -0.6879078E-03
  0.1499413E-02  0.0000000E+00 -0.5050505E-02 -0.4957987E-08  0.0000000E+00 -0.6879098E-03
  0.2762042E-02  0.0000000E+00 -0.5050505E-02 -0.5320999E-08  0.0000000E+00 -0.6879120E-03
 -0.5050505E-02  0.0000000E+00 -0.5050505E-02 -0.5712585E-08  0.0000000E+00 -0.6879144E-03
 -0.5050505E-02  0.0000000E+00 -0.5050505E-02 -0.6135406E-08  0.0000000E+00 -0.6879169E-03
 -0.5050505E-02  0.0000000E+00 -0.5050505E-02 -0.6592440E-08  0.0000000E+00 -0.6879196E-03
 -0.5050505E-02  0.0000000E+00 -0.5050505E-02 -0.7087025E-08  0.0000000E+00 -0.6879225E-03
 -0.5050505E-02  0.0000000E+00 -0.5050505E-02 -0.7622920E-08  0.0000000E+00 -0.6879257E-03
 -0.5050505E-02  0.0000000E+00 -0.5050505E-02 -0.8204360E-08  0.0000000E+00 -0.6879291E-03
 -0.5050505E-02  0.0000000E+00 -0.5050505E-02 -0.8836147E-08  0.0000000E+00 -0.6879327E-03
 -0.5050504E-02  0.0000000E+00 -0.5050505E-02 -0.9523730E-08  0.0000000E+00 -0.6879366E-03
 -0.5050501E-02  0.0000000E+00 -0.5050505E-02 -0.1027333E-07  0.0000000E+00 -0.6879408E-03
 -0.5050495E-02  0.0000000E+00 -0.5050505E-02 -0.1109204E-07  0.0000000E+00 -0.6879453E-03
 -0.5050482E-02  0.0000000E+00 -0.5050505E-02 -0.1198805E-07  0.0000000E+00 -0.6879502E-03
 -0.5050449E-02  0.0000000E+00 -0.5050505E-02 -0.1297077E-07  0.0000000E+00 -0.6879555E-03
 -0.5050376E-02  0.0000000E+00 -0.5050505E-02 -0.1405110E-07  0.0000000E+00 -0.6879613E-03
 -0.5050299E-02  0.0000000E+00 -0.5050505E-02 -0.1524172E-07  0.0000000E+00 -0.6879675E-03
 -0.5050178E-02  0.0000000E+00 -0.5050505E-02 -0.1655743E-07  0.0000000E+00 -0.6879742E-03
 -0.5050018E-02  0.0000000E+00 -0.5050505E-02 -0.1801559E-07  0.0000000E+00 -0.6879815E-03
 -0.5049710E-02  0.0000000E+00 -0.5050505E-02 -0.1963669E-07  0.0000000E+00 -0.6879895E-03
 -0.5049253E-02  0.0000000E+00 -0.5050505E-02 -0.2144498E-07  0.0000000E+00 -0.6879982E-03
 -0.5048636E-02  0.0000000E+00 -0.5050505E-02 -0.2346934E-07  0.0000000E+00 -0.6880076E-03
 -0.5047442E-02  0.0000000E+00 -0.5050505E-02 -0.2574437E-07  0.0000000E+00 -0.6880180E-03
 -0.5045727E-02  0.0000000E+00 -0.5050505E-02 -0.2831173E-07  0.0000000E+00 -0.6880294E-03
 -0.5043261E-02  0.0000000E+00 -0.5050505E-02 -0.3122193E-07  0.0000000E+00 -0.6880419E-03
 -0.5038714E-02  0.0000000E+00 -0.5050505E-02 -0.3453658E-07  0.0000000E+00 -0.6880556E-03
 -0.5032318E-02  0.0000000E+00 -0.5050505E-02 -0.3833136E-07  0.0000000E+00 -0.6880709E-03
 -0.5022454E-02  0.0000000E+00 -0.5050505E-02 -0.4269992E-07  0.0000000E+00 -0.6880878E-03
 -0.5012589E-02  0.0000000E+00 -0.5050505E-02 -0.4775908E-07  0.0000000E+00 -0.6881066E-03
 -0.5002725E-02  0.0000000E+00 -0.5050505E-02 -0.5365575E-07  0.0000000E+00 -0.6881276E-03
 -0.4992860E-02  0.0000000E+00 -0.5050505E-02 -0.6057643E-07  0.0000000E+00 -0.6881513E-03
 -0.4976523E-02  0.0000000E+00 -0.5050505E-02 -0.6876014E-07  0.0000000E+00 -0.6881779E-03
 -0.4956794E-02  0.0000000E+00 -0.5050505E-02 -0.7851647E-07  0.0000000E+00 -0.6882081E-03
 -0.4937066E-02  0.0000000E+00 -0.5050505E-02 -0.9025104E-07  0.0000000E+00 -0.6882425E-03
 -0.4906239E-02  0.0000000E+00 -0.5050505E-02 -0.1045019E-06  0.0000000E+00 -0.6882819E-03
 -0.4866782E-02  0.0000000E+00 -0.5050505E-02 -0.1219925E-06  0.0000000E+00 -0.6883275E-03
 -0.4827325E-02  0.0000000E+00 -0.5050505E-02 -0.1437101E-06  0.0000000E+00 -0.6883804E-03
 -0.4769372E-02  0.0000000E+00 -0.5050505E-02 -0.1710238E-06  0.0000000E+00 -0.6884425E-03
 -0.4690458E-02  0.0000000E+00 -0.5050505E-02 -0.2058665E-06  0.0000000E+00 -0.6885158E-03
 -0.4611543E-02  0.0000000E+00 -0.5050505E-02 -0.2510205E-06  0.0000000E+00 -0.6886033E-03
 -0.4503035E-02  0.0000000E+00 -0.5050505E-02 -0.3105789E-06  0.0000000E+00 -0.6887085E-03
 -0.4345206E-02  0.0000000E+00 -0.5050505E-02 -0.3907055E-06  0.0000000E+00 -0.6888364E-03
 -0.4187378E-02  0.0000000E+00 -0.5050505E-02 -0.5009272E-06  0.0000000E+00 -0.6889932E-03
 -0.3985156E-02  0.0000000E+00 -0.5050505E-02 -0.6563851E-06  0.0000000E+00 -0.6891869E-03
 -0.3669499E-02  0.0000000E+00 -0.5050505E-02 -0.8818686E-06  0.0000000E+00 -0.6894268E-03
 -0.3353842E-02  0.0000000E+00 -0.5050505E-02 -0.1219206E-05  0.0000000E+00 -0.6897213E-03
 -0.2978990E-02  0.0000000E+00 -0.5050505E-02 -0.1740987E-05  0.0000000E+00 -0.6900707E-03
 -0.2347676E-02  0.0000000E+00 -0.5050505E-02 -0.2575800E-05  0.0000000E+00 -0.6904424E-03
 -0.1716362E-02  0.0000000E+00 -0.5050505E-02 -0.3951588E-05  0.0000000E+00 -0.6907012E-03
 -0.1025842E-02  0.0000000E+00 -0.5050505E-02 -0.6252173E-05  0.0000000E+00 -0.6904141E-03
  0.2367855E-03  0.0000000E+00 -0.5050505E-02 -0.9991799E-05  0.0000000E+00 -0.6883717E-03
  0.1499413E-02  0.0000000E+00 -0.5050505E-02 -0.1512402E-04  0.0000000E+00 -0.6817788E-03
  0.5287294E-02  0.0000000E+00 -0.5050505E-02 -0.1672959E-04  0.0000000E+00 -0.6675384E-03
 -0.5050505E-02  0.0000000E+00 -0.5050505E-02 -0.1756465E-10  0.0000000E+00 -0.6845183E-03
 -0.5050505E-02  0.0000000E+00 -0.5050505E-02 -0.5638954E-10  0.0000000E+00 -0.6845183E-03
 -0.5050505E-02  0.0000000E+00 -0.5050505E-02 -0.9587337E-10  0.0000000E+00 -0.6845183E-03
 -0.5050505E-02  0.0000000E+00 -0.5050505E-02 -0.1318731E-09  0.0000000E+00 -0.6845183E-03
 -0.5050505E-02  0.0000000E+00 -0.5050505E-02 -0.1730633E-09  0.0000000E+00 -0.6845184E-03
 -0.5050505E-02  0.0000000E+00 -0.5050505E-02 -0.2177009E-09  0.0000000E+00 -0.6845185E-03
 -0.5050504E-02  0.0000000E+00 -0.5050505E-02 -0.2628042E-09  0.0000000E+00 -0.6845185E-03
 -0.5050501E-02  0.0000000E+00 -0.5050505E-02 -0.3072101E-09  0.0000000E+00 -0.6845186E-03
 -0.5050495E-02  0.0000000E+00 -0.5050505E-02 -0.3512930E-09  0.0000000E+00 -0.6845187E-03
 -0.5050482E-02  0.0000000E+00 -0.5050505E-02 -0.3956975E-09  0.0000000E+00 -0.6845188E-03
 -0.5050449E-02  0.0000000E+00 -0.5050505E-02 -0.4411474E-09  0.0000000E+00 -0.6845190E-03
 -0.5050376E-02  0.0000000E+00 -0.5050505E-02 -0.4881326E-09  0.0000000E+00 -0.6845191E-03
 -0.5050299E-02  0.0000000E+00 -0.5050505E-02 -0.5370741E-09  0.0000000E+00 -0.6845193E-03
 -0.5050178E-02  0.0000000E+00 -0.5050505E-02 -0.5883068E-09  0.0000000E+00 -0.6845194E-03
 -0.5050018E-02  0.0000000E+00 -0.5050505E-02 -0.6421243E-09  0.0000000E+00 -0.6845196E-03
 -0.5049710E-02  0.0000000E+00 -0.5050505E-02 -0.6988235E-09  0.0000000E+00 -0.6845198E-03
 -0.5049253E-02  0.0000000E+00 -0.5050505E-02 -0.7586868E-09  0.0000000E+00 -0.6845200E-03
 -0.5048636E-02  0.0000000E+00 -0.5050505E-02 -0.8220146E-09  0.0000000E+00 -0.6845203E-03
 -0.5047442E-02  0.0000000E+00 -0.5050505E-02 -0.8891133E-09  0.0000000E+00 -0.6845205E-03
 -0.5045727E-02  0.0000000E+00 -0.5050505E-02 -0.9603049E-09  0.0000000E+00 -0.6845208E-03
 -0.5043261E-02  0.0000000E+00 -0.5050505E-02 -0.1035928E-08  0.0000000E+00 -0.6845211E-03
 -0.5038714E-02  0.0000000E+00 -0.5050505E-02 -0.1116337E-08  0.0000000E+00 -0.6845215E-03
 -0.5032318E-02  0.0000000E+00 -0.5050505E-02 -0.1201909E-08  0.0000000E+00 -0.6845218E-03
 -0.5022454E-02  0.0000000E+00 -0.5050505E-02 -0.1293040E-08  0.0000000E+00 -0.6845222E-03
 -0.5012589E-02  0.0000000E+00 -0.5050505E-02 -0.1390155E-08  0.0000000E+00 -0.6845226E-03
 -0.5002725E-02  0.0000000E+00 -0.5050505E-02 -0.1493702E-08  0.0000000E+00 -0.6845230E-03
 -0.4992860E-02  0.0000000E+00 -0.5050505E-02 -0.1604162E-08  0.0000000E+00 -0.6845235E-03
 -0.4976523E-02  0.0000000E+00 -0.5050505E-02 -0.1722047E-08  0.0000000E+00 -0.6845240E-03
 -0.4956794E-02  0.0000000E+00 -0.5050505E-02 -0.1847907E-08  0.0000000E+00 -0.6845246E-03
 -0.4937066E-02  0.0000000E+00 -0.5050505E-02 -0.1982330E-08  0.0000000E+00 -0.6845252E-03