title = "dataset feddes"
variables = "x", "y", "z", "vx", "vy", "vz"
zone t = "velocities, solution time =  2.900E+01 days        " i =   99, j =   99, k =    1,  f=point
 -0.5050505E-02  0.0000000E+00 -0.5050505E-02  0.1530683E-10  0.0000000E+00 -0.3252994E-03
 -0.5050505E-02  0.0000000E+00 -0.5050505E-02  0.4544245E-10  0.0000000E+00 -0.3252994E-03
 -0.5050505E-02  0.0000000E+00 -0.5050505E-02  0.7531807E-10  0.0000000E+00 -0.3252992E-03
 -0.5050505E-02  0.0000000E+00 -0.5050505E-02  0.1049260E-09  0.0000000E+00 -0.3252991E-03
 -0.5050505E-02  0.0000000E+00 -0.5050505E-02  0.1341095E-09  0.0000000E+00 -0.3252988E-03
 -0.5050505E-02  0.0000000E+00 -0.5050505E-02  0.1627292E-09  0.0000000E+00 -0.3252985E-03
 -0.5050504E-02  0.0000000E+00 -0.5050505E-02  0.1906619E-09  0.0000000E+00 -0.3252981E-03
 -0.5050501E-02  0.0000000E+00 -0.5050505E-02  0.2177772E-09  0.0000000E+00 -0.3252977E-03
 -0.5050495E-02  0.0000000E+00 -0.5050505E-02  0.2439576E-09  0.0000000E+00 -0.3252972E-03
 -0.5050482E-02  0.0000000E+00 -0.5050505E-02  0.2690786E-09  0.0000000E+00 -0.3252967E-03
 -0.5050449E-02  0.0000000E+00 -0.5050505E-02  0.2930215E-09  0.0000000E+00 -0.3252961E-03
 -0.5050376E-02  0.0000000E+00 -0.5050505E-02  0.3156704E-09  0.0000000E+00 -0.3252955E-03
 -0.5050299E-02  0.0000000E+00 -0.5050505E-02  0.3369064E-09  0.0000000E+00 -0.3252948E-03
 -0.5050178E-02  0.0000000E+00 -0.5050505E-02  0.3566183E-09  0.0000000E+00 -0.3252941E-03
 -0.5050018E-02  0.0000000E+00 -0.5050505E-02  0.3746942E-09  0.0000000E+00 -0.3252933E-03
 -0.5049710E-02  0.0000000E+00 -0.5050505E-02  0.3910253E-09  0.0000000E+00 -0.3252925E-03
 -0.5049253E-02  0.0000000E+00 -0.5050505E-02  0.4055071E-09  0.0000000E+00 -0.3252917E-03
 -0.5048636E-02  0.0000000E+00 -0.5050505E-02  0.4180378E-09  0.0000000E+00 -0.3252908E-03
 -0.5047442E-02  0.0000000E+00 -0.5050505E-02  0.4285194E-09  0.0000000E+00 -0.3252900E-03
 -0.5045727E-02  0.0000000E+00 -0.5050505E-02  0.4368583E-09  0.0000000E+00 -0.3252891E-03
 -0.5043261E-02  0.0000000E+00 -0.5050505E-02  0.4429658E-09  0.0000000E+00 -0.3252881E-03
 -0.5038714E-02  0.0000000E+00 -0.5050505E-02  0.4467577E-09  0.0000000E+00 -0.3252872E-03
 -0.5032318E-02  0.0000000E+00 -0.5050505E-02  0.4481553E-09  0.0000000E+00 -0.3252863E-03
 -0.5022454E-02  0.0000000E+00 -0.5050505E-02  0.4470857E-09  0.0000000E+00 -0.3252854E-03
 -0.5012589E-02  0.0000000E+00 -0.5050505E-02  0.4434819E-09  0.0000000E+00 -0.3252844E-03
 -0.5002725E-02  0.0000000E+00 -0.5050505E-02  0.4372835E-09  0.0000000E+00 -0.3252835E-03
 -0.4992860E-02  0.0000000E+00 -0.5050505E-02  0.4284365E-09  0.0000000E+00 -0.3252826E-03
 -0.4976523E-02  0.0000000E+00 -0.5050505E-02  0.4168940E-09  0.0000000E+00 -0.3252817E-03
 -0.4956794E-02  0.0000000E+00 -0.5050505E-02  0.4026160E-09  0.0000000E+00 -0.3252809E-03
 -0.4937066E-02  0.0000000E+00 -0.5050505E-02  0.3855699E-09  0.0000000E+00 -0.3252801E-03
 -0.4906239E-02  0.0000000E+00 -0.5050505E-02  0.3657303E-09  0.0000000E+00 -0.3252793E-03
 -0.4866782E-02  0.0000000E+00 -0.5050505E-02  0.3430794E-09  0.0000000E+00 -0.3252786E-03
 -0.4827325E-02  0.0000000E+00 -0.5050505E-02  0.3176065E-09  0.0000000E+00 -0.3252779E-03
 -0.4769372E-02  0.0000000E+00 -0.5050505E-02  0.2893081E-09  0.0000000E+00 -0.3252772E-03
 -0.4690458E-02  0.0000000E+00 -0.5050505E-02  0.2581877E-09  0.0000000E+00 -0.3252767E-03
 -0.4611543E-02  0.0000000E+00 -0.5050505E-02  0.2242558E-09  0.0000000E+00 -0.3252762E-03
 -0.4503035E-02  0.0000000E+00 -0.5050505E-02  0.1875287E-09  0.0000000E+00 -0.3252757E-03
 -0.4345206E-02  0.0000000E+00 -0.5050505E-02  0.1480279E-09  0.0000000E+00 -0.3252754E-03
 -0.4187378E-02  0.0000000E+00 -0.5050505E-02  0.1057793E-09  0.0000000E+00 -0.3252751E-03
 -0.3985156E-02  0.0000000E+00 -0.5050505E-02  0.6081296E-10  0.0000000E+00 -0.3252750E-03
 -0.3669499E-02  0.0000000E+00 -0.5050505E-02  0.1309667E-10  0.0000000E+00 -0.3252749E-03
 -0.3353842E-02  0.0000000E+00 -0.5050505E-02 -0.3726656E-10  0.0000000E+00 -0.3252749E-03
 -0.2978990E-02  0.0000000E+00 -0.5050505E-02 -0.9019921E-10  0.0000000E+00 -0.3252750E-03
 -0.2347676E-02  0.0000000E+00 -0.5050505E-02 -0.1457450E-09  0.0000000E+00 -0.3252753E-03
 -0.1716362E-02  0.0000000E+00 -0.5050505E-02 -0.2038794E-09  0.0000000E+00 -0.3252756E-03
 -0.1025842E-02  0.0000000E+00 -0.5050505E-02 -0.2645753E-09  0.0000000E+00 -0.3252761E-03
  0.2367855E-03  0.0000000E+00 -0.5050505E-02 -0.3278255E-09  0.0000000E+00 -0.3252767E-03
  0.1499413E-02  0.0000000E+00 -0.5050505E-02 -0.3936391E-09  0.0000000E+00 -0.3252775E-03
  0.2762042E-02  0.0000000E+00 -0.5050505E-02 -0.4620354E-09  0.0000000E+00 -0.3252784E-03
 -0.5050505E-02  0.0000000E+00 -0.5050505E-02 -0.5330529E-09  0.0000000E+00 -0.3252794E-03
 -0.5050505E-02  0.0000000E+00 -0.5050505E-02 -0.6067671E-09  0.0000000E+00 -0.3252806E-03
 -0.5050505E-02  0.0000000E+00 -0.5050505E-02 -0.6832791E-09  0.0000000E+00 -0.3252819E-03
 -0.5050505E-02  0.0000000E+00 -0.5050505E-02 -0.7627116E-09  0.0000000E+00 -0.3252834E-03
 -0.5050505E-02  0.0000000E+00 -0.5050505E-02 -0.8452441E-09  0.0000000E+00 -0.3252851E-03
 -0.5050505E-02  0.0000000E+00 -0.5050505E-02 -0.9311088E-09  0.0000000E+00 -0.3252870E-03
 -0.5050505E-02  0.0000000E+00 -0.5050505E-02 -0.1020584E-08  0.0000000E+00 -0.3252890E-03
 -0.5050504E-02  0.0000000E+00 -0.5050505E-02 -0.1114019E-08  0.0000000E+00 -0.3252912E-03
 -0.5050501E-02  0.0000000E+00 -0.5050505E-02 -0.1211851E-08  0.0000000E+00 -0.3252936E-03
 -0.5050495E-02  0.0000000E+00 -0.5050505E-02 -0.1314610E-08  0.0000000E+00 -0.3252962E-03
 -0.5050482E-02  0.0000000E+00 -0.5050505E-02 -0.1422934E-08  0.0000000E+00 -0.3252991E-03
 -0.5050449E-02  0.0000000E+00 -0.5050505E-02 -0.1537594E-08  0.0000000E+00 -0.3253022E-03
 -0.5050376E-02  0.0000000E+00 -0.5050505E-02 -0.1659521E-08  0.0000000E+00 -0.3253055E-03
 -0.5050299E-02  0.0000000E+00 -0.5050505E-02 -0.1789833E-08  0.0000000E+00 -0.3253091E-03
 -0.5050178E-02  0.0000000E+00 -0.5050505E-02 -0.1929867E-08  0.0000000E+00 -0.3253129E-03
 -0.5050018E-02  0.0000000E+00 -0.5050505E-02 -0.2081228E-08  0.0000000E+00 -0.3253171E-03
 -0.5049710E-02  0.0000000E+00 -0.5050505E-02 -0.2245847E-08  0.0000000E+00 -0.3253216E-03
 -0.5049253E-02  0.0000000E+00 -0.5050505E-02 -0.2426050E-08  0.0000000E+00 -0.3253265E-03
 -0.5048636E-02  0.0000000E+00 -0.5050505E-02 -0.2624637E-08  0.0000000E+00 -0.3253317E-03
 -0.5047442E-02  0.0000000E+00 -0.5050505E-02 -0.2845004E-08  0.0000000E+00 -0.3253374E-03
 -0.5045727E-02  0.0000000E+00 -0.5050505E-02 -0.3091279E-08  0.0000000E+00 -0.3253436E-03
 -0.5043261E-02  0.0000000E+00 -0.5050505E-02 -0.3368507E-08  0.0000000E+00 -0.3253503E-03
 -0.5038714E-02  0.0000000E+00 -0.5050505E-02 -0.3682885E-08  0.0000000E+00 -0.3253576E-03
 -0.5032318E-02  0.0000000E+00 -0.5050505E-02 -0.4042078E-08  0.0000000E+00 -0.3253656E-03
 -0.5022454E-02  0.0000000E+00 -0.5050505E-02 -0.4455630E-08  0.0000000E+00 -0.3253744E-03
 -0.5012589E-02  0.0000000E+00 -0.5050505E-02 -0.4935515E-08  0.0000000E+00 -0.3253842E-03
 -0.5002725E-02  0.0000000E+00 -0.5050505E-02 -0.5496894E-08  0.0000000E+00 -0.3253950E-03
 -0.4992860E-02  0.0000000E+00 -0.5050505E-02 -0.6159131E-08  0.0000000E+00 -0.3254072E-03
 -0.4976523E-02  0.0000000E+00 -0.5050505E-02 -0.6947226E-08  0.0000000E+00 -0.3254208E-03
 -0.4956794E-02  0.0000000E+00 -0.5050505E-02 -0.7893818E-08  0.0000000E+00 -0.3254362E-03
 -0.4937066E-02  0.0000000E+00 -0.5050505E-02 -0.9042050E-08  0.0000000E+00 -0.3254538E-03
 -0.4906239E-02  0.0000000E+00 -0.5050505E-02 -0.1044974E-07  0.0000000E+00 -0.3254740E-03
 -0.4866782E-02  0.0000000E+00 -0.5050505E-02 -0.1219557E-07  0.0000000E+00 -0.3254976E-03
 -0.4827325E-02  0.0000000E+00 -0.5050505E-02 -0.1438837E-07  0.0000000E+00 -0.3255252E-03
 -0.4769372E-02  0.0000000E+00 -0.5050505E-02 -0.1718162E-07  0.0000000E+00 -0.3255580E-03
 -0.4690458E-02  0.0000000E+00 -0.5050505E-02 -0.2079628E-07  0.0000000E+00 -0.3255974E-03
 -0.4611543E-02  0.0000000E+00 -0.5050505E-02 -0.2555814E-07  0.0000000E+00 -0.3256456E-03
 -0.4503035E-02  0.0000000E+00 -0.5050505E-02 -0.3196073E-07  0.0000000E+00 -0.3257054E-03
 -0.4345206E-02  0.0000000E+00 -0.5050505E-02 -0.4077527E-07  0.0000000E+00 -0.3257809E-03
 -0.4187378E-02  0.0000000E+00 -0.5050505E-02 -0.5325094E-07  0.0000000E+00 -0.3258786E-03
 -0.3985156E-02  0.0000000E+00 -0.5050505E-02 -0.7149814E-07  0.0000000E+00 -0.3260082E-03
 -0.3669499E-02  0.0000000E+00 -0.5050505E-02 -0.9926377E-07  0.0000000E+00 -0.3261857E-03
 -0.3353842E-02  0.0000000E+00 -0.5050505E-02 -0.1436056E-06  0.0000000E+00 -0.3264380E-03
 -0.2978990E-02  0.0000000E+00 -0.5050505E-02 -0.2187897E-06  0.0000000E+00 -0.3268146E-03
 -0.2347676E-02  0.0000000E+00 -0.5050505E-02 -0.3561660E-06  0.0000000E+00 -0.3274120E-03
 -0.1716362E-02  0.0000000E+00 -0.5050505E-02 -0.6316099E-06  0.0000000E+00 -0.3284385E-03
 -0.1025842E-02  0.0000000E+00 -0.5050505E-02 -0.1249450E-05  0.0000000E+00 -0.3303936E-03
  0.2367855E-03  0.0000000E+00 -0.5050505E-02 -0.2824363E-05  0.0000000E+00 -0.3346287E-03
  0.1499413E-02  0.0000000E+00 -0.5050505E-02 -0.7413370E-05  0.0000000E+00 -0.3452776E-03
  0.5287294E-02  0.0000000E+00 -0.5050505E-02 -0.1215896E-03  0.0000000E+00 -0.2754700E-03
 -0.5050505E-02  0.0000000E+00 -0.5050505E-02  0.4595077E-10  0.0000000E+00 -0.3251157E-03
 -0.5050505E-02  0.0000000E+00 -0.5050505E-02  0.1366760E-09  0.0000000E+00 -0.3251156E-03
 -0.5050505E-02  0.0000000E+00 -0.5050505E-02  0.2266249E-09  0.0000000E+00 -0.3251155E-03
 -0.5050505E-02  0.0000000E+00 -0.5050505E-02  0.3157424E-09  0.0000000E+00 -0.3251153E-03
 -0.5050505E-02  0.0000000E+00 -0.5050505E-02  0.4035727E-09  0.0000000E+00 -0.3251150E-03
 -0.5050505E-02  0.0000000E+00 -0.5050505E-02  0.4897039E-09  0.0000000E+00 -0.3251147E-03
 -0.5050504E-02  0.0000000E+00 -0.5050505E-02  0.5737696E-09  0.0000000E+00 -0.3251143E-03
 -0.5050501E-02  0.0000000E+00 -0.5050505E-02  0.6553795E-09  0.0000000E+00 -0.3251139E-03
 -0.5050495E-02  0.0000000E+00 -0.5050505E-02  0.7341790E-09  0.0000000E+00 -0.3251134E-03
 -0.5050482E-02  0.0000000E+00 -0.5050505E-02  0.8097968E-09  0.0000000E+00 -0.3251129E-03
 -0.5050449E-02  0.0000000E+00 -0.5050505E-02  0.8818735E-09  0.0000000E+00 -0.3251123E-03
 -0.5050376E-02  0.0000000E+00 -0.5050505E-02  0.9500618E-09  0.0000000E+00 -0.3251117E-03
 -0.5050299E-02  0.0000000E+00 -0.5050505E-02  0.1014005E-08  0.0000000E+00 -0.3251110E-03
 -0.5050178E-02  0.0000000E+00 -0.5050505E-02  0.1073368E-08  0.0000000E+00 -0.3251102E-03
 -0.5050018E-02  0.0000000E+00 -0.5050505E-02  0.1127814E-08  0.0000000E+00 -0.3251095E-03
 -0.5049710E-02  0.0000000E+00 -0.5050505E-02  0.1177018E-08  0.0000000E+00 -0.3251087E-03
 -0.5049253E-02  0.0000000E+00 -0.5050505E-02  0.1220663E-08  0.0000000E+00 -0.3251078E-03
 -0.5048636E-02  0.0000000E+00 -0.5050505E-02  0.1258445E-08  0.0000000E+00 -0.3251070E-03
 -0.5047442E-02  0.0000000E+00 -0.5050505E-02  0.1290068E-08  0.0000000E+00 -0.3251061E-03
 -0.5045727E-02  0.0000000E+00 -0.5050505E-02  0.1315252E-08  0.0000000E+00 -0.3251052E-03
 -0.5043261E-02  0.0000000E+00 -0.5050505E-02  0.1333729E-08  0.0000000E+00 -0.3251042E-03
 -0.5038714E-02  0.0000000E+00 -0.5050505E-02  0.1345247E-08  0.0000000E+00 -0.3251033E-03
 -0.5032318E-02  0.0000000E+00 -0.5050505E-02  0.1349568E-08  0.0000000E+00 -0.3251024E-03
 -0.5022454E-02  0.0000000E+00 -0.5050505E-02  0.1346473E-08  0.0000000E+00 -0.3251014E-03
 -0.5012589E-02  0.0000000E+00 -0.5050505E-02  0.1335762E-08  0.0000000E+00 -0.3251005E-03
 -0.5002725E-02  0.0000000E+00 -0.5050505E-02  0.1317252E-08  0.0000000E+00 -0.3250996E-03
 -0.4992860E-02  0.0000000E+00 -0.5050505E-02  0.1290781E-08  0.0000000E+00 -0.3250986E-03
 -0.4976523E-02  0.0000000E+00 -0.5050505E-02  0.1256208E-08  0.0000000E+00 -0.3250978E-03
 -0.4956794E-02  0.0000000E+00 -0.5050505E-02  0.1213413E-08  0.0000000E+00 -0.3250969E-03
 -0.4937066E-02  0.0000000E+00 -0.5050505E-02  0.1162297E-08  0.0000000E+00 -0.3250961E-03
 -0.4906239E-02  0.0000000E+00 -0.5050505E-02  0.1102787E-08  0.0000000E+00 -0.3250953E-03
 -0.4866782E-02  0.0000000E+00 -0.5050505E-02  0.1034826E-08  0.0000000E+00 -0.3250945E-03
 -0.4827325E-02  0.0000000E+00 -0.5050505E-02  0.9583850E-09  0.0000000E+00 -0.3250938E-03
 -0.4769372E-02  0.0000000E+00 -0.5050505E-02  0.8734527E-09  0.0000000E+00 -0.3250932E-03
 -0.4690458E-02  0.0000000E+00 -0.5050505E-02  0.7800405E-09  0.0000000E+00 -0.3250926E-03
 -0.4611543E-02  0.0000000E+00 -0.5050505E-02  0.6781804E-09  0.0000000E+00 -0.3250921E-03
 -0.4503035E-02  0.0000000E+00 -0.5050505E-02  0.5679247E-09  0.0000000E+00 -0.3250916E-03
 -0.4345206E-02  0.0000000E+00 -0.5050505E-02  0.4493382E-09  0.0000000E+00 -0.3250913E-03
 -0.4187378E-02  0.0000000E+00 -0.5050505E-02  0.3224939E-09  0.0000000E+00 -0.3250910E-03
 -0.3985156E-02  0.0000000E+00 -0.5050505E-02  0.1874633E-09  0.0000000E+00 -0.3250908E-03
 -0.3669499E-02  0.0000000E+00 -0.5050505E-02  0.4423247E-10  0.0000000E+00 -0.3250907E-03
 -0.3353842E-02  0.0000000E+00 -0.5050505E-02 -0.1069433E-09  0.0000000E+00 -0.3250907E-03
 -0.2978990E-02  0.0000000E+00 -0.5050505E-02 -0.2658766E-09  0.0000000E+00 -0.3250909E-03
 -0.2347676E-02  0.0000000E+00 -0.5050505E-02 -0.4326324E-09  0.0000000E+00 -0.3250911E-03
 -0.1716362E-02  0.0000000E+00 -0.5050505E-02 -0.6071444E-09  0.0000000E+00 -0.3250915E-03
 -0.1025842E-02  0.0000000E+00 -0.5050505E-02 -0.7893332E-09  0.0000000E+00 -0.3250919E-03
  0.2367855E-03  0.0000000E+00 -0.5050505E-02 -0.9791667E-09  0.0000000E+00 -0.3250925E-03
  0.1499413E-02  0.0000000E+00 -0.5050505E-02 -0.1176670E-08  0.0000000E+00 -0.3250933E-03
  0.2762042E-02  0.0000000E+00 -0.5050505E-02 -0.1381908E-08  0.0000000E+00 -0.3250942E-03
 -0.5050505E-02  0.0000000E+00 -0.5050505E-02 -0.1594983E-08  0.0000000E+00 -0.3250952E-03
 -0.5050505E-02  0.0000000E+00 -0.5050505E-02 -0.1816105E-08  0.0000000E+00 -0.3250964E-03
 -0.5050505E-02  0.0000000E+00 -0.5050505E-02 -0.2045584E-08  0.0000000E+00 -0.3250977E-03
 -0.5050505E-02  0.0000000E+00 -0.5050505E-02 -0.2283785E-08  0.0000000E+00 -0.3250992E-03
 -0.5050505E-02  0.0000000E+00 -0.5050505E-02 -0.2531222E-08  0.0000000E+00 -0.3251009E-03
 -0.5050505E-02  0.0000000E+00 -0.5050505E-02 -0.2788585E-08  0.0000000E+00 -0.3251027E-03
 -0.5050505E-02  0.0000000E+00 -0.5050505E-02 -0.3056706E-08  0.0000000E+00 -0.3251047E-03
 -0.5050504E-02  0.0000000E+00 -0.5050505E-02 -0.3336619E-08  0.0000000E+00 -0.3251069E-03
 -0.5050501E-02  0.0000000E+00 -0.5050505E-02 -0.3629609E-08  0.0000000E+00 -0.3251093E-03
 -0.5050495E-02  0.0000000E+00 -0.5050505E-02 -0.3937253E-08  0.0000000E+00 -0.3251120E-03
 -0.5050482E-02  0.0000000E+00 -0.5050505E-02 -0.4261449E-08  0.0000000E+00 -0.3251148E-03
 -0.5050449E-02  0.0000000E+00 -0.5050505E-02 -0.4604480E-08  0.0000000E+00 -0.3251179E-03
 -0.5050376E-02  0.0000000E+00 -0.5050505E-02 -0.4969103E-08  0.0000000E+00 -0.3251212E-03
 -0.5050299E-02  0.0000000E+00 -0.5050505E-02 -0.5358636E-08  0.0000000E+00 -0.3251247E-03
 -0.5050178E-02  0.0000000E+00 -0.5050505E-02 -0.5777048E-08  0.0000000E+00 -0.3251286E-03
 -0.5050018E-02  0.0000000E+00 -0.5050505E-02 -0.6229093E-08  0.0000000E+00 -0.3251327E-03
 -0.5049710E-02  0.0000000E+00 -0.5050505E-02 -0.6720495E-08  0.0000000E+00 -0.3251372E-03
 -0.5049253E-02  0.0000000E+00 -0.5050505E-02 -0.7258134E-08  0.0000000E+00 -0.3251420E-03
 -0.5048636E-02  0.0000000E+00 -0.5050505E-02 -0.7850306E-08  0.0000000E+00 -0.3251472E-03
 -0.5047442E-02  0.0000000E+00 -0.5050505E-02 -0.8507050E-08  0.0000000E+00 -0.3251529E-03
 -0.5045727E-02  0.0000000E+00 -0.5050505E-02 -0.9240565E-08  0.0000000E+00 -0.3251590E-03
 -0.5043261E-02  0.0000000E+00 -0.5050505E-02 -0.1006575E-07  0.0000000E+00 -0.3251656E-03
 -0.5038714E-02  0.0000000E+00 -0.5050505E-02 -0.1100087E-07  0.0000000E+00 -0.3251729E-03
 -0.5032318E-02  0.0000000E+00 -0.5050505E-02 -0.1206852E-07  0.0000000E+00 -0.3251808E-03
 -0.5022454E-02  0.0000000E+00 -0.5050505E-02 -0.1329677E-07  0.0000000E+00 -0.3251895E-03
 -0.5012589E-02  0.0000000E+00 -0.5050505E-02 -0.1472080E-07  0.0000000E+00 -0.3251991E-03
 -0.5002725E-02  0.0000000E+00 -0.5050505E-02 -0.1638507E-07  0.0000000E+00 -0.3252098E-03
 -0.4992860E-02  0.0000000E+00 -0.5050505E-02 -0.1834626E-07  0.0000000E+00 -0.3252217E-03
 -0.4976523E-02  0.0000000E+00 -0.5050505E-02 -0.2067737E-07  0.0000000E+00 -0.3252350E-03
 -0.4956794E-02  0.0000000E+00 -0.5050505E-02 -0.2347351E-07  0.0000000E+00 -0.3252501E-03
 -0.4937066E-02  0.0000000E+00 -0.5050505E-02 -0.2685999E-07  0.0000000E+00 -0.3252672E-03
 -0.4906239E-02  0.0000000E+00 -0.5050505E-02 -0.3100419E-07  0.0000000E+00 -0.3252868E-03
 -0.4866782E-02  0.0000000E+00 -0.5050505E-02 -0.3613298E-07  0.0000000E+00 -0.3253096E-03
 -0.4827325E-02  0.0000000E+00 -0.5050505E-02 -0.4255878E-07  0.0000000E+00 -0.3253361E-03
 -0.4769372E-02  0.0000000E+00 -0.5050505E-02 -0.5071960E-07  0.0000000E+00 -0.3253675E-03
 -0.4690458E-02  0.0000000E+00 -0.5050505E-02 -0.6124191E-07  0.0000000E+00 -0.3254050E-03
 -0.4611543E-02  0.0000000E+00 -0.5050505E-02 -0.7504180E-07  0.0000000E+00 -0.3254503E-03
 -0.4503035E-02  0.0000000E+00 -0.5050505E-02 -0.9349295E-07  0.0000000E+00 -0.3255060E-03
 -0.4345206E-02  0.0000000E+00 -0.5050505E-02 -0.1187144E-06  0.0000000E+00 -0.3255755E-03
 -0.4187378E-02  0.0000000E+00 -0.5050505E-02 -0.1540820E-06  0.0000000E+00 -0.3256637E-03
 -0.3985156E-02  0.0000000E+00 -0.5050505E-02 -0.2051758E-06  0.0000000E+00 -0.3257780E-03
 -0.3669499E-02  0.0000000E+00 -0.5050505E-02 -0.2816160E-06  0.0000000E+00 -0.3259292E-03
 -0.3353842E-02  0.0000000E+00 -0.5050505E-02 -0.4008077E-06  0.0000000E+00 -0.3261340E-03
 -0.2978990E-02  0.0000000E+00 -0.5050505E-02 -0.5960098E-06  0.0000000E+00 -0.3264173E-03
 -0.2347676E-02  0.0000000E+00 -0.5050505E-02 -0.9347827E-06  0.0000000E+00 -0.3268142E-03
 -0.1716362E-02  0.0000000E+00 -0.5050505E-02 -0.1563789E-05  0.0000000E+00 -0.3273597E-03
 -0.1025842E-02  0.0000000E+00 -0.5050505E-02 -0.2824207E-05  0.0000000E+00 -0.3280142E-03
  0.2367855E-03  0.0000000E+00 -0.5050505E-02 -0.5565350E-05  0.0000000E+00 -0.3282759E-03
  0.1499413E-02  0.0000000E+00 -0.5050505E-02 -0.1203401E-04  0.0000000E+00 -0.3253211E-03
  0.5287294E-02  0.0000000E+00 -0.5050505E-02 -0.2846210E-04  0.0000000E+00 -0.3052579E-03
 -0.5050505E-02  0.0000000E+00 -0.5050505E-02  0.7688634E-10  0.0000000E+00 -0.3247555E-03
 -0.5050505E-02  0.0000000E+00 -0.5050505E-02  0.2290999E-09  0.0000000E+00 -0.3247555E-03
 -0.5050505E-02  0.0000000E+00 -0.5050505E-02  0.3800661E-09  0.0000000E+00 -0.3247554E-03
 -0.5050505E-02  0.0000000E+00 -0.5050505E-02  0.5295936E-09  0.0000000E+00 -0.3247552E-03
 -0.5050505E-02  0.0000000E+00 -0.5050505E-02  0.6769428E-09  0.0000000E+00 -0.3247549E-03
 -0.5050505E-02  0.0000000E+00 -0.5050505E-02  0.8214387E-09  0.0000000E+00 -0.3247546E-03
 -0.5050504E-02  0.0000000E+00 -0.5050505E-02  0.9624764E-09  0.0000000E+00 -0.3247542E-03
 -0.5050501E-02  0.0000000E+00 -0.5050505E-02  0.1099408E-08  0.0000000E+00 -0.3247538E-03
 -0.5050495E-02  0.0000000E+00 -0.5050505E-02  0.1231636E-08  0.0000000E+00 -0.3247533E-03
 -0.5050482E-02  0.0000000E+00 -0.5050505E-02  0.1358546E-08  0.0000000E+00 -0.3247527E-03
 -0.5050449E-02  0.0000000E+00 -0.5050505E-02  0.1479533E-08  0.0000000E+00 -0.3247521E-03
 -0.5050376E-02  0.0000000E+00 -0.5050505E-02  0.1594015E-08  0.0000000E+00 -0.3247515E-03
 -0.5050299E-02  0.0000000E+00 -0.5050505E-02  0.1701399E-08  0.0000000E+00 -0.3247508E-03
 -0.5050178E-02  0.0000000E+00 -0.5050505E-02  0.1801119E-08  0.0000000E+00 -0.3247500E-03
 -0.5050018E-02  0.0000000E+00 -0.5050505E-02  0.1892616E-08  0.0000000E+00 -0.3247492E-03
 -0.5049710E-02  0.0000000E+00 -0.5050505E-02  0.1975342E-08  0.0000000E+00 -0.3247484E-03
 -0.5049253E-02  0.0000000E+00 -0.5050505E-02  0.2048770E-08  0.0000000E+00 -0.3247476E-03
 -0.5048636E-02  0.0000000E+00 -0.5050505E-02  0.2112388E-08  0.0000000E+00 -0.3247467E-03
 -0.5047442E-02  0.0000000E+00 -0.5050505E-02  0.2165702E-08  0.0000000E+00 -0.3247458E-03
 -0.5045727E-02  0.0000000E+00 -0.5050505E-02  0.2208242E-08  0.0000000E+00 -0.3247448E-03
 -0.5043261E-02  0.0000000E+00 -0.5050505E-02  0.2239560E-08  0.0000000E+00 -0.3247439E-03
 -0.5038714E-02  0.0000000E+00 -0.5050505E-02  0.2259232E-08  0.0000000E+00 -0.3247429E-03
 -0.5032318E-02  0.0000000E+00 -0.5050505E-02  0.2266863E-08  0.0000000E+00 -0.3247419E-03
 -0.5022454E-02  0.0000000E+00 -0.5050505E-02  0.2262084E-08  0.0000000E+00 -0.3247410E-03
 -0.5012589E-02  0.0000000E+00 -0.5050505E-02  0.2244558E-08  0.0000000E+00 -0.3247400E-03
 -0.5002725E-02  0.0000000E+00 -0.5050505E-02  0.2213982E-08  0.0000000E+00 -0.3247391E-03
 -0.4992860E-02  0.0000000E+00 -0.5050505E-02  0.2170083E-08  0.0000000E+00 -0.3247381E-03
 -0.4976523E-02  0.0000000E+00 -0.5050505E-02  0.2112626E-08  0.0000000E+00 -0.3247372E-03
 -0.4956794E-02  0.0000000E+00 -0.5050505E-02  0.2041410E-08  0.0000000E+00 -0.3247363E-03
 -0.4937066E-02  0.0000000E+00 -0.5050505E-02  0.1956271E-08  0.0000000E+00 -0.3247355E-03
 -0.4906239E-02  0.0000000E+00 -0.5050505E-02  0.1857084E-08  0.0000000E+00 -0.3247346E-03
 -0.4866782E-02  0.0000000E+00 -0.5050505E-02  0.1743759E-08  0.0000000E+00 -0.3247339E-03
 -0.4827325E-02  0.0000000E+00 -0.5050505E-02  0.1616245E-08  0.0000000E+00 -0.3247331E-03
 -0.4769372E-02  0.0000000E+00 -0.5050505E-02  0.1474527E-08  0.0000000E+00 -0.3247325E-03
 -0.4690458E-02  0.0000000E+00 -0.5050505E-02  0.1318626E-08  0.0000000E+00 -0.3247319E-03
 -0.4611543E-02  0.0000000E+00 -0.5050505E-02  0.1148596E-08  0.0000000E+00 -0.3247313E-03
 -0.4503035E-02  0.0000000E+00 -0.5050505E-02  0.9645315E-09  0.0000000E+00 -0.3247309E-03
 -0.4345206E-02  0.0000000E+00 -0.5050505E-02  0.7665461E-09  0.0000000E+00 -0.3247305E-03
 -0.4187378E-02  0.0000000E+00 -0.5050505E-02  0.5547561E-09  0.0000000E+00 -0.3247302E-03
 -0.3985156E-02  0.0000000E+00 -0.5050505E-02  0.3292467E-09  0.0000000E+00 -0.3247300E-03
 -0.3669499E-02  0.0000000E+00 -0.5050505E-02  0.9013998E-10  0.0000000E+00 -0.3247299E-03
 -0.3353842E-02  0.0000000E+00 -0.5050505E-02 -0.1622119E-09  0.0000000E+00 -0.3247299E-03
 -0.2978990E-02  0.0000000E+00 -0.5050505E-02 -0.4276013E-09  0.0000000E+00 -0.3247300E-03
 -0.2347676E-02  0.0000000E+00 -0.5050505E-02 -0.7059982E-09  0.0000000E+00 -0.3247302E-03
 -0.1716362E-02  0.0000000E+00 -0.5050505E-02 -0.9972933E-09  0.0000000E+00 -0.3247305E-03
 -0.1025842E-02  0.0000000E+00 -0.5050505E-02 -0.1301364E-08  0.0000000E+00 -0.3247310E-03
  0.2367855E-03  0.0000000E+00 -0.5050505E-02 -0.1618131E-08  0.0000000E+00 -0.3247316E-03
  0.1499413E-02  0.0000000E+00 -0.5050505E-02 -0.1947614E-08  0.0000000E+00 -0.3247323E-03
  0.2762042E-02  0.0000000E+00 -0.5050505E-02 -0.2289931E-08  0.0000000E+00 -0.3247332E-03
 -0.5050505E-02  0.0000000E+00 -0.5050505E-02 -0.2645238E-08  0.0000000E+00 -0.3247342E-03
 -0.5050505E-02  0.0000000E+00 -0.5050505E-02 -0.3013831E-08  0.0000000E+00 -0.3247354E-03
 -0.5050505E-02  0.0000000E+00 -0.5050505E-02 -0.3396217E-08  0.0000000E+00 -0.3247367E-03
 -0.5050505E-02  0.0000000E+00 -0.5050505E-02 -0.3793007E-08  0.0000000E+00 -0.3247382E-03
 -0.5050505E-02  0.0000000E+00 -0.5050505E-02 -0.4205005E-08  0.0000000E+00 -0.3247398E-03
 -0.5050505E-02  0.0000000E+00 -0.5050505E-02 -0.4633313E-08  0.0000000E+00 -0.3247416E-03
 -0.5050505E-02  0.0000000E+00 -0.5050505E-02 -0.5079304E-08  0.0000000E+00 -0.3247436E-03
 -0.5050504E-02  0.0000000E+00 -0.5050505E-02 -0.5544660E-08  0.0000000E+00 -0.3247458E-03
 -0.5050501E-02  0.0000000E+00 -0.5050505E-02 -0.6031460E-08  0.0000000E+00 -0.3247482E-03
 -0.5050495E-02  0.0000000E+00 -0.5050505E-02 -0.6542266E-08  0.0000000E+00 -0.3247508E-03
 -0.5050482E-02  0.0000000E+00 -0.5050505E-02 -0.7080181E-08  0.0000000E+00 -0.3247536E-03
 -0.5050449E-02  0.0000000E+00 -0.5050505E-02 -0.7648931E-08  0.0000000E+00 -0.3247567E-03
 -0.5050376E-02  0.0000000E+00 -0.5050505E-02 -0.8253000E-08  0.0000000E+00 -0.3247600E-03
 -0.5050299E-02  0.0000000E+00 -0.5050505E-02 -0.8897789E-08  0.0000000E+00 -0.3247635E-03
 -0.5050178E-02  0.0000000E+00 -0.5050505E-02 -0.9589768E-08  0.0000000E+00 -0.3247673E-03
 -0.5050018E-02  0.0000000E+00 -0.5050505E-02 -0.1033668E-07  0.0000000E+00 -0.3247714E-03
 -0.5049710E-02  0.0000000E+00 -0.5050505E-02 -0.1114782E-07  0.0000000E+00 -0.3247758E-03
 -0.5049253E-02  0.0000000E+00 -0.5050505E-02 -0.1203438E-07  0.0000000E+00 -0.3247806E-03
 -0.5048636E-02  0.0000000E+00 -0.5050505E-02 -0.1300980E-07  0.0000000E+00 -0.3247857E-03
 -0.5047442E-02  0.0000000E+00 -0.5050505E-02 -0.1409036E-07  0.0000000E+00 -0.3247913E-03
 -0.5045727E-02  0.0000000E+00 -0.5050505E-02 -0.1529579E-07  0.0000000E+00 -0.3247973E-03
 -0.5043261E-02  0.0000000E+00 -0.5050505E-02 -0.1665014E-07  0.0000000E+00 -0.3248038E-03
 -0.5038714E-02  0.0000000E+00 -0.5050505E-02 -0.1818287E-07  0.0000000E+00 -0.3248109E-03
 -0.5032318E-02  0.0000000E+00 -0.5050505E-02 -0.1993027E-07  0.0000000E+00 -0.3248187E-03
 -0.5022454E-02  0.0000000E+00 -0.5050505E-02 -0.2193736E-07  0.0000000E+00 -0.3248271E-03
 -0.5012589E-02  0.0000000E+00 -0.5050505E-02 -0.2426037E-07  0.0000000E+00 -0.3248365E-03
 -0.5002725E-02  0.0000000E+00 -0.5050505E-02 -0.2697014E-07  0.0000000E+00 -0.3248468E-03
 -0.4992860E-02  0.0000000E+00 -0.5050505E-02 -0.3015663E-07  0.0000000E+00 -0.3248582E-03
 -0.4976523E-02  0.0000000E+00 -0.5050505E-02 -0.3393521E-07  0.0000000E+00 -0.3248710E-03
 -0.4956794E-02  0.0000000E+00 -0.5050505E-02 -0.3845538E-07  0.0000000E+00 -0.3248854E-03
 -0.4937066E-02  0.0000000E+00 -0.5050505E-02 -0.4391306E-07  0.0000000E+00 -0.3249016E-03
 -0.4906239E-02  0.0000000E+00 -0.5050505E-02 -0.5056816E-07  0.0000000E+00 -0.3249201E-03
 -0.4866782E-02  0.0000000E+00 -0.5050505E-02 -0.5877019E-07  0.0000000E+00 -0.3249413E-03
 -0.4827325E-02  0.0000000E+00 -0.5050505E-02 -0.6899607E-07  0.0000000E+00 -0.3249659E-03
 -0.4769372E-02  0.0000000E+00 -0.5050505E-02 -0.8190712E-07  0.0000000E+00 -0.3249946E-03
 -0.4690458E-02  0.0000000E+00 -0.5050505E-02 -0.9843674E-07  0.0000000E+00 -0.3250283E-03
 -0.4611543E-02  0.0000000E+00 -0.5050505E-02 -0.1199280E-06  0.0000000E+00 -0.3250685E-03
 -0.4503035E-02  0.0000000E+00 -0.5050505E-02 -0.1483554E-06  0.0000000E+00 -0.3251168E-03
 -0.4345206E-02  0.0000000E+00 -0.5050505E-02 -0.1866892E-06  0.0000000E+00 -0.3251753E-03
 -0.4187378E-02  0.0000000E+00 -0.5050505E-02 -0.2395140E-06  0.0000000E+00 -0.3252470E-03
 -0.3985156E-02  0.0000000E+00 -0.5050505E-02 -0.3141015E-06  0.0000000E+00 -0.3253354E-03
 -0.3669499E-02  0.0000000E+00 -0.5050505E-02 -0.4223224E-06  0.0000000E+00 -0.3254444E-03
 -0.3353842E-02  0.0000000E+00 -0.5050505E-02 -0.5841273E-06  0.0000000E+00 -0.3255777E-03
 -0.2978990E-02  0.0000000E+00 -0.5050505E-02 -0.8339459E-06  0.0000000E+00 -0.3257341E-03
 -0.2347676E-02  0.0000000E+00 -0.5050505E-02 -0.1232294E-05  0.0000000E+00 -0.3258969E-03
 -0.1716362E-02  0.0000000E+00 -0.5050505E-02 -0.1885255E-05  0.0000000E+00 -0.3260004E-03
 -0.1025842E-02  0.0000000E+00 -0.5050505E-02 -0.2968430E-05  0.0000000E+00 -0.3258409E-03
  0.2367855E-03  0.0000000E+00 -0.5050505E-02 -0.4708848E-05  0.0000000E+00 -0.3248632E-03
  0.1499413E-02  0.0000000E+00 -0.5050505E-02 -0.7053923E-05  0.0000000E+00 -0.3218154E-03
  0.5287294E-02  0.0000000E+00 -0.5050505E-02 -0.7694452E-05  0.0000000E+00 -0.3153777E-03
 -0.5050505E-02  0.0000000E+00 -0.5050505E-02  0.1085235E-09  0.0000000E+00 -0.3242262E-03
 -0.5050505E-02  0.0000000E+00 -0.5050505E-02  0.3237024E-09  0.0000000E+00 -0.3242262E-03
 -0.5050505E-02  0.0000000E+00 -0.5050505E-02  0.5372286E-09  0.0000000E+00 -0.3242260E-03
 -0.5050505E-02  0.0000000E+00 -0.5050505E-02  0.7486852E-09  0.0000000E+00 -0.3242258E-03
 -0.5050505E-02  0.0000000E+00 -0.5050505E-02  0.9570459E-09  0.0000000E+00 -0.3242256E-03
 -0.5050505E-02  0.0000000E+00 -0.5050505E-02  0.1161375E-08  0.0000000E+00 -0.3242252E-03
 -0.5050504E-02  0.0000000E+00 -0.5050505E-02  0.1360828E-08  0.0000000E+00 -0.3242249E-03
 -0.5050501E-02  0.0000000E+00 -0.5050505E-02  0.1554505E-08  0.0000000E+00 -0.3242244E-03
 -0.5050495E-02  0.0000000E+00 -0.5050505E-02  0.1741556E-08  0.0000000E+00 -0.3242239E-03
 -0.5050482E-02  0.0000000E+00 -0.5050505E-02  0.1921124E-08  0.0000000E+00 -0.3242233E-03
 -0.5050449E-02  0.0000000E+00 -0.5050505E-02  0.2092354E-08  0.0000000E+00 -0.3242227E-03
 -0.5050376E-02  0.0000000E+00 -0.5050505E-02  0.2254424E-08  0.0000000E+00 -0.3242220E-03
 -0.5050299E-02  0.0000000E+00 -0.5050505E-02  0.2406504E-08  0.0000000E+00 -0.3242213E-03
 -0.5050178E-02  0.0000000E+00 -0.5050505E-02  0.2547793E-08  0.0000000E+00 -0.3242205E-03
 -0.5050018E-02  0.0000000E+00 -0.5050505E-02  0.2677503E-08  0.0000000E+00 -0.3242197E-03
 -0.5049710E-02  0.0000000E+00 -0.5050505E-02  0.2794863E-08  0.0000000E+00 -0.3242189E-03
 -0.5049253E-02  0.0000000E+00 -0.5050505E-02  0.2899129E-08  0.0000000E+00 -0.3242180E-03
 -0.5048636E-02  0.0000000E+00 -0.5050505E-02  0.2989578E-08  0.0000000E+00 -0.3242171E-03
 -0.5047442E-02  0.0000000E+00 -0.5050505E-02  0.3065515E-08  0.0000000E+00 -0.3242161E-03
 -0.5045727E-02  0.0000000E+00 -0.5050505E-02  0.3126277E-08  0.0000000E+00 -0.3242152E-03
 -0.5043261E-02  0.0000000E+00 -0.5050505E-02  0.3171230E-08  0.0000000E+00 -0.3242142E-03
 -0.5038714E-02  0.0000000E+00 -0.5050505E-02  0.3199778E-08  0.0000000E+00 -0.3242132E-03
 -0.5032318E-02  0.0000000E+00 -0.5050505E-02  0.3211361E-08  0.0000000E+00 -0.3242122E-03
 -0.5022454E-02  0.0000000E+00 -0.5050505E-02  0.3205462E-08  0.0000000E+00 -0.3242112E-03
 -0.5012589E-02  0.0000000E+00 -0.5050505E-02  0.3181604E-08  0.0000000E+00 -0.3242102E-03
 -0.5002725E-02  0.0000000E+00 -0.5050505E-02  0.3139358E-08  0.0000000E+00 -0.3242092E-03
 -0.4992860E-02  0.0000000E+00 -0.5050505E-02  0.3078341E-08  0.0000000E+00 -0.3242082E-03
 -0.4976523E-02  0.0000000E+00 -0.5050505E-02  0.2998222E-08  0.0000000E+00 -0.3242073E-03
 -0.4956794E-02  0.0000000E+00 -0.5050505E-02  0.2898717E-08  0.0000000E+00 -0.3242063E-03
 -0.4937066E-02  0.0000000E+00 -0.5050505E-02  0.2779598E-08  0.0000000E+00 -0.3242054E-03