title = "dataset feddes"
variables = "x", "y", "z", "vx", "vy", "vz"
zone t = "velocities, solution time =  2.600E+01 days        " i =   99, j =   99, k =    1,  f=point
 -0.5050505E-02  0.0000000E+00 -0.5050505E-02  0.4632143E-11  0.0000000E+00 -0.3506815E-03
 -0.5050505E-02  0.0000000E+00 -0.5050505E-02  0.1340624E-10  0.0000000E+00 -0.3506815E-03
 -0.5050505E-02  0.0000000E+00 -0.5050505E-02  0.2201398E-10  0.0000000E+00 -0.3506815E-03
 -0.5050505E-02  0.0000000E+00 -0.5050505E-02  0.3052531E-10  0.0000000E+00 -0.3506814E-03
 -0.5050505E-02  0.0000000E+00 -0.5050505E-02  0.3884702E-10  0.0000000E+00 -0.3506813E-03
 -0.5050505E-02  0.0000000E+00 -0.5050505E-02  0.4690555E-10  0.0000000E+00 -0.3506812E-03
 -0.5050504E-02  0.0000000E+00 -0.5050505E-02  0.5464009E-10  0.0000000E+00 -0.3506811E-03
 -0.5050501E-02  0.0000000E+00 -0.5050505E-02  0.6198840E-10  0.0000000E+00 -0.3506810E-03
 -0.5050495E-02  0.0000000E+00 -0.5050505E-02  0.6889696E-10  0.0000000E+00 -0.3506809E-03
 -0.5050482E-02  0.0000000E+00 -0.5050505E-02  0.7530269E-10  0.0000000E+00 -0.3506807E-03
 -0.5050449E-02  0.0000000E+00 -0.5050505E-02  0.8115318E-10  0.0000000E+00 -0.3506806E-03
 -0.5050376E-02  0.0000000E+00 -0.5050505E-02  0.8639192E-10  0.0000000E+00 -0.3506804E-03
 -0.5050299E-02  0.0000000E+00 -0.5050505E-02  0.9096036E-10  0.0000000E+00 -0.3506802E-03
 -0.5050178E-02  0.0000000E+00 -0.5050505E-02  0.9480754E-10  0.0000000E+00 -0.3506800E-03
 -0.5050018E-02  0.0000000E+00 -0.5050505E-02  0.9787765E-10  0.0000000E+00 -0.3506798E-03
 -0.5049710E-02  0.0000000E+00 -0.5050505E-02  0.1001170E-09  0.0000000E+00 -0.3506796E-03
 -0.5049253E-02  0.0000000E+00 -0.5050505E-02  0.1014745E-09  0.0000000E+00 -0.3506794E-03
 -0.5048636E-02  0.0000000E+00 -0.5050505E-02  0.1018987E-09  0.0000000E+00 -0.3506792E-03
 -0.5047442E-02  0.0000000E+00 -0.5050505E-02  0.1013401E-09  0.0000000E+00 -0.3506790E-03
 -0.5045727E-02  0.0000000E+00 -0.5050505E-02  0.9975004E-10  0.0000000E+00 -0.3506788E-03
 -0.5043261E-02  0.0000000E+00 -0.5050505E-02  0.9708097E-10  0.0000000E+00 -0.3506786E-03
 -0.5038714E-02  0.0000000E+00 -0.5050505E-02  0.9328714E-10  0.0000000E+00 -0.3506784E-03
 -0.5032318E-02  0.0000000E+00 -0.5050505E-02  0.8832510E-10  0.0000000E+00 -0.3506782E-03
 -0.5022454E-02  0.0000000E+00 -0.5050505E-02  0.8215427E-10  0.0000000E+00 -0.3506780E-03
 -0.5012589E-02  0.0000000E+00 -0.5050505E-02  0.7473449E-10  0.0000000E+00 -0.3506778E-03
 -0.5002725E-02  0.0000000E+00 -0.5050505E-02  0.6602733E-10  0.0000000E+00 -0.3506777E-03
 -0.4992860E-02  0.0000000E+00 -0.5050505E-02  0.5599776E-10  0.0000000E+00 -0.3506775E-03
 -0.4976523E-02  0.0000000E+00 -0.5050505E-02  0.4461091E-10  0.0000000E+00 -0.3506774E-03
 -0.4956794E-02  0.0000000E+00 -0.5050505E-02  0.3174611E-10  0.0000000E+00 -0.3506774E-03
 -0.4937066E-02  0.0000000E+00 -0.5050505E-02  0.1747602E-10  0.0000000E+00 -0.3506773E-03
 -0.4906239E-02  0.0000000E+00 -0.5050505E-02  0.1810039E-11  0.0000000E+00 -0.3506773E-03
 -0.4866782E-02  0.0000000E+00 -0.5050505E-02 -0.1535502E-10  0.0000000E+00 -0.3506773E-03
 -0.4827325E-02  0.0000000E+00 -0.5050505E-02 -0.3405735E-10  0.0000000E+00 -0.3506774E-03
 -0.4769372E-02  0.0000000E+00 -0.5050505E-02 -0.5431308E-10  0.0000000E+00 -0.3506775E-03
 -0.4690458E-02  0.0000000E+00 -0.5050505E-02 -0.7613924E-10  0.0000000E+00 -0.3506776E-03
 -0.4611543E-02  0.0000000E+00 -0.5050505E-02 -0.9956627E-10  0.0000000E+00 -0.3506778E-03
 -0.4503035E-02  0.0000000E+00 -0.5050505E-02 -0.1246303E-09  0.0000000E+00 -0.3506780E-03
 -0.4345206E-02  0.0000000E+00 -0.5050505E-02 -0.1513563E-09  0.0000000E+00 -0.3506783E-03
 -0.4187378E-02  0.0000000E+00 -0.5050505E-02 -0.1797716E-09  0.0000000E+00 -0.3506786E-03
 -0.3985156E-02  0.0000000E+00 -0.5050505E-02 -0.2099181E-09  0.0000000E+00 -0.3506790E-03
 -0.3669499E-02  0.0000000E+00 -0.5050505E-02 -0.2418435E-09  0.0000000E+00 -0.3506795E-03
 -0.3353842E-02  0.0000000E+00 -0.5050505E-02 -0.2755902E-09  0.0000000E+00 -0.3506801E-03
 -0.2978990E-02  0.0000000E+00 -0.5050505E-02 -0.3112075E-09  0.0000000E+00 -0.3506807E-03
 -0.2347676E-02  0.0000000E+00 -0.5050505E-02 -0.3487603E-09  0.0000000E+00 -0.3506814E-03
 -0.1716362E-02  0.0000000E+00 -0.5050505E-02 -0.3883228E-09  0.0000000E+00 -0.3506821E-03
 -0.1025842E-02  0.0000000E+00 -0.5050505E-02 -0.4299792E-09  0.0000000E+00 -0.3506830E-03
  0.2367855E-03  0.0000000E+00 -0.5050505E-02 -0.4738304E-09  0.0000000E+00 -0.3506839E-03
  0.1499413E-02  0.0000000E+00 -0.5050505E-02 -0.5199921E-09  0.0000000E+00 -0.3506849E-03
  0.2762042E-02  0.0000000E+00 -0.5050505E-02 -0.5685975E-09  0.0000000E+00 -0.3506861E-03
 -0.5050505E-02  0.0000000E+00 -0.5050505E-02 -0.6198105E-09  0.0000000E+00 -0.3506873E-03
 -0.5050505E-02  0.0000000E+00 -0.5050505E-02 -0.6738255E-09  0.0000000E+00 -0.3506887E-03
 -0.5050505E-02  0.0000000E+00 -0.5050505E-02 -0.7308637E-09  0.0000000E+00 -0.3506901E-03
 -0.5050505E-02  0.0000000E+00 -0.5050505E-02 -0.7911798E-09  0.0000000E+00 -0.3506917E-03
 -0.5050505E-02  0.0000000E+00 -0.5050505E-02 -0.8550778E-09  0.0000000E+00 -0.3506934E-03
 -0.5050505E-02  0.0000000E+00 -0.5050505E-02 -0.9229209E-09  0.0000000E+00 -0.3506953E-03
 -0.5050505E-02  0.0000000E+00 -0.5050505E-02 -0.9951298E-09  0.0000000E+00 -0.3506973E-03
 -0.5050504E-02  0.0000000E+00 -0.5050505E-02 -0.1072190E-08  0.0000000E+00 -0.3506994E-03
 -0.5050501E-02  0.0000000E+00 -0.5050505E-02 -0.1154669E-08  0.0000000E+00 -0.3507018E-03
 -0.5050495E-02  0.0000000E+00 -0.5050505E-02 -0.1243242E-08  0.0000000E+00 -0.3507043E-03
 -0.5050482E-02  0.0000000E+00 -0.5050505E-02 -0.1338700E-08  0.0000000E+00 -0.3507069E-03
 -0.5050449E-02  0.0000000E+00 -0.5050505E-02 -0.1441966E-08  0.0000000E+00 -0.3507098E-03
 -0.5050376E-02  0.0000000E+00 -0.5050505E-02 -0.1554125E-08  0.0000000E+00 -0.3507130E-03
 -0.5050299E-02  0.0000000E+00 -0.5050505E-02 -0.1676457E-08  0.0000000E+00 -0.3507163E-03
 -0.5050178E-02  0.0000000E+00 -0.5050505E-02 -0.1810481E-08  0.0000000E+00 -0.3507200E-03
 -0.5050018E-02  0.0000000E+00 -0.5050505E-02 -0.1957993E-08  0.0000000E+00 -0.3507239E-03
 -0.5049710E-02  0.0000000E+00 -0.5050505E-02 -0.2121133E-08  0.0000000E+00 -0.3507281E-03
 -0.5049253E-02  0.0000000E+00 -0.5050505E-02 -0.2302450E-08  0.0000000E+00 -0.3507328E-03
 -0.5048636E-02  0.0000000E+00 -0.5050505E-02 -0.2505008E-08  0.0000000E+00 -0.3507378E-03
 -0.5047442E-02  0.0000000E+00 -0.5050505E-02 -0.2732498E-08  0.0000000E+00 -0.3507432E-03
 -0.5045727E-02  0.0000000E+00 -0.5050505E-02 -0.2989392E-08  0.0000000E+00 -0.3507492E-03
 -0.5043261E-02  0.0000000E+00 -0.5050505E-02 -0.3281140E-08  0.0000000E+00 -0.3507557E-03
 -0.5038714E-02  0.0000000E+00 -0.5050505E-02 -0.3614425E-08  0.0000000E+00 -0.3507629E-03
 -0.5032318E-02  0.0000000E+00 -0.5050505E-02 -0.3997499E-08  0.0000000E+00 -0.3507708E-03
 -0.5022454E-02  0.0000000E+00 -0.5050505E-02 -0.4440628E-08  0.0000000E+00 -0.3507796E-03
 -0.5012589E-02  0.0000000E+00 -0.5050505E-02 -0.4956686E-08  0.0000000E+00 -0.3507894E-03
 -0.5002725E-02  0.0000000E+00 -0.5050505E-02 -0.5561964E-08  0.0000000E+00 -0.3508004E-03
 -0.4992860E-02  0.0000000E+00 -0.5050505E-02 -0.6277266E-08  0.0000000E+00 -0.3508127E-03
 -0.4976523E-02  0.0000000E+00 -0.5050505E-02 -0.7129451E-08  0.0000000E+00 -0.3508267E-03
 -0.4956794E-02  0.0000000E+00 -0.5050505E-02 -0.8153582E-08  0.0000000E+00 -0.3508426E-03
 -0.4937066E-02  0.0000000E+00 -0.5050505E-02 -0.9396012E-08  0.0000000E+00 -0.3508609E-03
 -0.4906239E-02  0.0000000E+00 -0.5050505E-02 -0.1091887E-07  0.0000000E+00 -0.3508820E-03
 -0.4866782E-02  0.0000000E+00 -0.5050505E-02 -0.1280668E-07  0.0000000E+00 -0.3509068E-03
 -0.4827325E-02  0.0000000E+00 -0.5050505E-02 -0.1517642E-07  0.0000000E+00 -0.3509359E-03
 -0.4769372E-02  0.0000000E+00 -0.5050505E-02 -0.1819303E-07  0.0000000E+00 -0.3509707E-03
 -0.4690458E-02  0.0000000E+00 -0.5050505E-02 -0.2209399E-07  0.0000000E+00 -0.3510127E-03
 -0.4611543E-02  0.0000000E+00 -0.5050505E-02 -0.2722948E-07  0.0000000E+00 -0.3510641E-03
 -0.4503035E-02  0.0000000E+00 -0.5050505E-02 -0.3412999E-07  0.0000000E+00 -0.3511280E-03
 -0.4345206E-02  0.0000000E+00 -0.5050505E-02 -0.4362451E-07  0.0000000E+00 -0.3512090E-03
 -0.4187378E-02  0.0000000E+00 -0.5050505E-02 -0.5705587E-07  0.0000000E+00 -0.3513139E-03
 -0.3985156E-02  0.0000000E+00 -0.5050505E-02 -0.7669274E-07  0.0000000E+00 -0.3514533E-03
 -0.3669499E-02  0.0000000E+00 -0.5050505E-02 -0.1065632E-06  0.0000000E+00 -0.3516442E-03
 -0.3353842E-02  0.0000000E+00 -0.5050505E-02 -0.1542553E-06  0.0000000E+00 -0.3519160E-03
 -0.2978990E-02  0.0000000E+00 -0.5050505E-02 -0.2351087E-06  0.0000000E+00 -0.3523217E-03
 -0.2347676E-02  0.0000000E+00 -0.5050505E-02 -0.3828403E-06  0.0000000E+00 -0.3529657E-03
 -0.1716362E-02  0.0000000E+00 -0.5050505E-02 -0.6790833E-06  0.0000000E+00 -0.3540724E-03
 -0.1025842E-02  0.0000000E+00 -0.5050505E-02 -0.1343800E-05  0.0000000E+00 -0.3561809E-03
  0.2367855E-03  0.0000000E+00 -0.5050505E-02 -0.3039258E-05  0.0000000E+00 -0.3607507E-03
  0.1499413E-02  0.0000000E+00 -0.5050505E-02 -0.7984234E-05  0.0000000E+00 -0.3722506E-03
  0.5287294E-02  0.0000000E+00 -0.5050505E-02 -0.1310433E-03  0.0000000E+00 -0.2969464E-03
 -0.5050505E-02  0.0000000E+00 -0.5050505E-02  0.1384355E-10  0.0000000E+00 -0.3504695E-03
 -0.5050505E-02  0.0000000E+00 -0.5050505E-02  0.4034605E-10  0.0000000E+00 -0.3504695E-03
 -0.5050505E-02  0.0000000E+00 -0.5050505E-02  0.6635792E-10  0.0000000E+00 -0.3504695E-03
 -0.5050505E-02  0.0000000E+00 -0.5050505E-02  0.9204957E-10  0.0000000E+00 -0.3504694E-03
 -0.5050505E-02  0.0000000E+00 -0.5050505E-02  0.1171558E-09  0.0000000E+00 -0.3504693E-03
 -0.5050505E-02  0.0000000E+00 -0.5050505E-02  0.1414666E-09  0.0000000E+00 -0.3504693E-03
 -0.5050504E-02  0.0000000E+00 -0.5050505E-02  0.1648040E-09  0.0000000E+00 -0.3504691E-03
 -0.5050501E-02  0.0000000E+00 -0.5050505E-02  0.1869788E-09  0.0000000E+00 -0.3504690E-03
 -0.5050495E-02  0.0000000E+00 -0.5050505E-02  0.2078323E-09  0.0000000E+00 -0.3504689E-03
 -0.5050482E-02  0.0000000E+00 -0.5050505E-02  0.2271775E-09  0.0000000E+00 -0.3504687E-03
 -0.5050449E-02  0.0000000E+00 -0.5050505E-02  0.2448520E-09  0.0000000E+00 -0.3504686E-03
 -0.5050376E-02  0.0000000E+00 -0.5050505E-02  0.2606898E-09  0.0000000E+00 -0.3504684E-03
 -0.5050299E-02  0.0000000E+00 -0.5050505E-02  0.2745149E-09  0.0000000E+00 -0.3504682E-03
 -0.5050178E-02  0.0000000E+00 -0.5050505E-02  0.2861714E-09  0.0000000E+00 -0.3504680E-03
 -0.5050018E-02  0.0000000E+00 -0.5050505E-02  0.2954940E-09  0.0000000E+00 -0.3504678E-03
 -0.5049710E-02  0.0000000E+00 -0.5050505E-02  0.3023211E-09  0.0000000E+00 -0.3504676E-03
 -0.5049253E-02  0.0000000E+00 -0.5050505E-02  0.3064985E-09  0.0000000E+00 -0.3504674E-03
 -0.5048636E-02  0.0000000E+00 -0.5050505E-02  0.3078721E-09  0.0000000E+00 -0.3504672E-03
 -0.5047442E-02  0.0000000E+00 -0.5050505E-02  0.3062929E-09  0.0000000E+00 -0.3504669E-03
 -0.5045727E-02  0.0000000E+00 -0.5050505E-02  0.3016142E-09  0.0000000E+00 -0.3504667E-03
 -0.5043261E-02  0.0000000E+00 -0.5050505E-02  0.2936942E-09  0.0000000E+00 -0.3504665E-03
 -0.5038714E-02  0.0000000E+00 -0.5050505E-02  0.2823949E-09  0.0000000E+00 -0.3504663E-03
 -0.5032318E-02  0.0000000E+00 -0.5050505E-02  0.2675856E-09  0.0000000E+00 -0.3504661E-03
 -0.5022454E-02  0.0000000E+00 -0.5050505E-02  0.2491455E-09  0.0000000E+00 -0.3504659E-03
 -0.5012589E-02  0.0000000E+00 -0.5050505E-02  0.2269551E-09  0.0000000E+00 -0.3504658E-03
 -0.5002725E-02  0.0000000E+00 -0.5050505E-02  0.2008964E-09  0.0000000E+00 -0.3504656E-03
 -0.4992860E-02  0.0000000E+00 -0.5050505E-02  0.1708597E-09  0.0000000E+00 -0.3504655E-03
 -0.4976523E-02  0.0000000E+00 -0.5050505E-02  0.1367182E-09  0.0000000E+00 -0.3504654E-03
 -0.4956794E-02  0.0000000E+00 -0.5050505E-02  0.9821110E-10  0.0000000E+00 -0.3504653E-03
 -0.4937066E-02  0.0000000E+00 -0.5050505E-02  0.5547263E-10  0.0000000E+00 -0.3504652E-03
 -0.4906239E-02  0.0000000E+00 -0.5050505E-02  0.8479438E-11  0.0000000E+00 -0.3504652E-03
 -0.4866782E-02  0.0000000E+00 -0.5050505E-02 -0.4299389E-10  0.0000000E+00 -0.3504652E-03
 -0.4827325E-02  0.0000000E+00 -0.5050505E-02 -0.9906968E-10  0.0000000E+00 -0.3504652E-03
 -0.4769372E-02  0.0000000E+00 -0.5050505E-02 -0.1598140E-09  0.0000000E+00 -0.3504653E-03
 -0.4690458E-02  0.0000000E+00 -0.5050505E-02 -0.2252772E-09  0.0000000E+00 -0.3504655E-03
 -0.4611543E-02  0.0000000E+00 -0.5050505E-02 -0.2955344E-09  0.0000000E+00 -0.3504656E-03
 -0.4503035E-02  0.0000000E+00 -0.5050505E-02 -0.3706976E-09  0.0000000E+00 -0.3504659E-03
 -0.4345206E-02  0.0000000E+00 -0.5050505E-02 -0.4508567E-09  0.0000000E+00 -0.3504661E-03
 -0.4187378E-02  0.0000000E+00 -0.5050505E-02 -0.5360898E-09  0.0000000E+00 -0.3504665E-03
 -0.3985156E-02  0.0000000E+00 -0.5050505E-02 -0.6265048E-09  0.0000000E+00 -0.3504669E-03
 -0.3669499E-02  0.0000000E+00 -0.5050505E-02 -0.7222453E-09  0.0000000E+00 -0.3504674E-03
 -0.3353842E-02  0.0000000E+00 -0.5050505E-02 -0.8234495E-09  0.0000000E+00 -0.3504679E-03
 -0.2978990E-02  0.0000000E+00 -0.5050505E-02 -0.9302633E-09  0.0000000E+00 -0.3504685E-03
 -0.2347676E-02  0.0000000E+00 -0.5050505E-02 -0.1042871E-08  0.0000000E+00 -0.3504692E-03
 -0.1716362E-02  0.0000000E+00 -0.5050505E-02 -0.1161493E-08  0.0000000E+00 -0.3504699E-03
 -0.1025842E-02  0.0000000E+00 -0.5050505E-02 -0.1286379E-08  0.0000000E+00 -0.3504708E-03
  0.2367855E-03  0.0000000E+00 -0.5050505E-02 -0.1417829E-08  0.0000000E+00 -0.3504717E-03
  0.1499413E-02  0.0000000E+00 -0.5050505E-02 -0.1556193E-08  0.0000000E+00 -0.3504727E-03
  0.2762042E-02  0.0000000E+00 -0.5050505E-02 -0.1701868E-08  0.0000000E+00 -0.3504739E-03
 -0.5050505E-02  0.0000000E+00 -0.5050505E-02 -0.1855327E-08  0.0000000E+00 -0.3504751E-03
 -0.5050505E-02  0.0000000E+00 -0.5050505E-02 -0.2017148E-08  0.0000000E+00 -0.3504764E-03
 -0.5050505E-02  0.0000000E+00 -0.5050505E-02 -0.2187999E-08  0.0000000E+00 -0.3504779E-03
 -0.5050505E-02  0.0000000E+00 -0.5050505E-02 -0.2368643E-08  0.0000000E+00 -0.3504795E-03
 -0.5050505E-02  0.0000000E+00 -0.5050505E-02 -0.2559976E-08  0.0000000E+00 -0.3504812E-03
 -0.5050505E-02  0.0000000E+00 -0.5050505E-02 -0.2763066E-08  0.0000000E+00 -0.3504830E-03
 -0.5050505E-02  0.0000000E+00 -0.5050505E-02 -0.2979170E-08  0.0000000E+00 -0.3504850E-03
 -0.5050504E-02  0.0000000E+00 -0.5050505E-02 -0.3209742E-08  0.0000000E+00 -0.3504872E-03
 -0.5050501E-02  0.0000000E+00 -0.5050505E-02 -0.3456472E-08  0.0000000E+00 -0.3504895E-03
 -0.5050495E-02  0.0000000E+00 -0.5050505E-02 -0.3721351E-08  0.0000000E+00 -0.3504920E-03
 -0.5050482E-02  0.0000000E+00 -0.5050505E-02 -0.4006728E-08  0.0000000E+00 -0.3504946E-03
 -0.5050449E-02  0.0000000E+00 -0.5050505E-02 -0.4315355E-08  0.0000000E+00 -0.3504975E-03
 -0.5050376E-02  0.0000000E+00 -0.5050505E-02 -0.4650455E-08  0.0000000E+00 -0.3505006E-03
 -0.5050299E-02  0.0000000E+00 -0.5050505E-02 -0.5015830E-08  0.0000000E+00 -0.3505040E-03
 -0.5050178E-02  0.0000000E+00 -0.5050505E-02 -0.5415977E-08  0.0000000E+00 -0.3505076E-03
 -0.5050018E-02  0.0000000E+00 -0.5050505E-02 -0.5856230E-08  0.0000000E+00 -0.3505115E-03
 -0.5049710E-02  0.0000000E+00 -0.5050505E-02 -0.6342927E-08  0.0000000E+00 -0.3505157E-03
 -0.5049253E-02  0.0000000E+00 -0.5050505E-02 -0.6883629E-08  0.0000000E+00 -0.3505203E-03
 -0.5048636E-02  0.0000000E+00 -0.5050505E-02 -0.7487400E-08  0.0000000E+00 -0.3505252E-03
 -0.5047442E-02  0.0000000E+00 -0.5050505E-02 -0.8165161E-08  0.0000000E+00 -0.3505306E-03
 -0.5045727E-02  0.0000000E+00 -0.5050505E-02 -0.8930130E-08  0.0000000E+00 -0.3505365E-03
 -0.5043261E-02  0.0000000E+00 -0.5050505E-02 -0.9798401E-08  0.0000000E+00 -0.3505430E-03
 -0.5038714E-02  0.0000000E+00 -0.5050505E-02 -0.1078969E-07  0.0000000E+00 -0.3505501E-03
 -0.5032318E-02  0.0000000E+00 -0.5050505E-02 -0.1192830E-07  0.0000000E+00 -0.3505579E-03
 -0.5022454E-02  0.0000000E+00 -0.5050505E-02 -0.1324445E-07  0.0000000E+00 -0.3505665E-03
 -0.5012589E-02  0.0000000E+00 -0.5050505E-02 -0.1477596E-07  0.0000000E+00 -0.3505762E-03
 -0.5002725E-02  0.0000000E+00 -0.5050505E-02 -0.1657060E-07  0.0000000E+00 -0.3505869E-03
 -0.4992860E-02  0.0000000E+00 -0.5050505E-02 -0.1868928E-07  0.0000000E+00 -0.3505990E-03
 -0.4976523E-02  0.0000000E+00 -0.5050505E-02 -0.2121045E-07  0.0000000E+00 -0.3506127E-03
 -0.4956794E-02  0.0000000E+00 -0.5050505E-02 -0.2423626E-07  0.0000000E+00 -0.3506282E-03
 -0.4937066E-02  0.0000000E+00 -0.5050505E-02 -0.2790139E-07  0.0000000E+00 -0.3506460E-03
 -0.4906239E-02  0.0000000E+00 -0.5050505E-02 -0.3238570E-07  0.0000000E+00 -0.3506665E-03
 -0.4866782E-02  0.0000000E+00 -0.5050505E-02 -0.3793300E-07  0.0000000E+00 -0.3506903E-03
 -0.4827325E-02  0.0000000E+00 -0.5050505E-02 -0.4487908E-07  0.0000000E+00 -0.3507184E-03
 -0.4769372E-02  0.0000000E+00 -0.5050505E-02 -0.5369477E-07  0.0000000E+00 -0.3507516E-03
 -0.4690458E-02  0.0000000E+00 -0.5050505E-02 -0.6505353E-07  0.0000000E+00 -0.3507914E-03
 -0.4611543E-02  0.0000000E+00 -0.5050505E-02 -0.7994024E-07  0.0000000E+00 -0.3508398E-03
 -0.4503035E-02  0.0000000E+00 -0.5050505E-02 -0.9983184E-07  0.0000000E+00 -0.3508993E-03
 -0.4345206E-02  0.0000000E+00 -0.5050505E-02 -0.1270068E-06  0.0000000E+00 -0.3509738E-03
 -0.4187378E-02  0.0000000E+00 -0.5050505E-02 -0.1650953E-06  0.0000000E+00 -0.3510685E-03
 -0.3985156E-02  0.0000000E+00 -0.5050505E-02 -0.2200983E-06  0.0000000E+00 -0.3511913E-03
 -0.3669499E-02  0.0000000E+00 -0.5050505E-02 -0.3023631E-06  0.0000000E+00 -0.3513541E-03
 -0.3353842E-02  0.0000000E+00 -0.5050505E-02 -0.4306128E-06  0.0000000E+00 -0.3515747E-03
 -0.2978990E-02  0.0000000E+00 -0.5050505E-02 -0.6406342E-06  0.0000000E+00 -0.3518802E-03
 -0.2347676E-02  0.0000000E+00 -0.5050505E-02 -0.1005146E-05  0.0000000E+00 -0.3523084E-03
 -0.1716362E-02  0.0000000E+00 -0.5050505E-02 -0.1682084E-05  0.0000000E+00 -0.3528975E-03
 -0.1025842E-02  0.0000000E+00 -0.5050505E-02 -0.3039079E-05  0.0000000E+00 -0.3536056E-03
  0.2367855E-03  0.0000000E+00 -0.5050505E-02 -0.5992047E-05  0.0000000E+00 -0.3538925E-03
  0.1499413E-02  0.0000000E+00 -0.5050505E-02 -0.1296644E-04  0.0000000E+00 -0.3507106E-03
  0.5287294E-02  0.0000000E+00 -0.5050505E-02 -0.3069793E-04  0.0000000E+00 -0.3290413E-03
 -0.5050505E-02  0.0000000E+00 -0.5050505E-02  0.2310081E-10  0.0000000E+00 -0.3500548E-03
 -0.5050505E-02  0.0000000E+00 -0.5050505E-02  0.6777782E-10  0.0000000E+00 -0.3500548E-03
 -0.5050505E-02  0.0000000E+00 -0.5050505E-02  0.1116982E-09  0.0000000E+00 -0.3500547E-03
 -0.5050505E-02  0.0000000E+00 -0.5050505E-02  0.1550286E-09  0.0000000E+00 -0.3500547E-03
 -0.5050505E-02  0.0000000E+00 -0.5050505E-02  0.1973475E-09  0.0000000E+00 -0.3500546E-03
 -0.5050505E-02  0.0000000E+00 -0.5050505E-02  0.2383219E-09  0.0000000E+00 -0.3500545E-03
 -0.5050504E-02  0.0000000E+00 -0.5050505E-02  0.2776678E-09  0.0000000E+00 -0.3500544E-03
 -0.5050501E-02  0.0000000E+00 -0.5050505E-02  0.3150681E-09  0.0000000E+00 -0.3500543E-03
 -0.5050495E-02  0.0000000E+00 -0.5050505E-02  0.3502565E-09  0.0000000E+00 -0.3500541E-03
 -0.5050482E-02  0.0000000E+00 -0.5050505E-02  0.3829287E-09  0.0000000E+00 -0.3500540E-03
 -0.5050449E-02  0.0000000E+00 -0.5050505E-02  0.4128041E-09  0.0000000E+00 -0.3500538E-03
 -0.5050376E-02  0.0000000E+00 -0.5050505E-02  0.4396094E-09  0.0000000E+00 -0.3500536E-03
 -0.5050299E-02  0.0000000E+00 -0.5050505E-02  0.4630527E-09  0.0000000E+00 -0.3500534E-03
 -0.5050178E-02  0.0000000E+00 -0.5050505E-02  0.4828680E-09  0.0000000E+00 -0.3500532E-03
 -0.5050018E-02  0.0000000E+00 -0.5050505E-02  0.4987819E-09  0.0000000E+00 -0.3500530E-03
 -0.5049710E-02  0.0000000E+00 -0.5050505E-02  0.5105245E-09  0.0000000E+00 -0.3500528E-03
 -0.5049253E-02  0.0000000E+00 -0.5050505E-02  0.5178365E-09  0.0000000E+00 -0.3500525E-03
 -0.5048636E-02  0.0000000E+00 -0.5050505E-02  0.5204617E-09  0.0000000E+00 -0.3500523E-03
 -0.5047442E-02  0.0000000E+00 -0.5050505E-02  0.5181489E-09  0.0000000E+00 -0.3500521E-03
 -0.5045727E-02  0.0000000E+00 -0.5050505E-02  0.5106537E-09  0.0000000E+00 -0.3500519E-03
 -0.5043261E-02  0.0000000E+00 -0.5050505E-02  0.4977402E-09  0.0000000E+00 -0.3500516E-03
 -0.5038714E-02  0.0000000E+00 -0.5050505E-02  0.4791772E-09  0.0000000E+00 -0.3500514E-03
 -0.5032318E-02  0.0000000E+00 -0.5050505E-02  0.4547442E-09  0.0000000E+00 -0.3500512E-03
 -0.5022454E-02  0.0000000E+00 -0.5050505E-02  0.4242407E-09  0.0000000E+00 -0.3500510E-03
 -0.5012589E-02  0.0000000E+00 -0.5050505E-02  0.3874724E-09  0.0000000E+00 -0.3500508E-03
 -0.5002725E-02  0.0000000E+00 -0.5050505E-02  0.3442385E-09  0.0000000E+00 -0.3500507E-03
 -0.4992860E-02  0.0000000E+00 -0.5050505E-02  0.2943445E-09  0.0000000E+00 -0.3500505E-03
 -0.4976523E-02  0.0000000E+00 -0.5050505E-02  0.2375411E-09  0.0000000E+00 -0.3500504E-03
 -0.4956794E-02  0.0000000E+00 -0.5050505E-02  0.1735765E-09  0.0000000E+00 -0.3500503E-03
 -0.4937066E-02  0.0000000E+00 -0.5050505E-02  0.1025332E-09  0.0000000E+00 -0.3500502E-03
 -0.4906239E-02  0.0000000E+00 -0.5050505E-02  0.2424875E-10  0.0000000E+00 -0.3500502E-03
 -0.4866782E-02  0.0000000E+00 -0.5050505E-02 -0.6148673E-10  0.0000000E+00 -0.3500502E-03
 -0.4827325E-02  0.0000000E+00 -0.5050505E-02 -0.1548725E-09  0.0000000E+00 -0.3500502E-03
 -0.4769372E-02  0.0000000E+00 -0.5050505E-02 -0.2560502E-09  0.0000000E+00 -0.3500503E-03
 -0.4690458E-02  0.0000000E+00 -0.5050505E-02 -0.3651235E-09  0.0000000E+00 -0.3500504E-03
 -0.4611543E-02  0.0000000E+00 -0.5050505E-02 -0.4821860E-09  0.0000000E+00 -0.3500506E-03
 -0.4503035E-02  0.0000000E+00 -0.5050505E-02 -0.6074052E-09  0.0000000E+00 -0.3500508E-03
 -0.4345206E-02  0.0000000E+00 -0.5050505E-02 -0.7409600E-09  0.0000000E+00 -0.3500511E-03
 -0.4187378E-02  0.0000000E+00 -0.5050505E-02 -0.8829932E-09  0.0000000E+00 -0.3500514E-03
 -0.3985156E-02  0.0000000E+00 -0.5050505E-02 -0.1033653E-08  0.0000000E+00 -0.3500518E-03
 -0.3669499E-02  0.0000000E+00 -0.5050505E-02 -0.1193156E-08  0.0000000E+00 -0.3500522E-03
 -0.3353842E-02  0.0000000E+00 -0.5050505E-02 -0.1361749E-08  0.0000000E+00 -0.3500528E-03
 -0.2978990E-02  0.0000000E+00 -0.5050505E-02 -0.1539679E-08  0.0000000E+00 -0.3500534E-03
 -0.2347676E-02  0.0000000E+00 -0.5050505E-02 -0.1727237E-08  0.0000000E+00 -0.3500540E-03
 -0.1716362E-02  0.0000000E+00 -0.5050505E-02 -0.1924778E-08  0.0000000E+00 -0.3500548E-03
 -0.1025842E-02  0.0000000E+00 -0.5050505E-02 -0.2132705E-08  0.0000000E+00 -0.3500556E-03
  0.2367855E-03  0.0000000E+00 -0.5050505E-02 -0.2351503E-08  0.0000000E+00 -0.3500565E-03
  0.1499413E-02  0.0000000E+00 -0.5050505E-02 -0.2581757E-08  0.0000000E+00 -0.3500575E-03
  0.2762042E-02  0.0000000E+00 -0.5050505E-02 -0.2824126E-08  0.0000000E+00 -0.3500587E-03
 -0.5050505E-02  0.0000000E+00 -0.5050505E-02 -0.3079373E-08  0.0000000E+00 -0.3500599E-03
 -0.5050505E-02  0.0000000E+00 -0.5050505E-02 -0.3348416E-08  0.0000000E+00 -0.3500612E-03
 -0.5050505E-02  0.0000000E+00 -0.5050505E-02 -0.3632364E-08  0.0000000E+00 -0.3500626E-03
 -0.5050505E-02  0.0000000E+00 -0.5050505E-02 -0.3932490E-08  0.0000000E+00 -0.3500642E-03
 -0.5050505E-02  0.0000000E+00 -0.5050505E-02 -0.4250255E-08  0.0000000E+00 -0.3500659E-03
 -0.5050505E-02  0.0000000E+00 -0.5050505E-02 -0.4587386E-08  0.0000000E+00 -0.3500677E-03
 -0.5050505E-02  0.0000000E+00 -0.5050505E-02 -0.4945934E-08  0.0000000E+00 -0.3500697E-03
 -0.5050504E-02  0.0000000E+00 -0.5050505E-02 -0.5328299E-08  0.0000000E+00 -0.3500718E-03
 -0.5050501E-02  0.0000000E+00 -0.5050505E-02 -0.5737258E-08  0.0000000E+00 -0.3500741E-03
 -0.5050495E-02  0.0000000E+00 -0.5050505E-02 -0.6176059E-08  0.0000000E+00 -0.3500766E-03
 -0.5050482E-02  0.0000000E+00 -0.5050505E-02 -0.6648529E-08  0.0000000E+00 -0.3500792E-03
 -0.5050449E-02  0.0000000E+00 -0.5050505E-02 -0.7159169E-08  0.0000000E+00 -0.3500821E-03
 -0.5050376E-02  0.0000000E+00 -0.5050505E-02 -0.7713260E-08  0.0000000E+00 -0.3500851E-03
 -0.5050299E-02  0.0000000E+00 -0.5050505E-02 -0.8317005E-08  0.0000000E+00 -0.3500884E-03
 -0.5050178E-02  0.0000000E+00 -0.5050505E-02 -0.8977736E-08  0.0000000E+00 -0.3500920E-03
 -0.5050018E-02  0.0000000E+00 -0.5050505E-02 -0.9704138E-08  0.0000000E+00 -0.3500958E-03
 -0.5049710E-02  0.0000000E+00 -0.5050505E-02 -0.1050653E-07  0.0000000E+00 -0.3501000E-03
 -0.5049253E-02  0.0000000E+00 -0.5050505E-02 -0.1139722E-07  0.0000000E+00 -0.3501045E-03
 -0.5048636E-02  0.0000000E+00 -0.5050505E-02 -0.1239090E-07  0.0000000E+00 -0.3501093E-03
 -0.5047442E-02  0.0000000E+00 -0.5050505E-02 -0.1350529E-07  0.0000000E+00 -0.3501146E-03
 -0.5045727E-02  0.0000000E+00 -0.5050505E-02 -0.1476178E-07  0.0000000E+00 -0.3501204E-03
 -0.5043261E-02  0.0000000E+00 -0.5050505E-02 -0.1618635E-07  0.0000000E+00 -0.3501267E-03
 -0.5038714E-02  0.0000000E+00 -0.5050505E-02 -0.1781079E-07  0.0000000E+00 -0.3501336E-03
 -0.5032318E-02  0.0000000E+00 -0.5050505E-02 -0.1967419E-07  0.0000000E+00 -0.3501412E-03
 -0.5022454E-02  0.0000000E+00 -0.5050505E-02 -0.2182498E-07  0.0000000E+00 -0.3501496E-03
 -0.5012589E-02  0.0000000E+00 -0.5050505E-02 -0.2432365E-07  0.0000000E+00 -0.3501589E-03
 -0.5002725E-02  0.0000000E+00 -0.5050505E-02 -0.2724631E-07  0.0000000E+00 -0.3501693E-03
 -0.4992860E-02  0.0000000E+00 -0.5050505E-02 -0.3068966E-07  0.0000000E+00 -0.3501809E-03
 -0.4976523E-02  0.0000000E+00 -0.5050505E-02 -0.3477767E-07  0.0000000E+00 -0.3501939E-03
 -0.4956794E-02  0.0000000E+00 -0.5050505E-02 -0.3967099E-07  0.0000000E+00 -0.3502087E-03
 -0.4937066E-02  0.0000000E+00 -0.5050505E-02 -0.4558017E-07  0.0000000E+00 -0.3502255E-03
 -0.4906239E-02  0.0000000E+00 -0.5050505E-02 -0.5278459E-07  0.0000000E+00 -0.3502447E-03
 -0.4866782E-02  0.0000000E+00 -0.5050505E-02 -0.6165995E-07  0.0000000E+00 -0.3502670E-03
 -0.4827325E-02  0.0000000E+00 -0.5050505E-02 -0.7271899E-07  0.0000000E+00 -0.3502928E-03
 -0.4769372E-02  0.0000000E+00 -0.5050505E-02 -0.8667279E-07  0.0000000E+00 -0.3503231E-03
 -0.4690458E-02  0.0000000E+00 -0.5050505E-02 -0.1045251E-06  0.0000000E+00 -0.3503590E-03
 -0.4611543E-02  0.0000000E+00 -0.5050505E-02 -0.1277205E-06  0.0000000E+00 -0.3504017E-03
 -0.4503035E-02  0.0000000E+00 -0.5050505E-02 -0.1583827E-06  0.0000000E+00 -0.3504533E-03
 -0.4345206E-02  0.0000000E+00 -0.5050505E-02 -0.1997073E-06  0.0000000E+00 -0.3505160E-03
 -0.4187378E-02  0.0000000E+00 -0.5050505E-02 -0.2566273E-06  0.0000000E+00 -0.3505929E-03
 -0.3985156E-02  0.0000000E+00 -0.5050505E-02 -0.3369682E-06  0.0000000E+00 -0.3506879E-03
 -0.3669499E-02  0.0000000E+00 -0.5050505E-02 -0.4535090E-06  0.0000000E+00 -0.3508053E-03
 -0.3353842E-02  0.0000000E+00 -0.5050505E-02 -0.6277327E-06  0.0000000E+00 -0.3509489E-03
 -0.2978990E-02  0.0000000E+00 -0.5050505E-02 -0.8967311E-06  0.0000000E+00 -0.3511177E-03
 -0.2347676E-02  0.0000000E+00 -0.5050505E-02 -0.1325738E-05  0.0000000E+00 -0.3512938E-03
 -0.1716362E-02  0.0000000E+00 -0.5050505E-02 -0.2029205E-05  0.0000000E+00 -0.3514065E-03
 -0.1025842E-02  0.0000000E+00 -0.5050505E-02 -0.3196832E-05  0.0000000E+00 -0.3512362E-03
  0.2367855E-03  0.0000000E+00 -0.5050505E-02 -0.5074557E-05  0.0000000E+00 -0.3501832E-03
  0.1499413E-02  0.0000000E+00 -0.5050505E-02 -0.7608156E-05  0.0000000E+00 -0.3468933E-03
  0.5287294E-02  0.0000000E+00 -0.5050505E-02 -0.8307995E-05  0.0000000E+00 -0.3399329E-03
 -0.5050505E-02  0.0000000E+00 -0.5050505E-02  0.3265002E-10  0.0000000E+00 -0.3494461E-03
 -0.5050505E-02  0.0000000E+00 -0.5050505E-02  0.9618107E-10  0.0000000E+00 -0.3494461E-03
 -0.5050505E-02  0.0000000E+00 -0.5050505E-02  0.1587680E-09  0.0000000E+00 -0.3494460E-03
 -0.5050505E-02  0.0000000E+00 -0.5050505E-02  0.2204741E-09  0.0000000E+00 -0.3494460E-03
 -0.5050505E-02  0.0000000E+00 -0.5050505E-02  0.2807205E-09  0.0000000E+00 -0.3494459E-03
 -0.5050505E-02  0.0000000E+00 -0.5050505E-02  0.3390535E-09  0.0000000E+00 -0.3494458E-03
 -0.5050504E-02  0.0000000E+00 -0.5050505E-02  0.3950890E-09  0.0000000E+00 -0.3494457E-03
 -0.5050501E-02  0.0000000E+00 -0.5050505E-02  0.4483890E-09  0.0000000E+00 -0.3494455E-03
 -0.5050495E-02  0.0000000E+00 -0.5050505E-02  0.4985714E-09  0.0000000E+00 -0.3494454E-03
 -0.5050482E-02  0.0000000E+00 -0.5050505E-02  0.5452193E-09  0.0000000E+00 -0.3494452E-03
 -0.5050449E-02  0.0000000E+00 -0.5050505E-02  0.5879322E-09  0.0000000E+00 -0.3494450E-03
 -0.5050376E-02  0.0000000E+00 -0.5050505E-02  0.6263246E-09  0.0000000E+00 -0.3494448E-03
 -0.5050299E-02  0.0000000E+00 -0.5050505E-02  0.6599904E-09  0.0000000E+00 -0.3494446E-03
 -0.5050178E-02  0.0000000E+00 -0.5050505E-02  0.6885511E-09  0.0000000E+00 -0.3494444E-03
 -0.5050018E-02  0.0000000E+00 -0.5050505E-02  0.7116232E-09  0.0000000E+00 -0.3494442E-03
 -0.5049710E-02  0.0000000E+00 -0.5050505E-02  0.7288275E-09  0.0000000E+00 -0.3494440E-03
 -0.5049253E-02  0.0000000E+00 -0.5050505E-02  0.7397984E-09  0.0000000E+00 -0.3494437E-03
 -0.5048636E-02  0.0000000E+00 -0.5050505E-02  0.7441758E-09  0.0000000E+00 -0.3494435E-03
 -0.5047442E-02  0.0000000E+00 -0.5050505E-02  0.7416052E-09  0.0000000E+00 -0.3494432E-03
 -0.5045727E-02  0.0000000E+00 -0.5050505E-02  0.7317428E-09  0.0000000E+00 -0.3494430E-03
 -0.5043261E-02  0.0000000E+00 -0.5050505E-02  0.7142575E-09  0.0000000E+00 -0.3494428E-03
 -0.5038714E-02  0.0000000E+00 -0.5050505E-02  0.6888267E-09  0.0000000E+00 -0.3494425E-03
 -0.5032318E-02  0.0000000E+00 -0.5050505E-02  0.6551365E-09  0.0000000E+00 -0.3494423E-03
 -0.5022454E-02  0.0000000E+00 -0.5050505E-02  0.6128990E-09  0.0000000E+00 -0.3494421E-03
 -0.5012589E-02  0.0000000E+00 -0.5050505E-02  0.5618513E-09  0.0000000E+00 -0.3494419E-03
 -0.5002725E-02  0.0000000E+00 -0.5050505E-02  0.5017170E-09  0.0000000E+00 -0.3494417E-03
 -0.4992860E-02  0.0000000E+00 -0.5050505E-02  0.4322054E-09  0.0000000E+00 -0.3494416E-03
 -0.4976523E-02  0.0000000E+00 -0.5050505E-02  0.3529381E-09  0.0000000E+00 -0.3494414E-03
 -0.4956794E-02  0.0000000E+00 -0.5050505E-02  0.2637263E-09  0.0000000E+00 -0.3494413E-03
 -0.4937066E-02  0.0000000E+00 -0.5050505E-02  0.1645703E-09  0.0000000E+00 -0.3494412E-03