title = "dataset feddes"
variables = "x", "y", "z", "vx", "vy", "vz"
zone t = "velocities, solution time =  2.200E+01 days        " i =   99, j =   99, k =    1,  f=point
 -0.5050505E-02  0.0000000E+00 -0.5050505E-02 -0.7365791E-12  0.0000000E+00 -0.3914652E-03
 -0.5050505E-02  0.0000000E+00 -0.5050505E-02 -0.2741650E-11  0.0000000E+00 -0.3914652E-03
 -0.5050505E-02  0.0000000E+00 -0.5050505E-02 -0.4764313E-11  0.0000000E+00 -0.3914652E-03
 -0.5050505E-02  0.0000000E+00 -0.5050505E-02 -0.6800078E-11  0.0000000E+00 -0.3914652E-03
 -0.5050505E-02  0.0000000E+00 -0.5050505E-02 -0.8930813E-11  0.0000000E+00 -0.3914653E-03
 -0.5050505E-02  0.0000000E+00 -0.5050505E-02 -0.1118286E-10  0.0000000E+00 -0.3914653E-03
 -0.5050504E-02  0.0000000E+00 -0.5050505E-02 -0.1358666E-10  0.0000000E+00 -0.3914653E-03
 -0.5050501E-02  0.0000000E+00 -0.5050505E-02 -0.1616716E-10  0.0000000E+00 -0.3914653E-03
 -0.5050495E-02  0.0000000E+00 -0.5050505E-02 -0.1895980E-10  0.0000000E+00 -0.3914654E-03
 -0.5050482E-02  0.0000000E+00 -0.5050505E-02 -0.2198710E-10  0.0000000E+00 -0.3914654E-03
 -0.5050449E-02  0.0000000E+00 -0.5050505E-02 -0.2527860E-10  0.0000000E+00 -0.3914655E-03
 -0.5050376E-02  0.0000000E+00 -0.5050505E-02 -0.2887319E-10  0.0000000E+00 -0.3914655E-03
 -0.5050299E-02  0.0000000E+00 -0.5050505E-02 -0.3279099E-10  0.0000000E+00 -0.3914656E-03
 -0.5050178E-02  0.0000000E+00 -0.5050505E-02 -0.3705562E-10  0.0000000E+00 -0.3914657E-03
 -0.5050018E-02  0.0000000E+00 -0.5050505E-02 -0.4170236E-10  0.0000000E+00 -0.3914657E-03
 -0.5049710E-02  0.0000000E+00 -0.5050505E-02 -0.4676171E-10  0.0000000E+00 -0.3914658E-03
 -0.5049253E-02  0.0000000E+00 -0.5050505E-02 -0.5225768E-10  0.0000000E+00 -0.3914659E-03
 -0.5048636E-02  0.0000000E+00 -0.5050505E-02 -0.5821410E-10  0.0000000E+00 -0.3914661E-03
 -0.5047442E-02  0.0000000E+00 -0.5050505E-02 -0.6465928E-10  0.0000000E+00 -0.3914662E-03
 -0.5045727E-02  0.0000000E+00 -0.5050505E-02 -0.7162672E-10  0.0000000E+00 -0.3914663E-03
 -0.5043261E-02  0.0000000E+00 -0.5050505E-02 -0.7914451E-10  0.0000000E+00 -0.3914665E-03
 -0.5038714E-02  0.0000000E+00 -0.5050505E-02 -0.8723627E-10  0.0000000E+00 -0.3914667E-03
 -0.5032318E-02  0.0000000E+00 -0.5050505E-02 -0.9593004E-10  0.0000000E+00 -0.3914668E-03
 -0.5022454E-02  0.0000000E+00 -0.5050505E-02 -0.1052588E-09  0.0000000E+00 -0.3914671E-03
 -0.5012589E-02  0.0000000E+00 -0.5050505E-02 -0.1152525E-09  0.0000000E+00 -0.3914673E-03
 -0.5002725E-02  0.0000000E+00 -0.5050505E-02 -0.1259403E-09  0.0000000E+00 -0.3914675E-03
 -0.4992860E-02  0.0000000E+00 -0.5050505E-02 -0.1373543E-09  0.0000000E+00 -0.3914678E-03
 -0.4976523E-02  0.0000000E+00 -0.5050505E-02 -0.1495267E-09  0.0000000E+00 -0.3914681E-03
 -0.4956794E-02  0.0000000E+00 -0.5050505E-02 -0.1624921E-09  0.0000000E+00 -0.3914684E-03
 -0.4937066E-02  0.0000000E+00 -0.5050505E-02 -0.1762867E-09  0.0000000E+00 -0.3914688E-03
 -0.4906239E-02  0.0000000E+00 -0.5050505E-02 -0.1909473E-09  0.0000000E+00 -0.3914692E-03
 -0.4866782E-02  0.0000000E+00 -0.5050505E-02 -0.2065129E-09  0.0000000E+00 -0.3914696E-03
 -0.4827325E-02  0.0000000E+00 -0.5050505E-02 -0.2230264E-09  0.0000000E+00 -0.3914700E-03
 -0.4769372E-02  0.0000000E+00 -0.5050505E-02 -0.2405334E-09  0.0000000E+00 -0.3914705E-03
 -0.4690458E-02  0.0000000E+00 -0.5050505E-02 -0.2590820E-09  0.0000000E+00 -0.3914711E-03
 -0.4611543E-02  0.0000000E+00 -0.5050505E-02 -0.2787246E-09  0.0000000E+00 -0.3914716E-03
 -0.4503035E-02  0.0000000E+00 -0.5050505E-02 -0.2995188E-09  0.0000000E+00 -0.3914722E-03
 -0.4345206E-02  0.0000000E+00 -0.5050505E-02 -0.3215268E-09  0.0000000E+00 -0.3914729E-03
 -0.4187378E-02  0.0000000E+00 -0.5050505E-02 -0.3448175E-09  0.0000000E+00 -0.3914736E-03
 -0.3985156E-02  0.0000000E+00 -0.5050505E-02 -0.3694671E-09  0.0000000E+00 -0.3914743E-03
 -0.3669499E-02  0.0000000E+00 -0.5050505E-02 -0.3955594E-09  0.0000000E+00 -0.3914751E-03
 -0.3353842E-02  0.0000000E+00 -0.5050505E-02 -0.4231867E-09  0.0000000E+00 -0.3914760E-03
 -0.2978990E-02  0.0000000E+00 -0.5050505E-02 -0.4524530E-09  0.0000000E+00 -0.3914769E-03
 -0.2347676E-02  0.0000000E+00 -0.5050505E-02 -0.4834746E-09  0.0000000E+00 -0.3914779E-03
 -0.1716362E-02  0.0000000E+00 -0.5050505E-02 -0.5163818E-09  0.0000000E+00 -0.3914789E-03
 -0.1025842E-02  0.0000000E+00 -0.5050505E-02 -0.5513200E-09  0.0000000E+00 -0.3914800E-03
  0.2367855E-03  0.0000000E+00 -0.5050505E-02 -0.5884531E-09  0.0000000E+00 -0.3914812E-03
  0.1499413E-02  0.0000000E+00 -0.5050505E-02 -0.6279663E-09  0.0000000E+00 -0.3914825E-03
  0.2762042E-02  0.0000000E+00 -0.5050505E-02 -0.6700689E-09  0.0000000E+00 -0.3914839E-03
 -0.5050505E-02  0.0000000E+00 -0.5050505E-02 -0.7149978E-09  0.0000000E+00 -0.3914853E-03
 -0.5050505E-02  0.0000000E+00 -0.5050505E-02 -0.7630219E-09  0.0000000E+00 -0.3914869E-03
 -0.5050505E-02  0.0000000E+00 -0.5050505E-02 -0.8144467E-09  0.0000000E+00 -0.3914885E-03
 -0.5050505E-02  0.0000000E+00 -0.5050505E-02 -0.8696204E-09  0.0000000E+00 -0.3914903E-03
 -0.5050505E-02  0.0000000E+00 -0.5050505E-02 -0.9289405E-09  0.0000000E+00 -0.3914922E-03
 -0.5050505E-02  0.0000000E+00 -0.5050505E-02 -0.9928615E-09  0.0000000E+00 -0.3914942E-03
 -0.5050505E-02  0.0000000E+00 -0.5050505E-02 -0.1061904E-08  0.0000000E+00 -0.3914963E-03
 -0.5050504E-02  0.0000000E+00 -0.5050505E-02 -0.1136669E-08  0.0000000E+00 -0.3914986E-03
 -0.5050501E-02  0.0000000E+00 -0.5050505E-02 -0.1217844E-08  0.0000000E+00 -0.3915011E-03
 -0.5050495E-02  0.0000000E+00 -0.5050505E-02 -0.1306228E-08  0.0000000E+00 -0.3915037E-03
 -0.5050482E-02  0.0000000E+00 -0.5050505E-02 -0.1402746E-08  0.0000000E+00 -0.3915066E-03
 -0.5050449E-02  0.0000000E+00 -0.5050505E-02 -0.1508470E-08  0.0000000E+00 -0.3915096E-03
 -0.5050376E-02  0.0000000E+00 -0.5050505E-02 -0.1624655E-08  0.0000000E+00 -0.3915129E-03
 -0.5050299E-02  0.0000000E+00 -0.5050505E-02 -0.1752765E-08  0.0000000E+00 -0.3915164E-03
 -0.5050178E-02  0.0000000E+00 -0.5050505E-02 -0.1894524E-08  0.0000000E+00 -0.3915202E-03
 -0.5050018E-02  0.0000000E+00 -0.5050505E-02 -0.2051964E-08  0.0000000E+00 -0.3915244E-03
 -0.5049710E-02  0.0000000E+00 -0.5050505E-02 -0.2227493E-08  0.0000000E+00 -0.3915288E-03
 -0.5049253E-02  0.0000000E+00 -0.5050505E-02 -0.2423976E-08  0.0000000E+00 -0.3915337E-03
 -0.5048636E-02  0.0000000E+00 -0.5050505E-02 -0.2644843E-08  0.0000000E+00 -0.3915390E-03
 -0.5047442E-02  0.0000000E+00 -0.5050505E-02 -0.2894218E-08  0.0000000E+00 -0.3915448E-03
 -0.5045727E-02  0.0000000E+00 -0.5050505E-02 -0.3177091E-08  0.0000000E+00 -0.3915512E-03
 -0.5043261E-02  0.0000000E+00 -0.5050505E-02 -0.3499535E-08  0.0000000E+00 -0.3915582E-03
 -0.5038714E-02  0.0000000E+00 -0.5050505E-02 -0.3868990E-08  0.0000000E+00 -0.3915659E-03
 -0.5032318E-02  0.0000000E+00 -0.5050505E-02 -0.4294639E-08  0.0000000E+00 -0.3915744E-03
 -0.5022454E-02  0.0000000E+00 -0.5050505E-02 -0.4787900E-08  0.0000000E+00 -0.3915839E-03
 -0.5012589E-02  0.0000000E+00 -0.5050505E-02 -0.5363088E-08  0.0000000E+00 -0.3915945E-03
 -0.5002725E-02  0.0000000E+00 -0.5050505E-02 -0.6038310E-08  0.0000000E+00 -0.3916065E-03
 -0.4992860E-02  0.0000000E+00 -0.5050505E-02 -0.6836694E-08  0.0000000E+00 -0.3916200E-03
 -0.4976523E-02  0.0000000E+00 -0.5050505E-02 -0.7788090E-08  0.0000000E+00 -0.3916353E-03
 -0.4956794E-02  0.0000000E+00 -0.5050505E-02 -0.8931468E-08  0.0000000E+00 -0.3916528E-03
 -0.4937066E-02  0.0000000E+00 -0.5050505E-02 -0.1031835E-07  0.0000000E+00 -0.3916729E-03
 -0.4906239E-02  0.0000000E+00 -0.5050505E-02 -0.1201777E-07  0.0000000E+00 -0.3916963E-03
 -0.4866782E-02  0.0000000E+00 -0.5050505E-02 -0.1412368E-07  0.0000000E+00 -0.3917237E-03
 -0.4827325E-02  0.0000000E+00 -0.5050505E-02 -0.1676610E-07  0.0000000E+00 -0.3917560E-03
 -0.4769372E-02  0.0000000E+00 -0.5050505E-02 -0.2012832E-07  0.0000000E+00 -0.3917946E-03
 -0.4690458E-02  0.0000000E+00 -0.5050505E-02 -0.2447427E-07  0.0000000E+00 -0.3918413E-03
 -0.4611543E-02  0.0000000E+00 -0.5050505E-02 -0.3019314E-07  0.0000000E+00 -0.3918985E-03
 -0.4503035E-02  0.0000000E+00 -0.5050505E-02 -0.3787450E-07  0.0000000E+00 -0.3919697E-03
 -0.4345206E-02  0.0000000E+00 -0.5050505E-02 -0.4843965E-07  0.0000000E+00 -0.3920601E-03
 -0.4187378E-02  0.0000000E+00 -0.5050505E-02 -0.6338097E-07  0.0000000E+00 -0.3921771E-03
 -0.3985156E-02  0.0000000E+00 -0.5050505E-02 -0.8521984E-07  0.0000000E+00 -0.3923327E-03
 -0.3669499E-02  0.0000000E+00 -0.5050505E-02 -0.1184333E-06  0.0000000E+00 -0.3925458E-03
 -0.3353842E-02  0.0000000E+00 -0.5050505E-02 -0.1714558E-06  0.0000000E+00 -0.3928493E-03
 -0.2978990E-02  0.0000000E+00 -0.5050505E-02 -0.2613417E-06  0.0000000E+00 -0.3933023E-03
 -0.2347676E-02  0.0000000E+00 -0.5050505E-02 -0.4255887E-06  0.0000000E+00 -0.3940215E-03
 -0.1716362E-02  0.0000000E+00 -0.5050505E-02 -0.7550368E-06  0.0000000E+00 -0.3952575E-03
 -0.1025842E-02  0.0000000E+00 -0.5050505E-02 -0.1494680E-05  0.0000000E+00 -0.3976132E-03
  0.2367855E-03  0.0000000E+00 -0.5050505E-02 -0.3383146E-05  0.0000000E+00 -0.4027222E-03
  0.1499413E-02  0.0000000E+00 -0.5050505E-02 -0.8899461E-05  0.0000000E+00 -0.4155955E-03
  0.5287294E-02  0.0000000E+00 -0.5050505E-02 -0.1462233E-03  0.0000000E+00 -0.3314459E-03
 -0.5050505E-02  0.0000000E+00 -0.5050505E-02 -0.2304434E-11  0.0000000E+00 -0.3911977E-03
 -0.5050505E-02  0.0000000E+00 -0.5050505E-02 -0.8158297E-11  0.0000000E+00 -0.3911977E-03
 -0.5050505E-02  0.0000000E+00 -0.5050505E-02 -0.1417445E-10  0.0000000E+00 -0.3911977E-03
 -0.5050505E-02  0.0000000E+00 -0.5050505E-02 -0.2023261E-10  0.0000000E+00 -0.3911977E-03
 -0.5050505E-02  0.0000000E+00 -0.5050505E-02 -0.2657011E-10  0.0000000E+00 -0.3911977E-03
 -0.5050505E-02  0.0000000E+00 -0.5050505E-02 -0.3326920E-10  0.0000000E+00 -0.3911977E-03
 -0.5050504E-02  0.0000000E+00 -0.5050505E-02 -0.4042515E-10  0.0000000E+00 -0.3911978E-03
 -0.5050501E-02  0.0000000E+00 -0.5050505E-02 -0.4811071E-10  0.0000000E+00 -0.3911978E-03
 -0.5050495E-02  0.0000000E+00 -0.5050505E-02 -0.5643386E-10  0.0000000E+00 -0.3911978E-03
 -0.5050482E-02  0.0000000E+00 -0.5050505E-02 -0.6546837E-10  0.0000000E+00 -0.3911979E-03
 -0.5050449E-02  0.0000000E+00 -0.5050505E-02 -0.7528914E-10  0.0000000E+00 -0.3911979E-03
 -0.5050376E-02  0.0000000E+00 -0.5050505E-02 -0.8601426E-10  0.0000000E+00 -0.3911980E-03
 -0.5050299E-02  0.0000000E+00 -0.5050505E-02 -0.9772050E-10  0.0000000E+00 -0.3911980E-03
 -0.5050178E-02  0.0000000E+00 -0.5050505E-02 -0.1104710E-09  0.0000000E+00 -0.3911981E-03
 -0.5050018E-02  0.0000000E+00 -0.5050505E-02 -0.1243596E-09  0.0000000E+00 -0.3911982E-03
 -0.5049710E-02  0.0000000E+00 -0.5050505E-02 -0.1394813E-09  0.0000000E+00 -0.3911983E-03
 -0.5049253E-02  0.0000000E+00 -0.5050505E-02 -0.1559191E-09  0.0000000E+00 -0.3911984E-03
 -0.5048636E-02  0.0000000E+00 -0.5050505E-02 -0.1737462E-09  0.0000000E+00 -0.3911985E-03
 -0.5047442E-02  0.0000000E+00 -0.5050505E-02 -0.1930367E-09  0.0000000E+00 -0.3911986E-03
 -0.5045727E-02  0.0000000E+00 -0.5050505E-02 -0.2138859E-09  0.0000000E+00 -0.3911988E-03
 -0.5043261E-02  0.0000000E+00 -0.5050505E-02 -0.2363864E-09  0.0000000E+00 -0.3911989E-03
 -0.5038714E-02  0.0000000E+00 -0.5050505E-02 -0.2606149E-09  0.0000000E+00 -0.3911991E-03
 -0.5032318E-02  0.0000000E+00 -0.5050505E-02 -0.2866502E-09  0.0000000E+00 -0.3911993E-03
 -0.5022454E-02  0.0000000E+00 -0.5050505E-02 -0.3145869E-09  0.0000000E+00 -0.3911995E-03
 -0.5012589E-02  0.0000000E+00 -0.5050505E-02 -0.3445166E-09  0.0000000E+00 -0.3911997E-03
 -0.5002725E-02  0.0000000E+00 -0.5050505E-02 -0.3765291E-09  0.0000000E+00 -0.3912000E-03
 -0.4992860E-02  0.0000000E+00 -0.5050505E-02 -0.4107201E-09  0.0000000E+00 -0.3912002E-03
 -0.4976523E-02  0.0000000E+00 -0.5050505E-02 -0.4471852E-09  0.0000000E+00 -0.3912005E-03
 -0.4956794E-02  0.0000000E+00 -0.5050505E-02 -0.4860265E-09  0.0000000E+00 -0.3912009E-03
 -0.4937066E-02  0.0000000E+00 -0.5050505E-02 -0.5273537E-09  0.0000000E+00 -0.3912012E-03
 -0.4906239E-02  0.0000000E+00 -0.5050505E-02 -0.5712775E-09  0.0000000E+00 -0.3912016E-03
 -0.4866782E-02  0.0000000E+00 -0.5050505E-02 -0.6179144E-09  0.0000000E+00 -0.3912020E-03
 -0.4827325E-02  0.0000000E+00 -0.5050505E-02 -0.6673910E-09  0.0000000E+00 -0.3912025E-03
 -0.4769372E-02  0.0000000E+00 -0.5050505E-02 -0.7198439E-09  0.0000000E+00 -0.3912029E-03
 -0.4690458E-02  0.0000000E+00 -0.5050505E-02 -0.7754176E-09  0.0000000E+00 -0.3912035E-03
 -0.4611543E-02  0.0000000E+00 -0.5050505E-02 -0.8342689E-09  0.0000000E+00 -0.3912040E-03
 -0.4503035E-02  0.0000000E+00 -0.5050505E-02 -0.8965691E-09  0.0000000E+00 -0.3912046E-03
 -0.4345206E-02  0.0000000E+00 -0.5050505E-02 -0.9625043E-09  0.0000000E+00 -0.3912053E-03
 -0.4187378E-02  0.0000000E+00 -0.5050505E-02 -0.1032279E-08  0.0000000E+00 -0.3912060E-03
 -0.3985156E-02  0.0000000E+00 -0.5050505E-02 -0.1106121E-08  0.0000000E+00 -0.3912067E-03
 -0.3669499E-02  0.0000000E+00 -0.5050505E-02 -0.1184281E-08  0.0000000E+00 -0.3912075E-03
 -0.3353842E-02  0.0000000E+00 -0.5050505E-02 -0.1267035E-08  0.0000000E+00 -0.3912084E-03
 -0.2978990E-02  0.0000000E+00 -0.5050505E-02 -0.1354692E-08  0.0000000E+00 -0.3912093E-03
 -0.2347676E-02  0.0000000E+00 -0.5050505E-02 -0.1447600E-08  0.0000000E+00 -0.3912102E-03
 -0.1716362E-02  0.0000000E+00 -0.5050505E-02 -0.1546145E-08  0.0000000E+00 -0.3912113E-03
 -0.1025842E-02  0.0000000E+00 -0.5050505E-02 -0.1650763E-08  0.0000000E+00 -0.3912124E-03
  0.2367855E-03  0.0000000E+00 -0.5050505E-02 -0.1761943E-08  0.0000000E+00 -0.3912136E-03
  0.1499413E-02  0.0000000E+00 -0.5050505E-02 -0.1880236E-08  0.0000000E+00 -0.3912149E-03
  0.2762042E-02  0.0000000E+00 -0.5050505E-02 -0.2006267E-08  0.0000000E+00 -0.3912162E-03
 -0.5050505E-02  0.0000000E+00 -0.5050505E-02 -0.2140742E-08  0.0000000E+00 -0.3912176E-03
 -0.5050505E-02  0.0000000E+00 -0.5050505E-02 -0.2284461E-08  0.0000000E+00 -0.3912192E-03
 -0.5050505E-02  0.0000000E+00 -0.5050505E-02 -0.2438336E-08  0.0000000E+00 -0.3912208E-03
 -0.5050505E-02  0.0000000E+00 -0.5050505E-02 -0.2603404E-08  0.0000000E+00 -0.3912226E-03
 -0.5050505E-02  0.0000000E+00 -0.5050505E-02 -0.2780848E-08  0.0000000E+00 -0.3912245E-03
 -0.5050505E-02  0.0000000E+00 -0.5050505E-02 -0.2972023E-08  0.0000000E+00 -0.3912265E-03
 -0.5050505E-02  0.0000000E+00 -0.5050505E-02 -0.3178480E-08  0.0000000E+00 -0.3912286E-03
 -0.5050504E-02  0.0000000E+00 -0.5050505E-02 -0.3402003E-08  0.0000000E+00 -0.3912309E-03
 -0.5050501E-02  0.0000000E+00 -0.5050505E-02 -0.3644646E-08  0.0000000E+00 -0.3912333E-03
 -0.5050495E-02  0.0000000E+00 -0.5050505E-02 -0.3908781E-08  0.0000000E+00 -0.3912360E-03
 -0.5050482E-02  0.0000000E+00 -0.5050505E-02 -0.4197156E-08  0.0000000E+00 -0.3912388E-03
 -0.5050449E-02  0.0000000E+00 -0.5050505E-02 -0.4512966E-08  0.0000000E+00 -0.3912418E-03
 -0.5050376E-02  0.0000000E+00 -0.5050505E-02 -0.4859931E-08  0.0000000E+00 -0.3912451E-03
 -0.5050299E-02  0.0000000E+00 -0.5050505E-02 -0.5242409E-08  0.0000000E+00 -0.3912486E-03
 -0.5050178E-02  0.0000000E+00 -0.5050505E-02 -0.5665511E-08  0.0000000E+00 -0.3912523E-03
 -0.5050018E-02  0.0000000E+00 -0.5050505E-02 -0.6135269E-08  0.0000000E+00 -0.3912564E-03
 -0.5049710E-02  0.0000000E+00 -0.5050505E-02 -0.6658822E-08  0.0000000E+00 -0.3912609E-03
 -0.5049253E-02  0.0000000E+00 -0.5050505E-02 -0.7244663E-08  0.0000000E+00 -0.3912657E-03
 -0.5048636E-02  0.0000000E+00 -0.5050505E-02 -0.7902947E-08  0.0000000E+00 -0.3912709E-03
 -0.5047442E-02  0.0000000E+00 -0.5050505E-02 -0.8645879E-08  0.0000000E+00 -0.3912767E-03
 -0.5045727E-02  0.0000000E+00 -0.5050505E-02 -0.9488208E-08  0.0000000E+00 -0.3912830E-03
 -0.5043261E-02  0.0000000E+00 -0.5050505E-02 -0.1044787E-07  0.0000000E+00 -0.3912899E-03
 -0.5038714E-02  0.0000000E+00 -0.5050505E-02 -0.1154682E-07  0.0000000E+00 -0.3912975E-03
 -0.5032318E-02  0.0000000E+00 -0.5050505E-02 -0.1281212E-07  0.0000000E+00 -0.3913059E-03
 -0.5022454E-02  0.0000000E+00 -0.5050505E-02 -0.1427737E-07  0.0000000E+00 -0.3913152E-03
 -0.5012589E-02  0.0000000E+00 -0.5050505E-02 -0.1598463E-07  0.0000000E+00 -0.3913257E-03
 -0.5002725E-02  0.0000000E+00 -0.5050505E-02 -0.1798702E-07  0.0000000E+00 -0.3913374E-03
 -0.4992860E-02  0.0000000E+00 -0.5050505E-02 -0.2035226E-07  0.0000000E+00 -0.3913506E-03
 -0.4976523E-02  0.0000000E+00 -0.5050505E-02 -0.2316755E-07  0.0000000E+00 -0.3913655E-03
 -0.4956794E-02  0.0000000E+00 -0.5050505E-02 -0.2654646E-07  0.0000000E+00 -0.3913826E-03
 -0.4937066E-02  0.0000000E+00 -0.5050505E-02 -0.3063869E-07  0.0000000E+00 -0.3914021E-03
 -0.4906239E-02  0.0000000E+00 -0.5050505E-02 -0.3564421E-07  0.0000000E+00 -0.3914248E-03
 -0.4866782E-02  0.0000000E+00 -0.5050505E-02 -0.4183403E-07  0.0000000E+00 -0.3914512E-03
 -0.4827325E-02  0.0000000E+00 -0.5050505E-02 -0.4958148E-07  0.0000000E+00 -0.3914822E-03
 -0.4769372E-02  0.0000000E+00 -0.5050505E-02 -0.5940999E-07  0.0000000E+00 -0.3915191E-03
 -0.4690458E-02  0.0000000E+00 -0.5050505E-02 -0.7206828E-07  0.0000000E+00 -0.3915634E-03
 -0.4611543E-02  0.0000000E+00 -0.5050505E-02 -0.8865136E-07  0.0000000E+00 -0.3916173E-03
 -0.4503035E-02  0.0000000E+00 -0.5050505E-02 -0.1108013E-06  0.0000000E+00 -0.3916836E-03
 -0.4345206E-02  0.0000000E+00 -0.5050505E-02 -0.1410517E-06  0.0000000E+00 -0.3917666E-03
 -0.4187378E-02  0.0000000E+00 -0.5050505E-02 -0.1834391E-06  0.0000000E+00 -0.3918723E-03
 -0.3985156E-02  0.0000000E+00 -0.5050505E-02 -0.2446374E-06  0.0000000E+00 -0.3920095E-03
 -0.3669499E-02  0.0000000E+00 -0.5050505E-02 -0.3361560E-06  0.0000000E+00 -0.3921914E-03
 -0.3353842E-02  0.0000000E+00 -0.5050505E-02 -0.4788261E-06  0.0000000E+00 -0.3924379E-03
 -0.2978990E-02  0.0000000E+00 -0.5050505E-02 -0.7124776E-06  0.0000000E+00 -0.3927795E-03
 -0.2347676E-02  0.0000000E+00 -0.5050505E-02 -0.1118088E-05  0.0000000E+00 -0.3932586E-03
 -0.1716362E-02  0.0000000E+00 -0.5050505E-02 -0.1871655E-05  0.0000000E+00 -0.3939184E-03
 -0.1025842E-02  0.0000000E+00 -0.5050505E-02 -0.3383269E-05  0.0000000E+00 -0.3947136E-03
  0.2367855E-03  0.0000000E+00 -0.5050505E-02 -0.6675947E-05  0.0000000E+00 -0.3950426E-03
  0.1499413E-02  0.0000000E+00 -0.5050505E-02 -0.1446314E-04  0.0000000E+00 -0.3914971E-03
  0.5287294E-02  0.0000000E+00 -0.5050505E-02 -0.3429492E-04  0.0000000E+00 -0.3672356E-03
 -0.5050505E-02  0.0000000E+00 -0.5050505E-02 -0.3946475E-11  0.0000000E+00 -0.3906755E-03
 -0.5050505E-02  0.0000000E+00 -0.5050505E-02 -0.1337050E-10  0.0000000E+00 -0.3906755E-03
 -0.5050505E-02  0.0000000E+00 -0.5050505E-02 -0.2322667E-10  0.0000000E+00 -0.3906755E-03
 -0.5050505E-02  0.0000000E+00 -0.5050505E-02 -0.3315960E-10  0.0000000E+00 -0.3906755E-03
 -0.5050505E-02  0.0000000E+00 -0.5050505E-02 -0.4354570E-10  0.0000000E+00 -0.3906755E-03
 -0.5050505E-02  0.0000000E+00 -0.5050505E-02 -0.5452877E-10  0.0000000E+00 -0.3906756E-03
 -0.5050504E-02  0.0000000E+00 -0.5050505E-02 -0.6627552E-10  0.0000000E+00 -0.3906756E-03
 -0.5050501E-02  0.0000000E+00 -0.5050505E-02 -0.7890483E-10  0.0000000E+00 -0.3906756E-03
 -0.5050495E-02  0.0000000E+00 -0.5050505E-02 -0.9259452E-10  0.0000000E+00 -0.3906756E-03
 -0.5050482E-02  0.0000000E+00 -0.5050505E-02 -0.1074900E-09  0.0000000E+00 -0.3906757E-03
 -0.5050449E-02  0.0000000E+00 -0.5050505E-02 -0.1236936E-09  0.0000000E+00 -0.3906757E-03
 -0.5050376E-02  0.0000000E+00 -0.5050505E-02 -0.1413858E-09  0.0000000E+00 -0.3906758E-03
 -0.5050299E-02  0.0000000E+00 -0.5050505E-02 -0.1607283E-09  0.0000000E+00 -0.3906758E-03
 -0.5050178E-02  0.0000000E+00 -0.5050505E-02 -0.1818293E-09  0.0000000E+00 -0.3906759E-03
 -0.5050018E-02  0.0000000E+00 -0.5050505E-02 -0.2048226E-09  0.0000000E+00 -0.3906760E-03
 -0.5049710E-02  0.0000000E+00 -0.5050505E-02 -0.2298564E-09  0.0000000E+00 -0.3906761E-03
 -0.5049253E-02  0.0000000E+00 -0.5050505E-02 -0.2570840E-09  0.0000000E+00 -0.3906762E-03
 -0.5048636E-02  0.0000000E+00 -0.5050505E-02 -0.2866447E-09  0.0000000E+00 -0.3906763E-03
 -0.5047442E-02  0.0000000E+00 -0.5050505E-02 -0.3186515E-09  0.0000000E+00 -0.3906764E-03
 -0.5045727E-02  0.0000000E+00 -0.5050505E-02 -0.3532439E-09  0.0000000E+00 -0.3906765E-03
 -0.5043261E-02  0.0000000E+00 -0.5050505E-02 -0.3905805E-09  0.0000000E+00 -0.3906767E-03
 -0.5038714E-02  0.0000000E+00 -0.5050505E-02 -0.4308052E-09  0.0000000E+00 -0.3906769E-03
 -0.5032318E-02  0.0000000E+00 -0.5050505E-02 -0.4740467E-09  0.0000000E+00 -0.3906771E-03
 -0.5022454E-02  0.0000000E+00 -0.5050505E-02 -0.5204536E-09  0.0000000E+00 -0.3906773E-03
 -0.5012589E-02  0.0000000E+00 -0.5050505E-02 -0.5701778E-09  0.0000000E+00 -0.3906775E-03
 -0.5002725E-02  0.0000000E+00 -0.5050505E-02 -0.6233714E-09  0.0000000E+00 -0.3906777E-03
 -0.4992860E-02  0.0000000E+00 -0.5050505E-02 -0.6801949E-09  0.0000000E+00 -0.3906780E-03
 -0.4976523E-02  0.0000000E+00 -0.5050505E-02 -0.7408072E-09  0.0000000E+00 -0.3906783E-03
 -0.4956794E-02  0.0000000E+00 -0.5050505E-02 -0.8053742E-09  0.0000000E+00 -0.3906786E-03
 -0.4937066E-02  0.0000000E+00 -0.5050505E-02 -0.8740769E-09  0.0000000E+00 -0.3906790E-03
 -0.4906239E-02  0.0000000E+00 -0.5050505E-02 -0.9471023E-09  0.0000000E+00 -0.3906793E-03
 -0.4866782E-02  0.0000000E+00 -0.5050505E-02 -0.1024644E-08  0.0000000E+00 -0.3906797E-03
 -0.4827325E-02  0.0000000E+00 -0.5050505E-02 -0.1106908E-08  0.0000000E+00 -0.3906802E-03
 -0.4769372E-02  0.0000000E+00 -0.5050505E-02 -0.1194120E-08  0.0000000E+00 -0.3906807E-03
 -0.4690458E-02  0.0000000E+00 -0.5050505E-02 -0.1286520E-08  0.0000000E+00 -0.3906812E-03
 -0.4611543E-02  0.0000000E+00 -0.5050505E-02 -0.1384368E-08  0.0000000E+00 -0.3906817E-03
 -0.4503035E-02  0.0000000E+00 -0.5050505E-02 -0.1487945E-08  0.0000000E+00 -0.3906823E-03
 -0.4345206E-02  0.0000000E+00 -0.5050505E-02 -0.1597561E-08  0.0000000E+00 -0.3906830E-03
 -0.4187378E-02  0.0000000E+00 -0.5050505E-02 -0.1713551E-08  0.0000000E+00 -0.3906836E-03
 -0.3985156E-02  0.0000000E+00 -0.5050505E-02 -0.1836289E-08  0.0000000E+00 -0.3906844E-03
 -0.3669499E-02  0.0000000E+00 -0.5050505E-02 -0.1966190E-08  0.0000000E+00 -0.3906852E-03
 -0.3353842E-02  0.0000000E+00 -0.5050505E-02 -0.2103713E-08  0.0000000E+00 -0.3906860E-03
 -0.2978990E-02  0.0000000E+00 -0.5050505E-02 -0.2249364E-08  0.0000000E+00 -0.3906869E-03
 -0.2347676E-02  0.0000000E+00 -0.5050505E-02 -0.2403714E-08  0.0000000E+00 -0.3906879E-03
 -0.1716362E-02  0.0000000E+00 -0.5050505E-02 -0.2567402E-08  0.0000000E+00 -0.3906889E-03
 -0.1025842E-02  0.0000000E+00 -0.5050505E-02 -0.2741145E-08  0.0000000E+00 -0.3906900E-03
  0.2367855E-03  0.0000000E+00 -0.5050505E-02 -0.2925750E-08  0.0000000E+00 -0.3906912E-03
  0.1499413E-02  0.0000000E+00 -0.5050505E-02 -0.3122123E-08  0.0000000E+00 -0.3906924E-03
  0.2762042E-02  0.0000000E+00 -0.5050505E-02 -0.3331293E-08  0.0000000E+00 -0.3906938E-03
 -0.5050505E-02  0.0000000E+00 -0.5050505E-02 -0.3554421E-08  0.0000000E+00 -0.3906952E-03
 -0.5050505E-02  0.0000000E+00 -0.5050505E-02 -0.3792827E-08  0.0000000E+00 -0.3906967E-03
 -0.5050505E-02  0.0000000E+00 -0.5050505E-02 -0.4048006E-08  0.0000000E+00 -0.3906984E-03
 -0.5050505E-02  0.0000000E+00 -0.5050505E-02 -0.4321665E-08  0.0000000E+00 -0.3907001E-03
 -0.5050505E-02  0.0000000E+00 -0.5050505E-02 -0.4615749E-08  0.0000000E+00 -0.3907020E-03
 -0.5050505E-02  0.0000000E+00 -0.5050505E-02 -0.4932483E-08  0.0000000E+00 -0.3907039E-03
 -0.5050505E-02  0.0000000E+00 -0.5050505E-02 -0.5274415E-08  0.0000000E+00 -0.3907060E-03
 -0.5050504E-02  0.0000000E+00 -0.5050505E-02 -0.5644472E-08  0.0000000E+00 -0.3907083E-03
 -0.5050501E-02  0.0000000E+00 -0.5050505E-02 -0.6046022E-08  0.0000000E+00 -0.3907107E-03
 -0.5050495E-02  0.0000000E+00 -0.5050505E-02 -0.6482956E-08  0.0000000E+00 -0.3907133E-03
 -0.5050482E-02  0.0000000E+00 -0.5050505E-02 -0.6959775E-08  0.0000000E+00 -0.3907161E-03
 -0.5050449E-02  0.0000000E+00 -0.5050505E-02 -0.7481705E-08  0.0000000E+00 -0.3907191E-03
 -0.5050376E-02  0.0000000E+00 -0.5050505E-02 -0.8054836E-08  0.0000000E+00 -0.3907223E-03
 -0.5050299E-02  0.0000000E+00 -0.5050505E-02 -0.8686284E-08  0.0000000E+00 -0.3907257E-03
 -0.5050178E-02  0.0000000E+00 -0.5050505E-02 -0.9384396E-08  0.0000000E+00 -0.3907295E-03
 -0.5050018E-02  0.0000000E+00 -0.5050505E-02 -0.1015901E-07  0.0000000E+00 -0.3907335E-03
 -0.5049710E-02  0.0000000E+00 -0.5050505E-02 -0.1102174E-07  0.0000000E+00 -0.3907378E-03
 -0.5049253E-02  0.0000000E+00 -0.5050505E-02 -0.1198642E-07  0.0000000E+00 -0.3907426E-03
 -0.5048636E-02  0.0000000E+00 -0.5050505E-02 -0.1306953E-07  0.0000000E+00 -0.3907477E-03
 -0.5047442E-02  0.0000000E+00 -0.5050505E-02 -0.1429086E-07  0.0000000E+00 -0.3907533E-03
 -0.5045727E-02  0.0000000E+00 -0.5050505E-02 -0.1567431E-07  0.0000000E+00 -0.3907594E-03
 -0.5043261E-02  0.0000000E+00 -0.5050505E-02 -0.1724883E-07  0.0000000E+00 -0.3907662E-03
 -0.5038714E-02  0.0000000E+00 -0.5050505E-02 -0.1904984E-07  0.0000000E+00 -0.3907735E-03
 -0.5032318E-02  0.0000000E+00 -0.5050505E-02 -0.2112085E-07  0.0000000E+00 -0.3907817E-03
 -0.5022454E-02  0.0000000E+00 -0.5050505E-02 -0.2351576E-07  0.0000000E+00 -0.3907908E-03
 -0.5012589E-02  0.0000000E+00 -0.5050505E-02 -0.2630185E-07  0.0000000E+00 -0.3908008E-03
 -0.5002725E-02  0.0000000E+00 -0.5050505E-02 -0.2956378E-07  0.0000000E+00 -0.3908121E-03
 -0.4992860E-02  0.0000000E+00 -0.5050505E-02 -0.3340907E-07  0.0000000E+00 -0.3908247E-03
 -0.4976523E-02  0.0000000E+00 -0.5050505E-02 -0.3797559E-07  0.0000000E+00 -0.3908390E-03
 -0.4956794E-02  0.0000000E+00 -0.5050505E-02 -0.4344201E-07  0.0000000E+00 -0.3908552E-03
 -0.4937066E-02  0.0000000E+00 -0.5050505E-02 -0.5004247E-07  0.0000000E+00 -0.3908737E-03
 -0.4906239E-02  0.0000000E+00 -0.5050505E-02 -0.5808766E-07  0.0000000E+00 -0.3908949E-03
 -0.4866782E-02  0.0000000E+00 -0.5050505E-02 -0.6799543E-07  0.0000000E+00 -0.3909195E-03
 -0.4827325E-02  0.0000000E+00 -0.5050505E-02 -0.8033609E-07  0.0000000E+00 -0.3909481E-03
 -0.4769372E-02  0.0000000E+00 -0.5050505E-02 -0.9590061E-07  0.0000000E+00 -0.3909817E-03
 -0.4690458E-02  0.0000000E+00 -0.5050505E-02 -0.1158056E-06  0.0000000E+00 -0.3910216E-03
 -0.4611543E-02  0.0000000E+00 -0.5050505E-02 -0.1416582E-06  0.0000000E+00 -0.3910692E-03
 -0.4503035E-02  0.0000000E+00 -0.5050505E-02 -0.1758213E-06  0.0000000E+00 -0.3911266E-03
 -0.4345206E-02  0.0000000E+00 -0.5050505E-02 -0.2218515E-06  0.0000000E+00 -0.3911966E-03
 -0.4187378E-02  0.0000000E+00 -0.5050505E-02 -0.2852393E-06  0.0000000E+00 -0.3912825E-03
 -0.3985156E-02  0.0000000E+00 -0.5050505E-02 -0.3746980E-06  0.0000000E+00 -0.3913886E-03
 -0.3669499E-02  0.0000000E+00 -0.5050505E-02 -0.5044607E-06  0.0000000E+00 -0.3915199E-03
 -0.3353842E-02  0.0000000E+00 -0.5050505E-02 -0.6984679E-06  0.0000000E+00 -0.3916807E-03
 -0.2978990E-02  0.0000000E+00 -0.5050505E-02 -0.9980821E-06  0.0000000E+00 -0.3918700E-03
 -0.2347676E-02  0.0000000E+00 -0.5050505E-02 -0.1476117E-05  0.0000000E+00 -0.3920680E-03
 -0.1716362E-02  0.0000000E+00 -0.5050505E-02 -0.2260496E-05  0.0000000E+00 -0.3921961E-03
 -0.1025842E-02  0.0000000E+00 -0.5050505E-02 -0.3563683E-05  0.0000000E+00 -0.3920092E-03
  0.2367855E-03  0.0000000E+00 -0.5050505E-02 -0.5662326E-05  0.0000000E+00 -0.3908360E-03
  0.1499413E-02  0.0000000E+00 -0.5050505E-02 -0.8500251E-05  0.0000000E+00 -0.3871559E-03
  0.5287294E-02  0.0000000E+00 -0.5050505E-02 -0.9297809E-05  0.0000000E+00 -0.3793499E-03
 -0.5050505E-02  0.0000000E+00 -0.5050505E-02 -0.5497688E-11  0.0000000E+00 -0.3899110E-03
 -0.5050505E-02  0.0000000E+00 -0.5050505E-02 -0.1822419E-10  0.0000000E+00 -0.3899110E-03
 -0.5050505E-02  0.0000000E+00 -0.5050505E-02 -0.3167784E-10  0.0000000E+00 -0.3899110E-03
 -0.5050505E-02  0.0000000E+00 -0.5050505E-02 -0.4524148E-10  0.0000000E+00 -0.3899110E-03
 -0.5050505E-02  0.0000000E+00 -0.5050505E-02 -0.5941838E-10  0.0000000E+00 -0.3899110E-03
 -0.5050505E-02  0.0000000E+00 -0.5050505E-02 -0.7442372E-10  0.0000000E+00 -0.3899110E-03
 -0.5050504E-02  0.0000000E+00 -0.5050505E-02 -0.9050082E-10  0.0000000E+00 -0.3899111E-03
 -0.5050501E-02  0.0000000E+00 -0.5050505E-02 -0.1078177E-09  0.0000000E+00 -0.3899111E-03
 -0.5050495E-02  0.0000000E+00 -0.5050505E-02 -0.1266072E-09  0.0000000E+00 -0.3899111E-03
 -0.5050482E-02  0.0000000E+00 -0.5050505E-02 -0.1471087E-09  0.0000000E+00 -0.3899112E-03
 -0.5050449E-02  0.0000000E+00 -0.5050505E-02 -0.1694632E-09  0.0000000E+00 -0.3899112E-03
 -0.5050376E-02  0.0000000E+00 -0.5050505E-02 -0.1938780E-09  0.0000000E+00 -0.3899113E-03
 -0.5050299E-02  0.0000000E+00 -0.5050505E-02 -0.2206017E-09  0.0000000E+00 -0.3899113E-03
 -0.5050178E-02  0.0000000E+00 -0.5050505E-02 -0.2498115E-09  0.0000000E+00 -0.3899114E-03
 -0.5050018E-02  0.0000000E+00 -0.5050505E-02 -0.2816888E-09  0.0000000E+00 -0.3899115E-03
 -0.5049710E-02  0.0000000E+00 -0.5050505E-02 -0.3164149E-09  0.0000000E+00 -0.3899115E-03
 -0.5049253E-02  0.0000000E+00 -0.5050505E-02 -0.3541954E-09  0.0000000E+00 -0.3899116E-03
 -0.5048636E-02  0.0000000E+00 -0.5050505E-02 -0.3952510E-09  0.0000000E+00 -0.3899117E-03
 -0.5047442E-02  0.0000000E+00 -0.5050505E-02 -0.4397543E-09  0.0000000E+00 -0.3899119E-03
 -0.5045727E-02  0.0000000E+00 -0.5050505E-02 -0.4878788E-09  0.0000000E+00 -0.3899120E-03
 -0.5043261E-02  0.0000000E+00 -0.5050505E-02 -0.5398315E-09  0.0000000E+00 -0.3899121E-03
 -0.5038714E-02  0.0000000E+00 -0.5050505E-02 -0.5958259E-09  0.0000000E+00 -0.3899123E-03
 -0.5032318E-02  0.0000000E+00 -0.5050505E-02 -0.6560514E-09  0.0000000E+00 -0.3899125E-03
 -0.5022454E-02  0.0000000E+00 -0.5050505E-02 -0.7207106E-09  0.0000000E+00 -0.3899127E-03
 -0.5012589E-02  0.0000000E+00 -0.5050505E-02 -0.7900107E-09  0.0000000E+00 -0.3899129E-03
 -0.5002725E-02  0.0000000E+00 -0.5050505E-02 -0.8641616E-09  0.0000000E+00 -0.3899131E-03
 -0.4992860E-02  0.0000000E+00 -0.5050505E-02 -0.9433902E-09  0.0000000E+00 -0.3899134E-03
 -0.4976523E-02  0.0000000E+00 -0.5050505E-02 -0.1027921E-08  0.0000000E+00 -0.3899137E-03
 -0.4956794E-02  0.0000000E+00 -0.5050505E-02 -0.1117982E-08  0.0000000E+00 -0.3899140E-03
 -0.4937066E-02  0.0000000E+00 -0.5050505E-02 -0.1213820E-08  0.0000000E+00 -0.3899143E-03