title = "dataset feddes"
variables = "x", "y", "z", "vx", "vy", "vz"
zone t = "velocities, solution time =  5.700E+01 days        " i =   99, j =   99, k =    1,  f=point
 -0.5050505E-02  0.0000000E+00 -0.5050505E-02  0.8899883E-08  0.0000000E+00 -0.1536217E-03
 -0.5050505E-02  0.0000000E+00 -0.5050505E-02  0.2669562E-07  0.0000000E+00 -0.1535855E-03
 -0.5050505E-02  0.0000000E+00 -0.5050505E-02  0.4447923E-07  0.0000000E+00 -0.1535130E-03
 -0.5050505E-02  0.0000000E+00 -0.5050505E-02  0.6224247E-07  0.0000000E+00 -0.1534043E-03
 -0.5050505E-02  0.0000000E+00 -0.5050505E-02  0.7997678E-07  0.0000000E+00 -0.1532594E-03
 -0.5050505E-02  0.0000000E+00 -0.5050505E-02  0.9767307E-07  0.0000000E+00 -0.1530785E-03
 -0.5050504E-02  0.0000000E+00 -0.5050505E-02  0.1153216E-06  0.0000000E+00 -0.1528615E-03
 -0.5050501E-02  0.0000000E+00 -0.5050505E-02  0.1329117E-06  0.0000000E+00 -0.1526087E-03
 -0.5050495E-02  0.0000000E+00 -0.5050505E-02  0.1504317E-06  0.0000000E+00 -0.1523201E-03
 -0.5050482E-02  0.0000000E+00 -0.5050505E-02  0.1678685E-06  0.0000000E+00 -0.1519959E-03
 -0.5050449E-02  0.0000000E+00 -0.5050505E-02  0.1852074E-06  0.0000000E+00 -0.1516364E-03
 -0.5050376E-02  0.0000000E+00 -0.5050505E-02  0.2024319E-06  0.0000000E+00 -0.1512416E-03
 -0.5050299E-02  0.0000000E+00 -0.5050505E-02  0.2195231E-06  0.0000000E+00 -0.1508119E-03
 -0.5050178E-02  0.0000000E+00 -0.5050505E-02  0.2364597E-06  0.0000000E+00 -0.1503476E-03
 -0.5050018E-02  0.0000000E+00 -0.5050505E-02  0.2532170E-06  0.0000000E+00 -0.1498490E-03
 -0.5049710E-02  0.0000000E+00 -0.5050505E-02  0.2697672E-06  0.0000000E+00 -0.1493166E-03
 -0.5049253E-02  0.0000000E+00 -0.5050505E-02  0.2860781E-06  0.0000000E+00 -0.1487507E-03
 -0.5048636E-02  0.0000000E+00 -0.5050505E-02  0.3021131E-06  0.0000000E+00 -0.1481519E-03
 -0.5047442E-02  0.0000000E+00 -0.5050505E-02  0.3178303E-06  0.0000000E+00 -0.1475209E-03
 -0.5045727E-02  0.0000000E+00 -0.5050505E-02  0.3331819E-06  0.0000000E+00 -0.1468583E-03
 -0.5043261E-02  0.0000000E+00 -0.5050505E-02  0.3481138E-06  0.0000000E+00 -0.1461649E-03
 -0.5038714E-02  0.0000000E+00 -0.5050505E-02  0.3625642E-06  0.0000000E+00 -0.1454417E-03
 -0.5032318E-02  0.0000000E+00 -0.5050505E-02  0.3764641E-06  0.0000000E+00 -0.1446896E-03
 -0.5022454E-02  0.0000000E+00 -0.5050505E-02  0.3897355E-06  0.0000000E+00 -0.1439101E-03
 -0.5012589E-02  0.0000000E+00 -0.5050505E-02  0.4022918E-06  0.0000000E+00 -0.1431043E-03
 -0.5002725E-02  0.0000000E+00 -0.5050505E-02  0.4140373E-06  0.0000000E+00 -0.1422738E-03
 -0.4992860E-02  0.0000000E+00 -0.5050505E-02  0.4248672E-06  0.0000000E+00 -0.1414205E-03
 -0.4976523E-02  0.0000000E+00 -0.5050505E-02  0.4346679E-06  0.0000000E+00 -0.1405463E-03
 -0.4956794E-02  0.0000000E+00 -0.5050505E-02  0.4433187E-06  0.0000000E+00 -0.1396534E-03
 -0.4937066E-02  0.0000000E+00 -0.5050505E-02  0.4506928E-06  0.0000000E+00 -0.1387444E-03
 -0.4906239E-02  0.0000000E+00 -0.5050505E-02  0.4566602E-06  0.0000000E+00 -0.1378218E-03
 -0.4866782E-02  0.0000000E+00 -0.5050505E-02  0.4610914E-06  0.0000000E+00 -0.1368888E-03
 -0.4827325E-02  0.0000000E+00 -0.5050505E-02  0.4638618E-06  0.0000000E+00 -0.1359486E-03
 -0.4769372E-02  0.0000000E+00 -0.5050505E-02  0.4648572E-06  0.0000000E+00 -0.1350046E-03
 -0.4690458E-02  0.0000000E+00 -0.5050505E-02  0.4639804E-06  0.0000000E+00 -0.1340607E-03
 -0.4611543E-02  0.0000000E+00 -0.5050505E-02  0.4611576E-06  0.0000000E+00 -0.1331205E-03
 -0.4503035E-02  0.0000000E+00 -0.5050505E-02  0.4563453E-06  0.0000000E+00 -0.1321883E-03
 -0.4345206E-02  0.0000000E+00 -0.5050505E-02  0.4495359E-06  0.0000000E+00 -0.1312680E-03
 -0.4187378E-02  0.0000000E+00 -0.5050505E-02  0.4407617E-06  0.0000000E+00 -0.1303636E-03
 -0.3985156E-02  0.0000000E+00 -0.5050505E-02  0.4300968E-06  0.0000000E+00 -0.1294790E-03
 -0.3669499E-02  0.0000000E+00 -0.5050505E-02  0.4176560E-06  0.0000000E+00 -0.1286180E-03
 -0.3353842E-02  0.0000000E+00 -0.5050505E-02  0.4035907E-06  0.0000000E+00 -0.1277840E-03
 -0.2978990E-02  0.0000000E+00 -0.5050505E-02  0.3880825E-06  0.0000000E+00 -0.1269801E-03
 -0.2347676E-02  0.0000000E+00 -0.5050505E-02  0.3713360E-06  0.0000000E+00 -0.1262090E-03
 -0.1716362E-02  0.0000000E+00 -0.5050505E-02  0.3535701E-06  0.0000000E+00 -0.1254730E-03
 -0.1025842E-02  0.0000000E+00 -0.5050505E-02  0.3350106E-06  0.0000000E+00 -0.1247740E-03
  0.2367855E-03  0.0000000E+00 -0.5050505E-02  0.3158837E-06  0.0000000E+00 -0.1241133E-03
  0.1499413E-02  0.0000000E+00 -0.5050505E-02  0.2964108E-06  0.0000000E+00 -0.1234918E-03
  0.2762042E-02  0.0000000E+00 -0.5050505E-02  0.2768043E-06  0.0000000E+00 -0.1229100E-03
 -0.5050505E-02  0.0000000E+00 -0.5050505E-02  0.2572632E-06  0.0000000E+00 -0.1223680E-03
 -0.5050505E-02  0.0000000E+00 -0.5050505E-02  0.2379676E-06  0.0000000E+00 -0.1218654E-03
 -0.5050505E-02  0.0000000E+00 -0.5050505E-02  0.2190701E-06  0.0000000E+00 -0.1214016E-03
 -0.5050505E-02  0.0000000E+00 -0.5050505E-02  0.2006813E-06  0.0000000E+00 -0.1209757E-03
 -0.5050505E-02  0.0000000E+00 -0.5050505E-02  0.1828439E-06  0.0000000E+00 -0.1205866E-03
 -0.5050505E-02  0.0000000E+00 -0.5050505E-02  0.1654872E-06  0.0000000E+00 -0.1202331E-03
 -0.5050505E-02  0.0000000E+00 -0.5050505E-02  0.1483470E-06  0.0000000E+00 -0.1199147E-03
 -0.5050504E-02  0.0000000E+00 -0.5050505E-02  0.1308292E-06  0.0000000E+00 -0.1196315E-03
 -0.5050501E-02  0.0000000E+00 -0.5050505E-02  0.1117880E-06  0.0000000E+00 -0.1193853E-03
 -0.5050495E-02  0.0000000E+00 -0.5050505E-02  0.8919256E-07  0.0000000E+00 -0.1191814E-03
 -0.5050482E-02  0.0000000E+00 -0.5050505E-02  0.5969789E-07  0.0000000E+00 -0.1190304E-03
 -0.5050449E-02  0.0000000E+00 -0.5050505E-02  0.1828098E-07  0.0000000E+00 -0.1189513E-03
 -0.5050376E-02  0.0000000E+00 -0.5050505E-02 -0.4153714E-07  0.0000000E+00 -0.1189749E-03
 -0.5050299E-02  0.0000000E+00 -0.5050505E-02 -0.1257223E-06  0.0000000E+00 -0.1191446E-03
 -0.5050178E-02  0.0000000E+00 -0.5050505E-02 -0.2344209E-06  0.0000000E+00 -0.1195099E-03
 -0.5050018E-02  0.0000000E+00 -0.5050505E-02 -0.3539464E-06  0.0000000E+00 -0.1201069E-03
 -0.5049710E-02  0.0000000E+00 -0.5050505E-02 -0.4566630E-06  0.0000000E+00 -0.1209293E-03
 -0.5049253E-02  0.0000000E+00 -0.5050505E-02 -0.5291880E-06  0.0000000E+00 -0.1219297E-03
 -0.5048636E-02  0.0000000E+00 -0.5050505E-02 -0.5722043E-06  0.0000000E+00 -0.1230474E-03
 -0.5047442E-02  0.0000000E+00 -0.5050505E-02 -0.5923441E-06  0.0000000E+00 -0.1242294E-03
 -0.5045727E-02  0.0000000E+00 -0.5050505E-02 -0.5967803E-06  0.0000000E+00 -0.1254365E-03
 -0.5043261E-02  0.0000000E+00 -0.5050505E-02 -0.5911846E-06  0.0000000E+00 -0.1266426E-03
 -0.5038714E-02  0.0000000E+00 -0.5050505E-02 -0.5794664E-06  0.0000000E+00 -0.1278312E-03
 -0.5032318E-02  0.0000000E+00 -0.5050505E-02 -0.5641268E-06  0.0000000E+00 -0.1289926E-03
 -0.5022454E-02  0.0000000E+00 -0.5050505E-02 -0.5466963E-06  0.0000000E+00 -0.1301208E-03
 -0.5012589E-02  0.0000000E+00 -0.5050505E-02 -0.5280849E-06  0.0000000E+00 -0.1312126E-03
 -0.5002725E-02  0.0000000E+00 -0.5050505E-02 -0.5088238E-06  0.0000000E+00 -0.1322661E-03
 -0.4992860E-02  0.0000000E+00 -0.5050505E-02 -0.4892186E-06  0.0000000E+00 -0.1332801E-03
 -0.4976523E-02  0.0000000E+00 -0.5050505E-02 -0.4694439E-06  0.0000000E+00 -0.1342543E-03
 -0.4956794E-02  0.0000000E+00 -0.5050505E-02 -0.4496001E-06  0.0000000E+00 -0.1351884E-03
 -0.4937066E-02  0.0000000E+00 -0.5050505E-02 -0.4297468E-06  0.0000000E+00 -0.1360822E-03
 -0.4906239E-02  0.0000000E+00 -0.5050505E-02 -0.4099243E-06  0.0000000E+00 -0.1369357E-03
 -0.4866782E-02  0.0000000E+00 -0.5050505E-02 -0.3901675E-06  0.0000000E+00 -0.1377491E-03
 -0.4827325E-02  0.0000000E+00 -0.5050505E-02 -0.3705162E-06  0.0000000E+00 -0.1385225E-03
 -0.4769372E-02  0.0000000E+00 -0.5050505E-02 -0.3510266E-06  0.0000000E+00 -0.1392562E-03
 -0.4690458E-02  0.0000000E+00 -0.5050505E-02 -0.3317836E-06  0.0000000E+00 -0.1399506E-03
 -0.4611543E-02  0.0000000E+00 -0.5050505E-02 -0.3129199E-06  0.0000000E+00 -0.1406062E-03
 -0.4503035E-02  0.0000000E+00 -0.5050505E-02 -0.2946458E-06  0.0000000E+00 -0.1412242E-03
 -0.4345206E-02  0.0000000E+00 -0.5050505E-02 -0.2773006E-06  0.0000000E+00 -0.1418059E-03
 -0.4187378E-02  0.0000000E+00 -0.5050505E-02 -0.2614443E-06  0.0000000E+00 -0.1423539E-03
 -0.3985156E-02  0.0000000E+00 -0.5050505E-02 -0.2480324E-06  0.0000000E+00 -0.1428722E-03
 -0.3669499E-02  0.0000000E+00 -0.5050505E-02 -0.2387689E-06  0.0000000E+00 -0.1433675E-03
 -0.3353842E-02  0.0000000E+00 -0.5050505E-02 -0.2368666E-06  0.0000000E+00 -0.1438514E-03
 -0.2978990E-02  0.0000000E+00 -0.5050505E-02 -0.2488126E-06  0.0000000E+00 -0.1443456E-03
 -0.2347676E-02  0.0000000E+00 -0.5050505E-02 -0.2888295E-06  0.0000000E+00 -0.1448926E-03
 -0.1716362E-02  0.0000000E+00 -0.5050505E-02 -0.3912226E-06  0.0000000E+00 -0.1455846E-03
 -0.1025842E-02  0.0000000E+00 -0.5050505E-02 -0.6479276E-06  0.0000000E+00 -0.1466422E-03
  0.2367855E-03  0.0000000E+00 -0.5050505E-02 -0.1333687E-05  0.0000000E+00 -0.1486591E-03
  0.1499413E-02  0.0000000E+00 -0.5050505E-02 -0.3360102E-05  0.0000000E+00 -0.1534379E-03
  0.5287294E-02  0.0000000E+00 -0.5050505E-02 -0.5422679E-04  0.0000000E+00 -0.1225757E-03
 -0.5050505E-02  0.0000000E+00 -0.5050505E-02  0.2670811E-07  0.0000000E+00 -0.1534757E-03
 -0.5050505E-02  0.0000000E+00 -0.5050505E-02  0.8011237E-07  0.0000000E+00 -0.1534393E-03
 -0.5050505E-02  0.0000000E+00 -0.5050505E-02  0.1334806E-06  0.0000000E+00 -0.1533665E-03
 -0.5050505E-02  0.0000000E+00 -0.5050505E-02  0.1867883E-06  0.0000000E+00 -0.1532574E-03
 -0.5050505E-02  0.0000000E+00 -0.5050505E-02  0.2400099E-06  0.0000000E+00 -0.1531120E-03
 -0.5050505E-02  0.0000000E+00 -0.5050505E-02  0.2931184E-06  0.0000000E+00 -0.1529304E-03
 -0.5050504E-02  0.0000000E+00 -0.5050505E-02  0.3460847E-06  0.0000000E+00 -0.1527127E-03
 -0.5050501E-02  0.0000000E+00 -0.5050505E-02  0.3988773E-06  0.0000000E+00 -0.1524590E-03
 -0.5050495E-02  0.0000000E+00 -0.5050505E-02  0.4514611E-06  0.0000000E+00 -0.1521693E-03
 -0.5050482E-02  0.0000000E+00 -0.5050505E-02  0.5037972E-06  0.0000000E+00 -0.1518439E-03
 -0.5050449E-02  0.0000000E+00 -0.5050505E-02  0.5558421E-06  0.0000000E+00 -0.1514830E-03
 -0.5050376E-02  0.0000000E+00 -0.5050505E-02  0.6075463E-06  0.0000000E+00 -0.1510868E-03
 -0.5050299E-02  0.0000000E+00 -0.5050505E-02  0.6588539E-06  0.0000000E+00 -0.1506555E-03
 -0.5050178E-02  0.0000000E+00 -0.5050505E-02  0.7097009E-06  0.0000000E+00 -0.1501893E-03
 -0.5050018E-02  0.0000000E+00 -0.5050505E-02  0.7600143E-06  0.0000000E+00 -0.1496888E-03
 -0.5049710E-02  0.0000000E+00 -0.5050505E-02  0.8097107E-06  0.0000000E+00 -0.1491542E-03
 -0.5049253E-02  0.0000000E+00 -0.5050505E-02  0.8586943E-06  0.0000000E+00 -0.1485860E-03
 -0.5048636E-02  0.0000000E+00 -0.5050505E-02  0.9068559E-06  0.0000000E+00 -0.1479847E-03
 -0.5047442E-02  0.0000000E+00 -0.5050505E-02  0.9540703E-06  0.0000000E+00 -0.1473509E-03
 -0.5045727E-02  0.0000000E+00 -0.5050505E-02  0.1000195E-05  0.0000000E+00 -0.1466853E-03
 -0.5043261E-02  0.0000000E+00 -0.5050505E-02  0.1045068E-05  0.0000000E+00 -0.1459888E-03
 -0.5038714E-02  0.0000000E+00 -0.5050505E-02  0.1088504E-05  0.0000000E+00 -0.1452621E-03
 -0.5032318E-02  0.0000000E+00 -0.5050505E-02  0.1130298E-05  0.0000000E+00 -0.1445065E-03
 -0.5022454E-02  0.0000000E+00 -0.5050505E-02  0.1170214E-05  0.0000000E+00 -0.1437229E-03
 -0.5012589E-02  0.0000000E+00 -0.5050505E-02  0.1207995E-05  0.0000000E+00 -0.1429129E-03
 -0.5002725E-02  0.0000000E+00 -0.5050505E-02  0.1243351E-05  0.0000000E+00 -0.1420780E-03
 -0.4992860E-02  0.0000000E+00 -0.5050505E-02  0.1275969E-05  0.0000000E+00 -0.1412198E-03
 -0.4976523E-02  0.0000000E+00 -0.5050505E-02  0.1305505E-05  0.0000000E+00 -0.1403405E-03
 -0.4956794E-02  0.0000000E+00 -0.5050505E-02  0.1331596E-05  0.0000000E+00 -0.1394421E-03
 -0.4937066E-02  0.0000000E+00 -0.5050505E-02  0.1353858E-05  0.0000000E+00 -0.1385273E-03
 -0.4906239E-02  0.0000000E+00 -0.5050505E-02  0.1371897E-05  0.0000000E+00 -0.1375986E-03
 -0.4866782E-02  0.0000000E+00 -0.5050505E-02  0.1385321E-05  0.0000000E+00 -0.1366592E-03
 -0.4827325E-02  0.0000000E+00 -0.5050505E-02  0.1393748E-05  0.0000000E+00 -0.1357123E-03
 -0.4769372E-02  0.0000000E+00 -0.5050505E-02  0.1396831E-05  0.0000000E+00 -0.1347614E-03
 -0.4690458E-02  0.0000000E+00 -0.5050505E-02  0.1394269E-05  0.0000000E+00 -0.1338104E-03
 -0.4611543E-02  0.0000000E+00 -0.5050505E-02  0.1385836E-05  0.0000000E+00 -0.1328631E-03
 -0.4503035E-02  0.0000000E+00 -0.5050505E-02  0.1371396E-05  0.0000000E+00 -0.1319237E-03
 -0.4345206E-02  0.0000000E+00 -0.5050505E-02  0.1350921E-05  0.0000000E+00 -0.1309962E-03
 -0.4187378E-02  0.0000000E+00 -0.5050505E-02  0.1324507E-05  0.0000000E+00 -0.1300849E-03
 -0.3985156E-02  0.0000000E+00 -0.5050505E-02  0.1292378E-05  0.0000000E+00 -0.1291937E-03
 -0.3669499E-02  0.0000000E+00 -0.5050505E-02  0.1254883E-05  0.0000000E+00 -0.1283264E-03
 -0.3353842E-02  0.0000000E+00 -0.5050505E-02  0.1212484E-05  0.0000000E+00 -0.1274865E-03
 -0.2978990E-02  0.0000000E+00 -0.5050505E-02  0.1165734E-05  0.0000000E+00 -0.1266773E-03
 -0.2347676E-02  0.0000000E+00 -0.5050505E-02  0.1115256E-05  0.0000000E+00 -0.1259014E-03
 -0.1716362E-02  0.0000000E+00 -0.5050505E-02  0.1061716E-05  0.0000000E+00 -0.1251613E-03
 -0.1025842E-02  0.0000000E+00 -0.5050505E-02  0.1005798E-05  0.0000000E+00 -0.1244586E-03
  0.2367855E-03  0.0000000E+00 -0.5050505E-02  0.9481879E-06  0.0000000E+00 -0.1237948E-03
  0.1499413E-02  0.0000000E+00 -0.5050505E-02  0.8895545E-06  0.0000000E+00 -0.1231708E-03
  0.2762042E-02  0.0000000E+00 -0.5050505E-02  0.8305406E-06  0.0000000E+00 -0.1225871E-03
 -0.5050505E-02  0.0000000E+00 -0.5050505E-02  0.7717495E-06  0.0000000E+00 -0.1220435E-03
 -0.5050505E-02  0.0000000E+00 -0.5050505E-02  0.7137309E-06  0.0000000E+00 -0.1215399E-03
 -0.5050505E-02  0.0000000E+00 -0.5050505E-02  0.6569581E-06  0.0000000E+00 -0.1210753E-03
 -0.5050505E-02  0.0000000E+00 -0.5050505E-02  0.6017891E-06  0.0000000E+00 -0.1206487E-03
 -0.5050505E-02  0.0000000E+00 -0.5050505E-02  0.5483976E-06  0.0000000E+00 -0.1202589E-03
 -0.5050505E-02  0.0000000E+00 -0.5050505E-02  0.4966503E-06  0.0000000E+00 -0.1199045E-03
 -0.5050505E-02  0.0000000E+00 -0.5050505E-02  0.4458884E-06  0.0000000E+00 -0.1195842E-03
 -0.5050504E-02  0.0000000E+00 -0.5050505E-02  0.3945463E-06  0.0000000E+00 -0.1192973E-03
 -0.5050501E-02  0.0000000E+00 -0.5050505E-02  0.3395104E-06  0.0000000E+00 -0.1190442E-03
 -0.5050495E-02  0.0000000E+00 -0.5050505E-02  0.2751010E-06  0.0000000E+00 -0.1188279E-03
 -0.5050482E-02  0.0000000E+00 -0.5050505E-02  0.1916234E-06  0.0000000E+00 -0.1186561E-03
 -0.5050449E-02  0.0000000E+00 -0.5050505E-02  0.7375942E-07  0.0000000E+00 -0.1185449E-03
 -0.5050376E-02  0.0000000E+00 -0.5050505E-02 -0.9991308E-07  0.0000000E+00 -0.1185243E-03
 -0.5050299E-02  0.0000000E+00 -0.5050505E-02 -0.3525755E-06  0.0000000E+00 -0.1186444E-03
 -0.5050178E-02  0.0000000E+00 -0.5050505E-02 -0.6925897E-06  0.0000000E+00 -0.1189750E-03
 -0.5050018E-02  0.0000000E+00 -0.5050505E-02 -0.1078937E-05  0.0000000E+00 -0.1195800E-03
 -0.5049710E-02  0.0000000E+00 -0.5050505E-02 -0.1400708E-05  0.0000000E+00 -0.1204531E-03
 -0.5049253E-02  0.0000000E+00 -0.5050505E-02 -0.1617859E-05  0.0000000E+00 -0.1215179E-03
 -0.5048636E-02  0.0000000E+00 -0.5050505E-02 -0.1740462E-05  0.0000000E+00 -0.1226934E-03
 -0.5047442E-02  0.0000000E+00 -0.5050505E-02 -0.1793796E-05  0.0000000E+00 -0.1239196E-03
 -0.5045727E-02  0.0000000E+00 -0.5050505E-02 -0.1801437E-05  0.0000000E+00 -0.1251581E-03
 -0.5043261E-02  0.0000000E+00 -0.5050505E-02 -0.1780691E-05  0.0000000E+00 -0.1263857E-03
 -0.5038714E-02  0.0000000E+00 -0.5050505E-02 -0.1742955E-05  0.0000000E+00 -0.1275893E-03
 -0.5032318E-02  0.0000000E+00 -0.5050505E-02 -0.1695313E-05  0.0000000E+00 -0.1287612E-03
 -0.5022454E-02  0.0000000E+00 -0.5050505E-02 -0.1642014E-05  0.0000000E+00 -0.1298973E-03
 -0.5012589E-02  0.0000000E+00 -0.5050505E-02 -0.1585555E-05  0.0000000E+00 -0.1309951E-03
 -0.5002725E-02  0.0000000E+00 -0.5050505E-02 -0.1527377E-05  0.0000000E+00 -0.1320535E-03
 -0.4992860E-02  0.0000000E+00 -0.5050505E-02 -0.1468306E-05  0.0000000E+00 -0.1330718E-03
 -0.4976523E-02  0.0000000E+00 -0.5050505E-02 -0.1408807E-05  0.0000000E+00 -0.1340496E-03
 -0.4956794E-02  0.0000000E+00 -0.5050505E-02 -0.1349149E-05  0.0000000E+00 -0.1349869E-03
 -0.4937066E-02  0.0000000E+00 -0.5050505E-02 -0.1289489E-05  0.0000000E+00 -0.1358836E-03
 -0.4906239E-02  0.0000000E+00 -0.5050505E-02 -0.1229934E-05  0.0000000E+00 -0.1367397E-03
 -0.4866782E-02  0.0000000E+00 -0.5050505E-02 -0.1170575E-05  0.0000000E+00 -0.1375555E-03
 -0.4827325E-02  0.0000000E+00 -0.5050505E-02 -0.1111522E-05  0.0000000E+00 -0.1383309E-03
 -0.4769372E-02  0.0000000E+00 -0.5050505E-02 -0.1052930E-05  0.0000000E+00 -0.1390663E-03
 -0.4690458E-02  0.0000000E+00 -0.5050505E-02 -0.9950343E-06  0.0000000E+00 -0.1397620E-03
 -0.4611543E-02  0.0000000E+00 -0.5050505E-02 -0.9382019E-06  0.0000000E+00 -0.1404184E-03
 -0.4503035E-02  0.0000000E+00 -0.5050505E-02 -0.8830129E-06  0.0000000E+00 -0.1410365E-03
 -0.4345206E-02  0.0000000E+00 -0.5050505E-02 -0.8303928E-06  0.0000000E+00 -0.1416173E-03
 -0.4187378E-02  0.0000000E+00 -0.5050505E-02 -0.7818470E-06  0.0000000E+00 -0.1421626E-03
 -0.3985156E-02  0.0000000E+00 -0.5050505E-02 -0.7398913E-06  0.0000000E+00 -0.1426755E-03
 -0.3669499E-02  0.0000000E+00 -0.5050505E-02 -0.7088837E-06  0.0000000E+00 -0.1431602E-03
 -0.3353842E-02  0.0000000E+00 -0.5050505E-02 -0.6967137E-06  0.0000000E+00 -0.1436236E-03
 -0.2978990E-02  0.0000000E+00 -0.5050505E-02 -0.7184317E-06  0.0000000E+00 -0.1440765E-03
 -0.2347676E-02  0.0000000E+00 -0.5050505E-02 -0.8045145E-06  0.0000000E+00 -0.1445334E-03
 -0.1716362E-02  0.0000000E+00 -0.5050505E-02 -0.1020841E-05  0.0000000E+00 -0.1450087E-03
 -0.1025842E-02  0.0000000E+00 -0.5050505E-02 -0.1519846E-05  0.0000000E+00 -0.1454820E-03
  0.2367855E-03  0.0000000E+00 -0.5050505E-02 -0.2678499E-05  0.0000000E+00 -0.1457269E-03
  0.1499413E-02  0.0000000E+00 -0.5050505E-02 -0.5486189E-05  0.0000000E+00 -0.1444971E-03
  0.5287294E-02  0.0000000E+00 -0.5050505E-02 -0.1266175E-04  0.0000000E+00 -0.1357375E-03
 -0.5050505E-02  0.0000000E+00 -0.5050505E-02  0.4456429E-07  0.0000000E+00 -0.1531871E-03
 -0.5050505E-02  0.0000000E+00 -0.5050505E-02  0.1336733E-06  0.0000000E+00 -0.1531504E-03
 -0.5050505E-02  0.0000000E+00 -0.5050505E-02  0.2227232E-06  0.0000000E+00 -0.1530771E-03
 -0.5050505E-02  0.0000000E+00 -0.5050505E-02  0.3116739E-06  0.0000000E+00 -0.1529673E-03
 -0.5050505E-02  0.0000000E+00 -0.5050505E-02  0.4004833E-06  0.0000000E+00 -0.1528209E-03
 -0.5050505E-02  0.0000000E+00 -0.5050505E-02  0.4891071E-06  0.0000000E+00 -0.1526380E-03
 -0.5050504E-02  0.0000000E+00 -0.5050505E-02  0.5774977E-06  0.0000000E+00 -0.1524187E-03
 -0.5050501E-02  0.0000000E+00 -0.5050505E-02  0.6656030E-06  0.0000000E+00 -0.1521631E-03
 -0.5050495E-02  0.0000000E+00 -0.5050505E-02  0.7533656E-06  0.0000000E+00 -0.1518714E-03
 -0.5050482E-02  0.0000000E+00 -0.5050505E-02  0.8407218E-06  0.0000000E+00 -0.1515436E-03
 -0.5050449E-02  0.0000000E+00 -0.5050505E-02  0.9275998E-06  0.0000000E+00 -0.1511800E-03
 -0.5050376E-02  0.0000000E+00 -0.5050505E-02  0.1013919E-05  0.0000000E+00 -0.1507808E-03
 -0.5050299E-02  0.0000000E+00 -0.5050505E-02  0.1099586E-05  0.0000000E+00 -0.1503462E-03
 -0.5050178E-02  0.0000000E+00 -0.5050505E-02  0.1184497E-05  0.0000000E+00 -0.1498765E-03
 -0.5050018E-02  0.0000000E+00 -0.5050505E-02  0.1268532E-05  0.0000000E+00 -0.1493720E-03
 -0.5049710E-02  0.0000000E+00 -0.5050505E-02  0.1351552E-05  0.0000000E+00 -0.1488331E-03
 -0.5049253E-02  0.0000000E+00 -0.5050505E-02  0.1433401E-05  0.0000000E+00 -0.1482602E-03
 -0.5048636E-02  0.0000000E+00 -0.5050505E-02  0.1513898E-05  0.0000000E+00 -0.1476539E-03
 -0.5047442E-02  0.0000000E+00 -0.5050505E-02  0.1592837E-05  0.0000000E+00 -0.1470147E-03
 -0.5045727E-02  0.0000000E+00 -0.5050505E-02  0.1669981E-05  0.0000000E+00 -0.1463433E-03
 -0.5043261E-02  0.0000000E+00 -0.5050505E-02  0.1745063E-05  0.0000000E+00 -0.1456405E-03
 -0.5038714E-02  0.0000000E+00 -0.5050505E-02  0.1817778E-05  0.0000000E+00 -0.1449070E-03
 -0.5032318E-02  0.0000000E+00 -0.5050505E-02  0.1887781E-05  0.0000000E+00 -0.1441441E-03
 -0.5022454E-02  0.0000000E+00 -0.5050505E-02  0.1954684E-05  0.0000000E+00 -0.1433527E-03
 -0.5012589E-02  0.0000000E+00 -0.5050505E-02  0.2018055E-05  0.0000000E+00 -0.1425343E-03
 -0.5002725E-02  0.0000000E+00 -0.5050505E-02  0.2077414E-05  0.0000000E+00 -0.1416904E-03
 -0.4992860E-02  0.0000000E+00 -0.5050505E-02  0.2132231E-05  0.0000000E+00 -0.1408226E-03
 -0.4976523E-02  0.0000000E+00 -0.5050505E-02  0.2181933E-05  0.0000000E+00 -0.1399330E-03
 -0.4956794E-02  0.0000000E+00 -0.5050505E-02  0.2225906E-05  0.0000000E+00 -0.1390237E-03
 -0.4937066E-02  0.0000000E+00 -0.5050505E-02  0.2263499E-05  0.0000000E+00 -0.1380973E-03
 -0.4906239E-02  0.0000000E+00 -0.5050505E-02  0.2294044E-05  0.0000000E+00 -0.1371564E-03
 -0.4866782E-02  0.0000000E+00 -0.5050505E-02  0.2316867E-05  0.0000000E+00 -0.1362042E-03
 -0.4827325E-02  0.0000000E+00 -0.5050505E-02  0.2331316E-05  0.0000000E+00 -0.1352439E-03
 -0.4769372E-02  0.0000000E+00 -0.5050505E-02  0.2336786E-05  0.0000000E+00 -0.1342792E-03
 -0.4690458E-02  0.0000000E+00 -0.5050505E-02  0.2332754E-05  0.0000000E+00 -0.1333139E-03
 -0.4611543E-02  0.0000000E+00 -0.5050505E-02  0.2318819E-05  0.0000000E+00 -0.1323522E-03
 -0.4503035E-02  0.0000000E+00 -0.5050505E-02  0.2294733E-05  0.0000000E+00 -0.1313983E-03
 -0.4345206E-02  0.0000000E+00 -0.5050505E-02  0.2260437E-05  0.0000000E+00 -0.1304566E-03
 -0.4187378E-02  0.0000000E+00 -0.5050505E-02  0.2216088E-05  0.0000000E+00 -0.1295313E-03
 -0.3985156E-02  0.0000000E+00 -0.5050505E-02  0.2162063E-05  0.0000000E+00 -0.1286267E-03
 -0.3669499E-02  0.0000000E+00 -0.5050505E-02  0.2098961E-05  0.0000000E+00 -0.1277467E-03
 -0.3353842E-02  0.0000000E+00 -0.5050505E-02  0.2027575E-05  0.0000000E+00 -0.1268952E-03
 -0.2978990E-02  0.0000000E+00 -0.5050505E-02  0.1948860E-05  0.0000000E+00 -0.1260753E-03
 -0.2347676E-02  0.0000000E+00 -0.5050505E-02  0.1863886E-05  0.0000000E+00 -0.1252898E-03
 -0.1716362E-02  0.0000000E+00 -0.5050505E-02  0.1773792E-05  0.0000000E+00 -0.1245413E-03
 -0.1025842E-02  0.0000000E+00 -0.5050505E-02  0.1679745E-05  0.0000000E+00 -0.1238314E-03
  0.2367855E-03  0.0000000E+00 -0.5050505E-02  0.1582907E-05  0.0000000E+00 -0.1231616E-03
  0.1499413E-02  0.0000000E+00 -0.5050505E-02  0.1484414E-05  0.0000000E+00 -0.1225326E-03
  0.2762042E-02  0.0000000E+00 -0.5050505E-02  0.1385352E-05  0.0000000E+00 -0.1219450E-03
 -0.5050505E-02  0.0000000E+00 -0.5050505E-02  0.1286747E-05  0.0000000E+00 -0.1213985E-03
 -0.5050505E-02  0.0000000E+00 -0.5050505E-02  0.1189544E-05  0.0000000E+00 -0.1208927E-03
 -0.5050505E-02  0.0000000E+00 -0.5050505E-02  0.1094579E-05  0.0000000E+00 -0.1204267E-03
 -0.5050505E-02  0.0000000E+00 -0.5050505E-02  0.1002528E-05  0.0000000E+00 -0.1199991E-03
 -0.5050505E-02  0.0000000E+00 -0.5050505E-02  0.9138173E-06  0.0000000E+00 -0.1196084E-03
 -0.5050505E-02  0.0000000E+00 -0.5050505E-02  0.8284688E-06  0.0000000E+00 -0.1192526E-03
 -0.5050505E-02  0.0000000E+00 -0.5050505E-02  0.7458024E-06  0.0000000E+00 -0.1189294E-03
 -0.5050504E-02  0.0000000E+00 -0.5050505E-02  0.6639066E-06  0.0000000E+00 -0.1186365E-03
 -0.5050501E-02  0.0000000E+00 -0.5050505E-02  0.5786878E-06  0.0000000E+00 -0.1183717E-03
 -0.5050495E-02  0.0000000E+00 -0.5050505E-02  0.4822141E-06  0.0000000E+00 -0.1181336E-03
 -0.5050482E-02  0.0000000E+00 -0.5050505E-02  0.3599686E-06  0.0000000E+00 -0.1179232E-03
 -0.5050449E-02  0.0000000E+00 -0.5050505E-02  0.1867088E-06  0.0000000E+00 -0.1177484E-03
 -0.5050376E-02  0.0000000E+00 -0.5050505E-02 -0.7837138E-07  0.0000000E+00 -0.1176326E-03
 -0.5050299E-02  0.0000000E+00 -0.5050505E-02 -0.4922139E-06  0.0000000E+00 -0.1176336E-03
 -0.5050178E-02  0.0000000E+00 -0.5050505E-02 -0.1105612E-05  0.0000000E+00 -0.1178666E-03
 -0.5050018E-02  0.0000000E+00 -0.5050505E-02 -0.1870203E-05  0.0000000E+00 -0.1184880E-03
 -0.5049710E-02  0.0000000E+00 -0.5050505E-02 -0.2452118E-05  0.0000000E+00 -0.1194909E-03
 -0.5049253E-02  0.0000000E+00 -0.5050505E-02 -0.2804863E-05  0.0000000E+00 -0.1207051E-03
 -0.5048636E-02  0.0000000E+00 -0.5050505E-02 -0.2982452E-05  0.0000000E+00 -0.1220032E-03
 -0.5047442E-02  0.0000000E+00 -0.5050505E-02 -0.3045687E-05  0.0000000E+00 -0.1233173E-03
 -0.5045727E-02  0.0000000E+00 -0.5050505E-02 -0.3039224E-05  0.0000000E+00 -0.1246154E-03
 -0.5043261E-02  0.0000000E+00 -0.5050505E-02 -0.2991742E-05  0.0000000E+00 -0.1258832E-03
 -0.5038714E-02  0.0000000E+00 -0.5050505E-02 -0.2920622E-05  0.0000000E+00 -0.1271142E-03
 -0.5032318E-02  0.0000000E+00 -0.5050505E-02 -0.2836097E-05  0.0000000E+00 -0.1283056E-03
 -0.5022454E-02  0.0000000E+00 -0.5050505E-02 -0.2744097E-05  0.0000000E+00 -0.1294563E-03
 -0.5012589E-02  0.0000000E+00 -0.5050505E-02 -0.2648017E-05  0.0000000E+00 -0.1305656E-03
 -0.5002725E-02  0.0000000E+00 -0.5050505E-02 -0.2549785E-05  0.0000000E+00 -0.1316334E-03
 -0.4992860E-02  0.0000000E+00 -0.5050505E-02 -0.2450487E-05  0.0000000E+00 -0.1326598E-03
 -0.4976523E-02  0.0000000E+00 -0.5050505E-02 -0.2350729E-05  0.0000000E+00 -0.1336447E-03
 -0.4956794E-02  0.0000000E+00 -0.5050505E-02 -0.2250850E-05  0.0000000E+00 -0.1345883E-03
 -0.4937066E-02  0.0000000E+00 -0.5050505E-02 -0.2151048E-05  0.0000000E+00 -0.1354908E-03
 -0.4906239E-02  0.0000000E+00 -0.5050505E-02 -0.2051457E-05  0.0000000E+00 -0.1363521E-03
 -0.4866782E-02  0.0000000E+00 -0.5050505E-02 -0.1952195E-05  0.0000000E+00 -0.1371725E-03
 -0.4827325E-02  0.0000000E+00 -0.5050505E-02 -0.1853410E-05  0.0000000E+00 -0.1379520E-03
 -0.4769372E-02  0.0000000E+00 -0.5050505E-02 -0.1755317E-05  0.0000000E+00 -0.1386908E-03
 -0.4690458E-02  0.0000000E+00 -0.5050505E-02 -0.1658250E-05  0.0000000E+00 -0.1393892E-03
 -0.4611543E-02  0.0000000E+00 -0.5050505E-02 -0.1562730E-05  0.0000000E+00 -0.1400475E-03
 -0.4503035E-02  0.0000000E+00 -0.5050505E-02 -0.1469572E-05  0.0000000E+00 -0.1406660E-03
 -0.4345206E-02  0.0000000E+00 -0.5050505E-02 -0.1380054E-05  0.0000000E+00 -0.1412455E-03
 -0.4187378E-02  0.0000000E+00 -0.5050505E-02 -0.1296198E-05  0.0000000E+00 -0.1417867E-03
 -0.3985156E-02  0.0000000E+00 -0.5050505E-02 -0.1221253E-05  0.0000000E+00 -0.1422908E-03
 -0.3669499E-02  0.0000000E+00 -0.5050505E-02 -0.1160557E-05  0.0000000E+00 -0.1427592E-03
 -0.3353842E-02  0.0000000E+00 -0.5050505E-02 -0.1123085E-05  0.0000000E+00 -0.1431927E-03
 -0.2978990E-02  0.0000000E+00 -0.5050505E-02 -0.1124282E-05  0.0000000E+00 -0.1435904E-03
 -0.2347676E-02  0.0000000E+00 -0.5050505E-02 -0.1191157E-05  0.0000000E+00 -0.1439440E-03
 -0.1716362E-02  0.0000000E+00 -0.5050505E-02 -0.1370711E-05  0.0000000E+00 -0.1442232E-03
 -0.1025842E-02  0.0000000E+00 -0.5050505E-02 -0.1739894E-05  0.0000000E+00 -0.1443369E-03
  0.2367855E-03  0.0000000E+00 -0.5050505E-02 -0.2395961E-05  0.0000000E+00 -0.1440407E-03
  0.1499413E-02  0.0000000E+00 -0.5050505E-02 -0.3307455E-05  0.0000000E+00 -0.1427917E-03
  0.5287294E-02  0.0000000E+00 -0.5050505E-02 -0.3446044E-05  0.0000000E+00 -0.1400345E-03
 -0.5050505E-02  0.0000000E+00 -0.5050505E-02  0.6252985E-07  0.0000000E+00 -0.1527593E-03
 -0.5050505E-02  0.0000000E+00 -0.5050505E-02  0.1875628E-06  0.0000000E+00 -0.1527223E-03
 -0.5050505E-02  0.0000000E+00 -0.5050505E-02  0.3125149E-06  0.0000000E+00 -0.1526483E-03
 -0.5050505E-02  0.0000000E+00 -0.5050505E-02  0.4373312E-06  0.0000000E+00 -0.1525373E-03
 -0.5050505E-02  0.0000000E+00 -0.5050505E-02  0.5619542E-06  0.0000000E+00 -0.1523893E-03
 -0.5050505E-02  0.0000000E+00 -0.5050505E-02  0.6863231E-06  0.0000000E+00 -0.1522045E-03
 -0.5050504E-02  0.0000000E+00 -0.5050505E-02  0.8103727E-06  0.0000000E+00 -0.1519829E-03
 -0.5050501E-02  0.0000000E+00 -0.5050505E-02  0.9340317E-06  0.0000000E+00 -0.1517246E-03
 -0.5050495E-02  0.0000000E+00 -0.5050505E-02  0.1057222E-05  0.0000000E+00 -0.1514297E-03
 -0.5050482E-02  0.0000000E+00 -0.5050505E-02  0.1179855E-05  0.0000000E+00 -0.1510984E-03
 -0.5050449E-02  0.0000000E+00 -0.5050505E-02  0.1301834E-05  0.0000000E+00 -0.1507308E-03
 -0.5050376E-02  0.0000000E+00 -0.5050505E-02  0.1423047E-05  0.0000000E+00 -0.1503272E-03
 -0.5050299E-02  0.0000000E+00 -0.5050505E-02  0.1543368E-05  0.0000000E+00 -0.1498877E-03
 -0.5050178E-02  0.0000000E+00 -0.5050505E-02  0.1662653E-05  0.0000000E+00 -0.1494127E-03
 -0.5050018E-02  0.0000000E+00 -0.5050505E-02  0.1780737E-05  0.0000000E+00 -0.1489023E-03
 -0.5049710E-02  0.0000000E+00 -0.5050505E-02  0.1897431E-05  0.0000000E+00 -0.1483571E-03
 -0.5049253E-02  0.0000000E+00 -0.5050505E-02  0.2012518E-05  0.0000000E+00 -0.1477773E-03
 -0.5048636E-02  0.0000000E+00 -0.5050505E-02  0.2125750E-05  0.0000000E+00 -0.1471635E-03
 -0.5047442E-02  0.0000000E+00 -0.5050505E-02  0.2236841E-05  0.0000000E+00 -0.1465163E-03
 -0.5045727E-02  0.0000000E+00 -0.5050505E-02  0.2345466E-05  0.0000000E+00 -0.1458361E-03
 -0.5043261E-02  0.0000000E+00 -0.5050505E-02  0.2451253E-05  0.0000000E+00 -0.1451239E-03
 -0.5038714E-02  0.0000000E+00 -0.5050505E-02  0.2553779E-05  0.0000000E+00 -0.1443804E-03
 -0.5032318E-02  0.0000000E+00 -0.5050505E-02  0.2652564E-05  0.0000000E+00 -0.1436065E-03
 -0.5022454E-02  0.0000000E+00 -0.5050505E-02  0.2747068E-05  0.0000000E+00 -0.1428035E-03
 -0.5012589E-02  0.0000000E+00 -0.5050505E-02  0.2836685E-05  0.0000000E+00 -0.1419725E-03
 -0.5002725E-02  0.0000000E+00 -0.5050505E-02  0.2920740E-05  0.0000000E+00 -0.1411152E-03
 -0.4992860E-02  0.0000000E+00 -0.5050505E-02  0.2998487E-05  0.0000000E+00 -0.1402330E-03
 -0.4976523E-02  0.0000000E+00 -0.5050505E-02  0.3069115E-05  0.0000000E+00 -0.1393281E-03
 -0.4956794E-02  0.0000000E+00 -0.5050505E-02  0.3131746E-05  0.0000000E+00 -0.1384024E-03
 -0.4937066E-02  0.0000000E+00 -0.5050505E-02  0.3185452E-05  0.0000000E+00 -0.1374586E-03