title = "dataset feddes"
variables = "x", "y", "z", "vx", "vy", "vz"
zone t = "velocities, solution time =  2.000E+01 days        " i =   99, j =   99, k =    1,  f=point
 -0.5050505E-02  0.0000000E+00 -0.5050505E-02 -0.1798985E-11  0.0000000E+00 -0.4160769E-03
 -0.5050505E-02  0.0000000E+00 -0.5050505E-02 -0.5697077E-11  0.0000000E+00 -0.4160769E-03
 -0.5050505E-02  0.0000000E+00 -0.5050505E-02 -0.9602595E-11  0.0000000E+00 -0.4160769E-03
 -0.5050505E-02  0.0000000E+00 -0.5050505E-02 -0.1353331E-10  0.0000000E+00 -0.4160769E-03
 -0.5050505E-02  0.0000000E+00 -0.5050505E-02 -0.1754185E-10  0.0000000E+00 -0.4160770E-03
 -0.5050505E-02  0.0000000E+00 -0.5050505E-02 -0.2164971E-10  0.0000000E+00 -0.4160770E-03
 -0.5050504E-02  0.0000000E+00 -0.5050505E-02 -0.2588051E-10  0.0000000E+00 -0.4160771E-03
 -0.5050501E-02  0.0000000E+00 -0.5050505E-02 -0.3025681E-10  0.0000000E+00 -0.4160771E-03
 -0.5050495E-02  0.0000000E+00 -0.5050505E-02 -0.3480655E-10  0.0000000E+00 -0.4160772E-03
 -0.5050482E-02  0.0000000E+00 -0.5050505E-02 -0.3955232E-10  0.0000000E+00 -0.4160773E-03
 -0.5050449E-02  0.0000000E+00 -0.5050505E-02 -0.4452190E-10  0.0000000E+00 -0.4160773E-03
 -0.5050376E-02  0.0000000E+00 -0.5050505E-02 -0.4974044E-10  0.0000000E+00 -0.4160774E-03
 -0.5050299E-02  0.0000000E+00 -0.5050505E-02 -0.5523194E-10  0.0000000E+00 -0.4160776E-03
 -0.5050178E-02  0.0000000E+00 -0.5050505E-02 -0.6102378E-10  0.0000000E+00 -0.4160777E-03
 -0.5050018E-02  0.0000000E+00 -0.5050505E-02 -0.6713959E-10  0.0000000E+00 -0.4160778E-03
 -0.5049710E-02  0.0000000E+00 -0.5050505E-02 -0.7360568E-10  0.0000000E+00 -0.4160780E-03
 -0.5049253E-02  0.0000000E+00 -0.5050505E-02 -0.8044846E-10  0.0000000E+00 -0.4160781E-03
 -0.5048636E-02  0.0000000E+00 -0.5050505E-02 -0.8769253E-10  0.0000000E+00 -0.4160783E-03
 -0.5047442E-02  0.0000000E+00 -0.5050505E-02 -0.9536408E-10  0.0000000E+00 -0.4160785E-03
 -0.5045727E-02  0.0000000E+00 -0.5050505E-02 -0.1034910E-09  0.0000000E+00 -0.4160787E-03
 -0.5043261E-02  0.0000000E+00 -0.5050505E-02 -0.1121004E-09  0.0000000E+00 -0.4160789E-03
 -0.5038714E-02  0.0000000E+00 -0.5050505E-02 -0.1212192E-09  0.0000000E+00 -0.4160792E-03
 -0.5032318E-02  0.0000000E+00 -0.5050505E-02 -0.1308761E-09  0.0000000E+00 -0.4160794E-03
 -0.5022454E-02  0.0000000E+00 -0.5050505E-02 -0.1411011E-09  0.0000000E+00 -0.4160797E-03
 -0.5012589E-02  0.0000000E+00 -0.5050505E-02 -0.1519247E-09  0.0000000E+00 -0.4160800E-03
 -0.5002725E-02  0.0000000E+00 -0.5050505E-02 -0.1633785E-09  0.0000000E+00 -0.4160804E-03
 -0.4992860E-02  0.0000000E+00 -0.5050505E-02 -0.1754957E-09  0.0000000E+00 -0.4160807E-03
 -0.4976523E-02  0.0000000E+00 -0.5050505E-02 -0.1883109E-09  0.0000000E+00 -0.4160811E-03
 -0.4956794E-02  0.0000000E+00 -0.5050505E-02 -0.2018609E-09  0.0000000E+00 -0.4160815E-03
 -0.4937066E-02  0.0000000E+00 -0.5050505E-02 -0.2161847E-09  0.0000000E+00 -0.4160819E-03
 -0.4906239E-02  0.0000000E+00 -0.5050505E-02 -0.2313232E-09  0.0000000E+00 -0.4160824E-03
 -0.4866782E-02  0.0000000E+00 -0.5050505E-02 -0.2473208E-09  0.0000000E+00 -0.4160829E-03
 -0.4827325E-02  0.0000000E+00 -0.5050505E-02 -0.2642248E-09  0.0000000E+00 -0.4160835E-03
 -0.4769372E-02  0.0000000E+00 -0.5050505E-02 -0.2820862E-09  0.0000000E+00 -0.4160840E-03
 -0.4690458E-02  0.0000000E+00 -0.5050505E-02 -0.3009600E-09  0.0000000E+00 -0.4160846E-03
 -0.4611543E-02  0.0000000E+00 -0.5050505E-02 -0.3209062E-09  0.0000000E+00 -0.4160853E-03
 -0.4503035E-02  0.0000000E+00 -0.5050505E-02 -0.3419901E-09  0.0000000E+00 -0.4160860E-03
 -0.4345206E-02  0.0000000E+00 -0.5050505E-02 -0.3642831E-09  0.0000000E+00 -0.4160867E-03
 -0.4187378E-02  0.0000000E+00 -0.5050505E-02 -0.3878637E-09  0.0000000E+00 -0.4160875E-03
 -0.3985156E-02  0.0000000E+00 -0.5050505E-02 -0.4128182E-09  0.0000000E+00 -0.4160884E-03
 -0.3669499E-02  0.0000000E+00 -0.5050505E-02 -0.4392420E-09  0.0000000E+00 -0.4160893E-03
 -0.3353842E-02  0.0000000E+00 -0.5050505E-02 -0.4672405E-09  0.0000000E+00 -0.4160902E-03
 -0.2978990E-02  0.0000000E+00 -0.5050505E-02 -0.4969308E-09  0.0000000E+00 -0.4160912E-03
 -0.2347676E-02  0.0000000E+00 -0.5050505E-02 -0.5284435E-09  0.0000000E+00 -0.4160923E-03
 -0.1716362E-02  0.0000000E+00 -0.5050505E-02 -0.5619240E-09  0.0000000E+00 -0.4160934E-03
 -0.1025842E-02  0.0000000E+00 -0.5050505E-02 -0.5975350E-09  0.0000000E+00 -0.4160947E-03
  0.2367855E-03  0.0000000E+00 -0.5050505E-02 -0.6354585E-09  0.0000000E+00 -0.4160959E-03
  0.1499413E-02  0.0000000E+00 -0.5050505E-02 -0.6758995E-09  0.0000000E+00 -0.4160973E-03
  0.2762042E-02  0.0000000E+00 -0.5050505E-02 -0.7190881E-09  0.0000000E+00 -0.4160988E-03
 -0.5050505E-02  0.0000000E+00 -0.5050505E-02 -0.7652843E-09  0.0000000E+00 -0.4161003E-03
 -0.5050505E-02  0.0000000E+00 -0.5050505E-02 -0.8147817E-09  0.0000000E+00 -0.4161020E-03
 -0.5050505E-02  0.0000000E+00 -0.5050505E-02 -0.8679131E-09  0.0000000E+00 -0.4161038E-03
 -0.5050505E-02  0.0000000E+00 -0.5050505E-02 -0.9250561E-09  0.0000000E+00 -0.4161057E-03
 -0.5050505E-02  0.0000000E+00 -0.5050505E-02 -0.9866408E-09  0.0000000E+00 -0.4161077E-03
 -0.5050505E-02  0.0000000E+00 -0.5050505E-02 -0.1053158E-08  0.0000000E+00 -0.4161098E-03
 -0.5050505E-02  0.0000000E+00 -0.5050505E-02 -0.1125168E-08  0.0000000E+00 -0.4161121E-03
 -0.5050504E-02  0.0000000E+00 -0.5050505E-02 -0.1203314E-08  0.0000000E+00 -0.4161145E-03
 -0.5050501E-02  0.0000000E+00 -0.5050505E-02 -0.1288337E-08  0.0000000E+00 -0.4161171E-03
 -0.5050495E-02  0.0000000E+00 -0.5050505E-02 -0.1381089E-08  0.0000000E+00 -0.4161199E-03
 -0.5050482E-02  0.0000000E+00 -0.5050505E-02 -0.1482559E-08  0.0000000E+00 -0.4161230E-03
 -0.5050449E-02  0.0000000E+00 -0.5050505E-02 -0.1593891E-08  0.0000000E+00 -0.4161262E-03
 -0.5050376E-02  0.0000000E+00 -0.5050505E-02 -0.1716423E-08  0.0000000E+00 -0.4161297E-03
 -0.5050299E-02  0.0000000E+00 -0.5050505E-02 -0.1851714E-08  0.0000000E+00 -0.4161334E-03
 -0.5050178E-02  0.0000000E+00 -0.5050505E-02 -0.2001598E-08  0.0000000E+00 -0.4161374E-03
 -0.5050018E-02  0.0000000E+00 -0.5050505E-02 -0.2168236E-08  0.0000000E+00 -0.4161418E-03
 -0.5049710E-02  0.0000000E+00 -0.5050505E-02 -0.2354187E-08  0.0000000E+00 -0.4161466E-03
 -0.5049253E-02  0.0000000E+00 -0.5050505E-02 -0.2562495E-08  0.0000000E+00 -0.4161517E-03
 -0.5048636E-02  0.0000000E+00 -0.5050505E-02 -0.2796803E-08  0.0000000E+00 -0.4161573E-03
 -0.5047442E-02  0.0000000E+00 -0.5050505E-02 -0.3061487E-08  0.0000000E+00 -0.4161635E-03
 -0.5045727E-02  0.0000000E+00 -0.5050505E-02 -0.3361845E-08  0.0000000E+00 -0.4161702E-03
 -0.5043261E-02  0.0000000E+00 -0.5050505E-02 -0.3704319E-08  0.0000000E+00 -0.4161777E-03
 -0.5038714E-02  0.0000000E+00 -0.5050505E-02 -0.4096806E-08  0.0000000E+00 -0.4161858E-03
 -0.5032318E-02  0.0000000E+00 -0.5050505E-02 -0.4549046E-08  0.0000000E+00 -0.4161949E-03
 -0.5022454E-02  0.0000000E+00 -0.5050505E-02 -0.5073149E-08  0.0000000E+00 -0.4162050E-03
 -0.5012589E-02  0.0000000E+00 -0.5050505E-02 -0.5684300E-08  0.0000000E+00 -0.4162163E-03
 -0.5002725E-02  0.0000000E+00 -0.5050505E-02 -0.6401701E-08  0.0000000E+00 -0.4162290E-03
 -0.4992860E-02  0.0000000E+00 -0.5050505E-02 -0.7249881E-08  0.0000000E+00 -0.4162433E-03
 -0.4976523E-02  0.0000000E+00 -0.5050505E-02 -0.8260492E-08  0.0000000E+00 -0.4162596E-03
 -0.4956794E-02  0.0000000E+00 -0.5050505E-02 -0.9474861E-08  0.0000000E+00 -0.4162782E-03
 -0.4937066E-02  0.0000000E+00 -0.5050505E-02 -0.1094761E-07  0.0000000E+00 -0.4162996E-03
 -0.4906239E-02  0.0000000E+00 -0.5050505E-02 -0.1275196E-07  0.0000000E+00 -0.4163245E-03
 -0.4866782E-02  0.0000000E+00 -0.5050505E-02 -0.1498750E-07  0.0000000E+00 -0.4163536E-03
 -0.4827325E-02  0.0000000E+00 -0.5050505E-02 -0.1779210E-07  0.0000000E+00 -0.4163880E-03
 -0.4769372E-02  0.0000000E+00 -0.5050505E-02 -0.2136007E-07  0.0000000E+00 -0.4164291E-03
 -0.4690458E-02  0.0000000E+00 -0.5050505E-02 -0.2597125E-07  0.0000000E+00 -0.4164788E-03
 -0.4611543E-02  0.0000000E+00 -0.5050505E-02 -0.3203822E-07  0.0000000E+00 -0.4165397E-03
 -0.4503035E-02  0.0000000E+00 -0.5050505E-02 -0.4018601E-07  0.0000000E+00 -0.4166155E-03
 -0.4345206E-02  0.0000000E+00 -0.5050505E-02 -0.5139129E-07  0.0000000E+00 -0.4167116E-03
 -0.4187378E-02  0.0000000E+00 -0.5050505E-02 -0.6723617E-07  0.0000000E+00 -0.4168361E-03
 -0.3985156E-02  0.0000000E+00 -0.5050505E-02 -0.9039359E-07  0.0000000E+00 -0.4170015E-03
 -0.3669499E-02  0.0000000E+00 -0.5050505E-02 -0.1256098E-06  0.0000000E+00 -0.4172282E-03
 -0.3353842E-02  0.0000000E+00 -0.5050505E-02 -0.1818270E-06  0.0000000E+00 -0.4175509E-03
 -0.2978990E-02  0.0000000E+00 -0.5050505E-02 -0.2771280E-06  0.0000000E+00 -0.4180327E-03
 -0.2347676E-02  0.0000000E+00 -0.5050505E-02 -0.4512797E-06  0.0000000E+00 -0.4187973E-03
 -0.1716362E-02  0.0000000E+00 -0.5050505E-02 -0.8006518E-06  0.0000000E+00 -0.4201116E-03
 -0.1025842E-02  0.0000000E+00 -0.5050505E-02 -0.1585294E-05  0.0000000E+00 -0.4226167E-03
  0.2367855E-03  0.0000000E+00 -0.5050505E-02 -0.3589855E-05  0.0000000E+00 -0.4280521E-03
  0.1499413E-02  0.0000000E+00 -0.5050505E-02 -0.9450631E-05  0.0000000E+00 -0.4417578E-03
  0.5287294E-02  0.0000000E+00 -0.5050505E-02 -0.1553788E-03  0.0000000E+00 -0.3522618E-03
 -0.5050505E-02  0.0000000E+00 -0.5050505E-02 -0.5437656E-11  0.0000000E+00 -0.4157689E-03
 -0.5050505E-02  0.0000000E+00 -0.5050505E-02 -0.1702058E-10  0.0000000E+00 -0.4157689E-03
 -0.5050505E-02  0.0000000E+00 -0.5050505E-02 -0.2871122E-10  0.0000000E+00 -0.4157689E-03
 -0.5050505E-02  0.0000000E+00 -0.5050505E-02 -0.4047062E-10  0.0000000E+00 -0.4157689E-03
 -0.5050505E-02  0.0000000E+00 -0.5050505E-02 -0.5245407E-10  0.0000000E+00 -0.4157690E-03
 -0.5050505E-02  0.0000000E+00 -0.5050505E-02 -0.6473184E-10  0.0000000E+00 -0.4157690E-03
 -0.5050504E-02  0.0000000E+00 -0.5050505E-02 -0.7737901E-10  0.0000000E+00 -0.4157691E-03
 -0.5050501E-02  0.0000000E+00 -0.5050505E-02 -0.9046284E-10  0.0000000E+00 -0.4157691E-03
 -0.5050495E-02  0.0000000E+00 -0.5050505E-02 -0.1040677E-09  0.0000000E+00 -0.4157692E-03
 -0.5050482E-02  0.0000000E+00 -0.5050505E-02 -0.1182623E-09  0.0000000E+00 -0.4157693E-03
 -0.5050449E-02  0.0000000E+00 -0.5050505E-02 -0.1331273E-09  0.0000000E+00 -0.4157694E-03
 -0.5050376E-02  0.0000000E+00 -0.5050505E-02 -0.1487401E-09  0.0000000E+00 -0.4157695E-03
 -0.5050299E-02  0.0000000E+00 -0.5050505E-02 -0.1651722E-09  0.0000000E+00 -0.4157696E-03
 -0.5050178E-02  0.0000000E+00 -0.5050505E-02 -0.1825050E-09  0.0000000E+00 -0.4157697E-03
 -0.5050018E-02  0.0000000E+00 -0.5050505E-02 -0.2008103E-09  0.0000000E+00 -0.4157698E-03
 -0.5049710E-02  0.0000000E+00 -0.5050505E-02 -0.2201654E-09  0.0000000E+00 -0.4157700E-03
 -0.5049253E-02  0.0000000E+00 -0.5050505E-02 -0.2406506E-09  0.0000000E+00 -0.4157701E-03
 -0.5048636E-02  0.0000000E+00 -0.5050505E-02 -0.2623406E-09  0.0000000E+00 -0.4157703E-03
 -0.5047442E-02  0.0000000E+00 -0.5050505E-02 -0.2853123E-09  0.0000000E+00 -0.4157705E-03
 -0.5045727E-02  0.0000000E+00 -0.5050505E-02 -0.3096485E-09  0.0000000E+00 -0.4157707E-03
 -0.5043261E-02  0.0000000E+00 -0.5050505E-02 -0.3354317E-09  0.0000000E+00 -0.4157709E-03
 -0.5038714E-02  0.0000000E+00 -0.5050505E-02 -0.3627432E-09  0.0000000E+00 -0.4157712E-03
 -0.5032318E-02  0.0000000E+00 -0.5050505E-02 -0.3916683E-09  0.0000000E+00 -0.4157714E-03
 -0.5022454E-02  0.0000000E+00 -0.5050505E-02 -0.4222961E-09  0.0000000E+00 -0.4157717E-03
 -0.5012589E-02  0.0000000E+00 -0.5050505E-02 -0.4547181E-09  0.0000000E+00 -0.4157720E-03
 -0.5002725E-02  0.0000000E+00 -0.5050505E-02 -0.4890295E-09  0.0000000E+00 -0.4157723E-03
 -0.4992860E-02  0.0000000E+00 -0.5050505E-02 -0.5253292E-09  0.0000000E+00 -0.4157727E-03
 -0.4976523E-02  0.0000000E+00 -0.5050505E-02 -0.5637211E-09  0.0000000E+00 -0.4157731E-03
 -0.4956794E-02  0.0000000E+00 -0.5050505E-02 -0.6043151E-09  0.0000000E+00 -0.4157735E-03
 -0.4937066E-02  0.0000000E+00 -0.5050505E-02 -0.6472275E-09  0.0000000E+00 -0.4157739E-03
 -0.4906239E-02  0.0000000E+00 -0.5050505E-02 -0.6925813E-09  0.0000000E+00 -0.4157744E-03
 -0.4866782E-02  0.0000000E+00 -0.5050505E-02 -0.7405083E-09  0.0000000E+00 -0.4157749E-03
 -0.4827325E-02  0.0000000E+00 -0.5050505E-02 -0.7911505E-09  0.0000000E+00 -0.4157754E-03
 -0.4769372E-02  0.0000000E+00 -0.5050505E-02 -0.8446600E-09  0.0000000E+00 -0.4157760E-03
 -0.4690458E-02  0.0000000E+00 -0.5050505E-02 -0.9012015E-09  0.0000000E+00 -0.4157766E-03
 -0.4611543E-02  0.0000000E+00 -0.5050505E-02 -0.9609542E-09  0.0000000E+00 -0.4157773E-03
 -0.4503035E-02  0.0000000E+00 -0.5050505E-02 -0.1024113E-08  0.0000000E+00 -0.4157779E-03
 -0.4345206E-02  0.0000000E+00 -0.5050505E-02 -0.1090891E-08  0.0000000E+00 -0.4157787E-03
 -0.4187378E-02  0.0000000E+00 -0.5050505E-02 -0.1161523E-08  0.0000000E+00 -0.4157795E-03
 -0.3985156E-02  0.0000000E+00 -0.5050505E-02 -0.1236267E-08  0.0000000E+00 -0.4157803E-03
 -0.3669499E-02  0.0000000E+00 -0.5050505E-02 -0.1315406E-08  0.0000000E+00 -0.4157812E-03
 -0.3353842E-02  0.0000000E+00 -0.5050505E-02 -0.1399257E-08  0.0000000E+00 -0.4157821E-03
 -0.2978990E-02  0.0000000E+00 -0.5050505E-02 -0.1488168E-08  0.0000000E+00 -0.4157832E-03
 -0.2347676E-02  0.0000000E+00 -0.5050505E-02 -0.1582530E-08  0.0000000E+00 -0.4157842E-03
 -0.1716362E-02  0.0000000E+00 -0.5050505E-02 -0.1682776E-08  0.0000000E+00 -0.4157854E-03
 -0.1025842E-02  0.0000000E+00 -0.5050505E-02 -0.1789391E-08  0.0000000E+00 -0.4157866E-03
  0.2367855E-03  0.0000000E+00 -0.5050505E-02 -0.1902919E-08  0.0000000E+00 -0.4157879E-03
  0.1499413E-02  0.0000000E+00 -0.5050505E-02 -0.2023971E-08  0.0000000E+00 -0.4157892E-03
  0.2762042E-02  0.0000000E+00 -0.5050505E-02 -0.2153233E-08  0.0000000E+00 -0.4157907E-03
 -0.5050505E-02  0.0000000E+00 -0.5050505E-02 -0.2291481E-08  0.0000000E+00 -0.4157922E-03
 -0.5050505E-02  0.0000000E+00 -0.5050505E-02 -0.2439591E-08  0.0000000E+00 -0.4157939E-03
 -0.5050505E-02  0.0000000E+00 -0.5050505E-02 -0.2598553E-08  0.0000000E+00 -0.4157956E-03
 -0.5050505E-02  0.0000000E+00 -0.5050505E-02 -0.2769494E-08  0.0000000E+00 -0.4157975E-03
 -0.5050505E-02  0.0000000E+00 -0.5050505E-02 -0.2953695E-08  0.0000000E+00 -0.4157995E-03
 -0.5050505E-02  0.0000000E+00 -0.5050505E-02 -0.3152617E-08  0.0000000E+00 -0.4158016E-03
 -0.5050505E-02  0.0000000E+00 -0.5050505E-02 -0.3367930E-08  0.0000000E+00 -0.4158039E-03
 -0.5050504E-02  0.0000000E+00 -0.5050505E-02 -0.3601551E-08  0.0000000E+00 -0.4158063E-03
 -0.5050501E-02  0.0000000E+00 -0.5050505E-02 -0.3855682E-08  0.0000000E+00 -0.4158089E-03
 -0.5050495E-02  0.0000000E+00 -0.5050505E-02 -0.4132861E-08  0.0000000E+00 -0.4158117E-03
 -0.5050482E-02  0.0000000E+00 -0.5050505E-02 -0.4436025E-08  0.0000000E+00 -0.4158147E-03
 -0.5050449E-02  0.0000000E+00 -0.5050505E-02 -0.4768583E-08  0.0000000E+00 -0.4158179E-03
 -0.5050376E-02  0.0000000E+00 -0.5050505E-02 -0.5134504E-08  0.0000000E+00 -0.4158214E-03
 -0.5050299E-02  0.0000000E+00 -0.5050505E-02 -0.5538424E-08  0.0000000E+00 -0.4158251E-03
 -0.5050178E-02  0.0000000E+00 -0.5050505E-02 -0.5985787E-08  0.0000000E+00 -0.4158291E-03
 -0.5050018E-02  0.0000000E+00 -0.5050505E-02 -0.6483006E-08  0.0000000E+00 -0.4158334E-03
 -0.5049710E-02  0.0000000E+00 -0.5050505E-02 -0.7037668E-08  0.0000000E+00 -0.4158381E-03
 -0.5049253E-02  0.0000000E+00 -0.5050505E-02 -0.7658799E-08  0.0000000E+00 -0.4158432E-03
 -0.5048636E-02  0.0000000E+00 -0.5050505E-02 -0.8357183E-08  0.0000000E+00 -0.4158488E-03
 -0.5047442E-02  0.0000000E+00 -0.5050505E-02 -0.9145777E-08  0.0000000E+00 -0.4158549E-03
 -0.5045727E-02  0.0000000E+00 -0.5050505E-02 -0.1004024E-07  0.0000000E+00 -0.4158615E-03
 -0.5043261E-02  0.0000000E+00 -0.5050505E-02 -0.1105960E-07  0.0000000E+00 -0.4158689E-03
 -0.5038714E-02  0.0000000E+00 -0.5050505E-02 -0.1222716E-07  0.0000000E+00 -0.4158769E-03
 -0.5032318E-02  0.0000000E+00 -0.5050505E-02 -0.1357163E-07  0.0000000E+00 -0.4158859E-03
 -0.5022454E-02  0.0000000E+00 -0.5050505E-02 -0.1512865E-07  0.0000000E+00 -0.4158958E-03
 -0.5012589E-02  0.0000000E+00 -0.5050505E-02 -0.1694284E-07  0.0000000E+00 -0.4159069E-03
 -0.5002725E-02  0.0000000E+00 -0.5050505E-02 -0.1907054E-07  0.0000000E+00 -0.4159193E-03
 -0.4992860E-02  0.0000000E+00 -0.5050505E-02 -0.2158358E-07  0.0000000E+00 -0.4159333E-03
 -0.4976523E-02  0.0000000E+00 -0.5050505E-02 -0.2457445E-07  0.0000000E+00 -0.4159492E-03
 -0.4956794E-02  0.0000000E+00 -0.5050505E-02 -0.2816358E-07  0.0000000E+00 -0.4159674E-03
 -0.4937066E-02  0.0000000E+00 -0.5050505E-02 -0.3250974E-07  0.0000000E+00 -0.4159882E-03
 -0.4906239E-02  0.0000000E+00 -0.5050505E-02 -0.3782499E-07  0.0000000E+00 -0.4160123E-03
 -0.4866782E-02  0.0000000E+00 -0.5050505E-02 -0.4439675E-07  0.0000000E+00 -0.4160404E-03
 -0.4827325E-02  0.0000000E+00 -0.5050505E-02 -0.5262087E-07  0.0000000E+00 -0.4160734E-03
 -0.4769372E-02  0.0000000E+00 -0.5050505E-02 -0.6305244E-07  0.0000000E+00 -0.4161127E-03
 -0.4690458E-02  0.0000000E+00 -0.5050505E-02 -0.7648540E-07  0.0000000E+00 -0.4161598E-03
 -0.4611543E-02  0.0000000E+00 -0.5050505E-02 -0.9408089E-07  0.0000000E+00 -0.4162171E-03
 -0.4503035E-02  0.0000000E+00 -0.5050505E-02 -0.1175803E-06  0.0000000E+00 -0.4162877E-03
 -0.4345206E-02  0.0000000E+00 -0.5050505E-02 -0.1496700E-06  0.0000000E+00 -0.4163761E-03
 -0.4187378E-02  0.0000000E+00 -0.5050505E-02 -0.1946311E-06  0.0000000E+00 -0.4164886E-03
 -0.3985156E-02  0.0000000E+00 -0.5050505E-02 -0.2595412E-06  0.0000000E+00 -0.4166345E-03
 -0.3669499E-02  0.0000000E+00 -0.5050505E-02 -0.3566076E-06  0.0000000E+00 -0.4168280E-03
 -0.3353842E-02  0.0000000E+00 -0.5050505E-02 -0.5079275E-06  0.0000000E+00 -0.4170904E-03
 -0.2978990E-02  0.0000000E+00 -0.5050505E-02 -0.7557608E-06  0.0000000E+00 -0.4174539E-03
 -0.2347676E-02  0.0000000E+00 -0.5050505E-02 -0.1186051E-05  0.0000000E+00 -0.4179639E-03
 -0.1716362E-02  0.0000000E+00 -0.5050505E-02 -0.1985669E-05  0.0000000E+00 -0.4186668E-03
 -0.1025842E-02  0.0000000E+00 -0.5050505E-02 -0.3590301E-05  0.0000000E+00 -0.4195150E-03
  0.2367855E-03  0.0000000E+00 -0.5050505E-02 -0.7087654E-05  0.0000000E+00 -0.4198705E-03
  0.1499413E-02  0.0000000E+00 -0.5050505E-02 -0.1536554E-04  0.0000000E+00 -0.4161061E-03
  0.5287294E-02  0.0000000E+00 -0.5050505E-02 -0.3646846E-04  0.0000000E+00 -0.3902734E-03
 -0.5050505E-02  0.0000000E+00 -0.5050505E-02 -0.9084641E-11  0.0000000E+00 -0.4151687E-03
 -0.5050505E-02  0.0000000E+00 -0.5050505E-02 -0.2815472E-10  0.0000000E+00 -0.4151687E-03
 -0.5050505E-02  0.0000000E+00 -0.5050505E-02 -0.4753845E-10  0.0000000E+00 -0.4151687E-03
 -0.5050505E-02  0.0000000E+00 -0.5050505E-02 -0.6702205E-10  0.0000000E+00 -0.4151687E-03
 -0.5050505E-02  0.0000000E+00 -0.5050505E-02 -0.8685795E-10  0.0000000E+00 -0.4151687E-03
 -0.5050505E-02  0.0000000E+00 -0.5050505E-02 -0.1071748E-09  0.0000000E+00 -0.4151688E-03
 -0.5050504E-02  0.0000000E+00 -0.5050505E-02 -0.1281075E-09  0.0000000E+00 -0.4151688E-03
 -0.5050501E-02  0.0000000E+00 -0.5050505E-02 -0.1497691E-09  0.0000000E+00 -0.4151689E-03
 -0.5050495E-02  0.0000000E+00 -0.5050505E-02 -0.1722998E-09  0.0000000E+00 -0.4151689E-03
 -0.5050482E-02  0.0000000E+00 -0.5050505E-02 -0.1958177E-09  0.0000000E+00 -0.4151690E-03
 -0.5050449E-02  0.0000000E+00 -0.5050505E-02 -0.2204523E-09  0.0000000E+00 -0.4151691E-03
 -0.5050376E-02  0.0000000E+00 -0.5050505E-02 -0.2463343E-09  0.0000000E+00 -0.4151692E-03
 -0.5050299E-02  0.0000000E+00 -0.5050505E-02 -0.2735832E-09  0.0000000E+00 -0.4151693E-03
 -0.5050178E-02  0.0000000E+00 -0.5050505E-02 -0.3023335E-09  0.0000000E+00 -0.4151694E-03
 -0.5050018E-02  0.0000000E+00 -0.5050505E-02 -0.3327060E-09  0.0000000E+00 -0.4151696E-03
 -0.5049710E-02  0.0000000E+00 -0.5050505E-02 -0.3648265E-09  0.0000000E+00 -0.4151697E-03
 -0.5049253E-02  0.0000000E+00 -0.5050505E-02 -0.3988290E-09  0.0000000E+00 -0.4151699E-03
 -0.5048636E-02  0.0000000E+00 -0.5050505E-02 -0.4348416E-09  0.0000000E+00 -0.4151700E-03
 -0.5047442E-02  0.0000000E+00 -0.5050505E-02 -0.4729899E-09  0.0000000E+00 -0.4151702E-03
 -0.5045727E-02  0.0000000E+00 -0.5050505E-02 -0.5134090E-09  0.0000000E+00 -0.4151704E-03
 -0.5043261E-02  0.0000000E+00 -0.5050505E-02 -0.5562374E-09  0.0000000E+00 -0.4151706E-03
 -0.5038714E-02  0.0000000E+00 -0.5050505E-02 -0.6016123E-09  0.0000000E+00 -0.4151709E-03
 -0.5032318E-02  0.0000000E+00 -0.5050505E-02 -0.6496744E-09  0.0000000E+00 -0.4151711E-03
 -0.5022454E-02  0.0000000E+00 -0.5050505E-02 -0.7005706E-09  0.0000000E+00 -0.4151714E-03
 -0.5012589E-02  0.0000000E+00 -0.5050505E-02 -0.7544529E-09  0.0000000E+00 -0.4151717E-03
 -0.5002725E-02  0.0000000E+00 -0.5050505E-02 -0.8114793E-09  0.0000000E+00 -0.4151721E-03
 -0.4992860E-02  0.0000000E+00 -0.5050505E-02 -0.8718146E-09  0.0000000E+00 -0.4151724E-03
 -0.4976523E-02  0.0000000E+00 -0.5050505E-02 -0.9356306E-09  0.0000000E+00 -0.4151728E-03
 -0.4956794E-02  0.0000000E+00 -0.5050505E-02 -0.1003109E-08  0.0000000E+00 -0.4151732E-03
 -0.4937066E-02  0.0000000E+00 -0.5050505E-02 -0.1074443E-08  0.0000000E+00 -0.4151736E-03
 -0.4906239E-02  0.0000000E+00 -0.5050505E-02 -0.1149837E-08  0.0000000E+00 -0.4151741E-03
 -0.4866782E-02  0.0000000E+00 -0.5050505E-02 -0.1229507E-08  0.0000000E+00 -0.4151746E-03
 -0.4827325E-02  0.0000000E+00 -0.5050505E-02 -0.1313690E-08  0.0000000E+00 -0.4151751E-03
 -0.4769372E-02  0.0000000E+00 -0.5050505E-02 -0.1402636E-08  0.0000000E+00 -0.4151757E-03
 -0.4690458E-02  0.0000000E+00 -0.5050505E-02 -0.1496618E-08  0.0000000E+00 -0.4151763E-03
 -0.4611543E-02  0.0000000E+00 -0.5050505E-02 -0.1595933E-08  0.0000000E+00 -0.4151769E-03
 -0.4503035E-02  0.0000000E+00 -0.5050505E-02 -0.1700903E-08  0.0000000E+00 -0.4151776E-03
 -0.4345206E-02  0.0000000E+00 -0.5050505E-02 -0.1811879E-08  0.0000000E+00 -0.4151783E-03
 -0.4187378E-02  0.0000000E+00 -0.5050505E-02 -0.1929249E-08  0.0000000E+00 -0.4151791E-03
 -0.3985156E-02  0.0000000E+00 -0.5050505E-02 -0.2053439E-08  0.0000000E+00 -0.4151799E-03
 -0.3669499E-02  0.0000000E+00 -0.5050505E-02 -0.2184918E-08  0.0000000E+00 -0.4151808E-03
 -0.3353842E-02  0.0000000E+00 -0.5050505E-02 -0.2324207E-08  0.0000000E+00 -0.4151818E-03
 -0.2978990E-02  0.0000000E+00 -0.5050505E-02 -0.2471882E-08  0.0000000E+00 -0.4151828E-03
 -0.2347676E-02  0.0000000E+00 -0.5050505E-02 -0.2628585E-08  0.0000000E+00 -0.4151838E-03
 -0.1716362E-02  0.0000000E+00 -0.5050505E-02 -0.2795033E-08  0.0000000E+00 -0.4151849E-03
 -0.1025842E-02  0.0000000E+00 -0.5050505E-02 -0.2972025E-08  0.0000000E+00 -0.4151861E-03
  0.2367855E-03  0.0000000E+00 -0.5050505E-02 -0.3160458E-08  0.0000000E+00 -0.4151874E-03
  0.1499413E-02  0.0000000E+00 -0.5050505E-02 -0.3361338E-08  0.0000000E+00 -0.4151888E-03
  0.2762042E-02  0.0000000E+00 -0.5050505E-02 -0.3575796E-08  0.0000000E+00 -0.4151902E-03
 -0.5050505E-02  0.0000000E+00 -0.5050505E-02 -0.3805110E-08  0.0000000E+00 -0.4151918E-03
 -0.5050505E-02  0.0000000E+00 -0.5050505E-02 -0.4050720E-08  0.0000000E+00 -0.4151934E-03
 -0.5050505E-02  0.0000000E+00 -0.5050505E-02 -0.4314259E-08  0.0000000E+00 -0.4151951E-03
 -0.5050505E-02  0.0000000E+00 -0.5050505E-02 -0.4597578E-08  0.0000000E+00 -0.4151970E-03
 -0.5050505E-02  0.0000000E+00 -0.5050505E-02 -0.4902786E-08  0.0000000E+00 -0.4151990E-03
 -0.5050505E-02  0.0000000E+00 -0.5050505E-02 -0.5232282E-08  0.0000000E+00 -0.4152011E-03
 -0.5050505E-02  0.0000000E+00 -0.5050505E-02 -0.5588811E-08  0.0000000E+00 -0.4152033E-03
 -0.5050504E-02  0.0000000E+00 -0.5050505E-02 -0.5975519E-08  0.0000000E+00 -0.4152057E-03
 -0.5050501E-02  0.0000000E+00 -0.5050505E-02 -0.6396019E-08  0.0000000E+00 -0.4152083E-03
 -0.5050495E-02  0.0000000E+00 -0.5050505E-02 -0.6854474E-08  0.0000000E+00 -0.4152110E-03
 -0.5050482E-02  0.0000000E+00 -0.5050505E-02 -0.7355697E-08  0.0000000E+00 -0.4152140E-03
 -0.5050449E-02  0.0000000E+00 -0.5050505E-02 -0.7905268E-08  0.0000000E+00 -0.4152171E-03
 -0.5050376E-02  0.0000000E+00 -0.5050505E-02 -0.8509678E-08  0.0000000E+00 -0.4152205E-03
 -0.5050299E-02  0.0000000E+00 -0.5050505E-02 -0.9176508E-08  0.0000000E+00 -0.4152242E-03
 -0.5050178E-02  0.0000000E+00 -0.5050505E-02 -0.9914645E-08  0.0000000E+00 -0.4152281E-03
 -0.5050018E-02  0.0000000E+00 -0.5050505E-02 -0.1073455E-07  0.0000000E+00 -0.4152324E-03
 -0.5049710E-02  0.0000000E+00 -0.5050505E-02 -0.1164858E-07  0.0000000E+00 -0.4152370E-03
 -0.5049253E-02  0.0000000E+00 -0.5050505E-02 -0.1267142E-07  0.0000000E+00 -0.4152420E-03
 -0.5048636E-02  0.0000000E+00 -0.5050505E-02 -0.1382058E-07  0.0000000E+00 -0.4152474E-03
 -0.5047442E-02  0.0000000E+00 -0.5050505E-02 -0.1511709E-07  0.0000000E+00 -0.4152534E-03
 -0.5045727E-02  0.0000000E+00 -0.5050505E-02 -0.1658630E-07  0.0000000E+00 -0.4152599E-03
 -0.5043261E-02  0.0000000E+00 -0.5050505E-02 -0.1825896E-07  0.0000000E+00 -0.4152670E-03
 -0.5038714E-02  0.0000000E+00 -0.5050505E-02 -0.2017264E-07  0.0000000E+00 -0.4152749E-03
 -0.5032318E-02  0.0000000E+00 -0.5050505E-02 -0.2237352E-07  0.0000000E+00 -0.4152835E-03
 -0.5022454E-02  0.0000000E+00 -0.5050505E-02 -0.2491880E-07  0.0000000E+00 -0.4152931E-03
 -0.5012589E-02  0.0000000E+00 -0.5050505E-02 -0.2787983E-07  0.0000000E+00 -0.4153038E-03
 -0.5002725E-02  0.0000000E+00 -0.5050505E-02 -0.3134646E-07  0.0000000E+00 -0.4153158E-03
 -0.4992860E-02  0.0000000E+00 -0.5050505E-02 -0.3543274E-07  0.0000000E+00 -0.4153292E-03
 -0.4976523E-02  0.0000000E+00 -0.5050505E-02 -0.4028493E-07  0.0000000E+00 -0.4153444E-03
 -0.4956794E-02  0.0000000E+00 -0.5050505E-02 -0.4609254E-07  0.0000000E+00 -0.4153616E-03
 -0.4937066E-02  0.0000000E+00 -0.5050505E-02 -0.5310396E-07  0.0000000E+00 -0.4153813E-03
 -0.4906239E-02  0.0000000E+00 -0.5050505E-02 -0.6164876E-07  0.0000000E+00 -0.4154039E-03
 -0.4866782E-02  0.0000000E+00 -0.5050505E-02 -0.7217017E-07  0.0000000E+00 -0.4154300E-03
 -0.4827325E-02  0.0000000E+00 -0.5050505E-02 -0.8527315E-07  0.0000000E+00 -0.4154605E-03
 -0.4769372E-02  0.0000000E+00 -0.5050505E-02 -0.1017967E-06  0.0000000E+00 -0.4154963E-03
 -0.4690458E-02  0.0000000E+00 -0.5050505E-02 -0.1229254E-06  0.0000000E+00 -0.4155387E-03
 -0.4611543E-02  0.0000000E+00 -0.5050505E-02 -0.1503641E-06  0.0000000E+00 -0.4155894E-03
 -0.4503035E-02  0.0000000E+00 -0.5050505E-02 -0.1866198E-06  0.0000000E+00 -0.4156505E-03
 -0.4345206E-02  0.0000000E+00 -0.5050505E-02 -0.2354656E-06  0.0000000E+00 -0.4157250E-03
 -0.4187378E-02  0.0000000E+00 -0.5050505E-02 -0.3027278E-06  0.0000000E+00 -0.4158164E-03
 -0.3985156E-02  0.0000000E+00 -0.5050505E-02 -0.3976534E-06  0.0000000E+00 -0.4159294E-03
 -0.3669499E-02  0.0000000E+00 -0.5050505E-02 -0.5353508E-06  0.0000000E+00 -0.4160693E-03
 -0.3353842E-02  0.0000000E+00 -0.5050505E-02 -0.7412399E-06  0.0000000E+00 -0.4162406E-03
 -0.2978990E-02  0.0000000E+00 -0.5050505E-02 -0.1059257E-05  0.0000000E+00 -0.4164425E-03
 -0.2347676E-02  0.0000000E+00 -0.5050505E-02 -0.1566791E-05  0.0000000E+00 -0.4166539E-03
 -0.1716362E-02  0.0000000E+00 -0.5050505E-02 -0.2399909E-05  0.0000000E+00 -0.4167916E-03
 -0.1025842E-02  0.0000000E+00 -0.5050505E-02 -0.3784877E-05  0.0000000E+00 -0.4165951E-03
  0.2367855E-03  0.0000000E+00 -0.5050505E-02 -0.6017069E-05  0.0000000E+00 -0.4153495E-03
  0.1499413E-02  0.0000000E+00 -0.5050505E-02 -0.9039535E-05  0.0000000E+00 -0.4114333E-03
  0.5287294E-02  0.0000000E+00 -0.5050505E-02 -0.9897528E-05  0.0000000E+00 -0.4031136E-03
 -0.5050505E-02  0.0000000E+00 -0.5050505E-02 -0.1263888E-10  0.0000000E+00 -0.4142911E-03
 -0.5050505E-02  0.0000000E+00 -0.5050505E-02 -0.3899608E-10  0.0000000E+00 -0.4142912E-03
 -0.5050505E-02  0.0000000E+00 -0.5050505E-02 -0.6590640E-10  0.0000000E+00 -0.4142912E-03
 -0.5050505E-02  0.0000000E+00 -0.5050505E-02 -0.9293327E-10  0.0000000E+00 -0.4142912E-03
 -0.5050505E-02  0.0000000E+00 -0.5050505E-02 -0.1204228E-09  0.0000000E+00 -0.4142912E-03
 -0.5050505E-02  0.0000000E+00 -0.5050505E-02 -0.1485704E-09  0.0000000E+00 -0.4142913E-03
 -0.5050504E-02  0.0000000E+00 -0.5050505E-02 -0.1775782E-09  0.0000000E+00 -0.4142913E-03
 -0.5050501E-02  0.0000000E+00 -0.5050505E-02 -0.2076096E-09  0.0000000E+00 -0.4142914E-03
 -0.5050495E-02  0.0000000E+00 -0.5050505E-02 -0.2388578E-09  0.0000000E+00 -0.4142914E-03
 -0.5050482E-02  0.0000000E+00 -0.5050505E-02 -0.2714942E-09  0.0000000E+00 -0.4142915E-03
 -0.5050449E-02  0.0000000E+00 -0.5050505E-02 -0.3056960E-09  0.0000000E+00 -0.4142916E-03
 -0.5050376E-02  0.0000000E+00 -0.5050505E-02 -0.3416456E-09  0.0000000E+00 -0.4142917E-03
 -0.5050299E-02  0.0000000E+00 -0.5050505E-02 -0.3795106E-09  0.0000000E+00 -0.4142918E-03
 -0.5050178E-02  0.0000000E+00 -0.5050505E-02 -0.4194783E-09  0.0000000E+00 -0.4142919E-03
 -0.5050018E-02  0.0000000E+00 -0.5050505E-02 -0.4617204E-09  0.0000000E+00 -0.4142920E-03
 -0.5049710E-02  0.0000000E+00 -0.5050505E-02 -0.5064087E-09  0.0000000E+00 -0.4142922E-03
 -0.5049253E-02  0.0000000E+00 -0.5050505E-02 -0.5537286E-09  0.0000000E+00 -0.4142923E-03
 -0.5048636E-02  0.0000000E+00 -0.5050505E-02 -0.6038635E-09  0.0000000E+00 -0.4142925E-03
 -0.5047442E-02  0.0000000E+00 -0.5050505E-02 -0.6569896E-09  0.0000000E+00 -0.4142927E-03
 -0.5045727E-02  0.0000000E+00 -0.5050505E-02 -0.7132911E-09  0.0000000E+00 -0.4142929E-03
 -0.5043261E-02  0.0000000E+00 -0.5050505E-02 -0.7729606E-09  0.0000000E+00 -0.4142931E-03
 -0.5038714E-02  0.0000000E+00 -0.5050505E-02 -0.8361916E-09  0.0000000E+00 -0.4142933E-03
 -0.5032318E-02  0.0000000E+00 -0.5050505E-02 -0.9031808E-09  0.0000000E+00 -0.4142936E-03
 -0.5022454E-02  0.0000000E+00 -0.5050505E-02 -0.9741319E-09  0.0000000E+00 -0.4142939E-03
 -0.5012589E-02  0.0000000E+00 -0.5050505E-02 -0.1049256E-08  0.0000000E+00 -0.4142941E-03
 -0.5002725E-02  0.0000000E+00 -0.5050505E-02 -0.1128772E-08  0.0000000E+00 -0.4142945E-03
 -0.4992860E-02  0.0000000E+00 -0.5050505E-02 -0.1212910E-08  0.0000000E+00 -0.4142948E-03
 -0.4976523E-02  0.0000000E+00 -0.5050505E-02 -0.1301909E-08  0.0000000E+00 -0.4142952E-03
 -0.4956794E-02  0.0000000E+00 -0.5050505E-02 -0.1396020E-08  0.0000000E+00 -0.4142956E-03
 -0.4937066E-02  0.0000000E+00 -0.5050505E-02 -0.1495512E-08  0.0000000E+00 -0.4142960E-03