title = "dataset feddes"
variables = "x", "y", "z", "vx", "vy", "vz"
zone t = "velocities, solution time =  3.400E+01 days        " i =   99, j =   99, k =    1,  f=point
 -0.5050505E-02  0.0000000E+00 -0.5050505E-02  0.6258160E-10  0.0000000E+00 -0.2896278E-03
 -0.5050505E-02  0.0000000E+00 -0.5050505E-02  0.1874362E-09  0.0000000E+00 -0.2896275E-03
 -0.5050505E-02  0.0000000E+00 -0.5050505E-02  0.3116467E-09  0.0000000E+00 -0.2896270E-03
 -0.5050505E-02  0.0000000E+00 -0.5050505E-02  0.4348395E-09  0.0000000E+00 -0.2896262E-03
 -0.5050505E-02  0.0000000E+00 -0.5050505E-02  0.5565807E-09  0.0000000E+00 -0.2896252E-03
 -0.5050505E-02  0.0000000E+00 -0.5050505E-02  0.6764470E-09  0.0000000E+00 -0.2896239E-03
 -0.5050504E-02  0.0000000E+00 -0.5050505E-02  0.7940293E-09  0.0000000E+00 -0.2896224E-03
 -0.5050501E-02  0.0000000E+00 -0.5050505E-02  0.9089188E-09  0.0000000E+00 -0.2896206E-03
 -0.5050495E-02  0.0000000E+00 -0.5050505E-02  0.1020714E-08  0.0000000E+00 -0.2896186E-03
 -0.5050482E-02  0.0000000E+00 -0.5050505E-02  0.1129015E-08  0.0000000E+00 -0.2896164E-03
 -0.5050449E-02  0.0000000E+00 -0.5050505E-02  0.1233425E-08  0.0000000E+00 -0.2896140E-03
 -0.5050376E-02  0.0000000E+00 -0.5050505E-02  0.1333555E-08  0.0000000E+00 -0.2896113E-03
 -0.5050299E-02  0.0000000E+00 -0.5050505E-02  0.1429022E-08  0.0000000E+00 -0.2896084E-03
 -0.5050178E-02  0.0000000E+00 -0.5050505E-02  0.1519449E-08  0.0000000E+00 -0.2896054E-03
 -0.5050018E-02  0.0000000E+00 -0.5050505E-02  0.1604470E-08  0.0000000E+00 -0.2896022E-03
 -0.5049710E-02  0.0000000E+00 -0.5050505E-02  0.1683727E-08  0.0000000E+00 -0.2895988E-03
 -0.5049253E-02  0.0000000E+00 -0.5050505E-02  0.1756873E-08  0.0000000E+00 -0.2895952E-03
 -0.5048636E-02  0.0000000E+00 -0.5050505E-02  0.1823576E-08  0.0000000E+00 -0.2895915E-03
 -0.5047442E-02  0.0000000E+00 -0.5050505E-02  0.1883514E-08  0.0000000E+00 -0.2895877E-03
 -0.5045727E-02  0.0000000E+00 -0.5050505E-02  0.1936383E-08  0.0000000E+00 -0.2895837E-03
 -0.5043261E-02  0.0000000E+00 -0.5050505E-02  0.1981895E-08  0.0000000E+00 -0.2895796E-03
 -0.5038714E-02  0.0000000E+00 -0.5050505E-02  0.2019781E-08  0.0000000E+00 -0.2895755E-03
 -0.5032318E-02  0.0000000E+00 -0.5050505E-02  0.2049791E-08  0.0000000E+00 -0.2895713E-03
 -0.5022454E-02  0.0000000E+00 -0.5050505E-02  0.2071697E-08  0.0000000E+00 -0.2895670E-03
 -0.5012589E-02  0.0000000E+00 -0.5050505E-02  0.2085296E-08  0.0000000E+00 -0.2895627E-03
 -0.5002725E-02  0.0000000E+00 -0.5050505E-02  0.2090407E-08  0.0000000E+00 -0.2895584E-03
 -0.4992860E-02  0.0000000E+00 -0.5050505E-02  0.2086880E-08  0.0000000E+00 -0.2895541E-03
 -0.4976523E-02  0.0000000E+00 -0.5050505E-02  0.2074590E-08  0.0000000E+00 -0.2895498E-03
 -0.4956794E-02  0.0000000E+00 -0.5050505E-02  0.2053442E-08  0.0000000E+00 -0.2895455E-03
 -0.4937066E-02  0.0000000E+00 -0.5050505E-02  0.2023374E-08  0.0000000E+00 -0.2895413E-03
 -0.4906239E-02  0.0000000E+00 -0.5050505E-02  0.1984355E-08  0.0000000E+00 -0.2895371E-03
 -0.4866782E-02  0.0000000E+00 -0.5050505E-02  0.1936389E-08  0.0000000E+00 -0.2895331E-03
 -0.4827325E-02  0.0000000E+00 -0.5050505E-02  0.1879514E-08  0.0000000E+00 -0.2895291E-03
 -0.4769372E-02  0.0000000E+00 -0.5050505E-02  0.1813803E-08  0.0000000E+00 -0.2895253E-03
 -0.4690458E-02  0.0000000E+00 -0.5050505E-02  0.1739365E-08  0.0000000E+00 -0.2895216E-03
 -0.4611543E-02  0.0000000E+00 -0.5050505E-02  0.1656346E-08  0.0000000E+00 -0.2895181E-03
 -0.4503035E-02  0.0000000E+00 -0.5050505E-02  0.1564926E-08  0.0000000E+00 -0.2895148E-03
 -0.4345206E-02  0.0000000E+00 -0.5050505E-02  0.1465322E-08  0.0000000E+00 -0.2895117E-03
 -0.4187378E-02  0.0000000E+00 -0.5050505E-02  0.1357785E-08  0.0000000E+00 -0.2895087E-03
 -0.3985156E-02  0.0000000E+00 -0.5050505E-02  0.1242601E-08  0.0000000E+00 -0.2895060E-03
 -0.3669499E-02  0.0000000E+00 -0.5050505E-02  0.1120085E-08  0.0000000E+00 -0.2895036E-03
 -0.3353842E-02  0.0000000E+00 -0.5050505E-02  0.9905845E-09  0.0000000E+00 -0.2895014E-03
 -0.2978990E-02  0.0000000E+00 -0.5050505E-02  0.8544721E-09  0.0000000E+00 -0.2894995E-03
 -0.2347676E-02  0.0000000E+00 -0.5050505E-02  0.7121450E-09  0.0000000E+00 -0.2894979E-03
 -0.1716362E-02  0.0000000E+00 -0.5050505E-02  0.5640207E-09  0.0000000E+00 -0.2894966E-03
 -0.1025842E-02  0.0000000E+00 -0.5050505E-02  0.4105333E-09  0.0000000E+00 -0.2894956E-03
  0.2367855E-03  0.0000000E+00 -0.5050505E-02  0.2521306E-09  0.0000000E+00 -0.2894949E-03
  0.1499413E-02  0.0000000E+00 -0.5050505E-02  0.8927188E-10  0.0000000E+00 -0.2894945E-03
  0.2762042E-02  0.0000000E+00 -0.5050505E-02 -0.7758114E-10  0.0000000E+00 -0.2894945E-03
 -0.5050505E-02  0.0000000E+00 -0.5050505E-02 -0.2479985E-09  0.0000000E+00 -0.2894948E-03
 -0.5050505E-02  0.0000000E+00 -0.5050505E-02 -0.4215135E-09  0.0000000E+00 -0.2894955E-03
 -0.5050505E-02  0.0000000E+00 -0.5050505E-02 -0.5977522E-09  0.0000000E+00 -0.2894966E-03
 -0.5050505E-02  0.0000000E+00 -0.5050505E-02 -0.7762946E-09  0.0000000E+00 -0.2894980E-03
 -0.5050505E-02  0.0000000E+00 -0.5050505E-02 -0.9567837E-09  0.0000000E+00 -0.2894998E-03
 -0.5050505E-02  0.0000000E+00 -0.5050505E-02 -0.1138922E-08  0.0000000E+00 -0.2895020E-03
 -0.5050505E-02  0.0000000E+00 -0.5050505E-02 -0.1322465E-08  0.0000000E+00 -0.2895045E-03
 -0.5050504E-02  0.0000000E+00 -0.5050505E-02 -0.1507245E-08  0.0000000E+00 -0.2895074E-03
 -0.5050501E-02  0.0000000E+00 -0.5050505E-02 -0.1693175E-08  0.0000000E+00 -0.2895108E-03
 -0.5050495E-02  0.0000000E+00 -0.5050505E-02 -0.1880268E-08  0.0000000E+00 -0.2895145E-03
 -0.5050482E-02  0.0000000E+00 -0.5050505E-02 -0.2068658E-08  0.0000000E+00 -0.2895185E-03
 -0.5050449E-02  0.0000000E+00 -0.5050505E-02 -0.2258619E-08  0.0000000E+00 -0.2895230E-03
 -0.5050376E-02  0.0000000E+00 -0.5050505E-02 -0.2450588E-08  0.0000000E+00 -0.2895279E-03
 -0.5050299E-02  0.0000000E+00 -0.5050505E-02 -0.2645199E-08  0.0000000E+00 -0.2895332E-03
 -0.5050178E-02  0.0000000E+00 -0.5050505E-02 -0.2843313E-08  0.0000000E+00 -0.2895388E-03
 -0.5050018E-02  0.0000000E+00 -0.5050505E-02 -0.3046058E-08  0.0000000E+00 -0.2895449E-03
 -0.5049710E-02  0.0000000E+00 -0.5050505E-02 -0.3254883E-08  0.0000000E+00 -0.2895515E-03
 -0.5049253E-02  0.0000000E+00 -0.5050505E-02 -0.3471623E-08  0.0000000E+00 -0.2895584E-03
 -0.5048636E-02  0.0000000E+00 -0.5050505E-02 -0.3698575E-08  0.0000000E+00 -0.2895658E-03
 -0.5047442E-02  0.0000000E+00 -0.5050505E-02 -0.3938595E-08  0.0000000E+00 -0.2895737E-03
 -0.5045727E-02  0.0000000E+00 -0.5050505E-02 -0.4195232E-08  0.0000000E+00 -0.2895822E-03
 -0.5043261E-02  0.0000000E+00 -0.5050505E-02 -0.4472883E-08  0.0000000E+00 -0.2895911E-03
 -0.5038714E-02  0.0000000E+00 -0.5050505E-02 -0.4777015E-08  0.0000000E+00 -0.2896007E-03
 -0.5032318E-02  0.0000000E+00 -0.5050505E-02 -0.5114433E-08  0.0000000E+00 -0.2896109E-03
 -0.5022454E-02  0.0000000E+00 -0.5050505E-02 -0.5493654E-08  0.0000000E+00 -0.2896219E-03
 -0.5012589E-02  0.0000000E+00 -0.5050505E-02 -0.5925402E-08  0.0000000E+00 -0.2896337E-03
 -0.5002725E-02  0.0000000E+00 -0.5050505E-02 -0.6423272E-08  0.0000000E+00 -0.2896465E-03
 -0.4992860E-02  0.0000000E+00 -0.5050505E-02 -0.7004652E-08  0.0000000E+00 -0.2896604E-03
 -0.4976523E-02  0.0000000E+00 -0.5050505E-02 -0.7691987E-08  0.0000000E+00 -0.2896756E-03
 -0.4956794E-02  0.0000000E+00 -0.5050505E-02 -0.8514580E-08  0.0000000E+00 -0.2896924E-03
 -0.4937066E-02  0.0000000E+00 -0.5050505E-02 -0.9511146E-08  0.0000000E+00 -0.2897110E-03
 -0.4906239E-02  0.0000000E+00 -0.5050505E-02 -0.1073354E-07  0.0000000E+00 -0.2897320E-03
 -0.4866782E-02  0.0000000E+00 -0.5050505E-02 -0.1225229E-07  0.0000000E+00 -0.2897558E-03
 -0.4827325E-02  0.0000000E+00 -0.5050505E-02 -0.1416489E-07  0.0000000E+00 -0.2897831E-03
 -0.4769372E-02  0.0000000E+00 -0.5050505E-02 -0.1660876E-07  0.0000000E+00 -0.2898149E-03
 -0.4690458E-02  0.0000000E+00 -0.5050505E-02 -0.1978167E-07  0.0000000E+00 -0.2898526E-03
 -0.4611543E-02  0.0000000E+00 -0.5050505E-02 -0.2397510E-07  0.0000000E+00 -0.2898979E-03
 -0.4503035E-02  0.0000000E+00 -0.5050505E-02 -0.2963051E-07  0.0000000E+00 -0.2899534E-03
 -0.4345206E-02  0.0000000E+00 -0.5050505E-02 -0.3743756E-07  0.0000000E+00 -0.2900228E-03
 -0.4187378E-02  0.0000000E+00 -0.5050505E-02 -0.4851320E-07  0.0000000E+00 -0.2901117E-03
 -0.3985156E-02  0.0000000E+00 -0.5050505E-02 -0.6474412E-07  0.0000000E+00 -0.2902289E-03
 -0.3669499E-02  0.0000000E+00 -0.5050505E-02 -0.8947966E-07  0.0000000E+00 -0.2903885E-03
 -0.3353842E-02  0.0000000E+00 -0.5050505E-02 -0.1290278E-06  0.0000000E+00 -0.2906146E-03
 -0.2978990E-02  0.0000000E+00 -0.5050505E-02 -0.1961365E-06  0.0000000E+00 -0.2909511E-03
 -0.2347676E-02  0.0000000E+00 -0.5050505E-02 -0.3188105E-06  0.0000000E+00 -0.2914841E-03
 -0.1716362E-02  0.0000000E+00 -0.5050505E-02 -0.5647931E-06  0.0000000E+00 -0.2923986E-03
 -0.1025842E-02  0.0000000E+00 -0.5050505E-02 -0.1116362E-05  0.0000000E+00 -0.2941388E-03
  0.2367855E-03  0.0000000E+00 -0.5050505E-02 -0.2521202E-05  0.0000000E+00 -0.2979049E-03
  0.1499413E-02  0.0000000E+00 -0.5050505E-02 -0.6609214E-05  0.0000000E+00 -0.3073628E-03
  0.5287294E-02  0.0000000E+00 -0.5050505E-02 -0.1082911E-03  0.0000000E+00 -0.2452712E-03
 -0.5050505E-02  0.0000000E+00 -0.5050505E-02  0.1881182E-09  0.0000000E+00 -0.2894765E-03
 -0.5050505E-02  0.0000000E+00 -0.5050505E-02  0.5635083E-09  0.0000000E+00 -0.2894763E-03
 -0.5050505E-02  0.0000000E+00 -0.5050505E-02  0.9369659E-09  0.0000000E+00 -0.2894757E-03
 -0.5050505E-02  0.0000000E+00 -0.5050505E-02  0.1307341E-08  0.0000000E+00 -0.2894750E-03
 -0.5050505E-02  0.0000000E+00 -0.5050505E-02  0.1673356E-08  0.0000000E+00 -0.2894739E-03
 -0.5050505E-02  0.0000000E+00 -0.5050505E-02  0.2033744E-08  0.0000000E+00 -0.2894726E-03
 -0.5050504E-02  0.0000000E+00 -0.5050505E-02  0.2387273E-08  0.0000000E+00 -0.2894711E-03
 -0.5050501E-02  0.0000000E+00 -0.5050505E-02  0.2732714E-08  0.0000000E+00 -0.2894693E-03
 -0.5050495E-02  0.0000000E+00 -0.5050505E-02  0.3068858E-08  0.0000000E+00 -0.2894673E-03
 -0.5050482E-02  0.0000000E+00 -0.5050505E-02  0.3394503E-08  0.0000000E+00 -0.2894651E-03
 -0.5050449E-02  0.0000000E+00 -0.5050505E-02  0.3708460E-08  0.0000000E+00 -0.2894626E-03
 -0.5050376E-02  0.0000000E+00 -0.5050505E-02  0.4009560E-08  0.0000000E+00 -0.2894599E-03
 -0.5050299E-02  0.0000000E+00 -0.5050505E-02  0.4296647E-08  0.0000000E+00 -0.2894571E-03
 -0.5050178E-02  0.0000000E+00 -0.5050505E-02  0.4568595E-08  0.0000000E+00 -0.2894540E-03
 -0.5050018E-02  0.0000000E+00 -0.5050505E-02  0.4824298E-08  0.0000000E+00 -0.2894507E-03
 -0.5049710E-02  0.0000000E+00 -0.5050505E-02  0.5062683E-08  0.0000000E+00 -0.2894473E-03
 -0.5049253E-02  0.0000000E+00 -0.5050505E-02  0.5282708E-08  0.0000000E+00 -0.2894437E-03
 -0.5048636E-02  0.0000000E+00 -0.5050505E-02  0.5483369E-08  0.0000000E+00 -0.2894400E-03
 -0.5047442E-02  0.0000000E+00 -0.5050505E-02  0.5663704E-08  0.0000000E+00 -0.2894361E-03
 -0.5045727E-02  0.0000000E+00 -0.5050505E-02  0.5822796E-08  0.0000000E+00 -0.2894321E-03
 -0.5043261E-02  0.0000000E+00 -0.5050505E-02  0.5959778E-08  0.0000000E+00 -0.2894280E-03
 -0.5038714E-02  0.0000000E+00 -0.5050505E-02  0.6073841E-08  0.0000000E+00 -0.2894238E-03
 -0.5032318E-02  0.0000000E+00 -0.5050505E-02  0.6164232E-08  0.0000000E+00 -0.2894196E-03
 -0.5022454E-02  0.0000000E+00 -0.5050505E-02  0.6230268E-08  0.0000000E+00 -0.2894153E-03
 -0.5012589E-02  0.0000000E+00 -0.5050505E-02  0.6271333E-08  0.0000000E+00 -0.2894109E-03
 -0.5002725E-02  0.0000000E+00 -0.5050505E-02  0.6286888E-08  0.0000000E+00 -0.2894066E-03
 -0.4992860E-02  0.0000000E+00 -0.5050505E-02  0.6276474E-08  0.0000000E+00 -0.2894022E-03
 -0.4976523E-02  0.0000000E+00 -0.5050505E-02  0.6239717E-08  0.0000000E+00 -0.2893979E-03
 -0.4956794E-02  0.0000000E+00 -0.5050505E-02  0.6176332E-08  0.0000000E+00 -0.2893935E-03
 -0.4937066E-02  0.0000000E+00 -0.5050505E-02  0.6086131E-08  0.0000000E+00 -0.2893893E-03
 -0.4906239E-02  0.0000000E+00 -0.5050505E-02  0.5969020E-08  0.0000000E+00 -0.2893851E-03
 -0.4866782E-02  0.0000000E+00 -0.5050505E-02  0.5825009E-08  0.0000000E+00 -0.2893810E-03
 -0.4827325E-02  0.0000000E+00 -0.5050505E-02  0.5654211E-08  0.0000000E+00 -0.2893770E-03
 -0.4769372E-02  0.0000000E+00 -0.5050505E-02  0.5456847E-08  0.0000000E+00 -0.2893732E-03
 -0.4690458E-02  0.0000000E+00 -0.5050505E-02  0.5233242E-08  0.0000000E+00 -0.2893694E-03
 -0.4611543E-02  0.0000000E+00 -0.5050505E-02  0.4983834E-08  0.0000000E+00 -0.2893659E-03
 -0.4503035E-02  0.0000000E+00 -0.5050505E-02  0.4709168E-08  0.0000000E+00 -0.2893625E-03
 -0.4345206E-02  0.0000000E+00 -0.5050505E-02  0.4409893E-08  0.0000000E+00 -0.2893593E-03
 -0.4187378E-02  0.0000000E+00 -0.5050505E-02  0.4086767E-08  0.0000000E+00 -0.2893564E-03
 -0.3985156E-02  0.0000000E+00 -0.5050505E-02  0.3740647E-08  0.0000000E+00 -0.2893537E-03
 -0.3669499E-02  0.0000000E+00 -0.5050505E-02  0.3372485E-08  0.0000000E+00 -0.2893512E-03
 -0.3353842E-02  0.0000000E+00 -0.5050505E-02  0.2983324E-08  0.0000000E+00 -0.2893490E-03
 -0.2978990E-02  0.0000000E+00 -0.5050505E-02  0.2574289E-08  0.0000000E+00 -0.2893470E-03
 -0.2347676E-02  0.0000000E+00 -0.5050505E-02  0.2146575E-08  0.0000000E+00 -0.2893454E-03
 -0.1716362E-02  0.0000000E+00 -0.5050505E-02  0.1701440E-08  0.0000000E+00 -0.2893441E-03
 -0.1025842E-02  0.0000000E+00 -0.5050505E-02  0.1240194E-08  0.0000000E+00 -0.2893430E-03
  0.2367855E-03  0.0000000E+00 -0.5050505E-02  0.7641856E-09  0.0000000E+00 -0.2893423E-03
  0.1499413E-02  0.0000000E+00 -0.5050505E-02  0.2748043E-09  0.0000000E+00 -0.2893420E-03
  0.2762042E-02  0.0000000E+00 -0.5050505E-02 -0.2265464E-09  0.0000000E+00 -0.2893419E-03
 -0.5050505E-02  0.0000000E+00 -0.5050505E-02 -0.7386010E-09  0.0000000E+00 -0.2893423E-03
 -0.5050505E-02  0.0000000E+00 -0.5050505E-02 -0.1259935E-08  0.0000000E+00 -0.2893429E-03
 -0.5050505E-02  0.0000000E+00 -0.5050505E-02 -0.1789381E-08  0.0000000E+00 -0.2893440E-03
 -0.5050505E-02  0.0000000E+00 -0.5050505E-02 -0.2325700E-08  0.0000000E+00 -0.2893454E-03
 -0.5050505E-02  0.0000000E+00 -0.5050505E-02 -0.2867809E-08  0.0000000E+00 -0.2893472E-03
 -0.5050505E-02  0.0000000E+00 -0.5050505E-02 -0.3414799E-08  0.0000000E+00 -0.2893494E-03
 -0.5050505E-02  0.0000000E+00 -0.5050505E-02 -0.3965921E-08  0.0000000E+00 -0.2893519E-03
 -0.5050504E-02  0.0000000E+00 -0.5050505E-02 -0.4520648E-08  0.0000000E+00 -0.2893548E-03
 -0.5050501E-02  0.0000000E+00 -0.5050505E-02 -0.5078704E-08  0.0000000E+00 -0.2893582E-03
 -0.5050495E-02  0.0000000E+00 -0.5050505E-02 -0.5640108E-08  0.0000000E+00 -0.2893619E-03
 -0.5050482E-02  0.0000000E+00 -0.5050505E-02 -0.6205236E-08  0.0000000E+00 -0.2893660E-03
 -0.5050449E-02  0.0000000E+00 -0.5050505E-02 -0.6774886E-08  0.0000000E+00 -0.2893704E-03
 -0.5050376E-02  0.0000000E+00 -0.5050505E-02 -0.7350339E-08  0.0000000E+00 -0.2893753E-03
 -0.5050299E-02  0.0000000E+00 -0.5050505E-02 -0.7933454E-08  0.0000000E+00 -0.2893806E-03
 -0.5050178E-02  0.0000000E+00 -0.5050505E-02 -0.8526770E-08  0.0000000E+00 -0.2893863E-03
 -0.5050018E-02  0.0000000E+00 -0.5050505E-02 -0.9133619E-08  0.0000000E+00 -0.2893924E-03
 -0.5049710E-02  0.0000000E+00 -0.5050505E-02 -0.9758283E-08  0.0000000E+00 -0.2893989E-03
 -0.5049253E-02  0.0000000E+00 -0.5050505E-02 -0.1040618E-07  0.0000000E+00 -0.2894059E-03
 -0.5048636E-02  0.0000000E+00 -0.5050505E-02 -0.1108410E-07  0.0000000E+00 -0.2894133E-03
 -0.5047442E-02  0.0000000E+00 -0.5050505E-02 -0.1180048E-07  0.0000000E+00 -0.2894212E-03
 -0.5045727E-02  0.0000000E+00 -0.5050505E-02 -0.1256580E-07  0.0000000E+00 -0.2894296E-03
 -0.5043261E-02  0.0000000E+00 -0.5050505E-02 -0.1339304E-07  0.0000000E+00 -0.2894385E-03
 -0.5038714E-02  0.0000000E+00 -0.5050505E-02 -0.1429831E-07  0.0000000E+00 -0.2894480E-03
 -0.5032318E-02  0.0000000E+00 -0.5050505E-02 -0.1530165E-07  0.0000000E+00 -0.2894582E-03
 -0.5022454E-02  0.0000000E+00 -0.5050505E-02 -0.1642812E-07  0.0000000E+00 -0.2894691E-03
 -0.5012589E-02  0.0000000E+00 -0.5050505E-02 -0.1770922E-07  0.0000000E+00 -0.2894808E-03
 -0.5002725E-02  0.0000000E+00 -0.5050505E-02 -0.1918482E-07  0.0000000E+00 -0.2894935E-03
 -0.4992860E-02  0.0000000E+00 -0.5050505E-02 -0.2090580E-07  0.0000000E+00 -0.2895072E-03
 -0.4976523E-02  0.0000000E+00 -0.5050505E-02 -0.2293773E-07  0.0000000E+00 -0.2895222E-03
 -0.4956794E-02  0.0000000E+00 -0.5050505E-02 -0.2536596E-07  0.0000000E+00 -0.2895386E-03
 -0.4937066E-02  0.0000000E+00 -0.5050505E-02 -0.2830295E-07  0.0000000E+00 -0.2895569E-03
 -0.4906239E-02  0.0000000E+00 -0.5050505E-02 -0.3189881E-07  0.0000000E+00 -0.2895773E-03
 -0.4866782E-02  0.0000000E+00 -0.5050505E-02 -0.3635685E-07  0.0000000E+00 -0.2896004E-03
 -0.4827325E-02  0.0000000E+00 -0.5050505E-02 -0.4195692E-07  0.0000000E+00 -0.2896269E-03
 -0.4769372E-02  0.0000000E+00 -0.5050505E-02 -0.4909115E-07  0.0000000E+00 -0.2896574E-03
 -0.4690458E-02  0.0000000E+00 -0.5050505E-02 -0.5832010E-07  0.0000000E+00 -0.2896934E-03
 -0.4611543E-02  0.0000000E+00 -0.5050505E-02 -0.7046319E-07  0.0000000E+00 -0.2897361E-03
 -0.4503035E-02  0.0000000E+00 -0.5050505E-02 -0.8674872E-07  0.0000000E+00 -0.2897880E-03
 -0.4345206E-02  0.0000000E+00 -0.5050505E-02 -0.1090709E-06  0.0000000E+00 -0.2898520E-03
 -0.4187378E-02  0.0000000E+00 -0.5050505E-02 -0.1404469E-06  0.0000000E+00 -0.2899324E-03
 -0.3985156E-02  0.0000000E+00 -0.5050505E-02 -0.1858624E-06  0.0000000E+00 -0.2900359E-03
 -0.3669499E-02  0.0000000E+00 -0.5050505E-02 -0.2539113E-06  0.0000000E+00 -0.2901722E-03
 -0.3353842E-02  0.0000000E+00 -0.5050505E-02 -0.3601368E-06  0.0000000E+00 -0.2903558E-03
 -0.2978990E-02  0.0000000E+00 -0.5050505E-02 -0.5342303E-06  0.0000000E+00 -0.2906090E-03
 -0.2347676E-02  0.0000000E+00 -0.5050505E-02 -0.8364749E-06  0.0000000E+00 -0.2909628E-03
 -0.1716362E-02  0.0000000E+00 -0.5050505E-02 -0.1397647E-05  0.0000000E+00 -0.2914480E-03
 -0.1025842E-02  0.0000000E+00 -0.5050505E-02 -0.2521697E-05  0.0000000E+00 -0.2920285E-03
  0.2367855E-03  0.0000000E+00 -0.5050505E-02 -0.4964377E-05  0.0000000E+00 -0.2922563E-03
  0.1499413E-02  0.0000000E+00 -0.5050505E-02 -0.1072208E-04  0.0000000E+00 -0.2896220E-03
  0.5287294E-02  0.0000000E+00 -0.5050505E-02 -0.2532260E-04  0.0000000E+00 -0.2718073E-03
 -0.5050505E-02  0.0000000E+00 -0.5050505E-02  0.3149361E-09  0.0000000E+00 -0.2891796E-03
 -0.5050505E-02  0.0000000E+00 -0.5050505E-02  0.9435044E-09  0.0000000E+00 -0.2891793E-03
 -0.5050505E-02  0.0000000E+00 -0.5050505E-02  0.1568861E-08  0.0000000E+00 -0.2891788E-03
 -0.5050505E-02  0.0000000E+00 -0.5050505E-02  0.2189022E-08  0.0000000E+00 -0.2891780E-03
 -0.5050505E-02  0.0000000E+00 -0.5050505E-02  0.2801895E-08  0.0000000E+00 -0.2891769E-03
 -0.5050505E-02  0.0000000E+00 -0.5050505E-02  0.3405370E-08  0.0000000E+00 -0.2891756E-03
 -0.5050504E-02  0.0000000E+00 -0.5050505E-02  0.3997385E-08  0.0000000E+00 -0.2891741E-03
 -0.5050501E-02  0.0000000E+00 -0.5050505E-02  0.4575880E-08  0.0000000E+00 -0.2891723E-03
 -0.5050495E-02  0.0000000E+00 -0.5050505E-02  0.5138832E-08  0.0000000E+00 -0.2891702E-03
 -0.5050482E-02  0.0000000E+00 -0.5050505E-02  0.5684231E-08  0.0000000E+00 -0.2891679E-03
 -0.5050449E-02  0.0000000E+00 -0.5050505E-02  0.6210088E-08  0.0000000E+00 -0.2891654E-03
 -0.5050376E-02  0.0000000E+00 -0.5050505E-02  0.6714447E-08  0.0000000E+00 -0.2891627E-03
 -0.5050299E-02  0.0000000E+00 -0.5050505E-02  0.7195378E-08  0.0000000E+00 -0.2891598E-03
 -0.5050178E-02  0.0000000E+00 -0.5050505E-02  0.7650992E-08  0.0000000E+00 -0.2891566E-03
 -0.5050018E-02  0.0000000E+00 -0.5050505E-02  0.8079443E-08  0.0000000E+00 -0.2891533E-03
 -0.5049710E-02  0.0000000E+00 -0.5050505E-02  0.8478930E-08  0.0000000E+00 -0.2891498E-03
 -0.5049253E-02  0.0000000E+00 -0.5050505E-02  0.8847711E-08  0.0000000E+00 -0.2891462E-03
 -0.5048636E-02  0.0000000E+00 -0.5050505E-02  0.9184104E-08  0.0000000E+00 -0.2891424E-03
 -0.5047442E-02  0.0000000E+00 -0.5050505E-02  0.9486497E-08  0.0000000E+00 -0.2891384E-03
 -0.5045727E-02  0.0000000E+00 -0.5050505E-02  0.9753353E-08  0.0000000E+00 -0.2891344E-03
 -0.5043261E-02  0.0000000E+00 -0.5050505E-02  0.9983220E-08  0.0000000E+00 -0.2891302E-03
 -0.5038714E-02  0.0000000E+00 -0.5050505E-02  0.1017474E-07  0.0000000E+00 -0.2891260E-03
 -0.5032318E-02  0.0000000E+00 -0.5050505E-02  0.1032665E-07  0.0000000E+00 -0.2891216E-03
 -0.5022454E-02  0.0000000E+00 -0.5050505E-02  0.1043780E-07  0.0000000E+00 -0.2891173E-03
 -0.5012589E-02  0.0000000E+00 -0.5050505E-02  0.1050716E-07  0.0000000E+00 -0.2891128E-03
 -0.5002725E-02  0.0000000E+00 -0.5050505E-02  0.1053383E-07  0.0000000E+00 -0.2891084E-03
 -0.4992860E-02  0.0000000E+00 -0.5050505E-02  0.1051703E-07  0.0000000E+00 -0.2891039E-03
 -0.4976523E-02  0.0000000E+00 -0.5050505E-02  0.1045613E-07  0.0000000E+00 -0.2890995E-03
 -0.4956794E-02  0.0000000E+00 -0.5050505E-02  0.1035065E-07  0.0000000E+00 -0.2890951E-03
 -0.4937066E-02  0.0000000E+00 -0.5050505E-02  0.1020027E-07  0.0000000E+00 -0.2890908E-03
 -0.4906239E-02  0.0000000E+00 -0.5050505E-02  0.1000484E-07  0.0000000E+00 -0.2890865E-03
 -0.4866782E-02  0.0000000E+00 -0.5050505E-02  0.9764363E-08  0.0000000E+00 -0.2890823E-03
 -0.4827325E-02  0.0000000E+00 -0.5050505E-02  0.9479030E-08  0.0000000E+00 -0.2890783E-03
 -0.4769372E-02  0.0000000E+00 -0.5050505E-02  0.9149205E-08  0.0000000E+00 -0.2890743E-03
 -0.4690458E-02  0.0000000E+00 -0.5050505E-02  0.8775436E-08  0.0000000E+00 -0.2890705E-03
 -0.4611543E-02  0.0000000E+00 -0.5050505E-02  0.8358453E-08  0.0000000E+00 -0.2890669E-03
 -0.4503035E-02  0.0000000E+00 -0.5050505E-02  0.7899165E-08  0.0000000E+00 -0.2890635E-03
 -0.4345206E-02  0.0000000E+00 -0.5050505E-02  0.7398664E-08  0.0000000E+00 -0.2890602E-03
 -0.4187378E-02  0.0000000E+00 -0.5050505E-02  0.6858218E-08  0.0000000E+00 -0.2890572E-03
 -0.3985156E-02  0.0000000E+00 -0.5050505E-02  0.6279265E-08  0.0000000E+00 -0.2890544E-03
 -0.3669499E-02  0.0000000E+00 -0.5050505E-02  0.5663404E-08  0.0000000E+00 -0.2890519E-03
 -0.3353842E-02  0.0000000E+00 -0.5050505E-02  0.5012386E-08  0.0000000E+00 -0.2890496E-03
 -0.2978990E-02  0.0000000E+00 -0.5050505E-02  0.4328100E-08  0.0000000E+00 -0.2890476E-03
 -0.2347676E-02  0.0000000E+00 -0.5050505E-02  0.3612557E-08  0.0000000E+00 -0.2890459E-03
 -0.1716362E-02  0.0000000E+00 -0.5050505E-02  0.2867872E-08  0.0000000E+00 -0.2890445E-03
 -0.1025842E-02  0.0000000E+00 -0.5050505E-02  0.2096254E-08  0.0000000E+00 -0.2890435E-03
  0.2367855E-03  0.0000000E+00 -0.5050505E-02  0.1299978E-08  0.0000000E+00 -0.2890427E-03
  0.1499413E-02  0.0000000E+00 -0.5050505E-02  0.4813689E-09  0.0000000E+00 -0.2890423E-03
  0.2762042E-02  0.0000000E+00 -0.5050505E-02 -0.3571735E-09  0.0000000E+00 -0.2890423E-03
 -0.5050505E-02  0.0000000E+00 -0.5050505E-02 -0.1213542E-08  0.0000000E+00 -0.2890426E-03
 -0.5050505E-02  0.0000000E+00 -0.5050505E-02 -0.2085339E-08  0.0000000E+00 -0.2890432E-03
 -0.5050505E-02  0.0000000E+00 -0.5050505E-02 -0.2970509E-08  0.0000000E+00 -0.2890443E-03
 -0.5050505E-02  0.0000000E+00 -0.5050505E-02 -0.3867004E-08  0.0000000E+00 -0.2890457E-03
 -0.5050505E-02  0.0000000E+00 -0.5050505E-02 -0.4772977E-08  0.0000000E+00 -0.2890475E-03
 -0.5050505E-02  0.0000000E+00 -0.5050505E-02 -0.5686864E-08  0.0000000E+00 -0.2890496E-03
 -0.5050505E-02  0.0000000E+00 -0.5050505E-02 -0.6607363E-08  0.0000000E+00 -0.2890522E-03
 -0.5050504E-02  0.0000000E+00 -0.5050505E-02 -0.7533530E-08  0.0000000E+00 -0.2890551E-03
 -0.5050501E-02  0.0000000E+00 -0.5050505E-02 -0.8464846E-08  0.0000000E+00 -0.2890585E-03
 -0.5050495E-02  0.0000000E+00 -0.5050505E-02 -0.9401278E-08  0.0000000E+00 -0.2890622E-03
 -0.5050482E-02  0.0000000E+00 -0.5050505E-02 -0.1034337E-07  0.0000000E+00 -0.2890663E-03
 -0.5050449E-02  0.0000000E+00 -0.5050505E-02 -0.1129237E-07  0.0000000E+00 -0.2890708E-03
 -0.5050376E-02  0.0000000E+00 -0.5050505E-02 -0.1225030E-07  0.0000000E+00 -0.2890757E-03
 -0.5050299E-02  0.0000000E+00 -0.5050505E-02 -0.1322015E-07  0.0000000E+00 -0.2890810E-03
 -0.5050178E-02  0.0000000E+00 -0.5050505E-02 -0.1420599E-07  0.0000000E+00 -0.2890867E-03
 -0.5050018E-02  0.0000000E+00 -0.5050505E-02 -0.1521320E-07  0.0000000E+00 -0.2890928E-03
 -0.5049710E-02  0.0000000E+00 -0.5050505E-02 -0.1624871E-07  0.0000000E+00 -0.2890993E-03
 -0.5049253E-02  0.0000000E+00 -0.5050505E-02 -0.1732128E-07  0.0000000E+00 -0.2891062E-03
 -0.5048636E-02  0.0000000E+00 -0.5050505E-02 -0.1844189E-07  0.0000000E+00 -0.2891136E-03
 -0.5047442E-02  0.0000000E+00 -0.5050505E-02 -0.1962419E-07  0.0000000E+00 -0.2891215E-03
 -0.5045727E-02  0.0000000E+00 -0.5050505E-02 -0.2088509E-07  0.0000000E+00 -0.2891299E-03
 -0.5043261E-02  0.0000000E+00 -0.5050505E-02 -0.2224553E-07  0.0000000E+00 -0.2891387E-03
 -0.5038714E-02  0.0000000E+00 -0.5050505E-02 -0.2373146E-07  0.0000000E+00 -0.2891482E-03
 -0.5032318E-02  0.0000000E+00 -0.5050505E-02 -0.2537509E-07  0.0000000E+00 -0.2891582E-03
 -0.5022454E-02  0.0000000E+00 -0.5050505E-02 -0.2721658E-07  0.0000000E+00 -0.2891690E-03
 -0.5012589E-02  0.0000000E+00 -0.5050505E-02 -0.2930629E-07  0.0000000E+00 -0.2891805E-03
 -0.5002725E-02  0.0000000E+00 -0.5050505E-02 -0.3170772E-07  0.0000000E+00 -0.2891929E-03
 -0.4992860E-02  0.0000000E+00 -0.5050505E-02 -0.3450165E-07  0.0000000E+00 -0.2892063E-03
 -0.4976523E-02  0.0000000E+00 -0.5050505E-02 -0.3779166E-07  0.0000000E+00 -0.2892208E-03
 -0.4956794E-02  0.0000000E+00 -0.5050505E-02 -0.4171197E-07  0.0000000E+00 -0.2892367E-03
 -0.4937066E-02  0.0000000E+00 -0.5050505E-02 -0.4643837E-07  0.0000000E+00 -0.2892543E-03
 -0.4906239E-02  0.0000000E+00 -0.5050505E-02 -0.5220394E-07  0.0000000E+00 -0.2892737E-03
 -0.4866782E-02  0.0000000E+00 -0.5050505E-02 -0.5932186E-07  0.0000000E+00 -0.2892955E-03
 -0.4827325E-02  0.0000000E+00 -0.5050505E-02 -0.6821923E-07  0.0000000E+00 -0.2893202E-03
 -0.4769372E-02  0.0000000E+00 -0.5050505E-02 -0.7948792E-07  0.0000000E+00 -0.2893484E-03
 -0.4690458E-02  0.0000000E+00 -0.5050505E-02 -0.9396285E-07  0.0000000E+00 -0.2893811E-03
 -0.4611543E-02  0.0000000E+00 -0.5050505E-02 -0.1128448E-06  0.0000000E+00 -0.2894193E-03
 -0.4503035E-02  0.0000000E+00 -0.5050505E-02 -0.1378983E-06  0.0000000E+00 -0.2894646E-03
 -0.4345206E-02  0.0000000E+00 -0.5050505E-02 -0.1717767E-06  0.0000000E+00 -0.2895188E-03
 -0.4187378E-02  0.0000000E+00 -0.5050505E-02 -0.2185742E-06  0.0000000E+00 -0.2895846E-03
 -0.3985156E-02  0.0000000E+00 -0.5050505E-02 -0.2847815E-06  0.0000000E+00 -0.2896650E-03
 -0.3669499E-02  0.0000000E+00 -0.5050505E-02 -0.3809905E-06  0.0000000E+00 -0.2897636E-03
 -0.3353842E-02  0.0000000E+00 -0.5050505E-02 -0.5249928E-06  0.0000000E+00 -0.2898834E-03
 -0.2978990E-02  0.0000000E+00 -0.5050505E-02 -0.7474720E-06  0.0000000E+00 -0.2900235E-03
 -0.2347676E-02  0.0000000E+00 -0.5050505E-02 -0.1102311E-05  0.0000000E+00 -0.2901687E-03
 -0.1716362E-02  0.0000000E+00 -0.5050505E-02 -0.1683851E-05  0.0000000E+00 -0.2902603E-03
 -0.1025842E-02  0.0000000E+00 -0.5050505E-02 -0.2647961E-05  0.0000000E+00 -0.2901170E-03
  0.2367855E-03  0.0000000E+00 -0.5050505E-02 -0.4195363E-05  0.0000000E+00 -0.2892456E-03
  0.1499413E-02  0.0000000E+00 -0.5050505E-02 -0.6276336E-05  0.0000000E+00 -0.2865375E-03
  0.5287294E-02  0.0000000E+00 -0.5050505E-02 -0.6835256E-05  0.0000000E+00 -0.2808300E-03
 -0.5050505E-02  0.0000000E+00 -0.5050505E-02  0.4440785E-09  0.0000000E+00 -0.2887421E-03
 -0.5050505E-02  0.0000000E+00 -0.5050505E-02  0.1330466E-08  0.0000000E+00 -0.2887419E-03
 -0.5050505E-02  0.0000000E+00 -0.5050505E-02  0.2212369E-08  0.0000000E+00 -0.2887413E-03
 -0.5050505E-02  0.0000000E+00 -0.5050505E-02  0.3086924E-08  0.0000000E+00 -0.2887405E-03
 -0.5050505E-02  0.0000000E+00 -0.5050505E-02  0.3951231E-08  0.0000000E+00 -0.2887394E-03
 -0.5050505E-02  0.0000000E+00 -0.5050505E-02  0.4802332E-08  0.0000000E+00 -0.2887381E-03
 -0.5050504E-02  0.0000000E+00 -0.5050505E-02  0.5637315E-08  0.0000000E+00 -0.2887365E-03
 -0.5050501E-02  0.0000000E+00 -0.5050505E-02  0.6453281E-08  0.0000000E+00 -0.2887347E-03
 -0.5050495E-02  0.0000000E+00 -0.5050505E-02  0.7247378E-08  0.0000000E+00 -0.2887326E-03
 -0.5050482E-02  0.0000000E+00 -0.5050505E-02  0.8016777E-08  0.0000000E+00 -0.2887302E-03
 -0.5050449E-02  0.0000000E+00 -0.5050505E-02  0.8758681E-08  0.0000000E+00 -0.2887277E-03
 -0.5050376E-02  0.0000000E+00 -0.5050505E-02  0.9470334E-08  0.0000000E+00 -0.2887249E-03
 -0.5050299E-02  0.0000000E+00 -0.5050505E-02  0.1014902E-07  0.0000000E+00 -0.2887219E-03
 -0.5050178E-02  0.0000000E+00 -0.5050505E-02  0.1079207E-07  0.0000000E+00 -0.2887187E-03
 -0.5050018E-02  0.0000000E+00 -0.5050505E-02  0.1139690E-07  0.0000000E+00 -0.2887153E-03
 -0.5049710E-02  0.0000000E+00 -0.5050505E-02  0.1196095E-07  0.0000000E+00 -0.2887117E-03
 -0.5049253E-02  0.0000000E+00 -0.5050505E-02  0.1248178E-07  0.0000000E+00 -0.2887079E-03
 -0.5048636E-02  0.0000000E+00 -0.5050505E-02  0.1295701E-07  0.0000000E+00 -0.2887040E-03
 -0.5047442E-02  0.0000000E+00 -0.5050505E-02  0.1338436E-07  0.0000000E+00 -0.2887000E-03
 -0.5045727E-02  0.0000000E+00 -0.5050505E-02  0.1376167E-07  0.0000000E+00 -0.2886958E-03
 -0.5043261E-02  0.0000000E+00 -0.5050505E-02  0.1408688E-07  0.0000000E+00 -0.2886916E-03
 -0.5038714E-02  0.0000000E+00 -0.5050505E-02  0.1435807E-07  0.0000000E+00 -0.2886872E-03
 -0.5032318E-02  0.0000000E+00 -0.5050505E-02  0.1457346E-07  0.0000000E+00 -0.2886828E-03
 -0.5022454E-02  0.0000000E+00 -0.5050505E-02  0.1473143E-07  0.0000000E+00 -0.2886783E-03
 -0.5012589E-02  0.0000000E+00 -0.5050505E-02  0.1483051E-07  0.0000000E+00 -0.2886737E-03
 -0.5002725E-02  0.0000000E+00 -0.5050505E-02  0.1486942E-07  0.0000000E+00 -0.2886692E-03
 -0.4992860E-02  0.0000000E+00 -0.5050505E-02  0.1484705E-07  0.0000000E+00 -0.2886646E-03
 -0.4976523E-02  0.0000000E+00 -0.5050505E-02  0.1476252E-07  0.0000000E+00 -0.2886601E-03
 -0.4956794E-02  0.0000000E+00 -0.5050505E-02  0.1461515E-07  0.0000000E+00 -0.2886555E-03
 -0.4937066E-02  0.0000000E+00 -0.5050505E-02  0.1440447E-07  0.0000000E+00 -0.2886511E-03