title = "dataset feddes"
variables = "x", "y", "z", "vx", "vy", "vz"
zone t = "velocities, solution time =  3.300E+01 days        " i =   99, j =   99, k =    1,  f=point
 -0.5050505E-02  0.0000000E+00 -0.5050505E-02  0.4888086E-10  0.0000000E+00 -0.2962301E-03
 -0.5050505E-02  0.0000000E+00 -0.5050505E-02  0.1459228E-09  0.0000000E+00 -0.2962299E-03
 -0.5050505E-02  0.0000000E+00 -0.5050505E-02  0.2423909E-09  0.0000000E+00 -0.2962295E-03
 -0.5050505E-02  0.0000000E+00 -0.5050505E-02  0.3380901E-09  0.0000000E+00 -0.2962289E-03
 -0.5050505E-02  0.0000000E+00 -0.5050505E-02  0.4326483E-09  0.0000000E+00 -0.2962281E-03
 -0.5050505E-02  0.0000000E+00 -0.5050505E-02  0.5257177E-09  0.0000000E+00 -0.2962271E-03
 -0.5050504E-02  0.0000000E+00 -0.5050505E-02  0.6169708E-09  0.0000000E+00 -0.2962259E-03
 -0.5050501E-02  0.0000000E+00 -0.5050505E-02  0.7060762E-09  0.0000000E+00 -0.2962245E-03
 -0.5050495E-02  0.0000000E+00 -0.5050505E-02  0.7927112E-09  0.0000000E+00 -0.2962230E-03
 -0.5050482E-02  0.0000000E+00 -0.5050505E-02  0.8765584E-09  0.0000000E+00 -0.2962212E-03
 -0.5050449E-02  0.0000000E+00 -0.5050505E-02  0.9572969E-09  0.0000000E+00 -0.2962193E-03
 -0.5050376E-02  0.0000000E+00 -0.5050505E-02  0.1034622E-08  0.0000000E+00 -0.2962173E-03
 -0.5050299E-02  0.0000000E+00 -0.5050505E-02  0.1108223E-08  0.0000000E+00 -0.2962151E-03
 -0.5050178E-02  0.0000000E+00 -0.5050505E-02  0.1177802E-08  0.0000000E+00 -0.2962127E-03
 -0.5050018E-02  0.0000000E+00 -0.5050505E-02  0.1243068E-08  0.0000000E+00 -0.2962102E-03
 -0.5049710E-02  0.0000000E+00 -0.5050505E-02  0.1303734E-08  0.0000000E+00 -0.2962075E-03
 -0.5049253E-02  0.0000000E+00 -0.5050505E-02  0.1359525E-08  0.0000000E+00 -0.2962048E-03
 -0.5048636E-02  0.0000000E+00 -0.5050505E-02  0.1410176E-08  0.0000000E+00 -0.2962019E-03
 -0.5047442E-02  0.0000000E+00 -0.5050505E-02  0.1455432E-08  0.0000000E+00 -0.2961989E-03
 -0.5045727E-02  0.0000000E+00 -0.5050505E-02  0.1495051E-08  0.0000000E+00 -0.2961959E-03
 -0.5043261E-02  0.0000000E+00 -0.5050505E-02  0.1528804E-08  0.0000000E+00 -0.2961928E-03
 -0.5038714E-02  0.0000000E+00 -0.5050505E-02  0.1556476E-08  0.0000000E+00 -0.2961896E-03
 -0.5032318E-02  0.0000000E+00 -0.5050505E-02  0.1577871E-08  0.0000000E+00 -0.2961863E-03
 -0.5022454E-02  0.0000000E+00 -0.5050505E-02  0.1592806E-08  0.0000000E+00 -0.2961830E-03
 -0.5012589E-02  0.0000000E+00 -0.5050505E-02  0.1601121E-08  0.0000000E+00 -0.2961797E-03
 -0.5002725E-02  0.0000000E+00 -0.5050505E-02  0.1602674E-08  0.0000000E+00 -0.2961764E-03
 -0.4992860E-02  0.0000000E+00 -0.5050505E-02  0.1597343E-08  0.0000000E+00 -0.2961731E-03
 -0.4976523E-02  0.0000000E+00 -0.5050505E-02  0.1585031E-08  0.0000000E+00 -0.2961698E-03
 -0.4956794E-02  0.0000000E+00 -0.5050505E-02  0.1565662E-08  0.0000000E+00 -0.2961665E-03
 -0.4937066E-02  0.0000000E+00 -0.5050505E-02  0.1539186E-08  0.0000000E+00 -0.2961633E-03
 -0.4906239E-02  0.0000000E+00 -0.5050505E-02  0.1505579E-08  0.0000000E+00 -0.2961602E-03
 -0.4866782E-02  0.0000000E+00 -0.5050505E-02  0.1464841E-08  0.0000000E+00 -0.2961571E-03
 -0.4827325E-02  0.0000000E+00 -0.5050505E-02  0.1417000E-08  0.0000000E+00 -0.2961541E-03
 -0.4769372E-02  0.0000000E+00 -0.5050505E-02  0.1362113E-08  0.0000000E+00 -0.2961512E-03
 -0.4690458E-02  0.0000000E+00 -0.5050505E-02  0.1300261E-08  0.0000000E+00 -0.2961485E-03
 -0.4611543E-02  0.0000000E+00 -0.5050505E-02  0.1231555E-08  0.0000000E+00 -0.2961459E-03
 -0.4503035E-02  0.0000000E+00 -0.5050505E-02  0.1156132E-08  0.0000000E+00 -0.2961434E-03
 -0.4345206E-02  0.0000000E+00 -0.5050505E-02  0.1074155E-08  0.0000000E+00 -0.2961411E-03
 -0.4187378E-02  0.0000000E+00 -0.5050505E-02  0.9858151E-09  0.0000000E+00 -0.2961389E-03
 -0.3985156E-02  0.0000000E+00 -0.5050505E-02  0.8913250E-09  0.0000000E+00 -0.2961370E-03
 -0.3669499E-02  0.0000000E+00 -0.5050505E-02  0.7909219E-09  0.0000000E+00 -0.2961353E-03
 -0.3353842E-02  0.0000000E+00 -0.5050505E-02  0.6848641E-09  0.0000000E+00 -0.2961337E-03
 -0.2978990E-02  0.0000000E+00 -0.5050505E-02  0.5734287E-09  0.0000000E+00 -0.2961324E-03
 -0.2347676E-02  0.0000000E+00 -0.5050505E-02  0.4569095E-09  0.0000000E+00 -0.2961314E-03
 -0.1716362E-02  0.0000000E+00 -0.5050505E-02  0.3356121E-09  0.0000000E+00 -0.2961305E-03
 -0.1025842E-02  0.0000000E+00 -0.5050505E-02  0.2098506E-09  0.0000000E+00 -0.2961300E-03
  0.2367855E-03  0.0000000E+00 -0.5050505E-02  0.7994713E-10  0.0000000E+00 -0.2961297E-03
  0.1499413E-02  0.0000000E+00 -0.5050505E-02 -0.5383500E-10  0.0000000E+00 -0.2961296E-03
  0.2762042E-02  0.0000000E+00 -0.5050505E-02 -0.1911230E-09  0.0000000E+00 -0.2961299E-03
 -0.5050505E-02  0.0000000E+00 -0.5050505E-02 -0.3315526E-09  0.0000000E+00 -0.2961304E-03
 -0.5050505E-02  0.0000000E+00 -0.5050505E-02 -0.4749034E-09  0.0000000E+00 -0.2961313E-03
 -0.5050505E-02  0.0000000E+00 -0.5050505E-02 -0.6209171E-09  0.0000000E+00 -0.2961324E-03
 -0.5050505E-02  0.0000000E+00 -0.5050505E-02 -0.7693490E-09  0.0000000E+00 -0.2961338E-03
 -0.5050505E-02  0.0000000E+00 -0.5050505E-02 -0.9199987E-09  0.0000000E+00 -0.2961356E-03
 -0.5050505E-02  0.0000000E+00 -0.5050505E-02 -0.1072715E-08  0.0000000E+00 -0.2961377E-03
 -0.5050505E-02  0.0000000E+00 -0.5050505E-02 -0.1227407E-08  0.0000000E+00 -0.2961400E-03
 -0.5050504E-02  0.0000000E+00 -0.5050505E-02 -0.1384063E-08  0.0000000E+00 -0.2961427E-03
 -0.5050501E-02  0.0000000E+00 -0.5050505E-02 -0.1542747E-08  0.0000000E+00 -0.2961458E-03
 -0.5050495E-02  0.0000000E+00 -0.5050505E-02 -0.1703612E-08  0.0000000E+00 -0.2961491E-03
 -0.5050482E-02  0.0000000E+00 -0.5050505E-02 -0.1866949E-08  0.0000000E+00 -0.2961528E-03
 -0.5050449E-02  0.0000000E+00 -0.5050505E-02 -0.2033171E-08  0.0000000E+00 -0.2961569E-03
 -0.5050376E-02  0.0000000E+00 -0.5050505E-02 -0.2202851E-08  0.0000000E+00 -0.2961613E-03
 -0.5050299E-02  0.0000000E+00 -0.5050505E-02 -0.2376756E-08  0.0000000E+00 -0.2961660E-03
 -0.5050178E-02  0.0000000E+00 -0.5050505E-02 -0.2555879E-08  0.0000000E+00 -0.2961711E-03
 -0.5050018E-02  0.0000000E+00 -0.5050505E-02 -0.2741470E-08  0.0000000E+00 -0.2961766E-03
 -0.5049710E-02  0.0000000E+00 -0.5050505E-02 -0.2935101E-08  0.0000000E+00 -0.2961825E-03
 -0.5049253E-02  0.0000000E+00 -0.5050505E-02 -0.3138725E-08  0.0000000E+00 -0.2961888E-03
 -0.5048636E-02  0.0000000E+00 -0.5050505E-02 -0.3354759E-08  0.0000000E+00 -0.2961955E-03
 -0.5047442E-02  0.0000000E+00 -0.5050505E-02 -0.3586179E-08  0.0000000E+00 -0.2962027E-03
 -0.5045727E-02  0.0000000E+00 -0.5050505E-02 -0.3836657E-08  0.0000000E+00 -0.2962104E-03
 -0.5043261E-02  0.0000000E+00 -0.5050505E-02 -0.4110725E-08  0.0000000E+00 -0.2962186E-03
 -0.5038714E-02  0.0000000E+00 -0.5050505E-02 -0.4413991E-08  0.0000000E+00 -0.2962274E-03
 -0.5032318E-02  0.0000000E+00 -0.5050505E-02 -0.4753425E-08  0.0000000E+00 -0.2962369E-03
 -0.5022454E-02  0.0000000E+00 -0.5050505E-02 -0.5137736E-08  0.0000000E+00 -0.2962472E-03
 -0.5012589E-02  0.0000000E+00 -0.5050505E-02 -0.5577876E-08  0.0000000E+00 -0.2962583E-03
 -0.5002725E-02  0.0000000E+00 -0.5050505E-02 -0.6087725E-08  0.0000000E+00 -0.2962703E-03
 -0.4992860E-02  0.0000000E+00 -0.5050505E-02 -0.6685028E-08  0.0000000E+00 -0.2962836E-03
 -0.4976523E-02  0.0000000E+00 -0.5050505E-02 -0.7392692E-08  0.0000000E+00 -0.2962981E-03
 -0.4956794E-02  0.0000000E+00 -0.5050505E-02 -0.8240623E-08  0.0000000E+00 -0.2963143E-03
 -0.4937066E-02  0.0000000E+00 -0.5050505E-02 -0.9268340E-08  0.0000000E+00 -0.2963325E-03
 -0.4906239E-02  0.0000000E+00 -0.5050505E-02 -0.1052879E-07  0.0000000E+00 -0.2963530E-03
 -0.4866782E-02  0.0000000E+00 -0.5050505E-02 -0.1209397E-07  0.0000000E+00 -0.2963764E-03
 -0.4827325E-02  0.0000000E+00 -0.5050505E-02 -0.1406348E-07  0.0000000E+00 -0.2964035E-03
 -0.4769372E-02  0.0000000E+00 -0.5050505E-02 -0.1657769E-07  0.0000000E+00 -0.2964352E-03
 -0.4690458E-02  0.0000000E+00 -0.5050505E-02 -0.1983864E-07  0.0000000E+00 -0.2964729E-03
 -0.4611543E-02  0.0000000E+00 -0.5050505E-02 -0.2414415E-07  0.0000000E+00 -0.2965185E-03
 -0.4503035E-02  0.0000000E+00 -0.5050505E-02 -0.2994532E-07  0.0000000E+00 -0.2965745E-03
 -0.4345206E-02  0.0000000E+00 -0.5050505E-02 -0.3794692E-07  0.0000000E+00 -0.2966448E-03
 -0.4187378E-02  0.0000000E+00 -0.5050505E-02 -0.4929043E-07  0.0000000E+00 -0.2967351E-03
 -0.3985156E-02  0.0000000E+00 -0.5050505E-02 -0.6590404E-07  0.0000000E+00 -0.2968544E-03
 -0.3669499E-02  0.0000000E+00 -0.5050505E-02 -0.9121088E-07  0.0000000E+00 -0.2970171E-03
 -0.3353842E-02  0.0000000E+00 -0.5050505E-02 -0.1316581E-06  0.0000000E+00 -0.2972479E-03
 -0.2978990E-02  0.0000000E+00 -0.5050505E-02 -0.2002756E-06  0.0000000E+00 -0.2975917E-03
 -0.2347676E-02  0.0000000E+00 -0.5050505E-02 -0.3256889E-06  0.0000000E+00 -0.2981365E-03
 -0.1716362E-02  0.0000000E+00 -0.5050505E-02 -0.5771503E-06  0.0000000E+00 -0.2990716E-03
 -0.1025842E-02  0.0000000E+00 -0.5050505E-02 -0.1141027E-05  0.0000000E+00 -0.3008515E-03
  0.2367855E-03  0.0000000E+00 -0.5050505E-02 -0.2577414E-05  0.0000000E+00 -0.3047043E-03
  0.1499413E-02  0.0000000E+00 -0.5050505E-02 -0.6758238E-05  0.0000000E+00 -0.3143822E-03
  0.5287294E-02  0.0000000E+00 -0.5050505E-02 -0.1107540E-03  0.0000000E+00 -0.2508630E-03
 -0.5050505E-02  0.0000000E+00 -0.5050505E-02  0.1468327E-09  0.0000000E+00 -0.2960734E-03
 -0.5050505E-02  0.0000000E+00 -0.5050505E-02  0.4386851E-09  0.0000000E+00 -0.2960732E-03
 -0.5050505E-02  0.0000000E+00 -0.5050505E-02  0.7288044E-09  0.0000000E+00 -0.2960728E-03
 -0.5050505E-02  0.0000000E+00 -0.5050505E-02  0.1016583E-08  0.0000000E+00 -0.2960722E-03
 -0.5050505E-02  0.0000000E+00 -0.5050505E-02  0.1300920E-08  0.0000000E+00 -0.2960714E-03
 -0.5050505E-02  0.0000000E+00 -0.5050505E-02  0.1580779E-08  0.0000000E+00 -0.2960704E-03
 -0.5050504E-02  0.0000000E+00 -0.5050505E-02  0.1855179E-08  0.0000000E+00 -0.2960692E-03
 -0.5050501E-02  0.0000000E+00 -0.5050505E-02  0.2123128E-08  0.0000000E+00 -0.2960678E-03
 -0.5050495E-02  0.0000000E+00 -0.5050505E-02  0.2383654E-08  0.0000000E+00 -0.2960662E-03
 -0.5050482E-02  0.0000000E+00 -0.5050505E-02  0.2635805E-08  0.0000000E+00 -0.2960645E-03
 -0.5050449E-02  0.0000000E+00 -0.5050505E-02  0.2878617E-08  0.0000000E+00 -0.2960626E-03
 -0.5050376E-02  0.0000000E+00 -0.5050505E-02  0.3111170E-08  0.0000000E+00 -0.2960605E-03
 -0.5050299E-02  0.0000000E+00 -0.5050505E-02  0.3332538E-08  0.0000000E+00 -0.2960583E-03
 -0.5050178E-02  0.0000000E+00 -0.5050505E-02  0.3541819E-08  0.0000000E+00 -0.2960559E-03
 -0.5050018E-02  0.0000000E+00 -0.5050505E-02  0.3738139E-08  0.0000000E+00 -0.2960533E-03
 -0.5049710E-02  0.0000000E+00 -0.5050505E-02  0.3920639E-08  0.0000000E+00 -0.2960507E-03
 -0.5049253E-02  0.0000000E+00 -0.5050505E-02  0.4088489E-08  0.0000000E+00 -0.2960479E-03
 -0.5048636E-02  0.0000000E+00 -0.5050505E-02  0.4240893E-08  0.0000000E+00 -0.2960450E-03
 -0.5047442E-02  0.0000000E+00 -0.5050505E-02  0.4377084E-08  0.0000000E+00 -0.2960420E-03
 -0.5045727E-02  0.0000000E+00 -0.5050505E-02  0.4496333E-08  0.0000000E+00 -0.2960389E-03
 -0.5043261E-02  0.0000000E+00 -0.5050505E-02  0.4597951E-08  0.0000000E+00 -0.2960358E-03
 -0.5038714E-02  0.0000000E+00 -0.5050505E-02  0.4681296E-08  0.0000000E+00 -0.2960325E-03
 -0.5032318E-02  0.0000000E+00 -0.5050505E-02  0.4745770E-08  0.0000000E+00 -0.2960293E-03
 -0.5022454E-02  0.0000000E+00 -0.5050505E-02  0.4790832E-08  0.0000000E+00 -0.2960259E-03
 -0.5012589E-02  0.0000000E+00 -0.5050505E-02  0.4815992E-08  0.0000000E+00 -0.2960226E-03
 -0.5002725E-02  0.0000000E+00 -0.5050505E-02  0.4820825E-08  0.0000000E+00 -0.2960193E-03
 -0.4992860E-02  0.0000000E+00 -0.5050505E-02  0.4804965E-08  0.0000000E+00 -0.2960159E-03
 -0.4976523E-02  0.0000000E+00 -0.5050505E-02  0.4768117E-08  0.0000000E+00 -0.2960126E-03
 -0.4956794E-02  0.0000000E+00 -0.5050505E-02  0.4710055E-08  0.0000000E+00 -0.2960093E-03
 -0.4937066E-02  0.0000000E+00 -0.5050505E-02  0.4630627E-08  0.0000000E+00 -0.2960060E-03
 -0.4906239E-02  0.0000000E+00 -0.5050505E-02  0.4529758E-08  0.0000000E+00 -0.2960029E-03
 -0.4866782E-02  0.0000000E+00 -0.5050505E-02  0.4407450E-08  0.0000000E+00 -0.2959997E-03
 -0.4827325E-02  0.0000000E+00 -0.5050505E-02  0.4263788E-08  0.0000000E+00 -0.2959967E-03
 -0.4769372E-02  0.0000000E+00 -0.5050505E-02  0.4098938E-08  0.0000000E+00 -0.2959938E-03
 -0.4690458E-02  0.0000000E+00 -0.5050505E-02  0.3913149E-08  0.0000000E+00 -0.2959910E-03
 -0.4611543E-02  0.0000000E+00 -0.5050505E-02  0.3706752E-08  0.0000000E+00 -0.2959884E-03
 -0.4503035E-02  0.0000000E+00 -0.5050505E-02  0.3480159E-08  0.0000000E+00 -0.2959859E-03
 -0.4345206E-02  0.0000000E+00 -0.5050505E-02  0.3233864E-08  0.0000000E+00 -0.2959835E-03
 -0.4187378E-02  0.0000000E+00 -0.5050505E-02  0.2968436E-08  0.0000000E+00 -0.2959814E-03
 -0.3985156E-02  0.0000000E+00 -0.5050505E-02  0.2684521E-08  0.0000000E+00 -0.2959794E-03
 -0.3669499E-02  0.0000000E+00 -0.5050505E-02  0.2382832E-08  0.0000000E+00 -0.2959776E-03
 -0.3353842E-02  0.0000000E+00 -0.5050505E-02  0.2064147E-08  0.0000000E+00 -0.2959761E-03
 -0.2978990E-02  0.0000000E+00 -0.5050505E-02  0.1729302E-08  0.0000000E+00 -0.2959748E-03
 -0.2347676E-02  0.0000000E+00 -0.5050505E-02  0.1379183E-08  0.0000000E+00 -0.2959737E-03
 -0.1716362E-02  0.0000000E+00 -0.5050505E-02  0.1014713E-08  0.0000000E+00 -0.2959728E-03
 -0.1025842E-02  0.0000000E+00 -0.5050505E-02  0.6368343E-09  0.0000000E+00 -0.2959723E-03
  0.2367855E-03  0.0000000E+00 -0.5050505E-02  0.2464983E-09  0.0000000E+00 -0.2959719E-03
  0.1499413E-02  0.0000000E+00 -0.5050505E-02 -0.1554179E-09  0.0000000E+00 -0.2959719E-03
  0.2762042E-02  0.0000000E+00 -0.5050505E-02 -0.5678455E-09  0.0000000E+00 -0.2959721E-03
 -0.5050505E-02  0.0000000E+00 -0.5050505E-02 -0.9897313E-09  0.0000000E+00 -0.2959727E-03
 -0.5050505E-02  0.0000000E+00 -0.5050505E-02 -0.1420343E-08  0.0000000E+00 -0.2959735E-03
 -0.5050505E-02  0.0000000E+00 -0.5050505E-02 -0.1858895E-08  0.0000000E+00 -0.2959746E-03
 -0.5050505E-02  0.0000000E+00 -0.5050505E-02 -0.2304656E-08  0.0000000E+00 -0.2959761E-03
 -0.5050505E-02  0.0000000E+00 -0.5050505E-02 -0.2757016E-08  0.0000000E+00 -0.2959778E-03
 -0.5050505E-02  0.0000000E+00 -0.5050505E-02 -0.3215513E-08  0.0000000E+00 -0.2959799E-03
 -0.5050505E-02  0.0000000E+00 -0.5050505E-02 -0.3679849E-08  0.0000000E+00 -0.2959823E-03
 -0.5050504E-02  0.0000000E+00 -0.5050505E-02 -0.4149971E-08  0.0000000E+00 -0.2959850E-03
 -0.5050501E-02  0.0000000E+00 -0.5050505E-02 -0.4626069E-08  0.0000000E+00 -0.2959880E-03
 -0.5050495E-02  0.0000000E+00 -0.5050505E-02 -0.5108576E-08  0.0000000E+00 -0.2959914E-03
 -0.5050482E-02  0.0000000E+00 -0.5050505E-02 -0.5598333E-08  0.0000000E+00 -0.2959951E-03
 -0.5050449E-02  0.0000000E+00 -0.5050505E-02 -0.6096565E-08  0.0000000E+00 -0.2959991E-03
 -0.5050376E-02  0.0000000E+00 -0.5050505E-02 -0.6604955E-08  0.0000000E+00 -0.2960035E-03
 -0.5050299E-02  0.0000000E+00 -0.5050505E-02 -0.7125765E-08  0.0000000E+00 -0.2960082E-03
 -0.5050178E-02  0.0000000E+00 -0.5050505E-02 -0.7661927E-08  0.0000000E+00 -0.2960133E-03
 -0.5050018E-02  0.0000000E+00 -0.5050505E-02 -0.8217142E-08  0.0000000E+00 -0.2960188E-03
 -0.5049710E-02  0.0000000E+00 -0.5050505E-02 -0.8796057E-08  0.0000000E+00 -0.2960247E-03
 -0.5049253E-02  0.0000000E+00 -0.5050505E-02 -0.9404450E-08  0.0000000E+00 -0.2960310E-03
 -0.5048636E-02  0.0000000E+00 -0.5050505E-02 -0.1004946E-07  0.0000000E+00 -0.2960377E-03
 -0.5047442E-02  0.0000000E+00 -0.5050505E-02 -0.1073988E-07  0.0000000E+00 -0.2960448E-03
 -0.5045727E-02  0.0000000E+00 -0.5050505E-02 -0.1148657E-07  0.0000000E+00 -0.2960525E-03
 -0.5043261E-02  0.0000000E+00 -0.5050505E-02 -0.1230289E-07  0.0000000E+00 -0.2960607E-03
 -0.5038714E-02  0.0000000E+00 -0.5050505E-02 -0.1320539E-07  0.0000000E+00 -0.2960695E-03
 -0.5032318E-02  0.0000000E+00 -0.5050505E-02 -0.1421458E-07  0.0000000E+00 -0.2960789E-03
 -0.5022454E-02  0.0000000E+00 -0.5050505E-02 -0.1535610E-07  0.0000000E+00 -0.2960890E-03
 -0.5012589E-02  0.0000000E+00 -0.5050505E-02 -0.1666210E-07  0.0000000E+00 -0.2961000E-03
 -0.5002725E-02  0.0000000E+00 -0.5050505E-02 -0.1817330E-07  0.0000000E+00 -0.2961120E-03
 -0.4992860E-02  0.0000000E+00 -0.5050505E-02 -0.1994162E-07  0.0000000E+00 -0.2961250E-03
 -0.4976523E-02  0.0000000E+00 -0.5050505E-02 -0.2203397E-07  0.0000000E+00 -0.2961393E-03
 -0.4956794E-02  0.0000000E+00 -0.5050505E-02 -0.2453747E-07  0.0000000E+00 -0.2961552E-03
 -0.4937066E-02  0.0000000E+00 -0.5050505E-02 -0.2756691E-07  0.0000000E+00 -0.2961729E-03
 -0.4906239E-02  0.0000000E+00 -0.5050505E-02 -0.3127554E-07  0.0000000E+00 -0.2961929E-03
 -0.4866782E-02  0.0000000E+00 -0.5050505E-02 -0.3587098E-07  0.0000000E+00 -0.2962156E-03
 -0.4827325E-02  0.0000000E+00 -0.5050505E-02 -0.4163903E-07  0.0000000E+00 -0.2962418E-03
 -0.4769372E-02  0.0000000E+00 -0.5050505E-02 -0.4898029E-07  0.0000000E+00 -0.2962722E-03
 -0.4690458E-02  0.0000000E+00 -0.5050505E-02 -0.5846743E-07  0.0000000E+00 -0.2963081E-03
 -0.4611543E-02  0.0000000E+00 -0.5050505E-02 -0.7093775E-07  0.0000000E+00 -0.2963511E-03
 -0.4503035E-02  0.0000000E+00 -0.5050505E-02 -0.8764644E-07  0.0000000E+00 -0.2964034E-03
 -0.4345206E-02  0.0000000E+00 -0.5050505E-02 -0.1105294E-06  0.0000000E+00 -0.2964682E-03
 -0.4187378E-02  0.0000000E+00 -0.5050505E-02 -0.1426701E-06  0.0000000E+00 -0.2965499E-03
 -0.3985156E-02  0.0000000E+00 -0.5050505E-02 -0.1891646E-06  0.0000000E+00 -0.2966552E-03
 -0.3669499E-02  0.0000000E+00 -0.5050505E-02 -0.2587971E-06  0.0000000E+00 -0.2967940E-03
 -0.3353842E-02  0.0000000E+00 -0.5050505E-02 -0.3674564E-06  0.0000000E+00 -0.2969814E-03
 -0.2978990E-02  0.0000000E+00 -0.5050505E-02 -0.5454953E-06  0.0000000E+00 -0.2972400E-03
 -0.2347676E-02  0.0000000E+00 -0.5050505E-02 -0.8545466E-06  0.0000000E+00 -0.2976016E-03
 -0.1716362E-02  0.0000000E+00 -0.5050505E-02 -0.1428332E-05  0.0000000E+00 -0.2980979E-03
 -0.1025842E-02  0.0000000E+00 -0.5050505E-02 -0.2577697E-05  0.0000000E+00 -0.2986919E-03
  0.2367855E-03  0.0000000E+00 -0.5050505E-02 -0.5075709E-05  0.0000000E+00 -0.2989258E-03
  0.1499413E-02  0.0000000E+00 -0.5050505E-02 -0.1096505E-04  0.0000000E+00 -0.2962320E-03
  0.5287294E-02  0.0000000E+00 -0.5050505E-02 -0.2590353E-04  0.0000000E+00 -0.2780018E-03
 -0.5050505E-02  0.0000000E+00 -0.5050505E-02  0.2456683E-09  0.0000000E+00 -0.2957659E-03
 -0.5050505E-02  0.0000000E+00 -0.5050505E-02  0.7345298E-09  0.0000000E+00 -0.2957657E-03
 -0.5050505E-02  0.0000000E+00 -0.5050505E-02  0.1220527E-08  0.0000000E+00 -0.2957653E-03
 -0.5050505E-02  0.0000000E+00 -0.5050505E-02  0.1702557E-08  0.0000000E+00 -0.2957646E-03
 -0.5050505E-02  0.0000000E+00 -0.5050505E-02  0.2178803E-08  0.0000000E+00 -0.2957638E-03
 -0.5050505E-02  0.0000000E+00 -0.5050505E-02  0.2647553E-08  0.0000000E+00 -0.2957628E-03
 -0.5050504E-02  0.0000000E+00 -0.5050505E-02  0.3107168E-08  0.0000000E+00 -0.2957616E-03
 -0.5050501E-02  0.0000000E+00 -0.5050505E-02  0.3556002E-08  0.0000000E+00 -0.2957602E-03
 -0.5050495E-02  0.0000000E+00 -0.5050505E-02  0.3992419E-08  0.0000000E+00 -0.2957586E-03
 -0.5050482E-02  0.0000000E+00 -0.5050505E-02  0.4414835E-08  0.0000000E+00 -0.2957568E-03
 -0.5050449E-02  0.0000000E+00 -0.5050505E-02  0.4821637E-08  0.0000000E+00 -0.2957549E-03
 -0.5050376E-02  0.0000000E+00 -0.5050505E-02  0.5211280E-08  0.0000000E+00 -0.2957528E-03
 -0.5050299E-02  0.0000000E+00 -0.5050505E-02  0.5582220E-08  0.0000000E+00 -0.2957505E-03
 -0.5050178E-02  0.0000000E+00 -0.5050505E-02  0.5932948E-08  0.0000000E+00 -0.2957480E-03
 -0.5050018E-02  0.0000000E+00 -0.5050505E-02  0.6261996E-08  0.0000000E+00 -0.2957455E-03
 -0.5049710E-02  0.0000000E+00 -0.5050505E-02  0.6567930E-08  0.0000000E+00 -0.2957428E-03
 -0.5049253E-02  0.0000000E+00 -0.5050505E-02  0.6849360E-08  0.0000000E+00 -0.2957399E-03
 -0.5048636E-02  0.0000000E+00 -0.5050505E-02  0.7104949E-08  0.0000000E+00 -0.2957370E-03
 -0.5047442E-02  0.0000000E+00 -0.5050505E-02  0.7333415E-08  0.0000000E+00 -0.2957339E-03
 -0.5045727E-02  0.0000000E+00 -0.5050505E-02  0.7533535E-08  0.0000000E+00 -0.2957308E-03
 -0.5043261E-02  0.0000000E+00 -0.5050505E-02  0.7704156E-08  0.0000000E+00 -0.2957276E-03
 -0.5038714E-02  0.0000000E+00 -0.5050505E-02  0.7844198E-08  0.0000000E+00 -0.2957243E-03
 -0.5032318E-02  0.0000000E+00 -0.5050505E-02  0.7952662E-08  0.0000000E+00 -0.2957210E-03
 -0.5022454E-02  0.0000000E+00 -0.5050505E-02  0.8028636E-08  0.0000000E+00 -0.2957176E-03
 -0.5012589E-02  0.0000000E+00 -0.5050505E-02  0.8071302E-08  0.0000000E+00 -0.2957142E-03
 -0.5002725E-02  0.0000000E+00 -0.5050505E-02  0.8079940E-08  0.0000000E+00 -0.2957108E-03
 -0.4992860E-02  0.0000000E+00 -0.5050505E-02  0.8053941E-08  0.0000000E+00 -0.2957073E-03
 -0.4976523E-02  0.0000000E+00 -0.5050505E-02  0.7992806E-08  0.0000000E+00 -0.2957040E-03
 -0.4956794E-02  0.0000000E+00 -0.5050505E-02  0.7896153E-08  0.0000000E+00 -0.2957006E-03
 -0.4937066E-02  0.0000000E+00 -0.5050505E-02  0.7763728E-08  0.0000000E+00 -0.2956973E-03
 -0.4906239E-02  0.0000000E+00 -0.5050505E-02  0.7595400E-08  0.0000000E+00 -0.2956940E-03
 -0.4866782E-02  0.0000000E+00 -0.5050505E-02  0.7391175E-08  0.0000000E+00 -0.2956909E-03
 -0.4827325E-02  0.0000000E+00 -0.5050505E-02  0.7151193E-08  0.0000000E+00 -0.2956878E-03
 -0.4769372E-02  0.0000000E+00 -0.5050505E-02  0.6875729E-08  0.0000000E+00 -0.2956848E-03
 -0.4690458E-02  0.0000000E+00 -0.5050505E-02  0.6565201E-08  0.0000000E+00 -0.2956820E-03
 -0.4611543E-02  0.0000000E+00 -0.5050505E-02  0.6220162E-08  0.0000000E+00 -0.2956792E-03
 -0.4503035E-02  0.0000000E+00 -0.5050505E-02  0.5841307E-08  0.0000000E+00 -0.2956767E-03
 -0.4345206E-02  0.0000000E+00 -0.5050505E-02  0.5429460E-08  0.0000000E+00 -0.2956743E-03
 -0.4187378E-02  0.0000000E+00 -0.5050505E-02  0.4985580E-08  0.0000000E+00 -0.2956721E-03
 -0.3985156E-02  0.0000000E+00 -0.5050505E-02  0.4510750E-08  0.0000000E+00 -0.2956701E-03
 -0.3669499E-02  0.0000000E+00 -0.5050505E-02  0.4006170E-08  0.0000000E+00 -0.2956682E-03
 -0.3353842E-02  0.0000000E+00 -0.5050505E-02  0.3473148E-08  0.0000000E+00 -0.2956666E-03
 -0.2978990E-02  0.0000000E+00 -0.5050505E-02  0.2913090E-08  0.0000000E+00 -0.2956653E-03
 -0.2347676E-02  0.0000000E+00 -0.5050505E-02  0.2327490E-08  0.0000000E+00 -0.2956641E-03
 -0.1716362E-02  0.0000000E+00 -0.5050505E-02  0.1717907E-08  0.0000000E+00 -0.2956633E-03
 -0.1025842E-02  0.0000000E+00 -0.5050505E-02  0.1085926E-08  0.0000000E+00 -0.2956627E-03
  0.2367855E-03  0.0000000E+00 -0.5050505E-02  0.4331061E-09  0.0000000E+00 -0.2956623E-03
  0.1499413E-02  0.0000000E+00 -0.5050505E-02 -0.2389257E-09  0.0000000E+00 -0.2956622E-03
  0.2762042E-02  0.0000000E+00 -0.5050505E-02 -0.9284457E-09  0.0000000E+00 -0.2956625E-03
 -0.5050505E-02  0.0000000E+00 -0.5050505E-02 -0.1633778E-08  0.0000000E+00 -0.2956630E-03
 -0.5050505E-02  0.0000000E+00 -0.5050505E-02 -0.2353563E-08  0.0000000E+00 -0.2956638E-03
 -0.5050505E-02  0.0000000E+00 -0.5050505E-02 -0.3086448E-08  0.0000000E+00 -0.2956649E-03
 -0.5050505E-02  0.0000000E+00 -0.5050505E-02 -0.3831189E-08  0.0000000E+00 -0.2956663E-03
 -0.5050505E-02  0.0000000E+00 -0.5050505E-02 -0.4586744E-08  0.0000000E+00 -0.2956681E-03
 -0.5050505E-02  0.0000000E+00 -0.5050505E-02 -0.5352319E-08  0.0000000E+00 -0.2956701E-03
 -0.5050505E-02  0.0000000E+00 -0.5050505E-02 -0.6127356E-08  0.0000000E+00 -0.2956725E-03
 -0.5050504E-02  0.0000000E+00 -0.5050505E-02 -0.6911690E-08  0.0000000E+00 -0.2956752E-03
 -0.5050501E-02  0.0000000E+00 -0.5050505E-02 -0.7705615E-08  0.0000000E+00 -0.2956782E-03
 -0.5050495E-02  0.0000000E+00 -0.5050505E-02 -0.8509787E-08  0.0000000E+00 -0.2956816E-03
 -0.5050482E-02  0.0000000E+00 -0.5050505E-02 -0.9325507E-08  0.0000000E+00 -0.2956853E-03
 -0.5050449E-02  0.0000000E+00 -0.5050505E-02 -0.1015475E-07  0.0000000E+00 -0.2956894E-03
 -0.5050376E-02  0.0000000E+00 -0.5050505E-02 -0.1100022E-07  0.0000000E+00 -0.2956937E-03
 -0.5050299E-02  0.0000000E+00 -0.5050505E-02 -0.1186556E-07  0.0000000E+00 -0.2956985E-03
 -0.5050178E-02  0.0000000E+00 -0.5050505E-02 -0.1275550E-07  0.0000000E+00 -0.2957036E-03
 -0.5050018E-02  0.0000000E+00 -0.5050505E-02 -0.1367604E-07  0.0000000E+00 -0.2957091E-03
 -0.5049710E-02  0.0000000E+00 -0.5050505E-02 -0.1463472E-07  0.0000000E+00 -0.2957149E-03
 -0.5049253E-02  0.0000000E+00 -0.5050505E-02 -0.1564088E-07  0.0000000E+00 -0.2957212E-03
 -0.5048636E-02  0.0000000E+00 -0.5050505E-02 -0.1670610E-07  0.0000000E+00 -0.2957279E-03
 -0.5047442E-02  0.0000000E+00 -0.5050505E-02 -0.1784459E-07  0.0000000E+00 -0.2957350E-03
 -0.5045727E-02  0.0000000E+00 -0.5050505E-02 -0.1907390E-07  0.0000000E+00 -0.2957426E-03
 -0.5043261E-02  0.0000000E+00 -0.5050505E-02 -0.2041559E-07  0.0000000E+00 -0.2957507E-03
 -0.5038714E-02  0.0000000E+00 -0.5050505E-02 -0.2189630E-07  0.0000000E+00 -0.2957594E-03
 -0.5032318E-02  0.0000000E+00 -0.5050505E-02 -0.2354902E-07  0.0000000E+00 -0.2957687E-03
 -0.5022454E-02  0.0000000E+00 -0.5050505E-02 -0.2541483E-07  0.0000000E+00 -0.2957787E-03
 -0.5012589E-02  0.0000000E+00 -0.5050505E-02 -0.2754513E-07  0.0000000E+00 -0.2957894E-03
 -0.5002725E-02  0.0000000E+00 -0.5050505E-02 -0.3000479E-07  0.0000000E+00 -0.2958011E-03
 -0.4992860E-02  0.0000000E+00 -0.5050505E-02 -0.3287621E-07  0.0000000E+00 -0.2958138E-03
 -0.4976523E-02  0.0000000E+00 -0.5050505E-02 -0.3626512E-07  0.0000000E+00 -0.2958276E-03
 -0.4956794E-02  0.0000000E+00 -0.5050505E-02 -0.4030848E-07  0.0000000E+00 -0.2958429E-03
 -0.4937066E-02  0.0000000E+00 -0.5050505E-02 -0.4518572E-07  0.0000000E+00 -0.2958599E-03
 -0.4906239E-02  0.0000000E+00 -0.5050505E-02 -0.5113479E-07  0.0000000E+00 -0.2958788E-03
 -0.4866782E-02  0.0000000E+00 -0.5050505E-02 -0.5847552E-07  0.0000000E+00 -0.2959002E-03
 -0.4827325E-02  0.0000000E+00 -0.5050505E-02 -0.6764410E-07  0.0000000E+00 -0.2959246E-03
 -0.4769372E-02  0.0000000E+00 -0.5050505E-02 -0.7924517E-07  0.0000000E+00 -0.2959526E-03
 -0.4690458E-02  0.0000000E+00 -0.5050505E-02 -0.9413176E-07  0.0000000E+00 -0.2959851E-03
 -0.4611543E-02  0.0000000E+00 -0.5050505E-02 -0.1135310E-06  0.0000000E+00 -0.2960234E-03
 -0.4503035E-02  0.0000000E+00 -0.5050505E-02 -0.1392459E-06  0.0000000E+00 -0.2960690E-03
 -0.4345206E-02  0.0000000E+00 -0.5050505E-02 -0.1739889E-06  0.0000000E+00 -0.2961238E-03
 -0.4187378E-02  0.0000000E+00 -0.5050505E-02 -0.2219446E-06  0.0000000E+00 -0.2961905E-03
 -0.3985156E-02  0.0000000E+00 -0.5050505E-02 -0.2897485E-06  0.0000000E+00 -0.2962721E-03
 -0.3669499E-02  0.0000000E+00 -0.5050505E-02 -0.3882296E-06  0.0000000E+00 -0.2963725E-03
 -0.3353842E-02  0.0000000E+00 -0.5050505E-02 -0.5355793E-06  0.0000000E+00 -0.2964946E-03
 -0.2978990E-02  0.0000000E+00 -0.5050505E-02 -0.7631752E-06  0.0000000E+00 -0.2966375E-03
 -0.2347676E-02  0.0000000E+00 -0.5050505E-02 -0.1126128E-05  0.0000000E+00 -0.2967858E-03
 -0.1716362E-02  0.0000000E+00 -0.5050505E-02 -0.1720951E-05  0.0000000E+00 -0.2968795E-03
 -0.1025842E-02  0.0000000E+00 -0.5050505E-02 -0.2707159E-05  0.0000000E+00 -0.2967331E-03
  0.2367855E-03  0.0000000E+00 -0.5050505E-02 -0.4290318E-05  0.0000000E+00 -0.2958419E-03
  0.1499413E-02  0.0000000E+00 -0.5050505E-02 -0.6420129E-05  0.0000000E+00 -0.2930710E-03
  0.5287294E-02  0.0000000E+00 -0.5050505E-02 -0.6994024E-05  0.0000000E+00 -0.2872287E-03
 -0.5050505E-02  0.0000000E+00 -0.5050505E-02  0.3463273E-09  0.0000000E+00 -0.2953131E-03
 -0.5050505E-02  0.0000000E+00 -0.5050505E-02  0.1035956E-08  0.0000000E+00 -0.2953129E-03
 -0.5050505E-02  0.0000000E+00 -0.5050505E-02  0.1721646E-08  0.0000000E+00 -0.2953125E-03
 -0.5050505E-02  0.0000000E+00 -0.5050505E-02  0.2401707E-08  0.0000000E+00 -0.2953118E-03
 -0.5050505E-02  0.0000000E+00 -0.5050505E-02  0.3073597E-08  0.0000000E+00 -0.2953110E-03
 -0.5050505E-02  0.0000000E+00 -0.5050505E-02  0.3734931E-08  0.0000000E+00 -0.2953099E-03
 -0.5050504E-02  0.0000000E+00 -0.5050505E-02  0.4383397E-08  0.0000000E+00 -0.2953087E-03
 -0.5050501E-02  0.0000000E+00 -0.5050505E-02  0.5016696E-08  0.0000000E+00 -0.2953073E-03
 -0.5050495E-02  0.0000000E+00 -0.5050505E-02  0.5632522E-08  0.0000000E+00 -0.2953056E-03
 -0.5050482E-02  0.0000000E+00 -0.5050505E-02  0.6228642E-08  0.0000000E+00 -0.2953038E-03
 -0.5050449E-02  0.0000000E+00 -0.5050505E-02  0.6802794E-08  0.0000000E+00 -0.2953018E-03
 -0.5050376E-02  0.0000000E+00 -0.5050505E-02  0.7352794E-08  0.0000000E+00 -0.2952996E-03
 -0.5050299E-02  0.0000000E+00 -0.5050505E-02  0.7876470E-08  0.0000000E+00 -0.2952973E-03
 -0.5050178E-02  0.0000000E+00 -0.5050505E-02  0.8371695E-08  0.0000000E+00 -0.2952948E-03
 -0.5050018E-02  0.0000000E+00 -0.5050505E-02  0.8836400E-08  0.0000000E+00 -0.2952922E-03
 -0.5049710E-02  0.0000000E+00 -0.5050505E-02  0.9268561E-08  0.0000000E+00 -0.2952894E-03
 -0.5049253E-02  0.0000000E+00 -0.5050505E-02  0.9666221E-08  0.0000000E+00 -0.2952865E-03
 -0.5048636E-02  0.0000000E+00 -0.5050505E-02  0.1002749E-07  0.0000000E+00 -0.2952835E-03
 -0.5047442E-02  0.0000000E+00 -0.5050505E-02  0.1035056E-07  0.0000000E+00 -0.2952803E-03
 -0.5045727E-02  0.0000000E+00 -0.5050505E-02  0.1063371E-07  0.0000000E+00 -0.2952771E-03
 -0.5043261E-02  0.0000000E+00 -0.5050505E-02  0.1087530E-07  0.0000000E+00 -0.2952738E-03
 -0.5038714E-02  0.0000000E+00 -0.5050505E-02  0.1107381E-07  0.0000000E+00 -0.2952704E-03
 -0.5032318E-02  0.0000000E+00 -0.5050505E-02  0.1122783E-07  0.0000000E+00 -0.2952670E-03
 -0.5022454E-02  0.0000000E+00 -0.5050505E-02  0.1133606E-07  0.0000000E+00 -0.2952635E-03
 -0.5012589E-02  0.0000000E+00 -0.5050505E-02  0.1139735E-07  0.0000000E+00 -0.2952600E-03
 -0.5002725E-02  0.0000000E+00 -0.5050505E-02  0.1141067E-07  0.0000000E+00 -0.2952565E-03
 -0.4992860E-02  0.0000000E+00 -0.5050505E-02  0.1137518E-07  0.0000000E+00 -0.2952530E-03
 -0.4976523E-02  0.0000000E+00 -0.5050505E-02  0.1129014E-07  0.0000000E+00 -0.2952495E-03
 -0.4956794E-02  0.0000000E+00 -0.5050505E-02  0.1115503E-07  0.0000000E+00 -0.2952461E-03
 -0.4937066E-02  0.0000000E+00 -0.5050505E-02  0.1096948E-07  0.0000000E+00 -0.2952426E-03