title = "dataset feddes"
variables = "x", "y", "z", "vx", "vy", "vz"
zone t = "velocities, solution time =  6.000E+00 days        " i =   99, j =   99, k =    1,  f=point
 -0.5050505E-02  0.0000000E+00 -0.5050505E-02 -0.1532898E-11  0.0000000E+00 -0.9186035E-03
 -0.5050505E-02  0.0000000E+00 -0.5050505E-02 -0.4817371E-11  0.0000000E+00 -0.9186035E-03
 -0.5050505E-02  0.0000000E+00 -0.5050505E-02 -0.7961079E-11  0.0000000E+00 -0.9186035E-03
 -0.5050505E-02  0.0000000E+00 -0.5050505E-02 -0.1034826E-10  0.0000000E+00 -0.9186036E-03
 -0.5050505E-02  0.0000000E+00 -0.5050505E-02 -0.1283502E-10  0.0000000E+00 -0.9186036E-03
 -0.5050505E-02  0.0000000E+00 -0.5050505E-02 -0.1610312E-10  0.0000000E+00 -0.9186036E-03
 -0.5050504E-02  0.0000000E+00 -0.5050505E-02 -0.1944037E-10  0.0000000E+00 -0.9186036E-03
 -0.5050501E-02  0.0000000E+00 -0.5050505E-02 -0.2200855E-10  0.0000000E+00 -0.9186037E-03
 -0.5050495E-02  0.0000000E+00 -0.5050505E-02 -0.2608355E-10  0.0000000E+00 -0.9186037E-03
 -0.5050482E-02  0.0000000E+00 -0.5050505E-02 -0.3028505E-10  0.0000000E+00 -0.9186038E-03
 -0.5050449E-02  0.0000000E+00 -0.5050505E-02 -0.3455606E-10  0.0000000E+00 -0.9186039E-03
 -0.5050376E-02  0.0000000E+00 -0.5050505E-02 -0.3753552E-10  0.0000000E+00 -0.9186040E-03
 -0.5050299E-02  0.0000000E+00 -0.5050505E-02 -0.3964768E-10  0.0000000E+00 -0.9186040E-03
 -0.5050178E-02  0.0000000E+00 -0.5050505E-02 -0.4328241E-10  0.0000000E+00 -0.9186041E-03
 -0.5050018E-02  0.0000000E+00 -0.5050505E-02 -0.4948836E-10  0.0000000E+00 -0.9186042E-03
 -0.5049710E-02  0.0000000E+00 -0.5050505E-02 -0.5692647E-10  0.0000000E+00 -0.9186044E-03
 -0.5049253E-02  0.0000000E+00 -0.5050505E-02 -0.6373074E-10  0.0000000E+00 -0.9186045E-03
 -0.5048636E-02  0.0000000E+00 -0.5050505E-02 -0.6929216E-10  0.0000000E+00 -0.9186046E-03
 -0.5047442E-02  0.0000000E+00 -0.5050505E-02 -0.7435714E-10  0.0000000E+00 -0.9186048E-03
 -0.5045727E-02  0.0000000E+00 -0.5050505E-02 -0.8007130E-10  0.0000000E+00 -0.9186050E-03
 -0.5043261E-02  0.0000000E+00 -0.5050505E-02 -0.8714471E-10  0.0000000E+00 -0.9186052E-03
 -0.5038714E-02  0.0000000E+00 -0.5050505E-02 -0.9564924E-10  0.0000000E+00 -0.9186054E-03
 -0.5032318E-02  0.0000000E+00 -0.5050505E-02 -0.1052770E-09  0.0000000E+00 -0.9186056E-03
 -0.5022454E-02  0.0000000E+00 -0.5050505E-02 -0.1156886E-09  0.0000000E+00 -0.9186058E-03
 -0.5012589E-02  0.0000000E+00 -0.5050505E-02 -0.1267196E-09  0.0000000E+00 -0.9186061E-03
 -0.5002725E-02  0.0000000E+00 -0.5050505E-02 -0.1384102E-09  0.0000000E+00 -0.9186064E-03
 -0.4992860E-02  0.0000000E+00 -0.5050505E-02 -0.1509337E-09  0.0000000E+00 -0.9186067E-03
 -0.4976523E-02  0.0000000E+00 -0.5050505E-02 -0.1645055E-09  0.0000000E+00 -0.9186070E-03
 -0.4956794E-02  0.0000000E+00 -0.5050505E-02 -0.1793230E-09  0.0000000E+00 -0.9186074E-03
 -0.4937066E-02  0.0000000E+00 -0.5050505E-02 -0.1955442E-09  0.0000000E+00 -0.9186078E-03
 -0.4906239E-02  0.0000000E+00 -0.5050505E-02 -0.2132941E-09  0.0000000E+00 -0.9186083E-03
 -0.4866782E-02  0.0000000E+00 -0.5050505E-02 -0.2326829E-09  0.0000000E+00 -0.9186088E-03
 -0.4827325E-02  0.0000000E+00 -0.5050505E-02 -0.2538247E-09  0.0000000E+00 -0.9186093E-03
 -0.4769372E-02  0.0000000E+00 -0.5050505E-02 -0.2768499E-09  0.0000000E+00 -0.9186099E-03
 -0.4690458E-02  0.0000000E+00 -0.5050505E-02 -0.3019119E-09  0.0000000E+00 -0.9186106E-03
 -0.4611543E-02  0.0000000E+00 -0.5050505E-02 -0.3291895E-09  0.0000000E+00 -0.9186113E-03
 -0.4503035E-02  0.0000000E+00 -0.5050505E-02 -0.3588868E-09  0.0000000E+00 -0.9186120E-03
 -0.4345206E-02  0.0000000E+00 -0.5050505E-02 -0.3912323E-09  0.0000000E+00 -0.9186128E-03
 -0.4187378E-02  0.0000000E+00 -0.5050505E-02 -0.4264790E-09  0.0000000E+00 -0.9186137E-03
 -0.3985156E-02  0.0000000E+00 -0.5050505E-02 -0.4649050E-09  0.0000000E+00 -0.9186147E-03
 -0.3669499E-02  0.0000000E+00 -0.5050505E-02 -0.5068150E-09  0.0000000E+00 -0.9186158E-03
 -0.3353842E-02  0.0000000E+00 -0.5050505E-02 -0.5525432E-09  0.0000000E+00 -0.9186170E-03
 -0.2978990E-02  0.0000000E+00 -0.5050505E-02 -0.6024562E-09  0.0000000E+00 -0.9186183E-03
 -0.2347676E-02  0.0000000E+00 -0.5050505E-02 -0.6569572E-09  0.0000000E+00 -0.9186196E-03
 -0.1716362E-02  0.0000000E+00 -0.5050505E-02 -0.7164904E-09  0.0000000E+00 -0.9186212E-03
 -0.1025842E-02  0.0000000E+00 -0.5050505E-02 -0.7815461E-09  0.0000000E+00 -0.9186228E-03
  0.2367855E-03  0.0000000E+00 -0.5050505E-02 -0.8526664E-09  0.0000000E+00 -0.9186246E-03
  0.1499413E-02  0.0000000E+00 -0.5050505E-02 -0.9304521E-09  0.0000000E+00 -0.9186266E-03
  0.2762042E-02  0.0000000E+00 -0.5050505E-02 -0.1015570E-08  0.0000000E+00 -0.9186287E-03
 -0.5050505E-02  0.0000000E+00 -0.5050505E-02 -0.1108760E-08  0.0000000E+00 -0.9186311E-03
 -0.5050505E-02  0.0000000E+00 -0.5050505E-02 -0.1210850E-08  0.0000000E+00 -0.9186337E-03
 -0.5050505E-02  0.0000000E+00 -0.5050505E-02 -0.1322761E-08  0.0000000E+00 -0.9186365E-03
 -0.5050505E-02  0.0000000E+00 -0.5050505E-02 -0.1445523E-08  0.0000000E+00 -0.9186395E-03
 -0.5050505E-02  0.0000000E+00 -0.5050505E-02 -0.1580295E-08  0.0000000E+00 -0.9186429E-03
 -0.5050505E-02  0.0000000E+00 -0.5050505E-02 -0.1728375E-08  0.0000000E+00 -0.9186465E-03
 -0.5050505E-02  0.0000000E+00 -0.5050505E-02 -0.1891231E-08  0.0000000E+00 -0.9186505E-03
 -0.5050504E-02  0.0000000E+00 -0.5050505E-02 -0.2070518E-08  0.0000000E+00 -0.9186549E-03
 -0.5050501E-02  0.0000000E+00 -0.5050505E-02 -0.2268115E-08  0.0000000E+00 -0.9186597E-03
 -0.5050495E-02  0.0000000E+00 -0.5050505E-02 -0.2486161E-08  0.0000000E+00 -0.9186650E-03
 -0.5050482E-02  0.0000000E+00 -0.5050505E-02 -0.2727097E-08  0.0000000E+00 -0.9186707E-03
 -0.5050449E-02  0.0000000E+00 -0.5050505E-02 -0.2993721E-08  0.0000000E+00 -0.9186770E-03
 -0.5050376E-02  0.0000000E+00 -0.5050505E-02 -0.3289252E-08  0.0000000E+00 -0.9186840E-03
 -0.5050299E-02  0.0000000E+00 -0.5050505E-02 -0.3617412E-08  0.0000000E+00 -0.9186916E-03
 -0.5050178E-02  0.0000000E+00 -0.5050505E-02 -0.3982521E-08  0.0000000E+00 -0.9187000E-03
 -0.5050018E-02  0.0000000E+00 -0.5050505E-02 -0.4389619E-08  0.0000000E+00 -0.9187093E-03
 -0.5049710E-02  0.0000000E+00 -0.5050505E-02 -0.4844618E-08  0.0000000E+00 -0.9187195E-03
 -0.5049253E-02  0.0000000E+00 -0.5050505E-02 -0.5354486E-08  0.0000000E+00 -0.9187308E-03
 -0.5048636E-02  0.0000000E+00 -0.5050505E-02 -0.5927482E-08  0.0000000E+00 -0.9187432E-03
 -0.5047442E-02  0.0000000E+00 -0.5050505E-02 -0.6573461E-08  0.0000000E+00 -0.9187570E-03
 -0.5045727E-02  0.0000000E+00 -0.5050505E-02 -0.7304249E-08  0.0000000E+00 -0.9187724E-03
 -0.5043261E-02  0.0000000E+00 -0.5050505E-02 -0.8134139E-08  0.0000000E+00 -0.9187894E-03
 -0.5038714E-02  0.0000000E+00 -0.5050505E-02 -0.9080529E-08  0.0000000E+00 -0.9188085E-03
 -0.5032318E-02  0.0000000E+00 -0.5050505E-02 -0.1016476E-07  0.0000000E+00 -0.9188297E-03
 -0.5022454E-02  0.0000000E+00 -0.5050505E-02 -0.1141324E-07  0.0000000E+00 -0.9188536E-03
 -0.5012589E-02  0.0000000E+00 -0.5050505E-02 -0.1285890E-07  0.0000000E+00 -0.9188804E-03
 -0.5002725E-02  0.0000000E+00 -0.5050505E-02 -0.1454325E-07  0.0000000E+00 -0.9189107E-03
 -0.4992860E-02  0.0000000E+00 -0.5050505E-02 -0.1651914E-07  0.0000000E+00 -0.9189451E-03
 -0.4976523E-02  0.0000000E+00 -0.5050505E-02 -0.1885453E-07  0.0000000E+00 -0.9189842E-03
 -0.4956794E-02  0.0000000E+00 -0.5050505E-02 -0.2163793E-07  0.0000000E+00 -0.9190289E-03
 -0.4937066E-02  0.0000000E+00 -0.5050505E-02 -0.2498606E-07  0.0000000E+00 -0.9190805E-03
 -0.4906239E-02  0.0000000E+00 -0.5050505E-02 -0.2905501E-07  0.0000000E+00 -0.9191402E-03
 -0.4866782E-02  0.0000000E+00 -0.5050505E-02 -0.3405674E-07  0.0000000E+00 -0.9192100E-03
 -0.4827325E-02  0.0000000E+00 -0.5050505E-02 -0.4028406E-07  0.0000000E+00 -0.9192921E-03
 -0.4769372E-02  0.0000000E+00 -0.5050505E-02 -0.4814917E-07  0.0000000E+00 -0.9193899E-03
 -0.4690458E-02  0.0000000E+00 -0.5050505E-02 -0.5824482E-07  0.0000000E+00 -0.9195075E-03
 -0.4611543E-02  0.0000000E+00 -0.5050505E-02 -0.7144400E-07  0.0000000E+00 -0.9196509E-03
 -0.4503035E-02  0.0000000E+00 -0.5050505E-02 -0.8906780E-07  0.0000000E+00 -0.9198283E-03
 -0.4345206E-02  0.0000000E+00 -0.5050505E-02 -0.1131787E-06  0.0000000E+00 -0.9200519E-03
 -0.4187378E-02  0.0000000E+00 -0.5050505E-02 -0.1471154E-06  0.0000000E+00 -0.9203396E-03
 -0.3985156E-02  0.0000000E+00 -0.5050505E-02 -0.1965153E-06  0.0000000E+00 -0.9207195E-03
 -0.3669499E-02  0.0000000E+00 -0.5050505E-02 -0.2713879E-06  0.0000000E+00 -0.9212368E-03
 -0.3353842E-02  0.0000000E+00 -0.5050505E-02 -0.3906003E-06  0.0000000E+00 -0.9219687E-03
 -0.2978990E-02  0.0000000E+00 -0.5050505E-02 -0.5923630E-06  0.0000000E+00 -0.9230556E-03
 -0.2347676E-02  0.0000000E+00 -0.5050505E-02 -0.9609799E-06  0.0000000E+00 -0.9247734E-03
 -0.1716362E-02  0.0000000E+00 -0.5050505E-02 -0.1701987E-05  0.0000000E+00 -0.9277187E-03
 -0.1025842E-02  0.0000000E+00 -0.5050505E-02 -0.3375611E-05  0.0000000E+00 -0.9333364E-03
  0.2367855E-03  0.0000000E+00 -0.5050505E-02 -0.7697792E-05  0.0000000E+00 -0.9455950E-03
  0.1499413E-02  0.0000000E+00 -0.5050505E-02 -0.2055113E-04  0.0000000E+00 -0.9769093E-03
  0.5287294E-02  0.0000000E+00 -0.5050505E-02 -0.3417016E-03  0.0000000E+00 -0.7768773E-03
 -0.5050505E-02  0.0000000E+00 -0.5050505E-02 -0.4495027E-11  0.0000000E+00 -0.9157491E-03
 -0.5050505E-02  0.0000000E+00 -0.5050505E-02 -0.1447828E-10  0.0000000E+00 -0.9157491E-03
 -0.5050505E-02  0.0000000E+00 -0.5050505E-02 -0.2316708E-10  0.0000000E+00 -0.9157491E-03
 -0.5050505E-02  0.0000000E+00 -0.5050505E-02 -0.3102834E-10  0.0000000E+00 -0.9157492E-03
 -0.5050505E-02  0.0000000E+00 -0.5050505E-02 -0.3904393E-10  0.0000000E+00 -0.9157492E-03
 -0.5050505E-02  0.0000000E+00 -0.5050505E-02 -0.4788612E-10  0.0000000E+00 -0.9157492E-03
 -0.5050504E-02  0.0000000E+00 -0.5050505E-02 -0.5782731E-10  0.0000000E+00 -0.9157493E-03
 -0.5050501E-02  0.0000000E+00 -0.5050505E-02 -0.6626914E-10  0.0000000E+00 -0.9157493E-03
 -0.5050495E-02  0.0000000E+00 -0.5050505E-02 -0.7921108E-10  0.0000000E+00 -0.9157494E-03
 -0.5050482E-02  0.0000000E+00 -0.5050505E-02 -0.9179505E-10  0.0000000E+00 -0.9157494E-03
 -0.5050449E-02  0.0000000E+00 -0.5050505E-02 -0.1031617E-09  0.0000000E+00 -0.9157495E-03
 -0.5050376E-02  0.0000000E+00 -0.5050505E-02 -0.1114584E-09  0.0000000E+00 -0.9157496E-03
 -0.5050299E-02  0.0000000E+00 -0.5050505E-02 -0.1189039E-09  0.0000000E+00 -0.9157496E-03
 -0.5050178E-02  0.0000000E+00 -0.5050505E-02 -0.1311334E-09  0.0000000E+00 -0.9157497E-03
 -0.5050018E-02  0.0000000E+00 -0.5050505E-02 -0.1499084E-09  0.0000000E+00 -0.9157498E-03
 -0.5049710E-02  0.0000000E+00 -0.5050505E-02 -0.1714120E-09  0.0000000E+00 -0.9157500E-03
 -0.5049253E-02  0.0000000E+00 -0.5050505E-02 -0.1910198E-09  0.0000000E+00 -0.9157501E-03
 -0.5048636E-02  0.0000000E+00 -0.5050505E-02 -0.2074998E-09  0.0000000E+00 -0.9157502E-03
 -0.5047442E-02  0.0000000E+00 -0.5050505E-02 -0.2230177E-09  0.0000000E+00 -0.9157504E-03
 -0.5045727E-02  0.0000000E+00 -0.5050505E-02 -0.2406258E-09  0.0000000E+00 -0.9157506E-03
 -0.5043261E-02  0.0000000E+00 -0.5050505E-02 -0.2621553E-09  0.0000000E+00 -0.9157508E-03
 -0.5038714E-02  0.0000000E+00 -0.5050505E-02 -0.2877475E-09  0.0000000E+00 -0.9157510E-03
 -0.5032318E-02  0.0000000E+00 -0.5050505E-02 -0.3165602E-09  0.0000000E+00 -0.9157512E-03
 -0.5022454E-02  0.0000000E+00 -0.5050505E-02 -0.3476922E-09  0.0000000E+00 -0.9157514E-03
 -0.5012589E-02  0.0000000E+00 -0.5050505E-02 -0.3807263E-09  0.0000000E+00 -0.9157517E-03
 -0.5002725E-02  0.0000000E+00 -0.5050505E-02 -0.4158044E-09  0.0000000E+00 -0.9157520E-03
 -0.4992860E-02  0.0000000E+00 -0.5050505E-02 -0.4534305E-09  0.0000000E+00 -0.9157523E-03
 -0.4976523E-02  0.0000000E+00 -0.5050505E-02 -0.4942249E-09  0.0000000E+00 -0.9157527E-03
 -0.4956794E-02  0.0000000E+00 -0.5050505E-02 -0.5387586E-09  0.0000000E+00 -0.9157530E-03
 -0.4937066E-02  0.0000000E+00 -0.5050505E-02 -0.5874942E-09  0.0000000E+00 -0.9157534E-03
 -0.4906239E-02  0.0000000E+00 -0.5050505E-02 -0.6408048E-09  0.0000000E+00 -0.9157539E-03
 -0.4866782E-02  0.0000000E+00 -0.5050505E-02 -0.6990241E-09  0.0000000E+00 -0.9157544E-03
 -0.4827325E-02  0.0000000E+00 -0.5050505E-02 -0.7624978E-09  0.0000000E+00 -0.9157549E-03
 -0.4769372E-02  0.0000000E+00 -0.5050505E-02 -0.8316204E-09  0.0000000E+00 -0.9157555E-03
 -0.4690458E-02  0.0000000E+00 -0.5050505E-02 -0.9068540E-09  0.0000000E+00 -0.9157561E-03
 -0.4611543E-02  0.0000000E+00 -0.5050505E-02 -0.9887356E-09  0.0000000E+00 -0.9157568E-03
 -0.4503035E-02  0.0000000E+00 -0.5050505E-02 -0.1077876E-08  0.0000000E+00 -0.9157576E-03
 -0.4345206E-02  0.0000000E+00 -0.5050505E-02 -0.1174961E-08  0.0000000E+00 -0.9157584E-03
 -0.4187378E-02  0.0000000E+00 -0.5050505E-02 -0.1280747E-08  0.0000000E+00 -0.9157593E-03
 -0.3985156E-02  0.0000000E+00 -0.5050505E-02 -0.1396068E-08  0.0000000E+00 -0.9157603E-03
 -0.3669499E-02  0.0000000E+00 -0.5050505E-02 -0.1521834E-08  0.0000000E+00 -0.9157614E-03
 -0.3353842E-02  0.0000000E+00 -0.5050505E-02 -0.1659049E-08  0.0000000E+00 -0.9157626E-03
 -0.2978990E-02  0.0000000E+00 -0.5050505E-02 -0.1808808E-08  0.0000000E+00 -0.9157638E-03
 -0.2347676E-02  0.0000000E+00 -0.5050505E-02 -0.1972319E-08  0.0000000E+00 -0.9157652E-03
 -0.1716362E-02  0.0000000E+00 -0.5050505E-02 -0.2150912E-08  0.0000000E+00 -0.9157667E-03
 -0.1025842E-02  0.0000000E+00 -0.5050505E-02 -0.2346054E-08  0.0000000E+00 -0.9157684E-03
  0.2367855E-03  0.0000000E+00 -0.5050505E-02 -0.2559368E-08  0.0000000E+00 -0.9157702E-03
  0.1499413E-02  0.0000000E+00 -0.5050505E-02 -0.2792651E-08  0.0000000E+00 -0.9157721E-03
  0.2762042E-02  0.0000000E+00 -0.5050505E-02 -0.3047896E-08  0.0000000E+00 -0.9157743E-03
 -0.5050505E-02  0.0000000E+00 -0.5050505E-02 -0.3327321E-08  0.0000000E+00 -0.9157766E-03
 -0.5050505E-02  0.0000000E+00 -0.5050505E-02 -0.3633394E-08  0.0000000E+00 -0.9157792E-03
 -0.5050505E-02  0.0000000E+00 -0.5050505E-02 -0.3968871E-08  0.0000000E+00 -0.9157819E-03
 -0.5050505E-02  0.0000000E+00 -0.5050505E-02 -0.4336834E-08  0.0000000E+00 -0.9157850E-03
 -0.5050505E-02  0.0000000E+00 -0.5050505E-02 -0.4740740E-08  0.0000000E+00 -0.9157883E-03
 -0.5050505E-02  0.0000000E+00 -0.5050505E-02 -0.5184471E-08  0.0000000E+00 -0.9157919E-03
 -0.5050505E-02  0.0000000E+00 -0.5050505E-02 -0.5672404E-08  0.0000000E+00 -0.9157959E-03
 -0.5050504E-02  0.0000000E+00 -0.5050505E-02 -0.6209486E-08  0.0000000E+00 -0.9158003E-03
 -0.5050501E-02  0.0000000E+00 -0.5050505E-02 -0.6801324E-08  0.0000000E+00 -0.9158050E-03
 -0.5050495E-02  0.0000000E+00 -0.5050505E-02 -0.7454294E-08  0.0000000E+00 -0.9158102E-03
 -0.5050482E-02  0.0000000E+00 -0.5050505E-02 -0.8175676E-08  0.0000000E+00 -0.9158160E-03
 -0.5050449E-02  0.0000000E+00 -0.5050505E-02 -0.8973810E-08  0.0000000E+00 -0.9158222E-03
 -0.5050376E-02  0.0000000E+00 -0.5050505E-02 -0.9858288E-08  0.0000000E+00 -0.9158291E-03
 -0.5050299E-02  0.0000000E+00 -0.5050505E-02 -0.1084019E-07  0.0000000E+00 -0.9158367E-03
 -0.5050178E-02  0.0000000E+00 -0.5050505E-02 -0.1193238E-07  0.0000000E+00 -0.9158450E-03
 -0.5050018E-02  0.0000000E+00 -0.5050505E-02 -0.1314985E-07  0.0000000E+00 -0.9158542E-03
 -0.5049710E-02  0.0000000E+00 -0.5050505E-02 -0.1451018E-07  0.0000000E+00 -0.9158643E-03
 -0.5049253E-02  0.0000000E+00 -0.5050505E-02 -0.1603406E-07  0.0000000E+00 -0.9158754E-03
 -0.5048636E-02  0.0000000E+00 -0.5050505E-02 -0.1774602E-07  0.0000000E+00 -0.9158877E-03
 -0.5047442E-02  0.0000000E+00 -0.5050505E-02 -0.1967531E-07  0.0000000E+00 -0.9159014E-03
 -0.5045727E-02  0.0000000E+00 -0.5050505E-02 -0.2185696E-07  0.0000000E+00 -0.9159165E-03
 -0.5043261E-02  0.0000000E+00 -0.5050505E-02 -0.2433332E-07  0.0000000E+00 -0.9159333E-03
 -0.5038714E-02  0.0000000E+00 -0.5050505E-02 -0.2715585E-07  0.0000000E+00 -0.9159521E-03
 -0.5032318E-02  0.0000000E+00 -0.5050505E-02 -0.3038761E-07  0.0000000E+00 -0.9159730E-03
 -0.5022454E-02  0.0000000E+00 -0.5050505E-02 -0.3410651E-07  0.0000000E+00 -0.9159965E-03
 -0.5012589E-02  0.0000000E+00 -0.5050505E-02 -0.3840965E-07  0.0000000E+00 -0.9160228E-03
 -0.5002725E-02  0.0000000E+00 -0.5050505E-02 -0.4341915E-07  0.0000000E+00 -0.9160525E-03
 -0.4992860E-02  0.0000000E+00 -0.5050505E-02 -0.4929017E-07  0.0000000E+00 -0.9160861E-03
 -0.4976523E-02  0.0000000E+00 -0.5050505E-02 -0.5622196E-07  0.0000000E+00 -0.9161243E-03
 -0.4956794E-02  0.0000000E+00 -0.5050505E-02 -0.6447329E-07  0.0000000E+00 -0.9161679E-03
 -0.4937066E-02  0.0000000E+00 -0.5050505E-02 -0.7438453E-07  0.0000000E+00 -0.9162180E-03
 -0.4906239E-02  0.0000000E+00 -0.5050505E-02 -0.8640936E-07  0.0000000E+00 -0.9162760E-03
 -0.4866782E-02  0.0000000E+00 -0.5050505E-02 -0.1011616E-06  0.0000000E+00 -0.9163434E-03
 -0.4827325E-02  0.0000000E+00 -0.5050505E-02 -0.1194856E-06  0.0000000E+00 -0.9164224E-03
 -0.4769372E-02  0.0000000E+00 -0.5050505E-02 -0.1425636E-06  0.0000000E+00 -0.9165160E-03
 -0.4690458E-02  0.0000000E+00 -0.5050505E-02 -0.1720850E-06  0.0000000E+00 -0.9166280E-03
 -0.4611543E-02  0.0000000E+00 -0.5050505E-02 -0.2105191E-06  0.0000000E+00 -0.9167634E-03
 -0.4503035E-02  0.0000000E+00 -0.5050505E-02 -0.2615667E-06  0.0000000E+00 -0.9169293E-03
 -0.4345206E-02  0.0000000E+00 -0.5050505E-02 -0.3309359E-06  0.0000000E+00 -0.9171359E-03
 -0.4187378E-02  0.0000000E+00 -0.5050505E-02 -0.4277230E-06  0.0000000E+00 -0.9173975E-03
 -0.3985156E-02  0.0000000E+00 -0.5050505E-02 -0.5669750E-06  0.0000000E+00 -0.9177353E-03
 -0.3669499E-02  0.0000000E+00 -0.5050505E-02 -0.7746742E-06  0.0000000E+00 -0.9181813E-03
 -0.3353842E-02  0.0000000E+00 -0.5050505E-02 -0.1097952E-05  0.0000000E+00 -0.9187842E-03
 -0.2978990E-02  0.0000000E+00 -0.5050505E-02 -0.1627250E-05  0.0000000E+00 -0.9196185E-03
 -0.2347676E-02  0.0000000E+00 -0.5050505E-02 -0.2547467E-05  0.0000000E+00 -0.9207922E-03
 -0.1716362E-02  0.0000000E+00 -0.5050505E-02 -0.4263735E-05  0.0000000E+00 -0.9224243E-03
 -0.1025842E-02  0.0000000E+00 -0.5050505E-02 -0.7730812E-05  0.0000000E+00 -0.9244452E-03
  0.2367855E-03  0.0000000E+00 -0.5050505E-02 -0.1536652E-04  0.0000000E+00 -0.9254900E-03
  0.1499413E-02  0.0000000E+00 -0.5050505E-02 -0.3370605E-04  0.0000000E+00 -0.9173681E-03
  0.5287294E-02  0.0000000E+00 -0.5050505E-02 -0.8135205E-04  0.0000000E+00 -0.8583608E-03
 -0.5050505E-02  0.0000000E+00 -0.5050505E-02 -0.7089321E-11  0.0000000E+00 -0.9103541E-03
 -0.5050505E-02  0.0000000E+00 -0.5050505E-02 -0.2392575E-10  0.0000000E+00 -0.9103541E-03
 -0.5050505E-02  0.0000000E+00 -0.5050505E-02 -0.3789322E-10  0.0000000E+00 -0.9103541E-03
 -0.5050505E-02  0.0000000E+00 -0.5050505E-02 -0.5164625E-10  0.0000000E+00 -0.9103541E-03
 -0.5050505E-02  0.0000000E+00 -0.5050505E-02 -0.6539642E-10  0.0000000E+00 -0.9103541E-03
 -0.5050505E-02  0.0000000E+00 -0.5050505E-02 -0.7867659E-10  0.0000000E+00 -0.9103542E-03
 -0.5050504E-02  0.0000000E+00 -0.5050505E-02 -0.9590593E-10  0.0000000E+00 -0.9103542E-03
 -0.5050501E-02  0.0000000E+00 -0.5050505E-02 -0.1117828E-09  0.0000000E+00 -0.9103543E-03
 -0.5050495E-02  0.0000000E+00 -0.5050505E-02 -0.1336255E-09  0.0000000E+00 -0.9103543E-03
 -0.5050482E-02  0.0000000E+00 -0.5050505E-02 -0.1538376E-09  0.0000000E+00 -0.9103544E-03
 -0.5050449E-02  0.0000000E+00 -0.5050505E-02 -0.1707759E-09  0.0000000E+00 -0.9103544E-03
 -0.5050376E-02  0.0000000E+00 -0.5050505E-02 -0.1842827E-09  0.0000000E+00 -0.9103545E-03
 -0.5050299E-02  0.0000000E+00 -0.5050505E-02 -0.1988323E-09  0.0000000E+00 -0.9103546E-03
 -0.5050178E-02  0.0000000E+00 -0.5050505E-02 -0.2211843E-09  0.0000000E+00 -0.9103547E-03
 -0.5050018E-02  0.0000000E+00 -0.5050505E-02 -0.2523040E-09  0.0000000E+00 -0.9103548E-03
 -0.5049710E-02  0.0000000E+00 -0.5050505E-02 -0.2864906E-09  0.0000000E+00 -0.9103549E-03
 -0.5049253E-02  0.0000000E+00 -0.5050505E-02 -0.3177890E-09  0.0000000E+00 -0.9103551E-03
 -0.5048636E-02  0.0000000E+00 -0.5050505E-02 -0.3450781E-09  0.0000000E+00 -0.9103552E-03
 -0.5047442E-02  0.0000000E+00 -0.5050505E-02 -0.3716969E-09  0.0000000E+00 -0.9103554E-03
 -0.5045727E-02  0.0000000E+00 -0.5050505E-02 -0.4019684E-09  0.0000000E+00 -0.9103555E-03
 -0.5043261E-02  0.0000000E+00 -0.5050505E-02 -0.4384014E-09  0.0000000E+00 -0.9103557E-03
 -0.5038714E-02  0.0000000E+00 -0.5050505E-02 -0.4811316E-09  0.0000000E+00 -0.9103559E-03
 -0.5032318E-02  0.0000000E+00 -0.5050505E-02 -0.5289450E-09  0.0000000E+00 -0.9103561E-03
 -0.5022454E-02  0.0000000E+00 -0.5050505E-02 -0.5805801E-09  0.0000000E+00 -0.9103564E-03
 -0.5012589E-02  0.0000000E+00 -0.5050505E-02 -0.6354898E-09  0.0000000E+00 -0.9103566E-03
 -0.5002725E-02  0.0000000E+00 -0.5050505E-02 -0.6939437E-09  0.0000000E+00 -0.9103569E-03
 -0.4992860E-02  0.0000000E+00 -0.5050505E-02 -0.7567425E-09  0.0000000E+00 -0.9103573E-03
 -0.4976523E-02  0.0000000E+00 -0.5050505E-02 -0.8248606E-09  0.0000000E+00 -0.9103576E-03
 -0.4956794E-02  0.0000000E+00 -0.5050505E-02 -0.8992035E-09  0.0000000E+00 -0.9103580E-03
 -0.4937066E-02  0.0000000E+00 -0.5050505E-02 -0.9805193E-09  0.0000000E+00 -0.9103584E-03
 -0.4906239E-02  0.0000000E+00 -0.5050505E-02 -0.1069425E-08  0.0000000E+00 -0.9103588E-03
 -0.4866782E-02  0.0000000E+00 -0.5050505E-02 -0.1166483E-08  0.0000000E+00 -0.9103593E-03
 -0.4827325E-02  0.0000000E+00 -0.5050505E-02 -0.1272277E-08  0.0000000E+00 -0.9103599E-03
 -0.4769372E-02  0.0000000E+00 -0.5050505E-02 -0.1387471E-08  0.0000000E+00 -0.9103604E-03
 -0.4690458E-02  0.0000000E+00 -0.5050505E-02 -0.1512837E-08  0.0000000E+00 -0.9103611E-03
 -0.4611543E-02  0.0000000E+00 -0.5050505E-02 -0.1649268E-08  0.0000000E+00 -0.9103618E-03
 -0.4503035E-02  0.0000000E+00 -0.5050505E-02 -0.1797780E-08  0.0000000E+00 -0.9103625E-03
 -0.4345206E-02  0.0000000E+00 -0.5050505E-02 -0.1959509E-08  0.0000000E+00 -0.9103634E-03
 -0.4187378E-02  0.0000000E+00 -0.5050505E-02 -0.2135711E-08  0.0000000E+00 -0.9103642E-03
 -0.3985156E-02  0.0000000E+00 -0.5050505E-02 -0.2327767E-08  0.0000000E+00 -0.9103652E-03
 -0.3669499E-02  0.0000000E+00 -0.5050505E-02 -0.2537191E-08  0.0000000E+00 -0.9103663E-03
 -0.3353842E-02  0.0000000E+00 -0.5050505E-02 -0.2765641E-08  0.0000000E+00 -0.9103674E-03
 -0.2978990E-02  0.0000000E+00 -0.5050505E-02 -0.3014939E-08  0.0000000E+00 -0.9103687E-03
 -0.2347676E-02  0.0000000E+00 -0.5050505E-02 -0.3287085E-08  0.0000000E+00 -0.9103701E-03
 -0.1716362E-02  0.0000000E+00 -0.5050505E-02 -0.3584282E-08  0.0000000E+00 -0.9103716E-03
 -0.1025842E-02  0.0000000E+00 -0.5050505E-02 -0.3908960E-08  0.0000000E+00 -0.9103732E-03
  0.2367855E-03  0.0000000E+00 -0.5050505E-02 -0.4263808E-08  0.0000000E+00 -0.9103750E-03
  0.1499413E-02  0.0000000E+00 -0.5050505E-02 -0.4651798E-08  0.0000000E+00 -0.9103770E-03
  0.2762042E-02  0.0000000E+00 -0.5050505E-02 -0.5076231E-08  0.0000000E+00 -0.9103791E-03
 -0.5050505E-02  0.0000000E+00 -0.5050505E-02 -0.5540772E-08  0.0000000E+00 -0.9103814E-03
 -0.5050505E-02  0.0000000E+00 -0.5050505E-02 -0.6049505E-08  0.0000000E+00 -0.9103839E-03
 -0.5050505E-02  0.0000000E+00 -0.5050505E-02 -0.6606981E-08  0.0000000E+00 -0.9103867E-03
 -0.5050505E-02  0.0000000E+00 -0.5050505E-02 -0.7218293E-08  0.0000000E+00 -0.9103897E-03
 -0.5050505E-02  0.0000000E+00 -0.5050505E-02 -0.7889144E-08  0.0000000E+00 -0.9103930E-03
 -0.5050505E-02  0.0000000E+00 -0.5050505E-02 -0.8625941E-08  0.0000000E+00 -0.9103965E-03
 -0.5050505E-02  0.0000000E+00 -0.5050505E-02 -0.9435901E-08  0.0000000E+00 -0.9104005E-03
 -0.5050504E-02  0.0000000E+00 -0.5050505E-02 -0.1032718E-07  0.0000000E+00 -0.9104048E-03
 -0.5050501E-02  0.0000000E+00 -0.5050505E-02 -0.1130900E-07  0.0000000E+00 -0.9104095E-03
 -0.5050495E-02  0.0000000E+00 -0.5050505E-02 -0.1239186E-07  0.0000000E+00 -0.9104146E-03
 -0.5050482E-02  0.0000000E+00 -0.5050505E-02 -0.1358773E-07  0.0000000E+00 -0.9104202E-03
 -0.5050449E-02  0.0000000E+00 -0.5050505E-02 -0.1491032E-07  0.0000000E+00 -0.9104264E-03
 -0.5050376E-02  0.0000000E+00 -0.5050505E-02 -0.1637536E-07  0.0000000E+00 -0.9104332E-03
 -0.5050299E-02  0.0000000E+00 -0.5050505E-02 -0.1800103E-07  0.0000000E+00 -0.9104406E-03
 -0.5050178E-02  0.0000000E+00 -0.5050505E-02 -0.1980841E-07  0.0000000E+00 -0.9104487E-03
 -0.5050018E-02  0.0000000E+00 -0.5050505E-02 -0.2182203E-07  0.0000000E+00 -0.9104577E-03
 -0.5049710E-02  0.0000000E+00 -0.5050505E-02 -0.2407061E-07  0.0000000E+00 -0.9104676E-03
 -0.5049253E-02  0.0000000E+00 -0.5050505E-02 -0.2658795E-07  0.0000000E+00 -0.9104785E-03
 -0.5048636E-02  0.0000000E+00 -0.5050505E-02 -0.2941403E-07  0.0000000E+00 -0.9104905E-03
 -0.5047442E-02  0.0000000E+00 -0.5050505E-02 -0.3259645E-07  0.0000000E+00 -0.9105039E-03
 -0.5045727E-02  0.0000000E+00 -0.5050505E-02 -0.3619215E-07  0.0000000E+00 -0.9105186E-03
 -0.5043261E-02  0.0000000E+00 -0.5050505E-02 -0.4026978E-07  0.0000000E+00 -0.9105350E-03
 -0.5038714E-02  0.0000000E+00 -0.5050505E-02 -0.4491264E-07  0.0000000E+00 -0.9105531E-03
 -0.5032318E-02  0.0000000E+00 -0.5050505E-02 -0.5022256E-07  0.0000000E+00 -0.9105734E-03
 -0.5022454E-02  0.0000000E+00 -0.5050505E-02 -0.5632500E-07  0.0000000E+00 -0.9105961E-03
 -0.5012589E-02  0.0000000E+00 -0.5050505E-02 -0.6337589E-07  0.0000000E+00 -0.9106215E-03
 -0.5002725E-02  0.0000000E+00 -0.5050505E-02 -0.7157071E-07  0.0000000E+00 -0.9106500E-03
 -0.4992860E-02  0.0000000E+00 -0.5050505E-02 -0.8115696E-07  0.0000000E+00 -0.9106822E-03
 -0.4976523E-02  0.0000000E+00 -0.5050505E-02 -0.9245109E-07  0.0000000E+00 -0.9107186E-03
 -0.4956794E-02  0.0000000E+00 -0.5050505E-02 -0.1058623E-06  0.0000000E+00 -0.9107601E-03
 -0.4937066E-02  0.0000000E+00 -0.5050505E-02 -0.1219256E-06  0.0000000E+00 -0.9108075E-03
 -0.4906239E-02  0.0000000E+00 -0.5050505E-02 -0.1413499E-06  0.0000000E+00 -0.9108619E-03
 -0.4866782E-02  0.0000000E+00 -0.5050505E-02 -0.1650873E-06  0.0000000E+00 -0.9109248E-03
 -0.4827325E-02  0.0000000E+00 -0.5050505E-02 -0.1944357E-06  0.0000000E+00 -0.9109980E-03
 -0.4769372E-02  0.0000000E+00 -0.5050505E-02 -0.2311942E-06  0.0000000E+00 -0.9110837E-03
 -0.4690458E-02  0.0000000E+00 -0.5050505E-02 -0.2779016E-06  0.0000000E+00 -0.9111850E-03
 -0.4611543E-02  0.0000000E+00 -0.5050505E-02 -0.3382125E-06  0.0000000E+00 -0.9113056E-03
 -0.4503035E-02  0.0000000E+00 -0.5050505E-02 -0.4175026E-06  0.0000000E+00 -0.9114506E-03
 -0.4345206E-02  0.0000000E+00 -0.5050505E-02 -0.5238701E-06  0.0000000E+00 -0.9116266E-03
 -0.4187378E-02  0.0000000E+00 -0.5050505E-02 -0.6698372E-06  0.0000000E+00 -0.9118421E-03
 -0.3985156E-02  0.0000000E+00 -0.5050505E-02 -0.8753231E-06  0.0000000E+00 -0.9121079E-03
 -0.3669499E-02  0.0000000E+00 -0.5050505E-02 -0.1172983E-05  0.0000000E+00 -0.9124371E-03
 -0.3353842E-02  0.0000000E+00 -0.5050505E-02 -0.1618024E-05  0.0000000E+00 -0.9128416E-03
 -0.2978990E-02  0.0000000E+00 -0.5050505E-02 -0.2306531E-05  0.0000000E+00 -0.9133234E-03
 -0.2347676E-02  0.0000000E+00 -0.5050505E-02 -0.3409401E-05  0.0000000E+00 -0.9138417E-03
 -0.1716362E-02  0.0000000E+00 -0.5050505E-02 -0.5231357E-05  0.0000000E+00 -0.9142200E-03
 -0.1025842E-02  0.0000000E+00 -0.5050505E-02 -0.8290164E-05  0.0000000E+00 -0.9138828E-03
  0.2367855E-03  0.0000000E+00 -0.5050505E-02 -0.1329236E-04  0.0000000E+00 -0.9111999E-03
  0.1499413E-02  0.0000000E+00 -0.5050505E-02 -0.2022398E-04  0.0000000E+00 -0.9023539E-03
  0.5287294E-02  0.0000000E+00 -0.5050505E-02 -0.2253484E-04  0.0000000E+00 -0.8830026E-03
 -0.5050505E-02  0.0000000E+00 -0.5050505E-02 -0.9765896E-11  0.0000000E+00 -0.9027075E-03
 -0.5050505E-02  0.0000000E+00 -0.5050505E-02 -0.3295868E-10  0.0000000E+00 -0.9027075E-03
 -0.5050505E-02  0.0000000E+00 -0.5050505E-02 -0.5314725E-10  0.0000000E+00 -0.9027075E-03
 -0.5050505E-02  0.0000000E+00 -0.5050505E-02 -0.7167804E-10  0.0000000E+00 -0.9027075E-03
 -0.5050505E-02  0.0000000E+00 -0.5050505E-02 -0.9088167E-10  0.0000000E+00 -0.9027076E-03
 -0.5050505E-02  0.0000000E+00 -0.5050505E-02 -0.1092194E-09  0.0000000E+00 -0.9027076E-03
 -0.5050504E-02  0.0000000E+00 -0.5050505E-02 -0.1345202E-09  0.0000000E+00 -0.9027076E-03
 -0.5050501E-02  0.0000000E+00 -0.5050505E-02 -0.1585541E-09  0.0000000E+00 -0.9027077E-03
 -0.5050495E-02  0.0000000E+00 -0.5050505E-02 -0.1881883E-09  0.0000000E+00 -0.9027077E-03
 -0.5050482E-02  0.0000000E+00 -0.5050505E-02 -0.2151771E-09  0.0000000E+00 -0.9027078E-03
 -0.5050449E-02  0.0000000E+00 -0.5050505E-02 -0.2379763E-09  0.0000000E+00 -0.9027079E-03
 -0.5050376E-02  0.0000000E+00 -0.5050505E-02 -0.2576551E-09  0.0000000E+00 -0.9027079E-03
 -0.5050299E-02  0.0000000E+00 -0.5050505E-02 -0.2800615E-09  0.0000000E+00 -0.9027080E-03
 -0.5050178E-02  0.0000000E+00 -0.5050505E-02 -0.3124554E-09  0.0000000E+00 -0.9027081E-03
 -0.5050018E-02  0.0000000E+00 -0.5050505E-02 -0.3551279E-09  0.0000000E+00 -0.9027082E-03
 -0.5049710E-02  0.0000000E+00 -0.5050505E-02 -0.4011700E-09  0.0000000E+00 -0.9027083E-03
 -0.5049253E-02  0.0000000E+00 -0.5050505E-02 -0.4438674E-09  0.0000000E+00 -0.9027085E-03
 -0.5048636E-02  0.0000000E+00 -0.5050505E-02 -0.4822698E-09  0.0000000E+00 -0.9027086E-03
 -0.5047442E-02  0.0000000E+00 -0.5050505E-02 -0.5205514E-09  0.0000000E+00 -0.9027088E-03
 -0.5045727E-02  0.0000000E+00 -0.5050505E-02 -0.5639241E-09  0.0000000E+00 -0.9027089E-03
 -0.5043261E-02  0.0000000E+00 -0.5050505E-02 -0.6153934E-09  0.0000000E+00 -0.9027091E-03
 -0.5038714E-02  0.0000000E+00 -0.5050505E-02 -0.6751297E-09  0.0000000E+00 -0.9027093E-03
 -0.5032318E-02  0.0000000E+00 -0.5050505E-02 -0.7416953E-09  0.0000000E+00 -0.9027095E-03
 -0.5022454E-02  0.0000000E+00 -0.5050505E-02 -0.8136041E-09  0.0000000E+00 -0.9027098E-03
 -0.5012589E-02  0.0000000E+00 -0.5050505E-02 -0.8902447E-09  0.0000000E+00 -0.9027101E-03
 -0.5002725E-02  0.0000000E+00 -0.5050505E-02 -0.9720120E-09  0.0000000E+00 -0.9027103E-03
 -0.4992860E-02  0.0000000E+00 -0.5050505E-02 -0.1059965E-08  0.0000000E+00 -0.9027107E-03
 -0.4976523E-02  0.0000000E+00 -0.5050505E-02 -0.1155388E-08  0.0000000E+00 -0.9027110E-03
 -0.4956794E-02  0.0000000E+00 -0.5050505E-02 -0.1259491E-08  0.0000000E+00 -0.9027114E-03
 -0.4937066E-02  0.0000000E+00 -0.5050505E-02 -0.1373293E-08  0.0000000E+00 -0.9027118E-03