title = "dataset feddes"
variables = "x", "y", "z", "vx", "vy", "vz"
zone t = "velocities, solution time =  4.800E+01 days        " i =   99, j =   99, k =    1,  f=point
 -0.5050505E-02  0.0000000E+00 -0.5050505E-02  0.1638962E-08  0.0000000E+00 -0.2115520E-03
 -0.5050505E-02  0.0000000E+00 -0.5050505E-02  0.4913744E-08  0.0000000E+00 -0.2115453E-03
 -0.5050505E-02  0.0000000E+00 -0.5050505E-02  0.8179071E-08  0.0000000E+00 -0.2115318E-03
 -0.5050505E-02  0.0000000E+00 -0.5050505E-02  0.1142862E-07  0.0000000E+00 -0.2115117E-03
 -0.5050505E-02  0.0000000E+00 -0.5050505E-02  0.1465602E-07  0.0000000E+00 -0.2114850E-03
 -0.5050505E-02  0.0000000E+00 -0.5050505E-02  0.1785486E-07  0.0000000E+00 -0.2114516E-03
 -0.5050504E-02  0.0000000E+00 -0.5050505E-02  0.2101867E-07  0.0000000E+00 -0.2114118E-03
 -0.5050501E-02  0.0000000E+00 -0.5050505E-02  0.2414089E-07  0.0000000E+00 -0.2113655E-03
 -0.5050495E-02  0.0000000E+00 -0.5050505E-02  0.2721487E-07  0.0000000E+00 -0.2113128E-03
 -0.5050482E-02  0.0000000E+00 -0.5050505E-02  0.3023387E-07  0.0000000E+00 -0.2112539E-03
 -0.5050449E-02  0.0000000E+00 -0.5050505E-02  0.3319102E-07  0.0000000E+00 -0.2111888E-03
 -0.5050376E-02  0.0000000E+00 -0.5050505E-02  0.3607934E-07  0.0000000E+00 -0.2111178E-03
 -0.5050299E-02  0.0000000E+00 -0.5050505E-02  0.3889174E-07  0.0000000E+00 -0.2110409E-03
 -0.5050178E-02  0.0000000E+00 -0.5050505E-02  0.4162096E-07  0.0000000E+00 -0.2109584E-03
 -0.5050018E-02  0.0000000E+00 -0.5050505E-02  0.4425963E-07  0.0000000E+00 -0.2108703E-03
 -0.5049710E-02  0.0000000E+00 -0.5050505E-02  0.4680026E-07  0.0000000E+00 -0.2107769E-03
 -0.5049253E-02  0.0000000E+00 -0.5050505E-02  0.4923520E-07  0.0000000E+00 -0.2106784E-03
 -0.5048636E-02  0.0000000E+00 -0.5050505E-02  0.5155669E-07  0.0000000E+00 -0.2105751E-03
 -0.5047442E-02  0.0000000E+00 -0.5050505E-02  0.5375686E-07  0.0000000E+00 -0.2104671E-03
 -0.5045727E-02  0.0000000E+00 -0.5050505E-02  0.5582773E-07  0.0000000E+00 -0.2103547E-03
 -0.5043261E-02  0.0000000E+00 -0.5050505E-02  0.5776124E-07  0.0000000E+00 -0.2102382E-03
 -0.5038714E-02  0.0000000E+00 -0.5050505E-02  0.5954926E-07  0.0000000E+00 -0.2101180E-03
 -0.5032318E-02  0.0000000E+00 -0.5050505E-02  0.6118365E-07  0.0000000E+00 -0.2099942E-03
 -0.5022454E-02  0.0000000E+00 -0.5050505E-02  0.6265624E-07  0.0000000E+00 -0.2098672E-03
 -0.5012589E-02  0.0000000E+00 -0.5050505E-02  0.6395890E-07  0.0000000E+00 -0.2097374E-03
 -0.5002725E-02  0.0000000E+00 -0.5050505E-02  0.6508359E-07  0.0000000E+00 -0.2096051E-03
 -0.4992860E-02  0.0000000E+00 -0.5050505E-02  0.6602239E-07  0.0000000E+00 -0.2094706E-03
 -0.4976523E-02  0.0000000E+00 -0.5050505E-02  0.6676756E-07  0.0000000E+00 -0.2093345E-03
 -0.4956794E-02  0.0000000E+00 -0.5050505E-02  0.6731158E-07  0.0000000E+00 -0.2091970E-03
 -0.4937066E-02  0.0000000E+00 -0.5050505E-02  0.6764724E-07  0.0000000E+00 -0.2090586E-03
 -0.4906239E-02  0.0000000E+00 -0.5050505E-02  0.6776770E-07  0.0000000E+00 -0.2089198E-03
 -0.4866782E-02  0.0000000E+00 -0.5050505E-02  0.6766655E-07  0.0000000E+00 -0.2087810E-03
 -0.4827325E-02  0.0000000E+00 -0.5050505E-02  0.6733786E-07  0.0000000E+00 -0.2086426E-03
 -0.4769372E-02  0.0000000E+00 -0.5050505E-02  0.6677632E-07  0.0000000E+00 -0.2085051E-03
 -0.4690458E-02  0.0000000E+00 -0.5050505E-02  0.6597722E-07  0.0000000E+00 -0.2083690E-03
 -0.4611543E-02  0.0000000E+00 -0.5050505E-02  0.6493658E-07  0.0000000E+00 -0.2082348E-03
 -0.4503035E-02  0.0000000E+00 -0.5050505E-02  0.6365120E-07  0.0000000E+00 -0.2081029E-03
 -0.4345206E-02  0.0000000E+00 -0.5050505E-02  0.6211868E-07  0.0000000E+00 -0.2079740E-03
 -0.4187378E-02  0.0000000E+00 -0.5050505E-02  0.6033753E-07  0.0000000E+00 -0.2078485E-03
 -0.3985156E-02  0.0000000E+00 -0.5050505E-02  0.5830716E-07  0.0000000E+00 -0.2077269E-03
 -0.3669499E-02  0.0000000E+00 -0.5050505E-02  0.5602792E-07  0.0000000E+00 -0.2076097E-03
 -0.3353842E-02  0.0000000E+00 -0.5050505E-02  0.5350118E-07  0.0000000E+00 -0.2074974E-03
 -0.2978990E-02  0.0000000E+00 -0.5050505E-02  0.5072927E-07  0.0000000E+00 -0.2073905E-03
 -0.2347676E-02  0.0000000E+00 -0.5050505E-02  0.4771560E-07  0.0000000E+00 -0.2072896E-03
 -0.1716362E-02  0.0000000E+00 -0.5050505E-02  0.4446463E-07  0.0000000E+00 -0.2071951E-03
 -0.1025842E-02  0.0000000E+00 -0.5050505E-02  0.4098198E-07  0.0000000E+00 -0.2071076E-03
  0.2367855E-03  0.0000000E+00 -0.5050505E-02  0.3727448E-07  0.0000000E+00 -0.2070273E-03
  0.1499413E-02  0.0000000E+00 -0.5050505E-02  0.3335033E-07  0.0000000E+00 -0.2069549E-03
  0.2762042E-02  0.0000000E+00 -0.5050505E-02  0.2921923E-07  0.0000000E+00 -0.2068908E-03
 -0.5050505E-02  0.0000000E+00 -0.5050505E-02  0.2489265E-07  0.0000000E+00 -0.2068354E-03
 -0.5050505E-02  0.0000000E+00 -0.5050505E-02  0.2038409E-07  0.0000000E+00 -0.2067889E-03
 -0.5050505E-02  0.0000000E+00 -0.5050505E-02  0.1570939E-07  0.0000000E+00 -0.2067519E-03
 -0.5050505E-02  0.0000000E+00 -0.5050505E-02  0.1088711E-07  0.0000000E+00 -0.2067247E-03
 -0.5050505E-02  0.0000000E+00 -0.5050505E-02  0.5938905E-08  0.0000000E+00 -0.2067074E-03
 -0.5050505E-02  0.0000000E+00 -0.5050505E-02  0.8897850E-09  0.0000000E+00 -0.2067004E-03
 -0.5050505E-02  0.0000000E+00 -0.5050505E-02 -0.4231623E-08  0.0000000E+00 -0.2067039E-03
 -0.5050504E-02  0.0000000E+00 -0.5050505E-02 -0.9393035E-08  0.0000000E+00 -0.2067178E-03
 -0.5050501E-02  0.0000000E+00 -0.5050505E-02 -0.1455868E-07  0.0000000E+00 -0.2067424E-03
 -0.5050495E-02  0.0000000E+00 -0.5050505E-02 -0.1968973E-07  0.0000000E+00 -0.2067775E-03
 -0.5050482E-02  0.0000000E+00 -0.5050505E-02 -0.2474499E-07  0.0000000E+00 -0.2068230E-03
 -0.5050449E-02  0.0000000E+00 -0.5050505E-02 -0.2968194E-07  0.0000000E+00 -0.2068788E-03
 -0.5050376E-02  0.0000000E+00 -0.5050505E-02 -0.3445790E-07  0.0000000E+00 -0.2069446E-03
 -0.5050299E-02  0.0000000E+00 -0.5050505E-02 -0.3903145E-07  0.0000000E+00 -0.2070199E-03
 -0.5050178E-02  0.0000000E+00 -0.5050505E-02 -0.4336378E-07  0.0000000E+00 -0.2071043E-03
 -0.5050018E-02  0.0000000E+00 -0.5050505E-02 -0.4742000E-07  0.0000000E+00 -0.2071974E-03
 -0.5049710E-02  0.0000000E+00 -0.5050505E-02 -0.5117022E-07  0.0000000E+00 -0.2072985E-03
 -0.5049253E-02  0.0000000E+00 -0.5050505E-02 -0.5459035E-07  0.0000000E+00 -0.2074069E-03
 -0.5048636E-02  0.0000000E+00 -0.5050505E-02 -0.5766249E-07  0.0000000E+00 -0.2075219E-03
 -0.5047442E-02  0.0000000E+00 -0.5050505E-02 -0.6037512E-07  0.0000000E+00 -0.2076429E-03
 -0.5045727E-02  0.0000000E+00 -0.5050505E-02 -0.6272289E-07  0.0000000E+00 -0.2077691E-03
 -0.5043261E-02  0.0000000E+00 -0.5050505E-02 -0.6470624E-07  0.0000000E+00 -0.2078997E-03
 -0.5038714E-02  0.0000000E+00 -0.5050505E-02 -0.6633087E-07  0.0000000E+00 -0.2080341E-03
 -0.5032318E-02  0.0000000E+00 -0.5050505E-02 -0.6760726E-07  0.0000000E+00 -0.2081714E-03
 -0.5022454E-02  0.0000000E+00 -0.5050505E-02 -0.6855009E-07  0.0000000E+00 -0.2083110E-03
 -0.5012589E-02  0.0000000E+00 -0.5050505E-02 -0.6917795E-07  0.0000000E+00 -0.2084522E-03
 -0.5002725E-02  0.0000000E+00 -0.5050505E-02 -0.6951317E-07  0.0000000E+00 -0.2085943E-03
 -0.4992860E-02  0.0000000E+00 -0.5050505E-02 -0.6958195E-07  0.0000000E+00 -0.2087369E-03
 -0.4976523E-02  0.0000000E+00 -0.5050505E-02 -0.6941485E-07  0.0000000E+00 -0.2088794E-03
 -0.4956794E-02  0.0000000E+00 -0.5050505E-02 -0.6904780E-07  0.0000000E+00 -0.2090214E-03
 -0.4937066E-02  0.0000000E+00 -0.5050505E-02 -0.6852374E-07  0.0000000E+00 -0.2091624E-03
 -0.4906239E-02  0.0000000E+00 -0.5050505E-02 -0.6789519E-07  0.0000000E+00 -0.2093023E-03
 -0.4866782E-02  0.0000000E+00 -0.5050505E-02 -0.6722825E-07  0.0000000E+00 -0.2094408E-03
 -0.4827325E-02  0.0000000E+00 -0.5050505E-02 -0.6660868E-07  0.0000000E+00 -0.2095781E-03
 -0.4769372E-02  0.0000000E+00 -0.5050505E-02 -0.6615132E-07  0.0000000E+00 -0.2097142E-03
 -0.4690458E-02  0.0000000E+00 -0.5050505E-02 -0.6601522E-07  0.0000000E+00 -0.2098497E-03
 -0.4611543E-02  0.0000000E+00 -0.5050505E-02 -0.6642811E-07  0.0000000E+00 -0.2099855E-03
 -0.4503035E-02  0.0000000E+00 -0.5050505E-02 -0.6772771E-07  0.0000000E+00 -0.2101231E-03
 -0.4345206E-02  0.0000000E+00 -0.5050505E-02 -0.7043390E-07  0.0000000E+00 -0.2102647E-03
 -0.4187378E-02  0.0000000E+00 -0.5050505E-02 -0.7538014E-07  0.0000000E+00 -0.2104143E-03
 -0.3985156E-02  0.0000000E+00 -0.5050505E-02 -0.8396465E-07  0.0000000E+00 -0.2105776E-03
 -0.3669499E-02  0.0000000E+00 -0.5050505E-02 -0.9865858E-07  0.0000000E+00 -0.2107649E-03
 -0.3353842E-02  0.0000000E+00 -0.5050505E-02 -0.1241024E-06  0.0000000E+00 -0.2109933E-03
 -0.2978990E-02  0.0000000E+00 -0.5050505E-02 -0.1696560E-06  0.0000000E+00 -0.2112946E-03
 -0.2347676E-02  0.0000000E+00 -0.5050505E-02 -0.2558485E-06  0.0000000E+00 -0.2117310E-03
 -0.1716362E-02  0.0000000E+00 -0.5050505E-02 -0.4322586E-06  0.0000000E+00 -0.2124367E-03
 -0.1025842E-02  0.0000000E+00 -0.5050505E-02 -0.8320108E-06  0.0000000E+00 -0.2137334E-03
  0.2367855E-03  0.0000000E+00 -0.5050505E-02 -0.1853971E-05  0.0000000E+00 -0.2164888E-03
  0.1499413E-02  0.0000000E+00 -0.5050505E-02 -0.4825943E-05  0.0000000E+00 -0.2233439E-03
  0.5287294E-02  0.0000000E+00 -0.5050505E-02 -0.7878771E-04  0.0000000E+00 -0.1783126E-03
 -0.5050505E-02  0.0000000E+00 -0.5050505E-02  0.4923525E-08  0.0000000E+00 -0.2114341E-03
 -0.5050505E-02  0.0000000E+00 -0.5050505E-02  0.1476115E-07  0.0000000E+00 -0.2114273E-03
 -0.5050505E-02  0.0000000E+00 -0.5050505E-02  0.2457042E-07  0.0000000E+00 -0.2114138E-03
 -0.5050505E-02  0.0000000E+00 -0.5050505E-02  0.3433237E-07  0.0000000E+00 -0.2113936E-03
 -0.5050505E-02  0.0000000E+00 -0.5050505E-02  0.4402792E-07  0.0000000E+00 -0.2113666E-03
 -0.5050505E-02  0.0000000E+00 -0.5050505E-02  0.5363783E-07  0.0000000E+00 -0.2113331E-03
 -0.5050504E-02  0.0000000E+00 -0.5050505E-02  0.6314268E-07  0.0000000E+00 -0.2112930E-03
 -0.5050501E-02  0.0000000E+00 -0.5050505E-02  0.7252280E-07  0.0000000E+00 -0.2112463E-03
 -0.5050495E-02  0.0000000E+00 -0.5050505E-02  0.8175825E-07  0.0000000E+00 -0.2111933E-03
 -0.5050482E-02  0.0000000E+00 -0.5050505E-02  0.9082879E-07  0.0000000E+00 -0.2111340E-03
 -0.5050449E-02  0.0000000E+00 -0.5050505E-02  0.9971384E-07  0.0000000E+00 -0.2110686E-03
 -0.5050376E-02  0.0000000E+00 -0.5050505E-02  0.1083924E-06  0.0000000E+00 -0.2109971E-03
 -0.5050299E-02  0.0000000E+00 -0.5050505E-02  0.1168433E-06  0.0000000E+00 -0.2109197E-03
 -0.5050178E-02  0.0000000E+00 -0.5050505E-02  0.1250447E-06  0.0000000E+00 -0.2108366E-03
 -0.5050018E-02  0.0000000E+00 -0.5050505E-02  0.1329744E-06  0.0000000E+00 -0.2107479E-03
 -0.5049710E-02  0.0000000E+00 -0.5050505E-02  0.1406100E-06  0.0000000E+00 -0.2106539E-03
 -0.5049253E-02  0.0000000E+00 -0.5050505E-02  0.1479285E-06  0.0000000E+00 -0.2105547E-03
 -0.5048636E-02  0.0000000E+00 -0.5050505E-02  0.1549066E-06  0.0000000E+00 -0.2104507E-03
 -0.5047442E-02  0.0000000E+00 -0.5050505E-02  0.1615207E-06  0.0000000E+00 -0.2103419E-03
 -0.5045727E-02  0.0000000E+00 -0.5050505E-02  0.1677468E-06  0.0000000E+00 -0.2102288E-03
 -0.5043261E-02  0.0000000E+00 -0.5050505E-02  0.1735606E-06  0.0000000E+00 -0.2101115E-03
 -0.5038714E-02  0.0000000E+00 -0.5050505E-02  0.1789378E-06  0.0000000E+00 -0.2099903E-03
 -0.5032318E-02  0.0000000E+00 -0.5050505E-02  0.1838539E-06  0.0000000E+00 -0.2098656E-03
 -0.5022454E-02  0.0000000E+00 -0.5050505E-02  0.1882842E-06  0.0000000E+00 -0.2097377E-03
 -0.5012589E-02  0.0000000E+00 -0.5050505E-02  0.1922045E-06  0.0000000E+00 -0.2096069E-03
 -0.5002725E-02  0.0000000E+00 -0.5050505E-02  0.1955904E-06  0.0000000E+00 -0.2094736E-03
 -0.4992860E-02  0.0000000E+00 -0.5050505E-02  0.1984181E-06  0.0000000E+00 -0.2093382E-03
 -0.4976523E-02  0.0000000E+00 -0.5050505E-02  0.2006643E-06  0.0000000E+00 -0.2092010E-03
 -0.4956794E-02  0.0000000E+00 -0.5050505E-02  0.2023065E-06  0.0000000E+00 -0.2090624E-03
 -0.4937066E-02  0.0000000E+00 -0.5050505E-02  0.2033228E-06  0.0000000E+00 -0.2089230E-03
 -0.4906239E-02  0.0000000E+00 -0.5050505E-02  0.2036927E-06  0.0000000E+00 -0.2087830E-03
 -0.4866782E-02  0.0000000E+00 -0.5050505E-02  0.2033968E-06  0.0000000E+00 -0.2086430E-03
 -0.4827325E-02  0.0000000E+00 -0.5050505E-02  0.2024173E-06  0.0000000E+00 -0.2085035E-03
 -0.4769372E-02  0.0000000E+00 -0.5050505E-02  0.2007382E-06  0.0000000E+00 -0.2083648E-03
 -0.4690458E-02  0.0000000E+00 -0.5050505E-02  0.1983451E-06  0.0000000E+00 -0.2082276E-03
 -0.4611543E-02  0.0000000E+00 -0.5050505E-02  0.1952262E-06  0.0000000E+00 -0.2080922E-03
 -0.4503035E-02  0.0000000E+00 -0.5050505E-02  0.1913717E-06  0.0000000E+00 -0.2079592E-03
 -0.4345206E-02  0.0000000E+00 -0.5050505E-02  0.1867745E-06  0.0000000E+00 -0.2078291E-03
 -0.4187378E-02  0.0000000E+00 -0.5050505E-02  0.1814298E-06  0.0000000E+00 -0.2077024E-03
 -0.3985156E-02  0.0000000E+00 -0.5050505E-02  0.1753360E-06  0.0000000E+00 -0.2075797E-03
 -0.3669499E-02  0.0000000E+00 -0.5050505E-02  0.1684940E-06  0.0000000E+00 -0.2074614E-03
 -0.3353842E-02  0.0000000E+00 -0.5050505E-02  0.1609079E-06  0.0000000E+00 -0.2073480E-03
 -0.2978990E-02  0.0000000E+00 -0.5050505E-02  0.1525847E-06  0.0000000E+00 -0.2072401E-03
 -0.2347676E-02  0.0000000E+00 -0.5050505E-02  0.1435344E-06  0.0000000E+00 -0.2071381E-03
 -0.1716362E-02  0.0000000E+00 -0.5050505E-02  0.1337704E-06  0.0000000E+00 -0.2070426E-03
 -0.1025842E-02  0.0000000E+00 -0.5050505E-02  0.1233095E-06  0.0000000E+00 -0.2069541E-03
  0.2367855E-03  0.0000000E+00 -0.5050505E-02  0.1121719E-06  0.0000000E+00 -0.2068729E-03
  0.1499413E-02  0.0000000E+00 -0.5050505E-02  0.1003821E-06  0.0000000E+00 -0.2067997E-03
  0.2762042E-02  0.0000000E+00 -0.5050505E-02  0.8796883E-07  0.0000000E+00 -0.2067347E-03
 -0.5050505E-02  0.0000000E+00 -0.5050505E-02  0.7496623E-07  0.0000000E+00 -0.2066785E-03
 -0.5050505E-02  0.0000000E+00 -0.5050505E-02  0.6141440E-07  0.0000000E+00 -0.2066314E-03
 -0.5050505E-02  0.0000000E+00 -0.5050505E-02  0.4736051E-07  0.0000000E+00 -0.2065939E-03
 -0.5050505E-02  0.0000000E+00 -0.5050505E-02  0.3285988E-07  0.0000000E+00 -0.2065661E-03
 -0.5050505E-02  0.0000000E+00 -0.5050505E-02  0.1797711E-07  0.0000000E+00 -0.2065484E-03
 -0.5050505E-02  0.0000000E+00 -0.5050505E-02  0.2787084E-08  0.0000000E+00 -0.2065411E-03
 -0.5050505E-02  0.0000000E+00 -0.5050505E-02 -0.1262432E-07  0.0000000E+00 -0.2065444E-03
 -0.5050504E-02  0.0000000E+00 -0.5050505E-02 -0.2816000E-07  0.0000000E+00 -0.2065583E-03
 -0.5050501E-02  0.0000000E+00 -0.5050505E-02 -0.4371207E-07  0.0000000E+00 -0.2065829E-03
 -0.5050495E-02  0.0000000E+00 -0.5050505E-02 -0.5916312E-07  0.0000000E+00 -0.2066182E-03
 -0.5050482E-02  0.0000000E+00 -0.5050505E-02 -0.7438840E-07  0.0000000E+00 -0.2066641E-03
 -0.5050449E-02  0.0000000E+00 -0.5050505E-02 -0.8925881E-07  0.0000000E+00 -0.2067204E-03
 -0.5050376E-02  0.0000000E+00 -0.5050505E-02 -0.1036447E-06  0.0000000E+00 -0.2067868E-03
 -0.5050299E-02  0.0000000E+00 -0.5050505E-02 -0.1174202E-06  0.0000000E+00 -0.2068629E-03
 -0.5050178E-02  0.0000000E+00 -0.5050505E-02 -0.1304673E-06  0.0000000E+00 -0.2069483E-03
 -0.5050018E-02  0.0000000E+00 -0.5050505E-02 -0.1426800E-06  0.0000000E+00 -0.2070424E-03
 -0.5049710E-02  0.0000000E+00 -0.5050505E-02 -0.1539676E-06  0.0000000E+00 -0.2071446E-03
 -0.5049253E-02  0.0000000E+00 -0.5050505E-02 -0.1642573E-06  0.0000000E+00 -0.2072542E-03
 -0.5048636E-02  0.0000000E+00 -0.5050505E-02 -0.1734951E-06  0.0000000E+00 -0.2073706E-03
 -0.5047442E-02  0.0000000E+00 -0.5050505E-02 -0.1816466E-06  0.0000000E+00 -0.2074929E-03
 -0.5045727E-02  0.0000000E+00 -0.5050505E-02 -0.1886961E-06  0.0000000E+00 -0.2076205E-03
 -0.5043261E-02  0.0000000E+00 -0.5050505E-02 -0.1946454E-06  0.0000000E+00 -0.2077525E-03
 -0.5038714E-02  0.0000000E+00 -0.5050505E-02 -0.1995123E-06  0.0000000E+00 -0.2078882E-03
 -0.5032318E-02  0.0000000E+00 -0.5050505E-02 -0.2033287E-06  0.0000000E+00 -0.2080269E-03
 -0.5022454E-02  0.0000000E+00 -0.5050505E-02 -0.2061392E-06  0.0000000E+00 -0.2081678E-03
 -0.5012589E-02  0.0000000E+00 -0.5050505E-02 -0.2079998E-06  0.0000000E+00 -0.2083103E-03
 -0.5002725E-02  0.0000000E+00 -0.5050505E-02 -0.2089774E-06  0.0000000E+00 -0.2084538E-03
 -0.4992860E-02  0.0000000E+00 -0.5050505E-02 -0.2091502E-06  0.0000000E+00 -0.2085976E-03
 -0.4976523E-02  0.0000000E+00 -0.5050505E-02 -0.2086090E-06  0.0000000E+00 -0.2087412E-03
 -0.4956794E-02  0.0000000E+00 -0.5050505E-02 -0.2074600E-06  0.0000000E+00 -0.2088842E-03
 -0.4937066E-02  0.0000000E+00 -0.5050505E-02 -0.2058296E-06  0.0000000E+00 -0.2090261E-03
 -0.4906239E-02  0.0000000E+00 -0.5050505E-02 -0.2038713E-06  0.0000000E+00 -0.2091668E-03
 -0.4866782E-02  0.0000000E+00 -0.5050505E-02 -0.2017775E-06  0.0000000E+00 -0.2093059E-03
 -0.4827325E-02  0.0000000E+00 -0.5050505E-02 -0.1997959E-06  0.0000000E+00 -0.2094435E-03
 -0.4769372E-02  0.0000000E+00 -0.5050505E-02 -0.1982563E-06  0.0000000E+00 -0.2095798E-03
 -0.4690458E-02  0.0000000E+00 -0.5050505E-02 -0.1976115E-06  0.0000000E+00 -0.2097149E-03
 -0.4611543E-02  0.0000000E+00 -0.5050505E-02 -0.1985037E-06  0.0000000E+00 -0.2098498E-03
 -0.4503035E-02  0.0000000E+00 -0.5050505E-02 -0.2018748E-06  0.0000000E+00 -0.2099856E-03
 -0.4345206E-02  0.0000000E+00 -0.5050505E-02 -0.2091549E-06  0.0000000E+00 -0.2101240E-03
 -0.4187378E-02  0.0000000E+00 -0.5050505E-02 -0.2225967E-06  0.0000000E+00 -0.2102680E-03
 -0.3985156E-02  0.0000000E+00 -0.5050505E-02 -0.2458955E-06  0.0000000E+00 -0.2104220E-03
 -0.3669499E-02  0.0000000E+00 -0.5050505E-02 -0.2853879E-06  0.0000000E+00 -0.2105927E-03
 -0.3353842E-02  0.0000000E+00 -0.5050505E-02 -0.3524950E-06  0.0000000E+00 -0.2107905E-03
 -0.2978990E-02  0.0000000E+00 -0.5050505E-02 -0.4689779E-06  0.0000000E+00 -0.2110312E-03
 -0.2347676E-02  0.0000000E+00 -0.5050505E-02 -0.6789261E-06  0.0000000E+00 -0.2113367E-03
 -0.1716362E-02  0.0000000E+00 -0.5050505E-02 -0.1077788E-05  0.0000000E+00 -0.2117287E-03
 -0.1025842E-02  0.0000000E+00 -0.5050505E-02 -0.1886885E-05  0.0000000E+00 -0.2121793E-03
  0.2367855E-03  0.0000000E+00 -0.5050505E-02 -0.3654978E-05  0.0000000E+00 -0.2123609E-03
  0.1499413E-02  0.0000000E+00 -0.5050505E-02 -0.7826806E-05  0.0000000E+00 -0.2104564E-03
  0.5287294E-02  0.0000000E+00 -0.5050505E-02 -0.1838684E-04  0.0000000E+00 -0.1975922E-03
 -0.5050505E-02  0.0000000E+00 -0.5050505E-02  0.8231618E-08  0.0000000E+00 -0.2112015E-03
 -0.5050505E-02  0.0000000E+00 -0.5050505E-02  0.2467914E-07  0.0000000E+00 -0.2111947E-03
 -0.5050505E-02  0.0000000E+00 -0.5050505E-02  0.4107945E-07  0.0000000E+00 -0.2111810E-03
 -0.5050505E-02  0.0000000E+00 -0.5050505E-02  0.5740091E-07  0.0000000E+00 -0.2111605E-03
 -0.5050505E-02  0.0000000E+00 -0.5050505E-02  0.7361174E-07  0.0000000E+00 -0.2111332E-03
 -0.5050505E-02  0.0000000E+00 -0.5050505E-02  0.8967990E-07  0.0000000E+00 -0.2110993E-03
 -0.5050504E-02  0.0000000E+00 -0.5050505E-02  0.1055730E-06  0.0000000E+00 -0.2110586E-03
 -0.5050501E-02  0.0000000E+00 -0.5050505E-02  0.1212583E-06  0.0000000E+00 -0.2110114E-03
 -0.5050495E-02  0.0000000E+00 -0.5050505E-02  0.1367025E-06  0.0000000E+00 -0.2109577E-03
 -0.5050482E-02  0.0000000E+00 -0.5050505E-02  0.1518719E-06  0.0000000E+00 -0.2108977E-03
 -0.5050449E-02  0.0000000E+00 -0.5050505E-02  0.1667321E-06  0.0000000E+00 -0.2108313E-03
 -0.5050376E-02  0.0000000E+00 -0.5050505E-02  0.1812483E-06  0.0000000E+00 -0.2107589E-03
 -0.5050299E-02  0.0000000E+00 -0.5050505E-02  0.1953848E-06  0.0000000E+00 -0.2106805E-03
 -0.5050178E-02  0.0000000E+00 -0.5050505E-02  0.2091054E-06  0.0000000E+00 -0.2105963E-03
 -0.5050018E-02  0.0000000E+00 -0.5050505E-02  0.2223732E-06  0.0000000E+00 -0.2105064E-03
 -0.5049710E-02  0.0000000E+00 -0.5050505E-02  0.2351505E-06  0.0000000E+00 -0.2104112E-03
 -0.5049253E-02  0.0000000E+00 -0.5050505E-02  0.2473991E-06  0.0000000E+00 -0.2103107E-03
 -0.5048636E-02  0.0000000E+00 -0.5050505E-02  0.2590799E-06  0.0000000E+00 -0.2102052E-03
 -0.5047442E-02  0.0000000E+00 -0.5050505E-02  0.2701535E-06  0.0000000E+00 -0.2100950E-03
 -0.5045727E-02  0.0000000E+00 -0.5050505E-02  0.2805798E-06  0.0000000E+00 -0.2099802E-03
 -0.5043261E-02  0.0000000E+00 -0.5050505E-02  0.2903183E-06  0.0000000E+00 -0.2098613E-03
 -0.5038714E-02  0.0000000E+00 -0.5050505E-02  0.2993280E-06  0.0000000E+00 -0.2097384E-03
 -0.5032318E-02  0.0000000E+00 -0.5050505E-02  0.3075681E-06  0.0000000E+00 -0.2096119E-03
 -0.5022454E-02  0.0000000E+00 -0.5050505E-02  0.3149974E-06  0.0000000E+00 -0.2094822E-03
 -0.5012589E-02  0.0000000E+00 -0.5050505E-02  0.3215749E-06  0.0000000E+00 -0.2093495E-03
 -0.5002725E-02  0.0000000E+00 -0.5050505E-02  0.3272600E-06  0.0000000E+00 -0.2092142E-03
 -0.4992860E-02  0.0000000E+00 -0.5050505E-02  0.3320128E-06  0.0000000E+00 -0.2090767E-03
 -0.4976523E-02  0.0000000E+00 -0.5050505E-02  0.3357942E-06  0.0000000E+00 -0.2089374E-03
 -0.4956794E-02  0.0000000E+00 -0.5050505E-02  0.3385660E-06  0.0000000E+00 -0.2087967E-03
 -0.4937066E-02  0.0000000E+00 -0.5050505E-02  0.3402919E-06  0.0000000E+00 -0.2086551E-03
 -0.4906239E-02  0.0000000E+00 -0.5050505E-02  0.3409372E-06  0.0000000E+00 -0.2085129E-03
 -0.4866782E-02  0.0000000E+00 -0.5050505E-02  0.3404693E-06  0.0000000E+00 -0.2083707E-03
 -0.4827325E-02  0.0000000E+00 -0.5050505E-02  0.3388581E-06  0.0000000E+00 -0.2082288E-03
 -0.4769372E-02  0.0000000E+00 -0.5050505E-02  0.3360766E-06  0.0000000E+00 -0.2080879E-03
 -0.4690458E-02  0.0000000E+00 -0.5050505E-02  0.3321009E-06  0.0000000E+00 -0.2079483E-03
 -0.4611543E-02  0.0000000E+00 -0.5050505E-02  0.3269106E-06  0.0000000E+00 -0.2078106E-03
 -0.4503035E-02  0.0000000E+00 -0.5050505E-02  0.3204893E-06  0.0000000E+00 -0.2076753E-03
 -0.4345206E-02  0.0000000E+00 -0.5050505E-02  0.3128248E-06  0.0000000E+00 -0.2075429E-03
 -0.4187378E-02  0.0000000E+00 -0.5050505E-02  0.3039092E-06  0.0000000E+00 -0.2074139E-03
 -0.3985156E-02  0.0000000E+00 -0.5050505E-02  0.2937394E-06  0.0000000E+00 -0.2072889E-03
 -0.3669499E-02  0.0000000E+00 -0.5050505E-02  0.2823170E-06  0.0000000E+00 -0.2071683E-03
 -0.3353842E-02  0.0000000E+00 -0.5050505E-02  0.2696485E-06  0.0000000E+00 -0.2070528E-03
 -0.2978990E-02  0.0000000E+00 -0.5050505E-02  0.2557453E-06  0.0000000E+00 -0.2069427E-03
 -0.2347676E-02  0.0000000E+00 -0.5050505E-02  0.2406242E-06  0.0000000E+00 -0.2068387E-03
 -0.1716362E-02  0.0000000E+00 -0.5050505E-02  0.2243070E-06  0.0000000E+00 -0.2067412E-03
 -0.1025842E-02  0.0000000E+00 -0.5050505E-02  0.2068214E-06  0.0000000E+00 -0.2066507E-03
  0.2367855E-03  0.0000000E+00 -0.5050505E-02  0.1882006E-06  0.0000000E+00 -0.2065677E-03
  0.1499413E-02  0.0000000E+00 -0.5050505E-02  0.1684845E-06  0.0000000E+00 -0.2064927E-03
  0.2762042E-02  0.0000000E+00 -0.5050505E-02  0.1477204E-06  0.0000000E+00 -0.2064262E-03
 -0.5050505E-02  0.0000000E+00 -0.5050505E-02  0.1259640E-06  0.0000000E+00 -0.2063685E-03
 -0.5050505E-02  0.0000000E+00 -0.5050505E-02  0.1032809E-06  0.0000000E+00 -0.2063200E-03
 -0.5050505E-02  0.0000000E+00 -0.5050505E-02  0.7974840E-07  0.0000000E+00 -0.2062812E-03
 -0.5050505E-02  0.0000000E+00 -0.5050505E-02  0.5545753E-07  0.0000000E+00 -0.2062525E-03
 -0.5050505E-02  0.0000000E+00 -0.5050505E-02  0.3051486E-07  0.0000000E+00 -0.2062340E-03
 -0.5050505E-02  0.0000000E+00 -0.5050505E-02  0.5044563E-08  0.0000000E+00 -0.2062261E-03
 -0.5050505E-02  0.0000000E+00 -0.5050505E-02 -0.2081021E-07  0.0000000E+00 -0.2062289E-03
 -0.5050504E-02  0.0000000E+00 -0.5050505E-02 -0.4688672E-07  0.0000000E+00 -0.2062427E-03
 -0.5050501E-02  0.0000000E+00 -0.5050505E-02 -0.7300319E-07  0.0000000E+00 -0.2062675E-03
 -0.5050495E-02  0.0000000E+00 -0.5050505E-02 -0.9896086E-07  0.0000000E+00 -0.2063032E-03
 -0.5050482E-02  0.0000000E+00 -0.5050505E-02 -0.1245476E-06  0.0000000E+00 -0.2063498E-03
 -0.5050449E-02  0.0000000E+00 -0.5050505E-02 -0.1495430E-06  0.0000000E+00 -0.2064071E-03
 -0.5050376E-02  0.0000000E+00 -0.5050505E-02 -0.1737256E-06  0.0000000E+00 -0.2064748E-03
 -0.5050299E-02  0.0000000E+00 -0.5050505E-02 -0.1968794E-06  0.0000000E+00 -0.2065525E-03
 -0.5050178E-02  0.0000000E+00 -0.5050505E-02 -0.2188026E-06  0.0000000E+00 -0.2066398E-03
 -0.5050018E-02  0.0000000E+00 -0.5050505E-02 -0.2393139E-06  0.0000000E+00 -0.2067359E-03
 -0.5049710E-02  0.0000000E+00 -0.5050505E-02 -0.2582588E-06  0.0000000E+00 -0.2068404E-03
 -0.5049253E-02  0.0000000E+00 -0.5050505E-02 -0.2755137E-06  0.0000000E+00 -0.2069525E-03
 -0.5048636E-02  0.0000000E+00 -0.5050505E-02 -0.2909881E-06  0.0000000E+00 -0.2070714E-03
 -0.5047442E-02  0.0000000E+00 -0.5050505E-02 -0.3046248E-06  0.0000000E+00 -0.2071965E-03
 -0.5045727E-02  0.0000000E+00 -0.5050505E-02 -0.3163991E-06  0.0000000E+00 -0.2073268E-03
 -0.5043261E-02  0.0000000E+00 -0.5050505E-02 -0.3263159E-06  0.0000000E+00 -0.2074616E-03
 -0.5038714E-02  0.0000000E+00 -0.5050505E-02 -0.3344070E-06  0.0000000E+00 -0.2076001E-03
 -0.5032318E-02  0.0000000E+00 -0.5050505E-02 -0.3407275E-06  0.0000000E+00 -0.2077415E-03
 -0.5022454E-02  0.0000000E+00 -0.5050505E-02 -0.3453533E-06  0.0000000E+00 -0.2078851E-03
 -0.5012589E-02  0.0000000E+00 -0.5050505E-02 -0.3483788E-06  0.0000000E+00 -0.2080303E-03
 -0.5002725E-02  0.0000000E+00 -0.5050505E-02 -0.3499156E-06  0.0000000E+00 -0.2081762E-03
 -0.4992860E-02  0.0000000E+00 -0.5050505E-02 -0.3500927E-06  0.0000000E+00 -0.2083224E-03
 -0.4976523E-02  0.0000000E+00 -0.5050505E-02 -0.3490589E-06  0.0000000E+00 -0.2084683E-03
 -0.4956794E-02  0.0000000E+00 -0.5050505E-02 -0.3469862E-06  0.0000000E+00 -0.2086134E-03
 -0.4937066E-02  0.0000000E+00 -0.5050505E-02 -0.3440772E-06  0.0000000E+00 -0.2087572E-03
 -0.4906239E-02  0.0000000E+00 -0.5050505E-02 -0.3405759E-06  0.0000000E+00 -0.2088994E-03
 -0.4866782E-02  0.0000000E+00 -0.5050505E-02 -0.3367840E-06  0.0000000E+00 -0.2090398E-03
 -0.4827325E-02  0.0000000E+00 -0.5050505E-02 -0.3330856E-06  0.0000000E+00 -0.2091783E-03
 -0.4769372E-02  0.0000000E+00 -0.5050505E-02 -0.3299844E-06  0.0000000E+00 -0.2093148E-03
 -0.4690458E-02  0.0000000E+00 -0.5050505E-02 -0.3281615E-06  0.0000000E+00 -0.2094495E-03
 -0.4611543E-02  0.0000000E+00 -0.5050505E-02 -0.3285650E-06  0.0000000E+00 -0.2095828E-03
 -0.4503035E-02  0.0000000E+00 -0.5050505E-02 -0.3325555E-06  0.0000000E+00 -0.2097154E-03
 -0.4345206E-02  0.0000000E+00 -0.5050505E-02 -0.3421436E-06  0.0000000E+00 -0.2098483E-03
 -0.4187378E-02  0.0000000E+00 -0.5050505E-02 -0.3603927E-06  0.0000000E+00 -0.2099829E-03
 -0.3985156E-02  0.0000000E+00 -0.5050505E-02 -0.3921172E-06  0.0000000E+00 -0.2101213E-03
 -0.3669499E-02  0.0000000E+00 -0.5050505E-02 -0.4451237E-06  0.0000000E+00 -0.2102657E-03
 -0.3353842E-02  0.0000000E+00 -0.5050505E-02 -0.5324635E-06  0.0000000E+00 -0.2104178E-03
 -0.2978990E-02  0.0000000E+00 -0.5050505E-02 -0.6765619E-06  0.0000000E+00 -0.2105767E-03
 -0.2347676E-02  0.0000000E+00 -0.5050505E-02 -0.9166673E-06  0.0000000E+00 -0.2107308E-03
 -0.1716362E-02  0.0000000E+00 -0.5050505E-02 -0.1321248E-05  0.0000000E+00 -0.2108370E-03
 -0.1025842E-02  0.0000000E+00 -0.5050505E-02 -0.2002889E-05  0.0000000E+00 -0.2107633E-03
  0.2367855E-03  0.0000000E+00 -0.5050505E-02 -0.3105199E-05  0.0000000E+00 -0.2101530E-03
  0.1499413E-02  0.0000000E+00 -0.5050505E-02 -0.4587185E-05  0.0000000E+00 -0.2082095E-03
  0.5287294E-02  0.0000000E+00 -0.5050505E-02 -0.4954694E-05  0.0000000E+00 -0.2041076E-03
 -0.5050505E-02  0.0000000E+00 -0.5050505E-02  0.1158364E-07  0.0000000E+00 -0.2108576E-03
 -0.5050505E-02  0.0000000E+00 -0.5050505E-02  0.3472892E-07  0.0000000E+00 -0.2108506E-03
 -0.5050505E-02  0.0000000E+00 -0.5050505E-02  0.5780810E-07  0.0000000E+00 -0.2108367E-03
 -0.5050505E-02  0.0000000E+00 -0.5050505E-02  0.8077692E-07  0.0000000E+00 -0.2108158E-03
 -0.5050505E-02  0.0000000E+00 -0.5050505E-02  0.1035909E-06  0.0000000E+00 -0.2107880E-03
 -0.5050505E-02  0.0000000E+00 -0.5050505E-02  0.1262051E-06  0.0000000E+00 -0.2107534E-03
 -0.5050504E-02  0.0000000E+00 -0.5050505E-02  0.1485743E-06  0.0000000E+00 -0.2107120E-03
 -0.5050501E-02  0.0000000E+00 -0.5050505E-02  0.1706524E-06  0.0000000E+00 -0.2106639E-03
 -0.5050495E-02  0.0000000E+00 -0.5050505E-02  0.1923930E-06  0.0000000E+00 -0.2106092E-03
 -0.5050482E-02  0.0000000E+00 -0.5050505E-02  0.2137488E-06  0.0000000E+00 -0.2105480E-03
 -0.5050449E-02  0.0000000E+00 -0.5050505E-02  0.2346716E-06  0.0000000E+00 -0.2104804E-03
 -0.5050376E-02  0.0000000E+00 -0.5050505E-02  0.2551125E-06  0.0000000E+00 -0.2104066E-03
 -0.5050299E-02  0.0000000E+00 -0.5050505E-02  0.2750215E-06  0.0000000E+00 -0.2103266E-03
 -0.5050178E-02  0.0000000E+00 -0.5050505E-02  0.2943478E-06  0.0000000E+00 -0.2102408E-03
 -0.5050018E-02  0.0000000E+00 -0.5050505E-02  0.3130396E-06  0.0000000E+00 -0.2101492E-03
 -0.5049710E-02  0.0000000E+00 -0.5050505E-02  0.3310439E-06  0.0000000E+00 -0.2100520E-03
 -0.5049253E-02  0.0000000E+00 -0.5050505E-02  0.3483071E-06  0.0000000E+00 -0.2099495E-03
 -0.5048636E-02  0.0000000E+00 -0.5050505E-02  0.3647742E-06  0.0000000E+00 -0.2098419E-03
 -0.5047442E-02  0.0000000E+00 -0.5050505E-02  0.3803899E-06  0.0000000E+00 -0.2097295E-03
 -0.5045727E-02  0.0000000E+00 -0.5050505E-02  0.3950975E-06  0.0000000E+00 -0.2096124E-03
 -0.5043261E-02  0.0000000E+00 -0.5050505E-02  0.4088402E-06  0.0000000E+00 -0.2094910E-03
 -0.5038714E-02  0.0000000E+00 -0.5050505E-02  0.4215603E-06  0.0000000E+00 -0.2093656E-03
 -0.5032318E-02  0.0000000E+00 -0.5050505E-02  0.4332000E-06  0.0000000E+00 -0.2092364E-03
 -0.5022454E-02  0.0000000E+00 -0.5050505E-02  0.4437013E-06  0.0000000E+00 -0.2091039E-03
 -0.5012589E-02  0.0000000E+00 -0.5050505E-02  0.4530063E-06  0.0000000E+00 -0.2089683E-03
 -0.5002725E-02  0.0000000E+00 -0.5050505E-02  0.4610578E-06  0.0000000E+00 -0.2088300E-03
 -0.4992860E-02  0.0000000E+00 -0.5050505E-02  0.4677990E-06  0.0000000E+00 -0.2086895E-03
 -0.4976523E-02  0.0000000E+00 -0.5050505E-02  0.4731747E-06  0.0000000E+00 -0.2085471E-03
 -0.4956794E-02  0.0000000E+00 -0.5050505E-02  0.4771310E-06  0.0000000E+00 -0.2084032E-03
 -0.4937066E-02  0.0000000E+00 -0.5050505E-02  0.4796161E-06  0.0000000E+00 -0.2082583E-03