title = "dataset feddes"
variables = "x", "y", "z", "vx", "vy", "vz"
zone t = "velocities, solution time =  5.200E+01 days        " i =   99, j =   99, k =    1,  f=point
 -0.5050505E-02  0.0000000E+00 -0.5050505E-02  0.3707028E-08  0.0000000E+00 -0.1887020E-03
 -0.5050505E-02  0.0000000E+00 -0.5050505E-02  0.1111677E-07  0.0000000E+00 -0.1886868E-03
 -0.5050505E-02  0.0000000E+00 -0.5050505E-02  0.1851353E-07  0.0000000E+00 -0.1886565E-03
 -0.5050505E-02  0.0000000E+00 -0.5050505E-02  0.2588857E-07  0.0000000E+00 -0.1886111E-03
 -0.5050505E-02  0.0000000E+00 -0.5050505E-02  0.3323305E-07  0.0000000E+00 -0.1885506E-03
 -0.5050505E-02  0.0000000E+00 -0.5050505E-02  0.4053795E-07  0.0000000E+00 -0.1884752E-03
 -0.5050504E-02  0.0000000E+00 -0.5050505E-02  0.4779401E-07  0.0000000E+00 -0.1883848E-03
 -0.5050501E-02  0.0000000E+00 -0.5050505E-02  0.5499169E-07  0.0000000E+00 -0.1882797E-03
 -0.5050495E-02  0.0000000E+00 -0.5050505E-02  0.6212111E-07  0.0000000E+00 -0.1881599E-03
 -0.5050482E-02  0.0000000E+00 -0.5050505E-02  0.6917198E-07  0.0000000E+00 -0.1880256E-03
 -0.5050449E-02  0.0000000E+00 -0.5050505E-02  0.7613352E-07  0.0000000E+00 -0.1878770E-03
 -0.5050376E-02  0.0000000E+00 -0.5050505E-02  0.8299445E-07  0.0000000E+00 -0.1877143E-03
 -0.5050299E-02  0.0000000E+00 -0.5050505E-02  0.8974283E-07  0.0000000E+00 -0.1875376E-03
 -0.5050178E-02  0.0000000E+00 -0.5050505E-02  0.9636608E-07  0.0000000E+00 -0.1873473E-03
 -0.5050018E-02  0.0000000E+00 -0.5050505E-02  0.1028509E-06  0.0000000E+00 -0.1871436E-03
 -0.5049710E-02  0.0000000E+00 -0.5050505E-02  0.1091830E-06  0.0000000E+00 -0.1869267E-03
 -0.5049253E-02  0.0000000E+00 -0.5050505E-02  0.1153474E-06  0.0000000E+00 -0.1866971E-03
 -0.5048636E-02  0.0000000E+00 -0.5050505E-02  0.1213280E-06  0.0000000E+00 -0.1864551E-03
 -0.5047442E-02  0.0000000E+00 -0.5050505E-02  0.1271078E-06  0.0000000E+00 -0.1862011E-03
 -0.5045727E-02  0.0000000E+00 -0.5050505E-02  0.1326686E-06  0.0000000E+00 -0.1859355E-03
 -0.5043261E-02  0.0000000E+00 -0.5050505E-02  0.1379911E-06  0.0000000E+00 -0.1856587E-03
 -0.5038714E-02  0.0000000E+00 -0.5050505E-02  0.1430548E-06  0.0000000E+00 -0.1853714E-03
 -0.5032318E-02  0.0000000E+00 -0.5050505E-02  0.1478382E-06  0.0000000E+00 -0.1850740E-03
 -0.5022454E-02  0.0000000E+00 -0.5050505E-02  0.1523185E-06  0.0000000E+00 -0.1847671E-03
 -0.5012589E-02  0.0000000E+00 -0.5050505E-02  0.1564719E-06  0.0000000E+00 -0.1844514E-03
 -0.5002725E-02  0.0000000E+00 -0.5050505E-02  0.1602735E-06  0.0000000E+00 -0.1841276E-03
 -0.4992860E-02  0.0000000E+00 -0.5050505E-02  0.1636977E-06  0.0000000E+00 -0.1837964E-03
 -0.4976523E-02  0.0000000E+00 -0.5050505E-02  0.1667181E-06  0.0000000E+00 -0.1834587E-03
 -0.4956794E-02  0.0000000E+00 -0.5050505E-02  0.1693081E-06  0.0000000E+00 -0.1831152E-03
 -0.4937066E-02  0.0000000E+00 -0.5050505E-02  0.1714408E-06  0.0000000E+00 -0.1827669E-03
 -0.4906239E-02  0.0000000E+00 -0.5050505E-02  0.1730898E-06  0.0000000E+00 -0.1824148E-03
 -0.4866782E-02  0.0000000E+00 -0.5050505E-02  0.1742293E-06  0.0000000E+00 -0.1820598E-03
 -0.4827325E-02  0.0000000E+00 -0.5050505E-02  0.1748347E-06  0.0000000E+00 -0.1817031E-03
 -0.4769372E-02  0.0000000E+00 -0.5050505E-02  0.1748834E-06  0.0000000E+00 -0.1813457E-03
 -0.4690458E-02  0.0000000E+00 -0.5050505E-02  0.1743549E-06  0.0000000E+00 -0.1809888E-03
 -0.4611543E-02  0.0000000E+00 -0.5050505E-02  0.1732316E-06  0.0000000E+00 -0.1806336E-03
 -0.4503035E-02  0.0000000E+00 -0.5050505E-02  0.1714993E-06  0.0000000E+00 -0.1802813E-03
 -0.4345206E-02  0.0000000E+00 -0.5050505E-02  0.1691474E-06  0.0000000E+00 -0.1799333E-03
 -0.4187378E-02  0.0000000E+00 -0.5050505E-02  0.1661695E-06  0.0000000E+00 -0.1795907E-03
 -0.3985156E-02  0.0000000E+00 -0.5050505E-02  0.1625631E-06  0.0000000E+00 -0.1792548E-03
 -0.3669499E-02  0.0000000E+00 -0.5050505E-02  0.1583299E-06  0.0000000E+00 -0.1789269E-03
 -0.3353842E-02  0.0000000E+00 -0.5050505E-02  0.1534748E-06  0.0000000E+00 -0.1786084E-03
 -0.2978990E-02  0.0000000E+00 -0.5050505E-02  0.1480061E-06  0.0000000E+00 -0.1783004E-03
 -0.2347676E-02  0.0000000E+00 -0.5050505E-02  0.1419338E-06  0.0000000E+00 -0.1780042E-03
 -0.1716362E-02  0.0000000E+00 -0.5050505E-02  0.1352686E-06  0.0000000E+00 -0.1777210E-03
 -0.1025842E-02  0.0000000E+00 -0.5050505E-02  0.1280208E-06  0.0000000E+00 -0.1774521E-03
  0.2367855E-03  0.0000000E+00 -0.5050505E-02  0.1201980E-06  0.0000000E+00 -0.1771985E-03
  0.1499413E-02  0.0000000E+00 -0.5050505E-02  0.1118039E-06  0.0000000E+00 -0.1769616E-03
  0.2762042E-02  0.0000000E+00 -0.5050505E-02  0.1028362E-06  0.0000000E+00 -0.1767423E-03
 -0.5050505E-02  0.0000000E+00 -0.5050505E-02  0.9328504E-07  0.0000000E+00 -0.1765420E-03
 -0.5050505E-02  0.0000000E+00 -0.5050505E-02  0.8313214E-07  0.0000000E+00 -0.1763618E-03
 -0.5050505E-02  0.0000000E+00 -0.5050505E-02  0.7235002E-07  0.0000000E+00 -0.1762030E-03
 -0.5050505E-02  0.0000000E+00 -0.5050505E-02  0.6090293E-07  0.0000000E+00 -0.1760669E-03
 -0.5050505E-02  0.0000000E+00 -0.5050505E-02  0.4874923E-07  0.0000000E+00 -0.1759550E-03
 -0.5050505E-02  0.0000000E+00 -0.5050505E-02  0.3584609E-07  0.0000000E+00 -0.1758686E-03
 -0.5050505E-02  0.0000000E+00 -0.5050505E-02  0.2215718E-07  0.0000000E+00 -0.1758093E-03
 -0.5050504E-02  0.0000000E+00 -0.5050505E-02  0.7663489E-08  0.0000000E+00 -0.1757789E-03
 -0.5050501E-02  0.0000000E+00 -0.5050505E-02 -0.7622604E-08  0.0000000E+00 -0.1757788E-03
 -0.5050495E-02  0.0000000E+00 -0.5050505E-02 -0.2364128E-07  0.0000000E+00 -0.1758108E-03
 -0.5050482E-02  0.0000000E+00 -0.5050505E-02 -0.4026975E-07  0.0000000E+00 -0.1758760E-03
 -0.5050449E-02  0.0000000E+00 -0.5050505E-02 -0.5731085E-07  0.0000000E+00 -0.1759757E-03
 -0.5050376E-02  0.0000000E+00 -0.5050505E-02 -0.7449064E-07  0.0000000E+00 -0.1761103E-03
 -0.5050299E-02  0.0000000E+00 -0.5050505E-02 -0.9146916E-07  0.0000000E+00 -0.1762798E-03
 -0.5050178E-02  0.0000000E+00 -0.5050505E-02 -0.1078659E-06  0.0000000E+00 -0.1764834E-03
 -0.5050018E-02  0.0000000E+00 -0.5050505E-02 -0.1232966E-06  0.0000000E+00 -0.1767195E-03
 -0.5049710E-02  0.0000000E+00 -0.5050505E-02 -0.1374140E-06  0.0000000E+00 -0.1769858E-03
 -0.5049253E-02  0.0000000E+00 -0.5050505E-02 -0.1499419E-06  0.0000000E+00 -0.1772793E-03
 -0.5048636E-02  0.0000000E+00 -0.5050505E-02 -0.1606966E-06  0.0000000E+00 -0.1775966E-03
 -0.5047442E-02  0.0000000E+00 -0.5050505E-02 -0.1695912E-06  0.0000000E+00 -0.1779340E-03
 -0.5045727E-02  0.0000000E+00 -0.5050505E-02 -0.1766274E-06  0.0000000E+00 -0.1782877E-03
 -0.5043261E-02  0.0000000E+00 -0.5050505E-02 -0.1818776E-06  0.0000000E+00 -0.1786539E-03
 -0.5038714E-02  0.0000000E+00 -0.5050505E-02 -0.1854642E-06  0.0000000E+00 -0.1790292E-03
 -0.5032318E-02  0.0000000E+00 -0.5050505E-02 -0.1875396E-06  0.0000000E+00 -0.1794103E-03
 -0.5022454E-02  0.0000000E+00 -0.5050505E-02 -0.1882692E-06  0.0000000E+00 -0.1797943E-03
 -0.5012589E-02  0.0000000E+00 -0.5050505E-02 -0.1878190E-06  0.0000000E+00 -0.1801785E-03
 -0.5002725E-02  0.0000000E+00 -0.5050505E-02 -0.1863474E-06  0.0000000E+00 -0.1805609E-03
 -0.4992860E-02  0.0000000E+00 -0.5050505E-02 -0.1840006E-06  0.0000000E+00 -0.1809393E-03
 -0.4976523E-02  0.0000000E+00 -0.5050505E-02 -0.1809116E-06  0.0000000E+00 -0.1813122E-03
 -0.4956794E-02  0.0000000E+00 -0.5050505E-02 -0.1772000E-06  0.0000000E+00 -0.1816782E-03
 -0.4937066E-02  0.0000000E+00 -0.5050505E-02 -0.1729754E-06  0.0000000E+00 -0.1820361E-03
 -0.4906239E-02  0.0000000E+00 -0.5050505E-02 -0.1683409E-06  0.0000000E+00 -0.1823849E-03
 -0.4866782E-02  0.0000000E+00 -0.5050505E-02 -0.1633990E-06  0.0000000E+00 -0.1827240E-03
 -0.4827325E-02  0.0000000E+00 -0.5050505E-02 -0.1582585E-06  0.0000000E+00 -0.1830527E-03
 -0.4769372E-02  0.0000000E+00 -0.5050505E-02 -0.1530457E-06  0.0000000E+00 -0.1833709E-03
 -0.4690458E-02  0.0000000E+00 -0.5050505E-02 -0.1479191E-06  0.0000000E+00 -0.1836786E-03
 -0.4611543E-02  0.0000000E+00 -0.5050505E-02 -0.1430928E-06  0.0000000E+00 -0.1839761E-03
 -0.4503035E-02  0.0000000E+00 -0.5050505E-02 -0.1388752E-06  0.0000000E+00 -0.1842643E-03
 -0.4345206E-02  0.0000000E+00 -0.5050505E-02 -0.1357336E-06  0.0000000E+00 -0.1845451E-03
 -0.4187378E-02  0.0000000E+00 -0.5050505E-02 -0.1344119E-06  0.0000000E+00 -0.1848212E-03
 -0.3985156E-02  0.0000000E+00 -0.5050505E-02 -0.1361540E-06  0.0000000E+00 -0.1850979E-03
 -0.3669499E-02  0.0000000E+00 -0.5050505E-02 -0.1431539E-06  0.0000000E+00 -0.1853834E-03
 -0.3353842E-02  0.0000000E+00 -0.5050505E-02 -0.1595263E-06  0.0000000E+00 -0.1856929E-03
 -0.2978990E-02  0.0000000E+00 -0.5050505E-02 -0.1935619E-06  0.0000000E+00 -0.1860539E-03
 -0.2347676E-02  0.0000000E+00 -0.5050505E-02 -0.2634290E-06  0.0000000E+00 -0.1865212E-03
 -0.1716362E-02  0.0000000E+00 -0.5050505E-02 -0.4129698E-06  0.0000000E+00 -0.1872129E-03
 -0.1025842E-02  0.0000000E+00 -0.5050505E-02 -0.7598046E-06  0.0000000E+00 -0.1884122E-03
  0.2367855E-03  0.0000000E+00 -0.5050505E-02 -0.1655989E-05  0.0000000E+00 -0.1908832E-03
  0.1499413E-02  0.0000000E+00 -0.5050505E-02 -0.4272047E-05  0.0000000E+00 -0.1969486E-03
  0.5287294E-02  0.0000000E+00 -0.5050505E-02 -0.6951765E-04  0.0000000E+00 -0.1572711E-03
 -0.5050505E-02  0.0000000E+00 -0.5050505E-02  0.1113217E-07  0.0000000E+00 -0.1885763E-03
 -0.5050505E-02  0.0000000E+00 -0.5050505E-02  0.3338361E-07  0.0000000E+00 -0.1885610E-03
 -0.5050505E-02  0.0000000E+00 -0.5050505E-02  0.5559622E-07  0.0000000E+00 -0.1885305E-03
 -0.5050505E-02  0.0000000E+00 -0.5050505E-02  0.7774387E-07  0.0000000E+00 -0.1884849E-03
 -0.5050505E-02  0.0000000E+00 -0.5050505E-02  0.9980011E-07  0.0000000E+00 -0.1884241E-03
 -0.5050505E-02  0.0000000E+00 -0.5050505E-02  0.1217379E-06  0.0000000E+00 -0.1883482E-03
 -0.5050504E-02  0.0000000E+00 -0.5050505E-02  0.1435297E-06  0.0000000E+00 -0.1882574E-03
 -0.5050501E-02  0.0000000E+00 -0.5050505E-02  0.1651467E-06  0.0000000E+00 -0.1881516E-03
 -0.5050495E-02  0.0000000E+00 -0.5050505E-02  0.1865596E-06  0.0000000E+00 -0.1880312E-03
 -0.5050482E-02  0.0000000E+00 -0.5050505E-02  0.2077374E-06  0.0000000E+00 -0.1878962E-03
 -0.5050449E-02  0.0000000E+00 -0.5050505E-02  0.2286481E-06  0.0000000E+00 -0.1877467E-03
 -0.5050376E-02  0.0000000E+00 -0.5050505E-02  0.2492576E-06  0.0000000E+00 -0.1875830E-03
 -0.5050299E-02  0.0000000E+00 -0.5050505E-02  0.2695304E-06  0.0000000E+00 -0.1874054E-03
 -0.5050178E-02  0.0000000E+00 -0.5050505E-02  0.2894287E-06  0.0000000E+00 -0.1872139E-03
 -0.5050018E-02  0.0000000E+00 -0.5050505E-02  0.3089126E-06  0.0000000E+00 -0.1870090E-03
 -0.5049710E-02  0.0000000E+00 -0.5050505E-02  0.3279396E-06  0.0000000E+00 -0.1867909E-03
 -0.5049253E-02  0.0000000E+00 -0.5050505E-02  0.3464646E-06  0.0000000E+00 -0.1865599E-03
 -0.5048636E-02  0.0000000E+00 -0.5050505E-02  0.3644395E-06  0.0000000E+00 -0.1863164E-03
 -0.5047442E-02  0.0000000E+00 -0.5050505E-02  0.3818130E-06  0.0000000E+00 -0.1860607E-03
 -0.5045727E-02  0.0000000E+00 -0.5050505E-02  0.3985307E-06  0.0000000E+00 -0.1857934E-03
 -0.5043261E-02  0.0000000E+00 -0.5050505E-02  0.4145347E-06  0.0000000E+00 -0.1855149E-03
 -0.5038714E-02  0.0000000E+00 -0.5050505E-02  0.4297636E-06  0.0000000E+00 -0.1852257E-03
 -0.5032318E-02  0.0000000E+00 -0.5050505E-02  0.4441525E-06  0.0000000E+00 -0.1849263E-03
 -0.5022454E-02  0.0000000E+00 -0.5050505E-02  0.4576330E-06  0.0000000E+00 -0.1846173E-03
 -0.5012589E-02  0.0000000E+00 -0.5050505E-02  0.4701335E-06  0.0000000E+00 -0.1842994E-03
 -0.5002725E-02  0.0000000E+00 -0.5050505E-02  0.4815792E-06  0.0000000E+00 -0.1839733E-03
 -0.4992860E-02  0.0000000E+00 -0.5050505E-02  0.4918928E-06  0.0000000E+00 -0.1836397E-03
 -0.4976523E-02  0.0000000E+00 -0.5050505E-02  0.5009949E-06  0.0000000E+00 -0.1832995E-03
 -0.4956794E-02  0.0000000E+00 -0.5050505E-02  0.5088051E-06  0.0000000E+00 -0.1829534E-03
 -0.4937066E-02  0.0000000E+00 -0.5050505E-02  0.5152423E-06  0.0000000E+00 -0.1826024E-03
 -0.4906239E-02  0.0000000E+00 -0.5050505E-02  0.5202266E-06  0.0000000E+00 -0.1822475E-03
 -0.4866782E-02  0.0000000E+00 -0.5050505E-02  0.5236801E-06  0.0000000E+00 -0.1818897E-03
 -0.4827325E-02  0.0000000E+00 -0.5050505E-02  0.5255285E-06  0.0000000E+00 -0.1815300E-03
 -0.4769372E-02  0.0000000E+00 -0.5050505E-02  0.5257031E-06  0.0000000E+00 -0.1811696E-03
 -0.4690458E-02  0.0000000E+00 -0.5050505E-02  0.5241418E-06  0.0000000E+00 -0.1808097E-03
 -0.4611543E-02  0.0000000E+00 -0.5050505E-02  0.5207914E-06  0.0000000E+00 -0.1804514E-03
 -0.4503035E-02  0.0000000E+00 -0.5050505E-02  0.5156087E-06  0.0000000E+00 -0.1800960E-03
 -0.4345206E-02  0.0000000E+00 -0.5050505E-02  0.5085617E-06  0.0000000E+00 -0.1797448E-03
 -0.4187378E-02  0.0000000E+00 -0.5050505E-02  0.4996310E-06  0.0000000E+00 -0.1793991E-03
 -0.3985156E-02  0.0000000E+00 -0.5050505E-02  0.4888094E-06  0.0000000E+00 -0.1790601E-03
 -0.3669499E-02  0.0000000E+00 -0.5050505E-02  0.4761021E-06  0.0000000E+00 -0.1787291E-03
 -0.3353842E-02  0.0000000E+00 -0.5050505E-02  0.4615254E-06  0.0000000E+00 -0.1784075E-03
 -0.2978990E-02  0.0000000E+00 -0.5050505E-02  0.4451044E-06  0.0000000E+00 -0.1780966E-03
 -0.2347676E-02  0.0000000E+00 -0.5050505E-02  0.4268708E-06  0.0000000E+00 -0.1777974E-03
 -0.1716362E-02  0.0000000E+00 -0.5050505E-02  0.4068585E-06  0.0000000E+00 -0.1775114E-03
 -0.1025842E-02  0.0000000E+00 -0.5050505E-02  0.3850996E-06  0.0000000E+00 -0.1772397E-03
  0.2367855E-03  0.0000000E+00 -0.5050505E-02  0.3616193E-06  0.0000000E+00 -0.1769834E-03
  0.1499413E-02  0.0000000E+00 -0.5050505E-02  0.3364300E-06  0.0000000E+00 -0.1767437E-03
  0.2762042E-02  0.0000000E+00 -0.5050505E-02  0.3095262E-06  0.0000000E+00 -0.1765219E-03
 -0.5050505E-02  0.0000000E+00 -0.5050505E-02  0.2808797E-06  0.0000000E+00 -0.1763190E-03
 -0.5050505E-02  0.0000000E+00 -0.5050505E-02  0.2504353E-06  0.0000000E+00 -0.1761362E-03
 -0.5050505E-02  0.0000000E+00 -0.5050505E-02  0.2181093E-06  0.0000000E+00 -0.1759749E-03
 -0.5050505E-02  0.0000000E+00 -0.5050505E-02  0.1837911E-06  0.0000000E+00 -0.1758363E-03
 -0.5050505E-02  0.0000000E+00 -0.5050505E-02  0.1473502E-06  0.0000000E+00 -0.1757218E-03
 -0.5050505E-02  0.0000000E+00 -0.5050505E-02  0.1086492E-06  0.0000000E+00 -0.1756329E-03
 -0.5050505E-02  0.0000000E+00 -0.5050505E-02  0.6756689E-07  0.0000000E+00 -0.1755713E-03
 -0.5050504E-02  0.0000000E+00 -0.5050505E-02  0.2403118E-07  0.0000000E+00 -0.1755385E-03
 -0.5050501E-02  0.0000000E+00 -0.5050505E-02 -0.2193784E-07  0.0000000E+00 -0.1755365E-03
 -0.5050495E-02  0.0000000E+00 -0.5050505E-02 -0.7017690E-07  0.0000000E+00 -0.1755668E-03
 -0.5050482E-02  0.0000000E+00 -0.5050505E-02 -0.1203288E-06  0.0000000E+00 -0.1756310E-03
 -0.5050449E-02  0.0000000E+00 -0.5050505E-02 -0.1718035E-06  0.0000000E+00 -0.1757303E-03
 -0.5050376E-02  0.0000000E+00 -0.5050505E-02 -0.2237662E-06  0.0000000E+00 -0.1758654E-03
 -0.5050299E-02  0.0000000E+00 -0.5050505E-02 -0.2751689E-06  0.0000000E+00 -0.1760364E-03
 -0.5050178E-02  0.0000000E+00 -0.5050505E-02 -0.3248297E-06  0.0000000E+00 -0.1762425E-03
 -0.5050018E-02  0.0000000E+00 -0.5050505E-02 -0.3715518E-06  0.0000000E+00 -0.1764821E-03
 -0.5049710E-02  0.0000000E+00 -0.5050505E-02 -0.4142554E-06  0.0000000E+00 -0.1767529E-03
 -0.5049253E-02  0.0000000E+00 -0.5050505E-02 -0.4520885E-06  0.0000000E+00 -0.1770515E-03
 -0.5048636E-02  0.0000000E+00 -0.5050505E-02 -0.4844929E-06  0.0000000E+00 -0.1773743E-03
 -0.5047442E-02  0.0000000E+00 -0.5050505E-02 -0.5112161E-06  0.0000000E+00 -0.1777175E-03
 -0.5045727E-02  0.0000000E+00 -0.5050505E-02 -0.5322804E-06  0.0000000E+00 -0.1780770E-03
 -0.5043261E-02  0.0000000E+00 -0.5050505E-02 -0.5479247E-06  0.0000000E+00 -0.1784489E-03
 -0.5038714E-02  0.0000000E+00 -0.5050505E-02 -0.5585378E-06  0.0000000E+00 -0.1788297E-03
 -0.5032318E-02  0.0000000E+00 -0.5050505E-02 -0.5645950E-06  0.0000000E+00 -0.1792159E-03
 -0.5022454E-02  0.0000000E+00 -0.5050505E-02 -0.5666067E-06  0.0000000E+00 -0.1796047E-03
 -0.5012589E-02  0.0000000E+00 -0.5050505E-02 -0.5650808E-06  0.0000000E+00 -0.1799934E-03
 -0.5002725E-02  0.0000000E+00 -0.5050505E-02 -0.5604984E-06  0.0000000E+00 -0.1803798E-03
 -0.4992860E-02  0.0000000E+00 -0.5050505E-02 -0.5533012E-06  0.0000000E+00 -0.1807620E-03
 -0.4976523E-02  0.0000000E+00 -0.5050505E-02 -0.5438877E-06  0.0000000E+00 -0.1811383E-03
 -0.4956794E-02  0.0000000E+00 -0.5050505E-02 -0.5326156E-06  0.0000000E+00 -0.1815074E-03
 -0.4937066E-02  0.0000000E+00 -0.5050505E-02 -0.5198101E-06  0.0000000E+00 -0.1818681E-03
 -0.4906239E-02  0.0000000E+00 -0.5050505E-02 -0.5057755E-06  0.0000000E+00 -0.1822194E-03
 -0.4866782E-02  0.0000000E+00 -0.5050505E-02 -0.4908116E-06  0.0000000E+00 -0.1825607E-03
 -0.4827325E-02  0.0000000E+00 -0.5050505E-02 -0.4752352E-06  0.0000000E+00 -0.1828914E-03
 -0.4769372E-02  0.0000000E+00 -0.5050505E-02 -0.4594097E-06  0.0000000E+00 -0.1832111E-03
 -0.4690458E-02  0.0000000E+00 -0.5050505E-02 -0.4437870E-06  0.0000000E+00 -0.1835198E-03
 -0.4611543E-02  0.0000000E+00 -0.5050505E-02 -0.4289721E-06  0.0000000E+00 -0.1838178E-03
 -0.4503035E-02  0.0000000E+00 -0.5050505E-02 -0.4158247E-06  0.0000000E+00 -0.1841056E-03
 -0.4345206E-02  0.0000000E+00 -0.5050505E-02 -0.4056305E-06  0.0000000E+00 -0.1843846E-03
 -0.4187378E-02  0.0000000E+00 -0.5050505E-02 -0.4004004E-06  0.0000000E+00 -0.1846569E-03
 -0.3985156E-02  0.0000000E+00 -0.5050505E-02 -0.4034213E-06  0.0000000E+00 -0.1849262E-03
 -0.3669499E-02  0.0000000E+00 -0.5050505E-02 -0.4203189E-06  0.0000000E+00 -0.1851980E-03
 -0.3353842E-02  0.0000000E+00 -0.5050505E-02 -0.4612178E-06  0.0000000E+00 -0.1854811E-03
 -0.2978990E-02  0.0000000E+00 -0.5050505E-02 -0.5453861E-06  0.0000000E+00 -0.1857892E-03
 -0.2347676E-02  0.0000000E+00 -0.5050505E-02 -0.7118201E-06  0.0000000E+00 -0.1861413E-03
 -0.1716362E-02  0.0000000E+00 -0.5050505E-02 -0.1044858E-05  0.0000000E+00 -0.1865560E-03
 -0.1025842E-02  0.0000000E+00 -0.5050505E-02 -0.1739867E-05  0.0000000E+00 -0.1870083E-03
  0.2367855E-03  0.0000000E+00 -0.5050505E-02 -0.3280745E-05  0.0000000E+00 -0.1872083E-03
  0.1499413E-02  0.0000000E+00 -0.5050505E-02 -0.6939957E-05  0.0000000E+00 -0.1855549E-03
  0.5287294E-02  0.0000000E+00 -0.5050505E-02 -0.1622215E-04  0.0000000E+00 -0.1742436E-03
 -0.5050505E-02  0.0000000E+00 -0.5050505E-02  0.1859924E-07  0.0000000E+00 -0.1883281E-03
 -0.5050505E-02  0.0000000E+00 -0.5050505E-02  0.5577633E-07  0.0000000E+00 -0.1883127E-03
 -0.5050505E-02  0.0000000E+00 -0.5050505E-02  0.9288905E-07  0.0000000E+00 -0.1882819E-03
 -0.5050505E-02  0.0000000E+00 -0.5050505E-02  0.1298941E-06  0.0000000E+00 -0.1882358E-03
 -0.5050505E-02  0.0000000E+00 -0.5050505E-02  0.1667476E-06  0.0000000E+00 -0.1881743E-03
 -0.5050505E-02  0.0000000E+00 -0.5050505E-02  0.2034047E-06  0.0000000E+00 -0.1880976E-03
 -0.5050504E-02  0.0000000E+00 -0.5050505E-02  0.2398196E-06  0.0000000E+00 -0.1880058E-03
 -0.5050501E-02  0.0000000E+00 -0.5050505E-02  0.2759450E-06  0.0000000E+00 -0.1878989E-03
 -0.5050495E-02  0.0000000E+00 -0.5050505E-02  0.3117316E-06  0.0000000E+00 -0.1877771E-03
 -0.5050482E-02  0.0000000E+00 -0.5050505E-02  0.3471285E-06  0.0000000E+00 -0.1876406E-03
 -0.5050449E-02  0.0000000E+00 -0.5050505E-02  0.3820822E-06  0.0000000E+00 -0.1874895E-03
 -0.5050376E-02  0.0000000E+00 -0.5050505E-02  0.4165366E-06  0.0000000E+00 -0.1873239E-03
 -0.5050299E-02  0.0000000E+00 -0.5050505E-02  0.4504323E-06  0.0000000E+00 -0.1871442E-03
 -0.5050178E-02  0.0000000E+00 -0.5050505E-02  0.4837068E-06  0.0000000E+00 -0.1869506E-03
 -0.5050018E-02  0.0000000E+00 -0.5050505E-02  0.5162936E-06  0.0000000E+00 -0.1867432E-03
 -0.5049710E-02  0.0000000E+00 -0.5050505E-02  0.5481222E-06  0.0000000E+00 -0.1865225E-03
 -0.5049253E-02  0.0000000E+00 -0.5050505E-02  0.5791175E-06  0.0000000E+00 -0.1862888E-03
 -0.5048636E-02  0.0000000E+00 -0.5050505E-02  0.6091994E-06  0.0000000E+00 -0.1860423E-03
 -0.5047442E-02  0.0000000E+00 -0.5050505E-02  0.6382825E-06  0.0000000E+00 -0.1857835E-03
 -0.5045727E-02  0.0000000E+00 -0.5050505E-02  0.6662763E-06  0.0000000E+00 -0.1855129E-03
 -0.5043261E-02  0.0000000E+00 -0.5050505E-02  0.6930839E-06  0.0000000E+00 -0.1852308E-03
 -0.5038714E-02  0.0000000E+00 -0.5050505E-02  0.7186030E-06  0.0000000E+00 -0.1849378E-03
 -0.5032318E-02  0.0000000E+00 -0.5050505E-02  0.7427250E-06  0.0000000E+00 -0.1846344E-03
 -0.5022454E-02  0.0000000E+00 -0.5050505E-02  0.7653353E-06  0.0000000E+00 -0.1843213E-03
 -0.5012589E-02  0.0000000E+00 -0.5050505E-02  0.7863140E-06  0.0000000E+00 -0.1839990E-03
 -0.5002725E-02  0.0000000E+00 -0.5050505E-02  0.8055357E-06  0.0000000E+00 -0.1836684E-03
 -0.4992860E-02  0.0000000E+00 -0.5050505E-02  0.8228703E-06  0.0000000E+00 -0.1833300E-03
 -0.4976523E-02  0.0000000E+00 -0.5050505E-02  0.8381844E-06  0.0000000E+00 -0.1829848E-03
 -0.4956794E-02  0.0000000E+00 -0.5050505E-02  0.8513422E-06  0.0000000E+00 -0.1826335E-03
 -0.4937066E-02  0.0000000E+00 -0.5050505E-02  0.8622071E-06  0.0000000E+00 -0.1822772E-03
 -0.4906239E-02  0.0000000E+00 -0.5050505E-02  0.8706437E-06  0.0000000E+00 -0.1819167E-03
 -0.4866782E-02  0.0000000E+00 -0.5050505E-02  0.8765201E-06  0.0000000E+00 -0.1815532E-03
 -0.4827325E-02  0.0000000E+00 -0.5050505E-02  0.8797103E-06  0.0000000E+00 -0.1811876E-03
 -0.4769372E-02  0.0000000E+00 -0.5050505E-02  0.8800974E-06  0.0000000E+00 -0.1808212E-03
 -0.4690458E-02  0.0000000E+00 -0.5050505E-02  0.8775758E-06  0.0000000E+00 -0.1804552E-03
 -0.4611543E-02  0.0000000E+00 -0.5050505E-02  0.8720548E-06  0.0000000E+00 -0.1800908E-03
 -0.4503035E-02  0.0000000E+00 -0.5050505E-02  0.8634608E-06  0.0000000E+00 -0.1797291E-03
 -0.4345206E-02  0.0000000E+00 -0.5050505E-02  0.8517395E-06  0.0000000E+00 -0.1793717E-03
 -0.4187378E-02  0.0000000E+00 -0.5050505E-02  0.8368582E-06  0.0000000E+00 -0.1790197E-03
 -0.3985156E-02  0.0000000E+00 -0.5050505E-02  0.8188055E-06  0.0000000E+00 -0.1786745E-03
 -0.3669499E-02  0.0000000E+00 -0.5050505E-02  0.7975915E-06  0.0000000E+00 -0.1783374E-03
 -0.3353842E-02  0.0000000E+00 -0.5050505E-02  0.7732458E-06  0.0000000E+00 -0.1780097E-03
 -0.2978990E-02  0.0000000E+00 -0.5050505E-02  0.7458140E-06  0.0000000E+00 -0.1776927E-03
 -0.2347676E-02  0.0000000E+00 -0.5050505E-02  0.7153534E-06  0.0000000E+00 -0.1773878E-03
 -0.1716362E-02  0.0000000E+00 -0.5050505E-02  0.6819260E-06  0.0000000E+00 -0.1770960E-03
 -0.1025842E-02  0.0000000E+00 -0.5050505E-02  0.6455912E-06  0.0000000E+00 -0.1768187E-03
  0.2367855E-03  0.0000000E+00 -0.5050505E-02  0.6063972E-06  0.0000000E+00 -0.1765570E-03
  0.1499413E-02  0.0000000E+00 -0.5050505E-02  0.5643707E-06  0.0000000E+00 -0.1763120E-03
  0.2762042E-02  0.0000000E+00 -0.5050505E-02  0.5195078E-06  0.0000000E+00 -0.1760849E-03
 -0.5050505E-02  0.0000000E+00 -0.5050505E-02  0.4717646E-06  0.0000000E+00 -0.1758769E-03
 -0.5050505E-02  0.0000000E+00 -0.5050505E-02  0.4210494E-06  0.0000000E+00 -0.1756890E-03
 -0.5050505E-02  0.0000000E+00 -0.5050505E-02  0.3672189E-06  0.0000000E+00 -0.1755226E-03
 -0.5050505E-02  0.0000000E+00 -0.5050505E-02  0.3100785E-06  0.0000000E+00 -0.1753790E-03
 -0.5050505E-02  0.0000000E+00 -0.5050505E-02  0.2493916E-06  0.0000000E+00 -0.1752594E-03
 -0.5050505E-02  0.0000000E+00 -0.5050505E-02  0.1849002E-06  0.0000000E+00 -0.1751656E-03
 -0.5050505E-02  0.0000000E+00 -0.5050505E-02  0.1163615E-06  0.0000000E+00 -0.1750991E-03
 -0.5050504E-02  0.0000000E+00 -0.5050505E-02  0.4360281E-07  0.0000000E+00 -0.1750617E-03
 -0.5050501E-02  0.0000000E+00 -0.5050505E-02 -0.3340165E-07  0.0000000E+00 -0.1750555E-03
 -0.5050495E-02  0.0000000E+00 -0.5050505E-02 -0.1144378E-06  0.0000000E+00 -0.1750823E-03
 -0.5050482E-02  0.0000000E+00 -0.5050505E-02 -0.1989523E-06  0.0000000E+00 -0.1751441E-03
 -0.5050449E-02  0.0000000E+00 -0.5050505E-02 -0.2859700E-06  0.0000000E+00 -0.1752425E-03
 -0.5050376E-02  0.0000000E+00 -0.5050505E-02 -0.3740578E-06  0.0000000E+00 -0.1753785E-03
 -0.5050299E-02  0.0000000E+00 -0.5050505E-02 -0.4613702E-06  0.0000000E+00 -0.1755524E-03
 -0.5050178E-02  0.0000000E+00 -0.5050505E-02 -0.5457933E-06  0.0000000E+00 -0.1757637E-03
 -0.5050018E-02  0.0000000E+00 -0.5050505E-02 -0.6251739E-06  0.0000000E+00 -0.1760105E-03
 -0.5049710E-02  0.0000000E+00 -0.5050505E-02 -0.6975774E-06  0.0000000E+00 -0.1762903E-03
 -0.5049253E-02  0.0000000E+00 -0.5050505E-02 -0.7615014E-06  0.0000000E+00 -0.1765993E-03
 -0.5048636E-02  0.0000000E+00 -0.5050505E-02 -0.8159944E-06  0.0000000E+00 -0.1769334E-03
 -0.5047442E-02  0.0000000E+00 -0.5050505E-02 -0.8606669E-06  0.0000000E+00 -0.1772884E-03
 -0.5045727E-02  0.0000000E+00 -0.5050505E-02 -0.8956198E-06  0.0000000E+00 -0.1776597E-03
 -0.5043261E-02  0.0000000E+00 -0.5050505E-02 -0.9213285E-06  0.0000000E+00 -0.1780431E-03
 -0.5038714E-02  0.0000000E+00 -0.5050505E-02 -0.9385154E-06  0.0000000E+00 -0.1784348E-03
 -0.5032318E-02  0.0000000E+00 -0.5050505E-02 -0.9480358E-06  0.0000000E+00 -0.1788314E-03
 -0.5022454E-02  0.0000000E+00 -0.5050505E-02 -0.9507885E-06  0.0000000E+00 -0.1792297E-03
 -0.5012589E-02  0.0000000E+00 -0.5050505E-02 -0.9476524E-06  0.0000000E+00 -0.1796273E-03
 -0.5002725E-02  0.0000000E+00 -0.5050505E-02 -0.9394490E-06  0.0000000E+00 -0.1800218E-03
 -0.4992860E-02  0.0000000E+00 -0.5050505E-02 -0.9269233E-06  0.0000000E+00 -0.1804115E-03
 -0.4976523E-02  0.0000000E+00 -0.5050505E-02 -0.9107399E-06  0.0000000E+00 -0.1807946E-03
 -0.4956794E-02  0.0000000E+00 -0.5050505E-02 -0.8914894E-06  0.0000000E+00 -0.1811699E-03
 -0.4937066E-02  0.0000000E+00 -0.5050505E-02 -0.8697025E-06  0.0000000E+00 -0.1815362E-03
 -0.4906239E-02  0.0000000E+00 -0.5050505E-02 -0.8458701E-06  0.0000000E+00 -0.1818926E-03
 -0.4866782E-02  0.0000000E+00 -0.5050505E-02 -0.8204688E-06  0.0000000E+00 -0.1822383E-03
 -0.4827325E-02  0.0000000E+00 -0.5050505E-02 -0.7939944E-06  0.0000000E+00 -0.1825728E-03
 -0.4769372E-02  0.0000000E+00 -0.5050505E-02 -0.7670057E-06  0.0000000E+00 -0.1828957E-03
 -0.4690458E-02  0.0000000E+00 -0.5050505E-02 -0.7401846E-06  0.0000000E+00 -0.1832067E-03
 -0.4611543E-02  0.0000000E+00 -0.5050505E-02 -0.7144255E-06  0.0000000E+00 -0.1835057E-03
 -0.4503035E-02  0.0000000E+00 -0.5050505E-02 -0.6909703E-06  0.0000000E+00 -0.1837931E-03
 -0.4345206E-02  0.0000000E+00 -0.5050505E-02 -0.6716268E-06  0.0000000E+00 -0.1840694E-03
 -0.4187378E-02  0.0000000E+00 -0.5050505E-02 -0.6591290E-06  0.0000000E+00 -0.1843355E-03
 -0.3985156E-02  0.0000000E+00 -0.5050505E-02 -0.6577594E-06  0.0000000E+00 -0.1845928E-03
 -0.3669499E-02  0.0000000E+00 -0.5050505E-02 -0.6744483E-06  0.0000000E+00 -0.1848430E-03
 -0.3353842E-02  0.0000000E+00 -0.5050505E-02 -0.7207638E-06  0.0000000E+00 -0.1850873E-03
 -0.2978990E-02  0.0000000E+00 -0.5050505E-02 -0.8165529E-06  0.0000000E+00 -0.1853245E-03
 -0.2347676E-02  0.0000000E+00 -0.5050505E-02 -0.9964993E-06  0.0000000E+00 -0.1855440E-03
 -0.1716362E-02  0.0000000E+00 -0.5050505E-02 -0.1321014E-05  0.0000000E+00 -0.1857075E-03
 -0.1025842E-02  0.0000000E+00 -0.5050505E-02 -0.1889243E-05  0.0000000E+00 -0.1856982E-03
  0.2367855E-03  0.0000000E+00 -0.5050505E-02 -0.2827222E-05  0.0000000E+00 -0.1852018E-03
  0.1499413E-02  0.0000000E+00 -0.5050505E-02 -0.4097346E-05  0.0000000E+00 -0.1835181E-03
  0.5287294E-02  0.0000000E+00 -0.5050505E-02 -0.4381463E-05  0.0000000E+00 -0.1799248E-03
 -0.5050505E-02  0.0000000E+00 -0.5050505E-02  0.2614747E-07  0.0000000E+00 -0.1879608E-03
 -0.5050505E-02  0.0000000E+00 -0.5050505E-02  0.7841268E-07  0.0000000E+00 -0.1879452E-03
 -0.5050505E-02  0.0000000E+00 -0.5050505E-02  0.1305884E-06  0.0000000E+00 -0.1879139E-03
 -0.5050505E-02  0.0000000E+00 -0.5050505E-02  0.1826146E-06  0.0000000E+00 -0.1878670E-03
 -0.5050505E-02  0.0000000E+00 -0.5050505E-02  0.2344301E-06  0.0000000E+00 -0.1878045E-03
 -0.5050505E-02  0.0000000E+00 -0.5050505E-02  0.2859727E-06  0.0000000E+00 -0.1877266E-03
 -0.5050504E-02  0.0000000E+00 -0.5050505E-02  0.3371786E-06  0.0000000E+00 -0.1876333E-03
 -0.5050501E-02  0.0000000E+00 -0.5050505E-02  0.3879820E-06  0.0000000E+00 -0.1875247E-03
 -0.5050495E-02  0.0000000E+00 -0.5050505E-02  0.4383146E-06  0.0000000E+00 -0.1874009E-03
 -0.5050482E-02  0.0000000E+00 -0.5050505E-02  0.4881054E-06  0.0000000E+00 -0.1872621E-03
 -0.5050449E-02  0.0000000E+00 -0.5050505E-02  0.5372800E-06  0.0000000E+00 -0.1871085E-03
 -0.5050376E-02  0.0000000E+00 -0.5050505E-02  0.5857601E-06  0.0000000E+00 -0.1869402E-03
 -0.5050299E-02  0.0000000E+00 -0.5050505E-02  0.6334635E-06  0.0000000E+00 -0.1867575E-03
 -0.5050178E-02  0.0000000E+00 -0.5050505E-02  0.6803027E-06  0.0000000E+00 -0.1865606E-03
 -0.5050018E-02  0.0000000E+00 -0.5050505E-02  0.7261852E-06  0.0000000E+00 -0.1863497E-03
 -0.5049710E-02  0.0000000E+00 -0.5050505E-02  0.7710125E-06  0.0000000E+00 -0.1861251E-03
 -0.5049253E-02  0.0000000E+00 -0.5050505E-02  0.8146797E-06  0.0000000E+00 -0.1858872E-03
 -0.5048636E-02  0.0000000E+00 -0.5050505E-02  0.8570750E-06  0.0000000E+00 -0.1856363E-03
 -0.5047442E-02  0.0000000E+00 -0.5050505E-02  0.8980790E-06  0.0000000E+00 -0.1853728E-03
 -0.5045727E-02  0.0000000E+00 -0.5050505E-02  0.9375646E-06  0.0000000E+00 -0.1850972E-03
 -0.5043261E-02  0.0000000E+00 -0.5050505E-02  0.9753963E-06  0.0000000E+00 -0.1848098E-03
 -0.5038714E-02  0.0000000E+00 -0.5050505E-02  0.1011430E-05  0.0000000E+00 -0.1845112E-03
 -0.5032318E-02  0.0000000E+00 -0.5050505E-02  0.1045513E-05  0.0000000E+00 -0.1842019E-03
 -0.5022454E-02  0.0000000E+00 -0.5050505E-02  0.1077484E-05  0.0000000E+00 -0.1838825E-03
 -0.5012589E-02  0.0000000E+00 -0.5050505E-02  0.1107174E-05  0.0000000E+00 -0.1835537E-03
 -0.5002725E-02  0.0000000E+00 -0.5050505E-02  0.1134405E-05  0.0000000E+00 -0.1832162E-03
 -0.4992860E-02  0.0000000E+00 -0.5050505E-02  0.1158992E-05  0.0000000E+00 -0.1828707E-03
 -0.4976523E-02  0.0000000E+00 -0.5050505E-02  0.1180747E-05  0.0000000E+00 -0.1825180E-03
 -0.4956794E-02  0.0000000E+00 -0.5050505E-02  0.1199475E-05  0.0000000E+00 -0.1821590E-03
 -0.4937066E-02  0.0000000E+00 -0.5050505E-02  0.1214982E-05  0.0000000E+00 -0.1817946E-03