title = "dataset feddes"
variables = "x", "y", "z", "vx", "vy", "vz"
zone t = "velocities, solution time =  5.800E+01 days        " i =   99, j =   99, k =    1,  f=point
 -0.5050505E-02  0.0000000E+00 -0.5050505E-02  0.1021380E-07  0.0000000E+00 -0.1455252E-03
 -0.5050505E-02  0.0000000E+00 -0.5050505E-02  0.3063979E-07  0.0000000E+00 -0.1454836E-03
 -0.5050505E-02  0.0000000E+00 -0.5050505E-02  0.5106094E-07  0.0000000E+00 -0.1454004E-03
 -0.5050505E-02  0.0000000E+00 -0.5050505E-02  0.7147397E-07  0.0000000E+00 -0.1452757E-03
 -0.5050505E-02  0.0000000E+00 -0.5050505E-02  0.9187541E-07  0.0000000E+00 -0.1451095E-03
 -0.5050505E-02  0.0000000E+00 -0.5050505E-02  0.1122615E-06  0.0000000E+00 -0.1449018E-03
 -0.5050504E-02  0.0000000E+00 -0.5050505E-02  0.1326279E-06  0.0000000E+00 -0.1446526E-03
 -0.5050501E-02  0.0000000E+00 -0.5050505E-02  0.1529697E-06  0.0000000E+00 -0.1443620E-03
 -0.5050495E-02  0.0000000E+00 -0.5050505E-02  0.1732812E-06  0.0000000E+00 -0.1440300E-03
 -0.5050482E-02  0.0000000E+00 -0.5050505E-02  0.1935555E-06  0.0000000E+00 -0.1436568E-03
 -0.5050449E-02  0.0000000E+00 -0.5050505E-02  0.2137845E-06  0.0000000E+00 -0.1432424E-03
 -0.5050376E-02  0.0000000E+00 -0.5050505E-02  0.2339583E-06  0.0000000E+00 -0.1427869E-03
 -0.5050299E-02  0.0000000E+00 -0.5050505E-02  0.2540649E-06  0.0000000E+00 -0.1422904E-03
 -0.5050178E-02  0.0000000E+00 -0.5050505E-02  0.2740897E-06  0.0000000E+00 -0.1417532E-03
 -0.5050018E-02  0.0000000E+00 -0.5050505E-02  0.2940150E-06  0.0000000E+00 -0.1411753E-03
 -0.5049710E-02  0.0000000E+00 -0.5050505E-02  0.3138190E-06  0.0000000E+00 -0.1405571E-03
 -0.5049253E-02  0.0000000E+00 -0.5050505E-02  0.3334756E-06  0.0000000E+00 -0.1398988E-03
 -0.5048636E-02  0.0000000E+00 -0.5050505E-02  0.3529528E-06  0.0000000E+00 -0.1392008E-03
 -0.5047442E-02  0.0000000E+00 -0.5050505E-02  0.3722121E-06  0.0000000E+00 -0.1384634E-03
 -0.5045727E-02  0.0000000E+00 -0.5050505E-02  0.3912070E-06  0.0000000E+00 -0.1376872E-03
 -0.5043261E-02  0.0000000E+00 -0.5050505E-02  0.4098815E-06  0.0000000E+00 -0.1368728E-03
 -0.5038714E-02  0.0000000E+00 -0.5050505E-02  0.4281689E-06  0.0000000E+00 -0.1360209E-03
 -0.5032318E-02  0.0000000E+00 -0.5050505E-02  0.4459894E-06  0.0000000E+00 -0.1351324E-03
 -0.5022454E-02  0.0000000E+00 -0.5050505E-02  0.4632488E-06  0.0000000E+00 -0.1342084E-03
 -0.5012589E-02  0.0000000E+00 -0.5050505E-02  0.4798361E-06  0.0000000E+00 -0.1332500E-03
 -0.5002725E-02  0.0000000E+00 -0.5050505E-02  0.4956216E-06  0.0000000E+00 -0.1322589E-03
 -0.4992860E-02  0.0000000E+00 -0.5050505E-02  0.5104554E-06  0.0000000E+00 -0.1312367E-03
 -0.4976523E-02  0.0000000E+00 -0.5050505E-02  0.5241657E-06  0.0000000E+00 -0.1301858E-03
 -0.4956794E-02  0.0000000E+00 -0.5050505E-02  0.5365589E-06  0.0000000E+00 -0.1291084E-03
 -0.4937066E-02  0.0000000E+00 -0.5050505E-02  0.5474203E-06  0.0000000E+00 -0.1280075E-03
 -0.4906239E-02  0.0000000E+00 -0.5050505E-02  0.5565169E-06  0.0000000E+00 -0.1268866E-03
 -0.4866782E-02  0.0000000E+00 -0.5050505E-02  0.5636033E-06  0.0000000E+00 -0.1257493E-03
 -0.4827325E-02  0.0000000E+00 -0.5050505E-02  0.5684310E-06  0.0000000E+00 -0.1246001E-03
 -0.4769372E-02  0.0000000E+00 -0.5050505E-02  0.5707610E-06  0.0000000E+00 -0.1234438E-03
 -0.4690458E-02  0.0000000E+00 -0.5050505E-02  0.5703813E-06  0.0000000E+00 -0.1222857E-03
 -0.4611543E-02  0.0000000E+00 -0.5050505E-02  0.5671268E-06  0.0000000E+00 -0.1211315E-03
 -0.4503035E-02  0.0000000E+00 -0.5050505E-02  0.5609010E-06  0.0000000E+00 -0.1199870E-03
 -0.4345206E-02  0.0000000E+00 -0.5050505E-02  0.5516944E-06  0.0000000E+00 -0.1188583E-03
 -0.4187378E-02  0.0000000E+00 -0.5050505E-02  0.5395974E-06  0.0000000E+00 -0.1177514E-03
 -0.3985156E-02  0.0000000E+00 -0.5050505E-02  0.5248014E-06  0.0000000E+00 -0.1166718E-03
 -0.3669499E-02  0.0000000E+00 -0.5050505E-02  0.5075871E-06  0.0000000E+00 -0.1156249E-03
 -0.3353842E-02  0.0000000E+00 -0.5050505E-02  0.4883013E-06  0.0000000E+00 -0.1146151E-03
 -0.2978990E-02  0.0000000E+00 -0.5050505E-02  0.4673269E-06  0.0000000E+00 -0.1136463E-03
 -0.2347676E-02  0.0000000E+00 -0.5050505E-02  0.4450550E-06  0.0000000E+00 -0.1127214E-03
 -0.1716362E-02  0.0000000E+00 -0.5050505E-02  0.4218650E-06  0.0000000E+00 -0.1118427E-03
 -0.1025842E-02  0.0000000E+00 -0.5050505E-02  0.3981148E-06  0.0000000E+00 -0.1110116E-03
  0.2367855E-03  0.0000000E+00 -0.5050505E-02  0.3741413E-06  0.0000000E+00 -0.1102290E-03
  0.1499413E-02  0.0000000E+00 -0.5050505E-02  0.3502636E-06  0.0000000E+00 -0.1094949E-03
  0.2762042E-02  0.0000000E+00 -0.5050505E-02  0.3267847E-06  0.0000000E+00 -0.1088089E-03
 -0.5050505E-02  0.0000000E+00 -0.5050505E-02  0.3039854E-06  0.0000000E+00 -0.1081698E-03
 -0.5050505E-02  0.0000000E+00 -0.5050505E-02  0.2821089E-06  0.0000000E+00 -0.1075761E-03
 -0.5050505E-02  0.0000000E+00 -0.5050505E-02  0.2613367E-06  0.0000000E+00 -0.1070255E-03
 -0.5050505E-02  0.0000000E+00 -0.5050505E-02  0.2417562E-06  0.0000000E+00 -0.1065159E-03
 -0.5050505E-02  0.0000000E+00 -0.5050505E-02  0.2233183E-06  0.0000000E+00 -0.1060448E-03
 -0.5050505E-02  0.0000000E+00 -0.5050505E-02  0.2057771E-06  0.0000000E+00 -0.1056102E-03
 -0.5050505E-02  0.0000000E+00 -0.5050505E-02  0.1885931E-06  0.0000000E+00 -0.1052108E-03
 -0.5050504E-02  0.0000000E+00 -0.5050505E-02  0.1707709E-06  0.0000000E+00 -0.1048468E-03
 -0.5050501E-02  0.0000000E+00 -0.5050505E-02  0.1505915E-06  0.0000000E+00 -0.1045214E-03
 -0.5050495E-02  0.0000000E+00 -0.5050505E-02  0.1252045E-06  0.0000000E+00 -0.1042421E-03
 -0.5050482E-02  0.0000000E+00 -0.5050505E-02  0.9009726E-07  0.0000000E+00 -0.1040240E-03
 -0.5050449E-02  0.0000000E+00 -0.5050505E-02  0.3864988E-07  0.0000000E+00 -0.1038937E-03
 -0.5050376E-02  0.0000000E+00 -0.5050505E-02 -0.3755021E-07  0.0000000E+00 -0.1038926E-03
 -0.5050299E-02  0.0000000E+00 -0.5050505E-02 -0.1461292E-06  0.0000000E+00 -0.1040786E-03
 -0.5050178E-02  0.0000000E+00 -0.5050505E-02 -0.2870342E-06  0.0000000E+00 -0.1045172E-03
 -0.5050018E-02  0.0000000E+00 -0.5050505E-02 -0.4421884E-06  0.0000000E+00 -0.1052557E-03
 -0.5049710E-02  0.0000000E+00 -0.5050505E-02 -0.5754537E-06  0.0000000E+00 -0.1062864E-03
 -0.5049253E-02  0.0000000E+00 -0.5050505E-02 -0.6691774E-06  0.0000000E+00 -0.1075472E-03
 -0.5048636E-02  0.0000000E+00 -0.5050505E-02 -0.7240508E-06  0.0000000E+00 -0.1089587E-03
 -0.5047442E-02  0.0000000E+00 -0.5050505E-02 -0.7486127E-06  0.0000000E+00 -0.1104509E-03
 -0.5045727E-02  0.0000000E+00 -0.5050505E-02 -0.7522081E-06  0.0000000E+00 -0.1119719E-03
 -0.5043261E-02  0.0000000E+00 -0.5050505E-02 -0.7423015E-06  0.0000000E+00 -0.1134867E-03
 -0.5038714E-02  0.0000000E+00 -0.5050505E-02 -0.7241062E-06  0.0000000E+00 -0.1149734E-03
 -0.5032318E-02  0.0000000E+00 -0.5050505E-02 -0.7010202E-06  0.0000000E+00 -0.1164185E-03
 -0.5022454E-02  0.0000000E+00 -0.5050505E-02 -0.6751771E-06  0.0000000E+00 -0.1178142E-03
 -0.5012589E-02  0.0000000E+00 -0.5050505E-02 -0.6478907E-06  0.0000000E+00 -0.1191562E-03
 -0.5002725E-02  0.0000000E+00 -0.5050505E-02 -0.6199614E-06  0.0000000E+00 -0.1204424E-03
 -0.4992860E-02  0.0000000E+00 -0.5050505E-02 -0.5918734E-06  0.0000000E+00 -0.1216720E-03
 -0.4976523E-02  0.0000000E+00 -0.5050505E-02 -0.5639172E-06  0.0000000E+00 -0.1228449E-03
 -0.4956794E-02  0.0000000E+00 -0.5050505E-02 -0.5362642E-06  0.0000000E+00 -0.1239615E-03
 -0.4937066E-02  0.0000000E+00 -0.5050505E-02 -0.5090137E-06  0.0000000E+00 -0.1250225E-03
 -0.4906239E-02  0.0000000E+00 -0.5050505E-02 -0.4822222E-06  0.0000000E+00 -0.1260288E-03
 -0.4866782E-02  0.0000000E+00 -0.5050505E-02 -0.4559237E-06  0.0000000E+00 -0.1269814E-03
 -0.4827325E-02  0.0000000E+00 -0.5050505E-02 -0.4301450E-06  0.0000000E+00 -0.1278811E-03
 -0.4769372E-02  0.0000000E+00 -0.5050505E-02 -0.4049193E-06  0.0000000E+00 -0.1287292E-03
 -0.4690458E-02  0.0000000E+00 -0.5050505E-02 -0.3803020E-06  0.0000000E+00 -0.1295267E-03
 -0.4611543E-02  0.0000000E+00 -0.5050505E-02 -0.3563898E-06  0.0000000E+00 -0.1302750E-03
 -0.4503035E-02  0.0000000E+00 -0.5050505E-02 -0.3333510E-06  0.0000000E+00 -0.1309756E-03
 -0.4345206E-02  0.0000000E+00 -0.5050505E-02 -0.3114738E-06  0.0000000E+00 -0.1316307E-03
 -0.4187378E-02  0.0000000E+00 -0.5050505E-02 -0.2912537E-06  0.0000000E+00 -0.1322431E-03
 -0.3985156E-02  0.0000000E+00 -0.5050505E-02 -0.2735568E-06  0.0000000E+00 -0.1328170E-03
 -0.3669499E-02  0.0000000E+00 -0.5050505E-02 -0.2599496E-06  0.0000000E+00 -0.1333591E-03
 -0.3353842E-02  0.0000000E+00 -0.5050505E-02 -0.2534087E-06  0.0000000E+00 -0.1338808E-03
 -0.2978990E-02  0.0000000E+00 -0.5050505E-02 -0.2599691E-06  0.0000000E+00 -0.1344025E-03
 -0.2347676E-02  0.0000000E+00 -0.5050505E-02 -0.2928872E-06  0.0000000E+00 -0.1349644E-03
 -0.1716362E-02  0.0000000E+00 -0.5050505E-02 -0.3841617E-06  0.0000000E+00 -0.1356525E-03
 -0.1025842E-02  0.0000000E+00 -0.5050505E-02 -0.6195571E-06  0.0000000E+00 -0.1366728E-03
  0.2367855E-03  0.0000000E+00 -0.5050505E-02 -0.1255312E-05  0.0000000E+00 -0.1385789E-03
  0.1499413E-02  0.0000000E+00 -0.5050505E-02 -0.3141244E-05  0.0000000E+00 -0.1430497E-03
  0.5287294E-02  0.0000000E+00 -0.5050505E-02 -0.5057326E-04  0.0000000E+00 -0.1142888E-03
 -0.5050505E-02  0.0000000E+00 -0.5050505E-02  0.3064711E-07  0.0000000E+00 -0.1453754E-03
 -0.5050505E-02  0.0000000E+00 -0.5050505E-02  0.9193663E-07  0.0000000E+00 -0.1453337E-03
 -0.5050505E-02  0.0000000E+00 -0.5050505E-02  0.1532121E-06  0.0000000E+00 -0.1452503E-03
 -0.5050505E-02  0.0000000E+00 -0.5050505E-02  0.2144639E-06  0.0000000E+00 -0.1451252E-03
 -0.5050505E-02  0.0000000E+00 -0.5050505E-02  0.2756818E-06  0.0000000E+00 -0.1449584E-03
 -0.5050505E-02  0.0000000E+00 -0.5050505E-02  0.3368548E-06  0.0000000E+00 -0.1447500E-03
 -0.5050504E-02  0.0000000E+00 -0.5050505E-02  0.3979703E-06  0.0000000E+00 -0.1445000E-03
 -0.5050501E-02  0.0000000E+00 -0.5050505E-02  0.4590139E-06  0.0000000E+00 -0.1442085E-03
 -0.5050495E-02  0.0000000E+00 -0.5050505E-02  0.5199687E-06  0.0000000E+00 -0.1438754E-03
 -0.5050482E-02  0.0000000E+00 -0.5050505E-02  0.5808148E-06  0.0000000E+00 -0.1435009E-03
 -0.5050449E-02  0.0000000E+00 -0.5050505E-02  0.6415281E-06  0.0000000E+00 -0.1430851E-03
 -0.5050376E-02  0.0000000E+00 -0.5050505E-02  0.7020795E-06  0.0000000E+00 -0.1426280E-03
 -0.5050299E-02  0.0000000E+00 -0.5050505E-02  0.7624337E-06  0.0000000E+00 -0.1421298E-03
 -0.5050178E-02  0.0000000E+00 -0.5050505E-02  0.8225477E-06  0.0000000E+00 -0.1415907E-03
 -0.5050018E-02  0.0000000E+00 -0.5050505E-02  0.8823690E-06  0.0000000E+00 -0.1410107E-03
 -0.5049710E-02  0.0000000E+00 -0.5050505E-02  0.9418338E-06  0.0000000E+00 -0.1403902E-03
 -0.5049253E-02  0.0000000E+00 -0.5050505E-02  0.1000864E-05  0.0000000E+00 -0.1397294E-03
 -0.5048636E-02  0.0000000E+00 -0.5050505E-02  0.1059366E-05  0.0000000E+00 -0.1390286E-03
 -0.5047442E-02  0.0000000E+00 -0.5050505E-02  0.1117225E-05  0.0000000E+00 -0.1382882E-03
 -0.5045727E-02  0.0000000E+00 -0.5050505E-02  0.1174303E-05  0.0000000E+00 -0.1375087E-03
 -0.5043261E-02  0.0000000E+00 -0.5050505E-02  0.1230434E-05  0.0000000E+00 -0.1366907E-03
 -0.5038714E-02  0.0000000E+00 -0.5050505E-02  0.1285419E-05  0.0000000E+00 -0.1358349E-03
 -0.5032318E-02  0.0000000E+00 -0.5050505E-02  0.1339022E-05  0.0000000E+00 -0.1349421E-03
 -0.5022454E-02  0.0000000E+00 -0.5050505E-02  0.1390960E-05  0.0000000E+00 -0.1340134E-03
 -0.5012589E-02  0.0000000E+00 -0.5050505E-02  0.1440904E-05  0.0000000E+00 -0.1330499E-03
 -0.5002725E-02  0.0000000E+00 -0.5050505E-02  0.1488464E-05  0.0000000E+00 -0.1320532E-03
 -0.4992860E-02  0.0000000E+00 -0.5050505E-02  0.1533192E-05  0.0000000E+00 -0.1310250E-03
 -0.4976523E-02  0.0000000E+00 -0.5050505E-02  0.1574572E-05  0.0000000E+00 -0.1299673E-03
 -0.4956794E-02  0.0000000E+00 -0.5050505E-02  0.1612021E-05  0.0000000E+00 -0.1288827E-03
 -0.4937066E-02  0.0000000E+00 -0.5050505E-02  0.1644890E-05  0.0000000E+00 -0.1277740E-03
 -0.4906239E-02  0.0000000E+00 -0.5050505E-02  0.1672473E-05  0.0000000E+00 -0.1266445E-03
 -0.4866782E-02  0.0000000E+00 -0.5050505E-02  0.1694023E-05  0.0000000E+00 -0.1254981E-03
 -0.4827325E-02  0.0000000E+00 -0.5050505E-02  0.1708778E-05  0.0000000E+00 -0.1243392E-03
 -0.4769372E-02  0.0000000E+00 -0.5050505E-02  0.1716003E-05  0.0000000E+00 -0.1231726E-03
 -0.4690458E-02  0.0000000E+00 -0.5050505E-02  0.1715038E-05  0.0000000E+00 -0.1220038E-03
 -0.4611543E-02  0.0000000E+00 -0.5050505E-02  0.1705368E-05  0.0000000E+00 -0.1208386E-03
 -0.4503035E-02  0.0000000E+00 -0.5050505E-02  0.1686681E-05  0.0000000E+00 -0.1196831E-03
 -0.4345206E-02  0.0000000E+00 -0.5050505E-02  0.1658938E-05  0.0000000E+00 -0.1185435E-03
 -0.4187378E-02  0.0000000E+00 -0.5050505E-02  0.1622409E-05  0.0000000E+00 -0.1174262E-03
 -0.3985156E-02  0.0000000E+00 -0.5050505E-02  0.1577682E-05  0.0000000E+00 -0.1163369E-03
 -0.3669499E-02  0.0000000E+00 -0.5050505E-02  0.1525626E-05  0.0000000E+00 -0.1152810E-03
 -0.3353842E-02  0.0000000E+00 -0.5050505E-02  0.1467314E-05  0.0000000E+00 -0.1142633E-03
 -0.2978990E-02  0.0000000E+00 -0.5050505E-02  0.1403927E-05  0.0000000E+00 -0.1132875E-03
 -0.2347676E-02  0.0000000E+00 -0.5050505E-02  0.1336662E-05  0.0000000E+00 -0.1123567E-03
 -0.1716362E-02  0.0000000E+00 -0.5050505E-02  0.1266667E-05  0.0000000E+00 -0.1114730E-03
 -0.1025842E-02  0.0000000E+00 -0.5050505E-02  0.1195020E-05  0.0000000E+00 -0.1106380E-03
  0.2367855E-03  0.0000000E+00 -0.5050505E-02  0.1122730E-05  0.0000000E+00 -0.1098524E-03
  0.1499413E-02  0.0000000E+00 -0.5050505E-02  0.1050754E-05  0.0000000E+00 -0.1091161E-03
  0.2762042E-02  0.0000000E+00 -0.5050505E-02  0.9800076E-06  0.0000000E+00 -0.1084286E-03
 -0.5050505E-02  0.0000000E+00 -0.5050505E-02  0.9113502E-06  0.0000000E+00 -0.1077888E-03
 -0.5050505E-02  0.0000000E+00 -0.5050505E-02  0.8455362E-06  0.0000000E+00 -0.1071949E-03
 -0.5050505E-02  0.0000000E+00 -0.5050505E-02  0.7831423E-06  0.0000000E+00 -0.1066446E-03
 -0.5050505E-02  0.0000000E+00 -0.5050505E-02  0.7244713E-06  0.0000000E+00 -0.1061353E-03
 -0.5050505E-02  0.0000000E+00 -0.5050505E-02  0.6694340E-06  0.0000000E+00 -0.1056642E-03
 -0.5050505E-02  0.0000000E+00 -0.5050505E-02  0.6173846E-06  0.0000000E+00 -0.1052289E-03
 -0.5050505E-02  0.0000000E+00 -0.5050505E-02  0.5668598E-06  0.0000000E+00 -0.1048273E-03
 -0.5050504E-02  0.0000000E+00 -0.5050505E-02  0.5151305E-06  0.0000000E+00 -0.1044584E-03
 -0.5050501E-02  0.0000000E+00 -0.5050505E-02  0.4574342E-06  0.0000000E+00 -0.1041235E-03
 -0.5050495E-02  0.0000000E+00 -0.5050505E-02  0.3857313E-06  0.0000000E+00 -0.1038275E-03
 -0.5050482E-02  0.0000000E+00 -0.5050505E-02  0.2869087E-06  0.0000000E+00 -0.1035818E-03
 -0.5050449E-02  0.0000000E+00 -0.5050505E-02  0.1407756E-06  0.0000000E+00 -0.1034091E-03
 -0.5050376E-02  0.0000000E+00 -0.5050505E-02 -0.8047560E-07  0.0000000E+00 -0.1033502E-03
 -0.5050299E-02  0.0000000E+00 -0.5050505E-02 -0.4065546E-06  0.0000000E+00 -0.1034719E-03
 -0.5050178E-02  0.0000000E+00 -0.5050505E-02 -0.8475240E-06  0.0000000E+00 -0.1038658E-03
 -0.5050018E-02  0.0000000E+00 -0.5050505E-02 -0.1349136E-05  0.0000000E+00 -0.1046153E-03
 -0.5049710E-02  0.0000000E+00 -0.5050505E-02 -0.1766760E-05  0.0000000E+00 -0.1057125E-03
 -0.5049253E-02  0.0000000E+00 -0.5050505E-02 -0.2047517E-05  0.0000000E+00 -0.1070578E-03
 -0.5048636E-02  0.0000000E+00 -0.5050505E-02 -0.2203847E-05  0.0000000E+00 -0.1085455E-03
 -0.5047442E-02  0.0000000E+00 -0.5050505E-02 -0.2268345E-05  0.0000000E+00 -0.1100964E-03
 -0.5045727E-02  0.0000000E+00 -0.5050505E-02 -0.2271729E-05  0.0000000E+00 -0.1116594E-03
 -0.5043261E-02  0.0000000E+00 -0.5050505E-02 -0.2236783E-05  0.0000000E+00 -0.1132035E-03
 -0.5038714E-02  0.0000000E+00 -0.5050505E-02 -0.2178732E-05  0.0000000E+00 -0.1147104E-03
 -0.5032318E-02  0.0000000E+00 -0.5050505E-02 -0.2107240E-05  0.0000000E+00 -0.1161699E-03
 -0.5022454E-02  0.0000000E+00 -0.5050505E-02 -0.2028278E-05  0.0000000E+00 -0.1175762E-03
 -0.5012589E-02  0.0000000E+00 -0.5050505E-02 -0.1945490E-05  0.0000000E+00 -0.1189263E-03
 -0.5002725E-02  0.0000000E+00 -0.5050505E-02 -0.1861088E-05  0.0000000E+00 -0.1202189E-03
 -0.4992860E-02  0.0000000E+00 -0.5050505E-02 -0.1776406E-05  0.0000000E+00 -0.1214537E-03
 -0.4976523E-02  0.0000000E+00 -0.5050505E-02 -0.1692243E-05  0.0000000E+00 -0.1226309E-03
 -0.4956794E-02  0.0000000E+00 -0.5050505E-02 -0.1609070E-05  0.0000000E+00 -0.1237512E-03
 -0.4937066E-02  0.0000000E+00 -0.5050505E-02 -0.1527155E-05  0.0000000E+00 -0.1248153E-03
 -0.4906239E-02  0.0000000E+00 -0.5050505E-02 -0.1446650E-05  0.0000000E+00 -0.1258243E-03
 -0.4866782E-02  0.0000000E+00 -0.5050505E-02 -0.1367639E-05  0.0000000E+00 -0.1267792E-03
 -0.4827325E-02  0.0000000E+00 -0.5050505E-02 -0.1290189E-05  0.0000000E+00 -0.1276809E-03
 -0.4769372E-02  0.0000000E+00 -0.5050505E-02 -0.1214386E-05  0.0000000E+00 -0.1285305E-03
 -0.4690458E-02  0.0000000E+00 -0.5050505E-02 -0.1140374E-05  0.0000000E+00 -0.1293292E-03
 -0.4611543E-02  0.0000000E+00 -0.5050505E-02 -0.1068413E-05  0.0000000E+00 -0.1300781E-03
 -0.4503035E-02  0.0000000E+00 -0.5050505E-02 -0.9989586E-06  0.0000000E+00 -0.1307787E-03
 -0.4345206E-02  0.0000000E+00 -0.5050505E-02 -0.9327883E-06  0.0000000E+00 -0.1314327E-03
 -0.4187378E-02  0.0000000E+00 -0.5050505E-02 -0.8712241E-06  0.0000000E+00 -0.1320425E-03
 -0.3985156E-02  0.0000000E+00 -0.5050505E-02 -0.8165357E-06  0.0000000E+00 -0.1326111E-03
 -0.3669499E-02  0.0000000E+00 -0.5050505E-02 -0.7727170E-06  0.0000000E+00 -0.1331432E-03
 -0.3353842E-02  0.0000000E+00 -0.5050505E-02 -0.7470629E-06  0.0000000E+00 -0.1336456E-03
 -0.2978990E-02  0.0000000E+00 -0.5050505E-02 -0.7535551E-06  0.0000000E+00 -0.1341285E-03
 -0.2347676E-02  0.0000000E+00 -0.5050505E-02 -0.8205710E-06  0.0000000E+00 -0.1346061E-03
 -0.1716362E-02  0.0000000E+00 -0.5050505E-02 -0.1009512E-05  0.0000000E+00 -0.1350917E-03
 -0.1025842E-02  0.0000000E+00 -0.5050505E-02 -0.1462488E-05  0.0000000E+00 -0.1355666E-03
  0.2367855E-03  0.0000000E+00 -0.5050505E-02 -0.2530888E-05  0.0000000E+00 -0.1358196E-03
  0.1499413E-02  0.0000000E+00 -0.5050505E-02 -0.5136618E-05  0.0000000E+00 -0.1346892E-03
  0.5287294E-02  0.0000000E+00 -0.5050505E-02 -0.1181176E-04  0.0000000E+00 -0.1265355E-03
 -0.5050505E-02  0.0000000E+00 -0.5050505E-02  0.5112378E-07  0.0000000E+00 -0.1450795E-03
 -0.5050505E-02  0.0000000E+00 -0.5050505E-02  0.1533640E-06  0.0000000E+00 -0.1450375E-03
 -0.5050505E-02  0.0000000E+00 -0.5050505E-02  0.2555820E-06  0.0000000E+00 -0.1449535E-03
 -0.5050505E-02  0.0000000E+00 -0.5050505E-02  0.3577626E-06  0.0000000E+00 -0.1448277E-03
 -0.5050505E-02  0.0000000E+00 -0.5050505E-02  0.4598897E-06  0.0000000E+00 -0.1446598E-03
 -0.5050505E-02  0.0000000E+00 -0.5050505E-02  0.5619457E-06  0.0000000E+00 -0.1444501E-03
 -0.5050504E-02  0.0000000E+00 -0.5050505E-02  0.6639107E-06  0.0000000E+00 -0.1441985E-03
 -0.5050501E-02  0.0000000E+00 -0.5050505E-02  0.7657618E-06  0.0000000E+00 -0.1439050E-03
 -0.5050495E-02  0.0000000E+00 -0.5050505E-02  0.8674721E-06  0.0000000E+00 -0.1435698E-03
 -0.5050482E-02  0.0000000E+00 -0.5050505E-02  0.9690097E-06  0.0000000E+00 -0.1431928E-03
 -0.5050449E-02  0.0000000E+00 -0.5050505E-02  0.1070336E-05  0.0000000E+00 -0.1427742E-03
 -0.5050376E-02  0.0000000E+00 -0.5050505E-02  0.1171405E-05  0.0000000E+00 -0.1423140E-03
 -0.5050299E-02  0.0000000E+00 -0.5050505E-02  0.1272160E-05  0.0000000E+00 -0.1418124E-03
 -0.5050178E-02  0.0000000E+00 -0.5050505E-02  0.1372531E-05  0.0000000E+00 -0.1412694E-03
 -0.5050018E-02  0.0000000E+00 -0.5050505E-02  0.1472434E-05  0.0000000E+00 -0.1406853E-03
 -0.5049710E-02  0.0000000E+00 -0.5050505E-02  0.1571766E-05  0.0000000E+00 -0.1400601E-03
 -0.5049253E-02  0.0000000E+00 -0.5050505E-02  0.1670401E-05  0.0000000E+00 -0.1393943E-03
 -0.5048636E-02  0.0000000E+00 -0.5050505E-02  0.1768185E-05  0.0000000E+00 -0.1386880E-03
 -0.5047442E-02  0.0000000E+00 -0.5050505E-02  0.1864933E-05  0.0000000E+00 -0.1379417E-03
 -0.5045727E-02  0.0000000E+00 -0.5050505E-02  0.1960420E-05  0.0000000E+00 -0.1371557E-03
 -0.5043261E-02  0.0000000E+00 -0.5050505E-02  0.2054376E-05  0.0000000E+00 -0.1363305E-03
 -0.5038714E-02  0.0000000E+00 -0.5050505E-02  0.2146473E-05  0.0000000E+00 -0.1354669E-03
 -0.5032318E-02  0.0000000E+00 -0.5050505E-02  0.2236324E-05  0.0000000E+00 -0.1345656E-03
 -0.5022454E-02  0.0000000E+00 -0.5050505E-02  0.2323466E-05  0.0000000E+00 -0.1336276E-03
 -0.5012589E-02  0.0000000E+00 -0.5050505E-02  0.2407352E-05  0.0000000E+00 -0.1326540E-03
 -0.5002725E-02  0.0000000E+00 -0.5050505E-02  0.2487339E-05  0.0000000E+00 -0.1316462E-03
 -0.4992860E-02  0.0000000E+00 -0.5050505E-02  0.2562682E-05  0.0000000E+00 -0.1306058E-03
 -0.4976523E-02  0.0000000E+00 -0.5050505E-02  0.2632518E-05  0.0000000E+00 -0.1295349E-03
 -0.4956794E-02  0.0000000E+00 -0.5050505E-02  0.2695870E-05  0.0000000E+00 -0.1284358E-03
 -0.4937066E-02  0.0000000E+00 -0.5050505E-02  0.2751640E-05  0.0000000E+00 -0.1273114E-03
 -0.4906239E-02  0.0000000E+00 -0.5050505E-02  0.2798626E-05  0.0000000E+00 -0.1261649E-03
 -0.4866782E-02  0.0000000E+00 -0.5050505E-02  0.2835547E-05  0.0000000E+00 -0.1250002E-03
 -0.4827325E-02  0.0000000E+00 -0.5050505E-02  0.2861082E-05  0.0000000E+00 -0.1238217E-03
 -0.4769372E-02  0.0000000E+00 -0.5050505E-02  0.2873938E-05  0.0000000E+00 -0.1226344E-03
 -0.4690458E-02  0.0000000E+00 -0.5050505E-02  0.2872941E-05  0.0000000E+00 -0.1214440E-03
 -0.4611543E-02  0.0000000E+00 -0.5050505E-02  0.2857148E-05  0.0000000E+00 -0.1202566E-03
 -0.4503035E-02  0.0000000E+00 -0.5050505E-02  0.2825972E-05  0.0000000E+00 -0.1190788E-03
 -0.4345206E-02  0.0000000E+00 -0.5050505E-02  0.2779301E-05  0.0000000E+00 -0.1179173E-03
 -0.4187378E-02  0.0000000E+00 -0.5050505E-02  0.2717582E-05  0.0000000E+00 -0.1167788E-03
 -0.3985156E-02  0.0000000E+00 -0.5050505E-02  0.2641845E-05  0.0000000E+00 -0.1156697E-03
 -0.3669499E-02  0.0000000E+00 -0.5050505E-02  0.2553631E-05  0.0000000E+00 -0.1145959E-03
 -0.3353842E-02  0.0000000E+00 -0.5050505E-02  0.2454850E-05  0.0000000E+00 -0.1135621E-03
 -0.2978990E-02  0.0000000E+00 -0.5050505E-02  0.2347581E-05  0.0000000E+00 -0.1125724E-03
 -0.2347676E-02  0.0000000E+00 -0.5050505E-02  0.2233902E-05  0.0000000E+00 -0.1116298E-03
 -0.1716362E-02  0.0000000E+00 -0.5050505E-02  0.2115767E-05  0.0000000E+00 -0.1107364E-03
 -0.1025842E-02  0.0000000E+00 -0.5050505E-02  0.1994976E-05  0.0000000E+00 -0.1098936E-03
  0.2367855E-03  0.0000000E+00 -0.5050505E-02  0.1873197E-05  0.0000000E+00 -0.1091018E-03
  0.1499413E-02  0.0000000E+00 -0.5050505E-02  0.1752023E-05  0.0000000E+00 -0.1083612E-03
  0.2762042E-02  0.0000000E+00 -0.5050505E-02  0.1633003E-05  0.0000000E+00 -0.1076710E-03
 -0.5050505E-02  0.0000000E+00 -0.5050505E-02  0.1517624E-05  0.0000000E+00 -0.1070299E-03
 -0.5050505E-02  0.0000000E+00 -0.5050505E-02  0.1407231E-05  0.0000000E+00 -0.1064358E-03
 -0.5050505E-02  0.0000000E+00 -0.5050505E-02  0.1302888E-05  0.0000000E+00 -0.1058862E-03
 -0.5050505E-02  0.0000000E+00 -0.5050505E-02  0.1205232E-05  0.0000000E+00 -0.1053780E-03
 -0.5050505E-02  0.0000000E+00 -0.5050505E-02  0.1114288E-05  0.0000000E+00 -0.1049076E-03
 -0.5050505E-02  0.0000000E+00 -0.5050505E-02  0.1029257E-05  0.0000000E+00 -0.1044717E-03
 -0.5050505E-02  0.0000000E+00 -0.5050505E-02  0.9481782E-06  0.0000000E+00 -0.1040668E-03
 -0.5050504E-02  0.0000000E+00 -0.5050505E-02  0.8673249E-06  0.0000000E+00 -0.1036898E-03
 -0.5050501E-02  0.0000000E+00 -0.5050505E-02  0.7800881E-06  0.0000000E+00 -0.1033386E-03
 -0.5050495E-02  0.0000000E+00 -0.5050505E-02  0.6749720E-06  0.0000000E+00 -0.1030127E-03
 -0.5050482E-02  0.0000000E+00 -0.5050505E-02  0.5321840E-06  0.0000000E+00 -0.1027153E-03
 -0.5050449E-02  0.0000000E+00 -0.5050505E-02  0.3184162E-06  0.0000000E+00 -0.1024586E-03
 -0.5050376E-02  0.0000000E+00 -0.5050505E-02 -0.1928016E-07  0.0000000E+00 -0.1022755E-03
 -0.5050299E-02  0.0000000E+00 -0.5050505E-02 -0.5540803E-06  0.0000000E+00 -0.1022426E-03
 -0.5050178E-02  0.0000000E+00 -0.5050505E-02 -0.1350328E-05  0.0000000E+00 -0.1025108E-03
 -0.5050018E-02  0.0000000E+00 -0.5050505E-02 -0.2343158E-05  0.0000000E+00 -0.1032829E-03
 -0.5049710E-02  0.0000000E+00 -0.5050505E-02 -0.3098953E-05  0.0000000E+00 -0.1045498E-03
 -0.5049253E-02  0.0000000E+00 -0.5050505E-02 -0.3555479E-05  0.0000000E+00 -0.1060910E-03
 -0.5048636E-02  0.0000000E+00 -0.5050505E-02 -0.3781594E-05  0.0000000E+00 -0.1077402E-03
 -0.5047442E-02  0.0000000E+00 -0.5050505E-02 -0.3855835E-05  0.0000000E+00 -0.1094079E-03
 -0.5045727E-02  0.0000000E+00 -0.5050505E-02 -0.3836394E-05  0.0000000E+00 -0.1110511E-03
 -0.5043261E-02  0.0000000E+00 -0.5050505E-02 -0.3761086E-05  0.0000000E+00 -0.1126497E-03
 -0.5038714E-02  0.0000000E+00 -0.5050505E-02 -0.3653251E-05  0.0000000E+00 -0.1141944E-03
 -0.5032318E-02  0.0000000E+00 -0.5050505E-02 -0.3527006E-05  0.0000000E+00 -0.1156807E-03
 -0.5022454E-02  0.0000000E+00 -0.5050505E-02 -0.3390847E-05  0.0000000E+00 -0.1171069E-03
 -0.5012589E-02  0.0000000E+00 -0.5050505E-02 -0.3249886E-05  0.0000000E+00 -0.1184723E-03
 -0.5002725E-02  0.0000000E+00 -0.5050505E-02 -0.3107210E-05  0.0000000E+00 -0.1197771E-03
 -0.4992860E-02  0.0000000E+00 -0.5050505E-02 -0.2964678E-05  0.0000000E+00 -0.1210219E-03
 -0.4976523E-02  0.0000000E+00 -0.5050505E-02 -0.2823401E-05  0.0000000E+00 -0.1222075E-03
 -0.4956794E-02  0.0000000E+00 -0.5050505E-02 -0.2684023E-05  0.0000000E+00 -0.1233350E-03
 -0.4937066E-02  0.0000000E+00 -0.5050505E-02 -0.2546907E-05  0.0000000E+00 -0.1244053E-03
 -0.4906239E-02  0.0000000E+00 -0.5050505E-02 -0.2412240E-05  0.0000000E+00 -0.1254196E-03
 -0.4866782E-02  0.0000000E+00 -0.5050505E-02 -0.2280119E-05  0.0000000E+00 -0.1263790E-03
 -0.4827325E-02  0.0000000E+00 -0.5050505E-02 -0.2150611E-05  0.0000000E+00 -0.1272846E-03
 -0.4769372E-02  0.0000000E+00 -0.5050505E-02 -0.2023808E-05  0.0000000E+00 -0.1281374E-03
 -0.4690458E-02  0.0000000E+00 -0.5050505E-02 -0.1899889E-05  0.0000000E+00 -0.1289385E-03
 -0.4611543E-02  0.0000000E+00 -0.5050505E-02 -0.1779196E-05  0.0000000E+00 -0.1296888E-03
 -0.4503035E-02  0.0000000E+00 -0.5050505E-02 -0.1662342E-05  0.0000000E+00 -0.1303896E-03
 -0.4345206E-02  0.0000000E+00 -0.5050505E-02 -0.1550370E-05  0.0000000E+00 -0.1310421E-03
 -0.4187378E-02  0.0000000E+00 -0.5050505E-02 -0.1445026E-05  0.0000000E+00 -0.1316476E-03
 -0.3985156E-02  0.0000000E+00 -0.5050505E-02 -0.1349210E-05  0.0000000E+00 -0.1322077E-03
 -0.3669499E-02  0.0000000E+00 -0.5050505E-02 -0.1267776E-05  0.0000000E+00 -0.1327242E-03
 -0.3353842E-02  0.0000000E+00 -0.5050505E-02 -0.1208979E-05  0.0000000E+00 -0.1331983E-03
 -0.2978990E-02  0.0000000E+00 -0.5050505E-02 -0.1187118E-05  0.0000000E+00 -0.1336295E-03
 -0.2347676E-02  0.0000000E+00 -0.5050505E-02 -0.1227270E-05  0.0000000E+00 -0.1340102E-03
 -0.1716362E-02  0.0000000E+00 -0.5050505E-02 -0.1373138E-05  0.0000000E+00 -0.1343125E-03
 -0.1025842E-02  0.0000000E+00 -0.5050505E-02 -0.1696290E-05  0.0000000E+00 -0.1344518E-03
  0.2367855E-03  0.0000000E+00 -0.5050505E-02 -0.2287062E-05  0.0000000E+00 -0.1342003E-03
  0.1499413E-02  0.0000000E+00 -0.5050505E-02 -0.3115472E-05  0.0000000E+00 -0.1330527E-03
  0.5287294E-02  0.0000000E+00 -0.5050505E-02 -0.3222232E-05  0.0000000E+00 -0.1304927E-03
 -0.5050505E-02  0.0000000E+00 -0.5050505E-02  0.7170711E-07  0.0000000E+00 -0.1446407E-03
 -0.5050505E-02  0.0000000E+00 -0.5050505E-02  0.2151118E-06  0.0000000E+00 -0.1445983E-03
 -0.5050505E-02  0.0000000E+00 -0.5050505E-02  0.3584879E-06  0.0000000E+00 -0.1445136E-03
 -0.5050505E-02  0.0000000E+00 -0.5050505E-02  0.5018158E-06  0.0000000E+00 -0.1443865E-03
 -0.5050505E-02  0.0000000E+00 -0.5050505E-02  0.6450745E-06  0.0000000E+00 -0.1442171E-03
 -0.5050505E-02  0.0000000E+00 -0.5050505E-02  0.7882412E-06  0.0000000E+00 -0.1440054E-03
 -0.5050504E-02  0.0000000E+00 -0.5050505E-02  0.9312901E-06  0.0000000E+00 -0.1437514E-03
 -0.5050501E-02  0.0000000E+00 -0.5050505E-02  0.1074191E-05  0.0000000E+00 -0.1434551E-03
 -0.5050495E-02  0.0000000E+00 -0.5050505E-02  0.1216910E-05  0.0000000E+00 -0.1431166E-03
 -0.5050482E-02  0.0000000E+00 -0.5050505E-02  0.1359405E-05  0.0000000E+00 -0.1427360E-03
 -0.5050449E-02  0.0000000E+00 -0.5050505E-02  0.1501625E-05  0.0000000E+00 -0.1423132E-03
 -0.5050376E-02  0.0000000E+00 -0.5050505E-02  0.1643510E-05  0.0000000E+00 -0.1418484E-03
 -0.5050299E-02  0.0000000E+00 -0.5050505E-02  0.1784984E-05  0.0000000E+00 -0.1413416E-03
 -0.5050178E-02  0.0000000E+00 -0.5050505E-02  0.1925956E-05  0.0000000E+00 -0.1407930E-03
 -0.5050018E-02  0.0000000E+00 -0.5050505E-02  0.2066313E-05  0.0000000E+00 -0.1402026E-03
 -0.5049710E-02  0.0000000E+00 -0.5050505E-02  0.2205918E-05  0.0000000E+00 -0.1395707E-03
 -0.5049253E-02  0.0000000E+00 -0.5050505E-02  0.2344602E-05  0.0000000E+00 -0.1388974E-03
 -0.5048636E-02  0.0000000E+00 -0.5050505E-02  0.2482160E-05  0.0000000E+00 -0.1381830E-03
 -0.5047442E-02  0.0000000E+00 -0.5050505E-02  0.2618340E-05  0.0000000E+00 -0.1374277E-03
 -0.5045727E-02  0.0000000E+00 -0.5050505E-02  0.2752838E-05  0.0000000E+00 -0.1366320E-03
 -0.5043261E-02  0.0000000E+00 -0.5050505E-02  0.2885288E-05  0.0000000E+00 -0.1357963E-03
 -0.5038714E-02  0.0000000E+00 -0.5050505E-02  0.3015245E-05  0.0000000E+00 -0.1349211E-03
 -0.5032318E-02  0.0000000E+00 -0.5050505E-02  0.3142178E-05  0.0000000E+00 -0.1340071E-03
 -0.5022454E-02  0.0000000E+00 -0.5050505E-02  0.3265451E-05  0.0000000E+00 -0.1330553E-03
 -0.5012589E-02  0.0000000E+00 -0.5050505E-02  0.3384312E-05  0.0000000E+00 -0.1320665E-03
 -0.5002725E-02  0.0000000E+00 -0.5050505E-02  0.3497871E-05  0.0000000E+00 -0.1310422E-03
 -0.4992860E-02  0.0000000E+00 -0.5050505E-02  0.3605086E-05  0.0000000E+00 -0.1299837E-03
 -0.4976523E-02  0.0000000E+00 -0.5050505E-02  0.3704751E-05  0.0000000E+00 -0.1288930E-03
 -0.4956794E-02  0.0000000E+00 -0.5050505E-02  0.3795481E-05  0.0000000E+00 -0.1277722E-03
 -0.4937066E-02  0.0000000E+00 -0.5050505E-02  0.3875713E-05  0.0000000E+00 -0.1266242E-03