title = "dataset feddes"
variables = "x", "y", "z", "vx", "vy", "vz"
zone t = "velocities, solution time =  3.100E+01 days        " i =   99, j =   99, k =    1,  f=point
 -0.5050505E-02  0.0000000E+00 -0.5050505E-02  0.2820817E-10  0.0000000E+00 -0.3101846E-03
 -0.5050505E-02  0.0000000E+00 -0.5050505E-02  0.8426249E-10  0.0000000E+00 -0.3101845E-03
 -0.5050505E-02  0.0000000E+00 -0.5050505E-02  0.1399641E-09  0.0000000E+00 -0.3101842E-03
 -0.5050505E-02  0.0000000E+00 -0.5050505E-02  0.1951799E-09  0.0000000E+00 -0.3101839E-03
 -0.5050505E-02  0.0000000E+00 -0.5050505E-02  0.2496818E-09  0.0000000E+00 -0.3101834E-03
 -0.5050505E-02  0.0000000E+00 -0.5050505E-02  0.3032574E-09  0.0000000E+00 -0.3101829E-03
 -0.5050504E-02  0.0000000E+00 -0.5050505E-02  0.3557026E-09  0.0000000E+00 -0.3101822E-03
 -0.5050501E-02  0.0000000E+00 -0.5050505E-02  0.4068119E-09  0.0000000E+00 -0.3101814E-03
 -0.5050495E-02  0.0000000E+00 -0.5050505E-02  0.4563874E-09  0.0000000E+00 -0.3101805E-03
 -0.5050482E-02  0.0000000E+00 -0.5050505E-02  0.5042290E-09  0.0000000E+00 -0.3101795E-03
 -0.5050449E-02  0.0000000E+00 -0.5050505E-02  0.5501419E-09  0.0000000E+00 -0.3101784E-03
 -0.5050376E-02  0.0000000E+00 -0.5050505E-02  0.5939336E-09  0.0000000E+00 -0.3101772E-03
 -0.5050299E-02  0.0000000E+00 -0.5050505E-02  0.6354137E-09  0.0000000E+00 -0.3101759E-03
 -0.5050178E-02  0.0000000E+00 -0.5050505E-02  0.6743976E-09  0.0000000E+00 -0.3101746E-03
 -0.5050018E-02  0.0000000E+00 -0.5050505E-02  0.7107034E-09  0.0000000E+00 -0.3101732E-03
 -0.5049710E-02  0.0000000E+00 -0.5050505E-02  0.7441546E-09  0.0000000E+00 -0.3101716E-03
 -0.5049253E-02  0.0000000E+00 -0.5050505E-02  0.7745806E-09  0.0000000E+00 -0.3101701E-03
 -0.5048636E-02  0.0000000E+00 -0.5050505E-02  0.8018165E-09  0.0000000E+00 -0.3101684E-03
 -0.5047442E-02  0.0000000E+00 -0.5050505E-02  0.8257041E-09  0.0000000E+00 -0.3101667E-03
 -0.5045727E-02  0.0000000E+00 -0.5050505E-02  0.8460931E-09  0.0000000E+00 -0.3101650E-03
 -0.5043261E-02  0.0000000E+00 -0.5050505E-02  0.8628409E-09  0.0000000E+00 -0.3101632E-03
 -0.5038714E-02  0.0000000E+00 -0.5050505E-02  0.8758141E-09  0.0000000E+00 -0.3101614E-03
 -0.5032318E-02  0.0000000E+00 -0.5050505E-02  0.8848888E-09  0.0000000E+00 -0.3101596E-03
 -0.5022454E-02  0.0000000E+00 -0.5050505E-02  0.8899515E-09  0.0000000E+00 -0.3101578E-03
 -0.5012589E-02  0.0000000E+00 -0.5050505E-02  0.8908998E-09  0.0000000E+00 -0.3101559E-03
 -0.5002725E-02  0.0000000E+00 -0.5050505E-02  0.8876430E-09  0.0000000E+00 -0.3101541E-03
 -0.4992860E-02  0.0000000E+00 -0.5050505E-02  0.8801027E-09  0.0000000E+00 -0.3101522E-03
 -0.4976523E-02  0.0000000E+00 -0.5050505E-02  0.8682136E-09  0.0000000E+00 -0.3101504E-03
 -0.4956794E-02  0.0000000E+00 -0.5050505E-02  0.8519242E-09  0.0000000E+00 -0.3101486E-03
 -0.4937066E-02  0.0000000E+00 -0.5050505E-02  0.8311966E-09  0.0000000E+00 -0.3101469E-03
 -0.4906239E-02  0.0000000E+00 -0.5050505E-02  0.8060077E-09  0.0000000E+00 -0.3101452E-03
 -0.4866782E-02  0.0000000E+00 -0.5050505E-02  0.7763489E-09  0.0000000E+00 -0.3101436E-03
 -0.4827325E-02  0.0000000E+00 -0.5050505E-02  0.7422267E-09  0.0000000E+00 -0.3101420E-03
 -0.4769372E-02  0.0000000E+00 -0.5050505E-02  0.7036624E-09  0.0000000E+00 -0.3101405E-03
 -0.4690458E-02  0.0000000E+00 -0.5050505E-02  0.6606921E-09  0.0000000E+00 -0.3101391E-03
 -0.4611543E-02  0.0000000E+00 -0.5050505E-02  0.6133665E-09  0.0000000E+00 -0.3101377E-03
 -0.4503035E-02  0.0000000E+00 -0.5050505E-02  0.5617506E-09  0.0000000E+00 -0.3101365E-03
 -0.4345206E-02  0.0000000E+00 -0.5050505E-02  0.5059228E-09  0.0000000E+00 -0.3101354E-03
 -0.4187378E-02  0.0000000E+00 -0.5050505E-02  0.4459740E-09  0.0000000E+00 -0.3101344E-03
 -0.3985156E-02  0.0000000E+00 -0.5050505E-02  0.3820074E-09  0.0000000E+00 -0.3101336E-03
 -0.3669499E-02  0.0000000E+00 -0.5050505E-02  0.3141361E-09  0.0000000E+00 -0.3101329E-03
 -0.3353842E-02  0.0000000E+00 -0.5050505E-02  0.2424820E-09  0.0000000E+00 -0.3101323E-03
 -0.2978990E-02  0.0000000E+00 -0.5050505E-02  0.1671738E-09  0.0000000E+00 -0.3101319E-03
 -0.2347676E-02  0.0000000E+00 -0.5050505E-02  0.8834569E-10  0.0000000E+00 -0.3101316E-03
 -0.1716362E-02  0.0000000E+00 -0.5050505E-02  0.6103848E-11  0.0000000E+00 -0.3101315E-03
 -0.1025842E-02  0.0000000E+00 -0.5050505E-02 -0.7939280E-10  0.0000000E+00 -0.3101316E-03
  0.2367855E-03  0.0000000E+00 -0.5050505E-02 -0.1679820E-09  0.0000000E+00 -0.3101318E-03
  0.1499413E-02  0.0000000E+00 -0.5050505E-02 -0.2595854E-09  0.0000000E+00 -0.3101323E-03
  0.2762042E-02  0.0000000E+00 -0.5050505E-02 -0.3540909E-09  0.0000000E+00 -0.3101329E-03
 -0.5050505E-02  0.0000000E+00 -0.5050505E-02 -0.4513983E-09  0.0000000E+00 -0.3101337E-03
 -0.5050505E-02  0.0000000E+00 -0.5050505E-02 -0.5514362E-09  0.0000000E+00 -0.3101348E-03
 -0.5050505E-02  0.0000000E+00 -0.5050505E-02 -0.6541573E-09  0.0000000E+00 -0.3101360E-03
 -0.5050505E-02  0.0000000E+00 -0.5050505E-02 -0.7595487E-09  0.0000000E+00 -0.3101375E-03
 -0.5050505E-02  0.0000000E+00 -0.5050505E-02 -0.8676420E-09  0.0000000E+00 -0.3101392E-03
 -0.5050505E-02  0.0000000E+00 -0.5050505E-02 -0.9785160E-09  0.0000000E+00 -0.3101411E-03
 -0.5050505E-02  0.0000000E+00 -0.5050505E-02 -0.1092306E-08  0.0000000E+00 -0.3101432E-03
 -0.5050504E-02  0.0000000E+00 -0.5050505E-02 -0.1209217E-08  0.0000000E+00 -0.3101456E-03
 -0.5050501E-02  0.0000000E+00 -0.5050505E-02 -0.1329537E-08  0.0000000E+00 -0.3101483E-03
 -0.5050495E-02  0.0000000E+00 -0.5050505E-02 -0.1453647E-08  0.0000000E+00 -0.3101512E-03
 -0.5050482E-02  0.0000000E+00 -0.5050505E-02 -0.1582040E-08  0.0000000E+00 -0.3101543E-03
 -0.5050449E-02  0.0000000E+00 -0.5050505E-02 -0.1715345E-08  0.0000000E+00 -0.3101577E-03
 -0.5050376E-02  0.0000000E+00 -0.5050505E-02 -0.1854343E-08  0.0000000E+00 -0.3101614E-03
 -0.5050299E-02  0.0000000E+00 -0.5050505E-02 -0.2000003E-08  0.0000000E+00 -0.3101654E-03
 -0.5050178E-02  0.0000000E+00 -0.5050505E-02 -0.2153514E-08  0.0000000E+00 -0.3101697E-03
 -0.5050018E-02  0.0000000E+00 -0.5050505E-02 -0.2316329E-08  0.0000000E+00 -0.3101744E-03
 -0.5049710E-02  0.0000000E+00 -0.5050505E-02 -0.2490217E-08  0.0000000E+00 -0.3101793E-03
 -0.5049253E-02  0.0000000E+00 -0.5050505E-02 -0.2677332E-08  0.0000000E+00 -0.3101847E-03
 -0.5048636E-02  0.0000000E+00 -0.5050505E-02 -0.2880296E-08  0.0000000E+00 -0.3101905E-03
 -0.5047442E-02  0.0000000E+00 -0.5050505E-02 -0.3102304E-08  0.0000000E+00 -0.3101967E-03
 -0.5045727E-02  0.0000000E+00 -0.5050505E-02 -0.3347260E-08  0.0000000E+00 -0.3102034E-03
 -0.5043261E-02  0.0000000E+00 -0.5050505E-02 -0.3619953E-08  0.0000000E+00 -0.3102106E-03
 -0.5038714E-02  0.0000000E+00 -0.5050505E-02 -0.3926282E-08  0.0000000E+00 -0.3102184E-03
 -0.5032318E-02  0.0000000E+00 -0.5050505E-02 -0.4273554E-08  0.0000000E+00 -0.3102269E-03
 -0.5022454E-02  0.0000000E+00 -0.5050505E-02 -0.4670880E-08  0.0000000E+00 -0.3102362E-03
 -0.5012589E-02  0.0000000E+00 -0.5050505E-02 -0.5129704E-08  0.0000000E+00 -0.3102464E-03
 -0.5002725E-02  0.0000000E+00 -0.5050505E-02 -0.5664515E-08  0.0000000E+00 -0.3102576E-03
 -0.4992860E-02  0.0000000E+00 -0.5050505E-02 -0.6293830E-08  0.0000000E+00 -0.3102700E-03
 -0.4976523E-02  0.0000000E+00 -0.5050505E-02 -0.7041551E-08  0.0000000E+00 -0.3102838E-03
 -0.4956794E-02  0.0000000E+00 -0.5050505E-02 -0.7938887E-08  0.0000000E+00 -0.3102993E-03
 -0.4937066E-02  0.0000000E+00 -0.5050505E-02 -0.9027084E-08  0.0000000E+00 -0.3103169E-03
 -0.4906239E-02  0.0000000E+00 -0.5050505E-02 -0.1036141E-07  0.0000000E+00 -0.3103370E-03
 -0.4866782E-02  0.0000000E+00 -0.5050505E-02 -0.1201707E-07  0.0000000E+00 -0.3103603E-03
 -0.4827325E-02  0.0000000E+00 -0.5050505E-02 -0.1409807E-07  0.0000000E+00 -0.3103873E-03
 -0.4769372E-02  0.0000000E+00 -0.5050505E-02 -0.1675106E-07  0.0000000E+00 -0.3104193E-03
 -0.4690458E-02  0.0000000E+00 -0.5050505E-02 -0.2018716E-07  0.0000000E+00 -0.3104576E-03
 -0.4611543E-02  0.0000000E+00 -0.5050505E-02 -0.2471761E-07  0.0000000E+00 -0.3105042E-03
 -0.4503035E-02  0.0000000E+00 -0.5050505E-02 -0.3081389E-07  0.0000000E+00 -0.3105618E-03
 -0.4345206E-02  0.0000000E+00 -0.5050505E-02 -0.3921269E-07  0.0000000E+00 -0.3106345E-03
 -0.4187378E-02  0.0000000E+00 -0.5050505E-02 -0.5110725E-07  0.0000000E+00 -0.3107281E-03
 -0.3985156E-02  0.0000000E+00 -0.5050505E-02 -0.6851335E-07  0.0000000E+00 -0.3108522E-03
 -0.3669499E-02  0.0000000E+00 -0.5050505E-02 -0.9500977E-07  0.0000000E+00 -0.3110218E-03
 -0.3353842E-02  0.0000000E+00 -0.5050505E-02 -0.1373372E-06  0.0000000E+00 -0.3112628E-03
 -0.2978990E-02  0.0000000E+00 -0.5050505E-02 -0.2091200E-06  0.0000000E+00 -0.3116222E-03
 -0.2347676E-02  0.0000000E+00 -0.5050505E-02 -0.3402933E-06  0.0000000E+00 -0.3121922E-03
 -0.1716362E-02  0.0000000E+00 -0.5050505E-02 -0.6032928E-06  0.0000000E+00 -0.3131711E-03
 -0.1025842E-02  0.0000000E+00 -0.5050505E-02 -0.1193116E-05  0.0000000E+00 -0.3150349E-03
  0.2367855E-03  0.0000000E+00 -0.5050505E-02 -0.2696071E-05  0.0000000E+00 -0.3190711E-03
  0.1499413E-02  0.0000000E+00 -0.5050505E-02 -0.7072922E-05  0.0000000E+00 -0.3292147E-03
  0.5287294E-02  0.0000000E+00 -0.5050505E-02 -0.1159570E-03  0.0000000E+00 -0.2626775E-03
 -0.5050505E-02  0.0000000E+00 -0.5050505E-02  0.8477508E-10  0.0000000E+00 -0.3100156E-03
 -0.5050505E-02  0.0000000E+00 -0.5050505E-02  0.2534018E-09  0.0000000E+00 -0.3100155E-03
 -0.5050505E-02  0.0000000E+00 -0.5050505E-02  0.4209685E-09  0.0000000E+00 -0.3100152E-03
 -0.5050505E-02  0.0000000E+00 -0.5050505E-02  0.5870583E-09  0.0000000E+00 -0.3100149E-03
 -0.5050505E-02  0.0000000E+00 -0.5050505E-02  0.7509961E-09  0.0000000E+00 -0.3100144E-03
 -0.5050505E-02  0.0000000E+00 -0.5050505E-02  0.9121477E-09  0.0000000E+00 -0.3100138E-03
 -0.5050504E-02  0.0000000E+00 -0.5050505E-02  0.1069903E-08  0.0000000E+00 -0.3100131E-03
 -0.5050501E-02  0.0000000E+00 -0.5050505E-02  0.1223644E-08  0.0000000E+00 -0.3100123E-03
 -0.5050495E-02  0.0000000E+00 -0.5050505E-02  0.1372776E-08  0.0000000E+00 -0.3100114E-03
 -0.5050482E-02  0.0000000E+00 -0.5050505E-02  0.1516699E-08  0.0000000E+00 -0.3100104E-03
 -0.5050449E-02  0.0000000E+00 -0.5050505E-02  0.1654827E-08  0.0000000E+00 -0.3100093E-03
 -0.5050376E-02  0.0000000E+00 -0.5050505E-02  0.1786581E-08  0.0000000E+00 -0.3100081E-03
 -0.5050299E-02  0.0000000E+00 -0.5050505E-02  0.1911389E-08  0.0000000E+00 -0.3100068E-03
 -0.5050178E-02  0.0000000E+00 -0.5050505E-02  0.2028696E-08  0.0000000E+00 -0.3100055E-03
 -0.5050018E-02  0.0000000E+00 -0.5050505E-02  0.2137956E-08  0.0000000E+00 -0.3100040E-03
 -0.5049710E-02  0.0000000E+00 -0.5050505E-02  0.2238637E-08  0.0000000E+00 -0.3100025E-03
 -0.5049253E-02  0.0000000E+00 -0.5050505E-02  0.2330226E-08  0.0000000E+00 -0.3100009E-03
 -0.5048636E-02  0.0000000E+00 -0.5050505E-02  0.2412229E-08  0.0000000E+00 -0.3099993E-03
 -0.5047442E-02  0.0000000E+00 -0.5050505E-02  0.2484168E-08  0.0000000E+00 -0.3099975E-03
 -0.5045727E-02  0.0000000E+00 -0.5050505E-02  0.2545593E-08  0.0000000E+00 -0.3099958E-03
 -0.5043261E-02  0.0000000E+00 -0.5050505E-02  0.2596073E-08  0.0000000E+00 -0.3099940E-03
 -0.5038714E-02  0.0000000E+00 -0.5050505E-02  0.2635208E-08  0.0000000E+00 -0.3099922E-03
 -0.5032318E-02  0.0000000E+00 -0.5050505E-02  0.2662625E-08  0.0000000E+00 -0.3099903E-03
 -0.5022454E-02  0.0000000E+00 -0.5050505E-02  0.2677983E-08  0.0000000E+00 -0.3099885E-03
 -0.5012589E-02  0.0000000E+00 -0.5050505E-02  0.2680972E-08  0.0000000E+00 -0.3099866E-03
 -0.5002725E-02  0.0000000E+00 -0.5050505E-02  0.2671321E-08  0.0000000E+00 -0.3099847E-03
 -0.4992860E-02  0.0000000E+00 -0.5050505E-02  0.2648794E-08  0.0000000E+00 -0.3099829E-03
 -0.4976523E-02  0.0000000E+00 -0.5050505E-02  0.2613193E-08  0.0000000E+00 -0.3099811E-03
 -0.4956794E-02  0.0000000E+00 -0.5050505E-02  0.2564363E-08  0.0000000E+00 -0.3099793E-03
 -0.4937066E-02  0.0000000E+00 -0.5050505E-02  0.2502192E-08  0.0000000E+00 -0.3099775E-03
 -0.4906239E-02  0.0000000E+00 -0.5050505E-02  0.2426608E-08  0.0000000E+00 -0.3099758E-03
 -0.4866782E-02  0.0000000E+00 -0.5050505E-02  0.2337586E-08  0.0000000E+00 -0.3099741E-03
 -0.4827325E-02  0.0000000E+00 -0.5050505E-02  0.2235147E-08  0.0000000E+00 -0.3099725E-03
 -0.4769372E-02  0.0000000E+00 -0.5050505E-02  0.2119353E-08  0.0000000E+00 -0.3099710E-03
 -0.4690458E-02  0.0000000E+00 -0.5050505E-02  0.1990315E-08  0.0000000E+00 -0.3099696E-03
 -0.4611543E-02  0.0000000E+00 -0.5050505E-02  0.1848184E-08  0.0000000E+00 -0.3099682E-03
 -0.4503035E-02  0.0000000E+00 -0.5050505E-02  0.1693158E-08  0.0000000E+00 -0.3099670E-03
 -0.4345206E-02  0.0000000E+00 -0.5050505E-02  0.1525472E-08  0.0000000E+00 -0.3099659E-03
 -0.4187378E-02  0.0000000E+00 -0.5050505E-02  0.1345401E-08  0.0000000E+00 -0.3099648E-03
 -0.3985156E-02  0.0000000E+00 -0.5050505E-02  0.1153257E-08  0.0000000E+00 -0.3099640E-03
 -0.3669499E-02  0.0000000E+00 -0.5050505E-02  0.9493826E-09  0.0000000E+00 -0.3099632E-03
 -0.3353842E-02  0.0000000E+00 -0.5050505E-02  0.7341455E-09  0.0000000E+00 -0.3099626E-03
 -0.2978990E-02  0.0000000E+00 -0.5050505E-02  0.5079327E-09  0.0000000E+00 -0.3099622E-03
 -0.2347676E-02  0.0000000E+00 -0.5050505E-02  0.2711395E-09  0.0000000E+00 -0.3099619E-03
 -0.1716362E-02  0.0000000E+00 -0.5050505E-02  0.2412869E-10  0.0000000E+00 -0.3099618E-03
 -0.1025842E-02  0.0000000E+00 -0.5050505E-02 -0.2326497E-09  0.0000000E+00 -0.3099619E-03
  0.2367855E-03  0.0000000E+00 -0.5050505E-02 -0.4987256E-09  0.0000000E+00 -0.3099621E-03
  0.1499413E-02  0.0000000E+00 -0.5050505E-02 -0.7738241E-09  0.0000000E+00 -0.3099626E-03
  0.2762042E-02  0.0000000E+00 -0.5050505E-02 -0.1057609E-08  0.0000000E+00 -0.3099632E-03
 -0.5050505E-02  0.0000000E+00 -0.5050505E-02 -0.1349775E-08  0.0000000E+00 -0.3099640E-03
 -0.5050505E-02  0.0000000E+00 -0.5050505E-02 -0.1650100E-08  0.0000000E+00 -0.3099650E-03
 -0.5050505E-02  0.0000000E+00 -0.5050505E-02 -0.1958439E-08  0.0000000E+00 -0.3099663E-03
 -0.5050505E-02  0.0000000E+00 -0.5050505E-02 -0.2274744E-08  0.0000000E+00 -0.3099678E-03
 -0.5050505E-02  0.0000000E+00 -0.5050505E-02 -0.2599095E-08  0.0000000E+00 -0.3099694E-03
 -0.5050505E-02  0.0000000E+00 -0.5050505E-02 -0.2931721E-08  0.0000000E+00 -0.3099713E-03
 -0.5050505E-02  0.0000000E+00 -0.5050505E-02 -0.3273017E-08  0.0000000E+00 -0.3099735E-03
 -0.5050504E-02  0.0000000E+00 -0.5050505E-02 -0.3623580E-08  0.0000000E+00 -0.3099759E-03
 -0.5050501E-02  0.0000000E+00 -0.5050505E-02 -0.3984262E-08  0.0000000E+00 -0.3099785E-03
 -0.5050495E-02  0.0000000E+00 -0.5050505E-02 -0.4356184E-08  0.0000000E+00 -0.3099814E-03
 -0.5050482E-02  0.0000000E+00 -0.5050505E-02 -0.4740805E-08  0.0000000E+00 -0.3099845E-03
 -0.5050449E-02  0.0000000E+00 -0.5050505E-02 -0.5139982E-08  0.0000000E+00 -0.3099879E-03
 -0.5050376E-02  0.0000000E+00 -0.5050505E-02 -0.5556033E-08  0.0000000E+00 -0.3099916E-03
 -0.5050299E-02  0.0000000E+00 -0.5050505E-02 -0.5991823E-08  0.0000000E+00 -0.3099956E-03
 -0.5050178E-02  0.0000000E+00 -0.5050505E-02 -0.6450874E-08  0.0000000E+00 -0.3099999E-03
 -0.5050018E-02  0.0000000E+00 -0.5050505E-02 -0.6937489E-08  0.0000000E+00 -0.3100045E-03
 -0.5049710E-02  0.0000000E+00 -0.5050505E-02 -0.7456909E-08  0.0000000E+00 -0.3100095E-03
 -0.5049253E-02  0.0000000E+00 -0.5050505E-02 -0.8015507E-08  0.0000000E+00 -0.3100148E-03
 -0.5048636E-02  0.0000000E+00 -0.5050505E-02 -0.8621040E-08  0.0000000E+00 -0.3100206E-03
 -0.5047442E-02  0.0000000E+00 -0.5050505E-02 -0.9282955E-08  0.0000000E+00 -0.3100268E-03
 -0.5045727E-02  0.0000000E+00 -0.5050505E-02 -0.1001279E-07  0.0000000E+00 -0.3100334E-03
 -0.5043261E-02  0.0000000E+00 -0.5050505E-02 -0.1082467E-07  0.0000000E+00 -0.3100406E-03
 -0.5038714E-02  0.0000000E+00 -0.5050505E-02 -0.1173600E-07  0.0000000E+00 -0.3100483E-03
 -0.5032318E-02  0.0000000E+00 -0.5050505E-02 -0.1276831E-07  0.0000000E+00 -0.3100568E-03
 -0.5022454E-02  0.0000000E+00 -0.5050505E-02 -0.1394839E-07  0.0000000E+00 -0.3100659E-03
 -0.5012589E-02  0.0000000E+00 -0.5050505E-02 -0.1530986E-07  0.0000000E+00 -0.3100760E-03
 -0.5002725E-02  0.0000000E+00 -0.5050505E-02 -0.1689522E-07  0.0000000E+00 -0.3100870E-03
 -0.4992860E-02  0.0000000E+00 -0.5050505E-02 -0.1875865E-07  0.0000000E+00 -0.3100992E-03
 -0.4976523E-02  0.0000000E+00 -0.5050505E-02 -0.2096997E-07  0.0000000E+00 -0.3101128E-03
 -0.4956794E-02  0.0000000E+00 -0.5050505E-02 -0.2362008E-07  0.0000000E+00 -0.3101280E-03
 -0.4937066E-02  0.0000000E+00 -0.5050505E-02 -0.2682880E-07  0.0000000E+00 -0.3101451E-03
 -0.4906239E-02  0.0000000E+00 -0.5050505E-02 -0.3075613E-07  0.0000000E+00 -0.3101647E-03
 -0.4866782E-02  0.0000000E+00 -0.5050505E-02 -0.3561887E-07  0.0000000E+00 -0.3101871E-03
 -0.4827325E-02  0.0000000E+00 -0.5050505E-02 -0.4171557E-07  0.0000000E+00 -0.3102132E-03
 -0.4769372E-02  0.0000000E+00 -0.5050505E-02 -0.4946474E-07  0.0000000E+00 -0.3102438E-03
 -0.4690458E-02  0.0000000E+00 -0.5050505E-02 -0.5946484E-07  0.0000000E+00 -0.3102803E-03
 -0.4611543E-02  0.0000000E+00 -0.5050505E-02 -0.7259099E-07  0.0000000E+00 -0.3103242E-03
 -0.4503035E-02  0.0000000E+00 -0.5050505E-02 -0.9015524E-07  0.0000000E+00 -0.3103779E-03
 -0.4345206E-02  0.0000000E+00 -0.5050505E-02 -0.1141814E-06  0.0000000E+00 -0.3104447E-03
 -0.4187378E-02  0.0000000E+00 -0.5050505E-02 -0.1478936E-06  0.0000000E+00 -0.3105293E-03
 -0.3985156E-02  0.0000000E+00 -0.5050505E-02 -0.1966203E-06  0.0000000E+00 -0.3106387E-03
 -0.3669499E-02  0.0000000E+00 -0.5050505E-02 -0.2695477E-06  0.0000000E+00 -0.3107833E-03
 -0.3353842E-02  0.0000000E+00 -0.5050505E-02 -0.3832929E-06  0.0000000E+00 -0.3109789E-03
 -0.2978990E-02  0.0000000E+00 -0.5050505E-02 -0.5696058E-06  0.0000000E+00 -0.3112493E-03
 -0.2347676E-02  0.0000000E+00 -0.5050505E-02 -0.8929673E-06  0.0000000E+00 -0.3116277E-03
 -0.1716362E-02  0.0000000E+00 -0.5050505E-02 -0.1493316E-05  0.0000000E+00 -0.3121475E-03
 -0.1025842E-02  0.0000000E+00 -0.5050505E-02 -0.2696063E-05  0.0000000E+00 -0.3127704E-03
  0.2367855E-03  0.0000000E+00 -0.5050505E-02 -0.5310876E-05  0.0000000E+00 -0.3130175E-03
  0.1499413E-02  0.0000000E+00 -0.5050505E-02 -0.1147835E-04  0.0000000E+00 -0.3101983E-03
  0.5287294E-02  0.0000000E+00 -0.5050505E-02 -0.2713154E-04  0.0000000E+00 -0.2910889E-03
 -0.5050505E-02  0.0000000E+00 -0.5050505E-02  0.1419475E-09  0.0000000E+00 -0.3096841E-03
 -0.5050505E-02  0.0000000E+00 -0.5050505E-02  0.4245575E-09  0.0000000E+00 -0.3096840E-03
 -0.5050505E-02  0.0000000E+00 -0.5050505E-02  0.7054192E-09  0.0000000E+00 -0.3096837E-03
 -0.5050505E-02  0.0000000E+00 -0.5050505E-02  0.9837794E-09  0.0000000E+00 -0.3096834E-03
 -0.5050505E-02  0.0000000E+00 -0.5050505E-02  0.1258526E-08  0.0000000E+00 -0.3096829E-03
 -0.5050505E-02  0.0000000E+00 -0.5050505E-02  0.1528607E-08  0.0000000E+00 -0.3096823E-03
 -0.5050504E-02  0.0000000E+00 -0.5050505E-02  0.1793006E-08  0.0000000E+00 -0.3096816E-03
 -0.5050501E-02  0.0000000E+00 -0.5050505E-02  0.2050693E-08  0.0000000E+00 -0.3096808E-03
 -0.5050495E-02  0.0000000E+00 -0.5050505E-02  0.2300672E-08  0.0000000E+00 -0.3096799E-03
 -0.5050482E-02  0.0000000E+00 -0.5050505E-02  0.2541942E-08  0.0000000E+00 -0.3096788E-03
 -0.5050449E-02  0.0000000E+00 -0.5050505E-02  0.2773518E-08  0.0000000E+00 -0.3096777E-03
 -0.5050376E-02  0.0000000E+00 -0.5050505E-02  0.2994435E-08  0.0000000E+00 -0.3096765E-03
 -0.5050299E-02  0.0000000E+00 -0.5050505E-02  0.3203736E-08  0.0000000E+00 -0.3096752E-03
 -0.5050178E-02  0.0000000E+00 -0.5050505E-02  0.3400489E-08  0.0000000E+00 -0.3096738E-03
 -0.5050018E-02  0.0000000E+00 -0.5050505E-02  0.3583781E-08  0.0000000E+00 -0.3096723E-03
 -0.5049710E-02  0.0000000E+00 -0.5050505E-02  0.3752723E-08  0.0000000E+00 -0.3096707E-03
 -0.5049253E-02  0.0000000E+00 -0.5050505E-02  0.3906456E-08  0.0000000E+00 -0.3096691E-03
 -0.5048636E-02  0.0000000E+00 -0.5050505E-02  0.4044149E-08  0.0000000E+00 -0.3096674E-03
 -0.5047442E-02  0.0000000E+00 -0.5050505E-02  0.4165005E-08  0.0000000E+00 -0.3096657E-03
 -0.5045727E-02  0.0000000E+00 -0.5050505E-02  0.4268267E-08  0.0000000E+00 -0.3096639E-03
 -0.5043261E-02  0.0000000E+00 -0.5050505E-02  0.4353215E-08  0.0000000E+00 -0.3096621E-03
 -0.5038714E-02  0.0000000E+00 -0.5050505E-02  0.4419177E-08  0.0000000E+00 -0.3096602E-03
 -0.5032318E-02  0.0000000E+00 -0.5050505E-02  0.4465529E-08  0.0000000E+00 -0.3096583E-03
 -0.5022454E-02  0.0000000E+00 -0.5050505E-02  0.4491696E-08  0.0000000E+00 -0.3096564E-03
 -0.5012589E-02  0.0000000E+00 -0.5050505E-02  0.4497162E-08  0.0000000E+00 -0.3096545E-03
 -0.5002725E-02  0.0000000E+00 -0.5050505E-02  0.4481470E-08  0.0000000E+00 -0.3096526E-03
 -0.4992860E-02  0.0000000E+00 -0.5050505E-02  0.4444222E-08  0.0000000E+00 -0.3096507E-03
 -0.4976523E-02  0.0000000E+00 -0.5050505E-02  0.4385090E-08  0.0000000E+00 -0.3096489E-03
 -0.4956794E-02  0.0000000E+00 -0.5050505E-02  0.4303812E-08  0.0000000E+00 -0.3096470E-03
 -0.4937066E-02  0.0000000E+00 -0.5050505E-02  0.4200197E-08  0.0000000E+00 -0.3096452E-03
 -0.4906239E-02  0.0000000E+00 -0.5050505E-02  0.4074129E-08  0.0000000E+00 -0.3096434E-03
 -0.4866782E-02  0.0000000E+00 -0.5050505E-02  0.3925564E-08  0.0000000E+00 -0.3096417E-03
 -0.4827325E-02  0.0000000E+00 -0.5050505E-02  0.3754536E-08  0.0000000E+00 -0.3096401E-03
 -0.4769372E-02  0.0000000E+00 -0.5050505E-02  0.3561152E-08  0.0000000E+00 -0.3096385E-03
 -0.4690458E-02  0.0000000E+00 -0.5050505E-02  0.3345596E-08  0.0000000E+00 -0.3096371E-03
 -0.4611543E-02  0.0000000E+00 -0.5050505E-02  0.3108127E-08  0.0000000E+00 -0.3096357E-03
 -0.4503035E-02  0.0000000E+00 -0.5050505E-02  0.2849074E-08  0.0000000E+00 -0.3096344E-03
 -0.4345206E-02  0.0000000E+00 -0.5050505E-02  0.2568837E-08  0.0000000E+00 -0.3096333E-03
 -0.4187378E-02  0.0000000E+00 -0.5050505E-02  0.2267880E-08  0.0000000E+00 -0.3096322E-03
 -0.3985156E-02  0.0000000E+00 -0.5050505E-02  0.1946727E-08  0.0000000E+00 -0.3096313E-03
 -0.3669499E-02  0.0000000E+00 -0.5050505E-02  0.1605960E-08  0.0000000E+00 -0.3096305E-03
 -0.3353842E-02  0.0000000E+00 -0.5050505E-02  0.1246202E-08  0.0000000E+00 -0.3096299E-03
 -0.2978990E-02  0.0000000E+00 -0.5050505E-02  0.8681050E-09  0.0000000E+00 -0.3096295E-03
 -0.2347676E-02  0.0000000E+00 -0.5050505E-02  0.4723177E-09  0.0000000E+00 -0.3096291E-03
 -0.1716362E-02  0.0000000E+00 -0.5050505E-02  0.5952727E-10  0.0000000E+00 -0.3096290E-03
 -0.1025842E-02  0.0000000E+00 -0.5050505E-02 -0.3695487E-09  0.0000000E+00 -0.3096291E-03
  0.2367855E-03  0.0000000E+00 -0.5050505E-02 -0.8141571E-09  0.0000000E+00 -0.3096293E-03
  0.1499413E-02  0.0000000E+00 -0.5050505E-02 -0.1273756E-08  0.0000000E+00 -0.3096297E-03
  0.2762042E-02  0.0000000E+00 -0.5050505E-02 -0.1747775E-08  0.0000000E+00 -0.3096303E-03
 -0.5050505E-02  0.0000000E+00 -0.5050505E-02 -0.2235688E-08  0.0000000E+00 -0.3096311E-03
 -0.5050505E-02  0.0000000E+00 -0.5050505E-02 -0.2737098E-08  0.0000000E+00 -0.3096321E-03
 -0.5050505E-02  0.0000000E+00 -0.5050505E-02 -0.3251746E-08  0.0000000E+00 -0.3096334E-03
 -0.5050505E-02  0.0000000E+00 -0.5050505E-02 -0.3779523E-08  0.0000000E+00 -0.3096348E-03
 -0.5050505E-02  0.0000000E+00 -0.5050505E-02 -0.4320527E-08  0.0000000E+00 -0.3096365E-03
 -0.5050505E-02  0.0000000E+00 -0.5050505E-02 -0.4875101E-08  0.0000000E+00 -0.3096384E-03
 -0.5050505E-02  0.0000000E+00 -0.5050505E-02 -0.5443869E-08  0.0000000E+00 -0.3096405E-03
 -0.5050504E-02  0.0000000E+00 -0.5050505E-02 -0.6027777E-08  0.0000000E+00 -0.3096429E-03
 -0.5050501E-02  0.0000000E+00 -0.5050505E-02 -0.6628185E-08  0.0000000E+00 -0.3096455E-03
 -0.5050495E-02  0.0000000E+00 -0.5050505E-02 -0.7246913E-08  0.0000000E+00 -0.3096484E-03
 -0.5050482E-02  0.0000000E+00 -0.5050505E-02 -0.7886312E-08  0.0000000E+00 -0.3096515E-03
 -0.5050449E-02  0.0000000E+00 -0.5050505E-02 -0.8549392E-08  0.0000000E+00 -0.3096549E-03
 -0.5050376E-02  0.0000000E+00 -0.5050505E-02 -0.9239919E-08  0.0000000E+00 -0.3096586E-03
 -0.5050299E-02  0.0000000E+00 -0.5050505E-02 -0.9962545E-08  0.0000000E+00 -0.3096626E-03
 -0.5050178E-02  0.0000000E+00 -0.5050505E-02 -0.1072299E-07  0.0000000E+00 -0.3096669E-03
 -0.5050018E-02  0.0000000E+00 -0.5050505E-02 -0.1152825E-07  0.0000000E+00 -0.3096715E-03
 -0.5049710E-02  0.0000000E+00 -0.5050505E-02 -0.1238683E-07  0.0000000E+00 -0.3096764E-03
 -0.5049253E-02  0.0000000E+00 -0.5050505E-02 -0.1330908E-07  0.0000000E+00 -0.3096817E-03
 -0.5048636E-02  0.0000000E+00 -0.5050505E-02 -0.1430757E-07  0.0000000E+00 -0.3096874E-03
 -0.5047442E-02  0.0000000E+00 -0.5050505E-02 -0.1539760E-07  0.0000000E+00 -0.3096935E-03
 -0.5045727E-02  0.0000000E+00 -0.5050505E-02 -0.1659781E-07  0.0000000E+00 -0.3097000E-03
 -0.5043261E-02  0.0000000E+00 -0.5050505E-02 -0.1793104E-07  0.0000000E+00 -0.3097071E-03
 -0.5038714E-02  0.0000000E+00 -0.5050505E-02 -0.1942530E-07  0.0000000E+00 -0.3097147E-03
 -0.5032318E-02  0.0000000E+00 -0.5050505E-02 -0.2111519E-07  0.0000000E+00 -0.3097230E-03
 -0.5022454E-02  0.0000000E+00 -0.5050505E-02 -0.2304369E-07  0.0000000E+00 -0.3097319E-03
 -0.5012589E-02  0.0000000E+00 -0.5050505E-02 -0.2526452E-07  0.0000000E+00 -0.3097417E-03
 -0.5002725E-02  0.0000000E+00 -0.5050505E-02 -0.2784538E-07  0.0000000E+00 -0.3097524E-03
 -0.4992860E-02  0.0000000E+00 -0.5050505E-02 -0.3087228E-07  0.0000000E+00 -0.3097642E-03
 -0.4976523E-02  0.0000000E+00 -0.5050505E-02 -0.3445552E-07  0.0000000E+00 -0.3097773E-03
 -0.4956794E-02  0.0000000E+00 -0.5050505E-02 -0.3873803E-07  0.0000000E+00 -0.3097918E-03
 -0.4937066E-02  0.0000000E+00 -0.5050505E-02 -0.4390710E-07  0.0000000E+00 -0.3098082E-03
 -0.4906239E-02  0.0000000E+00 -0.5050505E-02 -0.5021114E-07  0.0000000E+00 -0.3098266E-03
 -0.4866782E-02  0.0000000E+00 -0.5050505E-02 -0.5798416E-07  0.0000000E+00 -0.3098477E-03
 -0.4827325E-02  0.0000000E+00 -0.5050505E-02 -0.6768182E-07  0.0000000E+00 -0.3098718E-03
 -0.4769372E-02  0.0000000E+00 -0.5050505E-02 -0.7993589E-07  0.0000000E+00 -0.3098999E-03
 -0.4690458E-02  0.0000000E+00 -0.5050505E-02 -0.9563790E-07  0.0000000E+00 -0.3099328E-03
 -0.4611543E-02  0.0000000E+00 -0.5050505E-02 -0.1160706E-06  0.0000000E+00 -0.3099718E-03
 -0.4503035E-02  0.0000000E+00 -0.5050505E-02 -0.1431193E-06  0.0000000E+00 -0.3100184E-03
 -0.4345206E-02  0.0000000E+00 -0.5050505E-02 -0.1796201E-06  0.0000000E+00 -0.3100748E-03
 -0.4187378E-02  0.0000000E+00 -0.5050505E-02 -0.2299499E-06  0.0000000E+00 -0.3101437E-03
 -0.3985156E-02  0.0000000E+00 -0.5050505E-02 -0.3010495E-06  0.0000000E+00 -0.3102284E-03
 -0.3669499E-02  0.0000000E+00 -0.5050505E-02 -0.4042485E-06  0.0000000E+00 -0.3103328E-03
 -0.3353842E-02  0.0000000E+00 -0.5050505E-02 -0.5585831E-06  0.0000000E+00 -0.3104601E-03
 -0.2978990E-02  0.0000000E+00 -0.5050505E-02 -0.7968966E-06  0.0000000E+00 -0.3106093E-03
 -0.2347676E-02  0.0000000E+00 -0.5050505E-02 -0.1176895E-05  0.0000000E+00 -0.3107645E-03
 -0.1716362E-02  0.0000000E+00 -0.5050505E-02 -0.1799684E-05  0.0000000E+00 -0.3108628E-03
 -0.1025842E-02  0.0000000E+00 -0.5050505E-02 -0.2832491E-05  0.0000000E+00 -0.3107099E-03
  0.2367855E-03  0.0000000E+00 -0.5050505E-02 -0.4491162E-05  0.0000000E+00 -0.3097771E-03
  0.1499413E-02  0.0000000E+00 -0.5050505E-02 -0.6724243E-05  0.0000000E+00 -0.3068733E-03
  0.5287294E-02  0.0000000E+00 -0.5050505E-02 -0.7329970E-05  0.0000000E+00 -0.3007456E-03
 -0.5050505E-02  0.0000000E+00 -0.5050505E-02  0.2003010E-09  0.0000000E+00 -0.3091964E-03
 -0.5050505E-02  0.0000000E+00 -0.5050505E-02  0.5993021E-09  0.0000000E+00 -0.3091963E-03
 -0.5050505E-02  0.0000000E+00 -0.5050505E-02  0.9958980E-09  0.0000000E+00 -0.3091960E-03
 -0.5050505E-02  0.0000000E+00 -0.5050505E-02  0.1388942E-08  0.0000000E+00 -0.3091957E-03
 -0.5050505E-02  0.0000000E+00 -0.5050505E-02  0.1776883E-08  0.0000000E+00 -0.3091952E-03
 -0.5050505E-02  0.0000000E+00 -0.5050505E-02  0.2158248E-08  0.0000000E+00 -0.3091946E-03
 -0.5050504E-02  0.0000000E+00 -0.5050505E-02  0.2531613E-08  0.0000000E+00 -0.3091938E-03
 -0.5050501E-02  0.0000000E+00 -0.5050505E-02  0.2895534E-08  0.0000000E+00 -0.3091930E-03
 -0.5050495E-02  0.0000000E+00 -0.5050505E-02  0.3248605E-08  0.0000000E+00 -0.3091921E-03
 -0.5050482E-02  0.0000000E+00 -0.5050505E-02  0.3589418E-08  0.0000000E+00 -0.3091910E-03
 -0.5050449E-02  0.0000000E+00 -0.5050505E-02  0.3916587E-08  0.0000000E+00 -0.3091899E-03
 -0.5050376E-02  0.0000000E+00 -0.5050505E-02  0.4228751E-08  0.0000000E+00 -0.3091886E-03
 -0.5050299E-02  0.0000000E+00 -0.5050505E-02  0.4524563E-08  0.0000000E+00 -0.3091872E-03
 -0.5050178E-02  0.0000000E+00 -0.5050505E-02  0.4802708E-08  0.0000000E+00 -0.3091858E-03
 -0.5050018E-02  0.0000000E+00 -0.5050505E-02  0.5061900E-08  0.0000000E+00 -0.3091843E-03
 -0.5049710E-02  0.0000000E+00 -0.5050505E-02  0.5300886E-08  0.0000000E+00 -0.3091827E-03
 -0.5049253E-02  0.0000000E+00 -0.5050505E-02  0.5518452E-08  0.0000000E+00 -0.3091810E-03
 -0.5048636E-02  0.0000000E+00 -0.5050505E-02  0.5713428E-08  0.0000000E+00 -0.3091793E-03
 -0.5047442E-02  0.0000000E+00 -0.5050505E-02  0.5884688E-08  0.0000000E+00 -0.3091775E-03
 -0.5045727E-02  0.0000000E+00 -0.5050505E-02  0.6031163E-08  0.0000000E+00 -0.3091757E-03
 -0.5043261E-02  0.0000000E+00 -0.5050505E-02  0.6151837E-08  0.0000000E+00 -0.3091738E-03
 -0.5038714E-02  0.0000000E+00 -0.5050505E-02  0.6245761E-08  0.0000000E+00 -0.3091719E-03
 -0.5032318E-02  0.0000000E+00 -0.5050505E-02  0.6312051E-08  0.0000000E+00 -0.3091699E-03
 -0.5022454E-02  0.0000000E+00 -0.5050505E-02  0.6349896E-08  0.0000000E+00 -0.3091680E-03
 -0.5012589E-02  0.0000000E+00 -0.5050505E-02  0.6358567E-08  0.0000000E+00 -0.3091660E-03
 -0.5002725E-02  0.0000000E+00 -0.5050505E-02  0.6337414E-08  0.0000000E+00 -0.3091640E-03
 -0.4992860E-02  0.0000000E+00 -0.5050505E-02  0.6285879E-08  0.0000000E+00 -0.3091621E-03
 -0.4976523E-02  0.0000000E+00 -0.5050505E-02  0.6203493E-08  0.0000000E+00 -0.3091601E-03
 -0.4956794E-02  0.0000000E+00 -0.5050505E-02  0.6089886E-08  0.0000000E+00 -0.3091582E-03
 -0.4937066E-02  0.0000000E+00 -0.5050505E-02  0.5944790E-08  0.0000000E+00 -0.3091564E-03