title = "dataset feddes"
variables = "x", "y", "z", "vx", "vy", "vz"
zone t = "velocities, solution time =  1.000E+01 days        " i =   99, j =   99, k =    1,  f=point
 -0.5050505E-02  0.0000000E+00 -0.5050505E-02 -0.2664205E-11  0.0000000E+00 -0.6450954E-03
 -0.5050505E-02  0.0000000E+00 -0.5050505E-02 -0.8818706E-11  0.0000000E+00 -0.6450954E-03
 -0.5050505E-02  0.0000000E+00 -0.5050505E-02 -0.1509479E-10  0.0000000E+00 -0.6450954E-03
 -0.5050505E-02  0.0000000E+00 -0.5050505E-02 -0.2105746E-10  0.0000000E+00 -0.6450954E-03
 -0.5050505E-02  0.0000000E+00 -0.5050505E-02 -0.2760191E-10  0.0000000E+00 -0.6450955E-03
 -0.5050505E-02  0.0000000E+00 -0.5050505E-02 -0.3449233E-10  0.0000000E+00 -0.6450955E-03
 -0.5050504E-02  0.0000000E+00 -0.5050505E-02 -0.4140507E-10  0.0000000E+00 -0.6450956E-03
 -0.5050501E-02  0.0000000E+00 -0.5050505E-02 -0.4825954E-10  0.0000000E+00 -0.6450957E-03
 -0.5050495E-02  0.0000000E+00 -0.5050505E-02 -0.5511219E-10  0.0000000E+00 -0.6450958E-03
 -0.5050482E-02  0.0000000E+00 -0.5050505E-02 -0.6204771E-10  0.0000000E+00 -0.6450960E-03
 -0.5050449E-02  0.0000000E+00 -0.5050505E-02 -0.6914635E-10  0.0000000E+00 -0.6450961E-03
 -0.5050376E-02  0.0000000E+00 -0.5050505E-02 -0.7646923E-10  0.0000000E+00 -0.6450963E-03
 -0.5050299E-02  0.0000000E+00 -0.5050505E-02 -0.8406782E-10  0.0000000E+00 -0.6450964E-03
 -0.5050178E-02  0.0000000E+00 -0.5050505E-02 -0.9198445E-10  0.0000000E+00 -0.6450966E-03
 -0.5050018E-02  0.0000000E+00 -0.5050505E-02 -0.1002588E-09  0.0000000E+00 -0.6450968E-03
 -0.5049710E-02  0.0000000E+00 -0.5050505E-02 -0.1089299E-09  0.0000000E+00 -0.6450971E-03
 -0.5049253E-02  0.0000000E+00 -0.5050505E-02 -0.1180360E-09  0.0000000E+00 -0.6450973E-03
 -0.5048636E-02  0.0000000E+00 -0.5050505E-02 -0.1276173E-09  0.0000000E+00 -0.6450976E-03
 -0.5047442E-02  0.0000000E+00 -0.5050505E-02 -0.1377146E-09  0.0000000E+00 -0.6450978E-03
 -0.5045727E-02  0.0000000E+00 -0.5050505E-02 -0.1483707E-09  0.0000000E+00 -0.6450982E-03
 -0.5043261E-02  0.0000000E+00 -0.5050505E-02 -0.1596307E-09  0.0000000E+00 -0.6450985E-03
 -0.5038714E-02  0.0000000E+00 -0.5050505E-02 -0.1715415E-09  0.0000000E+00 -0.6450988E-03
 -0.5032318E-02  0.0000000E+00 -0.5050505E-02 -0.1841530E-09  0.0000000E+00 -0.6450992E-03
 -0.5022454E-02  0.0000000E+00 -0.5050505E-02 -0.1975175E-09  0.0000000E+00 -0.6450996E-03
 -0.5012589E-02  0.0000000E+00 -0.5050505E-02 -0.2116909E-09  0.0000000E+00 -0.6451001E-03
 -0.5002725E-02  0.0000000E+00 -0.5050505E-02 -0.2267321E-09  0.0000000E+00 -0.6451005E-03
 -0.4992860E-02  0.0000000E+00 -0.5050505E-02 -0.2427040E-09  0.0000000E+00 -0.6451011E-03
 -0.4976523E-02  0.0000000E+00 -0.5050505E-02 -0.2596738E-09  0.0000000E+00 -0.6451016E-03
 -0.4956794E-02  0.0000000E+00 -0.5050505E-02 -0.2777129E-09  0.0000000E+00 -0.6451022E-03
 -0.4937066E-02  0.0000000E+00 -0.5050505E-02 -0.2968981E-09  0.0000000E+00 -0.6451028E-03
 -0.4906239E-02  0.0000000E+00 -0.5050505E-02 -0.3173114E-09  0.0000000E+00 -0.6451035E-03
 -0.4866782E-02  0.0000000E+00 -0.5050505E-02 -0.3390410E-09  0.0000000E+00 -0.6451042E-03
 -0.4827325E-02  0.0000000E+00 -0.5050505E-02 -0.3621818E-09  0.0000000E+00 -0.6451049E-03
 -0.4769372E-02  0.0000000E+00 -0.5050505E-02 -0.3868358E-09  0.0000000E+00 -0.6451057E-03
 -0.4690458E-02  0.0000000E+00 -0.5050505E-02 -0.4131134E-09  0.0000000E+00 -0.6451066E-03
 -0.4611543E-02  0.0000000E+00 -0.5050505E-02 -0.4411336E-09  0.0000000E+00 -0.6451075E-03
 -0.4503035E-02  0.0000000E+00 -0.5050505E-02 -0.4710254E-09  0.0000000E+00 -0.6451085E-03
 -0.4345206E-02  0.0000000E+00 -0.5050505E-02 -0.5029290E-09  0.0000000E+00 -0.6451095E-03
 -0.4187378E-02  0.0000000E+00 -0.5050505E-02 -0.5369963E-09  0.0000000E+00 -0.6451106E-03
 -0.3985156E-02  0.0000000E+00 -0.5050505E-02 -0.5733930E-09  0.0000000E+00 -0.6451118E-03
 -0.3669499E-02  0.0000000E+00 -0.5050505E-02 -0.6123001E-09  0.0000000E+00 -0.6451131E-03
 -0.3353842E-02  0.0000000E+00 -0.5050505E-02 -0.6539151E-09  0.0000000E+00 -0.6451145E-03
 -0.2978990E-02  0.0000000E+00 -0.5050505E-02 -0.6984546E-09  0.0000000E+00 -0.6451159E-03
 -0.2347676E-02  0.0000000E+00 -0.5050505E-02 -0.7461567E-09  0.0000000E+00 -0.6451175E-03
 -0.1716362E-02  0.0000000E+00 -0.5050505E-02 -0.7972833E-09  0.0000000E+00 -0.6451191E-03
 -0.1025842E-02  0.0000000E+00 -0.5050505E-02 -0.8521232E-09  0.0000000E+00 -0.6451209E-03
  0.2367855E-03  0.0000000E+00 -0.5050505E-02 -0.9109963E-09  0.0000000E+00 -0.6451228E-03
  0.1499413E-02  0.0000000E+00 -0.5050505E-02 -0.9742571E-09  0.0000000E+00 -0.6451248E-03
  0.2762042E-02  0.0000000E+00 -0.5050505E-02 -0.1042300E-08  0.0000000E+00 -0.6451270E-03
 -0.5050505E-02  0.0000000E+00 -0.5050505E-02 -0.1115564E-08  0.0000000E+00 -0.6451293E-03
 -0.5050505E-02  0.0000000E+00 -0.5050505E-02 -0.1194541E-08  0.0000000E+00 -0.6451318E-03
 -0.5050505E-02  0.0000000E+00 -0.5050505E-02 -0.1279781E-08  0.0000000E+00 -0.6451345E-03
 -0.5050505E-02  0.0000000E+00 -0.5050505E-02 -0.1371905E-08  0.0000000E+00 -0.6451373E-03
 -0.5050505E-02  0.0000000E+00 -0.5050505E-02 -0.1471612E-08  0.0000000E+00 -0.6451404E-03
 -0.5050505E-02  0.0000000E+00 -0.5050505E-02 -0.1579692E-08  0.0000000E+00 -0.6451437E-03
 -0.5050505E-02  0.0000000E+00 -0.5050505E-02 -0.1697045E-08  0.0000000E+00 -0.6451472E-03
 -0.5050504E-02  0.0000000E+00 -0.5050505E-02 -0.1824693E-08  0.0000000E+00 -0.6451510E-03
 -0.5050501E-02  0.0000000E+00 -0.5050505E-02 -0.1963806E-08  0.0000000E+00 -0.6451550E-03
 -0.5050495E-02  0.0000000E+00 -0.5050505E-02 -0.2115726E-08  0.0000000E+00 -0.6451594E-03
 -0.5050482E-02  0.0000000E+00 -0.5050505E-02 -0.2282001E-08  0.0000000E+00 -0.6451642E-03
 -0.5050449E-02  0.0000000E+00 -0.5050505E-02 -0.2464416E-08  0.0000000E+00 -0.6451693E-03
 -0.5050376E-02  0.0000000E+00 -0.5050505E-02 -0.2665047E-08  0.0000000E+00 -0.6451748E-03
 -0.5050299E-02  0.0000000E+00 -0.5050505E-02 -0.2886312E-08  0.0000000E+00 -0.6451808E-03
 -0.5050178E-02  0.0000000E+00 -0.5050505E-02 -0.3131044E-08  0.0000000E+00 -0.6451872E-03
 -0.5050018E-02  0.0000000E+00 -0.5050505E-02 -0.3402573E-08  0.0000000E+00 -0.6451943E-03
 -0.5049710E-02  0.0000000E+00 -0.5050505E-02 -0.3704838E-08  0.0000000E+00 -0.6452019E-03
 -0.5049253E-02  0.0000000E+00 -0.5050505E-02 -0.4042514E-08  0.0000000E+00 -0.6452102E-03
 -0.5048636E-02  0.0000000E+00 -0.5050505E-02 -0.4421189E-08  0.0000000E+00 -0.6452193E-03
 -0.5047442E-02  0.0000000E+00 -0.5050505E-02 -0.4847571E-08  0.0000000E+00 -0.6452293E-03
 -0.5045727E-02  0.0000000E+00 -0.5050505E-02 -0.5329766E-08  0.0000000E+00 -0.6452402E-03
 -0.5043261E-02  0.0000000E+00 -0.5050505E-02 -0.5877631E-08  0.0000000E+00 -0.6452523E-03
 -0.5038714E-02  0.0000000E+00 -0.5050505E-02 -0.6503231E-08  0.0000000E+00 -0.6452656E-03
 -0.5032318E-02  0.0000000E+00 -0.5050505E-02 -0.7221443E-08  0.0000000E+00 -0.6452804E-03
 -0.5022454E-02  0.0000000E+00 -0.5050505E-02 -0.8050755E-08  0.0000000E+00 -0.6452968E-03
 -0.5012589E-02  0.0000000E+00 -0.5050505E-02 -0.9014328E-08  0.0000000E+00 -0.6453151E-03
 -0.5002725E-02  0.0000000E+00 -0.5050505E-02 -0.1014144E-07  0.0000000E+00 -0.6453358E-03
 -0.4992860E-02  0.0000000E+00 -0.5050505E-02 -0.1146948E-07  0.0000000E+00 -0.6453590E-03
 -0.4976523E-02  0.0000000E+00 -0.5050505E-02 -0.1304666E-07  0.0000000E+00 -0.6453854E-03
 -0.4956794E-02  0.0000000E+00 -0.5050505E-02 -0.1493590E-07  0.0000000E+00 -0.6454155E-03
 -0.4937066E-02  0.0000000E+00 -0.5050505E-02 -0.1722032E-07  0.0000000E+00 -0.6454500E-03
 -0.4906239E-02  0.0000000E+00 -0.5050505E-02 -0.2001128E-07  0.0000000E+00 -0.6454901E-03
 -0.4866782E-02  0.0000000E+00 -0.5050505E-02 -0.2346022E-07  0.0000000E+00 -0.6455368E-03
 -0.4827325E-02  0.0000000E+00 -0.5050505E-02 -0.2777660E-07  0.0000000E+00 -0.6455919E-03
 -0.4769372E-02  0.0000000E+00 -0.5050505E-02 -0.3325561E-07  0.0000000E+00 -0.6456576E-03
 -0.4690458E-02  0.0000000E+00 -0.5050505E-02 -0.4032208E-07  0.0000000E+00 -0.6457367E-03
 -0.4611543E-02  0.0000000E+00 -0.5050505E-02 -0.4960216E-07  0.0000000E+00 -0.6458334E-03
 -0.4503035E-02  0.0000000E+00 -0.5050505E-02 -0.6204404E-07  0.0000000E+00 -0.6459535E-03
 -0.4345206E-02  0.0000000E+00 -0.5050505E-02 -0.7912897E-07  0.0000000E+00 -0.6461053E-03
 -0.4187378E-02  0.0000000E+00 -0.5050505E-02 -0.1032557E-06  0.0000000E+00 -0.6463015E-03
 -0.3985156E-02  0.0000000E+00 -0.5050505E-02 -0.1384766E-06  0.0000000E+00 -0.6465615E-03
 -0.3669499E-02  0.0000000E+00 -0.5050505E-02 -0.1919876E-06  0.0000000E+00 -0.6469169E-03
 -0.3353842E-02  0.0000000E+00 -0.5050505E-02 -0.2773506E-06  0.0000000E+00 -0.6474218E-03
 -0.2978990E-02  0.0000000E+00 -0.5050505E-02 -0.4220136E-06  0.0000000E+00 -0.6481741E-03
 -0.2347676E-02  0.0000000E+00 -0.5050505E-02 -0.6864371E-06  0.0000000E+00 -0.6493665E-03
 -0.1716362E-02  0.0000000E+00 -0.5050505E-02 -0.1217573E-05  0.0000000E+00 -0.6514150E-03
 -0.1025842E-02  0.0000000E+00 -0.5050505E-02 -0.2413884E-05  0.0000000E+00 -0.6553231E-03
  0.2367855E-03  0.0000000E+00 -0.5050505E-02 -0.5486273E-05  0.0000000E+00 -0.6638287E-03
  0.1499413E-02  0.0000000E+00 -0.5050505E-02 -0.1454224E-04  0.0000000E+00 -0.6854141E-03
  0.5287294E-02  0.0000000E+00 -0.5050505E-02 -0.2404181E-03  0.0000000E+00 -0.5458621E-03
 -0.5050505E-02  0.0000000E+00 -0.5050505E-02 -0.7997042E-11  0.0000000E+00 -0.6440973E-03
 -0.5050505E-02  0.0000000E+00 -0.5050505E-02 -0.2660205E-10  0.0000000E+00 -0.6440973E-03
 -0.5050505E-02  0.0000000E+00 -0.5050505E-02 -0.4540169E-10  0.0000000E+00 -0.6440974E-03
 -0.5050505E-02  0.0000000E+00 -0.5050505E-02 -0.6327405E-10  0.0000000E+00 -0.6440974E-03
 -0.5050505E-02  0.0000000E+00 -0.5050505E-02 -0.8283081E-10  0.0000000E+00 -0.6440974E-03
 -0.5050505E-02  0.0000000E+00 -0.5050505E-02 -0.1034376E-09  0.0000000E+00 -0.6440975E-03
 -0.5050504E-02  0.0000000E+00 -0.5050505E-02 -0.1241640E-09  0.0000000E+00 -0.6440976E-03
 -0.5050501E-02  0.0000000E+00 -0.5050505E-02 -0.1447443E-09  0.0000000E+00 -0.6440977E-03
 -0.5050495E-02  0.0000000E+00 -0.5050505E-02 -0.1653244E-09  0.0000000E+00 -0.6440978E-03
 -0.5050482E-02  0.0000000E+00 -0.5050505E-02 -0.1861477E-09  0.0000000E+00 -0.6440979E-03
 -0.5050449E-02  0.0000000E+00 -0.5050505E-02 -0.2074523E-09  0.0000000E+00 -0.6440981E-03
 -0.5050376E-02  0.0000000E+00 -0.5050505E-02 -0.2294234E-09  0.0000000E+00 -0.6440982E-03
 -0.5050299E-02  0.0000000E+00 -0.5050505E-02 -0.2522171E-09  0.0000000E+00 -0.6440984E-03
 -0.5050178E-02  0.0000000E+00 -0.5050505E-02 -0.2759630E-09  0.0000000E+00 -0.6440986E-03
 -0.5050018E-02  0.0000000E+00 -0.5050505E-02 -0.3007804E-09  0.0000000E+00 -0.6440988E-03
 -0.5049710E-02  0.0000000E+00 -0.5050505E-02 -0.3267870E-09  0.0000000E+00 -0.6440990E-03
 -0.5049253E-02  0.0000000E+00 -0.5050505E-02 -0.3540976E-09  0.0000000E+00 -0.6440993E-03
 -0.5048636E-02  0.0000000E+00 -0.5050505E-02 -0.3828323E-09  0.0000000E+00 -0.6440995E-03
 -0.5047442E-02  0.0000000E+00 -0.5050505E-02 -0.4131139E-09  0.0000000E+00 -0.6440998E-03
 -0.5045727E-02  0.0000000E+00 -0.5050505E-02 -0.4450706E-09  0.0000000E+00 -0.6441001E-03
 -0.5043261E-02  0.0000000E+00 -0.5050505E-02 -0.4788370E-09  0.0000000E+00 -0.6441004E-03
 -0.5038714E-02  0.0000000E+00 -0.5050505E-02 -0.5145541E-09  0.0000000E+00 -0.6441008E-03
 -0.5032318E-02  0.0000000E+00 -0.5050505E-02 -0.5523707E-09  0.0000000E+00 -0.6441012E-03
 -0.5022454E-02  0.0000000E+00 -0.5050505E-02 -0.5924442E-09  0.0000000E+00 -0.6441016E-03
 -0.5012589E-02  0.0000000E+00 -0.5050505E-02 -0.6349412E-09  0.0000000E+00 -0.6441020E-03
 -0.5002725E-02  0.0000000E+00 -0.5050505E-02 -0.6800387E-09  0.0000000E+00 -0.6441025E-03
 -0.4992860E-02  0.0000000E+00 -0.5050505E-02 -0.7279249E-09  0.0000000E+00 -0.6441030E-03
 -0.4976523E-02  0.0000000E+00 -0.5050505E-02 -0.7788006E-09  0.0000000E+00 -0.6441035E-03
 -0.4956794E-02  0.0000000E+00 -0.5050505E-02 -0.8328801E-09  0.0000000E+00 -0.6441041E-03
 -0.4937066E-02  0.0000000E+00 -0.5050505E-02 -0.8903929E-09  0.0000000E+00 -0.6441047E-03
 -0.4906239E-02  0.0000000E+00 -0.5050505E-02 -0.9515847E-09  0.0000000E+00 -0.6441054E-03
 -0.4866782E-02  0.0000000E+00 -0.5050505E-02 -0.1016719E-08  0.0000000E+00 -0.6441061E-03
 -0.4827325E-02  0.0000000E+00 -0.5050505E-02 -0.1086081E-08  0.0000000E+00 -0.6441068E-03
 -0.4769372E-02  0.0000000E+00 -0.5050505E-02 -0.1159974E-08  0.0000000E+00 -0.6441077E-03
 -0.4690458E-02  0.0000000E+00 -0.5050505E-02 -0.1238730E-08  0.0000000E+00 -0.6441085E-03
 -0.4611543E-02  0.0000000E+00 -0.5050505E-02 -0.1322705E-08  0.0000000E+00 -0.6441094E-03
 -0.4503035E-02  0.0000000E+00 -0.5050505E-02 -0.1412284E-08  0.0000000E+00 -0.6441104E-03
 -0.4345206E-02  0.0000000E+00 -0.5050505E-02 -0.1507886E-08  0.0000000E+00 -0.6441114E-03
 -0.4187378E-02  0.0000000E+00 -0.5050505E-02 -0.1609967E-08  0.0000000E+00 -0.6441126E-03
 -0.3985156E-02  0.0000000E+00 -0.5050505E-02 -0.1719022E-08  0.0000000E+00 -0.6441138E-03
 -0.3669499E-02  0.0000000E+00 -0.5050505E-02 -0.1835590E-08  0.0000000E+00 -0.6441150E-03
 -0.3353842E-02  0.0000000E+00 -0.5050505E-02 -0.1960265E-08  0.0000000E+00 -0.6441164E-03
 -0.2978990E-02  0.0000000E+00 -0.5050505E-02 -0.2093692E-08  0.0000000E+00 -0.6441178E-03
 -0.2347676E-02  0.0000000E+00 -0.5050505E-02 -0.2236583E-08  0.0000000E+00 -0.6441194E-03
 -0.1716362E-02  0.0000000E+00 -0.5050505E-02 -0.2389722E-08  0.0000000E+00 -0.6441210E-03
 -0.1025842E-02  0.0000000E+00 -0.5050505E-02 -0.2553970E-08  0.0000000E+00 -0.6441228E-03
  0.2367855E-03  0.0000000E+00 -0.5050505E-02 -0.2730284E-08  0.0000000E+00 -0.6441247E-03
  0.1499413E-02  0.0000000E+00 -0.5050505E-02 -0.2919722E-08  0.0000000E+00 -0.6441267E-03
  0.2762042E-02  0.0000000E+00 -0.5050505E-02 -0.3123462E-08  0.0000000E+00 -0.6441289E-03
 -0.5050505E-02  0.0000000E+00 -0.5050505E-02 -0.3342816E-08  0.0000000E+00 -0.6441312E-03
 -0.5050505E-02  0.0000000E+00 -0.5050505E-02 -0.3579251E-08  0.0000000E+00 -0.6441336E-03
 -0.5050505E-02  0.0000000E+00 -0.5050505E-02 -0.3834410E-08  0.0000000E+00 -0.6441363E-03
 -0.5050505E-02  0.0000000E+00 -0.5050505E-02 -0.4110144E-08  0.0000000E+00 -0.6441391E-03
 -0.5050505E-02  0.0000000E+00 -0.5050505E-02 -0.4408537E-08  0.0000000E+00 -0.6441422E-03
 -0.5050505E-02  0.0000000E+00 -0.5050505E-02 -0.4731950E-08  0.0000000E+00 -0.6441454E-03
 -0.5050505E-02  0.0000000E+00 -0.5050505E-02 -0.5083059E-08  0.0000000E+00 -0.6441489E-03
 -0.5050504E-02  0.0000000E+00 -0.5050505E-02 -0.5464915E-08  0.0000000E+00 -0.6441527E-03
 -0.5050501E-02  0.0000000E+00 -0.5050505E-02 -0.5881004E-08  0.0000000E+00 -0.6441567E-03
 -0.5050495E-02  0.0000000E+00 -0.5050505E-02 -0.6335324E-08  0.0000000E+00 -0.6441611E-03
 -0.5050482E-02  0.0000000E+00 -0.5050505E-02 -0.6832477E-08  0.0000000E+00 -0.6441658E-03
 -0.5050449E-02  0.0000000E+00 -0.5050505E-02 -0.7377784E-08  0.0000000E+00 -0.6441708E-03
 -0.5050376E-02  0.0000000E+00 -0.5050505E-02 -0.7977416E-08  0.0000000E+00 -0.6441763E-03
 -0.5050299E-02  0.0000000E+00 -0.5050505E-02 -0.8638565E-08  0.0000000E+00 -0.6441822E-03
 -0.5050178E-02  0.0000000E+00 -0.5050505E-02 -0.9369649E-08  0.0000000E+00 -0.6441886E-03
 -0.5050018E-02  0.0000000E+00 -0.5050505E-02 -0.1018056E-07  0.0000000E+00 -0.6441956E-03
 -0.5049710E-02  0.0000000E+00 -0.5050505E-02 -0.1108299E-07  0.0000000E+00 -0.6442032E-03
 -0.5049253E-02  0.0000000E+00 -0.5050505E-02 -0.1209082E-07  0.0000000E+00 -0.6442114E-03
 -0.5048636E-02  0.0000000E+00 -0.5050505E-02 -0.1322059E-07  0.0000000E+00 -0.6442204E-03
 -0.5047442E-02  0.0000000E+00 -0.5050505E-02 -0.1449219E-07  0.0000000E+00 -0.6442303E-03
 -0.5045727E-02  0.0000000E+00 -0.5050505E-02 -0.1592962E-07  0.0000000E+00 -0.6442411E-03
 -0.5043261E-02  0.0000000E+00 -0.5050505E-02 -0.1756200E-07  0.0000000E+00 -0.6442530E-03
 -0.5038714E-02  0.0000000E+00 -0.5050505E-02 -0.1942499E-07  0.0000000E+00 -0.6442661E-03
 -0.5032318E-02  0.0000000E+00 -0.5050505E-02 -0.2156248E-07  0.0000000E+00 -0.6442806E-03
 -0.5022454E-02  0.0000000E+00 -0.5050505E-02 -0.2402894E-07  0.0000000E+00 -0.6442968E-03
 -0.5012589E-02  0.0000000E+00 -0.5050505E-02 -0.2689252E-07  0.0000000E+00 -0.6443148E-03
 -0.5002725E-02  0.0000000E+00 -0.5050505E-02 -0.3023924E-07  0.0000000E+00 -0.6443350E-03
 -0.4992860E-02  0.0000000E+00 -0.5050505E-02 -0.3417868E-07  0.0000000E+00 -0.6443577E-03
 -0.4976523E-02  0.0000000E+00 -0.5050505E-02 -0.3885193E-07  0.0000000E+00 -0.6443835E-03
 -0.4956794E-02  0.0000000E+00 -0.5050505E-02 -0.4444262E-07  0.0000000E+00 -0.6444128E-03
 -0.4937066E-02  0.0000000E+00 -0.5050505E-02 -0.5119270E-07  0.0000000E+00 -0.6444465E-03
 -0.4906239E-02  0.0000000E+00 -0.5050505E-02 -0.5942521E-07  0.0000000E+00 -0.6444853E-03
 -0.4866782E-02  0.0000000E+00 -0.5050505E-02 -0.6957784E-07  0.0000000E+00 -0.6445304E-03
 -0.4827325E-02  0.0000000E+00 -0.5050505E-02 -0.8225322E-07  0.0000000E+00 -0.6445834E-03
 -0.4769372E-02  0.0000000E+00 -0.5050505E-02 -0.9829606E-07  0.0000000E+00 -0.6446462E-03
 -0.4690458E-02  0.0000000E+00 -0.5050505E-02 -0.1189142E-06  0.0000000E+00 -0.6447214E-03
 -0.4611543E-02  0.0000000E+00 -0.5050505E-02 -0.1458739E-06  0.0000000E+00 -0.6448126E-03
 -0.4503035E-02  0.0000000E+00 -0.5050505E-02 -0.1818234E-06  0.0000000E+00 -0.6449247E-03
 -0.4345206E-02  0.0000000E+00 -0.5050505E-02 -0.2308486E-06  0.0000000E+00 -0.6450646E-03
 -0.4187378E-02  0.0000000E+00 -0.5050505E-02 -0.2994608E-06  0.0000000E+00 -0.6452424E-03
 -0.3985156E-02  0.0000000E+00 -0.5050505E-02 -0.3984297E-06  0.0000000E+00 -0.6454726E-03
 -0.3669499E-02  0.0000000E+00 -0.5050505E-02 -0.5463423E-06  0.0000000E+00 -0.6457774E-03
 -0.3353842E-02  0.0000000E+00 -0.5050505E-02 -0.7768820E-06  0.0000000E+00 -0.6461903E-03
 -0.2978990E-02  0.0000000E+00 -0.5050505E-02 -0.1154578E-05  0.0000000E+00 -0.6467625E-03
 -0.2347676E-02  0.0000000E+00 -0.5050505E-02 -0.1811002E-05  0.0000000E+00 -0.6475668E-03
 -0.1716362E-02  0.0000000E+00 -0.5050505E-02 -0.3033320E-05  0.0000000E+00 -0.6486805E-03
 -0.1025842E-02  0.0000000E+00 -0.5050505E-02 -0.5494529E-05  0.0000000E+00 -0.6500418E-03
  0.2367855E-03  0.0000000E+00 -0.5050505E-02 -0.1088634E-04  0.0000000E+00 -0.6506758E-03
  0.1499413E-02  0.0000000E+00 -0.5050505E-02 -0.2373872E-04  0.0000000E+00 -0.6448993E-03
  0.5287294E-02  0.0000000E+00 -0.5050505E-02 -0.5680131E-04  0.0000000E+00 -0.6042006E-03
 -0.5050505E-02  0.0000000E+00 -0.5050505E-02 -0.1371296E-10  0.0000000E+00 -0.6421785E-03
 -0.5050505E-02  0.0000000E+00 -0.5050505E-02 -0.4475467E-10  0.0000000E+00 -0.6421785E-03
 -0.5050505E-02  0.0000000E+00 -0.5050505E-02 -0.7584083E-10  0.0000000E+00 -0.6421785E-03
 -0.5050505E-02  0.0000000E+00 -0.5050505E-02 -0.1054930E-09  0.0000000E+00 -0.6421786E-03
 -0.5050505E-02  0.0000000E+00 -0.5050505E-02 -0.1379224E-09  0.0000000E+00 -0.6421786E-03
 -0.5050505E-02  0.0000000E+00 -0.5050505E-02 -0.1721606E-09  0.0000000E+00 -0.6421787E-03
 -0.5050504E-02  0.0000000E+00 -0.5050505E-02 -0.2067028E-09  0.0000000E+00 -0.6421788E-03
 -0.5050501E-02  0.0000000E+00 -0.5050505E-02 -0.2410489E-09  0.0000000E+00 -0.6421789E-03
 -0.5050495E-02  0.0000000E+00 -0.5050505E-02 -0.2753934E-09  0.0000000E+00 -0.6421790E-03
 -0.5050482E-02  0.0000000E+00 -0.5050505E-02 -0.3101229E-09  0.0000000E+00 -0.6421791E-03
 -0.5050449E-02  0.0000000E+00 -0.5050505E-02 -0.3456323E-09  0.0000000E+00 -0.6421792E-03
 -0.5050376E-02  0.0000000E+00 -0.5050505E-02 -0.3822359E-09  0.0000000E+00 -0.6421794E-03
 -0.5050299E-02  0.0000000E+00 -0.5050505E-02 -0.4201981E-09  0.0000000E+00 -0.6421796E-03
 -0.5050178E-02  0.0000000E+00 -0.5050505E-02 -0.4597405E-09  0.0000000E+00 -0.6421798E-03
 -0.5050018E-02  0.0000000E+00 -0.5050505E-02 -0.5010635E-09  0.0000000E+00 -0.6421800E-03
 -0.5049710E-02  0.0000000E+00 -0.5050505E-02 -0.5443637E-09  0.0000000E+00 -0.6421802E-03
 -0.5049253E-02  0.0000000E+00 -0.5050505E-02 -0.5898332E-09  0.0000000E+00 -0.6421804E-03
 -0.5048636E-02  0.0000000E+00 -0.5050505E-02 -0.6376711E-09  0.0000000E+00 -0.6421807E-03
 -0.5047442E-02  0.0000000E+00 -0.5050505E-02 -0.6880815E-09  0.0000000E+00 -0.6421810E-03
 -0.5045727E-02  0.0000000E+00 -0.5050505E-02 -0.7412777E-09  0.0000000E+00 -0.6421813E-03
 -0.5043261E-02  0.0000000E+00 -0.5050505E-02 -0.7974827E-09  0.0000000E+00 -0.6421816E-03
 -0.5038714E-02  0.0000000E+00 -0.5050505E-02 -0.8569309E-09  0.0000000E+00 -0.6421820E-03
 -0.5032318E-02  0.0000000E+00 -0.5050505E-02 -0.9198693E-09  0.0000000E+00 -0.6421823E-03
 -0.5022454E-02  0.0000000E+00 -0.5050505E-02 -0.9865592E-09  0.0000000E+00 -0.6421827E-03
 -0.5012589E-02  0.0000000E+00 -0.5050505E-02 -0.1057277E-08  0.0000000E+00 -0.6421832E-03
 -0.5002725E-02  0.0000000E+00 -0.5050505E-02 -0.1132317E-08  0.0000000E+00 -0.6421836E-03
 -0.4992860E-02  0.0000000E+00 -0.5050505E-02 -0.1211990E-08  0.0000000E+00 -0.6421842E-03
 -0.4976523E-02  0.0000000E+00 -0.5050505E-02 -0.1296631E-08  0.0000000E+00 -0.6421847E-03
 -0.4956794E-02  0.0000000E+00 -0.5050505E-02 -0.1386595E-08  0.0000000E+00 -0.6421853E-03
 -0.4937066E-02  0.0000000E+00 -0.5050505E-02 -0.1482262E-08  0.0000000E+00 -0.6421859E-03
 -0.4906239E-02  0.0000000E+00 -0.5050505E-02 -0.1584040E-08  0.0000000E+00 -0.6421865E-03
 -0.4866782E-02  0.0000000E+00 -0.5050505E-02 -0.1692367E-08  0.0000000E+00 -0.6421872E-03
 -0.4827325E-02  0.0000000E+00 -0.5050505E-02 -0.1807713E-08  0.0000000E+00 -0.6421880E-03
 -0.4769372E-02  0.0000000E+00 -0.5050505E-02 -0.1930584E-08  0.0000000E+00 -0.6421888E-03
 -0.4690458E-02  0.0000000E+00 -0.5050505E-02 -0.2061527E-08  0.0000000E+00 -0.6421896E-03
 -0.4611543E-02  0.0000000E+00 -0.5050505E-02 -0.2201134E-08  0.0000000E+00 -0.6421905E-03
 -0.4503035E-02  0.0000000E+00 -0.5050505E-02 -0.2350042E-08  0.0000000E+00 -0.6421915E-03
 -0.4345206E-02  0.0000000E+00 -0.5050505E-02 -0.2508946E-08  0.0000000E+00 -0.6421925E-03
 -0.4187378E-02  0.0000000E+00 -0.5050505E-02 -0.2678599E-08  0.0000000E+00 -0.6421936E-03
 -0.3985156E-02  0.0000000E+00 -0.5050505E-02 -0.2859822E-08  0.0000000E+00 -0.6421948E-03
 -0.3669499E-02  0.0000000E+00 -0.5050505E-02 -0.3053508E-08  0.0000000E+00 -0.6421961E-03
 -0.3353842E-02  0.0000000E+00 -0.5050505E-02 -0.3260636E-08  0.0000000E+00 -0.6421974E-03
 -0.2978990E-02  0.0000000E+00 -0.5050505E-02 -0.3482276E-08  0.0000000E+00 -0.6421989E-03
 -0.2347676E-02  0.0000000E+00 -0.5050505E-02 -0.3719606E-08  0.0000000E+00 -0.6422004E-03
 -0.1716362E-02  0.0000000E+00 -0.5050505E-02 -0.3973918E-08  0.0000000E+00 -0.6422020E-03
 -0.1025842E-02  0.0000000E+00 -0.5050505E-02 -0.4246640E-08  0.0000000E+00 -0.6422038E-03
  0.2367855E-03  0.0000000E+00 -0.5050505E-02 -0.4539349E-08  0.0000000E+00 -0.6422057E-03
  0.1499413E-02  0.0000000E+00 -0.5050505E-02 -0.4853793E-08  0.0000000E+00 -0.6422077E-03
  0.2762042E-02  0.0000000E+00 -0.5050505E-02 -0.5191917E-08  0.0000000E+00 -0.6422098E-03
 -0.5050505E-02  0.0000000E+00 -0.5050505E-02 -0.5555886E-08  0.0000000E+00 -0.6422121E-03
 -0.5050505E-02  0.0000000E+00 -0.5050505E-02 -0.5948119E-08  0.0000000E+00 -0.6422145E-03
 -0.5050505E-02  0.0000000E+00 -0.5050505E-02 -0.6371327E-08  0.0000000E+00 -0.6422171E-03
 -0.5050505E-02  0.0000000E+00 -0.5050505E-02 -0.6828557E-08  0.0000000E+00 -0.6422199E-03
 -0.5050505E-02  0.0000000E+00 -0.5050505E-02 -0.7323244E-08  0.0000000E+00 -0.6422229E-03
 -0.5050505E-02  0.0000000E+00 -0.5050505E-02 -0.7859271E-08  0.0000000E+00 -0.6422262E-03
 -0.5050505E-02  0.0000000E+00 -0.5050505E-02 -0.8441046E-08  0.0000000E+00 -0.6422296E-03
 -0.5050504E-02  0.0000000E+00 -0.5050505E-02 -0.9073582E-08  0.0000000E+00 -0.6422333E-03
 -0.5050501E-02  0.0000000E+00 -0.5050505E-02 -0.9762607E-08  0.0000000E+00 -0.6422373E-03
 -0.5050495E-02  0.0000000E+00 -0.5050505E-02 -0.1051469E-07  0.0000000E+00 -0.6422416E-03
 -0.5050482E-02  0.0000000E+00 -0.5050505E-02 -0.1133737E-07  0.0000000E+00 -0.6422462E-03
 -0.5050449E-02  0.0000000E+00 -0.5050505E-02 -0.1223939E-07  0.0000000E+00 -0.6422512E-03
 -0.5050376E-02  0.0000000E+00 -0.5050505E-02 -0.1323084E-07  0.0000000E+00 -0.6422566E-03
 -0.5050299E-02  0.0000000E+00 -0.5050505E-02 -0.1432350E-07  0.0000000E+00 -0.6422624E-03
 -0.5050178E-02  0.0000000E+00 -0.5050505E-02 -0.1553114E-07  0.0000000E+00 -0.6422687E-03
 -0.5050018E-02  0.0000000E+00 -0.5050505E-02 -0.1686990E-07  0.0000000E+00 -0.6422755E-03
 -0.5049710E-02  0.0000000E+00 -0.5050505E-02 -0.1835885E-07  0.0000000E+00 -0.6422830E-03
 -0.5049253E-02  0.0000000E+00 -0.5050505E-02 -0.2002061E-07  0.0000000E+00 -0.6422910E-03
 -0.5048636E-02  0.0000000E+00 -0.5050505E-02 -0.2188210E-07  0.0000000E+00 -0.6422998E-03
 -0.5047442E-02  0.0000000E+00 -0.5050505E-02 -0.2397561E-07  0.0000000E+00 -0.6423095E-03
 -0.5045727E-02  0.0000000E+00 -0.5050505E-02 -0.2634004E-07  0.0000000E+00 -0.6423200E-03
 -0.5043261E-02  0.0000000E+00 -0.5050505E-02 -0.2902256E-07  0.0000000E+00 -0.6423316E-03
 -0.5038714E-02  0.0000000E+00 -0.5050505E-02 -0.3208072E-07  0.0000000E+00 -0.6423443E-03
 -0.5032318E-02  0.0000000E+00 -0.5050505E-02 -0.3558526E-07  0.0000000E+00 -0.6423584E-03
 -0.5022454E-02  0.0000000E+00 -0.5050505E-02 -0.3962370E-07  0.0000000E+00 -0.6423740E-03
 -0.5012589E-02  0.0000000E+00 -0.5050505E-02 -0.4430526E-07  0.0000000E+00 -0.6423914E-03
 -0.5002725E-02  0.0000000E+00 -0.5050505E-02 -0.4976731E-07  0.0000000E+00 -0.6424108E-03
 -0.4992860E-02  0.0000000E+00 -0.5050505E-02 -0.5618424E-07  0.0000000E+00 -0.6424327E-03
 -0.4976523E-02  0.0000000E+00 -0.5050505E-02 -0.6377958E-07  0.0000000E+00 -0.6424572E-03
 -0.4956794E-02  0.0000000E+00 -0.5050505E-02 -0.7284290E-07  0.0000000E+00 -0.6424851E-03
 -0.4937066E-02  0.0000000E+00 -0.5050505E-02 -0.8375359E-07  0.0000000E+00 -0.6425169E-03
 -0.4906239E-02  0.0000000E+00 -0.5050505E-02 -0.9701496E-07  0.0000000E+00 -0.6425534E-03
 -0.4866782E-02  0.0000000E+00 -0.5050505E-02 -0.1133038E-06  0.0000000E+00 -0.6425955E-03
 -0.4827325E-02  0.0000000E+00 -0.5050505E-02 -0.1335435E-06  0.0000000E+00 -0.6426444E-03
 -0.4769372E-02  0.0000000E+00 -0.5050505E-02 -0.1590151E-06  0.0000000E+00 -0.6427018E-03
 -0.4690458E-02  0.0000000E+00 -0.5050505E-02 -0.1915266E-06  0.0000000E+00 -0.6427697E-03
 -0.4611543E-02  0.0000000E+00 -0.5050505E-02 -0.2336811E-06  0.0000000E+00 -0.6428507E-03
 -0.4503035E-02  0.0000000E+00 -0.5050505E-02 -0.2893072E-06  0.0000000E+00 -0.6429482E-03
 -0.4345206E-02  0.0000000E+00 -0.5050505E-02 -0.3641708E-06  0.0000000E+00 -0.6430667E-03
 -0.4187378E-02  0.0000000E+00 -0.5050505E-02 -0.4671817E-06  0.0000000E+00 -0.6432121E-03
 -0.3985156E-02  0.0000000E+00 -0.5050505E-02 -0.6124983E-06  0.0000000E+00 -0.6433918E-03
 -0.3669499E-02  0.0000000E+00 -0.5050505E-02 -0.8232932E-06  0.0000000E+00 -0.6436142E-03
 -0.3353842E-02  0.0000000E+00 -0.5050505E-02 -0.1138650E-05  0.0000000E+00 -0.6438873E-03
 -0.2978990E-02  0.0000000E+00 -0.5050505E-02 -0.1626351E-05  0.0000000E+00 -0.6442109E-03
 -0.2347676E-02  0.0000000E+00 -0.5050505E-02 -0.2406366E-05  0.0000000E+00 -0.6445543E-03
 -0.1716362E-02  0.0000000E+00 -0.5050505E-02 -0.3691078E-05  0.0000000E+00 -0.6447910E-03
 -0.1025842E-02  0.0000000E+00 -0.5050505E-02 -0.5837408E-05  0.0000000E+00 -0.6445170E-03
  0.2367855E-03  0.0000000E+00 -0.5050505E-02 -0.9321615E-05  0.0000000E+00 -0.6426070E-03
  0.1499413E-02  0.0000000E+00 -0.5050505E-02 -0.1409314E-04  0.0000000E+00 -0.6364689E-03
  0.5287294E-02  0.0000000E+00 -0.5050505E-02 -0.1556414E-04  0.0000000E+00 -0.6232466E-03
 -0.5050505E-02  0.0000000E+00 -0.5050505E-02 -0.2007265E-10  0.0000000E+00 -0.6394111E-03
 -0.5050505E-02  0.0000000E+00 -0.5050505E-02 -0.6323107E-10  0.0000000E+00 -0.6394111E-03
 -0.5050505E-02  0.0000000E+00 -0.5050505E-02 -0.1061771E-09  0.0000000E+00 -0.6394112E-03
 -0.5050505E-02  0.0000000E+00 -0.5050505E-02 -0.1473554E-09  0.0000000E+00 -0.6394112E-03
 -0.5050505E-02  0.0000000E+00 -0.5050505E-02 -0.1925416E-09  0.0000000E+00 -0.6394112E-03
 -0.5050505E-02  0.0000000E+00 -0.5050505E-02 -0.2403946E-09  0.0000000E+00 -0.6394113E-03
 -0.5050504E-02  0.0000000E+00 -0.5050505E-02 -0.2887934E-09  0.0000000E+00 -0.6394114E-03
 -0.5050501E-02  0.0000000E+00 -0.5050505E-02 -0.3369523E-09  0.0000000E+00 -0.6394115E-03
 -0.5050495E-02  0.0000000E+00 -0.5050505E-02 -0.3850819E-09  0.0000000E+00 -0.6394116E-03
 -0.5050482E-02  0.0000000E+00 -0.5050505E-02 -0.4337063E-09  0.0000000E+00 -0.6394117E-03
 -0.5050449E-02  0.0000000E+00 -0.5050505E-02 -0.4833814E-09  0.0000000E+00 -0.6394119E-03
 -0.5050376E-02  0.0000000E+00 -0.5050505E-02 -0.5345598E-09  0.0000000E+00 -0.6394120E-03
 -0.5050299E-02  0.0000000E+00 -0.5050505E-02 -0.5876187E-09  0.0000000E+00 -0.6394122E-03
 -0.5050178E-02  0.0000000E+00 -0.5050505E-02 -0.6428756E-09  0.0000000E+00 -0.6394124E-03
 -0.5050018E-02  0.0000000E+00 -0.5050505E-02 -0.7006144E-09  0.0000000E+00 -0.6394126E-03
 -0.5049710E-02  0.0000000E+00 -0.5050505E-02 -0.7611107E-09  0.0000000E+00 -0.6394128E-03
 -0.5049253E-02  0.0000000E+00 -0.5050505E-02 -0.8246334E-09  0.0000000E+00 -0.6394130E-03
 -0.5048636E-02  0.0000000E+00 -0.5050505E-02 -0.8914601E-09  0.0000000E+00 -0.6394133E-03
 -0.5047442E-02  0.0000000E+00 -0.5050505E-02 -0.9618750E-09  0.0000000E+00 -0.6394136E-03
 -0.5045727E-02  0.0000000E+00 -0.5050505E-02 -0.1036175E-08  0.0000000E+00 -0.6394139E-03
 -0.5043261E-02  0.0000000E+00 -0.5050505E-02 -0.1114670E-08  0.0000000E+00 -0.6394142E-03
 -0.5038714E-02  0.0000000E+00 -0.5050505E-02 -0.1197687E-08  0.0000000E+00 -0.6394146E-03
 -0.5032318E-02  0.0000000E+00 -0.5050505E-02 -0.1285570E-08  0.0000000E+00 -0.6394149E-03
 -0.5022454E-02  0.0000000E+00 -0.5050505E-02 -0.1378681E-08  0.0000000E+00 -0.6394153E-03
 -0.5012589E-02  0.0000000E+00 -0.5050505E-02 -0.1477405E-08  0.0000000E+00 -0.6394158E-03
 -0.5002725E-02  0.0000000E+00 -0.5050505E-02 -0.1582151E-08  0.0000000E+00 -0.6394162E-03
 -0.4992860E-02  0.0000000E+00 -0.5050505E-02 -0.1693352E-08  0.0000000E+00 -0.6394167E-03
 -0.4976523E-02  0.0000000E+00 -0.5050505E-02 -0.1811473E-08  0.0000000E+00 -0.6394173E-03
 -0.4956794E-02  0.0000000E+00 -0.5050505E-02 -0.1937007E-08  0.0000000E+00 -0.6394178E-03
 -0.4937066E-02  0.0000000E+00 -0.5050505E-02 -0.2070483E-08  0.0000000E+00 -0.6394185E-03