title = "dataset feddes"
variables = "x", "y", "z", "vx", "vy", "vz"
zone t = "velocities, solution time =  1.200E+01 days        " i =   99, j =   99, k =    1,  f=point
 -0.5050505E-02  0.0000000E+00 -0.5050505E-02 -0.3369861E-11  0.0000000E+00 -0.5736908E-03
 -0.5050505E-02  0.0000000E+00 -0.5050505E-02 -0.1046903E-10  0.0000000E+00 -0.5736908E-03
 -0.5050505E-02  0.0000000E+00 -0.5050505E-02 -0.1765093E-10  0.0000000E+00 -0.5736908E-03
 -0.5050505E-02  0.0000000E+00 -0.5050505E-02 -0.2472502E-10  0.0000000E+00 -0.5736909E-03
 -0.5050505E-02  0.0000000E+00 -0.5050505E-02 -0.3175917E-10  0.0000000E+00 -0.5736909E-03
 -0.5050505E-02  0.0000000E+00 -0.5050505E-02 -0.3880986E-10  0.0000000E+00 -0.5736910E-03
 -0.5050504E-02  0.0000000E+00 -0.5050505E-02 -0.4592019E-10  0.0000000E+00 -0.5736911E-03
 -0.5050501E-02  0.0000000E+00 -0.5050505E-02 -0.5313468E-10  0.0000000E+00 -0.5736912E-03
 -0.5050495E-02  0.0000000E+00 -0.5050505E-02 -0.6048042E-10  0.0000000E+00 -0.5736913E-03
 -0.5050482E-02  0.0000000E+00 -0.5050505E-02 -0.6799841E-10  0.0000000E+00 -0.5736915E-03
 -0.5050449E-02  0.0000000E+00 -0.5050505E-02 -0.7571426E-10  0.0000000E+00 -0.5736916E-03
 -0.5050376E-02  0.0000000E+00 -0.5050505E-02 -0.8366068E-10  0.0000000E+00 -0.5736918E-03
 -0.5050299E-02  0.0000000E+00 -0.5050505E-02 -0.9186975E-10  0.0000000E+00 -0.5736920E-03
 -0.5050178E-02  0.0000000E+00 -0.5050505E-02 -0.1003688E-09  0.0000000E+00 -0.5736922E-03
 -0.5050018E-02  0.0000000E+00 -0.5050505E-02 -0.1091915E-09  0.0000000E+00 -0.5736924E-03
 -0.5049710E-02  0.0000000E+00 -0.5050505E-02 -0.1183683E-09  0.0000000E+00 -0.5736927E-03
 -0.5049253E-02  0.0000000E+00 -0.5050505E-02 -0.1279314E-09  0.0000000E+00 -0.5736929E-03
 -0.5048636E-02  0.0000000E+00 -0.5050505E-02 -0.1379148E-09  0.0000000E+00 -0.5736932E-03
 -0.5047442E-02  0.0000000E+00 -0.5050505E-02 -0.1483529E-09  0.0000000E+00 -0.5736935E-03
 -0.5045727E-02  0.0000000E+00 -0.5050505E-02 -0.1592819E-09  0.0000000E+00 -0.5736938E-03
 -0.5043261E-02  0.0000000E+00 -0.5050505E-02 -0.1707395E-09  0.0000000E+00 -0.5736942E-03
 -0.5038714E-02  0.0000000E+00 -0.5050505E-02 -0.1827652E-09  0.0000000E+00 -0.5736946E-03
 -0.5032318E-02  0.0000000E+00 -0.5050505E-02 -0.1954005E-09  0.0000000E+00 -0.5736950E-03
 -0.5022454E-02  0.0000000E+00 -0.5050505E-02 -0.2086893E-09  0.0000000E+00 -0.5736954E-03
 -0.5012589E-02  0.0000000E+00 -0.5050505E-02 -0.2226778E-09  0.0000000E+00 -0.5736959E-03
 -0.5002725E-02  0.0000000E+00 -0.5050505E-02 -0.2374151E-09  0.0000000E+00 -0.5736963E-03
 -0.4992860E-02  0.0000000E+00 -0.5050505E-02 -0.2529532E-09  0.0000000E+00 -0.5736969E-03
 -0.4976523E-02  0.0000000E+00 -0.5050505E-02 -0.2693476E-09  0.0000000E+00 -0.5736974E-03
 -0.4956794E-02  0.0000000E+00 -0.5050505E-02 -0.2866572E-09  0.0000000E+00 -0.5736980E-03
 -0.4937066E-02  0.0000000E+00 -0.5050505E-02 -0.3049455E-09  0.0000000E+00 -0.5736987E-03
 -0.4906239E-02  0.0000000E+00 -0.5050505E-02 -0.3242799E-09  0.0000000E+00 -0.5736993E-03
 -0.4866782E-02  0.0000000E+00 -0.5050505E-02 -0.3447333E-09  0.0000000E+00 -0.5737000E-03
 -0.4827325E-02  0.0000000E+00 -0.5050505E-02 -0.3663838E-09  0.0000000E+00 -0.5737008E-03
 -0.4769372E-02  0.0000000E+00 -0.5050505E-02 -0.3893157E-09  0.0000000E+00 -0.5737016E-03
 -0.4690458E-02  0.0000000E+00 -0.5050505E-02 -0.4136202E-09  0.0000000E+00 -0.5737025E-03
 -0.4611543E-02  0.0000000E+00 -0.5050505E-02 -0.4393958E-09  0.0000000E+00 -0.5737034E-03
 -0.4503035E-02  0.0000000E+00 -0.5050505E-02 -0.4667495E-09  0.0000000E+00 -0.5737043E-03
 -0.4345206E-02  0.0000000E+00 -0.5050505E-02 -0.4957976E-09  0.0000000E+00 -0.5737054E-03
 -0.4187378E-02  0.0000000E+00 -0.5050505E-02 -0.5266669E-09  0.0000000E+00 -0.5737065E-03
 -0.3985156E-02  0.0000000E+00 -0.5050505E-02 -0.5594957E-09  0.0000000E+00 -0.5737076E-03
 -0.3669499E-02  0.0000000E+00 -0.5050505E-02 -0.5944356E-09  0.0000000E+00 -0.5737089E-03
 -0.3353842E-02  0.0000000E+00 -0.5050505E-02 -0.6316525E-09  0.0000000E+00 -0.5737102E-03
 -0.2978990E-02  0.0000000E+00 -0.5050505E-02 -0.6713292E-09  0.0000000E+00 -0.5737116E-03
 -0.2347676E-02  0.0000000E+00 -0.5050505E-02 -0.7136668E-09  0.0000000E+00 -0.5737130E-03
 -0.1716362E-02  0.0000000E+00 -0.5050505E-02 -0.7588876E-09  0.0000000E+00 -0.5737146E-03
 -0.1025842E-02  0.0000000E+00 -0.5050505E-02 -0.8072377E-09  0.0000000E+00 -0.5737163E-03
  0.2367855E-03  0.0000000E+00 -0.5050505E-02 -0.8589903E-09  0.0000000E+00 -0.5737181E-03
  0.1499413E-02  0.0000000E+00 -0.5050505E-02 -0.9144494E-09  0.0000000E+00 -0.5737199E-03
  0.2762042E-02  0.0000000E+00 -0.5050505E-02 -0.9739541E-09  0.0000000E+00 -0.5737220E-03
 -0.5050505E-02  0.0000000E+00 -0.5050505E-02 -0.1037884E-08  0.0000000E+00 -0.5737241E-03
 -0.5050505E-02  0.0000000E+00 -0.5050505E-02 -0.1106664E-08  0.0000000E+00 -0.5737264E-03
 -0.5050505E-02  0.0000000E+00 -0.5050505E-02 -0.1180773E-08  0.0000000E+00 -0.5737288E-03
 -0.5050505E-02  0.0000000E+00 -0.5050505E-02 -0.1260750E-08  0.0000000E+00 -0.5737314E-03
 -0.5050505E-02  0.0000000E+00 -0.5050505E-02 -0.1347208E-08  0.0000000E+00 -0.5737342E-03
 -0.5050505E-02  0.0000000E+00 -0.5050505E-02 -0.1440837E-08  0.0000000E+00 -0.5737372E-03
 -0.5050505E-02  0.0000000E+00 -0.5050505E-02 -0.1542428E-08  0.0000000E+00 -0.5737404E-03
 -0.5050504E-02  0.0000000E+00 -0.5050505E-02 -0.1652880E-08  0.0000000E+00 -0.5737438E-03
 -0.5050501E-02  0.0000000E+00 -0.5050505E-02 -0.1773224E-08  0.0000000E+00 -0.5737475E-03
 -0.5050495E-02  0.0000000E+00 -0.5050505E-02 -0.1904647E-08  0.0000000E+00 -0.5737514E-03
 -0.5050482E-02  0.0000000E+00 -0.5050505E-02 -0.2048516E-08  0.0000000E+00 -0.5737556E-03
 -0.5050449E-02  0.0000000E+00 -0.5050505E-02 -0.2206415E-08  0.0000000E+00 -0.5737601E-03
 -0.5050376E-02  0.0000000E+00 -0.5050505E-02 -0.2380185E-08  0.0000000E+00 -0.5737650E-03
 -0.5050299E-02  0.0000000E+00 -0.5050505E-02 -0.2571975E-08  0.0000000E+00 -0.5737703E-03
 -0.5050178E-02  0.0000000E+00 -0.5050505E-02 -0.2784302E-08  0.0000000E+00 -0.5737760E-03
 -0.5050018E-02  0.0000000E+00 -0.5050505E-02 -0.3020131E-08  0.0000000E+00 -0.5737822E-03
 -0.5049710E-02  0.0000000E+00 -0.5050505E-02 -0.3282969E-08  0.0000000E+00 -0.5737890E-03
 -0.5049253E-02  0.0000000E+00 -0.5050505E-02 -0.3576983E-08  0.0000000E+00 -0.5737963E-03
 -0.5048636E-02  0.0000000E+00 -0.5050505E-02 -0.3907155E-08  0.0000000E+00 -0.5738043E-03
 -0.5047442E-02  0.0000000E+00 -0.5050505E-02 -0.4279470E-08  0.0000000E+00 -0.5738130E-03
 -0.5045727E-02  0.0000000E+00 -0.5050505E-02 -0.4701159E-08  0.0000000E+00 -0.5738226E-03
 -0.5043261E-02  0.0000000E+00 -0.5050505E-02 -0.5181023E-08  0.0000000E+00 -0.5738332E-03
 -0.5038714E-02  0.0000000E+00 -0.5050505E-02 -0.5729834E-08  0.0000000E+00 -0.5738448E-03
 -0.5032318E-02  0.0000000E+00 -0.5050505E-02 -0.6360878E-08  0.0000000E+00 -0.5738577E-03
 -0.5022454E-02  0.0000000E+00 -0.5050505E-02 -0.7090668E-08  0.0000000E+00 -0.5738721E-03
 -0.5012589E-02  0.0000000E+00 -0.5050505E-02 -0.7939897E-08  0.0000000E+00 -0.5738881E-03
 -0.5002725E-02  0.0000000E+00 -0.5050505E-02 -0.8934730E-08  0.0000000E+00 -0.5739061E-03
 -0.4992860E-02  0.0000000E+00 -0.5050505E-02 -0.1010857E-07  0.0000000E+00 -0.5739264E-03
 -0.4976523E-02  0.0000000E+00 -0.5050505E-02 -0.1150452E-07  0.0000000E+00 -0.5739495E-03
 -0.4956794E-02  0.0000000E+00 -0.5050505E-02 -0.1317882E-07  0.0000000E+00 -0.5739759E-03
 -0.4937066E-02  0.0000000E+00 -0.5050505E-02 -0.1520579E-07  0.0000000E+00 -0.5740062E-03
 -0.4906239E-02  0.0000000E+00 -0.5050505E-02 -0.1768502E-07  0.0000000E+00 -0.5740413E-03
 -0.4866782E-02  0.0000000E+00 -0.5050505E-02 -0.2075194E-07  0.0000000E+00 -0.5740823E-03
 -0.4827325E-02  0.0000000E+00 -0.5050505E-02 -0.2459391E-07  0.0000000E+00 -0.5741307E-03
 -0.4769372E-02  0.0000000E+00 -0.5050505E-02 -0.2947502E-07  0.0000000E+00 -0.5741884E-03
 -0.4690458E-02  0.0000000E+00 -0.5050505E-02 -0.3577540E-07  0.0000000E+00 -0.5742581E-03
 -0.4611543E-02  0.0000000E+00 -0.5050505E-02 -0.4405540E-07  0.0000000E+00 -0.5743433E-03
 -0.4503035E-02  0.0000000E+00 -0.5050505E-02 -0.5516368E-07  0.0000000E+00 -0.5744492E-03
 -0.4345206E-02  0.0000000E+00 -0.5050505E-02 -0.7042614E-07  0.0000000E+00 -0.5745833E-03
 -0.4187378E-02  0.0000000E+00 -0.5050505E-02 -0.9199023E-07  0.0000000E+00 -0.5747567E-03
 -0.3985156E-02  0.0000000E+00 -0.5050505E-02 -0.1234839E-06  0.0000000E+00 -0.5749867E-03
 -0.3669499E-02  0.0000000E+00 -0.5050505E-02 -0.1713495E-06  0.0000000E+00 -0.5753014E-03
 -0.3353842E-02  0.0000000E+00 -0.5050505E-02 -0.2477279E-06  0.0000000E+00 -0.5757489E-03
 -0.2978990E-02  0.0000000E+00 -0.5050505E-02 -0.3771850E-06  0.0000000E+00 -0.5764160E-03
 -0.2347676E-02  0.0000000E+00 -0.5050505E-02 -0.6138075E-06  0.0000000E+00 -0.5774742E-03
 -0.1716362E-02  0.0000000E+00 -0.5050505E-02 -0.1088940E-05  0.0000000E+00 -0.5792925E-03
 -0.1025842E-02  0.0000000E+00 -0.5050505E-02 -0.2158203E-05  0.0000000E+00 -0.5827607E-03
  0.2367855E-03  0.0000000E+00 -0.5050505E-02 -0.4899967E-05  0.0000000E+00 -0.5903025E-03
  0.1499413E-02  0.0000000E+00 -0.5050505E-02 -0.1296155E-04  0.0000000E+00 -0.6094053E-03
  0.5287294E-02  0.0000000E+00 -0.5050505E-02 -0.2139320E-03  0.0000000E+00 -0.4855184E-03
 -0.5050505E-02  0.0000000E+00 -0.5050505E-02 -0.1012077E-10  0.0000000E+00 -0.5729752E-03
 -0.5050505E-02  0.0000000E+00 -0.5050505E-02 -0.3140540E-10  0.0000000E+00 -0.5729752E-03
 -0.5050505E-02  0.0000000E+00 -0.5050505E-02 -0.5299718E-10  0.0000000E+00 -0.5729752E-03
 -0.5050505E-02  0.0000000E+00 -0.5050505E-02 -0.7422473E-10  0.0000000E+00 -0.5729753E-03
 -0.5050505E-02  0.0000000E+00 -0.5050505E-02 -0.9531073E-10  0.0000000E+00 -0.5729753E-03
 -0.5050505E-02  0.0000000E+00 -0.5050505E-02 -0.1164422E-09  0.0000000E+00 -0.5729754E-03
 -0.5050504E-02  0.0000000E+00 -0.5050505E-02 -0.1377499E-09  0.0000000E+00 -0.5729755E-03
 -0.5050501E-02  0.0000000E+00 -0.5050505E-02 -0.1593726E-09  0.0000000E+00 -0.5729756E-03
 -0.5050495E-02  0.0000000E+00 -0.5050505E-02 -0.1813913E-09  0.0000000E+00 -0.5729757E-03
 -0.5050482E-02  0.0000000E+00 -0.5050505E-02 -0.2039261E-09  0.0000000E+00 -0.5729759E-03
 -0.5050449E-02  0.0000000E+00 -0.5050505E-02 -0.2270578E-09  0.0000000E+00 -0.5729760E-03
 -0.5050376E-02  0.0000000E+00 -0.5050505E-02 -0.2508799E-09  0.0000000E+00 -0.5729762E-03
 -0.5050299E-02  0.0000000E+00 -0.5050505E-02 -0.2754902E-09  0.0000000E+00 -0.5729764E-03
 -0.5050178E-02  0.0000000E+00 -0.5050505E-02 -0.3009707E-09  0.0000000E+00 -0.5729766E-03
 -0.5050018E-02  0.0000000E+00 -0.5050505E-02 -0.3274208E-09  0.0000000E+00 -0.5729768E-03
 -0.5049710E-02  0.0000000E+00 -0.5050505E-02 -0.3549325E-09  0.0000000E+00 -0.5729770E-03
 -0.5049253E-02  0.0000000E+00 -0.5050505E-02 -0.3836021E-09  0.0000000E+00 -0.5729773E-03
 -0.5048636E-02  0.0000000E+00 -0.5050505E-02 -0.4135313E-09  0.0000000E+00 -0.5729776E-03
 -0.5047442E-02  0.0000000E+00 -0.5050505E-02 -0.4448231E-09  0.0000000E+00 -0.5729779E-03
 -0.5045727E-02  0.0000000E+00 -0.5050505E-02 -0.4775856E-09  0.0000000E+00 -0.5729782E-03
 -0.5043261E-02  0.0000000E+00 -0.5050505E-02 -0.5119321E-09  0.0000000E+00 -0.5729786E-03
 -0.5038714E-02  0.0000000E+00 -0.5050505E-02 -0.5479806E-09  0.0000000E+00 -0.5729790E-03
 -0.5032318E-02  0.0000000E+00 -0.5050505E-02 -0.5858556E-09  0.0000000E+00 -0.5729794E-03
 -0.5022454E-02  0.0000000E+00 -0.5050505E-02 -0.6256882E-09  0.0000000E+00 -0.5729798E-03
 -0.5012589E-02  0.0000000E+00 -0.5050505E-02 -0.6676171E-09  0.0000000E+00 -0.5729802E-03
 -0.5002725E-02  0.0000000E+00 -0.5050505E-02 -0.7117888E-09  0.0000000E+00 -0.5729807E-03
 -0.4992860E-02  0.0000000E+00 -0.5050505E-02 -0.7583592E-09  0.0000000E+00 -0.5729813E-03
 -0.4976523E-02  0.0000000E+00 -0.5050505E-02 -0.8074943E-09  0.0000000E+00 -0.5729818E-03
 -0.4956794E-02  0.0000000E+00 -0.5050505E-02 -0.8593709E-09  0.0000000E+00 -0.5729824E-03
 -0.4937066E-02  0.0000000E+00 -0.5050505E-02 -0.9141781E-09  0.0000000E+00 -0.5729830E-03
 -0.4906239E-02  0.0000000E+00 -0.5050505E-02 -0.9721185E-09  0.0000000E+00 -0.5729837E-03
 -0.4866782E-02  0.0000000E+00 -0.5050505E-02 -0.1033410E-08  0.0000000E+00 -0.5729844E-03
 -0.4827325E-02  0.0000000E+00 -0.5050505E-02 -0.1098285E-08  0.0000000E+00 -0.5729852E-03
 -0.4769372E-02  0.0000000E+00 -0.5050505E-02 -0.1166998E-08  0.0000000E+00 -0.5729860E-03
 -0.4690458E-02  0.0000000E+00 -0.5050505E-02 -0.1239820E-08  0.0000000E+00 -0.5729868E-03
 -0.4611543E-02  0.0000000E+00 -0.5050505E-02 -0.1317046E-08  0.0000000E+00 -0.5729877E-03
 -0.4503035E-02  0.0000000E+00 -0.5050505E-02 -0.1398996E-08  0.0000000E+00 -0.5729887E-03
 -0.4345206E-02  0.0000000E+00 -0.5050505E-02 -0.1486018E-08  0.0000000E+00 -0.5729897E-03
 -0.4187378E-02  0.0000000E+00 -0.5050505E-02 -0.1578491E-08  0.0000000E+00 -0.5729908E-03
 -0.3985156E-02  0.0000000E+00 -0.5050505E-02 -0.1676829E-08  0.0000000E+00 -0.5729920E-03
 -0.3669499E-02  0.0000000E+00 -0.5050505E-02 -0.1781484E-08  0.0000000E+00 -0.5729932E-03
 -0.3353842E-02  0.0000000E+00 -0.5050505E-02 -0.1892953E-08  0.0000000E+00 -0.5729945E-03
 -0.2978990E-02  0.0000000E+00 -0.5050505E-02 -0.2011781E-08  0.0000000E+00 -0.5729959E-03
 -0.2347676E-02  0.0000000E+00 -0.5050505E-02 -0.2138570E-08  0.0000000E+00 -0.5729974E-03
 -0.1716362E-02  0.0000000E+00 -0.5050505E-02 -0.2273983E-08  0.0000000E+00 -0.5729989E-03
 -0.1025842E-02  0.0000000E+00 -0.5050505E-02 -0.2418757E-08  0.0000000E+00 -0.5730006E-03
  0.2367855E-03  0.0000000E+00 -0.5050505E-02 -0.2573706E-08  0.0000000E+00 -0.5730024E-03
  0.1499413E-02  0.0000000E+00 -0.5050505E-02 -0.2739738E-08  0.0000000E+00 -0.5730042E-03
  0.2762042E-02  0.0000000E+00 -0.5050505E-02 -0.2917866E-08  0.0000000E+00 -0.5730062E-03
 -0.5050505E-02  0.0000000E+00 -0.5050505E-02 -0.3109221E-08  0.0000000E+00 -0.5730084E-03
 -0.5050505E-02  0.0000000E+00 -0.5050505E-02 -0.3315075E-08  0.0000000E+00 -0.5730107E-03
 -0.5050505E-02  0.0000000E+00 -0.5050505E-02 -0.3536853E-08  0.0000000E+00 -0.5730131E-03
 -0.5050505E-02  0.0000000E+00 -0.5050505E-02 -0.3776168E-08  0.0000000E+00 -0.5730157E-03
 -0.5050505E-02  0.0000000E+00 -0.5050505E-02 -0.4034839E-08  0.0000000E+00 -0.5730184E-03
 -0.5050505E-02  0.0000000E+00 -0.5050505E-02 -0.4314933E-08  0.0000000E+00 -0.5730214E-03
 -0.5050505E-02  0.0000000E+00 -0.5050505E-02 -0.4618798E-08  0.0000000E+00 -0.5730246E-03
 -0.5050504E-02  0.0000000E+00 -0.5050505E-02 -0.4949120E-08  0.0000000E+00 -0.5730280E-03
 -0.5050501E-02  0.0000000E+00 -0.5050505E-02 -0.5308969E-08  0.0000000E+00 -0.5730316E-03
 -0.5050495E-02  0.0000000E+00 -0.5050505E-02 -0.5701876E-08  0.0000000E+00 -0.5730355E-03
 -0.5050482E-02  0.0000000E+00 -0.5050505E-02 -0.6131912E-08  0.0000000E+00 -0.5730397E-03
 -0.5050449E-02  0.0000000E+00 -0.5050505E-02 -0.6603789E-08  0.0000000E+00 -0.5730442E-03
 -0.5050376E-02  0.0000000E+00 -0.5050505E-02 -0.7122983E-08  0.0000000E+00 -0.5730490E-03
 -0.5050299E-02  0.0000000E+00 -0.5050505E-02 -0.7695880E-08  0.0000000E+00 -0.5730543E-03
 -0.5050178E-02  0.0000000E+00 -0.5050505E-02 -0.8329961E-08  0.0000000E+00 -0.5730599E-03
 -0.5050018E-02  0.0000000E+00 -0.5050505E-02 -0.9034030E-08  0.0000000E+00 -0.5730661E-03
 -0.5049710E-02  0.0000000E+00 -0.5050505E-02 -0.9818493E-08  0.0000000E+00 -0.5730727E-03
 -0.5049253E-02  0.0000000E+00 -0.5050505E-02 -0.1069571E-07  0.0000000E+00 -0.5730800E-03
 -0.5048636E-02  0.0000000E+00 -0.5050505E-02 -0.1168045E-07  0.0000000E+00 -0.5730879E-03
 -0.5047442E-02  0.0000000E+00 -0.5050505E-02 -0.1279042E-07  0.0000000E+00 -0.5730965E-03
 -0.5045727E-02  0.0000000E+00 -0.5050505E-02 -0.1404704E-07  0.0000000E+00 -0.5731060E-03
 -0.5043261E-02  0.0000000E+00 -0.5050505E-02 -0.1547630E-07  0.0000000E+00 -0.5731164E-03
 -0.5038714E-02  0.0000000E+00 -0.5050505E-02 -0.1711003E-07  0.0000000E+00 -0.5731279E-03
 -0.5032318E-02  0.0000000E+00 -0.5050505E-02 -0.1898740E-07  0.0000000E+00 -0.5731406E-03
 -0.5022454E-02  0.0000000E+00 -0.5050505E-02 -0.2115705E-07  0.0000000E+00 -0.5731547E-03
 -0.5012589E-02  0.0000000E+00 -0.5050505E-02 -0.2367986E-07  0.0000000E+00 -0.5731705E-03
 -0.5002725E-02  0.0000000E+00 -0.5050505E-02 -0.2663264E-07  0.0000000E+00 -0.5731881E-03
 -0.4992860E-02  0.0000000E+00 -0.5050505E-02 -0.3011329E-07  0.0000000E+00 -0.5732080E-03
 -0.4976523E-02  0.0000000E+00 -0.5050505E-02 -0.3424787E-07  0.0000000E+00 -0.5732306E-03
 -0.4956794E-02  0.0000000E+00 -0.5050505E-02 -0.3920045E-07  0.0000000E+00 -0.5732563E-03
 -0.4937066E-02  0.0000000E+00 -0.5050505E-02 -0.4518725E-07  0.0000000E+00 -0.5732857E-03
 -0.4906239E-02  0.0000000E+00 -0.5050505E-02 -0.5249702E-07  0.0000000E+00 -0.5733197E-03
 -0.4866782E-02  0.0000000E+00 -0.5050505E-02 -0.6152100E-07  0.0000000E+00 -0.5733593E-03
 -0.4827325E-02  0.0000000E+00 -0.5050505E-02 -0.7279792E-07  0.0000000E+00 -0.5734059E-03
 -0.4769372E-02  0.0000000E+00 -0.5050505E-02 -0.8708305E-07  0.0000000E+00 -0.5734611E-03
 -0.4690458E-02  0.0000000E+00 -0.5050505E-02 -0.1054565E-06  0.0000000E+00 -0.5735272E-03
 -0.4611543E-02  0.0000000E+00 -0.5050505E-02 -0.1294976E-06  0.0000000E+00 -0.5736075E-03
 -0.4503035E-02  0.0000000E+00 -0.5050505E-02 -0.1615749E-06  0.0000000E+00 -0.5737063E-03
 -0.4345206E-02  0.0000000E+00 -0.5050505E-02 -0.2053426E-06  0.0000000E+00 -0.5738298E-03
 -0.4187378E-02  0.0000000E+00 -0.5050505E-02 -0.2666239E-06  0.0000000E+00 -0.5739867E-03
 -0.3985156E-02  0.0000000E+00 -0.5050505E-02 -0.3550498E-06  0.0000000E+00 -0.5741902E-03
 -0.3669499E-02  0.0000000E+00 -0.5050505E-02 -0.4872389E-06  0.0000000E+00 -0.5744597E-03
 -0.3353842E-02  0.0000000E+00 -0.5050505E-02 -0.6932978E-06  0.0000000E+00 -0.5748250E-03
 -0.2978990E-02  0.0000000E+00 -0.5050505E-02 -0.1030875E-05  0.0000000E+00 -0.5753312E-03
 -0.2347676E-02  0.0000000E+00 -0.5050505E-02 -0.1617423E-05  0.0000000E+00 -0.5760424E-03
 -0.1716362E-02  0.0000000E+00 -0.5050505E-02 -0.2709002E-05  0.0000000E+00 -0.5770260E-03
 -0.1025842E-02  0.0000000E+00 -0.5050505E-02 -0.4904774E-05  0.0000000E+00 -0.5782236E-03
  0.2367855E-03  0.0000000E+00 -0.5050505E-02 -0.9707738E-05  0.0000000E+00 -0.5787644E-03
  0.1499413E-02  0.0000000E+00 -0.5050505E-02 -0.2113214E-04  0.0000000E+00 -0.5736107E-03
  0.5287294E-02  0.0000000E+00 -0.5050505E-02 -0.5044079E-04  0.0000000E+00 -0.5375936E-03
 -0.5050505E-02  0.0000000E+00 -0.5050505E-02 -0.1685799E-10  0.0000000E+00 -0.5715935E-03
 -0.5050505E-02  0.0000000E+00 -0.5050505E-02 -0.5236488E-10  0.0000000E+00 -0.5715935E-03
 -0.5050505E-02  0.0000000E+00 -0.5050505E-02 -0.8845064E-10  0.0000000E+00 -0.5715936E-03
 -0.5050505E-02  0.0000000E+00 -0.5050505E-02 -0.1238253E-09  0.0000000E+00 -0.5715936E-03
 -0.5050505E-02  0.0000000E+00 -0.5050505E-02 -0.1589056E-09  0.0000000E+00 -0.5715937E-03
 -0.5050505E-02  0.0000000E+00 -0.5050505E-02 -0.1940474E-09  0.0000000E+00 -0.5715938E-03
 -0.5050504E-02  0.0000000E+00 -0.5050505E-02 -0.2294779E-09  0.0000000E+00 -0.5715938E-03
 -0.5050501E-02  0.0000000E+00 -0.5050505E-02 -0.2654383E-09  0.0000000E+00 -0.5715939E-03
 -0.5050495E-02  0.0000000E+00 -0.5050505E-02 -0.3020660E-09  0.0000000E+00 -0.5715941E-03
 -0.5050482E-02  0.0000000E+00 -0.5050505E-02 -0.3395526E-09  0.0000000E+00 -0.5715942E-03
 -0.5050449E-02  0.0000000E+00 -0.5050505E-02 -0.3780405E-09  0.0000000E+00 -0.5715944E-03
 -0.5050376E-02  0.0000000E+00 -0.5050505E-02 -0.4176779E-09  0.0000000E+00 -0.5715945E-03
 -0.5050299E-02  0.0000000E+00 -0.5050505E-02 -0.4586274E-09  0.0000000E+00 -0.5715947E-03
 -0.5050178E-02  0.0000000E+00 -0.5050505E-02 -0.5010276E-09  0.0000000E+00 -0.5715949E-03
 -0.5050018E-02  0.0000000E+00 -0.5050505E-02 -0.5450396E-09  0.0000000E+00 -0.5715951E-03
 -0.5049710E-02  0.0000000E+00 -0.5050505E-02 -0.5908181E-09  0.0000000E+00 -0.5715954E-03
 -0.5049253E-02  0.0000000E+00 -0.5050505E-02 -0.6385224E-09  0.0000000E+00 -0.5715956E-03
 -0.5048636E-02  0.0000000E+00 -0.5050505E-02 -0.6883208E-09  0.0000000E+00 -0.5715959E-03
 -0.5047442E-02  0.0000000E+00 -0.5050505E-02 -0.7403846E-09  0.0000000E+00 -0.5715962E-03
 -0.5045727E-02  0.0000000E+00 -0.5050505E-02 -0.7948933E-09  0.0000000E+00 -0.5715966E-03
 -0.5043261E-02  0.0000000E+00 -0.5050505E-02 -0.8520345E-09  0.0000000E+00 -0.5715969E-03
 -0.5038714E-02  0.0000000E+00 -0.5050505E-02 -0.9120046E-09  0.0000000E+00 -0.5715973E-03
 -0.5032318E-02  0.0000000E+00 -0.5050505E-02 -0.9750098E-09  0.0000000E+00 -0.5715977E-03
 -0.5022454E-02  0.0000000E+00 -0.5050505E-02 -0.1041268E-08  0.0000000E+00 -0.5715981E-03
 -0.5012589E-02  0.0000000E+00 -0.5050505E-02 -0.1111009E-08  0.0000000E+00 -0.5715986E-03
 -0.5002725E-02  0.0000000E+00 -0.5050505E-02 -0.1184475E-08  0.0000000E+00 -0.5715990E-03
 -0.4992860E-02  0.0000000E+00 -0.5050505E-02 -0.1261927E-08  0.0000000E+00 -0.5715996E-03
 -0.4976523E-02  0.0000000E+00 -0.5050505E-02 -0.1343638E-08  0.0000000E+00 -0.5716001E-03
 -0.4956794E-02  0.0000000E+00 -0.5050505E-02 -0.1429902E-08  0.0000000E+00 -0.5716007E-03
 -0.4937066E-02  0.0000000E+00 -0.5050505E-02 -0.1521033E-08  0.0000000E+00 -0.5716013E-03
 -0.4906239E-02  0.0000000E+00 -0.5050505E-02 -0.1617366E-08  0.0000000E+00 -0.5716020E-03
 -0.4866782E-02  0.0000000E+00 -0.5050505E-02 -0.1719262E-08  0.0000000E+00 -0.5716027E-03
 -0.4827325E-02  0.0000000E+00 -0.5050505E-02 -0.1827109E-08  0.0000000E+00 -0.5716035E-03
 -0.4769372E-02  0.0000000E+00 -0.5050505E-02 -0.1941324E-08  0.0000000E+00 -0.5716043E-03
 -0.4690458E-02  0.0000000E+00 -0.5050505E-02 -0.2062359E-08  0.0000000E+00 -0.5716051E-03
 -0.4611543E-02  0.0000000E+00 -0.5050505E-02 -0.2190702E-08  0.0000000E+00 -0.5716060E-03
 -0.4503035E-02  0.0000000E+00 -0.5050505E-02 -0.2326882E-08  0.0000000E+00 -0.5716070E-03
 -0.4345206E-02  0.0000000E+00 -0.5050505E-02 -0.2471477E-08  0.0000000E+00 -0.5716080E-03
 -0.4187378E-02  0.0000000E+00 -0.5050505E-02 -0.2625112E-08  0.0000000E+00 -0.5716091E-03
 -0.3985156E-02  0.0000000E+00 -0.5050505E-02 -0.2788473E-08  0.0000000E+00 -0.5716102E-03
 -0.3669499E-02  0.0000000E+00 -0.5050505E-02 -0.2962307E-08  0.0000000E+00 -0.5716114E-03
 -0.3353842E-02  0.0000000E+00 -0.5050505E-02 -0.3147437E-08  0.0000000E+00 -0.5716127E-03
 -0.2978990E-02  0.0000000E+00 -0.5050505E-02 -0.3344764E-08  0.0000000E+00 -0.5716141E-03
 -0.2347676E-02  0.0000000E+00 -0.5050505E-02 -0.3555282E-08  0.0000000E+00 -0.5716155E-03
 -0.1716362E-02  0.0000000E+00 -0.5050505E-02 -0.3780088E-08  0.0000000E+00 -0.5716171E-03
 -0.1025842E-02  0.0000000E+00 -0.5050505E-02 -0.4020397E-08  0.0000000E+00 -0.5716187E-03
  0.2367855E-03  0.0000000E+00 -0.5050505E-02 -0.4277555E-08  0.0000000E+00 -0.5716205E-03
  0.1499413E-02  0.0000000E+00 -0.5050505E-02 -0.4553061E-08  0.0000000E+00 -0.5716224E-03
  0.2762042E-02  0.0000000E+00 -0.5050505E-02 -0.4848585E-08  0.0000000E+00 -0.5716244E-03
 -0.5050505E-02  0.0000000E+00 -0.5050505E-02 -0.5165994E-08  0.0000000E+00 -0.5716265E-03
 -0.5050505E-02  0.0000000E+00 -0.5050505E-02 -0.5507383E-08  0.0000000E+00 -0.5716287E-03
 -0.5050505E-02  0.0000000E+00 -0.5050505E-02 -0.5875104E-08  0.0000000E+00 -0.5716311E-03
 -0.5050505E-02  0.0000000E+00 -0.5050505E-02 -0.6271809E-08  0.0000000E+00 -0.5716337E-03
 -0.5050505E-02  0.0000000E+00 -0.5050505E-02 -0.6700497E-08  0.0000000E+00 -0.5716364E-03
 -0.5050505E-02  0.0000000E+00 -0.5050505E-02 -0.7164566E-08  0.0000000E+00 -0.5716393E-03
 -0.5050505E-02  0.0000000E+00 -0.5050505E-02 -0.7667881E-08  0.0000000E+00 -0.5716425E-03
 -0.5050504E-02  0.0000000E+00 -0.5050505E-02 -0.8214853E-08  0.0000000E+00 -0.5716458E-03
 -0.5050501E-02  0.0000000E+00 -0.5050505E-02 -0.8810527E-08  0.0000000E+00 -0.5716494E-03
 -0.5050495E-02  0.0000000E+00 -0.5050505E-02 -0.9460697E-08  0.0000000E+00 -0.5716532E-03
 -0.5050482E-02  0.0000000E+00 -0.5050505E-02 -0.1017204E-07  0.0000000E+00 -0.5716574E-03
 -0.5050449E-02  0.0000000E+00 -0.5050505E-02 -0.1095229E-07  0.0000000E+00 -0.5716618E-03
 -0.5050376E-02  0.0000000E+00 -0.5050505E-02 -0.1181039E-07  0.0000000E+00 -0.5716666E-03
 -0.5050299E-02  0.0000000E+00 -0.5050505E-02 -0.1275680E-07  0.0000000E+00 -0.5716717E-03
 -0.5050178E-02  0.0000000E+00 -0.5050505E-02 -0.1380375E-07  0.0000000E+00 -0.5716773E-03
 -0.5050018E-02  0.0000000E+00 -0.5050505E-02 -0.1496561E-07  0.0000000E+00 -0.5716833E-03
 -0.5049710E-02  0.0000000E+00 -0.5050505E-02 -0.1625935E-07  0.0000000E+00 -0.5716899E-03
 -0.5049253E-02  0.0000000E+00 -0.5050505E-02 -0.1770509E-07  0.0000000E+00 -0.5716970E-03
 -0.5048636E-02  0.0000000E+00 -0.5050505E-02 -0.1932683E-07  0.0000000E+00 -0.5717047E-03
 -0.5047442E-02  0.0000000E+00 -0.5050505E-02 -0.2115336E-07  0.0000000E+00 -0.5717131E-03
 -0.5045727E-02  0.0000000E+00 -0.5050505E-02 -0.2321936E-07  0.0000000E+00 -0.5717223E-03
 -0.5043261E-02  0.0000000E+00 -0.5050505E-02 -0.2556689E-07  0.0000000E+00 -0.5717325E-03
 -0.5038714E-02  0.0000000E+00 -0.5050505E-02 -0.2824731E-07  0.0000000E+00 -0.5717436E-03
 -0.5032318E-02  0.0000000E+00 -0.5050505E-02 -0.3132373E-07  0.0000000E+00 -0.5717560E-03
 -0.5022454E-02  0.0000000E+00 -0.5050505E-02 -0.3487427E-07  0.0000000E+00 -0.5717696E-03
 -0.5012589E-02  0.0000000E+00 -0.5050505E-02 -0.3899640E-07  0.0000000E+00 -0.5717848E-03
 -0.5002725E-02  0.0000000E+00 -0.5050505E-02 -0.4381277E-07  0.0000000E+00 -0.5718018E-03
 -0.4992860E-02  0.0000000E+00 -0.5050505E-02 -0.4947905E-07  0.0000000E+00 -0.5718209E-03
 -0.4976523E-02  0.0000000E+00 -0.5050505E-02 -0.5619485E-07  0.0000000E+00 -0.5718424E-03
 -0.4956794E-02  0.0000000E+00 -0.5050505E-02 -0.6421872E-07  0.0000000E+00 -0.5718668E-03
 -0.4937066E-02  0.0000000E+00 -0.5050505E-02 -0.7388949E-07  0.0000000E+00 -0.5718946E-03
 -0.4906239E-02  0.0000000E+00 -0.5050505E-02 -0.8565664E-07  0.0000000E+00 -0.5719266E-03
 -0.4866782E-02  0.0000000E+00 -0.5050505E-02 -0.1001246E-06  0.0000000E+00 -0.5719635E-03
 -0.4827325E-02  0.0000000E+00 -0.5050505E-02 -0.1181184E-06  0.0000000E+00 -0.5720064E-03
 -0.4769372E-02  0.0000000E+00 -0.5050505E-02 -0.1407820E-06  0.0000000E+00 -0.5720569E-03
 -0.4690458E-02  0.0000000E+00 -0.5050505E-02 -0.1697306E-06  0.0000000E+00 -0.5721165E-03
 -0.4611543E-02  0.0000000E+00 -0.5050505E-02 -0.2072893E-06  0.0000000E+00 -0.5721877E-03
 -0.4503035E-02  0.0000000E+00 -0.5050505E-02 -0.2568777E-06  0.0000000E+00 -0.5722736E-03
 -0.4345206E-02  0.0000000E+00 -0.5050505E-02 -0.3236451E-06  0.0000000E+00 -0.5723780E-03
 -0.4187378E-02  0.0000000E+00 -0.5050505E-02 -0.4155466E-06  0.0000000E+00 -0.5725061E-03
 -0.3985156E-02  0.0000000E+00 -0.5050505E-02 -0.5452194E-06  0.0000000E+00 -0.5726645E-03
 -0.3669499E-02  0.0000000E+00 -0.5050505E-02 -0.7333360E-06  0.0000000E+00 -0.5728606E-03
 -0.3353842E-02  0.0000000E+00 -0.5050505E-02 -0.1014738E-05  0.0000000E+00 -0.5731012E-03
 -0.2978990E-02  0.0000000E+00 -0.5050505E-02 -0.1449793E-05  0.0000000E+00 -0.5733859E-03
 -0.2347676E-02  0.0000000E+00 -0.5050505E-02 -0.2145188E-05  0.0000000E+00 -0.5736868E-03
 -0.1716362E-02  0.0000000E+00 -0.5050505E-02 -0.3289413E-05  0.0000000E+00 -0.5738908E-03
 -0.1025842E-02  0.0000000E+00 -0.5050505E-02 -0.5198235E-05  0.0000000E+00 -0.5736386E-03
  0.2367855E-03  0.0000000E+00 -0.5050505E-02 -0.8290271E-05  0.0000000E+00 -0.5719341E-03
  0.1499413E-02  0.0000000E+00 -0.5050505E-02 -0.1251042E-04  0.0000000E+00 -0.5664934E-03
  0.5287294E-02  0.0000000E+00 -0.5050505E-02 -0.1378079E-04  0.0000000E+00 -0.5548228E-03
 -0.5050505E-02  0.0000000E+00 -0.5050505E-02 -0.2357389E-10  0.0000000E+00 -0.5695924E-03
 -0.5050505E-02  0.0000000E+00 -0.5050505E-02 -0.7339043E-10  0.0000000E+00 -0.5695924E-03
 -0.5050505E-02  0.0000000E+00 -0.5050505E-02 -0.1240276E-09  0.0000000E+00 -0.5695925E-03
 -0.5050505E-02  0.0000000E+00 -0.5050505E-02 -0.1735079E-09  0.0000000E+00 -0.5695925E-03
 -0.5050505E-02  0.0000000E+00 -0.5050505E-02 -0.2224817E-09  0.0000000E+00 -0.5695926E-03
 -0.5050505E-02  0.0000000E+00 -0.5050505E-02 -0.2715113E-09  0.0000000E+00 -0.5695926E-03
 -0.5050504E-02  0.0000000E+00 -0.5050505E-02 -0.3209384E-09  0.0000000E+00 -0.5695927E-03
 -0.5050501E-02  0.0000000E+00 -0.5050505E-02 -0.3711103E-09  0.0000000E+00 -0.5695928E-03
 -0.5050495E-02  0.0000000E+00 -0.5050505E-02 -0.4222301E-09  0.0000000E+00 -0.5695930E-03
 -0.5050482E-02  0.0000000E+00 -0.5050505E-02 -0.4745522E-09  0.0000000E+00 -0.5695931E-03
 -0.5050449E-02  0.0000000E+00 -0.5050505E-02 -0.5282824E-09  0.0000000E+00 -0.5695932E-03
 -0.5050376E-02  0.0000000E+00 -0.5050505E-02 -0.5836221E-09  0.0000000E+00 -0.5695934E-03
 -0.5050299E-02  0.0000000E+00 -0.5050505E-02 -0.6407947E-09  0.0000000E+00 -0.5695936E-03
 -0.5050178E-02  0.0000000E+00 -0.5050505E-02 -0.6999962E-09  0.0000000E+00 -0.5695938E-03
 -0.5050018E-02  0.0000000E+00 -0.5050505E-02 -0.7614469E-09  0.0000000E+00 -0.5695940E-03
 -0.5049710E-02  0.0000000E+00 -0.5050505E-02 -0.8253629E-09  0.0000000E+00 -0.5695943E-03
 -0.5049253E-02  0.0000000E+00 -0.5050505E-02 -0.8919661E-09  0.0000000E+00 -0.5695945E-03
 -0.5048636E-02  0.0000000E+00 -0.5050505E-02 -0.9614896E-09  0.0000000E+00 -0.5695948E-03
 -0.5047442E-02  0.0000000E+00 -0.5050505E-02 -0.1034172E-08  0.0000000E+00 -0.5695951E-03
 -0.5045727E-02  0.0000000E+00 -0.5050505E-02 -0.1110263E-08  0.0000000E+00 -0.5695954E-03
 -0.5043261E-02  0.0000000E+00 -0.5050505E-02 -0.1190024E-08  0.0000000E+00 -0.5695958E-03
 -0.5038714E-02  0.0000000E+00 -0.5050505E-02 -0.1273727E-08  0.0000000E+00 -0.5695961E-03
 -0.5032318E-02  0.0000000E+00 -0.5050505E-02 -0.1361660E-08  0.0000000E+00 -0.5695965E-03
 -0.5022454E-02  0.0000000E+00 -0.5050505E-02 -0.1454125E-08  0.0000000E+00 -0.5695970E-03
 -0.5012589E-02  0.0000000E+00 -0.5050505E-02 -0.1551441E-08  0.0000000E+00 -0.5695974E-03
 -0.5002725E-02  0.0000000E+00 -0.5050505E-02 -0.1653948E-08  0.0000000E+00 -0.5695979E-03
 -0.4992860E-02  0.0000000E+00 -0.5050505E-02 -0.1762004E-08  0.0000000E+00 -0.5695984E-03
 -0.4976523E-02  0.0000000E+00 -0.5050505E-02 -0.1875991E-08  0.0000000E+00 -0.5695990E-03
 -0.4956794E-02  0.0000000E+00 -0.5050505E-02 -0.1996318E-08  0.0000000E+00 -0.5695995E-03
 -0.4937066E-02  0.0000000E+00 -0.5050505E-02 -0.2123419E-08  0.0000000E+00 -0.5696002E-03