title = "dataset feddes"
variables = "time", "absolute mass balance error", "relative mass balance error", "absolute cumulative mass balance error", "relative cumulative mass balance error" 
zone t = "mass balance error -  variably saturated flow", f=point
  1.0000E-10 -3.5596E-18 -4.0899E-16 -3.5596E-18 -4.0899E-16
  6.0000E-10 -4.9576E-18 -5.6961E-16 -8.5172E-18 -9.7859E-16
  3.1000E-09 -1.7477E-16 -2.0080E-14 -1.8329E-16 -2.1059E-14
  1.5600E-08 -2.8423E-14 -3.2657E-12 -2.8606E-14 -3.2867E-12
  7.8100E-08 -3.9009E-17 -4.4819E-15 -2.8645E-14 -3.2912E-12
  3.9060E-07 -5.5808E-15 -6.4117E-13 -3.4226E-14 -3.9322E-12
  1.9531E-06 -1.3101E-18 -1.5048E-16 -3.4227E-14 -3.9315E-12
  9.7656E-06 -1.5780E-14 -1.8110E-12 -5.0008E-14 -5.7389E-12
  4.3892E-05 -6.3530E-17 -7.2710E-15 -5.0071E-14 -5.7307E-12
  9.4526E-05 -1.5830E-17 -1.8068E-15 -5.0087E-14 -5.7169E-12
  1.6916E-04 -3.1819E-18 -3.6219E-16 -5.0090E-14 -5.7016E-12
  2.8115E-04 -2.0422E-15 -2.3182E-13 -5.2132E-14 -5.9178E-12
  4.6057E-04  9.4909E-15  1.0742E-12 -4.2642E-14 -4.8263E-12
  7.9728E-04 -1.4456E-15 -1.6303E-13 -4.4087E-14 -4.9718E-12
  1.4588E-03  1.1847E-12  1.3297E-10  1.1406E-12  1.2802E-10
  2.2143E-03 -1.1833E-14 -1.3228E-12  1.1288E-12  1.2618E-10
  3.2807E-03  6.8526E-14  7.6271E-12  1.1973E-12  1.3326E-10
  5.1212E-03  9.0887E-16  1.0060E-13  1.1982E-12  1.3262E-10
  7.4804E-03 -1.8400E-13 -2.0253E-11  1.0142E-12  1.1163E-10
  1.0659E-02 -1.4702E-12 -1.6087E-10 -4.5598E-13 -4.9893E-11
  1.5842E-02 -3.2222E-11 -3.4994E-09 -3.2678E-11 -3.5489E-09
  2.2011E-02 -2.5819E-11 -2.7839E-09 -5.8497E-11 -6.3075E-09
  3.1565E-02 -5.4238E-11 -5.7971E-09 -1.1274E-10 -1.2049E-08
  4.3375E-02 -1.3569E-11 -1.4376E-09 -1.2630E-10 -1.3382E-08
  5.9667E-02 -1.0562E-12 -1.1082E-10 -1.2736E-10 -1.3362E-08
  8.2297E-02 -9.2763E-10 -9.6267E-08 -1.0550E-09 -1.0948E-07
  1.1197E-01 -4.8610E-10 -4.9865E-08 -1.5411E-09 -1.5809E-07
  1.5184E-01 -1.2561E-09 -1.2725E-07 -2.7972E-09 -2.8336E-07
  2.0587E-01  2.4168E-09  2.4149E-07 -3.8042E-10 -3.8012E-08
  2.7954E-01 -7.8545E-09 -7.7319E-07 -8.2349E-09 -8.1064E-07
  3.8117E-01  5.1228E-09  4.9609E-07 -3.1121E-09 -3.0137E-07
  5.2409E-01 -1.0337E-08 -9.8308E-07 -1.3449E-08 -1.2791E-06
  7.2160E-01  1.1022E-08  1.0280E-06 -2.4271E-09 -2.2637E-07
  1.0000E+00  1.9185E-08  1.7519E-06  1.6757E-08  1.5303E-06
