title = "dataset feddes"
variables = "x", "y", "z", "K_xx", "K_yy", "K_zz"
zone t = "K - initial [m/s]", i =   50, j =   50, k =    1,  f=point
  0.0000000E+00  0.0000000E+00  0.0000000E+00  0.5800000E-05  0.0000000E+00  0.5800000E-05
  0.4081633E-01  0.0000000E+00  0.0000000E+00  0.5800000E-05  0.0000000E+00  0.5800000E-05
  0.8163265E-01  0.0000000E+00  0.0000000E+00  0.5800000E-05  0.0000000E+00  0.5800000E-05
  0.1224490E+00  0.0000000E+00  0.0000000E+00  0.5800000E-05  0.0000000E+00  0.5800000E-05
  0.1632653E+00  0.0000000E+00  0.0000000E+00  0.5800000E-05  0.0000000E+00  0.5800000E-05
  0.2040816E+00  0.0000000E+00  0.0000000E+00  0.5800000E-05  0.0000000E+00  0.5800000E-05
  0.2448980E+00  0.0000000E+00  0.0000000E+00  0.5800000E-05  0.0000000E+00  0.5800000E-05
  0.2857143E+00  0.0000000E+00  0.0000000E+00  0.5800000E-05  0.0000000E+00  0.5800000E-05
  0.3265306E+00  0.0000000E+00  0.0000000E+00  0.5800000E-05  0.0000000E+00  0.5800000E-05
  0.3673469E+00  0.0000000E+00  0.0000000E+00  0.5800000E-05  0.0000000E+00  0.5800000E-05
  0.4081633E+00  0.0000000E+00  0.0000000E+00  0.5800000E-05  0.0000000E+00  0.5800000E-05
  0.4489796E+00  0.0000000E+00  0.0000000E+00  0.5800000E-05  0.0000000E+00  0.5800000E-05
  0.4897959E+00  0.0000000E+00  0.0000000E+00  0.5800000E-05  0.0000000E+00  0.5800000E-05
  0.5306122E+00  0.0000000E+00  0.0000000E+00  0.5800000E-05  0.0000000E+00  0.5800000E-05
  0.5714286E+00  0.0000000E+00  0.0000000E+00  0.5800000E-05  0.0000000E+00  0.5800000E-05
  0.6122449E+00  0.0000000E+00  0.0000000E+00  0.5800000E-05  0.0000000E+00  0.5800000E-05
  0.6530612E+00  0.0000000E+00  0.0000000E+00  0.5800000E-05  0.0000000E+00  0.5800000E-05
  0.6938776E+00  0.0000000E+00  0.0000000E+00  0.5800000E-05  0.0000000E+00  0.5800000E-05
  0.7346939E+00  0.0000000E+00  0.0000000E+00  0.5800000E-05  0.0000000E+00  0.5800000E-05
  0.7755102E+00  0.0000000E+00  0.0000000E+00  0.5800000E-05  0.0000000E+00  0.5800000E-05
  0.8163265E+00  0.0000000E+00  0.0000000E+00  0.5800000E-05  0.0000000E+00  0.5800000E-05
  0.8571429E+00  0.0000000E+00  0.0000000E+00  0.5800000E-05  0.0000000E+00  0.5800000E-05
  0.8979592E+00  0.0000000E+00  0.0000000E+00  0.5800000E-05  0.0000000E+00  0.5800000E-05
  0.9387755E+00  0.0000000E+00  0.0000000E+00  0.5800000E-05  0.0000000E+00  0.5800000E-05
  0.9795918E+00  0.0000000E+00  0.0000000E+00  0.5800000E-05  0.0000000E+00  0.5800000E-05
  0.1020408E+01  0.0000000E+00  0.0000000E+00  0.5800000E-05  0.0000000E+00  0.5800000E-05
  0.1061224E+01  0.0000000E+00  0.0000000E+00  0.5800000E-05  0.0000000E+00  0.5800000E-05
  0.1102041E+01  0.0000000E+00  0.0000000E+00  0.5800000E-05  0.0000000E+00  0.5800000E-05
  0.1142857E+01  0.0000000E+00  0.0000000E+00  0.5800000E-05  0.0000000E+00  0.5800000E-05
  0.1183673E+01  0.0000000E+00  0.0000000E+00  0.5800000E-05  0.0000000E+00  0.5800000E-05
  0.1224490E+01  0.0000000E+00  0.0000000E+00  0.5800000E-05  0.0000000E+00  0.5800000E-05
  0.1265306E+01  0.0000000E+00  0.0000000E+00  0.5800000E-05  0.0000000E+00  0.5800000E-05
  0.1306122E+01  0.0000000E+00  0.0000000E+00  0.5800000E-05  0.0000000E+00  0.5800000E-05
  0.1346939E+01  0.0000000E+00  0.0000000E+00  0.5800000E-05  0.0000000E+00  0.5800000E-05
  0.1387755E+01  0.0000000E+00  0.0000000E+00  0.5800000E-05  0.0000000E+00  0.5800000E-05
  0.1428571E+01  0.0000000E+00  0.0000000E+00  0.5800000E-05  0.0000000E+00  0.5800000E-05
  0.1469388E+01  0.0000000E+00  0.0000000E+00  0.5800000E-05  0.0000000E+00  0.5800000E-05
  0.1510204E+01  0.0000000E+00  0.0000000E+00  0.5800000E-05  0.0000000E+00  0.5800000E-05
  0.1551020E+01  0.0000000E+00  0.0000000E+00  0.5800000E-05  0.0000000E+00  0.5800000E-05
  0.1591837E+01  0.0000000E+00  0.0000000E+00  0.5800000E-05  0.0000000E+00  0.5800000E-05
  0.1632653E+01  0.0000000E+00  0.0000000E+00  0.5800000E-05  0.0000000E+00  0.5800000E-05
  0.1673469E+01  0.0000000E+00  0.0000000E+00  0.5800000E-05  0.0000000E+00  0.5800000E-05
  0.1714286E+01  0.0000000E+00  0.0000000E+00  0.5800000E-05  0.0000000E+00  0.5800000E-05
  0.1755102E+01  0.0000000E+00  0.0000000E+00  0.5800000E-05  0.0000000E+00  0.5800000E-05
  0.1795918E+01  0.0000000E+00  0.0000000E+00  0.5800000E-05  0.0000000E+00  0.5800000E-05
  0.1836735E+01  0.0000000E+00  0.0000000E+00  0.5800000E-05  0.0000000E+00  0.5800000E-05
  0.1877551E+01  0.0000000E+00  0.0000000E+00  0.5800000E-05  0.0000000E+00  0.5800000E-05
  0.1918367E+01  0.0000000E+00  0.0000000E+00  0.5800000E-05  0.0000000E+00  0.5800000E-05
  0.1959184E+01  0.0000000E+00  0.0000000E+00  0.5800000E-05  0.0000000E+00  0.5800000E-05
  0.2000000E+01  0.0000000E+00  0.0000000E+00  0.5800000E-05  0.0000000E+00  0.5800000E-05
  0.0000000E+00  0.0000000E+00  0.4081633E-01  0.5800000E-05  0.0000000E+00  0.5800000E-05
  0.4081633E-01  0.0000000E+00  0.4081633E-01  0.5800000E-05  0.0000000E+00  0.5800000E-05
  0.8163265E-01  0.0000000E+00  0.4081633E-01  0.5800000E-05  0.0000000E+00  0.5800000E-05
  0.1224490E+00  0.0000000E+00  0.4081633E-01  0.5800000E-05  0.0000000E+00  0.5800000E-05
  0.1632653E+00  0.0000000E+00  0.4081633E-01  0.5800000E-05  0.0000000E+00  0.5800000E-05
  0.2040816E+00  0.0000000E+00  0.4081633E-01  0.5800000E-05  0.0000000E+00  0.5800000E-05
  0.2448980E+00  0.0000000E+00  0.4081633E-01  0.5800000E-05  0.0000000E+00  0.5800000E-05
  0.2857143E+00  0.0000000E+00  0.4081633E-01  0.5800000E-05  0.0000000E+00  0.5800000E-05
  0.3265306E+00  0.0000000E+00  0.4081633E-01  0.5800000E-05  0.0000000E+00  0.5800000E-05
  0.3673469E+00  0.0000000E+00  0.4081633E-01  0.5800000E-05  0.0000000E+00  0.5800000E-05
  0.4081633E+00  0.0000000E+00  0.4081633E-01  0.5800000E-05  0.0000000E+00  0.5800000E-05
  0.4489796E+00  0.0000000E+00  0.4081633E-01  0.5800000E-05  0.0000000E+00  0.5800000E-05
  0.4897959E+00  0.0000000E+00  0.4081633E-01  0.5800000E-05  0.0000000E+00  0.5800000E-05
  0.5306122E+00  0.0000000E+00  0.4081633E-01  0.5800000E-05  0.0000000E+00  0.5800000E-05
  0.5714286E+00  0.0000000E+00  0.4081633E-01  0.5800000E-05  0.0000000E+00  0.5800000E-05
  0.6122449E+00  0.0000000E+00  0.4081633E-01  0.5800000E-05  0.0000000E+00  0.5800000E-05
  0.6530612E+00  0.0000000E+00  0.4081633E-01  0.5800000E-05  0.0000000E+00  0.5800000E-05
  0.6938776E+00  0.0000000E+00  0.4081633E-01  0.5800000E-05  0.0000000E+00  0.5800000E-05
  0.7346939E+00  0.0000000E+00  0.4081633E-01  0.5800000E-05  0.0000000E+00  0.5800000E-05
  0.7755102E+00  0.0000000E+00  0.4081633E-01  0.5800000E-05  0.0000000E+00  0.5800000E-05
  0.8163265E+00  0.0000000E+00  0.4081633E-01  0.5800000E-05  0.0000000E+00  0.5800000E-05
  0.8571429E+00  0.0000000E+00  0.4081633E-01  0.5800000E-05  0.0000000E+00  0.5800000E-05
  0.8979592E+00  0.0000000E+00  0.4081633E-01  0.5800000E-05  0.0000000E+00  0.5800000E-05
  0.9387755E+00  0.0000000E+00  0.4081633E-01  0.5800000E-05  0.0000000E+00  0.5800000E-05
  0.9795918E+00  0.0000000E+00  0.4081633E-01  0.5800000E-05  0.0000000E+00  0.5800000E-05
  0.1020408E+01  0.0000000E+00  0.4081633E-01  0.5800000E-05  0.0000000E+00  0.5800000E-05
  0.1061224E+01  0.0000000E+00  0.4081633E-01  0.5800000E-05  0.0000000E+00  0.5800000E-05
  0.1102041E+01  0.0000000E+00  0.4081633E-01  0.5800000E-05  0.0000000E+00  0.5800000E-05
  0.1142857E+01  0.0000000E+00  0.4081633E-01  0.5800000E-05  0.0000000E+00  0.5800000E-05
  0.1183673E+01  0.0000000E+00  0.4081633E-01  0.5800000E-05  0.0000000E+00  0.5800000E-05
  0.1224490E+01  0.0000000E+00  0.4081633E-01  0.5800000E-05  0.0000000E+00  0.5800000E-05
  0.1265306E+01  0.0000000E+00  0.4081633E-01  0.5800000E-05  0.0000000E+00  0.5800000E-05
  0.1306122E+01  0.0000000E+00  0.4081633E-01  0.5800000E-05  0.0000000E+00  0.5800000E-05
  0.1346939E+01  0.0000000E+00  0.4081633E-01  0.5800000E-05  0.0000000E+00  0.5800000E-05
  0.1387755E+01  0.0000000E+00  0.4081633E-01  0.5800000E-05  0.0000000E+00  0.5800000E-05
  0.1428571E+01  0.0000000E+00  0.4081633E-01  0.5800000E-05  0.0000000E+00  0.5800000E-05
  0.1469388E+01  0.0000000E+00  0.4081633E-01  0.5800000E-05  0.0000000E+00  0.5800000E-05
  0.1510204E+01  0.0000000E+00  0.4081633E-01  0.5800000E-05  0.0000000E+00  0.5800000E-05
  0.1551020E+01  0.0000000E+00  0.4081633E-01  0.5800000E-05  0.0000000E+00  0.5800000E-05
  0.1591837E+01  0.0000000E+00  0.4081633E-01  0.5800000E-05  0.0000000E+00  0.5800000E-05
  0.1632653E+01  0.0000000E+00  0.4081633E-01  0.5800000E-05  0.0000000E+00  0.5800000E-05
  0.1673469E+01  0.0000000E+00  0.4081633E-01  0.5800000E-05  0.0000000E+00  0.5800000E-05
  0.1714286E+01  0.0000000E+00  0.4081633E-01  0.5800000E-05  0.0000000E+00  0.5800000E-05
  0.1755102E+01  0.0000000E+00  0.4081633E-01  0.5800000E-05  0.0000000E+00  0.5800000E-05
  0.1795918E+01  0.0000000E+00  0.4081633E-01  0.5800000E-05  0.0000000E+00  0.5800000E-05
  0.1836735E+01  0.0000000E+00  0.4081633E-01  0.5800000E-05  0.0000000E+00  0.5800000E-05
  0.1877551E+01  0.0000000E+00  0.4081633E-01  0.5800000E-05  0.0000000E+00  0.5800000E-05
  0.1918367E+01  0.0000000E+00  0.4081633E-01  0.5800000E-05  0.0000000E+00  0.5800000E-05
  0.1959184E+01  0.0000000E+00  0.4081633E-01  0.5800000E-05  0.0000000E+00  0.5800000E-05
  0.2000000E+01  0.0000000E+00  0.4081633E-01  0.5800000E-05  0.0000000E+00  0.5800000E-05
  0.0000000E+00  0.0000000E+00  0.8163265E-01  0.5800000E-05  0.0000000E+00  0.5800000E-05
  0.4081633E-01  0.0000000E+00  0.8163265E-01  0.5800000E-05  0.0000000E+00  0.5800000E-05
  0.8163265E-01  0.0000000E+00  0.8163265E-01  0.5800000E-05  0.0000000E+00  0.5800000E-05
  0.1224490E+00  0.0000000E+00  0.8163265E-01  0.5800000E-05  0.0000000E+00  0.5800000E-05
  0.1632653E+00  0.0000000E+00  0.8163265E-01  0.5800000E-05  0.0000000E+00  0.5800000E-05
  0.2040816E+00  0.0000000E+00  0.8163265E-01  0.5800000E-05  0.0000000E+00  0.5800000E-05
  0.2448980E+00  0.0000000E+00  0.8163265E-01  0.5800000E-05  0.0000000E+00  0.5800000E-05
  0.2857143E+00  0.0000000E+00  0.8163265E-01  0.5800000E-05  0.0000000E+00  0.5800000E-05
  0.3265306E+00  0.0000000E+00  0.8163265E-01  0.5800000E-05  0.0000000E+00  0.5800000E-05
  0.3673469E+00  0.0000000E+00  0.8163265E-01  0.5800000E-05  0.0000000E+00  0.5800000E-05
  0.4081633E+00  0.0000000E+00  0.8163265E-01  0.5800000E-05  0.0000000E+00  0.5800000E-05
  0.4489796E+00  0.0000000E+00  0.8163265E-01  0.5800000E-05  0.0000000E+00  0.5800000E-05
  0.4897959E+00  0.0000000E+00  0.8163265E-01  0.5800000E-05  0.0000000E+00  0.5800000E-05
  0.5306122E+00  0.0000000E+00  0.8163265E-01  0.5800000E-05  0.0000000E+00  0.5800000E-05
  0.5714286E+00  0.0000000E+00  0.8163265E-01  0.5800000E-05  0.0000000E+00  0.5800000E-05
  0.6122449E+00  0.0000000E+00  0.8163265E-01  0.5800000E-05  0.0000000E+00  0.5800000E-05
  0.6530612E+00  0.0000000E+00  0.8163265E-01  0.5800000E-05  0.0000000E+00  0.5800000E-05
  0.6938776E+00  0.0000000E+00  0.8163265E-01  0.5800000E-05  0.0000000E+00  0.5800000E-05
  0.7346939E+00  0.0000000E+00  0.8163265E-01  0.5800000E-05  0.0000000E+00  0.5800000E-05
  0.7755102E+00  0.0000000E+00  0.8163265E-01  0.5800000E-05  0.0000000E+00  0.5800000E-05
  0.8163265E+00  0.0000000E+00  0.8163265E-01  0.5800000E-05  0.0000000E+00  0.5800000E-05
  0.8571429E+00  0.0000000E+00  0.8163265E-01  0.5800000E-05  0.0000000E+00  0.5800000E-05
  0.8979592E+00  0.0000000E+00  0.8163265E-01  0.5800000E-05  0.0000000E+00  0.5800000E-05
  0.9387755E+00  0.0000000E+00  0.8163265E-01  0.5800000E-05  0.0000000E+00  0.5800000E-05
  0.9795918E+00  0.0000000E+00  0.8163265E-01  0.5800000E-05  0.0000000E+00  0.5800000E-05
  0.1020408E+01  0.0000000E+00  0.8163265E-01  0.5800000E-05  0.0000000E+00  0.5800000E-05
  0.1061224E+01  0.0000000E+00  0.8163265E-01  0.5800000E-05  0.0000000E+00  0.5800000E-05
  0.1102041E+01  0.0000000E+00  0.8163265E-01  0.5800000E-05  0.0000000E+00  0.5800000E-05
  0.1142857E+01  0.0000000E+00  0.8163265E-01  0.5800000E-05  0.0000000E+00  0.5800000E-05
  0.1183673E+01  0.0000000E+00  0.8163265E-01  0.5800000E-05  0.0000000E+00  0.5800000E-05
  0.1224490E+01  0.0000000E+00  0.8163265E-01  0.5800000E-05  0.0000000E+00  0.5800000E-05
  0.1265306E+01  0.0000000E+00  0.8163265E-01  0.5800000E-05  0.0000000E+00  0.5800000E-05
  0.1306122E+01  0.0000000E+00  0.8163265E-01  0.5800000E-05  0.0000000E+00  0.5800000E-05
  0.1346939E+01  0.0000000E+00  0.8163265E-01  0.5800000E-05  0.0000000E+00  0.5800000E-05
  0.1387755E+01  0.0000000E+00  0.8163265E-01  0.5800000E-05  0.0000000E+00  0.5800000E-05
  0.1428571E+01  0.0000000E+00  0.8163265E-01  0.5800000E-05  0.0000000E+00  0.5800000E-05
  0.1469388E+01  0.0000000E+00  0.8163265E-01  0.5800000E-05  0.0000000E+00  0.5800000E-05
  0.1510204E+01  0.0000000E+00  0.8163265E-01  0.5800000E-05  0.0000000E+00  0.5800000E-05
  0.1551020E+01  0.0000000E+00  0.8163265E-01  0.5800000E-05  0.0000000E+00  0.5800000E-05
  0.1591837E+01  0.0000000E+00  0.8163265E-01  0.5800000E-05  0.0000000E+00  0.5800000E-05
  0.1632653E+01  0.0000000E+00  0.8163265E-01  0.5800000E-05  0.0000000E+00  0.5800000E-05
  0.1673469E+01  0.0000000E+00  0.8163265E-01  0.5800000E-05  0.0000000E+00  0.5800000E-05
  0.1714286E+01  0.0000000E+00  0.8163265E-01  0.5800000E-05  0.0000000E+00  0.5800000E-05
  0.1755102E+01  0.0000000E+00  0.8163265E-01  0.5800000E-05  0.0000000E+00  0.5800000E-05
  0.1795918E+01  0.0000000E+00  0.8163265E-01  0.5800000E-05  0.0000000E+00  0.5800000E-05
  0.1836735E+01  0.0000000E+00  0.8163265E-01  0.5800000E-05  0.0000000E+00  0.5800000E-05
  0.1877551E+01  0.0000000E+00  0.8163265E-01  0.5800000E-05  0.0000000E+00  0.5800000E-05
  0.1918367E+01  0.0000000E+00  0.8163265E-01  0.5800000E-05  0.0000000E+00  0.5800000E-05
  0.1959184E+01  0.0000000E+00  0.8163265E-01  0.5800000E-05  0.0000000E+00  0.5800000E-05
  0.2000000E+01  0.0000000E+00  0.8163265E-01  0.5800000E-05  0.0000000E+00  0.5800000E-05
  0.0000000E+00  0.0000000E+00  0.1224490E+00  0.5800000E-05  0.0000000E+00  0.5800000E-05
  0.4081633E-01  0.0000000E+00  0.1224490E+00  0.5800000E-05  0.0000000E+00  0.5800000E-05
  0.8163265E-01  0.0000000E+00  0.1224490E+00  0.5800000E-05  0.0000000E+00  0.5800000E-05
  0.1224490E+00  0.0000000E+00  0.1224490E+00  0.5800000E-05  0.0000000E+00  0.5800000E-05
  0.1632653E+00  0.0000000E+00  0.1224490E+00  0.5800000E-05  0.0000000E+00  0.5800000E-05
  0.2040816E+00  0.0000000E+00  0.1224490E+00  0.5800000E-05  0.0000000E+00  0.5800000E-05
  0.2448980E+00  0.0000000E+00  0.1224490E+00  0.5800000E-05  0.0000000E+00  0.5800000E-05
  0.2857143E+00  0.0000000E+00  0.1224490E+00  0.5800000E-05  0.0000000E+00  0.5800000E-05
  0.3265306E+00  0.0000000E+00  0.1224490E+00  0.5800000E-05  0.0000000E+00  0.5800000E-05
  0.3673469E+00  0.0000000E+00  0.1224490E+00  0.5800000E-05  0.0000000E+00  0.5800000E-05
  0.4081633E+00  0.0000000E+00  0.1224490E+00  0.5800000E-05  0.0000000E+00  0.5800000E-05
  0.4489796E+00  0.0000000E+00  0.1224490E+00  0.5800000E-05  0.0000000E+00  0.5800000E-05
  0.4897959E+00  0.0000000E+00  0.1224490E+00  0.5800000E-05  0.0000000E+00  0.5800000E-05
  0.5306122E+00  0.0000000E+00  0.1224490E+00  0.5800000E-05  0.0000000E+00  0.5800000E-05
  0.5714286E+00  0.0000000E+00  0.1224490E+00  0.5800000E-05  0.0000000E+00  0.5800000E-05
  0.6122449E+00  0.0000000E+00  0.1224490E+00  0.5800000E-05  0.0000000E+00  0.5800000E-05
  0.6530612E+00  0.0000000E+00  0.1224490E+00  0.5800000E-05  0.0000000E+00  0.5800000E-05
  0.6938776E+00  0.0000000E+00  0.1224490E+00  0.5800000E-05  0.0000000E+00  0.5800000E-05
  0.7346939E+00  0.0000000E+00  0.1224490E+00  0.5800000E-05  0.0000000E+00  0.5800000E-05
  0.7755102E+00  0.0000000E+00  0.1224490E+00  0.5800000E-05  0.0000000E+00  0.5800000E-05
  0.8163265E+00  0.0000000E+00  0.1224490E+00  0.5800000E-05  0.0000000E+00  0.5800000E-05
  0.8571429E+00  0.0000000E+00  0.1224490E+00  0.5800000E-05  0.0000000E+00  0.5800000E-05
  0.8979592E+00  0.0000000E+00  0.1224490E+00  0.5800000E-05  0.0000000E+00  0.5800000E-05
  0.9387755E+00  0.0000000E+00  0.1224490E+00  0.5800000E-05  0.0000000E+00  0.5800000E-05
  0.9795918E+00  0.0000000E+00  0.1224490E+00  0.5800000E-05  0.0000000E+00  0.5800000E-05
  0.1020408E+01  0.0000000E+00  0.1224490E+00  0.5800000E-05  0.0000000E+00  0.5800000E-05
  0.1061224E+01  0.0000000E+00  0.1224490E+00  0.5800000E-05  0.0000000E+00  0.5800000E-05
  0.1102041E+01  0.0000000E+00  0.1224490E+00  0.5800000E-05  0.0000000E+00  0.5800000E-05
  0.1142857E+01  0.0000000E+00  0.1224490E+00  0.5800000E-05  0.0000000E+00  0.5800000E-05
  0.1183673E+01  0.0000000E+00  0.1224490E+00  0.5800000E-05  0.0000000E+00  0.5800000E-05
  0.1224490E+01  0.0000000E+00  0.1224490E+00  0.5800000E-05  0.0000000E+00  0.5800000E-05
  0.1265306E+01  0.0000000E+00  0.1224490E+00  0.5800000E-05  0.0000000E+00  0.5800000E-05
  0.1306122E+01  0.0000000E+00  0.1224490E+00  0.5800000E-05  0.0000000E+00  0.5800000E-05
  0.1346939E+01  0.0000000E+00  0.1224490E+00  0.5800000E-05  0.0000000E+00  0.5800000E-05
  0.1387755E+01  0.0000000E+00  0.1224490E+00  0.5800000E-05  0.0000000E+00  0.5800000E-05
  0.1428571E+01  0.0000000E+00  0.1224490E+00  0.5800000E-05  0.0000000E+00  0.5800000E-05
  0.1469388E+01  0.0000000E+00  0.1224490E+00  0.5800000E-05  0.0000000E+00  0.5800000E-05
  0.1510204E+01  0.0000000E+00  0.1224490E+00  0.5800000E-05  0.0000000E+00  0.5800000E-05
  0.1551020E+01  0.0000000E+00  0.1224490E+00  0.5800000E-05  0.0000000E+00  0.5800000E-05
  0.1591837E+01  0.0000000E+00  0.1224490E+00  0.5800000E-05  0.0000000E+00  0.5800000E-05
  0.1632653E+01  0.0000000E+00  0.1224490E+00  0.5800000E-05  0.0000000E+00  0.5800000E-05
  0.1673469E+01  0.0000000E+00  0.1224490E+00  0.5800000E-05  0.0000000E+00  0.5800000E-05
  0.1714286E+01  0.0000000E+00  0.1224490E+00  0.5800000E-05  0.0000000E+00  0.5800000E-05
  0.1755102E+01  0.0000000E+00  0.1224490E+00  0.5800000E-05  0.0000000E+00  0.5800000E-05
  0.1795918E+01  0.0000000E+00  0.1224490E+00  0.5800000E-05  0.0000000E+00  0.5800000E-05
  0.1836735E+01  0.0000000E+00  0.1224490E+00  0.5800000E-05  0.0000000E+00  0.5800000E-05
  0.1877551E+01  0.0000000E+00  0.1224490E+00  0.5800000E-05  0.0000000E+00  0.5800000E-05
  0.1918367E+01  0.0000000E+00  0.1224490E+00  0.5800000E-05  0.0000000E+00  0.5800000E-05
  0.1959184E+01  0.0000000E+00  0.1224490E+00  0.5800000E-05  0.0000000E+00  0.5800000E-05
  0.2000000E+01  0.0000000E+00  0.1224490E+00  0.5800000E-05  0.0000000E+00  0.5800000E-05
  0.0000000E+00  0.0000000E+00  0.1632653E+00  0.5800000E-05  0.0000000E+00  0.5800000E-05
  0.4081633E-01  0.0000000E+00  0.1632653E+00  0.5800000E-05  0.0000000E+00  0.5800000E-05
  0.8163265E-01  0.0000000E+00  0.1632653E+00  0.5800000E-05  0.0000000E+00  0.5800000E-05
  0.1224490E+00  0.0000000E+00  0.1632653E+00  0.5800000E-05  0.0000000E+00  0.5800000E-05
  0.1632653E+00  0.0000000E+00  0.1632653E+00  0.5800000E-05  0.0000000E+00  0.5800000E-05
  0.2040816E+00  0.0000000E+00  0.1632653E+00  0.5800000E-05  0.0000000E+00  0.5800000E-05
  0.2448980E+00  0.0000000E+00  0.1632653E+00  0.5800000E-05  0.0000000E+00  0.5800000E-05
  0.2857143E+00  0.0000000E+00  0.1632653E+00  0.5800000E-05  0.0000000E+00  0.5800000E-05
  0.3265306E+00  0.0000000E+00  0.1632653E+00  0.5800000E-05  0.0000000E+00  0.5800000E-05
  0.3673469E+00  0.0000000E+00  0.1632653E+00  0.5800000E-05  0.0000000E+00  0.5800000E-05
  0.4081633E+00  0.0000000E+00  0.1632653E+00  0.5800000E-05  0.0000000E+00  0.5800000E-05
  0.4489796E+00  0.0000000E+00  0.1632653E+00  0.5800000E-05  0.0000000E+00  0.5800000E-05
  0.4897959E+00  0.0000000E+00  0.1632653E+00  0.5800000E-05  0.0000000E+00  0.5800000E-05
  0.5306122E+00  0.0000000E+00  0.1632653E+00  0.5800000E-05  0.0000000E+00  0.5800000E-05
  0.5714286E+00  0.0000000E+00  0.1632653E+00  0.5800000E-05  0.0000000E+00  0.5800000E-05
  0.6122449E+00  0.0000000E+00  0.1632653E+00  0.5800000E-05  0.0000000E+00  0.5800000E-05
  0.6530612E+00  0.0000000E+00  0.1632653E+00  0.5800000E-05  0.0000000E+00  0.5800000E-05
  0.6938776E+00  0.0000000E+00  0.1632653E+00  0.5800000E-05  0.0000000E+00  0.5800000E-05
  0.7346939E+00  0.0000000E+00  0.1632653E+00  0.5800000E-05  0.0000000E+00  0.5800000E-05
  0.7755102E+00  0.0000000E+00  0.1632653E+00  0.5800000E-05  0.0000000E+00  0.5800000E-05
  0.8163265E+00  0.0000000E+00  0.1632653E+00  0.5800000E-05  0.0000000E+00  0.5800000E-05
  0.8571429E+00  0.0000000E+00  0.1632653E+00  0.5800000E-05  0.0000000E+00  0.5800000E-05
  0.8979592E+00  0.0000000E+00  0.1632653E+00  0.5800000E-05  0.0000000E+00  0.5800000E-05
  0.9387755E+00  0.0000000E+00  0.1632653E+00  0.5800000E-05  0.0000000E+00  0.5800000E-05
  0.9795918E+00  0.0000000E+00  0.1632653E+00  0.5800000E-05  0.0000000E+00  0.5800000E-05
  0.1020408E+01  0.0000000E+00  0.1632653E+00  0.5800000E-05  0.0000000E+00  0.5800000E-05
  0.1061224E+01  0.0000000E+00  0.1632653E+00  0.5800000E-05  0.0000000E+00  0.5800000E-05
  0.1102041E+01  0.0000000E+00  0.1632653E+00  0.5800000E-05  0.0000000E+00  0.5800000E-05
  0.1142857E+01  0.0000000E+00  0.1632653E+00  0.5800000E-05  0.0000000E+00  0.5800000E-05
  0.1183673E+01  0.0000000E+00  0.1632653E+00  0.5800000E-05  0.0000000E+00  0.5800000E-05
  0.1224490E+01  0.0000000E+00  0.1632653E+00  0.5800000E-05  0.0000000E+00  0.5800000E-05
  0.1265306E+01  0.0000000E+00  0.1632653E+00  0.5800000E-05  0.0000000E+00  0.5800000E-05
  0.1306122E+01  0.0000000E+00  0.1632653E+00  0.5800000E-05  0.0000000E+00  0.5800000E-05
  0.1346939E+01  0.0000000E+00  0.1632653E+00  0.5800000E-05  0.0000000E+00  0.5800000E-05
  0.1387755E+01  0.0000000E+00  0.1632653E+00  0.5800000E-05  0.0000000E+00  0.5800000E-05
  0.1428571E+01  0.0000000E+00  0.1632653E+00  0.5800000E-05  0.0000000E+00  0.5800000E-05
  0.1469388E+01  0.0000000E+00  0.1632653E+00  0.5800000E-05  0.0000000E+00  0.5800000E-05
  0.1510204E+01  0.0000000E+00  0.1632653E+00  0.5800000E-05  0.0000000E+00  0.5800000E-05
  0.1551020E+01  0.0000000E+00  0.1632653E+00  0.5800000E-05  0.0000000E+00  0.5800000E-05
  0.1591837E+01  0.0000000E+00  0.1632653E+00  0.5800000E-05  0.0000000E+00  0.5800000E-05
  0.1632653E+01  0.0000000E+00  0.1632653E+00  0.5800000E-05  0.0000000E+00  0.5800000E-05
  0.1673469E+01  0.0000000E+00  0.1632653E+00  0.5800000E-05  0.0000000E+00  0.5800000E-05
  0.1714286E+01  0.0000000E+00  0.1632653E+00  0.5800000E-05  0.0000000E+00  0.5800000E-05
  0.1755102E+01  0.0000000E+00  0.1632653E+00  0.5800000E-05  0.0000000E+00  0.5800000E-05
  0.1795918E+01  0.0000000E+00  0.1632653E+00  0.5800000E-05  0.0000000E+00  0.5800000E-05
  0.1836735E+01  0.0000000E+00  0.1632653E+00  0.5800000E-05  0.0000000E+00  0.5800000E-05
  0.1877551E+01  0.0000000E+00  0.1632653E+00  0.5800000E-05  0.0000000E+00  0.5800000E-05
  0.1918367E+01  0.0000000E+00  0.1632653E+00  0.5800000E-05  0.0000000E+00  0.5800000E-05
  0.1959184E+01  0.0000000E+00  0.1632653E+00  0.5800000E-05  0.0000000E+00  0.5800000E-05
  0.2000000E+01  0.0000000E+00  0.1632653E+00  0.5800000E-05  0.0000000E+00  0.5800000E-05
  0.0000000E+00  0.0000000E+00  0.2040816E+00  0.5800000E-05  0.0000000E+00  0.5800000E-05
  0.4081633E-01  0.0000000E+00  0.2040816E+00  0.5800000E-05  0.0000000E+00  0.5800000E-05
  0.8163265E-01  0.0000000E+00  0.2040816E+00  0.5800000E-05  0.0000000E+00  0.5800000E-05
  0.1224490E+00  0.0000000E+00  0.2040816E+00  0.5800000E-05  0.0000000E+00  0.5800000E-05
  0.1632653E+00  0.0000000E+00  0.2040816E+00  0.5800000E-05  0.0000000E+00  0.5800000E-05
  0.2040816E+00  0.0000000E+00  0.2040816E+00  0.5800000E-05  0.0000000E+00  0.5800000E-05
  0.2448980E+00  0.0000000E+00  0.2040816E+00  0.5800000E-05  0.0000000E+00  0.5800000E-05
  0.2857143E+00  0.0000000E+00  0.2040816E+00  0.5800000E-05  0.0000000E+00  0.5800000E-05
  0.3265306E+00  0.0000000E+00  0.2040816E+00  0.5800000E-05  0.0000000E+00  0.5800000E-05
  0.3673469E+00  0.0000000E+00  0.2040816E+00  0.5800000E-05  0.0000000E+00  0.5800000E-05
  0.4081633E+00  0.0000000E+00  0.2040816E+00  0.5800000E-05  0.0000000E+00  0.5800000E-05
  0.4489796E+00  0.0000000E+00  0.2040816E+00  0.5800000E-05  0.0000000E+00  0.5800000E-05
  0.4897959E+00  0.0000000E+00  0.2040816E+00  0.5800000E-05  0.0000000E+00  0.5800000E-05
  0.5306122E+00  0.0000000E+00  0.2040816E+00  0.5800000E-05  0.0000000E+00  0.5800000E-05
  0.5714286E+00  0.0000000E+00  0.2040816E+00  0.5800000E-05  0.0000000E+00  0.5800000E-05
  0.6122449E+00  0.0000000E+00  0.2040816E+00  0.5800000E-05  0.0000000E+00  0.5800000E-05
  0.6530612E+00  0.0000000E+00  0.2040816E+00  0.5800000E-05  0.0000000E+00  0.5800000E-05
  0.6938776E+00  0.0000000E+00  0.2040816E+00  0.5800000E-05  0.0000000E+00  0.5800000E-05
  0.7346939E+00  0.0000000E+00  0.2040816E+00  0.5800000E-05  0.0000000E+00  0.5800000E-05
  0.7755102E+00  0.0000000E+00  0.2040816E+00  0.5800000E-05  0.0000000E+00  0.5800000E-05
  0.8163265E+00  0.0000000E+00  0.2040816E+00  0.5800000E-05  0.0000000E+00  0.5800000E-05
  0.8571429E+00  0.0000000E+00  0.2040816E+00  0.5800000E-05  0.0000000E+00  0.5800000E-05
  0.8979592E+00  0.0000000E+00  0.2040816E+00  0.5800000E-05  0.0000000E+00  0.5800000E-05
  0.9387755E+00  0.0000000E+00  0.2040816E+00  0.5800000E-05  0.0000000E+00  0.5800000E-05
  0.9795918E+00  0.0000000E+00  0.2040816E+00  0.5800000E-05  0.0000000E+00  0.5800000E-05
  0.1020408E+01  0.0000000E+00  0.2040816E+00  0.5800000E-05  0.0000000E+00  0.5800000E-05
  0.1061224E+01  0.0000000E+00  0.2040816E+00  0.5800000E-05  0.0000000E+00  0.5800000E-05
  0.1102041E+01  0.0000000E+00  0.2040816E+00  0.5800000E-05  0.0000000E+00  0.5800000E-05
  0.1142857E+01  0.0000000E+00  0.2040816E+00  0.5800000E-05  0.0000000E+00  0.5800000E-05
  0.1183673E+01  0.0000000E+00  0.2040816E+00  0.5800000E-05  0.0000000E+00  0.5800000E-05
  0.1224490E+01  0.0000000E+00  0.2040816E+00  0.5800000E-05  0.0000000E+00  0.5800000E-05
  0.1265306E+01  0.0000000E+00  0.2040816E+00  0.5800000E-05  0.0000000E+00  0.5800000E-05
  0.1306122E+01  0.0000000E+00  0.2040816E+00  0.5800000E-05  0.0000000E+00  0.5800000E-05
  0.1346939E+01  0.0000000E+00  0.2040816E+00  0.5800000E-05  0.0000000E+00  0.5800000E-05
  0.1387755E+01  0.0000000E+00  0.2040816E+00  0.5800000E-05  0.0000000E+00  0.5800000E-05
  0.1428571E+01  0.0000000E+00  0.2040816E+00  0.5800000E-05  0.0000000E+00  0.5800000E-05
  0.1469388E+01  0.0000000E+00  0.2040816E+00  0.5800000E-05  0.0000000E+00  0.5800000E-05
  0.1510204E+01  0.0000000E+00  0.2040816E+00  0.5800000E-05  0.0000000E+00  0.5800000E-05
  0.1551020E+01  0.0000000E+00  0.2040816E+00  0.5800000E-05  0.0000000E+00  0.5800000E-05
  0.1591837E+01  0.0000000E+00  0.2040816E+00  0.5800000E-05  0.0000000E+00  0.5800000E-05
  0.1632653E+01  0.0000000E+00  0.2040816E+00  0.5800000E-05  0.0000000E+00  0.5800000E-05
  0.1673469E+01  0.0000000E+00  0.2040816E+00  0.5800000E-05  0.0000000E+00  0.5800000E-05
  0.1714286E+01  0.0000000E+00  0.2040816E+00  0.5800000E-05  0.0000000E+00  0.5800000E-05
  0.1755102E+01  0.0000000E+00  0.2040816E+00  0.5800000E-05  0.0000000E+00  0.5800000E-05
  0.1795918E+01  0.0000000E+00  0.2040816E+00  0.5800000E-05  0.0000000E+00  0.5800000E-05
  0.1836735E+01  0.0000000E+00  0.2040816E+00  0.5800000E-05  0.0000000E+00  0.5800000E-05
  0.1877551E+01  0.0000000E+00  0.2040816E+00  0.5800000E-05  0.0000000E+00  0.5800000E-05
  0.1918367E+01  0.0000000E+00  0.2040816E+00  0.5800000E-05  0.0000000E+00  0.5800000E-05
  0.1959184E+01  0.0000000E+00  0.2040816E+00  0.5800000E-05  0.0000000E+00  0.5800000E-05
  0.2000000E+01  0.0000000E+00  0.2040816E+00  0.5800000E-05  0.0000000E+00  0.5800000E-05
  0.0000000E+00  0.0000000E+00  0.2448980E+00  0.5800000E-05  0.0000000E+00  0.5800000E-05
  0.4081633E-01  0.0000000E+00  0.2448980E+00  0.5800000E-05  0.0000000E+00  0.5800000E-05
  0.8163265E-01  0.0000000E+00  0.2448980E+00  0.5800000E-05  0.0000000E+00  0.5800000E-05
  0.1224490E+00  0.0000000E+00  0.2448980E+00  0.5800000E-05  0.0000000E+00  0.5800000E-05
  0.1632653E+00  0.0000000E+00  0.2448980E+00  0.5800000E-05  0.0000000E+00  0.5800000E-05
  0.2040816E+00  0.0000000E+00  0.2448980E+00  0.5800000E-05  0.0000000E+00  0.5800000E-05
  0.2448980E+00  0.0000000E+00  0.2448980E+00  0.5800000E-05  0.0000000E+00  0.5800000E-05
  0.2857143E+00  0.0000000E+00  0.2448980E+00  0.5800000E-05  0.0000000E+00  0.5800000E-05
  0.3265306E+00  0.0000000E+00  0.2448980E+00  0.5800000E-05  0.0000000E+00  0.5800000E-05
  0.3673469E+00  0.0000000E+00  0.2448980E+00  0.5800000E-05  0.0000000E+00  0.5800000E-05
  0.4081633E+00  0.0000000E+00  0.2448980E+00  0.5800000E-05  0.0000000E+00  0.5800000E-05
  0.4489796E+00  0.0000000E+00  0.2448980E+00  0.5800000E-05  0.0000000E+00  0.5800000E-05
  0.4897959E+00  0.0000000E+00  0.2448980E+00  0.5800000E-05  0.0000000E+00  0.5800000E-05
  0.5306122E+00  0.0000000E+00  0.2448980E+00  0.5800000E-05  0.0000000E+00  0.5800000E-05
  0.5714286E+00  0.0000000E+00  0.2448980E+00  0.5800000E-05  0.0000000E+00  0.5800000E-05
  0.6122449E+00  0.0000000E+00  0.2448980E+00  0.5800000E-05  0.0000000E+00  0.5800000E-05
  0.6530612E+00  0.0000000E+00  0.2448980E+00  0.5800000E-05  0.0000000E+00  0.5800000E-05
  0.6938776E+00  0.0000000E+00  0.2448980E+00  0.5800000E-05  0.0000000E+00  0.5800000E-05
  0.7346939E+00  0.0000000E+00  0.2448980E+00  0.5800000E-05  0.0000000E+00  0.5800000E-05
  0.7755102E+00  0.0000000E+00  0.2448980E+00  0.5800000E-05  0.0000000E+00  0.5800000E-05
  0.8163265E+00  0.0000000E+00  0.2448980E+00  0.5800000E-05  0.0000000E+00  0.5800000E-05
  0.8571429E+00  0.0000000E+00  0.2448980E+00  0.5800000E-05  0.0000000E+00  0.5800000E-05
  0.8979592E+00  0.0000000E+00  0.2448980E+00  0.5800000E-05  0.0000000E+00  0.5800000E-05
  0.9387755E+00  0.0000000E+00  0.2448980E+00  0.5800000E-05  0.0000000E+00  0.5800000E-05
  0.9795918E+00  0.0000000E+00  0.2448980E+00  0.5800000E-05  0.0000000E+00  0.5800000E-05
  0.1020408E+01  0.0000000E+00  0.2448980E+00  0.5800000E-05  0.0000000E+00  0.5800000E-05
  0.1061224E+01  0.0000000E+00  0.2448980E+00  0.5800000E-05  0.0000000E+00  0.5800000E-05
  0.1102041E+01  0.0000000E+00  0.2448980E+00  0.5800000E-05  0.0000000E+00  0.5800000E-05