title = "dataset water"
variables = "x", "y", "z", "vx", "vy", "vz"
zone t = "velocities, solution time =  5.600E+01 days        " i =   99, j =   99, k =    1,  f=point
  0.5050505E-02  0.0000000E+00  0.5050505E-02  0.1519648E-06  0.0000000E+00  0.1869067E-03
  0.1515152E-01  0.0000000E+00  0.5050505E-02  0.4567985E-06  0.0000000E+00  0.1875313E-03
  0.2525252E-01  0.0000000E+00  0.5050505E-02  0.7643762E-06  0.0000000E+00  0.1887844E-03
  0.3535353E-01  0.0000000E+00  0.5050505E-02  0.1076588E-05  0.0000000E+00  0.1906738E-03
  0.4545455E-01  0.0000000E+00  0.5050505E-02  0.1395391E-05  0.0000000E+00  0.1932114E-03
  0.5555556E-01  0.0000000E+00  0.5050505E-02  0.1722834E-05  0.0000000E+00  0.1964134E-03
  0.6565657E-01  0.0000000E+00  0.5050505E-02  0.2061082E-05  0.0000000E+00  0.2003004E-03
  0.7575758E-01  0.0000000E+00  0.5050505E-02  0.2412458E-05  0.0000000E+00  0.2048981E-03
  0.8585858E-01  0.0000000E+00  0.5050505E-02  0.2779481E-05  0.0000000E+00  0.2102371E-03
  0.9595960E-01  0.0000000E+00  0.5050505E-02  0.3164925E-05  0.0000000E+00  0.2163538E-03
  0.1060606E+00  0.0000000E+00  0.5050505E-02  0.3571889E-05  0.0000000E+00  0.2232911E-03
  0.1161616E+00  0.0000000E+00  0.5050505E-02  0.4003892E-05  0.0000000E+00  0.2310989E-03
  0.1262626E+00  0.0000000E+00  0.5050505E-02  0.4464994E-05  0.0000000E+00  0.2398354E-03
  0.1363636E+00  0.0000000E+00  0.5050505E-02  0.4959966E-05  0.0000000E+00  0.2495686E-03
  0.1464646E+00  0.0000000E+00  0.5050505E-02  0.5494518E-05  0.0000000E+00  0.2603777E-03
  0.1565657E+00  0.0000000E+00  0.5050505E-02  0.6075640E-05  0.0000000E+00  0.2723560E-03
  0.1666667E+00  0.0000000E+00  0.5050505E-02  0.6712087E-05  0.0000000E+00  0.2856142E-03
  0.1767677E+00  0.0000000E+00  0.5050505E-02  0.7415156E-05  0.0000000E+00  0.3002847E-03
  0.1868687E+00  0.0000000E+00  0.5050505E-02  0.8199933E-05  0.0000000E+00  0.3165292E-03
  0.1969697E+00  0.0000000E+00  0.5050505E-02  0.9087427E-05  0.0000000E+00  0.3345489E-03
  0.2070707E+00  0.0000000E+00  0.5050505E-02  0.1010838E-04  0.0000000E+00  0.3546016E-03
  0.2171717E+00  0.0000000E+00  0.5050505E-02  0.1131037E-04  0.0000000E+00  0.3770310E-03
  0.2272727E+00  0.0000000E+00  0.5050505E-02  0.1277144E-04  0.0000000E+00  0.4023179E-03
  0.2373737E+00  0.0000000E+00  0.5050505E-02  0.1462573E-04  0.0000000E+00  0.4311745E-03
  0.2474747E+00  0.0000000E+00  0.5050505E-02  0.1710456E-04  0.0000000E+00  0.4647125E-03
  0.2575758E+00  0.0000000E+00  0.5050505E-02  0.2054883E-04  0.0000000E+00  0.5046742E-03
  0.2676768E+00  0.0000000E+00  0.5050505E-02  0.2500212E-04  0.0000000E+00  0.5532529E-03
  0.2777778E+00  0.0000000E+00  0.5050505E-02  0.2688262E-04  0.0000000E+00  0.6089017E-03
  0.2878788E+00  0.0000000E+00  0.5050505E-02  0.2616175E-04  0.0000000E+00  0.6661651E-03
  0.2979798E+00  0.0000000E+00  0.5050505E-02  0.2656240E-04  0.0000000E+00  0.7234772E-03
  0.3080808E+00  0.0000000E+00  0.5050505E-02  0.2912047E-04  0.0000000E+00  0.7844280E-03
  0.3181818E+00  0.0000000E+00  0.5050505E-02  0.3765855E-04  0.0000000E+00  0.8580800E-03
  0.3282828E+00  0.0000000E+00  0.5050505E-02  0.4369684E-04  0.0000000E+00  0.9485846E-03
  0.3383838E+00  0.0000000E+00  0.5050505E-02  0.4870628E-04  0.0000000E+00  0.1052478E-02
  0.3484848E+00  0.0000000E+00  0.5050505E-02  0.6528760E-04  0.0000000E+00  0.1182306E-02
  0.3585859E+00  0.0000000E+00  0.5050505E-02  0.1008108E-03  0.0000000E+00  0.1374553E-02
  0.3686869E+00  0.0000000E+00  0.5050505E-02  0.1859464E-03  0.0000000E+00  0.1714710E-02
  0.3787879E+00  0.0000000E+00  0.5050505E-02  0.2572367E-03  0.0000000E+00  0.2261538E-02
  0.3888889E+00  0.0000000E+00  0.5050505E-02 -0.1749840E-05  0.0000000E+00  0.2583319E-02
  0.3989899E+00  0.0000000E+00  0.5050505E-02 -0.8789020E-04  0.0000000E+00  0.2464946E-02
  0.4090909E+00  0.0000000E+00  0.5050505E-02 -0.1102445E-03  0.0000000E+00  0.2207968E-02
  0.4191919E+00  0.0000000E+00  0.5050505E-02 -0.4425507E-04  0.0000000E+00  0.2011114E-02
  0.4292929E+00  0.0000000E+00  0.5050505E-02 -0.9531513E-06  0.0000000E+00  0.1954031E-02
  0.4393939E+00  0.0000000E+00  0.5050505E-02 -0.9033828E-05  0.0000000E+00  0.1941454E-02
  0.4494950E+00  0.0000000E+00  0.5050505E-02  0.1767853E-04  0.0000000E+00  0.1952338E-02
  0.4595959E+00  0.0000000E+00  0.5050505E-02 -0.2210743E-04  0.0000000E+00  0.1946797E-02
  0.4696970E+00  0.0000000E+00  0.5050505E-02  0.7003817E-05  0.0000000E+00  0.1927804E-02
  0.4797980E+00  0.0000000E+00  0.5050505E-02  0.1822762E-04  0.0000000E+00  0.1959578E-02
  0.4898990E+00  0.0000000E+00  0.5050505E-02  0.4943387E-04  0.0000000E+00  0.2045158E-02
  0.5000000E+00  0.0000000E+00  0.5050505E-02  0.3419150E-04  0.0000000E+00  0.2151694E-02
  0.5101010E+00  0.0000000E+00  0.5050505E-02 -0.5786742E-04  0.0000000E+00  0.2121779E-02
  0.5202020E+00  0.0000000E+00  0.5050505E-02 -0.7219367E-04  0.0000000E+00  0.1957688E-02
  0.5303030E+00  0.0000000E+00  0.5050505E-02 -0.4885258E-04  0.0000000E+00  0.1807194E-02
  0.5404040E+00  0.0000000E+00  0.5050505E-02 -0.2873713E-04  0.0000000E+00  0.1711802E-02
  0.5505050E+00  0.0000000E+00  0.5050505E-02 -0.7640987E-04  0.0000000E+00  0.1585130E-02
  0.5606061E+00  0.0000000E+00  0.5050505E-02 -0.5287164E-04  0.0000000E+00  0.1431191E-02
  0.5707071E+00  0.0000000E+00  0.5050505E-02 -0.2890403E-04  0.0000000E+00  0.1334915E-02
  0.5808081E+00  0.0000000E+00  0.5050505E-02 -0.6271221E-04  0.0000000E+00  0.1228828E-02
  0.5909091E+00  0.0000000E+00  0.5050505E-02 -0.6788793E-04  0.0000000E+00  0.1079802E-02
  0.6010101E+00  0.0000000E+00  0.5050505E-02 -0.4422925E-04  0.0000000E+00  0.9535529E-03
  0.6111111E+00  0.0000000E+00  0.5050505E-02 -0.3336441E-04  0.0000000E+00  0.8671197E-03
  0.6212121E+00  0.0000000E+00  0.5050505E-02 -0.2725155E-04  0.0000000E+00  0.8001488E-03
  0.6313131E+00  0.0000000E+00  0.5050505E-02 -0.2324045E-04  0.0000000E+00  0.7447356E-03
  0.6414142E+00  0.0000000E+00  0.5050505E-02 -0.2035186E-04  0.0000000E+00  0.6971676E-03
  0.6515151E+00  0.0000000E+00  0.5050505E-02 -0.1817039E-04  0.0000000E+00  0.6553428E-03
  0.6616161E+00  0.0000000E+00  0.5050505E-02 -0.1647819E-04  0.0000000E+00  0.6178926E-03
  0.6717172E+00  0.0000000E+00  0.5050505E-02 -0.1513146E-04  0.0000000E+00  0.5838665E-03
  0.6818182E+00  0.0000000E+00  0.5050505E-02 -0.1402227E-04  0.0000000E+00  0.5526017E-03
  0.6919192E+00  0.0000000E+00  0.5050505E-02 -0.1306903E-04  0.0000000E+00  0.5236496E-03
  0.7020202E+00  0.0000000E+00  0.5050505E-02 -0.1221341E-04  0.0000000E+00  0.4967179E-03
  0.7121212E+00  0.0000000E+00  0.5050505E-02 -0.1141807E-04  0.0000000E+00  0.4716207E-03
  0.7222222E+00  0.0000000E+00  0.5050505E-02 -0.1066338E-04  0.0000000E+00  0.4482356E-03
  0.7323232E+00  0.0000000E+00  0.5050505E-02 -0.9942253E-05  0.0000000E+00  0.4264705E-03
  0.7424242E+00  0.0000000E+00  0.5050505E-02 -0.9254496E-05  0.0000000E+00  0.4062430E-03
  0.7525253E+00  0.0000000E+00  0.5050505E-02 -0.8602429E-05  0.0000000E+00  0.3874698E-03
  0.7626263E+00  0.0000000E+00  0.5050505E-02 -0.7988241E-05  0.0000000E+00  0.3700644E-03
  0.7727273E+00  0.0000000E+00  0.5050505E-02 -0.7412858E-05  0.0000000E+00  0.3539385E-03
  0.7828283E+00  0.0000000E+00  0.5050505E-02 -0.6875727E-05  0.0000000E+00  0.3390044E-03
  0.7929293E+00  0.0000000E+00  0.5050505E-02 -0.6375055E-05  0.0000000E+00  0.3251782E-03
  0.8030303E+00  0.0000000E+00  0.5050505E-02 -0.5908194E-05  0.0000000E+00  0.3123814E-03
  0.8131313E+00  0.0000000E+00  0.5050505E-02 -0.5472018E-05  0.0000000E+00  0.3005423E-03
  0.8232324E+00  0.0000000E+00  0.5050505E-02 -0.5063225E-05  0.0000000E+00  0.2895969E-03
  0.8333333E+00  0.0000000E+00  0.5050505E-02 -0.4678563E-05  0.0000000E+00  0.2794881E-03
  0.8434343E+00  0.0000000E+00  0.5050505E-02 -0.4314978E-05  0.0000000E+00  0.2701664E-03
  0.8535354E+00  0.0000000E+00  0.5050505E-02 -0.3969692E-05  0.0000000E+00  0.2615883E-03
  0.8636364E+00  0.0000000E+00  0.5050505E-02 -0.3640250E-05  0.0000000E+00  0.2537163E-03
  0.8737374E+00  0.0000000E+00  0.5050505E-02 -0.3324517E-05  0.0000000E+00  0.2465180E-03
  0.8838384E+00  0.0000000E+00  0.5050505E-02 -0.3020659E-05  0.0000000E+00  0.2399653E-03
  0.8939394E+00  0.0000000E+00  0.5050505E-02 -0.2727107E-05  0.0000000E+00  0.2340339E-03
  0.9040404E+00  0.0000000E+00  0.5050505E-02 -0.2442515E-05  0.0000000E+00  0.2287025E-03
  0.9141414E+00  0.0000000E+00  0.5050505E-02 -0.2165717E-05  0.0000000E+00  0.2239528E-03
  0.9242424E+00  0.0000000E+00  0.5050505E-02 -0.1895682E-05  0.0000000E+00  0.2197688E-03
  0.9343435E+00  0.0000000E+00  0.5050505E-02 -0.1631479E-05  0.0000000E+00  0.2161368E-03
  0.9444444E+00  0.0000000E+00  0.5050505E-02 -0.1372246E-05  0.0000000E+00  0.2130450E-03
  0.9545454E+00  0.0000000E+00  0.5050505E-02 -0.1117167E-05  0.0000000E+00  0.2104834E-03
  0.9646465E+00  0.0000000E+00  0.5050505E-02 -0.8654573E-06  0.0000000E+00  0.2084437E-03
  0.9747475E+00  0.0000000E+00  0.5050505E-02 -0.6163468E-06  0.0000000E+00  0.2069196E-03
  0.9848485E+00  0.0000000E+00  0.5050505E-02 -0.3690788E-06  0.0000000E+00  0.2059062E-03
  0.9974747E+00  0.0000000E+00  0.5050505E-02 -0.1229061E-06  0.0000000E+00  0.2054002E-03
  0.5050505E-02  0.0000000E+00  0.1515152E-01  0.4547337E-06  0.0000000E+00  0.1865666E-03
  0.1515152E-01  0.0000000E+00  0.1515152E-01  0.1366915E-05  0.0000000E+00  0.1871885E-03
  0.2525252E-01  0.0000000E+00  0.1515152E-01  0.2287320E-05  0.0000000E+00  0.1884361E-03
  0.3535353E-01  0.0000000E+00  0.1515152E-01  0.3221599E-05  0.0000000E+00  0.1903171E-03
  0.4545455E-01  0.0000000E+00  0.1515152E-01  0.4175599E-05  0.0000000E+00  0.1928432E-03
  0.5555556E-01  0.0000000E+00  0.1515152E-01  0.5155432E-05  0.0000000E+00  0.1960306E-03
  0.6565657E-01  0.0000000E+00  0.1515152E-01  0.6167563E-05  0.0000000E+00  0.1998995E-03
  0.7575758E-01  0.0000000E+00  0.1515152E-01  0.7218911E-05  0.0000000E+00  0.2044752E-03
  0.8585858E-01  0.0000000E+00  0.1515152E-01  0.8316980E-05  0.0000000E+00  0.2097881E-03
  0.9595960E-01  0.0000000E+00  0.1515152E-01  0.9470021E-05  0.0000000E+00  0.2158741E-03
  0.1060606E+00  0.0000000E+00  0.1515152E-01  0.1068724E-04  0.0000000E+00  0.2227751E-03
  0.1161616E+00  0.0000000E+00  0.1515152E-01  0.1197906E-04  0.0000000E+00  0.2305403E-03
  0.1262626E+00  0.0000000E+00  0.1515152E-01  0.1335751E-04  0.0000000E+00  0.2392267E-03
  0.1363636E+00  0.0000000E+00  0.1515152E-01  0.1483665E-04  0.0000000E+00  0.2489006E-03
  0.1464646E+00  0.0000000E+00  0.1515152E-01  0.1643330E-04  0.0000000E+00  0.2596391E-03
  0.1565657E+00  0.0000000E+00  0.1515152E-01  0.1816793E-04  0.0000000E+00  0.2715323E-03
  0.1666667E+00  0.0000000E+00  0.1515152E-01  0.2006606E-04  0.0000000E+00  0.2846865E-03
  0.1767677E+00  0.0000000E+00  0.1515152E-01  0.2216034E-04  0.0000000E+00  0.2992278E-03
  0.1868687E+00  0.0000000E+00  0.1515152E-01  0.2449400E-04  0.0000000E+00  0.3153079E-03
  0.1969697E+00  0.0000000E+00  0.1515152E-01  0.2712642E-04  0.0000000E+00  0.3331121E-03
  0.2070707E+00  0.0000000E+00  0.1515152E-01  0.3014309E-04  0.0000000E+00  0.3528713E-03
  0.2171717E+00  0.0000000E+00  0.1515152E-01  0.3367399E-04  0.0000000E+00  0.3748813E-03
  0.2272727E+00  0.0000000E+00  0.1515152E-01  0.3792927E-04  0.0000000E+00  0.3995358E-03
  0.2373737E+00  0.0000000E+00  0.1515152E-01  0.4327356E-04  0.0000000E+00  0.4273930E-03
  0.2474747E+00  0.0000000E+00  0.1515152E-01  0.5039189E-04  0.0000000E+00  0.4593572E-03
  0.2575758E+00  0.0000000E+00  0.1515152E-01  0.6069608E-04  0.0000000E+00  0.4973576E-03
  0.2676768E+00  0.0000000E+00  0.1515152E-01  0.7744386E-04  0.0000000E+00  0.5475099E-03
  0.2777778E+00  0.0000000E+00  0.1515152E-01  0.8306621E-04  0.0000000E+00  0.6083382E-03
  0.2878788E+00  0.0000000E+00  0.1515152E-01  0.7738617E-04  0.0000000E+00  0.6670804E-03
  0.2979798E+00  0.0000000E+00  0.1515152E-01  0.7762145E-04  0.0000000E+00  0.7211054E-03
  0.3080808E+00  0.0000000E+00  0.1515152E-01  0.8181009E-04  0.0000000E+00  0.7739035E-03
  0.3181818E+00  0.0000000E+00  0.1515152E-01  0.9125219E-04  0.0000000E+00  0.8176716E-03
  0.3282828E+00  0.0000000E+00  0.1515152E-01  0.1084542E-03  0.0000000E+00  0.8590004E-03
  0.3383838E+00  0.0000000E+00  0.1515152E-01  0.1363353E-03  0.0000000E+00  0.9261225E-03
  0.3484848E+00  0.0000000E+00  0.1515152E-01  0.1801048E-03  0.0000000E+00  0.1025632E-02
  0.3585859E+00  0.0000000E+00  0.1515152E-01  0.2612844E-03  0.0000000E+00  0.1149632E-02
  0.3686869E+00  0.0000000E+00  0.1515152E-01  0.4250947E-03  0.0000000E+00  0.1279119E-02
  0.3787879E+00  0.0000000E+00  0.1515152E-01  0.5326922E-03  0.0000000E+00  0.1363574E-02
  0.3888889E+00  0.0000000E+00  0.1515152E-01  0.2818932E-03  0.0000000E+00  0.1736545E-02
  0.3989899E+00  0.0000000E+00  0.1515152E-01 -0.1852397E-03  0.0000000E+00  0.2071409E-02
  0.4090909E+00  0.0000000E+00  0.1515152E-01 -0.2659731E-03  0.0000000E+00  0.1995764E-02
  0.4191919E+00  0.0000000E+00  0.1515152E-01 -0.1135869E-03  0.0000000E+00  0.1901973E-02
  0.4292929E+00  0.0000000E+00  0.1515152E-01 -0.2938991E-05  0.0000000E+00  0.1867385E-02
  0.4393939E+00  0.0000000E+00  0.1515152E-01 -0.1374542E-04  0.0000000E+00  0.1871360E-02
  0.4494950E+00  0.0000000E+00  0.1515152E-01  0.2866557E-04  0.0000000E+00  0.1868552E-02
  0.4595959E+00  0.0000000E+00  0.1515152E-01 -0.6065889E-04  0.0000000E+00  0.1838836E-02
  0.4696970E+00  0.0000000E+00  0.1515152E-01  0.1772336E-04  0.0000000E+00  0.1822216E-02
  0.4797980E+00  0.0000000E+00  0.1515152E-01  0.7241611E-04  0.0000000E+00  0.1873698E-02
  0.4898990E+00  0.0000000E+00  0.1515152E-01  0.1325897E-03  0.0000000E+00  0.1964961E-02
  0.5000000E+00  0.0000000E+00  0.1515152E-01  0.6392043E-04  0.0000000E+00  0.2004901E-02
  0.5101010E+00  0.0000000E+00  0.1515152E-01 -0.1506083E-03  0.0000000E+00  0.1953824E-02
  0.5202020E+00  0.0000000E+00  0.1515152E-01 -0.2236537E-03  0.0000000E+00  0.1807687E-02
  0.5303030E+00  0.0000000E+00  0.1515152E-01 -0.1434601E-03  0.0000000E+00  0.1650732E-02
  0.5404040E+00  0.0000000E+00  0.1515152E-01 -0.1000840E-03  0.0000000E+00  0.1541288E-02
  0.5505050E+00  0.0000000E+00  0.1515152E-01 -0.1937567E-03  0.0000000E+00  0.1439474E-02
  0.5606061E+00  0.0000000E+00  0.1515152E-01 -0.1343182E-03  0.0000000E+00  0.1355646E-02
  0.5707071E+00  0.0000000E+00  0.1515152E-01 -0.1167323E-03  0.0000000E+00  0.1252392E-02
  0.5808081E+00  0.0000000E+00  0.1515152E-01 -0.1938481E-03  0.0000000E+00  0.1105717E-02
  0.5909091E+00  0.0000000E+00  0.1515152E-01 -0.1674726E-03  0.0000000E+00  0.9920761E-03
  0.6010101E+00  0.0000000E+00  0.1515152E-01 -0.1211641E-03  0.0000000E+00  0.9195524E-03
  0.6111111E+00  0.0000000E+00  0.1515152E-01 -0.9570210E-04  0.0000000E+00  0.8506770E-03
  0.6212121E+00  0.0000000E+00  0.1515152E-01 -0.7974512E-04  0.0000000E+00  0.7905694E-03
  0.6313131E+00  0.0000000E+00  0.1515152E-01 -0.6860635E-04  0.0000000E+00  0.7383869E-03
  0.6414142E+00  0.0000000E+00  0.1515152E-01 -0.6032846E-04  0.0000000E+00  0.6926514E-03
  0.6515151E+00  0.0000000E+00  0.1515152E-01 -0.5399292E-04  0.0000000E+00  0.6520223E-03
  0.6616161E+00  0.0000000E+00  0.1515152E-01 -0.4905735E-04  0.0000000E+00  0.6154027E-03
  0.6717172E+00  0.0000000E+00  0.1515152E-01 -0.4512484E-04  0.0000000E+00  0.5819520E-03
  0.6818182E+00  0.0000000E+00  0.1515152E-01 -0.4188007E-04  0.0000000E+00  0.5510702E-03
  0.6919192E+00  0.0000000E+00  0.1515152E-01 -0.3908083E-04  0.0000000E+00  0.5223584E-03
  0.7020202E+00  0.0000000E+00  0.1515152E-01 -0.3655415E-04  0.0000000E+00  0.4955693E-03
  0.7121212E+00  0.0000000E+00  0.1515152E-01 -0.3419088E-04  0.0000000E+00  0.4705560E-03
  0.7222222E+00  0.0000000E+00  0.1515152E-01 -0.3193699E-04  0.0000000E+00  0.4472270E-03
  0.7323232E+00  0.0000000E+00  0.1515152E-01 -0.2977655E-04  0.0000000E+00  0.4255102E-03
  0.7424242E+00  0.0000000E+00  0.1515152E-01 -0.2771327E-04  0.0000000E+00  0.4053331E-03
  0.7525253E+00  0.0000000E+00  0.1515152E-01 -0.2575669E-04  0.0000000E+00  0.3866150E-03
  0.7626263E+00  0.0000000E+00  0.1515152E-01 -0.2391457E-04  0.0000000E+00  0.3692686E-03
  0.7727273E+00  0.0000000E+00  0.1515152E-01 -0.2218999E-04  0.0000000E+00  0.3532029E-03
  0.7828283E+00  0.0000000E+00  0.1515152E-01 -0.2058115E-04  0.0000000E+00  0.3383278E-03
  0.7929293E+00  0.0000000E+00  0.1515152E-01 -0.1908236E-04  0.0000000E+00  0.3245572E-03
  0.8030303E+00  0.0000000E+00  0.1515152E-01 -0.1768536E-04  0.0000000E+00  0.3118114E-03
  0.8131313E+00  0.0000000E+00  0.1515152E-01 -0.1638053E-04  0.0000000E+00  0.3000180E-03
  0.8232324E+00  0.0000000E+00  0.1515152E-01 -0.1515776E-04  0.0000000E+00  0.2891127E-03
  0.8333333E+00  0.0000000E+00  0.1515152E-01 -0.1400719E-04  0.0000000E+00  0.2790389E-03
  0.8434343E+00  0.0000000E+00  0.1515152E-01 -0.1291956E-04  0.0000000E+00  0.2697471E-03
  0.8535354E+00  0.0000000E+00  0.1515152E-01 -0.1188653E-04  0.0000000E+00  0.2611946E-03
  0.8636364E+00  0.0000000E+00  0.1515152E-01 -0.1090072E-04  0.0000000E+00  0.2533444E-03
  0.8737374E+00  0.0000000E+00  0.1515152E-01 -0.9955754E-05  0.0000000E+00  0.2461646E-03
  0.8838384E+00  0.0000000E+00  0.1515152E-01 -0.9046157E-05  0.0000000E+00  0.2396277E-03
  0.8939394E+00  0.0000000E+00  0.1515152E-01 -0.8167266E-05  0.0000000E+00  0.2337097E-03
  0.9040404E+00  0.0000000E+00  0.1515152E-01 -0.7315088E-05  0.0000000E+00  0.2283898E-03
  0.9141414E+00  0.0000000E+00  0.1515152E-01 -0.6486163E-05  0.0000000E+00  0.2236500E-03
  0.9242424E+00  0.0000000E+00  0.1515152E-01 -0.5677435E-05  0.0000000E+00  0.2194745E-03
  0.9343435E+00  0.0000000E+00  0.1515152E-01 -0.4886142E-05  0.0000000E+00  0.2158497E-03
  0.9444444E+00  0.0000000E+00  0.1515152E-01 -0.4109723E-05  0.0000000E+00  0.2127639E-03
  0.9545454E+00  0.0000000E+00  0.1515152E-01 -0.3345753E-05  0.0000000E+00  0.2102072E-03
  0.9646465E+00  0.0000000E+00  0.1515152E-01 -0.2591884E-05  0.0000000E+00  0.2081715E-03
  0.9747475E+00  0.0000000E+00  0.1515152E-01 -0.1845820E-05  0.0000000E+00  0.2066502E-03
  0.9848485E+00  0.0000000E+00  0.1515152E-01 -0.1105295E-05  0.0000000E+00  0.2056387E-03
  0.9974747E+00  0.0000000E+00  0.1515152E-01 -0.3680687E-06  0.0000000E+00  0.2051337E-03
  0.5050505E-02  0.0000000E+00  0.2525252E-01  0.7545495E-06  0.0000000E+00  0.1858972E-03
  0.1515152E-01  0.0000000E+00  0.2525252E-01  0.2268163E-05  0.0000000E+00  0.1865137E-03
  0.2525252E-01  0.0000000E+00  0.2525252E-01  0.3795430E-05  0.0000000E+00  0.1877504E-03
  0.3535353E-01  0.0000000E+00  0.2525252E-01  0.5345706E-05  0.0000000E+00  0.1896148E-03
  0.4545455E-01  0.0000000E+00  0.2525252E-01  0.6928657E-05  0.0000000E+00  0.1921183E-03
  0.5555556E-01  0.0000000E+00  0.2525252E-01  0.8554379E-05  0.0000000E+00  0.1952767E-03
  0.6565657E-01  0.0000000E+00  0.2525252E-01  0.1023354E-04  0.0000000E+00  0.1991100E-03
  0.7575758E-01  0.0000000E+00  0.2525252E-01  0.1197752E-04  0.0000000E+00  0.2036426E-03
  0.8585858E-01  0.0000000E+00  0.2525252E-01  0.1379866E-04  0.0000000E+00  0.2089042E-03
  0.9595960E-01  0.0000000E+00  0.2525252E-01  0.1571049E-04  0.0000000E+00  0.2149297E-03
  0.1060606E+00  0.0000000E+00  0.2525252E-01  0.1772804E-04  0.0000000E+00  0.2217597E-03
  0.1161616E+00  0.0000000E+00  0.2525252E-01  0.1986832E-04  0.0000000E+00  0.2294416E-03
  0.1262626E+00  0.0000000E+00  0.2525252E-01  0.2215081E-04  0.0000000E+00  0.2380302E-03
  0.1363636E+00  0.0000000E+00  0.2525252E-01  0.2459825E-04  0.0000000E+00  0.2475884E-03
  0.1464646E+00  0.0000000E+00  0.2525252E-01  0.2723760E-04  0.0000000E+00  0.2581895E-03
  0.1565657E+00  0.0000000E+00  0.2525252E-01  0.3010148E-04  0.0000000E+00  0.2699178E-03
  0.1666667E+00  0.0000000E+00  0.2525252E-01  0.3323009E-04  0.0000000E+00  0.2828716E-03
  0.1767677E+00  0.0000000E+00  0.2525252E-01  0.3667419E-04  0.0000000E+00  0.2971654E-03
  0.1868687E+00  0.0000000E+00  0.2525252E-01  0.4049968E-04  0.0000000E+00  0.3129335E-03
  0.1969697E+00  0.0000000E+00  0.2525252E-01  0.4479482E-04  0.0000000E+00  0.3303341E-03
  0.2070707E+00  0.0000000E+00  0.2525252E-01  0.4968253E-04  0.0000000E+00  0.3495533E-03
  0.2171717E+00  0.0000000E+00  0.2525252E-01  0.5534142E-04  0.0000000E+00  0.3708087E-03
  0.2272727E+00  0.0000000E+00  0.2525252E-01  0.6204416E-04  0.0000000E+00  0.3943446E-03
  0.2373737E+00  0.0000000E+00  0.2525252E-01  0.7023072E-04  0.0000000E+00  0.4203964E-03
  0.2474747E+00  0.0000000E+00  0.2525252E-01  0.8066068E-04  0.0000000E+00  0.4490263E-03
  0.2575758E+00  0.0000000E+00  0.2525252E-01  0.9477288E-04  0.0000000E+00  0.4794020E-03
  0.2676768E+00  0.0000000E+00  0.2525252E-01  0.1156980E-03  0.0000000E+00  0.5064586E-03
  0.2777778E+00  0.0000000E+00  0.2525252E-01  0.1254757E-03  0.0000000E+00  0.5321952E-03
  0.2878788E+00  0.0000000E+00  0.2525252E-01  0.1234017E-03  0.0000000E+00  0.5688301E-03
  0.2979798E+00  0.0000000E+00  0.2525252E-01  0.1253258E-03  0.0000000E+00  0.6164650E-03
  0.3080808E+00  0.0000000E+00  0.2525252E-01  0.1299788E-03  0.0000000E+00  0.6683833E-03
  0.3181818E+00  0.0000000E+00  0.2525252E-01  0.1377845E-03  0.0000000E+00  0.7287625E-03
  0.3282828E+00  0.0000000E+00  0.2525252E-01  0.1636580E-03  0.0000000E+00  0.8001069E-03
  0.3383838E+00  0.0000000E+00  0.2525252E-01  0.2103758E-03  0.0000000E+00  0.8771031E-03
  0.3484848E+00  0.0000000E+00  0.2525252E-01  0.2627519E-03  0.0000000E+00  0.9537599E-03
  0.3585859E+00  0.0000000E+00  0.2525252E-01  0.3515433E-03  0.0000000E+00  0.1026208E-02
  0.3686869E+00  0.0000000E+00  0.2525252E-01  0.4950025E-03  0.0000000E+00  0.1081236E-02
  0.3787879E+00  0.0000000E+00  0.2525252E-01  0.5640948E-03  0.0000000E+00  0.1117729E-02
  0.3888889E+00  0.0000000E+00  0.2525252E-01  0.6220186E-03  0.0000000E+00  0.1196787E-02
  0.3989899E+00  0.0000000E+00  0.2525252E-01  0.1226141E-04  0.0000000E+00  0.1520854E-02
  0.4090909E+00  0.0000000E+00  0.2525252E-01 -0.3157521E-03  0.0000000E+00  0.1772576E-02
  0.4191919E+00  0.0000000E+00  0.2525252E-01 -0.1480667E-03  0.0000000E+00  0.1748563E-02
  0.4292929E+00  0.0000000E+00  0.2525252E-01 -0.8258559E-05  0.0000000E+00  0.1728575E-02
  0.4393939E+00  0.0000000E+00  0.2525252E-01 -0.7669515E-06  0.0000000E+00  0.1734159E-02
  0.4494950E+00  0.0000000E+00  0.2525252E-01  0.8595883E-05  0.0000000E+00  0.1728128E-02
  0.4595959E+00  0.0000000E+00  0.2525252E-01 -0.7314268E-04  0.0000000E+00  0.1714780E-02
  0.4696970E+00  0.0000000E+00  0.2525252E-01  0.2936816E-04  0.0000000E+00  0.1729563E-02
  0.4797980E+00  0.0000000E+00  0.2525252E-01  0.1219047E-03  0.0000000E+00  0.1759600E-02
  0.4898990E+00  0.0000000E+00  0.2525252E-01  0.1910190E-03  0.0000000E+00  0.1813593E-02
  0.5000000E+00  0.0000000E+00  0.2525252E-01  0.5195346E-04  0.0000000E+00  0.1839321E-02
  0.5101010E+00  0.0000000E+00  0.2525252E-01 -0.2361285E-03  0.0000000E+00  0.1762791E-02
  0.5202020E+00  0.0000000E+00  0.2525252E-01 -0.3411505E-03  0.0000000E+00  0.1645032E-02
  0.5303030E+00  0.0000000E+00  0.2525252E-01 -0.2287986E-03  0.0000000E+00  0.1544293E-02
  0.5404040E+00  0.0000000E+00  0.2525252E-01 -0.1955027E-03  0.0000000E+00  0.1428661E-02
  0.5505050E+00  0.0000000E+00  0.2525252E-01 -0.2520866E-03  0.0000000E+00  0.1341327E-02
  0.5606061E+00  0.0000000E+00  0.2525252E-01 -0.2033441E-03  0.0000000E+00  0.1270587E-02
  0.5707071E+00  0.0000000E+00  0.2525252E-01 -0.2682942E-03  0.0000000E+00  0.1116260E-02
  0.5808081E+00  0.0000000E+00  0.2525252E-01 -0.2814618E-03  0.0000000E+00  0.9881857E-03
  0.5909091E+00  0.0000000E+00  0.2525252E-01 -0.2228296E-03  0.0000000E+00  0.9389513E-03
  0.6010101E+00  0.0000000E+00  0.2525252E-01 -0.1792514E-03  0.0000000E+00  0.8834066E-03
  0.6111111E+00  0.0000000E+00  0.2525252E-01 -0.1492622E-03  0.0000000E+00  0.8273589E-03
  0.6212121E+00  0.0000000E+00  0.2525252E-01 -0.1276746E-03  0.0000000E+00  0.7747374E-03
  0.6313131E+00  0.0000000E+00  0.2525252E-01 -0.1111916E-03  0.0000000E+00  0.7270198E-03
  0.6414142E+00  0.0000000E+00  0.2525252E-01 -0.9837609E-04  0.0000000E+00  0.6842609E-03
  0.6515151E+00  0.0000000E+00  0.2525252E-01 -0.8839946E-04  0.0000000E+00  0.6457737E-03
  0.6616161E+00  0.0000000E+00  0.2525252E-01 -0.8060223E-04  0.0000000E+00  0.6107112E-03
  0.6717172E+00  0.0000000E+00  0.2525252E-01 -0.7439126E-04  0.0000000E+00  0.5783506E-03
  0.6818182E+00  0.0000000E+00  0.2525252E-01 -0.6925044E-04  0.0000000E+00  0.5481848E-03
  0.6919192E+00  0.0000000E+00  0.2525252E-01 -0.6477938E-04  0.0000000E+00  0.5199085E-03
  0.7020202E+00  0.0000000E+00  0.2525252E-01 -0.6069477E-04  0.0000000E+00  0.4933641E-03
  0.7121212E+00  0.0000000E+00  0.2525252E-01 -0.5682329E-04  0.0000000E+00  0.4684863E-03
  0.7222222E+00  0.0000000E+00  0.2525252E-01 -0.5309219E-04  0.0000000E+00  0.4452474E-03
  0.7323232E+00  0.0000000E+00  0.2525252E-01 -0.4949422E-04  0.0000000E+00  0.4236150E-03
  0.7424242E+00  0.0000000E+00  0.2525252E-01 -0.4605021E-04  0.0000000E+00  0.4035332E-03
  0.7525253E+00  0.0000000E+00  0.2525252E-01 -0.4278444E-04  0.0000000E+00  0.3849243E-03
  0.7626263E+00  0.0000000E+00  0.2525252E-01 -0.3971332E-04  0.0000000E+00  0.3676962E-03
  0.7727273E+00  0.0000000E+00  0.2525252E-01 -0.3684250E-04  0.0000000E+00  0.3517516E-03
  0.7828283E+00  0.0000000E+00  0.2525252E-01 -0.3416818E-04  0.0000000E+00  0.3369948E-03
  0.7929293E+00  0.0000000E+00  0.2525252E-01 -0.3167970E-04  0.0000000E+00  0.3233354E-03
  0.8030303E+00  0.0000000E+00  0.2525252E-01 -0.2936219E-04  0.0000000E+00  0.3106910E-03
  0.8131313E+00  0.0000000E+00  0.2525252E-01 -0.2719870E-04  0.0000000E+00  0.2989882E-03
  0.8232324E+00  0.0000000E+00  0.2525252E-01 -0.2517176E-04  0.0000000E+00  0.2881623E-03
  0.8333333E+00  0.0000000E+00  0.2525252E-01 -0.2326448E-04  0.0000000E+00  0.2781572E-03
  0.8434343E+00  0.0000000E+00  0.2525252E-01 -0.2146124E-04  0.0000000E+00  0.2689242E-03
  0.8535354E+00  0.0000000E+00  0.2525252E-01 -0.1974798E-04  0.0000000E+00  0.2604217E-03
  0.8636364E+00  0.0000000E+00  0.2525252E-01 -0.1811244E-04  0.0000000E+00  0.2526140E-03
  0.8737374E+00  0.0000000E+00  0.2525252E-01 -0.1654402E-04  0.0000000E+00  0.2454703E-03
  0.8838384E+00  0.0000000E+00  0.2525252E-01 -0.1503374E-04  0.0000000E+00  0.2389640E-03
  0.8939394E+00  0.0000000E+00  0.2525252E-01 -0.1357395E-04  0.0000000E+00  0.2330721E-03
  0.9040404E+00  0.0000000E+00  0.2525252E-01 -0.1215813E-04  0.0000000E+00  0.2277746E-03
  0.9141414E+00  0.0000000E+00  0.2525252E-01 -0.1078066E-04  0.0000000E+00  0.2230540E-03
  0.9242424E+00  0.0000000E+00  0.2525252E-01 -0.9436549E-05  0.0000000E+00  0.2188950E-03
  0.9343435E+00  0.0000000E+00  0.2525252E-01 -0.8121306E-05  0.0000000E+00  0.2152843E-03
  0.9444444E+00  0.0000000E+00  0.2525252E-01 -0.6830738E-05  0.0000000E+00  0.2122103E-03
  0.9545454E+00  0.0000000E+00  0.2525252E-01 -0.5560860E-05  0.0000000E+00  0.2096633E-03
  0.9646465E+00  0.0000000E+00  0.2525252E-01 -0.4307801E-05  0.0000000E+00  0.2076353E-03
  0.9747475E+00  0.0000000E+00  0.2525252E-01 -0.3067760E-05  0.0000000E+00  0.2061198E-03
  0.9848485E+00  0.0000000E+00  0.2525252E-01 -0.1836976E-05  0.0000000E+00  0.2051121E-03
  0.9974747E+00  0.0000000E+00  0.2525252E-01 -0.6117158E-06  0.0000000E+00  0.2046090E-03
  0.5050505E-02  0.0000000E+00  0.3535353E-01  0.1050173E-05  0.0000000E+00  0.1849112E-03
  0.1515152E-01  0.0000000E+00  0.3535353E-01  0.3156802E-05  0.0000000E+00  0.1855197E-03
  0.2525252E-01  0.0000000E+00  0.3535353E-01  0.5282408E-05  0.0000000E+00  0.1867403E-03
  0.3535353E-01  0.0000000E+00  0.3535353E-01  0.7439962E-05  0.0000000E+00  0.1885802E-03
  0.4545455E-01  0.0000000E+00  0.3535353E-01  0.9642850E-05  0.0000000E+00  0.1910505E-03
  0.5555556E-01  0.0000000E+00  0.3535353E-01  0.1190503E-04  0.0000000E+00  0.1941663E-03
  0.6565657E-01  0.0000000E+00  0.3535353E-01  0.1424120E-04  0.0000000E+00  0.1979472E-03
  0.7575758E-01  0.0000000E+00  0.3535353E-01  0.1666706E-04  0.0000000E+00  0.2024166E-03
  0.8585858E-01  0.0000000E+00  0.3535353E-01  0.1919951E-04  0.0000000E+00  0.2076032E-03
  0.9595960E-01  0.0000000E+00  0.3535353E-01  0.2185705E-04  0.0000000E+00  0.2135402E-03
  0.1060606E+00  0.0000000E+00  0.3535353E-01  0.2466015E-04  0.0000000E+00  0.2202667E-03
  0.1161616E+00  0.0000000E+00  0.3535353E-01  0.2763185E-04  0.0000000E+00  0.2278274E-03
  0.1262626E+00  0.0000000E+00  0.3535353E-01  0.3079838E-04  0.0000000E+00  0.2362739E-03
  0.1363636E+00  0.0000000E+00  0.3535353E-01  0.3419017E-04  0.0000000E+00  0.2456651E-03
  0.1464646E+00  0.0000000E+00  0.3535353E-01  0.3784298E-04  0.0000000E+00  0.2560684E-03
  0.1565657E+00  0.0000000E+00  0.3535353E-01  0.4179959E-04  0.0000000E+00  0.2675607E-03
  0.1666667E+00  0.0000000E+00  0.3535353E-01  0.4611203E-04  0.0000000E+00  0.2802298E-03
  0.1767677E+00  0.0000000E+00  0.3535353E-01  0.5084475E-04  0.0000000E+00  0.2941757E-03
  0.1868687E+00  0.0000000E+00  0.3535353E-01  0.5607923E-04  0.0000000E+00  0.3095117E-03
  0.1969697E+00  0.0000000E+00  0.3535353E-01  0.6192101E-04  0.0000000E+00  0.3263647E-03
  0.2070707E+00  0.0000000E+00  0.3535353E-01  0.6851025E-04  0.0000000E+00  0.3448735E-03
  0.2171717E+00  0.0000000E+00  0.3535353E-01  0.7603811E-04  0.0000000E+00  0.3651820E-03
  0.2272727E+00  0.0000000E+00  0.3535353E-01  0.8477087E-04  0.0000000E+00  0.3874195E-03
  0.2373737E+00  0.0000000E+00  0.3535353E-01  0.9508106E-04  0.0000000E+00  0.4116539E-03
  0.2474747E+00  0.0000000E+00  0.3535353E-01  0.1074662E-03  0.0000000E+00  0.4377869E-03
  0.2575758E+00  0.0000000E+00  0.3535353E-01  0.1224456E-03  0.0000000E+00  0.4653734E-03
  0.2676768E+00  0.0000000E+00  0.3535353E-01  0.1398051E-03  0.0000000E+00  0.4936872E-03
  0.2777778E+00  0.0000000E+00  0.3535353E-01  0.1546756E-03  0.0000000E+00  0.5251969E-03
  0.2878788E+00  0.0000000E+00  0.3535353E-01  0.1660534E-03  0.0000000E+00  0.5657881E-03
  0.2979798E+00  0.0000000E+00  0.3535353E-01  0.1708419E-03  0.0000000E+00  0.6132746E-03