title = "dataset water"
variables = "x", "y", "z", "vx", "vy", "vz"
zone t = "velocities, solution time =  3.600E+01 days        " i =   99, j =   99, k =    1,  f=point
  0.5050505E-02  0.0000000E+00  0.5050505E-02  0.2085859E-07  0.0000000E+00  0.1260800E-04
  0.1515152E-01  0.0000000E+00  0.5050505E-02  0.6268576E-07  0.0000000E+00  0.1269192E-04
  0.2525252E-01  0.0000000E+00  0.5050505E-02  0.1048447E-06  0.0000000E+00  0.1286020E-04
  0.3535353E-01  0.0000000E+00  0.5050505E-02  0.1475614E-06  0.0000000E+00  0.1311375E-04
  0.4545455E-01  0.0000000E+00  0.5050505E-02  0.1910692E-06  0.0000000E+00  0.1345391E-04
  0.5555556E-01  0.0000000E+00  0.5050505E-02  0.2356113E-06  0.0000000E+00  0.1388255E-04
  0.6565657E-01  0.0000000E+00  0.5050505E-02  0.2814444E-06  0.0000000E+00  0.1440200E-04
  0.7575758E-01  0.0000000E+00  0.5050505E-02  0.3288421E-06  0.0000000E+00  0.1501515E-04
  0.8585858E-01  0.0000000E+00  0.5050505E-02  0.3780988E-06  0.0000000E+00  0.1572546E-04
  0.9595960E-01  0.0000000E+00  0.5050505E-02  0.4295351E-06  0.0000000E+00  0.1653701E-04
  0.1060606E+00  0.0000000E+00  0.5050505E-02  0.4835026E-06  0.0000000E+00  0.1745458E-04
  0.1161616E+00  0.0000000E+00  0.5050505E-02  0.5403908E-06  0.0000000E+00  0.1848366E-04
  0.1262626E+00  0.0000000E+00  0.5050505E-02  0.6006349E-06  0.0000000E+00  0.1963062E-04
  0.1363636E+00  0.0000000E+00  0.5050505E-02  0.6647253E-06  0.0000000E+00  0.2090273E-04
  0.1464646E+00  0.0000000E+00  0.5050505E-02  0.7332194E-06  0.0000000E+00  0.2230836E-04
  0.1565657E+00  0.0000000E+00  0.5050505E-02  0.8067566E-06  0.0000000E+00  0.2385706E-04
  0.1666667E+00  0.0000000E+00  0.5050505E-02  0.8860763E-06  0.0000000E+00  0.2555981E-04
  0.1767677E+00  0.0000000E+00  0.5050505E-02  0.9720426E-06  0.0000000E+00  0.2742921E-04
  0.1868687E+00  0.0000000E+00  0.5050505E-02  0.1065675E-05  0.0000000E+00  0.2947976E-04
  0.1969697E+00  0.0000000E+00  0.5050505E-02  0.1168189E-05  0.0000000E+00  0.3172826E-04
  0.2070707E+00  0.0000000E+00  0.5050505E-02  0.1281054E-05  0.0000000E+00  0.3419423E-04
  0.2171717E+00  0.0000000E+00  0.5050505E-02  0.1406065E-05  0.0000000E+00  0.3690052E-04
  0.2272727E+00  0.0000000E+00  0.5050505E-02  0.1545449E-05  0.0000000E+00  0.3987408E-04
  0.2373737E+00  0.0000000E+00  0.5050505E-02  0.1702014E-05  0.0000000E+00  0.4314699E-04
  0.2474747E+00  0.0000000E+00  0.5050505E-02  0.1879363E-05  0.0000000E+00  0.4675788E-04
  0.2575758E+00  0.0000000E+00  0.5050505E-02  0.2082206E-05  0.0000000E+00  0.5075386E-04
  0.2676768E+00  0.0000000E+00  0.5050505E-02  0.2316843E-05  0.0000000E+00  0.5519330E-04
  0.2777778E+00  0.0000000E+00  0.5050505E-02  0.2591899E-05  0.0000000E+00  0.6014981E-04
  0.2878788E+00  0.0000000E+00  0.5050505E-02  0.2919507E-05  0.0000000E+00  0.6571824E-04
  0.2979798E+00  0.0000000E+00  0.5050505E-02  0.3317274E-05  0.0000000E+00  0.7202387E-04
  0.3080808E+00  0.0000000E+00  0.5050505E-02  0.3811658E-05  0.0000000E+00  0.7923708E-04
  0.3181818E+00  0.0000000E+00  0.5050505E-02  0.4444091E-05  0.0000000E+00  0.8759786E-04
  0.3282828E+00  0.0000000E+00  0.5050505E-02  0.5282795E-05  0.0000000E+00  0.9745866E-04
  0.3383838E+00  0.0000000E+00  0.5050505E-02  0.6447414E-05  0.0000000E+00  0.1093649E-03
  0.3484848E+00  0.0000000E+00  0.5050505E-02  0.8165933E-05  0.0000000E+00  0.1242195E-03
  0.3585859E+00  0.0000000E+00  0.5050505E-02  0.1092397E-04  0.0000000E+00  0.1436608E-03
  0.3686869E+00  0.0000000E+00  0.5050505E-02  0.1591702E-04  0.0000000E+00  0.1710635E-03
  0.3787879E+00  0.0000000E+00  0.5050505E-02  0.2663161E-04  0.0000000E+00  0.2146585E-03
  0.3888889E+00  0.0000000E+00  0.5050505E-02  0.5826785E-05  0.0000000E+00  0.2480041E-03
  0.3989899E+00  0.0000000E+00  0.5050505E-02 -0.2680404E-05  0.0000000E+00  0.2512519E-03
  0.4090909E+00  0.0000000E+00  0.5050505E-02 -0.3805519E-05  0.0000000E+00  0.2445508E-03
  0.4191919E+00  0.0000000E+00  0.5050505E-02 -0.3124353E-05  0.0000000E+00  0.2373964E-03
  0.4292929E+00  0.0000000E+00  0.5050505E-02 -0.2434960E-05  0.0000000E+00  0.2316609E-03
  0.4393939E+00  0.0000000E+00  0.5050505E-02 -0.2093085E-05  0.0000000E+00  0.2269922E-03
  0.4494950E+00  0.0000000E+00  0.5050505E-02 -0.2026118E-05  0.0000000E+00  0.2227472E-03
  0.4595959E+00  0.0000000E+00  0.5050505E-02 -0.2115280E-05  0.0000000E+00  0.2184816E-03
  0.4696970E+00  0.0000000E+00  0.5050505E-02 -0.2276819E-05  0.0000000E+00  0.2139602E-03
  0.4797980E+00  0.0000000E+00  0.5050505E-02 -0.2462704E-05  0.0000000E+00  0.2090842E-03
  0.4898990E+00  0.0000000E+00  0.5050505E-02 -0.2647835E-05  0.0000000E+00  0.2038298E-03
  0.5000000E+00  0.0000000E+00  0.5050505E-02 -0.2819219E-05  0.0000000E+00  0.1982126E-03
  0.5101010E+00  0.0000000E+00  0.5050505E-02 -0.2969561E-05  0.0000000E+00  0.1922692E-03
  0.5202020E+00  0.0000000E+00  0.5050505E-02 -0.3094354E-05  0.0000000E+00  0.1860480E-03
  0.5303030E+00  0.0000000E+00  0.5050505E-02 -0.3190922E-05  0.0000000E+00  0.1796047E-03
  0.5404040E+00  0.0000000E+00  0.5050505E-02 -0.3258197E-05  0.0000000E+00  0.1729988E-03
  0.5505050E+00  0.0000000E+00  0.5050505E-02 -0.3296593E-05  0.0000000E+00  0.1662900E-03
  0.5606061E+00  0.0000000E+00  0.5050505E-02 -0.3307775E-05  0.0000000E+00  0.1595361E-03
  0.5707071E+00  0.0000000E+00  0.5050505E-02 -0.3294314E-05  0.0000000E+00  0.1527901E-03
  0.5808081E+00  0.0000000E+00  0.5050505E-02 -0.3259316E-05  0.0000000E+00  0.1460990E-03
  0.5909091E+00  0.0000000E+00  0.5050505E-02 -0.3206096E-05  0.0000000E+00  0.1395032E-03
  0.6010101E+00  0.0000000E+00  0.5050505E-02 -0.3137918E-05  0.0000000E+00  0.1330364E-03
  0.6111111E+00  0.0000000E+00  0.5050505E-02 -0.3057827E-05  0.0000000E+00  0.1267256E-03
  0.6212121E+00  0.0000000E+00  0.5050505E-02 -0.2968547E-05  0.0000000E+00  0.1205919E-03
  0.6313131E+00  0.0000000E+00  0.5050505E-02 -0.2872438E-05  0.0000000E+00  0.1146512E-03
  0.6414142E+00  0.0000000E+00  0.5050505E-02 -0.2771500E-05  0.0000000E+00  0.1089149E-03
  0.6515151E+00  0.0000000E+00  0.5050505E-02 -0.2667389E-05  0.0000000E+00  0.1033907E-03
  0.6616161E+00  0.0000000E+00  0.5050505E-02 -0.2561457E-05  0.0000000E+00  0.9808329E-04
  0.6717172E+00  0.0000000E+00  0.5050505E-02 -0.2454791E-05  0.0000000E+00  0.9299484E-04
  0.6818182E+00  0.0000000E+00  0.5050505E-02 -0.2348257E-05  0.0000000E+00  0.8812555E-04
  0.6919192E+00  0.0000000E+00  0.5050505E-02 -0.2242532E-05  0.0000000E+00  0.8347409E-04
  0.7020202E+00  0.0000000E+00  0.5050505E-02 -0.2138143E-05  0.0000000E+00  0.7903793E-04
  0.7121212E+00  0.0000000E+00  0.5050505E-02 -0.2035492E-05  0.0000000E+00  0.7481360E-04
  0.7222222E+00  0.0000000E+00  0.5050505E-02 -0.1934882E-05  0.0000000E+00  0.7079698E-04
  0.7323232E+00  0.0000000E+00  0.5050505E-02 -0.1836534E-05  0.0000000E+00  0.6698341E-04
  0.7424242E+00  0.0000000E+00  0.5050505E-02 -0.1740602E-05  0.0000000E+00  0.6336789E-04
  0.7525253E+00  0.0000000E+00  0.5050505E-02 -0.1647190E-05  0.0000000E+00  0.5994518E-04
  0.7626263E+00  0.0000000E+00  0.5050505E-02 -0.1556355E-05  0.0000000E+00  0.5670989E-04
  0.7727273E+00  0.0000000E+00  0.5050505E-02 -0.1468122E-05  0.0000000E+00  0.5365659E-04
  0.7828283E+00  0.0000000E+00  0.5050505E-02 -0.1382484E-05  0.0000000E+00  0.5077983E-04
  0.7929293E+00  0.0000000E+00  0.5050505E-02 -0.1299411E-05  0.0000000E+00  0.4807422E-04
  0.8030303E+00  0.0000000E+00  0.5050505E-02 -0.1218852E-05  0.0000000E+00  0.4553448E-04
  0.8131313E+00  0.0000000E+00  0.5050505E-02 -0.1140741E-05  0.0000000E+00  0.4315545E-04
  0.8232324E+00  0.0000000E+00  0.5050505E-02 -0.1064997E-05  0.0000000E+00  0.4093215E-04
  0.8333333E+00  0.0000000E+00  0.5050505E-02 -0.9915263E-06  0.0000000E+00  0.3885978E-04
  0.8434343E+00  0.0000000E+00  0.5050505E-02 -0.9202279E-06  0.0000000E+00  0.3693375E-04
  0.8535354E+00  0.0000000E+00  0.5050505E-02 -0.8509916E-06  0.0000000E+00  0.3514969E-04
  0.8636364E+00  0.0000000E+00  0.5050505E-02 -0.7837012E-06  0.0000000E+00  0.3350348E-04
  0.8737374E+00  0.0000000E+00  0.5050505E-02 -0.7182350E-06  0.0000000E+00  0.3199124E-04
  0.8838384E+00  0.0000000E+00  0.5050505E-02 -0.6544672E-06  0.0000000E+00  0.3060936E-04
  0.8939394E+00  0.0000000E+00  0.5050505E-02 -0.5922687E-06  0.0000000E+00  0.2935447E-04
  0.9040404E+00  0.0000000E+00  0.5050505E-02 -0.5315079E-06  0.0000000E+00  0.2822351E-04
  0.9141414E+00  0.0000000E+00  0.5050505E-02 -0.4720508E-06  0.0000000E+00  0.2721366E-04
  0.9242424E+00  0.0000000E+00  0.5050505E-02 -0.4137623E-06  0.0000000E+00  0.2632239E-04
  0.9343435E+00  0.0000000E+00  0.5050505E-02 -0.3565061E-06  0.0000000E+00  0.2554745E-04
  0.9444444E+00  0.0000000E+00  0.5050505E-02 -0.3001450E-06  0.0000000E+00  0.2488687E-04
  0.9545454E+00  0.0000000E+00  0.5050505E-02 -0.2445414E-06  0.0000000E+00  0.2433896E-04
  0.9646465E+00  0.0000000E+00  0.5050505E-02 -0.1895574E-06  0.0000000E+00  0.2390231E-04
  0.9747475E+00  0.0000000E+00  0.5050505E-02 -0.1350549E-06  0.0000000E+00  0.2357581E-04
  0.9848485E+00  0.0000000E+00  0.5050505E-02 -0.8089584E-07  0.0000000E+00  0.2335861E-04
  0.9974747E+00  0.0000000E+00  0.5050505E-02 -0.2694249E-07  0.0000000E+00  0.2325015E-04
  0.5050505E-02  0.0000000E+00  0.1515152E-01  0.6249816E-07  0.0000000E+00  0.1262465E-04
  0.1515152E-01  0.0000000E+00  0.1515152E-01  0.1878237E-06  0.0000000E+00  0.1270850E-04
  0.2525252E-01  0.0000000E+00  0.1515152E-01  0.3141415E-06  0.0000000E+00  0.1287664E-04
  0.3535353E-01  0.0000000E+00  0.1515152E-01  0.4421279E-06  0.0000000E+00  0.1312996E-04
  0.4545455E-01  0.0000000E+00  0.1515152E-01  0.5724801E-06  0.0000000E+00  0.1346981E-04
  0.5555556E-01  0.0000000E+00  0.1515152E-01  0.7059253E-06  0.0000000E+00  0.1389803E-04
  0.6565657E-01  0.0000000E+00  0.1515152E-01  0.8432304E-06  0.0000000E+00  0.1441693E-04
  0.7575758E-01  0.0000000E+00  0.1515152E-01  0.9852128E-06  0.0000000E+00  0.1502939E-04
  0.8585858E-01  0.0000000E+00  0.1515152E-01  0.1132752E-05  0.0000000E+00  0.1573884E-04
  0.9595960E-01  0.0000000E+00  0.1515152E-01  0.1286806E-05  0.0000000E+00  0.1654932E-04
  0.1060606E+00  0.0000000E+00  0.1515152E-01  0.1448423E-05  0.0000000E+00  0.1746554E-04
  0.1161616E+00  0.0000000E+00  0.1515152E-01  0.1618765E-05  0.0000000E+00  0.1849297E-04
  0.1262626E+00  0.0000000E+00  0.1515152E-01  0.1799129E-05  0.0000000E+00  0.1963790E-04
  0.1363636E+00  0.0000000E+00  0.1515152E-01  0.1990978E-05  0.0000000E+00  0.2090751E-04
  0.1464646E+00  0.0000000E+00  0.1515152E-01  0.2195970E-05  0.0000000E+00  0.2231006E-04
  0.1565657E+00  0.0000000E+00  0.1515152E-01  0.2416006E-05  0.0000000E+00  0.2385498E-04
  0.1666667E+00  0.0000000E+00  0.1515152E-01  0.2653285E-05  0.0000000E+00  0.2555307E-04
  0.1767677E+00  0.0000000E+00  0.1515152E-01  0.2910370E-05  0.0000000E+00  0.2741672E-04
  0.1868687E+00  0.0000000E+00  0.1515152E-01  0.3190283E-05  0.0000000E+00  0.2946015E-04
  0.1969697E+00  0.0000000E+00  0.1515152E-01  0.3496622E-05  0.0000000E+00  0.3169980E-04
  0.2070707E+00  0.0000000E+00  0.1515152E-01  0.3833722E-05  0.0000000E+00  0.3415471E-04
  0.2171717E+00  0.0000000E+00  0.1515152E-01  0.4206873E-05  0.0000000E+00  0.3684709E-04
  0.2272727E+00  0.0000000E+00  0.1515152E-01  0.4622619E-05  0.0000000E+00  0.3980300E-04
  0.2373737E+00  0.0000000E+00  0.1515152E-01  0.5089186E-05  0.0000000E+00  0.4305332E-04
  0.2474747E+00  0.0000000E+00  0.1515152E-01  0.5617082E-05  0.0000000E+00  0.4663498E-04
  0.2575758E+00  0.0000000E+00  0.1515152E-01  0.6219994E-05  0.0000000E+00  0.5059264E-04
  0.2676768E+00  0.0000000E+00  0.1515152E-01  0.6916117E-05  0.0000000E+00  0.5498105E-04
  0.2777778E+00  0.0000000E+00  0.1515152E-01  0.7730202E-05  0.0000000E+00  0.5986836E-04
  0.2878788E+00  0.0000000E+00  0.1515152E-01  0.8696795E-05  0.0000000E+00  0.6534097E-04
  0.2979798E+00  0.0000000E+00  0.1515152E-01  0.9865499E-05  0.0000000E+00  0.7151050E-04
  0.3080808E+00  0.0000000E+00  0.1515152E-01  0.1130986E-04  0.0000000E+00  0.7852454E-04
  0.3181818E+00  0.0000000E+00  0.1515152E-01  0.1314293E-04  0.0000000E+00  0.8658281E-04
  0.3282828E+00  0.0000000E+00  0.1515152E-01  0.1554594E-04  0.0000000E+00  0.9596206E-04
  0.3383838E+00  0.0000000E+00  0.1515152E-01  0.1882362E-04  0.0000000E+00  0.1070525E-03
  0.3484848E+00  0.0000000E+00  0.1515152E-01  0.2351765E-04  0.0000000E+00  0.1204003E-03
  0.3585859E+00  0.0000000E+00  0.1515152E-01  0.3065324E-04  0.0000000E+00  0.1366979E-03
  0.3686869E+00  0.0000000E+00  0.1515152E-01  0.4230566E-04  0.0000000E+00  0.1563767E-03
  0.3787879E+00  0.0000000E+00  0.1515152E-01  0.6295216E-04  0.0000000E+00  0.1770109E-03
  0.3888889E+00  0.0000000E+00  0.1515152E-01  0.5341537E-04  0.0000000E+00  0.2297716E-03
  0.3989899E+00  0.0000000E+00  0.1515152E-01 -0.1530610E-04  0.0000000E+00  0.2623032E-03
  0.4090909E+00  0.0000000E+00  0.1515152E-01 -0.1323442E-04  0.0000000E+00  0.2461916E-03
  0.4191919E+00  0.0000000E+00  0.1515152E-01 -0.9415795E-05  0.0000000E+00  0.2370963E-03
  0.4292929E+00  0.0000000E+00  0.1515152E-01 -0.6985679E-05  0.0000000E+00  0.2316290E-03
  0.4393939E+00  0.0000000E+00  0.1515152E-01 -0.6021469E-05  0.0000000E+00  0.2275404E-03
  0.4494950E+00  0.0000000E+00  0.1515152E-01 -0.5930756E-05  0.0000000E+00  0.2236996E-03
  0.4595959E+00  0.0000000E+00  0.1515152E-01 -0.6276720E-05  0.0000000E+00  0.2196435E-03
  0.4696970E+00  0.0000000E+00  0.1515152E-01 -0.6806637E-05  0.0000000E+00  0.2152036E-03
  0.4797980E+00  0.0000000E+00  0.1515152E-01 -0.7388351E-05  0.0000000E+00  0.2103367E-03
  0.4898990E+00  0.0000000E+00  0.1515152E-01 -0.7956724E-05  0.0000000E+00  0.2050526E-03
  0.5000000E+00  0.0000000E+00  0.1515152E-01 -0.8478731E-05  0.0000000E+00  0.1993838E-03
  0.5101010E+00  0.0000000E+00  0.1515152E-01 -0.8935102E-05  0.0000000E+00  0.1933747E-03
  0.5202020E+00  0.0000000E+00  0.1515152E-01 -0.9313099E-05  0.0000000E+00  0.1870784E-03
  0.5303030E+00  0.0000000E+00  0.1515152E-01 -0.9604799E-05  0.0000000E+00  0.1805541E-03
  0.5404040E+00  0.0000000E+00  0.1515152E-01 -0.9807048E-05  0.0000000E+00  0.1738648E-03
  0.5505050E+00  0.0000000E+00  0.1515152E-01 -0.9921289E-05  0.0000000E+00  0.1670733E-03
  0.5606061E+00  0.0000000E+00  0.1515152E-01 -0.9952834E-05  0.0000000E+00  0.1602400E-03
  0.5707071E+00  0.0000000E+00  0.1515152E-01 -0.9909761E-05  0.0000000E+00  0.1534196E-03
  0.5808081E+00  0.0000000E+00  0.1515152E-01 -0.9801728E-05  0.0000000E+00  0.1466604E-03
  0.5909091E+00  0.0000000E+00  0.1515152E-01 -0.9638949E-05  0.0000000E+00  0.1400033E-03
  0.6010101E+00  0.0000000E+00  0.1515152E-01 -0.9431410E-05  0.0000000E+00  0.1334818E-03
  0.6111111E+00  0.0000000E+00  0.1515152E-01 -0.9188361E-05  0.0000000E+00  0.1271227E-03
  0.6212121E+00  0.0000000E+00  0.1515152E-01 -0.8918033E-05  0.0000000E+00  0.1209465E-03
  0.6313131E+00  0.0000000E+00  0.1515152E-01 -0.8627532E-05  0.0000000E+00  0.1149685E-03
  0.6414142E+00  0.0000000E+00  0.1515152E-01 -0.8322844E-05  0.0000000E+00  0.1091996E-03
  0.6515151E+00  0.0000000E+00  0.1515152E-01 -0.8008917E-05  0.0000000E+00  0.1036468E-03
  0.6616161E+00  0.0000000E+00  0.1515152E-01 -0.7689777E-05  0.0000000E+00  0.9831424E-04
  0.6717172E+00  0.0000000E+00  0.1515152E-01 -0.7368653E-05  0.0000000E+00  0.9320363E-04
  0.6818182E+00  0.0000000E+00  0.1515152E-01 -0.7048106E-05  0.0000000E+00  0.8831475E-04
  0.6919192E+00  0.0000000E+00  0.1515152E-01 -0.6730143E-05  0.0000000E+00  0.8364594E-04
  0.7020202E+00  0.0000000E+00  0.1515152E-01 -0.6416319E-05  0.0000000E+00  0.7919435E-04
  0.7121212E+00  0.0000000E+00  0.1515152E-01 -0.6107818E-05  0.0000000E+00  0.7495628E-04
  0.7222222E+00  0.0000000E+00  0.1515152E-01 -0.5805531E-05  0.0000000E+00  0.7092738E-04
  0.7323232E+00  0.0000000E+00  0.1515152E-01 -0.5510105E-05  0.0000000E+00  0.6710283E-04
  0.7424242E+00  0.0000000E+00  0.1515152E-01 -0.5221995E-05  0.0000000E+00  0.6347747E-04
  0.7525253E+00  0.0000000E+00  0.1515152E-01 -0.4941498E-05  0.0000000E+00  0.6004593E-04
  0.7626263E+00  0.0000000E+00  0.1515152E-01 -0.4668783E-05  0.0000000E+00  0.5680271E-04
  0.7727273E+00  0.0000000E+00  0.1515152E-01 -0.4403911E-05  0.0000000E+00  0.5374228E-04
  0.7828283E+00  0.0000000E+00  0.1515152E-01 -0.4146860E-05  0.0000000E+00  0.5085910E-04
  0.7929293E+00  0.0000000E+00  0.1515152E-01 -0.3897534E-05  0.0000000E+00  0.4814773E-04
  0.8030303E+00  0.0000000E+00  0.1515152E-01 -0.3655778E-05  0.0000000E+00  0.4560280E-04
  0.8131313E+00  0.0000000E+00  0.1515152E-01 -0.3421388E-05  0.0000000E+00  0.4321911E-04
  0.8232324E+00  0.0000000E+00  0.1515152E-01 -0.3194118E-05  0.0000000E+00  0.4099161E-04
  0.8333333E+00  0.0000000E+00  0.1515152E-01 -0.2973687E-05  0.0000000E+00  0.3891547E-04
  0.8434343E+00  0.0000000E+00  0.1515152E-01 -0.2759788E-05  0.0000000E+00  0.3698606E-04
  0.8535354E+00  0.0000000E+00  0.1515152E-01 -0.2552089E-05  0.0000000E+00  0.3519896E-04
  0.8636364E+00  0.0000000E+00  0.1515152E-01 -0.2350238E-05  0.0000000E+00  0.3355004E-04
  0.8737374E+00  0.0000000E+00  0.1515152E-01 -0.2153870E-05  0.0000000E+00  0.3203537E-04
  0.8838384E+00  0.0000000E+00  0.1515152E-01 -0.1962606E-05  0.0000000E+00  0.3065132E-04
  0.8939394E+00  0.0000000E+00  0.1515152E-01 -0.1776058E-05  0.0000000E+00  0.2939452E-04
  0.9040404E+00  0.0000000E+00  0.1515152E-01 -0.1593829E-05  0.0000000E+00  0.2826187E-04
  0.9141414E+00  0.0000000E+00  0.1515152E-01 -0.1415516E-05  0.0000000E+00  0.2725053E-04
  0.9242424E+00  0.0000000E+00  0.1515152E-01 -0.1240715E-05  0.0000000E+00  0.2635798E-04
  0.9343435E+00  0.0000000E+00  0.1515152E-01 -0.1069014E-05  0.0000000E+00  0.2558193E-04
  0.9444444E+00  0.0000000E+00  0.1515152E-01 -0.9000016E-06  0.0000000E+00  0.2492042E-04
  0.9545454E+00  0.0000000E+00  0.1515152E-01 -0.7332650E-06  0.0000000E+00  0.2437175E-04
  0.9646465E+00  0.0000000E+00  0.1515152E-01 -0.5683897E-06  0.0000000E+00  0.2393450E-04
  0.9747475E+00  0.0000000E+00  0.1515152E-01 -0.4049609E-06  0.0000000E+00  0.2360755E-04
  0.9848485E+00  0.0000000E+00  0.1515152E-01 -0.2425644E-06  0.0000000E+00  0.2339005E-04
  0.9974747E+00  0.0000000E+00  0.1515152E-01 -0.8078626E-07  0.0000000E+00  0.2328144E-04
  0.5050505E-02  0.0000000E+00  0.2525252E-01  0.1039668E-06  0.0000000E+00  0.1265836E-04
  0.1515152E-01  0.0000000E+00  0.2525252E-01  0.3124463E-06  0.0000000E+00  0.1274208E-04
  0.2525252E-01  0.0000000E+00  0.2525252E-01  0.5225708E-06  0.0000000E+00  0.1290994E-04
  0.3535353E-01  0.0000000E+00  0.2525252E-01  0.7354605E-06  0.0000000E+00  0.1316282E-04
  0.4545455E-01  0.0000000E+00  0.2525252E-01  0.9522701E-06  0.0000000E+00  0.1350207E-04
  0.5555556E-01  0.0000000E+00  0.2525252E-01  0.1174204E-05  0.0000000E+00  0.1392947E-04
  0.6565657E-01  0.0000000E+00  0.2525252E-01  0.1402530E-05  0.0000000E+00  0.1444732E-04
  0.7575758E-01  0.0000000E+00  0.2525252E-01  0.1638602E-05  0.0000000E+00  0.1505844E-04
  0.8585858E-01  0.0000000E+00  0.2525252E-01  0.1883873E-05  0.0000000E+00  0.1576621E-04
  0.9595960E-01  0.0000000E+00  0.2525252E-01  0.2139924E-05  0.0000000E+00  0.1657459E-04
  0.1060606E+00  0.0000000E+00  0.2525252E-01  0.2408486E-05  0.0000000E+00  0.1748821E-04
  0.1161616E+00  0.0000000E+00  0.2525252E-01  0.2691476E-05  0.0000000E+00  0.1851243E-04
  0.1262626E+00  0.0000000E+00  0.2525252E-01  0.2991030E-05  0.0000000E+00  0.1965339E-04
  0.1363636E+00  0.0000000E+00  0.2525252E-01  0.3309550E-05  0.0000000E+00  0.2091814E-04
  0.1464646E+00  0.0000000E+00  0.2525252E-01  0.3649764E-05  0.0000000E+00  0.2231470E-04
  0.1565657E+00  0.0000000E+00  0.2525252E-01  0.4014786E-05  0.0000000E+00  0.2385226E-04
  0.1666667E+00  0.0000000E+00  0.2525252E-01  0.4408213E-05  0.0000000E+00  0.2554129E-04
  0.1767677E+00  0.0000000E+00  0.2525252E-01  0.4834229E-05  0.0000000E+00  0.2739375E-04
  0.1868687E+00  0.0000000E+00  0.2525252E-01  0.5297751E-05  0.0000000E+00  0.2942336E-04
  0.1969697E+00  0.0000000E+00  0.2525252E-01  0.5804617E-05  0.0000000E+00  0.3164583E-04
  0.2070707E+00  0.0000000E+00  0.2525252E-01  0.6361831E-05  0.0000000E+00  0.3407930E-04
  0.2171717E+00  0.0000000E+00  0.2525252E-01  0.6977904E-05  0.0000000E+00  0.3674476E-04
  0.2272727E+00  0.0000000E+00  0.2525252E-01  0.7663309E-05  0.0000000E+00  0.3966663E-04
  0.2373737E+00  0.0000000E+00  0.2525252E-01  0.8431122E-05  0.0000000E+00  0.4287352E-04
  0.2474747E+00  0.0000000E+00  0.2525252E-01  0.9297931E-05  0.0000000E+00  0.4639919E-04
  0.2575758E+00  0.0000000E+00  0.2525252E-01  0.1028515E-04  0.0000000E+00  0.5028378E-04
  0.2676768E+00  0.0000000E+00  0.2525252E-01  0.1142093E-04  0.0000000E+00  0.5457547E-04
  0.2777778E+00  0.0000000E+00  0.2525252E-01  0.1274310E-04  0.0000000E+00  0.5933267E-04
  0.2878788E+00  0.0000000E+00  0.2525252E-01  0.1430362E-04  0.0000000E+00  0.6462682E-04
  0.2979798E+00  0.0000000E+00  0.2525252E-01  0.1617566E-04  0.0000000E+00  0.7054618E-04
  0.3080808E+00  0.0000000E+00  0.2525252E-01  0.1846502E-04  0.0000000E+00  0.7720049E-04
  0.3181818E+00  0.0000000E+00  0.2525252E-01  0.2132916E-04  0.0000000E+00  0.8472615E-04
  0.3282828E+00  0.0000000E+00  0.2525252E-01  0.2500960E-04  0.0000000E+00  0.9329048E-04
  0.3383838E+00  0.0000000E+00  0.2525252E-01  0.2988826E-04  0.0000000E+00  0.1030895E-03
  0.3484848E+00  0.0000000E+00  0.2525252E-01  0.3658629E-04  0.0000000E+00  0.1143263E-03
  0.3585859E+00  0.0000000E+00  0.2525252E-01  0.4613165E-04  0.0000000E+00  0.1271474E-03
  0.3686869E+00  0.0000000E+00  0.2525252E-01  0.6020528E-04  0.0000000E+00  0.1415694E-03
  0.3787879E+00  0.0000000E+00  0.2525252E-01  0.8128755E-04  0.0000000E+00  0.1580350E-03
  0.3888889E+00  0.0000000E+00  0.2525252E-01  0.1114570E-03  0.0000000E+00  0.1835119E-03
  0.3989899E+00  0.0000000E+00  0.2525252E-01 -0.1945295E-05  0.0000000E+00  0.2241007E-03
  0.4090909E+00  0.0000000E+00  0.2525252E-01 -0.2455063E-04  0.0000000E+00  0.2421754E-03
  0.4191919E+00  0.0000000E+00  0.2525252E-01 -0.1445799E-04  0.0000000E+00  0.2343224E-03
  0.4292929E+00  0.0000000E+00  0.2525252E-01 -0.1016724E-04  0.0000000E+00  0.2312549E-03
  0.4393939E+00  0.0000000E+00  0.2525252E-01 -0.9131350E-05  0.0000000E+00  0.2288142E-03
  0.4494950E+00  0.0000000E+00  0.2525252E-01 -0.9427135E-05  0.0000000E+00  0.2258073E-03
  0.4595959E+00  0.0000000E+00  0.2525252E-01 -0.1026791E-04  0.0000000E+00  0.2221104E-03
  0.4696970E+00  0.0000000E+00  0.2525252E-01 -0.1129151E-04  0.0000000E+00  0.2177818E-03
  0.4797980E+00  0.0000000E+00  0.2525252E-01 -0.1233224E-04  0.0000000E+00  0.2129024E-03
  0.4898990E+00  0.0000000E+00  0.2525252E-01 -0.1331775E-04  0.0000000E+00  0.2075433E-03
  0.5000000E+00  0.0000000E+00  0.2525252E-01 -0.1421200E-04  0.0000000E+00  0.2017633E-03
  0.5101010E+00  0.0000000E+00  0.2525252E-01 -0.1499013E-04  0.0000000E+00  0.1956178E-03
  0.5202020E+00  0.0000000E+00  0.2525252E-01 -0.1563237E-04  0.0000000E+00  0.1891667E-03
  0.5303030E+00  0.0000000E+00  0.2525252E-01 -0.1612531E-04  0.0000000E+00  0.1824758E-03
  0.5404040E+00  0.0000000E+00  0.2525252E-01 -0.1646368E-04  0.0000000E+00  0.1756151E-03
  0.5505050E+00  0.0000000E+00  0.2525252E-01 -0.1665058E-04  0.0000000E+00  0.1686542E-03
  0.5606061E+00  0.0000000E+00  0.2525252E-01 -0.1669603E-04  0.0000000E+00  0.1616587E-03
  0.5707071E+00  0.0000000E+00  0.2525252E-01 -0.1661479E-04  0.0000000E+00  0.1546871E-03
  0.5808081E+00  0.0000000E+00  0.2525252E-01 -0.1642415E-04  0.0000000E+00  0.1477900E-03
  0.5909091E+00  0.0000000E+00  0.2525252E-01 -0.1614205E-04  0.0000000E+00  0.1410088E-03
  0.6010101E+00  0.0000000E+00  0.2525252E-01 -0.1578577E-04  0.0000000E+00  0.1343772E-03
  0.6111111E+00  0.0000000E+00  0.2525252E-01 -0.1537111E-04  0.0000000E+00  0.1279209E-03
  0.6212121E+00  0.0000000E+00  0.2525252E-01 -0.1491200E-04  0.0000000E+00  0.1216594E-03
  0.6313131E+00  0.0000000E+00  0.2525252E-01 -0.1442032E-04  0.0000000E+00  0.1156067E-03
  0.6414142E+00  0.0000000E+00  0.2525252E-01 -0.1390601E-04  0.0000000E+00  0.1097723E-03
  0.6515151E+00  0.0000000E+00  0.2525252E-01 -0.1337725E-04  0.0000000E+00  0.1041620E-03
  0.6616161E+00  0.0000000E+00  0.2525252E-01 -0.1284064E-04  0.0000000E+00  0.9877900E-04
  0.6717172E+00  0.0000000E+00  0.2525252E-01 -0.1230144E-04  0.0000000E+00  0.9362390E-04
  0.6818182E+00  0.0000000E+00  0.2525252E-01 -0.1176382E-04  0.0000000E+00  0.8869569E-04
  0.6919192E+00  0.0000000E+00  0.2525252E-01 -0.1123103E-04  0.0000000E+00  0.8399200E-04
  0.7020202E+00  0.0000000E+00  0.2525252E-01 -0.1070557E-04  0.0000000E+00  0.7950940E-04
  0.7121212E+00  0.0000000E+00  0.2525252E-01 -0.1018934E-04  0.0000000E+00  0.7524369E-04
  0.7222222E+00  0.0000000E+00  0.2525252E-01 -0.9683784E-05  0.0000000E+00  0.7119009E-04
  0.7323232E+00  0.0000000E+00  0.2525252E-01 -0.9189919E-05  0.0000000E+00  0.6734343E-04
  0.7424242E+00  0.0000000E+00  0.2525252E-01 -0.8708466E-05  0.0000000E+00  0.6369825E-04
  0.7525253E+00  0.0000000E+00  0.2525252E-01 -0.8239889E-05  0.0000000E+00  0.6024893E-04
  0.7626263E+00  0.0000000E+00  0.2525252E-01 -0.7784441E-05  0.0000000E+00  0.5698973E-04
  0.7727273E+00  0.0000000E+00  0.2525252E-01 -0.7342207E-05  0.0000000E+00  0.5391494E-04
  0.7828283E+00  0.0000000E+00  0.2525252E-01 -0.6913127E-05  0.0000000E+00  0.5101886E-04
  0.7929293E+00  0.0000000E+00  0.2525252E-01 -0.6497028E-05  0.0000000E+00  0.4829587E-04
  0.8030303E+00  0.0000000E+00  0.2525252E-01 -0.6093638E-05  0.0000000E+00  0.4574049E-04
  0.8131313E+00  0.0000000E+00  0.2525252E-01 -0.5702606E-05  0.0000000E+00  0.4334740E-04
  0.8232324E+00  0.0000000E+00  0.2525252E-01 -0.5323510E-05  0.0000000E+00  0.4111146E-04
  0.8333333E+00  0.0000000E+00  0.2525252E-01 -0.4955876E-05  0.0000000E+00  0.3902772E-04
  0.8434343E+00  0.0000000E+00  0.2525252E-01 -0.4599183E-05  0.0000000E+00  0.3709149E-04
  0.8535354E+00  0.0000000E+00  0.2525252E-01 -0.4252870E-05  0.0000000E+00  0.3529828E-04
  0.8636364E+00  0.0000000E+00  0.2525252E-01 -0.3916348E-05  0.0000000E+00  0.3364388E-04
  0.8737374E+00  0.0000000E+00  0.2525252E-01 -0.3588999E-05  0.0000000E+00  0.3212432E-04
  0.8838384E+00  0.0000000E+00  0.2525252E-01 -0.3270189E-05  0.0000000E+00  0.3073592E-04
  0.8939394E+00  0.0000000E+00  0.2525252E-01 -0.2959265E-05  0.0000000E+00  0.2947526E-04
  0.9040404E+00  0.0000000E+00  0.2525252E-01 -0.2655564E-05  0.0000000E+00  0.2833919E-04
  0.9141414E+00  0.0000000E+00  0.2525252E-01 -0.2358411E-05  0.0000000E+00  0.2732487E-04
  0.9242424E+00  0.0000000E+00  0.2525252E-01 -0.2067127E-05  0.0000000E+00  0.2642973E-04
  0.9343435E+00  0.0000000E+00  0.2525252E-01 -0.1781026E-05  0.0000000E+00  0.2565146E-04
  0.9444444E+00  0.0000000E+00  0.2525252E-01 -0.1499420E-05  0.0000000E+00  0.2498808E-04
  0.9545454E+00  0.0000000E+00  0.2525252E-01 -0.1221616E-05  0.0000000E+00  0.2443788E-04
  0.9646465E+00  0.0000000E+00  0.2525252E-01 -0.9469232E-06  0.0000000E+00  0.2399941E-04
  0.9747475E+00  0.0000000E+00  0.2525252E-01 -0.6746486E-06  0.0000000E+00  0.2367156E-04
  0.9848485E+00  0.0000000E+00  0.2525252E-01 -0.4040998E-06  0.0000000E+00  0.2345346E-04
  0.9974747E+00  0.0000000E+00  0.2525252E-01 -0.1345852E-06  0.0000000E+00  0.2334455E-04
  0.5050505E-02  0.0000000E+00  0.3535353E-01  0.1452349E-06  0.0000000E+00  0.1270955E-04
  0.1515152E-01  0.0000000E+00  0.3535353E-01  0.4364629E-06  0.0000000E+00  0.1279307E-04
  0.2525252E-01  0.0000000E+00  0.3535353E-01  0.7299758E-06  0.0000000E+00  0.1296054E-04
  0.3535353E-01  0.0000000E+00  0.3535353E-01  0.1027329E-05  0.0000000E+00  0.1321280E-04
  0.4545455E-01  0.0000000E+00  0.3535353E-01  0.1330124E-05  0.0000000E+00  0.1355117E-04
  0.5555556E-01  0.0000000E+00  0.3535353E-01  0.1640032E-05  0.0000000E+00  0.1397740E-04
  0.6565657E-01  0.0000000E+00  0.3535353E-01  0.1958811E-05  0.0000000E+00  0.1449374E-04
  0.7575758E-01  0.0000000E+00  0.3535353E-01  0.2288335E-05  0.0000000E+00  0.1510293E-04
  0.8585858E-01  0.0000000E+00  0.3535353E-01  0.2630614E-05  0.0000000E+00  0.1580827E-04
  0.9595960E-01  0.0000000E+00  0.3535353E-01  0.2987834E-05  0.0000000E+00  0.1661362E-04
  0.1060606E+00  0.0000000E+00  0.3535353E-01  0.3362385E-05  0.0000000E+00  0.1752349E-04
  0.1161616E+00  0.0000000E+00  0.3535353E-01  0.3756908E-05  0.0000000E+00  0.1854308E-04
  0.1262626E+00  0.0000000E+00  0.3535353E-01  0.4174343E-05  0.0000000E+00  0.1967832E-04
  0.1363636E+00  0.0000000E+00  0.3535353E-01  0.4617992E-05  0.0000000E+00  0.2093604E-04
  0.1464646E+00  0.0000000E+00  0.3535353E-01  0.5091587E-05  0.0000000E+00  0.2232396E-04
  0.1565657E+00  0.0000000E+00  0.3535353E-01  0.5599391E-05  0.0000000E+00  0.2385090E-04
  0.1666667E+00  0.0000000E+00  0.3535353E-01  0.6146303E-05  0.0000000E+00  0.2552686E-04
  0.1767677E+00  0.0000000E+00  0.3535353E-01  0.6738004E-05  0.0000000E+00  0.2736323E-04
  0.1868687E+00  0.0000000E+00  0.3535353E-01  0.7381147E-05  0.0000000E+00  0.2937296E-04
  0.1969697E+00  0.0000000E+00  0.3535353E-01  0.8083587E-05  0.0000000E+00  0.3157080E-04
  0.2070707E+00  0.0000000E+00  0.3535353E-01  0.8854701E-05  0.0000000E+00  0.3397363E-04
  0.2171717E+00  0.0000000E+00  0.3535353E-01  0.9705806E-05  0.0000000E+00  0.3660075E-04
  0.2272727E+00  0.0000000E+00  0.3535353E-01  0.1065072E-04  0.0000000E+00  0.3947435E-04
  0.2373737E+00  0.0000000E+00  0.3535353E-01  0.1170654E-04  0.0000000E+00  0.4261998E-04
  0.2474747E+00  0.0000000E+00  0.3535353E-01  0.1289471E-04  0.0000000E+00  0.4606718E-04
  0.2575758E+00  0.0000000E+00  0.3535353E-01  0.1424257E-04  0.0000000E+00  0.4985020E-04
  0.2676768E+00  0.0000000E+00  0.3535353E-01  0.1578553E-04  0.0000000E+00  0.5400877E-04
  0.2777778E+00  0.0000000E+00  0.3535353E-01  0.1757025E-04  0.0000000E+00  0.5858905E-04
  0.2878788E+00  0.0000000E+00  0.3535353E-01  0.1965944E-04  0.0000000E+00  0.6364431E-04
  0.2979798E+00  0.0000000E+00  0.3535353E-01  0.2213897E-04  0.0000000E+00  0.6923535E-04