title = "dataset water"
variables = "x", "y", "z", "vx", "vy", "vz"
zone t = "velocities, solution time =  3.200E+01 days        " i =   99, j =   99, k =    1,  f=point
  0.5050505E-02  0.0000000E+00  0.5050505E-02  0.8465503E-08  0.0000000E+00 -0.9904398E-06
  0.1515152E-01  0.0000000E+00  0.5050505E-02  0.2543420E-07  0.0000000E+00 -0.9565362E-06
  0.2525252E-01  0.0000000E+00  0.5050505E-02  0.4251633E-07  0.0000000E+00 -0.8885783E-06
  0.3535353E-01  0.0000000E+00  0.5050505E-02  0.5978865E-07  0.0000000E+00 -0.7862636E-06
  0.4545455E-01  0.0000000E+00  0.5050505E-02  0.7732954E-07  0.0000000E+00 -0.6491346E-06
  0.5555556E-01  0.0000000E+00  0.5050505E-02  0.9521971E-07  0.0000000E+00 -0.4765755E-06
  0.6565657E-01  0.0000000E+00  0.5050505E-02  0.1135431E-06  0.0000000E+00 -0.2678061E-06
  0.7575758E-01  0.0000000E+00  0.5050505E-02  0.1323881E-06  0.0000000E+00 -0.2171250E-07
  0.8585858E-01  0.0000000E+00  0.5050505E-02  0.1518167E-06  0.0000000E+00  0.2630980E-06
  0.9595960E-01  0.0000000E+00  0.5050505E-02  0.1719585E-06  0.0000000E+00  0.5878297E-06
  0.1060606E+00  0.0000000E+00  0.5050505E-02  0.1929164E-06  0.0000000E+00  0.9537970E-06
  0.1161616E+00  0.0000000E+00  0.5050505E-02  0.2148007E-06  0.0000000E+00  0.1362753E-05
  0.1262626E+00  0.0000000E+00  0.5050505E-02  0.2377308E-06  0.0000000E+00  0.1816683E-05
  0.1363636E+00  0.0000000E+00  0.5050505E-02  0.2618364E-06  0.0000000E+00  0.2317821E-05
  0.1464646E+00  0.0000000E+00  0.5050505E-02  0.2872587E-06  0.0000000E+00  0.2868677E-05
  0.1565657E+00  0.0000000E+00  0.5050505E-02  0.3141526E-06  0.0000000E+00  0.3472058E-05
  0.1666667E+00  0.0000000E+00  0.5050505E-02  0.3426880E-06  0.0000000E+00  0.4131098E-05
  0.1767677E+00  0.0000000E+00  0.5050505E-02  0.3730526E-06  0.0000000E+00  0.4849294E-05
  0.1868687E+00  0.0000000E+00  0.5050505E-02  0.4054533E-06  0.0000000E+00  0.5630538E-05
  0.1969697E+00  0.0000000E+00  0.5050505E-02  0.4401187E-06  0.0000000E+00  0.6479167E-05
  0.2070707E+00  0.0000000E+00  0.5050505E-02  0.4773018E-06  0.0000000E+00  0.7399999E-05
  0.2171717E+00  0.0000000E+00  0.5050505E-02  0.5172825E-06  0.0000000E+00  0.8398395E-05
  0.2272727E+00  0.0000000E+00  0.5050505E-02  0.5603706E-06  0.0000000E+00  0.9480310E-05
  0.2373737E+00  0.0000000E+00  0.5050505E-02  0.6069082E-06  0.0000000E+00  0.1065236E-04
  0.2474747E+00  0.0000000E+00  0.5050505E-02  0.6572713E-06  0.0000000E+00  0.1192189E-04
  0.2575758E+00  0.0000000E+00  0.5050505E-02  0.7118704E-06  0.0000000E+00  0.1329704E-04
  0.2676768E+00  0.0000000E+00  0.5050505E-02  0.7711491E-06  0.0000000E+00  0.1478682E-04
  0.2777778E+00  0.0000000E+00  0.5050505E-02  0.8355790E-06  0.0000000E+00  0.1640117E-04
  0.2878788E+00  0.0000000E+00  0.5050505E-02  0.9056477E-06  0.0000000E+00  0.1815100E-04
  0.2979798E+00  0.0000000E+00  0.5050505E-02  0.9818380E-06  0.0000000E+00  0.2004822E-04
  0.3080808E+00  0.0000000E+00  0.5050505E-02  0.1064591E-05  0.0000000E+00  0.2210568E-04
  0.3181818E+00  0.0000000E+00  0.5050505E-02  0.1154246E-05  0.0000000E+00  0.2433704E-04
  0.3282828E+00  0.0000000E+00  0.5050505E-02  0.1250939E-05  0.0000000E+00  0.2675646E-04
  0.3383838E+00  0.0000000E+00  0.5050505E-02  0.1354454E-05  0.0000000E+00  0.2937805E-04
  0.3484848E+00  0.0000000E+00  0.5050505E-02  0.1463987E-05  0.0000000E+00  0.3221492E-04
  0.3585859E+00  0.0000000E+00  0.5050505E-02  0.1577796E-05  0.0000000E+00  0.3527766E-04
  0.3686869E+00  0.0000000E+00  0.5050505E-02  0.1692714E-05  0.0000000E+00  0.3857194E-04
  0.3787879E+00  0.0000000E+00  0.5050505E-02  0.1803480E-05  0.0000000E+00  0.4209496E-04
  0.3888889E+00  0.0000000E+00  0.5050505E-02  0.1901934E-05  0.0000000E+00  0.4583041E-04
  0.3989899E+00  0.0000000E+00  0.5050505E-02  0.1976194E-05  0.0000000E+00  0.4974175E-04
  0.4090909E+00  0.0000000E+00  0.5050505E-02  0.2010181E-05  0.0000000E+00  0.5376418E-04
  0.4191919E+00  0.0000000E+00  0.5050505E-02  0.1984202E-05  0.0000000E+00  0.5779666E-04
  0.4292929E+00  0.0000000E+00  0.5050505E-02  0.1877706E-05  0.0000000E+00  0.6169731E-04
  0.4393939E+00  0.0000000E+00  0.5050505E-02  0.1675279E-05  0.0000000E+00  0.6528762E-04
  0.4494950E+00  0.0000000E+00  0.5050505E-02  0.1375595E-05  0.0000000E+00  0.6837187E-04
  0.4595959E+00  0.0000000E+00  0.5050505E-02  0.9991475E-06  0.0000000E+00  0.7077348E-04
  0.4696970E+00  0.0000000E+00  0.5050505E-02  0.5861295E-06  0.0000000E+00  0.7237716E-04
  0.4797980E+00  0.0000000E+00  0.5050505E-02  0.1800790E-06  0.0000000E+00  0.7315241E-04
  0.4898990E+00  0.0000000E+00  0.5050505E-02 -0.1861558E-06  0.0000000E+00  0.7314626E-04
  0.5000000E+00  0.0000000E+00  0.5050505E-02 -0.4949898E-06  0.0000000E+00  0.7245706E-04
  0.5101010E+00  0.0000000E+00  0.5050505E-02 -0.7418118E-06  0.0000000E+00  0.7120582E-04
  0.5202020E+00  0.0000000E+00  0.5050505E-02 -0.9302779E-06  0.0000000E+00  0.6951455E-04
  0.5303030E+00  0.0000000E+00  0.5050505E-02 -0.1068083E-05  0.0000000E+00  0.6749376E-04
  0.5404040E+00  0.0000000E+00  0.5050505E-02 -0.1164100E-05  0.0000000E+00  0.6523714E-04
  0.5505050E+00  0.0000000E+00  0.5050505E-02 -0.1226797E-05  0.0000000E+00  0.6282077E-04
  0.5606061E+00  0.0000000E+00  0.5050505E-02 -0.1263525E-05  0.0000000E+00  0.6030469E-04
  0.5707071E+00  0.0000000E+00  0.5050505E-02 -0.1280330E-05  0.0000000E+00  0.5773532E-04
  0.5808081E+00  0.0000000E+00  0.5050505E-02 -0.1282020E-05  0.0000000E+00  0.5514809E-04
  0.5909091E+00  0.0000000E+00  0.5050505E-02 -0.1272330E-05  0.0000000E+00  0.5256975E-04
  0.6010101E+00  0.0000000E+00  0.5050505E-02 -0.1254126E-05  0.0000000E+00  0.5002036E-04
  0.6111111E+00  0.0000000E+00  0.5050505E-02 -0.1229588E-05  0.0000000E+00  0.4751486E-04
  0.6212121E+00  0.0000000E+00  0.5050505E-02 -0.1200364E-05  0.0000000E+00  0.4506433E-04
  0.6313131E+00  0.0000000E+00  0.5050505E-02 -0.1167701E-05  0.0000000E+00  0.4267691E-04
  0.6414142E+00  0.0000000E+00  0.5050505E-02 -0.1132547E-05  0.0000000E+00  0.4035852E-04
  0.6515151E+00  0.0000000E+00  0.5050505E-02 -0.1095623E-05  0.0000000E+00  0.3811339E-04
  0.6616161E+00  0.0000000E+00  0.5050505E-02 -0.1057482E-05  0.0000000E+00  0.3594447E-04
  0.6717172E+00  0.0000000E+00  0.5050505E-02 -0.1018555E-05  0.0000000E+00  0.3385372E-04
  0.6818182E+00  0.0000000E+00  0.5050505E-02 -0.9791780E-06  0.0000000E+00  0.3184232E-04
  0.6919192E+00  0.0000000E+00  0.5050505E-02 -0.9396193E-06  0.0000000E+00  0.2991086E-04
  0.7020202E+00  0.0000000E+00  0.5050505E-02 -0.9000923E-06  0.0000000E+00  0.2805942E-04
  0.7121212E+00  0.0000000E+00  0.5050505E-02 -0.8607696E-06  0.0000000E+00  0.2628772E-04
  0.7222222E+00  0.0000000E+00  0.5050505E-02 -0.8217911E-06  0.0000000E+00  0.2459515E-04
  0.7323232E+00  0.0000000E+00  0.5050505E-02 -0.7832703E-06  0.0000000E+00  0.2298086E-04
  0.7424242E+00  0.0000000E+00  0.5050505E-02 -0.7452986E-06  0.0000000E+00  0.2144380E-04
  0.7525253E+00  0.0000000E+00  0.5050505E-02 -0.7079493E-06  0.0000000E+00  0.1998273E-04
  0.7626263E+00  0.0000000E+00  0.5050505E-02 -0.6712795E-06  0.0000000E+00  0.1859632E-04
  0.7727273E+00  0.0000000E+00  0.5050505E-02 -0.6353327E-06  0.0000000E+00  0.1728311E-04
  0.7828283E+00  0.0000000E+00  0.5050505E-02 -0.6001399E-06  0.0000000E+00  0.1604159E-04
  0.7929293E+00  0.0000000E+00  0.5050505E-02 -0.5657215E-06  0.0000000E+00  0.1487019E-04
  0.8030303E+00  0.0000000E+00  0.5050505E-02 -0.5320880E-06  0.0000000E+00  0.1376732E-04
  0.8131313E+00  0.0000000E+00  0.5050505E-02 -0.4992414E-06  0.0000000E+00  0.1273136E-04
  0.8232324E+00  0.0000000E+00  0.5050505E-02 -0.4671757E-06  0.0000000E+00  0.1176072E-04
  0.8333333E+00  0.0000000E+00  0.5050505E-02 -0.4358783E-06  0.0000000E+00  0.1085382E-04
  0.8434343E+00  0.0000000E+00  0.5050505E-02 -0.4053303E-06  0.0000000E+00  0.1000912E-04
  0.8535354E+00  0.0000000E+00  0.5050505E-02 -0.3755072E-06  0.0000000E+00  0.9225119E-05
  0.8636364E+00  0.0000000E+00  0.5050505E-02 -0.3463799E-06  0.0000000E+00  0.8500368E-05
  0.8737374E+00  0.0000000E+00  0.5050505E-02 -0.3179149E-06  0.0000000E+00  0.7833493E-05
  0.8838384E+00  0.0000000E+00  0.5050505E-02 -0.2900752E-06  0.0000000E+00  0.7223186E-05
  0.8939394E+00  0.0000000E+00  0.5050505E-02 -0.2628204E-06  0.0000000E+00  0.6668222E-05
  0.9040404E+00  0.0000000E+00  0.5050505E-02 -0.2361073E-06  0.0000000E+00  0.6167458E-05
  0.9141414E+00  0.0000000E+00  0.5050505E-02 -0.2098906E-06  0.0000000E+00  0.5719844E-05
  0.9242424E+00  0.0000000E+00  0.5050505E-02 -0.1841225E-06  0.0000000E+00  0.5324421E-05
  0.9343435E+00  0.0000000E+00  0.5050505E-02 -0.1587539E-06  0.0000000E+00  0.4980333E-05
  0.9444444E+00  0.0000000E+00  0.5050505E-02 -0.1337341E-06  0.0000000E+00  0.4686822E-05
  0.9545454E+00  0.0000000E+00  0.5050505E-02 -0.1090112E-06  0.0000000E+00  0.4443235E-05
  0.9646465E+00  0.0000000E+00  0.5050505E-02 -0.8453227E-07  0.0000000E+00  0.4249025E-05
  0.9747475E+00  0.0000000E+00  0.5050505E-02 -0.6024383E-07  0.0000000E+00  0.4103753E-05
  0.9848485E+00  0.0000000E+00  0.5050505E-02 -0.3609172E-07  0.0000000E+00  0.4007089E-05
  0.9974747E+00  0.0000000E+00  0.5050505E-02 -0.1202148E-07  0.0000000E+00  0.3958811E-05
  0.5050505E-02  0.0000000E+00  0.1515152E-01  0.2538156E-07  0.0000000E+00 -0.9688967E-06
  0.1515152E-01  0.0000000E+00  0.1515152E-01  0.7625759E-07  0.0000000E+00 -0.9349546E-06
  0.2525252E-01  0.0000000E+00  0.1515152E-01  0.1274734E-06  0.0000000E+00 -0.8669204E-06
  0.3535353E-01  0.0000000E+00  0.1515152E-01  0.1792590E-06  0.0000000E+00 -0.7644921E-06
  0.4545455E-01  0.0000000E+00  0.1515152E-01  0.2318489E-06  0.0000000E+00 -0.6272136E-06
  0.5555556E-01  0.0000000E+00  0.1515152E-01  0.2854848E-06  0.0000000E+00 -0.4544705E-06
  0.6565657E-01  0.0000000E+00  0.1515152E-01  0.3404173E-06  0.0000000E+00 -0.2454860E-06
  0.7575758E-01  0.0000000E+00  0.1515152E-01  0.3969099E-06  0.0000000E+00  0.8820468E-09
  0.8585858E-01  0.0000000E+00  0.1515152E-01  0.4551529E-06  0.0000000E+00  0.2859913E-06
  0.9595960E-01  0.0000000E+00  0.1515152E-01  0.5155327E-06  0.0000000E+00  0.6110128E-06
  0.1060606E+00  0.0000000E+00  0.1515152E-01  0.5783561E-06  0.0000000E+00  0.9772901E-06
  0.1161616E+00  0.0000000E+00  0.1515152E-01  0.6439532E-06  0.0000000E+00  0.1386571E-05
  0.1262626E+00  0.0000000E+00  0.1515152E-01  0.7126813E-06  0.0000000E+00  0.1840832E-05
  0.1363636E+00  0.0000000E+00  0.1515152E-01  0.7849285E-06  0.0000000E+00  0.2342303E-05
  0.1464646E+00  0.0000000E+00  0.1515152E-01  0.8611180E-06  0.0000000E+00  0.2893481E-05
  0.1565657E+00  0.0000000E+00  0.1515152E-01  0.9417127E-06  0.0000000E+00  0.3497165E-05
  0.1666667E+00  0.0000000E+00  0.1515152E-01  0.1027222E-05  0.0000000E+00  0.4156476E-05
  0.1767677E+00  0.0000000E+00  0.1515152E-01  0.1118206E-05  0.0000000E+00  0.4874898E-05
  0.1868687E+00  0.0000000E+00  0.1515152E-01  0.1215286E-05  0.0000000E+00  0.5656308E-05
  0.1969697E+00  0.0000000E+00  0.1515152E-01  0.1319145E-05  0.0000000E+00  0.6505023E-05
  0.2070707E+00  0.0000000E+00  0.1515152E-01  0.1430541E-05  0.0000000E+00  0.7425845E-05
  0.2171717E+00  0.0000000E+00  0.1515152E-01  0.1550312E-05  0.0000000E+00  0.8424112E-05
  0.2272727E+00  0.0000000E+00  0.1515152E-01  0.1679387E-05  0.0000000E+00  0.9505759E-05
  0.2373737E+00  0.0000000E+00  0.1515152E-01  0.1818793E-05  0.0000000E+00  0.1067738E-04
  0.2474747E+00  0.0000000E+00  0.1515152E-01  0.1969657E-05  0.0000000E+00  0.1194630E-04
  0.2575758E+00  0.0000000E+00  0.1515152E-01  0.2133217E-05  0.0000000E+00  0.1332065E-04
  0.2676768E+00  0.0000000E+00  0.1515152E-01  0.2310811E-05  0.0000000E+00  0.1480944E-04
  0.2777778E+00  0.0000000E+00  0.1515152E-01  0.2503866E-05  0.0000000E+00  0.1642263E-04
  0.2878788E+00  0.0000000E+00  0.1515152E-01  0.2713870E-05  0.0000000E+00  0.1817121E-04
  0.2979798E+00  0.0000000E+00  0.1515152E-01  0.2942311E-05  0.0000000E+00  0.2006720E-04
  0.3080808E+00  0.0000000E+00  0.1515152E-01  0.3190577E-05  0.0000000E+00  0.2212370E-04
  0.3181818E+00  0.0000000E+00  0.1515152E-01  0.3459781E-05  0.0000000E+00  0.2435476E-04
  0.3282828E+00  0.0000000E+00  0.1515152E-01  0.3750492E-05  0.0000000E+00  0.2677520E-04
  0.3383838E+00  0.0000000E+00  0.1515152E-01  0.4062290E-05  0.0000000E+00  0.2940018E-04
  0.3484848E+00  0.0000000E+00  0.1515152E-01  0.4393103E-05  0.0000000E+00  0.3224441E-04
  0.3585859E+00  0.0000000E+00  0.1515152E-01  0.4738189E-05  0.0000000E+00  0.3532093E-04
  0.3686869E+00  0.0000000E+00  0.1515152E-01  0.5088682E-05  0.0000000E+00  0.3863896E-04
  0.3787879E+00  0.0000000E+00  0.1515152E-01  0.5429573E-05  0.0000000E+00  0.4220068E-04
  0.3888889E+00  0.0000000E+00  0.1515152E-01  0.5737140E-05  0.0000000E+00  0.4599626E-04
  0.3989899E+00  0.0000000E+00  0.1515152E-01  0.5976128E-05  0.0000000E+00  0.4999681E-04
  0.4090909E+00  0.0000000E+00  0.1515152E-01  0.6097605E-05  0.0000000E+00  0.5414479E-04
  0.4191919E+00  0.0000000E+00  0.1515152E-01  0.6039641E-05  0.0000000E+00  0.5834284E-04
  0.4292929E+00  0.0000000E+00  0.1515152E-01  0.5734512E-05  0.0000000E+00  0.6244364E-04
  0.4393939E+00  0.0000000E+00  0.1515152E-01  0.5127088E-05  0.0000000E+00  0.6624801E-04
  0.4494950E+00  0.0000000E+00  0.1515152E-01  0.4205851E-05  0.0000000E+00  0.6952284E-04
  0.4595959E+00  0.0000000E+00  0.1515152E-01  0.3034693E-05  0.0000000E+00  0.7204881E-04
  0.4696970E+00  0.0000000E+00  0.1515152E-01  0.1750739E-05  0.0000000E+00  0.7368710E-04
  0.4797980E+00  0.0000000E+00  0.1515152E-01  0.4986964E-06  0.0000000E+00  0.7441491E-04
  0.4898990E+00  0.0000000E+00  0.1515152E-01 -0.6183659E-06  0.0000000E+00  0.7430608E-04
  0.5000000E+00  0.0000000E+00  0.1515152E-01 -0.1550100E-05  0.0000000E+00  0.7348829E-04
  0.5101010E+00  0.0000000E+00  0.1515152E-01 -0.2287377E-05  0.0000000E+00  0.7210484E-04
  0.5202020E+00  0.0000000E+00  0.1515152E-01 -0.2845399E-05  0.0000000E+00  0.7029090E-04
  0.5303030E+00  0.0000000E+00  0.1515152E-01 -0.3250128E-05  0.0000000E+00  0.6816289E-04
  0.5404040E+00  0.0000000E+00  0.1515152E-01 -0.3529800E-05  0.0000000E+00  0.6581576E-04
  0.5505050E+00  0.0000000E+00  0.1515152E-01 -0.3710547E-05  0.0000000E+00  0.6332445E-04
  0.5606061E+00  0.0000000E+00  0.1515152E-01 -0.3814641E-05  0.0000000E+00  0.6074680E-04
  0.5707071E+00  0.0000000E+00  0.1515152E-01 -0.3860172E-05  0.0000000E+00  0.5812687E-04
  0.5808081E+00  0.0000000E+00  0.1515152E-01 -0.3861400E-05  0.0000000E+00  0.5549788E-04
  0.5909091E+00  0.0000000E+00  0.1515152E-01 -0.3829347E-05  0.0000000E+00  0.5288472E-04
  0.6010101E+00  0.0000000E+00  0.1515152E-01 -0.3772432E-05  0.0000000E+00  0.5030594E-04
  0.6111111E+00  0.0000000E+00  0.1515152E-01 -0.3697037E-05  0.0000000E+00  0.4777530E-04
  0.6212121E+00  0.0000000E+00  0.1515152E-01 -0.3607984E-05  0.0000000E+00  0.4530296E-04
  0.6313131E+00  0.0000000E+00  0.1515152E-01 -0.3508917E-05  0.0000000E+00  0.4289638E-04
  0.6414142E+00  0.0000000E+00  0.1515152E-01 -0.3402599E-05  0.0000000E+00  0.4056095E-04
  0.6515151E+00  0.0000000E+00  0.1515152E-01 -0.3291138E-05  0.0000000E+00  0.3830053E-04
  0.6616161E+00  0.0000000E+00  0.1515152E-01 -0.3176153E-05  0.0000000E+00  0.3611777E-04
  0.6717172E+00  0.0000000E+00  0.1515152E-01 -0.3058903E-05  0.0000000E+00  0.3401442E-04
  0.6818182E+00  0.0000000E+00  0.1515152E-01 -0.2940376E-05  0.0000000E+00  0.3199150E-04
  0.6919192E+00  0.0000000E+00  0.1515152E-01 -0.2821359E-05  0.0000000E+00  0.3004945E-04
  0.7020202E+00  0.0000000E+00  0.1515152E-01 -0.2702480E-05  0.0000000E+00  0.2818827E-04
  0.7121212E+00  0.0000000E+00  0.1515152E-01 -0.2584250E-05  0.0000000E+00  0.2640760E-04
  0.7222222E+00  0.0000000E+00  0.1515152E-01 -0.2467082E-05  0.0000000E+00  0.2470676E-04
  0.7323232E+00  0.0000000E+00  0.1515152E-01 -0.2351311E-05  0.0000000E+00  0.2308485E-04
  0.7424242E+00  0.0000000E+00  0.1515152E-01 -0.2237209E-05  0.0000000E+00  0.2154075E-04
  0.7525253E+00  0.0000000E+00  0.1515152E-01 -0.2124993E-05  0.0000000E+00  0.2007321E-04
  0.7626263E+00  0.0000000E+00  0.1515152E-01 -0.2014834E-05  0.0000000E+00  0.1868083E-04
  0.7727273E+00  0.0000000E+00  0.1515152E-01 -0.1906859E-05  0.0000000E+00  0.1736214E-04
  0.7828283E+00  0.0000000E+00  0.1515152E-01 -0.1801160E-05  0.0000000E+00  0.1611558E-04
  0.7929293E+00  0.0000000E+00  0.1515152E-01 -0.1697798E-05  0.0000000E+00  0.1493955E-04
  0.8030303E+00  0.0000000E+00  0.1515152E-01 -0.1596802E-05  0.0000000E+00  0.1383243E-04
  0.8131313E+00  0.0000000E+00  0.1515152E-01 -0.1498178E-05  0.0000000E+00  0.1279259E-04
  0.8232324E+00  0.0000000E+00  0.1515152E-01 -0.1401907E-05  0.0000000E+00  0.1181840E-04
  0.8333333E+00  0.0000000E+00  0.1515152E-01 -0.1307951E-05  0.0000000E+00  0.1090827E-04
  0.8434343E+00  0.0000000E+00  0.1515152E-01 -0.1216250E-05  0.0000000E+00  0.1006061E-04
  0.8535354E+00  0.0000000E+00  0.1515152E-01 -0.1126733E-05  0.0000000E+00  0.9273928E-05
  0.8636364E+00  0.0000000E+00  0.1515152E-01 -0.1039309E-05  0.0000000E+00  0.8546750E-05
  0.8737374E+00  0.0000000E+00  0.1515152E-01 -0.9538793E-06  0.0000000E+00  0.7877682E-05
  0.8838384E+00  0.0000000E+00  0.1515152E-01 -0.8703305E-06  0.0000000E+00  0.7265404E-05
  0.8939394E+00  0.0000000E+00  0.1515152E-01 -0.7885414E-06  0.0000000E+00  0.6708676E-05
  0.9040404E+00  0.0000000E+00  0.1515152E-01 -0.7083820E-06  0.0000000E+00  0.6206345E-05
  0.9141414E+00  0.0000000E+00  0.1515152E-01 -0.6297154E-06  0.0000000E+00  0.5757348E-05
  0.9242424E+00  0.0000000E+00  0.1515152E-01 -0.5523983E-06  0.0000000E+00  0.5360720E-05
  0.9343435E+00  0.0000000E+00  0.1515152E-01 -0.4762826E-06  0.0000000E+00  0.5015593E-05
  0.9444444E+00  0.0000000E+00  0.1515152E-01 -0.4012157E-06  0.0000000E+00  0.4721204E-05
  0.9545454E+00  0.0000000E+00  0.1515152E-01 -0.3270415E-06  0.0000000E+00  0.4476894E-05
  0.9646465E+00  0.0000000E+00  0.1515152E-01 -0.2536011E-06  0.0000000E+00  0.4282111E-05
  0.9747475E+00  0.0000000E+00  0.1515152E-01 -0.1807335E-06  0.0000000E+00  0.4136413E-05
  0.9848485E+00  0.0000000E+00  0.1515152E-01 -0.1082759E-06  0.0000000E+00  0.4039465E-05
  0.9974747E+00  0.0000000E+00  0.1515152E-01 -0.3606462E-07  0.0000000E+00  0.3991047E-05
  0.5050505E-02  0.0000000E+00  0.2525252E-01  0.4227765E-07  0.0000000E+00 -0.9257473E-06
  0.1515152E-01  0.0000000E+00  0.2525252E-01  0.1270207E-06  0.0000000E+00 -0.8917276E-06
  0.2525252E-01  0.0000000E+00  0.2525252E-01  0.2123287E-06  0.0000000E+00 -0.8235390E-06
  0.3535353E-01  0.0000000E+00  0.2525252E-01  0.2985837E-06  0.0000000E+00 -0.7208810E-06
  0.4545455E-01  0.0000000E+00  0.2525252E-01  0.3861758E-06  0.0000000E+00 -0.5832995E-06
  0.5555556E-01  0.0000000E+00  0.2525252E-01  0.4755062E-06  0.0000000E+00 -0.4101832E-06
  0.6565657E-01  0.0000000E+00  0.2525252E-01  0.5669895E-06  0.0000000E+00 -0.2007597E-06
  0.7575758E-01  0.0000000E+00  0.2525252E-01  0.6610515E-06  0.0000000E+00  0.4616310E-07
  0.8585858E-01  0.0000000E+00  0.2525252E-01  0.7580385E-06  0.0000000E+00  0.3318740E-06
  0.9595960E-01  0.0000000E+00  0.2525252E-01  0.8585779E-06  0.0000000E+00  0.6574836E-06
  0.1060606E+00  0.0000000E+00  0.2525252E-01  0.9631761E-06  0.0000000E+00  0.1024392E-05
  0.1161616E+00  0.0000000E+00  0.2525252E-01  0.1072381E-05  0.0000000E+00  0.1434334E-05
  0.1262626E+00  0.0000000E+00  0.2525252E-01  0.1186786E-05  0.0000000E+00  0.1889275E-05
  0.1363636E+00  0.0000000E+00  0.2525252E-01  0.1307036E-05  0.0000000E+00  0.2391426E-05
  0.1464646E+00  0.0000000E+00  0.2525252E-01  0.1433831E-05  0.0000000E+00  0.2943269E-05
  0.1565657E+00  0.0000000E+00  0.2525252E-01  0.1567942E-05  0.0000000E+00  0.3547580E-05
  0.1666667E+00  0.0000000E+00  0.2525252E-01  0.1710213E-05  0.0000000E+00  0.4207458E-05
  0.1767677E+00  0.0000000E+00  0.2525252E-01  0.1861575E-05  0.0000000E+00  0.4926359E-05
  0.1868687E+00  0.0000000E+00  0.2525252E-01  0.2023057E-05  0.0000000E+00  0.5708130E-05
  0.1969697E+00  0.0000000E+00  0.2525252E-01  0.2195793E-05  0.0000000E+00  0.6557053E-05
  0.2070707E+00  0.0000000E+00  0.2525252E-01  0.2381043E-05  0.0000000E+00  0.7477891E-05
  0.2171717E+00  0.0000000E+00  0.2525252E-01  0.2580201E-05  0.0000000E+00  0.8475939E-05
  0.2272727E+00  0.0000000E+00  0.2525252E-01  0.2794811E-05  0.0000000E+00  0.9557087E-05
  0.2373737E+00  0.0000000E+00  0.2525252E-01  0.3026583E-05  0.0000000E+00  0.1072789E-04
  0.2474747E+00  0.0000000E+00  0.2525252E-01  0.3277405E-05  0.0000000E+00  0.1199562E-04
  0.2575758E+00  0.0000000E+00  0.2525252E-01  0.3549347E-05  0.0000000E+00  0.1336839E-04
  0.2676768E+00  0.0000000E+00  0.2525252E-01  0.3844665E-05  0.0000000E+00  0.1485520E-04
  0.2777778E+00  0.0000000E+00  0.2525252E-01  0.4165783E-05  0.0000000E+00  0.1646605E-04
  0.2878788E+00  0.0000000E+00  0.2525252E-01  0.4515255E-05  0.0000000E+00  0.1821201E-04
  0.2979798E+00  0.0000000E+00  0.2525252E-01  0.4895686E-05  0.0000000E+00  0.2010535E-04
  0.3080808E+00  0.0000000E+00  0.2525252E-01  0.5309586E-05  0.0000000E+00  0.2215957E-04
  0.3181818E+00  0.0000000E+00  0.2525252E-01  0.5759131E-05  0.0000000E+00  0.2438943E-04
  0.3282828E+00  0.0000000E+00  0.2525252E-01  0.6245756E-05  0.0000000E+00  0.2681094E-04
  0.3383838E+00  0.0000000E+00  0.2525252E-01  0.6769509E-05  0.0000000E+00  0.2944115E-04
  0.3484848E+00  0.0000000E+00  0.2525252E-01  0.7328036E-05  0.0000000E+00  0.3229779E-04
  0.3585859E+00  0.0000000E+00  0.2525252E-01  0.7915020E-05  0.0000000E+00  0.3539848E-04
  0.3686869E+00  0.0000000E+00  0.2525252E-01  0.8517839E-05  0.0000000E+00  0.3875930E-04
  0.3787879E+00  0.0000000E+00  0.2525252E-01  0.9114179E-05  0.0000000E+00  0.4239228E-04
  0.3888889E+00  0.0000000E+00  0.2525252E-01  0.9667393E-05  0.0000000E+00  0.4630103E-04
  0.3989899E+00  0.0000000E+00  0.2525252E-01  0.1012070E-04  0.0000000E+00  0.5047342E-04
  0.4090909E+00  0.0000000E+00  0.2525252E-01  0.1039128E-04  0.0000000E+00  0.5486982E-04
  0.4191919E+00  0.0000000E+00  0.2525252E-01  0.1036735E-04  0.0000000E+00  0.5940558E-04
  0.4292929E+00  0.0000000E+00  0.2525252E-01  0.9915328E-05  0.0000000E+00  0.6392848E-04
  0.4393939E+00  0.0000000E+00  0.2525252E-01  0.8909404E-05  0.0000000E+00  0.6819927E-04
  0.4494950E+00  0.0000000E+00  0.2525252E-01  0.7296708E-05  0.0000000E+00  0.7189829E-04
  0.4595959E+00  0.0000000E+00  0.2525252E-01  0.5187741E-05  0.0000000E+00  0.7469632E-04
  0.4696970E+00  0.0000000E+00  0.2525252E-01  0.2882905E-05  0.0000000E+00  0.7639571E-04
  0.4797980E+00  0.0000000E+00  0.2525252E-01  0.6775418E-06  0.0000000E+00  0.7700126E-04
  0.4898990E+00  0.0000000E+00  0.2525252E-01 -0.1244104E-05  0.0000000E+00  0.7665737E-04
  0.5000000E+00  0.0000000E+00  0.2525252E-01 -0.2810624E-05  0.0000000E+00  0.7555982E-04
  0.5101010E+00  0.0000000E+00  0.2525252E-01 -0.4025220E-05  0.0000000E+00  0.7389841E-04
  0.5202020E+00  0.0000000E+00  0.2525252E-01 -0.4928261E-05  0.0000000E+00  0.7183289E-04
  0.5303030E+00  0.0000000E+00  0.2525252E-01 -0.5572568E-05  0.0000000E+00  0.6948885E-04
  0.5404040E+00  0.0000000E+00  0.2525252E-01 -0.6010234E-05  0.0000000E+00  0.6696160E-04
  0.5505050E+00  0.0000000E+00  0.2525252E-01 -0.6286918E-05  0.0000000E+00  0.6432230E-04
  0.5606061E+00  0.0000000E+00  0.2525252E-01 -0.6440226E-05  0.0000000E+00  0.6162366E-04
  0.5707071E+00  0.0000000E+00  0.2525252E-01 -0.6500011E-05  0.0000000E+00  0.5890458E-04
  0.5808081E+00  0.0000000E+00  0.2525252E-01 -0.6489438E-05  0.0000000E+00  0.5619372E-04
  0.5909091E+00  0.0000000E+00  0.2525252E-01 -0.6426220E-05  0.0000000E+00  0.5351223E-04
  0.6010101E+00  0.0000000E+00  0.2525252E-01 -0.6323782E-05  0.0000000E+00  0.5087565E-04
  0.6111111E+00  0.0000000E+00  0.2525252E-01 -0.6192250E-05  0.0000000E+00  0.4829544E-04
  0.6212121E+00  0.0000000E+00  0.2525252E-01 -0.6039248E-05  0.0000000E+00  0.4578000E-04
  0.6313131E+00  0.0000000E+00  0.2525252E-01 -0.5870526E-05  0.0000000E+00  0.4333544E-04
  0.6414142E+00  0.0000000E+00  0.2525252E-01 -0.5690445E-05  0.0000000E+00  0.4096617E-04
  0.6515151E+00  0.0000000E+00  0.2525252E-01 -0.5502331E-05  0.0000000E+00  0.3867530E-04
  0.6616161E+00  0.0000000E+00  0.2525252E-01 -0.5308747E-05  0.0000000E+00  0.3646493E-04
  0.6717172E+00  0.0000000E+00  0.2525252E-01 -0.5111692E-05  0.0000000E+00  0.3433640E-04
  0.6818182E+00  0.0000000E+00  0.2525252E-01 -0.4912740E-05  0.0000000E+00  0.3229041E-04
  0.6919192E+00  0.0000000E+00  0.2525252E-01 -0.4713149E-05  0.0000000E+00  0.3032717E-04
  0.7020202E+00  0.0000000E+00  0.2525252E-01 -0.4513931E-05  0.0000000E+00  0.2844648E-04
  0.7121212E+00  0.0000000E+00  0.2525252E-01 -0.4315908E-05  0.0000000E+00  0.2664783E-04
  0.7222222E+00  0.0000000E+00  0.2525252E-01 -0.4119751E-05  0.0000000E+00  0.2493040E-04
  0.7323232E+00  0.0000000E+00  0.2525252E-01 -0.3926006E-05  0.0000000E+00  0.2329320E-04
  0.7424242E+00  0.0000000E+00  0.2525252E-01 -0.3735116E-05  0.0000000E+00  0.2173500E-04
  0.7525253E+00  0.0000000E+00  0.2525252E-01 -0.3547434E-05  0.0000000E+00  0.2025447E-04
  0.7626263E+00  0.0000000E+00  0.2525252E-01 -0.3363236E-05  0.0000000E+00  0.1885014E-04
  0.7727273E+00  0.0000000E+00  0.2525252E-01 -0.3182733E-05  0.0000000E+00  0.1752045E-04
  0.7828283E+00  0.0000000E+00  0.2525252E-01 -0.3006074E-05  0.0000000E+00  0.1626378E-04
  0.7929293E+00  0.0000000E+00  0.2525252E-01 -0.2833354E-05  0.0000000E+00  0.1507847E-04
  0.8030303E+00  0.0000000E+00  0.2525252E-01 -0.2664621E-05  0.0000000E+00  0.1396285E-04
  0.8131313E+00  0.0000000E+00  0.2525252E-01 -0.2499879E-05  0.0000000E+00  0.1291523E-04
  0.8232324E+00  0.0000000E+00  0.2525252E-01 -0.2339094E-05  0.0000000E+00  0.1193392E-04
  0.8333333E+00  0.0000000E+00  0.2525252E-01 -0.2182199E-05  0.0000000E+00  0.1101729E-04
  0.8434343E+00  0.0000000E+00  0.2525252E-01 -0.2029095E-05  0.0000000E+00  0.1016373E-04
  0.8535354E+00  0.0000000E+00  0.2525252E-01 -0.1879655E-05  0.0000000E+00  0.9371675E-05
  0.8636364E+00  0.0000000E+00  0.2525252E-01 -0.1733731E-05  0.0000000E+00  0.8639632E-05
  0.8737374E+00  0.0000000E+00  0.2525252E-01 -0.1591152E-05  0.0000000E+00  0.7966172E-05
  0.8838384E+00  0.0000000E+00  0.2525252E-01 -0.1451728E-05  0.0000000E+00  0.7349946E-05
  0.8939394E+00  0.0000000E+00  0.2525252E-01 -0.1315254E-05  0.0000000E+00  0.6789687E-05
  0.9040404E+00  0.0000000E+00  0.2525252E-01 -0.1181513E-05  0.0000000E+00  0.6284216E-05
  0.9141414E+00  0.0000000E+00  0.2525252E-01 -0.1050274E-05  0.0000000E+00  0.5832451E-05
  0.9242424E+00  0.0000000E+00  0.2525252E-01 -0.9212958E-06  0.0000000E+00  0.5433407E-05
  0.9343435E+00  0.0000000E+00  0.2525252E-01 -0.7943309E-06  0.0000000E+00  0.5086201E-05
  0.9444444E+00  0.0000000E+00  0.2525252E-01 -0.6691232E-06  0.0000000E+00  0.4790054E-05
  0.9545454E+00  0.0000000E+00  0.2525252E-01 -0.5454109E-06  0.0000000E+00  0.4544297E-05
  0.9646465E+00  0.0000000E+00  0.2525252E-01 -0.4229279E-06  0.0000000E+00  0.4348368E-05
  0.9747475E+00  0.0000000E+00  0.2525252E-01 -0.3014042E-06  0.0000000E+00  0.4201815E-05
  0.9848485E+00  0.0000000E+00  0.2525252E-01 -0.1805675E-06  0.0000000E+00  0.4104302E-05
  0.9974747E+00  0.0000000E+00  0.2525252E-01 -0.6014330E-07  0.0000000E+00  0.4055601E-05
  0.5050505E-02  0.0000000E+00  0.3535353E-01  0.5917389E-07  0.0000000E+00 -0.8609611E-06
  0.1515152E-01  0.0000000E+00  0.3535353E-01  0.1777837E-06  0.0000000E+00 -0.8268235E-06
  0.2525252E-01  0.0000000E+00  0.3535353E-01  0.2971817E-06  0.0000000E+00 -0.7584003E-06
  0.3535353E-01  0.0000000E+00  0.3535353E-01  0.4179011E-06  0.0000000E+00 -0.6553932E-06
  0.4545455E-01  0.0000000E+00  0.3535353E-01  0.5404863E-06  0.0000000E+00 -0.5173510E-06
  0.5555556E-01  0.0000000E+00  0.3535353E-01  0.6654976E-06  0.0000000E+00 -0.3436653E-06
  0.6565657E-01  0.0000000E+00  0.3535353E-01  0.7935178E-06  0.0000000E+00 -0.1335598E-06
  0.7575758E-01  0.0000000E+00  0.3535353E-01  0.9250608E-06  0.0000000E+00  0.1142048E-06
  0.8585858E-01  0.0000000E+00  0.3535353E-01  0.1060765E-05  0.0000000E+00  0.4008167E-06
  0.9595960E-01  0.0000000E+00  0.3535353E-01  0.1201414E-05  0.0000000E+00  0.7273248E-06
  0.1060606E+00  0.0000000E+00  0.3535353E-01  0.1347718E-05  0.0000000E+00  0.1095201E-05
  0.1161616E+00  0.0000000E+00  0.3535353E-01  0.1500440E-05  0.0000000E+00  0.1506160E-05
  0.1262626E+00  0.0000000E+00  0.3535353E-01  0.1660409E-05  0.0000000E+00  0.1962147E-05
  0.1363636E+00  0.0000000E+00  0.3535353E-01  0.1828520E-05  0.0000000E+00  0.2465349E-05
  0.1464646E+00  0.0000000E+00  0.3535353E-01  0.2005752E-05  0.0000000E+00  0.3018224E-05
  0.1565657E+00  0.0000000E+00  0.3535353E-01  0.2193174E-05  0.0000000E+00  0.3623515E-05
  0.1666667E+00  0.0000000E+00  0.3535353E-01  0.2391962E-05  0.0000000E+00  0.4284287E-05
  0.1767677E+00  0.0000000E+00  0.3535353E-01  0.2603413E-05  0.0000000E+00  0.5003956E-05
  0.1868687E+00  0.0000000E+00  0.3535353E-01  0.2828957E-05  0.0000000E+00  0.5786322E-05
  0.1969697E+00  0.0000000E+00  0.3535353E-01  0.3070174E-05  0.0000000E+00  0.6635615E-05
  0.2070707E+00  0.0000000E+00  0.3535353E-01  0.3328818E-05  0.0000000E+00  0.7556538E-05
  0.2171717E+00  0.0000000E+00  0.3535353E-01  0.3606832E-05  0.0000000E+00  0.8554323E-05
  0.2272727E+00  0.0000000E+00  0.3535353E-01  0.3906374E-05  0.0000000E+00  0.9634788E-05
  0.2373737E+00  0.0000000E+00  0.3535353E-01  0.4229838E-05  0.0000000E+00  0.1080441E-04
  0.2474747E+00  0.0000000E+00  0.3535353E-01  0.4579871E-05  0.0000000E+00  0.1207041E-04
  0.2575758E+00  0.0000000E+00  0.3535353E-01  0.4959395E-05  0.0000000E+00  0.1344082E-04
  0.2676768E+00  0.0000000E+00  0.3535353E-01  0.5371612E-05  0.0000000E+00  0.1492462E-04
  0.2777778E+00  0.0000000E+00  0.3535353E-01  0.5819997E-05  0.0000000E+00  0.1653180E-04
  0.2878788E+00  0.0000000E+00  0.3535353E-01  0.6308267E-05  0.0000000E+00  0.1827357E-04
  0.2979798E+00  0.0000000E+00  0.3535353E-01  0.6840302E-05  0.0000000E+00  0.2016240E-04