title = "dataset water"
variables = "x", "y", "z", "vx", "vy", "vz"
zone t = "velocities, solution time =  6.000E+00 days        " i =   99, j =   99, k =    1,  f=point
  0.5050505E-02  0.0000000E+00  0.5050505E-02 -0.4106575E-12  0.0000000E+00 -0.1350017E-03
  0.1515152E-01  0.0000000E+00  0.5050505E-02 -0.5132116E-12  0.0000000E+00 -0.1350017E-03
  0.2525252E-01  0.0000000E+00  0.5050505E-02 -0.5808740E-12  0.0000000E+00 -0.1350017E-03
  0.3535353E-01  0.0000000E+00  0.5050505E-02 -0.1299546E-12  0.0000000E+00 -0.1350017E-03
  0.4545455E-01  0.0000000E+00  0.5050505E-02 -0.4266134E-12  0.0000000E+00 -0.1350017E-03
  0.5555556E-01  0.0000000E+00  0.5050505E-02 -0.6893413E-12  0.0000000E+00 -0.1350017E-03
  0.6565657E-01  0.0000000E+00  0.5050505E-02 -0.7586263E-12  0.0000000E+00 -0.1350017E-03
  0.7575758E-01  0.0000000E+00  0.5050505E-02 -0.7932762E-12  0.0000000E+00 -0.1350017E-03
  0.8585858E-01  0.0000000E+00  0.5050505E-02 -0.8639694E-12  0.0000000E+00 -0.1350017E-03
  0.9595960E-01  0.0000000E+00  0.5050505E-02 -0.9502240E-12  0.0000000E+00 -0.1350017E-03
  0.1060606E+00  0.0000000E+00  0.5050505E-02 -0.1008300E-11  0.0000000E+00 -0.1350017E-03
  0.1161616E+00  0.0000000E+00  0.5050505E-02 -0.1015358E-11  0.0000000E+00 -0.1350017E-03
  0.1262626E+00  0.0000000E+00  0.5050505E-02 -0.9621777E-12  0.0000000E+00 -0.1350017E-03
  0.1363636E+00  0.0000000E+00  0.5050505E-02 -0.8567327E-12  0.0000000E+00 -0.1350017E-03
  0.1464646E+00  0.0000000E+00  0.5050505E-02 -0.7223157E-12  0.0000000E+00 -0.1350017E-03
  0.1565657E+00  0.0000000E+00  0.5050505E-02 -0.5567334E-12  0.0000000E+00 -0.1350017E-03
  0.1666667E+00  0.0000000E+00  0.5050505E-02 -0.4525717E-12  0.0000000E+00 -0.1350017E-03
  0.1767677E+00  0.0000000E+00  0.5050505E-02 -0.3245344E-12  0.0000000E+00 -0.1350017E-03
  0.1868687E+00  0.0000000E+00  0.5050505E-02 -0.8845405E-13  0.0000000E+00 -0.1350017E-03
  0.1969697E+00  0.0000000E+00  0.5050505E-02  0.1411489E-12  0.0000000E+00 -0.1350017E-03
  0.2070707E+00  0.0000000E+00  0.5050505E-02 -0.5500503E-12  0.0000000E+00 -0.1350017E-03
  0.2171717E+00  0.0000000E+00  0.5050505E-02  0.2555040E-12  0.0000000E+00 -0.1350017E-03
  0.2272727E+00  0.0000000E+00  0.5050505E-02  0.8982100E-12  0.0000000E+00 -0.1350017E-03
  0.2373737E+00  0.0000000E+00  0.5050505E-02  0.4286007E-13  0.0000000E+00 -0.1350017E-03
  0.2474747E+00  0.0000000E+00  0.5050505E-02 -0.1205630E-12  0.0000000E+00 -0.1350017E-03
  0.2575758E+00  0.0000000E+00  0.5050505E-02  0.3612289E-12  0.0000000E+00 -0.1350017E-03
  0.2676768E+00  0.0000000E+00  0.5050505E-02  0.4127042E-12  0.0000000E+00 -0.1350017E-03
  0.2777778E+00  0.0000000E+00  0.5050505E-02  0.3869284E-12  0.0000000E+00 -0.1350017E-03
  0.2878788E+00  0.0000000E+00  0.5050505E-02  0.3861479E-12  0.0000000E+00 -0.1350017E-03
  0.2979798E+00  0.0000000E+00  0.5050505E-02  0.2483967E-12  0.0000000E+00 -0.1350017E-03
  0.3080808E+00  0.0000000E+00  0.5050505E-02  0.2388652E-12  0.0000000E+00 -0.1350017E-03
  0.3181818E+00  0.0000000E+00  0.5050505E-02  0.2099864E-12  0.0000000E+00 -0.1350017E-03
  0.3282828E+00  0.0000000E+00  0.5050505E-02  0.1749250E-12  0.0000000E+00 -0.1350017E-03
  0.3383838E+00  0.0000000E+00  0.5050505E-02  0.6251488E-13  0.0000000E+00 -0.1350017E-03
  0.3484848E+00  0.0000000E+00  0.5050505E-02 -0.5472040E-14  0.0000000E+00 -0.1350017E-03
  0.3585859E+00  0.0000000E+00  0.5050505E-02  0.3293277E-12  0.0000000E+00 -0.1350017E-03
  0.3686869E+00  0.0000000E+00  0.5050505E-02 -0.4555389E-12  0.0000000E+00 -0.1350017E-03
  0.3787879E+00  0.0000000E+00  0.5050505E-02 -0.5595479E-13  0.0000000E+00 -0.1350017E-03
  0.3888889E+00  0.0000000E+00  0.5050505E-02  0.1080749E-12  0.0000000E+00 -0.1350017E-03
  0.3989899E+00  0.0000000E+00  0.5050505E-02 -0.6343834E-12  0.0000000E+00 -0.1350017E-03
  0.4090909E+00  0.0000000E+00  0.5050505E-02 -0.5417532E-13  0.0000000E+00 -0.1350017E-03
  0.4191919E+00  0.0000000E+00  0.5050505E-02  0.2212486E-12  0.0000000E+00 -0.1350017E-03
  0.4292929E+00  0.0000000E+00  0.5050505E-02 -0.4962462E-12  0.0000000E+00 -0.1350017E-03
  0.4393939E+00  0.0000000E+00  0.5050505E-02  0.5783607E-13  0.0000000E+00 -0.1350017E-03
  0.4494950E+00  0.0000000E+00  0.5050505E-02 -0.8239450E-13  0.0000000E+00 -0.1350017E-03
  0.4595959E+00  0.0000000E+00  0.5050505E-02 -0.2777463E-12  0.0000000E+00 -0.1350017E-03
  0.4696970E+00  0.0000000E+00  0.5050505E-02 -0.1921641E-12  0.0000000E+00 -0.1350017E-03
  0.4797980E+00  0.0000000E+00  0.5050505E-02  0.1093708E-12  0.0000000E+00 -0.1350017E-03
  0.4898990E+00  0.0000000E+00  0.5050505E-02 -0.2350644E-12  0.0000000E+00 -0.1350017E-03
  0.5000000E+00  0.0000000E+00  0.5050505E-02 -0.6047029E-13  0.0000000E+00 -0.1350017E-03
  0.5101010E+00  0.0000000E+00  0.5050505E-02  0.4648222E-12  0.0000000E+00 -0.1350017E-03
  0.5202020E+00  0.0000000E+00  0.5050505E-02  0.6246991E-12  0.0000000E+00 -0.1350017E-03
  0.5303030E+00  0.0000000E+00  0.5050505E-02  0.5630751E-12  0.0000000E+00 -0.1350017E-03
  0.5404040E+00  0.0000000E+00  0.5050505E-02  0.6030719E-12  0.0000000E+00 -0.1350017E-03
  0.5505050E+00  0.0000000E+00  0.5050505E-02  0.7033269E-12  0.0000000E+00 -0.1350017E-03
  0.5606061E+00  0.0000000E+00  0.5050505E-02  0.8240575E-12  0.0000000E+00 -0.1350017E-03
  0.5707071E+00  0.0000000E+00  0.5050505E-02  0.9115677E-12  0.0000000E+00 -0.1350017E-03
  0.5808081E+00  0.0000000E+00  0.5050505E-02  0.9341155E-12  0.0000000E+00 -0.1350017E-03
  0.5909091E+00  0.0000000E+00  0.5050505E-02  0.8953382E-12  0.0000000E+00 -0.1350017E-03
  0.6010101E+00  0.0000000E+00  0.5050505E-02  0.8087421E-12  0.0000000E+00 -0.1350017E-03
  0.6111111E+00  0.0000000E+00  0.5050505E-02  0.6869404E-12  0.0000000E+00 -0.1350017E-03
  0.6212121E+00  0.0000000E+00  0.5050505E-02  0.5424870E-12  0.0000000E+00 -0.1350017E-03
  0.6313131E+00  0.0000000E+00  0.5050505E-02  0.3893972E-12  0.0000000E+00 -0.1350017E-03
  0.6414142E+00  0.0000000E+00  0.5050505E-02  0.2410667E-12  0.0000000E+00 -0.1350017E-03
  0.6515151E+00  0.0000000E+00  0.5050505E-02  0.1057440E-12  0.0000000E+00 -0.1350017E-03
  0.6616161E+00  0.0000000E+00  0.5050505E-02 -0.1682122E-13  0.0000000E+00 -0.1350017E-03
  0.6717172E+00  0.0000000E+00  0.5050505E-02 -0.1244295E-12  0.0000000E+00 -0.1350017E-03
  0.6818182E+00  0.0000000E+00  0.5050505E-02 -0.2038653E-12  0.0000000E+00 -0.1350017E-03
  0.6919192E+00  0.0000000E+00  0.5050505E-02 -0.3766948E-12  0.0000000E+00 -0.1350017E-03
  0.7020202E+00  0.0000000E+00  0.5050505E-02 -0.4114911E-12  0.0000000E+00 -0.1350017E-03
  0.7121212E+00  0.0000000E+00  0.5050505E-02 -0.1135554E-13  0.0000000E+00 -0.1350017E-03
  0.7222222E+00  0.0000000E+00  0.5050505E-02 -0.8912660E-12  0.0000000E+00 -0.1350017E-03
  0.7323232E+00  0.0000000E+00  0.5050505E-02 -0.6903445E-12  0.0000000E+00 -0.1350017E-03
  0.7424242E+00  0.0000000E+00  0.5050505E-02 -0.6169365E-12  0.0000000E+00 -0.1350017E-03
  0.7525253E+00  0.0000000E+00  0.5050505E-02 -0.6853730E-12  0.0000000E+00 -0.1350017E-03
  0.7626263E+00  0.0000000E+00  0.5050505E-02 -0.7069282E-12  0.0000000E+00 -0.1350017E-03
  0.7727273E+00  0.0000000E+00  0.5050505E-02 -0.7079844E-12  0.0000000E+00 -0.1350017E-03
  0.7828283E+00  0.0000000E+00  0.5050505E-02 -0.6987880E-12  0.0000000E+00 -0.1350017E-03
  0.7929293E+00  0.0000000E+00  0.5050505E-02 -0.6571814E-12  0.0000000E+00 -0.1350017E-03
  0.8030303E+00  0.0000000E+00  0.5050505E-02 -0.5810798E-12  0.0000000E+00 -0.1350017E-03
  0.8131313E+00  0.0000000E+00  0.5050505E-02 -0.4987213E-12  0.0000000E+00 -0.1350017E-03
  0.8232324E+00  0.0000000E+00  0.5050505E-02 -0.4135229E-12  0.0000000E+00 -0.1350017E-03
  0.8333333E+00  0.0000000E+00  0.5050505E-02 -0.3571821E-12  0.0000000E+00 -0.1350017E-03
  0.8434343E+00  0.0000000E+00  0.5050505E-02 -0.1383345E-12  0.0000000E+00 -0.1350017E-03
  0.8535354E+00  0.0000000E+00  0.5050505E-02  0.1693300E-12  0.0000000E+00 -0.1350017E-03
  0.8636364E+00  0.0000000E+00  0.5050505E-02 -0.2728660E-12  0.0000000E+00 -0.1350017E-03
  0.8737374E+00  0.0000000E+00  0.5050505E-02 -0.4502641E-12  0.0000000E+00 -0.1350017E-03
  0.8838384E+00  0.0000000E+00  0.5050505E-02  0.3760882E-12  0.0000000E+00 -0.1350017E-03
  0.8939394E+00  0.0000000E+00  0.5050505E-02  0.8509171E-12  0.0000000E+00 -0.1350017E-03
  0.9040404E+00  0.0000000E+00  0.5050505E-02  0.1410577E-12  0.0000000E+00 -0.1350017E-03
  0.9141414E+00  0.0000000E+00  0.5050505E-02  0.1120050E-12  0.0000000E+00 -0.1350017E-03
  0.9242424E+00  0.0000000E+00  0.5050505E-02  0.3863133E-12  0.0000000E+00 -0.1350017E-03
  0.9343435E+00  0.0000000E+00  0.5050505E-02  0.5421859E-12  0.0000000E+00 -0.1350017E-03
  0.9444444E+00  0.0000000E+00  0.5050505E-02  0.5704835E-12  0.0000000E+00 -0.1350017E-03
  0.9545454E+00  0.0000000E+00  0.5050505E-02  0.2069980E-12  0.0000000E+00 -0.1350017E-03
  0.9646465E+00  0.0000000E+00  0.5050505E-02  0.1727489E-12  0.0000000E+00 -0.1350017E-03
  0.9747475E+00  0.0000000E+00  0.5050505E-02  0.7132911E-12  0.0000000E+00 -0.1350017E-03
  0.9848485E+00  0.0000000E+00  0.5050505E-02  0.2734111E-13  0.0000000E+00 -0.1350017E-03
  0.9974747E+00  0.0000000E+00  0.5050505E-02 -0.7680221E-12  0.0000000E+00 -0.1350017E-03
  0.5050505E-02  0.0000000E+00  0.1515152E-01 -0.9703693E-12  0.0000000E+00 -0.1337130E-03
  0.1515152E-01  0.0000000E+00  0.1515152E-01 -0.1180313E-11  0.0000000E+00 -0.1337130E-03
  0.2525252E-01  0.0000000E+00  0.1515152E-01 -0.1546809E-11  0.0000000E+00 -0.1337130E-03
  0.3535353E-01  0.0000000E+00  0.1515152E-01 -0.5203135E-12  0.0000000E+00 -0.1337130E-03
  0.4545455E-01  0.0000000E+00  0.1515152E-01 -0.1300369E-11  0.0000000E+00 -0.1337130E-03
  0.5555556E-01  0.0000000E+00  0.1515152E-01 -0.2004888E-11  0.0000000E+00 -0.1337130E-03
  0.6565657E-01  0.0000000E+00  0.1515152E-01 -0.2234655E-11  0.0000000E+00 -0.1337130E-03
  0.7575758E-01  0.0000000E+00  0.1515152E-01 -0.2377616E-11  0.0000000E+00 -0.1337130E-03
  0.8585858E-01  0.0000000E+00  0.1515152E-01 -0.2604048E-11  0.0000000E+00 -0.1337130E-03
  0.9595960E-01  0.0000000E+00  0.1515152E-01 -0.2852817E-11  0.0000000E+00 -0.1337130E-03
  0.1060606E+00  0.0000000E+00  0.1515152E-01 -0.3006577E-11  0.0000000E+00 -0.1337130E-03
  0.1161616E+00  0.0000000E+00  0.1515152E-01 -0.3015036E-11  0.0000000E+00 -0.1337130E-03
  0.1262626E+00  0.0000000E+00  0.1515152E-01 -0.2861717E-11  0.0000000E+00 -0.1337130E-03
  0.1363636E+00  0.0000000E+00  0.1515152E-01 -0.2545809E-11  0.0000000E+00 -0.1337130E-03
  0.1464646E+00  0.0000000E+00  0.1515152E-01 -0.2121885E-11  0.0000000E+00 -0.1337130E-03
  0.1565657E+00  0.0000000E+00  0.1515152E-01 -0.1663302E-11  0.0000000E+00 -0.1337130E-03
  0.1666667E+00  0.0000000E+00  0.1515152E-01 -0.1293145E-11  0.0000000E+00 -0.1337130E-03
  0.1767677E+00  0.0000000E+00  0.1515152E-01 -0.1041707E-11  0.0000000E+00 -0.1337130E-03
  0.1868687E+00  0.0000000E+00  0.1515152E-01 -0.4993744E-12  0.0000000E+00 -0.1337130E-03
  0.1969697E+00  0.0000000E+00  0.1515152E-01  0.8555189E-12  0.0000000E+00 -0.1337130E-03
  0.2070707E+00  0.0000000E+00  0.1515152E-01 -0.1205291E-11  0.0000000E+00 -0.1337130E-03
  0.2171717E+00  0.0000000E+00  0.1515152E-01 -0.8036952E-13  0.0000000E+00 -0.1337130E-03
  0.2272727E+00  0.0000000E+00  0.1515152E-01  0.2345240E-11  0.0000000E+00 -0.1337130E-03
  0.2373737E+00  0.0000000E+00  0.1515152E-01  0.9686236E-12  0.0000000E+00 -0.1337130E-03
  0.2474747E+00  0.0000000E+00  0.1515152E-01 -0.6764428E-13  0.0000000E+00 -0.1337130E-03
  0.2575758E+00  0.0000000E+00  0.1515152E-01  0.5890536E-12  0.0000000E+00 -0.1337130E-03
  0.2676768E+00  0.0000000E+00  0.1515152E-01  0.9874826E-12  0.0000000E+00 -0.1337130E-03
  0.2777778E+00  0.0000000E+00  0.1515152E-01  0.1259573E-11  0.0000000E+00 -0.1337130E-03
  0.2878788E+00  0.0000000E+00  0.1515152E-01  0.1234920E-11  0.0000000E+00 -0.1337130E-03
  0.2979798E+00  0.0000000E+00  0.1515152E-01  0.6674875E-12  0.0000000E+00 -0.1337130E-03
  0.3080808E+00  0.0000000E+00  0.1515152E-01  0.6570018E-12  0.0000000E+00 -0.1337130E-03
  0.3181818E+00  0.0000000E+00  0.1515152E-01  0.7067050E-12  0.0000000E+00 -0.1337130E-03
  0.3282828E+00  0.0000000E+00  0.1515152E-01  0.5612631E-12  0.0000000E+00 -0.1337130E-03
  0.3383838E+00  0.0000000E+00  0.1515152E-01  0.1585917E-12  0.0000000E+00 -0.1337130E-03
  0.3484848E+00  0.0000000E+00  0.1515152E-01 -0.3730366E-12  0.0000000E+00 -0.1337130E-03
  0.3585859E+00  0.0000000E+00  0.1515152E-01  0.1186629E-11  0.0000000E+00 -0.1337130E-03
  0.3686869E+00  0.0000000E+00  0.1515152E-01 -0.1192533E-11  0.0000000E+00 -0.1337130E-03
  0.3787879E+00  0.0000000E+00  0.1515152E-01 -0.3269977E-12  0.0000000E+00 -0.1337130E-03
  0.3888889E+00  0.0000000E+00  0.1515152E-01  0.5054158E-12  0.0000000E+00 -0.1337130E-03
  0.3989899E+00  0.0000000E+00  0.1515152E-01 -0.1528664E-11  0.0000000E+00 -0.1337130E-03
  0.4090909E+00  0.0000000E+00  0.1515152E-01 -0.5768365E-12  0.0000000E+00 -0.1337130E-03
  0.4191919E+00  0.0000000E+00  0.1515152E-01  0.5485584E-12  0.0000000E+00 -0.1337130E-03
  0.4292929E+00  0.0000000E+00  0.1515152E-01 -0.1296083E-11  0.0000000E+00 -0.1337130E-03
  0.4393939E+00  0.0000000E+00  0.1515152E-01  0.3778819E-13  0.0000000E+00 -0.1337130E-03
  0.4494950E+00  0.0000000E+00  0.1515152E-01 -0.1601706E-12  0.0000000E+00 -0.1337130E-03
  0.4595959E+00  0.0000000E+00  0.1515152E-01 -0.7772092E-12  0.0000000E+00 -0.1337130E-03
  0.4696970E+00  0.0000000E+00  0.1515152E-01 -0.8362128E-12  0.0000000E+00 -0.1337130E-03
  0.4797980E+00  0.0000000E+00  0.1515152E-01  0.4102760E-12  0.0000000E+00 -0.1337130E-03
  0.4898990E+00  0.0000000E+00  0.1515152E-01 -0.2145094E-12  0.0000000E+00 -0.1337130E-03
  0.5000000E+00  0.0000000E+00  0.1515152E-01 -0.2301800E-12  0.0000000E+00 -0.1337130E-03
  0.5101010E+00  0.0000000E+00  0.1515152E-01  0.1051304E-11  0.0000000E+00 -0.1337130E-03
  0.5202020E+00  0.0000000E+00  0.1515152E-01  0.1731031E-11  0.0000000E+00 -0.1337130E-03
  0.5303030E+00  0.0000000E+00  0.1515152E-01  0.1818360E-11  0.0000000E+00 -0.1337130E-03
  0.5404040E+00  0.0000000E+00  0.1515152E-01  0.1872849E-11  0.0000000E+00 -0.1337130E-03
  0.5505050E+00  0.0000000E+00  0.1515152E-01  0.2133520E-11  0.0000000E+00 -0.1337130E-03
  0.5606061E+00  0.0000000E+00  0.1515152E-01  0.2476111E-11  0.0000000E+00 -0.1337130E-03
  0.5707071E+00  0.0000000E+00  0.1515152E-01  0.2729674E-11  0.0000000E+00 -0.1337130E-03
  0.5808081E+00  0.0000000E+00  0.1515152E-01  0.2790323E-11  0.0000000E+00 -0.1337130E-03
  0.5909091E+00  0.0000000E+00  0.1515152E-01  0.2661806E-11  0.0000000E+00 -0.1337130E-03
  0.6010101E+00  0.0000000E+00  0.1515152E-01  0.2392316E-11  0.0000000E+00 -0.1337130E-03
  0.6111111E+00  0.0000000E+00  0.1515152E-01  0.2027578E-11  0.0000000E+00 -0.1337130E-03
  0.6212121E+00  0.0000000E+00  0.1515152E-01  0.1601909E-11  0.0000000E+00 -0.1337130E-03
  0.6313131E+00  0.0000000E+00  0.1515152E-01  0.1147084E-11  0.0000000E+00 -0.1337130E-03
  0.6414142E+00  0.0000000E+00  0.1515152E-01  0.7001157E-12  0.0000000E+00 -0.1337130E-03
  0.6515151E+00  0.0000000E+00  0.1515152E-01  0.2974894E-12  0.0000000E+00 -0.1337130E-03
  0.6616161E+00  0.0000000E+00  0.1515152E-01 -0.5328305E-13  0.0000000E+00 -0.1337130E-03
  0.6717172E+00  0.0000000E+00  0.1515152E-01 -0.3732090E-12  0.0000000E+00 -0.1337130E-03
  0.6818182E+00  0.0000000E+00  0.1515152E-01 -0.5777458E-12  0.0000000E+00 -0.1337130E-03
  0.6919192E+00  0.0000000E+00  0.1515152E-01 -0.1082875E-11  0.0000000E+00 -0.1337130E-03
  0.7020202E+00  0.0000000E+00  0.1515152E-01 -0.1529406E-11  0.0000000E+00 -0.1337130E-03
  0.7121212E+00  0.0000000E+00  0.1515152E-01 -0.1226880E-12  0.0000000E+00 -0.1337130E-03
  0.7222222E+00  0.0000000E+00  0.1515152E-01 -0.2106571E-11  0.0000000E+00 -0.1337130E-03
  0.7323232E+00  0.0000000E+00  0.1515152E-01 -0.2064077E-11  0.0000000E+00 -0.1337130E-03
  0.7424242E+00  0.0000000E+00  0.1515152E-01 -0.2068855E-11  0.0000000E+00 -0.1337130E-03
  0.7525253E+00  0.0000000E+00  0.1515152E-01 -0.2103082E-11  0.0000000E+00 -0.1337130E-03
  0.7626263E+00  0.0000000E+00  0.1515152E-01 -0.2101568E-11  0.0000000E+00 -0.1337130E-03
  0.7727273E+00  0.0000000E+00  0.1515152E-01 -0.2094847E-11  0.0000000E+00 -0.1337130E-03
  0.7828283E+00  0.0000000E+00  0.1515152E-01 -0.2080753E-11  0.0000000E+00 -0.1337130E-03
  0.7929293E+00  0.0000000E+00  0.1515152E-01 -0.1980009E-11  0.0000000E+00 -0.1337130E-03
  0.8030303E+00  0.0000000E+00  0.1515152E-01 -0.1736518E-11  0.0000000E+00 -0.1337130E-03
  0.8131313E+00  0.0000000E+00  0.1515152E-01 -0.1397105E-11  0.0000000E+00 -0.1337130E-03
  0.8232324E+00  0.0000000E+00  0.1515152E-01 -0.1109818E-11  0.0000000E+00 -0.1337130E-03
  0.8333333E+00  0.0000000E+00  0.1515152E-01 -0.1097361E-11  0.0000000E+00 -0.1337130E-03
  0.8434343E+00  0.0000000E+00  0.1515152E-01 -0.9077142E-12  0.0000000E+00 -0.1337130E-03
  0.8535354E+00  0.0000000E+00  0.1515152E-01  0.4883124E-12  0.0000000E+00 -0.1337130E-03
  0.8636364E+00  0.0000000E+00  0.1515152E-01  0.1778535E-12  0.0000000E+00 -0.1337130E-03
  0.8737374E+00  0.0000000E+00  0.1515152E-01 -0.1150298E-11  0.0000000E+00 -0.1337130E-03
  0.8838384E+00  0.0000000E+00  0.1515152E-01  0.5737223E-13  0.0000000E+00 -0.1337130E-03
  0.8939394E+00  0.0000000E+00  0.1515152E-01  0.2219531E-11  0.0000000E+00 -0.1337130E-03
  0.9040404E+00  0.0000000E+00  0.1515152E-01  0.8853481E-12  0.0000000E+00 -0.1337130E-03
  0.9141414E+00  0.0000000E+00  0.1515152E-01  0.6741989E-12  0.0000000E+00 -0.1337130E-03
  0.9242424E+00  0.0000000E+00  0.1515152E-01  0.1009927E-11  0.0000000E+00 -0.1337130E-03
  0.9343435E+00  0.0000000E+00  0.1515152E-01  0.1434191E-11  0.0000000E+00 -0.1337130E-03
  0.9444444E+00  0.0000000E+00  0.1515152E-01  0.2023157E-11  0.0000000E+00 -0.1337130E-03
  0.9545454E+00  0.0000000E+00  0.1515152E-01  0.9628240E-12  0.0000000E+00 -0.1337130E-03
  0.9646465E+00  0.0000000E+00  0.1515152E-01 -0.1320493E-13  0.0000000E+00 -0.1337130E-03
  0.9747475E+00  0.0000000E+00  0.1515152E-01  0.1747082E-11  0.0000000E+00 -0.1337130E-03
  0.9848485E+00  0.0000000E+00  0.1515152E-01  0.8292801E-12  0.0000000E+00 -0.1337130E-03
  0.9974747E+00  0.0000000E+00  0.1515152E-01 -0.8753660E-12  0.0000000E+00 -0.1337130E-03
  0.5050505E-02  0.0000000E+00  0.2525252E-01 -0.1239075E-11  0.0000000E+00 -0.1311886E-03
  0.1515152E-01  0.0000000E+00  0.2525252E-01 -0.1405659E-11  0.0000000E+00 -0.1311886E-03
  0.2525252E-01  0.0000000E+00  0.2525252E-01 -0.2211932E-11  0.0000000E+00 -0.1311886E-03
  0.3535353E-01  0.0000000E+00  0.2525252E-01 -0.1018966E-11  0.0000000E+00 -0.1311886E-03
  0.4545455E-01  0.0000000E+00  0.2525252E-01 -0.2164753E-11  0.0000000E+00 -0.1311886E-03
  0.5555556E-01  0.0000000E+00  0.2525252E-01 -0.3218096E-11  0.0000000E+00 -0.1311886E-03
  0.6565657E-01  0.0000000E+00  0.2525252E-01 -0.3639337E-11  0.0000000E+00 -0.1311886E-03
  0.7575758E-01  0.0000000E+00  0.2525252E-01 -0.3933001E-11  0.0000000E+00 -0.1311886E-03
  0.8585858E-01  0.0000000E+00  0.2525252E-01 -0.4328630E-11  0.0000000E+00 -0.1311886E-03
  0.9595960E-01  0.0000000E+00  0.2525252E-01 -0.4730786E-11  0.0000000E+00 -0.1311886E-03
  0.1060606E+00  0.0000000E+00  0.2525252E-01 -0.4954452E-11  0.0000000E+00 -0.1311886E-03
  0.1161616E+00  0.0000000E+00  0.2525252E-01 -0.4931460E-11  0.0000000E+00 -0.1311886E-03
  0.1262626E+00  0.0000000E+00  0.2525252E-01 -0.4675350E-11  0.0000000E+00 -0.1311886E-03
  0.1363636E+00  0.0000000E+00  0.2525252E-01 -0.4166426E-11  0.0000000E+00 -0.1311886E-03
  0.1464646E+00  0.0000000E+00  0.2525252E-01 -0.3482551E-11  0.0000000E+00 -0.1311886E-03
  0.1565657E+00  0.0000000E+00  0.2525252E-01 -0.2741967E-11  0.0000000E+00 -0.1311886E-03
  0.1666667E+00  0.0000000E+00  0.2525252E-01 -0.1963089E-11  0.0000000E+00 -0.1311886E-03
  0.1767677E+00  0.0000000E+00  0.2525252E-01 -0.1671596E-11  0.0000000E+00 -0.1311886E-03
  0.1868687E+00  0.0000000E+00  0.2525252E-01 -0.1420898E-11  0.0000000E+00 -0.1311886E-03
  0.1969697E+00  0.0000000E+00  0.2525252E-01  0.1778669E-11  0.0000000E+00 -0.1311886E-03
  0.2070707E+00  0.0000000E+00  0.2525252E-01 -0.4730241E-12  0.0000000E+00 -0.1311886E-03
  0.2171717E+00  0.0000000E+00  0.2525252E-01 -0.1422369E-11  0.0000000E+00 -0.1311886E-03
  0.2272727E+00  0.0000000E+00  0.2525252E-01  0.2275892E-11  0.0000000E+00 -0.1311886E-03
  0.2373737E+00  0.0000000E+00  0.2525252E-01  0.2756550E-11  0.0000000E+00 -0.1311886E-03
  0.2474747E+00  0.0000000E+00  0.2525252E-01  0.1355836E-11  0.0000000E+00 -0.1311886E-03
  0.2575758E+00  0.0000000E+00  0.2525252E-01  0.4146857E-12  0.0000000E+00 -0.1311886E-03
  0.2676768E+00  0.0000000E+00  0.2525252E-01  0.9811903E-12  0.0000000E+00 -0.1311886E-03
  0.2777778E+00  0.0000000E+00  0.2525252E-01  0.1853615E-11  0.0000000E+00 -0.1311886E-03
  0.2878788E+00  0.0000000E+00  0.2525252E-01  0.2220592E-11  0.0000000E+00 -0.1311886E-03
  0.2979798E+00  0.0000000E+00  0.2525252E-01  0.1047578E-11  0.0000000E+00 -0.1311886E-03
  0.3080808E+00  0.0000000E+00  0.2525252E-01  0.9400796E-12  0.0000000E+00 -0.1311886E-03
  0.3181818E+00  0.0000000E+00  0.2525252E-01  0.1073660E-11  0.0000000E+00 -0.1311886E-03
  0.3282828E+00  0.0000000E+00  0.2525252E-01  0.1014046E-11  0.0000000E+00 -0.1311886E-03
  0.3383838E+00  0.0000000E+00  0.2525252E-01  0.5240484E-12  0.0000000E+00 -0.1311886E-03
  0.3484848E+00  0.0000000E+00  0.2525252E-01 -0.1222145E-11  0.0000000E+00 -0.1311886E-03
  0.3585859E+00  0.0000000E+00  0.2525252E-01  0.2051321E-11  0.0000000E+00 -0.1311886E-03
  0.3686869E+00  0.0000000E+00  0.2525252E-01 -0.1522343E-11  0.0000000E+00 -0.1311886E-03
  0.3787879E+00  0.0000000E+00  0.2525252E-01 -0.8891576E-12  0.0000000E+00 -0.1311886E-03
  0.3888889E+00  0.0000000E+00  0.2525252E-01  0.8288775E-12  0.0000000E+00 -0.1311886E-03
  0.3989899E+00  0.0000000E+00  0.2525252E-01 -0.1479046E-11  0.0000000E+00 -0.1311886E-03
  0.4090909E+00  0.0000000E+00  0.2525252E-01 -0.1410489E-11  0.0000000E+00 -0.1311886E-03
  0.4191919E+00  0.0000000E+00  0.2525252E-01  0.4673778E-12  0.0000000E+00 -0.1311886E-03
  0.4292929E+00  0.0000000E+00  0.2525252E-01 -0.1833211E-11  0.0000000E+00 -0.1311886E-03
  0.4393939E+00  0.0000000E+00  0.2525252E-01 -0.2408742E-12  0.0000000E+00 -0.1311886E-03
  0.4494950E+00  0.0000000E+00  0.2525252E-01 -0.1139417E-12  0.0000000E+00 -0.1311886E-03
  0.4595959E+00  0.0000000E+00  0.2525252E-01 -0.1010395E-11  0.0000000E+00 -0.1311886E-03
  0.4696970E+00  0.0000000E+00  0.2525252E-01 -0.1631835E-11  0.0000000E+00 -0.1311886E-03
  0.4797980E+00  0.0000000E+00  0.2525252E-01  0.4139007E-12  0.0000000E+00 -0.1311886E-03
  0.4898990E+00  0.0000000E+00  0.2525252E-01  0.5490316E-12  0.0000000E+00 -0.1311886E-03
  0.5000000E+00  0.0000000E+00  0.2525252E-01 -0.2625210E-12  0.0000000E+00 -0.1311886E-03
  0.5101010E+00  0.0000000E+00  0.2525252E-01  0.1161166E-11  0.0000000E+00 -0.1311886E-03
  0.5202020E+00  0.0000000E+00  0.2525252E-01  0.2539475E-11  0.0000000E+00 -0.1311886E-03
  0.5303030E+00  0.0000000E+00  0.2525252E-01  0.3088076E-11  0.0000000E+00 -0.1311886E-03
  0.5404040E+00  0.0000000E+00  0.2525252E-01  0.3276484E-11  0.0000000E+00 -0.1311886E-03
  0.5505050E+00  0.0000000E+00  0.2525252E-01  0.3660975E-11  0.0000000E+00 -0.1311886E-03
  0.5606061E+00  0.0000000E+00  0.2525252E-01  0.4142033E-11  0.0000000E+00 -0.1311886E-03
  0.5707071E+00  0.0000000E+00  0.2525252E-01  0.4505365E-11  0.0000000E+00 -0.1311886E-03
  0.5808081E+00  0.0000000E+00  0.2525252E-01  0.4587393E-11  0.0000000E+00 -0.1311886E-03
  0.5909091E+00  0.0000000E+00  0.2525252E-01  0.4362458E-11  0.0000000E+00 -0.1311886E-03
  0.6010101E+00  0.0000000E+00  0.2525252E-01  0.3900375E-11  0.0000000E+00 -0.1311886E-03
  0.6111111E+00  0.0000000E+00  0.2525252E-01  0.3289180E-11  0.0000000E+00 -0.1311886E-03
  0.6212121E+00  0.0000000E+00  0.2525252E-01  0.2592587E-11  0.0000000E+00 -0.1311886E-03
  0.6313131E+00  0.0000000E+00  0.2525252E-01  0.1850558E-11  0.0000000E+00 -0.1311886E-03
  0.6414142E+00  0.0000000E+00  0.2525252E-01  0.1107211E-11  0.0000000E+00 -0.1311886E-03
  0.6515151E+00  0.0000000E+00  0.2525252E-01  0.4372479E-12  0.0000000E+00 -0.1311886E-03
  0.6616161E+00  0.0000000E+00  0.2525252E-01 -0.1029776E-12  0.0000000E+00 -0.1311886E-03
  0.6717172E+00  0.0000000E+00  0.2525252E-01 -0.6314053E-12  0.0000000E+00 -0.1311886E-03
  0.6818182E+00  0.0000000E+00  0.2525252E-01 -0.8653883E-12  0.0000000E+00 -0.1311886E-03
  0.6919192E+00  0.0000000E+00  0.2525252E-01 -0.1559344E-11  0.0000000E+00 -0.1311886E-03
  0.7020202E+00  0.0000000E+00  0.2525252E-01 -0.3062990E-11  0.0000000E+00 -0.1311886E-03
  0.7121212E+00  0.0000000E+00  0.2525252E-01 -0.8926679E-12  0.0000000E+00 -0.1311886E-03
  0.7222222E+00  0.0000000E+00  0.2525252E-01 -0.2403860E-11  0.0000000E+00 -0.1311886E-03
  0.7323232E+00  0.0000000E+00  0.2525252E-01 -0.3142336E-11  0.0000000E+00 -0.1311886E-03
  0.7424242E+00  0.0000000E+00  0.2525252E-01 -0.3610747E-11  0.0000000E+00 -0.1311886E-03
  0.7525253E+00  0.0000000E+00  0.2525252E-01 -0.3634062E-11  0.0000000E+00 -0.1311886E-03
  0.7626263E+00  0.0000000E+00  0.2525252E-01 -0.3539547E-11  0.0000000E+00 -0.1311886E-03
  0.7727273E+00  0.0000000E+00  0.2525252E-01 -0.3443020E-11  0.0000000E+00 -0.1311886E-03
  0.7828283E+00  0.0000000E+00  0.2525252E-01 -0.3384223E-11  0.0000000E+00 -0.1311886E-03
  0.7929293E+00  0.0000000E+00  0.2525252E-01 -0.3255333E-11  0.0000000E+00 -0.1311886E-03
  0.8030303E+00  0.0000000E+00  0.2525252E-01 -0.2935769E-11  0.0000000E+00 -0.1311886E-03
  0.8131313E+00  0.0000000E+00  0.2525252E-01 -0.2308211E-11  0.0000000E+00 -0.1311886E-03
  0.8232324E+00  0.0000000E+00  0.2525252E-01 -0.1527668E-11  0.0000000E+00 -0.1311886E-03
  0.8333333E+00  0.0000000E+00  0.2525252E-01 -0.1468998E-11  0.0000000E+00 -0.1311886E-03
  0.8434343E+00  0.0000000E+00  0.2525252E-01 -0.2079879E-11  0.0000000E+00 -0.1311886E-03
  0.8535354E+00  0.0000000E+00  0.2525252E-01 -0.2730021E-12  0.0000000E+00 -0.1311886E-03
  0.8636364E+00  0.0000000E+00  0.2525252E-01  0.1714844E-11  0.0000000E+00 -0.1311886E-03
  0.8737374E+00  0.0000000E+00  0.2525252E-01 -0.4000492E-12  0.0000000E+00 -0.1311886E-03
  0.8838384E+00  0.0000000E+00  0.2525252E-01 -0.1382090E-11  0.0000000E+00 -0.1311886E-03
  0.8939394E+00  0.0000000E+00  0.2525252E-01  0.2465195E-11  0.0000000E+00 -0.1311886E-03
  0.9040404E+00  0.0000000E+00  0.2525252E-01  0.1993565E-11  0.0000000E+00 -0.1311886E-03
  0.9141414E+00  0.0000000E+00  0.2525252E-01  0.1762099E-11  0.0000000E+00 -0.1311886E-03
  0.9242424E+00  0.0000000E+00  0.2525252E-01  0.1597040E-11  0.0000000E+00 -0.1311886E-03
  0.9343435E+00  0.0000000E+00  0.2525252E-01  0.1783113E-11  0.0000000E+00 -0.1311886E-03
  0.9444444E+00  0.0000000E+00  0.2525252E-01  0.3699620E-11  0.0000000E+00 -0.1311886E-03
  0.9545454E+00  0.0000000E+00  0.2525252E-01  0.2839077E-11  0.0000000E+00 -0.1311886E-03
  0.9646465E+00  0.0000000E+00  0.2525252E-01 -0.4613234E-12  0.0000000E+00 -0.1311886E-03
  0.9747475E+00  0.0000000E+00  0.2525252E-01  0.1503648E-11  0.0000000E+00 -0.1311886E-03
  0.9848485E+00  0.0000000E+00  0.2525252E-01  0.1710771E-11  0.0000000E+00 -0.1311886E-03
  0.9974747E+00  0.0000000E+00  0.2525252E-01  0.1599672E-11  0.0000000E+00 -0.1311886E-03
  0.5050505E-02  0.0000000E+00  0.3535353E-01 -0.1401572E-11  0.0000000E+00 -0.1275036E-03
  0.1515152E-01  0.0000000E+00  0.3535353E-01 -0.1476010E-11  0.0000000E+00 -0.1275036E-03
  0.2525252E-01  0.0000000E+00  0.3535353E-01 -0.2731650E-11  0.0000000E+00 -0.1275036E-03
  0.3535353E-01  0.0000000E+00  0.3535353E-01 -0.1447738E-11  0.0000000E+00 -0.1275036E-03
  0.4545455E-01  0.0000000E+00  0.3535353E-01 -0.2939556E-11  0.0000000E+00 -0.1275037E-03
  0.5555556E-01  0.0000000E+00  0.3535353E-01 -0.4345750E-11  0.0000000E+00 -0.1275037E-03
  0.6565657E-01  0.0000000E+00  0.3535353E-01 -0.4984766E-11  0.0000000E+00 -0.1275037E-03
  0.7575758E-01  0.0000000E+00  0.3535353E-01 -0.5427137E-11  0.0000000E+00 -0.1275037E-03
  0.8585858E-01  0.0000000E+00  0.3535353E-01 -0.5970115E-11  0.0000000E+00 -0.1275037E-03
  0.9595960E-01  0.0000000E+00  0.3535353E-01 -0.6518636E-11  0.0000000E+00 -0.1275037E-03
  0.1060606E+00  0.0000000E+00  0.3535353E-01 -0.6822363E-11  0.0000000E+00 -0.1275037E-03
  0.1161616E+00  0.0000000E+00  0.3535353E-01 -0.6749060E-11  0.0000000E+00 -0.1275037E-03
  0.1262626E+00  0.0000000E+00  0.3535353E-01 -0.6325076E-11  0.0000000E+00 -0.1275037E-03
  0.1363636E+00  0.0000000E+00  0.3535353E-01 -0.5680564E-11  0.0000000E+00 -0.1275037E-03
  0.1464646E+00  0.0000000E+00  0.3535353E-01 -0.4807458E-11  0.0000000E+00 -0.1275037E-03
  0.1565657E+00  0.0000000E+00  0.3535353E-01 -0.3855473E-11  0.0000000E+00 -0.1275037E-03
  0.1666667E+00  0.0000000E+00  0.3535353E-01 -0.2517198E-11  0.0000000E+00 -0.1275037E-03
  0.1767677E+00  0.0000000E+00  0.3535353E-01 -0.1766856E-11  0.0000000E+00 -0.1275037E-03
  0.1868687E+00  0.0000000E+00  0.3535353E-01 -0.2748254E-11  0.0000000E+00 -0.1275037E-03
  0.1969697E+00  0.0000000E+00  0.3535353E-01  0.1551849E-11  0.0000000E+00 -0.1275037E-03
  0.2070707E+00  0.0000000E+00  0.3535353E-01  0.2039056E-11  0.0000000E+00 -0.1275037E-03
  0.2171717E+00  0.0000000E+00  0.3535353E-01 -0.1774296E-11  0.0000000E+00 -0.1275037E-03
  0.2272727E+00  0.0000000E+00  0.3535353E-01  0.3478393E-12  0.0000000E+00 -0.1275037E-03
  0.2373737E+00  0.0000000E+00  0.3535353E-01  0.3016041E-11  0.0000000E+00 -0.1275037E-03
  0.2474747E+00  0.0000000E+00  0.3535353E-01  0.4090531E-11  0.0000000E+00 -0.1275037E-03
  0.2575758E+00  0.0000000E+00  0.3535353E-01  0.1375799E-11  0.0000000E+00 -0.1275037E-03
  0.2676768E+00  0.0000000E+00  0.3535353E-01  0.8384388E-12  0.0000000E+00 -0.1275037E-03
  0.2777778E+00  0.0000000E+00  0.3535353E-01  0.1555472E-11  0.0000000E+00 -0.1275037E-03
  0.2878788E+00  0.0000000E+00  0.3535353E-01  0.3051282E-11  0.0000000E+00 -0.1275037E-03
  0.2979798E+00  0.0000000E+00  0.3535353E-01  0.1644177E-11  0.0000000E+00 -0.1275037E-03