title = "dataset water"
variables = "x", "y", "z", "vx", "vy", "vz"
zone t = "velocities, solution time =  5.100E+01 days        " i =   99, j =   99, k =    1,  f=point
  0.5050505E-02  0.0000000E+00  0.5050505E-02  0.1146840E-06  0.0000000E+00  0.1335351E-03
  0.1515152E-01  0.0000000E+00  0.5050505E-02  0.3447150E-06  0.0000000E+00  0.1340034E-03
  0.2525252E-01  0.0000000E+00  0.5050505E-02  0.5767551E-06  0.0000000E+00  0.1349428E-03
  0.3535353E-01  0.0000000E+00  0.5050505E-02  0.8121857E-06  0.0000000E+00  0.1363590E-03
  0.4545455E-01  0.0000000E+00  0.5050505E-02  0.1052437E-05  0.0000000E+00  0.1382605E-03
  0.5555556E-01  0.0000000E+00  0.5050505E-02  0.1299007E-05  0.0000000E+00  0.1406590E-03
  0.6565657E-01  0.0000000E+00  0.5050505E-02  0.1553478E-05  0.0000000E+00  0.1435694E-03
  0.7575758E-01  0.0000000E+00  0.5050505E-02  0.1817544E-05  0.0000000E+00  0.1470101E-03
  0.8585858E-01  0.0000000E+00  0.5050505E-02  0.2093033E-05  0.0000000E+00  0.1510032E-03
  0.9595960E-01  0.0000000E+00  0.5050505E-02  0.2381942E-05  0.0000000E+00  0.1555749E-03
  0.1060606E+00  0.0000000E+00  0.5050505E-02  0.2686471E-05  0.0000000E+00  0.1607556E-03
  0.1161616E+00  0.0000000E+00  0.5050505E-02  0.3009071E-05  0.0000000E+00  0.1665811E-03
  0.1262626E+00  0.0000000E+00  0.5050505E-02  0.3352500E-05  0.0000000E+00  0.1730925E-03
  0.1363636E+00  0.0000000E+00  0.5050505E-02  0.3719895E-05  0.0000000E+00  0.1803371E-03
  0.1464646E+00  0.0000000E+00  0.5050505E-02  0.4114865E-05  0.0000000E+00  0.1883698E-03
  0.1565657E+00  0.0000000E+00  0.5050505E-02  0.4541606E-05  0.0000000E+00  0.1972536E-03
  0.1666667E+00  0.0000000E+00  0.5050505E-02  0.5005068E-05  0.0000000E+00  0.2070616E-03
  0.1767677E+00  0.0000000E+00  0.5050505E-02  0.5511160E-05  0.0000000E+00  0.2178786E-03
  0.1868687E+00  0.0000000E+00  0.5050505E-02  0.6067048E-05  0.0000000E+00  0.2298036E-03
  0.1969697E+00  0.0000000E+00  0.5050505E-02  0.6681556E-05  0.0000000E+00  0.2429532E-03
  0.2070707E+00  0.0000000E+00  0.5050505E-02  0.7365748E-05  0.0000000E+00  0.2574655E-03
  0.2171717E+00  0.0000000E+00  0.5050505E-02  0.8133764E-05  0.0000000E+00  0.2735064E-03
  0.2272727E+00  0.0000000E+00  0.5050505E-02  0.9004080E-05  0.0000000E+00  0.2912774E-03
  0.2373737E+00  0.0000000E+00  0.5050505E-02  0.1000146E-04  0.0000000E+00  0.3110277E-03
  0.2474747E+00  0.0000000E+00  0.5050505E-02  0.1116011E-04  0.0000000E+00  0.3330714E-03
  0.2575758E+00  0.0000000E+00  0.5050505E-02  0.1252909E-04  0.0000000E+00  0.3578142E-03
  0.2676768E+00  0.0000000E+00  0.5050505E-02  0.1418242E-04  0.0000000E+00  0.3857977E-03
  0.2777778E+00  0.0000000E+00  0.5050505E-02  0.1624018E-04  0.0000000E+00  0.4177775E-03
  0.2878788E+00  0.0000000E+00  0.5050505E-02  0.1891994E-04  0.0000000E+00  0.4548814E-03
  0.2979798E+00  0.0000000E+00  0.5050505E-02  0.2268452E-04  0.0000000E+00  0.4989850E-03
  0.3080808E+00  0.0000000E+00  0.5050505E-02  0.2873697E-04  0.0000000E+00  0.5537917E-03
  0.3181818E+00  0.0000000E+00  0.5050505E-02  0.4089508E-04  0.0000000E+00  0.6285196E-03
  0.3282828E+00  0.0000000E+00  0.5050505E-02  0.4646797E-04  0.0000000E+00  0.7230890E-03
  0.3383838E+00  0.0000000E+00  0.5050505E-02  0.4645560E-04  0.0000000E+00  0.8247837E-03
  0.3484848E+00  0.0000000E+00  0.5050505E-02  0.5644326E-04  0.0000000E+00  0.9388300E-03
  0.3585859E+00  0.0000000E+00  0.5050505E-02  0.8099492E-04  0.0000000E+00  0.1093339E-02
  0.3686869E+00  0.0000000E+00  0.5050505E-02  0.1424006E-03  0.0000000E+00  0.1349506E-02
  0.3787879E+00  0.0000000E+00  0.5050505E-02  0.1997558E-03  0.0000000E+00  0.1753886E-02
  0.3888889E+00  0.0000000E+00  0.5050505E-02  0.1198398E-04  0.0000000E+00  0.2008907E-02
  0.3989899E+00  0.0000000E+00  0.5050505E-02 -0.5539245E-04  0.0000000E+00  0.1954715E-02
  0.4090909E+00  0.0000000E+00  0.5050505E-02 -0.8471170E-04  0.0000000E+00  0.1781687E-02
  0.4191919E+00  0.0000000E+00  0.5050505E-02 -0.3195029E-04  0.0000000E+00  0.1639306E-02
  0.4292929E+00  0.0000000E+00  0.5050505E-02  0.2879199E-05  0.0000000E+00  0.1604055E-02
  0.4393939E+00  0.0000000E+00  0.5050505E-02 -0.1336544E-04  0.0000000E+00  0.1591386E-02
  0.4494950E+00  0.0000000E+00  0.5050505E-02  0.1187068E-04  0.0000000E+00  0.1589579E-02
  0.4595959E+00  0.0000000E+00  0.5050505E-02 -0.2827937E-04  0.0000000E+00  0.1569895E-02
  0.4696970E+00  0.0000000E+00  0.5050505E-02 -0.1285835E-04  0.0000000E+00  0.1520436E-02
  0.4797980E+00  0.0000000E+00  0.5050505E-02 -0.4808043E-05  0.0000000E+00  0.1499256E-02
  0.4898990E+00  0.0000000E+00  0.5050505E-02 -0.1557305E-05  0.0000000E+00  0.1491633E-02
  0.5000000E+00  0.0000000E+00  0.5050505E-02  0.2163144E-05  0.0000000E+00  0.1492358E-02
  0.5101010E+00  0.0000000E+00  0.5050505E-02 -0.5725975E-04  0.0000000E+00  0.1427418E-02
  0.5202020E+00  0.0000000E+00  0.5050505E-02 -0.4426346E-04  0.0000000E+00  0.1308307E-02
  0.5303030E+00  0.0000000E+00  0.5050505E-02 -0.3520862E-04  0.0000000E+00  0.1216084E-02
  0.5404040E+00  0.0000000E+00  0.5050505E-02 -0.2859753E-04  0.0000000E+00  0.1142684E-02
  0.5505050E+00  0.0000000E+00  0.5050505E-02 -0.2451495E-04  0.0000000E+00  0.1082027E-02
  0.5606061E+00  0.0000000E+00  0.5050505E-02 -0.2479944E-04  0.0000000E+00  0.1026091E-02
  0.5707071E+00  0.0000000E+00  0.5050505E-02 -0.3450708E-04  0.0000000E+00  0.9593950E-03
  0.5808081E+00  0.0000000E+00  0.5050505E-02 -0.3912806E-04  0.0000000E+00  0.8773484E-03
  0.5909091E+00  0.0000000E+00  0.5050505E-02 -0.3332430E-04  0.0000000E+00  0.7973276E-03
  0.6010101E+00  0.0000000E+00  0.5050505E-02 -0.2775808E-04  0.0000000E+00  0.7304000E-03
  0.6111111E+00  0.0000000E+00  0.5050505E-02 -0.2354257E-04  0.0000000E+00  0.6745669E-03
  0.6212121E+00  0.0000000E+00  0.5050505E-02 -0.2039907E-04  0.0000000E+00  0.6270165E-03
  0.6313131E+00  0.0000000E+00  0.5050505E-02 -0.1799567E-04  0.0000000E+00  0.5856750E-03
  0.6414142E+00  0.0000000E+00  0.5050505E-02 -0.1610162E-04  0.0000000E+00  0.5491222E-03
  0.6515151E+00  0.0000000E+00  0.5050505E-02 -0.1456629E-04  0.0000000E+00  0.5163753E-03
  0.6616161E+00  0.0000000E+00  0.5050505E-02 -0.1328975E-04  0.0000000E+00  0.4867369E-03
  0.6717172E+00  0.0000000E+00  0.5050505E-02 -0.1220388E-04  0.0000000E+00  0.4597004E-03
  0.6818182E+00  0.0000000E+00  0.5050505E-02 -0.1126135E-04  0.0000000E+00  0.4348893E-03
  0.6919192E+00  0.0000000E+00  0.5050505E-02 -0.1042906E-04  0.0000000E+00  0.4120181E-03
  0.7020202E+00  0.0000000E+00  0.5050505E-02 -0.9683699E-05  0.0000000E+00  0.3908646E-03
  0.7121212E+00  0.0000000E+00  0.5050505E-02 -0.9008797E-05  0.0000000E+00  0.3712513E-03
  0.7222222E+00  0.0000000E+00  0.5050505E-02 -0.8392487E-05  0.0000000E+00  0.3530330E-03
  0.7323232E+00  0.0000000E+00  0.5050505E-02 -0.7825985E-05  0.0000000E+00  0.3360878E-03
  0.7424242E+00  0.0000000E+00  0.5050505E-02 -0.7302542E-05  0.0000000E+00  0.3203116E-03
  0.7525253E+00  0.0000000E+00  0.5050505E-02 -0.6816749E-05  0.0000000E+00  0.3056140E-03
  0.7626263E+00  0.0000000E+00  0.5050505E-02 -0.6364115E-05  0.0000000E+00  0.2919159E-03
  0.7727273E+00  0.0000000E+00  0.5050505E-02 -0.5940802E-05  0.0000000E+00  0.2791480E-03
  0.7828283E+00  0.0000000E+00  0.5050505E-02 -0.5543474E-05  0.0000000E+00  0.2672488E-03
  0.7929293E+00  0.0000000E+00  0.5050505E-02 -0.5169211E-05  0.0000000E+00  0.2561640E-03
  0.8030303E+00  0.0000000E+00  0.5050505E-02 -0.4815452E-05  0.0000000E+00  0.2458454E-03
  0.8131313E+00  0.0000000E+00  0.5050505E-02 -0.4479955E-05  0.0000000E+00  0.2362503E-03
  0.8232324E+00  0.0000000E+00  0.5050505E-02 -0.4160759E-05  0.0000000E+00  0.2273406E-03
  0.8333333E+00  0.0000000E+00  0.5050505E-02 -0.3856158E-05  0.0000000E+00  0.2190824E-03
  0.8434343E+00  0.0000000E+00  0.5050505E-02 -0.3564658E-05  0.0000000E+00  0.2114454E-03
  0.8535354E+00  0.0000000E+00  0.5050505E-02 -0.3284952E-05  0.0000000E+00  0.2044023E-03
  0.8636364E+00  0.0000000E+00  0.5050505E-02 -0.3015885E-05  0.0000000E+00  0.1979285E-03
  0.8737374E+00  0.0000000E+00  0.5050505E-02 -0.2756424E-05  0.0000000E+00  0.1920020E-03
  0.8838384E+00  0.0000000E+00  0.5050505E-02 -0.2505636E-05  0.0000000E+00  0.1866030E-03
  0.8939394E+00  0.0000000E+00  0.5050505E-02 -0.2262663E-05  0.0000000E+00  0.1817135E-03
  0.9040404E+00  0.0000000E+00  0.5050505E-02 -0.2026705E-05  0.0000000E+00  0.1773174E-03
  0.9141414E+00  0.0000000E+00  0.5050505E-02 -0.1797005E-05  0.0000000E+00  0.1734005E-03
  0.9242424E+00  0.0000000E+00  0.5050505E-02 -0.1572842E-05  0.0000000E+00  0.1699499E-03
  0.9343435E+00  0.0000000E+00  0.5050505E-02 -0.1353516E-05  0.0000000E+00  0.1669545E-03
  0.9444444E+00  0.0000000E+00  0.5050505E-02 -0.1138348E-05  0.0000000E+00  0.1644047E-03
  0.9545454E+00  0.0000000E+00  0.5050505E-02 -0.9266723E-06  0.0000000E+00  0.1622922E-03
  0.9646465E+00  0.0000000E+00  0.5050505E-02 -0.7178344E-06  0.0000000E+00  0.1606102E-03
  0.9747475E+00  0.0000000E+00  0.5050505E-02 -0.5111885E-06  0.0000000E+00  0.1593534E-03
  0.9848485E+00  0.0000000E+00  0.5050505E-02 -0.3060972E-06  0.0000000E+00  0.1585177E-03
  0.9974747E+00  0.0000000E+00  0.5050505E-02 -0.1019307E-06  0.0000000E+00  0.1581005E-03
  0.5050505E-02  0.0000000E+00  0.1515152E-01  0.3432062E-06  0.0000000E+00  0.1333220E-03
  0.1515152E-01  0.0000000E+00  0.1515152E-01  0.1031606E-05  0.0000000E+00  0.1337883E-03
  0.2525252E-01  0.0000000E+00  0.1515152E-01  0.1726020E-05  0.0000000E+00  0.1347236E-03
  0.3535353E-01  0.0000000E+00  0.1515152E-01  0.2430575E-05  0.0000000E+00  0.1361335E-03
  0.4545455E-01  0.0000000E+00  0.1515152E-01  0.3149544E-05  0.0000000E+00  0.1380265E-03
  0.5555556E-01  0.0000000E+00  0.1515152E-01  0.3887397E-05  0.0000000E+00  0.1404141E-03
  0.6565657E-01  0.0000000E+00  0.1515152E-01  0.4648859E-05  0.0000000E+00  0.1433111E-03
  0.7575758E-01  0.0000000E+00  0.1515152E-01  0.5438983E-05  0.0000000E+00  0.1467355E-03
  0.8585858E-01  0.0000000E+00  0.1515152E-01  0.6263224E-05  0.0000000E+00  0.1507092E-03
  0.9595960E-01  0.0000000E+00  0.1515152E-01  0.7127533E-05  0.0000000E+00  0.1552579E-03
  0.1060606E+00  0.0000000E+00  0.1515152E-01  0.8038468E-05  0.0000000E+00  0.1604120E-03
  0.1161616E+00  0.0000000E+00  0.1515152E-01  0.9003327E-05  0.0000000E+00  0.1662063E-03
  0.1262626E+00  0.0000000E+00  0.1515152E-01  0.1003032E-04  0.0000000E+00  0.1726814E-03
  0.1363636E+00  0.0000000E+00  0.1515152E-01  0.1112876E-04  0.0000000E+00  0.1798838E-03
  0.1464646E+00  0.0000000E+00  0.1515152E-01  0.1230936E-04  0.0000000E+00  0.1878674E-03
  0.1565657E+00  0.0000000E+00  0.1515152E-01  0.1358458E-04  0.0000000E+00  0.1966939E-03
  0.1666667E+00  0.0000000E+00  0.1515152E-01  0.1496904E-04  0.0000000E+00  0.2064347E-03
  0.1767677E+00  0.0000000E+00  0.1515152E-01  0.1648022E-04  0.0000000E+00  0.2171724E-03
  0.1868687E+00  0.0000000E+00  0.1515152E-01  0.1813923E-04  0.0000000E+00  0.2290033E-03
  0.1969697E+00  0.0000000E+00  0.1515152E-01  0.1997199E-04  0.0000000E+00  0.2420399E-03
  0.2070707E+00  0.0000000E+00  0.1515152E-01  0.2201093E-04  0.0000000E+00  0.2564152E-03
  0.2171717E+00  0.0000000E+00  0.1515152E-01  0.2429729E-04  0.0000000E+00  0.2722877E-03
  0.2272727E+00  0.0000000E+00  0.1515152E-01  0.2688469E-04  0.0000000E+00  0.2898484E-03
  0.2373737E+00  0.0000000E+00  0.1515152E-01  0.2984449E-04  0.0000000E+00  0.3093309E-03
  0.2474747E+00  0.0000000E+00  0.1515152E-01  0.3327432E-04  0.0000000E+00  0.3310249E-03
  0.2575758E+00  0.0000000E+00  0.1515152E-01  0.3731202E-04  0.0000000E+00  0.3552965E-03
  0.2676768E+00  0.0000000E+00  0.1515152E-01  0.4216009E-04  0.0000000E+00  0.3826163E-03
  0.2777778E+00  0.0000000E+00  0.1515152E-01  0.4813116E-04  0.0000000E+00  0.4135964E-03
  0.2878788E+00  0.0000000E+00  0.1515152E-01  0.5574087E-04  0.0000000E+00  0.4490218E-03
  0.2979798E+00  0.0000000E+00  0.1515152E-01  0.6591832E-04  0.0000000E+00  0.4897829E-03
  0.3080808E+00  0.0000000E+00  0.1515152E-01  0.8053782E-04  0.0000000E+00  0.5362285E-03
  0.3181818E+00  0.0000000E+00  0.1515152E-01  0.1038926E-03  0.0000000E+00  0.5845818E-03
  0.3282828E+00  0.0000000E+00  0.1515152E-01  0.1201426E-03  0.0000000E+00  0.6376731E-03
  0.3383838E+00  0.0000000E+00  0.1515152E-01  0.1309097E-03  0.0000000E+00  0.7082884E-03
  0.3484848E+00  0.0000000E+00  0.1515152E-01  0.1571107E-03  0.0000000E+00  0.7980181E-03
  0.3585859E+00  0.0000000E+00  0.1515152E-01  0.2116490E-03  0.0000000E+00  0.9014327E-03
  0.3686869E+00  0.0000000E+00  0.1515152E-01  0.3240284E-03  0.0000000E+00  0.1000289E-02
  0.3787879E+00  0.0000000E+00  0.1515152E-01  0.4501176E-03  0.0000000E+00  0.1100912E-02
  0.3888889E+00  0.0000000E+00  0.1515152E-01  0.2769446E-03  0.0000000E+00  0.1454874E-02
  0.3989899E+00  0.0000000E+00  0.1515152E-01 -0.1471690E-03  0.0000000E+00  0.1705912E-02
  0.4090909E+00  0.0000000E+00  0.1515152E-01 -0.2037550E-03  0.0000000E+00  0.1616634E-02
  0.4191919E+00  0.0000000E+00  0.1515152E-01 -0.8047634E-04  0.0000000E+00  0.1552758E-02
  0.4292929E+00  0.0000000E+00  0.1515152E-01  0.7309002E-05  0.0000000E+00  0.1533910E-02
  0.4393939E+00  0.0000000E+00  0.1515152E-01 -0.3063729E-04  0.0000000E+00  0.1530841E-02
  0.4494950E+00  0.0000000E+00  0.1515152E-01  0.3477580E-04  0.0000000E+00  0.1539559E-02
  0.4595959E+00  0.0000000E+00  0.1515152E-01 -0.7556709E-04  0.0000000E+00  0.1529685E-02
  0.4696970E+00  0.0000000E+00  0.1515152E-01 -0.3214328E-04  0.0000000E+00  0.1498003E-02
  0.4797980E+00  0.0000000E+00  0.1515152E-01 -0.1033853E-04  0.0000000E+00  0.1488980E-02
  0.4898990E+00  0.0000000E+00  0.1515152E-01 -0.5009475E-05  0.0000000E+00  0.1485672E-02
  0.5000000E+00  0.0000000E+00  0.1515152E-01 -0.9662595E-05  0.0000000E+00  0.1466333E-02
  0.5101010E+00  0.0000000E+00  0.1515152E-01 -0.1624596E-03  0.0000000E+00  0.1392085E-02
  0.5202020E+00  0.0000000E+00  0.1515152E-01 -0.1289246E-03  0.0000000E+00  0.1287175E-02
  0.5303030E+00  0.0000000E+00  0.1515152E-01 -0.1031139E-03  0.0000000E+00  0.1201300E-02
  0.5404040E+00  0.0000000E+00  0.1515152E-01 -0.8325871E-04  0.0000000E+00  0.1132837E-02
  0.5505050E+00  0.0000000E+00  0.1515152E-01 -0.6942570E-04  0.0000000E+00  0.1079042E-02
  0.5606061E+00  0.0000000E+00  0.1515152E-01 -0.6578864E-04  0.0000000E+00  0.1036864E-02
  0.5707071E+00  0.0000000E+00  0.1515152E-01 -0.1078201E-03  0.0000000E+00  0.9744705E-03
  0.5808081E+00  0.0000000E+00  0.1515152E-01 -0.1268021E-03  0.0000000E+00  0.8768752E-03
  0.5909091E+00  0.0000000E+00  0.1515152E-01 -0.9973383E-04  0.0000000E+00  0.7866311E-03
  0.6010101E+00  0.0000000E+00  0.1515152E-01 -0.8199898E-04  0.0000000E+00  0.7212591E-03
  0.6111111E+00  0.0000000E+00  0.1515152E-01 -0.6959963E-04  0.0000000E+00  0.6678190E-03
  0.6212121E+00  0.0000000E+00  0.1515152E-01 -0.6047360E-04  0.0000000E+00  0.6220533E-03
  0.6313131E+00  0.0000000E+00  0.1515152E-01 -0.5347854E-04  0.0000000E+00  0.5819359E-03
  0.6414142E+00  0.0000000E+00  0.1515152E-01 -0.4793880E-04  0.0000000E+00  0.5462276E-03
  0.6515151E+00  0.0000000E+00  0.1515152E-01 -0.4342866E-04  0.0000000E+00  0.5140762E-03
  0.6616161E+00  0.0000000E+00  0.1515152E-01 -0.3966532E-04  0.0000000E+00  0.4848667E-03
  0.6717172E+00  0.0000000E+00  0.1515152E-01 -0.3645438E-04  0.0000000E+00  0.4581450E-03
  0.6818182E+00  0.0000000E+00  0.1515152E-01 -0.3365999E-04  0.0000000E+00  0.4335695E-03
  0.6919192E+00  0.0000000E+00  0.1515152E-01 -0.3118680E-04  0.0000000E+00  0.4108786E-03
  0.7020202E+00  0.0000000E+00  0.1515152E-01 -0.2896782E-04  0.0000000E+00  0.3898666E-03
  0.7121212E+00  0.0000000E+00  0.1515152E-01 -0.2695566E-04  0.0000000E+00  0.3703674E-03
  0.7222222E+00  0.0000000E+00  0.1515152E-01 -0.2511619E-04  0.0000000E+00  0.3522435E-03
  0.7323232E+00  0.0000000E+00  0.1515152E-01 -0.2342408E-04  0.0000000E+00  0.3353780E-03
  0.7424242E+00  0.0000000E+00  0.1515152E-01 -0.2185976E-04  0.0000000E+00  0.3196700E-03
  0.7525253E+00  0.0000000E+00  0.1515152E-01 -0.2040744E-04  0.0000000E+00  0.3050315E-03
  0.7626263E+00  0.0000000E+00  0.1515152E-01 -0.1905389E-04  0.0000000E+00  0.2913850E-03
  0.7727273E+00  0.0000000E+00  0.1515152E-01 -0.1778776E-04  0.0000000E+00  0.2786621E-03
  0.7828283E+00  0.0000000E+00  0.1515152E-01 -0.1659915E-04  0.0000000E+00  0.2668022E-03
  0.7929293E+00  0.0000000E+00  0.1515152E-01 -0.1547935E-04  0.0000000E+00  0.2557518E-03
  0.8030303E+00  0.0000000E+00  0.1515152E-01 -0.1442073E-04  0.0000000E+00  0.2454634E-03
  0.8131313E+00  0.0000000E+00  0.1515152E-01 -0.1341659E-04  0.0000000E+00  0.2358948E-03
  0.8232324E+00  0.0000000E+00  0.1515152E-01 -0.1246109E-04  0.0000000E+00  0.2270086E-03
  0.8333333E+00  0.0000000E+00  0.1515152E-01 -0.1154915E-04  0.0000000E+00  0.2187711E-03
  0.8434343E+00  0.0000000E+00  0.1515152E-01 -0.1067632E-04  0.0000000E+00  0.2111524E-03
  0.8535354E+00  0.0000000E+00  0.1515152E-01 -0.9838721E-05  0.0000000E+00  0.2041256E-03
  0.8636364E+00  0.0000000E+00  0.1515152E-01 -0.9032907E-05  0.0000000E+00  0.1976665E-03
  0.8737374E+00  0.0000000E+00  0.1515152E-01 -0.8255813E-05  0.0000000E+00  0.1917531E-03
  0.8838384E+00  0.0000000E+00  0.1515152E-01 -0.7504658E-05  0.0000000E+00  0.1863658E-03
  0.8939394E+00  0.0000000E+00  0.1515152E-01 -0.6776890E-05  0.0000000E+00  0.1814867E-03
  0.9040404E+00  0.0000000E+00  0.1515152E-01 -0.6070123E-05  0.0000000E+00  0.1771000E-03
  0.9141414E+00  0.0000000E+00  0.1515152E-01 -0.5382103E-05  0.0000000E+00  0.1731914E-03
  0.9242424E+00  0.0000000E+00  0.1515152E-01 -0.4710671E-05  0.0000000E+00  0.1697481E-03
  0.9343435E+00  0.0000000E+00  0.1515152E-01 -0.4053739E-05  0.0000000E+00  0.1667590E-03
  0.9444444E+00  0.0000000E+00  0.1515152E-01 -0.3409275E-05  0.0000000E+00  0.1642145E-03
  0.9545454E+00  0.0000000E+00  0.1515152E-01 -0.2775286E-05  0.0000000E+00  0.1621064E-03
  0.9646465E+00  0.0000000E+00  0.1515152E-01 -0.2149813E-05  0.0000000E+00  0.1604279E-03
  0.9747475E+00  0.0000000E+00  0.1515152E-01 -0.1530920E-05  0.0000000E+00  0.1591736E-03
  0.9848485E+00  0.0000000E+00  0.1515152E-01 -0.9166987E-06  0.0000000E+00  0.1583397E-03
  0.9974747E+00  0.0000000E+00  0.1515152E-01 -0.3052597E-06  0.0000000E+00  0.1579233E-03
  0.5050505E-02  0.0000000E+00  0.2525252E-01  0.5695635E-06  0.0000000E+00  0.1329030E-03
  0.1515152E-01  0.0000000E+00  0.2525252E-01  0.1711988E-05  0.0000000E+00  0.1333653E-03
  0.2525252E-01  0.0000000E+00  0.2525252E-01  0.2864380E-05  0.0000000E+00  0.1342926E-03
  0.3535353E-01  0.0000000E+00  0.2525252E-01  0.4033562E-05  0.0000000E+00  0.1356901E-03
  0.4545455E-01  0.0000000E+00  0.2525252E-01  0.5226596E-05  0.0000000E+00  0.1375664E-03
  0.5555556E-01  0.0000000E+00  0.2525252E-01  0.6450862E-05  0.0000000E+00  0.1399325E-03
  0.6565657E-01  0.0000000E+00  0.2525252E-01  0.7714165E-05  0.0000000E+00  0.1428028E-03
  0.7575758E-01  0.0000000E+00  0.2525252E-01  0.9024837E-05  0.0000000E+00  0.1461950E-03
  0.8585858E-01  0.0000000E+00  0.2525252E-01  0.1039187E-04  0.0000000E+00  0.1501305E-03
  0.9595960E-01  0.0000000E+00  0.2525252E-01  0.1182507E-04  0.0000000E+00  0.1546342E-03
  0.1060606E+00  0.0000000E+00  0.2525252E-01  0.1333521E-04  0.0000000E+00  0.1597355E-03
  0.1161616E+00  0.0000000E+00  0.2525252E-01  0.1493430E-04  0.0000000E+00  0.1654684E-03
  0.1262626E+00  0.0000000E+00  0.2525252E-01  0.1663577E-04  0.0000000E+00  0.1718722E-03
  0.1363636E+00  0.0000000E+00  0.2525252E-01  0.1845490E-04  0.0000000E+00  0.1789918E-03
  0.1464646E+00  0.0000000E+00  0.2525252E-01  0.2040917E-04  0.0000000E+00  0.1868790E-03
  0.1565657E+00  0.0000000E+00  0.2525252E-01  0.2251883E-04  0.0000000E+00  0.1955930E-03
  0.1666667E+00  0.0000000E+00  0.2525252E-01  0.2480767E-04  0.0000000E+00  0.2052022E-03
  0.1767677E+00  0.0000000E+00  0.2525252E-01  0.2730389E-04  0.0000000E+00  0.2157848E-03
  0.1868687E+00  0.0000000E+00  0.2525252E-01  0.3004148E-04  0.0000000E+00  0.2274318E-03
  0.1969697E+00  0.0000000E+00  0.2525252E-01  0.3306196E-04  0.0000000E+00  0.2402484E-03
  0.2070707E+00  0.0000000E+00  0.2525252E-01  0.3641687E-04  0.0000000E+00  0.2543578E-03
  0.2171717E+00  0.0000000E+00  0.2525252E-01  0.4017129E-04  0.0000000E+00  0.2699047E-03
  0.2272727E+00  0.0000000E+00  0.2525252E-01  0.4440899E-04  0.0000000E+00  0.2870610E-03
  0.2373737E+00  0.0000000E+00  0.2525252E-01  0.4924008E-04  0.0000000E+00  0.3060320E-03
  0.2474747E+00  0.0000000E+00  0.2525252E-01  0.5481260E-04  0.0000000E+00  0.3270656E-03
  0.2575758E+00  0.0000000E+00  0.2525252E-01  0.6133068E-04  0.0000000E+00  0.3504627E-03
  0.2676768E+00  0.0000000E+00  0.2525252E-01  0.6908328E-04  0.0000000E+00  0.3765906E-03
  0.2777778E+00  0.0000000E+00  0.2525252E-01  0.7848990E-04  0.0000000E+00  0.4058919E-03
  0.2878788E+00  0.0000000E+00  0.2525252E-01  0.9017008E-04  0.0000000E+00  0.4388783E-03
  0.2979798E+00  0.0000000E+00  0.2525252E-01  0.1050292E-03  0.0000000E+00  0.4760671E-03
  0.3080808E+00  0.0000000E+00  0.2525252E-01  0.1242590E-03  0.0000000E+00  0.5177986E-03
  0.3181818E+00  0.0000000E+00  0.2525252E-01  0.1486734E-03  0.0000000E+00  0.5641173E-03
  0.3282828E+00  0.0000000E+00  0.2525252E-01  0.1745757E-03  0.0000000E+00  0.6177072E-03
  0.3383838E+00  0.0000000E+00  0.2525252E-01  0.2020518E-03  0.0000000E+00  0.6828726E-03
  0.3484848E+00  0.0000000E+00  0.2525252E-01  0.2331145E-03  0.0000000E+00  0.7534866E-03
  0.3585859E+00  0.0000000E+00  0.2525252E-01  0.2921464E-03  0.0000000E+00  0.8222425E-03
  0.3686869E+00  0.0000000E+00  0.2525252E-01  0.3866759E-03  0.0000000E+00  0.8824744E-03
  0.3787879E+00  0.0000000E+00  0.2525252E-01  0.5136923E-03  0.0000000E+00  0.9238412E-03
  0.3888889E+00  0.0000000E+00  0.2525252E-01  0.5812615E-03  0.0000000E+00  0.9952984E-03
  0.3989899E+00  0.0000000E+00  0.2525252E-01 -0.2558373E-05  0.0000000E+00  0.1269114E-02
  0.4090909E+00  0.0000000E+00  0.2525252E-01 -0.2578287E-03  0.0000000E+00  0.1460713E-02
  0.4191919E+00  0.0000000E+00  0.2525252E-01 -0.9893590E-04  0.0000000E+00  0.1431559E-02
  0.4292929E+00  0.0000000E+00  0.2525252E-01  0.8865235E-05  0.0000000E+00  0.1428407E-02
  0.4393939E+00  0.0000000E+00  0.2525252E-01 -0.2652957E-04  0.0000000E+00  0.1438129E-02
  0.4494950E+00  0.0000000E+00  0.2525252E-01  0.4234811E-04  0.0000000E+00  0.1443918E-02
  0.4595959E+00  0.0000000E+00  0.2525252E-01 -0.8885800E-04  0.0000000E+00  0.1446204E-02
  0.4696970E+00  0.0000000E+00  0.2525252E-01 -0.3329093E-04  0.0000000E+00  0.1458503E-02
  0.4797980E+00  0.0000000E+00  0.2525252E-01 -0.2434855E-05  0.0000000E+00  0.1475375E-02
  0.4898990E+00  0.0000000E+00  0.2525252E-01 -0.4074821E-06  0.0000000E+00  0.1494162E-02
  0.5000000E+00  0.0000000E+00  0.2525252E-01 -0.7152810E-04  0.0000000E+00  0.1443032E-02
  0.5101010E+00  0.0000000E+00  0.2525252E-01 -0.2465411E-03  0.0000000E+00  0.1339793E-02
  0.5202020E+00  0.0000000E+00  0.2525252E-01 -0.2060573E-03  0.0000000E+00  0.1251853E-02
  0.5303030E+00  0.0000000E+00  0.2525252E-01 -0.1651190E-03  0.0000000E+00  0.1173183E-02
  0.5404040E+00  0.0000000E+00  0.2525252E-01 -0.1320496E-03  0.0000000E+00  0.1111645E-02
  0.5505050E+00  0.0000000E+00  0.2525252E-01 -0.1048707E-03  0.0000000E+00  0.1067098E-02
  0.5606061E+00  0.0000000E+00  0.2525252E-01 -0.1172876E-03  0.0000000E+00  0.1008835E-02
  0.5707071E+00  0.0000000E+00  0.2525252E-01 -0.2075463E-03  0.0000000E+00  0.9005875E-03
  0.5808081E+00  0.0000000E+00  0.2525252E-01 -0.1982096E-03  0.0000000E+00  0.8074041E-03
  0.5909091E+00  0.0000000E+00  0.2525252E-01 -0.1576283E-03  0.0000000E+00  0.7546042E-03
  0.6010101E+00  0.0000000E+00  0.2525252E-01 -0.1313076E-03  0.0000000E+00  0.7022404E-03
  0.6111111E+00  0.0000000E+00  0.2525252E-01 -0.1125889E-03  0.0000000E+00  0.6549211E-03
  0.6212121E+00  0.0000000E+00  0.2525252E-01 -0.9852349E-04  0.0000000E+00  0.6126879E-03
  0.6313131E+00  0.0000000E+00  0.2525252E-01 -0.8756006E-04  0.0000000E+00  0.5748524E-03
  0.6414142E+00  0.0000000E+00  0.2525252E-01 -0.7877146E-04  0.0000000E+00  0.5407102E-03
  0.6515151E+00  0.0000000E+00  0.2525252E-01 -0.7155271E-04  0.0000000E+00  0.5096706E-03
  0.6616161E+00  0.0000000E+00  0.2525252E-01 -0.6548737E-04  0.0000000E+00  0.4812671E-03
  0.6717172E+00  0.0000000E+00  0.2525252E-01 -0.6028170E-04  0.0000000E+00  0.4551394E-03
  0.6818182E+00  0.0000000E+00  0.2525252E-01 -0.5572777E-04  0.0000000E+00  0.4310100E-03
  0.6919192E+00  0.0000000E+00  0.2525252E-01 -0.5167920E-04  0.0000000E+00  0.4086617E-03
  0.7020202E+00  0.0000000E+00  0.2525252E-01 -0.4803339E-04  0.0000000E+00  0.3879198E-03
  0.7121212E+00  0.0000000E+00  0.2525252E-01 -0.4471797E-04  0.0000000E+00  0.3686397E-03
  0.7222222E+00  0.0000000E+00  0.2525252E-01 -0.4168082E-04  0.0000000E+00  0.3506980E-03
  0.7323232E+00  0.0000000E+00  0.2525252E-01 -0.3888295E-04  0.0000000E+00  0.3339870E-03
  0.7424242E+00  0.0000000E+00  0.2525252E-01 -0.3629385E-04  0.0000000E+00  0.3184121E-03
  0.7525253E+00  0.0000000E+00  0.2525252E-01 -0.3388853E-04  0.0000000E+00  0.3038892E-03
  0.7626263E+00  0.0000000E+00  0.2525252E-01 -0.3164575E-04  0.0000000E+00  0.2903435E-03
  0.7727273E+00  0.0000000E+00  0.2525252E-01 -0.2954705E-04  0.0000000E+00  0.2777086E-03
  0.7828283E+00  0.0000000E+00  0.2525252E-01 -0.2757617E-04  0.0000000E+00  0.2659258E-03
  0.7929293E+00  0.0000000E+00  0.2525252E-01 -0.2571881E-04  0.0000000E+00  0.2549429E-03
  0.8030303E+00  0.0000000E+00  0.2525252E-01 -0.2396235E-04  0.0000000E+00  0.2447137E-03
  0.8131313E+00  0.0000000E+00  0.2525252E-01 -0.2229576E-04  0.0000000E+00  0.2351970E-03
  0.8232324E+00  0.0000000E+00  0.2525252E-01 -0.2070941E-04  0.0000000E+00  0.2263565E-03
  0.8333333E+00  0.0000000E+00  0.2525252E-01 -0.1919495E-04  0.0000000E+00  0.2181595E-03
  0.8434343E+00  0.0000000E+00  0.2525252E-01 -0.1774506E-04  0.0000000E+00  0.2105767E-03
  0.8535354E+00  0.0000000E+00  0.2525252E-01 -0.1635339E-04  0.0000000E+00  0.2035820E-03
  0.8636364E+00  0.0000000E+00  0.2525252E-01 -0.1501430E-04  0.0000000E+00  0.1971514E-03
  0.8737374E+00  0.0000000E+00  0.2525252E-01 -0.1372276E-04  0.0000000E+00  0.1912638E-03
  0.8838384E+00  0.0000000E+00  0.2525252E-01 -0.1247421E-04  0.0000000E+00  0.1858995E-03
  0.8939394E+00  0.0000000E+00  0.2525252E-01 -0.1126446E-04  0.0000000E+00  0.1810411E-03
  0.9040404E+00  0.0000000E+00  0.2525252E-01 -0.1008958E-04  0.0000000E+00  0.1766728E-03
  0.9141414E+00  0.0000000E+00  0.2525252E-01 -0.8945849E-05  0.0000000E+00  0.1727804E-03
  0.9242424E+00  0.0000000E+00  0.2525252E-01 -0.7829706E-05  0.0000000E+00  0.1693515E-03
  0.9343435E+00  0.0000000E+00  0.2525252E-01 -0.6737690E-05  0.0000000E+00  0.1663748E-03
  0.9444444E+00  0.0000000E+00  0.2525252E-01 -0.5666431E-05  0.0000000E+00  0.1638408E-03
  0.9545454E+00  0.0000000E+00  0.2525252E-01 -0.4612621E-05  0.0000000E+00  0.1617415E-03
  0.9646465E+00  0.0000000E+00  0.2525252E-01 -0.3573003E-05  0.0000000E+00  0.1600699E-03
  0.9747475E+00  0.0000000E+00  0.2525252E-01 -0.2544362E-05  0.0000000E+00  0.1588208E-03
  0.9848485E+00  0.0000000E+00  0.2525252E-01 -0.1523518E-05  0.0000000E+00  0.1579902E-03
  0.9974747E+00  0.0000000E+00  0.2525252E-01 -0.5073257E-06  0.0000000E+00  0.1575756E-03
  0.5050505E-02  0.0000000E+00  0.3535353E-01  0.7928279E-06  0.0000000E+00  0.1322868E-03
  0.1515152E-01  0.0000000E+00  0.3535353E-01  0.2383059E-05  0.0000000E+00  0.1327432E-03
  0.2525252E-01  0.0000000E+00  0.3535353E-01  0.3987106E-05  0.0000000E+00  0.1336585E-03
  0.3535353E-01  0.0000000E+00  0.3535353E-01  0.5614415E-05  0.0000000E+00  0.1350379E-03
  0.4545455E-01  0.0000000E+00  0.3535353E-01  0.7274749E-05  0.0000000E+00  0.1368894E-03
  0.5555556E-01  0.0000000E+00  0.3535353E-01  0.8978308E-05  0.0000000E+00  0.1392239E-03
  0.6565657E-01  0.0000000E+00  0.3535353E-01  0.1073587E-04  0.0000000E+00  0.1420550E-03
  0.7575758E-01  0.0000000E+00  0.3535353E-01  0.1255892E-04  0.0000000E+00  0.1454000E-03
  0.8585858E-01  0.0000000E+00  0.3535353E-01  0.1445986E-04  0.0000000E+00  0.1492791E-03
  0.9595960E-01  0.0000000E+00  0.3535353E-01  0.1645217E-04  0.0000000E+00  0.1537166E-03
  0.1060606E+00  0.0000000E+00  0.3535353E-01  0.1855067E-04  0.0000000E+00  0.1587406E-03
  0.1161616E+00  0.0000000E+00  0.3535353E-01  0.2077178E-04  0.0000000E+00  0.1643835E-03
  0.1262626E+00  0.0000000E+00  0.3535353E-01  0.2313391E-04  0.0000000E+00  0.1706827E-03
  0.1363636E+00  0.0000000E+00  0.3535353E-01  0.2565785E-04  0.0000000E+00  0.1776811E-03
  0.1464646E+00  0.0000000E+00  0.3535353E-01  0.2836736E-04  0.0000000E+00  0.1854274E-03
  0.1565657E+00  0.0000000E+00  0.3535353E-01  0.3128986E-04  0.0000000E+00  0.1939775E-03
  0.1666667E+00  0.0000000E+00  0.3535353E-01  0.3445733E-04  0.0000000E+00  0.2033950E-03
  0.1767677E+00  0.0000000E+00  0.3535353E-01  0.3790757E-04  0.0000000E+00  0.2137526E-03
  0.1868687E+00  0.0000000E+00  0.3535353E-01  0.4168578E-04  0.0000000E+00  0.2251336E-03
  0.1969697E+00  0.0000000E+00  0.3535353E-01  0.4584675E-04  0.0000000E+00  0.2376334E-03
  0.2070707E+00  0.0000000E+00  0.3535353E-01  0.5045787E-04  0.0000000E+00  0.2513617E-03
  0.2171717E+00  0.0000000E+00  0.3535353E-01  0.5560331E-04  0.0000000E+00  0.2664452E-03
  0.2272727E+00  0.0000000E+00  0.3535353E-01  0.6138989E-04  0.0000000E+00  0.2830304E-03
  0.2373737E+00  0.0000000E+00  0.3535353E-01  0.6795568E-04  0.0000000E+00  0.3012869E-03
  0.2474747E+00  0.0000000E+00  0.3535353E-01  0.7548237E-04  0.0000000E+00  0.3214112E-03
  0.2575758E+00  0.0000000E+00  0.3535353E-01  0.8421381E-04  0.0000000E+00  0.3436287E-03
  0.2676768E+00  0.0000000E+00  0.3535353E-01  0.9448338E-04  0.0000000E+00  0.3681954E-03
  0.2777778E+00  0.0000000E+00  0.3535353E-01  0.1067539E-03  0.0000000E+00  0.3953933E-03
  0.2878788E+00  0.0000000E+00  0.3535353E-01  0.1216718E-03  0.0000000E+00  0.4255225E-03
  0.2979798E+00  0.0000000E+00  0.3535353E-01  0.1401253E-03  0.0000000E+00  0.4589021E-03