title = "dataset water"
variables = "x", "y", "z", "vx", "vy", "vz"
zone t = "velocities, solution time =  5.300E+01 days        " i =   99, j =   99, k =    1,  f=point
  0.5050505E-02  0.0000000E+00  0.5050505E-02  0.1279726E-06  0.0000000E+00  0.1543746E-03
  0.1515152E-01  0.0000000E+00  0.5050505E-02  0.3846534E-06  0.0000000E+00  0.1548985E-03
  0.2525252E-01  0.0000000E+00  0.5050505E-02  0.6435654E-06  0.0000000E+00  0.1559494E-03
  0.3535353E-01  0.0000000E+00  0.5050505E-02  0.9062443E-06  0.0000000E+00  0.1575337E-03
  0.4545455E-01  0.0000000E+00  0.5050505E-02  0.1174282E-05  0.0000000E+00  0.1596608E-03
  0.5555556E-01  0.0000000E+00  0.5050505E-02  0.1449344E-05  0.0000000E+00  0.1623440E-03
  0.6565657E-01  0.0000000E+00  0.5050505E-02  0.1733193E-05  0.0000000E+00  0.1655997E-03
  0.7575758E-01  0.0000000E+00  0.5050505E-02  0.2027717E-05  0.0000000E+00  0.1694487E-03
  0.8585858E-01  0.0000000E+00  0.5050505E-02  0.2334953E-05  0.0000000E+00  0.1739156E-03
  0.9595960E-01  0.0000000E+00  0.5050505E-02  0.2657129E-05  0.0000000E+00  0.1790298E-03
  0.1060606E+00  0.0000000E+00  0.5050505E-02  0.2996707E-05  0.0000000E+00  0.1848255E-03
  0.1161616E+00  0.0000000E+00  0.5050505E-02  0.3356436E-05  0.0000000E+00  0.1913427E-03
  0.1262626E+00  0.0000000E+00  0.5050505E-02  0.3739424E-05  0.0000000E+00  0.1986275E-03
  0.1363636E+00  0.0000000E+00  0.5050505E-02  0.4149223E-05  0.0000000E+00  0.2067334E-03
  0.1464646E+00  0.0000000E+00  0.5050505E-02  0.4589955E-05  0.0000000E+00  0.2157221E-03
  0.1565657E+00  0.0000000E+00  0.5050505E-02  0.5066462E-05  0.0000000E+00  0.2256652E-03
  0.1666667E+00  0.0000000E+00  0.5050505E-02  0.5584524E-05  0.0000000E+00  0.2366456E-03
  0.1767677E+00  0.0000000E+00  0.5050505E-02  0.6151152E-05  0.0000000E+00  0.2487604E-03
  0.1868687E+00  0.0000000E+00  0.5050505E-02  0.6775008E-05  0.0000000E+00  0.2621238E-03
  0.1969697E+00  0.0000000E+00  0.5050505E-02  0.7467002E-05  0.0000000E+00  0.2768715E-03
  0.2070707E+00  0.0000000E+00  0.5050505E-02  0.8241177E-05  0.0000000E+00  0.2931665E-03
  0.2171717E+00  0.0000000E+00  0.5050505E-02  0.9116060E-05  0.0000000E+00  0.3112080E-03
  0.2272727E+00  0.0000000E+00  0.5050505E-02  0.1011677E-04  0.0000000E+00  0.3312428E-03
  0.2373737E+00  0.0000000E+00  0.5050505E-02  0.1127849E-04  0.0000000E+00  0.3535844E-03
  0.2474747E+00  0.0000000E+00  0.5050505E-02  0.1265236E-04  0.0000000E+00  0.3786416E-03
  0.2575758E+00  0.0000000E+00  0.5050505E-02  0.1431612E-04  0.0000000E+00  0.4069654E-03
  0.2676768E+00  0.0000000E+00  0.5050505E-02  0.1639441E-04  0.0000000E+00  0.4393304E-03
  0.2777778E+00  0.0000000E+00  0.5050505E-02  0.1909834E-04  0.0000000E+00  0.4768826E-03
  0.2878788E+00  0.0000000E+00  0.5050505E-02  0.2279878E-04  0.0000000E+00  0.5214139E-03
  0.2979798E+00  0.0000000E+00  0.5050505E-02  0.2810997E-04  0.0000000E+00  0.5758183E-03
  0.3080808E+00  0.0000000E+00  0.5050505E-02  0.3557938E-04  0.0000000E+00  0.6443340E-03
  0.3181818E+00  0.0000000E+00  0.5050505E-02  0.4195696E-04  0.0000000E+00  0.7284280E-03
  0.3282828E+00  0.0000000E+00  0.5050505E-02  0.4534033E-04  0.0000000E+00  0.8240461E-03
  0.3383838E+00  0.0000000E+00  0.5050505E-02  0.4746490E-04  0.0000000E+00  0.9268496E-03
  0.3484848E+00  0.0000000E+00  0.5050505E-02  0.6059224E-04  0.0000000E+00  0.1048087E-02
  0.3585859E+00  0.0000000E+00  0.5050505E-02  0.9012524E-04  0.0000000E+00  0.1219760E-02
  0.3686869E+00  0.0000000E+00  0.5050505E-02  0.1621999E-03  0.0000000E+00  0.1513555E-02
  0.3787879E+00  0.0000000E+00  0.5050505E-02  0.2466687E-03  0.0000000E+00  0.2006711E-02
  0.3888889E+00  0.0000000E+00  0.5050505E-02  0.5851707E-05  0.0000000E+00  0.2317079E-02
  0.3989899E+00  0.0000000E+00  0.5050505E-02 -0.8495315E-04  0.0000000E+00  0.2215650E-02
  0.4090909E+00  0.0000000E+00  0.5050505E-02 -0.9684970E-04  0.0000000E+00  0.1985495E-02
  0.4191919E+00  0.0000000E+00  0.5050505E-02 -0.3794936E-04  0.0000000E+00  0.1817537E-02
  0.4292929E+00  0.0000000E+00  0.5050505E-02  0.5758360E-06  0.0000000E+00  0.1771327E-02
  0.4393939E+00  0.0000000E+00  0.5050505E-02 -0.1306717E-04  0.0000000E+00  0.1755939E-02
  0.4494950E+00  0.0000000E+00  0.5050505E-02  0.1926519E-04  0.0000000E+00  0.1763576E-02
  0.4595959E+00  0.0000000E+00  0.5050505E-02 -0.3351466E-04  0.0000000E+00  0.1746183E-02
  0.4696970E+00  0.0000000E+00  0.5050505E-02 -0.9068347E-05  0.0000000E+00  0.1693953E-02
  0.4797980E+00  0.0000000E+00  0.5050505E-02  0.5206761E-05  0.0000000E+00  0.1689226E-02
  0.4898990E+00  0.0000000E+00  0.5050505E-02  0.1386073E-04  0.0000000E+00  0.1712591E-02
  0.5000000E+00  0.0000000E+00  0.5050505E-02  0.1854595E-04  0.0000000E+00  0.1752406E-02
  0.5101010E+00  0.0000000E+00  0.5050505E-02 -0.5360975E-04  0.0000000E+00  0.1709894E-02
  0.5202020E+00  0.0000000E+00  0.5050505E-02 -0.7371259E-04  0.0000000E+00  0.1556525E-02
  0.5303030E+00  0.0000000E+00  0.5050505E-02 -0.4967601E-04  0.0000000E+00  0.1409962E-02
  0.5404040E+00  0.0000000E+00  0.5050505E-02 -0.3712516E-04  0.0000000E+00  0.1308130E-02
  0.5505050E+00  0.0000000E+00  0.5050505E-02 -0.2847849E-04  0.0000000E+00  0.1231864E-02
  0.5606061E+00  0.0000000E+00  0.5050505E-02 -0.2092319E-04  0.0000000E+00  0.1174818E-02
  0.5707071E+00  0.0000000E+00  0.5050505E-02 -0.1231521E-04  0.0000000E+00  0.1136608E-02
  0.5808081E+00  0.0000000E+00  0.5050505E-02 -0.6088064E-04  0.0000000E+00  0.1053756E-02
  0.5909091E+00  0.0000000E+00  0.5050505E-02 -0.5461999E-04  0.0000000E+00  0.9242541E-03
  0.6010101E+00  0.0000000E+00  0.5050505E-02 -0.3737142E-04  0.0000000E+00  0.8222941E-03
  0.6111111E+00  0.0000000E+00  0.5050505E-02 -0.2882005E-04  0.0000000E+00  0.7495915E-03
  0.6212121E+00  0.0000000E+00  0.5050505E-02 -0.2376637E-04  0.0000000E+00  0.6922359E-03
  0.6313131E+00  0.0000000E+00  0.5050505E-02 -0.2038344E-04  0.0000000E+00  0.6443605E-03
  0.6414142E+00  0.0000000E+00  0.5050505E-02 -0.1792674E-04  0.0000000E+00  0.6030244E-03
  0.6515151E+00  0.0000000E+00  0.5050505E-02 -0.1604302E-04  0.0000000E+00  0.5665323E-03
  0.6616161E+00  0.0000000E+00  0.5050505E-02 -0.1453941E-04  0.0000000E+00  0.5338084E-03
  0.6717172E+00  0.0000000E+00  0.5050505E-02 -0.1329849E-04  0.0000000E+00  0.5041275E-03
  0.6818182E+00  0.0000000E+00  0.5050505E-02 -0.1224392E-04  0.0000000E+00  0.4769829E-03
  0.6919192E+00  0.0000000E+00  0.5050505E-02 -0.1132473E-04  0.0000000E+00  0.4520112E-03
  0.7020202E+00  0.0000000E+00  0.5050505E-02 -0.1050685E-04  0.0000000E+00  0.4289442E-03
  0.7121212E+00  0.0000000E+00  0.5050505E-02 -0.9767690E-05  0.0000000E+00  0.4075776E-03
  0.7222222E+00  0.0000000E+00  0.5050505E-02 -0.9092317E-05  0.0000000E+00  0.3877491E-03
  0.7323232E+00  0.0000000E+00  0.5050505E-02 -0.8470659E-05  0.0000000E+00  0.3693253E-03
  0.7424242E+00  0.0000000E+00  0.5050505E-02 -0.7895619E-05  0.0000000E+00  0.3521924E-03
  0.7525253E+00  0.0000000E+00  0.5050505E-02 -0.7361824E-05  0.0000000E+00  0.3362510E-03
  0.7626263E+00  0.0000000E+00  0.5050505E-02 -0.6864891E-05  0.0000000E+00  0.3214133E-03
  0.7727273E+00  0.0000000E+00  0.5050505E-02 -0.6401014E-05  0.0000000E+00  0.3076007E-03
  0.7828283E+00  0.0000000E+00  0.5050505E-02 -0.5966757E-05  0.0000000E+00  0.2947433E-03
  0.7929293E+00  0.0000000E+00  0.5050505E-02 -0.5558980E-05  0.0000000E+00  0.2827786E-03
  0.8030303E+00  0.0000000E+00  0.5050505E-02 -0.5174805E-05  0.0000000E+00  0.2716511E-03
  0.8131313E+00  0.0000000E+00  0.5050505E-02 -0.4811615E-05  0.0000000E+00  0.2613113E-03
  0.8232324E+00  0.0000000E+00  0.5050505E-02 -0.4467059E-05  0.0000000E+00  0.2517155E-03
  0.8333333E+00  0.0000000E+00  0.5050505E-02 -0.4139046E-05  0.0000000E+00  0.2428248E-03
  0.8434343E+00  0.0000000E+00  0.5050505E-02 -0.3825732E-05  0.0000000E+00  0.2346049E-03
  0.8535354E+00  0.0000000E+00  0.5050505E-02 -0.3525501E-05  0.0000000E+00  0.2270251E-03
  0.8636364E+00  0.0000000E+00  0.5050505E-02 -0.3236941E-05  0.0000000E+00  0.2200584E-03
  0.8737374E+00  0.0000000E+00  0.5050505E-02 -0.2958809E-05  0.0000000E+00  0.2136804E-03
  0.8838384E+00  0.0000000E+00  0.5050505E-02 -0.2690007E-05  0.0000000E+00  0.2078695E-03
  0.8939394E+00  0.0000000E+00  0.5050505E-02 -0.2429552E-05  0.0000000E+00  0.2026065E-03
  0.9040404E+00  0.0000000E+00  0.5050505E-02 -0.2176550E-05  0.0000000E+00  0.1978740E-03
  0.9141414E+00  0.0000000E+00  0.5050505E-02 -0.1930172E-05  0.0000000E+00  0.1936568E-03
  0.9242424E+00  0.0000000E+00  0.5050505E-02 -0.1689640E-05  0.0000000E+00  0.1899412E-03
  0.9343435E+00  0.0000000E+00  0.5050505E-02 -0.1454211E-05  0.0000000E+00  0.1867155E-03
  0.9444444E+00  0.0000000E+00  0.5050505E-02 -0.1223167E-05  0.0000000E+00  0.1839693E-03
  0.9545454E+00  0.0000000E+00  0.5050505E-02 -0.9958073E-06  0.0000000E+00  0.1816939E-03
  0.9646465E+00  0.0000000E+00  0.5050505E-02 -0.7714427E-06  0.0000000E+00  0.1798821E-03
  0.9747475E+00  0.0000000E+00  0.5050505E-02 -0.5493929E-06  0.0000000E+00  0.1785283E-03
  0.9848485E+00  0.0000000E+00  0.5050505E-02 -0.3289852E-06  0.0000000E+00  0.1776280E-03
  0.9974747E+00  0.0000000E+00  0.5050505E-02 -0.1095544E-06  0.0000000E+00  0.1771786E-03
  0.5050505E-02  0.0000000E+00  0.1515152E-01  0.3829566E-06  0.0000000E+00  0.1541139E-03
  0.1515152E-01  0.0000000E+00  0.1515152E-01  0.1151076E-05  0.0000000E+00  0.1546355E-03
  0.2525252E-01  0.0000000E+00  0.1515152E-01  0.1925877E-05  0.0000000E+00  0.1556818E-03
  0.3535353E-01  0.0000000E+00  0.1515152E-01  0.2711949E-05  0.0000000E+00  0.1572589E-03
  0.4545455E-01  0.0000000E+00  0.1515152E-01  0.3514044E-05  0.0000000E+00  0.1593765E-03
  0.5555556E-01  0.0000000E+00  0.1515152E-01  0.4337138E-05  0.0000000E+00  0.1620472E-03
  0.6565657E-01  0.0000000E+00  0.1515152E-01  0.5186494E-05  0.0000000E+00  0.1652877E-03
  0.7575758E-01  0.0000000E+00  0.1515152E-01  0.6067737E-05  0.0000000E+00  0.1691183E-03
  0.8585858E-01  0.0000000E+00  0.1515152E-01  0.6986948E-05  0.0000000E+00  0.1735632E-03
  0.9595960E-01  0.0000000E+00  0.1515152E-01  0.7950768E-05  0.0000000E+00  0.1786516E-03
  0.1060606E+00  0.0000000E+00  0.1515152E-01  0.8966525E-05  0.0000000E+00  0.1844171E-03
  0.1161616E+00  0.0000000E+00  0.1515152E-01  0.1004240E-04  0.0000000E+00  0.1908990E-03
  0.1262626E+00  0.0000000E+00  0.1515152E-01  0.1118763E-04  0.0000000E+00  0.1981429E-03
  0.1363636E+00  0.0000000E+00  0.1515152E-01  0.1241276E-04  0.0000000E+00  0.2062011E-03
  0.1464646E+00  0.0000000E+00  0.1515152E-01  0.1372999E-04  0.0000000E+00  0.2151341E-03
  0.1565657E+00  0.0000000E+00  0.1515152E-01  0.1515367E-04  0.0000000E+00  0.2250117E-03
  0.1666667E+00  0.0000000E+00  0.1515152E-01  0.1670083E-04  0.0000000E+00  0.2359150E-03
  0.1767677E+00  0.0000000E+00  0.1515152E-01  0.1839213E-04  0.0000000E+00  0.2479380E-03
  0.1868687E+00  0.0000000E+00  0.1515152E-01  0.2025297E-04  0.0000000E+00  0.2611912E-03
  0.1969697E+00  0.0000000E+00  0.1515152E-01  0.2231526E-04  0.0000000E+00  0.2758048E-03
  0.2070707E+00  0.0000000E+00  0.1515152E-01  0.2461987E-04  0.0000000E+00  0.2919345E-03
  0.2171717E+00  0.0000000E+00  0.1515152E-01  0.2722041E-04  0.0000000E+00  0.3097679E-03
  0.2272727E+00  0.0000000E+00  0.1515152E-01  0.3018902E-04  0.0000000E+00  0.3295357E-03
  0.2373737E+00  0.0000000E+00  0.1515152E-01  0.3362576E-04  0.0000000E+00  0.3515252E-03
  0.2474747E+00  0.0000000E+00  0.1515152E-01  0.3767421E-04  0.0000000E+00  0.3761027E-03
  0.2575758E+00  0.0000000E+00  0.1515152E-01  0.4254900E-04  0.0000000E+00  0.4037457E-03
  0.2676768E+00  0.0000000E+00  0.1515152E-01  0.4858769E-04  0.0000000E+00  0.4350956E-03
  0.2777778E+00  0.0000000E+00  0.1515152E-01  0.5635724E-04  0.0000000E+00  0.4710522E-03
  0.2878788E+00  0.0000000E+00  0.1515152E-01  0.6689803E-04  0.0000000E+00  0.5130045E-03
  0.2979798E+00  0.0000000E+00  0.1515152E-01  0.8235810E-04  0.0000000E+00  0.5636701E-03
  0.3080808E+00  0.0000000E+00  0.1515152E-01  0.1078782E-03  0.0000000E+00  0.6311524E-03
  0.3181818E+00  0.0000000E+00  0.1515152E-01  0.1031462E-03  0.0000000E+00  0.6916609E-03
  0.3282828E+00  0.0000000E+00  0.1515152E-01  0.1121671E-03  0.0000000E+00  0.7362484E-03
  0.3383838E+00  0.0000000E+00  0.1515152E-01  0.1331077E-03  0.0000000E+00  0.8018307E-03
  0.3484848E+00  0.0000000E+00  0.1515152E-01  0.1681224E-03  0.0000000E+00  0.8959246E-03
  0.3585859E+00  0.0000000E+00  0.1515152E-01  0.2346707E-03  0.0000000E+00  0.1009012E-02
  0.3686869E+00  0.0000000E+00  0.1515152E-01  0.3683030E-03  0.0000000E+00  0.1119834E-02
  0.3787879E+00  0.0000000E+00  0.1515152E-01  0.5342890E-03  0.0000000E+00  0.1216571E-02
  0.3888889E+00  0.0000000E+00  0.1515152E-01  0.2891366E-03  0.0000000E+00  0.1596006E-02
  0.3989899E+00  0.0000000E+00  0.1515152E-01 -0.2041344E-03  0.0000000E+00  0.1883250E-02
  0.4090909E+00  0.0000000E+00  0.1515152E-01 -0.2284786E-03  0.0000000E+00  0.1792835E-02
  0.4191919E+00  0.0000000E+00  0.1515152E-01 -0.9650999E-04  0.0000000E+00  0.1721157E-02
  0.4292929E+00  0.0000000E+00  0.1515152E-01  0.1358127E-06  0.0000000E+00  0.1693339E-02
  0.4393939E+00  0.0000000E+00  0.1515152E-01 -0.3222831E-04  0.0000000E+00  0.1684148E-02
  0.4494950E+00  0.0000000E+00  0.1515152E-01  0.4378427E-04  0.0000000E+00  0.1683214E-02
  0.4595959E+00  0.0000000E+00  0.1515152E-01 -0.7975402E-04  0.0000000E+00  0.1673701E-02
  0.4696970E+00  0.0000000E+00  0.1515152E-01 -0.1873134E-04  0.0000000E+00  0.1656260E-02
  0.4797980E+00  0.0000000E+00  0.1515152E-01  0.1990323E-04  0.0000000E+00  0.1667314E-02
  0.4898990E+00  0.0000000E+00  0.1515152E-01  0.4420801E-04  0.0000000E+00  0.1700260E-02
  0.5000000E+00  0.0000000E+00  0.1515152E-01  0.2038160E-04  0.0000000E+00  0.1700601E-02
  0.5101010E+00  0.0000000E+00  0.1515152E-01 -0.1778878E-03  0.0000000E+00  0.1593527E-02
  0.5202020E+00  0.0000000E+00  0.1515152E-01 -0.1826221E-03  0.0000000E+00  0.1464189E-02
  0.5303030E+00  0.0000000E+00  0.1515152E-01 -0.1386936E-03  0.0000000E+00  0.1374246E-02
  0.5404040E+00  0.0000000E+00  0.1515152E-01 -0.1075426E-03  0.0000000E+00  0.1287766E-02
  0.5505050E+00  0.0000000E+00  0.1515152E-01 -0.8410604E-04  0.0000000E+00  0.1216460E-02
  0.5606061E+00  0.0000000E+00  0.1515152E-01 -0.6339069E-04  0.0000000E+00  0.1159422E-02
  0.5707071E+00  0.0000000E+00  0.1515152E-01 -0.7224417E-04  0.0000000E+00  0.1079720E-02
  0.5808081E+00  0.0000000E+00  0.1515152E-01 -0.1778419E-03  0.0000000E+00  0.9625244E-03
  0.5909091E+00  0.0000000E+00  0.1515152E-01 -0.1408492E-03  0.0000000E+00  0.8647499E-03
  0.6010101E+00  0.0000000E+00  0.1515152E-01 -0.1042027E-03  0.0000000E+00  0.7971194E-03
  0.6111111E+00  0.0000000E+00  0.1515152E-01 -0.8321833E-04  0.0000000E+00  0.7365817E-03
  0.6212121E+00  0.0000000E+00  0.1515152E-01 -0.6971421E-04  0.0000000E+00  0.6843680E-03
  0.6313131E+00  0.0000000E+00  0.1515152E-01 -0.6024840E-04  0.0000000E+00  0.6390655E-03
  0.6414142E+00  0.0000000E+00  0.1515152E-01 -0.5320687E-04  0.0000000E+00  0.5992063E-03
  0.6515151E+00  0.0000000E+00  0.1515152E-01 -0.4773794E-04  0.0000000E+00  0.5636467E-03
  0.6616161E+00  0.0000000E+00  0.1515152E-01 -0.4333986E-04  0.0000000E+00  0.5315462E-03
  0.6717172E+00  0.0000000E+00  0.1515152E-01 -0.3969165E-04  0.0000000E+00  0.5022962E-03
  0.6818182E+00  0.0000000E+00  0.1515152E-01 -0.3657861E-04  0.0000000E+00  0.4754563E-03
  0.6919192E+00  0.0000000E+00  0.1515152E-01 -0.3385557E-04  0.0000000E+00  0.4507051E-03
  0.7020202E+00  0.0000000E+00  0.1515152E-01 -0.3142537E-04  0.0000000E+00  0.4278029E-03
  0.7121212E+00  0.0000000E+00  0.1515152E-01 -0.2922386E-04  0.0000000E+00  0.4065642E-03
  0.7222222E+00  0.0000000E+00  0.1515152E-01 -0.2720886E-04  0.0000000E+00  0.3868396E-03
  0.7323232E+00  0.0000000E+00  0.1515152E-01 -0.2535199E-04  0.0000000E+00  0.3685031E-03
  0.7424242E+00  0.0000000E+00  0.1515152E-01 -0.2363315E-04  0.0000000E+00  0.3514458E-03
  0.7525253E+00  0.0000000E+00  0.1515152E-01 -0.2203697E-04  0.0000000E+00  0.3355710E-03
  0.7626263E+00  0.0000000E+00  0.1515152E-01 -0.2055072E-04  0.0000000E+00  0.3207922E-03
  0.7727273E+00  0.0000000E+00  0.1515152E-01 -0.1916318E-04  0.0000000E+00  0.3070320E-03
  0.7828283E+00  0.0000000E+00  0.1515152E-01 -0.1786415E-04  0.0000000E+00  0.2942210E-03
  0.7929293E+00  0.0000000E+00  0.1515152E-01 -0.1664425E-04  0.0000000E+00  0.2822973E-03
  0.8030303E+00  0.0000000E+00  0.1515152E-01 -0.1549485E-04  0.0000000E+00  0.2712058E-03
  0.8131313E+00  0.0000000E+00  0.1515152E-01 -0.1440811E-04  0.0000000E+00  0.2608976E-03
  0.8232324E+00  0.0000000E+00  0.1515152E-01 -0.1337700E-04  0.0000000E+00  0.2513294E-03
  0.8333333E+00  0.0000000E+00  0.1515152E-01 -0.1239525E-04  0.0000000E+00  0.2424630E-03
  0.8434343E+00  0.0000000E+00  0.1515152E-01 -0.1145735E-04  0.0000000E+00  0.2342644E-03
  0.8535354E+00  0.0000000E+00  0.1515152E-01 -0.1055849E-04  0.0000000E+00  0.2267033E-03
  0.8636364E+00  0.0000000E+00  0.1515152E-01 -0.9694468E-05  0.0000000E+00  0.2197531E-03
  0.8737374E+00  0.0000000E+00  0.1515152E-01 -0.8861581E-05  0.0000000E+00  0.2133897E-03
  0.8838384E+00  0.0000000E+00  0.1515152E-01 -0.8056568E-05  0.0000000E+00  0.2075917E-03
  0.8939394E+00  0.0000000E+00  0.1515152E-01 -0.7276506E-05  0.0000000E+00  0.2023402E-03
  0.9040404E+00  0.0000000E+00  0.1515152E-01 -0.6518734E-05  0.0000000E+00  0.1976179E-03
  0.9141414E+00  0.0000000E+00  0.1515152E-01 -0.5780789E-05  0.0000000E+00  0.1934096E-03
  0.9242424E+00  0.0000000E+00  0.1515152E-01 -0.5060351E-05  0.0000000E+00  0.1897019E-03
  0.9343435E+00  0.0000000E+00  0.1515152E-01 -0.4355204E-05  0.0000000E+00  0.1864830E-03
  0.9444444E+00  0.0000000E+00  0.1515152E-01 -0.3663204E-05  0.0000000E+00  0.1837426E-03
  0.9545454E+00  0.0000000E+00  0.1515152E-01 -0.2982255E-05  0.0000000E+00  0.1814720E-03
  0.9646465E+00  0.0000000E+00  0.1515152E-01 -0.2310294E-05  0.0000000E+00  0.1796640E-03
  0.9747475E+00  0.0000000E+00  0.1515152E-01 -0.1645285E-05  0.0000000E+00  0.1783129E-03
  0.9848485E+00  0.0000000E+00  0.1515152E-01 -0.9852122E-06  0.0000000E+00  0.1774145E-03
  0.9974747E+00  0.0000000E+00  0.1515152E-01 -0.3280803E-06  0.0000000E+00  0.1769660E-03
  0.5050505E-02  0.0000000E+00  0.2525252E-01  0.6354830E-06  0.0000000E+00  0.1536009E-03
  0.1515152E-01  0.0000000E+00  0.2525252E-01  0.1910113E-05  0.0000000E+00  0.1541180E-03
  0.2525252E-01  0.0000000E+00  0.2525252E-01  0.3195820E-05  0.0000000E+00  0.1551551E-03
  0.3535353E-01  0.0000000E+00  0.2525252E-01  0.4500198E-05  0.0000000E+00  0.1567182E-03
  0.4545455E-01  0.0000000E+00  0.2525252E-01  0.5831101E-05  0.0000000E+00  0.1588167E-03
  0.5555556E-01  0.0000000E+00  0.2525252E-01  0.7196747E-05  0.0000000E+00  0.1614631E-03
  0.6565657E-01  0.0000000E+00  0.2525252E-01  0.8605822E-05  0.0000000E+00  0.1646735E-03
  0.7575758E-01  0.0000000E+00  0.2525252E-01  0.1006761E-04  0.0000000E+00  0.1684676E-03
  0.8585858E-01  0.0000000E+00  0.2525252E-01  0.1159212E-04  0.0000000E+00  0.1728694E-03
  0.9595960E-01  0.0000000E+00  0.2525252E-01  0.1319029E-04  0.0000000E+00  0.1779068E-03
  0.1060606E+00  0.0000000E+00  0.2525252E-01  0.1487417E-04  0.0000000E+00  0.1836128E-03
  0.1161616E+00  0.0000000E+00  0.2525252E-01  0.1665716E-04  0.0000000E+00  0.1900255E-03
  0.1262626E+00  0.0000000E+00  0.2525252E-01  0.1855437E-04  0.0000000E+00  0.1971889E-03
  0.1363636E+00  0.0000000E+00  0.2525252E-01  0.2058304E-04  0.0000000E+00  0.2051534E-03
  0.1464646E+00  0.0000000E+00  0.2525252E-01  0.2276302E-04  0.0000000E+00  0.2139771E-03
  0.1565657E+00  0.0000000E+00  0.2525252E-01  0.2511752E-04  0.0000000E+00  0.2237268E-03
  0.1666667E+00  0.0000000E+00  0.2525252E-01  0.2767409E-04  0.0000000E+00  0.2344793E-03
  0.1767677E+00  0.0000000E+00  0.2525252E-01  0.3046587E-04  0.0000000E+00  0.2463235E-03
  0.1868687E+00  0.0000000E+00  0.2525252E-01  0.3353344E-04  0.0000000E+00  0.2593624E-03
  0.1969697E+00  0.0000000E+00  0.2525252E-01  0.3692734E-04  0.0000000E+00  0.2737163E-03
  0.2070707E+00  0.0000000E+00  0.2525252E-01  0.4071175E-04  0.0000000E+00  0.2895267E-03
  0.2171717E+00  0.0000000E+00  0.2525252E-01  0.4496995E-04  0.0000000E+00  0.3069614E-03
  0.2272727E+00  0.0000000E+00  0.2525252E-01  0.4981243E-04  0.0000000E+00  0.3262212E-03
  0.2373737E+00  0.0000000E+00  0.2525252E-01  0.5538964E-04  0.0000000E+00  0.3475482E-03
  0.2474747E+00  0.0000000E+00  0.2525252E-01  0.6191213E-04  0.0000000E+00  0.3712367E-03
  0.2575758E+00  0.0000000E+00  0.2525252E-01  0.6968352E-04  0.0000000E+00  0.3976439E-03
  0.2676768E+00  0.0000000E+00  0.2525252E-01  0.7915606E-04  0.0000000E+00  0.4271924E-03
  0.2777778E+00  0.0000000E+00  0.2525252E-01  0.9102761E-04  0.0000000E+00  0.4603258E-03
  0.2878788E+00  0.0000000E+00  0.2525252E-01  0.1064228E-03  0.0000000E+00  0.4972555E-03
  0.2979798E+00  0.0000000E+00  0.2525252E-01  0.1272815E-03  0.0000000E+00  0.5367767E-03
  0.3080808E+00  0.0000000E+00  0.2525252E-01  0.1574352E-03  0.0000000E+00  0.5707941E-03
  0.3181818E+00  0.0000000E+00  0.2525252E-01  0.1518684E-03  0.0000000E+00  0.6164598E-03
  0.3282828E+00  0.0000000E+00  0.2525252E-01  0.1684629E-03  0.0000000E+00  0.6859938E-03
  0.3383838E+00  0.0000000E+00  0.2525252E-01  0.2068681E-03  0.0000000E+00  0.7627383E-03
  0.3484848E+00  0.0000000E+00  0.2525252E-01  0.2484847E-03  0.0000000E+00  0.8387212E-03
  0.3585859E+00  0.0000000E+00  0.2525252E-01  0.3217508E-03  0.0000000E+00  0.9122401E-03
  0.3686869E+00  0.0000000E+00  0.2525252E-01  0.4386232E-03  0.0000000E+00  0.9786874E-03
  0.3787879E+00  0.0000000E+00  0.2525252E-01  0.5809352E-03  0.0000000E+00  0.1016434E-02
  0.3888889E+00  0.0000000E+00  0.2525252E-01  0.6126788E-03  0.0000000E+00  0.1075798E-02
  0.3989899E+00  0.0000000E+00  0.2525252E-01 -0.3333602E-04  0.0000000E+00  0.1378549E-02
  0.4090909E+00  0.0000000E+00  0.2525252E-01 -0.2713051E-03  0.0000000E+00  0.1616807E-02
  0.4191919E+00  0.0000000E+00  0.2525252E-01 -0.1252097E-03  0.0000000E+00  0.1592266E-02
  0.4292929E+00  0.0000000E+00  0.2525252E-01 -0.3148676E-05  0.0000000E+00  0.1577731E-02
  0.4393939E+00  0.0000000E+00  0.2525252E-01 -0.3154427E-04  0.0000000E+00  0.1582986E-02
  0.4494950E+00  0.0000000E+00  0.2525252E-01  0.4085317E-04  0.0000000E+00  0.1581337E-02
  0.4595959E+00  0.0000000E+00  0.2525252E-01 -0.8574608E-04  0.0000000E+00  0.1578909E-02
  0.4696970E+00  0.0000000E+00  0.2525252E-01 -0.1035828E-04  0.0000000E+00  0.1597578E-02
  0.4797980E+00  0.0000000E+00  0.2525252E-01  0.4523091E-04  0.0000000E+00  0.1629534E-02
  0.4898990E+00  0.0000000E+00  0.2525252E-01  0.7632748E-04  0.0000000E+00  0.1671115E-02
  0.5000000E+00  0.0000000E+00  0.2525252E-01 -0.3354718E-04  0.0000000E+00  0.1644050E-02
  0.5101010E+00  0.0000000E+00  0.2525252E-01 -0.2953274E-03  0.0000000E+00  0.1537232E-02
  0.5202020E+00  0.0000000E+00  0.2525252E-01 -0.2561005E-03  0.0000000E+00  0.1430913E-02
  0.5303030E+00  0.0000000E+00  0.2525252E-01 -0.2157207E-03  0.0000000E+00  0.1337634E-02
  0.5404040E+00  0.0000000E+00  0.2525252E-01 -0.1704110E-03  0.0000000E+00  0.1256164E-02
  0.5505050E+00  0.0000000E+00  0.2525252E-01 -0.1366289E-03  0.0000000E+00  0.1190218E-02
  0.5606061E+00  0.0000000E+00  0.2525252E-01 -0.1315755E-03  0.0000000E+00  0.1105701E-02
  0.5707071E+00  0.0000000E+00  0.2525252E-01 -0.2026317E-03  0.0000000E+00  0.9586645E-03
  0.5808081E+00  0.0000000E+00  0.2525252E-01 -0.2451665E-03  0.0000000E+00  0.8528436E-03
  0.5909091E+00  0.0000000E+00  0.2525252E-01 -0.1937994E-03  0.0000000E+00  0.8160020E-03
  0.6010101E+00  0.0000000E+00  0.2525252E-01 -0.1567750E-03  0.0000000E+00  0.7665943E-03
  0.6111111E+00  0.0000000E+00  0.2525252E-01 -0.1307123E-03  0.0000000E+00  0.7169385E-03
  0.6212121E+00  0.0000000E+00  0.2525252E-01 -0.1118768E-03  0.0000000E+00  0.6710166E-03
  0.6313131E+00  0.0000000E+00  0.2525252E-01 -0.9780380E-04  0.0000000E+00  0.6295270E-03
  0.6414142E+00  0.0000000E+00  0.2525252E-01 -0.8696397E-04  0.0000000E+00  0.5921171E-03
  0.6515151E+00  0.0000000E+00  0.2525252E-01 -0.7837839E-04  0.0000000E+00  0.5582032E-03
  0.6616161E+00  0.0000000E+00  0.2525252E-01 -0.7138904E-04  0.0000000E+00  0.5272391E-03
  0.6717172E+00  0.0000000E+00  0.2525252E-01 -0.6553867E-04  0.0000000E+00  0.4987862E-03
  0.6818182E+00  0.0000000E+00  0.2525252E-01 -0.6050747E-04  0.0000000E+00  0.4725132E-03
  0.6919192E+00  0.0000000E+00  0.2525252E-01 -0.5607573E-04  0.0000000E+00  0.4481738E-03
  0.7020202E+00  0.0000000E+00  0.2525252E-01 -0.5209694E-04  0.0000000E+00  0.4255807E-03
  0.7121212E+00  0.0000000E+00  0.2525252E-01 -0.4847574E-04  0.0000000E+00  0.4045841E-03
  0.7222222E+00  0.0000000E+00  0.2525252E-01 -0.4515030E-04  0.0000000E+00  0.3850576E-03
  0.7323232E+00  0.0000000E+00  0.2525252E-01 -0.4207925E-04  0.0000000E+00  0.3668897E-03
  0.7424242E+00  0.0000000E+00  0.2525252E-01 -0.3923290E-04  0.0000000E+00  0.3499795E-03
  0.7525253E+00  0.0000000E+00  0.2525252E-01 -0.3658790E-04  0.0000000E+00  0.3342348E-03
  0.7626263E+00  0.0000000E+00  0.2525252E-01 -0.3412426E-04  0.0000000E+00  0.3195719E-03
  0.7727273E+00  0.0000000E+00  0.2525252E-01 -0.3182390E-04  0.0000000E+00  0.3059147E-03
  0.7828283E+00  0.0000000E+00  0.2525252E-01 -0.2967007E-04  0.0000000E+00  0.2931950E-03
  0.7929293E+00  0.0000000E+00  0.2525252E-01 -0.2764719E-04  0.0000000E+00  0.2813519E-03
  0.8030303E+00  0.0000000E+00  0.2525252E-01 -0.2574091E-04  0.0000000E+00  0.2703311E-03
  0.8131313E+00  0.0000000E+00  0.2525252E-01 -0.2393816E-04  0.0000000E+00  0.2600850E-03
  0.8232324E+00  0.0000000E+00  0.2525252E-01 -0.2222723E-04  0.0000000E+00  0.2505711E-03
  0.8333333E+00  0.0000000E+00  0.2525252E-01 -0.2059772E-04  0.0000000E+00  0.2417521E-03
  0.8434343E+00  0.0000000E+00  0.2525252E-01 -0.1904055E-04  0.0000000E+00  0.2335950E-03
  0.8535354E+00  0.0000000E+00  0.2525252E-01 -0.1754777E-04  0.0000000E+00  0.2260706E-03
  0.8636364E+00  0.0000000E+00  0.2525252E-01 -0.1611247E-04  0.0000000E+00  0.2191526E-03
  0.8737374E+00  0.0000000E+00  0.2525252E-01 -0.1472860E-04  0.0000000E+00  0.2128178E-03
  0.8838384E+00  0.0000000E+00  0.2525252E-01 -0.1339082E-04  0.0000000E+00  0.2070453E-03
  0.8939394E+00  0.0000000E+00  0.2525252E-01 -0.1209434E-04  0.0000000E+00  0.2018162E-03
  0.9040404E+00  0.0000000E+00  0.2525252E-01 -0.1083481E-04  0.0000000E+00  0.1971139E-03
  0.9141414E+00  0.0000000E+00  0.2525252E-01 -0.9608169E-05  0.0000000E+00  0.1929234E-03
  0.9242424E+00  0.0000000E+00  0.2525252E-01 -0.8410617E-05  0.0000000E+00  0.1892312E-03
  0.9343435E+00  0.0000000E+00  0.2525252E-01 -0.7238491E-05  0.0000000E+00  0.1860256E-03
  0.9444444E+00  0.0000000E+00  0.2525252E-01 -0.6088246E-05  0.0000000E+00  0.1832966E-03
  0.9545454E+00  0.0000000E+00  0.2525252E-01 -0.4956410E-05  0.0000000E+00  0.1810355E-03
  0.9646465E+00  0.0000000E+00  0.2525252E-01 -0.3839559E-05  0.0000000E+00  0.1792350E-03
  0.9747475E+00  0.0000000E+00  0.2525252E-01 -0.2734310E-05  0.0000000E+00  0.1778895E-03
  0.9848485E+00  0.0000000E+00  0.2525252E-01 -0.1637308E-05  0.0000000E+00  0.1769948E-03
  0.9974747E+00  0.0000000E+00  0.2525252E-01 -0.5452260E-06  0.0000000E+00  0.1765481E-03
  0.5050505E-02  0.0000000E+00  0.3535353E-01  0.8845013E-06  0.0000000E+00  0.1528457E-03
  0.1515152E-01  0.0000000E+00  0.3535353E-01  0.2658591E-05  0.0000000E+00  0.1533561E-03
  0.2525252E-01  0.0000000E+00  0.3535353E-01  0.4448048E-05  0.0000000E+00  0.1543796E-03
  0.3535353E-01  0.0000000E+00  0.3535353E-01  0.6263383E-05  0.0000000E+00  0.1559222E-03
  0.4545455E-01  0.0000000E+00  0.3535353E-01  0.8115466E-05  0.0000000E+00  0.1579926E-03
  0.5555556E-01  0.0000000E+00  0.3535353E-01  0.1001565E-04  0.0000000E+00  0.1606031E-03
  0.6565657E-01  0.0000000E+00  0.3535353E-01  0.1197594E-04  0.0000000E+00  0.1637691E-03
  0.7575758E-01  0.0000000E+00  0.3535353E-01  0.1400913E-04  0.0000000E+00  0.1675097E-03
  0.8585858E-01  0.0000000E+00  0.3535353E-01  0.1612902E-04  0.0000000E+00  0.1718479E-03
  0.9595960E-01  0.0000000E+00  0.3535353E-01  0.1835062E-04  0.0000000E+00  0.1768106E-03
  0.1060606E+00  0.0000000E+00  0.3535353E-01  0.2069047E-04  0.0000000E+00  0.1824294E-03
  0.1161616E+00  0.0000000E+00  0.3535353E-01  0.2316691E-04  0.0000000E+00  0.1887406E-03
  0.1262626E+00  0.0000000E+00  0.3535353E-01  0.2580054E-04  0.0000000E+00  0.1957861E-03
  0.1363636E+00  0.0000000E+00  0.3535353E-01  0.2861475E-04  0.0000000E+00  0.2036138E-03
  0.1464646E+00  0.0000000E+00  0.3535353E-01  0.3163638E-04  0.0000000E+00  0.2122782E-03
  0.1565657E+00  0.0000000E+00  0.3535353E-01  0.3489666E-04  0.0000000E+00  0.2218419E-03
  0.1666667E+00  0.0000000E+00  0.3535353E-01  0.3843238E-04  0.0000000E+00  0.2323760E-03
  0.1767677E+00  0.0000000E+00  0.3535353E-01  0.4228749E-04  0.0000000E+00  0.2439619E-03
  0.1868687E+00  0.0000000E+00  0.3535353E-01  0.4651534E-04  0.0000000E+00  0.2566928E-03
  0.1969697E+00  0.0000000E+00  0.3535353E-01  0.5118169E-04  0.0000000E+00  0.2706755E-03
  0.2070707E+00  0.0000000E+00  0.3535353E-01  0.5636901E-04  0.0000000E+00  0.2860333E-03
  0.2171717E+00  0.0000000E+00  0.3535353E-01  0.6218259E-04  0.0000000E+00  0.3029078E-03
  0.2272727E+00  0.0000000E+00  0.3535353E-01  0.6875951E-04  0.0000000E+00  0.3214626E-03
  0.2373737E+00  0.0000000E+00  0.3535353E-01  0.7628189E-04  0.0000000E+00  0.3418854E-03
  0.2474747E+00  0.0000000E+00  0.3535353E-01  0.8499676E-04  0.0000000E+00  0.3643896E-03
  0.2575758E+00  0.0000000E+00  0.3535353E-01  0.9524554E-04  0.0000000E+00  0.3892115E-03
  0.2676768E+00  0.0000000E+00  0.3535353E-01  0.1075058E-03  0.0000000E+00  0.4165989E-03
  0.2777778E+00  0.0000000E+00  0.3535353E-01  0.1224399E-03  0.0000000E+00  0.4467800E-03
  0.2878788E+00  0.0000000E+00  0.3535353E-01  0.1408993E-03  0.0000000E+00  0.4799031E-03
  0.2979798E+00  0.0000000E+00  0.3535353E-01  0.1636232E-03  0.0000000E+00  0.5159815E-03