title = "dataset water"
variables = "x", "y", "z", "vx", "vy", "vz"
zone t = "velocities, solution time =  3.400E+01 days        " i =   99, j =   99, k =    1,  f=point
  0.5050505E-02  0.0000000E+00  0.5050505E-02  0.1367688E-07  0.0000000E+00  0.4827865E-05
  0.1515152E-01  0.0000000E+00  0.5050505E-02  0.4109732E-07  0.0000000E+00  0.4882832E-05
  0.2525252E-01  0.0000000E+00  0.5050505E-02  0.6871869E-07  0.0000000E+00  0.4993034E-05
  0.3535353E-01  0.0000000E+00  0.5050505E-02  0.9667756E-07  0.0000000E+00  0.5159015E-05
  0.4545455E-01  0.0000000E+00  0.5050505E-02  0.1251142E-06  0.0000000E+00  0.5381596E-05
  0.5555556E-01  0.0000000E+00  0.5050505E-02  0.1541744E-06  0.0000000E+00  0.5661885E-05
  0.6565657E-01  0.0000000E+00  0.5050505E-02  0.1840107E-06  0.0000000E+00  0.6001294E-05
  0.7575758E-01  0.0000000E+00  0.5050505E-02  0.2147846E-06  0.0000000E+00  0.6401549E-05
  0.8585858E-01  0.0000000E+00  0.5050505E-02  0.2466687E-06  0.0000000E+00  0.6864713E-05
  0.9595960E-01  0.0000000E+00  0.5050505E-02  0.2798488E-06  0.0000000E+00  0.7393214E-05
  0.1060606E+00  0.0000000E+00  0.5050505E-02  0.3145264E-06  0.0000000E+00  0.7989866E-05
  0.1161616E+00  0.0000000E+00  0.5050505E-02  0.3509224E-06  0.0000000E+00  0.8657913E-05
  0.1262626E+00  0.0000000E+00  0.5050505E-02  0.3892798E-06  0.0000000E+00  0.9401066E-05
  0.1363636E+00  0.0000000E+00  0.5050505E-02  0.4298688E-06  0.0000000E+00  0.1022356E-04
  0.1464646E+00  0.0000000E+00  0.5050505E-02  0.4729911E-06  0.0000000E+00  0.1113019E-04
  0.1565657E+00  0.0000000E+00  0.5050505E-02  0.5189860E-06  0.0000000E+00  0.1212642E-04
  0.1666667E+00  0.0000000E+00  0.5050505E-02  0.5682381E-06  0.0000000E+00  0.1321845E-04
  0.1767677E+00  0.0000000E+00  0.5050505E-02  0.6211851E-06  0.0000000E+00  0.1441328E-04
  0.1868687E+00  0.0000000E+00  0.5050505E-02  0.6783294E-06  0.0000000E+00  0.1571890E-04
  0.1969697E+00  0.0000000E+00  0.5050505E-02  0.7402506E-06  0.0000000E+00  0.1714436E-04
  0.2070707E+00  0.0000000E+00  0.5050505E-02  0.8076218E-06  0.0000000E+00  0.1870003E-04
  0.2171717E+00  0.0000000E+00  0.5050505E-02  0.8812298E-06  0.0000000E+00  0.2039770E-04
  0.2272727E+00  0.0000000E+00  0.5050505E-02  0.9620000E-06  0.0000000E+00  0.2225094E-04
  0.2373737E+00  0.0000000E+00  0.5050505E-02  0.1051028E-05  0.0000000E+00  0.2427537E-04
  0.2474747E+00  0.0000000E+00  0.5050505E-02  0.1149616E-05  0.0000000E+00  0.2648902E-04
  0.2575758E+00  0.0000000E+00  0.5050505E-02  0.1259325E-05  0.0000000E+00  0.2891286E-04
  0.2676768E+00  0.0000000E+00  0.5050505E-02  0.1382025E-05  0.0000000E+00  0.3157133E-04
  0.2777778E+00  0.0000000E+00  0.5050505E-02  0.1519969E-05  0.0000000E+00  0.3449310E-04
  0.2878788E+00  0.0000000E+00  0.5050505E-02  0.1675856E-05  0.0000000E+00  0.3771184E-04
  0.2979798E+00  0.0000000E+00  0.5050505E-02  0.1852901E-05  0.0000000E+00  0.4126731E-04
  0.3080808E+00  0.0000000E+00  0.5050505E-02  0.2054862E-05  0.0000000E+00  0.4520638E-04
  0.3181818E+00  0.0000000E+00  0.5050505E-02  0.2285970E-05  0.0000000E+00  0.4958410E-04
  0.3282828E+00  0.0000000E+00  0.5050505E-02  0.2550643E-05  0.0000000E+00  0.5446443E-04
  0.3383838E+00  0.0000000E+00  0.5050505E-02  0.2852727E-05  0.0000000E+00  0.5991991E-04
  0.3484848E+00  0.0000000E+00  0.5050505E-02  0.3193844E-05  0.0000000E+00  0.6602887E-04
  0.3585859E+00  0.0000000E+00  0.5050505E-02  0.3570108E-05  0.0000000E+00  0.7286774E-04
  0.3686869E+00  0.0000000E+00  0.5050505E-02  0.3966188E-05  0.0000000E+00  0.8049388E-04
  0.3787879E+00  0.0000000E+00  0.5050505E-02  0.4345843E-05  0.0000000E+00  0.8891283E-04
  0.3888889E+00  0.0000000E+00  0.5050505E-02  0.4639815E-05  0.0000000E+00  0.9802339E-04
  0.3989899E+00  0.0000000E+00  0.5050505E-02  0.4737986E-05  0.0000000E+00  0.1075420E-03
  0.4090909E+00  0.0000000E+00  0.5050505E-02  0.4505117E-05  0.0000000E+00  0.1169346E-03
  0.4191919E+00  0.0000000E+00  0.5050505E-02  0.3849805E-05  0.0000000E+00  0.1254341E-03
  0.4292929E+00  0.0000000E+00  0.5050505E-02  0.2837542E-05  0.0000000E+00  0.1322441E-03
  0.4393939E+00  0.0000000E+00  0.5050505E-02  0.1689771E-05  0.0000000E+00  0.1368582E-03
  0.4494950E+00  0.0000000E+00  0.5050505E-02  0.6258709E-06  0.0000000E+00  0.1392195E-03
  0.4595959E+00  0.0000000E+00  0.5050505E-02 -0.2461108E-06  0.0000000E+00  0.1396068E-03
  0.4696970E+00  0.0000000E+00  0.5050505E-02 -0.9060107E-06  0.0000000E+00  0.1384317E-03
  0.4797980E+00  0.0000000E+00  0.5050505E-02 -0.1378454E-05  0.0000000E+00  0.1361023E-03
  0.4898990E+00  0.0000000E+00  0.5050505E-02 -0.1703015E-05  0.0000000E+00  0.1329613E-03
  0.5000000E+00  0.0000000E+00  0.5050505E-02 -0.1918603E-05  0.0000000E+00  0.1292713E-03
  0.5101010E+00  0.0000000E+00  0.5050505E-02 -0.2057088E-05  0.0000000E+00  0.1252226E-03
  0.5202020E+00  0.0000000E+00  0.5050505E-02 -0.2142039E-05  0.0000000E+00  0.1209485E-03
  0.5303030E+00  0.0000000E+00  0.5050505E-02 -0.2189772E-05  0.0000000E+00  0.1165417E-03
  0.5404040E+00  0.0000000E+00  0.5050505E-02 -0.2211133E-05  0.0000000E+00  0.1120671E-03
  0.5505050E+00  0.0000000E+00  0.5050505E-02 -0.2213199E-05  0.0000000E+00  0.1075712E-03
  0.5606061E+00  0.0000000E+00  0.5050505E-02 -0.2200610E-05  0.0000000E+00  0.1030883E-03
  0.5707071E+00  0.0000000E+00  0.5050505E-02 -0.2176502E-05  0.0000000E+00  0.9864518E-04
  0.5808081E+00  0.0000000E+00  0.5050505E-02 -0.2143113E-05  0.0000000E+00  0.9426273E-04
  0.5909091E+00  0.0000000E+00  0.5050505E-02 -0.2102138E-05  0.0000000E+00  0.8995799E-04
  0.6010101E+00  0.0000000E+00  0.5050505E-02 -0.2054942E-05  0.0000000E+00  0.8574482E-04
  0.6111111E+00  0.0000000E+00  0.5050505E-02 -0.2002673E-05  0.0000000E+00  0.8163452E-04
  0.6212121E+00  0.0000000E+00  0.5050505E-02 -0.1946319E-05  0.0000000E+00  0.7763620E-04
  0.6313131E+00  0.0000000E+00  0.5050505E-02 -0.1886746E-05  0.0000000E+00  0.7375709E-04
  0.6414142E+00  0.0000000E+00  0.5050505E-02 -0.1824710E-05  0.0000000E+00  0.7000278E-04
  0.6515151E+00  0.0000000E+00  0.5050505E-02 -0.1760872E-05  0.0000000E+00  0.6637739E-04
  0.6616161E+00  0.0000000E+00  0.5050505E-02 -0.1695806E-05  0.0000000E+00  0.6288384E-04
  0.6717172E+00  0.0000000E+00  0.5050505E-02 -0.1630007E-05  0.0000000E+00  0.5952392E-04
  0.6818182E+00  0.0000000E+00  0.5050505E-02 -0.1563902E-05  0.0000000E+00  0.5629853E-04
  0.6919192E+00  0.0000000E+00  0.5050505E-02 -0.1497852E-05  0.0000000E+00  0.5320777E-04
  0.7020202E+00  0.0000000E+00  0.5050505E-02 -0.1432164E-05  0.0000000E+00  0.5025106E-04
  0.7121212E+00  0.0000000E+00  0.5050505E-02 -0.1367094E-05  0.0000000E+00  0.4742728E-04
  0.7222222E+00  0.0000000E+00  0.5050505E-02 -0.1302853E-05  0.0000000E+00  0.4473482E-04
  0.7323232E+00  0.0000000E+00  0.5050505E-02 -0.1239615E-05  0.0000000E+00  0.4217172E-04
  0.7424242E+00  0.0000000E+00  0.5050505E-02 -0.1177518E-05  0.0000000E+00  0.3973570E-04
  0.7525253E+00  0.0000000E+00  0.5050505E-02 -0.1116669E-05  0.0000000E+00  0.3742425E-04
  0.7626263E+00  0.0000000E+00  0.5050505E-02 -0.1057150E-05  0.0000000E+00  0.3523465E-04
  0.7727273E+00  0.0000000E+00  0.5050505E-02 -0.9990174E-06  0.0000000E+00  0.3316408E-04
  0.7828283E+00  0.0000000E+00  0.5050505E-02 -0.9423073E-06  0.0000000E+00  0.3120963E-04
  0.7929293E+00  0.0000000E+00  0.5050505E-02 -0.8870375E-06  0.0000000E+00  0.2936833E-04
  0.8030303E+00  0.0000000E+00  0.5050505E-02 -0.8332093E-06  0.0000000E+00  0.2763720E-04
  0.8131313E+00  0.0000000E+00  0.5050505E-02 -0.7808100E-06  0.0000000E+00  0.2601330E-04
  0.8232324E+00  0.0000000E+00  0.5050505E-02 -0.7298144E-06  0.0000000E+00  0.2449371E-04
  0.8333333E+00  0.0000000E+00  0.5050505E-02 -0.6801868E-06  0.0000000E+00  0.2307559E-04
  0.8434343E+00  0.0000000E+00  0.5050505E-02 -0.6318818E-06  0.0000000E+00  0.2175617E-04
  0.8535354E+00  0.0000000E+00  0.5050505E-02 -0.5848463E-06  0.0000000E+00  0.2053282E-04
  0.8636364E+00  0.0000000E+00  0.5050505E-02 -0.5390203E-06  0.0000000E+00  0.1940299E-04
  0.8737374E+00  0.0000000E+00  0.5050505E-02 -0.4943381E-06  0.0000000E+00  0.1836427E-04
  0.8838384E+00  0.0000000E+00  0.5050505E-02 -0.4507288E-06  0.0000000E+00  0.1741442E-04
  0.8939394E+00  0.0000000E+00  0.5050505E-02 -0.4081177E-06  0.0000000E+00  0.1655132E-04
  0.9040404E+00  0.0000000E+00  0.5050505E-02 -0.3664264E-06  0.0000000E+00  0.1577301E-04
  0.9141414E+00  0.0000000E+00  0.5050505E-02 -0.3255738E-06  0.0000000E+00  0.1507770E-04
  0.9242424E+00  0.0000000E+00  0.5050505E-02 -0.2854764E-06  0.0000000E+00  0.1446378E-04
  0.9343435E+00  0.0000000E+00  0.5050505E-02 -0.2460487E-06  0.0000000E+00  0.1392979E-04
  0.9444444E+00  0.0000000E+00  0.5050505E-02 -0.2072039E-06  0.0000000E+00  0.1347446E-04
  0.9545454E+00  0.0000000E+00  0.5050505E-02 -0.1688538E-06  0.0000000E+00  0.1309670E-04
  0.9646465E+00  0.0000000E+00  0.5050505E-02 -0.1309094E-06  0.0000000E+00  0.1279559E-04
  0.9747475E+00  0.0000000E+00  0.5050505E-02 -0.9328095E-07  0.0000000E+00  0.1257040E-04
  0.9848485E+00  0.0000000E+00  0.5050505E-02 -0.5587830E-07  0.0000000E+00  0.1242057E-04
  0.9974747E+00  0.0000000E+00  0.5050505E-02 -0.1861108E-07  0.0000000E+00  0.1234575E-04
  0.5050505E-02  0.0000000E+00  0.1515152E-01  0.4099296E-07  0.0000000E+00  0.4848670E-05
  0.1515152E-01  0.0000000E+00  0.1515152E-01  0.1231785E-06  0.0000000E+00  0.4903645E-05
  0.2525252E-01  0.0000000E+00  0.1515152E-01  0.2059656E-06  0.0000000E+00  0.5013861E-05
  0.3535353E-01  0.0000000E+00  0.1515152E-01  0.2897627E-06  0.0000000E+00  0.5179860E-05
  0.4545455E-01  0.0000000E+00  0.1515152E-01  0.3749899E-06  0.0000000E+00  0.5402456E-05
  0.5555556E-01  0.0000000E+00  0.1515152E-01  0.4620827E-06  0.0000000E+00  0.5682755E-05
  0.6565657E-01  0.0000000E+00  0.1515152E-01  0.5514980E-06  0.0000000E+00  0.6022159E-05
  0.7575758E-01  0.0000000E+00  0.1515152E-01  0.6437187E-06  0.0000000E+00  0.6422385E-05
  0.8585858E-01  0.0000000E+00  0.1515152E-01  0.7392608E-06  0.0000000E+00  0.6885485E-05
  0.9595960E-01  0.0000000E+00  0.1515152E-01  0.8386795E-06  0.0000000E+00  0.7413870E-05
  0.1060606E+00  0.0000000E+00  0.1515152E-01  0.9425777E-06  0.0000000E+00  0.8010338E-05
  0.1161616E+00  0.0000000E+00  0.1515152E-01  0.1051615E-05  0.0000000E+00  0.8678112E-05
  0.1262626E+00  0.0000000E+00  0.1515152E-01  0.1166517E-05  0.0000000E+00  0.9420874E-05
  0.1363636E+00  0.0000000E+00  0.1515152E-01  0.1288091E-05  0.0000000E+00  0.1024282E-04
  0.1464646E+00  0.0000000E+00  0.1515152E-01  0.1417237E-05  0.0000000E+00  0.1114873E-04
  0.1565657E+00  0.0000000E+00  0.1515152E-01  0.1554968E-05  0.0000000E+00  0.1214400E-04
  0.1666667E+00  0.0000000E+00  0.1515152E-01  0.1702430E-05  0.0000000E+00  0.1323476E-04
  0.1767677E+00  0.0000000E+00  0.1515152E-01  0.1860929E-05  0.0000000E+00  0.1442796E-04
  0.1868687E+00  0.0000000E+00  0.1515152E-01  0.2031961E-05  0.0000000E+00  0.1573149E-04
  0.1969697E+00  0.0000000E+00  0.1515152E-01  0.2217251E-05  0.0000000E+00  0.1715429E-04
  0.2070707E+00  0.0000000E+00  0.1515152E-01  0.2418803E-05  0.0000000E+00  0.1870659E-04
  0.2171717E+00  0.0000000E+00  0.1515152E-01  0.2638957E-05  0.0000000E+00  0.2040001E-04
  0.2272727E+00  0.0000000E+00  0.1515152E-01  0.2880462E-05  0.0000000E+00  0.2224790E-04
  0.2373737E+00  0.0000000E+00  0.1515152E-01  0.3146573E-05  0.0000000E+00  0.2426560E-04
  0.2474747E+00  0.0000000E+00  0.1515152E-01  0.3441161E-05  0.0000000E+00  0.2647081E-04
  0.2575758E+00  0.0000000E+00  0.1515152E-01  0.3768856E-05  0.0000000E+00  0.2888408E-04
  0.2676768E+00  0.0000000E+00  0.1515152E-01  0.4135220E-05  0.0000000E+00  0.3152933E-04
  0.2777778E+00  0.0000000E+00  0.1515152E-01  0.4546949E-05  0.0000000E+00  0.3443459E-04
  0.2878788E+00  0.0000000E+00  0.1515152E-01  0.5012099E-05  0.0000000E+00  0.3763282E-04
  0.2979798E+00  0.0000000E+00  0.1515152E-01  0.5540308E-05  0.0000000E+00  0.4116298E-04
  0.3080808E+00  0.0000000E+00  0.1515152E-01  0.6142941E-05  0.0000000E+00  0.4507128E-04
  0.3181818E+00  0.0000000E+00  0.1515152E-01  0.6833011E-05  0.0000000E+00  0.4941248E-04
  0.3282828E+00  0.0000000E+00  0.1515152E-01  0.7624544E-05  0.0000000E+00  0.5425138E-04
  0.3383838E+00  0.0000000E+00  0.1515152E-01  0.8530742E-05  0.0000000E+00  0.5966380E-04
  0.3484848E+00  0.0000000E+00  0.1515152E-01  0.9559721E-05  0.0000000E+00  0.6573630E-04
  0.3585859E+00  0.0000000E+00  0.1515152E-01  0.1070562E-04  0.0000000E+00  0.7256265E-04
  0.3686869E+00  0.0000000E+00  0.1515152E-01  0.1193162E-04  0.0000000E+00  0.8023273E-04
  0.3787879E+00  0.0000000E+00  0.1515152E-01  0.1314048E-04  0.0000000E+00  0.8880554E-04
  0.3888889E+00  0.0000000E+00  0.1515152E-01  0.1413140E-04  0.0000000E+00  0.9825225E-04
  0.3989899E+00  0.0000000E+00  0.1515152E-01  0.1455737E-04  0.0000000E+00  0.1083521E-03
  0.4090909E+00  0.0000000E+00  0.1515152E-01  0.1394396E-04  0.0000000E+00  0.1185475E-03
  0.4191919E+00  0.0000000E+00  0.1515152E-01  0.1190661E-04  0.0000000E+00  0.1278649E-03
  0.4292929E+00  0.0000000E+00  0.1515152E-01  0.8645881E-05  0.0000000E+00  0.1351915E-03
  0.4393939E+00  0.0000000E+00  0.1515152E-01  0.4983107E-05  0.0000000E+00  0.1398668E-03
  0.4494950E+00  0.0000000E+00  0.1515152E-01  0.1683387E-05  0.0000000E+00  0.1419496E-03
  0.4595959E+00  0.0000000E+00  0.1515152E-01 -0.9531273E-06  0.0000000E+00  0.1419209E-03
  0.4696970E+00  0.0000000E+00  0.1515152E-01 -0.2909154E-05  0.0000000E+00  0.1403278E-03
  0.4797980E+00  0.0000000E+00  0.1515152E-01 -0.4287862E-05  0.0000000E+00  0.1376408E-03
  0.4898990E+00  0.0000000E+00  0.1515152E-01 -0.5223330E-05  0.0000000E+00  0.1342187E-03
  0.5000000E+00  0.0000000E+00  0.1515152E-01 -0.5838609E-05  0.0000000E+00  0.1303175E-03
  0.5101010E+00  0.0000000E+00  0.1515152E-01 -0.6230655E-05  0.0000000E+00  0.1261129E-03
  0.5202020E+00  0.0000000E+00  0.1515152E-01 -0.6469191E-05  0.0000000E+00  0.1217231E-03
  0.5303030E+00  0.0000000E+00  0.1515152E-01 -0.6601465E-05  0.0000000E+00  0.1172282E-03
  0.5404040E+00  0.0000000E+00  0.1515152E-01 -0.6658359E-05  0.0000000E+00  0.1126839E-03
  0.5505050E+00  0.0000000E+00  0.1515152E-01 -0.6659791E-05  0.0000000E+00  0.1081304E-03
  0.5606061E+00  0.0000000E+00  0.1515152E-01 -0.6618758E-05  0.0000000E+00  0.1035984E-03
  0.5707071E+00  0.0000000E+00  0.1515152E-01 -0.6544076E-05  0.0000000E+00  0.9911195E-04
  0.5808081E+00  0.0000000E+00  0.1515152E-01 -0.6442084E-05  0.0000000E+00  0.9469065E-04
  0.5909091E+00  0.0000000E+00  0.1515152E-01 -0.6317663E-05  0.0000000E+00  0.9035067E-04
  0.6010101E+00  0.0000000E+00  0.1515152E-01 -0.6174791E-05  0.0000000E+00  0.8610533E-04
  0.6111111E+00  0.0000000E+00  0.1515152E-01 -0.6016847E-05  0.0000000E+00  0.8196559E-04
  0.6212121E+00  0.0000000E+00  0.1515152E-01 -0.5846769E-05  0.0000000E+00  0.7794029E-04
  0.6313131E+00  0.0000000E+00  0.1515152E-01 -0.5667131E-05  0.0000000E+00  0.7403647E-04
  0.6414142E+00  0.0000000E+00  0.1515152E-01 -0.5480192E-05  0.0000000E+00  0.7025951E-04
  0.6515151E+00  0.0000000E+00  0.1515152E-01 -0.5287927E-05  0.0000000E+00  0.6661340E-04
  0.6616161E+00  0.0000000E+00  0.1515152E-01 -0.5092052E-05  0.0000000E+00  0.6310086E-04
  0.6717172E+00  0.0000000E+00  0.1515152E-01 -0.4894049E-05  0.0000000E+00  0.5972358E-04
  0.6818182E+00  0.0000000E+00  0.1515152E-01 -0.4695189E-05  0.0000000E+00  0.5648231E-04
  0.6919192E+00  0.0000000E+00  0.1515152E-01 -0.4496552E-05  0.0000000E+00  0.5337702E-04
  0.7020202E+00  0.0000000E+00  0.1515152E-01 -0.4299052E-05  0.0000000E+00  0.5040704E-04
  0.7121212E+00  0.0000000E+00  0.1515152E-01 -0.4103452E-05  0.0000000E+00  0.4757113E-04
  0.7222222E+00  0.0000000E+00  0.1515152E-01 -0.3910385E-05  0.0000000E+00  0.4486761E-04
  0.7323232E+00  0.0000000E+00  0.1515152E-01 -0.3720364E-05  0.0000000E+00  0.4229440E-04
  0.7424242E+00  0.0000000E+00  0.1515152E-01 -0.3533802E-05  0.0000000E+00  0.3984917E-04
  0.7525253E+00  0.0000000E+00  0.1515152E-01 -0.3351018E-05  0.0000000E+00  0.3752930E-04
  0.7626263E+00  0.0000000E+00  0.1515152E-01 -0.3172253E-05  0.0000000E+00  0.3533205E-04
  0.7727273E+00  0.0000000E+00  0.1515152E-01 -0.2997674E-05  0.0000000E+00  0.3325451E-04
  0.7828283E+00  0.0000000E+00  0.1515152E-01 -0.2827387E-05  0.0000000E+00  0.3129371E-04
  0.7929293E+00  0.0000000E+00  0.1515152E-01 -0.2661444E-05  0.0000000E+00  0.2944663E-04
  0.8030303E+00  0.0000000E+00  0.1515152E-01 -0.2499846E-05  0.0000000E+00  0.2771027E-04
  0.8131313E+00  0.0000000E+00  0.1515152E-01 -0.2342552E-05  0.0000000E+00  0.2608160E-04
  0.8232324E+00  0.0000000E+00  0.1515152E-01 -0.2189486E-05  0.0000000E+00  0.2455769E-04
  0.8333333E+00  0.0000000E+00  0.1515152E-01 -0.2040539E-05  0.0000000E+00  0.2313565E-04
  0.8434343E+00  0.0000000E+00  0.1515152E-01 -0.1895572E-05  0.0000000E+00  0.2181270E-04
  0.8535354E+00  0.0000000E+00  0.1515152E-01 -0.1754425E-05  0.0000000E+00  0.2058615E-04
  0.8636364E+00  0.0000000E+00  0.1515152E-01 -0.1616918E-05  0.0000000E+00  0.1945344E-04
  0.8737374E+00  0.0000000E+00  0.1515152E-01 -0.1482850E-05  0.0000000E+00  0.1841214E-04
  0.8838384E+00  0.0000000E+00  0.1515152E-01 -0.1352010E-05  0.0000000E+00  0.1745997E-04
  0.8939394E+00  0.0000000E+00  0.1515152E-01 -0.1224171E-05  0.0000000E+00  0.1659480E-04
  0.9040404E+00  0.0000000E+00  0.1515152E-01 -0.1099097E-05  0.0000000E+00  0.1581467E-04
  0.9141414E+00  0.0000000E+00  0.1515152E-01 -0.9765448E-06  0.0000000E+00  0.1511776E-04
  0.9242424E+00  0.0000000E+00  0.1515152E-01 -0.8562628E-06  0.0000000E+00  0.1450244E-04
  0.9343435E+00  0.0000000E+00  0.1515152E-01 -0.7379940E-06  0.0000000E+00  0.1396725E-04
  0.9444444E+00  0.0000000E+00  0.1515152E-01 -0.6214771E-06  0.0000000E+00  0.1351091E-04
  0.9545454E+00  0.0000000E+00  0.1515152E-01 -0.5064472E-06  0.0000000E+00  0.1313231E-04
  0.9646465E+00  0.0000000E+00  0.1515152E-01 -0.3926368E-06  0.0000000E+00  0.1283054E-04
  0.9747475E+00  0.0000000E+00  0.1515152E-01 -0.2797761E-06  0.0000000E+00  0.1260486E-04
  0.9848485E+00  0.0000000E+00  0.1515152E-01 -0.1675942E-06  0.0000000E+00  0.1245471E-04
  0.9974747E+00  0.0000000E+00  0.1515152E-01 -0.5581953E-07  0.0000000E+00  0.1237973E-04
  0.5050505E-02  0.0000000E+00  0.2525252E-01  0.6823638E-07  0.0000000E+00  0.4890467E-05
  0.1515152E-01  0.0000000E+00  0.2525252E-01  0.2050406E-06  0.0000000E+00  0.4945459E-05
  0.2525252E-01  0.0000000E+00  0.2525252E-01  0.3428431E-06  0.0000000E+00  0.5055708E-05
  0.3535353E-01  0.0000000E+00  0.2525252E-01  0.4823220E-06  0.0000000E+00  0.5221747E-05
  0.4545455E-01  0.0000000E+00  0.2525252E-01  0.6241737E-06  0.0000000E+00  0.5444385E-05
  0.5555556E-01  0.0000000E+00  0.2525252E-01  0.7691209E-06  0.0000000E+00  0.5724715E-05
  0.6565657E-01  0.0000000E+00  0.2525252E-01  0.9179206E-06  0.0000000E+00  0.6064123E-05
  0.7575758E-01  0.0000000E+00  0.2525252E-01  0.1071374E-05  0.0000000E+00  0.6464309E-05
  0.8585858E-01  0.0000000E+00  0.2525252E-01  0.1230335E-05  0.0000000E+00  0.6927302E-05
  0.9595960E-01  0.0000000E+00  0.2525252E-01  0.1395723E-05  0.0000000E+00  0.7455483E-05
  0.1060606E+00  0.0000000E+00  0.2525252E-01  0.1568537E-05  0.0000000E+00  0.8051615E-05
  0.1161616E+00  0.0000000E+00  0.2525252E-01  0.1749866E-05  0.0000000E+00  0.8718878E-05
  0.1262626E+00  0.0000000E+00  0.2525252E-01  0.1940912E-05  0.0000000E+00  0.9460904E-05
  0.1363636E+00  0.0000000E+00  0.2525252E-01  0.2143007E-05  0.0000000E+00  0.1028183E-04
  0.1464646E+00  0.0000000E+00  0.2525252E-01  0.2357638E-05  0.0000000E+00  0.1118634E-04
  0.1565657E+00  0.0000000E+00  0.2525252E-01  0.2586474E-05  0.0000000E+00  0.1217975E-04
  0.1666667E+00  0.0000000E+00  0.2525252E-01  0.2831405E-05  0.0000000E+00  0.1326808E-04
  0.1767677E+00  0.0000000E+00  0.2525252E-01  0.3094579E-05  0.0000000E+00  0.1445813E-04
  0.1868687E+00  0.0000000E+00  0.2525252E-01  0.3378457E-05  0.0000000E+00  0.1575761E-04
  0.1969697E+00  0.0000000E+00  0.2525252E-01  0.3685874E-05  0.0000000E+00  0.1717526E-04
  0.2070707E+00  0.0000000E+00  0.2525252E-01  0.4020114E-05  0.0000000E+00  0.1872100E-04
  0.2171717E+00  0.0000000E+00  0.2525252E-01  0.4385013E-05  0.0000000E+00  0.2040616E-04
  0.2272727E+00  0.0000000E+00  0.2525252E-01  0.4785070E-05  0.0000000E+00  0.2224364E-04
  0.2373737E+00  0.0000000E+00  0.2525252E-01  0.5225606E-05  0.0000000E+00  0.2424826E-04
  0.2474747E+00  0.0000000E+00  0.2525252E-01  0.5712943E-05  0.0000000E+00  0.2643704E-04
  0.2575758E+00  0.0000000E+00  0.2525252E-01  0.6254642E-05  0.0000000E+00  0.2882971E-04
  0.2676768E+00  0.0000000E+00  0.2525252E-01  0.6859791E-05  0.0000000E+00  0.3144914E-04
  0.2777778E+00  0.0000000E+00  0.2525252E-01  0.7539354E-05  0.0000000E+00  0.3432211E-04
  0.2878788E+00  0.0000000E+00  0.2525252E-01  0.8306577E-05  0.0000000E+00  0.3748007E-04
  0.2979798E+00  0.0000000E+00  0.2525252E-01  0.9177443E-05  0.0000000E+00  0.4096029E-04
  0.3080808E+00  0.0000000E+00  0.2525252E-01  0.1017109E-04  0.0000000E+00  0.4480727E-04
  0.3181818E+00  0.0000000E+00  0.2525252E-01  0.1131003E-04  0.0000000E+00  0.4907457E-04
  0.3282828E+00  0.0000000E+00  0.2525252E-01  0.1261981E-04  0.0000000E+00  0.5382732E-04
  0.3383838E+00  0.0000000E+00  0.2525252E-01  0.1412731E-04  0.0000000E+00  0.5914545E-04
  0.3484848E+00  0.0000000E+00  0.2525252E-01  0.1585594E-04  0.0000000E+00  0.6512794E-04
  0.3585859E+00  0.0000000E+00  0.2525252E-01  0.1781454E-04  0.0000000E+00  0.7189758E-04
  0.3686869E+00  0.0000000E+00  0.2525252E-01  0.1997335E-04  0.0000000E+00  0.7960382E-04
  0.3787879E+00  0.0000000E+00  0.2525252E-01  0.2221562E-04  0.0000000E+00  0.8841537E-04
  0.3888889E+00  0.0000000E+00  0.2525252E-01  0.2424849E-04  0.0000000E+00  0.9847671E-04
  0.3989899E+00  0.0000000E+00  0.2525252E-01  0.2546565E-04  0.0000000E+00  0.1097686E-03
  0.4090909E+00  0.0000000E+00  0.2525252E-01  0.2483534E-04  0.0000000E+00  0.1217785E-03
  0.4191919E+00  0.0000000E+00  0.2525252E-01  0.2119415E-04  0.0000000E+00  0.1330450E-03
  0.4292929E+00  0.0000000E+00  0.2525252E-01  0.1485558E-04  0.0000000E+00  0.1415535E-03
  0.4393939E+00  0.0000000E+00  0.2525252E-01  0.7912360E-05  0.0000000E+00  0.1462338E-03
  0.4494950E+00  0.0000000E+00  0.2525252E-01  0.2074205E-05  0.0000000E+00  0.1475580E-03
  0.4595959E+00  0.0000000E+00  0.2525252E-01 -0.2348751E-05  0.0000000E+00  0.1465629E-03
  0.4696970E+00  0.0000000E+00  0.2525252E-01 -0.5503185E-05  0.0000000E+00  0.1440727E-03
  0.4797980E+00  0.0000000E+00  0.2525252E-01 -0.7658504E-05  0.0000000E+00  0.1406544E-03
  0.4898990E+00  0.0000000E+00  0.2525252E-01 -0.9084782E-05  0.0000000E+00  0.1366760E-03
  0.5000000E+00  0.0000000E+00  0.2525252E-01 -0.1000445E-04  0.0000000E+00  0.1323664E-03
  0.5101010E+00  0.0000000E+00  0.2525252E-01 -0.1058105E-04  0.0000000E+00  0.1278646E-03
  0.5202020E+00  0.0000000E+00  0.2525252E-01 -0.1092606E-04  0.0000000E+00  0.1232552E-03
  0.5303030E+00  0.0000000E+00  0.2525252E-01 -0.1111181E-04  0.0000000E+00  0.1185926E-03
  0.5404040E+00  0.0000000E+00  0.2525252E-01 -0.1118398E-04  0.0000000E+00  0.1139144E-03
  0.5505050E+00  0.0000000E+00  0.2525252E-01 -0.1117137E-04  0.0000000E+00  0.1092494E-03
  0.5606061E+00  0.0000000E+00  0.2525252E-01 -0.1109265E-04  0.0000000E+00  0.1046208E-03
  0.5707071E+00  0.0000000E+00  0.2525252E-01 -0.1096059E-04  0.0000000E+00  0.1000486E-03
  0.5808081E+00  0.0000000E+00  0.2525252E-01 -0.1078464E-04  0.0000000E+00  0.9554992E-04
  0.5909091E+00  0.0000000E+00  0.2525252E-01 -0.1057229E-04  0.0000000E+00  0.9113944E-04
  0.6010101E+00  0.0000000E+00  0.2525252E-01 -0.1032982E-04  0.0000000E+00  0.8682960E-04
  0.6111111E+00  0.0000000E+00  0.2525252E-01 -0.1006269E-04  0.0000000E+00  0.8263074E-04
  0.6212121E+00  0.0000000E+00  0.2525252E-01 -0.9775700E-05  0.0000000E+00  0.7855124E-04
  0.6313131E+00  0.0000000E+00  0.2525252E-01 -0.9473095E-05  0.0000000E+00  0.7459773E-04
  0.6414142E+00  0.0000000E+00  0.2525252E-01 -0.9158609E-05  0.0000000E+00  0.7077526E-04
  0.6515151E+00  0.0000000E+00  0.2525252E-01 -0.8835511E-05  0.0000000E+00  0.6708745E-04
  0.6616161E+00  0.0000000E+00  0.2525252E-01 -0.8506641E-05  0.0000000E+00  0.6353676E-04
  0.6717172E+00  0.0000000E+00  0.2525252E-01 -0.8174450E-05  0.0000000E+00  0.6012456E-04
  0.6818182E+00  0.0000000E+00  0.2525252E-01 -0.7841037E-05  0.0000000E+00  0.5685136E-04
  0.6919192E+00  0.0000000E+00  0.2525252E-01 -0.7508188E-05  0.0000000E+00  0.5371688E-04
  0.7020202E+00  0.0000000E+00  0.2525252E-01 -0.7177406E-05  0.0000000E+00  0.5072022E-04
  0.7121212E+00  0.0000000E+00  0.2525252E-01 -0.6849952E-05  0.0000000E+00  0.4785994E-04
  0.7222222E+00  0.0000000E+00  0.2525252E-01 -0.6526862E-05  0.0000000E+00  0.4513416E-04
  0.7323232E+00  0.0000000E+00  0.2525252E-01 -0.6208984E-05  0.0000000E+00  0.4254065E-04
  0.7424242E+00  0.0000000E+00  0.2525252E-01 -0.5896991E-05  0.0000000E+00  0.4007690E-04
  0.7525253E+00  0.0000000E+00  0.2525252E-01 -0.5591407E-05  0.0000000E+00  0.3774015E-04
  0.7626263E+00  0.0000000E+00  0.2525252E-01 -0.5292622E-05  0.0000000E+00  0.3552751E-04
  0.7727273E+00  0.0000000E+00  0.2525252E-01 -0.5000907E-05  0.0000000E+00  0.3343597E-04
  0.7828283E+00  0.0000000E+00  0.2525252E-01 -0.4716432E-05  0.0000000E+00  0.3146242E-04
  0.7929293E+00  0.0000000E+00  0.2525252E-01 -0.4439272E-05  0.0000000E+00  0.2960376E-04
  0.8030303E+00  0.0000000E+00  0.2525252E-01 -0.4169423E-05  0.0000000E+00  0.2785687E-04
  0.8131313E+00  0.0000000E+00  0.2525252E-01 -0.3906813E-05  0.0000000E+00  0.2621864E-04
  0.8232324E+00  0.0000000E+00  0.2525252E-01 -0.3651305E-05  0.0000000E+00  0.2468606E-04
  0.8333333E+00  0.0000000E+00  0.2525252E-01 -0.3402713E-05  0.0000000E+00  0.2325617E-04
  0.8434343E+00  0.0000000E+00  0.2525252E-01 -0.3160802E-05  0.0000000E+00  0.2192611E-04
  0.8535354E+00  0.0000000E+00  0.2525252E-01 -0.2925299E-05  0.0000000E+00  0.2069315E-04
  0.8636364E+00  0.0000000E+00  0.2525252E-01 -0.2695897E-05  0.0000000E+00  0.1955466E-04
  0.8737374E+00  0.0000000E+00  0.2525252E-01 -0.2472261E-05  0.0000000E+00  0.1850817E-04
  0.8838384E+00  0.0000000E+00  0.2525252E-01 -0.2254033E-05  0.0000000E+00  0.1755136E-04
  0.8939394E+00  0.0000000E+00  0.2525252E-01 -0.2040832E-05  0.0000000E+00  0.1668206E-04
  0.9040404E+00  0.0000000E+00  0.2525252E-01 -0.1832262E-05  0.0000000E+00  0.1589826E-04
  0.9141414E+00  0.0000000E+00  0.2525252E-01 -0.1627914E-05  0.0000000E+00  0.1519814E-04
  0.9242424E+00  0.0000000E+00  0.2525252E-01 -0.1427367E-05  0.0000000E+00  0.1458001E-04
  0.9343435E+00  0.0000000E+00  0.2525252E-01 -0.1230189E-05  0.0000000E+00  0.1404242E-04
  0.9444444E+00  0.0000000E+00  0.2525252E-01 -0.1035943E-05  0.0000000E+00  0.1358405E-04
  0.9545454E+00  0.0000000E+00  0.2525252E-01 -0.8441856E-06  0.0000000E+00  0.1320379E-04
  0.9646465E+00  0.0000000E+00  0.2525252E-01 -0.6544689E-06  0.0000000E+00  0.1290070E-04
  0.9747475E+00  0.0000000E+00  0.2525252E-01 -0.4663416E-06  0.0000000E+00  0.1267403E-04
  0.9848485E+00  0.0000000E+00  0.2525252E-01 -0.2793505E-06  0.0000000E+00  0.1252323E-04
  0.9974747E+00  0.0000000E+00  0.2525252E-01 -0.9304113E-07  0.0000000E+00  0.1244793E-04
  0.5050505E-02  0.0000000E+00  0.3535353E-01  0.9541319E-07  0.0000000E+00  0.4953418E-05
  0.1515152E-01  0.0000000E+00  0.3535353E-01  0.2867010E-06  0.0000000E+00  0.5008440E-05
  0.2525252E-01  0.0000000E+00  0.3535353E-01  0.4793783E-06  0.0000000E+00  0.5118745E-05
  0.3535353E-01  0.0000000E+00  0.3535353E-01  0.6743886E-06  0.0000000E+00  0.5284857E-05
  0.4545455E-01  0.0000000E+00  0.3535353E-01  0.8727007E-06  0.0000000E+00  0.5507575E-05
  0.5555556E-01  0.0000000E+00  0.3535353E-01  0.1075319E-05  0.0000000E+00  0.5787972E-05
  0.6565657E-01  0.0000000E+00  0.3535353E-01  0.1283297E-05  0.0000000E+00  0.6127416E-05
  0.7575758E-01  0.0000000E+00  0.3535353E-01  0.1497746E-05  0.0000000E+00  0.6527577E-05
  0.8585858E-01  0.0000000E+00  0.3535353E-01  0.1719852E-05  0.0000000E+00  0.6990450E-05
  0.9595960E-01  0.0000000E+00  0.3535353E-01  0.1950892E-05  0.0000000E+00  0.7518376E-05
  0.1060606E+00  0.0000000E+00  0.3535353E-01  0.2192249E-05  0.0000000E+00  0.8114066E-05
  0.1161616E+00  0.0000000E+00  0.3535353E-01  0.2445433E-05  0.0000000E+00  0.8780636E-05
  0.1262626E+00  0.0000000E+00  0.3535353E-01  0.2712107E-05  0.0000000E+00  0.9521644E-05
  0.1363636E+00  0.0000000E+00  0.3535353E-01  0.2994111E-05  0.0000000E+00  0.1034113E-04
  0.1464646E+00  0.0000000E+00  0.3535353E-01  0.3293499E-05  0.0000000E+00  0.1124368E-04
  0.1565657E+00  0.0000000E+00  0.3535353E-01  0.3612574E-05  0.0000000E+00  0.1223446E-04
  0.1666667E+00  0.0000000E+00  0.3535353E-01  0.3953938E-05  0.0000000E+00  0.1331932E-04
  0.1767677E+00  0.0000000E+00  0.3535353E-01  0.4320545E-05  0.0000000E+00  0.1450487E-04
  0.1868687E+00  0.0000000E+00  0.3535353E-01  0.4715773E-05  0.0000000E+00  0.1579855E-04
  0.1969697E+00  0.0000000E+00  0.3535353E-01  0.5143505E-05  0.0000000E+00  0.1720879E-04
  0.2070707E+00  0.0000000E+00  0.3535353E-01  0.5608239E-05  0.0000000E+00  0.1874514E-04
  0.2171717E+00  0.0000000E+00  0.3535353E-01  0.6115206E-05  0.0000000E+00  0.2041841E-04
  0.2272727E+00  0.0000000E+00  0.3535353E-01  0.6670541E-05  0.0000000E+00  0.2224091E-04
  0.2373737E+00  0.0000000E+00  0.3535353E-01  0.7281478E-05  0.0000000E+00  0.2422668E-04
  0.2474747E+00  0.0000000E+00  0.3535353E-01  0.7956604E-05  0.0000000E+00  0.2639180E-04
  0.2575758E+00  0.0000000E+00  0.3535353E-01  0.8706179E-05  0.0000000E+00  0.2875476E-04
  0.2676768E+00  0.0000000E+00  0.3535353E-01  0.9542533E-05  0.0000000E+00  0.3133691E-04
  0.2777778E+00  0.0000000E+00  0.3535353E-01  0.1048057E-04  0.0000000E+00  0.3416312E-04
  0.2878788E+00  0.0000000E+00  0.3535353E-01  0.1153838E-04  0.0000000E+00  0.3726249E-04
  0.2979798E+00  0.0000000E+00  0.3535353E-01  0.1273798E-04  0.0000000E+00  0.4066951E-04