title = "dataset water"
variables = "time", "water mass", "water filled volume", "gas filled volume" 
zone t = "system mass -  variably saturated flow", f=point
  0.0000E+00  1.8147E-01  1.8147E-01  2.4653E-01
  1.0000E-10  1.8147E-01  1.8147E-01  2.4653E-01
  6.0000E-10  1.8147E-01  1.8147E-01  2.4653E-01
  3.1000E-09  1.8147E-01  1.8147E-01  2.4653E-01
  1.5600E-08  1.8147E-01  1.8147E-01  2.4653E-01
  7.8100E-08  1.8147E-01  1.8147E-01  2.4653E-01
  3.9060E-07  1.8147E-01  1.8147E-01  2.4653E-01
  1.9531E-06  1.8148E-01  1.8148E-01  2.4652E-01
  9.7656E-06  1.8148E-01  1.8148E-01  2.4652E-01
  4.8828E-05  1.8148E-01  1.8148E-01  2.4652E-01
  2.4414E-04  1.8149E-01  1.8149E-01  2.4651E-01
  1.2207E-03  1.8156E-01  1.8156E-01  2.4644E-01
  6.1035E-03  1.8174E-01  1.8174E-01  2.4626E-01
  2.3462E-02  1.8207E-01  1.8207E-01  2.4593E-01
  8.7359E-02  1.8269E-01  1.8269E-01  2.4531E-01
  3.0004E-01  1.8379E-01  1.8379E-01  2.4421E-01
  1.0000E+00  1.8573E-01  1.8573E-01  2.4227E-01
  2.0000E+00  1.8369E-01  1.8369E-01  2.4431E-01
  3.0000E+00  1.8313E-01  1.8313E-01  2.4487E-01
  4.0000E+00  1.8283E-01  1.8283E-01  2.4517E-01
  5.0000E+00  1.8264E-01  1.8264E-01  2.4536E-01
  6.0000E+00  1.8251E-01  1.8251E-01  2.4549E-01
  7.0000E+00  1.8241E-01  1.8241E-01  2.4559E-01
  8.0000E+00  1.8232E-01  1.8232E-01  2.4568E-01
  9.0000E+00  1.8224E-01  1.8224E-01  2.4576E-01
  1.0000E+01  1.8218E-01  1.8218E-01  2.4582E-01
  1.1000E+01  1.8211E-01  1.8211E-01  2.4589E-01
  1.2000E+01  1.8205E-01  1.8205E-01  2.4595E-01
  1.3000E+01  1.8199E-01  1.8199E-01  2.4601E-01
  1.4000E+01  1.8193E-01  1.8193E-01  2.4607E-01
  1.5000E+01  1.8185E-01  1.8185E-01  2.4615E-01
  1.6000E+01  1.8177E-01  1.8177E-01  2.4623E-01
  1.7000E+01  1.8167E-01  1.8167E-01  2.4633E-01
  1.8000E+01  1.8154E-01  1.8154E-01  2.4646E-01
  1.9000E+01  1.8137E-01  1.8137E-01  2.4663E-01
  2.0000E+01  1.8117E-01  1.8117E-01  2.4683E-01
  2.1000E+01  1.8095E-01  1.8095E-01  2.4705E-01
  2.2000E+01  1.8068E-01  1.8068E-01  2.4732E-01
  2.3000E+01  1.8031E-01  1.8031E-01  2.4769E-01
  2.4000E+01  1.7982E-01  1.7982E-01  2.4818E-01
  2.5000E+01  1.7921E-01  1.7921E-01  2.4879E-01
  2.6000E+01  1.7850E-01  1.7850E-01  2.4950E-01
  2.7000E+01  1.7763E-01  1.7763E-01  2.5037E-01
  2.8000E+01  1.7670E-01  1.7670E-01  2.5130E-01
  2.9000E+01  1.7567E-01  1.7567E-01  2.5233E-01
  3.0000E+01  1.7451E-01  1.7451E-01  2.5349E-01
  3.1000E+01  1.7312E-01  1.7312E-01  2.5488E-01
  3.2000E+01  1.7178E-01  1.7178E-01  2.5622E-01
  3.3000E+01  1.7035E-01  1.7035E-01  2.5765E-01
  3.4000E+01  1.6878E-01  1.6878E-01  2.5922E-01
  3.5000E+01  1.6717E-01  1.6717E-01  2.6083E-01
  3.6000E+01  1.6568E-01  1.6568E-01  2.6232E-01
  3.7000E+01  1.6402E-01  1.6402E-01  2.6398E-01
  3.8000E+01  1.6203E-01  1.6203E-01  2.6597E-01
  3.9000E+01  1.6027E-01  1.6027E-01  2.6773E-01
  4.0000E+01  1.5846E-01  1.5846E-01  2.6954E-01
  4.1000E+01  1.5666E-01  1.5666E-01  2.7134E-01
  4.2000E+01  1.5501E-01  1.5501E-01  2.7299E-01
  4.3000E+01  1.5324E-01  1.5324E-01  2.7476E-01
  4.4000E+01  1.5163E-01  1.5163E-01  2.7637E-01
  4.4250E+01  1.5116E-01  1.5116E-01  2.7684E-01
  4.4625E+01  1.5048E-01  1.5048E-01  2.7752E-01
  4.5000E+01  1.4984E-01  1.4984E-01  2.7816E-01
  4.5250E+01  1.4942E-01  1.4942E-01  2.7858E-01
  4.5438E+01  1.4911E-01  1.4911E-01  2.7889E-01
  4.5719E+01  1.4866E-01  1.4866E-01  2.7934E-01
  4.6000E+01  1.4823E-01  1.4823E-01  2.7977E-01
  4.6250E+01  1.4777E-01  1.4777E-01  2.8023E-01
  4.6438E+01  1.4744E-01  1.4744E-01  2.8056E-01
  4.6719E+01  1.4696E-01  1.4696E-01  2.8104E-01
  4.7000E+01  1.4650E-01  1.4650E-01  2.8150E-01
  4.7125E+01  1.4629E-01  1.4629E-01  2.8171E-01
  4.7344E+01  1.4595E-01  1.4595E-01  2.8205E-01
  4.7508E+01  1.4570E-01  1.4570E-01  2.8230E-01
  4.7631E+01  1.4551E-01  1.4551E-01  2.8249E-01
  4.7815E+01  1.4523E-01  1.4523E-01  2.8277E-01
  4.8000E+01  1.4497E-01  1.4497E-01  2.8303E-01
  4.8250E+01  1.4453E-01  1.4453E-01  2.8347E-01
  4.8438E+01  1.4422E-01  1.4422E-01  2.8378E-01
  4.8578E+01  1.4398E-01  1.4398E-01  2.8402E-01
  4.8789E+01  1.4365E-01  1.4365E-01  2.8435E-01
  4.9000E+01  1.4332E-01  1.4332E-01  2.8468E-01
  4.9125E+01  1.4310E-01  1.4310E-01  2.8490E-01
  4.9234E+01  1.4292E-01  1.4292E-01  2.8508E-01
  4.9426E+01  1.4261E-01  1.4261E-01  2.8539E-01
  4.9569E+01  1.4238E-01  1.4238E-01  2.8562E-01
  4.9677E+01  1.4221E-01  1.4221E-01  2.8579E-01
  4.9839E+01  1.4196E-01  1.4196E-01  2.8604E-01
  5.0000E+01  1.4172E-01  1.4172E-01  2.8628E-01
  5.0125E+01  1.4153E-01  1.4153E-01  2.8647E-01
  5.0234E+01  1.4137E-01  1.4137E-01  2.8663E-01
  5.0426E+01  1.4110E-01  1.4110E-01  2.8690E-01
  5.0569E+01  1.4089E-01  1.4089E-01  2.8711E-01
  5.0677E+01  1.4074E-01  1.4074E-01  2.8726E-01
  5.0839E+01  1.4053E-01  1.4053E-01  2.8747E-01
  5.1000E+01  1.4031E-01  1.4031E-01  2.8769E-01
  5.1125E+01  1.4010E-01  1.4010E-01  2.8790E-01
  5.1234E+01  1.3991E-01  1.3991E-01  2.8809E-01
  5.1426E+01  1.3960E-01  1.3960E-01  2.8840E-01
  5.2000E+01  1.3874E-01  1.3874E-01  2.8926E-01
  5.2125E+01  1.3853E-01  1.3853E-01  2.8947E-01
  5.2234E+01  1.3836E-01  1.3836E-01  2.8964E-01
  5.2330E+01  1.3821E-01  1.3821E-01  2.8979E-01
  5.2498E+01  1.3795E-01  1.3795E-01  2.9005E-01
  5.2623E+01  1.3777E-01  1.3777E-01  2.9023E-01
  5.2717E+01  1.3763E-01  1.3763E-01  2.9037E-01
  5.2859E+01  1.3742E-01  1.3742E-01  2.9058E-01
  5.3000E+01  1.3723E-01  1.3723E-01  2.9077E-01
  5.3125E+01  1.3702E-01  1.3702E-01  2.9098E-01
  5.3234E+01  1.3684E-01  1.3684E-01  2.9116E-01
  5.3330E+01  1.3669E-01  1.3669E-01  2.9131E-01
  5.3414E+01  1.3655E-01  1.3655E-01  2.9145E-01
  5.3560E+01  1.3633E-01  1.3633E-01  2.9167E-01
  5.3670E+01  1.3616E-01  1.3616E-01  2.9184E-01
  5.3753E+01  1.3604E-01  1.3604E-01  2.9196E-01
  5.3876E+01  1.3586E-01  1.3586E-01  2.9214E-01
  5.4000E+01  1.3568E-01  1.3568E-01  2.9232E-01
  5.4125E+01  1.3549E-01  1.3549E-01  2.9251E-01
  5.4234E+01  1.3532E-01  1.3532E-01  2.9268E-01
  5.4330E+01  1.3518E-01  1.3518E-01  2.9282E-01
  5.4414E+01  1.3506E-01  1.3506E-01  2.9294E-01
  5.4487E+01  1.3495E-01  1.3495E-01  2.9305E-01
  5.4615E+01  1.3477E-01  1.3477E-01  2.9323E-01
  5.4711E+01  1.3463E-01  1.3463E-01  2.9337E-01
  5.4784E+01  1.3453E-01  1.3453E-01  2.9347E-01
  5.4892E+01  1.3439E-01  1.3439E-01  2.9361E-01
  5.5000E+01  1.3424E-01  1.3424E-01  2.9376E-01
  5.5125E+01  1.3405E-01  1.3405E-01  2.9395E-01
  5.5234E+01  1.3389E-01  1.3389E-01  2.9411E-01
  5.5330E+01  1.3375E-01  1.3375E-01  2.9425E-01
  5.5498E+01  1.3351E-01  1.3351E-01  2.9449E-01
  5.5623E+01  1.3334E-01  1.3334E-01  2.9466E-01
  5.5717E+01  1.3321E-01  1.3321E-01  2.9479E-01
  5.5859E+01  1.3302E-01  1.3302E-01  2.9498E-01
  5.6000E+01  1.3283E-01  1.3283E-01  2.9517E-01
  5.6125E+01  1.3265E-01  1.3265E-01  2.9535E-01
  5.6234E+01  1.3249E-01  1.3249E-01  2.9551E-01
  5.6330E+01  1.3236E-01  1.3236E-01  2.9564E-01
  5.6414E+01  1.3224E-01  1.3224E-01  2.9576E-01
  5.6487E+01  1.3214E-01  1.3214E-01  2.9586E-01
  5.6615E+01  1.3197E-01  1.3197E-01  2.9603E-01
  5.6711E+01  1.3185E-01  1.3185E-01  2.9615E-01
  5.6856E+01  1.3166E-01  1.3166E-01  2.9634E-01
  5.7000E+01  1.3148E-01  1.3148E-01  2.9652E-01
  5.7125E+01  1.3130E-01  1.3130E-01  2.9670E-01
  5.7234E+01  1.3115E-01  1.3115E-01  2.9685E-01
  5.7330E+01  1.3102E-01  1.3102E-01  2.9698E-01
  5.7414E+01  1.3090E-01  1.3090E-01  2.9710E-01
  5.7560E+01  1.3071E-01  1.3071E-01  2.9729E-01
  5.7670E+01  1.3057E-01  1.3057E-01  2.9743E-01
  5.7753E+01  1.3046E-01  1.3046E-01  2.9754E-01
  5.7876E+01  1.3031E-01  1.3031E-01  2.9769E-01
  5.8000E+01  1.3016E-01  1.3016E-01  2.9784E-01
  5.8125E+01  1.2997E-01  1.2997E-01  2.9803E-01
  5.8234E+01  1.2981E-01  1.2981E-01  2.9819E-01
  5.8330E+01  1.2968E-01  1.2968E-01  2.9832E-01
  5.8414E+01  1.2956E-01  1.2956E-01  2.9844E-01
  5.8487E+01  1.2946E-01  1.2946E-01  2.9854E-01
  5.8615E+01  1.2929E-01  1.2929E-01  2.9871E-01
  5.8711E+01  1.2916E-01  1.2916E-01  2.9884E-01
  5.8784E+01  1.2907E-01  1.2907E-01  2.9893E-01
  5.8892E+01  1.2893E-01  1.2893E-01  2.9907E-01
  5.9000E+01  1.2879E-01  1.2879E-01  2.9921E-01
  5.9125E+01  1.2862E-01  1.2862E-01  2.9938E-01
  5.9234E+01  1.2847E-01  1.2847E-01  2.9953E-01
  5.9330E+01  1.2835E-01  1.2835E-01  2.9965E-01
  5.9414E+01  1.2824E-01  1.2824E-01  2.9976E-01
  5.9487E+01  1.2815E-01  1.2815E-01  2.9985E-01
  5.9615E+01  1.2799E-01  1.2799E-01  3.0001E-01
  5.9711E+01  1.2787E-01  1.2787E-01  3.0013E-01
  5.9784E+01  1.2778E-01  1.2778E-01  3.0022E-01
  5.9892E+01  1.2766E-01  1.2766E-01  3.0034E-01
  6.0000E+01  1.2753E-01  1.2753E-01  3.0047E-01
