title = "dataset water"
variables = "x", "y", "z", "vx", "vy", "vz"
zone t = "velocities, solution time =  4.600E+01 days        " i =   99, j =   99, k =    1,  f=point
  0.5050505E-02  0.0000000E+00  0.5050505E-02  0.8091700E-07  0.0000000E+00  0.8436695E-04
  0.1515152E-01  0.0000000E+00  0.5050505E-02  0.2432238E-06  0.0000000E+00  0.8469540E-04
  0.2525252E-01  0.0000000E+00  0.5050505E-02  0.4069614E-06  0.0000000E+00  0.8535428E-04
  0.3535353E-01  0.0000000E+00  0.5050505E-02  0.5731133E-06  0.0000000E+00  0.8634754E-04
  0.4545455E-01  0.0000000E+00  0.5050505E-02  0.7427005E-06  0.0000000E+00  0.8768121E-04
  0.5555556E-01  0.0000000E+00  0.5050505E-02  0.9167967E-06  0.0000000E+00  0.8936351E-04
  0.6565657E-01  0.0000000E+00  0.5050505E-02  0.1096544E-05  0.0000000E+00  0.9140493E-04
  0.7575758E-01  0.0000000E+00  0.5050505E-02  0.1283173E-05  0.0000000E+00  0.9381845E-04
  0.8585858E-01  0.0000000E+00  0.5050505E-02  0.1478021E-05  0.0000000E+00  0.9661968E-04
  0.9595960E-01  0.0000000E+00  0.5050505E-02  0.1682560E-05  0.0000000E+00  0.9982719E-04
  0.1060606E+00  0.0000000E+00  0.5050505E-02  0.1898423E-05  0.0000000E+00  0.1034628E-03
  0.1161616E+00  0.0000000E+00  0.5050505E-02  0.2127443E-05  0.0000000E+00  0.1075518E-03
  0.1262626E+00  0.0000000E+00  0.5050505E-02  0.2371689E-05  0.0000000E+00  0.1121239E-03
  0.1363636E+00  0.0000000E+00  0.5050505E-02  0.2633522E-05  0.0000000E+00  0.1172130E-03
  0.1464646E+00  0.0000000E+00  0.5050505E-02  0.2915661E-05  0.0000000E+00  0.1228588E-03
  0.1565657E+00  0.0000000E+00  0.5050505E-02  0.3221259E-05  0.0000000E+00  0.1291068E-03
  0.1666667E+00  0.0000000E+00  0.5050505E-02  0.3554010E-05  0.0000000E+00  0.1360100E-03
  0.1767677E+00  0.0000000E+00  0.5050505E-02  0.3918284E-05  0.0000000E+00  0.1436298E-03
  0.1868687E+00  0.0000000E+00  0.5050505E-02  0.4319300E-05  0.0000000E+00  0.1520379E-03
  0.1969697E+00  0.0000000E+00  0.5050505E-02  0.4763364E-05  0.0000000E+00  0.1613180E-03
  0.2070707E+00  0.0000000E+00  0.5050505E-02  0.5258185E-05  0.0000000E+00  0.1715690E-03
  0.2171717E+00  0.0000000E+00  0.5050505E-02  0.5813311E-05  0.0000000E+00  0.1829082E-03
  0.2272727E+00  0.0000000E+00  0.5050505E-02  0.6440746E-05  0.0000000E+00  0.1954758E-03
  0.2373737E+00  0.0000000E+00  0.5050505E-02  0.7155822E-05  0.0000000E+00  0.2094418E-03
  0.2474747E+00  0.0000000E+00  0.5050505E-02  0.7978490E-05  0.0000000E+00  0.2250138E-03
  0.2575758E+00  0.0000000E+00  0.5050505E-02  0.8935252E-05  0.0000000E+00  0.2424497E-03
  0.2676768E+00  0.0000000E+00  0.5050505E-02  0.1006216E-04  0.0000000E+00  0.2620753E-03
  0.2777778E+00  0.0000000E+00  0.5050505E-02  0.1140965E-04  0.0000000E+00  0.2843102E-03
  0.2878788E+00  0.0000000E+00  0.5050505E-02  0.1305055E-04  0.0000000E+00  0.3097084E-03
  0.2979798E+00  0.0000000E+00  0.5050505E-02  0.1509427E-04  0.0000000E+00  0.3390232E-03
  0.3080808E+00  0.0000000E+00  0.5050505E-02  0.1771314E-04  0.0000000E+00  0.3733168E-03
  0.3181818E+00  0.0000000E+00  0.5050505E-02  0.2119565E-04  0.0000000E+00  0.4141590E-03
  0.3282828E+00  0.0000000E+00  0.5050505E-02  0.2606547E-04  0.0000000E+00  0.4640171E-03
  0.3383838E+00  0.0000000E+00  0.5050505E-02  0.3338454E-04  0.0000000E+00  0.5271196E-03
  0.3484848E+00  0.0000000E+00  0.5050505E-02  0.4564490E-04  0.0000000E+00  0.6116637E-03
  0.3585859E+00  0.0000000E+00  0.5050505E-02  0.6978872E-04  0.0000000E+00  0.7364791E-03
  0.3686869E+00  0.0000000E+00  0.5050505E-02  0.1287012E-03  0.0000000E+00  0.9546361E-03
  0.3787879E+00  0.0000000E+00  0.5050505E-02  0.1294235E-03  0.0000000E+00  0.1245014E-02
  0.3888889E+00  0.0000000E+00  0.5050505E-02 -0.7047058E-05  0.0000000E+00  0.1384717E-02
  0.3989899E+00  0.0000000E+00  0.5050505E-02 -0.8456709E-05  0.0000000E+00  0.1366421E-02
  0.4090909E+00  0.0000000E+00  0.5050505E-02 -0.5378184E-04  0.0000000E+00  0.1293963E-02
  0.4191919E+00  0.0000000E+00  0.5050505E-02 -0.2371261E-04  0.0000000E+00  0.1204098E-02
  0.4292929E+00  0.0000000E+00  0.5050505E-02 -0.9183671E-05  0.0000000E+00  0.1166146E-02
  0.4393939E+00  0.0000000E+00  0.5050505E-02 -0.1149554E-04  0.0000000E+00  0.1142372E-02
  0.4494950E+00  0.0000000E+00  0.5050505E-02 -0.9353983E-05  0.0000000E+00  0.1118462E-02
  0.4595959E+00  0.0000000E+00  0.5050505E-02 -0.8653927E-05  0.0000000E+00  0.1097862E-02
  0.4696970E+00  0.0000000E+00  0.5050505E-02 -0.8620328E-05  0.0000000E+00  0.1078148E-02
  0.4797980E+00  0.0000000E+00  0.5050505E-02 -0.8950664E-05  0.0000000E+00  0.1058142E-02
  0.4898990E+00  0.0000000E+00  0.5050505E-02 -0.8399533E-05  0.0000000E+00  0.1038433E-02
  0.5000000E+00  0.0000000E+00  0.5050505E-02 -0.4386489E-05  0.0000000E+00  0.1023931E-02
  0.5101010E+00  0.0000000E+00  0.5050505E-02 -0.3691667E-04  0.0000000E+00  0.9775266E-03
  0.5202020E+00  0.0000000E+00  0.5050505E-02 -0.3070883E-04  0.0000000E+00  0.9019051E-03
  0.5303030E+00  0.0000000E+00  0.5050505E-02 -0.2663312E-04  0.0000000E+00  0.8382717E-03
  0.5404040E+00  0.0000000E+00  0.5050505E-02 -0.2434915E-04  0.0000000E+00  0.7820773E-03
  0.5505050E+00  0.0000000E+00  0.5050505E-02 -0.2289016E-04  0.0000000E+00  0.7303301E-03
  0.5606061E+00  0.0000000E+00  0.5050505E-02 -0.2154895E-04  0.0000000E+00  0.6819304E-03
  0.5707071E+00  0.0000000E+00  0.5050505E-02 -0.2012665E-04  0.0000000E+00  0.6367840E-03
  0.5808081E+00  0.0000000E+00  0.5050505E-02 -0.1865337E-04  0.0000000E+00  0.5949835E-03
  0.5909091E+00  0.0000000E+00  0.5050505E-02 -0.1720378E-04  0.0000000E+00  0.5565110E-03
  0.6010101E+00  0.0000000E+00  0.5050505E-02 -0.1583383E-04  0.0000000E+00  0.5212136E-03
  0.6111111E+00  0.0000000E+00  0.5050505E-02 -0.1457207E-04  0.0000000E+00  0.4888540E-03
  0.6212121E+00  0.0000000E+00  0.5050505E-02 -0.1342678E-04  0.0000000E+00  0.4591624E-03
  0.6313131E+00  0.0000000E+00  0.5050505E-02 -0.1239436E-04  0.0000000E+00  0.4318701E-03
  0.6414142E+00  0.0000000E+00  0.5050505E-02 -0.1146541E-04  0.0000000E+00  0.4067274E-03
  0.6515151E+00  0.0000000E+00  0.5050505E-02 -0.1062851E-04  0.0000000E+00  0.3835106E-03
  0.6616161E+00  0.0000000E+00  0.5050505E-02 -0.9872195E-05  0.0000000E+00  0.3620238E-03
  0.6717172E+00  0.0000000E+00  0.5050505E-02 -0.9185946E-05  0.0000000E+00  0.3420971E-03
  0.6818182E+00  0.0000000E+00  0.5050505E-02 -0.8560526E-05  0.0000000E+00  0.3235834E-03
  0.6919192E+00  0.0000000E+00  0.5050505E-02 -0.7988005E-05  0.0000000E+00  0.3063554E-03
  0.7020202E+00  0.0000000E+00  0.5050505E-02 -0.7461639E-05  0.0000000E+00  0.2903027E-03
  0.7121212E+00  0.0000000E+00  0.5050505E-02 -0.6975700E-05  0.0000000E+00  0.2753290E-03
  0.7222222E+00  0.0000000E+00  0.5050505E-02 -0.6525316E-05  0.0000000E+00  0.2613501E-03
  0.7323232E+00  0.0000000E+00  0.5050505E-02 -0.6106316E-05  0.0000000E+00  0.2482921E-03
  0.7424242E+00  0.0000000E+00  0.5050505E-02 -0.5715123E-05  0.0000000E+00  0.2360897E-03
  0.7525253E+00  0.0000000E+00  0.5050505E-02 -0.5348655E-05  0.0000000E+00  0.2246852E-03
  0.7626263E+00  0.0000000E+00  0.5050505E-02 -0.5004250E-05  0.0000000E+00  0.2140273E-03
  0.7727273E+00  0.0000000E+00  0.5050505E-02 -0.4679603E-05  0.0000000E+00  0.2040702E-03
  0.7828283E+00  0.0000000E+00  0.5050505E-02 -0.4372716E-05  0.0000000E+00  0.1947729E-03
  0.7929293E+00  0.0000000E+00  0.5050505E-02 -0.4081851E-05  0.0000000E+00  0.1860988E-03
  0.8030303E+00  0.0000000E+00  0.5050505E-02 -0.3805488E-05  0.0000000E+00  0.1780145E-03
  0.8131313E+00  0.0000000E+00  0.5050505E-02 -0.3542292E-05  0.0000000E+00  0.1704902E-03
  0.8232324E+00  0.0000000E+00  0.5050505E-02 -0.3291082E-05  0.0000000E+00  0.1634986E-03
  0.8333333E+00  0.0000000E+00  0.5050505E-02 -0.3050799E-05  0.0000000E+00  0.1570150E-03
  0.8434343E+00  0.0000000E+00  0.5050505E-02 -0.2820492E-05  0.0000000E+00  0.1510169E-03
  0.8535354E+00  0.0000000E+00  0.5050505E-02 -0.2599292E-05  0.0000000E+00  0.1454838E-03
  0.8636364E+00  0.0000000E+00  0.5050505E-02 -0.2386397E-05  0.0000000E+00  0.1403970E-03
  0.8737374E+00  0.0000000E+00  0.5050505E-02 -0.2181064E-05  0.0000000E+00  0.1357396E-03
  0.8838384E+00  0.0000000E+00  0.5050505E-02 -0.1982594E-05  0.0000000E+00  0.1314961E-03
  0.8939394E+00  0.0000000E+00  0.5050505E-02 -0.1790325E-05  0.0000000E+00  0.1276527E-03
  0.9040404E+00  0.0000000E+00  0.5050505E-02 -0.1603630E-05  0.0000000E+00  0.1241967E-03
  0.9141414E+00  0.0000000E+00  0.5050505E-02 -0.1421904E-05  0.0000000E+00  0.1211171E-03
  0.9242424E+00  0.0000000E+00  0.5050505E-02 -0.1244566E-05  0.0000000E+00  0.1184038E-03
  0.9343435E+00  0.0000000E+00  0.5050505E-02 -0.1071055E-05  0.0000000E+00  0.1160483E-03
  0.9444444E+00  0.0000000E+00  0.5050505E-02 -0.9008262E-06  0.0000000E+00  0.1140428E-03
  0.9545454E+00  0.0000000E+00  0.5050505E-02 -0.7333468E-06  0.0000000E+00  0.1123812E-03
  0.9646465E+00  0.0000000E+00  0.5050505E-02 -0.5680973E-06  0.0000000E+00  0.1110581E-03
  0.9747475E+00  0.0000000E+00  0.5050505E-02 -0.4045679E-06  0.0000000E+00  0.1100694E-03
  0.9848485E+00  0.0000000E+00  0.5050505E-02 -0.2422575E-06  0.0000000E+00  0.1094120E-03
  0.9974747E+00  0.0000000E+00  0.5050505E-02 -0.8067265E-07  0.0000000E+00  0.1090837E-03
  0.5050505E-02  0.0000000E+00  0.1515152E-01  0.2422054E-06  0.0000000E+00  0.8426457E-04
  0.1515152E-01  0.0000000E+00  0.1515152E-01  0.7280318E-06  0.0000000E+00  0.8459178E-04
  0.2525252E-01  0.0000000E+00  0.1515152E-01  0.1218138E-05  0.0000000E+00  0.8524813E-04
  0.3535353E-01  0.0000000E+00  0.1515152E-01  0.1715460E-05  0.0000000E+00  0.8623752E-04
  0.4545455E-01  0.0000000E+00  0.1515152E-01  0.2223049E-05  0.0000000E+00  0.8756591E-04
  0.5555556E-01  0.0000000E+00  0.1515152E-01  0.2744109E-05  0.0000000E+00  0.8924141E-04
  0.6565657E-01  0.0000000E+00  0.1515152E-01  0.3282049E-05  0.0000000E+00  0.9127439E-04
  0.7575758E-01  0.0000000E+00  0.1515152E-01  0.3840538E-05  0.0000000E+00  0.9367764E-04
  0.8585858E-01  0.0000000E+00  0.1515152E-01  0.4423569E-05  0.0000000E+00  0.9646658E-04
  0.9595960E-01  0.0000000E+00  0.1515152E-01  0.5035529E-05  0.0000000E+00  0.9965952E-04
  0.1060606E+00  0.0000000E+00  0.1515152E-01  0.5681288E-05  0.0000000E+00  0.1032779E-03
  0.1161616E+00  0.0000000E+00  0.1515152E-01  0.6366300E-05  0.0000000E+00  0.1073469E-03
  0.1262626E+00  0.0000000E+00  0.1515152E-01  0.7096729E-05  0.0000000E+00  0.1118953E-03
  0.1363636E+00  0.0000000E+00  0.1515152E-01  0.7879602E-05  0.0000000E+00  0.1169569E-03
  0.1464646E+00  0.0000000E+00  0.1515152E-01  0.8722995E-05  0.0000000E+00  0.1225703E-03
  0.1565657E+00  0.0000000E+00  0.1515152E-01  0.9636277E-05  0.0000000E+00  0.1287804E-03
  0.1666667E+00  0.0000000E+00  0.1515152E-01  0.1063041E-04  0.0000000E+00  0.1356390E-03
  0.1767677E+00  0.0000000E+00  0.1515152E-01  0.1171833E-04  0.0000000E+00  0.1432060E-03
  0.1868687E+00  0.0000000E+00  0.1515152E-01  0.1291550E-04  0.0000000E+00  0.1515513E-03
  0.1969697E+00  0.0000000E+00  0.1515152E-01  0.1424053E-04  0.0000000E+00  0.1607564E-03
  0.2070707E+00  0.0000000E+00  0.1515152E-01  0.1571615E-04  0.0000000E+00  0.1709171E-03
  0.2171717E+00  0.0000000E+00  0.1515152E-01  0.1737045E-04  0.0000000E+00  0.1821464E-03
  0.2272727E+00  0.0000000E+00  0.1515152E-01  0.1923862E-04  0.0000000E+00  0.1945792E-03
  0.2373737E+00  0.0000000E+00  0.1515152E-01  0.2136550E-04  0.0000000E+00  0.2083775E-03
  0.2474747E+00  0.0000000E+00  0.1515152E-01  0.2380914E-04  0.0000000E+00  0.2237382E-03
  0.2575758E+00  0.0000000E+00  0.1515152E-01  0.2664631E-04  0.0000000E+00  0.2409033E-03
  0.2676768E+00  0.0000000E+00  0.1515152E-01  0.2998077E-04  0.0000000E+00  0.2601749E-03
  0.2777778E+00  0.0000000E+00  0.1515152E-01  0.3395640E-04  0.0000000E+00  0.2819363E-03
  0.2878788E+00  0.0000000E+00  0.1515152E-01  0.3877884E-04  0.0000000E+00  0.3066829E-03
  0.2979798E+00  0.0000000E+00  0.1515152E-01  0.4475225E-04  0.0000000E+00  0.3350688E-03
  0.3080808E+00  0.0000000E+00  0.1515152E-01  0.5234516E-04  0.0000000E+00  0.3679775E-03
  0.3181818E+00  0.0000000E+00  0.1515152E-01  0.6231469E-04  0.0000000E+00  0.4066278E-03
  0.3282828E+00  0.0000000E+00  0.1515152E-01  0.7595625E-04  0.0000000E+00  0.4527141E-03
  0.3383838E+00  0.0000000E+00  0.1515152E-01  0.9564517E-04  0.0000000E+00  0.5084972E-03
  0.3484848E+00  0.0000000E+00  0.1515152E-01  0.1261209E-03  0.0000000E+00  0.5762954E-03
  0.3585859E+00  0.0000000E+00  0.1515152E-01  0.1778547E-03  0.0000000E+00  0.6545488E-03
  0.3686869E+00  0.0000000E+00  0.1515152E-01  0.2768785E-03  0.0000000E+00  0.7168903E-03
  0.3787879E+00  0.0000000E+00  0.1515152E-01  0.3173689E-03  0.0000000E+00  0.8012669E-03
  0.3888889E+00  0.0000000E+00  0.1515152E-01  0.1648691E-03  0.0000000E+00  0.1066266E-02
  0.3989899E+00  0.0000000E+00  0.1515152E-01 -0.3591246E-04  0.0000000E+00  0.1245673E-02
  0.4090909E+00  0.0000000E+00  0.1515152E-01 -0.1288710E-03  0.0000000E+00  0.1198052E-02
  0.4191919E+00  0.0000000E+00  0.1515152E-01 -0.5740963E-04  0.0000000E+00  0.1161074E-02
  0.4292929E+00  0.0000000E+00  0.1515152E-01 -0.1289180E-04  0.0000000E+00  0.1155524E-02
  0.4393939E+00  0.0000000E+00  0.1515152E-01 -0.3811799E-04  0.0000000E+00  0.1144152E-02
  0.4494950E+00  0.0000000E+00  0.1515152E-01 -0.2664330E-04  0.0000000E+00  0.1117232E-02
  0.4595959E+00  0.0000000E+00  0.1515152E-01 -0.2523212E-04  0.0000000E+00  0.1098732E-02
  0.4696970E+00  0.0000000E+00  0.1515152E-01 -0.2540253E-04  0.0000000E+00  0.1080029E-02
  0.4797980E+00  0.0000000E+00  0.1515152E-01 -0.2748576E-04  0.0000000E+00  0.1059477E-02
  0.4898990E+00  0.0000000E+00  0.1515152E-01 -0.2811685E-04  0.0000000E+00  0.1035385E-02
  0.5000000E+00  0.0000000E+00  0.1515152E-01 -0.1310444E-04  0.0000000E+00  0.1017381E-02
  0.5101010E+00  0.0000000E+00  0.1515152E-01 -0.1125881E-03  0.0000000E+00  0.9687230E-03
  0.5202020E+00  0.0000000E+00  0.1515152E-01 -0.9009227E-04  0.0000000E+00  0.8929632E-03
  0.5303030E+00  0.0000000E+00  0.1515152E-01 -0.7817573E-04  0.0000000E+00  0.8331848E-03
  0.5404040E+00  0.0000000E+00  0.1515152E-01 -0.7221464E-04  0.0000000E+00  0.7795395E-03
  0.5505050E+00  0.0000000E+00  0.1515152E-01 -0.6850227E-04  0.0000000E+00  0.7286684E-03
  0.5606061E+00  0.0000000E+00  0.1515152E-01 -0.6467872E-04  0.0000000E+00  0.6802402E-03
  0.5707071E+00  0.0000000E+00  0.1515152E-01 -0.6039687E-04  0.0000000E+00  0.6348989E-03
  0.5808081E+00  0.0000000E+00  0.1515152E-01 -0.5591611E-04  0.0000000E+00  0.5930114E-03
  0.5909091E+00  0.0000000E+00  0.1515152E-01 -0.5152047E-04  0.0000000E+00  0.5545860E-03
  0.6010101E+00  0.0000000E+00  0.1515152E-01 -0.4738714E-04  0.0000000E+00  0.5194239E-03
  0.6111111E+00  0.0000000E+00  0.1515152E-01 -0.4359611E-04  0.0000000E+00  0.4872402E-03
  0.6212121E+00  0.0000000E+00  0.1515152E-01 -0.4016493E-04  0.0000000E+00  0.4577328E-03
  0.6313131E+00  0.0000000E+00  0.1515152E-01 -0.3707737E-04  0.0000000E+00  0.4306153E-03
  0.6414142E+00  0.0000000E+00  0.1515152E-01 -0.3430193E-04  0.0000000E+00  0.4056298E-03
  0.6515151E+00  0.0000000E+00  0.1515152E-01 -0.3180250E-04  0.0000000E+00  0.3825504E-03
  0.6616161E+00  0.0000000E+00  0.1515152E-01 -0.2954385E-04  0.0000000E+00  0.3611818E-03
  0.6717172E+00  0.0000000E+00  0.1515152E-01 -0.2749412E-04  0.0000000E+00  0.3413561E-03
  0.6818182E+00  0.0000000E+00  0.1515152E-01 -0.2562560E-04  0.0000000E+00  0.3229286E-03
  0.6919192E+00  0.0000000E+00  0.1515152E-01 -0.2391462E-04  0.0000000E+00  0.3057741E-03
  0.7020202E+00  0.0000000E+00  0.1515152E-01 -0.2234112E-04  0.0000000E+00  0.2897844E-03
  0.7121212E+00  0.0000000E+00  0.1515152E-01 -0.2088809E-04  0.0000000E+00  0.2748648E-03
  0.7222222E+00  0.0000000E+00  0.1515152E-01 -0.1954104E-04  0.0000000E+00  0.2609325E-03
  0.7323232E+00  0.0000000E+00  0.1515152E-01 -0.1828758E-04  0.0000000E+00  0.2479149E-03
  0.7424242E+00  0.0000000E+00  0.1515152E-01 -0.1711707E-04  0.0000000E+00  0.2357475E-03
  0.7525253E+00  0.0000000E+00  0.1515152E-01 -0.1602033E-04  0.0000000E+00  0.2243735E-03
  0.7626263E+00  0.0000000E+00  0.1515152E-01 -0.1498944E-04  0.0000000E+00  0.2137423E-03
  0.7727273E+00  0.0000000E+00  0.1515152E-01 -0.1401753E-04  0.0000000E+00  0.2038085E-03
  0.7828283E+00  0.0000000E+00  0.1515152E-01 -0.1309866E-04  0.0000000E+00  0.1945320E-03
  0.7929293E+00  0.0000000E+00  0.1515152E-01 -0.1222765E-04  0.0000000E+00  0.1858761E-03
  0.8030303E+00  0.0000000E+00  0.1515152E-01 -0.1139998E-04  0.0000000E+00  0.1778081E-03
  0.8131313E+00  0.0000000E+00  0.1515152E-01 -0.1061167E-04  0.0000000E+00  0.1702984E-03
  0.8232324E+00  0.0000000E+00  0.1515152E-01 -0.9859191E-05  0.0000000E+00  0.1633199E-03
  0.8333333E+00  0.0000000E+00  0.1515152E-01 -0.9139408E-05  0.0000000E+00  0.1568481E-03
  0.8434343E+00  0.0000000E+00  0.1515152E-01 -0.8449476E-05  0.0000000E+00  0.1508607E-03
  0.8535354E+00  0.0000000E+00  0.1515152E-01 -0.7786802E-05  0.0000000E+00  0.1453373E-03
  0.8636364E+00  0.0000000E+00  0.1515152E-01 -0.7148999E-05  0.0000000E+00  0.1402592E-03
  0.8737374E+00  0.0000000E+00  0.1515152E-01 -0.6533842E-05  0.0000000E+00  0.1356097E-03
  0.8838384E+00  0.0000000E+00  0.1515152E-01 -0.5939244E-05  0.0000000E+00  0.1313734E-03
  0.8939394E+00  0.0000000E+00  0.1515152E-01 -0.5363228E-05  0.0000000E+00  0.1275363E-03
  0.9040404E+00  0.0000000E+00  0.1515152E-01 -0.4803910E-05  0.0000000E+00  0.1240861E-03
  0.9141414E+00  0.0000000E+00  0.1515152E-01 -0.4259487E-05  0.0000000E+00  0.1210115E-03
  0.9242424E+00  0.0000000E+00  0.1515152E-01 -0.3728218E-05  0.0000000E+00  0.1183027E-03
  0.9343435E+00  0.0000000E+00  0.1515152E-01 -0.3208422E-05  0.0000000E+00  0.1159509E-03
  0.9444444E+00  0.0000000E+00  0.1515152E-01 -0.2698464E-05  0.0000000E+00  0.1139488E-03
  0.9545454E+00  0.0000000E+00  0.1515152E-01 -0.2196753E-05  0.0000000E+00  0.1122898E-03
  0.9646465E+00  0.0000000E+00  0.1515152E-01 -0.1701731E-05  0.0000000E+00  0.1109688E-03
  0.9747475E+00  0.0000000E+00  0.1515152E-01 -0.1211870E-05  0.0000000E+00  0.1099817E-03
  0.9848485E+00  0.0000000E+00  0.1515152E-01 -0.7256696E-06  0.0000000E+00  0.1093252E-03
  0.9974747E+00  0.0000000E+00  0.1515152E-01 -0.2416494E-06  0.0000000E+00  0.1089975E-03
  0.5050505E-02  0.0000000E+00  0.2525252E-01  0.4021082E-06  0.0000000E+00  0.8406403E-04
  0.1515152E-01  0.0000000E+00  0.2525252E-01  0.1208670E-05  0.0000000E+00  0.8438878E-04
  0.2525252E-01  0.0000000E+00  0.2525252E-01  0.2022315E-05  0.0000000E+00  0.8504012E-04
  0.3535353E-01  0.0000000E+00  0.2525252E-01  0.2847899E-05  0.0000000E+00  0.8602188E-04
  0.4545455E-01  0.0000000E+00  0.2525252E-01  0.3690458E-05  0.0000000E+00  0.8733987E-04
  0.5555556E-01  0.0000000E+00  0.2525252E-01  0.4555283E-05  0.0000000E+00  0.8900197E-04
  0.6565657E-01  0.0000000E+00  0.2525252E-01  0.5448002E-05  0.0000000E+00  0.9101830E-04
  0.7575758E-01  0.0000000E+00  0.2525252E-01  0.6374666E-05  0.0000000E+00  0.9340134E-04
  0.8585858E-01  0.0000000E+00  0.2525252E-01  0.7341853E-05  0.0000000E+00  0.9616609E-04
  0.9595960E-01  0.0000000E+00  0.2525252E-01  0.8356792E-05  0.0000000E+00  0.9933036E-04
  0.1060606E+00  0.0000000E+00  0.2525252E-01  0.9427495E-05  0.0000000E+00  0.1029150E-03
  0.1161616E+00  0.0000000E+00  0.2525252E-01  0.1056293E-04  0.0000000E+00  0.1069443E-03
  0.1262626E+00  0.0000000E+00  0.2525252E-01  0.1177321E-04  0.0000000E+00  0.1114465E-03
  0.1363636E+00  0.0000000E+00  0.2525252E-01  0.1306987E-04  0.0000000E+00  0.1164538E-03
  0.1464646E+00  0.0000000E+00  0.2525252E-01  0.1446612E-04  0.0000000E+00  0.1220038E-03
  0.1565657E+00  0.0000000E+00  0.2525252E-01  0.1597727E-04  0.0000000E+00  0.1281395E-03
  0.1666667E+00  0.0000000E+00  0.2525252E-01  0.1762119E-04  0.0000000E+00  0.1349105E-03
  0.1767677E+00  0.0000000E+00  0.2525252E-01  0.1941894E-04  0.0000000E+00  0.1423742E-03
  0.1868687E+00  0.0000000E+00  0.2525252E-01  0.2139556E-04  0.0000000E+00  0.1505969E-03
  0.1969697E+00  0.0000000E+00  0.2525252E-01  0.2358116E-04  0.0000000E+00  0.1596555E-03
  0.2070707E+00  0.0000000E+00  0.2525252E-01  0.2601232E-04  0.0000000E+00  0.1696401E-03
  0.2171717E+00  0.0000000E+00  0.2525252E-01  0.2873405E-04  0.0000000E+00  0.1806559E-03
  0.2272727E+00  0.0000000E+00  0.2525252E-01  0.3180244E-04  0.0000000E+00  0.1928272E-03
  0.2373737E+00  0.0000000E+00  0.2525252E-01  0.3528846E-04  0.0000000E+00  0.2063016E-03
  0.2474747E+00  0.0000000E+00  0.2525252E-01  0.3928329E-04  0.0000000E+00  0.2212558E-03
  0.2575758E+00  0.0000000E+00  0.2525252E-01  0.4390628E-04  0.0000000E+00  0.2379028E-03
  0.2676768E+00  0.0000000E+00  0.2525252E-01  0.4931675E-04  0.0000000E+00  0.2565023E-03
  0.2777778E+00  0.0000000E+00  0.2525252E-01  0.5573221E-04  0.0000000E+00  0.2773731E-03
  0.2878788E+00  0.0000000E+00  0.2525252E-01  0.6345721E-04  0.0000000E+00  0.3009101E-03
  0.2979798E+00  0.0000000E+00  0.2525252E-01  0.7293025E-04  0.0000000E+00  0.3276050E-03
  0.3080808E+00  0.0000000E+00  0.2525252E-01  0.8480232E-04  0.0000000E+00  0.3580685E-03
  0.3181818E+00  0.0000000E+00  0.2525252E-01  0.1000711E-03  0.0000000E+00  0.3930448E-03
  0.3282828E+00  0.0000000E+00  0.2525252E-01  0.1203105E-03  0.0000000E+00  0.4333851E-03
  0.3383838E+00  0.0000000E+00  0.2525252E-01  0.1480440E-03  0.0000000E+00  0.4798759E-03
  0.3484848E+00  0.0000000E+00  0.2525252E-01  0.1872166E-03  0.0000000E+00  0.5326228E-03
  0.3585859E+00  0.0000000E+00  0.2525252E-01  0.2430221E-03  0.0000000E+00  0.5891717E-03
  0.3686869E+00  0.0000000E+00  0.2525252E-01  0.3165147E-03  0.0000000E+00  0.6395588E-03
  0.3787879E+00  0.0000000E+00  0.2525252E-01  0.3958999E-03  0.0000000E+00  0.6828970E-03
  0.3888889E+00  0.0000000E+00  0.2525252E-01  0.4261542E-03  0.0000000E+00  0.7922425E-03
  0.3989899E+00  0.0000000E+00  0.2525252E-01  0.5771478E-04  0.0000000E+00  0.1009374E-02
  0.4090909E+00  0.0000000E+00  0.2525252E-01 -0.1691957E-03  0.0000000E+00  0.1116112E-02
  0.4191919E+00  0.0000000E+00  0.2525252E-01 -0.6741090E-04  0.0000000E+00  0.1093044E-02
  0.4292929E+00  0.0000000E+00  0.2525252E-01 -0.1116798E-05  0.0000000E+00  0.1100006E-02
  0.4393939E+00  0.0000000E+00  0.2525252E-01 -0.5130730E-04  0.0000000E+00  0.1109321E-02
  0.4494950E+00  0.0000000E+00  0.2525252E-01 -0.3496453E-04  0.0000000E+00  0.1110621E-02
  0.4595959E+00  0.0000000E+00  0.2525252E-01 -0.4013027E-04  0.0000000E+00  0.1101637E-02
  0.4696970E+00  0.0000000E+00  0.2525252E-01 -0.4023742E-04  0.0000000E+00  0.1085354E-02
  0.4797980E+00  0.0000000E+00  0.2525252E-01 -0.4698362E-04  0.0000000E+00  0.1065713E-02
  0.4898990E+00  0.0000000E+00  0.2525252E-01 -0.6121894E-04  0.0000000E+00  0.1028780E-02
  0.5000000E+00  0.0000000E+00  0.2525252E-01 -0.4764370E-04  0.0000000E+00  0.9689491E-03
  0.5101010E+00  0.0000000E+00  0.2525252E-01 -0.1683593E-03  0.0000000E+00  0.9148685E-03
  0.5202020E+00  0.0000000E+00  0.2525252E-01 -0.1397744E-03  0.0000000E+00  0.8716529E-03
  0.5303030E+00  0.0000000E+00  0.2525252E-01 -0.1241603E-03  0.0000000E+00  0.8243325E-03
  0.5404040E+00  0.0000000E+00  0.2525252E-01 -0.1179053E-03  0.0000000E+00  0.7761255E-03
  0.5505050E+00  0.0000000E+00  0.2525252E-01 -0.1141390E-03  0.0000000E+00  0.7263031E-03
  0.5606061E+00  0.0000000E+00  0.2525252E-01 -0.1081914E-03  0.0000000E+00  0.6771269E-03
  0.5707071E+00  0.0000000E+00  0.2525252E-01 -0.1008356E-03  0.0000000E+00  0.6311246E-03
  0.5808081E+00  0.0000000E+00  0.2525252E-01 -0.9309732E-04  0.0000000E+00  0.5890222E-03
  0.5909091E+00  0.0000000E+00  0.2525252E-01 -0.8559681E-04  0.0000000E+00  0.5507208E-03
  0.6010101E+00  0.0000000E+00  0.2525252E-01 -0.7862758E-04  0.0000000E+00  0.5158638E-03
  0.6111111E+00  0.0000000E+00  0.2525252E-01 -0.7229106E-04  0.0000000E+00  0.4840544E-03
  0.6212121E+00  0.0000000E+00  0.2525252E-01 -0.6658847E-04  0.0000000E+00  0.4549262E-03
  0.6313131E+00  0.0000000E+00  0.2525252E-01 -0.6147424E-04  0.0000000E+00  0.4281608E-03
  0.6414142E+00  0.0000000E+00  0.2525252E-01 -0.5688506E-04  0.0000000E+00  0.4034877E-03
  0.6515151E+00  0.0000000E+00  0.2525252E-01 -0.5275507E-04  0.0000000E+00  0.3806788E-03
  0.6616161E+00  0.0000000E+00  0.2525252E-01 -0.4902298E-04  0.0000000E+00  0.3595417E-03
  0.6717172E+00  0.0000000E+00  0.2525252E-01 -0.4563488E-04  0.0000000E+00  0.3399130E-03
  0.6818182E+00  0.0000000E+00  0.2525252E-01 -0.4254464E-04  0.0000000E+00  0.3216532E-03
  0.6919192E+00  0.0000000E+00  0.2525252E-01 -0.3971331E-04  0.0000000E+00  0.3046418E-03
  0.7020202E+00  0.0000000E+00  0.2525252E-01 -0.3710799E-04  0.0000000E+00  0.2887746E-03
  0.7121212E+00  0.0000000E+00  0.2525252E-01 -0.3470089E-04  0.0000000E+00  0.2739603E-03
  0.7222222E+00  0.0000000E+00  0.2525252E-01 -0.3246829E-04  0.0000000E+00  0.2601188E-03
  0.7323232E+00  0.0000000E+00  0.2525252E-01 -0.3038993E-04  0.0000000E+00  0.2471796E-03
  0.7424242E+00  0.0000000E+00  0.2525252E-01 -0.2844833E-04  0.0000000E+00  0.2350803E-03
  0.7525253E+00  0.0000000E+00  0.2525252E-01 -0.2662843E-04  0.0000000E+00  0.2237656E-03
  0.7626263E+00  0.0000000E+00  0.2525252E-01 -0.2491722E-04  0.0000000E+00  0.2131862E-03
  0.7727273E+00  0.0000000E+00  0.2525252E-01 -0.2330342E-04  0.0000000E+00  0.2032980E-03
  0.7828283E+00  0.0000000E+00  0.2525252E-01 -0.2177723E-04  0.0000000E+00  0.1940615E-03
  0.7929293E+00  0.0000000E+00  0.2525252E-01 -0.2033017E-04  0.0000000E+00  0.1854412E-03
  0.8030303E+00  0.0000000E+00  0.2525252E-01 -0.1895479E-04  0.0000000E+00  0.1774050E-03
  0.8131313E+00  0.0000000E+00  0.2525252E-01 -0.1764457E-04  0.0000000E+00  0.1699236E-03
  0.8232324E+00  0.0000000E+00  0.2525252E-01 -0.1639373E-04  0.0000000E+00  0.1629707E-03
  0.8333333E+00  0.0000000E+00  0.2525252E-01 -0.1519708E-04  0.0000000E+00  0.1565219E-03
  0.8434343E+00  0.0000000E+00  0.2525252E-01 -0.1404995E-04  0.0000000E+00  0.1505554E-03
  0.8535354E+00  0.0000000E+00  0.2525252E-01 -0.1294807E-04  0.0000000E+00  0.1450508E-03
  0.8636364E+00  0.0000000E+00  0.2525252E-01 -0.1188749E-04  0.0000000E+00  0.1399899E-03
  0.8737374E+00  0.0000000E+00  0.2525252E-01 -0.1086454E-04  0.0000000E+00  0.1353559E-03
  0.8838384E+00  0.0000000E+00  0.2525252E-01 -0.9875767E-05  0.0000000E+00  0.1311336E-03
  0.8939394E+00  0.0000000E+00  0.2525252E-01 -0.8917890E-05  0.0000000E+00  0.1273091E-03
  0.9040404E+00  0.0000000E+00  0.2525252E-01 -0.7987787E-05  0.0000000E+00  0.1238701E-03
  0.9141414E+00  0.0000000E+00  0.2525252E-01 -0.7082462E-05  0.0000000E+00  0.1208055E-03
  0.9242424E+00  0.0000000E+00  0.2525252E-01 -0.6199027E-05  0.0000000E+00  0.1181054E-03
  0.9343435E+00  0.0000000E+00  0.2525252E-01 -0.5334685E-05  0.0000000E+00  0.1157611E-03
  0.9444444E+00  0.0000000E+00  0.2525252E-01 -0.4486722E-05  0.0000000E+00  0.1137653E-03
  0.9545454E+00  0.0000000E+00  0.2525252E-01 -0.3652489E-05  0.0000000E+00  0.1121116E-03
  0.9646465E+00  0.0000000E+00  0.2525252E-01 -0.2829397E-05  0.0000000E+00  0.1107948E-03
  0.9747475E+00  0.0000000E+00  0.2525252E-01 -0.2014907E-05  0.0000000E+00  0.1098107E-03
  0.9848485E+00  0.0000000E+00  0.2525252E-01 -0.1206519E-05  0.0000000E+00  0.1091563E-03
  0.9974747E+00  0.0000000E+00  0.2525252E-01 -0.4017709E-06  0.0000000E+00  0.1088296E-03
  0.5050505E-02  0.0000000E+00  0.3535353E-01  0.5600492E-06  0.0000000E+00  0.8377029E-04
  0.1515152E-01  0.0000000E+00  0.3535353E-01  0.1683397E-05  0.0000000E+00  0.8409139E-04
  0.2525252E-01  0.0000000E+00  0.3535353E-01  0.2816552E-05  0.0000000E+00  0.8473538E-04
  0.3535353E-01  0.0000000E+00  0.3535353E-01  0.3966230E-05  0.0000000E+00  0.8570592E-04
  0.4545455E-01  0.0000000E+00  0.3535353E-01  0.5139392E-05  0.0000000E+00  0.8700858E-04
  0.5555556E-01  0.0000000E+00  0.3535353E-01  0.6343345E-05  0.0000000E+00  0.8865099E-04
  0.6565657E-01  0.0000000E+00  0.3535353E-01  0.7585855E-05  0.0000000E+00  0.9064287E-04
  0.7575758E-01  0.0000000E+00  0.3535353E-01  0.8875266E-05  0.0000000E+00  0.9299622E-04
  0.8585858E-01  0.0000000E+00  0.3535353E-01  0.1022064E-04  0.0000000E+00  0.9572545E-04
  0.9595960E-01  0.0000000E+00  0.3535353E-01  0.1163193E-04  0.0000000E+00  0.9884765E-04
  0.1060606E+00  0.0000000E+00  0.3535353E-01  0.1312013E-04  0.0000000E+00  0.1023828E-03
  0.1161616E+00  0.0000000E+00  0.3535353E-01  0.1469756E-04  0.0000000E+00  0.1063541E-03
  0.1262626E+00  0.0000000E+00  0.3535353E-01  0.1637807E-04  0.0000000E+00  0.1107884E-03
  0.1363636E+00  0.0000000E+00  0.3535353E-01  0.1817741E-04  0.0000000E+00  0.1157165E-03
  0.1464646E+00  0.0000000E+00  0.3535353E-01  0.2011360E-04  0.0000000E+00  0.1211738E-03
  0.1565657E+00  0.0000000E+00  0.3535353E-01  0.2220746E-04  0.0000000E+00  0.1272009E-03
  0.1666667E+00  0.0000000E+00  0.3535353E-01  0.2448321E-04  0.0000000E+00  0.1338444E-03
  0.1767677E+00  0.0000000E+00  0.3535353E-01  0.2696929E-04  0.0000000E+00  0.1411579E-03
  0.1868687E+00  0.0000000E+00  0.3535353E-01  0.2969936E-04  0.0000000E+00  0.1492027E-03
  0.1969697E+00  0.0000000E+00  0.3535353E-01  0.3271372E-04  0.0000000E+00  0.1580495E-03
  0.2070707E+00  0.0000000E+00  0.3535353E-01  0.3606103E-04  0.0000000E+00  0.1677802E-03
  0.2171717E+00  0.0000000E+00  0.3535353E-01  0.3980075E-04  0.0000000E+00  0.1784894E-03
  0.2272727E+00  0.0000000E+00  0.3535353E-01  0.4400642E-04  0.0000000E+00  0.1902870E-03
  0.2373737E+00  0.0000000E+00  0.3535353E-01  0.4877012E-04  0.0000000E+00  0.2033012E-03
  0.2474747E+00  0.0000000E+00  0.3535353E-01  0.5420889E-04  0.0000000E+00  0.2176819E-03
  0.2575758E+00  0.0000000E+00  0.3535353E-01  0.6047367E-04  0.0000000E+00  0.2336046E-03
  0.2676768E+00  0.0000000E+00  0.3535353E-01  0.6776247E-04  0.0000000E+00  0.2512750E-03
  0.2777778E+00  0.0000000E+00  0.3535353E-01  0.7633972E-04  0.0000000E+00  0.2709332E-03
  0.2878788E+00  0.0000000E+00  0.3535353E-01  0.8656541E-04  0.0000000E+00  0.2928558E-03
  0.2979798E+00  0.0000000E+00  0.3535353E-01  0.9893974E-04  0.0000000E+00  0.3173528E-03