title = "dataset water"
variables = "x", "y", "z", "vx", "vy", "vz"
zone t = "velocities, solution time =  4.400E+01 days        " i =   99, j =   99, k =    1,  f=point
  0.5050505E-02  0.0000000E+00  0.5050505E-02  0.6769453E-07  0.0000000E+00  0.6642996E-04
  0.1515152E-01  0.0000000E+00  0.5050505E-02  0.2034767E-06  0.0000000E+00  0.6670415E-04
  0.2525252E-01  0.0000000E+00  0.5050505E-02  0.3404473E-06  0.0000000E+00  0.6725413E-04
  0.3535353E-01  0.0000000E+00  0.5050505E-02  0.4794208E-06  0.0000000E+00  0.6808319E-04
  0.4545455E-01  0.0000000E+00  0.5050505E-02  0.6212405E-06  0.0000000E+00  0.6919631E-04
  0.5555556E-01  0.0000000E+00  0.5050505E-02  0.7667898E-06  0.0000000E+00  0.7060023E-04
  0.6565657E-01  0.0000000E+00  0.5050505E-02  0.9170046E-06  0.0000000E+00  0.7230360E-04
  0.7575758E-01  0.0000000E+00  0.5050505E-02  0.1072887E-05  0.0000000E+00  0.7431705E-04
  0.8585858E-01  0.0000000E+00  0.5050505E-02  0.1235524E-05  0.0000000E+00  0.7665336E-04
  0.9595960E-01  0.0000000E+00  0.5050505E-02  0.1406100E-05  0.0000000E+00  0.7932768E-04
  0.1060606E+00  0.0000000E+00  0.5050505E-02  0.1585927E-05  0.0000000E+00  0.8235773E-04
  0.1161616E+00  0.0000000E+00  0.5050505E-02  0.1776463E-05  0.0000000E+00  0.8576410E-04
  0.1262626E+00  0.0000000E+00  0.5050505E-02  0.1979347E-05  0.0000000E+00  0.8957063E-04
  0.1363636E+00  0.0000000E+00  0.5050505E-02  0.2196438E-05  0.0000000E+00  0.9380478E-04
  0.1464646E+00  0.0000000E+00  0.5050505E-02  0.2429861E-05  0.0000000E+00  0.9849817E-04
  0.1565657E+00  0.0000000E+00  0.5050505E-02  0.2682065E-05  0.0000000E+00  0.1036872E-03
  0.1666667E+00  0.0000000E+00  0.5050505E-02  0.2955902E-05  0.0000000E+00  0.1094138E-03
  0.1767677E+00  0.0000000E+00  0.5050505E-02  0.3254723E-05  0.0000000E+00  0.1157266E-03
  0.1868687E+00  0.0000000E+00  0.5050505E-02  0.3582503E-05  0.0000000E+00  0.1226815E-03
  0.1969697E+00  0.0000000E+00  0.5050505E-02  0.3944011E-05  0.0000000E+00  0.1303442E-03
  0.2070707E+00  0.0000000E+00  0.5050505E-02  0.4345038E-05  0.0000000E+00  0.1387911E-03
  0.2171717E+00  0.0000000E+00  0.5050505E-02  0.4792705E-05  0.0000000E+00  0.1481124E-03
  0.2272727E+00  0.0000000E+00  0.5050505E-02  0.5295891E-05  0.0000000E+00  0.1584154E-03
  0.2373737E+00  0.0000000E+00  0.5050505E-02  0.5865850E-05  0.0000000E+00  0.1698288E-03
  0.2474747E+00  0.0000000E+00  0.5050505E-02  0.6517096E-05  0.0000000E+00  0.1825085E-03
  0.2575758E+00  0.0000000E+00  0.5050505E-02  0.7268727E-05  0.0000000E+00  0.1966466E-03
  0.2676768E+00  0.0000000E+00  0.5050505E-02  0.8146449E-05  0.0000000E+00  0.2124829E-03
  0.2777778E+00  0.0000000E+00  0.5050505E-02  0.9185781E-05  0.0000000E+00  0.2303232E-03
  0.2878788E+00  0.0000000E+00  0.5050505E-02  0.1043734E-04  0.0000000E+00  0.2505655E-03
  0.2979798E+00  0.0000000E+00  0.5050505E-02  0.1197596E-04  0.0000000E+00  0.2737432E-03
  0.3080808E+00  0.0000000E+00  0.5050505E-02  0.1391725E-04  0.0000000E+00  0.3005955E-03
  0.3181818E+00  0.0000000E+00  0.5050505E-02  0.1644995E-04  0.0000000E+00  0.3321911E-03
  0.3282828E+00  0.0000000E+00  0.5050505E-02  0.1990424E-04  0.0000000E+00  0.3701626E-03
  0.3383838E+00  0.0000000E+00  0.5050505E-02  0.2491098E-04  0.0000000E+00  0.4171905E-03
  0.3484848E+00  0.0000000E+00  0.5050505E-02  0.3281908E-04  0.0000000E+00  0.4781246E-03
  0.3585859E+00  0.0000000E+00  0.5050505E-02  0.4693822E-04  0.0000000E+00  0.5629538E-03
  0.3686869E+00  0.0000000E+00  0.5050505E-02  0.7675300E-04  0.0000000E+00  0.6959505E-03
  0.3787879E+00  0.0000000E+00  0.5050505E-02  0.1290469E-03  0.0000000E+00  0.9210177E-03
  0.3888889E+00  0.0000000E+00  0.5050505E-02 -0.7807440E-05  0.0000000E+00  0.1054307E-02
  0.3989899E+00  0.0000000E+00  0.5050505E-02 -0.1541154E-04  0.0000000E+00  0.1027981E-02
  0.4090909E+00  0.0000000E+00  0.5050505E-02 -0.2712214E-04  0.0000000E+00  0.9800435E-03
  0.4191919E+00  0.0000000E+00  0.5050505E-02 -0.1237127E-04  0.0000000E+00  0.9356936E-03
  0.4292929E+00  0.0000000E+00  0.5050505E-02 -0.6061419E-05  0.0000000E+00  0.9150515E-03
  0.4393939E+00  0.0000000E+00  0.5050505E-02 -0.5158972E-05  0.0000000E+00  0.9025076E-03
  0.4494950E+00  0.0000000E+00  0.5050505E-02 -0.5423330E-05  0.0000000E+00  0.8906943E-03
  0.4595959E+00  0.0000000E+00  0.5050505E-02 -0.6207564E-05  0.0000000E+00  0.8777309E-03
  0.4696970E+00  0.0000000E+00  0.5050505E-02 -0.7500626E-05  0.0000000E+00  0.8624803E-03
  0.4797980E+00  0.0000000E+00  0.5050505E-02 -0.9245032E-05  0.0000000E+00  0.8438920E-03
  0.4898990E+00  0.0000000E+00  0.5050505E-02 -0.1122312E-04  0.0000000E+00  0.8212328E-03
  0.5000000E+00  0.0000000E+00  0.5050505E-02 -0.1381516E-04  0.0000000E+00  0.7936061E-03
  0.5101010E+00  0.0000000E+00  0.5050505E-02 -0.1800244E-04  0.0000000E+00  0.7586488E-03
  0.5202020E+00  0.0000000E+00  0.5050505E-02 -0.1912509E-04  0.0000000E+00  0.7180446E-03
  0.5303030E+00  0.0000000E+00  0.5050505E-02 -0.1885389E-04  0.0000000E+00  0.6767093E-03
  0.5404040E+00  0.0000000E+00  0.5050505E-02 -0.1815382E-04  0.0000000E+00  0.6366221E-03
  0.5505050E+00  0.0000000E+00  0.5050505E-02 -0.1730678E-04  0.0000000E+00  0.5983854E-03
  0.5606061E+00  0.0000000E+00  0.5050505E-02 -0.1638563E-04  0.0000000E+00  0.5622121E-03
  0.5707071E+00  0.0000000E+00  0.5050505E-02 -0.1542713E-04  0.0000000E+00  0.5281956E-03
  0.5808081E+00  0.0000000E+00  0.5050505E-02 -0.1446403E-04  0.0000000E+00  0.4963557E-03
  0.5909091E+00  0.0000000E+00  0.5050505E-02 -0.1352366E-04  0.0000000E+00  0.4666496E-03
  0.6010101E+00  0.0000000E+00  0.5050505E-02 -0.1262514E-04  0.0000000E+00  0.4389876E-03
  0.6111111E+00  0.0000000E+00  0.5050505E-02 -0.1177941E-04  0.0000000E+00  0.4132506E-03
  0.6212121E+00  0.0000000E+00  0.5050505E-02 -0.1099103E-04  0.0000000E+00  0.3893063E-03
  0.6313131E+00  0.0000000E+00  0.5050505E-02 -0.1026017E-04  0.0000000E+00  0.3670196E-03
  0.6414142E+00  0.0000000E+00  0.5050505E-02 -0.9584419E-05  0.0000000E+00  0.3462602E-03
  0.6515151E+00  0.0000000E+00  0.5050505E-02 -0.8960032E-05  0.0000000E+00  0.3269062E-03
  0.6616161E+00  0.0000000E+00  0.5050505E-02 -0.8382723E-05  0.0000000E+00  0.3088459E-03
  0.6717172E+00  0.0000000E+00  0.5050505E-02 -0.7848160E-05  0.0000000E+00  0.2919780E-03
  0.6818182E+00  0.0000000E+00  0.5050505E-02 -0.7352213E-05  0.0000000E+00  0.2762112E-03
  0.6919192E+00  0.0000000E+00  0.5050505E-02 -0.6891068E-05  0.0000000E+00  0.2614636E-03
  0.7020202E+00  0.0000000E+00  0.5050505E-02 -0.6461265E-05  0.0000000E+00  0.2476616E-03
  0.7121212E+00  0.0000000E+00  0.5050505E-02 -0.6059695E-05  0.0000000E+00  0.2347392E-03
  0.7222222E+00  0.0000000E+00  0.5050505E-02 -0.5683584E-05  0.0000000E+00  0.2226373E-03
  0.7323232E+00  0.0000000E+00  0.5050505E-02 -0.5330460E-05  0.0000000E+00  0.2113025E-03
  0.7424242E+00  0.0000000E+00  0.5050505E-02 -0.4998130E-05  0.0000000E+00  0.2006868E-03
  0.7525253E+00  0.0000000E+00  0.5050505E-02 -0.4684653E-05  0.0000000E+00  0.1907469E-03
  0.7626263E+00  0.0000000E+00  0.5050505E-02 -0.4388309E-05  0.0000000E+00  0.1814436E-03
  0.7727273E+00  0.0000000E+00  0.5050505E-02 -0.4107573E-05  0.0000000E+00  0.1727412E-03
  0.7828283E+00  0.0000000E+00  0.5050505E-02 -0.3841094E-05  0.0000000E+00  0.1646074E-03
  0.7929293E+00  0.0000000E+00  0.5050505E-02 -0.3587669E-05  0.0000000E+00  0.1570126E-03
  0.8030303E+00  0.0000000E+00  0.5050505E-02 -0.3346219E-05  0.0000000E+00  0.1499299E-03
  0.8131313E+00  0.0000000E+00  0.5050505E-02 -0.3115773E-05  0.0000000E+00  0.1433345E-03
  0.8232324E+00  0.0000000E+00  0.5050505E-02 -0.2895449E-05  0.0000000E+00  0.1372038E-03
  0.8333333E+00  0.0000000E+00  0.5050505E-02 -0.2684438E-05  0.0000000E+00  0.1315169E-03
  0.8434343E+00  0.0000000E+00  0.5050505E-02 -0.2481995E-05  0.0000000E+00  0.1262548E-03
  0.8535354E+00  0.0000000E+00  0.5050505E-02 -0.2287425E-05  0.0000000E+00  0.1213999E-03
  0.8636364E+00  0.0000000E+00  0.5050505E-02 -0.2100073E-05  0.0000000E+00  0.1169362E-03
  0.8737374E+00  0.0000000E+00  0.5050505E-02 -0.1919323E-05  0.0000000E+00  0.1128490E-03
  0.8838384E+00  0.0000000E+00  0.5050505E-02 -0.1744587E-05  0.0000000E+00  0.1091251E-03
  0.8939394E+00  0.0000000E+00  0.5050505E-02 -0.1575303E-05  0.0000000E+00  0.1057521E-03
  0.9040404E+00  0.0000000E+00  0.5050505E-02 -0.1410931E-05  0.0000000E+00  0.1027193E-03
  0.9141414E+00  0.0000000E+00  0.5050505E-02 -0.1250947E-05  0.0000000E+00  0.1000168E-03
  0.9242424E+00  0.0000000E+00  0.5050505E-02 -0.1094848E-05  0.0000000E+00  0.9763589E-04
  0.9343435E+00  0.0000000E+00  0.5050505E-02 -0.9421401E-06  0.0000000E+00  0.9556893E-04
  0.9444444E+00  0.0000000E+00  0.5050505E-02 -0.7923451E-06  0.0000000E+00  0.9380930E-04
  0.9545454E+00  0.0000000E+00  0.5050505E-02 -0.6449939E-06  0.0000000E+00  0.9235138E-04
  0.9646465E+00  0.0000000E+00  0.5050505E-02 -0.4996268E-06  0.0000000E+00  0.9119054E-04
  0.9747475E+00  0.0000000E+00  0.5050505E-02 -0.3557918E-06  0.0000000E+00  0.9032309E-04
  0.9848485E+00  0.0000000E+00  0.5050505E-02 -0.2130437E-06  0.0000000E+00  0.8974630E-04
  0.9974747E+00  0.0000000E+00  0.5050505E-02 -0.7094320E-07  0.0000000E+00  0.8945835E-04
  0.5050505E-02  0.0000000E+00  0.1515152E-01  0.2026572E-06  0.0000000E+00  0.6636512E-04
  0.1515152E-01  0.0000000E+00  0.1515152E-01  0.6091482E-06  0.0000000E+00  0.6663837E-04
  0.2525252E-01  0.0000000E+00  0.1515152E-01  0.1019194E-05  0.0000000E+00  0.6718648E-04
  0.3535353E-01  0.0000000E+00  0.1515152E-01  0.1435228E-05  0.0000000E+00  0.6801266E-04
  0.4545455E-01  0.0000000E+00  0.1515152E-01  0.1859768E-05  0.0000000E+00  0.6912185E-04
  0.5555556E-01  0.0000000E+00  0.1515152E-01  0.2295453E-05  0.0000000E+00  0.7052072E-04
  0.6565657E-01  0.0000000E+00  0.1515152E-01  0.2745077E-05  0.0000000E+00  0.7221780E-04
  0.7575758E-01  0.0000000E+00  0.1515152E-01  0.3211633E-05  0.0000000E+00  0.7422360E-04
  0.8585858E-01  0.0000000E+00  0.1515152E-01  0.3698358E-05  0.0000000E+00  0.7655075E-04
  0.9595960E-01  0.0000000E+00  0.1515152E-01  0.4208793E-05  0.0000000E+00  0.7921420E-04
  0.1060606E+00  0.0000000E+00  0.1515152E-01  0.4746844E-05  0.0000000E+00  0.8223144E-04
  0.1161616E+00  0.0000000E+00  0.1515152E-01  0.5316859E-05  0.0000000E+00  0.8562278E-04
  0.1262626E+00  0.0000000E+00  0.1515152E-01  0.5923722E-05  0.0000000E+00  0.8941171E-04
  0.1363636E+00  0.0000000E+00  0.1515152E-01  0.6572964E-05  0.0000000E+00  0.9362525E-04
  0.1464646E+00  0.0000000E+00  0.1515152E-01  0.7270906E-05  0.0000000E+00  0.9829451E-04
  0.1565657E+00  0.0000000E+00  0.1515152E-01  0.8024829E-05  0.0000000E+00  0.1034552E-03
  0.1666667E+00  0.0000000E+00  0.1515152E-01  0.8843201E-05  0.0000000E+00  0.1091486E-03
  0.1767677E+00  0.0000000E+00  0.1515152E-01  0.9735957E-05  0.0000000E+00  0.1154221E-03
  0.1868687E+00  0.0000000E+00  0.1515152E-01  0.1071487E-04  0.0000000E+00  0.1223305E-03
  0.1969697E+00  0.0000000E+00  0.1515152E-01  0.1179405E-04  0.0000000E+00  0.1299377E-03
  0.2070707E+00  0.0000000E+00  0.1515152E-01  0.1299059E-04  0.0000000E+00  0.1383179E-03
  0.2171717E+00  0.0000000E+00  0.1515152E-01  0.1432545E-04  0.0000000E+00  0.1475586E-03
  0.2272727E+00  0.0000000E+00  0.1515152E-01  0.1582473E-04  0.0000000E+00  0.1577631E-03
  0.2373737E+00  0.0000000E+00  0.1515152E-01  0.1752137E-04  0.0000000E+00  0.1690546E-03
  0.2474747E+00  0.0000000E+00  0.1515152E-01  0.1945773E-04  0.0000000E+00  0.1815818E-03
  0.2575758E+00  0.0000000E+00  0.1515152E-01  0.2168925E-04  0.0000000E+00  0.1955260E-03
  0.2676768E+00  0.0000000E+00  0.1515152E-01  0.2429013E-04  0.0000000E+00  0.2111112E-03
  0.2777778E+00  0.0000000E+00  0.1515152E-01  0.2736212E-04  0.0000000E+00  0.2286188E-03
  0.2878788E+00  0.0000000E+00  0.1515152E-01  0.3104877E-04  0.0000000E+00  0.2484088E-03
  0.2979798E+00  0.0000000E+00  0.1515152E-01  0.3555938E-04  0.0000000E+00  0.2709508E-03
  0.3080808E+00  0.0000000E+00  0.1515152E-01  0.4121126E-04  0.0000000E+00  0.2968721E-03
  0.3181818E+00  0.0000000E+00  0.1515152E-01  0.4850812E-04  0.0000000E+00  0.3270296E-03
  0.3282828E+00  0.0000000E+00  0.1515152E-01  0.5829461E-04  0.0000000E+00  0.3626186E-03
  0.3383838E+00  0.0000000E+00  0.1515152E-01  0.7208136E-04  0.0000000E+00  0.4053090E-03
  0.3484848E+00  0.0000000E+00  0.1515152E-01  0.9277929E-04  0.0000000E+00  0.4572877E-03
  0.3585859E+00  0.0000000E+00  0.1515152E-01  0.1264812E-03  0.0000000E+00  0.5204468E-03
  0.3686869E+00  0.0000000E+00  0.1515152E-01  0.1870857E-03  0.0000000E+00  0.5907444E-03
  0.3787879E+00  0.0000000E+00  0.1515152E-01  0.2840424E-03  0.0000000E+00  0.6543143E-03
  0.3888889E+00  0.0000000E+00  0.1515152E-01  0.1091480E-03  0.0000000E+00  0.8192100E-03
  0.3989899E+00  0.0000000E+00  0.1515152E-01 -0.4058949E-04  0.0000000E+00  0.9451497E-03
  0.4090909E+00  0.0000000E+00  0.1515152E-01 -0.5925910E-04  0.0000000E+00  0.9281732E-03
  0.4191919E+00  0.0000000E+00  0.1515152E-01 -0.2955829E-04  0.0000000E+00  0.9168240E-03
  0.4292929E+00  0.0000000E+00  0.1515152E-01 -0.1334511E-04  0.0000000E+00  0.9098879E-03
  0.4393939E+00  0.0000000E+00  0.1515152E-01 -0.1439914E-04  0.0000000E+00  0.9038336E-03
  0.4494950E+00  0.0000000E+00  0.1515152E-01 -0.1575867E-04  0.0000000E+00  0.8936452E-03
  0.4595959E+00  0.0000000E+00  0.1515152E-01 -0.1810892E-04  0.0000000E+00  0.8816590E-03
  0.4696970E+00  0.0000000E+00  0.1515152E-01 -0.2202394E-04  0.0000000E+00  0.8673240E-03
  0.4797980E+00  0.0000000E+00  0.1515152E-01 -0.2743706E-04  0.0000000E+00  0.8493803E-03
  0.4898990E+00  0.0000000E+00  0.1515152E-01 -0.3301727E-04  0.0000000E+00  0.8275286E-03
  0.5000000E+00  0.0000000E+00  0.1515152E-01 -0.3989573E-04  0.0000000E+00  0.8020636E-03
  0.5101010E+00  0.0000000E+00  0.1515152E-01 -0.5672694E-04  0.0000000E+00  0.7655572E-03
  0.5202020E+00  0.0000000E+00  0.1515152E-01 -0.5860581E-04  0.0000000E+00  0.7203860E-03
  0.5303030E+00  0.0000000E+00  0.1515152E-01 -0.5692377E-04  0.0000000E+00  0.6771211E-03
  0.5404040E+00  0.0000000E+00  0.1515152E-01 -0.5457427E-04  0.0000000E+00  0.6363598E-03
  0.5505050E+00  0.0000000E+00  0.1515152E-01 -0.5197362E-04  0.0000000E+00  0.5978120E-03
  0.5606061E+00  0.0000000E+00  0.1515152E-01 -0.4918148E-04  0.0000000E+00  0.5614446E-03
  0.5707071E+00  0.0000000E+00  0.1515152E-01 -0.4627898E-04  0.0000000E+00  0.5273108E-03
  0.5808081E+00  0.0000000E+00  0.1515152E-01 -0.4336608E-04  0.0000000E+00  0.4954207E-03
  0.5909091E+00  0.0000000E+00  0.1515152E-01 -0.4052807E-04  0.0000000E+00  0.4657175E-03
  0.6010101E+00  0.0000000E+00  0.1515152E-01 -0.3782266E-04  0.0000000E+00  0.4380945E-03
  0.6111111E+00  0.0000000E+00  0.1515152E-01 -0.3528135E-04  0.0000000E+00  0.4124174E-03
  0.6212121E+00  0.0000000E+00  0.1515152E-01 -0.3291600E-04  0.0000000E+00  0.3885424E-03
  0.6313131E+00  0.0000000E+00  0.1515152E-01 -0.3072561E-04  0.0000000E+00  0.3663270E-03
  0.6414142E+00  0.0000000E+00  0.1515152E-01 -0.2870183E-04  0.0000000E+00  0.3456364E-03
  0.6515151E+00  0.0000000E+00  0.1515152E-01 -0.2683263E-04  0.0000000E+00  0.3263463E-03
  0.6616161E+00  0.0000000E+00  0.1515152E-01 -0.2510473E-04  0.0000000E+00  0.3083440E-03
  0.6717172E+00  0.0000000E+00  0.1515152E-01 -0.2350490E-04  0.0000000E+00  0.2915281E-03
  0.6818182E+00  0.0000000E+00  0.1515152E-01 -0.2202064E-04  0.0000000E+00  0.2758076E-03
  0.6919192E+00  0.0000000E+00  0.1515152E-01 -0.2064047E-04  0.0000000E+00  0.2611009E-03
  0.7020202E+00  0.0000000E+00  0.1515152E-01 -0.1935400E-04  0.0000000E+00  0.2473350E-03
  0.7121212E+00  0.0000000E+00  0.1515152E-01 -0.1815194E-04  0.0000000E+00  0.2344444E-03
  0.7222222E+00  0.0000000E+00  0.1515152E-01 -0.1702598E-04  0.0000000E+00  0.2223705E-03
  0.7323232E+00  0.0000000E+00  0.1515152E-01 -0.1596872E-04  0.0000000E+00  0.2110604E-03
  0.7424242E+00  0.0000000E+00  0.1515152E-01 -0.1497362E-04  0.0000000E+00  0.2004664E-03
  0.7525253E+00  0.0000000E+00  0.1515152E-01 -0.1403487E-04  0.0000000E+00  0.1905457E-03
  0.7626263E+00  0.0000000E+00  0.1515152E-01 -0.1314735E-04  0.0000000E+00  0.1812593E-03
  0.7727273E+00  0.0000000E+00  0.1515152E-01 -0.1230649E-04  0.0000000E+00  0.1725720E-03
  0.7828283E+00  0.0000000E+00  0.1515152E-01 -0.1150827E-04  0.0000000E+00  0.1644517E-03
  0.7929293E+00  0.0000000E+00  0.1515152E-01 -0.1074909E-04  0.0000000E+00  0.1568689E-03
  0.8030303E+00  0.0000000E+00  0.1515152E-01 -0.1002574E-04  0.0000000E+00  0.1497970E-03
  0.8131313E+00  0.0000000E+00  0.1515152E-01 -0.9335327E-05  0.0000000E+00  0.1432114E-03
  0.8232324E+00  0.0000000E+00  0.1515152E-01 -0.8675210E-05  0.0000000E+00  0.1370895E-03
  0.8333333E+00  0.0000000E+00  0.1515152E-01 -0.8042981E-05  0.0000000E+00  0.1314106E-03
  0.8434343E+00  0.0000000E+00  0.1515152E-01 -0.7436409E-05  0.0000000E+00  0.1261558E-03
  0.8535354E+00  0.0000000E+00  0.1515152E-01 -0.6853418E-05  0.0000000E+00  0.1213075E-03
  0.8636364E+00  0.0000000E+00  0.1515152E-01 -0.6292054E-05  0.0000000E+00  0.1168498E-03
  0.8737374E+00  0.0000000E+00  0.1515152E-01 -0.5750471E-05  0.0000000E+00  0.1127680E-03
  0.8838384E+00  0.0000000E+00  0.1515152E-01 -0.5226911E-05  0.0000000E+00  0.1090489E-03
  0.8939394E+00  0.0000000E+00  0.1515152E-01 -0.4719689E-05  0.0000000E+00  0.1056804E-03
  0.9040404E+00  0.0000000E+00  0.1515152E-01 -0.4227189E-05  0.0000000E+00  0.1026515E-03
  0.9141414E+00  0.0000000E+00  0.1515152E-01 -0.3747845E-05  0.0000000E+00  0.9995241E-04
  0.9242424E+00  0.0000000E+00  0.1515152E-01 -0.3280144E-05  0.0000000E+00  0.9757451E-04
  0.9343435E+00  0.0000000E+00  0.1515152E-01 -0.2822613E-05  0.0000000E+00  0.9551015E-04
  0.9444444E+00  0.0000000E+00  0.1515152E-01 -0.2373815E-05  0.0000000E+00  0.9375272E-04
  0.9545454E+00  0.0000000E+00  0.1515152E-01 -0.1932345E-05  0.0000000E+00  0.9229661E-04
  0.9646465E+00  0.0000000E+00  0.1515152E-01 -0.1496827E-05  0.0000000E+00  0.9113720E-04
  0.9747475E+00  0.0000000E+00  0.1515152E-01 -0.1065906E-05  0.0000000E+00  0.9027080E-04
  0.9848485E+00  0.0000000E+00  0.1515152E-01 -0.6382470E-06  0.0000000E+00  0.8969470E-04
  0.9974747E+00  0.0000000E+00  0.1515152E-01 -0.2125342E-06  0.0000000E+00  0.8940710E-04
  0.5050505E-02  0.0000000E+00  0.2525252E-01  0.3365474E-06  0.0000000E+00  0.6623849E-04
  0.1515152E-01  0.0000000E+00  0.2525252E-01  0.1011592E-05  0.0000000E+00  0.6650991E-04
  0.2525252E-01  0.0000000E+00  0.2525252E-01  0.1692522E-05  0.0000000E+00  0.6705430E-04
  0.3535353E-01  0.0000000E+00  0.2525252E-01  0.2383361E-05  0.0000000E+00  0.6787482E-04
  0.4545455E-01  0.0000000E+00  0.2525252E-01  0.3088273E-05  0.0000000E+00  0.6897626E-04
  0.5555556E-01  0.0000000E+00  0.2525252E-01  0.3811615E-05  0.0000000E+00  0.7036517E-04
  0.6565657E-01  0.0000000E+00  0.2525252E-01  0.4558001E-05  0.0000000E+00  0.7204986E-04
  0.7575758E-01  0.0000000E+00  0.2525252E-01  0.5332371E-05  0.0000000E+00  0.7404060E-04
  0.8585858E-01  0.0000000E+00  0.2525252E-01  0.6140066E-05  0.0000000E+00  0.7634971E-04
  0.9595960E-01  0.0000000E+00  0.2525252E-01  0.6986923E-05  0.0000000E+00  0.7899177E-04
  0.1060606E+00  0.0000000E+00  0.2525252E-01  0.7879372E-05  0.0000000E+00  0.8198381E-04
  0.1161616E+00  0.0000000E+00  0.2525252E-01  0.8824570E-05  0.0000000E+00  0.8534559E-04
  0.1262626E+00  0.0000000E+00  0.2525252E-01  0.9830543E-05  0.0000000E+00  0.8909989E-04
  0.1363636E+00  0.0000000E+00  0.2525252E-01  0.1090637E-04  0.0000000E+00  0.9327295E-04
  0.1464646E+00  0.0000000E+00  0.2525252E-01  0.1206242E-04  0.0000000E+00  0.9789483E-04
  0.1565657E+00  0.0000000E+00  0.2525252E-01  0.1331059E-04  0.0000000E+00  0.1030000E-03
  0.1666667E+00  0.0000000E+00  0.2525252E-01  0.1466473E-04  0.0000000E+00  0.1086282E-03
  0.1767677E+00  0.0000000E+00  0.2525252E-01  0.1614101E-04  0.0000000E+00  0.1148247E-03
  0.1868687E+00  0.0000000E+00  0.2525252E-01  0.1775858E-04  0.0000000E+00  0.1216420E-03
  0.1969697E+00  0.0000000E+00  0.2525252E-01  0.1954028E-04  0.0000000E+00  0.1291407E-03
  0.2070707E+00  0.0000000E+00  0.2525252E-01  0.2151369E-04  0.0000000E+00  0.1373910E-03
  0.2171717E+00  0.0000000E+00  0.2525252E-01  0.2371252E-04  0.0000000E+00  0.1464747E-03
  0.2272727E+00  0.0000000E+00  0.2525252E-01  0.2617848E-04  0.0000000E+00  0.1564878E-03
  0.2373737E+00  0.0000000E+00  0.2525252E-01  0.2896393E-04  0.0000000E+00  0.1675437E-03
  0.2474747E+00  0.0000000E+00  0.2525252E-01  0.3213565E-04  0.0000000E+00  0.1797769E-03
  0.2575758E+00  0.0000000E+00  0.2525252E-01  0.3578032E-04  0.0000000E+00  0.1933492E-03
  0.2676768E+00  0.0000000E+00  0.2525252E-01  0.4001255E-04  0.0000000E+00  0.2084557E-03
  0.2777778E+00  0.0000000E+00  0.2525252E-01  0.4498730E-04  0.0000000E+00  0.2253352E-03
  0.2878788E+00  0.0000000E+00  0.2525252E-01  0.5091907E-04  0.0000000E+00  0.2442812E-03
  0.2979798E+00  0.0000000E+00  0.2525252E-01  0.5811288E-04  0.0000000E+00  0.2656574E-03
  0.3080808E+00  0.0000000E+00  0.2525252E-01  0.6701571E-04  0.0000000E+00  0.2899143E-03
  0.3181818E+00  0.0000000E+00  0.2525252E-01  0.7830432E-04  0.0000000E+00  0.3176017E-03
  0.3282828E+00  0.0000000E+00  0.2525252E-01  0.9303921E-04  0.0000000E+00  0.3493580E-03
  0.3383838E+00  0.0000000E+00  0.2525252E-01  0.1129374E-03  0.0000000E+00  0.3858187E-03
  0.3484848E+00  0.0000000E+00  0.2525252E-01  0.1408427E-03  0.0000000E+00  0.4272885E-03
  0.3585859E+00  0.0000000E+00  0.2525252E-01  0.1814276E-03  0.0000000E+00  0.4728409E-03
  0.3686869E+00  0.0000000E+00  0.2525252E-01  0.2416110E-03  0.0000000E+00  0.5185941E-03
  0.3787879E+00  0.0000000E+00  0.2525252E-01  0.3269183E-03  0.0000000E+00  0.5588435E-03
  0.3888889E+00  0.0000000E+00  0.2525252E-01  0.3239363E-03  0.0000000E+00  0.6720632E-03
  0.3989899E+00  0.0000000E+00  0.2525252E-01  0.3239717E-04  0.0000000E+00  0.8600703E-03
  0.4090909E+00  0.0000000E+00  0.2525252E-01 -0.8882521E-04  0.0000000E+00  0.9249895E-03
  0.4191919E+00  0.0000000E+00  0.2525252E-01 -0.3478341E-04  0.0000000E+00  0.8964572E-03
  0.4292929E+00  0.0000000E+00  0.2525252E-01 -0.5410514E-05  0.0000000E+00  0.9062044E-03
  0.4393939E+00  0.0000000E+00  0.2525252E-01 -0.2330723E-04  0.0000000E+00  0.9110003E-03
  0.4494950E+00  0.0000000E+00  0.2525252E-01 -0.2513684E-04  0.0000000E+00  0.9003006E-03
  0.4595959E+00  0.0000000E+00  0.2525252E-01 -0.2851530E-04  0.0000000E+00  0.8897344E-03
  0.4696970E+00  0.0000000E+00  0.2525252E-01 -0.3507150E-04  0.0000000E+00  0.8774087E-03
  0.4797980E+00  0.0000000E+00  0.2525252E-01 -0.4530184E-04  0.0000000E+00  0.8603608E-03
  0.4898990E+00  0.0000000E+00  0.2525252E-01 -0.5344644E-04  0.0000000E+00  0.8390459E-03
  0.5000000E+00  0.0000000E+00  0.2525252E-01 -0.5678557E-04  0.0000000E+00  0.8225426E-03
  0.5101010E+00  0.0000000E+00  0.2525252E-01 -0.1089820E-03  0.0000000E+00  0.7823295E-03
  0.5202020E+00  0.0000000E+00  0.2525252E-01 -0.1013233E-03  0.0000000E+00  0.7228408E-03
  0.5303030E+00  0.0000000E+00  0.2525252E-01 -0.9559973E-04  0.0000000E+00  0.6769337E-03
  0.5404040E+00  0.0000000E+00  0.2525252E-01 -0.9123415E-04  0.0000000E+00  0.6356193E-03
  0.5505050E+00  0.0000000E+00  0.2525252E-01 -0.8683799E-04  0.0000000E+00  0.5966577E-03
  0.5606061E+00  0.0000000E+00  0.2525252E-01 -0.8210733E-04  0.0000000E+00  0.5599237E-03
  0.5707071E+00  0.0000000E+00  0.2525252E-01 -0.7717050E-04  0.0000000E+00  0.5255510E-03
  0.5808081E+00  0.0000000E+00  0.2525252E-01 -0.7222761E-04  0.0000000E+00  0.4935628E-03
  0.5909091E+00  0.0000000E+00  0.2525252E-01 -0.6743564E-04  0.0000000E+00  0.4638727E-03
  0.6010101E+00  0.0000000E+00  0.2525252E-01 -0.6289074E-04  0.0000000E+00  0.4363349E-03
  0.6111111E+00  0.0000000E+00  0.2525252E-01 -0.5863956E-04  0.0000000E+00  0.4107827E-03
  0.6212121E+00  0.0000000E+00  0.2525252E-01 -0.5469517E-04  0.0000000E+00  0.3870488E-03
  0.6313131E+00  0.0000000E+00  0.2525252E-01 -0.5105046E-04  0.0000000E+00  0.3649762E-03
  0.6414142E+00  0.0000000E+00  0.2525252E-01 -0.4768761E-04  0.0000000E+00  0.3444218E-03
  0.6515151E+00  0.0000000E+00  0.2525252E-01 -0.4458411E-04  0.0000000E+00  0.3252574E-03
  0.6616161E+00  0.0000000E+00  0.2525252E-01 -0.4171637E-04  0.0000000E+00  0.3073689E-03
  0.6717172E+00  0.0000000E+00  0.2525252E-01 -0.3906157E-04  0.0000000E+00  0.2906545E-03
  0.6818182E+00  0.0000000E+00  0.2525252E-01 -0.3659855E-04  0.0000000E+00  0.2750241E-03
  0.6919192E+00  0.0000000E+00  0.2525252E-01 -0.3430804E-04  0.0000000E+00  0.2603970E-03
  0.7020202E+00  0.0000000E+00  0.2525252E-01 -0.3217274E-04  0.0000000E+00  0.2467013E-03
  0.7121212E+00  0.0000000E+00  0.2525252E-01 -0.3017720E-04  0.0000000E+00  0.2338725E-03
  0.7222222E+00  0.0000000E+00  0.2525252E-01 -0.2830764E-04  0.0000000E+00  0.2218528E-03
  0.7323232E+00  0.0000000E+00  0.2525252E-01 -0.2655182E-04  0.0000000E+00  0.2105905E-03
  0.7424242E+00  0.0000000E+00  0.2525252E-01 -0.2489888E-04  0.0000000E+00  0.2000386E-03
  0.7525253E+00  0.0000000E+00  0.2525252E-01 -0.2333924E-04  0.0000000E+00  0.1901550E-03
  0.7626263E+00  0.0000000E+00  0.2525252E-01 -0.2186440E-04  0.0000000E+00  0.1809015E-03
  0.7727273E+00  0.0000000E+00  0.2525252E-01 -0.2046685E-04  0.0000000E+00  0.1722434E-03
  0.7828283E+00  0.0000000E+00  0.2525252E-01 -0.1913995E-04  0.0000000E+00  0.1641491E-03
  0.7929293E+00  0.0000000E+00  0.2525252E-01 -0.1787776E-04  0.0000000E+00  0.1565897E-03
  0.8030303E+00  0.0000000E+00  0.2525252E-01 -0.1667499E-04  0.0000000E+00  0.1495388E-03
  0.8131313E+00  0.0000000E+00  0.2525252E-01 -0.1552687E-04  0.0000000E+00  0.1429721E-03
  0.8232324E+00  0.0000000E+00  0.2525252E-01 -0.1442903E-04  0.0000000E+00  0.1368674E-03
  0.8333333E+00  0.0000000E+00  0.2525252E-01 -0.1337751E-04  0.0000000E+00  0.1312041E-03
  0.8434343E+00  0.0000000E+00  0.2525252E-01 -0.1236862E-04  0.0000000E+00  0.1259634E-03
  0.8535354E+00  0.0000000E+00  0.2525252E-01 -0.1139892E-04  0.0000000E+00  0.1211279E-03
  0.8636364E+00  0.0000000E+00  0.2525252E-01 -0.1046518E-04  0.0000000E+00  0.1166819E-03
  0.8737374E+00  0.0000000E+00  0.2525252E-01 -0.9564331E-05  0.0000000E+00  0.1126107E-03
  0.8838384E+00  0.0000000E+00  0.2525252E-01 -0.8693462E-05  0.0000000E+00  0.1089011E-03
  0.8939394E+00  0.0000000E+00  0.2525252E-01 -0.7849777E-05  0.0000000E+00  0.1055412E-03
  0.9040404E+00  0.0000000E+00  0.2525252E-01 -0.7030585E-05  0.0000000E+00  0.1025199E-03
  0.9141414E+00  0.0000000E+00  0.2525252E-01 -0.6233290E-05  0.0000000E+00  0.9982758E-04
  0.9242424E+00  0.0000000E+00  0.2525252E-01 -0.5455372E-05  0.0000000E+00  0.9745559E-04
  0.9343435E+00  0.0000000E+00  0.2525252E-01 -0.4694382E-05  0.0000000E+00  0.9539633E-04
  0.9444444E+00  0.0000000E+00  0.2525252E-01 -0.3947933E-05  0.0000000E+00  0.9364321E-04
  0.9545454E+00  0.0000000E+00  0.2525252E-01 -0.3213686E-05  0.0000000E+00  0.9219065E-04
  0.9646465E+00  0.0000000E+00  0.2525252E-01 -0.2489352E-05  0.0000000E+00  0.9103403E-04
  0.9747475E+00  0.0000000E+00  0.2525252E-01 -0.1772678E-05  0.0000000E+00  0.9016972E-04
  0.9848485E+00  0.0000000E+00  0.2525252E-01 -0.1061443E-05  0.0000000E+00  0.8959498E-04
  0.9974747E+00  0.0000000E+00  0.2525252E-01 -0.3534555E-06  0.0000000E+00  0.8930805E-04
  0.5050505E-02  0.0000000E+00  0.3535353E-01  0.4689361E-06  0.0000000E+00  0.6605365E-04
  0.1515152E-01  0.0000000E+00  0.3535353E-01  0.1409511E-05  0.0000000E+00  0.6632237E-04
  0.2525252E-01  0.0000000E+00  0.3535353E-01  0.2358240E-05  0.0000000E+00  0.6686130E-04
  0.3535353E-01  0.0000000E+00  0.3535353E-01  0.3320693E-05  0.0000000E+00  0.6767347E-04
  0.4545455E-01  0.0000000E+00  0.3535353E-01  0.4302627E-05  0.0000000E+00  0.6876353E-04
  0.5555556E-01  0.0000000E+00  0.3535353E-01  0.5310068E-05  0.0000000E+00  0.7013778E-04
  0.6565657E-01  0.0000000E+00  0.3535353E-01  0.6349389E-05  0.0000000E+00  0.7180427E-04
  0.7575758E-01  0.0000000E+00  0.3535353E-01  0.7427408E-05  0.0000000E+00  0.7377289E-04
  0.8585858E-01  0.0000000E+00  0.3535353E-01  0.8551493E-05  0.0000000E+00  0.7605553E-04
  0.9595960E-01  0.0000000E+00  0.3535353E-01  0.9729683E-05  0.0000000E+00  0.7866620E-04
  0.1060606E+00  0.0000000E+00  0.3535353E-01  0.1097083E-04  0.0000000E+00  0.8162128E-04
  0.1161616E+00  0.0000000E+00  0.3535353E-01  0.1228476E-04  0.0000000E+00  0.8493972E-04
  0.1262626E+00  0.0000000E+00  0.3535353E-01  0.1368249E-04  0.0000000E+00  0.8864334E-04
  0.1363636E+00  0.0000000E+00  0.3535353E-01  0.1517644E-04  0.0000000E+00  0.9275714E-04
  0.1464646E+00  0.0000000E+00  0.3535353E-01  0.1678079E-04  0.0000000E+00  0.9730976E-04
  0.1565657E+00  0.0000000E+00  0.3535353E-01  0.1851175E-04  0.0000000E+00  0.1023339E-03
  0.1666667E+00  0.0000000E+00  0.3535353E-01  0.2038811E-04  0.0000000E+00  0.1078669E-03
  0.1767677E+00  0.0000000E+00  0.3535353E-01  0.2243181E-04  0.0000000E+00  0.1139515E-03
  0.1868687E+00  0.0000000E+00  0.3535353E-01  0.2466864E-04  0.0000000E+00  0.1206366E-03
  0.1969697E+00  0.0000000E+00  0.3535353E-01  0.2712929E-04  0.0000000E+00  0.1279781E-03
  0.2070707E+00  0.0000000E+00  0.3535353E-01  0.2985058E-04  0.0000000E+00  0.1360406E-03
  0.2171717E+00  0.0000000E+00  0.3535353E-01  0.3287725E-04  0.0000000E+00  0.1448983E-03
  0.2272727E+00  0.0000000E+00  0.3535353E-01  0.3626421E-04  0.0000000E+00  0.1546372E-03
  0.2373737E+00  0.0000000E+00  0.3535353E-01  0.4007983E-04  0.0000000E+00  0.1653571E-03
  0.2474747E+00  0.0000000E+00  0.3535353E-01  0.4441036E-04  0.0000000E+00  0.1771741E-03
  0.2575758E+00  0.0000000E+00  0.3535353E-01  0.4936626E-04  0.0000000E+00  0.1902239E-03
  0.2676768E+00  0.0000000E+00  0.3535353E-01  0.5509132E-04  0.0000000E+00  0.2046655E-03
  0.2777778E+00  0.0000000E+00  0.3535353E-01  0.6177601E-04  0.0000000E+00  0.2206840E-03
  0.2878788E+00  0.0000000E+00  0.3535353E-01  0.6967729E-04  0.0000000E+00  0.2384943E-03
  0.2979798E+00  0.0000000E+00  0.3535353E-01  0.7914862E-04  0.0000000E+00  0.2583402E-03