title = "dataset water"
variables = "x", "y", "z", "vx", "vy", "vz"
zone t = "velocities, solution time =  3.800E+01 days        " i =   99, j =   99, k =    1,  f=point
  0.5050505E-02  0.0000000E+00  0.5050505E-02  0.2993444E-07  0.0000000E+00  0.2258988E-04
  0.1515152E-01  0.0000000E+00  0.5050505E-02  0.8996807E-07  0.0000000E+00  0.2271046E-04
  0.2525252E-01  0.0000000E+00  0.5050505E-02  0.1504988E-06  0.0000000E+00  0.2295230E-04
  0.3535353E-01  0.0000000E+00  0.5050505E-02  0.2118662E-06  0.0000000E+00  0.2331675E-04
  0.4545455E-01  0.0000000E+00  0.5050505E-02  0.2744206E-06  0.0000000E+00  0.2380585E-04
  0.5555556E-01  0.0000000E+00  0.5050505E-02  0.3385285E-06  0.0000000E+00  0.2442239E-04
  0.6565657E-01  0.0000000E+00  0.5050505E-02  0.4045770E-06  0.0000000E+00  0.2516990E-04
  0.7575758E-01  0.0000000E+00  0.5050505E-02  0.4729798E-06  0.0000000E+00  0.2605274E-04
  0.8585858E-01  0.0000000E+00  0.5050505E-02  0.5441832E-06  0.0000000E+00  0.2707613E-04
  0.9595960E-01  0.0000000E+00  0.5050505E-02  0.6186738E-06  0.0000000E+00  0.2824626E-04
  0.1060606E+00  0.0000000E+00  0.5050505E-02  0.6969866E-06  0.0000000E+00  0.2957034E-04
  0.1161616E+00  0.0000000E+00  0.5050505E-02  0.7797150E-06  0.0000000E+00  0.3105673E-04
  0.1262626E+00  0.0000000E+00  0.5050505E-02  0.8675230E-06  0.0000000E+00  0.3271508E-04
  0.1363636E+00  0.0000000E+00  0.5050505E-02  0.9611596E-06  0.0000000E+00  0.3455648E-04
  0.1464646E+00  0.0000000E+00  0.5050505E-02  0.1061476E-05  0.0000000E+00  0.3659363E-04
  0.1565657E+00  0.0000000E+00  0.5050505E-02  0.1169448E-05  0.0000000E+00  0.3884113E-04
  0.1666667E+00  0.0000000E+00  0.5050505E-02  0.1286203E-05  0.0000000E+00  0.4131570E-04
  0.1767677E+00  0.0000000E+00  0.5050505E-02  0.1413056E-05  0.0000000E+00  0.4403659E-04
  0.1868687E+00  0.0000000E+00  0.5050505E-02  0.1551554E-05  0.0000000E+00  0.4702594E-04
  0.1969697E+00  0.0000000E+00  0.5050505E-02  0.1703534E-05  0.0000000E+00  0.5030941E-04
  0.2070707E+00  0.0000000E+00  0.5050505E-02  0.1871206E-05  0.0000000E+00  0.5391676E-04
  0.2171717E+00  0.0000000E+00  0.5050505E-02  0.2057256E-05  0.0000000E+00  0.5788281E-04
  0.2272727E+00  0.0000000E+00  0.5050505E-02  0.2264996E-05  0.0000000E+00  0.6224855E-04
  0.2373737E+00  0.0000000E+00  0.5050505E-02  0.2498578E-05  0.0000000E+00  0.6706262E-04
  0.2474747E+00  0.0000000E+00  0.5050505E-02  0.2763292E-05  0.0000000E+00  0.7238340E-04
  0.2575758E+00  0.0000000E+00  0.5050505E-02  0.3066026E-05  0.0000000E+00  0.7828183E-04
  0.2676768E+00  0.0000000E+00  0.5050505E-02  0.3415956E-05  0.0000000E+00  0.8484541E-04
  0.2777778E+00  0.0000000E+00  0.5050505E-02  0.3825656E-05  0.0000000E+00  0.9218408E-04
  0.2878788E+00  0.0000000E+00  0.5050505E-02  0.4312925E-05  0.0000000E+00  0.1004392E-03
  0.2979798E+00  0.0000000E+00  0.5050505E-02  0.4903962E-05  0.0000000E+00  0.1097975E-03
  0.3080808E+00  0.0000000E+00  0.5050505E-02  0.5639217E-05  0.0000000E+00  0.1205147E-03
  0.3181818E+00  0.0000000E+00  0.5050505E-02  0.6584970E-05  0.0000000E+00  0.1329572E-03
  0.3282828E+00  0.0000000E+00  0.5050505E-02  0.7858347E-05  0.0000000E+00  0.1476809E-03
  0.3383838E+00  0.0000000E+00  0.5050505E-02  0.9687342E-05  0.0000000E+00  0.1655999E-03
  0.3484848E+00  0.0000000E+00  0.5050505E-02  0.1257293E-04  0.0000000E+00  0.1883846E-03
  0.3585859E+00  0.0000000E+00  0.5050505E-02  0.1778475E-04  0.0000000E+00  0.2195472E-03
  0.3686869E+00  0.0000000E+00  0.5050505E-02  0.2906615E-04  0.0000000E+00  0.2678356E-03
  0.3787879E+00  0.0000000E+00  0.5050505E-02  0.5913005E-04  0.0000000E+00  0.3593364E-03
  0.3888889E+00  0.0000000E+00  0.5050505E-02 -0.1647525E-04  0.0000000E+00  0.4035116E-03
  0.3989899E+00  0.0000000E+00  0.5050505E-02 -0.9015867E-05  0.0000000E+00  0.3767392E-03
  0.4090909E+00  0.0000000E+00  0.5050505E-02 -0.4944077E-05  0.0000000E+00  0.3621057E-03
  0.4191919E+00  0.0000000E+00  0.5050505E-02 -0.2273544E-05  0.0000000E+00  0.3545473E-03
  0.4292929E+00  0.0000000E+00  0.5050505E-02 -0.8471587E-06  0.0000000E+00  0.3512807E-03
  0.4393939E+00  0.0000000E+00  0.5050505E-02 -0.4222599E-06  0.0000000E+00  0.3499523E-03
  0.4494950E+00  0.0000000E+00  0.5050505E-02 -0.6885638E-06  0.0000000E+00  0.3487899E-03
  0.4595959E+00  0.0000000E+00  0.5050505E-02 -0.1391503E-05  0.0000000E+00  0.3466141E-03
  0.4696970E+00  0.0000000E+00  0.5050505E-02 -0.2322955E-05  0.0000000E+00  0.3427305E-03
  0.4797980E+00  0.0000000E+00  0.5050505E-02 -0.3307014E-05  0.0000000E+00  0.3368484E-03
  0.4898990E+00  0.0000000E+00  0.5050505E-02 -0.4210507E-05  0.0000000E+00  0.3290015E-03
  0.5000000E+00  0.0000000E+00  0.5050505E-02 -0.4951294E-05  0.0000000E+00  0.3194492E-03
  0.5101010E+00  0.0000000E+00  0.5050505E-02 -0.5499896E-05  0.0000000E+00  0.3085668E-03
  0.5202020E+00  0.0000000E+00  0.5050505E-02 -0.5864159E-05  0.0000000E+00  0.2967506E-03
  0.5303030E+00  0.0000000E+00  0.5050505E-02 -0.6069925E-05  0.0000000E+00  0.2843601E-03
  0.5404040E+00  0.0000000E+00  0.5050505E-02 -0.6147730E-05  0.0000000E+00  0.2716945E-03
  0.5505050E+00  0.0000000E+00  0.5050505E-02 -0.6126377E-05  0.0000000E+00  0.2589899E-03
  0.5606061E+00  0.0000000E+00  0.5050505E-02 -0.6030697E-05  0.0000000E+00  0.2464256E-03
  0.5707071E+00  0.0000000E+00  0.5050505E-02 -0.5881186E-05  0.0000000E+00  0.2341329E-03
  0.5808081E+00  0.0000000E+00  0.5050505E-02 -0.5694307E-05  0.0000000E+00  0.2222047E-03
  0.5909091E+00  0.0000000E+00  0.5050505E-02 -0.5482981E-05  0.0000000E+00  0.2107028E-03
  0.6010101E+00  0.0000000E+00  0.5050505E-02 -0.5257119E-05  0.0000000E+00  0.1996656E-03
  0.6111111E+00  0.0000000E+00  0.5050505E-02 -0.5024142E-05  0.0000000E+00  0.1891135E-03
  0.6212121E+00  0.0000000E+00  0.5050505E-02 -0.4789467E-05  0.0000000E+00  0.1790537E-03
  0.6313131E+00  0.0000000E+00  0.5050505E-02 -0.4556931E-05  0.0000000E+00  0.1694839E-03
  0.6414142E+00  0.0000000E+00  0.5050505E-02 -0.4329166E-05  0.0000000E+00  0.1603955E-03
  0.6515151E+00  0.0000000E+00  0.5050505E-02 -0.4107890E-05  0.0000000E+00  0.1517755E-03
  0.6616161E+00  0.0000000E+00  0.5050505E-02 -0.3894156E-05  0.0000000E+00  0.1436080E-03
  0.6717172E+00  0.0000000E+00  0.5050505E-02 -0.3688534E-05  0.0000000E+00  0.1358758E-03
  0.6818182E+00  0.0000000E+00  0.5050505E-02 -0.3491255E-05  0.0000000E+00  0.1285609E-03
  0.6919192E+00  0.0000000E+00  0.5050505E-02 -0.3302314E-05  0.0000000E+00  0.1216454E-03
  0.7020202E+00  0.0000000E+00  0.5050505E-02 -0.3121552E-05  0.0000000E+00  0.1151115E-03
  0.7121212E+00  0.0000000E+00  0.5050505E-02 -0.2948709E-05  0.0000000E+00  0.1089418E-03
  0.7222222E+00  0.0000000E+00  0.5050505E-02 -0.2783469E-05  0.0000000E+00  0.1031199E-03
  0.7323232E+00  0.0000000E+00  0.5050505E-02 -0.2625479E-05  0.0000000E+00  0.9763001E-04
  0.7424242E+00  0.0000000E+00  0.5050505E-02 -0.2474376E-05  0.0000000E+00  0.9245708E-04
  0.7525253E+00  0.0000000E+00  0.5050505E-02 -0.2329796E-05  0.0000000E+00  0.8758696E-04
  0.7626263E+00  0.0000000E+00  0.5050505E-02 -0.2191380E-05  0.0000000E+00  0.8300629E-04
  0.7727273E+00  0.0000000E+00  0.5050505E-02 -0.2058778E-05  0.0000000E+00  0.7870246E-04
  0.7828283E+00  0.0000000E+00  0.5050505E-02 -0.1931654E-05  0.0000000E+00  0.7466364E-04
  0.7929293E+00  0.0000000E+00  0.5050505E-02 -0.1809684E-05  0.0000000E+00  0.7087868E-04
  0.8030303E+00  0.0000000E+00  0.5050505E-02 -0.1692556E-05  0.0000000E+00  0.6733714E-04
  0.8131313E+00  0.0000000E+00  0.5050505E-02 -0.1579970E-05  0.0000000E+00  0.6402922E-04
  0.8232324E+00  0.0000000E+00  0.5050505E-02 -0.1471636E-05  0.0000000E+00  0.6094578E-04
  0.8333333E+00  0.0000000E+00  0.5050505E-02 -0.1367277E-05  0.0000000E+00  0.5807826E-04
  0.8434343E+00  0.0000000E+00  0.5050505E-02 -0.1266620E-05  0.0000000E+00  0.5541869E-04
  0.8535354E+00  0.0000000E+00  0.5050505E-02 -0.1169403E-05  0.0000000E+00  0.5295965E-04
  0.8636364E+00  0.0000000E+00  0.5050505E-02 -0.1075371E-05  0.0000000E+00  0.5069430E-04
  0.8737374E+00  0.0000000E+00  0.5050505E-02 -0.9842762E-06  0.0000000E+00  0.4861630E-04
  0.8838384E+00  0.0000000E+00  0.5050505E-02 -0.8958756E-06  0.0000000E+00  0.4671984E-04
  0.8939394E+00  0.0000000E+00  0.5050505E-02 -0.8099325E-06  0.0000000E+00  0.4499960E-04
  0.9040404E+00  0.0000000E+00  0.5050505E-02 -0.7262153E-06  0.0000000E+00  0.4345074E-04
  0.9141414E+00  0.0000000E+00  0.5050505E-02 -0.6444970E-06  0.0000000E+00  0.4206892E-04
  0.9242424E+00  0.0000000E+00  0.5050505E-02 -0.5645548E-06  0.0000000E+00  0.4085026E-04
  0.9343435E+00  0.0000000E+00  0.5050505E-02 -0.4861699E-06  0.0000000E+00  0.3979132E-04
  0.9444444E+00  0.0000000E+00  0.5050505E-02 -0.4091267E-06  0.0000000E+00  0.3888912E-04
  0.9545454E+00  0.0000000E+00  0.5050505E-02 -0.3332128E-06  0.0000000E+00  0.3814112E-04
  0.9646465E+00  0.0000000E+00  0.5050505E-02 -0.2582184E-06  0.0000000E+00  0.3754523E-04
  0.9747475E+00  0.0000000E+00  0.5050505E-02 -0.1839359E-06  0.0000000E+00  0.3709976E-04
  0.9848485E+00  0.0000000E+00  0.5050505E-02 -0.1101599E-06  0.0000000E+00  0.3680348E-04
  0.9974747E+00  0.0000000E+00  0.5050505E-02 -0.3668650E-07  0.0000000E+00  0.3665554E-04
  0.5050505E-02  0.0000000E+00  0.1515152E-01  0.8966878E-07  0.0000000E+00  0.2259724E-04
  0.1515152E-01  0.0000000E+00  0.1515152E-01  0.2694994E-06  0.0000000E+00  0.2271764E-04
  0.2525252E-01  0.0000000E+00  0.1515152E-01  0.4508170E-06  0.0000000E+00  0.2295908E-04
  0.3535353E-01  0.0000000E+00  0.1515152E-01  0.6346364E-06  0.0000000E+00  0.2332292E-04
  0.4545455E-01  0.0000000E+00  0.1515152E-01  0.8220054E-06  0.0000000E+00  0.2381119E-04
  0.5555556E-01  0.0000000E+00  0.1515152E-01  0.1014019E-05  0.0000000E+00  0.2442663E-04
  0.6565657E-01  0.0000000E+00  0.1515152E-01  0.1211834E-05  0.0000000E+00  0.2517277E-04
  0.7575758E-01  0.0000000E+00  0.1515152E-01  0.1416685E-05  0.0000000E+00  0.2605391E-04
  0.8585858E-01  0.0000000E+00  0.1515152E-01  0.1629907E-05  0.0000000E+00  0.2707523E-04
  0.9595960E-01  0.0000000E+00  0.1515152E-01  0.1852951E-05  0.0000000E+00  0.2824285E-04
  0.1060606E+00  0.0000000E+00  0.1515152E-01  0.2087414E-05  0.0000000E+00  0.2956392E-04
  0.1161616E+00  0.0000000E+00  0.1515152E-01  0.2335068E-05  0.0000000E+00  0.3104670E-04
  0.1262626E+00  0.0000000E+00  0.1515152E-01  0.2597890E-05  0.0000000E+00  0.3270073E-04
  0.1363636E+00  0.0000000E+00  0.1515152E-01  0.2878115E-05  0.0000000E+00  0.3453697E-04
  0.1464646E+00  0.0000000E+00  0.1515152E-01  0.3178275E-05  0.0000000E+00  0.3656796E-04
  0.1565657E+00  0.0000000E+00  0.1515152E-01  0.3501277E-05  0.0000000E+00  0.3880808E-04
  0.1666667E+00  0.0000000E+00  0.1515152E-01  0.3850472E-05  0.0000000E+00  0.4127381E-04
  0.1767677E+00  0.0000000E+00  0.1515152E-01  0.4229765E-05  0.0000000E+00  0.4398405E-04
  0.1868687E+00  0.0000000E+00  0.1515152E-01  0.4643744E-05  0.0000000E+00  0.4696057E-04
  0.1969697E+00  0.0000000E+00  0.1515152E-01  0.5097853E-05  0.0000000E+00  0.5022845E-04
  0.2070707E+00  0.0000000E+00  0.1515152E-01  0.5598623E-05  0.0000000E+00  0.5381677E-04
  0.2171717E+00  0.0000000E+00  0.1515152E-01  0.6153978E-05  0.0000000E+00  0.5775943E-04
  0.2272727E+00  0.0000000E+00  0.1515152E-01  0.6773667E-05  0.0000000E+00  0.6209615E-04
  0.2373737E+00  0.0000000E+00  0.1515152E-01  0.7469859E-05  0.0000000E+00  0.6687384E-04
  0.2474747E+00  0.0000000E+00  0.1515152E-01  0.8258009E-05  0.0000000E+00  0.7214844E-04
  0.2575758E+00  0.0000000E+00  0.1515152E-01  0.9158127E-05  0.0000000E+00  0.7798735E-04
  0.2676768E+00  0.0000000E+00  0.1515152E-01  0.1019671E-04  0.0000000E+00  0.8447282E-04
  0.2777778E+00  0.0000000E+00  0.1515152E-01  0.1140974E-04  0.0000000E+00  0.9170668E-04
  0.2878788E+00  0.0000000E+00  0.1515152E-01  0.1284759E-04  0.0000000E+00  0.9981731E-04
  0.2979798E+00  0.0000000E+00  0.1515152E-01  0.1458329E-04  0.0000000E+00  0.1089697E-03
  0.3080808E+00  0.0000000E+00  0.1515152E-01  0.1672707E-04  0.0000000E+00  0.1193806E-03
  0.3181818E+00  0.0000000E+00  0.1515152E-01  0.1945373E-04  0.0000000E+00  0.1313410E-03
  0.3282828E+00  0.0000000E+00  0.1515152E-01  0.2305684E-04  0.0000000E+00  0.1452475E-03
  0.3383838E+00  0.0000000E+00  0.1515152E-01  0.2806400E-04  0.0000000E+00  0.1616336E-03
  0.3484848E+00  0.0000000E+00  0.1515152E-01  0.3549992E-04  0.0000000E+00  0.1811339E-03
  0.3585859E+00  0.0000000E+00  0.1515152E-01  0.4752980E-04  0.0000000E+00  0.2040297E-03
  0.3686869E+00  0.0000000E+00  0.1515152E-01  0.6913052E-04  0.0000000E+00  0.2276533E-03
  0.3787879E+00  0.0000000E+00  0.1515152E-01  0.1126178E-03  0.0000000E+00  0.2334282E-03
  0.3888889E+00  0.0000000E+00  0.1515152E-01  0.3714515E-04  0.0000000E+00  0.3003918E-03
  0.3989899E+00  0.0000000E+00  0.1515152E-01 -0.2379664E-04  0.0000000E+00  0.3668517E-03
  0.4090909E+00  0.0000000E+00  0.1515152E-01 -0.1346256E-04  0.0000000E+00  0.3570236E-03
  0.4191919E+00  0.0000000E+00  0.1515152E-01 -0.5596932E-05  0.0000000E+00  0.3521556E-03
  0.4292929E+00  0.0000000E+00  0.1515152E-01 -0.1551136E-05  0.0000000E+00  0.3511948E-03
  0.4393939E+00  0.0000000E+00  0.1515152E-01 -0.5767927E-06  0.0000000E+00  0.3516208E-03
  0.4494950E+00  0.0000000E+00  0.1515152E-01 -0.1624594E-05  0.0000000E+00  0.3516381E-03
  0.4595959E+00  0.0000000E+00  0.1515152E-01 -0.3939806E-05  0.0000000E+00  0.3501597E-03
  0.4696970E+00  0.0000000E+00  0.1515152E-01 -0.6911469E-05  0.0000000E+00  0.3465641E-03
  0.4797980E+00  0.0000000E+00  0.1515152E-01 -0.1000105E-04  0.0000000E+00  0.3406331E-03
  0.4898990E+00  0.0000000E+00  0.1515152E-01 -0.1279987E-04  0.0000000E+00  0.3324959E-03
  0.5000000E+00  0.0000000E+00  0.1515152E-01 -0.1505871E-04  0.0000000E+00  0.3225200E-03
  0.5101010E+00  0.0000000E+00  0.1515152E-01 -0.1670308E-04  0.0000000E+00  0.3111767E-03
  0.5202020E+00  0.0000000E+00  0.1515152E-01 -0.1777490E-04  0.0000000E+00  0.2989237E-03
  0.5303030E+00  0.0000000E+00  0.1515152E-01 -0.1836473E-04  0.0000000E+00  0.2861485E-03
  0.5404040E+00  0.0000000E+00  0.1515152E-01 -0.1857079E-04  0.0000000E+00  0.2731571E-03
  0.5505050E+00  0.0000000E+00  0.1515152E-01 -0.1848206E-04  0.0000000E+00  0.2601826E-03
  0.5606061E+00  0.0000000E+00  0.1515152E-01 -0.1817376E-04  0.0000000E+00  0.2473979E-03
  0.5707071E+00  0.0000000E+00  0.1515152E-01 -0.1770737E-04  0.0000000E+00  0.2349270E-03
  0.5808081E+00  0.0000000E+00  0.1515152E-01 -0.1713204E-04  0.0000000E+00  0.2228558E-03
  0.5909091E+00  0.0000000E+00  0.1515152E-01 -0.1648619E-04  0.0000000E+00  0.2112397E-03
  0.6010101E+00  0.0000000E+00  0.1515152E-01 -0.1579916E-04  0.0000000E+00  0.2001117E-03
  0.6111111E+00  0.0000000E+00  0.1515152E-01 -0.1509282E-04  0.0000000E+00  0.1894872E-03
  0.6212121E+00  0.0000000E+00  0.1515152E-01 -0.1438304E-04  0.0000000E+00  0.1793697E-03
  0.6313131E+00  0.0000000E+00  0.1515152E-01 -0.1368103E-04  0.0000000E+00  0.1697536E-03
  0.6414142E+00  0.0000000E+00  0.1515152E-01 -0.1299437E-04  0.0000000E+00  0.1606279E-03
  0.6515151E+00  0.0000000E+00  0.1515152E-01 -0.1232800E-04  0.0000000E+00  0.1519774E-03
  0.6616161E+00  0.0000000E+00  0.1515152E-01 -0.1168488E-04  0.0000000E+00  0.1437849E-03
  0.6717172E+00  0.0000000E+00  0.1515152E-01 -0.1106658E-04  0.0000000E+00  0.1360319E-03
  0.6818182E+00  0.0000000E+00  0.1515152E-01 -0.1047368E-04  0.0000000E+00  0.1286997E-03
  0.6919192E+00  0.0000000E+00  0.1515152E-01 -0.9906060E-05  0.0000000E+00  0.1217694E-03
  0.7020202E+00  0.0000000E+00  0.1515152E-01 -0.9363189E-05  0.0000000E+00  0.1152228E-03
  0.7121212E+00  0.0000000E+00  0.1515152E-01 -0.8844234E-05  0.0000000E+00  0.1090422E-03
  0.7222222E+00  0.0000000E+00  0.1515152E-01 -0.8348202E-05  0.0000000E+00  0.1032108E-03
  0.7323232E+00  0.0000000E+00  0.1515152E-01 -0.7874013E-05  0.0000000E+00  0.9771253E-04
  0.7424242E+00  0.0000000E+00  0.1515152E-01 -0.7420555E-05  0.0000000E+00  0.9253227E-04
  0.7525253E+00  0.0000000E+00  0.1515152E-01 -0.6986717E-05  0.0000000E+00  0.8765567E-04
  0.7626263E+00  0.0000000E+00  0.1515152E-01 -0.6571413E-05  0.0000000E+00  0.8306927E-04
  0.7727273E+00  0.0000000E+00  0.1515152E-01 -0.6173587E-05  0.0000000E+00  0.7876036E-04
  0.7828283E+00  0.0000000E+00  0.1515152E-01 -0.5792222E-05  0.0000000E+00  0.7471702E-04
  0.7929293E+00  0.0000000E+00  0.1515152E-01 -0.5426343E-05  0.0000000E+00  0.7092805E-04
  0.8030303E+00  0.0000000E+00  0.1515152E-01 -0.5075010E-05  0.0000000E+00  0.6738295E-04
  0.8131313E+00  0.0000000E+00  0.1515152E-01 -0.4737319E-05  0.0000000E+00  0.6407188E-04
  0.8232324E+00  0.0000000E+00  0.1515152E-01 -0.4412402E-05  0.0000000E+00  0.6098563E-04
  0.8333333E+00  0.0000000E+00  0.1515152E-01 -0.4099418E-05  0.0000000E+00  0.5811561E-04
  0.8434343E+00  0.0000000E+00  0.1515152E-01 -0.3797552E-05  0.0000000E+00  0.5545382E-04
  0.8535354E+00  0.0000000E+00  0.1515152E-01 -0.3506017E-05  0.0000000E+00  0.5299283E-04
  0.8636364E+00  0.0000000E+00  0.1515152E-01 -0.3224045E-05  0.0000000E+00  0.5072574E-04
  0.8737374E+00  0.0000000E+00  0.1515152E-01 -0.2950890E-05  0.0000000E+00  0.4864621E-04
  0.8838384E+00  0.0000000E+00  0.1515152E-01 -0.2685824E-05  0.0000000E+00  0.4674839E-04
  0.8939394E+00  0.0000000E+00  0.1515152E-01 -0.2428136E-05  0.0000000E+00  0.4502695E-04
  0.9040404E+00  0.0000000E+00  0.1515152E-01 -0.2177129E-05  0.0000000E+00  0.4347706E-04
  0.9141414E+00  0.0000000E+00  0.1515152E-01 -0.1932123E-05  0.0000000E+00  0.4209433E-04
  0.9242424E+00  0.0000000E+00  0.1515152E-01 -0.1692449E-05  0.0000000E+00  0.4087488E-04
  0.9343435E+00  0.0000000E+00  0.1515152E-01 -0.1457449E-05  0.0000000E+00  0.3981527E-04
  0.9444444E+00  0.0000000E+00  0.1515152E-01 -0.1226477E-05  0.0000000E+00  0.3891251E-04
  0.9545454E+00  0.0000000E+00  0.1515152E-01 -0.9988953E-06  0.0000000E+00  0.3816405E-04
  0.9646465E+00  0.0000000E+00  0.1515152E-01 -0.7740740E-06  0.0000000E+00  0.3756780E-04
  0.9747475E+00  0.0000000E+00  0.1515152E-01 -0.5513906E-06  0.0000000E+00  0.3712206E-04
  0.9848485E+00  0.0000000E+00  0.1515152E-01 -0.3302284E-06  0.0000000E+00  0.3682559E-04
  0.9974747E+00  0.0000000E+00  0.1515152E-01 -0.1099755E-06  0.0000000E+00  0.3667756E-04
  0.5050505E-02  0.0000000E+00  0.2525252E-01  0.1490888E-06  0.0000000E+00  0.2261276E-04
  0.1515152E-01  0.0000000E+00  0.2525252E-01  0.4480837E-06  0.0000000E+00  0.2273277E-04
  0.2525252E-01  0.0000000E+00  0.2525252E-01  0.7495428E-06  0.0000000E+00  0.2297344E-04
  0.3535353E-01  0.0000000E+00  0.2525252E-01  0.1055146E-05  0.0000000E+00  0.2333610E-04
  0.4545455E-01  0.0000000E+00  0.2525252E-01  0.1366628E-05  0.0000000E+00  0.2382272E-04
  0.5555556E-01  0.0000000E+00  0.2525252E-01  0.1685801E-05  0.0000000E+00  0.2443603E-04
  0.6565657E-01  0.0000000E+00  0.2525252E-01  0.2014578E-05  0.0000000E+00  0.2517947E-04
  0.7575758E-01  0.0000000E+00  0.2525252E-01  0.2355002E-05  0.0000000E+00  0.2605728E-04
  0.8585858E-01  0.0000000E+00  0.2525252E-01  0.2709276E-05  0.0000000E+00  0.2707454E-04
  0.9595960E-01  0.0000000E+00  0.2525252E-01  0.3079799E-05  0.0000000E+00  0.2823725E-04
  0.1060606E+00  0.0000000E+00  0.2525252E-01  0.3469206E-05  0.0000000E+00  0.2955242E-04
  0.1161616E+00  0.0000000E+00  0.2525252E-01  0.3880416E-05  0.0000000E+00  0.3102813E-04
  0.1262626E+00  0.0000000E+00  0.2525252E-01  0.4316691E-05  0.0000000E+00  0.3267371E-04
  0.1363636E+00  0.0000000E+00  0.2525252E-01  0.4781703E-05  0.0000000E+00  0.3449985E-04
  0.1464646E+00  0.0000000E+00  0.2525252E-01  0.5279618E-05  0.0000000E+00  0.3651878E-04
  0.1565657E+00  0.0000000E+00  0.2525252E-01  0.5815202E-05  0.0000000E+00  0.3874448E-04
  0.1666667E+00  0.0000000E+00  0.2525252E-01  0.6393945E-05  0.0000000E+00  0.4119292E-04
  0.1767677E+00  0.0000000E+00  0.2525252E-01  0.7022231E-05  0.0000000E+00  0.4388240E-04
  0.1868687E+00  0.0000000E+00  0.2525252E-01  0.7707540E-05  0.0000000E+00  0.4683386E-04
  0.1969697E+00  0.0000000E+00  0.2525252E-01  0.8458721E-05  0.0000000E+00  0.5007138E-04
  0.2070707E+00  0.0000000E+00  0.2525252E-01  0.9286354E-05  0.0000000E+00  0.5362272E-04
  0.2171717E+00  0.0000000E+00  0.2525252E-01  0.1020322E-04  0.0000000E+00  0.5751999E-04
  0.2272727E+00  0.0000000E+00  0.2525252E-01  0.1122496E-04  0.0000000E+00  0.6180056E-04
  0.2373737E+00  0.0000000E+00  0.2525252E-01  0.1237098E-04  0.0000000E+00  0.6650811E-04
  0.2474747E+00  0.0000000E+00  0.2525252E-01  0.1366572E-04  0.0000000E+00  0.7169406E-04
  0.2575758E+00  0.0000000E+00  0.2525252E-01  0.1514052E-04  0.0000000E+00  0.7741936E-04
  0.2676768E+00  0.0000000E+00  0.2525252E-01  0.1683637E-04  0.0000000E+00  0.8375681E-04
  0.2777778E+00  0.0000000E+00  0.2525252E-01  0.1880807E-04  0.0000000E+00  0.9079407E-04
  0.2878788E+00  0.0000000E+00  0.2525252E-01  0.2113073E-04  0.0000000E+00  0.9863739E-04
  0.2979798E+00  0.0000000E+00  0.2525252E-01  0.2391024E-04  0.0000000E+00  0.1074162E-03
  0.3080808E+00  0.0000000E+00  0.2525252E-01  0.2730053E-04  0.0000000E+00  0.1172877E-03
  0.3181818E+00  0.0000000E+00  0.2525252E-01  0.3153285E-04  0.0000000E+00  0.1284392E-03
  0.3282828E+00  0.0000000E+00  0.2525252E-01  0.3696629E-04  0.0000000E+00  0.1410800E-03
  0.3383838E+00  0.0000000E+00  0.2525252E-01  0.4417477E-04  0.0000000E+00  0.1554021E-03
  0.3484848E+00  0.0000000E+00  0.2525252E-01  0.5408725E-04  0.0000000E+00  0.1714526E-03
  0.3585859E+00  0.0000000E+00  0.2525252E-01  0.6815842E-04  0.0000000E+00  0.1888166E-03
  0.3686869E+00  0.0000000E+00  0.2525252E-01  0.8827033E-04  0.0000000E+00  0.2061402E-03
  0.3787879E+00  0.0000000E+00  0.2525252E-01  0.1146387E-03  0.0000000E+00  0.2224991E-03
  0.3888889E+00  0.0000000E+00  0.2525252E-01  0.1333380E-03  0.0000000E+00  0.2572008E-03
  0.3989899E+00  0.0000000E+00  0.2525252E-01  0.2922425E-05  0.0000000E+00  0.3177735E-03
  0.4090909E+00  0.0000000E+00  0.2525252E-01 -0.1954181E-04  0.0000000E+00  0.3489440E-03
  0.4191919E+00  0.0000000E+00  0.2525252E-01 -0.5173922E-05  0.0000000E+00  0.3478246E-03
  0.4292929E+00  0.0000000E+00  0.2525252E-01  0.7759022E-06  0.0000000E+00  0.3516455E-03
  0.4393939E+00  0.0000000E+00  0.2525252E-01  0.1287979E-05  0.0000000E+00  0.3556104E-03
  0.4494950E+00  0.0000000E+00  0.2525252E-01 -0.1280567E-05  0.0000000E+00  0.3579042E-03
  0.4595959E+00  0.0000000E+00  0.2525252E-01 -0.5817469E-05  0.0000000E+00  0.3577562E-03
  0.4696970E+00  0.0000000E+00  0.2525252E-01 -0.1137593E-04  0.0000000E+00  0.3546689E-03
  0.4797980E+00  0.0000000E+00  0.2525252E-01 -0.1699651E-04  0.0000000E+00  0.3485471E-03
  0.4898990E+00  0.0000000E+00  0.2525252E-01 -0.2196213E-04  0.0000000E+00  0.3397195E-03
  0.5000000E+00  0.0000000E+00  0.2525252E-01 -0.2583747E-04  0.0000000E+00  0.3287951E-03
  0.5101010E+00  0.0000000E+00  0.2525252E-01 -0.2855651E-04  0.0000000E+00  0.3164603E-03
  0.5202020E+00  0.0000000E+00  0.2525252E-01 -0.3026028E-04  0.0000000E+00  0.3032960E-03
  0.5303030E+00  0.0000000E+00  0.2525252E-01 -0.3114466E-04  0.0000000E+00  0.2897343E-03
  0.5404040E+00  0.0000000E+00  0.2525252E-01 -0.3139337E-04  0.0000000E+00  0.2760846E-03
  0.5505050E+00  0.0000000E+00  0.2525252E-01 -0.3116141E-04  0.0000000E+00  0.2625684E-03
  0.5606061E+00  0.0000000E+00  0.2525252E-01 -0.3057554E-04  0.0000000E+00  0.2493429E-03
  0.5707071E+00  0.0000000E+00  0.2525252E-01 -0.2973789E-04  0.0000000E+00  0.2365165E-03
  0.5808081E+00  0.0000000E+00  0.2525252E-01 -0.2872938E-04  0.0000000E+00  0.2241604E-03
  0.5909091E+00  0.0000000E+00  0.2525252E-01 -0.2761284E-04  0.0000000E+00  0.2123172E-03
  0.6010101E+00  0.0000000E+00  0.2525252E-01 -0.2643583E-04  0.0000000E+00  0.2010085E-03
  0.6111111E+00  0.0000000E+00  0.2525252E-01 -0.2523349E-04  0.0000000E+00  0.1902401E-03
  0.6212121E+00  0.0000000E+00  0.2525252E-01 -0.2403100E-04  0.0000000E+00  0.1800077E-03
  0.6313131E+00  0.0000000E+00  0.2525252E-01 -0.2284590E-04  0.0000000E+00  0.1702994E-03
  0.6414142E+00  0.0000000E+00  0.2525252E-01 -0.2168991E-04  0.0000000E+00  0.1610991E-03
  0.6515151E+00  0.0000000E+00  0.2525252E-01 -0.2057045E-04  0.0000000E+00  0.1523877E-03
  0.6616161E+00  0.0000000E+00  0.2525252E-01 -0.1949184E-04  0.0000000E+00  0.1441450E-03
  0.6717172E+00  0.0000000E+00  0.2525252E-01 -0.1845620E-04  0.0000000E+00  0.1363503E-03
  0.6818182E+00  0.0000000E+00  0.2525252E-01 -0.1746410E-04  0.0000000E+00  0.1289828E-03
  0.6919192E+00  0.0000000E+00  0.2525252E-01 -0.1651507E-04  0.0000000E+00  0.1220226E-03
  0.7020202E+00  0.0000000E+00  0.2525252E-01 -0.1560797E-04  0.0000000E+00  0.1154503E-03
  0.7121212E+00  0.0000000E+00  0.2525252E-01 -0.1474127E-04  0.0000000E+00  0.1092475E-03
  0.7222222E+00  0.0000000E+00  0.2525252E-01 -0.1391318E-04  0.0000000E+00  0.1033967E-03
  0.7323232E+00  0.0000000E+00  0.2525252E-01 -0.1312180E-04  0.0000000E+00  0.9788139E-04
  0.7424242E+00  0.0000000E+00  0.2525252E-01 -0.1236521E-04  0.0000000E+00  0.9268614E-04
  0.7525253E+00  0.0000000E+00  0.2525252E-01 -0.1164151E-04  0.0000000E+00  0.8779630E-04
  0.7626263E+00  0.0000000E+00  0.2525252E-01 -0.1094885E-04  0.0000000E+00  0.8319816E-04
  0.7727273E+00  0.0000000E+00  0.2525252E-01 -0.1028544E-04  0.0000000E+00  0.7887885E-04
  0.7828283E+00  0.0000000E+00  0.2525252E-01 -0.9649570E-05  0.0000000E+00  0.7482627E-04
  0.7929293E+00  0.0000000E+00  0.2525252E-01 -0.9039594E-05  0.0000000E+00  0.7102909E-04
  0.8030303E+00  0.0000000E+00  0.2525252E-01 -0.8453935E-05  0.0000000E+00  0.6747670E-04
  0.8131313E+00  0.0000000E+00  0.2525252E-01 -0.7891078E-05  0.0000000E+00  0.6415914E-04
  0.8232324E+00  0.0000000E+00  0.2525252E-01 -0.7349564E-05  0.0000000E+00  0.6106714E-04
  0.8333333E+00  0.0000000E+00  0.2525252E-01 -0.6827987E-05  0.0000000E+00  0.5819201E-04
  0.8434343E+00  0.0000000E+00  0.2525252E-01 -0.6324983E-05  0.0000000E+00  0.5552569E-04
  0.8535354E+00  0.0000000E+00  0.2525252E-01 -0.5839233E-05  0.0000000E+00  0.5306068E-04
  0.8636364E+00  0.0000000E+00  0.2525252E-01 -0.5369453E-05  0.0000000E+00  0.5079003E-04
  0.8737374E+00  0.0000000E+00  0.2525252E-01 -0.4914397E-05  0.0000000E+00  0.4870735E-04
  0.8838384E+00  0.0000000E+00  0.2525252E-01 -0.4472845E-05  0.0000000E+00  0.4680676E-04
  0.8939394E+00  0.0000000E+00  0.2525252E-01 -0.4043610E-05  0.0000000E+00  0.4508289E-04
  0.9040404E+00  0.0000000E+00  0.2525252E-01 -0.3625530E-05  0.0000000E+00  0.4353086E-04
  0.9141414E+00  0.0000000E+00  0.2525252E-01 -0.3217465E-05  0.0000000E+00  0.4214628E-04
  0.9242424E+00  0.0000000E+00  0.2525252E-01 -0.2818299E-05  0.0000000E+00  0.4092522E-04
  0.9343435E+00  0.0000000E+00  0.2525252E-01 -0.2426935E-05  0.0000000E+00  0.3986424E-04
  0.9444444E+00  0.0000000E+00  0.2525252E-01 -0.2042294E-05  0.0000000E+00  0.3896033E-04
  0.9545454E+00  0.0000000E+00  0.2525252E-01 -0.1663311E-05  0.0000000E+00  0.3821094E-04
  0.9646465E+00  0.0000000E+00  0.2525252E-01 -0.1288936E-05  0.0000000E+00  0.3761394E-04
  0.9747475E+00  0.0000000E+00  0.2525252E-01 -0.9181310E-06  0.0000000E+00  0.3716764E-04
  0.9848485E+00  0.0000000E+00  0.2525252E-01 -0.5498660E-06  0.0000000E+00  0.3687080E-04
  0.9974747E+00  0.0000000E+00  0.2525252E-01 -0.1831203E-06  0.0000000E+00  0.3672259E-04
  0.5050505E-02  0.0000000E+00  0.3535353E-01  0.2081070E-06  0.0000000E+00  0.2263725E-04
  0.1515152E-01  0.0000000E+00  0.3535353E-01  0.6254555E-06  0.0000000E+00  0.2275671E-04
  0.2525252E-01  0.0000000E+00  0.3535353E-01  0.1046224E-05  0.0000000E+00  0.2299626E-04
  0.3535353E-01  0.0000000E+00  0.3535353E-01  0.1472744E-05  0.0000000E+00  0.2335717E-04
  0.4545455E-01  0.0000000E+00  0.3535353E-01  0.1907419E-05  0.0000000E+00  0.2384141E-04
  0.5555556E-01  0.0000000E+00  0.3535353E-01  0.2352761E-05  0.0000000E+00  0.2445160E-04
  0.6565657E-01  0.0000000E+00  0.3535353E-01  0.2811421E-05  0.0000000E+00  0.2519111E-04
  0.7575758E-01  0.0000000E+00  0.3535353E-01  0.3286226E-05  0.0000000E+00  0.2606406E-04
  0.8585858E-01  0.0000000E+00  0.3535353E-01  0.3780223E-05  0.0000000E+00  0.2707540E-04
  0.9595960E-01  0.0000000E+00  0.3535353E-01  0.4296726E-05  0.0000000E+00  0.2823095E-04
  0.1060606E+00  0.0000000E+00  0.3535353E-01  0.4839373E-05  0.0000000E+00  0.2953751E-04
  0.1161616E+00  0.0000000E+00  0.3535353E-01  0.5412188E-05  0.0000000E+00  0.3100292E-04
  0.1262626E+00  0.0000000E+00  0.3535353E-01  0.6019660E-05  0.0000000E+00  0.3263620E-04
  0.1363636E+00  0.0000000E+00  0.3535353E-01  0.6666837E-05  0.0000000E+00  0.3444765E-04
  0.1464646E+00  0.0000000E+00  0.3535353E-01  0.7359434E-05  0.0000000E+00  0.3644904E-04
  0.1565657E+00  0.0000000E+00  0.3535353E-01  0.8103972E-05  0.0000000E+00  0.3865378E-04
  0.1666667E+00  0.0000000E+00  0.3535353E-01  0.8907948E-05  0.0000000E+00  0.4107715E-04
  0.1767677E+00  0.0000000E+00  0.3535353E-01  0.9780048E-05  0.0000000E+00  0.4373654E-04
  0.1868687E+00  0.0000000E+00  0.3535353E-01  0.1073042E-04  0.0000000E+00  0.4665178E-04
  0.1969697E+00  0.0000000E+00  0.3535353E-01  0.1177100E-04  0.0000000E+00  0.4984553E-04
  0.2070707E+00  0.0000000E+00  0.3535353E-01  0.1291602E-04  0.0000000E+00  0.5334368E-04
  0.2171717E+00  0.0000000E+00  0.3535353E-01  0.1418253E-04  0.0000000E+00  0.5717594E-04
  0.2272727E+00  0.0000000E+00  0.3535353E-01  0.1559126E-04  0.0000000E+00  0.6137646E-04
  0.2373737E+00  0.0000000E+00  0.3535353E-01  0.1716770E-04  0.0000000E+00  0.6598457E-04
  0.2474747E+00  0.0000000E+00  0.3535353E-01  0.1894357E-04  0.0000000E+00  0.7104574E-04
  0.2575758E+00  0.0000000E+00  0.3535353E-01  0.2095904E-04  0.0000000E+00  0.7661259E-04
  0.2676768E+00  0.0000000E+00  0.3535353E-01  0.2326568E-04  0.0000000E+00  0.8274604E-04
  0.2777778E+00  0.0000000E+00  0.3535353E-01  0.2593101E-04  0.0000000E+00  0.8951640E-04
  0.2878788E+00  0.0000000E+00  0.3535353E-01  0.2904502E-04  0.0000000E+00  0.9700417E-04
  0.2979798E+00  0.0000000E+00  0.3535353E-01  0.3273011E-04  0.0000000E+00  0.1052996E-03