title = "dataset water"
variables = "time", "absolute mass balance error", "relative mass balance error", "absolute cumulative mass balance error", "relative cumulative mass balance error" 
zone t = "mass balance error -  variably saturated flow", f=point
  1.0000E-10  5.4229E-17  2.9882E-14  5.4229E-17  2.9882E-14
  6.0000E-10  2.7813E-16  1.5326E-13  3.3236E-16  1.8314E-13
  3.1000E-09 -9.9029E-19 -5.4569E-16  3.3137E-16  1.8260E-13
  1.5600E-08  1.8730E-18  1.0321E-15  3.3324E-16  1.8363E-13
  7.8100E-08  1.7445E-18  9.6127E-16  3.3498E-16  1.8459E-13
  3.9060E-07 -1.3890E-17 -7.6540E-15  3.2109E-16  1.7693E-13
  1.9531E-06 -2.0549E-15 -1.1323E-12 -1.7338E-15 -9.5541E-13
  9.7656E-06 -1.4584E-18 -8.0361E-16 -1.7353E-15 -9.5621E-13
  4.8828E-05 -2.0760E-16 -1.1440E-13 -1.9429E-15 -1.0706E-12
  2.4414E-04 -3.9844E-19 -2.1954E-16 -1.9433E-15 -1.0707E-12
  1.2207E-03 -3.4856E-16 -1.9198E-13 -2.2918E-15 -1.2623E-12
  6.1035E-03 -2.3507E-16 -1.2935E-13 -2.5269E-15 -1.3904E-12
  2.3462E-02  6.4272E-15  3.5301E-12  3.9003E-15  2.1422E-12
  8.7359E-02 -1.4858E-13 -8.1330E-11 -1.4468E-13 -7.9195E-11
  3.0004E-01 -2.2569E-11 -1.2280E-08 -2.2714E-11 -1.2359E-08
  1.0000E+00 -1.4945E-10 -8.0463E-08 -1.7216E-10 -9.2693E-08
  2.0000E+00  2.1955E-04  1.1952E-01  2.1955E-04  1.1952E-01
  3.0000E+00 -4.5864E-10 -2.5044E-07  2.1955E-04  1.1989E-01
  4.0000E+00 -3.1115E-10 -1.7018E-07  2.1955E-04  1.2008E-01
  5.0000E+00 -2.7502E-10 -1.5058E-07  2.1955E-04  1.2021E-01
  6.0000E+00 -4.9788E-10 -2.7280E-07  2.1955E-04  1.2030E-01
  7.0000E+00 -5.3822E-10 -2.9506E-07  2.1955E-04  1.2036E-01
  8.0000E+00 -1.4796E-10 -8.1157E-08  2.1955E-04  1.2042E-01
  9.0000E+00 -2.0868E-10 -1.1450E-07  2.1955E-04  1.2047E-01
  1.0000E+01 -2.8070E-10 -1.5408E-07  2.1955E-04  1.2051E-01
  1.1000E+01 -1.5033E-10 -8.2550E-08  2.1955E-04  1.2056E-01
  1.2000E+01 -1.2970E-10 -7.1247E-08  2.1955E-04  1.2060E-01
  1.3000E+01 -2.2327E-10 -1.2268E-07  2.1955E-04  1.2064E-01
  1.4000E+01 -1.8322E-10 -1.0071E-07  2.1955E-04  1.2068E-01
  1.5000E+01 -2.9483E-11 -1.6212E-08  2.1955E-04  1.2073E-01
  1.6000E+01 -1.3243E-11 -7.2853E-09  2.1955E-04  1.2078E-01
  1.7000E+01  1.7022E-11  9.3694E-09  2.1955E-04  1.2085E-01
  1.8000E+01  1.0277E-10  5.6608E-08  2.1955E-04  1.2094E-01
  1.9000E+01  1.5958E-10  8.7988E-08  2.1955E-04  1.2105E-01
  2.0000E+01  1.6554E-10  9.1371E-08  2.1955E-04  1.2118E-01
  2.1000E+01  2.0249E-10  1.1190E-07  2.1955E-04  1.2133E-01
  2.2000E+01  1.6128E-10  8.9262E-08  2.1955E-04  1.2151E-01
  2.3000E+01  7.5950E-11  4.2121E-08  2.1955E-04  1.2176E-01
  2.4000E+01  5.3689E-11  2.9857E-08  2.1955E-04  1.2209E-01
  2.5000E+01  9.0124E-11  5.0291E-08  2.1955E-04  1.2251E-01
  2.6000E+01  1.0610E-10  5.9442E-08  2.1955E-04  1.2300E-01
  2.7000E+01  5.0825E-11  2.8613E-08  2.1955E-04  1.2360E-01
  2.8000E+01 -1.8200E-11 -1.0300E-08  2.1955E-04  1.2425E-01
  2.9000E+01 -5.0485E-11 -2.8739E-08  2.1955E-04  1.2498E-01
  3.0000E+01 -3.2185E-11 -1.8443E-08  2.1955E-04  1.2581E-01
  3.1000E+01 -4.2663E-12 -2.4643E-09  2.1955E-04  1.2682E-01
  3.2000E+01 -2.4786E-12 -1.4429E-09  2.1955E-04  1.2781E-01
  3.3000E+01 -2.3236E-11 -1.3641E-08  2.1955E-04  1.2888E-01
  3.4000E+01  6.7915E-11  4.0238E-08  2.1955E-04  1.3008E-01
  3.5000E+01  9.4180E-12  5.6338E-09  2.1955E-04  1.3133E-01
  3.6000E+01 -1.2360E-15 -7.4599E-13  2.1955E-04  1.3251E-01
  3.7000E+01 -1.0212E-06 -6.2258E-04  2.1853E-04  1.3323E-01
  3.8000E+01 -1.1736E-06 -7.2431E-04  2.1736E-04  1.3415E-01
  3.9000E+01 -1.2328E-06 -7.6924E-04  2.1612E-04  1.3485E-01
  4.0000E+01 -1.1824E-06 -7.4620E-04  2.1494E-04  1.3564E-01
  4.1000E+01 -1.3424E-06 -8.5688E-04  2.1360E-04  1.3634E-01
  4.2000E+01 -1.2586E-06 -8.1193E-04  2.1234E-04  1.3698E-01
  4.3000E+01 -1.6958E-06 -1.1066E-03  2.1064E-04  1.3746E-01
  4.4000E+01 -2.0771E-06 -1.3698E-03  2.0857E-04  1.3755E-01
  4.4250E+01 -1.0484E-06 -6.9357E-04  2.0752E-04  1.3729E-01
  4.4625E+01 -1.5833E-06 -1.0522E-03  2.0593E-04  1.3685E-01
  4.5000E+01 -1.5930E-06 -1.0631E-03  2.0434E-04  1.3637E-01
  4.5250E+01 -1.1572E-06 -7.7448E-04  2.0318E-04  1.3599E-01
  4.5438E+01 -8.7047E-07 -5.8379E-04  2.0231E-04  1.3568E-01
  4.5719E+01 -1.3110E-06 -8.8187E-04  2.0100E-04  1.3521E-01
  4.6000E+01 -1.3159E-06 -8.8773E-04  1.9969E-04  1.3472E-01
  4.6250E+01 -2.0876E-06 -1.4127E-03  1.9760E-04  1.3372E-01
  4.6438E+01 -1.5703E-06 -1.0651E-03  1.9603E-04  1.3296E-01
  4.6719E+01 -2.3651E-06 -1.6093E-03  1.9366E-04  1.3178E-01
  4.7000E+01 -2.3741E-06 -1.6205E-03  1.9129E-04  1.3057E-01
  4.7125E+01 -1.1388E-06 -7.7844E-04  1.9015E-04  1.2998E-01
  4.7344E+01 -1.9986E-06 -1.3693E-03  1.8815E-04  1.2892E-01
  4.7508E+01 -1.5019E-06 -1.0309E-03  1.8665E-04  1.2811E-01
  4.7631E+01 -1.1281E-06 -7.7528E-04  1.8552E-04  1.2750E-01
  4.7815E+01 -1.6957E-06 -1.1675E-03  1.8383E-04  1.2657E-01
  4.8000E+01 -1.6991E-06 -1.1720E-03  1.8213E-04  1.2563E-01
  4.8250E+01 -2.3578E-06 -1.6313E-03  1.7977E-04  1.2438E-01
  4.8438E+01 -1.7727E-06 -1.2292E-03  1.7800E-04  1.2342E-01
  4.8578E+01 -1.3319E-06 -9.2503E-04  1.7667E-04  1.2270E-01
  4.8789E+01 -2.0029E-06 -1.3943E-03  1.7466E-04  1.2159E-01
  4.9000E+01 -2.0077E-06 -1.4009E-03  1.7265E-04  1.2047E-01
  4.9125E+01 -1.2754E-06 -8.9122E-04  1.7138E-04  1.1976E-01
  4.9234E+01 -1.1175E-06 -7.8194E-04  1.7026E-04  1.1913E-01
  4.9426E+01 -1.9603E-06 -1.3746E-03  1.6830E-04  1.1802E-01
  4.9569E+01 -1.4727E-06 -1.0344E-03  1.6683E-04  1.1717E-01
  4.9677E+01 -1.1059E-06 -7.7766E-04  1.6572E-04  1.1654E-01
  4.9839E+01 -1.6618E-06 -1.1706E-03  1.6406E-04  1.1557E-01
  5.0000E+01 -1.6646E-06 -1.1746E-03  1.6240E-04  1.1459E-01
  5.0125E+01 -1.3602E-06 -9.6108E-04  1.6104E-04  1.1378E-01
  5.0234E+01 -1.1915E-06 -8.4286E-04  1.5984E-04  1.1307E-01
  5.0426E+01 -2.0891E-06 -1.4806E-03  1.5776E-04  1.1181E-01
  5.0569E+01 -1.5689E-06 -1.1136E-03  1.5619E-04  1.1085E-01
  5.0677E+01 -1.1779E-06 -8.3688E-04  1.5501E-04  1.1014E-01
  5.0839E+01 -1.7693E-06 -1.2590E-03  1.5324E-04  1.0905E-01
  5.1000E+01 -1.7717E-06 -1.2627E-03  1.5147E-04  1.0795E-01
  5.1125E+01 -1.6565E-06 -1.1824E-03  1.4981E-04  1.0694E-01
  5.1234E+01 -1.4514E-06 -1.0374E-03  1.4836E-04  1.0604E-01
  5.1426E+01 -2.5455E-06 -1.8234E-03  1.4581E-04  1.0445E-01
  5.2000E+01 -7.6795E-06 -5.5353E-03  1.3814E-04  9.9566E-02
  5.2125E+01 -1.7706E-06 -1.2781E-03  1.3636E-04  9.8434E-02
  5.2234E+01 -1.5511E-06 -1.1211E-03  1.3481E-04  9.7437E-02
  5.2330E+01 -1.3586E-06 -9.8298E-04  1.3345E-04  9.6560E-02
  5.2498E+01 -2.3815E-06 -1.7263E-03  1.3107E-04  9.5012E-02
  5.2623E+01 -1.7883E-06 -1.2980E-03  1.2929E-04  9.3844E-02
  5.2717E+01 -1.3424E-06 -9.7536E-04  1.2794E-04  9.2963E-02
  5.2859E+01 -2.0161E-06 -1.4671E-03  1.2593E-04  9.1633E-02
  5.3000E+01 -2.0185E-06 -1.4710E-03  1.2391E-04  9.0295E-02
  5.3125E+01 -2.5321E-06 -1.8480E-03  1.2138E-04  8.8584E-02
  5.3234E+01 -2.2183E-06 -1.6211E-03  1.1916E-04  8.7078E-02
  5.3330E+01 -1.9430E-06 -1.4215E-03  1.1721E-04  8.5754E-02
  5.3414E+01 -1.7016E-06 -1.2461E-03  1.1551E-04  8.4591E-02
  5.3560E+01 -2.9820E-06 -2.1874E-03  1.1253E-04  8.2544E-02
  5.3670E+01 -2.2388E-06 -1.6442E-03  1.1029E-04  8.1001E-02
  5.3753E+01 -1.6804E-06 -1.2352E-03  1.0861E-04  7.9839E-02
  5.3876E+01 -2.5234E-06 -1.8574E-03  1.0609E-04  7.8088E-02
  5.4000E+01 -2.5261E-06 -1.8618E-03  1.0356E-04  7.6329E-02
  5.4125E+01 -2.7754E-06 -2.0484E-03  1.0079E-04  7.4389E-02
  5.4234E+01 -2.4310E-06 -1.7965E-03  9.8356E-05  7.2684E-02
  5.4330E+01 -2.1291E-06 -1.5750E-03  9.6227E-05  7.1185E-02
  5.4414E+01 -1.8644E-06 -1.3804E-03  9.4363E-05  6.9870E-02
  5.4487E+01 -1.6324E-06 -1.2096E-03  9.2730E-05  6.8715E-02
  5.4615E+01 -2.8597E-06 -2.1220E-03  8.9871E-05  6.6686E-02
  5.4711E+01 -2.1465E-06 -1.5943E-03  8.7724E-05  6.5158E-02
  5.4784E+01 -1.6108E-06 -1.1973E-03  8.6113E-05  6.4009E-02
  5.4892E+01 -2.4182E-06 -1.7994E-03  8.3695E-05  6.2279E-02
  5.5000E+01 -2.4202E-06 -1.8028E-03  8.1275E-05  6.0544E-02
  5.5125E+01 -2.9295E-06 -2.1853E-03  7.8345E-05  5.8443E-02
  5.5234E+01 -2.5656E-06 -1.9162E-03  7.5780E-05  5.6598E-02
  5.5330E+01 -2.2466E-06 -1.6797E-03  7.3533E-05  5.4977E-02
  5.5498E+01 -3.9366E-06 -2.9485E-03  6.9597E-05  5.2127E-02
  5.5623E+01 -2.9552E-06 -2.2164E-03  6.6641E-05  4.9980E-02
  5.5717E+01 -2.2180E-06 -1.6650E-03  6.4423E-05  4.8363E-02
  5.5859E+01 -3.3303E-06 -2.5037E-03  6.1093E-05  4.5929E-02
  5.6000E+01 -3.3335E-06 -2.5096E-03  5.7760E-05  4.3484E-02
  5.6125E+01 -3.4623E-06 -2.6102E-03  5.4297E-05  4.0934E-02
  5.6234E+01 -3.0324E-06 -2.2887E-03  5.1265E-05  3.8693E-02
  5.6330E+01 -2.6554E-06 -2.0062E-03  4.8610E-05  3.6726E-02
  5.6414E+01 -2.3250E-06 -1.7581E-03  4.6285E-05  3.5000E-02
  5.6487E+01 -2.0355E-06 -1.5404E-03  4.4249E-05  3.3486E-02
  5.6615E+01 -3.5654E-06 -2.7016E-03  4.0684E-05  3.0828E-02
  5.6711E+01 -2.6759E-06 -2.0296E-03  3.8008E-05  2.8828E-02
  5.6856E+01 -4.0177E-06 -3.0516E-03  3.3990E-05  2.5817E-02
  5.7000E+01 -4.0215E-06 -3.0587E-03  2.9969E-05  2.2794E-02
  5.7125E+01 -3.5581E-06 -2.7099E-03  2.6411E-05  2.0115E-02
  5.7234E+01 -3.1159E-06 -2.3759E-03  2.3295E-05  1.7762E-02
  5.7330E+01 -2.7283E-06 -2.0824E-03  2.0566E-05  1.5698E-02
  5.7414E+01 -2.3887E-06 -1.8248E-03  1.8178E-05  1.3886E-02
  5.7560E+01 -4.1843E-06 -3.2012E-03  1.3993E-05  1.0706E-02
  5.7670E+01 -3.1405E-06 -2.4053E-03  1.0853E-05  8.3122E-03
  5.7753E+01 -2.3566E-06 -1.8064E-03  8.4963E-06  6.5125E-03
  5.7876E+01 -3.5376E-06 -2.7148E-03  4.9588E-06  3.8054E-03
  5.8000E+01 -3.5402E-06 -2.7199E-03  1.4186E-06  1.0899E-03
  5.8125E+01 -4.2321E-06 -3.2561E-03 -2.8135E-06 -2.1647E-03
  5.8234E+01 -3.7063E-06 -2.8551E-03 -6.5198E-06 -5.0224E-03
  5.8330E+01 -3.2453E-06 -2.5026E-03 -9.7651E-06 -7.5302E-03
  5.8414E+01 -2.8414E-06 -2.1931E-03 -1.2606E-05 -9.7301E-03
  5.8487E+01 -2.4875E-06 -1.9214E-03 -1.5094E-05 -1.1659E-02
  5.8615E+01 -4.3569E-06 -3.3699E-03 -1.9451E-05 -1.5045E-02
  5.8711E+01 -3.2698E-06 -2.5316E-03 -2.2721E-05 -1.7591E-02
  5.8784E+01 -2.4535E-06 -1.9009E-03 -2.5174E-05 -1.9505E-02
  5.8892E+01 -3.6827E-06 -2.8564E-03 -2.8857E-05 -2.2382E-02
  5.9000E+01 -3.6851E-06 -2.8613E-03 -3.2542E-05 -2.5267E-02
  5.9125E+01 -4.4937E-06 -3.4938E-03 -3.7036E-05 -2.8795E-02
  5.9234E+01 -3.9349E-06 -3.0628E-03 -4.0970E-05 -3.1890E-02
  5.9330E+01 -3.4452E-06 -2.6842E-03 -4.4416E-05 -3.4605E-02
  5.9414E+01 -3.0161E-06 -2.3519E-03 -4.7432E-05 -3.6986E-02
  5.9487E+01 -2.6403E-06 -2.0603E-03 -5.0072E-05 -3.9073E-02
  5.9615E+01 -4.6240E-06 -3.6128E-03 -5.4696E-05 -4.2735E-02
  5.9711E+01 -3.4699E-06 -2.7135E-03 -5.8166E-05 -4.5488E-02
  5.9784E+01 -2.6034E-06 -2.0374E-03 -6.0769E-05 -4.7556E-02
  5.9892E+01 -3.9074E-06 -3.0609E-03 -6.4677E-05 -5.0664E-02
  6.0000E+01 -3.9096E-06 -3.0656E-03 -6.8586E-05 -5.3780E-02
