title = "dataset water"
variables = "x", "y", "z", "vx", "vy", "vz"
zone t = "velocities, solution time =  1.200E+01 days        " i =   99, j =   99, k =    1,  f=point
  0.5050505E-02  0.0000000E+00  0.5050505E-02  0.5119565E-12  0.0000000E+00 -0.4110022E-04
  0.1515152E-01  0.0000000E+00  0.5050505E-02  0.1525036E-11  0.0000000E+00 -0.4110022E-04
  0.2525252E-01  0.0000000E+00  0.5050505E-02  0.2534735E-11  0.0000000E+00 -0.4110021E-04
  0.3535353E-01  0.0000000E+00  0.5050505E-02  0.3543000E-11  0.0000000E+00 -0.4110021E-04
  0.4545455E-01  0.0000000E+00  0.5050505E-02  0.4547729E-11  0.0000000E+00 -0.4110020E-04
  0.5555556E-01  0.0000000E+00  0.5050505E-02  0.5544318E-11  0.0000000E+00 -0.4110019E-04
  0.6565657E-01  0.0000000E+00  0.5050505E-02  0.6535217E-11  0.0000000E+00 -0.4110018E-04
  0.7575758E-01  0.0000000E+00  0.5050505E-02  0.7518365E-11  0.0000000E+00 -0.4110016E-04
  0.8585858E-01  0.0000000E+00  0.5050505E-02  0.8490819E-11  0.0000000E+00 -0.4110015E-04
  0.9595960E-01  0.0000000E+00  0.5050505E-02  0.9450600E-11  0.0000000E+00 -0.4110013E-04
  0.1060606E+00  0.0000000E+00  0.5050505E-02  0.1039600E-10  0.0000000E+00 -0.4110011E-04
  0.1161616E+00  0.0000000E+00  0.5050505E-02  0.1132475E-10  0.0000000E+00 -0.4110009E-04
  0.1262626E+00  0.0000000E+00  0.5050505E-02  0.1223398E-10  0.0000000E+00 -0.4110006E-04
  0.1363636E+00  0.0000000E+00  0.5050505E-02  0.1312056E-10  0.0000000E+00 -0.4110004E-04
  0.1464646E+00  0.0000000E+00  0.5050505E-02  0.1398135E-10  0.0000000E+00 -0.4110001E-04
  0.1565657E+00  0.0000000E+00  0.5050505E-02  0.1481317E-10  0.0000000E+00 -0.4109998E-04
  0.1666667E+00  0.0000000E+00  0.5050505E-02  0.1561287E-10  0.0000000E+00 -0.4109995E-04
  0.1767677E+00  0.0000000E+00  0.5050505E-02  0.1637715E-10  0.0000000E+00 -0.4109992E-04
  0.1868687E+00  0.0000000E+00  0.5050505E-02  0.1710262E-10  0.0000000E+00 -0.4109989E-04
  0.1969697E+00  0.0000000E+00  0.5050505E-02  0.1778572E-10  0.0000000E+00 -0.4109985E-04
  0.2070707E+00  0.0000000E+00  0.5050505E-02  0.1842277E-10  0.0000000E+00 -0.4109982E-04
  0.2171717E+00  0.0000000E+00  0.5050505E-02  0.1901000E-10  0.0000000E+00 -0.4109978E-04
  0.2272727E+00  0.0000000E+00  0.5050505E-02  0.1954358E-10  0.0000000E+00 -0.4109974E-04
  0.2373737E+00  0.0000000E+00  0.5050505E-02  0.2001968E-10  0.0000000E+00 -0.4109970E-04
  0.2474747E+00  0.0000000E+00  0.5050505E-02  0.2043448E-10  0.0000000E+00 -0.4109966E-04
  0.2575758E+00  0.0000000E+00  0.5050505E-02  0.2078428E-10  0.0000000E+00 -0.4109962E-04
  0.2676768E+00  0.0000000E+00  0.5050505E-02  0.2106545E-10  0.0000000E+00 -0.4109957E-04
  0.2777778E+00  0.0000000E+00  0.5050505E-02  0.2127456E-10  0.0000000E+00 -0.4109953E-04
  0.2878788E+00  0.0000000E+00  0.5050505E-02  0.2140841E-10  0.0000000E+00 -0.4109949E-04
  0.2979798E+00  0.0000000E+00  0.5050505E-02  0.2146400E-10  0.0000000E+00 -0.4109945E-04
  0.3080808E+00  0.0000000E+00  0.5050505E-02  0.2143869E-10  0.0000000E+00 -0.4109940E-04
  0.3181818E+00  0.0000000E+00  0.5050505E-02  0.2133016E-10  0.0000000E+00 -0.4109936E-04
  0.3282828E+00  0.0000000E+00  0.5050505E-02  0.2113648E-10  0.0000000E+00 -0.4109932E-04
  0.3383838E+00  0.0000000E+00  0.5050505E-02  0.2085616E-10  0.0000000E+00 -0.4109928E-04
  0.3484848E+00  0.0000000E+00  0.5050505E-02  0.2048817E-10  0.0000000E+00 -0.4109923E-04
  0.3585859E+00  0.0000000E+00  0.5050505E-02  0.2003197E-10  0.0000000E+00 -0.4109919E-04
  0.3686869E+00  0.0000000E+00  0.5050505E-02  0.1948757E-10  0.0000000E+00 -0.4109915E-04
  0.3787879E+00  0.0000000E+00  0.5050505E-02  0.1885554E-10  0.0000000E+00 -0.4109911E-04
  0.3888889E+00  0.0000000E+00  0.5050505E-02  0.1813704E-10  0.0000000E+00 -0.4109908E-04
  0.3989899E+00  0.0000000E+00  0.5050505E-02  0.1733384E-10  0.0000000E+00 -0.4109904E-04
  0.4090909E+00  0.0000000E+00  0.5050505E-02  0.1644833E-10  0.0000000E+00 -0.4109901E-04
  0.4191919E+00  0.0000000E+00  0.5050505E-02  0.1548357E-10  0.0000000E+00 -0.4109898E-04
  0.4292929E+00  0.0000000E+00  0.5050505E-02  0.1444324E-10  0.0000000E+00 -0.4109895E-04
  0.4393939E+00  0.0000000E+00  0.5050505E-02  0.1333167E-10  0.0000000E+00 -0.4109892E-04
  0.4494950E+00  0.0000000E+00  0.5050505E-02  0.1215379E-10  0.0000000E+00 -0.4109889E-04
  0.4595959E+00  0.0000000E+00  0.5050505E-02  0.1091510E-10  0.0000000E+00 -0.4109887E-04
  0.4696970E+00  0.0000000E+00  0.5050505E-02  0.9621630E-11  0.0000000E+00 -0.4109885E-04
  0.4797980E+00  0.0000000E+00  0.5050505E-02  0.8279832E-11  0.0000000E+00 -0.4109883E-04
  0.4898990E+00  0.0000000E+00  0.5050505E-02  0.6896573E-11  0.0000000E+00 -0.4109882E-04
  0.5000000E+00  0.0000000E+00  0.5050505E-02  0.5479076E-11  0.0000000E+00 -0.4109880E-04
  0.5101010E+00  0.0000000E+00  0.5050505E-02  0.4034870E-11  0.0000000E+00 -0.4109879E-04
  0.5202020E+00  0.0000000E+00  0.5050505E-02  0.2571767E-11  0.0000000E+00 -0.4109879E-04
  0.5303030E+00  0.0000000E+00  0.5050505E-02  0.1097660E-11  0.0000000E+00 -0.4109878E-04
  0.5404040E+00  0.0000000E+00  0.5050505E-02 -0.3790434E-12  0.0000000E+00 -0.4109878E-04
  0.5505050E+00  0.0000000E+00  0.5050505E-02 -0.1850301E-11  0.0000000E+00 -0.4109878E-04
  0.5606061E+00  0.0000000E+00  0.5050505E-02 -0.3307063E-11  0.0000000E+00 -0.4109879E-04
  0.5707071E+00  0.0000000E+00  0.5050505E-02 -0.4741534E-11  0.0000000E+00 -0.4109880E-04
  0.5808081E+00  0.0000000E+00  0.5050505E-02 -0.6146174E-11  0.0000000E+00 -0.4109881E-04
  0.5909091E+00  0.0000000E+00  0.5050505E-02 -0.7510857E-11  0.0000000E+00 -0.4109882E-04
  0.6010101E+00  0.0000000E+00  0.5050505E-02 -0.8831022E-11  0.0000000E+00 -0.4109884E-04
  0.6111111E+00  0.0000000E+00  0.5050505E-02 -0.1009910E-10  0.0000000E+00 -0.4109886E-04
  0.6212121E+00  0.0000000E+00  0.5050505E-02 -0.1130748E-10  0.0000000E+00 -0.4109888E-04
  0.6313131E+00  0.0000000E+00  0.5050505E-02 -0.1244998E-10  0.0000000E+00 -0.4109890E-04
  0.6414142E+00  0.0000000E+00  0.5050505E-02 -0.1352118E-10  0.0000000E+00 -0.4109893E-04
  0.6515151E+00  0.0000000E+00  0.5050505E-02 -0.1451592E-10  0.0000000E+00 -0.4109896E-04
  0.6616161E+00  0.0000000E+00  0.5050505E-02 -0.1542926E-10  0.0000000E+00 -0.4109899E-04
  0.6717172E+00  0.0000000E+00  0.5050505E-02 -0.1625686E-10  0.0000000E+00 -0.4109902E-04
  0.6818182E+00  0.0000000E+00  0.5050505E-02 -0.1699516E-10  0.0000000E+00 -0.4109905E-04
  0.6919192E+00  0.0000000E+00  0.5050505E-02 -0.1764138E-10  0.0000000E+00 -0.4109909E-04
  0.7020202E+00  0.0000000E+00  0.5050505E-02 -0.1819350E-10  0.0000000E+00 -0.4109912E-04
  0.7121212E+00  0.0000000E+00  0.5050505E-02 -0.1865020E-10  0.0000000E+00 -0.4109916E-04
  0.7222222E+00  0.0000000E+00  0.5050505E-02 -0.1901073E-10  0.0000000E+00 -0.4109920E-04
  0.7323232E+00  0.0000000E+00  0.5050505E-02 -0.1927493E-10  0.0000000E+00 -0.4109924E-04
  0.7424242E+00  0.0000000E+00  0.5050505E-02 -0.1944318E-10  0.0000000E+00 -0.4109928E-04
  0.7525253E+00  0.0000000E+00  0.5050505E-02 -0.1951636E-10  0.0000000E+00 -0.4109931E-04
  0.7626263E+00  0.0000000E+00  0.5050505E-02 -0.1949582E-10  0.0000000E+00 -0.4109935E-04
  0.7727273E+00  0.0000000E+00  0.5050505E-02 -0.1938337E-10  0.0000000E+00 -0.4109939E-04
  0.7828283E+00  0.0000000E+00  0.5050505E-02 -0.1918124E-10  0.0000000E+00 -0.4109943E-04
  0.7929293E+00  0.0000000E+00  0.5050505E-02 -0.1889201E-10  0.0000000E+00 -0.4109947E-04
  0.8030303E+00  0.0000000E+00  0.5050505E-02 -0.1851864E-10  0.0000000E+00 -0.4109951E-04
  0.8131313E+00  0.0000000E+00  0.5050505E-02 -0.1806432E-10  0.0000000E+00 -0.4109954E-04
  0.8232324E+00  0.0000000E+00  0.5050505E-02 -0.1753254E-10  0.0000000E+00 -0.4109958E-04
  0.8333333E+00  0.0000000E+00  0.5050505E-02 -0.1692696E-10  0.0000000E+00 -0.4109962E-04
  0.8434343E+00  0.0000000E+00  0.5050505E-02 -0.1625144E-10  0.0000000E+00 -0.4109965E-04
  0.8535354E+00  0.0000000E+00  0.5050505E-02 -0.1550997E-10  0.0000000E+00 -0.4109968E-04
  0.8636364E+00  0.0000000E+00  0.5050505E-02 -0.1470668E-10  0.0000000E+00 -0.4109971E-04
  0.8737374E+00  0.0000000E+00  0.5050505E-02 -0.1384579E-10  0.0000000E+00 -0.4109974E-04
  0.8838384E+00  0.0000000E+00  0.5050505E-02 -0.1293160E-10  0.0000000E+00 -0.4109977E-04
  0.8939394E+00  0.0000000E+00  0.5050505E-02 -0.1196851E-10  0.0000000E+00 -0.4109979E-04
  0.9040404E+00  0.0000000E+00  0.5050505E-02 -0.1096092E-10  0.0000000E+00 -0.4109981E-04
  0.9141414E+00  0.0000000E+00  0.5050505E-02 -0.9913299E-11  0.0000000E+00 -0.4109984E-04
  0.9242424E+00  0.0000000E+00  0.5050505E-02 -0.8830048E-11  0.0000000E+00 -0.4109985E-04
  0.9343435E+00  0.0000000E+00  0.5050505E-02 -0.7715534E-11  0.0000000E+00 -0.4109987E-04
  0.9444444E+00  0.0000000E+00  0.5050505E-02 -0.6574018E-11  0.0000000E+00 -0.4109989E-04
  0.9545454E+00  0.0000000E+00  0.5050505E-02 -0.5409660E-11  0.0000000E+00 -0.4109990E-04
  0.9646465E+00  0.0000000E+00  0.5050505E-02 -0.4226510E-11  0.0000000E+00 -0.4109991E-04
  0.9747475E+00  0.0000000E+00  0.5050505E-02 -0.3028523E-11  0.0000000E+00 -0.4109991E-04
  0.9848485E+00  0.0000000E+00  0.5050505E-02 -0.1819514E-11  0.0000000E+00 -0.4109992E-04
  0.9974747E+00  0.0000000E+00  0.5050505E-02 -0.6028279E-12  0.0000000E+00 -0.4109992E-04
  0.5050505E-02  0.0000000E+00  0.1515152E-01  0.1540281E-11  0.0000000E+00 -0.4094863E-04
  0.1515152E-01  0.0000000E+00  0.1515152E-01  0.4595725E-11  0.0000000E+00 -0.4094863E-04
  0.2525252E-01  0.0000000E+00  0.1515152E-01  0.7640046E-11  0.0000000E+00 -0.4094863E-04
  0.3535353E-01  0.0000000E+00  0.1515152E-01  0.1067890E-10  0.0000000E+00 -0.4094862E-04
  0.4545455E-01  0.0000000E+00  0.1515152E-01  0.1370791E-10  0.0000000E+00 -0.4094861E-04
  0.5555556E-01  0.0000000E+00  0.1515152E-01  0.1671325E-10  0.0000000E+00 -0.4094860E-04
  0.6565657E-01  0.0000000E+00  0.1515152E-01  0.1970030E-10  0.0000000E+00 -0.4094859E-04
  0.7575758E-01  0.0000000E+00  0.1515152E-01  0.2266374E-10  0.0000000E+00 -0.4094858E-04
  0.8585858E-01  0.0000000E+00  0.1515152E-01  0.2559545E-10  0.0000000E+00 -0.4094856E-04
  0.9595960E-01  0.0000000E+00  0.1515152E-01  0.2848944E-10  0.0000000E+00 -0.4094854E-04
  0.1060606E+00  0.0000000E+00  0.1515152E-01  0.3134018E-10  0.0000000E+00 -0.4094852E-04
  0.1161616E+00  0.0000000E+00  0.1515152E-01  0.3414072E-10  0.0000000E+00 -0.4094850E-04
  0.1262626E+00  0.0000000E+00  0.1515152E-01  0.3688248E-10  0.0000000E+00 -0.4094847E-04
  0.1363636E+00  0.0000000E+00  0.1515152E-01  0.3955615E-10  0.0000000E+00 -0.4094845E-04
  0.1464646E+00  0.0000000E+00  0.1515152E-01  0.4215227E-10  0.0000000E+00 -0.4094842E-04
  0.1565657E+00  0.0000000E+00  0.1515152E-01  0.4466136E-10  0.0000000E+00 -0.4094839E-04
  0.1666667E+00  0.0000000E+00  0.1515152E-01  0.4707381E-10  0.0000000E+00 -0.4094836E-04
  0.1767677E+00  0.0000000E+00  0.1515152E-01  0.4937972E-10  0.0000000E+00 -0.4094833E-04
  0.1868687E+00  0.0000000E+00  0.1515152E-01  0.5156879E-10  0.0000000E+00 -0.4094829E-04
  0.1969697E+00  0.0000000E+00  0.1515152E-01  0.5363029E-10  0.0000000E+00 -0.4094826E-04
  0.2070707E+00  0.0000000E+00  0.1515152E-01  0.5555313E-10  0.0000000E+00 -0.4094822E-04
  0.2171717E+00  0.0000000E+00  0.1515152E-01  0.5732590E-10  0.0000000E+00 -0.4094818E-04
  0.2272727E+00  0.0000000E+00  0.1515152E-01  0.5893703E-10  0.0000000E+00 -0.4094814E-04
  0.2373737E+00  0.0000000E+00  0.1515152E-01  0.6037493E-10  0.0000000E+00 -0.4094810E-04
  0.2474747E+00  0.0000000E+00  0.1515152E-01  0.6162811E-10  0.0000000E+00 -0.4094806E-04
  0.2575758E+00  0.0000000E+00  0.1515152E-01  0.6268532E-10  0.0000000E+00 -0.4094802E-04
  0.2676768E+00  0.0000000E+00  0.1515152E-01  0.6353563E-10  0.0000000E+00 -0.4094798E-04
  0.2777778E+00  0.0000000E+00  0.1515152E-01  0.6416868E-10  0.0000000E+00 -0.4094793E-04
  0.2878788E+00  0.0000000E+00  0.1515152E-01  0.6457468E-10  0.0000000E+00 -0.4094789E-04
  0.2979798E+00  0.0000000E+00  0.1515152E-01  0.6474468E-10  0.0000000E+00 -0.4094784E-04
  0.3080808E+00  0.0000000E+00  0.1515152E-01  0.6467060E-10  0.0000000E+00 -0.4094780E-04
  0.3181818E+00  0.0000000E+00  0.1515152E-01  0.6434541E-10  0.0000000E+00 -0.4094776E-04
  0.3282828E+00  0.0000000E+00  0.1515152E-01  0.6376328E-10  0.0000000E+00 -0.4094771E-04
  0.3383838E+00  0.0000000E+00  0.1515152E-01  0.6291966E-10  0.0000000E+00 -0.4094767E-04
  0.3484848E+00  0.0000000E+00  0.1515152E-01  0.6181140E-10  0.0000000E+00 -0.4094763E-04
  0.3585859E+00  0.0000000E+00  0.1515152E-01  0.6043688E-10  0.0000000E+00 -0.4094759E-04
  0.3686869E+00  0.0000000E+00  0.1515152E-01  0.5879608E-10  0.0000000E+00 -0.4094755E-04
  0.3787879E+00  0.0000000E+00  0.1515152E-01  0.5689067E-10  0.0000000E+00 -0.4094751E-04
  0.3888889E+00  0.0000000E+00  0.1515152E-01  0.5472415E-10  0.0000000E+00 -0.4094747E-04
  0.3989899E+00  0.0000000E+00  0.1515152E-01  0.5230181E-10  0.0000000E+00 -0.4094743E-04
  0.4090909E+00  0.0000000E+00  0.1515152E-01  0.4963091E-10  0.0000000E+00 -0.4094740E-04
  0.4191919E+00  0.0000000E+00  0.1515152E-01  0.4672062E-10  0.0000000E+00 -0.4094737E-04
  0.4292929E+00  0.0000000E+00  0.1515152E-01  0.4358208E-10  0.0000000E+00 -0.4094733E-04
  0.4393939E+00  0.0000000E+00  0.1515152E-01  0.4022836E-10  0.0000000E+00 -0.4094731E-04
  0.4494950E+00  0.0000000E+00  0.1515152E-01  0.3667437E-10  0.0000000E+00 -0.4094728E-04
  0.4595959E+00  0.0000000E+00  0.1515152E-01  0.3293669E-10  0.0000000E+00 -0.4094726E-04
  0.4696970E+00  0.0000000E+00  0.1515152E-01  0.2903350E-10  0.0000000E+00 -0.4094723E-04
  0.4797980E+00  0.0000000E+00  0.1515152E-01  0.2498431E-10  0.0000000E+00 -0.4094722E-04
  0.4898990E+00  0.0000000E+00  0.1515152E-01  0.2080984E-10  0.0000000E+00 -0.4094720E-04
  0.5000000E+00  0.0000000E+00  0.1515152E-01  0.1653189E-10  0.0000000E+00 -0.4094719E-04
  0.5101010E+00  0.0000000E+00  0.1515152E-01  0.1217319E-10  0.0000000E+00 -0.4094718E-04
  0.5202020E+00  0.0000000E+00  0.1515152E-01  0.7757287E-11  0.0000000E+00 -0.4094717E-04
  0.5303030E+00  0.0000000E+00  0.1515152E-01  0.3308210E-11  0.0000000E+00 -0.4094717E-04
  0.5404040E+00  0.0000000E+00  0.1515152E-01 -0.1149137E-11  0.0000000E+00 -0.4094717E-04
  0.5505050E+00  0.0000000E+00  0.1515152E-01 -0.5589690E-11  0.0000000E+00 -0.4094717E-04
  0.5606061E+00  0.0000000E+00  0.1515152E-01 -0.9986172E-11  0.0000000E+00 -0.4094717E-04
  0.5707071E+00  0.0000000E+00  0.1515152E-01 -0.1431513E-10  0.0000000E+00 -0.4094718E-04
  0.5808081E+00  0.0000000E+00  0.1515152E-01 -0.1855467E-10  0.0000000E+00 -0.4094719E-04
  0.5909091E+00  0.0000000E+00  0.1515152E-01 -0.2267397E-10  0.0000000E+00 -0.4094721E-04
  0.6010101E+00  0.0000000E+00  0.1515152E-01 -0.2665781E-10  0.0000000E+00 -0.4094723E-04
  0.6111111E+00  0.0000000E+00  0.1515152E-01 -0.3048411E-10  0.0000000E+00 -0.4094724E-04
  0.6212121E+00  0.0000000E+00  0.1515152E-01 -0.3413046E-10  0.0000000E+00 -0.4094727E-04
  0.6313131E+00  0.0000000E+00  0.1515152E-01 -0.3757805E-10  0.0000000E+00 -0.4094729E-04
  0.6414142E+00  0.0000000E+00  0.1515152E-01 -0.4081026E-10  0.0000000E+00 -0.4094732E-04
  0.6515151E+00  0.0000000E+00  0.1515152E-01 -0.4381139E-10  0.0000000E+00 -0.4094735E-04
  0.6616161E+00  0.0000000E+00  0.1515152E-01 -0.4656663E-10  0.0000000E+00 -0.4094738E-04
  0.6717172E+00  0.0000000E+00  0.1515152E-01 -0.4906297E-10  0.0000000E+00 -0.4094741E-04
  0.6818182E+00  0.0000000E+00  0.1515152E-01 -0.5128971E-10  0.0000000E+00 -0.4094744E-04
  0.6919192E+00  0.0000000E+00  0.1515152E-01 -0.5323851E-10  0.0000000E+00 -0.4094748E-04
  0.7020202E+00  0.0000000E+00  0.1515152E-01 -0.5490327E-10  0.0000000E+00 -0.4094752E-04
  0.7121212E+00  0.0000000E+00  0.1515152E-01 -0.5627996E-10  0.0000000E+00 -0.4094755E-04
  0.7222222E+00  0.0000000E+00  0.1515152E-01 -0.5736639E-10  0.0000000E+00 -0.4094759E-04
  0.7323232E+00  0.0000000E+00  0.1515152E-01 -0.5816207E-10  0.0000000E+00 -0.4094763E-04
  0.7424242E+00  0.0000000E+00  0.1515152E-01 -0.5866816E-10  0.0000000E+00 -0.4094767E-04
  0.7525253E+00  0.0000000E+00  0.1515152E-01 -0.5888735E-10  0.0000000E+00 -0.4094771E-04
  0.7626263E+00  0.0000000E+00  0.1515152E-01 -0.5882374E-10  0.0000000E+00 -0.4094775E-04
  0.7727273E+00  0.0000000E+00  0.1515152E-01 -0.5848284E-10  0.0000000E+00 -0.4094779E-04
  0.7828283E+00  0.0000000E+00  0.1515152E-01 -0.5787138E-10  0.0000000E+00 -0.4094783E-04
  0.7929293E+00  0.0000000E+00  0.1515152E-01 -0.5699723E-10  0.0000000E+00 -0.4094787E-04
  0.8030303E+00  0.0000000E+00  0.1515152E-01 -0.5586925E-10  0.0000000E+00 -0.4094791E-04
  0.8131313E+00  0.0000000E+00  0.1515152E-01 -0.5449718E-10  0.0000000E+00 -0.4094795E-04
  0.8232324E+00  0.0000000E+00  0.1515152E-01 -0.5289150E-10  0.0000000E+00 -0.4094798E-04
  0.8333333E+00  0.0000000E+00  0.1515152E-01 -0.5106332E-10  0.0000000E+00 -0.4094802E-04
  0.8434343E+00  0.0000000E+00  0.1515152E-01 -0.4902428E-10  0.0000000E+00 -0.4094805E-04
  0.8535354E+00  0.0000000E+00  0.1515152E-01 -0.4678645E-10  0.0000000E+00 -0.4094808E-04
  0.8636364E+00  0.0000000E+00  0.1515152E-01 -0.4436226E-10  0.0000000E+00 -0.4094811E-04
  0.8737374E+00  0.0000000E+00  0.1515152E-01 -0.4176448E-10  0.0000000E+00 -0.4094814E-04
  0.8838384E+00  0.0000000E+00  0.1515152E-01 -0.3900612E-10  0.0000000E+00 -0.4094817E-04
  0.8939394E+00  0.0000000E+00  0.1515152E-01 -0.3610040E-10  0.0000000E+00 -0.4094820E-04
  0.9040404E+00  0.0000000E+00  0.1515152E-01 -0.3306068E-10  0.0000000E+00 -0.4094822E-04
  0.9141414E+00  0.0000000E+00  0.1515152E-01 -0.2990038E-10  0.0000000E+00 -0.4094824E-04
  0.9242424E+00  0.0000000E+00  0.1515152E-01 -0.2663281E-10  0.0000000E+00 -0.4094826E-04
  0.9343435E+00  0.0000000E+00  0.1515152E-01 -0.2327110E-10  0.0000000E+00 -0.4094828E-04
  0.9444444E+00  0.0000000E+00  0.1515152E-01 -0.1982809E-10  0.0000000E+00 -0.4094829E-04
  0.9545454E+00  0.0000000E+00  0.1515152E-01 -0.1631630E-10  0.0000000E+00 -0.4094831E-04
  0.9646465E+00  0.0000000E+00  0.1515152E-01 -0.1274797E-10  0.0000000E+00 -0.4094831E-04
  0.9747475E+00  0.0000000E+00  0.1515152E-01 -0.9135094E-11  0.0000000E+00 -0.4094832E-04
  0.9848485E+00  0.0000000E+00  0.1515152E-01 -0.5489442E-11  0.0000000E+00 -0.4094833E-04
  0.9974747E+00  0.0000000E+00  0.1515152E-01 -0.1822371E-11  0.0000000E+00 -0.4094833E-04
  0.5050505E-02  0.0000000E+00  0.2525252E-01  0.2587163E-11  0.0000000E+00 -0.4064733E-04
  0.1515152E-01  0.0000000E+00  0.2525252E-01  0.7733271E-11  0.0000000E+00 -0.4064733E-04
  0.2525252E-01  0.0000000E+00  0.2525252E-01  0.1286080E-10  0.0000000E+00 -0.4064733E-04
  0.3535353E-01  0.0000000E+00  0.2525252E-01  0.1797697E-10  0.0000000E+00 -0.4064732E-04
  0.4545455E-01  0.0000000E+00  0.2525252E-01  0.2307707E-10  0.0000000E+00 -0.4064731E-04
  0.5555556E-01  0.0000000E+00  0.2525252E-01  0.2813900E-10  0.0000000E+00 -0.4064730E-04
  0.6565657E-01  0.0000000E+00  0.2525252E-01  0.3316856E-10  0.0000000E+00 -0.4064729E-04
  0.7575758E-01  0.0000000E+00  0.2525252E-01  0.3815814E-10  0.0000000E+00 -0.4064727E-04
  0.8585858E-01  0.0000000E+00  0.2525252E-01  0.4309534E-10  0.0000000E+00 -0.4064726E-04
  0.9595960E-01  0.0000000E+00  0.2525252E-01  0.4796998E-10  0.0000000E+00 -0.4064724E-04
  0.1060606E+00  0.0000000E+00  0.2525252E-01  0.5277224E-10  0.0000000E+00 -0.4064722E-04
  0.1161616E+00  0.0000000E+00  0.2525252E-01  0.5749022E-10  0.0000000E+00 -0.4064719E-04
  0.1262626E+00  0.0000000E+00  0.2525252E-01  0.6210966E-10  0.0000000E+00 -0.4064717E-04
  0.1363636E+00  0.0000000E+00  0.2525252E-01  0.6661510E-10  0.0000000E+00 -0.4064714E-04
  0.1464646E+00  0.0000000E+00  0.2525252E-01  0.7099070E-10  0.0000000E+00 -0.4064711E-04
  0.1565657E+00  0.0000000E+00  0.2525252E-01  0.7522051E-10  0.0000000E+00 -0.4064708E-04
  0.1666667E+00  0.0000000E+00  0.2525252E-01  0.7928833E-10  0.0000000E+00 -0.4064705E-04
  0.1767677E+00  0.0000000E+00  0.2525252E-01  0.8317745E-10  0.0000000E+00 -0.4064702E-04
  0.1868687E+00  0.0000000E+00  0.2525252E-01  0.8687043E-10  0.0000000E+00 -0.4064698E-04
  0.1969697E+00  0.0000000E+00  0.2525252E-01  0.9034913E-10  0.0000000E+00 -0.4064695E-04
  0.2070707E+00  0.0000000E+00  0.2525252E-01  0.9359482E-10  0.0000000E+00 -0.4064691E-04
  0.2171717E+00  0.0000000E+00  0.2525252E-01  0.9658822E-10  0.0000000E+00 -0.4064687E-04
  0.2272727E+00  0.0000000E+00  0.2525252E-01  0.9930980E-10  0.0000000E+00 -0.4064683E-04
  0.2373737E+00  0.0000000E+00  0.2525252E-01  0.1017399E-09  0.0000000E+00 -0.4064678E-04
  0.2474747E+00  0.0000000E+00  0.2525252E-01  0.1038592E-09  0.0000000E+00 -0.4064674E-04
  0.2575758E+00  0.0000000E+00  0.2525252E-01  0.1056484E-09  0.0000000E+00 -0.4064670E-04
  0.2676768E+00  0.0000000E+00  0.2525252E-01  0.1070893E-09  0.0000000E+00 -0.4064665E-04
  0.2777778E+00  0.0000000E+00  0.2525252E-01  0.1081641E-09  0.0000000E+00 -0.4064661E-04
  0.2878788E+00  0.0000000E+00  0.2525252E-01  0.1088562E-09  0.0000000E+00 -0.4064656E-04
  0.2979798E+00  0.0000000E+00  0.2525252E-01  0.1091505E-09  0.0000000E+00 -0.4064652E-04
  0.3080808E+00  0.0000000E+00  0.2525252E-01  0.1090332E-09  0.0000000E+00 -0.4064647E-04
  0.3181818E+00  0.0000000E+00  0.2525252E-01  0.1084923E-09  0.0000000E+00 -0.4064643E-04
  0.3282828E+00  0.0000000E+00  0.2525252E-01  0.1075180E-09  0.0000000E+00 -0.4064638E-04
  0.3383838E+00  0.0000000E+00  0.2525252E-01  0.1061023E-09  0.0000000E+00 -0.4064634E-04
  0.3484848E+00  0.0000000E+00  0.2525252E-01  0.1042398E-09  0.0000000E+00 -0.4064629E-04
  0.3585859E+00  0.0000000E+00  0.2525252E-01  0.1019279E-09  0.0000000E+00 -0.4064625E-04
  0.3686869E+00  0.0000000E+00  0.2525252E-01  0.9916615E-10  0.0000000E+00 -0.4064621E-04
  0.3787879E+00  0.0000000E+00  0.2525252E-01  0.9595749E-10  0.0000000E+00 -0.4064617E-04
  0.3888889E+00  0.0000000E+00  0.2525252E-01  0.9230766E-10  0.0000000E+00 -0.4064613E-04
  0.3989899E+00  0.0000000E+00  0.2525252E-01  0.8822557E-10  0.0000000E+00 -0.4064609E-04
  0.4090909E+00  0.0000000E+00  0.2525252E-01  0.8372339E-10  0.0000000E+00 -0.4064605E-04
  0.4191919E+00  0.0000000E+00  0.2525252E-01  0.7881660E-10  0.0000000E+00 -0.4064602E-04
  0.4292929E+00  0.0000000E+00  0.2525252E-01  0.7352400E-10  0.0000000E+00 -0.4064599E-04
  0.4393939E+00  0.0000000E+00  0.2525252E-01  0.6786766E-10  0.0000000E+00 -0.4064596E-04
  0.4494950E+00  0.0000000E+00  0.2525252E-01  0.6187273E-10  0.0000000E+00 -0.4064593E-04
  0.4595959E+00  0.0000000E+00  0.2525252E-01  0.5556728E-10  0.0000000E+00 -0.4064591E-04
  0.4696970E+00  0.0000000E+00  0.2525252E-01  0.4898195E-10  0.0000000E+00 -0.4064588E-04
  0.4797980E+00  0.0000000E+00  0.2525252E-01  0.4214966E-10  0.0000000E+00 -0.4064586E-04
  0.4898990E+00  0.0000000E+00  0.2525252E-01  0.3510542E-10  0.0000000E+00 -0.4064585E-04
  0.5000000E+00  0.0000000E+00  0.2525252E-01  0.2788610E-10  0.0000000E+00 -0.4064583E-04
  0.5101010E+00  0.0000000E+00  0.2525252E-01  0.2053006E-10  0.0000000E+00 -0.4064582E-04
  0.5202020E+00  0.0000000E+00  0.2525252E-01  0.1307663E-10  0.0000000E+00 -0.4064582E-04
  0.5303030E+00  0.0000000E+00  0.2525252E-01  0.5567454E-11  0.0000000E+00 -0.4064581E-04
  0.5404040E+00  0.0000000E+00  0.2525252E-01 -0.1955845E-11  0.0000000E+00 -0.4064581E-04
  0.5505050E+00  0.0000000E+00  0.2525252E-01 -0.9450713E-11  0.0000000E+00 -0.4064582E-04
  0.5606061E+00  0.0000000E+00  0.2525252E-01 -0.1687113E-10  0.0000000E+00 -0.4064582E-04
  0.5707071E+00  0.0000000E+00  0.2525252E-01 -0.2417684E-10  0.0000000E+00 -0.4064583E-04
  0.5808081E+00  0.0000000E+00  0.2525252E-01 -0.3133188E-10  0.0000000E+00 -0.4064584E-04
  0.5909091E+00  0.0000000E+00  0.2525252E-01 -0.3828453E-10  0.0000000E+00 -0.4064586E-04
  0.6010101E+00  0.0000000E+00  0.2525252E-01 -0.4500672E-10  0.0000000E+00 -0.4064587E-04
  0.6111111E+00  0.0000000E+00  0.2525252E-01 -0.5146221E-10  0.0000000E+00 -0.4064589E-04
  0.6212121E+00  0.0000000E+00  0.2525252E-01 -0.5761406E-10  0.0000000E+00 -0.4064592E-04
  0.6313131E+00  0.0000000E+00  0.2525252E-01 -0.6343029E-10  0.0000000E+00 -0.4064594E-04
  0.6414142E+00  0.0000000E+00  0.2525252E-01 -0.6888242E-10  0.0000000E+00 -0.4064597E-04
  0.6515151E+00  0.0000000E+00  0.2525252E-01 -0.7394378E-10  0.0000000E+00 -0.4064600E-04
  0.6616161E+00  0.0000000E+00  0.2525252E-01 -0.7858956E-10  0.0000000E+00 -0.4064603E-04
  0.6717172E+00  0.0000000E+00  0.2525252E-01 -0.8279801E-10  0.0000000E+00 -0.4064607E-04
  0.6818182E+00  0.0000000E+00  0.2525252E-01 -0.8655116E-10  0.0000000E+00 -0.4064610E-04
  0.6919192E+00  0.0000000E+00  0.2525252E-01 -0.8983498E-10  0.0000000E+00 -0.4064614E-04
  0.7020202E+00  0.0000000E+00  0.2525252E-01 -0.9263923E-10  0.0000000E+00 -0.4064618E-04
  0.7121212E+00  0.0000000E+00  0.2525252E-01 -0.9495712E-10  0.0000000E+00 -0.4064622E-04
  0.7222222E+00  0.0000000E+00  0.2525252E-01 -0.9678500E-10  0.0000000E+00 -0.4064626E-04
  0.7323232E+00  0.0000000E+00  0.2525252E-01 -0.9812213E-10  0.0000000E+00 -0.4064630E-04
  0.7424242E+00  0.0000000E+00  0.2525252E-01 -0.9897053E-10  0.0000000E+00 -0.4064634E-04
  0.7525253E+00  0.0000000E+00  0.2525252E-01 -0.9933482E-10  0.0000000E+00 -0.4064638E-04
  0.7626263E+00  0.0000000E+00  0.2525252E-01 -0.9922205E-10  0.0000000E+00 -0.4064642E-04
  0.7727273E+00  0.0000000E+00  0.2525252E-01 -0.9864160E-10  0.0000000E+00 -0.4064646E-04
  0.7828283E+00  0.0000000E+00  0.2525252E-01 -0.9760492E-10  0.0000000E+00 -0.4064650E-04
  0.7929293E+00  0.0000000E+00  0.2525252E-01 -0.9612536E-10  0.0000000E+00 -0.4064654E-04
  0.8030303E+00  0.0000000E+00  0.2525252E-01 -0.9421797E-10  0.0000000E+00 -0.4064658E-04
  0.8131313E+00  0.0000000E+00  0.2525252E-01 -0.9189926E-10  0.0000000E+00 -0.4064662E-04
  0.8232324E+00  0.0000000E+00  0.2525252E-01 -0.8918697E-10  0.0000000E+00 -0.4064666E-04
  0.8333333E+00  0.0000000E+00  0.2525252E-01 -0.8609989E-10  0.0000000E+00 -0.4064670E-04
  0.8434343E+00  0.0000000E+00  0.2525252E-01 -0.8265773E-10  0.0000000E+00 -0.4064673E-04
  0.8535354E+00  0.0000000E+00  0.2525252E-01 -0.7888087E-10  0.0000000E+00 -0.4064677E-04
  0.8636364E+00  0.0000000E+00  0.2525252E-01 -0.7479032E-10  0.0000000E+00 -0.4064680E-04
  0.8737374E+00  0.0000000E+00  0.2525252E-01 -0.7040764E-10  0.0000000E+00 -0.4064683E-04
  0.8838384E+00  0.0000000E+00  0.2525252E-01 -0.6575483E-10  0.0000000E+00 -0.4064686E-04
  0.8939394E+00  0.0000000E+00  0.2525252E-01 -0.6085420E-10  0.0000000E+00 -0.4064688E-04
  0.9040404E+00  0.0000000E+00  0.2525252E-01 -0.5572831E-10  0.0000000E+00 -0.4064691E-04
  0.9141414E+00  0.0000000E+00  0.2525252E-01 -0.5039977E-10  0.0000000E+00 -0.4064693E-04
  0.9242424E+00  0.0000000E+00  0.2525252E-01 -0.4489101E-10  0.0000000E+00 -0.4064695E-04
  0.9343435E+00  0.0000000E+00  0.2525252E-01 -0.3922409E-10  0.0000000E+00 -0.4064697E-04
  0.9444444E+00  0.0000000E+00  0.2525252E-01 -0.3342058E-10  0.0000000E+00 -0.4064698E-04
  0.9545454E+00  0.0000000E+00  0.2525252E-01 -0.2750151E-10  0.0000000E+00 -0.4064700E-04
  0.9646465E+00  0.0000000E+00  0.2525252E-01 -0.2148753E-10  0.0000000E+00 -0.4064701E-04
  0.9747475E+00  0.0000000E+00  0.2525252E-01 -0.1539899E-10  0.0000000E+00 -0.4064701E-04
  0.9848485E+00  0.0000000E+00  0.2525252E-01 -0.9255948E-11  0.0000000E+00 -0.4064702E-04
  0.9974747E+00  0.0000000E+00  0.2525252E-01 -0.3079186E-11  0.0000000E+00 -0.4064702E-04
  0.5050505E-02  0.0000000E+00  0.3535353E-01  0.3672667E-11  0.0000000E+00 -0.4019919E-04
  0.1515152E-01  0.0000000E+00  0.3535353E-01  0.1099110E-10  0.0000000E+00 -0.4019918E-04
  0.2525252E-01  0.0000000E+00  0.3535353E-01  0.1828572E-10  0.0000000E+00 -0.4019918E-04
  0.3535353E-01  0.0000000E+00  0.3535353E-01  0.2556251E-10  0.0000000E+00 -0.4019917E-04
  0.4545455E-01  0.0000000E+00  0.3535353E-01  0.3281582E-10  0.0000000E+00 -0.4019916E-04
  0.5555556E-01  0.0000000E+00  0.3535353E-01  0.4001660E-10  0.0000000E+00 -0.4019915E-04
  0.6565657E-01  0.0000000E+00  0.3535353E-01  0.4717061E-10  0.0000000E+00 -0.4019914E-04
  0.7575758E-01  0.0000000E+00  0.3535353E-01  0.5426803E-10  0.0000000E+00 -0.4019912E-04
  0.8585858E-01  0.0000000E+00  0.3535353E-01  0.6129229E-10  0.0000000E+00 -0.4019910E-04
  0.9595960E-01  0.0000000E+00  0.3535353E-01  0.6822889E-10  0.0000000E+00 -0.4019908E-04
  0.1060606E+00  0.0000000E+00  0.3535353E-01  0.7506355E-10  0.0000000E+00 -0.4019906E-04
  0.1161616E+00  0.0000000E+00  0.3535353E-01  0.8177928E-10  0.0000000E+00 -0.4019904E-04
  0.1262626E+00  0.0000000E+00  0.3535353E-01  0.8835602E-10  0.0000000E+00 -0.4019901E-04
  0.1363636E+00  0.0000000E+00  0.3535353E-01  0.9477202E-10  0.0000000E+00 -0.4019898E-04
  0.1464646E+00  0.0000000E+00  0.3535353E-01  0.1010049E-09  0.0000000E+00 -0.4019895E-04
  0.1565657E+00  0.0000000E+00  0.3535353E-01  0.1070319E-09  0.0000000E+00 -0.4019892E-04
  0.1666667E+00  0.0000000E+00  0.3535353E-01  0.1128301E-09  0.0000000E+00 -0.4019889E-04
  0.1767677E+00  0.0000000E+00  0.3535353E-01  0.1183754E-09  0.0000000E+00 -0.4019885E-04
  0.1868687E+00  0.0000000E+00  0.3535353E-01  0.1236429E-09  0.0000000E+00 -0.4019882E-04
  0.1969697E+00  0.0000000E+00  0.3535353E-01  0.1286069E-09  0.0000000E+00 -0.4019878E-04
  0.2070707E+00  0.0000000E+00  0.3535353E-01  0.1332404E-09  0.0000000E+00 -0.4019874E-04
  0.2171717E+00  0.0000000E+00  0.3535353E-01  0.1375159E-09  0.0000000E+00 -0.4019869E-04
  0.2272727E+00  0.0000000E+00  0.3535353E-01  0.1414056E-09  0.0000000E+00 -0.4019865E-04
  0.2373737E+00  0.0000000E+00  0.3535353E-01  0.1448812E-09  0.0000000E+00 -0.4019861E-04
  0.2474747E+00  0.0000000E+00  0.3535353E-01  0.1479149E-09  0.0000000E+00 -0.4019856E-04
  0.2575758E+00  0.0000000E+00  0.3535353E-01  0.1504793E-09  0.0000000E+00 -0.4019852E-04
  0.2676768E+00  0.0000000E+00  0.3535353E-01  0.1525480E-09  0.0000000E+00 -0.4019847E-04
  0.2777778E+00  0.0000000E+00  0.3535353E-01  0.1540955E-09  0.0000000E+00 -0.4019842E-04
  0.2878788E+00  0.0000000E+00  0.3535353E-01  0.1550981E-09  0.0000000E+00 -0.4019837E-04
  0.2979798E+00  0.0000000E+00  0.3535353E-01  0.1555338E-09  0.0000000E+00 -0.4019832E-04