title = "dataset water"
variables = "x", "y", "z", "vx", "vy", "vz"
zone t = "velocities, solution time =  2.200E+01 days        " i =   99, j =   99, k =    1,  f=point
  0.5050505E-02  0.0000000E+00  0.5050505E-02  0.2393295E-09  0.0000000E+00 -0.1537133E-04
  0.1515152E-01  0.0000000E+00  0.5050505E-02  0.7181334E-09  0.0000000E+00 -0.1537037E-04
  0.2525252E-01  0.0000000E+00  0.5050505E-02  0.1197355E-08  0.0000000E+00 -0.1536846E-04
  0.3535353E-01  0.0000000E+00  0.5050505E-02  0.1677258E-08  0.0000000E+00 -0.1536558E-04
  0.4545455E-01  0.0000000E+00  0.5050505E-02  0.2158078E-08  0.0000000E+00 -0.1536173E-04
  0.5555556E-01  0.0000000E+00  0.5050505E-02  0.2640021E-08  0.0000000E+00 -0.1535693E-04
  0.6565657E-01  0.0000000E+00  0.5050505E-02  0.3123247E-08  0.0000000E+00 -0.1535115E-04
  0.7575758E-01  0.0000000E+00  0.5050505E-02  0.3607861E-08  0.0000000E+00 -0.1534441E-04
  0.8585858E-01  0.0000000E+00  0.5050505E-02  0.4093903E-08  0.0000000E+00 -0.1533669E-04
  0.9595960E-01  0.0000000E+00  0.5050505E-02  0.4581338E-08  0.0000000E+00 -0.1532800E-04
  0.1060606E+00  0.0000000E+00  0.5050505E-02  0.5070045E-08  0.0000000E+00 -0.1531833E-04
  0.1161616E+00  0.0000000E+00  0.5050505E-02  0.5559802E-08  0.0000000E+00 -0.1530768E-04
  0.1262626E+00  0.0000000E+00  0.5050505E-02  0.6050282E-08  0.0000000E+00 -0.1529605E-04
  0.1363636E+00  0.0000000E+00  0.5050505E-02  0.6541031E-08  0.0000000E+00 -0.1528343E-04
  0.1464646E+00  0.0000000E+00  0.5050505E-02  0.7031465E-08  0.0000000E+00 -0.1526984E-04
  0.1565657E+00  0.0000000E+00  0.5050505E-02  0.7520853E-08  0.0000000E+00 -0.1525526E-04
  0.1666667E+00  0.0000000E+00  0.5050505E-02  0.8008302E-08  0.0000000E+00 -0.1523970E-04
  0.1767677E+00  0.0000000E+00  0.5050505E-02  0.8492751E-08  0.0000000E+00 -0.1522317E-04
  0.1868687E+00  0.0000000E+00  0.5050505E-02  0.8972950E-08  0.0000000E+00 -0.1520567E-04
  0.1969697E+00  0.0000000E+00  0.5050505E-02  0.9447455E-08  0.0000000E+00 -0.1518721E-04
  0.2070707E+00  0.0000000E+00  0.5050505E-02  0.9914609E-08  0.0000000E+00 -0.1516782E-04
  0.2171717E+00  0.0000000E+00  0.5050505E-02  0.1037253E-07  0.0000000E+00 -0.1514749E-04
  0.2272727E+00  0.0000000E+00  0.5050505E-02  0.1081912E-07  0.0000000E+00 -0.1512626E-04
  0.2373737E+00  0.0000000E+00  0.5050505E-02  0.1125202E-07  0.0000000E+00 -0.1510415E-04
  0.2474747E+00  0.0000000E+00  0.5050505E-02  0.1166862E-07  0.0000000E+00 -0.1508118E-04
  0.2575758E+00  0.0000000E+00  0.5050505E-02  0.1206606E-07  0.0000000E+00 -0.1505741E-04
  0.2676768E+00  0.0000000E+00  0.5050505E-02  0.1244124E-07  0.0000000E+00 -0.1503285E-04
  0.2777778E+00  0.0000000E+00  0.5050505E-02  0.1279076E-07  0.0000000E+00 -0.1500758E-04
  0.2878788E+00  0.0000000E+00  0.5050505E-02  0.1311101E-07  0.0000000E+00 -0.1498163E-04
  0.2979798E+00  0.0000000E+00  0.5050505E-02  0.1339812E-07  0.0000000E+00 -0.1495507E-04
  0.3080808E+00  0.0000000E+00  0.5050505E-02  0.1364798E-07  0.0000000E+00 -0.1492797E-04
  0.3181818E+00  0.0000000E+00  0.5050505E-02  0.1385630E-07  0.0000000E+00 -0.1490042E-04
  0.3282828E+00  0.0000000E+00  0.5050505E-02  0.1401864E-07  0.0000000E+00 -0.1487249E-04
  0.3383838E+00  0.0000000E+00  0.5050505E-02  0.1413039E-07  0.0000000E+00 -0.1484429E-04
  0.3484848E+00  0.0000000E+00  0.5050505E-02  0.1418692E-07  0.0000000E+00 -0.1481592E-04
  0.3585859E+00  0.0000000E+00  0.5050505E-02  0.1418357E-07  0.0000000E+00 -0.1478750E-04
  0.3686869E+00  0.0000000E+00  0.5050505E-02  0.1411576E-07  0.0000000E+00 -0.1475915E-04
  0.3787879E+00  0.0000000E+00  0.5050505E-02  0.1397909E-07  0.0000000E+00 -0.1473100E-04
  0.3888889E+00  0.0000000E+00  0.5050505E-02  0.1376942E-07  0.0000000E+00 -0.1470321E-04
  0.3989899E+00  0.0000000E+00  0.5050505E-02  0.1348301E-07  0.0000000E+00 -0.1467590E-04
  0.4090909E+00  0.0000000E+00  0.5050505E-02  0.1311661E-07  0.0000000E+00 -0.1464926E-04
  0.4191919E+00  0.0000000E+00  0.5050505E-02  0.1266764E-07  0.0000000E+00 -0.1462343E-04
  0.4292929E+00  0.0000000E+00  0.5050505E-02  0.1213430E-07  0.0000000E+00 -0.1459858E-04
  0.4393939E+00  0.0000000E+00  0.5050505E-02  0.1151571E-07  0.0000000E+00 -0.1457489E-04
  0.4494950E+00  0.0000000E+00  0.5050505E-02  0.1081202E-07  0.0000000E+00 -0.1455252E-04
  0.4595959E+00  0.0000000E+00  0.5050505E-02  0.1002458E-07  0.0000000E+00 -0.1453165E-04
  0.4696970E+00  0.0000000E+00  0.5050505E-02  0.9155992E-08  0.0000000E+00 -0.1451243E-04
  0.4797980E+00  0.0000000E+00  0.5050505E-02  0.8210192E-08  0.0000000E+00 -0.1449503E-04
  0.4898990E+00  0.0000000E+00  0.5050505E-02  0.7192504E-08  0.0000000E+00 -0.1447960E-04
  0.5000000E+00  0.0000000E+00  0.5050505E-02  0.6109624E-08  0.0000000E+00 -0.1446628E-04
  0.5101010E+00  0.0000000E+00  0.5050505E-02  0.4969579E-08  0.0000000E+00 -0.1445518E-04
  0.5202020E+00  0.0000000E+00  0.5050505E-02  0.3781639E-08  0.0000000E+00 -0.1444641E-04
  0.5303030E+00  0.0000000E+00  0.5050505E-02  0.2556174E-08  0.0000000E+00 -0.1444006E-04
  0.5404040E+00  0.0000000E+00  0.5050505E-02  0.1304473E-08  0.0000000E+00 -0.1443620E-04
  0.5505050E+00  0.0000000E+00  0.5050505E-02  0.3852307E-10  0.0000000E+00 -0.1443485E-04
  0.5606061E+00  0.0000000E+00  0.5050505E-02 -0.1229247E-08  0.0000000E+00 -0.1443604E-04
  0.5707071E+00  0.0000000E+00  0.5050505E-02 -0.2486237E-08  0.0000000E+00 -0.1443977E-04
  0.5808081E+00  0.0000000E+00  0.5050505E-02 -0.3719964E-08  0.0000000E+00 -0.1444598E-04
  0.5909091E+00  0.0000000E+00  0.5050505E-02 -0.4918338E-08  0.0000000E+00 -0.1445464E-04
  0.6010101E+00  0.0000000E+00  0.5050505E-02 -0.6069930E-08  0.0000000E+00 -0.1446565E-04
  0.6111111E+00  0.0000000E+00  0.5050505E-02 -0.7164207E-08  0.0000000E+00 -0.1447890E-04
  0.6212121E+00  0.0000000E+00  0.5050505E-02 -0.8191739E-08  0.0000000E+00 -0.1449429E-04
  0.6313131E+00  0.0000000E+00  0.5050505E-02 -0.9144354E-08  0.0000000E+00 -0.1451165E-04
  0.6414142E+00  0.0000000E+00  0.5050505E-02 -0.1001525E-07  0.0000000E+00 -0.1453085E-04
  0.6515151E+00  0.0000000E+00  0.5050505E-02 -0.1079907E-07  0.0000000E+00 -0.1455170E-04
  0.6616161E+00  0.0000000E+00  0.5050505E-02 -0.1149189E-07  0.0000000E+00 -0.1457403E-04
  0.6717172E+00  0.0000000E+00  0.5050505E-02 -0.1209124E-07  0.0000000E+00 -0.1459765E-04
  0.6818182E+00  0.0000000E+00  0.5050505E-02 -0.1259599E-07  0.0000000E+00 -0.1462239E-04
  0.6919192E+00  0.0000000E+00  0.5050505E-02 -0.1300629E-07  0.0000000E+00 -0.1464803E-04
  0.7020202E+00  0.0000000E+00  0.5050505E-02 -0.1332342E-07  0.0000000E+00 -0.1467441E-04
  0.7121212E+00  0.0000000E+00  0.5050505E-02 -0.1354969E-07  0.0000000E+00 -0.1470133E-04
  0.7222222E+00  0.0000000E+00  0.5050505E-02 -0.1368823E-07  0.0000000E+00 -0.1472862E-04
  0.7323232E+00  0.0000000E+00  0.5050505E-02 -0.1374292E-07  0.0000000E+00 -0.1475610E-04
  0.7424242E+00  0.0000000E+00  0.5050505E-02 -0.1371816E-07  0.0000000E+00 -0.1478361E-04
  0.7525253E+00  0.0000000E+00  0.5050505E-02 -0.1361879E-07  0.0000000E+00 -0.1481100E-04
  0.7626263E+00  0.0000000E+00  0.5050505E-02 -0.1344990E-07  0.0000000E+00 -0.1483812E-04
  0.7727273E+00  0.0000000E+00  0.5050505E-02 -0.1321675E-07  0.0000000E+00 -0.1486483E-04
  0.7828283E+00  0.0000000E+00  0.5050505E-02 -0.1292465E-07  0.0000000E+00 -0.1489102E-04
  0.7929293E+00  0.0000000E+00  0.5050505E-02 -0.1257886E-07  0.0000000E+00 -0.1491657E-04
  0.8030303E+00  0.0000000E+00  0.5050505E-02 -0.1218452E-07  0.0000000E+00 -0.1494138E-04
  0.8131313E+00  0.0000000E+00  0.5050505E-02 -0.1174659E-07  0.0000000E+00 -0.1496535E-04
  0.8232324E+00  0.0000000E+00  0.5050505E-02 -0.1126977E-07  0.0000000E+00 -0.1498841E-04
  0.8333333E+00  0.0000000E+00  0.5050505E-02 -0.1075851E-07  0.0000000E+00 -0.1501048E-04
  0.8434343E+00  0.0000000E+00  0.5050505E-02 -0.1021695E-07  0.0000000E+00 -0.1503149E-04
  0.8535354E+00  0.0000000E+00  0.5050505E-02 -0.9648920E-08  0.0000000E+00 -0.1505140E-04
  0.8636364E+00  0.0000000E+00  0.5050505E-02 -0.9057914E-08  0.0000000E+00 -0.1507014E-04
  0.8737374E+00  0.0000000E+00  0.5050505E-02 -0.8447114E-08  0.0000000E+00 -0.1508768E-04
  0.8838384E+00  0.0000000E+00  0.5050505E-02 -0.7819381E-08  0.0000000E+00 -0.1510397E-04
  0.8939394E+00  0.0000000E+00  0.5050505E-02 -0.7177275E-08  0.0000000E+00 -0.1511900E-04
  0.9040404E+00  0.0000000E+00  0.5050505E-02 -0.6523062E-08  0.0000000E+00 -0.1513272E-04
  0.9141414E+00  0.0000000E+00  0.5050505E-02 -0.5858741E-08  0.0000000E+00 -0.1514513E-04
  0.9242424E+00  0.0000000E+00  0.5050505E-02 -0.5186061E-08  0.0000000E+00 -0.1515619E-04
  0.9343435E+00  0.0000000E+00  0.5050505E-02 -0.4506545E-08  0.0000000E+00 -0.1516590E-04
  0.9444444E+00  0.0000000E+00  0.5050505E-02 -0.3821515E-08  0.0000000E+00 -0.1517425E-04
  0.9545454E+00  0.0000000E+00  0.5050505E-02 -0.3132119E-08  0.0000000E+00 -0.1518121E-04
  0.9646465E+00  0.0000000E+00  0.5050505E-02 -0.2439353E-08  0.0000000E+00 -0.1518680E-04
  0.9747475E+00  0.0000000E+00  0.5050505E-02 -0.1744095E-08  0.0000000E+00 -0.1519099E-04
  0.9848485E+00  0.0000000E+00  0.5050505E-02 -0.1047124E-08  0.0000000E+00 -0.1519378E-04
  0.9974747E+00  0.0000000E+00  0.5050505E-02 -0.3491535E-09  0.0000000E+00 -0.1519518E-04
  0.5050505E-02  0.0000000E+00  0.1515152E-01  0.7192059E-09  0.0000000E+00 -0.1534164E-04
  0.1515152E-01  0.0000000E+00  0.1515152E-01  0.2158057E-08  0.0000000E+00 -0.1534067E-04
  0.2525252E-01  0.0000000E+00  0.1515152E-01  0.3598184E-08  0.0000000E+00 -0.1533874E-04
  0.3535353E-01  0.0000000E+00  0.1515152E-01  0.5040386E-08  0.0000000E+00 -0.1533583E-04
  0.4545455E-01  0.0000000E+00  0.1515152E-01  0.6485393E-08  0.0000000E+00 -0.1533196E-04
  0.5555556E-01  0.0000000E+00  0.1515152E-01  0.7933832E-08  0.0000000E+00 -0.1532711E-04
  0.6565657E-01  0.0000000E+00  0.1515152E-01  0.9386195E-08  0.0000000E+00 -0.1532129E-04
  0.7575758E-01  0.0000000E+00  0.1515152E-01  0.1084281E-07  0.0000000E+00 -0.1531449E-04
  0.8585858E-01  0.0000000E+00  0.1515152E-01  0.1230382E-07  0.0000000E+00 -0.1530671E-04
  0.9595960E-01  0.0000000E+00  0.1515152E-01  0.1376913E-07  0.0000000E+00 -0.1529795E-04
  0.1060606E+00  0.0000000E+00  0.1515152E-01  0.1523838E-07  0.0000000E+00 -0.1528820E-04
  0.1161616E+00  0.0000000E+00  0.1515152E-01  0.1671094E-07  0.0000000E+00 -0.1527746E-04
  0.1262626E+00  0.0000000E+00  0.1515152E-01  0.1818582E-07  0.0000000E+00 -0.1526573E-04
  0.1363636E+00  0.0000000E+00  0.1515152E-01  0.1966168E-07  0.0000000E+00 -0.1525300E-04
  0.1464646E+00  0.0000000E+00  0.1515152E-01  0.2113679E-07  0.0000000E+00 -0.1523928E-04
  0.1565657E+00  0.0000000E+00  0.1515152E-01  0.2260895E-07  0.0000000E+00 -0.1522457E-04
  0.1666667E+00  0.0000000E+00  0.1515152E-01  0.2407551E-07  0.0000000E+00 -0.1520887E-04
  0.1767677E+00  0.0000000E+00  0.1515152E-01  0.2553328E-07  0.0000000E+00 -0.1519218E-04
  0.1868687E+00  0.0000000E+00  0.1515152E-01  0.2697854E-07  0.0000000E+00 -0.1517452E-04
  0.1969697E+00  0.0000000E+00  0.1515152E-01  0.2840695E-07  0.0000000E+00 -0.1515589E-04
  0.2070707E+00  0.0000000E+00  0.1515152E-01  0.2981354E-07  0.0000000E+00 -0.1513630E-04
  0.2171717E+00  0.0000000E+00  0.1515152E-01  0.3119270E-07  0.0000000E+00 -0.1511577E-04
  0.2272727E+00  0.0000000E+00  0.1515152E-01  0.3253808E-07  0.0000000E+00 -0.1509432E-04
  0.2373737E+00  0.0000000E+00  0.1515152E-01  0.3384262E-07  0.0000000E+00 -0.1507198E-04
  0.2474747E+00  0.0000000E+00  0.1515152E-01  0.3509851E-07  0.0000000E+00 -0.1504877E-04
  0.2575758E+00  0.0000000E+00  0.1515152E-01  0.3629714E-07  0.0000000E+00 -0.1502473E-04
  0.2676768E+00  0.0000000E+00  0.1515152E-01  0.3742915E-07  0.0000000E+00 -0.1499990E-04
  0.2777778E+00  0.0000000E+00  0.1515152E-01  0.3848438E-07  0.0000000E+00 -0.1497433E-04
  0.2878788E+00  0.0000000E+00  0.1515152E-01  0.3945191E-07  0.0000000E+00 -0.1494807E-04
  0.2979798E+00  0.0000000E+00  0.1515152E-01  0.4032008E-07  0.0000000E+00 -0.1492119E-04
  0.3080808E+00  0.0000000E+00  0.1515152E-01  0.4107654E-07  0.0000000E+00 -0.1489376E-04
  0.3181818E+00  0.0000000E+00  0.1515152E-01  0.4170836E-07  0.0000000E+00 -0.1486585E-04
  0.3282828E+00  0.0000000E+00  0.1515152E-01  0.4220206E-07  0.0000000E+00 -0.1483756E-04
  0.3383838E+00  0.0000000E+00  0.1515152E-01  0.4254381E-07  0.0000000E+00 -0.1480898E-04
  0.3484848E+00  0.0000000E+00  0.1515152E-01  0.4271954E-07  0.0000000E+00 -0.1478022E-04
  0.3585859E+00  0.0000000E+00  0.1515152E-01  0.4271516E-07  0.0000000E+00 -0.1475139E-04
  0.3686869E+00  0.0000000E+00  0.1515152E-01  0.4251682E-07  0.0000000E+00 -0.1472262E-04
  0.3787879E+00  0.0000000E+00  0.1515152E-01  0.4211113E-07  0.0000000E+00 -0.1469405E-04
  0.3888889E+00  0.0000000E+00  0.1515152E-01  0.4148553E-07  0.0000000E+00 -0.1466582E-04
  0.3989899E+00  0.0000000E+00  0.1515152E-01  0.4062859E-07  0.0000000E+00 -0.1463808E-04
  0.4090909E+00  0.0000000E+00  0.1515152E-01  0.3953044E-07  0.0000000E+00 -0.1461099E-04
  0.4191919E+00  0.0000000E+00  0.1515152E-01  0.3818312E-07  0.0000000E+00 -0.1458473E-04
  0.4292929E+00  0.0000000E+00  0.1515152E-01  0.3658107E-07  0.0000000E+00 -0.1455945E-04
  0.4393939E+00  0.0000000E+00  0.1515152E-01  0.3472146E-07  0.0000000E+00 -0.1453533E-04
  0.4494950E+00  0.0000000E+00  0.1515152E-01  0.3260467E-07  0.0000000E+00 -0.1451256E-04
  0.4595959E+00  0.0000000E+00  0.1515152E-01  0.3023460E-07  0.0000000E+00 -0.1449129E-04
  0.4696970E+00  0.0000000E+00  0.1515152E-01  0.2761898E-07  0.0000000E+00 -0.1447171E-04
  0.4797980E+00  0.0000000E+00  0.1515152E-01  0.2476964E-07  0.0000000E+00 -0.1445397E-04
  0.4898990E+00  0.0000000E+00  0.1515152E-01  0.2170255E-07  0.0000000E+00 -0.1443823E-04
  0.5000000E+00  0.0000000E+00  0.1515152E-01  0.1843792E-07  0.0000000E+00 -0.1442463E-04
  0.5101010E+00  0.0000000E+00  0.1515152E-01  0.1499997E-07  0.0000000E+00 -0.1441330E-04
  0.5202020E+00  0.0000000E+00  0.1515152E-01  0.1141674E-07  0.0000000E+00 -0.1440435E-04
  0.5303030E+00  0.0000000E+00  0.1515152E-01  0.7719608E-08  0.0000000E+00 -0.1439786E-04
  0.5404040E+00  0.0000000E+00  0.1515152E-01  0.3942771E-08  0.0000000E+00 -0.1439390E-04
  0.5505050E+00  0.0000000E+00  0.1515152E-01  0.1225527E-09  0.0000000E+00 -0.1439251E-04
  0.5606061E+00  0.0000000E+00  0.1515152E-01 -0.3703366E-08  0.0000000E+00 -0.1439372E-04
  0.5707071E+00  0.0000000E+00  0.1515152E-01 -0.7496785E-08  0.0000000E+00 -0.1439750E-04
  0.5808081E+00  0.0000000E+00  0.1515152E-01 -0.1121985E-07  0.0000000E+00 -0.1440384E-04
  0.5909091E+00  0.0000000E+00  0.1515152E-01 -0.1483592E-07  0.0000000E+00 -0.1441266E-04
  0.6010101E+00  0.0000000E+00  0.1515152E-01 -0.1831034E-07  0.0000000E+00 -0.1442388E-04
  0.6111111E+00  0.0000000E+00  0.1515152E-01 -0.2161124E-07  0.0000000E+00 -0.1443739E-04
  0.6212121E+00  0.0000000E+00  0.1515152E-01 -0.2471005E-07  0.0000000E+00 -0.1445308E-04
  0.6313131E+00  0.0000000E+00  0.1515152E-01 -0.2758209E-07  0.0000000E+00 -0.1447078E-04
  0.6414142E+00  0.0000000E+00  0.1515152E-01 -0.3020683E-07  0.0000000E+00 -0.1449034E-04
  0.6515151E+00  0.0000000E+00  0.1515152E-01 -0.3256812E-07  0.0000000E+00 -0.1451158E-04
  0.6616161E+00  0.0000000E+00  0.1515152E-01 -0.3465422E-07  0.0000000E+00 -0.1453433E-04
  0.6717172E+00  0.0000000E+00  0.1515152E-01 -0.3645773E-07  0.0000000E+00 -0.1455839E-04
  0.6818182E+00  0.0000000E+00  0.1515152E-01 -0.3797539E-07  0.0000000E+00 -0.1458356E-04
  0.6919192E+00  0.0000000E+00  0.1515152E-01 -0.3920776E-07  0.0000000E+00 -0.1460966E-04
  0.7020202E+00  0.0000000E+00  0.1515152E-01 -0.4015886E-07  0.0000000E+00 -0.1463649E-04
  0.7121212E+00  0.0000000E+00  0.1515152E-01 -0.4083576E-07  0.0000000E+00 -0.1466387E-04
  0.7222222E+00  0.0000000E+00  0.1515152E-01 -0.4124811E-07  0.0000000E+00 -0.1469160E-04
  0.7323232E+00  0.0000000E+00  0.1515152E-01 -0.4140768E-07  0.0000000E+00 -0.1471953E-04
  0.7424242E+00  0.0000000E+00  0.1515152E-01 -0.4132790E-07  0.0000000E+00 -0.1474747E-04
  0.7525253E+00  0.0000000E+00  0.1515152E-01 -0.4102342E-07  0.0000000E+00 -0.1477528E-04
  0.7626263E+00  0.0000000E+00  0.1515152E-01 -0.4050975E-07  0.0000000E+00 -0.1480280E-04
  0.7727273E+00  0.0000000E+00  0.1515152E-01 -0.3980281E-07  0.0000000E+00 -0.1482991E-04
  0.7828283E+00  0.0000000E+00  0.1515152E-01 -0.3891866E-07  0.0000000E+00 -0.1485647E-04
  0.7929293E+00  0.0000000E+00  0.1515152E-01 -0.3787322E-07  0.0000000E+00 -0.1488238E-04
  0.8030303E+00  0.0000000E+00  0.1515152E-01 -0.3668201E-07  0.0000000E+00 -0.1490752E-04
  0.8131313E+00  0.0000000E+00  0.1515152E-01 -0.3535998E-07  0.0000000E+00 -0.1493182E-04
  0.8232324E+00  0.0000000E+00  0.1515152E-01 -0.3392136E-07  0.0000000E+00 -0.1495518E-04
  0.8333333E+00  0.0000000E+00  0.1515152E-01 -0.3237953E-07  0.0000000E+00 -0.1497753E-04
  0.8434343E+00  0.0000000E+00  0.1515152E-01 -0.3074696E-07  0.0000000E+00 -0.1499880E-04
  0.8535354E+00  0.0000000E+00  0.1515152E-01 -0.2903516E-07  0.0000000E+00 -0.1501895E-04
  0.8636364E+00  0.0000000E+00  0.1515152E-01 -0.2725466E-07  0.0000000E+00 -0.1503791E-04
  0.8737374E+00  0.0000000E+00  0.1515152E-01 -0.2541502E-07  0.0000000E+00 -0.1505566E-04
  0.8838384E+00  0.0000000E+00  0.1515152E-01 -0.2352482E-07  0.0000000E+00 -0.1507214E-04
  0.8939394E+00  0.0000000E+00  0.1515152E-01 -0.2159175E-07  0.0000000E+00 -0.1508733E-04
  0.9040404E+00  0.0000000E+00  0.1515152E-01 -0.1962259E-07  0.0000000E+00 -0.1510121E-04
  0.9141414E+00  0.0000000E+00  0.1515152E-01 -0.1762334E-07  0.0000000E+00 -0.1511376E-04
  0.9242424E+00  0.0000000E+00  0.1515152E-01 -0.1559922E-07  0.0000000E+00 -0.1512494E-04
  0.9343435E+00  0.0000000E+00  0.1515152E-01 -0.1355479E-07  0.0000000E+00 -0.1513476E-04
  0.9444444E+00  0.0000000E+00  0.1515152E-01 -0.1149399E-07  0.0000000E+00 -0.1514319E-04
  0.9545454E+00  0.0000000E+00  0.1515152E-01 -0.9420238E-08  0.0000000E+00 -0.1515023E-04
  0.9646465E+00  0.0000000E+00  0.1515152E-01 -0.7336504E-08  0.0000000E+00 -0.1515587E-04
  0.9747475E+00  0.0000000E+00  0.1515152E-01 -0.5245389E-08  0.0000000E+00 -0.1516010E-04
  0.9848485E+00  0.0000000E+00  0.1515152E-01 -0.3149206E-08  0.0000000E+00 -0.1516293E-04
  0.9974747E+00  0.0000000E+00  0.1515152E-01 -0.1050065E-08  0.0000000E+00 -0.1516434E-04
  0.5050505E-02  0.0000000E+00  0.2525252E-01  0.1203430E-08  0.0000000E+00 -0.1528239E-04
  0.1515152E-01  0.0000000E+00  0.2525252E-01  0.3611042E-08  0.0000000E+00 -0.1528141E-04
  0.2525252E-01  0.0000000E+00  0.2525252E-01  0.6020853E-08  0.0000000E+00 -0.1527944E-04
  0.3535353E-01  0.0000000E+00  0.2525252E-01  0.8434242E-08  0.0000000E+00 -0.1527649E-04
  0.4545455E-01  0.0000000E+00  0.2525252E-01  0.1085247E-07  0.0000000E+00 -0.1527256E-04
  0.5555556E-01  0.0000000E+00  0.2525252E-01  0.1327664E-07  0.0000000E+00 -0.1526763E-04
  0.6565657E-01  0.0000000E+00  0.2525252E-01  0.1570760E-07  0.0000000E+00 -0.1526172E-04
  0.7575758E-01  0.0000000E+00  0.2525252E-01  0.1814597E-07  0.0000000E+00 -0.1525481E-04
  0.8585858E-01  0.0000000E+00  0.2525252E-01  0.2059201E-07  0.0000000E+00 -0.1524690E-04
  0.9595960E-01  0.0000000E+00  0.2525252E-01  0.2304562E-07  0.0000000E+00 -0.1523799E-04
  0.1060606E+00  0.0000000E+00  0.2525252E-01  0.2550626E-07  0.0000000E+00 -0.1522808E-04
  0.1161616E+00  0.0000000E+00  0.2525252E-01  0.2797289E-07  0.0000000E+00 -0.1521716E-04
  0.1262626E+00  0.0000000E+00  0.2525252E-01  0.3044393E-07  0.0000000E+00 -0.1520522E-04
  0.1363636E+00  0.0000000E+00  0.2525252E-01  0.3291720E-07  0.0000000E+00 -0.1519228E-04
  0.1464646E+00  0.0000000E+00  0.2525252E-01  0.3538982E-07  0.0000000E+00 -0.1517832E-04
  0.1565657E+00  0.0000000E+00  0.2525252E-01  0.3785820E-07  0.0000000E+00 -0.1516334E-04
  0.1666667E+00  0.0000000E+00  0.2525252E-01  0.4031793E-07  0.0000000E+00 -0.1514736E-04
  0.1767677E+00  0.0000000E+00  0.2525252E-01  0.4276375E-07  0.0000000E+00 -0.1513036E-04
  0.1868687E+00  0.0000000E+00  0.2525252E-01  0.4518946E-07  0.0000000E+00 -0.1511237E-04
  0.1969697E+00  0.0000000E+00  0.2525252E-01  0.4758786E-07  0.0000000E+00 -0.1509338E-04
  0.2070707E+00  0.0000000E+00  0.2525252E-01  0.4995069E-07  0.0000000E+00 -0.1507340E-04
  0.2171717E+00  0.0000000E+00  0.2525252E-01  0.5226857E-07  0.0000000E+00 -0.1505247E-04
  0.2272727E+00  0.0000000E+00  0.2525252E-01  0.5453095E-07  0.0000000E+00 -0.1503058E-04
  0.2373737E+00  0.0000000E+00  0.2525252E-01  0.5672602E-07  0.0000000E+00 -0.1500777E-04
  0.2474747E+00  0.0000000E+00  0.2525252E-01  0.5884071E-07  0.0000000E+00 -0.1498407E-04
  0.2575758E+00  0.0000000E+00  0.2525252E-01  0.6086065E-07  0.0000000E+00 -0.1495951E-04
  0.2676768E+00  0.0000000E+00  0.2525252E-01  0.6277014E-07  0.0000000E+00 -0.1493412E-04
  0.2777778E+00  0.0000000E+00  0.2525252E-01  0.6455214E-07  0.0000000E+00 -0.1490797E-04
  0.2878788E+00  0.0000000E+00  0.2525252E-01  0.6618832E-07  0.0000000E+00 -0.1488110E-04
  0.2979798E+00  0.0000000E+00  0.2525252E-01  0.6765908E-07  0.0000000E+00 -0.1485357E-04
  0.3080808E+00  0.0000000E+00  0.2525252E-01  0.6894366E-07  0.0000000E+00 -0.1482546E-04
  0.3181818E+00  0.0000000E+00  0.2525252E-01  0.7002023E-07  0.0000000E+00 -0.1479685E-04
  0.3282828E+00  0.0000000E+00  0.2525252E-01  0.7086606E-07  0.0000000E+00 -0.1476781E-04
  0.3383838E+00  0.0000000E+00  0.2525252E-01  0.7145775E-07  0.0000000E+00 -0.1473847E-04
  0.3484848E+00  0.0000000E+00  0.2525252E-01  0.7177147E-07  0.0000000E+00 -0.1470891E-04
  0.3585859E+00  0.0000000E+00  0.2525252E-01  0.7178332E-07  0.0000000E+00 -0.1467927E-04
  0.3686869E+00  0.0000000E+00  0.2525252E-01  0.7146971E-07  0.0000000E+00 -0.1464966E-04
  0.3787879E+00  0.0000000E+00  0.2525252E-01  0.7080781E-07  0.0000000E+00 -0.1462023E-04
  0.3888889E+00  0.0000000E+00  0.2525252E-01  0.6977611E-07  0.0000000E+00 -0.1459113E-04
  0.3989899E+00  0.0000000E+00  0.2525252E-01  0.6835497E-07  0.0000000E+00 -0.1456251E-04
  0.4090909E+00  0.0000000E+00  0.2525252E-01  0.6652731E-07  0.0000000E+00 -0.1453454E-04
  0.4191919E+00  0.0000000E+00  0.2525252E-01  0.6427930E-07  0.0000000E+00 -0.1450739E-04
  0.4292929E+00  0.0000000E+00  0.2525252E-01  0.6160103E-07  0.0000000E+00 -0.1448125E-04
  0.4393939E+00  0.0000000E+00  0.2525252E-01  0.5848729E-07  0.0000000E+00 -0.1445628E-04
  0.4494950E+00  0.0000000E+00  0.2525252E-01  0.5493822E-07  0.0000000E+00 -0.1443268E-04
  0.4595959E+00  0.0000000E+00  0.2525252E-01  0.5095997E-07  0.0000000E+00 -0.1441063E-04
  0.4696970E+00  0.0000000E+00  0.2525252E-01  0.4656523E-07  0.0000000E+00 -0.1439030E-04
  0.4797980E+00  0.0000000E+00  0.2525252E-01  0.4177361E-07  0.0000000E+00 -0.1437187E-04
  0.4898990E+00  0.0000000E+00  0.2525252E-01  0.3661190E-07  0.0000000E+00 -0.1435550E-04
  0.5000000E+00  0.0000000E+00  0.2525252E-01  0.3111408E-07  0.0000000E+00 -0.1434135E-04
  0.5101010E+00  0.0000000E+00  0.2525252E-01  0.2532110E-07  0.0000000E+00 -0.1432955E-04
  0.5202020E+00  0.0000000E+00  0.2525252E-01  0.1928042E-07  0.0000000E+00 -0.1432021E-04
  0.5303030E+00  0.0000000E+00  0.2525252E-01  0.1304533E-07  0.0000000E+00 -0.1431343E-04
  0.5404040E+00  0.0000000E+00  0.2525252E-01  0.6673929E-08  0.0000000E+00 -0.1430929E-04
  0.5505050E+00  0.0000000E+00  0.2525252E-01  0.2280395E-09  0.0000000E+00 -0.1430782E-04
  0.5606061E+00  0.0000000E+00  0.2525252E-01 -0.6228177E-08  0.0000000E+00 -0.1430905E-04
  0.5707071E+00  0.0000000E+00  0.2525252E-01 -0.1262965E-07  0.0000000E+00 -0.1431297E-04
  0.5808081E+00  0.0000000E+00  0.2525252E-01 -0.1891190E-07  0.0000000E+00 -0.1431953E-04
  0.5909091E+00  0.0000000E+00  0.2525252E-01 -0.2501252E-07  0.0000000E+00 -0.1432869E-04
  0.6010101E+00  0.0000000E+00  0.2525252E-01 -0.3087259E-07  0.0000000E+00 -0.1434034E-04
  0.6111111E+00  0.0000000E+00  0.2525252E-01 -0.3643788E-07  0.0000000E+00 -0.1435438E-04
  0.6212121E+00  0.0000000E+00  0.2525252E-01 -0.4165998E-07  0.0000000E+00 -0.1437067E-04
  0.6313131E+00  0.0000000E+00  0.2525252E-01 -0.4649706E-07  0.0000000E+00 -0.1438905E-04
  0.6414142E+00  0.0000000E+00  0.2525252E-01 -0.5091448E-07  0.0000000E+00 -0.1440935E-04
  0.6515151E+00  0.0000000E+00  0.2525252E-01 -0.5488512E-07  0.0000000E+00 -0.1443139E-04
  0.6616161E+00  0.0000000E+00  0.2525252E-01 -0.5838941E-07  0.0000000E+00 -0.1445497E-04
  0.6717172E+00  0.0000000E+00  0.2525252E-01 -0.6141517E-07  0.0000000E+00 -0.1447990E-04
  0.6818182E+00  0.0000000E+00  0.2525252E-01 -0.6395730E-07  0.0000000E+00 -0.1450597E-04
  0.6919192E+00  0.0000000E+00  0.2525252E-01 -0.6601718E-07  0.0000000E+00 -0.1453298E-04
  0.7020202E+00  0.0000000E+00  0.2525252E-01 -0.6760208E-07  0.0000000E+00 -0.1456073E-04
  0.7121212E+00  0.0000000E+00  0.2525252E-01 -0.6872438E-07  0.0000000E+00 -0.1458902E-04
  0.7222222E+00  0.0000000E+00  0.2525252E-01 -0.6940082E-07  0.0000000E+00 -0.1461767E-04
  0.7323232E+00  0.0000000E+00  0.2525252E-01 -0.6965168E-07  0.0000000E+00 -0.1464648E-04
  0.7424242E+00  0.0000000E+00  0.2525252E-01 -0.6950002E-07  0.0000000E+00 -0.1467530E-04
  0.7525253E+00  0.0000000E+00  0.2525252E-01 -0.6897090E-07  0.0000000E+00 -0.1470395E-04
  0.7626263E+00  0.0000000E+00  0.2525252E-01 -0.6809073E-07  0.0000000E+00 -0.1473229E-04
  0.7727273E+00  0.0000000E+00  0.2525252E-01 -0.6688661E-07  0.0000000E+00 -0.1476018E-04
  0.7828283E+00  0.0000000E+00  0.2525252E-01 -0.6538581E-07  0.0000000E+00 -0.1478750E-04
  0.7929293E+00  0.0000000E+00  0.2525252E-01 -0.6361530E-07  0.0000000E+00 -0.1481412E-04
  0.8030303E+00  0.0000000E+00  0.2525252E-01 -0.6160132E-07  0.0000000E+00 -0.1483995E-04
  0.8131313E+00  0.0000000E+00  0.2525252E-01 -0.5936911E-07  0.0000000E+00 -0.1486488E-04
  0.8232324E+00  0.0000000E+00  0.2525252E-01 -0.5694266E-07  0.0000000E+00 -0.1488884E-04
  0.8333333E+00  0.0000000E+00  0.2525252E-01 -0.5434447E-07  0.0000000E+00 -0.1491175E-04
  0.8434343E+00  0.0000000E+00  0.2525252E-01 -0.5159552E-07  0.0000000E+00 -0.1493355E-04
  0.8535354E+00  0.0000000E+00  0.2525252E-01 -0.4871510E-07  0.0000000E+00 -0.1495418E-04
  0.8636364E+00  0.0000000E+00  0.2525252E-01 -0.4572088E-07  0.0000000E+00 -0.1497360E-04
  0.8737374E+00  0.0000000E+00  0.2525252E-01 -0.4262882E-07  0.0000000E+00 -0.1499175E-04
  0.8838384E+00  0.0000000E+00  0.2525252E-01 -0.3945329E-07  0.0000000E+00 -0.1500862E-04
  0.8939394E+00  0.0000000E+00  0.2525252E-01 -0.3620707E-07  0.0000000E+00 -0.1502415E-04
  0.9040404E+00  0.0000000E+00  0.2525252E-01 -0.3290148E-07  0.0000000E+00 -0.1503834E-04
  0.9141414E+00  0.0000000E+00  0.2525252E-01 -0.2954646E-07  0.0000000E+00 -0.1505115E-04
  0.9242424E+00  0.0000000E+00  0.2525252E-01 -0.2615069E-07  0.0000000E+00 -0.1506258E-04
  0.9343435E+00  0.0000000E+00  0.2525252E-01 -0.2272170E-07  0.0000000E+00 -0.1507261E-04
  0.9444444E+00  0.0000000E+00  0.2525252E-01 -0.1926598E-07  0.0000000E+00 -0.1508122E-04
  0.9545454E+00  0.0000000E+00  0.2525252E-01 -0.1578916E-07  0.0000000E+00 -0.1508841E-04
  0.9646465E+00  0.0000000E+00  0.2525252E-01 -0.1229612E-07  0.0000000E+00 -0.1509416E-04
  0.9747475E+00  0.0000000E+00  0.2525252E-01 -0.8791091E-08  0.0000000E+00 -0.1509849E-04
  0.9848485E+00  0.0000000E+00  0.2525252E-01 -0.5277848E-08  0.0000000E+00 -0.1510137E-04
  0.9974747E+00  0.0000000E+00  0.2525252E-01 -0.1759814E-08  0.0000000E+00 -0.1510281E-04
  0.5050505E-02  0.0000000E+00  0.3535353E-01  0.1695833E-08  0.0000000E+00 -0.1519383E-04
  0.1515152E-01  0.0000000E+00  0.3535353E-01  0.5088599E-08  0.0000000E+00 -0.1519282E-04
  0.2525252E-01  0.0000000E+00  0.3535353E-01  0.8484595E-08  0.0000000E+00 -0.1519081E-04
  0.3535353E-01  0.0000000E+00  0.3535353E-01  0.1188586E-07  0.0000000E+00 -0.1518779E-04
  0.4545455E-01  0.0000000E+00  0.3535353E-01  0.1529425E-07  0.0000000E+00 -0.1518376E-04
  0.5555556E-01  0.0000000E+00  0.3535353E-01  0.1871141E-07  0.0000000E+00 -0.1517872E-04
  0.6565657E-01  0.0000000E+00  0.3535353E-01  0.2213864E-07  0.0000000E+00 -0.1517267E-04
  0.7575758E-01  0.0000000E+00  0.3535353E-01  0.2557690E-07  0.0000000E+00 -0.1516559E-04
  0.8585858E-01  0.0000000E+00  0.3535353E-01  0.2902666E-07  0.0000000E+00 -0.1515749E-04
  0.9595960E-01  0.0000000E+00  0.3535353E-01  0.3248787E-07  0.0000000E+00 -0.1514836E-04
  0.1060606E+00  0.0000000E+00  0.3535353E-01  0.3595986E-07  0.0000000E+00 -0.1513820E-04
  0.1161616E+00  0.0000000E+00  0.3535353E-01  0.3944130E-07  0.0000000E+00 -0.1512701E-04
  0.1262626E+00  0.0000000E+00  0.3535353E-01  0.4293006E-07  0.0000000E+00 -0.1511477E-04
  0.1363636E+00  0.0000000E+00  0.3535353E-01  0.4642315E-07  0.0000000E+00 -0.1510149E-04
  0.1464646E+00  0.0000000E+00  0.3535353E-01  0.4991666E-07  0.0000000E+00 -0.1508717E-04
  0.1565657E+00  0.0000000E+00  0.3535353E-01  0.5340562E-07  0.0000000E+00 -0.1507180E-04
  0.1666667E+00  0.0000000E+00  0.3535353E-01  0.5688393E-07  0.0000000E+00 -0.1505538E-04
  0.1767677E+00  0.0000000E+00  0.3535353E-01  0.6034430E-07  0.0000000E+00 -0.1503792E-04
  0.1868687E+00  0.0000000E+00  0.3535353E-01  0.6377808E-07  0.0000000E+00 -0.1501943E-04
  0.1969697E+00  0.0000000E+00  0.3535353E-01  0.6717525E-07  0.0000000E+00 -0.1499990E-04
  0.2070707E+00  0.0000000E+00  0.3535353E-01  0.7052426E-07  0.0000000E+00 -0.1497935E-04
  0.2171717E+00  0.0000000E+00  0.3535353E-01  0.7381198E-07  0.0000000E+00 -0.1495780E-04
  0.2272727E+00  0.0000000E+00  0.3535353E-01  0.7702359E-07  0.0000000E+00 -0.1493526E-04
  0.2373737E+00  0.0000000E+00  0.3535353E-01  0.8014253E-07  0.0000000E+00 -0.1491175E-04
  0.2474747E+00  0.0000000E+00  0.3535353E-01  0.8315043E-07  0.0000000E+00 -0.1488730E-04
  0.2575758E+00  0.0000000E+00  0.3535353E-01  0.8602702E-07  0.0000000E+00 -0.1486195E-04
  0.2676768E+00  0.0000000E+00  0.3535353E-01  0.8875014E-07  0.0000000E+00 -0.1483573E-04
  0.2777778E+00  0.0000000E+00  0.3535353E-01  0.9129573E-07  0.0000000E+00 -0.1480870E-04
  0.2878788E+00  0.0000000E+00  0.3535353E-01  0.9363782E-07  0.0000000E+00 -0.1478090E-04
  0.2979798E+00  0.0000000E+00  0.3535353E-01  0.9574862E-07  0.0000000E+00 -0.1475239E-04