title = "dataset water"
variables = "x", "y", "z", "vx", "vy", "vz"
zone t = "velocities, solution time =  4.200E+01 days        " i =   99, j =   99, k =    1,  f=point
  0.5050505E-02  0.0000000E+00  0.5050505E-02  0.5423652E-07  0.0000000E+00  0.4969404E-04
  0.1515152E-01  0.0000000E+00  0.5050505E-02  0.1630286E-06  0.0000000E+00  0.4991327E-04
  0.2525252E-01  0.0000000E+00  0.5050505E-02  0.2727847E-06  0.0000000E+00  0.5035303E-04
  0.3535353E-01  0.0000000E+00  0.5050505E-02  0.3841644E-06  0.0000000E+00  0.5101598E-04
  0.4545455E-01  0.0000000E+00  0.5050505E-02  0.4978500E-06  0.0000000E+00  0.5190611E-04
  0.5555556E-01  0.0000000E+00  0.5050505E-02  0.6145557E-06  0.0000000E+00  0.5302888E-04
  0.6565657E-01  0.0000000E+00  0.5050505E-02  0.7350372E-06  0.0000000E+00  0.5439123E-04
  0.7575758E-01  0.0000000E+00  0.5050505E-02  0.8601032E-06  0.0000000E+00  0.5600173E-04
  0.8585858E-01  0.0000000E+00  0.5050505E-02  0.9906277E-06  0.0000000E+00  0.5787064E-04
  0.9595960E-01  0.0000000E+00  0.5050505E-02  0.1127565E-05  0.0000000E+00  0.6001012E-04
  0.1060606E+00  0.0000000E+00  0.5050505E-02  0.1271965E-05  0.0000000E+00  0.6243441E-04
  0.1161616E+00  0.0000000E+00  0.5050505E-02  0.1424996E-05  0.0000000E+00  0.6516001E-04
  0.1262626E+00  0.0000000E+00  0.5050505E-02  0.1587966E-05  0.0000000E+00  0.6820598E-04
  0.1363636E+00  0.0000000E+00  0.5050505E-02  0.1762353E-05  0.0000000E+00  0.7159427E-04
  0.1464646E+00  0.0000000E+00  0.5050505E-02  0.1949839E-05  0.0000000E+00  0.7535009E-04
  0.1565657E+00  0.0000000E+00  0.5050505E-02  0.2152359E-05  0.0000000E+00  0.7950240E-04
  0.1666667E+00  0.0000000E+00  0.5050505E-02  0.2372150E-05  0.0000000E+00  0.8408451E-04
  0.1767677E+00  0.0000000E+00  0.5050505E-02  0.2611829E-05  0.0000000E+00  0.8913477E-04
  0.1868687E+00  0.0000000E+00  0.5050505E-02  0.2874485E-05  0.0000000E+00  0.9469749E-04
  0.1969697E+00  0.0000000E+00  0.5050505E-02  0.3163801E-05  0.0000000E+00  0.1008240E-03
  0.2070707E+00  0.0000000E+00  0.5050505E-02  0.3484220E-05  0.0000000E+00  0.1075743E-03
  0.2171717E+00  0.0000000E+00  0.5050505E-02  0.3841169E-05  0.0000000E+00  0.1150184E-03
  0.2272727E+00  0.0000000E+00  0.5050505E-02  0.4241375E-05  0.0000000E+00  0.1232395E-03
  0.2373737E+00  0.0000000E+00  0.5050505E-02  0.4693307E-05  0.0000000E+00  0.1323365E-03
  0.2474747E+00  0.0000000E+00  0.5050505E-02  0.5207819E-05  0.0000000E+00  0.1424286E-03
  0.2575758E+00  0.0000000E+00  0.5050505E-02  0.5799102E-05  0.0000000E+00  0.1536618E-03
  0.2676768E+00  0.0000000E+00  0.5050505E-02  0.6486153E-05  0.0000000E+00  0.1662168E-03
  0.2777778E+00  0.0000000E+00  0.5050505E-02  0.7295076E-05  0.0000000E+00  0.1803222E-03
  0.2878788E+00  0.0000000E+00  0.5050505E-02  0.8262882E-05  0.0000000E+00  0.1962736E-03
  0.2979798E+00  0.0000000E+00  0.5050505E-02  0.9443998E-05  0.0000000E+00  0.2144638E-03
  0.3080808E+00  0.0000000E+00  0.5050505E-02  0.1092205E-04  0.0000000E+00  0.2354324E-03
  0.3181818E+00  0.0000000E+00  0.5050505E-02  0.1283258E-04  0.0000000E+00  0.2599527E-03
  0.3282828E+00  0.0000000E+00  0.5050505E-02  0.1541004E-04  0.0000000E+00  0.2891935E-03
  0.3383838E+00  0.0000000E+00  0.5050505E-02  0.1909418E-04  0.0000000E+00  0.3250461E-03
  0.3484848E+00  0.0000000E+00  0.5050505E-02  0.2479572E-04  0.0000000E+00  0.3708543E-03
  0.3585859E+00  0.0000000E+00  0.5050505E-02  0.3464034E-04  0.0000000E+00  0.4332450E-03
  0.3686869E+00  0.0000000E+00  0.5050505E-02  0.5431588E-04  0.0000000E+00  0.5273709E-03
  0.3787879E+00  0.0000000E+00  0.5050505E-02  0.1014024E-03  0.0000000E+00  0.6942000E-03
  0.3888889E+00  0.0000000E+00  0.5050505E-02 -0.3580115E-05  0.0000000E+00  0.7994086E-03
  0.3989899E+00  0.0000000E+00  0.5050505E-02 -0.1449965E-04  0.0000000E+00  0.7795122E-03
  0.4090909E+00  0.0000000E+00  0.5050505E-02 -0.1494648E-04  0.0000000E+00  0.7471954E-03
  0.4191919E+00  0.0000000E+00  0.5050505E-02 -0.6135661E-05  0.0000000E+00  0.7241130E-03
  0.4292929E+00  0.0000000E+00  0.5050505E-02 -0.2297964E-05  0.0000000E+00  0.7148912E-03
  0.4393939E+00  0.0000000E+00  0.5050505E-02 -0.1630893E-05  0.0000000E+00  0.7105978E-03
  0.4494950E+00  0.0000000E+00  0.5050505E-02 -0.2256326E-05  0.0000000E+00  0.7063524E-03
  0.4595959E+00  0.0000000E+00  0.5050505E-02 -0.3425973E-05  0.0000000E+00  0.7001513E-03
  0.4696970E+00  0.0000000E+00  0.5050505E-02 -0.4958343E-05  0.0000000E+00  0.6910117E-03
  0.4797980E+00  0.0000000E+00  0.5050505E-02 -0.6735831E-05  0.0000000E+00  0.6782836E-03
  0.4898990E+00  0.0000000E+00  0.5050505E-02 -0.8585687E-05  0.0000000E+00  0.6616406E-03
  0.5000000E+00  0.0000000E+00  0.5050505E-02 -0.1076581E-04  0.0000000E+00  0.6406729E-03
  0.5101010E+00  0.0000000E+00  0.5050505E-02 -0.1364887E-04  0.0000000E+00  0.6143036E-03
  0.5202020E+00  0.0000000E+00  0.5050505E-02 -0.1465093E-04  0.0000000E+00  0.5838450E-03
  0.5303030E+00  0.0000000E+00  0.5050505E-02 -0.1466757E-04  0.0000000E+00  0.5524065E-03
  0.5404040E+00  0.0000000E+00  0.5050505E-02 -0.1429465E-04  0.0000000E+00  0.5214641E-03
  0.5505050E+00  0.0000000E+00  0.5050505E-02 -0.1375820E-04  0.0000000E+00  0.4916002E-03
  0.5606061E+00  0.0000000E+00  0.5050505E-02 -0.1313653E-04  0.0000000E+00  0.4630670E-03
  0.5707071E+00  0.0000000E+00  0.5050505E-02 -0.1246717E-04  0.0000000E+00  0.4359917E-03
  0.5808081E+00  0.0000000E+00  0.5050505E-02 -0.1177751E-04  0.0000000E+00  0.4104323E-03
  0.5909091E+00  0.0000000E+00  0.5050505E-02 -0.1108943E-04  0.0000000E+00  0.3863950E-03
  0.6010101E+00  0.0000000E+00  0.5050505E-02 -0.1041895E-04  0.0000000E+00  0.3638473E-03
  0.6111111E+00  0.0000000E+00  0.5050505E-02 -0.9776464E-05  0.0000000E+00  0.3427299E-03
  0.6212121E+00  0.0000000E+00  0.5050505E-02 -0.9167650E-05  0.0000000E+00  0.3229683E-03
  0.6313131E+00  0.0000000E+00  0.5050505E-02 -0.8594824E-05  0.0000000E+00  0.3044807E-03
  0.6414142E+00  0.0000000E+00  0.5050505E-02 -0.8058084E-05  0.0000000E+00  0.2871842E-03
  0.6515151E+00  0.0000000E+00  0.5050505E-02 -0.7556201E-05  0.0000000E+00  0.2709983E-03
  0.6616161E+00  0.0000000E+00  0.5050505E-02 -0.7087242E-05  0.0000000E+00  0.2558466E-03
  0.6717172E+00  0.0000000E+00  0.5050505E-02 -0.6648960E-05  0.0000000E+00  0.2416582E-03
  0.6818182E+00  0.0000000E+00  0.5050505E-02 -0.6239027E-05  0.0000000E+00  0.2283673E-03
  0.6919192E+00  0.0000000E+00  0.5050505E-02 -0.5855163E-05  0.0000000E+00  0.2159139E-03
  0.7020202E+00  0.0000000E+00  0.5050505E-02 -0.5495209E-05  0.0000000E+00  0.2042430E-03
  0.7121212E+00  0.0000000E+00  0.5050505E-02 -0.5157154E-05  0.0000000E+00  0.1933044E-03
  0.7222222E+00  0.0000000E+00  0.5050505E-02 -0.4839149E-05  0.0000000E+00  0.1830522E-03
  0.7323232E+00  0.0000000E+00  0.5050505E-02 -0.4539508E-05  0.0000000E+00  0.1734448E-03
  0.7424242E+00  0.0000000E+00  0.5050505E-02 -0.4256699E-05  0.0000000E+00  0.1644438E-03
  0.7525253E+00  0.0000000E+00  0.5050505E-02 -0.3989339E-05  0.0000000E+00  0.1560145E-03
  0.7626263E+00  0.0000000E+00  0.5050505E-02 -0.3736175E-05  0.0000000E+00  0.1481249E-03
  0.7727273E+00  0.0000000E+00  0.5050505E-02 -0.3496079E-05  0.0000000E+00  0.1407457E-03
  0.7828283E+00  0.0000000E+00  0.5050505E-02 -0.3268027E-05  0.0000000E+00  0.1338499E-03
  0.7929293E+00  0.0000000E+00  0.5050505E-02 -0.3051090E-05  0.0000000E+00  0.1274129E-03
  0.8030303E+00  0.0000000E+00  0.5050505E-02 -0.2844419E-05  0.0000000E+00  0.1214117E-03
  0.8131313E+00  0.0000000E+00  0.5050505E-02 -0.2647235E-05  0.0000000E+00  0.1158254E-03
  0.8232324E+00  0.0000000E+00  0.5050505E-02 -0.2458816E-05  0.0000000E+00  0.1106347E-03
  0.8333333E+00  0.0000000E+00  0.5050505E-02 -0.2278492E-05  0.0000000E+00  0.1058217E-03
  0.8434343E+00  0.0000000E+00  0.5050505E-02 -0.2105634E-05  0.0000000E+00  0.1013699E-03
  0.8535354E+00  0.0000000E+00  0.5050505E-02 -0.1939649E-05  0.0000000E+00  0.9726421E-04
  0.8636364E+00  0.0000000E+00  0.5050505E-02 -0.1779975E-05  0.0000000E+00  0.9349081E-04
  0.8737374E+00  0.0000000E+00  0.5050505E-02 -0.1626078E-05  0.0000000E+00  0.9003697E-04
  0.8838384E+00  0.0000000E+00  0.5050505E-02 -0.1477446E-05  0.0000000E+00  0.8689111E-04
  0.8939394E+00  0.0000000E+00  0.5050505E-02 -0.1333587E-05  0.0000000E+00  0.8404272E-04
  0.9040404E+00  0.0000000E+00  0.5050505E-02 -0.1194028E-05  0.0000000E+00  0.8148232E-04
  0.9141414E+00  0.0000000E+00  0.5050505E-02 -0.1058310E-05  0.0000000E+00  0.7920140E-04
  0.9242424E+00  0.0000000E+00  0.5050505E-02 -0.9259920E-06  0.0000000E+00  0.7719242E-04
  0.9343435E+00  0.0000000E+00  0.5050505E-02 -0.7966413E-06  0.0000000E+00  0.7544872E-04
  0.9444444E+00  0.0000000E+00  0.5050505E-02 -0.6698384E-06  0.0000000E+00  0.7396459E-04
  0.9545454E+00  0.0000000E+00  0.5050505E-02 -0.5451728E-06  0.0000000E+00  0.7273513E-04
  0.9646465E+00  0.0000000E+00  0.5050505E-02 -0.4222425E-06  0.0000000E+00  0.7175633E-04
  0.9747475E+00  0.0000000E+00  0.5050505E-02 -0.3006525E-06  0.0000000E+00  0.7102500E-04
  0.9848485E+00  0.0000000E+00  0.5050505E-02 -0.1800137E-06  0.0000000E+00  0.7053875E-04
  0.9974747E+00  0.0000000E+00  0.5050505E-02 -0.5994198E-07  0.0000000E+00  0.7029601E-04
  0.5050505E-02  0.0000000E+00  0.1515152E-01  0.1623956E-06  0.0000000E+00  0.4966090E-04
  0.1515152E-01  0.0000000E+00  0.1515152E-01  0.4881418E-06  0.0000000E+00  0.4987949E-04
  0.2525252E-01  0.0000000E+00  0.1515152E-01  0.8167714E-06  0.0000000E+00  0.5031797E-04
  0.3535353E-01  0.0000000E+00  0.1515152E-01  0.1150256E-05  0.0000000E+00  0.5097895E-04
  0.4545455E-01  0.0000000E+00  0.1515152E-01  0.1490633E-05  0.0000000E+00  0.5186640E-04
  0.5555556E-01  0.0000000E+00  0.1515152E-01  0.1840038E-05  0.0000000E+00  0.5298570E-04
  0.6565657E-01  0.0000000E+00  0.1515152E-01  0.2200726E-05  0.0000000E+00  0.5434374E-04
  0.7575758E-01  0.0000000E+00  0.1515152E-01  0.2575113E-05  0.0000000E+00  0.5594897E-04
  0.8585858E-01  0.0000000E+00  0.1515152E-01  0.2965807E-05  0.0000000E+00  0.5781156E-04
  0.9595960E-01  0.0000000E+00  0.1515152E-01  0.3375657E-05  0.0000000E+00  0.5994354E-04
  0.1060606E+00  0.0000000E+00  0.1515152E-01  0.3807796E-05  0.0000000E+00  0.6235895E-04
  0.1161616E+00  0.0000000E+00  0.1515152E-01  0.4265707E-05  0.0000000E+00  0.6507411E-04
  0.1262626E+00  0.0000000E+00  0.1515152E-01  0.4753288E-05  0.0000000E+00  0.6810783E-04
  0.1363636E+00  0.0000000E+00  0.1515152E-01  0.5274943E-05  0.0000000E+00  0.7148174E-04
  0.1464646E+00  0.0000000E+00  0.1515152E-01  0.5835681E-05  0.0000000E+00  0.7522069E-04
  0.1565657E+00  0.0000000E+00  0.1515152E-01  0.6441255E-05  0.0000000E+00  0.7935319E-04
  0.1666667E+00  0.0000000E+00  0.1515152E-01  0.7098317E-05  0.0000000E+00  0.8391197E-04
  0.1767677E+00  0.0000000E+00  0.1515152E-01  0.7814638E-05  0.0000000E+00  0.8893467E-04
  0.1868687E+00  0.0000000E+00  0.1515152E-01  0.8599375E-05  0.0000000E+00  0.9446468E-04
  0.1969697E+00  0.0000000E+00  0.1515152E-01  0.9463434E-05  0.0000000E+00  0.1005522E-03
  0.2070707E+00  0.0000000E+00  0.1515152E-01  0.1041995E-04  0.0000000E+00  0.1072556E-03
  0.2171717E+00  0.0000000E+00  0.1515152E-01  0.1148493E-04  0.0000000E+00  0.1146431E-03
  0.2272727E+00  0.0000000E+00  0.1515152E-01  0.1267816E-04  0.0000000E+00  0.1227950E-03
  0.2373737E+00  0.0000000E+00  0.1515152E-01  0.1402450E-04  0.0000000E+00  0.1318065E-03
  0.2474747E+00  0.0000000E+00  0.1515152E-01  0.1555565E-04  0.0000000E+00  0.1417918E-03
  0.2575758E+00  0.0000000E+00  0.1515152E-01  0.1731289E-04  0.0000000E+00  0.1528893E-03
  0.2676768E+00  0.0000000E+00  0.1515152E-01  0.1935116E-04  0.0000000E+00  0.1652687E-03
  0.2777778E+00  0.0000000E+00  0.1515152E-01  0.2174537E-04  0.0000000E+00  0.1791419E-03
  0.2878788E+00  0.0000000E+00  0.1515152E-01  0.2460070E-04  0.0000000E+00  0.1947780E-03
  0.2979798E+00  0.0000000E+00  0.1515152E-01  0.2806976E-04  0.0000000E+00  0.2125254E-03
  0.3080808E+00  0.0000000E+00  0.1515152E-01  0.3238281E-04  0.0000000E+00  0.2328463E-03
  0.3181818E+00  0.0000000E+00  0.1515152E-01  0.3790347E-04  0.0000000E+00  0.2563689E-03
  0.3282828E+00  0.0000000E+00  0.1515152E-01  0.4523760E-04  0.0000000E+00  0.2839669E-03
  0.3383838E+00  0.0000000E+00  0.1515152E-01  0.5545967E-04  0.0000000E+00  0.3168705E-03
  0.3484848E+00  0.0000000E+00  0.1515152E-01  0.7061563E-04  0.0000000E+00  0.3567650E-03
  0.3585859E+00  0.0000000E+00  0.1515152E-01  0.9491726E-04  0.0000000E+00  0.4055527E-03
  0.3686869E+00  0.0000000E+00  0.1515152E-01  0.1377646E-03  0.0000000E+00  0.4630362E-03
  0.3787879E+00  0.0000000E+00  0.1515152E-01  0.2218171E-03  0.0000000E+00  0.5138223E-03
  0.3888889E+00  0.0000000E+00  0.1515152E-01  0.8436516E-04  0.0000000E+00  0.6323958E-03
  0.3989899E+00  0.0000000E+00  0.1515152E-01 -0.3197291E-04  0.0000000E+00  0.7274700E-03
  0.4090909E+00  0.0000000E+00  0.1515152E-01 -0.3331841E-04  0.0000000E+00  0.7202874E-03
  0.4191919E+00  0.0000000E+00  0.1515152E-01 -0.1400287E-04  0.0000000E+00  0.7145151E-03
  0.4292929E+00  0.0000000E+00  0.1515152E-01 -0.4088569E-05  0.0000000E+00  0.7131237E-03
  0.4393939E+00  0.0000000E+00  0.1515152E-01 -0.3770227E-05  0.0000000E+00  0.7130994E-03
  0.4494950E+00  0.0000000E+00  0.1515152E-01 -0.6300462E-05  0.0000000E+00  0.7105566E-03
  0.4595959E+00  0.0000000E+00  0.1515152E-01 -0.9946995E-05  0.0000000E+00  0.7051699E-03
  0.4696970E+00  0.0000000E+00  0.1515152E-01 -0.1462653E-04  0.0000000E+00  0.6965773E-03
  0.4797980E+00  0.0000000E+00  0.1515152E-01 -0.2009837E-04  0.0000000E+00  0.6841268E-03
  0.4898990E+00  0.0000000E+00  0.1515152E-01 -0.2540021E-04  0.0000000E+00  0.6678556E-03
  0.5000000E+00  0.0000000E+00  0.1515152E-01 -0.3160180E-04  0.0000000E+00  0.6478769E-03
  0.5101010E+00  0.0000000E+00  0.1515152E-01 -0.4268853E-04  0.0000000E+00  0.6202258E-03
  0.5202020E+00  0.0000000E+00  0.1515152E-01 -0.4488853E-04  0.0000000E+00  0.5867430E-03
  0.5303030E+00  0.0000000E+00  0.1515152E-01 -0.4438919E-04  0.0000000E+00  0.5537683E-03
  0.5404040E+00  0.0000000E+00  0.1515152E-01 -0.4305910E-04  0.0000000E+00  0.5221263E-03
  0.5505050E+00  0.0000000E+00  0.1515152E-01 -0.4137518E-04  0.0000000E+00  0.4918838E-03
  0.5606061E+00  0.0000000E+00  0.1515152E-01 -0.3947343E-04  0.0000000E+00  0.4631028E-03
  0.5707071E+00  0.0000000E+00  0.1515152E-01 -0.3743783E-04  0.0000000E+00  0.4358574E-03
  0.5808081E+00  0.0000000E+00  0.1515152E-01 -0.3534626E-04  0.0000000E+00  0.4101885E-03
  0.5909091E+00  0.0000000E+00  0.1515152E-01 -0.3326481E-04  0.0000000E+00  0.3860896E-03
  0.6010101E+00  0.0000000E+00  0.1515152E-01 -0.3124164E-04  0.0000000E+00  0.3635154E-03
  0.6111111E+00  0.0000000E+00  0.1515152E-01 -0.2930699E-04  0.0000000E+00  0.3423952E-03
  0.6212121E+00  0.0000000E+00  0.1515152E-01 -0.2747680E-04  0.0000000E+00  0.3226452E-03
  0.6313131E+00  0.0000000E+00  0.1515152E-01 -0.2575690E-04  0.0000000E+00  0.3041773E-03
  0.6414142E+00  0.0000000E+00  0.1515152E-01 -0.2414672E-04  0.0000000E+00  0.2869042E-03
  0.6515151E+00  0.0000000E+00  0.1515152E-01 -0.2264196E-04  0.0000000E+00  0.2707427E-03
  0.6616161E+00  0.0000000E+00  0.1515152E-01 -0.2123642E-04  0.0000000E+00  0.2556149E-03
  0.6717172E+00  0.0000000E+00  0.1515152E-01 -0.1992312E-04  0.0000000E+00  0.2414488E-03
  0.6818182E+00  0.0000000E+00  0.1515152E-01 -0.1869492E-04  0.0000000E+00  0.2281786E-03
  0.6919192E+00  0.0000000E+00  0.1515152E-01 -0.1754491E-04  0.0000000E+00  0.2157439E-03
  0.7020202E+00  0.0000000E+00  0.1515152E-01 -0.1646655E-04  0.0000000E+00  0.2040897E-03
  0.7121212E+00  0.0000000E+00  0.1515152E-01 -0.1545379E-04  0.0000000E+00  0.1931660E-03
  0.7222222E+00  0.0000000E+00  0.1515152E-01 -0.1450108E-04  0.0000000E+00  0.1829271E-03
  0.7323232E+00  0.0000000E+00  0.1515152E-01 -0.1360335E-04  0.0000000E+00  0.1733313E-03
  0.7424242E+00  0.0000000E+00  0.1515152E-01 -0.1275602E-04  0.0000000E+00  0.1643407E-03
  0.7525253E+00  0.0000000E+00  0.1515152E-01 -0.1195493E-04  0.0000000E+00  0.1559206E-03
  0.7626263E+00  0.0000000E+00  0.1515152E-01 -0.1119635E-04  0.0000000E+00  0.1480391E-03
  0.7727273E+00  0.0000000E+00  0.1515152E-01 -0.1047689E-04  0.0000000E+00  0.1406671E-03
  0.7828283E+00  0.0000000E+00  0.1515152E-01 -0.9793489E-05  0.0000000E+00  0.1337778E-03
  0.7929293E+00  0.0000000E+00  0.1515152E-01 -0.9143378E-05  0.0000000E+00  0.1273466E-03
  0.8030303E+00  0.0000000E+00  0.1515152E-01 -0.8524015E-05  0.0000000E+00  0.1213507E-03
  0.8131313E+00  0.0000000E+00  0.1515152E-01 -0.7933071E-05  0.0000000E+00  0.1157692E-03
  0.8232324E+00  0.0000000E+00  0.1515152E-01 -0.7368389E-05  0.0000000E+00  0.1105828E-03
  0.8333333E+00  0.0000000E+00  0.1515152E-01 -0.6827964E-05  0.0000000E+00  0.1057737E-03
  0.8434343E+00  0.0000000E+00  0.1515152E-01 -0.6309913E-05  0.0000000E+00  0.1013255E-03
  0.8535354E+00  0.0000000E+00  0.1515152E-01 -0.5812464E-05  0.0000000E+00  0.9722313E-04
  0.8636364E+00  0.0000000E+00  0.1515152E-01 -0.5333934E-05  0.0000000E+00  0.9345273E-04
  0.8737374E+00  0.0000000E+00  0.1515152E-01 -0.4872720E-05  0.0000000E+00  0.9000161E-04
  0.8838384E+00  0.0000000E+00  0.1515152E-01 -0.4427290E-05  0.0000000E+00  0.8685822E-04
  0.8939394E+00  0.0000000E+00  0.1515152E-01 -0.3996171E-05  0.0000000E+00  0.8401206E-04
  0.9040404E+00  0.0000000E+00  0.1515152E-01 -0.3577944E-05  0.0000000E+00  0.8145364E-04
  0.9141414E+00  0.0000000E+00  0.1515152E-01 -0.3171237E-05  0.0000000E+00  0.7917448E-04
  0.9242424E+00  0.0000000E+00  0.1515152E-01 -0.2774721E-05  0.0000000E+00  0.7716703E-04
  0.9343435E+00  0.0000000E+00  0.1515152E-01 -0.2387105E-05  0.0000000E+00  0.7542467E-04
  0.9444444E+00  0.0000000E+00  0.1515152E-01 -0.2007130E-05  0.0000000E+00  0.7394165E-04
  0.9545454E+00  0.0000000E+00  0.1515152E-01 -0.1633565E-05  0.0000000E+00  0.7271312E-04
  0.9646465E+00  0.0000000E+00  0.1515152E-01 -0.1265206E-05  0.0000000E+00  0.7173505E-04
  0.9747475E+00  0.0000000E+00  0.1515152E-01 -0.9008683E-06  0.0000000E+00  0.7100425E-04
  0.9848485E+00  0.0000000E+00  0.1515152E-01 -0.5393859E-06  0.0000000E+00  0.7051835E-04
  0.9974747E+00  0.0000000E+00  0.1515152E-01 -0.1796071E-06  0.0000000E+00  0.7027578E-04
  0.5050505E-02  0.0000000E+00  0.2525252E-01  0.2697768E-06  0.0000000E+00  0.4959672E-04
  0.1515152E-01  0.0000000E+00  0.2525252E-01  0.8109133E-06  0.0000000E+00  0.4981407E-04
  0.2525252E-01  0.0000000E+00  0.2525252E-01  0.1356825E-05  0.0000000E+00  0.5025002E-04
  0.3535353E-01  0.0000000E+00  0.2525252E-01  0.1910775E-05  0.0000000E+00  0.5090712E-04
  0.4545455E-01  0.0000000E+00  0.2525252E-01  0.2476133E-05  0.0000000E+00  0.5178928E-04
  0.5555556E-01  0.0000000E+00  0.2525252E-01  0.3056428E-05  0.0000000E+00  0.5290175E-04
  0.6565657E-01  0.0000000E+00  0.2525252E-01  0.3655389E-05  0.0000000E+00  0.5425129E-04
  0.7575758E-01  0.0000000E+00  0.2525252E-01  0.4277005E-05  0.0000000E+00  0.5584617E-04
  0.8585858E-01  0.0000000E+00  0.2525252E-01  0.4925585E-05  0.0000000E+00  0.5769633E-04
  0.9595960E-01  0.0000000E+00  0.2525252E-01  0.5605826E-05  0.0000000E+00  0.5981354E-04
  0.1060606E+00  0.0000000E+00  0.2525252E-01  0.6322897E-05  0.0000000E+00  0.6221150E-04
  0.1161616E+00  0.0000000E+00  0.2525252E-01  0.7082535E-05  0.0000000E+00  0.6490614E-04
  0.1262626E+00  0.0000000E+00  0.2525252E-01  0.7891157E-05  0.0000000E+00  0.6791577E-04
  0.1363636E+00  0.0000000E+00  0.2525252E-01  0.8756002E-05  0.0000000E+00  0.7126145E-04
  0.1464646E+00  0.0000000E+00  0.2525252E-01  0.9685297E-05  0.0000000E+00  0.7496730E-04
  0.1565657E+00  0.0000000E+00  0.2525252E-01  0.1068847E-04  0.0000000E+00  0.7906093E-04
  0.1666667E+00  0.0000000E+00  0.2525252E-01  0.1177641E-04  0.0000000E+00  0.8357397E-04
  0.1767677E+00  0.0000000E+00  0.2525252E-01  0.1296181E-04  0.0000000E+00  0.8854268E-04
  0.1868687E+00  0.0000000E+00  0.2525252E-01  0.1425958E-04  0.0000000E+00  0.9400871E-04
  0.1969697E+00  0.0000000E+00  0.2525252E-01  0.1568744E-04  0.0000000E+00  0.1000200E-03
  0.2070707E+00  0.0000000E+00  0.2525252E-01  0.1726664E-04  0.0000000E+00  0.1066321E-03
  0.2171717E+00  0.0000000E+00  0.2525252E-01  0.1902300E-04  0.0000000E+00  0.1139092E-03
  0.2272727E+00  0.0000000E+00  0.2525252E-01  0.2098827E-04  0.0000000E+00  0.1219267E-03
  0.2373737E+00  0.0000000E+00  0.2525252E-01  0.2320203E-04  0.0000000E+00  0.1307729E-03
  0.2474747E+00  0.0000000E+00  0.2525252E-01  0.2571451E-04  0.0000000E+00  0.1405522E-03
  0.2575758E+00  0.0000000E+00  0.2525252E-01  0.2859045E-04  0.0000000E+00  0.1513893E-03
  0.2676768E+00  0.0000000E+00  0.2525252E-01  0.3191505E-04  0.0000000E+00  0.1634341E-03
  0.2777778E+00  0.0000000E+00  0.2525252E-01  0.3580286E-04  0.0000000E+00  0.1768688E-03
  0.2878788E+00  0.0000000E+00  0.2525252E-01  0.4041169E-04  0.0000000E+00  0.1919161E-03
  0.2979798E+00  0.0000000E+00  0.2525252E-01  0.4596504E-04  0.0000000E+00  0.2088511E-03
  0.3080808E+00  0.0000000E+00  0.2525252E-01  0.5278910E-04  0.0000000E+00  0.2280127E-03
  0.3181818E+00  0.0000000E+00  0.2525252E-01  0.6137612E-04  0.0000000E+00  0.2498149E-03
  0.3282828E+00  0.0000000E+00  0.2525252E-01  0.7249580E-04  0.0000000E+00  0.2747407E-03
  0.3383838E+00  0.0000000E+00  0.2525252E-01  0.8739520E-04  0.0000000E+00  0.3032834E-03
  0.3484848E+00  0.0000000E+00  0.2525252E-01  0.1081567E-03  0.0000000E+00  0.3357232E-03
  0.3585859E+00  0.0000000E+00  0.2525252E-01  0.1383015E-03  0.0000000E+00  0.3714708E-03
  0.3686869E+00  0.0000000E+00  0.2525252E-01  0.1835696E-03  0.0000000E+00  0.4075058E-03
  0.3787879E+00  0.0000000E+00  0.2525252E-01  0.2515857E-03  0.0000000E+00  0.4364429E-03
  0.3888889E+00  0.0000000E+00  0.2525252E-01  0.2432510E-03  0.0000000E+00  0.5182771E-03
  0.3989899E+00  0.0000000E+00  0.2525252E-01  0.3145646E-04  0.0000000E+00  0.6610349E-03
  0.4090909E+00  0.0000000E+00  0.2525252E-01 -0.5097989E-04  0.0000000E+00  0.7176659E-03
  0.4191919E+00  0.0000000E+00  0.2525252E-01 -0.1373488E-04  0.0000000E+00  0.7040835E-03
  0.4292929E+00  0.0000000E+00  0.2525252E-01  0.2558369E-05  0.0000000E+00  0.7130075E-03
  0.4393939E+00  0.0000000E+00  0.2525252E-01 -0.3510889E-05  0.0000000E+00  0.7206120E-03
  0.4494950E+00  0.0000000E+00  0.2525252E-01 -0.9438008E-05  0.0000000E+00  0.7199317E-03
  0.4595959E+00  0.0000000E+00  0.2525252E-01 -0.1555938E-04  0.0000000E+00  0.7156005E-03
  0.4696970E+00  0.0000000E+00  0.2525252E-01 -0.2353678E-04  0.0000000E+00  0.7081061E-03
  0.4797980E+00  0.0000000E+00  0.2525252E-01 -0.3353184E-04  0.0000000E+00  0.6958857E-03
  0.4898990E+00  0.0000000E+00  0.2525252E-01 -0.4127399E-04  0.0000000E+00  0.6798957E-03
  0.5000000E+00  0.0000000E+00  0.2525252E-01 -0.4783847E-04  0.0000000E+00  0.6646169E-03
  0.5101010E+00  0.0000000E+00  0.2525252E-01 -0.8005786E-04  0.0000000E+00  0.6339147E-03
  0.5202020E+00  0.0000000E+00  0.2525252E-01 -0.7777653E-04  0.0000000E+00  0.5913280E-03
  0.5303030E+00  0.0000000E+00  0.2525252E-01 -0.7501700E-04  0.0000000E+00  0.5558391E-03
  0.5404040E+00  0.0000000E+00  0.2525252E-01 -0.7227253E-04  0.0000000E+00  0.5232534E-03
  0.5505050E+00  0.0000000E+00  0.2525252E-01 -0.6930339E-04  0.0000000E+00  0.4924156E-03
  0.5606061E+00  0.0000000E+00  0.2525252E-01 -0.6603315E-04  0.0000000E+00  0.4631755E-03
  0.5707071E+00  0.0000000E+00  0.2525252E-01 -0.6254829E-04  0.0000000E+00  0.4355953E-03
  0.5808081E+00  0.0000000E+00  0.2525252E-01 -0.5898273E-04  0.0000000E+00  0.4097102E-03
  0.5909091E+00  0.0000000E+00  0.2525252E-01 -0.5545310E-04  0.0000000E+00  0.3854926E-03
  0.6010101E+00  0.0000000E+00  0.2525252E-01 -0.5204001E-04  0.0000000E+00  0.3628701E-03
  0.6111111E+00  0.0000000E+00  0.2525252E-01 -0.4879053E-04  0.0000000E+00  0.3417477E-03
  0.6212121E+00  0.0000000E+00  0.2525252E-01 -0.4572684E-04  0.0000000E+00  0.3220230E-03
  0.6313131E+00  0.0000000E+00  0.2525252E-01 -0.4285478E-04  0.0000000E+00  0.3035950E-03
  0.6414142E+00  0.0000000E+00  0.2525252E-01 -0.4017042E-04  0.0000000E+00  0.2863682E-03
  0.6515151E+00  0.0000000E+00  0.2525252E-01 -0.3766459E-04  0.0000000E+00  0.2702543E-03
  0.6616161E+00  0.0000000E+00  0.2525252E-01 -0.3532563E-04  0.0000000E+00  0.2551727E-03
  0.6717172E+00  0.0000000E+00  0.2525252E-01 -0.3314109E-04  0.0000000E+00  0.2410499E-03
  0.6818182E+00  0.0000000E+00  0.2525252E-01 -0.3109860E-04  0.0000000E+00  0.2278193E-03
  0.6919192E+00  0.0000000E+00  0.2525252E-01 -0.2918638E-04  0.0000000E+00  0.2154203E-03
  0.7020202E+00  0.0000000E+00  0.2525252E-01 -0.2739339E-04  0.0000000E+00  0.2037981E-03
  0.7121212E+00  0.0000000E+00  0.2525252E-01 -0.2570946E-04  0.0000000E+00  0.1929029E-03
  0.7222222E+00  0.0000000E+00  0.2525252E-01 -0.2412531E-04  0.0000000E+00  0.1826891E-03
  0.7323232E+00  0.0000000E+00  0.2525252E-01 -0.2263247E-04  0.0000000E+00  0.1731156E-03
  0.7424242E+00  0.0000000E+00  0.2525252E-01 -0.2122330E-04  0.0000000E+00  0.1641446E-03
  0.7525253E+00  0.0000000E+00  0.2525252E-01 -0.1989092E-04  0.0000000E+00  0.1557418E-03
  0.7626263E+00  0.0000000E+00  0.2525252E-01 -0.1862911E-04  0.0000000E+00  0.1478758E-03
  0.7727273E+00  0.0000000E+00  0.2525252E-01 -0.1743225E-04  0.0000000E+00  0.1405175E-03
  0.7828283E+00  0.0000000E+00  0.2525252E-01 -0.1629530E-04  0.0000000E+00  0.1336405E-03
  0.7929293E+00  0.0000000E+00  0.2525252E-01 -0.1521365E-04  0.0000000E+00  0.1272203E-03
  0.8030303E+00  0.0000000E+00  0.2525252E-01 -0.1418309E-04  0.0000000E+00  0.1212343E-03
  0.8131313E+00  0.0000000E+00  0.2525252E-01 -0.1319978E-04  0.0000000E+00  0.1156619E-03
  0.8232324E+00  0.0000000E+00  0.2525252E-01 -0.1226014E-04  0.0000000E+00  0.1104838E-03
  0.8333333E+00  0.0000000E+00  0.2525252E-01 -0.1136084E-04  0.0000000E+00  0.1056823E-03
  0.8434343E+00  0.0000000E+00  0.2525252E-01 -0.1049877E-04  0.0000000E+00  0.1012410E-03
  0.8535354E+00  0.0000000E+00  0.2525252E-01 -0.9670989E-05  0.0000000E+00  0.9714493E-04
  0.8636364E+00  0.0000000E+00  0.2525252E-01 -0.8874694E-05  0.0000000E+00  0.9338029E-04
  0.8737374E+00  0.0000000E+00  0.2525252E-01 -0.8107225E-05  0.0000000E+00  0.8993442E-04
  0.8838384E+00  0.0000000E+00  0.2525252E-01 -0.7366033E-05  0.0000000E+00  0.8679578E-04
  0.8939394E+00  0.0000000E+00  0.2525252E-01 -0.6648669E-05  0.0000000E+00  0.8395390E-04
  0.9040404E+00  0.0000000E+00  0.2525252E-01 -0.5952771E-05  0.0000000E+00  0.8139932E-04
  0.9141414E+00  0.0000000E+00  0.2525252E-01 -0.5276057E-05  0.0000000E+00  0.7912356E-04
  0.9242424E+00  0.0000000E+00  0.2525252E-01 -0.4616315E-05  0.0000000E+00  0.7711909E-04
  0.9343435E+00  0.0000000E+00  0.2525252E-01 -0.3971395E-05  0.0000000E+00  0.7537929E-04
  0.9444444E+00  0.0000000E+00  0.2525252E-01 -0.3339201E-05  0.0000000E+00  0.7389845E-04
  0.9545454E+00  0.0000000E+00  0.2525252E-01 -0.2717687E-05  0.0000000E+00  0.7267170E-04
  0.9646465E+00  0.0000000E+00  0.2525252E-01 -0.2104846E-05  0.0000000E+00  0.7169504E-04
  0.9747475E+00  0.0000000E+00  0.2525252E-01 -0.1498708E-05  0.0000000E+00  0.7096529E-04
  0.9848485E+00  0.0000000E+00  0.2525252E-01 -0.8973307E-06  0.0000000E+00  0.7048007E-04
  0.9974747E+00  0.0000000E+00  0.2525252E-01 -0.2987957E-06  0.0000000E+00  0.7023785E-04
  0.5050505E-02  0.0000000E+00  0.3535353E-01  0.3760876E-06  0.0000000E+00  0.4950393E-04
  0.1515152E-01  0.0000000E+00  0.3535353E-01  0.1130458E-05  0.0000000E+00  0.4971944E-04
  0.2525252E-01  0.0000000E+00  0.3535353E-01  0.1891450E-05  0.0000000E+00  0.5015166E-04
  0.3535353E-01  0.0000000E+00  0.3535353E-01  0.2663582E-05  0.0000000E+00  0.5080307E-04
  0.4545455E-01  0.0000000E+00  0.3535353E-01  0.3451523E-05  0.0000000E+00  0.5167745E-04
  0.5555556E-01  0.0000000E+00  0.3535353E-01  0.4260154E-05  0.0000000E+00  0.5277991E-04
  0.6565657E-01  0.0000000E+00  0.3535353E-01  0.5094634E-05  0.0000000E+00  0.5411697E-04
  0.7575758E-01  0.0000000E+00  0.3535353E-01  0.5960478E-05  0.0000000E+00  0.5569665E-04
  0.8585858E-01  0.0000000E+00  0.3535353E-01  0.6863634E-05  0.0000000E+00  0.5752858E-04
  0.9595960E-01  0.0000000E+00  0.3535353E-01  0.7810585E-05  0.0000000E+00  0.5962412E-04
  0.1060606E+00  0.0000000E+00  0.3535353E-01  0.8808456E-05  0.0000000E+00  0.6199651E-04
  0.1161616E+00  0.0000000E+00  0.3535353E-01  0.9865144E-05  0.0000000E+00  0.6466108E-04
  0.1262626E+00  0.0000000E+00  0.3535353E-01  0.1098947E-04  0.0000000E+00  0.6763546E-04
  0.1363636E+00  0.0000000E+00  0.3535353E-01  0.1219137E-04  0.0000000E+00  0.7093983E-04
  0.1464646E+00  0.0000000E+00  0.3535353E-01  0.1348211E-04  0.0000000E+00  0.7459730E-04
  0.1565657E+00  0.0000000E+00  0.3535353E-01  0.1487458E-04  0.0000000E+00  0.7863418E-04
  0.1666667E+00  0.0000000E+00  0.3535353E-01  0.1638361E-04  0.0000000E+00  0.8308054E-04
  0.1767677E+00  0.0000000E+00  0.3535353E-01  0.1802646E-04  0.0000000E+00  0.8797067E-04
  0.1868687E+00  0.0000000E+00  0.3535353E-01  0.1982332E-04  0.0000000E+00  0.9334373E-04
  0.1969697E+00  0.0000000E+00  0.3535353E-01  0.2179806E-04  0.0000000E+00  0.9924456E-04
  0.2070707E+00  0.0000000E+00  0.3535353E-01  0.2397920E-04  0.0000000E+00  0.1057246E-03
  0.2171717E+00  0.0000000E+00  0.3535353E-01  0.2640116E-04  0.0000000E+00  0.1128428E-03
  0.2272727E+00  0.0000000E+00  0.3535353E-01  0.2910595E-04  0.0000000E+00  0.1206676E-03
  0.2373737E+00  0.0000000E+00  0.3535353E-01  0.3214556E-04  0.0000000E+00  0.1292778E-03
  0.2474747E+00  0.0000000E+00  0.3535353E-01  0.3558517E-04  0.0000000E+00  0.1387650E-03
  0.2575758E+00  0.0000000E+00  0.3535353E-01  0.3950782E-04  0.0000000E+00  0.1492361E-03
  0.2676768E+00  0.0000000E+00  0.3535353E-01  0.4402104E-04  0.0000000E+00  0.1608155E-03
  0.2777778E+00  0.0000000E+00  0.3535353E-01  0.4926653E-04  0.0000000E+00  0.1736483E-03
  0.2878788E+00  0.0000000E+00  0.3535353E-01  0.5543472E-04  0.0000000E+00  0.1879026E-03
  0.2979798E+00  0.0000000E+00  0.3535353E-01  0.6278650E-04  0.0000000E+00  0.2037698E-03