title = "dataset water"
variables = "x", "y", "z", "vx", "vy", "vz"
zone t = "velocities, solution time =  3.300E+01 days        " i =   99, j =   99, k =    1,  f=point
  0.5050505E-02  0.0000000E+00  0.5050505E-02  0.1083935E-07  0.0000000E+00  0.1695493E-05
  0.1515152E-01  0.0000000E+00  0.5050505E-02  0.3256860E-07  0.0000000E+00  0.1739037E-05
  0.2525252E-01  0.0000000E+00  0.5050505E-02  0.5445011E-07  0.0000000E+00  0.1826328E-05
  0.3535353E-01  0.0000000E+00  0.5050505E-02  0.7658718E-07  0.0000000E+00  0.1957778E-05
  0.4545455E-01  0.0000000E+00  0.5050505E-02  0.9908574E-07  0.0000000E+00  0.2134006E-05
  0.5555556E-01  0.0000000E+00  0.5050505E-02  0.1220554E-06  0.0000000E+00  0.2355851E-05
  0.6565657E-01  0.0000000E+00  0.5050505E-02  0.1456107E-06  0.0000000E+00  0.2624377E-05
  0.7575758E-01  0.0000000E+00  0.5050505E-02  0.1698723E-06  0.0000000E+00  0.2940884E-05
  0.8585858E-01  0.0000000E+00  0.5050505E-02  0.1949685E-06  0.0000000E+00  0.3306922E-05
  0.9595960E-01  0.0000000E+00  0.5050505E-02  0.2210374E-06  0.0000000E+00  0.3724313E-05
  0.1060606E+00  0.0000000E+00  0.5050505E-02  0.2482279E-06  0.0000000E+00  0.4195164E-05
  0.1161616E+00  0.0000000E+00  0.5050505E-02  0.2767021E-06  0.0000000E+00  0.4721898E-05
  0.1262626E+00  0.0000000E+00  0.5050505E-02  0.3066377E-06  0.0000000E+00  0.5307281E-05
  0.1363636E+00  0.0000000E+00  0.5050505E-02  0.3382310E-06  0.0000000E+00  0.5954455E-05
  0.1464646E+00  0.0000000E+00  0.5050505E-02  0.3717000E-06  0.0000000E+00  0.6666980E-05
  0.1565657E+00  0.0000000E+00  0.5050505E-02  0.4072891E-06  0.0000000E+00  0.7448884E-05
  0.1666667E+00  0.0000000E+00  0.5050505E-02  0.4452734E-06  0.0000000E+00  0.8304719E-05
  0.1767677E+00  0.0000000E+00  0.5050505E-02  0.4859652E-06  0.0000000E+00  0.9239630E-05
  0.1868687E+00  0.0000000E+00  0.5050505E-02  0.5297210E-06  0.0000000E+00  0.1025944E-04
  0.1969697E+00  0.0000000E+00  0.5050505E-02  0.5769507E-06  0.0000000E+00  0.1137074E-04
  0.2070707E+00  0.0000000E+00  0.5050505E-02  0.6281283E-06  0.0000000E+00  0.1258103E-04
  0.2171717E+00  0.0000000E+00  0.5050505E-02  0.6838063E-06  0.0000000E+00  0.1389883E-04
  0.2272727E+00  0.0000000E+00  0.5050505E-02  0.7446325E-06  0.0000000E+00  0.1533388E-04
  0.2373737E+00  0.0000000E+00  0.5050505E-02  0.8113718E-06  0.0000000E+00  0.1689737E-04
  0.2474747E+00  0.0000000E+00  0.5050505E-02  0.8849329E-06  0.0000000E+00  0.1860216E-04
  0.2575758E+00  0.0000000E+00  0.5050505E-02  0.9664017E-06  0.0000000E+00  0.2046314E-04
  0.2676768E+00  0.0000000E+00  0.5050505E-02  0.1057082E-05  0.0000000E+00  0.2249764E-04
  0.2777778E+00  0.0000000E+00  0.5050505E-02  0.1158542E-05  0.0000000E+00  0.2472587E-04
  0.2878788E+00  0.0000000E+00  0.5050505E-02  0.1272672E-05  0.0000000E+00  0.2717160E-04
  0.2979798E+00  0.0000000E+00  0.5050505E-02  0.1401733E-05  0.0000000E+00  0.2986277E-04
  0.3080808E+00  0.0000000E+00  0.5050505E-02  0.1548395E-05  0.0000000E+00  0.3283237E-04
  0.3181818E+00  0.0000000E+00  0.5050505E-02  0.1715725E-05  0.0000000E+00  0.3611924E-04
  0.3282828E+00  0.0000000E+00  0.5050505E-02  0.1907053E-05  0.0000000E+00  0.3976874E-04
  0.3383838E+00  0.0000000E+00  0.5050505E-02  0.2125568E-05  0.0000000E+00  0.4383292E-04
  0.3484848E+00  0.0000000E+00  0.5050505E-02  0.2373398E-05  0.0000000E+00  0.4836936E-04
  0.3585859E+00  0.0000000E+00  0.5050505E-02  0.2649711E-05  0.0000000E+00  0.5343713E-04
  0.3686869E+00  0.0000000E+00  0.5050505E-02  0.2947139E-05  0.0000000E+00  0.5908724E-04
  0.3787879E+00  0.0000000E+00  0.5050505E-02  0.3245715E-05  0.0000000E+00  0.6534335E-04
  0.3888889E+00  0.0000000E+00  0.5050505E-02  0.3504088E-05  0.0000000E+00  0.7216729E-04
  0.3989899E+00  0.0000000E+00  0.5050505E-02  0.3650538E-05  0.0000000E+00  0.7940649E-04
  0.4090909E+00  0.0000000E+00  0.5050505E-02  0.3583727E-05  0.0000000E+00  0.8673264E-04
  0.4191919E+00  0.0000000E+00  0.5050505E-02  0.3205056E-05  0.0000000E+00  0.9361367E-04
  0.4292929E+00  0.0000000E+00  0.5050505E-02  0.2503542E-05  0.0000000E+00  0.9940455E-04
  0.4393939E+00  0.0000000E+00  0.5050505E-02  0.1638122E-05  0.0000000E+00  0.1036088E-03
  0.4494950E+00  0.0000000E+00  0.5050505E-02  0.7962613E-06  0.0000000E+00  0.1060812E-03
  0.4595959E+00  0.0000000E+00  0.5050505E-02  0.8056769E-07  0.0000000E+00  0.1069720E-03
  0.4696970E+00  0.0000000E+00  0.5050505E-02 -0.4801392E-06  0.0000000E+00  0.1065661E-03
  0.4797980E+00  0.0000000E+00  0.5050505E-02 -0.8967310E-06  0.0000000E+00  0.1051674E-03
  0.4898990E+00  0.0000000E+00  0.5050505E-02 -0.1195103E-05  0.0000000E+00  0.1030429E-03
  0.5000000E+00  0.0000000E+00  0.5050505E-02 -0.1402921E-05  0.0000000E+00  0.1004051E-03
  0.5101010E+00  0.0000000E+00  0.5050505E-02 -0.1543954E-05  0.0000000E+00  0.9741428E-04
  0.5202020E+00  0.0000000E+00  0.5050505E-02 -0.1636545E-05  0.0000000E+00  0.9418757E-04
  0.5303030E+00  0.0000000E+00  0.5050505E-02 -0.1694015E-05  0.0000000E+00  0.9081001E-04
  0.5404040E+00  0.0000000E+00  0.5050505E-02 -0.1725722E-05  0.0000000E+00  0.8734347E-04
  0.5505050E+00  0.0000000E+00  0.5050505E-02 -0.1738173E-05  0.0000000E+00  0.8383367E-04
  0.5606061E+00  0.0000000E+00  0.5050505E-02 -0.1735920E-05  0.0000000E+00  0.8031504E-04
  0.5707071E+00  0.0000000E+00  0.5050505E-02 -0.1722227E-05  0.0000000E+00  0.7681406E-04
  0.5808081E+00  0.0000000E+00  0.5050505E-02 -0.1699505E-05  0.0000000E+00  0.7335140E-04
  0.5909091E+00  0.0000000E+00  0.5050505E-02 -0.1669603E-05  0.0000000E+00  0.6994342E-04
  0.6010101E+00  0.0000000E+00  0.5050505E-02 -0.1633981E-05  0.0000000E+00  0.6660308E-04
  0.6111111E+00  0.0000000E+00  0.5050505E-02 -0.1593821E-05  0.0000000E+00  0.6334067E-04
  0.6212121E+00  0.0000000E+00  0.5050505E-02 -0.1550099E-05  0.0000000E+00  0.6016426E-04
  0.6313131E+00  0.0000000E+00  0.5050505E-02 -0.1503625E-05  0.0000000E+00  0.5708015E-04
  0.6414142E+00  0.0000000E+00  0.5050505E-02 -0.1455080E-05  0.0000000E+00  0.5409309E-04
  0.6515151E+00  0.0000000E+00  0.5050505E-02 -0.1405032E-05  0.0000000E+00  0.5120659E-04
  0.6616161E+00  0.0000000E+00  0.5050505E-02 -0.1353961E-05  0.0000000E+00  0.4842309E-04
  0.6717172E+00  0.0000000E+00  0.5050505E-02 -0.1302268E-05  0.0000000E+00  0.4574414E-04
  0.6818182E+00  0.0000000E+00  0.5050505E-02 -0.1250293E-05  0.0000000E+00  0.4317056E-04
  0.6919192E+00  0.0000000E+00  0.5050505E-02 -0.1198317E-05  0.0000000E+00  0.4070253E-04
  0.7020202E+00  0.0000000E+00  0.5050505E-02 -0.1146578E-05  0.0000000E+00  0.3833971E-04
  0.7121212E+00  0.0000000E+00  0.5050505E-02 -0.1095272E-05  0.0000000E+00  0.3608136E-04
  0.7222222E+00  0.0000000E+00  0.5050505E-02 -0.1044562E-05  0.0000000E+00  0.3392634E-04
  0.7323232E+00  0.0000000E+00  0.5050505E-02 -0.9945808E-06  0.0000000E+00  0.3187324E-04
  0.7424242E+00  0.0000000E+00  0.5050505E-02 -0.9454364E-06  0.0000000E+00  0.2992041E-04
  0.7525253E+00  0.0000000E+00  0.5050505E-02 -0.8972133E-06  0.0000000E+00  0.2806602E-04
  0.7626263E+00  0.0000000E+00  0.5050505E-02 -0.8499762E-06  0.0000000E+00  0.2630807E-04
  0.7727273E+00  0.0000000E+00  0.5050505E-02 -0.8037726E-06  0.0000000E+00  0.2464447E-04
  0.7828283E+00  0.0000000E+00  0.5050505E-02 -0.7586337E-06  0.0000000E+00  0.2307307E-04
  0.7929293E+00  0.0000000E+00  0.5050505E-02 -0.7145774E-06  0.0000000E+00  0.2159164E-04
  0.8030303E+00  0.0000000E+00  0.5050505E-02 -0.6716090E-06  0.0000000E+00  0.2019796E-04
  0.8131313E+00  0.0000000E+00  0.5050505E-02 -0.6297229E-06  0.0000000E+00  0.1888980E-04
  0.8232324E+00  0.0000000E+00  0.5050505E-02 -0.5889039E-06  0.0000000E+00  0.1766497E-04
  0.8333333E+00  0.0000000E+00  0.5050505E-02 -0.5491282E-06  0.0000000E+00  0.1652130E-04
  0.8434343E+00  0.0000000E+00  0.5050505E-02 -0.5103647E-06  0.0000000E+00  0.1545669E-04
  0.8535354E+00  0.0000000E+00  0.5050505E-02 -0.4725758E-06  0.0000000E+00  0.1446913E-04
  0.8636364E+00  0.0000000E+00  0.5050505E-02 -0.4357179E-06  0.0000000E+00  0.1355667E-04
  0.8737374E+00  0.0000000E+00  0.5050505E-02 -0.3997428E-06  0.0000000E+00  0.1271746E-04
  0.8838384E+00  0.0000000E+00  0.5050505E-02 -0.3645981E-06  0.0000000E+00  0.1194976E-04
  0.8939394E+00  0.0000000E+00  0.5050505E-02 -0.3302276E-06  0.0000000E+00  0.1125195E-04
  0.9040404E+00  0.0000000E+00  0.5050505E-02 -0.2965720E-06  0.0000000E+00  0.1062250E-04
  0.9141414E+00  0.0000000E+00  0.5050505E-02 -0.2635696E-06  0.0000000E+00  0.1006003E-04
  0.9242424E+00  0.0000000E+00  0.5050505E-02 -0.2311564E-06  0.0000000E+00  0.9563274E-05
  0.9343435E+00  0.0000000E+00  0.5050505E-02 -0.1992665E-06  0.0000000E+00  0.9131110E-05
  0.9444444E+00  0.0000000E+00  0.5050505E-02 -0.1678328E-06  0.0000000E+00  0.8762542E-05
  0.9545454E+00  0.0000000E+00  0.5050505E-02 -0.1367867E-06  0.0000000E+00  0.8456716E-05
  0.9646465E+00  0.0000000E+00  0.5050505E-02 -0.1060587E-06  0.0000000E+00  0.8212916E-05
  0.9747475E+00  0.0000000E+00  0.5050505E-02 -0.7557883E-07  0.0000000E+00  0.8030569E-05
  0.9848485E+00  0.0000000E+00  0.5050505E-02 -0.4527634E-07  0.0000000E+00  0.7909243E-05
  0.9974747E+00  0.0000000E+00  0.5050505E-02 -0.1508030E-07  0.0000000E+00  0.7848652E-05
  0.5050505E-02  0.0000000E+00  0.1515152E-01  0.3249348E-07  0.0000000E+00  0.1716970E-05
  0.1515152E-01  0.0000000E+00  0.1515152E-01  0.9763183E-07  0.0000000E+00  0.1760541E-05
  0.2525252E-01  0.0000000E+00  0.1515152E-01  0.1632261E-06  0.0000000E+00  0.1847887E-05
  0.3535353E-01  0.0000000E+00  0.1515152E-01  0.2295855E-06  0.0000000E+00  0.1979415E-05
  0.4545455E-01  0.0000000E+00  0.1515152E-01  0.2970271E-06  0.0000000E+00  0.2155745E-05
  0.5555556E-01  0.0000000E+00  0.1515152E-01  0.3658790E-06  0.0000000E+00  0.2377711E-05
  0.6565657E-01  0.0000000E+00  0.1515152E-01  0.4364840E-06  0.0000000E+00  0.2646371E-05
  0.7575758E-01  0.0000000E+00  0.1515152E-01  0.5092031E-06  0.0000000E+00  0.2963022E-05
  0.8585858E-01  0.0000000E+00  0.1515152E-01  0.5844202E-06  0.0000000E+00  0.3329206E-05
  0.9595960E-01  0.0000000E+00  0.1515152E-01  0.6625482E-06  0.0000000E+00  0.3746737E-05
  0.1060606E+00  0.0000000E+00  0.1515152E-01  0.7440328E-06  0.0000000E+00  0.4217712E-05
  0.1161616E+00  0.0000000E+00  0.1515152E-01  0.8293585E-06  0.0000000E+00  0.4744541E-05
  0.1262626E+00  0.0000000E+00  0.1515152E-01  0.9190563E-06  0.0000000E+00  0.5329974E-05
  0.1363636E+00  0.0000000E+00  0.1515152E-01  0.1013713E-05  0.0000000E+00  0.5977135E-05
  0.1464646E+00  0.0000000E+00  0.1515152E-01  0.1113979E-05  0.0000000E+00  0.6689562E-05
  0.1565657E+00  0.0000000E+00  0.1515152E-01  0.1220586E-05  0.0000000E+00  0.7471254E-05
  0.1666667E+00  0.0000000E+00  0.1515152E-01  0.1334353E-05  0.0000000E+00  0.8326730E-05
  0.1767677E+00  0.0000000E+00  0.1515152E-01  0.1456214E-05  0.0000000E+00  0.9261092E-05
  0.1868687E+00  0.0000000E+00  0.1515152E-01  0.1587231E-05  0.0000000E+00  0.1028011E-04
  0.1969697E+00  0.0000000E+00  0.1515152E-01  0.1728627E-05  0.0000000E+00  0.1139032E-04
  0.2070707E+00  0.0000000E+00  0.1515152E-01  0.1881815E-05  0.0000000E+00  0.1259913E-04
  0.2171717E+00  0.0000000E+00  0.1515152E-01  0.2048439E-05  0.0000000E+00  0.1391498E-04
  0.2272727E+00  0.0000000E+00  0.1515152E-01  0.2230430E-05  0.0000000E+00  0.1534748E-04
  0.2373737E+00  0.0000000E+00  0.1515152E-01  0.2430063E-05  0.0000000E+00  0.1690766E-04
  0.2474747E+00  0.0000000E+00  0.1515152E-01  0.2650043E-05  0.0000000E+00  0.1860821E-04
  0.2575758E+00  0.0000000E+00  0.1515152E-01  0.2893603E-05  0.0000000E+00  0.2046377E-04
  0.2676768E+00  0.0000000E+00  0.1515152E-01  0.3164623E-05  0.0000000E+00  0.2249139E-04
  0.2777778E+00  0.0000000E+00  0.1515152E-01  0.3467782E-05  0.0000000E+00  0.2471095E-04
  0.2878788E+00  0.0000000E+00  0.1515152E-01  0.3808726E-05  0.0000000E+00  0.2714582E-04
  0.2979798E+00  0.0000000E+00  0.1515152E-01  0.4194240E-05  0.0000000E+00  0.2982357E-04
  0.3080808E+00  0.0000000E+00  0.1515152E-01  0.4632404E-05  0.0000000E+00  0.3277685E-04
  0.3181818E+00  0.0000000E+00  0.1515152E-01  0.5132618E-05  0.0000000E+00  0.3604444E-04
  0.3282828E+00  0.0000000E+00  0.1515152E-01  0.5705338E-05  0.0000000E+00  0.3967233E-04
  0.3383838E+00  0.0000000E+00  0.1515152E-01  0.6361131E-05  0.0000000E+00  0.4371470E-04
  0.3484848E+00  0.0000000E+00  0.1515152E-01  0.7108343E-05  0.0000000E+00  0.4823419E-04
  0.3585859E+00  0.0000000E+00  0.1515152E-01  0.7948041E-05  0.0000000E+00  0.5330053E-04
  0.3686869E+00  0.0000000E+00  0.1515152E-01  0.8864034E-05  0.0000000E+00  0.5898497E-04
  0.3787879E+00  0.0000000E+00  0.1515152E-01  0.9804765E-05  0.0000000E+00  0.6534575E-04
  0.3888889E+00  0.0000000E+00  0.1515152E-01  0.1065423E-04  0.0000000E+00  0.7239595E-04
  0.3989899E+00  0.0000000E+00  0.1515152E-01  0.1119505E-04  0.0000000E+00  0.8004015E-04
  0.4090909E+00  0.0000000E+00  0.1515152E-01  0.1108916E-04  0.0000000E+00  0.8797062E-04
  0.4191919E+00  0.0000000E+00  0.1515152E-01  0.9955374E-05  0.0000000E+00  0.9555455E-04
  0.4292929E+00  0.0000000E+00  0.1515152E-01  0.7680550E-05  0.0000000E+00  0.1018774E-03
  0.4393939E+00  0.0000000E+00  0.1515152E-01  0.4885509E-05  0.0000000E+00  0.1062365E-03
  0.4494950E+00  0.0000000E+00  0.1515152E-01  0.2248276E-05  0.0000000E+00  0.1085444E-03
  0.4595959E+00  0.0000000E+00  0.1515152E-01  0.6699719E-07  0.0000000E+00  0.1091177E-03
  0.4696970E+00  0.0000000E+00  0.1515152E-01 -0.1606265E-05  0.0000000E+00  0.1083643E-03
  0.4797980E+00  0.0000000E+00  0.1515152E-01 -0.2829703E-05  0.0000000E+00  0.1066511E-03
  0.4898990E+00  0.0000000E+00  0.1515152E-01 -0.3695250E-05  0.0000000E+00  0.1042670E-03
  0.5000000E+00  0.0000000E+00  0.1515152E-01 -0.4292435E-05  0.0000000E+00  0.1014252E-03
  0.5101010E+00  0.0000000E+00  0.1515152E-01 -0.4694653E-05  0.0000000E+00  0.9827741E-04
  0.5202020E+00  0.0000000E+00  0.1515152E-01 -0.4956840E-05  0.0000000E+00  0.9493034E-04
  0.5303030E+00  0.0000000E+00  0.1515152E-01 -0.5118008E-05  0.0000000E+00  0.9145938E-04
  0.5404040E+00  0.0000000E+00  0.1515152E-01 -0.5205141E-05  0.0000000E+00  0.8791884E-04
  0.5505050E+00  0.0000000E+00  0.1515152E-01 -0.5236797E-05  0.0000000E+00  0.8434889E-04
  0.5606061E+00  0.0000000E+00  0.1515152E-01 -0.5225917E-05  0.0000000E+00  0.8078010E-04
  0.5707071E+00  0.0000000E+00  0.1515152E-01 -0.5181777E-05  0.0000000E+00  0.7723633E-04
  0.5808081E+00  0.0000000E+00  0.1515152E-01 -0.5111272E-05  0.0000000E+00  0.7373650E-04
  0.5909091E+00  0.0000000E+00  0.1515152E-01 -0.5019720E-05  0.0000000E+00  0.7029574E-04
  0.6010101E+00  0.0000000E+00  0.1515152E-01 -0.4911358E-05  0.0000000E+00  0.6692618E-04
  0.6111111E+00  0.0000000E+00  0.1515152E-01 -0.4789642E-05  0.0000000E+00  0.6363752E-04
  0.6212121E+00  0.0000000E+00  0.1515152E-01 -0.4657434E-05  0.0000000E+00  0.6043740E-04
  0.6313131E+00  0.0000000E+00  0.1515152E-01 -0.4517123E-05  0.0000000E+00  0.5733175E-04
  0.6414142E+00  0.0000000E+00  0.1515152E-01 -0.4370717E-05  0.0000000E+00  0.5432508E-04
  0.6515151E+00  0.0000000E+00  0.1515152E-01 -0.4219905E-05  0.0000000E+00  0.5142066E-04
  0.6616161E+00  0.0000000E+00  0.1515152E-01 -0.4066104E-05  0.0000000E+00  0.4862076E-04
  0.6717172E+00  0.0000000E+00  0.1515152E-01 -0.3910510E-05  0.0000000E+00  0.4592678E-04
  0.6818182E+00  0.0000000E+00  0.1515152E-01 -0.3754125E-05  0.0000000E+00  0.4333941E-04
  0.6919192E+00  0.0000000E+00  0.1515152E-01 -0.3597790E-05  0.0000000E+00  0.4085873E-04
  0.7020202E+00  0.0000000E+00  0.1515152E-01 -0.3442208E-05  0.0000000E+00  0.3848430E-04
  0.7121212E+00  0.0000000E+00  0.1515152E-01 -0.3287965E-05  0.0000000E+00  0.3621528E-04
  0.7222222E+00  0.0000000E+00  0.1515152E-01 -0.3135545E-05  0.0000000E+00  0.3405047E-04
  0.7323232E+00  0.0000000E+00  0.1515152E-01 -0.2985343E-05  0.0000000E+00  0.3198839E-04
  0.7424242E+00  0.0000000E+00  0.1515152E-01 -0.2837678E-05  0.0000000E+00  0.3002732E-04
  0.7525253E+00  0.0000000E+00  0.1515152E-01 -0.2692803E-05  0.0000000E+00  0.2816537E-04
  0.7626263E+00  0.0000000E+00  0.1515152E-01 -0.2550909E-05  0.0000000E+00  0.2640050E-04
  0.7727273E+00  0.0000000E+00  0.1515152E-01 -0.2412136E-05  0.0000000E+00  0.2473057E-04
  0.7828283E+00  0.0000000E+00  0.1515152E-01 -0.2276578E-05  0.0000000E+00  0.2315338E-04
  0.7929293E+00  0.0000000E+00  0.1515152E-01 -0.2144284E-05  0.0000000E+00  0.2166666E-04
  0.8030303E+00  0.0000000E+00  0.1515152E-01 -0.2015271E-05  0.0000000E+00  0.2026815E-04
  0.8131313E+00  0.0000000E+00  0.1515152E-01 -0.1889518E-05  0.0000000E+00  0.1895559E-04
  0.8232324E+00  0.0000000E+00  0.1515152E-01 -0.1766981E-05  0.0000000E+00  0.1772674E-04
  0.8333333E+00  0.0000000E+00  0.1515152E-01 -0.1647585E-05  0.0000000E+00  0.1657942E-04
  0.8434343E+00  0.0000000E+00  0.1515152E-01 -0.1531237E-05  0.0000000E+00  0.1551151E-04
  0.8535354E+00  0.0000000E+00  0.1515152E-01 -0.1417822E-05  0.0000000E+00  0.1452095E-04
  0.8636364E+00  0.0000000E+00  0.1515152E-01 -0.1307209E-05  0.0000000E+00  0.1360579E-04
  0.8737374E+00  0.0000000E+00  0.1515152E-01 -0.1199253E-05  0.0000000E+00  0.1276414E-04
  0.8838384E+00  0.0000000E+00  0.1515152E-01 -0.1093794E-05  0.0000000E+00  0.1199425E-04
  0.8939394E+00  0.0000000E+00  0.1515152E-01 -0.9906636E-06  0.0000000E+00  0.1129448E-04
  0.9040404E+00  0.0000000E+00  0.1515152E-01 -0.8896837E-06  0.0000000E+00  0.1066330E-04
  0.9141414E+00  0.0000000E+00  0.1515152E-01 -0.7906679E-06  0.0000000E+00  0.1009931E-04
  0.9242424E+00  0.0000000E+00  0.1515152E-01 -0.6934238E-06  0.0000000E+00  0.9601224E-05
  0.9343435E+00  0.0000000E+00  0.1515152E-01 -0.5977533E-06  0.0000000E+00  0.9167917E-05
  0.9444444E+00  0.0000000E+00  0.1515152E-01 -0.5034541E-06  0.0000000E+00  0.8798385E-05
  0.9545454E+00  0.0000000E+00  0.1515152E-01 -0.4103202E-06  0.0000000E+00  0.8491764E-05
  0.9646465E+00  0.0000000E+00  0.1515152E-01 -0.3181430E-06  0.0000000E+00  0.8247335E-05
  0.9747475E+00  0.0000000E+00  0.1515152E-01 -0.2267115E-06  0.0000000E+00  0.8064520E-05
  0.9848485E+00  0.0000000E+00  0.1515152E-01 -0.1358135E-06  0.0000000E+00  0.7942883E-05
  0.9974747E+00  0.0000000E+00  0.1515152E-01 -0.4523561E-07  0.0000000E+00  0.7882137E-05
  0.5050505E-02  0.0000000E+00  0.2525252E-01  0.5410578E-07  0.0000000E+00  0.1760039E-05
  0.1515152E-01  0.0000000E+00  0.2525252E-01  0.1625688E-06  0.0000000E+00  0.1803666E-05
  0.2525252E-01  0.0000000E+00  0.2525252E-01  0.2717891E-06  0.0000000E+00  0.1891123E-05
  0.3535353E-01  0.0000000E+00  0.2525252E-01  0.3822802E-06  0.0000000E+00  0.2022813E-05
  0.4545455E-01  0.0000000E+00  0.2525252E-01  0.4945682E-06  0.0000000E+00  0.2199351E-05
  0.5555556E-01  0.0000000E+00  0.2525252E-01  0.6091980E-06  0.0000000E+00  0.2421565E-05
  0.6565657E-01  0.0000000E+00  0.2525252E-01  0.7267380E-06  0.0000000E+00  0.2690505E-05
  0.7575758E-01  0.0000000E+00  0.2525252E-01  0.8477875E-06  0.0000000E+00  0.3007454E-05
  0.8585858E-01  0.0000000E+00  0.2525252E-01  0.9729833E-06  0.0000000E+00  0.3373945E-05
  0.9595960E-01  0.0000000E+00  0.2525252E-01  0.1103010E-05  0.0000000E+00  0.3791772E-05
  0.1060606E+00  0.0000000E+00  0.2525252E-01  0.1238606E-05  0.0000000E+00  0.4263014E-05
  0.1161616E+00  0.0000000E+00  0.2525252E-01  0.1380573E-05  0.0000000E+00  0.4790056E-05
  0.1262626E+00  0.0000000E+00  0.2525252E-01  0.1529792E-05  0.0000000E+00  0.5375618E-05
  0.1363636E+00  0.0000000E+00  0.2525252E-01  0.1687231E-05  0.0000000E+00  0.6022786E-05
  0.1464646E+00  0.0000000E+00  0.2525252E-01  0.1853969E-05  0.0000000E+00  0.6735054E-05
  0.1565657E+00  0.0000000E+00  0.2525252E-01  0.2031211E-05  0.0000000E+00  0.7516367E-05
  0.1666667E+00  0.0000000E+00  0.2525252E-01  0.2220314E-05  0.0000000E+00  0.8371177E-05
  0.1767677E+00  0.0000000E+00  0.2525252E-01  0.2422816E-05  0.0000000E+00  0.9304506E-05
  0.1868687E+00  0.0000000E+00  0.2525252E-01  0.2640469E-05  0.0000000E+00  0.1032202E-04
  0.1969697E+00  0.0000000E+00  0.2525252E-01  0.2875286E-05  0.0000000E+00  0.1143014E-04
  0.2070707E+00  0.0000000E+00  0.2525252E-01  0.3129592E-05  0.0000000E+00  0.1263611E-04
  0.2171717E+00  0.0000000E+00  0.2525252E-01  0.3406092E-05  0.0000000E+00  0.1394818E-04
  0.2272727E+00  0.0000000E+00  0.2525252E-01  0.3707955E-05  0.0000000E+00  0.1537574E-04
  0.2373737E+00  0.0000000E+00  0.2525252E-01  0.4038917E-05  0.0000000E+00  0.1692949E-04
  0.2474747E+00  0.0000000E+00  0.2525252E-01  0.4403414E-05  0.0000000E+00  0.1862177E-04
  0.2575758E+00  0.0000000E+00  0.2525252E-01  0.4806747E-05  0.0000000E+00  0.2046676E-04
  0.2676768E+00  0.0000000E+00  0.2525252E-01  0.5255289E-05  0.0000000E+00  0.2248094E-04
  0.2777778E+00  0.0000000E+00  0.2525252E-01  0.5756733E-05  0.0000000E+00  0.2468349E-04
  0.2878788E+00  0.0000000E+00  0.2525252E-01  0.6320401E-05  0.0000000E+00  0.2709699E-04
  0.2979798E+00  0.0000000E+00  0.2525252E-01  0.6957584E-05  0.0000000E+00  0.2974809E-04
  0.3080808E+00  0.0000000E+00  0.2525252E-01  0.7681892E-05  0.0000000E+00  0.3266863E-04
  0.3181818E+00  0.0000000E+00  0.2525252E-01  0.8509525E-05  0.0000000E+00  0.3589685E-04
  0.3282828E+00  0.0000000E+00  0.2525252E-01  0.9459237E-05  0.0000000E+00  0.3947922E-04
  0.3383838E+00  0.0000000E+00  0.2525252E-01  0.1055157E-04  0.0000000E+00  0.4347267E-04
  0.3484848E+00  0.0000000E+00  0.2525252E-01  0.1180634E-04  0.0000000E+00  0.4794756E-04
  0.3585859E+00  0.0000000E+00  0.2525252E-01  0.1323658E-04  0.0000000E+00  0.5299122E-04
  0.3686869E+00  0.0000000E+00  0.2525252E-01  0.1483503E-04  0.0000000E+00  0.5871096E-04
  0.3787879E+00  0.0000000E+00  0.2525252E-01  0.1654645E-04  0.0000000E+00  0.6523286E-04
  0.3888889E+00  0.0000000E+00  0.2525252E-01  0.1821437E-04  0.0000000E+00  0.7268410E-04
  0.3989899E+00  0.0000000E+00  0.2525252E-01  0.1949013E-04  0.0000000E+00  0.8112693E-04
  0.4090909E+00  0.0000000E+00  0.2525252E-01  0.1971492E-04  0.0000000E+00  0.9037813E-04
  0.4191919E+00  0.0000000E+00  0.2525252E-01  0.1791031E-04  0.0000000E+00  0.9964700E-04
  0.4292929E+00  0.0000000E+00  0.2525252E-01  0.1340312E-04  0.0000000E+00  0.1072437E-03
  0.4393939E+00  0.0000000E+00  0.2525252E-01  0.7962004E-05  0.0000000E+00  0.1118533E-03
  0.4494950E+00  0.0000000E+00  0.2525252E-01  0.3200148E-05  0.0000000E+00  0.1136590E-03
  0.4595959E+00  0.0000000E+00  0.2525252E-01 -0.5173211E-06  0.0000000E+00  0.1134658E-03
  0.4696970E+00  0.0000000E+00  0.2525252E-01 -0.3252113E-05  0.0000000E+00  0.1119474E-03
  0.4797980E+00  0.0000000E+00  0.2525252E-01 -0.5189293E-05  0.0000000E+00  0.1095773E-03
  0.4898990E+00  0.0000000E+00  0.2525252E-01 -0.6526635E-05  0.0000000E+00  0.1066696E-03
  0.5000000E+00  0.0000000E+00  0.2525252E-01 -0.7432122E-05  0.0000000E+00  0.1034258E-03
  0.5101010E+00  0.0000000E+00  0.2525252E-01 -0.8032901E-05  0.0000000E+00  0.9997353E-04
  0.5202020E+00  0.0000000E+00  0.2525252E-01 -0.8418859E-05  0.0000000E+00  0.9639482E-04
  0.5303030E+00  0.0000000E+00  0.2525252E-01 -0.8651137E-05  0.0000000E+00  0.9274445E-04
  0.5404040E+00  0.0000000E+00  0.2525252E-01 -0.8770714E-05  0.0000000E+00  0.8906133E-04
  0.5505050E+00  0.0000000E+00  0.2525252E-01 -0.8805247E-05  0.0000000E+00  0.8537483E-04
  0.5606061E+00  0.0000000E+00  0.2525252E-01 -0.8773892E-05  0.0000000E+00  0.8170821E-04
  0.5707071E+00  0.0000000E+00  0.2525252E-01 -0.8690450E-05  0.0000000E+00  0.7808044E-04
  0.5808081E+00  0.0000000E+00  0.2525252E-01 -0.8565322E-05  0.0000000E+00  0.7450720E-04
  0.5909091E+00  0.0000000E+00  0.2525252E-01 -0.8406667E-05  0.0000000E+00  0.7100143E-04
  0.6010101E+00  0.0000000E+00  0.2525252E-01 -0.8221097E-05  0.0000000E+00  0.6757375E-04
  0.6111111E+00  0.0000000E+00  0.2525252E-01 -0.8014080E-05  0.0000000E+00  0.6423273E-04
  0.6212121E+00  0.0000000E+00  0.2525252E-01 -0.7790192E-05  0.0000000E+00  0.6098520E-04
  0.6313131E+00  0.0000000E+00  0.2525252E-01 -0.7553287E-05  0.0000000E+00  0.5783646E-04
  0.6414142E+00  0.0000000E+00  0.2525252E-01 -0.7306614E-05  0.0000000E+00  0.5479048E-04
  0.6515151E+00  0.0000000E+00  0.2525252E-01 -0.7052918E-05  0.0000000E+00  0.5185014E-04
  0.6616161E+00  0.0000000E+00  0.2525252E-01 -0.6794510E-05  0.0000000E+00  0.4901734E-04
  0.6717172E+00  0.0000000E+00  0.2525252E-01 -0.6533338E-05  0.0000000E+00  0.4629321E-04
  0.6818182E+00  0.0000000E+00  0.2525252E-01 -0.6271042E-05  0.0000000E+00  0.4367817E-04
  0.6919192E+00  0.0000000E+00  0.2525252E-01 -0.6008996E-05  0.0000000E+00  0.4117208E-04
  0.7020202E+00  0.0000000E+00  0.2525252E-01 -0.5748352E-05  0.0000000E+00  0.3877432E-04
  0.7121212E+00  0.0000000E+00  0.2525252E-01 -0.5490068E-05  0.0000000E+00  0.3648388E-04
  0.7222222E+00  0.0000000E+00  0.2525252E-01 -0.5234938E-05  0.0000000E+00  0.3429941E-04
  0.7323232E+00  0.0000000E+00  0.2525252E-01 -0.4983609E-05  0.0000000E+00  0.3221929E-04
  0.7424242E+00  0.0000000E+00  0.2525252E-01 -0.4736605E-05  0.0000000E+00  0.3024168E-04
  0.7525253E+00  0.0000000E+00  0.2525252E-01 -0.4494335E-05  0.0000000E+00  0.2836456E-04
  0.7626263E+00  0.0000000E+00  0.2525252E-01 -0.4257114E-05  0.0000000E+00  0.2658581E-04
  0.7727273E+00  0.0000000E+00  0.2525252E-01 -0.4025168E-05  0.0000000E+00  0.2490318E-04
  0.7828283E+00  0.0000000E+00  0.2525252E-01 -0.3798644E-05  0.0000000E+00  0.2331436E-04
  0.7929293E+00  0.0000000E+00  0.2525252E-01 -0.3577624E-05  0.0000000E+00  0.2181703E-04
  0.8030303E+00  0.0000000E+00  0.2525252E-01 -0.3362126E-05  0.0000000E+00  0.2040883E-04
  0.8131313E+00  0.0000000E+00  0.2525252E-01 -0.3152116E-05  0.0000000E+00  0.1908744E-04
  0.8232324E+00  0.0000000E+00  0.2525252E-01 -0.2947509E-05  0.0000000E+00  0.1785055E-04
  0.8333333E+00  0.0000000E+00  0.2525252E-01 -0.2748182E-05  0.0000000E+00  0.1669593E-04
  0.8434343E+00  0.0000000E+00  0.2525252E-01 -0.2553971E-05  0.0000000E+00  0.1562138E-04
  0.8535354E+00  0.0000000E+00  0.2525252E-01 -0.2364684E-05  0.0000000E+00  0.1462482E-04
  0.8636364E+00  0.0000000E+00  0.2525252E-01 -0.2180098E-05  0.0000000E+00  0.1370422E-04
  0.8737374E+00  0.0000000E+00  0.2525252E-01 -0.1999967E-05  0.0000000E+00  0.1285769E-04
  0.8838384E+00  0.0000000E+00  0.2525252E-01 -0.1824023E-05  0.0000000E+00  0.1208342E-04
  0.8939394E+00  0.0000000E+00  0.2525252E-01 -0.1651982E-05  0.0000000E+00  0.1137974E-04
  0.9040404E+00  0.0000000E+00  0.2525252E-01 -0.1483545E-05  0.0000000E+00  0.1074508E-04
  0.9141414E+00  0.0000000E+00  0.2525252E-01 -0.1318398E-05  0.0000000E+00  0.1017803E-04
  0.9242424E+00  0.0000000E+00  0.2525252E-01 -0.1156218E-05  0.0000000E+00  0.9677285E-05
  0.9343435E+00  0.0000000E+00  0.2525252E-01 -0.9966740E-06  0.0000000E+00  0.9241689E-05
  0.9444444E+00  0.0000000E+00  0.2525252E-01 -0.8394262E-06  0.0000000E+00  0.8870223E-05
  0.9545454E+00  0.0000000E+00  0.2525252E-01 -0.6841296E-06  0.0000000E+00  0.8562012E-05
  0.9646465E+00  0.0000000E+00  0.2525252E-01 -0.5304347E-06  0.0000000E+00  0.8316323E-05
  0.9747475E+00  0.0000000E+00  0.2525252E-01 -0.3779886E-06  0.0000000E+00  0.8132570E-05
  0.9848485E+00  0.0000000E+00  0.2525252E-01 -0.2264357E-06  0.0000000E+00  0.8010312E-05
  0.9974747E+00  0.0000000E+00  0.2525252E-01 -0.7541899E-07  0.0000000E+00  0.7949256E-05
  0.5050505E-02  0.0000000E+00  0.3535353E-01  0.7569135E-07  0.0000000E+00  0.1824784E-05
  0.1515152E-01  0.0000000E+00  0.3535353E-01  0.2274245E-06  0.0000000E+00  0.1868498E-05
  0.2525252E-01  0.0000000E+00  0.3535353E-01  0.3802128E-06  0.0000000E+00  0.1956125E-05
  0.3535353E-01  0.0000000E+00  0.3535353E-01  0.5347714E-06  0.0000000E+00  0.2088067E-05
  0.4545455E-01  0.0000000E+00  0.3535353E-01  0.6918335E-06  0.0000000E+00  0.2264928E-05
  0.5555556E-01  0.0000000E+00  0.3535353E-01  0.8521572E-06  0.0000000E+00  0.2487528E-05
  0.6565657E-01  0.0000000E+00  0.3535353E-01  0.1016534E-05  0.0000000E+00  0.2756904E-05
  0.7575758E-01  0.0000000E+00  0.3535353E-01  0.1185797E-05  0.0000000E+00  0.3074324E-05
  0.8585858E-01  0.0000000E+00  0.3535353E-01  0.1360833E-05  0.0000000E+00  0.3441300E-05
  0.9595960E-01  0.0000000E+00  0.3535353E-01  0.1542592E-05  0.0000000E+00  0.3859604E-05
  0.1060606E+00  0.0000000E+00  0.3535353E-01  0.1732101E-05  0.0000000E+00  0.4331284E-05
  0.1161616E+00  0.0000000E+00  0.3535353E-01  0.1930472E-05  0.0000000E+00  0.4858689E-05
  0.1262626E+00  0.0000000E+00  0.3535353E-01  0.2138925E-05  0.0000000E+00  0.5444495E-05
  0.1363636E+00  0.0000000E+00  0.3535353E-01  0.2358805E-05  0.0000000E+00  0.6091736E-05
  0.1464646E+00  0.0000000E+00  0.3535353E-01  0.2591603E-05  0.0000000E+00  0.6803839E-05
  0.1565657E+00  0.0000000E+00  0.3535353E-01  0.2838986E-05  0.0000000E+00  0.7584672E-05
  0.1666667E+00  0.0000000E+00  0.3535353E-01  0.3102829E-05  0.0000000E+00  0.8438589E-05
  0.1767677E+00  0.0000000E+00  0.3535353E-01  0.3385253E-05  0.0000000E+00  0.9370494E-05
  0.1868687E+00  0.0000000E+00  0.3535353E-01  0.3688675E-05  0.0000000E+00  0.1038591E-04
  0.1969697E+00  0.0000000E+00  0.3535353E-01  0.4015863E-05  0.0000000E+00  0.1149107E-04
  0.2070707E+00  0.0000000E+00  0.3535353E-01  0.4370013E-05  0.0000000E+00  0.1269301E-04
  0.2171717E+00  0.0000000E+00  0.3535353E-01  0.4754837E-05  0.0000000E+00  0.1399968E-04
  0.2272727E+00  0.0000000E+00  0.3535353E-01  0.5174674E-05  0.0000000E+00  0.1542014E-04
  0.2373737E+00  0.0000000E+00  0.3535353E-01  0.5634639E-05  0.0000000E+00  0.1696466E-04
  0.2474747E+00  0.0000000E+00  0.3535353E-01  0.6140793E-05  0.0000000E+00  0.1864503E-04
  0.2575758E+00  0.0000000E+00  0.3535353E-01  0.6700379E-05  0.0000000E+00  0.2047474E-04
  0.2676768E+00  0.0000000E+00  0.3535353E-01  0.7322104E-05  0.0000000E+00  0.2246942E-04
  0.2777778E+00  0.0000000E+00  0.3535353E-01  0.8016504E-05  0.0000000E+00  0.2464722E-04
  0.2878788E+00  0.0000000E+00  0.3535353E-01  0.8796397E-05  0.0000000E+00  0.2702939E-04
  0.2979798E+00  0.0000000E+00  0.3535353E-01  0.9677437E-05  0.0000000E+00  0.2964109E-04