title = "dataset water"
variables = "x", "y", "z", "vx", "vy", "vz"
zone t = "velocities, solution time =  3.500E+01 days        " i =   99, j =   99, k =    1,  f=point
  0.5050505E-02  0.0000000E+00  0.5050505E-02  0.1702807E-07  0.0000000E+00  0.8453831E-05
  0.1515152E-01  0.0000000E+00  0.5050505E-02  0.5117150E-07  0.0000000E+00  0.8522300E-05
  0.2525252E-01  0.0000000E+00  0.5050505E-02  0.8557805E-07  0.0000000E+00  0.8659593E-05
  0.3535353E-01  0.0000000E+00  0.5050505E-02  0.1204270E-06  0.0000000E+00  0.8866419E-05
  0.4545455E-01  0.0000000E+00  0.5050505E-02  0.1559030E-06  0.0000000E+00  0.9143858E-05
  0.5555556E-01  0.0000000E+00  0.5050505E-02  0.1921986E-06  0.0000000E+00  0.9493368E-05
  0.6565657E-01  0.0000000E+00  0.5050505E-02  0.2295167E-06  0.0000000E+00  0.9916807E-05
  0.7575758E-01  0.0000000E+00  0.5050505E-02  0.2680735E-06  0.0000000E+00  0.1041646E-04
  0.8585858E-01  0.0000000E+00  0.5050505E-02  0.3081014E-06  0.0000000E+00  0.1099505E-04
  0.9595960E-01  0.0000000E+00  0.5050505E-02  0.3498529E-06  0.0000000E+00  0.1165582E-04
  0.1060606E+00  0.0000000E+00  0.5050505E-02  0.3936051E-06  0.0000000E+00  0.1240252E-04
  0.1161616E+00  0.0000000E+00  0.5050505E-02  0.4396645E-06  0.0000000E+00  0.1323949E-04
  0.1262626E+00  0.0000000E+00  0.5050505E-02  0.4883734E-06  0.0000000E+00  0.1417175E-04
  0.1363636E+00  0.0000000E+00  0.5050505E-02  0.5401174E-06  0.0000000E+00  0.1520504E-04
  0.1464646E+00  0.0000000E+00  0.5050505E-02  0.5953347E-06  0.0000000E+00  0.1634594E-04
  0.1565657E+00  0.0000000E+00  0.5050505E-02  0.6545279E-06  0.0000000E+00  0.1760197E-04
  0.1666667E+00  0.0000000E+00  0.5050505E-02  0.7182784E-06  0.0000000E+00  0.1898176E-04
  0.1767677E+00  0.0000000E+00  0.5050505E-02  0.7872658E-06  0.0000000E+00  0.2049522E-04
  0.1868687E+00  0.0000000E+00  0.5050505E-02  0.8622923E-06  0.0000000E+00  0.2215376E-04
  0.1969697E+00  0.0000000E+00  0.5050505E-02  0.9443153E-06  0.0000000E+00  0.2397057E-04
  0.2070707E+00  0.0000000E+00  0.5050505E-02  0.1034491E-05  0.0000000E+00  0.2596100E-04
  0.2171717E+00  0.0000000E+00  0.5050505E-02  0.1134234E-05  0.0000000E+00  0.2814299E-04
  0.2272727E+00  0.0000000E+00  0.5050505E-02  0.1245298E-05  0.0000000E+00  0.3053773E-04
  0.2373737E+00  0.0000000E+00  0.5050505E-02  0.1369892E-05  0.0000000E+00  0.3317040E-04
  0.2474747E+00  0.0000000E+00  0.5050505E-02  0.1510842E-05  0.0000000E+00  0.3607132E-04
  0.2575758E+00  0.0000000E+00  0.5050505E-02  0.1671829E-05  0.0000000E+00  0.3927744E-04
  0.2676768E+00  0.0000000E+00  0.5050505E-02  0.1857743E-05  0.0000000E+00  0.4283441E-04
  0.2777778E+00  0.0000000E+00  0.5050505E-02  0.2075207E-05  0.0000000E+00  0.4679963E-04
  0.2878788E+00  0.0000000E+00  0.5050505E-02  0.2333392E-05  0.0000000E+00  0.5124656E-04
  0.2979798E+00  0.0000000E+00  0.5050505E-02  0.2645282E-05  0.0000000E+00  0.5627128E-04
  0.3080808E+00  0.0000000E+00  0.5050505E-02  0.3029676E-05  0.0000000E+00  0.6200225E-04
  0.3181818E+00  0.0000000E+00  0.5050505E-02  0.3514364E-05  0.0000000E+00  0.6861555E-04
  0.3282828E+00  0.0000000E+00  0.5050505E-02  0.4141099E-05  0.0000000E+00  0.7635836E-04
  0.3383838E+00  0.0000000E+00  0.5050505E-02  0.4972828E-05  0.0000000E+00  0.8558508E-04
  0.3484848E+00  0.0000000E+00  0.5050505E-02  0.6101855E-05  0.0000000E+00  0.9680965E-04
  0.3585859E+00  0.0000000E+00  0.5050505E-02  0.7648379E-05  0.0000000E+00  0.1107654E-03
  0.3686869E+00  0.0000000E+00  0.5050505E-02  0.9700479E-05  0.0000000E+00  0.1284040E-03
  0.3787879E+00  0.0000000E+00  0.5050505E-02  0.1199846E-04  0.0000000E+00  0.1505132E-03
  0.3888889E+00  0.0000000E+00  0.5050505E-02  0.1262290E-04  0.0000000E+00  0.1756654E-03
  0.3989899E+00  0.0000000E+00  0.5050505E-02  0.3061377E-05  0.0000000E+00  0.1917210E-03
  0.4090909E+00  0.0000000E+00  0.5050505E-02 -0.5027675E-06  0.0000000E+00  0.1943465E-03
  0.4191919E+00  0.0000000E+00  0.5050505E-02 -0.1292731E-05  0.0000000E+00  0.1925031E-03
  0.4292929E+00  0.0000000E+00  0.5050505E-02 -0.1377310E-05  0.0000000E+00  0.1897625E-03
  0.4393939E+00  0.0000000E+00  0.5050505E-02 -0.1441914E-05  0.0000000E+00  0.1868699E-03
  0.4494950E+00  0.0000000E+00  0.5050505E-02 -0.1590291E-05  0.0000000E+00  0.1837599E-03
  0.4595959E+00  0.0000000E+00  0.5050505E-02 -0.1786846E-05  0.0000000E+00  0.1802976E-03
  0.4696970E+00  0.0000000E+00  0.5050505E-02 -0.1989120E-05  0.0000000E+00  0.1764282E-03
  0.4797980E+00  0.0000000E+00  0.5050505E-02 -0.2173101E-05  0.0000000E+00  0.1721653E-03
  0.4898990E+00  0.0000000E+00  0.5050505E-02 -0.2330114E-05  0.0000000E+00  0.1675556E-03
  0.5000000E+00  0.0000000E+00  0.5050505E-02 -0.2459324E-05  0.0000000E+00  0.1626559E-03
  0.5101010E+00  0.0000000E+00  0.5050505E-02 -0.2562434E-05  0.0000000E+00  0.1575217E-03
  0.5202020E+00  0.0000000E+00  0.5050505E-02 -0.2641274E-05  0.0000000E+00  0.1522050E-03
  0.5303030E+00  0.0000000E+00  0.5050505E-02 -0.2697263E-05  0.0000000E+00  0.1467540E-03
  0.5404040E+00  0.0000000E+00  0.5050505E-02 -0.2731625E-05  0.0000000E+00  0.1412146E-03
  0.5505050E+00  0.0000000E+00  0.5050505E-02 -0.2745706E-05  0.0000000E+00  0.1356295E-03
  0.5606061E+00  0.0000000E+00  0.5050505E-02 -0.2741150E-05  0.0000000E+00  0.1300385E-03
  0.5707071E+00  0.0000000E+00  0.5050505E-02 -0.2719897E-05  0.0000000E+00  0.1244776E-03
  0.5808081E+00  0.0000000E+00  0.5050505E-02 -0.2684089E-05  0.0000000E+00  0.1189784E-03
  0.5909091E+00  0.0000000E+00  0.5050505E-02 -0.2635934E-05  0.0000000E+00  0.1135683E-03
  0.6010101E+00  0.0000000E+00  0.5050505E-02 -0.2577582E-05  0.0000000E+00  0.1082699E-03
  0.6111111E+00  0.0000000E+00  0.5050505E-02 -0.2511036E-05  0.0000000E+00  0.1031017E-03
  0.6212121E+00  0.0000000E+00  0.5050505E-02 -0.2438096E-05  0.0000000E+00  0.9807822E-04
  0.6313131E+00  0.0000000E+00  0.5050505E-02 -0.2360336E-05  0.0000000E+00  0.9321060E-04
  0.6414142E+00  0.0000000E+00  0.5050505E-02 -0.2279100E-05  0.0000000E+00  0.8850697E-04
  0.6515151E+00  0.0000000E+00  0.5050505E-02 -0.2195517E-05  0.0000000E+00  0.8397295E-04
  0.6616161E+00  0.0000000E+00  0.5050505E-02 -0.2110523E-05  0.0000000E+00  0.7961206E-04
  0.6717172E+00  0.0000000E+00  0.5050505E-02 -0.2024884E-05  0.0000000E+00  0.7542612E-04
  0.6818182E+00  0.0000000E+00  0.5050505E-02 -0.1939221E-05  0.0000000E+00  0.7141554E-04
  0.6919192E+00  0.0000000E+00  0.5050505E-02 -0.1854036E-05  0.0000000E+00  0.6757961E-04
  0.7020202E+00  0.0000000E+00  0.5050505E-02 -0.1769726E-05  0.0000000E+00  0.6391672E-04
  0.7121212E+00  0.0000000E+00  0.5050505E-02 -0.1686607E-05  0.0000000E+00  0.6042456E-04
  0.7222222E+00  0.0000000E+00  0.5050505E-02 -0.1604925E-05  0.0000000E+00  0.5710026E-04
  0.7323232E+00  0.0000000E+00  0.5050505E-02 -0.1524869E-05  0.0000000E+00  0.5394053E-04
  0.7424242E+00  0.0000000E+00  0.5050505E-02 -0.1446578E-05  0.0000000E+00  0.5094175E-04
  0.7525253E+00  0.0000000E+00  0.5050505E-02 -0.1370153E-05  0.0000000E+00  0.4810011E-04
  0.7626263E+00  0.0000000E+00  0.5050505E-02 -0.1295661E-05  0.0000000E+00  0.4541160E-04
  0.7727273E+00  0.0000000E+00  0.5050505E-02 -0.1223141E-05  0.0000000E+00  0.4287214E-04
  0.7828283E+00  0.0000000E+00  0.5050505E-02 -0.1152605E-05  0.0000000E+00  0.4047762E-04
  0.7929293E+00  0.0000000E+00  0.5050505E-02 -0.1084049E-05  0.0000000E+00  0.3822390E-04
  0.8030303E+00  0.0000000E+00  0.5050505E-02 -0.1017448E-05  0.0000000E+00  0.3610692E-04
  0.8131313E+00  0.0000000E+00  0.5050505E-02 -0.9527620E-06  0.0000000E+00  0.3412268E-04
  0.8232324E+00  0.0000000E+00  0.5050505E-02 -0.8899401E-06  0.0000000E+00  0.3226728E-04
  0.8333333E+00  0.0000000E+00  0.5050505E-02 -0.8289188E-06  0.0000000E+00  0.3053694E-04
  0.8434343E+00  0.0000000E+00  0.5050505E-02 -0.7696260E-06  0.0000000E+00  0.2892803E-04
  0.8535354E+00  0.0000000E+00  0.5050505E-02 -0.7119815E-06  0.0000000E+00  0.2743709E-04
  0.8636364E+00  0.0000000E+00  0.5050505E-02 -0.6558984E-06  0.0000000E+00  0.2606083E-04
  0.8737374E+00  0.0000000E+00  0.5050505E-02 -0.6012844E-06  0.0000000E+00  0.2479614E-04
  0.8838384E+00  0.0000000E+00  0.5050505E-02 -0.5480426E-06  0.0000000E+00  0.2364011E-04
  0.8939394E+00  0.0000000E+00  0.5050505E-02 -0.4960724E-06  0.0000000E+00  0.2259004E-04
  0.9040404E+00  0.0000000E+00  0.5050505E-02 -0.4452700E-06  0.0000000E+00  0.2164344E-04
  0.9141414E+00  0.0000000E+00  0.5050505E-02 -0.3955291E-06  0.0000000E+00  0.2079804E-04
  0.9242424E+00  0.0000000E+00  0.5050505E-02 -0.3467417E-06  0.0000000E+00  0.2005177E-04
  0.9343435E+00  0.0000000E+00  0.5050505E-02 -0.2987978E-06  0.0000000E+00  0.1940280E-04
  0.9444444E+00  0.0000000E+00  0.5050505E-02 -0.2515867E-06  0.0000000E+00  0.1884953E-04
  0.9545454E+00  0.0000000E+00  0.5050505E-02 -0.2049964E-06  0.0000000E+00  0.1839058E-04
  0.9646465E+00  0.0000000E+00  0.5050505E-02 -0.1589145E-06  0.0000000E+00  0.1802480E-04
  0.9747475E+00  0.0000000E+00  0.5050505E-02 -0.1132281E-06  0.0000000E+00  0.1775127E-04
  0.9848485E+00  0.0000000E+00  0.5050505E-02 -0.6782408E-07  0.0000000E+00  0.1756930E-04
  0.9974747E+00  0.0000000E+00  0.5050505E-02 -0.2258927E-07  0.0000000E+00  0.1747842E-04
  0.5050505E-02  0.0000000E+00  0.1515152E-01  0.5102875E-07  0.0000000E+00  0.8473104E-05
  0.1515152E-01  0.0000000E+00  0.1515152E-01  0.1533475E-06  0.0000000E+00  0.8541549E-05
  0.2525252E-01  0.0000000E+00  0.1515152E-01  0.2564535E-06  0.0000000E+00  0.8678788E-05
  0.3535353E-01  0.0000000E+00  0.1515152E-01  0.3608830E-06  0.0000000E+00  0.8885530E-05
  0.4545455E-01  0.0000000E+00  0.1515152E-01  0.4671884E-06  0.0000000E+00  0.9162843E-05
  0.5555556E-01  0.0000000E+00  0.1515152E-01  0.5759454E-06  0.0000000E+00  0.9512179E-05
  0.6565657E-01  0.0000000E+00  0.1515152E-01  0.6877607E-06  0.0000000E+00  0.9935383E-05
  0.7575758E-01  0.0000000E+00  0.1515152E-01  0.8032800E-06  0.0000000E+00  0.1043472E-04
  0.8585858E-01  0.0000000E+00  0.1515152E-01  0.9231980E-06  0.0000000E+00  0.1101290E-04
  0.9595960E-01  0.0000000E+00  0.1515152E-01  0.1048269E-05  0.0000000E+00  0.1167313E-04
  0.1060606E+00  0.0000000E+00  0.1515152E-01  0.1179320E-05  0.0000000E+00  0.1241914E-04
  0.1161616E+00  0.0000000E+00  0.1515152E-01  0.1317267E-05  0.0000000E+00  0.1325522E-04
  0.1262626E+00  0.0000000E+00  0.1515152E-01  0.1463129E-05  0.0000000E+00  0.1418636E-04
  0.1363636E+00  0.0000000E+00  0.1515152E-01  0.1618057E-05  0.0000000E+00  0.1521821E-04
  0.1464646E+00  0.0000000E+00  0.1515152E-01  0.1783356E-05  0.0000000E+00  0.1635730E-04
  0.1565657E+00  0.0000000E+00  0.1515152E-01  0.1960522E-05  0.0000000E+00  0.1761105E-04
  0.1666667E+00  0.0000000E+00  0.1515152E-01  0.2151284E-05  0.0000000E+00  0.1898798E-04
  0.1767677E+00  0.0000000E+00  0.1515152E-01  0.2357660E-05  0.0000000E+00  0.2049783E-04
  0.1868687E+00  0.0000000E+00  0.1515152E-01  0.2582032E-05  0.0000000E+00  0.2215183E-04
  0.1969697E+00  0.0000000E+00  0.1515152E-01  0.2827236E-05  0.0000000E+00  0.2396292E-04
  0.2070707E+00  0.0000000E+00  0.1515152E-01  0.3096690E-05  0.0000000E+00  0.2594609E-04
  0.2171717E+00  0.0000000E+00  0.1515152E-01  0.3394571E-05  0.0000000E+00  0.2811885E-04
  0.2272727E+00  0.0000000E+00  0.1515152E-01  0.3726044E-05  0.0000000E+00  0.3050176E-04
  0.2373737E+00  0.0000000E+00  0.1515152E-01  0.4097596E-05  0.0000000E+00  0.3311917E-04
  0.2474747E+00  0.0000000E+00  0.1515152E-01  0.4517504E-05  0.0000000E+00  0.3600023E-04
  0.2575758E+00  0.0000000E+00  0.1515152E-01  0.4996514E-05  0.0000000E+00  0.3918019E-04
  0.2676768E+00  0.0000000E+00  0.1515152E-01  0.5548835E-05  0.0000000E+00  0.4270228E-04
  0.2777778E+00  0.0000000E+00  0.1515152E-01  0.6193638E-05  0.0000000E+00  0.4662030E-04
  0.2878788E+00  0.0000000E+00  0.1515152E-01  0.6957335E-05  0.0000000E+00  0.5100231E-04
  0.2979798E+00  0.0000000E+00  0.1515152E-01  0.7877133E-05  0.0000000E+00  0.5593609E-04
  0.3080808E+00  0.0000000E+00  0.1515152E-01  0.9006654E-05  0.0000000E+00  0.6153728E-04
  0.3181818E+00  0.0000000E+00  0.1515152E-01  0.1042496E-04  0.0000000E+00  0.6796189E-04
  0.3282828E+00  0.0000000E+00  0.1515152E-01  0.1225114E-04  0.0000000E+00  0.7542631E-04
  0.3383838E+00  0.0000000E+00  0.1515152E-01  0.1466759E-04  0.0000000E+00  0.8424117E-04
  0.3484848E+00  0.0000000E+00  0.1515152E-01  0.1795528E-04  0.0000000E+00  0.9487353E-04
  0.3585859E+00  0.0000000E+00  0.1515152E-01  0.2253788E-04  0.0000000E+00  0.1080766E-03
  0.3686869E+00  0.0000000E+00  0.1515152E-01  0.2899426E-04  0.0000000E+00  0.1252033E-03
  0.3787879E+00  0.0000000E+00  0.1515152E-01  0.3782821E-04  0.0000000E+00  0.1490673E-03
  0.3888889E+00  0.0000000E+00  0.1515152E-01  0.4804286E-04  0.0000000E+00  0.1864618E-03
  0.3989899E+00  0.0000000E+00  0.1515152E-01  0.3297704E-05  0.0000000E+00  0.2068612E-03
  0.4090909E+00  0.0000000E+00  0.1515152E-01 -0.4324927E-05  0.0000000E+00  0.2005526E-03
  0.4191919E+00  0.0000000E+00  0.1515152E-01 -0.4683152E-05  0.0000000E+00  0.1949819E-03
  0.4292929E+00  0.0000000E+00  0.1515152E-01 -0.4247279E-05  0.0000000E+00  0.1912874E-03
  0.4393939E+00  0.0000000E+00  0.1515152E-01 -0.4314103E-05  0.0000000E+00  0.1882789E-03
  0.4494950E+00  0.0000000E+00  0.1515152E-01 -0.4771762E-05  0.0000000E+00  0.1851700E-03
  0.4595959E+00  0.0000000E+00  0.1515152E-01 -0.5386277E-05  0.0000000E+00  0.1816697E-03
  0.4696970E+00  0.0000000E+00  0.1515152E-01 -0.6005186E-05  0.0000000E+00  0.1777234E-03
  0.4797980E+00  0.0000000E+00  0.1515152E-01 -0.6558370E-05  0.0000000E+00  0.1733691E-03
  0.4898990E+00  0.0000000E+00  0.1515152E-01 -0.7025969E-05  0.0000000E+00  0.1686697E-03
  0.5000000E+00  0.0000000E+00  0.1515152E-01 -0.7409697E-05  0.0000000E+00  0.1636873E-03
  0.5101010E+00  0.0000000E+00  0.1515152E-01 -0.7716277E-05  0.0000000E+00  0.1584770E-03
  0.5202020E+00  0.0000000E+00  0.1515152E-01 -0.7951207E-05  0.0000000E+00  0.1530884E-03
  0.5303030E+00  0.0000000E+00  0.1515152E-01 -0.8118165E-05  0.0000000E+00  0.1475681E-03
  0.5404040E+00  0.0000000E+00  0.1515152E-01 -0.8220273E-05  0.0000000E+00  0.1419615E-03
  0.5505050E+00  0.0000000E+00  0.1515152E-01 -0.8261262E-05  0.0000000E+00  0.1363116E-03
  0.5606061E+00  0.0000000E+00  0.1515152E-01 -0.8245977E-05  0.0000000E+00  0.1306589E-03
  0.5707071E+00  0.0000000E+00  0.1515152E-01 -0.8180305E-05  0.0000000E+00  0.1250401E-03
  0.5808081E+00  0.0000000E+00  0.1515152E-01 -0.8070793E-05  0.0000000E+00  0.1194874E-03
  0.5909091E+00  0.0000000E+00  0.1515152E-01 -0.7924194E-05  0.0000000E+00  0.1140283E-03
  0.6010101E+00  0.0000000E+00  0.1515152E-01 -0.7747064E-05  0.0000000E+00  0.1086857E-03
  0.6111111E+00  0.0000000E+00  0.1515152E-01 -0.7545485E-05  0.0000000E+00  0.1034776E-03
  0.6212121E+00  0.0000000E+00  0.1515152E-01 -0.7324898E-05  0.0000000E+00  0.9841842E-04
  0.6313131E+00  0.0000000E+00  0.1515152E-01 -0.7090040E-05  0.0000000E+00  0.9351888E-04
  0.6414142E+00  0.0000000E+00  0.1515152E-01 -0.6844945E-05  0.0000000E+00  0.8878673E-04
  0.6515151E+00  0.0000000E+00  0.1515152E-01 -0.6592988E-05  0.0000000E+00  0.8422722E-04
  0.6616161E+00  0.0000000E+00  0.1515152E-01 -0.6336961E-05  0.0000000E+00  0.7984352E-04
  0.6717172E+00  0.0000000E+00  0.1515152E-01 -0.6079143E-05  0.0000000E+00  0.7563714E-04
  0.6818182E+00  0.0000000E+00  0.1515152E-01 -0.5821381E-05  0.0000000E+00  0.7160821E-04
  0.6919192E+00  0.0000000E+00  0.1515152E-01 -0.5565159E-05  0.0000000E+00  0.6775578E-04
  0.7020202E+00  0.0000000E+00  0.1515152E-01 -0.5311658E-05  0.0000000E+00  0.6407803E-04
  0.7121212E+00  0.0000000E+00  0.1515152E-01 -0.5061811E-05  0.0000000E+00  0.6057248E-04
  0.7222222E+00  0.0000000E+00  0.1515152E-01 -0.4816343E-05  0.0000000E+00  0.5723608E-04
  0.7323232E+00  0.0000000E+00  0.1515152E-01 -0.4575812E-05  0.0000000E+00  0.5406543E-04
  0.7424242E+00  0.0000000E+00  0.1515152E-01 -0.4340629E-05  0.0000000E+00  0.5105679E-04
  0.7525253E+00  0.0000000E+00  0.1515152E-01 -0.4111090E-05  0.0000000E+00  0.4820621E-04
  0.7626263E+00  0.0000000E+00  0.1515152E-01 -0.3887390E-05  0.0000000E+00  0.4550963E-04
  0.7727273E+00  0.0000000E+00  0.1515152E-01 -0.3669639E-05  0.0000000E+00  0.4296287E-04
  0.7828283E+00  0.0000000E+00  0.1515152E-01 -0.3457875E-05  0.0000000E+00  0.4056174E-04
  0.7929293E+00  0.0000000E+00  0.1515152E-01 -0.3252076E-05  0.0000000E+00  0.3830205E-04
  0.8030303E+00  0.0000000E+00  0.1515152E-01 -0.3052165E-05  0.0000000E+00  0.3617967E-04
  0.8131313E+00  0.0000000E+00  0.1515152E-01 -0.2858023E-05  0.0000000E+00  0.3419055E-04
  0.8232324E+00  0.0000000E+00  0.1515152E-01 -0.2669490E-05  0.0000000E+00  0.3233074E-04
  0.8333333E+00  0.0000000E+00  0.1515152E-01 -0.2486377E-05  0.0000000E+00  0.3059642E-04
  0.8434343E+00  0.0000000E+00  0.1515152E-01 -0.2308464E-05  0.0000000E+00  0.2898393E-04
  0.8535354E+00  0.0000000E+00  0.1515152E-01 -0.2135508E-05  0.0000000E+00  0.2748976E-04
  0.8636364E+00  0.0000000E+00  0.1515152E-01 -0.1967249E-05  0.0000000E+00  0.2611060E-04
  0.8737374E+00  0.0000000E+00  0.1515152E-01 -0.1803406E-05  0.0000000E+00  0.2484331E-04
  0.8838384E+00  0.0000000E+00  0.1515152E-01 -0.1643689E-05  0.0000000E+00  0.2368497E-04
  0.8939394E+00  0.0000000E+00  0.1515152E-01 -0.1487794E-05  0.0000000E+00  0.2263284E-04
  0.9040404E+00  0.0000000E+00  0.1515152E-01 -0.1335409E-05  0.0000000E+00  0.2168442E-04
  0.9141414E+00  0.0000000E+00  0.1515152E-01 -0.1186214E-05  0.0000000E+00  0.2083742E-04
  0.9242424E+00  0.0000000E+00  0.1515152E-01 -0.1039884E-05  0.0000000E+00  0.2008976E-04
  0.9343435E+00  0.0000000E+00  0.1515152E-01 -0.8960897E-06  0.0000000E+00  0.1943960E-04
  0.9444444E+00  0.0000000E+00  0.1515152E-01 -0.7544966E-06  0.0000000E+00  0.1888533E-04
  0.9545454E+00  0.0000000E+00  0.1515152E-01 -0.6147692E-06  0.0000000E+00  0.1842555E-04
  0.9646465E+00  0.0000000E+00  0.1515152E-01 -0.4765695E-06  0.0000000E+00  0.1805912E-04
  0.9747475E+00  0.0000000E+00  0.1515152E-01 -0.3395584E-06  0.0000000E+00  0.1778510E-04
  0.9848485E+00  0.0000000E+00  0.1515152E-01 -0.2033959E-06  0.0000000E+00  0.1760281E-04
  0.9974747E+00  0.0000000E+00  0.1515152E-01 -0.6774220E-07  0.0000000E+00  0.1751177E-04
  0.5050505E-02  0.0000000E+00  0.2525252E-01  0.8491338E-07  0.0000000E+00  0.8511934E-05
  0.1515152E-01  0.0000000E+00  0.2525252E-01  0.2551735E-06  0.0000000E+00  0.8580332E-05
  0.2525252E-01  0.0000000E+00  0.2525252E-01  0.4267393E-06  0.0000000E+00  0.8717473E-05
  0.3535353E-01  0.0000000E+00  0.2525252E-01  0.6004997E-06  0.0000000E+00  0.8924054E-05
  0.4545455E-01  0.0000000E+00  0.2525252E-01  0.7773701E-06  0.0000000E+00  0.9201132E-05
  0.5555556E-01  0.0000000E+00  0.2525252E-01  0.9583044E-06  0.0000000E+00  0.9550138E-05
  0.6565657E-01  0.0000000E+00  0.2525252E-01  0.1144307E-05  0.0000000E+00  0.9972893E-05
  0.7575758E-01  0.0000000E+00  0.2525252E-01  0.1336447E-05  0.0000000E+00  0.1047163E-04
  0.8585858E-01  0.0000000E+00  0.2525252E-01  0.1535873E-05  0.0000000E+00  0.1104902E-04
  0.9595960E-01  0.0000000E+00  0.2525252E-01  0.1743833E-05  0.0000000E+00  0.1170822E-04
  0.1060606E+00  0.0000000E+00  0.2525252E-01  0.1961693E-05  0.0000000E+00  0.1245289E-04
  0.1161616E+00  0.0000000E+00  0.2525252E-01  0.2190962E-05  0.0000000E+00  0.1328726E-04
  0.1262626E+00  0.0000000E+00  0.2525252E-01  0.2433324E-05  0.0000000E+00  0.1421621E-04
  0.1363636E+00  0.0000000E+00  0.2525252E-01  0.2690671E-05  0.0000000E+00  0.1524530E-04
  0.1464646E+00  0.0000000E+00  0.2525252E-01  0.2965151E-05  0.0000000E+00  0.1638088E-04
  0.1565657E+00  0.0000000E+00  0.2525252E-01  0.3259219E-05  0.0000000E+00  0.1763022E-04
  0.1666667E+00  0.0000000E+00  0.2525252E-01  0.3575709E-05  0.0000000E+00  0.1900159E-04
  0.1767677E+00  0.0000000E+00  0.2525252E-01  0.3917922E-05  0.0000000E+00  0.2050445E-04
  0.1868687E+00  0.0000000E+00  0.2525252E-01  0.4289740E-05  0.0000000E+00  0.2214964E-04
  0.1969697E+00  0.0000000E+00  0.2525252E-01  0.4695778E-05  0.0000000E+00  0.2394962E-04
  0.2070707E+00  0.0000000E+00  0.2525252E-01  0.5141578E-05  0.0000000E+00  0.2591873E-04
  0.2171717E+00  0.0000000E+00  0.2525252E-01  0.5633884E-05  0.0000000E+00  0.2807364E-04
  0.2272727E+00  0.0000000E+00  0.2525252E-01  0.6180998E-05  0.0000000E+00  0.3043372E-04
  0.2373737E+00  0.0000000E+00  0.2525252E-01  0.6793295E-05  0.0000000E+00  0.3302176E-04
  0.2474747E+00  0.0000000E+00  0.2525252E-01  0.7483933E-05  0.0000000E+00  0.3586467E-04
  0.2575758E+00  0.0000000E+00  0.2525252E-01  0.8269874E-05  0.0000000E+00  0.3899459E-04
  0.2676768E+00  0.0000000E+00  0.2525252E-01  0.9173371E-05  0.0000000E+00  0.4245025E-04
  0.2777778E+00  0.0000000E+00  0.2525252E-01  0.1022418E-04  0.0000000E+00  0.4627883E-04
  0.2878788E+00  0.0000000E+00  0.2525252E-01  0.1146288E-04  0.0000000E+00  0.5053853E-04
  0.2979798E+00  0.0000000E+00  0.2525252E-01  0.1294601E-04  0.0000000E+00  0.5530210E-04
  0.3080808E+00  0.0000000E+00  0.2525252E-01  0.1475414E-04  0.0000000E+00  0.6066177E-04
  0.3181818E+00  0.0000000E+00  0.2525252E-01  0.1700486E-04  0.0000000E+00  0.6673640E-04
  0.3282828E+00  0.0000000E+00  0.2525252E-01  0.1987428E-04  0.0000000E+00  0.7368232E-04
  0.3383838E+00  0.0000000E+00  0.2525252E-01  0.2363392E-04  0.0000000E+00  0.8171128E-04
  0.3484848E+00  0.0000000E+00  0.2525252E-01  0.2871738E-04  0.0000000E+00  0.9112608E-04
  0.3585859E+00  0.0000000E+00  0.2525252E-01  0.3585177E-04  0.0000000E+00  0.1024097E-03
  0.3686869E+00  0.0000000E+00  0.2525252E-01  0.4635284E-04  0.0000000E+00  0.1165071E-03
  0.3787879E+00  0.0000000E+00  0.2525252E-01  0.6291389E-04  0.0000000E+00  0.1358859E-03
  0.3888889E+00  0.0000000E+00  0.2525252E-01  0.9212649E-04  0.0000000E+00  0.1690102E-03
  0.3989899E+00  0.0000000E+00  0.2525252E-01  0.1292940E-04  0.0000000E+00  0.2034658E-03
  0.4090909E+00  0.0000000E+00  0.2525252E-01 -0.1564236E-04  0.0000000E+00  0.2080331E-03
  0.4191919E+00  0.0000000E+00  0.2525252E-01 -0.9233677E-05  0.0000000E+00  0.1972735E-03
  0.4292929E+00  0.0000000E+00  0.2525252E-01 -0.6927538E-05  0.0000000E+00  0.1935157E-03
  0.4393939E+00  0.0000000E+00  0.2525252E-01 -0.7019393E-05  0.0000000E+00  0.1909697E-03
  0.4494950E+00  0.0000000E+00  0.2525252E-01 -0.7945390E-05  0.0000000E+00  0.1880188E-03
  0.4595959E+00  0.0000000E+00  0.2525252E-01 -0.9077020E-05  0.0000000E+00  0.1844488E-03
  0.4696970E+00  0.0000000E+00  0.2525252E-01 -0.1014803E-04  0.0000000E+00  0.1803317E-03
  0.4797980E+00  0.0000000E+00  0.2525252E-01 -0.1106935E-04  0.0000000E+00  0.1757843E-03
  0.4898990E+00  0.0000000E+00  0.2525252E-01 -0.1183417E-04  0.0000000E+00  0.1709038E-03
  0.5000000E+00  0.0000000E+00  0.2525252E-01 -0.1245998E-04  0.0000000E+00  0.1657589E-03
  0.5101010E+00  0.0000000E+00  0.2525252E-01 -0.1296242E-04  0.0000000E+00  0.1603995E-03
  0.5202020E+00  0.0000000E+00  0.2525252E-01 -0.1334968E-04  0.0000000E+00  0.1548689E-03
  0.5303030E+00  0.0000000E+00  0.2525252E-01 -0.1362541E-04  0.0000000E+00  0.1492103E-03
  0.5404040E+00  0.0000000E+00  0.2525252E-01 -0.1379279E-04  0.0000000E+00  0.1434681E-03
  0.5505050E+00  0.0000000E+00  0.2525252E-01 -0.1385705E-04  0.0000000E+00  0.1376868E-03
  0.5606061E+00  0.0000000E+00  0.2525252E-01 -0.1382609E-04  0.0000000E+00  0.1319088E-03
  0.5707071E+00  0.0000000E+00  0.2525252E-01 -0.1371004E-04  0.0000000E+00  0.1261726E-03
  0.5808081E+00  0.0000000E+00  0.2525252E-01 -0.1352029E-04  0.0000000E+00  0.1205116E-03
  0.5909091E+00  0.0000000E+00  0.2525252E-01 -0.1326857E-04  0.0000000E+00  0.1149536E-03
  0.6010101E+00  0.0000000E+00  0.2525252E-01 -0.1296618E-04  0.0000000E+00  0.1095216E-03
  0.6111111E+00  0.0000000E+00  0.2525252E-01 -0.1262350E-04  0.0000000E+00  0.1042332E-03
  0.6212121E+00  0.0000000E+00  0.2525252E-01 -0.1224973E-04  0.0000000E+00  0.9910220E-04
  0.6313131E+00  0.0000000E+00  0.2525252E-01 -0.1185282E-04  0.0000000E+00  0.9413847E-04
  0.6414142E+00  0.0000000E+00  0.2525252E-01 -0.1143949E-04  0.0000000E+00  0.8934900E-04
  0.6515151E+00  0.0000000E+00  0.2525252E-01 -0.1101534E-04  0.0000000E+00  0.8473827E-04
  0.6616161E+00  0.0000000E+00  0.2525252E-01 -0.1058494E-04  0.0000000E+00  0.8030874E-04
  0.6717172E+00  0.0000000E+00  0.2525252E-01 -0.1015204E-04  0.0000000E+00  0.7606129E-04
  0.6818182E+00  0.0000000E+00  0.2525252E-01 -0.9719662E-05  0.0000000E+00  0.7199549E-04
  0.6919192E+00  0.0000000E+00  0.2525252E-01 -0.9290210E-05  0.0000000E+00  0.6810990E-04
  0.7020202E+00  0.0000000E+00  0.2525252E-01 -0.8865607E-05  0.0000000E+00  0.6440229E-04
  0.7121212E+00  0.0000000E+00  0.2525252E-01 -0.8447364E-05  0.0000000E+00  0.6086981E-04
  0.7222222E+00  0.0000000E+00  0.2525252E-01 -0.8036655E-05  0.0000000E+00  0.5750911E-04
  0.7323232E+00  0.0000000E+00  0.2525252E-01 -0.7634373E-05  0.0000000E+00  0.5431649E-04
  0.7424242E+00  0.0000000E+00  0.2525252E-01 -0.7241183E-05  0.0000000E+00  0.5128800E-04
  0.7525253E+00  0.0000000E+00  0.2525252E-01 -0.6857553E-05  0.0000000E+00  0.4841949E-04
  0.7626263E+00  0.0000000E+00  0.2525252E-01 -0.6483791E-05  0.0000000E+00  0.4570667E-04
  0.7727273E+00  0.0000000E+00  0.2525252E-01 -0.6120064E-05  0.0000000E+00  0.4314523E-04
  0.7828283E+00  0.0000000E+00  0.2525252E-01 -0.5766422E-05  0.0000000E+00  0.4073081E-04
  0.7929293E+00  0.0000000E+00  0.2525252E-01 -0.5422816E-05  0.0000000E+00  0.3845911E-04
  0.8030303E+00  0.0000000E+00  0.2525252E-01 -0.5089108E-05  0.0000000E+00  0.3632588E-04
  0.8131313E+00  0.0000000E+00  0.2525252E-01 -0.4765090E-05  0.0000000E+00  0.3432695E-04
  0.8232324E+00  0.0000000E+00  0.2525252E-01 -0.4450488E-05  0.0000000E+00  0.3245827E-04
  0.8333333E+00  0.0000000E+00  0.2525252E-01 -0.4144977E-05  0.0000000E+00  0.3071596E-04
  0.8434343E+00  0.0000000E+00  0.2525252E-01 -0.3848185E-05  0.0000000E+00  0.2909627E-04
  0.8535354E+00  0.0000000E+00  0.2525252E-01 -0.3559702E-05  0.0000000E+00  0.2759562E-04
  0.8636364E+00  0.0000000E+00  0.2525252E-01 -0.3279086E-05  0.0000000E+00  0.2621064E-04
  0.8737374E+00  0.0000000E+00  0.2525252E-01 -0.3005868E-05  0.0000000E+00  0.2493814E-04
  0.8838384E+00  0.0000000E+00  0.2525252E-01 -0.2739557E-05  0.0000000E+00  0.2377514E-04
  0.8939394E+00  0.0000000E+00  0.2525252E-01 -0.2479644E-05  0.0000000E+00  0.2271888E-04
  0.9040404E+00  0.0000000E+00  0.2525252E-01 -0.2225605E-05  0.0000000E+00  0.2176680E-04
  0.9141414E+00  0.0000000E+00  0.2525252E-01 -0.1976903E-05  0.0000000E+00  0.2091659E-04
  0.9242424E+00  0.0000000E+00  0.2525252E-01 -0.1732994E-05  0.0000000E+00  0.2016614E-04
  0.9343435E+00  0.0000000E+00  0.2525252E-01 -0.1493326E-05  0.0000000E+00  0.1951359E-04
  0.9444444E+00  0.0000000E+00  0.2525252E-01 -0.1257340E-05  0.0000000E+00  0.1895730E-04
  0.9545454E+00  0.0000000E+00  0.2525252E-01 -0.1024474E-05  0.0000000E+00  0.1849587E-04
  0.9646465E+00  0.0000000E+00  0.2525252E-01 -0.7941628E-06  0.0000000E+00  0.1812812E-04
  0.9747475E+00  0.0000000E+00  0.2525252E-01 -0.5658397E-06  0.0000000E+00  0.1785313E-04
  0.9848485E+00  0.0000000E+00  0.2525252E-01 -0.3389363E-06  0.0000000E+00  0.1767019E-04
  0.9974747E+00  0.0000000E+00  0.2525252E-01 -0.1128843E-06  0.0000000E+00  0.1757883E-04
  0.5050505E-02  0.0000000E+00  0.3535353E-01  0.1186729E-06  0.0000000E+00  0.8570593E-05
  0.1515152E-01  0.0000000E+00  0.3535353E-01  0.3566213E-06  0.0000000E+00  0.8638926E-05
  0.2525252E-01  0.0000000E+00  0.3535353E-01  0.5963849E-06  0.0000000E+00  0.8775931E-05
  0.3535353E-01  0.0000000E+00  0.3535353E-01  0.8391986E-06  0.0000000E+00  0.8982291E-05
  0.4545455E-01  0.0000000E+00  0.3535353E-01  0.1086334E-05  0.0000000E+00  0.9259043E-05
  0.5555556E-01  0.0000000E+00  0.3535353E-01  0.1339116E-05  0.0000000E+00  0.9607589E-05
  0.6565657E-01  0.0000000E+00  0.3535353E-01  0.1598937E-05  0.0000000E+00  0.1002971E-04
  0.7575758E-01  0.0000000E+00  0.3535353E-01  0.1867280E-05  0.0000000E+00  0.1052760E-04
  0.8585858E-01  0.0000000E+00  0.3535353E-01  0.2145737E-05  0.0000000E+00  0.1110388E-04
  0.9595960E-01  0.0000000E+00  0.3535353E-01  0.2436034E-05  0.0000000E+00  0.1176161E-04
  0.1060606E+00  0.0000000E+00  0.3535353E-01  0.2740058E-05  0.0000000E+00  0.1250437E-04
  0.1161616E+00  0.0000000E+00  0.3535353E-01  0.3059894E-05  0.0000000E+00  0.1333631E-04
  0.1262626E+00  0.0000000E+00  0.3535353E-01  0.3397863E-05  0.0000000E+00  0.1426213E-04
  0.1363636E+00  0.0000000E+00  0.3535353E-01  0.3756569E-05  0.0000000E+00  0.1528725E-04
  0.1464646E+00  0.0000000E+00  0.3535353E-01  0.4138959E-05  0.0000000E+00  0.1641781E-04
  0.1565657E+00  0.0000000E+00  0.3535353E-01  0.4548397E-05  0.0000000E+00  0.1766081E-04
  0.1666667E+00  0.0000000E+00  0.3535353E-01  0.4988755E-05  0.0000000E+00  0.1902420E-04
  0.1767677E+00  0.0000000E+00  0.3535353E-01  0.5464529E-05  0.0000000E+00  0.2051702E-04
  0.1868687E+00  0.0000000E+00  0.3535353E-01  0.5980987E-05  0.0000000E+00  0.2214959E-04
  0.1969697E+00  0.0000000E+00  0.3535353E-01  0.6544364E-05  0.0000000E+00  0.2393367E-04
  0.2070707E+00  0.0000000E+00  0.3535353E-01  0.7162114E-05  0.0000000E+00  0.2588271E-04
  0.2171717E+00  0.0000000E+00  0.3535353E-01  0.7843251E-05  0.0000000E+00  0.2801217E-04
  0.2272727E+00  0.0000000E+00  0.3535353E-01  0.8598805E-05  0.0000000E+00  0.3033985E-04
  0.2373737E+00  0.0000000E+00  0.3535353E-01  0.9442450E-05  0.0000000E+00  0.3288636E-04
  0.2474747E+00  0.0000000E+00  0.3535353E-01  0.1039137E-04  0.0000000E+00  0.3567563E-04
  0.2575758E+00  0.0000000E+00  0.3535353E-01  0.1146750E-04  0.0000000E+00  0.3873562E-04
  0.2676768E+00  0.0000000E+00  0.3535353E-01  0.1269928E-04  0.0000000E+00  0.4209912E-04
  0.2777778E+00  0.0000000E+00  0.3535353E-01  0.1412419E-04  0.0000000E+00  0.4580473E-04
  0.2878788E+00  0.0000000E+00  0.3535353E-01  0.1579258E-04  0.0000000E+00  0.4989804E-04
  0.2979798E+00  0.0000000E+00  0.3535353E-01  0.1777334E-04  0.0000000E+00  0.5443279E-04