title = "dataset water"
variables = "x", "y", "z", "vx", "vy", "vz"
zone t = "velocities, solution time =  4.000E+01 days        " i =   99, j =   99, k =    1,  f=point
  0.5050505E-02  0.0000000E+00  0.5050505E-02  0.4124409E-07  0.0000000E+00  0.3495901E-04
  0.1515152E-01  0.0000000E+00  0.5050505E-02  0.1239708E-06  0.0000000E+00  0.3512542E-04
  0.2525252E-01  0.0000000E+00  0.5050505E-02  0.2074178E-06  0.0000000E+00  0.3545921E-04
  0.3535353E-01  0.0000000E+00  0.5050505E-02  0.2920771E-06  0.0000000E+00  0.3596234E-04
  0.4545455E-01  0.0000000E+00  0.5050505E-02  0.3784575E-06  0.0000000E+00  0.3663780E-04
  0.5555556E-01  0.0000000E+00  0.5050505E-02  0.4670908E-06  0.0000000E+00  0.3748964E-04
  0.6565657E-01  0.0000000E+00  0.5050505E-02  0.5585393E-06  0.0000000E+00  0.3852300E-04
  0.7575758E-01  0.0000000E+00  0.5050505E-02  0.6534037E-06  0.0000000E+00  0.3974423E-04
  0.8585858E-01  0.0000000E+00  0.5050505E-02  0.7523323E-06  0.0000000E+00  0.4116095E-04
  0.9595960E-01  0.0000000E+00  0.5050505E-02  0.8560314E-06  0.0000000E+00  0.4278217E-04
  0.1060606E+00  0.0000000E+00  0.5050505E-02  0.9652766E-06  0.0000000E+00  0.4461840E-04
  0.1161616E+00  0.0000000E+00  0.5050505E-02  0.1080928E-05  0.0000000E+00  0.4668183E-04
  0.1262626E+00  0.0000000E+00  0.5050505E-02  0.1203944E-05  0.0000000E+00  0.4898651E-04
  0.1363636E+00  0.0000000E+00  0.5050505E-02  0.1335405E-05  0.0000000E+00  0.5154861E-04
  0.1464646E+00  0.0000000E+00  0.5050505E-02  0.1476533E-05  0.0000000E+00  0.5438663E-04
  0.1565657E+00  0.0000000E+00  0.5050505E-02  0.1628726E-05  0.0000000E+00  0.5752177E-04
  0.1666667E+00  0.0000000E+00  0.5050505E-02  0.1793587E-05  0.0000000E+00  0.6097835E-04
  0.1767677E+00  0.0000000E+00  0.5050505E-02  0.1972979E-05  0.0000000E+00  0.6478424E-04
  0.1868687E+00  0.0000000E+00  0.5050505E-02  0.2169077E-05  0.0000000E+00  0.6897149E-04
  0.1969697E+00  0.0000000E+00  0.5050505E-02  0.2384446E-05  0.0000000E+00  0.7357706E-04
  0.2070707E+00  0.0000000E+00  0.5050505E-02  0.2622144E-05  0.0000000E+00  0.7864373E-04
  0.2171717E+00  0.0000000E+00  0.5050505E-02  0.2885852E-05  0.0000000E+00  0.8422128E-04
  0.2272727E+00  0.0000000E+00  0.5050505E-02  0.3180059E-05  0.0000000E+00  0.9036798E-04
  0.2373737E+00  0.0000000E+00  0.5050505E-02  0.3510321E-05  0.0000000E+00  0.9715257E-04
  0.2474747E+00  0.0000000E+00  0.5050505E-02  0.3883614E-05  0.0000000E+00  0.1046569E-03
  0.2575758E+00  0.0000000E+00  0.5050505E-02  0.4308871E-05  0.0000000E+00  0.1129792E-03
  0.2676768E+00  0.0000000E+00  0.5050505E-02  0.4797768E-05  0.0000000E+00  0.1222397E-03
  0.2777778E+00  0.0000000E+00  0.5050505E-02  0.5365953E-05  0.0000000E+00  0.1325868E-03
  0.2878788E+00  0.0000000E+00  0.5050505E-02  0.6035024E-05  0.0000000E+00  0.1442083E-03
  0.2979798E+00  0.0000000E+00  0.5050505E-02  0.6835879E-05  0.0000000E+00  0.1573467E-03
  0.3080808E+00  0.0000000E+00  0.5050505E-02  0.7814750E-05  0.0000000E+00  0.1723260E-03
  0.3181818E+00  0.0000000E+00  0.5050505E-02  0.9044898E-05  0.0000000E+00  0.1895955E-03
  0.3282828E+00  0.0000000E+00  0.5050505E-02  0.1065154E-04  0.0000000E+00  0.2098136E-03
  0.3383838E+00  0.0000000E+00  0.5050505E-02  0.1287116E-04  0.0000000E+00  0.2340194E-03
  0.3484848E+00  0.0000000E+00  0.5050505E-02  0.1621166E-04  0.0000000E+00  0.2640368E-03
  0.3585859E+00  0.0000000E+00  0.5050505E-02  0.2194376E-04  0.0000000E+00  0.3035666E-03
  0.3686869E+00  0.0000000E+00  0.5050505E-02  0.3380342E-04  0.0000000E+00  0.3616153E-03
  0.3787879E+00  0.0000000E+00  0.5050505E-02  0.6453357E-04  0.0000000E+00  0.4648098E-03
  0.3888889E+00  0.0000000E+00  0.5050505E-02 -0.1076702E-04  0.0000000E+00  0.5212423E-03
  0.3989899E+00  0.0000000E+00  0.5050505E-02 -0.3473269E-05  0.0000000E+00  0.5060535E-03
  0.4090909E+00  0.0000000E+00  0.5050505E-02 -0.6923129E-07  0.0000000E+00  0.5022775E-03
  0.4191919E+00  0.0000000E+00  0.5050505E-02  0.1804047E-05  0.0000000E+00  0.5041266E-03
  0.4292929E+00  0.0000000E+00  0.5050505E-02  0.2267404E-05  0.0000000E+00  0.5084674E-03
  0.4393939E+00  0.0000000E+00  0.5050505E-02  0.1588325E-05  0.0000000E+00  0.5125800E-03
  0.4494950E+00  0.0000000E+00  0.5050505E-02  0.2727472E-06  0.0000000E+00  0.5145659E-03
  0.4595959E+00  0.0000000E+00  0.5050505E-02 -0.1358121E-05  0.0000000E+00  0.5134077E-03
  0.4696970E+00  0.0000000E+00  0.5050505E-02 -0.3145139E-05  0.0000000E+00  0.5086049E-03
  0.4797980E+00  0.0000000E+00  0.5050505E-02 -0.4956177E-05  0.0000000E+00  0.4999734E-03
  0.4898990E+00  0.0000000E+00  0.5050505E-02 -0.6630060E-05  0.0000000E+00  0.4876470E-03
  0.5000000E+00  0.0000000E+00  0.5050505E-02 -0.8027766E-05  0.0000000E+00  0.4720814E-03
  0.5101010E+00  0.0000000E+00  0.5050505E-02 -0.9009256E-05  0.0000000E+00  0.4540280E-03
  0.5202020E+00  0.0000000E+00  0.5050505E-02 -0.9580188E-05  0.0000000E+00  0.4343755E-03
  0.5303030E+00  0.0000000E+00  0.5050505E-02 -0.9823359E-05  0.0000000E+00  0.4139124E-03
  0.5404040E+00  0.0000000E+00  0.5050505E-02 -0.9828414E-05  0.0000000E+00  0.3932387E-03
  0.5505050E+00  0.0000000E+00  0.5050505E-02 -0.9667520E-05  0.0000000E+00  0.3727792E-03
  0.5606061E+00  0.0000000E+00  0.5050505E-02 -0.9394312E-05  0.0000000E+00  0.3528233E-03
  0.5707071E+00  0.0000000E+00  0.5050505E-02 -0.9048209E-05  0.0000000E+00  0.3335606E-03
  0.5808081E+00  0.0000000E+00  0.5050505E-02 -0.8658194E-05  0.0000000E+00  0.3151078E-03
  0.5909091E+00  0.0000000E+00  0.5050505E-02 -0.8245387E-05  0.0000000E+00  0.2975292E-03
  0.6010101E+00  0.0000000E+00  0.5050505E-02 -0.7824862E-05  0.0000000E+00  0.2808508E-03
  0.6111111E+00  0.0000000E+00  0.5050505E-02 -0.7407047E-05  0.0000000E+00  0.2650726E-03
  0.6212121E+00  0.0000000E+00  0.5050505E-02 -0.6998869E-05  0.0000000E+00  0.2501771E-03
  0.6313131E+00  0.0000000E+00  0.5050505E-02 -0.6604684E-05  0.0000000E+00  0.2361350E-03
  0.6414142E+00  0.0000000E+00  0.5050505E-02 -0.6227014E-05  0.0000000E+00  0.2229110E-03
  0.6515151E+00  0.0000000E+00  0.5050505E-02 -0.5867103E-05  0.0000000E+00  0.2104660E-03
  0.6616161E+00  0.0000000E+00  0.5050505E-02 -0.5525336E-05  0.0000000E+00  0.1987596E-03
  0.6717172E+00  0.0000000E+00  0.5050505E-02 -0.5201529E-05  0.0000000E+00  0.1877519E-03
  0.6818182E+00  0.0000000E+00  0.5050505E-02 -0.4895138E-05  0.0000000E+00  0.1774039E-03
  0.6919192E+00  0.0000000E+00  0.5050505E-02 -0.4605406E-05  0.0000000E+00  0.1676785E-03
  0.7020202E+00  0.0000000E+00  0.5050505E-02 -0.4331453E-05  0.0000000E+00  0.1585402E-03
  0.7121212E+00  0.0000000E+00  0.5050505E-02 -0.4072351E-05  0.0000000E+00  0.1499560E-03
  0.7222222E+00  0.0000000E+00  0.5050505E-02 -0.3827161E-05  0.0000000E+00  0.1418948E-03
  0.7323232E+00  0.0000000E+00  0.5050505E-02 -0.3594967E-05  0.0000000E+00  0.1343277E-03
  0.7424242E+00  0.0000000E+00  0.5050505E-02 -0.3374887E-05  0.0000000E+00  0.1272279E-03
  0.7525253E+00  0.0000000E+00  0.5050505E-02 -0.3166086E-05  0.0000000E+00  0.1205704E-03
  0.7626263E+00  0.0000000E+00  0.5050505E-02 -0.2967782E-05  0.0000000E+00  0.1143320E-03
  0.7727273E+00  0.0000000E+00  0.5050505E-02 -0.2779240E-05  0.0000000E+00  0.1084912E-03
  0.7828283E+00  0.0000000E+00  0.5050505E-02 -0.2599776E-05  0.0000000E+00  0.1030281E-03
  0.7929293E+00  0.0000000E+00  0.5050505E-02 -0.2428750E-05  0.0000000E+00  0.9792406E-04
  0.8030303E+00  0.0000000E+00  0.5050505E-02 -0.2265564E-05  0.0000000E+00  0.9316207E-04
  0.8131313E+00  0.0000000E+00  0.5050505E-02 -0.2109655E-05  0.0000000E+00  0.8872617E-04
  0.8232324E+00  0.0000000E+00  0.5050505E-02 -0.1960496E-05  0.0000000E+00  0.8460165E-04
  0.8333333E+00  0.0000000E+00  0.5050505E-02 -0.1817585E-05  0.0000000E+00  0.8077490E-04
  0.8434343E+00  0.0000000E+00  0.5050505E-02 -0.1680449E-05  0.0000000E+00  0.7723333E-04
  0.8535354E+00  0.0000000E+00  0.5050505E-02 -0.1548638E-05  0.0000000E+00  0.7396536E-04
  0.8636364E+00  0.0000000E+00  0.5050505E-02 -0.1421720E-05  0.0000000E+00  0.7096034E-04
  0.8737374E+00  0.0000000E+00  0.5050505E-02 -0.1299285E-05  0.0000000E+00  0.6820850E-04
  0.8838384E+00  0.0000000E+00  0.5050505E-02 -0.1180937E-05  0.0000000E+00  0.6570095E-04
  0.8939394E+00  0.0000000E+00  0.5050505E-02 -0.1066295E-05  0.0000000E+00  0.6342958E-04
  0.9040404E+00  0.0000000E+00  0.5050505E-02 -0.9549922E-06  0.0000000E+00  0.6138710E-04
  0.9141414E+00  0.0000000E+00  0.5050505E-02 -0.8466736E-06  0.0000000E+00  0.5956695E-04
  0.9242424E+00  0.0000000E+00  0.5050505E-02 -0.7409949E-06  0.0000000E+00  0.5796330E-04
  0.9343435E+00  0.0000000E+00  0.5050505E-02 -0.6376218E-06  0.0000000E+00  0.5657105E-04
  0.9444444E+00  0.0000000E+00  0.5050505E-02 -0.5362281E-06  0.0000000E+00  0.5538576E-04
  0.9545454E+00  0.0000000E+00  0.5050505E-02 -0.4364953E-06  0.0000000E+00  0.5440367E-04
  0.9646465E+00  0.0000000E+00  0.5050505E-02 -0.3381114E-06  0.0000000E+00  0.5362169E-04
  0.9747475E+00  0.0000000E+00  0.5050505E-02 -0.2407695E-06  0.0000000E+00  0.5303733E-04
  0.9848485E+00  0.0000000E+00  0.5050505E-02 -0.1441676E-06  0.0000000E+00  0.5264877E-04
  0.9974747E+00  0.0000000E+00  0.5050505E-02 -0.4800709E-07  0.0000000E+00  0.5245480E-04
  0.5050505E-02  0.0000000E+00  0.1515152E-01  0.1235185E-06  0.0000000E+00  0.3495013E-04
  0.1515152E-01  0.0000000E+00  0.1515152E-01  0.3712696E-06  0.0000000E+00  0.3511616E-04
  0.2525252E-01  0.0000000E+00  0.1515152E-01  0.6211749E-06  0.0000000E+00  0.3544917E-04
  0.3535353E-01  0.0000000E+00  0.1515152E-01  0.8747058E-06  0.0000000E+00  0.3595112E-04
  0.4545455E-01  0.0000000E+00  0.1515152E-01  0.1133383E-05  0.0000000E+00  0.3662496E-04
  0.5555556E-01  0.0000000E+00  0.1515152E-01  0.1398794E-05  0.0000000E+00  0.3747469E-04
  0.6565657E-01  0.0000000E+00  0.1515152E-01  0.1672621E-05  0.0000000E+00  0.3850542E-04
  0.7575758E-01  0.0000000E+00  0.1515152E-01  0.1956657E-05  0.0000000E+00  0.3972343E-04
  0.8585858E-01  0.0000000E+00  0.1515152E-01  0.2252838E-05  0.0000000E+00  0.4113628E-04
  0.9595960E-01  0.0000000E+00  0.1515152E-01  0.2563273E-05  0.0000000E+00  0.4275286E-04
  0.1060606E+00  0.0000000E+00  0.1515152E-01  0.2890278E-05  0.0000000E+00  0.4458359E-04
  0.1161616E+00  0.0000000E+00  0.1515152E-01  0.3236416E-05  0.0000000E+00  0.4664051E-04
  0.1262626E+00  0.0000000E+00  0.1515152E-01  0.3604550E-05  0.0000000E+00  0.4893753E-04
  0.1363636E+00  0.0000000E+00  0.1515152E-01  0.3997897E-05  0.0000000E+00  0.5149059E-04
  0.1464646E+00  0.0000000E+00  0.1515152E-01  0.4420101E-05  0.0000000E+00  0.5431797E-04
  0.1565657E+00  0.0000000E+00  0.1515152E-01  0.4875318E-05  0.0000000E+00  0.5744056E-04
  0.1666667E+00  0.0000000E+00  0.1515152E-01  0.5368326E-05  0.0000000E+00  0.6088231E-04
  0.1767677E+00  0.0000000E+00  0.1515152E-01  0.5904657E-05  0.0000000E+00  0.6467063E-04
  0.1868687E+00  0.0000000E+00  0.1515152E-01  0.6490769E-05  0.0000000E+00  0.6883701E-04
  0.1969697E+00  0.0000000E+00  0.1515152E-01  0.7134271E-05  0.0000000E+00  0.7341765E-04
  0.2070707E+00  0.0000000E+00  0.1515152E-01  0.7844215E-05  0.0000000E+00  0.7845439E-04
  0.2171717E+00  0.0000000E+00  0.1515152E-01  0.8631481E-05  0.0000000E+00  0.8399579E-04
  0.2272727E+00  0.0000000E+00  0.1515152E-01  0.9509311E-05  0.0000000E+00  0.9009847E-04
  0.2373737E+00  0.0000000E+00  0.1515152E-01  0.1049404E-04  0.0000000E+00  0.9682895E-04
  0.2474747E+00  0.0000000E+00  0.1515152E-01  0.1160611E-04  0.0000000E+00  0.1042660E-03
  0.2575758E+00  0.0000000E+00  0.1515152E-01  0.1287160E-04  0.0000000E+00  0.1125037E-03
  0.2676768E+00  0.0000000E+00  0.1515152E-01  0.1432439E-04  0.0000000E+00  0.1216557E-03
  0.2777778E+00  0.0000000E+00  0.1515152E-01  0.1600960E-04  0.0000000E+00  0.1318613E-03
  0.2878788E+00  0.0000000E+00  0.1515152E-01  0.1798887E-04  0.0000000E+00  0.1432935E-03
  0.2979798E+00  0.0000000E+00  0.1515152E-01  0.2034920E-04  0.0000000E+00  0.1561713E-03
  0.3080808E+00  0.0000000E+00  0.1515152E-01  0.2321820E-04  0.0000000E+00  0.1707771E-03
  0.3181818E+00  0.0000000E+00  0.1515152E-01  0.2679193E-04  0.0000000E+00  0.1874825E-03
  0.3282828E+00  0.0000000E+00  0.1515152E-01  0.3138934E-04  0.0000000E+00  0.2067840E-03
  0.3383838E+00  0.0000000E+00  0.1515152E-01  0.3756676E-04  0.0000000E+00  0.2293395E-03
  0.3484848E+00  0.0000000E+00  0.1515152E-01  0.4637769E-04  0.0000000E+00  0.2559396E-03
  0.3585859E+00  0.0000000E+00  0.1515152E-01  0.6000841E-04  0.0000000E+00  0.2870570E-03
  0.3686869E+00  0.0000000E+00  0.1515152E-01  0.8343508E-04  0.0000000E+00  0.3202198E-03
  0.3787879E+00  0.0000000E+00  0.1515152E-01  0.1289407E-03  0.0000000E+00  0.3367620E-03
  0.3888889E+00  0.0000000E+00  0.1515152E-01  0.5470424E-04  0.0000000E+00  0.4167957E-03
  0.3989899E+00  0.0000000E+00  0.1515152E-01 -0.6649129E-05  0.0000000E+00  0.4970505E-03
  0.4090909E+00  0.0000000E+00  0.1515152E-01  0.1314540E-05  0.0000000E+00  0.4989043E-03
  0.4191919E+00  0.0000000E+00  0.1515152E-01  0.6790708E-05  0.0000000E+00  0.5038622E-03
  0.4292929E+00  0.0000000E+00  0.1515152E-01  0.7905267E-05  0.0000000E+00  0.5108805E-03
  0.4393939E+00  0.0000000E+00  0.1515152E-01  0.5375567E-05  0.0000000E+00  0.5168518E-03
  0.4494950E+00  0.0000000E+00  0.1515152E-01  0.1118320E-05  0.0000000E+00  0.5198260E-03
  0.4595959E+00  0.0000000E+00  0.1515152E-01 -0.3925865E-05  0.0000000E+00  0.5191399E-03
  0.4696970E+00  0.0000000E+00  0.1515152E-01 -0.9411711E-05  0.0000000E+00  0.5144887E-03
  0.4797980E+00  0.0000000E+00  0.1515152E-01 -0.1499890E-04  0.0000000E+00  0.5056898E-03
  0.4898990E+00  0.0000000E+00  0.1515152E-01 -0.2015738E-04  0.0000000E+00  0.4928716E-03
  0.5000000E+00  0.0000000E+00  0.1515152E-01 -0.2449123E-04  0.0000000E+00  0.4765134E-03
  0.5101010E+00  0.0000000E+00  0.1515152E-01 -0.2743846E-04  0.0000000E+00  0.4575169E-03
  0.5202020E+00  0.0000000E+00  0.1515152E-01 -0.2907828E-04  0.0000000E+00  0.4370022E-03
  0.5303030E+00  0.0000000E+00  0.1515152E-01 -0.2972542E-04  0.0000000E+00  0.4158490E-03
  0.5404040E+00  0.0000000E+00  0.1515152E-01 -0.2967263E-04  0.0000000E+00  0.3946514E-03
  0.5505050E+00  0.0000000E+00  0.1515152E-01 -0.2913817E-04  0.0000000E+00  0.3738007E-03
  0.5606061E+00  0.0000000E+00  0.1515152E-01 -0.2827945E-04  0.0000000E+00  0.3535545E-03
  0.5707071E+00  0.0000000E+00  0.1515152E-01 -0.2721149E-04  0.0000000E+00  0.3340781E-03
  0.5808081E+00  0.0000000E+00  0.1515152E-01 -0.2601907E-04  0.0000000E+00  0.3154699E-03
  0.5909091E+00  0.0000000E+00  0.1515152E-01 -0.2476401E-04  0.0000000E+00  0.2977796E-03
  0.6010101E+00  0.0000000E+00  0.1515152E-01 -0.2349030E-04  0.0000000E+00  0.2810221E-03
  0.6111111E+00  0.0000000E+00  0.1515152E-01 -0.2222821E-04  0.0000000E+00  0.2651887E-03
  0.6212121E+00  0.0000000E+00  0.1515152E-01 -0.2099766E-04  0.0000000E+00  0.2502550E-03
  0.6313131E+00  0.0000000E+00  0.1515152E-01 -0.1981103E-04  0.0000000E+00  0.2361869E-03
  0.6414142E+00  0.0000000E+00  0.1515152E-01 -0.1867535E-04  0.0000000E+00  0.2229453E-03
  0.6515151E+00  0.0000000E+00  0.1515152E-01 -0.1759393E-04  0.0000000E+00  0.2104885E-03
  0.6616161E+00  0.0000000E+00  0.1515152E-01 -0.1656764E-04  0.0000000E+00  0.1987745E-03
  0.6717172E+00  0.0000000E+00  0.1515152E-01 -0.1559570E-04  0.0000000E+00  0.1877618E-03
  0.6818182E+00  0.0000000E+00  0.1515152E-01 -0.1467634E-04  0.0000000E+00  0.1774106E-03
  0.6919192E+00  0.0000000E+00  0.1515152E-01 -0.1380717E-04  0.0000000E+00  0.1676831E-03
  0.7020202E+00  0.0000000E+00  0.1515152E-01 -0.1298548E-04  0.0000000E+00  0.1585435E-03
  0.7121212E+00  0.0000000E+00  0.1515152E-01 -0.1220844E-04  0.0000000E+00  0.1499585E-03
  0.7222222E+00  0.0000000E+00  0.1515152E-01 -0.1147318E-04  0.0000000E+00  0.1418968E-03
  0.7323232E+00  0.0000000E+00  0.1515152E-01 -0.1077693E-04  0.0000000E+00  0.1343295E-03
  0.7424242E+00  0.0000000E+00  0.1515152E-01 -0.1011704E-04  0.0000000E+00  0.1272295E-03
  0.7525253E+00  0.0000000E+00  0.1515152E-01 -0.9490988E-05  0.0000000E+00  0.1205719E-03
  0.7626263E+00  0.0000000E+00  0.1515152E-01 -0.8896419E-05  0.0000000E+00  0.1143334E-03
  0.7727273E+00  0.0000000E+00  0.1515152E-01 -0.8331130E-05  0.0000000E+00  0.1084926E-03
  0.7828283E+00  0.0000000E+00  0.1515152E-01 -0.7793066E-05  0.0000000E+00  0.1030295E-03
  0.7929293E+00  0.0000000E+00  0.1515152E-01 -0.7280309E-05  0.0000000E+00  0.9792556E-04
  0.8030303E+00  0.0000000E+00  0.1515152E-01 -0.6791062E-05  0.0000000E+00  0.9316367E-04
  0.8131313E+00  0.0000000E+00  0.1515152E-01 -0.6323643E-05  0.0000000E+00  0.8872793E-04
  0.8232324E+00  0.0000000E+00  0.1515152E-01 -0.5876465E-05  0.0000000E+00  0.8460359E-04
  0.8333333E+00  0.0000000E+00  0.1515152E-01 -0.5448030E-05  0.0000000E+00  0.8077704E-04
  0.8434343E+00  0.0000000E+00  0.1515152E-01 -0.5036918E-05  0.0000000E+00  0.7723570E-04
  0.8535354E+00  0.0000000E+00  0.1515152E-01 -0.4641776E-05  0.0000000E+00  0.7396797E-04
  0.8636364E+00  0.0000000E+00  0.1515152E-01 -0.4261314E-05  0.0000000E+00  0.7096320E-04
  0.8737374E+00  0.0000000E+00  0.1515152E-01 -0.3894297E-05  0.0000000E+00  0.6821162E-04
  0.8838384E+00  0.0000000E+00  0.1515152E-01 -0.3539539E-05  0.0000000E+00  0.6570431E-04
  0.8939394E+00  0.0000000E+00  0.1515152E-01 -0.3195898E-05  0.0000000E+00  0.6343318E-04
  0.9040404E+00  0.0000000E+00  0.1515152E-01 -0.2862274E-05  0.0000000E+00  0.6139092E-04
  0.9141414E+00  0.0000000E+00  0.1515152E-01 -0.2537601E-05  0.0000000E+00  0.5957098E-04
  0.9242424E+00  0.0000000E+00  0.1515152E-01 -0.2220848E-05  0.0000000E+00  0.5796752E-04
  0.9343435E+00  0.0000000E+00  0.1515152E-01 -0.1911011E-05  0.0000000E+00  0.5657543E-04
  0.9444444E+00  0.0000000E+00  0.1515152E-01 -0.1607112E-05  0.0000000E+00  0.5539028E-04
  0.9545454E+00  0.0000000E+00  0.1515152E-01 -0.1308197E-05  0.0000000E+00  0.5440831E-04
  0.9646465E+00  0.0000000E+00  0.1515152E-01 -0.1013329E-05  0.0000000E+00  0.5362642E-04
  0.9747475E+00  0.0000000E+00  0.1515152E-01 -0.7215886E-06  0.0000000E+00  0.5304213E-04
  0.9848485E+00  0.0000000E+00  0.1515152E-01 -0.4320695E-06  0.0000000E+00  0.5265361E-04
  0.9974747E+00  0.0000000E+00  0.1515152E-01 -0.1438765E-06  0.0000000E+00  0.5245965E-04
  0.5050505E-02  0.0000000E+00  0.2525252E-01  0.2052755E-06  0.0000000E+00  0.3493370E-04
  0.1515152E-01  0.0000000E+00  0.2525252E-01  0.6170100E-06  0.0000000E+00  0.3509898E-04
  0.2525252E-01  0.0000000E+00  0.2525252E-01  0.1032314E-05  0.0000000E+00  0.3543047E-04
  0.3535353E-01  0.0000000E+00  0.2525252E-01  0.1453622E-05  0.0000000E+00  0.3593009E-04
  0.4545455E-01  0.0000000E+00  0.2525252E-01  0.1883451E-05  0.0000000E+00  0.3660073E-04
  0.5555556E-01  0.0000000E+00  0.2525252E-01  0.2324429E-05  0.0000000E+00  0.3744633E-04
  0.6565657E-01  0.0000000E+00  0.2525252E-01  0.2779334E-05  0.0000000E+00  0.3847189E-04
  0.7575758E-01  0.0000000E+00  0.2525252E-01  0.3251134E-05  0.0000000E+00  0.3968359E-04
  0.8585858E-01  0.0000000E+00  0.2525252E-01  0.3743027E-05  0.0000000E+00  0.4108881E-04
  0.9595960E-01  0.0000000E+00  0.2525252E-01  0.4258494E-05  0.0000000E+00  0.4269629E-04
  0.1060606E+00  0.0000000E+00  0.2525252E-01  0.4801357E-05  0.0000000E+00  0.4451621E-04
  0.1161616E+00  0.0000000E+00  0.2525252E-01  0.5375847E-05  0.0000000E+00  0.4656037E-04
  0.1262626E+00  0.0000000E+00  0.2525252E-01  0.5986678E-05  0.0000000E+00  0.4884233E-04
  0.1363636E+00  0.0000000E+00  0.2525252E-01  0.6639148E-05  0.0000000E+00  0.5137766E-04
  0.1464646E+00  0.0000000E+00  0.2525252E-01  0.7339248E-05  0.0000000E+00  0.5418415E-04
  0.1565657E+00  0.0000000E+00  0.2525252E-01  0.8093806E-05  0.0000000E+00  0.5728213E-04
  0.1666667E+00  0.0000000E+00  0.2525252E-01  0.8910653E-05  0.0000000E+00  0.6069483E-04
  0.1767677E+00  0.0000000E+00  0.2525252E-01  0.9798845E-05  0.0000000E+00  0.6444876E-04
  0.1868687E+00  0.0000000E+00  0.2525252E-01  0.1076893E-04  0.0000000E+00  0.6857429E-04
  0.1969697E+00  0.0000000E+00  0.2525252E-01  0.1183331E-04  0.0000000E+00  0.7310622E-04
  0.2070707E+00  0.0000000E+00  0.2525252E-01  0.1300668E-04  0.0000000E+00  0.7808459E-04
  0.2171717E+00  0.0000000E+00  0.2525252E-01  0.1430666E-04  0.0000000E+00  0.8355558E-04
  0.2272727E+00  0.0000000E+00  0.2525252E-01  0.1575458E-04  0.0000000E+00  0.8957271E-04
  0.2373737E+00  0.0000000E+00  0.2525252E-01  0.1737661E-04  0.0000000E+00  0.9619834E-04
  0.2474747E+00  0.0000000E+00  0.2525252E-01  0.1920534E-04  0.0000000E+00  0.1035055E-03
  0.2575758E+00  0.0000000E+00  0.2525252E-01  0.2128192E-04  0.0000000E+00  0.1115803E-03
  0.2676768E+00  0.0000000E+00  0.2525252E-01  0.2365934E-04  0.0000000E+00  0.1205252E-03
  0.2777778E+00  0.0000000E+00  0.2525252E-01  0.2640718E-04  0.0000000E+00  0.1304625E-03
  0.2878788E+00  0.0000000E+00  0.2525252E-01  0.2961888E-04  0.0000000E+00  0.1415402E-03
  0.2979798E+00  0.0000000E+00  0.2525252E-01  0.3342321E-04  0.0000000E+00  0.1539375E-03
  0.3080808E+00  0.0000000E+00  0.2525252E-01  0.3800271E-04  0.0000000E+00  0.1678722E-03
  0.3181818E+00  0.0000000E+00  0.2525252E-01  0.4362442E-04  0.0000000E+00  0.1836061E-03
  0.3282828E+00  0.0000000E+00  0.2525252E-01  0.5069180E-04  0.0000000E+00  0.2014418E-03
  0.3383838E+00  0.0000000E+00  0.2525252E-01  0.5983263E-04  0.0000000E+00  0.2216890E-03
  0.3484848E+00  0.0000000E+00  0.2525252E-01  0.7203884E-04  0.0000000E+00  0.2445465E-03
  0.3585859E+00  0.0000000E+00  0.2525252E-01  0.8883284E-04  0.0000000E+00  0.2697963E-03
  0.3686869E+00  0.0000000E+00  0.2525252E-01  0.1121542E-03  0.0000000E+00  0.2963450E-03
  0.3787879E+00  0.0000000E+00  0.2525252E-01  0.1422054E-03  0.0000000E+00  0.3236884E-03
  0.3888889E+00  0.0000000E+00  0.2525252E-01  0.1646635E-03  0.0000000E+00  0.3725927E-03
  0.3989899E+00  0.0000000E+00  0.2525252E-01  0.3353386E-04  0.0000000E+00  0.4497805E-03
  0.4090909E+00  0.0000000E+00  0.2525252E-01  0.5290162E-05  0.0000000E+00  0.4947192E-03
  0.4191919E+00  0.0000000E+00  0.2525252E-01  0.1604220E-04  0.0000000E+00  0.5039357E-03
  0.4292929E+00  0.0000000E+00  0.2525252E-01  0.1706084E-04  0.0000000E+00  0.5166695E-03
  0.4393939E+00  0.0000000E+00  0.2525252E-01  0.1082474E-04  0.0000000E+00  0.5263975E-03
  0.4494950E+00  0.0000000E+00  0.2525252E-01  0.2709359E-05  0.0000000E+00  0.5310026E-03
  0.4595959E+00  0.0000000E+00  0.2525252E-01 -0.6086766E-05  0.0000000E+00  0.5310672E-03
  0.4696970E+00  0.0000000E+00  0.2525252E-01 -0.1559993E-04  0.0000000E+00  0.5267146E-03
  0.4797980E+00  0.0000000E+00  0.2525252E-01 -0.2547526E-04  0.0000000E+00  0.5175850E-03
  0.4898990E+00  0.0000000E+00  0.2525252E-01 -0.3451486E-04  0.0000000E+00  0.5037589E-03
  0.5000000E+00  0.0000000E+00  0.2525252E-01 -0.4234636E-04  0.0000000E+00  0.4856649E-03
  0.5101010E+00  0.0000000E+00  0.2525252E-01 -0.4721113E-04  0.0000000E+00  0.4645484E-03
  0.5202020E+00  0.0000000E+00  0.2525252E-01 -0.4963679E-04  0.0000000E+00  0.4422049E-03
  0.5303030E+00  0.0000000E+00  0.2525252E-01 -0.5041520E-04  0.0000000E+00  0.4196602E-03
  0.5404040E+00  0.0000000E+00  0.2525252E-01 -0.5009576E-04  0.0000000E+00  0.3974319E-03
  0.5505050E+00  0.0000000E+00  0.2525252E-01 -0.4903280E-04  0.0000000E+00  0.3758164E-03
  0.5606061E+00  0.0000000E+00  0.2525252E-01 -0.4747160E-04  0.0000000E+00  0.3550026E-03
  0.5707071E+00  0.0000000E+00  0.2525252E-01 -0.4559257E-04  0.0000000E+00  0.3351081E-03
  0.5808081E+00  0.0000000E+00  0.2525252E-01 -0.4353005E-04  0.0000000E+00  0.3161956E-03
  0.5909091E+00  0.0000000E+00  0.2525252E-01 -0.4138219E-04  0.0000000E+00  0.2982869E-03
  0.6010101E+00  0.0000000E+00  0.2525252E-01 -0.3921835E-04  0.0000000E+00  0.2813749E-03
  0.6111111E+00  0.0000000E+00  0.2525252E-01 -0.3708553E-04  0.0000000E+00  0.2654332E-03
  0.6212121E+00  0.0000000E+00  0.2525252E-01 -0.3501407E-04  0.0000000E+00  0.2504245E-03
  0.6313131E+00  0.0000000E+00  0.2525252E-01 -0.3302225E-04  0.0000000E+00  0.2363048E-03
  0.6414142E+00  0.0000000E+00  0.2525252E-01 -0.3111997E-04  0.0000000E+00  0.2230281E-03
  0.6515151E+00  0.0000000E+00  0.2525252E-01 -0.2931144E-04  0.0000000E+00  0.2105474E-03
  0.6616161E+00  0.0000000E+00  0.2525252E-01 -0.2759708E-04  0.0000000E+00  0.1988172E-03
  0.6717172E+00  0.0000000E+00  0.2525252E-01 -0.2597492E-04  0.0000000E+00  0.1877937E-03
  0.6818182E+00  0.0000000E+00  0.2525252E-01 -0.2444148E-04  0.0000000E+00  0.1774352E-03
  0.6919192E+00  0.0000000E+00  0.2525252E-01 -0.2299242E-04  0.0000000E+00  0.1677027E-03
  0.7020202E+00  0.0000000E+00  0.2525252E-01 -0.2162300E-04  0.0000000E+00  0.1585598E-03
  0.7121212E+00  0.0000000E+00  0.2525252E-01 -0.2032828E-04  0.0000000E+00  0.1499723E-03
  0.7222222E+00  0.0000000E+00  0.2525252E-01 -0.1910340E-04  0.0000000E+00  0.1419089E-03
  0.7323232E+00  0.0000000E+00  0.2525252E-01 -0.1794365E-04  0.0000000E+00  0.1343402E-03
  0.7424242E+00  0.0000000E+00  0.2525252E-01 -0.1684454E-04  0.0000000E+00  0.1272392E-03
  0.7525253E+00  0.0000000E+00  0.2525252E-01 -0.1580185E-04  0.0000000E+00  0.1205807E-03
  0.7626263E+00  0.0000000E+00  0.2525252E-01 -0.1481163E-04  0.0000000E+00  0.1143416E-03
  0.7727273E+00  0.0000000E+00  0.2525252E-01 -0.1387020E-04  0.0000000E+00  0.1085003E-03
  0.7828283E+00  0.0000000E+00  0.2525252E-01 -0.1297413E-04  0.0000000E+00  0.1030368E-03
  0.7929293E+00  0.0000000E+00  0.2525252E-01 -0.1212022E-04  0.0000000E+00  0.9793266E-04
  0.8030303E+00  0.0000000E+00  0.2525252E-01 -0.1130549E-04  0.0000000E+00  0.9317067E-04
  0.8131313E+00  0.0000000E+00  0.2525252E-01 -0.1052713E-04  0.0000000E+00  0.8873492E-04
  0.8232324E+00  0.0000000E+00  0.2525252E-01 -0.9782495E-05  0.0000000E+00  0.8461068E-04
  0.8333333E+00  0.0000000E+00  0.2525252E-01 -0.9069097E-05  0.0000000E+00  0.8078431E-04
  0.8434343E+00  0.0000000E+00  0.2525252E-01 -0.8384568E-05  0.0000000E+00  0.7724323E-04
  0.8535354E+00  0.0000000E+00  0.2525252E-01 -0.7726655E-05  0.0000000E+00  0.7397580E-04
  0.8636364E+00  0.0000000E+00  0.2525252E-01 -0.7093210E-05  0.0000000E+00  0.7097137E-04
  0.8737374E+00  0.0000000E+00  0.2525252E-01 -0.6482172E-05  0.0000000E+00  0.6822016E-04
  0.8838384E+00  0.0000000E+00  0.2525252E-01 -0.5891567E-05  0.0000000E+00  0.6571323E-04
  0.8939394E+00  0.0000000E+00  0.2525252E-01 -0.5319492E-05  0.0000000E+00  0.6344247E-04
  0.9040404E+00  0.0000000E+00  0.2525252E-01 -0.4764112E-05  0.0000000E+00  0.6140057E-04
  0.9141414E+00  0.0000000E+00  0.2525252E-01 -0.4223651E-05  0.0000000E+00  0.5958097E-04
  0.9242424E+00  0.0000000E+00  0.2525252E-01 -0.3696391E-05  0.0000000E+00  0.5797782E-04
  0.9343435E+00  0.0000000E+00  0.2525252E-01 -0.3180658E-05  0.0000000E+00  0.5658600E-04
  0.9444444E+00  0.0000000E+00  0.2525252E-01 -0.2674824E-05  0.0000000E+00  0.5540109E-04
  0.9545454E+00  0.0000000E+00  0.2525252E-01 -0.2177297E-05  0.0000000E+00  0.5441932E-04
  0.9646465E+00  0.0000000E+00  0.2525252E-01 -0.1686519E-05  0.0000000E+00  0.5363758E-04
  0.9747475E+00  0.0000000E+00  0.2525252E-01 -0.1200955E-05  0.0000000E+00  0.5305340E-04
  0.9848485E+00  0.0000000E+00  0.2525252E-01 -0.7190982E-06  0.0000000E+00  0.5266495E-04
  0.9974747E+00  0.0000000E+00  0.2525252E-01 -0.2394544E-06  0.0000000E+00  0.5247102E-04
  0.5050505E-02  0.0000000E+00  0.3535353E-01  0.2863398E-06  0.0000000E+00  0.3491122E-04
  0.1515152E-01  0.0000000E+00  0.3535353E-01  0.8606617E-06  0.0000000E+00  0.3507540E-04
  0.2525252E-01  0.0000000E+00  0.3535353E-01  0.1439936E-05  0.0000000E+00  0.3540465E-04
  0.3535353E-01  0.0000000E+00  0.3535353E-01  0.2027538E-05  0.0000000E+00  0.3590085E-04
  0.4545455E-01  0.0000000E+00  0.3535353E-01  0.2626955E-05  0.0000000E+00  0.3656680E-04
  0.5555556E-01  0.0000000E+00  0.3535353E-01  0.3241830E-05  0.0000000E+00  0.3740634E-04
  0.6565657E-01  0.0000000E+00  0.3535353E-01  0.3876008E-05  0.0000000E+00  0.3842433E-04
  0.7575758E-01  0.0000000E+00  0.3535353E-01  0.4533594E-05  0.0000000E+00  0.3962677E-04
  0.8585858E-01  0.0000000E+00  0.3535353E-01  0.5219012E-05  0.0000000E+00  0.4102083E-04
  0.9595960E-01  0.0000000E+00  0.3535353E-01  0.5937071E-05  0.0000000E+00  0.4261498E-04
  0.1060606E+00  0.0000000E+00  0.3535353E-01  0.6693047E-05  0.0000000E+00  0.4441909E-04
  0.1161616E+00  0.0000000E+00  0.3535353E-01  0.7492772E-05  0.0000000E+00  0.4644456E-04
  0.1262626E+00  0.0000000E+00  0.3535353E-01  0.8342740E-05  0.0000000E+00  0.4870451E-04
  0.1363636E+00  0.0000000E+00  0.3535353E-01  0.9250234E-05  0.0000000E+00  0.5121393E-04
  0.1464646E+00  0.0000000E+00  0.3535353E-01  0.1022348E-04  0.0000000E+00  0.5398993E-04
  0.1565657E+00  0.0000000E+00  0.3535353E-01  0.1127184E-04  0.0000000E+00  0.5705200E-04
  0.1666667E+00  0.0000000E+00  0.3535353E-01  0.1240601E-04  0.0000000E+00  0.6042235E-04
  0.1767677E+00  0.0000000E+00  0.3535353E-01  0.1363834E-04  0.0000000E+00  0.6412624E-04
  0.1868687E+00  0.0000000E+00  0.3535353E-01  0.1498318E-04  0.0000000E+00  0.6819244E-04
  0.1969697E+00  0.0000000E+00  0.3535353E-01  0.1645732E-04  0.0000000E+00  0.7265377E-04
  0.2070707E+00  0.0000000E+00  0.3535353E-01  0.1808057E-04  0.0000000E+00  0.7754772E-04
  0.2171717E+00  0.0000000E+00  0.3535353E-01  0.1987656E-04  0.0000000E+00  0.8291721E-04
  0.2272727E+00  0.0000000E+00  0.3535353E-01  0.2187374E-04  0.0000000E+00  0.8881149E-04
  0.2373737E+00  0.0000000E+00  0.3535353E-01  0.2410672E-04  0.0000000E+00  0.9528722E-04
  0.2474747E+00  0.0000000E+00  0.3535353E-01  0.2661821E-04  0.0000000E+00  0.1024098E-03
  0.2575758E+00  0.0000000E+00  0.3535353E-01  0.2946153E-04  0.0000000E+00  0.1102549E-03
  0.2676768E+00  0.0000000E+00  0.3535353E-01  0.3270438E-04  0.0000000E+00  0.1189101E-03
  0.2777778E+00  0.0000000E+00  0.3535353E-01  0.3643405E-04  0.0000000E+00  0.1284772E-03
  0.2878788E+00  0.0000000E+00  0.3535353E-01  0.4076511E-04  0.0000000E+00  0.1390733E-03
  0.2979798E+00  0.0000000E+00  0.3535353E-01  0.4585072E-04  0.0000000E+00  0.1508328E-03