title = "dataset water"
variables = "x", "y", "z", "vx", "vy", "vz"
zone t = "velocities, solution time =  1.400E+01 days        " i =   99, j =   99, k =    1,  f=point
  0.5050505E-02  0.0000000E+00  0.5050505E-02  0.2840487E-11  0.0000000E+00 -0.3199969E-04
  0.1515152E-01  0.0000000E+00  0.5050505E-02  0.8517369E-11  0.0000000E+00 -0.3199967E-04
  0.2525252E-01  0.0000000E+00  0.5050505E-02  0.1418290E-10  0.0000000E+00 -0.3199965E-04
  0.3535353E-01  0.0000000E+00  0.5050505E-02  0.1982920E-10  0.0000000E+00 -0.3199962E-04
  0.4545455E-01  0.0000000E+00  0.5050505E-02  0.2544892E-10  0.0000000E+00 -0.3199957E-04
  0.5555556E-01  0.0000000E+00  0.5050505E-02  0.3103210E-10  0.0000000E+00 -0.3199952E-04
  0.6565657E-01  0.0000000E+00  0.5050505E-02  0.3657061E-10  0.0000000E+00 -0.3199945E-04
  0.7575758E-01  0.0000000E+00  0.5050505E-02  0.4205549E-10  0.0000000E+00 -0.3199937E-04
  0.8585858E-01  0.0000000E+00  0.5050505E-02  0.4747644E-10  0.0000000E+00 -0.3199928E-04
  0.9595960E-01  0.0000000E+00  0.5050505E-02  0.5282216E-10  0.0000000E+00 -0.3199918E-04
  0.1060606E+00  0.0000000E+00  0.5050505E-02  0.5808064E-10  0.0000000E+00 -0.3199907E-04
  0.1161616E+00  0.0000000E+00  0.5050505E-02  0.6323929E-10  0.0000000E+00 -0.3199894E-04
  0.1262626E+00  0.0000000E+00  0.5050505E-02  0.6828473E-10  0.0000000E+00 -0.3199881E-04
  0.1363636E+00  0.0000000E+00  0.5050505E-02  0.7320266E-10  0.0000000E+00 -0.3199867E-04
  0.1464646E+00  0.0000000E+00  0.5050505E-02  0.7797791E-10  0.0000000E+00 -0.3199852E-04
  0.1565657E+00  0.0000000E+00  0.5050505E-02  0.8259429E-10  0.0000000E+00 -0.3199836E-04
  0.1666667E+00  0.0000000E+00  0.5050505E-02  0.8703475E-10  0.0000000E+00 -0.3199819E-04
  0.1767677E+00  0.0000000E+00  0.5050505E-02  0.9128136E-10  0.0000000E+00 -0.3199801E-04
  0.1868687E+00  0.0000000E+00  0.5050505E-02  0.9531539E-10  0.0000000E+00 -0.3199782E-04
  0.1969697E+00  0.0000000E+00  0.5050505E-02  0.9911744E-10  0.0000000E+00 -0.3199763E-04
  0.2070707E+00  0.0000000E+00  0.5050505E-02  0.1026675E-09  0.0000000E+00 -0.3199742E-04
  0.2171717E+00  0.0000000E+00  0.5050505E-02  0.1059453E-09  0.0000000E+00 -0.3199721E-04
  0.2272727E+00  0.0000000E+00  0.5050505E-02  0.1089300E-09  0.0000000E+00 -0.3199700E-04
  0.2373737E+00  0.0000000E+00  0.5050505E-02  0.1116007E-09  0.0000000E+00 -0.3199678E-04
  0.2474747E+00  0.0000000E+00  0.5050505E-02  0.1139369E-09  0.0000000E+00 -0.3199655E-04
  0.2575758E+00  0.0000000E+00  0.5050505E-02  0.1159180E-09  0.0000000E+00 -0.3199632E-04
  0.2676768E+00  0.0000000E+00  0.5050505E-02  0.1175242E-09  0.0000000E+00 -0.3199608E-04
  0.2777778E+00  0.0000000E+00  0.5050505E-02  0.1187361E-09  0.0000000E+00 -0.3199585E-04
  0.2878788E+00  0.0000000E+00  0.5050505E-02  0.1195357E-09  0.0000000E+00 -0.3199561E-04
  0.2979798E+00  0.0000000E+00  0.5050505E-02  0.1199060E-09  0.0000000E+00 -0.3199537E-04
  0.3080808E+00  0.0000000E+00  0.5050505E-02  0.1198315E-09  0.0000000E+00 -0.3199513E-04
  0.3181818E+00  0.0000000E+00  0.5050505E-02  0.1192987E-09  0.0000000E+00 -0.3199489E-04
  0.3282828E+00  0.0000000E+00  0.5050505E-02  0.1182959E-09  0.0000000E+00 -0.3199465E-04
  0.3383838E+00  0.0000000E+00  0.5050505E-02  0.1168139E-09  0.0000000E+00 -0.3199441E-04
  0.3484848E+00  0.0000000E+00  0.5050505E-02  0.1148457E-09  0.0000000E+00 -0.3199418E-04
  0.3585859E+00  0.0000000E+00  0.5050505E-02  0.1123875E-09  0.0000000E+00 -0.3199395E-04
  0.3686869E+00  0.0000000E+00  0.5050505E-02  0.1094382E-09  0.0000000E+00 -0.3199373E-04
  0.3787879E+00  0.0000000E+00  0.5050505E-02  0.1059999E-09  0.0000000E+00 -0.3199351E-04
  0.3888889E+00  0.0000000E+00  0.5050505E-02  0.1020779E-09  0.0000000E+00 -0.3199330E-04
  0.3989899E+00  0.0000000E+00  0.5050505E-02  0.9768117E-10  0.0000000E+00 -0.3199310E-04
  0.4090909E+00  0.0000000E+00  0.5050505E-02  0.9282203E-10  0.0000000E+00 -0.3199291E-04
  0.4191919E+00  0.0000000E+00  0.5050505E-02  0.8751637E-10  0.0000000E+00 -0.3199273E-04
  0.4292929E+00  0.0000000E+00  0.5050505E-02  0.8178369E-10  0.0000000E+00 -0.3199256E-04
  0.4393939E+00  0.0000000E+00  0.5050505E-02  0.7564699E-10  0.0000000E+00 -0.3199240E-04
  0.4494950E+00  0.0000000E+00  0.5050505E-02  0.6913273E-10  0.0000000E+00 -0.3199226E-04
  0.4595959E+00  0.0000000E+00  0.5050505E-02  0.6227071E-10  0.0000000E+00 -0.3199213E-04
  0.4696970E+00  0.0000000E+00  0.5050505E-02  0.5509387E-10  0.0000000E+00 -0.3199201E-04
  0.4797980E+00  0.0000000E+00  0.5050505E-02  0.4763808E-10  0.0000000E+00 -0.3199191E-04
  0.4898990E+00  0.0000000E+00  0.5050505E-02  0.3994193E-10  0.0000000E+00 -0.3199182E-04
  0.5000000E+00  0.0000000E+00  0.5050505E-02  0.3204631E-10  0.0000000E+00 -0.3199175E-04
  0.5101010E+00  0.0000000E+00  0.5050505E-02  0.2399412E-10  0.0000000E+00 -0.3199169E-04
  0.5202020E+00  0.0000000E+00  0.5050505E-02  0.1582984E-10  0.0000000E+00 -0.3199165E-04
  0.5303030E+00  0.0000000E+00  0.5050505E-02  0.7599111E-11  0.0000000E+00 -0.3199163E-04
  0.5404040E+00  0.0000000E+00  0.5050505E-02 -0.6514957E-12  0.0000000E+00 -0.3199162E-04
  0.5505050E+00  0.0000000E+00  0.5050505E-02 -0.8874710E-11  0.0000000E+00 -0.3199163E-04
  0.5606061E+00  0.0000000E+00  0.5050505E-02 -0.1702381E-10  0.0000000E+00 -0.3199165E-04
  0.5707071E+00  0.0000000E+00  0.5050505E-02 -0.2505184E-10  0.0000000E+00 -0.3199170E-04
  0.5808081E+00  0.0000000E+00  0.5050505E-02 -0.3291365E-10  0.0000000E+00 -0.3199175E-04
  0.5909091E+00  0.0000000E+00  0.5050505E-02 -0.4056429E-10  0.0000000E+00 -0.3199183E-04
  0.6010101E+00  0.0000000E+00  0.5050505E-02 -0.4796168E-10  0.0000000E+00 -0.3199192E-04
  0.6111111E+00  0.0000000E+00  0.5050505E-02 -0.5506546E-10  0.0000000E+00 -0.3199202E-04
  0.6212121E+00  0.0000000E+00  0.5050505E-02 -0.6183730E-10  0.0000000E+00 -0.3199214E-04
  0.6313131E+00  0.0000000E+00  0.5050505E-02 -0.6824146E-10  0.0000000E+00 -0.3199227E-04
  0.6414142E+00  0.0000000E+00  0.5050505E-02 -0.7424527E-10  0.0000000E+00 -0.3199241E-04
  0.6515151E+00  0.0000000E+00  0.5050505E-02 -0.7981944E-10  0.0000000E+00 -0.3199257E-04
  0.6616161E+00  0.0000000E+00  0.5050505E-02 -0.8493807E-10  0.0000000E+00 -0.3199273E-04
  0.6717172E+00  0.0000000E+00  0.5050505E-02 -0.8957879E-10  0.0000000E+00 -0.3199291E-04
  0.6818182E+00  0.0000000E+00  0.5050505E-02 -0.9372275E-10  0.0000000E+00 -0.3199309E-04
  0.6919192E+00  0.0000000E+00  0.5050505E-02 -0.9735469E-10  0.0000000E+00 -0.3199328E-04
  0.7020202E+00  0.0000000E+00  0.5050505E-02 -0.1004629E-09  0.0000000E+00 -0.3199348E-04
  0.7121212E+00  0.0000000E+00  0.5050505E-02 -0.1030393E-09  0.0000000E+00 -0.3199369E-04
  0.7222222E+00  0.0000000E+00  0.5050505E-02 -0.1050791E-09  0.0000000E+00 -0.3199389E-04
  0.7323232E+00  0.0000000E+00  0.5050505E-02 -0.1065810E-09  0.0000000E+00 -0.3199411E-04
  0.7424242E+00  0.0000000E+00  0.5050505E-02 -0.1075469E-09  0.0000000E+00 -0.3199432E-04
  0.7525253E+00  0.0000000E+00  0.5050505E-02 -0.1079815E-09  0.0000000E+00 -0.3199454E-04
  0.7626263E+00  0.0000000E+00  0.5050505E-02 -0.1078925E-09  0.0000000E+00 -0.3199475E-04
  0.7727273E+00  0.0000000E+00  0.5050505E-02 -0.1072903E-09  0.0000000E+00 -0.3199497E-04
  0.7828283E+00  0.0000000E+00  0.5050505E-02 -0.1061874E-09  0.0000000E+00 -0.3199519E-04
  0.7929293E+00  0.0000000E+00  0.5050505E-02 -0.1045986E-09  0.0000000E+00 -0.3199540E-04
  0.8030303E+00  0.0000000E+00  0.5050505E-02 -0.1025406E-09  0.0000000E+00 -0.3199560E-04
  0.8131313E+00  0.0000000E+00  0.5050505E-02 -0.1000316E-09  0.0000000E+00 -0.3199581E-04
  0.8232324E+00  0.0000000E+00  0.5050505E-02 -0.9709157E-10  0.0000000E+00 -0.3199601E-04
  0.8333333E+00  0.0000000E+00  0.5050505E-02 -0.9374126E-10  0.0000000E+00 -0.3199620E-04
  0.8434343E+00  0.0000000E+00  0.5050505E-02 -0.9000260E-10  0.0000000E+00 -0.3199638E-04
  0.8535354E+00  0.0000000E+00  0.5050505E-02 -0.8589828E-10  0.0000000E+00 -0.3199656E-04
  0.8636364E+00  0.0000000E+00  0.5050505E-02 -0.8145154E-10  0.0000000E+00 -0.3199673E-04
  0.8737374E+00  0.0000000E+00  0.5050505E-02 -0.7668607E-10  0.0000000E+00 -0.3199689E-04
  0.8838384E+00  0.0000000E+00  0.5050505E-02 -0.7162581E-10  0.0000000E+00 -0.3199703E-04
  0.8939394E+00  0.0000000E+00  0.5050505E-02 -0.6629488E-10  0.0000000E+00 -0.3199717E-04
  0.9040404E+00  0.0000000E+00  0.5050505E-02 -0.6071744E-10  0.0000000E+00 -0.3199730E-04
  0.9141414E+00  0.0000000E+00  0.5050505E-02 -0.5491762E-10  0.0000000E+00 -0.3199742E-04
  0.9242424E+00  0.0000000E+00  0.5050505E-02 -0.4891950E-10  0.0000000E+00 -0.3199752E-04
  0.9343435E+00  0.0000000E+00  0.5050505E-02 -0.4274701E-10  0.0000000E+00 -0.3199761E-04
  0.9444444E+00  0.0000000E+00  0.5050505E-02 -0.3642391E-10  0.0000000E+00 -0.3199769E-04
  0.9545454E+00  0.0000000E+00  0.5050505E-02 -0.2997380E-10  0.0000000E+00 -0.3199776E-04
  0.9646465E+00  0.0000000E+00  0.5050505E-02 -0.2342006E-10  0.0000000E+00 -0.3199781E-04
  0.9747475E+00  0.0000000E+00  0.5050505E-02 -0.1678587E-10  0.0000000E+00 -0.3199785E-04
  0.9848485E+00  0.0000000E+00  0.5050505E-02 -0.1009420E-10  0.0000000E+00 -0.3199788E-04
  0.9974747E+00  0.0000000E+00  0.5050505E-02 -0.3367800E-11  0.0000000E+00 -0.3199789E-04
  0.5050505E-02  0.0000000E+00  0.1515152E-01  0.8554380E-11  0.0000000E+00 -0.3190167E-04
  0.1515152E-01  0.0000000E+00  0.1515152E-01  0.2565185E-10  0.0000000E+00 -0.3190166E-04
  0.2525252E-01  0.0000000E+00  0.1515152E-01  0.4271518E-10  0.0000000E+00 -0.3190164E-04
  0.3535353E-01  0.0000000E+00  0.1515152E-01  0.5972063E-10  0.0000000E+00 -0.3190160E-04
  0.4545455E-01  0.0000000E+00  0.1515152E-01  0.7664662E-10  0.0000000E+00 -0.3190156E-04
  0.5555556E-01  0.0000000E+00  0.1515152E-01  0.9346350E-10  0.0000000E+00 -0.3190150E-04
  0.6565657E-01  0.0000000E+00  0.1515152E-01  0.1101464E-09  0.0000000E+00 -0.3190143E-04
  0.7575758E-01  0.0000000E+00  0.1515152E-01  0.1266683E-09  0.0000000E+00 -0.3190135E-04
  0.8585858E-01  0.0000000E+00  0.1515152E-01  0.1429983E-09  0.0000000E+00 -0.3190126E-04
  0.9595960E-01  0.0000000E+00  0.1515152E-01  0.1591027E-09  0.0000000E+00 -0.3190116E-04
  0.1060606E+00  0.0000000E+00  0.1515152E-01  0.1749454E-09  0.0000000E+00 -0.3190104E-04
  0.1161616E+00  0.0000000E+00  0.1515152E-01  0.1904886E-09  0.0000000E+00 -0.3190092E-04
  0.1262626E+00  0.0000000E+00  0.1515152E-01  0.2056919E-09  0.0000000E+00 -0.3190079E-04
  0.1363636E+00  0.0000000E+00  0.1515152E-01  0.2205123E-09  0.0000000E+00 -0.3190064E-04
  0.1464646E+00  0.0000000E+00  0.1515152E-01  0.2349041E-09  0.0000000E+00 -0.3190049E-04
  0.1565657E+00  0.0000000E+00  0.1515152E-01  0.2488186E-09  0.0000000E+00 -0.3190032E-04
  0.1666667E+00  0.0000000E+00  0.1515152E-01  0.2622043E-09  0.0000000E+00 -0.3190015E-04
  0.1767677E+00  0.0000000E+00  0.1515152E-01  0.2750072E-09  0.0000000E+00 -0.3189997E-04
  0.1868687E+00  0.0000000E+00  0.1515152E-01  0.2871710E-09  0.0000000E+00 -0.3189978E-04
  0.1969697E+00  0.0000000E+00  0.1515152E-01  0.2986369E-09  0.0000000E+00 -0.3189958E-04
  0.2070707E+00  0.0000000E+00  0.1515152E-01  0.3093449E-09  0.0000000E+00 -0.3189937E-04
  0.2171717E+00  0.0000000E+00  0.1515152E-01  0.3192332E-09  0.0000000E+00 -0.3189916E-04
  0.2272727E+00  0.0000000E+00  0.1515152E-01  0.3282395E-09  0.0000000E+00 -0.3189894E-04
  0.2373737E+00  0.0000000E+00  0.1515152E-01  0.3363008E-09  0.0000000E+00 -0.3189872E-04
  0.2474747E+00  0.0000000E+00  0.1515152E-01  0.3433545E-09  0.0000000E+00 -0.3189849E-04
  0.2575758E+00  0.0000000E+00  0.1515152E-01  0.3493389E-09  0.0000000E+00 -0.3189825E-04
  0.2676768E+00  0.0000000E+00  0.1515152E-01  0.3541937E-09  0.0000000E+00 -0.3189801E-04
  0.2777778E+00  0.0000000E+00  0.1515152E-01  0.3578609E-09  0.0000000E+00 -0.3189777E-04
  0.2878788E+00  0.0000000E+00  0.1515152E-01  0.3602855E-09  0.0000000E+00 -0.3189753E-04
  0.2979798E+00  0.0000000E+00  0.1515152E-01  0.3614162E-09  0.0000000E+00 -0.3189729E-04
  0.3080808E+00  0.0000000E+00  0.1515152E-01  0.3612063E-09  0.0000000E+00 -0.3189704E-04
  0.3181818E+00  0.0000000E+00  0.1515152E-01  0.3596145E-09  0.0000000E+00 -0.3189680E-04
  0.3282828E+00  0.0000000E+00  0.1515152E-01  0.3566056E-09  0.0000000E+00 -0.3189655E-04
  0.3383838E+00  0.0000000E+00  0.1515152E-01  0.3521514E-09  0.0000000E+00 -0.3189631E-04
  0.3484848E+00  0.0000000E+00  0.1515152E-01  0.3462311E-09  0.0000000E+00 -0.3189608E-04
  0.3585859E+00  0.0000000E+00  0.1515152E-01  0.3388326E-09  0.0000000E+00 -0.3189585E-04
  0.3686869E+00  0.0000000E+00  0.1515152E-01  0.3299523E-09  0.0000000E+00 -0.3189562E-04
  0.3787879E+00  0.0000000E+00  0.1515152E-01  0.3195966E-09  0.0000000E+00 -0.3189540E-04
  0.3888889E+00  0.0000000E+00  0.1515152E-01  0.3077816E-09  0.0000000E+00 -0.3189519E-04
  0.3989899E+00  0.0000000E+00  0.1515152E-01  0.2945337E-09  0.0000000E+00 -0.3189498E-04
  0.4090909E+00  0.0000000E+00  0.1515152E-01  0.2798901E-09  0.0000000E+00 -0.3189479E-04
  0.4191919E+00  0.0000000E+00  0.1515152E-01  0.2638987E-09  0.0000000E+00 -0.3189460E-04
  0.4292929E+00  0.0000000E+00  0.1515152E-01  0.2466182E-09  0.0000000E+00 -0.3189443E-04
  0.4393939E+00  0.0000000E+00  0.1515152E-01  0.2281179E-09  0.0000000E+00 -0.3189427E-04
  0.4494950E+00  0.0000000E+00  0.1515152E-01  0.2084777E-09  0.0000000E+00 -0.3189412E-04
  0.4595959E+00  0.0000000E+00  0.1515152E-01  0.1877873E-09  0.0000000E+00 -0.3189399E-04
  0.4696970E+00  0.0000000E+00  0.1515152E-01  0.1661461E-09  0.0000000E+00 -0.3189387E-04
  0.4797980E+00  0.0000000E+00  0.1515152E-01  0.1436626E-09  0.0000000E+00 -0.3189376E-04
  0.4898990E+00  0.0000000E+00  0.1515152E-01  0.1204530E-09  0.0000000E+00 -0.3189367E-04
  0.5000000E+00  0.0000000E+00  0.1515152E-01  0.9664087E-10  0.0000000E+00 -0.3189360E-04
  0.5101010E+00  0.0000000E+00  0.1515152E-01  0.7235569E-10  0.0000000E+00 -0.3189354E-04
  0.5202020E+00  0.0000000E+00  0.1515152E-01  0.4773167E-10  0.0000000E+00 -0.3189350E-04
  0.5303030E+00  0.0000000E+00  0.1515152E-01  0.2290687E-10  0.0000000E+00 -0.3189348E-04
  0.5404040E+00  0.0000000E+00  0.1515152E-01 -0.1978423E-11  0.0000000E+00 -0.3189347E-04
  0.5505050E+00  0.0000000E+00  0.1515152E-01 -0.2678130E-10  0.0000000E+00 -0.3189348E-04
  0.5606061E+00  0.0000000E+00  0.1515152E-01 -0.5136013E-10  0.0000000E+00 -0.3189351E-04
  0.5707071E+00  0.0000000E+00  0.1515152E-01 -0.7557377E-10  0.0000000E+00 -0.3189355E-04
  0.5808081E+00  0.0000000E+00  0.1515152E-01 -0.9928618E-10  0.0000000E+00 -0.3189361E-04
  0.5909091E+00  0.0000000E+00  0.1515152E-01 -0.1223613E-09  0.0000000E+00 -0.3189368E-04
  0.6010101E+00  0.0000000E+00  0.1515152E-01 -0.1446718E-09  0.0000000E+00 -0.3189377E-04
  0.6111111E+00  0.0000000E+00  0.1515152E-01 -0.1660958E-09  0.0000000E+00 -0.3189388E-04
  0.6212121E+00  0.0000000E+00  0.1515152E-01 -0.1865178E-09  0.0000000E+00 -0.3189400E-04
  0.6313131E+00  0.0000000E+00  0.1515152E-01 -0.2058300E-09  0.0000000E+00 -0.3189413E-04
  0.6414142E+00  0.0000000E+00  0.1515152E-01 -0.2239339E-09  0.0000000E+00 -0.3189428E-04
  0.6515151E+00  0.0000000E+00  0.1515152E-01 -0.2407410E-09  0.0000000E+00 -0.3189443E-04
  0.6616161E+00  0.0000000E+00  0.1515152E-01 -0.2561734E-09  0.0000000E+00 -0.3189460E-04
  0.6717172E+00  0.0000000E+00  0.1515152E-01 -0.2701633E-09  0.0000000E+00 -0.3189478E-04
  0.6818182E+00  0.0000000E+00  0.1515152E-01 -0.2826542E-09  0.0000000E+00 -0.3189497E-04
  0.6919192E+00  0.0000000E+00  0.1515152E-01 -0.2936000E-09  0.0000000E+00 -0.3189516E-04
  0.7020202E+00  0.0000000E+00  0.1515152E-01 -0.3029657E-09  0.0000000E+00 -0.3189537E-04
  0.7121212E+00  0.0000000E+00  0.1515152E-01 -0.3107268E-09  0.0000000E+00 -0.3189558E-04
  0.7222222E+00  0.0000000E+00  0.1515152E-01 -0.3168692E-09  0.0000000E+00 -0.3189579E-04
  0.7323232E+00  0.0000000E+00  0.1515152E-01 -0.3213890E-09  0.0000000E+00 -0.3189600E-04
  0.7424242E+00  0.0000000E+00  0.1515152E-01 -0.3242920E-09  0.0000000E+00 -0.3189622E-04
  0.7525253E+00  0.0000000E+00  0.1515152E-01 -0.3255928E-09  0.0000000E+00 -0.3189644E-04
  0.7626263E+00  0.0000000E+00  0.1515152E-01 -0.3253149E-09  0.0000000E+00 -0.3189666E-04
  0.7727273E+00  0.0000000E+00  0.1515152E-01 -0.3234894E-09  0.0000000E+00 -0.3189688E-04
  0.7828283E+00  0.0000000E+00  0.1515152E-01 -0.3201545E-09  0.0000000E+00 -0.3189710E-04
  0.7929293E+00  0.0000000E+00  0.1515152E-01 -0.3153549E-09  0.0000000E+00 -0.3189732E-04
  0.8030303E+00  0.0000000E+00  0.1515152E-01 -0.3091411E-09  0.0000000E+00 -0.3189753E-04
  0.8131313E+00  0.0000000E+00  0.1515152E-01 -0.3015685E-09  0.0000000E+00 -0.3189774E-04
  0.8232324E+00  0.0000000E+00  0.1515152E-01 -0.2926967E-09  0.0000000E+00 -0.3189794E-04
  0.8333333E+00  0.0000000E+00  0.1515152E-01 -0.2825889E-09  0.0000000E+00 -0.3189813E-04
  0.8434343E+00  0.0000000E+00  0.1515152E-01 -0.2713113E-09  0.0000000E+00 -0.3189832E-04
  0.8535354E+00  0.0000000E+00  0.1515152E-01 -0.2589322E-09  0.0000000E+00 -0.3189850E-04
  0.8636364E+00  0.0000000E+00  0.1515152E-01 -0.2455219E-09  0.0000000E+00 -0.3189867E-04
  0.8737374E+00  0.0000000E+00  0.1515152E-01 -0.2311518E-09  0.0000000E+00 -0.3189883E-04
  0.8838384E+00  0.0000000E+00  0.1515152E-01 -0.2158941E-09  0.0000000E+00 -0.3189898E-04
  0.8939394E+00  0.0000000E+00  0.1515152E-01 -0.1998215E-09  0.0000000E+00 -0.3189912E-04
  0.9040404E+00  0.0000000E+00  0.1515152E-01 -0.1830068E-09  0.0000000E+00 -0.3189925E-04
  0.9141414E+00  0.0000000E+00  0.1515152E-01 -0.1655228E-09  0.0000000E+00 -0.3189937E-04
  0.9242424E+00  0.0000000E+00  0.1515152E-01 -0.1474420E-09  0.0000000E+00 -0.3189948E-04
  0.9343435E+00  0.0000000E+00  0.1515152E-01 -0.1288365E-09  0.0000000E+00 -0.3189957E-04
  0.9444444E+00  0.0000000E+00  0.1515152E-01 -0.1097778E-09  0.0000000E+00 -0.3189965E-04
  0.9545454E+00  0.0000000E+00  0.1515152E-01 -0.9033698E-10  0.0000000E+00 -0.3189972E-04
  0.9646465E+00  0.0000000E+00  0.1515152E-01 -0.7058440E-10  0.0000000E+00 -0.3189977E-04
  0.9747475E+00  0.0000000E+00  0.1515152E-01 -0.5058982E-10  0.0000000E+00 -0.3189982E-04
  0.9848485E+00  0.0000000E+00  0.1515152E-01 -0.3042240E-10  0.0000000E+00 -0.3189984E-04
  0.9974747E+00  0.0000000E+00  0.1515152E-01 -0.1015100E-10  0.0000000E+00 -0.3189986E-04
  0.5050505E-02  0.0000000E+00  0.2525252E-01  0.1437560E-10  0.0000000E+00 -0.3170660E-04
  0.1515152E-01  0.0000000E+00  0.2525252E-01  0.4311065E-10  0.0000000E+00 -0.3170659E-04
  0.2525252E-01  0.0000000E+00  0.2525252E-01  0.7178921E-10  0.0000000E+00 -0.3170657E-04
  0.3535353E-01  0.0000000E+00  0.2525252E-01  0.1003711E-09  0.0000000E+00 -0.3170653E-04
  0.4545455E-01  0.0000000E+00  0.2525252E-01  0.1288210E-09  0.0000000E+00 -0.3170649E-04
  0.5555556E-01  0.0000000E+00  0.2525252E-01  0.1570898E-09  0.0000000E+00 -0.3170643E-04
  0.6565657E-01  0.0000000E+00  0.2525252E-01  0.1851353E-09  0.0000000E+00 -0.3170636E-04
  0.7575758E-01  0.0000000E+00  0.2525252E-01  0.2129124E-09  0.0000000E+00 -0.3170627E-04
  0.8585858E-01  0.0000000E+00  0.2525252E-01  0.2403696E-09  0.0000000E+00 -0.3170618E-04
  0.9595960E-01  0.0000000E+00  0.2525252E-01  0.2674508E-09  0.0000000E+00 -0.3170607E-04
  0.1060606E+00  0.0000000E+00  0.2525252E-01  0.2940956E-09  0.0000000E+00 -0.3170596E-04
  0.1161616E+00  0.0000000E+00  0.2525252E-01  0.3202407E-09  0.0000000E+00 -0.3170583E-04
  0.1262626E+00  0.0000000E+00  0.2525252E-01  0.3458182E-09  0.0000000E+00 -0.3170569E-04
  0.1363636E+00  0.0000000E+00  0.2525252E-01  0.3707560E-09  0.0000000E+00 -0.3170554E-04
  0.1464646E+00  0.0000000E+00  0.2525252E-01  0.3949772E-09  0.0000000E+00 -0.3170538E-04
  0.1565657E+00  0.0000000E+00  0.2525252E-01  0.4183999E-09  0.0000000E+00 -0.3170522E-04
  0.1666667E+00  0.0000000E+00  0.2525252E-01  0.4409377E-09  0.0000000E+00 -0.3170504E-04
  0.1767677E+00  0.0000000E+00  0.2525252E-01  0.4624995E-09  0.0000000E+00 -0.3170485E-04
  0.1868687E+00  0.0000000E+00  0.2525252E-01  0.4829904E-09  0.0000000E+00 -0.3170465E-04
  0.1969697E+00  0.0000000E+00  0.2525252E-01  0.5023116E-09  0.0000000E+00 -0.3170445E-04
  0.2070707E+00  0.0000000E+00  0.2525252E-01  0.5203616E-09  0.0000000E+00 -0.3170424E-04
  0.2171717E+00  0.0000000E+00  0.2525252E-01  0.5370364E-09  0.0000000E+00 -0.3170402E-04
  0.2272727E+00  0.0000000E+00  0.2525252E-01  0.5522305E-09  0.0000000E+00 -0.3170379E-04
  0.2373737E+00  0.0000000E+00  0.2525252E-01  0.5658378E-09  0.0000000E+00 -0.3170356E-04
  0.2474747E+00  0.0000000E+00  0.2525252E-01  0.5777523E-09  0.0000000E+00 -0.3170332E-04
  0.2575758E+00  0.0000000E+00  0.2525252E-01  0.5878696E-09  0.0000000E+00 -0.3170308E-04
  0.2676768E+00  0.0000000E+00  0.2525252E-01  0.5960878E-09  0.0000000E+00 -0.3170283E-04
  0.2777778E+00  0.0000000E+00  0.2525252E-01  0.6023086E-09  0.0000000E+00 -0.3170258E-04
  0.2878788E+00  0.0000000E+00  0.2525252E-01  0.6064386E-09  0.0000000E+00 -0.3170233E-04
  0.2979798E+00  0.0000000E+00  0.2525252E-01  0.6083910E-09  0.0000000E+00 -0.3170208E-04
  0.3080808E+00  0.0000000E+00  0.2525252E-01  0.6080865E-09  0.0000000E+00 -0.3170183E-04
  0.3181818E+00  0.0000000E+00  0.2525252E-01  0.6054547E-09  0.0000000E+00 -0.3170157E-04
  0.3282828E+00  0.0000000E+00  0.2525252E-01  0.6004357E-09  0.0000000E+00 -0.3170132E-04
  0.3383838E+00  0.0000000E+00  0.2525252E-01  0.5929811E-09  0.0000000E+00 -0.3170108E-04
  0.3484848E+00  0.0000000E+00  0.2525252E-01  0.5830555E-09  0.0000000E+00 -0.3170083E-04
  0.3585859E+00  0.0000000E+00  0.2525252E-01  0.5706376E-09  0.0000000E+00 -0.3170059E-04
  0.3686869E+00  0.0000000E+00  0.2525252E-01  0.5557210E-09  0.0000000E+00 -0.3170036E-04
  0.3787879E+00  0.0000000E+00  0.2525252E-01  0.5383156E-09  0.0000000E+00 -0.3170013E-04
  0.3888889E+00  0.0000000E+00  0.2525252E-01  0.5184481E-09  0.0000000E+00 -0.3169991E-04
  0.3989899E+00  0.0000000E+00  0.2525252E-01  0.4961626E-09  0.0000000E+00 -0.3169970E-04
  0.4090909E+00  0.0000000E+00  0.2525252E-01  0.4715214E-09  0.0000000E+00 -0.3169949E-04
  0.4191919E+00  0.0000000E+00  0.2525252E-01  0.4446048E-09  0.0000000E+00 -0.3169930E-04
  0.4292929E+00  0.0000000E+00  0.2525252E-01  0.4155113E-09  0.0000000E+00 -0.3169912E-04
  0.4393939E+00  0.0000000E+00  0.2525252E-01  0.3843579E-09  0.0000000E+00 -0.3169896E-04
  0.4494950E+00  0.0000000E+00  0.2525252E-01  0.3512788E-09  0.0000000E+00 -0.3169880E-04
  0.4595959E+00  0.0000000E+00  0.2525252E-01  0.3164256E-09  0.0000000E+00 -0.3169866E-04
  0.4696970E+00  0.0000000E+00  0.2525252E-01  0.2799659E-09  0.0000000E+00 -0.3169854E-04
  0.4797980E+00  0.0000000E+00  0.2525252E-01  0.2420825E-09  0.0000000E+00 -0.3169843E-04
  0.4898990E+00  0.0000000E+00  0.2525252E-01  0.2029719E-09  0.0000000E+00 -0.3169834E-04
  0.5000000E+00  0.0000000E+00  0.2525252E-01  0.1628426E-09  0.0000000E+00 -0.3169826E-04
  0.5101010E+00  0.0000000E+00  0.2525252E-01  0.1219131E-09  0.0000000E+00 -0.3169820E-04
  0.5202020E+00  0.0000000E+00  0.2525252E-01  0.8040993E-10  0.0000000E+00 -0.3169816E-04
  0.5303030E+00  0.0000000E+00  0.2525252E-01  0.3856688E-10  0.0000000E+00 -0.3169814E-04
  0.5404040E+00  0.0000000E+00  0.2525252E-01 -0.3378994E-11  0.0000000E+00 -0.3169813E-04
  0.5505050E+00  0.0000000E+00  0.2525252E-01 -0.4518678E-10  0.0000000E+00 -0.3169814E-04
  0.5606061E+00  0.0000000E+00  0.2525252E-01 -0.8661666E-10  0.0000000E+00 -0.3169817E-04
  0.5707071E+00  0.0000000E+00  0.2525252E-01 -0.1274306E-09  0.0000000E+00 -0.3169821E-04
  0.5808081E+00  0.0000000E+00  0.2525252E-01 -0.1673991E-09  0.0000000E+00 -0.3169827E-04
  0.5909091E+00  0.0000000E+00  0.2525252E-01 -0.2062921E-09  0.0000000E+00 -0.3169835E-04
  0.6010101E+00  0.0000000E+00  0.2525252E-01 -0.2438937E-09  0.0000000E+00 -0.3169844E-04
  0.6111111E+00  0.0000000E+00  0.2525252E-01 -0.2799986E-09  0.0000000E+00 -0.3169855E-04
  0.6212121E+00  0.0000000E+00  0.2525252E-01 -0.3144117E-09  0.0000000E+00 -0.3169868E-04
  0.6313131E+00  0.0000000E+00  0.2525252E-01 -0.3469514E-09  0.0000000E+00 -0.3169882E-04
  0.6414142E+00  0.0000000E+00  0.2525252E-01 -0.3774515E-09  0.0000000E+00 -0.3169897E-04
  0.6515151E+00  0.0000000E+00  0.2525252E-01 -0.4057629E-09  0.0000000E+00 -0.3169913E-04
  0.6616161E+00  0.0000000E+00  0.2525252E-01 -0.4317540E-09  0.0000000E+00 -0.3169931E-04
  0.6717172E+00  0.0000000E+00  0.2525252E-01 -0.4553110E-09  0.0000000E+00 -0.3169949E-04
  0.6818182E+00  0.0000000E+00  0.2525252E-01 -0.4763385E-09  0.0000000E+00 -0.3169969E-04
  0.6919192E+00  0.0000000E+00  0.2525252E-01 -0.4947594E-09  0.0000000E+00 -0.3169989E-04
  0.7020202E+00  0.0000000E+00  0.2525252E-01 -0.5105148E-09  0.0000000E+00 -0.3170010E-04
  0.7121212E+00  0.0000000E+00  0.2525252E-01 -0.5235639E-09  0.0000000E+00 -0.3170031E-04
  0.7222222E+00  0.0000000E+00  0.2525252E-01 -0.5338837E-09  0.0000000E+00 -0.3170053E-04
  0.7323232E+00  0.0000000E+00  0.2525252E-01 -0.5414680E-09  0.0000000E+00 -0.3170076E-04
  0.7424242E+00  0.0000000E+00  0.2525252E-01 -0.5463270E-09  0.0000000E+00 -0.3170098E-04
  0.7525253E+00  0.0000000E+00  0.2525252E-01 -0.5484862E-09  0.0000000E+00 -0.3170121E-04
  0.7626263E+00  0.0000000E+00  0.2525252E-01 -0.5479855E-09  0.0000000E+00 -0.3170144E-04
  0.7727273E+00  0.0000000E+00  0.2525252E-01 -0.5448780E-09  0.0000000E+00 -0.3170167E-04
  0.7828283E+00  0.0000000E+00  0.2525252E-01 -0.5392287E-09  0.0000000E+00 -0.3170190E-04
  0.7929293E+00  0.0000000E+00  0.2525252E-01 -0.5311135E-09  0.0000000E+00 -0.3170212E-04
  0.8030303E+00  0.0000000E+00  0.2525252E-01 -0.5206179E-09  0.0000000E+00 -0.3170234E-04
  0.8131313E+00  0.0000000E+00  0.2525252E-01 -0.5078358E-09  0.0000000E+00 -0.3170255E-04
  0.8232324E+00  0.0000000E+00  0.2525252E-01 -0.4928680E-09  0.0000000E+00 -0.3170276E-04
  0.8333333E+00  0.0000000E+00  0.2525252E-01 -0.4758215E-09  0.0000000E+00 -0.3170296E-04
  0.8434343E+00  0.0000000E+00  0.2525252E-01 -0.4568079E-09  0.0000000E+00 -0.3170316E-04
  0.8535354E+00  0.0000000E+00  0.2525252E-01 -0.4359428E-09  0.0000000E+00 -0.3170334E-04
  0.8636364E+00  0.0000000E+00  0.2525252E-01 -0.4133447E-09  0.0000000E+00 -0.3170352E-04
  0.8737374E+00  0.0000000E+00  0.2525252E-01 -0.3891339E-09  0.0000000E+00 -0.3170369E-04
  0.8838384E+00  0.0000000E+00  0.2525252E-01 -0.3634322E-09  0.0000000E+00 -0.3170384E-04
  0.8939394E+00  0.0000000E+00  0.2525252E-01 -0.3363620E-09  0.0000000E+00 -0.3170399E-04
  0.9040404E+00  0.0000000E+00  0.2525252E-01 -0.3080458E-09  0.0000000E+00 -0.3170412E-04
  0.9141414E+00  0.0000000E+00  0.2525252E-01 -0.2786062E-09  0.0000000E+00 -0.3170424E-04
  0.9242424E+00  0.0000000E+00  0.2525252E-01 -0.2481650E-09  0.0000000E+00 -0.3170435E-04
  0.9343435E+00  0.0000000E+00  0.2525252E-01 -0.2168433E-09  0.0000000E+00 -0.3170445E-04
  0.9444444E+00  0.0000000E+00  0.2525252E-01 -0.1847614E-09  0.0000000E+00 -0.3170453E-04
  0.9545454E+00  0.0000000E+00  0.2525252E-01 -0.1520386E-09  0.0000000E+00 -0.3170460E-04
  0.9646465E+00  0.0000000E+00  0.2525252E-01 -0.1187930E-09  0.0000000E+00 -0.3170466E-04
  0.9747475E+00  0.0000000E+00  0.2525252E-01 -0.8514158E-10  0.0000000E+00 -0.3170470E-04
  0.9848485E+00  0.0000000E+00  0.2525252E-01 -0.5120046E-10  0.0000000E+00 -0.3170473E-04
  0.9974747E+00  0.0000000E+00  0.2525252E-01 -0.1708569E-10  0.0000000E+00 -0.3170474E-04
  0.5050505E-02  0.0000000E+00  0.3535353E-01  0.2038845E-10  0.0000000E+00 -0.3141597E-04
  0.1515152E-01  0.0000000E+00  0.3535353E-01  0.6114652E-10  0.0000000E+00 -0.3141596E-04
  0.2525252E-01  0.0000000E+00  0.3535353E-01  0.1018268E-09  0.0000000E+00 -0.3141593E-04
  0.3535353E-01  0.0000000E+00  0.3535353E-01  0.1423720E-09  0.0000000E+00 -0.3141589E-04
  0.4545455E-01  0.0000000E+00  0.3535353E-01  0.1827326E-09  0.0000000E+00 -0.3141585E-04
  0.5555556E-01  0.0000000E+00  0.3535353E-01  0.2228405E-09  0.0000000E+00 -0.3141578E-04
  0.6565657E-01  0.0000000E+00  0.3535353E-01  0.2626359E-09  0.0000000E+00 -0.3141571E-04
  0.7575758E-01  0.0000000E+00  0.3535353E-01  0.3020555E-09  0.0000000E+00 -0.3141562E-04
  0.8585858E-01  0.0000000E+00  0.3535353E-01  0.3410273E-09  0.0000000E+00 -0.3141553E-04
  0.9595960E-01  0.0000000E+00  0.3535353E-01  0.3794722E-09  0.0000000E+00 -0.3141542E-04
  0.1060606E+00  0.0000000E+00  0.3535353E-01  0.4173056E-09  0.0000000E+00 -0.3141529E-04
  0.1161616E+00  0.0000000E+00  0.3535353E-01  0.4544375E-09  0.0000000E+00 -0.3141516E-04
  0.1262626E+00  0.0000000E+00  0.3535353E-01  0.4907722E-09  0.0000000E+00 -0.3141502E-04
  0.1363636E+00  0.0000000E+00  0.3535353E-01  0.5262076E-09  0.0000000E+00 -0.3141486E-04
  0.1464646E+00  0.0000000E+00  0.3535353E-01  0.5606344E-09  0.0000000E+00 -0.3141470E-04
  0.1565657E+00  0.0000000E+00  0.3535353E-01  0.5939367E-09  0.0000000E+00 -0.3141452E-04
  0.1666667E+00  0.0000000E+00  0.3535353E-01  0.6259916E-09  0.0000000E+00 -0.3141433E-04
  0.1767677E+00  0.0000000E+00  0.3535353E-01  0.6566696E-09  0.0000000E+00 -0.3141414E-04
  0.1868687E+00  0.0000000E+00  0.3535353E-01  0.6858356E-09  0.0000000E+00 -0.3141393E-04
  0.1969697E+00  0.0000000E+00  0.3535353E-01  0.7133491E-09  0.0000000E+00 -0.3141372E-04
  0.2070707E+00  0.0000000E+00  0.3535353E-01  0.7390652E-09  0.0000000E+00 -0.3141350E-04
  0.2171717E+00  0.0000000E+00  0.3535353E-01  0.7628356E-09  0.0000000E+00 -0.3141327E-04
  0.2272727E+00  0.0000000E+00  0.3535353E-01  0.7845096E-09  0.0000000E+00 -0.3141303E-04
  0.2373737E+00  0.0000000E+00  0.3535353E-01  0.8039355E-09  0.0000000E+00 -0.3141279E-04
  0.2474747E+00  0.0000000E+00  0.3535353E-01  0.8209619E-09  0.0000000E+00 -0.3141254E-04
  0.2575758E+00  0.0000000E+00  0.3535353E-01  0.8354391E-09  0.0000000E+00 -0.3141228E-04
  0.2676768E+00  0.0000000E+00  0.3535353E-01  0.8472210E-09  0.0000000E+00 -0.3141203E-04
  0.2777778E+00  0.0000000E+00  0.3535353E-01  0.8561666E-09  0.0000000E+00 -0.3141177E-04
  0.2878788E+00  0.0000000E+00  0.3535353E-01  0.8621420E-09  0.0000000E+00 -0.3141150E-04
  0.2979798E+00  0.0000000E+00  0.3535353E-01  0.8650220E-09  0.0000000E+00 -0.3141124E-04