title = "dataset water"
variables = "x", "y", "z", "vx", "vy", "vz"
zone t = "velocities, solution time =  5.800E+01 days        " i =   99, j =   99, k =    1,  f=point
  0.5050505E-02  0.0000000E+00  0.5050505E-02  0.1703864E-06  0.0000000E+00  0.2101242E-03
  0.1515152E-01  0.0000000E+00  0.5050505E-02  0.5120884E-06  0.0000000E+00  0.2108264E-03
  0.2525252E-01  0.0000000E+00  0.5050505E-02  0.8566129E-06  0.0000000E+00  0.2122349E-03
  0.3535353E-01  0.0000000E+00  0.5050505E-02  0.1205903E-05  0.0000000E+00  0.2143577E-03
  0.4545455E-01  0.0000000E+00  0.5050505E-02  0.1561961E-05  0.0000000E+00  0.2172072E-03
  0.5555556E-01  0.0000000E+00  0.5050505E-02  0.1926873E-05  0.0000000E+00  0.2208002E-03
  0.6565657E-01  0.0000000E+00  0.5050505E-02  0.2302831E-05  0.0000000E+00  0.2251581E-03
  0.7575758E-01  0.0000000E+00  0.5050505E-02  0.2692170E-05  0.0000000E+00  0.2303072E-03
  0.8585858E-01  0.0000000E+00  0.5050505E-02  0.3097416E-05  0.0000000E+00  0.2362792E-03
  0.9595960E-01  0.0000000E+00  0.5050505E-02  0.3521346E-05  0.0000000E+00  0.2431114E-03
  0.1060606E+00  0.0000000E+00  0.5050505E-02  0.3967072E-05  0.0000000E+00  0.2508478E-03
  0.1161616E+00  0.0000000E+00  0.5050505E-02  0.4438152E-05  0.0000000E+00  0.2595394E-03
  0.1262626E+00  0.0000000E+00  0.5050505E-02  0.4938737E-05  0.0000000E+00  0.2692461E-03
  0.1363636E+00  0.0000000E+00  0.5050505E-02  0.5473782E-05  0.0000000E+00  0.2800375E-03
  0.1464646E+00  0.0000000E+00  0.5050505E-02  0.6049345E-05  0.0000000E+00  0.2919956E-03
  0.1565657E+00  0.0000000E+00  0.5050505E-02  0.6673013E-05  0.0000000E+00  0.3052174E-03
  0.1666667E+00  0.0000000E+00  0.5050505E-02  0.7354565E-05  0.0000000E+00  0.3198190E-03
  0.1767677E+00  0.0000000E+00  0.5050505E-02  0.8107010E-05  0.0000000E+00  0.3359418E-03
  0.1868687E+00  0.0000000E+00  0.5050505E-02  0.8948312E-05  0.0000000E+00  0.3537613E-03
  0.1969697E+00  0.0000000E+00  0.5050505E-02  0.9904373E-05  0.0000000E+00  0.3735013E-03
  0.2070707E+00  0.0000000E+00  0.5050505E-02  0.1101445E-04  0.0000000E+00  0.3954571E-03
  0.2171717E+00  0.0000000E+00  0.5050505E-02  0.1234135E-04  0.0000000E+00  0.4200360E-03
  0.2272727E+00  0.0000000E+00  0.5050505E-02  0.1399118E-04  0.0000000E+00  0.4478301E-03
  0.2373737E+00  0.0000000E+00  0.5050505E-02  0.1615010E-04  0.0000000E+00  0.4797520E-03
  0.2474747E+00  0.0000000E+00  0.5050505E-02  0.1913835E-04  0.0000000E+00  0.5172705E-03
  0.2575758E+00  0.0000000E+00  0.5050505E-02  0.2338436E-04  0.0000000E+00  0.5626877E-03
  0.2676768E+00  0.0000000E+00  0.5050505E-02  0.2854689E-04  0.0000000E+00  0.6184595E-03
  0.2777778E+00  0.0000000E+00  0.5050505E-02  0.2694389E-04  0.0000000E+00  0.6784288E-03
  0.2878788E+00  0.0000000E+00  0.5050505E-02  0.2619354E-04  0.0000000E+00  0.7362703E-03
  0.2979798E+00  0.0000000E+00  0.5050505E-02  0.2692554E-04  0.0000000E+00  0.7944968E-03
  0.3080808E+00  0.0000000E+00  0.5050505E-02  0.2993607E-04  0.0000000E+00  0.8572669E-03
  0.3181818E+00  0.0000000E+00  0.5050505E-02  0.3953207E-04  0.0000000E+00  0.9345532E-03
  0.3282828E+00  0.0000000E+00  0.5050505E-02  0.4636382E-04  0.0000000E+00  0.1030981E-02
  0.3383838E+00  0.0000000E+00  0.5050505E-02  0.5215687E-04  0.0000000E+00  0.1142838E-02
  0.3484848E+00  0.0000000E+00  0.5050505E-02  0.7106025E-04  0.0000000E+00  0.1284682E-02
  0.3585859E+00  0.0000000E+00  0.5050505E-02  0.1115741E-03  0.0000000E+00  0.1498661E-02
  0.3686869E+00  0.0000000E+00  0.5050505E-02  0.2084792E-03  0.0000000E+00  0.1884022E-02
  0.3787879E+00  0.0000000E+00  0.5050505E-02  0.2923595E-03  0.0000000E+00  0.2514532E-02
  0.3888889E+00  0.0000000E+00  0.5050505E-02 -0.9140997E-05  0.0000000E+00  0.2878600E-02
  0.3989899E+00  0.0000000E+00  0.5050505E-02 -0.1049770E-03  0.0000000E+00  0.2723641E-02
  0.4090909E+00  0.0000000E+00  0.5050505E-02 -0.1279196E-03  0.0000000E+00  0.2414524E-02
  0.4191919E+00  0.0000000E+00  0.5050505E-02 -0.5317299E-04  0.0000000E+00  0.2179259E-02
  0.4292929E+00  0.0000000E+00  0.5050505E-02 -0.3692579E-05  0.0000000E+00  0.2106187E-02
  0.4393939E+00  0.0000000E+00  0.5050505E-02 -0.1097515E-04  0.0000000E+00  0.2087402E-02
  0.4494950E+00  0.0000000E+00  0.5050505E-02  0.2109022E-04  0.0000000E+00  0.2100346E-02
  0.4595959E+00  0.0000000E+00  0.5050505E-02 -0.2177530E-04  0.0000000E+00  0.2099475E-02
  0.4696970E+00  0.0000000E+00  0.5050505E-02  0.2813952E-05  0.0000000E+00  0.2075215E-02
  0.4797980E+00  0.0000000E+00  0.5050505E-02  0.2222243E-04  0.0000000E+00  0.2107270E-02
  0.4898990E+00  0.0000000E+00  0.5050505E-02  0.6525869E-04  0.0000000E+00  0.2219823E-02
  0.5000000E+00  0.0000000E+00  0.5050505E-02  0.3706346E-04  0.0000000E+00  0.2352594E-02
  0.5101010E+00  0.0000000E+00  0.5050505E-02 -0.6324961E-04  0.0000000E+00  0.2318831E-02
  0.5202020E+00  0.0000000E+00  0.5050505E-02 -0.7951015E-04  0.0000000E+00  0.2135103E-02
  0.5303030E+00  0.0000000E+00  0.5050505E-02 -0.5338061E-04  0.0000000E+00  0.1966830E-02
  0.5404040E+00  0.0000000E+00  0.5050505E-02 -0.2313561E-04  0.0000000E+00  0.1871009E-02
  0.5505050E+00  0.0000000E+00  0.5050505E-02 -0.8295214E-04  0.0000000E+00  0.1741125E-02
  0.5606061E+00  0.0000000E+00  0.5050505E-02 -0.6490487E-04  0.0000000E+00  0.1562420E-02
  0.5707071E+00  0.0000000E+00  0.5050505E-02 -0.3232186E-04  0.0000000E+00  0.1446426E-02
  0.5808081E+00  0.0000000E+00  0.5050505E-02 -0.6904812E-04  0.0000000E+00  0.1327719E-02
  0.5909091E+00  0.0000000E+00  0.5050505E-02 -0.7427517E-04  0.0000000E+00  0.1162582E-02
  0.6010101E+00  0.0000000E+00  0.5050505E-02 -0.4762463E-04  0.0000000E+00  0.1024151E-02
  0.6111111E+00  0.0000000E+00  0.5050505E-02 -0.3546036E-04  0.0000000E+00  0.9308941E-03
  0.6212121E+00  0.0000000E+00  0.5050505E-02 -0.2876796E-04  0.0000000E+00  0.8594297E-03
  0.6313131E+00  0.0000000E+00  0.5050505E-02 -0.2442626E-04  0.0000000E+00  0.8006608E-03
  0.6414142E+00  0.0000000E+00  0.5050505E-02 -0.2131377E-04  0.0000000E+00  0.7504314E-03
  0.6515151E+00  0.0000000E+00  0.5050505E-02 -0.1899024E-04  0.0000000E+00  0.7064046E-03
  0.6616161E+00  0.0000000E+00  0.5050505E-02 -0.1723057E-04  0.0000000E+00  0.6670248E-03
  0.6717172E+00  0.0000000E+00  0.5050505E-02 -0.1587315E-04  0.0000000E+00  0.6311883E-03
  0.6818182E+00  0.0000000E+00  0.5050505E-02 -0.1478314E-04  0.0000000E+00  0.5981326E-03
  0.6919192E+00  0.0000000E+00  0.5050505E-02 -0.1385548E-04  0.0000000E+00  0.5673662E-03
  0.7020202E+00  0.0000000E+00  0.5050505E-02 -0.1301684E-04  0.0000000E+00  0.5385968E-03
  0.7121212E+00  0.0000000E+00  0.5050505E-02 -0.1222243E-04  0.0000000E+00  0.5116629E-03
  0.7222222E+00  0.0000000E+00  0.5050505E-02 -0.1145127E-04  0.0000000E+00  0.4864760E-03
  0.7323232E+00  0.0000000E+00  0.5050505E-02 -0.1069891E-04  0.0000000E+00  0.4629765E-03
  0.7424242E+00  0.0000000E+00  0.5050505E-02 -0.9969593E-05  0.0000000E+00  0.4411065E-03
  0.7525253E+00  0.0000000E+00  0.5050505E-02 -0.9270148E-05  0.0000000E+00  0.4207981E-03
  0.7626263E+00  0.0000000E+00  0.5050505E-02 -0.8606494E-05  0.0000000E+00  0.4019713E-03
  0.7727273E+00  0.0000000E+00  0.5050505E-02 -0.7982225E-05  0.0000000E+00  0.3845376E-03
  0.7828283E+00  0.0000000E+00  0.5050505E-02 -0.7398484E-05  0.0000000E+00  0.3684049E-03
  0.7929293E+00  0.0000000E+00  0.5050505E-02 -0.6854409E-05  0.0000000E+00  0.3534820E-03
  0.8030303E+00  0.0000000E+00  0.5050505E-02 -0.6347738E-05  0.0000000E+00  0.3396824E-03
  0.8131313E+00  0.0000000E+00  0.5050505E-02 -0.5875363E-05  0.0000000E+00  0.3269258E-03
  0.8232324E+00  0.0000000E+00  0.5050505E-02 -0.5433774E-05  0.0000000E+00  0.3151399E-03
  0.8333333E+00  0.0000000E+00  0.5050505E-02 -0.5019374E-05  0.0000000E+00  0.3042604E-03
  0.8434343E+00  0.0000000E+00  0.5050505E-02 -0.4628691E-05  0.0000000E+00  0.2942311E-03
  0.8535354E+00  0.0000000E+00  0.5050505E-02 -0.4258510E-05  0.0000000E+00  0.2850029E-03
  0.8636364E+00  0.0000000E+00  0.5050505E-02 -0.3905945E-05  0.0000000E+00  0.2765340E-03
  0.8737374E+00  0.0000000E+00  0.5050505E-02 -0.3568457E-05  0.0000000E+00  0.2687881E-03
  0.8838384E+00  0.0000000E+00  0.5050505E-02 -0.3243859E-05  0.0000000E+00  0.2617344E-03
  0.8939394E+00  0.0000000E+00  0.5050505E-02 -0.2930277E-05  0.0000000E+00  0.2553465E-03
  0.9040404E+00  0.0000000E+00  0.5050505E-02 -0.2626120E-05  0.0000000E+00  0.2496016E-03
  0.9141414E+00  0.0000000E+00  0.5050505E-02 -0.2330026E-05  0.0000000E+00  0.2444806E-03
  0.9242424E+00  0.0000000E+00  0.5050505E-02 -0.2040822E-05  0.0000000E+00  0.2399668E-03
  0.9343435E+00  0.0000000E+00  0.5050505E-02 -0.1757476E-05  0.0000000E+00  0.2360462E-03
  0.9444444E+00  0.0000000E+00  0.5050505E-02 -0.1479063E-05  0.0000000E+00  0.2327067E-03
  0.9545454E+00  0.0000000E+00  0.5050505E-02 -0.1204731E-05  0.0000000E+00  0.2299385E-03
  0.9646465E+00  0.0000000E+00  0.5050505E-02 -0.9336820E-06  0.0000000E+00  0.2277335E-03
  0.9747475E+00  0.0000000E+00  0.5050505E-02 -0.6651492E-06  0.0000000E+00  0.2260851E-03
  0.9848485E+00  0.0000000E+00  0.5050505E-02 -0.3983907E-06  0.0000000E+00  0.2249888E-03
  0.9974747E+00  0.0000000E+00  0.5050505E-02 -0.1326822E-06  0.0000000E+00  0.2244414E-03
  0.5050505E-02  0.0000000E+00  0.1515152E-01  0.5098638E-06  0.0000000E+00  0.2097229E-03
  0.1515152E-01  0.0000000E+00  0.1515152E-01  0.1532384E-05  0.0000000E+00  0.2104222E-03
  0.2525252E-01  0.0000000E+00  0.1515152E-01  0.2563368E-05  0.0000000E+00  0.2118247E-03
  0.3535353E-01  0.0000000E+00  0.1515152E-01  0.3608626E-05  0.0000000E+00  0.2139384E-03
  0.4545455E-01  0.0000000E+00  0.1515152E-01  0.4674140E-05  0.0000000E+00  0.2167754E-03
  0.5555556E-01  0.0000000E+00  0.1515152E-01  0.5766132E-05  0.0000000E+00  0.2203525E-03
  0.6565657E-01  0.0000000E+00  0.1515152E-01  0.6891138E-05  0.0000000E+00  0.2246908E-03
  0.7575758E-01  0.0000000E+00  0.1515152E-01  0.8056113E-05  0.0000000E+00  0.2298162E-03
  0.8585858E-01  0.0000000E+00  0.1515152E-01  0.9268568E-05  0.0000000E+00  0.2357599E-03
  0.9595960E-01  0.0000000E+00  0.1515152E-01  0.1053675E-04  0.0000000E+00  0.2425587E-03
  0.1060606E+00  0.0000000E+00  0.1515152E-01  0.1186989E-04  0.0000000E+00  0.2502557E-03
  0.1161616E+00  0.0000000E+00  0.1515152E-01  0.1327849E-04  0.0000000E+00  0.2589011E-03
  0.1262626E+00  0.0000000E+00  0.1515152E-01  0.1477481E-04  0.0000000E+00  0.2685530E-03
  0.1363636E+00  0.0000000E+00  0.1515152E-01  0.1637343E-04  0.0000000E+00  0.2792795E-03
  0.1464646E+00  0.0000000E+00  0.1515152E-01  0.1809210E-04  0.0000000E+00  0.2911596E-03
  0.1565657E+00  0.0000000E+00  0.1515152E-01  0.1995293E-04  0.0000000E+00  0.3042866E-03
  0.1666667E+00  0.0000000E+00  0.1515152E-01  0.2198427E-04  0.0000000E+00  0.3187713E-03
  0.1767677E+00  0.0000000E+00  0.1515152E-01  0.2422351E-04  0.0000000E+00  0.3347467E-03
  0.1868687E+00  0.0000000E+00  0.1515152E-01  0.2672171E-04  0.0000000E+00  0.3523753E-03
  0.1969697E+00  0.0000000E+00  0.1515152E-01  0.2955149E-04  0.0000000E+00  0.3718597E-03
  0.2070707E+00  0.0000000E+00  0.1515152E-01  0.3282103E-04  0.0000000E+00  0.3934580E-03
  0.2171717E+00  0.0000000E+00  0.1515152E-01  0.3670044E-04  0.0000000E+00  0.4175107E-03
  0.2272727E+00  0.0000000E+00  0.1515152E-01  0.4147396E-04  0.0000000E+00  0.4444864E-03
  0.2373737E+00  0.0000000E+00  0.1515152E-01  0.4765097E-04  0.0000000E+00  0.4750835E-03
  0.2474747E+00  0.0000000E+00  0.1515152E-01  0.5622090E-04  0.0000000E+00  0.5105285E-03
  0.2575758E+00  0.0000000E+00  0.1515152E-01  0.6929975E-04  0.0000000E+00  0.5537851E-03
  0.2676768E+00  0.0000000E+00  0.1515152E-01  0.9198512E-04  0.0000000E+00  0.6154200E-03
  0.2777778E+00  0.0000000E+00  0.1515152E-01  0.7998261E-04  0.0000000E+00  0.6813156E-03
  0.2878788E+00  0.0000000E+00  0.1515152E-01  0.7713216E-04  0.0000000E+00  0.7368337E-03
  0.2979798E+00  0.0000000E+00  0.1515152E-01  0.7859280E-04  0.0000000E+00  0.7913095E-03
  0.3080808E+00  0.0000000E+00  0.1515152E-01  0.8373131E-04  0.0000000E+00  0.8452243E-03
  0.3181818E+00  0.0000000E+00  0.1515152E-01  0.9450851E-04  0.0000000E+00  0.8892324E-03
  0.3282828E+00  0.0000000E+00  0.1515152E-01  0.1139379E-03  0.0000000E+00  0.9306443E-03
  0.3383838E+00  0.0000000E+00  0.1515152E-01  0.1455077E-03  0.0000000E+00  0.1001194E-02
  0.3484848E+00  0.0000000E+00  0.1515152E-01  0.1954340E-03  0.0000000E+00  0.1108606E-02
  0.3585859E+00  0.0000000E+00  0.1515152E-01  0.2886698E-03  0.0000000E+00  0.1245015E-02
  0.3686869E+00  0.0000000E+00  0.1515152E-01  0.4783037E-03  0.0000000E+00  0.1392181E-02
  0.3787879E+00  0.0000000E+00  0.1515152E-01  0.5953604E-03  0.0000000E+00  0.1479143E-02
  0.3888889E+00  0.0000000E+00  0.1515152E-01  0.3093850E-03  0.0000000E+00  0.1905043E-02
  0.3989899E+00  0.0000000E+00  0.1515152E-01 -0.2307995E-03  0.0000000E+00  0.2283737E-02
  0.4090909E+00  0.0000000E+00  0.1515152E-01 -0.3120193E-03  0.0000000E+00  0.2175316E-02
  0.4191919E+00  0.0000000E+00  0.1515152E-01 -0.1381562E-03  0.0000000E+00  0.2055657E-02
  0.4292929E+00  0.0000000E+00  0.1515152E-01 -0.1143191E-04  0.0000000E+00  0.2007119E-02
  0.4393939E+00  0.0000000E+00  0.1515152E-01 -0.1859149E-04  0.0000000E+00  0.2005739E-02
  0.4494950E+00  0.0000000E+00  0.1515152E-01  0.3697740E-04  0.0000000E+00  0.2003641E-02
  0.4595959E+00  0.0000000E+00  0.1515152E-01 -0.7061268E-04  0.0000000E+00  0.1961667E-02
  0.4696970E+00  0.0000000E+00  0.1515152E-01  0.1228834E-04  0.0000000E+00  0.1934657E-02
  0.4797980E+00  0.0000000E+00  0.1515152E-01  0.8493887E-04  0.0000000E+00  0.1996839E-02
  0.4898990E+00  0.0000000E+00  0.1515152E-01  0.1654971E-03  0.0000000E+00  0.2097948E-02
  0.5000000E+00  0.0000000E+00  0.1515152E-01  0.8010813E-04  0.0000000E+00  0.2154990E-02
  0.5101010E+00  0.0000000E+00  0.1515152E-01 -0.1567296E-03  0.0000000E+00  0.2122525E-02
  0.5202020E+00  0.0000000E+00  0.1515152E-01 -0.2462990E-03  0.0000000E+00  0.1968294E-02
  0.5303030E+00  0.0000000E+00  0.1515152E-01 -0.1628831E-03  0.0000000E+00  0.1784615E-02
  0.5404040E+00  0.0000000E+00  0.1515152E-01 -0.9824328E-04  0.0000000E+00  0.1648633E-02
  0.5505050E+00  0.0000000E+00  0.1515152E-01 -0.2093240E-03  0.0000000E+00  0.1530662E-02
  0.5606061E+00  0.0000000E+00  0.1515152E-01 -0.1530691E-03  0.0000000E+00  0.1448780E-02
  0.5707071E+00  0.0000000E+00  0.1515152E-01 -0.1259803E-03  0.0000000E+00  0.1347461E-02
  0.5808081E+00  0.0000000E+00  0.1515152E-01 -0.2131666E-03  0.0000000E+00  0.1188661E-02
  0.5909091E+00  0.0000000E+00  0.1515152E-01 -0.1824815E-03  0.0000000E+00  0.1063769E-02
  0.6010101E+00  0.0000000E+00  0.1515152E-01 -0.1299164E-03  0.0000000E+00  0.9858229E-03
  0.6111111E+00  0.0000000E+00  0.1515152E-01 -0.1013519E-03  0.0000000E+00  0.9125147E-03
  0.6212121E+00  0.0000000E+00  0.1515152E-01 -0.8406182E-04  0.0000000E+00  0.8488650E-03
  0.6313131E+00  0.0000000E+00  0.1515152E-01 -0.7205578E-04  0.0000000E+00  0.7936688E-03
  0.6414142E+00  0.0000000E+00  0.1515152E-01 -0.6312791E-04  0.0000000E+00  0.7454505E-03
  0.6515151E+00  0.0000000E+00  0.1515152E-01 -0.5637265E-04  0.0000000E+00  0.7027695E-03
  0.6616161E+00  0.0000000E+00  0.1515152E-01 -0.5125093E-04  0.0000000E+00  0.6643481E-03
  0.6717172E+00  0.0000000E+00  0.1515152E-01 -0.4731129E-04  0.0000000E+00  0.6291731E-03
  0.6818182E+00  0.0000000E+00  0.1515152E-01 -0.4414601E-04  0.0000000E+00  0.5965384E-03
  0.6919192E+00  0.0000000E+00  0.1515152E-01 -0.4143784E-04  0.0000000E+00  0.5660139E-03
  0.7020202E+00  0.0000000E+00  0.1515152E-01 -0.3896951E-04  0.0000000E+00  0.5373678E-03
  0.7121212E+00  0.0000000E+00  0.1515152E-01 -0.3661087E-04  0.0000000E+00  0.5104910E-03
  0.7222222E+00  0.0000000E+00  0.1515152E-01 -0.3430569E-04  0.0000000E+00  0.4853355E-03
  0.7323232E+00  0.0000000E+00  0.1515152E-01 -0.3204803E-04  0.0000000E+00  0.4618671E-03
  0.7424242E+00  0.0000000E+00  0.1515152E-01 -0.2985642E-04  0.0000000E+00  0.4400394E-03
  0.7525253E+00  0.0000000E+00  0.1515152E-01 -0.2775480E-04  0.0000000E+00  0.4197861E-03
  0.7626263E+00  0.0000000E+00  0.1515152E-01 -0.2576237E-04  0.0000000E+00  0.4010242E-03
  0.7727273E+00  0.0000000E+00  0.1515152E-01 -0.2389012E-04  0.0000000E+00  0.3836606E-03
  0.7828283E+00  0.0000000E+00  0.1515152E-01 -0.2214114E-04  0.0000000E+00  0.3675986E-03
  0.7929293E+00  0.0000000E+00  0.1515152E-01 -0.2051233E-04  0.0000000E+00  0.3527439E-03
  0.8030303E+00  0.0000000E+00  0.1515152E-01 -0.1899639E-04  0.0000000E+00  0.3390075E-03
  0.8131313E+00  0.0000000E+00  0.1515152E-01 -0.1758363E-04  0.0000000E+00  0.3263080E-03
  0.8232324E+00  0.0000000E+00  0.1515152E-01 -0.1626322E-04  0.0000000E+00  0.3145725E-03
  0.8333333E+00  0.0000000E+00  0.1515152E-01 -0.1502419E-04  0.0000000E+00  0.3037369E-03
  0.8434343E+00  0.0000000E+00  0.1515152E-01 -0.1385602E-04  0.0000000E+00  0.2937451E-03
  0.8535354E+00  0.0000000E+00  0.1515152E-01 -0.1274900E-04  0.0000000E+00  0.2845490E-03
  0.8636364E+00  0.0000000E+00  0.1515152E-01 -0.1169445E-04  0.0000000E+00  0.2761070E-03
  0.8737374E+00  0.0000000E+00  0.1515152E-01 -0.1068477E-04  0.0000000E+00  0.2683838E-03
  0.8838384E+00  0.0000000E+00  0.1515152E-01 -0.9713437E-05  0.0000000E+00  0.2613491E-03
  0.8939394E+00  0.0000000E+00  0.1515152E-01 -0.8774867E-05  0.0000000E+00  0.2549772E-03
  0.9040404E+00  0.0000000E+00  0.1515152E-01 -0.7864335E-05  0.0000000E+00  0.2492458E-03
  0.9141414E+00  0.0000000E+00  0.1515152E-01 -0.6977808E-05  0.0000000E+00  0.2441360E-03
  0.9242424E+00  0.0000000E+00  0.1515152E-01 -0.6111809E-05  0.0000000E+00  0.2396317E-03
  0.9343435E+00  0.0000000E+00  0.1515152E-01 -0.5263286E-05  0.0000000E+00  0.2357190E-03
  0.9444444E+00  0.0000000E+00  0.1515152E-01 -0.4429496E-05  0.0000000E+00  0.2323861E-03
  0.9545454E+00  0.0000000E+00  0.1515152E-01 -0.3607911E-05  0.0000000E+00  0.2296232E-03
  0.9646465E+00  0.0000000E+00  0.1515152E-01 -0.2796155E-05  0.0000000E+00  0.2274223E-03
  0.9747475E+00  0.0000000E+00  0.1515152E-01 -0.1991944E-05  0.0000000E+00  0.2257770E-03
  0.9848485E+00  0.0000000E+00  0.1515152E-01 -0.1193062E-05  0.0000000E+00  0.2246827E-03
  0.9974747E+00  0.0000000E+00  0.1515152E-01 -0.3973408E-06  0.0000000E+00  0.2241363E-03
  0.5050505E-02  0.0000000E+00  0.2525252E-01  0.8460661E-06  0.0000000E+00  0.2089326E-03
  0.1515152E-01  0.0000000E+00  0.2525252E-01  0.2542849E-05  0.0000000E+00  0.2096261E-03
  0.2525252E-01  0.0000000E+00  0.2525252E-01  0.4253700E-05  0.0000000E+00  0.2110167E-03
  0.3535353E-01  0.0000000E+00  0.2525252E-01  0.5988235E-05  0.0000000E+00  0.2131123E-03
  0.4545455E-01  0.0000000E+00  0.2525252E-01  0.7756349E-05  0.0000000E+00  0.2159248E-03
  0.5555556E-01  0.0000000E+00  0.2525252E-01  0.9568309E-05  0.0000000E+00  0.2194705E-03
  0.6565657E-01  0.0000000E+00  0.2525252E-01  0.1143488E-04  0.0000000E+00  0.2237701E-03
  0.7575758E-01  0.0000000E+00  0.2525252E-01  0.1336750E-04  0.0000000E+00  0.2288487E-03
  0.8585858E-01  0.0000000E+00  0.2525252E-01  0.1537848E-04  0.0000000E+00  0.2347368E-03
  0.9595960E-01  0.0000000E+00  0.2525252E-01  0.1748130E-04  0.0000000E+00  0.2414701E-03
  0.1060606E+00  0.0000000E+00  0.2525252E-01  0.1969097E-04  0.0000000E+00  0.2490901E-03
  0.1161616E+00  0.0000000E+00  0.2525252E-01  0.2202455E-04  0.0000000E+00  0.2576448E-03
  0.1262626E+00  0.0000000E+00  0.2525252E-01  0.2450180E-04  0.0000000E+00  0.2671901E-03
  0.1363636E+00  0.0000000E+00  0.2525252E-01  0.2714611E-04  0.0000000E+00  0.2777899E-03
  0.1464646E+00  0.0000000E+00  0.2525252E-01  0.2998573E-04  0.0000000E+00  0.2895186E-03
  0.1565657E+00  0.0000000E+00  0.2525252E-01  0.3305559E-04  0.0000000E+00  0.3024624E-03
  0.1666667E+00  0.0000000E+00  0.2525252E-01  0.3639989E-04  0.0000000E+00  0.3167223E-03
  0.1767677E+00  0.0000000E+00  0.2525252E-01  0.4007599E-04  0.0000000E+00  0.3324165E-03
  0.1868687E+00  0.0000000E+00  0.2525252E-01  0.4416063E-04  0.0000000E+00  0.3496853E-03
  0.1969697E+00  0.0000000E+00  0.2525252E-01  0.4875995E-04  0.0000000E+00  0.3686949E-03
  0.2070707E+00  0.0000000E+00  0.2525252E-01  0.5402644E-04  0.0000000E+00  0.3896431E-03
  0.2171717E+00  0.0000000E+00  0.2525252E-01  0.6018866E-04  0.0000000E+00  0.4127607E-03
  0.2272727E+00  0.0000000E+00  0.2525252E-01  0.6760572E-04  0.0000000E+00  0.4383004E-03
  0.2373737E+00  0.0000000E+00  0.2525252E-01  0.7687335E-04  0.0000000E+00  0.4664692E-03
  0.2474747E+00  0.0000000E+00  0.2525252E-01  0.8905052E-04  0.0000000E+00  0.4971295E-03
  0.2575758E+00  0.0000000E+00  0.2525252E-01  0.1062188E-03  0.0000000E+00  0.5284757E-03
  0.2676768E+00  0.0000000E+00  0.2525252E-01  0.1331518E-03  0.0000000E+00  0.5508439E-03
  0.2777778E+00  0.0000000E+00  0.2525252E-01  0.1248306E-03  0.0000000E+00  0.5779851E-03
  0.2878788E+00  0.0000000E+00  0.2525252E-01  0.1244341E-03  0.0000000E+00  0.6226444E-03
  0.2979798E+00  0.0000000E+00  0.2525252E-01  0.1272242E-03  0.0000000E+00  0.6731571E-03
  0.3080808E+00  0.0000000E+00  0.2525252E-01  0.1327342E-03  0.0000000E+00  0.7268906E-03
  0.3181818E+00  0.0000000E+00  0.2525252E-01  0.1416545E-03  0.0000000E+00  0.7896625E-03
  0.3282828E+00  0.0000000E+00  0.2525252E-01  0.1707315E-03  0.0000000E+00  0.8645380E-03
  0.3383838E+00  0.0000000E+00  0.2525252E-01  0.2233197E-03  0.0000000E+00  0.9456375E-03
  0.3484848E+00  0.0000000E+00  0.2525252E-01  0.2829700E-03  0.0000000E+00  0.1026129E-02
  0.3585859E+00  0.0000000E+00  0.2525252E-01  0.3848351E-03  0.0000000E+00  0.1100868E-02
  0.3686869E+00  0.0000000E+00  0.2525252E-01  0.5512149E-03  0.0000000E+00  0.1151278E-02
  0.3787879E+00  0.0000000E+00  0.2525252E-01  0.6202167E-03  0.0000000E+00  0.1184154E-02
  0.3888889E+00  0.0000000E+00  0.2525252E-01  0.6946476E-03  0.0000000E+00  0.1268591E-02
  0.3989899E+00  0.0000000E+00  0.2525252E-01 -0.1917479E-04  0.0000000E+00  0.1635519E-02
  0.4090909E+00  0.0000000E+00  0.2525252E-01 -0.3767311E-03  0.0000000E+00  0.1918995E-02
  0.4191919E+00  0.0000000E+00  0.2525252E-01 -0.1837718E-03  0.0000000E+00  0.1880695E-02
  0.4292929E+00  0.0000000E+00  0.2525252E-01 -0.2345367E-04  0.0000000E+00  0.1848367E-02
  0.4393939E+00  0.0000000E+00  0.2525252E-01 -0.9224458E-05  0.0000000E+00  0.1845137E-02
  0.4494950E+00  0.0000000E+00  0.2525252E-01  0.1027857E-04  0.0000000E+00  0.1824531E-02
  0.4595959E+00  0.0000000E+00  0.2525252E-01 -0.9096763E-04  0.0000000E+00  0.1803293E-02
  0.4696970E+00  0.0000000E+00  0.2525252E-01  0.2900101E-04  0.0000000E+00  0.1824378E-02
  0.4797980E+00  0.0000000E+00  0.2525252E-01  0.1408480E-03  0.0000000E+00  0.1860848E-02
  0.4898990E+00  0.0000000E+00  0.2525252E-01  0.2278507E-03  0.0000000E+00  0.1923239E-02
  0.5000000E+00  0.0000000E+00  0.2525252E-01  0.8279681E-04  0.0000000E+00  0.1960343E-02
  0.5101010E+00  0.0000000E+00  0.2525252E-01 -0.2485545E-03  0.0000000E+00  0.1873837E-02
  0.5202020E+00  0.0000000E+00  0.2525252E-01 -0.3741004E-03  0.0000000E+00  0.1735460E-02
  0.5303030E+00  0.0000000E+00  0.2525252E-01 -0.2552480E-03  0.0000000E+00  0.1633292E-02
  0.5404040E+00  0.0000000E+00  0.2525252E-01 -0.2063568E-03  0.0000000E+00  0.1515218E-02
  0.5505050E+00  0.0000000E+00  0.2525252E-01 -0.2688265E-03  0.0000000E+00  0.1423484E-02
  0.5606061E+00  0.0000000E+00  0.2525252E-01 -0.2155016E-03  0.0000000E+00  0.1354313E-02
  0.5707071E+00  0.0000000E+00  0.2525252E-01 -0.2824428E-03  0.0000000E+00  0.1196412E-02
  0.5808081E+00  0.0000000E+00  0.2525252E-01 -0.3116161E-03  0.0000000E+00  0.1059089E-02
  0.5909091E+00  0.0000000E+00  0.2525252E-01 -0.2414044E-03  0.0000000E+00  0.1003002E-02
  0.6010101E+00  0.0000000E+00  0.2525252E-01 -0.1906702E-03  0.0000000E+00  0.9445372E-03
  0.6111111E+00  0.0000000E+00  0.2525252E-01 -0.1569020E-03  0.0000000E+00  0.8865224E-03
  0.6212121E+00  0.0000000E+00  0.2525252E-01 -0.1343687E-03  0.0000000E+00  0.8315887E-03
  0.6313131E+00  0.0000000E+00  0.2525252E-01 -0.1166958E-03  0.0000000E+00  0.7811569E-03
  0.6414142E+00  0.0000000E+00  0.2525252E-01 -0.1027871E-03  0.0000000E+00  0.7361540E-03
  0.6515151E+00  0.0000000E+00  0.2525252E-01 -0.9210625E-04  0.0000000E+00  0.6959092E-03
  0.6616161E+00  0.0000000E+00  0.2525252E-01 -0.8405155E-04  0.0000000E+00  0.6593197E-03
  0.6717172E+00  0.0000000E+00  0.2525252E-01 -0.7792049E-04  0.0000000E+00  0.6254127E-03
  0.6818182E+00  0.0000000E+00  0.2525252E-01 -0.7298804E-04  0.0000000E+00  0.5935598E-03
  0.6919192E+00  0.0000000E+00  0.2525252E-01 -0.6871459E-04  0.0000000E+00  0.5634599E-03
  0.7020202E+00  0.0000000E+00  0.2525252E-01 -0.6474970E-04  0.0000000E+00  0.5350081E-03
  0.7121212E+00  0.0000000E+00  0.2525252E-01 -0.6088940E-04  0.0000000E+00  0.5082042E-03
  0.7222222E+00  0.0000000E+00  0.2525252E-01 -0.5706384E-04  0.0000000E+00  0.4830845E-03
  0.7323232E+00  0.0000000E+00  0.2525252E-01 -0.5328986E-04  0.0000000E+00  0.4596647E-03
  0.7424242E+00  0.0000000E+00  0.2525252E-01 -0.4961845E-04  0.0000000E+00  0.4379171E-03
  0.7525253E+00  0.0000000E+00  0.2525252E-01 -0.4610054E-04  0.0000000E+00  0.4177749E-03
  0.7626263E+00  0.0000000E+00  0.2525252E-01 -0.4277215E-04  0.0000000E+00  0.3991456E-03
  0.7727273E+00  0.0000000E+00  0.2525252E-01 -0.3965169E-04  0.0000000E+00  0.3819246E-03
  0.7828283E+00  0.0000000E+00  0.2525252E-01 -0.3674270E-04  0.0000000E+00  0.3660060E-03
  0.7929293E+00  0.0000000E+00  0.2525252E-01 -0.3403804E-04  0.0000000E+00  0.3512884E-03
  0.8030303E+00  0.0000000E+00  0.2525252E-01 -0.3152384E-04  0.0000000E+00  0.3376785E-03
  0.8131313E+00  0.0000000E+00  0.2525252E-01 -0.2918257E-04  0.0000000E+00  0.3250927E-03
  0.8232324E+00  0.0000000E+00  0.2525252E-01 -0.2699527E-04  0.0000000E+00  0.3134572E-03
  0.8333333E+00  0.0000000E+00  0.2525252E-01 -0.2494301E-04  0.0000000E+00  0.3027082E-03
  0.8434343E+00  0.0000000E+00  0.2525252E-01 -0.2300788E-04  0.0000000E+00  0.2927905E-03
  0.8535354E+00  0.0000000E+00  0.2525252E-01 -0.2117351E-04  0.0000000E+00  0.2836571E-03
  0.8636364E+00  0.0000000E+00  0.2525252E-01 -0.1942538E-04  0.0000000E+00  0.2752679E-03
  0.8737374E+00  0.0000000E+00  0.2525252E-01 -0.1775087E-04  0.0000000E+00  0.2675890E-03
  0.8838384E+00  0.0000000E+00  0.2525252E-01 -0.1613920E-04  0.0000000E+00  0.2605914E-03
  0.8939394E+00  0.0000000E+00  0.2525252E-01 -0.1458121E-04  0.0000000E+00  0.2542505E-03
  0.9040404E+00  0.0000000E+00  0.2525252E-01 -0.1306918E-04  0.0000000E+00  0.2485452E-03
  0.9141414E+00  0.0000000E+00  0.2525252E-01 -0.1159657E-04  0.0000000E+00  0.2434575E-03
  0.9242424E+00  0.0000000E+00  0.2525252E-01 -0.1015771E-04  0.0000000E+00  0.2389717E-03
  0.9343435E+00  0.0000000E+00  0.2525252E-01 -0.8747655E-05  0.0000000E+00  0.2350745E-03
  0.9444444E+00  0.0000000E+00  0.2525252E-01 -0.7361938E-05  0.0000000E+00  0.2317544E-03
  0.9545454E+00  0.0000000E+00  0.2525252E-01 -0.5996433E-05  0.0000000E+00  0.2290020E-03
  0.9646465E+00  0.0000000E+00  0.2525252E-01 -0.4647239E-05  0.0000000E+00  0.2268092E-03
  0.9747475E+00  0.0000000E+00  0.2525252E-01 -0.3310596E-05  0.0000000E+00  0.2251700E-03
  0.9848485E+00  0.0000000E+00  0.2525252E-01 -0.1982838E-05  0.0000000E+00  0.2240796E-03
  0.9974747E+00  0.0000000E+00  0.2525252E-01 -0.6603646E-06  0.0000000E+00  0.2235351E-03
  0.5050505E-02  0.0000000E+00  0.3535353E-01  0.1177649E-05  0.0000000E+00  0.2077679E-03
  0.1515152E-01  0.0000000E+00  0.3535353E-01  0.3539427E-05  0.0000000E+00  0.2084527E-03
  0.2525252E-01  0.0000000E+00  0.3535353E-01  0.5920777E-05  0.0000000E+00  0.2098258E-03
  0.3535353E-01  0.0000000E+00  0.3535353E-01  0.8335040E-05  0.0000000E+00  0.2118947E-03
  0.4545455E-01  0.0000000E+00  0.3535353E-01  0.1079591E-04  0.0000000E+00  0.2146711E-03
  0.5555556E-01  0.0000000E+00  0.3535353E-01  0.1331758E-04  0.0000000E+00  0.2181706E-03
  0.6565657E-01  0.0000000E+00  0.3535353E-01  0.1591486E-04  0.0000000E+00  0.2224132E-03
  0.7575758E-01  0.0000000E+00  0.3535353E-01  0.1860347E-04  0.0000000E+00  0.2274233E-03
  0.8585858E-01  0.0000000E+00  0.3535353E-01  0.2140023E-04  0.0000000E+00  0.2332300E-03
  0.9595960E-01  0.0000000E+00  0.3535353E-01  0.2432349E-04  0.0000000E+00  0.2398674E-03
  0.1060606E+00  0.0000000E+00  0.3535353E-01  0.2739357E-04  0.0000000E+00  0.2473750E-03
  0.1161616E+00  0.0000000E+00  0.3535353E-01  0.3063342E-04  0.0000000E+00  0.2557981E-03
  0.1262626E+00  0.0000000E+00  0.3535353E-01  0.3406943E-04  0.0000000E+00  0.2651886E-03
  0.1363636E+00  0.0000000E+00  0.3535353E-01  0.3773259E-04  0.0000000E+00  0.2756058E-03
  0.1464646E+00  0.0000000E+00  0.3535353E-01  0.4165998E-04  0.0000000E+00  0.2871172E-03
  0.1565657E+00  0.0000000E+00  0.3535353E-01  0.4589684E-04  0.0000000E+00  0.2998000E-03
  0.1666667E+00  0.0000000E+00  0.3535353E-01  0.5049948E-04  0.0000000E+00  0.3137422E-03
  0.1767677E+00  0.0000000E+00  0.3535353E-01  0.5553946E-04  0.0000000E+00  0.3290441E-03
  0.1868687E+00  0.0000000E+00  0.3535353E-01  0.6110973E-04  0.0000000E+00  0.3458194E-03
  0.1969697E+00  0.0000000E+00  0.3535353E-01  0.6733404E-04  0.0000000E+00  0.3641941E-03
  0.2070707E+00  0.0000000E+00  0.3535353E-01  0.7438136E-04  0.0000000E+00  0.3843039E-03
  0.2171717E+00  0.0000000E+00  0.3535353E-01  0.8248787E-04  0.0000000E+00  0.4062820E-03
  0.2272727E+00  0.0000000E+00  0.3535353E-01  0.9198872E-04  0.0000000E+00  0.4302297E-03
  0.2373737E+00  0.0000000E+00  0.3535353E-01  0.1033550E-03  0.0000000E+00  0.4561449E-03
  0.2474747E+00  0.0000000E+00  0.3535353E-01  0.1171948E-03  0.0000000E+00  0.4837686E-03
  0.2575758E+00  0.0000000E+00  0.3535353E-01  0.1340039E-03  0.0000000E+00  0.5123505E-03
  0.2676768E+00  0.0000000E+00  0.3535353E-01  0.1526432E-03  0.0000000E+00  0.5410276E-03
  0.2777778E+00  0.0000000E+00  0.3535353E-01  0.1626895E-03  0.0000000E+00  0.5759265E-03
  0.2878788E+00  0.0000000E+00  0.3535353E-01  0.1692098E-03  0.0000000E+00  0.6206508E-03
  0.2979798E+00  0.0000000E+00  0.3535353E-01  0.1737569E-03  0.0000000E+00  0.6695296E-03