title = "dataset water"
variables = "x", "y", "z", "vx", "vy", "vz"
zone t = "velocities, solution time =  4.900E+01 days        " i =   99, j =   99, k =    1,  f=point
  0.5050505E-02  0.0000000E+00  0.5050505E-02  0.1011589E-06  0.0000000E+00  0.1132751E-03
  0.1515152E-01  0.0000000E+00  0.5050505E-02  0.3040715E-06  0.0000000E+00  0.1136871E-03
  0.2525252E-01  0.0000000E+00  0.5050505E-02  0.5087860E-06  0.0000000E+00  0.1145138E-03
  0.3535353E-01  0.0000000E+00  0.5050505E-02  0.7165416E-06  0.0000000E+00  0.1157600E-03
  0.4545455E-01  0.0000000E+00  0.5050505E-02  0.9286244E-06  0.0000000E+00  0.1174335E-03
  0.5555556E-01  0.0000000E+00  0.5050505E-02  0.1146385E-05  0.0000000E+00  0.1195447E-03
  0.6565657E-01  0.0000000E+00  0.5050505E-02  0.1371256E-05  0.0000000E+00  0.1221069E-03
  0.7575758E-01  0.0000000E+00  0.5050505E-02  0.1604778E-05  0.0000000E+00  0.1251365E-03
  0.8585858E-01  0.0000000E+00  0.5050505E-02  0.1848622E-05  0.0000000E+00  0.1286534E-03
  0.9595960E-01  0.0000000E+00  0.5050505E-02  0.2104621E-05  0.0000000E+00  0.1326810E-03
  0.1060606E+00  0.0000000E+00  0.5050505E-02  0.2374804E-05  0.0000000E+00  0.1372470E-03
  0.1161616E+00  0.0000000E+00  0.5050505E-02  0.2661440E-05  0.0000000E+00  0.1423834E-03
  0.1262626E+00  0.0000000E+00  0.5050505E-02  0.2967089E-05  0.0000000E+00  0.1481275E-03
  0.1363636E+00  0.0000000E+00  0.5050505E-02  0.3294668E-05  0.0000000E+00  0.1545223E-03
  0.1464646E+00  0.0000000E+00  0.5050505E-02  0.3647528E-05  0.0000000E+00  0.1616175E-03
  0.1565657E+00  0.0000000E+00  0.5050505E-02  0.4029562E-05  0.0000000E+00  0.1694706E-03
  0.1666667E+00  0.0000000E+00  0.5050505E-02  0.4445336E-05  0.0000000E+00  0.1781481E-03
  0.1767677E+00  0.0000000E+00  0.5050505E-02  0.4900266E-05  0.0000000E+00  0.1877273E-03
  0.1868687E+00  0.0000000E+00  0.5050505E-02  0.5400854E-05  0.0000000E+00  0.1982982E-03
  0.1969697E+00  0.0000000E+00  0.5050505E-02  0.5955008E-05  0.0000000E+00  0.2099664E-03
  0.2070707E+00  0.0000000E+00  0.5050505E-02  0.6572493E-05  0.0000000E+00  0.2228569E-03
  0.2171717E+00  0.0000000E+00  0.5050505E-02  0.7265564E-05  0.0000000E+00  0.2371182E-03
  0.2272727E+00  0.0000000E+00  0.5050505E-02  0.8049908E-05  0.0000000E+00  0.2529295E-03
  0.2373737E+00  0.0000000E+00  0.5050505E-02  0.8946046E-05  0.0000000E+00  0.2705096E-03
  0.2474747E+00  0.0000000E+00  0.5050505E-02  0.9981534E-05  0.0000000E+00  0.2901295E-03
  0.2575758E+00  0.0000000E+00  0.5050505E-02  0.1119453E-04  0.0000000E+00  0.3121326E-03
  0.2676768E+00  0.0000000E+00  0.5050505E-02  0.1263991E-04  0.0000000E+00  0.3369643E-03
  0.2777778E+00  0.0000000E+00  0.5050505E-02  0.1440035E-04  0.0000000E+00  0.3652212E-03
  0.2878788E+00  0.0000000E+00  0.5050505E-02  0.1660877E-04  0.0000000E+00  0.3977370E-03
  0.2979798E+00  0.0000000E+00  0.5050505E-02  0.1950010E-04  0.0000000E+00  0.4357506E-03
  0.3080808E+00  0.0000000E+00  0.5050505E-02  0.2355286E-04  0.0000000E+00  0.4812855E-03
  0.3181818E+00  0.0000000E+00  0.5050505E-02  0.2995084E-04  0.0000000E+00  0.5381915E-03
  0.3282828E+00  0.0000000E+00  0.5050505E-02  0.4231797E-04  0.0000000E+00  0.6156054E-03
  0.3383838E+00  0.0000000E+00  0.5050505E-02  0.4936201E-04  0.0000000E+00  0.7147031E-03
  0.3484848E+00  0.0000000E+00  0.5050505E-02  0.5313921E-04  0.0000000E+00  0.8267942E-03
  0.3585859E+00  0.0000000E+00  0.5050505E-02  0.7241977E-04  0.0000000E+00  0.9660552E-03
  0.3686869E+00  0.0000000E+00  0.5050505E-02  0.1232267E-03  0.0000000E+00  0.1186965E-02
  0.3787879E+00  0.0000000E+00  0.5050505E-02  0.1591960E-03  0.0000000E+00  0.1514118E-02
  0.3888889E+00  0.0000000E+00  0.5050505E-02  0.2125812E-04  0.0000000E+00  0.1727231E-02
  0.3989899E+00  0.0000000E+00  0.5050505E-02 -0.3575677E-04  0.0000000E+00  0.1709623E-02
  0.4090909E+00  0.0000000E+00  0.5050505E-02 -0.7055359E-04  0.0000000E+00  0.1581400E-02
  0.4191919E+00  0.0000000E+00  0.5050505E-02 -0.2551464E-04  0.0000000E+00  0.1466505E-02
  0.4292929E+00  0.0000000E+00  0.5050505E-02  0.4374366E-05  0.0000000E+00  0.1441352E-02
  0.4393939E+00  0.0000000E+00  0.5050505E-02 -0.1292707E-04  0.0000000E+00  0.1431212E-02
  0.4494950E+00  0.0000000E+00  0.5050505E-02  0.4863708E-05  0.0000000E+00  0.1421640E-02
  0.4595959E+00  0.0000000E+00  0.5050505E-02 -0.2033237E-04  0.0000000E+00  0.1403380E-02
  0.4696970E+00  0.0000000E+00  0.5050505E-02 -0.1190783E-04  0.0000000E+00  0.1365317E-02
  0.4797980E+00  0.0000000E+00  0.5050505E-02 -0.7214546E-05  0.0000000E+00  0.1342804E-02
  0.4898990E+00  0.0000000E+00  0.5050505E-02 -0.5834247E-05  0.0000000E+00  0.1327471E-02
  0.5000000E+00  0.0000000E+00  0.5050505E-02 -0.2701330E-05  0.0000000E+00  0.1317452E-02
  0.5101010E+00  0.0000000E+00  0.5050505E-02 -0.4858383E-04  0.0000000E+00  0.1258030E-02
  0.5202020E+00  0.0000000E+00  0.5050505E-02 -0.3780151E-04  0.0000000E+00  0.1158448E-02
  0.5303030E+00  0.0000000E+00  0.5050505E-02 -0.3086656E-04  0.0000000E+00  0.1080031E-02
  0.5404040E+00  0.0000000E+00  0.5050505E-02 -0.2635354E-04  0.0000000E+00  0.1015191E-02
  0.5505050E+00  0.0000000E+00  0.5050505E-02 -0.2442685E-04  0.0000000E+00  0.9580436E-03
  0.5606061E+00  0.0000000E+00  0.5050505E-02 -0.2641708E-04  0.0000000E+00  0.9012215E-03
  0.5707071E+00  0.0000000E+00  0.5050505E-02 -0.3218340E-04  0.0000000E+00  0.8362499E-03
  0.5808081E+00  0.0000000E+00  0.5050505E-02 -0.3003980E-04  0.0000000E+00  0.7677820E-03
  0.5909091E+00  0.0000000E+00  0.5050505E-02 -0.2639693E-04  0.0000000E+00  0.7061295E-03
  0.6010101E+00  0.0000000E+00  0.5050505E-02 -0.2300872E-04  0.0000000E+00  0.6525026E-03
  0.6111111E+00  0.0000000E+00  0.5050505E-02 -0.2019686E-04  0.0000000E+00  0.6058675E-03
  0.6212121E+00  0.0000000E+00  0.5050505E-02 -0.1791591E-04  0.0000000E+00  0.5649317E-03
  0.6313131E+00  0.0000000E+00  0.5050505E-02 -0.1605679E-04  0.0000000E+00  0.5286020E-03
  0.6414142E+00  0.0000000E+00  0.5050505E-02 -0.1452057E-04  0.0000000E+00  0.4960314E-03
  0.6515151E+00  0.0000000E+00  0.5050505E-02 -0.1323020E-04  0.0000000E+00  0.4665764E-03
  0.6616161E+00  0.0000000E+00  0.5050505E-02 -0.1212803E-04  0.0000000E+00  0.4397479E-03
  0.6717172E+00  0.0000000E+00  0.5050505E-02 -0.1117148E-04  0.0000000E+00  0.4151704E-03
  0.6818182E+00  0.0000000E+00  0.5050505E-02 -0.1032922E-04  0.0000000E+00  0.3925524E-03
  0.6919192E+00  0.0000000E+00  0.5050505E-02 -0.9578257E-05  0.0000000E+00  0.3716631E-03
  0.7020202E+00  0.0000000E+00  0.5050505E-02 -0.8901646E-05  0.0000000E+00  0.3523172E-03
  0.7121212E+00  0.0000000E+00  0.5050505E-02 -0.8286790E-05  0.0000000E+00  0.3343623E-03
  0.7222222E+00  0.0000000E+00  0.5050505E-02 -0.7724137E-05  0.0000000E+00  0.3176711E-03
  0.7323232E+00  0.0000000E+00  0.5050505E-02 -0.7206258E-05  0.0000000E+00  0.3021357E-03
  0.7424242E+00  0.0000000E+00  0.5050505E-02 -0.6727211E-05  0.0000000E+00  0.2876630E-03
  0.7525253E+00  0.0000000E+00  0.5050505E-02 -0.6282114E-05  0.0000000E+00  0.2741722E-03
  0.7626263E+00  0.0000000E+00  0.5050505E-02 -0.5866865E-05  0.0000000E+00  0.2615929E-03
  0.7727273E+00  0.0000000E+00  0.5050505E-02 -0.5477967E-05  0.0000000E+00  0.2498629E-03
  0.7828283E+00  0.0000000E+00  0.5050505E-02 -0.5112410E-05  0.0000000E+00  0.2389275E-03
  0.7929293E+00  0.0000000E+00  0.5050505E-02 -0.4767595E-05  0.0000000E+00  0.2287382E-03
  0.8030303E+00  0.0000000E+00  0.5050505E-02 -0.4441272E-05  0.0000000E+00  0.2192521E-03
  0.8131313E+00  0.0000000E+00  0.5050505E-02 -0.4131489E-05  0.0000000E+00  0.2104306E-03
  0.8232324E+00  0.0000000E+00  0.5050505E-02 -0.3836556E-05  0.0000000E+00  0.2022396E-03
  0.8333333E+00  0.0000000E+00  0.5050505E-02 -0.3554998E-05  0.0000000E+00  0.1946482E-03
  0.8434343E+00  0.0000000E+00  0.5050505E-02 -0.3285522E-05  0.0000000E+00  0.1876287E-03
  0.8535354E+00  0.0000000E+00  0.5050505E-02 -0.3026984E-05  0.0000000E+00  0.1811561E-03
  0.8636364E+00  0.0000000E+00  0.5050505E-02 -0.2778362E-05  0.0000000E+00  0.1752079E-03
  0.8737374E+00  0.0000000E+00  0.5050505E-02 -0.2538727E-05  0.0000000E+00  0.1697636E-03
  0.8838384E+00  0.0000000E+00  0.5050505E-02 -0.2307227E-05  0.0000000E+00  0.1648046E-03
  0.8939394E+00  0.0000000E+00  0.5050505E-02 -0.2083067E-05  0.0000000E+00  0.1603144E-03
  0.9040404E+00  0.0000000E+00  0.5050505E-02 -0.1865499E-05  0.0000000E+00  0.1562780E-03
  0.9141414E+00  0.0000000E+00  0.5050505E-02 -0.1653812E-05  0.0000000E+00  0.1526819E-03
  0.9242424E+00  0.0000000E+00  0.5050505E-02 -0.1447320E-05  0.0000000E+00  0.1495144E-03
  0.9343435E+00  0.0000000E+00  0.5050505E-02 -0.1245362E-05  0.0000000E+00  0.1467650E-03
  0.9444444E+00  0.0000000E+00  0.5050505E-02 -0.1047296E-05  0.0000000E+00  0.1444247E-03
  0.9545454E+00  0.0000000E+00  0.5050505E-02 -0.8524925E-06  0.0000000E+00  0.1424859E-03
  0.9646465E+00  0.0000000E+00  0.5050505E-02 -0.6603373E-06  0.0000000E+00  0.1409423E-03
  0.9747475E+00  0.0000000E+00  0.5050505E-02 -0.4702254E-06  0.0000000E+00  0.1397889E-03
  0.9848485E+00  0.0000000E+00  0.5050505E-02 -0.2815615E-06  0.0000000E+00  0.1390220E-03
  0.9974747E+00  0.0000000E+00  0.5050505E-02 -0.9375911E-07  0.0000000E+00  0.1386392E-03
  0.5050505E-02  0.0000000E+00  0.1515152E-01  0.3027464E-06  0.0000000E+00  0.1131082E-03
  0.1515152E-01  0.0000000E+00  0.1515152E-01  0.9100214E-06  0.0000000E+00  0.1135185E-03
  0.2525252E-01  0.0000000E+00  0.1515152E-01  0.1522688E-05  0.0000000E+00  0.1143416E-03
  0.3535353E-01  0.0000000E+00  0.1515152E-01  0.2144447E-05  0.0000000E+00  0.1155825E-03
  0.4545455E-01  0.0000000E+00  0.1515152E-01  0.2779140E-05  0.0000000E+00  0.1172487E-03
  0.5555556E-01  0.0000000E+00  0.1515152E-01  0.3430798E-05  0.0000000E+00  0.1193504E-03
  0.6565657E-01  0.0000000E+00  0.1515152E-01  0.4103699E-05  0.0000000E+00  0.1219010E-03
  0.7575758E-01  0.0000000E+00  0.1515152E-01  0.4802438E-05  0.0000000E+00  0.1249165E-03
  0.8585858E-01  0.0000000E+00  0.1515152E-01  0.5532000E-05  0.0000000E+00  0.1284165E-03
  0.9595960E-01  0.0000000E+00  0.1515152E-01  0.6297851E-05  0.0000000E+00  0.1324242E-03
  0.1060606E+00  0.0000000E+00  0.1515152E-01  0.7106038E-05  0.0000000E+00  0.1369669E-03
  0.1161616E+00  0.0000000E+00  0.1515152E-01  0.7963321E-05  0.0000000E+00  0.1420760E-03
  0.1262626E+00  0.0000000E+00  0.1515152E-01  0.8877321E-05  0.0000000E+00  0.1477883E-03
  0.1363636E+00  0.0000000E+00  0.1515152E-01  0.9856710E-05  0.0000000E+00  0.1541461E-03
  0.1464646E+00  0.0000000E+00  0.1515152E-01  0.1091145E-04  0.0000000E+00  0.1611981E-03
  0.1565657E+00  0.0000000E+00  0.1515152E-01  0.1205310E-04  0.0000000E+00  0.1690008E-03
  0.1666667E+00  0.0000000E+00  0.1515152E-01  0.1329519E-04  0.0000000E+00  0.1776191E-03
  0.1767677E+00  0.0000000E+00  0.1515152E-01  0.1465375E-04  0.0000000E+00  0.1871286E-03
  0.1868687E+00  0.0000000E+00  0.1515152E-01  0.1614798E-04  0.0000000E+00  0.1976168E-03
  0.1969697E+00  0.0000000E+00  0.1515152E-01  0.1780121E-04  0.0000000E+00  0.2091864E-03
  0.2070707E+00  0.0000000E+00  0.1515152E-01  0.1964211E-04  0.0000000E+00  0.2219577E-03
  0.2171717E+00  0.0000000E+00  0.1515152E-01  0.2170660E-04  0.0000000E+00  0.2360738E-03
  0.2272727E+00  0.0000000E+00  0.1515152E-01  0.2404041E-04  0.0000000E+00  0.2517057E-03
  0.2373737E+00  0.0000000E+00  0.1515152E-01  0.2670306E-04  0.0000000E+00  0.2690600E-03
  0.2474747E+00  0.0000000E+00  0.1515152E-01  0.2977389E-04  0.0000000E+00  0.2883906E-03
  0.2575758E+00  0.0000000E+00  0.1515152E-01  0.3336176E-04  0.0000000E+00  0.3100133E-03
  0.2676768E+00  0.0000000E+00  0.1515152E-01  0.3762094E-04  0.0000000E+00  0.3343288E-03
  0.2777778E+00  0.0000000E+00  0.1515152E-01  0.4277881E-04  0.0000000E+00  0.3618555E-03
  0.2878788E+00  0.0000000E+00  0.1515152E-01  0.4918634E-04  0.0000000E+00  0.3932748E-03
  0.2979798E+00  0.0000000E+00  0.1515152E-01  0.5741705E-04  0.0000000E+00  0.4294795E-03
  0.3080808E+00  0.0000000E+00  0.1515152E-01  0.6847873E-04  0.0000000E+00  0.4715439E-03
  0.3181818E+00  0.0000000E+00  0.1515152E-01  0.8431685E-04  0.0000000E+00  0.5201724E-03
  0.3282828E+00  0.0000000E+00  0.1515152E-01  0.1091528E-03  0.0000000E+00  0.5724123E-03
  0.3383838E+00  0.0000000E+00  0.1515152E-01  0.1288562E-03  0.0000000E+00  0.6310967E-03
  0.3484848E+00  0.0000000E+00  0.1515152E-01  0.1460243E-03  0.0000000E+00  0.7066106E-03
  0.3585859E+00  0.0000000E+00  0.1515152E-01  0.1900496E-03  0.0000000E+00  0.7991127E-03
  0.3686869E+00  0.0000000E+00  0.1515152E-01  0.2832764E-03  0.0000000E+00  0.8891951E-03
  0.3787879E+00  0.0000000E+00  0.1515152E-01  0.3763384E-03  0.0000000E+00  0.9938679E-03
  0.3888889E+00  0.0000000E+00  0.1515152E-01  0.2524158E-03  0.0000000E+00  0.1299914E-02
  0.3989899E+00  0.0000000E+00  0.1515152E-01 -0.9861959E-04  0.0000000E+00  0.1508498E-02
  0.4090909E+00  0.0000000E+00  0.1515152E-01 -0.1685563E-03  0.0000000E+00  0.1441444E-02
  0.4191919E+00  0.0000000E+00  0.1515152E-01 -0.6342716E-04  0.0000000E+00  0.1392632E-02
  0.4292929E+00  0.0000000E+00  0.1515152E-01  0.1220326E-04  0.0000000E+00  0.1381647E-02
  0.4393939E+00  0.0000000E+00  0.1515152E-01 -0.2756218E-04  0.0000000E+00  0.1383625E-02
  0.4494950E+00  0.0000000E+00  0.1515152E-01  0.2507864E-04  0.0000000E+00  0.1399928E-02
  0.4595959E+00  0.0000000E+00  0.1515152E-01 -0.6336005E-04  0.0000000E+00  0.1391060E-02
  0.4696970E+00  0.0000000E+00  0.1515152E-01 -0.3228675E-04  0.0000000E+00  0.1353357E-02
  0.4797980E+00  0.0000000E+00  0.1515152E-01 -0.1866390E-04  0.0000000E+00  0.1337912E-02
  0.4898990E+00  0.0000000E+00  0.1515152E-01 -0.1881232E-04  0.0000000E+00  0.1324161E-02
  0.5000000E+00  0.0000000E+00  0.1515152E-01 -0.2269400E-04  0.0000000E+00  0.1295023E-02
  0.5101010E+00  0.0000000E+00  0.1515152E-01 -0.1369639E-03  0.0000000E+00  0.1227943E-02
  0.5202020E+00  0.0000000E+00  0.1515152E-01 -0.1097190E-03  0.0000000E+00  0.1141914E-02
  0.5303030E+00  0.0000000E+00  0.1515152E-01 -0.9019369E-04  0.0000000E+00  0.1069736E-02
  0.5404040E+00  0.0000000E+00  0.1515152E-01 -0.7653533E-04  0.0000000E+00  0.1009872E-02
  0.5505050E+00  0.0000000E+00  0.1515152E-01 -0.6957790E-04  0.0000000E+00  0.9591887E-03
  0.5606061E+00  0.0000000E+00  0.1515152E-01 -0.7566012E-04  0.0000000E+00  0.9100154E-03
  0.5707071E+00  0.0000000E+00  0.1515152E-01 -0.1036483E-03  0.0000000E+00  0.8408591E-03
  0.5808081E+00  0.0000000E+00  0.1515152E-01 -0.9145640E-04  0.0000000E+00  0.7629276E-03
  0.5909091E+00  0.0000000E+00  0.1515152E-01 -0.7893042E-04  0.0000000E+00  0.6999770E-03
  0.6010101E+00  0.0000000E+00  0.1515152E-01 -0.6846904E-04  0.0000000E+00  0.6471299E-03
  0.6111111E+00  0.0000000E+00  0.1515152E-01 -0.6007512E-04  0.0000000E+00  0.6015535E-03
  0.6212121E+00  0.0000000E+00  0.1515152E-01 -0.5333410E-04  0.0000000E+00  0.5615250E-03
  0.6313131E+00  0.0000000E+00  0.1515152E-01 -0.4785002E-04  0.0000000E+00  0.5258977E-03
  0.6414142E+00  0.0000000E+00  0.1515152E-01 -0.4331465E-04  0.0000000E+00  0.4938568E-03
  0.6515151E+00  0.0000000E+00  0.1515152E-01 -0.3949879E-04  0.0000000E+00  0.4647999E-03
  0.6616161E+00  0.0000000E+00  0.1515152E-01 -0.3623344E-04  0.0000000E+00  0.4382721E-03
  0.6717172E+00  0.0000000E+00  0.1515152E-01 -0.3339428E-04  0.0000000E+00  0.4139242E-03
  0.6818182E+00  0.0000000E+00  0.1515152E-01 -0.3089004E-04  0.0000000E+00  0.3914838E-03
  0.6919192E+00  0.0000000E+00  0.1515152E-01 -0.2865386E-04  0.0000000E+00  0.3707346E-03
  0.7020202E+00  0.0000000E+00  0.1515152E-01 -0.2663655E-04  0.0000000E+00  0.3515013E-03
  0.7121212E+00  0.0000000E+00  0.1515152E-01 -0.2480155E-04  0.0000000E+00  0.3336387E-03
  0.7222222E+00  0.0000000E+00  0.1515152E-01 -0.2312107E-04  0.0000000E+00  0.3170247E-03
  0.7323232E+00  0.0000000E+00  0.1515152E-01 -0.2157346E-04  0.0000000E+00  0.3015546E-03
  0.7424242E+00  0.0000000E+00  0.1515152E-01 -0.2014131E-04  0.0000000E+00  0.2871379E-03
  0.7525253E+00  0.0000000E+00  0.1515152E-01 -0.1881025E-04  0.0000000E+00  0.2736955E-03
  0.7626263E+00  0.0000000E+00  0.1515152E-01 -0.1756814E-04  0.0000000E+00  0.2611582E-03
  0.7727273E+00  0.0000000E+00  0.1515152E-01 -0.1640462E-04  0.0000000E+00  0.2494647E-03
  0.7828283E+00  0.0000000E+00  0.1515152E-01 -0.1531072E-04  0.0000000E+00  0.2385612E-03
  0.7929293E+00  0.0000000E+00  0.1515152E-01 -0.1427871E-04  0.0000000E+00  0.2283999E-03
  0.8030303E+00  0.0000000E+00  0.1515152E-01 -0.1330189E-04  0.0000000E+00  0.2189384E-03
  0.8131313E+00  0.0000000E+00  0.1515152E-01 -0.1237445E-04  0.0000000E+00  0.2101386E-03
  0.8232324E+00  0.0000000E+00  0.1515152E-01 -0.1149134E-04  0.0000000E+00  0.2019669E-03
  0.8333333E+00  0.0000000E+00  0.1515152E-01 -0.1064819E-04  0.0000000E+00  0.1943927E-03
  0.8434343E+00  0.0000000E+00  0.1515152E-01 -0.9841138E-05  0.0000000E+00  0.1873886E-03
  0.8535354E+00  0.0000000E+00  0.1515152E-01 -0.9066787E-05  0.0000000E+00  0.1809298E-03
  0.8636364E+00  0.0000000E+00  0.1515152E-01 -0.8322091E-05  0.0000000E+00  0.1749940E-03
  0.8737374E+00  0.0000000E+00  0.1515152E-01 -0.7604287E-05  0.0000000E+00  0.1695609E-03
  0.8838384E+00  0.0000000E+00  0.1515152E-01 -0.6910832E-05  0.0000000E+00  0.1646120E-03
  0.8939394E+00  0.0000000E+00  0.1515152E-01 -0.6239359E-05  0.0000000E+00  0.1601308E-03
  0.9040404E+00  0.0000000E+00  0.1515152E-01 -0.5587632E-05  0.0000000E+00  0.1561025E-03
  0.9141414E+00  0.0000000E+00  0.1515152E-01 -0.4953524E-05  0.0000000E+00  0.1525136E-03
  0.9242424E+00  0.0000000E+00  0.1515152E-01 -0.4334989E-05  0.0000000E+00  0.1493524E-03
  0.9343435E+00  0.0000000E+00  0.1515152E-01 -0.3730046E-05  0.0000000E+00  0.1466084E-03
  0.9444444E+00  0.0000000E+00  0.1515152E-01 -0.3136772E-05  0.0000000E+00  0.1442727E-03
  0.9545454E+00  0.0000000E+00  0.1515152E-01 -0.2553285E-05  0.0000000E+00  0.1423377E-03
  0.9646465E+00  0.0000000E+00  0.1515152E-01 -0.1977743E-05  0.0000000E+00  0.1407971E-03
  0.9747475E+00  0.0000000E+00  0.1515152E-01 -0.1408335E-05  0.0000000E+00  0.1396460E-03
  0.9848485E+00  0.0000000E+00  0.1515152E-01 -0.8432752E-06  0.0000000E+00  0.1388805E-03
  0.9974747E+00  0.0000000E+00  0.1515152E-01 -0.2808062E-06  0.0000000E+00  0.1384984E-03
  0.5050505E-02  0.0000000E+00  0.2525252E-01  0.5024653E-06  0.0000000E+00  0.1127804E-03
  0.1515152E-01  0.0000000E+00  0.2525252E-01  0.1510351E-05  0.0000000E+00  0.1131873E-03
  0.2525252E-01  0.0000000E+00  0.2525252E-01  0.2527164E-05  0.0000000E+00  0.1140035E-03
  0.3535353E-01  0.0000000E+00  0.2525252E-01  0.3559025E-05  0.0000000E+00  0.1152337E-03
  0.4545455E-01  0.0000000E+00  0.2525252E-01  0.4612279E-05  0.0000000E+00  0.1168854E-03
  0.5555556E-01  0.0000000E+00  0.2525252E-01  0.5693580E-05  0.0000000E+00  0.1189687E-03
  0.6565657E-01  0.0000000E+00  0.2525252E-01  0.6809991E-05  0.0000000E+00  0.1214962E-03
  0.7575758E-01  0.0000000E+00  0.2525252E-01  0.7969092E-05  0.0000000E+00  0.1244838E-03
  0.8585858E-01  0.0000000E+00  0.2525252E-01  0.9179099E-05  0.0000000E+00  0.1279507E-03
  0.9595960E-01  0.0000000E+00  0.2525252E-01  0.1044902E-04  0.0000000E+00  0.1319192E-03
  0.1060606E+00  0.0000000E+00  0.2525252E-01  0.1178880E-04  0.0000000E+00  0.1364159E-03
  0.1161616E+00  0.0000000E+00  0.2525252E-01  0.1320955E-04  0.0000000E+00  0.1414714E-03
  0.1262626E+00  0.0000000E+00  0.2525252E-01  0.1472378E-04  0.0000000E+00  0.1471212E-03
  0.1363636E+00  0.0000000E+00  0.2525252E-01  0.1634572E-04  0.0000000E+00  0.1534062E-03
  0.1464646E+00  0.0000000E+00  0.2525252E-01  0.1809165E-04  0.0000000E+00  0.1603734E-03
  0.1565657E+00  0.0000000E+00  0.2525252E-01  0.1998043E-04  0.0000000E+00  0.1680771E-03
  0.1666667E+00  0.0000000E+00  0.2525252E-01  0.2203411E-04  0.0000000E+00  0.1765795E-03
  0.1767677E+00  0.0000000E+00  0.2525252E-01  0.2427868E-04  0.0000000E+00  0.1859525E-03
  0.1868687E+00  0.0000000E+00  0.2525252E-01  0.2674521E-04  0.0000000E+00  0.1962793E-03
  0.1969697E+00  0.0000000E+00  0.2525252E-01  0.2947121E-04  0.0000000E+00  0.2076563E-03
  0.2070707E+00  0.0000000E+00  0.2525252E-01  0.3250261E-04  0.0000000E+00  0.2201962E-03
  0.2171717E+00  0.0000000E+00  0.2525252E-01  0.3589649E-04  0.0000000E+00  0.2340308E-03
  0.2272727E+00  0.0000000E+00  0.2525252E-01  0.3972495E-04  0.0000000E+00  0.2493161E-03
  0.2373737E+00  0.0000000E+00  0.2525252E-01  0.4408086E-04  0.0000000E+00  0.2662373E-03
  0.2474747E+00  0.0000000E+00  0.2525252E-01  0.4908635E-04  0.0000000E+00  0.2850165E-03
  0.2575758E+00  0.0000000E+00  0.2525252E-01  0.5490609E-04  0.0000000E+00  0.3059219E-03
  0.2676768E+00  0.0000000E+00  0.2525252E-01  0.6176817E-04  0.0000000E+00  0.3292802E-03
  0.2777778E+00  0.0000000E+00  0.2525252E-01  0.6999795E-04  0.0000000E+00  0.3554908E-03
  0.2878788E+00  0.0000000E+00  0.2525252E-01  0.8007319E-04  0.0000000E+00  0.3850407E-03
  0.2979798E+00  0.0000000E+00  0.2525252E-01  0.9271119E-04  0.0000000E+00  0.4185109E-03
  0.3080808E+00  0.0000000E+00  0.2525252E-01  0.1089867E-03  0.0000000E+00  0.4565521E-03
  0.3181818E+00  0.0000000E+00  0.2525252E-01  0.1303811E-03  0.0000000E+00  0.4998002E-03
  0.3282828E+00  0.0000000E+00  0.2525252E-01  0.1581304E-03  0.0000000E+00  0.5489025E-03
  0.3383838E+00  0.0000000E+00  0.2525252E-01  0.1886036E-03  0.0000000E+00  0.6067481E-03
  0.3484848E+00  0.0000000E+00  0.2525252E-01  0.2151584E-03  0.0000000E+00  0.6702601E-03
  0.3585859E+00  0.0000000E+00  0.2525252E-01  0.2644514E-03  0.0000000E+00  0.7338213E-03
  0.3686869E+00  0.0000000E+00  0.2525252E-01  0.3437485E-03  0.0000000E+00  0.7916609E-03
  0.3787879E+00  0.0000000E+00  0.2525252E-01  0.4512436E-03  0.0000000E+00  0.8367348E-03
  0.3888889E+00  0.0000000E+00  0.2525252E-01  0.5148510E-03  0.0000000E+00  0.9128213E-03
  0.3989899E+00  0.0000000E+00  0.2525252E-01  0.2970947E-04  0.0000000E+00  0.1152938E-02
  0.4090909E+00  0.0000000E+00  0.2525252E-01 -0.2142971E-03  0.0000000E+00  0.1312965E-02
  0.4191919E+00  0.0000000E+00  0.2525252E-01 -0.7604911E-04  0.0000000E+00  0.1289073E-02
  0.4292929E+00  0.0000000E+00  0.2525252E-01  0.1730476E-04  0.0000000E+00  0.1290340E-02
  0.4393939E+00  0.0000000E+00  0.2525252E-01 -0.2019983E-04  0.0000000E+00  0.1303251E-02
  0.4494950E+00  0.0000000E+00  0.2525252E-01  0.3941070E-04  0.0000000E+00  0.1313133E-02
  0.4595959E+00  0.0000000E+00  0.2525252E-01 -0.8192712E-04  0.0000000E+00  0.1316518E-02
  0.4696970E+00  0.0000000E+00  0.2525252E-01 -0.3763038E-04  0.0000000E+00  0.1324264E-02
  0.4797980E+00  0.0000000E+00  0.2525252E-01 -0.1836853E-04  0.0000000E+00  0.1333049E-02
  0.4898990E+00  0.0000000E+00  0.2525252E-01 -0.2831615E-04  0.0000000E+00  0.1335286E-02
  0.5000000E+00  0.0000000E+00  0.2525252E-01 -0.8692206E-04  0.0000000E+00  0.1275888E-02
  0.5101010E+00  0.0000000E+00  0.2525252E-01 -0.2055823E-03  0.0000000E+00  0.1185303E-02
  0.5202020E+00  0.0000000E+00  0.2525252E-01 -0.1742889E-03  0.0000000E+00  0.1115370E-02
  0.5303030E+00  0.0000000E+00  0.2525252E-01 -0.1438448E-03  0.0000000E+00  0.1050437E-02
  0.5404040E+00  0.0000000E+00  0.2525252E-01 -0.1203439E-03  0.0000000E+00  0.9980532E-03
  0.5505050E+00  0.0000000E+00  0.2525252E-01 -0.1027247E-03  0.0000000E+00  0.9605208E-03
  0.5606061E+00  0.0000000E+00  0.2525252E-01 -0.1288104E-03  0.0000000E+00  0.9118452E-03
  0.5707071E+00  0.0000000E+00  0.2525252E-01 -0.1874562E-03  0.0000000E+00  0.8284337E-03
  0.5808081E+00  0.0000000E+00  0.2525252E-01 -0.1532064E-03  0.0000000E+00  0.7459319E-03
  0.5909091E+00  0.0000000E+00  0.2525252E-01 -0.1295696E-03  0.0000000E+00  0.6858399E-03
  0.6010101E+00  0.0000000E+00  0.2525252E-01 -0.1120128E-03  0.0000000E+00  0.6361837E-03
  0.6111111E+00  0.0000000E+00  0.2525252E-01 -0.9840982E-04  0.0000000E+00  0.5931172E-03
  0.6212121E+00  0.0000000E+00  0.2525252E-01 -0.8757126E-04  0.0000000E+00  0.5549497E-03
  0.6313131E+00  0.0000000E+00  0.2525252E-01 -0.7874692E-04  0.0000000E+00  0.5206945E-03
  0.6414142E+00  0.0000000E+00  0.2525252E-01 -0.7142550E-04  0.0000000E+00  0.4896711E-03
  0.6515151E+00  0.0000000E+00  0.2525252E-01 -0.6524205E-04  0.0000000E+00  0.4613748E-03
  0.6616161E+00  0.0000000E+00  0.2525252E-01 -0.5993015E-04  0.0000000E+00  0.4354209E-03
  0.6717172E+00  0.0000000E+00  0.2525252E-01 -0.5529418E-04  0.0000000E+00  0.4115108E-03
  0.6818182E+00  0.0000000E+00  0.2525252E-01 -0.5119095E-04  0.0000000E+00  0.3894097E-03
  0.6919192E+00  0.0000000E+00  0.2525252E-01 -0.4751586E-04  0.0000000E+00  0.3689285E-03
  0.7020202E+00  0.0000000E+00  0.2525252E-01 -0.4419227E-04  0.0000000E+00  0.3499113E-03
  0.7121212E+00  0.0000000E+00  0.2525252E-01 -0.4116318E-04  0.0000000E+00  0.3322267E-03
  0.7222222E+00  0.0000000E+00  0.2525252E-01 -0.3838518E-04  0.0000000E+00  0.3157619E-03
  0.7323232E+00  0.0000000E+00  0.2525252E-01 -0.3582414E-04  0.0000000E+00  0.3004187E-03
  0.7424242E+00  0.0000000E+00  0.2525252E-01 -0.3345235E-04  0.0000000E+00  0.2861109E-03
  0.7525253E+00  0.0000000E+00  0.2525252E-01 -0.3124670E-04  0.0000000E+00  0.2727628E-03
  0.7626263E+00  0.0000000E+00  0.2525252E-01 -0.2918752E-04  0.0000000E+00  0.2603072E-03
  0.7727273E+00  0.0000000E+00  0.2525252E-01 -0.2725785E-04  0.0000000E+00  0.2486851E-03
  0.7828283E+00  0.0000000E+00  0.2525252E-01 -0.2544300E-04  0.0000000E+00  0.2378439E-03
  0.7929293E+00  0.0000000E+00  0.2525252E-01 -0.2373026E-04  0.0000000E+00  0.2277372E-03
  0.8030303E+00  0.0000000E+00  0.2525252E-01 -0.2210859E-04  0.0000000E+00  0.2183237E-03
  0.8131313E+00  0.0000000E+00  0.2525252E-01 -0.2056843E-04  0.0000000E+00  0.2095664E-03
  0.8232324E+00  0.0000000E+00  0.2525252E-01 -0.1910152E-04  0.0000000E+00  0.2014323E-03
  0.8333333E+00  0.0000000E+00  0.2525252E-01 -0.1770063E-04  0.0000000E+00  0.1938916E-03
  0.8434343E+00  0.0000000E+00  0.2525252E-01 -0.1635947E-04  0.0000000E+00  0.1869175E-03
  0.8535354E+00  0.0000000E+00  0.2525252E-01 -0.1507245E-04  0.0000000E+00  0.1804858E-03
  0.8636364E+00  0.0000000E+00  0.2525252E-01 -0.1383458E-04  0.0000000E+00  0.1745743E-03
  0.8737374E+00  0.0000000E+00  0.2525252E-01 -0.1264130E-04  0.0000000E+00  0.1691631E-03
  0.8838384E+00  0.0000000E+00  0.2525252E-01 -0.1148845E-04  0.0000000E+00  0.1642340E-03
  0.8939394E+00  0.0000000E+00  0.2525252E-01 -0.1037210E-04  0.0000000E+00  0.1597707E-03
  0.9040404E+00  0.0000000E+00  0.2525252E-01 -0.9288583E-05  0.0000000E+00  0.1557582E-03
  0.9141414E+00  0.0000000E+00  0.2525252E-01 -0.8234359E-05  0.0000000E+00  0.1521834E-03
  0.9242424E+00  0.0000000E+00  0.2525252E-01 -0.7206043E-05  0.0000000E+00  0.1490345E-03
  0.9343435E+00  0.0000000E+00  0.2525252E-01 -0.6200351E-05  0.0000000E+00  0.1463013E-03
  0.9444444E+00  0.0000000E+00  0.2525252E-01 -0.5214086E-05  0.0000000E+00  0.1439747E-03
  0.9545454E+00  0.0000000E+00  0.2525252E-01 -0.4244123E-05  0.0000000E+00  0.1420472E-03
  0.9646465E+00  0.0000000E+00  0.2525252E-01 -0.3287398E-05  0.0000000E+00  0.1405126E-03
  0.9747475E+00  0.0000000E+00  0.2525252E-01 -0.2340899E-05  0.0000000E+00  0.1393659E-03
  0.9848485E+00  0.0000000E+00  0.2525252E-01 -0.1401656E-05  0.0000000E+00  0.1386034E-03
  0.9974747E+00  0.0000000E+00  0.2525252E-01 -0.4667408E-06  0.0000000E+00  0.1382227E-03
  0.5050505E-02  0.0000000E+00  0.3535353E-01  0.6995159E-06  0.0000000E+00  0.1122989E-03
  0.1515152E-01  0.0000000E+00  0.3535353E-01  0.2102644E-05  0.0000000E+00  0.1127007E-03
  0.2525252E-01  0.0000000E+00  0.3535353E-01  0.3518138E-05  0.0000000E+00  0.1135066E-03
  0.3535353E-01  0.0000000E+00  0.3535353E-01  0.4954466E-05  0.0000000E+00  0.1147213E-03
  0.4545455E-01  0.0000000E+00  0.3535353E-01  0.6420395E-05  0.0000000E+00  0.1163517E-03
  0.5555556E-01  0.0000000E+00  0.3535353E-01  0.7925120E-05  0.0000000E+00  0.1184076E-03
  0.6565657E-01  0.0000000E+00  0.3535353E-01  0.9478390E-05  0.0000000E+00  0.1209013E-03
  0.7575758E-01  0.0000000E+00  0.3535353E-01  0.1109066E-04  0.0000000E+00  0.1238480E-03
  0.8585858E-01  0.0000000E+00  0.3535353E-01  0.1277325E-04  0.0000000E+00  0.1272661E-03
  0.9595960E-01  0.0000000E+00  0.3535353E-01  0.1453854E-04  0.0000000E+00  0.1311771E-03
  0.1060606E+00  0.0000000E+00  0.3535353E-01  0.1640023E-04  0.0000000E+00  0.1356063E-03
  0.1161616E+00  0.0000000E+00  0.3535353E-01  0.1837355E-04  0.0000000E+00  0.1405831E-03
  0.1262626E+00  0.0000000E+00  0.3535353E-01  0.2047564E-04  0.0000000E+00  0.1461413E-03
  0.1363636E+00  0.0000000E+00  0.3535353E-01  0.2272590E-04  0.0000000E+00  0.1523199E-03
  0.1464646E+00  0.0000000E+00  0.3535353E-01  0.2514655E-04  0.0000000E+00  0.1591633E-03
  0.1565657E+00  0.0000000E+00  0.3535353E-01  0.2776319E-04  0.0000000E+00  0.1667225E-03
  0.1666667E+00  0.0000000E+00  0.3535353E-01  0.3060562E-04  0.0000000E+00  0.1750561E-03
  0.1767677E+00  0.0000000E+00  0.3535353E-01  0.3370886E-04  0.0000000E+00  0.1842310E-03
  0.1868687E+00  0.0000000E+00  0.3535353E-01  0.3711450E-04  0.0000000E+00  0.1943239E-03
  0.1969697E+00  0.0000000E+00  0.3535353E-01  0.4087244E-04  0.0000000E+00  0.2054230E-03
  0.2070707E+00  0.0000000E+00  0.3535353E-01  0.4504331E-04  0.0000000E+00  0.2176301E-03
  0.2171717E+00  0.0000000E+00  0.3535353E-01  0.4970171E-04  0.0000000E+00  0.2310624E-03
  0.2272727E+00  0.0000000E+00  0.3535353E-01  0.5494079E-04  0.0000000E+00  0.2458557E-03
  0.2373737E+00  0.0000000E+00  0.3535353E-01  0.6087870E-04  0.0000000E+00  0.2621673E-03
  0.2474747E+00  0.0000000E+00  0.3535353E-01  0.6766802E-04  0.0000000E+00  0.2801793E-03
  0.2575758E+00  0.0000000E+00  0.3535353E-01  0.7550968E-04  0.0000000E+00  0.3001019E-03
  0.2676768E+00  0.0000000E+00  0.3535353E-01  0.8467406E-04  0.0000000E+00  0.3221748E-03
  0.2777778E+00  0.0000000E+00  0.3535353E-01  0.9553339E-04  0.0000000E+00  0.3466660E-03
  0.2878788E+00  0.0000000E+00  0.3535353E-01  0.1086120E-03  0.0000000E+00  0.3738641E-03
  0.2979798E+00  0.0000000E+00  0.3535353E-01  0.1246638E-03  0.0000000E+00  0.4040636E-03