title = "dataset water"
variables = "x", "y", "z", "vx", "vy", "vz"
zone t = "velocities, solution time =  5.400E+01 days        " i =   99, j =   99, k =    1,  f=point
  0.5050505E-02  0.0000000E+00  0.5050505E-02  0.1349719E-06  0.0000000E+00  0.1649690E-03
  0.1515152E-01  0.0000000E+00  0.5050505E-02  0.4057030E-06  0.0000000E+00  0.1655223E-03
  0.2525252E-01  0.0000000E+00  0.5050505E-02  0.6788229E-06  0.0000000E+00  0.1666322E-03
  0.3535353E-01  0.0000000E+00  0.5050505E-02  0.9559796E-06  0.0000000E+00  0.1683055E-03
  0.4545455E-01  0.0000000E+00  0.5050505E-02  0.1238885E-05  0.0000000E+00  0.1705525E-03
  0.5555556E-01  0.0000000E+00  0.5050505E-02  0.1529336E-05  0.0000000E+00  0.1733872E-03
  0.6565657E-01  0.0000000E+00  0.5050505E-02  0.1829246E-05  0.0000000E+00  0.1768277E-03
  0.7575758E-01  0.0000000E+00  0.5050505E-02  0.2140670E-05  0.0000000E+00  0.1808961E-03
  0.8585858E-01  0.0000000E+00  0.5050505E-02  0.2465846E-05  0.0000000E+00  0.1856193E-03
  0.9595960E-01  0.0000000E+00  0.5050505E-02  0.2807243E-05  0.0000000E+00  0.1910290E-03
  0.1060606E+00  0.0000000E+00  0.5050505E-02  0.3167614E-05  0.0000000E+00  0.1971628E-03
  0.1161616E+00  0.0000000E+00  0.5050505E-02  0.3550070E-05  0.0000000E+00  0.2040642E-03
  0.1262626E+00  0.0000000E+00  0.5050505E-02  0.3958174E-05  0.0000000E+00  0.2117844E-03
  0.1363636E+00  0.0000000E+00  0.5050505E-02  0.4396065E-05  0.0000000E+00  0.2203824E-03
  0.1464646E+00  0.0000000E+00  0.5050505E-02  0.4868617E-05  0.0000000E+00  0.2299275E-03
  0.1565657E+00  0.0000000E+00  0.5050505E-02  0.5381664E-05  0.0000000E+00  0.2405003E-03
  0.1666667E+00  0.0000000E+00  0.5050505E-02  0.5942308E-05  0.0000000E+00  0.2521955E-03
  0.1767677E+00  0.0000000E+00  0.5050505E-02  0.6559354E-05  0.0000000E+00  0.2651255E-03
  0.1868687E+00  0.0000000E+00  0.5050505E-02  0.7243960E-05  0.0000000E+00  0.2794241E-03
  0.1969697E+00  0.0000000E+00  0.5050505E-02  0.8010608E-05  0.0000000E+00  0.2952535E-03
  0.2070707E+00  0.0000000E+00  0.5050505E-02  0.8878647E-05  0.0000000E+00  0.3128129E-03
  0.2171717E+00  0.0000000E+00  0.5050505E-02  0.9874806E-05  0.0000000E+00  0.3323521E-03
  0.2272727E+00  0.0000000E+00  0.5050505E-02  0.1103751E-04  0.0000000E+00  0.3541923E-03
  0.2373737E+00  0.0000000E+00  0.5050505E-02  0.1242456E-04  0.0000000E+00  0.3787605E-03
  0.2474747E+00  0.0000000E+00  0.5050505E-02  0.1412739E-04  0.0000000E+00  0.4066473E-03
  0.2575758E+00  0.0000000E+00  0.5050505E-02  0.1629732E-04  0.0000000E+00  0.4387100E-03
  0.2676768E+00  0.0000000E+00  0.5050505E-02  0.1918739E-04  0.0000000E+00  0.4762513E-03
  0.2777778E+00  0.0000000E+00  0.5050505E-02  0.2316677E-04  0.0000000E+00  0.5212657E-03
  0.2878788E+00  0.0000000E+00  0.5050505E-02  0.2831585E-04  0.0000000E+00  0.5762819E-03
  0.2979798E+00  0.0000000E+00  0.5050505E-02  0.3104623E-04  0.0000000E+00  0.6401296E-03
  0.3080808E+00  0.0000000E+00  0.5050505E-02  0.3224064E-04  0.0000000E+00  0.7087138E-03
  0.3181818E+00  0.0000000E+00  0.5050505E-02  0.3986496E-04  0.0000000E+00  0.7875251E-03
  0.3282828E+00  0.0000000E+00  0.5050505E-02  0.4504678E-04  0.0000000E+00  0.8811951E-03
  0.3383838E+00  0.0000000E+00  0.5050505E-02  0.4902874E-04  0.0000000E+00  0.9861249E-03
  0.3484848E+00  0.0000000E+00  0.5050505E-02  0.6468205E-04  0.0000000E+00  0.1114617E-02
  0.3585859E+00  0.0000000E+00  0.5050505E-02  0.9881483E-04  0.0000000E+00  0.1302348E-02
  0.3686869E+00  0.0000000E+00  0.5050505E-02  0.1817630E-03  0.0000000E+00  0.1632358E-02
  0.3787879E+00  0.0000000E+00  0.5050505E-02  0.2708563E-03  0.0000000E+00  0.2186005E-02
  0.3888889E+00  0.0000000E+00  0.5050505E-02 -0.1397336E-04  0.0000000E+00  0.2505147E-02
  0.3989899E+00  0.0000000E+00  0.5050505E-02 -0.8753616E-04  0.0000000E+00  0.2372057E-02
  0.4090909E+00  0.0000000E+00  0.5050505E-02 -0.1058308E-03  0.0000000E+00  0.2123546E-02
  0.4191919E+00  0.0000000E+00  0.5050505E-02 -0.4358504E-04  0.0000000E+00  0.1934830E-02
  0.4292929E+00  0.0000000E+00  0.5050505E-02 -0.1884746E-05  0.0000000E+00  0.1877904E-02
  0.4393939E+00  0.0000000E+00  0.5050505E-02 -0.1342329E-04  0.0000000E+00  0.1858812E-02
  0.4494950E+00  0.0000000E+00  0.5050505E-02  0.1923028E-04  0.0000000E+00  0.1866051E-02
  0.4595959E+00  0.0000000E+00  0.5050505E-02 -0.3076439E-04  0.0000000E+00  0.1851798E-02
  0.4696970E+00  0.0000000E+00  0.5050505E-02 -0.1352361E-05  0.0000000E+00  0.1811893E-02
  0.4797980E+00  0.0000000E+00  0.5050505E-02  0.1927188E-04  0.0000000E+00  0.1834149E-02
  0.4898990E+00  0.0000000E+00  0.5050505E-02  0.3009462E-04  0.0000000E+00  0.1895669E-02
  0.5000000E+00  0.0000000E+00  0.5050505E-02  0.4348442E-04  0.0000000E+00  0.1988022E-02
  0.5101010E+00  0.0000000E+00  0.5050505E-02 -0.6618692E-04  0.0000000E+00  0.1959957E-02
  0.5202020E+00  0.0000000E+00  0.5050505E-02 -0.6974292E-04  0.0000000E+00  0.1791524E-02
  0.5303030E+00  0.0000000E+00  0.5050505E-02 -0.5703342E-04  0.0000000E+00  0.1637026E-02
  0.5404040E+00  0.0000000E+00  0.5050505E-02 -0.6008759E-04  0.0000000E+00  0.1496721E-02
  0.5505050E+00  0.0000000E+00  0.5050505E-02 -0.4444235E-04  0.0000000E+00  0.1373139E-02
  0.5606061E+00  0.0000000E+00  0.5050505E-02 -0.3111422E-04  0.0000000E+00  0.1284738E-02
  0.5707071E+00  0.0000000E+00  0.5050505E-02 -0.1720385E-04  0.0000000E+00  0.1228579E-02
  0.5808081E+00  0.0000000E+00  0.5050505E-02 -0.5801150E-04  0.0000000E+00  0.1142453E-02
  0.5909091E+00  0.0000000E+00  0.5050505E-02 -0.6622787E-04  0.0000000E+00  0.1002005E-02
  0.6010101E+00  0.0000000E+00  0.5050505E-02 -0.4266810E-04  0.0000000E+00  0.8804397E-03
  0.6111111E+00  0.0000000E+00  0.5050505E-02 -0.3196588E-04  0.0000000E+00  0.7979824E-03
  0.6212121E+00  0.0000000E+00  0.5050505E-02 -0.2595958E-04  0.0000000E+00  0.7344817E-03
  0.6313131E+00  0.0000000E+00  0.5050505E-02 -0.2203890E-04  0.0000000E+00  0.6821959E-03
  0.6414142E+00  0.0000000E+00  0.5050505E-02 -0.1923432E-04  0.0000000E+00  0.6374781E-03
  0.6515151E+00  0.0000000E+00  0.5050505E-02 -0.1711708E-04  0.0000000E+00  0.5982785E-03
  0.6616161E+00  0.0000000E+00  0.5050505E-02 -0.1545902E-04  0.0000000E+00  0.5632976E-03
  0.6717172E+00  0.0000000E+00  0.5050505E-02 -0.1411847E-04  0.0000000E+00  0.5316574E-03
  0.6818182E+00  0.0000000E+00  0.5050505E-02 -0.1299899E-04  0.0000000E+00  0.5027496E-03
  0.6919192E+00  0.0000000E+00  0.5050505E-02 -0.1203298E-04  0.0000000E+00  0.4761504E-03
  0.7020202E+00  0.0000000E+00  0.5050505E-02 -0.1117416E-04  0.0000000E+00  0.4515631E-03
  0.7121212E+00  0.0000000E+00  0.5050505E-02 -0.1039276E-04  0.0000000E+00  0.4287763E-03
  0.7222222E+00  0.0000000E+00  0.5050505E-02 -0.9671143E-05  0.0000000E+00  0.4076314E-03
  0.7323232E+00  0.0000000E+00  0.5050505E-02 -0.8999652E-05  0.0000000E+00  0.3880013E-03
  0.7424242E+00  0.0000000E+00  0.5050505E-02 -0.8373127E-05  0.0000000E+00  0.3697761E-03
  0.7525253E+00  0.0000000E+00  0.5050505E-02 -0.7788500E-05  0.0000000E+00  0.3528560E-03
  0.7626263E+00  0.0000000E+00  0.5050505E-02 -0.7243358E-05  0.0000000E+00  0.3371486E-03
  0.7727273E+00  0.0000000E+00  0.5050505E-02 -0.6735252E-05  0.0000000E+00  0.3225676E-03
  0.7828283E+00  0.0000000E+00  0.5050505E-02 -0.6261472E-05  0.0000000E+00  0.3090329E-03
  0.7929293E+00  0.0000000E+00  0.5050505E-02 -0.5819068E-05  0.0000000E+00  0.2964715E-03
  0.8030303E+00  0.0000000E+00  0.5050505E-02 -0.5404969E-05  0.0000000E+00  0.2848171E-03
  0.8131313E+00  0.0000000E+00  0.5050505E-02 -0.5016123E-05  0.0000000E+00  0.2740107E-03
  0.8232324E+00  0.0000000E+00  0.5050505E-02 -0.4649615E-05  0.0000000E+00  0.2639996E-03
  0.8333333E+00  0.0000000E+00  0.5050505E-02 -0.4302753E-05  0.0000000E+00  0.2547379E-03
  0.8434343E+00  0.0000000E+00  0.5050505E-02 -0.3973111E-05  0.0000000E+00  0.2461849E-03
  0.8535354E+00  0.0000000E+00  0.5050505E-02 -0.3658550E-05  0.0000000E+00  0.2383052E-03
  0.8636364E+00  0.0000000E+00  0.5050505E-02 -0.3357211E-05  0.0000000E+00  0.2310678E-03
  0.8737374E+00  0.0000000E+00  0.5050505E-02 -0.3067488E-05  0.0000000E+00  0.2244455E-03
  0.8838384E+00  0.0000000E+00  0.5050505E-02 -0.2787994E-05  0.0000000E+00  0.2184143E-03
  0.8939394E+00  0.0000000E+00  0.5050505E-02 -0.2517528E-05  0.0000000E+00  0.2129532E-03
  0.9040404E+00  0.0000000E+00  0.5050505E-02 -0.2255032E-05  0.0000000E+00  0.2080437E-03
  0.9141414E+00  0.0000000E+00  0.5050505E-02 -0.1999560E-05  0.0000000E+00  0.2036693E-03
  0.9242424E+00  0.0000000E+00  0.5050505E-02 -0.1750247E-05  0.0000000E+00  0.1998157E-03
  0.9343435E+00  0.0000000E+00  0.5050505E-02 -0.1506288E-05  0.0000000E+00  0.1964703E-03
  0.9444444E+00  0.0000000E+00  0.5050505E-02 -0.1266915E-05  0.0000000E+00  0.1936225E-03
  0.9545454E+00  0.0000000E+00  0.5050505E-02 -0.1031388E-05  0.0000000E+00  0.1912631E-03
  0.9646465E+00  0.0000000E+00  0.5050505E-02 -0.7989864E-06  0.0000000E+00  0.1893844E-03
  0.9747475E+00  0.0000000E+00  0.5050505E-02 -0.5689979E-06  0.0000000E+00  0.1879806E-03
  0.9848485E+00  0.0000000E+00  0.5050505E-02 -0.3407209E-06  0.0000000E+00  0.1870471E-03
  0.9974747E+00  0.0000000E+00  0.5050505E-02 -0.1134619E-06  0.0000000E+00  0.1865811E-03
  0.5050505E-02  0.0000000E+00  0.1515152E-01  0.4038944E-06  0.0000000E+00  0.1646834E-03
  0.1515152E-01  0.0000000E+00  0.1515152E-01  0.1214045E-05  0.0000000E+00  0.1652342E-03
  0.2525252E-01  0.0000000E+00  0.1515152E-01  0.2031351E-05  0.0000000E+00  0.1663392E-03
  0.3535353E-01  0.0000000E+00  0.1515152E-01  0.2860737E-05  0.0000000E+00  0.1680050E-03
  0.4545455E-01  0.0000000E+00  0.1515152E-01  0.3707316E-05  0.0000000E+00  0.1702418E-03
  0.5555556E-01  0.0000000E+00  0.1515152E-01  0.4576456E-05  0.0000000E+00  0.1730635E-03
  0.6565657E-01  0.0000000E+00  0.1515152E-01  0.5473863E-05  0.0000000E+00  0.1764878E-03
  0.7575758E-01  0.0000000E+00  0.1515152E-01  0.6405669E-05  0.0000000E+00  0.1805367E-03
  0.8585858E-01  0.0000000E+00  0.1515152E-01  0.7378549E-05  0.0000000E+00  0.1852366E-03
  0.9595960E-01  0.0000000E+00  0.1515152E-01  0.8399853E-05  0.0000000E+00  0.1906190E-03
  0.1060606E+00  0.0000000E+00  0.1515152E-01  0.9477772E-05  0.0000000E+00  0.1967207E-03
  0.1161616E+00  0.0000000E+00  0.1515152E-01  0.1062155E-04  0.0000000E+00  0.2035846E-03
  0.1262626E+00  0.0000000E+00  0.1515152E-01  0.1184178E-04  0.0000000E+00  0.2112609E-03
  0.1363636E+00  0.0000000E+00  0.1515152E-01  0.1315070E-04  0.0000000E+00  0.2198077E-03
  0.1464646E+00  0.0000000E+00  0.1515152E-01  0.1456273E-04  0.0000000E+00  0.2292923E-03
  0.1565657E+00  0.0000000E+00  0.1515152E-01  0.1609508E-04  0.0000000E+00  0.2397934E-03
  0.1666667E+00  0.0000000E+00  0.1515152E-01  0.1776863E-04  0.0000000E+00  0.2514029E-03
  0.1767677E+00  0.0000000E+00  0.1515152E-01  0.1960919E-04  0.0000000E+00  0.2642292E-03
  0.1868687E+00  0.0000000E+00  0.1515152E-01  0.2164929E-04  0.0000000E+00  0.2784005E-03
  0.1969697E+00  0.0000000E+00  0.1515152E-01  0.2393091E-04  0.0000000E+00  0.2940709E-03
  0.2070707E+00  0.0000000E+00  0.1515152E-01  0.2650973E-04  0.0000000E+00  0.3114274E-03
  0.2171717E+00  0.0000000E+00  0.1515152E-01  0.2946187E-04  0.0000000E+00  0.3307006E-03
  0.2272727E+00  0.0000000E+00  0.1515152E-01  0.3289540E-04  0.0000000E+00  0.3521806E-03
  0.2373737E+00  0.0000000E+00  0.1515152E-01  0.3697051E-04  0.0000000E+00  0.3762411E-03
  0.2474747E+00  0.0000000E+00  0.1515152E-01  0.4193725E-04  0.0000000E+00  0.4033790E-03
  0.2575758E+00  0.0000000E+00  0.1515152E-01  0.4821149E-04  0.0000000E+00  0.4342899E-03
  0.2676768E+00  0.0000000E+00  0.1515152E-01  0.5654233E-04  0.0000000E+00  0.4700583E-03
  0.2777778E+00  0.0000000E+00  0.1515152E-01  0.6842566E-04  0.0000000E+00  0.5128513E-03
  0.2878788E+00  0.0000000E+00  0.1515152E-01  0.8727460E-04  0.0000000E+00  0.5691553E-03
  0.2979798E+00  0.0000000E+00  0.1515152E-01  0.9460158E-04  0.0000000E+00  0.6369970E-03
  0.3080808E+00  0.0000000E+00  0.1515152E-01  0.9077841E-04  0.0000000E+00  0.7007255E-03
  0.3181818E+00  0.0000000E+00  0.1515152E-01  0.9633913E-04  0.0000000E+00  0.7477164E-03
  0.3282828E+00  0.0000000E+00  0.1515152E-01  0.1112183E-03  0.0000000E+00  0.7894196E-03
  0.3383838E+00  0.0000000E+00  0.1515152E-01  0.1372664E-03  0.0000000E+00  0.8562422E-03
  0.3484848E+00  0.0000000E+00  0.1515152E-01  0.1787189E-03  0.0000000E+00  0.9548625E-03
  0.3585859E+00  0.0000000E+00  0.1515152E-01  0.2557813E-03  0.0000000E+00  0.1075690E-02
  0.3686869E+00  0.0000000E+00  0.1515152E-01  0.4096088E-03  0.0000000E+00  0.1194084E-02
  0.3787879E+00  0.0000000E+00  0.1515152E-01  0.5678776E-03  0.0000000E+00  0.1277979E-02
  0.3888889E+00  0.0000000E+00  0.1515152E-01  0.2782229E-03  0.0000000E+00  0.1681274E-02
  0.3989899E+00  0.0000000E+00  0.1515152E-01 -0.1934452E-03  0.0000000E+00  0.2027110E-02
  0.4090909E+00  0.0000000E+00  0.1515152E-01 -0.2632015E-03  0.0000000E+00  0.1933462E-02
  0.4191919E+00  0.0000000E+00  0.1515152E-01 -0.1132212E-03  0.0000000E+00  0.1832096E-02
  0.4292929E+00  0.0000000E+00  0.1515152E-01 -0.6503832E-05  0.0000000E+00  0.1794526E-02
  0.4393939E+00  0.0000000E+00  0.1515152E-01 -0.3168880E-04  0.0000000E+00  0.1784490E-02
  0.4494950E+00  0.0000000E+00  0.1515152E-01  0.4142983E-04  0.0000000E+00  0.1782240E-02
  0.4595959E+00  0.0000000E+00  0.1515152E-01 -0.7304183E-04  0.0000000E+00  0.1771233E-02
  0.4696970E+00  0.0000000E+00  0.1515152E-01  0.2906583E-05  0.0000000E+00  0.1763100E-02
  0.4797980E+00  0.0000000E+00  0.1515152E-01  0.6478766E-04  0.0000000E+00  0.1803958E-02
  0.4898990E+00  0.0000000E+00  0.1515152E-01  0.8702465E-04  0.0000000E+00  0.1872729E-02
  0.5000000E+00  0.0000000E+00  0.1515152E-01  0.6809842E-04  0.0000000E+00  0.1884683E-02
  0.5101010E+00  0.0000000E+00  0.1515152E-01 -0.1937341E-03  0.0000000E+00  0.1783964E-02
  0.5202020E+00  0.0000000E+00  0.1515152E-01 -0.1978906E-03  0.0000000E+00  0.1634126E-02
  0.5303030E+00  0.0000000E+00  0.1515152E-01 -0.1577282E-03  0.0000000E+00  0.1508642E-02
  0.5404040E+00  0.0000000E+00  0.1515152E-01 -0.1447901E-03  0.0000000E+00  0.1425256E-02
  0.5505050E+00  0.0000000E+00  0.1515152E-01 -0.1308175E-03  0.0000000E+00  0.1345283E-02
  0.5606061E+00  0.0000000E+00  0.1515152E-01 -0.9343809E-04  0.0000000E+00  0.1258577E-02
  0.5707071E+00  0.0000000E+00  0.1515152E-01 -0.8919338E-04  0.0000000E+00  0.1158403E-02
  0.5808081E+00  0.0000000E+00  0.1515152E-01 -0.1821947E-03  0.0000000E+00  0.1020655E-02
  0.5909091E+00  0.0000000E+00  0.1515152E-01 -0.1613376E-03  0.0000000E+00  0.9139001E-03
  0.6010101E+00  0.0000000E+00  0.1515152E-01 -0.1163963E-03  0.0000000E+00  0.8470690E-03
  0.6111111E+00  0.0000000E+00  0.1515152E-01 -0.9158244E-04  0.0000000E+00  0.7821222E-03
  0.6212121E+00  0.0000000E+00  0.1515152E-01 -0.7591880E-04  0.0000000E+00  0.7253632E-03
  0.6313131E+00  0.0000000E+00  0.1515152E-01 -0.6504155E-04  0.0000000E+00  0.6762416E-03
  0.6414142E+00  0.0000000E+00  0.1515152E-01 -0.5702478E-04  0.0000000E+00  0.6332913E-03
  0.6515151E+00  0.0000000E+00  0.1515152E-01 -0.5088789E-04  0.0000000E+00  0.5952036E-03
  0.6616161E+00  0.0000000E+00  0.1515152E-01 -0.4604944E-04  0.0000000E+00  0.5609659E-03
  0.6717172E+00  0.0000000E+00  0.1515152E-01 -0.4212169E-04  0.0000000E+00  0.5298316E-03
  0.6818182E+00  0.0000000E+00  0.1515152E-01 -0.3883004E-04  0.0000000E+00  0.5012666E-03
  0.6919192E+00  0.0000000E+00  0.1515152E-01 -0.3597854E-04  0.0000000E+00  0.4748971E-03
  0.7020202E+00  0.0000000E+00  0.1515152E-01 -0.3343268E-04  0.0000000E+00  0.4504645E-03
  0.7121212E+00  0.0000000E+00  0.1515152E-01 -0.3110720E-04  0.0000000E+00  0.4277861E-03
  0.7222222E+00  0.0000000E+00  0.1515152E-01 -0.2895314E-04  0.0000000E+00  0.4067238E-03
  0.7323232E+00  0.0000000E+00  0.1515152E-01 -0.2694479E-04  0.0000000E+00  0.3871628E-03
  0.7424242E+00  0.0000000E+00  0.1515152E-01 -0.2506905E-04  0.0000000E+00  0.3690000E-03
  0.7525253E+00  0.0000000E+00  0.1515152E-01 -0.2331815E-04  0.0000000E+00  0.3521387E-03
  0.7626263E+00  0.0000000E+00  0.1515152E-01 -0.2168557E-04  0.0000000E+00  0.3364870E-03
  0.7727273E+00  0.0000000E+00  0.1515152E-01 -0.2016422E-04  0.0000000E+00  0.3219583E-03
  0.7828283E+00  0.0000000E+00  0.1515152E-01 -0.1874601E-04  0.0000000E+00  0.3084720E-03
  0.7929293E+00  0.0000000E+00  0.1515152E-01 -0.1742200E-04  0.0000000E+00  0.2959547E-03
  0.8030303E+00  0.0000000E+00  0.1515152E-01 -0.1618288E-04  0.0000000E+00  0.2843398E-03
  0.8131313E+00  0.0000000E+00  0.1515152E-01 -0.1501938E-04  0.0000000E+00  0.2735683E-03
  0.8232324E+00  0.0000000E+00  0.1515152E-01 -0.1392271E-04  0.0000000E+00  0.2635879E-03
  0.8333333E+00  0.0000000E+00  0.1515152E-01 -0.1288473E-04  0.0000000E+00  0.2543528E-03
  0.8434343E+00  0.0000000E+00  0.1515152E-01 -0.1189816E-04  0.0000000E+00  0.2458230E-03
  0.8535354E+00  0.0000000E+00  0.1515152E-01 -0.1095659E-04  0.0000000E+00  0.2379634E-03
  0.8636364E+00  0.0000000E+00  0.1515152E-01 -0.1005446E-04  0.0000000E+00  0.2307435E-03
  0.8737374E+00  0.0000000E+00  0.1515152E-01 -0.9186978E-05  0.0000000E+00  0.2241364E-03
  0.8838384E+00  0.0000000E+00  0.1515152E-01 -0.8350025E-05  0.0000000E+00  0.2181185E-03
  0.8939394E+00  0.0000000E+00  0.1515152E-01 -0.7540028E-05  0.0000000E+00  0.2126692E-03
  0.9040404E+00  0.0000000E+00  0.1515152E-01 -0.6753847E-05  0.0000000E+00  0.2077699E-03
  0.9141414E+00  0.0000000E+00  0.1515152E-01 -0.5988671E-05  0.0000000E+00  0.2034045E-03
  0.9242424E+00  0.0000000E+00  0.1515152E-01 -0.5241930E-05  0.0000000E+00  0.1995588E-03
  0.9343435E+00  0.0000000E+00  0.1515152E-01 -0.4511222E-05  0.0000000E+00  0.1962202E-03
  0.9444444E+00  0.0000000E+00  0.1515152E-01 -0.3794263E-05  0.0000000E+00  0.1933782E-03
  0.9545454E+00  0.0000000E+00  0.1515152E-01 -0.3088843E-05  0.0000000E+00  0.1910235E-03
  0.9646465E+00  0.0000000E+00  0.1515152E-01 -0.2392800E-05  0.0000000E+00  0.1891487E-03
  0.9747475E+00  0.0000000E+00  0.1515152E-01 -0.1704008E-05  0.0000000E+00  0.1877477E-03
  0.9848485E+00  0.0000000E+00  0.1515152E-01 -0.1020363E-05  0.0000000E+00  0.1868161E-03
  0.9974747E+00  0.0000000E+00  0.1515152E-01 -0.3397833E-06  0.0000000E+00  0.1863510E-03
  0.5050505E-02  0.0000000E+00  0.2525252E-01  0.6702084E-06  0.0000000E+00  0.1641212E-03
  0.1515152E-01  0.0000000E+00  0.2525252E-01  0.2014549E-05  0.0000000E+00  0.1646673E-03
  0.2525252E-01  0.0000000E+00  0.2525252E-01  0.3370759E-05  0.0000000E+00  0.1657626E-03
  0.3535353E-01  0.0000000E+00  0.2525252E-01  0.4746987E-05  0.0000000E+00  0.1674135E-03
  0.4545455E-01  0.0000000E+00  0.2525252E-01  0.6151684E-05  0.0000000E+00  0.1696302E-03
  0.5555556E-01  0.0000000E+00  0.2525252E-01  0.7593720E-05  0.0000000E+00  0.1724260E-03
  0.6565657E-01  0.0000000E+00  0.2525252E-01  0.9082511E-05  0.0000000E+00  0.1758185E-03
  0.7575758E-01  0.0000000E+00  0.2525252E-01  0.1062817E-04  0.0000000E+00  0.1798289E-03
  0.8585858E-01  0.0000000E+00  0.2525252E-01  0.1224168E-04  0.0000000E+00  0.1844831E-03
  0.9595960E-01  0.0000000E+00  0.2525252E-01  0.1393514E-04  0.0000000E+00  0.1898116E-03
  0.1060606E+00  0.0000000E+00  0.2525252E-01  0.1572197E-04  0.0000000E+00  0.1958503E-03
  0.1161616E+00  0.0000000E+00  0.2525252E-01  0.1761732E-04  0.0000000E+00  0.2026406E-03
  0.1262626E+00  0.0000000E+00  0.2525252E-01  0.1963845E-04  0.0000000E+00  0.2102310E-03
  0.1363636E+00  0.0000000E+00  0.2525252E-01  0.2180530E-04  0.0000000E+00  0.2186773E-03
  0.1464646E+00  0.0000000E+00  0.2525252E-01  0.2414122E-04  0.0000000E+00  0.2280438E-03
  0.1565657E+00  0.0000000E+00  0.2525252E-01  0.2667395E-04  0.0000000E+00  0.2384053E-03
  0.1666667E+00  0.0000000E+00  0.2525252E-01  0.2943697E-04  0.0000000E+00  0.2498483E-03
  0.1767677E+00  0.0000000E+00  0.2525252E-01  0.3247136E-04  0.0000000E+00  0.2624737E-03
  0.1868687E+00  0.0000000E+00  0.2525252E-01  0.3582843E-04  0.0000000E+00  0.2763996E-03
  0.1969697E+00  0.0000000E+00  0.2525252E-01  0.3957366E-04  0.0000000E+00  0.2917652E-03
  0.2070707E+00  0.0000000E+00  0.2525252E-01  0.4379260E-04  0.0000000E+00  0.3087357E-03
  0.2171717E+00  0.0000000E+00  0.2525252E-01  0.4860000E-04  0.0000000E+00  0.3275083E-03
  0.2272727E+00  0.0000000E+00  0.2525252E-01  0.5415467E-04  0.0000000E+00  0.3483200E-03
  0.2373737E+00  0.0000000E+00  0.2525252E-01  0.6068393E-04  0.0000000E+00  0.3714553E-03
  0.2474747E+00  0.0000000E+00  0.2525252E-01  0.6852579E-04  0.0000000E+00  0.3972486E-03
  0.2575758E+00  0.0000000E+00  0.2525252E-01  0.7820521E-04  0.0000000E+00  0.4260575E-03
  0.2676768E+00  0.0000000E+00  0.2525252E-01  0.9058338E-04  0.0000000E+00  0.4581040E-03
  0.2777778E+00  0.0000000E+00  0.2525252E-01  0.1071950E-03  0.0000000E+00  0.4927187E-03
  0.2878788E+00  0.0000000E+00  0.2525252E-01  0.1311956E-03  0.0000000E+00  0.5247552E-03
  0.2979798E+00  0.0000000E+00  0.2525252E-01  0.1430906E-03  0.0000000E+00  0.5562200E-03
  0.3080808E+00  0.0000000E+00  0.2525252E-01  0.1410950E-03  0.0000000E+00  0.5993003E-03
  0.3181818E+00  0.0000000E+00  0.2525252E-01  0.1444891E-03  0.0000000E+00  0.6593753E-03
  0.3282828E+00  0.0000000E+00  0.2525252E-01  0.1675686E-03  0.0000000E+00  0.7320827E-03
  0.3383838E+00  0.0000000E+00  0.2525252E-01  0.2125076E-03  0.0000000E+00  0.8103517E-03
  0.3484848E+00  0.0000000E+00  0.2525252E-01  0.2622114E-03  0.0000000E+00  0.8881996E-03
  0.3585859E+00  0.0000000E+00  0.2525252E-01  0.3474622E-03  0.0000000E+00  0.9640526E-03
  0.3686869E+00  0.0000000E+00  0.2525252E-01  0.4840655E-03  0.0000000E+00  0.1034164E-02
  0.3787879E+00  0.0000000E+00  0.2525252E-01  0.5942091E-03  0.0000000E+00  0.1068647E-02
  0.3888889E+00  0.0000000E+00  0.2525252E-01  0.6367249E-03  0.0000000E+00  0.1129626E-02
  0.3989899E+00  0.0000000E+00  0.2525252E-01 -0.9399957E-05  0.0000000E+00  0.1440409E-02
  0.4090909E+00  0.0000000E+00  0.2525252E-01 -0.3112124E-03  0.0000000E+00  0.1692844E-02
  0.4191919E+00  0.0000000E+00  0.2525252E-01 -0.1466446E-03  0.0000000E+00  0.1682026E-02
  0.4292929E+00  0.0000000E+00  0.2525252E-01 -0.1189750E-04  0.0000000E+00  0.1667100E-02
  0.4393939E+00  0.0000000E+00  0.2525252E-01 -0.2222538E-04  0.0000000E+00  0.1681634E-02
  0.4494950E+00  0.0000000E+00  0.2525252E-01  0.2667719E-04  0.0000000E+00  0.1677315E-02
  0.4595959E+00  0.0000000E+00  0.2525252E-01 -0.7946604E-04  0.0000000E+00  0.1660245E-02
  0.4696970E+00  0.0000000E+00  0.2525252E-01  0.1793220E-04  0.0000000E+00  0.1678038E-02
  0.4797980E+00  0.0000000E+00  0.2525252E-01  0.1049831E-03  0.0000000E+00  0.1709739E-02
  0.4898990E+00  0.0000000E+00  0.2525252E-01  0.1481372E-03  0.0000000E+00  0.1775185E-02
  0.5000000E+00  0.0000000E+00  0.2525252E-01  0.1361620E-04  0.0000000E+00  0.1774726E-02
  0.5101010E+00  0.0000000E+00  0.2525252E-01 -0.3072501E-03  0.0000000E+00  0.1660681E-02
  0.5202020E+00  0.0000000E+00  0.2525252E-01 -0.2886293E-03  0.0000000E+00  0.1551458E-02
  0.5303030E+00  0.0000000E+00  0.2525252E-01 -0.2346290E-03  0.0000000E+00  0.1467792E-02
  0.5404040E+00  0.0000000E+00  0.2525252E-01 -0.2031235E-03  0.0000000E+00  0.1384296E-02
  0.5505050E+00  0.0000000E+00  0.2525252E-01 -0.2113510E-03  0.0000000E+00  0.1296165E-02
  0.5606061E+00  0.0000000E+00  0.2525252E-01 -0.1783329E-03  0.0000000E+00  0.1186635E-02
  0.5707071E+00  0.0000000E+00  0.2525252E-01 -0.2316246E-03  0.0000000E+00  0.1024609E-02
  0.5808081E+00  0.0000000E+00  0.2525252E-01 -0.2637518E-03  0.0000000E+00  0.9078673E-03
  0.5909091E+00  0.0000000E+00  0.2525252E-01 -0.2121743E-03  0.0000000E+00  0.8654149E-03
  0.6010101E+00  0.0000000E+00  0.2525252E-01 -0.1719316E-03  0.0000000E+00  0.8134396E-03
  0.6111111E+00  0.0000000E+00  0.2525252E-01 -0.1428165E-03  0.0000000E+00  0.7601221E-03
  0.6212121E+00  0.0000000E+00  0.2525252E-01 -0.1214289E-03  0.0000000E+00  0.7104308E-03
  0.6313131E+00  0.0000000E+00  0.2525252E-01 -0.1053466E-03  0.0000000E+00  0.6656725E-03
  0.6414142E+00  0.0000000E+00  0.2525252E-01 -0.9301916E-04  0.0000000E+00  0.6255816E-03
  0.6515151E+00  0.0000000E+00  0.2525252E-01 -0.8340379E-04  0.0000000E+00  0.5894514E-03
  0.6616161E+00  0.0000000E+00  0.2525252E-01 -0.7575038E-04  0.0000000E+00  0.5565746E-03
  0.6717172E+00  0.0000000E+00  0.2525252E-01 -0.6949732E-04  0.0000000E+00  0.5263793E-03
  0.6818182E+00  0.0000000E+00  0.2525252E-01 -0.6422250E-04  0.0000000E+00  0.4984488E-03
  0.6919192E+00  0.0000000E+00  0.2525252E-01 -0.5961674E-04  0.0000000E+00  0.4724993E-03
  0.7020202E+00  0.0000000E+00  0.2525252E-01 -0.5546815E-04  0.0000000E+00  0.4483453E-03
  0.7121212E+00  0.0000000E+00  0.2525252E-01 -0.5164787E-04  0.0000000E+00  0.4258612E-03
  0.7222222E+00  0.0000000E+00  0.2525252E-01 -0.4808774E-04  0.0000000E+00  0.4049486E-03
  0.7323232E+00  0.0000000E+00  0.2525252E-01 -0.4475622E-04  0.0000000E+00  0.3855166E-03
  0.7424242E+00  0.0000000E+00  0.2525252E-01 -0.4163925E-04  0.0000000E+00  0.3674737E-03
  0.7525253E+00  0.0000000E+00  0.2525252E-01 -0.3872839E-04  0.0000000E+00  0.3507273E-03
  0.7626263E+00  0.0000000E+00  0.2525252E-01 -0.3601490E-04  0.0000000E+00  0.3351854E-03
  0.7727273E+00  0.0000000E+00  0.2525252E-01 -0.3348765E-04  0.0000000E+00  0.3207603E-03
  0.7828283E+00  0.0000000E+00  0.2525252E-01 -0.3113307E-04  0.0000000E+00  0.3073699E-03
  0.7929293E+00  0.0000000E+00  0.2525252E-01 -0.2893590E-04  0.0000000E+00  0.2949397E-03
  0.8030303E+00  0.0000000E+00  0.2525252E-01 -0.2688021E-04  0.0000000E+00  0.2834027E-03
  0.8131313E+00  0.0000000E+00  0.2525252E-01 -0.2495022E-04  0.0000000E+00  0.2727000E-03
  0.8232324E+00  0.0000000E+00  0.2525252E-01 -0.2313097E-04  0.0000000E+00  0.2627797E-03
  0.8333333E+00  0.0000000E+00  0.2525252E-01 -0.2140880E-04  0.0000000E+00  0.2535969E-03
  0.8434343E+00  0.0000000E+00  0.2525252E-01 -0.1977149E-04  0.0000000E+00  0.2451124E-03
  0.8535354E+00  0.0000000E+00  0.2525252E-01 -0.1820838E-04  0.0000000E+00  0.2372920E-03
  0.8636364E+00  0.0000000E+00  0.2525252E-01 -0.1671028E-04  0.0000000E+00  0.2301061E-03
  0.8737374E+00  0.0000000E+00  0.2525252E-01 -0.1526930E-04  0.0000000E+00  0.2235287E-03
  0.8838384E+00  0.0000000E+00  0.2525252E-01 -0.1387869E-04  0.0000000E+00  0.2175369E-03
  0.8939394E+00  0.0000000E+00  0.2525252E-01 -0.1253260E-04  0.0000000E+00  0.2121103E-03
  0.9040404E+00  0.0000000E+00  0.2525252E-01 -0.1122591E-04  0.0000000E+00  0.2072312E-03
  0.9141414E+00  0.0000000E+00  0.2525252E-01 -0.9954018E-05  0.0000000E+00  0.2028835E-03
  0.9242424E+00  0.0000000E+00  0.2525252E-01 -0.8712713E-05  0.0000000E+00  0.1990532E-03
  0.9343435E+00  0.0000000E+00  0.2525252E-01 -0.7498051E-05  0.0000000E+00  0.1957281E-03
  0.9444444E+00  0.0000000E+00  0.2525252E-01 -0.6306265E-05  0.0000000E+00  0.1928974E-03
  0.9545454E+00  0.0000000E+00  0.2525252E-01 -0.5133702E-05  0.0000000E+00  0.1905522E-03
  0.9646465E+00  0.0000000E+00  0.2525252E-01 -0.3976781E-05  0.0000000E+00  0.1886848E-03
  0.9747475E+00  0.0000000E+00  0.2525252E-01 -0.2831967E-05  0.0000000E+00  0.1872895E-03
  0.9848485E+00  0.0000000E+00  0.2525252E-01 -0.1695759E-05  0.0000000E+00  0.1863616E-03
  0.9974747E+00  0.0000000E+00  0.2525252E-01 -0.5646861E-06  0.0000000E+00  0.1858984E-03
  0.5050505E-02  0.0000000E+00  0.3535353E-01  0.9328039E-06  0.0000000E+00  0.1632935E-03
  0.1515152E-01  0.0000000E+00  0.3535353E-01  0.2803864E-05  0.0000000E+00  0.1638325E-03
  0.2525252E-01  0.0000000E+00  0.3535353E-01  0.4691399E-05  0.0000000E+00  0.1649134E-03
  0.3535353E-01  0.0000000E+00  0.3535353E-01  0.6606698E-05  0.0000000E+00  0.1665425E-03
  0.4545455E-01  0.0000000E+00  0.3535353E-01  0.8561458E-05  0.0000000E+00  0.1687295E-03
  0.5555556E-01  0.0000000E+00  0.3535353E-01  0.1056794E-04  0.0000000E+00  0.1714873E-03
  0.6565657E-01  0.0000000E+00  0.3535353E-01  0.1263915E-04  0.0000000E+00  0.1748329E-03
  0.7575758E-01  0.0000000E+00  0.3535353E-01  0.1478902E-04  0.0000000E+00  0.1787868E-03
  0.8585858E-01  0.0000000E+00  0.3535353E-01  0.1703268E-04  0.0000000E+00  0.1833739E-03
  0.9595960E-01  0.0000000E+00  0.3535353E-01  0.1938672E-04  0.0000000E+00  0.1886234E-03
  0.1060606E+00  0.0000000E+00  0.3535353E-01  0.2186952E-04  0.0000000E+00  0.1945698E-03
  0.1161616E+00  0.0000000E+00  0.3535353E-01  0.2450175E-04  0.0000000E+00  0.2012526E-03
  0.1262626E+00  0.0000000E+00  0.3535353E-01  0.2730683E-04  0.0000000E+00  0.2087178E-03
  0.1363636E+00  0.0000000E+00  0.3535353E-01  0.3031172E-04  0.0000000E+00  0.2170179E-03
  0.1464646E+00  0.0000000E+00  0.3535353E-01  0.3354780E-04  0.0000000E+00  0.2262133E-03
  0.1565657E+00  0.0000000E+00  0.3535353E-01  0.3705209E-04  0.0000000E+00  0.2363730E-03
  0.1666667E+00  0.0000000E+00  0.3535353E-01  0.4086890E-04  0.0000000E+00  0.2475766E-03
  0.1767677E+00  0.0000000E+00  0.3535353E-01  0.4505203E-04  0.0000000E+00  0.2599149E-03
  0.1868687E+00  0.0000000E+00  0.3535353E-01  0.4966789E-04  0.0000000E+00  0.2734925E-03
  0.1969697E+00  0.0000000E+00  0.3535353E-01  0.5479986E-04  0.0000000E+00  0.2884297E-03
  0.2070707E+00  0.0000000E+00  0.3535353E-01  0.6055462E-04  0.0000000E+00  0.3048643E-03
  0.2171717E+00  0.0000000E+00  0.3535353E-01  0.6707167E-04  0.0000000E+00  0.3229536E-03
  0.2272727E+00  0.0000000E+00  0.3535353E-01  0.7453752E-04  0.0000000E+00  0.3428750E-03
  0.2373737E+00  0.0000000E+00  0.3535353E-01  0.8320721E-04  0.0000000E+00  0.3648224E-03
  0.2474747E+00  0.0000000E+00  0.3535353E-01  0.9343576E-04  0.0000000E+00  0.3889941E-03
  0.2575758E+00  0.0000000E+00  0.3535353E-01  0.1057184E-03  0.0000000E+00  0.4155616E-03
  0.2676768E+00  0.0000000E+00  0.3535353E-01  0.1207149E-03  0.0000000E+00  0.4445990E-03
  0.2777778E+00  0.0000000E+00  0.3535353E-01  0.1391175E-03  0.0000000E+00  0.4759789E-03
  0.2878788E+00  0.0000000E+00  0.3535353E-01  0.1606804E-03  0.0000000E+00  0.5095584E-03
  0.2979798E+00  0.0000000E+00  0.3535353E-01  0.1791699E-03  0.0000000E+00  0.5484399E-03