title = "dataset water"
variables = "x", "y", "z", "vx", "vy", "vz"
zone t = "velocities, solution time =  2.500E+01 days        " i =   99, j =   99, k =    1,  f=point
  0.5050505E-02  0.0000000E+00  0.5050505E-02  0.8215205E-09  0.0000000E+00 -0.1198145E-04
  0.1515152E-01  0.0000000E+00  0.5050505E-02  0.2466549E-08  0.0000000E+00 -0.1197816E-04
  0.2525252E-01  0.0000000E+00  0.5050505E-02  0.4117531E-08  0.0000000E+00 -0.1197156E-04
  0.3535353E-01  0.0000000E+00  0.5050505E-02  0.5778435E-08  0.0000000E+00 -0.1196165E-04
  0.4545455E-01  0.0000000E+00  0.5050505E-02  0.7453232E-08  0.0000000E+00 -0.1194840E-04
  0.5555556E-01  0.0000000E+00  0.5050505E-02  0.9145886E-08  0.0000000E+00 -0.1193178E-04
  0.6565657E-01  0.0000000E+00  0.5050505E-02  0.1086036E-07  0.0000000E+00 -0.1191174E-04
  0.7575758E-01  0.0000000E+00  0.5050505E-02  0.1260060E-07  0.0000000E+00 -0.1188825E-04
  0.8585858E-01  0.0000000E+00  0.5050505E-02  0.1437054E-07  0.0000000E+00 -0.1186124E-04
  0.9595960E-01  0.0000000E+00  0.5050505E-02  0.1617407E-07  0.0000000E+00 -0.1183065E-04
  0.1060606E+00  0.0000000E+00  0.5050505E-02  0.1801505E-07  0.0000000E+00 -0.1179641E-04
  0.1161616E+00  0.0000000E+00  0.5050505E-02  0.1989727E-07  0.0000000E+00 -0.1175844E-04
  0.1262626E+00  0.0000000E+00  0.5050505E-02  0.2182442E-07  0.0000000E+00 -0.1171666E-04
  0.1363636E+00  0.0000000E+00  0.5050505E-02  0.2380006E-07  0.0000000E+00 -0.1167097E-04
  0.1464646E+00  0.0000000E+00  0.5050505E-02  0.2582757E-07  0.0000000E+00 -0.1162127E-04
  0.1565657E+00  0.0000000E+00  0.5050505E-02  0.2791011E-07  0.0000000E+00 -0.1156746E-04
  0.1666667E+00  0.0000000E+00  0.5050505E-02  0.3005050E-07  0.0000000E+00 -0.1150942E-04
  0.1767677E+00  0.0000000E+00  0.5050505E-02  0.3225119E-07  0.0000000E+00 -0.1144703E-04
  0.1868687E+00  0.0000000E+00  0.5050505E-02  0.3451408E-07  0.0000000E+00 -0.1138017E-04
  0.1969697E+00  0.0000000E+00  0.5050505E-02  0.3684044E-07  0.0000000E+00 -0.1130872E-04
  0.2070707E+00  0.0000000E+00  0.5050505E-02  0.3923071E-07  0.0000000E+00 -0.1123254E-04
  0.2171717E+00  0.0000000E+00  0.5050505E-02  0.4168428E-07  0.0000000E+00 -0.1115151E-04
  0.2272727E+00  0.0000000E+00  0.5050505E-02  0.4419929E-07  0.0000000E+00 -0.1106551E-04
  0.2373737E+00  0.0000000E+00  0.5050505E-02  0.4677231E-07  0.0000000E+00 -0.1097442E-04
  0.2474747E+00  0.0000000E+00  0.5050505E-02  0.4939801E-07  0.0000000E+00 -0.1087812E-04
  0.2575758E+00  0.0000000E+00  0.5050505E-02  0.5206880E-07  0.0000000E+00 -0.1077652E-04
  0.2676768E+00  0.0000000E+00  0.5050505E-02  0.5477435E-07  0.0000000E+00 -0.1066954E-04
  0.2777778E+00  0.0000000E+00  0.5050505E-02  0.5750114E-07  0.0000000E+00 -0.1055712E-04
  0.2878788E+00  0.0000000E+00  0.5050505E-02  0.6023189E-07  0.0000000E+00 -0.1043923E-04
  0.2979798E+00  0.0000000E+00  0.5050505E-02  0.6294499E-07  0.0000000E+00 -0.1031590E-04
  0.3080808E+00  0.0000000E+00  0.5050505E-02  0.6561396E-07  0.0000000E+00 -0.1018718E-04
  0.3181818E+00  0.0000000E+00  0.5050505E-02  0.6820676E-07  0.0000000E+00 -0.1005319E-04
  0.3282828E+00  0.0000000E+00  0.5050505E-02  0.7068535E-07  0.0000000E+00 -0.9914132E-05
  0.3383838E+00  0.0000000E+00  0.5050505E-02  0.7300517E-07  0.0000000E+00 -0.9770270E-05
  0.3484848E+00  0.0000000E+00  0.5050505E-02  0.7511488E-07  0.0000000E+00 -0.9621975E-05
  0.3585859E+00  0.0000000E+00  0.5050505E-02  0.7695628E-07  0.0000000E+00 -0.9469727E-05
  0.3686869E+00  0.0000000E+00  0.5050505E-02  0.7846461E-07  0.0000000E+00 -0.9314128E-05
  0.3787879E+00  0.0000000E+00  0.5050505E-02  0.7956922E-07  0.0000000E+00 -0.9155917E-05
  0.3888889E+00  0.0000000E+00  0.5050505E-02  0.8019484E-07  0.0000000E+00 -0.8995976E-05
  0.3989899E+00  0.0000000E+00  0.5050505E-02  0.8026341E-07  0.0000000E+00 -0.8835344E-05
  0.4090909E+00  0.0000000E+00  0.5050505E-02  0.7969666E-07  0.0000000E+00 -0.8675214E-05
  0.4191919E+00  0.0000000E+00  0.5050505E-02  0.7841942E-07  0.0000000E+00 -0.8516932E-05
  0.4292929E+00  0.0000000E+00  0.5050505E-02  0.7636348E-07  0.0000000E+00 -0.8361990E-05
  0.4393939E+00  0.0000000E+00  0.5050505E-02  0.7347217E-07  0.0000000E+00 -0.8212004E-05
  0.4494950E+00  0.0000000E+00  0.5050505E-02  0.6970505E-07  0.0000000E+00 -0.8068685E-05
  0.4595959E+00  0.0000000E+00  0.5050505E-02  0.6504263E-07  0.0000000E+00 -0.7933806E-05
  0.4696970E+00  0.0000000E+00  0.5050505E-02  0.5949054E-07  0.0000000E+00 -0.7809153E-05
  0.4797980E+00  0.0000000E+00  0.5050505E-02  0.5308269E-07  0.0000000E+00 -0.7696473E-05
  0.4898990E+00  0.0000000E+00  0.5050505E-02  0.4588288E-07  0.0000000E+00 -0.7597415E-05
  0.5000000E+00  0.0000000E+00  0.5050505E-02  0.3798457E-07  0.0000000E+00 -0.7513471E-05
  0.5101010E+00  0.0000000E+00  0.5050505E-02  0.2950850E-07  0.0000000E+00 -0.7445916E-05
  0.5202020E+00  0.0000000E+00  0.5050505E-02  0.2059820E-07  0.0000000E+00 -0.7395764E-05
  0.5303030E+00  0.0000000E+00  0.5050505E-02  0.1141375E-07  0.0000000E+00 -0.7363723E-05
  0.5404040E+00  0.0000000E+00  0.5050505E-02  0.2124264E-08  0.0000000E+00 -0.7350172E-05
  0.5505050E+00  0.0000000E+00  0.5050505E-02 -0.7100155E-08  0.0000000E+00 -0.7355153E-05
  0.5606061E+00  0.0000000E+00  0.5050505E-02 -0.1609628E-07  0.0000000E+00 -0.7378370E-05
  0.5707071E+00  0.0000000E+00  0.5050505E-02 -0.2471473E-07  0.0000000E+00 -0.7419218E-05
  0.5808081E+00  0.0000000E+00  0.5050505E-02 -0.3282548E-07  0.0000000E+00 -0.7476811E-05
  0.5909091E+00  0.0000000E+00  0.5050505E-02 -0.4032161E-07  0.0000000E+00 -0.7550025E-05
  0.6010101E+00  0.0000000E+00  0.5050505E-02 -0.4712128E-07  0.0000000E+00 -0.7637549E-05
  0.6111111E+00  0.0000000E+00  0.5050505E-02 -0.5316797E-07  0.0000000E+00 -0.7737932E-05
  0.6212121E+00  0.0000000E+00  0.5050505E-02 -0.5842938E-07  0.0000000E+00 -0.7849636E-05
  0.6313131E+00  0.0000000E+00  0.5050505E-02 -0.6289517E-07  0.0000000E+00 -0.7971077E-05
  0.6414142E+00  0.0000000E+00  0.5050505E-02 -0.6657402E-07  0.0000000E+00 -0.8100673E-05
  0.6515151E+00  0.0000000E+00  0.5050505E-02 -0.6949036E-07  0.0000000E+00 -0.8236873E-05
  0.6616161E+00  0.0000000E+00  0.5050505E-02 -0.7168098E-07  0.0000000E+00 -0.8378187E-05
  0.6717172E+00  0.0000000E+00  0.5050505E-02 -0.7319176E-07  0.0000000E+00 -0.8523209E-05
  0.6818182E+00  0.0000000E+00  0.5050505E-02 -0.7407474E-07  0.0000000E+00 -0.8670629E-05
  0.6919192E+00  0.0000000E+00  0.5050505E-02 -0.7438556E-07  0.0000000E+00 -0.8819248E-05
  0.7020202E+00  0.0000000E+00  0.5050505E-02 -0.7418125E-07  0.0000000E+00 -0.8967975E-05
  0.7121212E+00  0.0000000E+00  0.5050505E-02 -0.7351855E-07  0.0000000E+00 -0.9115838E-05
  0.7222222E+00  0.0000000E+00  0.5050505E-02 -0.7245250E-07  0.0000000E+00 -0.9261972E-05
  0.7323232E+00  0.0000000E+00  0.5050505E-02 -0.7103551E-07  0.0000000E+00 -0.9405623E-05
  0.7424242E+00  0.0000000E+00  0.5050505E-02 -0.6931662E-07  0.0000000E+00 -0.9546137E-05
  0.7525253E+00  0.0000000E+00  0.5050505E-02 -0.6734111E-07  0.0000000E+00 -0.9682955E-05
  0.7626263E+00  0.0000000E+00  0.5050505E-02 -0.6515023E-07  0.0000000E+00 -0.9815604E-05
  0.7727273E+00  0.0000000E+00  0.5050505E-02 -0.6278115E-07  0.0000000E+00 -0.9943689E-05
  0.7828283E+00  0.0000000E+00  0.5050505E-02 -0.6026700E-07  0.0000000E+00 -0.1006689E-04
  0.7929293E+00  0.0000000E+00  0.5050505E-02 -0.5763702E-07  0.0000000E+00 -0.1018494E-04
  0.8030303E+00  0.0000000E+00  0.5050505E-02 -0.5491677E-07  0.0000000E+00 -0.1029763E-04
  0.8131313E+00  0.0000000E+00  0.5050505E-02 -0.5212834E-07  0.0000000E+00 -0.1040481E-04
  0.8232324E+00  0.0000000E+00  0.5050505E-02 -0.4929062E-07  0.0000000E+00 -0.1050636E-04
  0.8333333E+00  0.0000000E+00  0.5050505E-02 -0.4641959E-07  0.0000000E+00 -0.1060219E-04
  0.8434343E+00  0.0000000E+00  0.5050505E-02 -0.4352856E-07  0.0000000E+00 -0.1069226E-04
  0.8535354E+00  0.0000000E+00  0.5050505E-02 -0.4062847E-07  0.0000000E+00 -0.1077653E-04
  0.8636364E+00  0.0000000E+00  0.5050505E-02 -0.3772809E-07  0.0000000E+00 -0.1085499E-04
  0.8737374E+00  0.0000000E+00  0.5050505E-02 -0.3483432E-07  0.0000000E+00 -0.1092765E-04
  0.8838384E+00  0.0000000E+00  0.5050505E-02 -0.3195233E-07  0.0000000E+00 -0.1099452E-04
  0.8939394E+00  0.0000000E+00  0.5050505E-02 -0.2908586E-07  0.0000000E+00 -0.1105564E-04
  0.9040404E+00  0.0000000E+00  0.5050505E-02 -0.2623731E-07  0.0000000E+00 -0.1111104E-04
  0.9141414E+00  0.0000000E+00  0.5050505E-02 -0.2340797E-07  0.0000000E+00 -0.1116075E-04
  0.9242424E+00  0.0000000E+00  0.5050505E-02 -0.2059817E-07  0.0000000E+00 -0.1120482E-04
  0.9343435E+00  0.0000000E+00  0.5050505E-02 -0.1780740E-07  0.0000000E+00 -0.1124328E-04
  0.9444444E+00  0.0000000E+00  0.5050505E-02 -0.1503443E-07  0.0000000E+00 -0.1127617E-04
  0.9545454E+00  0.0000000E+00  0.5050505E-02 -0.1227746E-07  0.0000000E+00 -0.1130352E-04
  0.9646465E+00  0.0000000E+00  0.5050505E-02 -0.9534211E-08  0.0000000E+00 -0.1132536E-04
  0.9747475E+00  0.0000000E+00  0.5050505E-02 -0.6802015E-08  0.0000000E+00 -0.1134172E-04
  0.9848485E+00  0.0000000E+00  0.5050505E-02 -0.4077916E-08  0.0000000E+00 -0.1135261E-04
  0.9974747E+00  0.0000000E+00  0.5050505E-02 -0.1358755E-08  0.0000000E+00 -0.1135806E-04
  0.5050505E-02  0.0000000E+00  0.1515152E-01  0.2466810E-08  0.0000000E+00 -0.1195829E-04
  0.1515152E-01  0.0000000E+00  0.1515152E-01  0.7406409E-08  0.0000000E+00 -0.1195497E-04
  0.2525252E-01  0.0000000E+00  0.1515152E-01  0.1236393E-07  0.0000000E+00 -0.1194834E-04
  0.3535353E-01  0.0000000E+00  0.1515152E-01  0.1735133E-07  0.0000000E+00 -0.1193838E-04
  0.4545455E-01  0.0000000E+00  0.1515152E-01  0.2238054E-07  0.0000000E+00 -0.1192505E-04
  0.5555556E-01  0.0000000E+00  0.1515152E-01  0.2746353E-07  0.0000000E+00 -0.1190833E-04
  0.6565657E-01  0.0000000E+00  0.1515152E-01  0.3261220E-07  0.0000000E+00 -0.1188818E-04
  0.7575758E-01  0.0000000E+00  0.1515152E-01  0.3783848E-07  0.0000000E+00 -0.1186455E-04
  0.8585858E-01  0.0000000E+00  0.1515152E-01  0.4315419E-07  0.0000000E+00 -0.1183738E-04
  0.9595960E-01  0.0000000E+00  0.1515152E-01  0.4857111E-07  0.0000000E+00 -0.1180661E-04
  0.1060606E+00  0.0000000E+00  0.1515152E-01  0.5410086E-07  0.0000000E+00 -0.1177217E-04
  0.1161616E+00  0.0000000E+00  0.1515152E-01  0.5975488E-07  0.0000000E+00 -0.1173397E-04
  0.1262626E+00  0.0000000E+00  0.1515152E-01  0.6554434E-07  0.0000000E+00 -0.1169194E-04
  0.1363636E+00  0.0000000E+00  0.1515152E-01  0.7148002E-07  0.0000000E+00 -0.1164596E-04
  0.1464646E+00  0.0000000E+00  0.1515152E-01  0.7757219E-07  0.0000000E+00 -0.1159595E-04
  0.1565657E+00  0.0000000E+00  0.1515152E-01  0.8383041E-07  0.0000000E+00 -0.1154179E-04
  0.1666667E+00  0.0000000E+00  0.1515152E-01  0.9026336E-07  0.0000000E+00 -0.1148337E-04
  0.1767677E+00  0.0000000E+00  0.1515152E-01  0.9687849E-07  0.0000000E+00 -0.1142056E-04
  0.1868687E+00  0.0000000E+00  0.1515152E-01  0.1036818E-06  0.0000000E+00 -0.1135324E-04
  0.1969697E+00  0.0000000E+00  0.1515152E-01  0.1106772E-06  0.0000000E+00 -0.1128129E-04
  0.2070707E+00  0.0000000E+00  0.1515152E-01  0.1178663E-06  0.0000000E+00 -0.1120456E-04
  0.2171717E+00  0.0000000E+00  0.1515152E-01  0.1252475E-06  0.0000000E+00 -0.1112293E-04
  0.2272727E+00  0.0000000E+00  0.1515152E-01  0.1328157E-06  0.0000000E+00 -0.1103627E-04
  0.2373737E+00  0.0000000E+00  0.1515152E-01  0.1405609E-06  0.0000000E+00 -0.1094445E-04
  0.2474747E+00  0.0000000E+00  0.1515152E-01  0.1484674E-06  0.0000000E+00 -0.1084735E-04
  0.2575758E+00  0.0000000E+00  0.1515152E-01  0.1565129E-06  0.0000000E+00 -0.1074488E-04
  0.2676768E+00  0.0000000E+00  0.1515152E-01  0.1646670E-06  0.0000000E+00 -0.1063693E-04
  0.2777778E+00  0.0000000E+00  0.1515152E-01  0.1728893E-06  0.0000000E+00 -0.1052345E-04
  0.2878788E+00  0.0000000E+00  0.1515152E-01  0.1811287E-06  0.0000000E+00 -0.1040441E-04
  0.2979798E+00  0.0000000E+00  0.1515152E-01  0.1893207E-06  0.0000000E+00 -0.1027980E-04
  0.3080808E+00  0.0000000E+00  0.1515152E-01  0.1973861E-06  0.0000000E+00 -0.1014968E-04
  0.3181818E+00  0.0000000E+00  0.1515152E-01  0.2052292E-06  0.0000000E+00 -0.1001415E-04
  0.3282828E+00  0.0000000E+00  0.1515152E-01  0.2127359E-06  0.0000000E+00 -0.9873396E-05
  0.3383838E+00  0.0000000E+00  0.1515152E-01  0.2197724E-06  0.0000000E+00 -0.9727679E-05
  0.3484848E+00  0.0000000E+00  0.1515152E-01  0.2261842E-06  0.0000000E+00 -0.9577358E-05
  0.3585859E+00  0.0000000E+00  0.1515152E-01  0.2317957E-06  0.0000000E+00 -0.9422902E-05
  0.3686869E+00  0.0000000E+00  0.1515152E-01  0.2364112E-06  0.0000000E+00 -0.9264908E-05
  0.3787879E+00  0.0000000E+00  0.1515152E-01  0.2398169E-06  0.0000000E+00 -0.9104111E-05
  0.3888889E+00  0.0000000E+00  0.1515152E-01  0.2417840E-06  0.0000000E+00 -0.8941398E-05
  0.3989899E+00  0.0000000E+00  0.1515152E-01  0.2420750E-06  0.0000000E+00 -0.8777815E-05
  0.4090909E+00  0.0000000E+00  0.1515152E-01  0.2404508E-06  0.0000000E+00 -0.8614575E-05
  0.4191919E+00  0.0000000E+00  0.1515152E-01  0.2366810E-06  0.0000000E+00 -0.8453050E-05
  0.4292929E+00  0.0000000E+00  0.1515152E-01  0.2305558E-06  0.0000000E+00 -0.8294771E-05
  0.4393939E+00  0.0000000E+00  0.1515152E-01  0.2218995E-06  0.0000000E+00 -0.8141400E-05
  0.4494950E+00  0.0000000E+00  0.1515152E-01  0.2105856E-06  0.0000000E+00 -0.7994712E-05
  0.4595959E+00  0.0000000E+00  0.1515152E-01  0.1965514E-06  0.0000000E+00 -0.7856547E-05
  0.4696970E+00  0.0000000E+00  0.1515152E-01  0.1798107E-06  0.0000000E+00 -0.7728769E-05
  0.4797980E+00  0.0000000E+00  0.1515152E-01  0.1604639E-06  0.0000000E+00 -0.7613207E-05
  0.4898990E+00  0.0000000E+00  0.1515152E-01  0.1387035E-06  0.0000000E+00 -0.7511590E-05
  0.5000000E+00  0.0000000E+00  0.1515152E-01  0.1148136E-06  0.0000000E+00 -0.7425486E-05
  0.5101010E+00  0.0000000E+00  0.1515152E-01  0.8916229E-07  0.0000000E+00 -0.7356238E-05
  0.5202020E+00  0.0000000E+00  0.1515152E-01  0.6218820E-07  0.0000000E+00 -0.7304909E-05
  0.5303030E+00  0.0000000E+00  0.1515152E-01  0.3438102E-07  0.0000000E+00 -0.7272242E-05
  0.5404040E+00  0.0000000E+00  0.1515152E-01  0.6258136E-08  0.0000000E+00 -0.7258627E-05
  0.5505050E+00  0.0000000E+00  0.1515152E-01 -0.2166040E-07  0.0000000E+00 -0.7264097E-05
  0.5606061E+00  0.0000000E+00  0.1515152E-01 -0.4887623E-07  0.0000000E+00 -0.7288330E-05
  0.5707071E+00  0.0000000E+00  0.1515152E-01 -0.7493420E-07  0.0000000E+00 -0.7330675E-05
  0.5808081E+00  0.0000000E+00  0.1515152E-01 -0.9943924E-07  0.0000000E+00 -0.7390188E-05
  0.5909091E+00  0.0000000E+00  0.1515152E-01 -0.1220678E-06  0.0000000E+00 -0.7465682E-05
  0.6010101E+00  0.0000000E+00  0.1515152E-01 -0.1425734E-06  0.0000000E+00 -0.7555773E-05
  0.6111111E+00  0.0000000E+00  0.1515152E-01 -0.1607876E-06  0.0000000E+00 -0.7658942E-05
  0.6212121E+00  0.0000000E+00  0.1515152E-01 -0.1766156E-06  0.0000000E+00 -0.7773582E-05
  0.6313131E+00  0.0000000E+00  0.1515152E-01 -0.1900297E-06  0.0000000E+00 -0.7898048E-05
  0.6414142E+00  0.0000000E+00  0.1515152E-01 -0.2010597E-06  0.0000000E+00 -0.8030702E-05
  0.6515151E+00  0.0000000E+00  0.1515152E-01 -0.2097828E-06  0.0000000E+00 -0.8169947E-05
  0.6616161E+00  0.0000000E+00  0.1515152E-01 -0.2163134E-06  0.0000000E+00 -0.8314254E-05
  0.6717172E+00  0.0000000E+00  0.1515152E-01 -0.2207928E-06  0.0000000E+00 -0.8462184E-05
  0.6818182E+00  0.0000000E+00  0.1515152E-01 -0.2233805E-06  0.0000000E+00 -0.8612407E-05
  0.6919192E+00  0.0000000E+00  0.1515152E-01 -0.2242461E-06  0.0000000E+00 -0.8763702E-05
  0.7020202E+00  0.0000000E+00  0.1515152E-01 -0.2235632E-06  0.0000000E+00 -0.8914970E-05
  0.7121212E+00  0.0000000E+00  0.1515152E-01 -0.2215041E-06  0.0000000E+00 -0.9065229E-05
  0.7222222E+00  0.0000000E+00  0.1515152E-01 -0.2182354E-06  0.0000000E+00 -0.9213614E-05
  0.7323232E+00  0.0000000E+00  0.1515152E-01 -0.2139155E-06  0.0000000E+00 -0.9359368E-05
  0.7424242E+00  0.0000000E+00  0.1515152E-01 -0.2086924E-06  0.0000000E+00 -0.9501841E-05
  0.7525253E+00  0.0000000E+00  0.1515152E-01 -0.2027026E-06  0.0000000E+00 -0.9640478E-05
  0.7626263E+00  0.0000000E+00  0.1515152E-01 -0.1960702E-06  0.0000000E+00 -0.9774810E-05
  0.7727273E+00  0.0000000E+00  0.1515152E-01 -0.1889069E-06  0.0000000E+00 -0.9904450E-05
  0.7828283E+00  0.0000000E+00  0.1515152E-01 -0.1813123E-06  0.0000000E+00 -0.1002908E-04
  0.7929293E+00  0.0000000E+00  0.1515152E-01 -0.1733740E-06  0.0000000E+00 -0.1014845E-04
  0.8030303E+00  0.0000000E+00  0.1515152E-01 -0.1651685E-06  0.0000000E+00 -0.1026235E-04
  0.8131313E+00  0.0000000E+00  0.1515152E-01 -0.1567621E-06  0.0000000E+00 -0.1037064E-04
  0.8232324E+00  0.0000000E+00  0.1515152E-01 -0.1482112E-06  0.0000000E+00 -0.1047320E-04
  0.8333333E+00  0.0000000E+00  0.1515152E-01 -0.1395635E-06  0.0000000E+00 -0.1056995E-04
  0.8434343E+00  0.0000000E+00  0.1515152E-01 -0.1308587E-06  0.0000000E+00 -0.1066086E-04
  0.8535354E+00  0.0000000E+00  0.1515152E-01 -0.1221295E-06  0.0000000E+00 -0.1074589E-04
  0.8636364E+00  0.0000000E+00  0.1515152E-01 -0.1134018E-06  0.0000000E+00 -0.1082504E-04
  0.8737374E+00  0.0000000E+00  0.1515152E-01 -0.1046962E-06  0.0000000E+00 -0.1089832E-04
  0.8838384E+00  0.0000000E+00  0.1515152E-01 -0.9602794E-07  0.0000000E+00 -0.1096575E-04
  0.8939394E+00  0.0000000E+00  0.1515152E-01 -0.8740804E-07  0.0000000E+00 -0.1102737E-04
  0.9040404E+00  0.0000000E+00  0.1515152E-01 -0.7884352E-07  0.0000000E+00 -0.1108321E-04
  0.9141414E+00  0.0000000E+00  0.1515152E-01 -0.7033807E-07  0.0000000E+00 -0.1113332E-04
  0.9242424E+00  0.0000000E+00  0.1515152E-01 -0.6189246E-07  0.0000000E+00 -0.1117772E-04
  0.9343435E+00  0.0000000E+00  0.1515152E-01 -0.5350499E-07  0.0000000E+00 -0.1121647E-04
  0.9444444E+00  0.0000000E+00  0.1515152E-01 -0.4517185E-07  0.0000000E+00 -0.1124961E-04
  0.9545454E+00  0.0000000E+00  0.1515152E-01 -0.3688748E-07  0.0000000E+00 -0.1127716E-04
  0.9646465E+00  0.0000000E+00  0.1515152E-01 -0.2864487E-07  0.0000000E+00 -0.1129916E-04
  0.9747475E+00  0.0000000E+00  0.1515152E-01 -0.2043588E-07  0.0000000E+00 -0.1131564E-04
  0.9848485E+00  0.0000000E+00  0.1515152E-01 -0.1225152E-07  0.0000000E+00 -0.1132662E-04
  0.9974747E+00  0.0000000E+00  0.1515152E-01 -0.4082163E-08  0.0000000E+00 -0.1133210E-04
  0.5050505E-02  0.0000000E+00  0.2525252E-01  0.4121228E-08  0.0000000E+00 -0.1191204E-04
  0.1515152E-01  0.0000000E+00  0.2525252E-01  0.1237372E-07  0.0000000E+00 -0.1190870E-04
  0.2525252E-01  0.0000000E+00  0.2525252E-01  0.2065631E-07  0.0000000E+00 -0.1190199E-04
  0.3535353E-01  0.0000000E+00  0.2525252E-01  0.2898906E-07  0.0000000E+00 -0.1189191E-04
  0.4545455E-01  0.0000000E+00  0.2525252E-01  0.3739204E-07  0.0000000E+00 -0.1187843E-04
  0.5555556E-01  0.0000000E+00  0.2525252E-01  0.4588531E-07  0.0000000E+00 -0.1186153E-04
  0.6565657E-01  0.0000000E+00  0.2525252E-01  0.5448895E-07  0.0000000E+00 -0.1184114E-04
  0.7575758E-01  0.0000000E+00  0.2525252E-01  0.6322295E-07  0.0000000E+00 -0.1181724E-04
  0.8585858E-01  0.0000000E+00  0.2525252E-01  0.7210727E-07  0.0000000E+00 -0.1178976E-04
  0.9595960E-01  0.0000000E+00  0.2525252E-01  0.8116173E-07  0.0000000E+00 -0.1175863E-04
  0.1060606E+00  0.0000000E+00  0.2525252E-01  0.9040596E-07  0.0000000E+00 -0.1172378E-04
  0.1161616E+00  0.0000000E+00  0.2525252E-01  0.9985930E-07  0.0000000E+00 -0.1168512E-04
  0.1262626E+00  0.0000000E+00  0.2525252E-01  0.1095407E-06  0.0000000E+00 -0.1164257E-04
  0.1363636E+00  0.0000000E+00  0.2525252E-01  0.1194683E-06  0.0000000E+00 -0.1159603E-04
  0.1464646E+00  0.0000000E+00  0.2525252E-01  0.1296599E-06  0.0000000E+00 -0.1154539E-04
  0.1565657E+00  0.0000000E+00  0.2525252E-01  0.1401316E-06  0.0000000E+00 -0.1149054E-04
  0.1666667E+00  0.0000000E+00  0.2525252E-01  0.1508985E-06  0.0000000E+00 -0.1143136E-04
  0.1767677E+00  0.0000000E+00  0.2525252E-01  0.1619736E-06  0.0000000E+00 -0.1136771E-04
  0.1868687E+00  0.0000000E+00  0.2525252E-01  0.1733675E-06  0.0000000E+00 -0.1129948E-04
  0.1969697E+00  0.0000000E+00  0.2525252E-01  0.1850875E-06  0.0000000E+00 -0.1122652E-04
  0.2070707E+00  0.0000000E+00  0.2525252E-01  0.1971371E-06  0.0000000E+00 -0.1114869E-04
  0.2171717E+00  0.0000000E+00  0.2525252E-01  0.2095148E-06  0.0000000E+00 -0.1106585E-04
  0.2272727E+00  0.0000000E+00  0.2525252E-01  0.2222127E-06  0.0000000E+00 -0.1097787E-04
  0.2373737E+00  0.0000000E+00  0.2525252E-01  0.2352155E-06  0.0000000E+00 -0.1088460E-04
  0.2474747E+00  0.0000000E+00  0.2525252E-01  0.2484986E-06  0.0000000E+00 -0.1078591E-04
  0.2575758E+00  0.0000000E+00  0.2525252E-01  0.2620260E-06  0.0000000E+00 -0.1068169E-04
  0.2676768E+00  0.0000000E+00  0.2525252E-01  0.2757483E-06  0.0000000E+00 -0.1057182E-04
  0.2777778E+00  0.0000000E+00  0.2525252E-01  0.2896001E-06  0.0000000E+00 -0.1045623E-04
  0.2878788E+00  0.0000000E+00  0.2525252E-01  0.3034974E-06  0.0000000E+00 -0.1033487E-04
  0.2979798E+00  0.0000000E+00  0.2525252E-01  0.3173342E-06  0.0000000E+00 -0.1020771E-04
  0.3080808E+00  0.0000000E+00  0.2525252E-01  0.3309799E-06  0.0000000E+00 -0.1007478E-04
  0.3181818E+00  0.0000000E+00  0.2525252E-01  0.3442755E-06  0.0000000E+00 -0.9936166E-05
  0.3282828E+00  0.0000000E+00  0.2525252E-01  0.3570312E-06  0.0000000E+00 -0.9792025E-05
  0.3383838E+00  0.0000000E+00  0.2525252E-01  0.3690234E-06  0.0000000E+00 -0.9642595E-05
  0.3484848E+00  0.0000000E+00  0.2525252E-01  0.3799930E-06  0.0000000E+00 -0.9488211E-05
  0.3585859E+00  0.0000000E+00  0.2525252E-01  0.3896443E-06  0.0000000E+00 -0.9329325E-05
  0.3686869E+00  0.0000000E+00  0.2525252E-01  0.3976464E-06  0.0000000E+00 -0.9166519E-05
  0.3787879E+00  0.0000000E+00  0.2525252E-01  0.4036355E-06  0.0000000E+00 -0.9000524E-05
  0.3888889E+00  0.0000000E+00  0.2525252E-01  0.4072215E-06  0.0000000E+00 -0.8832228E-05
  0.3989899E+00  0.0000000E+00  0.2525252E-01  0.4079962E-06  0.0000000E+00 -0.8662698E-05
  0.4090909E+00  0.0000000E+00  0.2525252E-01  0.4055470E-06  0.0000000E+00 -0.8493178E-05
  0.4191919E+00  0.0000000E+00  0.2525252E-01  0.3994729E-06  0.0000000E+00 -0.8325097E-05
  0.4292929E+00  0.0000000E+00  0.2525252E-01  0.3894060E-06  0.0000000E+00 -0.8160058E-05
  0.4393939E+00  0.0000000E+00  0.2525252E-01  0.3750347E-06  0.0000000E+00 -0.7999824E-05
  0.4494950E+00  0.0000000E+00  0.2525252E-01  0.3561302E-06  0.0000000E+00 -0.7846291E-05
  0.4595959E+00  0.0000000E+00  0.2525252E-01  0.3325724E-06  0.0000000E+00 -0.7701443E-05
  0.4696970E+00  0.0000000E+00  0.2525252E-01  0.3043736E-06  0.0000000E+00 -0.7567302E-05
  0.4797980E+00  0.0000000E+00  0.2525252E-01  0.2716969E-06  0.0000000E+00 -0.7445864E-05
  0.4898990E+00  0.0000000E+00  0.2525252E-01  0.2348668E-06  0.0000000E+00 -0.7339028E-05
  0.5000000E+00  0.0000000E+00  0.2525252E-01  0.1943689E-06  0.0000000E+00 -0.7248520E-05
  0.5101010E+00  0.0000000E+00  0.2525252E-01  0.1508375E-06  0.0000000E+00 -0.7175819E-05
  0.5202020E+00  0.0000000E+00  0.2525252E-01  0.1050318E-06  0.0000000E+00 -0.7122097E-05
  0.5303030E+00  0.0000000E+00  0.2525252E-01  0.5780059E-07  0.0000000E+00 -0.7088162E-05
  0.5404040E+00  0.0000000E+00  0.2525252E-01  0.1004125E-07  0.0000000E+00 -0.7074431E-05
  0.5505050E+00  0.0000000E+00  0.2525252E-01 -0.3734556E-07  0.0000000E+00 -0.7080919E-05
  0.5606061E+00  0.0000000E+00  0.2525252E-01 -0.8349908E-07  0.0000000E+00 -0.7107244E-05
  0.5707071E+00  0.0000000E+00  0.2525252E-01 -0.1276365E-06  0.0000000E+00 -0.7152661E-05
  0.5808081E+00  0.0000000E+00  0.2525252E-01 -0.1690822E-06  0.0000000E+00 -0.7216108E-05
  0.5909091E+00  0.0000000E+00  0.2525252E-01 -0.2072871E-06  0.0000000E+00 -0.7296258E-05
  0.6010101E+00  0.0000000E+00  0.2525252E-01 -0.2418381E-06  0.0000000E+00 -0.7391586E-05
  0.6111111E+00  0.0000000E+00  0.2525252E-01 -0.2724575E-06  0.0000000E+00 -0.7500425E-05
  0.6212121E+00  0.0000000E+00  0.2525252E-01 -0.2989955E-06  0.0000000E+00 -0.7621031E-05
  0.6313131E+00  0.0000000E+00  0.2525252E-01 -0.3214169E-06  0.0000000E+00 -0.7751634E-05
  0.6414142E+00  0.0000000E+00  0.2525252E-01 -0.3397844E-06  0.0000000E+00 -0.7890483E-05
  0.6515151E+00  0.0000000E+00  0.2525252E-01 -0.3542405E-06  0.0000000E+00 -0.8035887E-05
  0.6616161E+00  0.0000000E+00  0.2525252E-01 -0.3649891E-06  0.0000000E+00 -0.8186239E-05
  0.6717172E+00  0.0000000E+00  0.2525252E-01 -0.3722784E-06  0.0000000E+00 -0.8340038E-05
  0.6818182E+00  0.0000000E+00  0.2525252E-01 -0.3763854E-06  0.0000000E+00 -0.8495906E-05
  0.6919192E+00  0.0000000E+00  0.2525252E-01 -0.3776029E-06  0.0000000E+00 -0.8652590E-05
  0.7020202E+00  0.0000000E+00  0.2525252E-01 -0.3762283E-06  0.0000000E+00 -0.8808967E-05
  0.7121212E+00  0.0000000E+00  0.2525252E-01 -0.3725553E-06  0.0000000E+00 -0.8964043E-05
  0.7222222E+00  0.0000000E+00  0.2525252E-01 -0.3668671E-06  0.0000000E+00 -0.9116945E-05
  0.7323232E+00  0.0000000E+00  0.2525252E-01 -0.3594318E-06  0.0000000E+00 -0.9266921E-05
  0.7424242E+00  0.0000000E+00  0.2525252E-01 -0.3504991E-06  0.0000000E+00 -0.9413323E-05
  0.7525253E+00  0.0000000E+00  0.2525252E-01 -0.3402984E-06  0.0000000E+00 -0.9555605E-05
  0.7626263E+00  0.0000000E+00  0.2525252E-01 -0.3290381E-06  0.0000000E+00 -0.9693310E-05
  0.7727273E+00  0.0000000E+00  0.2525252E-01 -0.3169052E-06  0.0000000E+00 -0.9826063E-05
  0.7828283E+00  0.0000000E+00  0.2525252E-01 -0.3040658E-06  0.0000000E+00 -0.9953561E-05
  0.7929293E+00  0.0000000E+00  0.2525252E-01 -0.2906661E-06  0.0000000E+00 -0.1007556E-04
  0.8030303E+00  0.0000000E+00  0.2525252E-01 -0.2768334E-06  0.0000000E+00 -0.1019188E-04
  0.8131313E+00  0.0000000E+00  0.2525252E-01 -0.2626775E-06  0.0000000E+00 -0.1030238E-04
  0.8232324E+00  0.0000000E+00  0.2525252E-01 -0.2482918E-06  0.0000000E+00 -0.1040697E-04
  0.8333333E+00  0.0000000E+00  0.2525252E-01 -0.2337553E-06  0.0000000E+00 -0.1050557E-04
  0.8434343E+00  0.0000000E+00  0.2525252E-01 -0.2191334E-06  0.0000000E+00 -0.1059815E-04
  0.8535354E+00  0.0000000E+00  0.2525252E-01 -0.2044796E-06  0.0000000E+00 -0.1068470E-04
  0.8636364E+00  0.0000000E+00  0.2525252E-01 -0.1898367E-06  0.0000000E+00 -0.1076523E-04
  0.8737374E+00  0.0000000E+00  0.2525252E-01 -0.1752380E-06  0.0000000E+00 -0.1083975E-04
  0.8838384E+00  0.0000000E+00  0.2525252E-01 -0.1607084E-06  0.0000000E+00 -0.1090830E-04
  0.8939394E+00  0.0000000E+00  0.2525252E-01 -0.1462654E-06  0.0000000E+00 -0.1097092E-04
  0.9040404E+00  0.0000000E+00  0.2525252E-01 -0.1319202E-06  0.0000000E+00 -0.1102765E-04
  0.9141414E+00  0.0000000E+00  0.2525252E-01 -0.1176781E-06  0.0000000E+00 -0.1107853E-04
  0.9242424E+00  0.0000000E+00  0.2525252E-01 -0.1035400E-06  0.0000000E+00 -0.1112362E-04
  0.9343435E+00  0.0000000E+00  0.2525252E-01 -0.8950238E-07  0.0000000E+00 -0.1116296E-04
  0.9444444E+00  0.0000000E+00  0.2525252E-01 -0.7555839E-07  0.0000000E+00 -0.1119658E-04
  0.9545454E+00  0.0000000E+00  0.2525252E-01 -0.6169824E-07  0.0000000E+00 -0.1122454E-04
  0.9646465E+00  0.0000000E+00  0.2525252E-01 -0.4790975E-07  0.0000000E+00 -0.1124687E-04
  0.9747475E+00  0.0000000E+00  0.2525252E-01 -0.3417890E-07  0.0000000E+00 -0.1126358E-04
  0.9848485E+00  0.0000000E+00  0.2525252E-01 -0.2049020E-07  0.0000000E+00 -0.1127472E-04
  0.9974747E+00  0.0000000E+00  0.2525252E-01 -0.6827197E-08  0.0000000E+00 -0.1128028E-04
  0.5050505E-02  0.0000000E+00  0.3535353E-01  0.5794032E-08  0.0000000E+00 -0.1184287E-04
  0.1515152E-01  0.0000000E+00  0.3535353E-01  0.1739631E-07  0.0000000E+00 -0.1183946E-04
  0.2525252E-01  0.0000000E+00  0.3535353E-01  0.2904120E-07  0.0000000E+00 -0.1183265E-04
  0.3535353E-01  0.0000000E+00  0.3535353E-01  0.4075714E-07  0.0000000E+00 -0.1182240E-04
  0.4545455E-01  0.0000000E+00  0.3535353E-01  0.5257256E-07  0.0000000E+00 -0.1180870E-04
  0.5555556E-01  0.0000000E+00  0.3535353E-01  0.6451592E-07  0.0000000E+00 -0.1179150E-04
  0.6565657E-01  0.0000000E+00  0.3535353E-01  0.7661568E-07  0.0000000E+00 -0.1177077E-04
  0.7575758E-01  0.0000000E+00  0.3535353E-01  0.8890025E-07  0.0000000E+00 -0.1174646E-04
  0.8585858E-01  0.0000000E+00  0.3535353E-01  0.1013980E-06  0.0000000E+00 -0.1171850E-04
  0.9595960E-01  0.0000000E+00  0.3535353E-01  0.1141372E-06  0.0000000E+00 -0.1168683E-04
  0.1060606E+00  0.0000000E+00  0.3535353E-01  0.1271458E-06  0.0000000E+00 -0.1165137E-04
  0.1161616E+00  0.0000000E+00  0.3535353E-01  0.1404514E-06  0.0000000E+00 -0.1161203E-04
  0.1262626E+00  0.0000000E+00  0.3535353E-01  0.1540813E-06  0.0000000E+00 -0.1156871E-04
  0.1363636E+00  0.0000000E+00  0.3535353E-01  0.1680617E-06  0.0000000E+00 -0.1152132E-04
  0.1464646E+00  0.0000000E+00  0.3535353E-01  0.1824181E-06  0.0000000E+00 -0.1146974E-04
  0.1565657E+00  0.0000000E+00  0.3535353E-01  0.1971742E-06  0.0000000E+00 -0.1141386E-04
  0.1666667E+00  0.0000000E+00  0.3535353E-01  0.2123522E-06  0.0000000E+00 -0.1135353E-04
  0.1767677E+00  0.0000000E+00  0.3535353E-01  0.2279713E-06  0.0000000E+00 -0.1128864E-04
  0.1868687E+00  0.0000000E+00  0.3535353E-01  0.2440479E-06  0.0000000E+00 -0.1121903E-04
  0.1969697E+00  0.0000000E+00  0.3535353E-01  0.2605937E-06  0.0000000E+00 -0.1114456E-04
  0.2070707E+00  0.0000000E+00  0.3535353E-01  0.2776155E-06  0.0000000E+00 -0.1106508E-04
  0.2171717E+00  0.0000000E+00  0.3535353E-01  0.2951130E-06  0.0000000E+00 -0.1098044E-04
  0.2272727E+00  0.0000000E+00  0.3535353E-01  0.3130775E-06  0.0000000E+00 -0.1089047E-04
  0.2373737E+00  0.0000000E+00  0.3535353E-01  0.3314901E-06  0.0000000E+00 -0.1079503E-04
  0.2474747E+00  0.0000000E+00  0.3535353E-01  0.3503189E-06  0.0000000E+00 -0.1069396E-04
  0.2575758E+00  0.0000000E+00  0.3535353E-01  0.3695166E-06  0.0000000E+00 -0.1058712E-04
  0.2676768E+00  0.0000000E+00  0.3535353E-01  0.3890170E-06  0.0000000E+00 -0.1047438E-04
  0.2777778E+00  0.0000000E+00  0.3535353E-01  0.4087320E-06  0.0000000E+00 -0.1035563E-04
  0.2878788E+00  0.0000000E+00  0.3535353E-01  0.4285468E-06  0.0000000E+00 -0.1023079E-04
  0.2979798E+00  0.0000000E+00  0.3535353E-01  0.4483164E-06  0.0000000E+00 -0.1009980E-04