title = "dataset water"
variables = "x", "y", "z", "vx", "vy", "vz"
zone t = "velocities, solution time =  5.900E+01 days        " i =   99, j =   99, k =    1,  f=point
  0.5050505E-02  0.0000000E+00  0.5050505E-02  0.1788659E-06  0.0000000E+00  0.2219520E-03
  0.1515152E-01  0.0000000E+00  0.5050505E-02  0.5375814E-06  0.0000000E+00  0.2226902E-03
  0.2525252E-01  0.0000000E+00  0.5050505E-02  0.8992893E-06  0.0000000E+00  0.2241710E-03
  0.3535353E-01  0.0000000E+00  0.5050505E-02  0.1266058E-05  0.0000000E+00  0.2264029E-03
  0.4545455E-01  0.0000000E+00  0.5050505E-02  0.1640034E-05  0.0000000E+00  0.2293991E-03
  0.5555556E-01  0.0000000E+00  0.5050505E-02  0.2023471E-05  0.0000000E+00  0.2331776E-03
  0.6565657E-01  0.0000000E+00  0.5050505E-02  0.2418766E-05  0.0000000E+00  0.2377613E-03
  0.7575758E-01  0.0000000E+00  0.5050505E-02  0.2828514E-05  0.0000000E+00  0.2431788E-03
  0.8585858E-01  0.0000000E+00  0.5050505E-02  0.3255575E-05  0.0000000E+00  0.2494644E-03
  0.9595960E-01  0.0000000E+00  0.5050505E-02  0.3703163E-05  0.0000000E+00  0.2566590E-03
  0.1060606E+00  0.0000000E+00  0.5050505E-02  0.4174971E-05  0.0000000E+00  0.2648114E-03
  0.1161616E+00  0.0000000E+00  0.5050505E-02  0.4675331E-05  0.0000000E+00  0.2739788E-03
  0.1262626E+00  0.0000000E+00  0.5050505E-02  0.5209438E-05  0.0000000E+00  0.2842292E-03
  0.1363636E+00  0.0000000E+00  0.5050505E-02  0.5783672E-05  0.0000000E+00  0.2956430E-03
  0.1464646E+00  0.0000000E+00  0.5050505E-02  0.6406072E-05  0.0000000E+00  0.3083169E-03
  0.1565657E+00  0.0000000E+00  0.5050505E-02  0.7087082E-05  0.0000000E+00  0.3223675E-03
  0.1666667E+00  0.0000000E+00  0.5050505E-02  0.7840793E-05  0.0000000E+00  0.3379385E-03
  0.1767677E+00  0.0000000E+00  0.5050505E-02  0.8687095E-05  0.0000000E+00  0.3552112E-03
  0.1868687E+00  0.0000000E+00  0.5050505E-02  0.9655641E-05  0.0000000E+00  0.3744205E-03
  0.1969697E+00  0.0000000E+00  0.5050505E-02  0.1079337E-04  0.0000000E+00  0.3958856E-03
  0.2070707E+00  0.0000000E+00  0.5050505E-02  0.1217919E-04  0.0000000E+00  0.4200625E-03
  0.2171717E+00  0.0000000E+00  0.5050505E-02  0.1395200E-04  0.0000000E+00  0.4476445E-03
  0.2272727E+00  0.0000000E+00  0.5050505E-02  0.1635598E-04  0.0000000E+00  0.4797426E-03
  0.2373737E+00  0.0000000E+00  0.5050505E-02  0.1975535E-04  0.0000000E+00  0.5181368E-03
  0.2474747E+00  0.0000000E+00  0.5050505E-02  0.2419107E-04  0.0000000E+00  0.5650799E-03
  0.2575758E+00  0.0000000E+00  0.5050505E-02  0.2573701E-04  0.0000000E+00  0.6187050E-03
  0.2676768E+00  0.0000000E+00  0.5050505E-02  0.2430221E-04  0.0000000E+00  0.6727849E-03
  0.2777778E+00  0.0000000E+00  0.5050505E-02  0.2368761E-04  0.0000000E+00  0.7249884E-03
  0.2878788E+00  0.0000000E+00  0.5050505E-02  0.2397929E-04  0.0000000E+00  0.7771669E-03
  0.2979798E+00  0.0000000E+00  0.5050505E-02  0.2539793E-04  0.0000000E+00  0.8315577E-03
  0.3080808E+00  0.0000000E+00  0.5050505E-02  0.2892987E-04  0.0000000E+00  0.8917964E-03
  0.3181818E+00  0.0000000E+00  0.5050505E-02  0.3889968E-04  0.0000000E+00  0.9675697E-03
  0.3282828E+00  0.0000000E+00  0.5050505E-02  0.4629667E-04  0.0000000E+00  0.1063588E-02
  0.3383838E+00  0.0000000E+00  0.5050505E-02  0.5294367E-04  0.0000000E+00  0.1176700E-02
  0.3484848E+00  0.0000000E+00  0.5050505E-02  0.7290103E-04  0.0000000E+00  0.1322151E-02
  0.3585859E+00  0.0000000E+00  0.5050505E-02  0.1149941E-03  0.0000000E+00  0.1543274E-02
  0.3686869E+00  0.0000000E+00  0.5050505E-02  0.2138959E-03  0.0000000E+00  0.1941367E-02
  0.3787879E+00  0.0000000E+00  0.5050505E-02  0.3008463E-03  0.0000000E+00  0.2593743E-02
  0.3888889E+00  0.0000000E+00  0.5050505E-02 -0.1108912E-04  0.0000000E+00  0.2968742E-02
  0.3989899E+00  0.0000000E+00  0.5050505E-02 -0.1101483E-03  0.0000000E+00  0.2802734E-02
  0.4090909E+00  0.0000000E+00  0.5050505E-02 -0.1256641E-03  0.0000000E+00  0.2487016E-02
  0.4191919E+00  0.0000000E+00  0.5050505E-02 -0.6059821E-04  0.0000000E+00  0.2243312E-02
  0.4292929E+00  0.0000000E+00  0.5050505E-02 -0.5706882E-05  0.0000000E+00  0.2157596E-02
  0.4393939E+00  0.0000000E+00  0.5050505E-02 -0.6238611E-05  0.0000000E+00  0.2142191E-02
  0.4494950E+00  0.0000000E+00  0.5050505E-02  0.4248357E-04  0.0000000E+00  0.2188892E-02
  0.4595959E+00  0.0000000E+00  0.5050505E-02 -0.4399938E-04  0.0000000E+00  0.2186963E-02
  0.4696970E+00  0.0000000E+00  0.5050505E-02 -0.2187133E-05  0.0000000E+00  0.2127481E-02
  0.4797980E+00  0.0000000E+00  0.5050505E-02  0.2379591E-04  0.0000000E+00  0.2155294E-02
  0.4898990E+00  0.0000000E+00  0.5050505E-02  0.7169790E-04  0.0000000E+00  0.2278840E-02
  0.5000000E+00  0.0000000E+00  0.5050505E-02  0.5357790E-04  0.0000000E+00  0.2442655E-02
  0.5101010E+00  0.0000000E+00  0.5050505E-02 -0.3724477E-04  0.0000000E+00  0.2464032E-02
  0.5202020E+00  0.0000000E+00  0.5050505E-02 -0.7465612E-04  0.0000000E+00  0.2317387E-02
  0.5303030E+00  0.0000000E+00  0.5050505E-02 -0.8431071E-04  0.0000000E+00  0.2113187E-02
  0.5404040E+00  0.0000000E+00  0.5050505E-02 -0.2137791E-04  0.0000000E+00  0.1979131E-02
  0.5505050E+00  0.0000000E+00  0.5050505E-02 -0.9422405E-04  0.0000000E+00  0.1836310E-02
  0.5606061E+00  0.0000000E+00  0.5050505E-02 -0.5526775E-04  0.0000000E+00  0.1653563E-02
  0.5707071E+00  0.0000000E+00  0.5050505E-02 -0.4583609E-04  0.0000000E+00  0.1531858E-02
  0.5808081E+00  0.0000000E+00  0.5050505E-02 -0.7244617E-04  0.0000000E+00  0.1392143E-02
  0.5909091E+00  0.0000000E+00  0.5050505E-02 -0.7634104E-04  0.0000000E+00  0.1219549E-02
  0.6010101E+00  0.0000000E+00  0.5050505E-02 -0.4928562E-04  0.0000000E+00  0.1076010E-02
  0.6111111E+00  0.0000000E+00  0.5050505E-02 -0.3654206E-04  0.0000000E+00  0.9791225E-03
  0.6212121E+00  0.0000000E+00  0.5050505E-02 -0.2959632E-04  0.0000000E+00  0.9051330E-03
  0.6313131E+00  0.0000000E+00  0.5050505E-02 -0.2525489E-04  0.0000000E+00  0.8442199E-03
  0.6414142E+00  0.0000000E+00  0.5050505E-02 -0.2208621E-04  0.0000000E+00  0.7919750E-03
  0.6515151E+00  0.0000000E+00  0.5050505E-02 -0.1963602E-04  0.0000000E+00  0.7461826E-03
  0.6616161E+00  0.0000000E+00  0.5050505E-02 -0.1777076E-04  0.0000000E+00  0.7053271E-03
  0.6717172E+00  0.0000000E+00  0.5050505E-02 -0.1640089E-04  0.0000000E+00  0.6681708E-03
  0.6818182E+00  0.0000000E+00  0.5050505E-02 -0.1540513E-04  0.0000000E+00  0.6337295E-03
  0.6919192E+00  0.0000000E+00  0.5050505E-02 -0.1463527E-04  0.0000000E+00  0.6013261E-03
  0.7020202E+00  0.0000000E+00  0.5050505E-02 -0.1395774E-04  0.0000000E+00  0.5705973E-03
  0.7121212E+00  0.0000000E+00  0.5050505E-02 -0.1327946E-04  0.0000000E+00  0.5414277E-03
  0.7222222E+00  0.0000000E+00  0.5050505E-02 -0.1255062E-04  0.0000000E+00  0.5138562E-03
  0.7323232E+00  0.0000000E+00  0.5050505E-02 -0.1176797E-04  0.0000000E+00  0.4879785E-03
  0.7424242E+00  0.0000000E+00  0.5050505E-02 -0.1095600E-04  0.0000000E+00  0.4638676E-03
  0.7525253E+00  0.0000000E+00  0.5050505E-02 -0.1014576E-04  0.0000000E+00  0.4415379E-03
  0.7626263E+00  0.0000000E+00  0.5050505E-02 -0.9362860E-05  0.0000000E+00  0.4209452E-03
  0.7727273E+00  0.0000000E+00  0.5050505E-02 -0.8623694E-05  0.0000000E+00  0.4020025E-03
  0.7828283E+00  0.0000000E+00  0.5050505E-02 -0.7936300E-05  0.0000000E+00  0.3845987E-03
  0.7929293E+00  0.0000000E+00  0.5050505E-02 -0.7302591E-05  0.0000000E+00  0.3686143E-03
  0.8030303E+00  0.0000000E+00  0.5050505E-02 -0.6720595E-05  0.0000000E+00  0.3539312E-03
  0.8131313E+00  0.0000000E+00  0.5050505E-02 -0.6186177E-05  0.0000000E+00  0.3404390E-03
  0.8232324E+00  0.0000000E+00  0.5050505E-02 -0.5694201E-05  0.0000000E+00  0.3280384E-03
  0.8333333E+00  0.0000000E+00  0.5050505E-02 -0.5239264E-05  0.0000000E+00  0.3166420E-03
  0.8434343E+00  0.0000000E+00  0.5050505E-02 -0.4816133E-05  0.0000000E+00  0.3061740E-03
  0.8535354E+00  0.0000000E+00  0.5050505E-02 -0.4419976E-05  0.0000000E+00  0.2965702E-03
  0.8636364E+00  0.0000000E+00  0.5050505E-02 -0.4046482E-05  0.0000000E+00  0.2877760E-03
  0.8737374E+00  0.0000000E+00  0.5050505E-02 -0.3691901E-05  0.0000000E+00  0.2797459E-03
  0.8838384E+00  0.0000000E+00  0.5050505E-02 -0.3353034E-05  0.0000000E+00  0.2724419E-03
  0.8939394E+00  0.0000000E+00  0.5050505E-02 -0.3027197E-05  0.0000000E+00  0.2658323E-03
  0.9040404E+00  0.0000000E+00  0.5050505E-02 -0.2712164E-05  0.0000000E+00  0.2598909E-03
  0.9141414E+00  0.0000000E+00  0.5050505E-02 -0.2406099E-05  0.0000000E+00  0.2545958E-03
  0.9242424E+00  0.0000000E+00  0.5050505E-02 -0.2107481E-05  0.0000000E+00  0.2499290E-03
  0.9343435E+00  0.0000000E+00  0.5050505E-02 -0.1815044E-05  0.0000000E+00  0.2458753E-03
  0.9444444E+00  0.0000000E+00  0.5050505E-02 -0.1527708E-05  0.0000000E+00  0.2424222E-03
  0.9545454E+00  0.0000000E+00  0.5050505E-02 -0.1244526E-05  0.0000000E+00  0.2395594E-03
  0.9646465E+00  0.0000000E+00  0.5050505E-02 -0.9646480E-06  0.0000000E+00  0.2372788E-03
  0.9747475E+00  0.0000000E+00  0.5050505E-02 -0.6872822E-06  0.0000000E+00  0.2355737E-03
  0.9848485E+00  0.0000000E+00  0.5050505E-02 -0.4116781E-06  0.0000000E+00  0.2344396E-03
  0.9974747E+00  0.0000000E+00  0.5050505E-02 -0.1371129E-06  0.0000000E+00  0.2338733E-03
  0.5050505E-02  0.0000000E+00  0.1515152E-01  0.5352542E-06  0.0000000E+00  0.2215203E-03
  0.1515152E-01  0.0000000E+00  0.1515152E-01  0.1608720E-05  0.0000000E+00  0.2222556E-03
  0.2525252E-01  0.0000000E+00  0.1515152E-01  0.2691162E-05  0.0000000E+00  0.2237303E-03
  0.3535353E-01  0.0000000E+00  0.1515152E-01  0.3788762E-05  0.0000000E+00  0.2259529E-03
  0.4545455E-01  0.0000000E+00  0.1515152E-01  0.4907930E-05  0.0000000E+00  0.2289365E-03
  0.5555556E-01  0.0000000E+00  0.1515152E-01  0.6055383E-05  0.0000000E+00  0.2326988E-03
  0.6565657E-01  0.0000000E+00  0.1515152E-01  0.7238261E-05  0.0000000E+00  0.2372625E-03
  0.7575758E-01  0.0000000E+00  0.1515152E-01  0.8464280E-05  0.0000000E+00  0.2426556E-03
  0.8585858E-01  0.0000000E+00  0.1515152E-01  0.9741925E-05  0.0000000E+00  0.2489120E-03
  0.9595960E-01  0.0000000E+00  0.1515152E-01  0.1108072E-04  0.0000000E+00  0.2560718E-03
  0.1060606E+00  0.0000000E+00  0.1515152E-01  0.1249158E-04  0.0000000E+00  0.2641827E-03
  0.1161616E+00  0.0000000E+00  0.1515152E-01  0.1398728E-04  0.0000000E+00  0.2733004E-03
  0.1262626E+00  0.0000000E+00  0.1515152E-01  0.1558308E-04  0.0000000E+00  0.2834910E-03
  0.1363636E+00  0.0000000E+00  0.1515152E-01  0.1729765E-04  0.0000000E+00  0.2948321E-03
  0.1464646E+00  0.0000000E+00  0.1515152E-01  0.1915438E-04  0.0000000E+00  0.3074161E-03
  0.1565657E+00  0.0000000E+00  0.1515152E-01  0.2118340E-04  0.0000000E+00  0.3213538E-03
  0.1666667E+00  0.0000000E+00  0.1515152E-01  0.2342490E-04  0.0000000E+00  0.3367793E-03
  0.1767677E+00  0.0000000E+00  0.1515152E-01  0.2593478E-04  0.0000000E+00  0.3538580E-03
  0.1868687E+00  0.0000000E+00  0.1515152E-01  0.2879487E-04  0.0000000E+00  0.3727978E-03
  0.1969697E+00  0.0000000E+00  0.1515152E-01  0.3213220E-04  0.0000000E+00  0.3938681E-03
  0.2070707E+00  0.0000000E+00  0.1515152E-01  0.3615735E-04  0.0000000E+00  0.4174328E-03
  0.2171717E+00  0.0000000E+00  0.1515152E-01  0.4124518E-04  0.0000000E+00  0.4440193E-03
  0.2272727E+00  0.0000000E+00  0.1515152E-01  0.4811701E-04  0.0000000E+00  0.4745131E-03
  0.2373737E+00  0.0000000E+00  0.1515152E-01  0.5828820E-04  0.0000000E+00  0.5108971E-03
  0.2474747E+00  0.0000000E+00  0.1515152E-01  0.7529891E-04  0.0000000E+00  0.5597144E-03
  0.2575758E+00  0.0000000E+00  0.1515152E-01  0.7997117E-04  0.0000000E+00  0.6192292E-03
  0.2676768E+00  0.0000000E+00  0.1515152E-01  0.7208031E-04  0.0000000E+00  0.6754861E-03
  0.2777778E+00  0.0000000E+00  0.1515152E-01  0.7014028E-04  0.0000000E+00  0.7259764E-03
  0.2878788E+00  0.0000000E+00  0.1515152E-01  0.7079891E-04  0.0000000E+00  0.7761320E-03
  0.2979798E+00  0.0000000E+00  0.1515152E-01  0.7414760E-04  0.0000000E+00  0.8272903E-03
  0.3080808E+00  0.0000000E+00  0.1515152E-01  0.8084828E-04  0.0000000E+00  0.8789836E-03
  0.3181818E+00  0.0000000E+00  0.1515152E-01  0.9314308E-04  0.0000000E+00  0.9221347E-03
  0.3282828E+00  0.0000000E+00  0.1515152E-01  0.1141718E-03  0.0000000E+00  0.9640580E-03
  0.3383838E+00  0.0000000E+00  0.1515152E-01  0.1477002E-03  0.0000000E+00  0.1036071E-02
  0.3484848E+00  0.0000000E+00  0.1515152E-01  0.2005561E-03  0.0000000E+00  0.1146362E-02
  0.3585859E+00  0.0000000E+00  0.1515152E-01  0.2988485E-03  0.0000000E+00  0.1288972E-02
  0.3686869E+00  0.0000000E+00  0.1515152E-01  0.4989795E-03  0.0000000E+00  0.1452150E-02
  0.3787879E+00  0.0000000E+00  0.1515152E-01  0.6046020E-03  0.0000000E+00  0.1542564E-02
  0.3888889E+00  0.0000000E+00  0.1515152E-01  0.3248428E-03  0.0000000E+00  0.1988679E-02
  0.3989899E+00  0.0000000E+00  0.1515152E-01 -0.2579754E-03  0.0000000E+00  0.2372490E-02
  0.4090909E+00  0.0000000E+00  0.1515152E-01 -0.3162523E-03  0.0000000E+00  0.2228591E-02
  0.4191919E+00  0.0000000E+00  0.1515152E-01 -0.1518450E-03  0.0000000E+00  0.2097896E-02
  0.4292929E+00  0.0000000E+00  0.1515152E-01 -0.1733532E-04  0.0000000E+00  0.2047803E-02
  0.4393939E+00  0.0000000E+00  0.1515152E-01 -0.1323797E-04  0.0000000E+00  0.2038541E-02
  0.4494950E+00  0.0000000E+00  0.1515152E-01  0.6243774E-04  0.0000000E+00  0.2009098E-02
  0.4595959E+00  0.0000000E+00  0.1515152E-01 -0.9796464E-04  0.0000000E+00  0.1966665E-02
  0.4696970E+00  0.0000000E+00  0.1515152E-01  0.5569930E-05  0.0000000E+00  0.1965464E-02
  0.4797980E+00  0.0000000E+00  0.1515152E-01  0.8989798E-04  0.0000000E+00  0.2034574E-02
  0.4898990E+00  0.0000000E+00  0.1515152E-01  0.1827638E-03  0.0000000E+00  0.2144635E-02
  0.5000000E+00  0.0000000E+00  0.1515152E-01  0.1217693E-03  0.0000000E+00  0.2220200E-02
  0.5101010E+00  0.0000000E+00  0.1515152E-01 -0.1039759E-03  0.0000000E+00  0.2200830E-02
  0.5202020E+00  0.0000000E+00  0.1515152E-01 -0.2624619E-03  0.0000000E+00  0.2013834E-02
  0.5303030E+00  0.0000000E+00  0.1515152E-01 -0.2113598E-03  0.0000000E+00  0.1812646E-02
  0.5404040E+00  0.0000000E+00  0.1515152E-01 -0.1025359E-03  0.0000000E+00  0.1682694E-02
  0.5505050E+00  0.0000000E+00  0.1515152E-01 -0.2241212E-03  0.0000000E+00  0.1563566E-02
  0.5606061E+00  0.0000000E+00  0.1515152E-01 -0.1411038E-03  0.0000000E+00  0.1481700E-02
  0.5707071E+00  0.0000000E+00  0.1515152E-01 -0.1399544E-03  0.0000000E+00  0.1386451E-02
  0.5808081E+00  0.0000000E+00  0.1515152E-01 -0.2161738E-03  0.0000000E+00  0.1246195E-02
  0.5909091E+00  0.0000000E+00  0.1515152E-01 -0.1897449E-03  0.0000000E+00  0.1121041E-02
  0.6010101E+00  0.0000000E+00  0.1515152E-01 -0.1350874E-03  0.0000000E+00  0.1036861E-02
  0.6111111E+00  0.0000000E+00  0.1515152E-01 -0.1042940E-03  0.0000000E+00  0.9600873E-03
  0.6212121E+00  0.0000000E+00  0.1515152E-01 -0.8629711E-04  0.0000000E+00  0.8945033E-03
  0.6313131E+00  0.0000000E+00  0.1515152E-01 -0.7457280E-04  0.0000000E+00  0.8373684E-03
  0.6414142E+00  0.0000000E+00  0.1515152E-01 -0.6549319E-04  0.0000000E+00  0.7870132E-03
  0.6515151E+00  0.0000000E+00  0.1515152E-01 -0.5827771E-04  0.0000000E+00  0.7425196E-03
  0.6616161E+00  0.0000000E+00  0.1515152E-01 -0.5277555E-04  0.0000000E+00  0.7027365E-03
  0.6717172E+00  0.0000000E+00  0.1515152E-01 -0.4878779E-04  0.0000000E+00  0.6664385E-03
  0.6818182E+00  0.0000000E+00  0.1515152E-01 -0.4594696E-04  0.0000000E+00  0.6325824E-03
  0.6919192E+00  0.0000000E+00  0.1515152E-01 -0.4377018E-04  0.0000000E+00  0.6004794E-03
  0.7020202E+00  0.0000000E+00  0.1515152E-01 -0.4183253E-04  0.0000000E+00  0.5698215E-03
  0.7121212E+00  0.0000000E+00  0.1515152E-01 -0.3985156E-04  0.0000000E+00  0.5405776E-03
  0.7222222E+00  0.0000000E+00  0.1515152E-01 -0.3767419E-04  0.0000000E+00  0.5128771E-03
  0.7323232E+00  0.0000000E+00  0.1515152E-01 -0.3530806E-04  0.0000000E+00  0.4868907E-03
  0.7424242E+00  0.0000000E+00  0.1515152E-01 -0.3284646E-04  0.0000000E+00  0.4627264E-03
  0.7525253E+00  0.0000000E+00  0.1515152E-01 -0.3039425E-04  0.0000000E+00  0.4404003E-03
  0.7626263E+00  0.0000000E+00  0.1515152E-01 -0.2803192E-04  0.0000000E+00  0.4198541E-03
  0.7727273E+00  0.0000000E+00  0.1515152E-01 -0.2580820E-04  0.0000000E+00  0.4009836E-03
  0.7828283E+00  0.0000000E+00  0.1515152E-01 -0.2374523E-04  0.0000000E+00  0.3836636E-03
  0.7929293E+00  0.0000000E+00  0.1515152E-01 -0.2184674E-04  0.0000000E+00  0.3677646E-03
  0.8030303E+00  0.0000000E+00  0.1515152E-01 -0.2010530E-04  0.0000000E+00  0.3531627E-03
  0.8131313E+00  0.0000000E+00  0.1515152E-01 -0.1850744E-04  0.0000000E+00  0.3397443E-03
  0.8232324E+00  0.0000000E+00  0.1515152E-01 -0.1703711E-04  0.0000000E+00  0.3274088E-03
  0.8333333E+00  0.0000000E+00  0.1515152E-01 -0.1567772E-04  0.0000000E+00  0.3160685E-03
  0.8434343E+00  0.0000000E+00  0.1515152E-01 -0.1441338E-04  0.0000000E+00  0.3056481E-03
  0.8535354E+00  0.0000000E+00  0.1515152E-01 -0.1322948E-04  0.0000000E+00  0.2960839E-03
  0.8636364E+00  0.0000000E+00  0.1515152E-01 -0.1211306E-04  0.0000000E+00  0.2873226E-03
  0.8737374E+00  0.0000000E+00  0.1515152E-01 -0.1105288E-04  0.0000000E+00  0.2793194E-03
  0.8838384E+00  0.0000000E+00  0.1515152E-01 -0.1003937E-04  0.0000000E+00  0.2720373E-03
  0.8939394E+00  0.0000000E+00  0.1515152E-01 -0.9064538E-05  0.0000000E+00  0.2654455E-03
  0.9040404E+00  0.0000000E+00  0.1515152E-01 -0.8121763E-05  0.0000000E+00  0.2595185E-03
  0.9141414E+00  0.0000000E+00  0.1515152E-01 -0.7205599E-05  0.0000000E+00  0.2542351E-03
  0.9242424E+00  0.0000000E+00  0.1515152E-01 -0.6311554E-05  0.0000000E+00  0.2495778E-03
  0.9343435E+00  0.0000000E+00  0.1515152E-01 -0.5435882E-05  0.0000000E+00  0.2455318E-03
  0.9444444E+00  0.0000000E+00  0.1515152E-01 -0.4575395E-05  0.0000000E+00  0.2420848E-03
  0.9545454E+00  0.0000000E+00  0.1515152E-01 -0.3727299E-05  0.0000000E+00  0.2392270E-03
  0.9646465E+00  0.0000000E+00  0.1515152E-01 -0.2889070E-05  0.0000000E+00  0.2369501E-03
  0.9747475E+00  0.0000000E+00  0.1515152E-01 -0.2058362E-05  0.0000000E+00  0.2352478E-03
  0.9848485E+00  0.0000000E+00  0.1515152E-01 -0.1232938E-05  0.0000000E+00  0.2341154E-03
  0.9974747E+00  0.0000000E+00  0.1515152E-01 -0.4106375E-06  0.0000000E+00  0.2335500E-03
  0.5050505E-02  0.0000000E+00  0.2525252E-01  0.8882687E-06  0.0000000E+00  0.2206701E-03
  0.1515152E-01  0.0000000E+00  0.2525252E-01  0.2669735E-05  0.0000000E+00  0.2213994E-03
  0.2525252E-01  0.0000000E+00  0.2525252E-01  0.4466121E-05  0.0000000E+00  0.2228621E-03
  0.3535353E-01  0.0000000E+00  0.2525252E-01  0.6287667E-05  0.0000000E+00  0.2250665E-03
  0.4545455E-01  0.0000000E+00  0.2525252E-01  0.8144957E-05  0.0000000E+00  0.2280252E-03
  0.5555556E-01  0.0000000E+00  0.2525252E-01  0.1004906E-04  0.0000000E+00  0.2317557E-03
  0.6565657E-01  0.0000000E+00  0.2525252E-01  0.1201172E-04  0.0000000E+00  0.2362800E-03
  0.7575758E-01  0.0000000E+00  0.2525252E-01  0.1404558E-04  0.0000000E+00  0.2416255E-03
  0.8585858E-01  0.0000000E+00  0.2525252E-01  0.1616448E-04  0.0000000E+00  0.2478247E-03
  0.9595960E-01  0.0000000E+00  0.2525252E-01  0.1838392E-04  0.0000000E+00  0.2549165E-03
  0.1060606E+00  0.0000000E+00  0.2525252E-01  0.2072159E-04  0.0000000E+00  0.2629464E-03
  0.1161616E+00  0.0000000E+00  0.2525252E-01  0.2319804E-04  0.0000000E+00  0.2719676E-03
  0.1262626E+00  0.0000000E+00  0.2525252E-01  0.2583775E-04  0.0000000E+00  0.2820423E-03
  0.1363636E+00  0.0000000E+00  0.2525252E-01  0.2867037E-04  0.0000000E+00  0.2932429E-03
  0.1464646E+00  0.0000000E+00  0.2525252E-01  0.3173266E-04  0.0000000E+00  0.3056544E-03
  0.1565657E+00  0.0000000E+00  0.2525252E-01  0.3507123E-04  0.0000000E+00  0.3193768E-03
  0.1666667E+00  0.0000000E+00  0.2525252E-01  0.3874695E-04  0.0000000E+00  0.3345278E-03
  0.1767677E+00  0.0000000E+00  0.2525252E-01  0.4284201E-04  0.0000000E+00  0.3512463E-03
  0.1868687E+00  0.0000000E+00  0.2525252E-01  0.4747216E-04  0.0000000E+00  0.3696959E-03
  0.1969697E+00  0.0000000E+00  0.2525252E-01  0.5280842E-04  0.0000000E+00  0.3900659E-03
  0.2070707E+00  0.0000000E+00  0.2525252E-01  0.5911730E-04  0.0000000E+00  0.4125635E-03
  0.2171717E+00  0.0000000E+00  0.2525252E-01  0.6683949E-04  0.0000000E+00  0.4373700E-03
  0.2272727E+00  0.0000000E+00  0.2525252E-01  0.7675609E-04  0.0000000E+00  0.4644549E-03
  0.2373737E+00  0.0000000E+00  0.2525252E-01  0.9038637E-04  0.0000000E+00  0.4927787E-03
  0.2474747E+00  0.0000000E+00  0.2525252E-01  0.1111141E-03  0.0000000E+00  0.5166409E-03
  0.2575758E+00  0.0000000E+00  0.2525252E-01  0.1193764E-03  0.0000000E+00  0.5380587E-03
  0.2676768E+00  0.0000000E+00  0.2525252E-01  0.1146215E-03  0.0000000E+00  0.5703883E-03
  0.2777778E+00  0.0000000E+00  0.2525252E-01  0.1144887E-03  0.0000000E+00  0.6143010E-03
  0.2878788E+00  0.0000000E+00  0.2525252E-01  0.1154161E-03  0.0000000E+00  0.6614401E-03
  0.2979798E+00  0.0000000E+00  0.2525252E-01  0.1200930E-03  0.0000000E+00  0.7100372E-03
  0.3080808E+00  0.0000000E+00  0.2525252E-01  0.1279606E-03  0.0000000E+00  0.7615856E-03
  0.3181818E+00  0.0000000E+00  0.2525252E-01  0.1394327E-03  0.0000000E+00  0.8227802E-03
  0.3282828E+00  0.0000000E+00  0.2525252E-01  0.1709085E-03  0.0000000E+00  0.8967763E-03
  0.3383838E+00  0.0000000E+00  0.2525252E-01  0.2260573E-03  0.0000000E+00  0.9777823E-03
  0.3484848E+00  0.0000000E+00  0.2525252E-01  0.2896264E-03  0.0000000E+00  0.1058776E-02
  0.3585859E+00  0.0000000E+00  0.2525252E-01  0.3974378E-03  0.0000000E+00  0.1133088E-02
  0.3686869E+00  0.0000000E+00  0.2525252E-01  0.5746832E-03  0.0000000E+00  0.1175176E-02
  0.3787879E+00  0.0000000E+00  0.2525252E-01  0.6272980E-03  0.0000000E+00  0.1206793E-02
  0.3888889E+00  0.0000000E+00  0.2525252E-01  0.7221170E-03  0.0000000E+00  0.1289650E-02
  0.3989899E+00  0.0000000E+00  0.2525252E-01 -0.5172716E-04  0.0000000E+00  0.1665020E-02
  0.4090909E+00  0.0000000E+00  0.2525252E-01 -0.3911010E-03  0.0000000E+00  0.1962367E-02
  0.4191919E+00  0.0000000E+00  0.2525252E-01 -0.1967859E-03  0.0000000E+00  0.1920490E-02
  0.4292929E+00  0.0000000E+00  0.2525252E-01 -0.3302214E-04  0.0000000E+00  0.1884356E-02
  0.4393939E+00  0.0000000E+00  0.2525252E-01 -0.1165206E-04  0.0000000E+00  0.1873519E-02
  0.4494950E+00  0.0000000E+00  0.2525252E-01  0.1350219E-04  0.0000000E+00  0.1841357E-02
  0.4595959E+00  0.0000000E+00  0.2525252E-01 -0.9748855E-04  0.0000000E+00  0.1818273E-02
  0.4696970E+00  0.0000000E+00  0.2525252E-01  0.2740584E-04  0.0000000E+00  0.1846645E-02
  0.4797980E+00  0.0000000E+00  0.2525252E-01  0.1485528E-03  0.0000000E+00  0.1887164E-02
  0.4898990E+00  0.0000000E+00  0.2525252E-01  0.2505898E-03  0.0000000E+00  0.1953124E-02
  0.5000000E+00  0.0000000E+00  0.2525252E-01  0.1390669E-03  0.0000000E+00  0.2001629E-02
  0.5101010E+00  0.0000000E+00  0.2525252E-01 -0.2225000E-03  0.0000000E+00  0.1887892E-02
  0.5202020E+00  0.0000000E+00  0.2525252E-01 -0.4040303E-03  0.0000000E+00  0.1727563E-02
  0.5303030E+00  0.0000000E+00  0.2525252E-01 -0.2835252E-03  0.0000000E+00  0.1648052E-02
  0.5404040E+00  0.0000000E+00  0.2525252E-01 -0.2170155E-03  0.0000000E+00  0.1539293E-02
  0.5505050E+00  0.0000000E+00  0.2525252E-01 -0.2736263E-03  0.0000000E+00  0.1451301E-02
  0.5606061E+00  0.0000000E+00  0.2525252E-01 -0.2093325E-03  0.0000000E+00  0.1385980E-02
  0.5707071E+00  0.0000000E+00  0.2525252E-01 -0.2707243E-03  0.0000000E+00  0.1242915E-02
  0.5808081E+00  0.0000000E+00  0.2525252E-01 -0.3048053E-03  0.0000000E+00  0.1125362E-02
  0.5909091E+00  0.0000000E+00  0.2525252E-01 -0.2614353E-03  0.0000000E+00  0.1064491E-02
  0.6010101E+00  0.0000000E+00  0.2525252E-01 -0.1995238E-03  0.0000000E+00  0.9925851E-03
  0.6111111E+00  0.0000000E+00  0.2525252E-01 -0.1603172E-03  0.0000000E+00  0.9323657E-03
  0.6212121E+00  0.0000000E+00  0.2525252E-01 -0.1370723E-03  0.0000000E+00  0.8774507E-03
  0.6313131E+00  0.0000000E+00  0.2525252E-01 -0.1212529E-03  0.0000000E+00  0.8254541E-03
  0.6414142E+00  0.0000000E+00  0.2525252E-01 -0.1069949E-03  0.0000000E+00  0.7777092E-03
  0.6515151E+00  0.0000000E+00  0.2525252E-01 -0.9517343E-04  0.0000000E+00  0.7354766E-03
  0.6616161E+00  0.0000000E+00  0.2525252E-01 -0.8623611E-04  0.0000000E+00  0.6978214E-03
  0.6717172E+00  0.0000000E+00  0.2525252E-01 -0.7998717E-04  0.0000000E+00  0.6632890E-03
  0.6818182E+00  0.0000000E+00  0.2525252E-01 -0.7576631E-04  0.0000000E+00  0.6306109E-03
  0.6919192E+00  0.0000000E+00  0.2525252E-01 -0.7259592E-04  0.0000000E+00  0.5990535E-03
  0.7020202E+00  0.0000000E+00  0.2525252E-01 -0.6967953E-04  0.0000000E+00  0.5684550E-03
  0.7121212E+00  0.0000000E+00  0.2525252E-01 -0.6655544E-04  0.0000000E+00  0.5389734E-03
  0.7222222E+00  0.0000000E+00  0.2525252E-01 -0.6293586E-04  0.0000000E+00  0.5109398E-03
  0.7323232E+00  0.0000000E+00  0.2525252E-01 -0.5890843E-04  0.0000000E+00  0.4846983E-03
  0.7424242E+00  0.0000000E+00  0.2525252E-01 -0.5470519E-04  0.0000000E+00  0.4604211E-03
  0.7525253E+00  0.0000000E+00  0.2525252E-01 -0.5053934E-04  0.0000000E+00  0.4381119E-03
  0.7626263E+00  0.0000000E+00  0.2525252E-01 -0.4655414E-04  0.0000000E+00  0.4176718E-03
  0.7727273E+00  0.0000000E+00  0.2525252E-01 -0.4282635E-04  0.0000000E+00  0.3989567E-03
  0.7828283E+00  0.0000000E+00  0.2525252E-01 -0.3938493E-04  0.0000000E+00  0.3818115E-03
  0.7929293E+00  0.0000000E+00  0.2525252E-01 -0.3622895E-04  0.0000000E+00  0.3660874E-03
  0.8030303E+00  0.0000000E+00  0.2525252E-01 -0.3334079E-04  0.0000000E+00  0.3516496E-03
  0.8131313E+00  0.0000000E+00  0.2525252E-01 -0.3069460E-04  0.0000000E+00  0.3383790E-03
  0.8232324E+00  0.0000000E+00  0.2525252E-01 -0.2826155E-04  0.0000000E+00  0.3261728E-03
  0.8333333E+00  0.0000000E+00  0.2525252E-01 -0.2601281E-04  0.0000000E+00  0.3149433E-03
  0.8434343E+00  0.0000000E+00  0.2525252E-01 -0.2392121E-04  0.0000000E+00  0.3046165E-03
  0.8535354E+00  0.0000000E+00  0.2525252E-01 -0.2196214E-04  0.0000000E+00  0.2951303E-03
  0.8636364E+00  0.0000000E+00  0.2525252E-01 -0.2011387E-04  0.0000000E+00  0.2864332E-03
  0.8737374E+00  0.0000000E+00  0.2525252E-01 -0.1835769E-04  0.0000000E+00  0.2784824E-03
  0.8838384E+00  0.0000000E+00  0.2525252E-01 -0.1667778E-04  0.0000000E+00  0.2712428E-03
  0.8939394E+00  0.0000000E+00  0.2525252E-01 -0.1506097E-04  0.0000000E+00  0.2646855E-03
  0.9040404E+00  0.0000000E+00  0.2525252E-01 -0.1349642E-04  0.0000000E+00  0.2587863E-03
  0.9141414E+00  0.0000000E+00  0.2525252E-01 -0.1197528E-04  0.0000000E+00  0.2535255E-03
  0.9242424E+00  0.0000000E+00  0.2525252E-01 -0.1049026E-04  0.0000000E+00  0.2488865E-03
  0.9343435E+00  0.0000000E+00  0.2525252E-01 -0.9035308E-05  0.0000000E+00  0.2448553E-03
  0.9444444E+00  0.0000000E+00  0.2525252E-01 -0.7605284E-05  0.0000000E+00  0.2414203E-03
  0.9545454E+00  0.0000000E+00  0.2525252E-01 -0.6195664E-05  0.0000000E+00  0.2385720E-03
  0.9646465E+00  0.0000000E+00  0.2525252E-01 -0.4802346E-05  0.0000000E+00  0.2363024E-03
  0.9747475E+00  0.0000000E+00  0.2525252E-01 -0.3421491E-05  0.0000000E+00  0.2346054E-03
  0.9848485E+00  0.0000000E+00  0.2525252E-01 -0.2049424E-05  0.0000000E+00  0.2334766E-03
  0.9974747E+00  0.0000000E+00  0.2525252E-01 -0.6825685E-06  0.0000000E+00  0.2329128E-03
  0.5050505E-02  0.0000000E+00  0.3535353E-01  0.1236562E-05  0.0000000E+00  0.2194167E-03
  0.1515152E-01  0.0000000E+00  0.3535353E-01  0.3716558E-05  0.0000000E+00  0.2201373E-03
  0.2525252E-01  0.0000000E+00  0.3535353E-01  0.6217325E-05  0.0000000E+00  0.2215824E-03
  0.3535353E-01  0.0000000E+00  0.3535353E-01  0.8753065E-05  0.0000000E+00  0.2237598E-03
  0.4545455E-01  0.0000000E+00  0.3535353E-01  0.1133842E-04  0.0000000E+00  0.2266821E-03
  0.5555556E-01  0.0000000E+00  0.3535353E-01  0.1398865E-04  0.0000000E+00  0.2303659E-03
  0.6565657E-01  0.0000000E+00  0.3535353E-01  0.1671988E-04  0.0000000E+00  0.2348326E-03
  0.7575758E-01  0.0000000E+00  0.3535353E-01  0.1954936E-04  0.0000000E+00  0.2401084E-03
  0.8585858E-01  0.0000000E+00  0.3535353E-01  0.2249595E-04  0.0000000E+00  0.2462245E-03
  0.9595960E-01  0.0000000E+00  0.3535353E-01  0.2558057E-04  0.0000000E+00  0.2532177E-03
  0.1060606E+00  0.0000000E+00  0.3535353E-01  0.2882696E-04  0.0000000E+00  0.2611306E-03
  0.1161616E+00  0.0000000E+00  0.3535353E-01  0.3226256E-04  0.0000000E+00  0.2700129E-03
  0.1262626E+00  0.0000000E+00  0.3535353E-01  0.3591974E-04  0.0000000E+00  0.2799214E-03
  0.1363636E+00  0.0000000E+00  0.3535353E-01  0.3983732E-04  0.0000000E+00  0.2909219E-03
  0.1464646E+00  0.0000000E+00  0.3535353E-01  0.4406271E-04  0.0000000E+00  0.3030898E-03
  0.1565657E+00  0.0000000E+00  0.3535353E-01  0.4865483E-04  0.0000000E+00  0.3165116E-03
  0.1666667E+00  0.0000000E+00  0.3535353E-01  0.5368835E-04  0.0000000E+00  0.3312857E-03
  0.1767677E+00  0.0000000E+00  0.3535353E-01  0.5926012E-04  0.0000000E+00  0.3475217E-03
  0.1868687E+00  0.0000000E+00  0.3535353E-01  0.6549926E-04  0.0000000E+00  0.3653379E-03
  0.1969697E+00  0.0000000E+00  0.3535353E-01  0.7258283E-04  0.0000000E+00  0.3848516E-03
  0.2070707E+00  0.0000000E+00  0.3535353E-01  0.8075951E-04  0.0000000E+00  0.4061552E-03
  0.2171717E+00  0.0000000E+00  0.3535353E-01  0.9038004E-04  0.0000000E+00  0.4292599E-03
  0.2272727E+00  0.0000000E+00  0.3535353E-01  0.1019134E-03  0.0000000E+00  0.4539705E-03
  0.2373737E+00  0.0000000E+00  0.3535353E-01  0.1158309E-03  0.0000000E+00  0.4796659E-03
  0.2474747E+00  0.0000000E+00  0.3535353E-01  0.1317917E-03  0.0000000E+00  0.5053243E-03
  0.2575758E+00  0.0000000E+00  0.3535353E-01  0.1444471E-03  0.0000000E+00  0.5332637E-03
  0.2676768E+00  0.0000000E+00  0.3535353E-01  0.1532329E-03  0.0000000E+00  0.5696002E-03
  0.2777778E+00  0.0000000E+00  0.3535353E-01  0.1582355E-03  0.0000000E+00  0.6147092E-03
  0.2878788E+00  0.0000000E+00  0.3535353E-01  0.1569000E-03  0.0000000E+00  0.6603413E-03
  0.2979798E+00  0.0000000E+00  0.3535353E-01  0.1634299E-03  0.0000000E+00  0.7048394E-03